/*--------------------------------*- C++ -*----------------------------------*\
| =========                 |                                                 |
| \\      /  F ield         | OpenFOAM: The Open Source CFD Toolbox           |
|  \\    /   O peration     | Version:  v2012                                 |
|   \\  /    A nd           | Website:  www.openfoam.com                      |
|    \\/     M anipulation  |                                                 |
\*---------------------------------------------------------------------------*/
FoamFile
{
    version     2.0;
    format      ascii;
    class       volScalarField;
    location    "600";
    object      ddt0(k);
}
// * * * * * * * * * * * * * * * * * * * * * * * * * * * * * * * * * * * * * //

dimensions      [0 2 -3 0 0 0 0];


internalField   nonuniform List<scalar> 
18355
(
1.17857e-08
-0.00131351
9.35192e-08
-2.59397e-08
5.42916e-08
-1.63379e-06
-1.99921e-08
-2.38125e-07
3.82616e-09
-0.00199996
3.29228e-10
0.00156012
-4.97953e-07
-3.06624e-09
-1.15389e-07
-9.60149e-08
0.00018008
-1.0685e-08
1.42491e-08
0.0143226
-9.46706e-08
2.61625e-08
-0.00317609
5.34506e-08
2.0007e-07
9.04222e-09
2.27129e-09
5.30246e-10
0.000223623
1.01333e-07
1.01249e-08
1.07529e-07
-1.06413e-08
-2.94945e-08
6.88486e-08
-3.18826e-09
-1.18031e-08
4.33492e-07
-5.2366e-09
-7.39212e-09
-1.52871e-09
-4.81672e-07
9.34282e-08
-0.00184946
-1.19286e-08
7.36352e-07
1.27116e-07
-6.69097e-09
-8.7299e-08
-3.76657e-09
-2.64138e-08
-2.08212e-08
-1.68455e-09
-0.00195082
-2.05279e-09
-5.07883e-09
-1.48596e-06
-1.13724e-07
2.12505e-06
1.4589e-07
6.74103e-10
-7.8412e-07
-2.01816e-08
1.15131e-08
0.00158602
3.3387e-08
-0.000796171
-3.38489e-08
2.15125e-09
4.23262e-08
2.70574e-07
-2.23037e-09
3.49721e-07
1.37387e-08
-1.70842e-07
-2.14597e-08
0.0014715
1.11664e-07
3.22346e-07
-5.6969e-09
-2.15287e-08
-0.000101152
-8.92009e-08
-1.68415e-07
7.51725e-09
-4.26635e-07
-0.0014446
0.0147903
-0.000376659
-0.00362504
-5.24134e-05
-1.36716e-08
4.32715e-09
7.6474e-10
-0.000883974
-0.0029224
-6.73634e-08
1.91618e-07
-0.00206233
4.66836e-06
-0.00156215
4.13603e-05
9.21097e-08
0.000395395
4.33055e-08
-2.03711e-06
0.00125684
-6.92076e-07
8.99194e-08
1.07354e-05
1.02992e-07
8.54107e-09
8.36248e-09
2.59914e-09
-0.000179891
-1.03912e-08
4.28346e-06
0.00176207
-3.96335e-06
4.02029e-08
-0.00212135
-0.00655781
1.04997e-07
1.63434e-07
-6.66813e-08
-1.13268e-06
-2.4891e-08
-4.37462e-10
0.00768857
-3.08909e-10
-2.82115e-08
-0.0153447
-3.49492e-07
1.83576e-07
-1.35146e-07
-1.61765e-09
-8.61965e-08
2.77663e-09
2.27361e-08
-4.24618e-07
-0.00183446
-0.00187365
-4.06138e-08
1.01005e-07
5.47236e-06
4.90279e-08
-2.27288e-08
-0.00473265
1.43534e-07
-0.00791534
6.61396e-08
4.62405e-08
8.27905e-08
-1.38856e-06
-1.21604e-06
-1.65739e-09
-0.0126169
-3.76244e-06
-1.41966e-09
-9.05634e-07
-1.37198e-07
-7.19279e-08
-4.84992e-08
1.96182e-07
-7.81527e-06
-3.61422e-05
0.00030915
1.24622e-07
1.83201e-07
4.36059e-09
-0.00168664
-0.00260092
-7.11406e-09
-6.84016e-09
-9.65553e-08
-0.00116602
3.12606e-07
3.00358e-09
0.00773451
0.000552744
-2.80565e-06
2.3703e-07
1.63759e-07
-1.48478e-08
-6.8161e-06
-0.00114819
-0.00408959
-1.70336e-06
-6.82275e-10
0.000110566
-1.4193e-06
9.24171e-08
1.93104e-07
-0.00370158
3.94822e-07
2.90012e-08
-0.00474732
1.60063e-07
-6.3172e-08
-8.87829e-09
9.61142e-08
-2.58003e-08
-0.000780662
-0.00387515
0.000880665
-1.3688e-07
3.05631e-06
0.00244946
0.00267102
-5.38226e-08
-8.44171e-08
6.56725e-08
0.011025
-2.42926e-08
5.65013e-09
0.000152626
0.0206131
0.0117132
9.65875e-09
1.39203e-07
-6.20515e-05
1.99808e-08
-1.49916e-07
-8.95342e-08
0.000226842
4.91504e-08
0.0016803
-0.00121213
-4.00933e-06
-8.13073e-08
-2.21364e-09
3.13008e-07
-1.26154e-07
0.00180778
-1.24124e-07
8.13108e-09
3.83999e-09
1.93432e-06
0.00248544
0.000800013
9.63905e-08
2.15512e-06
7.15116e-09
8.72144e-09
4.43974e-08
-0.00142652
0.00503179
9.40009e-06
-1.15299e-06
-1.56486e-07
9.386e-08
-1.73433e-06
1.68077e-07
0.00302262
6.27415e-08
0.00096187
0.022685
-8.98135e-07
9.89804e-08
-1.14759e-08
5.55844e-08
1.6563e-09
-0.000491247
-4.06377e-07
-2.21108e-09
6.01427e-09
-2.52611e-09
3.15523e-07
-6.49731e-07
-1.13481e-06
-3.72014e-08
-0.000109113
1.03929e-06
-1.65478e-06
-8.11192e-08
0.0190626
-1.37027e-08
-5.03035e-08
-0.00128201
-2.22914e-08
-2.08554e-08
-1.71522e-06
2.92522e-08
-0.00120821
1.65637e-07
-1.12567e-09
-2.1009e-08
2.13056e-07
0.00153104
1.10743e-07
-2.45284e-08
-3.66228e-09
-3.4336e-06
-0.00204376
-1.533e-09
-1.02292e-09
0.0208128
-8.92684e-08
-1.08829e-06
-5.92426e-06
-5.03071e-08
1.43496e-08
2.85241e-08
-1.78177e-09
-2.47795e-07
-1.00285e-05
0.000129035
-3.71393e-06
-4.29953e-09
2.46728e-07
2.09771e-08
2.67073e-08
0.0215215
9.02747e-08
-3.99056e-06
1.06691e-06
2.84757e-09
-3.31451e-08
3.65132e-06
-0.00310684
0.00276305
-9.85222e-08
-1.31066e-07
-0.0015797
-1.29984e-08
0.0101728
3.4139e-07
1.41093e-07
-0.00362242
-5.01254e-09
-8.5681e-05
5.09268e-08
-1.28257e-07
-6.39286e-09
-9.5454e-07
0.00135815
-5.30523e-10
-0.000796423
3.77108e-08
-5.86728e-09
3.85771e-08
-8.86542e-07
-0.0105442
-0.000852269
0.00234228
6.56958e-08
-2.07031e-08
-0.00182328
2.11228e-06
5.99308e-09
-1.05649e-07
0.000166813
-8.00851e-06
-4.44746e-06
-0.00203428
-1.38477e-09
1.12275e-07
9.40806e-06
1.05794e-07
-1.14646e-07
-1.26906e-05
-3.71903e-08
1.6352e-07
-0.002156
-1.58763e-09
5.65259e-07
8.37471e-05
0.00071951
-2.659e-08
8.77879e-08
-2.25462e-08
-6.88168e-08
-3.87485e-08
-6.91225e-08
-6.35498e-08
-2.65191e-08
-1.3458e-07
-7.69165e-10
1.45007e-09
-3.31622e-09
-1.67956e-08
-2.03817e-08
-1.55006e-08
-9.90774e-08
-3.00433e-06
0.0003112
-9.25963e-08
-0.00610226
1.41757e-07
-7.28125e-05
9.29653e-08
-1.20181e-07
3.96702e-08
-0.00928455
-1.18157e-08
-9.90244e-09
6.92231e-09
-3.57385e-08
-0.00120393
1.70157e-09
-9.74655e-09
-1.20806e-07
-1.01333e-07
1.03201e-07
-1.29671e-08
0.00178139
3.95366e-08
-1.28849e-08
-1.41598e-06
1.71263e-08
1.10987e-05
5.14866e-05
-1.20453e-05
-7.12822e-09
3.62163e-08
0.00164342
-2.10185e-09
1.74974e-08
-4.42615e-06
-2.38727e-09
-7.70442e-09
0.000167866
1.21434e-08
0.00140636
1.09127e-07
-9.15253e-08
0.000107384
2.1591e-08
2.70116e-09
0.00417187
-1.67875e-06
-0.00142955
-0.0052864
-3.92621e-08
-1.59933e-08
4.94766e-08
0.0184483
-4.19536e-09
7.25765e-09
-2.16929e-09
-1.55532e-08
-3.61153e-07
5.65563e-06
-6.8627e-08
5.43578e-08
-1.6491e-09
9.92263e-08
0.000358562
-0.00192982
0.000999636
-0.0131072
1.37421e-07
-2.95788e-07
-0.00209612
4.80396e-08
6.01121e-09
-1.61172e-09
-9.05226e-08
2.26331e-07
-3.92127e-08
-9.87319e-09
-4.78099e-06
-2.63052e-07
1.81006e-10
-0.00348519
-4.21095e-08
-0.00127196
1.44697e-08
-1.00946e-08
9.37869e-08
-1.93575e-08
-1.44953e-09
-2.92299e-10
-4.65888e-08
-0.00173935
-1.03118e-07
-2.01611e-08
-0.00215758
1.16609e-07
6.98088e-09
1.09541e-07
1.09524e-07
0.00524644
-8.58752e-08
-6.07471e-08
-0.0116869
-2.20286e-08
0.0014354
3.66787e-07
-7.13645e-08
-6.79074e-05
3.16846e-07
-8.80788e-09
0.00344315
-0.00194528
0.000888563
-6.74799e-08
-5.96736e-08
-1.16829e-07
-3.50603e-06
2.36692e-08
0.000875651
0.0183477
-0.00711125
0.000760818
-3.60438e-08
1.14459e-07
-0.000728441
-0.00284085
0.00563658
6.74045e-08
-1.36662e-07
-1.40239e-07
-0.00241013
2.12741e-05
-2.54059e-05
4.73356e-08
2.39209e-09
6.86182e-10
-2.5654e-08
-4.50771e-08
0.00502337
-1.04129e-07
0.000417653
5.48226e-08
-1.0658e-09
-7.5864e-09
-3.98383e-08
-2.07569e-07
-6.75133e-05
-7.71805e-10
-2.36654e-06
0.000242795
3.08737e-07
9.63936e-08
-1.67475e-08
4.09114e-07
-2.02353e-09
7.01321e-08
-4.64739e-08
2.8143e-07
5.2345e-07
-1.14602e-07
-9.49539e-09
-1.42034e-09
-3.56174e-10
1.56954e-07
1.59098e-07
-7.96403e-07
2.49741e-08
5.287e-08
0.0129286
-1.16487e-08
-1.66422e-07
1.34273e-08
1.03251e-06
-2.95626e-10
-0.00140647
1.66756e-08
-0.00128158
-4.14346e-08
1.80795e-09
0.0224566
0.0108145
0.00119465
3.30183e-07
1.03201e-08
-7.0842e-08
-4.39374e-09
-2.8732e-06
-1.64982e-07
6.45456e-08
3.50912e-09
-0.00180031
-7.00352e-06
-1.89192e-08
0.00316133
-0.0161235
1.08507e-07
7.15669e-09
-2.71529e-07
-0.00352294
6.16974e-08
-3.92393e-10
-1.83294e-06
5.99154e-07
1.61776e-08
-3.39916e-08
0.000202628
1.82633e-07
-1.5876e-06
-0.00174605
-0.00212738
-0.0215744
7.9432e-08
-9.40882e-07
1.57629e-07
-7.76923e-09
1.0897e-07
1.01589e-07
5.08204e-06
9.408e-06
-0.00109951
-5.60706e-06
0.00167848
0.00211819
-2.06404e-07
-1.02908e-07
-0.00111699
0.00302445
-4.75541e-09
2.14771e-06
-0.00101199
-0.00842623
-1.34825e-07
-3.48375e-08
1.81507e-07
2.02731e-07
3.888e-07
-6.97949e-07
9.38115e-08
-0.00133997
-9.89297e-08
-8.79792e-08
-0.00259518
4.38114e-08
-3.31513e-07
0.00746976
-5.89979e-09
-7.92698e-08
-0.000103403
-5.86055e-09
-2.43929e-06
-8.17012e-09
-0.000121075
3.28469e-07
-5.44854e-08
3.3696e-07
-7.01176e-08
-3.32878e-06
2.34674e-08
-0.0067339
-1.23709e-06
1.97793e-08
-0.000268753
-3.59668e-09
5.44743e-05
0.000441301
-0.000143293
-2.17422e-05
9.6337e-08
-3.71029e-08
-0.00194322
-1.87562e-08
7.04552e-08
-3.67841e-09
1.5807e-07
-0.0138719
-0.00503698
3.45966e-08
0.000149572
4.18464e-07
-1.41126e-07
-3.5681e-08
-2.36261e-09
-1.93556e-07
-2.79244e-07
-3.79331e-08
0.00692423
-1.25652e-07
-3.70027e-08
-1.47552e-08
0.00307922
0.00168142
9.95956e-08
-1.08032e-08
-1.7095e-06
-2.2056e-09
-1.12418e-08
0.00237349
9.10515e-06
2.98441e-08
-1.13378e-09
-3.80727e-06
-1.83761e-07
3.56599e-07
1.5702e-07
-2.37225e-08
-0.000519049
-4.17377e-07
6.66169e-08
1.52652e-05
-0.00244088
-2.34261e-08
-0.00549652
-2.72094e-08
-1.27112e-08
2.23884e-08
9.09908e-08
0.0015049
4.92955e-08
-0.00178045
-5.98631e-08
0.00364584
0.000176535
1.55804e-07
0.00162365
8.78955e-08
0.00283797
1.12283e-07
-0.00310488
-0.00129537
1.88472e-08
1.44536e-06
-1.22227e-07
-4.70354e-08
0.00358614
-6.40589e-07
0.00175207
1.07945e-08
-0.001578
2.79433e-08
-0.00771076
6.41619e-08
-1.49145e-07
3.44097e-07
2.00853e-08
-3.27636e-08
-4.64064e-07
-0.00558377
-0.00315407
-1.68558e-08
3.3374e-06
1.51137e-07
2.20045e-08
-2.79414e-10
-7.54346e-08
-2.99507e-06
0.0028569
6.44601e-08
-3.99197e-08
-1.40936e-07
-0.000484484
-1.43822e-07
9.00727e-08
1.78585e-08
5.3494e-08
1.08212e-07
-6.90611e-05
6.11654e-08
-1.21535e-05
1.91454e-07
0.0032444
0.000819396
-0.000613156
-3.39414e-08
7.44889e-09
8.99311e-08
-1.25971e-07
1.71354e-07
-0.00112105
-6.08696e-09
-6.67427e-08
-3.5315e-08
0.0027048
-2.27755e-08
1.95431e-08
-1.17668e-07
1.86851e-08
-0.00421084
0.00137424
-1.74723e-08
-6.55205e-09
-0.00408574
6.56002e-08
0.00271096
-0.00129688
0.00200827
2.37822e-06
-1.07945e-06
0.0113267
3.71784e-07
1.07797e-08
1.22051e-08
4.41821e-08
3.89594e-08
4.23635e-09
3.78956e-08
-0.0042505
-0.000883904
-7.90647e-08
-4.78321e-07
-4.59302e-09
-1.36364e-07
-5.37819e-08
-6.15159e-10
-9.37613e-08
-8.41521e-08
-2.84849e-06
4.27262e-06
7.31654e-09
0.0019179
-2.57936e-07
-0.000296084
3.61551e-07
0.00929441
0.00197427
-4.14141e-07
0.000145179
-6.55201e-06
0.000440589
2.74275e-08
-3.69583e-08
-1.84547e-08
2.01147e-07
0.0192745
3.6308e-09
-4.5347e-10
-3.31301e-07
-1.24973e-08
7.86242e-08
-2.36125e-07
-2.86525e-09
0.0123933
2.57264e-08
-1.74556e-09
-4.2299e-06
-2.57578e-08
6.88515e-07
-1.60995e-05
2.08715e-08
7.29979e-08
2.24284e-08
1.99875e-08
-3.45994e-09
-7.53481e-08
-0.00183092
-6.24701e-09
-0.00156341
-5.66494e-08
-0.00215967
1.79626e-07
-2.39885e-06
-3.83938e-08
-5.31021e-07
3.20574e-08
9.41519e-09
1.28774e-08
-0.00162344
1.94345e-08
0.000526878
0.000724902
-3.26574e-08
-5.97677e-09
-3.15373e-09
-3.26933e-08
0.00210918
-4.80905e-09
-0.00238089
-0.00091428
-1.33935e-07
0.000124696
-2.44741e-08
8.87617e-08
0.00283338
0.00179784
8.72044e-09
-3.79775e-08
9.805e-08
8.31289e-09
8.34682e-08
1.54817e-07
-2.17563e-05
-1.00289e-07
0.00103691
2.75564e-06
0.00372859
-4.81351e-08
-1.84962e-08
0.000455349
-0.00187089
-1.45924e-07
-3.95573e-08
6.88472e-08
0.00140562
-4.22466e-08
0.000344997
6.6838e-08
-1.84373e-09
-5.06455e-08
-7.71267e-09
6.68141e-08
-7.58247e-09
-1.34484e-08
-1.45701e-08
7.28493e-08
-0.00162119
-1.92083e-09
2.98927e-07
-0.00191523
6.74709e-08
2.46021e-08
1.76185e-07
0.000497529
1.05548e-07
-0.00029283
-9.64359e-09
-2.92858e-08
1.27202e-09
-0.00101573
8.50122e-08
4.6382e-06
-2.8435e-08
-3.7109e-08
4.80154e-08
-0.000277458
-4.24206e-08
0.0110551
-3.25845e-08
0.00183228
-2.45016e-09
-1.71985e-08
-2.2165e-06
8.66345e-08
-0.00124687
4.6292e-08
2.74161e-06
-1.68676e-09
7.08648e-09
5.53589e-09
1.66367e-06
0.000510875
-8.78873e-08
5.91729e-08
1.95511e-08
2.73978e-08
-3.9026e-08
-3.79303e-10
-7.04485e-07
-6.22718e-08
0.00511743
-1.33727e-07
0.00241354
3.51487e-08
-3.44858e-08
0.000231696
0.00198164
-0.00650753
-1.20084e-07
-0.00121502
3.55698e-08
-0.000939888
2.20664e-08
1.03752e-06
-8.11487e-09
0.000642842
8.03245e-08
-1.23795e-08
-6.04801e-09
9.6732e-08
-1.82821e-09
0.00100318
-0.0222203
0.000153342
-5.15001e-08
2.13734e-07
-7.7157e-08
-1.7215e-08
-2.34543e-08
-4.99525e-09
-8.78403e-08
5.34804e-07
5.76e-08
-0.000907602
3.71149e-08
-3.88208e-08
1.58437e-08
-0.000908838
-2.96852e-06
-3.17724e-08
-7.13399e-08
-9.94099e-08
0.000553998
-4.98838e-07
0.00284921
1.9326e-07
-1.3552e-06
-4.38295e-07
-3.99205e-09
6.38842e-08
-6.60586e-07
-7.78447e-08
3.03365e-08
-0.0107302
-1.17746e-07
0.000227216
-6.91768e-08
1.19029e-06
-1.25449e-07
-2.39965e-08
-1.51831e-07
-4.08411e-09
0.00107075
2.84607e-08
-0.000258264
1.40829e-08
-4.14854e-09
0.00255948
9.66339e-08
2.69173e-07
0.00277496
2.4001e-08
8.62319e-06
-0.00156207
1.40648e-08
1.61433e-07
-0.00175301
-8.41344e-08
6.4376e-08
2.21973e-08
1.68189e-07
9.67133e-08
-1.33136e-06
0.0229828
9.35127e-08
-1.01826e-07
-0.00301838
-2.53723e-08
4.87447e-06
1.76417e-07
-7.23807e-08
-5.86767e-05
-6.99695e-05
-6.74884e-09
2.59057e-08
7.82049e-08
-4.10635e-08
-2.21052e-08
-0.0120774
-1.76778e-09
2.91128e-07
-3.526e-08
-3.39432e-06
-7.4236e-09
-1.6899e-05
2.94593e-06
8.50244e-08
-0.00240484
-1.74386e-08
2.81329e-08
4.18171e-08
-0.00247874
-1.65265e-07
-1.7462e-08
-4.32529e-08
-1.17101e-07
8.73584e-08
-1.75827e-06
0.00159968
0.00130356
-9.51132e-05
2.63935e-09
2.4949e-08
-8.52717e-07
6.4883e-08
-4.38235e-08
-2.2203e-05
-0.00205752
-1.35509e-07
1.61929e-08
0.000345643
-2.8746e-09
3.72041e-09
0.000806296
-1.74538e-06
0.0152773
-6.69074e-09
-2.83905e-08
0.00158449
2.80808e-08
-1.52946e-08
-2.38902e-09
2.57492e-07
-6.28375e-10
-1.70377e-07
4.71903e-07
2.73079e-08
1.06026e-09
-0.000515354
5.77792e-09
-1.69176e-08
6.42696e-08
1.34253e-08
7.79302e-08
-6.18906e-08
0.00342491
-1.13246e-07
-0.00846092
-6.32016e-08
1.72521e-07
0.00227341
-8.48623e-09
-1.92991e-06
-3.78787e-08
-7.45003e-09
-8.078e-09
-1.41544e-06
-2.63284e-08
-6.71415e-08
3.5787e-09
4.91884e-08
-6.48384e-07
-2.03344e-08
2.53796e-08
-6.42802e-09
5.44081e-11
-1.96241e-07
0.00035854
0.00247129
0.0117108
-0.0136954
-1.49553e-06
-3.66618e-08
-0.00563493
0.0137309
-1.00144e-08
4.25834e-08
-3.24129e-08
-8.2971e-06
0.0202071
-1.62228e-07
-1.18405e-07
-3.45655e-08
3.97065e-08
-2.24482e-09
1.15386e-07
0.00124375
0.000796396
8.83618e-05
-6.88739e-07
2.83264e-09
-3.34222e-09
4.84347e-09
0.00147774
-0.00225345
1.63135e-08
4.49138e-06
-2.56605e-08
6.57899e-08
8.94616e-08
1.77619e-08
6.73548e-08
7.04321e-05
-3.97287e-08
-8.69266e-06
-2.10549e-08
-1.86932e-08
-3.40267e-07
-8.45422e-09
-6.71419e-09
-6.05933e-07
-6.75029e-06
4.12851e-09
-4.00311e-08
-1.21042e-08
-1.19753e-09
1.11065e-08
1.62312e-08
-0.00371606
-2.15062e-07
-9.68329e-08
3.42808e-08
-0.00233988
1.18978e-05
-3.63616e-09
2.19613e-08
1.00785e-07
0.000220911
-7.8088e-07
0.00253252
4.85695e-06
1.64853e-07
-3.09877e-06
-3.48078e-06
-3.64825e-07
0.00122566
-3.30227e-08
1.03456e-08
8.14199e-08
1.18303e-05
4.65645e-08
0.00149979
-2.73698e-08
1.30868e-08
0.00267819
-6.9389e-08
2.9227e-08
-5.79631e-07
-2.38724e-08
-1.72033e-09
0.000296816
2.94768e-06
-2.51914e-08
-4.57673e-05
5.61573e-07
0.000504429
0.00204425
-2.78115e-08
0.00154037
-1.42691e-08
-4.22784e-08
-9.29355e-09
-5.38743e-09
-0.00149955
-2.6403e-07
-1.38903e-07
7.99101e-08
0.00167708
-1.17189e-07
-0.0110232
-0.0116714
-2.10308e-09
-3.97676e-08
1.34275e-08
0.00308544
-1.03882e-06
-2.36768e-08
8.76918e-08
-2.1475e-05
-2.76274e-09
1.32627e-08
2.78421e-08
1.27787e-08
-6.87453e-09
-1.52442e-07
-0.00394532
-5.71291e-07
-2.78249e-06
0.000939713
-8.90872e-09
0.00147443
3.78171e-07
7.4457e-08
-1.79883e-09
-4.11268e-08
6.97424e-09
-1.833e-08
-1.60153e-08
0.000816002
1.1985e-06
-0.0025144
-5.64155e-07
-1.55673e-06
5.61975e-09
-1.65142e-06
0.001564
-5.29581e-08
1.73645e-07
-2.15651e-08
0.000528302
0.000779894
-1.94787e-07
-3.19727e-06
1.31761e-09
-0.00168888
-6.38921e-08
3.74947e-09
-9.20607e-08
1.2768e-07
-3.94914e-08
-1.4445e-06
0.00180636
-2.21158e-09
0.000435141
0.00158613
0.00118661
0.000795279
1.27219e-07
-0.00204189
3.98428e-07
5.2964e-07
-0.00233614
-7.14296e-08
-6.20198e-09
-9.52527e-09
-2.46785e-09
0.000647475
6.09252e-08
-0.00149271
-1.71431e-08
-1.14667e-08
0.0186122
1.023e-07
0.000197708
-7.86044e-08
-3.08343e-05
9.78837e-08
3.22393e-09
-0.00332145
1.85784e-07
-1.06308e-06
-1.06571e-08
-3.01756e-08
-7.11337e-06
-1.55355e-06
-1.08944e-08
-1.10882e-07
-0.000312136
-1.78593e-08
4.21213e-06
-1.82292e-09
-2.90326e-08
-1.69798e-08
5.97418e-08
2.1157e-07
2.60166e-07
-3.47357e-08
0.00207243
8.03111e-08
-2.33107e-08
2.04663e-07
-0.0013548
-7.07269e-07
1.92704e-07
-5.01307e-09
4.25178e-08
-3.89028e-07
3.7551e-06
2.73927e-05
0.00490506
2.38233e-07
8.03672e-08
-9.46119e-06
2.87692e-08
1.27717e-07
-0.0022795
-1.62918e-08
-4.93167e-06
-0.0071765
0.000105207
-0.00121789
0.00305415
-1.57802e-06
7.0964e-08
-0.0121841
-1.38806e-07
2.52415e-08
-1.62242e-08
-1.0639e-08
-6.67419e-07
-2.13749e-08
5.73098e-08
-3.95505e-07
0.000104578
1.48461e-07
-1.75363e-08
7.47542e-08
-0.000395341
-8.27592e-07
-0.00136212
7.11359e-08
-0.00200658
-4.07042e-08
-1.82361e-07
1.96201e-07
8.10949e-08
0.000821151
1.26244e-08
-7.63202e-09
6.60083e-08
-6.2724e-08
-0.000144198
-1.68897e-06
-2.06243e-09
-0.000211976
-2.87864e-09
0.000315427
-4.45733e-08
3.4918e-05
-1.18626e-07
1.89782e-07
7.88421e-09
6.4367e-08
-2.29096e-08
1.74999e-08
-1.78925e-05
9.23838e-07
-5.78095e-09
-1.5628e-07
-0.00180304
0.00227885
8.6044e-08
0.0101194
-0.0106684
7.08412e-08
0.00155618
1.91218e-10
-8.10193e-06
-6.39844e-09
3.4261e-08
5.28169e-08
-5.25211e-08
-0.0134975
-9.39168e-06
4.16195e-07
0.00148212
4.23435e-06
3.63585e-06
-0.0022185
6.88951e-09
-2.48429e-07
0.000316214
-1.95701e-08
-3.936e-07
-0.011733
-5.10154e-06
9.16035e-08
0.00376358
-4.52744e-07
0.00103676
0.00398192
6.48452e-08
-1.12038e-06
1.67731e-07
-1.66685e-08
-3.34791e-08
0.000652883
1.36681e-06
-7.42362e-06
4.34251e-07
-1.37182e-08
-0.00369323
7.89559e-08
-1.23151e-08
2.25168e-08
-6.44461e-07
9.84679e-08
3.45747e-09
-1.44132e-09
-0.000480047
-5.15878e-09
-1.72463e-08
0.00143706
-1.79623e-08
-3.47589e-09
-0.00735458
-2.00966e-08
3.97541e-08
2.92126e-07
-4.94863e-07
7.5787e-07
1.02945e-07
6.25141e-08
1.81175e-07
9.13867e-07
5.75187e-08
-4.77328e-08
4.21697e-06
9.28078e-06
1.69157e-07
0.000401803
1.51346e-06
-1.17121e-07
1.638e-07
0.0178365
-1.44963e-06
-5.98248e-09
-1.78622e-08
2.9872e-06
5.74182e-08
-0.0057448
1.24053e-05
1.18043e-07
-0.00154651
2.5112e-09
-8.18185e-07
0.0226444
6.05522e-08
-2.72825e-09
-5.64833e-09
-1.12543e-08
0.0159313
-2.81666e-06
1.71323e-07
-8.22073e-07
-1.84842e-05
-2.06392e-07
-2.79292e-08
1.60309e-07
-2.33578e-07
-1.7246e-08
7.34516e-09
-0.000271893
1.08336e-07
2.87918e-06
1.10918e-08
-1.63605e-08
-2.75895e-09
2.16753e-07
-3.39443e-08
8.23069e-08
-1.17778e-07
1.04783e-07
-0.00041349
-0.00126147
2.35906e-06
0.00497785
1.14687e-08
7.06026e-08
-0.00145145
-1.48085e-07
0.00164235
1.06004e-06
8.58438e-08
-1.28453e-07
-1.09715e-07
6.30548e-08
-6.22255e-09
-1.65235e-07
-1.31393e-06
-0.00133123
-2.83574e-07
0.00148491
-1.19363e-07
-1.36712e-07
4.21257e-08
-3.37996e-06
0.00116742
-1.06022e-05
1.05783e-05
5.79252e-08
0.00211372
1.10943e-07
-1.91609e-08
-1.29394e-07
6.01279e-08
-0.000338239
2.50112e-08
-1.63182e-06
-2.08023e-08
1.95351e-06
-3.64209e-08
-0.000766212
7.63288e-08
5.52908e-08
1.86064e-07
-1.48612e-08
-1.42656e-06
-2.16954e-06
-0.00246215
-1.13494e-07
-3.72988e-08
-0.00268723
1.5605e-07
9.15463e-08
2.37918e-07
-5.56871e-08
1.07261e-07
-1.68524e-08
-0.00100116
-5.35919e-08
-1.04981e-07
-9.051e-09
-2.48625e-08
0.000864911
-3.66126e-08
1.79436e-07
-9.91599e-09
2.09252e-08
-6.08428e-09
-7.23747e-08
1.08224e-07
1.36466e-10
-7.60617e-08
-1.98456e-08
-8.11301e-08
4.70711e-06
0.0194019
2.06107e-08
7.41303e-08
0.00372527
-1.88323e-08
4.53253e-09
-3.14239e-08
-3.46301e-06
-6.97547e-08
-3.26754e-07
-0.00507566
-8.8976e-08
-0.00240743
0.000234105
7.45601e-08
-1.32719e-07
5.18126e-07
4.49865e-09
0.000668626
0.0190589
-0.00230137
9.93606e-08
1.79477e-07
1.60105e-08
1.38224e-06
-1.01883e-07
-6.52983e-06
-1.85172e-09
-2.06605e-07
0.000233675
-9.98389e-07
1.46771e-07
0.00603245
0.000276211
-0.00139866
1.69347e-08
-2.59189e-08
0.000942545
6.07396e-07
1.2375e-08
-3.0434e-09
-2.32461e-05
-1.3517e-07
1.13938e-05
-2.35477e-07
-3.08581e-09
-1.33495e-07
-0.00434346
-1.20696e-06
1.09116e-07
-1.028e-08
9.1112e-09
-7.94381e-09
-1.0541e-05
7.3286e-08
-1.18396e-08
5.0096e-08
7.08021e-08
-9.06523e-09
4.23419e-07
-5.56348e-08
-1.11976e-07
0.00667327
0.000757461
-0.00102517
1.14052e-08
8.49427e-08
-8.89627e-07
6.52822e-08
-9.27362e-08
-3.7769e-08
-1.85e-08
-1.24345e-07
-0.0108031
-7.51249e-08
9.3119e-08
7.91682e-08
2.42586e-08
0.000126467
-0.00242563
-5.19855e-08
6.33605e-08
-1.71008e-08
5.19055e-08
0.00144646
-8.55427e-09
-5.04869e-10
9.40011e-09
-6.28307e-08
2.77895e-07
-2.86996e-05
8.01677e-05
-1.28628e-07
-0.000752824
-0.000330328
-1.37668e-07
-3.62533e-08
-1.49901e-07
1.14631e-07
-1.69726e-07
-1.01195e-07
2.74615e-08
-2.37691e-06
-7.68218e-08
8.27976e-07
3.58355e-07
9.97489e-09
5.583e-09
0.013132
6.06833e-08
-4.97232e-08
-9.19566e-06
-4.84372e-07
-0.00144095
0.00148381
6.5225e-09
2.52473e-06
-4.31863e-05
2.11855e-06
-4.89461e-08
-1.26643e-07
-9.11531e-09
-0.0212979
-5.13767e-08
3.16411e-08
7.7853e-08
-1.02158e-06
1.80316e-07
0.00110939
-7.37228e-09
-1.78816e-08
4.8317e-08
-4.75322e-06
-8.12272e-05
-5.4011e-09
-7.05581e-08
-1.02931e-07
-1.94638e-08
-5.00941e-09
0.000606156
-1.14177e-07
8.43844e-08
6.98467e-08
-0.0109478
-1.77978e-09
-1.51549e-08
1.43803e-07
-4.13185e-07
9.56675e-08
-2.13097e-09
6.10898e-08
0.0301411
7.0582e-08
-3.74176e-08
3.01264e-08
3.33349e-08
-1.5756e-06
-4.10609e-08
-2.64668e-08
-0.00233552
-0.0012255
1.39354e-08
-2.95484e-09
-3.97652e-07
2.73732e-07
-6.76856e-07
-7.186e-09
-0.0019291
-1.99262e-08
-9.70437e-08
1.15062e-07
0.00137467
0.00146398
4.3364e-06
-1.41509e-07
0.00211326
-0.00149975
-0.0304421
-0.00302515
-1.17206e-07
9.45059e-08
-4.11675e-08
-1.78192e-07
8.72534e-08
6.39896e-08
-1.3936e-08
-1.32388e-06
4.5367e-08
-0.00172372
7.29065e-08
-0.00331319
3.96756e-08
-0.00299836
9.51364e-08
-1.57048e-08
-2.1715e-08
-1.37559e-07
-3.13299e-07
0.000144888
-1.16629e-07
1.90075e-08
-6.70554e-08
-0.00337826
-9.18284e-09
-8.10413e-08
3.31619e-09
-1.73797e-07
-0.00147889
-4.3794e-06
-4.36725e-06
-1.40837e-07
-4.10689e-07
-6.12926e-08
-0.00248944
0.000199558
-1.81185e-08
-0.00322465
-0.0016367
9.69072e-08
-3.48255e-09
-6.88489e-08
6.5316e-08
1.72472e-08
-1.39339e-08
0.00151637
-1.09808e-07
-8.17424e-09
-1.42962e-08
-1.55081e-08
2.35176e-07
0.000115232
0.000902387
6.56044e-05
-2.03983e-08
0.000493092
-4.52428e-09
0.00845811
3.78769e-08
6.0923e-07
-1.62028e-08
-1.82561e-07
-0.000625812
-9.78071e-09
4.66683e-07
5.1583e-08
-1.27327e-07
0.00107556
-0.00875256
-1.44608e-08
-0.00118409
-1.6764e-08
-0.00347123
1.40501e-08
-0.00406235
0.000543467
2.44033e-08
-0.00159296
-4.06449e-08
-0.00175676
-5.37007e-09
-9.12941e-08
-4.7802e-08
9.63028e-07
-1.34383e-08
-4.57268e-05
-3.46711e-10
0.00286794
-1.3672e-06
-0.0030904
3.89028e-08
-2.63284e-08
0.00233739
1.3692e-07
-1.42689e-07
9.31364e-08
-8.78856e-07
-1.20429e-07
1.00333e-07
-0.00120824
7.44713e-08
-2.12657e-08
1.34595e-08
2.57427e-08
0.000717838
-4.39769e-08
-1.5405e-08
-0.00165604
-0.000168565
1.76674e-06
1.10565e-08
1.49381e-07
-2.00055e-06
-2.85861e-08
1.35091e-07
2.45338e-08
-2.19186e-08
-1.74402e-08
6.14e-08
-3.18683e-08
2.0434e-07
0.00254394
-5.19431e-07
1.53604e-06
-1.48233e-09
-3.42755e-08
0.0165123
3.71798e-07
-5.09809e-09
5.70523e-08
-0.0023106
0.000604124
9.40943e-08
-0.00193921
-5.34375e-07
-9.89567e-06
-1.36112e-09
0.00198063
-4.44572e-09
7.70679e-08
-1.86423e-10
-1.87221e-08
-1.7969e-08
-0.00148231
-4.77787e-09
-0.00253899
-1.15031e-06
-0.000513906
-0.0128718
4.84524e-10
6.01165e-08
0.0195768
-4.84678e-10
1.01757e-05
-3.66415e-08
-1.79819e-06
-1.14375e-07
0.00239651
-0.00176062
0.00124219
2.6348e-08
0.00338412
-0.00077877
-0.000609738
-1.81617e-06
4.35741e-07
3.5902e-07
2.79331e-08
0.000231821
-0.00377054
2.33853e-07
-8.34189e-05
-1.06999e-08
-7.66067e-09
1.21047e-07
-0.0146002
-1.04764e-07
-0.000572172
-1.33011e-08
-0.0103249
-4.8212e-08
-1.39092e-07
-1.77858e-08
-6.5792e-08
3.50619e-06
-7.42949e-09
-7.32101e-08
-5.05654e-08
-6.19196e-06
5.65859e-09
-5.74468e-09
-0.00267087
0.00114158
-1.25357e-07
0.000735187
-6.78025e-08
-4.11224e-08
0.000994566
-0.00185513
-1.23356e-09
-9.10495e-05
-1.89697e-08
4.46731e-08
-3.89872e-07
-0.00231209
-8.51516e-08
0.0169119
-1.35781e-07
9.70769e-08
0.000121918
5.71256e-08
-1.23074e-06
-1.083e-08
5.66873e-07
-2.98094e-08
0.000138689
-3.6231e-08
-1.25414e-07
3.28519e-08
-7.94591e-08
-1.18057e-05
0.000964449
-9.04583e-09
0.0115162
2.18256e-07
8.01984e-05
-0.00749312
0.000114487
1.30345e-08
-0.00109142
0.00336151
-0.00172934
1.77568e-05
2.51207e-08
1.98228e-08
3.49768e-08
0.00121866
8.64463e-08
6.03948e-08
0.000481947
-2.53921e-09
-0.00126786
-1.42044e-07
0.00171575
8.25202e-08
-2.40913e-09
-3.1594e-06
-8.13429e-09
-5.54038e-07
6.39706e-08
-1.1882e-07
4.97271e-07
-0.00177767
-5.74899e-10
9.73379e-08
0.000635146
-0.00075534
-1.48204e-09
2.59693e-08
3.36291e-08
-1.36329e-07
1.39455e-05
0.000278555
0.00275329
-3.13024e-07
0.000695928
0.0186276
-4.5751e-06
-1.97049e-08
1.29611e-09
-8.67534e-08
-1.90809e-08
-1.53236e-07
0.00115832
0.00167316
-1.16907e-09
-7.12273e-08
1.08656e-07
0.000670024
-0.0111258
-0.00952036
0.000142477
8.14389e-08
0.00107507
0.00237728
-4.04118e-08
-0.00233476
-4.115e-07
-2.58925e-08
-0.00394361
-0.00228163
-0.000822412
4.34228e-09
-1.40213e-07
-1.04557e-07
4.01335e-05
1.64036e-08
7.23613e-08
-2.65325e-09
-1.80826e-08
-2.71e-09
0.00230436
-1.22446e-07
-1.59124e-08
0.00122254
1.42546e-09
0.000401304
-5.58512e-08
0.00115513
-4.11167e-05
-1.37626e-08
0.00243986
1.32123e-05
1.01929e-06
-4.38126e-08
1.87089e-07
-2.47969e-08
7.63594e-09
0.000355487
-4.70315e-06
-1.59188e-08
9.36924e-08
-1.83072e-08
3.87137e-06
1.01779e-08
-5.87325e-09
-1.57634e-08
-1.77433e-08
-0.00253462
-1.11381e-08
0.0162363
0.00141418
-3.97407e-09
-1.55126e-08
9.68356e-05
1.22103e-08
-9.49281e-09
9.24972e-06
-1.24721e-07
-9.48971e-08
2.77479e-07
-1.9337e-06
0.00335123
-3.04289e-08
-3.48318e-09
-1.02093e-07
0.000369748
-0.00180503
-5.2896e-08
3.09289e-07
8.38956e-08
2.84064e-08
-7.90638e-08
-4.74844e-08
-3.69298e-06
2.44662e-07
9.13145e-08
-5.25003e-08
-1.39396e-09
8.9886e-08
3.06787e-08
2.77549e-08
-6.15128e-07
-0.00450058
-0.0111033
2.83763e-05
0.0134057
6.20415e-06
-1.04939e-07
0.000669221
-0.00439046
0.0165861
-2.04244e-09
9.08352e-09
1.95276e-06
-0.0130787
1.33168e-07
3.26746e-06
-0.0126644
-3.96429e-10
5.61356e-08
0.000963507
-7.39315e-09
-4.78056e-06
-3.39768e-07
1.0597e-07
0.000357031
0.0163292
-1.70278e-09
-0.00021303
-0.00194291
3.75818e-07
-9.80877e-06
5.52336e-08
0.0195701
-2.71026e-05
-0.00410048
-1.09718e-08
-1.15331e-07
-0.000956508
-2.27563e-08
-2.7653e-08
1.50043e-08
-2.25545e-09
3.37526e-08
0.00118953
0.00016396
8.07139e-08
1.44989e-07
2.85887e-08
0.00128284
-2.25119e-08
5.62238e-08
5.18945e-08
0.0216279
8.47046e-08
1.40763e-07
-5.21012e-08
-1.69618e-07
-1.12998e-07
-5.92262e-06
-3.58108e-07
-2.96805e-08
-3.21767e-06
-7.74135e-08
-2.14325e-08
2.5521e-07
-4.5759e-08
5.01632e-07
-0.00278082
4.82029e-07
-2.67749e-08
-0.000628379
8.71081e-05
3.06378e-06
0.000231073
-4.99663e-08
1.48513e-07
0.00154137
2.48175e-07
2.71153e-09
1.05616e-07
-6.22179e-07
3.55874e-08
-2.42402e-08
4.301e-10
-1.2357e-05
-0.00191843
0.00381422
-0.00209127
-1.0588e-08
-1.14321e-08
1.63346e-07
-1.83442e-06
0.00158883
-5.29109e-09
0.0159562
-1.09389e-07
0.000723721
5.89873e-09
-0.00200858
6.52438e-09
-0.000109693
-0.00196295
-1.23686e-06
-0.00064879
1.78487e-07
-2.68471e-09
1.89017e-08
5.46779e-05
0.00346149
1.39996e-07
-7.31872e-09
-1.46583e-08
7.01697e-08
9.92352e-08
3.76411e-10
-1.08019e-07
2.22597e-08
-6.30498e-07
-2.45414e-08
-0.00372103
-3.3461e-09
-0.00248888
-4.1457e-08
-5.21574e-06
0.000490481
-1.9344e-08
0.00423325
-2.35585e-08
-2.28312e-08
-1.07545e-07
3.21932e-09
1.05652e-07
9.3859e-06
2.20393e-06
-1.13395e-09
2.35727e-08
-5.02907e-09
0.00860361
1.00526e-07
-9.62075e-05
-5.1755e-06
1.56757e-09
-3.05633e-07
8.60811e-08
-5.37417e-08
-1.23283e-08
-2.14161e-09
-2.2747e-07
0.00133363
-2.22653e-08
-0.00316258
-6.60492e-08
8.96648e-08
-1.74084e-08
0.00103819
-2.33694e-08
0.000944708
-2.22172e-06
-9.9153e-10
0.000352517
-5.51954e-07
-0.0114791
2.25559e-07
-1.06862e-07
2.47757e-09
4.75518e-08
0.0225813
8.64356e-09
-1.93646e-07
4.37582e-08
-1.11609e-06
1.49158e-06
-0.00172332
0.00298998
0.00156278
-1.33121e-07
-0.00146763
-1.09338e-07
-0.00249448
-7.5437e-05
1.48443e-07
5.72094e-05
-1.17392e-06
-2.98944e-08
-1.42441e-09
-2.68464e-08
-4.1897e-08
-8.94589e-08
7.26162e-08
0.00179337
-8.38623e-06
-3.67156e-06
-0.011213
-3.58208e-09
0.0058403
-1.28115e-08
-4.52594e-08
-1.02705e-08
-0.000323696
-5.3273e-08
0.00152642
3.29399e-08
-2.48018e-06
0.000112705
6.53226e-08
1.74753e-07
-0.00198776
-3.39841e-08
-1.04911e-07
-2.07848e-06
2.16927e-08
-2.45226e-09
-2.25397e-09
-1.72727e-08
-0.000186335
-1.87721e-08
-1.25921e-09
-0.0010356
0.00100456
-1.041e-08
-1.93783e-09
-0.00566638
-0.00285749
-7.44811e-08
6.4489e-07
2.98919e-07
7.10182e-08
4.46939e-07
-2.13572e-08
0.0206154
-1.93983e-08
0.00260576
0.00341163
0.00349241
-9.83644e-08
-2.89018e-08
2.72564e-09
8.29569e-09
-0.00109866
3.2187e-08
-0.00138864
0.00216115
-4.89333e-08
-8.78353e-09
-4.42447e-08
1.47794e-05
9.05408e-07
-9.70673e-08
-0.00491072
1.01959e-08
0.00533562
1.32495e-07
0.00231012
-5.56583e-06
2.41965e-07
-1.0202e-06
0.00361866
0.00226668
8.24286e-08
-5.17819e-05
-5.82861e-09
0.00459404
1.14961e-05
2.07438e-05
-3.32963e-08