/*--------------------------------*- C++ -*----------------------------------*\
| =========                 |                                                 |
| \\      /  F ield         | OpenFOAM: The Open Source CFD Toolbox           |
|  \\    /   O peration     | Version:  v2012                                 |
|   \\  /    A nd           | Website:  www.openfoam.com                      |
|    \\/     M anipulation  |                                                 |
\*---------------------------------------------------------------------------*/
FoamFile
{
    version     2.0;
    format      ascii;
    class       surfaceScalarField;
    location    "600";
    object      meshPhiCN_0;
}
// * * * * * * * * * * * * * * * * * * * * * * * * * * * * * * * * * * * * * //

dimensions      [0 3 -1 0 0 0 0];
oriented        oriented;


internalField   nonuniform List<scalar> 
27274
(
-0.000128868
0.00018202
-5.32657e-05
-9.93475e-06
4.59637e-05
-3.6029e-05
-0.00024863
-5.68366e-05
0.000303976
0.000222657
-1.01074e-05
-0.000220073
0.000125788
0.000117899
-0.000244624
5.67044e-05
6.07478e-05
-0.000117478
-0.000166735
-7.5829e-05
0.000238343
-1.23016e-05
-0.000103827
0.000116089
0.000157488
6.16336e-05
4.01351e-05
-4.97777e-05
9.64253e-06
-2.81397e-05
-0.000212836
0.000236602
3.56784e-05
1.488e-05
-5.05585e-05
0.000113457
-4.69798e-05
-6.64879e-05
-0.000236695
0.000274159
-3.75721e-05
-0.000320986
0.000127792
0.000192098
0.000213538
-0.00013714
-7.66059e-05
-4.2628e-05
4.86641e-05
-6.03608e-06
0.000369742
-0.000191157
-0.000182829
-6.36337e-05
-0.000178208
0.000241065
7.82514e-06
4.39728e-05
-5.17988e-05
0.000167008
-1.03924e-05
-0.000156717
0.000293106
-0.00017474
-0.000118654
-4.98832e-05
4.90615e-05
8.21621e-07
-9.02159e-05
0.00021521
7.39461e-05
-0.000210331
-0.000137828
0.000193869
-5.73083e-05
-3.38375e-05
0.000204033
0.000170015
1.8501e-05
-0.000188575
-4.05469e-05
-1.42889e-05
5.48357e-05
0.000271907
-0.000341312
6.84253e-05
0.000263368
-7.49489e-06
-0.000257069
-0.000115507
0.000265311
-0.000150424
0.000212859
0.000151885
3.54504e-05
-1.41899e-05
-3.53323e-05
0.000130801
-0.000117219
-1.36168e-05
1.91064e-05
-0.000148067
3.56253e-07
0.000194806
-7.9366e-05
-2.27306e-05
0.00010209
-1.91578e-05
0.000189157
2.80904e-05
0.000215694
-0.000248538
-0.000270544
3.36944e-05
-5.84212e-05
-3.66889e-05
9.51027e-05
1.33397e-05
-0.000263393
-2.69192e-05
4.97942e-05
-2.2875e-05
-1.39425e-05
-3.31372e-05
3.35344e-05
2.87697e-06
-8.22478e-05
9.71811e-05
2.56559e-05
-0.000122882
0.00021258
-0.000175322
-3.73053e-05
-8.23035e-05
-6.18463e-05
0.000144095
1.13836e-05
-0.000214634
0.000199794
-0.000120717
0.000232676
-0.000117482
0.000323056
-0.000273074
-5.19272e-05
3.98131e-05
-4.07286e-05
6.90876e-07
-5.41963e-05
1.7005e-05
3.71912e-05
-0.000231417
8.71461e-05
0.000141933
-1.22689e-05
-9.22161e-06
1.38505e-05
0.000107149
-2.19566e-06
-0.000104977
-0.000123435
-0.000198306
-5.52545e-05
2.37161e-05
3.15384e-05
-0.00011283
4.15866e-05
7.12342e-05
0.000200016
-0.00019193
-8.58335e-05
-4.53123e-05
0.000131102
0.000293213
-0.0001123
-0.000185038
-0.000140486
7.12236e-05
6.92292e-05
4.52842e-05
-9.60575e-06
0.000113284
6.863e-05
-5.03711e-05
2.64816e-05
2.38895e-05
9.96296e-05
4.48188e-05
-0.000144461
0.000201301
0.000168534
0.000124287
-7.54355e-05
-4.23956e-05
0.000117805
-1.51413e-06
-1.94208e-05
1.93902e-05
-4.39979e-05
-6.88408e-05
6.87208e-05
0.000182705
-0.000255109
0.000112441
-0.000124787
-0.000244513
7.43657e-05
-1.64701e-05
6.09474e-05
-4.44778e-05
0.000150997
7.17457e-05
-0.000223447
0.000195186
-0.000140678
-5.47639e-05
-0.000235115
0.000282608
-4.95818e-05
0.000186245
-0.000266616
7.95925e-05
-6.89972e-05
-1.0597e-05
-2.47578e-05
0.000191616
6.96429e-05
-0.000122283
5.26104e-05
-0.00019849
5.96178e-05
2.33325e-05
9.01129e-05
-5.5345e-05
2.95079e-05
2.5837e-05
-5.19751e-05
5.97993e-05
-5.82117e-05
1.76648e-05
4.63309e-05
-5.62611e-05
9.93002e-06
-8.2874e-05
8.33793e-06
7.4532e-05
3.74836e-05
-6.97918e-05
3.52638e-05
-0.000193925
0.000156793
0.0002628
-0.000216337
-5.33724e-05
-5.26908e-05
5.26908e-05
-4.32863e-06
-4.55546e-05
5.08538e-05
0.000170008
-0.000222599
0.000173342
2.15635e-05
-0.000195208
-1.67549e-05
-3.74415e-05
-4.03591e-05
-6.86973e-06
4.72288e-05
-4.27446e-05
4.89164e-05
-6.17173e-06
-6.86301e-06
-3.6365e-05
4.32279e-05
-9.93848e-05
-8.30971e-05
0.000182419
1.88539e-05
-7.5306e-05
5.64506e-05
7.74835e-05
0.00015003
-0.000228229
0.000108121
-1.41161e-05
-9.40204e-05
2.16283e-05
2.22976e-05
-4.39259e-05
-9.95992e-05
6.97852e-05
2.98076e-05
0.000199111
-0.000124548
-7.47029e-05
4.37919e-05
4.14109e-05
-0.000105179
0.000292409
-0.000188219
-0.000157235
-5.05744e-05
0.000207755
-0.00010807
0.000181827
-7.42389e-05
-0.000230636
7.33591e-05
4.80568e-05
-6.12362e-05
1.31793e-05
3.73385e-05
5.58119e-06
-5.19964e-05
2.89317e-05
-4.20564e-05
1.31247e-05
4.1355e-05
-5.78256e-05
-3.85135e-05
4.28305e-05
-4.31694e-06
4.64326e-05
-0.000145871
4.96115e-05
-9.47634e-06
6.87985e-05
-6.47042e-05
-4.09568e-06
-7.81379e-05
0.000228522
3.21425e-05
-0.000107598
0.000225043
-0.000175959
-4.89882e-05
-5.06163e-05
0.000276932
4.37731e-05
5.82599e-05
-5.17997e-05
-6.04864e-06
8.32785e-05
-3.39033e-05
-4.93763e-05
2.93724e-05
0.000226198
0.000119068
-0.000245239
2.86758e-05
4.08137e-05
-6.94908e-05
-0.000141768
4.06344e-05
0.000101096
-4.05236e-05
0.000213578
-7.58884e-05
-4.83484e-05
0.000124216
5.1781e-05
5.85802e-06
-0.000183575
0.000361588
-0.0001792
0.000164576
-0.000196362
0.000240449
-0.000340723
9.96354e-05
-9.07412e-05
-1.98839e-05
0.000110611
-3.37915e-06
-3.93655e-05
4.04545e-05
5.67608e-06
-4.61306e-05
0.000226925
-0.000252802
2.53393e-05
0.000117811
-0.000223785
-3.59738e-05
-3.39421e-05
6.99158e-05
3.94114e-06
-0.000228031
0.000223794
-8.12772e-05
0.000185839
-0.00010456
-4.36343e-05
5.54328e-05
-1.17986e-05
0.000241578
-5.27313e-05
-0.000189254
1.66852e-07
-4.38013e-05
0.000272036
-0.000233942
-3.92156e-05
-0.000171024
9.87289e-05
3.2052e-05
-2.36366e-05
-3.16179e-05
0.000120438
4.52301e-06
-0.000124996
2.86968e-05
-1.95317e-05
-1.02205e-05
-3.72216e-05
6.58962e-05
-3.10032e-07
-3.82035e-05
1.5592e-05
1.24111e-05
-3.21037e-05
0.000128247
-9.61788e-05
0.000211732
-0.000118444
-9.34068e-05
-0.000228681
9.17067e-05
0.000136667
8.44516e-05
-0.000154339
6.98479e-05
0.000146994
-0.00018777
-9.78491e-05
1.85128e-06
9.59892e-05
3.50594e-07
5.22107e-05
-5.25615e-05
-6.32712e-05
1.50461e-05
4.82249e-05
-9.99247e-05
-5.51098e-05
0.000154971
-1.45236e-06
-7.19459e-05
7.33929e-05
0.000190657
7.19547e-05
-0.000265978
-6.98975e-05
6.35418e-05
6.35583e-06
5.44344e-05
-2.11429e-05
-3.32915e-05
-0.000270571
0.000162639
0.000102484
0.000234226
-0.000265835
2.66644e-05
0.000144664
6.86425e-05
5.4165e-05
-3.38898e-05
-2.02753e-05
-9.2974e-05
-5.79575e-05
0.000150869
-0.000149748
0.000214995
-6.68521e-05
2.80382e-05
5.5239e-05
-6.2233e-05
4.261e-05
1.96228e-05
6.30683e-05
-0.000111374
4.83065e-05
5.6456e-05
-5.79127e-05
0.000158862
2.20586e-05
-0.00018112
-9.50282e-05
-0.000120897
0.000210841
-4.57642e-05
0.000100227
-5.44682e-05
-4.80382e-05
-1.09229e-06
4.91305e-05
-6.10036e-05
5.46327e-06
5.55402e-05
-9.09462e-05
9.55582e-06
8.13844e-05
-0.00023888
0.000187572
5.12677e-05
9.57781e-06
-5.22058e-05
0.000117696
0.000288178
-0.000249939
-3.96318e-05
-5.02842e-05
0.000197033
8.46377e-05
-5.39613e-05
-3.06776e-05
2.72377e-05
9.11274e-05
-0.000118382
2.12156e-05
-0.000212623
0.000191126
1.09507e-05
-6.35953e-05
5.26433e-05
-4.05935e-05
0.000199238
9.5556e-05
5.05235e-05
-0.000146178
-4.15033e-05
-3.56288e-05
0.000194097
-0.000159203
0.000122696
-0.000214729
9.1941e-05
5.91329e-05
-6.51296e-06
-5.26201e-05
-1.57637e-05
-4.524e-05
-2.92966e-05
5.12126e-05
-2.1916e-05
-8.97996e-05
-7.90676e-05
0.000168758
-1.75717e-05
4.65034e-05
6.70717e-05
-2.74139e-05
-3.96578e-05
6.06612e-05
-1.76725e-05
-4.29887e-05
-7.53555e-05
0.000170808
7.62032e-06
-0.00019225
0.000224594
4.652e-05
9.33039e-06
-5.79362e-05
4.86051e-05
-1.72717e-05
0.000243604
0.000279324
-9.31847e-05
1.54468e-05
6.41438e-05
-9.30615e-05
3.21305e-05
6.09282e-05
-4.26454e-05
7.83176e-05
-0.000186227
0.000214316
2.67795e-05
-9.29361e-05
6.62293e-05
2.67042e-05
-0.000327237
0.000256342
6.99259e-05
0.000133852
-6.42456e-05
0.000141917
0.000218211
-5.60387e-05
-7.2327e-06
0.000271442
-6.08703e-05
-0.000211001
5.97439e-05
-2.02396e-05
-3.95043e-05
-4.86714e-05
4.73708e-05
1.30065e-06
-3.86137e-05
-4.32097e-05
8.18233e-05
-0.000232619
0.00023892
3.19265e-05
7.62831e-06
0.000140855
5.40663e-05
0.00013216
-0.000209571
7.72023e-05
7.37914e-06
5.23646e-05
0.000229318
-0.000226722
-3.04076e-06
-0.000143275
0.000192856
-5.12533e-05
-0.000168615
1.71864e-05
6.4716e-05
-8.95171e-05
2.47969e-05
1.47128e-05
5.4552e-05
-6.92673e-05
1.45684e-05
9.21971e-05
0.000106796
-6.64796e-05
-3.15595e-05
9.80329e-05
-0.000238639
7.87575e-05
-6.85436e-05
0.000305354
-0.000241283
-0.000237368
-3.88839e-05
0.000275867
-6.87047e-06
-4.1801e-05
7.96466e-05
-1.49837e-05
-6.46642e-05
4.56082e-05
-1.42205e-05
-3.13877e-05
-1.57571e-05
0.000136161
0.000124738
8.68581e-05
-0.000197543
0.000161193
-2.39599e-05
-1.4569e-05
3.85289e-05
0.00013387
-0.000174651
8.12217e-06
5.25389e-05
0.000115711
-0.000233559
0.000117342
1.13159e-05
-5.02913e-05
3.89753e-05
1.90502e-06
-7.42538e-05
7.23466e-05
9.21599e-05
-0.000124297
0.000284562
-0.00024322
-4.21808e-05
-1.88526e-05
-1.51101e-05
2.23914e-05
-6.36547e-05
0.00017683
0.000130576
-5.41548e-05
-7.64447e-05
-1.63617e-06
6.07688e-05
-9.8488e-05
-4.33261e-05
0.00024367
-0.000108173
-0.00014134
-0.00020042
-6.23396e-05
0.000258583
5.70745e-05
-2.33909e-05
-3.44838e-05
-9.53286e-06
-6.24177e-05
0.000105042
-9.9361e-05
-5.69014e-06
4.54644e-05
5.27949e-05
-9.8259e-05
-0.000119606
-0.000102351
0.000221683
-2.27714e-06
3.37788e-05
-3.15017e-05
-2.76668e-05
-6.3284e-05
6.12463e-06
0.000101982
-0.000181234
0.000279481
-9.90426e-05
-6.15978e-05
7.2547e-05
-0.000311996
7.47829e-05
6.46719e-05
-0.000252454
0.000186755
-7.02653e-05
4.63644e-05
2.39007e-05
-1.2638e-06
-3.67324e-05
2.68732e-05
-3.31326e-05
-0.000214169
-2.80066e-05
0.000113936
-8.59464e-05
0.000235566
-0.000312065
7.45575e-05
-1.21546e-05
4.65631e-05
-3.44085e-05
-4.94996e-05
0.000183175
0.000103284
8.96513e-05
-0.000192952
2.66797e-05
-3.9623e-05
3.85326e-05
-0.000138516
4.97133e-05
-4.70938e-05
-2.61954e-06
-0.000194121
0.000245119
-3.04097e-05
-0.000296246
5.36616e-05
0.000242773
-0.000108426
1.69458e-05
9.14687e-05
4.14091e-05
8.13107e-06
-4.95402e-05
3.88608e-05
1.80562e-05
-2.99687e-06
-3.17349e-07
2.654e-06
-5.02395e-05
-4.2824e-05
-4.39419e-05
0.000120967
-7.70625e-05
0.000146359
-2.36731e-05
-0.000122718
-3.15155e-05
7.03907e-05
-3.88761e-05
-0.000195944
0.00025949
8.81508e-05
-0.00027119
0.000218456
5.25252e-05
-5.52622e-06
1.37113e-06
4.89701e-05
-8.04865e-05
-2.73144e-05
-7.05414e-05
-0.000119289
4.24365e-05
7.68454e-05
-3.67841e-05
-7.16523e-05
0.000236346
-0.000213655
9.13736e-05
-2.83044e-05
-0.00025099
0.000220835
-0.000276505
0.000212004
5.10708e-06
7.4538e-05
0.0001137
-0.000317598
0.000202496
-7.60174e-05
4.58998e-05
-0.000104329
0.000182677
-0.000149053
-7.39583e-05
0.000224635
-0.000157433
4.0573e-05
-7.21372e-05
1.46533e-05
-3.79882e-05
2.33349e-05
1.66628e-05
5.04088e-05
0.00014558
-0.000237117
9.08436e-05
0.00017254
-8.81352e-05
2.00983e-05
-4.70174e-05
1.49542e-05
-0.000234783
0.000217426
7.90784e-05
-6.43683e-05
-0.000169956
-4.50831e-05
0.000214745
6.7882e-05
-0.00016386
9.59295e-05
1.58295e-06
7.74924e-05
1.68915e-06
0.000227802
3.92383e-05
-3.88878e-05
-0.000216035
0.000267768
-5.2554e-05
-0.000137562
6.16544e-05
1.8336e-07
1.37555e-05
-1.95684e-05
0.000130566
3.62146e-05
-4.1292e-05
5.07739e-06
3.27915e-05
-4.92923e-05
1.65121e-05
-3.34049e-05
-2.88282e-05
0.000111186
4.03051e-05
-0.000151612
-7.88274e-07
-0.000210581
0.000211101
0.000148389
-5.12586e-05
-0.000140002
5.41274e-05
-1.79826e-05
-4.48917e-05
6.28732e-05
-6.00369e-05
9.24181e-07
5.91125e-05
2.22762e-05
6.236e-05
0.000235587
-0.000120394
0.000136829
0.000153178
6.21434e-05
-4.50058e-05
-1.71376e-05
4.06494e-05
5.62518e-05
-9.68991e-05
4.98743e-05
0.000145646
-0.000196876
-0.000199838
0.000272896
-7.36092e-05
-6.5134e-05
-5.41604e-05
2.94281e-05
-7.51968e-05
-5.2551e-05
2.85911e-05
8.34856e-06
5.37947e-05
-0.000211049
0.000218853
-8.33586e-06
7.91464e-05
0.000133309
-0.000212883
-3.4456e-05
4.12979e-05
-6.84186e-06
4.43777e-05
0.000246929
-8.04598e-06
0.000236893
2.72504e-05
-6.70008e-05
3.97476e-05
-6.62948e-05
-8.8868e-05
0.000155073
0.00012626
-0.000202467
7.57577e-05
-3.20114e-05
4.66647e-05
3.78775e-05
-3.82598e-05
2.76332e-08
-5.54098e-05
-6.62028e-05
0.000121603
-5.22608e-05
-4.06772e-05
2.34491e-05
2.04159e-05
0.000172616
6.47466e-05
5.21968e-05
0.000195787
-0.000248434
7.36533e-05
0.000123817
-0.000198111
-1.23906e-05
-0.000223611
0.000233933
-2.62963e-05
8.56702e-05
-5.93789e-05
0.000183959
-0.000198084
0.000147435
-1.67071e-05
-0.000130791
-0.000198979
0.000271774
0.000222233
-0.000137884
-8.45823e-05
-0.000198352
-1.34093e-05
0.000191523
-3.40115e-05
0.000344012
-0.000110906
-0.000234991
0.000314503
-0.000168895
-0.000146483
0.000188893
5.77635e-05
-0.000248386
-9.15175e-05
0.000278483
-0.000219216
0.000138353
8.06119e-05
2.07906e-05
-6.72238e-05
4.64327e-05
3.16649e-05
-5.47552e-05
2.30902e-05
0.000312457
-0.00017164
7.09775e-05
-4.72619e-06
-6.62522e-05
-8.62473e-05
0.000166007
-7.97984e-05
5.62378e-05
-2.45728e-05
0.000158771
-0.00015782
-1.10209e-06
-1.68643e-06
0.000100117
-9.84511e-05
-0.000204941
-3.27452e-05
6.88326e-05
-1.37479e-05
-5.50858e-05
0.000194031
-1.10564e-05
4.00477e-05
-0.000203123
5.837e-05
6.13261e-05
-0.000244892
0.000178276
-1.41817e-05
-4.58553e-05
0.000243325
-0.000140906
-0.000102729
1.09153e-05
-5.44805e-05
-0.00014458
7.50347e-05
6.9497e-05
-1.13142e-05
0.000158686
0.000272948
-0.000229598
-0.000180965
0.00019392
-4.82913e-05
4.88571e-05
-5.65866e-07
0.000189494
-3.72952e-05
4.48416e-05
-0.000220053
-5.23664e-05
0.000270326
4.61117e-05
-5.03518e-07
4.55866e-05
-4.43261e-06
-4.1154e-05
-5.21425e-05
7.93895e-05
-0.000180674
9.94037e-05
-0.00017432
4.41408e-05
5.57251e-06
2.72742e-05
-3.04142e-05
0.000302653
-0.000295972
-8.42727e-06
-3.59514e-05
-1.65996e-05
2.84486e-05
-3.7795e-05
7.95155e-06
-5.45902e-05
0.000213603
4.53626e-05
-3.57848e-05
-0.000184419
0.000249491
4.2562e-05
-6.34744e-06
8.42569e-05
6.39529e-05
-0.000148296
8.28069e-05
5.47124e-05
-0.000137572
4.80784e-05
-2.49183e-06
-0.000282382
0.000118938
0.000163374
3.89498e-05
0.000261884
6.35741e-05
-2.30396e-05
-4.0535e-05
-6.56947e-05
0.000122372
-4.73803e-05
-4.75131e-05
6.63657e-05
-2.21915e-05
-0.000217361
0.000238765
0.000145108
-0.000245701
-9.60116e-06
-0.000218707
9.74234e-05
-5.32664e-05
-4.41587e-05
-0.000131737
8.54341e-05
4.62813e-05
-0.000265073
8.62053e-05
1.35881e-05
8.23699e-06
-2.29161e-05
0.000225125
-0.000242986
-0.000110985
5.5569e-05
1.17888e-06
-3.56349e-05
5.4204e-05
0.000125054
-0.000179387
-0.000180297
0.000170479
-3.53152e-05
4.46938e-06
3.06381e-05
-2.10587e-05
0.000179675
1.08687e-05
6.47334e-05
-7.56054e-05
4.98499e-05
-8.44087e-06
-3.78055e-05
4.91214e-05
6.12726e-05
3.72225e-06
-6.49958e-05
-6.02733e-05
-4.96801e-05
0.000109951
-7.09496e-05
0.000122706
-5.17668e-05
4.60925e-05
3.70171e-06
0.000208121
-0.000270866
6.14164e-05
-0.000109622
-0.000154886
0.000260053
-8.2024e-05
0.000226363
8.47026e-05
-2.87202e-05
8.74125e-05
-5.8696e-05
-1.96241e-05
-0.000211755
0.000230496
3.47887e-05
9.23924e-06
-4.95984e-05
-8.65656e-05
-2.4426e-05
6.60315e-05
-9.68325e-06
5.6014e-05
4.01073e-05
-0.000100383
-5.59747e-06
-4.24407e-05
0.000230805
-0.000278938
4.68286e-05
0.000250482
0.000284827
-0.000234371
-5.13038e-05
0.000211045
-2.9099e-05
1.51614e-05
-2.22589e-06
-2.71459e-06
3.97071e-05
-0.000236641
1.31381e-06
5.20299e-05
-5.33437e-05
0.000292416
-0.000147652
4.31642e-05
0.000171182
-0.000220925
6.34965e-05
5.30048e-06
-1.66103e-05
-5.50705e-05
7.16742e-05
0.000129201
-0.000242529
-0.000248555
1.50388e-05
0.000232763
-9.13541e-05
0.00013185
-4.05083e-05
-3.72138e-05
-3.30517e-05
0.000246938
-0.000102525
0.000303949
-0.000212119
-9.36907e-05
-6.54969e-05
-6.88579e-05
0.000191451
1.19438e-05
4.24138e-05
-5.43577e-05
-0.000168443
-2.19295e-05
-0.000203687
5.14591e-05
-3.10119e-05
-2.04472e-05
5.62342e-05
-7.28512e-05
0.000261365
-0.000198831
-6.72392e-05
-5.53449e-05
2.17346e-06
5.31713e-05
-3.78724e-05
-2.92407e-06
4.07964e-05
-2.26218e-05
5.96043e-05
-3.69826e-05
-0.0002336
0.000209582
0.000129418
0.000172632
0.000205595
-7.36483e-05
0.000102992
-5.55657e-07
-0.000102449
-0.000201101
0.000198724
2.35134e-06
-5.00113e-05
4.77341e-05
3.54282e-05
6.1993e-05
6.2779e-05
8.1973e-06
-8.29089e-05
2.5779e-05
5.71282e-05
0.000237296
-0.000181268
0.000162941
-7.87754e-05
4.79805e-05
-4.24247e-05
-5.55584e-06
5.01057e-05
5.34529e-05
-4.80753e-06
-4.86457e-05
-0.000161091
-8.77275e-05
0.000248504
-0.000118856
0.000189938
-7.11981e-05
-0.00022489
0.000106302
3.14536e-05
1.31763e-05
-4.46299e-05
3.81862e-05
-4.50492e-05
1.37067e-05
-9.65842e-05
0.000209158
6.18705e-05
0.000197913
4.2142e-05
5.47063e-05
-0.000191567
0.000136581
-9.76564e-05
-3.40984e-05
-0.000205538
0.000244198
5.86905e-05
4.88288e-06
-0.000157571
-6.7433e-05
5.59171e-05
-7.8605e-06
-7.60475e-05
-0.000183628
0.000259323
-5.95923e-05
0.000284063
1.34732e-05
-4.3101e-05
-4.14071e-05
0.000141019
-0.00017032
0.000103332
6.69096e-05
-6.48591e-05
7.57246e-05
0.000215152
5.16439e-05
-0.000268822
-2.60479e-05
9.47221e-05
-6.86875e-05
5.64473e-05
-9.51843e-06
-4.69291e-05
0.000165546
5.21359e-06
-0.000170888
5.35654e-05
0.000229982
1.0901e-05
0.000163291
-0.000174257
0.000114584
5.45652e-05
-0.000169332
3.45132e-06
-2.95638e-05
2.53507e-05
-0.000162175
-1.02088e-05
0.000172235
-0.000141738
-3.8836e-05
0.00020419
9.38045e-05
-7.87341e-05
-1.50767e-05
-0.000208298
0.000205371
5.07189e-05
0.0002255
-5.87501e-06
3.88251e-05
-0.000116473
0.000154941
-0.000109992
0.000235763
8.28934e-05
0.000261019
-3.15562e-05
0.000149275
-0.000240128
7.52822e-05
-0.000181731
0.00021498
-4.0473e-05
0.00015553
-7.09965e-05
-8.45247e-05
-0.000120258
-6.63787e-05
0.000186575
-9.12464e-05
7.80369e-05
1.3203e-05
-7.11411e-05
0.000174402
3.30555e-05
-4.72373e-05
-8.01837e-05
0.000243451
-0.000163934
2.68494e-05
1.70156e-05
-0.000129578
0.000193607
-6.41015e-05
0.000148498
6.40274e-05
5.22989e-05
-5.03954e-05
4.70377e-05
5.49063e-05
-6.36377e-05
8.73065e-06
-0.000189425
0.000194493
0.000112415
0.000130513
-4.64311e-05
-0.000188987
-0.000305278
0.000296567
7.44088e-06
1.18699e-05
8.85213e-05
-0.000100409
5.11777e-05
7.72714e-05
-0.000128492
-0.000157366
6.24028e-05
9.49112e-05
-2.56039e-05
0.000103185
-7.75917e-05
4.17683e-05
-8.02408e-05
-3.99125e-06
8.42242e-05
2.5936e-05
4.89284e-06
-4.17114e-05
-5.43937e-05
4.36157e-05
1.07778e-05
7.61654e-05
-3.88009e-05
-3.73654e-05
-0.000268134
3.89353e-05
0.00022849
-7.62374e-05
-0.000229525
9.62234e-05
5.93102e-05
-2.91944e-05
-2.70667e-05
0.000106747
-0.00017051
9.20659e-05
-8.68833e-05
-6.74897e-06
-5.01161e-05
0.00010579
-5.56742e-05
-2.6998e-06
9.64968e-05
-2.03975e-05
-9.68524e-05
-8.68171e-05
0.000139412
-5.26115e-05
-6.11083e-05
3.69495e-05
2.41586e-05
0.000204284
-0.000183022
0.00011578
-0.000118516
2.7212e-06
2.12069e-05
2.11435e-05
-4.23504e-05
6.41813e-05
-6.26008e-05
-5.95984e-05
7.65782e-06
8.65541e-05
-9.42198e-05
8.71836e-05
-2.24718e-05
-0.000193087
1.86075e-06
0.000191057
1.03697e-05
-3.00543e-05
-0.000197106
-2.54289e-05
0.000296226
-8.10554e-05
4.50817e-05
2.92137e-05
-7.12612e-05
4.20477e-05
3.28595e-05
2.13055e-05
7.55202e-05
-5.47302e-05
-3.79214e-05
-8.30078e-06
4.62222e-05
4.48706e-05
-4.45476e-05
-3.22979e-07
6.29818e-05
-0.000113098
-0.000203006
6.56706e-05
-4.75967e-05
4.76008e-05
-4.12331e-09
-6.65457e-05
6.37817e-05
2.76352e-06
-0.00018875
9.04529e-05
-3.37897e-05
-5.66636e-05
-9.36469e-06
4.43243e-05
-3.49596e-05
7.03893e-05
-6.6652e-05
-3.73829e-06
0.000151315
-9.72139e-05
-0.000218597
7.46647e-05
0.000137677
-2.44824e-05
0.000228416
-0.000137535
-7.94277e-05
0.000216694
-8.73769e-05
0.000201754
0.000125895
-0.000109965
-1.59473e-05
0.000271
-0.000158548
2.61326e-05
1.77324e-05
-9.12423e-05
-0.000128213
-0.000138249
0.000203413
-6.53093e-05
4.35417e-05
-1.20881e-05
0.000235593
-0.00027801
4.09172e-05
-7.525e-05
-9.51466e-05
-7.92691e-06
6.13794e-05
0.000309649
-0.000272619
-0.000257289
0.000139341
0.000117457
4.89669e-05
-5.00647e-05
1.0977e-06
-0.000164086
5.96129e-05
9.48853e-05
-8.16693e-05
5.56092e-05
-0.000185394
-5.1987e-05
3.01266e-05
2.18604e-05
-2.59036e-05
-0.000163717
-0.000129558
-4.16068e-05
0.000171082
-8.95312e-05
-0.000105308
0.000217396
-0.000112304
9.60643e-05
6.91412e-06
-0.000139435
0.000195892
-5.64458e-05
4.5037e-05
-4.48702e-05
-0.000118738
-2.22094e-05
0.000140914
-0.000256432
8.54359e-06
0.000246284
2.42932e-05
1.95718e-05
-4.3865e-05
9.61e-06
-0.000139236
-2.18701e-05
-2.43225e-06
3.42695e-05
-3.18373e-05
7.35625e-05
-1.00678e-05
7.30678e-05
0.000239667
-0.000122511
0.000251476
-0.000212415
-4.40711e-05
-4.08657e-05
2.99332e-06
0.000147521
-0.000136674
-0.000155837
-6.44798e-06
-5.52818e-06
6.4268e-05
-6.10244e-05
-0.000171226
6.67507e-05
-5.47891e-06
6.45185e-05
-5.00849e-05
-1.4434e-05
-0.000133241
4.91275e-05
-2.2278e-05
5.79663e-05
-8.66898e-05
0.000227223
-3.41193e-05
-0.000193364
-7.76338e-05
-0.000146926
8.4043e-05
-6.96406e-05
-7.49926e-05
4.1268e-05
6.37639e-05
5.44214e-05
0.000191611
-0.000248217
6.48223e-05
-9.91685e-06
7.7769e-05
-0.00016766
-0.000127085
-2.44435e-05
-1.67951e-05
2.70485e-05
-4.72229e-05
-4.09123e-05
-0.000162662
-0.000179336
-5.45979e-05
-5.0577e-05
0.00012357
-7.30182e-05
6.47941e-05
-2.01958e-06
-0.000259055
5.58128e-05
-3.77008e-05
-9.31235e-06
4.70132e-05
2.32293e-05
-4.07254e-05
-0.000203839
0.000244355
0.00028512
1.0171e-05
-0.000106488
-5.98574e-06
0.000112458
-0.000128042
6.61474e-05
-0.00019754
5.66119e-05
0.000102925
-6.22738e-05
0.00017036
0.00014328
4.05705e-05
7.40992e-06
-7.70914e-05
0.000152912
-7.58671e-05
0.000251543
-0.000206992
-4.49505e-05
1.22755e-05
5.89085e-05
-7.11841e-05
2.06425e-05
-4.17855e-05
-0.000194985
-3.03918e-05
0.000221876
1.68207e-05
4.76974e-05
-0.000169371
0.000153746
2.77752e-05
0.000279954
-2.04076e-05
-0.000180759
0.000115562
-0.000139156
2.35932e-05
4.96363e-05
-4.4423e-05
-5.21344e-06
0.000169495
-5.84162e-05
4.25276e-05
-2.13207e-05
0.00018853
-0.000126582
-6.20215e-05
-6.60707e-05
2.4414e-05
4.16564e-05
-4.33382e-05
-3.95718e-05
0.000179794
-0.00017809
7.36274e-06
0.000243361
-0.000191606
7.9039e-05
-2.9668e-05
-4.93714e-05
-0.000210255
-3.48661e-05
-2.0479e-05
-4.14479e-05
3.15131e-05
0.000267176
-0.000195408
-7.22978e-05
-1.45941e-05
4.57782e-05
-3.11841e-05
-0.000120951
-7.75538e-05
0.000198302
-0.000148026
1.83987e-05
-7.02005e-05
1.40926e-05
5.61073e-05
0.000109817
-5.35312e-05
-5.62871e-05
4.76032e-05
-3.46246e-06
-9.31098e-05
-0.000176985
0.000265768
-3.13561e-05
6.44114e-05
0.000274001
-5.1526e-05
-0.000222985
6.22388e-05
-1.7202e-05
0.000275755
-0.000149748
-0.000126801
-4.35008e-05
-0.000114188
-0.000145692
0.00020004
3.56416e-06
-0.00027612
0.000269281
6.28254e-05
-2.19703e-05
-5.48357e-05
-0.000160434
9.18462e-05
6.84921e-05
-1.25282e-05
6.7647e-05
2.7411e-06
-6.43045e-05
0.00020449
6.48429e-06
-4.76046e-05
4.11203e-05
-3.15076e-05
0.000211077
0.000256351
-0.000255881
0.000190514
-0.000136172
0.000192383
-0.000118963
-7.34833e-05
-8.99158e-05
7.98416e-05
1.00644e-05
-5.68123e-05
-1.33888e-05
0.000180431
-1.10304e-05
1.88313e-05
6.30211e-06
-0.000161394
-3.73373e-05
0.000198571
-3.75459e-05
-2.36904e-05
0.000107699
-8.44176e-05
-0.000234437
-9.16072e-05
-0.000187015
-0.000164611
3.08957e-06
-0.00019758
0.00012143
7.6039e-05
4.854e-05
-2.24074e-05
-5.60016e-05
0.000289979
4.56322e-05
2.17805e-05
-6.7414e-05
9.32107e-05
-6.59847e-05
2.91618e-05
4.70026e-05
2.44309e-05
-4.70529e-05
-2.75606e-05
-2.28106e-05
-0.000206188
0.000148441
5.04651e-05
-0.000137908
5.225e-05
8.56e-05
0.000299901
9.81838e-05
0.000145186
-0.000243964
-0.000124721
-7.30801e-05
0.000197606
3.627e-05
-4.56347e-05
0.000154739
-0.000228044
6.66972e-05
-0.000224131
0.000175966
-1.19029e-05
3.53393e-05
-3.70075e-05
2.22261e-05
0.000198265
-0.000193886
-4.50979e-06
-8.18055e-05
-0.000175542
0.000157831
-0.000140087
-1.7819e-05
0.00016943
-6.27898e-05
-5.38361e-05
1.85597e-06
5.19799e-05
4.93374e-05
-2.77091e-05
5.82198e-05
0.000180607
-0.000241163
-0.000253034
0.000248378
4.39651e-06
-4.83729e-05
0.000190288
-5.91523e-05
4.95572e-05
9.595e-06
3.64702e-05
9.49345e-06
-6.17366e-05
5.24551e-05
9.2814e-06
-2.69911e-05
7.596e-05
-8.43276e-05
6.4231e-05
2.00947e-05
-2.68634e-05
7.03117e-05
-4.34495e-05
-0.000171789
-0.000113762
0.000192423
-0.000256628
5.04586e-05
-0.000267239
-0.000192356
0.0002409
-4.87456e-05
0.000196245
-0.000147709
-0.000233273
-6.30591e-05
6.44594e-05
-1.40097e-06
-1.07734e-05
-4.19174e-05
4.00355e-05
-0.00022198
-0.000104107
7.20073e-05
3.20984e-05
0.000168856
-0.000110928
-6.63443e-05
0.000180253
4.66825e-05
0.000128713
-0.000140083
-0.000112455
-0.000120684
-0.000163135
-0.000179724
-7.79792e-05
-6.10062e-05
2.70642e-05
3.74593e-05
-5.16798e-05
8.7807e-05
8.71593e-07
-8.87021e-05
4.42285e-05
3.37462e-06
3.54278e-05
-0.000106386
-2.04268e-05
4.69084e-05
-7.80087e-05
-2.13601e-05
-1.33735e-05
-4.45634e-05
-5.87141e-05
5.0982e-05
7.732e-06
5.76797e-05
-0.000134814
5.68939e-05
-4.46872e-07
4.9719e-06
-8.52198e-05
4.18134e-05
-4.42456e-05
-0.000220351
-4.44778e-05
0.000263022
-0.000221884
-0.000169146
-3.79031e-05
0.000202659
-0.000188059
-4.75963e-05
-3.99022e-05
8.74971e-05
7.4753e-05
1.86283e-05
-3.7991e-05
1.96335e-05
9.8967e-05
-0.00012502
2.60334e-05
0.000141632
-3.27977e-05
-0.000115998
-9.67147e-05
-4.37948e-05
0.000140582
-6.93961e-05
-8.92714e-06
-2.73732e-05
3.4237e-05
4.45359e-05
1.45611e-05
-5.90981e-05
-0.000240202
8.436e-07
0.000237981
2.10236e-05
-1.69801e-05
-8.9521e-05
0.000193299
-0.000258473
6.04306e-05
8.99833e-05
-1.65284e-05
-7.34594e-05
6.46316e-05
-3.54178e-05
8.67499e-05
-0.000251277
0.000163973
-5.15872e-05
-0.000178079
0.000228982
-1.39775e-05
0.000267115
-5.7145e-05
-4.73713e-05
0.000104506
0.000143508
9.39649e-05
0.000207171
-0.000122567
-8.49042e-05
-7.0874e-05
8.42177e-05
-1.33455e-05
-0.000262368
0.000239598
2.27759e-05
5.71227e-05
-3.66952e-05
-2.04275e-05
0.000206418
-0.000287288
7.98698e-05
5.28923e-05
-4.45438e-05
0.000126455
-0.00020442
7.75441e-05
9.30832e-05
5.10315e-06
-9.82058e-05
0.000256687
-8.20391e-06
-0.000250177
-0.00013509
6.91447e-05
6.5911e-05
-3.71499e-05
0.000165798
4.46682e-05
-0.000158567
-0.000152629
0.000238842
8.70543e-06
4.84171e-05
-0.000206857
-0.000121204
-4.29978e-05
4.20358e-05
9.61952e-07
-3.88723e-05
-1.97374e-06
4.0846e-05
9.93753e-05
-0.000219206
1.27553e-05
-1.75021e-05
-0.000110896
0.000196318
0.000146658
-0.000219043
6.74311e-05
9.7461e-06
-4.74469e-05
0.000289008
-5.05132e-06
4.77712e-06
4.81151e-05
3.79882e-05
1.47026e-05
0.00014121
-2.02838e-05
5.40424e-05
-3.09936e-05
-2.30489e-05
2.44133e-05
-5.21293e-05
-0.000229905
0.000289717
-6.1288e-05
-3.77309e-05
-4.05396e-05
-1.81746e-05
-0.000114354
-2.50719e-05
0.000252897
-0.00019366
-6.09524e-05
0.000247011
3.69432e-05
0.000207469
0.000228817
-5.95284e-05
-0.000169906
-7.36011e-05
-5.13647e-05
0.000124952
3.76575e-05
-5.94629e-05
2.18054e-05
-7.68588e-05
-0.00014067
0.000217313
-3.80676e-05
4.53721e-05
-3.88878e-05
-8.20492e-05
2.41468e-05
5.78998e-05
1.39691e-05
-0.000115021
0.000101038
0.000157626
5.50647e-05
-0.000213643
2.59875e-05
-4.21159e-05
1.61284e-05
2.94012e-05
0.00012644
3.13247e-05
-3.8508e-05
0.000293582
-5.51106e-05
0.000271747
-0.000216962
-5.64239e-05
5.29875e-05
3.43627e-06
-0.000225999
-1.47146e-05
-3.72724e-05
6.11105e-05
9.58484e-06
2.00008e-05
-3.05393e-05
0.000126199
6.61209e-05
5.12143e-05
-5.89448e-05
-2.86276e-06
0.000137328
4.29909e-05
3.61276e-05
0.000112059
-0.000148326
-1.34946e-05
0.000146114
-0.000208764
0.000165578
3.63032e-05
5.34952e-05
0.000174536
-2.67995e-05
-2.33421e-05
5.01415e-05
-5.72878e-05
3.27504e-05
2.30936e-05
-0.000152737
-2.23409e-05
-2.74368e-05
-0.000241761
0.000186369
0.000280438
-4.68956e-05
7.01927e-05
-0.000136405
-3.83718e-05
-1.53521e-05
5.37238e-05
-0.00013953
-3.12224e-05
0.000170614
-5.18204e-05
7.84243e-06
4.39779e-05
3.32547e-07
0.000193732
0.000259794
-0.000129145
-0.000109684
-5.00428e-06
-4.25924e-05
5.88708e-05
-4.65953e-05
1.60865e-05
3.77059e-05
-5.37924e-05
-1.9897e-05
3.02145e-05
-0.000128239
0.000218504
4.83785e-05
-2.48523e-05
-2.69681e-05
-0.000103663
0.000282155
-0.00018144
-3.01543e-05
7.46889e-05
4.90925e-05
5.38613e-05
-4.41152e-05
-7.93489e-05
4.98512e-05
2.71516e-05
9.78523e-05
-8.68391e-05
-1.94068e-05
-3.60433e-05
-4.82858e-05
-0.000114433
0.000244423
-0.000130888
1.87247e-05
-4.55241e-05
0.000257442
-5.04149e-05
3.63584e-05
-5.09524e-05
2.42702e-05
-0.000265007
0.000198473
-0.000152579
-2.27677e-05
-1.9411e-05
6.50418e-05
1.47184e-05
-5.26121e-05
3.78937e-05
-0.0001349
-7.48459e-05
-0.000202833
0.000250518
-4.8399e-05
-0.000127116
-0.000155441
-0.00023316
-0.000182268
0.000234606
2.64272e-05
-7.53527e-06
-1.92204e-05
-7.33971e-05
9.26073e-05
-3.08434e-05
-0.000169619
0.000199955
-6.46771e-05
4.82763e-05
1.64005e-05
0.000251712
-0.00011432
-0.000137659
-4.14708e-05
-1.76816e-05
-0.000220985
0.00026111
-4.14401e-05
0.00019302
6.38738e-06
-0.000204364
-7.46928e-05
1.76123e-05
5.70788e-05
5.48724e-05
-3.26215e-05
-2.2251e-05
-6.06485e-05
9.84009e-06
5.08079e-05
0.000145771
-0.000255842
0.000109601
-1.9821e-05
4.93288e-05
-0.000265409
4.32973e-05
5.80873e-05
-2.41081e-05
-3.39792e-05
-0.000152341
8.26842e-05
-9.18638e-05
9.17372e-06
0.00023685
4.36266e-05
-3.4592e-05
5.90228e-05
0.000291518
-0.000230508
-6.26797e-05
-0.000114513
0.000150502
0.000190186
-0.000191223
4.67928e-05
0.000225103
-0.000273116
-3.96021e-05
4.23563e-05
4.7471e-05
8.44592e-06
-7.60227e-05
6.06461e-05
1.5375e-05
5.09682e-05
-3.03192e-05
-2.06491e-05
0.0001013
-8.73435e-05
-9.62701e-05
-0.000107239
0.000203261
-0.000120538
-0.000108425
-2.81346e-05
0.000196269
-0.000172398
-4.51595e-05
0.000210615
-5.61584e-05
-0.000117323
0.000155419
9.64834e-05
-6.50675e-06
7.57343e-05
0.00019881