/*--------------------------------*- C++ -*----------------------------------*\
| =========                 |                                                 |
| \\      /  F ield         | OpenFOAM: The Open Source CFD Toolbox           |
|  \\    /   O peration     | Version:  v2012                                 |
|   \\  /    A nd           | Website:  www.openfoam.com                      |
|    \\/     M anipulation  |                                                 |
\*---------------------------------------------------------------------------*/
FoamFile
{
    version     2.0;
    format      ascii;
    class       surfaceVectorField;
    location    "650";
    object      ddtCorrDdt0(Uf);
}
// * * * * * * * * * * * * * * * * * * * * * * * * * * * * * * * * * * * * * //

dimensions      [0 1 -2 0 0 0 0];


internalField   nonuniform List<vector> 
14885
(
(-0.00920399 -0.0248096 5.28781e-19)
(-0.0109727 -0.0220839 -1.18862e-18)
(-0.0131106 -0.0262434 8.42522e-19)
(0.0111409 -0.00621255 2.84507e-19)
(0.00317405 -0.00310214 -2.88109e-18)
(0.00721641 -0.0181242 -5.08326e-19)
(0.0249826 0.00972239 7.87231e-20)
(0.0264169 0.00829494 2.92424e-19)
(0.0240039 0.00745511 3.26172e-19)
(-0.00013528 -7.18409e-05 3.0038e-21)
(-0.000129794 -7.77679e-05 1.17381e-19)
(-0.000142933 -7.11917e-05 -4.33954e-20)
(-0.000200049 1.53924e-05 -1.38518e-21)
(-0.000201941 1.02187e-05 -1.72415e-19)
(-0.000204628 1.38472e-05 2.0343e-19)
(-0.0264405 -0.174719 -4.68219e-18)
(-0.0383643 -0.144415 5.32326e-18)
(-0.0284687 -0.170007 -5.84561e-18)
(-0.0192332 0.0633124 2.5487e-18)
(-0.00135045 0.0734693 7.21912e-18)
(-0.0133614 0.0519609 -3.63744e-19)
(0.00770265 0.14226 -1.19779e-18)
(0.00213242 0.148796 -1.93591e-18)
(7.21459e-05 0.152075 -4.88619e-19)
(-0.000145132 0.000280511 6.37134e-20)
(-0.000178456 0.000330561 -4.0148e-19)
(-0.000111301 0.000309246 2.00284e-19)
(-0.0198774 -0.0338943 -1.48688e-18)
(-0.0239712 -0.0342023 7.77507e-19)
(-0.0214008 -0.0381764 4.37354e-19)
(0.0357443 0.00799621 -2.00518e-19)
(0.0340572 0.0135441 -2.36691e-18)
(0.0317642 0.00947228 1.21125e-18)
(0.0182561 -0.0105959 -6.86478e-19)
(0.0145068 0.00475947 5.15194e-19)
(-0.00955993 0.0166442 1.36647e-18)
(-0.008347 0.0177799 -4.30347e-19)
(-0.00793556 0.0160328 -3.08188e-19)
(-0.00104033 0.0012982 -1.46209e-19)
(-0.000843507 0.00118717 5.82869e-19)
(-0.000898467 0.00150658 -2.17748e-19)
(-0.000794472 0.000670746 9.3281e-19)
(-0.000774019 0.000736157 9.71359e-19)
(-0.000861459 0.000722898 -4.13083e-20)
(-0.00132167 0.00140012 -6.78682e-19)
(-0.00112718 0.00110222 1.98394e-20)
(-0.00552045 -0.214256 1.50636e-18)
(-0.00455883 -0.224563 -2.31737e-18)
(0.0040872 -0.221544 -7.06802e-18)
(0.0360873 0.00369079 5.28649e-19)
(0.0397373 0.00674309 -9.67004e-20)
(-0.00279834 0.00479385 3.36891e-18)
(-0.00245076 0.00512813 6.96728e-18)
(-0.00294506 0.00536965 -1.39542e-18)
(0.00956332 -0.00688996 8.20023e-20)
(0.00948194 -0.00818768 6.18491e-20)
(0.0108815 -0.00739663 1.10568e-20)
(-0.010508 0.015583 -1.36402e-19)
(-0.0110958 0.0172263 -6.75087e-19)
(-0.00660446 -0.028047 8.21714e-19)
(-0.00463894 -0.0228184 1.4789e-18)
(-0.000138611 -6.32151e-05 -5.4197e-19)
(-0.000124484 -7.12122e-05 1.87985e-19)
(-0.0259845 -0.0129543 1.27584e-18)
(-0.0296057 -0.0186659 -2.26527e-18)
(-0.018743 -0.0224349 3.03165e-18)
(-0.000207387 0.000413155 -8.05484e-20)
(-0.000147637 0.000369412 5.23748e-20)
(-0.000200483 0.000359763 -9.33776e-20)
(3.83028e-05 -7.14189e-06 -2.87918e-20)
(3.84683e-05 -1.0358e-05 -5.82248e-20)
(4.74191e-05 -1.23172e-05 2.1506e-19)
(-0.0171973 -0.0303326 -1.22581e-19)
(-0.0149115 -0.0334025 7.8011e-20)
(-0.000161212 8.69888e-05 1.28334e-19)
(-0.000184979 0.000100434 -7.57468e-19)
(-0.000181842 8.04954e-05 -7.49477e-20)
(-0.0151946 -0.197822 9.24604e-19)
(-0.0244181 -0.181573 -1.71942e-18)
(-0.0340729 0.0298513 -7.0439e-19)
(-0.0322245 0.0553829 -1.26497e-18)
(-0.023776 0.0519467 -4.83378e-18)
(-0.000141737 -1.80654e-05 3.15643e-19)
(-0.000135362 -1.1835e-05 -5.8699e-20)
(-0.0001475 -9.73956e-06 -1.91039e-19)
(0.00717725 0.0170954 -3.87426e-18)
(0.00676232 0.0183755 -1.58574e-17)
(0.00828682 0.0178996 -2.06519e-18)
(-0.000192178 0.000229513 2.78934e-19)
(-0.000171593 0.000255049 2.91487e-19)
(-0.000229318 0.000261706 1.53804e-19)
(-0.000207901 0.000204963 7.54265e-19)
(-0.000161499 0.000206895 7.44341e-20)
(0.0124422 0.133583 -2.03815e-18)
(0.0159056 0.122123 -4.86637e-18)
(0.00233944 0.11978 1.57259e-18)
(-0.00407165 0.123721 3.91504e-18)
(0.00111336 0.0979482 1.4624e-17)
(-0.000190066 5.84783e-06 4.06014e-19)
(-0.000185822 7.16049e-06 1.006e-18)
(-0.00018495 6.94087e-06 -1.54039e-19)
(0.000114571 -5.41507e-05 9.1231e-20)
(9.37682e-05 -5.20871e-05 5.69464e-19)
(9.40905e-05 -4.11394e-05 4.33182e-19)
(-0.000133361 -2.71436e-05 3.20096e-20)
(-0.000147053 -2.31572e-05 2.9059e-19)
(-0.00220143 -0.00260567 -6.92094e-20)
(-0.00190432 -0.00220064 6.91468e-20)
(-0.00255655 -0.00203919 -4.42956e-20)
(-0.0311916 0.0024535 1.14239e-18)
(-0.041821 0.00721956 1.31147e-18)
(-0.000119389 0.000248972 1.57658e-19)
(-0.00312638 0.0695831 -1.98266e-18)
(-0.00136882 0.0634607 2.27292e-19)
(0.00321171 0.0665174 -1.71658e-19)
(0.0466456 0.0236531 4.37799e-19)
(0.0488117 0.0216636 -2.36119e-19)
(0.0452639 0.0215765 -4.32396e-19)
(3.63702e-05 -4.54714e-05 1.07491e-19)
(2.39688e-05 -2.94618e-05 2.6169e-19)
(1.35576e-05 -4.91139e-05 1.75675e-19)
(-0.000259546 0.000446324 -7.76665e-21)
(-0.000201624 0.000456617 -8.73704e-20)
(-2.17066e-05 -0.000128519 6.95116e-20)
(-4.01481e-05 -0.00012442 -4.38909e-19)
(-3.45345e-05 -0.000108428 -3.52744e-19)
(-0.000739481 0.000608218 -2.59319e-19)
(-0.000820905 0.000597823 1.40718e-18)
(-0.0458172 -0.00801691 2.3246e-19)
(-0.047845 -0.00458809 -3.98448e-19)
(-0.0433349 -0.00452734 -1.86209e-19)
(0.166186 0.0291791 4.37769e-18)
(0.178531 0.0406081 -1.40278e-18)
(0.182767 0.0139693 -3.70771e-18)
(-0.0082751 0.0780436 1.16554e-18)
(-0.0107939 0.0754029 -1.32178e-18)
(-9.38575e-05 2.44926e-05 -2.10524e-21)
(-9.28294e-05 1.57057e-05 -1.44818e-21)
(-8.6065e-05 2.01518e-05 4.29501e-21)
(-0.00700898 -0.205688 5.59266e-18)
(-0.003093 0.00446875 1.70735e-18)
(-0.0026414 0.00438053 -7.85918e-19)
(0.0797712 0.0580943 -2.38587e-18)
(0.0814116 0.0591592 2.6713e-19)
(0.0817598 0.0587799 -3.02519e-19)
(-0.0658233 0.110906 -1.48726e-17)
(-0.00250579 0.0903642 -7.61679e-18)
(-0.0497969 0.122403 -1.25491e-17)
(-0.011423 0.014198 4.46866e-19)
(-0.00979261 0.0140412 3.55806e-19)
(0.0202301 0.00241248 -1.16755e-18)
(0.0225875 0.00109183 -6.26355e-19)
(0.0230448 0.00361704 2.12606e-18)
(-0.00149038 -0.000283256 3.04668e-19)
(-0.00162498 -0.000296734 3.05999e-19)
(-0.0015231 -0.000417135 7.89427e-20)
(7.79424e-05 -2.22398e-05 1.16634e-20)
(8.53126e-05 -1.63987e-05 3.80261e-20)
(8.66457e-05 -1.82586e-05 1.72571e-20)
(-0.0430814 -0.0115889 3.59529e-19)
(-0.0483382 -0.0122969 6.80185e-19)
(0.0716863 0.0431453 6.6766e-20)
(0.0774395 0.0430522 -7.29082e-19)
(0.0748459 0.0299773 4.0467e-19)
(-0.00535525 0.0597977 -3.31915e-18)
(-0.000934108 0.0586385 -5.42167e-19)
(0.00629574 0.12872 9.96969e-19)
(0.00252632 0.137802 -1.56962e-18)
(-0.00398373 0.132155 -5.11636e-19)
(0.012584 0.0189572 -3.54077e-19)
(0.0155385 0.0188543 -5.53569e-19)
(0.0138675 0.0221096 9.24761e-19)
(-0.00183204 0.00164694 -4.72357e-19)
(-0.00175364 0.00195885 9.14897e-20)
(-0.00216948 0.00183437 -9.98177e-20)
(0.00947531 -0.00479182 2.05507e-19)
(0.0095932 -0.00584361 -1.5779e-19)
(0.0106292 -0.00499788 -2.05638e-20)
(-0.0240742 -0.0190876 8.42469e-20)
(-0.027116 -0.0194974 2.24264e-19)
(-0.0254161 -0.0153302 2.53296e-19)
(5.19834e-05 -0.000151873 2.38271e-19)
(3.68893e-05 -0.000154559 -4.90605e-19)
(5.93236e-05 -0.000171365 5.17944e-19)
(-0.0215593 -0.018462 1.83352e-20)
(-0.0227612 -0.0223663 3.38735e-19)
(-0.0108566 0.0846234 -2.11394e-18)
(0.00389339 0.0870629 -1.31286e-18)
(-0.0111558 0.0834873 -2.33747e-18)
(0.000385334 -0.00479044 -2.77302e-19)
(0.00087225 -0.00503372 -2.04873e-19)
(0.000775103 -0.00443372 1.08574e-19)
(2.84011e-05 -0.000403874 7.68166e-19)
(-3.96874e-05 -0.000425178 1.7843e-20)
(-1.23864e-05 -0.000343792 3.7935e-20)
(-0.00145586 -0.000166237 -4.70826e-19)
(-0.00136321 -0.000274443 -8.57917e-19)
(-0.00158458 0.00150105 6.73988e-20)
(-0.00191295 0.00137103 -1.11735e-19)
(-0.00373179 0.0819134 1.23985e-18)
(0.0210909 -0.000150839 -4.36494e-19)
(0.0188953 0.00088801 8.77459e-19)
(0.0211733 0.0024664 -5.98179e-19)
(-9.63343e-06 -0.000149906 9.66041e-20)
(-2.65923e-06 -0.000133262 3.99861e-19)
(0.0207941 -0.00245253 9.42646e-19)
(0.0236631 -0.00123871 8.05299e-19)
(-0.00205255 0.00499455 -2.70885e-18)
(-0.00217662 0.00551466 3.13124e-18)
(0.0431711 0.0256142 -1.18688e-19)
(0.0480683 0.0271171 7.66402e-19)
(-0.0196047 0.000127349 -1.24432e-18)
(-0.000124014 -9.18369e-07 4.58568e-20)
(-0.000169796 1.021e-07 -1.50981e-19)
(-0.000118819 -6.44451e-07 3.58531e-20)
(-0.000170581 4.84183e-05 -5.37174e-21)
(-0.000178986 5.13729e-05 1.64908e-19)
(-0.000172657 5.80096e-05 -1.00503e-19)
(0.00249851 -0.0241144 2.46609e-19)
(0.00459377 -0.0256308 1.8377e-19)
(0.00151526 -0.0265304 -1.08061e-19)
(-0.0931424 -0.0131664 4.56874e-18)
(-0.0827801 -0.018228 -2.0684e-18)
(-0.0873806 -0.00826794 -1.48166e-18)
(0.00843001 -0.00464237 1.18161e-19)
(0.00925955 -0.0038018 4.67173e-20)
(0.0231725 0.0111246 1.32306e-18)
(0.0256837 0.0120643 -5.76892e-19)
(-5.25505e-05 -0.00116361 -7.37318e-19)
(-6.04622e-05 -0.00102331 1.26679e-19)
(8.27715e-05 -0.00108358 -7.01915e-19)
(0.0182467 0.00789548 -8.41352e-19)
(0.01785 0.010464 4.83211e-19)
(0.015832 0.00849847 -4.88158e-20)
(-0.00591107 0.010434 -3.89725e-18)
(-0.00639908 0.0113017 -3.67073e-18)
(-0.00517871 0.0111139 -5.76258e-18)
(-0.000712456 0.000754878 4.32787e-20)
(-0.000771971 0.000814189 -7.12595e-19)
(-0.00762227 0.0558813 -1.31469e-19)
(-0.00931878 0.0595667 -1.73219e-18)
(-0.103512 -0.0193952 1.43344e-18)
(-0.098211 -0.00370381 1.47155e-18)
(0.00313853 0.0226504 -1.51418e-19)
(0.00611157 0.0234685 6.30169e-19)
(0.00468007 0.0253824 -2.59759e-18)
(0.000464906 -0.00061912 -1.39646e-19)
(0.000561114 -0.000678163 2.40967e-20)
(0.000551874 -0.000578997 6.20128e-20)
(0.0929206 -0.0760737 4.08357e-18)
(0.0670342 -0.0852398 -8.47176e-19)
(0.00844142 -0.00663917 -1.82597e-19)
(0.0529418 0.0094247 -8.68939e-19)
(0.048852 0.00436083 9.50656e-19)
(0.0554638 0.00611044 -7.72416e-19)
(-0.00141041 -6.01031e-05 -2.657e-19)
(-0.00135767 3.76256e-05 -1.31254e-19)
(-0.00128495 -6.64916e-05 7.65704e-19)
(-0.00558546 0.00969283 8.34602e-19)
(-0.00657872 0.00972417 3.20093e-18)
(-0.0237663 -0.0513526 3.12881e-19)
(-0.027124 -0.0571984 -5.53972e-19)
(-0.0310049 -0.0481522 -1.09691e-18)
(-0.000388587 -0.00227486 3.36614e-19)
(-0.000135691 -0.00240401 2.39307e-19)
(-0.000162049 -0.00213185 -5.05744e-20)
(0.00549429 0.0151103 -4.26457e-18)
(0.00495021 0.0141365 -1.80381e-18)
(-0.00522949 0.00551434 2.61262e-18)
(-0.00584463 0.00548298 6.63787e-19)
(-0.00550931 0.00615348 -1.23936e-18)
(-0.000443126 -0.00145558 6.71561e-20)
(-0.00040595 -0.00130464 2.77703e-20)
(-0.000282127 -0.00141911 4.20196e-19)
(-0.221414 0.35787 -7.23622e-18)
(-0.239145 0.356784 2.19493e-17)
(-0.200956 0.331655 1.89287e-18)
(-0.00134828 0.00133481 -6.91332e-20)
(-0.0012694 0.00156105 -4.27018e-19)
(-0.0340052 0.0522759 -6.75077e-18)
(-0.0279574 0.0724562 9.56743e-19)
(-0.000635138 -0.00146041 -3.8191e-19)
(-0.000491109 -0.00161615 -7.57727e-19)
(-0.00116869 -0.000494737 4.12806e-19)
(-0.00128481 -0.000529422 1.35526e-18)
(-0.00126759 -0.000380859 -6.14074e-19)
(-0.049935 0.0398642 -8.41802e-19)
(-0.0462917 0.0348063 -1.49524e-18)
(-0.0224137 -0.0452452 4.66316e-19)
(-0.0177043 -0.0514234 -5.57787e-19)
(0.00945197 0.118232 2.6817e-18)
(0.0167443 0.117326 1.24123e-18)
(0.00972132 0.0186597 3.36282e-19)
(0.0113113 0.0160206 1.58877e-20)
(0.000162453 -0.000175888 -4.36945e-19)
(0.000133701 -0.000182743 -1.88684e-20)
(0.000168309 -0.000201424 -1.34533e-19)
(-0.0287062 -0.00294795 5.52123e-19)
(-0.0261968 -0.000773047 2.96515e-19)
(-0.0303953 0.000514486 7.74754e-19)
(-0.000178548 -7.63475e-06 -9.95516e-21)
(-0.000180562 -1.07831e-05 -3.48982e-20)
(-0.000187593 -1.15112e-05 -4.06718e-20)
(0.0184194 0.00384006 -4.9035e-19)
(0.0177935 0.00168572 -6.70212e-19)
(0.0002146 -0.000148405 1.50236e-19)
(0.000197757 -0.000124939 -3.56574e-19)
(0.00023757 -0.000126455 -8.47165e-20)
(7.31257e-05 -2.92816e-05 -2.98998e-21)
(6.8897e-05 -2.50114e-05 1.2869e-20)
(0.0343821 -0.0156891 7.41885e-19)
(0.0280143 -0.012051 4.10432e-18)
(0.0306641 -0.0247763 -6.60763e-18)
(0.0369822 -0.008311 1.40827e-18)
(0.0419316 -0.0208934 -2.15387e-18)
(4.98443e-05 -6.56538e-05 -1.60658e-19)
(6.46048e-05 -4.12426e-05 -6.12046e-20)
(0.0184677 0.00579547 9.1369e-19)
(0.0207982 0.00766109 -1.03356e-18)
(-3.73613e-05 -0.00154423 5.57685e-19)
(-3.51165e-05 -0.00132808 -6.05716e-19)
(0.000138675 -0.00142287 2.20612e-19)
(-3.73195e-05 -0.00172528 8.04051e-19)
(-0.000249745 -0.00157742 6.2961e-20)
(0.0704424 0.0358949 -3.46314e-19)
(0.0794192 0.0505192 1.04935e-18)
(0.0220825 0.0500532 -5.3865e-18)
(0.0249571 0.0526648 8.78571e-18)
(0.0253014 0.0483876 -1.89796e-18)
(-0.0320198 -0.00596851 -1.23875e-20)
(-0.0261128 -0.00642989 9.86179e-20)
(0.000285114 2.33146e-05 5.97824e-19)
(0.000241484 2.11057e-05 -3.3176e-19)
(0.000260705 5.42598e-05 1.19636e-18)
(-0.00145899 0.000590824 -5.79099e-19)
(-0.00165168 0.000592298 -1.56788e-19)
(-0.00151132 0.000769987 8.22459e-20)
(0.000634299 -0.00248039 2.32354e-19)
(0.000784007 -0.00219437 1.0697e-19)
(0.00102215 -0.00256106 -3.56677e-19)
(-0.000456496 0.00135614 4.2528e-19)
(-0.000524263 0.00120429 -4.2875e-20)
(-0.000656227 0.00131902 -1.85865e-19)
(-0.0615074 0.0295375 3.4412e-18)
(-0.0527381 0.0450405 -2.59094e-18)
(0.0794503 0.0364319 -2.06211e-19)
(0.0921828 0.0332505 -5.2745e-18)
(0.0231023 0.0567173 5.45385e-18)
(0.0102206 -0.000990364 4.39307e-20)
(0.0107269 -0.00197338 9.91659e-20)
(0.0113446 -0.000879131 -5.9553e-20)
(-0.21978 0.314775 2.50613e-18)
(-0.162616 0.272074 -4.40905e-18)
(-0.00360638 0.00164114 -7.18333e-19)
(-0.00394078 0.00182984 -1.55477e-18)
(-0.00349713 0.00195341 9.91621e-19)
(0.0548812 0.013762 -3.63694e-19)
(0.0517713 0.0206631 1.14573e-18)
(-0.0132496 0.0423729 1.25272e-18)
(-0.00982581 0.0439824 6.09597e-19)
(-0.0102333 0.0397777 -1.02e-18)
(-2.17341e-05 2.33462e-05 2.27339e-19)
(-2.63293e-05 2.78975e-05 -5.47585e-19)
(-1.95101e-05 3.01785e-05 -2.68054e-19)
(-0.209264 0.361804 -8.28907e-18)
(-0.241158 0.376881 -9.03099e-18)
(-0.000141164 8.91268e-05 9.46449e-20)
(-0.00014046 7.25308e-05 3.22322e-19)
(-0.011422 -0.00303692 1.87376e-20)
(-0.0106574 -0.00261382 -2.68982e-20)
(-0.0116353 -0.00193871 1.17714e-18)
(0.000135519 -5.1488e-05 -3.85388e-19)
(0.000134821 -6.95962e-05 1.98125e-20)
(0.00049737 -0.0226629 -8.17131e-20)
(0.00307704 -0.0221025 -4.46686e-19)
(5.33887e-05 -0.000134421 -1.93466e-19)
(7.39573e-05 -0.000149404 -4.94877e-20)
(0.00272452 -0.00308825 -3.24377e-20)
(0.00249783 -0.00343203 9.70507e-20)
(0.00299275 -0.00339649 -1.80779e-19)
(-0.0152876 0.0157238 -2.92429e-18)
(-0.0194309 0.0202625 -2.39281e-18)
(-0.0111099 0.0234776 -3.2168e-18)
(-0.00117713 0.00119943 -3.25761e-19)
(-0.00143262 0.00117347 8.98332e-19)
(-1.171e-05 1.08854e-05 -3.4236e-19)
(-8.2457e-06 1.45135e-05 -8.13125e-19)
(-1.34673e-05 1.37719e-05 1.46967e-19)
(-0.00442483 0.00234047 -3.43194e-19)
(-0.00421525 0.002078 1.97013e-18)
(-0.00401482 0.00241489 2.60647e-18)
(-0.00859569 0.0211597 9.36389e-19)
(-0.0082213 0.0226446 -8.64759e-19)
(-0.00684763 0.0213441 5.01347e-19)
(0.000479132 0.0212735 -7.96364e-19)
(0.00261033 0.019568 -1.34098e-18)
(-0.011279 -0.00416553 -3.8351e-20)
(-0.0125102 -0.00346554 5.17762e-19)
(0.0194802 0.0470714 -1.87988e-18)
(0.0186884 0.0512863 -1.01793e-17)
(-0.126987 0.130008 8.83608e-18)
(-0.0871215 0.10029 -2.48468e-18)
(0.000445423 -0.00281864 9.65062e-19)
(0.000308322 -0.00240623 -3.27782e-19)
(3.8425e-05 -4.60496e-06 -2.08471e-19)
(2.64729e-05 -3.50054e-06 -1.52482e-19)
(-0.000153255 1.478e-05 -1.1601e-19)
(-0.000138741 8.803e-06 -1.21232e-19)
(-0.000147864 7.85886e-06 -3.59932e-20)
(-0.00261 -0.00305014 1.38566e-19)
(-0.00180966 -0.00307605 2.37941e-20)
(0.060184 0.0408901 3.09569e-18)
(0.102356 0.0367646 -2.27836e-18)
(-0.000204864 -0.00122584 -7.5428e-19)
(-0.00306669 0.00108308 2.52047e-18)
(-0.00304967 0.00135064 -6.53582e-19)
(-0.00280024 0.00122004 -3.58797e-19)
(-0.023847 -0.00292431 1.63109e-18)
(-0.0122116 0.00393218 -2.64214e-18)
(9.59859e-05 -0.000376033 -3.14292e-20)
(0.000113045 -0.000468007 1.76292e-19)
(0.00636129 0.0162359 6.67339e-18)
(0.004996 0.0161682 -4.31099e-18)
(0.0027545 0.13656 -5.07104e-18)
(0.0103333 0.113976 -4.76797e-19)
(-0.000212599 0.000176223 7.0819e-19)
(-0.000213179 0.000159103 1.18705e-19)
(-0.000182014 0.000163623 -1.10551e-19)
(-0.00597009 0.0215391 -3.37639e-19)
(-0.0033374 0.0237278 5.10562e-19)
(-0.00553944 0.0244819 -4.41179e-19)
(-0.0260492 0.0868405 -7.15839e-19)
(-0.0370956 0.0687581 4.51641e-18)
(0.0544154 -0.0207529 3.40569e-18)
(0.0606209 -0.0197146 -4.25473e-18)
(0.0591452 -0.0151798 -5.40953e-18)
(-0.00025128 0.000199444 3.14723e-19)
(-0.00354866 0.00455718 7.83895e-19)
(-0.00330979 0.00414408 1.26038e-18)
(0.0485765 -0.0244379 -5.8978e-20)
(0.0486425 -0.0132944 3.26218e-18)
(1.00603e-05 0.000316252 8.22361e-21)
(4.55375e-05 0.000293006 -2.31262e-21)
(2.04052e-05 0.0002609 -1.69238e-20)
(0.000157764 -4.57391e-05 8.23956e-20)
(0.000130449 -3.4141e-05 -2.86992e-19)
(-0.0013951 0.000436367 -2.18489e-19)
(-0.00125869 0.000569621 5.22235e-20)
(2.18492e-05 -0.00016304 -1.13527e-19)
(1.92488e-05 -0.000142511 -5.94895e-19)
(-0.00332451 0.00149911 -8.74063e-20)
(-0.00367277 0.00131467 1.38763e-18)
(-0.00727091 0.00425338 -1.57836e-22)
(-0.00795473 0.00425229 -3.3431e-20)
(-0.00751672 0.00483907 -1.26131e-18)
(-0.00154022 -5.18148e-05 -8.2507e-19)
(0.000124892 -0.000103509 -5.76112e-19)
(0.000132342 -0.000117077 -8.12586e-20)
(0.00010678 -0.00011092 2.42682e-20)
(-0.0265249 -0.0198434 -1.43469e-19)
(-0.0310799 -0.0169982 4.6817e-19)
(-0.029073 -0.0235258 4.42586e-20)
(-0.00218108 0.0111778 7.30277e-19)
(-0.00145162 0.0108644 -5.65096e-19)
(-0.00163703 0.0118877 -4.72954e-18)
(-3.28085e-05 -0.00456074 -3.07169e-19)
(-4.80278e-05 -0.00518584 -1.56432e-19)
(9.17425e-05 -9.80358e-06 -2.09469e-20)
(8.88137e-05 -1.30455e-05 -2.25124e-20)
(9.04416e-05 -1.25545e-05 -2.05751e-20)
(0.196034 -0.00715354 1.24478e-20)
(0.213597 -0.00581025 1.19862e-18)
(0.233643 -0.0125969 1.29659e-18)
(1.02617e-05 -1.03877e-05 -9.27241e-20)
(1.67966e-05 -1.37086e-05 -1.69466e-19)
(1.57989e-05 -1.01866e-05 -3.85921e-20)
(-0.000179291 0.00668255 -3.08014e-18)
(-0.0130921 0.0144198 4.60849e-19)
(-0.0121889 0.0130035 8.57401e-19)
(0.000336891 2.27761e-05 2.40197e-19)
(0.000308298 -1.34117e-05 6.56647e-19)
(-0.00658486 0.00433447 -5.03358e-19)
(-0.00693339 0.00381461 1.19428e-18)
(0.0676766 0.0256804 3.79214e-18)
(0.0727367 0.0398365 1.28315e-18)
(0.0537369 0.00815019 -5.45347e-19)
(-0.000656124 0.000707157 -2.99304e-19)
(-0.000655444 0.000778769 1.07991e-18)
(0.0571851 0.0464205 -6.31022e-18)
(0.0580833 0.0516224 4.95981e-18)
(0.0532202 0.0522297 7.39473e-18)
(-0.0137089 0.0144278 1.66153e-18)
(-0.0122391 0.0176398 -2.20446e-19)
(-0.0141878 0.016199 -1.28899e-18)
(0.153361 -0.0530127 -9.15366e-18)
(0.172599 -0.0355389 1.20236e-17)
(0.179974 -0.0297781 -6.32452e-18)
(-0.000166863 4.02808e-05 2.59781e-20)
(-0.000160607 4.5314e-05 4.6033e-20)
(0.0289852 0.0555134 1.88998e-18)
(0.0335652 0.0577366 1.72014e-18)
(0.0318162 0.052933 -2.99164e-18)
(-0.00894001 0.0519197 5.59954e-20)
(-0.00951685 0.0475118 -9.34823e-19)
(-0.0130689 0.0510145 -5.9683e-19)
(-0.0387521 0.0386205 -3.53535e-19)
(-0.0327311 0.0428116 3.12353e-20)
(-0.0342199 0.0333612 2.51354e-20)
(-0.000113912 -1.24342e-05 -4.66615e-19)
(-0.000108035 -1.00961e-05 3.16056e-19)
(-0.000113647 -7.57991e-06 -2.72442e-19)
(0.0436249 6.13798e-05 -3.10705e-18)
(0.0431621 0.0100428 2.04314e-18)
(0.000944259 -0.00195027 -9.39393e-20)
(0.000625934 -0.00192741 3.50744e-19)
(-0.0348939 0.0022694 -2.84212e-19)
(-0.0301112 0.00763839 1.35113e-18)
(-0.0376695 0.00921636 -7.75611e-19)
(-0.00865507 0.0192706 1.4587e-19)
(-0.0102781 0.0202799 2.39253e-18)
(-0.00105527 -0.000430405 -3.25827e-19)
(-0.00106849 -0.000570091 2.89697e-19)
(-0.000433021 0.00150688 4.31171e-19)
(-0.000294884 0.00136817 2.05797e-19)
(0.00775084 0.015785 1.23793e-17)
(-0.00011967 -1.56234e-05 -1.91233e-19)
(-0.000113371 -1.76899e-05 -2.43324e-19)
(-0.045042 0.0419345 1.88185e-19)
(-0.0441923 0.0309861 -2.55403e-19)
(-0.0251385 0.0459308 2.48343e-19)
(-0.0228239 0.039043 5.13704e-19)
(-0.0174563 0.0463665 9.41485e-20)
(-0.000201511 -4.85938e-06 -3.59709e-19)
(-0.000192066 -8.59589e-06 2.15379e-19)
(-0.000198286 -5.52221e-06 8.0061e-20)
(-0.0202361 -0.0164007 3.34736e-21)
(-0.0207771 -0.0132637 3.34271e-19)
(-0.0181896 -0.0149953 1.4322e-19)
(-9.1465e-05 -2.88699e-05 -2.74749e-19)
(-8.48373e-05 -2.86288e-05 8.29318e-20)
(-8.68634e-05 -3.68259e-05 -4.60921e-19)
(0.081776 0.0301814 7.02837e-19)
(0.0754832 0.0203967 2.30474e-18)
(0.079375 0.012891 6.51405e-19)
(-0.000111359 -2.08877e-05 2.95594e-19)
(-0.000110029 -2.13762e-05 -2.47479e-19)
(-0.000119278 -2.5948e-05 -2.14366e-19)
(0.0256673 0.0574478 3.49704e-18)
(0.0713905 0.0690851 -4.45682e-18)
(0.0740048 0.0631769 -1.10307e-17)
(0.0579927 0.0664806 -1.41067e-17)
(-0.0083713 0.0189926 -1.72672e-19)
(-0.00633012 0.0189402 1.55717e-19)
(0.109662 0.080148 2.84854e-18)
(0.0696453 0.0770233 1.90853e-18)
(-0.0185451 -0.0189782 1.64764e-19)
(-0.000127414 -8.53166e-05 2.18723e-19)
(-0.000115893 -8.53652e-05 -1.03947e-19)
(-0.00481895 0.0515756 7.96318e-19)
(0.00219443 -0.00211764 5.17549e-20)
(0.00252496 -0.00200714 6.40715e-20)
(0.0022177 -0.00179882 -4.01985e-20)
(0.00972329 -0.000215133 -1.44449e-19)
(0.00924953 -0.00122214 -4.20337e-20)
(-0.0121007 -0.0263969 -1.68596e-19)
(-0.0154221 -0.0268437 1.27186e-18)
(-0.0139105 -0.0235559 -8.01164e-19)
(-0.000563631 -0.00218605 4.26054e-19)
(-0.000559326 -0.00245017 2.23694e-19)
(0.000181043 -3.39462e-05 4.0819e-19)
(0.000186374 -5.95563e-05 -4.06324e-21)
(0.00014078 -0.00192511 5.15126e-19)
(-0.000100756 -0.00195884 4.01344e-19)
(-0.00264327 0.0104773 1.23671e-18)
(-0.00292976 0.0113809 6.9425e-20)
(-0.000172281 -4.23919e-06 -5.49656e-19)
(-0.000151742 -4.39806e-06 -4.02551e-19)
(-3.23725e-05 0.000337676 9.04384e-20)
(-1.63442e-05 0.000380797 -1.49118e-20)
(-0.00165865 0.153366 -4.2129e-19)
(0.00789809 0.00201187 4.4594e-19)
(0.00848874 0.00136933 1.9006e-19)
(0.00868858 0.00243843 2.40085e-19)
(0.124134 -0.0658131 -9.13085e-18)
(0.11158 -0.0585065 -1.01831e-17)
(-0.00970915 -0.00264473 -4.19875e-20)
(-0.00997131 -0.00176584 4.42235e-19)
(-0.039748 -0.0143834 -5.80053e-18)
(-0.0317924 -0.0144799 -3.07788e-18)
(0.0716375 0.0642509 -1.39947e-18)
(0.0606458 0.078718 -4.09614e-19)
(0.0612079 0.0951956 -3.60084e-18)
(-0.0246841 0.108034 -9.64635e-19)
(-0.0146229 0.125438 -4.14414e-18)
(-0.0265956 0.119863 -3.9353e-19)
(6.54662e-05 -3.89762e-05 -2.39049e-20)
(7.82126e-05 -3.41635e-05 3.88316e-21)
(-0.00294814 -0.0036075 9.06749e-20)
(-0.0033814 -0.00290174 1.72017e-19)
(0.0184056 -0.0116469 4.11951e-18)
(0.00896986 -0.0402942 2.24961e-18)
(0.0480829 0.0117906 -4.69196e-18)
(-0.000195041 1.5907e-05 6.00574e-20)
(-0.000196558 2.15915e-05 -5.96587e-20)
(-0.034066 0.0881582 2.70387e-19)
(-0.021033 0.0955805 5.88821e-19)
(-0.00868503 -0.0025181 -5.42507e-19)
(-0.00914532 -0.00346847 -4.98194e-19)
(-0.0046062 0.00266431 -1.05434e-18)
(-0.00480576 0.00233835 -2.6515e-18)
(-0.000194352 6.42248e-06 5.05127e-20)
(-0.000203718 6.86483e-06 1.70473e-20)
(-0.00455593 0.00554311 2.96999e-18)
(-0.00487082 0.00498373 9.72223e-19)
(0.000395354 2.64267e-05 -4.77149e-20)
(0.00036227 6.7282e-05 1.99392e-19)
(-0.0629415 -0.0516067 6.05757e-19)
(-0.06302 -0.0588943 5.48468e-20)
(-0.0612168 -0.04269 4.48727e-19)
(-0.0308727 -0.0317325 1.26451e-18)
(-0.0170496 -0.0102227 -4.19062e-18)
(0.00946514 0.00737742 1.4433e-18)
(0.00240654 -0.00274102 4.47417e-21)
(0.00286945 -0.002661 -8.35957e-21)
(0.00723941 0.00254564 -2.12769e-19)
(0.00724274 0.00157158 6.01254e-20)
(4.71187e-06 -1.16785e-05 -6.6209e-19)
(-1.04131e-06 -8.66145e-06 -2.62002e-19)
(0.00361183 -0.0017068 9.58216e-21)
(0.00408965 -0.00182505 4.05426e-20)
(0.00369284 -0.00215613 -1.43304e-20)
(0.0504989 -0.0806041 -1.04095e-17)
(0.0475903 -0.0918325 -1.70047e-17)
(-9.94976e-05 -1.75219e-05 1.08913e-19)
(-0.000101528 -2.44628e-05 1.15107e-19)
(-0.00010447 -2.00053e-05 1.3663e-19)
(0.0177357 0.0128207 2.30703e-19)
(0.0203874 0.0123318 -2.71354e-19)
(6.28519e-05 -9.87089e-05 -4.96546e-19)
(4.66315e-05 -0.000110531 -6.01337e-19)
(4.15789e-05 -8.62449e-05 7.18116e-20)
(-9.59148e-05 3.36246e-05 -4.99716e-21)
(-0.000100371 2.72675e-05 -8.03596e-20)
(-5.99703e-05 -0.000117688 6.39821e-19)
(-5.27867e-05 -0.000139022 -5.66365e-19)
(-0.00688439 0.0183355 -2.08684e-18)
(-0.0475147 -0.0592074 -3.41552e-18)
(-0.0770419 -0.0782803 -2.03595e-18)
(0.0168028 0.0157913 1.75187e-19)
(0.0151064 0.0132148 1.50651e-19)
(-0.0617435 -0.0445314 2.83203e-18)
(-0.0622666 -0.0573844 2.42424e-18)
(-8.86708e-05 -5.13588e-06 4.93809e-19)
(-7.96122e-05 -4.00435e-06 -1.02143e-19)
(-0.000107764 -6.00812e-06 2.82213e-19)
(0.000336629 -0.00190162 4.54215e-20)
(0.00022867 -0.00213754 -5.31743e-19)
(-0.000357966 0.000136701 -2.30277e-18)
(-0.000347032 0.000120082 -3.862e-19)
(-0.000374031 0.000125406 -1.30435e-18)
(0.133653 0.0229005 -1.01259e-18)
(0.150854 0.0384255 2.65622e-18)
(0.000259358 0.000867947 -4.69401e-19)
(0.000226148 0.000721207 3.82684e-20)
(0.000107155 0.000830276 -1.09972e-18)
(0.0556762 0.0590279 -2.2709e-20)
(0.0186305 0.080691 -7.72961e-19)
(0.00353056 -0.00130113 -1.51462e-20)
(0.00318656 -0.00160199 5.58603e-21)
(0.0131547 0.00781966 -2.58691e-19)
(0.0149734 0.00654486 2.5017e-21)
(0.0143993 0.00954254 4.97598e-19)
(-0.00131914 0.00227428 2.41313e-18)
(-0.00118653 0.00242533 -1.41824e-18)
(-0.00141914 0.00248449 1.15608e-18)
(8.65466e-06 9.36839e-05 -5.18863e-21)
(3.35007e-05 7.96887e-05 3.0263e-20)
(2.36671e-05 0.000116367 -5.07925e-21)
(-9.2782e-05 -1.29712e-05 3.77929e-19)
(-7.46706e-05 -2.1819e-06 -1.1509e-19)
(0.079472 0.0358499 3.57217e-19)
(-0.000209112 0.000109374 6.35847e-20)
(-0.000186106 0.000116691 -5.12384e-19)
(0.0149073 0.1159 -8.8004e-19)
(0.0275216 0.117561 -1.55646e-18)
(0.025558 0.102047 -1.51231e-18)
(0.0561727 0.0427027 -9.42328e-18)
(0.05958 0.0409522 1.43113e-18)
(-0.00145 0.00211799 1.29319e-18)
(-0.00123764 0.00208644 9.27135e-19)
(-0.000167743 1.15672e-05 3.77278e-19)
(-0.000141875 7.55495e-06 6.01425e-19)
(-0.000125082 8.08471e-06 4.56124e-19)
(0.298063 0.0440619 -5.83485e-18)
(0.310861 0.026588 2.05629e-18)
(0.282939 0.0217176 8.94862e-18)
(-0.0220433 -0.0150331 -8.19957e-19)
(-0.0177023 -0.0167113 2.54956e-19)
(-0.0233925 -0.0185937 7.49532e-20)
(-0.00013452 -0.000219323 -1.20231e-19)
(-9.59601e-05 -0.000239586 -3.25072e-19)
(-0.000134284 -0.000255304 -2.78696e-19)
(0.00598703 -0.0215615 3.16095e-19)
(0.00120784 -0.0259682 -1.09917e-18)
(0.00269524 -0.0213707 -3.88978e-19)
(-9.47315e-06 9.22578e-06 -2.50046e-19)
(-1.38026e-05 8.48451e-06 2.28009e-19)
(-0.0133066 0.0104793 -6.05253e-19)
(-0.0142968 0.0116132 -2.31133e-18)
(-0.0128126 0.0116342 -1.06584e-18)
(-0.0116042 -0.0125197 6.78598e-20)
(-0.012066 -0.0104079 2.29919e-19)
(-0.0135482 -0.0122032 1.31314e-19)
(-0.000160672 4.96979e-07 1.98674e-19)
(-0.000205339 1.66983e-06 2.4626e-19)
(-0.000163614 1.90764e-06 -4.40473e-19)
(0.0234916 0.146091 5.54772e-18)
(0.0136658 0.165132 1.87536e-18)
(0.00803464 0.152127 5.88967e-18)
(0.0185706 0.018727 2.17843e-19)
(-0.00155452 0.000622174 -4.18743e-19)
(-0.00179607 0.000595678 1.92424e-19)
(-0.00155516 0.000404729 5.00184e-19)
(0.0593619 -0.0130445 -3.22951e-19)
(0.0582964 -0.0193051 -2.47036e-18)
(0.0544319 -0.0143608 -5.47994e-19)
(0.00908746 0.000709124 -1.69273e-19)
(0.0100765 0.000992341 -1.28196e-19)
(-0.000340127 0.000145667 -2.09697e-19)
(-0.000367323 0.000152201 -3.39977e-19)
(-9.48892e-05 -2.32405e-05 -1.48345e-19)
(-9.89041e-05 -3.01204e-05 -1.28446e-19)
(-0.00432596 0.00166447 -7.23073e-19)
(-0.0283877 0.0537872 3.29212e-19)
(9.2346e-05 -7.5203e-06 -1.75633e-20)
(9.30296e-05 -7.83411e-06 8.34316e-21)
(0.0762588 0.0482407 1.04784e-18)
(0.0698724 0.0443983 5.0401e-19)
(-0.0247618 -0.0127723 1.26685e-18)
(-0.0206427 -0.011523 5.09335e-19)
(0.0545707 0.038621 1.48211e-18)
(0.0592943 0.0349826 1.73615e-19)
(0.000275253 0.00103192 -4.9786e-19)
(0.000317439 0.00124718 -4.52881e-19)
(9.85647e-05 0.00119575 -3.79002e-19)
(-0.00248163 -0.00425335 -6.55358e-20)
(-0.00342566 -0.00429793 1.66275e-19)
(0.0663515 -0.0106764 6.89534e-19)
(0.0598377 -0.00758978 -3.1264e-19)
(0.0311431 0.128042 6.85676e-18)
(0.0361781 0.132215 1.84168e-18)
(-0.000175144 1.24933e-06 -4.59715e-19)
(-0.000196247 2.48866e-06 -7.27999e-19)
(-0.000582583 0.00106816 -1.04329e-20)
(-0.000720316 0.00100891 -8.31369e-21)
(-0.000613593 0.000911958 -1.46675e-19)
(0.000371751 -0.000635822 -1.06662e-19)
(0.000380144 -0.000549124 -6.2925e-20)
(-0.00151776 0.000825538 -1.82053e-20)
(-0.00136545 0.000619949 -2.72776e-19)
(-0.0096262 -0.0128809 2.30446e-19)
(-0.0107027 -0.0149938 5.77879e-20)
(0.00940664 -0.0173231 -1.05179e-19)
(0.00953571 -0.0213655 -4.13938e-20)
(-7.45091e-05 -0.00011223 8.85755e-19)
(-6.62241e-05 -0.000103282 6.02906e-19)
(-0.0244562 -0.0163105 8.80555e-19)
(-0.0227579 -0.0205516 1.60969e-18)
(-0.0479899 -0.00927523 5.44883e-18)
(-0.0474294 -0.00612511 4.5774e-18)
(-0.0536976 -0.00519604 8.01093e-19)
(0.000187644 -0.000163656 3.07432e-20)
(0.000149643 -0.000152417 2.10531e-19)
(-7.5464e-05 1.83391e-06 1.13212e-20)
(-7.57948e-05 4.84321e-07 -4.7771e-19)
(-6.19318e-05 2.7167e-07 1.06899e-19)
(0.137518 0.0173996 -1.46983e-18)
(0.112621 0.0277994 2.43758e-18)
(0.0114022 0.00863323 5.45438e-19)
(0.0117819 0.0064323 5.20829e-19)
(-0.0408543 0.00908537 -1.80569e-19)
(-0.0420315 0.0147867 -2.62113e-19)
(-0.0444429 0.00941043 -4.54648e-19)
(-0.034562 -0.0134464 -3.74741e-19)
(-0.0379107 -0.0150942 2.66158e-19)
(-0.0376175 -0.00722087 -8.01654e-19)
(-0.000206108 -4.43411e-06 8.05945e-20)