/*--------------------------------*- C++ -*----------------------------------*\
| =========                 |                                                 |
| \\      /  F ield         | OpenFOAM: The Open Source CFD Toolbox           |
|  \\    /   O peration     | Version:  v2012                                 |
|   \\  /    A nd           | Website:  www.openfoam.com                      |
|    \\/     M anipulation  |                                                 |
\*---------------------------------------------------------------------------*/
FoamFile
{
    version     2.0;
    format      ascii;
    class       volScalarField;
    location    "650";
    object      k_0;
}
// * * * * * * * * * * * * * * * * * * * * * * * * * * * * * * * * * * * * * //

dimensions      [0 2 -2 0 0 0 0];


internalField   nonuniform List<scalar> 
10042
(
0.00260675
0.00126209
0.000199354
0.000141813
0.000142144
0.013844
0.0586689
0.0072685
0.000134667
0.000191358
0.00057344
0.000973241
0.000164269
0.00014202
0.000146248
0.00014192
0.0160687
0.000633763
0.000152042
0.000164156
0.000164144
0.00229609
0.000141697
0.00195449
0.000141158
0.000151856
0.000189612
0.000133935
0.0148498
0.00429971
0.000157839
0.000170387
0.000134385
0.000134328
0.00672547
0.00651833
0.00014995
0.00013568
0.000150117
0.000148315
0.00330676
0.000134525
0.000215441
0.000352791
0.000141488
0.000141163
0.000132789
0.000145955
0.000193167
0.0538284
0.000212458
0.000140802
0.0158876
0.000151609
0.0142667
0.0730219
0.000162749
0.000312157
0.000147113
0.000130639
0.000195494
0.0107426
0.000230433
0.00620498
0.000269901
0.000144886
0.000162727
0.00345883
0.000132642
0.00358661
0.000543311
0.000152679
0.000137446
0.000146883
0.000144397
9.88946e-05
0.000227258
0.000132774
0.000227862
0.000152103
0.000377861
0.00261905
0.000169587
0.000140139
0.00017655
0.0081404
0.000161448
0.00019969
0.000142041
0.000225204
0.000157902
0.000146268
0.000228442
0.0185279
0.000165882
0.00014452
0.0702228
0.000162906
0.0019766
0.000146587
0.000157246
0.000309858
0.000148755
0.000165428
0.000153603
0.000147063
0.0648436
0.000143867
0.0598403
0.000147441
0.000146646
0.0522694
0.000257548
0.00588114
0.0002598
0.000132712
0.000234212
0.000155655
0.000280144
0.000132582
0.000130619
0.00179061
0.00122021
0.000141599
0.000229756
0.000143082
0.000143447
0.00793311
0.000219575
0.000154137
0.000135785
0.000142989
0.000146261
0.000143137
0.0529547
0.0102077
0.000163227
0.0219116
0.000149896
0.000416257
0.000192596
0.000138224
0.059153
0.000133985
0.000156524
0.000135736
0.000174236
0.00013254
0.000152417
0.00428559
0.000143336
0.000144846
0.000150537
0.000168611
0.000194643
0.000157186
0.000217367
0.0790217
0.000146328
0.000153983
0.000152909
0.000153267
0.018785
0.000142464
0.000149123
0.00564092
0.000137406
0.000166676
0.00679021
0.000134078
0.000374252
0.00492825
0.00427531
0.000134169
0.000151567
0.00194213
0.000141504
0.000135638
0.000142475
0.000132638
0.00014976
0.000153788
0.000146834
0.000132335
0.00313899
0.000158167
0.000152635
0.000131151
0.034662
0.000146158
0.000206068
0.000162682
0.000135988
0.000153323
0.00297819
0.00014623
0.000277302
0.00149766
0.0583976
0.000140289
0.000238732
0.00020392
0.0104242
0.00013696
0.0017777
0.000145438
0.00177624
0.000167971
0.000146368
0.000143394
0.000168633
0.000135784
0.00998962
0.00934725
0.000151054
0.00306589
0.00013655
0.00829616
0.000143968
0.000233468
0.000816579
0.000382404
0.00144751
0.00327604
0.000141801
0.000205842
0.000150356
0.000161877
0.000178499
0.00014888
0.000135724
0.000144198
0.000158246
0.000162552
0.000141466
0.00729241
0.000160127
0.068248
0.000155506
0.00155372
0.012093
0.00497961
0.00013055
0.000159271
0.026187
0.00014289
0.00448852
0.000155401
0.000150785
0.000146654
0.000153035
0.000136189
0.0142073
0.0303687
0.000151832
0.000159046
0.000149822
0.000152526
0.0704184
0.000141814
0.000236876
0.000136141
0.000140682
0.000132885
0.000165498
0.0345127
0.000240029
0.0141631
0.000163798
0.000144467
0.00014367
0.0481479
0.000140696
0.000409391
0.000151798
0.000280958
0.000148914
0.000141266
0.000164559
0.00307107
0.000133913
0.00652904
0.000287896
0.00014869
0.000161744
0.03311
0.00023034
0.000133271
0.00155814
0.000148327
0.000161404
0.000181282
0.000164517
0.00689466
0.000266662
0.000141637
0.000268715
0.00016165
0.000143756
0.000137104
0.000150392
0.0104403
0.000131182
0.0107292
0.000296515
0.0168212
0.000141862
0.000172284
0.000285301
0.00701912
0.000155301
0.00014248
0.000144262
0.000141625
0.000183223
0.00130712
0.000132902
0.00297443
0.00156706
0.000132601
0.000153453
0.00473303
0.000265823
0.00262844
0.00359369
0.000154172
0.00019221
0.000142353
0.000160384
0.000160282
0.000145403
0.000144873
0.00214698
0.000146626
0.00143557
0.00231394
0.0565728
0.00255544
0.000136403
0.00631851
0.000191425
0.000164408
0.000130581
0.000177184
0.000157781
0.000135602
0.000139709
0.00014351
0.000172369
0.0656467
0.000147548
0.000206788
0.000172171
0.000141488
0.00996943
0.000189289
0.000150378
0.000168698
0.000265074
0.000156691
0.000146641
0.00015106
0.000149108
0.00247145
0.00734227
0.000149294
0.000141222
0.00016617
0.000166643
9.16578e-05
0.000130774
0.000171122
0.000141198
0.000150346
0.00183907
0.000143686
0.000265759
0.0113344
0.0362632
0.000291988
0.000145524
0.0123405
0.000177876
0.000142029
0.000175762
0.000132707
0.000145417
0.00013243
0.000145152
0.000133204
0.000151768
0.0732388
0.00014753
0.000260822
0.00845256
0.0312529
0.000142302
0.00656206
0.000150896
0.000170547
0.000140913
0.00727984
0.000155073
0.0145646
0.0709146
0.000141471
0.00018884
0.000156625
0.0115837
0.000151035
0.00968494
0.000157167
0.00566487
0.000147297
0.00441302
0.000151916
0.000159608
0.0022746
0.00013317
0.000149822
0.000144441
0.0095895
0.000135733
0.000132221
0.00019471
0.000159195
0.000179914
0.0095007
0.00014166
0.00016449
0.000159186
0.000132792
0.000157336
0.00672521
0.000151976
0.000148883
0.0219526
0.000280475
0.000153772
0.0714884
0.000134158
0.000185143
0.000180057
0.0132206
0.0169782
0.00388242
0.00406164
0.0102908
0.0065727
0.000132129
0.000276074
0.000258621
0.000258251
0.000174142
0.000141676
0.000140063
0.000255075
0.0729842
0.000132385
0.000136548
0.000159687
0.000142115
0.000148754
0.000150531
0.000144675
0.000164611
0.00268702
0.000148659
0.000186741
0.000383159
0.0173511
0.0001349
0.0224557
0.0346376
0.00588954
0.000144936
0.000155343
0.000152996
0.0355859
0.000143852
0.00117557
0.000147295
0.000396579
0.000139849
0.000153142
0.000136503
0.000257246
0.00220375
0.000152269
0.000139755
0.00014275
0.000417658
0.000136056
0.000274989
0.000206654
0.000187705
0.000138965
0.000270134
0.00754845
0.060835
0.000145682
0.000158122
0.00573078
0.000429356
0.000170687
0.0105463
0.000147753
0.00214351
0.000168802
0.000163093
0.00015386
0.00226238
0.000138303
0.000141566
0.000147783
0.00787456
0.000141654
0.0122194
0.0001421
0.000145123
0.000135128
0.000159511
0.00885437
0.000148486
0.000148874
0.00140109
0.00127024
0.000180838
0.000148298
0.00014362
0.00237611
0.0650063
0.000145883
0.000133915
0.000200619
0.000144872
0.000144235
0.000232333
0.000135615
0.0264395
0.000141005
0.000182955
0.000207848
0.00368777
0.000141747
0.000156099
0.000145145
0.000136944
0.00176468
0.000130547
0.00779409
0.00017054
0.00013469
0.000184841
0.0542413
0.00433228
0.00015502
0.000146404
0.000133923
0.000132439
0.000145175
0.000242799
0.000147439
0.000286797
0.000144051
0.000135273
0.000701187
0.000153616
0.000261398
0.00015574
0.000139357
0.000901102
0.00201068
0.000195509
0.00326873
0.000143579
0.00015699
0.000134998
0.000134775
0.000143205
0.000142512
0.000146277
0.000146483
0.0184292
0.000147071
0.000320345
0.000140931
0.000185911
0.000132978
0.000185041
0.0108598
0.000134774
0.000141149
0.00328881
0.000348388
0.000133087
0.0336474
0.000141528
0.00152981
0.000135765
0.000151955
0.00013678
0.000276003
0.000133009
0.000142785
0.000144546
0.0283094
0.000153882
0.000143027
0.000146662
0.000216221
0.0001423
0.000141937
0.000137611
0.000142011
0.000154079
0.000141645
0.000176239
0.000135234
0.0704057
0.000330882
0.000956588
0.000150924
0.000152705
0.000143529
0.000220307
0.000150435
0.0018262
0.00995904
0.000485865
0.00124719
0.00382575
0.000143555
0.000145209
0.00982912
0.000212512
0.000184435
0.000191578
0.000146595
0.00196536
0.000140123
0.000145989
0.000135181
0.00013595
0.000152476
0.00971208
0.000148662
0.000150627
0.071653
0.000143373
0.000220909
0.000145085
0.000148476
0.000162717
0.000146116
0.00152532
0.000143061
0.000142156
0.000218311
0.0001454
0.000133035
0.000159095
0.000140742
0.000139403
0.00155003
0.000250192
0.000315434
0.000145726
0.000141603
0.000140567
0.0022185
0.000153428
0.000144172
0.000138835
0.000139326
0.00370996
0.0683662
0.000597828
0.000151123
0.000161268
0.0723739
0.000156813
0.000178501
0.000180349
0.00458519
0.022153
0.00317668
0.000140041
0.000146244
0.000143371
0.00516553
0.000139892
0.000153778
0.000145393
0.000130617
0.000173584
0.000150547
0.000320198
0.000422464
0.000133253
0.000141385
0.00013208
0.00374241
0.000135859
0.0140632
0.000162374
0.0486115
0.00014126
0.000140806
0.000134827
0.00014149
0.000144584
0.000132283
0.000143945
0.000147533
0.000294521
0.000152604
0.0014506
0.000143546
0.000203
0.00409374
0.000153554
0.0865617
0.000140647
0.000144351
0.000159572
0.000148422
0.00399437
0.000145197
0.000150169
0.000135374
0.00962068
0.000140265
0.00477463
0.000166941
0.000141617
0.000512003
0.0055005
0.000143206
0.000137652
0.000191384
0.00017096
0.00821222
0.000230482
0.000225055
0.000213106
0.000145495
0.000145971
0.000144712
0.000166978
0.000169483
0.00255041
0.0267351
0.000130629
0.000145735
0.000149284
0.000180104
0.000171086
0.0157008
0.000146653
0.000146281
0.00986741
0.000140964
0.000188278
0.000163776
0.000162702
0.00375996
0.000177349
0.00014247
0.000152639
0.000174928
0.000142539
0.0233901
0.000147301
0.000174543
0.000154223
0.000354406
0.000150844
0.000160924
0.000173492
0.000147775
0.00016597
0.000134095
0.000170084
0.000143264
0.000147092
0.000141485
0.00014403
0.000150148
0.000172014
0.000154885
0.000146115
0.00386422
0.000134251
0.000141281
0.000140997
0.000132241
0.000810005
0.000172132
0.000154173
0.000383096
0.00402427
0.000144488
0.000248736
0.00888757
0.000139091
0.000144462
0.000132089
0.00565219
0.00417388
0.000153122
0.000140444
0.000177959
0.063284
0.0673412
0.000155243
0.00428381
0.00964002
0.00157264
0.000173375
0.000132638
0.000148827
0.000654018
0.000212013
0.000147076
0.0441176
0.000244597
0.00348221
0.00468708
0.000145456
0.000223157
0.0094859
0.000233273
0.0325854
0.00016661
0.0374367
0.00015342
0.00295473
0.000145362
0.000311115
0.000155915
0.000184527
0.000131267
0.000146381
0.000141321
0.0413045
0.000144571
0.000130732
0.000525871
0.000144564
0.000156453
0.000157515
0.00256212
0.00014468
0.000149256
0.000147394
0.000146569
0.000143196
0.000154874
0.000139519
0.00718594
0.000238802
0.000206467
0.000144933
0.000298758
0.000139177
0.000188293
0.00379768
0.000186406
0.000143611
0.000132649
0.000146505
0.000150828
0.00465936
0.000186329
0.000140786
0.000353956
0.000143259
0.000145906
0.00148248
0.000132324
0.000146075
0.000261612
0.000139995
0.000229512
0.000149868
0.000203099
0.000156622
0.000182706
0.000185366
0.000144444
0.0854873
0.0803956
0.000141045
0.000168615
0.000185675
0.0108986
0.0514811
0.000155595
0.000138698
0.00017849
0.000146651
0.000163534
0.00321398
0.000152685
0.000132434
0.00016394
0.00596131
0.00409366
0.00013255
0.000132085
0.000152222
0.000146843
0.0151356
0.000972857
0.000136855
0.000154335
0.000331103
0.000145028
0.000156678
0.0520153
0.000154898
0.00423858
0.000153347
0.000146116
0.000145904
0.000165741
0.000211642
0.000226329
0.000143966
0.00134713
0.00703179
0.000285463
0.000152573
0.000154156
0.0393529
0.000166779
0.0057979
0.000161389
0.000145146
0.000142317
0.000308357
0.00736453
0.0001499
0.000153793
0.000170447
0.000144125
0.000195708
0.000149975
0.000143763
0.000152592
0.000165362
0.000142336
0.00014137
0.0254757
0.000140211
0.00013846
0.000180338
0.00015501
0.000452057
0.000156338
0.000149964
0.000297618
0.000177031
0.000156863
0.000164629
0.00228867
0.0001409
0.000134658
0.000154986
0.000212935
0.000140302
0.000150402
0.00014229
0.000141434
0.00014134
0.00886682
0.000145217
0.0128443
0.000145646
0.000177522
0.00013959
0.000146944
0.000141678
0.00679351
0.0432028
0.000143794
0.00015638
0.000335732
0.000909318
0.000184728
0.000148485
0.00223883
0.000141066
0.00022525
0.000199008
0.000147496
0.000150463
0.000140977
0.000210582
0.0562986
0.0133212
0.000145624
0.000151304
0.000155655
0.000689942
0.00013941
0.000137453
0.000171173
0.00013142
0.000138693
0.0041495
0.000150642
0.0411628
0.000135899
0.000137697
0.000135421
0.000174925
0.000152857
0.000154071
0.0426908
0.000138904
0.000148127
0.0419635
0.000144526
0.000203461
0.000157781
0.000229032
0.000221163
0.000158321
0.00621453
0.0001643
0.000145906
0.000286395
0.000148231
0.000142989
0.000132756
0.000140768
0.000171079
0.000330674
0.00017944
0.00686124
0.00518551
0.00274222
0.000199193
0.000442844
0.000152095
0.00407336
0.000133996
0.000157672
0.000145867
0.000147581
0.000150257
0.0898014
0.0071679
0.000143893
0.00112924
0.000138179
0.0364509
0.00014532
0.000152817
0.000158316
0.000504181
0.000903302
0.000142345
0.000133248
0.0696443
0.000205582
0.000244078
0.000209957
0.0015614
0.000152644
0.00482662
0.0117612
0.000139238
0.000138353
0.000141001
0.000155465
0.000144146
0.000149254
0.000151676
0.000151669
0.000152981
0.000149189
0.000147914
0.00415917
0.00511874
0.00013357
0.00134658
0.000150442
0.000170591
0.000186108
0.00020604
0.000139298
0.000176333
0.000190818
0.000136192
0.000173738
0.00107532
0.00014657
0.000138536
0.000154306
0.00420492
0.00596686
0.000136234
0.00673118
0.000146329
0.000146829
0.0707539
0.00014035
0.00014415
0.000138354
0.000146942
0.00016008
0.00334739
0.000170608
0.000143341
0.000143133
0.000144885
0.000141701
0.00643634
0.00013315
0.000172323
0.0340422
0.000812159
0.000137903
0.00761881
0.000138909
0.000833387
0.000152563
0.000205538
0.000133916
0.00217757
0.0543115
0.0487489
0.000144798
0.000274674
0.00119414
0.00151913
0.000152211
0.00140222
0.000143544
0.00215695
0.00344425
0.000181795
0.000260262
0.00269869
0.00582649
0.017142
0.000970661
0.0030067
0.000138189
0.00015554
0.00165709
0.000201883
0.000143044
0.00353055
0.000148458
0.000139796
0.000139585
0.000239766
0.000197795
0.000174714
0.000229822
0.000161438
0.00172364
0.000148984
0.000141207
0.000146554
0.00610712
0.00289941
0.000161405
0.00692093
0.000149234
0.000152553
0.000162364
0.00282368
0.000175415
0.00014001
0.000229396
0.000229103
0.000151991
0.000209373
0.00013678
0.000163928
0.000219541
0.000139819
0.000449203
0.00383289
0.000142931
0.000148915
0.000140372
0.00402502
0.000156717
0.000327376
0.0030693
0.000140789
0.000143281
0.000133678
0.000164673
0.000138707
0.000226571
0.000169911
0.000190124
0.0044569
0.000150879
0.000157113
0.00275821
0.000152674
0.000188946
0.000152237
0.000144867
0.066207
0.00737276
0.000151004
0.000252143
0.000173753
0.00272872
0.000140471
0.000144878
0.000187431
0.000155763
0.000180527
0.00423458
0.000154947
0.000155148
0.00417264
0.00018591
0.000153664
0.00735464
0.000767925
0.00145467
0.000140491
0.000132862
0.00108311
0.000140242
0.0348394
0.0033203
0.000180298
0.00282025
0.000149828
0.000146325
0.0454138
0.00493788
0.00014299
0.00492029
0.00017036
0.000142611
0.000192548
0.000148931
0.000147716
0.000172409
0.000153979
0.000141218
0.000151199
0.000140885
0.000154932
0.0016776
0.000161358
0.00215755
0.000144131
0.000156552
0.000140442
0.000143032
0.00720021
0.000145396
0.000882753
0.000539482
0.000149462
0.00563676
0.0001639
0.00424064
0.000132203
0.000737941
0.000208797
0.00020498
0.000152598
0.000153197
0.000139618
0.00068612
0.000153754
0.00413855
0.000165203
0.000136665
0.00393822
0.000131893
0.0528133
0.000140834
0.000683639
0.000145529
0.000137746
0.000134792
0.00389422
0.000139541
0.00013688
0.000134185
0.000140371
0.000143514
0.000197025
0.00448731
0.00014066
0.000154941
0.000146263
0.00014071
0.00013895
0.00208132
0.0589005
0.000154351
0.000145175
0.000139071
0.000135168
0.00015514
0.00015379
0.000134463
0.00318278
0.000861484
0.00401581
0.000139346
0.000140516
0.000143137
0.000150781
0.000138332
0.000149229
0.000143537
0.000139806
0.000203495
0.000153064
0.000254094
0.0259039
0.0708012
0.000150685
0.000140698
0.000143799
0.0112511
0.000145685
0.000158023
0.000170083
0.000137289
0.000144649
0.000141426
0.000665577
0.000144495
0.00511031
0.0054503
0.000178688
0.000143897
0.000154347
0.00656843
0.000151973
0.000165865
0.00015762
0.000166902
0.000137195
0.000154946
0.0285085
0.00267856
0.000138889
0.000145341
0.0429086
0.000153245
0.000176327
0.000171248
0.00197228
0.000143488
0.000154384
0.00310314
0.0410134
0.000185169
0.000141
0.000142719
0.000139185
0.000146144
0.000200269
0.00335442
0.000324499
0.000138207
0.00703355
0.000156575
0.000795717
0.00187482
0.000141351
0.0261146
0.000206273
0.000139252
0.00019793
0.000162293
0.000148691
0.00177856
0.00013963
0.0682197
0.00017889
0.0714869
0.0670932
0.000172697
0.000145051
0.000154869
0.000149247
0.000140281
0.000135713
0.000136141
0.0592714
0.000147983
0.000167453
0.0015813
0.0745096
0.000167473
0.000223746
0.000138634
0.0715796
0.000132647
0.00163046
0.000240684
0.0717132
0.000251617
0.00601228
0.000525628
0.000134065
0.000147986
0.000134827
0.00014557
0.000153619
0.000299171
0.000153244
0.00257316
0.000155793
0.000137496
0.000139061
0.000145622
0.000134042
0.0016097
0.000286732
0.0630046
0.000139292
0.000171125
0.000151965
0.000154608
0.000210575
0.000144321
0.00370458
0.00402474
0.000148996
0.000152078
0.00151591
0.000155784
0.00114181
0.00680967
0.000147962
0.00293204
0.00015469
0.0348219
0.000140574
0.000249084
0.000143719
0.00262694
0.000214165
0.0338698
0.0069173
0.0138039
0.000213765
0.000229705
0.000147878
0.00015302
0.00665168
0.00272078
0.000218269
0.000156392
0.0024041
0.00377618
0.00627981
0.000168627
9.7333e-05
0.000162538
0.000163005
0.000263765
0.000155409
0.000160896
0.000170328
0.000133175
0.000137128
0.000140656
0.00014379
0.0585559
0.000148188
0.00225528
0.000199823
0.000172967
0.00104447
0.00289974
0.000138036
0.000147537
0.0014723
0.000248338
0.000167624
0.00503392
0.0737488
0.00335907
0.000139976
0.00016149
0.000154856
0.000200414
0.000198825
0.00541694
0.00709651
0.000181314
0.000147565
0.000152056
0.0536262
0.000182432
0.000176931
0.00412694
0.000140613
0.00017034
0.000150427
0.00694719
0.000151145
0.000136375
0.000140165
0.000150133
0.043993
0.00425715
0.000147088
0.000195282
0.00315245
0.00015366
0.00236503
0.000170724
0.000161236
0.000168579
0.000163404
0.0423897
0.000141555
0.000139699
0.000152661
0.0335997
0.000210068
0.000163308
0.000148687
0.000150417
0.000146842
0.000285522
0.000166118
0.000151107
0.000146618
0.000414738
0.000157786
0.00744716
0.000150349
0.00015949
0.00014119
0.000729515
0.000716513
0.000178717
0.0458862
0.000143483
0.000165657
0.00413358
0.000158712
0.00539716
0.055024
0.000146347
0.000150082
0.0695439
0.000143336
0.0377348
0.000146578
0.035292
0.00458429
0.00318416
0.000150835
0.000140829
0.000141971
0.000143678
0.000152923
0.000132556
0.000148981
0.000140602
0.00013904
0.000151594
0.000152426
0.000149939
0.000151149
0.0589521
0.000145297
0.037661
0.00014799
0.000145164
0.0550259
0.00014148
0.0409381
0.000432653
0.000146923
0.000149025
0.000168421
0.00328426
0.0001709
0.0475323
0.000158248
0.000157536
0.045613
0.000138591
0.0117894
0.000146067
0.000426548
0.000134065
0.0726194
0.0547426
0.00172108
0.000147343
0.000152001
0.000139313
0.000151098
0.000212967
0.000141827
0.000143447
0.00017252
0.000168071
0.00030972
0.00394987
0.00014823
0.000170719
0.000144425
0.000156423
0.000149209
0.000143416
0.000148471
0.0679177
0.0734144
0.000215618
0.000151348
0.000148549
0.000149821
0.000212269
0.0652757
0.000190323
0.00345543
0.00476118
0.000150134
0.000151555
0.000201601
0.000139654
0.000151613
0.000179596
0.000149812
0.000746935
0.00015008
0.00343312
0.000142684
0.000148813
0.000202047
0.000150427
0.000151694
0.000155059
0.000157181
0.00495435
0.00015817
0.000153248
0.000148344
0.0564535
0.00467131
0.000152513
0.000149729
0.000138764
0.000153453
0.000143971
0.000269522
0.000140273
0.000145442
0.00014544
0.000179071
0.000160316
0.000148185
0.04782
0.000147778
0.000149021
0.00457266
0.000151351
0.000152543
0.000349338
0.000148589
0.00450975
0.000139886
0.000138857
0.000148476
0.000180687
0.000136992
0.00493924
0.000148555
0.000141393
0.00216799
0.00721864
0.0719862
0.00430627
0.00288834
0.000156849
0.000137905
0.000151121
0.00641731
0.000157215
0.00731667
0.000149679
0.000162423
0.000249694
0.00028428
0.000138607
0.00138008
0.000410004
0.000140616
0.00015686
0.000148332
0.000148766
0.00189263
0.000223274
0.000145586
0.000139703
0.000133914
0.0017382
0.000146857
0.00413249
0.000165247
0.000146619
0.000140449
0.000141457
0.00605643
0.000298475
0.000139984
0.00908446
0.00026823
0.000148795
0.00658822
0.000146361
0.000138019
0.000138618
0.000146634
0.00013769
0.000144548
0.000148089
0.000150392
0.000147357
0.000195672
0.000151147
0.000663408
0.000160533
0.000143379
0.0379467
0.000133925
0.000143846
0.000194383
0.000140418
0.016003
0.000141237
0.000191044
0.00111284
0.000138245
0.048511
0.0047145
0.00014597
0.00014817
0.000143701
0.000465412
0.00014609
0.00154
0.00382262
0.000151913
0.000156386
0.000171734
0.000218949
0.000145107
0.00294127
0.000146839
0.00139922
0.0597116
0.00018964
0.00271542
0.000146201
0.000221565
0.00517103
4.9263e-05
0.00014554
0.000181263
0.000150605
0.000176525
0.000137112
0.000156817
0.0281254
0.000155699
0.000305817
0.00197961
0.000171026
0.00101508
0.000137678
0.000227905
0.000145665
0.000154995
0.000241959
0.00242797
0.000974746
0.000165295
0.000154335
0.023484
0.000170959
0.000140719
0.000139144
0.000149025
0.000153274
0.000153814
0.000141603
0.0425283
0.000155532
0.000143161
0.000136871
0.000143046
0.000142679
0.0454971
0.000139382
0.000235903
0.000153811
0.0473582
0.000149926
0.00014525
0.000131931
0.000193103
0.000147344
0.00013194
0.0329089
0.00458144
0.000156524
0.000148452
0.000143781
0.000140345
0.000140907
0.00657231
0.00015027
0.000148566
0.00803098
0.000145267
0.000149662
0.000318519
0.0197823
0.0194344
0.00014981
0.0277113
0.00212344
0.000141111
0.000139029
0.000172065
0.0404953
0.000345695
0.00581492
0.0145511
0.000144428
0.000139218
0.000392768
0.000160248
0.000148317
0.000200305
0.000148028
0.000150807
0.00563243
0.000604303
0.000193275
0.00015569
0.000160754
0.000197157
0.000270446
0.000145798
0.000140235
0.000144249
0.000380522
0.000139976
0.000153215
0.000260437
0.000875185
0.000137341
0.000141324
0.000132156
0.000146657
0.000145192
0.000175532
0.00804762
0.000148969
0.051422
0.00552049
0.000483794
0.000169176
0.000151279
0.000146247
0.0001422
0.000139524
0.000135868
0.000147029
0.000337102
0.000286597
0.000143373
0.000137778
0.00014965
0.000148843
0.0477914
0.000176007
0.000274409
0.00260638
0.000810993
0.000198226
0.00014289
0.000142534
0.000142533
0.000148471
0.0388804
0.000144078
0.000152691
0.0512043
0.000240664
0.00741906
0.0501532
0.068114
0.00432252
0.000143402
0.00017299
0.0450491
0.0223998
0.000145791
0.000149074
0.000143996
0.000146107
0.000146581
0.049409
0.000141803
0.000142744
0.00609773
0.000152239
0.0201849
0.000142846
0.000138275
0.000173137
0.0469673
0.000216169
0.00782575
0.000164294
0.0484866
0.000166074
0.000140715
0.000230374
0.000141545
0.000151765
0.000146962
0.000138094
0.00581138
0.0337785
0.0123949
0.000506148
0.0029734
0.00390426
0.00558543
0.000140103
0.000149134
0.00952222
0.000143329
0.000147704
0.000152657
0.000145293
0.0468408
0.000146325
0.000228999
0.000312228
0.000133954
0.00594904
0.00015086
0.000141952
0.000164197
0.000163397
0.000165862
0.000168815
0.000169997
0.0154912
0.000148553
0.00014288
0.000140717
0.000169462
0.00229658
0.000140197
0.000151125
0.000229614
0.0430356
0.000141211
0.000171078
0.000171379
0.000139326
0.000144528
0.000143877
0.0327855
0.0667357
0.000171255
0.000149521
0.000143618
0.00017098
0.000220223
0.000147876
0.000221632
0.0130637
0.000145834
0.000171097
0.025969
0.029046
0.000169422
0.00013485
0.000139522
0.000264616
0.000193674
0.0251218
0.000155629
0.0241445
0.000203488
0.00024942
0.00527579
0.00118468
0.00173422
0.000273261
0.00723618
0.0352455
0.000148031
0.00733424
0.000146617
0.00123115
0.000150108
0.000149449
0.000171015
0.0246301
0.00437479
0.000152315
0.000147173
0.000214084
0.0184042
0.0163844
0.000139134
0.000142699
0.000143906
0.000156523
0.000150614
0.000167606
0.000257595
0.00576559
0.000155201
0.000142536
0.000231657
0.000147663
0.000144665
0.00362228
0.000144228
0.000152222
0.000136493
0.0165635
0.00018397
0.00742557
0.000149038
0.000215445
0.00508264
0.000162534
0.00412148
0.0740648
0.00135207
0.000282233
0.000141061
0.000146276
0.000204686
0.000145331
0.000148455
0.000142255
0.00014965
0.00016892
0.000184644
0.000140872
0.000385957
0.000149537
0.00363419
0.000151921
0.000315508
0.0166352
0.000193648
0.0523005
0.000386752
0.000209275
0.000461077
0.0700613
0.000148743
0.000146322
0.000201406
0.000168733
0.0106362
0.000140792
0.000147917
0.00878538
0.000143237
0.000139366
0.000150288
0.000135941
0.00905115
0.000146999
0.00016167
0.000147738
0.0645869
0.000142707
0.0728201
0.00415022
0.0141657
0.000281382
0.000134478
0.000170644
0.00014915
0.000144289
0.0330041
0.000207457
0.00716107
0.00444044
0.000135075
0.000153419
0.000154907
0.000145603
0.00292838
0.00014057
0.000159055
0.0289704
0.00499756
0.000205704
0.000142748
0.000149717
0.00033704
0.000193702
0.000461243
0.0129779
0.0332394
0.0225595
0.000153119
0.000142053
0.000140455
0.000149649
0.000453665
0.000152065
0.00143806
0.000144236
0.000148614
0.00528594
0.000137086
0.00194363
0.000166689
0.000147999
0.000170958
0.00710507
0.000138835
0.000156227
0.000379235
0.000146153
0.00014666
0.000170379
0.00417786
0.00015321
0.000203067
0.000137185
0.0224303
0.00267193
0.000380533
0.000146322
0.000138846
0.000173616
0.000147327
0.000304698
0.000244217
0.00553094
0.00870734
0.000143456
0.000448291
0.000140962
0.00199306
0.000145849
0.00602395
0.0035555
0.000145591
0.0211163
0.000143281
0.0708903
0.00016676
0.000136902
0.000229973
0.00014032
0.00014034
0.000138311
0.000132895
0.000185689
8.60166e-05
0.000146671
0.000138013
0.000205404
0.000134496
0.000150349
0.000148965
0.000142049
0.000144953
0.000277826
0.000181506
0.000134396
0.000149813
0.000149891
0.000144869
0.00550553
0.000249155
0.000145351
0.000140818
0.00014763
0.000338308
0.000145901
0.000150743
0.000150144
0.000172647
0.00013483
0.000151988
0.00389451
0.000147036
0.000236079
0.000142791
0.000144931
0.000141072
0.0001419
0.000138698
0.000144214
0.0186994
0.00523501
0.000138192
0.000152113
0.000160131
0.00938055
0.00017111
0.000188725
0.000143698
0.00014866
0.000237109
0.000154221
0.00621014
0.000220568
0.000141457
0.000144958
0.0918781
0.000148233
0.000360593
0.0283617
0.000141337
0.000243068
0.000323237
0.00565734
0.000257792
0.000232132
0.000171527
0.0001409
0.000364146
0.000146557
0.000159033
0.000176245
0.000136285
0.000143464
0.00272494
0.00013907
9.99017e-05
0.0372356
0.000148258
0.000145634
0.0866519
0.000142572
0.000243288
0.000136652
0.000233844
0.000384227
0.00498613
0.000142716
0.000140143
0.00014875
2.75292e-05
0.00612513
0.00428362
0.000581492
0.000191174
0.000144038
0.000247575
0.0404666
0.000143644
0.000136517
0.000170608
0.000141155
0.071441
0.000200631
0.000137722
0.000228613
0.000140022
0.000140052
0.000136526
0.000143771
0.000143228
0.00179733
0.000142214
8.19975e-05
0.000140411
0.000148336
0.000149728
0.000149548
0.000141987
0.00014367
0.000213277
0.000138564
0.000209148
0.00849425
0.000218681
0.000169054
0.000202473
0.000182421
0.000142998
0.000134336
0.000142765
0.000134783
0.0355596
0.00403187
0.000153907
0.000150908
0.00835299
0.000152023
0.00328856
0.000150654
0.000141139
0.00014731
0.000310809
0.00902157
0.0484835
0.0801578
0.000171303
0.000165208
0.000126114
0.000144056
0.000141525
0.000139085
0.000159458
0.000161118
0.0273702
0.0727212
0.00016329
0.000140245
0.000182211
0.000142124
0.000300096
0.000144748
0.00200836
0.000148698
0.00405614
0.000163616
0.000147995
0.00017127
0.00250235
0.000169905
0.000270574
0.000141224
0.000139115
0.000145005
0.000143965
0.000104971
0.000137974
0.000149137
0.000166979
0.000134611
0.00776849
0.000868906
0.000193704
0.000144873
0.000147741
0.0119553
0.00143884
0.000141352
0.000142874
0.0498503
0.000142996
0.000144305
0.00304392
0.000169593
0.0048429
0.00411829
0.0026583
0.000165985
0.000141269
0.000145114
0.000158092
0.000141242
0.000140877
0.00472219
0.0494977
0.000146289
0.000142133
0.000140336
0.000149494
0.077972
0.000141934
0.000149271
0.000145312
0.000136762
0.000141071
0.0034045
0.000159622
0.000140567
0.000136488
0.000147772
0.000138822
0.000173486
0.00305383
0.000209216
0.000139975
0.000142647
0.000144677
0.000141579
0.00745532
0.000143702
0.00459266
0.00831818
0.000141311
0.000138704
0.00716123
0.000138716
0.000140745
0.000140549
0.000337458
0.000170024
0.000201463
0.000140788
0.000134069
0.00014509
0.00458683
0.000141819
0.000148377
0.000170887
0.006928
0.000116205
0.000133523
0.00132981
0.000130836
0.0089781
0.000140515
0.000136983
0.000138884
0.000145912
0.000143257
0.000593702
0.000208642
0.00558199
0.000184331
0.000178782
0.0154557
0.000144212
0.00141291
0.000343164
0.000154982
0.00241541
0.000196456
0.000228321
0.000142437
0.00414347
0.000146096
0.000139284
0.000149386
0.000147897
0.0016566
0.000153775
0.00322816
0.0722237
0.00566892
0.000143153
0.000152722
0.000170448
0.000515038
0.0103022
0.000179826
0.000146036
0.000166612
0.0069808
0.000140194
0.000341196
0.000150527
0.0115024
0.000138386
0.000137267
0.000160932
0.000158902
0.0671662
0.00128832
0.00833097
0.000140434
0.000143623
0.0081026
0.00934943
0.0125073
0.000139595
0.000155361
0.00013891
0.000140829
0.000141078
0.00619009
0.00689469
0.00958488
0.00746244
0.0158968
0.000182761
0.000140338
0.000146287
0.000148194
0.000138481
0.00016971
0.000141664
0.000144883
0.000144014
0.000140195
0.000160553
0.0120383
0.000148946
0.000140256
0.000140999
0.000362761
0.000193227
0.000151619
0.000178916
0.00361197
0.00277768
0.000141913
0.000158948
0.00695691