/*--------------------------------*- C++ -*----------------------------------*\
| =========                 |                                                 |
| \\      /  F ield         | OpenFOAM: The Open Source CFD Toolbox           |
|  \\    /   O peration     | Version:  v2012                                 |
|   \\  /    A nd           | Website:  www.openfoam.com                      |
|    \\/     M anipulation  |                                                 |
\*---------------------------------------------------------------------------*/
FoamFile
{
    version     2.0;
    format      ascii;
    class       volVectorField;
    location    "1000";
    object      cellDisplacement;
}
// * * * * * * * * * * * * * * * * * * * * * * * * * * * * * * * * * * * * * //

dimensions      [0 1 0 0 0 0 0];


internalField   nonuniform List<vector> 
10042
(
(0 -0.0200203 0)
(0 -0.0146651 0)
(0 -0.0227364 0)
(0 -0.000666426 0)
(0 -0.0259866 0)
(0 -0.0133184 0)
(0 -0.0259016 0)
(0 -0.0259242 0)
(0 -0.0218003 0)
(0 -0.0111841 0)
(0 -0.0259899 0)
(0 -0.00124526 0)
(0 -0.00906834 0)
(0 -0.00558312 0)
(0 -0.0252919 0)
(0 -0.0142217 0)
(0 -0.0146247 0)
(0 -0.00133111 0)
(0 -0.0198006 0)
(0 -0.0259803 0)
(0 -0.01165 0)
(0 -0.0258284 0)
(0 -0.00297756 0)
(0 -0.0118571 0)
(0 -0.0142909 0)
(0 -0.0252173 0)
(0 -0.011221 0)
(0 -0.024885 0)
(0 -0.0221362 0)
(0 -0.0245907 0)
(0 -0.0164592 0)
(0 -0.0259899 0)
(0 -0.0107222 0)
(0 -0.0243002 0)
(0 -0.0252467 0)
(0 -0.0117618 0)
(0 -0.0251857 0)
(0 -0.0252437 0)
(0 -0.0111784 0)
(0 -0.0256934 0)
(0 -0.0259814 0)
(0 -0.0251799 0)
(0 -0.0258946 0)
(0 -0.0238212 0)
(0 -0.0259868 0)
(0 -0.0256111 0)
(0 -0.0246465 0)
(0 -0.0256232 0)
(0 -0.0251875 0)
(0 -0.0252371 0)
(0 -0.0016761 0)
(0 -0.0227677 0)
(0 -0.0251483 0)
(0 -0.02355 0)
(0 -0.0251993 0)
(0 -0.0135406 0)
(0 -0.0222106 0)
(0 -0.024578 0)
(0 -0.0242318 0)
(0 -0.025117 0)
(0 -0.015395 0)
(0 -0.0170109 0)
(0 -0.025292 0)
(0 -0.0226364 0)
(0 -0.0245613 0)
(0 -0.0242087 0)
(0 -0.0240196 0)
(0 -0.0259684 0)
(0 -0.0259892 0)
(0 -0.0228959 0)
(0 -0.0234915 0)
(0 -0.025983 0)
(0 -0.0238564 0)
(0 -0.0258388 0)
(0 -0.0238511 0)
(0 -0.0123758 0)
(0 -0.0259871 0)
(0 -0.0195247 0)
(0 -0.0257878 0)
(0 -0.0259181 0)
(0 -0.0251433 0)
(0 -0.025986 0)
(0 -0.0237383 0)
(0 -0.0250213 0)
(0 -0.0240019 0)
(0 -0.00483316 0)
(0 -0.0203946 0)
(0 -0.0259643 0)
(0 -0.023358 0)
(0 -0.0203267 0)
(0 -0.02386 0)
(0 -0.0259861 0)
(0 -0.0249343 0)
(0 -0.0226592 0)
(0 -0.024529 0)
(0 -0.0229808 0)
(0 -0.0179129 0)
(0 -0.0228113 0)
(0 -0.025669 0)
(0 -0.0222325 0)
(0 -0.000264951 0)
(0 -0.0259432 0)
(0 -0.0259134 0)
(0 -0.00513098 0)
(0 -0.02483 0)
(0 -0.0259049 0)
(0 -0.0205918 0)
(0 -0.0181314 0)
(0 -0.0111669 0)
(0 -0.0160469 0)
(0 -0.00392583 0)
(0 -0.0217171 0)
(0 -0.0253789 0)
(0 -0.0259894 0)
(0 -0.0244986 0)
(0 -0.0214457 0)
(0 -0.0203862 0)
(0 -0.0197596 0)
(0 -0.02289 0)
(0 -0.0259896 0)
(0 -0.02326 0)
(0 -0.025918 0)
(0 -0.0239354 0)
(0 -0.0186414 0)
(0 -0.0259385 0)
(0 -0.0238 0)
(0 -0.0259261 0)
(0 -0.0253494 0)
(0 -0.0258987 0)
(0 -0.0204831 0)
(0 -0.0258049 0)
(0 -0.0238343 0)
(0 -0.0259898 0)
(0 -0.0259106 0)
(0 -0.0221765 0)
(0 -0.0258908 0)
(0 -0.0259898 0)
(0 -0.0239445 0)
(0 -0.0256484 0)
(0 -0.0259678 0)
(0 -0.0249446 0)
(0 -0.0205813 0)
(0 -0.0247544 0)
(0 -0.0259471 0)
(0 -0.0220741 0)
(0 -0.0215803 0)
(0 -0.0258674 0)
(0 -0.0190182 0)
(0 -0.0229589 0)
(0 -0.0254272 0)
(0 -0.0220041 0)
(0 -0.00056678 0)
(0 -0.0259515 0)
(0 -0.0259897 0)
(0 -0.00795488 0)
(0 -0.00839912 0)
(0 -0.0249613 0)
(0 -0.0173094 0)
(0 -0.0258993 0)
(0 -0.0259898 0)
(0 -0.0259899 0)
(0 -0.0258914 0)
(0 -0.0178117 0)
(0 -0.0220039 0)
(0 -0.0239365 0)
(0 -0.0237203 0)
(0 -0.0259448 0)
(0 -0.0259898 0)
(0 -0.0259899 0)
(0 -0.0259896 0)
(0 -0.0233618 0)
(0 -0.0178133 0)
(0 -0.0259854 0)
(0 -0.025983 0)
(0 -0.0258844 0)
(0 -0.02583 0)
(0 -0.0259898 0)
(0 -0.0238848 0)
(0 -0.0259721 0)
(0 -0.0256485 0)
(0 -0.0250311 0)
(0 -0.0259899 0)
(0 -0.0241543 0)
(0 -0.0253408 0)
(0 -0.0251343 0)
(0 -0.0259896 0)
(0 -0.0259378 0)
(0 -0.0238861 0)
(0 -0.0259899 0)
(0 -0.0248387 0)
(0 -0.0259895 0)
(0 -0.0247805 0)
(0 -0.0259472 0)
(0 -0.0259845 0)
(0 -0.0258217 0)
(0 -0.0259809 0)
(0 -0.0249488 0)
(0 -0.0199509 0)
(0 -0.00761284 0)
(0 -0.0250086 0)
(0 -0.0258818 0)
(0 -0.0239456 0)
(0 -0.0216082 0)
(0 -0.0259832 0)
(0 -0.0241445 0)
(0 -0.0191618 0)
(0 -0.0259896 0)
(0 -0.009732 0)
(0 -0.00153468 0)
(0 -0.00410414 0)
(0 -0.0259792 0)
(0 -0.00239673 0)
(0 -0.0259395 0)
(0 -0.0259828 0)
(0 -0.024916 0)
(0 -0.025943 0)
(0 -0.0234896 0)
(0 -0.0150205 0)
(0 -0.0258736 0)
(0 -0.0189369 0)
(0 -0.0253952 0)
(0 -0.0250356 0)
(0 -0.0259819 0)
(0 -0.0252738 0)
(0 -0.0255546 0)
(0 -0.0252399 0)
(0 -0.0259259 0)
(0 -0.0215016 0)
(0 -0.0259256 0)
(0 -0.023577 0)
(0 -0.021816 0)
(0 -0.0259802 0)
(0 -0.0176287 0)
(0 -0.0235288 0)
(0 -0.0228628 0)
(0 -0.0254499 0)
(0 -0.0195899 0)
(0 -0.00482416 0)
(0 -0.0243886 0)
(0 -0.0243434 0)
(0 -0.0177715 0)
(0 -0.0239738 0)
(0 -0.0238178 0)
(0 -0.0254127 0)
(0 -0.0212325 0)
(0 -0.0162692 0)
(0 -0.0037666 0)
(0 -0.0248855 0)
(0 -0.0234315 0)
(0 -0.00103513 0)
(0 -0.00549338 0)
(0 -0.0227337 0)
(0 -0.0253563 0)
(0 -0.0259833 0)
(0 -0.0258954 0)
(0 -0.0259899 0)
(0 -0.0258947 0)
(0 -0.0258731 0)
(0 -0.0253344 0)
(0 -0.0256585 0)
(0 -0.0258566 0)
(0 -0.0243081 0)
(0 -0.0204109 0)
(0 -0.00470296 0)
(0 -0.0249789 0)
(0 -0.0193219 0)
(0 -0.0258314 0)
(0 -0.0240275 0)
(0 -0.0205366 0)
(0 -0.00355414 0)
(0 -0.0258911 0)
(0 -0.0235224 0)
(0 -0.0259817 0)
(0 -0.0258836 0)
(0 -0.025964 0)
(0 -0.0248948 0)
(0 -0.0243112 0)
(0 -0.0189818 0)
(0 -0.0246764 0)
(0 -0.0222191 0)
(0 -0.0256724 0)
(0 -0.0229858 0)
(0 -0.0252311 0)
(0 -0.0259898 0)
(0 -0.0189391 0)
(0 -0.0225865 0)
(0 -0.0258637 0)
(0 -0.0256375 0)
(0 -0.0237772 0)
(0 -0.0155625 0)
(0 -0.0253081 0)
(0 -0.0258174 0)
(0 -0.0257659 0)
(0 -0.0259491 0)
(0 -0.00141576 0)
(0 -0.00695615 0)
(0 -0.0216322 0)
(0 -0.0219616 0)
(0 -0.0259219 0)
(0 -0.0219587 0)
(0 -0.0155472 0)
(0 -0.0185971 0)
(0 -0.0234597 0)
(0 -0.0252003 0)
(0 -0.0253327 0)
(0 -0.0259385 0)
(0 -0.0259848 0)
(0 -0.0250486 0)
(0 -0.0259706 0)
(0 -0.0208692 0)
(0 -0.0246281 0)
(0 -0.0118403 0)
(0 -0.0259899 0)
(0 -0.0259348 0)
(0 -0.0259831 0)
(0 -0.0259898 0)
(0 -0.0129953 0)
(0 -0.024045 0)
(0 -0.0230085 0)
(0 -0.0253392 0)
(0 -0.0252546 0)
(0 -0.00303134 0)
(0 -0.0257087 0)
(0 -0.00404149 0)
(0 -0.00392024 0)
(0 -0.023923 0)
(0 -0.0259441 0)
(0 -0.00107238 0)
(0 -0.0247702 0)
(0 -0.0235785 0)
(0 -0.0252913 0)
(0 -0.0259896 0)
(0 -0.0210944 0)
(0 -0.00866514 0)
(0 -0.00469214 0)
(0 -0.022483 0)
(0 -0.0258281 0)
(0 -0.0258216 0)
(0 -0.0258721 0)
(0 -0.0259656 0)
(0 -0.0252261 0)
(0 -0.0252963 0)
(0 -0.0236977 0)
(0 -0.00562488 0)
(0 -0.0239332 0)
(0 -0.00111408 0)
(0 -0.0259554 0)
(0 -0.0230373 0)
(0 -0.0242709 0)
(0 -0.0255414 0)
(0 -0.0217323 0)
(0 -0.0254002 0)
(0 -0.0250741 0)
(0 -0.0255676 0)
(0 -0.0224868 0)
(0 -0.0255232 0)
(0 -0.0258874 0)
(0 -0.0257007 0)
(0 -0.0249382 0)
(0 -0.020098 0)
(0 -0.025968 0)
(0 -0.025872 0)
(0 -0.0235151 0)
(0 -0.0258153 0)
(0 -0.0159271 0)
(0 -0.0172902 0)
(0 -0.0158175 0)
(0 -0.0254236 0)
(0 -0.0259813 0)
(0 -0.0241613 0)
(0 -0.00254594 0)
(0 -0.0250109 0)
(0 -0.000296814 0)
(0 -0.00205432 0)
(0 -0.0259809 0)
(0 -0.0199232 0)
(0 -0.019149 0)
(0 -0.0259898 0)
(0 -0.0141763 0)
(0 -0.0259094 0)
(0 -0.0259546 0)
(0 -0.0258457 0)
(0 -0.0258014 0)
(0 -0.0259899 0)
(0 -0.0256061 0)
(0 -0.0259809 0)
(0 -0.00974748 0)
(0 -0.0252818 0)
(0 -0.000648306 0)
(0 -0.0244985 0)
(0 -0.0256536 0)
(0 -0.0117264 0)
(0 -0.0253817 0)
(0 -0.0259899 0)
(0 -0.00218715 0)
(0 -0.0119773 0)
(0 -0.025942 0)
(0 -0.0259892 0)
(0 -0.0241129 0)
(0 -0.0187917 0)
(0 -0.0259899 0)
(0 -0.0259399 0)
(0 -0.0181275 0)
(0 -0.0259667 0)
(0 -0.0259899 0)
(0 -0.0190988 0)
(0 -0.00183272 0)
(0 -0.0183899 0)
(0 -0.0207711 0)
(0 -0.00449622 0)
(0 -0.0186304 0)
(0 -0.0259682 0)
(0 -0.0259185 0)
(0 -0.0245686 0)
(0 -0.025984 0)
(0 -0.00475974 0)
(0 -0.0217732 0)
(0 -0.0259798 0)
(0 -0.0230483 0)
(0 -0.0259153 0)
(0 -0.0257804 0)
(0 -0.0250286 0)
(0 -0.0188919 0)
(0 -0.0185445 0)
(0 -0.0259721 0)
(0 -0.0234465 0)
(0 -0.0256221 0)
(0 -0.0246223 0)
(0 -0.0259899 0)
(0 -0.0248405 0)
(0 -0.0259842 0)
(0 -0.0252436 0)
(0 -0.0140552 0)
(0 -0.0215806 0)
(0 -0.0259833 0)
(0 -0.0139094 0)
(0 -0.0256041 0)
(0 -0.0222178 0)
(0 -0.022375 0)
(0 -0.0259899 0)
(0 -0.0250088 0)
(0 -0.0207214 0)
(0 -0.00262867 0)
(0 -0.0259899 0)
(0 -0.0206316 0)
(0 -0.0250584 0)
(0 -0.0249961 0)
(0 -0.0192529 0)
(0 -0.0259828 0)
(0 -0.0258157 0)
(0 -0.0132716 0)
(0 -0.0243941 0)
(0 -0.0242394 0)
(0 -0.00616896 0)
(0 -0.0150801 0)
(0 -0.0192375 0)
(0 -0.0259899 0)
(0 -0.0181925 0)
(0 -0.00287673 0)
(0 -0.02569 0)
(0 -0.0259055 0)
(0 -0.025851 0)
(0 -0.0011986 0)
(0 -0.0256245 0)
(0 -0.0259898 0)
(0 -0.0252262 0)
(0 -0.0209205 0)
(0 -0.0198349 0)
(0 -0.0259147 0)
(0 -0.023417 0)
(0 -0.0136338 0)
(0 -0.0257669 0)
(0 -0.022154 0)
(0 -0.0184079 0)
(0 -0.0250948 0)
(0 -0.0141915 0)
(0 -0.0258707 0)
(0 -0.0207979 0)
(0 -0.014038 0)
(0 -0.0259899 0)
(0 -0.0115729 0)
(0 -0.0232405 0)
(0 -0.0112368 0)
(0 -0.0245346 0)
(0 -0.0256902 0)
(0 -0.0130006 0)
(0 -0.0223479 0)
(0 -0.0259827 0)
(0 -0.0247187 0)
(0 -0.0259528 0)
(0 -0.0243 0)
(0 -0.00053345 0)
(0 -0.000412519 0)
(0 -0.0259528 0)
(0 -0.0226873 0)
(0 -0.0206935 0)
(0 -0.00528473 0)
(0 -0.0235552 0)
(0 -0.0256726 0)
(0 -0.0259158 0)
(0 -0.0206841 0)
(0 -0.0258708 0)
(0 -0.0259898 0)
(0 -0.025205 0)
(0 -0.00173802 0)
(0 -0.0196229 0)
(0 -0.0227686 0)
(0 -0.00531717 0)
(0 -0.0206045 0)
(0 -0.0259892 0)
(0 -0.0259899 0)
(0 -0.0112595 0)
(0 -0.0253267 0)
(0 -0.0248996 0)
(0 -0.0248548 0)
(0 -0.0239422 0)
(0 -0.00413043 0)
(0 -0.0258946 0)
(0 -0.0259703 0)
(0 -0.0259896 0)
(0 -0.0186123 0)
(0 -0.0229111 0)
(0 -0.0229478 0)
(0 -0.014442 0)
(0 -0.0259893 0)
(0 -0.025697 0)
(0 -0.0235803 0)
(0 -0.022755 0)
(0 -0.00236058 0)
(0 -0.023708 0)
(0 -0.0259037 0)
(0 -0.0250011 0)
(0 -0.0109335 0)
(0 -0.0259899 0)
(0 -0.025989 0)
(0 -0.0259847 0)
(0 -0.0259043 0)
(0 -0.0147075 0)
(0 -0.0223256 0)
(0 -0.0252201 0)
(0 -0.0258445 0)
(0 -0.0259883 0)
(0 -0.0259897 0)
(0 -0.0254855 0)
(0 -0.0256262 0)
(0 -0.00445138 0)
(0 -0.0247048 0)
(0 -0.0243598 0)
(0 -0.00484466 0)
(0 -0.0259899 0)
(0 -0.00421483 0)
(0 -0.0207117 0)
(0 -0.025551 0)
(0 -0.00501662 0)
(0 -0.0257883 0)
(0 -0.0242146 0)
(0 -0.0258253 0)
(0 -0.0256479 0)
(0 -0.00409331 0)
(0 -0.0240921 0)
(0 -0.0252464 0)
(0 -0.0249275 0)
(0 -0.0258973 0)
(0 -0.0259629 0)
(0 -0.00119692 0)
(0 -0.0252116 0)
(0 -0.0247537 0)
(0 -0.022929 0)
(0 -0.00700049 0)
(0 -0.0240174 0)
(0 -0.0164265 0)
(0 -0.0255187 0)
(0 -0.025844 0)
(0 -0.025912 0)
(0 -0.0108562 0)
(0 -0.0247953 0)
(0 -0.00490998 0)
(0 -0.0212277 0)
(0 -0.0259802 0)
(0 -0.0104319 0)
(0 -0.0250104 0)
(0 -0.0258165 0)
(0 -0.0137811 0)
(0 -0.0258552 0)
(0 -0.0253266 0)
(0 -0.0158117 0)
(0 -0.0259896 0)
(0 -0.0255374 0)
(0 -0.00541312 0)
(0 -0.0259492 0)
(0 -0.0230329 0)
(0 -0.00128639 0)
(0 -0.0234663 0)
(0 -0.0186812 0)
(0 -0.000523972 0)
(0 -0.0249332 0)
(0 -0.0238066 0)
(0 -0.0259886 0)
(0 -0.0249258 0)
(0 -0.0194174 0)
(0 -0.0240833 0)
(0 -0.0257012 0)
(0 -0.0254246 0)
(0 -0.0188466 0)
(0 -0.0244304 0)
(0 -0.0222824 0)
(0 -0.0251972 0)
(0 -0.0230493 0)
(0 -0.0256658 0)
(0 -0.0194312 0)
(0 -0.0251597 0)
(0 -0.018254 0)
(0 -0.0160178 0)
(0 -0.0259821 0)
(0 -0.0183921 0)
(0 -0.025978 0)
(0 -0.0193702 0)
(0 -0.0238272 0)
(0 -0.0112849 0)
(0 -0.0253474 0)
(0 -0.0108614 0)
(0 -0.0255687 0)
(0 -0.0237048 0)
(0 -0.0259455 0)
(0 -0.00257502 0)
(0 -0.0258839 0)
(0 -0.0190253 0)
(0 -0.0252577 0)
(0 -0.00222067 0)
(0 -0.0236232 0)
(0 -0.0156456 0)
(0 -0.0249381 0)
(0 -0.0163934 0)
(0 -0.0259804 0)
(0 -0.0259898 0)
(0 -0.0257746 0)
(0 -0.0245839 0)
(0 -0.0258599 0)
(0 -0.0216232 0)
(0 -0.0258643 0)
(0 -0.0255994 0)
(0 -0.0105623 0)
(0 -0.0257486 0)
(0 -0.0259668 0)
(0 -0.0259878 0)
(0 -0.0252925 0)
(0 -0.0259858 0)
(0 -0.0252927 0)
(0 -0.0241719 0)
(0 -0.00370897 0)
(0 -0.0245736 0)
(0 -0.0249072 0)
(0 -0.0248918 0)
(0 -0.0124682 0)
(0 -0.0249012 0)
(0 -0.0258908 0)
(0 -0.00047894 0)
(0 -0.0211813 0)
(0 -0.0244885 0)
(0 -0.0259852 0)
(0 -0.0252095 0)
(0 -0.0255966 0)
(0 -0.0251892 0)
(0 -0.00348591 0)
(0 -0.0259116 0)
(0 -0.013355 0)
(0 -0.0185982 0)
(0 -0.0245672 0)
(0 -0.0222834 0)
(0 -0.0259899 0)
(0 -0.0256088 0)
(0 -0.025986 0)
(0 -0.00220853 0)
(0 -0.0259868 0)
(0 -0.0259897 0)
(0 -0.0259494 0)
(0 -0.0248895 0)
(0 -0.0256577 0)
(0 -0.0259195 0)
(0 -0.0258646 0)
(0 -0.0235558 0)
(0 -0.0223743 0)
(0 -0.0257853 0)
(0 -0.0259899 0)
(0 -0.0216271 0)
(0 -0.0257142 0)
(0 -0.0259713 0)
(0 -0.0210969 0)
(0 -0.0164714 0)
(0 -0.023035 0)
(0 -0.0250089 0)
(0 -0.0157982 0)
(0 -0.0226204 0)
(0 -0.0259519 0)
(0 -0.0259817 0)
(0 -0.0225006 0)
(0 -0.0146304 0)
(0 -0.0259899 0)
(0 -0.0259434 0)
(0 -0.021727 0)
(0 -0.0206628 0)
(0 -0.00196148 0)
(0 -0.0208238 0)
(0 -0.0259812 0)
(0 -0.0255925 0)
(0 -0.0259824 0)
(0 -0.0248501 0)
(0 -0.0168232 0)
(0 -0.0218072 0)
(0 -0.0250697 0)
(0 -0.0149326 0)
(0 -0.0252818 0)
(0 -0.0249376 0)
(0 -0.0259857 0)
(0 -0.0153557 0)
(0 -0.00838341 0)
(0 -0.0258446 0)
(0 -0.0214145 0)
(0 -0.0249883 0)
(0 -0.0259574 0)
(0 -0.0240124 0)
(0 -0.0259898 0)
(0 -0.0259864 0)
(0 -0.0242075 0)
(0 -0.0207806 0)
(0 -0.02597 0)
(0 -0.0259899 0)
(0 -0.0258272 0)
(0 -0.0229221 0)
(0 -0.0259336 0)
(0 -0.0259833 0)
(0 -0.0255902 0)
(0 -0.0234267 0)
(0 -0.00419248 0)
(0 -0.0109464 0)
(0 -0.0259824 0)
(0 -0.0245579 0)
(0 -0.0259749 0)
(0 -0.00137598 0)
(0 -0.0259896 0)
(0 -0.02598 0)
(0 -0.0195226 0)
(0 -0.0171712 0)
(0 -0.0259785 0)
(0 -0.0101244 0)
(0 -0.011455 0)
(0 -0.0254289 0)
(0 -0.0259895 0)
(0 -0.0259862 0)
(0 -0.0259809 0)
(0 -0.0231468 0)
(0 -0.0256731 0)
(0 -0.0258509 0)
(0 -0.0110279 0)
(0 -0.00165369 0)
(0 -0.00761123 0)
(0 -0.0259814 0)
(0 -0.00402671 0)
(0 -0.0195098 0)
(0 -0.0256597 0)
(0 -0.0238747 0)
(0 -0.0258708 0)
(0 -0.00262991 0)
(0 -0.0126164 0)
(0 -0.00353006 0)
(0 -0.0102328 0)
(0 -0.0259013 0)
(0 -0.00440516 0)
(0 -0.0226148 0)
(0 -0.0255869 0)
(0 -0.0259404 0)
(0 -0.025987 0)
(0 -0.00522481 0)
(0 -0.025893 0)
(0 -0.0259444 0)
(0 -0.0259484 0)
(0 -0.0250898 0)
(0 -0.0259899 0)
(0 -0.0259899 0)
(0 -0.0209192 0)
(0 -0.00912457 0)
(0 -0.0248907 0)
(0 -0.0252473 0)
(0 -0.0259822 0)
(0 -0.0250235 0)
(0 -0.00661673 0)
(0 -0.00424293 0)
(0 -0.0259483 0)
(0 -0.0258503 0)
(0 -0.0230153 0)
(0 -0.00577873 0)
(0 -0.0208656 0)
(0 -0.0258186 0)
(0 -0.0117106 0)
(0 -0.00184926 0)
(0 -0.025163 0)
(0 -0.0249611 0)
(0 -0.00682831 0)
(0 -0.0218743 0)
(0 -0.025989 0)
(0 -0.0225681 0)
(0 -0.0249125 0)
(0 -0.0166582 0)
(0 -0.0245655 0)
(0 -0.0259497 0)
(0 -0.00550241 0)
(0 -0.025096 0)
(0 -0.0145264 0)
(0 -0.0248988 0)
(0 -0.0259887 0)
(0 -0.000350138 0)
(0 -0.0259862 0)
(0 -0.0253643 0)
(0 -0.0259842 0)
(0 -0.00299021 0)
(0 -0.0249914 0)
(0 -0.0251139 0)
(0 -0.0258959 0)
(0 -0.025945 0)
(0 -0.0249047 0)
(0 -0.0259861 0)
(0 -0.0258699 0)
(0 -0.0248406 0)
(0 -0.00209272 0)
(0 -0.0259479 0)
(0 -0.0142931 0)
(0 -0.00262999 0)
(0 -0.0187488 0)
(0 -0.00294081 0)
(0 -0.0257496 0)
(0 -4.90873e-05 0)
(0 -0.00053196 0)
(0 -0.025959 0)
(0 -0.0256174 0)
(0 -0.00113798 0)
(0 -0.0258021 0)
(0 -0.0250159 0)
(0 -0.0259839 0)
(0 -0.0242959 0)
(0 -0.0259882 0)
(0 -0.0209527 0)
(0 -0.0255666 0)
(0 -0.0258434 0)
(0 -0.025971 0)
(0 -0.0247858 0)
(0 -0.0259895 0)
(0 -0.00142585 0)
(0 -0.0243332 0)
(0 -0.00666702 0)
(0 -0.0240606 0)
(0 -0.0228045 0)
(0 -0.0258126 0)
(0 -0.0259061 0)
(0 -0.0251307 0)
(0 -0.0259899 0)
(0 -0.00734612 0)
(0 -0.0259897 0)
(0 -0.0242997 0)
(0 -0.0218355 0)
(0 -0.0258215 0)
(0 -0.0253903 0)
(0 -0.025986 0)
(0 -0.0174691 0)
(0 -0.0256838 0)
(0 -0.0259343 0)
(0 -0.0250367 0)
(0 -0.0259192 0)
(0 -0.00060951 0)
(0 -0.0089441 0)
(0 -0.000566147 0)
(0 -0.0259842 0)
(0 -0.0107972 0)
(0 -0.0113797 0)
(0 -0.0183556 0)
(0 -0.00323464 0)
(0 -0.0161074 0)
(0 -0.0150984 0)
(0 -0.0241844 0)
(0 -0.0194483 0)
(0 -0.010056 0)
(0 -0.0248115 0)
(0 -0.0254519 0)
(0 -0.0257847 0)
(0 -0.018356 0)
(0 -0.0259828 0)
(0 -0.023671 0)
(0 -0.0259862 0)
(0 -0.0258835 0)
(0 -0.0259891 0)
(0 -0.0256626 0)
(0 -0.024277 0)
(0 -0.0259899 0)
(0 -0.025457 0)
(0 -0.0259836 0)
(0 -0.025952 0)
(0 -0.0258049 0)
(0 -0.00464 0)
(0 -0.0182879 0)
(0 -0.0249331 0)
(0 -0.025951 0)
(0 -0.0230464 0)
(0 -0.0259895 0)
(0 -0.022825 0)
(0 -0.0259896 0)
(0 -0.0258767 0)
(0 -0.025138 0)
(0 -0.0242097 0)
(0 -0.0259897 0)
(0 -0.0259896 0)
(0 -0.0252172 0)
(0 -0.0187744 0)
(0 -0.00280245 0)
(0 -0.0244452 0)
(0 -0.0087197 0)
(0 -0.0033932 0)
(0 -0.0258979 0)
(0 -0.0256343 0)
(0 -0.0142674 0)
(0 -0.0229623 0)
(0 -0.0247309 0)
(0 -0.0259829 0)
(0 -0.0252666 0)
(0 -0.00932893 0)
(0 -0.0253131 0)
(0 -0.0258655 0)
(0 -0.0246808 0)
(0 -0.0137291 0)
(0 -0.0259896 0)
(0 -0.0245342 0)
(0 -0.0219855 0)
(0 -0.0259898 0)
(0 -0.0252825 0)
(0 -0.023314 0)
(0 -0.0259899 0)
(0 -0.0258428 0)
(0 -0.0259895 0)
(0 -0.0213289 0)
(0 -0.0251416 0)
(0 -0.0259517 0)
(0 -0.018664 0)
(0 -0.0228698 0)
(0 -0.00104137 0)
(0 -0.0246795 0)
(0 -0.0152548 0)
(0 -0.00244554 0)
(0 -0.0236105 0)
(0 -0.0259346 0)
(0 -0.0259822 0)
(0 -0.0189929 0)
(0 -0.0230899 0)
(0 -0.014309 0)
(0 -0.022605 0)
(0 -0.0248143 0)
(0 -0.00900779 0)
(0 -0.0259117 0)
(0 -0.0256533 0)
(0 -0.0235632 0)
(0 -0.0181048 0)
(0 -0.0184603 0)
(0 -0.0108419 0)
(0 -0.0242473 0)
(0 -0.0259895 0)
(0 -0.0251641 0)
(0 -0.0187679 0)
(0 -0.0201456 0)
(0 -0.0259134 0)
(0 -0.0259723 0)
(0 -0.0159653 0)
(0 -0.010384 0)
(0 -0.0166255 0)
(0 -0.0185324 0)
(0 -0.0259854 0)
(0 -0.0251596 0)
(0 -0.00229733 0)
(0 -0.0021097 0)
(0 -0.0253599 0)
(0 -0.025969 0)
(0 -0.00919879 0)
(0 -0.0011803 0)
(0 -0.0254247 0)
(0 -0.0233032 0)
(0 -0.0247656 0)
(0 -0.0246576 0)
(0 -0.0258809 0)
(0 -0.0257155 0)
(0 -0.0143865 0)
(0 -0.0252831 0)
(0 -0.0259858 0)
(0 -0.0256836 0)
(0 -0.025823 0)
(0 -0.0253475 0)
(0 -0.0259513 0)
(0 -0.00145405 0)
(0 -0.0228325 0)
(0 -0.0248976 0)
(0 -0.0255625 0)
(0 -0.0222097 0)
(0 -0.0216324 0)
(0 -0.0034211 0)
(0 -0.0237234 0)
(0 -0.0259775 0)
(0 -0.0259698 0)
(0 -0.0257036 0)
(0 -0.0241233 0)
(0 -0.00507207 0)
(0 -0.0256594 0)
(0 -0.0236796 0)
(0 -0.0236564 0)
(0 -0.0259047 0)
(0 -0.0252302 0)
(0 -0.0235708 0)
(0 -0.0185649 0)
(0 -0.025984 0)
(0 -0.0259788 0)
(0 -0.0025216 0)
(0 -0.0239945 0)
(0 -0.0258092 0)
(0 -0.0219781 0)
(0 -0.0129629 0)
(0 -0.0210136 0)
(0 -0.0257938 0)
(0 -0.0246908 0)
(0 -0.0247872 0)
(0 -0.0259899 0)
(0 -0.0244726 0)
(0 -0.0090557 0)
(0 -0.025939 0)
(0 -0.0136397 0)
(0 -0.0259805 0)
(0 -0.00166838 0)
(0 -0.0249499 0)
(0 -0.0258702 0)
(0 -0.0237025 0)
(0 -0.00858133 0)
(0 -0.0229112 0)
(0 -0.0246479 0)
(0 -0.0259858 0)
(0 -0.0201789 0)
(0 -0.00579971 0)
(0 -0.0259839 0)
(0 -0.0255658 0)
(0 -0.0258917 0)
(0 -0.025989 0)
(0 -0.0258809 0)
(0 -0.00398666 0)
(0 -0.0259779 0)
(0 -0.0222488 0)
(0 -0.0259813 0)
(0 -0.00903535 0)
(0 -0.0237557 0)
(0 -0.00293733 0)
(0 -0.0259899 0)
(0 -0.004489 0)
(0 -0.0246435 0)
(0 -0.00987197 0)
(0 -0.0253355 0)
(0 -0.0259394 0)
(0 -0.0256221 0)
(0 -0.0258303 0)
(0 -0.0230426 0)
(0 -0.00617307 0)
(0 -0.0256836 0)
(0 -0.0255394 0)
(0 -0.0171502 0)
(0 -0.0252132 0)
(0 -0.02177 0)
(0 -0.0259516 0)
(0 -0.0259897 0)
(0 -0.010392 0)
(0 -0.0251402 0)
(0 -0.00466557 0)
(0 -0.0257242 0)
(0 -0.0091357 0)
(0 -0.0259899 0)
(0 -0.0189116 0)
(0 -0.0224062 0)
(0 -0.00275558 0)
(0 -0.0243051 0)
(0 -0.024721 0)
(0 -0.00058204 0)
(0 -0.0178514 0)
(0 -0.0237549 0)
(0 -0.0259365 0)
(0 -0.0257946 0)
(0 -0.0228611 0)
(0 -0.0248425 0)
(0 -0.0243827 0)
(0 -0.0258725 0)
(0 -0.022457 0)
(0 -0.0256139 0)
(0 -0.0247337 0)
(0 -0.023497 0)
(0 -0.0252399 0)
(0 -0.0248963 0)
(0 -0.000446724 0)
(0 -0.0131946 0)
(0 -0.0256172 0)
(0 -0.0216765 0)
(0 -0.0259605 0)
(0 -0.0248223 0)
(0 -0.0259699 0)
(0 -0.0242387 0)
(0 -0.015732 0)
(0 -0.021804 0)
(0 -0.0253248 0)
(0 -0.0258365 0)
(0 -0.0181405 0)
(0 -0.024845 0)
(0 -0.0257586 0)
(0 -0.0247382 0)
(0 -0.0186344 0)
(0 -0.025242 0)
(0 -0.000894688 0)
(0 -0.0259899 0)
(0 -0.0259817 0)
(0 -0.0253707 0)
(0 -0.0259899 0)
(0 -0.0252031 0)
(0 -0.0253131 0)
(0 -0.0258766 0)
(0 -0.0258438 0)
(0 -0.0249385 0)
(0 -0.0259899 0)
(0 -0.024744 0)
(0 -0.0257924 0)
(0 -0.0234043 0)
(0 -0.0246234 0)
(0 -0.0227307 0)
(0 -0.0232039 0)
(0 -0.0251279 0)
(0 -0.0213635 0)
(0 -0.0259845 0)
(0 -0.0237638 0)
(0 -0.0238022 0)
(0 -0.025944 0)
(0 -0.0197826 0)
(0 -0.0255632 0)
(0 -0.0243439 0)
(0 -0.0254524 0)
(0 -0.0228288 0)
(0 -0.0259131 0)
(0 -0.0255843 0)
(0 -0.00938922 0)
(0 -0.0252716 0)
(0 -0.0259893 0)
(0 -0.0259213 0)
(0 -0.0218171 0)
(0 -0.0247675 0)
(0 -0.0107256 0)
(0 -0.0218134 0)
(0 -0.0259837 0)
(0 -0.0187393 0)
(0 -0.0122476 0)
(0 -0.0257045 0)
(0 -0.0235898 0)
(0 -0.0248034 0)
(0 -0.0216781 0)
(0 -0.0153973 0)
(0 -0.0258905 0)
(0 -0.022817 0)
(0 -0.0181072 0)
(0 -0.0251958 0)
(0 -0.0214918 0)
(0 -0.0187423 0)
(0 -0.000797678 0)
(0 -0.025985 0)
(0 -0.0243336 0)
(0 -0.00806303 0)
(0 -0.0183001 0)
(0 -0.0256987 0)
(0 -0.024772 0)
(0 -0.0252839 0)
(0 -0.0212987 0)
(0 -0.0258175 0)
(0 -0.0248614 0)
(0 -0.0223457 0)
(0 -0.0248328 0)
(0 -0.0129476 0)
(0 -0.0127488 0)
(0 -0.025971 0)
(0 -0.0257934 0)
(0 -0.0255331 0)
(0 -0.0252959 0)
(0 -0.0258143 0)
(0 -0.0257762 0)
(0 -0.0257 0)
(0 -0.0257267 0)
(0 -0.025087 0)
(0 -0.0259678 0)
(0 -0.0230004 0)
(0 -0.0236158 0)
(0 -0.0101506 0)
(0 -0.000820799 0)
(0 -0.0258386 0)
(0 -0.00197041 0)
(0 -0.0259827 0)
(0 -0.0259899 0)
(0 -0.0259598 0)
(0 -0.00898358 0)
(0 -0.0251856 0)
(0 -0.0258397 0)
(0 -0.0166286 0)
(0 -0.0259724 0)
(0 -0.0258974 0)
(0 -0.0259845 0)
(0 -0.0255435 0)
(0 -0.0259895 0)
(0 -0.0257814 0)
(0 -0.0258297 0)
(0 -0.0259836 0)
(0 -0.0255975 0)
(0 -0.0242206 0)
(0 -0.0253829 0)
(0 -0.0215192 0)
(0 -0.025985 0)
(0 -0.0244172 0)
(0 -0.0257506 0)
(0 -0.0194684 0)
(0 -0.0254492 0)
(0 -0.0149878 0)
(0 -0.0259898 0)
(0 -0.0259843 0)
(0 -0.00357688 0)
(0 -0.0259899 0)
(0 -0.0259817 0)
(0 -0.0257369 0)
(0 -0.0256914 0)
(0 -0.0258648 0)
(0 -0.0178391 0)
(0 -0.0259893 0)
(0 -0.0236521 0)
(0 -0.0259665 0)
(0 -0.0259899 0)
(0 -0.00381163 0)
(0 -0.0229844 0)
(0 -0.0108756 0)
(0 -0.0252358 0)
(0 -0.024563 0)
(0 -0.0256168 0)
(0 -0.0258969 0)
(0 -0.00694873 0)
(0 -0.0153313 0)
(0 -0.0252231 0)
(0 -0.0239815 0)
(0 -0.00662482 0)
(0 -0.0255153 0)
(0 -0.018778 0)
(0 -0.0147773 0)
(0 -0.0256066 0)
(0 -0.0258413 0)
(0 -0.0150149 0)
(0 -0.0259465 0)
(0 -0.0239154 0)
(0 -0.0022105 0)
(0 -0.0252907 0)
(0 -0.025954 0)
(0 -0.0206149 0)
(0 -0.0181251 0)
(0 -0.0258823 0)
(0 -0.025966 0)
(0 -0.02224 0)
(0 -0.0252868 0)
(0 -0.0259768 0)
(0 -0.0257653 0)
(0 -0.0259897 0)
(0 -0.0191164 0)
(0 -0.0257721 0)
(0 -0.0259889 0)
(0 -0.0259858 0)
(0 -0.0114446 0)
(0 -0.0230588 0)
(0 -0.0255668 0)
(0 -0.0255794 0)
(0 -0.0258389 0)
(0 -0.024618 0)
(0 -0.0259888 0)
(0 -0.0257078 0)
(0 -0.0259318 0)
(0 -0.0240189 0)
(0 -0.0101882 0)
(0 -0.0259899 0)
(0 -0.0256239 0)
(0 -0.00952935 0)
(0 -0.002213 0)
(0 -0.0259895 0)
(0 -0.0209583 0)
(0 -0.0191385 0)
(0 -0.0216093 0)
(0 -0.0246518 0)
(0 -0.00393682 0)
(0 -0.0257701 0)
(0 -0.0242464 0)
(0 -0.0244091 0)
(0 -0.0152055 0)
(0 -0.025292 0)
(0 -0.0259895 0)
(0 -0.025905 0)
(0 -0.0255944 0)
(0 -0.0259898 0)
(0 -0.0258626 0)
(0 -0.0180689 0)
(0 -0.0216914 0)
(0 -0.0229561 0)
(0 -6.33279e-05 0)
(0 -0.0259411 0)
(0 -0.0257705 0)
(0 -0.0226863 0)
(0 -0.0237193 0)
(0 -0.0190059 0)
(0 -0.00843995 0)
(0 -0.0258058 0)
(0 -0.0134146 0)
(0 -0.0259285 0)
(0 -0.0244717 0)
(0 -0.00863968 0)
(0 -0.0259828 0)
(0 -0.0259899 0)
(0 -0.00925402 0)
(0 -0.0259712 0)
(0 -0.0258203 0)
(0 -0.0256743 0)
(0 -0.00272825 0)
(0 -0.0174684 0)
(0 -0.0259897 0)
(0 -0.0258507 0)
(0 -0.0135715 0)
(0 -0.0190389 0)
(0 -0.0209699 0)
(0 -0.0252976 0)
(0 -0.00179611 0)
(0 -0.0257542 0)
(0 -0.0121485 0)
(0 -0.0148741 0)
(0 -0.023739 0)
(0 -0.0259619 0)
(0 -0.0259894 0)
(0 -0.0179408 0)
(0 -0.0238248 0)
(0 -0.0259694 0)
(0 -0.0259854 0)
(0 -0.0254816 0)
(0 -0.0258978 0)
(0 -0.0259886 0)
(0 -0.0214248 0)
(0 -0.00538364 0)
(0 -0.0243209 0)
(0 -0.0251101 0)
(0 -0.0259808 0)
(0 -0.0154553 0)
(0 -0.000698684 0)
(0 -0.0259665 0)
(0 -0.0258907 0)
(0 -0.00644398 0)
(0 -0.0205582 0)
(0 -0.0259686 0)
(0 -0.000660922 0)
(0 -0.0140969 0)
(0 -0.0259364 0)
(0 -0.0257818 0)
(0 -0.0259896 0)
(0 -0.00972387 0)
(0 -0.0253411 0)
(0 -0.0259046 0)
(0 -0.0255925 0)
(0 -0.0251923 0)
(0 -0.025618 0)
(0 -0.0182512 0)
(0 -0.00230655 0)
(0 -0.025978 0)
(0 -0.0254943 0)
(0 -0.0170618 0)
(0 -0.0253311 0)
(0 -0.0259899 0)
(0 -0.0158683 0)
(0 -0.0210695 0)
(0 -0.0162669 0)
(0 -0.0259476 0)
(0 -0.0173396 0)
(0 -0.00711169 0)
(0 -0.00697622 0)
(0 -0.0179546 0)
(0 -0.0259814 0)
(0 -0.0259867 0)
(0 -0.0244897 0)
(0 -0.0259582 0)
(0 -0.0259894 0)
(0 -0.0259897 0)
(0 -0.0192428 0)
(0 -0.0232262 0)
(0 -0.0182931 0)
(0 -0.0212177 0)
(0 -0.0120452 0)
(0 -0.00977327 0)
(0 -0.0128589 0)
(0 -0.00691619 0)
(0 -0.0135781 0)
(0 -0.0254461 0)
(0 -0.0259898 0)
(0 -0.0258276 0)
(0 -0.0257443 0)
(0 -0.0250787 0)
(0 -0.0133794 0)
(0 -0.0251687 0)
(0 -0.0257099 0)
(0 -0.0244129 0)
(0 -0.0196915 0)
(0 -0.0258463 0)
(0 -0.0257174 0)
(0 -0.0259781 0)
(0 -0.0255239 0)
(0 -0.0175877 0)
(0 -0.025984 0)
(0 -0.0248615 0)
(0 -0.0145825 0)
(0 -0.0229183 0)
(0 -0.0259243 0)
(0 -0.0256087 0)
(0 -0.0250601 0)
(0 -0.0254073 0)
(0 -0.0145637 0)
(0 -0.0112424 0)
(0 -0.025818 0)
(0 -0.0254911 0)
(0 -0.024639 0)
(0 -0.025959 0)
(0 -0.0117357 0)
(0 -0.00159441 0)
(0 -0.0259817 0)
(0 -0.0258234 0)
(0 -0.0254303 0)
(0 -0.0258832 0)
(0 -0.0245652 0)
(0 -0.0259393 0)
(0 -0.0259193 0)
(0 -0.0258532 0)
(0 -0.0259899 0)
(0 -0.0225649 0)
(0 -0.0211879 0)
(0 -0.0141883 0)
(0 -0.0157307 0)
(0 -0.0135072 0)
(0 -0.0248753 0)
(0 -0.025559 0)
(0 -0.0251514 0)
(0 -0.0259895 0)
(0 -0.00977105 0)
(0 -0.0259707 0)
(0 -0.0259782 0)
(0 -0.0241386 0)
(0 -0.0259853 0)
(0 -0.0244646 0)
(0 -0.0258932 0)
(0 -0.0259898 0)
(0 -0.0138227 0)
(0 -0.0258331 0)
(0 -0.0193344 0)
(0 -0.0259895 0)
(0 -0.00418128 0)
(0 -0.025897 0)
(0 -0.0206636 0)
(0 -0.0259629 0)
(0 -0.0252106 0)
(0 -0.0259899 0)
(0 -0.0171335 0)
(0 -0.0258867 0)
(0 -0.0205449 0)
(0 -0.0245741 0)
(0 -0.0258809 0)
(0 -0.0173198 0)
(0 -0.0259899 0)
(0 -0.0259891 0)
(0 -0.0257615 0)
(0 -0.0259799 0)
(0 -0.0257865 0)
(0 -0.0259895 0)
(0 -0.0257756 0)
(0 -0.0168291 0)
(0 -0.0258871 0)
(0 -0.0257125 0)
(0 -0.025844 0)
(0 -0.0115435 0)
(0 -0.00163426 0)
(0 -0.0244965 0)
(0 -0.025829 0)
(0 -0.0233322 0)
(0 -0.0244963 0)
(0 -0.0244369 0)
(0 -0.0259896 0)
(0 -0.0259498 0)
(0 -0.0229582 0)
(0 -0.0259814 0)
(0 -0.0259367 0)
(0 -0.0143066 0)
(0 -0.0258125 0)
(0 -0.0256355 0)
(0 -0.0259268 0)
(0 -0.0256193 0)
(0 -0.021564 0)
(0 -0.0259883 0)
(0 -0.0145476 0)
(0 -0.0134775 0)
(0 -0.00814507 0)
(0 -0.0259358 0)
(0 -0.0257619 0)
(0 -0.0222533 0)
(0 -0.025611 0)
(0 -0.0126788 0)
(0 -0.00165204 0)
(0 -0.0121078 0)
(0 -0.0259892 0)
(0 -0.00108937 0)
(0 -0.00554573 0)
(0 -0.0258562 0)
(0 -0.0259013 0)
(0 -0.0247834 0)
(0 -0.0224853 0)
(0 -0.0259846 0)
(0 -0.0257044 0)
(0 -0.0251962 0)
(0 -0.0235582 0)
(0 -0.0259352 0)
(0 -0.0246305 0)
(0 -0.0248521 0)
(0 -0.0253533 0)
(0 -0.0259543 0)
(0 -0.0258671 0)
(0 -0.0257433 0)
(0 -0.0172651 0)
(0 -0.0247575 0)
(0 -0.0252116 0)
(0 -0.0248389 0)
(0 -0.0247106 0)
(0 -0.025982 0)
(0 -0.000596846 0)
(0 -0.0257828 0)
(0 -0.0202198 0)
(0 -0.00753908 0)
(0 -0.0246942 0)
(0 -0.0258869 0)
(0 -0.0247132 0)
(0 -0.0250126 0)
(0 -0.00913037 0)
(0 -0.0258626 0)
(0 -0.0257455 0)
(0 -0.0256144 0)
(0 -0.0256481 0)
(0 -0.000372336 0)
(0 -0.00713299 0)
(0 -0.0257238 0)
(0 -0.0255669 0)
(0 -0.0179723 0)
(0 -0.0255854 0)
(0 -0.0141835 0)
(0 -0.0189957 0)
(0 -0.0259899 0)
(0 -0.0214066 0)
(0 -0.0259891 0)
(0 -0.0230484 0)
(0 -0.0256784 0)
(0 -0.025634 0)
(0 -0.0234086 0)
(0 -0.0251018 0)
(0 -0.0255373 0)
(0 -0.0258865 0)
(0 -0.0235413 0)
(0 -0.0255364 0)
(0 -0.0240387 0)
(0 -0.00230712 0)
(0 -0.0227241 0)
(0 -0.0259898 0)
(0 -0.0259372 0)
(0 -0.0201076 0)
(0 -0.0211663 0)
(0 -0.0203144 0)
(0 -0.0217365 0)
(0 -0.0258271 0)
(0 -0.0259409 0)
(0 -0.023429 0)
(0 -0.0259892 0)
(0 -0.0177956 0)
(0 -0.0115972 0)
(0 -0.0182729 0)
(0 -0.0258896 0)
(0 -0.0248036 0)
(0 -0.025278 0)
(0 -0.019516 0)
(0 -0.0236302 0)
(0 -0.0229943 0)
(0 -0.00124139 0)
(0 -0.00143457 0)
(0 -0.0255082 0)
(0 -0.0259895 0)
(0 -0.0200795 0)
(0 -0.0232763 0)
(0 -0.025917 0)
(0 -0.0258554 0)
(0 -0.018745 0)
(0 -0.0259609 0)
(0 -0.0258189 0)
(0 -0.0212837 0)
(0 -0.0187924 0)
(0 -0.0229427 0)
(0 -0.0257852 0)
(0 -0.021214 0)
(0 -0.025577 0)
(0 -0.0255888 0)
(0 -0.0239789 0)
(0 -0.0210591 0)
(0 -0.0256887 0)
(0 -0.0123311 0)
(0 -0.025979 0)
(0 -0.0256538 0)
(0 -0.0247141 0)
(0 -0.025868 0)
(0 -0.0259518 0)
(0 -0.010004 0)
(0 -0.0208994 0)
(0 -0.0259899 0)
(0 -0.0258974 0)
(0 -0.0257637 0)
(0 -0.0240521 0)
(0 -0.0255957 0)
(0 -0.0190839 0)
(0 -0.025989 0)
(0 -0.0253321 0)
(0 -0.0213894 0)
(0 -0.025989 0)
(0 -0.0258301 0)
(0 -0.0251666 0)
(0 -0.0258001 0)
(0 -0.0257469 0)
(0 -0.0214197 0)
(0 -0.0259851 0)
(0 -0.0244044 0)
(0 -0.0250845 0)
(0 -0.0255707 0)
(0 -0.024506 0)
(0 -0.00483401 0)
(0 -0.025932 0)
(0 -0.0189025 0)
(0 -0.0107339 0)
(0 -0.0185321 0)
(0 -0.0259895 0)
(0 -0.0225694 0)
(0 -0.00301931 0)
(0 -0.0211372 0)
(0 -0.0185641 0)
(0 -0.0227275 0)
(0 -0.00419123 0)
(0 -0.0255489 0)
(0 -0.025931 0)
(0 -0.0243352 0)
(0 -0.00312885 0)
(0 -0.0259854 0)
(0 -0.0245013 0)
(0 -0.00218199 0)
(0 -0.0202824 0)
(0 -0.0202328 0)
(0 -0.0135858 0)
(0 -0.00745652 0)
(0 -0.025153 0)
(0 -0.025769 0)
(0 -0.00558753 0)
(0 -0.0253983 0)
(0 -0.0259361 0)
(0 -0.0214737 0)
(0 -0.0256424 0)
(0 -0.0259867 0)
(0 -0.0246546 0)
(0 -0.00384505 0)
(0 -0.0129074 0)
(0 -0.0259728 0)
(0 -0.00570049 0)
(0 -0.00332932 0)
(0 -0.0253049 0)
(0 -0.0254438 0)
(0 -0.025964 0)
(0 -0.0259899 0)
(0 -0.0140585 0)
(0 -0.00793953 0)
(0 -0.0167866 0)
(0 -0.0259602 0)
(0 -0.00118187 0)
(0 -0.021302 0)
(0 -0.0257308 0)
(0 -0.0259512 0)
(0 -0.0243944 0)
(0 -0.0256471 0)
(0 -0.0112315 0)
(0 -0.0259286 0)
(0 -0.0257704 0)
(0 -0.0241297 0)
(0 -0.025972 0)
(0 -0.0254355 0)
(0 -0.0259898 0)
(0 -0.0067497 0)
(0 -0.0186244 0)
(0 -0.0259887 0)
(0 -0.0259775 0)
(0 -0.0252507 0)
(0 -0.0257322 0)
(0 -0.0259743 0)
(0 -0.0259897 0)
(0 -0.0259206 0)
(0 -0.0259885 0)
(0 -0.0250747 0)
(0 -0.0245276 0)
(0 -0.0259899 0)
(0 -0.0256047 0)
(0 -0.025648 0)
(0 -0.0248431 0)
(0 -0.0259442 0)