/*--------------------------------*- C++ -*----------------------------------*\
| =========                 |                                                 |
| \\      /  F ield         | OpenFOAM: The Open Source CFD Toolbox           |
|  \\    /   O peration     | Version:  v2012                                 |
|   \\  /    A nd           | Website:  www.openfoam.com                      |
|    \\/     M anipulation  |                                                 |
\*---------------------------------------------------------------------------*/
FoamFile
{
    version     2.0;
    format      ascii;
    class       volScalarField;
    location    "1000";
    object      k_0;
}
// * * * * * * * * * * * * * * * * * * * * * * * * * * * * * * * * * * * * * //

dimensions      [0 2 -2 0 0 0 0];


internalField   nonuniform List<scalar> 
10042
(
0.000147419
0.000148215
0.000148513
0.000158627
0.0687196
0.000148347
0.0865796
0.0353631
0.000147518
0.000147912
0.0235063
0.000158487
0.000144664
0.000144409
0.000151419
0.000148092
0.00014804
0.000149697
0.000147442
0.000171306
0.000147187
0.00014716
0.000145468
0.000145272
0.00014826
0.000160326
0.000148777
0.000150053
0.000147252
0.000149338
0.000148036
0.00627723
0.000147984
0.00014925
0.000156145
0.000145356
0.000159318
0.000165206
0.000145352
0.000157972
0.000172415
0.000150806
0.0869594
0.000148035
0.0685395
0.000177199
0.000149098
0.000189835
0.000157984
0.000177301
0.000149027
0.000151155
0.000150833
0.000153103
0.000159344
0.000148299
0.000147297
0.000148999
0.000149204
0.000150494
0.000148186
0.000147935
0.000156342
0.0001484
0.000148942
0.000149268
0.000148328
0.000165946
0.0431513
0.000147446
0.000152994
0.000173882
0.000148063
0.000157567
0.00014824
0.000145273
0.0715465
0.000147497
0.000156808
0.0820108
0.000157337
0.0599785
0.000148091
0.000150142
0.000148344
0.000149369
0.000147308
0.000182775
0.000147806
0.000147301
0.000149244
0.0569119
0.000150241
0.000150812
0.000149198
0.000147599
0.000147497
0.000147398
0.000157288
0.000147473
0.000149933
0.000178438
0.0602319
0.000149286
0.000149741
0.000165567
0.000147472
0.000147459
0.000147242
0.000144647
0.000145916
0.00014702
0.000154895
0.0390054
0.000148913
0.000147063
0.000147644
0.00014747
0.000147558
0.0314057
0.000147775
0.0363112
0.000148167
0.000147821
0.000178444
0.000148094
0.027166
0.000158333
0.00016526
0.000147253
0.000157286
0.000148135
0.0298527
0.000201314
0.000147451
0.000169222
0.0211088
0.000149285
0.000189925
0.000184719
0.00015
0.000147626
0.000149442
0.000186571
0.000149289
0.00014701
0.000170396
0.000146058
0.000147488
0.000154001
0.000147775
0.000149676
0.0628328
0.032897
0.000149163
0.000144623
0.000149797
0.000147885
0.000169103
0.0134904
0.0196783
0.000188413
0.000147841
0.000147741
0.000148408
0.00014807
0.00016569
0.015644
0.00581909
0.0368761
0.000151823
0.000146844
0.0422764
0.000174196
0.000160306
0.0951244
0.0291191
0.000148105
0.000167298
0.000160263
0.000150076
0.00914653
0.00014851
0.000158124
0.000150591
0.0339226
0.000206534
0.000148626
0.0245353
0.000153174
0.000305002
0.000149452
0.0636706
0.0132425
0.000185173
0.00305287
0.000156033
0.000147518
0.000144637
0.000151754
0.000159723
0.000148725
0.00014699
0.000174228
0.000148453
0.000146117
0.000361346
0.000148953
0.00014971
0.00014958
0.000645074
0.000148439
0.000164847
0.000188309
0.000149731
0.00020702
0.00014802
0.000147816
0.00017311
0.000146443
0.000155083
0.000150027
0.000197192
0.000166152
0.000153592
0.000161382
0.000651201
0.000147035
0.000193002
0.0001537
0.000147555
0.000172492
0.000146895
0.000153626
0.000148702
0.000154292
0.000146281
0.000144395
0.000152603
0.000159436
0.000147887
0.00014819
0.00014823
0.000154959
0.000147035
0.000148088
0.000145341
0.000149926
0.000152402
0.000149772
0.000144657
0.000147376
0.000152565
0.000205081
0.000188511
0.0196136
0.000160468
0.000160295
0.000151648
0.000178953
0.0934017
0.000152094
0.00014748
0.000144554
0.000151624
0.00014623
0.00146339
0.000153452
0.00014728
0.000149636
0.00016029
0.000152578
0.000186595
0.000160384
0.000187449
0.000153266
0.000159416
0.000146184
0.00015639
0.000149391
0.000160959
0.000147613
0.000160334
0.0336321
0.000146084
0.000148091
0.0928666
0.000177345
0.000148459
0.000148178
0.000152244
0.0963847
0.000172515
0.000187379
0.000149135
0.00014462
0.00014705
0.000147593
0.00134868
0.000147367
0.000148149
0.00014685
0.000148023
0.000166659
0.000151743
0.000170885
0.0775894
0.000150161
0.0677874
0.00014701
0.000156027
0.000148717
0.0137446
0.000178933
0.000226783
0.028092
0.000145208
0.000153556
0.000147483
0.000152068
0.000161369
0.000149574
0.000160657
0.000145863
0.000144693
0.00014813
0.000171993
0.000149882
0.000152628
0.000147994
0.000151517
0.0326416
0.000147035
0.000149094
0.000147743
0.000148243
0.000164662
0.000185452
0.000160265
0.020347
0.00016681
0.000157221
0.000148061
0.000144282
0.000149646
0.000149766
0.000930311
0.000147616
0.00014928
0.000200531
0.000147027
0.000152965
0.000150364
0.000205032
0.000148821
0.000153363
0.000164589
0.000160334
0.000151737
0.000147565
0.0418167
0.000170653
0.000150401
0.000164417
0.000147547
0.000146917
0.000147532
0.000152952
0.000297759
0.000156213
0.000149629
0.00015007
0.000149943
0.000149786
0.000171366
0.000147543
0.000146031
0.0239003
0.000146773
0.0774832
0.000431447
0.000157884
0.093492
0.0175424
0.000156237
0.000172872
0.000148967
0.000177571
0.000149936
0.000148845
0.0279343
0.000148307
0.000152434
0.00075605
0.000149312
0.000147199
0.000162509
0.00027505
0.000149085
0.0001459
0.00676278
0.000179038
0.000146824
0.000165992
0.00987862
0.000146443
0.000149737
0.000145841
0.000147152
0.000144456
0.000145997
0.0576889
0.053737
0.000148948
0.0765315
0.000144424
0.000147358
0.000232042
0.000149392
0.0733798
0.000173796
0.000150148
0.000145916
0.000145734
0.000176186
0.000152147
0.00015636
0.000149267
0.0261409
0.000149483
0.00225047
0.000151068
0.00014743
0.00014707
0.000225394
0.000147536
0.000153727
0.000147307
0.000148673
0.0107686
0.000156075
0.000147602
0.000146606
0.00982193
0.000147199
0.00015641
0.000151511
0.000146229
0.070748
0.0923974
0.00014707
0.000148735
0.000156436
0.000144645
0.000147946
0.000147752
0.0129919
0.000147878
0.000147052
0.00015645
0.0405987
0.000171843
0.00014977
0.000159946
0.0163608
0.000168319
0.000147631
0.00014759
0.000202236
0.000150129
0.000147469
0.000156348
0.000147797
0.000145977
0.000150298
0.00014503
0.000160796
0.000147462
0.000147567
0.0189926
0.000146237
0.000151599
0.000148318
0.000149097
0.000160758
0.000147095
0.000148086
0.000202305
0.000149616
0.0728203
0.000151966
0.000149868
0.000149831
0.000181214
0.000147583
0.000147634
0.000147919
0.000150746
0.000155662
0.0847856
0.000147233
0.000160725
0.000375032
0.000168275
0.000149716
0.000147705
0.00014972
0.000149291
0.000147066
0.0334533
0.0179677
0.000148374
0.000158385
0.000161524
0.000160898
0.000148279
0.000145542
0.011446
0.00017584
0.000315603
0.000145771
0.000149898
0.000149192
0.000146809
0.0461937
0.000162135
0.000150735
0.00014761
0.000147075
0.000148152
0.0174046
0.000156148
0.000148831
0.00983334
0.000231863
0.000193161
0.000166106
0.000147993
0.000147472
0.000181711
0.000169217
0.0414555
0.0224622
0.000152838
0.000153991
0.000149345
0.000152531
0.000148735
0.000149267
0.0212007
0.000145274
0.00014702
0.000176845
0.000149344
0.0114816
0.000151547
0.000193684
0.000157582
0.000149595
0.000153016
0.000156238
0.000172711
0.000166183
0.000168889
0.000149871
0.000177397
0.000150911
0.000147537
0.000148679
0.000149714
0.000148115
0.000153116
0.000171925
0.000160694
0.000148856
0.000149817
0.000147888
0.000147564
0.000171934
0.000147359
0.000151389
0.000140623
0.000145024
0.000169214
0.00018872
0.000148162
0.0305337
0.000169089
0.00014934
0.000208398
0.000148976
0.000149771
0.000147981
0.00014781
0.000149944
0.000153152
0.000148187
0.000217639
0.000149991
0.000147732
0.000149118
0.000160974
0.000163406
0.000147791
0.000155207
0.000147452
0.000164571
0.000147851
0.000157697
0.000146169
0.000150474
0.000145588
0.000147439
0.0792116
0.00014586
0.000170569
0.000147733
0.000151858
0.000146111
0.000163988
0.000148376
0.000169898
0.000148459
0.000202192
0.000149723
0.0898337
0.000146042
0.00015127
0.000149791
0.000148091
0.000147623
0.000153052
0.000148115
0.000170996
0.0105978
0.0102735
0.000153893
0.000160064
0.000146968
0.000161163
0.000177251
0.00014793
0.000156135
0.000169184
0.0436125
0.00018901
0.00283297
0.000157058
0.000148488
0.000149498
0.000155887
0.000153231
0.000170197
0.000145205
0.000151816
0.000185982
0.000149742
0.000147561
0.000155807
0.0613121
0.000151042
0.000159178
0.000181771
0.000149645
0.0826331
0.000145335
0.000146772
0.000149388
0.00014782
0.0156654
0.000180509
0.0564889
0.000148228
0.000570564
0.0285469
0.000388734
0.000169869
0.000179446
0.000192816
0.000162288
0.000147998
0.000147337
0.000156781
0.0145562
0.000146949
0.000156937
0.0680608
0.000147453
0.000147279
0.000147607
0.000150379
0.000147572
0.000149115
0.000180533
0.0174791
0.000148952
0.00014788
0.0284319
0.0611612
0.000147007
0.000147634
0.000148942
0.00014718
0.000235546
0.00018053
0.000184625
0.000149762
0.000147243
0.000147695
0.000150136
0.000148239
0.000164051
0.000149742
0.0746839
0.000147938
0.000148369
0.000163362
0.000146885
0.00016699
0.000165669
0.000152501
0.00474973
0.0513249
0.000148508
0.000147053
0.0757943
0.0193606
0.000160371
0.000148882
0.0398389
0.000175597
0.000153639
0.000147928
0.000147791
0.000147319
0.000191136
0.0001538
0.000168959
0.00014977
0.0344086
0.000290402
0.000147716
0.000147853
0.00017034
0.000148905
0.000146093
0.000153535
0.0424219
0.0444822
0.0780755
0.000151141
0.000175961
0.000161885
0.000145432
0.000148045
0.000149222
0.000190065
0.000149314
0.000147708
0.000175985
0.000148226
0.000172612
0.000148627
0.0001486
0.000145823
0.000148915
0.000199679
0.000149262
0.000147333
0.000168181
0.000164736
0.000187988
0.000149342
0.000179042
0.0581636
0.0746039
0.000150354
0.0144742
0.0133703
0.000147458
0.00014474
0.000149824
0.000150937
0.0427139
0.000151645
0.000148708
0.000149315
0.0601985
0.000160883
0.000150918
0.000148849
0.000147631
0.000165037
0.000146189
0.000146941
0.000163547
0.000150188
0.0001493
0.000147364
0.000234049
0.000148058
0.000150091
0.000148074
0.000149227
0.000185975
0.000149289
0.00015054
0.000148359
0.000155377
0.000207272
0.000149941
0.000187399
0.000155101
0.0429425
0.000146184
0.000151807
0.000163304
0.000178831
0.000162586
0.000149717
0.00498795
0.088136
0.000149528
0.000147395
0.000561417
0.000148408
0.000149643
0.000146232
0.000149575
0.000170922
0.000149948
0.000149949
0.000165599
0.000157044
0.000157322
0.000157642
0.000150031
0.0774771
0.00015256
0.000213098
0.000147138
0.000176646
0.000160847
0.0615351
0.000153905
0.0425814
0.000149777
0.000157795
0.00014813
0.000148325
0.000147632
0.000193035
0.000160572
0.000177001
0.0150581
0.000148685
0.000252807
0.000158366
0.000147132
0.000157253
0.000160413
0.0501412
0.000147823
0.000155859
0.000163895
0.00015152
0.000160814
0.000149882
0.000144941
0.000149878
0.000186191
0.000148789
0.00014788
0.000146236
0.000146084
0.00014747
0.000147822
0.000149343
0.000146952
0.000148912
0.000149488
0.000153855
0.000157416
0.00014785
0.0452351
0.00014793
0.000502358
0.000159835
0.0378086
0.000163881
0.000157386
0.00738333
0.000163854
0.000188435
0.0797393
0.000164781
0.000149264
0.000146882
0.000150494
0.000186567
0.00014756
0.042183
0.000147394
0.00567315
0.0903677
0.000181053
0.000151442
0.0286173
0.0338577
0.000150795
0.0001478
0.000149735
0.000155075
0.000144875
0.000145745
0.000168353
0.0327247
0.000148402
0.000147522
0.000149257
0.000226011
0.000182243
0.000148948
0.00015434
0.000180438
0.000149441
0.000148061
0.0384014
0.000148945
0.000147352
0.000523009
0.000152136
0.000147942
0.00463619
0.0859911
0.0381945
0.000147555
0.000150779
0.000223223
0.000146255
0.000147667
0.000149886
0.000163048
0.00014818
0.000148624
0.000154352
0.000161676
0.000176772
0.000146519
0.000147834
0.000148408
0.000147472
0.000149616
0.000145099
0.000189467
0.000156932
0.000147854
0.000147836
0.000146403
0.000147678
0.000149863
0.0444398
0.000160096
0.000145877
0.000147538
0.000160709
0.0572224
0.000148166
0.000147724
0.000148078
0.000145751
0.00227699
0.000176685
0.000146873
0.000148301
0.000159719
0.000172064
0.000149047
0.000149874
0.000153287
0.000148652
0.000157353
0.000149182
0.08966
0.000162285
0.000148347
0.000155581
0.0374189
0.000156064
0.000202192
0.00015404
0.000189363
0.000149788
0.000150141
0.000155191
0.000180062
0.000147518
0.000148474
0.000149587
0.000151625
0.000169798
0.00017409
0.0962001
0.000151046
0.000147775
0.000156441
0.000147915
0.000147915
0.0851305
0.000151789
0.000148252
0.000147826
0.000183661
9.65171e-05
0.000147761
0.000148427
0.000182953
0.000147873
0.000148578
0.00014763
0.000182768
0.000151493
0.000157295
0.0052531
0.000148934
0.000149037
0.0589095
0.000147231
0.000175608
0.000147219
0.000151849
0.000162907
0.000148041
0.000148471
0.000150545
0.00015254
0.00840902
0.0001475
0.000148797
0.000178497
0.00015381
0.000882012
0.0510972
0.000164704
0.000149358
0.000211942
0.000148407
0.0506207
0.000149033
0.000148214
0.000146855
0.00949912
0.000149359
0.000149115
0.00014898
0.000164305
0.0563272
0.000156735
0.000168436
0.00014758
0.000148798
0.0001644
0.000158112
0.000146791
0.000154726
0.000147381
0.0667077
0.0344106
0.000148824
0.000150369
0.000149435
0.0938418
0.000148954
0.0086587
0.000147783
0.000147875
0.000146864
0.000149911
0.000153271
0.000149792
0.000147869
0.000148196
0.0302259
0.000186956
0.000147588
0.000154433
0.000154494
0.000162347
0.000148058
0.000153844
0.000150781
0.000147986
0.000150834
0.000163785
0.000149855
0.000147272
0.000154883
0.000147233
0.000184775
0.000151247
0.000177535
0.000148491
0.000148141
0.000148622
0.000185755
0.000162839
0.000146403
0.000154593
0.00017853
0.000149346
0.000146441
0.000155077
0.000149448
0.0103177
0.000180618
0.000153691
0.016737
0.00015067
0.000165006
0.000180655
0.000161345
0.000166621
0.00777342
0.00016345
0.000193002
0.000148719
0.000151279
0.00014737
0.000147915
0.000156866
0.000146858
0.000176459
0.000148031
0.000148081
0.000169766
0.000147617
0.000175038
0.000158474
0.000154102
0.000147408
0.000161433
0.0158247
0.000143949
0.000162457
0.0470291
0.000160786
0.000147657
0.000163328
0.000147803
0.000147015
0.0102959
0.000146809
0.000146387
0.000170993
0.000147849
0.000158787
0.000147081
0.000147907
0.0841042
0.000147598
0.00014588
0.000153806
0.000147561
0.000145898
0.000149648
0.00714246
0.000148593
0.000148435
0.000145653
0.000183582
0.000149335
0.000153305
0.00014763
0.000159883
0.000149903
0.00014755
0.000150644
0.000148552
0.000146366
0.000173221
0.000165127
0.000157864
0.000151229
0.000167011
0.00017882
0.000155157
0.000155636
0.000150328
0.0719773
0.000147856
0.000148146
0.000147319
0.000149549
0.000159811
0.000147154
0.0661287
0.0272445
0.0442193
0.000148432
0.000153898
0.000162321
0.000145129
0.000168092
0.000164342
0.000240654
0.000180047
0.0422913
0.000178655
0.000208129
0.040792
0.000156833
0.000152084
0.000154235
0.000146884
0.047663
0.000150326
0.000156411
0.000146641
0.000153624
0.000148187
0.0298702
0.0523144
0.000149296
0.0127088
0.000232674
0.000608056
0.000169267
0.000173219
0.000145882
0.0468869
0.000147901
0.0711197
0.023968
0.000149301
0.000147579
0.000147859
0.00015108
0.000156068
0.000163485
0.000199255
0.000148724
0.000148153
0.00015459
0.000150054
0.000148084
0.000154759
0.000146835
0.000148279
0.0175803
0.0001731
0.000148166
0.0811268
0.000152258
0.000149796
0.000151181
0.00020877
0.000147636
0.000146196
0.000184623
0.000186541
0.000147666
0.000154384
0.000285682
0.000171838
0.0354399
0.000146516
0.000197713
0.0462568
0.0762691
0.000148431
0.000147668
0.000178335
0.000154492
0.000163548
0.000149088
0.0555182
0.000170677
0.000195825
0.000148254
0.00014768
0.0130274
0.0035815
0.000148902
0.000149797
0.0411358
0.000147566
0.000146082
0.000148519
0.000152644
0.000149246
0.000156626
0.000148488
0.000153874
0.000145418
0.000163723
0.0146
0.000168508
0.000162743
0.0281757
0.000176931
0.000145805
0.000146981
0.000147638
0.000149877
0.000183373
0.000156654
0.000149955
0.000147962
0.000147771
0.000145141
0.000158409
0.000145307
0.000163029
0.000154422
0.000148716
0.0560888
0.0257085
0.000148563
0.0752529
0.00015939
0.000161394
0.000149737
0.000145646
0.0204681
0.000176568
0.000147335
0.000146263
0.000147628
0.000156292
0.000149725
0.000197846
0.000144685
0.000148281
0.000148317
0.0501459
0.0447794
0.00014543
0.000148209
0.00017929
0.000196607
0.000152685
0.0838091
0.0578004
0.000148373
0.000148847
0.000148579
0.000150576
0.0431056
0.000148145
0.000149886
0.000187336
0.00018004
0.000149357
0.000147642
0.00016583
0.000149881
0.00014838
0.000179666
0.000180808
0.0368055
0.000147724
0.000186709
0.000161106
0.000175518
0.000150676
0.000155949
0.000147537
0.000149521
0.000171531
0.000154396
0.000147903
0.000153736
0.0242325
0.000145035
0.000146859
0.000145052
0.000170034
0.00014757
0.000148448
0.000144051
0.000147581
0.000240485
0.0734879
0.00014883
0.0546785
0.0426333
0.0369658
0.000147557
0.000147883
0.000146783
0.00014738
0.000148666
0.000148902
0.000145356
0.000148419
0.00014638
0.000152383
0.0259477
0.00016085
0.0222499
0.000162106
0.000148083
0.000150813
0.000159947
0.000148709
0.000146952
0.000162894
0.000159567
0.000230626
0.000169406
0.000145246
0.0543221
0.00015019
0.000144666
0.000147648
0.000143542
0.000169233
0.000150119
0.000154839
0.000148362
0.000148509
0.000158155
0.000168821
0.000161824
0.0735127
0.000148437
0.00014804
0.000231116
0.000161795
0.000153779
0.000190276
0.000151957
0.000167906
0.000203277
0.000174294
0.00911101
0.000147287
0.000148215
0.000147466
0.000148203
0.000148516
0.000151342
0.000167609
0.000178799
0.0419524
0.000148361
0.0792014
0.0378713
0.000156344
0.000327741
0.00014882
0.000180527
0.0198358
0.000147262
0.000183269
0.000146287
0.000248521
0.000149251
0.000209975
0.000147095
0.000715194
0.000169937
0.0236167
0.000146881
0.000197709
0.000147231
0.000152026
0.000668838
0.000146825
0.00940729
0.0472637
0.0355657
0.0493825
0.000184721
0.0413476
0.000164226
0.000148019
0.000163836
0.000169529
0.0959265
0.000148391
0.000147949
0.000150615
0.000167735
0.000147923
0.000148853
0.000148834
0.0354042
0.0548288
0.000147637
0.0655274
0.000165998
0.000146047
0.000162595
0.000155663
0.060346
0.000158396
0.000146897
0.000199243
0.00014836
0.000147442
0.000148472
0.000183403
0.000175496
0.000147629
0.00015488
0.000148628
0.000149712
0.000146452
0.0479944
0.000149895
0.000146561
0.0706232
0.00019774
0.000153771
0.000147443
0.0401827
0.000156209
0.000151024
0.000147822
0.000163894
0.000151982
0.000159437
0.000153462
0.0669924
0.000164056
0.000175111
0.000145102
0.000166459
0.000175217
0.000160269
0.000149254
0.0782047
0.000149651
0.000196066
0.000147255
0.000149221
0.000165961
0.000206436
0.000152656
0.000155353
0.000148646
0.00016063
0.000176966
0.000187238
0.000156415
0.000149944
0.000147589
0.000155625
0.00018702
0.000147526
0.000169719
0.000147981
0.000147577
0.0278214
0.000147396
0.0505839
0.000147882
0.000154966
0.000181076
0.000147734
0.000159894
0.000192694
0.000183335
0.000147844
0.000186292
0.000150949
0.000149732
0.000147541
0.0234438
0.0654078
0.0001474
0.000147629
0.000147074
0.000146991
0.000183218
0.0688365
0.000147739
0.000230877
0.000146182
0.000146483
0.00014721
0.0317313
0.000150515
0.000151969
0.000147644
0.000148048
0.000147677
0.000149684
0.000149704
0.000161724
0.0031191
0.000146664
0.000147657
0.00016072
0.000175322
0.000146589
0.0691439
0.000170356
0.000146833
0.000145875
0.000150478
0.00019004
0.000146836
0.000184577
0.00015777
0.00015452
0.000146778
0.000169565
0.000144717
0.000173416
0.000156072
0.000149254
0.081444
0.0127408
0.000144011
0.000147109
0.0144425
0.000186611
0.000180425
0.000156091
0.000184319
0.000146076
0.0524827
0.000183319
0.000148391
0.0340508
0.0862706
0.000150968
0.000166821
0.000172197
0.000146843
0.0772346
0.000148705
0.000158049
0.000158944
0.000148917
0.000148178
0.000164312
0.00014707
0.000147086
0.00014705
0.00104833
0.000147271
0.000147401
0.000146778
0.00014719
0.000147345
0.00014949
0.000175287
0.000161608
0.00015374
0.000149633
0.000332734
0.000148985
0.000146854
0.000147336
0.000146951
0.000148449
0.000147636
0.000160177
0.000184345
0.000149444
0.000160978
0.000163278
0.000146962
0.000156033
0.0453323
0.000150435
0.000144932
0.000148415
0.000167302
0.000149288
0.000149291
0.000152977
0.000153412
0.0583997
0.0119743
0.000146677
0.000146904
0.000147528
0.000166572
0.000159235
0.000146854
0.000155933
0.000168701
0.000148672
0.000155185
0.000148784
0.000180826
0.000160056
0.000151932
0.000174627
0.000154886
0.0330114
0.000149305
0.000147225
0.0551806
0.000171383
0.000153267
0.000137884
0.000168215
0.0171194
0.000162675
0.00020026
0.000156245
0.000156587
0.0155442
0.00015521
0.00618133
0.000163429
0.000182797
0.0277227
0.000149951
0.000148558
0.000147776
0.000194573
0.000144108
0.0112322
0.000166769
0.0204602
0.000150503
0.000170788
0.000196249
0.000147462
0.000148766
0.000166985
0.000158336
0.000148468
0.000157819
0.000167895
0.000179053
0.000176731
0.000189151
0.0192143
0.000181017
0.000148652
0.00014928
0.0629307
0.000166677
0.000150199
0.00016139
0.0394572
0.000149414
0.000154376
0.000147533
0.000156888
0.000148117
0.000148583
0.000160001
0.000148483
0.00015644
0.0233691
0.0143702
0.000145974
0.000154101
0.00015795
0.000186945
0.000162743
0.000150129
0.000147364
0.000169826
0.00610749
0.000147527
0.000153357
0.00014861
0.0863392
0.000146965
0.000159045
0.0111492
0.00663861
0.000149795
0.000173478
0.000175225
0.000173654
0.000154076
0.000147977
0.0622408
0.000146855
0.000158137
0.000148859
0.000161003
0.00014608
0.000146686
0.000148919
0.000175166
0.000146942
0.000147686
0.000147277
0.000149613
0.000147059
0.000148398
0.000180181
0.0382832
0.0540444
0.000155984
0.000148258
0.000157852
0.00015314
0.0423146
0.00014989
0.000176161
0.000145563
0.000147889
0.00015059
0.000162887
0.0690526
0.000147704
0.025885
0.000149744
0.000144768
0.000151392
0.0790448
0.000151248
0.000161546
0.0518014
0.000149889
0.000148718
0.0117751
0.000147376
0.0453115
0.00014847
0.00016309
0.0257685
0.000151701
0.000148529
0.000146865
0.0159076
0.000157832
0.000147144
0.000206953
0.000147661
0.000151516
0.000178488
0.0435477
0.000179153
0.0446941
0.0180012
0.000167643
0.000151588
0.000177031
0.000202124
0.000148284
0.00014728
0.000150523
0.000159737
0.000167269
0.000147857
0.000153715
0.000147243
0.00014765
0.0507802
0.000149453
0.0251312
0.000145519
0.000166208
0.000182037
0.000146646
0.000144727
0.0405005
0.0509551
0.000172799
0.000148419
0.000154142
0.000179407
0.000146366
0.000165728
0.000182567
0.000168065
0.000160188
0.022719
0.0329198
0.000144761
0.000148783
0.000145469
0.000149229
0.000152234
0.000160622
0.0101574
0.00014869
0.000147714
0.00017468
0.0272348
0.000145632
0.00065115
0.000146432
0.00018896
0.000174159
0.0700363
0.00018448
0.00016416
0.000164437
0.000145395
0.000144625
0.000201522
0.000154618
0.000148464
0.000292612
0.000146922
0.000148443
0.000145442
0.000170642
0.000181549
0.000231029
0.000173064
0.00016007
0.00015813
0.000149588
0.0383998
0.00312862
0.000151132
0.000147779
0.000147176
0.000189489
0.0715968
0.00016035
0.0755716
0.000150406
0.000146816
0.0316938
0.000147784
0.0486239
0.0671683
0.000146472
0.000158596
0.0413302
0.000152609
0.000160077
0.000147173
0.0399568
0.000157728
0.000175899
0.00999149
0.0398582
0.00015974
0.000161725
0.000148803
0.000184053
0.0470117
0.0001527
0.000153802
0.0390801
0.000163277
0.00016646
0.000149739
0.0871227
0.0126016
0.00016877
0.000147867
0.000157986
0.000147175
0.000419509
0.00017863
0.000162662
0.0699578
0.0309526
0.000145525
0.0001914
0.000148555
0.0086123
0.000169074
0.000159429
0.000156928
0.000287455
0.000143808
0.000181507
0.0123335
0.0447658
0.000151018
0.00014806
0.00014646
0.000170109
0.00132122
0.000190753
0.0450009
0.000192158
0.000165364
0.000147303
0.0372086
0.000180699
0.000156872
0.000178194
0.00598465
0.0269335
0.0185647
0.0292587
0.0298977
0.0186518
0.000148323
0.000156398
0.000161625
0.000149315
0.0338208
0.00029082
0.00014798
0.0795065
0.000148757
0.000147866
0.000146318
0.000161635
0.000147039
0.0319413
0.000164464
0.00579929
0.000147969
0.000231077
0.000163067
0.000218093
0.0155671
0.000151967
0.000159182
0.000161848
0.000165453
0.000147217
0.000146704
0.000147147
0.0289354
0.000146443
0.000147124
0.00861101
0.000153184
0.0477712
0.000148152
0.0483286
0.000147671
0.000148257
0.00014787
0.000147973
0.000159602
0.000153547
0.0484352
0.000157867
0.000169314
0.0601708
0.00014713
0.0593106
0.000146618
0.0536287
0.106519
0.0481247
0.00017686
0.000147961
0.000149799
0.0700046
0.000149751
0.000158247
0.00014863
0.000162013
0.0536572
0.000147053
0.000146901
0.000147302
0.000149745
0.051869
0.071892
0.000147296
0.000144085
0.0350766
0.0752662
0.000147023
0.0972481
0.000149738
0.0677274
0.0482865
0.00018191
0.000194675
0.000216212
0.000168022
0.0276349
0.000186477
0.000147992
0.000145105
0.000146432
0.0605168
0.0760651
0.000150991
0.000155944
0.0285048
0.000147004
0.0224533
0.000148338
0.000149248
0.000146032
0.0143953
0.000183918
0.000146933
0.0351655
0.000149657
0.0722718
0.0732222
0.000146777
0.000148624
0.00018748
0.000147684
0.000149092
0.000146706
0.0660012
0.00015837
0.000148059
0.000148762
0.0739831
0.000147819
0.000162834
0.000147825
0.0436335
0.000148554
0.000173091
0.000161645
0.0354338
0.079834
0.000159855
0.000186741
0.000174018
0.00014838
0.000170671
0.0441863
0.000147103
0.000180894
0.000146363
0.000231145
0.000147285
0.0494726
0.077343
0.000170635
0.0273128
0.036326
0.000160653
0.000151488
0.00079927
0.000147365
0.0510227
0.00015372
0.000303089
0.000147348
0.000158897
0.000167337
0.000157404
0.000148473
0.000147881
0.000149237
0.0116701
0.000176924
0.0301681
0.044869
0.000155442
0.000145613
0.000165142
0.0549442
0.00015915
0.000147273
0.000148407
0.00718233
0.00908156
0.0410618
0.0220877
0.000163882
0.000148968
0.000146435
0.000172086
0.000169455
0.000266009
0.000147907
0.000148344
0.00900164
0.000174845
0.000149893
0.000178781
0.000267261
0.000184673
0.000146774
0.000163462
0.000230928
0.000301921
0.0813114
0.000186124
0.000147306
0.000149774
0.000150515
0.00014989
0.000147925
0.000148487
0.000159388
0.000178983
0.0001626
0.000160154
0.000157327
0.000149181
0.000154478
0.000151571
0.000160358
0.000158912
0.00014717
0.000157328
0.000147502
0.000146763
0.000149662
0.000148696
0.000203338
0.000145796
0.000167843
0.00027497
0.000380518
0.0526765
0.0265966
0.000154328
0.000149533
0.000147257
0.0640237
0.000149155
0.000144461
0.000149079
0.0756007
0.000157911
0.000163201
0.000216944
0.000151284
0.000148108
0.000158612
0.000147096
0.00016359
0.000149893
0.000159885
0.0001469
0.000147704
0.00015077
0.000151501
0.000156738
0.000277922
0.000167411
0.000174691
0.000173325
0.000192715
0.0001664
0.000175083
0.000148935
0.0249739
0.000152631
0.000154948
0.000147741
0.000151747
0.000176236
0.000147814
0.000168068
0.005235
0.00015641
0.000186829
0.0001795
0.000165152
0.000169759
0.000166852
0.000147576
0.000158017
0.000148485
0.000172769
0.00016782
0.0616733
0.000146379
0.000167466
0.000154482
0.0422423
0.0384606
0.000169437
0.000148535
0.000169746
0.00014501
0.000177087
0.000150419
0.0543531
0.00014584
0.000153994
0.000148002
0.000161273
0.00019822
0.000159243
0.0483483
0.000148153
0.000164729
0.000166872
0.000147999
0.0713942
0.0647176
0.00019484
0.00017911
0.000168695
0.000148161
0.000147417
0.063133
0.000177816
0.00014707
0.000151211
0.000153134
0.000147555
0.000208531
0.000146912
0.057598
0.000186739
0.000193754
0.000162355
0.000149127
0.00014578
0.000147834
0.000182762
0.000167673
0.000154675
0.0247377
0.000149075
0.000150765
0.000155244
0.0779454
0.000145357
0.0231982
0.000143795
0.049401
0.000147275
0.000147322
0.000159901
0.000147729
0.000148832
0.000189015
0.000148369
0.000149066
0.000147413
0.00016661
0.000154592
0.0417441
0.000147858
0.000148442
0.0001468
0.000190255
0.000146623
0.000156112
0.000169172
0.0701974
0.0709775
0.000494156
0.000212822
0.000211626
0.000165675
0.000166109
0.000155127
0.000149643
0.000148696
0.0569724
0.000165086
0.000144766
0.000147688
0.000147549
0.000159042
0.000173814
0.000149648
0.000156935
0.000187467
0.000197027
0.000174757
0.000147683
0.000149549
0.0555855
0.000153793
0.000146233
0.0702988
0.0789578
0.000146248
0.000144279
0.000155277
0.00014825
0.000159825
0.000149627
0.103955
0.000149799
0.0422943
0.00014822
0.0107458
0.000158851
0.000147799
0.000180635
0.000145671
0.000149357
0.000149742
0.000161779
0.000230294
0.00014727
0.000195494
0.000149895
0.000149267
0.000170566
0.000147585
0.000148748
0.00014856
0.000144434
0.000147902
0.000145152
0.000149021
0.0505408
0.000146954
0.000147326
0.000166037
0.000145834
0.000147565
0.000149028
0.000149148
0.0786546
0.000189526
0.000148486
0.000152402
0.000148777
0.000149894
0.000160173
0.000148221
0.000147733
0.00839521
0.000147655
0.000169188
0.000179573
0.000161184
0.000148429
0.000207344
0.000147597
0.00056382
0.000165543
0.00014854
0.0737814
0.0343294
0.000155772
0.000172382
0.000147247
0.000147279
0.000162756
0.000190821
0.000147271
0.000146868
0.000149299
0.000165478
0.000148575
0.000161322
0.000148625
0.000168471
0.0147988
0.000161827
0.000175164
0.000147236
0.000157303
0.000157128
0.0001621
0.000145979
0.000147521
0.000150641
0.000160695
0.000167152
0.000149224
0.000191885
0.000148913
0.0530026
0.000144828
0.000146407
0.000175809
0.000149792
0.000180029
0.000188901
0.000162244
0.000149227
0.000150652
0.000148886
0.000162583
0.000148381
0.000164012
0.000156987
0.000148633
0.000146276
0.000155687
0.0765454
0.000159961
0.000164526
0.0737356
0.0977597
0.000162386
0.000145003
0.0509098
0.000147897
0.000153149
0.000149344
0.000187052
0.000148377
0.000160817
0.000155695
0.000151621
0.000148699
0.000154413
0.000149269
0.000175464
0.000147498
0.000149161
0.000147962
0.00015751
0.039002
0.00014816
0.0156597
0.000167587
0.000144385
0.0788522
0.00567482
0.000148341
0.000152546
0.000189015
0.000146766
0.000147509
0.0568323
0.00014802
0.0479978
0.000153688
0.000153573
0.000149938
0.000151026
0.000147663
0.000148229
0.000164742
0.000149684