/*--------------------------------*- C++ -*----------------------------------*\
| =========                 |                                                 |
| \\      /  F ield         | OpenFOAM: The Open Source CFD Toolbox           |
|  \\    /   O peration     | Version:  v2012                                 |
|   \\  /    A nd           | Website:  www.openfoam.com                      |
|    \\/     M anipulation  |                                                 |
\*---------------------------------------------------------------------------*/
FoamFile
{
    version     2.0;
    format      ascii;
    class       surfaceScalarField;
    location    "1000";
    object      phi;
}
// * * * * * * * * * * * * * * * * * * * * * * * * * * * * * * * * * * * * * //

dimensions      [0 3 -1 0 0 0 0];
oriented        oriented;


internalField   nonuniform List<scalar> 
14907
(
-0.446794
0.314618
0.132179
-0.58173
0.362024
0.219692
-0.219474
-0.0289159
0.248364
0.59062
-0.590602
-0.0508761
0.0249576
0.0259184
0.427111
-0.529389
0.102197
0.0348564
-0.0123059
-0.0225506
0.123053
-0.120255
-0.00279856
0.40111
-0.23297
-0.16813
-0.372399
-0.10723
0.479573
-0.00674209
-0.000578158
0.00732025
0.0652318
0.525414
0.355843
-0.614494
0.258551
0.646183
-0.342168
-0.304173
0.228706
-0.118975
-0.109735
0.54176
-0.362488
-0.179219
0.309104
0.232706
-0.290501
-0.300947
0.591413
-0.25782
-0.188967
-0.00985108
0.0677014
-0.0578504
-0.387085
-0.143432
0.53067
0.092004
0.0655159
-0.15752
0.396916
-0.625838
0.228808
-0.546386
0.284067
0.262168
-0.33721
-0.244535
-0.259293
0.131268
0.128022
0.630689
-0.368354
-0.262225
0.263629
-0.150524
-0.113113
0.394749
-0.203012
-0.191719
-0.298375
0.199376
0.0989886
-0.171678
0.409139
-0.237451
6.82702e-05
0.00666598
-0.00673426
0.213271
-0.585789
0.128752
0.123826
-0.252582
-0.10745
0.230758
-0.123317
-0.305502
-0.241035
-0.294975
0.149567
0.145406
0.0767654
0.132118
-0.208884
-0.580186
0.274663
-0.0903907
0.144698
-0.0543123
0.0362933
-0.0461444
-0.228238
0.127096
0.101136
0.0211687
0.0136876
-0.147445
0.285761
-0.138335
-0.0298783
-0.0209979
-0.159814
0.232373
-0.0725624
-0.276993
0.206512
0.0704698
-0.124928
-0.0637852
0.188712
-0.0496139
-0.153746
0.203349
-0.186687
0.278858
-0.0921737
-0.582822
0.114984
0.46784
-0.0754031
-0.200515
-0.0289106
0.160964
-0.132062
0.378954
-0.265538
-0.113428
-0.118262
-0.176716
0.433572
-0.00649114
0.30874
0.0860255
-0.169424
-0.107584
0.275416
-0.146677
-0.176647
0.147724
0.29759
-0.494493
0.196971
0.305015
0.141545
-0.4465
-0.221746
0.114287
0.0918738
-0.311376
-0.269663
0.210633
0.0590301
-0.144679
-0.109683
0.254349
-0.0870337
0.233535
-0.146505
0.085243
-0.0761884
-0.00905484
0.00141323
-0.00321481
0.00180155
-0.161893
0.347886
-0.185996
0.221287
0.157657
0.0595019
0.136735
-0.284197
0.130257
-0.155134
0.024877
0.181105
0.0843607
-0.265482
0.495667
-0.211852
-0.00395389
0.0289114
0.415206
-0.218439
-0.196762
0.16432
-0.0936678
-0.0706536
-0.0181836
0.0261868
-0.00800318
-0.178727
0.129109
-0.0765618
0.0466833
-0.133459
-0.139004
0.272441
0.24111
-0.126459
-0.114657
-0.255451
0.168409
0.522864
0.0820576
-0.604939
0.0937652
-0.292334
0.198545
-0.00433758
-0.0974691
0.101806
-0.327022
0.111968
0.215036
0.353553
-0.259791
-0.154247
0.276378
-0.122136
-0.0415434
-0.0350185
0.186805
0.0768159
-0.288749
-0.16469
-0.133696
0.139732
-0.285491
0.145759
0.488658
-0.197537
-0.291112
0.16155
0.157726
-0.319277
-0.191042
0.100645
-0.398474
0.125716
0.272774
0.395
0.202015
0.106773
-0.12212
0.0153449
-0.100102
0.0368878
0.0632139
0.54694
-0.0241294
0.257075
-0.147135
-0.109945
-0.121852
0.128541
-0.00668924
-0.391903
0.30929
0.0825816
0.157464
0.331198
-0.590135
0.203196
-0.242651
-0.267628
0.574185
-0.302007
-0.27226
-0.464747
0.325395
0.139364
0.220231
-0.133097
-0.0871436
-0.0026409
0.00405411
-0.203789
-0.0658752
-0.239864
0.437564
-0.197692
0.262608
-0.352658
0.0900406
0.157391
0.297048
-0.157315
0.00102697
-0.00133128
0.000304287
-0.131085
-0.19596
0.0582796
0.0647726
-0.145813
0.284369
-0.138566
0.191473
0.187185
-0.378668
0.13415
-0.0273781
-0.26882
0.135346
-0.0972232
-0.0230319
-0.220105
0.182176
0.0379211
-0.013266
-0.108587
-0.164159
0.372225
-0.208059
0.0478806
0.116438
-0.365482
0.215333
0.150142
0.00100977
-0.00661157
0.00560179
-0.167461
0.0958367
0.0716228
-0.224809
-0.17365
-0.0926932
-0.0602227
0.152914
-0.00484757
-0.000920441
0.00576799
0.126388
-0.280653
0.0472575
-0.172186
0.0878481
-0.0921861
0.145399
-0.251905
0.106494
0.00998677
0.252613
-0.133518
0.247855
-0.114348
0.111586
-0.10516
-0.00642679
-0.239803
0.354936
-0.115159
-0.279131
-0.185609
0.132419
-0.0137773
-0.118645
0.446396
-0.222015
-0.224367
0.312409
-0.150854
0.231936
-0.129572
-0.102369
-0.364747
0.163655
0.201093
-0.00805051
0.529079
-0.521036
0.00143402
-0.00816102
0.0067272
-0.00100244
-0.00173777
0.00274018
0.581957
-0.305142
-0.276638
-0.195107
0.55085
0.244875
-0.116113
-0.128768
-0.049626
0.354689
-0.132642
0.0399472
0.0039062
-0.00625266
0.00234645
0.00857902
-0.00289561
-0.00568342
-0.175707
0.0934049
0.0823002
-0.137647
-0.216153
0.353789
-0.190823
-0.173922
-0.14036
-0.134883
0.275224
-0.190536
-0.174955
-0.106474
4.53511e-05
0.106428
0.0242682
-0.020362
0.00740883
-0.00655453
-0.00152152
0.000519047
0.126328
0.163718
-0.290061
-0.463314
0.282811
0.180418
0.016563
-0.0581065
0.066231
-0.0635772
-0.00265398
0.0260494
0.0895051
-0.115556
0.0161694
-0.0160771
-9.21104e-05
-0.00403766
0.00561254
-0.00157488
0.280699
-0.152028
-0.128687
0.0607682
0.0244746
0.102247
0.08417
-0.186423
0.110793
0.134076
0.00474017
-0.00467191
-0.100906
-0.151997
0.252889
-0.0863636
-0.133752
-0.12057
-0.107675
0.000213876
0.000813057
-0.104758
0.125289
-0.0205316
0.258489
-0.103777
-0.154719
-0.000596603
0.00610976
-0.00551316
-0.113163
-0.126767
0.239927
0.0556605
0.0150244
-0.0706849
-0.262494
0.128963
0.00617165
-0.00473747
-0.0722483
0.088811
0.154725
-0.0155461
-0.13918
0.00899833
0.0653486
-0.0743472
-0.134843
-0.0949953
0.229836
-0.218796
0.390678
-0.171907
0.367384
-0.562599
-0.286693
0.211516
0.0751698
0.0142019
0.102926
-0.11713
0.254224
0.00426268
-0.102407
0.326598
-0.224193
0.00710553
0.0591253
0.132625
-0.402448
0.451173
-0.0486966
0.00410257
0.0515579
0.412523
0.141421
-0.553754
-0.297949
-0.292595
0.590476
-0.528215
-0.00963391
0.537679
-0.0921644
0.101162
-0.618348
0.60643
0.0119521
-0.107469
0.000994409
0.0843324
-0.090998
0.00666551
-0.25525
0.13913
0.0213041
-0.126063
-0.119896
0.300992
-0.181116
-0.308874
-0.154799
0.463587
-0.170868
0.143813
0.027053
0.476668
-0.202888
-0.273785
0.142933
0.0772883
0.236965
-0.115118
-0.121852
0.0130163
-0.0970824
0.0840659
-0.117548
0.194314
-0.192011
0.152807
0.0391983
-0.222406
0.107927
0.114477
0.166983
-0.0795883
-0.087395
0.456226
-0.254252
-0.201962
0.136334
-0.0203967
-0.115938
0.37194
-0.15066
0.210294
-0.0569915
-0.0059312
0.0629225
-0.263064
-0.200329
0.208096
0.163835
0.188778
-0.217722
0.175374
0.0565568
-0.177368
-0.20809
0.385493
-0.733911
0.482205
0.251616
-0.0899839
0.239712
-0.149736
0.293552
-0.16069
-0.132862
0.22606
-0.363704
0.134874
0.142744
-0.283121
-0.228011
0.0949038
-0.389297
0.149461
-0.415624
0.243954
0.55704
-0.000704862
-0.556482
0.103749
0.153321
0.0820001
-0.271768
0.189751
-0.693003
0.402475
-0.32865
-0.214592
0.543262
-0.342795
0.180898
-0.130023
-0.0609675
0.19098
-0.0665886
0.0796047
-0.0873772
-0.0883319
-0.00633495
0.00573834
0.111545
-0.0854972
0.023973
0.0913986
-0.115373
0.075058
0.153644
-0.00945013
0.189002
-0.179554
-0.0456823
0.0353016
0.0103803
-0.274404
0.184413
-0.227549
-0.164391
-0.398666
-0.335332
-0.161306
-0.125396
-0.378274
0.200927
-0.0955336
0.187537
0.257368
-0.0515278
-0.205848
0.189392
-0.521785
-0.00665617
-0.0904973
0.104698
-0.183547
0.0871992
-0.00286695
0.113477
-0.0120975
-0.0907571
0.102854
-0.219047
0.105883
0.176365
0.117187
0.196014
0.199334
-0.395335
0.00221407
0.133964
-0.136187
0.0489412
-0.288766
0.173483
-0.0712417
0.260414
0.00105993
-0.261492
-0.109729
0.00528531
-0.00427556
0.00458468
-0.407034
-0.377821
0.246983
0.130822
-0.0260053
-0.0196772
-0.169267
0.196605
-0.300403
0.180613
0.270831
-0.45142
0.100916
-0.230951
0.0108279
0.00534178
0.0340603
-0.155275
0.12121
0.119658
-0.00807382
0.00862849
-0.591462
-0.175859
0.54315
0.177105
0.102002
-0.334962
0.0989475
0.0680345
-0.363206
0.24554
0.117661
-0.117851
0.415531
-0.322264
0.401938
-0.0796798
-0.315835
0.195922
-0.241886
0.134561
0.107324
-0.123737
0.185501
-0.0617677
0.0171006
-0.105739
0.0886378
-0.00905667
-0.014427
0.0234835
-0.0599292
-0.11673
0.0192449
0.0350624
-0.0543075
0.222249
-0.406281
0.184079
0.167226
-0.165018
0.258946
0.371843
0.00995627
-0.0102068
-0.109134
0.12788
-0.0187475
0.00343871
-0.0892236
0.0857845
-0.00426769
-0.174737
-0.293892
0.468502
0.227196
0.0301623
0.122163
0.225721
0.0946785
0.104371
-0.199058
-0.0911407
0.644596
-0.343037
-0.301562
-0.20519
0.138449
0.0667366
0.39557
0.178575
-0.588147
0.602929
-0.0149321
0.13372
-0.081262
0.0983621
0.587906
-0.344501
-0.243374
0.155701
-0.282478
0.304307
-0.165765
-0.138555
-0.207636
0.0838911
0.0029737
-0.00506343
0.00208972
-0.167021
0.257787
0.324333
-0.34159
-0.231913
0.57335
-0.216335
0.308177
0.0974895
0.0583352
-0.155829
0.139477
0.0152458
-0.0213149
0.112712
-0.00838773
0.0995406
-0.0911531
-0.177939
-0.0639466
-0.230847
0.144475
0.113759
0.247379
-0.148555
0.276654
-0.128101
-0.596059
0.295069
0.1245
-0.0183819
-0.106119
0.0023789
0.258019
0.130727
-0.107118
-0.094391
0.201507
0.222981
-0.035878
-0.118243
0.154113
0.120534
0.0983924
-0.205512
-0.127288
0.2535
-0.126225
-0.128375
-0.0636436
0.118127
-0.131394
-0.124901
-0.0802933
-0.0746271
0.228561
-0.153946
-0.387349
0.225202
0.162129
0.054937
-0.0633251
0.126458
0.00595853
0.0151647
0.189607
-0.204778
0.16292
-0.0654347
0.145514
-0.367247
0.221669
0.184178
-0.447292
0.397667
-0.252206
-0.154822
0.118937
0.00640779
0.0894609
-0.095869
-0.158843
0.247855
-0.0890194
-0.602005
0.339351
0.262625
-0.184169
0.124231
0.299903
0.297112
0.334148
0.253787
0.00412403
0.164206
-0.38302
0.185369
-0.414796
0.229465
0.00131488
-0.00616247
-0.201409
-0.26079
0.462163
-0.0813393
0.0287999
0.0525388
0.101948
0.0225521
0.111174
0.0190815
-0.00269388
0.004292
-0.00159817
-0.00588099
-0.107167
0.183791
-0.0766287
-0.074774
0.0177824
0.334761
-0.57268
0.238103
0.0213563
-0.208045
0.322397
0.274618
0.289588
-0.168643
-0.120963
0.197929
-0.0580565
-0.139874
-0.637906
0.224688
0.413211
0.20376
-0.109088
-0.0236033
0.0754616
-0.151989
0.548855
0.363888
-0.507133
0.0722836
-0.0863828
0.0140987
-0.0350212
0.0500456
0.150947
-0.260639
-0.210073
0.415696
-0.205631
0.00127738
0.00613145
0.0250151
-0.146524
0.429232
-0.0105574
-0.0656312
0.00200144
0.349128
0.127547
-0.316699
-0.285339
-0.45047
0.243832
0.206642
-0.178208
0.365953
-0.187719
-0.564333
-0.0238767
-0.360206
0.364785
0.0741816
-0.0418232
0.120147
-0.00986211
0.0394877
-0.0296257
-0.583912
0.241694
-0.189742
-0.173468
-0.0770357
-0.0230022
0.100038
-0.24403
0.297558
-0.0535549
-0.0444521
-0.105481
0.139537
0.0945758
-0.221038
-0.217387
-0.169198
0.386519
-0.423737
0.213618
0.0906626
-0.0955913
0.00492857
-0.145454
0.0754839
-0.182657
-0.116767
0.253671
-0.136913
0.000296855
-0.00703895
-0.131828
-0.123428
-0.0688098
0.103572
-0.222552
-0.266376
-0.206499
0.472818
0.18332
0.114491
-0.0408123
-0.0736794
-0.192751
0.464253
-0.271545
0.134551
0.0558162
-0.190368
0.186452
-0.312433
0.125982
0.164702
-0.291993
-0.00619387
-5.88085e-05
-0.101787
0.229404
-0.127612
-0.102042
-0.183177
0.28523
0.00590145
0.546267
-0.552328
-0.0100998
0.00323753
0.00686224
-0.176874
0.374416
-0.197515
-0.195531
0.093745
0.255793
-0.152546
-0.103252
-0.182238
-0.0539428
0.0440805
0.00813399
-0.512528
0.418031
0.0945278
-0.0253214
-0.178467
0.0812811
-0.24013
-0.504451
-0.499331
0.199614
0.299775
0.181324
-0.387475
-0.00314832
0.00824361
-0.00509529
0.192807
-0.395695
-0.469796
-0.148518
0.0742636
-0.156179
0.081913
-0.0546615
0.117875
0.160288
-0.0160665
-0.144224
-0.593236
0.295232
-0.0975802
0.181744
-0.00117102
0.246873
-0.112313
-0.358761
0.185888
0.172873
-0.196687
-0.190681
-0.0894021
-0.0780604
0.214834
-0.19968
0.20463
-0.471024
-0.0746186
0.165423
-0.0908062
-0.261055
0.363059
0.068417
-0.428661
0.169825
0.0671357
-0.225358
0.433857
-0.208567
-0.121264
0.0351932
0.0860694
0.230154
0.0791075
0.258661
-0.451453
0.00721047
-0.00778863
0.538739
-0.255527
-0.283315
-0.135065
0.298761
-0.586961
0.199322
0.387576
-0.274333
0.157551
0.191708
-0.0532634
-0.360963
-0.151514
0.147963
-0.364314
-0.0828161
0.0785138
0.185126
-0.26365
0.0194989
-0.0225221
0.00302301
-0.110786
-0.163626
-0.298025
-0.397881
0.599903
-0.124625
0.0225685
0.102056
0.159443
-0.308868
0.149384
-0.311578
0.209535
0.232889
-0.587188
0.354374
-0.312575
0.153489
0.159083
-0.00792466
0.120909
-0.112987
0.0198161
-0.0379998
0.195358
-0.12839
0.00712433
0.0248904
0.12285
0.124023
-0.328427
-0.264406
0.592778
-0.194837
-0.172449
0.367289
-0.171618
0.327628
-0.156035
-0.4472
0.52925
0.382854
-0.196894
-0.185922
-0.00392989
-0.000205512
-0.00660261
0.00568216
-0.378005
-0.259908
0.0583533
0.123815
0.0143081
-0.168099
0.153789
-0.162347
0.176655
0.253956
-0.0728597
-0.311982
-0.283289
0.595197
-0.0905582
-0.0494436
0.140001
-0.00432395
0.0949862
-0.0457945
0.223661
-0.44102
-0.329841
0.158202
-0.339622
0.0955556
0.244451
-0.445929
0.00309694
-0.00153244
-0.00156453
-0.0918315
-0.0802839
0.17211
-0.12297
-0.154758
-0.185639
0.340408
-0.300801
-0.264773
0.565524
0.252602
0.07233
-0.324951
-0.14522
0.0945647
0.128932
-0.497232
-0.00958462
0.0064363
0.0256293
-0.0606506
-0.0182726
-0.0578881
0.0761606
0.08285
0.0456896
-0.190169
-0.358823
0.134026
0.255989
-0.142818
-0.113172
-0.114509
-0.0541666
0.168672
-0.00289033
0.00131163
0.00157867
0.00543596
0.0188322
0.204145
-0.121235
-0.0829164
0.17103
0.437812
0.1386
-0.576445
-0.096244
0.251938
-0.192176
0.166848
0.536875
-0.09912
0.00104064
0.00753838
0.44374
0.113186
-0.197755
-0.20848
-0.221631
0.109192
0.112436
0.125021
-0.572185
0.200273
-0.072563
-0.12771
-0.267523
0.156729
0.0969984
0.0391788
-0.136179
-0.0920308
-0.0830605
0.175086
-0.509775
0.500256
-0.094191
-0.155617
0.249798
0.0994029
0.131347
-0.155155
-0.0400466
0.125898
-0.043049
0.000379335
-0.083424
0.0830444
-0.284035
0.606287
0.149642
0.129213
-0.261221
0.140169
0.121037
-0.073007
-0.212485
-0.277821
-0.288694
0.566397
-0.269258
0.120694
0.280369
0.156165
-0.436528
0.0757644
0.044746
0.115539
0.0494575
0.0645336
-0.113992
-0.578788
0.353196
0.225609
-0.134313
0.212818
0.536095
-0.303237
-0.141765
-0.172224
0.313975
-0.0571779
-0.0175962
0.301042
0.23328
-0.534253
0.251984
-0.12115
-0.130839
0.144066
-0.0785507
0.197359
-0.422754
-0.12829
0.265926
-0.198293
-0.067634
-0.234999
-0.00152873
0.00113108
0.000397626
-0.0817882
0.196341
-0.114557
-0.563597
0.322291
0.241348
-0.0240563
-0.0827006
0.106756
0.0169276
-0.211048
0.194102
-0.596926
0.304267
0.161269
-0.309962
0.148686
-0.191283
0.376262
-0.184965
0.334914
0.262101
-0.242031
0.114991
0.127035
0.0281593
0.224431
-0.0322077
0.057837
-0.0948767
0.240266
0.189214
-0.384036
0.142662
-0.295689
0.153024
0.157945
0.0337597
-0.112325
-0.0835424
0.195863
-0.190506
0.381981
0.103569
-0.240246
0.136674
-0.171761
-0.18705
-0.0866663
0.218785
0.321969
-0.157216
-0.164757
-0.176791
0.0847544
0.403349
-0.217925
0.239645
-0.105477
0.18508
0.24518
-0.43028
-0.186295
-0.21612
0.402353
-0.00543702
0.0225753
-0.0171384
-0.257235
-0.19323
-0.0725714
0.0153932
0.387429
-0.206109
0.144195
0.133023
-0.277218
0.548689
-0.313032
-0.235722
0.231574
-0.122149
-0.109427
-0.30178
-0.285248
-0.184568
0.102777
-0.131188
0.327782
0.0755012
-0.099558
-0.219014
0.553122
0.0396712
-0.0185027
0.286993
0.159414
-0.131138
-0.0765041
0.472199
0.170063
-0.64213
0.193171
0.107801
-0.0465859
-0.320727
-0.159836
-0.0822007
-0.415603
0.227308
0.188312
-0.0583263
0.0181523
0.0267124
-0.0448646
0.124875
0.0753977
-0.22639
0.195046
0.0313409
0.097346
-0.118663
-0.14977
0.344696
-0.19494
-0.05193
-0.0759854
0.127914
0.119694
0.112676
0.509678
-0.296445
-0.154039
0.0794188
-0.080477
0.0808561
-0.0014876
-0.00140276
0.0838219
0.0870365
-0.0122313
-0.0748054
-0.131451
-0.142562
-0.125043
0.267598
0.353433
0.291163
0.248245
-0.081027
-0.195963
-0.0230867
-0.195958
-0.0100415
0.206007
0.320717
-0.116696
-0.113403
0.230085
0.0281822
-0.115561
0.512089
-0.520173
-0.293887
0.152118
-0.145485
0.249052
-5.7645e-05
0.00707242
-0.00701487
-0.22115
0.0900023
0.102554
-0.20014
0.141032
0.114956
-0.0347834
-0.474929
0.013881
0.513262
-0.27047
-0.242865
-0.183326
-0.231221
0.4145
0.214029
-0.0146583
0.0572108
-0.318265
0.00161813
0.00833814
0.191105
-0.0962097
-0.0948962
0.00320234
-0.00326007
-0.631383
0.258061
0.373329
0.0529317
-0.0855393
0.0326075
4.00596e-05
-0.00150489
0.00146481
0.134093
-0.0321462
-0.00695566
-0.188994
0.168151
0.0208489
0.00260083
0.133731
-0.0514352
0.129453
-0.0780188
-0.30014
0.134353
0.297723
-0.111261
0.0717533
0.0103791
-0.00965867
-0.191835
-0.159707
0.351527
-0.0773818
0.151643
0.0110705
0.00621246
-0.017283
-0.348915
0.275564
0.0733226
0.248596
0.186061
-0.434723
-0.26029
0.187278
-0.247804
0.1335
0.114293
-0.330917
0.284269
-0.0293247
0.220854
-0.191545
-0.085688
-0.0389384
-0.0337537
0.0991021
0.224163
-0.547372
0.238412
-0.00760397
0.000992389
0.00597842
0.0050457
-0.0110242
0.176819
-0.18695
-0.171811
-0.397478
0.512467
0.196233
-0.104763
0.0277274
0.104488
0.0866152
-0.0495438
-0.0414543
-0.242018
-0.186006
0.434523
0.181273
-0.361391
0.180134
-0.272203
-0.222227
0.094556
-0.217519
0.122962
-0.223717
0.0395384
-0.0168335
0.00777671
0.269225
-0.506429
0.237228
-0.594567
0.263533
0.33089
-0.162651
0.152092
0.0105574
0.160783
-0.352599
0.147634
-0.219574
0.0719388
-0.0614703
0.0839834
-0.0225134
0.17549
-0.269691
-0.0134104
-0.0274354
0.0408458
0.00271971
0.000482577
-0.272035
0.129464
0.185136
0.047116
0.0164053
-0.0635216
-0.00692564
0.0109752
-0.00404958
0.0523659
-0.145496
0.0931297
0.205684
-0.121645
0.0244216
-0.00607905
0.0568228
-0.0507439
0.0921807
0.074598
-0.16678
-0.163501
-0.136662
-0.558202
0.216504
-0.288954
0.0875079
-0.000308864
-0.21551
-0.0108822
0.0662538
0.00296609
-0.0692201
-0.591595
0.263131
-0.000631487
0.00360519
-0.0105409
0.100001
0.191578
-0.364017
0.243561
0.168208
-0.411772
-0.0026151
0.0396793
0.372969
0.188703
0.359937
0.204467
-0.111379
-0.0930947
0.00178922
0.000842588
-0.00263183
-0.00185352
0.000265929
0.00158756
0.0319433
-0.0373805
0.167709
-0.302796
0.203424
-0.133256
-0.0701706
-0.145348
0.093912
-0.440838
-0.139359
0.169503
-0.470338
-0.584426
0.27937
0.0860717
0.00143614
0.382493
0.242791
-0.625319
0.370904
-0.181686
0.135417
0.0680051
-0.171099
-0.125374
-0.0454957
0.286215
0.257483
-0.543654
0.262424
-0.492067
0.229807
0.401428
-0.328506
-0.250268
0.148953
-0.0531183
-0.157988
0.540483
-0.180452
-0.162346
0.0619007
0.118186
-0.180091
-0.102211
-0.00525829
0.00396959
-0.0495279
0.0455583
0.40985
0.196112
-0.605878
-0.154624
0.0993541
0.0552687
-0.0109143
0.0168928
0.01314
0.00635884
-0.131389
0.22596
0.00617041
-0.010461
0.00429064
-0.0014537
-0.118794
-0.196344
-0.418217
-0.123456
-0.128461
0.219295
-0.104032
-0.115265
0.00764943
-0.00448847
-0.00316102
0.094483
-0.563683
0.285806
0.42698
-0.585014
0.0112174
0.0865858
-0.138517
-0.144596
0.312285
0.295129
0.267979
-0.563092
0.166244
0.178693
-0.344933
0.101329
0.0615876
0.22561
-0.553487
0.00662271
0.54665
0.127787
-0.214451
-0.144066
-0.301069
-0.283267
-0.167636
0.37574
-0.208092
-0.037201
-0.0234496
-0.205382
-0.172454
-0.25767
0.107139
0.39539
-0.277924
0.113221
0.115834
-0.0150607
-0.100774
0.534943
0.227571
-0.117691
-0.109895
-0.330162
0.437883
-0.107716
-0.225715
0.130722
-0.0571692
0.0405841
0.0165851
0.303649
0.293366
-0.0573517
0.0613212
-0.0683764
0.211303
-0.00504915
0.00136539
0.00368374
-0.262826
-0.363094
0.136879
-0.088542
0.216333
-0.0834757
-0.0711493
0.0830572
-0.010774
-0.19594
-0.0277846
0.0793984
0.00763795
-0.0350277
-0.0341594
0.0691868
-0.254446
0.0969636
0.157482
-0.00992551
0.556034
0.0299697
0.104123
0.168737
0.295846
-0.464542
0.275498
-0.618583
-0.408646
0.207114
0.201542
0.614834
0.0528667
0.115492
-0.168362
0.383848
0.213167
0.252514
0.018162
-0.0796326
0.105273
-0.188338
-0.155319
-0.435337
-0.0462311
0.135728
-0.0894992
0.140225
-0.255349
0.0250605
-0.146577
0.252171
-0.105598
-0.0564002
0.0241925
0.183945
0.182036
-0.101939
0.138951
0.00569236
-0.00987182
0.00417934
0.101794
-0.239396
0.137602
0.000424118
0.0026728
0.335005
-0.599409
-0.0462252
0.196878
-0.150654
0.501794
-0.56688
0.065099
0.161405
-0.286453
-0.153836
0.313255
0.135509
-0.038513
0.0260003
-0.105894
0.0798924
-0.246999
0.114412
0.132585
-0.00603447
-0.278654
-0.329595
0.608183
-0.0601955
0.0467851
-0.282529
0.121839
0.172565
0.186505
-0.359056
-0.0906674
-0.0644671
-0.0169948
0.156297
-0.139306
0.00192761
0.000792032
-0.155495
0.399063
-0.105945
0.0980164
-0.0974378
-0.00477399
0.0994341
-0.0322523
0.081709
-0.293388
0.551698
-0.406078
-0.145647
-0.29899
-0.0892826
0.0621421
0.0271404
-0.403449
0.49937
-0.096038
-0.405313
0.298034
0.224173
0.199085
-0.423225
0.160271
-0.462433
0.211324
-0.409686
0.254896
0.273959
-0.131309
0.202605
0.192983
-0.395539
0.476418
-0.250214
0.11838
0.0790785
0.125382
0.0969436
-0.143177
0.400324
-0.207531
-0.00158099
-0.00346821
0.313208
-0.129249
-0.183965
-0.0390431
0.0919746
0.12865
-0.0257258
-0.002933
-0.000435024
0.00336801
-0.0435949
-0.103719
0.147308
0.188341
-0.234571
0.00899449
-0.0041528
-0.0048417
0.0750443
-0.187374
-0.0678164
0.0317663
0.00637099
-0.0381376
0.164348
-0.0630221
0.56553
-0.468842
-0.123757
-0.10195
0.225698
0.0106725
-0.344319
0.0840303
0.0015598
-6.75025e-05
-0.00149231
0.289888
-0.289605
-0.000285583
0.0714662
-0.053314
0.0136656
-0.122238
-0.111651
-0.15588
-0.0024208
-0.00264264
0.144832
-0.186091
0.373282
0.507479
-0.0351372
-0.0973338
-0.142915
0.431772
0.119907
0.164116
-0.476124
-0.0767174
-0.0559264
0.134818
0.0631087
0.165289
-0.495439
-0.178198
-0.166123
-0.114628
-0.135591
0.0468482
0.0676431
0.101081
-0.2439
0.174914
0.393812
-0.56881
0.165114
-0.233496
-0.116845
-0.0469792
0.163823
0.103224
0.150438
-0.205776
0.470697
-0.264932
-0.00100105
0.00256083
0.177434
-0.29791
0.120463
-0.000899333
0.246424
-0.056093
-0.106163
0.20707
-0.171798
-0.144054
-0.00667032
0.0076712
-0.0040268
0.0127683
-0.00874156
0.00766027
-0.00652923
0.164906
-0.316812
0.151881
0.122154
0.105403
0.122154
-0.104533
-0.0176214
-0.184463
-0.300591
0.145842
0.587469
-0.146965
-0.0988351
0.245798
0.357883
-0.475618
0.454644
-0.168382
-0.144017
-0.0747884
-0.0115948
0.0113149
-0.063114
0.051799
0.493398
-0.256669
-0.23675
0.309065
-0.137974
-0.171106
0.273105
-0.485964
0.079885
-0.265508
0.124389
-0.2533
-0.235747
0.489065
0.120992
-0.118393
-0.115564
0.0443424
-0.257103
0.212757
-0.392839
0.213673
0.179219
-0.22343
-0.191017
0.414463
-0.286292
-0.227688
0.514026
-0.151653
-0.087975
0.239624
-0.000802755
0.00259195
0.237998
-0.109978
0.193684
0.389379
0.0905333
0.00115395
0.00453839
-0.224765
-0.19082
0.226317
-0.512572
0.383468
-0.238705
0.0719953
0.00740286
-0.0973598
0.560524
-0.554467
-0.00627369
-0.358176
-0.2732
-0.13547
0.118471
0.0874317
-0.00284244
-0.0845895
0.563544
-0.311137
-0.252372
0.628175
-0.353641
0.19758
-0.10929
-0.088299
-0.159824
-0.131207
0.291045
-0.239279
0.124212
0.115061
-0.219224
0.155409
0.0638068
-0.0535306
0.0682163
-0.160052
0.468517
-0.222917
-0.245575
-0.0304571
-0.142895
0.173346
-0.014404
0.0636815
-0.0492776
0.147723
-0.0268162
-0.000940273
-0.129155
0.130093
0.0943877
-0.204285
0.109887
0.103771
0.289721
-0.606428
0.170877
0.150399
-0.321301
-0.0929441
-0.132768
0.210782
-0.106295
0.148354
0.168718
-0.317108
-0.197624
0.338791
-0.141167
0.583573
-0.285463
-0.298012
0.284515
-0.140322
-0.0063178
-0.0951465
0.0780209
0.0171253
-0.0924134
0.0508355
0.0415773
0.154479
-0.266134
0.304176
0.101584
-0.170126
0.0685385
0.163467
-0.301812
-0.15853
0.202861
0.0283751
-0.0642765
0.035901
0.105566
-0.21174
0.162682
-0.293885
-0.377376
-0.0433018
-0.0459809
-0.00637798
-0.0857867
0.0225965
0.444895
-0.46748
0.135226
-0.270131
0.128802
-0.144349
0.350396
-0.169113
0.501957
-0.27132
-0.230575
0.352139
-0.0608424
0.189643
-0.0526989
0.19035
-0.137666
-0.153271
-0.0860126
0.00357731
-0.000809801
-0.00276751
-0.144641
-0.129707
-0.31471
0.00626926
-0.0171836
-0.250027
-0.226963
0.476893
-0.064185
0.0754998
-0.534613
-0.0173014
0.551791
0.111853
0.0883438
0.0411082
0.287362
-0.277088
-0.0102934
0.39445
0.162721
-0.557245
-0.315005
0.170388
0.256208
-0.114958
-0.141258
0.0806418
-0.00864669
0.163105
-0.273766
0.568799
0.00757606
-0.0623291
0.0547529
0.0576158
0.0951869
0.0965353
-0.14598
-0.00144394
-8.85368e-05
-0.0307235
0.148849
0.663213
-0.30979
0.092883
-0.115886
0.1727
-0.319817
0.147119
0.0103529
0.0625213
-0.0728744
-0.229224
-0.136869
0.279593
0.524261
0.0821742
-0.0048987
-0.00520107
0.3129
0.350303
0.0447733
-0.264011
0.235072
0.134044
0.0975275
0.0761531
0.107632
-0.15276
0.0985906
-0.266137
0.0523629
0.213766
-0.295778
0.100188
-0.143788
-0.191335
0.0848348
0.106491
-0.189494
0.429536
-0.240056
0.159167
-0.220372
0.0612001
-0.346347
0.156601
-0.00181938
-0.00634161
0.00428425
-0.0101961
-0.393377
0.169975
-0.000151441
-0.259082
-0.304473
-0.0354392
-0.0569747
0.31612
-0.561964
0.245789
0.000681762
0.00289554
-0.209801
-0.350489
0.145098
0.125034
0.43529
0.0931778
-0.244835
0.104311
-0.244602
0.140289
-0.501639
-0.151231
0.652908
-0.139922
-0.252861
0.18513
-0.305957
-0.0814647
-0.0401809
-0.0598354
0.153196
-0.0933624
-0.147478
0.293695
-0.146213
0.229981
-0.128184
-0.248283
0.15095
-0.147026
0.069006
0.304182
0.147996
-0.125526
-0.135709
-0.13631
0.297568
0.204936
-0.0601092
0.147928
-0.232433
0.0845038
0.00392828
-0.505547
-0.505259
0.255239
0.0925845
-0.168333
0.0757448
-0.349394
0.181771
0.084386
-0.0964842
-0.0889405
0.2291
-0.00541509
0.0948854
-0.0894706
0.135609
0.126405
-0.262012
0.46785
0.134964
-0.332601
0.0656211
-0.209993
0.14437
-0.111993
-0.0506599
0.197386
-0.420785
0.137041
-0.107754
-0.064202
0.171955
-0.107091
-0.3939
0.128706
-0.557023
-0.0300471
0.587042
0.00956161
-0.0743547
0.0686802
0.00567443
-0.213426
0.0997019
0.113718
0.00122509
0.009154
-0.103858
-0.0772602
0.181118
-0.114993
0.209548
-0.148949
0.0321018
-0.0562473
-0.0891015
-0.0692175
0.216853
0.00243996
-0.238328
0.0913598
-0.0448213
0.164793
-0.119974
0.126944
-0.286752
0.16712
-0.219833
-0.18467
0.342389
0.150166
0.0186081
-0.197338
-0.17349
0.376755
-0.20328
-0.0463355
0.0402563
0.240467
0.0727361
0.0269576
0.260386
-0.0557548
0.0945448
-0.0387902
-0.372314
0.175613
-0.119026
0.206738
-0.0877157
-0.0856527
-0.213156
0.0835781
0.037772
0.252114
-0.0204628
-0.0781151
0.0985766
-0.234582
0.140109
0.0944725
-0.271887
-0.257445
0.529273
-0.0937533
0.201678
0.00274477
-0.0028123
-0.0855418
0.0939925
-0.00845137
-0.197721
-0.152621
-0.0857104
-0.218379
0.507755
-0.289344
-0.369562
0.32788
0.0416837
-0.0102774
0.0990882
0.218605
0.23288
-0.50823
0.275284
-0.182408
0.0704631
0.11194
0.136927
0.154053
-0.290986
-0.0056521
-0.169902
0.175549
-0.182452
0.355012
0.468857
-0.0162705
0.00564317
0.0106273
-0.148224
-0.152358
-0.292425
0.360827
0.196073
-0.040928
-0.155149
-0.150478
0.315366
0.397946
-0.110931
0.437679
0.0913938
-0.083214
-0.139047
0.260772
-0.12175
-0.267989
-0.326716
0.424358
-0.200717
0.103686
0.0670348
-0.170721
-0.129096
-0.125351
0.098639
0.11478
-0.213428
-0.14542
-0.161215
0.306639
-0.0911637
-0.0543336
-0.104357
0.310502
-0.162181
-0.249138
0.123961
0.125169
0.440284
-0.177754
-0.254724
0.487545
-0.00771496
-0.0619926
-0.101447
0.163437
-0.108173
-0.0831707
0.0661555
0.153138
0.0574012
0.103664
-0.161068
-0.159287
0.0515309
0.156821
-0.0721702
-0.0846532
-0.0848507
-0.0691908
0.0655045
-0.196901
0.0193632
-0.00829276
0.160771
-0.317985
0.135114
0.156545
-0.291685
-0.288616
0.521994
-0.516097
-0.0409566
-0.0479607
0.15214
-0.104181
-0.122307
-0.412407
-0.04359
0.00304946
0.00442547
-0.00747493
0.091803
-0.0686046
-0.0231987
-0.00259565
0.396992
0.0483087
0.14776
0.151326
-0.05385
-0.0974774
-0.205057
-0.243979
0.449014
0.0747436
-0.0717777
-0.0257413
0.117053
-0.0913127
0.0402092
-0.0810217
0.103343
0.107438
-0.000288384
0.00288805
-0.00259969
-0.0565083
-0.10278
0.097709
-0.0986499
0.00617494
0.00147446
0.183238
-0.0779692
0.151337
-0.297924
0.144062
-0.0496819
-0.177955
0.365571
-0.187613
-0.00283581
0.000982247
0.0876481
-0.232816
0.145163
0.0675984
-0.148959
0.081358
0.391982
-0.212856
-0.179143
0.0861925
0.392794
0.103768
-0.496431
-0.000579039
-0.00546037
0.0060394
0.00165015
-0.00448602
0.317316
0.266128
-0.583417
-0.00425889
0.00749641
-0.104559
0.0858394
0.0187191
-0.0766581
-0.114465
0.191122
-0.110586
0.17744
-0.0668589
0.127744
-0.448655
0.156197
0.00059397
-0.000882381
0.289973
-0.126518
-0.0163956
0.0635113
-0.00390976
0.00695922
0.234564
0.338811
-0.573356
-0.0419828
-0.224169
0.291263
0.230662
0.102753
0.0696208
-0.142547
0.0729218
0.0914211
0.0575303
-0.567402
0.0277237
0.365157
-0.0681191
-0.152258
-0.151115
-0.124556
0.275666
0.0105245
0.491294
-0.197153
0.0765212
0.120625
-0.32064
0.240963
-0.467529
0.195375
-0.0997648
0.00420735
0.126238
-0.130448
0.465797
0.0429988
-0.0112327
0.308503
0.386743
0.207175
-0.593827
0.0888827
0.11605
-0.0321137
0.0952133
-0.0631001
-0.250547
0.260526
-0.222898
0.421999
-0.0995679
0.127749
0.104894
-0.0718727
-0.0330222
-0.329913
0.17654
0.153376
-0.00953765
0.174649
0.0905377
-0.096916
-0.102414
-0.00489783
8.59539e-05
0.00481186
0.219597
0.112306
-0.16405
0.0517416
-0.00141512
-0.00179972
0.00601313
-0.0325556
0.0265424
0.33263
-0.542646
0.210126
-0.230781
0.231826
-0.102325
0.211517
0.0761481
-0.174959
0.0988072
0.036628
0.115462
0.241229
0.00293115
-0.00448536
0.00155417
-0.0677862
-0.114626
0.0722003
-0.0925978
0.157959
0.126401
-0.292787
0.519158
0.0033449
-0.133625
0.220281
-0.0866555
0.491036
0.329812
-0.582001
0.25223
0.000189612
-7.92882e-05
-0.000110351
-0.216987
-0.0769008
-0.304226
0.135038
0.21462
0.12417
0.111527
0.144674
0.551936
-0.0795958
0.147191
0.124337
-0.263413
0.091076
0.149059
-0.240134
0.21852
0.239775
-0.458279
-0.0834769
-0.0528107
0.0582466
-0.114615