/*--------------------------------*- C++ -*----------------------------------*\
| =========                 |                                                 |
| \\      /  F ield         | OpenFOAM: The Open Source CFD Toolbox           |
|  \\    /   O peration     | Version:  v2012                                 |
|   \\  /    A nd           | Website:  www.openfoam.com                      |
|    \\/     M anipulation  |                                                 |
\*---------------------------------------------------------------------------*/
FoamFile
{
    version     2.0;
    format      ascii;
    class       volScalarField;
    location    "450";
    object      ddt0(k);
}
// * * * * * * * * * * * * * * * * * * * * * * * * * * * * * * * * * * * * * //

dimensions      [0 2 -3 0 0 0 0];


internalField   nonuniform List<scalar> 
18758
(
3.43625e-06
-0.00205599
-7.4058e-08
4.77119e-06
7.78454e-07
-3.25347e-07
-1.26363e-07
-6.52995e-07
-5.42803e-09
1.22966e-06
-0.0013703
0.00107169
-0.00474367
-1.08139e-07
-1.13054e-07
-1.39313e-07
0.00465037
-2.10595e-08
-1.18698e-07
-7.79768e-07
-0.00101336
-1.36465e-06
-4.12127e-07
-4.90309e-07
4.53151e-06
4.0072e-06
-0.00145458
2.46263e-05
3.38242e-06
-0.00192452
-0.0049111
0.000454841
-6.20304e-07
-4.23814e-06
2.20036e-06
-0.00126698
-0.00522285
1.1081e-06
0.0019574
7.91235e-07
0.00048619
1.41707e-06
-0.0014645
-1.11769e-06
-1.25701e-07
0.000998558
1.46227e-06
3.32882e-06
-0.0144575
3.88528e-06
-0.00101553
-0.00288366
5.48037e-06
4.6743e-07
9.40014e-07
-0.00304022
-3.85674e-07
-5.67398e-07
3.66603e-06
-3.60037e-07
-1.09483e-07
-9.73459e-07
-0.00201008
0.00631082
-1.10815e-07
0.00347685
-9.4725e-08
-9.08946e-08
5.24567e-05
-1.64283e-08
-0.0149484
-4.69069e-05
-1.01775e-07
-1.78338e-06
1.32655e-06
-0.0119206
0.000142573
0.00367528
7.00886e-07
-0.00117868
2.05534e-06
9.05567e-05
0.00395515
-2.86339e-06
-1.82414e-06
1.10054e-06
3.44436e-07
-1.84195e-06
-0.000893774
1.0793e-06
-0.0461392
-7.98279e-08
1.87414e-06
-0.013075
-1.05002e-07
-6.72727e-08
1.87736e-07
2.76858e-06
0.00494545
-1.76032e-07
-0.00600713
-1.4016e-06
-8.94868e-08
-6.30092e-08
0.00130109
-0.00121283
3.32506e-06
-0.0498207
-3.17684e-05
2.19036e-05
-1.31315e-07
0.00697799
3.41344e-06
5.93257e-08
-1.42825e-06
-0.0240222
2.66335e-06
-1.77658e-07
-0.00979578
-2.05869e-06
8.33299e-08
0.000230754
-1.84457e-06
6.98306e-08
-0.000647481
3.73608e-07
-7.29265e-07
6.71742e-08
2.59482e-06
-0.000405457
3.43537e-06
1.02234e-07
6.55331e-07
0.0043317
7.62306e-07
1.26437e-08
0.00314351
-1.66392e-06
-2.21888e-06
2.18546e-06
3.91024e-06
0.000306785
2.05717e-06
-3.96781e-05
-0.000426967
1.34507e-06
0.00223464
2.33762e-06
-0.00158518
-0.0255874
0.00314995
-0.003651
-1.67132e-07
2.12912e-06
0.000152057
0.000867109
1.90661e-06
2.67404e-06
-2.45957e-06
-0.00181089
0.00201258
1.42555e-07
0.00630525
0.0018998
0.0416358
-8.77817e-07
1.4388e-07
0.00874312
0.000475487
-0.00108206
-0.000711972
-7.06403e-08
3.41712e-06
0.000523533
-0.000350403
-2.10155e-07
-1.12335e-07
1.89776e-07
7.75373e-05
-7.62311e-08
-4.77128e-08
2.35942e-07
1.66012e-06
-6.52492e-10
0.0132158
-1.20616e-07
-0.00206847
-1.07621e-06
-0.00878071
0.0584288
-0.00328164
-1.16268e-07
6.19818e-06
0.00032584
1.40246e-08
-3.17385e-08
0.000117391
-1.64874e-07
-0.00695023
-5.5503e-07
2.68115e-06
3.88874e-07
0.000190234
-1.47324e-07
-1.5235e-07
0.00341235
1.32011e-07
2.8904e-06
0.00166712
-0.00246534
-6.24918e-07
2.08787e-06
3.18872e-06
8.05494e-07
-4.23054e-07
2.26784e-07
-1.31252e-07
2.06049e-06
-2.04218e-07
0.00175384
3.80054e-05
5.85484e-07
1.98913e-06
-1.3515e-07
0.000720516
0.000107566
1.00107e-06
3.38078e-07
0.0059575
8.67065e-08
-9.57614e-06
1.55392e-06
-0.00021199
-2.56385e-09
-1.1722e-07
6.88019e-07
1.58859e-05
-0.0134187
-0.00177939
-4.02929e-07
-1.35573e-07
6.81752e-06
-2.59961e-06
-3.05142e-07
-0.0128636
-4.71102e-05
-1.16179e-07
-5.02876e-08
-1.00441e-06
-1.95575e-07
8.12666e-05
-9.46672e-07
-0.00211539
7.77085e-07
-2.99027e-07
-0.00542937
-5.9088e-07
1.22165e-05
-1.50025e-07
0.0177347
3.40359e-06
9.0132e-08
-1.29486e-07
6.02831e-06
-0.0231717
-0.0216227
9.07499e-08
-3.57019e-05
-1.6651e-07
-3.22764e-07
0.00248671
-9.8661e-05
-3.0218e-07
-3.2332e-08
9.17724e-06
-4.15985e-07
5.46829e-07
-1.44124e-07
9.57087e-07
-1.173e-07
-5.3574e-08
2.03236e-07
-1.37083e-07
0.00434836
-1.14789e-07
-3.794e-08
1.28206e-08
-7.4002e-07
-6.41442e-08
-6.14759e-08
-2.96472e-07
-1.00952e-07
-3.39929e-07
-3.16412e-07
-4.27764e-07
-1.35128e-06
5.52672e-05
-5.99696e-08
-6.59423e-07
0.000337869
2.10568e-07
-3.23771e-08
-3.46428e-08
-0.0105231
0.000673302
-4.38749e-08
-7.78367e-06
-0.00140925
-1.05948e-06
-0.00222918
-1.34324e-07
-0.0183246
2.91253e-05
4.47118e-06
3.2365e-06
-0.00029251
-7.7593e-08
-0.0185021
-7.57441e-06
-6.11456e-08
4.53807e-06
-2.64763e-06
-0.0144402
-1.19105e-07
-7.98753e-08
-0.00178217
0.000714548
-4.11495e-08
-0.00174283
1.05014e-06
4.22721e-06
0.00247333
-1.16474e-07
-8.12952e-07
-1.50386e-07
6.26459e-08
2.46278e-07
3.92824e-06
-5.94521e-07
2.50522e-07
2.00653e-07
-3.82865e-07
2.46803e-05
-0.012179
-1.52908e-06
-0.0172654
0.00375921
-3.94222e-08
1.30168e-06
0.000913713
4.43462e-06
0.000154856
-0.00387705
-1.1838e-07
-0.00502849
0.0117431
-3.23523e-06
-3.72417e-07
3.71677e-06
6.65875e-07
-9.48215e-07
0.000246012
0.000172545
-0.000851348
6.20611e-06
0.000862968
-1.16797e-07
4.69781e-07
1.18084e-07
2.90578e-06
-0.0158904
-0.0346515
-0.00022755
0.00273755
0.000934503
-0.0176754
-1.99114e-07
0.00222925
2.77929e-06
-0.000447917
-0.00118323
-1.09591e-07
-4.87814e-07
-2.7078e-07
-0.000365132
-0.000543147
0.010558
-0.00143272
-4.13083e-07
-0.000412116
-2.4278e-05
-1.38785e-07
-1.41958e-07
-2.05537e-07
-1.99772e-06
9.03512e-08
6.39344e-07
-1.21591e-07
3.74623e-07
-2.84106e-07
-8.17631e-07
-1.75415e-06
-0.00763657
6.58109e-07
0.0175764
0.0191171
0.00203745
-0.00752583
1.91742e-06
-1.12452e-06
-5.20194e-07
-0.00162684
-1.52657e-07
-4.39385e-07
0.0013604
2.79939e-06
-2.48601e-05
-5.98402e-07
1.10735e-05
-1.28667e-07
2.21787e-07
-1.53685e-08
0.00179105
-0.021229
0.000142555
-3.99955e-07
0.00169845
1.42181e-06
-1.3221e-07
-2.23477e-06
-6.87072e-07
-0.000228727
-5.71993e-07
-2.9823e-07
0.016975
7.11588e-07
-4.44311e-07
-1.09811e-07
-7.398e-07
-1.12678e-06
0.00895024
4.00606e-05
-4.86148e-07
0.00366076
-1.16444e-08
3.12379e-06
5.11337e-07
-1.47591e-07
0.00299341
-5.01789e-07
-1.17111e-06
-7.03054e-08
-0.0361534
-4.28662e-06
-1.28595e-07
-0.00731399
0.000112032
4.43639e-09
4.74842e-07
-1.07331e-06
-1.4798e-07
-6.57507e-08
-9.57517e-08
-0.0260714
-0.0157325
-1.87894e-07
2.04917e-06
0.00173551
-2.56018e-06
-0.00236676
-9.4349e-05
-0.00213132
-9.6281e-08
2.51318e-06
9.8169e-07
-2.4821e-06
-6.56746e-07
0.00203908
2.41765e-05
3.80178e-06
-2.36503e-08
-1.20244e-07
-5.75361e-08
-1.48797e-07
-6.24061e-08
-1.65701e-07
2.7637e-05
-1.43091e-08
1.02938e-08
1.36299e-06
1.08656e-07
-8.20143e-08
8.24814e-07
-1.13262e-06
1.72136e-05
-0.00146212
1.87701e-07
-0.000696522
-1.86604e-07
7.49617e-07
1.06285e-06
-0.0115581
0.00142237
-1.35043e-07
-1.21125e-07
-0.0154925
0.00467961
0.000106941
-4.74971e-07
-0.000315746
0.00507184
1.11605e-08
-9.91805e-08
0.00749934
-5.53008e-07
2.36481e-06
0.000101347
-2.07926e-06
2.05421e-06
-5.29458e-08
-1.44544e-07
-5.26268e-08
-7.21971e-07
4.10525e-08
-1.18758e-07
0.00117561
-3.6282e-08
-3.01022e-05
0.000845201
-1.26735e-09
-3.73791e-08
-1.1509e-08
5.19327e-07
-5.89657e-07
9.66032e-05
-1.65762e-07
0.0525924
-1.04932e-06
-2.50293e-06
-8.50388e-08
-6.52858e-07
-9.98863e-07
-2.25907e-07
-2.05784e-07
-0.00146008
0.00816424
-5.60921e-08
1.49421e-08
-1.01998e-07
0.00621098
-2.39649e-08
2.21675e-07
-1.69377e-07
5.15543e-09
-7.31105e-08
-6.35063e-08
-1.93768e-07
-1.46163e-07
4.0737e-06
-1.7233e-07
1.12087e-06
4.78697e-05
-0.0097081
3.3478e-06
-7.9972e-07
-2.32463e-07
-8.06962e-08
-1.04063e-07
-1.86657e-06
2.49611e-06
1.32502e-05
-7.66234e-08
0.00191952
-2.24947e-07
1.29372e-06
-8.30183e-07
-6.35827e-07
1.63824e-06
-1.38931e-08
-7.05668e-07
0.00131787
-6.99466e-08
-2.55874e-08
2.17575e-06
-4.81547e-08
-1.28479e-07
-0.00120373
-1.47993e-07
0.00105065
0.000558399
-2.47439e-07
-7.62131e-08
-2.85694e-06
-1.02599e-06
-6.57752e-07
-1.93466e-07
0.0153221
0.0010332
-0.00177862
-5.3454e-08
0.00063879
2.44759e-08
-6.40441e-07
-1.58548e-07
2.65858e-06
0.048712
-0.000206911
1.07446e-06
-2.26282e-08
-2.08988e-06
0.000170083
-0.000759706
-1.30865e-07
-1.50164e-05
2.07677e-07
-0.0100318
7.35408e-07
4.95835e-06
-3.3585e-08
3.19215e-06
3.15742e-06
-2.0044e-07
-2.56705e-08
-2.96303e-08
-5.42689e-08
5.75979e-07
-4.35166e-05
-0.00210449
0.0014156
5.16887e-06
-9.78147e-07
-1.54629e-07
-4.62861e-08
-4.2663e-05
-8.07663e-07
9.38475e-07
2.09232e-06
-0.00350234
-0.000949494
-8.11485e-07
-6.33935e-07
-2.47385e-06
-0.00341328
2.81589e-08
0.00107374
-2.8788e-07
2.54904e-07
9.94016e-07
-1.33105e-07
-2.00566e-07
-1.2266e-06
-6.01275e-08
-1.19461e-06
-5.13188e-05
1.64405e-06
-0.00083533
8.94032e-07
-5.54138e-08
-0.0193776
3.06092e-07
-0.00100915
0.00119217
-3.15058e-07
0.0022665
-1.79207e-06
-9.09522e-07
0.00309084
0.000969677
0.000507386
-0.0239865
-9.16333e-07
0.000562201
-3.8977e-08
-0.00190602
0.00183916
-1.66612e-06
8.84361e-07
-0.00185181
1.9441e-07
-2.87022e-06
-9.0523e-05
0.028971
-1.55669e-07
0.00255316
-5.3706e-07
2.48312e-06
3.38888e-06
-4.1432e-08
1.33208e-06
1.54485e-05
-0.00146653
-1.29296e-06
-2.21952e-07
9.83012e-09
-3.64711e-07
-4.41062e-06
-7.34806e-07
7.77615e-06
-1.0523e-07
-0.0139648
-1.03275e-06
-3.43677e-07
4.99515e-07
-1.36092e-08
3.56334e-05
-1.40539e-07
-4.88192e-08
0.0013124
-5.28276e-08
9.3465e-07
-0.000459286
1.57044e-06
1.0451e-06
-1.15049e-07
-1.98381e-07
4.63493e-06
-1.24211e-07
-0.00341451
1.89964e-07
-5.90679e-07
-2.21254e-07
-4.85356e-07
1.99508e-08
0.00975537
-1.31084e-08
-0.00941611
-1.89285e-06
-7.30048e-08
-0.0598655
-4.50732e-07
3.86452e-06
-1.27409e-06
0.00721846
1.7646e-07
-8.63927e-06
-0.00202413
-8.26997e-07
-0.000842602
-1.45389e-08
-0.000121662
-1.26976e-07
-2.49544e-07
-0.000523225
-0.000783125
-1.48669e-07
3.40068e-08
-7.16318e-07
-1.08469e-08
-1.14412e-07
0.0012165
-0.0133975
5.71123e-07
-1.0238e-08
-1.42701e-08
0.0054762
-0.000199885
-3.68181e-06
-5.58635e-08
1.5739e-05
-2.50421e-07
-2.3538e-07
7.65765e-07
0.00441365
-1.35717e-07
2.28894e-06
0.000141203
6.45023e-06
-0.000142953
-1.32248e-07
4.54669e-07
-1.33419e-07
-2.58687e-07
4.96103e-07
-3.74344e-07
3.08454e-06
-1.52709e-07
0.00428006
-9.56974e-10
2.08554e-07
3.16042e-06
-0.00210529
2.32187e-06
-5.69182e-07
-4.93548e-07
-8.05534e-05
3.45975e-05
-2.64134e-06
-8.72421e-08
-1.96607e-07
-1.90613e-06
0.0123108
-0.000368905
4.91393e-07
-1.24179e-07
-4.59615e-07
2.93928e-08
-1.32966e-06
-1.24769e-07
-4.86731e-08
-0.00218331
-1.36915e-07
-1.21814e-07
-0.00021927
-4.97831e-08
-7.96272e-05
1.96706e-05
7.01166e-05
-0.0278919
0.000231628
-0.011285
-1.17279e-07
-2.01016e-07
-3.18671e-07
5.24777e-07
-1.24414e-07
-2.19631e-08
-7.12793e-08
-3.33167e-07
0.0102499
3.46932e-06
6.93311e-05
6.51288e-06
-1.73552e-07
-7.08046e-07
-2.00882e-06
5.29065e-06
-7.03586e-07
1.16139e-06
-1.94025e-07
-0.00460017
-6.44344e-06
0.000588076
-2.47492e-09
3.48448e-06
2.25058e-06
-6.89466e-06
0.0126043
0.00336115
-2.77946e-07
1.00381e-05
1.12382e-06
6.13282e-05
-1.51812e-07
-4.98298e-08
4.67935e-06
0.0153193
-1.23423e-07
-0.00250239
-7.70538e-06
-1.32704e-07
-1.3581e-07
-1.57741e-07
-1.95915e-07
-9.77046e-08
-1.04308e-06
1.27986e-06
-1.08341e-07
-1.42623e-07
0.00165497
-0.00384084
-1.14068e-07
0.00235333
2.89417e-06
3.92977e-07
7.52294e-07
5.89254e-07
-1.59065e-07
8.76053e-09
4.19697e-07
-1.77869e-07
-2.29638e-07
-1.03597e-06
-1.87536e-07
-0.000158699
6.47834e-07
-1.22277e-07
-1.15234e-07
-0.00439828
-1.63497e-07
-5.35013e-08
0.0234937
-1.29362e-07
1.94695e-06
5.17579e-07
-1.13484e-07
-7.24176e-08
-3.61326e-09
-7.86225e-07
1.207e-06
-8.33774e-08
0.000509776
5.49329e-06
2.47979e-06
0.0029217
-4.16554e-07
-0.000481971
-3.89026e-08
-0.000459266
-8.53657e-08
-1.45082e-07
2.52098e-06
-0.0289744
1.73146e-08
-0.000201382
-3.60828e-05
-3.45443e-07
8.55019e-07
-5.81265e-08
-9.99823e-08
7.3094e-07
2.77856e-07
-1.1266e-07
0.000422616
-9.11698e-08
-1.04036e-07
-0.0031276
-1.34859e-07
-1.55636e-07
-7.15335e-08
-6.28816e-05
-1.1636e-07
6.3809e-07
1.23161e-06
0.0048966
-0.00244018
-0.00510924
0.00139453
-1.60931e-07
-2.84532e-09
-1.09908e-07
0.0249572
1.78112e-08
3.3235e-09
-4.48139e-08
-1.45399e-07
-9.88557e-05
-1.915e-07
-1.58025e-07
-1.81979e-05
-1.26853e-07
1.39191e-06
-0.0126111
-1.73192e-10
-1.07291e-07
-1.30569e-05
-3.22336e-07
0.00469605
-0.00812348
-4.79914e-08
-1.34744e-07
-0.00475668
-6.22813e-08
-3.19156e-09
-0.000205975
-1.73015e-07
0.00108381
-1.48159e-07
-1.55904e-07
-1.15011e-07
-1.39664e-06
2.2222e-07
0.000163875
-9.16465e-08
-1.17841e-07
6.17993e-05
-0.00244486
1.2776e-06
2.57184e-06
0.000342553
0.0067722
0.00225577
3.11785e-08
0.00520763
1.36415e-07
0.00718795
0.00191318
5.27809e-07
4.29972e-06
-2.00476e-07
-0.00306814
-2.8439e-08
0.0127756
-8.245e-08
1.03192e-05
1.01727e-06
-5.15539e-08
1.96201e-08
-1.10924e-07
-0.00029683
-0.000132837
-3.25935e-07
0.00430114
-7.40197e-08
-1.40916e-07
0.000793997
-1.24357e-07
-5.31276e-06
-3.15212e-08
-3.67693e-08
-1.15657e-07
-9.07723e-09
-1.22662e-07
-2.42902e-08
1.45822e-05
2.6805e-06
-2.59969e-06
1.7792e-06
-1.97499e-07
-1.12796e-07
-0.000597839
-1.50537e-07
8.88166e-05
-1.67426e-07
0.00496734
5.23268e-07
-0.00209675
-4.03818e-07
-7.77131e-07
-1.17637e-07
-0.0149286
-6.81964e-07
0.000928557
-1.26964e-06
-1.47964e-07
4.48245e-07
-1.55203e-07
-5.54094e-08
-9.55683e-11
-1.70968e-07
0.0010325
-3.56881e-07
-2.8323e-07
-2.24133e-07
-8.86599e-08
0.00665343
0.0040116
-1.67262e-07
-8.73395e-08
9.71115e-07
-2.43139e-07
-1.31335e-07
-3.93486e-06
7.07055e-09
-1.12276e-07
-1.19685e-07
-4.21735e-07
8.96321e-07
2.40854e-06
-2.65765e-07
-1.37771e-07
-0.00131568
-9.69628e-07
-0.0363208
9.68121e-05
-2.87671e-07
0.00255601
3.75458e-07
-5.79369e-07
-5.4498e-07
-1.01013e-06
-1.15765e-06
-2.19032e-07
1.73675e-06
-0.00279496
-9.728e-06
0.00725104
0.0218886
-0.00145126
-9.13763e-07
-1.60283e-07
-1.27165e-07
-0.00323679
-1.03132e-07
-2.04616e-07
1.17771e-06
0.000583776
-1.52592e-07
-2.51414e-08
-0.00366793
1.50558e-07
2.56351e-07
7.80145e-06
-3.25964e-08
-6.99163e-06
-1.23162e-07
1.91673e-07
-2.51697e-07
-5.21506e-07
1.9808e-06
-2.24985e-07
1.25816e-07
-0.00379476
-1.41773e-07
-1.21058e-07
-0.00258435
2.2431e-08
-1.1175e-07
-4.84037e-07
-2.48189e-07
1.50683e-06
0.00614432
1.94249e-06
-0.00320566
-0.0029391
0.012774
0.00106927
9.15759e-09
0.0151841
-0.00153562
-7.82881e-08
-1.16172e-07
-2.59336e-07
-1.21116e-07
-2.37645e-07
-9.16463e-07
6.06949e-06
0.000544658
-2.47307e-07
-1.12166e-08
-2.30642e-06
1.65649e-06
0.00124745
-4.21296e-08
2.9759e-08
-1.93619e-07
-0.00420669
0.000104538
1.2488e-06
0.00151299
-1.56331e-07
-1.9131e-07
4.61206e-06
3.3928e-06
-1.65207e-07
0.000100761
-5.35012e-09
2.86127e-06
-0.00302597
1.99276e-05
-3.66406e-07
-5.74617e-07
3.23635e-08
-3.23562e-07
-4.4823e-08
-0.00221008
1.53491e-05
-0.0154052
5.34897e-07
-0.0233128
-1.00444e-07
0.00574832
-0.0368559
0.0218425
1.52004e-06
-0.0426687
1.285e-06
-9.05718e-06
1.81111e-06
-8.44947e-07
-1.0473e-08
-1.19469e-07
-1.59764e-07
-2.41625e-06
-7.43382e-08
-5.34807e-07
0.000133573
0.00525262
-0.0201714
0.00212866
2.49158e-06
0.00128609
3.59227e-06
2.09031e-06
-1.18979e-07
0.00268996
-5.3182e-05
-3.05015e-07
1.18032e-06
0.0127163
-0.00602372
-0.00327811
2.08152e-06
-2.83188e-07
-6.57523e-09
0.00333513
-1.44412e-07
-0.00286088
-2.81555e-06
-9.14695e-07
2.51252e-06
2.27948e-06
-1.37786e-07
-1.00281e-07
-0.0023903
-3.1472e-06
9.04771e-07
9.82698e-08
-8.06089e-07
-2.22857e-08
-0.00227031
-3.2977e-07
0.00399186
-2.70733e-07
-0.000450275
0.000219078
-1.4674e-06
-0.0144121
1.63354e-06
-0.000189315
-6.46779e-09
-1.33182e-06
-0.0134203
9.10926e-07
-1.36982e-07
1.52728e-05
-0.00310756
-1.30552e-07
-1.45502e-07
-0.00147503
3.0393e-06
-6.67932e-07
1.03414e-05
-3.21357e-05
8.38016e-07
9.08507e-07
0.010502
1.25152e-06
-1.01311e-06
-9.27415e-07
0.000105901
-1.44371e-06
-1.19981e-07
-1.40057e-07
-0.00071608
-6.35018e-08
-0.00547707
-1.49221e-08
-5.77618e-08
-1.31031e-05
-1.23463e-06
-1.67759e-07
0.000168211
1.99024e-08
-9.72057e-08
7.44311e-09
-2.16887e-07
-1.40609e-07
1.90745e-06
-5.51504e-07
0.00314897
6.01393e-07
0.000779348
0.0164943
-5.61221e-07
-3.93306e-08
-6.85733e-08
-0.0160811
4.11598e-07
9.51576e-07
0.00241633
1.24974e-06
-0.0290783
-1.20647e-07
-1.9558e-08
-5.12621e-08
-1.61652e-07
2.5342e-07
-1.79932e-07
-8.14657e-07
3.78344e-07
-1.2223e-07
-0.000275844
1.10576e-05
0.00408546
3.9894e-07
1.64627e-08
-4.42976e-06
0.00203336
-0.0591879
0.00362934
0.000670362
0.00074855
0.000256092
-0.0464278
-1.47599e-06
-2.00243e-06
2.49829e-06
-0.0026476
-1.32872e-07
-0.00347954
-0.000704647
-4.07804e-06
-1.11559e-07
0.00150349
-1.55195e-07
-1.48409e-07
-4.87396e-07
9.85134e-07
0.00462511
-4.0911e-05
-1.50351e-07
-2.0141e-09
-3.53998e-07
-4.0226e-08
2.18983e-06
-1.25567e-07
-0.0431838
4.55241e-06
4.4869e-06
-1.32554e-07
-1.18629e-07
-1.29924e-07
-0.00837804
2.01757e-05
-9.16825e-07
-2.29937e-07
-0.000187245
-4.2175e-08
-1.19176e-07
-7.2844e-09
1.7573e-07
-1.30352e-07
7.84783e-08
7.45957e-10
1.98819e-07
3.35932e-08
-0.0362771
-3.13916e-07
-1.57816e-07
-2.38466e-06
-5.67297e-07
2.58952e-05
-1.7058e-07
1.76094e-06
6.23938e-05
-0.00138045
-1.44e-06
1.91826e-05
-0.00200442
-1.70835e-06
-2.68319e-06
-7.81641e-08
-1.18613e-07
1.40489e-07
-1.15003e-07
-4.04911e-06
2.36794e-06
1.48605e-07
-4.8766e-06
1.1779e-07
-6.97523e-07
2.74346e-06
6.62952e-05
3.01722e-08
1.86089e-06
-7.1247e-06
1.39806e-06
-7.07295e-06
-7.94646e-08
-8.90527e-08
-0.00269953
1.89581e-06
-9.58144e-08
-1.39712e-07
2.26728e-06
-4.24162e-08
-5.42348e-08
-0.014227
3.87188e-06
1.10563e-06
-7.94959e-07
2.05446e-07
-0.0663551
1.82268e-07
0.00131734
0.00669537
-1.15426e-07
-1.35357e-07
-9.57459e-05
9.9038e-07
2.70351e-05
-2.2807e-07
-1.98251e-06
-4.60729e-06
-8.75789e-08
-5.10362e-07
-5.15857e-06
2.324e-06
0.00694934
-0.00325436
1.6969e-06
0.000399488
-0.00120073
-3.53186e-07
0.00184799
0.0133068
3.95772e-06
0.0167295
-5.07956e-08
1.33437e-06
3.49302e-06
-0.00334445
3.20763e-05
-8.04003e-06
-2.51118e-06
-0.0066456
-1.66604e-07
-5.36701e-08
0.0169271
-3.24459e-09
-1.17292e-07
-1.20776e-07
-3.20394e-07
5.62934e-07
-3.93274e-07
-1.3382e-07
-1.17897e-07
0.00961048
0.000102323
-2.25001e-07
-1.38987e-06
-0.00470723
0.000276165
4.38397e-09
-3.50202e-06
-0.00144579
2.61947e-06
-8.97779e-08
-1.20088e-07
-0.00761145
-6.46282e-07
4.84862e-06
4.00023e-06
-5.11418e-08
2.28506e-05
0.00522801
-3.45328e-07
-0.00237461
0.00233181
-0.0236231
-3.57818e-07
-3.05304e-07
-1.18759e-07
-5.30263e-08
-1.36886e-07
0.00295558
-1.17822e-05
-2.68157e-07
-3.15384e-05
1.68359e-05
9.28022e-09
-1.59615e-07
-1.3747e-07
-0.000543097
-0.000816967
-2.94261e-06
5.66011e-06
3.16337e-08
0.00189736
0.00210317
-1.86684e-08
-2.32378e-07
5.72363e-07
1.575e-06
0.0207581
0.00128277
-3.08131e-08
-0.00806349
0.00174651
4.67564e-06
-1.03789e-07
-1.63227e-07
-4.47368e-07
-1.66473e-07
-4.62299e-07
-5.04308e-08
1.21493e-06
-0.00162927
-6.36433e-08
-9.70491e-08
1.90207e-06
-5.45423e-08
-2.50054e-07
-1.59699e-06
-0.00155208
-5.09572e-08
-5.9534e-07
-0.0108047
-6.17447e-06
-5.37982e-06
2.39669e-06
2.19568e-07
-4.26803e-06
-1.63255e-06
6.05066e-08
-1.21436e-07
1.27653e-07
-2.20645e-06
1.91741e-06
-4.53855e-07
1.07349e-05
-1.86235e-07
-0.000142449
-0.000485965
-1.77147e-07
0.000874505
-1.36435e-07
-1.1834e-07
2.96246e-06
-0.0239239
8.42945e-07
-4.69817e-08
1.60677e-07
3.54847e-06
1.40558e-08
-3.47537e-05
-0.000724722
-5.57736e-08
4.65372e-06
-0.00243656
-5.84562e-08
-4.6196e-07
-0.00366587
4.10385e-06
-1.98187e-07
-0.00153696
2.54299e-07
-1.14815e-07
0.00763583
-1.3244e-06
4.53371e-06
-4.26017e-08
0.00307186
-1.99511e-06
6.99978e-10
4.54058e-06
1.20841e-06
1.69508e-06
0.000101386
0.00845716
-6.11262e-05
1.63628e-05
2.93308e-07
-5.31926e-08
-5.93916e-05
0.00430612
-6.32586e-06
-6.45777e-05
-4.36253e-08
-0.00265733
-6.23459e-08
-1.72049e-07
2.76688e-06
-4.79175e-07
-0.000511512
-0.000161186
-2.07189e-07
0.000585025
0.0561598
-0.0143467
1.00573e-06
4.64715e-06
3.00607e-08
6.93565e-07
-7.02119e-08
3.59575e-08
0.00100802
0.0303869
0.00543845
-3.73987e-05
0.00124537
0.000797531
-0.0131965
-3.63931e-07
-2.11969e-06
0.00938796
3.78865e-06
-6.44511e-08
-1.18066e-07
-0.00439156
-4.69932e-06
-1.53703e-07
-1.121e-07
-1.21031e-07
7.63555e-07
-1.37527e-07
2.54004e-05
0.00219932
5.79383e-07
0.0114466
-2.84711e-07
-0.00268839
-1.5873e-05
-3.26767e-05
1.47564e-06
-0.00106027
7.9652e-07
-2.33259e-07
-4.3017e-07
-0.000987823
2.34504e-06
-0.00428815
-4.56804e-07
-1.58089e-07
5.13346e-06
5.98194e-05
-1.94769e-07
1.84551e-06
-7.03e-05
0.00139035
-0.000161659
-3.74101e-08
-5.27238e-08
-0.00285748
3.37321e-08
-3.37144e-07
-6.69005e-07
-1.89133e-07
-2.51253e-08
-3.48336e-08
-1.26787e-07
1.54937e-07
-1.33162e-07
-2.54177e-06
2.28007e-06
-5.82165e-07
0.00343761
-0.00362326
-1.83624e-06
-1.18533e-08
-1.23548e-07
-7.3078e-06
-1.18558e-07
-1.28028e-07
-7.35625e-08
4.52982e-07
-1.66219e-07
5.63436e-07
-1.01074e-06
6.58525e-06
0.000851418
1.35283e-08
-1.66373e-05
-2.08131e-06
-1.06193e-06
-6.26403e-06
7.42752e-06
-1.71154e-07
-1.0193e-07
0.000138443
0.000105086
-1.23584e-07
-0.000726073
-2.21105e-06
-1.23801e-07
-0.000199967
1.46912e-07
1.13382e-05
-0.00506934
-0.00142605
-0.0133614
-1.93732e-07
-1.37841e-07
0.00125843
1.87958e-06
-0.00765998
2.48326e-05
-0.000234047
-0.00430961
-7.97341e-07
1.7007e-06
-1.69231e-07
6.47124e-06
5.05753e-06
-0.00567342
-1.43964e-07
-5.3809e-08
6.29028e-05
1.04774e-07
0.0105205
-5.7647e-07
-0.00113214
0.0244299
2.77584e-06
-2.21658e-05
-0.00286812
-1.41154e-07
-2.24402e-08
-1.13523e-07
2.95866e-05
-0.00152259
-3.09618e-07
-1.06064e-07
-1.20392e-07
-1.16915e-08
1.23425e-05
-1.55708e-07
-6.60899e-09
-0.0056486
-2.40869e-07
-3.98082e-09
8.22217e-07
-0.013225
0.048622
-0.0194187
-1.51222e-07
-6.10297e-05
1.37911e-05
3.66761e-07
8.40861e-07
-0.00467379
-0.00147657
2.68256e-06
-1.99437e-05
3.8685e-09
1.90717e-06
2.53293e-05
3.52984e-06
0.000666139
2.84704e-08
1.24368e-05
-3.72818e-08
-0.00304734
-0.000160004
-2.45307e-09
-5.74629e-07
1.95895e-07
2.00717e-07
0.00112913
-6.79743e-08
-9.64597e-08
-1.04252e-07
1.72674e-07
-3.61505e-07
-5.5186e-07
-1.21291e-07
-4.01467e-07
-1.2086e-07
-1.3974e-07
-0.0156078
0.00296871
-3.02291e-05
-1.70611e-08
8.59714e-09
8.94784e-09
-8.27695e-08
-2.95068e-08
-2.16758e-06
-5.7105e-08
-5.32614e-08
-1.21001e-07
-9.39175e-08
1.11519e-06
-1.52354e-07
0.00178685
0.0086063
2.04497e-06
0.00918163
-1.65096e-07
-0.00362127
6.07651e-06
-9.23285e-07
-1.54319e-07
0.00929518
-2.15424e-07
-9.97447e-08
-2.80842e-08
-8.57334e-05
2.43628e-06
-1.05511e-07
-6.82024e-06
-3.11029e-07
-1.26649e-07
-6.9072e-06
-0.000405997
-1.92045e-06
-1.88355e-08
1.86137e-06
6.94425e-05
-3.66787e-06
0.030744
-1.08238e-07
-1.70404e-07
-9.69147e-08
4.84968e-06
-1.71358e-06
-0.000160401
-2.07986e-06
3.33051e-08
-2.38025e-05
1.86066e-05
1.99944e-05
-1.1964e-07
-1.32423e-06
0.0189498
-3.58269e-07
-1.529e-07
-2.23137e-06
0.000426326
5.05854e-07
1.95518e-07
1.04282e-07
-2.59803e-06
-1.11877e-06
-0.00357382
-4.00394e-08
3.72015e-07
9.91602e-07
0.00914543
-4.12237e-08
-8.45385e-09
-2.22385e-09
1.51648e-06
-1.01839e-08
-0.0253959
-0.00350745
-2.27754e-06
-0.00165216
-1.27193e-07
-2.72677e-05
-1.79558e-08
-5.10761e-08
-1.85773e-06
3.7397e-07
-6.19921e-06
0.000688382
-0.000586546
6.67347e-07
2.08731e-06
1.90491e-06
-2.98445e-07
-4.20824e-05
-5.58026e-08
-1.21307e-06
0.00795231
-2.25617e-07
0.000504617
-0.00154044
-0.00232486
0.000299544
-0.00291588
-0.00328588
-0.000951707
2.51529e-06
-1.60904e-06
1.71088e-06
-1.12453e-07
3.91249e-08
-1.46583e-07
-0.00319428
-0.0717636
0.000931558
-1.85475e-06
-1.24464e-06
-0.000452192
-1.12208e-07
5.59803e-06
-1.96123e-08
2.74861e-06
-1.37522e-07
-3.01536e-08
-1.18723e-06
1.70657e-06
-0.000147531
-1.76747e-06
1.01701e-06
7.29349e-08
5.48181e-06
-0.00971495
-8.63843e-08
-8.13727e-07
-1.3887e-05
3.4203e-08
1.59102e-06
-4.94343e-08
-0.00104593
-1.27026e-06
9.29112e-05
-1.23792e-07
-1.64749e-07
1.30581e-06
-1.70164e-06
0.00206924
-8.17159e-06
-0.00324988
-1.25903e-09
-5.94543e-08
-4.43015e-08
-1.71379e-07
3.04067e-08
-1.27892e-07
0.00139272
0.012892
4.19691e-06
5.82413e-07
3.11395e-07
1.85551e-06
-1.59109e-07
-4.38301e-07
3.51931e-06
0.000995432
-0.00126897
-3.12167e-08
-0.000987345
-3.87646e-08
2.49376e-06
-3.23368e-08
1.96253e-06
-0.000117735
-0.00202246
-0.00370438
-2.5553e-08
-7.56761e-08
-1.14926e-07
-1.19649e-07
-1.00124e-07
-1.2251e-07
-0.0258023
-9.9191e-08
-9.09862e-07
-3.30748e-07
-2.27012e-06
-1.44341e-07
-0.000458933
0.0113868
-0.00580399
-3.75314e-08
-0.000112205
2.60299e-08
-0.00216132
-2.33368e-06
-1.36298e-06
-0.00666855
1.86459e-07
2.73692e-06
-1.40523e-07
-1.66979e-06
8.9004e-07
-2.11132e-06
-7.12826e-07
0.00318377
-2.46215e-05
2.35953e-06
5.34833e-06
-2.20998e-07
-2.63218e-07
7.20293e-05
-4.72572e-08
0.00252564
3.03959e-07
0.00011739
0.0177471
0.000649449
-5.4345e-07
0.000141883
-4.48513e-07
-6.26459e-07
-6.55039e-08
-8.84589e-07
3.02526e-06
-1.26056e-07
-0.00192706
3.66707e-05
7.8117e-07
-1.40294e-07
4.46017e-07
0.00112061
-0.00283058
-0.00115442
2.65894e-07
1.78096e-05
0.00100635
0.000203573
-2.26691e-07
-2.53891e-06
-0.00240952
2.99062e-06
0.0135583
3.82304e-07
-1.64406e-06
-4.4436e-06
-1.55567e-07
-0.00234964
2.09898e-06
-1.21671e-07
0.000227254
0.00055962
0.0168488
4.91271e-06
2.89557e-06
3.72734e-06
-1.15977e-08
3.57245e-06
1.61388e-08
-6.38045e-07
2.98409e-06
0.00892555
-0.00433908
0.00662549
0.0010809
1.79577e-06
0.0360325
2.18638e-07
6.23086e-05
-0.000310797
-0.00197681
-6.68229e-08
-8.28133e-07
-1.55082e-07
5.36083e-07
-2.23422e-07
-1.38674e-07
0.0478832
-1.53785e-07
-3.08787e-08
-2.51465e-06
-8.09995e-07
-5.39892e-08
1.92691e-05
0.00138722
1.14706e-06
-6.22512e-08
-6.94929e-08
1.06585e-06
-3.51996e-07
-1.41407e-07
-1.16446e-07
-2.08323e-08
0.00533779
4.11467e-07
-0.00023687
-1.5388e-06
-1.53861e-07
-3.34827e-08
0.00130981
-3.33917e-06
-0.00704714
1.67606e-05
-2.30793e-07
2.27331e-06
-1.15441e-07
6.12847e-07
-1.11031e-05
-0.0225487
3.69696e-05
1.06864e-07
-4.63828e-08
-1.4929e-06
0.00103697
0.00245092
0.000788662
3.40872e-07
-6.7394e-08
-4.89593e-08
2.17666e-07
-4.84883e-06
0.00118342
9.48492e-08
-0.00256403
-3.43544e-08
-3.41024e-07
1.50178e-06
-3.29053e-08
0.0089318
8.3633e-07
0.000289043
-6.65031e-08
-3.21231e-07
2.09121e-06
-0.0381139
-3.05203e-08
-8.15464e-07
-6.76087e-06
-0.00097217
0.000677984
0.00332371
-0.00472791
-1.10757e-06
2.33761e-06
2.69557e-07
1.62933e-05
-0.0076176
7.28429e-06
-9.36807e-08
-1.452e-07
-5.61639e-08
-0.00773464
0.000910807
-1.34448e-06
-0.00033796
-6.89046e-08
-1.02299e-07
-1.57304e-07
1.62988e-05
6.72919e-05
0.00172019
-1.28686e-07
-3.74221e-07
1.89519e-06
-0.00806359
2.35588e-08
0.00092347
-5.37427e-07
4.44942e-06
0.0121425
-9.6445e-08
-4.9442e-06
-0.00429682
0.00234933
3.76506e-05
8.06892e-07
1.3716e-07
5.21275e-06
-0.00542446
7.64746e-07
-2.70025e-08
0.00454359
0.00076569
3.68564e-08
-3.75421e-08
0.0474803
-1.9232e-08
0.000213926
0.00419785
1.74502e-07
-6.20062e-09
-1.42476e-06
8.9043e-07
0.00243489
-4.24673e-08
-2.10647e-06
1.6818e-06
-0.0138465
-0.0213832
-1.28406e-07
-6.51798e-08
-8.04023e-07
-1.70176e-06
-1.37702e-07
1.59556e-07
-1.06969e-07
3.3342e-06
-6.03506e-08
-7.26182e-06
-5.56176e-08
6.39306e-08
-8.10412e-07
-7.6245e-07
1.09092e-05
1.66038e-06
-0.00546235
-0.00012768
-0.00174253
-1.3456e-07
2.02768e-08
0.000142604
7.23087e-07
2.46924e-06
0.0324814
2.5284e-06
-0.000175071
0.00095181
-2.91675e-09
-6.72277e-05
-0.000525323
-2.81936e-07
-3.05562e-08
-1.28377e-07
-1.31194e-07
0.00154405
-0.000154242
-9.68253e-08
0.0151999
-0.00822194
0.00625755
-2.48625e-08
-2.25636e-08
-0.00780779
-1.07373e-07
-1.28249e-07
-2.40522e-07
-1.82612e-07
-3.27992e-06
-9.78726e-08
-0.0120091
0.00077927
5.80237e-07
0.0228711
-7.57382e-06
-0.0625607
0.0183594
-1.25625e-07
-1.59468e-06
-2.61758e-06
-1.55117e-05
0.0114902
-0.000320987
-1.25897e-07
-1.15186e-07
3.75134e-06
-1.64748e-08
-0.0016867
0.00445321
-1.11452e-07
-0.0068408
4.28134e-08
-0.00151685
5.11016e-07
0.0024029
-3.66248e-07
0.00373231
-0.0204317
-0.0141914
0.00277992
-5.61377e-08
-0.00948739
0.00506814
-3.63682e-07
-0.00593054
-2.58148e-07
-2.5165e-08
-1.97478e-07
-6.75423e-07
-1.26583e-06
-1.52553e-07
-1.3197e-07
-5.18345e-06
2.42837e-06
4.16833e-06
0.0114446
4.16618e-06
-3.25511e-07
5.33984e-07
6.98522e-06
-6.95451e-08
8.63727e-07
-0.00807412
-0.0269984
-0.00133225
1.79562e-06
1.26345e-07
-4.92544e-07
-2.00968e-05
-8.19807e-07
-1.35e-07
0.00023793
0.000670525
0.0101583
8.15042e-06
-1.47194e-07
2.90183e-06
-0.0239366
-8.51113e-07
-2.05987e-08
1.54387e-06
-7.43924e-07
2.26813e-06
-1.00743e-07
-0.00100204
-1.25413e-07
-0.0612839
-1.92558e-08
-0.000226738
-0.00374994
0.0235912
1.09684e-08
1.4718e-07
-4.28547e-08
5.81091e-08
4.81506e-06
0.000667141
-1.53275e-07
-1.25106e-07
-0.0154718
-8.37718e-08
4.49792e-06
0.00378801
-1.69622e-06
0.0118532
-1.13523e-07
0.00131771
1.20934e-06
-0.0565515
1.76916e-08
-5.31184e-07
-2.9917e-05
-3.24806e-08
-0.00256579
-1.58895e-06
-1.44484e-06
-0.0310036
-5.58575e-07
-1.2003e-07
-1.8659e-07
-1.39753e-07
0.0411888
-0.0122536
5.17704e-08
-0.00158806
-4.51259e-05
-0.0099022
-2.73772e-07
0.000272263
-0.000160071
1.25743e-07
9.30503e-07
-1.2044e-07
0.0197538
-2.97957e-08
-0.0251875
1.4582e-08
-5.62419e-07
-5.63119e-07
-1.52515e-07
-6.39403e-08
-3.0996e-06
-1.03847e-07
-1.5753e-07
5.58926e-05
8.72955e-08
-1.18281e-06
4.77857e-07
-0.0012195
-5.0019e-08
-1.22876e-07
-2.58849e-06
-1.29682e-07
-1.17235e-07
-1.45707e-06
-0.0062141
-0.00211704
0.00034805
-1.07204e-06
-1.83933e-08
-8.25517e-09
7.85009e-09
-1.02866e-07
-1.90133e-08
0.000723565
-1.00292e-07
2.10595e-06
-2.8657e-09
3.30976e-07
4.42804e-05
-1.68037e-07
-1.75443e-08
0.00370034
-0.0266167
-1.60089e-07
1.32444e-06
-2.24738e-07
-0.00458004
-1.34744e-07
-8.35547e-07
0.00222635
8.25212e-07
-0.00219453
-8.35273e-05
-1.17794e-07
-3.92948e-07
-8.99356e-06
-1.20727e-06
4.5357e-06
-1.22364e-06
0.0263638
-6.16163e-07
8.90235e-06
-2.50282e-06
5.90816e-06
-9.90894e-07
0.00345942
0.0105948
0.0263605
-0.01995
-3.89239e-07
-1.26544e-07
-1.29674e-07
-0.000350128
-0.000344639
-0.00488953
-0.00287602
-4.84315e-09
-8.86344e-06