/*--------------------------------*- C++ -*----------------------------------*\
| =========                 |                                                 |
| \\      /  F ield         | OpenFOAM: The Open Source CFD Toolbox           |
|  \\    /   O peration     | Version:  v2012                                 |
|   \\  /    A nd           | Website:  www.openfoam.com                      |
|    \\/     M anipulation  |                                                 |
\*---------------------------------------------------------------------------*/
FoamFile
{
    version     2.0;
    format      ascii;
    class       surfaceScalarField;
    location    "450";
    object      meshPhi;
}
// * * * * * * * * * * * * * * * * * * * * * * * * * * * * * * * * * * * * * //

dimensions      [0 3 -1 0 0 0 0];
oriented        oriented;


internalField   nonuniform List<scalar> 
27882
(
-0.000323333
-0.000758196
0.0010731
0.000170193
-0.000851058
0.000677004
8.37893e-05
-2.14579e-05
-9.70834e-05
-0.00111275
0.000780367
0.00299062
-0.000167861
-0.00283737
1.45446e-05
-1.80319e-05
2.55256e-07
0.00272326
-0.00253137
-0.00024163
0.00292035
-0.0011522
-0.00178007
0.000189244
0.00278842
-0.00258879
0.000139153
0.0024395
-0.0006233
-0.00016315
0.000782146
0.00011246
-0.00183097
0.0017167
-0.00111178
0.00319693
-0.00209517
-0.000124542
-0.00224288
0.00235596
0.00307916
-0.000706387
-0.00244288
-0.000472382
0.00147084
-0.00107751
0.00181069
-0.00169987
-6.9881e-06
6.9881e-06
0.00109618
0.00192311
0.00337311
-0.00288315
-0.000503122
-2.48564e-05
-0.0019766
0.00199621
-0.00120688
0.000272152
0.00093463
1.27938e-05
-2.13906e-06
2.83831e-05
-1.61417e-06
-3.31214e-05
-0.000533797
-0.000673172
-0.000259786
0.00124731
-0.000987706
0.00181203
-0.00287207
0.00105955
0.000386539
0.00123418
-0.00162182
0.000540839
-0.00162433
0.00108256
3.95802e-05
-0.000690723
0.000648491
0.00145388
0.000908948
-0.00236317
0.00292552
-0.00111425
0.000701737
0.00220634
0.000947547
2.04596e-05
-0.000968094
0.00293595
-0.000959053
-0.00198708
0.000824545
-0.000788289
0.00160022
-0.0027211
0.00275367
-0.00293929
0.00249327
0.00044596
-4.16766e-05
-1.77773e-05
5.80137e-05
-7.6625e-05
0.000718452
-0.00064171
0.00304409
-0.00263049
-0.000424014
9.97701e-05
-0.000722174
0.000620182
0.000212997
0.0013401
-0.00156966
4.7887e-05
0.000432314
-0.000588314
-0.000148159
0.00219886
-0.00205136
0.000963769
0.00207016
-0.000791903
0.00179529
-0.00100439
0.000963326
-0.000761104
-0.000202228
-0.000302057
-0.000738272
0.00103236
0.000164262
-0.000791714
-0.00147432
0.000266914
0.00120733
-0.00105493
0.000744583
-0.000245198
0.00241675
-0.00218582
0.0011249
-5.23433e-05
-0.00107277
0.000624579
0.002562
0.000299505
0.000450949
-0.000762796
0.00265458
0.000703968
-0.000772844
-0.00107356
0.00184525
-0.000603734
0.000889274
0.000320942
-0.000536359
0.00012845
-0.00134622
0.00154236
0.00340112
-0.00145512
-0.00203842
0.00140347
0.000634617
0.000387099
-0.000171436
0.000122919
0.000652714
-0.00077567
-0.000421134
0.000205374
0.000147838
-1.22746e-05
0.000218879
-0.000213637
0.00169092
-0.00130559
-6.75061e-07
-6.73986e-06
-0.00094023
-0.000534186
-0.00145385
0.00126259
0.000191071
0.00303704
-0.00111061
-0.00197452
-0.00277193
0.000874032
0.00189163
-0.00171677
-0.000701103
0.00241495
0.00244912
-0.000995407
-0.00267154
0.00226791
0.000402927
0.00152937
-0.00175507
0.000224232
-0.00241061
-0.000613438
0.000710906
0.000846114
0.000512359
-0.00135897
-0.00226057
-0.000678949
-6.73754e-05
0.00159525
0.00252522
-0.00146779
-0.00106116
-0.000215281
0.00157493
-0.00137457
0.000860594
-0.00145568
0.000594798
-0.00105201
0.00240465
-0.00243017
-0.000349113
0.00211436
0.00128644
-0.000398554
0.00125886
0.00166813
-0.000705058
-0.000963116
0.000312335
-2.3372e-05
-0.000406121
0.00144337
5.50983e-05
-0.00149913
0.000784838
0.00017849
0.00220781
0.000776514
0.000721146
-0.00108404
0.000313556
-4.07383e-05
3.88423e-05
8.06982e-07
0.00115287
0.000584266
-0.00173844
0.000251968
0.00158356
-0.00183676
-0.00280912
0.000256704
0.00250673
-0.00167891
0.00153026
-0.000590403
-0.00158159
0.00216563
0.000199841
-0.000219192
-0.000383795
0.00105248
-0.000709038
0.000831916
-0.00157212
0.00154323
0.000838943
-0.00163176
0.000425225
0.0012429
-0.00311221
0.00118418
0.00192609
0.000580989
-0.00264635
0.00205869
-0.00172613
0.000538622
0.00110025
-0.00167223
-0.000366469
-0.00230356
-5.01819e-05
0.00233864
-0.000111079
-8.7711e-05
0.000155218
-0.00220939
0.0016124
0.0012653
-0.00204424
0.000778263
-0.00088442
0.00203575
0.000147928
-0.000763217
0.000602026
0.00203974
-0.00139255
-0.000647725
0.0014718
0.000227991
-0.00171431
2.38461e-05
0.000199943
-0.000276425
-0.000989864
-0.00168235
-0.00160081
0.00137052
0.000786259
-0.00113155
0.000322632
-0.000565896
0.000836679
-0.000270782
-0.00235865
0.00210002
-0.000158797
-0.00133109
0.00147136
-0.000284957
0.00105012
-0.00187772
0.00129988
0.000577256
-0.000782736
0.000655751
0.00102135
-5.37924e-05
0.000226842
-0.000262431
0.00126558
0.00105593
-0.00232659
-0.00109858
0.000323435
0.000775114
-4.81731e-05
5.67825e-06
0.000239498
3.82696e-07
-0.000292832
-0.00223897
0.00267349
-0.000433926
0.00118259
-0.00176898
0.000569275
0.00127929
-0.00192306
0.000642929
-0.000827972
0.00167349
0.000405181
-0.00272411
0.000229811
-0.00131899
0.00108677
0.00125609
0.000537034
-0.00179474
-0.000523807
-0.00258964
-0.000816629
0.000250736
0.00100177
0.000583566
-0.00158637
-4.34619e-05
-0.00066561
-0.00190129
0.000811144
0.00108952
-0.00081712
0.000649612
-0.00192001
0.000781257
0.00113852
0.000767681
-0.000161702
-0.000605976
0.000698424
-0.000740978
4.25522e-05
0.00283503
-0.00166528
-0.00119044
-0.00122217
0.00302529
-0.00181583
-0.00058265
0.000506045
0.000481073
0.00188928
-0.000218746
0.00166138
-0.00137235
-0.000505856
0.00164787
-0.00257706
0.000924554
-0.000650712
0.00111721
0.00051353
-0.00163073
0.00101016
-0.00118914
0.000160399
0.000544047
-0.000843742
0.000299691
-0.000813888
0.000770386
-0.000567096
0.00234767
-0.00178144
-0.000197863
0.000819254
-0.000633634
-0.000102862
0.00109477
-0.000495809
-0.000973824
0.0014696
-0.00061235
-0.000170384
0.00034566
0.00156506
-0.00191013
0.000486416
0.000198845
-0.000685264
4.7539e-06
5.23022e-05
0.000960694
0.00066425
-0.0016257
1.17042e-05
-1.17042e-05
0.00318674
-0.00200458
0.00220408
-0.000593844
-0.00164206
0.00250536
-0.000347399
0.0012805
-0.000302956
-0.00097774
-0.000160802
0.00110825
-0.00138052
0.00294197
-5.53491e-06
-0.000190291
0.000188357
-0.00279261
0.0023927
0.000388108
0.00132363
-0.00019898
0.00238573
-0.00210233
-0.000964994
0.00192093
-0.000956081
0.000932309
0.0010621
-0.00204325
0.000242256
-0.000935805
0.00107015
0.00146513
-0.00254206
0.000559342
0.000225486
0.00210784
-0.00252113
0.000411982
7.31568e-05
0.000625267
-0.00142561
0.00230098
0.00263945
-0.000746056
-0.00189533
0.00275306
-0.00231478
-0.000439702
-3.98537e-05
0.00013004
-9.63204e-05
-0.00196722
-0.000475527
0.00243136
0.00120488
-0.00189986
0.000694221
0.000776861
0.00203055
0.000859599
-0.000300272
3.04154e-05
-7.04505e-05
2.82466e-05
-0.00122326
0.00109999
0.000110835
-0.000758595
-0.00061408
-0.00244763
0.00246357
-1.80214e-05
-0.00128926
0.000274627
0.000931279
-0.000622411
-0.00118989
0.000814621
-0.000270582
0.00230054
-0.000760395
-0.00156681
-0.00219084
-0.00066296
0.00043779
1.52428e-06
3.26473e-05
-4.81801e-05
0.00179917
-0.00035173
-0.00144814
-0.00016567
-0.00106969
-0.00237481
0.000525444
0.00183069
0.00286125
-0.000764606
-0.00210817
-3.8133e-05
-3.66821e-06
-0.000745646
0.000337451
0.000290237
0.00157967
-1.89068e-05
-2.3818e-06
-0.00086108
0.000219967
0.00063924
0.00216723
0.00058409
-0.00131549
0.00115958
0.000139335
-0.000743687
0.00199798
-0.00141176
0.000652778
-0.00219724
-0.00025258
-8.62584e-05
2.73195e-06
8.26706e-05
0.000813812
-0.00253374
0.00124713
-0.000277181
-0.000970195
0.00150267
-0.000385493
0.000902788
0.00136921
-0.00111796
0.000858005
-0.000840467
0.00184106
0.00124137
0.00194357
0.000241043
-5.69401e-05
-0.000396444
0.00118044
-0.000854787
-0.00109272
-0.000239131
0.00254159
-0.000797824
-0.00174596
0.000871849
-0.000674171
-0.000197683
0.00119342
-0.00180093
0.000606852
-0.00167186
-0.00130758
0.00295982
0.0020518
-0.00121442
-0.000920938
0.00168279
0.000856425
-0.00188503
0.00116
0.000723989
5.46755e-05
-7.29502e-05
-3.10463e-06
-0.00109552
-0.000824779
0.000527421
-0.00163728
0.00110943
-0.000710385
-0.000670777
0.00130649
0.000890053
-0.00120454
0.000267571
-0.000919709
0.000226705
0.000682394
-0.000950932
-0.00189446
0.000686368
-0.000199956
0.000322118
-0.00162441
0.00128366
3.75558e-05
-2.76684e-06
-3.51221e-05
-0.00130757
0.00019973
3.07899e-06
-8.3362e-06
3.17273e-06
-0.00118511
0.00181601
-0.000631401
-0.000581449
-0.00021461
0.000783492
-0.000491004
-0.000963013
-0.000533088
0.000631682
-0.000200226
0.000204625
0.00261447
0.00201873
-0.00208202
-0.000979115
-0.00017441
-0.00116651
0.000392699
0.00179134
0.000846002
-0.000874769
0.00195933
-0.00108525
-0.00208424
0.00120865
-0.00107634
7.69969e-05
-0.000606561
-0.0020093
0.000324181
0.00235444
0.00011539
-0.00249334
-0.00172911
-0.000305383
0.00203402
-0.000864031
0.00119111
-0.000327178
-0.000154072
0.00248425
0.00213528
-0.000927056
-0.00123599
0.000109833
-8.97488e-05
-2.12745e-05
0.000739119
0.00210961
-0.00147379
0.0026161
-0.00114738
1.37132e-07
-2.15418e-05
-0.000649142
-0.00174329
0.00178247
-0.00191626
0.00108509
-0.000242947
0.000206924
-0.000281762
-5.57003e-06
-0.00136862
-0.000440693
0.00172619
0.000144104
0.00075912
-0.000903259
0.00196106
0.000673366
0.00143389
-1.2102e-05
-3.63182e-06
1.49175e-05
-0.000691026
0.00185012
0.00126298
-0.000465989
-0.000841914
0.000829692
-8.19927e-07
3.60681e-05
0.00257269
-0.000813212
-0.0017719
0.000775516
-0.000335043
-1.21378e-05
7.58766e-05
-8.29034e-05
-7.61492e-06
4.17254e-05
-5.21675e-05
0.000966474
-0.000830717
-0.000146477
-1.26538e-05
-7.3921e-05
-2.69544e-05
0.000225437
-6.51405e-06
2.76597e-05
-0.000946346
0.000353966
0.000592385
-0.00253906
0.000188024
0.00234464
-3.81723e-05
-0.000144731
0.000150493
0.000123825
-0.000194222
0.00302672
-0.00154048
-0.00148591
-0.000600178
-0.000128994
0.000725111
0.000108978
-0.000119223
-0.00195821
0.00177015
0.000178177
0.000729333
-0.00230506
-0.00167524
0.000311685
0.00279716
-0.00218163
0.000305494
-0.00175056
0.00126861
0.000907582
-0.00217655
-0.000718948
0.0023992
-0.000675647
-0.00172489
0.00143972
-0.0008996
-0.000822692
0.000843076
8.24036e-06
-0.000202692
0.000188331
-0.000731406
-0.00136729
0.00209895
0.000818894
0.000706222
-0.00152554
-0.000436082
0.000194501
0.000170757
0.0015869
0.00081083
-0.00123987
0.002883
0.00182658
-0.00104559
0.00154726
-0.00048928
-0.0011187
0.000202084
-0.000351967
-1.73537e-06
4.44865e-05
0.00167201
-0.00118774
-0.000518851
-0.00058207
0.000836594
-0.000254522
-0.00250825
0.0008364
0.00166942
0.000420779
0.00194919
-0.00238217
-0.0012123
0.000474325
0.000737946
0.000329491
0.00115497
-0.000790968
0.00019464
-0.000816161
-0.000205787
6.29464e-05
0.00262927
-7.75853e-05
-0.00256819
-0.00145544
0.000620778
0.000825226
-0.00258396
0.00142098
0.00225158
-0.000723581
-0.00155317
-0.000300285
0.002913
0.00310619
-0.000791909
-0.00233243
0.00174502
5.32478e-05
0.0011067
0.00191964
0.0017316
-0.000561842
-0.00227172
-0.00146972
0.00172053
0.000885079
0.000759947
-0.00197881
0.000633049
0.00134374
0.000133267
-0.000737302
-0.000239331
-0.00073723
0.000976486
6.49615e-05
-0.0011608
0.00109403
-0.00114808
-0.000529263
0.00167662
-0.00146321
0.00246584
-0.000816405
0.000628268
0.000188137
-0.00257124
-4.0817e-05
0.00261236
0.00275039
-0.000815739
-0.00193984
0.000496554
0.00259252
-0.00195489
0.0023634
-0.000966022
-0.00167029
0.00261726
0.00152227
-0.000199432
-0.000707129
-0.00265307
0.00033679
1.24039e-05
-0.00103
0.00101558
0.00096474
0.00149991
-0.0024674
-0.00263389
-2.03383e-05
-0.00112747
0.00150812
-0.00205745
0.000545128
-0.0024735
-0.00032945
0.000881852
-0.00176761
0.000110738
0.00198928
-0.000724682
0.00316686
-0.00192766
-0.00119198
-0.00117149
0.00236187
0.000861164
-0.00014402
-0.00177608
0.000627238
3.04479e-06
-1.58592e-06
-0.00123327
0.00046023
0.000772995
-0.000601928
-0.000617227
-0.000139291
0.000752325
0.000983616
-0.000973182
-0.000290699
-0.000195357
-2.79806e-05
2.08787e-05
-0.000757142
0.00102921
-0.000966689
-0.00175788
0.000373964
0.00138067
-0.000293706
-0.00143589
0.000254611
-0.00248128
-0.00148509
0.00254601
-0.00197141
0.00106691
-0.00161922
-7.93653e-05
-0.00166016
0.00173172
-0.000872303
0.00304916
-0.00218902
0.000176816
0.00129431
-0.00148485
-0.000210613
0.000187566
0.000952996
-0.00193355
0.00230637
-9.32294e-05
-0.00226532
-1.09815e-05
0.000143925
-1.01168e-05
5.33584e-05
-6.52925e-05
0.000786395
-0.000215513
-0.000579586
0.00102751
0.00143483
-0.00246753
-0.00273271
0.000860153
0.00187288
-0.00143825
-0.00077325
0.00220826
0.00270618
-0.0012067
-0.00149931
0.00175443
0.000951845
-9.46868e-05
-0.000634079
0.000728769
-0.000230214
0.00170808
-0.00076986
-0.000938852
0.000755373
0.000201242
1.68226e-05
-3.26005e-05
1.05025e-05
-4.74829e-05
-0.000676483
-0.00224587
0.00215644
-0.00107296
-0.00181014
0.00286628
-0.000374843
0.00265721
-0.000943437
0.00182389
0.000393898
0.00206787
-0.00246782
0.000555168
-0.000782014
-0.000223118
0.00196828
0.000378995
-0.000417983
-0.000795994
-0.00174803
-3.76842e-06
-0.000123503
0.000122273
-0.000629138
-0.000230873
0.000859997
-0.00081589
-0.000933182
-6.59065e-05
3.99644e-05
-0.000725071
-0.000487254
-0.00141585
-0.000259202
0.00167439
0.000245741
0.0003995
-0.000771034
-0.00131266
0.00147546
2.98313e-05
-8.56411e-06
-3.08661e-05
0.00140102
0.00176497
3.57408e-05
-1.03933e-05
-4.06601e-05
7.24952e-05
-0.000104498
0.00160047
-0.00216837
-0.00184887
0.00040781
-0.00239588
0.000440821
0.00201759
-0.000719813
-0.00191884
0.00262755
-0.00242691
0.00272951
-0.000310052
-0.00161021
6.56185e-05
0.0015445
-0.00279179
0.00258838
0.000198754
1.68773e-07
1.88484e-06
-5.54333e-06
-0.000580597
0.000122251
-0.000131473
-0.000749604
-0.000715601
0.00114124
0.00145898
-0.0010309
-0.000517312
-0.00166242
0.00257096
-5.58341e-06
2.39791e-06
-6.30574e-05
-0.00237027
5.1756e-06
-0.00010908
7.13713e-05
0.00127582
0.000712706
0.000999404
-0.000376256
-0.000631383
0.000184063
0.00207784
0.000837526
-0.000653853
-0.000183676
-0.000738072
0.000604998
1.34859e-05
-1.19382e-05
-2.19765e-06
-0.000542392
0.00204653
0.00300009
-0.00117077
-0.00184565
-0.00099904
-0.000371621
6.56141e-05
-0.000155397
6.44786e-05
-4.60444e-05
0.000330883
-0.000389728
-0.00232075
0.00078283
0.00153684
-0.00043729
-0.000743436
0.00118073
-0.00236406
0.0026193
-0.000276317
-7.07441e-05
-0.001492
0.00156035
-0.00179219
-0.000842118
0.000294275
0.000986046
-0.000688365
-0.000244945
0.000933607
0.00170458
-0.00117765
-0.000909559
0.000222122
-9.89502e-05
-0.000564713
0.000651325
0.00073641
0.000971019
-0.000827725
0.00190143
-0.00244714
0.000539958
-0.001882
0.00257275
-0.000184552
-0.00067786
0.0013418
0.000474401
-0.00182413
0.00236628
-0.00197463
-3.31901e-05
0.000167139
-0.000162757
-0.000749124
-0.0018162
0.000606436
-0.00130587
0.000653794
0.000452382
0.00091244
0.000997426
-0.00042986
0.000946513
-0.000646518
-0.0021003
-0.000630467
0.00272284
0.000100356
-0.000136093
-2.86495e-06
-5.12457e-05
-8.32794e-05
0.000128394
-0.00105125
-0.000476871
0.0015275
-0.000346157
0.0002009
7.32726e-05
-1.82724e-05
-7.90076e-05
-5.46341e-05
6.76324e-05
-1.3998e-05
0.00142626
0.00156241
0.00178901
-0.000454751
-0.00233438
0.000352694
0.00146676
0.000778476
-0.000618353
-2.89083e-06
2.56284e-06
-5.35581e-07
-0.00105566
0.00206871
-0.00101605
1.92923e-05
0.00102798
-0.00104757
-0.000974542
7.92227e-05
0.000895335
0.000858133
-0.00205152
-0.000510115
-0.000348175
0.000551273
-0.00206681
-0.000926724
0.00048944
-0.000624279
-0.000203116
-0.000711905
0.000909013
0.000195787
-0.000811963
0.00327697
-0.00122865
-0.00205258
-0.000669815
9.77132e-07
-3.75287e-06
2.81561e-07
-0.000563562
-0.0009686
0.00153212
-0.00310693
0.00233002
0.000666321
-0.00149483
0.000914999
-0.00112562
0.000109275
-0.00143485
0.0014787
-0.00155183
-0.000289023
-0.000963068
-0.00229436
0.00182003
0.000438785
-8.59181e-05
0.000301478
-0.00033655
3.51055e-07
9.96278e-06
-1.45697e-05
0.00231893
-0.00144546
0.000464165
-0.000143739
-0.00138851
-0.000321094
0.0017088
-0.000153322
-4.59802e-06
0.00015045
-0.002245
0.00263247
0.000836917
-0.00262944
9.58022e-07
-1.32725e-05
-0.000159864
-3.41327e-07
-1.65765e-06
6.69103e-05
-0.000214086
-0.00202624
0.00223501
-0.000263643
-0.00194494
0.00220161
-0.00271984
-7.55683e-05
0.00225812
-0.00203698
0.00181051
0.000296512
-0.00159932
-0.000982458
0.00257688
-0.000576799
0.00247317
0.0013543
-0.00131096
-6.03742e-05
0.00017815
0.000599108
-0.000174248
0.00266814
-0.000398236
-0.00228855
0.00018814
0.00245913
0.000123355
-0.000846869
0.000723518
-0.00154897
0.000583875
0.000835742
0.000200882
0.00136214
0.000688063
0.00187164
0.000894537
-0.00139037
2.90126e-05
-0.000158261
-3.90366e-05
4.09706e-07
0.000343695
0.000496069
5.85431e-05
-0.000114829
-0.00181064
0.00137873
0.000405686
0.000168566
0.00116593
-0.002765
0.00234407
0.000406293
0.000390102
-0.00179456
0.00071992
-0.000126754
0.00234347
-4.30087e-05
-5.83772e-06
-0.00140664
-0.000849506
0.00225434
-0.00121276
0.000238239
-0.000405294
-0.00193541
0.00232681
-0.0014337
0.00125756
0.000740273
0.00155548
-0.00233277
7.66134e-06
4.29103e-05
-0.00196613
0.00231586
-0.000402326
-0.000311245
-0.000340249
-0.0021645
0.00249752
-0.000185677
0.000777122
-0.000595097
-0.000990066
-0.0015157
0.00249355
-0.00228476
-0.000401966
0.00268443
-0.00141284
0.0021185
-0.00135867
-0.000622088
0.000173381
-5.89849e-05
2.06074e-05
2.87655e-05
0.000722572
-0.00156404
-2.05216e-05
1.94271e-05
-1.43602e-05
1.06722e-05
-0.00275835
0.00228122
0.000476987
-0.000127295
7.15774e-05
-0.00253451
0.00055757
0.00229275
-0.00133066
3.41819e-05
-0.000170269
0.000106648
-0.00224502
0.000624003
0.00156731
0.00023045
0.000677416
-0.000541883
-0.000569444
-0.0021567
0.00272024
0.000130603
-0.00068306
0.00054819
-1.80795e-05
7.38502e-05
-7.35877e-05
-8.99854e-05
6.56677e-05
0.00153214
0.000989709
0.0025751
-0.000652351
-0.00193262
0.00172181
-0.00199192
0.000556376
0.00161536
-0.00248836
0.000202666
0.000678052
0.000271356
0.00118098
-0.000889861
-0.000334564
-0.000362568
-0.000583771
1.85065e-05
-0.000113721
8.96725e-05
-4.29556e-05
3.03733e-05
-0.00197471
-0.000199862
0.00213487
-0.000219731
-0.000709569
0.000922386
-0.00181271
-0.000709701
0.000793187
0.00134109
-0.00213594
-0.00111878
0.00130231
-0.000197508
0.00189942
-0.00138664
-0.00167289
0.00209094
-0.000417908
0.000600847
0.0026711
0.000977676
-0.00127007
0.000210897
-0.00175965
-0.000208158
0.00262699
-0.00104147
-0.00159166
0.000163352
0.00225021
-0.000988675
0.000363996
0.00197942
-0.002354
-0.00189797
0.000560424
0.00130248
0.00094141
-0.00116986
-0.000803732
-0.00104582
0.00184815
6.21232e-05
-9.73009e-05
-0.00059313
-0.00133774
-0.000104475
0.000128669
-0.00159363
0.0010185
0.000536509
-0.00233084
0.00200587
0.000319899
-0.00304925
0.00255547
0.000488503
-9.0363e-07
3.82481e-05
-0.000391982
-0.00197222
0.00232561
0.00331902
-0.00230839
-0.00102656
0.000134372
-0.00214679
0.000918372
-0.000257698
-0.000708076
0.00022791
-0.00247824
-0.000996548
-7.36789e-05
-0.000954677
-0.00107031
0.00202316
-0.000415119
-0.000325859
0.000638876
-0.000515519
8.1338e-07
1.90457e-05
-7.44354e-06
-2.69757e-06
6.48095e-06
-0.00271173
-0.000923489
-2.96763e-05
0.000951749
9.63408e-05
-8.31986e-05
0.000691775
-0.000562216
-0.00235046
-0.000252723
0.00257161
0.000144089
0.00204114
-0.000852974
-0.00119084
0.000423541
-0.000272026
-0.00219425
-0.00148741
-0.000204021
-0.000551726
-0.000589541
0.00109583
-0.000171586
0.0014518
-0.000465912
-0.000914027
0.00163557
-0.00156254
0.00178251
-0.000220999
-0.00183935
0.00234619
-0.00116127
0.00073036
0.00130877
-7.17413e-06
-3.30742e-05
-0.00169833
0.000302842
-0.00169185
-5.2743e-05
-0.0023248
0.00136682
0.00017355
-0.00155411
-0.0011287
0.00130951
0.00136393
1.12489e-05
3.0676e-07
-0.000362164
0.00060968
0.00195494
0.00253327
0.000391528
-0.000158455
0.000168409
-1.87065e-05
-0.00111031
0.000796574
0.000313687
0.000631416
-0.000726098
0.000682082
0.00206372
-0.000244396
-0.00107809
-0.000520728
0.00208552
0.000534807
0.00208487
0.00185473
-0.00235457
0.000496033
0.00295268
-0.000874876
-0.00207951
-0.00166709
0.00146598
0.000200918
-0.00279945
0.00215365
0.000617155
0.00143611
0.000346096
-0.00178261
4.03028e-05
-1.98183e-05
0.000873405
-0.00182969
-0.000664324
-4.16294e-05
0.000175296
-0.00016348
0.00229523
-0.000368219
-0.00193029
0.00174316
-0.00267577
0.00324754
-0.00174359
-0.00151067
-0.00241461
-0.000364455
-0.000128657
0.0027621
-0.00228079
0.000159602
-0.00180019
0.00286402
0.000391765
0.00168702
-0.002081
0.00173459
-0.000428448
-0.00132799
-0.00131457
0.00213291
-0.00231619
0.00240841
0.00233703
-0.00138682
-0.000953941
-0.000146299
0.000131524
7.39191e-06
-3.01573e-05
4.04221e-05
-1.03106e-05
-0.00204257
0.00151819
-0.000889407
-0.000732693
0.000825187
0.000239731
0.000670117
-0.000957929
-0.00233668
-1.92079e-05
-0.000935768
0.00095287
-0.00136136
0.000442772
-0.00141099
0.00203841
-0.000243822
-0.00184079
-0.00269382
0.000291524
0.00237876
-0.00233646
0.000995584
0.00133858
-0.00256702
-7.35688e-05
0.00261328
-0.000925364
-4.57213e-08
-0.00232303
4.31887e-05
0.00227362
-0.00046465
-0.000111942
-0.00234972
0.00244962
0.00171267
0.000513951
-0.00224883
0.000102115
2.24153e-05
0.000528817
-2.02561e-05
-0.000132452
0.00115232
-0.000593223
-0.00238229
-0.000575728
0.0012788
-0.000703081
-3.463e-05
-3.23749e-05
0.0023403
-0.000403763
0.00169218
0.00154857
0.00110736
-0.00186948
0.000762142
-0.00215587
-0.000169472
0.00231897
0.00250772
-0.000446403
-0.000880119
0.000389581
0.00049039
-1.35909e-05
1.39902e-05
-8.04561e-06
0.000978597
-0.00100007
-7.87594e-05
-0.000273114
0.000323509
0.00143298
0.00151789
-0.000210441
-0.00238024
0.0011958
0.00123576
-0.00244899
0.000766407
-0.00110997
0.000343517
-9.74295e-05
0.00107944
0.00133503
0.00269427
-0.000927277
-0.0017869
-0.00261272
0.00108679
-0.000207035
-0.000904809
8.5267e-05
0.00190044
-0.000627831
0.000846041
-0.000413614
0.000910874
-0.00049726
0.00122791
-0.000116694
-0.00112602
0.00085877
0.000202722
-0.00036089
0.000254509
-0.0019935
0.000383199
0.00217763
-0.00138631
0.000354808
0.00195025
-0.0023144
-0.000281743
0.000945832
-0.000704555
-0.00168838
-0.000268988
0.00194767
-0.00113448
0.0023132
-0.0028753
-0.00183159
-0.000172909
0.00111092
-0.000217343
-0.00181562
0.00295219
-0.000774929
-0.00217975
6.97651e-05
3.88829e-05
0.000133513
0.000943776
-0.00108307
-0.00263469
0.00184989
0.000745157
0.00273138
-0.00168108
0.00079687
0.000225779
0.000129477
0.000561771
-0.000702561
0.0016892
-0.00223585
-0.00237192
3.43691e-05
-0.00174849
-0.00130877
0.000348099
0.000862146
-0.00104499
0.000257891
0.000787063
4.18762e-05
0.000290263
-0.000409538
-0.00214077
0.00192045
-0.00272275
0.00208439
-0.00105734
0.00192904
-6.0665e-06
1.80293e-05
-0.000346423
0.0020385
0.000890793
-0.000610982
-0.000281207
-0.00186053
0.000163682
0.00245343
-0.000602773
-0.00107214
0.00110584
-8.9512e-05
-0.0010815
-0.00138662
0.00242908
0.00220351
-0.00133551
-0.000654497
0.000461164
-0.00103477
0.0011803
3.06694e-05
-0.00049963
0.00177216
-0.00134453
0.00294905
-0.000967997
-0.00199659
0.000667366
0.00200635
-0.00163603
0.000133605
-0.00239429
0.00193522
0.000410876
-0.000231285
-0.00062545
-0.00148904
-0.000620241
-0.00167624
0.000306563
-0.000261845
0.00115929
-0.000938577
-0.00133347
-0.000304119
0.00215545
-0.000967826
-0.00118919
0.00112453
0.000701803
-0.00134013
0.00107734
0.000260985
-0.000910215
0.000496604
0.00201282
0.000252494
-0.00231411
-0.00206569
0.00205098
-0.00293508
-0.00128629
0.00115376
-0.00119962
-0.000100657
0.00123148
4.15931e-05
0.000164252
-0.00023532
-0.000115861
-2.84231e-05
0.000122998
0.000857751
0.00189131
-0.000475254
0.00187841
0.00117953
-0.00116057
0.00124798
0.00170182
-8.79013e-05
-0.000424937
0.000507355
-0.00219573
0.00179356
0.000360667
0.00025472
-0.00185772
-0.00152957
0.00255204
-0.00249794
0.00167167
0.000824215
-8.31131e-06
2.66555e-05
-0.000520392
0.00229963
-0.0017968
0.000676815
-0.000558653
-0.000713087
-0.000250399
0.000963474
0.00217817
-0.00262059
0.000440754
0.00270531
-0.00014112
-0.000126171
0.00020981
-0.000968275
0.000807153
-0.00157759
0.000948262
-0.000819907
-0.000227419
0.00204377
0.000633901
-0.00267885
-0.00231796
-0.000423013
0.00272552
6.36357e-06
-9.69916e-05
1.01186e-06
-4.44388e-05
-0.0010336
0.000872707
-0.00239896
0.00260103
-0.000219266
-0.000263922
0.000256717
-3.27428e-06
-0.00222361
0.00150652
0.000715712
0.0026118
-0.00209354
0.00162574
0.000415659
-6.1885e-05
5.87871e-05
-0.00254714
0.000502538
0.00203887
0.00155768
-0.00131583
-0.00225745
0.00189684
0.000314284
-0.00151844
-0.000147079
0.00157863
0.00231853
-0.000367612
-0.00197642
0.00300939
-0.00185954
-0.00119786
0.00260154
-0.000803305
-0.00181156
0.000887522
0.00166349
-0.0025553
0.00147413
0.000503695
-0.00200939
-0.00245493
4.01639e-05
-0.00279475
0.00235272
0.000441489
0.000234604
-0.000947704
0.00223287
-0.00118615
-0.000903948
0.000718049
-0.00115235
0.000889219
0.000262994
0.00200206
0.000749754
-0.00276787
-8.46099e-05
-0.00116335
0.00123518
-0.000100356
-0.00120089
-4.0298e-06
-6.42496e-07
-0.00275677
0.000444188
0.00229933
0.00263247
-0.000644977
-7.35654e-05
-1.94423e-05
7.35432e-05
-0.00278924
0.00237092
0.000609296
0.00197874
-0.00261602
0.000376478
0.0022187
0.0011375
-0.000371164
-0.0023874
0.00090829
-3.04266e-06
8.54317e-05
-0.000102641
-0.00217617
0.00250627
-0.000356642
-0.00266778
0.00210463
0.000562754
-0.00204911
-0.000234352
1.11342e-05
0.000214921
0.000833523
0.00102394
-0.00122541
0.00138573
-0.000239148
0.00225611
-0.000779993
-0.000358192
0.00204356
-0.000696159
-0.00161441
0.00225741
-0.00115085
8.59667e-05
0.00101729
0.00114089
-0.000248739
-0.000917478
-0.000642691
-0.00225079
-0.00143658
0.00184901
-0.000413862
9.43568e-05
-5.16143e-05
-0.00114392
-0.000197692
-0.000708448
-0.000985747
0.00172147
-0.000774721
0.00281746
0.000621732
0.00230964
-0.00059268
-0.00211555
0.00270068
-0.000170701
0.00147462
-0.00270696
-0.0023402
-0.00231073
0.000336725
0.00194609
0.00121248
-0.00135131
0.000138532
-0.00175838
0.000572789
-0.00165926
-0.000986146
0.00262821
0.000482494
-0.00240526
0.00192161
0.000144467
-4.41464e-05
6.01601e-05
-2.66625e-05
0.000869126
0.00116914
-0.000252565
9.62922e-06
0.000273932
-0.000493411
-0.00184198
-0.00329233
0.0010161
0.00225899
-0.000289109
-0.00019924
0.000140328
-0.0006584
0.000513573
0.00112842
-2.08354e-06
-0.00118742
0.000435811
0.00127798
0.00140392
0.000189119
-0.000684974
-0.000644154
-0.00136379
9.77275e-05
-0.00121773
1.74479e-05
0.000273389
4.59049e-05
-0.00224439
-0.00110816
0.00116528
-6.97971e-05
-0.00140604
0.00228974
-0.00121056
-0.000988014
0.00160298
-0.000299706
-0.00130544
0.000562769
0.00125272
-0.00176473
0.00144277
-0.00177264
9.85967e-05
4.40342e-05
-0.000149548
0.00141365
-0.00215866
4.7535e-06
-0.00167192
0.000103769
-2.43601e-05
-0.000119801
0.00167083
0.000157527
-0.00185984
-0.000723774
-0.00147288
0.00218982
0.00010922
0.000556134
-0.000995277
0.0024259
-0.00235074
0.00257948
-0.000246309
-0.00229632
0.0025029
-0.000232801
-0.00257867
0.00208119
0.000495446
-0.00191201
0.00225145
-0.000389956
-0.00131097
0.000769796
-4.48111e-05
0.000136588
-0.000545001
0.00198751
-0.0011577
0.00314978
-0.00199285
0.00277782
0.000763851
-0.000206121
-0.000631628
-0.00203622
0.000673125
0.000197394
-0.00308988
0.00094434
0.00210079
0.00211383
0.000587899
-0.00270748
0.000306803
-0.000895209
-0.00233198
0.00160098
-0.00152665
-0.000232998
4.55734e-05
-4.23861e-05
-9.77289e-06
-0.0019398
0.00229325
-0.000354978
-2.43967e-05
0.00150394
0.00193361
0.000359782
0.00050239
0.002495
-0.00106486
-0.00101481
-0.00229428
-0.00201364
0.000269837
0.00174306
0.000291728
-9.15493e-05
-0.000555031
-0.000950646
0.0014483
-0.00256623
0.00214081
0.000418471
-0.000575332
0.000221096
-0.00165892
-0.002238
0.00268828
-0.000461711
-0.000505026
0.000640861
-0.000527413
-0.00017918
0.00070659
-0.00215358
0.000941399
-8.50587e-05
1.34958e-05
6.63557e-05
0.000158951
0.000210363
-6.42395e-05
-0.00153279
0.000969194
-0.000514254
0.00104563
-0.000194871
0.00112668
-0.00270994
0.000343584
-0.000493395
-0.000432662
-0.00188932
0.000534191
0.00131809
0.00193433
-0.000827004
0.000541109
-0.00124187
-0.000402185
-0.000485604
-0.000970394
3.95081e-05
-0.000175669
-9.84941e-05
0.000109074
-1.46192e-05
0.00015736
-0.00217118
0.00188253
0.00148244
-0.00248029
-0.00233997
0.00226013
-0.0011856
0.00230039
0.000101459
0.000274085
-0.000449947
-0.000253963
-0.00109441
0.000153844
-0.00209388
-0.00217663
0.00167726
0.000445333
-0.0008531
-0.000299378
-0.00159041
-4.4106e-05
0.00159773
-0.000679237
0.00243862
-0.00176685
0.00140476
-0.0011361
-0.000164937
-0.00145488
-0.00155588
0.000943022
-0.000573055
-0.00135007
0.00104693
0.00110676
0.000206954
-0.00245452
-0.00153086
0.00262368
-0.00109738
-0.000906333
0.00220682
-0.00130365
0.00262938
-0.000603389
-0.00204511
-0.0020553
-7.04961e-05
0.00207275
0.000377256
0.00154308
-0.0019243
0.00141501
-0.00127689
-0.00022044
-0.000291053
-0.00172273
0.000503141
-0.000387016
-0.00024348
0.00174164
0.00192832
-0.00214737
-0.000659368
-0.000195394
0.000739272
0.000131766
0.000689133
-0.000832101
-4.12062e-05
0.00110662
-0.0012293
0.000553164
0.000676111
4.13499e-06
-1.53338e-05
0.00166715
-0.00136472
-0.00177393
0.00256145
-0.00079103
-0.000949895
0.00137905
0.000954381
0.00110699
0.000222335
-0.000915846
0.000179082
0.000688153
-0.0028084
0.00230569
0.000489941
0.00165717
-0.00122496
-0.000453774
0.00208931
-0.000250526
-0.00211435
0.000355345
-0.00268743
-0.00215134
-0.000289918
0.00241023
-0.00207477
-0.000175032
-0.00109954
-0.000769882
0.0010875
-0.00271557
0.00247981
-0.0012378
1.75234e-05
0.00116266
-0.0011089
3.75834e-05
0.00106046
0.000535267
0.00207395
-0.00207041
0.00156778
0.000452057
0.000179057
-0.000559727
-0.00229644
-0.000334644
0.00261754
0.00212174
0.000566283
-0.000712197