/*--------------------------------*- C++ -*----------------------------------*\
| =========                 |                                                 |
| \\      /  F ield         | OpenFOAM: The Open Source CFD Toolbox           |
|  \\    /   O peration     | Version:  v2012                                 |
|   \\  /    A nd           | Website:  www.openfoam.com                      |
|    \\/     M anipulation  |                                                 |
\*---------------------------------------------------------------------------*/
FoamFile
{
    version     2.0;
    format      ascii;
    class       volScalarField;
    location    "450";
    object      omega;
}
// * * * * * * * * * * * * * * * * * * * * * * * * * * * * * * * * * * * * * //

dimensions      [0 0 -1 0 0 0 0];


internalField   nonuniform List<scalar> 
18758
(
0.0267458
0.331099
0.0214699
0.0264765
0.0270777
0.0210007
0.0212944
0.0226474
0.0260791
0.0254284
0.335916
0.512933
0.839875
0.022441
0.0212739
0.0211483
0.510352
0.0195918
0.0212643
0.0240165
0.505149
0.309455
0.0211686
0.0208475
0.329948
0.288345
0.297677
0.133043
0.0797373
0.366384
1.69524
0.196585
0.0225464
0.415838
0.0278287
0.374857
0.816849
0.0271558
1.11803
0.0200094
0.344744
0.0265478
0.352319
0.0216824
0.0214654
1.7289
0.0256126
0.0781816
4.66426
0.0265618
0.354052
1.45006
0.026038
0.0239225
0.16576
0.715281
0.0205901
0.0237861
0.0695278
0.0205502
0.0217207
0.0216183
0.37468
1.41377
0.0217426
1.49996
0.0215379
0.0199048
0.124333
0.0196115
2.10119
0.332128
0.0212239
0.0264696
0.0700234
1.65926
0.221832
0.356927
0.0262815
0.355666
0.095878
1.13183
0.391404
0.0426464
0.0223069
0.137174
0.0244558
0.0271916
0.320831
0.136536
2.77514
0.0225684
0.0697996
4.80129
0.0212136
0.0207616
0.0197525
0.0518335
0.429917
0.0211207
1.71573
0.0292783
0.0198983
0.0207579
1.20536
0.498937
0.0799395
2.82398
0.182042
0.0717423
0.021173
1.30616
0.02575
0.021309
0.0293543
2.16969
0.0498346
0.0203925
2.17769
0.0227074
0.0212577
0.227879
0.0223347
0.0205058
2.61169
0.0240328
0.0212826
0.0205078
0.140544
2.27075
0.071966
0.0225002
0.0260923
2.67292
0.0200525
0.0213965
0.505773
0.0221647
0.171888
0.0926761
0.0266437
0.227441
0.0419493
0.197414
2.51679
0.0493669
1.78511
0.124444
0.323644
2.39359
2.34016
2.84598
0.0215853
0.0279634
0.341068
0.310141
0.0691176
0.145141
0.0458871
0.346027
2.33755
0.0206334
5.61898
1.5209
1.74969
0.0207109
0.0206215
2.22069
2.27893
0.493873
3.5441
0.0216016
0.0888646
0.25065
0.188778
0.02112
0.0212125
0.249327
0.378867
0.0219614
0.0198216
0.0240676
0.158641
0.0223626
2.1901
0.0213658
0.36669
0.0334815
4.62907
1.77374
2.91252
0.0213563
0.0703224
0.178437
0.0197222
0.0222833
0.198273
0.0215755
4.39235
0.0208669
0.022096
0.162722
0.131934
0.0211455
0.0211761
5.69826
0.0209951
0.0287532
2.29528
2.34274
0.021303
0.0706569
0.0224579
0.0225336
0.0231951
0.0197717
0.0214391
0.0693841
0.0204543
0.365079
0.156516
0.0209168
0.0407459
0.163335
0.169858
0.313469
0.072438
0.13699
2.2106
0.0209721
0.289811
0.0488982
0.176013
0.0216183
0.020994
0.0209994
0.0864235
4.40546
0.370217
0.021898
0.0211861
0.0777715
0.138266
0.0213299
2.35068
0.247468
0.0210045
0.0206473
0.0213233
0.0211245
3.76956
0.021447
0.269343
0.0211051
0.0218762
0.677977
0.020625
0.350331
0.0212715
1.11091
0.0260212
0.0205315
0.0210162
0.0664965
1.31616
1.31652
0.0205436
0.159613
0.0215996
0.0214125
2.05597
0.480042
0.0213835
0.0208973
0.02378
0.0230165
0.0249858
0.0202729
0.0227492
0.0224357
0.020647
0.022588
0.0212208
1.74793
0.0212845
0.0208825
0.0195574
0.132828
0.0207421
0.0207466
0.0214917
0.0220135
0.0205511
0.020864
0.021282
0.0222708
0.313015
0.0232066
0.021105
2.43365
0.0235046
0.020836
0.0208504
0.932405
0.328332
0.0198162
0.0301386
0.491285
0.0217853
0.764987
0.0212241
1.30713
0.189781
0.0898653
0.077469
0.435772
0.0198752
0.793551
0.184182
0.0215498
0.0845557
0.0433739
2.33961
0.0209816
0.0198815
2.29675
0.251902
0.0207644
2.93038
0.0645502
0.0275297
2.94927
0.0209754
0.0207276
0.0212536
0.0212895
0.0219796
0.0229954
0.0226795
0.02105
0.0219243
0.0218888
0.362248
0.924159
0.0220175
0.849274
0.345711
0.0207506
0.0308443
0.339905
0.328081
0.229582
0.507306
0.0213661
3.44802
1.1807
0.0359608
0.0218837
0.0270561
0.0226315
0.0215249
0.196999
0.181677
0.255005
0.0856128
0.221446
0.0210045
0.0247456
0.0244218
0.0519057
4.66704
2.16437
0.179238
1.70531
0.348397
1.14165
0.0219273
1.03
0.131285
0.342058
0.274946
0.0210728
0.0208149
0.309869
0.244924
0.114282
2.00738
2.77787
0.0219289
0.499918
0.0690086
0.0211584
0.0223748
0.0230576
0.022652
0.0212637
0.0227716
0.0214268
0.0231291
0.0213062
0.0214006
0.0289686
1.1882
0.0269167
1.5988
1.67221
2.31776
1.18761
0.12353
0.0219099
0.0209665
0.346368
0.0223713
0.0219295
0.365307
0.0501303
0.0550701
0.0206526
0.360566
0.021404
0.0235799
0.0197776
4.11633
1.29937
0.228212
0.0212351
3.11173
0.0684824
0.0214028
0.0225807
0.0214019
0.164693
0.0213699
0.0208247
1.76716
0.0272005
0.0219527
0.0212015
0.0225983
0.023875
1.33095
0.0958169
0.022376
1.15954
0.0197703
0.0233561
0.131472
0.0214115
1.71567
0.0223196
0.0240571
0.0214193
2.00627
0.0230483
0.0214207
3.90811
0.325997
0.0195656
0.0247452
0.0237436
0.0211479
0.0209565
0.0222063
1.40425
2.39174
0.0216577
0.0317645
0.265423
0.241674
0.363834
0.248283
0.372416
0.0203188
0.115065
0.0698694
0.0286281
0.0225172
0.371267
0.0360342
0.0261768
0.0206202
0.0212923
0.0207463
0.02141
0.0207404
0.0214277
0.867403
0.0216519
0.0197306
0.0673738
0.0224252
0.0214502
0.0200233
0.0234627
0.0351172
0.494677
0.0210239
0.359699
0.0215304
0.0269825
0.145124
2.31047
1.68519
0.0212687
0.0213769
2.38437
2.90425
0.100454
0.0206179
0.186954
2.004
0.0195544
0.0212936
2.31048
0.0232661
0.0962709
0.0867524
0.0230063
0.0316423
0.0206544
0.0210721
0.0223831
0.0215513
0.020941
0.0217017
0.16939
0.0198147
0.053924
0.231617
0.0195641
0.0198151
0.0218138
0.0247535
0.0284858
0.0964304
0.0211281
1.76842
0.0273455
0.0286806
0.0208585
0.0212173
0.0214786
0.021675
0.0216644
2.39721
2.23522
0.0206424
0.0209226
0.021972
2.24633
0.0197895
0.019794
0.0214438
0.0197405
0.0208476
0.0208284
0.022593
0.0211447
0.0732816
0.0211238
0.0201461
0.16362
2.26104
0.0251197
0.0213164
0.0211275
0.0215616
0.0211974
0.0224102
0.0448026
0.368198
0.0219878
0.161811
0.0211152
0.0317783
0.0213995
0.020942
0.0496476
0.0196147
0.0215625
0.229817
0.0214066
0.0223266
0.0823623
0.0209933
0.0213207
4.33864
0.0203734
0.880059
0.250831
0.0208954
0.021441
0.0401649
0.0229764
0.0285415
0.0211023
1.18823
0.130259
0.372091
0.0206757
2.35951
0.019711
0.0213561
0.0211334
0.0264623
1.76251
0.497536
0.0214188
0.0222958
0.0226367
0.390085
0.134487
0.021062
0.0326124
0.0235808
4.22828
0.0258778
0.0304054
0.0207837
0.0257109
0.0501878
0.0209023
0.0207869
0.0197951
0.0207131
0.0249581
0.083606
0.262332
0.243382
0.0297241
0.0241978
0.0211384
0.0205987
0.0598233
0.325329
0.0200657
0.040918
2.68341
2.414
0.0215677
0.0218781
0.0453318
0.345633
0.0196982
0.339786
0.0212248
0.0229173
0.0281311
0.0214882
0.0216698
0.0220113
0.0206867
0.0223104
0.0900594
0.0490477
0.135485
0.0224333
0.020864
2.19491
0.0198166
2.10683
0.139052
0.0212383
0.43296
0.0228114
0.0214207
0.456636
0.260616
0.250009
1.33668
0.0228239
0.207512
0.0198242
0.828654
2.31538
0.0339026
0.0212145
0.483996
0.0234355
0.0560656
0.140222
2.20748
0.0215534
0.315189
0.0209318
0.0425368
0.0862245
0.0207417
0.0277268
0.202462
0.870322
0.0259528
0.0227155
0.0197319
0.0218804
0.0228264
0.0327902
0.0823356
0.0209065
2.17703
0.0239666
0.0214027
0.0250916
0.0197757
0.0652419
0.0212071
0.0207178
2.24761
0.0206248
0.0228959
0.292569
0.0696506
0.0743747
0.0213966
0.0213735
0.0483239
0.0213527
0.331288
0.0233842
0.0234506
0.0221721
0.0213938
0.0197147
2.20096
0.0197761
2.41949
0.18062
0.0220072
2.68009
0.02072
0.0265992
0.0256699
1.04779
0.0232802
0.0505239
0.341443
0.0216924
0.306071
0.0202948
0.132079
0.0213737
0.0217544
0.708059
0.278643
0.0211881
0.0215488
0.0226291
0.0205634
0.0213904
0.3549
2.74317
0.0208628
0.0205504
0.0203067
1.05521
0.371022
0.0356436
0.0206772
0.034364
0.0217483
0.0213972
0.0272693
0.451301
0.0210647
0.0421828
0.105965
0.0224294
0.29319
0.0213968
0.0259499
0.0210648
0.020461
0.0247812
0.0214365
0.0522146
0.0213971
2.40422
0.0215777
0.0234895
0.0754411
0.854841
0.0412085
0.021155
0.0213894
0.343956
0.0389618
0.0522656
0.0208399
0.0211159
0.0264605
3.88293
0.292254
0.0207985
0.0211741
0.022011
0.0215208
0.0222214
0.0211812
0.0210554
0.363102
0.0211999
0.021328
0.340953
0.0206644
0.263275
0.0986297
0.370621
2.37367
0.223234
2.71695
0.0211898
0.021127
0.0231218
0.02082
0.0210679
0.0205468
0.0206823
0.0218426
1.75502
0.14467
0.107243
0.0234706
0.0210854
0.027614
0.028646
0.056011
0.0215428
0.0225329
0.0204332
3.24991
0.138573
0.208333
0.021619
0.0870689
0.127717
0.302948
3.75457
0.541575
0.0223904
0.0252918
0.0202405
0.365876
0.021547
0.0198894
0.0716376
0.899592
0.0211698
0.256311
0.0567679
0.021234
0.0211441
0.0212488
0.0213015
0.0212815
0.0231901
0.0273165
0.0212626
0.0215602
0.228894
3.2286
0.021253
0.386029
0.253643
0.0220334
0.0215891
0.0208845
0.0207361
0.0228014
0.0220106
0.0210372
0.0216741
0.0229776
0.0215476
0.641039
0.0251132
0.0208859
0.0213212
0.737411
0.0215649
0.0198818
1.8865
0.0210803
0.0305326
0.0247856
0.0213373
0.0208177
0.0205386
0.0243414
0.0386127
0.0210232
0.224963
0.0588407
0.110495
0.497872
0.0219557
0.587808
0.0198243
0.132169
0.0220309
0.0212039
0.162829
1.45242
0.0216514
0.166247
0.318485
0.0205567
0.0274452
0.0198845
0.0220008
0.0252523
0.0222669
0.0211292
0.204622
0.0210356
0.0208848
0.392529
0.0209382
0.0210658
0.0208178
0.507178
0.0213657
0.0214392
0.0270125
0.368543
0.296698
0.458111
0.214559
0.0210887
0.0197555
0.0213464
2.28489
0.0216723
0.0209643
0.0228344
0.0203789
0.127846
0.0215781
0.0215205
0.123194
0.0211513
0.0690812
1.67392
0.0197525
0.0212551
0.220559
0.0229376
2.40244
0.720752
0.0205957
0.0214148
0.860251
0.0206985
0.0228792
0.0988728
0.0202557
0.191701
0.0212353
0.0212653
0.0212715
0.0283599
0.0223439
0.162794
0.0226024
0.0209924
0.056042
0.342757
0.0391966
0.0266472
0.192927
4.32639
0.274395
0.0196991
3.97765
0.0214991
2.27553
0.251193
0.0208452
0.0246372
0.0215981
0.337682
0.0207988
1.42918
0.0209381
0.131283
0.149663
0.0205991
0.0197281
0.0211981
0.165458
0.129165
0.0212318
0.791028
0.0215915
0.0210642
0.151641
0.0212935
0.269915
0.0208442
0.0229839
0.020965
0.0208477
0.0210021
0.0208037
0.0879197
0.0272293
0.0307392
0.0291608
0.0217535
0.021236
0.513514
0.0212623
0.103444
0.0215591
0.476128
0.0248067
0.348244
0.0205738
0.0207695
0.0210404
3.02275
0.0217558
0.11564
0.0567186
0.0214003
0.0248206
0.021258
0.0206386
0.0231844
0.0208718
0.516793
0.0212429
0.0225096
0.0212188
0.022501
0.959788
0.770854
0.0213603
0.0208285
0.0215997
0.021687
0.0211229
0.0231765
0.0218412
0.0211889
0.0203377
0.0205346
0.209776
0.0933505
0.0212653
0.020357
2.02229
0.0225433
1.25878
0.150745
0.0217802
5.78766
0.022433
0.020641
0.0212361
0.0230081
0.0284554
0.0204275
0.0298261
0.261969
0.0286649
2.02013
4.15565
2.30612
0.0297814
0.0215222
0.0214287
0.446302
0.0203564
0.0212866
0.0274934
0.246295
0.0209703
0.0206384
3.196
0.0231773
0.0223133
0.0242467
0.0230238
0.0287113
0.0214219
0.0234068
0.021232
0.0304958
0.022668
0.0216837
0.0216106
0.399465
0.0217066
0.0212459
0.201644
0.01973
0.0208942
0.0213306
0.0220768
0.0218605
0.368695
0.119847
0.457603
0.360964
1.57916
0.263707
0.0220787
2.00856
0.167568
0.0213481
0.021957
0.0214527
0.0214307
0.0221354
0.0224281
0.0816498
0.276233
0.0212677
0.0202582
0.0422089
0.0226261
0.270266
0.0209034
0.0219014
0.0210978
0.507419
0.0581831
0.0271979
1.62611
0.0211287
0.0211079
0.0755456
0.0254828
0.0210871
0.210202
0.0217321
0.024335
0.346182
0.0940385
0.030058
0.0215577
0.0217045
0.0218044
0.0206748
0.170252
0.0827201
3.06868
0.0461279
2.40775
0.0216984
5.47107
2.61327
4.1299
0.127612
1.12694
0.0256602
0.369123
0.113578
0.0322381
0.0195901
0.0211744
0.0213845
0.040174
0.0208286
0.0212846
0.125363
2.47486
1.35448
0.390062
0.0850122
0.2819
0.0258253
0.0233067
0.0212557
2.38492
0.2249
0.021226
0.027386
1.7187
3.71273
2.66904
0.0310688
0.0520049
0.0197638
2.34661
0.021702
0.186034
0.0602377
0.0297468
0.141005
0.118648
0.0214048
0.021235
0.462136
0.0475967
0.210803
0.0216834
0.0215208
0.023396
0.305373
0.0242946
0.37141
0.0217603
0.421927
0.358694
0.0247263
0.681629
0.0711589
2.37747
0.0197642
0.0342327
2.40791
0.0260455
0.021163
0.084067
0.450084
0.0211465
0.0212588
0.264104
0.0226079
0.0225647
0.358531
0.0506938
0.0216677
0.0271519
1.00147
0.027674
0.022924
0.0227955
0.350031
0.0246919
0.0207783
0.0210273
0.23481
0.0207864
2.22756
0.0204531
0.0206874
0.395254
0.0217307
0.0211337
0.170269
0.0197136
0.0229491
0.020506
0.0211144
0.0214975
0.0935337
0.0213217
0.352963
0.167797
0.21937
4.351
0.0235387
0.0205857
0.020789
2.4188
0.0246857
0.0212827
0.349273
0.0295329
1.31026
0.0204925
0.0204395
0.020595
0.0208511
0.0213432
0.0199837
0.022338
0.0226484
0.0213044
0.352389
0.0276531
0.395246
0.0225128
0.0205114
0.0239834
1.10739
2.76592
0.370574
1.24505
0.0923993
0.198714
2.70124
0.0225056
0.0365178
0.0414916
3.2986
0.0210095
0.856162
0.338151
0.179983
0.0211915
0.212718
0.0210765
0.021247
0.021866
0.0284222
1.07796
0.352603
0.0215455
0.0196356
0.0204981
0.0201466
0.0299165
0.0213485
2.70553
0.0622003
0.0279311
0.0217826
0.0211543
0.0199488
2.3068
0.102396
0.0215315
0.0214698
0.138174
0.0201339
0.0213468
0.0203157
0.0213064
0.0214826
0.0212871
0.0205255
0.048767
0.0227517
1.797
0.0243449
0.021618
0.274988
0.0218609
0.38555
0.0216252
0.0498782
0.0714033
0.332218
0.0349048
0.104721
2.28616
0.0226927
0.0316086
0.0224745
0.021178
0.0205095
0.0209542
0.0741643
0.0336593
0.0233719
0.0729167
0.0204864
0.0213814
0.0324564
0.0768192
0.0196968
0.040734
0.26715
0.129418
0.0971867
0.0216737
0.0215147
2.53639
0.0288103
0.0208696
0.0211403
0.131276
0.0205657
0.0206666
2.37951
0.0564787
0.0226514
0.0223377
0.021893
2.74326
0.0233219
2.32181
1.12169
0.0212325
0.0210606
0.825365
0.0299784
0.0358395
0.0221692
0.0487785
0.0241053
0.0208402
0.0237398
0.191715
0.0365979
2.52829
0.351609
0.0320223
0.0901585
0.825783
0.0207011
0.257536
1.49226
0.0231169
3.40095
0.0215879
0.196638
0.0830048
0.338814
0.0443567
0.0356547
0.0288738
0.349764
0.0210805
0.0198905
4.37378
0.0229652
0.021152
0.0211866
0.0216676
0.0199522
0.0219344
0.0210216
0.0211804
3.12091
0.223984
0.0211255
0.0218287
0.850985
0.217357
0.0197397
0.213063
0.580595
0.0428179
0.0213688
0.0209915
2.32416
0.0217185
0.0511145
0.0910031
0.0206746
0.0327552
2.68618
0.0209035
0.309567
0.369015
2.50069
0.0218837
0.0209119
0.0213012
0.0211123
0.0211996
0.360504
0.109605
0.0204409
0.0550331
0.345885
0.0217882
0.0215277
0.0212016
0.438316
2.52261
0.0299718
0.0290244
0.0227484
2.08776
0.393149
0.0205134
0.0211158
0.0249357
0.0323629
2.19536
0.346518
0.0206839
0.549364
0.397397
0.0234473
0.0208802
0.0215437
0.023453
0.0210616
0.0219769
0.0206547
0.0333467
0.318431
0.0213467
0.0215278
0.0295558
0.0206861
0.0211277
0.0219238
0.418284
0.0206124
0.0229626
2.29821
0.186941
0.0756937
0.0869192
0.0222271
0.022293
0.0220694
0.0204257
0.0210775
0.0218983
0.0548728
0.0251392
0.0221335
0.0286531
0.0204003
0.145998
0.708193
0.0212188
2.18832
0.0207985
0.0224182
0.188398
2.46689
0.023633
0.0230781
0.0232285
0.0314157
0.0197706
0.351833
0.67118
0.0206426
0.0799855
0.37375
0.0213431
0.0222823
0.404595
0.0704525
0.0215693
0.327986
0.0236858
0.0211879
0.443055
0.290743
0.050185
0.0207454
0.417524
0.0338214
0.0199374
0.0464319
0.0271527
0.0217414
0.0530474
0.948085
0.363746
0.038421
0.0302052
0.0206262
0.400081
0.383325
0.202907
0.305548
0.0213432
0.755318
0.021343
0.0210633
0.0430514
0.0219988
0.236594
0.417981
0.0215857
0.711352
1.75946
2.9141
0.0263068
0.0658378
0.0196984
0.0221469
0.0228986
0.0196725
0.180795
1.59234
2.47098
0.0555416
0.341534
0.343797
2.40375
0.0212411
0.0227173
1.26278
0.0588359
0.0213452
0.0211428
0.860987
0.0281584
0.0254388
0.0212456
0.02149
0.0316185
0.0211499
0.089334
0.406321
0.0199535
4.84637
0.0204569
2.23711
0.240496
0.459194
0.0225211
0.506891
0.0216914
0.0211331
0.0221514
2.9666
0.0328906
0.422218
0.0214976
0.0211441
0.0961847
0.405561
0.0215794
0.138142
0.287888
0.627262
0.211733
0.0208926
0.0213639
0.255666
0.0196882
0.0205709
0.023718
0.0212304
0.0215292
0.0208594
0.0211316
0.0234599
0.0211725
0.0298081
0.0287413
0.0211298
0.689065
3.37781
0.0245596
0.0202753
0.0212937
0.0273016
0.0213561
0.021249
0.0213499
0.124164
0.0212321
0.0228558
0.0229522
0.0318876
0.339516
0.0209568
0.0288681
0.0329347
0.0254127
0.0703357
0.0343964
0.0207992
0.0212003
0.121795
0.0912444
0.0234191
0.879475
0.329686
0.0212987
0.351221
0.0219593
0.0750955
0.86679
0.757522
4.39988
0.0228989
0.0210762
0.266827
0.0230109
0.405595
0.0294265
0.514796
2.25807
0.020737
0.0393616
0.0210906
0.0313446
0.0948988
3.31893
0.021039
0.0213437
0.0994777
0.0216337
0.801463
0.0206867
0.362028
1.33616
0.0416835
0.382515
3.16251
0.020812
0.0209406
0.0213504
0.0537644
0.367041
0.0217689
0.0227576
0.0217934
0.0202854
0.0291405
0.0208344
0.0204087
0.781763
0.0217108
0.0203761
0.0236092
2.39774
1.74236
2.47169
0.0215291
0.0674893
0.0282246
0.0245267
0.136683
0.868133
3.04116
0.0207087
0.0449289
0.0197396
0.0328497
0.0322415
0.0530376
0.524163
0.0216252
0.0988028
0.0203169
0.346874
0.345999
0.020409
0.0223315
0.0221666
0.0221995
2.33056
0.0213265
0.0213661
0.0219226
0.0216347
0.0206006
0.0223518
0.0213041
0.0217402
0.0213511
0.0211115
0.539252
0.311673
0.397251
0.020098
0.0197658
0.0198481
0.0201589
0.0199034
0.0369154
0.0198576
0.0206286
0.0212558
0.0208694
0.0274422
0.0212601
2.00539
2.72415
0.037913
1.29532
0.0215284
0.727059
0.0290225
0.262111
0.0205617
0.5102
0.0221122
0.0213563
0.0213587
0.0731617
0.107335
0.0209334
0.0275064
0.0283432
0.0211775
0.0328093
0.442487
0.0313986
0.020936
0.0231771
0.115802
0.0230625
1.69815
0.0209419
0.0224395
0.0213566
0.0227947
0.0315209
0.399192
0.0334972
0.0203735
0.359718
0.0269288
0.032371
0.0210617
0.0244043
3.96616
0.020698
0.0217323
0.0271324
0.155143
0.0199192
0.0211003
0.0204733
0.0325028
0.0215589
0.405835
0.0213592
0.0245959
0.0265945
3.12584
0.0206647
0.020431
0.019753
0.0282714
0.0202679
2.45003
0.407912
0.0313908
0.345805
0.0212827
0.346706
0.0213935
0.0205966
0.030741
0.0567222
0.191805
0.341734
0.397472
0.254287
0.0278351
0.0323745
0.0222312
0.0606942
0.0213603
0.0229471
1.843
0.0216583
0.36653
0.272849
0.23145
0.0819818
0.336071
0.881087
0.49712
0.0878835
0.0222874
0.0272526
0.0213613
0.0203876
0.0210557
1.96162
2.41406
0.317608
0.0247226
0.0235172
0.363155
0.0209515
0.0264523
0.0204265
0.0333127
0.0212045
0.0199204
0.022236
0.0404124
0.351632
0.0309178
0.0264279
0.020444
0.0255603
1.17416
0.0203155
0.060988
0.344597
0.0196842
0.0643553
0.020582
2.63209
0.0217965
0.405142
0.0218459
0.021506
0.025629
0.0304785
0.628102
0.0280558
0.335324
0.0224375
0.0213442
0.0213584
0.0215257
0.0203608
0.0213109
0.558173
4.64189
0.0270695
0.0212863
0.0252293
0.0233516
0.0215675
0.0214743
0.0940671
0.301466
0.359751
0.0213433
0.345659
0.0205735
0.0691571
0.0224063
0.0390174
0.336593
0.31852
0.396341
0.0199442
0.021313
0.0209586
0.0211644
0.0213585
0.0211414
2.51873
0.0215511
0.0219346
0.021836
0.0371409
0.0211336
2.34251
3.9493
0.388443
0.0213615
0.336788
0.0203478
0.371828
0.104118
0.0224179
0.372932
0.0233435
0.0693801
0.0207722
0.0225037
0.0267156
0.0502256
0.12153
0.510013
0.189826
0.157607
0.0359003
0.0220535
0.0212218
0.0902909
0.0229383
0.264714
0.0219641
0.651715
1.14545
0.222042
0.0222551
0.11646
0.0232618
0.0218842
0.0201769
0.0227849
0.0718544
0.0212498
0.407905
0.0431168
0.12593
0.0210872
0.0249954
0.348499
0.251081
0.398772
0.0239303
0.0310616
0.548727
0.0933575
0.0216952
0.0485985
0.415465
0.0686082
2.00371
0.0244474
0.0257848
0.239585
0.019974
0.273788
0.050144
0.0213471
0.353542
0.228669
1.6103
0.0235493
0.137305
0.0271533
0.0204308
0.0510669
0.021921
0.218206
0.0209407
2.87081
2.89845
0.418702
0.415776
0.127937
1.41072
0.0235257
0.0590202
0.405945
3.10753
0.0223248
0.0219774
0.0210725
0.0253063
0.0200095
0.0210599
1.67536
0.0210666
0.0206337
0.0294963
0.0219995
0.0198556
0.0296126
0.293741
0.0683897
0.0211519
0.0213633
0.0269094
0.0223273
0.0210627
0.0209644
0.0204092
0.705335
0.0243808
0.122092
0.0264941
0.0212212
0.0199064
0.293594
0.174719
0.530564
0.0316545
0.0216457
0.0323526
0.0209613
0.0263963
0.0986996
1.59987
0.0438041
0.0229605
0.0203392
0.0266285
0.190179
0.384611
0.254441
0.0241061
0.0204119
0.0206116
0.0237345
0.0772305
3.98674
0.020479
0.238684
0.019904
0.0210128
0.101064
0.020895
0.727164
0.106323
0.0469291
0.0199146
0.0352583
0.0392936
2.42786
0.0203861
0.0217188
0.20517
0.496361
0.307971
0.491726
2.43701
0.0226345
0.212772
0.0242231
0.0301134
2.33627
0.0248876
0.0209743
0.0215475
0.0201051
0.94464
0.896897
0.0241241
0.847755
0.0201617
0.0209869
0.0215049
0.169627
0.0540339
0.734412
0.0213964
0.0218579
0.0303243
1.43596
0.0203358
0.281827
0.021008
0.0227976
2.87281
0.0208802
0.117733
0.697823
0.258394
0.55821
0.0214026
0.0231337
0.0226816
3.66677
0.0288494
0.0213782
2.39965
0.291451
0.0196735
0.0223935
1.65589
0.0204451
2.45498
2.61579
0.0239649
0.0197605
0.0237101
0.0246996
1.80522
0.0205857
0.0334759
0.0222914
1.35905
3.0017
0.021238
0.0202175
0.173916
0.0256055
0.0214889
0.0211133
0.020903
0.0525683
0.0226642
0.10084
0.0219005
0.0217329
0.0212067
0.022537
0.0265109
0.0227422
0.704006
0.379023
0.262619
0.0217556
0.0203237
0.0992624
0.0256758
0.0716528
1.55337
0.127358
0.38993
2.55764
0.0203152
0.0946663
0.234432
0.0221662
0.0208626
0.0213995
0.0213841
0.60747
0.29548
0.0213671
3.3898
0.474958
5.32816
0.0198371
0.0206156
1.386
0.0209088
0.0214746
0.0245092
0.0210727
0.247973
0.0229689
2.42276
0.263583
0.0209383
1.98612
0.0691646
1.98297
1.93591
0.0212881
0.0238886
0.0332649
0.352405
1.94188
0.267196
0.0217275
0.0214012
0.0935399
0.0204453
0.477672
0.414447
0.0209515
0.9704
0.020401
3.11909
0.0218833
0.330694
0.0221046
0.84381
2.15438
2.56631
2.33318
0.0200919
0.397314
5.93061
0.0218419
3.3173
0.0217544
0.0199791
0.0212186
0.0257418
0.0234894
0.0215203
0.0210114
0.0732065
0.0394911
0.043665
3.01989
0.0549062
0.0281246
0.0224391
0.0620016
0.0202018
0.123578
1.48795
1.57912
0.387848
0.0224869
0.0230899
0.0222027
0.0295268
0.0227274
0.0210702
2.40838
0.232439
4.14616
0.0244496
0.0215323
0.0419892
1.65053
0.022084
0.0204225
0.0224028
0.0225106
0.0383333
0.0212637
0.36264
0.0216871
2.78279
0.0206022
0.308328
0.432795
1.51371
0.0201145
0.119411
0.0213583
0.0204105
0.0748029
0.254819
0.0210472
0.0219846
2.51968
0.0212968
0.0560668
0.509265
0.026562
0.61357
0.0214561
0.327587
0.0269768
2.3608
0.0203123
0.021069
0.429975
0.0208519
0.346307
0.0239058
0.0276315
2.55066
0.0222343
0.0214001
0.0220126
0.0210531
1.50761
2.99447
0.020417
0.335508
0.0358529
1.94586
0.0212353
0.0818392
0.367319
0.025519
0.0272651
0.0213704
3.63214
0.0200047
2.52066
0.0203011
0.0208372
0.0232396
0.0215542
0.0206871
0.0647858
0.0228289
0.0210503
0.286762
0.0204548
0.044859
0.024521
0.753688
0.0260653
0.0206144
0.0326417
0.0210051
0.0209595
0.0236932
2.59392
0.339133
0.283564
0.328783
0.0203957
0.0212304
0.0213937
0.0209237
0.0202175
0.446284
0.0199009
0.0234937
0.22375
0.0220185
0.286087
0.02149
0.0204015
3.82726
1.64375
0.0215697
0.0487115
0.0245926
1.84029
0.0210691
0.0226472
0.17337
0.0214768
0.318696
0.223757
0.0220011
0.0220881
0.347537
0.0241047
0.0537694
0.292799
1.18923
0.0230987
0.0251263
0.0340925
0.349387
0.0219709
0.33695
0.863963
1.09851
2.7057
0.020532
0.0213757
0.0211697
0.366653
0.102461
2.09688
2.34584
0.0200989
0.103501
0.020571
3.63567
0.0212067
0.0352258
0.117307
0.0221269
0.0220825
0.137923
0.0242629
0.0217173
0.0219015
0.0681061
0.0228927
0.0209579
0.0943793
0.0217921
0.0217662
0.0212101
1.13708
0.0270146
0.396008
0.0271906
0.0227256
2.59097
0.0243957
0.108387
0.0203936
0.0211802
1.11607
2.68782
0.1094
0.0217996
0.0238575
3.06942
0.113918
0.102825
0.340063
0.0638928
0.125565
0.0203788
0.691453
0.0206907
0.0661566
0.0801433
0.124373
0.124733
0.0223059
4.18046
0.0717165
0.364643
0.0323374
0.0210733
0.021345
0.0213285
0.0966584
0.0205264
0.46774
0.0709957
0.368621
0.020219
6.8026
0.76927
0.35301
0.399593
0.0221126
0.0216705
0.0211045
0.0255699
0.0213855
0.0250513
3.80222
0.0213438
0.0222102
2.48284
0.333267
0.360157
0.025405
0.0294865
0.0208085
3.93421
0.0221202
1.50654
0.0396681
0.324436
0.030216
0.12341
0.139426
0.0212843
0.0211902
2.30004
0.330704
0.818531
0.161273
0.0433815
0.0208623
0.0737751
0.0214226
0.0833591
0.0213866
0.0224435
0.395263
0.0219663
0.123564
0.0205665
1.30033
1.34587
0.0263084
0.0274708
3.37277
0.0259596
0.0202901
2.95561
0.857863
3.77985
0.0209032
0.0217731
0.224881
0.639159
2.67256
0.0214978
0.0233045
0.0215771
0.0250877
0.0217304
0.0206814
0.601602
0.0209697
2.44004
0.0233995
0.115361
0.0201183
0.570554
0.976067
0.124123
0.328153
0.13866
0.0206454
0.0817902
0.556364
0.0208631
0.021684
0.0213255
3.20049
2.29603
0.0214832
2.5732
0.0361589
0.0212444
3.31791
0.0226074
0.068729
3.14952
4.20958
0.0220551
2.60707
0.0234928
0.0202969
2.76856
0.0431449
0.390338
0.413071
0.025883
1.3944
0.305945
0.0257311
0.812233
0.621706
2.5241
0.0220108
0.0200458
0.0211228
0.0224262
0.362093
1.98822
2.60702
0.830648
0.0241401
0.0200338
0.0209455
0.023683
0.337235
0.0212019
0.392922
0.290111
0.0203827
0.022166
2.64372
0.0599128
1.93484
0.326822
0.0213372
2.33121
0.407046
0.972419
0.0223598
0.0247089
0.326705
0.0213396
0.0228334
0.117384
0.024225
0.323678
2.55125
0.022232
0.110947
0.137258
0.0484612
0.0377837
0.357487
0.25491
0.472393
0.0213638
0.678172
2.22621
0.0401688
0.0220223
0.0205393
0.0217437
0.0223243
1.74335
0.0225333
2.44359
0.0225708
0.0212497
3.14076
0.152032
0.0202797
0.0211327
0.282623
0.267557
0.0213869
0.0204593
0.0254307
0.0245764
0.220926
0.0662553
0.0205684
0.116657
0.0220352
0.397188
0.339473
0.382299
0.0212725
0.0330186
2.70113
0.381381
0.0221002
0.103029
0.278525
0.292327
0.0203147
0.0224398
2.20845
0.156022
0.0781721
2.72794
0.0214267
0.0683254
0.0228483
0.0527059
0.0741447
0.193175
0.156843
0.0284678
0.0210509
0.027908
0.41101
0.0213525
0.0282153
0.406812
0.0741998
0.0206844
1.59696
1.10382
0.0839475
0.0224871
0.0215462
0.0215225
0.0239952
0.0372458
1.96669
0.116401
0.0204386
0.0213021
0.344954
0.261948
0.0214479
0.42064
0.0766668
0.0227211
2.42242
0.560037
0.0202809
0.896434
0.374556
2.89748
2.89862
0.020788
0.313053
0.147105
0.0223473
0.0243917
0.347535
0.372256
1.39867
0.0373044
0.021303
0.0243914
0.425113
0.031704
1.40599
0.0198188
0.0217246
2.68442
0.404565
0.0320035
0.100118
0.0628758
0.0233232
0.372214
0.628563
0.231083
0.249761
0.0595522
0.0657499
0.0213226
0.0213179
0.0615672
0.310936
2.78134
0.711164
0.14702
0.370324
0.310963
0.0278153
0.0210113
0.0217601
0.0718588
1.71903
0.0204903
0.0643486
0.513023
0.115608
0.949296
0.0551898
2.94156
0.0219674
0.0227552
0.248018
0.0384234
0.0217821
0.0222597
0.80999
0.0339642
0.062898
0.0204196
0.0213111
0.361325
0.389672
0.0221774
0.103618
0.283838
0.0928103
0.0224819
0.266936
0.0210607
5.01424
0.128575
1.89799
0.0215361
0.19769
0.0201017
0.0213099
0.362659
1.13293
0.0947377
0.0204089
0.228882
0.454409
1.32191
0.438991
0.0441918
0.0222784
1.5076
0.193897
0.0212284
0.0209545
0.292862
0.889683
0.441952
0.0253779
3.87623
0.0203761
0.0217879
0.656753
0.0699703
0.021184
0.295314
0.0214487
0.0215202
0.0220287
0.0223746
0.0933165
0.278021
0.0196638
0.0959139
0.0208995
0.0319727
0.355979
0.0218709
2.4075
2.39463
0.222289
0.227998
0.0214812
4.21922
0.0224683
0.15836
0.0207747
0.145721
0.0385322
0.0242361
0.0214801
0.132142
0.0632675
1.09191
0.293418
0.0219554
0.0202687
0.40961
0.150874
0.0300715
0.456613
0.0239403
1.33648
0.0214768
0.204768
0.14101
0.0483225
0.0203287
0.0642247
0.0539111
0.170292
0.0224973
0.0241751
0.0247069
0.0238686
0.0247098
0.0245535
0.0244396
0.0210597
0.100144
4.01112
0.0688208
0.0242119
0.0212112
2.74175
0.431672
0.0212532
0.0653591
0.0241605
0.0231344
0.422371
0.37874
0.0202806
5.33623
0.0215425
1.4298
0.239722
0.204018
0.0239021
0.0217937
0.0230773
0.0204596
0.0226765
0.345433
0.285311
0.0310471
0.401588
0.164342
0.0213701
0.0497994
1.22121
0.0215073
0.0246437
0.197797
0.0238029
0.0573528
0.0236573
0.0236687
0.0479338
0.295375
0.105548
3.1469
0.0245946
0.298229
0.0676736
0.104705
0.0675831
0.0272054
0.0210571
0.0239196
0.178804
0.386751
0.366037
0.0210005
2.33218
0.398961
0.339586
0.150991
0.919711
3.26579
0.879068
0.0198133
0.113151
0.0235586
0.213854
0.289168
0.360563
0.0211254
0.392963
0.0505747
0.14202
0.0210771
0.838932
0.0237284
0.263864
0.0226155
0.114517
0.182446
0.0246514
0.0208592
0.0217263
3.26397
0.0207821
1.90937
0.0657438
0.690417
0.0283953
0.0397615
0.0775747
0.021219
0.0207668
4.01371
0.0230797
0.020863
0.0211525
0.348277
3.81696
0.148568
0.0213963
0.0368955
0.359567
0.19963
0.0437752
0.0209983
0.589964
0.294434
0.0262198
0.0233614
0.0208187
0.746629
0.0210207
2.38108
0.324507
0.0420703
0.807394
0.0338541
0.0203086
0.022672
0.420877
0.0233562
0.0259734
0.0211047
0.0220032
0.382261
0.134196
0.174611
0.0205234
3.80711
0.0715288
0.342093
0.0212308
0.0261437
0.0240443
0.162696
0.0212609
0.058084
0.379719
0.114326
0.0240669
0.0208547
0.0261842
0.0254785
0.0462234
0.0202289
0.0227649
0.0215822
0.0215064
2.70346
2.88599
2.29518
0.0329904
0.0219935
0.0197026
2.31038
0.864235
1.82948
0.0236257
0.114251
0.0213093
0.0217495
0.0853674
0.0207566
0.627116
0.0218038
2.30779
0.0202085
3.75664
0.0214576
0.293143
0.35057
0.108059
0.325633
0.0196983
2.51542
0.0203357
0.149004
1.68525
0.171746
0.0206323
0.0520413
0.15965
0.0732278
0.129275
0.0307032
0.122251
0.0201237
0.038904
0.0204138
0.339664
2.12312
2.50604
3.73913
0.0216937
0.414742
0.0209395
0.0215726
1.63286
0.0201792
0.0210428
0.0210958
0.0210941
0.25403
0.022409
0.0230741
0.0219468
0.0215252
0.0211727
0.0224724
0.0237964
0.0214659
0.030974
0.0360401
0.0347938
0.400629
0.0233419
0.0611813
0.087801
0.0402931
0.0521001
0.113696
0.210927
0.060748
1.90142
2.35726
1.47234
0.0203636
0.0209155
0.0233099
0.0199169
0.110172
0.0268468
0.0202979
2.94025
0.41557
0.711245
0.0394506
0.0616916
0.0399165
0.0213849
0.848825
0.127624
0.0223303
1.40501
1.64879
0.021554
0.378798
0.772334
0.357369
0.353187
0.065112
0.0547336
0.0207216
0.019913
0.240098
1.73285
0.874244
0.0234656
0.0211195
0.773287
0.0333137
0.0229184
0.019921
1.99452