/*--------------------------------*- C++ -*----------------------------------*\
| =========                 |                                                 |
| \\      /  F ield         | OpenFOAM: The Open Source CFD Toolbox           |
|  \\    /   O peration     | Version:  v2012                                 |
|   \\  /    A nd           | Website:  www.openfoam.com                      |
|    \\/     M anipulation  |                                                 |
\*---------------------------------------------------------------------------*/
FoamFile
{
    version     2.0;
    format      ascii;
    class       surfaceScalarField;
    location    "50";
    object      meshPhiCN_0;
}
// * * * * * * * * * * * * * * * * * * * * * * * * * * * * * * * * * * * * * //

dimensions      [0 3 -1 0 0 0 0];
oriented        oriented;


internalField   nonuniform List<scalar> 
27284
(
0.000240403
-0.000397941
0.000157662
-0.000200366
0.000183958
2.26299e-05
0.000142416
0.000119561
-0.000261928
-0.000128812
0.000203712
-5.9824e-05
2.2607e-05
0.000422685
-0.000442691
-0.000441798
-0.000124758
0.000568074
0.00027411
-0.000436953
0.00016564
0.000441246
-0.000416071
-3.18244e-05
4.28774e-05
5.50821e-07
0.000300909
-0.000353988
5.42839e-05
0.000651441
-0.000220986
-0.000428808
0.000247917
-0.000120184
-0.000127691
8.76041e-05
0.00016035
0.000173813
0.000316554
-0.000489802
-7.38114e-05
7.27227e-05
1.34405e-05
0.000108477
-0.000146507
4.23826e-05
-0.000173077
6.22471e-05
-0.000132146
0.000546366
-0.000412506
0.000153554
0.000159684
-0.000313147
0.000255932
0.000144548
-0.000397785
0.000199155
-0.00044725
0.000248325
0.00011098
-0.000525235
0.00041733
-7.29418e-05
0.000147077
-6.54994e-05
0.000107845
-0.000547971
5.46223e-05
-0.000119883
0.000396562
-0.00054244
0.000149529
0.000116031
0.00034854
-0.000459605
-0.000330624
3.62404e-05
0.000309087
-2.34447e-05
2.2118e-06
0.000610306
-0.000238219
-0.000370971
0.000243766
0.000206642
-0.000450232
0.000175868
-0.000495048
0.000319776
-0.000137505
-1.94183e-05
0.000159924
8.08436e-05
7.27012e-06
-8.44765e-05
3.73858e-07
3.18345e-07
-4.32131e-07
0.000339056
-0.000460527
0.000123396
0.000224018
0.000167284
-0.000390821
-4.77423e-05
0.000388485
0.000210162
0.000401299
-0.000541306
0.000470602
7.2972e-05
4.01664e-05
4.45108e-05
-5.45247e-05
0.000414399
1.36061e-05
8.41784e-05
-9.41147e-05
0.000164159
-0.00019913
4.13312e-05
-2.96626e-05
0.000161261
-0.000206027
4.47794e-05
-0.000324067
-4.73221e-05
0.000380662
4.29754e-05
-0.000357666
-0.000296854
0.000540922
-8.82352e-05
-0.000446187
2.35223e-05
-1.16057e-05
-8.13993e-06
0.000253502
-0.000416656
0.000163218
0.000445051
0.000101586
-0.00018599
0.000333036
-0.000146914
0.000532608
-0.000164624
-0.000355915
-0.000167802
0.000426731
6.64661e-06
-2.9891e-06
-2.01034e-06
-0.000468979
0.000544572
-0.000144489
-0.000191764
6.73127e-05
0.000124461
9.81706e-05
0.000109947
0.000141346
-0.000251211
-0.00036342
0.000177609
0.000241938
-8.11087e-05
-0.000158581
2.05173e-06
0.000337048
-0.000338619
-2.23901e-05
2.07068e-05
5.66958e-06
-7.99454e-05
-0.000292852
0.000373971
-8.12506e-05
0.000305674
7.2143e-05
1.05076e-05
-7.95528e-05
-0.000581554
0.000390366
0.000192795
-0.000326315
0.000424068
-9.21171e-05
0.000263434
0.000278289
-8.48454e-05
0.000457757
-0.000372231
0.000568477
-0.000140981
-0.000426162
-5.79645e-05
0.000397891
-0.000338227
8.12671e-05
1.27749e-05
-9.06915e-05
-0.000412709
-5.61685e-05
-7.13238e-06
9.18236e-05
-0.000398152
7.67292e-05
0.000358195
-0.000414371
0.000332586
-0.000411231
-0.000337723
0.000481591
-0.000142437
8.80652e-05
-0.000366639
-3.25948e-05
0.000400365
-0.000465666
0.000200199
0.000265894
1.42695e-05
5.19653e-06
-1.26077e-05
8.36297e-05
-3.709e-05
-2.61807e-05
0.000107493
-0.000372335
0.000265293
0.000348287
2.9382e-05
-0.000368821
-0.000284327
0.000392307
-5.15651e-05
-0.000371226
0.000543448
-0.000365473
-0.000177718
0.000198671
-0.000534679
-0.000492748
0.000410534
0.00061618
-0.000235554
-0.000379705
-0.00024721
9.21798e-05
0.000157112
0.000339315
-0.00010457
-0.000224936
-7.75278e-05
-0.000167231
-4.84699e-05
0.000282525
-0.000233882
-0.000410383
-4.37473e-05
0.000456936
-0.00029624
-0.000169044
-0.000336581
-5.54994e-05
-8.70063e-05
-0.000399967
-1.81789e-06
2.66464e-06
-5.95844e-07
-7.99655e-06
0.00037754
-0.00036849
0.00016652
-5.26424e-05
0.000368053
-0.000365478
0.000182319
0.000433362
-0.000457691
0.000232982
0.000225078
4.38327e-06
0.00010725
-0.000107569
5.404e-06
2.77244e-06
6.37838e-06
-5.74436e-06
2.60443e-06
-6.38406e-05
0.000372083
-0.00030778
3.95535e-05
-0.000405071
0.000189225
-0.000233033
4.38259e-05
0.000461295
-0.000108573
-0.000351835
-0.000420153
8.91974e-05
-6.28433e-05
0.000423097
-7.12098e-05
0.000446155
-0.00037338
-0.00059248
0.000301016
-0.000257729
-0.000323209
-9.70258e-05
0.000239483
-0.000486655
-0.000450299
0.000221534
0.000229139
0.000325188
-0.000386193
-0.00018344
0.000161682
2.17742e-05
0.000394019
-0.000129188
-2.61983e-05
0.000402617
-0.000162118
-0.000519192
0.00047729
4.51052e-05
9.25305e-05
0.000256348
0.000495169
-0.000241601
0.000496947
-0.00032765
-0.000162967
-0.000356923
0.000161708
0.000195337
0.000123786
-0.000319889
0.000196275
-0.000299267
-3.42415e-05
0.000341071
0.000307931
-0.000154301
-0.000336985
-0.000145137
0.000483184
-0.000134975
-4.7402e-06
0.000162962
0.000255722
0.000287954
1.02574e-05
-0.000284039
0.000274344
-8.28303e-05
-0.000357972
0.000442279
0.000307695
-0.00036629
6.7391e-05
-0.000186922
-0.000287275
-0.000237823
0.00036181
-0.000101962
7.23717e-05
4.86226e-05
7.32734e-05
0.000125913
-0.000199176
6.36617e-06
-2.32895e-06
-3.98987e-06
0.000329497
-0.000392826
-7.05225e-06
1.05577e-05
-3.52214e-06
-0.000309281
-6.00916e-06
-0.000237187
-0.000353916
0.000284144
-8.83799e-05
-0.000193024
8.2271e-05
0.00034111
-0.000421576
0.000106348
-1.84202e-05
-8.56506e-05
5.05705e-05
4.32402e-05
2.71456e-05
-0.000138228
-3.32583e-06
2.30145e-05
-1.71899e-07
0.000314146
-3.4422e-05
-4.08145e-05
-0.000506546
0.000110863
0.00039708
0.000142084
0.000359681
9.00069e-05
-8.24085e-05
8.69857e-05
0.000354982
-0.000439991
-0.000548875
0.00014009
0.000410289
-0.000216589
0.00031086
-9.31708e-05
-8.83574e-05
0.000161639
-0.000160524
0.000392042
-0.00023138
-0.000298704
-0.00014634
0.000445189
0.000332694
-0.000321775
4.29839e-06
3.60884e-06
-4.99835e-06
-0.000176636
-0.000180152
9.04172e-06
8.23008e-06
-1.09687e-05
0.000224589
-0.000521516
1.56663e-06
1.74252e-06
-2.11055e-06
-3.96993e-05
-3.75546e-05
-3.01842e-06
1.2404e-05
-3.26707e-06
1.52645e-08
3.30316e-06
-0.000514036
0.000266547
0.000248877
-0.000136283
-0.000247634
0.000384772
1.00027e-05
1.00936e-05
-1.28594e-05
-0.000293286
7.78097e-05
0.000443774
3.59976e-05
-0.000476917
-6.67795e-05
0.00033429
-0.000257278
0.000289895
-0.000239661
-4.86356e-05
-0.000482684
0.000401221
-2.51227e-06
-2.17374e-05
3.33595e-05
-0.00010131
0.000401584
-0.000299771
0.000384952
-7.71217e-05
-0.000290134
0.000386196
-3.32962e-05
1.63117e-05
-0.000199734
-0.000269272
0.00022096
0.000239448
-0.000191513
-4.128e-05
-8.11988e-05
-1.2524e-05
9.61974e-05
0.000144575
-0.000172569
5.70469e-05
0.000156802
-0.000241952
8.51733e-05
1.6936e-05
1.02608e-05
0.000239789
-0.000396726
0.000157046
-1.62705e-05
0.000206738
0.000589625
-0.000415068
-5.64808e-05
-0.000421568
7.69624e-05
0.000455485
-0.000530107
0.00059727
-0.000385969
-1.87166e-05
-1.75035e-06
2.81546e-05
-0.00039512
0.00023475
0.000166332
-0.000544934
0.000382696
0.000130774
-0.000429331
0.000221111
-0.000278619
0.000146896
-0.000176342
3.27364e-05
0.000292728
-8.00305e-05
-0.000209689
0.000434521
-0.000456315
2.57893e-05
-0.000447583
0.000535047
-8.64774e-05
-0.000309941
8.67637e-05
0.000225768
-0.000106819
-0.000200562
4.45062e-06
2.0417e-06
-0.000331592
0.000556247
0.000275955
-0.000411346
0.00028624
-0.000333194
4.75878e-05
-0.000589727
0.000168095
0.000425615
-0.000434239
0.000136588
0.000306688
-0.00018505
-0.000272148
6.72134e-05
1.39246e-05
-7.89338e-05
0.000269196
0.000104908
-0.00037364
-2.61776e-05
0.000185902
-0.000158099
-0.000568855
0.000475252
9.49717e-05
9.20493e-05
-0.000354771
0.000265416
1.44103e-05
7.43373e-05
-8.64099e-05
0.000125328
-0.000461583
-0.00021751
0.000443632
-0.000225943
-5.00642e-05
0.000421257
-0.000370438
0.000292472
-0.000342643
5.3864e-05
0.000325509
-2.94803e-05
-0.000145562
0.000175972
8.38537e-05
-0.000342183
0.00043078
-0.00046637
-9.99832e-05
0.000518154
-0.000112174
-0.000403757
0.000177588
-6.27569e-05
0.000299968
-0.000236573
-0.000296981
0.000192488
0.000273457
-8.91263e-05
-0.000177798
-0.000268682
-0.000244223
-9.04374e-05
-0.000203804
0.000396476
-3.13211e-05
-0.000364458
-0.000418965
0.000504413
-0.000144487
-0.000347978
-4.00786e-05
0.00033198
-0.000282126
-0.00053575
8.90878e-05
-0.000361196
0.000525467
-0.000163134
-0.000482466
0.000420985
6.69711e-05
8.17357e-05
0.000162331
0.000174912
-0.000135029
0.000235682
-0.000100609
0.000169265
-0.00019376
-2.56705e-06
-5.23771e-07
-7.72152e-06
0.000180367
-0.000170981
0.000247324
-0.000309458
0.000117772
-0.000105236
1.38212e-05
-0.000283751
0.000378752
9.23356e-05
0.000203984
-0.000287423
-8.06377e-06
1.02208e-06
-0.000381294
8.42106e-05
0.00029878
0.000414534
-0.000225863
-0.000188493
-0.000376937
0.000257065
0.00012018
0.000406185
0.000192153
0.000108106
0.000416068
-0.000521638
-7.60809e-05
0.00044018
-0.000361887
-0.00010219
-0.000200294
0.000302643
-0.000189479
0.000290531
0.000350945
3.60867e-05
0.000362706
-0.000395043
-9.81677e-05
-1.47366e-05
0.000116502
-0.00043624
0.000515444
0.000331212
-4.43225e-05
2.2168e-05
0.000269943
-0.00027747
-3.19172e-06
-0.000410943
0.000417849
0.000699017
-0.000277687
-0.000420009
5.27557e-05
-0.000344267
-0.000376951
0.000201973
0.000175175
-0.00059294
0.000111103
0.000692578
-0.000283596
-0.000407236
-3.26893e-05
0.000470189
0.000531027
-0.000151573
-0.000378476
-0.000109619
1.49747e-05
-0.000402653
0.000280614
0.000122416
0.000425987
6.80491e-05
-0.000489663
-0.00058273
0.000315538
0.000267985
0.000108131
-4.10842e-05
-0.000305791
-7.79918e-06
-1.24364e-06
1.61555e-05
-0.000150727
5.22846e-05
-0.000262081
0.000209971
-0.0003904
0.000421806
-2.97592e-05
-0.000379556
0.000117677
0.000264495
0.000391016
-0.00046509
-2.20357e-05
-3.8934e-05
1.56321e-05
-9.44321e-05
-0.000167988
-0.000208747
0.000446718
-0.000445905
0.000358807
0.000169605
-0.000387318
0.000218197
-0.000514424
-3.86955e-05
0.000338576
-0.000299508
0.000145425
1.54771e-05
0.000489043
-0.000501938
0.00027888
0.000421436
0.000386327
-0.000450806
7.07989e-05
0.000348801
3.60853e-05
-0.000384606
-0.00018117
-0.00019539
0.000247621
-0.000195168
3.35516e-05
0.000143485
-0.000176138
-7.80354e-05
-0.000137069
0.00021513
-0.000536541
0.000299558
0.000243759
-0.000425621
-9.67198e-05
0.000523788
0.000210148
-0.000367249
0.000157239
0.000254848
0.000277014
-0.000204447
-0.000324482
0.000374672
-0.000321961
4.31528e-05
0.000283512
-0.00031516
-0.000198597
-9.47205e-05
0.000293458
-0.000212805
0.000134796
0.000130912
0.000132248
-0.000263133
-0.000134214
0.000168648
0.000416088
-6.61574e-05
-0.000252017
0.000318709
1.14471e-05
0.000370711
-0.000380389
8.95783e-06
-7.17426e-06
-1.45889e-06
-0.000459091
-8.05416e-05
-0.000349626
-0.000467051
1.68322e-05
0.000457111
0.000347121
-2.32576e-07
8.27736e-07
-0.000341449
-7.0122e-05
0.000412514
3.18487e-06
-0.00014237
0.00014341
0.000558516
-0.000231868
-0.000161164
0.000164114
2.1683e-05
-8.28013e-05
-0.00045579
-5.02923e-05
-0.000456659
0.000509147
0.000247196
-0.000106551
-0.000140605
-0.000228589
-0.000170005
0.00039871
-0.000361517
0.000330836
3.40573e-05
-0.000167346
0.00052493
-0.000423295
-9.92095e-05
0.00038018
-2.30237e-05
-2.72545e-05
-0.000432829
-0.000476354
0.000430796
4.80934e-05
2.41191e-05
0.000278181
4.32663e-05
0.000342925
-0.000377786
7.32591e-05
-8.6338e-05
3.48037e-05
-9.3724e-06
2.54879e-06
6.88175e-06
9.80702e-05
0.000380587
-0.000476706
-4.10032e-05
-0.000334197
0.000383202
-0.000133801
0.000239465
-0.000105629
-0.000452796
-2.12398e-05
-3.28151e-05
0.000312788
-0.00027026
-0.000423485
6.02211e-05
0.000368121
-4.25566e-05
0.000358742
0.0001072
-3.67924e-05
-4.47214e-05
0.000322175
-0.000364064
-7.18405e-05
-1.41603e-05
8.77469e-05
-1.97592e-05
0.000109294
-0.000466714
5.90566e-05
-7.84865e-05
-0.000113271
-2.35235e-05
0.000180579
-0.000156021
1.36635e-05
-8.37585e-05
0.000322643
2.57868e-05
-0.000338448
-0.000544424
0.000444879
0.000101843
-0.000217574
0.000270263
-1.31358e-05
1.74691e-05
6.88571e-07
-6.32758e-05
0.000399545
-0.000334777
0.00015521
-0.000177761
0.000688536
-0.000408283
0.000434817
-0.0004376
9.84661e-06
0.000210607
0.000309408
0.000226535
-0.000138895
0.000327743
-0.000103591
-0.000221398
-0.000182656
0.000176597
0.000368842
-1.97785e-05
-0.000134868
0.000165716
-2.72454e-05
-0.000532262
-1.00517e-05
-0.000274546
0.000465476
-0.000188796
0.000425438
5.26333e-05
-0.000475694
1.50677e-05
-9.11068e-05
9.48943e-05
0.000409965
-0.000540585
4.74337e-05
-5.2732e-05
1.91042e-05
-0.000436042
-4.13879e-05
0.000480403
-2.76158e-05
0.000194835
0.000399437
-0.000413247
1.43513e-05
0.000196254
0.00057828
-0.000206918
-0.000370279
-7.95486e-06
-1.05476e-05
0.000259637
-0.000525387
9.12252e-05
-4.35731e-05
-0.000355606
0.000403504
-4.55034e-06
-0.00020059
0.000205247
-0.000148504
-6.19977e-05
0.000210514
2.96478e-05
0.000151736
6.02303e-05
0.000317622
-0.000374581
-0.000254911
0.000119934
-0.000148251
0.00051047
-0.000359451
-1.06531e-05
-0.000129664
-1.72844e-07
1.72844e-07
0.000396405
-0.000213037
-0.000183122
0.000129427
0.000271343
0.000317152
0.000372603
-0.000275217
-0.000159135
-0.000559927
0.000155982
0.000405101
-0.000297895
0.000310771
-0.000545652
0.000518395
2.79773e-05
0.0001673
-0.000395764
0.000116596
0.00021155
-0.000327967
-1.90836e-06
2.24907e-07
0.00011531
0.000154906
-0.000270196
-0.000478104
0.000437346
-0.00023046
0.000265863
0.000431378
-0.000231989
0.000178716
8.58346e-06
-0.000335038
-0.00019431
-7.86628e-06
3.41375e-06
4.45413e-06
3.81005e-05
0.000330373
0.000219858
-2.31092e-05
-0.000332614
0.000156096
0.000369214
-0.000250373
-0.000118021
0.000410556
-0.000182289
-0.000228079
0.000525425
-0.000391484
-0.000129101
-0.000261599
0.00015009
0.000116714
0.000184856
0.000348032
-0.000417776
0.000280077
7.15658e-05
-0.000348135
-0.000113409
-0.000239376
-0.000288845
-9.07233e-05
3.19722e-05
-0.000248757
0.000134514
0.00021216
-0.000216598
-9.54622e-05
-0.000160445
-0.000588211
0.000102837
0.000487533
9.72998e-06
-0.000370646
-0.000365792
-0.000117289
0.000483182
-0.000352082
0.000187559
0.000164792
-0.00037253
0.000472443
0.000520408
-0.000129075
0.000208245
-0.000323542
0.000115541
1.0887e-05
-5.49066e-05
5.54393e-05
0.000116165
2.04239e-05
-0.000133594
-0.000325167
-9.34288e-05
-6.81002e-05
-0.000203045
5.4552e-05
2.3067e-05
-0.000154392
1.37972e-05
-3.19398e-06
-3.7041e-06
-0.000104332
-2.35609e-05
0.000151686
0.000173858
7.33731e-05
0.000172725
-0.000444803
-1.65459e-05
-7.69427e-05
9.57361e-05
-0.000519972
0.000187821
-0.000133106
-0.000400227
0.000515935
-0.000110922
-1.74915e-05
0.00017431
-0.00015771
0.00026774
0.000522426
-7.57055e-05
-1.61308e-05
7.49729e-05
-0.00016294
-0.00018885
-0.000173578
-5.41615e-06
0.000179024
0.000300497
0.000163327
-0.000463787
0.000133405
9.84193e-06
-0.000139718
-0.000199836
-0.000206968
0.000406831
-0.000142986
3.06015e-05
0.000160126
-0.000120092
-0.000239237
0.00035971
-0.000458593
8.92593e-05
0.000370748
-8.24774e-06
0.000408192
0.00035438
-0.000438574
0.000342315
0.000430075
0.000139827
-0.000284982
0.000398204
-0.00024893
0.000115167
7.59264e-05
0.000371971
0.000350305
-0.000157601
-0.000192342
8.91255e-05
-0.000475866
0.000388662
0.000117926
1.76805e-05
-0.000132361
-0.00054567
0.00028022
0.000267647
0.000131032
-9.84693e-05
0.000258049
-0.000159504
0.00017594
-0.000237923
0.000367514
-0.000328995
0.000421226
0.000126558
-0.000569949
0.000129642
0.000442266
0.000471592
9.79373e-05
0.000197418
0.000379116
-0.000361705
7.77241e-05
0.000174437
-0.000249788
1.45653e-05
6.20068e-05
-7.52123e-05
0.000118224
0.00032348
-0.000429818
0.000378515
-9.74866e-05
0.00018403
-0.000163345
0.000243389
-0.000370412
0.000241785
0.000128664
0.000363077
-0.00012318
-0.000153142
-0.000431869
-8.42608e-05
1.02814e-05
9.1132e-06
0.000332446
3.45809e-08
-6.69713e-06
-1.17855e-06
-0.000163734
-8.81502e-05
0.000251925
9.09778e-05
-0.000513839
-4.8062e-05
0.00042299
-0.000373753
0.000437271
7.06922e-05
-0.000506378
-0.000464159
4.20316e-05
0.000423864
0.000438815
-9.17051e-05
-0.000346311
0.000111537
-0.000145087
3.35547e-05
-0.000134618
-0.00021757
0.000352719
0.000398527
-0.000548642
0.000154697
0.000159165
2.99642e-05
-0.000188847
6.02508e-05
4.12982e-05
0.000222147
-0.000171464
0.000286795
0.000359189
-0.000325307
-3.33996e-05
-0.000442813
-0.000142784
0.000138334
-2.67933e-05
0.00028482
-9.45957e-07
-0.000153932
-0.000178552
-0.000184622
0.000360934
-0.000118664
-2.97987e-05
0.000149093
0.000450824
-0.000373147
-0.000148179
-0.000394483
-0.000460902
-5.05262e-05
0.000517517
-0.000286399
0.00037119
-8.37376e-05
-0.000319835
3.22047e-05
-0.000150234
0.000346612
-0.000238963
-0.000106797
0.000515156
-5.73424e-05
1.57575e-05
-0.000470883
0.000359144
-0.000390634
-0.000464454
0.000331075
0.000417926
0.000100301
-0.000516622
-0.000191323
0.00022453
-0.00055597
9.1227e-06
0.000166829
0.000424905
3.54242e-05
-0.000459949
0.000589914
-0.000109535
-0.000478108
-0.000388808
-0.000105501
-5.19789e-05
0.000382161
0.000325562
-0.000363867
-8.77196e-06
0.0003654
-0.00034801
0.000172124
0.000419019
0.000435367
-0.000545421
0.000111915
0.000490488
-6.03135e-05
-0.000118455
-0.000334024
0.000302977
0.000256125
9.38951e-05
0.000240336
-0.00032474
0.000450679
-2.53845e-05
0.000417706
0.000125385
-0.000540322
7.70365e-05
-0.000245061
0.000168105
0.000119661
0.000106905
-0.000302478
0.000300937
0.000417928
-0.000377228
0.000161827
0.000240955
-0.000267706
0.000396563
-7.99354e-05
-0.000134872
0.000214819
0.000120667
-8.43395e-05
0.000460618
-0.000117746
-0.000342562
0.000234118
-0.000368127
-4.56018e-05
0.000120434
0.000344799
-0.00039603
0.000180478
-0.000210346
0.000327112
-1.65754e-05
5.35518e-06
-1.6498e-05
8.5351e-05
-6.61166e-05
0.000211033
0.000112663
-0.000323421
0.000153656
0.000206002
-0.000170803
0.000247924
0.000340949
-0.000264005
-6.07715e-05
-9.41944e-05
0.000235607
-0.000215533
0.000318441
9.71735e-05
-0.000260864
-4.22317e-08
-4.8711e-08
-0.000476664
0.000148243
0.000333714
-8.36971e-05
0.000232178
-0.000148448
-0.000103914
-0.000303041
0.000409793
-0.000531756
6.85162e-05
4.21926e-06
-1.61642e-06
0.00042607
-6.0706e-05
-0.000364336
0.000370189
-0.000115134
-0.000252365
7.44533e-05
-0.000414879
0.0002432
-0.000112269
-0.000470626
0.000195901
0.000275507
2.88941e-05
0.000158526
-5.56179e-06
7.7043e-06
1.0537e-07
0.000310513
-5.7313e-05
0.000471187
-0.000411604
-0.000119508
-0.000350397
-7.28989e-05
-0.000104186
0.000177091
0.000178582
-5.37161e-05
-0.000118501
0.000176177
-0.00014572
0.000415079
-0.000487403
7.61463e-05
1.07992e-05
-3.71801e-06
0.000118449
-0.000427175
0.000309656
5.65058e-07
-7.23572e-06
8.36086e-05
0.000246882
-0.000449848
0.000295561
0.000154529
6.75339e-05
0.000286379
-0.000350873
-0.000139711
0.000258896
-0.000118995
0.000366393
-0.00013662
-0.000229225
6.71631e-06
0.000282045
0.0004072
-0.000267658
-0.000139448
-0.000385125
-4.69189e-05
-0.000323457
-0.000431387
9.40065e-05
0.000337919
-0.00049903
-1.82208e-05
0.000520445
0.00041982
-7.61222e-05
-0.000331703
0.000156424
0.000274119
0.000389068
-0.000528818
0.000272481
-0.000461001
0.000190495
-5.73546e-06
-1.97984e-06
-0.000120582
0.000369564
-0.000248742
-0.000446043
0.000254436
0.00019164
-0.000364906
-0.000106644
-0.00011925
-0.000381141
0.000500555
-0.000484884
0.000369663
0.00012516
-0.000493451
-9.64073e-05
0.000240854
-0.000144413
-8.91823e-06
0.000128106
-0.000288827
-0.000108957
-3.60167e-05
0.00014951
-0.000112974
-3.7108e-06
-1.6465e-06
5.49707e-06
0.000248205
0.000118792
0.000372198
-0.000235333
-0.000136635
-3.25022e-05
-0.000136223
0.000168739
-0.000336489
0.000411991
-0.000292571
-5.26201e-05
0.00035008
-0.000318584
2.33842e-05
-8.36627e-06
5.37626e-05
0.000237565
8.94208e-05
-0.000287876
-0.000550178
0.000374276
0.000179678
0.000458887
-0.000382879
-7.40281e-05
0.000242764
-0.000363118
-0.000439228
0.000159359
-4.52769e-05
-0.000327383
0.000377285
-0.000119599
0.000328092
-3.61565e-05
-0.000156839
0.000193012
-0.000383487
9.80973e-05
0.000311095
4.46415e-05
-0.000353667
-0.000329771
-5.22177e-05
0.000326236
7.58789e-05
-0.000456891
4.42933e-05
0.00037102
0.000275246
7.37433e-05
-0.000340086
0.000422528
-0.000466657
4.5375e-05
7.60723e-05
-0.000411456
0.000393036
-0.00030891
0.000136597
0.000148097
-0.000284544
0.000174506
0.000354393
-0.000370669
0.000153315
1.47472e-05
-9.52234e-05
0.000567263
-0.000485441
-7.87327e-05
-6.63456e-05
-0.000223909
0.000290301
-9.86842e-06
1.42345e-06
0.000520577
-9.69663e-05
-8.46673e-05
-0.000276839
-0.000172624
0.000431633
2.47225e-06
-0.000426859
-9.7159e-05
-0.000123355
0.000231821
0.000254555
0.000196193
-0.000449858
6.8007e-05
0.000359102
-1.65169e-05
8.01107e-05
-6.1592e-05
2.53394e-05
0.000167939
-0.000191237
3.76556e-05
0.000381483
-0.000418178
2.49129e-05
0.000308234
-0.00054359
0.000337751
6.25472e-05
-2.04596e-05
-3.20998e-05
-0.00030576
-0.000144072
0.000233077
-0.000437968
0.000529019
-8.4073e-05
3.57711e-05
-0.000363929
0.00017175
-0.000445387
0.000420705
-0.000273208
-0.000147442
-1.54787e-05
8.31239e-05
-6.58279e-05
0.00027977
-0.00016016
-0.000244251
0.000431446
-0.000178832
4.66775e-06
-1.20239e-06
0.000136342
-0.000220008
-8.30421e-05
0.000464201
-0.000379555
-0.000450258
0.000333045
-0.000124419
-0.00041786
-0.000264118
0.000181256
0.000285629
0.000135126
0.000205014
-0.000440653
-9.64298e-05
-9.2203e-06
5.59455e-05
7.42054e-05
-7.26104e-05
0.000356874
0.00013963
0.00038178
-0.000266955
0.000399347
-0.000231925
1.56059e-05
-1.84757e-05
1.21769e-05
-0.000177227
9.73016e-05
0.000437611
6.64248e-05
-0.000501099
-0.000335936
0.000373403
-0.00039853
-0.000194253
-0.000412896
0.000517742
0.000414147
0.000363303
-6.81453e-05
-1.13069e-05
8.0911e-05
-0.000167957
-7.51669e-05
0.00024318
-0.000387024
0.000472648
-7.65487e-05
-9.6757e-05
0.000116904
-1.63339e-05
9.74851e-05
1.71116e-05
-0.000112134
-0.000371878
0.000137385
-0.000394171
0.000231989
-0.000101663
-0.000130297
-0.000125862
2.89332e-05
0.000218859
-0.00026044
0.000407385
-0.000533125
0.000437771
-0.000459207
-4.60835e-05
-9.91868e-05
-0.000293769
0.00039572
0.000390111
-0.000304099
0.000155904
-0.000256103
0.000370717
-0.000148862
9.14661e-05
-1.47441e-05
0.000457623
-0.000232907
0.000176498
-0.000212636
-9.89931e-06
1.33851e-05
-1.49053e-06
0.000280842
-0.000353595
7.412e-05
1.39616e-06
-5.11417e-06
5.81779e-06
-0.000172317
0.000143705
-0.000281365
0.000141844
-4.12039e-06
4.96023e-07
-0.00011224
-0.000415069
-5.03917e-05
5.84899e-05
-0.000392767
1.3255e-06
-8.87323e-06
-0.000289638
0.000395235
-0.000104904
0.000376303
-0.000261295
-0.000114111
-0.000473148
0.000300445
0.000172977
-0.000423082
-0.000111519
-0.000187658
0.000333876
3.06376e-05
-0.000155849
0.000125895
-0.000220931
0.000236015
-1.5007e-05
0.000154981
0.0002971
5.93839e-05
-0.000508828
0.000268672
0.000241288
-0.000334534
4.64703e-05
-0.000438961
0.000515465
-7.20316e-05
-0.000199337
0.000550174
-0.000342563
9.46584e-07
-3.97592e-07
-5.58233e-05
-0.000136451
0.000340742
-0.000501697
-1.58379e-05
4.48636e-05
-5.84164e-05
2.40968e-05
7.68931e-05
-6.645e-05
-5.18769e-06
5.88696e-06
5.22499e-07
0.000531205
-0.000113659
-0.000414999
-0.000221523
-0.000251408
4.45497e-05
-0.000265394
0.000166308
-0.000364316
0.000433374
0.000570399
-0.000149995
-0.000417603
-0.000126369
-0.000440778
0.000354118
-5.82221e-05
-3.42257e-05
-0.00040021
0.000510839
-3.59795e-06
7.9662e-05
-7.28066e-05
7.75064e-05
0.000254565
-0.000322514
-2.03026e-05
2.53502e-05
-0.000566865
0.000138472
0.000423051
9.58415e-05
-0.000516833
3.11141e-05
0.000145602
-0.000174868
-0.000104158
-0.000128854
9.54629e-05
0.000481635
-0.000284754
0.000239302
-0.000333872
-0.000230588
5.70406e-05
1.32866e-05
7.65114e-05
-0.000141765
0.000174751
-0.000528155
0.000107115
0.000522193
2.70072e-05
-0.000166889
1.98425e-05
0.000105128
-0.000122427
-0.000201314
0.000530692
7.5652e-05
-6.231e-05
0.00032716
0.000237962
-0.000564042
-0.000423405
4.74e-05
-3.85585e-05
0.000530628
-0.000174586
-0.000347475
-0.000240891
-0.000266564
-9.91842e-05
-0.00042366
0.00052339
-0.000268273
0.000350964
0.000589948
-0.000390198
-0.000197309
7.80131e-05
-5.33202e-05
7.50577e-05
0.00023293
-0.000153188
0.000124014
0.00039247
-0.00024116
-0.000150933
-0.000199441
0.00047373
-0.000435301
0.000289008
0.000531074
-0.000111094
-0.000105615
-0.000393528
0.000502054
-0.000104782
-4.03006e-05
2.27749e-05
-7.28779e-06
0.000146634
-0.000113787
0.000307213
0.000176386
-0.000463003
0.000287062
-0.000413583
-0.000130421
0.000546741
-4.39841e-05
-0.000129053
-1.3886e-05
-5.7222e-05
7.23996e-05
0.000302574
-0.000537233
7.49197e-05
-5.89805e-05
0.000258868
0.000133964
-0.000152243
0.000135049
0.000104449
6.97446e-05
5.82185e-05
-2.14895e-05
-2.26551e-05
3.83099e-05
3.27336e-05
-1.08512e-06
-2.13549e-07
1.81674e-06
5.4734e-05
-0.000485147
0.000169446
-0.000283201
0.000120963
0.00016231
-0.000410134
0.000340926
0.00018677
-0.000356733
0.00017023
-0.000591334
0.000354921
0.000240981
-8.2725e-06
7.83735e-05
-6.71961e-05
-3.40335e-05
1.50492e-05
0.000520027
-0.000151643
-0.000359258
0.000387413
-0.000102075
-0.000279964
0.000352578
-0.000480736
0.000130456
0.000231508
-0.000202418
-6.71192e-05
0.000308772
-0.000202776
-0.000384052
0.000430509
-0.000485596
6.3207e-05
0.000383324
0.000312414
0.000168471
0.00035378
-0.00016678
0.000413693
-8.69966e-05
0.00016166
9.45054e-05
-0.000256109
-5.02091e-05
0.000117527
9.46667e-06
-0.000378952
0.000370195
-0.000368464
-5.5091e-05
7.02348e-05
0.000489278
-0.000121449
-0.000364984
0.00018675
-4.6737e-05
-0.000121657
0.000549002
-0.000157137
0.000193096
-0.000294945
0.000101998
8.78242e-05
-0.00025572
-2.19817e-05
0.000151778
-0.000126477
-0.000395082
4.45384e-05
-0.000477613
0.000126074
0.000266913
3.59088e-05
-0.000140687
-8.0192e-06
0.000321271
7.55252e-05
8.04685e-05
-1.70496e-05
2.71313e-05
-8.77723e-06
-1.39228e-05
0.000339209
-0.000257356
0.000307289
-0.000278445
0.000121835
8.67535e-05
-0.000208567
5.59107e-05
1.09479e-05
-6.55522e-05
-5.94237e-05
0.000131523
-0.000150208
-9.87676e-05
-8.40358e-05
0.000190342
0.000353541
-0.000502638
6.79755e-05
2.83198e-06
0.000435819
-0.000179208
8.77813e-05
-0.000414845
0.000313844
0.000119797
-2.24749e-06
-7.06814e-06
0.000135802
0.000440807
-0.000276865
0.000519986
-0.000241903
-9.03829e-05
-0.000286154
-0.000470484
0.000401605
7.10437e-05
0.000327116
-0.000114838
-0.000215679
-3.78367e-05
0.00025466
0.000114698
4.89289e-05
6.36828e-06
-4.76818e-05
-8.3964e-05
0.000144931
8.62586e-05
-0.00036509
0.000281175
-1.91617e-05
6.54389e-06
-0.000413842
0.000424114
-0.000286016
4.79035e-05
0.000528255
-8.36426e-05
-0.000439334
0.000539777
-0.000121097
-0.000415235
0.000435886
-0.000454586
-0.000345102
0.000521967
0.000163672
-0.00012868
1.49088e-05
1.03594e-05
-1.7058e-05
1.87337e-05
-2.48609e-05
1.07434e-05
0.000550516
-0.000113036
-0.000267973
0.000229559
-4.06925e-05
-0.000362025
0.000411137
0.000315865
-0.000104135
1.29126e-05
6.97324e-05
7.82011e-05
-6.21293e-05
0.000230341
0.000618405
-0.000405112
-0.000212503
0.000102692
0.000244697
-0.000180098
3.5373e-05
0.000209074
-8.72198e-05
-9.46016e-06
9.06008e-05
-7.86772e-05
0.000171426
1.72989e-05
-0.000187173
-2.31135e-05
0.000381458
-0.000357938
0.000593568
-0.000100699
-0.000490561
-0.000411831
0.000473745
0.000344786
0.000516602
-0.000422874
-0.000118471
0.000309493
-0.000190943
0.000245295
0.000373581
4.22482e-08
-4.21776e-06
8.2036e-05
-8.90673e-05
-7.15251e-06
0.000445897
0.000401895
-0.000543878
0.000144559
8.0391e-05
0.000243072
0.000198419
1.82542e-05
8.31173e-05
-9.76128e-05
7.90397e-05
0.000454224
8.61966e-05
0.000440044
0.000323165
-0.000205797
-0.000117137
-0.000145729
0.000393497
-0.000243174
0.000277859
4.38854e-05
-0.000317308
0.000331262
-0.000406718
7.73663e-05
-0.000270146
0.000309172
-0.000209177
0.000186731
2.47207e-05
-3.5807e-05
0.000196913
-0.000260568
6.37455e-05
0.000166741
-0.000249035
8.23756e-05
6.66553e-05
0.000139381
-9.83948e-05
0.000104539
-0.000107691
1.51557e-05
2.67293e-05
0.000115069
-0.000140262
0.000289804
-0.00038642
0.000429997
-8.67711e-05
-0.000334117
0.000307324
4.8992e-05
6.52595e-06
-4.86362e-05
-0.00029147
0.000157676
-0.000126311
0.000188536
-0.000125109
-5.6767e-05
0.000436316
-7.57814e-05
-0.000349039
-0.000337906
0.00012773
0.000309072
8.90644e-05
-0.000233751
0.000153312
-0.000308216
-9.59419e-05
0.000412669
-0.000484467
0.000235538
0.00024895
2.86457e-05
-3.69237e-05
0.000475002
0.000136113
5.89707e-05
-3.07913e-05
-0.000150491
0.000183097
0.000165704
-0.000112432
-4.90505e-05
-4.60804e-05
0.000354076
-0.000307411
-9.29926e-05
-0.000155894
7.72703e-05
0.000370015
0.000341413
-0.000181636
-0.000244035
-0.000116427
0.000360918
-0.000223268
4.74204e-05
0.000175873
0.000362322
-0.000170566
-0.000191588
-2.1973e-05
-0.000271341
0.000306262
0.000170296
0.000425186
-5.65846e-05
-0.000288849
0.000352738
0.000111097
0.000152438
-0.00025477
0.000245574
3.03606e-05
-0.00026185
-0.000321166
-7.70449e-05
0.000399204
-3.80407e-05
0.00044171
-8.49976e-05
0.000337308
0.000142789
0.000238319
-0.000380584
0.000217752
0.000109474
0.000323063
-8.62172e-05
-0.000578605
0.000174283
0.000405632
-0.000446288
-8.80536e-05
0.000536397
7.53381e-05
-8.77664e-05
0.000114922
-0.000495872
0.000405492
-0.000460751
5.68579e-05
2.18167e-05
-3.17924e-05
1.5886e-05
2.30002e-05
1.1872e-06
0.000103384
0.000128631
-0.000186808
-0.000259162
0.000167378
0.000232072
0.000193446
-0.00024803
6.28596e-05
-0.000163702
0.000258732
-9.49604e-05
0.00011109
0.000104117
-0.000404368
0.000404091
3.82934e-05
-0.000441375
-0.000181199
-0.000212423
0.000394627
0.0004852
-0.000322727
4.15865e-05
-3.30394e-05
-0.00013853
0.000220676
0.000257951
-0.000476523
0.000405716
0.00048702
-0.000116164
-0.00023266
0.000139222