/*--------------------------------*- C++ -*----------------------------------*\
| =========                 |                                                 |
| \\      /  F ield         | OpenFOAM: The Open Source CFD Toolbox           |
|  \\    /   O peration     | Version:  v2012                                 |
|   \\  /    A nd           | Website:  www.openfoam.com                      |
|    \\/     M anipulation  |                                                 |
\*---------------------------------------------------------------------------*/
FoamFile
{
    version     2.0;
    format      ascii;
    class       volVectorField;
    location    "50";
    object      U_0;
}
// * * * * * * * * * * * * * * * * * * * * * * * * * * * * * * * * * * * * * //

dimensions      [0 1 -1 0 0 0 0];


internalField   nonuniform List<vector> 
18355
(
(0.841643 -0.08955 -1.67503e-20)
(1.01082 -0.00216377 1.03412e-22)
(0.974459 0.200551 0)
(1.0104 0.0010525 -1.39509e-22)
(1.03261 -0.0260032 -7.31446e-23)
(1.06554 0.10194 0)
(1.01056 0.00547485 0)
(1.02792 -0.0283722 8.15509e-22)
(1.00588 2.43276e-05 0)
(1.04577 0.0338914 -9.18796e-22)
(1.01822 0.0218054 0)
(1.09401 0.141671 -2.16478e-20)
(1.09547 0.146084 1.14531e-20)
(0.908697 -0.144349 -2.2829e-22)
(1.00784 2.66553e-05 -3.11881e-24)
(1.01112 0.00222125 3.0536e-22)
(1.01031 0.000981483 -2.43952e-22)
(1.00972 0.0177583 7.46971e-22)
(0.91457 0.111441 3.14415e-23)
(1.01504 -0.00388563 0)
(1.02601 -0.124039 -2.49144e-21)
(1.02249 0.0123602 0)
(1.00902 -0.000649405 -8.08457e-24)
(1.05128 0.0958296 0)
(1.00899 -0.000585291 8.44138e-25)
(1.01257 0.00265368 0)
(1.01216 0.00548305 0)
(1.01066 0.00194027 -1.21119e-23)
(1.00467 -5.01467e-05 -1.94855e-26)
(1.01747 0.0233335 4.18593e-22)
(0.949166 0.268261 -5.87116e-21)
(1.04274 0.0129769 0)
(1.01259 0.00402747 -2.69027e-22)
(1.00882 0.0026714 1.00951e-22)
(1.00043 3.22387e-05 -4.30831e-24)
(1.01197 0.00158308 0)
(1.03348 0.0328102 -6.72641e-21)
(1.01222 0.00139057 4.27471e-22)
(1.01767 0.0243054 0)
(1.01492 0.0112796 4.84152e-22)
(1.01343 0.000222452 -1.36244e-21)
(1.01857 0.0226801 -3.88876e-22)
(1.00912 0.00262976 -3.56319e-22)
(1.01067 -0.00198157 3.99563e-23)
(1.01068 -0.00206556 -2.49031e-24)
(1.13743 0.190768 -5.11759e-21)
(1.01034 0.00198644 -1.18788e-22)
(1.01026 0.00188437 -1.85006e-23)
(0.933967 0.265014 4.90416e-21)
(1.0135 0.000282987 8.12384e-22)
(1.0065 0.000286104 -1.14732e-22)
(0.736519 -0.317719 7.84097e-22)
(1.01374 0.00013383 -6.17271e-22)
(0.91425 0.0247896 -6.52355e-21)
(1.01576 0.00347698 -1.27158e-23)
(1.01588 -0.0043558 -1.32574e-23)
(1.00192 0.000119762 -8.84223e-23)
(0.92614 0.281185 -4.68304e-21)
(1.01284 0.00272546 0)
(1.14086 0.231506 -1.42691e-20)
(1.00898 0.00275686 -1.32195e-22)
(1.05431 0.121063 1.06855e-20)
(0.916873 0.0178256 1.23027e-21)
(1.0211 0.00394415 -5.99066e-22)
(1.04458 -0.0060263 2.57991e-21)
(1.00642 0.000391738 0)
(1.02378 0.0181015 2.08713e-21)
(1.03247 0.0330016 1.35781e-20)
(1.00805 0.00286689 2.55988e-22)
(0.930855 0.0252582 9.43456e-22)
(1.01161 0.00112254 -1.32486e-22)
(1.01587 0.00361956 -3.80104e-21)
(1.03524 0.0161544 1.84255e-21)
(1.00591 0.0182446 0)
(1.0928 -0.0045694 -1.3317e-21)
(1.00838 0.00298696 2.53457e-22)
(0.94346 0.281115 3.85134e-21)
(1.00856 0.00311808 -2.45505e-22)
(1.01136 0.00107696 2.7442e-22)
(1.09546 0.0122204 1.65031e-21)
(1.02348 0.017903 -1.74947e-21)
(1.08565 0.0622121 -1.8446e-21)
(1.00824 0.00301359 -3.27774e-22)
(1.02254 0.018009 1.87883e-22)
(1.00211 0.00526497 -3.60243e-21)
(1.00593 3.50894e-05 2.29257e-22)
(1.00702 0.000228384 -4.11504e-22)
(1.00595 0.0219926 -3.1269e-23)
(1.01002 0.000927695 -3.3438e-22)
(1.00608 0.0197506 -2.33568e-22)
(0.902604 -0.23902 0)
(1.15854 -0.046586 -5.50466e-22)
(1.07438 0.0637303 1.87943e-21)
(1.01367 0.000558718 -7.98371e-22)
(0.872529 -0.0498068 0)
(1.01907 0.00687449 -5.34876e-22)
(1.00957 0.0010223 0)
(1.0187 0.0062068 5.12907e-22)
(0.976073 0.0763521 -2.63417e-21)
(1.02122 0.0118297 -1.27362e-21)
(1.00408 0.00682836 -1.2618e-21)
(1.01118 0.000927845 -2.40735e-22)
(1.01338 0.000668632 7.98452e-22)
(1.00146 0.000516384 0)
(1.02309 0.0178577 1.74989e-21)
(1.01132 0.00221001 -2.65362e-22)
(1.04761 -0.00293054 -2.2448e-21)
(0.855438 -0.0612419 -3.01873e-23)
(1.01619 0.0311761 2.07748e-21)
(1.01033 0.00247341 0)
(1.0024 0.000192397 -4.60853e-23)
(1.00361 9.39862e-05 0)
(1.02798 0.0229675 1.44837e-21)
(1.02257 0.0177721 0)
(1.09418 0.235247 8.19339e-21)
(1.02401 0.0179279 -7.5111e-23)
(1.01097 0.000874419 3.4729e-22)
(1.09947 0.021707 -1.59394e-21)
(1.02227 0.015877 1.29583e-21)
(1.02421 0.0180431 1.36112e-22)
(0.942893 0.0200132 0)
(0.980186 0.207508 1.01224e-20)
(0.905862 -0.243218 1.0505e-20)
(0.999042 0.0188489 8.72231e-23)
(1.10031 0.0392633 -2.22004e-21)
(1.13082 0.205414 -3.60992e-20)
(1.01131 0.00592555 7.60237e-23)
(1.01034 0.000863507 0)
(0.814195 -0.0757474 8.76711e-21)
(1.02134 0.0101169 2.81196e-21)
(1.00964 0.00103969 -3.76877e-23)
(0.740843 -0.32317 -4.22168e-21)
(1.01451 0.00529387 -9.22362e-22)
(1.00435 0.104274 -2.00389e-21)
(0.986886 -0.0388217 4.90863e-22)
(1.01014 0.000818885 2.44157e-22)
(0.916381 0.119907 -1.32651e-22)
(0.916221 -0.00580402 -5.15946e-22)
(1.01231 0.000929349 0)
(1.12918 -0.061127 8.61765e-22)
(1.0292 0.0254107 -7.13219e-21)
(1.04893 0.0216793 0)
(1.01013 0.00165374 -2.40712e-23)
(0.768834 -0.307315 -2.29606e-22)
(0.991948 -0.0432323 3.19736e-22)
(1.0142 0.000387867 2.12548e-21)
(1.13397 0.256146 -3.91865e-20)
(1.00096 0.00132628 3.4399e-24)
(1.02735 0.0240298 -6.55897e-22)
(0.998633 0.000874553 -2.48558e-24)
(1.01057 0.00181335 4.34203e-22)
(1.02436 0.0178156 4.57104e-21)
(1.02238 -0.00371337 0)
(1.02311 0.01852 1.15781e-22)
(1.0093 0.0026935 4.44307e-22)
(1.0088 -0.000254802 2.05266e-23)
(1.01024 0.000785234 -2.1679e-22)
(1.0066 1.47777e-05 -3.09132e-22)
(1.01019 0.00171445 0)
(1.00856 -0.000212718 9.90096e-25)
(1.01215 0.0194901 6.90536e-22)
(1.01453 0.00548328 -9.09348e-22)
(1.01047 0.0023614 -1.65872e-22)
(1.03413 0.0188911 0)
(1.00868 0.0208863 0)
(1.04507 0.0255399 9.97128e-22)
(1.12345 0.248083 0)
(0.722385 -0.0997031 0)
(0.934548 0.0146793 -3.32812e-20)
(1.02853 0.0251603 3.0767e-21)
(1.0029 0.000120152 0)
(1.0061 0.10031 9.78337e-22)
(1.0057 8.41906e-05 -2.2526e-22)
(0.935502 0.242034 -3.4942e-21)
(1.00123 9.89831e-05 0)
(1.01359 0.000300648 -2.62611e-23)
(1.00417 0.000131738 0)
(1.00115 0.00086253 0)
(1.03591 0.0146413 7.20499e-22)
(1.02151 0.0162736 6.88127e-22)
(1.00572 -4.28394e-05 -1.62902e-23)
(1.0413 0.0239554 -3.03727e-21)
(1.02197 0.0113651 2.37705e-21)
(1.01092 0.0024192 8.20377e-22)
(1.04198 0.0153044 0)
(1.01341 0.00094688 -3.67325e-22)
(1.00629 -0.000117913 -6.43021e-24)
(1.00858 0.0167573 0)
(1.01598 0.00127048 0)
(1.01304 0.00599185 1.57067e-22)
(1.13071 0.199139 5.53376e-20)
(0.979608 0.0796203 1.05523e-21)
(1.01057 -0.00236361 2.89309e-23)
(1.00692 0.00477501 -2.3351e-22)
(1.01545 0.000287953 0)
(1.07591 0.24398 -2.85835e-21)
(1.00713 0.000356877 3.39185e-22)
(0.661461 -0.0652127 7.09242e-21)
(1.0108 -0.00227403 -7.66976e-23)
(0.919561 -0.153226 1.90195e-22)
(1.01311 0.00101736 0)
(1.00754 0.0123391 9.53633e-22)
(1.01629 0.024996 0)
(1.00674 -9.92112e-05 2.69524e-23)
(0.748661 -0.0870198 0)
(1.02161 0.00880313 0)
(0.979901 0.0836287 3.77361e-20)
(1.01082 0.00235269 -2.92363e-22)
(1.0119 0.00425656 1.08542e-22)
(1.02086 -0.00687853 -4.93834e-22)
(1.01763 0.00935853 1.34563e-21)
(1.02411 0.0519115 5.8735e-24)
(1.02604 0.000344593 0)
(1.02482 -0.000344806 0)
(1.00088 0.00137307 0)
(0.92293 0.234075 9.58053e-21)
(1.02182 0.0162804 -2.58509e-22)
(1.03752 0.0271198 -5.71235e-21)
(1.02133 0.0092234 0)
(1.01036 0.00194854 0)
(1.01752 0.0305736 3.65669e-21)
(1.00575 0.00417371 1.47493e-22)
(1.0085 0.0247809 -8.03268e-22)
(1.01237 0.0105244 -9.24491e-23)
(0.986939 -0.00132803 0)
(0.998379 0.00781317 0)
(1.00606 0.00430084 0)
(0.924333 -0.0141441 0)
(0.919093 -0.0846421 1.39607e-20)
(1.02928 0.0139688 -2.67294e-22)
(1.006 0.00186339 7.22895e-23)
(1.02328 0.0180655 0)
(1.02085 0.0131085 -1.5367e-22)
(1.00586 0.0043362 7.40308e-25)
(1.03215 0.0230983 2.41444e-24)
(0.990524 0.00020138 4.57408e-22)
(1.03123 0.010035 0)
(1.13685 0.195775 0)
(1.04663 0.0232567 -7.11976e-21)
(1.02489 -0.00180706 5.83972e-22)
(1.01081 -0.00251234 0)
(1.03551 0.014183 -7.99513e-22)
(1.02366 -0.00218304 4.95309e-22)
(1.02696 0.0137787 -9.04417e-22)
(1.02127 0.00889757 0)
(1.01584 0.00320599 0)
(1.01028 0.00189337 -2.40166e-22)
(1.01894 0.0484325 4.1927e-22)
(1.02985 0.0680042 1.24719e-22)
(1.01184 0.00167015 -1.88075e-22)
(1.02183 0.004532 0)
(1.02225 0.0643494 6.88254e-22)
(1.02642 0.181585 9.76843e-21)
(1.01262 0.0107014 8.86867e-23)
(1.00119 0.000870463 1.71077e-24)
(1.01159 0.0103791 4.83077e-24)
(1.04559 0.0234899 6.77654e-21)
(1.01325 0.000503317 3.07999e-22)
(0.996852 0.00585658 -2.16273e-23)
(1.00937 0.000727541 -2.32631e-23)
(0.998717 0.000892638 8.83888e-25)
(0.952924 -0.0830959 -2.07394e-22)
(0.987417 0.0758633 2.41634e-21)
(1.05114 0.0395745 0)
(1.01636 0.0261684 0)
(1.01239 0.0198253 1.92925e-21)
(1.04388 0.0113782 0)
(0.966954 0.0767082 -3.42546e-22)
(1.00936 0.000695928 5.41379e-23)
(1.01594 0.00337461 -1.13154e-21)
(1.01483 0.00597075 -9.35256e-23)
(1.01025 0.00284867 -2.1403e-22)
(1.00693 0.0116366 -1.02167e-21)
(1.03819 0.0278335 -1.54899e-21)
(1.01019 0.00146516 3.98821e-22)
(1.01854 0.00937527 0)
(0.990701 0.0129842 9.09528e-22)
(1.01005 0.000786091 4.4149e-23)
(0.970404 -0.00546638 4.36412e-21)
(0.837773 0.214644 -8.17297e-21)
(0.994467 0.0152923 0)
(1.01787 0.00964946 0)
(1.02481 0.0185254 -9.56032e-22)
(1.01004 0.0027693 0)
(1.00497 0.0259157 0)
(1.0214 0.00782416 -2.70749e-21)
(1.02234 0.0151318 -1.61283e-22)
(1.01417 0.000280213 2.53495e-21)
(1.02239 0.0155587 0)
(0.998453 0.000292695 0)
(1.01235 0.00398924 -1.30442e-22)
(1.03055 0.0678054 9.08491e-21)
(1.02297 0.0157736 1.9997e-21)
(0.994746 -0.00439804 0)
(1.04467 0.00613404 0)
(1.00732 3.93724e-05 0)
(1.00677 0.00456979 1.215e-22)
(0.975051 -0.00271486 -3.44642e-21)
(1.01825 0.00937219 1.60667e-21)
(1.05088 0.0152253 0)
(1.03562 0.0335978 -2.61301e-21)
(0.805897 -0.223491 0)
(1.00332 0.0318339 -1.63071e-21)
(0.985476 0.078352 -5.28293e-21)
(1.008 0.014759 0)
(0.988186 0.0133293 1.03936e-21)
(1.0129 0.000165937 4.4606e-22)
(1.04426 0.0195975 1.33427e-21)
(1.05045 0.0385131 9.93995e-21)
(1.02807 0.0671846 8.45906e-21)
(1.01451 0.0140089 0)
(0.961842 0.238748 0)
(1.01084 0.00261006 0)
(1.01555 -0.00139684 -4.52154e-22)
(0.930713 0.0118899 0)
(1.02541 0.0185297 0)
(1.01082 0.00259972 -4.65665e-23)
(1.01021 0.00181127 1.4013e-22)
(1.01037 0.0019544 -1.92705e-23)
(1.06112 0.0746464 9.21074e-21)
(0.970702 0.239489 0)
(0.879804 0.265157 0)
(1.01404 0.0154331 4.62992e-22)
(0.992134 0.0158907 0)
(1.0305 0.0249643 -6.42949e-21)
(1.02779 0.0670708 -2.70865e-23)
(1.0011 0.00130178 -6.5533e-24)
(1.02154 0.00849592 -6.57742e-22)
(1.02974 0.0246931 5.58468e-21)
(1.01792 0.00536973 -1.57947e-21)
(1.02831 0.01298 1.33177e-21)
(1.00053 4.1962e-05 -2.22868e-24)
(1.008 0.122768 0)
(1.0116 0.00239045 -1.08105e-23)
(1.10008 0.0611409 0)
(1.01467 0.000665239 0)
(1.01511 0.0110537 -1.39636e-22)
(1.00623 0.0144545 0)
(1.0811 0.161313 -5.28249e-22)
(0.651164 -0.117627 -8.66038e-21)
(1.02611 0.0131711 0)
(1.0128 0.0155264 -3.23094e-22)
(1.01884 0.012186 2.20599e-21)
(1.0101 0.000972086 2.68465e-22)
(1.01764 0.00519587 -1.92921e-22)
(1.0082 -0.00294177 4.14622e-22)
(1.04816 0.0346203 5.65068e-22)
(1.01019 0.00109218 -1.35293e-22)
(1.01107 0.00060735 1.60711e-21)
(0.999011 0.00133677 0)
(1.01951 0.0118126 4.6441e-23)
(1.01029 0.00100159 -2.89029e-22)
(1.05088 0.181528 -1.8235e-20)
(1.00874 -0.00210384 -1.45251e-21)
(1.01032 0.00192664 -2.21486e-22)
(1.0073 0.00229733 1.09833e-22)
(1.02298 0.0144942 0)
(1.0119 0.000532047 1.47334e-22)
(1.02359 0.0147208 -4.77772e-22)
(1.0045 0.00545775 0)
(1.01122 0.000663707 -1.55097e-21)
(1.0209 0.0115168 -5.93285e-22)
(1.15835 0.232011 1.70571e-20)
(1.01264 0.0096504 0)
(1.00445 0.00521789 0)
(1.01001 0.00156185 6.77295e-24)
(0.999288 -0.00337081 -4.352e-23)
(1.01046 0.00203583 2.41567e-22)
(1.00628 0.000125995 0)
(1.01763 0.0779106 -6.65352e-22)
(1.01201 0.00924221 9.64712e-24)
(0.986697 0.00984092 -3.78529e-21)
(1.01717 0.0050757 -1.49536e-21)
(1.0315 0.0105035 0)
(1.09195 0.149877 1.16088e-20)
(1.01202 -0.0171104 2.89002e-23)
(1.01159 0.0104912 -2.68875e-22)
(1.04516 0.0198501 0)
(1.01196 0.00343212 4.05755e-22)
(1.00127 -0.00224936 -4.81286e-23)
(1.0391 -0.0111945 -1.29353e-22)
(1.02059 0.0108381 0)
(1.01109 0.000708608 -8.58671e-22)
(1.01069 0.0181783 6.49451e-22)
(1.00734 0.000165259 8.58904e-24)
(1.01262 0.00456771 1.28722e-21)
(1.01546 0.000340382 0)
(1.05282 0.0468852 -1.0002e-21)
(1.02352 -0.0035551 0)
(1.02495 0.0176746 -2.32627e-21)
(1.00586 0.000285723 -9.72585e-23)
(1.01039 0.00200032 -4.7646e-22)
(1.00718 0.0108538 8.48636e-22)
(1.0143 0.00786531 -1.57276e-22)
(1.04006 0.0993061 8.4517e-21)
(1.0307 0.337598 0)
(1.0135 0.00889083 1.07712e-22)
(1.00218 0.00795204 -4.5152e-22)
(1.02094 0.177527 -1.13021e-20)
(1.03306 0.00493898 3.6454e-22)
(1.01465 0.0005858 -8.62659e-22)
(1.00049 1.60388e-05 4.39124e-24)
(1.03308 0.0638941 0)
(1.01611 0.00138254 -1.11804e-21)
(0.98435 0.00968253 -2.35475e-21)
(1.01032 0.00474584 -1.75381e-22)
(1.00369 0.0216926 0)
(1.03566 0.0659408 5.38864e-22)
(0.978027 0.0012072 -2.08519e-21)
(0.68543 -0.130968 6.07752e-21)
(0.973029 0.0641558 0)
(1.0014 0.000462921 0)
(0.771531 0.287812 0)
(1.02157 0.0117993 -1.30801e-21)
(1.0101 0.00141913 -4.02404e-22)
(1.03387 -0.115503 0)
(1.01483 0.00077364 0)
(1.00385 -0.00239338 0)
(0.99988 0.00171528 0)
(1.05347 -0.00581234 2.30184e-21)
(1.01479 0.000837563 -2.42083e-22)
(1.01141 0.0999438 0)
(0.982212 -0.0235466 1.26055e-22)
(0.995316 0.0749049 -6.2694e-22)
(1.01266 0.00572356 -1.26917e-23)
(1.0111 -0.00268467 -9.83836e-23)
(0.992823 0.0774629 -4.03091e-21)
(1.02255 0.0159511 -1.53492e-21)
(1.0088 0.00141681 0)
(1.04462 0.0305371 1.49457e-22)
(0.953976 -0.0643024 -4.00084e-22)
(1.01002 0.00131455 4.84176e-22)
(1.03304 0.0657479 4.8519e-21)
(1.03684 0.0989776 -7.49886e-21)
(1.01105 -0.00258066 -4.83872e-23)
(1.01599 0.0128622 4.87693e-22)
(1.02501 0.0141136 3.64028e-23)
(0.91154 0.22261 1.27508e-22)
(1.00909 0.0421365 -3.16134e-21)
(1.01919 0.0118282 -8.20336e-22)
(1.01299 1.46797e-05 -5.83368e-22)
(1.03801 0.0566389 4.9116e-21)
(1.00781 0.000179252 -5.84748e-23)
(1.01009 0.0044338 4.62958e-22)
(1.00798 0.00199581 -5.96392e-24)
(0.982292 0.00303285 2.43314e-21)
(1.0401 0.329954 0)
(1.01172 0.00342061 -3.03164e-22)
(1.00301 2.267e-05 0)
(1.0138 0.000606983 9.63601e-23)
(1.08156 0.166957 -2.24827e-20)
(1.03967 -0.00755702 -1.71979e-22)
(1.00625 0.00484846 -1.12685e-24)
(1.00444 -0.00373615 -5.99703e-22)
(1.00739 0.0261431 1.95789e-21)
(1.02177 0.00540895 5.88102e-21)
(1.08352 0.247229 -4.61294e-21)
(1.05056 0.123179 9.93344e-21)
(1.02231 0.0116862 -2.89783e-21)
(1.00768 0.000164825 3.51086e-23)
(1.01088 0.0410291 3.68793e-22)
(1.09122 0.167754 2.55074e-20)
(0.835165 -0.266077 5.67025e-21)
(1.0113 0.00361165 0)
(0.581781 -0.0203835 0)
(1.01215 0.000815801 -4.39735e-22)
(1.01154 0.0036715 -9.58066e-23)
(0.999495 0.0292933 9.78456e-22)
(1.02305 0.0164179 1.60129e-21)
(1.05813 0.046837 5.2857e-22)
(1.03427 0.0142132 7.15659e-22)
(1.02478 0.0179921 1.42937e-22)
(1.00485 0.0189857 1.29428e-21)
(1.02287 0.0123375 -1.77606e-21)
(1.04515 0.178256 1.72796e-20)
(1.02222 0.0161288 -6.00915e-22)
(1.05128 0.0358891 2.6392e-21)
(1.02016 0.0121624 -2.01866e-21)
(1.0109 0.00369935 1.9183e-22)
(1.02642 0.00889905 2.93062e-21)
(1.01112 0.00379533 0)
(1.04286 0.12172 1.03885e-20)
(1.01743 0.331875 0)
(1.05646 -0.00169278 6.6873e-22)
(1.00904 0.0186188 0)
(1.01392 0.00912789 0)
(1.01982 0.0121627 0)
(1.02203 -0.00720996 7.09992e-22)
(1.00865 0.0153776 -8.73073e-22)
(1.02045 0.00523 0)
(1.00276 0.00479424 -5.44034e-23)
(1.01759 0.00169893 4.1787e-21)
(1.00384 0.0275853 5.30106e-24)
(1.01085 -0.00264021 0)
(1.02003 0.00579292 0)
(0.448473 0.117637 1.39543e-21)
(0.644395 -0.0478328 0)
(0.926214 0.0181048 -1.42907e-21)
(1.02137 0.00981097 -2.95e-21)
(1.00509 -1.6835e-05 0)
(1.0243 0.0137456 1.16925e-21)
(1.02224 0.0119986 0)
(0.998743 0.000988679 -4.72229e-24)
(0.949864 0.208305 0)
(1.01531 -0.000614627 -7.99541e-22)
(1.02232 0.0174413 0)
(1.00048 0.0130718 1.5331e-21)
(1.02632 0.0144554 1.94086e-21)
(1.02801 0.0203659 -3.90967e-21)
(0.911198 0.169977 -1.46779e-20)
(1.01544 0.018121 0)
(1.01194 0.00190911 0)
(0.875826 -0.0644674 -3.70262e-22)
(1.00816 0.000286918 -2.17508e-22)
(0.665375 -0.0984018 0)
(0.750281 0.279717 4.35755e-22)
(1.04741 0.0251087 0)
(1.01579 0.0125665 0)
(0.883283 0.165712 0)
(1.01028 0.00158249 -1.35198e-23)
(1.01285 0.096193 -8.97001e-21)
(1.04457 0.0151501 -2.07312e-21)
(1.00401 0.0277989 -6.07556e-23)
(1.02195 0.0160809 1.67179e-21)
(1.02618 0.00861236 -4.65184e-21)
(1.02121 0.0055496 2.2452e-21)
(0.948419 -0.145292 -6.34168e-21)
(0.85187 -0.270101 -7.00661e-21)
(1.00253 0.0252359 0)
(1.0152 -0.131304 -7.75014e-21)
(1.0074 0.0131713 -9.66096e-22)
(1.02085 0.00542474 -1.79633e-22)
(1.02266 0.0182637 3.10252e-21)
(1.01602 0.00313759 0)
(1.01302 -0.00116479 8.87976e-22)
(1.07696 -0.0990559 -9.58591e-22)
(0.917544 0.212826 -3.61039e-21)
(1.00724 0.33932 1.54801e-20)
(0.99086 0.142712 -4.56901e-22)
(1.0213 -0.00442605 0)
(1.03963 0.0135955 -2.03826e-21)
(1.02874 0.0256602 0)
(1.0104 0.00206947 -4.38998e-23)
(1.01251 0.00372836 0)
(1.02325 -0.00495919 -1.15844e-21)
(1.00469 0.00209095 -1.27369e-21)
(1.02178 0.00801679 0)
(1.01591 0.00295416 0)
(1.09973 0.0598959 8.78621e-21)
(1.00954 0.000919019 -3.1318e-23)
(0.982629 0.146918 5.27251e-22)
(1.01557 -0.00344806 -5.70024e-22)
(1.02565 0.114035 -3.94419e-21)
(1.09349 0.154197 0)
(1.01263 0.00375131 -6.12831e-22)
(1.02247 0.0175984 6.40176e-23)
(0.759762 -0.0647688 2.45657e-20)
(1.01749 0.00183914 2.9651e-21)
(0.979247 0.355636 -1.23312e-20)
(1.01103 0.000708328 0)
(1.13911 -0.0188794 0)
(1.01585 0.017484 8.2804e-23)
(1.01401 0.000295773 0)
(1.02788 0.0268498 0)
(0.970856 0.0795529 -5.07047e-22)
(0.968733 0.0607898 -1.60131e-23)
(1.0055 -0.000105894 3.37771e-23)
(1.00749 0.0033589 1.22253e-22)
(1.0372 0.0529106 2.14281e-21)
(1.04819 0.0258526 -1.74625e-20)
(1.02148 0.114881 3.94628e-21)
(1.01622 0.000919806 5.80673e-22)
(1.05803 0.123209 -2.68404e-20)
(1.00953 0.000872618 1.32627e-23)
(0.945911 0.199221 5.3406e-21)
(1.00035 2.28478e-05 -8.04595e-24)
(1.01107 0.002854 -1.73344e-22)
(1.01882 0.206314 0)
(1.0099 0.0197902 0)
(0.993878 -0.00264426 -2.23963e-21)
(1.00149 0.000139693 -4.10831e-26)
(1.02233 0.0173225 -1.88724e-22)
(0.997288 -0.0120078 8.93847e-24)
(1.00355 0.112999 0)
(0.887298 0.275886 9.23257e-21)
(1.03243 0.0236898 -7.37293e-21)
(1.01204 0.0106569 1.66767e-22)
(1.00295 0.00014444 0)
(1.02458 0.0179165 7.31834e-22)
(1.01989 0.011174 -2.01631e-21)
(1.03265 0.0230836 -6.20968e-21)
(0.755723 0.207638 0)
(1.0101 -0.00165925 -3.2665e-24)
(1.01427 0.00971647 -1.0752e-22)
(1.01668 0.00927707 1.23218e-21)
(1.00325 0.000151955 0)
(1.02758 0.0220244 2.1219e-21)
(0.998824 0.00101495 3.30197e-24)
(1.01235 -0.0193727 -1.44098e-23)
(0.996514 -0.0291131 -3.42287e-21)
(1.00071 -0.00234589 -3.47576e-22)
(1.05274 0.0547316 -7.00168e-21)
(0.951852 -0.00724996 3.11215e-21)
(1.00103 0.00132862 -3.69827e-24)
(1.01034 0.00196471 3.09283e-22)
(0.667826 -0.019239 0)
(1.00805 0.0188157 -1.23188e-23)
(0.467589 0.122889 2.37796e-22)
(1.0336 0.0104284 0)
(1.0151 0.0103824 0)
(1.01595 0.00270858 -5.7798e-22)
(1.01187 0.00129564 0)
(1.00708 0.018954 -1.01972e-21)
(1.01838 0.0126511 0)
(0.999937 0.00172895 3.37678e-24)
(0.983167 -0.0719902 -5.3681e-21)
(0.750611 -0.325677 8.55494e-21)
(1.01105 0.00287151 1.78666e-22)
(0.89847 0.20673 -1.91782e-21)
(0.909923 0.209677 1.98306e-21)
(1.01789 0.0200305 -7.67321e-22)
(1.00938 0.217431 1.31236e-20)
(1.01029 0.00459485 -3.89527e-22)
(0.882159 -0.0878877 0)
(0.997075 0.0250097 1.62758e-23)
(1.0006 0.00151736 7.35069e-24)
(0.933425 -0.015672 3.15701e-21)
(1.0365 0.0610306 0)
(1.08309 0.263065 0)
(0.995016 0.11301 -9.73631e-22)
(1.00747 0.000670179 -2.84857e-22)
(1.01172 0.00145066 5.11611e-22)
(1.00644 0.000112883 1.0925e-22)
(1.04282 0.0188565 -1.94229e-21)
(1.05856 0.0733352 0)
(1.01235 0.00582292 -5.16275e-22)
(1.03246 0.00863451 -2.06356e-21)
(0.9756 -0.0644883 5.46823e-21)
(1.02159 0.0114224 1.5713e-21)
(1.03617 0.0628676 0)
(1.01245 0.00160804 0)
(1.03964 0.0580199 6.66733e-21)
(0.858206 0.322475 0)
(0.956166 -0.165904 2.87736e-21)
(1.01638 -0.0632312 0)
(0.940045 -0.128913 4.98876e-22)
(1.0071 0.0152026 -1.0641e-21)
(0.945745 0.262263 4.7645e-21)
(1.02238 0.017579 1.15343e-21)
(1.00993 0.00141252 0)
(1.02317 0.0172717 8.31065e-23)
(0.990095 0.105335 -6.89593e-22)
(1.0208 0.0206652 8.72503e-23)
(1.06529 0.0680721 1.70706e-20)
(1.0126 0.00583647 -3.74672e-22)
(0.915843 -0.0696082 -1.44437e-20)
(1.01374 0.000566617 0)
(1.01572 0.0108398 -1.83295e-22)
(0.773908 0.151036 0)
(1.00496 2.31874e-05 0)
(1.02337 0.0170061 1.99279e-23)
(0.9966 -0.00130064 2.19438e-21)
(0.998459 -0.0233202 0)
(1.02106 0.00163854 2.42204e-21)
(1.01493 0.00135124 1.43887e-21)
(1.0267 0.0211627 -3.87056e-21)
(1.02243 0.017249 0)
(1.0053 0.00435998 -9.42821e-23)
(1.01278 0.00872489 6.40025e-22)
(1.02804 0.0302687 2.03652e-22)
(0.90721 0.0255634 3.64592e-21)
(1.02542 0.0178276 0)
(1.00721 -8.8835e-06 1.81774e-26)
(1.00171 0.019729 -2.05122e-22)
(0.951141 -0.0202457 3.79228e-21)
(1.01213 0.00510119 3.82373e-22)
(0.948487 -0.13668 0)
(1.09147 0.240719 2.37641e-20)
(1.0214 0.00534722 -6.61875e-21)
(0.521937 -0.096841 0)
(1.005 0.00488576 4.7292e-23)
(0.965165 0.200647 0)
(1.01756 0.00360837 -1.6467e-21)
(0.999871 0.0016534 1.75781e-24)
(1.02638 0.20468 0)
(1.02168 0.016277 -5.32897e-22)
(0.922301 0.226066 -5.82271e-21)
(1.0256 0.0175313 0)
(1.015 0.00129321 -1.19094e-21)
(0.514381 -0.100568 1.17273e-21)
(1.01737 0.00363764 -1.49671e-21)
(1.00999 0.00252972 0)
(1.01272 0.000584046 -1.64467e-22)
(1.01 0.00148539 6.03629e-24)
(1.02376 0.0168175 -1.07995e-22)
(1.00805 0.0227231 7.86578e-22)
(0.672863 -0.151387 5.49166e-21)
(1.00468 -3.39693e-05 -1.30197e-23)
(0.988167 0.352694 1.47609e-20)
(1.01142 0.00341181 0)
(0.976018 -0.174138 0)
(0.844141 0.197584 3.3064e-21)
(1.01645 0.0130631 7.21413e-22)
(1.01742 0.00525617 2.03539e-22)
(1.02232 0.017396 9.99465e-22)
(1.00255 0.00539226 0)
(1.04325 0.145049 -1.29269e-20)
(1.01353 0.00375371 1.32004e-23)
(1.00954 0.00295639 0)
(1.00827 0.0050245 7.6899e-23)
(1.01242 0.00571879 2.84939e-22)
(1.01722 0.00182612 -1.46019e-21)
(0.998371 0.227732 7.71417e-21)
(1.00942 0.0199084 0)
(1.02632 0.0704033 -2.33814e-21)
(1.01454 -0.00429123 1.08882e-21)
(1.01469 -0.00178176 2.25232e-21)
(1.01263 0.0186639 -1.43462e-21)
(1.00135 0.0143378 0)
(0.974063 -0.102237 0)
(1.01064 -0.00251704 -2.79655e-24)
(1.04708 0.120077 0)
(0.998923 0.0160406 8.50529e-22)
(1.00619 0.00446472 0)
(0.904485 0.211568 -5.59031e-21)
(0.846197 0.314235 0)
(1.00465 0.000344251 4.72047e-25)
(1.02889 -0.166899 -1.5121e-21)
(1.0025 9.87932e-05 0)
(1.02025 0.0106068 -1.43695e-22)
(1.05113 0.0542826 1.45017e-20)
(1.00063 0.00149681 -5.42374e-24)
(1.03867 0.0544017 4.71179e-21)
(1.02283 0.0173111 -3.96313e-22)
(0.988858 -0.169486 0)
(1.00443 0.000298039 0)
(1.04635 0.021422 -1.58221e-21)
(1.00551 -0.251154 0)
(1.02688 -0.0395085 -3.57274e-21)
(1.02021 0.0401849 -9.42488e-23)
(1.01716 0.00193308 -1.73363e-21)
(1.01145 0.0216122 0)
(1.07112 0.108348 -2.69184e-20)
(0.907868 -0.0951579 0)
(1.01635 0.00103598 -1.79573e-21)
(1.03255 0.0173691 -6.0427e-21)
(1.00761 6.65412e-05 2.25436e-22)
(1.01749 0.00851211 0)
(1.01084 0.00269573 6.33873e-23)
(1.00055 5.10213e-05 5.51987e-24)
(1.01049 -0.00187202 2.05345e-24)
(1.01699 -0.183522 1.50634e-21)
(1.00609 -0.0034579 7.75548e-22)
(1.00798 -1.59542e-05 0)
(1.00869 0.00272875 3.56878e-23)
(1.00226 0.000288998 0)
(1.01854 0.0114819 -1.37573e-21)
(1.02789 -0.0346847 -5.57423e-21)
(1.0681 0.106755 2.33819e-20)
(1.01215 0.00426778 0)
(1.0225 0.0172542 4.71369e-22)
(1.01454 0.00882388 -3.25634e-22)
(1.01408 0.0089186 7.56079e-22)
(1.00594 0.00285513 8.31263e-23)
(1.01009 0.00163307 2.37526e-23)
(1.00896 0.0199405 4.10461e-22)
(1.00862 0.00293122 0)
(1.0097 0.00119762 2.32117e-23)
(1.00601 -9.87857e-05 -2.14842e-23)
(1.02099 0.00956484 1.32052e-21)
(1.00645 0.00438655 0)
(1.01133 0.008927 2.68315e-22)
(1.08929 0.229475 -3.15858e-20)
(1.16263 -0.0236986 -4.259e-23)
(1.03146 0.0238633 3.26801e-21)
(1.0096 0.00107449 0)
(1.09264 0.162932 -2.41715e-20)
(1.00934 0.00289511 -1.04579e-22)
(1.00874 0.00290379 1.35202e-22)
(1.01105 0.00908911 1.20853e-22)
(1.01568 0.0366847 3.7434e-22)
(1.01111 0.019315 0)
(1.0108 0.00891864 -2.46152e-22)
(1.00867 0.0050358 8.13603e-23)
(1.01064 -0.00228315 0)
(1.00738 0.0203858 0)
(1.0079 0.00286172 0)
(1.002 0.0188961 1.33068e-21)
(1.01336 0.00361876 6.51471e-22)
(1.02091 0.0111463 2.94422e-22)
(1.01089 0.00279804 9.93014e-23)
(1.03236 0.0170457 5.82904e-21)
(0.930336 -0.173069 -1.78352e-21)
(1.00991 0.00135894 0)
(1.02311 0.0118288 3.486e-21)
(1.00792 0.000175547 -1.61557e-23)
(0.911407 0.12394 2.51031e-22)
(1.00701 0.0283934 6.05873e-23)
(1.0451 0.033373 0)
(1.01807 0.0126795 0)
(1.03249 0.00165068 -1.6186e-22)
(1.01536 -0.00449028 1.67768e-21)
(1.00467 0.0162598 -4.3441e-22)
(0.977276 0.187862 -4.65895e-21)
(1.00643 -5.96663e-05 -8.89644e-23)
(1.00043 0.0244785 0)
(1.02315 0.0120699 3.76248e-21)
(0.985129 0.122223 -4.99205e-22)
(1.01121 0.00197005 1.3779e-21)
(1.01186 0.00396025 -1.09672e-22)
(1.00218 0.00472074 -4.05456e-23)
(0.869914 -0.02858 0)
(1.00256 0.00470478 -4.79076e-23)
(1.04577 0.0340742 -8.47009e-21)
(1.01191 0.0105098 4.74309e-22)
(1.0512 0.187995 8.14164e-22)
(1.03826 0.0159993 8.03072e-22)
(1.00608 0.000111487 0)
(1.00782 -1.24271e-05 -7.7664e-24)
(1.00076 9.89954e-05 -3.14423e-24)
(1.01203 0.00491606 -5.82098e-22)
(1.05175 0.0370945 -2.6194e-21)
(0.980492 0.122254 -4.13012e-21)
(1.01783 0.125463 -2.90836e-21)
(1.01082 0.0583461 0)
(1.02405 0.00262468 0)
(1.00774 0.00307705 3.0375e-23)
(1.00609 0.000185695 4.69645e-22)
(1.01095 0.00290154 -1.30374e-22)
(1.01074 0.000638369 1.22941e-22)
(1.02459 0.0107862 3.35627e-21)
(1.02428 0.0696169 2.52519e-21)
(1.0068 -0.00243494 9.37947e-22)
(1.02589 0.0770552 -2.79929e-22)
(1.02364 0.00258066 3.60273e-21)
(1.02023 0.00268708 4.11625e-21)
(1.02926 0.0288756 -2.22305e-22)
(1.01606 0.00287745 1.19632e-21)
(1.08646 0.169868 3.83026e-20)
(1.01207 0.0611261 0)
(1.00462 0.0159431 1.39446e-21)
(1.01814 0.164753 2.29941e-20)
(1.14082 0.236207 2.23648e-20)
(1.01008 0.02816 1.01657e-21)
(1.01032 0.00192961 0)
(1.00792 0.00305232 -3.09377e-23)
(1.02627 0.00788745 0)
(1.01395 0.000793102 1.66376e-21)
(0.927504 0.0379015 0)
(1.05364 0.0734571 -4.04006e-21)
(1.03924 0.141503 1.21804e-20)
(1.01267 0.00257481 -2.49045e-22)
(1.02096 0.0092689 0)
(1.01224 0.00406833 -1.92545e-21)
(1.01089 0.00071387 -2.77826e-22)
(0.997708 0.189813 0)
(1.00879 -0.072448 0)
(1.00868 0.00308535 0)
(1.00277 0.00500947 1.07641e-22)
(1.00749 0.00024571 6.66628e-23)
(1.0109 0.00283929 -1.04435e-22)
(1.01021 0.00115957 -4.98729e-23)
(1.00664 0.00162662 1.34524e-22)
(1.07236 0.217885 -2.75846e-20)
(1.00238 0.00425503 8.77e-23)
(1.01186 0.00182011 0)
(1.01277 0.00238463 0)
(1.00882 -6.35838e-05 -2.68222e-23)
(1.01086 0.00273422 -1.8849e-23)
(1.01722 0.00826399 1.379e-21)
(0.999853 0.0142245 -1.84326e-21)
(1.00882 -8.49238e-05 2.74919e-23)
(1.01276 0.0189478 0)
(1.00843 0.00516263 -8.37729e-23)
(0.999045 0.00139496 -2.16345e-24)
(1.01729 0.215872 -1.58168e-20)
(1.00704 0.0151655 0)
(0.970555 0.0105616 -2.52495e-22)
(0.997213 -0.00383349 -1.80863e-22)
(1.03074 0.00889312 -5.195e-21)
(1.03364 0.103188 7.54602e-21)
(1.02982 0.0287711 0)
(1.01371 0.000606715 0)
(1.00907 -0.000396978 0)
(1.00895 -0.000568636 -3.20071e-24)
(0.988233 -0.0147367 5.25298e-22)
(1.00493 -0.00017836 1.75916e-23)
(1.00849 0.0279408 -5.37518e-23)
(1.03895 0.0142859 7.87418e-22)
(1.01713 0.00876919 0)
(1.01276 0.00186823 -5.74774e-22)
(1.02119 0.00108087 -2.52681e-21)
(0.975779 0.121778 4.55922e-22)
(1.01196 0.016623 -9.25785e-23)
(1.00469 -2.49482e-05 0)
(1.00833 0.000402428 2.96874e-23)
(1.00363 0.00245771 1.25578e-21)
(1.00418 0.0339565 -1.56065e-21)
(1.01219 0.00391072 -2.93286e-22)
(0.972915 0.0685055 0)
(1.0082 5.51857e-05 3.9972e-24)
(1.00556 0.00418534 -1.45489e-22)
(1.03136 0.0244658 1.0208e-20)
(1.07941 -0.0456939 0)
(0.979841 -0.115791 -4.14366e-21)
(1.01827 0.0143646 0)
(1.07915 0.220247 1.45347e-20)
(1.00723 0.00449706 -9.09557e-23)
(1.01177 0.0105512 -5.56417e-22)
(1.06649 0.00180884 0)
(1.00349 -0.000184193 -1.27697e-21)
(1.01188 0.0047947 3.41307e-22)
(1.0635 -0.00357046 0)
(1.01586 -9.94769e-05 2.3869e-21)
(0.889097 0.104123 -3.83886e-21)
(1.06613 -0.0572029 -2.62242e-22)
(1.00197 0.000197071 2.47885e-23)
(1.00746 0.0044636 9.90797e-23)
(1.02144 0.00160586 -2.39796e-21)
(1.01026 0.00342111 0)
(1.00714 0.00475204 1.28174e-22)
(0.971919 0.00439402 0)
(1.04687 0.0284011 1.5441e-22)
(1.00958 0.00219167 0)
(1.01707 0.00904798 1.23812e-21)
(1.01875 0.0123525 -2.07018e-23)
(1.04369 0.0586015 0)
(1.01194 0.00515405 0)
(1.00821 -0.00141704 -2.12117e-22)
(1.011 0.0299113 0)
(1.0156 0.00545515 1.19622e-22)
(1.01477 0.00690588 -5.07264e-22)
(1.01574 0.0134128 -1.16484e-22)
(0.982735 0.112952 0)
(1.01223 0.116255 1.80395e-21)
(1.01396 0.000902137 0)
(1.0117 0.00221178 1.52349e-23)
(1.00979 0.0024661 0)
(1.00772 0.00976647 -3.15699e-22)
(1.004 0.0149265 3.12677e-22)
(1.02634 0.0191125 -7.28024e-23)
(1.01013 0.000861032 -4.06491e-22)
(1.00944 -0.00032842 0)
(1.0006 0.00649176 -3.3888e-22)
(1.00936 0.0223593 0)
(1.00935 -0.00112052 1.11094e-23)
(1.01811 0.00116706 -2.35789e-21)
(0.970081 0.0559051 0)
(1.01028 0.00106519 1.95254e-22)
(1.00907 0.0005238 -2.43801e-23)
(1.01742 0.00321332 8.68706e-22)
(0.832875 -0.245784 1.30854e-20)
(1.01141 0.00240322 0)
(1.0206 0.0026828 -2.17864e-21)
(1.00952 -0.00128345 0)
(1.01174 0.00959605 0)
(1.0116 0.00192263 0)
(1.02571 0.0255822 4.98929e-21)
(1.04534 0.172258 0)
(1.01833 0.00131745 -1.6606e-21)
(0.906302 0.106396 -5.48776e-22)
(1.02333 0.0330906 0)
(1.09047 0.199655 -3.07662e-20)
(1.0021 0.0735685 3.29924e-22)