/*--------------------------------*- C++ -*----------------------------------*\
| =========                 |                                                 |
| \\      /  F ield         | OpenFOAM: The Open Source CFD Toolbox           |
|  \\    /   O peration     | Version:  v2012                                 |
|   \\  /    A nd           | Website:  www.openfoam.com                      |
|    \\/     M anipulation  |                                                 |
\*---------------------------------------------------------------------------*/
FoamFile
{
    version     2.0;
    format      ascii;
    class       surfaceScalarField;
    location    "50";
    object      meshPhi;
}
// * * * * * * * * * * * * * * * * * * * * * * * * * * * * * * * * * * * * * //

dimensions      [0 3 -1 0 0 0 0];
oriented        oriented;


internalField   nonuniform List<scalar> 
27274
(
0.000128913
-0.000182096
5.32822e-05
9.93475e-06
-4.59637e-05
3.6029e-05
0.000249135
5.69582e-05
-0.000304591
-0.000222516
1.00928e-05
0.000220086
-0.000125756
-0.000117858
0.000244551
-5.67015e-05
-6.07461e-05
0.000117474
0.000167492
7.61789e-05
-0.000239196
1.23019e-05
0.000103828
-0.000116092
-0.000157763
-6.17364e-05
-4.01351e-05
4.97777e-05
-9.64253e-06
2.83626e-05
0.000214684
-0.000238661
-3.56784e-05
-1.488e-05
5.05585e-05
-0.000113455
4.69792e-05
6.64871e-05
0.000238482
-0.000276138
3.78583e-05
0.000321195
-0.000127883
-0.000192206
-0.000213658
0.000137214
7.66495e-05
4.2628e-05
-4.86641e-05
6.03608e-06
-0.000370023
0.000191328
0.000182955
6.36898e-05
0.000178341
-0.000241206
-7.82514e-06
-4.39729e-05
5.17988e-05
-0.000167074
1.03963e-05
0.000156777
-0.000293573
0.00017503
0.000118835
4.98832e-05
-4.90615e-05
-8.21621e-07
9.01641e-05
-0.000215075
-7.39781e-05
0.000210367
0.00013892
-0.000195101
5.77518e-05
3.44292e-05
-0.000207471
-0.000170296
-1.85306e-05
0.000188877
4.05469e-05
1.42889e-05
-5.48357e-05
-0.000272587
0.000342166
-6.8587e-05
-0.000263294
7.48754e-06
0.000257089
0.000115367
-0.00026498
0.00015025
-0.000212971
-0.000151996
-3.5479e-05
1.41889e-05
3.53667e-05
-0.000130811
0.000117225
1.36177e-05
-1.91135e-05
0.000148107
-3.57215e-07
-0.000195304
7.93667e-05
2.27309e-05
-0.000102091
1.91886e-05
-0.00018946
-2.82911e-05
-0.000216521
0.000248953
0.000272622
-3.39398e-05
5.84226e-05
3.66895e-05
-9.5105e-05
-1.33653e-05
0.000263929
2.69192e-05
-4.97942e-05
2.2875e-05
1.41308e-05
3.35083e-05
-3.39811e-05
-2.87699e-06
8.22482e-05
-9.71878e-05
-2.56575e-05
0.000122885
-0.000212814
0.000175516
3.73487e-05
8.23124e-05
6.18522e-05
-0.000144114
-1.13893e-05
0.000214778
-0.000199887
0.000120425
-0.000232347
0.000117177
-0.000323207
0.000273104
5.19342e-05
-4.03356e-05
4.12689e-05
-7.00578e-07
5.41963e-05
-1.7005e-05
-3.71912e-05
0.000233143
-8.77834e-05
-0.000142969
1.23893e-05
9.31665e-06
-1.39941e-05
-0.00010715
2.19569e-06
0.000104978
0.000123517
0.000198465
5.52545e-05
-2.37161e-05
-3.15384e-05
0.000112832
-4.1587e-05
-7.12352e-05
-0.000200126
0.000192074
8.58343e-05
4.53136e-05
-0.000131106
-0.000293298
0.00011239
0.000185069
0.000140495
-7.12286e-05
-6.92339e-05
-4.52842e-05
9.60575e-06
-0.000113323
-6.86561e-05
5.03711e-05
-2.64816e-05
-2.38895e-05
-9.96633e-05
-4.48335e-05
0.00014451
-0.000204824
-0.000168793
-0.000124494
7.54402e-05
4.24016e-05
-0.000117819
1.52219e-06
1.95391e-05
-1.94962e-05
4.39984e-05
6.88413e-05
-6.87961e-05
-0.000182897
0.000255399
-0.000112445
0.000124789
0.000245658
-7.46398e-05
1.64701e-05
-6.09475e-05
4.44778e-05
-0.000150894
-7.17061e-05
0.000223188
-0.00019519
0.000140673
5.47611e-05
0.000235281
-0.000282807
4.96177e-05
-0.000187116
0.000268116
-7.95928e-05
6.89974e-05
1.0597e-05
2.47688e-05
-0.0001917
-6.96489e-05
0.000122293
-5.26147e-05
0.000200335
-6.00919e-05
-2.3332e-05
-9.01108e-05
5.5345e-05
-2.95079e-05
-2.5837e-05
5.19752e-05
-5.97994e-05
5.82117e-05
-1.76648e-05
-4.63309e-05
5.62611e-05
-9.93002e-06
8.28743e-05
-8.33797e-06
-7.45323e-05
-3.77649e-05
7.02978e-05
-3.55609e-05
0.000195648
-0.000158158
-0.000263535
0.000216775
5.34842e-05
5.26909e-05
-5.26909e-05
4.32863e-06
4.55546e-05
-5.08542e-05
-0.000169963
0.000222614
-0.00017337
-2.15621e-05
0.000195213
1.67549e-05
3.74415e-05
4.03591e-05
6.86973e-06
-4.72289e-05
4.27446e-05
-4.89164e-05
6.17174e-06
6.86301e-06
3.6365e-05
-4.3228e-05
9.93915e-05
8.3104e-05
-0.000182435
-1.88539e-05
7.53061e-05
-5.64507e-05
-7.74755e-05
-0.000150052
0.00022836
-0.000108123
1.41163e-05
9.40218e-05
-2.16283e-05
-2.22976e-05
4.39259e-05
9.95999e-05
-6.97858e-05
-2.98078e-05
-0.000199211
0.000124581
7.4739e-05
-4.37923e-05
-4.14111e-05
0.00010543
-0.000293077
0.000188645
0.000157475
5.06558e-05
-0.000208077
0.000109415
-0.000183983
7.51273e-05
0.000230989
-7.3467e-05
-4.80568e-05
6.12362e-05
-1.31793e-05
-3.73039e-05
-5.5589e-06
5.20028e-05
-2.89317e-05
4.20564e-05
-1.31247e-05
-4.1355e-05
5.78256e-05
3.85135e-05
-4.28305e-05
4.31694e-06
-4.64357e-05
0.000145881
-4.96115e-05
9.47634e-06
-6.87985e-05
6.47042e-05
4.09568e-06
7.80368e-05
-0.000228366
-3.21432e-05
0.000107603
-0.000225108
0.000176068
4.89885e-05
5.06166e-05
-0.000277086
-4.37964e-05
-5.89557e-05
5.24259e-05
6.12139e-06
-8.32786e-05
3.39033e-05
4.93763e-05
-2.94155e-05
-0.000226544
-0.000118801
0.000244409
-2.86759e-05
-4.08138e-05
6.9491e-05
0.000141739
-4.06254e-05
-0.000101063
4.0535e-05
-0.000213619
7.58945e-05
4.83535e-05
-0.000124228
-5.23664e-05
-5.92532e-06
0.000183755
-0.000361899
0.000179348
-0.000165712
0.000197719
-0.000241586
0.000342349
-0.000100082
9.07426e-05
1.9884e-05
-0.000110612
3.37915e-06
3.93655e-05
-4.04545e-05
-5.67608e-06
4.61306e-05
-0.000227121
0.000253025
-2.5359e-05
-0.000118106
0.00022434
3.59741e-05
3.39423e-05
-6.99163e-05
-3.94803e-06
0.000228457
-0.000224207
8.13497e-05
-0.000185998
0.000104649
4.36343e-05
-5.54328e-05
1.17986e-05
-0.000241578
5.27323e-05
0.000189256
-1.66852e-07
4.38012e-05
-0.000272079
0.000233857
3.92248e-05
0.000171312
-9.87353e-05
-3.20536e-05
2.36366e-05
3.16179e-05
-0.000120429
-4.5225e-06
0.000124983
-2.91052e-05
1.97255e-05
1.02933e-05
3.72217e-05
-6.58965e-05
3.10032e-07
3.82035e-05
-1.57844e-05
-1.25425e-05
3.2104e-05
-0.000128248
9.61789e-05
-0.000211769
0.000118467
9.34241e-05
0.000228706
-9.17184e-05
-0.000136705
-8.44822e-05
0.000154393
-6.98716e-05
-0.000147048
0.000187832
9.7849e-05
-1.85128e-06
-9.5989e-05
-3.50594e-07
-5.22108e-05
5.25615e-05
6.32712e-05
-1.50461e-05
-4.82249e-05
9.99382e-05
5.51173e-05
-0.000154995
1.45236e-06
7.1946e-05
-7.33931e-05
-0.000190849
-7.20085e-05
0.000266258
6.98976e-05
-6.35418e-05
-6.35583e-06
-5.44344e-05
2.11429e-05
3.32915e-05
0.00027158
-0.000162891
-0.000103175
-0.000234978
0.000266801
-2.69084e-05
-0.000144751
-6.86816e-05
-5.4165e-05
3.38898e-05
2.02753e-05
9.29748e-05
5.7961e-05
-0.000150878
0.000150926
-0.000216644
6.73631e-05
-2.80382e-05
-5.52391e-05
6.2233e-05
-4.26101e-05
-1.96228e-05
-6.30716e-05
0.00011138
-4.83096e-05
-5.64562e-05
5.79127e-05
-0.000158881
-2.20627e-05
0.000181133
9.52357e-05
0.00012117
-0.000211266
4.57642e-05
-0.000100227
5.44682e-05
4.80382e-05
1.09229e-06
-4.91305e-05
6.10036e-05
-5.46327e-06
-5.55402e-05
9.09466e-05
-9.55586e-06
-8.13848e-05
0.000239241
-0.000187868
-5.13467e-05
-9.57781e-06
5.22058e-05
-0.000117698
-0.000288703
0.000250399
3.97003e-05
5.03029e-05
-0.000197096
-8.4638e-05
5.39615e-05
3.06777e-05
-2.72395e-05
-9.11341e-05
0.00011839
-2.12457e-05
0.000212908
-0.000191374
-1.09507e-05
6.35953e-05
-5.26432e-05
4.05981e-05
-0.000199284
-9.5567e-05
-5.05208e-05
0.000146173
4.14301e-05
3.56502e-05
-0.00019429
0.000159177
-0.000122809
0.000214923
-9.20203e-05
-5.91329e-05
6.51296e-06
5.26201e-05
1.57637e-05
4.524e-05
2.92966e-05
-5.12126e-05
2.1916e-05
8.98186e-05
7.90805e-05
-0.000168791
1.75717e-05
-4.65034e-05
-6.70717e-05
2.7414e-05
3.96579e-05
-6.06612e-05
1.76725e-05
4.29887e-05
7.53703e-05
-0.000170839
-7.62716e-06
0.000192416
-0.000224678
-4.65094e-05
-9.3304e-06
5.79363e-05
-4.86051e-05
1.72874e-05
-0.000243799
-0.000279581
9.32996e-05
-1.54468e-05
-6.4144e-05
9.30616e-05
-3.21305e-05
-6.09283e-05
4.26454e-05
-7.93436e-05
0.000188683
-0.000214303
-2.67777e-05
9.29363e-05
-6.62295e-05
-2.67042e-05
0.000328648
-0.000257451
-7.02166e-05
-0.000133863
6.42514e-05
-0.000142019
-0.000218402
5.60387e-05
7.2327e-06
-0.000271835
6.09629e-05
0.000211306
-5.97439e-05
2.02396e-05
3.95043e-05
4.86715e-05
-4.73708e-05
-1.30065e-06
3.86148e-05
4.32107e-05
-8.18254e-05
0.000232789
-0.000239124
-3.23452e-05
-7.72575e-06
-0.000140857
-5.40679e-05
-0.000132192
0.000209587
-7.722e-05
-7.37914e-06
-5.23647e-05
-0.000229497
0.000226891
3.04317e-06
0.000144799
-0.000195199
5.18299e-05
0.00016998
-1.73263e-05
-6.47165e-05
8.95178e-05
-2.47971e-05
-1.47129e-05
-5.45521e-05
6.92675e-05
-1.45684e-05
-9.22406e-05
-0.000106823
6.64796e-05
3.15596e-05
-9.80331e-05
0.0002385
-7.87495e-05
6.86254e-05
-0.00030574
0.000241583
0.000237705
3.89434e-05
-0.000276256
6.87048e-06
4.1801e-05
-7.96467e-05
1.49838e-05
6.46642e-05
-4.56082e-05
1.42205e-05
3.13877e-05
1.57559e-05
-0.000136149
-0.000124757
-8.68708e-05
0.000197625
-0.000161448
2.39599e-05
1.4569e-05
-3.85289e-05
-0.000133895
0.000174664
-8.12217e-06
-5.25389e-05
-0.000115876
0.000233891
-0.000117506
-1.13159e-05
5.02913e-05
-3.89753e-05
-1.90503e-06
7.4254e-05
-7.23467e-05
-9.2159e-05
0.000124296
-0.00028503
0.000243617
4.2254e-05
1.88625e-05
1.51293e-05
-2.24678e-05
6.36789e-05
-0.000176891
-0.000130588
5.41583e-05
7.64494e-05
1.63617e-06
-6.07688e-05
9.84707e-05
4.33137e-05
-0.000243976
0.000108342
0.000141594
0.000200593
6.24056e-05
-0.00025878
-5.77339e-05
2.36764e-05
3.48891e-05
9.53284e-06
6.24176e-05
-0.000105044
9.93629e-05
5.69024e-06
-4.54659e-05
-5.27965e-05
9.8262e-05
0.000119715
0.00010244
-0.00022188
2.27714e-06
-3.37788e-05
3.15017e-05
2.76669e-05
6.32843e-05
-6.12476e-06
-0.000101984
0.000181261
-0.000279497
9.90494e-05
6.15978e-05
-7.25469e-05
0.000312205
-7.48318e-05
-6.50771e-05
0.000254066
-0.00018788
7.02654e-05
-4.63644e-05
-2.39007e-05
1.26283e-06
3.66841e-05
-2.68728e-05
3.33118e-05
0.00021551
2.80074e-05
-0.000113939
8.59479e-05
-0.000236272
0.000313001
-7.47714e-05
1.21546e-05
-4.65631e-05
3.44086e-05
4.95138e-05
-0.000183234
-0.0001034
-8.97445e-05
0.000193164
-2.67342e-05
3.96275e-05
-3.85369e-05
0.000138528
-4.97133e-05
4.70938e-05
2.61954e-06
0.000193887
-0.000245084
3.04529e-05
0.000299265
-5.41842e-05
-0.000245191
0.000108427
-1.69459e-05
-9.14693e-05
-4.14091e-05
-8.13108e-06
4.95402e-05
-3.93038e-05
-1.82583e-05
3.01799e-06
3.16165e-07
-2.68559e-06
5.02396e-05
4.2824e-05
4.39452e-05
-0.000120977
7.70674e-05
-0.000146352
2.36728e-05
0.000122713
3.15158e-05
-7.03912e-05
3.88763e-05
0.000197242
-0.000261113
-8.81636e-05
0.000271656
-0.00021884
-5.2612e-05
5.53511e-06
-1.38413e-06
-4.89705e-05
8.04872e-05
2.73144e-05
7.05414e-05
0.000119289
-4.24366e-05
-7.68458e-05
3.67844e-05
7.16527e-05
-0.000237371
0.000214833
-9.13782e-05
2.83057e-05
0.000250974
-0.000220565
0.000276798
-0.000212194
-5.10707e-06
-7.45381e-05
-0.000113983
0.000318417
-0.000203028
7.60172e-05
-4.59011e-05
0.000104331
-0.000184128
0.000150265
7.38679e-05
-0.000224772
0.000157459
-4.05731e-05
7.21374e-05
-1.46533e-05
3.79882e-05
-2.33349e-05
-1.66628e-05
-5.04088e-05
-0.000145702
0.000237316
-9.09213e-05
-0.000172605
8.81689e-05
-2.00983e-05
4.70174e-05
-1.49945e-05
0.000234971
-0.000218063
-7.90786e-05
6.43685e-05
0.00016998
4.50901e-05
-0.000214773
-6.78899e-05
0.000163882
-9.59426e-05
-1.58296e-06
-7.74926e-05
-1.69899e-06
-0.000228168
-3.92383e-05
3.88878e-05
0.000216289
-0.000268074
5.26193e-05
0.000137573
-6.16588e-05
-1.84941e-07
-1.39238e-05
1.97598e-05
-0.00013056
-3.62146e-05
4.1292e-05
-5.07739e-06
-3.35233e-05
5.0449e-05
-1.68715e-05
3.34049e-05
2.88283e-05
-0.000111192
-4.03066e-05
0.0001516
7.98141e-07
0.000213194
-0.00021364
-0.000148403
5.12613e-05
0.00014
-5.41269e-05
1.79826e-05
4.48918e-05
-6.28733e-05
6.00369e-05
-9.24182e-07
-5.91125e-05
-2.22763e-05
-6.23602e-05
-0.000235928
0.000120571
-0.000136775
-0.000153217
-6.21434e-05
4.50059e-05
1.71376e-05
-4.06531e-05
-5.6256e-05
9.69078e-05
-5.03148e-05
-0.000146998
0.000198664
0.00019992
-0.000273082
7.36449e-05
6.51342e-05
5.41607e-05
-2.9428e-05
7.51967e-05
5.2551e-05
-2.85911e-05
-8.34857e-06
-5.37948e-05
0.000213257
-0.000221106
8.42058e-06
-7.91359e-05
-0.0001333
0.000212923
3.4456e-05
-4.12979e-05
6.84186e-06
-4.44746e-05
-0.000247499
8.05138e-06
-0.000237063
-2.72504e-05
6.70012e-05
-3.97478e-05
6.63123e-05
8.88921e-05
-0.000155114
-0.000126243
0.000202405
-7.57514e-05
3.20113e-05
-4.66646e-05
-3.82354e-05
3.86371e-05
-2.79116e-08
5.54146e-05
6.62092e-05
-0.000121613
5.22609e-05
4.06773e-05
-2.34491e-05
-2.04159e-05
-0.00017259
-6.45982e-05
-5.23501e-05
-0.000196384
0.000249191
-7.40904e-05
-0.000124543
0.000199295
1.24108e-05
0.000223892
-0.000234345
2.62973e-05
-8.56734e-05
5.9381e-05
-0.000184325
0.000198378
-0.000147454
1.67085e-05
0.000130802
0.00020012
-0.0002733
-0.000222259
0.000137901
8.45978e-05
0.000200463
1.3554e-05
-0.000191852
3.40742e-05
-0.000343939
0.000110872
0.000234892
-0.000314864
0.000169086
0.000146633
-0.000188959
-5.77868e-05
0.000248317
9.1515e-05
-0.000278666
0.000219342
-0.000138434
-8.06558e-05
-2.07911e-05
6.72252e-05
-4.64337e-05
-3.1665e-05
5.47552e-05
-2.30902e-05
-0.000312657
0.000171748
-7.09776e-05
4.7262e-06
6.62523e-05
8.62575e-05
-0.000166024
7.98061e-05
-5.62378e-05
2.45729e-05
-0.000158787
0.00015782
1.10215e-06
1.68647e-06
-0.00010012
9.84541e-05
0.00020524
3.27891e-05
-6.88327e-05
1.37479e-05
5.50859e-05
-0.000194567
1.1109e-05
-4.00504e-05
0.000205007
-5.89629e-05
-6.12928e-05
0.000244867
-0.000178211
1.41817e-05
4.58553e-05
-0.000243371
0.000140953
0.000102753
-1.10232e-05
5.50554e-05
0.000144589
-7.50373e-05
-6.9496e-05
1.13153e-05
-0.000158701
-0.000273518
0.000230073
0.000181612
-0.000195035
4.82913e-05
-4.88571e-05
5.65866e-07
-0.000189777
3.73179e-05
-4.48416e-05
0.000220707
5.25277e-05
-0.000271124
-4.61117e-05
5.03518e-07
-4.55866e-05
4.43261e-06
4.1154e-05
5.21427e-05
-7.93897e-05
0.000180843
-9.94969e-05
0.000174383
-4.41408e-05
-5.57251e-06
-2.738e-05
3.05483e-05
-0.000303752
0.000297053
8.45692e-06
3.59514e-05
1.65996e-05
-2.85123e-05
3.79565e-05
-7.97937e-06
5.44959e-05
-0.000213859
-4.53626e-05
3.57848e-05
0.000184639
-0.000249769
-4.2562e-05
6.34745e-06
-8.42582e-05
-6.39556e-05
0.000148294
-8.28134e-05
-5.47156e-05
0.000137577
-4.80784e-05
2.49183e-06
0.000282885
-0.000119147
-0.000163675
-3.90967e-05
-0.000262836
-6.35741e-05
2.30396e-05
4.0535e-05
6.56897e-05
-0.000122364
4.73803e-05
4.75132e-05
-6.63658e-05
2.23112e-05
0.000218572
-0.000240099
-0.000145447
0.000246332
9.62002e-06
0.000219117
-9.74234e-05
5.32664e-05
4.41587e-05
0.000131745
-8.54398e-05
-4.62844e-05
0.000265338
-8.6266e-05
-1.36526e-05
-8.27408e-06
2.30491e-05
-0.000225353
0.000243247
0.000110994
-5.55732e-05
-1.17888e-06
3.56349e-05
-5.42128e-05
-0.000125083
0.000179422
0.000180664
-0.000170825
3.577e-05
-4.52544e-06
-3.10242e-05
2.10609e-05
-0.000179703
-1.08688e-05
-6.47337e-05
7.56057e-05
-4.98499e-05
8.44087e-06
3.78055e-05
-4.91214e-05
-6.12727e-05
-3.72226e-06
6.49959e-05
6.02794e-05
4.96852e-05
-0.00010996
7.09546e-05
-0.000122715
5.17708e-05
-4.60925e-05
-3.70171e-06
-0.000208271
0.000270936
-6.14633e-05
0.000109305
0.000154853
-0.000259847
8.29006e-05
-0.00022652
-8.47537e-05
2.87216e-05
-8.74161e-05
5.86984e-05
1.97822e-05
0.000213545
-0.00023238
-3.50789e-05
-9.23924e-06
4.95984e-05
8.6573e-05
2.44279e-05
-6.60397e-05
9.68325e-06
-5.6014e-05
-4.01108e-05
0.000100393
5.59748e-06
4.24407e-05
-0.00023107
0.000279247
-4.68809e-05
-0.000250505
-0.000285599
0.000235008
5.14492e-05
-0.0002121
2.92753e-05
-1.52192e-05
2.239e-06
2.7512e-06
-3.99889e-05
0.00023832
-1.31381e-06
-5.20299e-05
5.33437e-05
-0.000292664
0.000147775
-4.28284e-05
-0.000170334
0.000219344
-6.34965e-05
-5.30048e-06
1.66107e-05
5.50709e-05
-7.16753e-05
-0.0001289
0.000242112
0.000248485
-1.50368e-05
-0.000232762
9.13585e-05
-0.000131856
4.051e-05
3.72138e-05
3.30518e-05
-0.000247089
0.000102587
-0.000303958
0.000212144
9.36972e-05
6.54969e-05
6.89242e-05
-0.000191628
-1.19438e-05
-4.24139e-05
5.43577e-05
0.000168479
2.19321e-05
0.000203688
-5.14591e-05
3.10119e-05
2.04472e-05
-5.6236e-05
7.28529e-05
-0.000261324
0.000198808
6.72436e-05
5.5345e-05
-2.17346e-06
-5.31714e-05
3.78724e-05
2.92407e-06
-4.07964e-05
2.26218e-05
-5.96043e-05
3.69826e-05
0.000233344
-0.000209613
-0.000129419
-0.000172624
-0.000205679
7.36672e-05
-0.000102992
5.55659e-07
0.000102449
0.00020156
-0.000199155
-2.35626e-06
5.00113e-05
-4.77341e-05
-3.54283e-05
-6.19931e-05
-6.27791e-05
-8.19732e-06
8.29091e-05
-2.5779e-05
-5.71283e-05
-0.000237072
0.000181147
-0.000162946
7.87738e-05
-4.79805e-05
4.24247e-05
5.55584e-06
-5.01057e-05
-5.3453e-05
4.80753e-06
4.86457e-05
0.000161452
8.79341e-05
-0.000249069
0.000118889
-0.000189992
7.12196e-05
0.000224938
-0.000106324
-3.14536e-05
-1.31763e-05
4.46299e-05
-3.81862e-05
4.50492e-05
-1.37068e-05
9.65846e-05
-0.000209463
-6.19557e-05
-0.000198802
-4.23436e-05
-5.54915e-05
0.00019443
-0.000138559
9.76626e-05
3.41006e-05
0.000207115
-0.000245954
-5.86905e-05
-4.88288e-06
0.000157607
6.74475e-05
-5.59171e-05
7.8605e-06
7.63733e-05
0.000184384
-0.000260367
5.9655e-05
-0.000284314
-1.34958e-05
4.31213e-05
4.14223e-05
-0.000141069
0.000170332
-0.000103339
-6.69153e-05
6.48593e-05
-7.5725e-05
-0.000215901
-5.18169e-05
0.000269764
2.6048e-05
-9.47222e-05
6.86881e-05
-5.64474e-05
9.51843e-06
4.69291e-05
-0.000165521
-5.21453e-06
0.0001709
-5.36491e-05
-0.000230365
-1.09118e-05
-0.000163457
0.00017444
-0.000114578
-5.45682e-05
0.000169311
-3.47833e-06
2.98066e-05
-2.55416e-05
0.000162155
1.02097e-05
-0.000172248
0.000141766
3.88222e-05
-0.00020414
-9.38049e-05
7.87343e-05
1.50768e-05
0.000208398
-0.000205363
-5.07077e-05
-0.000227983
6.01047e-06
-3.96285e-05
0.000116484
-0.000154963
0.000109968
-0.000235765
-8.28963e-05
-0.000261322
3.15925e-05
-0.000149232
0.000240148
-7.52823e-05
0.000182056
-0.000215721
4.05582e-05
-0.000155578
7.1017e-05
8.45508e-05
0.000120491
6.65116e-05
-0.000186935
9.12475e-05
-7.80381e-05
-1.32032e-05
7.12251e-05
-0.000174597
-3.30555e-05
4.72373e-05
8.02443e-05
-0.000243631
0.00016404
-2.68494e-05
-1.70156e-05
0.000129661
-0.000193738
6.41453e-05
-0.000148665
-6.40954e-05
-5.2299e-05
5.03955e-05
-4.70378e-05
-5.49062e-05
6.36376e-05
-8.73064e-06
0.000189499
-0.000194527
-0.000112433
-0.000130549
4.63756e-05
0.000188757
0.000306694
-0.000297985
-7.47764e-06
-1.18695e-05
-8.85181e-05
0.000100406
-5.11807e-05
-7.72746e-05
0.000128496
0.000157384
-6.24111e-05
-9.49243e-05
2.56045e-05
-0.000103187
7.75932e-05
-4.17683e-05
8.0241e-05
3.99126e-06
-8.42244e-05
-2.60444e-05
-4.90802e-06
4.18587e-05
5.43937e-05
-4.36157e-05
-1.07778e-05
-7.61656e-05
3.8801e-05
3.73654e-05
0.000268092
-3.89276e-05
-0.000228465
7.65817e-05
0.000230597
-9.62549e-05
-5.93284e-05
2.91944e-05
2.70668e-05
-0.000106783
0.000170568
-9.28486e-05
8.76194e-05
6.80823e-06
5.01206e-05
-0.000105799
5.56786e-05
2.69981e-06
-9.64974e-05
2.03983e-05
9.68557e-05
8.685e-05
-0.000139468
5.26324e-05
6.11083e-05
-3.69495e-05
-2.41586e-05
-0.000204287
0.000183
-0.000115784
0.00011852
-2.72126e-06
-2.12069e-05
-2.11435e-05
4.23504e-05
-6.41816e-05
6.26011e-05
5.95983e-05
-7.65824e-06
-8.65593e-05
9.42253e-05
-8.71842e-05
2.24719e-05
0.000193153
-1.86111e-06
-0.000191073
-1.04653e-05
3.03398e-05
0.00019698
2.54954e-05
-0.00029696
8.10561e-05
-4.50821e-05
-2.92139e-05
7.12617e-05
-4.20481e-05
-3.28595e-05
-2.13055e-05
-7.55223e-05
5.47317e-05
3.79214e-05
8.30078e-06
-4.62222e-05
-4.48706e-05
4.45476e-05
3.22979e-07
-6.29883e-05
0.000113109
0.000203098
-6.56999e-05
4.75967e-05
-4.76008e-05
4.12331e-09
6.65456e-05
-6.37816e-05
-2.76352e-06
0.000189958
-9.04548e-05
3.37904e-05
5.66648e-05
9.36469e-06
-4.43243e-05
3.49597e-05
-7.03894e-05
6.66521e-05
3.73829e-06
-0.00015134
9.72274e-05
0.000218157
-7.44469e-05
-0.000137484
2.4485e-05
-0.000228453
0.00013757
7.94313e-05
-0.00021672
8.7361e-05
-0.000201755
-0.000125887
0.000109962
1.59464e-05
-0.000271656
0.000158925
-2.61326e-05
-1.77324e-05
9.12979e-05
0.000128286
0.000138314
-0.000203521
6.5343e-05
-4.35417e-05
1.20881e-05
-0.000235891
0.000278361
-4.09669e-05
7.52558e-05
9.5155e-05
7.92692e-06
-6.13795e-05
-0.000310872
0.000273694
0.000257424
-0.000139398
-0.000117506
-4.89669e-05
5.00647e-05
-1.0977e-06
0.000164017
-5.95809e-05
-9.4955e-05
8.16698e-05
-5.56092e-05
0.000186226
5.1987e-05
-3.01266e-05
-2.18604e-05
2.59103e-05
0.000163761
0.000129597
4.16183e-05
-0.000171127
8.95412e-05
0.000105298
-0.000217359
0.000112285
-9.60647e-05
-6.91417e-06
0.000139597
-0.000196104
5.65058e-05
-4.5037e-05
4.48702e-05
0.000118729
2.22078e-05
-0.000140903
0.000256146
-8.54127e-06
-0.000246274
-2.42932e-05
-1.95718e-05
4.3865e-05
-9.61328e-06
0.000139286
2.18701e-05
2.43225e-06
-3.42695e-05
3.18373e-05
-7.35625e-05
1.00678e-05
-7.30681e-05
-0.000240279
0.000122836
-0.000251353
0.000212296
4.40276e-05
4.08657e-05
-2.99332e-06
-0.000147661
0.000136808
0.000155811
6.44686e-06
5.57272e-06
-6.4773e-05
6.1509e-05
0.000171276
-6.67508e-05
5.47892e-06
-6.45186e-05
5.00849e-05
1.4434e-05
0.000133248
-4.91275e-05
2.2278e-05
-5.79692e-05
8.66942e-05
-0.000227254
3.41259e-05
0.000193407
7.75586e-05
0.000146572
-8.47531e-05
6.96452e-05
7.49939e-05
-4.12687e-05
-6.37649e-05
-5.44293e-05
-0.000191631
0.000248269
-6.48223e-05
9.91685e-06
-7.77857e-05
0.000167691
0.000127092
2.46761e-05
1.69562e-05
-2.72364e-05
4.72229e-05
4.09123e-05
0.000163059
0.000179799
5.44953e-05
5.05731e-05
-0.000123558
7.30124e-05
-6.5288e-05
2.03456e-06
0.000259071
-5.58041e-05
3.77008e-05
9.31235e-06
-4.70132e-05
-2.32297e-05
4.08059e-05
0.000204233
-0.000244827
-0.000286518
-1.02178e-05
0.000106489
5.98578e-06
-0.000112459
0.000128051
-6.61537e-05
0.000197524
-5.66111e-05
-0.000102934
6.228e-05
-0.000170557
-0.000143431
-4.05705e-05
-7.40992e-06
7.71078e-05
-0.000152944
7.5884e-05
-0.000251951
0.000207331
4.50289e-05
-1.22756e-05
-5.8909e-05
7.11847e-05
-2.06425e-05
4.17855e-05
0.000196221
3.0588e-05
-0.000223426
-1.68207e-05
-4.76974e-05
0.000169258
-0.000153533
-2.78895e-05
-0.000281057
2.04587e-05
0.000181198
-0.000115596
0.000139196
-2.35999e-05
-4.96363e-05
4.4423e-05
5.21345e-06
-0.000169524
5.84191e-05
-4.25276e-05
2.13207e-05
-0.000188547
0.000126597
6.20284e-05
6.60707e-05
-2.4414e-05
-4.16564e-05
4.33383e-05
3.95719e-05
-0.000179776
0.000178118
-7.36274e-06
-0.000244051
0.000192149
-7.9039e-05
2.9668e-05
4.93714e-05
0.000210186
3.4866e-05
2.0479e-05
4.14479e-05
-3.15131e-05
-0.000267429
0.000195608
7.23739e-05
1.45941e-05
-4.57782e-05
3.11841e-05
0.00012101
7.7588e-05
-0.000198399
0.000148116
-1.84099e-05
7.02004e-05
-1.40925e-05
-5.61072e-05
-0.000109823
5.35341e-05
5.62896e-05
-4.76032e-05
3.46246e-06
9.33768e-05
0.000177351
-0.000266415
3.13561e-05
-6.44114e-05
-0.000275365
5.17772e-05
0.000224126
-6.22388e-05
1.7202e-05
-0.000275635
0.000149745
0.000126747
4.3509e-05
0.00011421
0.000145718
-0.000200092
-3.56867e-06
0.000276452
-0.000269604
-6.37977e-05
2.21115e-05
5.55012e-05
0.000160448
-9.18932e-05
-6.85018e-05
1.25282e-05
-6.7647e-05
-2.74111e-06
6.44679e-05
-0.000204928
-6.48429e-06
4.76046e-05
-4.11203e-05
3.15005e-05
-0.000211036
-0.000256695
0.000256225
-0.000193154
0.00013812
-0.000192449
0.000119003
7.35099e-05
8.99163e-05
-7.9842e-05
-1.00645e-05
5.68123e-05
1.33888e-05
-0.000180457
1.10319e-05
-1.88612e-05
-6.32095e-06
0.000161406
3.73398e-05
-0.000198586
3.75459e-05
2.36904e-05
-0.000107722
8.46449e-05
0.000235036
9.17094e-05
0.000187235
0.000164631
-3.08998e-06
0.000197686
-0.000121452
-7.60765e-05
-4.854e-05
2.24074e-05
5.60752e-05
-0.000290347
-4.56323e-05
-2.17806e-05
6.74141e-05
-9.32168e-05
6.59887e-05
-2.91619e-05
-4.70027e-05
-2.44309e-05
4.70529e-05
2.75606e-05
2.28106e-05
0.000206444
-0.000148573
-5.061e-05
0.000137925
-5.22586e-05
-8.56121e-05
-0.000300444
-9.82665e-05
-0.000145308
0.00024417
0.000124755
7.30846e-05
-0.000197648
-3.627e-05
4.56347e-05
-0.000154765
0.00022817
-6.6749e-05
0.000223921
-0.000175822
1.1881e-05
-3.52492e-05
3.69129e-05
-2.22261e-05
-0.000198438
0.00019406
4.51396e-06
8.17449e-05
0.000175372
-0.000157856
0.000140107
1.7822e-05
-0.000169482
6.28063e-05
5.38361e-05
-1.85597e-06
-5.19799e-05
-4.93374e-05
2.77091e-05
-5.84056e-05
-0.000181191
0.000241993
0.00025473
-0.000249963
-4.42711e-06
4.83729e-05
-0.000190599
5.91523e-05
-4.95572e-05
-9.595e-06
-3.64702e-05
-9.49345e-06
6.17366e-05
-5.24551e-05
-9.2814e-06
2.69914e-05
-7.59608e-05
8.43284e-05
-6.42316e-05
-2.00949e-05
2.68634e-05
-7.03117e-05
4.34495e-05
0.000171799
0.000115314
-0.000194892
0.000256929
-5.05174e-05
0.000267577
0.000192756
-0.00024139
4.88498e-05
-0.000197952
0.000148966
0.000233758
6.30591e-05
-6.44594e-05
1.40097e-06
1.07734e-05
4.19174e-05
-4.00436e-05
0.000222027
0.000104111
-7.20101e-05
-3.20994e-05
-0.000168713
0.000110809
6.6306e-05
-0.000180287
-4.66926e-05
-0.000128726
0.000140102
0.000113317
0.00012161
0.000163205
0.000179793
7.80085e-05
6.10065e-05
-2.70643e-05
-3.74593e-05
5.16798e-05
-8.78155e-05
-8.71681e-07
8.871e-05
-4.42285e-05
-3.37462e-06
-3.54301e-05
0.000106393
2.04268e-05
-4.69084e-05
7.80102e-05
2.13605e-05
1.33735e-05
4.45634e-05
5.87142e-05
-5.0982e-05
-7.732e-06
-5.76908e-05
0.000134842
-5.6894e-05
4.46872e-07
-4.97191e-06
8.522e-05
-4.18134e-05
4.42457e-05
0.00021957
4.43485e-05
-0.000262261
0.000223153
0.000170143
3.81356e-05
-0.000203792
0.000188115
4.75963e-05
3.99023e-05
-8.74972e-05
-7.48002e-05
-1.89083e-05
3.85533e-05
-1.99325e-05
-9.89638e-05
0.000125016
-2.60326e-05
-0.000141405
3.2744e-05
0.00011586
9.67209e-05
4.37975e-05
-0.000140592
6.94011e-05
8.9911e-06
2.75522e-05
-3.44841e-05
-4.45359e-05
-1.45611e-05
5.90982e-05
0.000240275
-8.43671e-07
-0.000238121
-2.11633e-05
1.69802e-05
8.95213e-05
-0.000193341
0.000258581
-6.04626e-05
-8.9981e-05
1.65281e-05
7.34581e-05
-6.4632e-05
3.5418e-05
-8.68424e-05
0.000251533
-0.00016417
5.15665e-05
0.000178088
-0.000228977
1.39969e-05
-0.000267464
5.7147e-05
4.73728e-05
-0.00010451
-0.00014366
-9.40891e-05
-0.000207264
0.00012263
8.49502e-05
7.08741e-05
-8.42179e-05
1.33455e-05
0.000264816
-0.000241789
-2.29803e-05
-5.71227e-05
3.66952e-05
2.04275e-05
-0.000206386
0.000287233
-7.98459e-05
-5.28923e-05
4.45438e-05
-0.000126455
0.00020438
-7.75382e-05
-9.30842e-05
-5.10321e-06
9.82069e-05
-0.000257845
8.23971e-06
0.000251314
0.000135099
-6.91498e-05
-6.59132e-05
3.71539e-05
-0.000165809
-4.52895e-05
0.000160812
0.000152777
-0.000239115
-8.70543e-06
-4.84171e-05
0.000207744
0.000121744
4.29978e-05
-4.20358e-05
-9.61952e-07
3.88723e-05
1.97374e-06
-4.0846e-05
-9.94709e-05
0.000219413
-1.28784e-05
1.7642e-05
0.000111688
-0.00019769
-0.000146424
0.000218535
-6.73856e-05
-9.7461e-06
4.74469e-05
-0.000290422
5.07696e-06
-4.77712e-06
-4.81151e-05
-3.79882e-05
-1.47026e-05
-0.000141231
2.02865e-05
-5.40424e-05
3.09936e-05
2.30489e-05
-2.4406e-05
5.21381e-05
0.000230423
-0.00029037
6.14334e-05
3.7731e-05
4.05396e-05
1.81746e-05
0.00011449
2.51021e-05
-0.000254317
0.00019475
6.13044e-05
-0.000247681
-3.70391e-05
-0.000207714
-0.000228716
5.95011e-05
0.00016983
7.36067e-05
5.13691e-05
-0.000124962
-3.76575e-05
5.9463e-05
-2.18054e-05
7.68549e-05
0.000140665
-0.000217297
3.80676e-05
-4.53721e-05
3.88878e-05
8.20493e-05
-2.41468e-05
-5.78999e-05
-1.39732e-05
0.000115057
-0.00010107
-0.000157436
-5.49771e-05
0.000213387
-2.59875e-05
4.21159e-05
-1.61284e-05
-2.94013e-05
-0.000126461
-3.13293e-05
3.86883e-05
-0.000294902
5.52574e-05
-0.000272428
0.0002175
5.64239e-05
-5.29875e-05
-3.43627e-06
0.000227795
1.47146e-05
3.72724e-05
-6.11133e-05
-9.71404e-06
-2.02482e-05
3.09495e-05
-0.000126245
-6.61426e-05
-5.13322e-05
5.90904e-05
2.8694e-06
-0.000137353
-4.30001e-05
-3.61291e-05
-0.000112056
0.00014835
1.34755e-05
-0.000145834
0.00020881
-0.000165365
-3.63911e-05
-5.35e-05
-0.000174549
2.67995e-05
2.33421e-05
-5.01416e-05
5.76546e-05
-3.29664e-05
-2.32269e-05
0.000152736
2.23409e-05
2.74368e-05
0.000242432
-0.000186891
-0.000281274
4.70417e-05
-7.02003e-05
0.00013642
3.83718e-05
1.53521e-05
-5.37238e-05
0.000139553
3.1228e-05
-0.000170644
5.18204e-05
-7.84243e-06
-4.39779e-05
-3.33486e-07
-0.000194251
-0.000259648
0.000129347
0.00010986
5.00428e-06
4.25924e-05
-5.88711e-05
4.65956e-05
-1.60865e-05
-3.77059e-05
5.37924e-05
1.98939e-05
-3.01935e-05
0.000128286
-0.000218747
-4.8429e-05
2.48523e-05
2.69681e-05
0.000103817
-0.000282465
0.00018162
3.01543e-05
-7.46889e-05
-4.9096e-05
-5.38613e-05
4.41152e-05
7.98035e-05
-5.01502e-05
-2.7327e-05
-9.80935e-05
8.70636e-05
1.94636e-05
3.60437e-05
4.82862e-05
0.000114765
-0.000245109
0.000131252
-1.87247e-05
4.55241e-05
-0.000257456
5.0392e-05
-3.63584e-05
5.09524e-05
-2.45355e-05
0.000265302
-0.000198675
0.00015275
2.27917e-05
1.94111e-05
-6.5042e-05
-1.47184e-05
5.26121e-05
-3.78937e-05
0.000134902
7.48475e-05
0.000203034
-0.000250736
4.84431e-05
0.000127354
0.000155718
0.00023298
0.000182287
-0.000234606
-2.68387e-05
7.64777e-06
1.92203e-05
7.33969e-05
-9.26068e-05
3.08659e-05
0.000169715
-0.000200102
6.46771e-05
-4.82763e-05
-1.64005e-05
-0.000251781
0.000114356
0.000137685
4.14708e-05
1.76816e-05
0.00022041
-0.000260237
4.13235e-05
-0.000193101
-6.38389e-06
0.000203745
7.46929e-05
-1.76123e-05
-5.70789e-05
-5.48724e-05
3.26215e-05
2.2251e-05
6.06485e-05
-9.84009e-06
-5.0808e-05
-0.000145926
0.000256115
-0.000109698
1.9821e-05
-4.93288e-05
0.000265086
-4.32222e-05
-5.80873e-05
2.41081e-05
3.39792e-05
0.000152593
-8.26844e-05
9.18642e-05
-9.17374e-06
-0.000237021
-4.36574e-05
3.4592e-05
-5.90228e-05
-0.000292108
0.000230974
6.28131e-05
0.000114522
-0.000150487
-0.000192577
0.000193702
-4.6883e-05
-0.000225561
0.00027367
3.99171e-05
-4.26753e-05
-4.7471e-05
-8.44592e-06
7.60228e-05
-6.06462e-05
-1.5375e-05
-5.09683e-05
3.03192e-05
2.06492e-05
-0.000101329
8.73672e-05
9.62666e-05
0.000107235
-0.000203241
0.00012053
0.000108434
2.83538e-05
-0.000197733
0.000173561
4.52835e-05
-0.00021073
5.61389e-05
0.000117151
-0.000155514
-9.64816e-05
6.50664e-06
-7.57412e-05
-0.000198747
2.44437e-06
3.01912e-05
-3.26355e-05
0.000123387
-9.18138e-05