/*--------------------------------*- C++ -*----------------------------------*\
| =========                 |                                                 |
| \\      /  F ield         | OpenFOAM: The Open Source CFD Toolbox           |
|  \\    /   O peration     | Version:  v2012                                 |
|   \\  /    A nd           | Website:  www.openfoam.com                      |
|    \\/     M anipulation  |                                                 |
\*---------------------------------------------------------------------------*/
FoamFile
{
    version     2.0;
    format      ascii;
    class       volScalarField;
    location    "850";
    object      ddt0(k);
}
// * * * * * * * * * * * * * * * * * * * * * * * * * * * * * * * * * * * * * //

dimensions      [0 2 -3 0 0 0 0];


internalField   nonuniform List<scalar> 
18355
(
6.7149e-05
2.27161e-08
-6.44177e-06
-3.33909e-09
0.000103751
0.0034364
-5.88805e-07
6.08801e-05
-1.12694e-08
0.00118646
-2.01415e-06
-6.24622e-06
-6.54596e-06
0.00623925
-7.73298e-09
4.19549e-08
-6.11708e-09
-8.12851e-07
-4.59233e-06
5.08844e-07
-0.00651653
-5.57574e-08
6.78658e-09
0.00517781
5.25874e-09
-7.68373e-07
-5.30817e-07
7.59272e-09
-1.3915e-08
-2.04559e-06
-0.00267404
4.54565e-06
7.68972e-08
-1.40361e-08
-3.21094e-08
5.4188e-07
4.76842e-07
5.25439e-07
-2.08952e-06
-2.83121e-07
-1.03409e-08
-2.05044e-06
-7.55156e-09
1.76622e-08
2.07311e-08
1.00968e-05
-8.5787e-09
-1.193e-08
-0.000143543
1.76833e-07
-3.49259e-08
0.00456052
2.12413e-07
-4.28584e-06
-1.1961e-08
5.07104e-07
-8.30798e-08
0.0311232
-7.63613e-07
0.020483
-1.0477e-08
-3.58805e-06
-3.25094e-06
1.51587e-08
7.45758e-06
-1.86396e-08
2.64533e-07
5.01747e-07
-2.76834e-08
4.9364e-05
-8.69907e-08
-1.34662e-08
2.35862e-06
-8.25281e-07
-0.000563858
-2.80623e-08
0.0243205
-2.88254e-08
-9.8031e-08
-0.000620387
2.03231e-07
-0.000149428
-2.96113e-08
4.31559e-07
2.7299e-06
-2.25423e-08
-2.95485e-08
1.83497e-06
-1.35199e-08
1.90491e-06
0.00603205
-0.00652637
0.00135534
1.15946e-07
-0.00378386
-1.79534e-07
-2.56252e-08
-2.41946e-07
-2.86529e-07
-1.15408e-07
2.68143e-06
-6.99571e-08
8.88795e-08
-5.56137e-09
2.50212e-07
4.43328e-08
7.5527e-06
-0.00213339
1.08564e-06
2.42812e-08
-6.2124e-08
-3.34475e-08
-1.21592e-06
3.73833e-07
0.000393672
7.35565e-07
-7.95953e-08
-0.000972814
9.95831e-09
1.89923e-07
-6.3599e-05
-7.88788e-06
0.00494307
1.98455e-06
-0.00119412
0.000283498
-5.95739e-07
-5.71901e-09
-0.000154767
-5.90721e-08
-2.81777e-08
0.00334782
-5.71487e-08
-1.76845e-06
9.38006e-07
1.53886e-08
-3.99746e-06
1.58531e-05
-8.3528e-09
-0.00727277
4.61967e-07
1.21343e-06
-3.32762e-08
0.0115751
1.33872e-06
-1.48419e-08
0.0243413
1.61623e-08
-1.42472e-06
0.00188952
6.0599e-09
2.09716e-07
-3.28265e-07
2.5993e-06
-3.02296e-09
4.60517e-09
-6.81669e-09
-1.83166e-08
-3.38647e-08
6.35938e-09
-1.2157e-06
-5.88283e-08
2.97072e-08
-1.14571e-05
-1.22721e-06
0.000373014
0.0220976
-0.0179502
-0.0185951
4.58149e-07
1.36944e-09
-1.33274e-06
1.20891e-08
0.00333388
-5.33207e-08
-1.43095e-08
-2.92354e-08
-8.73846e-09
1.51695e-07
1.30392e-06
-1.51809e-08
0.000226496
-7.00957e-08
1.56459e-08
7.90832e-05
5.31954e-08
5.53507e-08
2.08668e-06
7.25359e-09
-4.83353e-07
4.53416e-05
-3.88307e-07
3.2749e-08
-1.7238e-08
5.84537e-10
0.000561492
-2.2394e-08
-0.0157507
2.62598e-08
0.00541243
2.10282e-08
-1.99106e-07
-2.08704e-06
7.16364e-09
-0.00184955
-1.43847e-08
-0.0185007
1.50528e-08
5.83603e-08
-1.67797e-07
-1.3969e-07
0.000999109
1.80623e-07
-4.63357e-08
1.05715e-09
0.010588
1.30795e-06
3.37238e-07
-3.57655e-08
-1.93767e-08
1.06272e-06
3.41546e-08
1.67703e-06
4.17894e-06
1.37414e-06
-1.80016e-07
2.03182e-08
0.000360157
-4.74355e-05
2.83155e-06
-4.74817e-08
2.57813e-07
0.000183885
3.24741e-08
-6.99716e-06
-1.31741e-05
6.71063e-08
0.000107816
2.1845e-07
-5.23782e-08
3.25061e-08
1.35179e-07
-3.33762e-07
2.39921e-06
-1.51994e-08
-6.97958e-09
-3.71479e-09
0.000722622
0.00431128
-1.67219e-07
-1.88482e-07
0.00322196
-7.10298e-06
4.5427e-06
-6.5643e-09
3.54142e-06
2.27065e-07
-2.37294e-08
-4.48222e-07
4.57976e-10
0.00172977
-0.000726963
-2.15045e-07
1.69964e-07
-2.12904e-06
-5.33207e-07
-2.45364e-05
-3.18956e-07
4.39622e-09
-7.88481e-09
-2.57189e-07
1.95454e-08
-1.24127e-07
3.33507e-07
-3.43175e-09
-1.17334e-07
-1.07826e-06
1.58023e-08
1.75442e-06
0.00232502
-8.11263e-07
-1.44379e-07
4.97446e-07
1.62252e-08
1.6511e-06
1.5072e-08
1.59411e-06
-6.62949e-09
1.4336e-06
0.00155981
7.44606e-08
-1.56224e-07
6.66486e-08
-9.66472e-07
-2.2887e-05
-5.97367e-09
-1.44227e-08
2.48093e-06
-1.21287e-07
7.69845e-06
4.37903e-07
-0.00304221
1.40021e-06
-2.18954e-07
-4.15164e-07
9.54463e-08
1.86111e-07
2.0834e-07
1.76095e-07
-1.23835e-07
1.33216e-05
-4.14453e-06
5.33263e-09
1.81254e-06
-2.76662e-06
6.22232e-07
5.66242e-09
-1.67776e-08
3.61172e-09
-9.43452e-07
-3.78388e-06
0.000287715
1.11419e-05
-1.55738e-06
4.05704e-07
0.000912752
2.21657e-08
2.02937e-11
4.02372e-07
2.58556e-09
2.60308e-06
-4.42136e-08
0.00419788
4.86921e-08
-0.00168663
-1.03617e-08
-2.61426e-07
-3.5538e-07
-7.4175e-06
-0.0417557
2.28318e-06
4.92673e-05
-2.57359e-07
-1.45803e-08
1.92064e-09
-9.25471e-07
0.00138203
-2.62888e-08
3.22189e-09
0.000722949
-2.01034e-07
-1.59641e-08
-7.35349e-06
-5.46997e-07
5.32669e-10
-1.02795e-07
1.75434e-06
-3.2543e-08
1.7818e-06
9.40214e-08
3.67851e-09
-1.24057e-07
0.0211882
0.000229228
8.21182e-08
-3.01201e-08
-5.44527e-06
6.5184e-09
3.67039e-08
0.00118306
0.000293581
-1.27464e-06
-6.7047e-09
7.64404e-08
-7.07501e-06
7.02859e-07
4.43551e-06
2.05194e-07
6.77682e-08
1.46507e-07
3.1883e-05
-1.15201e-07
2.4216e-09
-9.46094e-07
1.92892e-08
-1.30829e-06
1.49419e-09
3.9613e-06
-2.77058e-07
1.78796e-07
-2.68982e-08
3.43855e-09
-4.21716e-08
-4.73921e-07
-1.70713e-06
0.0328127
0.000439798
-5.21478e-07
-7.29869e-06
8.27053e-06
-9.43942e-09
-6.13653e-08
-6.3235e-08
8.63467e-09
-3.2493e-06
-5.20811e-07
-1.20995e-06
0.00118386
4.63665e-06
-0.0392871
1.9381e-07
-9.17317e-09
0.0034661
-9.5885e-08
-5.79871e-09
-0.00673254
-6.7423e-09
9.58381e-08
3.62493e-07
9.03479e-06
-6.28212e-09
-1.43469e-06
0.000811681
-2.03516e-07
5.49309e-09
2.94005e-08
-3.3401e-07
5.84021e-08
-8.97447e-08
0.00082947
-0.000173538
-7.91806e-09
-8.65549e-08
-1.87461e-06
2.97213e-08
-4.34352e-07
2.03913e-06
0.0117656
1.0242e-06
-2.1618e-07
2.34023e-07
6.50965e-08
1.25124e-08
-1.49666e-08
-1.47381e-07
2.81259e-06
0.0340313
6.24868e-08
-1.13052e-08
-1.99986e-08
-8.22876e-06
1.83844e-05
1.77643e-08
-5.54264e-09
1.60056e-06
3.14231e-08
0.000877059
-3.44853e-06
-6.61462e-08
2.30562e-08
1.03332e-06
-8.22063e-06
0.0021671
4.73459e-08
-0.0284539
-4.25787e-09
5.18252e-08
1.52002e-06
1.41127e-07
1.82875e-06
2.57647e-06
2.05709e-07
-8.75195e-07
-3.61818e-08
-7.60343e-06
6.56863e-08
1.71104e-07
-1.83863e-07
3.29176e-08
5.0778e-08
3.75644e-08
-3.22279e-06
0.0353376
9.26187e-06
-9.43562e-07
-8.1116e-08
-1.9978e-07
-2.29795e-07
-5.73435e-07
-2.06163e-07
-9.77563e-09
1.1763e-08
1.5734e-06
3.76422e-08
-2.60508e-07
-0.0621694
-0.0117928
-2.72233e-06
-5.02523e-08
-1.84337e-08
1.98669e-06
-6.49738e-08
0.00192814
-3.33543e-06
1.39113e-06
5.29829e-07
-2.94647e-07
4.59351e-08
2.87183e-07
0.00854944
1.66633e-06
2.83469e-07
0.00138247
-6.26053e-09
-0.04767
0.00230258
2.13307e-07
-3.89599e-07
0.00586089
-7.81193e-10
-1.21697e-06
4.16396e-06
-0.00228821
1.37368e-08
4.83119e-08
3.36099e-08
-0.000128384
0.00537006
-0.00218339
-0.000224968
-2.6766e-07
3.3381e-08
4.44873e-07
-3.47076e-09
1.49179e-06
-0.00824589
0.0145584
0.0317807
0.00210179
2.98365e-06
4.63098e-06
-1.70222e-06
-3.65457e-09
-1.40227e-08
2.76391e-06
6.11515e-07
1.70449e-08
-3.37114e-09
-0.00208748
-1.94546e-08
0.00155117
2.00008e-06
-2.51187e-06
-7.17894e-06
-1.86204e-08
4.04719e-07
0.000287948
1.28871e-08
0.0326222
1.38974e-09
-0.00159186
1.79413e-06
-9.85049e-09
-1.85264e-06
-5.02817e-07
2.97127e-07
4.96453e-09
-2.57955e-08
1.57942e-07
2.12318e-07
-2.40343e-06
6.34066e-09
-3.60954e-06
-1.422e-08
-1.03477e-05
-5.64812e-08
-1.47061e-08
-8.7596e-06
6.79838e-07
-1.46909e-05
-5.45829e-08
6.72958e-07
4.2097e-07
0.00314639
0.000495253
3.40495e-07
-5.59415e-07
-1.64212e-08
8.23518e-07
-1.53045e-07
3.24018e-07
-0.00285037
1.72175e-08
0.000428842
-1.48808e-07
2.21743e-09
3.9123e-07
0.00155592
1.79923e-07
2.52435e-06
-2.12466e-08
-1.46961e-07
0.000740098
2.21362e-08
-7.54059e-10
-0.00174616
2.05034e-06
-0.030641
3.45446e-06
-2.00112e-07
-3.29236e-10
-1.13433e-07
-9.00685e-07
-3.21575e-07
1.50608e-07
-5.90904e-06
0.00134983
8.94619e-09
0.00387126
0.00628876
-1.88208e-06
-8.03061e-06
-1.75483e-08
-6.67021e-05
-3.47218e-05
3.51062e-09
0.000841063
9.73225e-09
0.0065238
0.00278028
-1.65069e-08
-1.33299e-07
3.03954e-08
0.000256848
-9.18917e-07
4.35188e-08
6.82172e-08
-7.02759e-06
-8.84706e-08
-7.62564e-08
-1.3413e-07
3.39874e-08
0.0118414
2.91293e-06
-3.74419e-05
-0.000414512
2.19695e-06
0.0415464
4.69022e-07
-3.78176e-08
9.48106e-07
0.00203221
2.294e-06
-8.79768e-07
2.69644e-08
-3.90988e-05
-1.94428e-08
-2.34815e-07
-2.21922e-06
2.92806e-08
1.16212e-06
-1.1201e-05
3.54433e-06
-1.14146e-08
-7.14637e-09
3.80459e-07
7.52554e-07
5.32827e-08
-1.35693e-07
-2.2023e-06
-4.95931e-06
1.80072e-07
-1.59459e-08
1.90274e-06
0.000813789
4.45851e-08
-0.000335485
0.000858314
3.14673e-08
-0.020881
6.30797e-08
-1.1533e-05
1.69854e-08
4.31794e-07
-8.15336e-06
-9.29266e-09
0.0171414
1.5166e-07
-6.51744e-09
-0.0145168
1.60565e-08
1.51427e-08
-1.49984e-08
-3.89409e-08
1.17137e-06
1.72523e-06
-0.0279484
3.25777e-08
0.0308508
-1.16719e-06
-0.000144117
0.00490924
-4.51371e-07
-5.47162e-09
6.10205e-07
4.80328e-08
-4.44074e-06
-3.76539e-08
-1.84677e-09
-5.06582e-08
3.65174e-08
1.36753e-08
-7.48132e-06
-1.13658e-06
-1.42567e-07
4.91423e-07
1.73774e-06
-1.24228e-06
5.61848e-08
-0.000696554
3.85436e-08
-3.42068e-06
2.1163e-06
1.68396e-08
0.0137036
0.00990145
1.15623e-08
-3.09972e-05
-4.31784e-08
0.000398927
-1.3073e-07
-1.01341e-08
1.32696e-07
8.14811e-07
-0.000204276
1.03847e-08
2.14029e-07
0.00022992
3.43562e-06
0.000136501
1.41294e-08
0.00023665
-3.14893e-06
4.03049e-06
7.67268e-09
1.73027e-07
4.47853e-08
-9.68275e-08
1.72341e-08
-2.99195e-08
1.62545e-08
-9.24216e-05
-1.0635e-06
-5.3083e-09
-1.66247e-08
-4.05874e-08
-2.23664e-07
5.35188e-06
-3.0408e-06
6.22223e-08
7.86454e-07
-9.14282e-08
-8.36729e-08
-1.85725e-07
-3.15324e-08
4.91509e-06
-2.3283e-08
-3.269e-08
4.73341e-08
-6.1321e-08
5.66441e-07
9.35809e-07
8.24409e-05
-0.00415062
3.63278e-07
-2.85087e-08
-8.08326e-06
-3.58365e-09
-1.98713e-08
1.02795e-06
7.50485e-05
-1.14848e-06
6.20695e-07
-5.13454e-08
3.03896e-08
-1.10534e-06
-2.65652e-08
-8.62491e-07
-3.54789e-08
-1.09024e-07
2.23171e-08
1.63489e-07
0.00327182
-3.92459e-08
-3.88052e-08
7.98554e-09
-1.9624e-06
-0.00312822
2.83435e-07
-3.31039e-07
8.65227e-06
1.91721e-06
3.66146e-06
0.0121797
-1.05175e-08
-0.00145934
-3.6076e-08
0.000166748
6.18284e-07
5.77243e-08
-1.58906e-08
-0.00602442
-9.07046e-09
2.67081e-07
-4.87472e-07
-7.78241e-06
2.71308e-06
4.59709e-08
-8.84171e-09
-7.29154e-09
4.27612e-08
1.45261e-07
-2.777e-06
0.00423374
4.51685e-07
-1.38046e-08
-2.73299e-08
-8.55293e-08
2.79401e-08
-4.17597e-08
1.90776e-08
-1.19898e-07
-1.5698e-06
0.00155871
-1.94927e-08
1.09929e-08
-2.0099e-06
2.78673e-10
-7.17979e-06
3.47306e-07
2.04468e-06
-4.72888e-06
0.0207725
-2.00286e-06
-1.81021e-08
-2.94641e-08
4.59752e-08
-2.09248e-08
0.000129973
-8.12468e-07
-4.88275e-06
6.11701e-08
-4.03583e-08
-1.29889e-06
-4.54956e-08
0.0128944
-7.26504e-05
-2.63735e-08
3.2894e-09
1.75489e-08
2.63583e-08
-3.76933e-08
-7.27578e-08
-6.27747e-06
-2.93928e-08
3.73558e-07
4.91997e-08
-1.80771e-08
1.11672e-08
-9.42192e-08
-4.4673e-07
-1.83317e-08
8.61678e-07
-4.93678e-08
0.000363887
-7.70504e-06
-4.72843e-07
1.38087e-05
-9.39879e-07
5.99907e-08
-1.70341e-06
0.000328622
-2.09071e-08
8.66866e-09
4.24144e-09
-2.54172e-06
4.5317e-08
-2.09306e-06
5.69048e-05
-1.17024e-07
-7.48581e-08
-1.86251e-08
7.76061e-05
0.000168429
3.92857e-08
1.89357e-09
5.1408e-07
1.34466e-06
5.07235e-09
-3.24735e-08
-8.46742e-09
4.25848e-08
3.73921e-07
-0.00195433
-0.000481227
0.000159661
-6.88334e-06
-2.88776e-08
1.29654e-05
1.26719e-05
6.83417e-07
5.44458e-08
1.32859e-05
1.43214e-06
-3.75561e-06
-0.00170434
-4.97741e-08
-3.64324e-08
-1.22202e-08
5.93128e-07
-2.78075e-08
4.59725e-06
0.000758826
8.23117e-09
-1.33989e-07
-2.72462e-07
-5.28085e-08
6.43272e-08
6.16223e-08
3.55943e-06
-1.47848e-07
1.55041e-07
2.82733e-05
-2.20326e-06
-2.58699e-06
-2.31934e-08
4.68127e-08
1.13071e-08
-2.94814e-07
4.00473e-08
4.3867e-06
1.66373e-09
-1.99828e-09
-1.77427e-07
-0.00102122
1.7654e-08
4.41091e-10
4.34683e-07
-2.82518e-08
1.10886e-08
1.68291e-08
-0.00172486
4.81196e-08
7.93073e-09
2.12093e-08
4.24259e-06
4.04326e-08
6.04003e-07
-7.23893e-06
2.62529e-09
-7.39144e-06
7.90979e-07
-1.10563e-05
-9.53408e-08
2.39755e-09
6.75447e-07
4.09595e-08
1.21812e-08
1.99959e-09
0.00140912
0.00149628
-1.69032e-05
4.58129e-07
0.00147935
-2.07394e-06
-3.86913e-07
-2.29243e-06
-1.6479e-05
6.58121e-07
8.97848e-08
0.00133917
1.05432e-07
6.7808e-09
-1.32377e-08
-1.2338e-05
0.00219246
-0.0146123
1.40679e-08
-3.64898e-06
-0.000518297
1.64916e-07
-1.65245e-06
-6.68006e-07
-1.25077e-06
-5.01964e-08
0.00052799
-8.11998e-07
1.10628e-07
-1.85242e-06
0.011813
-8.6509e-06
6.70118e-08
-3.22125e-08
-1.30076e-07
0.00450563
-3.17849e-07
-3.32399e-07
0.00144749
5.99684e-07
-2.22326e-06
-7.56771e-07
0.00168152
3.30199e-09
6.42989e-06
3.61533e-08
-9.50343e-09
-2.47445e-08
-9.5116e-08
-2.28468e-10
-1.38182e-08
-1.27053e-07
-3.11701e-06
-7.89698e-09
1.17616e-07
4.1753e-07
4.02402e-08
8.8185e-09
-2.21255e-06
5.16679e-08
-1.09527e-07
-1.199e-06
-0.00539119
-6.59931e-06
7.24492e-08
-9.87443e-09
5.51558e-05
1.14606e-09
1.44684e-06
-5.69584e-09
-0.00509463
-1.79386e-06
8.46634e-05
8.35097e-07
-6.38001e-08
-2.8123e-06
0.0260389
-9.08715e-05
-1.72063e-08
1.4973e-08
-2.64238e-07
-0.000840194
-3.81499e-09
2.77158e-07
9.7384e-07
-1.10192e-06
-1.07013e-09
1.49768e-09
-6.20345e-07
3.71286e-08
7.38093e-08
-2.15203e-06
3.04176e-06
1.41406e-06
-6.79187e-06
0.000707875
3.4177e-08
0.000514197
9.74881e-09
-4.95934e-06
0.00529368
-7.39229e-06
1.96771e-08
-4.22869e-08
-1.07708e-08
0.000938601
-4.17219e-08
-4.9284e-09
-3.64649e-06
-1.16888e-07
4.20742e-09
-2.93717e-08
3.93484e-08
-3.53537e-08
0.00100086
0.000316879
-1.11491e-06
1.29301e-08
4.09065e-09
-2.54676e-05
1.56057e-08
1.84263e-05
-6.24513e-08
-3.66351e-09
7.62867e-08
1.59635e-06
-4.09976e-06
8.79382e-07
2.62362e-08
-0.00301404
-1.54483e-07
1.41298e-08
-2.3675e-07
0.00705027
0.000767349
2.03042e-08
-1.53267e-07
0.00490978
0.00179668
-0.00124174
-8.73317e-07
-2.99229e-08
-9.6534e-06
8.8803e-08
6.77514e-06
-8.24129e-07
0.000608609
-1.3191e-07
7.85864e-10
6.13118e-07
-2.88435e-08
0.000582275
2.62407e-08
3.55937e-08
-0.00355125
6.47094e-06
4.8792e-05
-4.01126e-08
4.87818e-08
9.60504e-09
-1.57096e-09
1.03422e-08
3.33621e-07
-1.10119e-08
-2.43622e-07
-3.13271e-08
-1.4276e-07
4.69853e-07
-1.1553e-06
-6.33648e-08
5.76738e-08
-9.59191e-07
3.05521e-08
0.00183983
-5.44353e-08
4.25019e-07
2.18493e-08
-9.50478e-09
-2.15402e-07
5.63381e-07
-1.05942e-07
-3.43934e-08
-6.1957e-08
2.35301e-08
0.00105842
-0.000421508
-1.46032e-07
0.000957063
2.30086e-07
-1.75547e-08
4.8447e-08
4.4302e-08
0.000191385
2.69609e-07
1.20374e-08
2.41445e-09
-9.29736e-10
-0.00707867
7.64756e-08
7.15477e-08
-7.01606e-06
-3.01464e-08
-1.57787e-09
-6.90596e-07
2.47198e-06
1.76103e-05
-6.40687e-06
-0.0360657
-1.6947e-08
-0.00325376
5.29914e-07
-4.66261e-08
1.91241e-08
4.88862e-07
-1.67814e-08
1.26431e-06
-2.07699e-07
-8.26432e-07
5.79038e-08
-1.64203e-06
6.9825e-06
-0.0447797
-1.70452e-05
-0.00225936
5.36943e-06
-9.56782e-08
-3.32922e-06
-0.00582422
5.38917e-10
-0.00363649
1.29047e-08
8.82649e-08
-6.85465e-06
-1.62392e-08
-0.00018901
6.67226e-07
9.50002e-08
-6.76202e-07
-7.87992e-06
2.30548e-08
9.84999e-06
-3.61413e-08
-5.58367e-08
0.0013407
-1.6988e-09
-1.13896e-07
5.20762e-08
-5.00081e-08
-2.4427e-08
-5.10691e-09
1.15152e-07
0.000192473
-1.31747e-07
8.15719e-08
-5.9593e-08
3.21032e-07
-3.34068e-08
9.15147e-08
0.000140236
-5.89236e-08
2.3927e-07
-3.98355e-08
1.52916e-06
-5.08346e-07
-1.21349e-08
6.2618e-08
-4.27902e-06
-1.08286e-07
3.80707e-07
1.45063e-06
0.00162362
-1.83589e-07
-1.39614e-08
-2.94856e-09
8.13643e-07
2.25567e-05
-6.31733e-07
1.21001e-09
-5.45377e-08
-1.81449e-08
-1.51646e-08
4.10366e-08
-2.07206e-06
-8.7004e-07
-1.35909e-07
-9.46296e-08
0.00627852
5.47739e-08
-1.42376e-06
0.00367284
-8.01033e-07
4.6666e-08
-3.97804e-07
-2.89383e-06
1.09575e-09
0.00233489
-2.73623e-07
1.57108e-06
1.78108e-08
-4.34133e-06
6.25249e-08
6.16543e-08
3.26186e-08
7.15602e-05
1.28721e-05
-1.1551e-07
-0.000199284
3.90782e-08
7.4191e-08
1.31078e-08
-7.37446e-06
5.21561e-09
-5.89337e-09
1.90633e-06
3.17318e-08
-1.48463e-08
-8.00675e-08
1.40641e-08
2.76981e-07
-1.34812e-07
2.69361e-08
-9.24973e-07
-3.5889e-08
0.00150042
-1.25101e-06
-5.57534e-08
0.000407516
4.1886e-07
-3.62661e-08
7.5153e-08
5.19524e-08
-1.01163e-08
3.28832e-07
2.3318e-07
-2.14934e-05
-3.7533e-05
-1.61656e-07
-2.92528e-06
-6.52629e-06
-4.4851e-08
-4.35712e-07
-2.59033e-06
4.42928e-07
0.00181433
3.96089e-08
-1.65907e-07
6.30315e-07
1.33108e-06
3.30889e-07
2.45132e-07
-1.0129e-08
2.66096e-06
5.20341e-08
8.35978e-07
-1.09856e-07
-6.01264e-06
-2.51581e-09
2.09647e-07
-1.06133e-06
-2.33294e-07
-0.000644991
0.000333257
-9.80299e-08
-5.84335e-07
1.13059e-06
-9.17121e-10
4.53056e-06
-8.18341e-08
8.27811e-07
0.000584465
0.00159359
-4.4016e-06
3.28549e-06
8.60674e-07
1.33277e-07
1.42608e-06
1.0678e-09
0.000205043
7.59877e-07
-2.41282e-08
3.11798e-09
0.00021166
2.99711e-06
-4.25732e-08
-3.14232e-08
0.00357151
2.44386e-08
-8.69493e-09
-0.0105962
-1.33222e-06
-1.95451e-09
1.86451e-05
-2.75366e-08
-1.93838e-05
-1.37965e-06
-2.2283e-08
7.86854e-09
-9.10759e-07
-0.00622629
4.26644e-08
6.76507e-07
1.47854e-09
-1.61403e-08
-9.13491e-09
0.00421661
-1.70095e-08
-2.40286e-07
1.48407e-07
-2.84612e-05
6.86959e-07
4.74188e-08
-8.05128e-09
-4.66792e-06
-1.93612e-08
7.72974e-09
-0.00412463
0.0239882
6.52243e-08
2.29759e-05
-6.93179e-07
-8.30344e-07
3.11284e-08
-9.72613e-07
-0.00450201
8.63785e-07
-1.40554e-06
8.09301e-08
3.90032e-07
-4.11442e-08
0.000884829
2.46084e-05
-9.45986e-09
-1.98092e-08
-2.99971e-08
-1.85322e-08
-6.77023e-05
-4.3322e-08
-6.75262e-07
1.22543e-07
-1.08478e-05
4.13729e-09
-4.01447e-08
2.38209e-07
-0.00443139
1.83338e-08
-2.80596e-07
-9.11658e-09
3.51336e-09
3.50522e-07
-8.53282e-07
6.27484e-08
1.28098e-08
-2.03424e-07
-3.62066e-08
7.15257e-08
0.0060684
-2.12748e-07
-1.00914e-07
2.21458e-08
-1.56945e-06
-7.76507e-09
6.34479e-09
9.39717e-07
1.05243e-07
6.67674e-06
8.14066e-08
2.31555e-08
0.000571234
-0.00305661
-0.0201153
1.30122e-05
-8.54608e-07
-5.15076e-07
0.000432757
1.07178e-07
2.09994e-07
-1.99657e-08
-0.0127613
-5.44582e-09
3.77481e-07
6.71096e-10
0.00857274
3.53542e-06
7.8686e-07
9.05051e-05
-1.13482e-07
6.15366e-06
3.08947e-08
-3.27691e-07
-0.000101319
2.50484e-07
-2.59039e-08
-2.67142e-08
2.90426e-07
7.74518e-07
-2.03793e-09
-2.21113e-07
1.07728e-07
-1.76497e-08
-2.66836e-06
0.00129953
-2.14759e-08
1.26493e-07
0.0187094
0.000971765
6.04703e-07
-8.35722e-08
2.04961e-07
2.22249e-07
-2.49657e-08
1.50411e-07
2.66606e-05
-2.18296e-08
-2.88685e-08
-1.60864e-08
-7.28856e-06
-4.46304e-06
5.30562e-07
-9.28837e-08
-2.94591e-07
8.77003e-07
1.35741e-08
7.07903e-07
2.13423e-06
9.93783e-05
-9.87253e-08
-0.000344841
1.06647e-08
-4.18948e-08
5.33691e-08
-6.63173e-08
1.85291e-08
-2.38257e-08
1.78194e-05
4.7613e-09
-0.00107388
-2.97252e-07
-7.06613e-09
-2.12984e-09
-3.4634e-05
-3.99471e-07
-6.43512e-07
2.11785e-06
-2.11174e-08
-3.43678e-05
4.10763e-06
-9.75808e-09
7.87812e-09
-0.00372848
2.83422e-06
4.55765e-09
4.28774e-08
7.91151e-08
1.162e-07
-8.15924e-06
5.16433e-05
1.80187e-06
6.0596e-07
-6.83179e-06
0.000762847
-8.1408e-08
-9.16995e-09
-5.30422e-06
2.89955e-07
0.000259682
-1.10795e-06
-3.54355e-09
-1.13739e-06
1.12417e-05
-0.00380788
1.76921e-05
-0.000298248
-8.27556e-09
5.14219e-08
-2.18362e-08
3.27011e-09
3.06009e-07
-5.38797e-08
2.69022e-08
7.88048e-09
2.20045e-07
-1.5895e-07
5.82871e-07
-1.04211e-08
1.31959e-07
-2.34144e-07
1.27017e-08
-1.18301e-08
-6.60181e-07
6.05914e-06
-2.07729e-08
-1.23417e-08
-6.21319e-06
6.39113e-07
9.41074e-07
-6.11347e-07
0.00307196
6.53149e-09
-1.74745e-07
8.82365e-07
-2.9545e-08
1.38581e-07
9.98945e-06
0.000405542
6.23323e-07
-3.01069e-07
-2.47788e-07
1.50448e-06
-2.5707e-08
1.09065e-06
-2.37068e-06
3.18599e-09
-2.74379e-06
-2.45618e-08
6.49872e-09
4.30817e-07
4.29759e-07
2.98782e-07
9.66389e-07
0.0076468
-1.19017e-05
-4.33679e-08
7.42016e-10
-9.51002e-08
1.23352e-08
5.82151e-08
-0.00150294
-4.06005e-09
2.25185e-08
1.31598e-08
-2.26182e-06
9.02002e-09
3.27481e-08
8.21799e-08
-7.16628e-06
5.28665e-09
-0.0502432
-6.13132e-09
7.53119e-07
-1.38552e-07
1.49458e-07
7.17202e-10
2.57732e-07
-0.000346576
-3.52884e-05
-3.75322e-08
-2.73713e-06
-1.08079e-08
-2.06527e-08
-0.000445084
-0.000282919
-2.68875e-08
-2.34497e-08
6.6858e-07
2.81081e-08
1.9142e-07
5.65207e-08
4.42274e-08
-2.69878e-07
-1.10152e-06
3.4901e-08
4.20082e-07
-3.93661e-05
-3.38043e-07
-3.48996e-09
-2.49006e-08
4.00021e-06
8.06225e-07
9.40014e-10
-0.00237575
7.36426e-08
0.00078276
-4.0329e-07
4.14417e-08
-3.46941e-08
-3.17267e-08
-4.53607e-05
1.90969e-07
-8.15135e-07
-1.08753e-07
4.86207e-07
0.000129116
8.90403e-07
-1.05903e-08
3.596e-08
-4.58831e-09
1.54678e-07
-4.05005e-08
8.49498e-07
7.03515e-09
2.90275e-06
3.55906e-08
-2.8267e-07
-0.00042021
1.7286e-07
0.000206835
4.95958e-09
-8.8576e-07
-3.54507e-07
-0.00187279
5.7143e-07
-0.00528162
-5.36808e-07
-2.91229e-08
-4.89948e-07
-1.54888e-08
-0.00108058
9.57661e-08
2.05714e-06
-3.58293e-07
2.27451e-05
-0.0567063
4.55911e-08
4.81917e-07
2.86713e-08
-1.02745e-08
5.85028e-08
-1.21989e-08
4.6934e-08
1.55876e-07
1.06411e-08
1.01746e-06
0.000144217
-0.00172712
-2.62352e-08
4.75861e-06
1.85439e-09
-3.54222e-08
-1.09946e-07
-4.09146e-06
9.71811e-08
0.00020973
7.76654e-09
2.52906e-07
-1.82817e-05
-3.15912e-08
-9.48047e-07
-6.4128e-08
-1.6804e-06
-0.00926459
9.9885e-07
0.00282959
-3.01211e-07
5.78739e-07
2.0046e-07
-1.12127e-08
2.8264e-07
2.11213e-06
-4.06739e-08
-2.05454e-08
1.63176e-07
5.05048e-09
0.000124698
-4.34521e-09
0.0243107
-1.21532e-05
-7.57624e-08
7.76697e-07
-3.21652e-08
1.68131e-06
-1.48089e-08
0.0363848
-3.32854e-08
7.20098e-06
-1.68886e-07
1.06492e-07
0.000532634
0.000952321
9.95462e-07
0.0069272
4.69865e-09
0.000113354
-7.82494e-09
-0.0182851
2.62548e-08
4.74032e-07
2.45442e-06
8.1658e-08
1.8071e-08
-6.0252e-08
9.30481e-08
-5.37429e-07
-0.00256911
1.61927e-06
-0.00186307
1.24803e-09
0.00409474
4.55839e-09
2.7267e-07
5.97827e-08
-6.43719e-08
-0.00019616
2.01608e-07
-2.28648e-08
-3.55106e-07
4.52526e-08
0.00272142
4.62546e-06
-1.9255e-08
9.81158e-05
8.34627e-07
3.11276e-08
3.24958e-08
-2.62409e-07
-2.83512e-08
-1.47411e-06
1.142e-06
-6.26816e-07
-4.99992e-08
2.88929e-08
-1.59958e-08
-1.46349e-06
-3.37537e-07
3.3643e-08
1.12731e-07
3.08824e-08
-4.5986e-08
-0.0621349
9.81063e-07
0.0360301
5.09397e-07
-1.26156e-06
-8.43382e-07
1.395e-08
9.19855e-07
2.16222e-07
-3.56011e-10
0.000207457
-5.43776e-08
1.96161e-06
5.01066e-07
-6.94484e-07
0.000171333
-0.0189247
2.71753e-07
7.57155e-07
4.55153e-06
0.00908997
-2.68332e-08
5.4681e-08
-3.89777e-07
-1.73763e-06
-0.00262732
2.07952e-06
2.84943e-07
-2.66849e-07
-2.23538e-08
8.07336e-08
0.000763503
-7.26329e-07
5.93163e-07
-0.00198787
-7.82661e-09
-6.31021e-07
-1.04167e-06
-3.9428e-09
-3.41316e-08
2.29867e-07
-1.53957e-06
-1.7582e-06
-2.88935e-07
6.58595e-09
0.000686771
1.39126e-07
-1.76405e-08
-5.68523e-08
3.42516e-08
0.000805453
-0.00401056
0.000775863
1.9128e-06
0.00348554
-5.48516e-07
-1.93394e-08
4.71758e-05
-1.13434e-09
4.19776e-07
1.44782e-07
3.80547e-08
0.00276864
8.74318e-06
7.03964e-10
2.94997e-08
1.18988e-06
-1.15202e-05
-1.77518e-07
-1.79772e-08
0.000455486
1.82482e-07
-1.64585e-08
2.08487e-08
-7.90198e-07
7.38426e-09
3.44259e-08
2.84445e-08
-2.30149e-08
0.00380573
6.75239e-08
9.06365e-07
-5.8383e-07
-0.00107887
1.4939e-08
-2.47154e-08
-1.70661e-06
2.75521e-07
1.97552e-07
6.49259e-07
9.30174e-08
-1.10276e-08
-2.23455e-07
0.000282015
1.66066e-07
0.000249872
3.90926e-08
-8.65462e-06
-2.59779e-08
5.2056e-08
-1.01951e-05
3.12236e-07
-8.45906e-06
-4.38074e-08
9.21099e-08
0.00610784
0.000130093
-2.60529e-08
-6.63897e-06
2.81455e-06
9.36582e-09
3.10028e-08
-0.0055976
4.14972e-06
1.21117e-07
4.59436e-10
-1.86525e-07
-5.8591e-08
0.000179193
0.00149834
-1.02175e-08
-1.07911e-08
-2.42695e-08
-8.18592e-06
-1.03405e-06
0.00156213
2.44418e-08
0.00105054
5.02486e-08
1.93041e-06
0.00138148
-1.85821e-08
5.5834e-09
-1.14761e-07
0.001193
-4.06096e-08
2.52641e-09
-5.10366e-08
9.79954e-08
7.45767e-07
-0.000445075
1.1839e-06
-1.71585e-07
-3.25145e-08
2.42502e-07
-9.32332e-06
-3.07123e-06
-1.08622e-08
1.03244e-07
-7.30557e-06
-8.90315e-07
5.96901e-07
0.00145878
-1.93718e-06
-2.45523e-07
-6.75614e-06
1.63411e-07
9.56241e-07
4.96923e-08
0.000240241
-7.05775e-08
-2.67184e-08
0.000145965
2.78503e-07
3.42195e-09
6.68942e-09
1.14514e-08
-2.90525e-06
-2.19043e-06
-2.03194e-08
-2.58406e-09
-4.22021e-07
-2.57916e-06
-6.18665e-07
4.64387e-09
-3.02111e-08
-7.30857e-09
-2.97292e-07
-5.68834e-07
3.5501e-07
1.86168e-07
-5.2981e-05
1.87906e-08
0.0179267
1.00528e-06
1.81721e-06
-3.44692e-07
7.11139e-07
1.42334e-08
-1.95952e-05
1.66284e-07
-2.48291e-06
0.00521455
9.61827e-07
-2.77034e-08
-6.05553e-06
-2.62567e-09
-3.07027e-06
1.37805e-05
-3.88144e-07
-1.4342e-08
3.08613e-07
-2.28782e-06
-3.98504e-08
2.23869e-07
-2.6347e-05
-1.85031e-08
1.27453e-06
4.47346e-07
1.41897e-07
9.30197e-08
5.70389e-06
-6.34452e-06
-3.32084e-08
9.23492e-09
5.77284e-05
-3.68734e-08
-2.76321e-08
3.69897e-09
4.71593e-08
-0.00815967
-8.04832e-06
-8.4803e-08
2.69273e-08
6.33392e-08
-9.39257e-08
-2.98363e-07
-5.21676e-06
4.57879e-07
-1.42523e-05
1.37062e-06
6.82419e-09
0.00499355
-2.51197e-08
4.83887e-10
1.66403e-07
5.962e-08
-4.54816e-08
1.16375e-08
6.06629e-07
5.6193e-06
1.785e-08
1.72909e-08
-5.14707e-08
2.01492e-08
-0.00182505
1.17309e-08
0.00032591
-6.03537e-06
1.45373e-05
3.63637e-07
0.000402226
-6.69479e-07
5.55679e-08
-1.16784e-06
-1.00483e-08
-4.85251e-07
9.53077e-08
-2.08043e-07
-9.69305e-06
-2.21238e-08
-2.42092e-08
5.17e-07
-8.25427e-08
1.88627e-08
-1.85851e-08
-9.38128e-06
-9.03098e-07
1.12925e-05
8.26779e-10
-2.16943e-08
-6.57119e-09
-0.0419589
-1.81379e-07
-1.47812e-05
-1.5137e-07
2.96292e-06
-1.57256e-08
2.15023e-07
6.17912e-07
3.84502e-05
-4.06829e-08
-2.38388e-06
1.05198e-08
0.000624532
-8.45352e-06
3.49207e-07
-8.40109e-06
2.95738e-08
-1.90012e-07
6.23541e-07
0.000121863
-1.2557e-05
-7.61495e-07
-6.51185e-08
-0.0010623
-1.56807e-07
-2.80529e-06
1.06719e-08
0.000123265
-8.49386e-06
-6.29556e-06
1.91412e-07
1.07796e-08
-0.000290688
0.00157961
-1.27778e-06
3.27408e-07
0.000535983
0.00172806
5.39893e-08
-1.66371e-06
5.8981e-08
-1.91984e-07
-1.06911e-07
-2.36397e-08
-2.26333e-08
-8.3236e-06
-1.1677e-07
4.6526e-08
-8.21351e-07
0.00011259
-4.96658e-05
-6.23724e-06
-6.96741e-05
4.14182e-08
0.000536507
-8.48583e-07
-7.00332e-08
-1.12994e-08
0.00305266
-9.59187e-07
9.81635e-09
-2.31742e-08
1.9341e-06
4.15853e-09
-2.10188e-08
0.0261985
-1.13171e-08
-2.38813e-08
2.9954e-09
7.91547e-09
1.43149e-07
3.73777e-08
-3.78209e-05
-1.31138e-05
-7.30344e-07
1.53816e-07
-1.30789e-06
0.00965275
1.001e-07
1.70403e-07
-0.00329731
-7.41409e-06
1.30366e-08
2.66236e-07
3.40191e-09
-1.45151e-08
-1.68345e-05
-7.64449e-06
-1.57279e-08
1.91157e-07
-0.00258661
-0.000523251
0.000558077
2.65493e-06
-5.41989e-08
0.00124077
4.25027e-08
2.76051e-07
3.12156e-07
1.55285e-07
-4.3234e-05
0.000219283
1.67168e-07
2.04336e-06
-0.0236428
1.13678e-08
5.53649e-09
-7.49629e-07
1.5323e-06
0.000475976
-3.51496e-08
2.54749e-06
-0.00370752
0.0188493
2.94869e-08
1.38096e-07
5.40852e-05
1.89955e-07
2.86017e-07
0.00131705
-1.87503e-08
-3.84739e-08
-1.20552e-07
0.000171582
-9.38275e-09
-8.56477e-08
-2.94097e-07
2.97462e-05
-1.42456e-06
-0.00332655
4.50692e-08
5.00455e-09
-9.02539e-07
6.79461e-09
2.14012e-06
4.31422e-07
-3.67088e-06
-6.30819e-06
1.55308e-09
-7.26403e-08
0.00973013
0.00346269
0.00304146
3.83187e-09
7.14089e-09
3.48745e-08
1.1246e-09
-2.7031e-08
-6.06171e-09
2.01794e-06
-5.86461e-10
-5.1214e-08
3.30043e-08
9.75314e-07
4.52758e-08
4.85044e-08
0.00262085
-9.40663e-07
-7.50361e-07
-1.05268e-06
1.67523e-06
-7.37469e-06
3.42957e-07
5.31405e-08
3.16283e-07
2.90831e-08
0.00628045
1.16248e-07
-1.98704e-08
7.77588e-08
-0.00267283
6.98981e-08
-0.00395422
-2.40836e-07
9.01856e-09
4.23032e-06
4.35421e-08
-5.50378e-09
5.00276e-08
2.80033e-06
-2.51924e-05
1.69714e-07
9.24479e-08
1.64079e-07
-0.0163327
-8.36939e-07
0.0023963
1.68674e-07
-9.34696e-07
2.32606e-07
-1.02374e-08
-5.4417e-08
1.26019e-08
7.88534e-09
-7.13656e-07
0.000688851
7.17913e-07
2.28092e-07
-4.82875e-06
-0.000108322
-6.45893e-06
1.54093e-08
-1.71742e-06
-1.23805e-07
-0.00785801
4.50147e-09
1.26899e-07
4.90953e-06
-0.000607512
-2.6013e-08
-7.58434e-08
1.25016e-08
-3.85184e-08
-6.10547e-06
3.74163e-08
2.35263e-06
8.50464e-07
-2.61073e-08
-1.97781e-05
-7.22677e-09
-0.00186491
1.65897e-09
4.09097e-06
3.93515e-08
5.38666e-07
8.31277e-08
-8.97158e-07
0.00244388
-2.2303e-08
-2.26116e-06
0.019342
-1.00082e-08
-1.20055e-07
-4.89403e-07
-2.82671e-08
1.03248e-05
-4.41825e-06
-1.99386e-07
-1.24819e-06
-1.12135e-08
-4.97804e-07
-6.27699e-08
-3.83453e-08
-5.05308e-08
8.94534e-08
-5.52186e-09
7.49851e-09
1.77755e-09
-6.38702e-07
-7.02051e-07
-1.00837e-07
-2.06588e-06
5.81728e-08
-3.51798e-08
2.67106e-07
6.47853e-07
-1.10381e-07
-1.98896e-08
-3.44229e-08
4.07288e-08
5.01532e-07
-0.0224957
-1.40948e-07
4.01005e-08
7.10238e-08
3.21668e-08
4.22466e-07
-3.35142e-08
-1.36009e-08
0.0262411
3.24388e-05
-9.81027e-07
1.94543e-09
-4.60227e-07
9.10519e-08
-2.17215e-08
-1.69623e-06
5.74852e-09
-4.05886e-06
3.74404e-08
-5.80065e-06
4.91684e-07
0.0233471
1.51371e-07
8.49685e-08
-0.0112573
0.00094589
-0.000907899
5.83771e-07
0.00127344
0.00200775
4.98047e-08
-2.03408e-07
0.0197049
-3.34232e-07
6.34537e-09
-2.22042e-08
3.20029e-07
1.76396e-05
-9.65133e-08
6.58293e-07
0.000126761
-8.73527e-09
-6.36985e-09
0.00128052
0.00706207
-5.01171e-06
-0.00102659
0.000354501
7.30194e-08
4.4702e-06
1.60416e-07
2.60247e-07
-2.33804e-05
5.6057e-08
-0.00145279
-1.01538e-05
2.17312e-07
-1.9342e-07
-6.81655e-07