/*--------------------------------*- C++ -*----------------------------------*\
| =========                 |                                                 |
| \\      /  F ield         | OpenFOAM: The Open Source CFD Toolbox           |
|  \\    /   O peration     | Version:  v2012                                 |
|   \\  /    A nd           | Website:  www.openfoam.com                      |
|    \\/     M anipulation  |                                                 |
\*---------------------------------------------------------------------------*/
FoamFile
{
    version     2.0;
    format      ascii;
    class       surfaceScalarField;
    location    "850";
    object      meshPhi;
}
// * * * * * * * * * * * * * * * * * * * * * * * * * * * * * * * * * * * * * //

dimensions      [0 3 -1 0 0 0 0];
oriented        oriented;


internalField   nonuniform List<scalar> 
27284
(
-7.98397e-05
0.000132146
-5.23527e-05
6.34479e-05
-5.8362e-05
-7.16697e-06
-4.74062e-05
-3.97965e-05
8.71845e-05
4.24549e-05
-6.72026e-05
1.97481e-05
-7.31741e-06
-0.000136655
0.000143202
0.000143997
4.06964e-05
-0.000185206
-8.80715e-05
0.000140268
-5.32929e-05
-0.00014274
0.00013467
1.03581e-05
-1.39562e-05
-1.79171e-07
-9.53717e-05
0.000112161
-1.7194e-05
-0.000215245
7.30264e-05
0.000141644
-8.25517e-05
4.00188e-05
4.25177e-05
-2.91708e-05
-5.3395e-05
-5.70541e-05
-0.000103913
0.00016077
2.40215e-05
-2.36684e-05
-4.37305e-06
-3.42612e-05
4.62672e-05
-1.33718e-05
5.70095e-05
-2.04927e-05
4.35621e-05
-0.000180063
0.000135861
-5.10741e-05
-5.31097e-05
0.00010415
-8.30986e-05
-4.69834e-05
0.000129154
-6.60003e-05
0.000148236
-8.23034e-05
-3.67301e-05
0.00017407
-0.000138243
2.34249e-05
-4.71645e-05
2.1013e-05
-3.51547e-05
0.000178721
-1.75334e-05
3.85011e-05
-0.000129177
0.000176619
-4.87306e-05
-3.7156e-05
-0.000111702
0.000147462
0.000108782
-1.18911e-05
-0.000101533
7.62825e-06
-7.20293e-07
-0.000201631
7.87101e-05
0.000122511
-7.95868e-05
-6.7465e-05
0.000146986
-5.82322e-05
0.000163928
-0.000105908
4.32737e-05
6.11225e-06
-5.03236e-05
-2.53788e-05
-2.28027e-06
2.65166e-05
-1.161e-07
-9.88689e-08
1.34267e-07
-0.000110914
0.000150594
-4.04645e-05
-7.44002e-05
-5.55685e-05
0.0001298
1.56007e-05
-0.000127304
-6.94165e-05
-0.000132616
0.000178709
-0.000155568
-2.40848e-05
-1.3334e-05
-1.47694e-05
1.81159e-05
-0.000136978
-4.27423e-06
-2.64624e-05
2.95893e-05
-5.19658e-05
6.28734e-05
-1.30297e-05
9.40724e-06
-5.37117e-05
6.86211e-05
-1.49149e-05
0.000106044
1.54816e-05
-0.000124644
-1.40676e-05
0.000116971
9.6919e-05
-0.000174002
2.8519e-05
0.00014355
-7.4004e-06
3.65307e-06
2.55971e-06
-8.40499e-05
0.000138146
-5.41225e-05
-0.000143158
-3.2531e-05
6.18104e-05
-0.000110681
4.88277e-05
-0.000176122
5.44358e-05
0.00011768
5.44085e-05
-0.000138518
-2.06848e-06
9.30383e-07
6.25571e-07
0.000154973
-0.000177299
4.70005e-05
6.38731e-05
-2.24205e-05
-4.14558e-05
-3.08166e-05
-3.65971e-05
-4.705e-05
8.36174e-05
0.000120771
-5.90197e-05
-7.64357e-05
2.56297e-05
5.00922e-05
-6.79507e-07
-0.000111616
0.000112146
7.02589e-06
-6.49483e-06
-1.77764e-06
2.64942e-05
9.70513e-05
-0.000123915
2.69814e-05
-0.000101526
-2.25783e-05
-3.28701e-06
2.49026e-05
0.000189249
-0.000127001
-6.26522e-05
0.000106029
-0.000137634
2.98574e-05
-8.70797e-05
-9.19975e-05
2.80974e-05
-0.000151585
0.000123245
-0.000187138
4.64196e-05
0.000140126
1.86943e-05
-0.000128364
0.000109134
-2.54676e-05
-4.00087e-06
2.84208e-05
0.000136373
1.85635e-05
2.2362e-06
-2.87724e-05
0.000129206
-2.4934e-05
-0.000115448
0.000133577
-0.000110249
0.000136341
0.000108436
-0.000154686
4.57309e-05
-2.75631e-05
0.000121613
1.08131e-05
-0.000132767
0.00015458
-6.64535e-05
-8.82443e-05
-4.50516e-06
-1.64049e-06
3.98346e-06
-2.73235e-05
1.21236e-05
8.55104e-06
-3.56989e-05
0.000123668
-8.81079e-05
-0.000113252
-9.55654e-06
0.000119946
9.44038e-05
-0.000130246
1.69363e-05
0.00012193
-0.000180063
0.00012107
5.88828e-05
-6.38283e-05
0.000171705
0.000160017
-0.000133285
-0.000199918
7.6424e-05
0.000123174
7.79557e-05
-2.90626e-05
-4.95523e-05
-0.000110495
3.40675e-05
7.32606e-05
2.44523e-05
5.27257e-05
1.61177e-05
-9.39394e-05
7.77663e-05
0.000136006
1.44911e-05
-0.000151371
9.83315e-05
5.61214e-05
0.000109261
1.80146e-05
2.83703e-05
0.000129819
5.63046e-07
-8.25196e-07
1.84573e-07
2.65251e-06
-0.000125224
0.000122194
-5.26051e-05
1.66453e-05
-0.00012188
0.000121037
-5.92496e-05
-0.000140852
0.000151939
-7.73447e-05
-7.47556e-05
-1.3778e-06
-3.37337e-05
3.38086e-05
-1.68148e-06
-8.6251e-07
-2.0009e-06
1.8026e-06
-8.17226e-07
2.11239e-05
-0.000123256
0.000101864
-1.31154e-05
0.000134368
-6.30179e-05
7.76064e-05
-1.45956e-05
-0.000152662
3.59271e-05
0.000116423
0.000136224
-2.8913e-05
2.02291e-05
-0.00013626
2.35812e-05
-0.0001478
0.000123695
0.000196432
-9.97824e-05
8.37268e-05
0.00010512
3.22981e-05
-7.97194e-05
0.00015984
0.000149507
-7.35546e-05
-7.6092e-05
-0.00010452
0.000124225
6.10977e-05
-5.38512e-05
-7.25221e-06
-0.000126453
4.25352e-05
8.63767e-06
-0.000133729
5.38502e-05
0.000171574
-0.000157713
-1.49214e-05
-3.01218e-05
-8.3473e-05
-0.000164174
8.00937e-05
-0.000163587
0.000107831
5.36732e-05
0.000118739
-5.37992e-05
-6.49837e-05
-4.10718e-05
0.000106141
-6.51339e-05
9.72491e-05
1.11432e-05
-0.000110842
-0.000102427
5.13252e-05
0.000109547
4.72233e-05
-0.000157143
4.43844e-05
1.56172e-06
-5.35784e-05
-8.47463e-05
-9.54113e-05
-3.40653e-06
9.43294e-05
-9.11248e-05
2.66509e-05
0.000114841
-0.000142208
-0.000100325
0.000119473
-2.1951e-05
6.20113e-05
9.52904e-05
7.89039e-05
-0.000120056
3.38213e-05
-2.40091e-05
-1.61477e-05
-2.44054e-05
-4.19377e-05
6.63393e-05
-1.97031e-06
7.20809e-07
1.23489e-06
-0.000109035
0.000129875
2.18667e-06
-3.27328e-06
1.09202e-06
0.00010178
1.97986e-06
7.86502e-05
0.000117327
-9.00555e-05
2.80176e-05
6.11659e-05
-2.64254e-05
-0.00010933
0.000134895
-3.34234e-05
5.7936e-06
2.73368e-05
-1.61445e-05
-1.38071e-05
-8.93027e-06
4.55178e-05
1.05042e-06
-7.265e-06
5.61135e-08
-0.000102411
1.0985e-05
1.30215e-05
0.000167004
-3.65475e-05
-0.000130985
-4.68596e-05
-0.000118708
-2.8308e-05
2.5899e-05
-2.7823e-05
-0.000113618
0.000140691
0.00018104
-4.62221e-05
-0.000135359
6.85683e-05
-9.84372e-05
2.95051e-05
2.94297e-05
-5.38381e-05
5.32938e-05
-0.00013015
7.68114e-05
9.88737e-05
4.84475e-05
-0.000147371
-0.000110486
0.000106842
-1.34655e-06
-1.13073e-06
1.56594e-06
5.87618e-05
5.99285e-05
-2.86748e-06
-2.60987e-06
3.47949e-06
-7.33155e-05
0.000170239
-4.87246e-07
-5.41944e-07
6.56519e-07
1.31603e-05
1.24699e-05
9.4619e-07
-3.88928e-06
1.01158e-06
-4.72633e-09
-1.02274e-06
0.000170623
-8.8462e-05
-8.26051e-05
4.51698e-05
8.20829e-05
-0.0001275
-3.16662e-06
-3.19426e-06
4.07092e-06
9.28265e-05
-2.46257e-05
-0.000146998
-1.19308e-05
0.000157963
2.19077e-05
-0.000109809
8.44168e-05
-9.17856e-05
7.58737e-05
1.54023e-05
0.0001573
-0.000130817
8.00711e-07
6.92978e-06
-1.06344e-05
3.36325e-05
-0.000133311
9.95293e-05
-0.00012748
2.55363e-05
9.60999e-05
-0.000123638
1.06796e-05
-5.43293e-06
6.65244e-05
8.95448e-05
-7.34784e-05
-7.60865e-05
6.07771e-05
1.31202e-05
2.53633e-05
3.913e-06
-3.00503e-05
-4.79381e-05
5.72314e-05
-1.89097e-05
-5.22186e-05
8.05737e-05
-2.83639e-05
-5.3273e-06
-3.2253e-06
-7.96229e-05
0.000131728
-5.21432e-05
5.16181e-06
-6.55948e-05
-0.000193521
0.000136218
1.83727e-05
0.000137144
-2.52922e-05
-0.000149708
0.000174259
-0.000197253
0.000127434
5.93866e-06
5.55676e-07
-8.93431e-06
0.000131196
-7.79486e-05
-5.49488e-05
0.00018004
-0.000126263
-4.32814e-05
0.000142107
-7.26283e-05
9.1413e-05
-4.62078e-05
5.54742e-05
-1.02948e-05
-9.28971e-05
2.54042e-05
6.65352e-05
-0.000142753
0.000150051
-8.48285e-06
0.000145924
-0.000174644
2.82149e-05
9.8135e-05
-2.74644e-05
-7.14939e-05
3.38296e-05
6.3492e-05
-1.37743e-06
-6.31891e-07
0.000108196
-0.000181531
-9.14336e-05
0.000136336
-9.50985e-05
0.000110724
-1.58048e-05
0.000194841
-5.55603e-05
-0.000140469
0.000142217
-4.47233e-05
-0.000100431
6.14463e-05
9.03246e-05
-2.09634e-05
-4.34191e-06
2.46173e-05
-8.941e-05
-3.48503e-05
0.000124117
8.22385e-06
-5.83823e-05
4.96594e-05
0.000184133
-0.000153977
-3.07509e-05
-2.94513e-05
0.000113557
-8.49603e-05
-4.49557e-06
-2.31966e-05
2.69623e-05
-4.06818e-05
0.0001499
7.2219e-05
-0.000147291
7.50079e-05
1.6583e-05
-0.000139515
0.000122687
-9.37496e-05
0.00010991
-1.72642e-05
-0.000107928
9.24271e-06
4.56224e-05
-5.51419e-05
-2.61553e-05
0.000109837
-0.000138408
0.000151071
3.24073e-05
-0.000171958
3.72276e-05
0.000133978
-5.91502e-05
2.08665e-05
-9.97178e-05
7.86692e-05
9.40774e-05
-6.09859e-05
-8.68137e-05
2.83066e-05
5.63879e-05
8.91758e-05
8.10502e-05
2.86557e-05
6.45498e-05
-0.000131356
1.03771e-05
0.000120725
0.000138618
-0.00016672
4.77373e-05
0.000115006
1.3111e-05
-0.000108589
9.22407e-05
0.000174434
-2.90182e-05
0.000117973
-0.000171557
5.32659e-05
0.000155813
-0.000135976
-2.16403e-05
-2.58178e-05
-5.12938e-05
-5.70873e-05
4.49516e-05
-7.84619e-05
3.3494e-05
-5.31867e-05
6.0894e-05
7.94877e-07
1.62175e-07
2.41994e-06
-5.64975e-05
5.35696e-05
-8.21969e-05
0.000102881
-3.89926e-05
3.48366e-05
-4.57594e-06
9.07625e-05
-0.000121157
-3.00164e-05
-6.6341e-05
9.34346e-05
2.50049e-06
-3.16941e-07
0.000121632
-2.68569e-05
-9.53165e-05
-0.00013785
7.51067e-05
6.26783e-05
0.000125362
-8.5486e-05
-3.99686e-05
-0.000134178
-6.34498e-05
-3.51021e-05
-0.000134937
0.000169407
2.45666e-05
-0.000141784
0.000116468
3.39757e-05
6.65887e-05
-0.000100617
6.15809e-05
-9.4467e-05
-0.00011601
-1.15938e-05
-0.000116364
0.000126755
3.08703e-05
4.63508e-06
-3.66384e-05
0.000143392
-0.000169403
-0.000109984
1.47265e-05
-7.27135e-06
-8.86832e-05
9.11682e-05
1.0514e-06
0.000135451
-0.000137627
-0.00022994
9.13284e-05
0.000138124
-1.71231e-05
0.000111899
0.000125152
-6.7062e-05
-5.81585e-05
0.000192987
-3.61583e-05
-0.000227706
9.32247e-05
0.000133876
1.07494e-05
-0.00015466
-0.000175771
5.01661e-05
0.000125265
3.44771e-05
-4.70916e-06
0.000133766
-9.32413e-05
-4.06688e-05
-0.000141203
-2.25729e-05
0.000162408
0.000193008
-0.000104495
-8.87805e-05
-3.58987e-05
1.36548e-05
0.000101281
2.4181e-06
3.85583e-07
-5.08313e-06
4.74392e-05
-1.73884e-05
8.71605e-05
-6.98346e-05
0.000129256
-0.000139676
9.85318e-06
0.00012129
-3.75977e-05
-8.45298e-05
-0.000126177
0.000149958
7.17164e-06
1.26661e-05
-4.88162e-06
2.94951e-05
5.57755e-05
6.93017e-05
-0.000146884
0.000146722
-0.000115829
-5.63451e-05
0.000128677
-7.24973e-05
0.000169228
1.28551e-05
-0.000112483
9.95055e-05
-4.83614e-05
-5.08904e-06
-0.000160692
0.000165067
-9.17422e-05
-0.000138651
-0.00012425
0.000145287
-2.27169e-05
-0.000115859
-1.19855e-05
0.000127597
6.02572e-05
6.49817e-05
-8.23514e-05
6.49031e-05
-1.0505e-05
-4.49335e-05
5.51411e-05
2.59776e-05
4.56279e-05
-7.16149e-05
0.000175741
-9.79956e-05
-7.98017e-05
0.000138964
3.17023e-05
-0.000171491
-6.98275e-05
0.00012201
-5.22405e-05
-8.43492e-05
-9.16849e-05
6.69116e-05
0.000106279
-0.000122667
0.00010535
-1.41505e-05
-9.2729e-05
0.000103217
6.60818e-05
3.15184e-05
-9.76506e-05
7.08422e-05
-4.48744e-05
-4.35739e-05
-4.40167e-05
8.75808e-05
4.19982e-05
-5.27908e-05
-0.000136839
2.19627e-05
8.36332e-05
-0.000105821
-3.69134e-06
-0.000119428
0.00012259
-2.77275e-06
2.22074e-06
4.51613e-07
0.000152036
2.66375e-05
0.000116049
0.000154679
-5.57534e-06
-0.000151384
-0.000115002
7.22442e-08
-2.57021e-07
0.000109756
2.25517e-05
-0.000132644
-1.00665e-06
4.4975e-05
-4.52793e-05
-0.000179609
7.45101e-05
5.35399e-05
-5.45834e-05
-7.21615e-06
2.73427e-05
0.000150274
1.65244e-05
0.000149965
-0.000167169
-8.23117e-05
3.54792e-05
4.68174e-05
7.58765e-05
5.64362e-05
-0.000132352
0.000119811
-0.000109664
-1.06557e-05
5.23714e-05
-0.000173567
0.000139826
3.27886e-05
-0.00012358
7.48311e-06
9.02397e-06
0.000143334
0.000154639
-0.000139988
-1.55849e-05
-7.64314e-06
-8.81235e-05
-1.40634e-05
-0.000111414
0.000122804
-2.41334e-05
2.84188e-05
-1.14658e-05
2.90564e-06
-7.90405e-07
-2.13381e-06
-3.23624e-05
-0.000125779
0.000157249
1.33082e-05
0.000108619
-0.000124414
4.45481e-05
-7.97304e-05
3.51693e-05
0.000146915
6.91053e-06
1.07278e-05
-0.000102306
8.83256e-05
0.000136017
-1.93431e-05
-0.000118086
1.40926e-05
-0.000118824
-3.54023e-05
1.2144e-05
1.4786e-05
-0.000106709
0.000120561
2.23827e-05
4.41283e-06
-2.73409e-05
6.50086e-06
-3.59877e-05
0.000154644
-1.95699e-05
2.61425e-05
3.77281e-05
7.36477e-06
-5.65339e-05
4.88164e-05
-4.25601e-06
2.60936e-05
-0.000105244
-8.40781e-06
0.000110477
0.00017671
-0.000144408
-3.30642e-05
7.14408e-05
-8.86179e-05
4.16323e-06
-5.53651e-06
-2.18257e-07
2.03669e-05
-0.000128514
0.000107708
-4.86194e-05
5.56515e-05
-0.000226485
0.000134279
-0.000143919
0.000144845
-3.25837e-06
-6.98889e-05
-0.000102689
-7.54333e-05
4.62493e-05
-0.000104368
3.29953e-05
7.04958e-05
5.72712e-05
-5.53585e-05
-0.000122647
6.56914e-06
4.24639e-05
-5.21684e-05
8.58063e-06
0.000172704
3.26093e-06
8.8109e-05
-0.000149416
6.06419e-05
-0.000140876
-1.74092e-05
0.000157256
-4.96246e-06
2.99875e-05
-3.12296e-05
-0.000135153
0.000178103
-1.54708e-05
1.71939e-05
-6.23215e-06
0.000141922
1.3464e-05
-0.000156335
9.15576e-06
-6.45695e-05
-0.000132117
0.000136681
-4.74596e-06
-6.22098e-05
-0.000191752
6.85878e-05
0.000122728
2.49699e-06
3.30938e-06
-8.49846e-05
0.000172632
-2.99771e-05
1.39313e-05
0.000113902
-0.000128969
1.51424e-06
6.67523e-05
-6.83036e-05
4.94517e-05
2.06447e-05
-7.0101e-05
-9.28733e-06
-4.75612e-05
-1.92841e-05
-0.000101734
0.000119955
8.48572e-05
-3.99248e-05
4.78448e-05
-0.000164812
0.000116027
3.53752e-06
4.30807e-05
5.36786e-08
-5.36787e-08
-0.000131828
7.08457e-05
6.08962e-05
-4.28762e-05
-8.9862e-05
-0.000104345
-0.000122617
8.82189e-05
5.10788e-05
0.000184582
-5.14256e-05
-0.000133678
9.60481e-05
-0.000100164
0.000176686
-0.00016812
-9.08131e-06
-5.55262e-05
0.000131359
-3.87581e-05
-7.033e-05
0.000109027
5.91224e-07
-6.96474e-08
-3.83712e-05
-5.15495e-05
8.9916e-05
0.000158454
-0.000144886
7.54596e-05
-8.70557e-05
-0.000142936
7.68699e-05
-5.93553e-05
-2.84651e-06
0.000108697
6.30079e-05
2.43701e-06
-1.05764e-06
-1.37998e-06
-1.26168e-05
-0.000109405
-7.29104e-05
7.68304e-06
0.000110651
-5.19316e-05
-0.000117388
7.9596e-05
3.75338e-05
-0.000136522
6.0616e-05
7.58384e-05
-0.000172722
0.000128474
4.24809e-05
8.31685e-05
-4.77868e-05
-3.71626e-05
-6.14737e-05
-0.000115249
0.000138348
-8.9617e-05
-2.28922e-05
0.000111167
3.59291e-05
7.57876e-05
9.21306e-05
2.89458e-05
-1.04556e-05
8.14985e-05
-4.47365e-05
-7.06001e-05
7.20752e-05
3.0307e-05
5.0938e-05
0.000193653
-3.39006e-05
-0.000160647
-3.2245e-06
0.000122771
0.000120754
3.87256e-05
-0.000159517
0.000116977
-6.2317e-05
-5.47505e-05
0.00012285
-0.000156093
-0.000167587
4.17457e-05
-6.92426e-05
0.000107578
-3.84157e-05
-3.54505e-06
1.78869e-05
-1.80568e-05
-3.64619e-05
-6.40888e-06
4.19345e-05
0.0001044
2.99575e-05
2.20446e-05
6.76139e-05
-1.81662e-05
-7.26037e-06
4.86164e-05
-4.36007e-06
1.00904e-06
1.17087e-06
3.45273e-05
7.79994e-06
-5.0203e-05
-5.78927e-05
-2.44319e-05
-5.5453e-05
0.000142896
5.16507e-06
2.40129e-05
-2.98804e-05
0.000168675
-6.09669e-05
4.42173e-05
0.000132412
-0.000170704
3.67142e-05
5.82515e-06
-5.80498e-05
5.24937e-05
-8.91206e-05
-0.000173073
2.5064e-05
5.25702e-06
-2.44457e-05
5.41373e-05
6.27434e-05
5.78009e-05
1.80355e-06
-5.96156e-05
-9.87327e-05
-5.36789e-05
0.000152376
-4.19769e-05
-3.09582e-06
4.39671e-05
6.63764e-05
6.87371e-05
-0.000135137
4.70097e-05
-1.00381e-05
-5.03799e-05
3.98952e-05
7.94673e-05
-0.000119472
0.000151912
-2.95626e-05
-0.000122832
2.7284e-06
-0.000135012
-0.000117381
0.000145248
-0.000113519
-0.000141709
-4.60097e-05
9.43542e-05
-0.00013178
8.28768e-05
-3.83427e-05
-2.51486e-05
-0.000123156
-0.000116511
5.24206e-05
6.3975e-05
-2.94971e-05
0.000157508
-0.000128875
-3.70837e-05
-5.55824e-06
4.16258e-05
0.000180725
-9.28251e-05
-8.86584e-05
-4.12023e-05
3.27742e-05
-8.58885e-05
5.30867e-05
-5.85849e-05
7.92239e-05
-0.000121705
0.000108946
-0.000138948
-4.171e-05
0.000186855
-4.25614e-05
-0.000145418
-0.000156137
-3.10726e-05
-6.26597e-05
-0.000124624
0.000119
-2.45324e-05
-5.50787e-05
7.88581e-05
-4.52917e-06
-1.92854e-05
2.33902e-05
-3.9225e-05
-0.000107236
0.000142508
-0.000125767
3.23905e-05
-5.85047e-05
5.1538e-05
-7.68069e-05
0.000123103
-8.03593e-05
-4.27579e-05
-0.000120567
4.09057e-05
5.08903e-05
0.000142737
2.7817e-05
-3.24765e-06
-2.87924e-06
-0.00011017
-1.14665e-08
2.077e-06
3.65469e-07
5.44961e-05
2.93406e-05
-8.38519e-05
-2.967e-05
0.000167767
1.59334e-05
-0.000140183
0.000123886
-0.000143622
-2.32284e-05
0.000166304
0.000153796
-1.39297e-05
-0.000140446
-0.000145609
3.04152e-05
0.000114849
-3.71524e-05
4.83277e-05
-1.1177e-05
4.46183e-05
7.21329e-05
-0.00011692
-0.000130208
0.000179436
-5.05118e-05
-4.9895e-05
-9.39088e-06
5.91961e-05
-1.96719e-05
-1.3477e-05
-7.3752e-05
5.70547e-05
-9.54311e-05
-0.000119409
0.000108148
1.11013e-05
0.000145851
4.70091e-05
-4.60785e-05
8.92465e-06
-9.36474e-05
3.11534e-07
5.12084e-05
5.93958e-05
6.11227e-05
-0.000119516
3.70751e-05
9.31159e-06
-4.65809e-05
-0.000149337
0.000123676
4.90675e-05
0.00013063
0.000152455
1.67098e-05
-0.000171183
9.14802e-05
-0.000118588
2.67547e-05
0.000105073
-1.00616e-05
4.69455e-05
-0.000110337
7.60692e-05
3.40088e-05
-0.000169285
1.88485e-05
-5.21418e-06
0.000155787
-0.000119164
0.000129645
0.000153363
-0.000109332
-0.000137223
-3.28979e-05
0.000169301
6.34107e-05
-7.31993e-05
0.000181306
-3.03764e-06
-5.55518e-05
-0.000140299
-1.1699e-05
0.000151879
-0.00019292
3.58711e-05
0.000156375
0.000128747
3.49433e-05
1.71933e-05
-0.000126511
-0.000106546
0.000119004
2.88191e-06
-0.000120107
0.000114343
-5.62916e-05
-0.00013721
-0.000143089
0.000179192
-3.67743e-05
-0.000162509
1.99806e-05
3.90983e-05
0.000110305
-9.74865e-05
-8.24276e-05
-3.05441e-05
-7.82126e-05
0.000105677
-0.000148802
8.3801e-06
-0.000137023
-4.11555e-05
0.000177481
-2.56344e-05
8.15438e-05
-5.59396e-05
-3.98465e-05
-3.55984e-05
9.93872e-05
-9.89212e-05
-0.000138573
0.000125084
-5.37393e-05
-8.00302e-05
8.88653e-05
-0.000131616
2.66161e-05
4.49069e-05
-7.15276e-05
-3.97628e-05
2.78041e-05
-0.000152567
3.90023e-05
0.000113458
-7.76052e-05
0.000122048
1.51192e-05
-3.99267e-05
-0.000114077
0.000130976
-6.00097e-05
6.99177e-05
-0.000108736
5.25975e-06
-1.69845e-06
5.15735e-06
-2.66761e-05
2.06631e-05
-7.01695e-05
-3.74575e-05
0.000107537
-5.10839e-05
-6.84721e-05
5.68338e-05
-8.24994e-05
-0.000112857
8.73933e-05
2.01192e-05
3.13554e-05
-7.84293e-05
7.01165e-05
-0.000103599
-3.23411e-05
8.68211e-05
1.31175e-08
1.51373e-08
0.000155951
-4.85153e-05
-0.000109138
2.78654e-05
-7.72989e-05
4.94212e-05
3.33321e-05
9.7092e-05
-0.000131279
0.000172566
-2.22046e-05
-1.31227e-06
5.028e-07
-0.00014118
2.01171e-05
0.000120714
-0.000118181
3.67636e-05
8.05576e-05
-2.39224e-05
0.000133328
-8.09507e-05
3.73701e-05
0.000156299
-6.50641e-05
-9.14874e-05
-9.06702e-06
-4.97552e-05
1.73527e-06
-2.40334e-06
-3.2883e-08
-0.000102771
1.8942e-05
-0.000155682
0.000135775
3.96722e-05
0.00011634
2.42801e-05
3.47013e-05
-5.89835e-05
-5.68013e-05
1.7117e-05
3.76894e-05
-5.52322e-05
4.56277e-05
-0.000136705
0.000160642
-2.51091e-05
-3.38191e-06
1.164e-06
-3.92876e-05
0.000141675
-0.000102679
-1.75264e-07
2.24423e-06
-2.66188e-05
-7.86263e-05
0.000149214
-9.80603e-05
-5.12533e-05
-2.15836e-05
-9.15585e-05
0.000112173
4.64649e-05
-8.6114e-05
3.95771e-05
-0.000116459
4.34322e-05
7.28402e-05
-2.07887e-06
-9.22908e-05
-0.00013525
8.8892e-05
4.63191e-05
0.000127893
1.55941e-05
0.000107493
0.00014292
-3.11475e-05
-0.000111982
0.000164258
6.00604e-06
-0.000171386
-0.000138548
2.51231e-05
0.0001095
-5.06917e-05
-8.86213e-05
-0.000128298
0.00017418
-9.0088e-05
0.000152505
-6.30811e-05
1.77663e-06
6.13315e-07
4.00162e-05
-0.000122633
8.25382e-05
0.000147848
-8.43452e-05
-6.35205e-05
0.000119262
3.48305e-05
3.9358e-05
0.000125766
-0.000165188
0.000160051
-0.000122116
-4.13529e-05
0.000163024
3.20967e-05
-8.01867e-05
4.80776e-05
2.8e-06
-4.0208e-05
9.59028e-05
3.61838e-05
1.1247e-05
-4.66767e-05
3.52711e-05
1.14831e-06
5.09538e-07
-1.70108e-06
-7.89015e-05
-3.77462e-05
-0.000123767
7.8251e-05
4.54322e-05
1.0824e-05
4.53661e-05
-5.61953e-05
0.00010807
-0.00013235
9.42482e-05
1.69555e-05
-0.000112559
0.000103292
-7.41551e-06
2.65372e-06
-1.7019e-05
-7.52268e-05
-2.97531e-05
9.57835e-05
0.000181113
-0.000123488
-5.91455e-05
-0.000152367
0.000127124
2.45777e-05
-8.05665e-05
0.000120505
0.000145558
-5.29941e-05
1.46149e-05
0.000105658
-0.000121751
3.97677e-05
-0.000109088
1.20351e-05
5.22067e-05
-6.42479e-05
0.000122468
-3.1325e-05
-9.91001e-05
-1.42166e-05
0.000112645
0.000105278
1.6675e-05
-0.000108268
-2.51851e-05
0.00015097
-1.46336e-05
-0.000122999
-8.96539e-05
-2.40134e-05
0.000110837
-0.000139822
0.000154474
-1.5015e-05
-2.44223e-05
0.00013212
-0.000126417
9.91926e-05
-4.5452e-05
-4.92808e-05
9.46799e-05
-5.73971e-05
-0.00011687
0.000123075
-5.09109e-05
-4.87927e-06
3.1514e-05
-0.000187221
0.000160116
2.59899e-05
2.2068e-05
7.44718e-05
-9.65559e-05
3.12843e-06
-4.51152e-07
-0.000172266
3.20985e-05
2.747e-05
9.18265e-05
5.72766e-05
-0.000143154
-8.19595e-07
0.000141528
3.21468e-05
4.08172e-05
-7.67153e-05
-8.44543e-05
-6.5097e-05
0.000149255
-2.2529e-05
-0.000118983
5.1485e-06
-2.49675e-05
1.91941e-05
-7.95829e-06
-5.27646e-05
6.00773e-05
-1.24554e-05
-0.000126177
0.000138325
-8.28039e-06
-0.000102442
0.000180215
-0.000112022
-2.03008e-05
6.63743e-06
1.04257e-05
0.000101519
4.78428e-05
-7.41236e-05
0.000143655
-0.000173426
2.7557e-05
-1.14162e-05
0.000116141
-5.7199e-05
0.000147353
-0.000139707
9.07277e-05
4.8957e-05
4.82429e-06
-2.59036e-05
2.05118e-05
-9.31223e-05
5.33078e-05
8.08181e-05
-0.000142745
5.91614e-05
-1.44633e-06
3.72549e-07
-4.5394e-05
7.32478e-05
2.75172e-05
-0.000153798
0.000125794
0.000148678
-0.000109981
4.12584e-05
0.000138483
8.73805e-05
-5.99729e-05
-9.48487e-05
-4.48767e-05
-6.78348e-05
0.000145788
3.03344e-05
2.90036e-06
-1.84588e-05
-2.45094e-05
2.3658e-05
-0.000116184
-4.6205e-05
-0.000126377
8.86793e-05
-0.000132536
7.69668e-05
-4.98463e-06
5.906e-06
-3.89384e-06
5.90115e-05
-3.23994e-05
-0.000142502
-2.16237e-05
0.000163109
0.000107179
-0.000119177
0.000129647
6.3218e-05
0.000136119
-0.00017083
-0.00013709
-0.000120412
2.11989e-05
3.51809e-06
-2.51723e-05
5.59092e-05
2.50222e-05
-8.0952e-05
0.000126914
-0.000155138
2.51439e-05
3.04064e-05
-3.67299e-05
5.13491e-06
-3.0513e-05
-5.35454e-06
3.50973e-05
0.000122025
-4.56149e-05
0.000130831
-7.72346e-05
3.38461e-05
4.33777e-05
4.15131e-05
-9.62216e-06
-7.279e-05
8.46211e-05
-0.000132368
0.000174733
-0.000143873
0.000151251
1.51883e-05
3.17663e-05
9.40789e-05
-0.000126733
-0.000124398
9.69644e-05
-4.95866e-05
8.524e-05
-0.000123094
4.94196e-05
-2.85436e-05
4.60199e-06
-0.000149196
7.58891e-05
-5.87477e-05
7.07759e-05
3.09939e-06
-4.19094e-06
4.66873e-07
-8.9548e-05
0.000112724
-2.36268e-05
-4.35223e-07
1.5949e-06
-1.81378e-06
5.4052e-05
-4.50676e-05
9.35709e-05
-4.71756e-05
1.27513e-06
-1.53492e-07
3.73227e-05
0.000137428
1.66849e-05
-1.86568e-05
0.000125276
-4.1492e-07
2.77874e-06
9.63191e-05
-0.000131408
3.48728e-05
-0.000120065
8.33696e-05
3.64227e-05
0.000156892
-9.96199e-05
-5.73634e-05
0.000137634
3.63126e-05
6.23234e-05
-0.000110895
-9.57841e-06
4.87217e-05
-3.93685e-05
7.3545e-05
-7.85674e-05
4.99578e-06
-5.14525e-05
-9.83462e-05
-1.96554e-05
0.000168749
-8.91006e-05
-7.99942e-05
0.000107884
-1.49527e-05
0.000145241
-0.000170467
2.38218e-05
6.5237e-05
-0.000180051
0.000112111
-2.93964e-07
1.23508e-07
1.771e-05
4.31023e-05
-0.000108678
0.000162701
5.13896e-06
-1.45349e-05
1.8935e-05
-7.80927e-06
-2.41164e-05
2.08381e-05
1.61352e-06
-1.8309e-06
-1.62522e-07
-0.00017516
3.74839e-05
0.000136681
7.34476e-05
8.33439e-05
-1.48295e-05
8.83441e-05
-5.23095e-05
0.000120674
-0.000143541
-0.000186902
4.91262e-05
0.00013654
4.14157e-05
0.000144233
-0.000113459
1.86689e-05
1.11756e-05
0.00013007
-0.000165793
1.12831e-06
-2.49816e-05
2.28303e-05
-2.52524e-05
-8.296e-05
0.00010513
6.46939e-06
-8.0785e-06
0.000187498
-4.58482e-05
-0.000138909
-3.14703e-05
0.000169617
-9.7534e-06
-4.56559e-05
5.48323e-05
3.46869e-05
4.29118e-05
-3.16203e-05
-0.000159876
9.45336e-05
-7.7967e-05
0.000108798
7.67844e-05
-1.89946e-05
-4.17323e-06
-2.3998e-05
4.44273e-05
-5.47657e-05
0.000171991
-3.48785e-05
-0.000172245
-8.4615e-06
5.23011e-05
-6.21229e-06
-3.29222e-05
3.83395e-05
6.3882e-05
-0.000175038
-2.36593e-05
1.94903e-05
-0.000107719
-7.82155e-05
0.000185451
0.00013897
-1.5546e-05
1.27694e-05
-0.000173717
5.71802e-05
0.00011377
7.99172e-05
8.84621e-05
3.25479e-05
0.000139001
-0.00017173
8.73512e-05
-0.000114213
-0.000195371
0.000129166
6.53243e-05
-2.53939e-05
1.73572e-05
-2.49681e-05
-7.74803e-05
4.78759e-05
-3.87569e-05
-0.000130455
8.01533e-05
5.01613e-05
6.5845e-05
-0.000156558
0.000140091
-9.30331e-05
-0.000174157
3.64578e-05
3.43852e-05
0.000128299
-0.000163315
3.49022e-05
1.34237e-05
-7.212e-06
2.30891e-06
-4.57984e-05
3.55447e-05
-0.00010173
-5.82336e-05
0.000152885
-9.47869e-05
0.000135783
4.28154e-05
-0.000179742
1.38415e-05
4.06009e-05
4.31711e-06
1.77869e-05
-2.25071e-05
-9.82128e-05
0.000174353
-2.32947e-05
1.83366e-05
-8.60528e-05
-4.45353e-05
4.77642e-05
-4.49663e-05
-3.47767e-05
-2.30903e-05
-1.89912e-05
7.00651e-06
7.39473e-06
-1.24259e-05
-1.06263e-05
3.37109e-07
6.63479e-08
-5.64335e-07
-1.79561e-05
0.000159134
-5.63585e-05
9.42212e-05
-4.02442e-05
-5.4003e-05
0.000131932
-0.000109706
-6.20885e-05
0.000118583
-5.6587e-05
0.000197031
-0.000118236
-8.03766e-05
2.58695e-06
-2.4504e-05
2.10087e-05
1.11269e-05
-4.92055e-06
-0.00017041
4.97159e-05
0.000117735
-0.000126071
3.31863e-05
9.10095e-05
-0.000116822
0.000159309
-4.32322e-05
-7.69911e-05
6.73133e-05
2.18047e-05
-9.94478e-05
6.7453e-05
0.000127913
-0.000142471
0.000160739
-2.09151e-05
-0.000126813
-0.000103095
-5.60999e-05
-0.000117614
5.54458e-05
-0.000137301
2.88778e-05
-5.38131e-05
-3.14577e-05
8.52502e-05
1.67235e-05
-3.91459e-05
-3.12256e-06
0.000124972
-0.000122174
0.00012067
1.80441e-05
-2.19655e-05
-0.00016205
4.02343e-05
0.000120869
-6.18376e-05
1.54723e-05
4.02862e-05
-0.000178573
5.11819e-05
-6.42465e-05
9.81282e-05
-3.39351e-05
-2.92337e-05
8.51203e-05
6.93259e-06
-4.78493e-05
3.9886e-05
0.000130822
-1.45016e-05
0.000155455
-4.09783e-05
-8.67668e-05
-1.1961e-05
4.68615e-05
2.55543e-06
-0.000102363
-2.3681e-05
-2.50302e-05
5.30392e-06
-8.59748e-06
2.78241e-06
4.41142e-06
-0.000111046
8.3696e-05
-9.98826e-05
8.94318e-05
-4.0572e-05
-2.8889e-05
6.94529e-05
-1.73761e-05
-3.40194e-06
2.03711e-05
1.94631e-05
-4.14759e-05
4.73838e-05
3.19565e-05
2.71702e-05
-6.14744e-05
-0.000115706
0.000166289
-2.24878e-05
-9.29992e-07
-0.00014319
5.8032e-05
-2.83923e-05
0.000133308
-0.000100837
-3.74972e-05
6.96616e-07
2.19072e-06
-4.5214e-05
-0.000144814
8.96782e-05
-0.000168575
7.83325e-05
2.8889e-05
9.14375e-05
0.000156088
-0.000133272
-2.35685e-05
-0.000108852
3.82117e-05
6.81616e-05
1.19627e-05
-8.05034e-05
-3.79752e-05
-1.55542e-05
-2.02209e-06
1.51696e-05
2.70003e-05
-4.66013e-05
-2.75369e-05
0.000116576
-8.97899e-05
6.10723e-06
-2.08628e-06
0.000136367
-0.000139856
9.05408e-05
-1.51608e-05
-0.000174275
2.76056e-05
0.0001453
-0.000176066
3.95227e-05
0.000135392
-0.000144665
0.000150738
0.00011392
-0.0001723
-5.11871e-05
4.02479e-05
-4.75194e-06
-3.30353e-06
5.43944e-06
-5.93506e-06
7.87649e-06
-3.40535e-06
-0.000180883
3.71344e-05
8.90244e-05
-7.62613e-05
1.33828e-05
0.000119037
-0.000135167
-0.00010501
3.46218e-05
-4.20389e-06
-2.26973e-05
-2.43803e-05
1.93681e-05
-7.64731e-05
-0.000202415
0.000132606
6.95161e-05
-3.26818e-05
-7.79024e-05
5.64424e-05
-1.10798e-05
-6.96247e-05
2.90454e-05
2.95689e-06
-2.83129e-05
2.45852e-05
-5.36654e-05
-5.41489e-06
5.85984e-05
7.65556e-06
-0.000126341
0.000118532
-0.000195024
3.30946e-05
0.000161212
0.000135098
-0.000155404
-0.000114197
-0.000168335
0.000137792
3.94014e-05
-0.00010293
6.34996e-05
-8.03711e-05
-0.000122329
-1.31396e-08
1.312e-06
-2.5648e-05
2.78451e-05
2.37318e-06
-0.000147929
-0.00013235
0.000178907
-4.75352e-05
-2.51236e-05
-7.89225e-05
-6.28793e-05
-5.74573e-06
-2.61652e-05
3.0738e-05
-2.60736e-05
-0.000149536
-2.85232e-05
-0.000145688
-0.000107458
6.84309e-05
3.89526e-05
4.78283e-05
-0.000129151
7.97776e-05
-8.88911e-05
-1.39843e-05
0.000101476
-0.000106299
0.000130407
-2.48151e-05
8.67763e-05
-9.92988e-05
6.58015e-05
-5.87444e-05
-7.77539e-06
1.12203e-05
-6.55105e-05
8.66829e-05
-2.1206e-05
-5.54831e-05
8.28632e-05
-2.74095e-05
-2.20833e-05
-4.61662e-05
3.11371e-05
-3.30624e-05
3.38846e-05
-4.76792e-06
-8.35409e-06
-3.59708e-05
4.38445e-05
-9.27649e-05
0.000123686
-0.000137866
2.77172e-05
0.000108691
-9.99804e-05
-1.55481e-05
-2.07089e-06
1.54386e-05
9.32764e-05
-4.93017e-05
3.94833e-05
-6.02088e-05
3.99156e-05
1.81398e-05
-0.000144426
2.50815e-05
0.000115526
0.000112307
-4.24525e-05
-0.000100311
-2.89028e-05
7.58662e-05
-4.97631e-05
0.000101936
3.17305e-05
-0.00013653
0.000160503
-7.80317e-05
-8.24868e-05
-9.03922e-06
1.22247e-05
-0.00015721
-4.34584e-05
-1.88002e-05
9.65859e-06
4.71901e-05
-5.74156e-05
-5.24729e-05
3.56034e-05
1.55529e-05
1.52827e-05
-0.000117463
0.000101964
3.09602e-05
5.19006e-05
-2.55821e-05
-0.000122498
-0.00011355
6.04062e-05
8.10214e-05
3.86513e-05
-0.000119813
7.4353e-05
-1.57924e-05
-5.85692e-05
-0.000120482
5.67181e-05
6.37044e-05
7.23498e-06
8.92401e-05
-0.000100648
-5.59365e-05
-0.00013967
1.83326e-05
9.36629e-05
-0.000114317
-3.60348e-05
-4.9456e-05
8.26899e-05
-8.09348e-05
-1.00025e-05
8.62701e-05
0.000103007
2.47216e-05
-0.000128058
1.19282e-05
-0.000141613
2.7242e-05
-0.000112057
-4.64338e-05
-7.75351e-05
0.000123824
-7.2458e-05
-3.64303e-05
-0.000103427
2.86848e-05
0.000190439
-5.73504e-05
-0.000133422
0.000146343
2.89006e-05
-0.000176026
-2.34831e-05
2.7355e-05
-3.79127e-05
0.000163606
-0.000134591
0.000152982
-1.88663e-05
-6.90603e-06
1.00643e-05
-5.02686e-06
-7.21421e-06
-3.72621e-07
-3.44189e-05
-4.28256e-05
6.19211e-05
8.58936e-05
-5.55478e-05
-7.70261e-05
-6.29754e-05
8.07535e-05
-2.04816e-05
5.44884e-05
-8.61226e-05
3.16088e-05
-3.4696e-05
-3.33116e-05
0.000129546
-0.00013318
-1.26192e-05
0.000145435
5.99509e-05
7.02866e-05
-0.000130613
-0.000157996
0.000107317
-1.38293e-05
1.03601e-05
4.34263e-05
-7.27627e-05
-8.50116e-05
0.000157189
-0.000134594
-0.000160895
3.8374e-05
7.74247e-05
-4.63519e-05