/*--------------------------------*- C++ -*----------------------------------*\
| =========                 |                                                 |
| \\      /  F ield         | OpenFOAM: The Open Source CFD Toolbox           |
|  \\    /   O peration     | Version:  v2012                                 |
|   \\  /    A nd           | Website:  www.openfoam.com                      |
|    \\/     M anipulation  |                                                 |
\*---------------------------------------------------------------------------*/
FoamFile
{
    version     2.0;
    format      ascii;
    class       volVectorField;
    location    "300";
    object      ddt0(U);
}
// * * * * * * * * * * * * * * * * * * * * * * * * * * * * * * * * * * * * * //

dimensions      [0 1 -2 0 0 0 0];


internalField   nonuniform List<vector> 
18355
(
(0.00134621 -0.00191333 -2.70241e-17)
(-0.0577673 0.0184675 -1.4682e-17)
(0.000200547 0.000154894 1.56675e-18)
(-0.000719349 -0.000173419 -4.99192e-19)
(-0.000635452 -0.00205147 -1.16616e-18)
(0.0166166 0.0128331 4.41715e-19)
(-0.000303687 -4.54421e-05 3.32479e-20)
(-0.0033328 0.00145235 3.03045e-17)
(-5.12505e-06 0.00207398 5.36166e-18)
(0.0296943 0.0150707 -1.10018e-17)
(-0.00102493 -0.000380486 -8.56505e-19)
(0.00422161 -0.00691446 3.01598e-17)
(-0.0106779 0.00137464 -5.44799e-18)
(9.09349e-05 0.000358541 -6.20468e-18)
(0.000652802 -0.000208386 2.94737e-18)
(0.00158898 0.000925156 4.75814e-18)
(-0.0168291 0.00166939 -3.81915e-17)
(-0.000413796 -0.000120841 7.24683e-19)
(0.000640197 0.000431853 -8.7217e-19)
(-0.145888 0.0734417 5.93394e-17)
(0.00201516 0.00137641 8.35179e-18)
(0.000714541 0.00114491 5.51308e-18)
(0.0801473 0.00523247 4.19141e-17)
(-0.000721862 -0.00203441 2.72711e-18)
(-0.000249972 -0.00482607 -9.1433e-19)
(-0.000126307 0.000657318 -4.90271e-18)
(8.16195e-06 0.000906297 1.90662e-18)
(0.000194846 0.00196692 1.49122e-17)
(0.0121951 0.0511257 2.94439e-17)
(0.000367517 0.000421599 -1.8325e-17)
(-0.00122424 -0.00145883 1.01267e-18)
(-0.000228436 -0.00282352 1.65394e-18)
(-0.00044281 -0.000119164 -1.29921e-18)
(-0.00111756 -1.05474e-05 -7.40956e-20)
(0.00273493 -0.00448399 2.22472e-17)
(0.00125387 -0.00201557 2.61022e-17)
(3.04047e-05 0.00165576 -1.27269e-18)
(0.0113896 -0.00444548 -3.19146e-18)
(0.000241722 0.00192051 -5.34485e-18)
(-0.00103209 -0.000426023 4.36999e-19)
(8.92176e-05 0.00037245 1.05097e-17)
(0.00687338 0.00395843 4.22646e-18)
(0.00019612 0.000178035 -9.11553e-19)
(0.0591086 0.00872066 -6.09869e-17)
(-0.00146187 -2.17623e-05 2.20787e-18)
(0.0117745 -0.00485288 3.52507e-19)
(-0.000752978 -0.00330459 -3.53553e-17)
(0.000644311 0.00213613 1.42845e-17)
(-0.000136365 -0.00283065 1.94057e-17)
(-0.000299116 -8.40477e-05 7.63896e-19)
(-0.0010227 -0.000339542 -1.69437e-18)
(0.000175511 -9.46358e-06 2.88142e-19)
(-2.33694e-05 -1.901e-05 6.47541e-19)
(-0.024706 0.0538056 2.08488e-17)
(-0.000161331 0.000549379 -3.06488e-18)
(-0.000526001 1.66989e-05 1.21686e-18)
(0.0426808 -0.0180494 -1.71692e-17)
(0.000682184 -0.000198695 -1.68791e-18)
(0.000606205 0.0106774 1.86605e-18)
(0.00301707 -0.0120581 -3.23622e-18)
(-0.000293177 -6.6739e-05 -6.43181e-19)
(0.00402399 0.00897892 -7.75276e-18)
(-0.000441452 -0.000176925 1.9774e-18)
(0.00503598 0.000500106 -1.26027e-18)
(0.00464466 -0.00849122 -4.2535e-17)
(0.00127827 -0.00180753 2.16807e-17)
(-0.00690145 0.0115164 -2.98947e-18)
(0.00116856 0.00356128 1.1558e-17)
(4.43108e-06 0.000923049 9.09616e-19)
(0.000722617 0.00112084 -4.54124e-18)
(0.000147875 -0.00545085 8.5584e-18)
(-0.000139103 -2.20693e-06 2.17715e-20)
(0.00367971 -0.0124316 -1.68954e-17)
(-0.000332842 -1.64968e-05 1.40203e-19)
(-0.0032509 0.000930098 7.57914e-18)
(-0.000284245 -5.95657e-05 -4.19798e-19)
(-0.054138 0.0816497 -2.49396e-17)
(2.61462e-06 -0.00259717 8.91521e-18)
(0.00208136 -0.00574898 3.19201e-18)
(4.50627e-05 -1.73661e-05 -7.17562e-20)
(-0.000289779 -1.96231e-05 -1.09331e-18)
(0.0179763 -0.0017722 4.50499e-17)
(0.00193139 0.00133341 -7.29712e-18)
(0.0050272 -0.00118258 5.73542e-18)
(-0.000138519 0.000696363 3.79669e-18)
(-0.00984791 0.00123991 1.33967e-17)
(-0.196662 0.0601632 -3.27817e-18)
(-0.143286 0.0729117 -5.35098e-18)
(0.0185933 0.0441297 1.41527e-17)
(0.0226778 0.0429396 -1.10567e-17)
(-0.0110827 0.0646492 1.93087e-17)
(-0.00148513 -2.42866e-05 3.10925e-19)
(-0.000110265 0.00062677 2.76915e-18)
(-0.00112138 -0.0002196 9.1695e-18)
(0.00313497 0.0132124 1.65853e-17)
(0.0852792 0.00380435 -3.09574e-17)
(-5.96164e-05 -0.000477736 1.42579e-18)
(0.00187619 -0.00201286 -3.61491e-18)
(-0.0179539 0.0487471 -2.33115e-17)
(-0.00716263 0.00159391 5.03099e-17)
(0.0083871 0.00436481 -2.08965e-18)
(-0.00978746 0.00151062 -1.70861e-17)
(0.00339856 -0.00267984 6.61017e-18)
(-0.0341211 0.0734384 -2.97364e-18)
(-0.0010732 -0.00241869 2.74413e-19)
(-0.00207433 0.0201465 3.04546e-17)
(-0.00546195 -0.00310119 -2.02262e-18)
(0.010839 -0.000916757 -6.34535e-17)
(0.00105385 -0.000314981 -5.22884e-17)
(-0.00189353 0.00868274 -7.14962e-17)
(0.000331272 0.000285626 2.87767e-18)
(0.000468084 0.00176377 -1.82652e-17)
(-5.37729e-05 0.00069741 2.76802e-18)
(0.000462862 0.00182359 1.27547e-17)
(-0.0710513 0.0510978 4.55848e-17)
(-0.000594118 1.35684e-05 1.12074e-18)
(4.00273e-05 0.0104264 -1.1502e-16)
(-0.0568325 0.0827805 3.93529e-17)
(0.000377402 0.0104684 -9.84188e-17)
(0.00360186 -0.00250335 -2.91844e-17)
(0.0335643 0.0173266 8.32104e-18)
(-0.00295985 -0.0350956 -2.77357e-17)
(-0.000129368 -0.00261102 -3.01016e-19)
(0.000479045 -0.00557149 -1.92939e-17)
(-5.3912e-05 -0.000447611 -5.62131e-18)
(0.0112482 -0.000593238 6.62015e-18)
(0.000110146 -2.65657e-05 6.93463e-19)
(3.7314e-05 -2.28722e-06 -7.80704e-20)
(0.0304274 -0.0154398 -2.65088e-17)
(-0.00110899 -0.000214577 -7.02562e-18)
(-0.000987506 -0.000346435 1.13445e-18)
(0.0319771 0.0197898 1.08269e-16)
(0.00202774 0.00384309 -3.52677e-17)
(0.00185023 -0.00211741 2.5837e-18)
(0.00402128 0.00300039 5.12509e-18)
(-6.49501e-05 4.07217e-06 -1.42317e-18)
(0.000399877 -0.000152192 -1.1594e-19)
(-0.00105476 -0.000372816 9.81491e-19)
(0.000219057 0.000231612 4.49379e-18)
(0.00540261 -0.00612481 -5.41297e-17)
(0.0107036 0.016265 -1.30866e-17)
(0.0282645 0.0603665 8.02789e-18)
(0.00099483 0.000641813 -3.34901e-18)
(0.000317946 0.000273042 -2.27102e-18)
(0.000245528 0.00862908 -3.9974e-18)
(0.000650067 0.00112243 -5.23839e-18)
(0.000212844 0.00264873 9.67633e-18)
(-0.215801 0.0810809 -4.30047e-17)
(0.000923672 -0.00162151 2.59476e-18)
(-0.221027 0.0796118 4.46498e-17)
(-0.000273193 -0.00168103 -3.70916e-18)
(0.000682655 0.00116019 -1.17107e-17)
(0.00270781 -0.00424113 -2.86333e-17)
(0.000479422 0.0105907 4.69386e-17)
(0.0270678 -0.000432178 2.85225e-17)
(-8.73711e-05 -9.68606e-06 4.97695e-18)
(0.0278127 0.0262087 5.02796e-18)
(0.000483241 0.0100217 5.62866e-17)
(-7.91993e-05 -9.45423e-06 4.08733e-19)
(0.00246494 0.0100993 4.1546e-17)
(0.00243091 0.000243156 -2.87093e-19)
(0.00138168 -0.000738299 9.39772e-19)
(0.0020241 0.0026999 4.1935e-18)
(0.00199775 -0.00225343 -1.37006e-17)
(0.0666968 0.00467103 -2.95024e-18)
(0.00351234 0.0117035 1.18909e-17)
(0.0188355 0.00551116 -2.1151e-17)
(0.000755194 -0.00293684 1.20194e-17)
(-0.0245431 -0.00395341 3.00322e-18)
(-0.000350836 -4.45619e-05 6.74026e-19)
(0.00940528 0.229609 1.0231e-17)
(0.0896138 0.00132395 7.68261e-18)
(-0.000943364 -0.000354151 -2.94349e-19)
(-0.00100729 -0.000385324 -4.11947e-19)
(0.00156649 0.000861892 1.78326e-18)
(-0.121348 0.0136965 -1.88293e-17)
(0.0191596 -0.0133312 -1.57561e-18)
(-8.98194e-05 0.000571689 -2.23894e-18)
(0.0193479 -0.0120778 -2.07649e-17)
(-0.00189831 0.00333559 -7.66129e-17)
(-0.00103992 0.00636277 2.05071e-17)
(-0.0255624 -0.00271458 -3.20595e-17)
(0.00200134 -0.00102531 6.7109e-19)
(-0.000427272 -0.000106487 4.87255e-20)
(0.0629451 0.0300492 8.11814e-18)
(-0.135703 0.0147539 3.48334e-17)
(0.05068 0.0284027 -9.1525e-18)
(-0.00860787 0.0450898 4.57168e-17)
(0.000233962 0.00207904 2.17622e-17)
(-0.0180123 0.00121075 2.86252e-17)
(0.0412662 -0.0189726 1.0563e-17)
(0.000265635 0.000218118 -2.46129e-19)
(0.00193775 -0.00237118 1.87189e-17)
(-0.0462665 0.0827525 4.11913e-17)
(0.00426181 0.00358787 -5.0696e-18)
(0.000802804 0.0011331 -1.89795e-18)
(0.0538894 -0.0126999 -5.37891e-17)
(0.00205037 -0.00113652 -6.68379e-18)
(0.0036294 0.00158029 -1.95888e-17)
(-0.000965737 -0.000377426 -3.81016e-21)
(0.000715934 -0.00133653 -2.59475e-18)
(0.00104759 0.00198099 3.17954e-19)
(0.00216528 0.00548267 -1.02222e-16)
(0.0595555 0.0253713 -2.73877e-17)
(0.0371802 -0.00263892 7.66523e-17)
(0.00274245 0.000673591 3.88405e-19)
(-0.000101293 0.00955868 6.56721e-17)
(-0.0110014 -0.00765439 4.30362e-17)
(3.23204e-05 -0.0178034 -1.90275e-17)
(0.00392883 0.00134372 1.35025e-17)
(0.000471463 -0.000104868 3.77985e-19)
(-0.000285703 -0.00162592 1.48255e-18)
(-0.144444 0.0806323 3.94628e-17)
(0.000938453 0.000629301 4.61013e-18)
(-0.000364732 -3.981e-05 -7.94054e-19)
(0.0177958 -0.00249093 -6.99462e-18)
(0.0619441 -0.0156734 8.79199e-18)
(-0.149854 0.0801654 8.86792e-19)
(1.96567e-05 0.000655562 -4.36771e-18)
(0.000852298 -0.00159863 -9.51308e-18)
(0.0165605 -0.011115 -1.71666e-17)
(0.000203891 0.000201482 2.03737e-18)
(0.00482379 -0.000956098 -1.11811e-17)
(0.000352645 -0.000156406 -4.94502e-19)
(0.00817222 0.00558224 1.28652e-17)
(0.000728407 0.000902129 1.94205e-18)
(-0.0161652 -0.000815689 2.47522e-17)
(-0.167885 0.0174479 2.15808e-18)
(0.000176683 0.00727392 8.45577e-17)
(0.000474468 -7.23534e-05 -2.79864e-19)
(-3.15323e-05 -1.72298e-05 5.02435e-19)
(0.00171998 -0.00562756 5.15802e-18)
(0.00210231 -0.000300575 -2.34917e-18)
(-0.0133011 -0.00037073 -5.14283e-17)
(0.00121781 0.000176948 -4.65687e-19)
(-8.80354e-05 0.00065871 -1.80732e-18)
(-0.000131366 0.000577545 2.48731e-18)
(0.0123593 -0.00161976 -1.15233e-17)
(-0.00641296 0.0956128 7.65639e-17)
(0.0241769 -0.000626018 -1.27963e-18)
(0.00116531 -0.000380959 5.12639e-18)
(-0.0227408 -0.00699624 -3.5682e-17)
(-0.00136483 -0.00153993 -1.68805e-18)
(-0.000314539 -2.54197e-05 -7.301e-19)
(0.000741243 0.000984654 -3.01226e-18)
(-0.166328 0.0112575 1.41449e-17)
(0.0525352 -0.0295139 -8.55598e-17)
(-0.000364304 0.00947349 -1.17078e-16)
(0.0269012 -0.00160624 -2.63032e-17)
(0.00237792 0.000194803 -8.3525e-20)
(0.000719903 -0.00129213 6.15669e-19)
(0.00138913 0.0135005 -1.34631e-17)
(0.00221872 -0.00112151 2.95275e-18)
(0.00194883 -0.0191066 4.74826e-17)
(0.000696553 0.000760393 3.52648e-18)
(-0.0203861 0.00148294 -7.78987e-17)
(0.00721673 0.0032382 -9.64131e-18)
(0.00154853 0.00987726 -1.40752e-18)
(0.000433295 0.000401008 6.09714e-19)
(-0.000855506 -3.9328e-06 -1.76273e-20)
(0.00135553 -0.00170354 -6.88605e-18)
(-0.000381945 -0.0059172 2.77115e-18)
(0.00419211 0.0049455 9.36639e-17)
(0.00174179 0.00420546 1.8103e-17)
(-0.000551096 -5.68917e-05 1.46447e-19)
(-0.000437082 -3.64577e-05 -5.13251e-20)
(-9.48554e-05 -1.09685e-05 1.21295e-18)
(-0.0257861 -0.00564284 1.44477e-17)
(0.00841873 -0.000895717 -5.32221e-18)
(-0.000117498 0.00703901 -1.49889e-18)
(0.00118089 0.00104946 -2.61862e-18)
(-0.158194 0.100822 -9.81366e-18)
(-0.0106359 0.0471854 -8.87775e-17)
(-0.00203719 0.0186162 -2.71735e-17)
(0.000592519 -0.000704623 -7.32005e-18)
(0.0432054 -0.00944697 -1.84206e-17)
(9.22038e-05 -2.89838e-05 1.36075e-19)
(8.49939e-05 0.000280983 4.2979e-18)
(0.00879736 0.022039 1.38175e-17)
(-0.00106187 -8.80328e-06 7.50697e-19)
(-0.000249403 -6.43279e-05 2.9064e-19)
(-0.00464758 0.0177823 -3.34408e-18)
(2.83938e-05 -2.29898e-05 -1.40811e-18)
(0.00894166 0.0519152 1.02181e-18)
(0.00230352 -0.00123843 -1.57889e-20)
(0.000455666 0.00232383 2.79698e-19)
(-0.00105862 -8.59569e-06 -4.50667e-20)
(0.000935218 -0.00304442 -1.77345e-17)
(-0.00602298 -0.00665897 1.01798e-17)
(-0.000133392 -0.00277275 -9.12168e-18)
(-0.000826271 -0.000156082 9.9753e-19)
(5.70723e-05 0.000386183 -5.43269e-18)
(0.00860722 0.0305572 6.07426e-18)
(-0.0145336 0.033602 -3.30722e-18)
(-1.60217e-05 -1.03842e-05 3.11873e-18)
(-6.72966e-05 -1.51162e-06 9.76904e-19)
(0.0309732 -0.00584941 3.18437e-17)
(0.00331723 -0.00313049 -2.99299e-17)
(0.0288443 -0.00432499 2.43965e-17)
(0.00406496 0.00855877 -5.12485e-17)
(6.93006e-05 0.000310961 -3.34588e-18)
(-0.000261425 -0.00566444 -2.12145e-17)
(0.000638632 0.00144584 9.33711e-18)
(-0.000116709 -1.8958e-06 -1.02115e-18)
(0.00378695 0.00833718 3.54575e-17)
(0.0684895 0.00620337 4.1379e-17)
(0.0767108 -0.0223023 1.37635e-17)
(0.00928285 0.0326292 -2.78691e-17)
(-0.00110228 -0.000230007 -3.49112e-18)
(-0.00101204 0.00654852 -2.30176e-17)
(-0.00127353 -0.00225664 3.93862e-18)
(0.000625087 0.000445719 -3.94765e-18)
(0.0196253 -0.0346283 5.83849e-17)
(0.000232807 0.00016566 -1.59739e-19)
(-0.0247202 -0.00722233 4.37327e-17)
(0.00665186 0.00408917 2.44642e-18)
(-9.87181e-05 0.000628327 -1.945e-18)
(-0.000987532 -0.000244283 1.04169e-18)
(-0.0218348 -0.00880327 2.50912e-17)
(-0.187658 0.0340409 -1.81634e-17)
(-0.0066422 -0.00834814 3.46034e-17)
(0.000773115 8.62365e-05 3.76686e-18)
(0.00194241 0.00261336 -1.23761e-17)
(0.0623335 0.00697391 -1.68208e-17)
(-0.000887931 -0.000813804 7.60321e-18)
(-0.00694138 0.0922497 -7.21046e-18)
(0.000978008 -0.00637006 2.92222e-18)
(0.00330088 0.00168683 4.19119e-19)
(0.00833041 0.0850882 6.96165e-18)
(-0.00111496 -0.000221832 3.18391e-18)
(0.00383498 0.0119227 1.11649e-17)
(0.000574869 0.000459106 5.43736e-19)
(0.00418818 0.00316153 2.97939e-18)
(-0.000454102 2.42664e-05 1.10444e-18)
(0.027659 -0.00374427 -8.48372e-18)
(-0.0187778 -0.00379602 1.59133e-17)
(6.70515e-06 -9.38178e-06 1.12854e-19)
(-0.00405029 0.00329819 1.6966e-17)
(0.000613348 0.000110451 -8.61375e-18)
(2.5122e-05 0.000732276 -2.38871e-18)
(-0.000525468 -0.00318284 1.35222e-17)
(0.00469639 0.00965456 2.88722e-17)
(-0.0252473 0.062312 3.27566e-17)
(-0.0509581 0.0595793 5.22158e-18)
(-0.0460598 0.0856397 -2.43231e-17)
(0.000664551 0.000729996 2.78563e-18)
(-0.000532442 -0.000176252 -9.78874e-19)
(0.0791154 -0.0115014 6.91279e-18)
(-0.000686361 0.00588281 -2.07204e-17)
(-8.81858e-05 0.000660806 -1.01506e-18)
(0.00111333 0.000261977 -4.07609e-20)
(0.0800759 -0.024237 -7.65608e-18)
(0.0644009 0.027627 1.74762e-19)
(0.00163581 0.012639 -3.03011e-18)
(0.0754494 -0.00950414 -1.34168e-17)
(-1.35288e-05 0.000859415 2.90769e-18)
(0.000849479 -0.00127904 -6.07817e-19)
(-0.000229389 0.00987145 -1.86697e-17)
(0.000317117 0.000273815 -3.41982e-18)
(0.00116366 0.000194932 5.46456e-19)
(-0.0258803 0.0415535 3.10093e-17)
(0.00458959 0.00127702 -3.51485e-17)
(0.00104448 -0.00232079 -1.06688e-17)
(-0.214646 0.0627085 1.77005e-17)
(-3.1315e-05 -1.60498e-05 -4.49122e-18)
(0.00301147 0.00445021 -1.30767e-17)
(0.0175345 -0.0112866 -6.36044e-17)
(0.00835103 -0.000683492 1.90926e-17)
(-0.000902902 -0.000154025 -9.72095e-20)
(0.000399346 0.000627767 4.29986e-18)
(0.000135328 0.00020242 3.27036e-18)
(-2.49793e-06 -0.000346194 -1.67109e-18)
(0.00451522 0.00508633 -1.86154e-18)
(-1.07728e-05 -0.000376516 -4.07254e-18)
(0.00154319 -0.00278896 3.21558e-18)
(0.000126428 0.000201507 -6.55778e-18)
(0.00163251 -0.000373833 -1.69532e-18)
(-3.31751e-05 0.000865813 -2.52984e-18)
(2.62211e-05 0.00203378 -7.71949e-19)
(-0.000202922 -0.000891189 -5.59838e-18)
(0.000620541 0.000302867 -4.62423e-19)
(-0.00017677 -0.000823034 -1.35132e-18)
(-0.000162211 -0.000835543 -8.45027e-19)
(0.00149172 0.000665586 1.74291e-19)
(0.00118587 0.00735389 7.34244e-17)
(-0.00810082 0.111868 1.04145e-17)
(0.000350348 -0.000203703 2.27164e-18)
(-0.0332555 0.065791 8.53064e-17)
(0.00356573 0.00199466 4.80171e-18)
(-0.00394442 0.120937 -1.03327e-17)
(0.00281547 -9.07339e-06 5.61183e-18)
(-0.00486187 -0.00375668 -1.19172e-18)
(0.00075987 0.00102514 6.23688e-18)
(-0.0196101 0.0536736 2.90513e-17)
(2.79193e-05 0.00159399 -5.4232e-18)
(-0.000587418 1.54271e-05 -1.28317e-18)
(-9.59917e-05 0.000694187 1.65388e-18)
(-0.000804924 -0.000262031 9.16862e-19)
(-0.0387306 0.053501 3.51196e-17)
(0.00112167 -0.000930392 3.86641e-18)
(-0.00140042 -2.62237e-05 1.13442e-18)
(-0.000234579 0.0010857 -3.55058e-17)
(0.00159791 -0.00265131 -4.1815e-18)
(0.000330833 0.000295819 2.47915e-18)
(-0.000927527 -0.000806718 3.14318e-18)
(-0.00931446 0.000574896 -2.85117e-17)
(0.000765012 0.00110624 -3.70213e-18)
(6.82497e-05 -1.3579e-05 -1.10094e-18)
(-0.000743701 0.0114364 1.25979e-17)
(9.13025e-06 -5.31433e-05 1.37227e-18)
(-0.000989715 0.0101365 9.46086e-17)
(-0.0153793 0.000970701 1.10778e-16)
(-0.0232721 0.0430335 -4.05477e-17)
(0.00019108 0.00257859 1.24995e-17)
(-0.00119685 -0.00239956 -8.04759e-18)
(-0.00644289 -0.0085539 3.98543e-17)
(-0.000137206 5.33184e-06 7.23768e-19)
(9.69021e-05 5.23534e-05 6.12215e-19)
(0.00131818 0.0121301 -3.34966e-17)
(-0.000118153 -1.25072e-05 -2.52473e-18)
(-0.00092038 -0.000346267 -8.21522e-19)
(-0.018284 0.00130532 9.36804e-17)
(-0.000326675 -1.87434e-05 6.76499e-19)
(-0.0191801 -0.00398215 -1.32356e-17)
(0.0112095 -0.00362978 4.21725e-18)
(0.0224035 -0.0108407 -1.9373e-17)
(-0.014344 0.00158129 -8.31504e-17)
(0.000608276 0.00143005 -5.25633e-20)
(4.66515e-05 4.14193e-05 -1.24537e-19)
(-0.0691204 0.0895165 -9.23275e-17)
(0.0173248 0.0115457 -1.2292e-17)
(0.00454125 0.228248 -1.84348e-17)
(-0.030797 0.0698811 -4.11773e-17)
(0.000103394 0.000229572 4.49102e-18)
(-0.000410763 -0.000102089 -3.95041e-19)
(0.000620165 0.0011459 4.90345e-18)
(-0.0563821 0.0651828 -2.37162e-17)
(0.00466015 0.00227059 2.01158e-17)
(0.000698671 0.000442241 1.09824e-18)
(-0.000118684 -1.14464e-05 8.16356e-19)
(0.000908321 0.000666145 -7.65612e-19)
(0.00311224 0.00460402 -9.74832e-18)
(8.40767e-05 0.00982832 7.15745e-17)
(0.00250415 0.000831769 1.57639e-18)
(0.000586992 0.0011039 6.84185e-18)
(-3.10368e-05 -1.69219e-05 -6.68574e-19)
(0.00265229 -0.000150244 -2.18437e-18)
(-0.00516541 0.0737652 -1.95248e-17)
(-0.0173943 0.0362107 1.43262e-17)
(-0.0204862 0.00140137 7.02751e-17)
(0.00972056 0.0231358 -4.4852e-17)
(0.00221497 0.00512065 7.73979e-17)
(0.0033967 0.00426668 1.67129e-17)
(0.0599912 0.0111856 -3.64081e-17)
(-0.000535791 -0.0014456 -1.6839e-18)
(-0.000423864 -6.33919e-05 -2.09043e-20)
(7.50305e-05 0.000393115 -5.18977e-18)
(0.00034174 -0.000211646 -2.48089e-19)
(0.00409077 0.00518776 5.26623e-18)
(4.01707e-05 0.000458362 -5.47112e-19)
(-0.0014203 -2.35535e-05 3.36187e-19)
(-0.00803925 0.00106969 -5.24588e-17)
(0.00301815 0.00474859 4.9138e-17)
(-0.000413584 -0.00289524 -1.88676e-17)
(0.0118045 0.0475398 -9.25121e-18)
(0.00225816 0.00533035 -2.38553e-17)
(-0.133793 0.00935262 -5.95219e-17)
(0.00032634 0.000163785 -3.30969e-20)
(-0.000186825 -0.000871061 -3.73974e-18)
(0.000329047 0.00031116 -6.6107e-18)
(-0.000304113 1.86532e-06 8.84055e-20)
(-7.3376e-05 -1.05153e-05 -1.23979e-18)
(6.82894e-05 -1.7878e-05 2.29682e-18)
(5.54471e-05 0.000347557 -2.33916e-18)
(0.0382377 0.0730216 1.13112e-18)
(0.00076813 3.94247e-05 -3.2678e-18)
(-0.0010426 -0.000259667 -7.38573e-19)
(-0.0072083 -0.0330293 -3.13674e-17)
(0.000998513 -0.0126648 6.14931e-18)
(-0.000409951 -7.20948e-05 6.22825e-21)
(7.90767e-05 -0.00220444 9.02196e-18)
(0.00551001 0.00340022 2.34042e-18)
(0.0131191 0.00735492 5.68655e-17)
(0.00150508 0.000849156 -3.02883e-18)
(-8.20165e-05 -0.000563228 -3.21012e-18)
(-0.0279358 0.0645586 3.73367e-17)
(0.00101497 0.00191691 -3.05157e-19)
(-0.106395 0.0970902 -3.71116e-18)
(0.000938003 -0.00675382 -6.10518e-18)
(7.01472e-05 -0.000335158 2.19087e-18)
(-0.00423242 0.00125844 2.16418e-17)
(0.000344386 -0.012927 3.06751e-17)
(-0.000533102 -0.000105477 -7.61646e-19)
(0.00483628 -0.0177149 1.00404e-17)
(0.0184295 0.0370905 2.56916e-17)
(-0.00395541 0.00408796 1.48205e-17)
(7.24932e-05 -0.000304113 -7.96753e-20)
(-0.000142834 -0.000559803 1.7202e-18)
(0.00202968 -0.000225488 5.64635e-18)
(0.0140271 0.029467 -1.92892e-17)
(0.000439947 0.00137868 1.40315e-18)
(-0.172482 0.109012 -1.84816e-17)
(-0.0314573 0.0587512 2.29936e-17)
(-0.031711 0.0665564 -7.08291e-17)
(0.00798932 -0.0208761 5.60185e-17)
(-0.000813555 -0.000270266 9.49759e-19)
(0.0110963 -0.00437272 -7.74481e-18)
(-0.109074 0.0272945 2.05619e-17)
(0.0850321 0.00140492 -3.41953e-17)
(-0.129367 0.0690068 2.52257e-17)
(0.000528245 0.000969695 8.57056e-19)
(0.00234427 0.00103023 3.50228e-18)
(0.00241561 0.000375849 -4.27959e-19)
(0.0876643 0.0109381 -3.30328e-17)
(-0.00944987 0.00141143 -1.03464e-17)
(-0.0154532 0.06647 -5.46026e-17)
(0.000743082 0.000876095 -2.06975e-18)
(0.000195756 0.000217752 -2.12708e-19)
(-2.20343e-05 0.000864671 1.09536e-18)
(0.00478171 0.00239346 -3.75106e-18)
(4.55635e-05 0.000383406 8.28334e-19)
(-0.0737181 0.0931491 1.3992e-17)
(0.00252393 0.000406589 -7.95264e-19)
(-0.0818914 0.0567402 -1.3283e-17)
(0.000267796 0.000476694 4.16445e-18)
(0.000882618 0.00064528 1.49087e-18)
(-0.00083102 -6.48278e-06 -9.84427e-21)
(0.00119227 0.00343119 -1.9845e-17)
(0.00321784 -0.000227373 3.60511e-18)
(0.000802776 0.0744755 1.04052e-17)
(6.88368e-06 -4.99793e-05 -9.70092e-20)
(0.00615697 0.0210989 3.94023e-17)
(0.00890909 0.0129169 2.04789e-17)
(0.00439226 -0.00445253 4.33283e-18)
(0.000428092 0.000389825 -1.78596e-18)
(0.000895399 0.00201614 -7.84949e-18)
(0.00423071 -0.00642595 -1.32431e-17)
(-7.93606e-05 -1.50111e-05 -1.58046e-18)
(0.000653578 -0.000925787 -2.78361e-17)
(0.00427633 0.00156138 1.29656e-17)
(0.00409557 -0.00421029 -2.5256e-18)
(0.00585227 -0.011185 -1.36594e-17)
(0.00114746 0.000252966 -9.82609e-21)
(-0.000561145 -0.00010827 1.69307e-18)
(8.13465e-05 0.000410117 8.55312e-19)
(3.11872e-05 -1.635e-05 1.68005e-19)
(0.00112369 -0.00285272 1.74021e-17)
(0.00101763 -0.00241094 1.01599e-17)
(0.00311236 0.00920473 -1.17274e-17)
(0.000290626 0.000161135 2.10681e-20)
(-0.000797038 -0.00209687 -3.36009e-18)
(-0.00276398 0.207728 6.11818e-18)
(-0.00110104 -0.000223909 -9.9334e-19)
(-0.000221084 0.00374024 2.43798e-17)
(0.000442657 0.00152171 -1.08449e-17)
(0.00993068 -0.00684305 1.74493e-17)
(0.000452323 0.00225958 1.83804e-17)
(-0.0320243 0.0513758 1.44831e-17)
(0.000616891 -0.00100301 -1.43669e-18)
(0.0529223 0.00145865 -2.3023e-17)
(0.0013061 0.00226842 1.68877e-17)
(0.000682452 0.00212928 -1.24031e-17)
(-0.00696487 0.0101249 -1.9143e-17)
(-0.00703985 0.210302 -1.5065e-17)
(0.100434 -0.0117209 2.47263e-18)
(0.00423138 -0.00492894 4.85507e-18)
(0.00106987 -0.000925965 7.01013e-18)
(0.000107975 -0.000293046 1.87601e-18)
(0.000119444 0.000181336 1.33195e-18)
(0.0370335 0.00691122 1.09185e-18)
(0.000264436 -0.00344728 -2.47613e-17)
(0.00340303 0.00139628 2.05998e-18)
(0.00826612 -0.000120753 -4.74314e-18)
(0.0317359 0.0612343 -4.74242e-18)
(0.0676627 -0.00492865 -2.74378e-17)
(-0.00083259 -7.78824e-06 -1.30332e-19)
(0.00056366 -0.0100941 7.72897e-17)
(0.0390309 0.0132603 -1.76381e-17)
(-4.0486e-05 -0.00237516 -1.12891e-18)
(0.000203387 0.00019181 2.66731e-18)
(-0.000110179 0.0037762 -4.81668e-18)
(0.0317702 0.0397453 7.63083e-19)
(0.0014744 -0.00173243 2.67852e-18)
(-0.000163398 8.86353e-05 5.82038e-18)
(0.000658216 0.00578729 -7.04615e-17)
(0.0057061 -0.0105592 1.13728e-17)
(0.00309358 -0.00460358 -9.14889e-18)
(0.00109514 0.00328658 1.64507e-17)
(0.00520234 0.0130192 -3.30807e-19)
(0.00177502 -0.00188131 1.15129e-18)
(-0.00567128 0.014565 1.03267e-17)
(-0.0347312 0.00854893 1.39869e-17)
(-0.000618975 0.0828688 -3.23963e-17)
(0.0187639 -0.0314848 5.6158e-17)
(0.00381695 0.00469233 4.7203e-18)
(0.0118389 -0.00139048 9.72979e-18)
(0.0017789 -0.00104451 -1.54075e-17)
(-0.000511305 2.22874e-05 -5.81062e-19)
(3.50695e-05 -0.00245412 2.16403e-18)
(0.00032453 0.000380378 1.56085e-17)
(0.000147329 0.0084776 -6.89086e-17)
(-0.0014091 0.00845619 1.80515e-17)
(-0.117767 0.0185123 -1.83288e-17)
(0.00111456 0.00724052 5.92275e-17)
(0.000385885 -0.0110797 -9.22917e-17)
(-0.0109481 0.0468753 -5.17597e-18)
(0.000556862 0.0056235 2.55634e-17)
(0.00165937 0.000938999 -5.26629e-18)
(-0.0859945 0.0143391 1.84478e-18)
(0.0809678 -0.00436601 8.68018e-17)
(-0.00106181 -0.000413828 -2.0477e-19)
(0.000875265 0.00749991 1.324e-16)
(-0.00237428 -0.00450216 1.39652e-17)
(0.104661 -0.0125871 5.17016e-19)
(0.00254623 0.00074839 4.7372e-19)
(-0.000920585 -0.000225495 2.63121e-18)
(0.001692 -0.00184637 2.58041e-19)
(0.00202415 -0.00267106 7.39392e-18)
(0.00394309 -0.00671436 5.89306e-18)
(-0.00838226 0.00370815 -9.12011e-18)
(0.000238464 0.000183642 2.59346e-18)
(0.0314771 0.00247031 1.51301e-17)
(0.00151988 0.000727089 -8.07994e-20)
(0.00179582 0.00134441 9.93667e-18)
(0.0853988 0.0124879 2.61934e-17)
(0.000242415 0.000174044 3.59992e-19)
(0.00332774 -0.000160336 -2.93669e-18)
(-0.132761 0.0728222 1.12221e-17)
(3.14589e-05 4.14918e-05 1.06756e-18)
(0.000959459 -0.000654623 9.1491e-18)
(0.0619385 -0.0189832 -3.03497e-17)
(-0.000929554 -2.18796e-05 1.3987e-19)
(0.00749466 0.0213648 -3.04367e-17)
(-0.0010986 -0.000233742 -8.44362e-19)
(0.00184147 0.0584814 1.96839e-17)
(0.00437171 -0.00516475 -6.84683e-18)
(0.00865585 -0.000856267 1.23534e-17)
(0.00345351 0.00155184 -1.52533e-18)
(0.00155006 -0.000830382 1.03371e-17)
(0.0126041 0.0280642 7.39546e-18)
(0.000128008 0.00246129 1.81601e-17)
(-0.226 0.0897634 5.23241e-19)
(0.025061 0.00171085 -4.94796e-18)
(-0.000903656 -0.00138218 7.67159e-19)
(0.10944 0.000101246 3.82912e-17)
(0.00930913 -0.000972841 -1.82864e-18)
(0.00459283 0.0129756 5.57599e-18)
(-0.0227597 0.000764653 9.39334e-18)
(-0.00593174 -0.0310787 6.79523e-17)
(-0.00657472 0.067442 5.08718e-18)
(0.000304834 0.000244732 2.82689e-18)
(-0.000719419 -0.000298539 -1.0764e-18)
(0.0152884 0.0368727 -3.14056e-17)
(0.000939766 0.00205692 -1.17303e-17)
(0.00061468 -0.000856226 2.95566e-17)
(-0.000256148 3.34886e-05 -8.75545e-20)
(0.00183178 -0.00101282 1.50065e-17)
(0.0127063 0.0238076 4.1412e-17)
(0.00310366 0.0361761 6.81969e-18)
(0.00131201 -0.00292759 -1.14797e-17)
(0.0807412 0.00295798 2.4419e-17)
(0.003902 0.00505063 -2.53088e-17)
(0.00156021 0.000170588 8.39883e-19)
(-0.000914393 -0.000236989 -1.84295e-18)
(-0.000250791 6.84183e-05 -4.83754e-18)
(-0.000538723 0.00118306 -1.64866e-18)
(0.00816481 -0.00110633 6.04343e-18)
(-0.000463339 -0.000704536 4.93857e-18)
(0.0947912 -0.0122442 3.60444e-18)
(0.00287812 0.000633718 1.53023e-18)
(0.00348809 -0.00297877 1.30319e-17)
(-0.00148021 -2.15232e-05 -1.32201e-18)
(0.00182152 -0.0175405 -1.84123e-17)
(-0.0131814 8.59037e-05 1.98472e-17)
(0.000388481 0.000434367 -3.952e-19)
(-0.00103353 -0.000414196 9.74775e-19)
(0.0197947 0.0103293 2.12381e-17)
(-0.000144798 2.14837e-05 -7.92104e-19)
(-0.00052106 -0.000120634 1.27316e-21)
(-0.0234272 0.0632969 8.26204e-18)
(0.00105899 0.00755795 -5.27568e-17)
(0.000572337 0.00130244 -6.69932e-18)
(0.000151901 0.0001719 4.30713e-19)
(0.0526975 -0.00483955 4.00294e-17)
(8.94753e-05 -0.00304254 1.40703e-17)
(0.00213179 -0.00614408 7.14359e-18)
(-0.000594081 0.00572306 3.5756e-17)
(0.000622122 0.00028533 -5.74931e-19)
(-0.104422 0.0318803 -2.78714e-17)
(0.00521501 0.00543823 6.52956e-18)
(0.000671091 0.000909441 -7.36967e-18)
(0.00117029 0.00840987 3.5046e-17)
(0.0940361 6.67176e-05 -3.36679e-17)
(-0.00026619 -4.69914e-05 -2.18884e-19)
(-0.00250364 0.0374241 -4.17322e-17)
(-0.000731889 -0.000185929 1.98752e-18)
(2.85753e-05 3.57333e-05 -3.93319e-18)
(0.000375207 0.00137345 3.98466e-18)
(0.000181373 0.00406297 2.78514e-17)
(-0.0104826 0.0020329 -3.0329e-17)
(0.000651187 -5.78549e-05 7.55077e-18)
(-0.0362961 0.0104517 -2.28851e-18)
(0.00346504 0.00010498 8.96356e-19)
(-0.16967 0.0680442 3.22559e-17)
(0.00802547 -0.0203257 -2.51945e-17)
(0.00168639 -0.000983508 2.95207e-18)
(0.00265631 -0.0100737 8.73431e-17)
(0.000423054 0.000664199 5.93019e-18)
(0.0781637 -0.00596745 -1.36281e-18)
(6.72766e-05 -0.00228876 -1.31062e-17)
(-0.209552 0.0582922 1.49316e-17)
(-0.0623626 0.0181083 2.3232e-17)
(0.00080767 0.000642638 -7.94192e-18)
(0.000657684 0.0117215 -4.4842e-17)
(0.00191254 -0.00019188 4.84452e-18)
(0.00136273 0.00232288 -1.32494e-17)
(0.0970397 -0.00868729 -7.73216e-17)
(0.00132948 0.00659787 1.33243e-17)
(-0.00805261 -0.00945351 -8.29819e-17)
(-0.000382276 -3.35715e-05 -2.34257e-19)
(-0.030737 0.0525836 -7.78715e-17)
(0.000215059 0.000325203 -7.10288e-19)
(-0.211041 0.0961127 -2.47535e-17)
(-0.00029739 -0.00151996 -1.78193e-18)
(0.00253322 0.000555585 6.75191e-19)
(0.00406199 -0.00587918 5.99758e-18)
(-0.000252188 -1.12288e-06 -1.07582e-19)
(-0.0012309 -4.63833e-05 3.12705e-19)
(0.010738 0.00385477 -6.29887e-18)
(-0.0343574 0.071953 -9.38096e-18)
(0.0966121 -0.0109254 -7.86687e-18)
(-0.000395309 -9.20087e-05 5.0484e-19)
(0.000812071 0.00950934 -3.61986e-17)
(0.00160758 -0.00102584 -4.16649e-18)
(-0.000256309 1.0234e-06 -6.07518e-19)
(-3.34385e-05 0.000884886 -3.66087e-18)
(0.00220275 0.00197585 1.97634e-17)
(0.00173124 0.0291553 3.40741e-18)
(0.0882856 -0.00653313 -7.06456e-17)
(0.000838473 -0.000151916 -2.84439e-17)
(-0.0011378 -9.72185e-06 -3.0707e-20)
(0.00225692 -0.000441676 5.8158e-18)
(-0.0669183 0.04577 4.50431e-18)
(0.00248732 0.00062108 3.48677e-19)
(0.000265628 0.000179087 -1.82283e-18)
(-0.000196358 4.28051e-06 -4.41227e-19)
(0.00231422 -0.000491582 -9.0005e-18)
(0.00139436 -0.00043105 -4.35811e-18)
(0.0491011 0.00341118 -1.66886e-17)
(0.000210025 0.000160746 -2.62955e-19)
(0.0153037 0.0040517 -9.44287e-17)
(0.00448679 0.00354835 5.6687e-18)
(0.0385669 0.0171896 -1.95641e-17)
(-0.00499783 0.00404005 4.96557e-17)
(-0.00723136 0.0074846 -3.29917e-17)
(-0.00106208 -0.000204274 6.84374e-19)
(0.0197606 -0.00964699 -2.06569e-17)
(0.000212746 0.000193005 -2.16577e-19)
(0.000897493 3.3217e-06 -3.25102e-18)
(0.00252638 -0.00138847 -3.38253e-18)
(-0.00102086 0.0104192 -1.71441e-18)
(-0.00063247 -5.70121e-05 1.29906e-19)
(0.000115169 -0.000263793 -7.77729e-19)
(-0.00123839 -2.53818e-05 -1.44653e-19)
(0.0838092 -0.00680954 6.94043e-17)
(0.00108721 0.00158463 -2.14796e-17)
(-0.000954889 -0.00143336 -8.49394e-18)
(0.00315029 -0.000902053 -2.30649e-19)
(0.0015389 -0.00162425 9.47592e-18)
(0.0393843 0.0334581 1.58634e-17)
(-0.00342241 -0.00414884 5.7772e-18)
(-0.000148847 -8.73948e-05 5.84222e-19)
(0.00011627 0.00034788 2.31687e-19)
(0.0487662 0.0303596 -1.3896e-17)
(0.00069359 0.000883716 7.73951e-18)
(0.00645372 -0.0215011 -4.85278e-17)
(-0.0541745 0.0237015 3.22728e-18)
(-0.0122871 -0.00235117 -2.79893e-17)
(0.0039804 0.00791547 -2.50245e-17)
(0.00676564 0.00765902 -7.37009e-18)
(-0.0790437 0.100893 2.13364e-17)