/*--------------------------------*- C++ -*----------------------------------*\
| =========                 |                                                 |
| \\      /  F ield         | OpenFOAM: The Open Source CFD Toolbox           |
|  \\    /   O peration     | Version:  v2012                                 |
|   \\  /    A nd           | Website:  www.openfoam.com                      |
|    \\/     M anipulation  |                                                 |
\*---------------------------------------------------------------------------*/
FoamFile
{
    version     2.0;
    format      ascii;
    class       surfaceVectorField;
    location    "300";
    object      Uf;
}
// * * * * * * * * * * * * * * * * * * * * * * * * * * * * * * * * * * * * * //

dimensions      [0 1 -1 0 0 0 0];


internalField   nonuniform List<vector> 
27274
(
(1.09913 0.0850438 0)
(1.09602 0.0830703 -9.34354e-21)
(1.09581 0.0870681 -1.16962e-20)
(0.0539944 -0.0247725 0)
(0.0628768 -0.0294917 0)
(0.0334949 -0.0200704 0)
(1.00384 0.0230929 -4.35551e-23)
(1.00359 0.0224075 6.15616e-22)
(1.00421 0.0226496 -5.98928e-22)
(1.01553 0.00541774 0)
(1.01591 0.00546766 -3.4321e-21)
(1.01581 0.0057851 0)
(1.04328 -0.00195098 0)
(1.04354 -0.00127282 2.72261e-21)
(1.04425 -0.00204537 7.49316e-21)
(1.14944 -0.0855338 -1.6273e-20)
(1.1519 -0.0820311 2.74537e-21)
(1.15422 -0.0868678 -3.6028e-20)
(1.00408 0.00739205 -2.57009e-22)
(1.00387 0.00715045 6.77102e-22)
(1.00405 0.00710916 0)
(1.1629 0.0316796 -4.30767e-20)
(1.16547 0.0287202 2.8654e-20)
(1.16147 0.0283032 -3.29253e-20)
(0.939326 -0.00600967 1.60326e-21)
(0.936843 -0.00674614 1.19364e-20)
(-0.0766932 -0.00905681 -1.5592e-20)
(-0.0966095 -0.00670566 -1.03193e-20)
(-0.0746265 -0.0089183 1.90149e-20)
(1.0235 0.00182714 -4.22132e-21)
(1.02367 0.00208622 -2.46777e-21)
(1.02321 0.00197243 8.37256e-23)
(-0.176406 0.00361291 -1.77225e-20)
(-0.182448 0.00346382 -6.35341e-21)
(-0.202002 0.00635208 8.57178e-20)
(1.20268 0.0325395 -5.50216e-21)
(1.2052 0.0310599 -5.75023e-22)
(1.20564 0.0345813 1.68199e-20)
(0.986817 0.00534237 1.17773e-21)
(0.987099 0.0059574 -3.00243e-21)
(0.987497 0.00524075 -4.31101e-21)
(1.02558 0.0363554 -4.37315e-22)
(1.02641 0.035525 7.70831e-22)
(1.02512 0.0351767 2.63798e-21)
(0.988224 0.0707163 -5.93829e-21)
(0.986575 0.0724553 -2.84667e-21)
(0.985808 0.0700185 -4.26718e-21)
(-0.25411 0.0190827 7.10509e-20)
(-0.230375 0.0203555 -1.41076e-19)
(-0.245634 0.0185438 -8.62758e-20)
(1.01581 0.0107308 1.08061e-21)
(1.01626 0.0110302 4.89697e-22)
(1.01564 0.0110767 -9.59855e-23)
(1.00426 0.0363803 0)
(1.0048 0.0373332 0)
(1.00541 0.0363251 -1.95321e-21)
(0.781408 -0.224254 -2.7529e-20)
(0.790992 -0.228079 5.40563e-21)
(0.737168 -0.205188 -3.20129e-20)
(0.968209 0.087053 2.08473e-21)
(0.968234 0.0899353 6.13384e-21)
(0.965238 0.087614 7.88339e-21)
(0.975486 0.0344538 -2.83475e-22)
(0.974346 0.0333822 3.61139e-21)
(0.974017 0.0350093 3.15769e-21)
(0.0608976 0.00854306 -5.16506e-20)
(0.0976802 0.00806392 3.1998e-20)
(0.0785204 0.00756643 -9.68354e-20)
(1.04306 -0.00251113 0)
(1.04251 -0.00180697 9.36521e-21)
(1.0499 -0.0163625 -4.53773e-21)
(1.04977 -0.0178642 -9.17728e-21)
(0.999272 0.00405833 1.17634e-21)
(0.999366 0.00409366 -2.48554e-21)
(0.999365 0.00389609 -2.74926e-21)
(0.996296 -0.000301729 0)
(0.99611 -0.000157554 -3.10224e-21)
(0.94322 0.00639945 -2.79192e-21)
(0.941217 0.00659671 1.15416e-20)
(0.942275 0.00448449 -1.28716e-21)
(0.0839515 0.224745 -2.02079e-21)
(0.0970053 0.213725 3.40857e-20)
(0.107935 0.211228 1.01327e-20)
(0.993892 0.0245717 6.49654e-22)
(0.993047 0.0247299 2.07067e-21)
(0.993657 0.0256651 0)
(1.03657 -0.00211425 3.16593e-21)
(1.03712 -0.001816 4.20727e-21)
(1.03716 -0.00239099 -7.16215e-21)
(1.04953 -0.00575038 -2.53119e-21)
(1.04861 -0.00578236 8.49979e-21)
(1.04924 -0.00678627 -2.42247e-21)
(1.01538 0.0104196 1.10256e-21)
(1.01593 0.0103699 -1.5832e-21)
(1.01006 0.000554983 1.19001e-21)
(1.01028 0.000627371 -2.18417e-22)
(1.01067 0.000762 -1.66213e-23)
(1.12833 0.133225 -1.02887e-20)
(1.13193 0.137622 1.60196e-20)
(1.1341 0.132575 8.65289e-21)
(1.10213 0.0839378 -1.11114e-20)
(1.10174 0.0877833 0)
(0.955871 -0.00338735 0)
(0.954147 -0.00246336 0)
(1.17832 0.263192 -3.12031e-20)
(1.1696 0.267845 7.62998e-21)
(1.17102 0.257263 6.5662e-22)
(0.945218 0.00678564 0)
(0.943656 0.00870324 -1.76438e-21)
(1.02387 0.00230998 0)
(1.02372 0.00253558 -2.06316e-22)
(1.02418 0.0025439 -9.41967e-22)
(0.986468 0.00486099 1.06039e-20)
(0.986172 0.00557015 8.84074e-21)
(0.93598 0.315513 2.88546e-21)
(0.944932 0.323686 -8.73127e-22)
(0.948093 0.309895 0)
(1.00409 0.0237653 0)
(1.00345 0.0235009 0)
(-0.172679 0.00408579 4.90119e-21)
(-0.15166 0.000535597 -2.38698e-20)
(-0.175372 0.00412415 3.42407e-20)
(1.0166 8.48623e-05 -8.55634e-22)
(1.01681 9.86885e-05 -1.13344e-21)
(1.01579 0.00022158 -1.18901e-21)
(1.18549 0.259536 -4.14608e-20)
(1.18458 0.269865 -3.39057e-20)
(1.14396 0.0816943 6.70379e-21)
(1.1461 0.0792971 1.65503e-20)
(1.14782 0.0832081 1.95229e-20)
(0.934849 0.0275029 2.41626e-21)
(0.932945 0.0256248 -5.23053e-21)
(0.935846 0.0247194 -2.10119e-20)
(1.13587 0.080247 7.13828e-22)
(1.13323 0.083355 1.26681e-20)
(1.13179 0.0793616 -1.18612e-20)
(1.01508 0.0120303 9.39457e-24)
(1.01552 0.0122818 -3.28726e-22)
(1.0153 0.0117352 4.78883e-23)
(1.02071 0.00366471 1.22753e-21)
(1.02053 0.00342329 0)
(1.02092 0.00347836 0)
(1.0171 0.0225898 -5.41575e-22)
(1.01716 0.0232335 8.25063e-22)
(1.01649 0.0227725 5.54892e-22)
(0.999997 0.000763541 8.80029e-22)
(0.999973 0.00074999 -1.91517e-21)
(0.999994 0.000482618 4.46204e-21)
(0.226546 -0.0669859 -3.48265e-20)
(0.252815 -0.0702812 -1.43521e-20)
(0.276372 -0.0761733 1.71164e-20)
(1.00046 0.00592502 -2.24379e-21)
(1.00056 0.00601169 0)
(1.0005 0.00578409 1.90416e-21)
(1.00186 0.000337548 -4.67333e-23)
(1.002 0.000334536 3.60493e-22)
(1.00183 0.000196808 4.66385e-22)
(1.05657 -0.16332 1.37693e-20)
(1.06154 -0.165284 6.0266e-21)
(1.05655 -0.169362 -6.43451e-21)
(1.02485 0.0368571 -1.66305e-21)
(1.02602 0.0370709 -6.45229e-22)
(0.113547 0.442729 -1.24339e-19)
(0.0997844 0.48865 -1.07655e-19)
(0.145977 0.465745 -3.71767e-20)
(1.2114 0.146189 0)
(1.20952 0.141572 2.44474e-20)
(1.20529 0.145402 1.81346e-20)
(1.01469 0.0117424 -7.20851e-23)
(1.0148 0.0123711 -6.31912e-23)
(1.15777 -0.0358264 -1.96064e-21)
(1.15882 -0.0318773 1.20248e-20)
(1.15432 -0.032916 1.13217e-20)
(1.01684 0.0099573 4.4813e-22)
(1.01677 0.0103687 1.06122e-21)
(1.01727 0.0102996 -2.91137e-22)
(1.01322 0.197783 2.44467e-21)
(1.01242 0.191088 -1.57361e-21)
(1.01879 0.193475 -7.46565e-22)
(-0.15495 0.000569028 -6.60234e-20)
(-0.17305 0.00316773 -1.89523e-20)
(1.09288 0.0813002 -8.97472e-21)
(1.0959 0.0794703 -2.1791e-20)
(0.0665376 0.19652 -3.45626e-20)
(0.0854415 0.174579 -1.89236e-20)
(0.0481864 0.153563 -1.97226e-20)
(0.85958 0.0545149 -1.90776e-20)
(0.854222 0.0575153 -2.52083e-20)
(0.854447 0.0496175 -2.84844e-20)
(0.99654 -6.66812e-05 0)
(0.976756 0.0355131 -2.28253e-21)
(0.976989 0.03393 -2.48037e-21)
(1.15641 0.109293 2.50378e-21)
(1.15927 0.105396 -2.07404e-20)
(1.15466 0.105725 -2.19154e-20)
(1.00009 0.000582557 0)
(1.00007 0.000495478 -2.03805e-24)
(1.00007 0.000468287 0)
(1.2132 0.15102 2.41753e-20)
(1.21705 0.145622 0)
(1.01199 0.0118945 -5.03622e-22)
(1.01159 0.0117316 3.17498e-22)
(1.01177 0.0121761 -2.1244e-22)
(1.16018 0.0348215 -1.22454e-20)
(1.16444 0.0354501 -3.73573e-21)
(1.00418 0.00763712 5.56895e-23)
(1.00433 0.00759993 -2.00958e-22)
(0.646059 -0.117281 -2.53284e-21)
(0.677479 -0.117599 2.75691e-20)
(0.615581 -0.108664 1.32126e-20)
(1.0499 -0.00401449 -9.5159e-21)
(1.05034 -0.00318964 -7.22463e-21)
(1.05102 -0.00442061 1.73908e-21)
(1.05755 -0.0247882 4.53473e-21)
(1.05775 -0.0263824 -7.69888e-21)
(1.05912 -0.0254926 0)
(1.01666 0.020458 3.7014e-22)
(1.01647 0.0197946 7.33075e-22)
(1.016 0.0201056 0)
(1.00364 0.00684111 2.81749e-22)
(1.00363 0.00712265 7.02859e-22)
(1.23717 0.339422 2.21674e-20)
(1.24208 0.344527 -2.24037e-20)
(1.23285 0.350814 1.94389e-20)
(0.968219 0.0836331 2.55177e-21)
(0.971553 0.0858813 -8.06009e-21)
(1.05903 0.181693 0)
(1.06197 0.187118 -5.81812e-21)
(1.06463 0.180887 0)
(0.999189 0.00404212 2.58223e-21)
(0.9992 0.00423608 3.13171e-21)
(1.20022 0.0350412 -5.25865e-20)
(1.19945 0.0313503 -1.72469e-20)
(0.334887 -0.0213274 -2.06657e-20)
(0.366085 -0.0364394 -1.66237e-20)
(0.349966 -0.0387238 -1.46189e-20)
(0.762503 -0.215107 -7.75952e-21)
(0.825278 -0.239967 5.88526e-21)
(0.0649512 0.236766 -2.73102e-20)
(0.0747281 0.234774 -2.65607e-20)
(0.22887 -0.0412082 1.77309e-20)
(0.1813 -0.0342609 -6.33301e-20)
(0.212159 -0.0368731 3.11356e-20)
(1.30189 -0.0892723 1.34604e-20)
(1.29461 -0.0941633 -1.10237e-21)
(1.28731 -0.0868536 -2.6317e-20)
(1.01638 5.03031e-05 1.91166e-21)
(1.01695 0.000188567 -4.65977e-22)
(1.00004 0.00550505 -2.45154e-21)
(0.999982 0.00534857 0)
(1.00006 0.00531061 -1.02415e-21)
(1.02014 0.00149311 9.81824e-22)
(1.02043 0.00159075 8.28852e-22)
(1.02028 0.00138261 -1.10387e-21)
(-0.00364055 0.281428 -1.39145e-20)
(-0.00547017 0.285221 1.80553e-20)
(0.0446769 0.0102899 -2.13018e-20)
(0.0267451 0.00989857 4.44069e-21)
(1.02545 0.0166352 0)
(1.02578 0.0161336 -2.55445e-21)
(1.02614 0.016899 -2.42747e-21)
(1.07161 -0.00164735 1.5829e-22)
(1.07227 -0.000239225 1.55888e-22)
(1.07348 -0.00220031 -8.92589e-21)
(0.201355 -0.0649963 -4.76465e-20)
(0.181087 -0.0607619 -1.39513e-20)
(-0.199901 0.02272 -2.02589e-20)
(-0.190606 0.0219786 0)
(-0.175875 0.0264885 -7.41794e-20)
(0.0124513 0.307307 0)
(0.015118 0.303375 -4.07026e-20)
(0.00684911 0.313358 -2.86752e-20)
(-0.211276 0.0199995 0)
(-0.221035 0.0188501 -1.28733e-20)
(-0.197633 0.0226056 -7.72572e-20)
(1.09279 0.142479 -3.98454e-21)
(1.09897 0.14172 -4.05367e-21)
(1.09403 0.137496 -2.33258e-20)
(1.07141 -0.0887991 -3.8864e-20)
(1.04048 -0.0909219 1.76802e-20)
(1.11181 -0.0963646 -8.3058e-20)
(1.04242 -0.00592803 0)
(1.04269 -0.00535702 -2.03726e-21)
(1.04322 -0.00609291 0)
(1.203 -0.041151 -1.13468e-20)
(1.20384 -0.045412 0)
(1.2075 -0.0419941 0)
(-0.230248 0.00672014 -3.16244e-20)
(-0.23262 0.00626271 -3.92255e-20)
(-0.259496 0.0081733 4.76402e-20)
(1.12262 0.307212 4.62513e-20)
(1.11656 0.299621 1.37478e-20)
(1.1272 0.296674 2.3975e-20)
(1.10443 0.0264406 7.8942e-23)
(1.10635 0.0279212 5.53969e-21)
(1.10686 0.025012 -2.32252e-20)
(0.488948 -0.284244 8.07082e-20)
(0.46443 -0.309136 -6.10737e-20)
(0.997789 0.0238998 1.88652e-21)
(0.998394 0.0243025 3.41413e-22)
(0.99777 0.0248344 3.6525e-21)
(0.94944 0.017553 -5.18374e-21)
(0.951483 0.017255 8.52285e-21)
(0.950797 0.0194201 1.0753e-20)
(0.999097 0.0033583 -1.15834e-21)
(0.99908 0.00352206 -6.51967e-21)
(0.998973 0.00346034 -3.29504e-21)
(0.947834 0.0160524 -4.6642e-21)
(0.94726 0.0183068 1.57428e-21)
(0.292239 -0.0906147 1.74526e-20)
(0.24622 -0.0777568 1.64327e-20)
(0.270275 -0.0845191 0)
(1.00296 0.000758999 -9.90076e-23)
(1.00314 0.000828156 8.9375e-22)
(1.00299 0.000985459 5.79619e-22)
(0.0731133 -0.28038 8.61246e-20)
(0.0635471 -0.313297 1.38472e-19)
(0.0494229 -0.304268 1.75678e-20)
(0.675668 -0.126328 -7.35669e-21)
(0.616773 -0.116908 -2.88224e-20)
(0.0798026 0.337943 -3.54354e-21)
(0.0717435 0.36542 1.14336e-19)
(0.052037 0.36315 1.66458e-19)
(1.08739 0.143785 1.35012e-20)
(1.09231 0.148576 -5.3463e-21)
(-0.0551449 -0.0116804 4.7849e-20)
(-0.0783047 -0.00906647 -2.75694e-21)
(1.3165 0.124063 0)
(1.32556 0.12154 2.69962e-20)
(1.32391 0.127939 4.89629e-20)
(1.04971 -0.00493938 -1.27232e-20)
(1.04895 -0.0038513 -2.10539e-21)
(1.15401 0.111558 1.11978e-20)
(1.15805 0.111834 1.06436e-20)
(1.0248 0.0163434 2.10632e-21)
(1.02509 0.0171348 1.8383e-21)
(1.11858 0.316578 3.04933e-21)
(1.12926 0.313753 2.24368e-21)
(1.01698 0.0217977 -7.83193e-22)
(1.01781 0.0222413 -3.04399e-21)
(1.00002 0.00126785 1.50023e-23)
(1.00001 0.00132147 1.82628e-21)
(1 0.00100628 1.40791e-22)
(1.36168 0.238991 0)
(1.35965 0.240275 0)
(1.33919 0.221371 0)
(1.01996 0.00164597 2.00714e-21)
(1.01984 0.0013801 1.05228e-21)
(1.0205 0.00381449 -1.96618e-21)
(1.02089 0.0038599 2.49328e-21)
(1.07509 -0.00922592 -1.37131e-20)
(1.08878 -0.00659955 3.36628e-20)
(1.01307 -0.00767762 -4.50423e-20)
(1.1404 -0.00794555 -2.36447e-20)
(1.13761 -0.00968482 -3.78147e-20)
(1.13769 -0.00650991 -7.49177e-21)
(1.07121 -0.00343506 -8.67479e-21)
(1.06988 -0.00145468 -5.45162e-21)
(0.911569 0.193604 -1.98689e-21)
(0.909761 0.185206 0)
(0.917892 0.188021 0)
(1.00003 0.00125811 4.14019e-22)
(1.00001 0.00154452 -4.22231e-21)
(1.02202 0.0290105 9.80257e-22)
(1.02238 0.0284794 2.00052e-21)
(1.02301 0.0289375 1.73123e-21)
(1.02339 0.00159205 -1.94981e-21)
(1.02374 0.00165004 -1.40762e-21)
(0.992232 0.0144141 2.34329e-21)
(0.991501 0.014456 6.88405e-22)
(0.991777 0.0153749 6.60381e-22)
(1.15791 0.174901 2.29075e-20)
(1.15173 0.177013 -2.82752e-20)
(1.15285 0.170974 -8.92876e-21)
(0.01399 0.299819 0)
(0.00824181 0.31254 2.00375e-20)
(-0.00849902 0.271174 -2.05202e-20)
(-0.010307 0.27887 1.16366e-20)
(-0.0157969 0.271544 1.87901e-20)
(0.998492 0.0474079 3.29068e-22)
(0.997238 0.048556 -4.37002e-21)
(0.999311 0.0488534 1.66801e-21)
(0.997756 0.0231961 -3.30413e-21)
(0.997186 0.023679 1.5563e-22)
(0.391749 0.0262934 -6.1884e-20)
(0.364625 0.0276154 6.54501e-20)
(0.378881 0.052523 -4.49137e-20)
(0.97444 0.0317683 -5.61898e-22)
(0.974193 0.0302666 -4.65062e-22)
(0.975562 0.0309515 -3.52322e-21)
(0.910791 0.00269489 1.00087e-22)
(0.908684 0.00560433 -5.04595e-20)
(0.906992 0.00190093 1.23766e-22)
(0.328941 0.00611652 -1.93538e-20)
(0.363011 -0.0132744 1.8709e-20)
(0.314241 -0.0010241 2.61123e-20)
(1.06114 0.0109466 -2.45856e-21)
(1.0617 0.00992463 1.34302e-21)
(1.06261 0.0112495 -3.41687e-21)
(0.333625 0.01595 -2.91983e-20)
(0.256075 0.0245497 -1.76396e-20)
(1.04323 0.00357223 0)
(1.04422 0.00351471 0)
(1.04352 0.00287312 0)
(0.973198 0.0324135 -3.98324e-21)
(1.12649 0.130178 -1.0585e-21)
(1.12473 0.133778 -2.01775e-20)
(0.133247 0.399431 -1.81303e-20)
(0.0849845 0.397686 -4.76117e-20)
(1.1033 -0.114569 -1.9645e-22)
(1.10782 -0.113704 -2.22911e-20)
(1.10586 -0.119001 -1.85617e-20)
(1.00005 0.000546555 6.15826e-22)
(1.00005 0.000667973 8.56988e-22)
(1.00001 0.000452687 -2.3028e-21)
(1.06252 -0.0123802 -5.96296e-20)
(1.12938 -0.0127781 -1.81057e-20)
(0.0999102 0.319815 -9.25352e-20)
(0.0708466 0.310154 -5.65374e-20)
(1.00005 0.000633723 1.34233e-21)
(1.00004 0.00045998 1.30093e-21)
(1.16673 -0.0286842 -1.6792e-20)
(1.16295 -0.0308699 2.66227e-23)
(1.16712 -0.0328306 1.07899e-20)
(1.01177 0.102947 -3.93668e-22)
(1.00888 0.104238 3.47491e-22)
(1.01248 0.10603 1.21203e-22)
(1.05054 0.064913 0)
(1.05167 0.0627334 -1.8277e-21)
(1.04908 0.0629864 0)
(0.908968 0.0923504 0)
(0.903906 0.0928979 0)
(0.908316 0.0975321 0)
(1.07088 -0.00484872 1.84306e-21)
(1.0726 -0.00515192 -1.8495e-20)
(1.12908 -0.221085 -1.191e-20)
(1.1227 -0.219983 -1.24016e-20)
(1.12795 -0.214994 -2.94064e-20)
(0.501811 0.710999 -6.08893e-21)
(0.527273 0.668187 -5.73964e-21)
(0.470696 0.659353 1.61021e-20)
(0.173058 0.0452259 6.73037e-20)
(0.228073 0.0506117 -1.29183e-21)
(0.293237 0.0624952 2.31193e-20)
(1.12252 0.0939195 7.69009e-21)
(1.12611 0.0910925 -2.65288e-20)
(1.12109 0.0897279 -2.11469e-21)
(1.24627 0.0386283 2.23154e-20)
(1.24774 0.0416353 4.31382e-20)
(1.24379 0.0405858 2.27332e-21)
(1.01379 0.0117271 -4.75109e-22)
(1.01422 0.011676 0)
(1.0141 0.012117 0)
(-0.0702152 0.0961626 -1.88137e-20)
(-0.065804 0.0928026 -6.78332e-21)
(-0.0707694 0.112749 -1.39365e-20)
(0.0238648 0.011242 -2.73287e-20)
(0.0023469 0.0122402 -1.95013e-20)
(-0.00999509 0.0125342 4.6209e-20)
(1.0226 0.00243378 2.59085e-21)
(1.02215 0.00246895 8.93091e-22)
(1.02223 0.00217106 -4.61601e-24)
(1.02296 0.00250641 -5.63401e-23)
(1.02336 0.00250805 -2.40297e-21)
(1.02301 0.00222551 3.49232e-22)
(0.989921 0.068954 -1.7342e-21)
(0.990809 0.0712496 -3.63965e-23)
(0.139344 -0.022233 -5.13337e-20)
(0.124311 -0.0138053 1.41578e-20)
(0.111099 -0.0125932 -8.37212e-21)
(1.05875 -0.095944 -2.84865e-21)
(1.06275 -0.0953407 -2.77437e-21)
(1.06014 -0.0917695 6.51023e-21)
(1.00033 0.00540302 -1.02808e-21)
(1.00041 0.00543639 2.42734e-22)
(1.00037 0.0056388 4.46231e-21)
(1.35091 0.226961 0)
(1.33504 0.233839 3.41771e-22)
(0.312938 0.162104 1.25454e-19)
(0.603259 0.283994 -3.41072e-20)
(0.448618 0.206773 2.37087e-21)
(0.654254 -0.112361 -3.51421e-20)
(0.669158 -0.120729 2.6226e-20)
(0.670466 -0.103816 5.34641e-20)
(1.2453 0.0357478 -4.133e-20)
(1.24879 0.0369377 4.08704e-20)
(1.08528 0.006311 2.23656e-22)
(1.08563 0.00818567 1.81753e-20)
(1.08754 0.00618208 1.20416e-20)
(1.00539 0.00686089 -9.65542e-23)
(1.00563 0.00705213 -2.12933e-22)
(1.00554 0.00671283 -5.26697e-25)
(1.17682 -0.210732 3.01986e-20)
(1.17941 -0.205644 -8.19579e-21)
(1.18387 -0.210395 -3.48529e-20)
(0.152151 -0.0159447 -1.30629e-20)
(0.174816 -0.0226229 -1.17103e-20)
(0.177478 -0.0287025 -2.93678e-20)
(0.15016 -0.0134925 2.26278e-20)
(0.176499 -0.0154396 0)
(0.196289 -0.0150601 2.55827e-20)
(1.26391 -0.070177 -3.98422e-21)
(1.26002 -0.0747745 -8.71555e-20)
(1.25854 -0.0688538 -3.30319e-20)
(0.937784 0.00406806 -2.47847e-20)
(0.938971 0.0065642 4.67474e-21)
(0.935618 0.00649928 -1.03677e-20)
(-0.260442 0.0181727 6.00867e-20)
(-0.274194 0.0180322 7.24593e-20)
(1.0556 -0.158275 1.35093e-20)
(1.00435 0.0245275 0)
(1.00387 0.0249124 0)
(1.00455 0.0251964 0)
(1.07046 -0.00635001 -1.10326e-21)
(1.06933 -0.00459311 -1.58216e-21)
(1.05382 -0.113366 5.38082e-20)
(0.992842 -0.108544 0)
(1.01998 -0.115801 1.91826e-20)
(0.896187 0.214543 -5.68217e-21)
(0.894744 0.205275 -6.00826e-21)
(0.88538 0.210303 -1.80618e-20)
(0.976998 0.0368806 -8.3464e-22)
(0.9757 0.0380252 1.28922e-21)
(0.977662 0.038582 -5.54277e-21)
(1.23248 0.0474709 7.13861e-21)
(1.18163 0.0393175 -3.65493e-20)
(1.24899 0.050468 -2.79211e-20)
(1.08527 0.00406323 0)
(1.08326 0.00607143 0)
(1.11551 -0.012679 1.28494e-20)
(1.11605 -0.00996623 -8.33956e-21)
(1.11854 -0.0126574 -5.94314e-22)
(1.02285 0.0027251 4.01347e-21)
(1.05385 0.0177791 -1.14559e-20)
(1.05329 0.0167308 -2.69756e-21)
(1.05465 0.0169583 7.10579e-22)
(0.942963 0.0450263 -6.16363e-21)
(0.939998 0.0445501 4.04533e-21)
(0.94158 0.0479367 -1.33327e-20)
(0.226633 0.0997206 -1.40152e-20)
(0.151242 0.0736079 -1.49367e-19)
(0.0954066 0.0601935 -8.70229e-20)
(0.127036 -0.00877192 -6.77497e-21)
(0.111461 -0.00853956 1.90968e-20)
(-0.20844 0.011336 -3.17162e-20)
(-0.225627 0.0103283 -2.99261e-20)
(-0.204031 0.00949174 1.98061e-20)
(0.996266 0.118303 -1.76501e-21)
(0.993831 0.115041 8.7585e-22)
(0.998228 0.113611 -1.56529e-21)
(0.104124 -0.269785 -4.40665e-20)
(0.0808316 -0.24421 -1.78127e-20)
(-0.0189266 -0.00767533 6.46842e-20)
(-0.0410583 -0.00688842 3.26131e-20)
(-0.0519109 -0.0047972 -2.82688e-20)
(0.0119001 -0.0104986 0)
(-0.00283576 -0.0114386 -5.30308e-20)
(-0.0154248 -0.0115419 -2.74069e-20)
(1.11486 -0.0158575 6.4695e-21)
(1.11246 -0.0131383 -2.62203e-20)
(1.02136 0.0295526 -3.88167e-21)
(1.02195 0.0302302 -1.5534e-21)
(1.04248 0.00346189 0)
(1.04297 0.00419373 -4.57207e-21)
(0.745855 -0.207856 -1.31746e-20)
(0.731589 -0.200266 7.37427e-22)
(0.789779 -0.225352 7.82353e-21)
(0.997936 0.0460334 2.22797e-22)
(0.999705 0.0466444 -1.41695e-21)
(1.01353 0.01125 -2.24087e-22)
(1.01334 0.0116356 -1.8481e-22)
(1.24101 0.328767 0)
(1.23133 0.333669 0)
(1.07817 -0.316719 2.04552e-20)
(1.08869 -0.314859 -2.00281e-20)
(1.08632 -0.3141 4.3317e-21)
(0.703569 -0.189839 -6.20177e-21)
(0.999182 0.00325497 3.0854e-21)
(0.999104 0.00323543 4.56715e-21)
(1.05973 0.0105637 9.13199e-21)
(1.06036 0.0121025 -1.64101e-20)
(1.26526 0.237482 6.50172e-21)
(1.25999 0.236472 1.0978e-20)
(1.26528 0.229125 2.98285e-20)
(0.993056 0.0157959 3.01072e-22)
(0.993648 0.0158845 5.84496e-22)
(0.993308 0.0166361 -2.25211e-21)
(1.05678 0.175326 0)
(1.05279 0.181493 1.0588e-21)
(1.02306 0.0278703 0)
(1.02187 0.0276765 -7.41649e-22)
(0.0854491 0.0388317 -2.09731e-21)
(0.135152 0.0461586 -1.17434e-20)
(0.985363 0.0366471 -2.92008e-21)
(0.984616 0.0354128 3.2198e-21)
(0.983884 0.0368861 -2.91789e-21)
(-0.0728214 0.00180701 -4.16782e-20)
(-0.0869329 0.000400397 -3.64534e-20)
(-0.101941 0.000810323 0)
(0.219269 -0.0168778 -4.02821e-20)
(0.2449 -0.0319253 2.58244e-20)
(0.244418 -0.0246248 1.00332e-20)
(0.555899 0.00181753 0)
(0.535767 -0.000837123 -3.02462e-20)
(0.546381 0.0198505 0)
(1.02059 0.0302475 -2.16756e-22)
(1.02054 0.0289815 -1.1149e-21)
(1 0.000754797 -1.08246e-21)
(0.999974 0.00100444 -2.1565e-21)
(1.05732 -0.0232564 6.98859e-21)
(1.05605 -0.0239913 6.86922e-21)
(1.02978 0.0907268 -5.59163e-22)
(1.03023 0.0936161 5.40684e-21)
(1.03304 0.0915129 4.40525e-22)
(-0.0558295 0.00208218 2.5495e-20)
(-0.0361039 0.000499367 -3.47406e-21)
(1.01503 0.0564648 -2.00975e-22)
(1.01445 0.0580121 -2.31157e-22)
(1.01653 0.057739 1.18476e-21)
(0.99944 0.00445717 -7.60613e-22)
(0.999526 0.00446687 5.57929e-21)
(0.99951 0.00428584 5.23598e-21)
(1.00027 0.00541672 -2.2277e-21)
(1.0003 0.00523434 -1.58582e-21)
(1.14783 0.308414 -4.98064e-21)
(1.154 0.315638 1.24404e-20)
(1.15831 0.305254 5.63015e-21)
(1.29153 -0.152112 7.71383e-22)
(1.29843 -0.158135 -4.29812e-20)
(1.27359 -0.159501 1.31535e-20)
(-0.209795 0.014725 -3.21908e-23)
(1.10231 0.0241965 -4.02049e-23)
(1.10155 0.0270855 8.82975e-23)
(1.24712 0.0468248 4.46568e-20)
(1.24463 0.0498804 3.96767e-21)
(1.24297 0.0468677 8.02983e-21)
(1.0375 -0.00334209 0)
(1.0372 -0.00277909 -6.60392e-21)
(1.01282 0.012225 1.08911e-22)
(1.01309 0.0119415 5.51992e-23)
(1.01333 0.0124063 -2.7594e-22)
(0.980796 0.037125 0)
(0.98171 0.0356335 0)
(0.982354 0.0370768 -2.87514e-21)
(0.195418 -0.0109715 -3.73077e-20)
(0.188022 -0.00350099 -3.1088e-20)
(1.30904 0.110237 1.30597e-20)
(1.28541 0.104612 6.7321e-20)
(1.26418 0.105244 -3.01937e-20)
(0.0613502 -0.0842715 -3.77533e-20)
(0.0804303 -0.103702 -4.44138e-20)
(0.0597319 -0.116173 8.29116e-20)
(1.09849 -0.115459 4.27598e-20)
(1.10014 -0.110378 2.16565e-20)
(1.01174 0.0995896 -7.79274e-22)
(1.01539 0.101598 -4.99295e-22)
(1.05419 0.0187561 -1.95052e-21)
(1.05276 0.0184249 -8.102e-21)
(0.231878 0.785848 -1.80244e-20)
(0.181289 0.868463 7.8333e-21)
(0.298795 0.854146 9.60061e-21)
(1.08524 0.0022331 -3.63308e-21)
(1.08736 0.00230385 1.05208e-20)
(0.028394 -0.0127032 0)
(0.0462708 -0.0136134 -3.50708e-20)
(0.990091 0.035361 1.37846e-21)
(0.989253 0.0360946 -9.95082e-21)
(0.990469 0.0366042 3.63667e-21)
(-0.188735 0.0117176 -8.59133e-20)
(-0.20433 0.0124504 -7.05085e-20)
(-0.176984 0.0124845 7.02634e-20)
(1.03544 -0.316662 0)
(1.02662 -0.31709 0)
(1.04769 -0.320869 -7.77713e-21)
(1.16561 -0.0242751 7.91085e-21)
(1.16965 -0.0263544 -2.01841e-20)
(0.999537 0.0291328 9.2802e-22)
(0.998809 0.0294797 4.24287e-21)
(0.998922 0.0285216 1.10492e-21)
(1.00623 0.000508238 2.76683e-26)
(1.00654 0.000515246 0)
(1.00577 0.000270795 2.57761e-23)
(1.08993 0.0831144 1.11437e-20)
(1.09012 0.07946 9.86494e-21)
(1.16345 0.104836 2.39842e-20)
(1.16756 0.103922 1.00566e-21)
(1.16664 0.108187 3.11439e-20)
(0.322486 0.125833 1.52616e-19)
(0.409557 0.142452 9.80906e-20)
(1.14303 -0.00943665 1.38303e-20)
(1.14307 -0.00608727 -5.29123e-22)
(1.00857 0.00668625 -3.17752e-22)
(1.0084 0.00687639 -2.94514e-22)
(1.00878 0.00704246 -2.01061e-22)
(1.01328 0.010859 -6.00449e-22)
(1.01285 0.0107495 -1.13264e-21)
(1.01305 0.0104601 -8.48985e-22)
(0.999983 0.000957198 5.63094e-21)
(0.99999 0.000785579 1.03512e-21)
(0.999978 0.00110882 5.63237e-22)
(1.24912 0.0445404 2.70959e-20)
(1.25153 0.0423219 -2.04534e-20)
(1.08549 0.258033 3.82354e-22)
(1.08726 0.263914 -4.43342e-21)
(1.07923 0.261391 1.84675e-20)
(0.594868 -0.0306726 -6.23714e-20)
(0.574845 -0.0355667 4.32737e-20)
(0.588745 -0.0509631 -1.31134e-19)
(0.981707 0.052981 1.12123e-21)
(0.981835 0.055058 3.46207e-21)
(0.983692 0.0536971 1.22877e-20)
(0.240427 0.0673683 1.7832e-20)
(0.245862 0.0541899 1.60029e-21)
(0.184616 0.0900895 2.09093e-20)
(1.26744 -0.0669026 1.93797e-21)
(1.26819 -0.0731765 8.33432e-20)
(1.20207 -0.0369262 -1.48703e-20)
(1.1987 -0.0406082 3.24754e-21)
(1.03805 0.03001 4.23459e-22)
(1.03795 0.0289276 1.28847e-20)
(1.03918 0.0295298 3.99461e-21)
(1.21259 0.0464158 2.15808e-20)
(1.26882 0.0516217 5.21131e-20)
(1.01681 0.0211506 1.09993e-21)
(1.01735 0.0208301 8.2391e-22)
(0.995945 0.00960544 -6.1368e-21)
(0.995588 0.00979115 -6.52521e-21)
(0.99594 0.0101134 3.30415e-21)
(1.06295 0.83705 6.69382e-20)
(1.05288 0.787014 -1.19683e-20)
(1.11014 0.809257 -2.29973e-20)
(1.00905 0.000709933 2.23095e-22)
(1.00935 0.000900529 2.89285e-22)
(1.00912 0.000559549 -8.64743e-23)
(1.0043 0.00800069 -8.92795e-22)
(1.00407 0.00775401 9.48932e-22)
(1.20649 -0.0289516 -2.14026e-20)
(1.20386 -0.0323413 -3.432e-21)
(1.20854 -0.0345629 0)
(1.00314 0.0164299 -6.66971e-22)
(1.00293 0.0168151 -3.8558e-23)
(1.0034 0.0170148 2.74137e-21)
(-0.0188587 0.287579 1.45731e-20)
(-0.0130007 0.297628 -1.44459e-20)
(-0.0128954 0.293133 -1.26135e-20)
(1.08522 0.000295128 -3.58404e-21)
(1.08343 0.00203684 5.01345e-22)
(0.927054 0.0165619 8.85049e-22)
(0.924376 0.0180853 -5.09795e-21)
(0.924885 0.0145413 -8.02158e-21)
(1.00867 0.000470535 -2.31013e-22)
(1.00886 0.000945079 -2.06409e-22)
(1.11971 0.0958999 -1.67913e-20)
(1.1241 0.0969155 -3.10644e-22)
(-0.16283 0.00122088 -2.21202e-21)
(-0.187752 0.00313001 -4.82764e-20)
(-0.180091 0.00202605 2.41359e-20)
(1.05049 -0.0059366 1.60232e-21)
(1.01528 0.00515403 0)
(1.01518 0.00545334 0)
(0.989317 -0.000288916 -3.0684e-21)
(0.988797 2.92557e-05 8.51403e-21)
(0.989418 0.000237169 -8.12548e-21)
(1.21237 -0.086864 0)
(1.21167 -0.0816393 1.75603e-20)
(1.20703 -0.0855631 2.98139e-20)
(0.0946199 -0.0444414 6.21908e-21)
(0.0877077 -0.0437725 4.14717e-20)
(0.0628066 -0.0359207 -3.95075e-20)
(1.00001 0.000876763 -1.1934e-21)
(0.999989 0.00123514 5.66989e-21)
(1.00003 7.28913e-05 3.93348e-22)
(1.00001 4.49683e-05 -5.69283e-22)
(1.00002 5.2174e-05 8.71563e-23)
(1.06708 -0.316256 -1.54114e-20)
(1.06355 -0.314604 2.22117e-20)
(1.10349 0.14138 -1.98324e-20)
(1.10542 0.137275 -1.61924e-21)
(1.1082 0.141583 -2.47793e-21)
(1.09486 -0.118242 -1.65289e-20)
(1.09061 -0.121435 -3.13309e-20)
(1.09612 -0.122469 4.89417e-21)
(0.63503 0.385698 -5.44683e-21)
(0.654216 0.405608 3.24953e-20)
(0.621777 0.410377 4.35713e-20)
(0.99597 0.00909228 5.37692e-22)
(0.996278 0.00942864 -1.35384e-21)
(1.16104 0.101575 -1.14349e-20)
(0.962829 0.0279818 -9.38418e-21)
(0.96445 0.0289699 2.76589e-21)
(0.962629 0.0303147 1.13145e-20)
(1.00003 9.89589e-05 0)
(1.00005 0.000102478 6.85263e-22)
(0.650979 0.361598 -1.30803e-20)
(0.62059 0.362141 -5.91003e-20)
(1.13503 -0.223056 -1.12434e-20)
(1.12908 -0.228693 0)
(1.06556 -0.268408 -2.5896e-20)
(1.07162 -0.264305 4.98559e-21)
(1.0639 -0.262563 -1.78106e-20)
(1.21332 -0.0910519 -1.10951e-20)
(1.21784 -0.0873883 -2.14331e-20)
(1.01984 0.00180531 4.43833e-22)
(1.02013 0.00187979 -1.68098e-21)
(0.642443 -0.100122 -1.65173e-20)
(0.639424 -0.117492 -4.80971e-20)
(1.04164 -0.00589408 1.25672e-21)
(1.04101 -0.00536309 1.25057e-21)
(1.00301 0.0362697 -1.9676e-21)
(1.0038 0.0353103 4.39702e-22)
(1.32244 0.119431 2.88225e-20)
(1.32282 0.117073 0)
(1.00048 0.0223143 -9.15479e-22)
(0.999922 0.0220093 0)
(1.00041 0.0215 0)
(1.25083 0.0473909 -2.62345e-20)
(0.927836 0.30463 -5.10238e-23)
(0.921603 0.318038 -4.89506e-21)
(1.0001 0.00564789 2.64109e-21)
(0.999996 0.00569755 -2.16902e-21)
(1.01777 0.00389768 1.74876e-21)
(1.01774 0.00366491 -1.55062e-21)
(1.01804 0.0038117 8.62365e-22)
(1.243 0.0522124 8.04443e-21)
(1.24641 0.0520696 -2.54397e-20)
(0.17535 0.0262042 -6.38891e-20)
(0.0567487 0.0499112 -2.68202e-20)
(0.211493 0.00959774 -9.43079e-21)
(0.00452574 -0.00927779 4.54222e-20)
(0.0190058 -0.007801 7.28837e-21)
(1.01859 0.0408595 5.58764e-22)
(1.01784 0.0418459 -1.75265e-21)
(1.01751 0.0404554 -5.1348e-22)
(0.914581 0.0918045 1.24076e-20)
(0.910715 0.0870575 0)
(-0.175999 0.00396121 -3.071e-20)
(-0.205076 0.00693237 -2.87636e-20)
(1.03025 0.0030671 6.18464e-21)
(1.0306 0.00339317 -8.63722e-22)
(1.03 0.0034009 -7.82314e-22)
(1.30354 -0.147139 -1.33564e-20)
(1.27856 -0.144337 4.85347e-20)
(1.0519 -0.025797 1.71972e-21)
(1.05336 -0.0253113 -7.32092e-22)
(1.05191 -0.02439 9.89463e-21)
(0.962866 0.147037 3.04055e-21)
(0.957044 0.145768 8.25059e-21)
(0.961072 0.141277 1.69958e-21)
(1.30928 -0.137657 3.72123e-20)
(1.30725 -0.142672 8.47489e-21)
(1.01966 0.00194288 -1.51591e-21)
(1.01954 0.00170586 -3.62856e-21)
(0.529367 0.766171 -1.4232e-20)
(0.457896 0.755106 2.17102e-20)
(1.00166 0.0347413 1.0852e-21)
(1.00239 0.0340258 3.39104e-21)
(1.00141 0.0336545 2.06717e-21)
(0.903452 0.199868 -1.51744e-22)
(0.912997 0.202826 -2.04943e-21)
(1.00126 0.000316979 -8.72037e-22)
(1.00115 0.000257206 9.37769e-22)
(1.00115 0.000404526 -1.08761e-21)
(1.09357 -0.114551 3.22004e-21)
(-0.177964 0.00214634 -5.92667e-21)
(-0.198757 0.00338975 -8.02197e-20)
(-0.178145 0.00252237 -5.35064e-21)
(0.999957 0.000313791 -1.20906e-21)
(0.99995 0.000318499 -8.85725e-21)
(0.999927 0.000426676 5.06008e-21)
(0.107245 0.104712 -4.36259e-20)
(0.2003 0.131816 9.98594e-20)
(1.11618 0.0285427 5.09041e-21)
(1.11711 0.0259136 1.63721e-20)
(1.11955 0.028491 1.68327e-21)
(0.995224 0.00244799 2.44091e-23)
(0.994931 0.002385 3.10817e-21)
(0.995023 0.00273862 2.62387e-23)
(1.14 0.0807681 1.16508e-20)
(1.14151 0.0849842 -1.28714e-21)
(1.16038 -0.0385292 -1.24114e-20)
(1.15582 -0.0394574 5.35095e-21)
(1.00311 -0.0748235 9.52484e-22)
(0.973183 -0.0689926 3.23102e-20)
(1.05052 -0.0744841 1.91453e-20)
(0.272376 -0.0838407 6.5384e-22)
(0.308666 -0.0901865 -3.20783e-22)
(0.328341 -0.0921035 -1.12181e-20)
(1.08911 -0.111015 2.89038e-20)
(1.11852 -0.120712 1.80008e-20)
(0.990955 0.0348286 2.68224e-21)
(0.989839 0.0343105 2.37283e-21)
(1.0169 0.00974258 -4.85391e-22)
(1.01652 0.00977634 1.54762e-21)
(0.068691 0.0134124 7.51774e-21)
(0.0345511 0.0160304 5.15205e-20)
(0.0519635 0.0129785 3.06905e-22)
(0.702576 -0.0679395 -3.42473e-20)
(0.6889 -0.0694577 0)
(0.699663 -0.081475 -2.03131e-20)
(0.999769 0.00526082 2.56376e-21)
(0.999823 0.0050778 1.40606e-21)
(0.999746 0.00509762 1.12193e-21)
(1.01255 0.0542941 -1.29254e-23)
(1.01289 0.0529419 0)
(1.01118 0.053146 0)
(1.06816 -0.274221 -1.22647e-20)
(1.06038 -0.271359 1.14419e-20)
(1.17132 -0.212776 -1.43591e-20)
(1.17553 -0.216918 -3.87472e-21)