/*--------------------------------*- C++ -*----------------------------------*\
| =========                 |                                                 |
| \\      /  F ield         | OpenFOAM: The Open Source CFD Toolbox           |
|  \\    /   O peration     | Version:  v2012                                 |
|   \\  /    A nd           | Website:  www.openfoam.com                      |
|    \\/     M anipulation  |                                                 |
\*---------------------------------------------------------------------------*/
FoamFile
{
    version     2.0;
    format      ascii;
    class       volScalarField;
    location    "900";
    object      nut;
}
// * * * * * * * * * * * * * * * * * * * * * * * * * * * * * * * * * * * * * //

dimensions      [0 2 -1 0 0 0 0];


internalField   nonuniform List<scalar> 
18758
(
0.00676894
0.0135636
0.00683876
0.00683767
0.00632605
0.00682801
0.00674046
0.00457761
0.00639083
0.00642657
0.0103622
0.0141273
0.00343211
0.00425999
0.00673685
0.00670951
0.0140371
0.00668835
0.00673354
0.00480453
0.00795671
0.000577551
0.0068388
0.00681478
0.000547005
0.00469908
0.00418547
0.000744233
0.00114844
0.0158804
0.00677616
0.00454111
0.00488426
0.00440859
0.00583405
0.0158523
0.00328116
0.00633741
0.00791295
0.00677363
0.0181771
0.0060929
0.013447
0.00678038
0.00676716
0.00573579
0.00639099
0.00109206
0.0138675
0.00661811
0.0115585
0.0174288
0.00669401
0.00653923
0.000475391
0.00350824
0.0067968
0.00560587
0.00129765
0.00679609
0.00679163
0.0067886
0.00275698
0.00976355
0.00680159
0.0084578
0.00684347
0.00671341
0.000778099
0.00669198
0.0160677
0.0120037
0.00674554
0.00245541
0.00151438
0.00328034
0.00436609
0.0137146
0.00636804
0.0122952
0.000881898
0.00874226
0.013588
0.00126743
0.00673477
0.000546973
0.00285572
0.00228587
0.00270762
0.000546967
0.00948981
0.00685695
0.00161034
0.0138617
0.00674324
0.00670323
0.00673502
0.0038917
0.0135602
0.00675192
0.0022217
0.00240431
0.0067122
0.00670285
0.0088979
0.00806147
0.00103261
0.0104396
0.00325613
0.00428227
0.00670985
0.011724
0.0065361
0.00683978
0.00225294
0.00121431
0.00398163
0.00677845
0.0052401
0.0066902
0.00681452
0.00431299
0.0067208
0.00674317
0.0103778
0.00653569
0.00680215
0.00674321
0.000533553
0.00754754
0.00128231
0.00688193
0.00225211
0.0152536
0.00677506
0.00682867
0.00903719
0.00672523
0.000623697
0.000938718
0.00650449
0.0155078
0.00447221
0.00355295
0.00951995
0.00212533
0.0102605
0.000576503
0.0113162
0.0210613
0.00634007
0.0123378
0.00678445
0.00619649
0.0181634
0.00209193
0.00155315
0.00047892
0.00133182
0.0131847
0.00124693
0.00677514
0.0128687
0.0108086
0.00396095
0.00679842
0.00677262
0.00635837
0.00764428
0.0149188
0.0121617
0.00682346
0.000884081
0.016463
0.0028723
0.00677022
0.00673983
8.33584e-05
0.00290719
0.00490507
0.00668994
0.00655245
0.000498709
0.00389533
0.0190873
0.00672573
0.0159669
0.00232855
0.0140826
0.00118368
0.0122495
0.00672558
0.000894505
0.0101771
0.00667754
0.00439306
0.000761105
0.00677907
0.0142668
0.00682276
0.00682267
0.000618531
0.00250138
0.00670765
0.00671077
0.0132002
0.00680706
0.00596706
0.00656523
0.0107583
0.00683151
0.00136544
0.00682378
0.00673582
0.00668635
0.00673942
0.00675195
0.00143657
0.00679137
0.0171042
0.0107673
0.00680026
0.00455287
0.000575063
0.00249997
0.0162431
0.00158901
0.000531486
0.0022045
0.00680241
0.00562536
0.00258353
0.00292164
0.0068586
0.00670742
0.00680206
0.0013561
0.0137289
0.00135816
0.00681247
0.00671295
0.00127849
0.000575566
0.00682958
0.0205689
0.00269663
0.00670727
0.00670308
0.00680548
0.00675465
0.0122781
0.00678564
0.0197532
0.00680128
0.00688336
0.00315964
0.00679422
0.0145263
0.00672192
0.0110444
0.00651429
0.00675133
0.00670754
0.000862852
0.00178821
0.00183496
0.00675425
0.00062205
0.00678567
0.00682655
0.00346751
0.0182622
0.00682647
0.00678789
0.00679868
0.00670492
0.00319467
0.00677575
0.00672032
0.00447045
0.0067026
0.0068764
0.00671198
0.0123425
0.00673782
0.00678337
0.00667252
0.000577081
0.00670498
0.00670346
0.00682498
0.00494161
0.00679607
0.00682231
0.00683926
0.0067984
0.0168303
0.00689551
0.00683215
0.00740812
0.00337503
0.00680616
0.00680185
0.00255012
0.00620985
0.00668908
0.0048709
0.00852915
0.00678475
0.00364474
0.00671244
0.00184873
0.000735196
0.000766168
0.00132936
0.00362853
0.00670679
0.00255564
0.000720063
0.00683999
0.000795696
0.00129412
0.0208802
0.00671275
0.00670786
0.00881286
0.0129836
0.00673736
0.0115078
0.0011963
0.00649853
0.0159226
0.00671117
0.00679806
0.00671636
0.00683044
0.00679053
0.00676981
0.00422767
0.00681278
0.00679766
0.00680865
0.00587317
0.00169083
0.00674013
0.00258305
0.0124021
0.0067322
0.00381038
0.00669044
0.000479963
0.0147471
0.000826375
0.00672479
0.0128851
0.0108777
0.00230266
0.00681143
0.00654794
0.00673569
0.00678928
0.00118579
0.00672848
0.0132217
0.00180763
0.00707614
0.00670765
0.00287966
0.00652284
0.00336046
0.0137283
0.00133838
0.00251281
0.00126481
0.0178871
0.00082139
0.0068748
0.00624458
0.000505425
0.00790137
0.0130004
0.00676839
0.0068178
0.000449445
0.0144468
0.0138744
0.00472411
0.0112001
0.00642551
0.0150026
0.00458172
0.00671012
0.00430486
0.00669811
0.00677795
0.00683308
0.00672851
0.00673194
0.00689698
0.00683379
0.00680165
0.00166062
0.00971638
0.00301146
0.0130334
0.0129902
0.00571058
0.00989318
0.000553871
0.00681487
0.00682378
0.0143732
0.00468411
0.00681022
0.00615731
0.00374691
0.0111605
0.00679493
0.00485344
0.00676225
0.00352033
0.00668319
0.0143805
0.00180684
0.0155872
0.00682763
0.0143792
0.00142235
0.00674174
0.00678979
0.00683742
0.00256533
0.00684289
0.0068131
0.000961127
0.00250743
0.00680678
0.00673748
0.00479074
0.00323068
0.0148803
0.00689365
0.00686067
0.0068649
0.00668227
0.00673796
0.000606676
0.00671332
0.00987886
0.00683739
0.00308263
0.00683283
0.00105218
0.0068984
0.00673131
0.0133298
0.00668623
0.00667434
0.00329783
0.00667455
0.00670783
0.00682054
0.0068324
0.00184418
0.00710036
0.00680937
0.00280256
0.00602698
0.000119466
0.0125564
0.00226995
0.01216
0.00677011
0.000607235
0.00120301
0.00182597
0.00492222
0.0170965
0.00522054
0.00653403
0.00678246
0.00674211
0.00670736
0.006713
0.00670757
0.00671294
0.00425578
0.00684341
0.00667693
0.00127841
0.00687007
0.00683002
0.00677189
0.00670014
0.00532802
0.00851777
0.0068091
0.0107986
0.0068643
0.00300249
0.000504907
0.0071419
0.00115238
0.00672727
0.00672483
0.00725648
0.0139798
0.00564165
0.00679611
0.0116957
0.0114314
0.00667275
0.0068502
0.00892328
0.00648496
0.000883993
0.00589594
0.00679701
0.00268248
0.00670558
0.00675748
0.00685658
0.00685657
0.00679802
0.00679523
0.00944686
0.0066783
0.0109152
0.00524758
0.00667494
0.00667874
0.00683783
0.00339539
0.00293222
0.00809066
0.00675185
0.00236383
0.00198245
0.00187757
0.00680324
0.00680533
0.00680258
0.00681388
0.00681176
0.00734371
0.0185885
0.00670051
0.00679264
0.00509845
0.0049437
0.00668596
0.00674614
0.0067196
0.00667678
0.0067747
0.0067999
0.00674408
0.00670878
0.00112042
0.00674858
0.00677956
0.00113464
0.00707048
0.00657506
0.00679702
0.00676442
0.00682589
0.00672804
0.00670401
0.00669701
0.0100133
0.00503351
0.00431952
0.00676203
0.00393125
0.00679619
0.00682856
0.00274994
0.00669092
0.0068478
0.00462069
0.00683702
0.00421172
0.0018645
0.00681165
0.00672717
0.0143289
0.00677685
0.00430171
0.00518236
0.00682514
0.00683563
0.00134046
0.0043217
0.00287575
0.00676497
0.0107469
0.00426583
0.0117502
0.00670786
0.00688681
0.00667434
0.00684168
0.00674303
0.00654043
0.000267316
0.00104632
0.00680488
0.00389566
0.00670389
0.00803377
0.00795058
0.00670674
0.00432484
0.00332825
0.0135677
0.00243352
0.00633993
0.00673287
0.00657876
0.00271547
0.00681594
0.00673536
0.00668657
0.00672231
0.00266197
0.00377265
0.019451
0.00540575
0.00639201
0.00662187
0.00674687
0.00669852
0.0117314
0.000584082
0.0067736
0.00451498
0.0122265
0.0074428
0.00684097
0.00684614
0.00128965
0.0145371
0.00667395
0.00631393
0.00679338
0.00688876
0.00327652
0.00675394
0.00681082
0.00677766
0.00670418
0.00676863
0.00407006
0.00268314
0.0146925
0.00673985
0.00678034
0.00231032
0.00675095
0.00554744
0.0102465
0.00679779
0.00736895
0.00675587
0.00679151
0.00799593
0.014933
0.014276
0.00178477
0.00468966
0.00446032
0.00667826
0.00390859
0.00604196
0.00259042
0.00680187
0.0145366
0.00373222
0.00173463
0.00798275
0.0156089
0.00677362
0.0101655
0.00682205
0.00439433
0.00100944
0.00678737
0.00322767
0.00398884
0.00422343
0.00274881
0.00673404
0.00667754
0.00681149
0.00687783
0.00237584
0.00158461
0.00679407
0.00184649
0.00664282
0.00682776
0.00299536
0.00667587
0.00321693
0.00671227
0.00672389
0.0199984
0.00669886
0.0067121
0.011182
0.00125532
0.00101205
0.00672418
0.0068239
0.00107091
0.00681762
0.0152377
0.00339608
0.00580786
0.0051148
0.00682635
0.00667545
0.00480028
0.00667612
0.000932297
0.000656576
0.00488345
0.0134127
0.00681822
0.00653432
0.00335174
0.0157785
0.00332021
0.0103363
0.0170216
0.00684936
0.0109191
0.00668866
0.0106634
0.00681939
0.0068166
0.0183718
0.01208
0.00671143
0.00681836
0.00462991
0.00672003
0.00672306
0.0171911
0.0100755
0.00679941
0.00671727
0.00668965
0.0140827
0.00113491
0.00612119
0.00670456
0.00410688
0.00681755
0.00682513
0.0030282
0.0140752
0.00670626
0.00443398
0.014783
0.0068076
0.00568558
0.00674268
0.00234332
0.00670641
0.00678617
0.00322877
0.00682811
0.00271305
0.0067124
0.0146509
0.00680954
0.00333126
0.00115018
0.00401371
0.00447326
0.00682788
0.00682484
0.0184536
0.00426008
0.00157601
0.00670456
0.00675535
0.00256757
0.0107858
0.0121225
0.00679934
0.00671312
0.00680538
0.0068157
0.00677218
0.00673385
0.00682528
0.0122402
0.00671317
0.00672897
0.0180075
0.00670845
0.00374105
0.000851321
0.0070883
0.0205628
0.0162911
0.00997352
0.0067322
0.00675786
0.00669185
0.00679937
0.00670863
0.00675811
0.00678864
0.00681477
0.0105632
0.000538254
0.0137105
0.00682451
0.0067439
0.00187653
0.0017666
0.000965324
0.00684142
0.00672581
0.00678489
0.0126726
0.012014
0.00465613
0.00685311
0.000895172
0.000575901
0.00538979
0.010818
0.017122
0.00676905
0.00684443
0.00678361
0.0039502
0.00681343
0.00668673
0.000894335
0.00956949
0.00672346
0.0197756
0.00908305
0.0067122
0.00673388
0.00671173
0.00680822
0.0067413
0.00669517
0.00282313
0.00675025
0.00681445
0.00449205
0.0123312
0.00673264
0.0166305
0.000526669
0.00678109
0.00680687
0.00679975
0.00681281
0.00671075
0.00678141
0.0068205
0.00681504
0.00671816
0.00680896
0.018595
0.0027261
0.00682667
0.00680953
0.00844555
0.00677807
0.00668837
0.0163637
0.00670802
0.00305281
0.00299768
0.00672767
0.0067054
0.00672699
0.00447202
0.00276254
0.00682791
0.0163314
0.000878551
0.0006114
0.0146079
0.00680999
0.0038511
0.00667849
0.0131945
0.00481666
0.0067943
0.000461853
0.00428732
0.00681885
0.00191317
0.0103171
0.00679886
0.00325384
0.00669133
0.00681601
0.00278952
0.00675058
0.00677583
0.00524519
0.00670827
0.00678839
0.0150003
0.00680834
0.00670961
0.00670642
0.0182411
0.00680993
0.00680335
0.00264207
0.00246571
0.015462
0.00186814
0.00940745
0.00676197
0.00667586
0.0067282
0.0158413
0.00684811
0.00674702
0.00386362
0.00677847
0.012219
0.00681593
0.00678104
0.00958125
0.00672907
0.0012428
0.00238247
0.0066757
0.00674867
0.00350375
0.00671429
0.00482471
0.00796637
0.00669724
0.00674591
0.00398279
0.00670423
0.00386289
0.0139127
0.00677066
0.0107927
0.00671197
0.00680255
0.0067385
0.00176494
0.00674068
0.00868611
0.0068725
0.00671227
0.00620884
0.0169437
0.00256314
0.00651426
0.00533555
0.0122416
0.00242408
0.00667382
0.0120472
0.00686027
0.00639564
0.00511438
0.00679957
0.00668343
0.00681703
0.0146174
0.00672762
0.0161239
0.00680849
0.0106321
0.00052856
0.00678298
0.00668265
0.00673049
0.00277261
0.0127199
0.00679762
0.0143686
0.00679956
0.00670693
0.0105448
0.00672567
0.000366998
0.00672805
0.0037881
0.0067108
0.00673061
0.00671259
0.00672987
0.000856824
0.00645247
0.00156581
0.00247936
0.0068131
0.00672526
0.0134939
0.00671153
0.00916154
0.00675603
0.0137042
0.00298345
0.0150289
0.00679359
0.00679637
0.00670768
0.0141214
0.00686512
0.0116359
0.00132338
0.00671246
0.00290967
0.00671092
0.00669878
0.00666899
0.00678869
0.0134178
0.00680062
0.00675571
0.00678454
0.00411179
0.0165756
0.0152057
0.00682089
0.00670493
0.00680579
0.00681848
0.00672443
0.00690423
0.00681059
0.00672936
0.00677129
0.00679012
0.000434471
0.000910812
0.00683204
0.00677514
0.00152699
0.00677295
0.00146466
0.0121512
0.00681762
0.0132636
0.00687521
0.00679531
0.00680763
0.00427523
0.00647962
0.00678269
0.00325397
0.0141568
0.00731975
0.00155642
0.00882473
0.00669613
0.00249521
0.00678586
0.00674519
0.0136957
0.00677681
0.00683392
0.00326169
0.00503208
0.00682936
0.00677868
0.0124759
0.00329174
0.00678116
0.00683203
0.00379161
0.00729344
0.00674793
0.00334721
0.00679017
0.0025988
0.00676764
0.00681554
0.00682051
0.00924536
0.00639621
0.00672432
0.0155136
0.00668516
0.00681721
0.0068311
0.00552579
0.00682573
0.00539884
0.000595359
0.0144648
0.0153526
0.0153905
0.0135194
0.00677586
0.0134685
0.0151701
0.00681354
0.00522126
0.00682328
0.00674694
0.00529019
0.0067774
0.00157697
0.00117899
0.00684718
0.00668696
0.0015256
0.0067786
0.0134732
0.00680747
0.00680462
0.00674731
0.00169571
0.00700599
0.00279885
0.0154064
0.00674579
0.00674907
0.000803073
0.00655531
0.0067375
0.0010821
0.00681112
0.00669345
0.0138998
0.00081111
0.00293317
0.00682987
0.00683793
0.00681889
0.00672368
0.015046
0.000876155
0.0133361
0.0077448
0.0203391
0.00681638
0.0127555
0.00802038
0.00949036
0.000567459
0.00175591
0.006384
0.0108774
0.000586524
0.00243219
0.00668617
0.00673984
0.00682259
0.00139061
0.00670556
0.00682871
0.00530685
0.00903251
0.00163916
0.0168321
0.00115709
0.0135518
0.00656103
0.00666505
0.00672343
0.00280567
0.00157343
0.00684735
0.0024076
0.0117001
0.0131084
0.01215
0.00161432
0.00110987
0.00667559
0.00486914
0.00680506
0.0146084
0.00813294
0.00273171
0.000513976
0.000588451
0.00674463
0.00674723
0.00865839
0.00824012
0.00044877
0.00681554
0.00680522
0.0066488
0.0143627
0.00684712
0.0173765
0.00681883
0.0119766
0.00831143
0.00331505
0.00668722
0.00143515
0.00705245
0.00667617
0.00233753
0.00592738
0.00288944
0.00670901
0.00467196
0.00888642
0.0067383
0.00671013
0.0189042
0.00685503
0.00680224
0.016045
0.00605476
0.00681018
0.00333101
0.0160407
0.00321713
0.00478001
0.00479341
0.0154325
0.00324505
0.00676694
0.00673954
0.00618107
0.00670467
0.0176032
0.00669921
0.00670474
0.0136482
0.00677248
0.00674955
0.00483366
0.00667502
0.00388446
0.00672659
0.00675841
0.00673543
0.000830892
0.00679688
0.0170412
0.00045377
0.0141881
0.0126515
0.00335623
0.00669919
0.00670386
0.00590204
0.00324619
0.00680488
0.0187687
0.0017803
0.00168541
0.00679454
0.00669469
0.00669612
0.00678196
0.00681245
0.00674102
0.0067839
0.00674063
0.00672362
0.00863401
0.0073284
0.0154874
0.00680737
0.00673012
0.00698644
0.00535393
0.0103954
0.0112382
0.0157758
0.0121839
0.00122741
0.00901984
0.00676462
0.00227836
0.00443253
0.0123119
0.00673355
0.00374347
0.00872558
0.000633277
0.00673621
0.0104616
0.006735
0.00671224
0.00687798
0.00324792
0.0112906
0.0171948
0.00676895
0.00669685
0.00678758
0.00669086
0.0061964
0.00672128
0.00877581
0.00108023
0.0065252
0.00680773
0.00673621
0.0067351
0.00811712
0.00237757
0.00684397
0.00684019
0.00661557
0.00668927
0.00672658
0.00669315
0.00681266
0.00673323
0.00682783
0.00672458
0.00922206
0.0038542
0.00119659
0.00334837
0.00679253
0.000400938
0.00678486
0.000487877
0.00679449
0.00317183
0.00551345
0.00756321
0.00227509
0.000840224
0.0068051
0.00675248
0.00156781
0.00684823
0.00672513
0.00676024
0.00671117
0.00235158
0.00139438
0.00356385
0.00225686
0.00675507
0.00679265
0.00172607
0.00392387
0.00667381
0.00457061
0.00137695
0.000596841
0.00222315
0.00682755
0.00681175
0.0110308
0.00630268
0.0067061
0.00674056
0.000570932
0.00669589
0.00670578
0.0194756
0.00156234
0.00671898
0.0067824
0.00682221
0.0127742
0.0032951
0.00538099
0.0140042
0.00672609
0.00675281
0.00403406
0.00161033
0.00680834
0.00502806
0.00660517
0.00698305
0.00670499
0.00597194
0.000977734
0.00126118
0.00544423
0.0154272
0.00412117
0.013385
0.0038425
0.00679859
0.00957624
0.0157289
0.006872
0.00792185
0.00681911
0.00059455
0.000873691
0.00706132
0.00669369
0.00626839
0.00189423
0.0194552
0.00673969
0.00668945
0.0115441
0.00669538
0.00673188
0.00671293
0.00682156
0.0067702
0.00681292
0.00673616
0.00673097
0.013681
0.00386861
0.00676092
0.00676245
0.00376806
0.0168252
0.00667518
0.00105766
0.00363548
0.00435653
0.00681639
0.00671309
0.0081179
0.00681945
0.000993272
0.000769517
0.00670952
0.00682703
0.0147004
0.00682626
0.0151306
0.00627939
0.00712341
0.00681492
0.00681822
0.00672764
0.00682428
0.00671318
0.0151347
0.00351133
0.0067855
0.00846854
0.00055776
0.00683274
0.00678473
0.00670965
0.0116732
0.00832088
0.00650302
0.00647434
0.00415069
0.0153528
0.0163275
0.00675813
0.00676464
0.00340196
0.00423845
0.0136097
0.0195633
0.00678066
0.00811632
0.015781
0.00686681
0.00670572
0.00678206
0.00654288
0.00675061
0.00680739
0.00670672
0.00614716
0.00792502
0.00678375
0.00681364
0.00270949
0.00670878
0.00676705
0.00680709
0.0119138
0.00669827
0.00680302
0.0068705
0.000684
0.00197117
0.00106235
0.00680734
0.00687921
0.00672873
0.00673409
0.00670899
0.00680238
0.00637096
0.00685677
0.00572017
0.00719387
0.00678099
0.00361538
0.00400533
0.00677546
0.0189309
0.00677227
0.00416002
0.000559604
0.0165527
0.00656417
0.00372112
0.00320376
0.00630252
0.0066949
0.0159191
0.00290349
0.00669981
0.000965095
0.015572
0.00679568
0.00523104
0.0126976
0.00111502
0.00681368
0.0132592
0.00301315
0.00672618
0.00721033
0.000437709
0.00887094
0.00677928
0.00709385
0.00167295
0.00673511
0.00107702
0.00238148
0.00682525
0.00537829
0.016679
0.0133859
0.00395211
0.00642
0.00669795
0.00763196
0.0155153
0.000830849
0.00913581
0.00680015
0.0036698
0.00680469
0.00674845
0.00376328
0.00680343
0.00461954
0.0118241
0.00680571
0.014986
0.00286531
0.0108911
0.00298031
0.00096295
0.00667348
0.00681426
0.00386125
0.00667325
0.00209556
0.0119715
0.0138711
0.00777713
0.00131279
0.0130738
0.0167721
0.00680144
0.00681779
0.014665
0.00164124
0.00680938
0.00673082
0.00387349
0.00702727
0.00250792
0.00672517
0.00680334
0.00658094
0.00674176
0.00151723
0.0135014
0.00676644
0.0131543
0.00678792
0.00135709
0.00254933
0.020238
0.00672806
0.00862295
0.00681378
0.00677271
0.00564266
0.0111174
0.00145369
0.00516431
0.00683161
0.00674424
0.00248322
0.00642803
0.00680464
0.000516718
0.00741436
0.0017393
0.00316893
0.00672588
0.00681251
0.0146515
0.00667359
0.00679872
0.00327603
0.00678131
0.00684221
0.00672392
0.00672624
0.00344835
0.00671163
0.00181024
0.00633318
0.00679884
0.0163313
0.0125762
0.00338338
0.00668749
0.00672437
0.00701502
0.00672711
0.00672128
0.00678086
0.000668687
0.0068001
0.00687676
0.00459494
0.00497438
0.0129608
0.00674261
0.00722606
0.00641132
0.00241041
0.00228969
0.00482965
0.00679154
0.00673451
0.00573938
0.00620178
0.00688324
0.00438705
0.00120413
0.00672161
0.00294567
0.00679568
0.000904774
0.00406678
0.00368681
0.0141222
0.00671314
0.00670752
0.00615657
0.00668869
0.0014855
0.00737962
0.00791284
0.00137394
0.00679641
0.00468527
0.00674135
0.00494705
0.000667148
0.0134718
0.00674265
0.00679139
0.00143611
0.00681958
0.00810237
0.00679713
0.0143354
0.0108472
0.00343341
0.013971
0.0122432
0.00677376
0.00673926
0.00675461
0.00615479
0.0154637
0.00682118
0.00686156
0.00681622
0.00668821
0.00698205
0.0067803
0.00670375
0.00322002
0.00681827
0.00670173
0.00656702
0.0179621
0.00849127
0.007448
0.00677694
0.00332361
0.00684828
0.00291754
0.000596413
0.00385544
0.0115013
0.00679832
0.00400859
0.00667662
0.0036529
0.00735789
0.00176761
0.00772145
0.00684638
0.000804702
0.00677396
0.0159424
0.0154141
0.00670592
0.00534518
0.0068668
0.00687509
0.00634258
0.00678131
0.00677698
0.00545344
0.00681908
0.00680328
0.0052104
0.0067248
0.00681576
0.0067204
0.00671307
0.0017511
0.0111578
0.0147855
0.00674679
0.00669198
0.00671573
0.00675143
0.00668683
0.00175044
0.00668871
0.00670036
0.00672455
0.00670679
0.0033605
0.00671021
0.00169169
0.00644577
0.00474024
0.0145709
0.00678882
0.007907
0.00708672
0.000411656
0.00679309
0.00538291
0.00681718
0.00675868
0.00680031
0.00315261
0.000611618
0.00671302
0.00600155
0.00325347
0.00674359
0.00646841
0.01143
0.00167545
0.00673587
0.00667105
0.00225387
0.00698359
0.0125445
0.00671494
0.00676318
0.00677201
0.00679472
0.00427419
0.0132862
0.00170311
0.00671865
0.00399232
0.00683659
0.0073536
0.006708
0.0035032
0.0117775
0.00679942
0.00680839
0.0020182
0.00180878
0.00676693
0.00679527
0.00674867
0.00158849
0.00677694
0.00883186
0.0068044
0.00280335
0.00252203
0.0144329
0.00672147
0.0067035
0.00667962
0.00247392
0.00668728
0.0190888
0.0021522
0.00172658
0.014637
0.00671954
0.00349993
0.00679892
0.00669651
0.00651824
0.00109679
0.000871752
0.0193667
0.015152
0.000711124
0.00640959
0.00366802
0.0067839
0.0110665
0.00678518
0.00697994
0.00129633
0.00681564
0.0131815
0.0193804
0.0182349
0.0137172
0.0194179
0.0033764
0.00835242
0.00101901
0.00681686
0.00672635
0.0067664
0.00672224
0.00673143
0.0169372
0.0163543
0.0129161
0.00276621
0.00358066
0.0136315
0.00671439
0.00667454
0.0066948
0.00162699
0.00670908
0.00667918
0.0068005
0.00460831
0.00250137
0.00205873
0.0028023
0.00673873
0.00690063
0.00933599
0.00677043
0.00141176
0.000870616
0.00667347
0.00159876
0.00669529
0.0090557
0.00679846
0.000442495
0.00681154
0.00679277
0.00640379
0.00649284
0.0122464
0.00745346
0.0161213
0.00388932
0.00678715
0.00679621
0.00674416
0.00671654
0.00672661
0.0112215
0.013235
0.00648889
0.0068086
0.00641906
0.00665752
0.00676966
0.00682541
0.000718075
0.0128155
0.0120127
0.00681067
0.0134153
0.00669925
0.00184262
0.0040415
0.0046774
0.00972299
0.0153176
0.0129134
0.0066794
0.00677958
0.00670907
0.0067374
0.00676906
0.00672737
0.00703995
0.00680121
0.00678199
0.00681874
0.00149719
0.00670702
0.00679266
0.0139334
0.0185744
0.00680869
0.0147109
0.00671349
0.0125574
0.00126267
0.00676435
0.0192838
0.00328563
0.0017051
0.00678572
0.00693847
0.00320633
0.00134841
0.000563068
0.00722783
0.000789523
0.000525739
0.00423138
0.00564312
0.00678925
0.00484944
0.00385248
0.00492455
0.00679175
0.0157652
0.0105572
0.0166001
0.00563008
0.0139568
0.00362862
0.00687253
0.00674653
0.00517954
0.00158176
0.00672045
0.0141982
0.00555626
0.000573425
0.00670729
0.00643305
0.0139413
0.0153377
0.0109914
0.00331378
0.00700763
0.0203568
0.011217
0.00681897
0.00158244
0.0122608
0.00182009
0.00174122
0.00290445
0.00237634
0.00158085
0.00674103
0.0201344
0.00401613
0.00676271
0.00794077
0.0156701
0.0169892
0.00681909
0.000542854
0.00681587
0.00670159
0.00172914
0.0068528
0.000467987
0.00679597
0.00115153
0.0108439
0.00519132
0.0134588
0.000615616
0.0125657
0.00342312
0.00642774
0.0112773
0.016097
0.00432333
0.00680019
0.00675517
0.00639763
0.00674654
0.00671214
0.0109488
0.00673374
0.0067189
0.00162041
0.00679484
0.00668633
0.00668583
0.00747927
0.00120648
0.00684277
0.00678265
0.0032939
0.0067772
0.00672969
0.0067117
0.00669325
0.0173817
0.00331789
0.00274149
0.00264926
0.00677109
0.00667898
0.00788191
0.00067913
0.00515164
0.00703144
0.0068152
0.00185912
0.00671501
0.00250748
0.00408236
0.00178975
0.00709343
0.00330496
0.00677486
0.00199027
0.00946732
0.0172438
0.0135258
0.00326673
0.00678154
0.0066989
0.00339123
0.00249902
0.01471
0.00674606
0.011751
0.00667916
0.0068246
0.000664226
0.0067281
0.00787689
0.000647717
0.00486839
0.00672987
0.00261337
0.00463494
0.0148643
0.00678072
0.00679216
0.00103459
0.00866285
0.00495527
0.00765244
0.000913463
0.00676658
0.000471818
0.00338018
0.0075756
0.0160539
0.00688736
0.00673172
0.0067612
0.00673109
0.013443
0.0152636
0.00324836
0.00320094
0.00674492
0.00673453
0.00678473
0.000638533
0.00659099
0.00509054
0.00671839
0.00681522
0.00169203
0.00155677
0.00671166
0.0130224
0.00681331
0.00681137
0.000917344
0.00670624
0.00464854
0.00372859
0.0116951
0.000647789
0.00680424
0.00333326
0.0067753
0.0130574
0.00652639
0.00679851
0.00616932
0.00535303
0.00667413
0.00430541
0.012344
0.00669647
0.00870541
0.0059858
0.00318558
0.0066802
0.00342833
0.00646397
0.0146384
0.0066989
0.00265557
0.00674961
0.00164399
0.0119594
0.00672215
0.00675477
0.000541098
0.00252885
0.00673473
0.00679603
0.00670568
0.00213693
0.00372106
0.0097496
0.00683123
0.0068426
0.00682687
0.00571073
0.00684139
0.0067077
0.00380963
0.0104268
0.0162812
0.00667724
0.00670901
0.00921575
0.00612796
0.00143517
0.0118621
0.000578846
0.0127623
0.00278994
0.00669393
0.00622648
0.0050609
0.00500395
0.00672604
0.0067176
0.00671891
0.0114306
0.020043
0.00677381
0.00804062
0.00356257
0.0133013
0.00671112
0.00672923
0.00155624
0.00670735
0.00680007
0.00685709
0.00675269
0.00118076
0.00686993
0.0156425
0.0130815
0.0068032
0.00193079
0.00197823
0.0217927
0.00384859
0.00672143
0.0034631
0.00136708
0.000912615
0.00267768
0.00536647
0.00681784
0.00672131
0.000758385
0.00669706
0.0208929
0.00613569
0.0067156
0.010479
0.00672464
0.0115756
0.00681219
0.0175604
0.00566853
0.0132001
0.00130335
0.00910273
0.00644451
0.00672926
0.00207771
0.0130121
0.00681715
0.0138709
0.00681807
0.00668034
0.00678009
0.00239048
0.00361218
0.00677191
0.0067292
0.00150349
0.00459814
0.0011558
0.0067322
0.00129258
0.00351449
0.00674746
0.000945822
0.00675323
0.000608917
0.00104047
0.00185563
0.0104629
0.0067338
0.00325246
0.00559589
0.00746865
0.00465753
0.00670656
0.00850648
0.00533708
0.013949
0.00683387
0.00676511
0.00260686
0.00184888
0.00677835
0.00669339
0.00673853
0.00596363
0.00466138
0.00674722
0.0140654
0.00679801
0.0113576
0.00672619
0.00603349
0.00399852
0.0124644
0.00675143
0.000606611
0.0067922
0.00673175
0.000800287
0.00455973
0.00674691
0.00524481
0.00883149
0.00677436
0.00113623
0.00816544
0.00252918
0.00734261
0.00679428
0.00552515
0.00285599
0.0191634
0.00670742
0.00682871
0.0172896
0.0067259
0.0196968
0.00349896
0.00190646
0.00913208
0.00574746
0.00672178
0.00543119
0.00672844
0.00568648
0.0114512
0.00672884
0.0139377
0.00762304
0.00144876
0.00679438
0.00567362
0.0105299
0.00247617
0.00338728
0.00674156
0.00944369
0.00668137
0.00705807
0.00670508
0.00680592
0.00363231
0.00676961
0.0067008
0.00201137
0.00392563
0.00674483
0.0184568
0.00674395
0.001128
0.00310173
0.00882039
0.00670743
0.00679565
0.00159445
0.00673061
0.00670828
0.00354745
0.000842339
0.0126615
0.0164237
0.000803287
0.00669383
0.00680039
0.00681135
0.00671244
0.00670183
0.0206099
0.00671565
0.00664948
0.000467039
0.00678355
0.00697661
0.00674091
0.0066957
0.014404
0.00190365
0.00677479
0.00178716
0.00686637
0.0015244
0.00672509
0.00533081
0.00480464
0.00681188
0.0106049
0.00142724
0.00509224
0.00581294
0.00122202
0.00373187
0.00112512
0.000494077
0.0124573
0.00377884
0.00687379
0.00134436
0.00265962
0.00680277
0.00567071
0.00793545
0.00863683
0.00970873
0.00679047
0.00674928
0.00672207
0.0113903
0.00562021
0.00174543
0.00729649
0.00675073
0.00841929
0.00678973
0.00849014
0.00676615
0.00129257
0.000574007
0.00676302
0.006795
0.000532456
0.00311234
0.00682096
0.00547743
0.000906609
0.00393436
0.00672612
0.000992315
0.00681938
0.00681759
0.00680096
0.0154131
0.00658548
0.0128359
0.00186374
0.00402472
0.00908933
0.00295822
0.000782886
0.00672731
0.0067213
0.0129227
0.0102217
0.0063019
0.00681419
0.00407214
0.0065017
0.000779311
0.000656163
0.0099275
0.00430635
0.00523227
0.0066924
0.00363468
0.00679149
0.00182206
0.0106481
0.000615063
0.00056447
0.00683213
0.01432
0.000818636
0.0100801
0.0057017
0.00673189
0.00671892
0.00676845
0.00685002
0.00669585
0.00866335
0.00146158
0.0127845
0.00670468
0.0115855
0.0132976
0.0190541
0.0146477
0.00556066
0.00679502
0.00675187
0.00626382
0.0067521
0.00436503
0.0103754
0.00683776
0.00533547
0.00806923
0.0191227
0.0182817
0.00265982
0.00161012
0.00672659
0.0135376
0.00675178
0.0160661
0.00455997
0.00728561
0.00180504
0.000608996
0.0104243
0.00671885
0.00672047
0.00675236
0.0133828
0.00387682
0.000497916
0.00284572
0.0067913
0.00172654
0.00671896
0.00456504
0.00671821
0.00414549
0.0150931
0.00588687
0.000591813
0.00669506
0.0120741
0.0133429
0.00716406
0.00194448
0.0145883
0.00586218
0.00670378
0.0110245
0.0123943
0.0132334
0.00670515
0.00681817
0.00371651
0.00590232
0.00508405
0.00679661
0.00672006
0.00677534
0.00252923
0.0068213
0.00669985
0.0140396
0.00672868
0.0154578
0.00464692
0.0144596
0.00675622
0.00339694
0.0154883
0.000590152
0.000426559
0.00601623
0.00672125
0.000764965
0.00994283
0.00670438
0.00681933
0.0068068
0.0126316
0.00777909
0.00673154
0.00949072
0.00123088
0.00671849
0.0149682
0.00455767
0.000864775
0.0121924
0.0143913
0.00689074
0.00787772
0.0069837
0.0067692
0.0102053
0.0011382
0.0133784
0.0201187
0.00687679
0.0175735
0.00781504
0.00228987
0.017741
0.012665
0.00858265
0.00520809
0.00671815
0.00672234
0.0049966
0.0174228
0.00190147
0.0152801
0.00783531
0.00308328
0.00671617
0.00682829
0.00370688
0.0187242
0.00670868
0.0111789
0.0184794
0.00669387
0.00518249
0.00967968
0.00104198
0.00184651
0.0130402
0.00672963
0.0083278
0.012126
0.0152201
0.00424004
0.00445488
0.00957081
0.00677042
0.00686901
0.000630395
0.0069346
0.00819647
0.000900499
0.00688301
0.000593539
0.00906648
0.00191303
0.00479345
0.018648
0.00263193
0.0188722
0.00672301
0.00367703
0.0124235
0.00275696
0.00541337
0.00669557
0.00682181
0.00686739
0.00564147
0.00685188
0.00794021
0.00685293
0.00674246
0.012603
0.0021411
0.0067017
0.00672129
0.0123527
0.0131508
0.00673799
0.00678122
0.00679082
0.00286099
0.00127807
0.00121351
0.00669692
0.000674135
0.00680127
0.0107798
0.0109399
0.0116963
0.00676473
0.00476021
0.00023199
0.0119964
0.00678999
0.00800775
0.000420305
0.000518791
0.00678325
0.00464227
0.00214147
0.000496857
0.0034015
0.0127191
0.00671831
0.00228424
0.00687503
0.0012596
0.00100075
0.00458754
0.00058703
0.00694077
0.0068272
0.00638517
0.011526
0.00673848
0.00616743
0.0172266
0.00174009
0.00670162
0.018057
0.00135834
0.00343533
0.00480906
0.00676483
0.00679852
0.00331718
0.00120744
0.00325908
0.000656553
0.00678064
0.00673886
0.00871147
0.000402745
0.00671813
0.0156407
0.00453251
0.00687902
0.00635922
0.0136584
0.00675343
0.0076699
0.00612327
0.0137193
0.0106056
0.00673781
0.0161142
0.000565738
0.00675111
0.00709775
0.00348724
0.0099833
0.0174667
0.00702576
0.00674032
0.00287219
0.0110213
0.0068906
0.000220288
0.00670658
0.00678203
0.0122351
0.0117412
0.00522741
0.00402879
0.0015904