/*--------------------------------*- C++ -*----------------------------------*\
| =========                 |                                                 |
| \\      /  F ield         | OpenFOAM: The Open Source CFD Toolbox           |
|  \\    /   O peration     | Version:  v2012                                 |
|   \\  /    A nd           | Website:  www.openfoam.com                      |
|    \\/     M anipulation  |                                                 |
\*---------------------------------------------------------------------------*/
FoamFile
{
    version     2.0;
    format      ascii;
    class       surfaceVectorField;
    location    "150";
    object      Uf_0;
}
// * * * * * * * * * * * * * * * * * * * * * * * * * * * * * * * * * * * * * //

dimensions      [0 1 -1 0 0 0 0];


internalField   nonuniform List<vector> 
27284
(
(0.885219 -0.161255 -2.29278e-21)
(0.945272 -0.153153 1.29396e-20)
(0.907972 -0.163964 5.96567e-21)
(1.00928 -0.000157487 0)
(1.00941 -0.000164099 1.64209e-22)
(1.00938 -0.000181702 3.50537e-22)
(0.911332 0.150731 -1.30846e-21)
(0.905822 0.14354 1.77768e-21)
(0.915015 0.141377 2.67885e-21)
(1.00992 0.000993349 1.13926e-22)
(1.00997 0.00108314 1.39338e-22)
(1.01001 0.000999607 5.09943e-22)
(1.04189 -0.0116775 0)
(1.0453 -0.00801536 -6.54507e-23)
(1.03893 -0.00686553 0)
(0.978694 0.107687 1.2245e-22)
(0.992092 0.109948 0)
(0.97835 0.120862 1.50132e-22)
(1.01198 0.00036209 -1.23112e-22)
(1.01195 0.000136138 -4.64734e-22)
(1.01182 7.36772e-05 -1.04402e-23)
(1.04315 -0.0167467 -2.9409e-22)
(1.03687 -0.0140275 0)
(1.00465 -2.88337e-05 0)
(1.00587 7.31301e-05 0)
(1.00504 3.9082e-05 0)
(0.926882 -0.0241985 -2.68315e-22)
(0.941101 -0.023351 -2.59965e-22)
(0.934823 -0.0388665 -3.80876e-21)
(1.01111 0.0248216 2.01424e-22)
(1.01227 0.0242471 -2.66334e-22)
(1.01095 0.023581 -1.31606e-22)
(1.0495 0.151888 1.78726e-20)
(1.05238 0.148438 0)
(1.04762 0.1476 0)
(1.04638 0.155376 -1.52246e-21)
(1.05159 0.156082 -5.31176e-21)
(1.01679 -0.176381 -5.64531e-22)
(1.00169 -0.184462 9.68921e-22)
(1.01022 -0.165565 -2.35618e-21)
(1.00699 6.57045e-05 -2.44849e-22)
(1.00749 4.78898e-05 -1.6313e-22)
(1.0073 4.33713e-05 7.79346e-23)
(1.00995 -7.40961e-07 1.17328e-22)
(1.00979 -1.69294e-05 -2.88528e-22)
(1.00992 -2.40421e-05 8.32316e-22)
(1.00989 0.000894884 -1.02963e-21)
(1.00983 0.000955065 -6.44949e-22)
(1.00556 0.0148277 4.46575e-23)
(1.00464 0.0144947 -8.74786e-22)
(1.00542 0.0137156 8.19076e-22)
(0.899778 0.0355663 -2.03208e-21)
(0.899428 0.0260121 3.75128e-21)
(0.907286 0.0302095 0)
(1.01592 -0.00355561 -2.81571e-22)
(1.01548 -0.00379122 -8.28131e-22)
(1.01521 -0.00310438 1.71076e-24)
(1.19611 0.156175 -3.84714e-21)
(1.19341 0.135899 7.22851e-21)
(1.20847 0.136133 -6.26661e-22)
(1.02264 0.0123865 -2.5348e-21)
(1.02222 0.0122054 -8.45809e-22)
(1.02237 0.0127007 1.27619e-22)
(1.00829 5.34918e-05 -7.8668e-23)
(1.00837 4.49233e-05 -1.69878e-22)
(1.00828 4.51416e-05 -8.09772e-22)
(0.965938 0.101852 1.11167e-22)
(0.977056 0.0935938 -2.51825e-21)
(1.00829 6.06925e-05 3.0182e-22)
(1.00822 5.91771e-05 3.9135e-23)
(1.01067 0.00406884 1.45118e-22)
(1.01061 0.00366746 -8.36392e-22)
(1.01036 0.00374041 -6.73816e-22)
(1.01214 0.000589892 8.86861e-22)
(1.01238 0.000856977 -3.87796e-22)
(1.01233 0.000573868 3.16778e-22)
(1.01021 0.00182041 8.06719e-23)
(1.01033 0.00192151 1.94589e-22)
(1.01025 0.00192534 -1.36058e-22)
(1.00292 -3.16736e-05 -4.66136e-24)
(1.00439 -3.7631e-05 0)
(1.00886 0.0256778 2.7071e-22)
(1.01003 0.0252343 1.20326e-22)
(1.00876 0.0244203 -1.35589e-22)
(0.880352 0.261823 0)
(0.890732 0.262467 0)
(0.888621 0.24839 -4.40249e-22)
(1.03911 0.0446087 -8.44555e-23)
(1.03862 0.0417156 0)
(1.04168 0.0425047 0)
(1.01188 7.32472e-05 1.05755e-22)
(1.01197 7.68701e-05 -3.84092e-22)
(1.0121 9.08774e-05 -2.93803e-22)
(1.00936 -0.000208573 -2.20441e-22)
(1.00932 -0.000205838 2.70454e-23)
(1.00923 -0.000202689 -6.70587e-23)
(1.00622 -8.80391e-05 -2.72321e-23)
(1.00617 -9.96704e-05 -2.94874e-23)
(1.00471 -8.06512e-05 -3.14656e-23)
(1.01356 0.00353734 -3.59469e-22)
(1.01328 0.00350918 8.26541e-22)
(1.01354 0.00341378 -4.55221e-22)
(1.03281 0.0281266 2.73614e-21)
(1.03343 0.028635 -2.13117e-21)
(1.03336 0.0277653 7.64217e-23)
(1.01362 0.003673 -1.04073e-21)
(1.01396 0.00357253 -1.62353e-22)
(1.00754 0.0260155 8.57979e-22)
(1.009 0.0270539 2.33539e-22)
(1.01391 0.0109023 -9.05337e-23)
(1.01379 0.0112265 -2.65907e-22)
(1.01358 0.0108464 0)
(1.01334 0.000255009 9.07425e-22)
(1.0132 0.00027213 6.00539e-22)
(1.0116 0.00017075 8.49433e-22)
(1.0114 0.026019 1.77061e-22)
(1.00939 -0.000208198 -9.12481e-22)
(1.00942 -0.000204555 -1.33745e-22)
(1.0093 -0.000198949 -1.21371e-21)
(1.00916 -0.000149558 0)
(1.00904 -0.000145003 1.69484e-22)
(1.00913 -0.000168161 3.39607e-22)
(1.00918 -0.000130665 -1.59239e-24)
(1.06217 0.222222 -2.72862e-21)
(1.06305 0.217366 8.65103e-21)
(1.06782 0.221096 4.45078e-21)
(1.00997 0.00190685 3.57554e-24)
(1.01005 0.00200445 1.90958e-23)
(1.01003 0.00197563 2.7114e-23)
(1.00989 0.00181889 -3.42111e-23)
(1.00991 0.00184141 2.91993e-23)
(0.864257 0.257567 0)
(1.01297 -0.000357384 3.97341e-22)
(1.01293 -0.000276912 -2.89248e-23)
(1.01267 -0.000312131 1.83418e-22)
(1.00674 -5.22894e-05 -8.2491e-22)
(1.00606 -2.45941e-05 0)
(1.00609 -8.59003e-06 -1.04734e-23)
(0.899832 -0.112974 4.65633e-21)
(0.924113 -0.109616 -5.67252e-21)
(0.872227 -0.170758 -1.4247e-20)
(1.01333 -0.000426433 1.83834e-22)
(1.01299 -0.000464546 -6.51761e-22)
(0.963162 -0.047468 0)
(0.956292 -0.049375 -3.19878e-21)
(0.959477 -0.0398197 0)
(1.01537 0.00345853 -1.77394e-21)
(1.01539 0.00330784 -1.41778e-21)
(1.01516 0.00331012 1.54025e-21)
(1.01648 -0.00327385 7.16769e-22)
(1.01684 -0.00408872 1.5619e-22)
(1.00587 -9.94002e-05 -4.35486e-22)
(1.0049 -4.37876e-05 5.37642e-23)
(1.00494 -4.61388e-05 -2.63799e-22)
(0.869882 0.253667 7.98079e-22)
(1.01075 0.00440336 6.42218e-22)
(1.01102 0.00423659 9.11751e-22)
(1.05575 0.26989 3.33302e-20)
(1.05313 0.275711 5.11056e-21)
(1.06344 0.277604 -6.66688e-21)
(1.00949 -0.000214466 5.01876e-22)
(1.01942 0.111367 -1.12217e-20)
(1.02306 0.113199 1.17015e-21)
(1.02285 0.108012 -1.2074e-20)
(0.97142 -0.0449348 -3.52193e-21)
(0.969479 -0.0553439 5.8574e-21)
(1.01324 -0.00201917 -4.73594e-22)
(1.01306 -0.00168158 2.38944e-22)
(1.01338 -0.00176545 4.42356e-22)
(1.05737 0.0366549 6.1752e-22)
(1.06056 0.0338784 -9.88855e-22)
(1.05564 0.0329126 3.69563e-22)
(1.00654 -4.08115e-05 -2.51777e-22)
(1.00724 -5.26511e-05 3.08928e-22)
(1.00703 -6.01388e-05 3.16744e-22)
(1.0256 0.0185811 -1.90748e-22)
(1.02583 0.0184365 -1.279e-21)
(1.0259 0.0188651 -2.46763e-21)
(1.0322 0.0277964 -4.59487e-22)
(1.0322 0.0287817 -6.0576e-22)
(1.00954 -0.000167047 4.31096e-23)
(1.0095 -0.000155352 -5.63598e-22)
(1.00942 -0.000163319 -7.33011e-22)
(0.912006 -0.0393674 0)
(0.896581 -0.0391639 -4.93947e-22)
(0.903008 -0.0536761 1.01453e-22)
(1.01157 -0.00012872 1.92012e-22)
(1.01175 -0.00011389 3.88202e-22)
(1.01163 -0.000115513 -2.11484e-22)
(1.01536 0.00354639 5.70065e-22)
(1.01555 0.00356337 -1.3864e-21)
(1.03337 0.0364897 0)
(1.03328 0.0387413 0)
(1.03115 0.0373975 0)
(1.00069 0.0120618 8.6592e-22)
(1.0017 0.0128505 -1.80716e-22)
(1.00193 0.0114502 -4.92645e-22)
(1.05662 0.05285 -1.56146e-22)
(1.0664 0.0545944 -7.19571e-21)
(1.06032 0.0428532 -8.20238e-21)
(1.0096 -0.000192408 1.81868e-23)
(1.00958 -0.000179601 1.1768e-21)
(1.00948 -0.000186095 1.02714e-21)
(0.87062 0.244329 -2.56515e-21)
(0.878762 0.25006 -2.2014e-21)
(1.00964 -0.000206073 -5.16471e-22)
(1.00974 -0.000200519 -5.16905e-22)
(1.01141 -0.000142909 5.46599e-22)
(1.01152 -0.000144411 -2.03252e-23)
(1.04973 0.0632409 8.23073e-23)
(1.04657 0.0497417 4.77934e-21)
(1.02538 0.0188008 4.58851e-22)
(1.02526 0.0183705 1.42518e-21)
(1.01044 0.062048 -5.33824e-21)
(1.01327 0.0736624 -7.39625e-22)
(1.02195 0.06318 -3.3687e-21)
(1.00967 -0.000175567 1.2183e-21)
(1.02512 0.0198152 2.21214e-22)
(1.02544 0.0198804 -1.36044e-22)
(1.02537 0.0200672 1.11741e-21)
(1.03121 0.00638286 3.68882e-22)
(1.03007 0.00451522 0)
(1.0326 0.00504505 -1.10496e-22)
(1.00434 6.72011e-05 6.33596e-23)
(1.00423 -1.90557e-06 6.50045e-23)
(1.00289 1.27451e-05 3.41601e-22)
(1.00717 0.00023892 4.1016e-23)
(1.00605 0.000205045 0)
(1.00585 0.000185384 0)
(1.0232 0.0145117 -1.87448e-22)
(1.02291 0.0157532 2.44149e-22)
(1.02198 0.0147671 1.96907e-22)
(1.00965 0.00113982 2.77219e-22)
(1.00961 0.00108771 -3.19628e-23)
(1.00956 0.00111929 -2.48344e-22)
(1.02454 0.0143836 -3.19657e-22)
(1.02388 0.013276 -4.29299e-23)
(0.945005 -0.277964 7.53074e-21)
(0.950418 -0.29586 -4.17952e-21)
(1.14214 0.118692 1.44449e-21)
(1.12212 0.112348 -7.95892e-22)
(1.13866 0.101862 -7.42458e-22)
(0.999562 0.0577403 1.20534e-21)
(1.00633 0.0510165 6.40083e-22)
(1.01287 -0.000188059 -2.07535e-22)
(1.01321 -0.000221544 3.58002e-22)
(0.920845 -0.152285 -8.62751e-22)
(0.913908 -0.136242 -1.03175e-20)
(0.935891 -0.136941 -5.98052e-22)
(1.01557 -0.00218348 -5.77558e-22)
(1.01612 -0.00236042 -4.11144e-22)
(1.01573 -0.00274761 -4.25541e-22)
(1.00923 0.00113877 5.30517e-23)
(1.00921 0.00113691 3.1017e-24)
(1.00915 0.00109416 5.36918e-23)
(1.01503 -0.00199054 4.56143e-22)
(1.01533 -0.00174225 5.3245e-22)
(0.975769 0.0385239 0)
(0.971565 0.0358223 5.5966e-22)
(0.977046 0.0340555 7.11204e-24)
(1.02075 0.0117511 1.62501e-21)
(1.02112 0.0118922 -7.84165e-22)
(1.02092 0.0121245 -1.41964e-21)
(1.03173 0.00803379 4.54108e-22)
(1.02942 0.0076125 -5.9503e-22)
(1.01125 -0.00014576 3.13095e-23)
(1.0113 -0.000130667 3.44767e-22)
(1.01278 -0.000141065 4.01254e-22)
(1.01259 -0.000191683 4.92507e-22)
(1.01046 -0.000710091 -2.09402e-23)
(1.01051 -0.0007695 4.15774e-23)
(1.01041 -0.000707937 2.6716e-23)
(1.02528 0.0189648 -2.35578e-23)
(1.02513 0.0191223 0)
(1.02496 0.0188066 -8.58443e-22)
(1.01012 7.94964e-06 4.5289e-22)
(1.00998 1.85233e-05 3.92548e-22)
(1.05919 0.0407809 0)
(1.05417 0.0394608 2.55272e-22)
(0.92913 -0.169553 1.98157e-21)
(0.903961 -0.169306 -1.51397e-23)
(1.0237 0.0236145 -2.17774e-21)
(1.02312 0.0230546 2.56177e-21)
(1.02299 0.024087 -3.81381e-21)
(1.0097 -9.83097e-05 -4.7049e-22)
(1.00981 -0.000116122 -4.5499e-22)
(1.00964 -0.000116602 6.68612e-23)
(1.00664 -0.000107751 -1.48167e-22)
(1.00662 -0.000115618 -2.1568e-23)
(1.00449 -2.26761e-05 1.36508e-22)
(1.00317 -2.0644e-05 -4.32585e-22)
(1.00447 -3.24806e-05 2.28287e-23)
(1.01917 0.0349832 7.04335e-22)
(1.02064 0.0359418 -4.64563e-22)
(1.02008 0.033674 -7.86247e-23)
(1.02478 0.0197605 6.26057e-22)
(1.02489 0.01953 -1.32234e-23)
(0.997639 0.236862 -6.82806e-21)
(1.00032 0.231302 -9.93159e-21)
(1.00529 0.236979 7.98877e-21)
(1.02363 0.0260739 1.25207e-22)
(1.02377 0.0252832 9.57664e-23)
(1.02289 0.0255072 -7.7244e-23)
(1.01111 -0.000153294 2.49846e-22)
(1.01122 -0.000164133 -3.30047e-22)
(1.04243 0.0735508 3.58314e-22)
(1.05476 0.078958 8.65388e-21)
(1.02297 0.0169054 -8.70152e-22)
(1.02277 0.0171498 4.22431e-22)
(1.02254 0.0167273 5.396e-22)
(1.026 0.0182631 -1.44696e-21)
(1.02623 0.0185441 1.72245e-21)
(0.928072 -0.0417649 -8.16612e-22)
(0.922016 -0.0301995 -4.7624e-22)
(0.917386 0.155178 -3.37614e-21)
(0.909119 0.157985 -4.16345e-21)
(0.963315 -0.244336 0)
(1.02159 0.010654 1.73745e-22)
(1.02211 0.00882275 -5.52065e-22)
(1.0199 0.00930977 4.48122e-22)
(1.033 0.0822432 1.21842e-22)
(1.03465 0.0670766 -9.18249e-21)
(1.05107 0.227185 8.23418e-21)
(1.05177 0.233548 1.48705e-20)
(1.0458 0.230345 0)
(1.01191 0.000617716 -3.04222e-22)
(1.00986 0.000804431 -1.11888e-22)
(1.00995 0.00083205 -8.06569e-22)
(0.830107 -0.169607 -3.42168e-21)
(0.866051 -0.157544 -1.11702e-20)
(1.02101 0.00989058 1.82049e-21)
(1.02118 0.0101804 0)
(1.02079 0.0100676 0)
(1.00925 0.00113526 0)
(1.0093 0.00118013 -6.53859e-23)
(0.885601 -0.101576 1.21081e-21)
(0.934762 -0.0419414 -2.4301e-20)
(1.01412 0.00534204 5.24812e-22)
(1.01401 0.00515763 1.07194e-21)
(1.01421 0.00524939 -5.23244e-23)
(0.985874 0.0719771 3.33093e-21)
(0.984793 0.0759059 3.0787e-21)
(0.981839 0.0718473 -2.74204e-21)
(1.06192 -0.028403 0)
(1.05719 -0.0264929 0)
(1.0585 -0.0334407 2.09526e-21)
(1.00968 0.000962361 -3.15865e-22)
(1.00971 0.00101431 -7.36785e-22)
(1.00978 0.000969731 -5.09081e-22)
(0.894465 0.0401954 1.26984e-21)
(0.902438 0.0438079 -3.70276e-21)
(0.9333 -0.0798725 -6.75996e-21)
(0.922706 -0.073325 3.86463e-21)
(0.919228 -0.0874815 3.11243e-22)
(1.01177 0.000873738 2.66007e-22)
(1.01192 0.000925081 -7.55237e-22)
(1.01183 0.00103544 0)
(1.17054 0.127341 3.95394e-21)
(1.14792 0.136756 6.70642e-22)
(1.03047 0.0225341 4.26581e-21)
(1.03081 0.0224175 2.86516e-21)
(1.03072 0.0229133 1.10495e-21)
(1.02247 0.0239382 0)
(1.01824 0.0233369 2.65566e-22)
(1.01988 0.0280766 -5.45905e-22)
(1.00982 0.00167275 -1.00609e-22)
(1.00976 0.0016167 6.08813e-23)
(1.00977 0.00160764 5.60498e-23)
(0.741822 -0.331765 -7.88475e-21)
(0.767145 -0.300851 -6.8212e-21)
(1.06609 -0.0228625 2.31836e-21)
(1.06874 -0.0303806 -1.48422e-21)
(1.01341 0.000366642 -9.69713e-22)
(1.01389 0.000414191 0)
(1.01374 0.000434044 0)
(1.03398 0.283626 -1.52904e-20)
(1.0254 0.286532 2.35058e-21)
(1.02632 0.277899 6.19055e-21)
(1.0123 -0.002156 1.24977e-23)
(1.01214 -0.00206289 -1.6537e-23)
(1.0122 -0.00208514 -2.4057e-23)
(1.01806 0.0365618 4.86963e-23)
(1.01768 0.0341386 -4.22697e-22)
(0.930954 0.0510901 -2.01519e-22)
(0.926834 0.0610409 -4.61111e-22)
(0.939144 0.0632205 -2.32721e-22)
(1.01016 0.00173371 -2.42578e-22)
(1.01011 0.00173143 -2.11042e-22)
(1.02615 0.0180359 9.66381e-22)
(1.02571 0.0180233 -6.74146e-22)
(1.01276 0.000801691 -4.61102e-22)
(1.01299 0.000802029 0)
(1.01281 0.000515175 0)
(1.01032 0.00857623 3.19192e-22)
(1.01175 0.00988818 6.05105e-22)
(1.0118 0.00792447 0)
(1.00955 -0.000206261 7.20049e-22)
(1.00945 -0.000195019 2.88988e-22)
(1.00769 4.60408e-05 0)
(1.00781 4.58166e-05 0)
(1.00782 4.85521e-05 1.90474e-22)
(1.00976 0.000768851 4.35708e-22)
(1.00978 0.000689508 1.33588e-22)
(1.00444 3.25382e-05 0)
(1.00522 -9.51144e-05 -8.79818e-22)
(1.00986 0.00171229 -8.91022e-23)
(1.00988 0.00170751 -8.5229e-23)
(1.00745 3.98864e-05 0)
(1.00743 2.81927e-05 -1.30342e-22)
(1.00704 0.0172963 -3.02905e-22)
(1.00608 0.0171299 3.91367e-22)
(1.00645 0.0182473 3.70213e-22)
(1.01403 0.005425 -1.22982e-21)
(1.01424 0.00551714 1.2759e-21)
(1.00979 -8.3968e-05 -2.17984e-22)
(1.00963 -8.15558e-05 0)
(1.01402 0.0154156 2.90345e-22)
(1.0166 0.0163505 -2.61861e-22)
(1.01585 0.0135596 -2.8317e-22)
(1.00288 0.0162185 9.63586e-24)
(1.00173 0.0157043 5.63122e-22)
(1.00193 0.017255 5.24475e-22)
(0.969168 -0.00993055 3.73788e-22)
(0.958645 -0.00703815 -7.58307e-22)
(0.967689 -0.00256101 7.68048e-22)
(1.04165 0.282299 -2.0884e-20)
(1.04291 0.291658 0)
(0.83163 -0.194994 0)
(0.802644 -0.212606 5.89794e-21)
(0.862153 -0.19371 0)
(0.980181 0.325293 1.85483e-21)
(0.99689 0.339021 8.97559e-21)
(0.974933 0.34392 1.25523e-20)
(1.03001 0.0226366 2.77921e-21)
(1.03018 0.0221306 1.45748e-21)
(1.0047 -4.6459e-05 -2.01772e-22)
(1.00475 -4.74173e-05 -3.81894e-22)
(1.00332 -3.33397e-05 -1.82694e-22)
(0.99032 0.0718211 -3.19702e-22)
(0.987464 0.0682347 -3.17731e-21)
(1.00444 -3.58276e-06 3.84798e-22)
(1.00448 -1.82316e-05 -4.63236e-22)
(1.00295 -1.86638e-05 -7.99492e-22)
(0.84919 0.24587 0)
(0.858648 0.234637 1.17396e-21)
(1.00544 -8.25862e-05 3.39409e-24)
(1.00547 -8.00123e-05 -1.01702e-22)
(1.00407 -4.25514e-05 1.32364e-22)
(1.0128 0.000277276 -2.6719e-22)
(1.01261 0.000278687 -1.09497e-21)
(1.0044 -1.31769e-05 4.81605e-23)
(1.00542 -6.58948e-05 3.02619e-25)
(1.01102 -0.00124575 1.45656e-23)
(1.01113 -0.00127942 7.51371e-24)
(1.01113 -0.00132017 8.02199e-24)
(1.03514 0.0137228 3.81996e-21)
(1.03574 0.0140113 2.43958e-21)
(1.03517 0.0142131 -2.50154e-21)
(1.02789 0.0216026 1.83085e-22)
(1.02767 0.0211935 5.49385e-22)
(1.02824 0.021329 2.77982e-22)
(1.00427 -1.5909e-05 -1.76361e-22)
(1.0043 -2.63223e-06 -1.63769e-22)
(1.00285 -2.11422e-05 -2.11973e-22)
(0.977573 -0.0112833 7.6661e-22)
(0.972269 -0.0174113 3.89795e-22)
(1.02192 0.0115395 1.92824e-22)
(1.02151 0.0114072 1.23384e-22)
(1.02171 0.0111424 1.64041e-21)
(1.01049 0.00231927 3.04357e-22)
(1.0106 0.00241898 -6.57707e-23)
(1.01055 0.00231552 -1.73933e-22)
(0.986253 -0.00138173 -5.75276e-22)
(0.990833 -0.00219393 3.55822e-22)
(0.989422 0.00241279 6.61059e-22)
(1.01268 -8.05042e-05 4.2113e-22)
(1.01297 -7.98574e-05 4.57415e-22)
(1.005 2.39249e-05 -2.57467e-22)
(1.00452 -3.74236e-05 -4.22263e-22)
(1.00574 5.46517e-05 2.76001e-22)
(1.02573 0.0145247 2.67826e-22)
(1.02661 0.013498 -3.91574e-25)
(1.02694 0.014695 7.8393e-23)
(1.01554 0.00136103 -4.10365e-22)
(1.01553 0.00125464 -3.96198e-21)
(1.01537 0.00128814 -1.25624e-21)
(1.01239 0.00117736 -9.37523e-22)
(1.01264 0.0010643 -3.23118e-22)
(1.05685 0.224149 8.34391e-21)
(1.051 0.221158 8.68822e-21)
(0.978537 0.0412509 -3.74611e-22)
(0.97393 0.042725 0)
(1.0096 -0.000131307 -1.15571e-21)
(1.00946 -0.000127501 2.30692e-22)
(1.00949 -0.000104698 1.27267e-22)
(1.01069 -0.000130565 -1.06666e-22)
(1.01075 -0.000139324 9.21563e-22)
(1.01086 -0.000138413 5.11719e-22)
(1.01498 0.000360747 -2.85583e-22)
(1.01489 0.000305892 -2.28971e-21)
(1.01503 0.000310945 -8.02497e-22)
(0.98416 0.237758 8.75867e-22)
(0.982577 0.228709 -1.06424e-20)
(0.975398 0.234935 1.15761e-20)
(1.00727 -3.33924e-05 -2.37122e-22)
(1.00724 -5.48349e-05 -2.00557e-22)
(0.711027 -0.212758 4.13244e-21)
(0.757093 -0.203446 1.31553e-23)
(0.726337 -0.224759 -3.45714e-21)
(1.00943 -0.000146215 8.05798e-22)
(1.00954 -0.000173833 -5.66482e-24)
(1.0292 -0.183276 1.71463e-21)
(1.03649 -0.160921 9.53913e-22)
(1.01255 -6.33444e-05 0)
(1.01242 -0.000113921 0)
(1.00651 0.0077703 -4.10579e-22)
(1.0063 0.00854673 -2.21644e-22)
(1.00698 0.00843642 -6.86938e-22)
(1.0061 0.0264317 9.44555e-22)
(1.00617 0.0250828 -1.54807e-23)
(1.00436 -5.05569e-05 -2.90398e-22)
(1.00474 -2.71846e-05 5.35531e-22)
(1.00555 6.26961e-06 5.50442e-22)
(0.870613 -0.177388 -2.49962e-21)
(0.809547 -0.190844 -7.27251e-23)
(1.02108 0.00874971 1.83085e-21)
(1.0212 0.00856026 3.31582e-21)
(1.02145 0.00882428 7.86041e-22)
(0.966395 0.307666 -1.3322e-20)
(0.985674 0.302681 -9.27642e-21)
(1.01043 0.00228684 -1.04726e-22)
(1.0104 0.00218799 2.356e-22)
(1.01172 5.01819e-05 -2.8757e-22)
(1.01152 2.17462e-05 6.9085e-22)
(1.01164 2.72386e-05 8.81371e-22)
(1.01375 0.00126454 -4.41115e-22)
(1.01391 0.00110588 6.86198e-22)
(1.01357 0.000951861 0)
(1.01719 0.0094172 -1.19634e-22)
(1.01712 0.00912161 0)
(1.01691 0.00925659 0)
(0.97748 0.0507367 -1.07467e-21)
(0.973701 0.0585051 5.31576e-23)
(0.984402 0.0550078 -1.11924e-21)
(1.01159 4.38419e-05 0)
(1.01125 -0.000463162 -1.1198e-21)
(1.01117 0.00031561 2.54408e-22)
(1.01192 0.000340101 -4.6987e-22)
(1.01198 -0.000209729 0)
(1.01239 -0.00223479 4.06191e-23)
(1.01247 -0.00225749 -1.6007e-24)
(0.829394 0.227371 -3.12615e-21)
(0.843384 0.253608 4.06884e-21)
(1.02798 0.022152 -6.55085e-22)
(1.02749 0.0218514 -2.99476e-22)
(1.03694 0.0246331 -4.09216e-21)
(1.03683 0.0239771 6.97035e-21)
(1.03632 0.0243781 3.35803e-21)
(1.02093 0.00896801 0)
(1.02076 0.00914675 0)
(1.02118 0.00924932 -1.79932e-21)
(1.01002 0.00192537 1.80619e-23)
(1.01003 0.00190653 1.48691e-23)
(1.01009 0.00199501 3.62668e-23)
(1.02425 0.0241435 0)
(1.02433 0.0233071 0)
(1.01043 -0.000182578 -4.67608e-22)
(1.01037 -0.00020944 2.97162e-22)
(1.01027 -0.000190058 1.4258e-22)
(1.0218 0.0174741 -3.73978e-22)
(1.02269 0.0169338 2.47149e-22)
(1.02268 0.0180992 3.94556e-22)
(1.01999 0.00817245 6.20606e-22)
(1.01916 0.00961977 6.93979e-22)
(1.01832 0.00799765 4.93486e-22)
(0.988757 -0.0199803 5.50334e-22)
(0.984348 -0.0224118 -5.51597e-22)
(0.990333 -0.0244376 -1.98528e-22)
(1.01094 -0.00486716 -6.38911e-22)
(1.0109 -0.00391863 -1.44597e-23)
(1.01009 -0.00455368 -8.74547e-23)
(1.01048 -0.000163338 -6.07875e-22)
(1.01052 -0.000146421 1.45165e-22)
(1.01036 -0.000149889 0)
(0.941859 -0.0843681 -2.8435e-21)
(0.944109 -0.0726954 -1.36626e-22)
(1.05091 -0.118691 7.42998e-21)
(1.04263 -0.127723 -9.40238e-21)
(1.06808 -0.113858 -3.50031e-21)
(1.03227 0.0295135 -3.71724e-22)
(1.03259 0.0309977 1.56784e-22)
(1.0309 0.0303764 -1.06171e-22)
(1.0122 -0.00144419 -7.43952e-22)
(1.01227 -0.00127515 -2.55333e-22)
(1.01239 -0.00153725 -5.43372e-22)
(1.02558 0.0190912 3.12813e-22)
(0.953778 0.00677821 1.58451e-21)
(0.955783 -0.00250129 -2.79707e-21)
(0.943484 0.00127957 3.00827e-22)
(1.01058 -0.000179179 1.38496e-23)
(1.01158 0.0144414 -1.66566e-23)
(1.01127 0.0174149 2.41426e-22)
(0.99257 -0.0180322 2.65679e-22)
(0.987835 -0.0155726 -6.64178e-22)
(1.03095 0.010145 -2.78369e-21)
(1.03099 0.00965511 -2.36256e-21)
(1.03046 0.00984286 0)
(1.06198 0.228299 6.93919e-21)
(1.04411 0.0218874 1.87945e-22)
(1.04491 0.0223862 -3.59791e-22)
(1.04473 0.0213129 -3.02011e-22)
(1.01222 0.000577047 3.40871e-22)
(1.01202 0.000957238 -4.29899e-22)
(1.00982 -0.000178968 2.57303e-23)
(1.0097 -0.000155982 -8.81244e-22)
(1.00968 -0.000182086 -3.13577e-22)
(1.03456 0.0135439 3.09133e-21)
(1.03509 0.0132505 -4.03708e-21)
(1.01253 0.000702586 3.89948e-22)
(1.01242 0.000286286 3.44061e-22)
(1.03187 0.0281919 -2.9569e-22)
(1.03143 0.0269571 -1.24698e-22)
(1.03034 0.0277175 -2.64227e-23)
(1.02067 0.00869745 0)
(1.01543 0.0031922 -1.67255e-22)
(1.01546 0.00306673 -2.16714e-22)
(1.01523 0.00304814 -8.45531e-22)
(1.00996 0.00189519 0)
(1.00994 0.00187651 5.7105e-23)
(1.00988 0.0017977 0)
(0.980205 0.0440867 1.18902e-21)
(0.971598 0.0448302 1.17303e-21)
(0.970941 0.0683223 -2.96629e-21)
(0.970324 0.0766379 -2.05451e-21)
(0.98036 0.0711481 -6.47813e-22)
(1.01192 -7.90294e-05 -2.98563e-23)
(1.0121 -3.34222e-05 -9.8009e-23)
(1.01197 -6.75505e-05 3.16962e-22)
(1.01343 -0.00243093 -2.92866e-22)
(1.01301 -0.00235202 -2.27824e-22)
(0.963412 0.0615522 1.26058e-21)
(0.965905 0.15064 -5.90146e-21)
(0.966255 0.156524 -2.98588e-21)
(0.971275 0.152971 6.26348e-21)
(1.02174 0.00820537 -1.00005e-22)
(1.02036 0.0067508 8.72365e-23)
(1.01094 -0.00116393 2.2045e-23)
(1.01092 -0.00119466 4.28177e-23)
(1.01517 0.0144184 -1.44321e-23)
(1.01274 0.0160678 -2.054e-21)
(1.01334 0.0128502 7.57718e-22)
(1.04353 0.0227319 -4.16753e-21)
(1.04329 0.0216212 -5.6923e-21)
(1.01305 0.000522819 0)
(1.01237 0.000425876 0)
(1.01272 0.000521096 -1.01214e-21)
(1.01192 -0.00512279 -2.31553e-22)
(1.0113 -0.00599494 -7.31895e-22)
(1.00895 0.000868023 -2.64709e-22)
(1.009 0.00091318 5.70468e-23)
(1.00892 0.000876799 -9.92703e-23)
(0.937747 0.0414279 4.91133e-22)
(0.926155 0.0346225 -3.05454e-21)
(1.04442 -0.0161734 -1.54898e-22)
(1.04829 -0.0136133 -1.57171e-22)
(1.04529 -0.0208736 -2.98953e-22)
(0.982759 0.0419942 2.7529e-22)
(0.985961 0.0433586 1.82125e-21)
(0.984641 0.0394047 3.52186e-22)
(1.0462 0.0360233 3.57197e-21)
(1.0459 0.0367922 -5.33249e-21)
(1.04711 0.0366716 1.66063e-20)
(1.0061 0.0278647 -7.10085e-22)
(1.0046 0.0266786 1.38334e-21)
(0.991961 0.0165426 1.78653e-21)
(0.993468 0.0201616 -7.97252e-22)
(0.995576 0.0168545 2.53547e-21)
(1.02583 0.016741 6.14341e-22)
(1.02419 0.0201538 2.21317e-22)
(1.0225 0.0167967 2.1007e-22)
(0.968376 0.0335394 -1.18467e-21)
(0.969448 0.0286274 1.06365e-22)
(0.963546 0.0302794 -1.16087e-21)
(1.00891 0.000823649 1.75528e-22)
(1.00899 0.000857487 -2.98031e-22)
(1.01562 0.00333445 1.06529e-22)
(1.01338 0.00156684 3.50527e-22)
(1.01307 0.0017528 0)
(1.01299 0.00132379 4.04856e-22)
(1.00984 -0.000151299 -8.54151e-23)
(1.0099 -0.000131707 -1.70836e-24)
(1.01 -0.000146965 7.00227e-22)
(1.00682 0.00704949 -2.01318e-22)
(1.00611 0.0070676 -4.85988e-22)
(1.03701 0.0253386 -7.22053e-21)
(1.03764 0.0248521 -6.4247e-21)
(1.00974 0.00140261 -8.82369e-23)
(1.00984 0.00148144 2.71581e-23)
(1.00979 0.00139172 -4.06822e-22)
(1.0179 0.00928002 -1.18106e-21)
(1.01807 0.00913583 -2.20465e-21)
(1.01816 0.00944054 1.02648e-22)
(0.991489 -0.0046015 -2.49291e-21)
(0.991996 -0.00210397 1.1095e-21)
(0.994301 -0.00444258 -4.70196e-22)
(1.00964 0.000908005 4.96348e-22)
(1.00958 0.000950164 -6.04225e-23)
(1.02289 -0.0214162 -5.78314e-21)
(1.01988 -0.0251054 -2.71433e-21)
(1.02497 -0.0256139 -4.62942e-21)
(0.782517 0.0148151 -1.22006e-20)
(0.795834 -0.0361529 0)
(0.992737 0.000450159 2.0809e-22)
(0.993922 0.00252642 -8.09681e-22)
(0.995393 0.000150599 -1.3567e-21)
(1.01748 0.00958509 1.13014e-23)
(1.01726 0.00973384 7.2656e-22)
(1.02319 0.0279154 2.57136e-23)
(1.02346 0.0268961 3.48551e-23)
(1.02238 0.0272827 2.70555e-22)
(1.00971 -0.000156215 -3.92675e-22)
(1.0098 -0.000169709 3.46299e-22)
(1.02081 0.0169893 -6.66048e-22)
(1.01959 0.0163212 -5.32156e-22)
(1.02061 0.0154013 3.16046e-22)
(1.02119 0.00783003 -3.13443e-23)
(1.02085 0.00777764 -1.68908e-21)
(1.02095 0.00756141 -8.56605e-23)
(1.02851 0.0224477 -4.51975e-22)
(1.02921 0.0226983 3.4426e-24)
(1.02914 0.0220424 -1.34703e-23)
(1.01397 0.000346025 0)
(1.01323 0.000240195 -1.32699e-21)
(1.02791 0.0226403 1.29334e-22)
(0.884794 0.0941077 -3.26038e-21)
(0.887829 0.122627 -2.45039e-22)
(1.0118 6.2181e-05 -2.65082e-22)
(1.01167 5.32275e-05 4.99672e-22)
(1.02081 0.0535016 1.9397e-22)
(1.02286 0.0534623 6.77496e-21)
(1.02147 0.0560086 -4.43645e-21)
(1.0237 0.0162616 1.05847e-21)
(1.0238 0.0166956 -7.27171e-22)
(1.0234 0.0164409 -7.39082e-22)
(1.01519 -0.00571196 -1.49103e-21)
(1.01605 -0.00636189 -1.19006e-21)
(1.01508 -0.00682095 -5.19384e-22)
(1.02949 0.0163602 -2.00648e-22)
(1.02678 0.0134704 -2.12202e-22)
(1.00658 5.8508e-05 2.21945e-22)
(1.00625 3.90639e-05 3.32143e-24)
(1.01065 -0.000127548 -6.1979e-22)
(1.01054 -0.000125704 -6.09603e-22)
(1.02101 -0.0174104 2.73127e-22)
(1.02565 -0.0179776 -1.58044e-21)
(1.01769 0.0094408 1.46035e-22)
(1.01762 0.00912508 1.62412e-23)
(1.0269 0.0245697 -1.6984e-22)
(1.03417 0.0290573 -1.85017e-21)
(1.03485 0.0286279 2.86328e-21)
(1.03496 0.0295718 -4.01895e-21)
(0.886687 -0.276007 5.33055e-21)
(1.01624 0.0194712 -3.00702e-22)
(1.01571 0.017778 -1.24332e-22)
(1.01736 0.0184373 -3.03129e-23)
(0.980628 0.0455809 5.22521e-22)
(1.00571 0.0111523 3.80946e-22)
(1.00501 0.0104271 -1.70244e-22)
(1.0059 0.0102385 9.36455e-24)
(0.991201 -0.00757463 -1.52155e-21)
(0.988611 -0.00464578 4.71679e-22)
(1.01239 -0.000336737 2.06947e-22)
(1.0122 -0.000233592 1.4369e-22)
(1.01243 -0.000285252 4.19283e-22)
(1.04308 0.0186535 0)
(1.04233 0.0188185 3.39503e-21)
(1.04263 0.0180318 0)
(1.04667 0.0348553 0)
(1.04528 0.0351113 3.50767e-21)
(1.01859 0.0539594 -3.87366e-21)
(1.02002 0.0514508 -2.3039e-22)
(0.979025 -0.0134073 -5.77522e-22)
(0.976458 -0.00730766 -5.79298e-22)
(0.984016 -0.00801471 -2.2416e-21)
(0.884313 0.177524 1.0413e-21)
(0.88063 0.169661 -2.94433e-23)
(0.875722 0.178372 -3.84496e-21)
(1.0106 0.00264417 1.01698e-23)
(1.01066 0.00272516 -2.29961e-24)
(1.0106 0.00261298 3.71299e-23)
(1.01757 0.00507142 4.2601e-22)
(1.01814 0.0044626 0)
(1.01862 0.00518669 9.50975e-22)
(0.978235 -0.042211 -3.33821e-21)
(0.984666 -0.0391663 2.76198e-21)
(0.984447 -0.04741 4.73102e-23)
(1.02305 0.0287088 1.05356e-22)
(1.02412 0.0283126 9.67025e-23)
(1.0106 0.0026681 9.9075e-23)
(1.01053 0.00255675 3.62402e-23)
(1.00988 0.00179142 0)
(1.00982 0.00172795 0)
(1.01007 0.00195052 -4.72344e-22)
(1.01002 0.00193392 -9.57987e-23)
(1.00997 0.00184319 -3.26495e-22)
(1.04509 0.0694574 0)
(1.04751 0.0699714 0)
(1.04566 0.0718105 0)
(0.892552 0.176491 5.94357e-21)
(0.888318 0.185355 -1.1022e-21)
(0.791267 0.17284 1.19672e-21)
(0.784318 0.160303 -9.73206e-22)
(0.797518 0.159708 -1.00908e-22)
(0.983663 -0.0183755 -8.7068e-22)
(0.973668 -0.0189254 -6.40746e-22)
(0.990167 0.000701777 9.71731e-22)
(1.03132 0.0222354 -2.59079e-21)
(1.03179 0.0221288 -1.8581e-21)
(1.0316 0.0227778 -2.79821e-21)
(0.981797 0.033057 5.31815e-22)
(0.974157 0.0309884 -2.63113e-22)
(0.980443 0.0255908 -7.01746e-22)
(1.01199 -0.00197305 -4.93386e-23)
(1.01188 -0.00190645 4.45379e-23)
(1.01184 -0.00188202 -6.22007e-23)
(1.02095 0.00829129 2.27539e-23)
(1.02132 0.00833366 1.45383e-21)
(1.03098 0.0217779 1.80069e-21)
(1.01732 0.00513463 1.22992e-22)
(1.01758 0.00519073 -1.33647e-21)
(1.01749 0.00534438 1.17595e-22)
(1.03352 0.0285644 2.16483e-22)
(1.00602 -6.93489e-05 2.08844e-23)
(1.00719 -0.000134883 3.49902e-24)
(0.895025 0.0437217 -7.29518e-22)
(0.897207 0.0606202 3.39453e-22)
(0.878806 0.0557188 1.69591e-23)
(1.01034 3.54892e-05 -2.61128e-22)
(1.01028 1.91865e-05 -7.05826e-22)
(1.01045 2.42488e-05 -7.35814e-22)
(1.0276 0.0936766 -6.153e-22)
(1.01777 0.0846844 0)
(1.01415 0.000626921 -3.53587e-22)
(1.01424 0.000714155 5.88816e-23)
(1.01409 0.000666689 -4.98793e-22)
(1.01425 0.0108941 3.40764e-22)
(1.01399 0.0105354 4.64332e-22)
(1.00433 0.00969162 -1.25924e-21)
(1.00462 0.00873734 1.91507e-22)
(1.00358 0.00887423 6.73275e-22)
(1.02624 0.164672 1.43677e-20)
(1.03036 0.161071 -9.8677e-21)
(1.02518 0.159093 1.1075e-20)
(0.807161 -0.229185 -2.85432e-21)
(0.77705 -0.231319 6.71325e-22)
(0.7564 -0.252234 -6.18786e-21)
(1.03089 0.0258952 -1.23195e-22)
(1.03236 0.0261572 1.55847e-22)
(0.988393 -0.0222221 -2.68647e-21)
(0.991004 -0.0165599 -2.70759e-21)
(1.01807 0.0125827 -1.38501e-22)
(1.01795 0.012176 8.69174e-22)
(1.01835 0.0124324 8.7663e-22)
(1.00974 0.00115253 3.70717e-22)
(1.00968 0.00118806 5.13529e-22)
(1.01707 0.00507684 -2.00324e-21)
(1.01716 0.00491853 0)
(1.00872 -0.00551106 0)
(1.00789 -0.00662138 0)
(1.00936 -0.00657748 6.87486e-22)
(0.919874 -0.00961533 0)
(0.911969 -0.0271857 -4.24701e-22)
(1.00979 0.00129235 2.69796e-22)
(1.00982 0.00125793 0)
(1.00973 0.00123977 0)
(1.01068 0.00066387 4.01686e-22)
(1.01003 0.000512134 -8.98313e-22)
(1.0108 0.000638681 -1.18582e-21)
(0.990365 0.00604987 -3.44772e-22)
(0.985834 0.00423571 -1.37296e-22)
(0.987092 0.0104301 4.6531e-22)
(1.01878 0.0119834 1.0747e-21)
(1.01915 0.0121721 -5.62761e-22)
(1.019 0.0117751 7.20254e-22)
(1.00986 0.00122469 1.11493e-22)
(1.00982 0.00117039 2.15041e-24)
(1.00991 0.00118435 -2.87816e-23)
(0.987382 0.162543 2.57117e-21)
(0.987796 0.168322 7.39118e-21)
(0.992773 0.165321 -5.07583e-21)
(1.00914 -0.00473448 0)
(1.00803 -0.00458917 0)
(1.01 0.0019232 1.77451e-22)
(1.00997 0.00190575 0)
(1.00992 0.00182031 0)
(1.01207 -0.000831318 0)
(1.01216 -0.00105588 5.35954e-22)
(1.01202 -0.000920726 2.99828e-22)
(1.02947 0.0234253 1.7487e-22)
(1.03012 0.0229366 1.235e-22)
(1.01184 0.000524507 6.33313e-22)
(1.01082 0.000469093 -1.40124e-22)
(1.01083 0.000473575 4.21623e-22)
(1.02989 0.0241493 7.8975e-24)
(1.02883 0.0239017 0)