/*--------------------------------*- C++ -*----------------------------------*\
| =========                 |                                                 |
| \\      /  F ield         | OpenFOAM: The Open Source CFD Toolbox           |
|  \\    /   O peration     | Version:  v2012                                 |
|   \\  /    A nd           | Website:  www.openfoam.com                      |
|    \\/     M anipulation  |                                                 |
\*---------------------------------------------------------------------------*/
FoamFile
{
    version     2.0;
    format      ascii;
    class       volScalarField;
    location    "200";
    object      nut;
}
// * * * * * * * * * * * * * * * * * * * * * * * * * * * * * * * * * * * * * //

dimensions      [0 2 -1 0 0 0 0];


internalField   nonuniform List<scalar> 
18758
(
9.90318e-05
0.00138151
0.00671665
0.00760916
0.0138414
0.0137136
0.00113416
0.00671825
0.000418559
0.000509277
0.00131534
0.00423914
0.00672086
0.0003616
0.00317565
2.40037e-05
0.00066066
0.00672009
0.00439009
0.000436004
0.0034631
0.00672586
0.00723264
0.00157271
0.000369495
0.00671795
3.59716e-05
0.0132193
0.00694235
0.000134711
0.000471216
0.00607457
0.00672352
0.00234534
0.000338382
0.00672326
0.00672451
0.00331913
0.00272141
0.000581484
0.00313527
0.000481646
0.00673749
0.000608776
0.000194562
0.00671642
0.00752051
0.00115645
0.000612576
0.00673511
0.000243989
0.0112208
0.00671709
0.00145366
0.0137668
0.00128186
0.00672427
3.10442e-05
0.00408827
0.000337692
0.000153914
0.001554
0.000353437
0.00120413
0.00671706
0.00672468
0.000587427
0.00672341
0.00375836
0.0119476
0.0122938
0.00195938
0.00673612
1.20538e-05
0.00672699
0.00390816
0.000327694
0.0132814
7.51939e-05
0.0056735
0.00880763
0.000276099
0.00030787
0.014104
0.000290133
0.000776994
0.00231731
0.000374906
0.000160407
0.0043786
0.0135595
0.00405569
0.00225703
0.000475571
0.00943909
0.00231869
0.000322561
0.00672844
0.00672823
0.00500134
0.000375637
0.0135944
0.000391187
0.000319072
0.00399288
5.0145e-05
0.0069708
0.0131398
0.00178955
0.00173344
0.00204507
7.1614e-06
0.00671802
0.0027309
0.0102416
0.00208505
0.00342536
0.0034427
0.00477649
0.0102636
0.000540166
0.00532931
0.00623133
2.06175e-05
0.000122203
0.00013953
0.000828234
0.000683358
0.0025617
0.00673306
0.000673438
3.19545e-05
0.000861273
0.000148726
2.16704e-05
0.000868075
0.000330986
0.000652582
0.00672789
7.22075e-05
6.77127e-05
5.15936e-05
0.00346777
0.00191899
0.00340099
0.00447446
0.00246709
0.00397495
0.000482598
0.0104073
0.000187587
0.00245021
0.000788708
0.00672583
0.0095857
0.000861044
0.00538114
0.001186
0.0024745
0.00672623
0.0067238
0.000339054
0.00197686
0.00210757
0.000157271
0.00774769
0.00378659
0.00612403
0.00014262
0.0136543
0.008579
0.00672016
0.00213794
0.0139849
0.000335277
0.00128487
0.00850864
0.00127048
7.48229e-05
0.0027396
0.00671795
0.00021668
0.00152578
0.00675664
0.0015422
0.000631612
0.00622473
0.00294658
0.00673349
0.00597547
0.000145619
0.000563496
0.00184092
0.000498593
0.000312486
0.000386964
0.000413872
0.000150794
0.00672265
0.00673637
7.82926e-05
0.00122655
0.000383915
0.000401945
0.00672027
0.000336641
0.000384696
0.00672598
0.00351289
0.000539426
0.00671996
0.000327553
0.00224574
0.000368522
8.32818e-05
0.00755765
7.8216e-05
2.5231e-05
0.0067217
0.0133132
0.00672002
0.00191245
0.00034018
0.00372333
0.000215124
0.000387333
0.000411772
0.000173986
0.00675373
0.000345765
0.00672498
0.000385737
0.00784188
0.000320495
0.00672125
0.00624354
0.00675352
0.00671635
0.00628088
0.000482931
0.0067225
0.000309623
0.00730047
0.00203412
0.00912666
0.000443505
0.000327458
0.00672337
0.00930725
0.00033625
0.00672275
0.00682879
0.000839201
0.000307948
0.00354329
0.000573515
0.000569775
2.61237e-05
0.000395795
8.54722e-05
0.00678831
0.000414375
0.00672166
0.00040746
0.000606149
0.000309622
0.00167108
0.00672051
0.00208135
4.98235e-05
0.00213415
0.00158775
0.00038443
0.0076721
0.00227453
0.00365201
0.000226591
0.000336491
0.000207034
0.00160761
0.00612884
0.000682454
0.000472771
0.00418443
0.000331583
0.00029049
0.000662643
0.000288863
0.00768122
0.00674819
0.00671619
0.000162118
0.00767027
0.000563139
8.6841e-05
0.000390449
0.000622211
0.00981211
0.00451958
0.000412497
0.0137698
0.00671642
0.00839453
0.000238278
0.00349751
0.00047426
0.000356999
0.00278348
0.00672291
0.00232544
0.000504276
0.00672407
0.00120435
0.0100285
0.000208567
0.0067225
0.00674677
0.000807926
0.00185428
0.00675353
0.00510479
0.00100256
0.000134159
0.000309411
0.000669569
0.000455142
0.000418244
0.00015994
0.00678571
0.00672601
0.00061515
0.00019766
0.000230111
0.00754083
0.000520384
0.0019052
0.00678439
0.000476133
0.00911322
0.00675449
0.00671983
0.00675392
0.000971665
0.000192583
0.000396949
0.00503346
0.00200914
0.00673762
2.38447e-05
5.6133e-05
0.00035521
0.00010342
0.00224582
0.000530566
0.000105813
0.000514916
0.000285568
0.00490479
0.0042741
0.00108578
0.00672026
0.000388066
0.00111259
0.00715094
0.000801239
0.006748
0.000431143
0.00378973
0.00083028
0.00344607
0.00588005
0.000373947
0.000433546
0.00245609
0.00357394
0.00115255
0.00514634
0.00249766
0.000348189
0.00126875
0.00160531
4.193e-05
0.00353033
0.00672375
0.00440848
0.000385062
0.000384141
0.00325658
0.00057176
0.00616831
0.000533373
0.00476163
0.00672015
0.00315019
0.0041833
5.22451e-05
0.00239577
0.00672494
0.000344852
0.00971984
0.000475986
0.00671833
0.00737551
0.00547766
0.00387725
0.00671809
0.000364163
0.00557423
0.000574883
0.000118907
0.00644211
0.00593427
0.013666
0.000583725
0.00672227
0.00130691
0.00366649
0.00671996
0.000717352
0.000452335
0.000150935
0.000468527
0.000501489
0.00672247
4.4911e-05
0.00882491
0.00471753
0.00801619
0.000379075
0.00163993
0.00671983
0.00672207
0.00201099
0.000391869
0.000632504
0.000953249
0.000262392
0.000814723
0.000820254
0.000399934
0.00420694
0.000546477
0.000151988
0.00128067
0.00625739
0.00632586
0.00672231
0.00555372
0.000464387
0.00222518
0.000575307
0.000335894
0.000167756
0.00276943
0.00408948
0.00145056
2.32375e-05
0.00526854
0.000195882
0.000226409
0.000350179
0.000565282
0.000429321
0.000350032
0.00178304
0.000336574
0.00292267
0.0003595
0.00148884
0.0024422
0.000578814
0.00073661
0.00108333
0.000456597
0.00671617
0.00172371
0.00673585
0.00268319
0.00492861
7.47225e-05
0.00672146
0.000531917
0.000837958
0.00672145
0.00672768
0.00671806
0.00730393
0.00200564
0.00976284
0.000628076
0.00164194
0.000349728
0.00672583
0.00672618
0.0106391
0.00672808
0.00672235
0.000339721
0.00672013
0.000229055
0.000352123
0.00672241
0.00539289
0.000428711
0.00140181
0.000739223
0.0102616
0.00140227
0.0001986
0.000776887
0.00672235
1.57459e-05
0.00176171
0.00204178
3.26819e-05
0.00235415
0.000448856
0.00145313
0.000875307
0.00202293
0.00403887
0.00428338
0.00281263
8.01389e-05
0.00672132
0.0106146
0.00060396
0.000446169
0.00674266
0.000209465
0.00908366
0.00323994
0.0042449
0.00292327
0.00284024
0.00423529
0.00672888
0.00672634
0.00640711
0.0011613
0.00807307
0.00527532
0.000294513
0.00216377
0.0067216
0.00673418
0.00110711
0.00672216
0.00152143
0.000961566
0.00274965
0.000362357
2.37878e-05
0.00672072
0.00954775
0.0129917
0.000233603
0.000316294
9.68725e-05
0.0005261
0.00118316
0.000899946
0.012404
0.00102145
0.000702795
0.00323995
0.00101456
0.000523534
4.76869e-05
0.000325823
0.00109609
0.00120337
0.00414448
0.000406505
0.000400404
0.00154927
0.00010527
0.00196424
0.00808269
0.00135417
0.00523667
0.00671823
0.00672025
0.0130714
0.00845756
0.00293657
0.000341266
0.000348541
0.0057898
0.00371885
0.000750618
0.000646556
0.00537061
0.014247
0.000507582
0.00331721
0.000541452
0.0118471
0.00366851
0.0024684
0.00136359
0.00298766
0.00671824
0.003965
0.000373259
0.0138257
0.0085436
0.00289974
0.00672247
0.000471236
0.00672608
0.00672323
0.00105649
0.00307152
0.00031111
0.000599641
0.000151475
0.0124654
0.000235797
0.0067213
0.000465549
0.000215873
0.0118032
0.000632255
0.000553216
0.000419765
0.00326506
0.00035273
0.00554121
0.00178906
0.00675776
5.03483e-05
0.0139414
0.000145695
0.00672008
0.00293153
0.00030676
0.000407586
0.00673524
0.000689913
0.00205452
0.00212557
0.0011828
0.00672392
0.00939595
0.00672633
0.00032467
0.00459619
0.000378024
0.00142074
0.000397697
0.00754214
0.000438475
0.00245929
0.0014803
0.00511792
0.00619735
0.00150686
0.00625738
0.00433674
0.000323948
0.00672593
0.000369377
0.000399981
0.000213012
0.00672147
0.000656731
0.000318396
0.00996053
0.00597643
0.0011692
0.000488789
0.000414294
0.000316184
0.0018518
0.00676681
0.00672694
0.00203249
0.000458079
0.00672273
0.000408395
0.00672183
0.00673661
0.00671969
0.0135637
0.0016624
0.00672568
0.000482859
0.000456302
0.00672171
0.00191785
0.00411204
0.00679037
0.000390224
0.000208863
0.00162918
0.00144614
0.000429674
0.000196693
0.000382479
0.00511773
0.000416631
0.00707169
0.000535422
0.000358991
0.00168496
0.00257365
0.00675544
0.0114976
0.000764504
0.00671752
0.00694789
0.00672153
0.00671955
0.000584624
0.00672001
0.000146781
0.0127802
0.00673373
0.00164961
0.00511722
0.000605584
0.00587349
0.00672015
0.0138632
0.00107204
0.0037169
0.00673083
0.00672729
0.000384885
6.85005e-05
0.00163802
0.000239974
0.012427
0.000461767
0.00672258
0.000317656
0.00164711
0.000884979
7.41506e-05
0.000357813
0.000514202
0.000875844
0.000396744
0.00176936
0.000411939
0.00671983
0.000898491
0.00225302
8.36871e-05
0.000408361
0.00241405
0.00562885
0.00132297
0.00672243
0.000594674
0.0010984
0.00671981
0.00059883
0.000320162
0.000436244
0.000400627
0.00293158
0.00762692
0.00672227
0.00672403
0.00419649
0.00672512
0.000298009
0.000385209
0.00141218
0.00672244
0.000391518
0.00672862
0.00386172
0.000999064
0.000274128
0.000158904
4.05681e-05
0.000229422
0.00672234
0.000531992
0.00924581
0.00672141
0.000397012
0.0014254
0.0125571
0.00092665
0.00938359
0.00671981
0.000970743
0.00672587
0.000432667
0.00327845
0.00176031
0.00129075
0.00672098
0.00678884
0.00672145
0.00878225
0.000306567
0.00089609
0.0141554
0.0031749
0.000642005
0.000875154
0.000351861
0.00541755
0.000854343
0.00672699
5.42328e-05
0.00672151
0.00325641
0.000849682
0.0026685
0.00656805
0.000552323
0.000954163
7.37323e-05
0.0011698
0.00524627
0.000331007
0.00671967
0.000596158
0.000940423
0.00672354
0.0126687
0.0111991
0.0067223
0.00249231
0.000687835
0.000375509
7.8172e-05
0.00136415
0.0123735
0.000265168
0.00671947
0.00672972
0.0123988
0.00347609
0.00376792
0.000919184
0.00329449
0.00705161
0.000322612
0.000463134
0.0131347
0.000509715
0.000337351
0.00156475
0.00671959
0.00671607
0.0067189
0.00229638
0.00296425
0.000344224
0.00672249
0.00672623
0.00124009
0.00536306
0.000586605
0.000609727
0.000191341
0.0114282
0.000411702
0.000331341
0.000362737
0.0040918
0.000377406
0.00437008
0.0058202
0.000860063
0.00622523
0.00766392
0.00286559
0.000986621
0.000155491
0.0130062
0.00535344
0.000131327
0.000217435
0.00594483
0.00672028
0.000329682
2.27379e-05
0.000331435
0.00672012
0.00339468
0.000608135
0.00818324
1.92661e-05
9.50166e-05
0.00567632
0.00195996
0.000343147
0.000349882
0.00238905
0.000209292
0.00672408
0.00142681
0.000286801
0.00672121
0.00672213
0.00136868
0.000567797
0.0067194
0.00182003
0.00673745
0.00249476
0.000349082
0.00591571
0.00675196
0.000127631
0.00672498
0.000332901
0.000387914
0.000292894
0.00672433
0.00246323
0.000121225
0.000346195
0.000859992
0.00338908
0.000367014
0.00414932
0.00286692
0.00690534
0.000228609
0.000202547
0.00672283
0.000639396
0.00672215
0.000601958
0.00673494
0.000347086
0.00950902
0.00671947
0.00417242
0.000738532
0.00382226
0.00978269
0.00294458
0.000554434
0.00190098
0.00672307
0.00673512
0.00671983
0.000405398
0.000957511
0.00023056
0.00155735
0.00871721
0.00672926
0.00656893
0.00733995
0.00622019
0.0135041
0.00671931
0.000377995
0.000937949
0.0067307
0.00517023
0.00672202
0.00774146
0.0021653
0.00672374
4.25967e-05
0.000593833
0.00672042
0.00038504
0.000412318
0.0067221
4.21041e-05
0.00671947
0.000315256
0.00918614
0.000464254
0.00673147
0.000361334
0.000411616
0.000321325
0.000613376
0.00047759
0.00527816
0.00108215
0.000455644
0.00672698
0.00675936
0.00672177
0.000721659
0.000427678
0.000663496
0.00465445
0.000898303
0.000510955
0.00323319
0.000312353
0.00621398
0.00672621
0.00131947
0.000154646
0.00672299
0.00296714
0.00672565
0.00344065
0.00672659
2.98877e-05
0.0132103
0.0067228
0.00155253
0.00671953
0.00038174
0.0067192
0.00449714
0.000824071
0.0067257
0.00676348
0.00672229
0.000264752
0.00671906
0.00416419
0.00642209
0.00110297
2.46228e-05
0.000140414
0.0135121
0.000132147
0.00672592
0.00672736
0.000544121
0.00465144
0.00045073
0.000403528
0.000570961
0.000575117
0.00374956
0.000430642
0.00136423
0.00672213
0.000321159
0.0121387
0.000247781
0.00671871
0.00922153
0.000632834
0.00183001
0.000946545
0.000404844
0.00672256
0.00675863
0.00678391
0.000518148
0.0067222
0.00542278
0.0127407
4.22108e-05
0.000720642
0.00672731
0.000220685
0.000336843
0.00672155
0.000594318
0.000380593
4.67295e-05
0.000447023
0.00301658
0.00149652
0.000608867
0.00671931
0.000219214
0.00196869
0.000234778
0.000417017
0.000387296
0.00549798
0.000525515
0.0132739
0.00748604
0.000364012
0.000207847
0.00226405
0.00672237
0.00672641
0.00189428
0.000327735
0.00672324
0.000962538
0.000333664
0.000508589
0.00671989
0.00672038
0.00406322
0.00672588
0.00034497
0.00547721
0.000632376
0.00672528
0.00252743
0.000320123
0.00672282
0.000870779
0.00677093
0.000363275
0.00151779
0.00535143
0.0103477
0.000190585
0.0125579
0.00323061
0.000462442
0.0053353
0.00814848
0.0106384
0.00673929
0.000495297
0.000323739
0.00672258
0.00671923
0.000522829
0.00389506
0.00672158
0.000289036
0.000337621
0.0067199
0.000758211
0.00672274
0.00116442
0.000332754
0.00672313
0.0112895
0.000658683
0.00672033
0.00037841
0.000180847
0.000426102
0.00672621
0.000335653
0.00268789
0.0134609
0.00583522
0.00673433
0.00361651
0.00671698
0.0131167
0.00672048
0.000417896
0.0083011
0.00954304
0.00297176
0.00168142
0.00672192
0.00103529
0.000829114
0.000436347
0.00671523
0.00119684
0.00672384
0.0038929
0.000264871
6.88483e-05
0.00025461
0.0067198
0.00108948
0.000382494
0.00225787
0.000223061
0.0065683
0.00595197
0.00845725
0.00672176
0.00673529
0.00509778
0.0134592
0.00538238
0.0064862
0.0137295
0.00118248
0.0067416
0.000826423
0.00671739
0.00671941
0.00106215
0.00174261
0.00672543
0.00956568
0.00764594
0.00671915
0.00886469
0.00034735
0.00485319
0.00303366
7.24571e-05
0.00672469
0.000570723
0.000381135
0.00671992
0.000458627
0.00263463
0.00034141
0.00410159
0.00390981
0.000441236
3.07423e-05
0.000946807
0.00555384
0.00251057
0.0067217
0.000282348
0.00159846
0.0103024
0.00671722
0.00355454
0.000504743
0.00672591
0.000199127
0.00671683
0.0024151
0.00595393
0.000322886
0.000631639
0.000548373
0.000634062
0.00182401
0.00150268
0.000447948
0.000335515
0.00130373
0.00555556
0.00672663
0.00672272
0.00197096
0.00671908
0.000334772
0.000739881
0.000363095
0.00671992
0.000791369
0.00305527
0.00114915
0.0067205
0.00030339
0.00233661
0.00673098
0.00722625
0.0117212
0.00112203
0.00672162
0.00204882
0.000756831
0.00364772
0.000207632
8.47655e-05
0.00777305
0.000948718
0.00845704
0.00256925
0.00431386
0.00671926
0.00778911
0.00485814
0.00672156
6.10082e-05
0.00489766
0.00672365
0.00672158
0.00152115
0.00072584
0.0067237
7.96511e-05
0.00963544
0.00148814
0.00671859
0.00204571
0.0068329
0.00679035
0.000402925
0.00672618
0.00671966
0.00420288
0.00672686
0.000418164
0.00386118
0.00446972
0.00582086
0.00672671
0.000322444
0.00672218
0.00486027
0.00326711
0.0053742
0.000328232
0.000641497
0.000202164
0.001512
0.00326275
0.00672381
0.00672482
0.00982064
0.00471014
0.000435032
0.000130655
0.00937237
0.00672002
0.00672402
0.00972874
0.00672214
0.000160962
0.0003692
0.00215355
0.0112394
0.00875602
0.000294761
0.00197698
0.000823104
0.000364765
0.00673177
0.000614701
0.00672056
0.000255555
0.00672236
0.00616153
0.00211003
2.61937e-05
0.000102215
4.21948e-05
0.00672413
0.00978395
0.00672353
0.0140837
0.000493128
0.00671899
0.00673402
0.00568363
0.000426323
0.000140562
0.0138136
0.000697665
0.00573747
0.00671803
0.00491966
0.00196113
6.71194e-05
0.00033966
0.00672269
0.00672438
0.000733377
2.50254e-05
0.00522149
0.000391027
8.51489e-05
0.00509269
0.00154098
0.00104742
0.000452087
6.32045e-05
0.00110432
6.80054e-05
0.00675105
0.00672203
0.00323815
0.000448329
0.000385312
0.00157087
0.00672642
0.00257002
0.000131757
0.000123322
0.012438
0.00673001
0.00546593
0.00896057
0.000374054
0.00671709
0.00777465
0.000348245
0.00672056
0.000642895
0.00700721
0.00157251
0.00672054
0.000422096
0.00672573
0.00258766
0.000331989
0.00412674
0.00672603
0.00672418
7.08137e-05
0.00100183
0.00279565
0.00040661
0.00687164
0.000260264
0.00672553
0.00673051
0.000262433
0.00164998
0.00544982
0.0044888
0.000285711
0.00406497
0.000329469
0.00518051
0.00270417
0.0047046
0.00363331
0.0141351
0.00673483
0.0105852
0.000175032
0.00667611
0.00832537
0.000422823
8.92469e-05
0.00672877
0.00038674
0.00672028
2.17988e-05
0.00671643
0.000567039
0.00279517
0.00672645
0.007989
0.00280156
0.00356401
0.00144142
0.00718414
0.00672137
0.00672242
0.00604697
0.00584968
0.00677878
0.00672211
0.00186373
0.00672221
0.00672351
0.000505557
0.00672335
0.000443011
0.00675493
7.50472e-05
0.00397047
6.3735e-05
0.00727267
0.00118187
0.000506092
0.00672841
0.00671938
0.0030819
0.00388472
0.00878633
0.00390155
0.00672589
0.0067273
0.00107865
0.00672178
0.000401194
0.000571855
0.00683844
0.0128782
0.00349119
0.00824116
0.00678253
0.00458334
0.00664621
0.0119597
0.00063064
0.00219116
0.000701951
0.00673247
0.00127115
0.000350833
0.000436493
0.000843067
0.00310727
0.00672741
0.00671679
0.00547768
0.000352466
0.00326718
0.00671648
0.000664177
0.00672202
0.00177917
0.000998557
0.00504255
0.0083629
0.000418238
0.000494705
0.00522291
0.000341686
0.00672185
0.0055841
0.00677517
0.0061065
0.00257079
0.00514294
0.0002459
0.00680702
0.000343264
0.000343985
0.00148884
0.000467421
0.00223915
0.00185643
0.00590562
0.00694505
6.71854e-05
0.0130151
5.919e-05
0.000600511
0.000509259
0.000776278
0.00672863
0.000294344
0.00104924
0.00672193
0.00588758
0.00673872
0.00309732
0.00672457
0.0137424
0.000621448
0.00671933
0.00539235
0.00621107
0.000118624
0.00010515
0.000699826
0.0025837
0.00511271
0.00672019
0.0063987
0.00040047
0.000119931
0.00671595
0.00870868
0.000666709
0.0132333
0.0067206
0.00308202
0.000160695
0.00673034
0.00672227
0.00473076
0.0059757
0.013778
0.00159674
0.00671914
0.00203388
0.00672142
0.0133496
0.000482349
0.00672155
0.000583865
0.00519823
0.00183394
0.00868875
0.00676688
0.00649961
0.00672139
0.00677451
0.00672883
0.00356883
0.00671512
0.00201453
0.000421166
0.000510486
0.00671951
0.00252614
0.0014097
0.013388
0.00179159
0.000209232
0.00957646
0.013336
0.00488801
0.000686687
0.00672019
0.00578779
0.000850044
0.000622714
0.00937871
0.000440903
0.000362504
0.0026863
0.000988093
0.00672164
0.00719937
0.000170551
0.00657946
0.0037868
0.000359669
0.00107366
0.00671801
0.000684162
0.000659642
0.00672929
0.00845059
0.0067223
0.000711329
0.00672062
0.000403205
0.000299498
0.000319072
0.000594322
0.000429841
0.00058626
0.000797988
0.000793266
0.00676304
0.0120876
0.00038113
0.00672581
0.000318543
0.000478313
0.000880543
0.00615363
0.00183576
0.00672327
0.00674785
0.00402816
0.0101167
0.00102218
0.00672127
0.00227079
0.00672197
0.00672198
0.000642184
0.0129274
0.00206832
0.00215611
0.00496248
7.2121e-05
0.00360739
0.00241102
0.0133662
0.000518908
0.00671678
0.00109546
0.00291854
0.00322792
0.000687983
0.00179367
0.000491467
0.000405567
0.000100601
0.004544
0.0108527
0.00672167
0.00702918
0.00672586
0.00136192
0.0075433
0.00672308
0.00580177
0.00672603
0.000923393
0.000391811
0.00671994
0.000978567
0.00258142
0.000737563
0.000269851
0.00142956
0.00672113
0.00690919
0.00673516
0.000316471
0.000451666
0.000585908
0.00672261
0.00522117
0.00735779
0.00671894
0.00671911
0.00199373
0.000400512
0.00052577
0.000369281
0.000805853
0.00672707
0.00119
0.00248753
0.00161408
0.0126281
0.00672309
0.000315432
0.0109521
0.000302858
0.00592518
0.000385358
0.00676111
0.00672411
2.86508e-05
0.000337212
0.000387012
0.00672493
0.00631799
0.000653018
0.000409664
0.00394774
0.00130215
0.00520772
0.00257693
0.00671948
0.00394929
0.0075105
0.00671744
0.00642517
7.39009e-05
0.000932633
0.00672865
0.00611473
0.00813251
0.0067519
0.00672929
0.00522954
0.00198954
8.80589e-05
7.42606e-05
0.000387457
0.00672416
0.00122931
0.000444731
0.00672834
0.0131651
0.000358239
0.00511699
0.000479842
0.000505834
0.00672154
5.65555e-05
0.00672292
0.000129651
0.00160437
0.00106569
0.00671592
0.00510643
0.000342259
0.00327646
0.0117507
0.000501728
0.00332364
0.00351391
0.00672022
0.00672928
0.0117313
0.00672584
0.000282074
0.00672095
0.00673387
0.000419517
0.00962372
0.00671921
0.00672167
0.00470971
0.00163422
0.00071285
0.000855502
0.00521926
0.00141075
0.00671849
0.000353954
0.0133259
0.00205002
0.000788441
0.00823152
0.000610747
0.00214424
0.000415423
0.00673062
0.00344594
0.000750585
0.00672151
0.000448592
0.00429506
0.00650689
0.00396952
0.0086967
0.00312258
0.000619326
0.0133096
0.000583293
0.00133651
0.00671931
0.00470943
0.00672598
0.000517248
0.00673903
0.000347037
0.000546212
0.000473676
0.00132146
0.0030289
0.000787649
0.00672455
0.00611471
0.00492588
0.00672171
0.000564013
0.00672014
0.000448871
0.00659949
0.000152405
0.000518741
0.00193437
0.00274634
0.00912026
5.28618e-05
0.00671912
0.00101243
0.00672144
0.00671813
0.00672632
0.000795429
0.0046601
0.00134658
0.00170076
4.78941e-05
0.00349372
0.000507002
0.00672064
0.000161605
0.0060336
0.00260644
0.00124774
0.0128871
0.00332008
0.00072304
0.000765658
0.00672878
0.000663375
0.00542166
0.0030565
0.00672531
0.00672449
0.00092192
0.00672062
0.00672797
0.000422077
0.00109732
6.30688e-05
0.00286391
0.00672121
0.00684249
0.00672044
0.000336063
0.00567452
0.00671697
0.000628749
0.00672846
0.0137915
0.00486987
0.00077347
0.00574754
5.46168e-05
0.000530655
0.00140365
2.95702e-05
0.00672238
0.000211805
0.00240007
0.000838171
0.00672471
0.00672167
0.000333435
0.00036802
0.0101758
0.000373366
0.000216558
0.000645825
0.0032241
0.000583451
0.00219192
0.01196
0.00955328
0.00248924
0.00588284
0.0067154
0.00407317
0.00714407
0.00672229
0.00585215
0.00672245
0.000866882
0.00671563
0.00417034
0.00460173
0.00500823
0.000311179
0.000183199
0.00041468
0.00499284
0.00672426
0.00671609
0.00671943
0.00671816
0.00672548
0.00672328
0.0112125
0.00844872
0.0085781
0.00119158
0.00795365
0.000431123
0.0137836
0.00741976
0.000463137
0.00672194
0.00195989
7.84707e-05
0.00176674
0.00179866
0.00264313
0.00171496
0.00671663
0.00111249
0.00896014
0.00672331
0.0101135
0.00492046
0.00672164
0.0128458
0.00667459
0.000387103
0.00672309
0.00809008
0.00675682
0.00494222
0.000394684
0.00674318
0.00672226
0.00440402
0.00671762
8.81512e-05
0.00606275
0.000404205
0.00672068
0.00672425
0.00672753
0.00305704
0.000508594
0.00218825
0.0121618
0.00672149
0.00675137
0.000329455
8.46072e-05
0.00238541
0.011345
0.0129809
0.000875277
0.00851669
0.00672182
0.00353449
0.000407267
0.0067519
0.00819947
0.00802497
0.00671912
0.00166066
0.00535781
0.00233645
0.000936555
0.000605402
0.00672259
0.000567848
0.000217262
0.000511271
0.000830324
0.00672033
0.00248646
0.00602034
0.00672234
0.00905771
0.00671471
0.00672199
0.000561939
0.00165602
0.000423944
0.0108406
0.00671997
0.000198571
0.00407228
0.00369803
0.00252614
0.00672423
0.00672279
0.00672701
0.00672166
0.00672324
0.00159677
0.00305637
0.00297586
0.00672515
0.00220322
0.012427
0.00296554
0.00213698
0.00836668
0.00672417
0.000374473
0.00674524
0.0003573
0.0137372
0.000235934
0.0136344
0.000567074
0.00379927
0.00573831
0.000727969
0.005689
0.000357443
0.00116007
0.00672466
0.0055494
0.00276582
0.00674526
0.000322374
0.00545734
0.00674449
0.0066504
0.00026126
0.00671868
0.00465386
0.00673867
0.00332129
0.00861785
0.00245461
0.00672122
0.00486373
0.00672235
0.0013446
0.000172363
0.00156048
0.000315159
0.00019164
0.0067238
0.0108525
0.000870831
0.00540333
0.00557048
0.00674768
0.000628429
0.00671948
0.00205339
0.00178027
0.0090437
0.00405958
0.00671993
0.00160174
0.00234181
0.000714177
0.00672743
0.00493561
0.000491619
0.000182351
0.000739982
0.0130968
0.000374747
0.000865763
0.00441371
0.00312084
0.00672136
0.00119906
0.0098501
0.000687077
0.000367045
0.00275857
0.00672017
0.000291945
0.000262301
0.000846039
0.00672692
0.000243837
0.00672961
0.000324266
0.000230531
0.00054621
0.0126712
0.00672069
0.000562723
0.000501586
0.00394087
0.000295933
0.00519715
0.00111835
7.14678e-05
0.000360623
0.00498731
0.00672634
0.00672479
0.00041872
0.0067187
0.0037758
0.0053042
0.00672114
0.00675488
0.000214433
0.00671598
0.000360358
0.0101989
0.00164377
0.00673544
0.0067478
0.000272634
0.000255631
0.00672215
0.00515632
0.00012089
0.00672639
0.00671727
0.0111057
0.0102285
0.00671906
0.000319812
0.000227428
0.00672324
0.00385789
0.00372335
0.00030937
0.0067248
0.00218111
0.0133973
0.00672532
0.00071397
0.00767571
0.000510463
0.00642402
0.00672498
0.000667713
0.0111545
0.00964619
0.00113437
0.000590093
0.00147344
0.000688458
0.00270691
0.00500926
0.0101961
0.00590769
0.00272968
0.00316558
0.000494847
0.00451061
0.000358947
0.000952066
0.00262714
0.0067571
0.00672368
0.00587272
0.00457324
0.00671923
0.000410584
0.00903301
0.000437145
0.0067271
0.00672174
0.00156575
0.00110624
0.00117704
0.00672287
0.000647153
0.00608567
0.00671769
0.00432434
0.000661073
0.000397312
0.0067223
0.000534528
0.00175942
0.00104705
0.000367372
0.000421991
0.0110831
0.000426367
0.000160572
0.005106
0.00671934
0.00424979
0.00141595
0.013316
0.0010254
0.000610051
0.00672358
0.00837112
0.000637245
0.00672885
0.000800976
0.0019415
0.0125096
0.000426718
0.000787958
0.000185592
0.000361563
0.00672283
0.00672404
0.00672499
0.00123909
0.00869087
0.000605912
0.00672175
0.000326645
0.0049023
0.0133935
0.00496344
0.0128288
0.000815483
0.0123434
0.000660775
0.000140361
0.00421228
0.00672599
0.00671947
0.0128844
0.0045626
0.000589427
0.00433955
0.00671551
0.00312944
0.00031567
0.00498302
0.00043627
0.00672109
0.00515253
0.00651711
0.00112453
0.00499532
0.00590033
0.00672353
0.0014401
0.00150798
0.00183015
0.00386063
0.00337154
0.000449357
0.000524058
0.00232271
0.000275045
0.000248576
3.56809e-05
0.000399496
0.00673605
0.00410179
0.00149575
0.00951394
0.00558091
0.00672074
0.00673033
0.00673994
0.00671562
0.00403362
0.00671834
0.000209904
0.00912754
0.000721144
0.00980742
0.000695777
0.00672424
0.00672212
9.54668e-05
0.00672407
0.00238653
0.00672115
0.00669146
0.00181686
0.00671857
0.00271314
0.00672987
0.00601104
0.00672594
0.00672148
0.00633197
0.000271989
0.00195809
0.00526374
0.000380346
0.00672767
0.00507241
0.000415896
0.000398224
0.000355496
0.00164544
0.00672192
0.00811387
0.00281172
0.000461772
0.00134456
0.00673574
0.000353745
0.00672084
0.012599
0.00673957
0.00603095
0.0132593
0.00043998
0.00213429
0.00671788
0.000373366
0.000281726
0.000358477
0.00701281
0.00671918
0.00673588
0.00674129
0.0001284
0.00124916
0.000732099
0.00672365
0.000705365
0.00661411
0.000318529
0.0067245
0.000132228
0.000559938
0.00439599
0.000940949
0.00213012
0.0015419
0.00658367
0.00575847
0.00239266
0.0110057
0.00675115
0.000537638
0.00583556
0.000136112
0.0120534
0.00861298
0.00459028
7.83723e-05
0.00672502
0.000348186
0.00672472
0.0019535
0.0004119
0.000352531
0.00029314
0.00672198
0.000669647
0.00190539
0.000333742
0.000398329
0.0141953
0.00672201
0.00163255
0.00686556
0.000285104
0.00552924
0.00108689
0.0104607
0.000584402
0.00672173
0.00017032
0.00431223
0.0117739
0.0067264
0.00917012
0.000409549
0.00676999
0.000322461
0.0022594
0.006726
0.00291523
0.00229194
0.00671998
0.00182307
0.00671833
0.00267614
0.000354139
0.000385787
0.00102398
0.00793638
0.00672584
9.37728e-05
0.000328596
0.0022158
0.000934268
0.000990813
0.00318817
0.00672472
0.00805218
0.00803873
0.00308123
0.00675493
0.000631205
0.00672246
0.0108587
0.00672196
0.000483825
0.00718087
0.00325471
8.48597e-05
0.0037109
0.000373939
0.00806535
0.000639576
0.0067232
0.00672216
0.006723
0.0142792
0.000621788
0.000361202
0.011356
0.00287881
0.00672405
0.00706279
0.00036897
0.000353044
0.00672345
0.00596478
0.00534532
0.000449072
0.00301544
0.000587355
0.00676064
0.00672185
0.00671841
0.00805615
0.00762817
0.000934575
0.000254537
0.00143507
0.000609091
0.00672749
0.0067241
0.000405705
0.00271203
0.00673115
0.000572312
0.000152005
0.000983564
0.000275365
0.00286845
0.000449648
0.0137037
0.00248352
0.00678043
0.00299649
0.0133656
0.000325042
0.000143113
0.000401284
0.00636354
0.00499797
6.63219e-05
0.00136046
0.000432643
0.00655828
0.000417918
0.00973814
0.00175846
0.00687166
0.000522454
0.00187595
0.00671955
0.000322498
0.0112137
0.00672329
0.000305002
0.00663547
0.00672224
0.000303814
0.000224048
0.000346615
0.00606341
0.000388602
0.0022737
0.00672241
0.00677343
2.38544e-05
0.00280228
0.000617804
0.000899554
0.0067192
0.00672355
0.00305019
0.00545723
0.00672734
0.000593439
0.00154631
0.000743592
0.00672187
0.000322525
0.00679423
0.00706518
0.00104151
0.00883257
0.000399078
0.000171987
0.000228897
0.00327492
4.60636e-05
0.000238517
0.00673716
0.00663485
0.00187449
0.00127556
0.000322686
0.00825334
0.00672437
0.00068955
0.000250878
0.000287678
0.00385562
0.000318009
0.0109409
0.000320886
0.0097675
0.000501988
0.00858156
0.000510441
0.00591595
0.00246432
0.0121683
0.00579667
0.000356087
0.0067301
0.00635807
0.00943036
0.00940194
0.00672075
0.00671675
0.000429446
0.000472797
0.0072434
0.00228966
0.000203628
0.00671781
0.00497052
0.0067244
0.00714087
0.000565474
0.00341897
0.00165532
0.00203398
0.000350069
0.00778389
0.00104307
0.00786972
0.00672441
0.00672464
0.000630244
0.00672317
0.00827821
0.000334308
0.0107073
0.00271735
0.00580101
0.00573127
0.00671572
0.000256838
0.00740221
0.000144922
0.00671775
0.00145785
0.00672122
0.0106934
0.00671538
0.00183694
0.00928259
0.000926737
0.000151584
0.000462454
0.0067173
0.00202944
0.000325378
0.00345927
0.00675712
0.00671845
0.000898387
0.0058558
4.96165e-05
0.00672627
7.2769e-05
0.00558778
0.00672198
0.00609861
0.00517437
0.00682118
0.00449518
0.00672153
0.000384651
0.00483374
0.00653624
0.00672307
0.00242078
0.000433413
0.000899963
0.00671839
0.0108229
0.00327107
0.00865906
0.00672014
0.0071383
0.00462964
0.000607089
0.00643229
0.000346232
0.000367878