/*--------------------------------*- C++ -*----------------------------------*\
| =========                 |                                                 |
| \\      /  F ield         | OpenFOAM: The Open Source CFD Toolbox           |
|  \\    /   O peration     | Version:  v2012                                 |
|   \\  /    A nd           | Website:  www.openfoam.com                      |
|    \\/     M anipulation  |                                                 |
\*---------------------------------------------------------------------------*/
FoamFile
{
    version     2.0;
    format      ascii;
    class       volScalarField;
    location    "200";
    object      omega_0;
}
// * * * * * * * * * * * * * * * * * * * * * * * * * * * * * * * * * * * * * //

dimensions      [0 0 -1 0 0 0 0];


internalField   nonuniform List<scalar> 
18758
(
0.119968
5.24902
0.0214735
4.734
5.56318
5.76611
7.5352
0.02171
0.266782
0.02785
0.0236793
10.5824
0.0220464
0.182595
0.0229567
0.625306
0.0426955
0.0219434
0.021909
0.031089
8.9976
0.0222714
5.76276
4.47466
1.52202
0.0217145
1.75496
5.43863
8.97375
4.27961
0.0746758
6.20321
0.022182
0.0226505
0.142596
0.0221716
0.0222265
0.0219981
0.0222544
0.0460044
0.0219953
0.0266029
0.0216439
0.0261744
2.3654
0.0216157
5.39369
0.0239955
0.027393
0.0216129
0.137296
5.93437
0.0215438
0.0234497
5.32189
9.55097
0.0222172
0.373007
0.0219359
0.200914
0.0977729
6.44188
0.117429
0.0228033
0.0215531
0.0220137
0.0475027
0.0221776
0.0219193
5.87896
5.64952
0.0222963
0.0216191
14.383
0.0216814
0.0219268
0.258563
5.61168
0.0883473
5.22712
6.38108
4.96427
0.20041
5.47057
0.266275
0.0304275
23.1729
0.116254
6.06337
0.0219251
5.28961
0.0219376
14.5227
0.0270361
6.22359
13.082
0.25566
0.0216804
0.0218923
7.19088
0.0325746
5.07381
0.0921166
0.0468391
7.87506
3.34694
5.58896
5.7146
0.0226338
0.0222949
16.5798
10.6983
0.0217555
0.0220186
7.16114
9.8627
8.25736
0.022959
7.92631
5.81715
0.0382263
0.0219648
11.3786
1.40357
0.570622
1.98429
3.81987
1.47244
11.7625
0.022043
0.0444038
1.6019
19.8434
0.0494827
4.86837
0.0238076
0.251511
0.0481325
0.02189
0.0784796
0.0889591
0.246704
0.0219397
13.8014
0.0219991
0.0219904
10.8351
7.67696
0.0738177
6.59491
3.53769
4.35807
0.0303511
0.022271
5.14553
0.0281787
6.88327
0.0240027
0.0221349
0.0222889
0.0218
0.198028
19.492
0.0221322
0.0973087
8.83315
0.0219536
11.976
0.224926
5.83657
4.89393
0.0219384
19.0635
5.46229
0.197563
3.68071
8.00138
0.0229016
0.0767572
0.0221097
0.0217949
29.8096
4.18066
0.0216452
0.0251714
2.27815
0.021916
8.26351
0.0216293
0.0219311
0.0497951
0.972737
0.0223808
0.0694652
0.0340349
0.118004
0.031726
0.257738
0.0221483
0.0216376
0.0736246
0.023936
0.0368351
0.085464
0.0220349
0.0335876
0.094592
0.0222789
8.76328
0.0274253
0.0219307
0.0493545
0.022172
0.0365346
0.0774747
6.83748
0.0861164
0.543594
0.0216298
5.90102
0.0219305
0.0226523
0.228877
8.56025
0.272094
0.0933492
0.0588512
0.0468954
0.0216039
0.0865077
0.0220079
0.117407
5.30309
0.273737
0.0220628
0.0219187
0.0216057
0.0216397
11.7544
0.0367828
0.02183
0.881753
5.5931
0.0229892
6.59991
38.1027
0.270975
0.0221783
6.29929
0.0297481
0.0221519
11.3906
0.0305149
0.0302415
0.0224564
0.0414966
1.17204
0.671218
0.0356609
0.085962
0.0216563
0.0755396
0.0220302
0.0846045
0.0269713
0.227918
9.476
0.0216346
0.0225172
0.453498
0.022445
0.0249297
0.08497
9.27034
10.1257
0.0219342
0.120182
25.583
2.21073
0.0225706
0.0217325
0.0293387
0.0369729
0.0219328
23.1643
0.655014
2.65461
34.278
5.70537
0.021625
0.0214665
0.0513994
7.79059
0.0255489
0.0863026
0.11153
0.0293186
5.93651
0.0218768
0.517721
5.5802
0.0216276
5.80152
0.0377626
0.0219454
0.0332151
0.0861772
0.0227521
0.0221563
6.53753
1.88028
0.0219308
8.37581
5.90031
0.244903
0.0220174
0.0221227
1.72142
0.0229616
0.0216402
0.0217629
0.0229978
0.236568
0.0876376
0.0293079
0.0358059
0.0312277
0.0497342
0.0216423
0.0222787
1.3955
0.0558637
0.12853
4.6442
0.0259332
0.0223285
0.0220728
0.501337
5.82907
0.0216161
0.0219182
0.0216183
0.0237034
0.0442416
1.02592
0.0219654
0.0221942
0.0216034
0.825152
0.221605
0.172558
0.158195
0.0228077
0.804424
0.112978
0.0375065
0.0314614
9.78048
7.89802
3.84469
0.0220468
0.0332749
6.61959
9.07407
0.0249755
0.0216292
0.0596021
0.0219436
0.0304742
7.98103
4.67412
0.128196
0.0304948
7.83107
0.0219766
0.0239211
0.0218835
0.0222649
0.121113
0.0240667
7.50824
0.281533
0.0223868
0.0219349
7.03283
0.125706
0.259649
0.0219767
0.0576408
0.0217227
0.0260018
0.0219649
0.0216438
8.8126
7.87791
4.17171
21.6589
0.02191
0.232181
5.29641
0.0423955
0.0217495
4.57239
0.0217624
0.0220351
0.0217903
0.124944
0.0219587
0.0260567
0.146333
10.7692
0.0217494
5.49517
0.0490833
0.022023
0.0257627
0.0219488
0.02192
0.0286014
0.070504
0.04902
25.925
0.039849
0.0220431
0.405717
5.83457
4.68511
5.01522
0.118273
0.0224981
0.0216443
0.0218341
0.0221895
0.128452
0.043652
0.032773
0.0363272
0.0304013
2.12988
0.0935637
0.0219454
0.034791
5.50412
0.0227859
4.46279
0.0222095
0.0220823
6.29834
0.0280618
0.0224439
1.0662
0.145655
0.0508265
10.5527
0.0219306
0.0225962
0.744274
9.36693
0.0360927
0.0718304
0.186572
1.20544
22.6973
0.184241
0.0222729
0.135326
0.0220159
0.130563
0.0231353
12.9317
0.0569246
3.99725
0.032609
0.0840468
0.0216285
4.08006
0.0216251
10.2886
0.0218871
0.372024
0.0220554
1.46578
0.0314508
0.0220867
0.0218989
0.0217819
5.51655
12.2861
7.2376
0.047091
0.0245628
0.086651
0.0222703
0.0222875
5.95171
0.0218992
0.0220614
0.113784
0.0220409
0.0700276
0.0861851
0.022057
0.0219556
0.0279154
0.0226868
0.0287275
6.56492
0.0315616
0.0357924
0.0267594
0.0220472
3.72567
0.0223224
0.0226416
3.60083
9.67554
0.0801008
3.48192
0.0251874
0.0226103
7.01923
0.0219329
9.31027
0.338696
0.0220802
6.52596
1.22333
0.0604919
0.0218548
0.0532152
5.96505
0.0220003
0.0218576
0.0230197
0.0227435
0.0220081
0.0216965
0.022294
11.2083
0.0252094
8.71883
0.0219695
0.15057
7.63993
0.0220358
0.0216361
0.02516
0.0221291
0.0226428
0.0232723
0.0220977
0.114811
0.833731
0.0215422
5.96527
5.17421
0.0355436
0.133565
4.52492
0.0263735
0.0307078
0.0284495
5.69815
0.0251089
0.048248
0.0219747
9.86846
0.0425805
0.223581
0.145604
7.32321
0.0250486
0.0219162
0.0590521
1.22043
0.022576
0.462765
0.0222066
5.72503
0.0227399
0.0217844
0.0217779
0.0220471
5.22172
5.73783
0.0219892
0.289752
0.0306729
4.88539
8.33688
1.42789
2.36601
0.0218737
5.58098
0.0688337
0.0219601
0.0484831
5.87569
8.07365
0.0226322
0.022555
0.0219851
0.0215097
7.71707
0.113943
5.37325
5.47639
0.0220248
0.0221402
0.0596005
0.0222813
0.0218029
0.0232487
0.022845
0.117027
0.0418598
0.220671
5.75826
0.0720654
0.0220622
0.0274544
0.118381
5.88727
0.0459366
7.86927
0.0526448
0.0219933
0.283928
4.95587
0.0224417
0.0216353
0.150432
5.20176
0.246574
0.0220416
9.79592
33.3378
1.52538
0.0216067
6.80032
6.76246
23.6554
0.0240656
0.0221964
7.51684
0.0222945
0.207103
7.19856
0.211661
6.38436
0.0918422
5.81873
0.0715774
0.0220686
0.022539
5.97086
4.64263
8.10962
4.70319
0.0219322
0.207256
0.0222772
0.0596748
0.095179
0.129499
0.0220851
0.0251792
0.22116
5.92429
5.55654
9.41232
0.038727
0.0326206
0.276257
0.022228
0.0217008
0.0219601
0.0253544
0.0782521
0.0220337
0.0890992
0.0218522
0.0220734
0.0219058
5.53225
0.0223139
0.0222696
0.0561395
0.0529872
0.0215467
11.3264
0.0219441
0.0216899
0.0551006
0.0368604
0.0247871
0.0228698
5.89746
0.0359133
0.034666
4.95781
0.0346817
4.63071
0.0259398
0.115265
28.7672
9.93759
0.0216276
5.74505
2.46212
0.021683
6.13517
0.0220621
0.0218928
0.0398802
0.0219511
0.109921
5.81835
0.0216234
25.7538
0.0218513
0.0380217
4.54445
0.0215271
5.15219
0.0235145
0.0219671
0.0219225
0.0219572
0.230474
0.0729782
11.0843
0.0741053
5.51389
0.0594219
0.0220356
0.24197
8.24055
3.74627
0.0760615
0.166979
0.0679843
0.0267041
0.22871
0.022689
6.16273
0.0220344
5.83875
0.0227159
0.0761552
0.0279509
0.0223358
8.91192
0.0225568
0.0218112
2.82527
0.0235502
0.0219085
0.0457607
0.0860167
0.238065
1.98491
4.66368
5.53661
0.0221327
0.0222049
7.94086
0.0219951
0.848845
0.0982455
0.0237641
0.0220605
0.0328344
0.021989
0.021932
0.029102
0.701605
0.219629
0.157187
0.0625692
0.0221323
0.0634923
7.94622
0.0218619
0.0962316
0.0238912
5.81964
0.0231995
5.88506
0.0220289
2.34593
0.0222766
0.0866845
0.0219634
0.0250355
0.0298177
0.0215319
0.0216744
0.0215812
5.61033
31.2237
0.0331316
5.28111
0.0219996
0.0431671
0.0281976
0.275892
5.55666
0.0333098
0.0215397
0.229359
0.0218544
0.0219999
0.0282239
9.03095
10.2501
1.52327
1.86458
0.0741488
0.0229259
0.021878
5.12588
0.0218961
2.3982
0.0276876
0.0221854
6.07581
6.52255
0.0220901
9.23885
0.0271145
0.117131
0.0978702
3.27303
6.30004
1.21664
0.0219978
0.021501
5.79114
0.021941
0.0219177
0.0283651
0.0219576
5.27726
0.261215
0.0598373
5.0862
0.0497754
0.138344
0.0238026
0.0219902
0.0215362
0.0217797
10.0065
9.13053
0.289493
0.0220566
0.0215331
0.0304738
0.0218238
0.0404356
0.0256499
2.86055
6.00858
0.0884144
0.28982
0.300179
0.02188
0.218967
0.02188
5.61003
1.9994
6.78207
7.86249
0.022894
0.0291871
5.41821
5.07637
7.63591
0.0449841
0.127126
5.90274
0.0220475
0.275525
1.62799
0.133764
0.0220416
0.0219631
0.0418406
5.59961
3.1388
0.0977228
0.0219723
0.0246934
0.0288753
52.748
0.0222739
0.646077
0.0218911
0.0226829
0.191176
0.021864
0.0220219
0.0232503
0.0270187
0.0219767
0.0226624
0.0216092
4.12264
0.309503
6.07428
0.0216291
0.0498182
0.0220134
0.251756
0.250409
0.0370478
0.0218951
0.0227993
0.635889
0.132325
0.0291424
8.67182
0.130132
0.0219413
0.0220238
4.72731
6.16192
0.062323
0.0216141
0.771668
0.0221254
0.036314
0.021662
1.07529
5.31473
0.0218609
0.0219898
3.0895
0.0219214
6.40419
7.72178
0.0630341
0.0222496
0.0221658
0.0216578
0.0220354
22.2373
9.19121
0.136653
0.0228473
5.54975
0.0219405
0.0219332
7.91847
0.0217431
5.73916
0.0215131
0.0288048
0.0232594
0.0219379
0.0218256
0.0221202
5.03341
0.0224691
0.0221941
0.158222
0.042303
0.0219734
0.0581348
0.0368596
0.0221258
0.290565
0.0219777
0.0370357
6.04866
0.104835
0.0219616
0.288362
0.101346
0.0858016
0.0265731
0.0682565
8.76232
0.0244511
0.0597858
0.0219568
0.0215847
0.0220083
0.0460135
0.0366105
0.0487652
0.0218477
0.0275372
0.0689728
6.04442
0.277557
0.0219279
0.0217749
0.022813
0.102677
0.0218089
7.86111
0.0219633
0.0219346
0.0217737
0.437465
5.0357
0.0221549
0.0235795
0.0218845
0.0998853
0.0218074
0.0219628
2.11186
0.0222705
0.0215882
0.0221302
0.136749
0.0217935
0.0218674
5.17782
10.2023
0.625078
0.0435559
5.06193
0.0501256
0.0219585
0.0219065
21.9391
0.0219644
0.0705326
0.0904889
0.0420244
0.0266668
0.0222742
0.0306163
0.0228199
0.0216209
0.19781
5.863
0.0434093
0.0217855
6.37441
0.0475901
6.72527
7.87983
0.114699
0.0221398
0.0219181
0.0218232
0.0637015
0.0221258
0.0218237
5.66651
0.161532
0.0443235
0.0219076
0.0667102
0.287315
0.0220949
0.0263753
0.036199
0.144393
0.0756038
0.0219941
0.0233804
0.0381341
0.02182
0.0491943
0.0222744
10.5726
0.0592439
0.121485
0.0217728
0.0371811
5.10355
4.8179
0.874105
0.0628943
8.80132
0.0221293
0.0219599
0.0226694
0.0876384
0.0221696
0.0234015
0.0307562
0.0635384
0.0220025
0.0219561
0.0219916
0.022277
0.298232
5.06901
1.88251
0.0219994
8.04502
0.0296261
0.0221552
0.0327225
0.0218669
0.0861658
0.0229784
0.0219717
4.84436
31.8385
4.94884
0.0223084
21.873
0.0219701
5.51638
4.96064
0.0215406
0.0646032
0.281732
0.0216205
0.0219634
14.5645
0.0222152
0.02202
0.179515
1.3682
0.0220295
0.0314812
0.0221508
0.0251892
0.131866
0.022167
5.03556
0.0454823
0.0219615
1.11237
0.0599147
0.0830854
0.0222883
0.294755
0.0220248
5.65002
0.0219727
0.0217619
15.6175
0.0216995
5.01666
0.0219669
0.0547637
7.82382
5.96023
0.0219648
0.0223075
0.0220284
0.0231944
0.0269238
0.0266602
0.0214889
9.24751
0.0218836
0.021953
0.137206
0.208584
0.0435252
0.022029
13.3417
0.0853654
0.0223682
0.0351848
0.0219191
0.0217523
8.36549
0.0216293
0.021766
0.0218077
5.14901
0.0217956
0.0218252
5.45754
0.0252297
6.1328
0.0330562
0.0215152
0.021881
4.63559
0.0258009
0.0220091
7.56433
5.6866
0.0217911
5.35251
0.118079
0.0219021
0.0220115
0.323468
0.0222214
0.725344
0.0333894
0.0220338
1.63374
11.7233
0.245674
0.0218742
7.748
0.0299523
0.401825
2.98383
0.0219037
10.4125
0.0220122
0.0318204
0.0258509
5.94119
0.0216871
0.0223143
1.36166
0.0222735
0.0355464
0.021694
0.022065
6.16831
0.0866845
0.0251834
0.0358745
2.12739
0.0222907
0.0233356
0.0559797
0.133712
0.0253869
0.0219589
0.0219274
0.0221461
0.0225768
0.0218486
0.0338426
0.0275674
1.1316
0.0220091
6.82632
0.0219577
0.0285113
0.0219855
0.0361595
0.0220602
0.0219407
5.92363
4.82146
0.0240732
0.0220954
15.1908
0.0276225
15.498
0.036628
0.0708974
5.7685
9.79951
5.26479
0.0229303
0.0219655
0.0218025
4.93636
0.0218146
0.0220232
0.153433
0.0218305
0.0221863
0.0220643
10.2675
2.48963
0.0221816
5.09296
5.93997
0.0239594
0.0219418
0.0221585
5.57501
0.0216713
0.106674
0.0222883
0.0219851
0.0220368
0.0217531
0.0800882
0.0219526
0.0218769
0.021773
0.021622
0.300807
0.0216087
0.0218
0.0220743
0.0219563
0.296817
0.869317
0.0589107
0.0225683
0.0219996
0.0221938
0.0222253
5.27441
0.0219377
0.0315577
0.0675782
5.38147
0.0219586
0.0219222
5.39216
0.0221257
0.103005
0.0802385
0.0224235
4.92581
5.63138
0.0309652
7.64443
0.0282567
0.132642
0.0214863
9.52703
0.0220503
6.93576
0.0220511
0.0218309
5.02398
2.22055
0.436585
0.150146
0.0219118
6.74728
0.022177
5.69117
0.0557854
0.0219351
0.021488
0.0218729
0.0517179
0.0612322
5.39866
0.0418525
0.0218875
0.0219426
0.0218952
9.99558
0.189124
0.0333357
0.0221453
0.021912
0.0302868
1.08285
0.0218979
0.0326681
0.0684351
0.0219379
0.0238319
0.0231271
0.0594089
0.155227
0.0244182
0.0782975
0.0215875
0.0220185
8.38206
0.0404182
0.0854504
4.52466
0.0216119
9.11186
14.9377
0.0506482
5.97256
0.0219451
5.03667
5.81511
0.115089
0.0217997
10.1124
0.140142
0.0219978
0.0393265
6.74417
0.0226308
0.0219789
0.0395336
0.0222713
10.3548
0.0306344
0.0220203
0.0222822
0.021881
0.0681233
0.0328597
8.34546
0.105224
5.81798
0.0749129
0.0222613
0.0219472
0.608805
12.2054
0.0219761
0.0218811
0.143592
0.0220661
0.31153
4.93889
9.84413
0.0219586
0.0219676
5.86204
0.0217546
5.91408
0.535629
0.0217102
5.73451
0.0595636
0.0820021
0.0219802
16.7194
0.0220354
3.78617
0.0215075
0.0493573
0.022769
0.0216871
8.44457
0.0226535
0.0219622
0.023403
5.89697
0.0220814
0.021602
4.79717
0.0219035
0.0216517
0.0221228
0.0249118
0.0220602
0.022186
0.0279081
0.0221802
0.026379
0.0215573
0.272117
7.7831
0.132682
5.87363
0.0280201
0.0263466
0.0218818
0.0218324
0.0221108
8.00373
5.38329
0.0218919
0.0222778
0.0219231
22.7614
0.0215956
0.284895
0.940549
5.60453
4.99286
8.80349
5.59638
0.0216283
4.54071
6.20317
4.84035
0.0261855
0.0221393
0.0434746
0.0216431
2.98448
0.126192
0.0603302
0.0269643
8.88649
0.0219973
0.0214845
5.0883
0.136454
0.0219649
0.0215262
0.0454642
0.0221223
15.8038
8.88711
5.99933
5.19176
0.0839379
1.52155
0.0218119
0.266423
0.0221112
0.0219645
0.0216435
6.16892
0.0221416
0.0218158
1.80952
5.33998
0.223993
0.142276
0.0229304
0.0391401
10.859
9.87562
5.12913
5.72644
0.12016
5.00913
0.223559
1.25968
0.0528439
0.0415328
0.0218842
0.036226
0.0321651
0.0220528
5.17246
0.0218065
0.0219621
0.0220056
5.79296
0.0255887
0.0218139
0.0218255
0.021974
0.130271
0.0885069
2.37517
0.0226516
7.02071
0.021518
0.0219253
0.083629
0.0696189
0.0215032
5.59605
0.0421351
5.20576
0.0219909
10.52
0.0619354
0.0219328
0.0220609
0.02196
5.58454
5.3184
8.97708
0.0219857
0.0222095
0.0215771
5.26398
0.0282486
0.022066
1.22123
0.0219403
0.022604
5.4269
0.0215958
0.0219607
0.0220715
0.0221144
0.0214792
0.0223743
0.021518
0.0222164
0.083579
0.0398859
0.0218372
7.99745
0.0237919
5.6938
9.50402
0.0506771
5.99457
5.23829
0.0218009
0.0423061
0.0220297
0.021831
3.84746
0.0262099
6.47329
0.0273227
0.134543
0.0220529
0.0232327
0.0219169
5.51994
0.0433904
5.66806
0.0220288
0.112113
0.0291347
0.0218028
0.0376486
0.041116
0.0215476
8.26012
0.0221018
0.0415447
0.0220103
0.0305236
0.0491604
0.214961
0.0266089
0.0828047
5.97749
0.0303224
0.0399876
0.0215931
6.1237
0.0587075
0.0222717
0.0719306
3.5556
19.9068
0.0219773
0.0228829
0.0221729
0.0215828
0.0219214
5.27332
0.0284882
0.0220828
10.4526
0.0221148
0.0215896
0.0257811
5.79211
0.0221724
11.7021
4.37893
0.102003
8.56685
0.0225884
5.2955
1.45548
0.0216159
0.0290524
0.0220118
0.0222935
0.039083
7.51796
0.0642351
0.895642
0.382633
0.0218847
6.49083
0.0219102
5.28272
0.0222681
29.8137
4.90714
0.02216
0.021753
0.0222789
0.0329584
0.084249
0.0219717
18.5964
0.0229121
0.0420322
0.073857
0.0230954
0.0219218
4.35997
0.0217573
0.220445
0.0293718
19.8993
0.022128
0.0218795
5.16499
0.0214624
0.0217559
0.0225513
0.0595025
0.0524255
0.259721
0.024266
0.0217567
0.0251633
0.0222542
0.0224827
5.0054
0.0219408
0.0483952
5.90141
0.20217
0.0219574
0.0860223
0.0218557
0.0222087
0.43124
0.239768
0.0864835
0.0222395
0.0219577
0.0246784
0.0898494
0.0218767
0.029622
0.0218833
0.0222354
0.0218446
0.0219992
5.55846
0.0215565
10.6491
5.5268
0.0251338
0.0216786
5.15811
6.46231
0.0217903
0.021979
13.6984
0.0222791
0.0646272
0.223067
1.41928
0.0219206
0.0227638
0.0491936
0.0219862
5.83789
0.184824
0.0218008
0.0312169
0.0382549
0.0220889
0.297563
0.0221534
0.0504932
0.0229015
0.0248793
0.021531
0.021882
0.261734
0.021944
5.87227
0.0725046
0.0219914
0.0219831
0.0219851
0.0218664
5.06657
0.0222718
0.170398
0.0219083
0.0218494
0.0558109
5.91462
0.0217674
0.0215551
0.0219182
0.0225695
0.0301686
0.0303456
6.48689
0.0282167
0.021842
0.145566
5.01356
0.0222327
0.0315017
5.46559
0.0360529
0.0224191
4.90469
0.0214789
8.7869
0.043698
0.0220662
0.0862178
0.0218573
0.0219279
0.0219003
5.27305
0.0220124
1.07465
5.01395
1.74818
0.0289726
0.0219662
4.81307
0.0222781
24.5267
0.0217178
0.293541
0.0257702
0.0927487
0.0226299
7.171
0.0293053
0.0222246
6.18432
7.21434
0.0215581
1.12758
0.0219894
0.031099
0.0217341
28.6164
0.992571
0.0222679
0.0219989
5.75686
0.289763
0.0218567
0.0234133
0.0220316
0.0218081
0.0217081
0.0239827
5.29212
15.966
0.0224328
0.211563
0.0234091
0.0714409
0.0220028
28.0869
5.63286
8.08272
0.0227072
5.22926
7.36341
0.0248815
0.030541
0.0218742
0.0524627
6.88051
0.0221501
0.0217085
0.0217614
0.0274574
0.0215837
0.0219883
1.05808
0.0230458
0.20421
0.0220136
0.0219738
0.0224404
0.0220434
0.17373
13.1822
0.0217898
0.0448943
0.0215408
5.43332
0.0218067
0.0242013
6.71149
2.54541
0.0261018
10.8686
0.412509
0.0220669
0.0604704
0.0220859
0.0334011
0.0222351
0.0219281
0.153087
0.113288
5.2823
0.123367
0.0349252
5.3275
0.0230499
0.0421271
0.0226896
5.12021
5.56667
8.43774
0.0219557
0.0215163
8.03847
5.26761
0.0221297
5.05776
0.0221384
0.0268861
0.021493
0.021868
0.0218034
0.0218258
0.245956
0.040812
0.0385368
0.0219759
0.0220203
0.0216411
0.0218254
0.0218155
0.022263
0.0219362
5.27516
5.54378
4.94776
0.0236523
7.64792
0.0568375
5.65126
7.77761
0.0568081
0.022113
0.0222225
0.200204
0.0223719
3.33351
10.3166
0.0225774
0.0216973
0.0308267
5.42827
0.0219986
6.92413
0.0218306
0.0221
5.99713
0.0219314
0.0286917
0.0221652
5.37821
0.0215741
0.0219419
0.22194
0.0216164
0.0220565
0.0218728
0.0216974
0.0680022
0.0218954
20.8666
0.0220226
0.0222172
0.0214703
7.7697
0.0341854
0.0221749
5.15842
0.022086
0.0215513
0.230189
4.84358
0.0220842
5.96172
5.92279
0.0263752
5.54291
0.0221113
0.0219512
0.101284
0.021665
5.72098
5.64856
0.0214884
0.0258473
0.0218677
7.3747
2.87361
0.0455109
0.0221436
1.2644
0.0363945
0.0528084
0.0268351
0.0220287
0.0224984
0.0218933
0.0218069
5.8585
0.0214499
0.021809
0.0425087
7.20274
0.0830333
6.72085
0.0220146
0.0421218
0.0218803
0.0219702
0.022084
0.0217564
0.0221523
0.0219176
0.0221001
0.0221726
0.0241981
0.0219636
0.0221267
0.0216801
7.99867
6.30741
0.02217
0.0227138
5.79944
0.0222103
0.136014
5.81102
0.33991
5.89473
0.805072
5.95798
9.14858
7.99067
0.021757
0.0302743
0.0218643
0.0497948
0.0246159
0.0222239
0.0217815
9.66167
0.0216259
0.0298464
12.6619
0.021582
0.0217228
0.0751331
0.0216981
0.0218763
0.02188
0.0221373
5.33502
7.6403
0.0220362
0.0219422
0.0220566
0.022842
0.0432954
0.0228686
13.1504
0.219381
0.0221942
4.98219
0.0322907
0.0219409
7.57339
0.0215884
0.0541077
0.0217712
0.0223778
0.0223753
4.86151
0.0219298
0.0219633
0.0238577
0.0222955
0.0305408
0.0218143
5.65542
0.0399587
0.0442558
9.11413
5.97274
0.120204
0.0332581
4.66973
0.0219703
0.0220039
0.0252311
5.27477
0.0560657
0.0489596
10.3755
0.0219765
3.27623
0.238908
3.04107
0.0219999
0.0360357
0.0218701
0.122606
0.0334414
1.09953
6.17526
0.022015
0.0356108
0.0276793
0.0219057
1.02139
0.0219679
0.030187
0.155634
0.0864012
0.0219501
0.0222949
0.0222287
0.0559048
0.0219506
0.0221454
0.0219643
0.0220777
0.0216548
0.03802
0.0215449
0.751881
5.27767
0.0225049
0.0217464
0.021551
0.0424984
0.0346434
0.0221251
6.80555
0.050056
0.0217631
0.021817
5.45014
5.28389
0.0219384
0.210284
0.0349543
0.0220102
5.75816
0.0225769
0.0722207
0.0222341
13.5539
5.96037
0.0222563
0.0357351
5.77538
0.0347288
7.59825
0.0222395
0.0254267
5.22227
6.68299
0.0252635
0.025373
0.0225388
0.0243979
0.0227777
7.14455
5.27459
5.02632
0.0232754
0.0219649
0.0608626
0.02188
0.242857
0.0248018
10.4961
0.0215686
0.0221893
0.0217466
0.0218841
0.0218443
0.0845976
7.41369
0.0300018
0.0216166
0.0221031
9.51043
0.0235393
0.0237993
0.0221555
0.0361911
7.42608
0.021701
0.0218488
0.0409511
0.0849028
0.0221141
0.0424363
0.0223037
0.0236884
0.137814
0.0287049
6.68407
0.89884
0.0481761
11.2678
0.0218565
0.0218768
0.0230693
5.76249
0.0232269
0.707282
0.0216919
5.57385
0.0362482
0.0218595
0.0300613
0.0222681
5.82297
0.0561415
0.0304656
0.259439
0.121133
0.0221508
0.0222007
0.0222285
0.0248292
5.56469
0.0557433
0.0221026
0.201862
0.02183
5.7408
0.0219492
5.32637
0.0293407
5.94162
1.802
0.0581944
0.0219656
0.0220061
0.0218685
6.02734
0.0219519
0.0545674
7.12513
0.0215329
9.51684
0.0328913
0.0219569
0.0874236
0.0219151
0.0218127
5.41408
6.77764
7.16183
0.0218889
0.0217581
0.0227395
0.0242725
0.0229271
0.0219301
10.3579
0.0866549
0.656463
0.0224996
0.0423418
2.2705
1.33403
0.0302279
0.0217503
5.65825
0.0229111
5.39739
0.0218766
0.0220271
0.0219831
0.0217141
0.0215306
0.0221791
0.0217839
0.0369596
7.14225
0.0356361
5.29691
0.025043
0.0222088
0.0221234
0.421665
0.0220234
0.0224739
0.0220436
4.71426
4.85067
0.0217793
0.0234232
0.0218588
0.0219759
0.0222785
0.0220621
0.0218952
0.893681
0.0222065
0.0217916
0.126674
0.0218176
5.15597
0.0885906
0.100698
0.200488
0.0239554
0.0220776
5.75072
0.0220531
0.0848875
0.0288485
0.0217779
0.0496657
0.0220647
5.74565
0.0216055
0.0217852
5.89446
0.0562036
9.36774
0.0217499
0.0944508
0.14935
0.0317447
5.17408
0.0218816
0.0217379
0.0216136
0.0911361
0.0227594
2.02295
0.0220065
0.0418988
6.79192
0.211705
0.0220156
0.899333
0.0253049
7.38632
0.0234975
0.0233374
0.0239372
5.34156
0.021967
0.0223237
5.26628
0.0215568
0.0261622
0.0218129
0.0468141
5.88991
7.38822
0.0218464
0.097335
0.0220045
0.278164
0.022016
0.022416
0.0980129
21.6162
0.0393925
0.0219964
0.0253949
5.42556
0.0580906
0.0861274
5.33325
0.022023
10.6081
0.0229344
0.161449
0.0217754
0.0250951
6.21805
0.0254365
0.0219213
0.47214
7.48102
6.1865
0.0216975
5.53853
0.470507
0.0216082
0.145239
10.9004
0.0222783
0.0227543
4.37194
0.0214944
0.0223858
0.021829
0.0220589
0.114508
0.085325
0.0353323
5.66545
0.0222713
0.0579374
0.0297047
0.0221627
0.0232388
0.0345347
0.0219708
0.0222273
8.43706
5.29381
9.4715
0.0216719
0.0378073
0.0221359
5.34192
0.0220945
0.0416134
7.77457
5.51966
0.067448
0.0219453
0.353998
5.36092
1.54317
0.0220023
0.0221247
0.0218304
5.51568
0.03786
0.145605
6.11189
0.022043
0.0222114
5.49565
0.0286969
0.0869809
0.022174
0.0218755
0.0219767
1.27282
0.0220178
0.0564994
0.0217476
0.0221099
0.0217918
5.65945
5.18168
0.023757
0.525815
0.0229935
1.91266
0.0219146
0.0219012
0.0905662
0.0220521
0.0219261
0.0253817
0.103392
0.029175
0.127153
0.0220013
0.0697814
5.10311
0.0220789
0.0220098
0.0220105
5.02584
0.0453188
0.046972
0.0914651
0.0217658
0.0218378
0.140301
0.0257506
7.30139
9.44346
0.0358755
5.19657
9.59703
5.84202
0.0571857
0.0222651
0.0219998
0.281728
5.27581
0.0218724
0.0380586
5.77616
0.0221069
0.226036
1.47379
0.140189
0.0219221
0.0989892
0.0221246
0.0221058
0.021616
0.873523
0.0221015
0.0570152
0.0378992
0.0219842
0.022184
5.03245
0.021773
0.0215922
0.048458
4.41796
0.0378759
0.0220228
0.0398793
6.93757
5.45546
0.028282
6.34156
0.0910049
0.11885
0.058604
0.0220765
0.154241
0.0329028
0.0216491
0.0217143
0.0223196
0.0258293
0.302534
5.34805
0.0222183
1.61803
0.0749326
2.42202
12.4858
0.289907
5.30217
0.137227
5.28594
0.0496988
5.30366
0.0625176
0.0219777
0.0220937
5.96002
4.78875
0.123071
5.38013
0.0218043
6.38534
5.41617
0.0220351
0.0216437
0.0375458
0.0637007
5.97945
10.1044
0.110356
0.0218727
0.0218117
0.0222179
8.99806
0.0254386
4.02927
0.0244811
24.9045
0.186674
5.74839
0.027684
5.70578
0.0217969
0.0215901
0.0258073
0.0221636
6.41361
0.128263
5.35623
0.0220592
6.6518
5.1061
0.0215464
0.0422672
5.44124
0.0434053
0.0218706
0.0260968
0.0219771
5.10926
0.0214562
0.0223105
6.24226
0.0293177
0.0489948
0.0277063
0.0218134
0.0221783
0.0417106
0.0220298
0.0216429
0.0218344
0.0301914
5.57583
3.46186
0.0219775
0.131363
6.3018
0.0221156
7.51839
6.63111
0.02209
10.687
0.0220735
0.0972362
4.85536
0.0219696
0.0221663
0.0221709
0.0949324
0.0261133
0.0218593
6.0275
0.0219439
7.31566
0.02204
6.97637
5.03786
0.0249677
0.0217315
0.1568
0.0794965
0.15576
5.35496
0.0441423
0.0221733
5.29897
0.0224521
0.0870101
0.0744307
0.0299503
0.0621841
0.0218713
0.12758
5.46016
5.85466
0.115145
0.0218771
0.203208
5.30848
0.0222719
0.206762
0.113605
1.43329
0.021947
0.0249712
0.0215
0.210078
6.04657
0.0957475
6.09558
0.0849254
0.0387743
5.49146
4.92543
5.83191
0.591586
9.38728
0.0712941
12.429
0.0543441
5.19523
6.17817
0.0232845
0.0223054
0.0270324
0.0600554
0.0219981
0.0261638
0.0222617
0.0241921
0.0220068
0.0218603
7.06113
5.28017
0.0222037
0.0511489
0.0221063
0.0217925
0.0235076
0.0792761
0.0233948
0.0901507
0.0221495
0.0435063
0.481024
0.100839
0.046038
0.0219762
0.0992883
0.0222204
0.0219269
0.62297
0.0227967
5.59714
0.171248
0.0219361
0.0242331
4.14466
0.022074
0.0951269
0.0570889
0.0599597
0.0265295
0.0370602
0.0220115
0.022168
5.38934
9.1037
0.0359578
0.0792481
0.0220382
5.76636
0.0255337
6.11635
0.0786064
0.0221089
0.021676
6.145
0.162748
6.09046
0.0280608
5.98107
0.0226044
5.47463
9.38566
0.030854
0.148846
0.0218549
7.31714
0.0221906
11.1927
0.0287164
5.34061
5.00047
5.15656
5.5944
0.0361133
7.99782
0.17767
0.0488653
5.0559
4.89546
5.43368
0.0217101
0.0258166
0.0745874
8.55141
0.0218663
0.0217755
0.0297571
0.0612204
11.1307
0.0586369
0.0450293
0.0219341
0.11877
0.0215416
0.184626
5.22813
0.772497
0.0217783
6.81044
0.0676575
0.0225066
5.82913
0.484699
0.0265268
5.47434
5.18351
4.64149
0.0558174
0.0218381
0.0289416
6.23694
0.0377282
0.021983
7.39607
0.0214938
6.32104
0.0232187
0.0221314
5.84295
5.19115
0.0218177
0.052061
0.0219559
8.14853
0.0215061
5.30806
0.157681
0.0424588
0.0219069
0.0220063
0.0221605
0.0385433
0.0549918
0.117947
0.0291042
6.0632
0.0338059
0.0253506
6.08212
3.29682
0.0216419
0.160519
0.0219298
5.32258
0.0220644
0.0431204
5.30498
0.0275752
0.0219313
5.47598
0.0222444
0.0222551
0.0463248
0.0222782
0.0218948
5.90307
0.0681612
5.89788
0.0222788
0.116213
0.0920584
0.0216416
0.021931
0.0235972
0.0218371
5.13901
0.483545
2.98034
5.66422
4.32044
5.24669
0.0219196
0.0220102
0.0219474
0.0221107
0.110149
7.38296
0.0305026
0.0248039
5.6472
0.0222174
0.0217711
1.95008
0.129533
0.0214695
0.0219655
0.0218744
0.215642
0.0217545
0.021919
0.147266
0.0341771
0.120565
0.0238404
5.84097
5.64044
0.0214637
0.0217147
5.2171
0.0340327
0.0251203
5.50526
0.0360852
0.118543
1.13377
0.0233837
0.636256
5.0678
0.0215366
0.0257746
5.80071
0.0251661
0.0220134
3.19676
0.0554454
0.0572841
0.0221517
0.362468
0.0236921
5.35837
0.0220328
0.0219792
0.0334087
0.0623886
7.07368
0.0360156
0.0219386
25.497
5.65389
0.0239613
0.0735787
0.0220325
0.0218976
0.0217439
5.36762
0.0218431
7.00951
0.226851
5.7538
6.03498
0.0353874
4.74083
0.0331038
7.02506
2.50824
0.110101
0.836785
0.0740724
0.094182
5.42129
0.0521494
0.0220044
0.0220594
16.5089
0.0401277
0.0229954
0.0221135
6.03305
9.45743
0.022094
4.25036
9.46587
0.0705651
0.74441
0.0405577
0.0404389
0.0429743
0.0999101
5.27258
0.0275517
0.206164
0.229437
0.0217555
0.126547
0.0279944
5.74445
0.0673718
0.0219661
0.227429
0.0643008
0.0743553
0.568435
0.0225059
5.10615
0.198064
10.4512
6.03852
0.0221837
0.0220134
0.0218781
7.18305
5.15351
0.0837538
0.173481
0.0218423
0.0217258
0.0225606
0.0864927
4.56642
0.0527388
6.81237
0.0742541
0.388743
1.16667
0.0217593
0.0556995
8.94977
7.17402
5.82431
7.21862
5.72104
0.0221846
5.29253
5.99076
5.08611
4.4586
0.02194
5.98765
0.0225515
5.23122
0.0273911
12.5193
11.8778
5.11718
0.0221565
0.0219782
0.0739614
0.0237538
0.121193
0.0222727
0.0490002
0.0486803
0.0217977
0.0220025
0.0345205
0.0219311
8.68796
0.0218861
0.0230181
6.04159
0.0715015
6.25664
0.119518
8.05458
0.0219116
0.0219808
0.0222344
5.40004
7.71474
0.0220244
0.0506031
6.65227
9.43842
0.0218887
5.88766
5.23285
0.0217859
5.56559
0.0219093
0.0414059
0.0220112
0.0593338
0.0220704
0.128075
5.77731
0.0218466
0.0221592
6.61621
0.0356631
0.0216925
0.0220772
9.68323
0.0218736
0.0221525
5.23085
9.51132
6.13733
0.0927386
0.0219259
5.2383
6.07578
0.992503
0.0221663
0.098053
0.0702525
0.0219372
0.244268
0.0217886
0.0218062
0.0218178
0.0576722
6.45046
5.83631
0.042646
0.167088
0.0218573
5.93787
0.0218079
0.0280284
0.0467671
0.023359
0.0526939
0.0362459
0.0218441
0.111033
6.42
0.0571187
19.1616
8.01241
0.0617907
0.0219491
0.0249605
0.251992
0.0295411
0.0221945
0.116028
8.27754
0.0217024
6.31647
0.0287749
0.0219405
0.760153
6.19417
5.02861
0.0219766
0.0268049
0.024874
0.0553087
0.0494258
0.0218536
0.0219474
0.11296
1.03598
4.99058
0.0274545
0.0222762
0.0217359
0.185055
0.022025
4.97335
0.0222731
0.040958
7.82085
0.196861
6.10067
0.0220503
6.32512
4.69952
6.81582
0.0220027
0.0221723
0.0542705
7.0882
0.0218253
6.33651
0.0218697
0.0214944
6.52351
0.022184
0.0563641
0.0279182
0.0228471
0.0318126
0.0293527
0.0671047
0.0466236
0.0401876
24.6302
0.173231
5.53019
0.0471377
0.0345425
0.0564482
5.23953
0.190546
0.0276915
0.0220789
6.02133
0.0226533
1.96691
0.197768
0.697009
0.0216878
7.68872
0.0220551
2.1094
0.0225304
0.872067
5.64608
0.0497072
11.4904
5.65221
8.87991
5.4043
5.76812
0.0641701
0.0219453
0.021792
0.869058
0.0217987
0.0219202
0.0219615
0.040585
0.0233641
0.0345057
9.86819
7.78212
0.128504
0.0276716
0.0273996
0.0215727
0.0254384
0.222539
0.218146
4.71441