/*--------------------------------*- C++ -*----------------------------------*\
| =========                 |                                                 |
| \\      /  F ield         | OpenFOAM: The Open Source CFD Toolbox           |
|  \\    /   O peration     | Version:  v2012                                 |
|   \\  /    A nd           | Website:  www.openfoam.com                      |
|    \\/     M anipulation  |                                                 |
\*---------------------------------------------------------------------------*/
FoamFile
{
    version     2.0;
    format      ascii;
    class       volScalarField;
    location    "700";
    object      omega_0;
}
// * * * * * * * * * * * * * * * * * * * * * * * * * * * * * * * * * * * * * //

dimensions      [0 0 -1 0 0 0 0];


internalField   nonuniform List<scalar> 
18758
(
0.0256466
0.340596
0.0216024
0.0256115
0.0254373
0.0204768
0.0212861
0.0227454
0.0249434
0.0245512
0.335216
0.458684
0.210133
0.0225171
0.0212655
0.0211417
0.469297
0.0195464
0.0212566
0.0238005
0.45814
0.297515
0.0205891
0.0205013
0.323264
0.321437
1.05279
0.094122
0.0691207
0.384837
0.325243
1.04962
0.022627
0.48613
0.025904
0.387123
0.299382
0.0255665
0.408067
0.0198851
0.333861
0.0250909
0.354569
0.021439
0.0214165
0.247787
0.0245623
0.0676203
3.09641
0.0249566
0.352277
2.8342
0.0247887
0.0233605
0.151573
0.101002
0.0205582
0.0235836
0.0601031
0.0205229
0.0216275
0.0213937
1.41926
1.7303
0.0216497
2.43276
0.0214858
0.0198552
0.0931609
0.0195644
2.70848
0.366136
0.0212089
0.0265865
0.0611916
0.364474
1.02545
0.487834
0.0249837
0.354316
0.0849548
0.333251
0.481889
0.0417712
0.0220947
0.124379
0.0244913
0.0273222
1.42235
0.123119
2.22424
0.0223421
0.0625678
3.18643
0.0211986
0.0207434
0.0196816
0.0466855
0.49889
0.0210942
0.259165
0.0285302
0.0198483
0.0207399
2.37712
0.469936
0.0689223
2.29466
1.13555
0.491185
0.0211671
1.69943
0.0257496
0.0213679
0.0285287
2.51899
0.0451994
0.0203726
2.52062
0.0226653
0.021279
1.07345
0.0221895
0.0204947
2.31727
0.0234436
0.0211126
0.020496
0.129487
2.23908
0.062172
0.0223097
0.0267391
3.58415
0.0199173
0.0213824
0.943543
0.0220402
0.153288
0.0818601
0.0271762
0.377801
0.0390879
1.12282
2.28153
0.04567
2.90061
0.111962
0.325425
2.26481
2.21241
2.66487
0.021573
0.02609
0.337857
1.71321
0.0618796
0.135149
0.0442693
0.352804
2.76554
0.0206041
3.62475
2.94872
0.186666
0.020618
0.0205947
2.58894
2.22031
0.427083
3.11481
0.0217297
0.0769315
0.284079
1.20379
0.0210681
0.0211981
0.269821
0.417448
0.021977
0.019783
0.0235061
0.144833
0.0224066
2.09197
0.0213548
0.38839
0.0313244
3.26271
0.154527
2.75982
0.0213457
0.0556892
0.135155
0.0196824
0.0223244
0.257559
0.0215624
3.28887
0.0206731
0.0217544
0.154413
0.101131
0.0211393
0.02117
3.57369
0.020979
0.0264922
2.20333
2.37705
0.0211335
0.0630279
0.0220608
0.0220372
0.0230141
0.0196981
0.0214083
0.0619071
0.0201541
0.340912
0.123506
0.0208623
0.0381464
0.157664
0.103175
0.331318
0.0636346
0.124086
2.74203
0.0209549
0.31959
0.0452151
1.19376
0.0216061
0.0209858
0.0209344
0.066082
2.92986
1.01961
0.0218971
0.0211801
0.0617366
0.117328
0.0213523
2.16094
0.395842
0.0209968
0.0206316
0.0211372
0.0210954
3.13996
0.0212687
0.295578
0.0210139
0.0210175
2.48992
0.0205799
0.473765
0.0212626
0.360813
0.0260993
0.0205178
0.021008
0.0535497
1.9838
1.97033
0.0205279
0.134922
0.021588
0.0213928
2.43466
2.86443
0.0213614
0.0208797
0.0216538
0.0228513
0.0253791
0.0200345
0.0222068
0.0225115
0.0206313
0.0223368
0.0212158
3.32862
0.0212768
0.020864
0.0195323
0.110669
0.020723
0.0207281
0.0215332
0.0220359
0.0205259
0.0208348
0.0212086
0.0219082
0.327166
0.0228511
0.0206857
2.20796
0.0236291
0.0208751
0.020895
1.139
0.297271
0.0197777
0.0318641
0.483214
0.0215455
0.0786021
0.0212191
1.96618
0.174043
0.0719762
0.0678447
0.530662
0.0198255
1.39766
0.185561
0.0214893
0.0683943
0.0422988
2.24615
0.0209685
0.0198323
2.31034
0.299841
0.0207403
2.45133
0.0545839
0.0303392
3.50543
0.020963
0.0206482
0.0212475
0.0213494
0.0218933
0.0223845
0.0227896
0.0210304
0.0218478
0.0218897
1.66127
1.01238
0.0218764
1.3603
0.499168
0.0207272
0.0301541
0.311778
0.315594
0.387112
0.359443
0.021355
2.68428
0.200319
0.0325797
0.0218843
0.0289751
0.0221112
0.0213037
0.3954
0.384918
0.400716
0.0735065
0.296169
0.0209961
0.024857
0.023789
0.0465886
3.02308
2.51166
1.21952
0.111324
0.333264
0.674759
0.0210963
1.6271
0.117992
0.321341
0.401743
0.0210435
0.0204649
0.297961
0.389057
0.428994
2.34904
2.40057
0.0219315
0.449877
0.448235
0.0211518
0.0224455
0.0228341
0.0223231
0.021278
0.0222239
0.0214129
0.0227779
0.0213465
0.0211682
0.0299238
0.218084
0.0267382
0.345388
0.333605
2.2157
0.192791
0.109978
0.0216168
0.0205573
0.351472
0.0224411
0.0219272
1.06183
0.0452873
0.524586
0.0206144
1.67648
0.0213644
0.0237053
0.0197387
3.44545
1.98239
0.377723
0.0211953
3.45806
0.0617073
0.0213815
0.0222472
0.0211726
1.18826
0.0212041
0.0208073
0.189319
0.0270019
0.0219538
0.0211874
0.0226655
0.0241857
1.61132
0.745078
0.0216423
2.03097
0.0197308
0.0225856
0.118976
0.0214013
0.287521
0.0216769
0.0244007
0.0215356
1.97328
0.0223628
0.0214072
2.77062
0.296063
0.0195366
0.0248518
0.0233507
0.0211418
0.0210182
0.0220872
1.67923
2.53888
0.0216467
0.0311426
0.453436
0.257674
0.409062
0.339776
0.405913
0.020298
0.102115
0.0574305
0.0292932
0.0225842
0.337512
0.252897
0.0264676
0.0206332
0.0212838
0.0207262
0.0213998
0.0207202
0.0214178
0.0713487
0.021808
0.0196929
0.0609787
0.0222047
0.0215605
0.0198902
0.0231165
0.238146
0.449752
0.021004
0.353992
0.0207657
0.0268223
0.132763
2.65627
0.115797
0.0212568
0.0213654
2.53649
3.56209
0.0778704
0.0205868
0.997788
3.27915
0.0195287
0.0206215
2.63951
0.0231099
0.0850743
0.0702277
0.0225779
0.0310747
0.0206377
0.0210234
0.0222489
0.0209003
0.0209245
0.021626
0.500378
0.0197886
0.531616
0.665744
0.0195343
0.0197882
0.0220061
0.0249732
0.0272449
0.864997
0.021102
0.147706
0.0281857
0.0293233
0.0207759
0.0210215
0.0212784
0.0216654
0.0216534
2.17815
2.12494
0.0206274
0.0209047
0.0219904
2.58304
0.0197489
0.0197178
0.021433
0.0197043
0.0208278
0.0207523
0.0224359
0.0211381
0.0628513
0.0210991
0.0199835
0.0779629
2.75819
0.0250262
0.0211488
0.0210908
0.021682
0.021186
0.0223266
0.506831
0.35977
0.022007
0.609029
0.0210785
0.0309413
0.0212036
0.0206957
0.0457815
0.019569
0.0209588
0.824829
0.0215331
0.0223736
0.0722846
0.0210583
0.0213122
3.41026
0.0203515
0.065848
0.194193
0.02092
0.0215645
0.039819
0.023071
0.0272222
0.0210519
0.177315
0.574681
0.392778
0.0206581
2.18875
0.0196775
0.0211438
0.0211119
0.0243631
0.163241
0.0902256
0.0212941
0.0223379
0.0225101
1.58693
0.922736
0.0210549
0.0332959
0.0237253
2.86581
0.0265007
0.0459141
0.0207561
0.0239957
0.0451775
0.0209284
0.0207595
0.0197548
0.0206921
0.025446
0.32559
0.292963
0.823249
0.0404878
0.0237448
0.0211157
0.0205846
0.510236
0.313147
0.0199215
0.0382544
2.5796
2.17883
0.0213421
0.0212253
0.0438631
0.409064
0.0196654
0.308018
0.021193
0.0225897
0.0278733
0.0214576
0.0216602
0.0217564
0.0206693
0.0219983
0.462701
0.0452332
0.435362
0.0219635
0.0208453
2.57097
0.0197375
2.43148
0.50434
0.0212067
0.999792
0.0225413
0.0212359
0.954494
0.300258
0.290881
1.95387
0.0229
1.04203
0.0197999
1.05248
2.21085
0.0309436
0.0211033
0.406737
0.0235743
0.0540267
1.1139
1.84786
0.0215394
0.517239
0.0207369
0.039433
0.0744687
0.0207622
0.0279052
1.03408
0.0734309
0.0257878
0.0225419
0.019694
0.0218823
0.0221652
0.0305509
0.0676496
0.0208912
2.55563
0.0235651
0.0213787
0.0251235
0.0197474
0.0384887
0.0212019
0.0206965
2.08965
0.0206104
0.0223236
0.408029
0.0626064
0.0672273
0.0213846
0.0213535
0.0431216
0.0213321
0.403423
0.0234833
0.023286
0.0222153
0.0213596
0.0196786
2.65929
0.0197469
3.03177
0.17742
0.022028
2.53639
0.0205032
0.0276836
0.025444
0.44256
0.0233674
0.539173
0.353688
0.0212025
0.405948
0.0202938
1.08372
0.0213552
0.0217494
3.34446
0.407917
0.0211823
0.0215215
0.0227113
0.0205416
0.0213786
0.339137
2.27469
0.0208203
0.0205304
0.0203053
1.58239
0.0893056
0.100952
0.0206602
0.0508956
0.0217437
0.0213784
0.0270822
0.489729
0.0210581
0.0392302
1.02701
0.0210946
0.265975
0.021384
0.026623
0.0210582
0.020407
0.0249241
0.021414
0.0466575
0.0213872
3.60991
0.0215006
0.0236039
0.0659677
0.0857694
0.0384389
0.020689
0.021349
0.346848
0.107229
0.0500203
0.0208238
0.0210859
0.026634
4.72993
0.40779
0.0207645
0.0211677
0.0219996
0.0214957
0.0219173
0.0211664
0.021126
0.398083
0.0211941
0.0213189
0.349737
0.020647
0.470501
0.0697842
1.61467
2.36178
0.369848
2.25942
0.0211765
0.0210971
0.0229121
0.0207839
0.0210597
0.0205571
0.0207124
0.0218433
1.77162
0.131645
0.978467
0.0219727
0.0210589
0.0284802
0.0296021
0.0477605
0.021343
0.0220606
0.020377
2.67746
0.145106
0.822236
0.0215959
0.0747322
0.115097
0.266959
4.47059
0.731957
0.0222826
0.0221672
0.020045
0.396193
0.0215319
0.0198662
0.0595348
0.654995
0.0211588
0.280532
0.547895
0.0212291
0.0211261
0.0212439
0.0211793
0.0212729
0.0229915
0.027633
0.0212498
0.0215439
0.822031
2.62709
0.0212448
0.343047
0.256219
0.0219394
0.0213456
0.0208385
0.0202833
0.0225772
0.0219237
0.021089
0.0216635
0.0227897
0.0215338
3.28699
0.0255503
0.0209292
0.0211836
0.593783
0.0215513
0.0198565
0.455914
0.0210725
0.0302368
0.0249251
0.0213277
0.0207991
0.0205174
0.0240909
0.0366784
0.0210903
0.369457
0.0495246
0.0976365
0.759081
0.0219433
0.0522431
0.0197994
0.993429
0.0220546
0.0211072
0.151678
2.61582
0.0216421
1.1994
0.357408
0.0203888
0.0272888
0.0198571
0.0219109
0.0257759
0.0222275
0.0210976
0.138157
0.0210273
0.0208668
0.452391
0.0208402
0.0210568
0.0207978
3.02692
0.0212115
0.0212481
0.0274125
0.109997
0.350843
1.75853
0.501302
0.0210384
0.0197236
0.0213364
1.79936
0.0218192
0.0209114
0.0229627
0.020335
1.07122
0.0215633
0.0215051
0.138358
0.0211356
0.0623556
0.30481
0.0197203
0.0212419
1.19941
0.0227584
2.34581
0.613925
0.0205817
0.0214011
0.210298
0.0206809
0.0230104
0.452261
0.0200834
0.565602
0.0212304
0.0211508
0.0212634
0.0293009
0.022295
0.582116
0.0224353
0.0209801
0.596056
0.356633
0.0371632
0.0261364
0.122332
3.36376
0.112942
0.0196691
3.35076
0.0215327
2.68259
0.824627
0.0208023
0.0233535
0.0215822
0.406974
0.0207689
0.495128
0.0208416
0.145221
0.135909
0.0206181
0.0196827
0.0211861
1.19651
1.0764
0.0211964
0.491566
0.021516
0.0210569
0.576261
0.0212862
0.274898
0.0208093
0.0231479
0.0209529
0.0208116
0.0209896
0.020773
0.0632325
0.0274315
0.0312545
0.0292889
0.021747
0.0212287
0.41864
0.0212572
0.583972
0.0215338
0.478024
0.0250129
0.362155
0.0205518
0.0207198
0.0210324
2.89767
0.0210155
0.499587
0.0519705
0.0213904
0.0248828
0.0212533
0.0206243
0.0228818
0.0208472
0.4412
0.0212072
0.0223814
0.0211916
0.0225821
0.443658
0.525099
0.0213401
0.0208112
0.0213658
0.0216786
0.0211085
0.0225266
0.0217854
0.0211762
0.0203194
0.0204905
0.196325
0.0821523
0.0213105
0.020327
0.140448
0.0222526
1.87607
0.150824
0.0217758
3.66721
0.0222772
0.0205643
0.0210656
0.0231252
0.0303169
0.0204044
0.0297266
0.246991
0.0275004
0.131036
4.23535
2.1974
0.0283592
0.0215071
0.0214143
0.389622
0.0203112
0.0213524
0.0275088
0.182052
0.0210158
0.0206589
2.58511
0.0232538
0.021821
0.0222499
0.023188
0.0276889
0.0214078
0.0235019
0.0212052
0.0286782
0.0220998
0.0216739
0.0215933
0.456741
0.0217025
0.021239
0.398905
0.019682
0.0209413
0.021248
0.0221085
0.0215808
0.655557
0.107192
0.387824
0.398638
1.49391
0.310727
0.021629
1.75425
0.406758
0.0213275
0.0219739
0.0214961
0.0214162
0.0221725
0.0221548
0.0677874
0.0814519
0.0213326
0.0202586
0.0408429
0.0220805
0.319197
0.0209623
0.0218348
0.0210709
1.80175
0.590547
0.0274354
3.48207
0.0211057
0.021081
0.0625233
0.0254917
0.0210641
0.0796907
0.0217239
0.0231932
0.412979
0.0680752
0.0281861
0.02142
0.0216537
0.0217959
0.0206539
0.404774
0.0606868
2.80128
0.486749
2.19344
0.0216911
3.56038
2.21776
4.21767
0.114695
1.90006
0.0245508
0.361569
0.0999493
0.0302167
0.0195469
0.0211569
0.0213666
0.0390467
0.0208099
0.0211745
0.0943529
2.57472
1.70368
0.338968
0.0750303
0.427063
0.0263187
0.022862
0.021249
2.72046
0.279086
0.0205899
0.0277947
0.280518
2.74451
2.51114
0.0314804
0.0470711
0.0197341
2.26789
0.0216974
0.366392
0.549967
0.0284315
0.128213
0.105177
0.0213915
0.0212204
0.46658
0.523735
0.19713
0.0216732
0.0212756
0.0230523
0.274992
0.023877
0.321584
0.0217541
0.381477
0.341119
0.024828
0.974675
0.0615939
2.17545
0.0197329
0.031539
2.45729
0.0263736
0.021157
0.434667
0.455964
0.0211275
0.0212543
0.296843
0.022164
0.0221315
0.809794
0.564243
0.0214334
0.0270296
0.315118
0.0277492
0.0229663
0.0228514
0.352089
0.0247578
0.0207451
0.0209943
0.949463
0.0207674
2.30332
0.0204427
0.0206701
0.367369
0.0215206
0.0211094
0.129756
0.0196787
0.0231142
0.0204896
0.0210814
0.0214855
0.0829414
0.0213079
0.31524
0.153844
0.472402
3.97919
0.0238081
0.0205711
0.0207707
2.46869
0.0250727
0.0211744
0.30801
0.0302305
1.86607
0.0201332
0.0204305
0.0205818
0.0208242
0.0211809
0.019893
0.0220426
0.0221336
0.0212966
0.334462
0.0235589
0.335814
0.0220736
0.0204947
0.0232612
1.58487
2.23985
0.513596
3.25763
0.501165
0.0793224
2.20087
0.022241
0.033547
0.0385983
2.57266
0.0209802
0.989949
0.319101
0.177748
0.0211767
0.493274
0.0210538
0.0212422
0.0210429
0.028109
1.68952
2.8455
0.0215315
0.0195842
0.0204589
0.020147
0.0284227
0.0213388
2.20224
0.0527632
0.0316699
0.0217767
0.0211364
0.019855
2.43567
0.0873336
0.0210882
0.0209882
1.10268
0.020134
0.0213367
0.020316
0.0211549
0.0214701
0.0213387
0.0205061
0.537394
0.0228448
1.49782
0.023899
0.0216074
0.258723
0.0215778
0.378655
0.0216151
0.0458317
0.0624742
0.373362
0.0323551
0.0733604
2.21887
0.0223496
0.0320405
0.0222839
0.0211662
0.0205047
0.0209409
0.0728582
0.0337323
0.0235226
0.072314
0.0204834
0.0213702
0.0323124
0.477672
0.0196648
0.0381827
0.306891
0.116457
0.0967349
0.0218405
0.0214978
2.43468
0.0274857
0.0208543
0.02112
0.11905
0.0205522
0.0206499
2.1328
0.0495159
0.0221433
0.0220352
0.0215411
2.43116
0.0234024
2.20883
1.28372
0.0212248
0.0210173
1.00984
0.0306912
0.0264197
0.0222119
0.0314709
0.0232955
0.0208229
0.0234947
0.190411
0.0360305
2.29637
0.397186
0.0311581
0.4823
1.03017
0.0206675
0.511497
0.477274
0.022602
3.79459
0.0215173
0.192683
0.0702856
0.655361
0.0293762
0.0804179
0.0294565
0.295858
0.0210558
0.0198656
4.03081
0.0227131
0.0211353
0.0211805
0.0216541
0.0198467
0.0219169
0.0209917
0.0211662
3.73666
1.13521
0.0210927
0.0216207
0.963014
0.368603
0.0197074
0.226441
0.0576684
0.0396058
0.0213497
0.0209782
2.36012
0.0216979
0.0448436
0.0770843
0.020657
0.0253621
3.62164
0.0208522
0.325769
0.978832
2.30496
0.021866
0.0208674
0.0212934
0.0211868
0.0211941
0.329233
0.113526
0.0203133
0.540273
0.329951
0.0219495
0.0215127
0.0211966
0.475855
2.20976
0.0321274
0.0367119
0.0228391
3.53242
0.344572
0.0205185
0.0210751
0.0251813
0.0314694
1.7913
0.302863
0.0207034
0.969405
0.348377
0.0222961
0.0208663
0.0215287
0.0232361
0.0210229
0.0219709
0.0206381
0.072191
0.375747
0.0213301
0.0215101
0.0295527
0.0206682
0.021087
0.0216211
0.390683
0.0205984
0.0224506
2.7035
0.188293
0.0767756
0.0769626
0.0218542
0.0216527
0.0219131
0.0204256
0.021069
0.0218274
0.569877
0.0266187
0.022161
0.0276337
0.0203628
1.17173
0.0576156
0.0211948
2.1921
0.0207655
0.0224941
0.183776
2.14168
0.0232107
0.0232628
0.0232969
0.0496147
0.0197116
0.961352
0.774225
0.0206279
0.0684778
0.445463
0.0213232
0.0223319
0.392713
0.0604081
0.0215551
0.271301
0.0238205
0.0211773
0.286646
0.276049
0.525315
0.0207699
0.916162
0.0330663
0.0198278
0.0420537
0.0276315
0.0214801
0.0372286
0.299811
0.401728
0.0319133
0.0328602
0.0206124
0.509841
0.331964
0.210388
1.87411
0.0213228
1.05116
0.0213225
0.0210285
0.0397475
0.0219977
0.186441
0.370733
0.0215718
2.42717
0.175164
2.38722
0.0265826
0.0555579
0.0196688
0.0218341
0.0230436
0.0196441
1.22165
0.285456
3.60897
0.555427
0.0830797
0.435415
2.12842
0.0212012
0.0222505
0.510139
0.0512428
0.0213246
0.0211259
0.188236
0.0337265
0.0260549
0.0212384
0.0214761
0.0341114
0.0211299
0.0689501
0.348233
0.0198408
3.86635
0.020219
2.94257
0.275963
3.19638
0.0221263
0.436226
0.0214394
0.0210817
0.0221846
2.43264
0.0330663
0.664769
0.0214237
0.0211227
0.0844548
0.537561
0.0215654
0.124594
1.35906
0.744032
1.2217
0.0208573
0.021344
0.292608
0.0196599
0.0202882
0.0240252
0.0212059
0.0215011
0.0208264
0.0211161
0.0236335
0.021166
0.0303097
0.0278077
0.0209477
0.418585
2.60981
0.0248717
0.0202752
0.0212862
0.0296072
0.0213456
0.0212427
0.0213346
0.111904
0.0211302
0.0226312
0.0230182
0.116219
0.419553
0.0209076
0.0315812
0.0540076
0.0260171
0.0715875
0.177304
0.0207312
0.0211872
0.0655287
0.0492553
0.0229619
0.0698431
0.33985
0.0212914
1.6729
0.0218774
0.0570648
0.0862982
1.03626
3.05565
0.0226948
0.0210686
0.973428
0.0225834
0.994664
0.0249815
0.425316
2.99313
0.0206847
0.0370952
0.0210661
0.06614
0.0750041
2.8127
0.0210052
0.0213246
0.0716657
0.0216215
0.742696
0.0206517
0.38695
0.245145
0.0386742
0.669632
2.5478
0.0207815
0.0208939
0.0213407
0.585781
0.377928
0.0217595
0.0225406
0.0217518
0.020285
0.0246832
0.0208048
0.0204031
0.226868
0.021702
0.0203735
0.0231856
2.12109
0.200028
2.2996
0.0215139
0.0806414
0.0237516
0.0245737
0.123839
0.150936
2.47094
0.0203022
0.0340366
0.0197036
0.0319064
0.0260522
0.0469634
0.415825
0.0217599
0.0710271
0.0202645
0.375658
0.350376
0.0204038
0.022376
0.0221102
0.0221515
2.19613
0.021309
0.0213534
0.0219362
0.0216205
0.0204346
0.0224048
0.0212964
0.0217278
0.0213415
0.0211032
1.00868
0.503213
0.85593
0.0200473
0.0197105
0.0197657
0.0201093
0.0198871
0.0357787
0.0198288
0.0206138
0.021249
0.0208527
0.0274041
0.0212555
0.132061
2.384
0.0359076
0.870704
0.0215136
0.69519
0.0376711
0.246648
0.0205354
0.679077
0.0220256
0.0213465
0.0213386
0.0922019
0.0913127
0.0209161
0.0289317
0.0268564
0.021159
0.0470804
0.47615
0.0308682
0.0208924
0.0226672
0.093345
0.0223324
0.283735
0.0209234
0.0220086
0.0213447
0.0223812
0.0274628
0.376383
0.0328252
0.0203748
1.6756
0.0250843
0.0312309
0.0210537
0.0244447
4.01593
0.0206639
0.0217288
0.0279433
1.22263
0.019822
0.0210086
0.0204706
0.0325028
0.0213651
0.469529
0.0213388
0.0246288
0.0270945
3.70419
0.0206446
0.0204228
0.0197139
0.0285434
0.0202682
2.16766
0.219334
0.0313898
0.348401
0.0212761
1.67691
0.0213744
0.0205834
0.0378361
0.0496689
0.194571
0.291479
2.839
0.268431
0.0269337
0.0314824
0.0221518
0.527965
0.021344
0.0220291
0.11399
0.0216466
0.427421
0.30336
0.27153
0.479287
0.276591
0.0757974
0.484276
0.0775535
0.0219261
0.027897
0.0213506
0.0203885
0.0210339
3.19676
2.59353
0.426281
0.0250529
0.0237337
0.378307
0.0209345
0.0293483
0.0204186
0.0330002
0.0211998
0.0199074
0.021885
0.037973
1.6709
0.0303712
0.0267764
0.0204428
0.0280561
0.247724
0.0202781
0.0554299
0.354559
0.0196539
0.0580465
0.0205692
2.25428
0.0215431
0.394013
0.0217972
0.0214923
0.0246079
0.0351687
1.2154
0.025256
0.370341
0.0224912
0.0213264
0.0213388
0.0215068
0.0203625
0.0213026
1.46532
3.87128
0.028506
0.0211544
0.0242857
0.0227958
0.0215551
0.0214208
0.0798233
0.434817
0.354053
0.02119
0.32323
0.020559
0.0613692
0.0224674
0.0366684
2.46251
0.411079
0.387808
0.0199329
0.0212952
0.0209472
0.0211469
0.0213473
0.0211266
2.32787
0.0214914
0.02164
0.0218195
0.036192
0.0211275
2.17707
3.72686
0.337922
0.0213413
2.23637
0.0203498
0.436435
0.102119
0.0220753
0.32146
0.0234627
0.061433
0.0207089
0.0216791
0.0266529
0.047572
0.104721
0.407373
0.181487
0.146164
0.0293502
0.0220826
0.0211929
0.453416
0.0230845
0.816791
0.0218809
2.68093
0.202938
0.371028
0.0222907
1.07114
0.0234839
0.0210781
0.0201465
0.022816
0.0632374
0.0212435
0.464709
0.0350999
0.110833
0.0210814
0.0241056
2.85081
0.35157
0.430696
0.0241548
0.0252319
3.04348
0.9648
0.0216862
0.0467528
0.392194
0.0603931
0.125689
0.0248625
0.0264369
0.258932
0.0198681
0.289999
0.0458827
0.0213369
0.334984
0.373425
0.462055
0.0229249
0.124459
0.0262376
0.0204226
0.04547
0.0218112
0.225203
0.0204258
2.5148
2.40492
0.0625266
0.356206
0.115208
0.222121
0.0236873
0.0504623
0.365865
3.33463
0.0223799
0.0219395
0.0210291
0.0242873
0.0199064
0.0210492
0.192644
0.0210441
0.0206135
0.0300802
0.0219725
0.0198288
0.0260957
0.939232
0.0619749
0.0212477
0.0213484
0.0269489
0.0222406
0.0210426
0.020951
0.0204026
0.643422
0.0246237
0.121936
0.0264775
0.0211984
0.019892
2.62333
0.170239
0.92658
0.0256367
0.0216324
0.0320797
0.0209448
0.0262772
0.114453
1.65792
0.0302686
0.0230251
0.0202872
0.0274177
0.494616
0.335107
0.426398
0.0243559
0.0203505
0.0205972
0.0239482
0.0779187
3.39304
0.0204746
0.124201
0.0198887
0.0209873
0.0778741
0.0208578
0.777271
0.0822338
0.360196
0.0198172
0.031439
0.0368502
2.66423
0.0203237
0.021464
0.201086
0.484719
1.09904
0.401253
2.84337
0.02237
0.205399
0.0245297
0.024734
3.07698
0.0229453
0.0209405
0.0215351
0.0200765
0.506858
2.99159
0.0244522
1.21857
0.0201308
0.0209519
0.0214902
0.140081
0.0480009
1.15004
0.0213854
0.0218545
0.0308709
0.966181
0.0203379
0.433155
0.0206843
0.0219744
2.38109
0.0208649
0.119841
1.05643
0.493422
0.525803
0.0212204
0.0232193
0.0222831
2.70799
0.0315211
0.021359
2.24956
0.243755
0.0196458
0.0224547
0.208202
0.0204355
2.22693
2.59299
0.0242523
0.0197229
0.0239303
0.0239347
3.44396
0.0205714
0.0302454
0.0220272
1.64791
2.57003
0.0212314
0.0201852
0.165935
0.0257603
0.0214763
0.0210183
0.0208907
0.046778
0.0227687
0.103205
0.0217905
0.0216714
0.0207973
0.0225537
0.0231374
0.0223139
1.04361
0.346552
0.388219
0.021754
0.0203258
0.334351
0.0245086
0.0635664
0.27598
0.113587
0.372148
2.64887
0.0203156
0.362898
0.189978
0.0222067
0.0208275
0.0213887
0.0213733
1.60694
0.276187
0.0213554
3.82585
1.02661
3.78752
0.0197613
0.0205889
1.37992
0.0208959
0.0214618
0.0239301
0.0210341
0.282794
0.0226334
2.99573
0.423984
0.0208775
0.122543
0.0715337
2.74058
2.18713
0.0212811
0.0240571
0.0340104
0.368165
2.36799
0.225215
0.0216939
0.0213895
0.0800793
0.0204356
2.94139
0.811937
0.0209338
0.469465
0.0204013
2.49402
0.0216199
0.266082
0.0221345
1.40571
2.51568
2.23245
2.21914
0.0200628
1.07894
3.77014
0.0218348
2.88188
0.0217495
0.0199702
0.0211932
0.0264091
0.0236758
0.0215047
0.0209876
0.0808133
0.0369706
0.0402688
3.45684
0.047821
0.0267201
0.0219636
0.0508828
0.0201691
0.110948
0.7958
1.05954
0.409786
0.0221993
0.0231566
0.0222381
0.0258752
0.0228095
0.0210642
2.22583
1.01102
3.69231
0.02183
0.021518
0.0388741
1.13486
0.0217923
0.020415
0.0220603
0.0225119
0.0361872
0.0212521
0.370771
0.0216829
2.32264
0.020577
0.275259
1.00897
0.293868
0.020058
0.107965
0.0213397
0.0204112
0.0606132
1.00052
0.0210095
0.0220051
2.25226
0.021279
0.0483761
0.404332
0.0265141
0.347195
0.0214434
1.05685
0.027282
2.59377
0.0203145
0.0206161
2.13349
0.0208175
0.293036
0.0241169
0.0285132
2.19545
0.0222621
0.0213882
0.0220368
0.0210334
0.162687
2.48727
0.0204165
0.305808
0.0287676
1.28089
0.0212067
0.830267
0.359647
0.0261425
0.0271641
0.0213592
3.96507
0.019998
2.34712
0.0203033
0.0205745
0.023452
0.0215408
0.0206714
0.062833
0.022974
0.0210164
0.282749
0.0204533
0.0427397
0.0247082
0.523643
0.0290162
0.0205805
0.0328184
0.0209788
0.0209494
0.0238807
2.86156
0.299829
0.291594
0.33629
0.0203902
0.0211119
0.0212231
0.020906
0.0202194
2.91818
0.0198444
0.0229994
0.215102
0.0219276
2.05762
0.0214729
0.0203957
3.44584
0.686571
0.0215569
0.0451885
0.0239774
2.38569
0.0210517
0.0226727
0.0584296
0.0215344
0.271295
0.225458
0.0220229
0.0221132
0.3609
0.0241386
0.0470068
0.288319
0.209918
0.0232867
0.0228384
0.0347593
0.37537
0.0219075
0.819549
0.635866
0.157057
2.2329
0.0204055
0.0213644
0.021159
0.35978
0.643598
2.50988
2.19959
0.0200432
0.115353
0.0204378
3.96223
0.0211837
0.0349937
0.10232
0.0218678
0.0220159
0.124913
0.0246334
0.0217088
0.021913
0.054004
0.0230523
0.0209295
0.0956961
0.0217749
0.021761
0.0210938
0.340959
0.0255008
0.381512
0.0280097
0.0228546
2.23593
0.0247279
0.0799338
0.0203949
0.0211707
2.87946
2.32533
0.627075
0.0215909
0.0238712
3.41698
0.0817827
0.0886242
0.304139
0.0555752
0.0546295
0.0203746
0.892684
0.0206687
0.0579766
0.367312
0.111551
0.112266
0.0221685
3.12134
0.0584367
0.344125
0.0665332
0.0210523
0.0213359
0.0213156
0.347685
0.0205134
0.400219
0.0617526
0.439943
0.0202207
4.34625
2.39689
0.304023
0.360555
0.0221471
0.0216649
0.0210751
0.024495
0.0213738
0.0246514
4.00126
0.021111
0.0222514
2.19198
0.279129
0.318266
0.0255786
0.0304676
0.0207777
2.79723
0.0218812
3.44915
0.0370972
0.275035
0.0302746
0.111389
0.203238
0.0212778
0.0211817
2.21447
0.287597
0.096927
0.150868
0.039943
0.0208093
0.0660798
0.0214112
0.617771
0.021376
0.0224941
0.355003
0.021985
0.111396
0.0205535
2.78723
0.271846
0.0237443
0.0282946
2.99755
0.0247237
0.0202923
2.4326
2.25165
2.73522
0.020892
0.0217373
1.05498
1.05577
2.38063
0.0214849
0.0229291
0.0215649
0.02563
0.0217192
0.0206663
0.709369
0.0209396
2.58758
0.0233952
1.02392
0.0200573
0.667045
0.445073
0.110366
0.322299
0.640262
0.0206246
0.0655207
1.65221
0.0208485
0.0216729
0.0213048
2.6874
2.22953
0.0214709
2.28245
0.0360787
0.0212384
3.06708
0.0227013
0.0574042
2.61246
3.22831
0.021161
2.25298
0.0225367
0.0202572
2.33981
0.0418627
0.388889
3.07801
0.0280265
3.23919
0.309197
0.0263442
0.392447
1.72259
2.20131
0.0220345
0.0200181
0.0211086
0.0224884
0.321698
0.127872
2.44255
1.68711
0.0241817
0.0200059
0.0208295
0.0238232
0.289619
0.0211972
0.438874
0.281308
0.0203784
0.0222054
2.29178
0.0512889
0.110154
0.532937
0.0213277
2.25786
0.387846
0.531947
0.0224241
0.0240374
0.28423
0.021327
0.0226034
0.106094
0.0234094
0.272609
2.98841
0.0215273
0.0928289
0.4794
0.043488
0.0358665
0.312611
0.29113
3.07751
0.0213532
1.05096
3.51037
0.0374705
0.0220465
0.0205263
0.0217345
0.0215847
0.219882
0.0224061
2.18668
0.0224187
0.0212386
2.7089
1.25144
0.020282
0.0211196
0.166205
0.429891
0.0213745
0.0204509
0.0239354
0.0249219
0.240768
0.0602059
0.0205549
0.105174
0.0220298
0.419388
0.301812
0.435614
0.0212552
0.119623
2.66583
0.445736
0.0220508
0.331752
0.26437
0.288673
0.0202169
0.0225081
2.75283
0.145591
0.22436
2.32096
0.0214157
0.0736577
0.0226158
0.046352
0.0630645
0.819089
0.148687
0.0242362
0.0208698
0.0485181
0.3747
0.0213422
0.0542231
0.354516
0.0797192
0.0206684
2.72609
0.144814
0.365231
0.022567
0.0215328
0.0215091
0.0242078
0.0367263
2.31672
0.105047
0.020432
0.0212939
0.3279
0.246641
0.0214372
0.365477
0.058422
0.02245
2.5043
1.84282
0.0202775
1.68186
0.446064
2.80677
2.35413
0.0207609
0.270205
0.134632
0.0218893
0.0232965
0.367377
0.343248
3.16558
0.0275813
0.0212951
0.0248101
0.73331
0.0243861
1.25797
0.019747
0.0216539
2.20711
0.357339
0.0312139
0.110962
0.0566632
0.0229673
1.00235
0.0611943
0.267764
0.424014
0.0515137
0.0564733
0.0213023
0.0213095
0.0559824
0.31338
2.26224
0.767171
0.122624
0.341633
0.312638
0.0280955
0.0209753
0.0217529
0.0639563
0.270156
0.0204863
0.0574488
0.0599136
0.104458
2.85047
0.0352508
2.64854
0.0216162
0.0225946
0.165095
0.0282553
0.0217746
0.0223068
2.84422
0.0285013
0.0572906
0.0204128
0.021303
0.339911
0.419104
0.0221245
0.418741
0.286419
0.0719084
0.022278
0.411372
0.0210424
3.28524
0.0988378
3.04212
0.0215232
0.207205
0.0200429
0.0213017
1.01809
2.82085
0.104172
0.0204024
0.238264
0.205555
0.276053
0.840944
0.0425963
0.0223338
0.806946
0.189739
0.0212215
0.0209449
0.393573
0.065708
2.91829
0.025957
3.23797
0.0203737
0.0217765
0.947722
0.0613048
0.0211756
0.402733
0.0214203
0.0215046
0.0220539
0.0222103
0.339403
0.263486
0.0196368
0.0804897
0.0208887
0.0311109
0.332089
0.0218069
2.49479
3.4721
0.21001
0.224284
0.0214681
2.95459
0.022333
0.149672
0.0207489
0.13587
0.0306972
0.0244455
0.0214662
0.115822
0.0544387
1.14455
0.373497
0.0218709
0.0202709
0.355203
0.142063
0.0303548
3.1904
0.0242037
3.46293
0.0214645
0.206657
0.128145
0.42487
0.0202611
0.107443
0.0473538
0.166393
0.0225512
0.0237964
0.024026
0.0235872
0.0239852
0.0237005
0.0235658
0.0210436
0.0870062
3.0761
0.598395
0.0245878
0.0212039
2.29959
0.794691
0.0212127
0.0576183
0.0233676
0.0227699
1.25621
0.351529
0.0202344
3.64974
0.0215074
1.08058
0.56024
0.207579
0.0232246
0.0217767
0.0227567
0.020457
0.0224164
0.336357
0.29426
0.031717
0.404115
0.155262
0.0213591
0.0481017
0.217929
0.0214917
0.0240085
0.184961
0.0233052
0.0498563
0.0231685
0.0238932
0.0432031
0.284622
0.090093
3.23334
0.0250598
1.77138
0.0589017
0.383066
0.0590484
0.0278642
0.0210507
0.0242188
0.176812
0.362917
0.416016
0.0209781
2.6417
0.400662
0.289905
0.140869
0.551067
3.01451
3.07174
0.0197461
0.0913479
0.023756
0.22811
0.852429
0.354729
0.0211129
0.405309
0.0453001
0.126624
0.0210457
0.0769002
0.0231306
0.377071
0.0228539
0.103554
0.177485
0.0251161
0.0208461
0.0217166
2.82757
0.0207654
0.111383
0.0540997
2.74394
0.028806
0.468282
0.0617611
0.0212115
0.0207079
2.91594
0.0231748
0.0208494
0.0211411
0.394787
4.02022
0.114836
0.0213835
0.035257
0.357179
0.314358
0.0401766
0.020963
0.0774798
0.282336
0.0269253
0.0235715
0.0208036
0.778337
0.020653
3.50087
0.258953
0.0393391
0.968807
0.178548
0.0203003
0.022715
0.471478
0.0233152
0.0253419
0.0210886
0.0212999
0.736707
1.18091
0.10742
0.0205107
3.54502
0.0651772
0.298447
0.0212054
0.0270887
0.024381
0.155271
0.0212434
0.048854
0.38365
0.0857512
0.0243257
0.020819
0.0268289
0.0260563
0.0419512
0.020226
0.0218795
0.0215389
0.0214907
2.31323
1.89287
2.65633
0.0786359
0.0220151
0.0196657
2.53145
0.617519
1.89809
0.0238111
0.103488
0.0213012
0.0217371
0.0667105
0.0207321
0.127119
0.0217823
2.26778
0.0201858
2.75802
0.0214442
0.203126
0.332869
0.0541049
0.725376
0.0196637
2.3557
0.020325
0.119487
0.223249
0.162129
0.0206143
0.542984
1.05411
0.0663022
0.0971176
0.0264112
0.107981
0.0200599
0.0376076
0.0204069
0.305768
2.06892
2.22667
3.39847
0.0216893
0.358727
0.0209304
0.0210607
0.787127
0.0201271
0.0210243
0.0210807
0.0210054
0.898025
0.0224049
0.0232494
0.0219622
0.0212976
0.0210661
0.0225127
0.0240564
0.0214482
0.0302673
0.0345461
0.0254659
0.399701
0.0230656
0.0546996
0.350063
0.0359513
0.0492679
0.103075
0.199705
0.0582631
2.31041
2.60391
2.83564
0.0203592
0.0208988
0.0234397
0.0199003
0.0981732
0.0393992
0.0201889
2.41516
1.6463
1.66524
0.0388921
0.0549109
0.0372814
0.0213755
0.090478
0.113931
0.0222855
1.92022
2.16115
0.0215392
0.338756
0.469895
0.336621
0.0552492
0.056266
0.0556126
0.0206948
0.0198565
0.0598101
2.79277
0.0890156
0.0230013
0.0210989
1.65419
0.0276889
0.022989
0.0198083
2.46082
0.0202612
0.0241013
0.0263975
0.0212894
0.0323235
2.62722