/*--------------------------------*- C++ -*----------------------------------*\
| =========                 |                                                 |
| \\      /  F ield         | OpenFOAM: The Open Source CFD Toolbox           |
|  \\    /   O peration     | Version:  v2012                                 |
|   \\  /    A nd           | Website:  www.openfoam.com                      |
|    \\/     M anipulation  |                                                 |
\*---------------------------------------------------------------------------*/
FoamFile
{
    version     2.0;
    format      ascii;
    class       volScalarField;
    location    "900";
    object      k_0;
}
// * * * * * * * * * * * * * * * * * * * * * * * * * * * * * * * * * * * * * //

dimensions      [0 2 -2 0 0 0 0];


internalField   nonuniform List<scalar> 
10042
(
0.00206391
0.0196907
0.000214198
0.000141771
0.000142212
0.00187069
0.000281244
0.00358969
0.000135055
0.00020313
0.00646667
0.0214912
0.000167707
0.000143418
0.000145947
0.000143324
0.000940621
0.0063467
0.000152877
0.000160992
0.00016763
0.0021659
0.000141661
0.00741764
0.000141504
0.000151312
0.000193479
0.000134097
0.00144575
0.00636582
0.000157071
0.000173657
0.000134693
0.000134596
0.00507414
0.00628195
0.000150374
0.000135599
0.000149701
0.000153267
0.00679999
0.000134868
0.000227716
0.0309963
0.000141534
0.000141559
0.000132668
0.000145668
0.000194876
0.000291259
0.000232981
0.000140821
0.00110297
0.000152324
0.0246612
0.0512986
0.000166058
0.00281627
0.000146144
0.000130722
0.000197221
0.0326158
0.000218315
0.00208195
0.000511202
0.00014716
0.000159993
0.00275593
0.000132494
0.00270754
0.000249955
0.000149322
0.00013716
0.000145985
0.000146406
0.000244405
0.000724314
0.000132642
0.000789781
0.000152976
0.0278718
0.00696538
0.000169265
0.00014019
0.00018003
0.000233529
0.000159141
0.000208993
0.000141082
0.000425973
0.000160145
0.000146027
0.000218721
0.000235987
0.000306802
0.000144248
0.0800055
0.000160163
0.0128383
0.000145821
0.000159445
0.000180595
0.000146687
0.00016848
0.000154823
0.000145748
0.00342819
0.000145593
0.00027567
0.000145973
0.000145693
0.000263265
0.000137454
0.00301828
0.000348593
0.000132493
0.000211331
0.000155073
0.00173427
0.000132382
0.000130704
0.0241607
0.0247115
0.000141644
0.000556474
0.000141835
0.000142162
0.0301283
0.000221182
0.000212374
0.000135738
0.000143862
0.000143951
0.000144484
0.000257821
0.000255812
0.000161571
0.0219571
0.000149973
0.0117565
0.000197024
0.000138303
0.00253156
0.000134139
0.000156953
0.000135646
0.000170253
0.000132398
0.000149388
0.010908
0.000144671
0.000145044
0.000150831
0.000172075
0.000264354
0.000157326
0.000218745
0.0532861
0.000144219
0.000153351
0.000153241
0.000157909
0.000253985
0.000141405
0.000148976
0.00937802
0.000137083
0.000169899
0.00581556
0.000134274
0.000255301
0.00591062
0.0136025
0.000134403
0.000152273
0.0202059
0.000141819
0.000135556
0.000143186
0.000132496
0.000149696
0.000154922
0.00014599
0.000132209
0.00316795
0.000160417
0.000149346
0.000131252
0.000325349
0.0001464
0.0187809
0.000166006
0.000135907
0.000154454
0.0265664
0.000145993
0.000518026
0.000275758
0.0948141
0.000140337
0.000236551
0.000207644
0.000269295
0.000136979
0.0119976
0.000143288
0.00770577
0.000171598
0.000145437
0.000144833
0.000172028
0.000135787
0.00029998
0.000239814
0.00015141
0.00175916
0.000136427
0.000915016
0.000143938
0.000233905
0.00652273
0.000241605
0.00789836
0.00203893
0.000141762
0.000207897
0.000148065
0.000160595
0.000177173
0.000146816
0.000135639
0.000142675
0.000160583
0.000161713
0.0001418
0.00434542
0.000159275
0.0845684
0.000155657
0.007578
0.000366295
0.000630312
0.000130629
0.000168103
0.00525217
0.000142965
0.000345388
0.000154975
0.000151058
0.000146706
0.000154121
0.000136109
0.00808005
0.0154433
0.000149174
0.000158511
0.000150205
0.000150046
0.0754443
0.000141786
0.000637448
0.000136035
0.000140709
0.000132767
0.000168906
0.0107378
0.000492768
0.00768754
0.000162742
0.000142782
0.000143644
0.000282384
0.000141265
0.00026596
0.000149736
0.000662661
0.000149073
0.0001414
0.000163469
0.0160294
0.000134085
0.00241618
0.000753292
0.000148816
0.000161708
0.0770997
0.000211024
0.000133086
0.00202187
0.000148636
0.000164557
0.000202473
0.000164759
0.00281939
0.00065342
0.000142786
0.0290507
0.000160458
0.000143728
0.000136979
0.000150545
0.000270304
0.000131285
0.0004105
0.000209269
0.0317515
0.000142588
0.000173544
0.030121
0.00376875
0.000155657
0.000143491
0.000144007
0.000142813
0.000203897
0.00205879
0.000132799
0.00287014
0.00724955
0.000132408
0.000153333
0.00027171
0.000490629
0.00295659
0.00350019
0.00015449
0.000223069
0.000142822
0.000159481
0.0001632
0.000143224
0.000144314
0.00165538
0.000146762
0.00769662
0.00242832
0.00123365
0.00264048
0.000136303
0.00702022
0.000196665
0.000168005
0.000130664
0.000202016
0.000158044
0.000135541
0.000139976
0.00014359
0.000171311
0.0909108
0.000147547
0.000346012
0.000170989
0.000141601
0.0330441
0.000239183
0.000148081
0.000168378
0.000301966
0.000156283
0.000145494
0.000151392
0.000148917
0.00632516
0.0056692
0.000149255
0.000141262
0.000163537
0.00016473
0.0431428
0.000130861
0.000171607
0.000141777
0.000151445
0.000228369
0.00014385
0.000860424
0.000309107
0.00198183
0.000223365
0.000144748
0.000318138
0.000176168
0.000142434
0.000179377
0.000132475
0.000145529
0.000132275
0.000144903
0.000133077
0.00014972
0.0589167
0.000147508
0.000218231
0.00421415
0.019093
0.000142256
0.00406109
0.000151113
0.000173983
0.000140918
0.0436997
0.000158037
0.0283884
0.0734879
0.000142252
0.000193629
0.000151147
0.000317541
0.000149407
0.00264056
0.000158826
0.000944399
0.00014721
0.000570362
0.000154477
0.000160168
0.039062
0.000133112
0.000152882
0.000144454
0.00347326
0.000135662
0.000132115
0.00019865
0.000160555
0.000182652
0.00228265
0.000141633
0.000168067
0.000160671
0.000132644
0.000159032
0.00528496
0.000148885
0.000148595
0.000311334
0.00127596
0.000153266
0.0548677
0.0001343
0.000198604
0.000181438
0.000298238
0.000262075
0.00422347
0.000382027
0.000246519
0.00277815
0.00013204
0.000401661
0.0268261
0.0232968
0.000177759
0.000141642
0.000140333
0.000304115
0.0659826
0.000132243
0.000135699
0.000159553
0.000142068
0.000150556
0.000153036
0.000144273
0.000164858
0.00238831
0.000148821
0.000200939
0.000268335
0.000248295
0.000135383
0.0307049
0.000248393
0.0132809
0.00014502
0.000156937
0.000152992
0.0205274
0.000143761
0.000272719
0.000147139
0.0129521
0.000139963
0.000154208
0.000135408
0.000326789
0.00585521
0.000151683
0.0001397
0.000143975
0.0270896
0.000135951
0.000236115
0.000208704
0.00019351
0.000139441
0.000239192
0.00218782
0.000333156
0.000144957
0.000158363
0.00153903
0.0290766
0.000174698
0.00677233
0.000147751
0.00189901
0.000166416
0.000161593
0.000153162
0.008426
0.000139013
0.000141537
0.000146223
0.00369327
0.000141669
0.000304438
0.000142053
0.000144603
0.00013588
0.000159869
0.00796437
0.000146602
0.000148507
0.00888905
0.000260818
0.000184794
0.000146492
0.000145002
0.00211506
0.000316457
0.000144992
0.000133782
0.000201711
0.00014457
0.000143843
0.00992611
0.000135585
0.00838141
0.000141033
0.000178712
0.000192949
0.0320253
0.000141757
0.000157889
0.000145114
0.000136708
0.00900116
0.000130626
0.000345822
0.000174506
0.00013497
0.000205043
0.000896319
0.000476849
0.000256146
0.000146487
0.000133743
0.000132316
0.000142583
0.000252865
0.000145984
0.0270371
0.000143785
0.000135593
0.0402056
0.000154889
0.000288471
0.000155376
0.000139353
0.039942
0.00647907
0.000181944
0.0083781
0.000143586
0.000158993
0.000134892
0.000135093
0.00014462
0.000143585
0.00014527
0.000146811
0.0721301
0.000146746
0.00449276
0.000141058
0.000171515
0.000132875
0.000189054
0.000647691
0.000134987
0.000141277
0.00314715
0.000237109
0.000133023
0.00284261
0.000141584
0.00158121
0.000135681
0.000151989
0.00013657
0.000343847
0.000132933
0.000141686
0.000144809
0.00344015
0.000155089
0.000144324
0.000146972
0.000335954
0.000142254
0.000142142
0.000137689
0.000142206
0.000153823
0.000141986
0.00016511
0.000135146
0.0732473
0.0319696
0.00799343
0.000149393
0.000153759
0.000143491
0.00336473
0.000150495
0.00723556
0.000249874
0.00940028
0.00166877
0.000747117
0.000143581
0.000144535
0.00154065
0.000281022
0.000226669
0.000195133
0.000146007
0.00554378
0.000139919
0.000145118
0.000135575
0.000135853
0.000152831
0.00167072
0.000148762
0.000150023
0.0581595
0.000143248
0.00484187
0.000146899
0.000148591
0.000210392
0.000146113
0.00719477
0.000142912
0.000142997
0.000354466
0.000144798
0.000133238
0.000158283
0.000140419
0.000139364
0.0085171
0.0169123
0.0323032
0.000145454
0.000140783
0.000140391
0.00547565
0.000149972
0.000145975
0.000138541
0.000139379
0.002512
0.000303446
0.000269949
0.000148859
0.000161545
0.0746754
0.000158727
0.000178292
0.000184486
0.00507134
0.0291169
0.00402606
0.000139802
0.000146464
0.000143408
0.0014063
0.000139672
0.000155075
0.000144058
0.000130702
0.000204246
0.000148353
0.000397211
0.00242738
0.000132999
0.000141437
0.000132004
0.00398583
0.000135766
0.00134773
0.000159491
0.000309692
0.000140609
0.000141219
0.000135047
0.000141461
0.000144103
0.000132438
0.000143852
0.000147327
0.00023318
0.000153573
0.00665945
0.000143591
0.000230508
0.0059282
0.000153829
0.0533632
0.000140791
0.000143663
0.000165985
0.000148648
0.00907639
0.000144062
0.000149014
0.000136196
0.00918238
0.000140536
0.000915089
0.000170834
0.000140873
5.00073e-05
0.00226313
0.000146038
0.000137338
0.000194939
0.000171533
0.000417881
0.000214655
0.000620943
0.000231842
0.000145248
0.000145181
0.0001469
0.000163164
0.000173023
0.00391804
0.000247759
0.000130705
0.000144299
0.00014958
0.00018135
0.000171592
0.00102825
0.000146468
0.000145252
0.000265647
0.000140484
0.000192089
0.00016322
0.000162991
0.000651088
0.000168218
0.000141282
0.000149139
0.000173624
0.000143211
0.0254581
0.000147004
0.00017208
0.000155602
0.0138993
0.00014762
0.000159847
0.000163036
0.000147596
0.00016955
0.000134259
0.000168492
0.000142217
0.000147019
0.000142252
0.000143976
0.000150385
0.000175976
0.000154341
0.000145694
0.00425058
0.000134386
0.000140725
0.000141089
0.000132127
0.000283154
0.000160424
0.00015176
0.000415482
0.00430531
0.000144031
0.00080958
0.00035191
0.000139145
0.000142602
0.00013201
0.00779408
0.0054588
0.00015419
0.000140384
0.000179689
0.000280774
0.0367231
0.000152407
0.00911064
0.000240701
0.00689377
0.000165759
0.000132863
0.000148059
0.0102016
0.00157756
0.000146838
0.0398509
0.0013803
0.0005924
0.00844179
0.000144646
0.000411907
0.00048582
0.000215258
0.00687403
0.000162858
0.0704148
0.000151323
0.00553541
0.000144732
0.000326847
0.00015551
0.000187673
0.00013137
0.000145425
0.00014141
0.00139782
0.000143067
0.00013082
0.0442709
0.000144159
0.000158507
0.00015449
0.00359797
0.000145008
0.000148838
0.00014739
0.000144057
0.000143076
0.000156399
0.000139482
0.00955712
0.0011819
0.000210695
0.000143441
0.0322874
0.00013909
0.000192005
0.00393587
0.000187634
0.000143454
0.00013247
0.000143982
0.00015122
0.000845858
0.000180483
0.000140561
0.00710075
0.000143529
0.00014585
0.00789289
0.000132227
0.000146293
0.00466359
0.000140044
0.00303327
0.000149983
0.000157866
0.000158752
0.000181403
0.000214836
0.000144093
0.0866228
0.0828378
0.000141175
0.000166134
0.000338744
0.00346142
0.000253734
0.000154369
0.000138485
0.000177741
0.000145501
0.000160252
0.00171082
0.00015373
0.000132303
0.000166955
0.0125274
0.00595924
0.000132417
0.000132011
0.000151187
0.000146234
0.00115181
0.00897731
0.000138118
0.000155782
0.010522
0.000147297
0.000156744
0.00698604
0.000151314
0.000297938
0.000151578
0.000146447
0.00014556
0.000156969
0.000946792
0.000209399
0.00014578
0.00593372
0.00167428
0.0216877
0.00015342
0.000150595
0.0101464
0.000170169
0.00758505
0.000163996
0.000144496
0.00014256
0.0187863
0.00038806
0.000152798
0.000155097
0.000173692
0.000142904
0.000201276
0.000152888
0.000142171
0.000152183
0.000168461
0.000141252
0.0001415
0.093685
0.000140704
0.000138237
0.000183577
0.000156629
0.00710147
0.000155888
0.000148999
0.0241359
0.000181096
0.000156969
0.000167537
0.00390327
0.000141231
0.000135124
0.000156577
0.00163453
0.000140076
0.000147821
0.000142357
0.000142458
0.000142178
0.0218024
0.000147627
0.00651873
0.000144902
0.000182149
0.000138032
0.000146833
0.00019048
0.00483713
0.000254314
0.000143572
0.000158146
0.0101684
0.00163925
0.000174142
0.000148585
0.00400977
0.00014146
0.000209475
0.000201235
0.000145503
0.000150854
0.000141035
0.000201803
0.00159471
0.00710758
0.000143027
0.000148315
0.00015743
0.00115739
0.000139628
0.000137325
0.000174698
0.000131526
0.000138821
0.000545058
0.000147258
0.0019663
0.000136134
0.000137571
0.000135575
0.000176987
0.000149714
0.000153353
0.000275314
0.000139032
0.000148035
0.00152513
0.00014265
0.000196924
0.000158074
0.00380099
0.00736767
0.000159754
0.013259
0.000161119
0.00014501
0.000551562
0.000148297
0.000141627
0.000132606
0.000140925
0.000171582
0.0194108
0.00018657
0.00465095
0.00872319
0.0029526
0.000224761
0.00692752
0.000152891
0.000302171
0.0001342
0.000159766
0.000145465
0.000147519
0.000147628
0.0785007
0.00422028
0.000143711
0.00820038
0.000137876
0.000251524
0.000145621
0.000152405
0.000158586
0.00081307
0.00865056
0.000142307
0.000133172
0.0003025
0.000207913
0.000236332
0.000195999
0.00798904
0.000148764
0.00806902
0.00257783
0.000139222
0.000138513
0.000140618
0.000154924
0.000144466
0.000148731
0.000151684
0.000146635
0.000149141
0.000148552
0.000144431
0.00103558
0.00407978
0.000133429
0.0187077
0.000150818
0.000173948
0.000191226
0.000380216
0.000139204
0.00017969
0.00018022
0.000135984
0.000179745
0.00932341
0.000146357
0.0001387
0.000153057
0.00471438
0.00623055
0.000137413
0.00409227
0.000146274
0.000145828
0.000304953
0.000141342
0.000141719
0.000138051
0.000143382
0.000158079
0.00352901
0.000170586
0.000142841
0.000143182
0.000144818
0.000141739
0.00545944
0.000132973
0.000171588
0.0298202
0.00887439
0.000137873
0.00406103
0.000138538
0.0217805
0.000155086
0.000209013
0.000134059
0.00502712
0.000404446
0.00104867
0.000144329
0.00127661
0.0038125
0.00650943
0.000150141
0.00339434
0.000142251
0.0060782
0.00504981
0.000189224
0.000265158
0.00610876
0.00288275
0.0412498
0.000226572
0.00557671
0.000138444
0.000155451
0.00321993
0.000199315
0.00014308
0.0127447
0.000148517
0.000139557
0.00014144
0.00068285
0.000199264
0.000177039
0.000836682
0.000161511
0.0056507
0.000149185
0.000141542
0.000147468
0.00453402
0.00232625
0.00016126
0.00332451
0.000147002
0.000150074
0.000165285
0.00194097
0.000177597
0.00013958
0.00875357
0.00210273
0.00015337
0.000208149
0.000136482
0.000166924
0.000294499
0.000140647
0.0106666
0.00287252
0.000142884
0.000149013
0.000140512
0.00545445
0.000156722
0.000248231
0.000180533
0.000141082
0.000142321
0.000133788
0.000167467
0.000138529
0.00021687
0.000163946
0.000183767
0.000263762
0.000148044
0.00015935
0.00575719
0.000153189
0.000190868
0.00015241
0.000144411
0.0082822
0.0032574
0.000148333
0.000256268
0.000174029
0.00219286
0.000140798
0.000143196
0.000201091
0.000156149
0.000186167
0.000173758
0.000151184
0.000155847
0.00198291
0.000186592
0.000152407
0.00368677
0.00023154
0.00365417
0.000140651
0.000132721
0.00103455
0.000139776
0.000906268
0.00297942
0.000207013
0.00621275
0.000147351
0.000143892
0.000271606
0.00325486
0.000141718
0.000262264
0.000170259
0.00014252
0.000196534
0.00014906
0.000147395
0.000175962
0.000153088
0.000141321
0.000151796
0.000140929
0.000155211
0.00611075
0.000163956
0.0071174
0.000143769
0.000158567
0.000140393
0.000142979
0.00367981
0.000145062
0.00773598
0.00679898
0.000148403
0.0128569
0.000166812
0.0013837
0.000132105
0.006606
0.000210516
0.000281529
0.000151782
0.000153217
0.000139712
0.039192
0.000152303
0.000180907
0.000168312
0.000136576
0.00181138
0.000131859
0.0975068
0.000140865
0.0154329
0.000143394
0.000137915
0.000135286
0.0043701
0.000139544
0.000137293
0.000134312
0.000140207
0.000143544
0.000200876
0.00305584
0.000138483
0.000156538
0.00014611
0.000140755
0.000138835
0.0021557
0.065441
0.000155788
0.000144708
0.00013894
0.000135449
0.000153981
0.000155093
0.000134865
0.0040306
0.0379168
0.000603792
0.000137485
0.000140224
0.000143186
0.000151256
0.00013858
0.000147999
0.000143494
0.00013944
0.000214882
0.000154617
0.000214681
0.00122237
0.0732729
0.000150118
0.000140781
0.000142879
0.00994041
0.000144829
0.000160489
0.000169987
0.0001372
0.000144467
0.000141509
0.0231077
0.000146463
0.0132779
0.00326274
0.000182141
0.000143589
0.000155798
0.00432139
0.000152685
0.000169537
0.000157792
0.000170174
0.000136903
0.000156534
0.0308778
0.00609082
0.000139382
0.000144969
0.021687
0.000154402
0.000179704
0.000171436
0.0028277
0.000143272
0.000155845
0.000885625
0.0332128
0.000190127
0.000138991
0.000143087
0.000139335
0.000145784
0.000264274
0.00535338
0.0110166
0.000138388
0.00172975
0.000156701
0.0137465
0.00657173
0.000141668
0.000901854
0.000539783
0.000139078
0.000164885
0.00016519
0.00014784
0.00481179
0.000139645
0.0669996
0.000180349
0.0477505
0.000290743
0.000176299
0.000144791
0.000156393
0.000147841
0.000140218
0.000135892
0.000136139
0.000317457
0.000148031
0.000170147
0.00658379
0.0764151
0.000170105
0.00019889
0.000140169
0.0258496
0.000132824
0.00556468
0.000284391
0.0720413
0.000245668
0.0046626
0.0458312
0.0001342
0.000147219
0.000135237
0.000204795
0.000153472
0.00190732
0.000154411
0.0081789
0.000157657
0.000137932
0.000137078
0.000145255
0.000134244
0.00299351
0.000825742
0.0903666
0.000139895
0.000171496
0.000152659
0.000156235
0.000209564
0.000144269
0.00549123
0.00472255
0.000147499
0.000151866
0.00602542
0.000157626
0.000515723
0.0032907
0.000147663
0.0054568
0.000154729
0.0958565
0.00014063
0.000532146
0.00014401
0.00256422
0.000239621
0.00129235
0.00321425
0.00597042
0.000215025
0.000215686
0.000146624
0.000147951
0.00505352
0.00320606
0.000214362
0.000158285
0.0355702
7.81197e-05
0.00285289
0.000171974
0.0269033
0.000162971
0.00016644
0.000373745
0.000151614
0.000161553
0.000170368
0.000133379
0.000137179
0.000140906
0.000145411
0.000364455
0.00014828
0.00327803
0.000209126
0.000226834
0.00452485
0.00563182
0.000136344
0.000147416
0.00626968
0.000638816
0.000163734
0.00304145
0.0282646
0.00600281
0.000139661
0.000164618
0.000153108
0.000204752
0.000195737
0.00361421
0.00349754
0.00018487
0.0001467
0.00015214
0.00053612
0.00049639
0.000180947
0.00463535
0.000140682
0.000170249
0.000150831
0.0164367
0.000151719
0.000136332
0.000140276
0.000150442
0.0192741
0.00452083
0.000146961
0.000195672
0.00549414
0.000155669
0.000743603
0.000170702
0.000163539
0.000168453
0.000165467
0.000265017
0.000141527
0.000140434
0.000152488
0.000252434
0.000207562
0.000166809
0.000148702
0.000150528
0.000146555
0.0285478
0.000167839
0.000151626
0.000146202
0.0053229
0.000158021
0.0032873
0.000149874
0.000161734
0.000141607
0.000241857
0.00026684
0.000182131
0.000851482
0.000140877
0.000165805
0.00514845
0.0001589
0.00515739
0.000271319
0.000145846
0.000150468
0.000322668
0.000143299
0.0167927
0.000145863
0.000980058
0.00832841
0.000172155
0.000150933
0.000140958
0.000141927
0.000143421
0.000153905
0.000132453
0.000147532
0.000140666
0.000138903
0.000151918
0.000152556
0.000151913
0.000151147
0.000284317
0.000145083
0.00181949
0.000148061
0.000145004
0.000361451
0.000141455
0.0152448
0.00671611
0.000146321
0.000148197
0.000171809
0.00281765
0.000171163
0.000523908
0.000160686
0.000154765
0.015604
0.000139013
0.0763553
0.000145514
0.00474066
0.000134298
0.0622551
0.0291217
0.00532054
0.000147339
0.000151813
0.000139266
0.0001517
0.00104382
0.000140904
0.000143404
0.000176081
0.000167994
0.0315877
0.000800462
0.000148274
0.000172697
0.000144365
0.000158338
0.000149295
0.000143422
0.000148401
0.000336776
0.0478155
0.000317962
0.000151274
0.000148288
0.000150026
0.000214802
0.00799231
0.000191757
0.0157814
0.00304598
0.000150469
0.000152233
0.000205038
0.000139431
0.000152014
0.000188379
0.000150051
0.00469563
0.00015045
0.0045797
0.000141857
0.000147665
0.00020455
0.000150847
0.000152464
0.000155097
0.000157042
0.00432249
0.00015564
0.000156013
0.000146989
0.094814
0.00053543
0.000153267
0.000147819
0.000138665
0.000153267
0.000145358
0.000633746
0.000140404
0.000144905
0.000145156
0.000166781
0.000162732
0.000147211
0.000650246
0.000147841
0.000148354
0.0392493
0.000151368
0.000153246
0.00335205
0.000147203
0.0200032
0.000139555
0.000138745
0.000148441
0.000180738
0.000137009
0.00315225
0.000148357
0.000141896
0.0184183
0.00337348
0.0628326
0.00317381
0.00246923
0.000155956
0.000138086
0.000150787
0.00457972
0.000159462
9.7858e-05
0.000148966
0.000165262
0.000211078
0.000335332
0.000138518
0.00465497
0.00229124
0.00014073
0.000155784
0.000146814
0.000148944
0.00181812
0.00044173
0.000145165
0.000139339
0.000134091
0.00553465
0.000146649
0.000725443
0.000168592
0.000146278
0.000140513
0.000142006
0.0275182
0.000302478
0.000140073
0.0071723
0.000314613
0.000147817
0.0060481
0.000145923
0.000138252
0.000138522
0.000145553
0.000136029
0.000146407
0.000146503
0.000149778
0.000146025
0.000199413
0.000150695
0.0104376
0.00016334
0.000143184
0.0275827
0.000134011
0.000143149
0.000191204
0.000140517
0.00131737
0.000141226
0.000205887
0.0186056
0.000138172
0.000231174
0.0054751
0.000145089
0.000148356
0.000145358
0.0394479
0.000145592
0.00550406
0.00353563
0.000151583
0.000158463
0.000175156
0.00294673
0.000145159
0.00132614
0.000146438
0.00026541
0.000326402
0.000191648
0.00257421
0.00014737
0.000214224
0.000530479
0.000226528
0.000145076
0.000184761
0.000150306
0.000180302
0.000137024
0.000156905
0.000873954
0.000157562
0.00117474
0.000266181
0.000171396
0.004119
0.000137687
0.000227207
0.000145345
0.000156614
0.000227269
0.00313952
0.00474404
0.000168553
0.00015577
0.00382482
0.000171037
0.000140769
0.000139419
0.000147386
0.000154624
0.000155117
0.000141863
0.0101348
0.000157232
0.00014431
0.000135466
0.000143082
0.0001427
0.000167526
0.000140066
0.000243147
0.00015443
0.00810598
0.000152178
0.00014519
0.000132125
0.000196886
0.000149472
0.000272061
0.000680964
0.00342116
0.000154865
0.000148481
0.00014383
0.000140429
0.000140245
0.00243487
0.000147617
0.000147327
0.00505822
0.000144606
0.000149081
0.000379181
0.0370814
0.0108389
0.000150707
0.00211444
0.0139148
0.000141204
0.000139623
0.000170815
0.0090085
0.000241654
0.0025496
0.000245962
0.000144395
0.00013898
0.00137835
0.000158498
0.000146911
0.000171153
0.000146542
0.000151302
0.00408164
0.0228057
0.000193773
0.000157464
0.000161495
0.00018459
0.0270631
0.000145275
0.000140326
0.000144168
0.0011562
0.000140059
0.000154372
0.0132568
0.00045508
0.000137311
0.000140546
0.00013238
0.000145586
0.000145243
0.000177679
0.000261806
0.000148988
0.000264687
0.0041444
0.0512904
0.000169027
0.000148279
0.000145245
0.000142161
0.000139211
0.000134784
0.000145741
0.0296814
0.0314636
0.00014111
0.000137785
0.00014722
0.000147532
0.0304453
0.000177412
0.011986
0.00464125
0.000269014
0.000195413
0.000142919
0.000143516
0.000142498
0.000146992
0.000984964
0.000144077
0.000153726
0.0102517
0.0164586
0.00337119
0.000711739
0.000289972
0.00351498
0.000143424
0.000171163
0.00687966
0.000468473
0.000144964
0.000151724
0.000143711
0.000145223
0.000145487
0.0327412
0.000142492
0.000142333
0.00139414
0.000153187
0.00460124
0.000142798
0.000138194
0.000171726
0.0156572
0.000260458
0.00348964
0.000164417
0.0192132
0.000169686
0.000140832
0.00929529
0.00014156
0.000152613
0.000145848
0.000138402
0.0634085
0.00367394
0.00112397
0.00022605
0.00487779
0.0030304
0.000309012
0.000139689
0.000146987
0.0380153
0.000143334
0.000146341
0.000151711
0.000144663
0.00554775
0.000145672
0.00656932
0.000320486
0.000134138
0.0160111
0.000147421
0.000141907
0.000164305
0.000163707
0.000166028
0.000168742
0.000169866
0.00346093
0.000146784
0.000142849
0.000141297
0.00017259
0.000347679
0.000140276
0.000148866
0.000248446
0.00229084
0.0001413
0.000171151
0.000171667
0.000137585
0.000144115
0.000142825
0.00659585
0.000312685
0.000171627
0.000149643
0.000143672
0.000167724
0.0030329
0.000146543
0.00198794
0.00759972
0.000145379
0.000168501
0.000642966
0.000696436
0.000170615
0.000134956
0.000139465
0.0251695
0.000189643
0.0024964
0.000156504
0.0012608
0.000188632
0.00387355
0.000580938
0.00145797
0.000327095
0.0232547
0.00319097
0.000684041
0.000148239
0.00333628
0.000149227
0.0269532
0.000150376
0.000148568
0.000171414
0.0319002
0.00570305
0.000152394
0.000146266
0.000905356
0.01376
0.000835311
0.000139073
0.000142322
0.000143628
0.00015473
0.00014723
0.000170965
0.00889358
0.00539922
0.000153896
0.000142729
0.000218461
0.000146385
0.000144179
0.00353424
0.000145954
0.00015259
0.000135233
0.00109327
0.000189952
0.00322166
0.000151598
0.00067612
0.00741266
0.000165364
0.000161767
0.019553
0.0166895
0.031986
0.000141094
0.000145283
0.000202589
0.000144666
0.000147846
0.000143036
0.000147249
0.000165979
0.000185659
0.000140912
0.00904195
0.000147942
0.00276189
0.000149195
0.0313018
0.0313627
0.00019648
0.000398451
0.0276901
0.000195254
0.0257641
0.035764
0.000147088
0.00014572
0.000190027
0.000165641
0.009077
0.000140875
0.000150338
0.0126032
0.000143297
0.000139107
0.00014852
0.000136718
0.00214061
0.000145766
0.000164935
0.000146242
0.00303634
0.000142675
0.0416166
0.00480597
0.00445506
0.0133616
0.000134561
0.000170742
0.000147007
0.000144155
0.000632066
0.000360954
0.000274738
0.00449113
0.000134238
0.000149968
0.000152993
0.000144816
0.00598525
0.000140799
0.000161741
0.00147811
0.00469458
0.000231477
0.000142702
0.000147454
0.0213052
0.000180148
0.000253947
0.00755092
0.000560313
0.00688909
0.000151945
0.000141808
0.000140648
0.000147812
0.00199524
0.000152109
0.000313725
0.000144183
0.00014679
0.00315629
0.00013785
0.0037973
0.000166792
0.000146544
0.000171456
0.0321178
0.000138758
0.000155535
0.0317184
0.000145214
0.000145505
0.000173861
0.0278525
0.000153905
0.000207968
0.000137182
0.0230734
0.00428999
0.000216489
0.000145878
0.000138763
0.000174825
0.000146248
0.0100809
0.00107533
0.00264893
0.011006
0.000143255
0.000104488
0.000141259
0.00167994
0.000144975
0.00252993
0.00620276
0.000144905
0.000462017
0.000143265
0.0011649
0.00017014
0.000136898
0.000243188
0.000139777
0.000140455
0.000138686
0.000132769
0.000202263
0.00932018
0.000146317
0.000137969
0.000207742
0.000134646
0.000148509
0.000148949
0.000142009
0.000144379
0.00067947
0.000183747
0.000133694
0.00015012
0.000149566
0.000144365
0.0194786
0.00251943
0.000144672
0.000141094
0.000149666
0.000281416
0.000145863
0.000147961
0.000149359
0.000197924
0.000134012
0.000149546
0.00601919
0.000146825
0.000379633
0.00014276
0.000144508
0.000141128
0.00014186
0.000138726
0.000143872
0.0169684
0.00381568
0.000138118
0.000154326
0.000161134
0.000151509
0.00017197
0.000187225
0.000143603
0.000148169
0.000145946
0.000151702
0.00532024
0.000319582
0.000141478
0.00014493
0.0887347
0.000148232
0.0316785
0.000257596
0.000141345
0.000721736
0.00461872
0.00486965
0.000259488
0.000352648
0.000171767
0.000140995
0.000816812
0.000145887
0.000159319
0.000178005
0.000135103
0.000143446
0.0270996
0.000139015
0.000231448
0.000826216
0.000148136
0.000144964
0.0470173
0.000142595
0.000234828
0.000136645
0.000314804
0.0127786
0.00383698
0.000142756
0.000140124
0.000148624
0.00134683
0.00028905
0.00426297
0.0166815
0.000195736
0.000143708
0.000248668
0.000549932
0.000143719
0.000136855
0.00017083
0.000141176
0.00573464
0.000228596
0.000137275
0.0131968
0.000139978
0.000139574
0.000136511
0.000143772
0.000143292
0.038663
0.000142181
0.000625315
0.000141122
0.000147976
0.000147473
0.000148194
0.00014195
0.000143436
0.000226516
0.000138559
0.000307085
0.00178094
0.000224235
0.000168939
0.000233053
0.000181516
0.000144279
0.000134504
0.000142789
0.000134872
0.000495324
0.000991987
0.000154165
0.000150227
0.00836377
0.000148809
0.00725717
0.000147748
0.000141153
0.000146824
0.000223051
0.000276321
0.0140422
0.0580493
0.000171627
0.000223417
0.000230731
0.000145884
0.000141523
0.000138997
0.000161554
0.000163323
0.00135425
0.0652182
0.000165267
0.000140343
0.000183617
0.000142086
0.000225209
0.0001437
0.000333555
0.000148746
0.0025639
0.000166452
0.00014802
0.000171448
0.000228148
0.000168462
0.00805615
0.00014122
0.000138892
0.000144429
0.000143864
0.0121472
0.000138219
0.000147244
0.000164459
0.000133877
0.0156632
0.0242739
0.000194438
0.000146528
0.000146692
0.00386129
0.000550494
0.000141374
0.000142908
0.0368528
0.000143043
0.000143916
0.00378424
0.000169456
0.000437797
0.00573389
0.00663063
0.000167727
0.000141572
0.000146628
0.000160319
0.000141239
0.00014111
0.000145264
0.0289311
0.000146047
0.000142805
0.000140414
0.000149179
0.0760179
0.000142593
0.000149257
0.000145426
0.000136735
0.000141129
0.000224856
0.000158639
0.000140746
0.000137056
0.000147816
0.000138751
0.000173617
0.00730849
0.000229285
0.000140635
0.000143718
0.000146044
0.000142053
0.00205347
0.000143758
0.00405087
0.00518977
0.000141295
0.000138603
0.00460307
0.000138631
0.000140192
0.000140691
0.00141545
0.000169838
0.000232659
0.000141078
0.000133454
0.000144462
0.00515403
0.00014253
0.00014648
0.000173212
0.00313215
0.000195501
0.000133487
0.00417932
0.000130918
0.00711564
0.00014061
0.000135612
0.000138744
0.000145714
0.000144523
0.0267269
0.000210017
0.0030769
0.000188125
0.00017634
0.0172228
0.000144165
0.00901577
0.00198121
0.000151998
0.0052179
0.000201045
0.000254167
0.000142404
0.000575405
0.000146216
0.000139211
0.000147291
0.000221564
0.00587991
0.000155074
0.00685915
0.0714472
0.000242834
0.000143221
0.000152444
0.000174166
0.00214179
0.000143141
0.000172304
0.000145402
0.000170133
0.00487244
0.000140091
0.0265808
0.000149073
0.000296184
0.000138406
0.000137296
0.00015994
0.000158481
0.00100052
0.0029691
0.000180969
0.000140556
0.000142999
0.000303789
0.00193933
0.0139955
0.000139636
0.000157655
0.000138817
0.000140856
0.000141082
0.00397926
0.000243283
0.000247311
0.000248699
0.00441605
0.000307258
0.000140482
0.000145538
0.000145089
0.000138787
0.000168053
0.000141655
0.00014695
0.000144118
0.000140267
0.000156929
0.00345258
0.000191267
0.000139747
0.000141049
0.0297044
0.000180564
0.000152288
0.000176457