/*--------------------------------*- C++ -*----------------------------------*\
| =========                 |                                                 |
| \\      /  F ield         | OpenFOAM: The Open Source CFD Toolbox           |
|  \\    /   O peration     | Version:  v2012                                 |
|   \\  /    A nd           | Website:  www.openfoam.com                      |
|    \\/     M anipulation  |                                                 |
\*---------------------------------------------------------------------------*/
FoamFile
{
    version     2.0;
    format      ascii;
    class       volScalarField;
    location    "900";
    object      omega;
}
// * * * * * * * * * * * * * * * * * * * * * * * * * * * * * * * * * * * * * //

dimensions      [0 0 -1 0 0 0 0];


internalField   nonuniform List<scalar> 
10042
(
0.214459
0.92397
0.0448154
0.0211248
0.0210703
0.252337
0.119814
0.270199
0.0201251
0.0518009
0.34238
0.931627
0.0336624
0.0209056
0.0215322
0.0208956
0.16158
0.336788
0.0232262
0.0256059
0.0334011
0.220916
0.0211095
0.421715
0.0210021
0.021608
0.0453119
0.0200408
0.210467
0.39188
0.0225168
0.0435372
0.0200949
0.0200874
0.325425
0.353647
0.0220379
0.020257
0.0217687
0.0211139
0.406712
0.0201134
0.113358
0.976414
0.0210614
0.0209989
0.0198528
0.0215126
0.0523374
0.168016
0.115476
0.020983
0.183263
0.0230036
1.61435
2.63663
0.0318086
0.274068
0.0215135
0.0195711
0.0534983
1.41019
0.0991396
0.180181
0.0715452
0.0213841
0.0249905
0.242262
0.0198269
0.240993
0.135794
0.0221191
0.020395
0.0214967
0.0213241
0.133638
0.122909
0.0198486
0.135735
0.0233149
0.915707
0.41404
0.0239291
0.0208896
0.0366189
0.084705
0.0245295
0.0431299
0.0208574
0.0676728
0.027334
0.0215455
0.0963597
0.0913994
0.042394
0.021281
2.24617
0.0250862
0.527
0.0214865
0.0268204
0.0619593
0.0215784
0.0369839
0.0239889
0.021448
1.25162
0.021262
0.125833
0.0214738
0.0214633
0.117042
0.0630611
0.228741
0.0486813
0.0198175
0.0335596
0.0223385
0.211537
0.0197955
0.0195702
0.98016
1.00045
0.0210709
0.0896447
0.0209146
0.0209413
1.63059
0.123113
0.0337529
0.0202368
0.0211186
0.0211084
0.0211948
0.120769
0.129761
0.0251836
1.69875
0.0221456
0.511526
0.068346
0.020458
1.14061
0.0200464
0.0245425
0.0202587
0.0311421
0.0198129
0.0220662
0.679124
0.0211876
0.0210899
0.0223852
0.0384258
0.0361027
0.024728
0.114979
2.36751
0.0211335
0.0219044
0.0222327
0.0212696
0.126666
0.0208807
0.021913
0.645488
0.020385
0.0383226
0.347464
0.020055
0.0335361
0.376277
0.943168
0.0200705
0.022949
1.01673
0.0210447
0.0202462
0.0210737
0.0198276
0.0220788
0.0238989
0.0215013
0.0197838
0.21469
0.0279124
0.0221302
0.0196189
0.210079
0.0213436
0.891343
0.0315913
0.0202527
0.0237
1.63832
0.021543
0.473448
0.0368642
2.87359
0.0209054
0.147649
0.0817713
0.0558546
0.0202628
0.523268
0.0210421
0.427526
0.0374972
0.0214432
0.0212228
0.0412889
0.0201583
0.0503671
0.0439815
0.022158
0.203294
0.0202028
0.161194
0.0213302
0.138866
1.84958
0.0315193
2.19362
0.216083
0.0211206
0.0850984
0.0217506
0.0246812
0.0360989
0.0216031
0.0202476
0.0209855
0.0279867
0.0230203
0.0210396
0.296193
0.0240615
2.43109
0.0239797
0.426292
0.0816461
0.112735
0.0195599
0.0216456
0.846011
0.0211502
0.0917161
0.0236915
0.0224502
0.0215279
0.0236767
0.0202648
0.547598
1.45882
0.0219774
0.0237423
0.0217113
0.0220973
2.1022
0.0211014
0.0943293
0.0203087
0.0209699
0.0198662
0.0350682
1.29223
0.0726485
0.533667
0.0231912
0.0209978
0.0213517
0.154783
0.0207755
0.158458
0.0219953
0.0912384
0.0219905
0.0210277
0.0232738
1.44674
0.0200393
0.22788
0.531116
0.0219323
0.0234605
3.37672
0.0311214
0.0199003
0.216652
0.021423
0.0301093
0.0289929
0.0238934
0.25268
0.0912355
0.0208392
1.09071
0.0245985
0.021362
0.0202557
0.0222988
0.0527716
0.0196213
0.0898308
0.0330226
1.37992
0.0208753
0.0217474
1.07893
0.320102
0.0226823
0.0211213
0.0212676
0.0208437
0.0289974
0.220851
0.0198709
0.208671
0.423538
0.0198058
0.0220096
0.160802
0.0663059
0.244245
0.221615
0.0225167
0.0284585
0.0210415
0.0241651
0.028979
0.0210301
0.0213367
0.195326
0.0213287
0.427554
0.231176
0.660751
0.234417
0.0202793
0.567448
0.0674217
0.033033
0.019564
0.0263654
0.0227072
0.0202354
0.020695
0.02123
0.02409
2.63654
0.0216847
0.0477336
0.0240301
0.020501
1.52649
0.0301554
0.0217596
0.0238383
0.226156
0.0224811
0.0214207
0.0221708
0.0218886
0.388472
0.507691
0.0219752
0.0210029
0.023109
0.0232588
1.66269
0.0195857
0.0242355
0.0208132
0.0215378
0.0750982
0.0209997
0.119262
0.0652253
0.48963
0.0703902
0.0213587
0.0671645
0.035438
0.0210137
0.048625
0.0198064
0.0214163
0.0197875
0.0211811
0.0199004
0.0219891
3.01195
0.021668
0.0263762
0.426026
1.43585
0.0211838
0.285297
0.0220689
0.0436447
0.0209957
3.45089
0.0222058
1.55123
2.0795
0.0205456
0.0623576
0.0212018
0.0705535
0.0218913
0.288102
0.0256422
0.11917
0.0216357
0.0978812
0.0221028
0.0261491
1.64273
0.0199123
0.0219079
0.0210716
0.37662
0.0202392
0.0197694
0.0727303
0.0231439
0.0380292
0.279064
0.0210845
0.033278
0.0231055
0.0198474
0.0256671
0.333242
0.0210349
0.0218254
0.215305
0.167241
0.0219681
2.76297
0.0200684
0.028221
0.0317073
0.192161
0.139242
0.229775
0.0848591
0.117
0.221074
0.0197558
0.0526825
1.06725
1.04973
0.0464621
0.0211078
0.0207204
0.0419406
2.8751
0.0197862
0.0199079
0.0228133
0.0211558
0.021302
0.0214641
0.0211299
0.0239318
0.229229
0.0219468
0.02843
0.0357066
0.114647
0.0201017
3.20703
0.15462
0.540782
0.0211655
0.0257424
0.0218795
1.36793
0.0213514
0.0354314
0.0216213
0.522103
0.0206076
0.0237656
0.0198949
0.0414325
0.431022
0.02174
0.0207921
0.0211609
0.924656
0.0202985
0.0307922
0.041418
0.0615877
0.0203584
0.0314507
0.215376
0.156726
0.0214051
0.0227291
0.154049
0.966298
0.0370978
0.539758
0.0214988
0.181099
0.0292869
0.0267205
0.0230238
0.428702
0.0203298
0.0210926
0.0215125
0.309136
0.0210816
0.0664204
0.0211565
0.0213898
0.0201523
0.0258932
0.569737
0.0215675
0.0218028
0.602113
0.0359652
0.0371896
0.0215505
0.021207
0.190236
0.141885
0.0213781
0.019961
0.0384262
0.0213003
0.0212967
0.816602
0.020228
1.10197
0.0209848
0.0377498
0.0245206
3.46465
0.021092
0.0262725
0.0214502
0.0203585
0.585809
0.0195578
0.0576276
0.0371289
0.0201314
0.0258172
0.486296
0.098068
0.0344608
0.021289
0.0199557
0.0198019
0.0204873
0.0310792
0.0214825
1.06452
0.0212612
0.0199908
1.31672
0.0239594
0.0358877
0.0222778
0.0207769
1.31654
0.395419
0.0236348
0.428919
0.0213541
0.0269437
0.0200483
0.0201387
0.0211956
0.0211243
0.0214079
0.0213697
3.48294
0.0215816
0.585208
0.0209939
0.022818
0.0198813
0.0405751
0.126628
0.0201423
0.0210164
0.214002
0.0311993
0.0199013
0.608226
0.0210282
0.193221
0.0202701
0.0221635
0.0203466
0.26552
0.019889
0.0208628
0.0210805
0.652437
0.0219299
0.021174
0.0213706
0.0773685
0.0211792
0.0210914
0.0203982
0.0210988
0.0232433
0.0210586
0.0223108
0.0200636
2.04066
0.999255
0.474354
0.0218826
0.0238032
0.0212819
0.519223
0.0220435
0.422879
0.0679611
0.492069
0.203398
0.170403
0.0213554
0.0213514
0.198697
0.0638517
0.0284394
0.0784139
0.0215118
0.365182
0.0208045
0.0214099
0.0201103
0.020289
0.0222002
0.20187
0.0219068
0.0215017
3.10293
0.0212156
0.58086
0.020728
0.021895
0.0272553
0.0213411
0.424473
0.0210279
0.0210848
0.217666
0.0214019
0.0197859
0.0226348
0.0208424
0.0207778
0.481903
1.03696
1.04413
0.0215014
0.0208378
0.0208491
0.361096
0.0222659
0.0212843
0.0203908
0.0206651
0.255289
0.177866
0.0456064
0.0218749
0.0234928
1.98475
0.0268677
0.0252496
0.0387749
0.244952
1.39357
0.311007
0.0207915
0.0213113
0.0210654
0.134879
0.0207786
0.0244865
0.0211128
0.0195653
0.0266674
0.0215217
0.289088
0.9994
0.0198832
0.0210491
0.0197545
0.22719
0.020278
0.222632
0.0226583
0.193938
0.0208362
0.0206987
0.0201476
0.0210812
0.0213224
0.0196713
0.0213614
0.0216377
0.0283627
0.023486
0.438362
0.0213678
0.0502753
0.254526
0.0224445
2.19395
0.0209586
0.0210061
0.0232332
0.0214822
0.429893
0.0211128
0.0217886
0.0201683
1.04489
0.020649
0.101875
0.0343529
0.0208519
0.0744395
0.181925
0.0206664
0.0204086
0.0769802
0.0242445
0.0912603
0.0264378
0.116524
0.0298034
0.0214851
0.0214217
0.0213688
0.0273521
0.0237624
0.271763
0.0969392
0.0195626
0.0206387
0.0219338
0.0315876
0.0242696
0.187466
0.0215774
0.0213996
0.0605298
0.0208376
0.0703219
0.0276017
0.0236425
0.142362
0.0224773
0.020848
0.0216049
0.0334935
0.0209259
1.45778
0.0216077
0.03252
0.0248314
0.943144
0.0214683
0.0257872
0.0223113
0.0216725
0.0329591
0.0200625
0.030574
0.0208982
0.0216231
0.0207832
0.0213189
0.0222735
0.0380757
0.0222532
0.0215005
0.229399
0.0200754
0.0208507
0.0210058
0.0197699
0.0482183
0.0218704
0.0224208
0.0870804
0.229166
0.0213105
0.116487
0.0813266
0.0206485
0.0209628
0.0197534
0.573029
0.252503
0.023637
0.0208597
0.0401312
0.125029
3.08088
0.0218945
0.587646
0.10589
0.451678
0.0221528
0.019704
0.0210643
0.484302
0.310622
0.0215958
3.18522
0.222026
0.138728
0.428591
0.0210947
0.069251
0.0850697
0.0411009
1.03747
0.0271983
3.35223
0.0222879
0.361874
0.0213898
0.063215
0.0223975
0.0281233
0.0196377
0.0214346
0.021038
0.40769
0.0210262
0.0195737
1.37931
0.0213503
0.0260588
0.0220743
0.264275
0.0209092
0.0218685
0.0215269
0.021114
0.0212083
0.0252982
0.0207871
1.0462
0.205296
0.0427025
0.0210572
1.06004
0.0207418
0.0690044
0.226882
0.0254521
0.0212309
0.0198173
0.0211002
0.0221374
0.149142
0.0384231
0.020857
0.670428
0.0208901
0.0215032
0.429092
0.019786
0.0215979
0.51333
0.0208731
0.420543
0.0221591
0.0717528
0.0263475
0.0365938
0.0268025
0.02128
2.21945
2.14153
0.0210049
0.0291119
0.244401
0.783146
0.111429
0.0220158
0.0205015
0.0235308
0.021429
0.0217136
0.226618
0.0237413
0.0197987
0.0343276
0.544808
0.257544
0.0198159
0.0197553
0.0216486
0.0215313
0.176504
0.473567
0.0203085
0.0247857
0.523136
0.0214122
0.0226898
1.77874
0.0225913
0.0233999
0.0210715
0.0213422
0.0214993
0.021623
0.255772
0.0385899
0.0212809
0.340863
0.252756
1.07402
0.0233001
0.0224149
2.12663
0.0377614
0.416679
0.0316218
0.0213403
0.0210145
1.05263
0.0826212
0.0219186
0.0243941
0.04226
0.020957
0.0395696
0.0219419
0.020921
0.0218256
0.0361354
0.0208375
0.021039
3.63669
0.0207362
0.0204833
0.038972
0.025123
0.347536
0.0224146
0.0217779
1.07174
0.0401826
0.0227005
0.0311786
0.31269
0.0209606
0.020117
0.0252503
0.302425
0.020819
0.0214881
0.0209938
0.020437
0.0207804
1.60974
0.0214316
0.497879
0.0213934
0.0343941
0.0202255
0.021603
0.0287323
0.339806
0.102305
0.0212448
0.0228075
0.498918
0.200151
0.0230044
0.0218822
0.312769
0.0209786
0.0259835
0.0375869
0.0207402
0.0224502
0.0210054
0.0361411
0.670626
0.514006
0.0206412
0.0219073
0.025612
0.176877
0.0206723
0.0204219
0.0413141
0.0196534
0.0206172
0.171731
0.0214359
0.497495
0.0202388
0.0204424
0.0201003
0.0316293
0.0216577
0.0212043
0.1607
0.0206336
0.0216039
0.414207
0.0209731
0.0342284
0.0227682
0.498389
0.349052
0.0230675
0.540688
0.0256918
0.0213868
0.426764
0.0218237
0.0208758
0.0198426
0.0209702
0.0242545
1.05853
0.0395663
0.273072
0.430282
0.243953
0.074734
0.342643
0.0231807
0.13622
0.020043
0.0275465
0.0214848
0.0215871
0.0217544
2.03404
0.262938
0.0212452
0.456876
0.0204538
0.100679
0.0212535
0.0227729
0.0222264
0.135144
0.464035
0.0211482
0.0199156
0.162836
0.0971551
0.0289401
0.0247785
0.468495
0.0215892
0.3688
0.313017
0.020763
0.0205875
0.0208527
0.023652
0.0208623
0.0218436
0.0221436
0.0208971
0.0216292
0.0216936
0.0207142
0.205809
0.276915
0.0199022
1.07831
0.022414
0.0426312
0.0422717
0.0936739
0.0207512
0.0540787
0.0414287
0.0201501
0.0403057
0.481802
0.0215699
0.020603
0.0218799
0.292744
0.387351
0.0202668
0.344652
0.0214567
0.0214741
0.160148
0.0207463
0.0205035
0.0204661
0.0206343
0.0215119
0.2193
0.0243661
0.0207713
0.0213223
0.0209291
0.0210819
0.29533
0.0198834
0.0296481
1.34844
0.486944
0.0205759
0.314576
0.0203777
1.12298
0.0221454
0.0405784
0.0200353
0.411556
0.237851
0.585767
0.0213633
0.176464
0.254312
0.402281
0.0216885
0.248713
0.0209099
0.388475
0.301023
0.0266486
0.182967
0.321829
0.266679
3.28689
0.0910648
0.311769
0.020568
0.0220852
0.247371
0.0663175
0.0213075
0.532963
0.0218565
0.0207658
0.0205422
0.0983256
0.0670698
0.0314775
0.161473
0.0268079
0.376278
0.0220315
0.0210108
0.0211106
0.356524
0.220559
0.0265597
0.232687
0.0216326
0.0221073
0.02984
0.237631
0.0375035
0.0207514
0.8805
0.297274
0.0222136
0.0394879
0.0201638
0.0340835
0.043634
0.0206969
0.5003
0.23913
0.0212557
0.0219528
0.0209227
0.360741
0.0225331
0.132085
0.0413537
0.0209459
0.020739
0.0199996
0.0309844
0.0203949
0.0267967
0.0227031
0.0237142
0.0194334
0.0218413
0.0265967
0.315327
0.0222841
0.0324055
0.0221708
0.021375
1.94683
0.230215
0.0218347
0.168748
0.0250758
0.217883
0.0207515
0.020609
0.0283259
0.0226989
0.0378021
0.015646
0.0218374
0.0222901
0.182525
0.0308515
0.0227697
0.245505
0.0988063
0.25322
0.0209342
0.0198587
0.12292
0.0204674
0.331531
0.24278
0.0554081
0.323521
0.0216977
0.0207015
0.1376
0.243269
0.0208742
0.142206
0.02405
0.0210739
0.0752104
0.0219767
0.0215418
0.0421735
0.0229755
0.0204713
0.022772
0.0209969
0.0225978
0.385271
0.0314689
0.414373
0.0212853
0.0263451
0.0208579
0.0212656
0.243181
0.0214571
0.36426
0.347254
0.0218104
0.539714
0.0349084
0.225786
0.0197691
0.365023
0.105138
0.110732
0.0225901
0.0218235
0.0206862
1.31792
0.0227301
0.087646
0.0361339
0.0202938
0.187673
0.0197331
3.08226
0.020992
0.765957
0.021034
0.020528
0.0201351
0.314222
0.0208
0.020223
0.0200533
0.020833
0.0213557
0.038939
0.27686
0.0202588
0.0249733
0.0215638
0.0209761
0.0207072
0.203857
3.2224
0.0248522
0.0213196
0.0207161
0.0200987
0.0233032
0.0243228
0.0200989
0.303246
1.7385
0.165325
0.0201823
0.0208255
0.0213216
0.0225767
0.0205826
0.0217554
0.0213306
0.0207379
0.0302718
0.0223615
0.0351279
0.31455
1.9806
0.0213671
0.0209704
0.0209467
2.18983
0.0209498
0.0269229
0.0243395
0.0204166
0.0212874
0.0210495
0.964785
0.0213461
0.537995
0.226417
0.0574157
0.021272
0.0246311
0.256485
0.0229849
0.032847
0.0227729
0.038518
0.0203709
0.0251439
1.28355
0.321097
0.0206049
0.0214455
1.33975
0.0240182
0.0537904
0.0243731
0.241017
0.0212512
0.0247428
0.171685
1.3196
0.0568691
0.02029
0.0209279
0.0203592
0.0215139
0.0636349
0.296987
0.511793
0.0205731
0.842254
0.0227361
0.726004
0.404283
0.0210277
0.257213
0.124408
0.0206644
0.0391922
0.0295927
0.0216166
0.347069
0.0208138
3.12752
0.0263818
2.90785
0.147768
0.0431539
0.0213101
0.0252654
0.0217411
0.0208421
0.0202238
0.0201386
0.144548
0.0217716
0.0327195
0.402411
2.01558
0.0325386
0.0302139
0.0204539
2.86496
0.019754
0.375045
0.19618
2.0072
0.151452
0.26485
1.39954
0.0200469
0.0215422
0.0201416
0.0580143
0.0221731
0.279438
0.0240856
2.18596
0.0255386
0.0202603
0.020146
0.0214721
0.0200529
0.242684
0.148691
2.7397
0.020635
0.0243116
0.0229384
0.022604
0.0793996
0.0214194
0.3004
0.329645
0.0216928
0.0215974
0.386586
0.0256258
0.0868175
0.28742
0.0215813
0.30408
0.0223507
3.37604
0.0209583
0.0886952
0.0209588
0.234043
0.0351116
0.359307
0.229165
1.75964
0.104747
0.0417797
0.0209066
0.0210002
0.345288
0.249818
0.0864688
0.0263791
3.7111
0.053544
0.235749
0.0395558
1.00884
0.0247253
0.0315452
0.0793216
0.0218936
0.0242104
0.0240747
0.0198042
0.0204311
0.0209306
0.021266
0.207673
0.0218288
0.251136
0.0780506
0.103177
0.26616
0.368795
0.0200939
0.021654
0.396709
0.0858442
0.0272582
0.248928
2.9108
0.381888
0.0207697
0.0303099
0.0230048
0.0721081
0.0588826
0.261201
0.238975
0.0611552
0.0214934
0.0222324
0.575682
0.0675309
0.0514875
0.347939
0.0209623
0.0243685
0.0224614
0.955496
0.0227092
0.0203084
0.0208992
0.0223235
1.16276
0.233078
0.0216092
0.0612835
0.357101
0.0221983
0.0912353
0.0243787
0.0284824
0.0242611
0.0295788
0.124573
0.0210867
0.0206728
0.0217294
0.0957492
0.0811153
0.0310798
0.0218733
0.0222795
0.0215711
1.09359
0.0309112
0.0226578
0.0215384
0.330305
0.0227803
0.231001
0.022093
0.0274408
0.0210008
0.12121
0.0316343
0.0569772
0.44133
0.0204336
0.0239983
0.29021
0.0227733
0.271089
0.134729
0.0215044
0.0223874
0.173119
0.0213089
1.12504
0.0214947
0.307674
0.367354
0.0740726
0.0223931
0.0209817
0.0211425
0.0212635
0.0234111
0.0198063
0.021614
0.0209615
0.0206499
0.0226651
0.0221989
0.0216282
0.0220936
0.152357
0.0214758
0.91955
0.0217879
0.0214784
0.173009
0.0210761
1.75595
0.341738
0.0214454
0.0217665
0.0388843
0.238603
0.0241606
0.289866
0.0269215
0.0221556
1.28072
0.0205773
3.88237
0.0214735
0.325202
0.0198837
2.48749
3.07906
0.332194
0.0216547
0.0225977
0.0207639
0.0227618
0.221272
0.0208111
0.0213199
0.044401
0.0242322
1.06279
0.175405
0.0218088
0.0342159
0.0214288
0.0263236
0.0220098
0.0213346
0.0218021
0.187271
2.97462
0.0690499
0.0224537
0.0217662
0.0221937
0.102261
1.91731
0.0488044
0.885581
0.241089
0.0223521
0.0229042
0.0877159
0.0207534
0.0227262
0.0248703
0.0222147
0.267224
0.0223649
0.324521
0.0204999
0.0217024
0.0888418
0.0224884
0.0230963
0.0225242
0.0245272
0.339107
0.0222393
0.0218387
0.0215506
2.92851
0.0721458
0.0231657
0.021684
0.0206871
0.0219063
0.0212279
0.105004
0.0209094
0.0207578
0.0214734
0.0228497
0.0305362
0.021551
0.361982
0.0217484
0.0217852
1.32159
0.0225018
0.0231194
0.292462
0.0216452
0.965117
0.0207576
0.020694
0.0218209
0.0243292
0.0204163
0.216526
0.0217867
0.021022
0.886603
0.234185
2.71747
0.244812
0.250568
0.0240789
0.0205435
0.0223239
0.262224
0.0262841
0.0623322
0.0218923
0.0325116
0.0238092
0.0458761
0.0206684
1.59225
0.219593
0.0209582
0.0239668
0.0215934
0.0219749
0.192427
0.103485
0.0214563
0.0207261
0.0200364
0.356269
0.0215849
0.0887828
0.0355347
0.021551
0.0209419
0.0210261
1.50226
0.0407785
0.0208769
0.940518
0.0675973
0.0217174
0.309094
0.0215177
0.0205516
0.0206684
0.0214383
0.0200665
0.0213117
0.0215531
0.0220656
0.0214874
0.0819341
0.0222878
0.489641
0.02869
0.0212403
1.24819
0.0200115
0.0205971
0.048507
0.0209346
0.214288
0.0210371
0.0710336
3.58383
0.0206185
0.117686
0.277269
0.0214004
0.021823
0.0212524
1.32453
0.0214868
0.375872
0.276892
0.0216688
0.0258013
0.036573
0.531071
0.0211681
0.215932
0.021558
0.0361362
0.135425
0.0399118
0.257335
0.0210912
0.087742
0.0631214
0.100977
0.0214442
0.0605229
0.0221974
0.0507862
0.0204013
0.0227489
0.256135
0.0253824
0.140251
0.037797
0.0242723
0.258687
0.0205438
0.0302659
0.0214839
0.0249495
0.121323
0.263012
1.58013
0.0356168
0.0245522
0.674552
0.0243714
0.0209768
0.0203453
0.0216815
0.0224055
0.0242761
0.0210565
1.21139
0.0257389
0.0210086
0.0200269
0.0213055
0.021257
0.0768971
0.0206594
0.144473
0.0224864
0.983823
0.0216101
0.0214445
0.0196846
0.0747131
0.0213857
0.179511
0.243347
0.240354
0.0236276
0.0218382
0.0214009
0.0209274
0.0207654
0.233714
0.0217451
0.0216585
0.667507
0.0213645
0.0219162
0.264526
1.31854
1.20164
0.0213164
0.47686
0.800006
0.0210161
0.020627
0.0294413
0.937747
0.11859
0.228868
0.105581
0.0212743
0.0206971
0.170077
0.0251599
0.0216058
0.0258728
0.0215605
0.0226219
0.278091
0.893908
0.0268509
0.0257293
0.0241383
0.0288712
1.06021
0.0214568
0.0209121
0.0214003
0.153415
0.0208763
0.0239604
0.938569
0.316319
0.020429
0.0207858
0.0196985
0.0214501
0.0211681
0.0342475
0.0542619
0.0219379
0.123505
0.332828
1.59377
0.0242979
0.021887
0.0213914
0.0211779
0.0207135
0.0199722
0.0214376
0.98363
1.053
0.0204729
0.0205519
0.0216619
0.0216076
1.29804
0.0344716
0.902903
0.343597
0.0334171
0.0606139
0.0212871
0.0211086
0.021217
0.021556
0.323124
0.0212523
0.0236977
1.00699
1.01736
0.234199
0.360473
0.143396
0.272571
0.0213352
0.0305277
1.00628
0.160855
0.0213614
0.0215536
0.0206097
0.0213745
0.0214042
1.28242
0.0210474
0.02098
0.263282
0.0234882
0.718741
0.0212449
0.0206207
0.030951
1.10474
0.0375331
0.275353
0.0232771
1.23819
0.0352689
0.020971
0.779663
0.0210726
0.0232647
0.0214695
0.0205361
4.03581
0.673619
0.610913
0.0897545
0.356352
0.291495
0.181048
0.0207637
0.0216042
1.32185
0.0213205
0.0215297
0.0225583
0.0213312
0.88847
0.0214794
0.750197
0.0358753
0.020037
0.969772
0.0214465
0.0211392
0.0239017
0.0238263
0.0240614
0.0243487
0.0243674
0.390668
0.021554
0.021256
0.020339
0.0412951
0.0381512
0.0209079
0.0218727
0.031679
0.544119
0.0210277
0.0243861
0.0243712
0.0201907
0.0212906
0.0210074
0.928679
0.165786
0.024306
0.0220902
0.0213817
0.0288183
0.446503
0.0215019
0.336402
0.802289
0.0214719
0.0291249
0.201577
0.217707
0.0325064
0.0201527
0.0206787
1.0924
0.0436923
0.505645
0.0243943
0.468803
0.0301555
0.486508
0.082174
0.769303
0.0355878
1.06852
0.228398
0.22035
0.0217951
0.232948
0.0213457
1.02263
0.0222865
0.0218282
0.0241991
1.20268
0.279976
0.0221946
0.0214519
0.181325
0.970797
0.498683
0.0207414
0.0208867
0.0212596
0.0235691
0.021424
0.0392516
0.810706
0.279019
0.0232678
0.0206686
0.0953072
0.0215392
0.0213371
0.306164
0.021315
0.0228929
0.0200039
0.191363
0.0562065
0.229158
0.0215631
0.141416
0.705973
0.0328439
0.116967
2.58202
0.821435
1.06262
0.0210181
0.0214163
0.0726266
0.0213767
0.0216065
0.0210711
0.0216713
0.0277543
0.0255435
0.0209961
0.488662
0.0208465
0.238225
0.021985
1.01078
1.1687
0.0269652
0.202043
1.0652
0.0369823
0.9195
2.84306
0.0216383
0.0214897
0.0313397
0.0275416
0.787982
0.0209837
0.02164
0.904951
0.0213392
0.0207093
0.0217718
0.019987
0.232945
0.0214609
0.0298903
0.0215197
1.23181
0.0212363
2.70372
0.279084
0.448824
0.935973
0.0200601
0.0241074
0.0216107
0.0212672
0.224557
0.0819291
0.0590361
0.269649
0.0199275
0.0222501
0.0229839
0.0213795
0.317381
0.0209268
0.0276102
0.367094
0.276781
0.0447303
0.0212354
0.0216678
1.05521
0.0262286
0.0306375
0.520439
0.264007
0.926497
0.0217439
0.0208448
0.0209127
0.0216759
0.209589
0.0222202
0.0334048
0.0214091
0.0215591
0.296414
0.0200887
0.31198
0.0241516
0.0215091
0.024217
1.16851
0.0207021
0.022134
1.01095
0.0213816
0.0214154
0.0414456
3.3164
0.0233724
0.0288413
0.0204233
1.11642
0.320215
0.0668517
0.0213979
0.0207022
0.0284552
0.0214604
0.508586
0.186703
0.239147
0.808389
0.0212361
0.0286412
0.0209807
0.299495
0.0213688
0.329678
0.291015
0.0213446
0.159238
0.0213083
0.618592
0.0368951
0.0204031
0.0327655
0.0207463
0.020922
0.0205579
0.0198657
0.0311133
0.755109
0.0214341
0.0205897
0.0955232
0.0201123
0.0217753
0.0219179
0.0211586
0.0213489
0.126746
0.0317342
0.0199067
0.0222676
0.0220278
0.0213072
0.961274
0.351175
0.0213363
0.0209385
0.0215761
0.0317704
0.0214957
0.0218107
0.0219767
0.0531299
0.0199231
0.0221168
0.286147
0.0214768
0.0807814
0.0212481
0.0213919
0.0210183
0.0211392
0.0206199
0.021274
1.43998
0.246275
0.0206075
0.0218472
0.0228306
0.0387818
0.0273474
0.0447843
0.0212306
0.0217515
0.0363404
0.0224416
0.273419
0.0542707
0.0210612
0.0209349
2.21125
0.0217905
1.05545
0.0925722
0.021053
0.134599
0.5086
0.267873
0.0558616
0.0409072
0.0271719
0.0209935
0.507786
0.02141
0.0236948
0.0316512
0.0200113
0.0213303
1.32758
0.0207367
0.112386
0.264557
0.0217546
0.0213465
2.27257
0.0212406
0.0484122
0.0203873
0.0682527
0.933213
0.249553
0.0212589
0.0208388
0.0218366
0.213777
0.0456939
0.261181
0.788683
0.0264176
0.0212717
0.0530917
0.268367
0.021397
0.0200194
0.0241306
0.0210311
1.59763
0.0541658
0.0203751
0.524708
0.0208248
0.0207309
0.0203759
0.0212331
0.0213384
1.32044
0.0211295
0.121248
0.0207559
0.0217211
0.0216736
0.0216916
0.0211513
0.0212443
0.0300718
0.0206115
0.069823
0.200166
0.0441064
0.0243359
0.0475135
0.0293283
0.0211654
0.0200935
0.0212699
0.0201457
0.363678
0.144173
0.0223174
0.0221744
0.805941
0.0220104
0.330665
0.0214508
0.0210303
0.0214886
0.0413549
0.0466028
1.18673
2.20606
0.0243526
0.0429792
0.0439118
0.0212982
0.0210731
0.0207282
0.0272054
0.0281244
1.0553
2.41644
0.0292453
0.020913
0.0314324
0.0211693
0.0414178
0.0210178
0.0353281
0.0218944
0.271483
0.0341334
0.0217612
0.0243813
0.0409633
0.028174
0.746499
0.0210431
0.0206856
0.0213208
0.0212468
0.50854
0.0205192
0.021613
0.0268062
0.0199077
0.951542
0.951183
0.0355616
0.021373
0.0215011
0.42378
0.109149
0.021052
0.0212857
1.28448
0.0213042
0.0212859
0.314379
0.0243141
0.0559314
0.283037
0.326855
0.0306781
0.0209617
0.021392
0.026553
0.0210442
0.0209313
0.0697995
1.25954
0.0208413
0.0210516
0.0209266
0.0219368
2.00586
0.0210448
0.0219862
0.0214002
0.020389
0.0209784
0.039481
0.0224481
0.0209068
0.0200575
0.021735
0.0207016
0.0298666
0.329581
0.0318828
0.0207217
0.021126
0.0213421
0.0210016
0.218209
0.021394
0.254843
0.444895
0.0210558
0.0206287
0.329269
0.0206843
0.0207534
0.0209462
0.161088
0.0240138
0.0381513
0.0209541
0.0198891
0.0213296
0.29029
0.0210599
0.0215459
0.0346506
0.296628
0.029905
0.019952
0.262103
0.019573
0.504858
0.0209486
0.020045
0.020642
0.0215314
0.0212115
0.958825
0.0941977
0.22431
0.0650854
0.026603
1.51569
0.0213308
0.648256
0.202501
0.0218832
0.3646
0.0426346
0.0554176
0.0212086
0.207324
0.0215905
0.0206637
0.0208259
0.0931697
0.380265
0.02443
0.578086
2.03904
0.0434498
0.0213254
0.0228042
0.0398148
0.216234
0.113494
0.0244918
0.0214591
0.0375576
0.481273
0.0208285
1.0359
0.0219514
0.0603789
0.0205973
0.0204369
0.0258756
0.0252067
0.550455
0.368588
0.0293688
0.0209353
0.0210244
0.0829169
0.215067
0.952953
0.0208212
0.0223664
0.0207068
0.0209918
0.0210246
0.3304
0.0455929
0.0337465
0.0373233
0.427073
0.0670455
0.0208882
0.0214619
0.0207473
0.0205573
0.0280171
0.021064
0.0213911
0.0212797
0.0209078
0.0245449
0.394549
0.0286467
0.0207598
0.020973
1.01227
0.0275103
0.0228436
0.0264624
0.259587
0.252899
0.0209483
0.0251441
0.291446
0.0208014
0.0960475
0.0209716
0.0209009
0.0208009
0.65757
0.0209244
0.020721
0.0216524
0.0216086
0.0208427
0.0207476
1.66074
0.651024
0.614653
0.0217317
0.0208085
0.531616
0.0212107
0.0205333
0.0207776
0.477992
0.0213219
1.03262
0.0201007
0.0207189
0.0391644
0.0391317
0.0207474
0.0402099
0.796177
0.513755
0.0208499
0.0197446
0.0208047
0.410002
0.0217895
0.0243483
0.221776
0.021018
0.020412
0.021804
0.0208457
1.07869
0.020913
0.021312
0.0209698
0.0270261
0.272818
0.0213171
0.0206963
0.0214568
0.208242
0.0799583
0.234383
0.0238869
0.477901
0.0205946
0.0209404
0.299668
0.716932
0.0212711
0.0209604
0.503211
0.0342762
0.0208915
0.0207771
0.020756
0.0209511
0.0209539
0.25691
0.0216036
0.024175
0.271473
0.0755906
0.0211717
0.0283872
0.0259066
0.148225
0.0237121
0.0262778
0.0212901
0.0745992
0.0211973
0.029747
0.244349
0.0212493
0.0773788
0.252163
0.0209927
0.0221501
0.495939
0.189978
0.0220173
0.0207331
0.0204995
0.0808908
0.0208912
0.0207368
0.0260922
0.0232923
0.0209588
0.164154
0.40512
0.0206378
0.0236904
0.022068
0.020776
0.0205133
0.020926
0.020467
0.177178
0.0218676
0.0227447
0.0207195
0.0199822
0.0207212
0.0208643
0.0224084
0.0271767
0.0233418
0.507628
0.0209713
0.0208995
0.0245719
0.0207565
0.0199631
0.0222878
0.33243
0.0208123
0.359364
0.0249078
0.487185
0.0202297
0.512151
0.333058
0.185125
0.0204129
0.0209783
0.482902
0.0209715
0.329623
0.0210643
0.0251703
0.0226243
0.0210204
0.228007
0.471582
0.244562
0.28524
0.0259969
0.0207212
0.0208207
0.919518
0.0205325
0.0208849
0.0214303
0.0200316
0.0214625
0.0204494
0.261137
0.020678
0.02026
0.0214663
0.0216361
0.0377711
0.0260561
0.022003
0.0207183
0.0205243
1.0682
0.0256867
0.0196946
0.169005
0.0310026
0.0258582
0.0257256
0.0271926
0.0203932
0.0207454
0.14888
0.475968
0.0339088
0.0209694
0.0206068
0.484973
0.272534
0.0242233
0.0208628
0.0243895
0.0206898
0.021716
0.0222592
0.0235821
0.0198765
0.0207859
0.0204236
0.0207822
0.020701
0.0225348
0.0206476
0.0658347
0.175947
0.020603
0.0207977
0.019945
0.0209891
0.0213899
0.020935
0.503413
0.314568
0.0208693
0.0219055
0.308126
0.0211318
0.461621
0.238283
0.264666
0.0206438
0.483681
0.0281357
0.465886
0.0235446
0.0207046
0.41297
0.207128
0.352886
0.0218448
0.020363
0.277916
0.516976
0.0206167
0.0206858
0.0207315
0.0236668
0.0263865
0.0214593
0.020705
0.0205788
0.349752
0.343052
0.0406509
0.0209296
2.38282
0.095809
0.0205245
0.0364282
0.0210077
0.0208341
0.0208226
0.464696
0.0208141
0.0430991
0.0207656
0.0206833
0.0208042
0.0204992
0.0210098
0.0259551
0.0199522
0.0206238
0.0470252
0.0206
0.0216785
0.020557
0.0202524
1.50056
0.169627
0.0208205
0.443332
0.0208922
0.0206034
0.0299487
0.0230638
0.528828
0.0199115
0.020543
0.0214104
0.0206907
0.156009
0.0205144
0.0207902
0.0273392
0.0196519
0.02104
0.0209426
0.0208216
0.0562104
0.0210405
0.282193
0.274064
0.0613849
0.681912
0.0199805
0.0205603
0.109778
0.0207602
0.519668
0.019957
0.0632641
0.0972227
0.020097
0.0205237
0.0212474
0.271395
0.020858
0.0209018
0.0464914
0.119767
0.541785
0.0230014
0.156675
0.0196657
0.1724
0.174308
0.292353
0.267677
0.0505267
0.271518
0.0206274
0.0207923
0.0289535
0.314527
0.0211871
0.020708
0.0209141
0.407528
0.0201094
0.0201141
0.0465972
0.0205723
0.452159
0.0208147
0.36774
0.0373012
0.0226649
0.0212282
0.0207922
0.0208875
0.0338354
1.35975
0.0386525
0.0606954
0.405213
0.280949
0.0211029
0.0237056
0.322699
0.0214664
0.0205847
0.41673
0.0284913
0.189495
0.412123
0.386195
0.0281294
0.0213389
0.0209748
0.0222801
0.319829
0.348074
0.195335
0.0197098
0.0213166
0.0221248
0.0228549
0.385177
0.02062
0.0237348
0.473304
0.0216708
0.0229798
1.4425
0.0413737
0.11213
0.0223248
0.0207719
0.042989
0.0210161
0.0196782
0.410683
0.021321
0.0202369
0.307836
0.0201636
0.0205394
0.414699
0.837502
0.256382
0.0202382
0.405776
0.0204774
0.416571
0.304633
0.0267333
0.0209419
0.376062
0.0264246
0.109442
0.0203887
0.0204574
0.037244
1.31909
0.0819565
0.0207424
0.0208071
0.0203684
0.0206705
0.0335007
0.0208827
0.0292983
0.0225977
0.337659
0.0203016
0.343084
0.0211111
0.020389
0.0207072
0.301792
0.263135
0.019653
0.0199509
0.020412
0.0205857
0.260929
0.0205395
0.0252906
0.0234835
0.0368776
0.321143
0.386855
0.730361
0.273934
0.0299453
0.0278275
3.41374
0.0645793
0.534761
0.0272538
0.339224
0.0205764
0.0317252
0.309145
0.0205162
0.420631
0.28234
0.11242
0.318649
0.0205066
0.232968
0.533604
0.18254
0.0214956
0.0206624
0.0981294
0.0478612
0.301855
0.0207532
0.283253
0.0210548
0.252395
0.510473
0.404395
0.0207358
0.0219961
0.348323
0.326295
0.0203994
0.949982
0.0973218
0.266109
0.0210667
1.32319
0.0204829
0.58306
0.31092
0.196492
0.538115
0.274527
0.0249562
0.435635
0.0232978
0.0300242
0.0213228
0.259228
0.0213616
0.0206499
0.0284613
2.81468
0.0213313
0.298423
0.208497
0.165442
0.0546611
0.345924
0.0201647
0.254392
0.0252184
0.0357946
0.0206769
0.0214264
0.0214299
0.333158
0.0203987
0.334436
0.326839
0.0308187
0.0217153
0.0222869
0.0198553
0.0262685
0.0204221
0.020069
0.364195
0.804928
0.0349233
0.540472
0.0206483
0.0212769
0.0205922
0.0257057
0.0212242
0.0206185
0.0634151
0.0226693
0.0213259
0.0199141
0.0206016
0.023736
0.111436
0.0213904
0.244454
0.0206795
0.0207129
0.0363102
0.0252804
0.0214319