/*--------------------------------*- C++ -*----------------------------------*\
| =========                 |                                                 |
| \\      /  F ield         | OpenFOAM: The Open Source CFD Toolbox           |
|  \\    /   O peration     | Version:  v2012                                 |
|   \\  /    A nd           | Website:  www.openfoam.com                      |
|    \\/     M anipulation  |                                                 |
\*---------------------------------------------------------------------------*/
FoamFile
{
    version     2.0;
    format      ascii;
    class       volScalarField;
    location    "250";
    object      ddt0(k);
}
// * * * * * * * * * * * * * * * * * * * * * * * * * * * * * * * * * * * * * //

dimensions      [0 2 -3 0 0 0 0];


internalField   nonuniform List<scalar> 
10042
(
3.84922e-08
2.81037e-08
5.01186e-08
2.60137e-07
-0.00453668
-6.41346e-09
-0.00711959
-0.0104254
-1.42146e-08
1.55985e-08
0.000852946
2.56207e-07
9.93989e-09
6.73688e-08
-7.64396e-10
-7.28258e-08
-6.73557e-08
1.05256e-08
3.05988e-08
-2.94372e-07
-5.23352e-08
-1.45927e-05
1.35742e-07
1.11759e-07
3.33622e-08
-6.45262e-07
-3.14724e-08
1.31719e-08
1.52322e-08
3.51834e-08
-8.692e-09
0.000109793
4.10318e-08
-1.8243e-08
-2.86904e-07
1.20294e-07
-5.65304e-07
-1.05815e-06
6.00496e-08
-1.00064e-07
-1.23583e-07
2.31064e-08
-0.00560331
1.18138e-07
-0.00485191
-9.60958e-07
8.78792e-08
-1.35241e-06
-4.37773e-07
-2.30535e-06
-8.22542e-09
4.10279e-08
5.05457e-08
-1.28025e-07
-5.77104e-07
-2.93459e-08
5.5318e-09
9.67345e-08
-9.78765e-09
8.7586e-08
-8.1674e-09
-4.11078e-08
-2.90481e-07
5.38195e-08
2.51682e-08
-1.9034e-08
6.19747e-08
-8.88836e-07
0.00301829
9.41945e-08
-1.21954e-07
9.97098e-07
1.33858e-07
-1.40029e-08
8.46063e-08
1.60647e-07
-0.00277843
2.11451e-08
-1.61262e-08
-0.00393362
-4.59217e-07
-0.010935
1.05544e-07
1.45953e-08
8.17491e-08
9.76275e-09
9.89562e-08
-2.70396e-07
1.37003e-07
5.60838e-08
-6.21472e-08
-0.010425
4.23874e-09
4.00285e-08
4.90088e-08
3.73552e-08
-1.49529e-08
6.87374e-08
-1.1478e-07
-1.51015e-09
3.23502e-11
-3.68942e-07
-0.0300209
2.83348e-08
3.17865e-08
-2.30105e-07
8.2963e-08
-3.00818e-09
-4.43418e-08
5.25664e-08
-1.08695e-08
7.20046e-08
-1.61842e-07
0.00280236
2.96106e-08
7.46186e-08
1.71471e-08
2.61113e-08
3.0972e-08
0.00246428
1.48672e-07
-0.0126204
9.18078e-08
3.06575e-09
-3.51919e-07
8.33105e-08
0.00209134
-3.84421e-07
-1.05914e-07
4.83557e-08
-2.22044e-08
7.7156e-08
0.00110775
-2.35209e-07
7.81193e-09
-2.73035e-07
0.00118494
-3.02415e-08
-6.58118e-07
-1.88085e-07
4.86835e-08
2.54103e-08
7.34294e-08
-3.44485e-07
8.07944e-08
8.07142e-08
-2.6858e-07
6.99194e-08
4.71735e-08
-1.22184e-07
6.69284e-12
1.72061e-09
0.00217504
0.00246335
-7.90207e-08
3.71738e-08
2.95986e-08
-4.1225e-08
-2.87001e-07
0.000484658
0.00101642
-4.53359e-07
9.52811e-09
-6.94243e-10
9.7147e-08
7.57224e-08
-1.19597e-07
0.000826844
0.0001979
0.00326612
-8.70764e-08
1.11261e-07
-0.017225
6.19694e-07
-5.80972e-08
-0.00481042
0.00165385
1.14461e-07
1.98324e-07
-2.9196e-07
2.62138e-08
0.000138117
1.05079e-07
-3.65698e-07
3.68703e-08
0.00279559
-1.96294e-06
3.51879e-09
0.00162975
-2.5778e-07
0.000103367
7.72968e-08
0.00194773
-0.00369704
-3.67491e-07
-0.0330113
-4.03265e-07
6.16962e-08
3.82989e-08
-1.06276e-07
-3.91306e-08
-9.48994e-09
1.07604e-07
-7.10448e-06
6.10787e-08
4.98628e-08
2.87916e-05
-8.73653e-08
2.08109e-08
1.1098e-07
0.00220933
1.02765e-07
-1.14726e-07
3.8343e-06
3.65302e-08
-9.63721e-08
9.78659e-08
4.32106e-08
-2.87905e-07
8.54223e-08
-1.77876e-07
3.48319e-08
1.66773e-06
-1.15206e-06
1.44477e-08
-7.24565e-07
-0.000225619
7.12969e-08
-5.74254e-07
-1.31414e-07
-9.58333e-09
9.94816e-07
1.10913e-07
-1.19913e-07
6.83988e-08
-1.48387e-07
2.33153e-08
5.38893e-08
-2.45091e-07
-6.25048e-07
-1.65222e-08
1.0851e-07
9.23298e-08
-1.46492e-07
3.8302e-08
1.12421e-08
7.48853e-08
2.37169e-08
-6.25701e-08
7.32343e-09
6.21659e-09
9.07264e-08
-1.93588e-08
-1.93087e-05
-4.70469e-07
0.00149779
-6.6369e-08
-6.1091e-08
-5.52111e-09
-8.23333e-07
-0.0105323
-2.18117e-07
7.9487e-08
5.80872e-08
-1.04166e-07
4.25959e-08
-0.00117107
-2.08408e-07
6.90335e-08
1.31033e-07
-5.18821e-08
-9.15897e-08
-2.12713e-06
-6.74217e-08
-2.93025e-07
-2.53723e-07
-6.09385e-07
5.52931e-08
-3.78075e-07
7.80309e-08
-2.63511e-07
1.34937e-07
-6.40036e-07
0.00150678
1.04586e-07
3.1172e-08
-0.0120722
-8.27736e-07
5.08477e-08
1.71688e-08
-2.08148e-08
-0.00427188
-3.10026e-07
-3.8238e-07
1.85976e-09
4.62919e-08
7.5117e-08
-1.42799e-08
0.000391877
8.15948e-08
-4.4203e-08
7.43766e-08
8.93779e-08
-1.23799e-06
-2.96366e-09
-2.95653e-07
-0.00402493
1.01266e-07
-0.0185835
-1.57614e-09
-3.85739e-07
-3.08061e-08
0.000481889
-3.14609e-07
0.000236924
0.000901839
1.08323e-07
-2.02728e-07
8.9735e-08
-3.04886e-09
-7.19164e-07
-4.16414e-10
-2.28897e-07
-2.25164e-08
6.4082e-08
1.05262e-07
-2.64535e-07
-2.17736e-08
-1.7518e-07
9.70032e-08
2.27861e-09
0.00238146
3.82295e-08
-7.92083e-08
1.67156e-08
5.97824e-08
-1.68159e-07
-2.26831e-07
-7.81156e-08
-0.00205579
-1.24414e-06
-3.39389e-07
9.51977e-08
5.96112e-08
-1.02206e-07
1.29406e-08
-0.000154312
1.29509e-07
-2.66893e-08
-3.13705e-06
1.00022e-07
-2.21359e-08
1.90953e-08
1.68239e-06
4.22077e-08
1.58821e-08
-1.60704e-07
-2.17602e-07
-1.04457e-07
3.63143e-08
-0.0105281
-2.6136e-07
-7.68836e-08
-1.98809e-07
6.53554e-08
7.71329e-08
4.41801e-08
-6.13608e-08
-9.38472e-06
-3.80731e-07
1.65217e-08
7.04353e-08
5.08063e-11
-2.20579e-08
1.18917e-06
4.18994e-08
-6.82327e-09
0.00145083
6.67018e-08
-0.028004
-0.000299049
-2.06996e-08
-0.00116931
0.00146966
-1.04363e-07
-1.31244e-06
-6.81503e-08
-2.12849e-06
4.94416e-10
9.16637e-08
-0.0116543
-1.20793e-08
-2.21642e-08
9.5626e-05
1.833e-07
-9.54517e-08
-4.32655e-08
-5.52164e-05
-3.82413e-08
7.5038e-08
0.000181792
-3.66106e-07
1.49062e-07
1.17082e-07
0.000524994
6.92308e-08
1.80825e-08
7.05269e-08
4.07121e-08
4.06857e-08
1.16193e-07
-0.0186816
-0.0256368
8.98556e-08
-0.00825043
2.90742e-08
7.41189e-08
-3.89385e-06
2.40489e-08
-0.0279931
-2.79268e-07
1.92325e-08
9.62173e-08
1.00134e-07
-4.02395e-07
-7.43632e-08
-1.13347e-07
5.34127e-08
0.00105039
3.98648e-08
-0.000242382
1.20678e-08
4.27092e-08
7.61469e-08
-1.98795e-05
3.00107e-08
1.14201e-10
9.28971e-08
1.98966e-08
0.000215648
-4.46148e-07
-8.12064e-09
-3.20971e-08
0.000428068
3.47997e-08
-4.32765e-07
-1.2033e-07
4.40137e-08
-0.0150148
-0.0016113
-1.30222e-08
3.84609e-08
-3.9371e-07
-8.05366e-09
-8.62332e-08
5.14711e-09
0.000595814
1.20444e-08
9.95282e-08
-9.77696e-08
-0.0150125
-2.3345e-07
1.69226e-08
-2.78435e-07
-5.41559e-05
-1.38356e-06
5.87558e-09
3.11739e-08
-9.95805e-07
-5.29316e-08
1.11409e-08
-6.687e-09
-9.75427e-09
1.43406e-07
3.58223e-08
3.21293e-08
-8.38717e-08
8.99826e-08
2.5415e-08
0.000660706
1.02225e-07
-4.60786e-08
5.55532e-09
8.17411e-08
-2.34345e-07
-2.64947e-08
2.18843e-08
2.50609e-05
1.93852e-08
-0.000773053
-2.1295e-07
5.11266e-09
-1.40842e-09
-3.69686e-07
1.64635e-07
8.66823e-09
-2.5981e-08
-1.31224e-07
-5.7684e-08
-0.00674156
5.36217e-08
-9.12791e-08
-8.29547e-06
-1.36811e-06
2.05424e-08
-5.84528e-09
5.19795e-08
1.62507e-08
9.51393e-09
0.000494463
0.000879896
-1.06918e-08
-3.92522e-07
-8.38567e-07
-7.88958e-07
6.15838e-08
2.67176e-08
-0.00206701
-4.72151e-09
-3.50785e-05
6.09365e-08
3.18596e-08
6.09962e-08
9.00117e-08
0.00280676
-2.72215e-07
-1.33029e-07
-4.15839e-10
-7.24024e-08
9.24384e-08
-0.00516328
-4.47217e-07
1.0738e-08
0.000366843
1.82267e-05
1.81815e-05
-2.6121e-07
-8.37347e-08
1.50137e-08
-3.2029e-06
-2.32795e-07
0.0023968
0.00285004
1.45155e-08
-7.07316e-10
1.59602e-08
-2.09831e-07
8.27483e-08
2.0998e-08
0.00103832
9.87601e-08
-2.21117e-09
-1.14958e-06
-8.83931e-09
-0.00114741
-1.7768e-07
1.9292e-07
-1.82165e-07
-1.90031e-08
-2.4135e-07
-2.9594e-07
-2.01644e-06
-2.37553e-07
-1.35239e-07
6.96051e-08
-2.24787e-06
-6.40217e-08
5.65713e-08
4.73601e-08
-7.90318e-08
-7.07347e-09
1.42369e-08
-2.5414e-07
-3.46734e-08
2.95857e-08
7.84195e-09
-1.39788e-08
5.14329e-08
-1.07886e-06
-2.08593e-08
-1.20041e-07
4.89093e-06
2.10979e-08
-2.22537e-07
-3.86987e-06
6.4317e-09
0.00234064
-8.49809e-07
-4.94741e-08
-2.16378e-06
4.34009e-08
2.22431e-08
7.63133e-08
-2.80831e-08
2.41854e-10
-2.22825e-07
8.42615e-08
-2.36125e-05
3.35408e-08
-2.79027e-08
-4.61821e-08
-2.36759e-07
-7.10613e-07
-9.56522e-09
-4.00353e-07
1.58528e-08
-1.08198e-06
5.4489e-08
-1.24681e-07
-1.59604e-08
1.8626e-08
8.776e-08
4.38113e-08
-0.00586766
7.7298e-08
1.17163e-06
4.11731e-09
-2.04198e-07
6.71343e-08
-8.71476e-07
4.27327e-09
-8.21991e-07
2.82078e-08
-6.61769e-07
2.2863e-09
-0.00999228
6.50288e-08
3.31195e-08
-6.1139e-08
9.87659e-08
5.40338e-08
-2.18865e-07
-6.25061e-09
1.33908e-07
-0.00134255
-0.00225742
-3.34402e-07
-4.84611e-08
1.23003e-07
-1.04388e-07
-9.71229e-07
1.29206e-08
-1.59592e-08
-1.38536e-07
0.00247873
-4.11391e-06
-0.000964357
-3.23363e-07
6.42357e-08
-2.07019e-09
-4.16827e-07
-2.39619e-07
-1.82975e-06
1.36846e-07
-1.05265e-07
-3.75612e-07
1.5493e-09
3.75753e-08
-4.16649e-07
0.0037151
4.46886e-08
-3.39169e-07
-3.096e-06
4.02722e-09
-0.00390094
7.05945e-08
1.15269e-07
1.15583e-08
9.83603e-09
0.000559055
-1.21503e-06
0.00338026
-2.76544e-08
-3.11087e-05
0.00155745
-0.000438515
-1.78317e-06
-8.88838e-07
-6.74506e-07
-1.64967e-07
1.2637e-07
6.98768e-08
-7.9347e-09
0.000358428
1.17657e-07
-8.90739e-08
0.00170089
1.09558e-07
4.37259e-08
6.48609e-08
1.50424e-08
5.60384e-08
6.52986e-08
-3.69594e-07
0.00819839
3.47541e-08
3.23694e-08
0.000970954
0.00206228
1.12481e-07
4.19618e-09
-2.29261e-09
4.15222e-08
-7.59211e-06
-1.22793e-06
3.78791e-06
3.97352e-08
7.06892e-08
-3.17914e-08
1.82959e-08
-4.7732e-09
-9.31615e-07
7.5623e-08
-0.000560965
-4.88655e-08
6.44056e-08
-1.91038e-07
6.48413e-08
-1.37812e-06
-1.00211e-07
-2.10075e-07
0.000332708
0.00297619
8.00537e-08
1.20785e-08
-0.0146655
0.00042529
-1.51198e-07
5.7994e-08
-0.00771143
8.44004e-07
7.00433e-09
1.2712e-07
2.14343e-08
-4.47461e-08
-4.63028e-06
-3.33191e-07
-1.55924e-07
1.35825e-08
0.0025632
-7.49602e-06
-1.2418e-08
9.42396e-09
1.26498e-07
-7.64552e-08
6.81108e-08
-6.1643e-08
0.00241578
0.00224941
-0.010776
-2.27748e-08
-6.70264e-07
-1.37207e-07
5.18016e-08
-1.66492e-07
-5.22914e-08
-2.71865e-06
9.40332e-09
-1.34848e-08
-7.23129e-07
7.56316e-08
-2.92852e-07
-3.09095e-08
-9.4176e-08
-6.30874e-09
3.03257e-08
-2.33519e-06
-1.31182e-08
9.33245e-08
-7.07762e-07
-1.11615e-07
-5.38725e-06
-4.24064e-08
-2.22564e-07
0.00219601
-0.00122304
3.08553e-08
0.000593331
0.000169106
1.04656e-07
4.81113e-09
5.06326e-08
2.50467e-08
0.00168303
-1.14689e-07
2.55148e-08
1.70973e-08
0.00214709
-1.27512e-07
-1.38446e-08
-1.93139e-09
-7.60897e-10
-1.89941e-07
1.04005e-07
-1.6526e-08
-9.73003e-07
3.03832e-08
-5.19594e-08
-3.35912e-09
-1.23981e-06
2.87739e-08
9.53306e-09
1.64769e-08
6.26857e-08
-3.24964e-07
-2.22057e-08
4.99671e-08
8.83816e-09
-4.35042e-07
4.47668e-06
9.04476e-11
-5.48158e-06
-2.05696e-07
0.0018617
1.49855e-07
-9.74387e-08
-1.01639e-06
-2.30615e-07
-5.02051e-08
7.0038e-08
-0.00142167
-0.023101
2.88316e-08
-4.24215e-09
0.000306777
-2.65094e-08
2.20046e-08
5.50741e-08
1.2194e-08
-3.22254e-07
7.68857e-13
2.74364e-10
-9.00216e-08
-2.18567e-07
3.04567e-07
-2.52014e-08
3.38673e-08
-0.00751257
-2.62726e-07
-1.17115e-05
4.47124e-08
-1.05068e-06
-1.45858e-07
0.002539
-3.63817e-07
0.0024083
2.8241e-09
-5.21902e-07
6.2757e-09
6.65937e-08
1.26438e-07
-1.05324e-06
-3.56236e-08
-2.42181e-06
0.00086589
1.38892e-08
0.000583246
-5.60077e-07
3.18361e-08
-2.0405e-08
-5.66007e-07
0.00284589
-4.78645e-10
-4.42e-08
-1.01508e-07
-1.14148e-07
-2.77966e-08
1.67364e-08
-4.10058e-09
1.24131e-08
3.26531e-06
8.9441e-08
6.0201e-09
2.70842e-08
2.06231e-08
5.20578e-08
-5.72304e-08
-2.77719e-08
-5.38558e-09
-1.18964e-07
4.03191e-08
-9.47275e-08
-2.62582e-08
6.28012e-09
0.00213516
8.38944e-08
9.06442e-05
-4.91739e-08
0.00237838
-3.7437e-07
-4.72163e-07
0.000311895
-7.35333e-07
-1.67392e-06
-0.00599794
-2.317e-07
1.33802e-08
9.6202e-08
-3.63786e-09
-3.08645e-07
5.55721e-08
0.00305375
8.39021e-08
0.00284017
-0.00887348
-3.02934e-06
-1.72046e-07
0.00206122
0.00243122
1.99884e-08
-1.56373e-08
-8.65965e-08
-4.04381e-07
-1.12518e-08
-2.3768e-09
-2.22297e-07
-0.0126346
-7.0413e-11
6.61839e-08
4.10263e-08
5.32408e-06
-2.95319e-06
7.79333e-09
-1.94201e-07
-2.59094e-07
3.88307e-08
-1.64729e-08
0.00236308
8.47855e-08
9.88676e-08
2.83669e-05
-2.15015e-08
9.11234e-08
0.000115694
-5.678e-05
0.00330386
7.60923e-08
3.16392e-08
3.62696e-05
5.53929e-08
-5.21661e-09
-3.89755e-08
-1.01484e-06
-5.37443e-08
-4.12883e-08
-1.40115e-07
-3.96935e-09
-5.00132e-07
9.5085e-08
1.03979e-07
-9.12877e-09
2.296e-09
5.35747e-08
3.06364e-09
-4.77267e-07
-9.37315e-08
1.04698e-07
-7.14331e-08
6.52621e-08
-2.65121e-08
-8.1857e-08
0.00280093
-6.77871e-07
7.579e-08
5.44005e-08
-4.20824e-08
0.00274748
-5.87707e-09
-2.63496e-08
1.25073e-08
9.97435e-08
-0.00062667
-2.41089e-06
1.93453e-07
-2.80388e-08
-5.02964e-07
-2.08431e-07
2.08789e-08
3.25917e-08
-4.28323e-08
-8.91517e-08
-4.79472e-07
7.0874e-08
-0.015005
-2.36376e-07
1.8082e-08
-2.66601e-07
-0.0141405
-7.39875e-08
-1.20543e-06
-1.15463e-07
5.64659e-05
5.75001e-09
4.68303e-08
-4.06474e-07
-1.33032e-06
1.57135e-07
6.17584e-08
-6.01124e-08
-1.84055e-07
-1.04813e-06
-1.65267e-07
-0.0243844
-1.52322e-07
-1.80533e-08
-1.11179e-07
1.08407e-07
1.39627e-07
-0.0176153
-2.14535e-09
4.29748e-08
-1.10259e-08
2.17214e-06
0.000631792
-2.60292e-08
9.57029e-08
-4.72028e-07
-3.1745e-08
-4.25428e-08
-1.81515e-09
-4.93964e-07
-7.5069e-08
-4.51213e-07
0.000215523
8.70224e-08
-6.9011e-08
0.00220464
7.80293e-08
-9.76844e-07
-5.9864e-08
-1.1531e-07
-1.89191e-07
1.37906e-07
1.77822e-08
2.17892e-08
-2.20715e-07
-0.00199572
6.44973e-08
4.85671e-08
-2.13382e-07
1.48549e-08
7.79798e-05
0.00331127
-1.35895e-07
4.25055e-09
6.91588e-07
3.88275e-09
-0.0247652
-8.87597e-08
8.85816e-08
7.89625e-08
0.000389586
7.11145e-09
9.70987e-08
2.12174e-08
-9.26438e-07
0.00228449
-1.60511e-07
-2.44496e-07
1.09575e-07
3.27573e-08
-2.90369e-07
-2.83193e-07
5.92088e-08
-2.4997e-07
6.97133e-08
0.00188872
0.00170151
1.00531e-07
2.06964e-08
-4.91967e-08
-0.0265766
1.01134e-08
9.01882e-05
5.13708e-09
2.80044e-08
2.06668e-07
-7.01599e-08
-2.87875e-07
-1.25323e-08
-8.19329e-08
5.57592e-08
-0.0189301
-8.54164e-07
1.51874e-08
-3.95653e-07
-3.6157e-07
-1.38652e-07
3.66577e-08
-4.22215e-09
-4.83991e-08
8.97762e-08
2.0297e-08
-1.04422e-06
-1.04289e-08
4.63622e-09
-6.21737e-08
2.73667e-09
-2.69893e-07
-9.91398e-08
-3.83868e-07
5.06381e-08
-1.4145e-08
7.49332e-08
-3.1381e-06
-1.83386e-07
4.01155e-08
-4.04693e-07
-4.82709e-07
7.66545e-08
7.9957e-08
-2.8345e-07
1.91471e-09
0.000394517
-1.0506e-06
-1.24195e-07
0.000428812
1.15739e-08
-1.01704e-06
-2.35054e-07
-1.28096e-07
-1.45267e-06
0.000298136
-9.87864e-07
-6.94432e-07
-1.04753e-07
-8.88887e-08
8.67075e-08
5.52578e-08
-4.40144e-07
8.9409e-08
2.61099e-06
6.92427e-08
1.26413e-07
-2.2047e-07
2.41599e-08
-9.74295e-07
-5.70784e-07
-1.39743e-07
8.54266e-08
-5.34184e-08
-0.00478668
5.50736e-08
-7.96972e-07
0.00403995
-9.22316e-09
-3.23338e-08
-1.02571e-06
-2.26526e-08
5.91002e-08
-0.00298524
8.04601e-08
9.40314e-08
-4.44767e-07
9.63365e-08
-5.46796e-07
5.53246e-08
-3.15981e-08
-0.00275677
2.79389e-09
1.28523e-07
-1.97842e-07
6.89021e-08
6.03059e-08
-2.60416e-11
-0.00175273
1.03273e-07
6.66936e-08
6.97537e-08
-8.34538e-07
2.75735e-08
-1.08672e-07
8.29942e-09
-1.03991e-07
2.51809e-08
1.4333e-07
-6.55635e-08
-6.41303e-08
1.37114e-07
-1.96409e-07
-2.6756e-07
-2.1267e-07
2.78036e-08
-2.27416e-07
-4.45027e-07
6.9938e-09
-9.83359e-09
5.18749e-08
-0.000240743
3.4734e-08
9.36284e-08
-3.36755e-08
2.63015e-09
-7.83236e-08
-5.56305e-08
-0.0178114
0.000908077
-0.00695363
1.10118e-08
-2.12668e-07
-1.49596e-07
8.59405e-08
-3.5923e-08
-1.15917e-07
-6.84933e-05
-1.32761e-06
0.00254082
-4.10237e-07
-1.67806e-05
0.00136217
-1.16362e-07
-2.06443e-07
-1.02184e-07
7.03258e-08
0.00259831
-9.37198e-08
-3.1631e-08
1.05638e-07
-5.628e-08
-7.75898e-08
0.0016795
0.00299122
-1.67231e-08
0.00065035
-1.03846e-06
2.59373e-05
-3.93995e-07
-2.91721e-07
1.29451e-07
0.00328188
1.11412e-07
-0.0214661
0.000697321
-1.7674e-08
1.17923e-07
1.19293e-08
3.8792e-08
-4.16921e-07
-4.36877e-07
-1.06049e-06
1.28168e-08
-6.34289e-08
-2.55638e-07
-9.80736e-08
-8.62857e-09
-8.57131e-08
8.2754e-08
2.05674e-08
-0.00178744
-2.14237e-07
1.97808e-08
-0.00951982
-1.92183e-07
-3.91739e-08
2.19888e-08
-3.40682e-06
1.78863e-08
5.094e-08
-3.24788e-07
-1.96578e-07
8.0304e-09
-2.07221e-07
-4.63361e-05
-2.66044e-07
0.00163438
9.26654e-08
2.31784e-06
0.00326616
-0.00284972
-4.67358e-08
1.24912e-07
-1.17289e-06
-6.07725e-08
-1.67991e-07
8.54518e-08
0.00456746
-4.18103e-07
-8.41996e-07
8.70504e-08
-2.95128e-08
0.000622365
-0.00368465
-3.14242e-08
-2.3944e-08
0.00331405
3.03607e-08
6.33826e-08
7.03724e-08
-2.20515e-07
-3.03403e-08
-1.67571e-08
1.30135e-07
-3.41183e-07
5.21839e-08
-8.8409e-07
0.0257573
-1.66335e-07
-4.02349e-07
0.00182444
-2.12505e-07
8.91393e-08
5.98142e-08
2.09502e-08
-1.50885e-09
-2.56035e-07
-2.45041e-08
2.41864e-08
1.07095e-07
-2.44833e-08
1.97123e-08
-7.11514e-08
6.55594e-08
-9.19672e-08
-3.71849e-07
-1.59207e-08
0.0031489
0.00157023
-2.35409e-08
-0.00228878
-1.1118e-07
-2.95993e-07
-8.41464e-08
4.14705e-08
0.000413394
-2.41355e-07
6.2972e-08
6.01094e-08
-7.39986e-09
-2.62543e-07
1.0082e-08
2.35406e-06
-5.20788e-08
1.92768e-08
8.20222e-08
0.00191752
0.00384534
1.09392e-07
7.24977e-08
-1.76816e-07
5.83634e-06
2.4743e-08
-0.00341758
0.004549
6.96988e-08
2.58726e-08
8.00766e-08
4.05939e-08
0.00164764
-7.4983e-08
1.43885e-08
-2.81219e-07
-2.59235e-07
-5.02729e-09
2.38095e-08
-1.30724e-07
2.19889e-08
3.23589e-08
-3.48122e-07
-4.86095e-07
0.00246645
-1.21149e-08
-3.11115e-06
-5.58635e-08
-9.41537e-07
1.95471e-08
-1.02764e-07
-2.28399e-09
1.3267e-07
-1.64895e-07
-8.71988e-08
9.48979e-09
-9.88357e-08
0.000720856
1.22137e-07
6.45849e-08
1.31023e-07
-2.14853e-07
-3.64886e-09
6.5772e-08
5.12425e-08
-7.33936e-09
-9.2451e-06
0.000649895
9.36588e-08
-0.013657
0.00267489
0.00192818
7.8991e-09
1.06546e-07
1.50366e-07
5.34428e-08
-9.57442e-08
8.34578e-09
1.2254e-07
6.63933e-08
8.22601e-08
2.66971e-08
0.00173473
-9.77577e-08
0.0105757
-9.19923e-07
2.21237e-08
5.20849e-08
-1.81719e-07
9.51507e-08
-2.97168e-08
-1.95275e-07
-1.91926e-07
1.5262e-06
-9.31028e-07
1.65766e-07
-0.0210474
-4.53878e-09
6.87374e-08
3.07795e-09
-5.2724e-05
-7.07991e-07
3.10372e-08
-1.35015e-07
-2.2862e-08
-2.19574e-08
-3.05005e-08
-9.19671e-07
-8.21709e-07
-0.0237535
-2.30568e-08
-5.26922e-08
1.41383e-06
-1.02532e-07
-7.26785e-08
-5.14578e-07
-1.72914e-07
-2.05467e-07
-1.52501e-06
-2.62133e-07
0.000321676
9.14754e-08
8.74145e-08
3.1447e-08
-8.50072e-09
-4.25341e-08
-9.72645e-08
-7.53071e-07
-2.6741e-06
0.00243675
-3.78356e-08
-0.00664098
-0.0119816
-3.51733e-07
6.94515e-05
8.98771e-08
-2.73611e-07
0.000939782
5.58153e-08
-3.80974e-07
6.42632e-08
9.12903e-06
-2.90785e-08
-2.66766e-06
8.78411e-09
-5.09136e-05
-1.51345e-06
0.00131677
6.33326e-08
-9.17305e-07
3.66984e-08
-1.80885e-07
0.000328307
7.04725e-08
0.000357131
0.00296659
-0.0136435
-0.0212415
-4.43384e-07
0.00268997
-1.82816e-07
-4.71313e-09
-1.91961e-07
-3.54594e-07
-0.0118458
-2.44326e-08
-5.30356e-08
-1.08342e-07
-2.59994e-07
8.23634e-08
1.05088e-07
1.1026e-07
0.00133493
0.00215062
1.34058e-07
-0.0196055
-1.56702e-07
1.48636e-07
-1.80055e-07
-9.63495e-08
0.00240801
-2.19247e-07
8.67671e-08
2.29074e-05
-2.02331e-08
3.97597e-08
5.02958e-08
-2.47084e-07
-3.81654e-07
1.2778e-08
-8.04977e-08
-4.24866e-08
2.84286e-08
9.26509e-08
0.00424091
5.53983e-08
-3.93594e-08
-0.0272326
1.34829e-05
-3.57654e-07
1.69104e-08
0.00130814
-7.39839e-08
5.71416e-08
9.6687e-08
-1.0645e-07
-1.59349e-07
-6.90703e-07
-1.00541e-07
-0.022972
-1.82436e-07
-3.90213e-07
1.60754e-07
-1.37544e-06
-1.9791e-06
-8.02863e-07
1.14665e-07
-0.00369364
1.50837e-09
-5.95652e-06
-1.63118e-08
-1.06338e-07
-1.33887e-06
-1.56749e-06
-2.13902e-07
-3.8341e-07
-2.00258e-08
-9.44319e-08
-3.50607e-07
-1.42438e-06
-1.05599e-07
1.23364e-10
-1.68615e-08
4.29917e-09
-1.95593e-06
3.56433e-09
-7.66597e-07
-1.28294e-08
-2.12336e-08
0.00144101
7.57231e-08
0.00487161
6.49505e-08
-1.6214e-09
-9.92879e-07
1.14676e-07
-6.9021e-07
-1.37841e-06
-3.12492e-07
4.84843e-08
-1.85387e-06
-1.42274e-07
-5.83471e-08
1.40898e-07
0.00127238
0.00183131
5.66291e-08
1.64876e-08
3.28879e-08
1.12225e-07
-3.45143e-07
0.00144225
7.435e-08
-7.77179e-06
3.25571e-08
6.71816e-08
4.03764e-08
-0.0101709
-5.96544e-08
1.18251e-08
2.10443e-08
3.47587e-08
1.239e-07
4.79462e-09
1.32364e-08
-5.28873e-07
-0.015843
5.73817e-08
9.76119e-08
-6.23659e-09
-2.35977e-07
1.57143e-07
-0.022214
-1.6325e-07
8.1717e-08
4.96412e-08
8.97074e-09
-9.75882e-07
7.87253e-08
-1.34532e-06
-2.59048e-07
-2.14323e-07
5.27318e-08
-4.11519e-07
-3.72034e-08
-3.68305e-07
-9.99078e-08
1.19874e-07
-0.0293974
-0.0341133
3.09423e-08
6.41856e-08
0.000550699
-3.55296e-07
-5.06435e-07
-3.54328e-07
-1.25255e-06
8.35059e-08
0.00374683
-2.81361e-06
7.59515e-08
0.000448119
0.000529731
1.66691e-08
-2.19038e-07
-3.13019e-07
1.15556e-07
-0.00434721
1.12436e-07
-5.34278e-07
-2.73423e-07
9.11865e-08
-1.59133e-08
-1.2956e-07
-1.1297e-08
-1.74081e-08
5.28783e-08
0.0518884
8.43035e-08
-5.13253e-09
9.77502e-08
-4.18329e-09
7.10117e-08
-6.19914e-08
-1.06001e-06
-9.84945e-09
-3.55951e-07
-5.93018e-08
-3.79988e-05
1.04688e-07
-3.06773e-08
8.37586e-08
6.64531e-08
3.25841e-08
1.3194e-08
-6.72014e-07
-5.7803e-07
-5.14843e-09
-5.90688e-07
-6.85302e-08
6.91809e-08
-9.64914e-08
0.00241822
-5.41481e-09
6.32587e-08
1.10528e-08
2.67419e-07
-4.468e-08
-8.41529e-09
-1.09866e-07
-3.97521e-08
-0.0255995
0.00020084
4.23411e-08
-4.18188e-08
4.44276e-08
-1.08259e-07
2.24829e-07
8.7375e-08
-2.6833e-08
-1.68436e-07
1.20365e-07
-3.19085e-08
4.46113e-08
-3.07929e-07
-0.000142794
-2.07813e-07
-1.48843e-07
-1.48703e-07
0.00188575
-1.06105e-07
2.82133e-08
0.00373049
-2.04028e-07
-1.43579e-07
6.3644e-07
8.88312e-07
0.00130563
-9.79618e-08
4.54063e-06
-4.17254e-07
-4.68613e-07
0.000851519
-7.83249e-08
-0.00099255
-1.0645e-06
-2.86235e-07
0.00179387
2.71494e-10
1.34704e-07
3.92953e-08
-2.04122e-07
7.04628e-08
0.000202941
-1.00212e-06
0.0017797
6.39842e-08
-1.44224e-07
-4.40559e-07
-2.15413e-09
1.28113e-07
7.87564e-07
-2.53855e-07
-8.89423e-09
-4.63124e-07
-1.14685e-07
-3.16112e-07
-2.64403e-07
-5.52763e-07
0.000258301
-3.04663e-07
4.04155e-08
-2.121e-09
0.00247222
-3.51649e-08
-5.62746e-08
-1.52916e-07
0.00290071
-4.56964e-08
-3.76633e-07
7.70982e-10
-1.02963e-07
5.86578e-08
4.08395e-08
-1.12685e-08
7.97807e-08
1.46481e-07
0.000701008
-0.000173818
-8.25006e-08
-5.88175e-09
-5.25946e-07
-1.17257e-07
-4.64856e-08
-9.41996e-08
3.42892e-08
5.16711e-08
-0.0318876
1.09668e-08
-5.3757e-09
2.48044e-08
-0.0122851
2.43911e-08
-3.06874e-07
0.00232545
-0.000168732
6.0406e-08
-1.13983e-07
-4.09086e-07
-3.26091e-07
-5.69902e-08
8.9395e-09
0.00438688
6.398e-08
-5.21199e-07
9.50222e-08
-8.34132e-07
2.75969e-08
5.45249e-08
-3.24093e-08
-2.41542e-07
6.90486e-08
-2.98283e-08
1.04586e-08
4.13821e-08
-3.18622e-08
7.41276e-08
-2.5596e-07
-0.0105374
0.00214831
-4.11758e-07
-8.17641e-09
-1.4441e-08
-2.81722e-07
0.00410387
-4.16484e-08
1.32003e-06
1.33681e-07
9.35808e-09
-1.20111e-07
-3.04199e-07
0.0013392
2.67727e-09
0.00122471
-1.13491e-07
-1.54269e-08
-1.135e-07
-0.00890979
3.01416e-08
2.59144e-08
0.00493002
-5.80192e-08
9.68984e-08
0.000424671
6.65137e-08
-0.0152114
-2.64587e-08
-8.20831e-07
0.001292
-1.82282e-07
1.91102e-08
-2.57836e-08
0.000326377
-5.27046e-07
-1.42442e-08
8.00987e-06
2.69094e-08
-1.79684e-07
-2.75855e-07
0.000641481
2.49052e-08
0.00300144
-0.0108239
-1.2129e-07
1.59419e-10
2.08991e-07
-8.11172e-07
3.54564e-09
1.12736e-07
1.60979e-08
-7.05957e-07
-1.58097e-06
2.43295e-08
-5.59356e-09
6.07969e-08
-4.66404e-08
0.0020355
1.03489e-08
0.00140938
5.92427e-08
-1.4082e-06
-2.39898e-06
-3.9016e-08
-1.78255e-08
0.00237442
0.00403645
-2.90068e-07
-9.08161e-10
-1.76911e-07
-2.67347e-06
5.27742e-08
-1.01399e-06
-3.07842e-07
-8.71905e-07
2.05844e-07
0.00144003
0.0031151
-1.13637e-08
5.18842e-08
5.18906e-08
-2.87558e-09
-1.70427e-07
-7.22673e-07
0.0250984
3.89205e-08
-1.12896e-08
-2.10612e-06
0.00146812
7.13721e-08
-0.0138302
1.14043e-07
-3.41385e-07
-3.20379e-07
0.00152503
-2.82109e-06
-9.04401e-08
-8.88987e-08
1.12741e-07
-6.21383e-08
-6.31672e-07
-1.23385e-07
1.62334e-08
-8.51757e-06
2.43267e-08
2.19764e-08
7.34781e-08
-3.34724e-07
1.27507e-06
-3.12927e-06
5.44227e-07
-6.99463e-07
-2.269e-07
3.77573e-08
0.00279219
0.00382663
-1.0002e-07
-2.22975e-08
3.32276e-09
-1.50345e-06
0.00187142
-9.28696e-08
-0.00481039
2.14725e-08
6.51283e-08
0.00146707
1.04467e-07
0.00304645
-0.016336
1.64799e-07
-2.33586e-07
-0.0175883
-2.83462e-08
-8.24778e-08
1.2476e-07
0.00226743
-5.27448e-07
1.05339e-06
0.000477837
-0.0124298
-7.12689e-07
-8.75993e-07
-3.00385e-08
-2.6709e-07
0.00405452
-1.78035e-07
-3.58783e-07
0.00262458
-8.15013e-08
-1.14727e-07
1.65543e-09
-0.0262297
0.000636377
7.42486e-08
1.13524e-07
-5.37198e-07
5.80605e-08
3.40267e-05
-4.0076e-07
-4.56631e-07
-0.0190549
0.00163928
1.23971e-07
-4.85002e-07
-6.73315e-09
0.0145261
-6.83299e-08
-6.93454e-07
-4.89792e-07
-1.21974e-06
1.36335e-07
-2.04254e-06
0.000504201
0.00323137
-9.44065e-08
3.56985e-08
1.82716e-08
-1.61615e-07
0.000139726
-3.64362e-07
0.00268813
-1.67154e-06
-2.3417e-07
1.2698e-07
0.00207952
-3.91239e-07
-1.14271e-07
-1.51983e-06
0.000124431
0.00174544
0.00105799
0.00191933
0.00200336
0.00109571
7.60829e-08
-1.56689e-08
-3.32015e-07
9.64388e-08
0.00215907
-5.13063e-06
3.00756e-08
-0.0091097
4.46275e-09
-1.28203e-08
8.35889e-08
-6.91055e-07
2.0398e-08
0.00192518
2.18431e-07
-0.0154405
9.88819e-08
3.43269e-07
-8.72908e-08
3.93618e-05
0.000822866
-1.49806e-07
-5.92905e-07
-1.5674e-07
-3.36389e-08
1.23392e-08
6.59535e-08
7.36371e-08
0.0014258
5.2919e-08
1.83146e-08
-0.00267458
-2.78788e-07
0.00285184
-1.32501e-08
0.00442568
-5.37091e-10
-1.18616e-08
9.40178e-08
1.06007e-07
-7.14711e-07
-1.8597e-07
0.00464753
-6.10112e-08
-1.62386e-06
0.00370208
1.13443e-07
0.00480137
1.03297e-07
0.00340976
-0.017202
0.00368101
-3.80654e-07
8.99154e-08
1.12642e-08
0.000681874
5.74901e-08
-5.8058e-07
-7.86456e-09
-9.26862e-07
0.00433526
-3.17318e-08
8.03244e-08
1.16188e-07
3.58617e-08
-0.0172367
-0.0109426
4.36025e-08
-2.28931e-08
0.00214986
-0.000749247
-2.9203e-08
-0.00812915
-4.6906e-08
0.00340315
0.00308429
-1.46417e-06
2.42489e-07
-9.59066e-06
-6.31543e-08
0.000958895
-1.62456e-06
1.24117e-07
1.26072e-07
2.46703e-08
0.00422724
-0.006971
-9.84193e-08
-2.88888e-08
0.00115028
1.18371e-08
0.000749511
4.98082e-09
3.26574e-08
-7.43922e-09
0.00231933
-1.48239e-06
7.12372e-08
0.00160686
1.52929e-09
-0.0222482
0.000418188
8.3181e-08
-3.52695e-08
-4.20034e-07
-1.14776e-08
1.02532e-07
3.42438e-08
0.00175839
-8.65725e-08
1.77773e-08
-1.40304e-09
0.00274247
1.16104e-07
-1.84593e-07
3.84822e-08
0.00348938
5.01395e-08
-2.62059e-07
1.71116e-07
0.00203039
-0.0118702
-2.28322e-07
-1.47638e-06
-4.48648e-07
2.19259e-08
-2.40235e-07
0.00298502
5.96683e-08
-3.68685e-07
3.02296e-08
1.37005e-06
-1.36058e-08
0.00358387
0.00317181
-8.85549e-08
0.000915292
0.00176019
-3.53194e-09
-1.45136e-07
0.000258397
-1.97975e-08
0.00379173
2.83279e-08
1.01956e-07
8.44319e-08
-1.00818e-07
-2.51207e-07
-3.86052e-08
1.37562e-07
6.87462e-08
-1.17303e-08
0.000328479
-2.63241e-07
0.00115268
0.00203918
-2.58659e-08
3.80913e-08
-1.46853e-07
-0.0195057
-8.10361e-08
1.42382e-08
-5.09492e-08
-0.00252506
-0.00412284
-0.00425557
0.000669666
-2.83584e-07
1.03251e-07
3.86297e-08
-4.08588e-07
-2.09587e-07
-9.81631e-06
2.28234e-08
2.18896e-08
0.00084095
-2.05769e-07
6.2777e-09
-1.02639e-06
-1.83964e-05
-3.48913e-07
5.01352e-08
-1.12518e-07
1.6875e-06
3.00524e-06
-0.00729661
-2.06158e-06
1.0407e-07
2.74076e-08
3.97838e-08
2.85107e-09
1.2289e-07
2.76299e-08
-1.15456e-07
-2.40573e-07
-3.21787e-07
-7.58431e-07
-1.17951e-07
3.17695e-08
-1.32395e-08
-1.40134e-07
-1.64814e-07
-9.8637e-08
1.11882e-07
-2.2147e-07
1.39281e-07
2.54082e-08
1.97441e-08
-4.39873e-08
2.13898e-07
6.24066e-08
-1.08749e-07
-9.64896e-05
0.0133774
0.0046915
0.00182481
-9.23677e-08
-3.31545e-09
3.89173e-08
0.00296793
8.11691e-08
-1.23396e-08
3.71365e-08
-0.00189203
-4.95804e-08
-5.36548e-07
3.7442e-06
5.24295e-08
1.89593e-09
-2.42094e-07
4.99445e-08
-1.12093e-07
-2.41788e-08
-1.19502e-07
5.40398e-08
9.80778e-08
-5.0746e-08
1.30217e-08
-4.87859e-07
-2.21113e-05
-8.68911e-07
-2.16798e-07
-1.9919e-07
-1.35064e-06
-2.12201e-07
-2.1649e-07
8.3861e-08
0.000876233
8.98897e-09
-2.98623e-08
1.15328e-07
-2.05161e-07
-2.74322e-07
6.92887e-09
-1.97536e-07
0.000194841
3.60026e-09
3.52365e-07
-2.82226e-07
-1.53876e-07
-2.4772e-07
-1.80324e-07
4.10335e-08
-2.64077e-07
2.96716e-08
-3.92806e-07
-2.18677e-07
0.00314893
6.33945e-08
-1.78087e-07
9.77007e-09
0.00302122
-0.0113763
-3.44073e-07
-1.93009e-08
-1.98834e-07
-1.08527e-08
-3.22641e-07
-4.81245e-08
0.00295052
9.03224e-08
1.26309e-08
-4.9414e-08
-1.90528e-07
-2.38101e-06
-2.14689e-07
-0.02175
3.88527e-09
-1.21997e-06
-1.80938e-07
2.85644e-08
-0.0258197
0.00377724
-6.43167e-07
-2.29825e-06
-1.92827e-07
-3.23022e-08
-5.79932e-09
-0.0222879
-3.89211e-07
4.15819e-08
-1.78932e-07
1.11741e-08
1.62967e-07
-1.93525e-06
6.32781e-08
0.00378051
-3.30231e-07
-7.82244e-07
-1.48137e-07
9.62518e-08
9.4275e-08
3.27047e-08
-2.76173e-07
-6.86107e-08
1.60053e-08
0.000801374
2.7359e-09
5.1694e-08
-3.12737e-08
-0.00335431
1.52767e-07
-0.0135389
1.70324e-08
0.00319716
4.28603e-08
1.10326e-09
-2.42261e-08
5.5951e-09
1.09736e-07
-4.3661e-07
1.68447e-07
8.73293e-08
-1.29105e-08
-2.13472e-07
-1.36683e-07
0.00135572
2.66662e-09
1.38181e-07
-2.42096e-08
-5.05999e-07
1.56332e-07
-2.13134e-08
-8.04623e-07
0.000528504
-0.0168821
3.95514e-05
3.15877e-06
1.744e-06
-2.42922e-07
-1.10407e-07
1.57582e-08
-6.84931e-08
-3.46328e-08
0.00495542
-1.06848e-07
-1.2326e-08
5.01019e-08
1.08567e-08
-5.90846e-07
-4.45491e-07
3.56205e-08
-4.33312e-09
-4.0607e-07
4.93403e-07
-2.62512e-07
-8.69214e-08
2.58984e-09
0.0022484
-3.45618e-07
1.55402e-07
0.00120991
-0.0154795
2.0551e-08
-6.24204e-08
-8.87016e-08
1.74507e-08
1.24018e-08
-1.82605e-08
-0.0193449
-4.49971e-09
0.00134851
1.20832e-08
0.000400556
-2.76517e-07
1.10767e-07
-1.89175e-06
7.34272e-08
4.18386e-08
-4.54863e-09
-3.92508e-07
-2.1019e-06
9.33536e-08