/*--------------------------------*- C++ -*----------------------------------*\
| =========                 |                                                 |
| \\      /  F ield         | OpenFOAM: The Open Source CFD Toolbox           |
|  \\    /   O peration     | Version:  v2012                                 |
|   \\  /    A nd           | Website:  www.openfoam.com                      |
|    \\/     M anipulation  |                                                 |
\*---------------------------------------------------------------------------*/
FoamFile
{
    version     2.0;
    format      ascii;
    class       surfaceScalarField;
    location    "500";
    object      meshPhiCN_0;
}
// * * * * * * * * * * * * * * * * * * * * * * * * * * * * * * * * * * * * * //

dimensions      [0 3 -1 0 0 0 0];
oriented        oriented;


internalField   nonuniform List<scalar> 
14516
(
-0.000231605
-0.000697478
0.000904643
-1.33042e-07
-1.02468e-05
6.39795e-06
0.000771986
-0.00102956
-4.64453e-05
2.23794e-05
-9.77478e-06
0.00141751
-0.000997293
-0.000422572
-0.00121237
0.000151479
0.00103518
0.000268299
-2.50756e-05
-0.000375231
-0.00126244
0.00116743
0.000105648
0.00117123
0.000117616
-0.00130775
0.000592017
0.000817649
0.000728685
-0.000916491
0.000183828
0.00118078
-8.86163e-05
-0.00109772
-6.16317e-05
4.75066e-06
-1.12256e-05
-0.000166429
0.0001808
-0.000101924
-7.11018e-05
-0.000178094
-3.94996e-06
0.000179676
-0.000761672
0.00027087
0.000503796
-0.000264501
-0.00052353
0.00127079
-0.000127232
-0.00115406
-0.00018633
-0.000100818
-0.00111709
0.00120183
9.62621e-05
-0.000778216
0.000697708
0.000466598
-0.000159352
-0.000312831
-1.28129e-05
1.28129e-05
0.00127495
-0.000171341
-0.00113134
-2.04172e-05
-1.07497e-05
0.000176469
1.51826e-06
-0.000183334
-2.01535e-05
-0.000643055
0.000671526
-0.00100164
0.000335129
0.000653549
0.00124595
-9.23745e-05
0.00108235
-0.00131202
0.000202556
8.961e-05
0.0003661
0.00107342
-0.000225219
-0.000859093
-2.23571e-05
-2.04631e-05
3.39841e-05
0.000365563
-0.00111741
0.000747092
0.00130981
-0.000144876
-0.00117779
3.7884e-06
0.000177394
-0.000731923
0.000844323
0.00128025
-0.00101632
-0.000329598
-1.20953e-05
8.9775e-05
-6.05252e-05
0.00136361
-0.00031342
-0.000337814
6.85568e-05
6.93576e-06
-1.08792e-06
5.97486e-06
-3.35353e-05
0.000281266
-0.000348608
5.2728e-05
-9.04538e-06
2.45374e-06
-0.000637684
3.56849e-05
-0.000393379
0.000354123
-0.000177734
-0.00116785
0.00136736
-7.51409e-06
-2.07243e-05
-0.000511375
-0.000610615
1.40173e-05
-0.000732813
0.000721539
0.0012082
-0.000293861
-0.000920627
-0.00118311
0.00120274
-4.61823e-05
0.000112426
-0.000698679
0.000587748
0.00130555
-0.00136148
4.03049e-05
-0.000872591
0.000896017
-0.000946446
0.000243521
0.000702045
0.00127792
4.57591e-05
-0.00135028
0.000848128
0.000426335
1.70576e-06
7.60669e-05
-9.33966e-05
0.00102649
-0.00016745
-0.000863306
0.00110077
-0.00125565
0.000152447
0.000275551
-0.00063325
0.000213952
0.000736343
0.000397575
-0.000135023
-0.000974599
0.00110708
0.00136469
-0.000278016
-0.00118877
0.0013147
-0.000135627
0.000157338
0.00101667
-5.79729e-05
0.000789635
-0.000715517
0.000830381
-1.55694e-06
4.36465e-13
1.36288e-06
0.0012813
-0.000222151
-0.00103762
1.43345e-05
-1.0599e-05
-1.63289e-06
0.000236698
-0.000762014
-2.7436e-05
0.00128206
-0.000116852
-0.00086104
0.000955031
2.20401e-05
-1.14081e-09
-2.28062e-05
-0.000968124
0.000241431
0.000735666
-0.00102336
0.000328244
0.000691033
-0.000950444
0.000811907
-0.00114363
0.000265802
0.000860943
1.9406e-05
2.56667e-07
-2.25056e-05
-3.80146e-06
-0.000319468
0.000316177
0.0012402
0.000100534
2.58947e-05
-0.000364194
0.00032616
-0.00071422
-0.000301259
2.0574e-06
-0.000911004
0.000894446
-0.000931412
0.000953424
-4.3035e-05
0.00130425
-0.000297518
-0.00103498
-4.25106e-06
5.84361e-07
-9.65611e-05
-0.000836546
0.000935282
0.000214057
-0.000176853
-4.48991e-05
0.000463344
-0.00038272
9.04625e-05
-0.000320187
0.000309282
0.00133154
-2.85835e-05
1.34544e-05
7.74133e-07
5.8301e-05
0.000141377
4.68346e-05
-0.000203266
0.000146107
-0.000185074
0.00022
0.00124512
-0.000226847
-0.00104039
0.00024364
-5.35566e-05
-0.000214177
0.000169645
4.99818e-05
1.56668e-05
1.0351e-06
0.00132331
-9.26053e-05
0.00110718
-0.000151468
0.000108056
-1.61934e-06
-0.000129832
0.000990698
0.000191302
-6.31261e-05
-0.000286664
0.000357225
-6.60076e-09
-2.12579e-06
4.95626e-05
0.00125259
-0.00129255
0.000815841
-0.000793355
-0.000311256
0.00155605
-0.00126556
0.000719139
-0.000702431
-0.00101579
0.000149204
-0.000933746
0.000770942
-0.000510388
0.000731715
-0.000199906
-0.00096106
0.000370584
7.36576e-05
0.000249942
-0.000306168
1.68348e-06
-4.16324e-07
-3.93111e-07
0.000710045
-0.000801281
2.51004e-05
-4.17133e-05
-0.00118985
-4.71908e-05
-0.000886471
0.000916701
-0.00128399
0.0011671
-0.00090044
0.000214524
0.000680256
0.000332634
-0.000318648
-0.000152765
-0.00081145
-0.000932285
0.00021817
0.000679649
1.7356e-07
-1.05338e-06
-1.02765e-06
-0.000872621
-0.000471275
-0.000470379
-0.000122401
-0.0010766
0.00120509
0.000953404
0.000256957
3.89381e-05
-0.00096382
0.000908027
0.00034527
-0.000217264
0.000259296
-0.000390134
8.22445e-05
0.000630089
4.92781e-05
-5.44969e-05
-6.08166e-07
4.06637e-06
0.000660113
0.00132195
-0.000129492
-0.00121629
2.43881e-05
-0.000486687
0.000388098
-4.61809e-05
0.000212354
-0.000161777
-0.000167896
6.57489e-06
1.17625e-05
0.000158672
-0.000171092
-7.5344e-08
-3.18674e-06
-5.83506e-07
0.000203888
-0.000245999
0.000224498
-6.53161e-05
-0.000177934
0.000718676
-0.000812889
0.000945946
0.000218157
-0.0011697
-4.39112e-06
2.56443e-06
0.00121405
-0.000277152
-0.000440428
0.00102318
5.89528e-05
0.000145881
1.21113e-06
9.06164e-07
-4.63454e-07
6.49116e-07
-1.38276e-05
0.000179746
0.00112114
-5.3832e-05
0.000251239
-0.000460201
0.000422681
-0.000884462
-0.000376581
0.000548206
-0.00056082
1.29206e-05
0.000174151
-0.000185689
-0.000244574
0.00150582
-0.00126209
1.87605e-06
-2.36532e-06
-4.5401e-06
-0.00135979
0.00020918
-0.000331888
-0.000826654
0.000755781
6.71774e-05
0.00018631
-1.25136e-05
0.000198187
-0.00122239
0.0010066
-0.00160182
0.000443416
0.0010972
0.000667382
-0.0013329
0.000660095
-3.36485e-06
-3.44031e-06
-0.000510485
0.00116314
-9.77992e-05
-0.000779989
0.00086646
0.00102569
-0.000888696
-2.39931e-05
1.77253e-05
3.41957e-06
0.000176531
-0.000832092
0.000623651
0.0010375
-0.000466721
-0.000567844
0.000848724
-0.000638703
-0.000210789
-0.00120274
0.00111984
8.247e-05
-0.000244785
0.0011244
0.00125299
2.68846e-05
-0.0013016
0.00128183
8.2652e-07
-0.00020759
-0.000743343
-0.000650868
0.000796931
-1.81798e-05
0.000786048
-0.000832406
-0.000169739
0.000183982
-0.000935739
0.000824767
0.000650792
-9.63956e-06
-0.000672291
0.0011814
-0.00133541
-0.00123114
0.00128945
0.000178386
0.000260476
0.000786323
-0.00151132
0.000375422
0.00112346
-0.000107423
-0.000957011
0.00103893
-0.00115701
0.000705725
4.04809e-06
3.68136e-05
0.00110474
-0.000179514
-0.000468328
-0.000866214
0.00132673
-2.31669e-06
-0.00138233
-0.000775226
0.000565533
0.000169025
-6.81471e-05
-0.000915633
1.33487e-05
2.48484e-07
-5.36371e-05
6.27946e-06
0.000170101
-0.000171554
0.00120887
0.000125812
-0.000876173
-2.06121e-05
0.000922174
4.14232e-05
0.000645603
-0.000694747
-8.55267e-05
0.00129584
0.000133566
-0.00129388
-0.000877275
-0.000310209
-0.000679057
-0.000836668
-4.83182e-06
-9.50784e-06
-0.000160184
-0.00107087
0.00123682
-7.28645e-05
0.00130958
1.25696e-05
-8.96626e-07
0.00129471
-0.00123414
-7.0467e-05
-5.42657e-05
0.000843492
-0.000822971
-0.000377065
-0.000765564
0.00112074
-0.000842844
2.47882e-06
0.000641669
-1.29924e-05
-0.000313428
0.0010346
-0.00110849
0.00123284
-0.000207386
0.0001422
5.40304e-05
0.000686166
-0.000770421
7.75696e-05
-0.000748186
0.000673742
-6.00622e-06
-6.3449e-06
4.29647e-06
6.58254e-06
-0.000311471
-0.000884899
2.20596e-05
-5.08241e-05
1.65631e-05
-0.000899897
0.000176888
0.000724279
0.00118027
0.000109721
-0.000689541
0.000672332
8.15444e-06
0.000996398
-0.00101911
-2.4359e-05
4.11984e-05
0.00128605
0.000277764
0.000942164
-0.00125806
0.00132588
-9.92005e-05
1.01383e-05
-0.000169931
0.00016187
6.31371e-06
0.000983366
-0.00103137
0.000989133
8.55759e-05
-0.000946264
-1.91159e-06
0.000932908
-0.000217542
0.00013299
2.91076e-06
0.00116822
0.00131808
-0.00116448
-0.000174138
-4.42381e-05
1.74918e-05
0.000117988
0.000734051
-0.000862726
-0.000872732
0.000103821
0.000769135
-6.35267e-05
0.000784483
0.000139402
-0.000859924
0.00072165
-0.000865307
0.000895632
-8.91696e-05
-3.76521e-05
0.000837532
-0.000788151
-0.00139643
0.00113548
0.000220449
-0.000236186
-0.000635128
-8.30175e-05
-0.00108476
0.00113041
-3.28537e-05
-0.00017081
0.000212267
0.000224451
6.99464e-05
-0.000286449
4.10876e-05
-0.00075574
0.000694362
1.41953e-05
-1.73626e-05
-1.11762e-06
-0.000184404
-0.000646451
8.76157e-06
-9.09371e-06
9.89253e-07
-1.50136e-06
1.28155e-05
-0.000601309
0.000635543
0.000440066
-0.00131292
-0.000912512
-0.000191359
0.00105738
-0.000169144
0.000143031
-1.80821e-05
-0.000141047
0.000144829
-0.000939892
0.000254481
0.000668548
-0.000137186
-0.00087687
0.00100489
1.65437e-06
-2.33313e-07
4.65968e-07
-1.56962e-06
4.41041e-06
-0.000568801
5.60148e-05
-0.00127677
-2.01958e-05
0.000250396
-0.000259398
-0.000760167
9.8658e-05
0.00119003
-6.71286e-06
2.31566e-05
-1.39721e-05
-0.00011728
0.000157175
-9.28062e-05
-5.42113e-05
5.51901e-05
0.000447008
-0.000839788
-0.000777397
0.000883037
-0.000975423
0.000412954
0.000560822
2.43085e-05
0.00054021
-0.000672394
0.000899401
-0.0009865
-0.000689219
-0.000667956
0.000806275
0.000143579
-0.00113693
0.000932458
0.000196239
-1.05716e-05
6.57209e-06
-7.91603e-07
0.0010428
-0.0011604
6.51893e-05
-0.00097505
0.000905956
-0.000453469
-0.00051732
0.000419469
-0.000457745
1.61763e-05
-0.000893633
-0.000452236
0.00131478
-0.000164432
-0.000471939
-0.000577308
0.00107348
0.000786029
5.74061e-05
-0.000816226
0.000101524
-1.78093e-05
0.000227672
-9.25295e-06
-0.000303577
6.48516e-05
0.000131279
-0.000188187
-0.000307275
-0.000645971
-0.000433393
-0.000246169
0.000679222
-0.00103103
0.000988308
1.46238e-05
0.000385321
-0.000839659
1.88259e-06
-2.73602e-05
1.1847e-05
-0.000130213
0.000202619
0.000214543
-0.000648362
0.000955941
-4.5828e-05
-0.000915465
-0.00113946
0.00091151
0.000222357
0.00107561
0.000192715
0.000312619
0.00109701
-0.00101899
-9.41192e-05
-0.000837019
0.000706071
0.000121596
-0.00095858
9.63879e-05
0.00096748
-0.000900949
-7.0739e-05
7.63591e-06
-0.00156922
0.000708719
0.000858548
3.44213e-07
-1.02458e-05
7.21671e-06
5.39944e-06
0.000329199
0.000517401
9.56202e-05
-0.000966183
0.000873975
-0.00129249
0.00131217
0.000173456
-0.000708935
-0.000161101
0.000179408
-2.28943e-05
0.0009342
-0.000805418
0.000828038
0.00111407
0.000125056
0.00123709
0.000104392
0.000121532
0.000440427
-0.000564747
-0.00134946
0.0011608
0.000201714
6.28132e-05
-4.09644e-05
0.000734648
0.000315554
-1.21959e-05
-2.04211e-05
1.76001e-05
-0.000718801
7.68833e-05
-0.0013292
0.000803564
0.000505815
0.000276834
-0.00093356
0.000892765
5.8313e-05
0.000516188
-0.000945646
0.00118757
-0.000172546
0.0001664
-1.77292e-06
0.000837742
-0.000941022
0.000122744
-0.00134277
-0.00096366
-0.000959713
3.15611e-05
0.000912543
0.000688428
-0.000884575
0.000179896
0.000970787
-0.00097203
-9.3685e-06
-0.00119643
-0.00144823
0.000306038
0.00116917
0.00026901
0.000913544
-0.000935979
0.000979183
-5.26416e-05
-2.16969e-05
-0.000952419
0.000409217
0.000528793
8.85485e-05
-0.000804272
-0.00086735
0.000657076
-0.000449028
-0.000519812
0.00101313
-0.000162423
-0.000899388
0.00120482
-0.00031952
0.000467984
-0.00114955
3.59442e-05
-4.6572e-05
-9.51352e-05
0.000325481
0.00122552
-0.000176431
2.52947e-05
-1.52868e-05
-6.05854e-05
0.000875899
0.00133536
-8.90615e-05
-0.000731447
-0.00084141
0.000820141
-0.000149146
-0.000223791
-0.000678194
0.00083671
-0.000993502
5.28743e-05
-0.00111919
0.00105697
-0.0011083
-7.43311e-05
0.00117962
-0.00090436
-0.00090691
0.000121321
0.000781865
-8.61506e-06
0.000727449
-0.000754116
-0.00121139
0.000231625
0.000976552
6.64653e-05
0.00119179
-6.49958e-05
0.000497473
0.000105671
-0.000940913
0.00084977
-1.04991e-05
-1.15542e-05
9.7687e-06
9.43036e-05
6.47105e-06
-0.000176186
-0.000956871
-0.000101689
0.000846185
-0.0006103
-0.000843857
0.000568848
-0.000915458
0.000350238
5.50077e-05
0.000756908
1.1843e-05
0.000338785
-0.000359274
0.00117224
0.000726337
-0.000645
7.53071e-06
-2.90542e-06
-2.86645e-07
7.31124e-06
0.000160125
-0.000173152
0.000905122
-0.000214734
-0.000917447
0.000961837
-4.48013e-05
-0.000328434
0.000331872
0.000170891
-0.000158708
-0.000150678
0.00111092
-0.000971956
-0.00065131
-0.000524314
0.00117203
0.000126347
-0.000158667
-0.00136421
0.00103484
-0.00107545
-6.15479e-06
-0.000814418
-1.29927e-05
0.00012488
0.000663728
3.4604e-05
-0.000712708
-0.000524456
0.000801385
-0.000238119
-0.000665972
-0.00121845
-0.000159936
-0.000347768
0.000181665
0.000108229
0.00129139
-0.00142023
-0.000898698
-0.00131011
0.00139685
0.000209973
0.000977387
0.000178288
-0.000155096
0.000166666
-0.00105498
0.00121271
-0.000170167
0.00024152
-0.00028261
-0.000369212
-0.000771146
-0.000613637
-0.00122233
0.00111498
0.00010502
-0.00120988
0.001091
-0.000875338
0.000187247
-1.54437e-05
0.000198962
-0.0006674
0.000404593
-0.000841659
0.000340227
-0.00122284
0.000852452
-7.52051e-05
-6.49992e-06
7.96181e-05
-0.000228471
0.000465836
-0.000246252
-7.52534e-06
0.000207973
-0.000437672
-0.00101581
0.0011988
6.92224e-05
-0.00121681
0.00114844
5.78497e-06
4.60551e-05
-0.000134678
-0.000174191
0.000201057
-0.000143177
-0.00029119
0.000865754
-0.001274
0.00122342
0.000957396
-0.0010914
0.000881636
-0.000793951
1.51395e-05
-0.000936388
-0.000684787
-0.000845669
-0.00149251
0.000842282
-0.000931297
-0.000390665
0.000857402
-8.94527e-05
-0.000767509
-0.00122026
0.0011632
-0.00140623
0.00112394
-0.000613948
-0.000557571
0.000587104
-0.00102154
0.00042559
-0.000581174
0.000778024
-2.63983e-05
0.000670244
5.07624e-08
-0.000639604
0.000740376
-0.000106436
-1.02469e-05
-3.24823e-06
0.00129461
-0.00120643
-0.000133838
-0.000872773
0.000647888
-0.000910627
4.44004e-05
0.000845188
-0.00116491
0.000709266
-0.000792532
-0.000289626
0.000208638
7.37807e-05
-2.42676e-05
3.10407e-06
0.00132823
-0.00136421
-0.00093712
0.000704444
-0.00129707
0.0012082
-0.000238159
-8.10451e-05
-0.000961958
0.000637642
-3.09867e-07
1.64003e-05
-5.3114e-05
2.28128e-05
-2.25776e-06
1.052e-05
-1.26942e-05
0.00109686
0.00105084
-0.000464065
-0.00116833
0.000114619
0.0011317
1.15236e-05
9.64865e-05
-0.000119229
-0.000508434
-0.000211813
0.000127575
-0.00121917
0.00106481
0.000385396
-0.00012984
-0.000519766
0.000443697
0.000465003
0.000567641
-0.000796626
0.000880651
0.0011974
0.000118437
-0.000869777
-0.00104683
-0.000224913
-0.0011497
-9.45259e-08
-1.79233e-05
-1.54092e-06
1.12007e-05
-0.000797227
-0.000122644
-0.00111158
-0.000605047
-0.000625758
4.75285e-05
-2.67579e-05
-4.5222e-05
0.000441973
-0.000412304
-7.84121e-05
-0.0011149
0.000122927
-0.000998154
-0.000971699
6.25519e-05
-3.18674e-06
-6.36959e-05
-0.000698218
9.17306e-06
-3.90512e-06
-1.63005e-05
-0.00126828
0.00108885
-0.000572124
-0.00052305
-4.99492e-05
0.000176405
-0.000134655
-0.00103458
0.00111494
-0.00086052
0.00110853
0.0013195
-6.0975e-05
-0.000956854
2.18737e-06
0.00114846
-0.00114824
2.51814e-05
0.000898413
-0.000932462
-0.000665635
-7.88179e-05
0.000719613
1.53961e-05
-0.000881924
0.000725699
0.00014897
-0.000799562
0.000767794
-0.000596648
0.000141342
-0.000200513
0.000791977
0.00126757
-9.86921e-05
0.000613749
0.000130424
-0.000758854
0.00110224
3.25673e-05
-0.00115066
-0.000726586
0.000674387
0.00118211
-0.000493493
-0.000712711
0.000700904
-0.000117758
0.000350431
-0.000121784
-0.000283651
0.000243379
0.000890472
8.45665e-06
-0.000682623
0.00044394
0.000633094
-0.000198142
0.00109722
-1.38056e-07
0.00104408
-0.000993098
-6.76224e-05
-0.00101338
0.00105449
-4.29341e-05
-6.19689e-07
-1.35472e-05
0.000192721
0.000133302
-0.00124727
-0.000106591
0.00133213
-0.00073534
-0.000135483
1.38953e-05
-0.000170924
0.00120213
-0.00124193
3.29357e-05
4.54367e-05
-0.000963256
0.000850719
-0.000815442
-2.33754e-05
-4.67518e-05
-0.000294067
0.000332084
0.000156514
-0.0011144
-9.00299e-06
-0.000477565
-0.0012331
-0.000907942
-0.000797931
0.000727096
1.76625e-05
-2.22931e-05
0.00152757
-0.000345792
0.000759399
-0.00118078
-9.16498e-05
0.00128516
0.000179871
-4.32371e-05
-0.000324453
0.000599333
1.56594e-06
-3.6198e-07
-5.74953e-06
-0.00126186
0.000356366
0.0001443
-0.00121437
8.5409e-05
-0.00102785
0.000139902
0.000807495
-0.000943093
-0.000371005
-0.0005169
0.00114516
-0.00114059
-0.00072686
0.000679368
-0.000251373
5.14628e-05
-0.000778461
0.000694366
7.972e-05
0.00130126
-9.9791e-05
-0.000295307
1.4901e-05
0.000294349
-0.00102712
0.000905971
9.79113e-05
0.00115324
9.26692e-05
-0.00125847
9.30045e-06
-7.52789e-05
7.19478e-05
-0.000304731
0.000360243
-5.47239e-05
5.32892e-05
-0.000210222
-9.74309e-05
0.000111841
-0.000801273
0.000143961
0.000654621
-6.11073e-06
6.42321e-05
-5.58404e-05
2.09664e-05
-2.33974e-05
-2.2732e-07
-0.000973622
0.000953952
1.89155e-05
-0.000510874
-0.000364642
0.000899124
-0.000667066
-0.000891439
0.000683436
-0.000803516
1.24775e-05
0.000793664
0.000816019
5.67872e-05
0.00088665
-4.23076e-05
0.000963658
-0.00110057
6.651e-05
-6.14745e-05
-4.55542e-05
-0.000747431
0.000107316
0.00140632
-0.000863289
-0.000543605
1.46717e-05
9.60445e-05
-0.000117792
-0.000552461
-0.000417983
0.000937516
-0.0011013
0.000667098
-0.00089514
-0.000129963
0.00101196
-0.00104823
0.00109151
0.000376337
-0.000724922
-0.00133123
0.000989998
-0.000813188
0.000320606
-0.000487277
0.000467121
-4.30402e-05
-0.00107633
0.000924968
8.76057e-05
-0.000896894
0.000660775
0.000930065
2.27306e-05
-0.000561637
-0.000364192
0.00139073
-0.000191706
-0.00120093
-9.27032e-05
0.000905727
-0.000824779
-0.00121849
0.000156752
0.000770831
-0.000918705
0.000144025
0.000233476
-0.000362362
5.99947e-06
-0.000815113
-4.95481e-06
-0.00086907
0.000877519
-0.00108182
-0.000101464
0.00114858
0.000139414
-0.0012695
0.000881799
-0.000173432
-0.000127822
0.00029616
-4.68225e-06
4.68225e-06
9.13139e-05
-0.000339527
0.000153084
-0.000127081
-0.000617025
0.000717349
0.000869939
9.6621e-06
-0.000870539
7.06122e-05
-1.1092e-05
-6.15471e-05
-0.00105007
0.000957404
-7.42968e-05
7.90769e-05
-3.78001e-05
-0.000997643
-3.45554e-05
0.000907775
-0.0006162
-0.000704572
-0.00012955
-0.000656935
0.000172156
-1.5635e-05
0.000765789
0.000104223
-0.000866247
-0.000709956
0.00071048
-0.000718829
0.000598603
8.00057e-05
-4.49686e-05
-5.72245e-06
5.1347e-05
1.90683e-08
2.47448e-06
5.0633e-06
-4.9921e-05
0.000963856
-6.52047e-05
0.000603123
-0.000702747
5.76229e-05
-6.19026e-05
-0.000641406
0.000676596
-4.61941e-05
-0.00013969
0.000142395
-0.000296168
-0.000117672
-0.000801146
0.000738087
3.15935e-05
-0.000103345
0.00124033
-0.000486163
0.000122439
0.000285548
-0.000127093
0.00010066
0.00084413
-0.00066192
3.97676e-05
-2.08594e-05
0.00108994
-0.000904318
-0.000206658
-0.000216855
-0.000586152
0.000789127
-0.000981207
0.000294532
-0.000203831
-0.000189441
-2.44509e-05
1.74166e-05
-0.000391779
0.000634998
0.00091441
-0.00091612
-0.000197285
-0.000677637
0.000879915
6.52181e-05
0.000707267
-0.00084179
-0.000225677
0.0010623
0.000905469
0.000168345
0.000567606
0.000189351
-0.000784181
-0.000656351
0.000737556
-8.37844e-05
9.66258e-05
-0.000405094
0.000290818
-9.74058e-05
9.96812e-06
7.64913e-06
8.63348e-08
-0.00113684
0.000925861
-0.000877891
-4.6234e-05
-9.82527e-06
-4.65758e-05
-0.000679619
-0.000258135
0.000704781
-0.00129415
0.000489677
-0.000642926
-7.41748e-05
0.00122236
-0.00114172
0.000261353
-2.11656e-05
-0.000242215
-0.000787546
0.000718071
0.000846517
-8.78518e-05
-0.000973283
0.000428637
0.000547509
0.000991912
-7.70857e-05
0.000875909
0.000291276
-6.25718e-05
0.000273546
-1.3801e-05
-0.000725411
0.000746458
-2.63318e-05
7.57453e-05
0.00088753
0.000134227
0.000644575
0.000617314
-0.000674083
5.48253e-05
-0.00121127
0.00113462
0.000288811
-0.000342945
-0.000224295
0.000306577
-0.000747886
-5.4826e-05
0.000813825
-3.48234e-05
0.000315596
0.000818859
-0.000895795
7.16823e-05
1.74487e-05
-0.000220431
0.000206127
-0.000279631
-0.000597413
0.000870021
0.000855089
-0.000915101
5.09936e-05
0.000545868
-0.00111317
-0.0005425
-6.68035e-05
-0.000101678
-0.000630642
0.000733683
-7.12399e-05
0.000101656
-5.9907e-05
0.00017963
-0.000823321
0.00065002
5.48809e-06
5.94678e-05
-8.53936e-05
-7.26442e-05
6.41348e-05
-0.000704452
8.02098e-05
0.000624847
0.000946218
-3.29483e-06
0.00035204
-3.88556e-05
-0.000320051
9.5284e-06
-0.00103093
-5.68035e-06
0.000871053
3.91004e-05
-0.00100716
0.000953235
-1.90984e-05
0.000920811
0.0012866
-8.87867e-05
-6.77785e-05
0.000910919
-2.54497e-05
-0.000694334
0.000715285
-6.61952e-05
1.39649e-05
2.63361e-05
-3.07682e-05
0.000272342
-0.000226536
-0.000709434
-5.15222e-05
0.000747132
-0.000263816
0.00114283
-0.000216615
-0.000446296
0.00062533
0.000220865
-2.86182e-05
-0.000189874
-0.000554712
0.000408869
0.000131897
-0.000307002
-7.50619e-05
-0.000274597
0.00025873
0.000441883
-0.000725828
-1.88788e-05
0.000798082
-1.34022e-06
0.000189614
-0.000944011
-2.3884e-05
-0.000381701
0.000778814
0.000100029
-0.00133204
0.00120977
-0.00118082
0.00125917
7.63734e-06
-6.79049e-05
5.93677e-05
-7.9113e-05
-0.000490028
-0.000126932
0.00160002
-0.00110331
6.04711e-06
0.00034593
-0.00124571
0.000587813
0.00068487
4.36067e-05
-0.000353681
-9.79733e-06
-0.000958575
-3.10017e-05
0.000887526
0.000126779
0.000935091
-0.00100269
8.10761e-05
0.00108318
-0.00117488
0.000776307
-0.00072408
-7.73272e-05
-3.70502e-05
9.09453e-06
0.000655519
0.000233912
-0.000879251
-0.00114727
0.000291226
0.000970973
2.99398e-05
-0.000249089
0.000220783
-7.88029e-05
-0.00067638
-1.56603e-05
-0.000473392
0.000473583
-0.00128559
0.00116634
-0.000703249
0.000103332
-0.000329278
0.000655203
-0.000613368
-9.61325e-05
-0.000386703
0.000107085
0.000187177
3.56667e-05
0.000812544
-0.000775693
-4.53283e-05
0.00111619
0.000753389
9.23542e-05
-0.000838238
-0.00100036
0.0010842
-9.08258e-05
-0.00052413
-0.00052158
0.000408073
0.000109319
-0.000728637
0.000682289
-0.000775237
0.000118882
-0.000329126
6.09738e-05
0.000240126
-0.000944007
0.00096869
0.000876843
-0.000206983
-0.00100425
-0.000117268
0.00114343
-0.00128662
0.000735445
0.000554202
-0.000169662
-0.00015617
0.000330606
-0.000806174
0.000859748
-5.43966e-05
7.67921e-05
0.000742369
-0.000832367
5.29215e-05
0.00109721
-0.00115568
1.04885e-05
-8.99936e-05
8.03777e-05
-0.000229432
-1.89225e-05
0.000240498
6.01818e-05
0.000645959
-0.000710689
-0.000304989
0.000858367
-5.32802e-05
-0.000806736
0.000872547
-4.93302e-05
-0.000692016
-0.000473649
0.000167113
0.000303194
0.000224996
-0.00076803
-0.000503393
-0.000470106
-0.000270336
0.000597334
3.76745e-05
-1.78225e-05
1.39234e-06
0.000691298
-0.000721227
0.000832896
-1.27796e-05
-0.000764167
3.19514e-05
0.00106554
6.53237e-06
6.10977e-05
2.93135e-05
-0.000124991
-0.000426499
0.000395863
6.80842e-06
-0.000840193
-1.06396e-05
0.000501927
-0.000511263
0.000907171
-0.000766894
-0.000128842
0.000251847
-8.37485e-05
-7.89503e-08
4.63197e-06
7.26285e-05
-6.87792e-05
0.00080044
-0.000759087
-3.00948e-07
6.79178e-07
-5.76877e-06
-6.44876e-05
-0.00092259
0.000109197
4.829e-05
-0.00106773
2.07829e-05
-0.0001956
0.000180947
-0.00055989
0.000387956
8.20314e-05
-7.59527e-05
0.00122494
-0.000278664
-7.01068e-05
-0.000300633
0.000258654
1.76945e-05
-5.09325e-05
-0.0004678
0.00140884
-9.23384e-07
1.51573e-05
-0.00121774
0.00112446
0.00091882
3.16337e-05
3.99248e-05
-2.76916e-05
0.000562106
-0.000540605
2.62233e-05
0.000188593
-0.000172607
0.000199532
-0.00105354
4.993e-05
3.92137e-05
0.000696967
-0.000737444
0.000116863
0.00118813
-0.00131895
0.000706768
-0.000771884
-9.78725e-05
0.000863833
3.0034e-07
-2.73416e-07
-4.38509e-06
5.8243e-05
-4.54933e-05
-0.000247062
-3.64963e-05
-0.000309546
0.000339351
0.00074501
-0.000841189
-0.000101921
0.0008618
-0.0007561
0.000945422
-0.000666456
-0.000264272
2.34679e-05
-0.000198892
0.000179445
0.000108223
-0.00119934
0.00107635
0.00050262
-8.26609e-05
-0.00043391
-9.69113e-06
0.000133101
-0.000906368
-0.000133552
-0.000167414
0.000992512
-0.000412744
8.19448e-05
0.000126374
0.000855835
-0.000244223
-0.000302565
0.00117996
-0.00121243
-7.50524e-06
-0.000739333
0.000815397
-8.23985e-05
-6.17236e-06
-5.52724e-05
4.98696e-05
-5.28258e-05
3.48012e-05
0.000242531
-0.000287427
-0.000763085
-0.00110882
0.000935211
-0.000806833
8.06837e-05
-0.00050713
4.69941e-05
-4.19347e-05
4.15271e-05
-0.000342602
0.00135505
-0.00131048
-4.88333e-05
-3.69519e-05
-0.00016028
-0.000283165
2.66375e-05
-0.000246498
0.000214628
0.000676281
-0.000567082
-0.000126668
-4.89002e-05
5.26199e-05
-0.000121241
-5.91149e-05
-7.90487e-06
0.000843577
-2.54372e-05
-0.00017226
-0.000209623
0.000185803
-0.000205215
0.000926316
-0.000719816
0.000947333
-0.00108456
0.000115547
-0.000788314
5.49376e-05
-0.000681503
0.000772539
-8.68973e-05
-0.000774621
0.000499768
5.08847e-05
1.94379e-05
0.00119832
0.000113457
-5.58356e-05
-7.78364e-05
0.000932923
-0.000620098
0.00113577
-0.000504045
-7.83631e-06
2.87842e-06
-0.000305809
-0.000175125
-3.86211e-05
0.000763447
-0.000726488
0.000808471
-0.000670376
-0.000145476
-6.786e-05
-0.000814166
8.72817e-06
-8.45432e-05
7.47175e-05
-0.000943311
0.00082078
9.96833e-05
-0.000946683
-0.000783951
7.56992e-05
-0.000849739
0.000762949
-0.00120314
0.000149417
-0.000841117
0.000500696
-6.65683e-05
7.4098e-05
4.33279e-06
4.73782e-05
9.44782e-05
-0.00086238
0.000750727
5.63109e-05
0.000424434
-0.000503994
-4.15378e-05
0.000682943
7.8585e-05
-0.000193241
0.000165245
2.33848e-05
0.000227748
-0.00019794
-2.64884e-05
0.000351385
0.0010468
1.11032e-05
-9.41722e-05
8.27727e-05
-6.58254e-06
3.50126e-07
3.75169e-06
2.04967e-05
0.000162668
-0.000187401
0.000756393
-0.000905712
-0.000283829
0.0012435
0.000819336
-0.000741275
-0.00078607
0.000106264
-0.000578862
-0.000229739
-0.000610547
-0.000422354
0.00102758
-0.000813483
-0.000106124
0.000913787
-0.00083182
-0.000396366
-0.000878564
0.000734081
0.000149784
0.000816547
-0.000916036
0.0011709
-0.00112526
0.000794493
5.85639e-05
0.00118566
-0.00100365
-0.000706664
5.56292e-05
-8.32402e-05
-0.00069405
-0.00111458
-4.49606e-05
0.00117822
-9.17377e-05
3.99321e-05
-0.000277822
0.000238198
7.6237e-05
9.65668e-05
0.000715245
0.000100878
-0.000816463
-4.03019e-07
-0.000803216
0.000814995
-0.00101875
0.000487582
-6.87401e-05
-0.000103196
0.000872864
-0.000100498
-7.94913e-05
0.000187131
0.000116573
0.00111523
-0.00126954
3.91899e-05
-0.00115299
0.000232602
-0.000210548
-0.000971022
0.000951363
3.09364e-05
-0.000580069
0.000767888
8.24258e-05
0.000716139
-0.000677798
3.23361e-05
0.000911915
-0.000944542
0.000730862
-0.000713628
-0.00119461
-0.000132804
0.00137578
0.000787313
-6.95284e-05
-0.000857787
4.92295e-05
-0.000775073
0.000710293
-2.09765e-05
-0.000306472
0.000324677
-0.000715829
0.000806536
-0.00034431
-4.01996e-05
-0.00102874
0.000947963
6.27719e-05
0.00100542
7.60456e-05
-0.000805908
0.000870072
0.000175943
-4.4678e-05
-0.0011805
0.000215342
-0.000194843
-0.000794855
0.00110401
-0.00119861
-0.000275647
-0.000924271
0.00103714
-0.00010057
-0.000140433
-3.31756e-05
0.000851899
-0.000837302
-5.30803e-05
0.000741362
-0.000854462
0.00089107
-6.46093e-05
-8.55914e-05
0.000613828
0.000121758
0.000617163
3.6885e-06
-0.000613186
0.000976386
6.44823e-05
-0.000243904
0.000530877
0.000637662
-2.18321e-05
-0.000115855
-0.000384724
-0.000281541
0.000650716
9.65615e-05
0.000896016
-0.00100928
-0.000272398
3.1956e-05
9.93976e-08
2.83123e-06
-2.45645e-06
-0.000736852
0.000650944
0.00034438
-0.000140735
-0.000188322
0.000576007
-6.52538e-06
-0.000775485
0.00073539
0.00136027
-0.00126262
-8.0226e-05
0.00108351
8.43448e-05
0.000767288
-5.05004e-05
-4.82063e-05
-0.000920512
-7.55242e-05
0.000989357
-0.000837904
8.8782e-05
0.000743407
0.000414236
0.000936321
0.000841027
5.92512e-05
-0.00112598
0.00139841
-0.000247188
-0.00113456
0.00110706
-0.00101939
-0.000109427
-1.66475e-06
6.1311e-07
4.25471e-06
0.000829956
-0.000833656
-0.000128906
0.0013013
-6.58532e-05
0.00130024
-4.63808e-05
-0.00130591
3.37926e-05
-0.000949436
0.000915355
0.000150659
1.95858e-05
0.00091403
5.18464e-05
-0.000980742
0.000844528
0.000118884
-0.000978171
0.00113846
-4.94825e-05
-0.00107529
-3.25663e-05
-0.000228793
-0.000347704
-0.000419729
0.00119786
-0.000364807
-0.00109632
0.00116743
-0.000214964
-0.000913426
0.000976106
-5.78912e-05
-0.00122238
0.00108634
0.000989447
-0.000939326
0.000202476
-0.00110367
8.89803e-05
-0.000348309
-0.00083595
0.000435496
-0.00119326
0.000237217
0.00095641
-7.33413e-05
0.000773329
-5.13683e-05
0.00083029
-0.000797604
-3.70275e-05
1.03039e-05
0.000606175
-0.000627428
-6.21943e-05
0.000997706
-0.00053435
0.00116928
-0.00124817
-0.00117291
0.00139311
-0.00125782
-0.00012428
0.000100532
0.0011157
-0.00121728
-0.000291765
-0.000586923
-2.58631e-05
-0.00103591
0.00113119
0.00138324
-0.000816352
0.000678759
3.97894e-05
0.00115671
-0.00119945
-0.000161936
0.000188312
-2.98328e-05
-0.00124583
0.00011637
0.000818937
-6.76922e-05
0.000812778
-0.000813573
0.0010667
-5.41998e-05
0.00122535
-0.00119417
2.46069e-05
-0.000188279
0.000932567
-0.000978489
0.000850769
-0.000843264
-1.86355e-05
0.0011576
-4.97859e-05
-0.000738911
4.07091e-05
-6.27821e-05
0.00104223
-0.000948256
0.000333397
0.000164848
-0.000247093
0.00120322
-5.22184e-05
0.00106255
-5.9721e-05
0.000748654
-0.00076374
-4.47662e-06
1.33636e-05
-1.91816e-05
0.000655758
-0.000663772
-4.03274e-05
-0.000121462
0.000565717
-0.000148257
-0.000891657
0.00103716
4.36232e-05
0.000812709
-5.59874e-05
0.00082184
0.000943516
6.15504e-05
0.00129753
-3.86656e-05
0.000107935
0.000704045
-5.22769e-05
0.000980648
-1.69226e-05
0.000853989
-0.000742787
0.000687062
0.000833778
-0.000865519
0.000595625
-0.000350547
-7.78649e-05
0.000990884
0.000287529
-0.000248456
3.04701e-05
0.000699451
-0.000729184
-0.000973189
4.6876e-05
-8.79367e-05
7.59375e-06
7.8774e-05
-0.000677303
-5.3008e-05
-7.34183e-05
0.000798155
1.7725e-05
5.62063e-05
0.000430524
-0.000194781
-0.00052206
0.000743536
-2.24074e-05
-0.000715365
-5.23111e-05