/*--------------------------------*- C++ -*----------------------------------*\
| =========                 |                                                 |
| \\      /  F ield         | OpenFOAM: The Open Source CFD Toolbox           |
|  \\    /   O peration     | Version:  v2012                                 |
|   \\  /    A nd           | Website:  www.openfoam.com                      |
|    \\/     M anipulation  |                                                 |
\*---------------------------------------------------------------------------*/
FoamFile
{
    version     2.0;
    format      ascii;
    class       volVectorField;
    location    "400";
    object      ddtCorrDdt0(U);
}
// * * * * * * * * * * * * * * * * * * * * * * * * * * * * * * * * * * * * * //

dimensions      [0 1 -2 0 0 0 0];


internalField   nonuniform List<vector> 
18355
(
(0.14522 -0.099158 1.93623e-18)
(-7.56316e-05 -3.82833e-05 -6.37686e-19)
(-0.0952056 0.0542944 -2.19512e-18)
(-0.000187199 -5.68379e-06 2.59528e-19)
(0.0177246 -0.00595884 5.57124e-20)
(0.0125258 0.0844813 -3.47504e-19)
(-0.00119024 0.000656459 -4.57156e-20)
(0.0171116 -0.00930967 -1.88459e-20)
(-8.05715e-05 -9.72287e-06 -2.96952e-19)
(-0.062458 -0.0292979 -6.66971e-20)
(0.00019373 0.00626141 2.01829e-19)
(-0.014226 0.0429273 3.35392e-18)
(-0.0144281 0.0450176 -7.74447e-18)
(0.119746 -0.0480811 -1.64748e-19)
(-9.07402e-05 -2.16295e-05 -1.65698e-19)
(-4.80604e-05 4.54888e-05 -1.2413e-19)
(-0.000189625 -1.00402e-05 -1.92432e-19)
(-0.00450522 0.00241107 4.1373e-19)
(-0.101977 -0.0499592 -5.44649e-19)
(0.00166028 -0.00236171 6.23692e-19)
(0.0839999 0.0278087 -2.14291e-20)
(7.18411e-05 -0.000276386 -3.97164e-19)
(-7.50675e-05 4.51425e-05 -1.24871e-20)
(0.00212664 0.0802439 7.97639e-19)
(-7.11572e-05 4.58626e-05 8.32032e-20)
(-0.000563733 0.00149736 -3.68118e-19)
(-0.000849646 0.000969002 -1.22994e-19)
(-0.000190359 -1.31318e-05 1.95316e-19)
(-8.24738e-05 -4.20495e-06 2.68341e-19)
(-0.000788406 0.00733496 -3.38351e-20)
(-0.0382921 0.292693 -4.7742e-18)
(0.0231268 0.00963323 3.07995e-19)
(9.82804e-05 8.6526e-05 2.69378e-20)
(-4.84022e-05 -8.42777e-05 4.11232e-19)
(-5.91272e-05 -1.59442e-06 2.0977e-20)
(0.0017007 -0.000314772 -1.7215e-19)
(-0.00534411 -0.00219042 1.27418e-18)
(0.001874 -0.000175854 3.721e-19)
(-0.000917879 0.00816026 -1.0564e-18)
(-0.000639941 0.000504747 6.65603e-19)
(-0.00016332 1.54341e-05 -2.05351e-18)
(0.000220446 0.00700339 -4.2274e-19)
(-5.50864e-05 -8.63742e-05 6.44227e-19)
(-7.8075e-05 -4.12373e-05 -2.08349e-19)
(-7.78863e-05 -2.93581e-05 -1.10473e-20)
(-0.00160792 0.0692601 6.49844e-18)
(-0.000140973 -0.000156887 -2.5791e-20)
(-0.000140339 -0.0001551 1.59527e-19)
(-0.0529629 0.260976 4.29765e-18)
(0.00054335 -0.000207594 -1.85651e-19)
(-2.52022e-05 -3.10724e-06 -8.40786e-19)
(0.0961159 0.0592501 2.29165e-18)
(0.000630537 -0.00026486 -4.40974e-20)
(-0.0164047 -0.094514 -1.24645e-18)
(-0.000218788 -6.35023e-05 8.60453e-19)
(0.00216154 -0.00238252 -1.98714e-19)
(-3.34741e-05 5.72219e-07 3.46084e-19)
(-0.0897302 0.504753 3.02992e-18)
(-0.000351864 0.00170234 6.12158e-21)
(0.00633335 0.0897336 2.79275e-18)
(-5.18456e-05 -8.8046e-05 -9.89901e-19)
(-0.0277222 0.0268144 -7.50768e-18)
(-0.00866278 -0.0922715 9.8939e-19)
(-0.0012363 -0.00143767 -6.00484e-19)
(0.0336192 0.00159228 3.42731e-19)
(-2.80848e-05 7.08073e-06 3.47179e-19)
(0.00122007 -0.00206485 -3.86438e-20)
(-0.00539412 -0.00254499 -9.7023e-19)
(-2.99711e-05 -2.3961e-05 1.06746e-18)
(-0.0626971 0.0017526 -4.62475e-19)
(4.20071e-05 -2.34369e-05 6.19101e-19)
(-0.000217596 -6.94687e-05 1.40355e-18)
(0.0171302 0.00765809 -1.4345e-19)
(-0.00689961 0.00146423 7.1999e-19)
(0.0282041 0.0295629 -1.02199e-19)
(-3.5912e-05 -5.16629e-05 7.84465e-19)
(-0.0917598 0.510531 5.94037e-18)
(-4.07613e-05 -6.29381e-05 -1.433e-19)
(5.38304e-06 -3.73035e-05 -4.96972e-19)
(0.0232026 0.0327546 -5.05172e-19)
(0.00139428 -0.00191703 1.70247e-18)
(0.0111178 0.0433325 -2.6539e-19)
(-3.33286e-05 -3.61444e-05 -1.503e-18)
(0.00290844 -0.00231362 -1.50386e-18)
(0.0138745 -0.0232936 -9.92505e-19)
(-3.62392e-05 -1.30219e-06 -7.90918e-21)
(-0.000113865 -1.00949e-05 1.46372e-19)
(0.0020002 -0.0180859 6.69514e-21)
(-0.00011176 5.43381e-05 -2.36711e-19)
(0.00363542 -0.0182371 -2.0398e-18)
(0.0238069 0.011193 -9.02072e-18)
(0.0721369 0.0255395 7.07512e-19)
(0.00419518 0.0404881 1.93524e-19)
(0.000573045 -9.47979e-05 -8.64244e-19)
(-0.0529842 -0.134631 -1.44594e-18)
(0.000665172 -0.0020919 4.03654e-19)
(-9.85338e-05 -4.80122e-06 1.01149e-20)
(0.000488831 -0.00166547 1.89246e-19)
(-0.0403251 -0.0240858 1.74871e-19)
(9.75381e-05 -0.000179923 5.1555e-19)
(0.012747 -0.0216487 8.84404e-19)
(-5.02881e-07 -7.07934e-05 2.89526e-19)
(0.000482286 -7.25635e-05 1.20827e-18)
(-6.49345e-05 -4.03026e-05 -3.54653e-20)
(0.00185103 -0.0019259 2.77856e-18)
(-4.27136e-05 6.01618e-05 -9.20208e-20)
(0.0332217 0.00425617 1.48659e-19)
(-0.047793 -0.163493 6.27863e-18)
(-0.00384189 -0.0104669 1.18567e-18)
(-6.14121e-05 -2.60476e-05 -2.35985e-19)
(-3.16464e-05 9.64661e-07 1.42955e-19)
(-3.60493e-05 3.30035e-06 2.39694e-19)
(0.00814406 0.00965396 -4.39487e-19)
(0.00276631 -0.00196404 3.75959e-19)
(-0.0230667 0.0867372 -5.1519e-18)
(0.00682557 0.00242819 -1.97761e-19)
(-2.37356e-05 -8.05847e-05 -1.76659e-20)
(0.027826 0.0398019 6.2128e-19)
(0.00129407 -0.000607691 2.63009e-18)
(0.000954562 -0.00196633 3.0934e-19)
(-0.0563141 -0.00277429 3.0302e-19)
(-0.0924289 0.0609413 -1.7514e-18)
(0.0211567 0.0817698 1.50425e-18)
(0.00341868 -0.0234972 1.83159e-20)
(0.0235339 0.0421554 -8.3275e-19)
(-0.00517181 0.0748696 -2.54421e-18)
(-0.00114508 0.000883244 2.11621e-19)
(-0.000186596 -6.35762e-06 1.10015e-19)
(0.159534 -0.114736 -2.74188e-18)
(-0.000118717 -0.000128885 -1.02902e-18)
(-9.93891e-05 1.5234e-06 -1.07769e-20)
(0.0895499 0.0565432 -4.07548e-18)
(-0.00023041 -4.9079e-05 1.0935e-18)
(-0.0437829 0.00174852 -1.13971e-18)
(0.0426277 -0.0397357 -7.35818e-20)
(-0.000116669 6.34545e-05 2.74921e-19)
(-0.106774 -0.0426715 3.33e-18)
(-0.0674053 -0.0416618 3.14463e-19)
(-0.000157082 -1.17069e-06 1.03824e-18)
(0.0761204 0.0278071 2.26573e-20)
(-0.00248722 -0.00284943 2.75473e-18)
(0.00486887 0.0186015 2.19825e-19)
(-0.000113285 -0.00014042 8.82958e-21)
(0.125815 0.122969 -4.69229e-18)
(0.0453253 -0.0366384 3.18994e-19)
(-0.000175616 1.38201e-05 -1.72153e-18)
(0.0343154 0.0940666 -1.30889e-18)
(-0.000127115 -9.11367e-05 -2.97792e-20)
(0.00717022 0.010308 -2.7152e-19)
(-0.033264 0.0712482 -6.80872e-19)
(-0.000188098 -1.79359e-05 1.25509e-19)
(0.000849943 -0.00183801 -2.3365e-18)
(-0.00139914 0.000772278 -1.10833e-19)
(-0.00252727 0.00755448 -4.51153e-19)
(-5.77584e-05 -8.57741e-05 -6.69309e-19)
(-7.83533e-05 1.53269e-05 -1.29033e-19)
(-0.000184977 -8.82782e-06 -2.31277e-19)
(-3.28509e-05 -2.32287e-06 2.99809e-20)
(-0.000112811 -0.00014807 -1.53892e-21)
(-7.98835e-05 1.4019e-05 8.69823e-21)
(-0.00352052 0.00394603 -1.43363e-19)
(-0.000235909 -4.2673e-05 4.51913e-19)
(-5.93005e-05 -1.01196e-05 -4.0229e-19)
(0.000911409 0.0118761 1.35126e-19)
(-0.00616188 0.0039055 -1.51377e-18)
(-0.0444466 -0.00360019 2.28465e-19)
(0.0555435 0.0891974 -9.29001e-19)
(0.197377 -0.0552873 -5.81895e-18)
(0.137962 -0.0208169 -7.04694e-19)
(-0.00229876 -0.00306006 -3.6383e-19)
(-5.73374e-05 1.9352e-06 2.81902e-20)
(-0.040993 0.000773301 -6.68349e-19)
(-4.90811e-05 3.00283e-06 -2.1447e-19)
(-0.0768499 0.192529 -4.81104e-18)
(-4.5314e-05 4.0904e-06 -5.23315e-20)
(-0.000173847 9.74082e-06 -1.53946e-18)
(-3.79216e-05 4.61652e-06 -2.57088e-19)
(-7.17128e-05 -7.45878e-05 -2.72052e-20)
(-0.00146629 0.000120455 1.95234e-18)
(0.00713306 -0.00433689 1.1299e-18)
(-4.87303e-05 -3.43905e-06 6.76571e-20)
(-0.0388267 -0.0096048 -1.10865e-19)
(-2.14097e-05 -0.00019677 -1.94702e-18)
(-0.000189348 -1.21517e-06 -3.20063e-19)
(-0.0235908 0.00137669 1.8109e-20)
(0.000460107 1.93364e-05 -8.99789e-19)
(-7.72965e-05 2.78306e-07 -1.42963e-20)
(0.00603202 -0.0166401 -1.0452e-18)
(-0.000176898 9.8117e-05 -1.07015e-18)
(-0.00078556 0.00124492 4.23955e-19)
(-0.00498446 0.0722442 6.10066e-18)
(-0.0409145 -0.0207677 -1.21075e-18)
(-7.17491e-05 5.56327e-06 2.71169e-19)
(-1.33298e-05 4.01508e-05 -6.30761e-20)
(-0.00012184 4.20044e-05 4.90865e-19)
(-0.0344032 0.0915469 -2.27838e-18)
(-2.36528e-05 -3.81645e-06 2.08777e-19)
(0.0580608 -0.1963 -3.53213e-18)
(-7.43572e-05 -2.67312e-05 8.28069e-19)
(0.130254 -0.00427362 4.89866e-19)
(0.000367335 2.20599e-05 -1.37384e-20)
(-0.00370766 -0.000541149 7.64557e-21)
(-0.00215054 0.00838887 -3.64969e-20)
(-6.31348e-05 -7.99982e-06 -3.62554e-19)
(0.177913 -0.08528 6.07649e-18)
(-0.000217412 -5.18719e-05 1.81844e-18)
(0.148542 -0.0189973 8.57701e-19)
(-0.000193309 -1.13583e-05 -7.1543e-20)
(3.19494e-05 6.20251e-05 8.94415e-20)
(-0.00054972 0.00113603 -2.84711e-19)
(-0.000174903 -3.22737e-05 5.84497e-20)
(-0.0133515 0.0418165 -1.19104e-18)
(-0.00338753 0.000190208 -1.2525e-19)
(-0.00271477 0.000218753 4.3045e-19)
(-0.000140034 -9.0858e-05 -1.76907e-20)
(-0.0855707 0.135577 1.0916e-18)
(0.0073781 -0.00369788 -9.61526e-20)
(-0.00381186 -0.000705454 6.51074e-18)
(-0.000183074 -8.47188e-05 -2.06086e-18)
(-0.000125724 -0.000173639 -2.49856e-20)
(-0.00350109 -0.00971578 -4.06709e-20)
(-1.09601e-05 0.00010457 2.03407e-20)
(0.000186172 -0.0159302 2.0152e-18)
(0.00350312 0.00652032 -2.70643e-19)
(-0.0234946 -0.0164056 8.52417e-19)
(-0.00356573 -0.00254901 6.17634e-19)
(-4.01495e-06 0.000102001 2.09135e-19)
(-0.0617073 -0.0526092 1.17825e-18)
(0.0781518 -0.0836142 -1.49306e-18)
(0.0146199 0.002468 -1.5341e-20)
(-0.00103853 -0.00058102 2.96311e-19)
(0.00166835 -0.00208683 -2.38165e-18)
(-0.0540848 0.00448589 -7.55661e-20)
(-2.6977e-06 0.0001059 -1.13025e-19)
(-0.00147859 0.0125004 4.84057e-19)
(-0.0203012 -0.0124523 -1.37479e-18)
(-0.000764911 0.000187036 -5.84454e-18)
(-0.0021575 0.0711413 -1.02981e-17)
(-0.00323265 0.00117982 4.68229e-18)
(-0.00249872 0.000734102 1.21386e-19)
(-6.81301e-05 -2.09436e-05 4.01511e-19)
(-0.00137108 0.00013363 -3.34449e-18)
(-0.00200804 0.000607696 -4.06166e-19)
(0.0132581 0.000478355 -3.01306e-19)
(-0.000199942 -7.06902e-05 2.92361e-18)
(-0.000222156 -4.56765e-05 -1.49003e-18)
(-0.000155062 -0.0001328 1.13262e-19)
(-0.0168604 0.0373378 1.41089e-18)
(-0.0090144 0.0550347 -2.40033e-19)
(-9.42911e-06 0.000115188 2.89271e-21)
(-0.00148892 -0.00181491 1.82549e-19)
(-0.0146911 0.0499906 1.84227e-19)
(-0.0555518 0.0517721 1.14579e-18)
(0.00466921 0.00577114 -2.33581e-19)
(-7.35122e-05 -6.83247e-05 3.0737e-20)
(-0.000328029 0.0122538 -3.62866e-19)
(-0.00329833 0.00103064 -8.76224e-19)
(-0.000177923 -2.59864e-06 1.47727e-18)
(-0.00304803 -0.00318628 7.42344e-19)
(-0.000105019 5.37507e-05 5.27511e-20)
(-0.0387865 0.0596889 4.30243e-19)
(0.0256634 -0.00897809 -3.75927e-19)
(-0.0354729 -0.0180771 9.9883e-19)
(-0.00656568 0.00270583 6.84507e-18)
(-0.00246574 0.0093394 -1.59394e-20)
(-0.0118763 0.0148171 5.11511e-19)
(0.00722827 0.0132071 1.95062e-18)
(-0.0442035 -0.0305572 2.07957e-19)
(-0.000107659 5.64473e-05 1.40266e-19)
(-0.000224509 -5.20697e-05 -1.76413e-18)
(-0.000342428 0.00160835 -7.96716e-19)
(-6.0834e-05 -4.73943e-05 -7.52745e-20)
(-0.00370627 -0.00103064 3.21474e-19)
(-0.00400113 -0.000599945 -5.20427e-21)
(-0.000176166 -5.45208e-05 -5.50169e-20)
(-0.000143444 -8.29475e-05 1.08709e-18)
(-0.0131917 -0.00903905 3.62583e-20)
(-0.000112414 6.37091e-05 -2.30728e-19)
(0.0174671 -0.0486898 4.21546e-19)
(-0.0607623 0.00859663 6.37118e-19)
(-0.0121826 -0.00566787 -7.26286e-19)
(-0.000152873 -2.78934e-05 -9.3522e-19)
(0.00734794 0.00377979 -1.04336e-19)
(-6.20833e-05 -5.81462e-05 5.31072e-19)
(-0.000804954 -0.0184559 8.26887e-19)
(-0.000247459 6.50948e-06 2.29288e-18)
(0.00894619 -0.00345417 3.09404e-19)
(-0.000151859 1.98835e-05 2.74003e-19)
(0.00818037 -0.00319816 -8.07337e-19)
(-0.013435 0.0973164 -4.37365e-19)
(6.97841e-05 7.88686e-05 -1.33139e-19)
(-0.019127 0.000622441 5.87774e-18)
(0.000940522 -0.000835187 2.50049e-18)
(-0.000128698 -0.00412585 -4.48781e-19)
(0.0093281 0.011595 -2.39846e-19)
(-9.63898e-05 -1.52595e-05 -1.33357e-19)
(-1.02607e-05 5.86013e-05 1.50879e-19)
(0.0159878 -0.0447364 -1.77238e-18)
(-0.000150558 -6.81466e-05 -1.20704e-18)
(0.00796677 0.016632 -6.13313e-19)
(-0.00562227 -0.00151132 1.29243e-18)
(-0.0236935 -0.414941 1.62757e-17)
(-0.00504252 -0.0188549 -4.70367e-19)
(-0.0381552 -0.0181717 6.08672e-19)
(-0.00431439 0.000579746 -4.66523e-19)
(-0.0149981 -0.0103353 -4.09973e-19)
(0.000361625 -0.00028038 1.99555e-19)
(-0.00258891 0.000860586 2.37918e-18)
(-0.00632159 0.0025379 6.4999e-18)
(-0.0195183 -0.000342013 -4.07319e-19)
(-0.0355104 -0.00733834 1.52821e-19)
(-0.0656787 0.0724586 -8.08631e-19)
(-0.000126774 -0.000168559 5.38835e-20)
(0.00515518 0.000955227 6.27439e-19)
(-0.00211176 -0.0792966 3.25225e-19)
(0.00798266 0.00416034 -7.58632e-20)
(-0.000128991 -0.000170397 -1.67924e-20)
(-0.000132843 -0.000155011 -1.26248e-20)
(-0.000173636 -8.91283e-05 -1.46288e-19)
(-0.0132926 0.0117238 6.7589e-18)
(-0.0820336 0.0818988 2.11818e-20)
(-0.0235441 0.134865 -1.0825e-18)
(-0.0349789 -0.0167812 -4.84461e-20)
(-0.0140843 -0.00645108 7.72348e-19)
(-0.0025873 -0.00234441 6.65875e-18)
(-0.021041 0.0262636 1.22875e-19)
(-0.000112227 -6.36309e-05 3.01112e-20)
(-0.000228005 -2.98965e-05 2.17783e-18)
(-0.00238635 -0.00249541 -5.73584e-21)
(-0.000243778 -4.48309e-05 -6.0954e-19)
(0.0147033 0.0010368 9.94543e-20)
(-5.48805e-05 -3.7441e-06 1.68969e-20)
(-0.0759638 0.0472296 2.52698e-19)
(-2.99968e-05 6.88149e-05 7.13359e-20)
(0.0228473 0.0508518 5.52896e-20)
(-0.000189689 1.41883e-05 -4.9159e-20)
(-0.000570314 0.000437013 -1.13542e-19)
(-0.00510788 -0.000190612 -4.90727e-19)
(-0.023268 0.0499074 -7.43827e-18)
(0.20274 -0.042743 -7.70235e-18)
(0.0131778 -0.000736575 1.36945e-19)
(-0.0277085 -0.0188116 -1.31521e-19)
(0.00012805 0.000151386 -1.25749e-18)
(-0.000114444 4.792e-05 2.87998e-19)
(-0.000243167 -5.40366e-05 7.87847e-19)
(-0.00344183 -0.00438098 -2.30963e-19)
(-0.0707274 -0.021279 -3.066e-19)
(-0.000122045 2.87695e-05 9.60813e-20)
(-0.000160785 9.39887e-06 2.35569e-18)
(-0.0158929 0.0198237 -3.45599e-19)
(0.000119033 -4.50131e-06 5.20028e-19)
(-0.000126955 4.67155e-05 -1.26535e-19)
(-0.0416748 0.0555918 2.58937e-18)
(-0.00330818 -0.00346939 -4.11777e-20)
(-0.000165807 -0.000114046 -1.90182e-19)
(-0.000966214 -0.000251532 4.34979e-19)
(0.0100451 -0.00313664 7.40076e-20)
(-0.000165174 -9.99119e-06 -1.48555e-18)
(0.0102467 -0.00223803 -1.1021e-19)
(8.91227e-05 0.000164244 2.1971e-19)
(-0.000167678 7.60718e-06 -2.85737e-18)
(6.05892e-05 -0.00015707 -2.12677e-18)
(-0.00436321 0.0865522 -1.25731e-17)
(-0.0145434 0.0186403 2.52783e-19)
(5.09655e-05 0.000143667 5.72168e-20)
(-0.00011128 -0.000132215 -5.34873e-22)
(-0.0100456 -0.00953856 -2.95841e-19)
(-0.000177573 -7.92448e-05 -2.24498e-19)
(-6.09936e-05 9.40378e-07 2.60333e-19)
(-0.0311208 0.0240619 -1.61958e-18)
(-0.0100193 0.0210155 1.04841e-18)
(-0.0133988 -0.0134587 -1.27278e-18)
(-0.000241332 -7.65423e-05 -1.96906e-18)
(-0.000805018 0.000160262 2.81585e-18)
(-0.0164562 0.0462176 5.3233e-18)
(0.00242788 0.000574211 -6.50723e-19)
(0.00189528 0.0119074 -2.75753e-19)
(-0.00264333 0.000982173 -5.72927e-19)
(8.16364e-06 5.47095e-05 -1.27303e-19)
(-0.00932977 -0.00761901 1.3691e-19)
(0.0141007 0.00325985 1.24665e-18)
(-2.28429e-05 -0.000138281 -1.14375e-18)
(-0.000169689 8.67905e-06 -7.33219e-19)
(-0.00406739 0.00288886 -2.5952e-19)
(-0.000114207 3.59635e-06 -9.32473e-20)
(-0.00256019 0.00315474 1.04822e-18)
(-0.000129021 4.29523e-05 -4.91862e-19)
(0.0179788 0.0341648 -1.2188e-18)
(-0.00175186 0.000956778 2.58267e-19)
(0.000485562 -0.00169692 -1.58276e-18)
(-2.8056e-05 3.80092e-06 -4.78937e-19)
(-0.000170095 -0.000102739 1.77052e-19)
(-0.00329994 -0.00119859 -2.24041e-19)
(-0.00100494 0.00191419 4.11129e-19)
(-0.0270895 0.0139354 5.89238e-19)
(0.176765 0.097101 2.77392e-18)
(-0.019975 0.0249257 -3.61535e-19)
(-0.00320127 -0.00131635 5.80162e-20)
(-0.0584053 0.0481729 -3.66512e-19)
(0.0056955 0.00666949 2.27956e-19)
(-0.000184835 1.62691e-05 4.78546e-19)
(-4.52448e-05 -4.23559e-06 1.18451e-20)
(-0.0168814 0.000568944 -5.50515e-18)
(-0.000182257 0.00010067 -1.697e-18)
(-0.0146714 -0.0149283 -1.1714e-18)
(-0.001019 0.000515424 -5.34117e-19)
(-0.00966565 0.00266128 4.32474e-19)
(-0.0167892 0.0300892 1.044e-18)
(-0.0342634 -0.0189854 -1.17644e-19)
(0.202045 -0.0177445 6.75362e-18)
(-0.0332928 -0.0308055 -2.52075e-19)
(-6.11977e-05 -3.88935e-05 1.2943e-20)
(-0.0370255 0.195473 -3.42016e-18)
(7.3352e-05 -0.000202588 1.1289e-18)
(-0.000171084 -6.63628e-05 -4.17693e-19)
(0.083111 0.0315714 2.81844e-19)
(-0.000190321 2.78341e-05 3.91252e-19)
(-0.00726621 -0.0066084 -3.53546e-19)
(-0.00109239 0.000597561 -4.01187e-20)
(0.0364759 0.00601562 -3.03405e-19)
(-0.000190524 2.0776e-05 -9.48472e-19)
(-0.038649 0.00308473 -4.9402e-19)
(0.0460702 0.0638764 -1.14541e-19)
(-0.0324454 -0.0140633 1.38763e-18)
(-0.000307259 3.3931e-05 -4.24492e-19)
(-5.96541e-05 -4.90126e-05 -1.28102e-19)
(-0.0349429 -0.0143262 -1.18591e-18)
(0.00121364 -0.000746749 -5.92913e-19)
(-0.000545451 -4.77383e-05 4.08111e-19)
(-0.054772 -0.0205852 1.57782e-19)
(0.0208918 -0.00886044 4.90902e-19)
(-0.000168977 -6.80247e-05 1.91387e-19)
(-0.017749 0.000878295 -1.57815e-19)
(-0.0282483 0.0128268 5.32004e-19)
(-6.37331e-05 -4.6461e-05 -1.26306e-21)
(-0.000444932 0.000830624 -1.94493e-19)
(0.0117084 -0.00106639 2.13328e-19)
(-0.119138 0.027114 -2.5907e-18)
(-0.0107767 -0.0139883 2.99476e-18)
(0.000104467 4.28821e-05 1.70503e-18)
(0.000371325 -0.000350774 -6.72122e-20)
(-0.0133011 0.0010455 -3.33423e-18)
(-0.000122073 1.8816e-06 1.44216e-19)
(-8.87941e-05 -7.40033e-05 8.54651e-19)
(-0.000798406 -0.00015319 -3.06403e-19)
(-0.0311635 -0.0153265 -2.51832e-20)
(0.187551 0.0853049 -2.35917e-18)
(-7.3114e-06 4.05275e-05 1.65637e-19)
(-5.50219e-05 -1.98484e-06 1.22694e-19)
(-0.000184567 -7.78746e-06 2.88895e-19)
(-0.0238746 0.0526406 -1.34733e-18)
(0.0130438 0.00464556 -9.64483e-19)
(1.87387e-05 8.4771e-05 1.88934e-19)
(-0.00615208 -0.00705099 1.36767e-19)
(-0.000896328 -0.0167459 7.3456e-19)
(-0.000278572 0.000190935 2.10083e-18)
(-0.0309546 0.0944661 2.7341e-18)
(-0.0297663 0.026682 1.48396e-18)
(-3.28595e-06 -0.000222231 2.67108e-18)
(-0.000119575 2.733e-06 1.42274e-19)
(-0.00991565 -0.0130734 2.48672e-18)
(-0.0193823 0.0542943 5.29158e-19)
(0.00803664 -0.447852 -4.29694e-18)
(-2.81847e-05 8.0016e-06 5.75427e-19)
(-0.231133 -0.418495 -7.27016e-18)
(-0.000154592 4.48171e-07 -7.8098e-19)
(-1.42418e-05 2.53061e-05 -6.77383e-19)
(-0.00389548 -0.0218319 -1.85017e-18)
(0.00119851 -0.00104809 -1.30492e-19)
(0.0213858 0.0351947 -2.30177e-19)
(0.017576 0.00585121 1.74721e-20)
(0.000561517 -0.00184511 3.06891e-18)
(-0.00784685 0.00146372 1.07516e-18)
(3.94653e-05 -0.000298941 5.27809e-19)
(-0.0443297 0.0527899 1.17839e-18)
(0.00151315 -0.000629907 -1.34337e-18)
(-0.00566774 0.00250269 4.23042e-18)
(0.000189364 -6.64292e-05 -4.90307e-19)
(-4.69306e-05 -2.62843e-05 1.49261e-19)
(-0.000422902 0.000114214 -2.6333e-18)
(-3.73453e-05 -8.63477e-06 -3.03655e-19)
(-0.032572 0.0237447 6.18846e-19)
(0.163114 0.0999765 1.24313e-20)
(0.0360267 0.00879191 7.58708e-19)
(-0.00516437 0.00269101 -2.49024e-19)
(-0.000617048 0.000186794 1.94925e-20)
(0.000182597 -1.66139e-05 1.04239e-18)
(-0.000711625 0.00144396 4.0421e-19)
(-0.00420023 0.0010495 1.84374e-19)
(-0.00065713 -0.00187631 -2.06032e-19)
(-0.000215974 6.33235e-05 -1.9859e-19)
(-0.000179183 0.000168727 -3.86562e-18)
(-0.0021765 -0.019181 4.46227e-19)
(-6.42643e-05 -2.48652e-05 2.5442e-19)
(-0.000237849 -0.00199081 -2.64207e-20)
(-0.226823 -0.326801 3.79626e-18)
(-0.0460725 -0.280888 -9.41154e-18)
(-0.00816811 -0.0826609 -9.19719e-19)
(-0.000148003 -0.000113954 8.19933e-19)
(-3.98425e-05 -2.27212e-06 2.58403e-19)
(0.0115261 -0.00208149 -3.81555e-19)
(5.70051e-05 -0.000245364 -2.45268e-19)
(-0.0335826 0.0553821 2.7859e-19)
(-0.126485 0.0580356 2.58407e-18)
(0.00441893 0.00121488 -6.0157e-19)
(0.00362552 -0.0014093 1.01503e-18)
(-0.00751808 -0.00327325 -4.91384e-19)
(-0.000272327 -0.000610907 -3.05388e-18)
(-0.000930783 -0.00203054 1.6093e-18)
(0.183978 0.0709654 4.49118e-18)
(0.0054739 -0.0109527 1.46892e-18)
(0.00129554 -0.000184392 8.0072e-20)
(-0.0286746 0.108196 1.38525e-19)
(-0.000104977 -1.38066e-05 8.52848e-21)
(0.171581 -0.0864108 1.64537e-17)
(-0.0337742 0.183254 -1.54277e-18)
(-0.0035595 0.00133464 -3.6462e-18)
(-0.00050097 0.000755228 9.06091e-20)
(0.191689 0.0676129 1.66816e-18)
(-0.000178992 -4.98762e-05 1.09657e-19)
(-0.0363399 0.00209705 -1.22488e-19)
(0.0231157 0.0117277 2.81571e-19)
(0.0161056 -0.0714309 -2.59422e-20)
(0.00159433 -0.00045599 -1.08997e-18)
(-0.000416623 0.000135949 -5.64368e-18)
(-0.000276798 0.000155956 2.83871e-18)
(0.0415768 -0.0663342 1.05913e-18)
(0.0185099 -0.432821 1.39668e-17)
(0.0234205 -0.0553251 1.60353e-19)
(0.0593823 0.038713 -6.87427e-20)
(-0.00406461 -0.000281308 -8.99257e-20)
(-0.000269607 0.000143724 -2.66526e-18)
(0.00263877 -0.00256307 -9.65456e-19)
(-0.00022292 -2.61885e-05 -4.72968e-19)
(0.00421588 -0.000817571 -3.41071e-20)
(0.0805614 0.0249088 -2.28494e-20)
(-0.10163 0.0784083 2.87e-18)
(0.150045 0.112978 -2.18614e-18)
(-0.0113876 0.113886 -7.22714e-20)
(0.00987956 0.00341089 8.36024e-19)
(0.0211319 0.00843736 -3.89673e-19)
(0.00767795 0.0122765 3.463e-19)
(-0.000144456 -0.000150592 1.40236e-19)
(-0.000198975 6.12336e-05 1.04423e-18)
(0.0111725 0.00440133 -8.69079e-19)
(-2.06383e-05 -0.00558078 5.35006e-21)
(-0.000251094 1.07171e-05 6.03597e-19)
(-0.000221273 -2.03191e-05 5.66627e-19)
(0.0303694 0.0558714 -4.88112e-19)
(-0.00010089 2.71594e-05 1.86018e-20)
(-0.0316095 0.126383 6.09514e-19)
(0.00673624 -7.88518e-05 8.96856e-19)
(-0.0377693 0.0149634 -3.70164e-19)
(-0.0164421 0.0485231 -7.07795e-18)
(-0.000198985 5.4588e-05 -7.67984e-19)
(0.00298477 -0.00169119 -2.72043e-18)
(0.120768 -0.152009 3.02638e-18)
(-0.000187952 0.00016185 9.80523e-20)
(0.119469 0.148462 6.97413e-19)
(-0.000179739 9.66219e-06 -2.56862e-19)
(0.0638031 0.0244872 7.56068e-19)
(0.00616084 -0.0104254 -1.5547e-18)
(-0.00016488 1.52752e-05 2.87341e-18)
(0.00653196 0.0129233 2.856e-19)
(-0.0445087 -0.0265061 1.078e-18)
(-0.0326034 -0.0350781 4.15535e-19)
(-6.18316e-05 -4.23444e-06 2.14115e-20)
(-2.50924e-05 3.30859e-05 -5.2693e-19)
(-0.0121233 0.000238103 -1.98209e-18)
(-0.00371454 0.00146824 2.22764e-18)
(-0.039966 0.0137414 2.70026e-18)
(-0.000151303 0.000113906 9.31752e-19)
(-0.0265544 0.0284461 1.1646e-17)
(-0.000101174 3.89234e-05 -1.33082e-20)
(-0.133526 0.0481711 2.32525e-18)
(-5.12539e-05 -1.00603e-06 -1.45544e-20)
(-2.70568e-05 -0.000208104 -4.29983e-20)
(-0.0643963 0.0660068 -8.64925e-19)
(-0.00635601 0.00292163 5.57581e-19)
(-0.0148812 -0.0125529 2.82884e-19)
(-4.08372e-05 4.56026e-06 4.6567e-20)
(0.00428294 -0.00100976 -1.61815e-18)
(0.00191721 -0.00327394 7.79892e-19)
(-0.0721799 0.0337076 -1.10485e-19)
(-0.00565897 0.141956 5.45472e-19)
(-0.00255518 -0.00161087 -1.72975e-18)
(0.00394556 0.00831126 6.1871e-19)
(-5.61025e-05 -2.36944e-06 1.39178e-20)
(0.00750917 0.00278062 6.06157e-19)
(2.59896e-05 -8.92819e-05 -1.74994e-18)
(-0.00240914 -0.00146026 -4.49986e-18)
(0.198631 0.0762975 4.34241e-18)
(-8.21121e-05 -1.42153e-05 -5.53177e-20)
(-0.0264279 0.0207016 2.16622e-19)
(-0.000241363 3.50326e-05 2.55974e-19)
(-5.95232e-05 1.0412e-06 -4.49326e-19)
(-0.00116792 -0.00262831 -3.11697e-19)
(-0.0366426 0.0453963 -2.61396e-19)
(0.00298685 0.000826617 -2.84817e-19)
(0.03726 -0.0324813 -9.73581e-19)
(-0.000472221 -0.00217665 -1.98512e-19)
(-0.0102012 0.00520595 -7.28114e-18)
(0.0301791 0.0974487 8.03999e-20)
(-0.000122534 -6.76247e-05 -1.36565e-20)
(-0.000160393 -0.000123648 2.24186e-20)
(-0.18608 -0.351469 -9.5629e-18)
(0.0044746 -0.0168206 1.04619e-18)
(-0.261344 -0.336436 -4.55368e-18)
(0.0195496 0.00303649 -5.65751e-21)
(-0.000520171 0.000327953 -6.15656e-20)
(-0.000222097 5.90605e-06 2.00214e-18)
(6.39505e-05 2.64468e-05 1.82829e-19)
(-0.00648842 0.00227911 1.00915e-18)
(0.000153927 0.000329532 3.94752e-19)
(-0.000910124 0.000480442 -6.06928e-20)
(0.0632322 -0.0426887 -1.75581e-19)
(0.0790276 0.0499882 -7.01007e-18)
(-4.85513e-05 -0.000200832 1.99797e-20)
(-0.0922417 -0.0336471 -1.89145e-18)
(-0.110241 -0.00258434 6.36225e-19)
(0.000271061 0.00484193 -7.99465e-20)
(-0.0717681 0.0725776 9.0099e-19)
(-8.66335e-05 -5.66886e-05 -3.45485e-19)
(0.0965398 -0.101639 -5.6887e-18)
(0.0446656 -0.0350475 3.57426e-19)
(-0.000212186 -6.67576e-05 -4.35992e-20)
(0.025852 0.116168 7.30768e-19)
(-0.015128 0.00122365 -2.29562e-18)
(-0.0298233 0.100616 -1.66277e-18)
(-0.0791292 0.0210328 -4.50867e-20)
(-0.00060807 -0.000293795 1.01319e-19)
(1.09664e-05 5.40676e-05 -1.81702e-19)
(-5.12251e-05 3.4121e-06 2.02182e-19)
(-0.0294263 0.00052827 -1.63216e-19)
(-0.0136687 0.0107833 -1.8688e-18)
(-0.000325942 -1.39491e-06 2.5571e-19)
(-0.000774509 0.000313426 -3.58569e-18)
(0.0590159 -0.0475023 4.63622e-20)
(8.01957e-06 -0.000188556 -7.62443e-19)
(-0.0159992 0.00139469 2.90465e-18)
(0.000128203 0.000136117 5.01156e-19)
(-0.0135433 0.00179722 -2.5686e-19)
(0.0119046 0.197223 4.20721e-18)
(0.0439751 -0.0505784 6.72473e-19)
(0.0138063 0.00385869 2.5458e-19)
(0.0338057 -0.044922 -8.26069e-19)
(0.00700624 -0.0180629 1.88353e-19)
(-0.115406 0.456453 -1.04709e-17)
(0.00342208 -0.00176023 1.44176e-18)
(-0.000115548 -8.27244e-05 -3.57095e-20)
(0.00619307 0.000597078 -7.86727e-19)
(-0.0725727 0.0110364 -1.31591e-19)
(-0.00405761 0.00726722 3.42213e-19)
(-0.0107025 0.0110364 -1.12905e-17)
(-0.000321924 2.48978e-05 6.869e-20)
(0.0683225 -0.0889419 3.66774e-18)
(-0.000185801 2.34864e-06 -4.06357e-19)
(-0.000422337 0.000349478 3.90819e-19)
(-0.226158 0.00368056 7.16637e-19)
(-5.81786e-05 3.11437e-07 -3.98971e-19)
(0.00683287 0.000141833 6.98944e-19)
(-0.0131511 -0.00957504 -1.1018e-19)
(0.0333522 -0.0307328 3.63939e-19)
(-0.000184991 0.00024374 -2.79777e-18)
(-0.000202701 1.9106e-05 -1.57138e-19)
(-0.000683191 -0.00266727 -3.18388e-18)
(0.0048255 -0.000976399 -7.36384e-20)
(-7.75923e-06 9.88293e-05 -3.60027e-19)
(0.00107001 0.00196901 -8.26014e-19)
(0.00547087 0.0157001 2.23118e-20)
(-0.0197818 -0.100782 1.19132e-18)
(0.000235528 -0.00168344 3.88994e-18)
(-5.63046e-05 -1.07729e-05 2.66276e-20)
(0.00301808 -0.0215331 5.04328e-19)
(0.0467188 0.0764126 -1.66624e-19)
(-0.000255386 6.63437e-06 2.19752e-19)
(0.0367291 -0.0312064 1.91241e-19)
(-0.0257759 0.0899474 2.26465e-18)
(-0.000279467 0.000182285 -1.03186e-18)
(-0.253027 -0.502082 -1.72475e-17)
(2.82077e-05 0.000115678 -4.17457e-20)
(-0.105486 0.0524234 4.39638e-18)
(-0.000235228 6.20474e-05 -1.77518e-18)
(-0.00133655 0.000476867 1.63324e-20)
(-0.059773 0.0659468 9.37453e-19)
(0.00190916 -0.000224419 3.40007e-19)
(-0.138044 0.110555 7.04877e-18)
(0.00015901 -0.00153489 -9.66794e-19)
(-0.000197725 2.8037e-05 2.52983e-18)
(-0.268569 -0.524183 1.79903e-17)
(-0.000243633 4.97041e-05 2.50453e-19)
(-6.23318e-05 -5.21413e-05 -7.42976e-19)
(-0.000154371 -1.18095e-05 -1.19492e-18)
(-0.000113373 -9.84158e-05 2.59921e-20)
(0.00753191 0.000365435 5.93036e-19)
(0.0015657 -0.0164035 -2.70266e-18)
(0.203049 0.00470446 -5.07779e-18)
(-6.84814e-05 1.65e-06 -3.02714e-19)
(0.130867 0.13771 -4.65472e-18)
(-0.00289364 0.00168039 -2.67819e-19)
(0.0448483 -0.0185511 1.67902e-19)
(-0.0809064 0.0152761 8.59998e-18)
(-0.000289873 0.000831333 -1.32235e-19)
(-0.000242248 -6.97999e-05 1.22892e-18)
(0.00410574 -0.00143481 1.23557e-19)
(-0.000254702 0.000263549 1.25124e-20)
(-0.0385109 0.0348395 -4.12568e-18)
(-0.000188879 -1.55078e-05 -1.2457e-18)
(-6.06446e-05 -8.79357e-05 2.0466e-19)
(-0.000101867 -8.43366e-05 1.50188e-19)
(-0.000313684 1.10818e-05 1.44598e-19)
(-0.000189808 0.000147607 -2.16622e-19)
(-0.0816706 0.080614 -6.23604e-18)
(-0.00534442 0.00351684 1.35241e-18)
(-0.0208918 -0.000352376 3.42376e-18)
(0.00143172 -0.00274932 -1.05048e-18)
(0.00515203 0.000128542 -2.51617e-18)
(-0.00300077 0.00352782 -7.00509e-19)
(-0.00560572 -0.00106297 6.40775e-19)
(0.0274963 -0.00356776 4.68131e-20)
(-6.94484e-05 7.40314e-07 -4.90208e-19)
(-0.0302485 0.024266 3.30429e-18)
(0.00542537 -0.0240839 -1.4774e-18)
(1.35384e-06 9.61762e-05 -2.1551e-19)
(-0.100503 0.0366418 -3.58919e-18)
(0.0023276 0.203613 -7.65022e-19)
(-6.28295e-05 6.5015e-06 6.70321e-19)
(0.0407527 0.00598495 -1.35855e-19)
(-4.71004e-05 -3.95875e-06 5.7183e-21)
(-0.0503675 0.0186927 1.1644e-19)
(-0.0103737 0.00470785 1.0219e-17)
(-0.00020562 -9.27967e-05 6.67622e-20)
(-0.0124372 0.000900616 3.09634e-18)
(0.00558868 0.000302617 -6.76172e-19)
(0.043594 -0.00798238 -1.41735e-19)
(-5.86113e-05 6.4572e-06 -6.59774e-19)
(-0.00288636 0.00116664 -1.16041e-17)
(0.0665835 -0.0142316 3.4495e-19)
(0.047589 -0.0156892 3.79717e-19)
(-0.0154747 0.0326569 8.31391e-19)
(-0.000197162 0.000139707 2.50731e-18)
(-0.0225688 -0.0519401 -4.22498e-19)
(-0.0176672 0.0251662 -1.10085e-17)
(0.0870242 -0.0888831 4.11148e-18)
(-0.00015671 0.000121332 2.48658e-18)
(-0.00142048 -0.000573824 -1.31725e-18)
(-0.000479187 -0.000279861 -2.20288e-19)
(-0.000199156 -7.62679e-05 -1.87098e-19)
(-0.000147791 -0.000152428 -1.12178e-19)
(-5.93819e-05 -2.75718e-06 -9.60149e-20)
(-7.96844e-05 -3.53652e-05 -1.49302e-19)
(0.0461548 0.00178367 1.13997e-19)
(-0.0047999 -0.00580318 2.8169e-20)
(-5.14724e-05 -6.79786e-06 1.05337e-20)
(-4.52396e-05 -8.02745e-05 2.7792e-19)
(-3.84713e-05 6.47498e-06 -1.65461e-19)
(1.58115e-05 9.33648e-05 1.2701e-18)
(0.0443938 -0.0146928 -9.43732e-21)
(-0.0184807 0.0239497 9.53238e-18)
(6.01893e-05 7.83455e-05 -2.10797e-19)
(0.00496625 -0.000477946 4.93936e-19)
(-0.000476477 0.000137043 3.70743e-19)
(-0.000560312 0.000157377 -2.49574e-19)
(-0.00127306 -0.000566715 4.45493e-19)
(-0.000116008 -0.000143692 -6.00755e-21)
(-0.014561 0.0131133 -1.36215e-18)
(-4.2698e-05 -7.4345e-05 1.55104e-20)
(-0.000100454 -5.11304e-05 6.0521e-20)
(-7.57437e-05 5.16024e-07 2.45553e-19)
(-0.000149893 -0.000109067 -9.87823e-19)
(-0.000620747 -0.00360437 -6.53962e-19)
(-0.00109927 0.00197892 1.23138e-19)
(-0.0247405 0.0837976 1.1256e-18)
(0.0675584 0.0276789 -9.17124e-19)
(-0.0024269 -0.00191117 1.54443e-18)
(-9.85671e-05 -2.05122e-05 -7.86604e-20)
(-0.0181028 0.052293 -5.7416e-18)
(-5.83889e-05 -9.05394e-05 -2.76108e-19)