/*--------------------------------*- C++ -*----------------------------------*\
| =========                 |                                                 |
| \\      /  F ield         | OpenFOAM: The Open Source CFD Toolbox           |
|  \\    /   O peration     | Version:  v2012                                 |
|   \\  /    A nd           | Website:  www.openfoam.com                      |
|    \\/     M anipulation  |                                                 |
\*---------------------------------------------------------------------------*/
FoamFile
{
    version     2.0;
    format      ascii;
    class       volVectorField;
    location    "700";
    object      U;
}
// * * * * * * * * * * * * * * * * * * * * * * * * * * * * * * * * * * * * * //

dimensions      [0 1 -1 0 0 0 0];


internalField   nonuniform List<vector> 
9793
(
(0.947488 -0.10612 7.59186e-22)
(0.860284 -0.0475589 0)
(0.939147 -0.101758 1.02502e-22)
(1.01517 -0.000943698 0)
(0.880268 -0.269692 0)
(1.02519 0.00362665 -2.44112e-21)
(1.01052 -0.00031768 7.01531e-24)
(1.01317 -0.0012214 2.26569e-21)
(1.03252 -0.00355593 -3.51456e-22)
(0.889249 -0.258401 -5.62993e-21)
(1.10045 -0.105724 7.25757e-21)
(1.01788 0.12077 -1.85062e-21)
(1.01506 -0.000881089 0)
(1.01246 -0.002042 0)
(1.00281 -3.53133e-05 -1.99812e-21)
(1.01198 -0.000823189 -2.10531e-21)
(1.00711 -0.00789906 0)
(1.00555 -0.00884054 0)
(0.789302 -0.100711 0)
(1.01184 -0.00147163 2.18663e-21)
(0.910721 0.116149 -6.71801e-21)
(1.01258 -0.0210091 -2.14406e-22)
(0.98841 0.0980948 -5.18456e-22)
(1.01547 0.00275374 0)
(1.01289 -0.013185 0)
(1.01503 -0.000719087 -1.41073e-21)
(1.01071 0.000783806 2.14751e-21)
(1.01259 -0.00647955 0)
(1.04047 -0.0993946 -7.76592e-21)
(1.03182 -0.00370213 0)
(1.06098 0.019664 -6.64045e-21)
(0.996009 0.0883229 5.37942e-22)
(1.02218 -0.222723 1.1759e-20)
(1.00724 6.46629e-05 0)
(1.03105 -0.106128 -5.38288e-21)
(0.782415 0.125889 0)
(1.00847 -1.65711e-05 2.2583e-21)
(1.01158 -0.0194092 2.07263e-22)
(1.0132 -0.000996876 -1.2944e-21)
(1.01024 -0.000116361 1.93795e-21)
(1.06122 0.014111 6.54468e-21)
(1.00472 -6.85542e-05 1.9074e-21)
(1.01367 -0.000505003 2.51363e-21)
(1.01016 -0.000250134 0)
(1.01303 -0.00044669 -1.08728e-21)
(1.0146 -0.000572873 1.06208e-21)
(1.03943 -0.104391 0)
(1.05924 -0.0585434 -6.13649e-22)
(1.09242 -0.0846978 -2.71612e-22)
(1.01511 -0.00103495 0)
(1.02886 -0.110987 -6.21879e-21)
(1.08893 -0.117442 0)
(1.02101 0.0053773 2.24424e-21)
(1.0276 -0.00978098 -1.31787e-22)
(1.02611 -0.201819 1.84414e-20)
(0.848039 0.208792 0)
(1.02436 0.000216368 4.54023e-22)
(1.15641 -0.123064 1.48923e-20)
(1.02242 -0.277708 -1.19163e-21)
(1.01328 -0.000988536 1.49165e-21)
(1.00865 -8.3621e-05 -1.32097e-22)
(1.01635 0.00355449 5.49094e-22)
(1.12153 -0.184296 -1.82997e-21)
(1.01655 -0.000477198 -1.04721e-21)
(0.908391 -0.326267 7.64502e-21)
(1.05832 -0.168953 0)
(1.10827 -0.178015 0)
(1.09413 -0.140297 -5.40584e-21)
(1.05887 0.0949659 -8.50689e-22)
(1.09401 -0.104075 0)
(1.01597 -0.198512 1.36928e-20)
(1.01254 0.000271981 0)
(1.01798 -0.00325948 4.33891e-22)
(0.929798 -0.0308585 -1.78915e-21)
(1.02112 -0.116225 0)
(1.03803 -0.282566 0)
(1.02469 -0.00046739 0)
(1.01043 0.00430984 -5.44017e-22)
(1.02597 -0.00639177 -2.70967e-21)
(1.01554 -0.00803533 0)
(1.07522 -0.159062 0)
(1.0268 -0.00132323 -2.51664e-21)
(0.884152 -0.0265171 0)
(1.06259 -0.0076816 2.42694e-23)
(1.0534 0.0127063 -3.38832e-22)
(1.06424 -0.0391634 -2.17473e-22)
(1.01538 -0.00931004 4.15303e-21)
(1.02498 -0.00120478 5.77214e-22)
(1.01748 0.00136117 1.64067e-21)
(1.02721 0.00333611 -1.23867e-21)
(0.862778 -0.083198 -9.12919e-22)
(0.991573 -0.28953 -1.81072e-20)
(1.01473 0.00338537 6.73538e-22)
(1.01 0.0841154 -1.13359e-22)
(1.01638 0.0020359 0)
(1.06138 0.00144335 5.09604e-22)
(0.835214 0.196675 0)
(0.874739 -0.0494676 9.30268e-22)
(1.01432 0.00296619 -4.20606e-21)
(1.0151 0.00143345 2.42756e-21)
(1.01512 0.00125762 0)
(1.02023 0.00674497 0)
(1.01132 0.000168519 1.36634e-21)
(1.0114 2.84972e-05 2.68822e-21)
(1.0109 0.00346349 5.03231e-22)
(1.05246 0.00854545 0)
(1.01724 0.00022662 -2.20291e-21)
(1.00903 -0.000163995 -6.87998e-23)
(1.02046 0.00371371 -3.06101e-21)
(1.02917 -0.100931 0)
(1.01166 0.000161261 1.22145e-24)
(0.926947 0.142655 -1.66323e-21)
(1.02256 0.000465122 0)
(0.842263 0.231991 -6.48752e-22)
(1.0822 -0.120468 1.3957e-20)
(1.02482 -9.58196e-05 -3.86901e-22)
(0.992735 -0.197086 3.59147e-21)
(1.01449 -0.113228 -8.65021e-21)
(1.02895 -0.00198668 2.57274e-21)
(1.01724 0.0736683 0)
(1.0391 -0.101069 -4.9403e-22)
(1.00583 7.78157e-05 0)
(1.02199 -0.00345106 -1.97376e-22)
(1.02677 0.00464206 2.27617e-21)
(1.03015 -0.0159327 -4.24803e-21)
(0.912776 0.124624 5.36702e-21)
(1.11106 -0.0540178 9.43725e-21)
(1.06703 -0.0286952 0)
(1.02767 -0.00794543 1.34573e-21)
(1.01805 -0.00312278 -3.21343e-22)
(1.01079 0.000139946 1.26243e-22)
(1.02517 -0.000844651 0)
(1.01812 -0.00318646 1.16112e-21)
(1.01378 0.00738039 1.60439e-21)
(1.03115 -0.00291826 -2.76469e-21)
(1.02513 -0.00196564 9.57068e-23)
(1.01582 -0.000358782 0)
(1.01034 -0.00023938 0)
(1.02217 0.000372579 0)
(1.01319 0.000324441 1.35381e-21)
(1.02162 -0.0032976 4.00276e-22)
(1.01107 -0.011206 2.28284e-21)
(1.01337 -0.000648038 0)
(1.0161 0.000503433 2.42393e-21)
(1.0125 -0.00287786 0)
(1.01172 -0.00459929 -3.3256e-23)
(0.908637 0.00800905 7.31797e-22)
(1.01618 0.000751646 -4.27329e-21)
(1.0131 0.0024066 3.60396e-21)
(1.00971 -0.298973 -1.30349e-20)
(0.819006 -0.188201 -1.94013e-21)
(1.01038 0.000108478 0)
(0.82581 -0.190597 1.75189e-21)
(0.885333 -0.239391 0)
(1.0129 0.00206774 -1.22053e-21)
(1.00867 0.000193547 0)
(1.0117 0.000135174 0)
(1.01096 -0.0100652 0)
(1.01564 0.000963018 1.97375e-21)
(1.01336 -0.000632399 0)
(1.01321 -0.00114745 1.36657e-21)
(1.01176 -0.00618324 -2.50504e-21)
(1.01229 0.00190642 1.77277e-21)
(0.768356 -0.0771759 0)
(0.904399 -0.0201933 -4.18115e-22)
(0.865297 0.114146 8.07971e-21)
(1.06498 -0.0485409 2.34961e-22)
(1.01918 -0.0470358 3.2278e-21)
(1.01124 0.00126151 0)
(1.01803 0.00377778 0)
(1.0192 -0.00560279 2.50322e-21)
(0.932794 0.249964 0)
(0.890561 -0.0224022 -2.30114e-21)
(0.925427 0.240939 0)
(1.03142 -0.0142889 0)
(0.797407 -0.0817016 0)
(1.02538 -0.00159171 -9.78333e-23)
(1.01509 0.00187436 1.53702e-22)
(1.01829 -0.00341471 0)
(1.05295 -0.0550209 0)
(0.952281 -0.0943716 3.06352e-20)
(1.04674 -0.0143257 -6.43908e-21)
(1.01565 0.00118679 2.09812e-21)
(1.01252 -0.0118467 -4.73084e-22)
(0.983037 -0.278378 0)
(1.01778 -0.0031689 -7.95026e-22)
(1.16099 -0.131032 0)
(1.01817 -0.00335195 -8.23416e-22)
(1.02115 -0.00388368 -1.43139e-22)
(1.01222 0.00127009 -1.87232e-21)
(1.03247 -0.0140998 -4.53151e-21)
(1.0195 -0.000391924 1.32049e-23)
(1.08002 -0.0934393 2.64842e-22)
(0.920058 0.137707 2.41856e-22)
(1.11244 -0.150046 6.18922e-21)
(1.05284 -0.0525017 -5.7898e-21)
(0.909047 -0.118126 -6.33177e-22)
(1.02011 0.00154909 -1.46353e-21)
(0.873406 -0.231658 0)
(1.01304 0.000309508 -2.51697e-21)
(1.03055 -0.00302931 3.1533e-21)
(0.766731 -0.0403512 0)
(0.850119 0.215547 -7.14903e-22)
(1.01811 -0.00305442 0)
(1.02551 -0.00240597 -1.24776e-22)
(1.01203 0.00388485 8.94252e-24)
(0.823999 0.12459 0)
(1.01457 -0.00125156 0)
(1.04617 0.00795047 0)
(1.0338 -0.0233803 3.8512e-21)
(1.0399 -0.0690071 5.18551e-21)
(1.06748 -0.0874352 1.34322e-23)
(1.10876 -0.0895641 2.41066e-21)
(1.02824 -0.0103683 2.84864e-21)
(0.899571 -0.121844 6.14704e-22)
(1.01192 0.000147031 -2.10535e-21)
(1.01585 0.00472293 3.19455e-21)
(0.985616 -0.254013 0)
(1.01237 0.00318958 -6.24094e-23)
(1.05267 0.0305659 -1.71563e-20)
(0.987949 -0.122031 8.21683e-22)
(1.02315 -0.0025346 -8.92739e-23)
(1.0313 -0.0157925 0)
(1.0194 -0.00028779 6.00335e-24)
(1.06531 -0.0117563 0)
(0.775578 -0.060239 0)
(1.02377 0.00406277 -3.14139e-21)
(1.01239 0.00158938 -1.23572e-21)
(0.995633 -0.124833 7.2256e-21)
(1.08268 -0.0975001 -3.66247e-21)
(1.01513 0.00267833 0)
(1.01523 0.00231593 5.04289e-23)
(1.04832 -0.0146941 3.41063e-21)
(1.01272 0.000249781 1.55122e-21)
(1.10958 -0.0725561 0)
(1.08671 -0.0140827 -1.98146e-21)
(1.02177 -4.63424e-05 -1.62399e-22)
(1.01801 -0.00494852 -1.30421e-21)
(0.850722 0.187159 -2.8938e-23)
(1.02246 0.0039379 -1.24978e-21)
(1.04527 0.0046696 -1.21206e-21)
(1.01382 -0.002698 -2.36254e-21)
(1.0169 -0.00503658 -2.07937e-23)
(1.04259 -0.20267 -4.16314e-21)
(1.01745 -0.00443721 0)
(1.01355 0.00253484 0)
(1.01314 -0.00114802 -2.12918e-21)
(1.00983 -0.00914743 3.58968e-21)
(1.01384 0.0029212 1.27249e-21)
(1.00825 6.94543e-05 0)
(1.0199 -0.0105375 5.99017e-22)
(1.04011 -0.0377264 8.95737e-21)
(1.07581 -0.115365 0)
(1.11104 -0.0631304 2.83936e-20)
(1.01618 -0.00422617 0)
(1.00526 -0.0155327 4.25601e-24)
(1.0192 -0.00486788 0)
(1.03967 -0.0400024 3.92527e-21)
(1.0314 -0.00174005 0)
(1.01491 -0.00085142 -5.25497e-22)
(1.03198 -0.138427 -2.26598e-21)
(1.01784 -0.00458645 -1.47204e-21)
(1.06856 -0.117748 1.1307e-20)
(1.00889 5.17812e-05 -1.21502e-21)
(1.02006 -0.0500728 9.36379e-23)
(1.01408 0.00329542 0)
(1.01417 0.00285657 5.39386e-23)
(1.0356 -0.0693852 0)
(0.739805 -0.0430014 0)
(1.01838 -0.000610762 -6.0948e-22)
(1.01524 -0.000821132 1.95304e-21)
(1.01334 0.00113459 -1.00023e-21)
(0.996994 -0.0314952 -1.26147e-21)
(1.02381 -0.0022469 -3.45408e-22)
(0.865975 -0.0841607 -9.47517e-24)
(0.859495 -0.0627734 0)
(1.01817 -0.00314756 0)
(0.875346 0.145333 0)
(1.0188 -0.000456692 0)
(1.11401 -0.0583209 9.98416e-21)
(1.00995 -0.00804415 -3.53313e-21)
(1.01469 0.00247453 -1.312e-22)
(1.00757 -0.000101237 0)
(1.01036 -0.000114821 -2.05021e-21)
(1.1125 -0.0495653 1.28288e-20)
(1.02302 -0.00273771 0)
(1.01944 -0.0100161 0)
(1.02746 -0.0473011 7.34426e-22)
(1.0122 -0.000443198 0)
(1.02524 -0.00276088 1.17399e-21)
(1.02214 5.82277e-05 0)
(1.00771 -0.204846 -2.83402e-21)
(1.02069 0.00140402 -4.39859e-22)
(1.00847 -0.000172198 0)
(1.01025 9.1839e-05 0)
(1.01525 0.00796421 0)
(1.02664 -0.018547 2.82728e-21)
(1.02703 -0.0490816 -7.29072e-21)
(1.01829 -0.000791613 0)
(0.634148 -0.100159 -1.61165e-20)
(1.01251 0.00187417 -2.73993e-21)
(1.03663 0.050568 0)
(0.936508 -0.238128 -1.48415e-21)
(1.00741 -1.32384e-05 4.44455e-24)
(1.00939 -0.000228087 -2.24535e-21)
(1.01596 -0.000217079 1.39635e-21)
(0.993836 -0.03252 -8.52826e-22)
(1.01639 -0.0360137 3.00032e-21)
(1.0095 -0.00616231 0)
(1.03043 0.00478804 0)
(1.0184 -0.000382493 9.02702e-22)
(1.01567 -0.000317304 1.33948e-21)
(1.01434 -0.0362886 -2.90624e-21)
(1.01712 -0.00859141 -1.15297e-23)
(1.02227 -0.00891361 0)
(1.02511 0.00307477 -7.07723e-22)
(1.06507 -0.0219831 -8.72199e-22)
(1.01489 -0.00579162 -1.51748e-21)
(1.00281 -0.0334157 0)
(1.03525 -0.0243435 0)
(1.01478 -0.00437224 -1.78675e-21)
(0.914506 -0.0355724 1.04256e-21)
(0.864822 -0.10662 -1.91828e-21)
(0.93568 -0.0194234 -9.89302e-23)
(1.01323 0.00315959 1.64367e-22)
(1.10517 -0.132907 0)
(1.02446 -0.019504 2.56646e-21)
(1.02673 -0.236604 -9.29387e-23)
(1.00931 -0.120657 1.00348e-20)
(1.01317 0.00183434 -3.15591e-21)
(1.06011 -0.0163954 2.06863e-20)
(1.00294 -0.1182 3.91934e-21)
(1.01905 0.0056538 2.97159e-21)
(1.04063 0.00431076 -3.25588e-21)
(1.10099 -0.118962 1.14145e-20)
(1.0131 -0.000973853 4.7383e-21)
(1.01354 -0.000498926 -1.86171e-21)
(1.02986 -0.00265154 0)
(1.0099 0.000120589 -1.96892e-21)
(1.01323 -0.00737802 6.6078e-22)
(0.930252 -0.119218 0)
(1.01827 -0.00339334 8.57052e-22)
(1.01489 -0.00413232 1.48693e-21)
(0.657405 -0.0358502 3.57179e-20)
(1.0214 0.00471124 1.29663e-21)
(1.01167 -0.000195226 -2.23922e-21)
(1.01355 0.00359281 0)
(1.0177 -0.0181393 -6.34061e-22)
(1.01316 -0.00101591 -3.99977e-21)
(0.92119 -0.125514 9.74778e-22)
(1.02856 -0.0173743 0)
(1.02294 -0.00510326 0)
(1.01834 -0.00758512 0)
(1.02162 0.0062065 -2.85256e-21)
(0.977941 0.220618 2.85564e-21)
(1.02771 -0.00900711 -4.83574e-21)
(0.983374 0.0181177 0)
(1.01508 0.0020817 -1.48469e-22)
(1.06131 -0.0831007 1.03003e-20)
(1.00662 -0.212537 -1.51754e-20)
(1.15347 -0.139043 0)
(1.06229 -0.086061 0)
(1.01748 -0.0167195 0)
(1.01276 0.0103227 -5.2706e-21)
(0.885704 -0.120137 1.77578e-22)
(1.00839 -8.80192e-05 1.5991e-22)
(1.04315 -0.113774 0)
(1.02412 0.00174442 2.80888e-21)
(1.01256 0.000262077 -3.90566e-22)
(0.939673 -0.225514 0)
(1.03969 0.001843 4.67783e-21)
(0.855029 -0.111901 -1.26431e-21)
(1.02309 -0.00495145 5.01935e-23)
(1.11186 -0.0774557 2.12389e-20)
(0.773052 0.10846 0)
(1.02459 -0.0180194 -2.04543e-21)
(1.01744 -0.00297676 0)
(1.00689 -0.224059 4.17202e-21)
(1.05849 -0.0418979 6.9799e-21)
(0.911967 -0.00693742 1.25286e-21)
(1.006 -0.0176962 -1.7581e-22)
(1.02835 -0.00783433 2.60195e-21)
(0.946761 -0.237712 6.05993e-21)
(1.01818 -0.000700074 0)
(1.02203 -0.0201809 -1.80907e-21)
(1.00785 6.0466e-05 1.43473e-21)
(1.00945 -0.000116959 9.10452e-22)
(1.01089 -9.85553e-05 2.20463e-21)
(1.02849 -0.00868636 -2.5558e-21)
(1.00848 -0.017807 0)
(0.965853 0.230155 -7.64846e-21)
(1.03181 -0.0119011 1.37236e-21)
(0.862042 -0.225467 -4.74156e-20)
(1.04843 0.067567 0)
(0.880236 -0.110049 0)
(1.08777 -0.094096 3.76671e-21)
(0.951747 -0.000280362 -1.55492e-21)
(1.01017 -4.9101e-06 0)
(1.02975 -0.00219443 3.49182e-22)
(0.931143 -0.181612 -4.86668e-21)
(1.05648 0.052095 0)
(1.01452 -0.00293682 0)
(1.04007 -0.00740566 0)
(0.657816 0.103454 2.26832e-21)
(1.01345 0.0013727 0)
(0.826433 0.24363 -7.78335e-22)
(1.01842 -0.00509088 1.41797e-21)
(1.0094 -0.0196645 0)
(1.01354 0.0013866 0)
(1.029 -0.0741994 0)
(1.01816 -0.00334365 4.91793e-23)
(1.05909 -0.0447373 -7.72218e-21)
(0.870817 0.136447 0)
(1.01495 -0.0012967 0)
(0.976119 0.102915 1.47748e-23)
(0.994974 -0.00740989 2.41147e-21)
(1.02802 -0.0186894 -6.08571e-22)
(0.995862 -0.0105223 0)
(1.02263 0.00172584 -2.53968e-21)
(1.01771 -0.000508172 2.20833e-22)
(1.01288 -0.00520302 0)
(0.861296 -0.0119028 1.4013e-20)
(1.01879 -0.000484198 0)
(1.02204 -0.00926637 8.28933e-22)
(1.09486 -0.122111 2.37908e-20)
(1.02885 -0.00663841 0)
(1.03196 -0.00349902 3.84919e-21)
(1.0259 -0.0198083 -2.84347e-21)
(1.01267 0.00208175 -2.0416e-21)
(1.0504 -0.0585587 0)
(1.0129 -0.00051252 0)
(1.02141 -0.00915013 9.4604e-22)
(1.01403 0.0015916 -2.33076e-23)
(0.905081 0.116624 1.93425e-21)
(1.01165 -0.00343623 -2.2882e-21)
(0.894361 0.115902 -2.06945e-21)
(1.01714 0.00399107 -2.97245e-21)
(1.04131 -0.109666 -5.49252e-22)
(1.01127 -0.00015444 1.91241e-21)
(1.01907 0.00453584 -2.95109e-21)
(1.00816 -0.000146523 4.35997e-21)
(1.03097 -0.0117483 -6.25111e-22)
(1.02261 -0.282734 1.13592e-20)
(1.02058 0.000806545 0)
(0.994495 -0.208487 0)
(1.01187 0.000949556 2.12455e-21)
(1.01942 -0.00589097 -1.68418e-21)
(1.02354 -0.0207248 -2.09724e-21)
(0.699383 0.183717 2.73402e-21)
(1.06606 0.0226212 2.24218e-21)
(1.04581 -0.217238 1.23496e-20)
(1.05639 -0.0922282 -3.02047e-22)
(1.02298 0.00558152 1.95225e-21)
(1.01954 -0.00168126 -3.64541e-22)
(0.97498 0.0298023 3.3578e-21)
(1.0467 -0.0589955 9.91789e-21)
(1.02688 -0.0697173 0)
(0.866085 -0.0258862 -9.48452e-22)
(0.813512 -0.066858 0)
(1.01862 -0.000383586 -2.85407e-23)
(1.00019 -0.0082196 0)
(1.10745 -0.0822156 -1.90373e-20)
(1.02208 -0.00386871 -3.39569e-23)
(1.02796 0.00167273 1.33526e-21)
(1.02143 -0.00379124 -2.24116e-22)
(1.01142 0.000519939 -2.43449e-21)
(1.00703 3.09266e-05 -2.12924e-21)
(0.86482 0.226579 -7.82734e-24)
(1.05611 -0.0467929 6.91896e-21)
(0.971017 -0.241174 -6.48927e-21)
(1.01134 0.000751524 -1.30493e-21)
(0.990698 -0.0292393 2.4185e-22)
(1.0152 0.00188777 0)
(1.00837 6.57827e-05 2.29175e-21)
(1.0095 4.83835e-05 6.17954e-22)
(1.02654 0.000287854 0)
(0.979036 0.0330294 0)
(1.01691 0.00483349 3.17557e-21)
(1.00249 -0.00830151 5.77426e-22)
(1.01402 0.00205968 -1.8387e-21)
(1.0171 -0.000638116 2.27153e-22)
(1.03426 -0.00614412 2.17567e-21)
(1.04682 -0.0878392 6.74039e-22)
(1.01214 -0.00045409 -2.07312e-21)
(1.01939 -0.00160107 -2.69567e-22)
(0.943057 -0.247879 -1.20033e-20)
(1.03589 0.00164628 0)
(1.02982 -0.0173533 0)
(1.11592 -0.194218 1.41111e-20)
(1.05392 -0.10714 2.73559e-22)
(1.00903 6.8107e-05 -3.476e-23)
(1.0073 0.000124583 4.59217e-22)
(1.02093 -0.0212611 1.85545e-21)
(1.03424 -0.00403914 -2.12933e-21)
(1.02123 -0.00945947 0)
(1.01334 -0.00034963 0)
(1.01694 -0.000534367 0)
(1.02056 0.00230684 0)
(1.01952 -0.00514414 0)
(1.01651 -0.00443448 0)
(0.92119 0.0233339 -1.52842e-21)
(1.06744 -0.126059 -2.47533e-20)
(1.0116 0.000121795 -7.46438e-22)
(0.998071 -0.293546 -2.41e-20)
(0.983237 -0.0519401 0)
(1.01462 0.00223399 2.71973e-21)
(1.01951 0.00114091 4.16187e-22)
(1.02659 -0.00476123 -3.77085e-21)
(0.969678 0.131376 1.99301e-21)
(1.00913 -0.00706174 2.14012e-21)
(0.873245 0.220701 4.55218e-21)
(1.01293 0.00171305 2.0867e-21)
(1.01725 -0.004919 2.14061e-23)
(1.08291 -0.105068 3.15484e-21)
(1.02083 -0.00368784 0)
(1.07127 -0.0686936 -5.37519e-21)
(0.929716 -0.222236 -8.71286e-21)
(0.999655 -0.0346068 8.97299e-22)
(1.01486 0.00211744 -5.24099e-21)
(0.811865 -0.172015 0)
(1.0351 -0.000225285 8.27335e-22)
(1.01352 -0.00180191 0)
(1.01725 -0.00727805 3.52093e-21)
(1.13737 -0.0687004 -3.4529e-21)
(1.01327 -0.00279988 -9.16369e-22)
(1.01322 -0.00166954 1.30186e-21)
(1.01859 -0.000745543 -2.33538e-22)
(1.01339 -0.00275737 1.09227e-23)
(1.04242 -0.190111 4.47258e-21)
(1.11358 -0.0677249 0)
(0.985781 -0.0497245 -8.19027e-22)
(1.02128 0.00266852 9.79084e-22)
(1.01676 -0.00685616 -3.51307e-21)
(1.01485 -0.00502166 -3.07699e-21)
(1.02683 -0.00651397 1.18265e-22)
(1.01174 0.000155929 0)
(1.0186 -0.000651628 -2.38791e-22)
(1.03527 0.10678 1.93435e-21)
(1.15692 -0.148846 0)
(1.01327 0.00105756 2.29518e-21)
(1.00509 0.00778017 1.55514e-22)
(0.931118 -0.194233 4.12358e-22)
(1.01903 -0.00402722 -7.31261e-22)
(1.01773 -0.0361339 -4.72163e-22)
(0.978143 0.0171753 0)
(1.01209 0.000234736 0)
(1.10293 -0.11142 0)
(0.956896 -0.245137 0)
(1.02364 -0.00253324 3.74258e-22)
(1.21286 -0.107544 6.40881e-21)
(1.01451 0.00215824 -1.40271e-22)
(0.838069 0.217047 -3.72246e-22)
(1.03074 -0.0450154 6.15451e-21)
(0.954658 -0.205574 -4.22914e-21)
(1.01764 -0.00309091 8.22309e-22)
(1.01654 -0.00477633 0)
(1.0087 -0.00879012 0)
(0.874374 -0.134172 3.22496e-21)
(1.01134 0.0107481 3.20756e-21)
(1.10133 -0.218789 -1.81008e-20)
(1.07482 -0.163188 0)
(0.950284 -0.342772 3.85269e-21)
(1.07188 -0.0719891 1.29711e-20)
(0.882622 0.22404 -1.95365e-23)
(1.02224 -0.0691747 6.79954e-21)
(1.00452 -4.44382e-05 3.75576e-21)
(1.07684 -0.0539797 8.839e-21)
(1.0068 0.00781161 2.86719e-21)
(1.01502 -0.17499 0)
(1.02536 -0.0096348 2.95715e-22)
(1.02195 -0.123853 2.00081e-22)
(1.01558 0.00210387 -1.20141e-21)
(0.990399 -0.0608622 0)
(1.00847 -0.000109602 -1.89867e-21)
(1.04424 -0.00727949 1.08225e-20)
(1.01502 -0.00473931 1.48574e-21)
(1.21219 -0.125747 -2.74941e-20)
(1.01499 0.00233309 4.49129e-22)
(1.01099 9.75207e-05 -1.50671e-21)
(1.04303 -0.0180421 -2.11636e-22)
(1.03176 -0.0271467 -4.27505e-21)
(1.05655 -0.049811 -6.20266e-23)
(1.01809 -0.00326245 5.36392e-22)
(1.01998 -0.00315201 1.40556e-22)
(1.01903 -0.00414354 1.29165e-23)
(1.019 -0.00402091 8.19864e-22)
(0.812272 -0.101879 -1.897e-21)
(1.01526 -0.00118854 1.37877e-21)
(0.823503 -0.0995395 4.1369e-21)
(0.777349 0.252475 0)
(1.01525 -0.00111968 0)
(1.0088 -0.000164206 2.65874e-21)
(0.98769 -0.0301544 8.78093e-24)
(1.03951 -0.00837849 0)
(1.02137 -0.00343711 0)
(1.01828 -0.00947229 3.13699e-22)
(1.0265 -0.0170474 0)
(1.03336 -0.0457842 5.33357e-22)
(1.04844 -0.0110812 0)
(1.03339 -0.0274599 0)
(1.01258 -0.00110501 2.49641e-21)
(1.02871 -0.0040027 0)
(1.01882 -0.0158717 0)
(1.03648 -0.0413135 -9.90491e-21)
(1.01746 -0.00800057 -4.45396e-23)
(1.01669 -0.0189052 0)
(0.799956 -0.148125 0)
(1.01944 -0.00505155 3.76491e-22)
(0.851495 -0.0254947 -4.85777e-21)
(1.06068 -0.0367531 3.54239e-21)
(1.01036 -0.000285478 -2.60759e-21)
(1.02025 -0.00330615 0)
(1.0135 -0.000585375 2.67776e-21)
(1.01911 0.0122687 1.78802e-21)
(1.01822 0.0141822 -5.21126e-21)
(1.01716 -0.00455474 0)
(1.01397 0.00778873 1.60481e-21)
(1.01554 0.00208409 0)
(1.01513 -0.00544276 -3.83998e-22)
(1.01506 0.00811403 -1.491e-21)
(1.0177 -0.00137251 -4.8606e-22)
(1.00622 -0.0115772 -3.83189e-22)
(1.0135 0.000456325 -1.44664e-21)
(1.04374 -0.00852437 0)
(1.00679 -4.85753e-06 0)
(1.02905 -0.00737919 0)
(1.00766 -0.0101864 0)
(1.04953 -0.0119374 0)
(1.07781 -0.0578899 0)
(1.00761 4.96488e-06 2.46035e-21)
(1.01633 -0.00364439 -2.84243e-21)
(1.02048 -0.00323215 -4.99995e-23)
(1.01314 -0.00124988 -6.42427e-22)
(1.01882 0.00235005 1.5144e-21)
(1.01066 0.000194667 7.77425e-22)
(1.01924 0.00283698 -3.07138e-21)
(1.01469 -0.00382649 1.39663e-21)
(1.01956 -0.00522547 -1.57448e-22)
(1.01531 0.00237011 -4.43419e-22)
(1.04038 -0.0783494 0)
(1.01002 -1.71897e-05 -2.13444e-21)
(1.00791 -7.1652e-05 1.08212e-21)
(1.02253 -0.00337386 7.66096e-22)
(1.01547 -0.111898 6.55261e-23)
(1.01606 -0.00174563 -4.56458e-22)
(1.0137 0.00157898 0)
(1.10609 -0.0979903 -8.75922e-21)
(1.01462 0.00184433 4.14553e-23)
(1.0238 -0.00523202 0)
(1.2195 -0.132114 2.98143e-20)
(1.0142 -0.0135707 0)
(1.01149 -0.000325833 0)
(1.00988 8.03003e-05 1.97572e-22)
(1.16079 -0.11511 -3.06589e-20)
(1.01342 -0.000645414 2.19601e-23)
(1.10939 -0.0878018 -1.10885e-20)
(0.930056 -0.327029 -1.04447e-20)
(0.917617 -0.231348 0)
(1.07817 -0.127978 0)
(1.02312 -0.00491307 -1.45339e-21)
(1.02276 -0.00392643 -1.76163e-22)
(0.840925 -0.0761803 1.04695e-22)
(1.003 0.000891601 1.83144e-21)
(1.01398 0.00168338 1.78277e-21)
(0.937308 0.000705969 1.28996e-21)
(1.03549 -0.123979 5.83544e-22)
(0.943924 -0.214668 0)
(1.02079 -0.0033899 -1.53228e-24)
(1.14082 -0.0745571 0)
(1.02282 -0.00373525 -2.97572e-22)
(1.02217 -0.00327207 -6.67689e-22)
(0.855491 0.235885 8.11752e-24)
(1.01785 -0.00136857 8.64021e-22)
(0.938283 0.0701538 0)
(1.02822 0.00659187 0)
(1.05997 -0.127688 2.13584e-20)
(1.01605 -0.00347994 2.5077e-21)
(1.02299 -0.0319664 -3.77658e-21)
(1.01877 -0.0146581 -8.69062e-22)
(1.21752 -0.114407 0)
(0.899808 0.238704 9.45856e-21)
(1.01866 -0.00555916 -1.42396e-21)
(1.02629 0.00678175 0)
(1.07734 -0.034668 -1.24277e-20)
(1.01479 -0.00363258 -3.50439e-22)
(1.03237 -0.000335456 -1.16876e-21)
(1.10437 -0.0924438 -1.02648e-20)
(1.24114 -0.213327 4.66503e-20)
(1.01733 -0.00297718 0)
(1.01115 -0.0360288 6.21974e-22)
(1.00292 -0.000633811 2.22886e-21)
(0.906974 -0.201594 1.10242e-20)
(1.00844 -0.0308732 0)
(0.976921 -0.227374 6.0269e-21)
(0.902963 -0.0537984 0)
(1.01878 -0.00769364 -1.35948e-21)
(1.03095 0.0227658 2.9669e-22)
(1.0129 0.102481 4.64544e-23)
(1.01612 -0.00186394 8.75194e-22)
(1.01756 -0.00153384 9.71801e-22)
(1.00705 -7.13291e-05 2.30443e-21)
(1.02292 -0.0106061 -1.45963e-21)
(1.01472 0.00202705 -1.70538e-21)
(0.862477 0.218301 7.20117e-22)
(1.01424 0.00168431 0)
(0.829612 -0.0349818 9.40524e-21)
(1.05777 -0.0162031 -1.06535e-20)
(1.06706 -0.00612093 7.13491e-22)
(1.08881 -0.108811 0)
(1.02749 -0.00680552 0)
(1.05303 -0.205594 -1.27034e-20)
(0.86533 0.228174 7.36209e-22)
(1.02922 -0.0148554 4.69772e-21)
(0.946775 -0.225753 -7.18325e-21)
(1.02819 0.020734 1.83244e-21)
(1.15025 -0.0936283 -3.41678e-20)
(1.01446 0.00195557 0)
(1.01473 0.00186052 -4.42014e-23)
(0.986649 -0.213894 0)
(1.01962 -0.00322436 1.31429e-21)
(0.901295 0.243261 4.85452e-21)
(1.01333 -0.000659936 -2.40079e-21)
(0.870634 -0.0829506 0)
(1.01182 -0.00172343 -4.41297e-21)
(1.05794 -0.0695874 1.80966e-22)
(0.974604 -0.223629 0)
(1.01787 -0.00829197 3.07598e-21)
(0.651085 -0.0362457 -1.01147e-19)
(1.01873 -0.000390438 0)
(1.04462 -0.018609 -2.34149e-22)
(1.06471 -0.0775393 -9.71379e-21)
(0.848412 0.298334 0)
(0.834992 0.316907 6.18864e-21)
(1.02011 0.00135741 1.39634e-21)
(1.01167 -0.00185635 7.09538e-22)
(1.01377 0.00184647 0)
(0.925431 -0.228771 1.0565e-20)
(0.669257 0.046245 0)
(1.01574 -0.000372209 0)
(1.02567 0.0119804 -2.80845e-21)
(1.02217 -0.0412879 6.54215e-22)
(1.01412 0.00195919 -4.5555e-22)
(1.0158 -0.00229591 -1.01086e-21)
(1.01279 0.00811157 0)
(0.933335 0.0630077 -8.4723e-23)
(1.02457 -0.0261655 2.38527e-21)
(1.01994 -0.00289127 0)
(1.01044 0.000112333 9.81857e-22)
(1.01328 -0.000973861 0)
(1.08845 -0.128305 -1.34965e-21)
(0.943545 -0.200775 -4.08165e-22)
(0.979742 -0.00262465 0)
(1.01327 -0.00141239 -1.31084e-21)
(1.0142 -0.000865527 4.13387e-21)
(1.00299 -0.111037 4.31291e-22)
(1.01771 -0.00153157 0)
(0.957198 -0.218802 7.59607e-22)
(1.04605 -0.0968823 9.93106e-21)
(0.848158 -0.0129306 -9.54303e-21)
(1.01838 -0.11203 1.79138e-22)
(0.885161 -0.0786628 -5.99283e-22)
(1.01342 -0.00229716 3.06451e-21)
(1.02807 -0.00641345 0)
(1.04555 -0.0306215 1.68304e-20)
(1.04133 -0.0159122 0)
(1.03611 -0.0434204 -8.0235e-21)
(1.0181 -0.000998145 -4.29163e-22)
(1.13715 -0.0798405 -2.74508e-20)
(0.841982 -0.101327 0)
(1.01146 -0.000752281 -2.71719e-21)
(0.881926 0.22749 -6.99269e-21)
(1.01331 -0.000917978 1.00054e-21)
(0.936031 0.120495 3.0777e-22)
(1.03412 -0.00616489 -2.82265e-21)
(0.992303 -0.123973 -3.46952e-22)
(1.0015 -0.00685875 0)
(1.02161 -0.0222426 2.32e-21)
(1.01774 -0.00332 0)
(1.02658 -0.00203002 0)
(0.997258 -0.0172023 -3.07468e-21)
(0.874505 -0.205176 1.24358e-20)
(1.01794 0.147009 -2.83378e-20)
(1.01893 -0.00454521 0)
(1.01908 -0.0735075 0)
(1.0063 0.000586157 -8.77727e-22)
(1.01524 -0.0189413 1.07193e-21)
(1.0226 -0.0331023 -8.3388e-21)
(1.16525 -0.161837 0)
(1.01072 -0.000207721 0)
(1.14586 -0.0996897 0)
(1.01349 -0.00227265 -2.71785e-21)
(1.08059 -0.0350539 1.27691e-20)
(1.01869 -0.00482848 0)
(1.01342 0.000394623 1.53171e-21)
(1.00768 3.11915e-05 1.32621e-21)
(1.0143 -0.000884763 3.82102e-21)
(0.97363 -0.30264 2.04669e-20)
(1.01744 -0.00169948 5.10282e-22)
(1.02011 -0.0242449 -4.13464e-21)
(1.00855 -8.71305e-05 0)
(1.00844 0.00021965 -1.46134e-23)
(1.01529 0.00212665 -4.13948e-22)
(0.991699 -0.100572 0)
(1.00887 1.03464e-05 5.12577e-22)
(1.04644 -0.00829249 3.82494e-21)
(1.01345 -0.00249979 -2.9182e-21)
(1.01599 -0.00242123 0)
(0.859964 -0.0935413 -8.67309e-21)
(1.01616 -0.00164643 -1.40295e-21)
(0.95392 0.120065 -5.50456e-21)
(1.01134 -0.000737217 2.8336e-21)
(1.00289 -0.0293717 -2.66355e-21)
(1.01043 0.000117036 2.57748e-21)
(0.946461 0.0522017 -2.25204e-21)
(1.01008 0.000150323 2.82044e-21)
(0.997823 0.133911 -3.61655e-22)
(1.01886 -0.00762266 -1.30473e-23)
(1.01967 -0.003135 -1.21577e-21)
(1.01399 -0.000959906 -1.98333e-21)
(0.899874 0.10838 -9.12343e-21)
(0.867036 -0.129145 0)
(0.921282 0.129611 -5.86597e-24)
(1.10703 -0.251688 -4.96873e-20)
(0.981745 -0.120122 -3.84591e-23)
(1.01979 -0.00321033 -1.37878e-21)
(1.04346 -0.0295504 -6.19517e-21)
(0.875583 -0.135751 -2.31954e-21)
(1.01653 0.00301241 1.70254e-22)
(1.00167 -0.192928 -7.78854e-21)
(1.02836 -0.159611 0)
(0.984477 -0.0977202 0)
(1.03182 -0.175097 -4.2586e-21)
(1.01805 -0.0214218 -1.65322e-21)
(0.864477 -0.0343863 2.28439e-20)
(1.03627 -0.00966239 0)
(0.853194 0.143254 4.30047e-21)
(0.869249 -0.104194 2.98126e-21)
(1.02141 -0.0229811 9.2641e-22)
(1.02517 -0.0103087 -2.5693e-21)
(0.865436 -0.0811862 -4.11547e-21)
(0.641249 -0.150604 -1.21559e-20)
(1.01435 -0.000212488 0)
(1.00679 -0.0138083 0)
(1.01809 -0.00109051 1.29885e-25)
(1.00409 -0.00177507 -5.16866e-21)
(1.09911 -0.0497067 -4.1887e-21)
(1.01069 0.000101665 -7.48364e-22)
(1.01908 0.00193201 0)
(1.0428 -0.0163539 0)
(0.992132 -0.0305512 0)
(1.06884 -0.0770951 -2.21127e-20)
(1.01787 0.00428733 -5.29026e-22)
(0.913429 -0.213503 -7.92766e-21)
(1.0141 -0.000972788 -4.04661e-21)
(1.01881 0.0032392 -1.61273e-21)
(0.993542 -0.0711294 0)
(0.746045 0.0262874 -6.57711e-21)
(1.10573 -0.0458022 1.72407e-20)
(1.01711 -0.000334086 0)
(0.987296 -0.00931318 -7.53607e-22)
(1.01251 -0.00232376 -1.43983e-21)
(1.01694 0.00287761 -2.03148e-22)
(0.9783 -0.206902 -6.17709e-21)
(1.01597 0.00235273 -2.59807e-23)
(1.01937 -0.0204037 0)
(0.877382 -0.0137907 -2.43892e-20)
(0.880005 0.0373092 0)
(1.02126 -0.00744978 -3.87543e-21)
(0.901104 0.15796 1.18583e-21)
(1.03101 -0.217429 -3.15371e-20)
(1.0048 0.118591 -2.10785e-21)
(0.89676 -0.0614216 6.97094e-22)
(1.17598 -0.175132 5.92736e-20)
(1.01415 -0.000399147 2.54329e-21)
(1.09573 -0.119253 4.37275e-21)
(1.01812 -0.0081348 6.55759e-23)
(1.01343 -0.00210249 2.60662e-21)
(1.02086 -0.0055508 0)
(1.0086 2.51111e-06 5.8045e-22)
(1.00542 0.000557247 -9.23116e-22)
(0.914315 -0.150653 5.48029e-20)
(1.01654 -0.0120236 -7.11668e-22)
(0.961665 -0.231698 -1.23569e-21)
(1.02545 0.000302151 -1.42884e-21)
(0.964666 -0.043636 -1.33174e-22)
(1.01748 -0.00940871 -1.81428e-22)
(1.10361 -0.0499053 0)
(1.02458 -0.0177911 0)
(1.01536 0.0055088 -3.2524e-21)
(1.05055 -0.0978009 1.04505e-20)
(1.02542 0.0016366 1.50286e-21)
(1.01799 0.00296386 1.56532e-21)
(1.03656 -0.146723 -1.02174e-20)
(0.997777 0.0045803 4.16445e-22)
(1.04191 -0.0642942 -5.53242e-21)
(1.01683 -0.0103359 -2.2648e-21)
(1.0132 0.000668859 -1.06995e-21)
(0.851936 -0.0511148 1.51105e-21)
(0.770522 0.231557 -4.29613e-21)
(1.0313 -0.00702525 -1.32461e-23)
(1.01534 0.00206019 0)
(1.01535 0.00179124 -5.98117e-24)
(1.01099 0.00377254 1.7628e-21)
(1.02654 -0.00965409 0)
(0.832656 -0.0947933 1.75246e-21)
(1.04584 -0.146054 2.35655e-21)
(0.893752 -0.0788616 -1.14893e-21)
(1.03346 -0.0743463 -1.1108e-20)
(1.02437 -0.159435 2.73608e-21)
(1.02245 -0.00731252 2.11965e-21)
(0.992391 0.00556158 5.30481e-22)
(1.02574 0.0144518 0)
(1.04332 -0.0340787 -7.88466e-21)
(1.02057 -0.175274 4.07648e-21)
(1.01785 -0.00327934 1.00689e-21)
(1.01614 -0.00394853 0)
(0.86819 0.101499 -1.77044e-21)
(1.0434 -0.0818638 1.94589e-21)
(1.05566 -0.152813 -5.67558e-20)
(1.0171 -0.00300754 -1.30645e-22)
(0.910383 -0.225005 0)
(0.934348 -0.222413 7.13331e-21)
(1.01271 -0.000164071 -9.40967e-22)
(1.1019 -0.0669941 0)
(1.06001 -0.0204234 0)
(0.841665 -0.107611 1.42503e-21)
(1.01147 -0.00030372 -9.58071e-24)
(1.05773 -0.0360395 0)
(0.913702 -0.116353 7.44345e-22)
(1.02582 0.0130339 -3.1739e-21)
(1.01733 -0.00310967 0)
(0.989406 -0.0145351 3.80184e-21)
(1.0181 -0.00694909 -2.16459e-22)
(1.01277 -0.00119917 -2.75245e-21)
(1.01599 -0.00327024 0)
(1.12341 -0.245957 5.80555e-20)
(1.01747 -0.00604107 2.46271e-23)
(1.07616 -0.0260358 1.09052e-20)
(0.977039 0.0985838 7.15025e-22)
(1.09683 -0.0661092 -1.65943e-20)
(0.999198 -0.00828375 0)
(1.01408 -0.0722589 -5.97542e-21)
(1.05416 0.0203192 -7.20614e-23)
(1.08447 -0.138573 0)
(1.05982 0.00982123 -2.31426e-22)
(1.01757 0.00321817 1.67255e-21)
(1.025 -0.00848038 0)
(1.04098 -0.0144261 0)
(1.02707 -0.0163695 0)
(1.00931 3.48448e-05 0)
(0.994873 -0.122461 2.36471e-22)
(0.914458 -0.0657736 -1.2351e-21)