/*--------------------------------*- C++ -*----------------------------------*\
| =========                 |                                                 |
| \\      /  F ield         | OpenFOAM: The Open Source CFD Toolbox           |
|  \\    /   O peration     | Version:  v2012                                 |
|   \\  /    A nd           | Website:  www.openfoam.com                      |
|    \\/     M anipulation  |                                                 |
\*---------------------------------------------------------------------------*/
FoamFile
{
    version     2.0;
    format      ascii;
    class       volScalarField;
    location    "550";
    object      ddt0(k);
}
// * * * * * * * * * * * * * * * * * * * * * * * * * * * * * * * * * * * * * //

dimensions      [0 2 -3 0 0 0 0];


internalField   nonuniform List<scalar> 
18355
(
-9.25408e-09
-0.00188936
1.01665e-07
-1.02498e-08
7.93985e-08
-2.00063e-06
-1.36426e-08
-3.00922e-07
-1.70497e-09
-0.0022899
1.24099e-08
0.00145805
-4.25297e-07
-6.6486e-09
-1.01543e-07
-8.59235e-08
0.000143671
5.68443e-09
3.67303e-08
0.0125622
-1.00787e-07
4.35996e-08
-0.00282911
7.88672e-08
2.26376e-07
1.30533e-08
1.2246e-09
1.03468e-09
-5.40122e-06
1.07178e-07
3.61842e-08
1.3084e-07
5.69172e-09
-9.94244e-09
-1.28444e-07
6.50886e-09
-7.39811e-09
-2.50919e-06
-5.92672e-09
5.51352e-09
-4.29708e-09
-4.8327e-07
1.02836e-07
-0.00192844
1.69726e-08
-2.64206e-06
1.71725e-07
-3.81456e-09
1.07973e-07
1.07916e-08
-1.29501e-08
-2.512e-09
-2.04858e-09
-0.00282156
4.32503e-09
4.95808e-09
-2.60132e-06
-1.00347e-07
-4.3307e-06
1.5306e-07
1.42639e-08
-8.88676e-07
-4.18815e-09
9.44006e-08
0.0014885
-1.78862e-10
-0.000575792
2.80241e-09
8.68503e-10
5.72874e-08
-1.45887e-07
-2.38389e-10
3.92229e-07
2.5736e-08
-1.82206e-07
-1.53027e-08
5.56543e-05
1.34661e-07
3.14899e-07
1.41635e-08
-1.50536e-08
1.25073e-05
-8.59957e-08
-2.72961e-08
1.18959e-08
-4.76073e-07
-0.00253981
0.0122449
-0.000497705
-0.00404225
-4.51712e-06
1.60686e-08
9.41453e-09
1.51878e-08
-0.00058
-0.00258483
-5.4134e-08
1.8682e-07
-0.00286768
-1.28605e-06
-0.00126903
1.93661e-05
-1.0835e-07
-0.00391457
7.36094e-08
-2.10388e-06
0.00111463
-3.32513e-06
6.18015e-08
-1.86822e-05
1.10756e-07
1.60468e-08
1.13951e-08
9.54958e-09
-0.00121544
1.43668e-09
5.40239e-06
0.000301902
-5.77423e-07
1.06175e-07
-0.00243739
-0.00102601
1.28168e-07
4.66929e-08
-5.49524e-08
-6.48405e-06
-5.94819e-09
-1.49461e-09
-0.00688291
1.37448e-08
-1.46204e-08
-0.0163349
-3.4243e-07
1.84197e-07
6.72162e-08
-1.35432e-09
-7.00583e-08
1.41931e-08
1.38129e-08
1.29864e-07
-0.00152227
-0.00136012
-1.95341e-08
1.0143e-07
-1.71419e-06
6.40902e-08
4.20317e-08
-0.00608655
1.48656e-07
-0.00906672
8.59981e-08
6.14012e-08
9.57042e-08
3.31132e-07
-1.55624e-06
-5.15678e-10
-0.0133667
-9.17347e-07
-3.8985e-10
-9.72356e-07
-1.07657e-07
-8.42182e-08
1.87927e-08
1.93172e-07
-7.29613e-06
3.07329e-05
7.44786e-05
-8.41896e-08
-5.46892e-07
1.79092e-08
-0.000935833
-0.00227136
5.48186e-09
3.62167e-09
-8.98606e-08
-0.00149544
-1.80987e-08
8.07847e-09
0.00696962
-6.45905e-06
-1.62506e-07
-9.68187e-07
1.46625e-07
-7.48999e-09
-6.51237e-06
-0.00154076
-0.00413465
-2.18011e-06
6.46195e-09
8.13753e-05
-2.03891e-06
1.03879e-07
1.92349e-07
-0.00657377
-4.22994e-07
4.60404e-08
0.0326828
1.47318e-07
-1.03561e-07
7.80969e-10
9.20018e-08
-2.31295e-08
-0.000687875
-0.00391767
0.000894606
-9.03062e-08
4.53139e-06
0.00214918
0.00251742
-9.98643e-08
-6.64699e-08
8.38925e-08
0.0101427
-2.7957e-09
1.87708e-08
4.7266e-06
0.0226555
0.010466
1.11686e-08
1.43805e-07
2.96302e-05
1.26731e-08
-9.9274e-08
-7.13573e-08
0.000125851
6.68338e-08
0.00145113
-0.00165242
7.13461e-06
-6.32153e-08
-2.29336e-09
3.1422e-07
-1.23893e-07
0.00154164
-1.12534e-07
1.29323e-08
9.5994e-09
5.33245e-06
0.00406588
0.000864499
7.1174e-08
3.63129e-06
3.69594e-08
2.19713e-08
6.34605e-08
-0.00169401
-0.00874314
8.06652e-06
-1.61466e-06
-1.27688e-07
9.19949e-08
7.57094e-06
1.51467e-07
0.00286539
8.0296e-08
0.000814763
0.0245209
-9.41432e-07
1.11971e-07
5.94403e-09
5.06508e-09
-3.44346e-09
-0.000528676
-3.90183e-07
7.31649e-09
1.92933e-08
-1.64954e-09
-5.28346e-06
5.60342e-07
4.12827e-06
-1.80748e-08
0.000835105
1.18096e-06
-2.11978e-06
-8.40619e-08
-0.0120332
4.95418e-09
-5.11185e-08
8.38781e-07
-5.43842e-09
-1.57151e-08
-1.58628e-06
2.91787e-08
-0.000153201
1.5151e-07
-4.21015e-09
-4.57678e-09
5.96871e-08
0.00139323
1.34033e-07
-7.06182e-09
-7.05321e-09
-3.6106e-06
-0.00263972
-1.89812e-09
-1.86395e-11
0.0230367
-1.63062e-07
-1.49825e-06
1.66309e-05
-4.9272e-08
-1.38863e-07
4.00255e-08
-2.99358e-11
-5.63361e-06
-3.38221e-06
0.000171211
-4.01441e-06
9.29608e-09
-2.87447e-07
5.28517e-08
4.91511e-08
0.000509496
9.33246e-08
-4.45634e-06
2.43801e-07
8.28347e-09
-1.80096e-08
2.15403e-06
-0.00426902
0.00241407
-8.31944e-08
-3.24587e-09
-0.00161315
4.21971e-09
0.0137412
3.45826e-07
1.9801e-07
-0.00626026
7.71849e-09
-2.01411e-05
7.34959e-08
-5.56663e-08
1.63577e-09
-1.4172e-06
0.00120316
-7.91716e-10
-0.000843685
1.389e-08
-5.20391e-09
2.12619e-07
-1.00235e-06
-0.0114276
-0.00200197
-0.0032154
8.33263e-08
-3.56395e-09
-0.00135286
-9.44622e-07
1.09948e-08
-8.85086e-08
0.000891357
-8.86949e-06
1.50054e-05
-0.0015608
2.16137e-09
1.08663e-07
7.4453e-06
1.10326e-07
-1.0343e-07
-1.0016e-06
-1.43427e-07
1.75447e-07
-0.00242926
-1.42272e-09
-9.43903e-07
-0.000118149
0.000722049
-8.61935e-09
9.39493e-08
-2.94557e-08
-5.3892e-08
-1.68623e-06
-5.49712e-08
1.06768e-07
-3.35073e-08
-1.35871e-07
2.7831e-09
-2.57431e-09
4.81889e-09
6.81138e-09
-1.16036e-08
-6.2039e-09
-8.86824e-08
3.41221e-07
0.00122909
-7.54977e-08
-0.00809015
-3.75601e-07
0.00121214
5.67997e-08
-6.95512e-08
5.75334e-08
-0.0128977
-1.10056e-08
1.7658e-09
1.23158e-08
-2.03864e-08
-0.00225317
-1.33321e-08
1.70505e-08
-1.57988e-07
-9.45387e-08
1.12414e-07
3.99187e-09
0.00149749
5.44222e-08
5.56967e-09
2.51578e-06
1.48267e-08
6.95951e-06
3.64126e-05
-1.87652e-05
4.19159e-08
6.87027e-08
0.00150726
-1.59069e-10
8.8737e-09
8.71741e-06
-8.96308e-10
3.67392e-09
0.000129874
2.46122e-08
0.00124566
-7.22645e-08
-3.52431e-07
8.38857e-05
3.01728e-08
-8.20713e-10
0.00253205
-1.98062e-06
-0.000607139
-0.0154996
-4.23289e-08
-8.66608e-09
6.20453e-08
0.0177006
-3.62556e-07
3.05122e-08
-4.86664e-10
6.44422e-09
-1.89468e-07
5.30708e-06
-1.42841e-07
6.62155e-08
-1.57306e-09
6.40384e-08
-8.76102e-05
-0.00259189
0.000849918
-0.0147603
6.84626e-08
5.3568e-08
-0.00222754
6.62625e-08
1.46437e-08
-5.29396e-09
-7.43192e-08
-4.16986e-07
-3.66789e-08
1.68868e-08
-1.46168e-05
2.55989e-07
1.89262e-07
-0.0039816
-2.93608e-07
-0.00151147
3.50145e-08
-3.07554e-09
9.28295e-08
-1.20591e-08
-4.1916e-10
-1.65735e-09
-4.58571e-08
-0.00127814
-8.74223e-08
-6.3198e-09
0.00272722
9.50731e-07
1.43057e-08
1.29507e-07
2.55591e-08
-0.00584335
-7.96328e-08
-5.07384e-08
-0.0131514
-5.71091e-09
0.00104811
3.70404e-07
-5.49751e-08
-1.14617e-05
9.78446e-07
6.77749e-09
0.00319242
-0.00148831
0.000729779
-5.05113e-08
-4.80316e-08
-1.1716e-07
-3.81331e-06
3.17177e-08
0.00119995
0.0176915
-0.00961497
-0.000291274
-2.12082e-08
-6.78292e-08
-0.00131305
-0.00249023
0.00361943
7.96958e-08
-1.24921e-07
-1.25597e-07
-0.00246302
2.56967e-06
5.55857e-05
6.64086e-08
-5.32929e-09
3.77536e-09
-5.06362e-08
-4.37354e-08
0.00378583
-7.15597e-08
-0.00076093
5.23454e-08
2.2336e-08
9.0607e-09
8.5229e-09
-2.8868e-07
-0.000614034
-4.44519e-09
-2.41491e-06
-0.00194717
2.76883e-07
1.11639e-07
-1.26766e-08
3.72146e-07
-1.1593e-09
4.68511e-08
-9.87082e-08
2.51044e-07
-2.18709e-08
-1.00317e-07
6.59023e-09
-5.2131e-09
-8.16289e-10
1.81019e-07
1.72659e-07
-8.91168e-07
4.44634e-08
7.7564e-08
0.0124454
3.09158e-09
2.79608e-07
2.21389e-08
-3.05831e-07
-3.23022e-09
-0.00237012
1.14107e-08
-0.00123971
-3.7955e-08
1.08247e-10
0.0241615
0.0122883
0.00205442
2.99477e-07
-5.17075e-09
-5.42109e-08
-9.19279e-09
-3.51764e-06
-1.93613e-07
-2.39712e-07
-8.87723e-07
-0.00135697
-6.78393e-06
-3.64137e-09
0.00279485
-0.0172594
1.30172e-07
-3.41971e-10
3.15292e-07
-0.00390746
2.08966e-08
1.3493e-09
-7.38539e-07
-5.398e-08
-1.21772e-07
-5.17803e-08
0.000179066
1.80518e-07
-1.31702e-06
-0.00188423
-0.00427165
0.0141679
4.1855e-07
3.93592e-06
1.41278e-07
2.15781e-09
1.31112e-07
1.05966e-07
2.69243e-06
-3.9256e-05
-0.00152825
8.19628e-08
0.00157166
0.00292024
1.89244e-07
-9.13846e-08
-0.00169037
0.00311418
8.28572e-09
8.59174e-06
-0.000818933
-0.0110105
-1.52945e-07
-1.97573e-08
1.79534e-07
2.03171e-07
3.63154e-07
-2.94431e-07
9.87195e-08
-0.00138254
-9.11334e-08
-7.98208e-08
-0.0026504
6.21221e-08
-2.30964e-07
0.00546867
-9.3548e-09
-8.56615e-08
0.000256658
1.05118e-08
-2.42579e-06
4.40791e-09
0.00119176
2.94146e-07
-1.30798e-07
-5.67906e-07
-8.60077e-08
-3.55862e-06
8.54041e-09
-0.0052079
-1.64426e-06
4.48743e-08
-6.88414e-05
-8.16915e-08
8.80163e-05
0.000335741
-0.000430258
2.58168e-05
1.00013e-07
-2.18359e-08
-0.00141258
-1.44474e-08
4.50334e-08
-5.79647e-10
1.42691e-07
-0.0151371
-0.00537994
1.77584e-07
0.000149352
3.08055e-07
-1.31794e-07
-1.98956e-08
5.2843e-10
-2.16043e-07
5.91504e-07
-2.15703e-08
-0.0011148
-1.17375e-07
-1.96277e-07
1.72069e-08
0.00288273
0.0014306
1.06374e-07
2.51133e-09
-1.9194e-06
-6.74091e-10
4.27265e-09
0.00236507
8.57965e-06
4.35181e-08
-3.95386e-09
-4.6163e-06
-4.50834e-08
3.55699e-07
-1.39462e-06
1.0459e-09
-0.00118642
-6.03014e-07
8.50567e-08
-2.05166e-05
-0.0021071
-1.72589e-08
-0.00599259
-1.15329e-08
-2.02541e-08
2.99152e-08
-1.18288e-07
0.00126861
2.45073e-08
-0.00206374
-2.58402e-09
0.00248066
-0.000990754
1.36898e-07
0.00152525
9.35134e-08
0.00282823
1.32031e-07
-0.00413516
-0.00185522
4.20361e-08
-1.94225e-06
-1.23517e-07
-4.23817e-08
0.00350751
-1.48588e-07
0.00160591
2.10542e-08
-0.00250438
2.12243e-08
-0.00828083
8.17076e-08
-1.17386e-07
3.13155e-07
3.32557e-08
-1.15815e-08
-6.56131e-07
-0.0087899
-0.00192895
-9.30185e-09
1.25351e-07
1.37627e-07
3.35036e-08
2.96913e-09
-6.18079e-08
-3.01621e-06
0.00325993
4.24697e-08
-2.12961e-08
-3.63945e-08
-0.00141185
-1.29775e-07
9.06545e-08
3.05723e-08
3.65832e-08
8.60667e-08
-9.41353e-05
7.80586e-08
-3.98769e-05
-5.80862e-07
-0.00524057
0.000685423
-0.000419864
-1.79419e-08
-3.11539e-07
1.01838e-07
-1.102e-07
1.56755e-07
-0.00101454
4.62658e-09
-4.99897e-08
-9.75974e-09
0.00302022
-1.25205e-08
4.36276e-08
-1.61255e-07
2.66308e-08
-0.00428958
0.00122968
-1.59781e-08
-9.61223e-09
-0.00415098
7.95436e-08
0.00260352
-0.00189103
0.00170874
-4.32995e-06
3.73386e-06
0.0100894
3.3654e-07
1.14881e-08
2.43642e-08
6.6355e-08
5.23882e-08
9.47386e-09
5.2455e-08
-0.00361409
-0.000134904
-7.68155e-08
2.73131e-07
9.95151e-09
-1.28212e-07
-1.64893e-07
4.70855e-09
-7.59444e-08
-9.57732e-08
-1.43684e-06
3.12999e-06
-4.59183e-08
0.00176401
2.47219e-07
-7.0464e-05
3.1839e-07
0.00774987
0.00207354
-5.66253e-07
-4.39222e-06
-9.40894e-06
0.000332565
4.30635e-08
-3.92407e-08
-1.07026e-08
2.00789e-07
0.0185747
1.71801e-08
-1.28419e-09
-5.48935e-07
-1.71871e-10
-1.77404e-07
1.39135e-07
6.54516e-11
0.0115602
4.74991e-08
-6.65459e-09
-4.80062e-06
-8.26139e-09
1.19119e-06
-2.93867e-06
4.28221e-08
1.00228e-07
3.3366e-08
-6.49866e-07
7.11977e-09
-9.04981e-08
-0.000216213
-8.85467e-09
-0.0011198
-5.2926e-08
-0.00167602
1.94647e-07
-3.08041e-06
-4.0936e-08
-8.90286e-07
-1.38698e-07
1.07327e-08
3.52593e-08
-0.00118121
1.17077e-08
0.000415403
0.00058328
-9.97155e-09
2.08029e-09
2.7736e-09
-1.84071e-08
0.00172464
-1.20988e-09
-0.00188298
-0.000543915
-1.17305e-07
0.000165652
-9.86737e-09
9.27578e-08
0.00250335
0.00187679
-2.98242e-09
-3.36873e-08
1.00754e-07
2.19376e-08
1.14021e-07
-6.43295e-07
1.2408e-05
-1.0715e-07
0.00094987
-9.2782e-07
0.0131816
-1.33668e-07
-1.41713e-08
0.000704168
-0.00124499
-1.70824e-07
-4.11816e-08
7.69361e-08
0.00160961
-4.00938e-08
0.00139674
-6.79946e-07
-3.16639e-10
-6.64327e-08
1.68658e-08
4.50687e-08
-3.6203e-08
-6.61631e-10
-1.89129e-10
1.04847e-07
-0.00159658
3.33839e-10
1.14937e-07
-0.00211133
7.71283e-08
2.46421e-08
-4.25823e-07
0.000280089
7.27902e-08
9.09188e-05
-7.92463e-09
-1.53629e-08
2.66486e-09
-0.00175723
-1.12732e-05
-4.20746e-07
-1.46312e-08
-3.40003e-08
7.00942e-08
0.000102543
-3.00103e-08
0.0110983
-2.59788e-08
0.00154966
1.25034e-09
-4.91587e-09
4.58643e-06
8.46764e-08
-0.0011992
6.28304e-08
-7.99306e-07
-3.12824e-10
2.00687e-08
-2.66391e-09
1.0114e-05
0.00043522
-1.38228e-07
5.73178e-08
3.46085e-08
5.05139e-08
-2.40495e-08
-1.01217e-09
-1.91207e-07
-4.03872e-08
0.003704
-1.19268e-07
0.00229222
5.01401e-08
-2.00169e-08
0.00043116
0.00199483
-0.00724765
-1.01804e-07
-0.00242191
5.12728e-08
-0.000778147
3.71005e-08
6.70651e-07
1.14762e-08
0.00051428
8.69884e-08
-3.99873e-08
-5.4563e-09
1.06712e-07
-1.06876e-09
-0.000363247
-0.0191176
-0.000575902
-1.3952e-07
2.13848e-07
-8.7449e-08
-9.47677e-09
-6.24646e-09
1.0427e-08
-8.22464e-08
9.08088e-07
7.50147e-08
-0.000796326
1.5482e-07
-3.42767e-08
2.5423e-08
-0.000756094
-3.54242e-06
-1.98592e-08
-7.8127e-08
9.63397e-08
0.000466345
-7.51966e-07
0.00281705
-1.41366e-07
-1.75394e-06
3.7029e-06
-7.33881e-09
7.83512e-08
-4.31933e-07
-1.88043e-07
4.56356e-08
-0.0146462
-1.6605e-07
0.000172888
-4.89841e-08
-3.0304e-05
5.64425e-07
9.95091e-08
-8.63254e-08
-3.41721e-09
0.00103689
3.27437e-08
-0.000194664
1.48417e-08
-3.15366e-09
0.00240688
6.28227e-08
2.70851e-07
0.0024654
4.36423e-08
-2.74118e-06
-0.0017527
7.23163e-09
3.34121e-09
-0.00195318
-6.06243e-08
7.94932e-08
2.82499e-08
1.74003e-07
8.46134e-08
-1.6785e-06
0.0245529
1.21784e-07
-1.15559e-07
-0.00453688
-3.07568e-09
-9.44414e-06
1.92162e-07
-8.65175e-08
-0.000144621
1.45322e-05
1.04366e-08
2.45697e-08
6.84666e-08
-2.50984e-08
-6.00068e-09
-0.0117317
-1.42266e-09
2.94701e-07
-2.01674e-08
5.15219e-07
8.26456e-09
-9.22443e-06
1.00224e-05
1.10306e-07
-0.00278635
-9.86154e-09
1.61104e-09
6.17889e-08
-0.00269453
-1.03626e-07
-5.02658e-09
-3.98797e-08
-1.10109e-07
9.80934e-08
-1.50398e-06
0.00132094
0.00115077
3.26496e-06
5.3706e-09
3.60399e-08
-1.11407e-06
7.90533e-08
-3.0597e-08
-6.74538e-06
-0.00193903
-1.24683e-07
2.19336e-08
0.000632067
-3.5116e-11
5.70348e-09
2.852e-05
-2.03912e-06
0.0184613
-7.32286e-09
-2.58898e-08
0.00140747
3.53369e-08
7.57911e-08
1.65747e-10
2.2712e-07
-2.86531e-09
-7.69446e-08
1.09695e-06
-6.17728e-08
7.52511e-09
-0.000291146
1.34813e-08
-4.9291e-09
6.97174e-08
1.70166e-08
7.60259e-08
-6.56825e-08
0.00174403
-9.71838e-08
-0.0115635
-6.40175e-08
1.55867e-07
0.00231802
5.05071e-09
-7.0014e-06
-2.33571e-08
5.79076e-09
-2.9575e-09
-1.69812e-06
-2.21168e-08
-4.96068e-08
8.62584e-09
4.53022e-08
-7.76935e-07
-3.82733e-09
4.17926e-08
-5.19688e-08
6.2472e-09
-3.57133e-07
0.00026748
0.00145635
0.0104352
-0.0132367
-1.51248e-06
8.77695e-08
-0.00458401
0.0118736
2.15502e-08
5.70436e-08
-1.71478e-08
-5.45799e-06
0.0186965
-1.82847e-07
-1.17454e-07
-2.0533e-08
5.92477e-08
2.34288e-09
1.10679e-07
0.00194575
0.000295081
6.79889e-05
-7.4209e-07
8.11496e-09
-7.67812e-11
8.32759e-09
0.00134287
0.00161395
2.56598e-08
4.10937e-06
-9.69162e-09
4.6007e-08
1.17401e-07
-7.63077e-08
4.46945e-08
7.47836e-05
-2.38e-08
3.37916e-06
2.13554e-09
-5.70227e-09
4.49789e-07
-1.07507e-08
3.6449e-09
-8.60105e-07
-2.05258e-05
8.93981e-09
-4.36353e-07
-1.35367e-08
-3.57662e-09
2.19009e-08
1.06159e-08
-0.00508575
-1.96428e-07
-8.34655e-08
4.26685e-08
-0.00271623
6.33926e-06
-2.30534e-09
5.50569e-08
7.84409e-08
0.000157045
-6.77963e-06
0.00214026
1.09225e-06
-1.56814e-07
-3.47114e-06
-3.50018e-06
2.11319e-07
0.00107229
-1.80859e-08
7.99826e-09
8.12759e-08
2.47999e-06
6.75322e-08
0.00147202
-1.87307e-08
3.53145e-08
0.0025115
1.19132e-09
4.43234e-08
8.73041e-08
-1.84289e-08
4.16925e-09
5.47656e-05
4.33441e-06
-2.92683e-08
-0.000242227
9.9797e-07
0.000651314
0.000379811
-3.002e-08
0.00144766
-1.30518e-08
1.15654e-07
-3.10807e-10
3.96041e-09
-0.00201639
4.02892e-07
-1.42798e-07
9.58738e-08
0.00148407
-1.23775e-07
-0.0141707
-0.0134145
-1.32044e-09
-2.79845e-08
-4.51993e-08
0.00147504
3.32633e-06
-1.62483e-07
6.25801e-09
-1.3773e-05
-5.45048e-09
5.88509e-09
4.2747e-08
1.81667e-08
-2.46613e-09
-3.60244e-08
-0.00319156
-5.44523e-07
-3.07723e-06
0.000795578
4.05669e-09
0.00159062
1.00594e-06
-1.27538e-07
1.30121e-09
-4.29704e-08
4.79306e-09
-5.37027e-09
-4.7432e-09
0.000781691
-6.60173e-07
-0.00323348
-5.37521e-07
-1.14034e-06
2.95666e-08
-1.4469e-06
0.0012576
-7.68195e-09
1.7118e-07
-6.16259e-09
0.000167048
-9.49923e-05
6.30716e-07
-3.64263e-06
-6.49685e-11
-0.00141368
-7.01547e-08
2.67414e-08
-1.26809e-07
-4.32422e-07
-2.72297e-08
-1.6893e-06
0.00155531
-7.55972e-10
0.000637877
0.0010215
0.00138781
0.000750517
8.98944e-08
-0.00406714
-7.50189e-07
1.34648e-06
-0.00251326
-5.58725e-08
-2.71944e-07
8.42599e-09
-1.16529e-10
0.000564887
9.42209e-08
-0.00104111
-6.55786e-10
1.94813e-08
0.0169205
1.1584e-07
0.00160211
-8.49201e-08
1.06922e-06
9.3488e-08
3.72473e-09
-0.00293578
2.02507e-07
-1.3107e-06
-1.74622e-09
-2.20978e-08
-6.48008e-06
-1.95764e-06
-8.3805e-09
4.60476e-09
0.000230816
-4.20406e-07
3.49702e-06
-1.85114e-09
-3.2309e-08
-2.0776e-09
5.67961e-08
2.10366e-07
1.55718e-07
-1.75419e-08
0.00172292
8.60123e-08
-1.86753e-08
9.0838e-08
-0.00128908
-2.56957e-06
1.73059e-07
9.99691e-09
7.2599e-08
-5.4007e-07
-9.21536e-07
-1.17928e-06
0.0056096
2.38394e-07
1.01402e-07
-9.26536e-06
4.68663e-08
-7.20769e-08
-0.00266589
-4.59896e-09
-2.81535e-06
-0.0071832
-0.000265295
0.00131599
0.00295066
-1.88973e-06
8.14124e-08
-0.0111038
-9.24747e-08
-6.25361e-08
-4.61527e-07
8.36508e-09
-2.17092e-07
-8.1112e-09
5.76628e-08
-3.70402e-07
7.69102e-05
-2.74363e-08
-9.74882e-09
5.71963e-08
-0.00017058
-8.33998e-07
-0.000326627
6.17222e-08
-0.00361679
-2.86529e-08
1.2303e-08
-8.84901e-08
9.67067e-08
0.000685843
2.16523e-08
2.55147e-09
7.47019e-08
-4.48338e-08
0.000222394
-1.87693e-06
-1.51314e-09
0.000159853
-1.59692e-09
0.000253414
-3.07209e-08
-0.000168944
3.63645e-07
3.66606e-06
7.53711e-09
8.41729e-08
-6.14436e-09
2.76888e-08
1.67949e-06
2.74725e-07
1.59171e-09
-2.71755e-07
-0.00153228
0.00240199
-6.00781e-08
0.00891895
-0.012227
8.99784e-08
0.00153675
1.24735e-08
-9.40171e-06
6.86417e-09
4.26738e-08
7.09998e-08
-1.1257e-07
-0.00893877
-6.9488e-06
-1.21449e-07
0.0012649
-1.53358e-06
1.20989e-07
-0.00251083
1.17779e-08
-2.29965e-07
0.000229226
-6.45622e-09
-3.59452e-07
-0.0139024
-2.99748e-06
9.81647e-08
0.00257199
-4.29816e-07
0.000737012
0.0129674
4.30095e-08
-1.96784e-06
1.64028e-07
2.97196e-09
-1.79259e-08
0.000560283
1.50839e-06
1.27431e-05
4.13985e-07
-6.3868e-09
0.000791448
-5.63074e-07
3.25075e-09
3.48358e-08
-6.7311e-07
8.4217e-08
3.61077e-09
-9.65278e-10
0.000379885
-9.04411e-10
-1.32821e-07
0.00137257
-1.53647e-09
8.9536e-10
-0.0072719
-5.29592e-09
-2.34308e-07
2.90895e-07
1.79365e-06
2.68923e-06
1.14557e-07
-2.38569e-07
1.65438e-07
-4.16183e-07
3.72836e-08
-5.80812e-08
-8.29008e-06
-2.61712e-05
1.15638e-07
0.000711931
-4.64544e-07
-1.0903e-07
-8.97365e-06
0.0163174
-1.70656e-06
7.9771e-09
-1.38506e-08
-6.78049e-06
9.24386e-08
-0.00624286
3.2104e-06
9.67327e-08
-0.00114593
-4.357e-09
1.12602e-06
0.0242319
8.08149e-08
3.09396e-09
-9.66944e-12
6.92131e-10
-0.0208679
4.63644e-07
1.68299e-07
8.13236e-07
-6.144e-05
-5.85882e-08
-2.94522e-08
1.68239e-07
4.15529e-07
-2.08704e-09
1.29847e-08
0.00267525
1.2736e-07
-1.33991e-05
2.08634e-08
-8.71631e-09
-1.78786e-09
3.65023e-08
-2.22606e-07
2.17205e-08
-1.06206e-07
1.00546e-07
-4.75393e-06
-0.000171195
8.62952e-07
-0.00702545
9.69984e-10
6.8685e-08
-0.00099165
-5.84343e-07
0.00257012
2.9125e-07
9.41928e-08
-5.01304e-08
-8.90065e-08
6.37525e-08
7.27302e-09
-4.36252e-07
-1.71504e-06
-0.00104847
-5.12305e-07
0.00179177
-1.03787e-07
-1.24046e-07
5.83618e-08
-4.04419e-06
0.00101159
-8.93676e-06
7.84497e-06
7.29011e-08
0.0019362
1.29755e-07
-1.15756e-08
-1.35445e-07
7.60174e-08
-0.00052538
1.54433e-08
-1.91447e-06
-3.65786e-09
1.15664e-06
-6.32462e-08
0.000406741
7.62213e-08
6.31698e-08
2.04636e-07
1.21997e-09
-1.19324e-06
-6.34574e-06
-0.0019653
-7.83064e-08
-2.21979e-08
-0.00218761
-4.71804e-07
9.26085e-08
9.12477e-08
-4.41549e-08
9.7391e-08
-1.67166e-09
-0.000111642
-6.37477e-08
-2.79713e-08
2.43982e-08
-7.24964e-09
0.000865089
-2.13907e-08
1.77126e-07
-7.35707e-09
8.29459e-09
1.05038e-08
-5.46844e-08
8.27807e-08
-7.40148e-10
-8.95166e-08
-3.28782e-09
-8.26251e-08
1.60283e-06
0.023419
3.27239e-08
-5.86317e-08
0.00342137
-5.91053e-09
8.32309e-09
-1.58908e-07
-3.86633e-06
-5.10686e-08
-2.68761e-07
-0.004408
-7.52273e-08
-0.00324069
0.00132058
7.54917e-08
-1.28159e-07
-6.46545e-08
2.14545e-08
-0.000175562
0.0183133
-0.00246271
9.60519e-08
1.61183e-07
3.10704e-08
1.90989e-06
-1.10052e-07
1.4717e-05
-9.11609e-11
3.91834e-06
0.000166518
-1.36056e-06
1.54245e-07
0.00864916
0.00019998
-0.00109496
2.56764e-08
-8.79061e-09
0.000746167
1.04821e-06
2.30394e-08
-3.29977e-09
6.75439e-06
-1.29284e-07
-3.56746e-06
4.7773e-07
1.15389e-08
-1.28207e-07
-0.00956925
-1.47617e-06
1.23343e-07
5.83135e-09
-9.52187e-09
-5.1651e-09
1.17873e-06
7.87751e-08
-1.38518e-08
7.11674e-08
1.03714e-07
-3.44368e-09
-2.27723e-07
-4.35178e-08
-9.05191e-08
0.00548562
0.000658348
-0.00093191
2.75861e-08
-2.02261e-07
-1.35422e-06
7.66802e-08
-8.4773e-08
-1.25475e-07
-5.67005e-09
-1.08366e-07
-0.0132893
8.93637e-08
9.39303e-08
8.39163e-08
3.83254e-08
8.94772e-05
-0.00321359
-3.87941e-08
6.47091e-08
-9.20634e-09
-2.90709e-07
0.00129307
-1.59154e-09
2.80896e-07
1.31423e-08
-8.88867e-07
2.72345e-07
-2.59371e-05
5.52497e-05
-1.1276e-07
0.000144912
6.43799e-05
-1.28003e-07
-1.01219e-08
-6.69271e-08
9.08237e-08
-2.3223e-07
-1.14221e-07
3.92467e-08
-3.07783e-06
-7.13929e-08
-2.39375e-07
-2.78174e-07
3.40978e-08
9.77585e-10
0.0111193
7.66949e-08
-6.26177e-09
-7.47633e-06
7.05235e-07
-0.00101453
0.00112385
1.54549e-08
1.75002e-05
-2.43065e-05
1.67886e-07
-7.79645e-08
-1.11341e-07
-6.79729e-09
-0.028038
3.30417e-07
4.34479e-08
4.34206e-09
-1.1174e-06
-1.31486e-06
0.000909382
-1.57048e-09
-5.20414e-08
6.34684e-08
-4.26732e-06
-0.000166382
3.07433e-11
2.55906e-08
-9.68423e-08
-1.13841e-08
4.04535e-11
0.000472856
-1.3304e-07
8.40906e-08
6.25867e-08
-0.0128337
-2.37153e-10
-7.05082e-09
1.30324e-07
5.17847e-07
1.003e-07
2.44708e-09
4.67136e-08
-0.01017
5.13839e-08
-3.19916e-08
3.9696e-08
5.33432e-08
7.80333e-06
-3.70021e-08
-2.755e-08
-0.00290772
-0.000782402
3.32076e-08
-1.51887e-09
-6.97709e-07
2.40492e-07
-1.12119e-06
-1.0296e-08
-0.00140215
-6.33181e-09
-7.86239e-08
9.36765e-08
0.00163568
0.0014896
2.46112e-06
-2.13268e-07
0.00177613
-0.00119827
-0.00598975
-0.00435439
-1.2252e-07
9.58932e-08
-2.51029e-08
1.02138e-07
9.03579e-08
6.07913e-08
1.57605e-08
-2.70611e-06
6.3948e-08
-0.00176729
5.22748e-08
-0.00386706
5.56498e-08
-0.00311233
1.03784e-07
-5.14582e-08
-6.14067e-09
-1.25384e-07
4.42801e-07
2.96356e-05
-1.02232e-07
2.63044e-08
-7.52146e-08
-0.0037697
-5.14283e-09
-1.70363e-07
3.54391e-09
-2.60312e-07
-0.000559904
8.57827e-06
-5.5042e-06
-2.43368e-08
-2.07986e-06
-6.20326e-08
-0.00266212
0.000131071
-6.06176e-09
-0.00289157
-0.00119849
1.06842e-07
8.27755e-09
-2.53012e-07
4.14238e-08
-1.66451e-07
2.58816e-09
0.00138765
-1.40218e-08
3.16465e-08
9.04114e-09
-4.02704e-09
2.33155e-07
7.5482e-05
-0.00312013
4.21143e-05
7.17652e-09
0.000404628
-2.47207e-07
0.0118647
4.37178e-08
-1.15073e-06
-7.47046e-09
-2.02013e-07
0.00178707
2.42503e-09
-5.83426e-07
7.12415e-08
-1.29964e-07
0.000871528
-0.0252658
-3.37305e-09
-0.0171402
-8.67886e-09
-0.00313861
2.57057e-08
-0.00424968
0.00046369
3.50863e-08
-0.00204324
-4.56094e-08
-0.00161162
-1.15917e-08
-8.09655e-08
-2.83658e-08
5.00686e-10
-5.56858e-09
7.44315e-06
1.0808e-08
0.00242323
-1.16433e-06
-0.00374871
4.47313e-08
-9.12872e-09
0.00721086
1.4831e-07
1.78286e-07
1.02493e-07
1.86152e-06
-1.21752e-07
1.06851e-07
-0.000183335
9.54415e-08
-2.28297e-08
8.51579e-09
4.9352e-08
-7.99047e-05
-1.87513e-07
-4.105e-09
-0.00159074
-9.09111e-05
3.34848e-05
3.0587e-08
-5.45175e-09
-3.09208e-07
-2.51575e-08
1.21934e-07
2.00452e-08
-1.76942e-08
-9.69522e-09
6.06844e-08
-3.83644e-08
1.83556e-07
0.00214425
3.8699e-06
2.65581e-06
-9.35122e-10
-3.447e-08
0.0152134
3.08255e-07
-7.24556e-09
5.64239e-08
-0.000738398
0.00087191
1.01808e-07
-0.00291232
5.68935e-08
7.67416e-06
-1.42565e-09
0.00166224
1.09835e-08
1.05954e-07
5.69189e-09
-5.71766e-09
-1.16363e-08
-0.00134377
1.05376e-08
-0.00226611
2.96121e-07
-0.00030241
-0.0142159
6.46338e-09
6.11403e-08
0.0181334
5.66445e-08
5.39286e-06
-4.18134e-08
-2.68111e-06
-9.82794e-08
0.0024028
-0.00165801
-0.000196112
3.67253e-08
0.00311903
-0.0004563
-0.00173438
2.47064e-05
-3.96167e-07
-1.99804e-07
4.6727e-08
-0.000556132
-0.00379223
2.0885e-07
-0.000852199
2.31556e-09
-8.50221e-09
1.38938e-07
-0.0168614
-9.02425e-08
0.00173858
-3.70964e-09
-0.00430988
-1.15879e-07
2.30095e-07
-1.2314e-09
5.86131e-08
1.81372e-05
-7.36067e-09
-1.42007e-07
-2.18501e-08
-1.04659e-05
2.02603e-08
-2.41649e-09
-0.00284242
0.00128184
-1.11863e-07
0.000647004
-1.74591e-07
-3.77721e-08
0.00076711
-0.00212516
1.37205e-09
-0.000187616
-2.46306e-09
5.47641e-08
-4.65068e-07
-0.00219663
-6.8788e-08
0.0153903
-1.38589e-07
9.9978e-08
8.76518e-05
6.05483e-08
-1.47438e-06
-4.15684e-10
-3.3109e-07
-2.71824e-08
9.38481e-05
-1.80249e-08
-3.79484e-07
4.92622e-08
-4.68431e-08
8.07972e-06
0.00119341
6.95831e-08
-0.00657113
1.95038e-07
-0.00118747
-0.00675227
-0.000593281
1.80954e-08
-0.00146277
0.00392582
-0.000892598
0.000110145
4.27081e-08
2.6908e-08
4.36706e-08
0.000434953
8.62561e-08
6.68809e-08
0.00114512
-1.49229e-10
-0.00110432
-1.34581e-07
0.000298449
1.01481e-07
-4.87002e-11
-3.69776e-06
1.6725e-08
-6.90676e-07
8.0722e-08
7.70185e-08
7.56654e-08
-0.00115826
9.96049e-09
1.05103e-07
0.000916792
-0.000277498
-8.75268e-10
1.21576e-08
2.65583e-09
-1.30219e-07
1.53127e-06
0.000641844
0.00275786
5.05944e-07
0.000596956
0.0190258
-1.37884e-05
-6.51166e-09
1.30452e-08
-6.39428e-08
-1.43146e-08
7.73452e-08
0.00100549
0.00132518
5.0135e-09
-7.94043e-08
1.27225e-07
-0.00253866
-0.00984229
-0.024977
-0.00195914
9.54697e-08
0.000504614
0.0020158
-3.46285e-08
-0.00271918
-5.04663e-07
-2.71074e-08
-0.00383876
-0.0042582
-0.000649497
4.96052e-09
-1.33238e-07
-1.93187e-07
4.4923e-05
3.04226e-08
9.31178e-08
-1.78986e-11
-2.2882e-09
-2.0834e-09
0.00191976
-1.06537e-07
9.54237e-10
0.00106207
6.97615e-09
0.000723648
9.89374e-09
0.00130381
1.29572e-05
-4.33217e-09
0.00260902
3.21262e-08
-1.21939e-05
-2.62242e-08
1.65675e-07
-1.81976e-08
1.40004e-08
0.000280909
-5.43807e-06
1.8765e-07
9.52911e-08
-1.27332e-08
1.40416e-06
-8.94486e-10
-4.1727e-09
-4.65385e-08
-1.91602e-08
-0.00247222
-2.80903e-09
0.0143734
0.00149285
1.74247e-09
-6.72243e-09
0.000348591
1.78119e-08
8.23347e-09
-3.21734e-05
-1.27952e-07
-1.02094e-07
4.79399e-07
2.5583e-06
0.00329481
-7.34588e-08
-3.35904e-10
-8.75972e-08
0.000644745
-0.00116175
-6.81065e-09
2.31079e-07
9.32792e-08
4.14347e-08
-8.51086e-08
-3.31884e-08
-5.22223e-07
2.18262e-07
1.07359e-07
-6.17827e-08
1.83268e-09
1.02436e-07
4.13709e-08
2.5368e-08
4.02597e-06
-0.00635919
-0.00873789
-2.75075e-06
0.0171008
-1.05907e-05
-1.13483e-07
0.000556245
-0.00401865
0.0170632
-2.92528e-09
2.87627e-08
2.67321e-06
-0.00243915
1.01264e-05
-2.04467e-07
-0.0112614
5.63626e-09
5.37581e-08
-5.69755e-05
3.46726e-09
-4.53051e-06
2.37264e-07
1.18782e-07
0.000265517
0.0151047
-1.02757e-10
-0.000133751
-0.00212114
3.72695e-06
1.21504e-05
7.18039e-08
0.0276119
5.59653e-05
-0.00433488
-2.71266e-10
3.71604e-07
0.000153232
-7.96408e-09
-1.20145e-07
3.58447e-08
-7.17179e-08
5.63681e-08
0.00103612
0.000129004
8.61697e-08
1.52319e-07
4.01744e-08
0.00112411
-1.49992e-07
7.22545e-08
6.68262e-08
0.020928
8.29064e-08
1.50901e-07
5.68169e-07
6.93837e-07
-9.40785e-08
-3.07032e-06
5.78336e-07
-3.06046e-08
-3.97162e-06
-5.82404e-08
-2.94079e-08
2.53699e-07
-4.70786e-08
4.68896e-07
-0.00249019
-7.22475e-06
-2.87807e-08
-0.000138478
0.00121579
5.46169e-06
0.000169322
-1.98226e-07
1.60079e-07
0.00154482
2.48289e-07
2.06087e-09
2.35999e-07
-2.50663e-07
5.3012e-08
-1.46622e-09
6.15867e-09
1.92771e-05
-0.00232167
0.00353777
-0.00295521
1.94624e-09
-1.56677e-08
2.45284e-07
-1.05737e-06
0.00157144
1.33459e-09
0.0143688
-9.39878e-08
0.000581212
2.06125e-08
-0.00205288
6.56514e-09
0.000629053
-0.00236301
-1.14563e-06
-0.000271516
-5.36107e-07
6.42706e-09
-5.36819e-07
3.63883e-05
0.0025426
1.23198e-07
-4.68759e-09
-4.35682e-09
8.68791e-08
7.57079e-08
-4.00045e-10
-9.85219e-08
3.30091e-08
-6.44858e-07
-2.54071e-08
-0.00364689
-5.49339e-11
-0.00269811
-2.63756e-08
-5.90701e-06
0.000234626
-4.9812e-09
0.00318637
-1.77092e-08
-3.83183e-08
-1.03683e-07
3.43567e-09
1.14834e-07
-5.07212e-05
4.19303e-07
1.72908e-08
9.66148e-09
-9.84045e-09
0.00734777
7.07447e-08
3.71273e-06
-5.27893e-06
-3.63843e-10
-4.44168e-07
1.10153e-07
-3.74606e-08
1.96227e-08
-4.57025e-10
-1.54129e-07
0.00104541
-1.59824e-08
-0.00325633
-4.50337e-08
9.59629e-08
-7.41288e-10
0.00119542
-2.52758e-08
0.00117996
-2.16749e-07
-1.34091e-09
0.00161514
-3.39902e-07
-0.0136688
2.26037e-07
-1.15216e-07
8.26387e-09
4.68206e-08
0.0233959
1.25535e-08
4.46472e-08
5.12684e-08
-2.05882e-06
-3.83066e-06
-0.00124951
0.00250913
0.00183638
-7.4177e-08
-0.000519058
-1.05199e-07
-0.0026533
-2.73423e-05
1.31082e-07
1.43678e-05
-1.40462e-06
-1.72757e-08
-3.51434e-07
-2.79198e-08
-2.44104e-08
-8.20023e-08
6.99903e-08
0.00252982
4.11847e-05
-4.30786e-06
1.07883e-05
3.43667e-09
-0.006439
-7.26305e-09
-4.55055e-08
-5.52436e-08
5.97267e-05
-4.01366e-08
0.00137489
-1.13263e-07
-3.1878e-06
4.52839e-05
7.11523e-08
2.18515e-07
-0.00218614
-1.23185e-07
-9.1329e-08
-7.50966e-06
1.48913e-08
3.21914e-09
-1.02218e-10
-7.29371e-06
-0.000135591
-3.94968e-08
-3.59452e-12
-0.00157697
0.000504301
-7.94488e-09
-5.56383e-10
-0.00675382
-0.00237938
-5.33155e-08
-2.71641e-05
1.11918e-09
7.58007e-08
4.15124e-07
-4.08748e-09
0.0193442
-1.20515e-08
0.00271458
0.00295593
0.00311601
-1.04452e-07
7.85284e-08
1.1285e-08
1.92406e-08
-3.24322e-05
4.05624e-08
-0.0013929
0.000597896
1.53631e-07
1.32688e-09
-2.94796e-08
-6.69531e-06
8.69547e-07
2.15614e-06
-0.00338452
4.49828e-08
-0.00685293
1.43594e-07
0.00209614
2.28852e-06
2.31234e-07
-7.67231e-06
0.00357003
0.00171279
1.02538e-07
-1.58527e-05
9.84995e-09
0.00632111
1.75568e-05
-1.61972e-05
-1.13252e-08
-1.68285e-07
8.86459e-09
4.01222e-05
0.00495309
1.04024e-07
-7.70665e-08
0.00255963
-0.00203445