/*--------------------------------*- C++ -*----------------------------------*\
| =========                 |                                                 |
| \\      /  F ield         | OpenFOAM: The Open Source CFD Toolbox           |
|  \\    /   O peration     | Version:  v2012                                 |
|   \\  /    A nd           | Website:  www.openfoam.com                      |
|    \\/     M anipulation  |                                                 |
\*---------------------------------------------------------------------------*/
FoamFile
{
    version     2.0;
    format      ascii;
    class       volVectorField;
    location    "50";
    object      cellDisplacement;
}
// * * * * * * * * * * * * * * * * * * * * * * * * * * * * * * * * * * * * * //

dimensions      [0 1 0 0 0 0 0];


internalField   nonuniform List<vector> 
18355
(
(0 -0.0147112 0)
(0 -0.00286749 0)
(0 -0.0150281 0)
(0 -0.00299749 0)
(0 -0.00851901 0)
(0 -0.0109622 0)
(0 -0.00642591 0)
(0 -0.00860891 0)
(0 -0.000575047 0)
(0 -0.004518 0)
(0 -0.0133031 0)
(0 -0.0150632 0)
(0 -0.0150664 0)
(0 -0.0122305 0)
(0 -0.00104879 0)
(0 -0.00196713 0)
(0 -0.00282216 0)
(0 -0.0127319 0)
(0 -0.0149302 0)
(0 -0.00821902 0)
(0 -0.0143599 0)
(0 -0.0128447 0)
(0 -0.00216276 0)
(0 -0.0108951 0)
(0 -0.00211864 0)
(0 -0.00965222 0)
(0 -0.00658229 0)
(0 -0.00528115 0)
(0 -0.00043927 0)
(0 -0.0132928 0)
(0 -0.0109244 0)
(0 -0.0140822 0)
(0 -0.00257979 0)
(0 -0.00136349 0)
(0 -8.90144e-06 0)
(0 -0.010557 0)
(0 -0.0145003 0)
(0 -0.0105542 0)
(0 -0.0133204 0)
(0 -0.0120857 0)
(0 -0.00111296 0)
(0 -0.0133348 0)
(0 -0.00144316 0)
(0 -0.00266434 0)
(0 -0.00277662 0)
(0 -0.0150961 0)
(0 -0.00670282 0)
(0 -0.00649132 0)
(0 -0.0108634 0)
(0 -0.00721785 0)
(0 -0.000259412 0)
(0 -0.0144651 0)
(0 -0.00732588 0)
(0 -0.0148047 0)
(0 -0.00815412 0)
(0 -0.00819944 0)
(0 -6.4175e-05 0)
(0 -0.0137509 0)
(0 -0.00976459 0)
(0 -0.0151027 0)
(0 -0.00143094 0)
(0 -0.0150125 0)
(0 -0.0147903 0)
(0 -0.00381297 0)
(0 -0.0142601 0)
(0 -0.000282744 0)
(0 -0.0138106 0)
(0 -0.0145034 0)
(0 -0.0012733 0)
(0 -0.00996518 0)
(0 -0.00624433 0)
(0 -0.00835814 0)
(0 -0.0140091 0)
(0 -0.0127038 0)
(0 -0.00818609 0)
(0 -0.00134769 0)
(0 -0.0137684 0)
(0 -0.00141016 0)
(0 -0.00611661 0)
(0 -0.0081058 0)
(0 -0.0137822 0)
(0 -0.00785323 0)
(0 -0.00133464 0)
(0 -0.0138751 0)
(0 -0.0145125 0)
(0 -0.000239034 0)
(0 -0.000835608 0)
(0 -0.0145308 0)
(0 -0.00613901 0)
(0 -0.0145177 0)
(0 -0.0121848 0)
(0 -0.0143112 0)
(0 -0.00776549 0)
(0 -0.00713891 0)
(0 -0.00962034 0)
(0 -0.00357658 0)
(0 -0.00529668 0)
(0 -0.00354466 0)
(0 -0.0148692 0)
(0 -0.0126396 0)
(0 -0.0144989 0)
(0 -0.00604208 0)
(0 -0.00703174 0)
(0 -3.6941e-05 0)
(0 -0.0137886 0)
(0 -0.00204693 0)
(0 -0.0142353 0)
(0 -0.00961421 0)
(0 -0.0145236 0)
(0 -0.0017718 0)
(0 -8.85874e-05 0)
(0 -0.000117708 0)
(0 -0.0137579 0)
(0 -0.0138234 0)
(0 -0.015086 0)
(0 -0.0137851 0)
(0 -0.00591136 0)
(0 -0.00808504 0)
(0 -0.0134244 0)
(0 -0.0138043 0)
(0 -0.0099432 0)
(0 -0.015034 0)
(0 -0.0121233 0)
(0 -0.0145746 0)
(0 -0.00800714 0)
(0 -0.0150952 0)
(0 -0.00652699 0)
(0 -0.00246651 0)
(0 -0.0147306 0)
(0 -0.0122846 0)
(0 -0.00547142 0)
(0 -0.0144429 0)
(0 -0.00950552 0)
(0 -0.0149422 0)
(0 -0.0145757 0)
(0 -0.00618926 0)
(0 -0.0149405 0)
(0 -0.00974802 0)
(0 -0.00244053 0)
(0 -0.0143188 0)
(0 -0.0142708 0)
(0 -0.00774992 0)
(0 -0.00651985 0)
(0 -0.0145461 0)
(0 -0.0145607 0)
(0 -0.00165343 0)
(0 -0.0150992 0)
(0 -8.02557e-05 0)
(0 -0.0137268 0)
(0 -0.00014721 0)
(0 -0.00503097 0)
(0 -0.0137687 0)
(0 -0.00423931 0)
(0 -0.00727016 0)
(0 -0.00151003 0)
(0 -0.00107953 0)
(0 -0.00225658 0)
(0 -0.000298692 0)
(0 -0.00667081 0)
(0 -0.000936634 0)
(0 -0.0129079 0)
(0 -0.0096388 0)
(0 -0.00179617 0)
(0 -0.0075485 0)
(0 -0.0128801 0)
(0 -0.00457497 0)
(0 -0.0151007 0)
(0 -0.0146852 0)
(0 -0.0141387 0)
(0 -0.0142598 0)
(0 -9.73985e-05 0)
(0 -0.0149345 0)
(0 -0.000215031 0)
(0 -0.0107947 0)
(0 -4.15933e-05 0)
(0 -0.00123948 0)
(0 -0.000142407 0)
(0 -4.13216e-05 0)
(0 -0.0138765 0)
(0 -0.014101 0)
(0 -0.000265162 0)
(0 -0.00450757 0)
(0 -0.0126073 0)
(0 -0.00617769 0)
(0 -0.00456274 0)
(0 -0.00695322 0)
(0 -0.000449017 0)
(0 -0.014472 0)
(0 -0.00578819 0)
(0 -0.00669579 0)
(0 -0.0150946 0)
(0 -0.014877 0)
(0 -0.003115 0)
(0 -0.0015056 0)
(0 -0.00261203 0)
(0 -0.0150816 0)
(0 -0.000319724 0)
(0 -0.0147233 0)
(0 -0.00297756 0)
(0 -0.0121721 0)
(0 -0.006838 0)
(0 -0.0122619 0)
(0 -0.0132792 0)
(0 -0.000375441 0)
(0 -0.0147007 0)
(0 -0.0120063 0)
(0 -0.0141113 0)
(0 -0.00610048 0)
(0 -0.00241057 0)
(0 -0.00439641 0)
(0 -0.0117223 0)
(0 -0.0106663 0)
(0 -0.00422815 0)
(0 -0.00419841 0)
(0 -7.67384e-05 0)
(0 -0.0107253 0)
(0 -0.0140723 0)
(0 -0.0143902 0)
(0 -0.012072 0)
(0 -0.00699153 0)
(0 -0.0145041 0)
(0 -0.00123495 0)
(0 -0.014525 0)
(0 -0.00313859 0)
(0 -0.009609 0)
(0 -0.00628547 0)
(0 -0.00130504 0)
(0 -0.00967626 0)
(0 -0.0146813 0)
(0 -0.0140401 0)
(0 -0.00589816 0)
(0 -0.0138132 0)
(0 -0.0027812 0)
(0 -0.00128563 0)
(0 -0.00747912 0)
(0 -0.00961052 0)
(0 -0.0133044 0)
(0 -0.0150963 0)
(0 -0.0144339 0)
(0 -0.00425458 0)
(0 -0.00317794 0)
(0 -0.0138314 0)
(0 -0.00422091 0)
(0 -0.0140537 0)
(0 -0.0119919 0)
(0 -0.00792544 0)
(0 -0.00618391 0)
(0 -0.0105978 0)
(0 -0.0107527 0)
(0 -0.00631956 0)
(0 -0.00384703 0)
(0 -0.0106816 0)
(0 -0.0150419 0)
(0 -0.0031866 0)
(0 -4.9038e-05 0)
(0 -0.0030491 0)
(0 -0.0144244 0)
(0 -0.00161046 0)
(0 -0.00621996 0)
(0 -0.00481554 0)
(0 -0.000111164 0)
(0 -0.00588673 0)
(0 -0.014866 0)
(0 -0.0147076 0)
(0 -0.0133037 0)
(0 -0.010304 0)
(0 -0.00780676 0)
(0 -0.0148711 0)
(0 -0.004803 0)
(0 -0.00813352 0)
(0 -0.00687734 0)
(0 -0.00180549 0)
(0 -0.0122152 0)
(0 -0.0144157 0)
(0 -0.00450046 0)
(0 -0.0118054 0)
(0 -0.0125882 0)
(0 -0.00601835 0)
(0 -0.0146542 0)
(0 -0.0103163 0)
(0 -0.012614 0)
(0 -0.0118324 0)
(0 -0.0137819 0)
(0 -0.00173491 0)
(0 -0.0145673 0)
(0 -0.0117285 0)
(0 -0.0140968 0)
(0 -0.00133965 0)
(0 -0.0140694 0)
(0 -0.000141378 0)
(0 -0.00251127 0)
(0 -0.01485 0)
(0 -0.013443 0)
(0 -0.00592464 0)
(0 -0.00788817 0)
(0 -0.000860662 0)
(0 -0.00145041 0)
(0 -0.0146441 0)
(0 -0.0117773 0)
(0 -0.00782603 0)
(0 -0.0145255 0)
(0 -0.012687 0)
(0 -0.0146227 0)
(0 -0.0148754 0)
(0 -0.0124791 0)
(0 -0.0126152 0)
(0 -0.00724046 0)
(0 -0.0143083 0)
(0 -0.0146907 0)
(0 -0.0148448 0)
(0 -0.00268977 0)
(0 -0.0150406 0)
(0 -0.00807111 0)
(0 -0.010922 0)
(0 -0.0147659 0)
(0 -0.0138064 0)
(0 -0.00794963 0)
(0 -0.00644249 0)
(0 -0.00590386 0)
(0 -0.0149336 0)
(0 -0.0150439 0)
(0 -0.0150259 0)
(0 -0.0026434 0)
(0 -0.0126466 0)
(0 -0.0142603 0)
(0 -0.00739888 0)
(0 -0.000117284 0)
(0 -0.0119185 0)
(0 -0.0142448 0)
(0 -0.0101279 0)
(0 -0.0140693 0)
(0 -7.99173e-06 0)
(0 -0.00737114 0)
(0 -0.00218494 0)
(0 -0.00796719 0)
(0 -0.00257557 0)
(0 -0.0120337 0)
(0 -0.0124625 0)
(0 -0.0150635 0)
(0 -0.0146736 0)
(0 -0.0140802 0)
(0 -0.00259547 0)
(0 -0.0125183 0)
(0 -0.00630842 0)
(0 -0.0099669 0)
(0 -0.00904233 0)
(0 -0.00457571 0)
(0 -0.00653902 0)
(0 -0.00149819 0)
(0 -0.000118741 0)
(0 -0.0125002 0)
(0 -0.00660475 0)
(0 -0.0150552 0)
(0 -0.009033 0)
(0 -0.00604454 0)
(0 -0.00592707 0)
(0 -0.0140962 0)
(0 -0.00117977 0)
(0 -0.0140693 0)
(0 -0.00135156 0)
(0 -0.00168659 0)
(0 -0.0125477 0)
(0 -0.0151021 0)
(0 -0.00293093 0)
(0 -0.00130447 0)
(0 -0.00616404 0)
(0 -0.00940096 0)
(0 -0.0059762 0)
(0 -0.000237151 0)
(0 -0.00731612 0)
(0 -0.00297893 0)
(0 -0.0125577 0)
(0 -0.00978064 0)
(0 -0.0133652 0)
(0 -0.0150655 0)
(0 -0.00510872 0)
(0 -0.00309774 0)
(0 -0.0143341 0)
(0 -0.00235382 0)
(0 -0.00940269 0)
(0 -0.00820015 0)
(0 -0.0123742 0)
(0 -0.00176615 0)
(0 -0.0127803 0)
(0 -0.000948406 0)
(0 -0.0098382 0)
(0 -0.00283812 0)
(0 -0.0138855 0)
(0 -0.00427571 0)
(0 -0.0137446 0)
(0 -0.000228094 0)
(0 -0.00609328 0)
(0 -0.012129 0)
(0 -0.00683828 0)
(0 -0.0149632 0)
(0 -0.0150779 0)
(0 -0.00292724 0)
(0 -0.00631196 0)
(0 -0.0150367 0)
(0 -0.00775814 0)
(0 -0.00229306 0)
(0 -1.60778e-06 0)
(0 -0.0148332 0)
(0 -0.00608724 0)
(0 -0.0125862 0)
(0 -0.00635852 0)
(0 -0.0128412 0)
(0 -0.0074741 0)
(0 -0.00969556 0)
(0 -0.014653 0)
(0 -0.0148359 0)
(0 -2.67378e-05 0)
(0 -0.0150076 0)
(0 -0.0126603 0)
(0 -0.00448892 0)
(0 -0.0143373 0)
(0 -0.00302882 0)
(0 -0.00932611 0)
(0 -0.000110299 0)
(0 -0.0142395 0)
(0 -0.00329629 0)
(0 -0.0149375 0)
(0 -0.00540848 0)
(0 -0.0148613 0)
(0 -0.00988961 0)
(0 -0.0033293 0)
(0 -0.0148699 0)
(0 -0.0134501 0)
(0 -0.00576263 0)
(0 -0.00451674 0)
(0 -0.00587869 0)
(0 -0.00425273 0)
(0 -0.0148447 0)
(0 -0.0149589 0)
(0 -0.00324549 0)
(0 -0.0124511 0)
(0 -0.0140622 0)
(0 -0.013555 0)
(0 -0.0146784 0)
(0 -0.012479 0)
(0 -0.00736499 0)
(0 -0.014796 0)
(0 -0.00111816 0)
(0 -0.00202277 0)
(0 -0.00588017 0)
(0 -0.00970738 0)
(0 -0.0150793 0)
(0 -0.00228132 0)
(0 -0.000110645 0)
(0 -0.00198462 0)
(0 -0.0150663 0)
(0 -0.008117 0)
(0 -0.00143707 0)
(0 -0.00923581 0)
(0 -0.0145505 0)
(0 -0.0111905 0)
(0 -0.0150843 0)
(0 -0.0150116 0)
(0 -0.0126966 0)
(0 -0.00106502 0)
(0 -0.0146635 0)
(0 -0.0150722 0)
(0 -0.0125267 0)
(0 -0.00218311 0)
(0 -0.0147599 0)
(0 -0.00214108 0)
(0 -0.00225477 0)
(0 -0.0146276 0)
(0 -0.0135444 0)
(0 -0.0139201 0)
(0 -0.0140397 0)
(0 -0.0137783 0)
(0 -0.0127326 0)
(0 -0.012877 0)
(0 -0.0150504 0)
(0 -0.0134666 0)
(0 -0.0146701 0)
(0 -0.0126234 0)
(0 -0.00208614 0)
(0 -0.0126921 0)
(0 -0.0021568 0)
(0 -0.0150026 0)
(0 -0.0150742 0)
(0 -0.0142151 0)
(0 -0.0127667 0)
(0 -0.011482 0)
(0 -0.0125961 0)
(0 -0.00443516 0)
(0 -0.0125319 0)
(0 -0.00371791 0)
(0 -0.00112803 0)
(0 -0.00787114 0)
(0 -0.0145907 0)
(0 -0.00326496 0)
(0 -0.0036696 0)
(0 -0.0148409 0)
(0 -0.0147399 0)
(0 -0.0147823 0)
(0 -0.0122201 0)
(0 -0.000212954 0)
(0 -0.0140875 0)
(0 -0.012761 0)
(0 -0.000130188 0)
(0 -0.0150231 0)
(0 -0.0108206 0)
(0 -0.0138027 0)
(0 -0.012453 0)
(0 -0.0133888 0)
(0 -0.0140017 0)
(0 -0.0151072 0)
(0 -0.0143597 0)
(0 -0.0103782 0)
(0 -0.00303426 0)
(0 -0.00113116 0)
(0 -0.0146896 0)
(0 -0.0150017 0)
(0 -0.01448 0)
(0 -0.0123724 0)
(0 -0.0151071 0)
(0 -0.00473689 0)
(0 -0.0149296 0)
(0 -0.0140621 0)
(0 -0.00235504 0)
(0 -0.0134419 0)
(0 -0.0126166 0)
(0 -0.0110791 0)
(0 -0.00618809 0)
(0 -0.0124765 0)
(0 -0.00231318 0)
(0 -0.00562193 0)
(0 -0.0123452 0)
(0 -0.0109438 0)
(0 -0.0138982 0)
(0 -0.0079112 0)
(0 -0.0110051 0)
(0 -0.0143531 0)
(0 -0.0106524 0)
(0 -0.0150732 0)
(0 -0.0136226 0)
(0 -0.0111181 0)
(0 -0.0140678 0)
(0 -0.0137339 0)
(0 -0.00674972 0)
(0 -0.00781826 0)
(0 -0.0111385 0)
(0 -0.0117879 0)
(0 -0.0118432 0)
(0 -0.00769166 0)
(0 -0.00799813 0)
(0 -0.00524325 0)
(0 -0.0136041 0)
(0 -0.0111113 0)
(0 -0.0149757 0)
(0 -0.0150684 0)
(0 -0.00785076 0)
(0 -0.0137991 0)
(0 -0.0147344 0)
(0 -0.0078904 0)
(0 -0.0150683 0)
(0 -0.00177633 0)
(0 -0.014276 0)
(0 -0.0143386 0)
(0 -0.00134029 0)
(0 -0.0137022 0)
(0 -0.0148772 0)
(0 -0.0148299 0)
(0 -0.000278293 0)
(0 -0.00130534 0)
(0 -0.0147675 0)
(0 -0.0145043 0)
(0 -0.0149734 0)
(0 -0.00571703 0)
(0 -0.0150182 0)
(0 -0.00522093 0)
(0 -0.0150166 0)
(0 -2.12726e-06 0)
(0 -0.00887267 0)
(0 -0.0150503 0)
(0 -0.00687332 0)
(0 -0.00951165 0)
(0 -5.15398e-05 0)
(0 -0.0138043 0)
(0 -0.00570572 0)
(0 -0.00729953 0)
(0 -0.0150314 0)
(0 -0.0142204 0)
(0 -0.00314123 0)
(0 -0.000104949 0)
(0 -0.0138089 0)
(0 -0.0123914 0)
(0 -0.0141942 0)
(0 -0.0150998 0)
(0 -0.00249293 0)
(0 -0.00288129 0)
(0 -0.0116278 0)
(0 -0.00011579 0)
(0 -0.0141073 0)
(0 -9.92656e-05 0)
(0 -0.00514489 0)
(0 -0.0145439 0)
(0 -0.00582449 0)
(0 -0.014829 0)
(0 -0.00533831 0)
(0 -0.000111124 0)
(0 -0.00622862 0)
(0 -0.0147707 0)
(0 -0.0144881 0)
(0 -0.0148437 0)
(0 -0.0141112 0)
(0 -0.0118721 0)
(0 -0.00744863 0)
(0 -0.00632414 0)
(0 -0.0127526 0)
(0 -0.0125791 0)
(0 -0.000115402 0)
(0 -0.0145858 0)
(0 -0.0143906 0)
(0 -0.00877286 0)
(0 -0.0134714 0)
(0 -0.0135176 0)
(0 -0.0132362 0)
(0 -0.0150503 0)
(0 -0.00208869 0)
(0 -0.0147076 0)
(0 -0.0022174 0)
(0 -8.46058e-05 0)
(0 -0.00533707 0)
(0 -0.0148206 0)
(0 -0.0150855 0)
(0 -0.00722136 0)
(0 -0.00569773 0)
(0 -0.00626142 0)
(0 -0.000255796 0)
(0 -0.00456601 0)
(0 -0.0149242 0)
(0 -0.0100479 0)
(0 -0.0133127 0)
(0 -0.0146014 0)
(0 -0.0125883 0)
(0 -0.0148317 0)
(0 -0.00653646 0)
(0 -0.0148093 0)
(0 -0.0150367 0)
(0 -0.00611732 0)
(0 -0.00550908 0)
(0 -0.00611597 0)
(0 -0.0144841 0)
(0 -0.0137393 0)
(0 -0.0138275 0)
(0 -0.00609759 0)
(0 -0.0138169 0)
(0 -0.00714953 0)
(0 -0.0072032 0)
(0 -0.0149236 0)
(0 -0.00998961 0)
(0 -0.0146945 0)
(0 -0.00173387 0)
(0 -0.0120172 0)
(0 -0.0149469 0)
(0 -0.000175432 0)
(0 -0.0138689 0)
(0 -0.00950829 0)
(0 -0.0145348 0)
(0 -0.0101002 0)
(0 -0.00477867 0)
(0 -0.0140563 0)
(0 -0.0138309 0)
(0 -0.00121961 0)
(0 -0.00294973 0)
(0 -0.0136756 0)
(0 -0.0148134 0)
(0 -0.0137624 0)
(0 -0.000762284 0)
(0 -0.0145594 0)
(0 -0.00540795 0)
(0 -0.00953494 0)
(0 -0.00604735 0)
(0 -0.015086 0)
(0 -0.0110825 0)
(0 -0.0147323 0)
(0 -0.00128971 0)
(0 -0.0150247 0)
(0 -0.00901006 0)
(0 -8.06931e-05 0)
(0 -0.0150529 0)
(0 -0.0134568 0)
(0 -0.0135974 0)
(0 -0.0137278 0)
(0 -0.00469823 0)
(0 -0.0147387 0)
(0 -0.00893696 0)
(0 -0.00168011 0)
(0 -0.00158147 0)
(0 -0.00628714 0)
(0 -0.01389 0)
(0 -0.0145147 0)
(0 -0.0146364 0)
(0 -0.000356907 0)
(0 -0.0150708 0)
(0 -0.00956472 0)
(0 -0.00597162 0)
(0 -0.0103361 0)
(0 -0.0125163 0)
(0 -0.00994378 0)
(0 -0.0138296 0)
(0 -0.00122503 0)
(0 -0.0150277 0)
(0 -0.00793089 0)
(0 -0.0016289 0)
(0 -0.00177849 0)
(0 -0.00994972 0)
(0 -0.00764172 0)
(0 -0.0150499 0)
(0 -0.0128492 0)
(0 -0.0148554 0)
(0 -0.00830589 0)
(0 -0.0109836 0)
(0 -0.0128787 0)
(0 -0.00654598 0)
(0 -0.00581277 0)
(0 -0.003204 0)
(0 -0.0150041 0)
(0 -0.0145654 0)
(0 -0.00135614 0)
(0 -0.0105868 0)
(0 -0.0150322 0)
(0 -0.000189508 0)
(0 -0.00575744 0)
(0 -8.76134e-05 0)
(0 -0.00282828 0)
(0 -0.0148197 0)
(0 -6.24669e-05 0)
(0 -0.0147824 0)
(0 -0.0137984 0)
(0 -0.00590148 0)
(0 -0.000167126 0)
(0 -0.0143909 0)
(0 -0.00596885 0)
(0 -0.0144492 0)
(0 -0.010581 0)
(0 -0.00767954 0)
(0 -0.00250112 0)
(0 -0.0150157 0)
(0 -0.0146872 0)
(0 -0.00602612 0)
(0 -0.0139022 0)
(0 -0.00558828 0)
(0 -0.0114318 0)
(0 -0.00783074 0)
(0 -1.30131e-05 0)
(0 -0.00257083 0)
(0 -0.00582886 0)
(0 -0.00915797 0)
(0 -0.000964232 0)
(0 -0.00134669 0)
(0 -9.03752e-05 0)
(0 -0.0123534 0)
(0 -0.0144356 0)
(0 -0.0150101 0)
(0 -0.00248015 0)
(0 -0.0138052 0)
(0 -0.0113844 0)
(0 -0.0114136 0)
(0 -0.0060001 0)
(0 -0.00635148 0)
(0 -0.0102348 0)
(0 -0.00137875 0)
(0 -0.00553339 0)
(0 -0.000445846 0)
(0 -0.0121197 0)
(0 -0.0116817 0)
(0 -0.00272099 0)
(0 -0.0150838 0)
(0 -0.0142783 0)
(0 -0.0142217 0)
(0 -0.00531963 0)
(0 -0.0150715 0)
(0 -0.00156277 0)
(0 -0.00139895 0)
(0 -0.0026804 0)
(0 -0.0105062 0)
(0 -0.0128633 0)
(0 -0.00262283 0)
(0 -0.00186246 0)
(0 -0.00300075 0)
(0 -0.0128328 0)
(0 -0.0012558 0)
(0 -0.0127173 0)
(0 -0.00774029 0)
(0 -0.012473 0)
(0 -0.00771501 0)
(0 -0.013863 0)
(0 -0.0120976 0)
(0 -0.00607983 0)
(0 -0.0127928 0)
(0 -0.00113218 0)
(0 -0.0149462 0)
(0 -0.00240135 0)
(0 -0.0145848 0)
(0 -0.0125677 0)
(0 -0.00783039 0)
(0 -0.0112015 0)
(0 -0.0100773 0)
(0 -0.0151064 0)
(0 -0.000318622 0)
(0 -0.0022678 0)
(0 -0.0128541 0)
(0 -0.0135587 0)
(0 -0.010716 0)
(0 -0.00237047 0)
(0 -0.00108341 0)
(0 -0.00969987 0)
(0 -0.00109972 0)
(0 -0.014605 0)
(0 -0.00309559 0)
(0 -0.015058 0)
(0 -0.0140237 0)
(0 -0.000696095 0)
(0 -0.000924352 0)
(0 -2.46913e-05 0)
(0 -0.00938409 0)
(0 -0.0146877 0)
(0 -0.0149609 0)
(0 -0.00744993 0)
(0 -0.0147858 0)
(0 -0.0113577 0)
(0 -0.00128161 0)
(0 -0.000685569 0)
(0 -0.00761113 0)
(0 -0.00579687 0)
(0 -0.0127501 0)
(0 -0.0148494 0)
(0 -0.00915691 0)
(0 -0.0073915 0)
(0 -0.0112325 0)
(0 -0.00992335 0)
(0 -0.0137096 0)
(0 -0.00767973 0)
(0 -0.0150701 0)
(0 -0.0148015 0)
(0 -0.0145137 0)
(0 -0.0150268 0)
(0 -0.0151021 0)
(0 -0.0131607 0)
(0 -0.00682473 0)
(0 -0.00130014 0)
(0 -0.0125364 0)
(0 -0.00255777 0)
(0 -0.0100488 0)
(0 -0.0149138 0)
(0 -0.0150215 0)
(0 -0.002545 0)
(0 -0.0120473 0)
(0 -0.00973695 0)
(0 -0.00588165 0)
(0 -0.0151065 0)
(0 -0.0055812 0)
(0 -0.00142849 0)
(0 -0.00116991 0)
(0 -0.000316711 0)
(0 -0.00784751 0)
(0 -0.00661589 0)
(0 -0.0058548 0)
(0 -0.015076 0)
(0 -0.000993245 0)
(0 -0.0104815 0)
(0 -0.00257534 0)
(0 -0.00305877 0)
(0 -0.00795765 0)
(0 -0.0113121 0)
(0 -0.0125196 0)
(0 -0.00299233 0)
(0 -0.00693943 0)
(0 -0.00183663 0)
(0 -0.000131628 0)
(0 -0.015053 0)
(0 -0.0125097 0)
(0 -0.00984479 0)
(0 -0.00589012 0)
(0 -0.0131708 0)
(0 -0.0149626 0)
(0 -0.00426594 0)
(0 -0.00192399 0)
(0 -0.000791776 0)
(0 -0.00220272 0)
(0 -0.00585366 0)
(0 -0.000325618 0)
(0 -0.0131213 0)
(0 -0.00449683 0)
(0 -0.011493 0)
(0 -0.010136 0)
(0 -0.0100924 0)
(0 -0.0135195 0)
(0 -0.00255088 0)
(0 -0.000338857 0)
(0 -0.00040472 0)
(0 -0.0118746 0)
(0 -0.0146341 0)
(0 -0.00810096 0)
(0 -0.0148495 0)
(0 -0.00122355 0)
(0 -0.00121427 0)
(0 -0.0142498 0)
(0 -0.011575 0)
(0 -0.00562064 0)
(0 -0.00273636 0)
(0 -0.0150791 0)
(0 -0.0014968 0)
(0 -0.00285696 0)
(0 -0.0141925 0)
(0 -0.0118422 0)
(0 -0.00934736 0)
(0 -0.014218 0)
(0 -0.010756 0)
(0 -0.0149212 0)
(0 -0.0116084 0)
(0 -7.29491e-05 0)
(0 -0.00152223 0)
(0 -0.0102706 0)
(0 -0.0108809 0)
(0 -0.00153053 0)
(0 -0.00975805 0)
(0 -0.00458387 0)
(0 -0.00148249 0)
(0 -0.0115788 0)
(0 -0.0125607 0)
(0 -0.0148229 0)
(0 -0.00969131 0)
(0 -0.00526297 0)
(0 -0.00701689 0)
(0 -0.00695494 0)
(0 -0.00311094 0)
(0 -0.00273623 0)
(0 -0.0149475 0)
(0 -0.0149689 0)
(0 -0.00291758 0)
(0 -0.0022158 0)
(0 -0.00160898 0)
(0 -0.00220202 0)
(0 -0.00660895 0)
(0 -0.00736466 0)
(0 -0.00623336 0)
(0 -0.000828006 0)
(0 -0.00624632 0)
(0 -0.00245524 0)
(0 -0.00266444 0)
(0 -0.00808941 0)
(0 -0.0148146 0)
(0 -0.00665397 0)
(0 -0.00405691 0)
(0 -0.00868681 0)
(0 -0.0143046 0)
(0 -0.00211028 0)
(0 -0.0100958 0)
(0 -0.00277368 0)
(0 -0.00285252 0)
(0 -0.00213785 0)
(0 -0.0142893 0)
(0 -0.0150473 0)
(0 -0.00832665 0)
(0 -0.0149242 0)
(0 -0.0145084 0)
(0 -0.0150795 0)
(0 -0.0148571 0)
(0 -0.0052103 0)
(0 -0.0118679 0)
(0 -0.00605989 0)
(0 -0.00388705 0)
(0 -0.00451803 0)
(0 -0.00699009 0)
(0 -0.00307183 0)
(0 -0.00763982 0)
(0 -0.0145258 0)
(0 -0.00893717 0)
(0 -0.0149699 0)
(0 -0.00690686 0)
(0 -0.0149572 0)
(0 -0.0127129 0)
(0 -0.0116083 0)
(0 -0.0013792 0)
(0 -0.0134317 0)
(0 -0.0137059 0)
(0 -0.000520609 0)
(0 -0.00033312 0)
(0 -0.0150522 0)
(0 -0.0143906 0)
(0 -0.0146401 0)
(0 -0.00393285 0)
(0 -0.0150149 0)
(0 -0.00226364 0)
(0 -0.00677296 0)
(0 -0.0130139 0)
(0 -0.0134198 0)
(0 -0.00966874 0)
(0 -0.0148035 0)
(0 -0.00283163 0)
(0 -0.0125797 0)
(0 -0.0137542 0)
(0 -0.0132945 0)
(0 -0.0150138 0)
(0 -0.0150527 0)
(0 -0.0096098 0)
(0 -7.56142e-05 0)
(0 -0.0058768 0)
(0 -0.0150761 0)
(0 -0.0123816 0)
(0 -0.0121752 0)
(0 -0.00887416 0)
(0 -0.0143002 0)
(0 -0.0136502 0)
(0 -0.0133813 0)
(0 -0.00014233 0)
(0 -0.00358815 0)
(0 -0.0134693 0)
(0 -0.0132572 0)
(0 -0.00125556 0)
(0 -0.00698562 0)
(0 -0.000647287 0)
(0 -0.00128487 0)
(0 -0.00644012 0)
(0 -0.0123491 0)
(0 -0.0150273 0)
(0 -0.000856485 0)
(0 -0.0134278 0)
(0 -0.0145025 0)
(0 -0.0125461 0)
(0 -0.000387308 0)
(0 -0.0149452 0)
(0 -0.00917713 0)
(0 -0.0113449 0)
(0 -0.00641109 0)
(0 -0.0109895 0)
(0 -0.0126987 0)
(0 -0.0134826 0)
(0 -0.0117887 0)
(0 -0.0150454 0)
(0 -0.00363324 0)
(0 -0.0146359 0)
(0 -0.0116718 0)
(0 -0.0146226 0)
(0 -0.0130672 0)
(0 -2.68421e-05 0)
(0 -0.0140944 0)
(0 -0.0057062 0)
(0 -0.00765862 0)
(0 -0.0136475 0)
(0 -0.00565095 0)
(0 -0.00291791 0)
(0 -0.008512 0)
(0 -0.0148444 0)
(0 -0.015098 0)
(0 -5.41674e-05 0)
(0 -0.0148095 0)
(0 -7.00916e-05 0)
(0 -0.012813 0)
(0 -0.00610163 0)
(0 -0.00145972 0)
(0 -0.0067353 0)
(0 -0.0133036 0)
(0 -0.00127699 0)
(0 -0.0136861 0)
(0 -0.0140545 0)
(0 -0.0107937 0)
(0 -0.015046 0)
(0 -0.0133837 0)
(0 -0.0133299 0)
(0 -0.00250491 0)
(0 -0.00127152 0)
(0 -0.0150298 0)
(0 -0.0150834 0)
(0 -0.0150457 0)
(0 -0.00138617 0)
(0 -0.00576111 0)
(0 -0.0115315 0)
(0 -0.0125876 0)
(0 -4.85311e-05 0)
(0 -0.00104293 0)
(0 -0.0150078 0)
(0 -0.0115221 0)
(0 -0.0117124 0)
(0 -0.00117738 0)
(0 -0.013187 0)
(0 -0.00840608 0)
(0 -0.0149948 0)
(0 -0.00291844 0)
(0 -0.0149244 0)
(0 -0.00406083 0)
(0 -0.00149755 0)
(0 -0.0145769 0)
(0 -0.00118308 0)
(0 -0.00538916 0)
(0 -0.0114408 0)
(0 -0.0114309 0)
(0 -0.0133741 0)
(0 -0.0111021 0)
(0 -0.0150945 0)
(0 -9.27018e-05 0)
(0 -0.0110632 0)
(0 -0.0147734 0)
(0 -0.0117392 0)
(0 -0.0127688 0)
(0 -0.0148523 0)
(0 -0.0150792 0)
(0 -0.00287789 0)
(0 -0.0100943 0)
(0 -0.00644576 0)
(0 -0.0150873 0)
(0 -0.00707267 0)
(0 -0.0146959 0)
(0 -0.000495253 0)
(0 -0.0147956 0)
(0 -0.0150769 0)
(0 -0.00261217 0)
(0 -0.0101449 0)
(0 -0.0126341 0)
(0 -0.00691961 0)
(0 -0.0134716 0)
(0 -0.00150346 0)
(0 -0.00747867 0)
(0 -0.000926767 0)
(0 -0.0150432 0)
(0 -0.0109505 0)
(0 -0.00199754 0)
(0 -0.00240559 0)
(0 -0.0077777 0)
(0 -0.00438047 0)
(0 -0.000948092 0)
(0 -0.0134209 0)
(0 -0.00126768 0)
(0 -6.98098e-05 0)
(0 -0.00207612 0)
(0 -0.0115332 0)
(0 -0.0121941 0)
(0 -0.0124159 0)
(0 -0.0009575 0)
(0 -0.0124209 0)
(0 -0.0147933 0)
(0 -0.0127978 0)
(0 -0.00573777 0)
(0 -0.00292681 0)
(0 -0.012755 0)
(0 -0.00775141 0)
(0 -0.000184749 0)
(0 -0.011505 0)
(0 -0.00740668 0)
(0 -0.000268136 0)
(0 -0.00111218 0)
(0 -0.0123826 0)
(0 -0.00110478 0)
(0 -0.00832202 0)
(0 -0.00937638 0)
(0 -0.0058309 0)
(0 -0.00210329 0)
(0 -0.00938351 0)
(0 -0.0058185 0)
(0 -0.00853897 0)
(0 -0.0150467 0)
(0 -0.0147665 0)
(0 -0.000317772 0)
(0 -0.012614 0)
(0 -0.0133643 0)
(0 -0.00922992 0)
(0 -0.00829843 0)
(0 -0.00124182 0)
(0 -0.00146955 0)
(0 -0.00142911 0)
(0 -0.0147197 0)
(0 -0.0099278 0)
(0 -0.00239927 0)
(0 -0.0149287 0)
(0 -0.00132556 0)
(0 -4.08437e-05 0)
(0 -0.0010285 0)
(0 -0.00106499 0)
(0 -0.0141956 0)
(0 -0.0150328 0)
(0 -0.0147981 0)
(0 -1.97683e-05 0)
(0 -0.011444 0)
(0 -0.0142762 0)
(0 -0.00913181 0)
(0 -0.00259057 0)
(0 -0.00697343 0)
(0 -0.00842109 0)
(0 -0.0143364 0)
(0 -0.0148663 0)
(0 -0.0126098 0)
(0 -0.000407991 0)
(0 -0.0149547 0)
(0 -0.012737 0)
(0 -0.0147431 0)
(0 -0.0130016 0)
(0 -0.00409067 0)
(0 -0.0141129 0)
(0 -0.0018955 0)
(0 -0.0150125 0)
(0 -0.0143049 0)
(0 -0.00174454 0)
(0 -0.0114863 0)
(0 -0.00397304 0)
(0 -0.0135603 0)
(0 -0.0150645 0)
(0 -0.00502216 0)
(0 -0.00572501 0)
(0 -0.0137227 0)
(0 -0.0135099 0)
(0 -0.00959009 0)
(0 -0.0104083 0)
(0 -0.00918458 0)
(0 -0.0133384 0)
(0 -0.00823239 0)
(0 -0.00191975 0)
(0 -0.00916548 0)
(0 -4.14191e-05 0)
(0 -0.0023822 0)
(0 -0.0131031 0)
(0 -0.0148524 0)
(0 -0.00388521 0)
(0 -0.00261821 0)
(0 -0.0135183 0)
(0 -0.00420873 0)
(0 -0.00846048 0)
(0 -0.00984119 0)
(0 -0.00201037 0)
(0 -0.0140333 0)
(0 -0.00754432 0)
(0 -0.0135272 0)
(0 -0.00450345 0)
(0 -0.00717731 0)
(0 -0.0145617 0)
(0 -0.0124935 0)
(0 -0.0109454 0)
(0 -0.00250017 0)
(0 -0.00447205 0)
(0 -0.013241 0)
(0 -0.0150195 0)
(0 -0.0114572 0)
(0 -0.0106882 0)
(0 -0.0107268 0)
(0 -0.00022197 0)
(0 -0.0101269 0)
(0 -0.00547126 0)
(0 -0.007832 0)
(0 -0.0118075 0)
(0 -0.0141689 0)
(0 -0.012676 0)
(0 -0.00372877 0)
(0 -0.00704221 0)
(0 -0.00299417 0)
(0 -5.02769e-05 0)
(0 -0.00129623 0)
(0 -0.0133323 0)
(0 -0.00738907 0)
(0 -0.0148616 0)
(0 -0.0117242 0)
(0 -0.0122851 0)
(0 -0.00453545 0)
(0 -0.000522697 0)
(0 -0.0150993 0)
(0 -0.0149245 0)
(0 -0.00124304 0)
(0 -0.0148576 0)
(0 -0.000555873 0)
(0 -0.00378271 0)
(0 -0.00706681 0)
(0 -0.0120809 0)
(0 -0.0146057 0)
(0 -0.000451654 0)
(0 -0.0150278 0)
(0 -0.00205016 0)
(0 -0.00131637 0)
(0 -0.00228213 0)
(0 -0.00443969 0)
(0 -0.0141459 0)
(0 -0.0114248 0)
(0 -0.0145671 0)
(0 -0.00219556 0)
(0 -0.00537194 0)
(0 -0.00392543 0)
(0 -0.0150718 0)
(0 -0.000123497 0)
(0 -0.00361894 0)
(0 -0.00288104 0)
(0 -0.0134091 0)
(0 -0.00769095 0)
(0 -0.0112163 0)
(0 -0.0057136 0)
(0 -0.0112405 0)
(0 -0.0115461 0)
(0 -0.00597992 0)
(0 -0.0126935 0)
(0 -0.00097677 0)
(0 -0.0121113 0)
(0 -0.0149325 0)
(0 -0.00200823 0)
(0 -0.0112377 0)
(0 -0.0144537 0)
(0 -0.00631175 0)
(0 -0.00459592 0)
(0 -0.000436361 0)
(0 -0.00508242 0)
(0 -0.0146529 0)
(0 -0.0144477 0)
(0 -0.0118821 0)
(0 -0.0118262 0)
(0 -0.0117737 0)
(0 -0.0150028 0)
(0 -0.0150248 0)
(0 -0.00897504 0)
(0 -0.00676863 0)
(0 -0.0149769 0)
(0 -0.0117738 0)
(0 -0.000181826 0)
(0 -0.00206041 0)
(0 -0.00207626 0)
(0 -0.00545669 0)
(0 -0.00277881 0)
(0 -0.00113958 0)
(0 -0.0145405 0)
(0 -0.00448045 0)
(0 -8.83536e-05 0)
(0 -0.00966771 0)
(0 -0.0115147 0)
(0 -0.00194604 0)
(0 -0.0150634 0)
(0 -0.00123516 0)
(0 -0.0143666 0)
(0 -0.00716027 0)
(0 -0.00610844 0)
(0 -0.00684374 0)
(0 -0.00596764 0)
(0 -0.0089404 0)
(0 -0.0125705 0)
(0 -0.0143018 0)
(0 -0.000520258 0)
(0 -0.0139755 0)
(0 -0.0110893 0)
(0 -0.0146417 0)
(0 -0.00878174 0)
(0 -0.0144162 0)
(0 -0.0103912 0)
(0 -0.000118714 0)
(0 -0.0118366 0)
(0 -0.00712791 0)
(0 -0.0143536 0)
(0 -0.000436703 0)
(0 -0.0150488 0)
(0 -0.00723015 0)
(0 -0.000107996 0)
(0 -0.00575832 0)
(0 -0.0111658 0)
(0 -0.0140969 0)
(0 -0.00834171 0)
(0 -0.00920617 0)
(0 -0.0150858 0)
(0 -0.00095207 0)
(0 -0.00348065 0)
(0 -0.0112334 0)
(0 -0.0149482 0)
(0 -0.00167854 0)
(0 -0.0145838 0)
(0 -0.00225471 0)
(0 -0.0104905 0)
(0 -0.0149453 0)
(0 -0.00812154 0)
(0 -0.00974673 0)
(0 -0.00605557 0)
(0 -0.014212 0)
(0 -0.00564418 0)
(0 -0.0142684 0)
(0 -0.00956166 0)
(0 -0.00792027 0)
(0 -0.00502871 0)
(0 -0.0121663 0)
(0 -0.00139512 0)
(0 -0.00602835 0)
(0 -0.00717408 0)
(0 -0.0145931 0)
(0 -0.0143023 0)
(0 -0.00579392 0)
(0 -0.000536376 0)
(0 -0.0150193 0)
(0 -0.00768121 0)
(0 -0.00191203 0)
(0 -0.0143036 0)
(0 -0.0150988 0)
(0 -0.0132454 0)
(0 -0.0150798 0)
(0 -0.00611771 0)
(0 -0.0149236 0)
(0 -0.00592251 0)
(0 -0.0149187 0)
(0 -0.00683781 0)
(0 -0.00255707 0)
(0 -0.000528521 0)
(0 -0.00256192 0)
(0 -0.014098 0)
(0 -0.00863507 0)
(0 -0.00885116 0)
(0 -0.0126353 0)
(0 -0.00252489 0)
(0 -0.0101913 0)
(0 -0.00252022 0)
(0 -0.00104365 0)
(0 -0.0149188 0)
(0 -0.00879854 0)
(0 -0.0127299 0)
(0 -0.0136871 0)
(0 -0.0130702 0)
(0 -0.0100974 0)
(0 -0.012409 0)
(0 -0.014438 0)
(0 -0.00676176 0)
(0 -0.000942605 0)
(0 -0.00610228 0)
(0 -0.000875222 0)
(0 -0.000908215 0)
(0 -0.0140776 0)
(0 -0.0149306 0)
(0 -0.0111521 0)
(0 -0.00788671 0)
(0 -0.00883392 0)
(0 -0.00575901 0)
(0 -0.00259292 0)
(0 -0.0150131 0)
(0 -0.0119163 0)
(0 -0.00652707 0)
(0 -0.00747566 0)
(0 -0.0149526 0)
(0 -0.000976037 0)
(0 -0.0018161 0)
(0 -0.0146527 0)
(0 -0.0052647 0)
(0 -0.0119641 0)
(0 -0.00966154 0)
(0 -0.0102555 0)
(0 -0.00254988 0)
(0 -0.0151073 0)
(0 -0.0142401 0)
(0 -0.000113596 0)
(0 -0.00663855 0)
(0 -0.00959604 0)
(0 -0.0150167 0)
(0 -0.00445457 0)
(0 -0.0144638 0)
(0 -0.00103216 0)
(0 -0.0111822 0)
(0 -3.76191e-05 0)
(0 -0.014056 0)
(0 -0.0102658 0)
(0 -0.0104666 0)
(0 -0.0140834 0)
(0 -0.00710681 0)
(0 -0.0150212 0)
(0 -0.0101792 0)
(0 -0.0139935 0)
(0 -0.0126168 0)
(0 -0.0124741 0)
(0 -0.0149388 0)
(0 -0.0147503 0)
(0 -0.00572511 0)
(0 -0.00223866 0)
(0 -0.0140141 0)
(0 -0.0117847 0)
(0 -0.008076 0)
(0 -0.00889322 0)
(0 -0.00438451 0)
(0 -0.000613994 0)
(0 -0.0149731 0)
(0 -0.00307431 0)
(0 -0.0125254 0)
(0 -0.00231473 0)
(0 -0.0150809 0)
(0 -0.0120526 0)
(0 -0.0116272 0)
(0 -0.00404797 0)
(0 -0.0139356 0)
(0 -0.0144191 0)
(0 -0.00389365 0)
(0 -0.00499399 0)
(0 -0.000934295 0)
(0 -0.00486215 0)
(0 -0.00242601 0)
(0 -0.0116498 0)
(0 -0.000975458 0)
(0 -0.0149177 0)
(0 -0.0142868 0)
(0 -0.0117637 0)
(0 -0.00959624 0)
(0 -0.0141315 0)
(0 -0.00920494 0)
(0 -0.013746 0)
(0 -0.0145203 0)
(0 -0.00870188 0)
(0 -0.00885415 0)
(0 -0.00574989 0)
(0 -0.00155202 0)
(0 -0.00842903 0)
(0 -0.0131187 0)
(0 -0.000614875 0)
(0 -0.00100403 0)
(0 -0.00543952 0)
(0 -0.00290309 0)
(0 -0.00477989 0)
(0 -0.00787528 0)
(0 -0.00429122 0)
(0 -0.00157109 0)
(0 -0.000940234 0)
(0 -0.000949517 0)
(0 -0.0129523 0)
(0 -0.0149041 0)
(0 -0.0146431 0)
(0 -0.00175556 0)
(0 -0.0149431 0)
(0 -0.00311123 0)
(0 -0.000782041 0)
(0 -0.000516308 0)
(0 -0.00245205 0)
(0 -0.0149829 0)
(0 -0.000548061 0)
(0 -0.0058547 0)
(0 -0.0031067 0)
(0 -0.00493941 0)
(0 -0.015046 0)
(0 -0.00878965 0)
(0 -0.00292474 0)
(0 -0.0108683 0)
(0 -0.0150492 0)
(0 -0.0150338 0)
(0 -0.0128856 0)
(0 -0.00242314 0)
(0 -0.0150104 0)
(0 -0.0141726 0)
(0 -0.00278534 0)
(0 -0.0128033 0)
(0 -0.00813216 0)
(0 -0.014927 0)
(0 -0.00196407 0)
(0 -0.0151082 0)
(0 -0.00200923 0)
(0 -0.00868704 0)
(0 -0.000879497 0)
(0 -0.00542367 0)
(0 -0.00027999 0)
(0 -0.00132232 0)
(0 -0.0140687 0)
(0 -0.0123784 0)
(0 -0.0118401 0)
(0 -0.00461532 0)
(0 -0.0112811 0)
(0 -0.00290668 0)
(0 -0.0011402 0)
(0 -0.00385838 0)
(0 -0.0137095 0)
(0 -0.0125523 0)
(0 -0.00903638 0)
(0 -0.00308966 0)
(0 -0.0124394 0)
(0 -0.00311128 0)
(0 -0.00507509 0)
(0 -0.0111337 0)
(0 -0.0149676 0)
(0 -0.00258241 0)
(0 -0.00259866 0)
(0 -0.00965336 0)
(0 -0.0120406 0)
(0 -0.0016565 0)
(0 -0.014835 0)
(0 -0.011225 0)
(0 -0.00199608 0)
(0 -0.00716642 0)
(0 -0.015018 0)
(0 -0.0118503 0)
(0 -0.00516084 0)
(0 -0.00234191 0)
(0 -0.013411 0)
(0 -0.0145992 0)
(0 -0.00496786 0)
(0 -0.0140777 0)
(0 -0.0136238 0)
(0 -0.00418957 0)
(0 -0.0149415 0)
(0 -0.0058478 0)
(0 -0.00584308 0)
(0 -0.00117465 0)
(0 -0.0107984 0)
(0 -0.0146539 0)
(0 -0.012785 0)
(0 -0.0150884 0)
(0 -0.00578917 0)
(0 -0.00200488 0)
(0 -0.00196732 0)
(0 -0.00809479 0)
(0 -0.0130607 0)
(0 -0.0132051 0)
(0 -0.00392337 0)
(0 -0.00500801 0)
(0 -0.00919023 0)
(0 -0.00745844 0)
(0 -0.0149696 0)
(0 -0.00553501 0)
(0 -0.0120234 0)
(0 -0.0097028 0)
(0 -0.0150243 0)
(0 -0.00154417 0)
(0 -0.0148127 0)
(0 -0.000962634 0)
(0 -0.00583081 0)
(0 -0.00444789 0)
(0 -0.0147152 0)
(0 -0.00451023 0)
(0 -0.0141485 0)
(0 -0.0086239 0)
(0 -0.00806844 0)
(0 -0.00203338 0)
(0 -0.0119281 0)
(0 -0.0111547 0)
(0 -0.000128068 0)
(0 -0.0149113 0)
(0 -0.00878656 0)
(0 -0.00235015 0)
(0 -0.00721721 0)
(0 -0.011665 0)
(0 -0.0022275 0)
(0 -0.0072369 0)
(0 -0.0131921 0)
(0 -0.0126299 0)
(0 -0.00586376 0)
(0 -0.01493 0)
(0 -0.0132575 0)
(0 -0.014476 0)
(0 -0.00798445 0)
(0 -0.00965855 0)
(0 -0.00330021 0)
(0 -0.0054616 0)
(0 -0.0028965 0)
(0 -0.0144857 0)
(0 -0.00233599 0)
(0 -0.0151007 0)
(0 -0.00299522 0)
(0 -0.0150222 0)
(0 -0.014877 0)
(0 -0.00125523 0)
(0 -0.00501068 0)
(0 -0.0048888 0)
(0 -0.0126874 0)
(0 -0.00472329 0)
(0 -0.0126296 0)
(0 -0.0112969 0)
(0 -0.00120549 0)
(0 -0.00882977 0)
(0 -0.0113235 0)
(0 -0.00839207 0)
(0 -0.0124552 0)
(0 -0.0113058 0)
(0 -0.0140016 0)
(0 -0.00929021 0)
(0 -0.0113797 0)
(0 -0.00542034 0)
(0 -0.00279486 0)
(0 -0.0131308 0)
(0 -0.012317 0)
(0 -0.00953015 0)
(0 -0.00670875 0)
(0 -0.00618598 0)