/*--------------------------------*- C++ -*----------------------------------*\
| =========                 |                                                 |
| \\      /  F ield         | OpenFOAM: The Open Source CFD Toolbox           |
|  \\    /   O peration     | Version:  v2012                                 |
|   \\  /    A nd           | Website:  www.openfoam.com                      |
|    \\/     M anipulation  |                                                 |
\*---------------------------------------------------------------------------*/
FoamFile
{
    version     2.0;
    format      ascii;
    class       volVectorField;
    location    "700";
    object      cellDisplacement;
}
// * * * * * * * * * * * * * * * * * * * * * * * * * * * * * * * * * * * * * //

dimensions      [0 1 0 0 0 0 0];


internalField   nonuniform List<vector> 
18355
(
(0 -4.10675e-05 0)
(0 -0.000126381 0)
(0 -7.08061e-06 0)
(0 -4.26383e-05 0)
(0 -0.00025259 0)
(0 -0.000225844 0)
(0 -0.000231441 0)
(0 -0.000251887 0)
(0 -1.75059e-05 0)
(0 -0.000233023 0)
(0 -0.00010638 0)
(0 -1.81748e-06 0)
(0 -1.56625e-06 0)
(0 -0.000188666 0)
(0 -3.0149e-05 0)
(0 -0.000108942 0)
(0 -4.07568e-05 0)
(0 -0.000128498 0)
(0 -1.74974e-05 0)
(0 -0.000233814 0)
(0 -7.14271e-05 0)
(0 -7.1151e-05 0)
(0 -8.55412e-05 0)
(0 -0.000227054 0)
(0 -8.29193e-05 0)
(0 -0.000204471 0)
(0 -0.000232087 0)
(0 -7.5076e-05 0)
(0 -1.3452e-05 0)
(0 -0.000109462 0)
(0 -0.000232163 0)
(0 -8.02568e-05 0)
(0 -0.000144674 0)
(0 -7.92224e-05 0)
(0 -5.93645e-07 0)
(0 -0.000183016 0)
(0 -3.21421e-05 0)
(0 -0.000184924 0)
(0 -0.00010971 0)
(0 -0.000111989 0)
(0 -3.8937e-06 0)
(0 -0.000106655 0)
(0 -8.33247e-05 0)
(0 -0.000117565 0)
(0 -0.000121705 0)
(0 1.24307e-06 0)
(0 -0.00011662 0)
(0 -0.000114163 0)
(0 -0.000233716 0)
(0 -0.00021756 0)
(0 -1.48709e-05 0)
(0 -6.41767e-05 0)
(0 -0.000219335 0)
(0 -2.98887e-05 0)
(0 -5.58915e-05 0)
(0 -0.000235435 0)
(0 -4.18516e-06 0)
(0 -0.000115541 0)
(0 -0.000204462 0)
(0 1.89207e-06 0)
(0 -8.29526e-05 0)
(0 -6.46347e-06 0)
(0 -3.12209e-05 0)
(0 -0.000198913 0)
(0 -7.06745e-05 0)
(0 -1.66647e-05 0)
(0 -6.26165e-05 0)
(0 -3.25241e-05 0)
(0 -7.6409e-05 0)
(0 -0.000246242 0)
(0 -0.000203493 0)
(0 -5.77801e-05 0)
(0 -8.17691e-05 0)
(0 -0.000135539 0)
(0 -0.000262391 0)
(0 -8.02192e-05 0)
(0 -0.000114506 0)
(0 -8.37022e-05 0)
(0 -0.000200896 0)
(0 -0.000262692 0)
(0 -6.40586e-05 0)
(0 -0.000264389 0)
(0 -7.98444e-05 0)
(0 -6.63159e-05 0)
(0 -4.88919e-05 0)
(0 -1.09891e-05 0)
(0 -1.51148e-05 0)
(0 -4.36684e-05 0)
(0 -0.00014691 0)
(0 -4.49766e-05 0)
(0 -0.000192599 0)
(0 -7.40987e-05 0)
(0 -0.000264054 0)
(0 -0.000218349 0)
(0 -0.000254678 0)
(0 -0.000193421 0)
(0 -0.000117392 0)
(0 -0.000191478 0)
(0 -2.07579e-05 0)
(0 -7.66684e-05 0)
(0 -4.93245e-05 0)
(0 -0.000196967 0)
(0 -0.000216462 0)
(0 -2.57754e-06 0)
(0 -6.58008e-05 0)
(0 -0.000112876 0)
(0 -7.26245e-05 0)
(0 -0.000255411 0)
(0 -3.9359e-05 0)
(0 -0.000100064 0)
(0 -5.7914e-06 0)
(0 -6.92219e-06 0)
(0 -9.25661e-05 0)
(0 -6.77691e-05 0)
(0 -1.94725e-07 0)
(0 -8.29568e-05 0)
(0 -0.000194256 0)
(0 -0.000263988 0)
(0 -7.42174e-05 0)
(0 -6.16579e-05 0)
(0 -0.000245462 0)
(0 -6.4421e-06 0)
(0 -0.000194836 0)
(0 -4.25001e-05 0)
(0 -0.000264305 0)
(0 1.0691e-06 0)
(0 -0.000232909 0)
(0 -3.49391e-05 0)
(0 -3.93559e-05 0)
(0 -7.239e-05 0)
(0 -0.000121909 0)
(0 -6.60467e-05 0)
(0 -8.96433e-05 0)
(0 -1.35609e-05 0)
(0 -4.94153e-05 0)
(0 -0.000154369 0)
(0 -1.64733e-05 0)
(0 -0.000250041 0)
(0 -1.82316e-05 0)
(0 -7.40941e-05 0)
(0 -4.18512e-05 0)
(0 -0.000258363 0)
(0 -0.000125787 0)
(0 -5.72864e-05 0)
(0 -5.07403e-05 0)
(0 -7.16462e-06 0)
(0 1.37763e-06 0)
(0 -5.67396e-06 0)
(0 -9.45235e-05 0)
(0 -1.04005e-05 0)
(0 -7.24998e-05 0)
(0 -6.19792e-05 0)
(0 -0.000208033 0)
(0 -0.000251639 0)
(0 -8.6978e-05 0)
(0 -4.21127e-05 0)
(0 -3.21088e-05 0)
(0 -1.38523e-05 0)
(0 -0.000127565 0)
(0 -3.63544e-05 0)
(0 -0.000121496 0)
(0 -9.14631e-05 0)
(0 -0.000100976 0)
(0 -0.00025494 0)
(0 -0.000128164 0)
(0 -0.000233152 0)
(0 1.58714e-06 0)
(0 -4.38438e-05 0)
(0 -8.96935e-05 0)
(0 -4.27826e-05 0)
(0 -5.94186e-06 0)
(0 -1.40461e-05 0)
(0 -1.05563e-05 0)
(0 -0.000235211 0)
(0 -2.72948e-06 0)
(0 -5.32102e-06 0)
(0 -8.44985e-06 0)
(0 -2.89226e-06 0)
(0 -3.77609e-05 0)
(0 -6.50939e-05 0)
(0 -1.17194e-05 0)
(0 -0.000230985 0)
(0 -7.25018e-05 0)
(0 -8.53112e-05 0)
(0 -0.000230545 0)
(0 -0.000216919 0)
(0 -1.79404e-05 0)
(0 -4.81555e-05 0)
(0 -2.31874e-05 0)
(0 -0.00023419 0)
(0 1.02773e-06 0)
(0 -1.99401e-05 0)
(0 -0.000133911 0)
(0 -9.33761e-05 0)
(0 -5.55175e-06 0)
(0 -7.90149e-07 0)
(0 -1.84104e-05 0)
(0 -4.05733e-05 0)
(0 -0.000130283 0)
(0 -0.000191051 0)
(0 -0.000214632 0)
(0 -0.000141345 0)
(0 -0.000112502 0)
(0 -1.6161e-05 0)
(0 -4.23658e-05 0)
(0 -6.70775e-05 0)
(0 -9.16522e-05 0)
(0 -8.60718e-05 0)
(0 -0.000136528 0)
(0 -0.0002102 0)
(0 -9.00731e-05 0)
(0 -0.000228494 0)
(0 -0.000212168 0)
(0 -0.000210286 0)
(0 -5.42407e-06 0)
(0 -0.000236901 0)
(0 -6.67248e-05 0)
(0 -3.26945e-05 0)
(0 -6.97585e-05 0)
(0 -0.000126969 0)
(0 -3.99156e-05 0)
(0 -7.84615e-05 0)
(0 -4.28957e-05 0)
(0 -0.000182155 0)
(0 -0.00024173 0)
(0 -0.000242949 0)
(0 -8.23241e-05 0)
(0 -0.000250454 0)
(0 -4.30802e-05 0)
(0 -7.69699e-05 0)
(0 -0.000227416 0)
(0 -6.43513e-05 0)
(0 -0.000170068 0)
(0 -8.14473e-05 0)
(0 -0.000255465 0)
(0 -0.000240449 0)
(0 -4.27318e-05 0)
(0 1.24502e-06 0)
(0 -2.60206e-05 0)
(0 -0.000211247 0)
(0 -0.00013886 0)
(0 -3.81351e-05 0)
(0 -0.000209235 0)
(0 -7.46237e-05 0)
(0 -6.8879e-05 0)
(0 -5.18478e-05 0)
(0 -0.00010422 0)
(0 -0.000229369 0)
(0 -0.000228447 0)
(0 -0.000211311 0)
(0 -0.000200895 0)
(0 -0.000229546 0)
(0 -4.96805e-06 0)
(0 -0.000184109 0)
(0 -3.42638e-06 0)
(0 -0.000179799 0)
(0 -2.67079e-05 0)
(0 -7.83361e-06 0)
(0 -0.000242777 0)
(0 -0.000117268 0)
(0 -7.83684e-06 0)
(0 -0.000253045 0)
(0 -2.03924e-05 0)
(0 -1.98327e-05 0)
(0 -0.000112847 0)
(0 -0.000227709 0)
(0 -0.00025623 0)
(0 -2.11303e-05 0)
(0 -0.000118773 0)
(0 -5.39819e-05 0)
(0 -0.000236032 0)
(0 -0.00010265 0)
(0 -0.00014391 0)
(0 -3.17471e-05 0)
(0 -6.99454e-05 0)
(0 -8.47549e-05 0)
(0 -0.000153709 0)
(0 -0.000151324 0)
(0 -4.13995e-05 0)
(0 -0.000246062 0)
(0 -0.000150102 0)
(0 -8.95437e-05 0)
(0 -8.51745e-05 0)
(0 -9.88226e-05 0)
(0 -4.08966e-05 0)
(0 -6.38204e-05 0)
(0 -6.75357e-05 0)
(0 -4.22227e-06 0)
(0 -6.80291e-05 0)
(0 -9.95204e-06 0)
(0 -0.000141116 0)
(0 -1.76665e-05 0)
(0 -7.04831e-05 0)
(0 -0.000240243 0)
(0 -0.000255642 0)
(0 -2.45558e-05 0)
(0 -9.01876e-05 0)
(0 -4.17744e-05 0)
(0 -8.64481e-05 0)
(0 -0.000257779 0)
(0 -3.03206e-05 0)
(0 -0.000171623 0)
(0 -3.69254e-05 0)
(0 -1.97767e-05 0)
(0 -0.000136136 0)
(0 -0.000154206 0)
(0 -0.000212808 0)
(0 -2.82741e-05 0)
(0 -2.04038e-05 0)
(0 -1.82235e-05 0)
(0 -0.000165062 0)
(0 -5.97085e-06 0)
(0 -0.000137194 0)
(0 -0.000194724 0)
(0 -3.30579e-05 0)
(0 -8.50963e-05 0)
(0 -0.000134276 0)
(0 -0.000115743 0)
(0 -9.33426e-05 0)
(0 -1.0406e-05 0)
(0 -5.55141e-06 0)
(0 -8.17793e-06 0)
(0 -0.000162842 0)
(0 -0.000150545 0)
(0 -4.07741e-05 0)
(0 -0.000263536 0)
(0 -8.27717e-06 0)
(0 -6.60838e-05 0)
(0 -4.17728e-05 0)
(0 -6.44507e-05 0)
(0 -7.49438e-05 0)
(0 -5.34756e-07 0)
(0 -0.000269198 0)
(0 -0.000120527 0)
(0 -0.000265498 0)
(0 -1.1839e-05 0)
(0 -0.000110632 0)
(0 -0.000140213 0)
(0 -2.11939e-06 0)
(0 -4.52709e-05 0)
(0 -7.27903e-05 0)
(0 -0.000160273 0)
(0 -8.98567e-05 0)
(0 -0.000149634 0)
(0 -6.44593e-05 0)
(0 -0.000232762 0)
(0 -0.000234981 0)
(0 -0.000151028 0)
(0 -1.35559e-05 0)
(0 -8.30679e-06 0)
(0 -8.53592e-05 0)
(0 -0.000156698 0)
(0 -3.37985e-06 0)
(0 -0.000230974 0)
(0 -9.87317e-05 0)
(0 -0.000225121 0)
(0 -6.8603e-05 0)
(0 -6.35984e-06 0)
(0 -7.02776e-05 0)
(0 -8.71134e-05 0)
(0 -1.59845e-05 0)
(0 -7.7689e-05 0)
(0 1.82044e-06 0)
(0 -0.000175885 0)
(0 -8.43095e-05 0)
(0 -0.000119003 0)
(0 -0.000238738 0)
(0 -9.2529e-05 0)
(0 -1.21778e-05 0)
(0 -0.000264663 0)
(0 -0.000177896 0)
(0 -0.000157333 0)
(0 -6.60809e-05 0)
(0 -4.28777e-05 0)
(0 -1.71502e-06 0)
(0 -0.000226748 0)
(0 -0.000181839 0)
(0 -2.7437e-05 0)
(0 -0.000131945 0)
(0 -0.000237165 0)
(0 -0.000253242 0)
(0 -7.78598e-05 0)
(0 -1.81311e-05 0)
(0 -0.00012585 0)
(0 -2.21858e-05 0)
(0 -0.000216509 0)
(0 -6.37895e-06 0)
(0 -9.70623e-05 0)
(0 -0.000210125 0)
(0 -6.05815e-05 0)
(0 -1.33797e-05 0)
(0 -9.7516e-05 0)
(0 -0.000145106 0)
(0 -0.000238783 0)
(0 -1.03138e-05 0)
(0 -1.62579e-06 0)
(0 -0.000176015 0)
(0 -0.000240834 0)
(0 -5.52541e-06 0)
(0 -0.000251509 0)
(0 -1.01909e-05 0)
(0 -1.07311e-07 0)
(0 -1.82977e-05 0)
(0 -2.53286e-05 0)
(0 -0.000157676 0)
(0 -0.000229038 0)
(0 -0.000135177 0)
(0 -0.000263564 0)
(0 -0.000243242 0)
(0 -4.70177e-05 0)
(0 -2.37424e-05 0)
(0 -1.86889e-06 0)
(0 -1.08153e-05 0)
(0 -7.49369e-05 0)
(0 -7.14553e-05 0)
(0 -7.3351e-05 0)
(0 -1.36798e-05 0)
(0 -0.000236107 0)
(0 -7.74292e-06 0)
(0 -7.31306e-05 0)
(0 -1.55422e-05 0)
(0 -1.35752e-05 0)
(0 -0.000252686 0)
(0 -2.01905e-05 0)
(0 -0.000120125 0)
(0 -0.000147719 0)
(0 -1.96914e-05 0)
(0 -7.2582e-05 0)
(0 -0.000216166 0)
(0 -0.000232559 0)
(0 -0.000251841 0)
(0 -6.84128e-05 0)
(0 -1.76903e-05 0)
(0 -1.07606e-05 0)
(0 -0.000143739 0)
(0 -0.000106954 0)
(0 -7.24116e-05 0)
(0 -0.000127311 0)
(0 -3.14269e-05 0)
(0 -8.71792e-05 0)
(0 -0.000214279 0)
(0 -1.93496e-05 0)
(0 -2.71115e-05 0)
(0 -0.000117928 0)
(0 -0.000222326 0)
(0 -0.00024188 0)
(0 -1.4171e-06 0)
(0 -0.000128236 0)
(0 -5.00999e-06 0)
(0 -9.76536e-06 0)
(0 -1.9031e-06 0)
(0 -0.000253206 0)
(0 -9.02938e-05 0)
(0 -0.000236527 0)
(0 -4.13585e-05 0)
(0 -5.15653e-05 0)
(0 -4.73373e-07 0)
(0 -6.67043e-06 0)
(0 -7.13913e-05 0)
(0 -2.5214e-05 0)
(0 -3.20159e-05 0)
(0 -1.26562e-06 0)
(0 -0.000178877 0)
(0 -0.000123651 0)
(0 -3.73525e-05 0)
(0 -1.61595e-05 0)
(0 -0.000127415 0)
(0 -3.7515e-05 0)
(0 -6.95898e-05 0)
(0 -9.55171e-05 0)
(0 -7.95701e-05 0)
(0 -6.03874e-05 0)
(0 -0.000136379 0)
(0 -6.95832e-05 0)
(0 -3.88966e-06 0)
(0 -7.44962e-05 0)
(0 -2.05823e-05 0)
(0 -8.24247e-05 0)
(0 -0.00011897 0)
(0 -5.13387e-05 0)
(0 -0.000122749 0)
(0 -7.59315e-06 0)
(0 -2.09341e-06 0)
(0 -7.50857e-05 0)
(0 -0.00012932 0)
(0 -0.00011738 0)
(0 -8.41865e-05 0)
(0 -0.000212405 0)
(0 -0.000133755 0)
(0 -0.000196777 0)
(0 -7.47452e-05 0)
(0 -3.06706e-05 0)
(0 -3.94147e-05 0)
(0 -0.000143002 0)
(0 -0.000195631 0)
(0 -2.96149e-05 0)
(0 -3.90884e-05 0)
(0 -3.16006e-05 0)
(0 -7.14212e-05 0)
(0 -9.69395e-06 0)
(0 -7.07137e-05 0)
(0 -7.20678e-05 0)
(0 -9.1585e-06 0)
(0 -7.87992e-06 0)
(0 -0.000195247 0)
(0 -7.13957e-05 0)
(0 -0.000149148 0)
(0 -5.86218e-05 0)
(0 -4.95428e-05 0)
(0 2.46311e-06 0)
(0 -5.24739e-05 0)
(0 -0.000182039 0)
(0 -0.00018369 0)
(0 -2.0704e-05 0)
(0 -4.37648e-05 0)
(0 -1.15575e-05 0)
(0 -2.51256e-05 0)
(0 -0.000107586 0)
(0 2.43667e-06 0)
(0 -7.27978e-05 0)
(0 -1.40574e-05 0)
(0 -8.20546e-05 0)
(0 -0.000148803 0)
(0 -7.62267e-05 0)
(0 -5.10427e-05 0)
(0 -5.38198e-05 0)
(0 -0.00026194 0)
(0 -0.000180978 0)
(0 -0.000146411 0)
(0 -0.000255493 0)
(0 -0.000140081 0)
(0 -5.4089e-05 0)
(0 -6.47268e-05 0)
(0 -5.02232e-05 0)
(0 -0.00018825 0)
(0 -7.15804e-05 0)
(0 -0.000238377 0)
(0 -2.25543e-06 0)
(0 -0.00012087 0)
(0 -0.00020018 0)
(0 -8.0085e-05 0)
(0 -9.53337e-05 0)
(0 -0.000114979 0)
(0 -8.89806e-05 0)
(0 -0.000201502 0)
(0 -0.0001682 0)
(0 -6.32448e-05 0)
(0 -4.81063e-05 0)
(0 -0.000266224 0)
(0 -0.000120563 0)
(0 -0.000122209 0)
(0 -0.000193189 0)
(0 -1.01831e-05 0)
(0 -1.47991e-06 0)
(0 -8.76965e-05 0)
(0 -6.94357e-05 0)
(0 -3.92271e-05 0)
(0 -3.22319e-05 0)
(0 -2.97383e-06 0)
(0 -1.88204e-05 0)
(0 -7.59496e-05 0)
(0 -5.3895e-05 0)
(0 -5.10681e-06 0)
(0 -9.73973e-05 0)
(0 -2.04121e-05 0)
(0 -2.45144e-05 0)
(0 -1.20236e-05 0)
(0 -8.00017e-05 0)
(0 -2.07945e-05 0)
(0 -2.44471e-05 0)
(0 -1.05169e-05 0)
(0 -1.85809e-05 0)
(0 -5.93695e-06 0)
(0 -0.000122137 0)
(0 -8.57921e-06 0)
(0 -1.41316e-07 0)
(0 -0.000152832 0)
(0 -4.34951e-06 0)
(0 -0.000249562 0)
(0 -0.000240334 0)
(0 -3.38589e-06 0)
(0 -7.34566e-05 0)
(0 -0.000237589 0)
(0 -0.000268414 0)
(0 -7.52336e-06 0)
(0 -3.98193e-05 0)
(0 -0.000182987 0)
(0 -6.53922e-06 0)
(0 -8.30508e-05 0)
(0 -8.20754e-05 0)
(0 -4.00845e-05 0)
(0 1.29093e-06 0)
(0 -0.000107741 0)
(0 -0.000174026 0)
(0 -9.61966e-05 0)
(0 -7.11556e-06 0)
(0 -4.79013e-05 0)
(0 -6.96767e-06 0)
(0 -0.000228771 0)
(0 -5.09812e-05 0)
(0 -0.000234133 0)
(0 -1.56183e-05 0)
(0 -0.000252172 0)
(0 -7.84874e-06 0)
(0 -0.000102815 0)
(0 -3.60454e-05 0)
(0 -4.66864e-05 0)
(0 -2.93172e-05 0)
(0 -7.55594e-05 0)
(0 -0.0001102 0)
(0 -4.4387e-05 0)
(0 -0.000207161 0)
(0 -0.000132782 0)
(0 -9.31055e-05 0)
(0 -8.10568e-06 0)
(0 -5.02542e-05 0)
(0 -7.03698e-05 0)
(0 -0.000150151 0)
(0 -0.000131941 0)
(0 -0.000129314 0)
(0 -0.000105658 0)
(0 -4.48737e-06 0)
(0 -0.000121534 0)
(0 -4.11007e-05 0)
(0 -0.000141397 0)
(0 -5.99968e-06 0)
(0 -0.000252552 0)
(0 -1.83979e-05 0)
(0 -3.84064e-07 0)
(0 -0.000268409 0)
(0 -0.000219512 0)
(0 -0.000208024 0)
(0 -1.27056e-05 0)
(0 -0.00023145 0)
(0 -1.10611e-05 0)
(0 -0.000126291 0)
(0 -3.85393e-05 0)
(0 -4.88265e-05 0)
(0 -7.42329e-05 0)
(0 -1.78981e-05 0)
(0 -0.00021409 0)
(0 -1.84691e-05 0)
(0 -7.1028e-06 0)
(0 -0.000260603 0)
(0 -0.000245172 0)
(0 -0.000259756 0)
(0 -4.80415e-05 0)
(0 -0.00011632 0)
(0 -6.96358e-05 0)
(0 -0.000124187 0)
(0 -7.85949e-05 0)
(0 -0.000267546 0)
(0 -0.000251911 0)
(0 -1.04187e-05 0)
(0 -0.000122122 0)
(0 -4.16867e-05 0)
(0 -8.35816e-06 0)
(0 -0.000106669 0)
(0 -1.75493e-05 0)
(0 -9.00538e-06 0)
(0 -7.67347e-05 0)
(0 -0.000238907 0)
(0 -5.10939e-05 0)
(0 -3.08722e-05 0)
(0 -2.52578e-05 0)
(0 -5.05103e-05 0)
(0 -7.37014e-05 0)
(0 -7.81954e-05 0)
(0 -0.000171344 0)
(0 -0.000100414 0)
(0 -2.92663e-05 0)
(0 -5.90033e-05 0)
(0 -2.47061e-05 0)
(0 -4.29716e-05 0)
(0 -0.000253162 0)
(0 -0.000124594 0)
(0 -0.000258306 0)
(0 -2.36039e-07 0)
(0 -5.20426e-05 0)
(0 -4.03166e-05 0)
(0 -8.28933e-05 0)
(0 -7.53551e-06 0)
(0 -5.06325e-05 0)
(0 -5.65605e-06 0)
(0 -4.00516e-06 0)
(0 -7.83859e-05 0)
(0 -0.000124839 0)
(0 -5.90394e-05 0)
(0 -2.39542e-05 0)
(0 -3.97372e-05 0)
(0 -5.14501e-05 0)
(0 -9.54029e-05 0)
(0 -9.00184e-06 0)
(0 -0.000126681 0)
(0 -7.69979e-05 0)
(0 -4.40395e-05 0)
(0 -4.85959e-05 0)
(0 -1.35026e-05 0)
(0 -2.64101e-06 0)
(0 -0.00021741 0)
(0 -0.000257712 0)
(0 -0.000245457 0)
(0 -0.000104494 0)
(0 -6.61792e-05 0)
(0 -7.16313e-05 0)
(0 -8.08142e-05 0)
(0 -5.73705e-06 0)
(0 -7.72892e-05 0)
(0 -9.38206e-05 0)
(0 -0.000107629 0)
(0 -0.000124383 0)
(0 -3.20722e-05 0)
(0 -4.66266e-06 0)
(0 -0.00012737 0)
(0 -1.78136e-05 0)
(0 -0.000233735 0)
(0 -0.000192338 0)
(0 -0.000120563 0)
(0 -0.000246458 0)
(0 -0.000252402 0)
(0 -0.000138166 0)
(0 -7.3287e-06 0)
(0 -4.36154e-05 0)
(0 -8.53169e-05 0)
(0 -0.000239944 0)
(0 -7.68444e-06 0)
(0 -1.1576e-05 0)
(0 -0.000253903 0)
(0 -5.53595e-06 0)
(0 -0.000172186 0)
(0 -1.62452e-05 0)
(0 -4.42593e-06 0)
(0 -1.98583e-05 0)
(0 -7.80607e-05 0)
(0 -0.000256146 0)
(0 -1.01815e-05 0)
(0 -2.63312e-05 0)
(0 -0.000260025 0)
(0 -5.93968e-05 0)
(0 -0.000228137 0)
(0 -3.35338e-05 0)
(0 -0.000156117 0)
(0 -5.57662e-06 0)
(0 -4.28256e-05 0)
(0 -2.05707e-05 0)
(0 -4.34684e-05 0)
(0 -0.000216716 0)
(0 -8.78092e-05 0)
(0 -0.000128388 0)
(0 -8.70485e-07 0)
(0 -0.000112976 0)
(0 -0.000255498 0)
(0 -0.000235274 0)
(0 -3.23473e-05 0)
(0 -7.86445e-05 0)
(0 -5.95036e-06 0)
(0 -9.02893e-05 0)
(0 -5.98952e-05 0)
(0 -6.04008e-06 0)
(0 -0.000140111 0)
(0 -7.55986e-05 0)
(0 -0.000111763 0)
(0 -0.000115842 0)
(0 -0.000229747 0)
(0 -0.000121515 0)
(0 -0.000229386 0)
(0 -8.1176e-05 0)
(0 -0.000116691 0)
(0 -1.76474e-05 0)
(0 -7.23998e-05 0)
(0 -0.000163487 0)
(0 -0.000161689 0)
(0 -4.23335e-07 0)
(0 -7.63014e-05 0)
(0 -4.08009e-05 0)
(0 -0.000115712 0)
(0 -1.27285e-06 0)
(0 -9.02262e-05 0)
(0 -8.19451e-05 0)
(0 -0.000159991 0)
(0 -0.000228926 0)
(0 -0.000123984 0)
(0 -0.000156949 0)
(0 -0.00011196 0)
(0 -0.000129982 0)
(0 -0.000130818 0)
(0 -7.57613e-05 0)
(0 -0.000139858 0)
(0 -7.64262e-05 0)
(0 -7.69426e-05 0)
(0 -0.000122597 0)
(0 -4.39001e-05 0)
(0 -0.000194472 0)
(0 -0.000126017 0)
(0 -6.83576e-05 0)
(0 -2.78095e-05 0)
(0 -1.60271e-05 0)
(0 -0.000151222 0)
(0 -2.47628e-05 0)
(0 -9.46253e-05 0)
(0 -0.000250689 0)
(0 -0.000192306 0)
(0 -0.000231338 0)
(0 2.34821e-06 0)
(0 -1.40324e-05 0)
(0 -0.000144005 0)
(0 -6.83851e-05 0)
(0 -0.000123675 0)
(0 -0.000177502 0)
(0 -0.000133907 0)
(0 -7.22169e-05 0)
(0 -0.000253277 0)
(0 -7.30803e-05 0)
(0 -2.40958e-05 0)
(0 -0.000180979 0)
(0 -3.14457e-06 0)
(0 -8.2075e-05 0)
(0 -1.5317e-05 0)
(0 -3.00468e-05 0)
(0 -1.64944e-06 0)
(0 -0.000124019 0)
(0 -2.00559e-05 0)
(0 -1.29609e-05 0)
(0 -0.000269123 0)
(0 -2.40074e-05 0)
(0 -3.47925e-05 0)
(0 -7.79561e-05 0)
(0 -1.21253e-05 0)
(0 -0.000116808 0)
(0 -0.000185308 0)
(0 -6.0982e-05 0)
(0 -1.84236e-05 0)
(0 -0.000233519 0)
(0 -0.000264648 0)
(0 -3.47475e-05 0)
(0 -3.75143e-05 0)
(0 -9.81788e-05 0)
(0 -4.65811e-05 0)
(0 -1.52402e-06 0)
(0 -2.2841e-05 0)
(0 -4.63191e-05 0)
(0 -6.43488e-06 0)
(0 1.79325e-06 0)
(0 -0.000122882 0)
(0 -0.000122722 0)
(0 -7.86504e-05 0)
(0 -4.89435e-05 0)
(0 -1.35355e-05 0)
(0 -0.000245449 0)
(0 -1.19893e-05 0)
(0 -6.32315e-06 0)
(0 -0.000139077 0)
(0 -7.15833e-05 0)
(0 -0.000216046 0)
(0 -0.000189141 0)
(0 2.38059e-06 0)
(0 -0.000247029 0)
(0 -8.4347e-05 0)
(0 -7.73103e-05 0)
(0 -1.65445e-05 0)
(0 -0.000125899 0)
(0 -0.000150329 0)
(0 -0.000224901 0)
(0 -1.30973e-06 0)
(0 -6.6461e-05 0)
(0 -0.000181566 0)
(0 -0.000139839 0)
(0 -0.000101734 0)
(0 -0.000131618 0)
(0 -8.8348e-05 0)
(0 -0.000147882 0)
(0 -0.000100559 0)
(0 -0.000249303 0)
(0 -0.000110917 0)
(0 -9.22781e-06 0)
(0 -4.11923e-06 0)
(0 -0.000137557 0)
(0 -0.000243105 0)
(0 -0.000238234 0)
(0 -4.19107e-05 0)
(0 -1.06889e-05 0)
(0 -0.000224968 0)
(0 -9.57257e-06 0)
(0 -3.32119e-05 0)
(0 -8.54229e-05 0)
(0 -0.000243323 0)
(0 -1.30726e-05 0)
(0 -0.000125168 0)
(0 -0.000228296 0)
(0 -9.127e-05 0)
(0 -0.00019132 0)
(0 -2.82547e-05 0)
(0 -0.000126087 0)
(0 -0.00015806 0)
(0 -1.30137e-05 0)
(0 -2.1464e-05 0)
(0 -0.000166974 0)
(0 -3.58494e-05 0)
(0 -9.84413e-05 0)
(0 -2.2625e-05 0)
(0 -3.49996e-05 0)
(0 -7.74608e-05 0)
(0 -4.03095e-05 0)
(0 -0.000205831 0)
(0 -0.000256049 0)
(0 -0.000167726 0)
(0 -9.56277e-07 0)
(0 -9.22468e-05 0)
(0 -0.000171247 0)
(0 -7.76448e-05 0)
(0 -0.000171211 0)
(0 -0.000126292 0)
(0 -7.55753e-05 0)
(0 -0.000197456 0)
(0 -1.89015e-05 0)
(0 -0.000205661 0)
(0 -4.7981e-06 0)
(0 -9.33904e-05 0)
(0 -3.08358e-05 0)
(0 -0.000167992 0)
(0 -9.45127e-05 0)
(0 -0.000243761 0)
(0 -0.000234021 0)
(0 -8.43889e-05 0)
(0 -9.2677e-05 0)
(0 -9.06967e-05 0)
(0 -1.72467e-05 0)
(0 -0.000129648 0)
(0 -0.000208074 0)
(0 -0.000254163 0)
(0 -0.000236055 0)
(0 -0.000174866 0)
(0 -0.000167538 0)
(0 -1.40505e-05 0)
(0 -1.12046e-05 0)
(0 -1.61582e-05 0)
(0 -0.000121539 0)
(0 -9.1574e-05 0)
(0 -0.000136514 0)
(0 -0.00024636 0)
(0 -0.00025284 0)
(0 -0.000153034 0)
(0 -3.56841e-05 0)
(0 -0.000240774 0)
(0 -0.000153773 0)
(0 -0.000108923 0)
(0 -2.5858e-05 0)
(0 -2.57375e-05 0)
(0 -0.000155204 0)
(0 -0.000104721 0)
(0 -4.69507e-05 0)
(0 -7.72246e-05 0)
(0 -0.000116713 0)
(0 -3.72429e-05 0)
(0 -0.00011399 0)
(0 -0.00016881 0)
(0 -0.000116546 0)
(0 -4.44333e-05 0)
(0 -4.13528e-06 0)
(0 -2.74903e-05 0)
(0 -1.82544e-05 0)
(0 -3.67184e-05 0)
(0 -7.5659e-07 0)
(0 -2.00092e-05 0)
(0 -7.98331e-05 0)
(0 -0.000172521 0)
(0 -0.000158595 0)
(0 -0.000102518 0)
(0 -6.54392e-05 0)
(0 -0.000268293 0)
(0 -0.000185441 0)
(0 -0.000255886 0)
(0 -3.08635e-05 0)
(0 -0.000260239 0)
(0 -1.01779e-05 0)
(0 -0.000238382 0)
(0 -1.31686e-05 0)
(0 -0.000158403 0)
(0 -0.00017019 0)
(0 -8.85732e-05 0)
(0 -0.000133997 0)
(0 -3.33212e-05 0)
(0 -2.51975e-05 0)
(0 -1.96175e-05 0)
(0 -4.45699e-06 0)
(0 -7.03732e-05 0)
(0 -4.84397e-05 0)
(0 -0.000111067 0)
(0 -6.61212e-06 0)
(0 -0.000143876 0)
(0 -0.000247939 0)
(0 -0.000133727 0)
(0 -9.13053e-05 0)
(0 -0.000217803 0)
(0 -1.70183e-05 0)
(0 -0.000172176 0)
(0 -0.000122471 0)
(0 -3.24206e-05 0)
(0 -0.000103847 0)
(0 -1.01315e-05 0)
(0 -4.28622e-06 0)
(0 -0.000130549 0)
(0 -4.69751e-06 0)
(0 -0.000218746 0)
(0 -1.65293e-06 0)
(0 -0.000141451 0)
(0 -0.000111267 0)
(0 -0.000260915 0)
(0 -4.34245e-05 0)
(0 -0.000103542 0)
(0 -9.30121e-05 0)
(0 -1.0055e-05 0)
(0 -0.000105945 0)
(0 -0.000128337 0)
(0 -5.69195e-05 0)
(0 -8.21662e-05 0)
(0 -0.00012908 0)
(0 -4.44618e-05 0)
(0 -8.37965e-05 0)
(0 -0.000154131 0)
(0 -7.95424e-05 0)
(0 -7.33663e-06 0)
(0 -3.78631e-05 0)
(0 -0.000130809 0)
(0 -3.08657e-05 0)
(0 -4.44285e-05 0)
(0 -2.03307e-05 0)
(0 -1.40325e-05 0)
(0 -0.000125233 0)
(0 -0.000107991 0)
(0 -0.000242734 0)
(0 -0.000230542 0)
(0 -0.000157748 0)
(0 -7.65224e-05 0)
(0 -6.86581e-05 0)
(0 -5.61429e-06 0)
(0 -0.000108344 0)
(0 -3.65512e-05 0)
(0 -6.92234e-05 0)
(0 -5.00798e-05 0)
(0 -0.000132256 0)
(0 -1.88658e-06 0)
(0 -5.92449e-05 0)
(0 -0.000216526 0)
(0 -0.000257384 0)
(0 -0.000121757 0)
(0 -0.000247602 0)
(0 -0.000102455 0)
(0 -4.68373e-05 0)
(0 -1.49656e-05 0)
(0 1.03961e-06 0)
(0 -3.82577e-06 0)
(0 -2.3066e-05 0)
(0 -4.8992e-06 0)
(0 -0.000134343 0)
(0 -0.000148555 0)
(0 -9.13181e-05 0)
(0 -0.000236846 0)
(0 -5.73995e-05 0)
(0 -8.28368e-05 0)
(0 -0.000101189 0)
(0 -7.72128e-05 0)
(0 -0.000199211 0)
(0 -4.11129e-06 0)
(0 -0.000136633 0)
(0 -5.95301e-05 0)
(0 -0.000156193 0)
(0 -8.32866e-05 0)
(0 -5.43647e-06 0)
(0 -6.58145e-07 0)
(0 -4.62459e-06 0)
(0 -8.73317e-05 0)
(0 -0.000233917 0)
(0 -7.14959e-05 0)
(0 -0.000176205 0)
(0 -3.18999e-06 0)
(0 -3.55588e-05 0)
(0 -7.24964e-06 0)
(0 -8.91982e-05 0)
(0 -6.55715e-05 0)
(0 -5.48783e-06 0)
(0 -5.80869e-05 0)
(0 -6.94376e-05 0)
(0 -1.23461e-05 0)
(0 -0.00017844 0)
(0 -1.40814e-05 0)
(0 -0.000105981 0)
(0 -1.47812e-05 0)
(0 -5.16288e-05 0)
(0 -7.82211e-05 0)
(0 -0.000244911 0)
(0 -0.000119963 0)
(0 -7.0109e-05 0)
(0 -3.89059e-05 0)
(0 -0.00018762 0)
(0 1.07501e-06 0)
(0 -6.49495e-06 0)
(0 -4.8529e-05 0)
(0 -3.59234e-05 0)
(0 -9.54621e-05 0)
(0 -6.20131e-05 0)
(0 -1.43952e-05 0)
(0 -1.26351e-06 0)
(0 -0.000174184 0)
(0 -4.2506e-05 0)
(0 -0.000214021 0)
(0 -4.67465e-07 0)
(0 -0.000267522 0)
(0 -4.25744e-05 0)
(0 -3.42781e-05 0)
(0 -1.71794e-05 0)
(0 -1.00502e-06 0)
(0 -0.000145708 0)
(0 -0.000229669 0)
(0 -0.000120609 0)
(0 -0.000267405 0)
(0 -8.31468e-05 0)
(0 -2.03173e-05 0)
(0 -0.00023742 0)
(0 -6.24566e-05 0)
(0 -5.9682e-06 0)
(0 -4.87702e-05 0)
(0 -0.000123867 0)
(0 -0.000151339 0)
(0 -0.000253084 0)
(0 -0.000226562 0)
(0 -6.37113e-05 0)
(0 -6.97781e-05 0)
(0 -8.26002e-05 0)
(0 -4.93804e-06 0)
(0 -0.000119814 0)
(0 -0.000152803 0)
(0 -3.41741e-05 0)
(0 -9.1147e-05 0)
(0 -6.43837e-05 0)
(0 -8.03371e-05 0)
(0 -2.41968e-05 0)
(0 -0.000137742 0)
(0 -0.000239494 0)
(0 -0.000164639 0)
(0 -0.000124666 0)
(0 -0.000120255 0)
(0 -1.30453e-05 0)
(0 -0.000121426 0)
(0 -0.000235746 0)
(0 -1.31047e-05 0)
(0 -7.39287e-05 0)
(0 -8.83084e-05 0)
(0 -7.43438e-05 0)
(0 -0.00018268 0)
(0 -0.000104086 0)
(0 -0.000190335 0)
(0 -0.00012083 0)
(0 -0.000258159 0)
(0 -0.000253467 0)
(0 -0.000187203 0)
(0 -5.51673e-06 0)
(0 -2.12187e-05 0)
(0 -1.42135e-05 0)
(0 -4.94493e-05 0)
(0 -5.66042e-05 0)
(0 -0.000257982 0)
(0 -0.000223099 0)
(0 -8.15931e-05 0)
(0 -8.40414e-05 0)
(0 -8.92619e-05 0)
(0 -4.07221e-05 0)
(0 -0.000130969 0)
(0 -0.00013481 0)
(0 -1.79934e-05 0)
(0 -8.08261e-05 0)
(0 -2.90878e-06 0)
(0 -6.9596e-05 0)
(0 -7.20037e-05 0)
(0 -7.8109e-05 0)
(0 -5.82781e-06 0)
(0 -3.39664e-05 0)
(0 -1.34561e-06 0)
(0 -0.000216703 0)
(0 -4.35516e-05 0)
(0 -9.41928e-05 0)
(0 -0.000112395 0)
(0 -0.00024726 0)
(0 -5.95643e-05 0)
(0 -5.0712e-05 0)
(0 -1.94998e-05 0)
(0 -0.000125254 0)
(0 -1.58525e-05 0)
(0 -1.66097e-05 0)
(0 -0.000159694 0)
(0 -3.88936e-05 0)
(0 -0.000150914 0)
(0 -0.000220104 0)
(0 -8.46041e-05 0)
(0 -0.000118792 0)
(0 -9.11386e-06 0)
(0 -7.71493e-05 0)
(0 -0.000100504 0)
(0 -0.000215213 0)
(0 -0.000113422 0)
(0 -5.21223e-05 0)
(0 -1.95709e-06 0)
(0 -0.000192163 0)
(0 -0.000249419 0)
(0 -7.93672e-05 0)
(0 -6.92634e-05 0)
(0 -0.000202092 0)
(0 -0.000228383 0)
(0 -4.49697e-05 0)
(0 -0.000135292 0)
(0 -6.89377e-05 0)
(0 -0.000115171 0)
(0 -0.000258914 0)
(0 -2.9445e-06 0)
(0 -0.000146043 0)
(0 -4.13907e-05 0)
(0 -1.98734e-05 0)
(0 -2.60352e-05 0)
(0 -4.21839e-06 0)
(0 -7.11627e-05 0)
(0 -0.000222814 0)
(0 -0.000183995 0)
(0 -0.000131575 0)
(0 -0.000120703 0)
(0 -4.94709e-05 0)
(0 -7.32935e-05 0)
(0 -5.3152e-05 0)
(0 -0.000230117 0)
(0 -0.000149329 0)
(0 -2.41181e-05 0)
(0 -6.90498e-05 0)
(0 -0.000190571 0)
(0 -0.000152806 0)
(0 -7.55953e-05 0)
(0 -4.0907e-05 0)
(0 -6.29462e-06 0)
(0 -0.000113219 0)
(0 -0.000163248 0)
(0 -0.000201415 0)
(0 -1.57138e-05 0)
(0 -0.000195546 0)
(0 -5.26291e-05 0)
(0 -2.27812e-05 0)
(0 -0.000175213 0)
(0 -8.02133e-05 0)
(0 -0.000106722 0)
(0 -4.8899e-05 0)
(0 -0.000146783 0)
(0 -0.000104111 0)
(0 -3.55299e-06 0)
(0 -8.41586e-05 0)
(0 -0.000103951 0)
(0 -0.0002544 0)
(0 -1.9385e-05 0)
(0 -8.32958e-05 0)
(0 -0.000186745 0)
(0 -0.000183448 0)
(0 -3.6144e-05 0)
(0 1.25496e-06 0)
(0 -1.05927e-05 0)
(0 -7.93811e-05 0)
(0 -2.22331e-05 0)
(0 -3.83944e-05 0)
(0 -5.0841e-05 0)
(0 -0.000268338 0)
(0 -0.00010805 0)
(0 -3.89533e-05 0)
(0 -3.11778e-05 0)
(0 -6.54765e-06 0)
(0 -0.00012692 0)
(0 -8.43006e-05 0)
(0 -0.000122983 0)
(0 -0.000227903 0)
(0 -8.28296e-05 0)
(0 -0.00010933 0)
(0 -5.30705e-05 0)
(0 -0.00011987 0)
(0 -0.000210907 0)
(0 -0.000104634 0)
(0 -1.12513e-06 0)
(0 -7.53475e-06 0)
(0 -0.0001115 0)
(0 -0.000169396 0)
(0 -7.21401e-05 0)
(0 -5.30363e-05 0)
(0 -8.67931e-05 0)
(0 -0.000174887 0)
(0 -0.000146977 0)
(0 -9.48143e-05 0)
(0 -0.000152841 0)
(0 -0.000125619 0)
(0 -6.55083e-05 0)
(0 -0.000192106 0)
(0 -1.36118e-05 0)
(0 -0.000119679 0)
(0 -0.000212705 0)
(0 -3.24926e-05 0)
(0 -0.000125074 0)
(0 -0.00018659 0)
(0 -1.66947e-05 0)
(0 -0.000195324 0)
(0 -2.44779e-05 0)
(0 -2.67013e-05 0)
(0 -0.000188794 0)
(0 -0.000190827 0)
(0 -0.000110845 0)
(0 -6.77537e-06 0)
(0 -6.95176e-06 0)
(0 -9.39307e-05 0)
(0 -0.000233775 0)
(0 -1.05032e-05 0)
(0 -0.000162488 0)
(0 -1.28548e-05 0)
(0 -0.000112768 0)
(0 -0.000129838 0)
(0 -0.000232679 0)
(0 -0.000164643 0)
(0 -7.64185e-05 0)
(0 -2.46582e-05 0)
(0 -7.42254e-05 0)
(0 -6.21321e-06 0)
(0 -0.000127154 0)
(0 -0.000170991 0)
(0 -0.00012173 0)
(0 -1.72627e-06 0)
(0 -2.3964e-05 0)
(0 -2.7203e-05 0)
(0 -0.000253804 0)
(0 -0.000212928 0)
(0 -0.00026726 0)
(0 -0.000260607 0)
(0 -0.000229636 0)
(0 -0.000145113 0)
(0 -5.0862e-05 0)
(0 -3.5875e-05 0)
(0 -8.90726e-05 0)
(0 -8.71844e-05 0)
(0 -3.15842e-05 0)
(0 -0.000263482 0)
(0 -6.82351e-05 0)
(0 -0.000227109 0)
(0 -8.3516e-06 0)
(0 -0.000176195 0)
(0 -0.000194762 0)
(0 -5.05721e-05 0)
(0 -2.33881e-05 0)
(0 -5.16697e-06 0)
(0 -0.00025356 0)
(0 -6.4347e-06 0)
(0 -0.000180083 0)
(0 -0.000213627 0)
(0 -7.53472e-05 0)
(0 -7.5757e-05 0)
(0 -0.000103379 0)
(0 -3.16601e-07 0)
(0 -2.10325e-05 0)
(0 -0.000107925 0)
(0 -0.00022195 0)
(0 -1.0137e-05 0)
(0 -9.691e-05 0)
(0 -5.15429e-05 0)
(0 -0.000110472 0)
(0 -0.000227639 0)
(0 -1.09353e-05 0)
(0 -5.97963e-05 0)
(0 -3.60601e-05 0)
(0 -0.000240631 0)
(0 -8.25385e-05 0)
(0 -0.000162956 0)
(0 -4.65492e-05 0)
(0 -3.29519e-05 0)
(0 -5.55713e-05 0)
(0 -0.000119016 0)
(0 -0.000191801 0)
(0 -6.4694e-06 0)
(0 -0.000227602 0)
(0 -0.000209471 0)
(0 -5.01653e-05 0)
(0 -4.52447e-05 0)
(0 -0.000165918 0)
(0 -3.68779e-05 0)
(0 -6.64006e-06 0)
(0 -8.45126e-05 0)
(0 -7.64702e-05 0)
(0 -7.3674e-05 0)
(0 1.30576e-06 0)
(0 -3.94996e-05 0)
(0 -9.55765e-07 0)
(0 -0.000240638 0)
(0 -1.13019e-05 0)
(0 -0.000236414 0)
(0 -1.41188e-05 0)
(0 -0.000267987 0)
(0 -0.000154567 0)
(0 -3.65307e-05 0)
(0 -0.000141239 0)
(0 -4.89994e-05 0)
(0 -9.06077e-05 0)
(0 -0.000263474 0)
(0 -0.00016638 0)
(0 -9.09948e-05 0)
(0 -0.000193278 0)
(0 -0.000123125 0)
(0 -6.97135e-05 0)
(0 -2.06519e-05 0)
(0 -9.10985e-05 0)
(0 -0.000106551 0)
(0 -5.59901e-05 0)
(0 -0.000142544 0)
(0 -3.54966e-05 0)
(0 -6.97035e-05 0)
(0 -2.74126e-05 0)
(0 -0.000267756 0)
(0 -2.26196e-05 0)
(0 -0.00022823 0)
(0 -3.99294e-05 0)
(0 -3.81139e-05 0)
(0 -4.80081e-05 0)
(0 -9.88921e-06 0)
(0 -0.000131812 0)
(0 -9.86243e-05 0)
(0 -0.00018328 0)
(0 -0.000219463 0)
(0 -0.000142113 0)
(0 -1.01745e-05 0)
(0 -0.000107662 0)
(0 -0.000211858 0)
(0 -9.72857e-05 0)
(0 -1.08078e-05 0)
(0 -4.4511e-05 0)
(0 -7.21574e-05 0)
(0 -3.18116e-05 0)
(0 -0.000210991 0)
(0 -0.000183331 0)
(0 -0.000134519 0)
(0 -4.38426e-05 0)
(0 -0.000158403 0)
(0 2.42719e-06 0)
(0 -8.17099e-05 0)
(0 -7.98351e-06 0)
(0 -0.000244382 0)
(0 -0.000197604 0)
(0 -9.467e-06 0)
(0 -0.000185202 0)
(0 -2.51818e-05 0)
(0 -6.8926e-05 0)
(0 -0.000223589 0)
(0 -2.62535e-06 0)
(0 -5.13323e-05 0)
(0 -3.52623e-05 0)
(0 -0.000242998 0)
(0 -7.7622e-05 0)
(0 -0.000255532 0)
(0 -8.79883e-06 0)
(0 -0.000197395 0)
(0 -8.86515e-05 0)
(0 -5.88038e-05 0)
(0 -9.64091e-05 0)
(0 -1.85877e-05 0)
(0 -2.22218e-05 0)
(0 -4.59514e-05 0)
(0 -0.000110394 0)
(0 -4.82865e-05 0)
(0 -0.000178744 0)
(0 -2.43875e-05 0)
(0 -0.000181532 0)
(0 -0.000183446 0)
(0 -4.21916e-05 0)
(0 -1.31512e-05 0)
(0 -0.000185009 0)
(0 -6.73421e-05 0)
(0 -0.000143074 0)
(0 -1.07941e-06 0)
(0 -0.000193653 0)
(0 -0.000165973 0)
(0 -0.000207494 0)
(0 -4.61466e-05 0)
(0 -2.5857e-05 0)
(0 -2.54245e-05 0)
(0 -0.000225573 0)
(0 -6.35973e-05 0)
(0 -9.11329e-05 0)
(0 -0.000118941 0)
(0 -7.10433e-05 0)
(0 -6.62945e-05 0)
(0 -1.95759e-05 0)
(0 -4.25616e-05 0)
(0 -8.18056e-05 0)
(0 -0.000188562 0)
(0 -5.78613e-05 0)
(0 -5.49142e-05 0)
(0 -7.97799e-05 0)
(0 -4.64503e-05 0)
(0 -0.000252584 0)
(0 -0.000230031 0)
(0 -0.000252841 0)
(0 -8.81446e-05 0)
(0 -7.50258e-05 0)
(0 -3.57159e-05 0)
(0 -4.2262e-05 0)
(0 -2.1302e-05 0)
(0 -0.000123471 0)
(0 -0.000173563 0)
(0 -6.81375e-05 0)
(0 -0.000265493 0)
(0 -0.000208784 0)
(0 -4.40756e-05 0)
(0 -4.05139e-05 0)
(0 -6.44836e-05 0)
(0 -9.00093e-05 0)
(0 -1.24321e-05 0)
(0 -4.0071e-05 0)
(0 -0.000108009 0)
(0 -1.7714e-05 0)
(0 -0.000179588 0)
(0 -3.6153e-05 0)
(0 -3.55711e-05 0)
(0 -0.000153714 0)
(0 -1.24374e-05 0)
(0 -3.77096e-05 0)
(0 -0.000171322 0)
(0 -0.000172555 0)
(0 -0.000224969 0)
(0 -4.66452e-06 0)
(0 -0.00025151 0)
(0 -0.000171116 0)
(0 -0.000170042 0)
(0 -3.86255e-06 0)
(0 -7.26902e-06 0)
(0 -7.33961e-05 0)
(0 -1.70618e-05 0)
(0 -9.52708e-06 0)
(0 -3.9294e-05 0)
(0 -0.000169398 0)
(0 -0.000117094 0)
(0 -9.68281e-05 0)
(0 -1.36629e-05 0)
(0 -0.000125464 0)
(0 2.56319e-06 0)
(0 -0.000128101 0)
(0 -0.000259492 0)
(0 -4.06768e-05 0)