/*--------------------------------*- C++ -*----------------------------------*\
| =========                 |                                                 |
| \\      /  F ield         | OpenFOAM: The Open Source CFD Toolbox           |
|  \\    /   O peration     | Version:  v2012                                 |
|   \\  /    A nd           | Website:  www.openfoam.com                      |
|    \\/     M anipulation  |                                                 |
\*---------------------------------------------------------------------------*/
FoamFile
{
    version     2.0;
    format      ascii;
    class       volVectorField;
    location    "600";
    object      U;
}
// * * * * * * * * * * * * * * * * * * * * * * * * * * * * * * * * * * * * * //

dimensions      [0 1 -1 0 0 0 0];


internalField   nonuniform List<vector> 
18758
(
(1.08054 -0.306576 -3.49011e-20)
(1.26699 0.00348129 0)
(1.01515 -0.000144706 0)
(0.320061 0.0941638 -1.51928e-20)
(0.215915 0.0982243 7.43521e-21)
(0.159555 0.0507053 0)
(-0.210893 -0.00768947 1.35377e-19)
(1.0119 -0.00519833 -5.18012e-23)
(1.20051 0.0818878 0)
(1.01295 -0.105166 0)
(1.05425 -0.0411833 -7.46063e-21)
(0.141293 -0.0473609 0)
(1.00186 -0.000330355 2.32318e-21)
(1.08073 0.0416168 8.13986e-21)
(1.04863 0.00976074 5.85971e-21)
(0.581867 -0.484355 -1.00564e-20)
(1.10339 0.0124024 1.39145e-20)
(1.00385 -0.00737793 3.46852e-21)
(1.03761 -0.00509675 2.79235e-21)
(1.02166 -0.12479 -1.46686e-21)
(0.085488 0.017907 1.71331e-21)
(1.00002 -0.000496086 4.69977e-22)
(-0.0427627 -0.0241965 -4.71197e-20)
(1.16349 0.143545 1.3696e-20)
(1.34204 -0.161959 9.15962e-20)
(1.01158 -0.00501251 0)
(0.772117 -0.664045 -4.36572e-21)
(0.150472 0.0912475 4.19441e-20)
(0.83269 0.00866408 6.22507e-20)
(1.05204 -0.686027 8.72975e-20)
(1.09804 0.038525 -2.62181e-21)
(0.219046 0.0195058 -1.13196e-20)
(1.00033 -0.000113631 2.53675e-21)
(1.05142 -0.0125092 -6.33465e-21)
(1.10328 0.060126 1.53957e-20)
(0.99919 -0.00108039 -6.69945e-21)
(1.00013 -0.000160477 -2.54306e-21)
(1.03382 -0.0226854 -2.16688e-21)
(1.04004 -0.0256964 7.77333e-21)
(1.10956 0.0108866 0)
(1.03466 -0.0210525 2.27889e-21)
(0.936043 -0.0771025 0)
(1.02166 -0.0071103 -4.75214e-22)
(0.973005 -0.0913789 -6.31404e-22)
(1.17428 -0.50121 0)
(1.01313 -0.0014329 -3.52511e-22)
(-0.0619728 -0.0227375 0)
(1.04791 -0.0547888 2.26511e-21)
(1.01085 -0.102657 8.55154e-22)
(1.02128 -0.00523265 -7.4371e-22)
(1.21893 -0.14825 3.67525e-20)
(0.415712 0.0845579 2.70568e-20)
(1.01557 -0.00166806 2.53722e-22)
(1.05279 -0.0398639 -6.19782e-21)
(0.105066 0.0840107 -4.39561e-20)
(1.16722 -0.232198 0)
(1.00017 -0.000182843 5.14326e-21)
(0.513553 -0.32455 0)
(0.992901 -0.022211 1.08906e-20)
(1.07876 0.0434948 1.68306e-20)
(1.10068 -0.264612 2.26177e-20)
(-0.197496 -0.0109178 -1.50177e-19)
(1.17826 0.0324736 0)
(0.968554 -0.0445144 -7.52407e-21)
(1.0154 -0.00174601 -1.50151e-22)
(0.993971 -0.00520496 -1.63655e-21)
(1.10727 0.0150123 1.47508e-20)
(1.00038 -0.000148984 0)
(1.03194 -0.0206245 0)
(0.399292 0.082438 -2.85772e-20)
(0.307569 0.0755205 -9.61272e-21)
(0.97062 -0.0256654 1.18083e-20)
(1.02163 -0.00559507 6.89653e-22)
(-0.0197776 -0.075348 -5.50556e-20)
(1.01696 -0.00852835 0)
(0.994536 -0.0230006 1.0692e-20)
(1.13584 0.0960616 -3.11154e-20)
(0.229391 0.0926597 -5.56844e-20)
(0.894461 -0.32078 2.91208e-20)
(-0.0781265 -0.0265195 -6.35999e-20)
(0.0217658 -0.0250508 -9.29511e-20)
(1.23405 -0.473972 1.50584e-21)
(1.07886 0.0450255 -1.15191e-20)
(0.112991 0.0599885 0)
(1.13092 0.0971988 1.52174e-20)
(1.09332 -0.0275895 -3.78033e-21)
(0.509177 -0.184322 -2.70033e-22)
(1.17895 0.0295856 1.25497e-20)
(-0.0542757 -0.0292813 -6.66364e-20)
(0.995076 -0.023615 -2.25616e-21)
(0.0576446 0.0547371 7.21782e-20)
(0.992519 -0.0217302 -1.11422e-20)
(0.111569 -0.0651712 0)
(0.933559 -0.080618 0)
(0.0215456 -0.0253613 4.3256e-20)
(0.0700238 -0.0519679 -1.54991e-20)
(1.12765 0.094897 1.38409e-20)
(1.01741 -0.00880101 0)
(1.00155 -0.0173396 0)
(0.105019 0.0219584 0)
(1.03283 -0.128557 9.7548e-21)
(-0.0180303 0.0492339 3.22495e-20)
(1.12676 0.0417848 0)
(1.11385 -0.12883 -1.14787e-20)
(0.199744 0.0140252 0)
(1.06763 -0.657876 -6.00562e-20)
(1.03967 0.125671 1.55431e-20)
(0.263778 0.0995841 5.37752e-20)
(1.04194 -0.035923 0)
(0.964148 -0.0112641 -1.4208e-20)
(0.139621 -0.0662011 0)
(0.456567 -0.634099 -5.67438e-20)
(1.01017 -0.00550427 -1.4709e-21)
(1.00824 -0.0361905 -1.19349e-21)
(0.796801 0.114844 4.98971e-20)
(-0.375605 0.00387964 0)
(-0.317423 0.0107152 0)
(1.04831 0.010587 0)
(0.0239732 -0.0339054 -1.17559e-19)
(-0.00530087 -0.0222442 -1.25383e-20)
(1.11408 -0.0534727 -4.71475e-22)
(0.987287 -0.0102612 0)
(0.504613 -0.0564997 -1.58266e-19)
(0.629783 -0.62713 0)
(1.16239 -0.392347 0)
(1.17346 -0.482044 0)
(1.31037 -0.00483752 0)
(1.22166 0.118014 -1.59489e-20)
(0.0596768 -0.049666 2.63904e-20)
(1.00317 -0.000133173 -1.9391e-21)
(1.1045 0.0135881 1.63844e-20)
(0.801294 -0.644866 0)
(0.0569979 0.0101425 -1.92215e-21)
(0.92404 -0.21574 -7.81282e-21)
(0.205666 -0.677482 -7.7114e-20)
(0.967558 -0.0639213 0)
(1.13815 0.0938778 -1.11508e-20)
(1.11131 0.0120338 1.62325e-20)
(1.00196 -0.0173215 4.47814e-21)
(0.777278 -0.256192 -6.27534e-20)
(0.879854 -0.316247 -3.60574e-20)
(0.935184 -0.448943 -4.0392e-21)
(1.00332 -0.031275 -2.47137e-21)
(1.01273 -0.197855 6.49584e-20)
(1.03546 -0.0207535 3.03625e-21)
(1.03952 -0.00283275 0)
(-0.082075 0.020496 0)
(0.316192 0.0375073 2.68761e-20)
(1.097 0.0380678 -2.54897e-20)
(0.771599 0.143005 -3.70034e-20)
(1.24578 -0.461063 -5.43903e-20)
(1.08646 0.112784 4.44114e-20)
(1.09333 -0.0319831 0)
(0.999964 -0.000478232 -5.66477e-23)
(-0.0780354 -0.0216323 -2.45875e-20)
(1.08397 -0.0461478 -1.28184e-20)
(-0.00708917 -0.0331255 1.00146e-19)
(1.04716 -0.0566346 0)
(0.990034 -0.0369424 -4.57464e-22)
(0.999999 -0.000182194 0)
(1.01048 -0.01316 -7.66801e-22)
(1.07927 0.0470991 6.26987e-21)
(0.158126 -0.0940873 1.07178e-19)
(0.991289 -0.036733 -5.99431e-21)
(1.1022 -0.259891 -2.20969e-20)
(0.75229 0.0150766 0)
(1.03883 -0.00692699 5.90108e-21)
(0.427756 -0.0677777 0)
(1.20063 -0.259472 0)
(0.20784 0.0645143 7.17714e-20)
(-0.246054 -0.00344446 0)
(1.00378 -0.00754863 -6.39678e-21)
(0.169799 -0.0858467 2.99786e-21)
(0.165856 0.0926938 0)
(1.07999 0.0482315 2.67602e-20)
(1.15696 0.13948 0)
(0.698006 0.0509451 -3.55282e-23)
(0.967507 -0.0461082 0)
(0.792207 -0.253846 3.13194e-20)
(1.03041 -0.0318245 0)
(1.00861 -0.00511023 4.10253e-22)
(-0.294607 0.00200019 0)
(1.08643 0.112766 -3.45189e-20)
(1.02629 -0.00497765 -6.56959e-21)
(1.06906 -7.43208e-05 -9.10475e-21)
(1.0902 0.11288 0)
(0.996807 -0.0182329 3.41376e-21)
(-0.359826 0.0038283 0)
(1.0205 -0.00623193 -7.36479e-23)
(0.994849 -0.0162285 -9.33708e-22)
(0.930021 -0.22005 3.43366e-20)
(1.22173 0.112495 -1.89016e-21)
(1.0101 -0.0484759 0)
(1.09712 0.0369396 -1.57962e-20)
(0.96952 -0.150014 0)
(1.18375 0.0280755 5.83056e-20)
(1.02486 -0.127427 9.05952e-22)
(1.20985 -0.259627 2.59218e-20)
(1.00049 -0.0019553 0)
(1.02136 -0.006709 6.46983e-22)
(0.746451 -0.205644 0)
(1.04507 -0.0566386 -6.61109e-21)
(1.06779 -0.13103 0)
(1.16981 0.0057085 6.23813e-21)
(1.00189 -0.00050293 2.54056e-21)
(0.971617 -0.146269 -4.00914e-21)
(1.13351 0.042131 -1.70471e-20)
(0.999972 -0.000377564 0)
(0.110538 0.0175299 -1.28898e-20)
(1.00676 -0.103479 1.60615e-21)
(1.00426 -0.00736737 3.47594e-21)
(1.11795 -0.132012 0)
(0.992392 -0.0392278 -6.60549e-21)
(1.07636 -0.120387 0)
(0.854757 -0.286474 2.18756e-20)
(0.0349963 -0.0284341 -9.39131e-20)
(0.8519 -0.298671 0)
(0.527491 -0.429498 0)
(1.01551 -0.00476306 6.72389e-23)
(0.184695 0.0491123 0)
(1.00415 -0.0075346 1.8599e-21)
(1.04158 -0.0372929 0)
(1.1137 0.084362 -6.31455e-21)
(-0.0626633 0.0241271 0)
(1.25743 -0.180847 -9.37964e-21)
(1.13105 0.0410516 -4.10396e-21)
(1.15578 -0.0566367 3.50546e-21)
(0.977105 -0.209685 8.93915e-22)
(1.0256 -0.00243286 8.94214e-22)
(1.17472 0.000417121 0)
(0.99365 -0.00538122 -1.82832e-21)
(1.18466 0.0248045 -5.24699e-20)
(-0.0650056 -0.0226351 -1.01634e-19)
(1.1239 0.0972561 -4.57236e-20)
(1.00169 -0.000248 -8.118e-23)
(0.996639 -0.0176223 -6.52612e-21)
(1.02541 -0.0027029 0)
(1.0126 -0.00172225 0)
(0.582953 -0.0729014 1.53093e-19)
(1.09357 -0.0984068 0)
(1.00841 -0.0127479 -1.45962e-22)
(1.26576 -0.283358 -4.33189e-20)
(1.02112 0.123614 -3.75529e-21)
(1.05395 -0.0233684 0)
(0.825013 0.152268 0)
(-0.0013888 -0.022518 9.88904e-20)
(1.1213 0.0950066 3.68837e-20)
(0.999295 -0.000940197 0)
(0.0202042 -0.0244241 1.18651e-19)
(0.894067 -0.0754367 3.36401e-20)
(0.998981 -0.00162539 -8.10945e-21)
(0.374694 -0.0571794 -1.91197e-20)
(1.09447 -0.0262022 -5.16063e-21)
(0.893793 -0.0812251 -3.62731e-20)
(1.04534 0.00484162 2.8292e-21)
(1.12118 -0.0573047 0)
(1.12951 0.125464 4.0083e-20)
(0.489479 -0.421233 0)
(1.07242 -0.119211 -2.73905e-21)
(0.921105 -0.31475 -7.90537e-21)
(1.02906 0.00251183 2.68743e-21)
(1.12911 0.0303141 0)
(0.999135 -0.00789158 0)
(1.16656 0.00648398 0)
(1.00485 -0.100546 0)
(1.11111 0.0832573 7.36613e-21)
(-0.339391 -0.00571119 -8.7656e-21)
(1.01523 -0.00462315 0)
(1.0413 -0.0336113 4.49562e-21)
(1.02205 -0.472143 -3.10875e-20)
(1.04025 -0.0326866 2.30766e-21)
(1.068 -0.000693206 7.83776e-21)
(1.17061 0.00110761 -5.32818e-21)
(0.609111 -0.0150681 1.26715e-19)
(-0.333812 0.00832931 7.21609e-21)
(1.00151 -0.0301299 0)
(1.21097 -0.13442 9.11192e-20)
(0.297169 0.0885879 0)
(1.21406 -0.473408 5.28961e-20)
(1.00767 -0.0530583 4.32299e-21)
(1.02992 -0.00838071 1.17278e-21)
(1.0757 -0.0748959 1.63121e-20)
(1.09607 -0.0964099 0)
(1.00314 -0.0305422 0)
(0.292586 0.131403 -4.04617e-20)
(1.25596 -0.276102 1.57296e-19)
(0.792036 0.0551245 7.49659e-21)
(0.0242938 0.00771838 0)
(-0.0424488 -0.0255696 9.35359e-20)
(1.02466 -0.00473938 0)
(1.01523 -0.000117309 0)
(0.98103 -0.226734 5.97432e-21)
(0.087174 -0.0309336 0)
(0.920522 -0.0422422 1.0511e-20)
(0.906706 -0.310879 -1.08552e-20)
(1.20146 -0.00826444 1.54481e-20)
(1.07019 -0.0810422 -3.17771e-20)
(-0.00685934 -0.0235246 -5.15395e-20)
(1.03678 -0.0053667 -2.04807e-21)
(1.04888 0.0418346 2.40748e-22)
(0.138414 0.0586461 0)
(1.01291 -0.00148436 7.32505e-24)
(0.440379 0.0602463 0)
(0.956885 -0.167901 2.8323e-21)
(1.03281 -0.0210217 0)
(1.06483 -0.111948 1.19199e-20)
(1.19109 -0.05507 2.40288e-20)
(1.05078 0.00172835 0)
(0.999056 -0.00147302 9.32224e-21)
(-0.249961 -0.00761373 -1.60008e-20)
(0.837081 0.0544193 -6.07733e-21)
(1.00143 -0.0130614 -4.06621e-21)
(-0.254037 -0.00308083 0)
(-0.00559843 -0.0233362 -1.62708e-19)
(1.25216 -0.176284 4.46387e-20)
(0.997759 -0.00832058 9.18194e-21)
(1.002 -7.40503e-05 0)
(1.05967 0.064087 -2.11057e-20)
(1.053 -0.0241746 8.03212e-21)
(1.02569 -0.00500324 4.9335e-21)
(1.03045 -0.00998497 0)
(0.946152 -0.0136852 0)
(1.19726 -0.267793 -5.42292e-20)
(1.19482 -0.0579347 2.74449e-20)
(1.07372 -0.0761898 1.43619e-20)
(1.08976 -0.097151 6.6068e-21)
(1.01744 -0.126685 6.07429e-22)
(0.93901 -0.221176 -1.80495e-20)
(1.02865 0.00209404 -2.50559e-21)
(0.999988 -0.00034644 0)
(1.21367 0.120798 -1.59555e-20)
(1.06451 -0.207502 1.67444e-20)
(1.21749 -0.134833 9.86202e-22)
(0.299932 0.095156 1.74852e-20)
(0.917209 -0.0443535 -1.22856e-20)
(1.01078 -0.0470497 0)
(1.00517 -0.000153785 0)
(1.04484 0.0409919 7.10888e-21)
(0.477818 0.0643247 -1.22385e-20)
(1.02587 -0.00318935 1.77567e-21)
(1.00467 -0.00734122 6.60545e-21)
(1.02563 -0.00348239 -1.6415e-21)
(0.967117 -0.0617948 1.01365e-20)
(0.974582 -0.202109 0)
(1.3288 -0.158385 9.16047e-20)
(0.98786 -0.0100699 5.39065e-21)
(0.968284 -0.0110282 1.10533e-20)
(1.02218 -0.00454518 0)
(0.594503 -0.530919 0)
(0.936851 -0.437648 0)
(1.23677 -0.00435569 -4.9019e-20)
(1.12212 -0.309214 0)
(1.05336 -0.00640303 7.2209e-21)
(1.23 0.10487 0)
(1.06945 -0.305092 3.44194e-20)
(1.10562 -0.0787177 0)
(0.887058 -0.0899669 0)
(0.0990959 -0.0422512 -6.76823e-20)
(0.00287765 0.0228592 4.10185e-20)
(1.09031 0.116187 -2.91418e-20)
(1.00178 -0.00239951 4.16379e-21)
(1.02747 -0.135793 0)
(1.21712 -0.0661627 0)
(0.545976 -0.00749659 -1.53054e-19)
(1.01803 -0.0832209 -1.33076e-21)
(1.02454 -0.0051703 -1.33728e-21)
(1.15228 -0.0281342 0)
(1.03768 -0.0106228 -2.80794e-21)
(1.0933 -0.0170071 -1.02042e-20)
(1.11161 0.0129146 1.79474e-19)
(0.146352 0.115273 -6.65274e-22)
(1.09166 0.0488057 3.08973e-21)
(1.01422 -0.123635 0)
(-0.324532 -0.00644937 0)
(0.988027 -0.0232217 0)
(1.04433 -0.0583581 8.88989e-21)
(1.00202 -0.0233217 -8.46446e-21)
(1.04009 -0.026827 -1.0436e-20)
(1.10465 0.0535699 0)
(1.05887 -0.0419482 0)
(-0.240115 -0.00680717 0)
(0.894058 -0.457361 -1.25158e-21)
(1.04468 0.00441216 -6.06585e-21)
(1.00126 -0.0127035 0)
(-0.321121 0.0112529 -2.65581e-20)
(1.0929 0.0488162 5.56762e-21)
(1.19572 0.0829237 2.76556e-20)
(0.987759 -0.022532 0)
(1.09746 0.0317093 -4.30792e-21)
(1.02921 -0.00845998 -1.89178e-21)
(0.936315 -0.0696642 0)
(0.987195 -0.0106802 4.67639e-21)
(1.0149 -0.00476903 1.63749e-22)
(-0.266807 0.0149074 -2.40247e-20)
(0.121238 0.0183352 0)
(1.01246 -0.746964 6.61528e-20)
(0.358301 -0.131917 1.82333e-19)
(1.00537 -0.000435791 0)
(1.15315 0.0908029 -2.75314e-20)
(0.197834 0.0403881 -1.75136e-20)
(1.12316 -0.0593605 2.1467e-20)
(1.01043 -0.00577226 -7.14414e-22)
(0.30566 0.0886323 0)
(1.02868 -0.0126284 -4.10315e-23)
(1.0405 -0.000925961 1.03678e-20)
(1.00882 -0.00542591 4.07124e-22)
(1.10415 0.0550573 -1.83805e-20)
(0.990151 -0.0119193 9.87217e-21)
(0.969489 -0.0901343 0)
(1.11903 -0.299408 0)
(0.516555 -0.0506516 -1.10104e-19)
(1.03002 -0.00960608 2.96345e-21)
(0.198173 0.0954323 -7.9796e-21)
(1.12456 -0.00386387 -4.18778e-20)
(0.997974 -0.00812361 -8.26798e-21)
(1.07409 -0.00897379 5.20115e-21)
(0.991229 -0.0231848 -1.01924e-20)
(1.00457 -0.0075334 -3.53818e-21)
(1.06815 -0.0787963 1.34956e-20)
(1.13054 0.0238499 1.53465e-20)
(0.945689 -0.217404 1.99219e-21)
(0.104466 0.0498584 2.14616e-21)
(1.11719 -0.0535668 -5.5052e-22)
(0.996175 -0.00491285 0)
(1.00348 -0.463738 1.64572e-20)
(0.762554 0.103968 1.64724e-20)
(0.566284 0.0742373 -7.09203e-21)
(-0.260498 -0.00239566 -9.61091e-20)
(1.09996 0.0512984 -2.61979e-20)
(1.00511 -0.0515819 0)
(1.01463 -0.00461392 0)
(1.00825 -0.0123562 1.6173e-21)
(0.991461 -0.0400994 -1.67923e-21)
(1.09102 0.047558 -3.34267e-20)
(1.11102 0.00421985 1.70753e-20)
(1.08747 0.011333 -5.41465e-22)
(0.957332 -0.161383 1.1475e-20)
(1.0946 -0.0304109 0)
(1.07278 0.0955085 0)
(1.12893 0.0428318 4.74675e-21)
(0.9912 -0.0222874 6.52642e-21)
(1.08731 -0.0950444 -2.47193e-20)
(-0.0578827 -0.0332497 -8.29481e-21)
(0.987131 -0.0548177 5.04017e-21)
(0.146882 0.110086 0)
(1.00322 -9.82499e-05 0)
(0.996692 -0.000325035 -7.40718e-21)
(0.330449 0.0914066 -1.423e-20)
(0.945709 -0.0986541 0)
(1.04232 -0.029628 -4.8701e-21)
(1.12485 0.122573 -3.49072e-20)
(1.10493 0.0614283 1.63926e-20)
(0.985437 -0.221911 7.09453e-22)
(0.053298 -0.0548515 -2.7e-20)
(0.993844 -0.0230884 0)
(0.985552 -0.0500909 5.89752e-21)
(0.534411 -0.476896 1.18394e-20)
(0.0922933 -0.0398208 1.25041e-19)
(0.864433 -0.119802 5.33813e-20)
(1.15028 -0.163295 0)
(1.08017 0.0403647 0)
(1.07399 0.0929551 0)
(-0.382136 0.00718346 0)
(1.08042 0.042928 -1.69727e-20)
(0.970067 -0.0242342 -1.20597e-20)
(1.23133 -0.0644894 0)
(1.00723 -0.0364916 0)
(1.09011 0.0475469 1.10731e-20)
(1.03798 -0.0512913 -2.33487e-21)
(0.105983 -0.0584888 0)
(1.09641 0.0314788 -3.99551e-21)
(1.29831 -0.0738588 -1.02433e-19)
(1.08734 0.0104776 -4.04578e-21)
(1.09691 0.0410542 2.69358e-20)
(1.01283 -0.00170409 4.3874e-22)
(1.16835 0.141986 3.17496e-20)
(1.02136 -0.00595247 7.72095e-22)
(-0.00667468 0.0175009 -5.49828e-20)
(1.00171 -0.0239094 6.96252e-21)
(1.12569 -0.392729 4.18175e-20)
(0.999095 -0.00647816 -6.74595e-21)
(1.03524 0.0540025 -8.44221e-21)
(1.09524 -0.0163059 4.09754e-20)
(0.999716 -0.00520977 2.76872e-21)
(1.00124 -0.016771 -4.75089e-21)
(1.00916 -0.00544344 -4.5219e-22)
(0.895923 0.100958 0)
(-0.130498 0.0187012 8.19439e-21)
(0.822675 0.112698 6.07245e-20)
(1.10461 0.0170151 0)
(1.06579 -0.000341854 1.64944e-20)
(1.19331 -0.0495905 0)
(1.00001 -0.000393893 -3.21718e-21)
(1.00001 -0.000117193 9.24564e-21)
(0.407853 0.0874821 -1.70972e-20)
(1.00084 -0.0168736 5.29244e-21)
(0.995974 -0.00190322 0)
(1.20558 -0.0108964 -3.25811e-20)
(1.00188 -0.00235555 -5.33222e-21)
(1.1444 -0.164345 0)
(1.19026 -0.0463343 0)
(0.995781 -0.00177315 -2.80076e-21)
(0.990337 -0.0125546 -2.17439e-20)
(0.932486 -0.0890953 -2.49973e-20)
(0.987037 -0.0529755 -9.28983e-21)
(1.08631 -0.0469782 0)
(0.837166 0.148758 -6.07355e-20)
(1.07401 0.0264456 0)
(0.872173 -0.120019 -4.66241e-20)
(1.04364 -0.0864136 5.99818e-22)
(0.996353 -0.00466497 -3.06836e-21)
(0.385935 -0.718446 -2.85033e-21)
(0.964952 -0.0159662 -3.32693e-21)
(1.03965 -0.0386352 6.45512e-21)
(0.832456 -0.745492 -2.23693e-20)
(-0.372193 0.00275778 0)
(1.09692 0.0400448 1.69841e-20)
(1.04988 0.0705414 0)
(1.01707 -0.0852875 0)
(1.03996 -0.0375852 -2.26574e-21)
(-0.347527 0.00444178 2.27082e-22)
(1.03816 -0.00640102 -5.83958e-21)
(-0.294595 0.014109 0)
(1.11346 -0.385803 -4.53427e-20)
(0.999447 -0.00546879 0)
(0.798144 0.150129 6.46728e-20)
(1.23006 0.110494 2.36397e-21)
(1.15327 -0.0246381 0)
(1.00827 -0.000462489 -1.94361e-21)
(1.06399 -0.200794 2.45401e-20)
(0.458852 0.0759893 -6.49235e-21)
(1.03465 -0.0223142 -2.70506e-21)
(1.02939 -0.0193937 3.25197e-22)
(1.04968 0.00967306 -1.02474e-20)
(1.05056 0.000955685 0)
(1.04009 -0.00313274 0)
(1.01179 -0.000840441 0)
(1.00001 -5.46735e-05 -7.4201e-21)
(0.633065 -0.0598758 1.87106e-20)
(1.071 -0.0345165 1.44429e-22)
(0.746405 0.0175063 -7.83352e-20)
(0.98716 -0.00831574 5.67158e-21)
(1.24024 -0.0722098 4.33422e-20)
(1.17635 0.00558672 -5.72102e-20)
(0.999061 -0.0076308 -2.7357e-22)
(1.02079 -0.0066638 -5.92714e-22)
(1.06873 -0.038511 4.3446e-21)
(1.0007 -0.00224931 -2.05827e-21)
(1.00845 -0.054498 1.06979e-21)
(0.950469 -0.0369556 -7.3381e-21)
(1.02927 -0.032127 1.35137e-21)
(1.16964 0.0355645 -1.57101e-20)
(0.628608 -0.544164 0)
(1.01722 -0.00209765 4.60581e-22)
(0.446366 0.0790957 2.79813e-20)
(0.0483157 0.0722446 2.67044e-20)
(0.861596 -0.104422 2.49942e-20)
(1.23048 -0.0602986 0)
(0.958718 -0.746236 0)
(0.93375 -0.0723892 9.82622e-21)
(1.07295 0.0257712 2.82825e-22)
(1.08753 -0.0293986 1.56576e-20)
(0.315696 0.0802979 2.37586e-20)
(1.06935 -0.0350722 3.12564e-23)
(1.09623 0.0256048 0)
(1.00474 -0.0338172 -8.06582e-22)
(0.139594 0.148595 -2.76348e-21)
(1.12102 -0.0220661 5.2603e-20)
(0.96 -0.423321 0)
(1.14454 0.0645202 0)
(-0.203479 -0.0079716 0)
(1.06808 -0.037424 0)
(0.998702 -0.0261977 -8.37931e-21)
(1.15561 -0.048885 3.00001e-20)
(1.33472 -0.174357 -2.85528e-21)
(1.00588 -0.053182 -1.9188e-21)
(1.15666 -0.380975 2.95227e-20)
(0.976872 -0.0290812 0)
(0.955656 0.124013 4.63867e-21)
(1.01125 -0.0559437 0)
(1.02861 -0.0145387 0)
(1.00938 -0.00574093 2.18073e-22)
(1.00179 -0.00178229 0)
(0.0818551 0.0773993 2.14624e-20)
(0.930637 0.121711 0)
(0.98641 -0.0221959 -1.30595e-20)
(1.07076 0.0542339 -6.32601e-23)
(0.950114 -0.121587 0)
(0.524625 0.0768173 -9.80674e-22)
(-0.110933 0.0236677 0)
(1.06405 0.0620809 2.13033e-20)
(1.33005 0.016402 2.67422e-20)
(1.03545 0.003137 -2.87416e-21)
(0.205846 0.09731 -4.05023e-20)
(1.09619 0.0365099 8.03705e-21)
(1.01416 -0.0331641 0)
(1.10929 0.0150943 0)
(0.383547 0.0825095 0)
(0.324255 0.0966884 -1.73651e-20)
(1.05096 -0.0135923 -6.64513e-21)
(0.955042 -0.00781038 -6.64639e-22)
(1.01097 -0.0346976 -2.36362e-21)
(1.01491 -0.000324833 0)
(0.298582 0.0245049 1.02595e-20)
(1.1641 0.039168 5.88703e-21)
(0.131727 0.0879806 0)
(0.1757 0.0340515 1.95355e-20)
(0.981158 -0.0194022 0)
(1.00058 -0.00210344 0)
(1.14037 -0.00320418 6.80945e-21)
(1.00001 -0.000352904 -2.59809e-21)
(1.0103 -0.0127451 0)
(0.950926 -0.0353254 -1.20921e-20)
(1.04921 0.0069181 -8.07109e-21)
(1.17383 0.0362342 -2.61863e-20)
(1.11863 -0.0212224 -1.72291e-20)
(1.20901 -0.243377 2.3612e-20)
(0.284645 0.0996051 -1.42703e-20)
(1.15225 -0.155379 3.03888e-20)
(0.999091 -0.00616646 3.39381e-21)
(0.947149 -0.0950896 9.38686e-21)
(1.20064 -0.158887 -4.93811e-22)
(0.36733 0.0929885 1.20129e-21)
(1.09518 0.0246588 0)
(1.2442 -0.374349 0)
(1.1458 -0.0534361 -2.47947e-20)
(0.985649 -0.0226798 1.02417e-20)
(1.07233 0.0552418 -1.48419e-20)
(0.787863 0.069096 -2.96175e-21)
(1.01097 -0.049803 0)
(1.02631 -0.00401628 -1.85852e-21)
(0.644435 -0.279098 0)
(0.0326162 0.0554271 -6.79078e-20)
(1.21357 -0.25331 0)
(1.0019 -0.00174172 -5.48276e-22)
(-0.0172011 0.0191258 -4.18196e-20)
(0.0446868 0.00770326 -1.51152e-20)
(1.33275 -0.17991 0)
(1.02148 -0.00488713 -7.55078e-22)
(-0.150627 -0.0148528 -3.12091e-20)
(-0.246472 -0.00507399 0)
(0.457482 -0.178558 -3.80238e-21)
(1.05929 -0.0402714 1.08608e-20)
(0.999366 0.00070367 -6.5855e-21)
(0.795184 0.0929438 0)
(1 -4.1232e-05 0)
(1.09104 0.0678937 0)
(-0.268253 0.0192676 0)
(1.2509 0.00314137 5.55162e-20)
(-0.190724 -0.0103188 3.4965e-20)
(1.1205 0.0437004 7.80462e-21)
(0.104781 0.0320475 0)
(1.13334 0.0240399 0)
(0.989045 -0.0331077 7.36811e-21)
(0.956046 -0.00678584 0)
(-0.314813 -0.00165485 0)
(0.415192 0.0757702 5.34187e-21)
(-0.262464 -0.00457861 8.87508e-21)
(0.187492 0.111032 -9.01003e-21)
(1.03832 -0.00563542 3.59059e-22)
(1.09289 0.0688288 2.15611e-20)
(1.00001 -0.000314415 3.36008e-21)
(1.15871 -0.0596553 1.73623e-20)
(1.10967 0.0456022 0)
(1.21261 -0.150967 0)
(0.999536 -0.00525984 0)
(0.966625 -0.0802371 -5.47351e-21)
(1.15095 0.0865599 9.05943e-21)
(0.415963 0.074958 -2.98585e-20)
(-0.297319 -0.00263871 3.82341e-21)
(-0.285978 -0.00157378 0)
(1.10863 -0.0801515 0)
(1.03678 -0.128218 -2.95437e-21)
(1.11749 0.0967428 -2.83888e-20)
(0.966944 -0.0116749 2.43405e-20)
(1.02811 -0.00793797 -2.55985e-21)
(0.996457 -0.012325 -1.5314e-21)
(1.06368 0.0131433 -7.17331e-21)
(1.09802 0.0395108 2.44452e-21)
(0.99571 -0.00511825 -1.06739e-20)
(1.10968 0.043623 1.2797e-20)
(1.00708 -0.012009 0)
(1.00281 -0.000203471 -4.14538e-21)
(1.0051 -0.00728388 0)
(0.201271 0.0957824 -3.56803e-20)
(0.963969 -0.0130295 2.04956e-20)
(1.00001 -0.000285084 0)
(1.13767 -0.00513348 -2.07241e-20)
(1.14189 -0.0260131 1.73959e-20)
(1.01741 -0.00225346 -3.87296e-22)
(-0.281123 0.0119549 0)
(1.03816 -0.0101732 3.64917e-21)
(1.03033 0.00187492 -1.78599e-21)
(1.15037 -0.0739836 0)
(0.882354 -0.130254 3.80968e-20)
(1.06682 0.000201706 4.60096e-21)
(1.02559 -0.0541199 2.06366e-23)
(1.27566 -0.376035 3.99217e-21)
(0.859882 -0.109947 -2.65175e-20)
(1.06279 -0.121893 8.44519e-21)
(0.819076 0.0678685 -2.61458e-21)
(1.06633 -0.120695 -7.90339e-21)
(0.34006 0.0834967 0)
(0.9069 -0.0181766 -4.58838e-20)
(1.16776 0.0397244 1.67659e-20)
(0.472703 -0.227948 -5.50099e-20)
(0.279774 0.0167812 -7.81057e-21)
(1.02581 -0.00390746 1.59985e-21)
(0.333689 0.0775655 0)
(1.1966 0.132573 6.86715e-21)
(1.01227 -0.00402373 0)
(-0.00785808 0.0356538 -5.76254e-21)
(0.997865 -0.00545405 3.6927e-21)
(1.00554 -0.00722163 0)
(1.11709 -0.0311092 1.69407e-20)
(1.00371 -0.00704159 -6.24773e-21)
(1.13401 -0.250393 1.60921e-21)
(0.346355 0.0888963 1.21964e-21)
(1.02079 -0.00589214 6.38104e-22)
(0.184538 -0.113222 -6.16781e-20)
(1.03482 0.00299577 -5.20584e-21)
(1.11295 -0.0504926 2.12442e-20)
(0.41796 0.0714145 -8.76619e-21)
(1.01718 -0.0017225 -1.08316e-22)
(0.0206879 0.0629644 0)
(1.01232 -0.0684762 8.12111e-22)
(1.03762 -0.0138061 -1.6424e-21)
(0.997103 -0.0165512 4.4134e-21)
(0.996164 -0.0125644 1.90091e-21)
(1.2465 0.0247603 3.79867e-21)
(0.732177 -0.197105 0)
(-0.371325 0.00565262 1.43681e-19)
(1.15771 -0.154577 -4.36706e-20)
(0.0953408 0.0472741 4.23789e-20)
(1.14325 -0.00811582 1.35359e-20)
(0.995903 -0.00489005 0)
(1.14546 0.0924037 3.29154e-20)
(-0.272232 -0.00511474 4.23232e-20)
(1.3124 0.023469 0)
(0.746622 -0.220888 3.8283e-20)
(1.23371 0.00038006 0)
(1.0946 0.0366052 0)
(1.06776 -0.0622878 -1.30821e-21)
(1.25091 0.0181293 6.18149e-20)
(1.02308 -0.0520122 -1.0665e-22)
(1.24116 -0.450033 0)
(1.002 -0.00110133 0)
(-0.139926 -0.0209437 8.31126e-20)
(1.05247 -0.0121046 0)
(0.763595 -0.229262 3.17108e-20)
(0.927939 -0.0880322 2.54181e-20)
(1.04001 -0.0294018 -4.67741e-21)
(0.944172 0.00931969 -5.07566e-22)
(0.954805 -0.0047657 0)
(1.00963 -0.0121978 2.83571e-23)
(1.33117 -0.0858375 9.52231e-20)
(1.01027 -0.0689769 0)
(1.00499 -0.00749436 0)
(1.11274 0.00552837 -1.79003e-20)
(1.19229 -0.0672585 0)
(1.24883 0.0286586 -3.51433e-20)
(1.3353 -0.168599 -1.0767e-19)
(1.03012 0.0772874 0)
(-0.261468 0.0180841 0)
(1.00063 -0.00212393 -1.83004e-21)
(0.99947 0.000662147 0)
(-0.0117927 0.0229405 4.03104e-20)
(0.99519 -0.00844462 0)
(1.25412 -0.303211 -1.16783e-19)
(1.12066 0.0461694 -8.34141e-21)
(1.05591 -0.0406806 1.0198e-20)
(0.995889 -0.00140901 -7.12352e-21)
(1.06083 -0.11221 1.79891e-22)
(0.990496 -0.000824857 0)
(1.03665 -0.0136571 -1.52418e-21)
(1.08567 -0.00525383 1.68139e-20)
(1.25138 -0.294601 9.00934e-20)
(1.21336 -0.239244 1.21197e-19)
(0.64451 -0.296777 0)
(1.12289 -0.175779 -1.72027e-20)
(1.00044 -0.00304859 4.53634e-21)
(1.10987 0.0292778 -5.53514e-21)
(0.730573 0.05845 -7.32603e-20)
(1.00662 -0.0114163 0)
(1.10813 0.0462343 7.08279e-21)
(1.0619 -0.0276915 -2.089e-20)
(0.347834 0.0862844 7.96423e-21)
(0.954086 -0.039566 1.0665e-20)
(-0.013988 -0.0252417 -4.92514e-20)
(1.00209 -0.000982192 0)
(1.21593 0.128213 3.82003e-20)
(1.00001 -0.000215002 3.41206e-22)
(1.13334 0.0360163 0)
(1.01362 -0.0338189 -1.80053e-21)
(1.06264 0.012532 0)
(1.07231 0.0236651 0)
(1.01737 -0.00187777 0)
(1.02976 0.00192509 -4.24169e-22)
(1.01672 -0.00323755 2.78204e-22)
(0.865585 0.10274 1.59589e-21)
(-0.190959 0.00224055 -8.33986e-20)
(1.09226 0.00375657 1.95314e-20)
(0.0713936 0.068006 3.7178e-20)
(0.984731 -0.0220886 0)
(1.10899 0.00511853 0)
(1.08371 -0.0438894 0)
(1.18157 0.0942745 0)
(-0.0632985 -0.0277746 6.93117e-20)
(1.09215 0.00514809 -1.0433e-20)
(1.01951 -0.00212761 0)
(0.977857 -0.427568 -1.44213e-20)
(1.00699 -0.0116497 0)
(0.984412 -0.0213766 0)
(1.0848 -0.0395102 2.16491e-20)
(-0.350142 0.00996132 -9.08506e-20)
(0.564801 -0.0404495 -5.07469e-20)
(1.31841 0.040043 1.43076e-19)
(1.06113 0.0665124 0)
(0.718545 -0.198056 -8.44408e-21)
(0.948174 -0.0150729 0)
(1.00538 -0.0258563 0)
(1.26127 -0.441844 0)
(1.00542 -0.00742824 -3.23683e-21)
(1.33733 -0.033778 -1.03186e-19)
(1.08446 -0.0272805 -1.39619e-20)
(0.999198 0.000401036 3.20374e-21)
(0.450779 0.115652 0)
(0.309452 0.0538692 0)
(0.996978 -0.00020476 4.25033e-21)
(-0.357163 0.00405114 -1.30543e-19)
(1.04405 -0.0888872 0)
(1.08929 0.0378776 -1.03874e-20)
(0.924062 -0.330294 1.1447e-20)
(1.05195 0.0683709 0)
(0.273495 0.0550226 0)
(1.24593 -0.350053 1.06072e-21)
(1.0027 -0.000742149 -2.26757e-21)
(1.01509 -8.14149e-06 4.3247e-23)
(0.303399 0.0983706 -1.48207e-20)
(1.00113 -0.0308808 1.94265e-21)
(1.03115 -0.0212894 1.66108e-21)
(1.08659 -0.0274 -7.66907e-21)
(0.999602 -0.0314769 0)
(0.876781 0.0841997 6.09936e-21)
(1.07537 0.0573969 -7.53556e-21)
(1.14324 -0.0044532 -2.19087e-20)
(-0.0420328 0.0214221 9.54822e-20)
(1.12714 -0.00511718 3.92837e-20)
(1.10343 0.058388 -9.77623e-21)
(1.06121 -0.0268835 1.65453e-20)
(1.00284 -0.00445112 0)
(1.01524 -0.00132813 -1.21491e-22)
(1.00972 -0.00692075 4.17332e-22)
(-0.344363 0.010432 0)
(0.300596 0.0253302 -4.25778e-20)
(1.06903 0.0452564 -5.7063e-21)
(0.995683 -0.00125517 1.1175e-20)
(1.01927 -0.00192895 -1.50367e-22)
(1.07325 0.0242876 -1.07895e-20)
(1.01562 -0.0228564 0)
(1.11889 -0.0335124 9.32599e-21)
(0.969352 -0.085586 -2.72453e-20)
(1.20914 -0.488999 0)
(0.446953 0.0941441 0)
(1.11134 0.0428253 4.05259e-20)
(1.1094 0.0954616 3.12251e-20)
(1.06846 0.0468164 0)
(1.03021 -0.0198412 0)
(1.24877 0.0138489 -4.66329e-20)
(1.00576 -0.0263744 -5.08972e-21)
(-0.0567213 -0.0277279 0)
(1.20207 0.128811 0)
(-0.00671897 -0.0288582 -2.52632e-20)
(0.941027 0.079271 5.24578e-20)
(1.05009 0.00666437 8.06612e-21)
(1.08593 -0.00363624 -1.74843e-20)
(1.14569 -0.656516 -1.3869e-20)
(-0.0477691 0.0173643 -9.31495e-20)
(0.0199085 -0.0318509 -2.3362e-20)
(0.787652 -0.0990085 0)
(1.20611 -0.162368 4.36663e-20)
(-0.310788 0.00722387 -7.85736e-20)
(1.00178 -0.00208692 5.75002e-21)
(1.11515 0.0948095 2.90742e-20)
(0.572784 -0.622105 0)
(1.08898 0.0469352 1.09905e-20)
(1.00187 -0.0020306 -5.3257e-21)
(1.03292 -0.0221874 0)
(1.11819 -0.0183903 -3.52017e-20)
(0.145574 0.0338087 1.43388e-21)
(0.339083 -0.652839 4.10715e-20)
(1.01122 -0.312227 -7.97497e-21)
(0.988278 -0.00702007 -9.39668e-21)
(1.06172 0.010713 0)
(0.888732 -0.0548009 -3.90064e-20)
(0.166592 -0.187464 0)
(1.03903 -0.0286631 0)
(1.23007 -0.318106 1.11e-19)
(1.00376 -0.0143749 -3.73997e-21)
(0.985302 -0.0518005 8.88693e-21)
(1.2576 -0.0719894 0)
(1.00654 -0.0110943 0)
(0.998351 -0.00821926 -5.04253e-21)
(1.03904 -0.0523311 3.11799e-21)
(1.00092 -0.101151 4.61726e-21)
(1.00315 -0.00442337 -1.5743e-21)
(1.02356 -0.051192 6.22401e-22)
(1.02203 -0.00490642 -9.41648e-22)
(1.04286 0.0755005 3.18407e-21)
(1.06988 0.0280058 0)
(0.326504 0.0433782 3.9001e-20)
(1.02525 -0.00460095 -1.70019e-21)
(0.868524 -0.202889 1.67582e-20)
(0.99308 -0.0024956 -1.8868e-21)
(1.14271 0.0951917 -4.03605e-20)
(1.20257 0.076738 0)
(1.02536 -0.157301 -4.0544e-21)
(1.00343 -0.0144438 -1.00892e-21)
(1.05298 -0.00734752 0)
(1.15485 -0.403985 4.76551e-21)
(1.13682 0.0601279 0)
(1.08955 -0.0292839 0)
(-0.236908 0.0202315 4.06847e-20)
(1.08878 0.0460852 -9.38951e-21)
(0.991772 -0.0218089 0)
(0.981604 -0.0203699 0)
(0.376783 0.0810897 -6.1198e-21)
(-0.0726563 -0.0355988 -1.62976e-22)
(1.10548 -0.194034 1.53731e-20)
(1.01666 -0.00453555 -1.03935e-23)
(1.06144 0.0537961 0)
(1.00057 -0.0029778 8.52383e-21)
(1.10981 -0.0503317 -4.29355e-20)
(1.02041 -0.00839802 -3.81761e-22)
(1.32062 -0.18775 0)
(-0.0624536 -0.0220171 0)
(1.00671 -0.00764262 0)
(1.03971 -0.00209863 0)
(1.3233 -0.0199527 0)
(0.998329 -0.0269735 9.63544e-21)
(0.863397 0.152498 -2.73434e-20)
(-0.347432 0.00017962 2.09056e-19)
(1.10749 0.0303142 2.13832e-20)
(0.965626 -0.0106065 -1.10208e-20)
(0.998951 -0.000415649 -4.09407e-21)
(1.02057 -0.00813718 2.61061e-22)
(1.00199 -0.00080007 0)
(-0.414235 0.00255551 7.09834e-20)
(1.1996 -0.233746 -1.37819e-20)
(1.22015 -0.143451 -4.36542e-20)
(1.03356 -0.0490563 -1.617e-21)
(0.0149637 0.0434885 -1.35115e-20)
(1.00496 -0.000256317 0)
(0.994911 -0.015625 -7.05405e-21)
(0.611802 0.0460106 1.31998e-19)
(1.02664 -0.0128388 -1.12544e-22)
(0.280773 0.104971 6.69666e-21)
(1.0171 -0.00137825 0)