/*--------------------------------*- C++ -*----------------------------------*\
| =========                 |                                                 |
| \\      /  F ield         | OpenFOAM: The Open Source CFD Toolbox           |
|  \\    /   O peration     | Version:  v2012                                 |
|   \\  /    A nd           | Website:  www.openfoam.com                      |
|    \\/     M anipulation  |                                                 |
\*---------------------------------------------------------------------------*/
FoamFile
{
    version     2.0;
    format      ascii;
    class       volScalarField;
    location    "850";
    object      k_0;
}
// * * * * * * * * * * * * * * * * * * * * * * * * * * * * * * * * * * * * * //

dimensions      [0 2 -2 0 0 0 0];


internalField   nonuniform List<scalar> 
18758
(
0.000174543
0.00251589
0.000144249
0.039215
0.0662558
0.0814065
0.00878738
0.00014588
0.000212474
0.000156278
0.000152536
0.0549132
0.000148182
0.000200491
0.000152415
0.000195579
0.000170286
0.000147429
0.000148484
0.000158557
0.0261196
0.000149789
0.0439446
0.00039112
0.000686646
0.000145905
0.000246365
0.0672892
0.0524763
0.000586046
0.000181726
0.0321369
0.000149141
0.000151061
0.000191165
0.000149083
0.000149462
0.000148409
0.000149413
0.000171501
0.000148435
0.000154672
0.000145765
0.000154473
0.000414192
0.000145151
0.0426238
0.000152765
0.000155938
0.000145508
0.000186081
0.0648485
0.000144678
0.000152173
0.0650665
0.0171049
0.000149394
0.000185477
0.000148045
0.00020195
0.000172964
0.0103167
0.000188728
0.000150423
0.000144736
0.000147977
0.000172145
0.000149109
0.000148044
0.063757
0.0603204
0.0001494
0.000145571
0.00100668
0.000145829
0.000147997
0.000208844
0.0647728
0.000168517
0.0307377
0.0661461
0.00143016
0.000201803
0.0772722
0.00020975
0.000160913
0.0524234
0.000188477
0.00105252
0.000148003
0.0743275
0.000148044
0.0346428
0.000155042
0.0687201
0.0283436
0.000208045
0.000145848
0.000147426
0.0299455
0.00015953
0.0686809
0.000183502
0.000166784
0.0261461
0.000189263
0.0266057
0.0662812
0.000150325
0.000149365
0.0360554
0.000925734
0.000146189
0.000148313
0.0481789
0.0239409
0.0302308
0.000152459
0.0424258
0.0658706
0.000165741
0.000148001
0.0818442
0.000229827
0.000215393
0.000271326
0.00139624
0.000293654
0.0283658
0.000148516
0.000170867
0.000243101
0.0153897
0.000163219
0.000460066
0.000151939
0.000207992
0.000172333
0.000147412
0.000166734
0.000168513
0.000180823
0.000148062
0.0350484
0.000148475
0.000148942
0.0244003
0.0258376
0.000181517
0.053147
0.000804244
0.0031069
0.000160715
0.000149787
0.0536941
0.000158425
0.0376279
0.000152753
0.000148887
0.000149918
0.000146675
0.000200691
0.0366455
0.000148852
0.000173311
0.0596386
0.000148667
0.0813663
0.000191291
0.0807481
0.0460728
0.000147398
0.040372
0.0670182
0.00020039
0.000378146
0.0629348
0.000150595
0.000166591
0.000148677
0.00014644
0.00985002
0.000840468
0.000146207
0.000156218
0.000316252
0.00014771
0.0278693
0.000145582
0.00014773
0.000163322
0.000270771
0.000149392
0.000180759
0.000159274
0.000188894
0.000158961
0.000194941
0.000148903
0.000145698
0.00016592
0.000152596
0.000162158
0.000181969
0.000148088
0.000159081
0.000184202
0.000149845
0.0249675
0.000155857
0.000147344
0.000167413
0.000148959
0.00016237
0.000166785
0.0624938
0.000167475
0.000193974
0.000145357
0.0822075
0.000147344
0.000150356
0.000202683
0.0282156
0.000203179
0.000183706
0.000173371
0.000163201
0.000145883
0.000182105
0.000147939
0.000188713
0.0439412
0.000209682
0.000148299
0.000147693
0.000145889
0.000145325
0.0791139
0.000163359
0.000146848
0.000268269
0.0300025
0.000151614
0.0481042
0.0191365
0.00020874
0.000149128
0.067392
0.000156626
0.000148947
0.0810693
0.00016102
0.000156849
0.000150853
0.00016729
0.000263391
0.00020106
0.000161948
0.000168289
0.00014709
0.000180132
0.000148041
0.000181685
0.000155499
0.000202319
0.0173947
0.000145367
0.000150059
0.000195322
0.000149874
0.000155852
0.000181686
0.0764499
0.025172
0.000148058
0.000183532
0.00551389
0.000415648
0.000149839
0.000147148
0.000158712
0.000163419
0.000148034
0.00627051
0.000256989
0.0531304
0.00816356
0.045956
0.000145883
0.000144194
0.000164206
0.0679466
0.000153815
0.000168155
0.000187108
0.000158514
0.0636241
0.000148315
0.0178706
0.0788014
0.000145237
0.0612773
0.000160472
0.000148171
0.000160595
0.000180372
0.000151674
0.000148976
0.0159169
0.0479765
0.000147425
0.0104271
0.0649619
0.000200657
0.000147944
0.000149395
0.0156129
0.000151519
0.000146099
0.000147328
0.000150775
0.000191982
0.000180508
0.00015865
0.000162665
0.000158558
0.000164054
0.000146929
0.000149843
0.000285967
0.000166512
0.000185206
0.03556
0.000154094
0.000149245
0.000149907
0.0184088
0.0634634
0.000145972
0.000147263
0.000145975
0.000151785
0.000162509
0.0004814
0.000147978
0.000149103
0.000145504
0.000204838
0.000179815
0.000197774
0.000179548
0.000151629
0.000263016
0.000173675
0.000164472
0.000157464
0.0495065
0.0288772
0.000329633
0.000148167
0.000159765
0.00628335
0.0797914
0.000153579
0.000145906
0.000174508
0.000148507
0.000161322
0.0120287
0.0201115
0.000190533
0.000158108
0.0210275
0.000148329
0.000152562
0.00014769
0.000149433
0.000188314
0.000153286
0.0124954
0.000182011
0.000150623
0.000147436
0.0335683
0.000189922
0.000211554
0.00014831
0.000177324
0.000147049
0.000154172
0.000148012
0.000145427
0.0284499
0.0266129
0.00022777
0.0499868
0.000147364
0.000206119
0.0439131
0.000167506
0.000146157
0.0363954
0.000147188
0.000149192
0.000146416
0.000188882
0.000147889
0.000154365
0.000178864
0.0826822
0.000147233
0.0645702
0.00017197
0.000147986
0.000156724
0.000148168
0.000147277
0.000157948
0.000178746
0.000163372
0.0121316
0.000166477
0.000148159
0.000191819
0.0621143
0.0634818
0.0441188
0.000188133
0.000149686
0.000145426
0.000146856
0.000149021
0.000190826
0.000170265
0.000164445
0.000159971
0.000160855
0.000990002
0.000183978
0.000148132
0.000162394
0.00091597
0.000150342
0.0205957
0.000150917
0.00014844
0.0305671
0.000155889
0.00014995
0.000261226
0.000191565
0.000164228
0.0280451
0.000148033
0.000149995
0.000203391
0.0516654
0.000159631
0.000172388
0.000201407
0.000506532
0.0116055
0.000200424
0.000149331
0.000189739
0.000148322
0.000191113
0.000151196
0.0359118
0.000177034
0.00238756
0.000164247
0.000183692
0.00014524
0.00042276
0.000145604
0.0240813
0.000147728
0.000195713
0.000148239
0.0263332
0.000162013
0.000148475
0.000147431
0.000146361
0.0505679
0.0226364
0.0450535
0.000172172
0.000155306
0.000180695
0.000149784
0.000149907
0.0650994
0.000147446
0.000148299
0.00018748
0.000148124
0.000171835
0.000180695
0.00014827
0.000147887
0.000155656
0.000150176
0.000158936
0.0459888
0.000165308
0.000159171
0.000155846
0.000148187
0.000341892
0.000149454
0.000150271
0.000334964
0.0262604
0.000183019
0.0240745
0.000153841
0.000150207
0.0317746
0.000148574
0.0272822
0.00019319
0.000148424
0.0495723
0.000284414
0.000175019
0.000147392
0.000166028
0.0648394
0.000148442
0.000147676
0.000152593
0.00015162
0.00014902
0.000145985
0.000149956
0.0771259
0.0001552
0.0604755
0.000147993
0.000192053
0.00678978
0.000148084
0.000145641
0.000155057
0.000148764
0.000149988
0.000151192
0.000148595
0.000188253
0.000205526
0.000144745
0.064809
0.0597108
0.000158996
0.000189702
0.000441369
0.000154519
0.000164417
0.000159126
0.0614328
0.00015507
0.000173863
0.000148197
0.0122544
0.000168828
0.000179836
0.000193012
0.00823276
0.000154913
0.000147965
0.000173663
0.000562835
0.000149847
0.000206194
0.000149147
0.0401841
0.000150186
0.000147289
0.000146342
0.000148169
0.0598116
0.0438558
0.000148374
0.000216546
0.000157465
0.0626739
0.0278155
0.0118639
0.000663372
0.000148511
0.0700401
0.000180526
0.000148018
0.000172757
0.063724
0.0237739
0.000150953
0.000149959
0.000148155
0.00014451
0.0260432
0.000188013
0.0654662
0.0396019
0.000148536
0.000148845
0.000175266
0.000149861
0.000146679
0.000151152
0.000152043
0.000188651
0.000168502
0.000192325
0.0662561
0.000172798
0.000148287
0.000155445
0.000181915
0.0656313
0.000172829
0.00518743
0.000171616
0.000148409
0.000210321
0.0601133
0.000149533
0.000146163
0.000172368
0.0722273
0.000194691
0.000148128
0.025245
0.00801798
0.000779314
0.000145471
0.00480655
0.0144581
0.0492532
0.000153284
0.000149249
0.0499099
0.00014996
0.000198343
0.0335275
0.000204385
0.00931943
0.000183696
0.0368321
0.000179068
0.000148699
0.000149891
0.0341432
0.0538036
0.0126946
0.0200535
0.000148599
0.000198398
0.000149834
0.000173745
0.000184366
0.000184539
0.000148463
0.000153513
0.000204496
0.0636163
0.0368639
0.0114964
0.000165003
0.000159594
0.000209885
0.00014919
0.000146808
0.000147633
0.000157225
0.000182302
0.000148092
0.000183443
0.000146959
0.000148804
0.000147184
0.0665969
0.000149425
0.000149777
0.000174232
0.000172621
0.000144796
0.0230461
0.000148537
0.000147366
0.000171705
0.000159446
0.000155634
0.000150503
0.00309581
0.000159159
0.000161187
0.0583479
0.000161311
0.0430131
0.00015419
0.000188316
0.047157
0.021141
0.000146063
0.0616944
0.000318865
0.000145669
0.0371095
0.000148287
0.000147101
0.000167211
0.000147481
0.000175766
0.0644084
0.000145547
0.0404121
0.00014839
0.000165584
0.0540959
0.000144642
0.069218
0.000151592
0.000148541
0.000147637
0.000147629
0.000207983
0.000165736
0.0211434
0.000173107
0.0787929
0.000175074
0.000148108
0.000206979
0.0141857
0.00100502
0.000166244
0.000197484
0.000180703
0.000156356
0.000207651
0.000150132
0.00303376
0.000148074
0.00539502
0.000151228
0.000166339
0.00015569
0.000149595
0.0355967
0.000149956
0.000146712
0.0015347
0.000151616
0.000147203
0.000171001
0.000179817
0.000209213
0.000952363
0.0319338
0.0438357
0.00014879
0.000149308
0.0288383
0.000147821
0.000274901
0.000184632
0.000152733
0.000148295
0.000160315
0.000147944
0.000148366
0.000160472
0.000262859
0.000192308
0.000173172
0.000169647
0.000148798
0.000177784
0.0591259
0.000146996
0.000184683
0.000153316
0.0638219
0.000151056
0.059671
0.000148037
0.000346209
0.000149829
0.000182358
0.000148068
0.000156667
0.000163334
0.000144688
0.000147223
0.00014501
0.0533118
0.0086445
0.000164176
0.0724414
0.00014844
0.000169834
0.000158467
0.000214332
0.0309676
0.000164353
0.00014487
0.000180424
0.000146958
0.000148434
0.000158573
0.0269487
0.0813183
0.000413668
0.0136368
0.000165908
0.000150637
0.000147679
0.0017263
0.000147124
0.000943014
0.000158445
0.00014917
0.0698623
0.0829966
0.000148494
0.0261065
0.00015615
0.000193866
0.000169589
0.0240926
0.0828882
0.000354312
0.000147819
0.000144723
0.0661473
0.000148099
0.000147994
0.000159027
0.000148185
0.0534168
0.00020596
0.00017538
0.0715995
0.000172142
0.00019057
0.000153177
0.000147757
0.000144609
0.000146377
0.0254524
0.0224073
0.000229494
0.00014827
0.000144814
0.000163901
0.000147218
0.000167377
0.000153981
0.000669237
0.0668485
0.000183121
0.000211119
0.000245104
0.000147798
0.00020614
0.000147692
0.0336541
0.000318369
0.0430813
0.0310554
0.000152185
0.000160644
0.000825346
0.0712804
0.0448044
0.000161343
0.000183398
0.0382541
0.000148172
0.000209507
0.000239432
0.000191792
0.000148128
0.000148243
0.000168577
0.038648
0.000342386
0.000170759
0.000147937
0.000156014
0.000156128
0.0186832
0.000149405
0.000238627
0.000147257
0.000150151
0.000198729
0.000146997
0.000147977
0.000151398
0.000155459
0.00014766
0.000150085
0.000145536
0.0277848
0.000804933
0.0318917
0.000145994
0.000162862
0.000148013
0.000208603
0.000210275
0.000161257
0.000147282
0.000151575
0.000218687
0.000190621
0.000159729
0.0291684
0.000191562
0.000148094
0.000148543
0.0491659
0.00150348
0.000168729
0.000145264
0.012593
0.000148745
0.000164765
0.000145834
0.000421297
0.0548401
0.000146905
0.00014896
0.00123002
0.000148005
0.0450101
0.0257148
0.000177899
0.00014926
0.000149036
0.000145809
0.000148081
0.0110266
0.0123725
0.000186036
0.000150556
0.0418629
0.000147703
0.000147711
0.0703169
0.000146949
0.0688688
0.000144539
0.000156211
0.00015118
0.000147664
0.000147215
0.000148707
0.0428945
0.000150004
0.000149232
0.000172737
0.000168823
0.000147634
0.000172535
0.000162254
0.000148741
0.000182414
0.000147667
0.000161192
0.0598238
0.000191085
0.000147773
0.000213709
0.000186484
0.000179339
0.000155072
0.000178556
0.0294281
0.000153562
0.000175234
0.000147616
0.000145916
0.000147875
0.000173879
0.000162483
0.000174075
0.000148119
0.00015798
0.000180997
0.0208582
0.000209272
0.000147731
0.000146536
0.00015038
0.000175212
0.000146714
0.0264361
0.000147616
0.000148041
0.000146532
0.000187787
0.0698343
0.00014895
0.000152712
0.000147049
0.000185037
0.000146562
0.000148041
0.000611522
0.000149784
0.000146044
0.000148794
0.000187623
0.000146471
0.000147656
0.0624416
0.016323
0.00019591
0.000160982
0.0689332
0.000162978
0.000147599
0.000147457
0.0134179
0.000148041
0.000178933
0.000183285
0.000168188
0.000154756
0.000150206
0.000158117
0.000150347
0.000145299
0.000200061
0.0657149
0.000163391
0.000146406
0.0358864
0.000172527
0.0127471
0.00686943
0.000193178
0.000148862
0.000148208
0.0001481
0.000177897
0.000148763
0.000147203
0.079856
0.000173378
0.000173235
0.000147452
0.000170318
0.000219101
0.000148535
0.000154717
0.000161776
0.000171463
0.000179986
0.000148199
0.000151968
0.000166294
0.000146648
0.000165122
0.000149109
0.00246325
0.000173844
0.000189397
0.000147256
0.00016435
0.0719664
0.0454473
0.000348398
0.000168745
0.0228259
0.000148787
0.000147619
0.000150476
0.000180266
0.000149062
0.000151386
0.000157555
0.000178038
0.000147847
0.000147516
0.000148857
0.000149832
0.000434113
0.0189847
0.000452273
0.000147851
0.0228209
0.000156497
0.000148951
0.000164232
0.000148027
0.000181219
0.000150906
0.000147965
0.0554112
0.00852011
0.067413
0.000150234
0.0122635
0.000147965
0.0381171
0.058492
0.0001452
0.000177846
0.000208631
0.000145303
0.000147565
0.00883609
0.000149992
0.000147962
0.000195914
0.000559973
0.000148043
0.000161988
0.000148921
0.000155331
0.000190517
0.000149036
0.0633533
0.000171454
0.000147552
0.000481915
0.000167625
0.000181747
0.000149913
0.000220503
0.000148338
0.0648095
0.000147921
0.000146579
0.0624255
0.000145778
0.0693323
0.00014759
0.000172222
0.0450637
0.0662662
0.00014816
0.00014943
0.000148026
0.000151094
0.000156604
0.000154646
0.000144306
0.0114952
0.00014721
0.000148524
0.000187516
0.000180036
0.000163439
0.000148037
0.0102232
0.00018164
0.000149747
0.000158835
0.000147651
0.000147086
0.0584496
0.000145351
0.000146623
0.000147234
0.072783
0.000147875
0.000147188
0.0647721
0.000155424
0.0380968
0.000164486
0.000144526
0.000147024
0.00204708
0.000157791
0.000147991
0.0539187
0.0424233
0.000146458
0.0408903
0.00018863
0.000148552
0.000148466
0.000191139
0.000149431
0.0253825
0.000159812
0.000148072
0.000704655
0.0366132
0.000208117
0.00014757
0.025817
0.000157662
0.000185607
0.00104872
0.000147734
0.0217539
0.000147905
0.000157528
0.00015795
0.0637983
0.000145693
0.000150351
0.0238228
0.000149805
0.00015898
0.000145735
0.00014865
0.0386157
0.000179743
0.000153473
0.00016386
0.000520871
0.000149358
0.000151814
0.000173596
0.000190298
0.000156225
0.000147915
0.000147494
0.000148907
0.000150261
0.000146815
0.000159635
0.000156624
0.000499225
0.000147895
0.00785023
0.000148053
0.000160547
0.000147719
0.000160756
0.000148644
0.000147677
0.035973
0.0606592
0.00015292
0.000148541
0.0394178
0.000156664
0.0627736
0.000159392
0.000165552
0.0382574
0.00960668
0.0503995
0.000152144
0.000148865
0.000146535
0.0466496
0.000147278
0.000147987
0.000174208
0.000147273
0.000149186
0.000148304
0.0176362
0.000554623
0.000149154
0.000433625
0.0652544
0.000153574
0.000147412
0.000149019
0.0612466
0.000147238
0.000191407
0.000149915
0.000147723
0.000149183
0.000146376
0.000180991
0.000148542
0.000148284
0.00014722
0.000145425
0.00023042
0.000145212
0.000147421
0.000149313
0.000147982
0.000210226
0.0117521
0.000167378
0.000149841
0.000148402
0.000149237
0.000149459
0.0451054
0.000147971
0.00015898
0.000166824
0.0431067
0.000147532
0.000147386
0.0571558
0.000148742
0.000175505
0.000179877
0.00014983
0.0615407
0.0577615
0.000157281
0.0159277
0.000158595
0.00019245
0.000144679
0.0060742
0.000148196
0.00179497
0.000148214
0.000147226
0.000506964
0.000274022
0.000203096
0.000172141
0.000147345
0.0495394
0.000149123
0.0710797
0.000174098
0.000147366
0.000144746
0.000148539
0.000171087
0.000166644
0.0652839
0.000169836
0.000147644
0.000147402
0.000148521
0.0228972
0.000178996
0.000159245
0.000148896
0.000147355
0.000160415
0.000217532
0.000148655
0.000159341
0.000165468
0.00014795
0.000153368
0.000150922
0.000174944
0.000174931
0.000153431
0.000166599
0.00014572
0.00014795
0.0295361
0.000165654
0.000181491
0.000508137
0.000145318
0.0268614
0.002206
0.000162948
0.0689866
0.00014766
0.0580195
0.0601778
0.000187702
0.000146442
0.0836953
0.000191534
0.000147808
0.00016739
0.0486841
0.000149983
0.000147674
0.000164688
0.00014979
0.0262179
0.000157574
0.000149119
0.00014987
0.000147216
0.000165043
0.000165631
0.02682
0.000187031
0.0347954
0.000174217
0.000149715
0.000147678
0.000243711
0.0263515
0.000148023
0.0001477
0.000190611
0.000149276
0.000212289
0.0623081
0.02146
0.000148012
0.000148281
0.0726967
0.000146519
0.0653655
0.000219832
0.00014692
0.0595218
0.000174288
0.000167552
0.000147804
0.00639634
0.000148087
0.000369104
0.00014444
0.000172115
0.00015165
0.000145862
0.0719476
0.000151232
0.000148242
0.000152006
0.0357544
0.000148433
0.000145171
0.0313635
0.000147707
0.000146803
0.000148729
0.000156366
0.000148287
0.000149175
0.000156068
0.000149135
0.00015448
0.000145652
0.000187656
0.0262241
0.000172813
0.0358528
0.000160076
0.000154502
0.000147397
0.00014673
0.00014909
0.025711
0.0404626
0.000147865
0.000149837
0.000147493
0.0245779
0.000145114
0.000215407
0.000353426
0.0597949
0.0689489
0.0276959
0.0388482
0.000146766
0.0632148
0.0389716
0.0624367
0.000154649
0.000148938
0.00017152
0.000145695
0.0560624
0.000189109
0.000175232
0.000156827
0.0284391
0.000147958
0.000144321
0.0637534
0.000191054
0.00014805
0.000144555
0.000172292
0.000148718
0.0318825
0.0114191
0.0337705
0.0470551
0.000182306
0.000552422
0.000147969
0.000211917
0.000148658
0.000147911
0.000146648
0.0323979
0.000148772
0.00014726
0.000505845
0.0379202
0.000205532
0.000192322
0.000150758
0.00016514
0.0248223
0.0208316
0.0582311
0.0412934
0.000171657
0.0693734
0.000180472
0.000276613
0.000172588
0.00017114
0.000147414
0.000160767
0.000165002
0.00014822
0.050496
0.000146956
0.000148013
0.00014789
0.0699421
0.000153909
0.00014661
0.000147197
0.000147899
0.000176468
0.000169679
0.00048485
0.00015122
0.0299225
0.000144588
0.000147685
0.000181622
0.00016697
0.000144406
0.057556
0.000169795
0.0613407
0.000147758
0.0313117
0.000166632
0.000147639
0.000148293
0.000148005
0.0370589
0.065532
0.0152197
0.000147728
0.000149052
0.000144983
0.0616967
0.00015631
0.000148322
0.000300168
0.000147895
0.000150134
0.0400556
0.000146169
0.000147791
0.000148359
0.000149941
0.000144565
0.000150559
0.000144478
0.00014918
0.00018198
0.000166206
0.000146764
0.0225844
0.000153075
0.0649164
0.0191518
0.000165291
0.0623507
0.0617358
0.000147212
0.000170264
0.000148045
0.000147236
0.00167474
0.00015465
0.0460192
0.000155223
0.000193292
0.000148642
0.000151087
0.000147293
0.0611967
0.000161777
0.0386006
0.000149091
0.000187304
0.000160835
0.000146492
0.000166597
0.000169097
0.000144969
0.0675962
0.000148574
0.000169822
0.000147899
0.000157487
0.000166862
0.000200856
0.000155058
0.000181943
0.00489199
0.000160573
0.000170451
0.000146056
0.0697315
0.000173143
0.000149792
0.000175473
0.00233216
0.0133445
0.000147921
0.000151138
0.000149078
0.000145619
0.00014799
0.0454649
0.000159806
0.000148442
0.0248143
0.000148685
0.000145078
0.000154209
0.0644709
0.000149032
0.0231192
0.0572615
0.000169993
0.0297714
0.000150876
0.0617264
0.000290865
0.000145159
0.000160679
0.000148484
0.000150172
0.000167829
0.0140843
0.000177587
0.000389967
0.000200005
0.000147734
0.0509434
0.000147258
0.0605058
0.000149771
0.0402945
0.0486822
0.000149005
0.000147047
0.000149845
0.000164232
0.000181699
0.000147623
0.01518
0.00015205
0.000171835
0.000173526
0.000151128
0.000147349
0.0228905
0.000146552
0.000199722
0.000157197
0.0126361
0.000148762
0.000147657
0.0585587
0.000144228
0.000146222
0.000150121
0.000173351
0.000173037
0.00021076
0.000152514
0.00014641
0.000155207
0.000149456
0.000149671
0.0689254
0.000147533
0.000166804
0.0724019
0.000198896
0.000147837
0.000181718
0.000147763
0.000149336
0.000187423
0.000207392
0.000181959
0.000149558
0.000147815
0.000152929
0.000183251
0.000147608
0.000162894
0.000147715
0.000149192
0.000146809
0.000148953
0.0601478
0.000144765
0.0723294
0.000426018
0.000154122
0.000145836
0.0602726
0.0552542
0.000147105
0.000147811
0.0761235
0.000149132
0.000164646
0.000182912
0.000614284
0.000147383
0.000150334
0.000170363
0.00014785
0.0748418
0.000199911
0.000147237
0.000159215
0.000164298
0.000148493
0.000185544
0.000148958
0.000163293
0.000150706
0.000154336
0.000144575
0.000147717
0.000211926
0.000148008
0.0778036
0.000182405
0.000148358
0.000148302
0.000147719
0.000147349
0.0662985
0.000149795
0.000194731
0.000147229
0.00014716
0.000172484
0.0665603
0.000146304
0.000144846
0.00014796
0.00014982
0.000159911
0.000160238
0.0277783
0.000161291
0.000146753
0.000194226
0.0668556
0.000149006
0.000161938
0.0384376
0.000164471
0.000149604
0.00284975
0.000144608
0.0279969
0.000172499
0.000148319
0.000184328
0.000147638
0.000147689
0.000148291
0.0516841
0.000148446
0.00346109
0.065968
0.000287385
0.000162262
0.000147586
0.061859
0.000149838
0.0135569
0.000146311
0.000248784
0.000153986
0.000187503
0.000150094
0.0169559
0.00015986
0.00014945
0.0385739
0.0330172
0.000144866
0.00646595
0.000147751
0.000159115
0.000146867
0.00804207
0.000287184
0.000149151
0.000148269
0.059774
0.000185368
0.000146867
0.000151366
0.000148049
0.000146529
0.000146019
0.000152156
0.0266269
0.0270743
0.000149545
0.000178124
0.00015364
0.000182216
0.000147844
0.00819704
0.0376834
0.023728
0.000150256
0.0739272
0.0279414
0.000153199
0.000160734
0.000147374
0.000178443
0.0357445
0.000149324
0.000146005
0.000146392
0.000157833
0.00014501
0.000147853
0.000403189
0.000150808
0.000179906
0.000148499
0.000147634
0.000153555
0.000148146
0.000199051
0.0784838
0.000146376
0.000171401
0.000144911
0.0651679
0.000147252
0.000152417
0.0337668
0.000209289
0.000154334
0.0119971
0.000186794
0.000148341
0.000168041
0.00014874
0.000164186
0.000149525
0.000147355
0.000194415
0.000187784
0.0472408
0.000189288
0.000158726
0.0049631
0.000152713
0.000168426
0.000151114
0.0683732
0.0562346
0.0152341
0.000147865
0.000144475
0.0287815
0.0413959
0.00014879
0.0599909
0.000148853
0.000156712
0.000144336
0.000147697
0.000147571
0.000147328
0.000205591
0.00016105
0.000164039
0.000148027
0.000148053
0.000145332
0.000146687
0.000146577
0.000149727
0.00014743
0.0502163
0.0394401
0.0464397
0.000152024
0.0284008
0.000174017
0.0775951
0.0263143
0.00017388
0.000148651
0.000149195
0.000180899
0.000149416
0.0576681
0.0244608
0.000150071
0.000145755
0.000163463
0.0461172
0.000147809
0.0794502
0.000148025
0.00014857
0.0806683
0.000147666
0.000156162
0.000149025
0.0394016
0.000145791
0.00014793
0.000206534
0.000145713
0.000148261
0.000147604
0.000145777
0.000165573
0.000147636
0.00984992
0.00014799
0.000149395
0.000144483
0.027123
0.000161889
0.000148947
0.0699934
0.000148469
0.000145532
0.000209843
0.000478958
0.000148779
0.0830244
0.0680907
0.000156265
0.0397445
0.000148638
0.000148236
0.000189795
0.000146225
0.0508844
0.043371
0.00014439
0.000157751
0.00014756
0.0183862
0.00170649
0.000171034
0.00014889
0.000267413
0.000159532
0.00017316
0.000156595
0.000148049
0.000150636
0.000147655
0.000146678
0.0549263
0.000144055
0.000146678
0.000168632
0.0103902
0.000182226
0.0839225
0.000147944
0.000161888
0.000147844
0.000148586
0.000148695
0.000146348
0.000148952
0.000147473
0.000148574
0.000149075
0.000154329
0.000148006
0.000149167
0.000145793
0.0191141
0.0836727
0.000149414
0.000151125
0.0643905
0.000149346
0.000192607
0.0346534
0.00290838
0.0788594
0.000256091
0.0774349
0.00616605
0.0258343
0.000147567
0.000160188
0.000147514
0.000168993
0.000154028
0.000149448
0.000147141
0.0223553
0.000145822
0.000156705
0.0804057
0.000145534
0.000146806
0.000174292
0.000145803
0.000147654
0.000147482
0.000149571
0.0464249
0.0204589
0.000148088
0.000147958
0.000148265
0.000150381
0.000161686
0.000150594
0.00385723
0.000195419
0.00014924
0.0600631
0.000163381
0.000147869
0.0477117
0.000145645
0.000179167
0.000146334
0.000149441
0.000149359
0.0481411
0.000148003
0.000147565
0.000153563
0.000149639
0.000160614
0.000146893
0.017888
0.000166397
0.000162453
0.00943406
0.0727475
0.000188334
0.000164459
0.0613939
0.000148238
0.000147847
0.000155485
0.0466396
0.00017962
0.000168347
0.0246454
0.000147658
0.00114544
0.000202832
0.000589099
0.000147969
0.000159756
0.000147378
0.000188567
0.000158206
0.000264186
0.0714065
0.000147934
0.000163606
0.000155835
0.000147977
0.000319188
0.000147996
0.000162954
0.000175778
0.000181043
0.000147976
0.000149962
0.000149482
0.000172807
0.000147472
0.000149614
0.000147941
0.0001484
0.000146224
0.000160592
0.000144661
0.000297053
0.0459994
0.000149698
0.000146466
0.000145441
0.000163215
0.000159208
0.000148757
0.0347927
0.00016264
0.000146445
0.000146554
0.0676646
0.0466682
0.000147389
0.000198913
0.00015898
0.000147903
0.0240005
0.000154607
0.000175488
0.000149519
0.0363798
0.071327
0.00014968
0.000165413
0.039872
0.000162403
0.0145572
0.000149559
0.000153819
0.049664
0.0490392
0.000155373
0.000153659
0.000149749
0.00015263
0.000151713
0.0296643
0.0461533
0.0630218
0.000153338
0.000148003
0.0001768
0.000147696
0.000206495
0.000153737
0.0248613
0.000145772
0.000149195
0.000147257
0.000148226
0.000146796
0.000182341
0.0547979
0.000157666
0.000145365
0.000148595
0.0161448
0.000151618
0.000152278
0.000148956
0.000165181
0.0501953
0.000145804
0.00014755
0.00016863
0.000181991
0.000148664
0.000169016
0.000149413
0.000151864
0.00019338
0.000156334
0.0532073
0.00038203
0.000163109
0.0629958
0.000146875
0.000147648
0.000151024
0.0821636
0.000151077
0.00165243
0.000145847
0.0420426
0.000165105
0.000147289
0.000159805
0.000149161
0.0637458
0.000173335
0.000160807
0.000198929
0.000188736
0.000148934
0.000149286
0.000149485
0.000154961
0.0420214
0.000177328
0.000148594
0.000202591
0.000148046
0.0817307
0.000147984
0.0752956
0.00016001
0.083246
0.000291005
0.000165867
0.000148063
0.000147985
0.000146951
0.0717552
0.000148807
0.000175912
0.00399139
0.000144576
0.0254004
0.00015867
0.000147953
0.00018649
0.00014727
0.000147953
0.0390375
0.00780685
0.0299059
0.000147626
0.000146346
0.000150189
0.000154383
0.000151288
0.000148322
0.0391488
0.000186408
0.0209951
0.000150332
0.000163648
0.000554882
0.000234234
0.000157322
0.000146506
0.0251181
0.000150632
0.0444618
0.000147616
0.000148024
0.000147886
0.000146301
0.000144566
0.000149848
0.000146385
0.000159654
0.0427452
0.000165113
0.043923
0.000153411
0.000149342
0.000148747
0.000200328
0.000148076
0.000150312
0.000148143
0.0341117
0.00910766
0.000146362
0.000153584
0.000147323
0.000147919
0.000149841
0.000148286
0.0001476
0.000272795
0.00014913
0.000147206
0.000189641
0.000146928
0.0278566
0.000183486
0.00018944
0.000201998
0.000153962
0.000148406
0.0643109
0.000148445
0.000186649
0.000161938
0.000146734
0.00016884
0.000148302
0.0802875
0.00014556
0.000147472
0.0683485
0.000173549
0.023055
0.000146149
0.000183955
0.000190908
0.000158281
0.0600919
0.000147021
0.000146409
0.000145653
0.000171783
0.000150364
0.000343771
0.000147886
0.000170193
0.0460221
0.000203182
0.000147992
0.000237716
0.000153509
0.0268768
0.000151481
0.000152978
0.00015371
0.0374808
0.000147916
0.000149728
0.0645867
0.000145553
0.000154393
0.000147107
0.000161943
0.0641748
0.0342958
0.000147441
0.000169681
0.000147902
0.000225188
0.000148032
0.000149571
0.000190104
0.00904767
0.000162417
0.000147792
0.000153804
0.0106938
0.000171983
0.000182541
0.0738525
0.000147986
0.0237681
0.000157506
0.000193126
0.00014773
0.000154876
0.0743506
0.00015364
0.000147319
0.000213748
0.0263673
0.0689262
0.00014594
0.0560506
0.000347735
0.00014632
0.000192363
0.0231898
0.00014984
0.000151683
0.0314337
0.000144443
0.000149382
0.000146667
0.000148594
0.000188142
0.000182044
0.000167683
0.0380456
0.000149788
0.000163609
0.000156547
0.000148944
0.000151155
0.000167333
0.000148056
0.000149471
0.0679286
0.0450664
0.0244981
0.00014634
0.00016605
0.000148828
0.0505126
0.000148525
0.000166991
0.048746
0.0189573
0.00016537
0.000148348
0.00451074
0.0394621
0.000323775
0.000147836
0.000148754
0.000146866
0.0766057
0.000165952
0.000194037
0.0794113
0.000148368
0.00014935
0.041791
0.000156089
0.00018108
0.000149103
0.000147558
0.000148027
0.000557833
0.000148474
0.000177232
0.000147026
0.000148649
0.000146436
0.048483
0.0433054
0.000151874
0.000226361
0.000150829
0.000287218
0.000147476
0.000147301
0.000183599
0.000148641
0.000147652
0.000153587
0.000174768
0.000160415
0.000187332
0.000148289
0.000178865
0.0685918
0.000148766
0.000149265
0.000148471
0.0660493
0.000165696
0.000162252
0.000183677
0.000146807
0.000148138
0.000173847
0.000156942
0.00384069
0.0842585
0.00016191
0.0490953
0.01412
0.0409228
0.000175673
0.00014927
0.000147834
0.000208583
0.0660962
0.000147134
0.000161897
0.0344093
0.000148612
0.000200839
0.000355568
0.000190891
0.000147713
0.000190209
0.00014888
0.000148602
0.000146454
0.000210846
0.00014869
0.000180017
0.000170073
0.000147714
0.000149168
0.0160691
0.000147114
0.000145205
0.000172516
0.000388422
0.000167794
0.000147985
0.000162964
0.00802096
0.0610098
0.000159593
0.0210289
0.000185123
0.000178665
0.000168214
0.000149039
0.000173007
0.000157962
0.000145792
0.0001469
0.000149278
0.000156873
0.000211412
0.0458456
0.000149404
0.00873471
0.000173745
0.000800513
0.047753
0.00020988
0.0499123
0.000190853
0.0442787
0.000171535
0.0468434
0.000177788
0.000147957
0.000148538
0.0835458
0.0616787
0.000188592
0.0425489
0.000147012
0.0314211
0.0442539
0.000148083
0.000145364
0.000163614
0.000176943
0.0373031
0.0254523
0.000179697
0.000146924
0.000147328
0.000149401
0.0767085
0.00015362
0.0601648
0.000155082
0.0488075
0.000201025
0.037639
0.000159042
0.0633969
0.000146665
0.000145168
0.000154225
0.000149029
0.0643333