/*--------------------------------*- C++ -*----------------------------------*\
| =========                 |                                                 |
| \\      /  F ield         | OpenFOAM: The Open Source CFD Toolbox           |
|  \\    /   O peration     | Version:  v2012                                 |
|   \\  /    A nd           | Website:  www.openfoam.com                      |
|    \\/     M anipulation  |                                                 |
\*---------------------------------------------------------------------------*/
FoamFile
{
    version     2.0;
    format      ascii;
    class       surfaceVectorField;
    location    "600";
    object      Uf;
}
// * * * * * * * * * * * * * * * * * * * * * * * * * * * * * * * * * * * * * //

dimensions      [0 1 -1 0 0 0 0];


internalField   nonuniform List<vector> 
27284
(
(0.927736 0.189526 0)
(0.928878 0.178929 1.35429e-21)
(0.919737 0.1828 0)
(1.00874 -0.00017488 1.1354e-22)
(1.00884 -0.000195731 3.61581e-22)
(1.00883 -0.000189917 -2.40113e-23)
(1.16153 0.0697447 -1.0726e-21)
(1.16246 0.0775064 5.21753e-21)
(1.15543 0.0746606 3.79396e-21)
(1.01103 0.00103661 7.7501e-23)
(1.01108 0.00112352 6.24485e-23)
(1.01113 0.00102597 6.80612e-22)
(0.99192 0.0105205 -9.37473e-22)
(0.989561 0.00754403 -9.84382e-22)
(0.993571 0.00655175 2.35492e-21)
(0.981778 -0.101335 0)
(0.971559 -0.0974965 0)
(0.974742 -0.111414 -1.44261e-22)
(1.0133 0.00021581 3.8352e-22)
(1.01308 0.000365476 -3.24233e-22)
(1.01345 0.000405747 -3.77299e-22)
(0.991364 0.0144888 -1.1258e-21)
(0.99517 0.0125666 0)
(1.00462 2.35948e-05 -6.63588e-23)
(1.00577 0.000148024 0)
(1.00501 9.72776e-05 7.93698e-22)
(1.085 0.0395624 -6.55884e-22)
(1.07839 0.0350728 -3.72534e-22)
(1.07504 0.0530313 -2.3487e-21)
(1.01425 0.00222875 1.34288e-21)
(1.01379 0.00333482 1.04734e-21)
(1.015 0.00287392 1.26566e-21)
(1.09611 0.0369905 -2.51732e-21)
(1.0954 0.0376069 4.97575e-21)
(1.09634 0.0379275 -6.54978e-21)
(1.09695 0.0363409 -4.70156e-21)
(1.09581 0.0359823 -2.86872e-21)
(0.899494 0.113089 -5.84381e-22)
(0.908089 0.12426 0)
(0.913486 0.10856 -3.85782e-22)
(1.00698 0.000197469 -5.76057e-23)
(1.00747 0.000221447 -1.23686e-22)
(1.00724 0.000195532 4.13374e-22)
(1.00978 -0.000323245 -5.54135e-22)
(1.00964 -0.00031327 -2.85579e-22)
(1.00977 -0.000296544 2.36612e-22)
(1.01099 0.000940399 -1.53227e-21)
(1.01093 0.00102848 -7.04824e-22)
(1.02063 0.00539649 2.08247e-21)
(1.02128 0.00539471 3.2861e-21)
(1.02081 0.00593714 1.68976e-21)
(1.10174 0.146682 -6.4995e-22)
(1.096 0.151968 -2.09438e-21)
(1.09477 0.144038 -3.49688e-21)
(1.01032 0.00497397 -2.49427e-22)
(1.01066 0.00528245 2.07395e-21)
(1.0107 0.00467678 6.34172e-22)
(0.781355 0.0286863 3.47392e-21)
(0.802225 0.0272405 0)
(0.789446 0.041165 0)
(1.0224 0.0114124 2.49031e-22)
(1.02202 0.0111539 -3.07185e-22)
(1.02199 0.0116654 -4.64281e-22)
(1.00786 -9.09904e-07 -6.36216e-22)
(1.00793 -1.88051e-05 -6.92834e-22)
(1.00786 -1.28852e-05 2.92809e-22)
(0.991248 -0.102096 3.09169e-24)
(0.990958 -0.0906059 1.43639e-22)
(1.00786 1.23915e-05 -8.35011e-22)
(1.0078 1.41544e-05 -9.74012e-22)
(1.01371 0.00203938 -4.53776e-22)
(1.01365 0.00233735 -4.54637e-22)
(1.01396 0.00212182 7.52903e-22)
(1.01318 6.86649e-05 9.5912e-22)
(1.01304 -0.000117441 6.27015e-22)
(1.01276 0.000134313 -1.14863e-21)
(1.01144 0.00190409 0)
(1.01157 0.0019611 -6.92798e-22)
(1.0115 0.00201666 -7.17802e-22)
(1.00299 -5.64746e-06 -9.88719e-22)
(1.00435 2.69832e-06 -3.22321e-22)
(1.01562 0.000189642 -7.83662e-22)
(1.01486 0.00115551 2.05134e-23)
(1.01624 0.00104738 9.3198e-23)
(0.963293 -0.273397 0)
(0.950905 -0.26832 4.11947e-21)
(0.965794 -0.257053 -3.92406e-21)
(0.970504 0.00112455 2.81448e-21)
(0.972967 0.00445349 0)
(0.968572 0.00538559 0)
(1.01144 -0.000270731 8.71773e-23)
(1.01149 -0.000280538 4.80685e-22)
(1.01158 -0.000260096 6.07487e-22)
(1.00926 -0.000120571 4.66526e-22)
(1.00922 -0.000128922 8.20198e-22)
(1.00913 -0.000119422 -1.78055e-22)
(1.0065 -7.79273e-05 -3.03497e-23)
(1.00645 -9.30362e-05 -1.37133e-23)
(1.00495 -7.82814e-05 -3.38833e-23)
(1.01145 0.00530992 -4.01424e-22)
(1.01169 0.00533489 1.64383e-21)
(1.01151 0.00560947 5.20199e-23)
(1.0445 0.0334204 9.94185e-22)
(1.04561 0.0330758 -2.05676e-21)
(1.04452 0.0323634 -1.49195e-21)
(1.01138 0.00500897 -1.8754e-21)
(1.01113 0.00528809 -9.17069e-22)
(1.01646 -0.000793556 0)
(1.01485 -0.000791247 0)
(1.01717 0.00778812 0)
(1.01718 0.00784661 -4.43257e-22)
(1.01713 0.00769014 0)
(1.01378 0.000176208 -1.65115e-22)
(1.01368 0.000195281 9.39443e-24)
(1.01207 0.000125109 -3.29076e-24)
(1.01336 0.00146352 -2.25559e-22)
(1.00929 -0.000116681 -4.05283e-22)
(1.00933 -0.000114907 -5.8074e-22)
(1.00921 -0.000111202 7.80878e-22)
(1.00864 -0.000156197 0)
(1.00855 -0.000138707 -2.61094e-22)
(1.00863 -0.000151348 5.11887e-22)
(1.00865 -0.000161036 -1.03578e-21)
(1.0872 0.0172251 6.64457e-22)
(1.08743 0.0192486 -7.72843e-21)
(1.08522 0.0189394 -4.17347e-21)
(1.01118 0.00266493 1.63124e-22)
(1.01129 0.0027398 -1.15829e-21)
(1.01126 0.00276211 -5.91439e-22)
(1.01106 0.00258758 4.38611e-23)
(1.01109 0.00256835 7.42858e-22)
(0.979436 -0.273808 0)
(1.01088 0.00208577 -3.0596e-22)
(1.01085 0.00192198 1.12264e-21)
(1.0109 0.00208119 -2.92591e-22)
(1.00666 -6.56895e-05 -7.26663e-22)
(1.00599 -3.32987e-05 8.37031e-22)
(1.00602 -2.07662e-05 -2.92018e-22)
(0.662863 0.202617 -1.56231e-22)
(0.677761 0.192009 -8.74045e-22)
(0.678375 0.21466 3.48418e-21)
(1.01082 0.00210687 5.32527e-22)
(1.01092 0.00226823 2.58996e-22)
(1.01646 0.149753 0)
(1.0197 0.154435 -2.22449e-22)
(1.02299 0.147445 2.14656e-21)
(1.01627 0.0031185 0)
(1.01627 0.00296498 0)
(1.01607 0.00299476 4.341e-24)
(1.0099 0.00461901 -1.17594e-21)
(1.00975 0.00531527 9.19113e-22)
(1.00601 -0.000111577 -3.61134e-24)
(1.00503 -5.11805e-05 -1.74559e-22)
(1.00508 -5.36183e-05 2.07761e-22)
(0.884476 -0.300719 5.73716e-21)
(1.01373 0.00179736 0)
(1.01341 0.00209086 3.29885e-22)
(0.892033 0.0161537 -3.11123e-21)
(0.84933 0.0153888 -4.92682e-21)
(0.83698 0.0209007 1.16108e-21)
(1.00939 -0.000122441 -2.00509e-23)
(1.09535 0.050052 6.35712e-21)
(1.09525 0.0485899 -4.9688e-21)
(1.09378 0.0495113 -9.60782e-22)
(1.01312 0.143266 0)
(1.00928 0.150427 6.54815e-22)
(1.01742 0.00119815 4.5675e-22)
(1.0172 0.000739301 -2.60082e-22)
(1.01666 0.000999427 -1.03935e-21)
(0.95224 0.0207529 -2.22921e-21)
(0.949566 0.0256758 9.1424e-22)
(0.955757 0.0245773 -1.35808e-21)
(1.00651 -7.59649e-05 8.21209e-23)
(1.00719 -9.7341e-05 1.4025e-22)
(1.007 -0.000107624 -2.56355e-22)
(1.02113 0.0211293 0)
(1.02187 0.0211239 -2.03009e-22)
(1.02147 0.0220595 0)
(1.04352 0.0338424 -3.35604e-22)
(1.04456 0.0346516 2.03221e-21)
(1.00944 -0.000262272 -3.33515e-22)
(1.0094 -0.000287837 7.43396e-22)
(1.00932 -0.000260234 5.06093e-23)
(1.09516 0.0623185 4.2921e-22)
(1.10057 0.0601679 5.79793e-21)
(1.09508 0.0802458 -3.12195e-21)
(1.01068 0.00126997 -3.23587e-22)
(1.01077 0.00127307 1.29332e-21)
(1.01068 0.001344 6.24433e-22)
(1.01628 0.00321402 -3.06042e-24)
(1.01646 0.003198 2.67648e-23)
(0.983025 0.00795628 -1.23512e-21)
(0.981546 0.00494919 1.30263e-22)
(0.985245 0.00516606 -2.1077e-21)
(1.02439 0.0064121 -3.22761e-22)
(1.02356 0.00600365 1.09808e-21)
(1.0234 0.00686457 7.84899e-24)
(0.971373 -0.0378558 -1.05228e-21)
(0.961605 -0.0372548 -6.52418e-22)
(0.972762 -0.0299691 -6.08178e-21)
(1.0095 -0.000212718 -2.54135e-22)
(1.00947 -0.000237768 -8.33532e-22)
(1.00937 -0.000210927 -4.39615e-22)
(0.88846 -0.298764 -3.08525e-21)
(0.884514 -0.292214 3.86314e-21)
(1.00953 -0.000193516 -3.03744e-22)
(1.00964 -0.000217084 -1.97439e-22)
(1.01058 0.00127014 -1.5832e-21)
(1.01067 0.0012018 -6.32548e-22)
(0.971961 -0.0462776 -1.47926e-22)
(0.980862 -0.0386788 1.29091e-21)
(1.02027 0.0213034 0)
(1.0207 0.0203745 0)
(0.999612 -0.0572067 3.48373e-21)
(0.991847 -0.0648555 -1.28106e-21)
(0.991465 -0.0548472 7.18234e-22)
(1.00956 -0.000267605 -7.68929e-22)
(1.01654 0.022118 -6.72513e-24)
(1.01692 0.0230248 -4.42721e-24)
(1.01595 0.0229562 -3.59469e-23)
(0.994651 0.0642784 -3.12493e-22)
(0.995085 0.0676401 3.45454e-23)
(0.991783 0.0654008 -5.35711e-22)
(1.00411 5.27623e-05 4.59358e-22)
(1.004 -9.14572e-06 5.90326e-22)
(1.00278 9.24254e-06 3.76317e-22)
(1.00793 0.000314564 4.55027e-22)
(1.00685 0.000253016 0)
(1.00662 0.000238716 -4.77673e-22)
(1.01365 0.0591546 -3.43564e-22)
(1.01574 0.0578478 1.08384e-22)
(1.0158 0.0605688 -1.75945e-22)
(1.0103 0.00187388 1.99728e-22)
(1.01022 0.00180254 -1.74515e-21)
(1.0102 0.00181003 -1.03935e-21)
(1.01155 0.0575464 2.75242e-22)
(1.01121 0.0602776 -2.44958e-22)
(0.815392 0.245818 8.62275e-21)
(0.821443 0.25439 0)
(0.829234 0.000818322 2.98257e-21)
(0.844676 -0.00661574 1.59986e-21)
(0.8441 0.00964706 -1.82503e-21)
(1.00872 -0.0569535 6.15958e-22)
(1.00887 -0.0487847 1.04518e-21)
(1.01085 0.00177867 -4.86464e-23)
(1.01081 0.00176477 4.4414e-22)
(1.01377 0.178982 5.39461e-22)
(1.03276 0.167225 3.37471e-22)
(1.01246 0.155778 1.62169e-23)
(1.01472 0.00236969 -5.91564e-22)
(1.01448 0.0027356 -9.90433e-23)
(1.01518 0.00298602 -5.15492e-22)
(1.00992 0.00170581 -8.69869e-22)
(1.00992 0.00170105 -5.58702e-22)
(1.00983 0.00162327 2.76865e-22)
(1.01494 0.00199959 -5.71774e-22)
(1.01436 0.00188119 -9.14307e-22)
(1.06632 0.0936585 -7.93041e-23)
(1.06616 0.0978003 -3.09822e-21)
(1.06271 0.0943484 -7.88034e-22)
(1.02074 0.0104171 4.18775e-23)
(1.02103 0.0106232 1.19025e-22)
(1.02075 0.0107724 2.81275e-22)
(0.994951 0.0613476 4.73912e-22)
(0.998194 0.0635212 3.34961e-22)
(1.01048 0.00126497 -3.19316e-22)
(1.0105 0.00133436 -5.87498e-22)
(1.01086 0.00165822 -2.748e-21)
(1.01085 0.00181419 -2.23963e-21)
(1.01098 -0.000629215 0)
(1.01104 -0.000683804 8.38303e-23)
(1.01094 -0.000640312 0)
(1.01961 0.0213538 1.54095e-22)
(1.01879 0.0213725 -1.758e-22)
(1.01925 0.0205717 1.65641e-22)
(1.00994 -0.000342019 -1.57613e-22)
(1.0098 -0.000355881 8.85593e-22)
(0.948119 0.0168184 0)
(0.954747 0.0158218 0)
(0.994044 0.186796 1.31805e-21)
(1.01351 0.201195 0)
(1.03042 0.0476882 8.64137e-22)
(1.02944 0.048949 6.64812e-22)
(1.0315 0.0491052 -6.37719e-23)
(1.00959 -0.000204887 9.79582e-22)
(1.0097 -0.000188666 -6.67702e-22)
(1.00954 -0.000180191 0)
(1.00679 -0.000123495 -1.96314e-22)
(1.00678 -0.000136361 2.50687e-22)
(1.00452 -4.06657e-05 2.59459e-22)
(1.00322 -2.78902e-05 1.64401e-22)
(1.00448 -4.83317e-05 -5.80031e-23)
(1.00074 -0.00101965 1.1037e-21)
(0.998583 -0.000860384 -5.0532e-22)
(1.00068 0.00125271 1.69316e-21)
(1.01621 0.0211887 7.25243e-24)
(1.01708 0.0213098 -9.34219e-24)
(1.10215 -0.000859961 3.93853e-22)
(1.11242 0.00168392 0)
(1.10217 0.000654276 -3.16114e-21)
(1.00417 0.0130241 -4.01266e-22)
(1.00505 0.0140934 -5.50681e-23)
(1.00555 0.0127174 4.23452e-22)
(1.01038 0.00125094 6.1588e-22)
(1.01046 0.00119199 2.82739e-22)
(0.972048 -0.0554762 1.97291e-21)
(0.95923 -0.0561855 -1.0898e-21)
(1.01934 0.0159388 3.78366e-23)
(1.01879 0.0159309 3.21808e-23)
(1.01906 0.0153563 4.81226e-23)
(1.02259 0.0207592 5.82572e-22)
(1.02283 0.0215753 -1.7117e-22)
(1.08491 0.0629032 4.60318e-21)
(1.09347 0.0499453 3.70969e-23)
(1.15896 0.0639974 -9.35223e-22)
(1.16732 0.0657705 -6.22249e-21)
(0.798218 0.215117 -2.07952e-21)
(1.01149 0.06628 3.32639e-22)
(1.00904 0.0681037 -5.24536e-23)
(1.01222 0.0697594 2.45029e-22)
(0.974717 -0.0646546 8.11604e-21)
(0.980735 -0.0540735 6.08933e-21)
(1.09152 0.0128729 1.24311e-21)
(1.09072 0.0105011 -4.68765e-21)
(1.09337 0.0106567 -1.87987e-21)
(1.01367 -7.4012e-06 6.00238e-22)
(1.01095 0.000844159 -2.18351e-22)
(1.01105 0.000853285 -9.44978e-22)
(0.926852 0.199789 -2.1221e-22)
(0.936627 0.195665 -8.79686e-23)
(1.02146 0.00880046 -4.31816e-23)
(1.02157 0.00908118 -3.56676e-22)
(1.02122 0.00895137 -3.53034e-22)
(1.00993 0.00170452 2.85547e-23)
(1.01002 0.00178517 -2.50381e-22)
(0.648473 0.205795 4.22732e-21)
(0.647046 0.182561 1.46186e-21)
(1.01556 0.00472554 1.9243e-22)
(1.01542 0.00456762 -1.10676e-23)
(1.01561 0.00466509 0)
(1.0856 0.0748459 4.51265e-21)
(1.0882 0.0740564 6.10991e-21)
(1.08706 0.0769895 -2.4803e-21)
(0.952299 0.0938859 1.24962e-21)
(0.956662 0.0929403 4.30167e-22)
(0.954542 0.0987237 1.14816e-21)
(1.0102 0.00173207 -3.23529e-22)
(1.01028 0.00179272 6.54103e-22)
(1.01031 0.00179025 6.88011e-22)
(1.10775 0.148252 -7.89735e-22)
(1.10601 0.140837 2.04394e-21)
(1.05716 0.102118 5.5182e-21)
(1.07152 0.0993138 -3.35618e-21)
(1.06493 0.116256 4.33729e-23)
(1.01268 0.000791998 9.19332e-23)
(1.01281 0.00084408 2.73179e-22)
(1.01274 0.00092932 -4.55905e-23)
(0.815554 0.0152853 2.60294e-21)
(0.811262 -0.00111705 3.34437e-21)
(1.03485 0.0286921 1.88622e-21)
(1.03535 0.0280056 -7.8515e-22)
(1.03569 0.0291031 2.10108e-21)
(1.00712 -0.0219662 8.0602e-22)
(1.01135 -0.0216573 3.62155e-22)
(1.00943 -0.0262272 3.36937e-22)
(1.01088 0.00257227 -2.47059e-22)
(1.0108 0.00248242 -1.52752e-22)
(1.0108 0.00249157 -2.83806e-22)
(0.728157 0.252136 -1.67386e-21)
(0.710727 0.248772 1.51128e-21)
(0.949242 0.0883792 9.86936e-22)
(0.946427 0.0947079 1.18503e-21)
(1.01398 0.000286294 2.00516e-23)
(1.01446 0.000311962 -5.76653e-23)
(1.01434 0.000339247 2.1871e-23)
(0.80233 0.00654767 7.72245e-22)
(0.789644 0.00263755 -1.10838e-22)
(0.847633 0.00500438 5.7416e-22)
(1.01345 -0.00209717 -2.622e-23)
(1.01322 -0.00204934 2.60899e-23)
(1.01328 -0.00198288 -3.59697e-23)
(1.00094 -0.0035295 2.53621e-21)
(1.00275 -0.00136872 5.14198e-22)
(1.02474 -0.0894588 0)
(1.01217 -0.100505 0)
(1.01695 -0.108073 -2.1656e-23)
(1.01137 0.00180514 3.38437e-22)
(1.01131 0.00185613 4.71993e-22)
(1.02326 0.0204667 8.3231e-22)
(1.02241 0.0201091 8.42049e-22)
(1.01682 -0.00329311 -4.79532e-22)
(1.0161 -0.00327382 5.1943e-22)
(1.01626 -0.00280057 5.18891e-22)
(1.0185 -0.00729927 9.66273e-22)
(1.01725 -0.00856465 3.27129e-22)
(1.01688 -0.00670993 1.1232e-21)
(1.00945 -0.000115848 -1.84458e-22)
(1.00936 -0.000116074 2.13314e-22)
(1.00734 2.9314e-05 1.15168e-23)
(1.00747 2.65211e-05 -2.93444e-22)
(1.00747 3.25129e-05 2.96494e-23)
(1.01084 0.0008293 5.80931e-22)
(1.01086 0.000723859 1.9666e-22)
(1.00421 1.92753e-05 -1.65648e-21)
(1.00495 -0.000105012 0)
(1.01095 0.00262069 -3.53656e-22)
(1.01097 0.00263686 0)
(1.0071 2.69792e-05 -6.0018e-22)
(1.00708 1.45894e-05 -2.69648e-23)
(1.01939 0.00456353 1.20661e-21)
(1.02003 0.00435642 0)
(1.01958 0.00385971 2.12123e-23)
(1.01552 0.00477534 -2.47263e-22)
(1.0157 0.00487267 1.8053e-22)
(1.00966 -0.000229106 2.55025e-22)
(1.00951 -0.000219207 4.19552e-22)
(1.01542 -0.0138282 -7.39212e-22)
(1.01295 -0.0147169 5.47782e-23)
(1.01361 -0.0120299 -1.19163e-21)
(1.02243 0.00409041 -1.17108e-21)
(1.02337 0.00421196 -1.15732e-21)
(1.02305 0.00322024 -2.98949e-22)
(1.0681 0.0110385 3.75965e-22)
(1.07539 0.00906946 -1.23633e-21)
(1.07097 0.000706192 2.35746e-22)
(0.810901 0.0120745 -5.00269e-21)
(0.75411 0.0100614 -9.35866e-23)
(0.898869 0.191751 4.30194e-22)
(0.888233 0.195925 -5.33481e-22)
(0.891224 0.183772 -5.29249e-22)
(0.804445 -0.32153 -8.40758e-21)
(0.783808 -0.309562 -7.70407e-21)
(0.806919 -0.335569 4.04662e-22)
(1.03417 0.0295653 8.25575e-23)
(1.03389 0.0283729 8.41764e-22)
(1.00482 -5.6031e-05 4.26226e-22)
(1.00487 -5.96875e-05 -1.19293e-22)
(1.00344 -3.87368e-05 -8.39875e-22)
(1.08405 0.0721452 1.79032e-21)
(1.08249 0.0749485 -1.20329e-21)
(1.00433 -2.31996e-05 3.49466e-22)
(1.00436 -3.9115e-05 -4.09654e-23)
(1.00291 -2.5498e-05 3.21062e-22)
(0.996266 -0.264894 0)
(0.998665 -0.254487 1.54321e-21)
(1.00563 -0.000101121 3.93344e-24)
(1.00568 -9.96513e-05 0)
(1.00425 -5.05966e-05 -3.46169e-22)
(1.01334 0.000218396 -9.65696e-25)
(1.01318 0.000221103 0)
(1.00444 -2.95202e-05 8.18354e-23)
(1.00544 -9.30795e-05 2.89453e-23)
(1.01167 -0.00111529 0)
(1.01178 -0.0011262 1.03189e-23)
(1.0118 -0.00118511 -4.93606e-23)
(1.03775 0.0125282 1.04031e-23)
(1.03856 0.0127714 -2.07077e-22)
(1.03792 0.0131505 -1.76633e-22)
(1.00653 0.0280922 -8.89241e-22)
(1.00786 0.0287638 3.96591e-22)
(1.00636 0.0296836 -1.86476e-22)
(1.00403 -1.30609e-05 -2.41946e-23)
(1.00406 -2.6294e-06 1.95392e-22)
(1.00273 -2.01384e-05 5.38094e-22)
(1.06202 0.0116522 1.42918e-22)
(1.06442 0.0204356 2.26631e-21)
(1.02196 0.0104524 0)
(1.02159 0.0102677 -2.85042e-22)
(1.02187 0.0100457 3.9739e-22)
(1.0118 0.00236631 1.73492e-22)
(1.01192 0.00243135 1.68543e-22)
(1.01185 0.00231326 -8.41202e-22)
(1.05544 -0.00208637 -4.75241e-23)
(1.05099 -0.000419887 0)
(1.0518 -0.0067353 0)
(1.01087 0.00154382 7.89939e-25)
(1.01088 0.0015002 -1.02081e-22)
(1.00473 2.20623e-05 1.26075e-21)
(1.00429 -3.08204e-05 4.95392e-22)
(1.00545 4.57369e-05 8.64763e-22)
(1.00963 0.0556503 1.6309e-22)
(1.00711 0.0564885 8.52803e-24)
(1.00774 0.0537508 2.81878e-23)
(1.01607 0.000865745 -7.05783e-23)
(1.01603 0.000764938 1.13087e-22)
(1.0159 0.000826798 0)
(1.01337 -0.000407114 6.05796e-22)
(1.0129 -0.000254731 -2.52012e-22)
(1.08905 0.015298 9.29376e-21)
(1.09144 0.0154921 1.84708e-21)
(1.06723 0.0900484 1.17548e-21)
(1.06996 0.0936172 0)
(1.00896 -0.000223285 -7.76643e-22)
(1.00886 -0.000205435 -7.32445e-22)
(1.00887 -0.000204161 6.33247e-22)
(1.0106 -0.000582114 -2.90184e-22)
(1.01065 -0.000549896 -4.04003e-22)
(1.01075 -0.000583933 1.08251e-22)
(1.01529 0.000164964 0)
(1.01519 0.000147339 -8.86801e-23)
(1.01529 0.000119302 3.97214e-23)
(1.09663 -0.00221059 -6.6539e-22)
(1.11749 0.00341067 -2.4683e-21)
(1.10394 -0.00246255 2.01685e-21)
(1.00718 -4.79331e-05 -3.6848e-22)
(1.00715 -7.69054e-05 3.27721e-22)
(0.904199 0.221552 3.19872e-22)
(0.905436 0.210278 -1.44319e-21)
(0.89438 0.215286 2.13595e-22)
(1.00885 -0.000201783 -2.51632e-22)
(1.00895 -0.000218169 -1.55596e-23)
(0.877996 0.116945 -7.61355e-22)
(0.889243 0.100128 -1.47873e-21)
(1.01089 0.00144799 4.84228e-22)
(1.01085 0.0015868 9.9265e-22)
(1.01973 0.00862908 -4.44574e-22)
(1.01999 0.00830836 2.65353e-22)
(1.01947 0.00824678 1.05047e-23)
(1.01756 -0.00179258 0)
(1.01798 -0.000717117 0)
(1.00413 -3.8344e-05 2.4098e-22)
(1.00449 -1.54777e-05 -1.99859e-22)
(1.00526 1.61559e-05 -8.33283e-22)
(0.909538 0.186967 1.20889e-21)
(0.90727 0.199227 -2.85958e-22)
(1.02168 0.00768668 3.36994e-22)
(1.02181 0.00748622 0)
(1.02203 0.00774096 2.67196e-22)
(0.818591 -0.317945 3.41799e-21)
(0.802151 -0.303218 3.80889e-21)
(1.01175 0.00239304 -2.44031e-23)
(1.0117 0.00227911 7.10829e-22)
(1.01134 -0.000242277 -1.85515e-22)
(1.0112 -0.000239796 4.24105e-22)
(1.0113 -0.000224391 6.14515e-22)
(1.01484 -0.00404411 -8.17661e-22)
(1.01422 -0.0037969 7.62837e-23)
(1.01459 -0.00351773 -2.52559e-23)
(1.01835 0.00797302 -2.92636e-26)
(1.0183 0.00777423 8.00017e-23)
(1.01817 0.00781914 8.89969e-23)
(1.03777 -0.0524432 4.52359e-21)
(1.03026 -0.0614975 -7.65255e-22)
(1.02934 -0.0553534 -1.92954e-21)
(1.02009 -0.00234481 0)
(1.02098 -0.00169385 5.55191e-22)
(1.02113 -0.00283631 -2.47733e-22)
(1.01922 -0.00273055 0)
(1.01908 -0.00188587 -7.32561e-22)
(1.01361 -0.00224718 -1.49586e-23)
(1.0137 -0.00215718 7.93737e-23)
(1.0173 -0.246748 -4.51251e-21)
(0.990159 -0.269247 0)
(1.00527 0.0268886 -1.00266e-23)
(1.00676 0.0263131 -2.01728e-22)
(1.04537 0.025505 4.49512e-22)
(1.04471 0.0247885 3.80291e-21)
(1.04446 0.0256996 5.02504e-23)
(1.02151 0.00790762 3.81971e-22)
(1.02133 0.00808454 -3.22415e-22)
(1.02171 0.00817678 1.04848e-22)
(1.01123 0.00281069 0)
(1.01122 0.00283278 0)
(1.01133 0.00290772 0)
(1.03158 0.0462222 5.47386e-22)
(1.02949 0.0461734 3.30056e-22)
(1.01043 -0.000712194 2.04053e-23)
(1.0104 -0.00071753 -3.61843e-22)
(1.01029 -0.000693747 -3.59194e-22)
(1.01999 0.0573443 -4.41197e-22)
(1.01791 0.056356 -3.44997e-22)
(1.0198 0.0548206 -1.13082e-21)
(1.00976 -0.0059927 -4.02946e-23)
(1.01037 -0.00745618 -1.05791e-21)
(1.01128 -0.0061145 7.10761e-22)
(1.03466 0.0220634 -4.71545e-22)
(1.03876 0.0248248 -1.0183e-21)
(1.03276 0.0259888 -1.5737e-22)
(1.01578 0.00458842 -5.22828e-22)
(1.01568 0.00372508 0)
(1.01683 0.00450023 0)
(1.01045 -0.000702353 2.08e-22)
(1.01047 -0.000687014 -3.65573e-22)
(1.01034 -0.000673006 9.72818e-24)
(1.04437 0.10167 7.24497e-23)
(1.05055 0.0888041 3.88484e-22)
(0.940271 0.154906 -3.10138e-21)
(0.93126 0.158552 -2.25617e-21)
(0.932181 0.149063 -7.56505e-22)
(0.989659 0.0174152 1.30003e-21)
(0.987959 0.0153315 7.41644e-22)
(0.990865 0.0149177 -3.33973e-22)
(1.01276 0.00123162 3.45319e-22)
(1.01243 0.00104669 4.9625e-22)
(1.01247 0.00120394 -3.21512e-22)
(1.01995 0.0221135 -9.02827e-23)
(1.06264 0.001218 -1.50091e-21)
(1.0595 0.011146 2.95472e-21)
(1.0656 0.0108714 7.6361e-24)
(1.01056 -0.00073141 3.73255e-22)
(1.01781 -0.0129119 -3.52856e-22)
(1.01841 -0.0158968 4.27696e-22)
(1.0315 0.0199309 -9.92824e-22)
(1.03594 0.0180485 -1.15618e-22)
(1.03225 0.008794 3.01456e-21)
(1.03226 0.00823656 1.79031e-21)
(1.03167 0.0084716 9.18042e-23)
(1.0873 0.0150059 1.05879e-21)
(1.05106 0.018593 4.68087e-21)
(1.05199 0.0187067 1.16874e-21)
(1.05137 0.0177894 -1.29231e-21)
(1.0184 -0.00302609 0)
(1.01918 -0.00365636 0)
(1.00916 -0.000262259 -3.03427e-23)
(1.00905 -0.000242101 -3.63123e-22)
(1.00906 -0.00024381 -5.06309e-23)
(1.037 0.0123917 2.33525e-22)
(1.03758 0.0119466 9.07669e-22)
(1.01755 -0.00317566 -1.0799e-21)
(1.0176 -0.00251803 0)
(0.991198 0.0192395 7.27361e-22)
(0.993034 0.0209286 -1.09776e-21)
(0.993958 0.0185493 -5.08735e-22)
(1.02129 0.00765006 3.43605e-22)
(1.01629 0.00283357 0)
(1.01631 0.00269988 1.64793e-22)
(1.0161 0.0027186 1.46869e-23)
(1.01118 0.00247363 1.0741e-21)
(1.01115 0.00250828 1.06769e-22)
(1.01107 0.00240423 2.57449e-24)
(1.04105 -0.0437912 7.43117e-22)
(1.04552 -0.0466931 7.33126e-22)
(1.02107 -0.072119 -1.37057e-24)
(1.01223 -0.0808418 -1.39542e-22)
(1.01256 -0.0716669 0)
(1.01095 0.00110877 1.28013e-21)
(1.01105 0.0010738 5.10688e-22)
(1.01106 0.00101234 9.64392e-22)
(1.01765 0.00177541 7.28875e-22)
(1.0183 0.00148847 1.5804e-22)
(1.03047 -0.0685622 -1.56606e-24)
(1.12697 0.0507797 2.77753e-21)
(1.12853 0.0477014 -1.25016e-21)
(1.12461 0.0481124 3.80066e-21)
(1.00827 -0.00567129 1.98674e-22)
(1.0096 -0.00456351 7.52016e-22)
(1.01156 -0.00103546 -2.68645e-23)
(1.01157 -0.00109069 -7.98413e-23)
(1.01403 -0.0127618 -8.56661e-22)
(1.01658 -0.0147568 1.36928e-21)
(1.01586 -0.0114641 -3.39042e-22)
(1.05083 0.0195786 2.34485e-21)
(1.0502 0.0186544 4.63382e-21)
(1.01378 0.000471556 3.35452e-22)
(1.0131 0.000380089 2.01363e-22)
(1.01346 0.000467978 1.72916e-22)
(1.01466 0.00462238 2.7395e-22)
(1.01552 0.00560762 -5.02641e-22)
(1.00946 0.00131627 3.30457e-22)
(1.00953 0.0013687 -2.47931e-23)
(1.00945 0.00130543 -6.2846e-24)
(1.03506 -0.0796513 -6.63527e-24)
(1.03212 -0.0675045 2.08651e-22)
(0.98219 0.0103017 -2.93035e-23)
(0.977577 0.00683652 -8.43366e-23)
(0.978311 0.0137554 -3.09043e-23)
(1.06609 0.0873235 -2.31329e-21)
(1.06603 0.0841048 -3.57153e-21)
(1.06294 0.0866883 1.94427e-22)
(1.06097 0.0291149 2.24662e-21)
(1.06142 0.0298107 -5.93079e-21)
(1.06208 0.0290058 -1.14678e-21)
(1.01696 -0.00299128 1.05979e-21)
(1.01868 -0.00269902 0)
(1.03244 -0.0117438 5.18174e-22)
(1.03073 -0.0151892 0)
(1.02894 -0.0117972 0)
(1.00407 -0.0149145 -2.65606e-21)
(1.00552 -0.0181653 8.15556e-22)
(1.00724 -0.0150327 -8.63309e-22)
(1.06609 0.101564 1.88463e-22)
(1.06253 0.103154 2.83866e-21)
(1.06622 0.106311 1.26037e-21)
(1.00939 0.00126909 6.54103e-22)
(1.00948 0.00132865 3.08429e-22)
(1.01649 0.00294875 0)
(1.01252 -0.000614958 9.21911e-23)
(1.01301 -0.00084135 4.54207e-22)
(1.01273 -0.000440407 1.9964e-22)
(1.00974 -0.000156359 6.60909e-22)
(1.00979 -0.00017578 -5.06741e-22)
(1.00988 -0.000161707 -3.45996e-22)
(1.01938 0.00891011 -7.01969e-22)
(1.01994 0.0090508 1.10016e-22)
(1.04597 0.0261971 0)
(1.04625 0.0252777 -1.40009e-21)
(1.01087 0.00166895 9.68528e-23)
(1.01098 0.00171399 -4.0689e-22)
(1.01093 0.00161028 -8.16949e-22)
(1.01885 0.00800862 2.45671e-23)
(1.019 0.00793372 5.01042e-23)
(1.01904 0.00816374 4.11712e-25)
(1.03166 0.0198876 -9.96764e-22)
(1.03148 0.0176965 -5.68181e-22)
(1.02916 0.0194085 5.10115e-22)
(1.01012 0.00167549 9.57373e-22)
(1.01009 0.00167413 -3.25666e-22)
(0.989365 0.0994247 5.81401e-22)
(0.990261 0.10399 -9.06319e-24)
(0.985602 0.102002 -1.95447e-23)
(1.03178 -0.0150634 2.08958e-20)
(1.00729 0.038934 1.23192e-20)
(1.03098 0.0154919 -1.15157e-21)
(1.03007 0.0137026 0)
(1.02856 0.0154793 0)
(1.01854 0.0081396 -8.23494e-23)
(1.01839 0.0081859 2.98879e-23)
(1.0026 0.0104204 1.28256e-21)
(1.00342 0.0118607 1.94696e-21)
(1.00408 0.0102267 7.95973e-22)
(1.00961 -0.00015273 1.88409e-22)
(1.0097 -0.000142173 -1.23633e-23)
(1.0204 0.0595759 0)
(1.02082 0.0623724 5.05709e-22)
(1.01824 0.0615933 0)
(1.02185 0.00673331 -4.3634e-22)
(1.02153 0.00671281 -4.28095e-22)
(1.02163 0.00647767 -4.24065e-22)
(1.0035 0.0266941 1.0163e-21)
(1.00142 0.0266273 9.07795e-22)
(1.00268 0.0284605 -8.0413e-22)
(1.01442 0.000243676 -2.69302e-23)
(1.01364 0.000167343 -6.27528e-23)
(1.00431 0.0253799 -5.02139e-23)
(0.90948 -0.106704 -1.13503e-21)
(0.905042 -0.13484 -1.69372e-21)
(1.01138 -0.000259538 -1.14585e-21)
(1.01129 -0.000277506 -1.10293e-21)
(1.06637 0.0538802 1.63602e-21)
(1.06659 0.052336 1.65629e-21)
(1.06795 0.0536278 -1.60508e-23)
(1.021 0.0159702 4.08218e-22)
(1.02074 0.0165419 -3.25546e-22)
(1.02045 0.0159157 -5.99946e-22)
(1.0113 0.00436847 8.68392e-22)
(1.0106 0.00480605 -6.01618e-22)
(1.0116 0.00551844 -9.38865e-22)
(1.00067 -0.0144397 -1.66539e-21)
(1.00331 -0.0118452 -1.25133e-21)
(1.00661 0.000166206 -5.96603e-22)
(1.00626 0.00013727 3.06856e-22)
(1.01056 -0.000613449 2.21236e-25)
(1.01045 -0.000578962 2.10763e-22)
(0.993166 0.096781 7.00957e-22)
(0.988714 0.0950694 4.2384e-22)
(1.01869 0.00808485 3.31184e-23)
(1.01865 0.00785586 -1.20222e-23)
(1.00301 -0.0221974 3.30584e-21)
(1.04668 0.03274 -1.1684e-21)
(1.04682 0.0316552 3.54374e-21)
(1.04787 0.0323864 1.9232e-21)
(0.915162 0.283106 0)
(1.02831 0.0640768 2.05496e-22)
(1.0263 0.0659559 6.07797e-22)
(1.02586 0.0630922 -6.46211e-22)
(1.06973 0.087298 -1.05315e-21)
(1.02061 0.00714787 -2.19625e-21)
(1.02107 0.00748704 -1.17065e-21)
(1.02042 0.00756903 -1.54247e-22)
(1.03159 0.022476 -3.39511e-22)
(1.03425 0.0203626 -1.55452e-21)
(1.01102 0.00228827 1.9387e-22)
(1.01098 0.0021948 0)
(1.01094 0.00215197 3.7468e-22)
(1.0485 0.0157584 8.01306e-22)
(1.04779 0.0162248 6.11199e-21)
(1.04776 0.0152698 5.29337e-21)
(1.06059 0.0279828 0)
(1.05978 0.0288985 7.40967e-22)
(1.06646 0.0557085 -8.12877e-22)
(1.0649 0.0543753 2.4253e-21)
(1.04469 0.0158526 -1.5818e-21)
(1.04783 0.0106612 5.47115e-21)
(1.04277 0.00973269 -2.40265e-22)
(1.18433 0.055972 -5.50773e-21)
(1.19333 0.0649904 0)
(1.17396 0.0583898 0)
(1.01205 0.00348986 3.56589e-22)
(1.01214 0.00356378 -6.73033e-22)
(1.01204 0.00351159 1.99122e-22)
(1.00805 0.00375431 -9.80486e-22)
(1.00759 0.0045557 8.16965e-22)
(1.00713 0.00373566 1.23395e-21)
(1.01071 0.137968 0)
(1.00841 0.132438 0)
(1.00449 0.137437 1.95574e-22)
(1.00173 0.00937805 -7.46738e-23)
(1.00106 0.0110216 -1.32205e-21)
(1.01206 0.00344601 1.67755e-22)
(1.01195 0.00339593 1.70235e-22)
(1.01103 0.00260158 -8.23914e-22)
(1.01095 0.00250691 6.78745e-22)
(1.01132 0.00232184 -2.18521e-22)
(1.01127 0.00236384 7.19318e-22)
(1.0112 0.00225037 -2.81704e-22)
(1.07877 0.0420521 -2.8854e-21)
(1.07943 0.0412048 3.45551e-22)
(1.0799 0.0422675 2.64396e-21)
(1.18727 0.0564423 -2.59057e-23)
(1.17421 0.0455834 -1.40929e-21)
(0.992842 0.0492203 -3.56348e-21)
(1.01229 0.0677809 -1.00052e-20)
(1.05105 0.0749276 2.41251e-22)
(1.03997 0.0196742 2.47935e-21)
(1.04501 0.0224661 1.31397e-22)
(1.03332 0.0155542 1.62476e-21)
(1.03599 0.0271241 -1.67376e-21)
(1.03666 0.0264663 -1.38674e-21)
(1.03688 0.0277653 0)
(1.03904 -0.0358649 0)
(1.04516 -0.0352637 0)
(1.0446 -0.0276889 0)
(1.01301 -0.00200759 1.41709e-23)
(1.01285 -0.0019058 -2.90898e-23)
(1.0128 -0.00196742 7.55743e-24)
(1.02159 0.00722621 0)
(1.02195 0.00724214 -2.01646e-23)
(1.03505 0.0267019 -8.42383e-22)
(1.01824 0.00450532 -3.94404e-24)
(1.01847 0.00451696 3.54504e-22)
(1.0184 0.0046918 1.38441e-23)
(0.988503 0.0198586 1.21061e-21)
(1.00628 -5.66064e-05 6.37955e-24)
(1.00751 -0.000117663 2.78396e-23)
(1.08865 -0.0470725 1.73502e-21)
(1.08304 -0.0692419 7.20568e-22)
(1.09167 -0.0582102 -3.44662e-24)
(1.01013 -0.000374174 3.43281e-22)
(1.01009 -0.000348437 4.2876e-22)
(1.01024 -0.00035368 -9.60676e-23)
(0.969937 -0.07391 -7.64309e-22)
(0.982831 -0.0698143 -3.39763e-21)
(1.01479 0.00049784 3.70037e-24)
(1.01489 0.000554519 -2.63695e-23)
(1.01476 0.000543036 6.76616e-24)
(1.01721 0.00787282 -3.48137e-22)
(1.01712 0.00769176 -1.33624e-22)
(1.02154 0.00790097 -1.12218e-23)
(1.02127 0.00839715 -2.33461e-22)
(1.02207 0.00837496 1.75751e-21)
(1.10319 0.0345751 -1.00382e-20)
(1.10162 0.0354821 3.73284e-21)
(1.1031 0.0364444 -1.14167e-21)
(0.869621 0.191623 7.4548e-22)
(0.877643 0.200218 1.41271e-21)
(0.866315 0.204381 1.93771e-21)
(0.994753 0.0222893 -2.8355e-22)
(0.992204 0.0231203 -8.9456e-22)
(1.03545 0.0219464 -9.18974e-22)
(1.03552 0.0166397 9.0607e-23)
(1.01844 0.00996138 -7.07246e-23)
(1.01847 0.00971775 -1.63742e-22)
(1.01863 0.0100198 0)
(1.01042 0.00193203 1.04023e-21)
(1.01038 0.00194445 1.2037e-21)
(1.01801 0.00448601 -1.65416e-22)
(1.01807 0.00431551 7.89958e-24)
(1.01688 0.00781821 -1.96641e-22)
(1.01777 0.00877544 1.07991e-22)
(1.01641 0.00860503 -2.98783e-23)
(1.09249 0.0247063 -1.74621e-22)
(1.08865 0.0481137 -2.50982e-22)
(1.01059 0.00211881 5.58573e-22)
(1.01059 0.00208757 4.9483e-23)
(1.01048 0.00202741 5.9072e-22)
(1.01166 0.000594708 5.57177e-22)
(1.01098 0.00046663 -4.43765e-22)
(1.01176 0.000569924 -3.84793e-22)
(1.04702 -0.0365952 -1.62933e-22)
(1.05229 -0.0350797 -1.3583e-22)
(1.04692 -0.0454554 1.61136e-22)
(1.01905 0.00996131 1.15376e-23)
(1.01925 0.0102142 1.40663e-23)
(1.01927 0.00991783 2.36962e-23)
(1.01062 0.00207179 -1.00775e-21)
(1.01053 0.00199445 -6.34244e-22)
(1.01065 0.00205903 -8.34585e-22)
(1.11885 0.0398151 5.94605e-22)
(1.11962 0.0369956 3.79779e-21)
(1.1167 0.0376938 2.2759e-22)
(1.01634 0.00715498 -7.49261e-23)
(1.01741 0.00713996 -1.32361e-23)
(1.01124 0.00240172 1.88163e-23)
(1.01121 0.00243787 -2.80284e-22)
(1.01113 0.00233134 -1.37493e-22)
(1.01229 0.00080001 -8.38715e-22)
(1.01238 0.000912573 -3.04992e-22)
(1.01264 0.000903992 1.46196e-22)
(0.999992 0.0255397 6.75619e-22)
(0.999506 0.0275918 -2.91552e-22)
(1.01263 0.000499712 0)
(1.01163 0.000453262 1.861e-24)
(1.01162 0.000456997 7.36609e-23)
(0.998272 0.0246069 7.58527e-22)