/*--------------------------------*- C++ -*----------------------------------*\
| =========                 |                                                 |
| \\      /  F ield         | OpenFOAM: The Open Source CFD Toolbox           |
|  \\    /   O peration     | Version:  v2012                                 |
|   \\  /    A nd           | Website:  www.openfoam.com                      |
|    \\/     M anipulation  |                                                 |
\*---------------------------------------------------------------------------*/
FoamFile
{
    version     2.0;
    format      ascii;
    class       volScalarField;
    location    "250";
    object      k;
}
// * * * * * * * * * * * * * * * * * * * * * * * * * * * * * * * * * * * * * //

dimensions      [0 2 -2 0 0 0 0];


internalField   nonuniform List<scalar> 
18355
(
0.022951
0.000137001
0.000239083
0.00014089
0.0002106
0.00033445
0.000146733
0.000213252
0.000151816
0.00426323
0.000160222
0.000203883
0.00020555
0.015949
0.000142824
0.000135402
0.000140878
0.000156531
0.000231559
0.000150936
0.000257778
0.00014919
0.000136912
0.000346821
0.000136987
0.000150089
0.000147011
0.000140989
0.000152551
0.000161824
0.0071571
0.000181483
0.00013759
0.00013432
0.000145384
0.000149749
0.000158352
0.000150086
0.000162747
0.000148943
0.000151251
0.000161369
0.000134469
0.000136825
0.00013692
0.000237919
0.000141164
0.000141046
0.00770781
0.000144645
0.000142143
0.0170845
0.000144854
0.000217187
0.000143109
0.00015106
0.000145177
0.0106569
0.000150579
0.000317213
0.000134418
0.000192296
0.000215842
0.000145357
0.000188422
0.000140202
0.000154385
0.00015843
0.00013404
0.00397741
0.00014245
0.000143144
0.000174682
0.000158869
0.000505394
0.000134214
0.0076999
0.000134323
0.000142153
0.000415238
0.000154355
0.000341178
0.000134148
0.00015655
0.000174489
0.000148973
0.000153485
0.000167113
0.000140477
0.000167555
0.0153781
0.000255069
0.000328927
0.000144648
0.00208937
0.000147599
0.000140059
0.000144778
0.000185952
0.000148881
0.000172975
0.000141776
0.000144392
0.000130589
0.00015492
0.000135512
0.000188324
0.00248856
0.000162398
0.000135032
0.000142032
0.000147001
0.000168948
0.000156151
0.0002494
0.000161974
0.000141523
0.000466664
0.000152745
0.00015397
0.00417929
0.000239537
0.0164922
0.000170532
0.000434
0.000242851
0.000146999
0.000141233
0.0331014
0.000147678
0.000140135
0.0126975
0.000143514
0.000189252
0.000196766
0.000140493
0.000232981
0.00295955
0.00014237
0.000265553
0.000155949
0.00023027
0.000140963
0.0346469
0.000197176
0.00014658
0.000312118
0.000131472
0.000168793
0.00570997
0.000140915
0.00015379
0.000145083
0.000178842
0.000134579
0.000138248
0.000141408
0.000148888
0.000141041
0.000139266
0.000157511
0.000143629
0.000135087
0.000202461
0.000159904
0.00198468
0.00032808
0.0408529
0.000481613
0.000155977
0.000146225
0.000187078
0.000147917
0.00781936
0.000145759
0.000150633
0.000146281
0.000130281
0.000151101
0.000161957
0.000149239
0.00177031
0.000148551
0.000141247
0.000241
0.000144342
0.000149734
0.000167456
0.000143281
0.000147624
0.000239637
0.000186023
0.000137253
0.000134838
0.000143798
0.00025341
0.000139364
0.0498548
0.000137092
0.0170107
0.000144103
0.000153448
0.000163355
0.000148965
0.0387453
0.000146834
0.000474777
0.000141215
0.000137097
0.000144761
0.000146983
0.000294564
0.000152466
0.000148903
0.000131662
0.00791303
0.000162112
0.000155771
0.000147074
0.000141318
0.000161739
0.000133987
0.00016557
0.000178626
0.000183985
0.000159119
0.000134193
0.00314839
0.00026224
0.000169743
0.000145149
0.000154923
0.00382236
0.000134147
0.00020283
0.000208803
0.000148989
0.000239982
0.000154937
0.000149004
0.000137314
0.000150876
0.000146633
0.00016784
0.000146854
0.000143104
0.000140954
0.000303373
0.0003166
0.00014319
0.000147433
0.000297697
0.000216202
0.000180279
0.000130307
0.000214545
0.000154945
0.000147487
0.000158254
0.000139632
0.00587902
0.000911469
0.000183109
0.000160734
0.000164391
0.000205464
0.000213672
0.00018882
0.00013958
0.000143146
0.000148636
0.000135107
0.000153415
0.00015602
0.00014066
0.000146987
0.000170191
0.000140345
0.000185801
0.0064562
0.000166473
0.000147243
0.000163305
0.000134993
0.000167052
0.000146154
0.00016343
0.000148664
0.000162603
0.00694409
0.000137335
0.000172259
0.00015227
0.000160134
0.000209353
0.000145169
0.000134638
0.000183737
0.000146985
0.000230106
0.000158407
0.00254306
0.000167533
0.000183868
0.000154925
0.000172584
0.000144135
0.000153583
0.000160224
0.000172229
0.00162943
0.000278402
0.000142197
0.000157249
0.000203169
0.000164214
0.000142126
0.00014099
0.000140953
0.000175298
0.000272472
0.00657451
0.00193408
0.000169305
0.000155491
0.000274758
0.000131331
0.000146594
0.000155475
0.000144135
0.00016978
0.000144663
0.00432264
0.000135798
0.000414234
0.000143529
0.000148699
0.000155802
0.000210049
0.0465418
0.000167904
0.00165128
0.000149357
0.000140596
0.000144025
0.000160781
0.00475583
0.000140841
0.000145351
0.000303405
0.000148975
0.000140938
0.000215918
0.000158218
0.000140955
0.000144568
0.00016465
0.00015194
0.000164566
0.000135507
0.000145294
0.000148671
0.000288925
0.000329781
0.000135206
0.000140768
0.00021255
0.000141015
0.000147479
0.000772905
0.000371924
0.000173959
0.000143881
0.000149193
0.000206342
0.000148749
0.000218794
0.000153717
0.000136518
0.000192494
0.000203829
0.00014818
0.000144157
0.00015662
0.00014627
0.000156471
0.000143745
0.000203907
0.000146716
0.000153249
0.000142612
0.000141008
0.000152719
0.000150067
0.000183844
0.000522746
0.000319923
0.000154397
0.000215414
0.000177579
0.000143745
0.000144272
0.000170454
0.000143294
0.000178435
0.000145973
0.000162977
0.000292378
0.000415414
0.0400963
0.000184184
0.000130733
0.0505186
0.00014887
0.000140596
0.000264058
0.000143087
0.000176469
0.000137097
0.00019361
0.000143056
0.000185945
0.00152119
0.000181014
0.000144094
0.000137482
0.000182029
0.000152715
0.000142933
0.00329983
0.000485114
0.000140538
0.00017107
0.000183983
0.000137403
0.000150299
0.000166079
0.0127773
0.000167373
0.000148995
0.000144381
0.000167065
0.000144544
0.000136088
0.000143877
0.00015578
0.000411854
0.000136319
0.000151036
0.000145179
0.000211883
0.000202508
0.000134765
0.000177003
0.000165895
0.000145166
0.000253032
0.000192257
0.000148758
0.000145984
0.000166408
0.000213276
0.00611185
0.000136112
0.0467528
0.000142874
0.000136317
0.000168994
0.000153006
0.00020653
0.000174508
0.000153548
0.000160117
0.000149205
0.000214673
0.000153201
0.000159429
0.000149215
0.000135897
0.000147825
0.00013609
0.000191934
0.000398107
0.000193321
0.00015757
0.00014719
0.00014923
0.000146016
0.000154996
0.000146014
0.000135588
0.000143682
0.00016728
0.000137418
0.000145821
0.0138627
0.0505067
0.000205655
0.000147492
0.000150534
0.00016617
0.000149021
0.00458722
0.000257674
0.000156475
0.000156973
0.00015971
0.000150419
0.000153838
0.00457278
0.000164061
0.000148983
0.00746212
0.000147006
0.0463762
0.0465099
0.000155563
0.000149985
0.0063381
0.000140721
0.000184501
0.000182396
0.00566316
0.000153257
0.000147678
0.000145048
0.00366866
0.00683936
0.00511781
0.00295945
0.000154141
0.000144913
0.000156483
0.000143155
0.000154468
0.000261898
0.00739695
0.000726959
0.000398964
0.00016801
0.000178402
0.000170949
0.000141219
0.000142213
0.00017114
0.000154561
0.000146353
0.000143103
0.00052411
0.000139957
0.000360846
0.000159581
0.000190157
0.000208412
0.000142271
0.000156205
0.0429802
0.000143641
0.00300868
0.000143499
0.00023969
0.000164124
0.000149244
0.000170668
0.00018872
0.000184772
0.000149842
0.000134039
0.000165716
0.000155881
0.000190252
0.000143465
0.00019244
0.000139895
0.000252276
0.000146688
0.000143602
0.000229548
0.000170872
0.000213828
0.000144692
0.000157772
0.000156023
0.00385719
0.00688503
0.000154668
0.000193778
0.000145402
0.000162886
0.000148418
0.000154387
0.0184398
0.00013675
0.000373333
0.000146952
0.000145773
0.000154875
0.00464252
0.000151929
0.000190884
0.000148988
0.000166407
0.0014722
0.000131471
0.000141012
0.0517699
0.000167074
0.018566
0.000174989
0.000148079
0.00014311
0.000142858
0.00015887
0.000149877
0.00013648
0.000214041
0.00546612
0.000143372
0.0102505
0.0121625
0.000158353
0.000237728
0.000136298
0.00642501
0.00505824
0.000132541
0.00182457
0.000168941
0.000267497
0.00385495
0.000143336
0.000142847
0.000147828
0.000706326
0.000174587
0.000144468
0.000148831
0.000214695
0.00014858
0.000169839
0.00014366
0.000167565
0.0422809
0.00365941
0.000250684
0.00335005
0.000168587
0.00935364
0.000156915
0.000140639
0.000160543
0.0034835
0.000178891
0.000173092
0.00014427
0.000365536
0.00014536
0.00014841
0.0550077
0.000148652
0.000161219
0.000225158
0.000187265
0.000144591
0.000142873
0.000154793
0.000158596
0.000134062
0.000146486
0.000173012
0.00022518
0.000153078
0.000145322
0.000169304
0.00152596
0.000143658
0.00301833
0.000250987
0.000145058
0.032697
0.000134663
0.000242949
0.000143625
0.000137752
0.000228891
0.000153838
0.0134156
0.000152777
0.000142888
0.0287084
0.000143602
0.000134877
0.000145696
0.000140741
0.000162022
0.000165961
0.0405458
0.00015141
0.00247948
0.000154113
0.00300733
0.00587142
0.000150437
0.000143988
0.000157714
0.000136624
0.000200979
0.000142521
0.000134784
0.000135753
0.000144288
0.000143563
0.000247502
0.000158637
0.000173579
0.00015123
0.000156909
0.000156564
0.000164499
0.000828573
0.00013735
0.000191594
0.00017118
0.000134363
0.00744603
0.0455746
0.000141728
0.00175187
0.000145439
0.00304071
0.000166236
0.000132372
0.000166124
0.000159646
0.00245652
0.000142501
0.000154272
0.00455092
0.000198395
0.000251319
0.000143531
0.00444383
0.000188374
0.0036709
0.000143472
0.00015187
0.000142898
0.000146234
0.000141986
0.000144788
0.000136759
0.00228978
0.00016898
0.000141161
0.000134256
0.000140417
0.000148756
0.000194895
0.000187781
0.000137325
0.000158662
0.000146795
0.000146981
0.000145791
0.000140873
0.00020478
0.000134286
0.000140286
0.000149366
0.000147274
0.000151836
0.000146404
0.000244835
0.000251197
0.000154896
0.000140122
0.000211547
0.00013468
0.000134351
0.00014633
0.000255042
0.00015749
0.000145194
0.000136015
0.00013715
0.000159932
0.000133967
0.000161949
0.000142415
0.000148384
0.000141882
0.000151691
0.0181325
0.000140577
0.000148884
0.0001435
0.000240705
0.00564149
0.000158164
0.000149891
0.000177855
0.000160421
0.000201078
0.00102072
0.000149206
0.00497996
0.000148989
0.000368542
0.000149298
0.000136806
0.000135939
0.00167971
0.000135584
0.000158428
0.000189885
0.000219858
0.000177613
0.000154022
0.000142444
0.000143433
0.000143484
0.000159892
0.00019968
0.00423175
0.000171785
0.000145422
0.000133991
0.000155455
0.000141811
0.00014092
0.000148403
0.000173562
0.000164485
0.000459573
0.000145346
0.000144342
0.000173304
0.000143159
0.00021338
0.00017243
0.000169278
0.000210369
0.000316672
0.000166697
0.000141216
0.000134068
0.000147449
0.000142967
0.00390227
0.000174321
0.000199844
0.000136775
0.000147082
0.000155279
0.000141188
0.00106009
0.000276539
0.000134387
0.000135894
0.000143076
0.000141997
0.000140927
0.000144512
0.000235393
0.000135021
0.000149084
0.000136815
0.000137924
0.000142115
0.000146003
0.000161052
0.00013788
0.000170922
0.000135983
0.000348844
0.000236797
0.000155817
0.00109202
0.000153071
0.000148607
0.000185095
0.00269008
0.000144555
0.000140246
0.000137015
0.000182512
0.000150631
0.000166702
0.000265575
0.000146483
0.000149596
0.000144654
0.000365195
0.00170296
0.000151497
0.0001396
0.000155511
0.000167394
0.000142271
0.000185325
0.000140313
0.000133929
0.000155122
0.000298004
0.0033222
0.00324903
0.000237452
0.000134704
0.000251698
0.000199782
0.000157027
0.000143449
0.000199865
0.000156599
0.000262801
0.000441604
0.000141983
0.000134783
0.000144684
0.000148582
0.000134902
0.000940397
0.00286353
0.000134579
0.00014673
0.000149483
0.000167703
0.000143963
0.000141787
0.00020977
0.000148794
0.000142149
0.00183635
0.000195757
0.00019175
0.000142791
0.00013585
0.00013478
0.000145715
0.000164733
0.000183608
0.000140555
0.000139101
0.000153764
0.00469005
0.00013703
0.000143909
0.000183475
0.000140995
0.000139178
0.000143558
0.00089082
0.000135664
0.000144435
0.000137091
0.000154673
0.00013568
0.000157123
0.00021231
0.00014394
0.00023684
0.000160332
0.000228147
0.00017893
0.000140828
0.000158372
0.000140397
0.000139049
0.000140833
0.00375977
0.00756806
0.000210134
0.000158537
0.00639032
0.000186524
0.000150114
0.000198098
0.000231877
0.000152765
0.000135511
0.00906055
0.000149841
0.000140625
0.00013798
0.000258173
0.00471456
0.0440041
0.00013888
0.000194917
0.00522902
0.000167848
0.00017086
0.000156547
0.000155196
0.000165294
0.00164942
0.000153273
0.000149973
0.000158775
0.0440894
0.000245851
0.000143879
0.000146701
0.000143348
0.000282345
0.000155082
0.000149307
0.00698818
0.000157019
0.000176015
0.000156526
0.00641222
0.000138598
0.000371392
0.000149732
0.000135844
0.000141298
0.000135703
0.000135881
0.000140773
0.000148178
0.000254066
0.000138135
0.000155615
0.000157912
0.000147365
0.000141096
0.000194563
0.00014325
0.000146601
0.000156293
0.00669702
0.000204164
0.000153768
0.000146398
0.000321615
0.00013857
0.000168639
0.00014618
0.0436222
0.000172075
0.00562741
0.000158533
0.000142906
0.000221373
0.0119566
0.000286774
0.000137712
0.000143497
0.000167697
0.0161242
0.000131017
0.000174346
0.000140669
0.000161348
0.000140402
0.000134802
0.000149169
0.000149935
0.000135186
0.000176202
0.000171951
0.00015908
0.000208708
0.00735707
0.000150267
0.00340363
0.000136261
0.000200398
0.00026677
0.000220211
0.000134564
0.000148795
0.000145971
0.00534742
0.000144648
0.000140569
0.000193888
0.00014649
0.000146164
0.000151181
0.00014954
0.000142974
0.0478043
0.00577505
0.000182773
0.000139141
0.000145274
0.000234186
0.000136292
0.000301135
0.000147162
0.00014575
0.000149028
0.000155019
0.000234446
0.000139824
0.000145038
0.0497485
0.000147208
0.00014842
0.000167816
0.000282209
0.00116132
0.000144336
0.000143589
0.0141763
0.0034242
0.0251398
0.000140857
0.000164988
0.000224665
0.000137593
0.000200702
0.000153308
0.00340052
0.000155089
0.000146048
0.000149828
0.000135622
0.000291221
0.000144915
0.000139086
0.00542493
0.000187275
0.000831784
0.000135286
0.000152023
0.000135515
0.000132086
0.00013608
0.000149273
0.00014657
0.000149013
0.00013566
0.000148419
0.000173341
0.00016292
0.000166084
0.000140115
0.000155695
0.00014191
0.00719786
0.000147397
0.00014941
0.000147713
0.000135956
0.000148756
0.000145956
0.000144015
0.000143324
0.000141213
0.000136108
0.00366556
0.0013439
0.000144649
0.000453471
0.000165909
0.000149206
0.000147611
0.000150136
0.00377404
0.000147235
0.000136233
0.000134536
0.000134594
0.0461728
0.00014439
0.000136798
0.000252153
0.000134112
0.000133376
0.000181568
0.000190589
0.000207126
0.000211998
0.0167388
0.000135875
0.000724973
0.000156579
0.000143137
0.000136806
0.000162677
0.000143147
0.000161494
0.000180164
0.000154021
0.000150953
0.0542232
0.00019091
0.0482834
0.00168412
0.00322229
0.000215264
0.000139184
0.000263015
0.000637839
0.000135024
0.000944365
0.000138865
0.000150668
0.000208866
0.000140382
0.00033694
0.000158276
0.000152626
0.000149188
0.000218319
0.000143813
0.000148964
0.000142868
0.000136249
0.0045569
0.000133639
0.000148364
0.000148413
0.000177249
0.000142261
0.000144031
0.000153054
0.00227654
0.000144324
0.000144327
0.000136814
0.000154167
0.00014238
0.000150657
0.000852006
0.000141473
0.000157135
0.000148025
0.000154814
0.000160179
0.000140429
0.000148741
0.000197239
0.000147
0.000147547
0.000159157
0.00552364
0.00015046
0.000141753
0.000143942
0.000158958
0.000207524
0.0001517
0.00014096
0.000141382
0.000137749
0.000131936
0.000135547
0.000160024
0.000196372
0.000178339
0.000146738
0.0151234
0.000139545
0.000145672
0.00931488
0.00017346
0.000134116
0.000187848
0.000147748
0.000140944
0.00374672
0.000148773
0.000168514
0.000132516
0.000215179
0.00013958
0.0001347
0.000135942
0.000793781
0.000217104
0.000146809
0.000233098
0.000135758
0.000142112
0.000139009
0.000209712
0.00014551
0.000138483
0.000149249
0.000152265
0.000142963
0.00014577
0.000140445
0.000147785
0.000146713
0.000140287
0.000155407
0.000135328
0.0151048
0.000184073
0.000136531
0.00023221
0.000157138
0.000140804
0.000139758
0.000150885
0.000140642
0.000160621
0.000155355
0.000200188
0.00020154
0.00014782
0.00018752
0.000216622
0.000143042
0.000147693
0.000192831
0.000152474
0.00605376
0.000135556
0.000144169
0.000151477
0.000147554
0.000142324
0.000156827
0.000140492
0.000150093
0.000143885
0.000152244
0.000139653
0.00020292
0.000144745
0.000154194
0.000187682
0.000143106
0.00344109
0.00491799
0.000154649
0.000160619
0.000160227
0.000134348
0.000188981
0.000145552
0.000164352
0.00848269
0.00958624
0.000209274
0.000151076
0.00016036
0.000142692
0.000162074
0.000138935
0.000318343
0.000188841
0.000147394
0.000140669
0.000226145
0.000172966
0.000142826
0.000143174
0.000261511
0.000147617
0.000138401
0.000408141
0.000178453
0.00013491
0.000209096
0.000136113
0.000224022
0.000179939
0.000143002
0.000144269
0.000155604
0.000281704
0.0001401
0.000157421
0.000144256
0.000143019
0.000139795
0.0173057
0.000148318
0.00014523
0.000143781
0.000233729
0.000157753
0.000140269
0.000132958
0.000200357
0.000142195
0.00013689
0.000237681
0.000330956
0.000148697
0.00024557
0.000156124
0.000174977
0.000150195
0.000180725
0.00376599
0.000147661
0.000142153
0.000137016
0.000154964
0.000142801
0.0085427
0.00157491
0.000137444
0.000150323
0.000136438
0.000135656
0.0548102
0.000142894
0.000152029
0.000151958
0.000217798
0.000144481
0.000147877
0.000155374
0.00392966
0.000146435
0.000145336
0.000137372
0.000138378
0.000154491
0.000173458
0.000146815
0.000142111
0.000145043
0.000143384
0.000137045
0.0495253
0.000148151
0.000143507
0.000141856
0.000181614
0.000136549
0.000136908
0.000165357
0.000142124
0.0001831
0.000144096
0.000144426
0.00321975
0.0198534
0.000339475
0.000256495
0.000158441
0.00014843
0.0403752
0.0001396
0.00015537
0.000135302
0.000307357
0.000130431
0.000154875
0.000144577
0.00904589
0.000175474
0.000222894
0.0180802
0.000151269
0.000190887
0.00014795
0.00014968
0.0509012
0.000165457
0.000142128
0.00013605
0.000153746
0.000161335
0.000143966
0.000145078
0.000139582
0.000134975
0.00023785
0.00709463
0.000148043
0.000157256
0.000293379
0.0118469
0.000151801
0.000150345
0.000152553
0.000154591
0.000142346
0.00015036
0.000331995
0.000140297
0.000136321
0.000146175
0.000360838
0.000333764
0.000156512
0.000146763
0.000147312
0.000158817
0.000143655
0.000159165
0.000170016
0.000232598
0.000154531
0.00121969
0.000134686
0.000142859
0.000148264
0.000135369
0.000146944
0.000140068
0.000261247
0.000140899
0.000379309
0.000145149
0.000139063
0.000137611
0.000189
0.000151501
0.000172972
0.000177485
0.000136123
0.0456876
0.000156626
0.000138051
0.000133431
0.00529558
0.000269793
0.000133689
0.000140448
0.000140772
0.00015028
0.000221668
0.000255466
0.00014971
0.000148656
0.000210758
0.0125295
0.000149535
0.000142599
0.000286438
0.000153914
0.000554477
0.000154534
0.000142328
0.000182225
0.000180323
0.0222129
0.000188442
0.00297207
0.000136909
0.000142116
0.000148992
0.00014652
0.000153901
0.000147871
0.000146092
0.000139483
0.00014779
0.00014622
0.000146251
0.000145461
0.000152349
0.000149343
0.000143591
0.000141439
0.000177127
0.000162522
0.000140383
0.000145223
0.000236032
0.000144978
0.000148045
0.000149127
0.0175302
0.000136928
0.000168711
0.000150714
0.000136059
0.000143393
0.00035399
0.000202852
0.000148865
0.000147932
0.000154709
0.000166769
0.000140053
0.000160647
0.000179701
0.000141199
0.000199981
0.000140918
0.000143187
0.000142622
0.000147783
0.000160439
0.000207072
0.0106149
0.000182503
0.000136282
0.000144937
0.000143421
0.000210682
0.000148981
0.00213065
0.000139735
0.000143791
0.000143461
0.000188048
0.000142464
0.000146506
0.000144119
0.000211994
0.000137004
0.0168082
0.000137036
0.000174907
0.000144813
0.000161093
0.000140776
0.000153476
0.00241938
0.000216155
0.000136324
0.000178669
0.000145218
0.000146514
0.0302853
0.00398348
0.000136225
0.000142756
0.00015279
0.000135859
0.000143699
0.000148356
0.000147542
0.000159664
0.000177515
0.000150143
0.000157557
0.000218715
0.000147781
0.000140801
0.000142108
0.00015482
0.000160082
0.000144109
0.0169436
0.000140428
0.0316225
0.000168009
0.000136635
0.000140211
0.000139946
3.36863e-05
0.000146207
0.00015496
0.000146384
0.000140689
0.00551179
0.00015099
0.000172692
0.000147192
0.000145551
0.000151339
0.000143243
0.000150946
0.000143406
0.000152353
0.00014932
0.000149034
0.00322069
0.000167686
0.00402765
0.000140887
0.000181156
0.000151486
0.0054574
0.000181217
0.000529128
0.000151635
0.000134994
0.000170896
0.000142656
0.00468245
0.000149576
0.000198191
0.000151474
0.00110635
0.00933513
0.000154332
0.000172663
0.000139359
0.000137471
0.000148481
0.00013466
0.000147899
0.000152669
0.000139434
0.000162239
0.000201319
0.00486138
0.000140669
0.000241641
0.00013462
0.000142432
0.000143711
0.000195909
0.000147544
0.000225491
0.000148093
0.000143236
0.0410934
0.000140227
0.000154487
0.000142316
0.000156517
0.000442587
0.000165391
0.0362683
0.000145453
0.000180143
0.000152338
0.000141723
0.000143599
0.000182894
0.000165459
0.000143096
0.00015149
0.000143143
0.00326892
0.000139083
0.000291378
0.000280334
0.000184346
0.000158258
0.00021635
0.000190939
0.000134652
0.0107497
0.000142386
0.000203204
0.000148936
0.000151747
0.00607522
0.00657065
0.00015967
0.000285468
0.000143522
0.00459074
0.000131142
0.000320436
0.000135154
0.000151122
0.000197314
0.000146039
0.000139109
0.000149516
0.000144333
0.000176616
0.00463934
0.000164247
0.00266539
0.000141306
0.0165146
0.00014432
0.000146652
0.000142849
0.000145105
0.0049533
0.000146996
0.000138011
0.000167536
0.000148089
0.00671133
0.000191725
0.00014297
0.000200268
0.00016501
0.000140449
0.000144755
0.000155848
0.000136554
0.00017955
0.000160526
0.000152178
0.000151981
0.000137198
0.000146187
0.000180914
0.000149665
0.000144891
0.000150096
0.000134936
0.00013569
0.0416632
0.000161716
0.000548154
0.000158389
0.000177964
0.000161765
0.000142011
0.000165633
0.00013881
0.000140753
0.00136241
0.000165424
0.0001769
0.000173649
0.000147539
0.000243442
0.000489152
0.000143217
0.00016254
0.000196122
0.0512627
0.000136402
0.000138084
0.000147816
0.000194765
0.00370413
0.000164821
0.000153788
0.000148742
0.000142033
0.000135347
0.000481238
0.000155151
0.000151749
0.00434873
0.000146737
0.000154101
0.000157062
0.000145019
0.000142816
0.000142904
0.000178505
0.000201113
0.000149022
0.00015262
0.000248366
0.000142086
0.000149378
0.000154432
0.000146705
0.0064858
0.00466144
0.000301204
0.000191437
0.0175059
0.000152742
0.000139804
0.000268266
0.000156726
0.000161422
0.000143019
0.000135291
0.00648973
0.00171051
0.000141381
0.000139529
0.000161107
0.000311352
0.000154219
0.000135131
0.0521987
0.000152152
0.000167212
0.000134923
0.000162082
0.000131161
0.000151389
0.00015985
0.000142039
0.0279931
0.000149077
0.000166097
0.000196118
0.00464723
0.000189815
0.000142206
0.00018253
0.000154816
0.000163133
0.000150001
0.00014957
0.000145351
0.000152534
0.0017197
0.000151627
0.00171748
0.000139933
0.000226002
0.000135945
0.000148775
0.000283364
0.000155128
0.000225231
0.000159229
0.000149448
0.00784413
0.0528685
0.000140048
0.0336325
0.000172086
0.000138836
0.000134007
0.0367454
0.0322354
0.000138787
0.000136117
0.000144393
0.000136832
0.0398412
0.000249916
0.00013026
0.000133177
0.000139964
0.00023788
0.000174782
0.00712445
0.000135869
0.000266607
0.000146884
0.000178761
0.0369675
0.000164616
0.00013932
0.000139763
0.00681217
0.000136675
0.000141214
0.000136541
0.000162172
0.000151283
0.0288447
0.000162173
0.000148678
0.000142396
0.00015764
0.000225338
0.000184218
0.000141677
0.000141769
0.00021698
0.000176321
0.00014899
0.00303134
0.000164569
0.000153259
0.0549296
0.000151529
0.000159561
0.000148288
0.00132316
0.000145332
0.000148661
0.0513008
0.000159008
0.000141145
0.000143291
0.00013119
0.000181495
0.000204275
0.000141071
0.000135998
0.000150254
0.00018477
0.000158154
0.000135069
0.000142812
0.000139166
0.000160383
0.000171437
0.000145724
0.000142599
0.0371448
0.000141954
0.0130993
0.000161444
0.000165175
0.000154143
0.000149898
0.000144968
0.0206453
0.000188887
0.000185981
0.0295028
0.000160958
0.00014012
0.000375453
0.000136326
0.000188124
0.0276633
0.000160657
0.000141781
0.000154001
0.000187782
0.000142691
0.000142896
0.0392622
0.000142886
0.000151763
0.00014051
0.000146728
0.000137277
0.000189424
0.000205285
0.000135883
0.000141047
0.00469946
0.000142595
0.000136756
0.000140845
0.000140664
0.000289225
0.000167418
0.000153503
0.000153488
0.000149115
0.000137635
0.000180184
0.000198375
0.000157741
0.000260466
0.000152628
0.000154928
0.029528
0.000140132
0.000136273
0.000143319
0.000140465
0.000148701
0.000132703
0.000149037
0.0270135
0.000144656
0.000141774
0.000156185
0.000140667
0.00264273
0.000147627
0.0440068
0.000230977
0.000178968
0.000161139
0.00266927
0.00016074
0.000143041
0.000154574
0.000140476
0.000151947
0.00014918
0.000148345
0.000327123
0.000135867
0.000143804
0.000170475
0.000294168
0.000147794
0.000139762
0.000224142
0.000151243
0.000190093
0.000143035
0.000139897
0.000144154
0.0375403
0.000146408
0.000291963
0.000176861
0.000149886
0.000139671
0.00014302
0.000158592
0.00450422
0.00013595
0.000179898
0.000141762
0.0429078
0.000235643
0.000148953
0.000219792
0.00014609
0.000153581
0.000153407
0.000254748
0.000166731
0.000160131
0.00016117
0.00542247
0.000147746
0.000180313
0.000144519
0.000203369
0.000214825
0.000236043
0.000142606
0.000164815
0.00485545
0.00537556
0.000154545
0.00015432
0.00561309
0.0056103
0.000140292
0.000179313
0.000143223
0.00015642
0.000146136
0.000152739
0.000151977
0.023905
0.000147488
0.000148065
0.000179902
0.00547809
0.00286656
0.000207483
0.00415407
0.000139824
0.00507769
0.000182334
0.000142271
0.000141751
0.00716922
0.000158204
0.000145084
0.000142591
0.00016868
0.000138639
0.000142828
0.000316933
0.000145549
0.000148234
0.000141085
0.000143815
0.000151098
0.00013908
0.0537021
0.000174553
0.00015348
0.000139169
0.000165756
0.000488572
0.000142302
0.000147796
0.00519753
0.000229005
0.000143432
0.000154397
0.000138713
0.00014041
0.000195224
0.000219905
0.000140451
0.000143037
0.00549095
0.000855895
0.00713476
0.000190271
0.00015053
0.00444714
0.000140573
0.000155381
0.000154233
0.000139593
0.0520703
0.00614002
0.000168212
0.000189211
0.000351058
0.000134015
0.000133157
0.000152598
0.000164546
0.0027996
0.000136482
0.000168703
0.000975509
0.000284722
0.000147006
0.000150929
0.000253834
0.000142546
0.000155188
0.00137504
0.000140885
0.000142543
0.000139134
0.000243554
0.000141419
0.000164993
0.000149268
0.00021349
0.000163556
0.00533846
0.000143058
0.000142167
0.000165984
0.000147673
0.000178705
0.000148929
0.000199409
0.000205295
0.000140784
0.000144458
0.0125065
0.000286044
0.018364
0.00013905
0.000143341
0.000155399
0.000145282
0.00014314
0.000144002
0.000144712
0.000148513
0.000139535
0.000139651
0.000177423
0.000153443
0.00017011
0.0180337
0.00018367
0.000175977
0.000157687
0.000202371
0.000219635
0.000161493
0.000156536
0.000160304
0.000141686
0.00832991
0.000136011
0.000135761
0.000140422
0.00428675
0.000142315
0.00395186
0.000148471
0.00013495
0.000181876
0.000142896
0.000142241
0.000142862
0.000203867
0.00230795
0.000147011
0.000139603
0.000151434
0.000321289
0.000175633
0.00634765
0.000142972
0.000174398
0.000146387
0.000145617
0.000136261
0.000138873
0.000143349
0.000158348
0.000718333
0.000151278
0.00015177
0.000205627
0.00455942
0.000207332
0.00014199
0.000197815
0.000164035
0.0016736
0.000137899
0.000142478
0.000155163
0.000552839
0.000132508
0.000144654
0.00013883
0.000136613
0.000206859
0.000152967
0.000180321
0.000144197
0.000132284
0.000175661
0.000143979
0.0064976
0.000144085
0.000163542
0.000147908
0.000158046
0.000149248
0.000181787
0.00617836
0.00014248
0.000184337
0.000384704
0.000141659
0.000146723
0.000171148
0.00013195
0.0532089
0.00018861
0.000142766
0.000180666
0.000134286
0.000146777
0.000148008
0.000141763
0.000136574
0.000149809
0.000140418
0.000138763
0.000145209
0.000148604
0.000175309
0.000136157
0.000218629
0.000138369
0.000140391
0.000158936
0.000172777
0.000149884
0.000132051
0.000142444
0.000153885
0.000172056
0.000472638
0.000164431
0.000149047
0.000148924
0.00013946
0.000160948
0.000140712
0.000152479
0.000282433
0.000239556
0.000174483
0.00014136
0.000148359
0.000149767
0.000132181
0.000194448
0.000134826
0.000217806
0.000149272
0.000240736
0.000157549
0.00027976
0.000146767
0.000182497
0.0280898
0.00683069
0.0020915
0.000156882
0.00703307
0.000285897
0.000148624
0.000165543
0.000373995
0.000138839
0.000139
0.000143922
0.000155544
0.00101236
0.000145993
0.000158369
0.00333239
0.000130281
0.000144545
0.000263625
0.00942185
0.000197474
0.00260262
0.00524465
0.000149876
0.000184255
0.000153341
0.000154194
0.00323785
0.000154301
0.0243081
0.000234538
0.000153464
0.000146091
0.000152156
0.000160457
0.000139581
0.0134662
0.000132401
0.000142864
0.000143276
0.00851002
0.0293031
0.000207938
0.000144961
0.000151127
0.00013873
0.0317678
0.000143346
0.000149505
0.000153585
9.46206e-05
0.000138625
0.000188276
0.0408046
0.00497674
0.00014732
0.00140156
0.000139693
0.00183484
0.000132796
0.000237322
0.000148745
0.000184099
0.000160082
0.005817
0.000215315
0.000152789
0.000150765
0.000198463
0.000155596
0.000141832
0.000138697
0.000158461
0.000148594
0.00371904
0.000131626
0.000142914
0.000144173
0.000143749
0.0026111
0.000139257
0.000134578
0.000146834
0.000438764
0.000161045
0.000179352
0.000152486
0.000150976
0.000191322
0.000139875
0.000143168
0.000184101
0.000172701
0.000134594
0.000168404
0.000152116
0.00460626
0.000142717
0.000270847
0.000148596
0.000143119
0.000135262
0.000134882
0.000142273
0.000141325
0.000440067
0.000181359
0.000146967
0.000143081
0.000142261
0.00015284
0.000157952
0.00321217
0.00014624
0.000196725
0.000165388
0.00577715
0.000147431
0.000171232
0.000143045
0.000142742
0.000164306
0.000142597
0.000145766
0.000140482
0.000135964
0.000363274
0.000143524
0.000139205
0.000246302
0.00422795
0.000189601
0.000146602
0.000134928
0.000154547
0.0387947
0.000152952
0.000147815
0.000146533
0.000448265
0.000148385
0.000144026
0.0308339