/*--------------------------------*- C++ -*----------------------------------*\
| =========                 |                                                 |
| \\      /  F ield         | OpenFOAM: The Open Source CFD Toolbox           |
|  \\    /   O peration     | Version:  v2012                                 |
|   \\  /    A nd           | Website:  www.openfoam.com                      |
|    \\/     M anipulation  |                                                 |
\*---------------------------------------------------------------------------*/
FoamFile
{
    version     2.0;
    format      ascii;
    class       volScalarField;
    location    "500";
    object      omega_0;
}
// * * * * * * * * * * * * * * * * * * * * * * * * * * * * * * * * * * * * * //

dimensions      [0 0 -1 0 0 0 0];


internalField   nonuniform List<scalar> 
18758
(
0.118279
7.16094
0.0214729
3.69545
6.28621
6.44052
7.44558
0.0217132
0.292054
0.0278085
0.0236765
9.57956
0.0220466
0.172722
0.0230962
0.625105
0.0413787
0.0219425
0.0219298
0.0310271
7.38745
0.0222711
5.32477
2.05263
2.32083
0.0217174
1.65251
6.22321
8.58774
4.14189
0.0680464
5.61945
0.0221819
0.0226899
0.139101
0.0221716
0.0222265
0.0220058
0.0222647
0.044718
0.0220033
0.0266462
0.0216469
0.0261931
2.18564
0.0216169
5.07287
0.0239761
0.027361
0.0216144
0.141274
6.11725
0.0215424
0.0234491
6.00584
10.458
0.0222172
0.329751
0.021938
0.192597
0.0968807
6.39258
0.126686
0.0228645
0.0215519
0.0220135
0.0457997
0.0221775
0.0219268
5.99886
5.72824
0.022326
0.0216209
14.215
0.0216861
0.0219323
0.272705
6.23636
0.0885754
5.02108
5.6713
4.37196
0.192486
6.24715
0.277198
0.0303251
22.4931
0.125365
5.9276
0.021932
6.01079
0.0219391
14.0218
0.0270762
5.60339
12.6773
0.271499
0.0216851
0.0218896
6.29135
0.032509
5.67696
0.0913597
0.0470496
7.45232
2.87104
4.7455
6.39915
0.0226352
0.0223045
16.1058
10.5566
0.0217574
0.0220541
7.28573
10.8525
8.52815
0.0230953
7.20093
5.36596
0.0383388
0.0219587
10.4405
1.36259
0.554628
1.57735
6.55475
1.25519
11.2853
0.0220435
0.0429143
1.52329
13.9833
0.0492039
4.85028
0.0238751
0.266531
0.0467289
0.0218875
0.0778803
0.0891178
0.238318
0.0219688
13.9684
0.0220078
0.0220182
10.0621
6.60381
0.0668998
6.88917
3.18508
1.33304
0.0302732
0.0222708
4.93807
0.0281392
6.3555
0.0239857
0.0221812
0.0222888
0.0218052
0.189899
19.0951
0.0221737
0.0964699
8.40099
0.0219748
10.9357
0.219802
6.6196
5.20183
0.0219375
18.6344
6.23191
0.189617
1.80482
7.83714
0.0229617
0.0760005
0.0221184
0.0217954
32.0083
1.00059
0.0216485
0.0252094
0.638066
0.0219113
9.06439
0.0216316
0.0219241
0.0494785
0.913143
0.0224212
0.0632273
0.03397
0.128021
0.0316665
0.25437
0.0221483
0.0216401
0.0732638
0.0239181
0.0368026
0.0895901
0.0220352
0.0335194
0.0951299
0.0222788
8.03897
0.0274011
0.0219296
0.0495413
0.0222175
0.0365254
0.076027
5.97063
0.0827403
0.555776
0.0216321
6.53124
0.0219295
0.0226528
0.236131
7.91288
0.277094
0.0932026
0.0601912
0.0465642
0.0216057
0.0909984
0.022007
0.127301
5.00843
0.280306
0.022063
0.0219132
0.0216075
0.0216419
10.9013
0.0368304
0.0218322
0.861424
4.85677
0.0230101
6.84815
38.6041
0.278084
0.0221782
5.63069
0.0297544
0.0221522
10.268
0.0303935
0.030251
0.0225357
0.0417121
0.583784
0.685578
0.0356398
0.0850267
0.0216663
0.0746297
0.0220328
0.088684
0.026944
0.233913
10.0301
0.0216371
0.0225195
0.436683
0.0224511
0.0249679
0.0893035
8.66846
10.6124
0.0219609
0.123948
26.4289
2.37263
0.0226138
0.0217399
0.029313
0.0370362
0.0219606
23.1308
0.699723
4.4301
32.9972
5.27128
0.0216273
0.0214659
0.0515642
6.6758
0.0255863
0.0853433
0.121012
0.0292845
5.40361
0.0218953
0.69518
6.35259
0.0216293
5.2697
0.0376968
0.0219534
0.033194
0.0906364
0.0228329
0.0221565
6.64143
4.12565
0.0219252
8.33972
5.3955
0.24961
0.0220188
0.0221226
0.79953
0.0229808
0.0216433
0.0217708
0.0230164
0.233973
0.0921715
0.0292784
0.0358241
0.0311752
0.0493554
0.0216511
0.0222785
1.13792
0.0556873
0.132789
3.65358
0.0259792
0.0223691
0.0220856
0.667434
5.49565
0.0216184
0.0219171
0.0216205
0.0237603
0.0440645
1.47926
0.0219589
0.0222013
0.0216044
0.834871
0.214941
0.189891
0.155771
0.0228646
0.808761
0.111434
0.0376013
0.0314472
8.86532
6.98758
0.860605
0.0220473
0.0332199
8.91931
8.45021
0.0249683
0.0216317
0.0609272
0.0219611
0.0302774
8.48637
3.58744
0.11837
0.0304537
8.36332
0.0219845
0.023904
0.0218935
0.0222715
0.116169
0.0240618
7.46935
0.271633
0.0224579
0.0219299
7.32987
0.116149
0.283722
0.0219836
0.0533067
0.0217298
0.026049
0.0219589
0.0216466
8.80356
7.3471
4.04109
21.0152
0.0219127
0.251324
4.83328
0.0426036
0.0217517
3.66934
0.0217691
0.0220675
0.021791
0.120016
0.0219507
0.0260693
0.144309
9.85586
0.021757
6.13573
0.0486535
0.022025
0.0257573
0.0219565
0.0219189
0.0285694
0.0698206
0.0487472
26.6963
0.0399209
0.0220455
0.392341
5.87673
4.6736
5.34827
0.111207
0.0225444
0.0216471
0.0218354
0.0222363
0.117993
0.0427252
0.0321608
0.0362544
0.0303075
0.634405
0.0930412
0.0219502
0.0348196
5.4486
0.0228473
3.59003
0.0222046
0.0220826
4.74896
0.0280842
0.0224499
0.57978
0.142806
0.0506697
10.0786
0.0219373
0.022662
0.764021
8.42512
0.0360222
0.072428
0.178256
0.534304
26.2599
0.175862
0.0222978
0.145266
0.0220521
0.120071
0.0231344
12.3487
0.0524997
6.34648
0.0320471
0.0764724
0.0216303
2.13671
0.0216271
9.13835
0.0218977
0.358006
0.0220587
1.0858
0.0312523
0.022089
0.0218948
0.0217828
5.27181
11.7209
7.32655
0.0452225
0.0246228
0.0913232
0.0222702
0.0222874
6.20534
0.0218957
0.022063
0.123546
0.0220414
0.0705083
0.0908682
0.0220585
0.0219479
0.0279412
0.0227544
0.0286916
6.76938
0.0313018
0.0356964
0.0267292
0.0220497
3.6892
0.0223399
0.0226403
3.50459
10.3687
0.0726897
1.4654
0.0251839
0.0226106
7.4904
0.0219539
9.40337
0.325509
0.022083
6.77244
1.13373
0.0618045
0.0218616
0.0530735
5.95772
0.0220085
0.0218639
0.0231538
0.0228197
0.0220355
0.0216995
0.0222939
10.3751
0.0252011
8.31903
0.0219635
0.161866
8.44899
0.0220387
0.0216386
0.0251503
0.0221292
0.022683
0.0233213
0.0221064
0.123306
0.821198
0.0215407
6.01778
5.62188
0.0355256
0.143474
4.35928
0.0264206
0.0305447
0.0283918
5.85409
0.0251003
0.0455427
0.0220084
6.48691
0.0424889
0.216525
0.154032
7.23165
0.0250398
0.0219302
0.0604424
1.58875
0.0226206
0.446699
0.0222376
5.40472
0.0227744
0.0217906
0.0217792
0.0220474
5.67124
5.50094
0.0219972
0.288618
0.0306429
4.5544
7.78919
0.75776
4.51026
0.0219012
6.46435
0.0622643
0.0219892
0.0468358
6.03209
6.00044
0.022669
0.0225647
0.0220181
0.0215084
6.8572
0.121633
6.07619
4.98659
0.0220321
0.0221402
0.0600553
0.022281
0.0218073
0.0232967
0.0229565
0.125765
0.0416784
0.219741
6.41333
0.0727088
0.0220654
0.0274812
0.120428
6.32217
0.0435361
8.08103
0.0534651
0.0220019
0.280343
5.04553
0.0224799
0.021638
0.147306
5.8982
0.24941
0.022042
8.74395
30.9593
2.32109
0.0216079
6.69041
6.82283
22.978
0.0240575
0.0221965
7.52184
0.0222945
0.204107
7.1413
0.236422
6.32969
0.0896502
5.22913
0.0712662
0.0221015
0.0225452
6.46564
4.04068
8.11732
3.58349
0.0219532
0.204619
0.0222771
0.0610221
0.0907049
0.133028
0.0220876
0.0252091
0.238753
5.90877
5.99085
9.47885
0.0388373
0.0325518
0.28302
0.0222381
0.0217065
0.0219533
0.0255222
0.0712106
0.0220359
0.0845675
0.021852
0.0220726
0.0219046
6.27896
0.0223268
0.0222696
0.0563224
0.0535546
0.0215455
11.5055
0.0219626
0.0217013
0.0560578
0.036835
0.0248352
0.0228805
5.9211
0.0358883
0.0346275
4.99585
0.0346557
3.77781
0.0260026
0.123293
28.0402
8.93473
0.0216301
5.85359
1.48759
0.0216861
5.7063
0.0220656
0.0218918
0.0398462
0.0219506
0.109364
6.18292
0.0216254
25.5068
0.0218757
0.0381119
4.04647
0.0215254
5.83573
0.0235339
0.0219827
0.0219153
0.0219498
0.259513
0.0729972
12.0274
0.0747585
6.18464
0.0601202
0.0220377
0.258789
8.3424
5.48951
0.0755852
0.185273
0.0611851
0.0266742
0.25733
0.022708
6.33945
0.0220347
5.75506
0.0227581
0.075645
0.0279806
0.0223399
8.67138
0.0225642
0.0218144
5.13062
0.0235732
0.0219074
0.0447631
0.0899842
0.266575
2.90586
2.45188
5.64473
0.0221327
0.0222051
7.11422
0.021993
0.890846
0.0964632
0.0237605
0.0220617
0.0328036
0.0219879
0.021946
0.0289227
0.744
0.218672
0.151423
0.0628202
0.0221327
0.0602188
7.79776
0.0218609
0.091134
0.0239062
6.11068
0.0232516
5.35138
0.0220293
1.86114
0.0222766
0.0866991
0.0219935
0.0251898
0.0297185
0.0215303
0.0216845
0.0215813
5.44291
33.4479
0.032654
6.0576
0.0220076
0.0421919
0.0281608
0.308636
5.26013
0.0327471
0.0215384
0.222017
0.0218541
0.0220069
0.0281852
9.62109
9.43081
2.6251
0.843792
0.0735963
0.0229472
0.0218964
5.11189
0.021895
4.82188
0.0276524
0.0221855
6.7262
6.97268
0.0220904
10.2479
0.0270686
0.102947
0.0964179
1.3598
6.84983
1.19212
0.0219984
0.0215021
6.40811
0.0219692
0.0219254
0.028306
0.0219866
5.1045
0.258547
0.060457
5.50779
0.0494562
0.134389
0.0238201
0.0219909
0.0215345
0.0217814
10.5653
7.94787
0.294486
0.0220577
0.0215317
0.030226
0.021841
0.0404273
0.0256705
3.11058
6.37844
0.0843702
0.295407
0.306401
0.0218868
0.247362
0.0218996
5.31306
1.46356
6.14163
7.75807
0.0230028
0.0289962
4.99416
5.46105
6.86587
0.0449849
0.128888
6.19858
0.0220479
0.283108
1.56051
0.122815
0.022042
0.0219705
0.0416587
5.07549
3.10224
0.0964879
0.0219666
0.0248367
0.028889
49.93
0.0222787
0.630035
0.0218876
0.0227426
0.206056
0.021863
0.0220238
0.0232436
0.0270035
0.0219772
0.0226885
0.0216104
2.09634
0.362
5.09546
0.0216316
0.0495746
0.0220133
0.268162
0.276064
0.0369721
0.0218912
0.022854
0.605148
0.137162
0.029061
8.52157
0.118829
0.0219455
0.0220319
3.88447
6.09061
0.0621658
0.0216157
0.60103
0.0221258
0.0363925
0.0216657
1.35634
5.02144
0.0218602
0.0220175
5.87071
0.0219382
6.56832
8.45462
0.0595293
0.0222583
0.0221658
0.0216612
0.0220358
25.1312
10.5245
0.139229
0.0228492
5.26874
0.0219445
0.0219257
7.7785
0.0217489
6.56141
0.0215113
0.0288264
0.0233087
0.0219299
0.0218428
0.0221206
5.3675
0.022477
0.0221942
0.154913
0.0420241
0.0219732
0.0592526
0.0368238
0.022126
0.279897
0.0219782
0.0369619
5.43861
0.092094
0.0219534
0.286999
0.092553
0.0894173
0.026554
0.0654494
8.58875
0.0244336
0.0606427
0.0219495
0.0215873
0.0220093
0.0430618
0.0366058
0.045856
0.0218636
0.0275178
0.062403
6.28354
0.28406
0.0219211
0.0217822
0.0228275
0.102423
0.0218128
8.64995
0.0219572
0.0219616
0.0217812
0.420586
5.51948
0.0221549
0.0235953
0.0218835
0.0984932
0.0218081
0.0219563
0.630754
0.0222704
0.0215919
0.0221311
0.143909
0.0217947
0.0218746
4.59401
11.5043
0.592306
0.0431987
5.63249
0.0498211
0.021952
0.0219011
23.3293
0.0219581
0.0697162
0.0880531
0.04211
0.0266975
0.0223337
0.0305767
0.0228588
0.0216228
0.21339
6.34771
0.0433259
0.0217868
6.46136
0.0457882
6.73256
15.6468
0.100914
0.0221404
0.0219276
0.0218293
0.0602175
0.0221268
0.0218405
5.86978
0.153494
0.0418238
0.0219026
0.0667825
0.288475
0.0220971
0.0263947
0.0361483
0.145646
0.0748857
0.0220276
0.0233773
0.0381242
0.0218204
0.0490246
0.0223157
8.92632
0.0605996
0.13276
0.0217797
0.0372715
5.56645
3.7866
0.95493
0.0628814
9.66418
0.02213
0.0219532
0.0226725
0.0919744
0.0221696
0.0234206
0.0307228
0.0596957
0.0220033
0.0219554
0.0220154
0.022277
0.33023
3.60557
3.10676
0.0219975
8.80521
0.029635
0.0221552
0.0321278
0.0218765
0.0910242
0.0229769
0.0219661
4.88518
34.9362
5.27079
0.022357
24.886
0.0219641
5.03444
4.93946
0.0215424
0.0618566
0.276314
0.0216224
0.0219638
10.4427
0.0222687
0.0220219
0.190488
1.84756
0.0220298
0.0313344
0.0221508
0.0251851
0.136472
0.0221669
5.05341
0.0440387
0.021961
1.73017
0.0597323
0.083032
0.0222881
0.294666
0.0220608
6.25307
0.021967
0.0217722
15.013
0.0217023
5.4671
0.0219664
0.0557841
7.71667
6.06953
0.0219972
0.022339
0.0220309
0.0232406
0.0268872
0.0266673
0.0214872
9.15441
0.0218809
0.0219701
0.142914
0.203009
0.0433873
0.0220294
5.79104
0.0898794
0.0223761
0.0351404
0.021913
0.0217586
8.07139
0.0216316
0.0217761
0.0218157
5.67984
0.0218098
0.0218406
6.11731
0.025223
5.86691
0.0325263
0.0215137
0.0218801
6.65991
0.0259111
0.0220087
7.5749
5.62419
0.0217925
4.82069
0.128749
0.0219259
0.0220155
0.311574
0.0222209
0.874867
0.0333435
0.0220342
2.91564
11.1043
0.263552
0.0218887
6.91253
0.0299168
0.384148
0.731347
0.0219042
9.65657
0.0220135
0.0318344
0.0259864
5.87389
0.0216901
0.0223754
1.00902
0.0222732
0.0355049
0.0216968
0.0221024
6.28323
0.0905487
0.0252191
0.0359632
3.70881
0.0223059
0.0233304
0.0569
0.134486
0.0253952
0.0219511
0.0219202
0.0221464
0.0225813
0.0218482
0.0338026
0.0275308
1.36369
0.02201
7.95135
0.0219896
0.0283352
0.0219858
0.0360877
0.0220963
0.0219322
5.2986
5.12393
0.0240565
0.0220978
15.0691
0.0275725
14.8515
0.0365683
0.071043
5.34911
9.64268
3.95406
0.0230154
0.0219929
0.0218035
3.77798
0.021823
0.0220253
0.15036
0.0218485
0.022186
0.0220674
11.1827
4.02867
0.0221812
5.67234
6.25722
0.0239804
0.0219424
0.0221851
4.77573
0.0216822
0.0936757
0.0222883
0.0219857
0.0220691
0.0217606
0.0793964
0.0219701
0.0218952
0.0217795
0.0216228
0.303759
0.02161
0.021807
0.0221058
0.0219495
0.293116
0.629046
0.0587415
0.0226183
0.0220007
0.0221935
0.0222247
4.7216
0.0219339
0.0314836
0.0667768
5.11341
0.0219583
0.0219174
5.07422
0.0221259
0.102742
0.0842934
0.0224274
5.0083
4.71506
0.0309345
7.83489
0.0282121
0.120403
0.0214868
17.954
0.0220513
6.93561
0.0220535
0.0218456
3.4003
2.27518
0.422661
0.149607
0.0219068
6.98599
0.0221767
6.61138
0.0558905
0.0219351
0.021489
0.0219031
0.0524875
0.0608893
6.08906
0.0403942
0.021891
0.0219434
0.021919
11.0644
0.184643
0.0332761
0.0221456
0.0219074
0.0302406
1.02129
0.021929
0.0326158
0.0678009
0.0219334
0.023858
0.0231342
0.0603257
0.152798
0.0243998
0.077725
0.0215886
0.0220202
8.73505
0.0405772
0.0901595
3.05139
0.0216134
9.90811
15.0573
0.0502062
6.6613
0.0219366
5.02701
5.8159
0.107947
0.0217996
9.22513
0.143642
0.0219986
0.0388633
6.02294
0.0226718
0.021979
0.0396204
0.0222713
10.1676
0.030614
0.022053
0.0222822
0.0218785
0.0677112
0.0322232
9.18251
0.0965287
5.13154
0.0760178
0.022261
0.0219391
0.589059
12.8416
0.0219727
0.0218987
0.152604
0.0220982
0.304698
5.12637
9.72575
0.0219518
0.0219758
6.81287
0.0217641
6.28994
0.520105
0.0217164
5.69785
0.0609385
0.0813886
0.021975
17.1777
0.0220364
3.72821
0.0215056
0.0488672
0.022841
0.021692
8.08269
0.0227079
0.0219693
0.0233995
5.43652
0.022084
0.021603
5.02004
0.0219025
0.0216578
0.0221233
0.0250527
0.0220623
0.022186
0.0278993
0.0221801
0.0264101
0.02156
0.263551
7.0576
0.131287
5.30486
0.0278936
0.0263821
0.021881
0.0218325
0.0221284
7.69193
4.8831
0.021899
0.0222777
0.0219161
21.8618
0.0215963
0.317348
0.493875
4.66617
5.38096
8.14211
5.0705
0.0216365
4.66178
6.00256
5.14132
0.0261819
0.0221457
0.0414978
0.0216444
4.52862
0.12605
0.0614354
0.0269353
8.88316
0.0219962
0.0214836
5.25936
0.140305
0.0219938
0.0215244
0.0431501
0.0221226
15.7167
9.64927
6.51268
3.91013
0.0806457
2.91411
0.0218267
0.289189
0.0221131
0.0219577
0.0216483
5.51245
0.022148
0.0218253
1.91704
5.05759
0.258219
0.149387
0.0229325
0.0392745
10.8984
10.8119
5.09397
5.31805
0.117435
5.42885
0.216072
0.982282
0.0533304
0.0394493
0.021883
0.0361594
0.0316159
0.0220558
4.87134
0.0218127
0.0219894
0.0220045
6.65047
0.0256258
0.0218146
0.0218414
0.0219683
0.128435
0.0872922
3.67128
0.0227074
6.40959
0.0215163
0.0219182
0.0867737
0.068835
0.0215013
4.62474
0.0407794
5.7224
0.0219914
10.0139
0.0615436
0.0219249
0.0220628
0.021953
6.01017
6.01633
9.20946
0.0219863
0.022259
0.021577
5.79885
0.028249
0.0220691
1.38566
0.0219333
0.0226032
4.94122
0.0215999
0.0219524
0.0220745
0.0221142
0.0214795
0.022442
0.0215161
0.0222459
0.0805633
0.0400447
0.0218371
8.72273
0.0238054
6.27359
10.3248
0.0505329
5.43074
5.77731
0.0218083
0.0408945
0.0220307
0.0218461
6.05365
0.0262071
6.66706
0.0273568
0.122061
0.0220848
0.0232901
0.0219138
4.6811
0.0432039
5.30065
0.0220569
0.121666
0.0289245
0.0218031
0.0372369
0.040257
0.0215465
7.9751
0.022102
0.0399582
0.0220116
0.0305043
0.0492254
0.221625
0.0265958
0.0790529
6.479
0.0302639
0.0382673
0.0215965
6.7052
0.0599493
0.0222715
0.0739514
4.59638
17.1244
0.0219727
0.02289
0.0221728
0.0215836
0.0219319
5.07514
0.0283631
0.0220857
10.5587
0.0221164
0.0215901
0.025787
6.20582
0.0221812
10.9119
4.1768
0.100929
8.32097
0.0226282
5.82705
0.557023
0.0216171
0.028854
0.0220192
0.0223424
0.038393
7.59355
0.0617167
1.11212
0.367644
0.0219
6.74335
0.0219071
4.40164
0.022268
28.8879
3.82775
0.02216
0.021759
0.0222787
0.0324712
0.0879028
0.0219718
14.8841
0.0229918
0.0399573
0.0747948
0.0230916
0.0219235
3.60024
0.0217672
0.215482
0.0293354
21.841
0.0221279
0.02189
4.21325
0.0214626
0.0217587
0.0225533
0.0608288
0.0522464
0.280947
0.0243331
0.0217645
0.0251565
0.0222648
0.0225366
5.31005
0.0219427
0.0484586
5.52126
0.206375
0.0219492
0.0909595
0.0218643
0.0222088
0.408955
0.262589
0.0913171
0.0222394
0.0219495
0.0246954
0.0865846
0.0218904
0.0294709
0.021897
0.0222396
0.0218443
0.0220261
4.62552
0.0215554
9.93429
5.90677
0.0251012
0.0216831
5.18346
5.75276
0.0217969
0.0219733
12.8276
0.0223227
0.0643785
0.217306
2.13801
0.0219153
0.02282
0.0497796
0.0219824
6.83248
0.204621
0.021808
0.0311717
0.038347
0.0220916
0.289569
0.0221535
0.0501791
0.0228993
0.0248605
0.0215292
0.0218996
0.287803
0.0219757
5.69415
0.0648379
0.021993
0.0219824
0.0219855
0.0218693
5.14214
0.0222717
0.180734
0.021906
0.0218549
0.056901
6.03398
0.0217699
0.0215542
0.0219263
0.0225896
0.0301636
0.030336
4.42186
0.0282268
0.0218416
0.160833
5.54731
0.0222764
0.031336
4.96816
0.0360838
0.0224226
5.5617
0.0214795
8.19318
0.0412147
0.0220695
0.078015
0.021864
0.0219208
0.0219155
3.95751
0.022013
0.559003
5.55054
0.676664
0.0289314
0.0219666
5.04988
0.0222779
26.4197
0.0217239
0.302696
0.025811
0.0821603
0.0226842
3.79192
0.0292101
0.0222245
6.13221
6.84919
0.0215572
0.569704
0.0219901
0.0310538
0.0217397
29.5494
1.20635
0.0223175
0.0220354
5.14723
0.281269
0.0218561
0.0234735
0.0220341
0.0218083
0.0217138
0.0240451
5.57968
15.9089
0.0224824
0.205652
0.0236
0.0636516
0.0220038
28.629
6.05342
8.86179
0.0227293
5.52438
8.02892
0.0249367
0.0305133
0.021875
0.0478928
6.64303
0.0221725
0.0217141
0.0217677
0.0274216
0.0215839
0.0219846
1.78886
0.0231072
0.198957
0.0220215
0.0219728
0.0224671
0.0220445
0.194168
12.2486
0.0217899
0.0433067
0.0215395
6.11575
0.0218147
0.0242719
6.17024
2.48134
0.0261727
4.833
0.394616
0.0220676
0.060251
0.0221242
0.0329326
0.0222351
0.021925
0.162656
0.120054
4.71179
0.114474
0.0348525
7.18495
0.0232096
0.0421363
0.0227257
5.21511
4.57931
3.9779
0.0219477
0.0215144
7.44646
5.62371
0.0221307
5.09841
0.0221392
0.0268598
0.0214911
0.0218749
0.0218114
0.0218354
0.255516
0.0407019
0.0385994
0.0219723
0.0220207
0.0216434
0.0218257
0.0218155
0.0222628
0.0219315
5.06343
5.12303
5.25596
0.0236401
7.58445
0.0577095
6.55407
7.69783
0.0576901
0.0221132
0.0222422
0.194892
0.0224235
4.57225
9.42747
0.0225784
0.0216999
0.0304044
5.41425
0.0219977
6.16069
0.0218459
0.0221016
6.78609
0.0219234
0.0287188
0.0221651
4.56455
0.0215765
0.0219358
0.251388
0.0216181
0.0220585
0.0218962
0.0217005
0.067839
0.0218956
22.7672
0.0220243
0.0222173
0.0214708
8.54146
0.0342045
0.0222233
5.28047
0.0220886
0.0215533
0.232338
5.53816
0.0221103
6.14075
6.59193
0.0263457
5.0853
0.0221116
0.0219591
0.0891797
0.0216691
5.261
5.56682
0.0214869
0.0259303
0.0218803
7.64705
0.721715
0.0443338
0.0221441
0.584541
0.0363096
0.0526918
0.026807
0.0220291
0.0225351
0.0218946
0.0218104
5.83217
0.0214493
0.021812
0.0424497
9.06115
0.078992
6.24301
0.022015
0.0419888
0.0218872
0.021986
0.0220853
0.0217626
0.0221527
0.0219113
0.022102
0.0221725
0.0242364
0.0219884
0.0221431
0.0216828
8.50801
6.78741
0.0221914
0.0227477
5.54701
0.0222102
0.124718
5.06122
0.43135
6.80103
0.792245
6.90179
8.57872
7.2379
0.0217672
0.0302448
0.0218752
0.0502699
0.0246015
0.0222236
0.0217879
8.85877
0.0216282
0.029861
11.744
0.0215825
0.0217282
0.0763218
0.0217016
0.021898
0.0218855
0.0221732
5.38399
8.17411
0.0220389
0.0219365
0.0220584
0.0228752
0.0431535
0.0228761
13.1004
0.220914
0.022194
4.97028
0.0318548
0.0219339
6.73772
0.0215892
0.0491199
0.0217734
0.0223856
0.0224121
5.15319
0.0219326
0.0219632
0.0238908
0.0223078
0.0305407
0.0218221
3.6658
0.0401143
0.0440812
10.2031
6.88723
0.113915
0.0326592
4.97677
0.0220013
0.0220048
0.0252285
5.23656
0.0506079
0.0493524
8.64377
0.0219767
3.15379
0.250182
4.41724
0.0219991
0.0359455
0.0218724
0.133008
0.033408
0.757914
6.90904
0.0220165
0.0356685
0.0276912
0.0219133
0.955996
0.0219618
0.0298937
0.152645
0.0912736
0.0219434
0.0222948
0.0222284
0.0570041
0.0219511
0.0221837
0.0219567
0.022079
0.0216585
0.0379544
0.0215433
0.865421
4.84746
0.0225521
0.0217551
0.0215522
0.0423638
0.0345832
0.0221263
6.64897
0.0497613
0.0217706
0.0218167
5.24646
4.78942
0.0219384
0.205073
0.0349095
0.0220105
6.09137
0.0226055
0.074207
0.0222339
13.7873
6.81978
0.0222563
0.0353422
5.52815
0.0347574
7.56978
0.0222394
0.0254472
5.1508
6.91926
0.025253
0.0254143
0.0225599
0.0244147
0.0228539
6.38914
4.81175
4.62781
0.0234549
0.0219866
0.0583944
0.0219012
0.260477
0.0247695
9.70021
0.0215713
0.0221891
0.0217543
0.0218999
0.021844
0.0819577
7.48769
0.0299678
0.0216184
0.0221046
10.0405
0.0235565
0.023785
0.0221554
0.0360983
6.57356
0.0217041
0.0218555
0.0401636
0.0883269
0.0221145
0.0420883
0.0223229
0.0236996
0.125945
0.0287171
6.97562
1.41648
0.0470213
10.7221
0.0218559
0.0219002
0.0230679
6.23335
0.0232811
0.490754
0.0216948
5.39822
0.0362129
0.0218636
0.0300538
0.0223186
6.09143
0.0571801
0.0304055
0.261033
0.113044
0.0221509
0.0222003
0.0222283
0.0248322
5.30597
0.0510828
0.0221047
0.22222
0.0218454
6.27747
0.0219428
5.58663
0.0292331
6.4288
1.12411
0.0577003
0.0219599
0.0220057
0.0218676
6.86637
0.02198
0.0510324
7.25512
0.0215311
7.63695
0.0328306
0.0219498
0.0773131
0.0219126
0.0218275
5.79394
6.68733
6.36961
0.0218913
0.0217638
0.0227767
0.0243026
0.022937
0.0219434
10.6429
0.0762009
0.888195
0.0225179
0.042264
2.2683
1.26973
0.0302171
0.0217595
5.99577
0.0229186
5.20949
0.0218859
0.0220289
0.021979
0.0217202
0.0215287
0.0222315
0.021785
0.0368737
7.24386
0.0352806
5.00142
0.0250724
0.0222084
0.0221246
0.405093
0.0220239
0.0224958
0.0220464
4.89725
4.79973
0.0217808
0.0235862
0.0218638
0.0219706
0.0222784
0.0220654
0.021894
0.93608
0.0222491
0.021798
0.138047
0.0218255
3.50564
0.0833698
0.0886935
0.218691
0.0240076
0.0220795
5.46201
0.0220629
0.0741761
0.0287678
0.0217894
0.0501254
0.0220659
5.90104
0.0216066
0.0217927
6.6063
0.0571606
10.2494
0.021752
0.0952759
0.158564
0.0317106
4.32647
0.0218808
0.0217458
0.0216151
0.0902764
0.0227891
2.04797
0.0220064
0.0404024
6.09715
0.228939
0.0220157
0.873652
0.0253315
6.98872
0.0235536
0.0234152
0.0239712
4.73021
0.0219603
0.0223382
5.12375
0.0215585
0.0262078
0.021829
0.0463004
6.11992
7.39368
0.0218577
0.0958669
0.0220035
0.285228
0.022016
0.0224209
0.0853871
23.573
0.0393225
0.0219964
0.025415
5.39983
0.0590538
0.0850683
6.1299
0.0220252
11.4685
0.0229787
0.171785
0.0217874
0.0250871
5.69835
0.0254755
0.0219182
0.452821
7.43596
6.67496
0.0217028
4.49667
0.411946
0.0216128
0.157582
10.2444
0.0222781
0.022836
2.23475
0.0214928
0.0224196
0.0218288
0.0220595
0.121782
0.0891903
0.0343315
5.26473
0.022271
0.0579164
0.0297264
0.0222105
0.0232862
0.0337415
0.0219973
0.022227
8.0949
4.99796
8.35572
0.0216762
0.0377153
0.0221363
4.88674
0.0220945
0.0418204
7.69719
5.62125
0.0669405
0.0219575
0.479423
4.51213
1.75931
0.0220019
0.0221259
0.0218329
6.37556
0.0378268
0.160977
5.82538
0.0220533
0.0222113
5.70667
0.0287119
0.0918946
0.0221738
0.0218818
0.0219742
2.20868
0.0220192
0.0518962
0.0217517
0.0221117
0.0217926
5.22699
5.50118
0.0238066
0.505452
0.0229967
0.835584
0.0219083
0.0218969
0.0867808
0.0220587
0.0219189
0.0254289
0.10262
0.0290082
0.134767
0.0220382
0.0683877
5.74185
0.0221019
0.0220218
0.0220143
5.58365
0.0453749
0.0468773
0.0884301
0.0217748
0.0218552
0.137195
0.0257551
7.32191
8.65249
0.0358484
5.28632
4.26303
5.82055
0.0551232
0.0223113
0.0220003
0.283503
5.16147
0.0218709
0.0379875
4.92798
0.0221074
0.228579
1.28224
0.137751
0.0219165
0.0868516
0.022131
0.0221058
0.0216213
0.864457
0.0221086
0.0513299
0.036505
0.0219848
0.0221838
5.05549
0.0217793
0.0215927
0.0469231
1.83528
0.0368264
0.0220249
0.0398343
6.90575
4.5848
0.0281515
6.30951
0.0827637
0.118696
0.0586082
0.0220963
0.151553
0.0330331
0.0216522
0.0217205
0.0223698
0.0258185
0.299594
5.48068
0.0222182
0.667744
0.0758333
2.61601
11.6577
0.289619
4.93186
0.138546
4.7975
0.0499607
5.42059
0.0583075
0.021974
0.0221274
6.37254
4.43244
0.122279
4.86047
0.0218188
6.44038
5.23966
0.0220371
0.0216461
0.0376076
0.0636251
5.53266
10.652
0.111617
0.0218725
0.0218184
0.0222177
8.44691
0.0254834
4.38025
0.0245341
24.3197
0.208972
5.19478
0.0275887
5.24837
0.0218025
0.02159
0.0258158
0.0221635
5.68609
0.138585
4.8118
0.0220596
6.39794
4.9314
0.0215449
0.0421333
5.63469
0.0433054
0.0218703
0.0261344
0.0219764
5.27386
0.0214553
0.0223628
5.64373
0.0291679
0.0486363
0.0276805
0.0218132
0.0221955
0.041703
0.0220465
0.0216463
0.0218341
0.0299847
6.02845
3.20252
0.0219727
0.128655
6.47185
0.0221171
7.48813
6.76147
0.0220996
9.78748
0.0220766
0.099139
5.09097
0.0219625
0.0221663
0.0221952
0.0837268
0.0260829
0.0218588
6.36937
0.0219751
6.45673
0.0220406
6.12607
5.20851
0.0249822
0.0217373
0.172744
0.0833889
0.152284
3.85909
0.0439598
0.0221986
4.3926
0.022455
0.0816515
0.0730624
0.0299266
0.0623764
0.0218784
0.133126
4.7202
5.99378
0.116353
0.0218775
0.213798
5.13022
0.0222719
0.204451
0.109825
2.56838
0.021974
0.0250168
0.0214992
0.218561
6.93738
0.0831068
7.00285
0.0847342
0.0380386
5.47776
5.12672
5.24994
0.448374
9.51098
0.0711226
11.8724
0.05064
5.85204
5.76106
0.0232784
0.0223311
0.02701
0.0614093
0.0219989
0.0261487
0.0222616
0.0242263
0.0220059
0.0218719
6.52393
5.03165
0.0222036
0.0518415
0.0221065
0.0217936
0.023641
0.0830771
0.0234227
0.0902903
0.0221945
0.0435764
0.440108
0.102442
0.0458023
0.0219764
0.100475
0.0222202
0.0219244
0.606015
0.0228533
5.85271
0.190243
0.0219295
0.0243009
4.73135
0.0220771
0.0957268
0.0580304
0.0594887
0.0265051
0.0371388
0.0220114
0.0221679
5.54344
8.12918
0.0358297
0.0828677
0.0220383
5.24759
0.0255479
5.95581
0.0782766
0.0221106
0.0216801
6.96815
0.161519
6.57728
0.0280826
6.31084
0.0226607
5.86197
8.84456
0.0308513
0.146305
0.0218544
7.31244
0.0222354
10.3945
0.0287352
4.41434
5.00498
5.261
5.58776
0.036063
7.83869
0.169189
0.0494092
5.38791
4.42799
5.25775
0.0217124
0.0258664
0.0745607
7.53651
0.021881
0.0217875
0.0297463
0.0617007
10.671
0.058879
0.0451967
0.0219271
0.125108
0.0215427
0.202387
5.17662
1.18607
0.0217785
6.88944
0.0672152
0.0225365
5.63396
0.46625
0.0265096
5.3007
5.22236
4.62725
0.0558967
0.0218389
0.0289125
6.88292
0.0378212
0.0219789
7.38079
0.021494
7.0227
0.0232123
0.0221553
5.61857
5.29006
0.0218346
0.0527862
0.0219489
7.07392
0.021505
4.44275
0.153606
0.0423603
0.0219079
0.0220055
0.0221605
0.0377181
0.0503039
0.125492
0.02905
4.90248
0.0329867
0.0253259
6.824
4.5504
0.0216442
0.154842
0.0219602
5.77071
0.0220739
0.0429982
5.74993
0.0275221
0.0219265
5.46775
0.0222953
0.0222547
0.0465732
0.0222782
0.0218953
6.87185
0.0613761
5.6073
0.0222786
0.124763
0.0839519
0.0216443
0.0219233
0.0235851
0.0218438
5.53793
0.489484
4.51679
5.57066
4.29861
5.68373
0.0219172
0.0220108
0.0219406
0.0221547
0.109648
6.34592
0.0304804
0.0248303
4.78297
0.0222871
0.0217805
2.46852
0.135495
0.0214697
0.0219597
0.0218973
0.225416
0.0217562
0.0219276
0.158305
0.0342393
0.117066
0.0238608
5.80092
6.5658
0.0214625
0.0217198
5.30054
0.0340059
0.0251033
5.93984
0.0360513
0.11857
0.521732
0.0234678
0.445556
5.42948
0.0215372
0.0257711
5.17764
0.0252176
0.0220136
4.48466
0.0564831
0.0527288
0.0221735
0.324798
0.0238316
5.15348
0.0220363
0.0219748
0.0334376
0.0620056
6.15749
0.0360656
0.021967
24.7413
5.40064
0.024003
0.0762116
0.0220352
0.0218955
0.0217507
5.06496
0.0218545
6.87992
0.237785
5.5701
6.51878
0.035441
4.84712
0.0331231
6.14953
0.726563
0.119188
1.13425
0.0771018
0.093002
5.46384
0.0523498
0.022004
0.0220617
15.9669
0.0402605
0.0229969
0.0221665
6.79387
8.88707
0.0220943
4.71188
9.73746
0.0626006
0.477694
0.0406837
0.040353
0.0409232
0.0987635
5.54832
0.0275057
0.199198
0.232061
0.0217606
0.117627
0.0280117
5.96899
0.0675358
0.0219606
0.235043
0.0640044
0.0775048
0.549709
0.0225244
5.31101
0.200691
10.3092
6.97924
0.0221835
0.0220149
0.0218853
7.18307
5.38159
0.0830932
0.164026
0.0218522
0.0217325
0.0226181
0.0761783
3.79674
0.0534867
6.18255
0.0773669
0.357961
1.74538
0.021762
0.0559941
8.24769
7.22522
6.79337
4.79805
5.05787
0.0222314
5.44109
6.22255
5.27484
1.69027
0.0219323
6.51772
0.0225696
5.30387
0.0273571
12.0623
11.3136
3.61037
0.0221567
0.0219763
0.0766666
0.0237867
0.125865
0.0222724
0.0488447
0.0492185
0.0217984
0.0220015
0.0345237
0.021929
7.54159
0.0218853
0.0230628
6.36113
0.0636324
5.72071
0.121863
7.87722
0.0219227
0.0219763
0.022279
5.33857
7.63462
0.0220258
0.0501255
6.3403
9.04237
0.0218857
5.73769
5.2053
0.0218035
5.47615
0.0219066
0.0410537
0.0220123
0.0607354
0.0220724
0.134657
5.94535
0.0218583
0.0221592
6.47324
0.0357434
0.0216976
0.0220973
8.94528
0.0218729
0.0221972
5.12502
10.4314
5.61118
0.0913966
0.0219233
5.20929
6.48488
1.66173
0.0221662
0.0856124
0.0648678
0.0219588
0.251995
0.0218095
0.0218118
0.0218345
0.0564756
6.51608
5.8301
0.042481
0.158618
0.0218753
5.54605
0.0218233
0.0280552
0.0465019
0.023354
0.05276
0.0363402
0.0218635
0.112456
6.65665
0.0579494
18.5319
7.88879
0.0616271
0.0219617
0.0249759
0.247022
0.0295344
0.0221944
0.114575
7.87937
0.021706
6.92541
0.028575
0.021972
1.08158
6.83147
5.01701
0.0219714
0.026782
0.0249297
0.0551815
0.0499378
0.0218673
0.0219682
0.11141
1.07424
5.11359
0.0274335
0.0222795
0.0217437
0.176502
0.0220255
5.17056
0.0222728
0.0409017
7.73594
0.191574
7.00184
0.0220536
7.10432
4.85884
6.94361
0.0220037
0.0222339
0.053231
3.77637
0.021825
7.11682
0.0218685
0.0214941
6.56085
0.0221839
0.0563264
0.027938
0.0228957
0.0317703
0.0293139
0.0676547
0.046493
0.0390661
25.869
0.168833
4.34218
0.0469
0.0344769
0.0563517
4.78652
0.18541
0.0276535
0.0220816
6.56388
0.0226855
2.75948
0.198898
0.823474
0.021691
8.73354
0.0220584
2.01078
0.022589
0.835167
5.46246
0.0496078
11.4119
5.13086
8.03287
4.77789
6.16683
0.0638884
0.0219381
0.021803
0.795282
0.0218072
0.0219311
0.0219891
0.0404399
0.0233584
0.0345377
10.423
4.55346
0.131166
0.0276249
0.0274255
0.0215731
0.0254865
0.225075
0.22359