/*--------------------------------*- C++ -*----------------------------------*\
| =========                 |                                                 |
| \\      /  F ield         | OpenFOAM: The Open Source CFD Toolbox           |
|  \\    /   O peration     | Version:  v2012                                 |
|   \\  /    A nd           | Website:  www.openfoam.com                      |
|    \\/     M anipulation  |                                                 |
\*---------------------------------------------------------------------------*/
FoamFile
{
    version     2.0;
    format      ascii;
    class       volScalarField;
    location    "500";
    object      omega;
}
// * * * * * * * * * * * * * * * * * * * * * * * * * * * * * * * * * * * * * //

dimensions      [0 0 -1 0 0 0 0];


internalField   nonuniform List<scalar> 
18758
(
0.118251
7.1617
0.0214729
3.69825
6.28454
6.43322
7.44389
0.0217132
0.29234
0.0278088
0.0236766
9.58573
0.0220466
0.172779
0.0230957
0.625059
0.041387
0.0219425
0.0219298
0.0310276
7.38685
0.0222711
5.32607
2.07242
2.27033
0.0217174
1.65013
6.2202
8.58646
4.22786
0.0680896
5.62182
0.0221819
0.0226898
0.13919
0.0221716
0.0222265
0.0220059
0.0222648
0.0447288
0.0220033
0.0266463
0.0216469
0.0261935
2.29712
0.0216169
5.0734
0.0239762
0.0273613
0.0216144
0.141455
6.12081
0.0215424
0.0234491
6.0035
10.4466
0.0222172
0.3307
0.0219379
0.192657
0.0968856
6.39096
0.126699
0.0228643
0.0215519
0.0220135
0.0458125
0.0221775
0.0219268
6.00308
5.73268
0.0223258
0.0216209
14.1515
0.0216861
0.0219322
0.272943
6.23599
0.0885895
5.02168
5.67133
4.40222
0.192548
6.24056
0.277398
0.0303258
22.4965
0.125382
5.9264
0.0219319
6.00494
0.021939
14.0286
0.0270763
5.60267
12.6838
0.271515
0.0216851
0.0218896
6.29132
0.0325091
5.67261
0.0914061
0.0470471
7.45417
2.91324
4.75321
6.39834
0.0226353
0.0223044
16.1127
10.5654
0.0217574
0.022054
7.2831
10.8496
8.53003
0.0230948
7.20559
5.36501
0.0383391
0.0219587
10.4434
1.36079
0.56068
1.66842
6.55713
1.26437
11.2922
0.0220435
0.0429247
1.52093
13.9758
0.0492096
4.85074
0.023875
0.266679
0.0467413
0.0218875
0.0778599
0.0890977
0.238142
0.0219686
13.9667
0.0220078
0.0220181
10.0699
6.60703
0.0669463
6.88715
3.25391
1.34213
0.0302739
0.0222708
4.93712
0.0281394
6.35876
0.0239859
0.022181
0.0222888
0.0218051
0.189991
19.1029
0.0221735
0.0964631
8.39937
0.0219748
10.9399
0.219681
6.61218
5.2009
0.0219375
18.6422
6.22924
0.189709
1.8188
7.83397
0.0229616
0.0759726
0.0221185
0.0217954
31.9904
1.007
0.0216485
0.0252088
0.639586
0.0219112
9.06265
0.0216316
0.0219241
0.0494847
0.914168
0.0224212
0.0632641
0.0339701
0.12802
0.0316669
0.252617
0.0221483
0.0216401
0.0732701
0.0239183
0.0368021
0.0895941
0.0220352
0.0335198
0.0951698
0.0222788
8.03523
0.0274014
0.0219296
0.0495387
0.0222173
0.036525
0.0762166
5.97213
0.0825328
0.551741
0.0216321
6.52383
0.0219295
0.0226529
0.236234
7.91824
0.279349
0.0932457
0.0601879
0.0465486
0.0216057
0.0910046
0.0220071
0.127289
5.00866
0.280426
0.022063
0.0219132
0.0216075
0.0216419
10.904
0.0368298
0.0218321
0.812899
4.86429
0.02301
6.84636
38.6065
0.278328
0.0221782
5.63034
0.0297545
0.0221522
10.2724
0.0303944
0.0302511
0.0225355
0.0417122
0.585842
0.685507
0.0356393
0.0850342
0.0216663
0.0746609
0.0220328
0.0886854
0.0269443
0.234004
10.0242
0.0216371
0.0225195
0.436948
0.0224512
0.0249674
0.0893064
8.66748
10.614
0.0219608
0.123906
26.4566
2.37364
0.0226139
0.02174
0.0293129
0.0370356
0.0219605
23.1653
0.705817
4.42213
33.0423
5.27228
0.0216274
0.0214659
0.051599
6.67846
0.0255864
0.0853465
0.120982
0.0292845
5.40311
0.0218953
0.688108
6.34563
0.0216293
5.27764
0.0376972
0.0219535
0.033194
0.0906147
0.0228326
0.0221565
6.63861
4.11083
0.0219252
8.3374
5.39475
0.249695
0.0220189
0.0221226
0.796796
0.0229807
0.0216433
0.0217709
0.0230164
0.234621
0.0921458
0.0292783
0.0358239
0.0311756
0.0493606
0.0216511
0.0222785
1.14491
0.0556754
0.132607
3.65575
0.0259801
0.0223691
0.0220855
0.660323
5.5027
0.0216185
0.0219171
0.0216205
0.0237602
0.0440726
1.52035
0.0219589
0.0222013
0.0216044
0.833205
0.214964
0.190283
0.155751
0.0228644
0.816009
0.1114
0.0376007
0.0314476
8.87117
6.9932
0.865417
0.0220473
0.0332199
8.91656
8.44874
0.0249687
0.0216317
0.0609288
0.0219611
0.0302785
8.48587
3.58505
0.118464
0.0304538
8.3585
0.0219844
0.0239042
0.0218934
0.0222716
0.116252
0.0240618
7.46688
0.271677
0.0224578
0.0219299
7.33138
0.11624
0.283953
0.0219834
0.0533298
0.0217298
0.026049
0.0219589
0.0216466
8.80705
7.34499
4.07135
21.021
0.0219127
0.251336
4.83757
0.0426037
0.0217517
3.67148
0.0217692
0.0220675
0.021791
0.120101
0.0219507
0.0260698
0.144295
9.85793
0.021757
6.13474
0.0486624
0.022025
0.0257571
0.0219564
0.0219189
0.0285694
0.069847
0.0487593
26.7008
0.0399221
0.0220455
0.39248
5.87596
4.67705
5.34756
0.111291
0.0225444
0.0216471
0.0218354
0.0222361
0.118087
0.0427337
0.0321626
0.0362526
0.0303082
0.635766
0.0930851
0.0219501
0.0348192
5.44699
0.0228472
3.58746
0.0222046
0.0220826
4.75315
0.0280843
0.02245
0.581628
0.142895
0.0506802
10.0842
0.0219372
0.0226618
0.763328
8.43058
0.036022
0.0724208
0.178305
0.535262
26.2499
0.175961
0.0222976
0.145251
0.022052
0.120165
0.0231346
12.3553
0.0525237
6.34258
0.0320485
0.076529
0.0216303
2.15553
0.0216271
9.14438
0.0218976
0.357678
0.0220587
1.07563
0.0312536
0.022089
0.0218948
0.0217828
5.27134
11.7311
7.32399
0.0452357
0.0246222
0.0913032
0.0222702
0.0222874
6.20831
0.0218957
0.022063
0.123519
0.0220414
0.0705052
0.0908502
0.0220585
0.0219479
0.0279416
0.0227543
0.0286919
6.76791
0.0312981
0.0356969
0.0267295
0.0220497
3.68964
0.0223397
0.0226404
3.5799
10.3674
0.0727378
1.45954
0.0251842
0.0226107
7.49076
0.0219539
9.4063
0.325356
0.022083
6.77084
1.13339
0.0618069
0.0218615
0.053068
5.96226
0.0220086
0.0218639
0.0231533
0.0228194
0.0220355
0.0216995
0.0222939
10.3769
0.025201
8.31729
0.0219635
0.16162
8.44872
0.0220387
0.0216386
0.0251503
0.0221292
0.022683
0.0233212
0.0221065
0.123315
0.831857
0.0215407
6.02191
5.62095
0.0355269
0.143502
4.36562
0.0264207
0.0305413
0.0283922
5.85803
0.0251003
0.0455561
0.0220083
6.50696
0.0424927
0.216495
0.154068
7.23008
0.0250398
0.0219301
0.0604399
1.64354
0.0226206
0.447235
0.0222374
5.40727
0.0227745
0.0217906
0.0217791
0.0220474
5.67072
5.50268
0.0219971
0.288596
0.0306443
4.55972
7.79277
0.7564
4.51496
0.0219012
6.46055
0.062304
0.0219892
0.0468487
6.03613
6.00625
0.0226689
0.0225646
0.022018
0.0215084
6.85963
0.121649
6.07387
4.98998
0.022032
0.0221402
0.060066
0.022281
0.0218073
0.0232966
0.0229561
0.125771
0.0416824
0.219908
6.41284
0.072704
0.0220654
0.0274814
0.12028
6.32364
0.0435472
7.94185
0.0534639
0.0220018
0.280312
5.04068
0.0224799
0.021638
0.148193
5.8929
0.250438
0.022042
8.75151
30.9778
2.42092
0.0216079
6.68942
6.82059
22.9828
0.0240576
0.0221965
7.51908
0.0222945
0.204214
7.14393
0.235974
6.32818
0.089701
5.23294
0.0712922
0.0221013
0.0225452
6.4644
4.04547
8.11501
3.58223
0.0219532
0.204724
0.0222771
0.0610186
0.0907681
0.132965
0.0220876
0.0252092
0.238748
5.91407
5.98975
9.47509
0.0388369
0.0325518
0.283176
0.022238
0.0217065
0.0219533
0.0255207
0.0712604
0.0220359
0.0846224
0.021852
0.0220726
0.0219047
6.2769
0.0223267
0.0222696
0.0563319
0.0535578
0.0215455
11.5095
0.0219626
0.0217014
0.0560538
0.0368338
0.0248347
0.0228807
5.94721
0.0358897
0.0346275
4.99083
0.0346555
3.78121
0.026012
0.123306
28.0436
8.93777
0.0216302
5.85806
1.49981
0.0216861
5.70953
0.0220656
0.0218918
0.0398486
0.0219506
0.10933
6.18516
0.0216254
25.5144
0.0218757
0.0381125
4.05111
0.0215254
5.83124
0.0235342
0.0219827
0.0219153
0.0219499
0.259739
0.0730026
12.0264
0.0747447
6.17789
0.0601286
0.0220377
0.258748
8.3384
5.49143
0.0755803
0.185013
0.0612231
0.0266742
0.257642
0.0227082
6.23874
0.0220347
5.75421
0.0227579
0.0756364
0.0279809
0.0223399
8.67029
0.0225641
0.0218144
5.12398
0.0235735
0.0219074
0.0447722
0.0899554
0.266544
2.77126
2.44735
5.64564
0.0221327
0.0222051
7.11981
0.021993
0.868475
0.0965192
0.0237605
0.0220617
0.0328035
0.0219879
0.021946
0.0289234
0.754092
0.21874
0.15239
0.0628098
0.0221327
0.0602479
7.7949
0.0218609
0.0911969
0.0239062
6.11362
0.0232515
5.35131
0.0220293
1.86933
0.0222766
0.0867378
0.0219935
0.0251884
0.0297156
0.0215303
0.0216845
0.0215813
5.44264
33.4457
0.0326562
6.05223
0.0220075
0.0422008
0.028161
0.309716
5.2616
0.0327494
0.0215385
0.221958
0.0218541
0.0220068
0.0281855
9.62187
9.43177
2.63456
0.841617
0.0736821
0.0229471
0.0218963
4.97558
0.021895
4.82169
0.0276526
0.0221855
6.72416
6.96548
0.0220904
10.2472
0.0270688
0.103027
0.0964587
1.35479
6.84239
1.14233
0.0219984
0.0215021
6.40799
0.021969
0.0219255
0.0283064
0.0219864
5.10208
0.258609
0.0604665
5.50339
0.0494649
0.134478
0.02382
0.0219909
0.0215345
0.0217814
10.5668
7.95168
0.294368
0.0220577
0.0215317
0.030223
0.021841
0.0404297
0.0256713
2.92084
6.37922
0.0844228
0.295421
0.306272
0.0218869
0.247749
0.0218995
5.31433
1.47397
6.145
7.75607
0.0230024
0.0289967
5.17859
5.45682
6.87037
0.0449511
0.129023
6.19925
0.0220479
0.283244
1.56129
0.122908
0.022042
0.0219706
0.0416629
5.0784
3.10235
0.0964403
0.0219666
0.0248355
0.0288888
49.9225
0.0222788
0.630979
0.0218876
0.0227425
0.205892
0.021863
0.0220239
0.0232439
0.0270038
0.0219772
0.0226887
0.0216105
2.0923
0.361199
5.09816
0.0216317
0.0495729
0.0220134
0.268225
0.275934
0.0369718
0.0218912
0.0228538
0.594854
0.137218
0.0290615
8.5254
0.118919
0.0219454
0.0220318
3.88884
6.08928
0.0621586
0.0216158
0.598903
0.0221258
0.0363927
0.0216657
1.3057
5.02076
0.0218602
0.0220175
5.87119
0.0219381
6.56746
8.45093
0.0595579
0.0222583
0.0221658
0.0216612
0.0220358
25.1148
10.5088
0.139307
0.0228494
5.27149
0.0219445
0.0219258
7.77474
0.0217489
6.55894
0.0215113
0.0288266
0.0233085
0.0219299
0.0218428
0.0221206
5.36673
0.022477
0.0221942
0.155399
0.042029
0.0219733
0.0592471
0.0368232
0.022126
0.279576
0.0219782
0.0369617
5.43883
0.0921718
0.0219535
0.287007
0.0926236
0.0893997
0.0265543
0.065482
8.58781
0.0244338
0.0606498
0.0219496
0.0215873
0.0220093
0.043071
0.0366053
0.0458698
0.0218636
0.0275179
0.0624393
6.28054
0.284118
0.0219211
0.0217822
0.0228277
0.1024
0.0218128
8.64637
0.0219572
0.0219615
0.0217812
0.420379
5.51515
0.0221549
0.0235952
0.0218835
0.0985475
0.0218081
0.0219563
0.633089
0.0222704
0.0215919
0.0221311
0.14363
0.0217947
0.0218746
4.60059
11.4951
0.592375
0.043198
5.62813
0.0498231
0.021952
0.0219011
23.3337
0.0219581
0.0697429
0.0881039
0.0421121
0.0266977
0.0223335
0.0305769
0.0228589
0.0216228
0.214075
6.34876
0.0433258
0.0217868
6.46098
0.0458009
6.73033
15.5835
0.100991
0.0221403
0.0219276
0.0218293
0.0602469
0.0221268
0.0218405
5.86436
0.1545
0.0418307
0.0219026
0.0667778
0.288465
0.0220971
0.0263941
0.0361479
0.145808
0.0749162
0.0220275
0.0233774
0.0381261
0.0218204
0.0490226
0.0223157
9.29631
0.0605968
0.132715
0.0217797
0.037271
5.56185
3.79036
1.00105
0.0628789
9.65973
0.02213
0.0219533
0.0226725
0.091941
0.0221696
0.0234205
0.0307245
0.0597255
0.0220033
0.0219554
0.0220154
0.022277
0.3295
3.60432
3.11505
0.0219975
8.80048
0.0296356
0.0221552
0.0321297
0.0218765
0.0910139
0.0229771
0.0219661
4.88346
34.9204
5.26744
0.0223569
24.8725
0.0219641
5.03767
4.93767
0.0215424
0.0618856
0.276354
0.0216224
0.0219638
10.484
0.0222686
0.0220219
0.191275
1.81505
0.0220298
0.0313355
0.0221508
0.025185
0.136531
0.0221669
5.05114
0.0440496
0.021961
1.72129
0.0597359
0.0830673
0.0222881
0.294657
0.0220607
6.25302
0.0219671
0.0217721
15.0151
0.0217023
5.46302
0.0219664
0.0557818
7.71425
6.07188
0.021997
0.0223388
0.0220309
0.0232403
0.0268874
0.0266685
0.0214872
9.152
0.0218809
0.0219701
0.142553
0.20292
0.0433867
0.0220294
5.80561
0.0898791
0.0223761
0.03514
0.021913
0.0217586
8.06907
0.0216316
0.0217761
0.0218158
5.67479
0.0218098
0.0218405
6.11594
0.0252229
5.86903
0.0325283
0.0215137
0.0218801
6.66027
0.0259096
0.0220087
7.57191
5.62572
0.0217925
4.82449
0.128714
0.0219259
0.0220154
0.311596
0.0222209
0.864863
0.0333433
0.0220342
2.95506
11.1106
0.2635
0.0218887
6.91449
0.0299167
0.380958
0.734041
0.0219041
9.66046
0.0220135
0.0318346
0.0259848
5.87963
0.02169
0.0223753
1.00426
0.0222732
0.0355056
0.0216968
0.0221022
6.28474
0.0905249
0.0252192
0.0359629
3.71332
0.0223058
0.0233306
0.0569028
0.134559
0.0253949
0.0219511
0.0219202
0.0221464
0.0225813
0.0218482
0.0338038
0.027531
1.32007
0.02201
7.93912
0.0219895
0.0283349
0.0219858
0.0360881
0.0220961
0.0219322
5.30091
5.12175
0.0240566
0.0220977
15.0664
0.0275727
14.8541
0.0365677
0.0710377
5.35238
9.6405
3.95973
0.023015
0.0219929
0.0218035
3.78192
0.0218231
0.0220253
0.150378
0.0218484
0.022186
0.0220674
11.1759
4.03282
0.0221812
5.6694
6.25936
0.0239803
0.0219424
0.0221849
4.7837
0.0216822
0.0937611
0.0222883
0.0219857
0.0220691
0.0217605
0.079432
0.0219701
0.0218952
0.0217796
0.0216228
0.303717
0.02161
0.021807
0.0221058
0.0219495
0.293269
0.626942
0.0587452
0.0226184
0.0220006
0.0221935
0.0222247
4.72648
0.0219338
0.031484
0.0667597
5.11644
0.0219583
0.0219174
5.07345
0.0221259
0.102733
0.0842886
0.0224274
5.00606
4.72328
0.0309348
7.83131
0.0282124
0.120496
0.0214868
17.9427
0.0220513
6.74108
0.0220535
0.0218455
3.42853
2.19707
0.420008
0.151212
0.0219068
6.98382
0.0221767
6.60741
0.0559003
0.0219351
0.021489
0.0219031
0.0524858
0.060873
6.08704
0.0404026
0.0218909
0.0219434
0.021919
11.0608
0.184643
0.0332764
0.0221456
0.0219074
0.030241
1.02912
0.021929
0.0326159
0.0678067
0.0219334
0.0238578
0.0231341
0.0603322
0.152768
0.0244
0.0777085
0.0215887
0.0220202
8.73682
0.0405762
0.0901489
3.07167
0.0216134
9.90669
15.0513
0.0502672
6.65965
0.0219366
5.02228
5.81529
0.108029
0.0217996
9.22623
0.14371
0.0219986
0.0388683
6.02594
0.0226719
0.021979
0.0396196
0.0222713
10.1725
0.0306144
0.022053
0.0222822
0.0218785
0.0677062
0.0322226
9.18037
0.0966042
5.13423
0.0760106
0.022261
0.0219391
0.607567
12.8355
0.0219727
0.0218986
0.152451
0.0220982
0.304909
5.12248
9.72687
0.0219518
0.0219756
6.80856
0.0217641
6.29206
0.519378
0.0217164
5.69703
0.060939
0.0811951
0.021975
17.1776
0.0220364
3.7288
0.0215056
0.0488766
0.0228408
0.021692
8.07994
0.0227077
0.0219692
0.0233995
5.44007
0.022084
0.021603
5.01795
0.0219025
0.0216579
0.0221233
0.0250514
0.0220623
0.022186
0.0278993
0.0221801
0.0264098
0.02156
0.263554
7.05946
0.131281
5.30699
0.0278931
0.0263822
0.0218809
0.0218325
0.0221283
7.69348
4.88689
0.0218991
0.0222777
0.0219161
21.8267
0.0215963
0.318018
0.494483
4.67437
5.37715
8.14809
5.07413
0.0216365
4.66406
6.00481
5.13889
0.0261822
0.0221456
0.041507
0.0216444
4.52394
0.126121
0.0614409
0.0269353
8.88639
0.0219962
0.0214835
5.25666
0.140359
0.0219938
0.0215244
0.0431613
0.0221226
15.7128
9.68719
6.51117
3.9151
0.0806915
2.913
0.0218267
0.289436
0.0221131
0.0219578
0.0216484
5.51471
0.0221481
0.0218254
1.88692
5.05828
0.255961
0.14944
0.0229327
0.0392739
10.903
10.8059
5.08976
5.31944
0.117523
5.42487
0.215937
0.986091
0.053335
0.0394552
0.0218829
0.0361608
0.0316149
0.0220558
4.86804
0.0218127
0.0219893
0.0220046
6.64752
0.0256258
0.0218146
0.0218413
0.0219684
0.128438
0.0873085
3.68987
0.0227072
6.41377
0.0215163
0.0219182
0.0867857
0.0688077
0.0215013
4.63284
0.0407882
5.721
0.0219914
10.0193
0.0615171
0.0219249
0.0220628
0.021953
6.00926
6.0134
9.20519
0.0219863
0.0222588
0.021577
5.79775
0.0282489
0.022069
1.39386
0.0219333
0.0226034
4.94481
0.0215999
0.0219524
0.0220745
0.0221142
0.0214795
0.0224418
0.0215161
0.0222457
0.0806096
0.0400446
0.0218371
8.71804
0.0238054
6.27382
10.3188
0.0505315
5.43055
5.77598
0.0218083
0.0409029
0.0220307
0.021846
6.05317
0.0262074
6.66587
0.0273569
0.122155
0.0220846
0.02329
0.0219138
4.68894
0.0432097
5.30204
0.0220569
0.121656
0.0289249
0.0218031
0.0372409
0.0402639
0.0215465
7.97225
0.022102
0.0399666
0.0220116
0.0305049
0.0492227
0.221737
0.0265961
0.0791
6.43058
0.0302644
0.0382714
0.0215965
6.70328
0.0599449
0.0222715
0.0739388
4.43772
17.0937
0.0219728
0.0228901
0.0221728
0.0215836
0.0219318
5.07822
0.0283635
0.0220857
10.5623
0.0221164
0.0215901
0.0257873
6.20766
0.0221812
10.921
4.18102
0.101036
8.325
0.0226281
5.82621
0.558557
0.0216171
0.0288545
0.0220191
0.0223423
0.0383982
7.59038
0.0617455
1.12752
0.370411
0.0218999
6.7418
0.0219072
4.40868
0.022268
28.8911
3.83195
0.02216
0.0217591
0.0222787
0.0324733
0.0879102
0.0219718
14.8431
0.0229915
0.0399626
0.0747788
0.0230918
0.0219235
3.59866
0.0217672
0.215619
0.0293359
21.8343
0.0221279
0.0218899
4.21958
0.0214626
0.0217587
0.0225534
0.0608242
0.0522559
0.281071
0.0243331
0.0217645
0.0251565
0.0222649
0.0225366
5.30647
0.0219427
0.048456
5.51906
0.206491
0.0219493
0.0909509
0.0218643
0.0222088
0.405725
0.259232
0.091316
0.0222394
0.0219495
0.0246951
0.0866373
0.0218904
0.0294683
0.0218969
0.0222397
0.0218443
0.0220261
4.63355
0.0215554
9.93531
5.90521
0.0251015
0.0216831
5.17954
5.75442
0.0217969
0.0219734
12.8316
0.0223227
0.0643636
0.217341
2.01356
0.0219154
0.0228198
0.0497787
0.0219824
6.82696
0.204895
0.021808
0.0311717
0.0383462
0.0220916
0.289492
0.0221535
0.0501802
0.0228995
0.0248606
0.0215293
0.0218995
0.288339
0.0219756
5.69045
0.064879
0.021993
0.0219824
0.0219855
0.0218692
5.13947
0.0222717
0.181193
0.021906
0.0218549
0.0568984
6.03555
0.0217699
0.0215542
0.0219262
0.0225898
0.0301635
0.030336
4.42683
0.0282245
0.0218416
0.160836
5.54347
0.0222764
0.0313373
4.97147
0.0360844
0.0224227
5.36339
0.0214795
8.19932
0.0412221
0.0220695
0.0780737
0.021864
0.0219208
0.0219155
3.96328
0.022013
0.559193
5.54693
0.67945
0.0289289
0.0219666
5.04571
0.0222779
26.4107
0.021724
0.302468
0.025811
0.082225
0.022684
3.79066
0.0292107
0.0222245
6.134
6.852
0.0215572
0.569216
0.0219901
0.0310538
0.0217397
29.5332
1.216
0.0223174
0.0220353
5.15522
0.281145
0.0218561
0.0234735
0.0220341
0.0218083
0.0217138
0.024045
5.57707
15.9019
0.0224823
0.205643
0.0235991
0.0636918
0.0220038
28.6149
6.05283
8.85752
0.0227291
5.51991
8.02688
0.0249368
0.0305137
0.021875
0.0479036
6.64602
0.0221725
0.0217141
0.0217677
0.0274217
0.0215839
0.0219846
1.80369
0.0231071
0.198883
0.0220214
0.0219728
0.022467
0.0220445
0.194159
12.2528
0.0217899
0.0433173
0.0215395
6.114
0.0218147
0.0242719
6.17391
2.44848
0.0261733
4.83944
0.395826
0.0220676
0.0602407
0.022124
0.0329352
0.0222351
0.021925
0.162681
0.120084
4.71718
0.11456
0.034849
7.17653
0.023209
0.0421392
0.0227256
5.21212
4.58722
3.97832
0.0219477
0.0215144
7.45025
5.62326
0.0221307
5.09386
0.0221391
0.0268599
0.0214912
0.021875
0.0218114
0.0218354
0.255501
0.0406985
0.0385986
0.0219723
0.0220207
0.0216434
0.0218257
0.0218155
0.0222628
0.0219316
5.06782
5.1267
5.25526
0.0236403
7.58236
0.057714
6.54725
7.69581
0.0576942
0.0221132
0.022242
0.194886
0.0224234
4.56755
9.43429
0.0225785
0.0216999
0.0304037
5.41525
0.0219977
6.15897
0.021846
0.0221016
6.7787
0.0219234
0.028719
0.0221651
4.5679
0.0215765
0.0219358
0.251427
0.0216181
0.0220585
0.0218961
0.0217005
0.0677765
0.0218955
22.7493
0.0220243
0.0222173
0.0214708
8.53883
0.0342041
0.0222231
5.27719
0.0220886
0.0215533
0.232305
5.53875
0.0221101
6.13469
6.59083
0.0263457
5.08924
0.0221116
0.0219591
0.0892542
0.0216692
5.2616
5.56834
0.0214869
0.025929
0.0218802
7.64335
0.723784
0.0443432
0.0221441
0.586549
0.0363097
0.052701
0.0268071
0.0220291
0.022535
0.0218946
0.0218103
5.83224
0.0214493
0.0218119
0.0424532
9.05788
0.0790386
6.23916
0.022015
0.0419821
0.0218872
0.021986
0.0220853
0.0217626
0.0221527
0.0219114
0.022102
0.0221725
0.0242361
0.0219884
0.0221431
0.0216828
8.50294
6.78
0.0221914
0.0227475
5.55318
0.0222102
0.124811
5.06372
0.429396
6.79403
0.812434
6.8954
8.76492
7.23987
0.0217673
0.030245
0.0218751
0.0502673
0.0246016
0.0222236
0.0217879
8.861
0.0216282
0.0298609
11.7476
0.0215825
0.0217283
0.076311
0.0217016
0.0218979
0.0218855
0.0221731
5.38456
8.1693
0.0220389
0.0219364
0.0220584
0.0228754
0.0431569
0.0228763
13.1541
0.220157
0.022194
4.96836
0.0318566
0.0219339
6.74213
0.0215892
0.0491326
0.0217734
0.0223857
0.0224121
5.15225
0.0219325
0.0219632
0.0238906
0.0223078
0.0305409
0.0218221
3.66506
0.0401145
0.0440864
10.2192
6.88319
0.113999
0.0326616
4.97238
0.0220012
0.0220048
0.0252284
5.23782
0.0506236
0.0493497
8.65916
0.0219767
3.26264
0.252025
4.42794
0.0219991
0.0359456
0.0218723
0.132964
0.0334084
0.761861
6.90596
0.0220165
0.0356682
0.0276894
0.0219133
0.968296
0.0219619
0.0298928
0.152631
0.0912597
0.0219434
0.0222948
0.0222284
0.0570028
0.0219511
0.0221836
0.0219568
0.022079
0.0216585
0.0379584
0.0215433
0.826828
4.85202
0.0225521
0.0217551
0.0215522
0.0423634
0.0345876
0.0221263
6.65169
0.0498098
0.0217706
0.0218167
5.24428
4.79448
0.0219384
0.205205
0.0349098
0.0220106
6.08836
0.0226054
0.0741934
0.0222339
13.7829
6.8165
0.0222563
0.0353454
5.53035
0.034757
7.56864
0.0222394
0.0254474
5.15377
6.91725
0.025253
0.0254143
0.0225601
0.0244147
0.0228536
6.3889
4.81654
4.63363
0.0234542
0.0219867
0.0584195
0.0219011
0.262802
0.0247699
9.70767
0.0215713
0.0221891
0.0217543
0.0218999
0.021844
0.0820026
7.48459
0.0299679
0.0216184
0.0221046
10.0344
0.0235568
0.0237852
0.0221554
0.0361
6.57764
0.0217041
0.0218556
0.0401702
0.0883382
0.0221145
0.0420935
0.0223228
0.0236999
0.126036
0.0287173
6.97331
1.42711
0.0470958
10.7232
0.0218559
0.0219001
0.0230681
6.22654
0.023281
0.490761
0.0216948
5.40006
0.0362143
0.0218635
0.0300538
0.0223185
6.09453
0.0571813
0.030406
0.259411
0.113134
0.0221509
0.0222003
0.0222283
0.0248321
5.30869
0.0511048
0.0221047
0.222262
0.0218455
6.27054
0.0219428
5.58199
0.0292338
6.42161
1.13215
0.0576843
0.0219599
0.0220057
0.0218676
6.863
0.02198
0.051053
7.25693
0.0215311
7.64685
0.0328312
0.0219498
0.0773686
0.0219126
0.0218275
5.79343
6.68602
6.37519
0.0218912
0.0217638
0.0227768
0.0243024
0.022937
0.0219434
10.6422
0.0762573
0.877197
0.0225178
0.0422633
2.2785
1.26877
0.0302176
0.0217595
5.99277
0.0229188
5.21208
0.0218858
0.0220289
0.0219791
0.0217202
0.0215287
0.0222314
0.021785
0.0368745
7.24151
0.0352836
5.00507
0.0250726
0.0222084
0.0221246
0.405068
0.0220239
0.0224958
0.0220464
4.89535
4.79905
0.0217808
0.0235854
0.0218638
0.0219706
0.0222784
0.0220654
0.021894
0.923011
0.0222489
0.0217981
0.138003
0.0218254
3.51321
0.083426
0.0887705
0.218752
0.0240073
0.0220795
5.46827
0.022063
0.0742307
0.0287654
0.0217894
0.0501227
0.0220658
5.89565
0.0216066
0.0217927
6.60484
0.0571632
10.2451
0.021752
0.0953162
0.158564
0.0317109
4.3331
0.0218808
0.0217458
0.0216151
0.0902764
0.0227889
2.05975
0.0220064
0.0404106
6.10042
0.229031
0.0220157
0.863563
0.0253307
6.9909
0.0235536
0.0234149
0.023971
4.73185
0.0219603
0.0223382
5.12172
0.0215585
0.0262079
0.0218289
0.0462897
6.12338
7.39147
0.0218577
0.0959025
0.0220035
0.285075
0.0220161
0.022421
0.0854578
23.5548
0.0393222
0.0219965
0.0254152
5.39851
0.0590494
0.0851076
6.12411
0.0220252
11.4611
0.0229787
0.171607
0.0217875
0.0250871
5.69639
0.0254755
0.0219182
0.449863
7.43671
6.67312
0.0217028
4.50444
0.412019
0.0216128
0.157751
10.2506
0.0222781
0.0228357
2.22879
0.0214928
0.0224197
0.0218288
0.0220595
0.121806
0.0891966
0.0343316
5.26796
0.022271
0.0579265
0.0297261
0.0222103
0.023286
0.0337407
0.0219973
0.022227
8.09235
4.9981
8.36404
0.0216762
0.0377175
0.0221363
4.89245
0.0220945
0.0418203
7.69454
5.61912
0.0669426
0.0219575
0.476
4.51545
1.77073
0.0220019
0.0221258
0.0218329
6.36901
0.0378285
0.160976
5.82175
0.0220534
0.0222113
5.70726
0.0287123
0.0918787
0.0221738
0.0218817
0.0219742
2.23333
0.0220192
0.0519196
0.0217518
0.0221117
0.0217926
5.22768
5.50086
0.0238067
0.502755
0.0229969
0.839371
0.0219083
0.0218969
0.0868346
0.0220586
0.0219189
0.0254283
0.102602
0.0290089
0.134718
0.0220381
0.0684157
5.73749
0.0221017
0.0220218
0.0220142
5.57997
0.0453729
0.0468388
0.0884828
0.0217748
0.0218552
0.137123
0.0257547
7.27438
8.65203
0.035848
5.28656
4.2648
5.82192
0.0551439
0.0223111
0.0220003
0.283589
5.15921
0.0218709
0.037987
4.9305
0.0221074
0.228719
1.36809
0.137838
0.0219165
0.0869169
0.0221309
0.0221058
0.0216213
0.866195
0.0221087
0.0513465
0.036505
0.0219848
0.0221838
5.05395
0.0217793
0.0215927
0.0469362
1.85419
0.0368313
0.0220249
0.0398337
6.90666
4.59249
0.0281519
6.31114
0.0828249
0.11868
0.0586049
0.0220963
0.151592
0.033055
0.0216522
0.0217205
0.0223698
0.0258183
0.299687
5.48117
0.0222182
0.66713
0.0758164
2.46832
11.6648
0.289747
4.93701
0.138615
4.80203
0.0499646
5.42097
0.0583381
0.0219741
0.0221274
6.36552
4.43781
0.122352
4.86167
0.0218188
6.44063
5.24218
0.0220371
0.0216461
0.0376067
0.0636415
5.53594
10.6537
0.111472
0.0218725
0.0218185
0.0222177
8.44521
0.0254834
4.38296
0.0245337
24.3257
0.208916
5.19901
0.0275889
5.25553
0.0218025
0.02159
0.0258162
0.0221635
5.68648
0.138516
4.81791
0.0220596
6.40071
4.92724
0.0215449
0.0421328
5.63538
0.0433109
0.0218703
0.0261334
0.0219764
5.27365
0.0214553
0.0223626
5.64248
0.0291686
0.0486426
0.027681
0.0218132
0.0221953
0.0417019
0.0220465
0.0216464
0.0218341
0.0299857
6.02711
3.18581
0.0219727
0.12859
6.47331
0.0221171
7.487
6.76329
0.0220996
9.79381
0.0220766
0.0991776
5.08788
0.0219626
0.0221663
0.0221953
0.0837948
0.026083
0.0218588
6.36981
0.021975
6.45491
0.0220406
6.1286
5.20634
0.0249826
0.0217373
0.172754
0.0833825
0.152388
3.86198
0.0439734
0.0221986
4.39662
0.0224551
0.0817068
0.073095
0.0299265
0.0623691
0.0218783
0.13319
4.72506
5.99393
0.116363
0.0218775
0.2139
5.13483
0.0222719
0.203253
0.109898
2.56711
0.0219738
0.0250167
0.0214992
0.218701
6.93069
0.0831733
6.99693
0.0847294
0.0380444
5.47882
5.12456
5.25277
0.448563
9.5121
0.0711475
11.8742
0.0506618
5.84672
5.75823
0.0232786
0.0223309
0.0270101
0.0614102
0.0219989
0.026149
0.0222616
0.024226
0.0220059
0.0218718
6.51979
5.02942
0.0222036
0.0518391
0.0221065
0.0217936
0.0236403
0.0830692
0.0234229
0.0902611
0.0221944
0.0435745
0.439669
0.102419
0.0457991
0.0219764
0.100441
0.0222202
0.0219244
0.604178
0.0228531
5.85323
0.190249
0.0219295
0.0243004
4.72932
0.0220771
0.0957146
0.0580261
0.0594847
0.0265053
0.0371382
0.0220115
0.0221679
5.54401
8.13441
0.0358317
0.0828691
0.0220383
5.25167
0.0255476
5.95128
0.0782609
0.0221106
0.0216801
6.96447
0.161585
6.57626
0.0280827
6.30408
0.0226605
5.86154
8.8438
0.0308483
0.146286
0.0218544
7.3109
0.0222353
10.3962
0.0287354
4.41763
5.0029
5.26101
5.58894
0.0360597
7.83647
0.169296
0.0494089
5.3856
4.43365
5.26022
0.0217124
0.0258665
0.0746724
7.54118
0.0218809
0.0217875
0.0297464
0.0616957
10.6715
0.0588707
0.0451946
0.0219271
0.12506
0.0215427
0.202448
5.17298
1.19459
0.0217785
6.8881
0.0672138
0.0225364
5.63569
0.465834
0.0265087
5.30283
5.22342
4.62623
0.0558937
0.0218389
0.0289131
6.88007
0.0378213
0.0219789
7.37918
0.021494
7.01569
0.0232125
0.0221553
5.62474
5.29026
0.0218346
0.0527867
0.0219489
7.07799
0.021505
4.44679
0.153677
0.042382
0.0219079
0.0220055
0.0221605
0.0377236
0.0503241
0.125438
0.0290504
4.90575
0.0329862
0.0253261
6.82126
4.54691
0.0216442
0.155211
0.0219601
5.76845
0.0220739
0.0429997
5.74457
0.0275223
0.0219265
5.46883
0.0222952
0.0222547
0.046571
0.0222782
0.0218953
6.86706
0.0614109
5.60434
0.0222786
0.124729
0.0840157
0.0216443
0.0219233
0.0235853
0.0218439
5.53644
0.488523
4.51347
5.5748
4.30261
5.68181
0.0219172
0.0220108
0.0219407
0.0221545
0.109625
6.34734
0.0304802
0.0248305
4.7912
0.022287
0.0217805
2.56479
0.135536
0.0214697
0.0219597
0.0218972
0.225546
0.0217562
0.0219276
0.158272
0.0342388
0.117143
0.0238607
5.80256
6.56153
0.0214625
0.0217198
5.29864
0.0340057
0.0251036
5.93738
0.0360527
0.118551
0.522005
0.0234674
0.445929
5.42837
0.0215372
0.0257714
5.18054
0.0252176
0.0220136
4.49724
0.0564828
0.0527513
0.0221733
0.328548
0.0238308
5.1562
0.0220362
0.0219748
0.0334372
0.0620048
6.15729
0.0360658
0.0219669
24.7419
5.40312
0.0240032
0.0761967
0.0220352
0.0218955
0.0217507
5.06558
0.0218544
6.8791
0.236395
5.57186
6.51771
0.0354406
4.8405
0.0331227
6.14881
0.730263
0.119161
1.14315
0.0770929
0.092992
5.46198
0.0523566
0.022004
0.0220617
15.9687
0.0402596
0.0229971
0.0221664
6.7913
8.88639
0.0220943
4.71041
9.7377
0.0626408
0.478148
0.0406829
0.040345
0.0409322
0.0987338
5.54836
0.0275059
0.199248
0.232311
0.0217606
0.117712
0.028012
5.96985
0.067554
0.0219607
0.235228
0.0640052
0.0774927
0.548399
0.0225243
5.31106
0.200753
10.3092
6.97403
0.0221835
0.0220149
0.0218852
7.18324
5.38168
0.0831016
0.164123
0.0218522
0.0217325
0.0226179
0.0762325
3.80013
0.0534877
6.17976
0.077367
0.357277
1.75098
0.021762
0.0560027
8.25264
7.22322
6.78869
4.80438
5.06597
0.0222314
5.44348
6.22265
5.27468
1.68907
0.0219323
6.5176
0.0225696
5.3042
0.0273571
12.0637
11.3158
3.60976
0.0221567
0.0219763
0.0766675
0.0237866
0.125908
0.0222724
0.0488421
0.0492173
0.0217984
0.0220015
0.0345243
0.021929
7.53764
0.0218853
0.0230628
6.36093
0.0636711
5.72436
0.121929
7.87491
0.0219227
0.0219763
0.0222789
5.33965
7.63235
0.0220258
0.0501353
6.33544
9.04176
0.0218857
5.7436
5.20686
0.0218035
5.47752
0.0219066
0.0410587
0.0220123
0.0607345
0.0220724
0.134577
5.94276
0.0218583
0.0221592
6.46748
0.0357428
0.0216976
0.0220973
8.9452
0.0218729
0.022197
5.12856
10.4265
5.61464
0.091445
0.0219233
5.21132
6.48418
1.66118
0.0221662
0.0856797
0.0649081
0.0219588
0.252054
0.0218095
0.0218118
0.0218345
0.0564941
6.5096
5.83327
0.0424722
0.158718
0.0218753
5.54843
0.0218233
0.0280556
0.0464999
0.0233541
0.0527678
0.0363402
0.0218635
0.112571
6.64962
0.0579588
18.5396
7.88703
0.0616248
0.0219617
0.0249757
0.247091
0.0295347
0.0221944
0.114646
7.88278
0.021706
6.91803
0.0285751
0.0219719
1.11304
6.82886
5.0158
0.0219714
0.0267821
0.0249297
0.0551785
0.049939
0.0218674
0.0219682
0.111378
1.02441
5.11094
0.0274335
0.0222795
0.0217437
0.176594
0.0220255
5.16764
0.0222728
0.0409009
7.73698
0.191554
6.99733
0.0220536
7.09828
4.85705
6.94185
0.0220037
0.0222338
0.0532458
3.77439
0.021825
7.11159
0.0218685
0.0214941
6.56094
0.0221839
0.0563374
0.0279378
0.0228955
0.0317701
0.0293142
0.0676421
0.0464793
0.0390733
25.8805
0.16877
4.34568
0.0468806
0.0344782
0.0563628
4.78562
0.185523
0.0276536
0.0220816
6.56319
0.0226855
2.75842
0.19906
0.829311
0.021691
8.79913
0.0220584
2.00998
0.0225888
0.835353
5.46418
0.0496019
11.4125
5.13832
8.03966
4.78153
6.16027
0.063892
0.0219381
0.0218029
0.798804
0.0218072
0.0219312
0.0219891
0.0404399
0.0233586
0.0345379
10.3967
4.559
0.131224
0.027625
0.0274258
0.0215732
0.0254865
0.224908