/*--------------------------------*- C++ -*----------------------------------*\
| =========                 |                                                 |
| \\      /  F ield         | OpenFOAM: The Open Source CFD Toolbox           |
|  \\    /   O peration     | Version:  v2012                                 |
|   \\  /    A nd           | Website:  www.openfoam.com                      |
|    \\/     M anipulation  |                                                 |
\*---------------------------------------------------------------------------*/
FoamFile
{
    version     2.0;
    format      ascii;
    class       volVectorField;
    location    "500";
    object      U_0;
}
// * * * * * * * * * * * * * * * * * * * * * * * * * * * * * * * * * * * * * //

dimensions      [0 1 -1 0 0 0 0];


internalField   nonuniform List<vector> 
18758
(
(1.0788 -0.303635 -2.56303e-20)
(1.21818 -0.0320839 0)
(1.01541 -0.000177089 -1.0985e-21)
(0.404659 0.18033 0)
(0.172863 0.092564 0)
(0.144177 0.0191396 0)
(-0.204518 -0.00842385 1.37868e-19)
(1.01186 -0.00522399 0)
(1.23252 0.0751631 1.46974e-20)
(1.01215 -0.105188 0)
(1.05382 -0.0421865 1.56437e-20)
(0.16036 -0.0430489 -1.23433e-20)
(1.00182 -0.000312801 -1.57789e-21)
(1.05037 0.078204 2.36826e-20)
(1.04877 0.00791203 1.90536e-21)
(0.583896 -0.485128 -8.32966e-20)
(1.10262 0.015502 -3.40552e-20)
(1.00374 -0.00746331 1.14408e-21)
(1.03774 -0.00603567 0)
(1.02065 -0.12487 1.10049e-21)
(0.0397114 0.0212197 0)
(1.00003 -0.000619646 0)
(-0.0305433 -0.0174338 2.40093e-20)
(1.22197 0.160444 -1.93708e-20)
(1.31997 -0.166725 -4.48729e-20)
(1.01154 -0.00502904 0)
(0.776311 -0.663755 3.10046e-22)
(0.108927 0.074651 1.48405e-20)
(0.783575 -0.0160369 0)
(1.05617 -0.681006 0)
(1.08973 0.0514042 1.92751e-20)
(0.220342 0.0278929 4.0057e-20)
(1.00036 -0.000118244 3.46734e-21)
(1.05113 -0.0136247 -9.48784e-21)
(1.10634 0.0874175 3.2992e-23)
(0.999214 -0.00104346 -1.2423e-20)
(1.00015 -0.000176789 -1.82535e-21)
(1.03358 -0.0234953 -3.3203e-21)
(1.03974 -0.0266255 1.05946e-20)
(1.10999 0.0140638 1.82097e-20)
(1.03445 -0.0219106 -3.67321e-21)
(0.93577 -0.0764734 0)
(1.02174 -0.00768071 1.12824e-21)
(0.972512 -0.0909776 1.86723e-20)
(1.17413 -0.492881 0)
(1.01318 -0.00152701 -9.04706e-22)
(-0.0493135 -0.0160293 0)
(1.04738 -0.0556456 0)
(1.01008 -0.102666 -9.49042e-23)
(1.02144 -0.00575261 -1.84489e-21)
(1.21097 -0.152319 2.72292e-20)
(0.418691 0.113696 -9.51648e-21)
(1.01576 -0.00185469 8.11417e-22)
(1.05237 -0.040864 -1.37671e-20)
(0.0646338 0.0671358 -1.9343e-21)
(1.18743 -0.23082 0)
(1.00019 -0.00019769 0)
(0.514644 -0.325406 -2.41266e-20)
(0.992751 -0.0222167 -9.56615e-21)
(1.05051 0.0838934 -3.88829e-20)
(1.09798 -0.262359 2.425e-20)
(-0.191028 -0.0114171 -1.36222e-19)
(1.1932 0.0296617 -6.49613e-20)
(0.968298 -0.0438876 2.13466e-20)
(1.01557 -0.00193403 1.32657e-21)
(0.9939 -0.00480808 -4.55012e-21)
(1.10704 0.0189308 0)
(1.00041 -0.000151569 -4.56089e-21)
(1.03173 -0.0214157 0)
(0.40087 0.110792 3.48378e-21)
(0.286285 0.0958426 -1.60616e-20)
(0.970468 -0.0251904 -1.11258e-20)
(1.02177 -0.00613573 1.7092e-21)
(-0.0167796 -0.0816908 -5.66892e-20)
(1.01691 -0.0088137 -2.26645e-22)
(0.994378 -0.0229716 1.48054e-22)
(1.16675 0.118566 0)
(0.188251 0.0922006 -7.04568e-23)
(0.895053 -0.319415 0)
(-0.0706986 -0.0233659 1.30055e-19)
(0.0421294 -0.0152511 0)
(1.23516 -0.465313 -1.50844e-21)
(1.05283 0.0861589 -5.51351e-23)
(0.0969798 0.0282492 -7.1715e-20)
(1.1609 0.122187 0)
(1.09336 -0.0284134 3.26219e-20)
(0.544333 -0.192853 0)
(1.19304 0.0263127 4.51207e-20)
(-0.0540046 -0.0295398 1.46713e-19)
(0.994908 -0.0235613 0)
(0.0471962 0.0248767 0)
(0.992338 -0.0217406 9.78713e-21)
(0.127258 -0.0660698 7.30369e-20)
(0.933278 -0.079993 -8.1206e-21)
(0.0434352 -0.0164978 4.21821e-20)
(0.0826724 -0.0529464 6.30578e-20)
(1.15575 0.120501 -1.94792e-20)
(1.01736 -0.00910701 -1.17121e-21)
(1.0014 -0.0175086 0)
(0.0608879 0.0266551 9.26766e-23)
(1.03168 -0.128725 -6.50742e-21)
(-0.0245956 0.0225199 1.09204e-19)
(1.13404 0.0528074 0)
(1.11151 -0.130523 0)
(0.20227 0.0193646 4.53993e-23)
(1.07009 -0.651831 0)
(1.04493 0.181592 2.62247e-20)
(0.224841 0.101215 0)
(1.04155 -0.0367778 -3.25443e-21)
(0.96407 -0.0107938 0)
(0.157031 -0.0688699 -2.6529e-22)
(0.462764 -0.639121 -5.79695e-20)
(1.01013 -0.00547509 6.20074e-23)
(1.00791 -0.0359186 -1.67823e-21)
(0.726659 0.0760187 -5.96096e-20)
(-0.336862 -0.000150419 -1.37946e-19)
(-0.319622 0.00223882 -5.81911e-20)
(1.04852 0.00865658 -9.45979e-21)
(0.0357833 -0.0292536 0)
(0.0183047 -0.0143612 0)
(1.11415 -0.0555045 -4.70324e-20)
(0.987191 -0.0104461 1.74118e-21)
(0.516452 -0.0498423 -3.94433e-20)
(0.633216 -0.628076 -5.61567e-21)
(1.16143 -0.385968 -2.74594e-20)
(1.17239 -0.473617 0)
(1.27281 -0.0411233 0)
(1.27251 0.104675 0)
(0.0718239 -0.0496843 0)
(1.00312 -0.000130969 -1.15018e-21)
(1.10382 0.0169883 2.00189e-20)
(0.805322 -0.644252 7.36777e-21)
(0.0131179 0.0114932 2.82383e-20)
(0.923805 -0.214836 0)
(0.206875 -0.680555 -8.56578e-20)
(0.967235 -0.0633241 -1.34424e-20)
(1.1683 0.114977 0)
(1.11205 0.0155384 -1.97275e-20)
(1.00182 -0.0174774 0)
(0.778007 -0.25568 1.96022e-20)
(0.880499 -0.314992 0)
(0.936874 -0.446535 -6.28773e-21)
(1.00307 -0.0309584 -6.48096e-22)
(1.04755 -0.198766 -6.51096e-20)
(1.03526 -0.0216427 9.26672e-21)
(1.03969 -0.00381674 0)
(-0.14891 0.0183747 2.78566e-20)
(0.383531 0.0432408 0)
(1.08789 0.0502408 -2.22506e-20)
(0.706092 0.125457 -1.28479e-19)
(1.24417 -0.451439 -1.68944e-21)
(1.11855 0.172913 0)
(1.09337 -0.032979 1.75583e-20)
(0.999962 -0.000583744 0)
(-0.0536057 -0.0132483 2.44346e-20)
(1.08367 -0.047421 1.57407e-20)
(0.00261968 -0.0291411 5.09958e-20)
(1.04661 -0.0574688 -5.96835e-21)
(0.98976 -0.0365111 6.15273e-21)
(1 -0.00024196 3.8485e-21)
(1.01037 -0.01309 0)
(1.05667 0.0878072 -2.89911e-20)
(0.17675 -0.0993031 1.09432e-19)
(0.991018 -0.0363073 -5.10894e-21)
(1.09934 -0.257783 -6.2622e-22)
(0.704534 -0.00913815 0)
(1.03889 -0.00791001 6.69577e-23)
(0.449323 -0.060714 0)
(1.19403 -0.255974 0)
(0.181767 0.0302059 -7.99053e-20)
(-0.202465 -0.00713591 -1.16627e-20)
(1.00366 -0.0076288 1.4329e-21)
(0.189312 -0.090647 0)
(0.123464 0.0785475 -3.65557e-21)
(1.0589 0.0886534 2.05375e-20)
(1.21939 0.158953 0)
(0.639621 0.0155949 6.57196e-20)
(0.967243 -0.0454673 -1.80559e-20)
(0.792831 -0.253333 -3.02219e-20)
(1.03007 -0.0323669 3.08175e-21)
(1.00858 -0.00510303 1.17258e-22)
(-0.270459 -0.000599687 7.49217e-20)
(1.12165 0.170262 0)
(1.02652 -0.00560535 -5.95952e-21)
(1.06803 -0.00101179 -5.72012e-21)
(1.1236 0.164429 2.22896e-20)
(0.996665 -0.0184025 0)
(-0.321204 -0.000736752 1.20503e-19)
(1.0206 -0.00675263 1.57764e-21)
(0.994725 -0.0164406 -5.86385e-21)
(0.929797 -0.219106 1.51704e-21)
(1.27045 0.09882 -3.61153e-20)
(1.00968 -0.0482908 3.4576e-22)
(1.0884 0.0481119 0)
(0.968857 -0.149514 -1.03035e-20)
(1.19799 0.0232792 1.68778e-20)
(1.02381 -0.127522 -5.39921e-21)
(1.20274 -0.25585 -2.65808e-20)
(1.00052 -0.00189721 -3.26412e-21)
(1.02145 -0.00726303 1.74116e-21)
(0.746958 -0.205432 0)
(1.04454 -0.0574228 -9.14919e-21)
(1.06624 -0.131705 -1.92967e-20)
(1.17796 0.0021003 0)
(1.00184 -0.000479624 0)
(0.970969 -0.145815 0)
(1.14286 0.0517446 -1.80283e-20)
(0.999971 -0.000460379 0)
(0.0727597 0.0207232 0)
(1.006 -0.103427 -1.61268e-21)
(1.00415 -0.0074778 0)
(1.11539 -0.133588 -1.44494e-20)
(0.992089 -0.0387787 -2.59832e-22)
(1.07485 -0.121327 0)
(0.855304 -0.285508 3.84101e-20)
(0.0525436 -0.0179233 -9.32476e-20)
(0.852551 -0.297679 -4.45884e-20)
(0.529094 -0.430402 4.98381e-20)
(1.01554 -0.00503533 0)
(0.167006 0.0173948 -7.33668e-20)
(1.00404 -0.00765155 0)
(1.04119 -0.0381354 -2.07902e-21)
(1.13344 0.115095 9.00084e-21)
(-0.128278 0.0219355 -3.90433e-20)
(1.2452 -0.182473 0)
(1.13948 0.0508676 6.296e-20)
(1.15631 -0.0610437 0)
(0.976366 -0.208767 1.74055e-21)
(1.02595 -0.00291637 1.6565e-21)
(1.18245 -0.00428456 2.69665e-20)
(0.993597 -0.00504657 -8.67039e-21)
(1.19796 0.0196572 0)
(-0.0509682 -0.0154508 0)
(1.15232 0.12572 0)
(1.00166 -0.000234159 4.22431e-21)
(0.996502 -0.017815 -5.45014e-21)
(1.02573 -0.00319046 2.93663e-21)
(1.01262 -0.00180439 -7.71557e-22)
(0.595374 -0.0675234 1.68339e-20)
(1.09233 -0.0999873 -1.52097e-20)
(1.00832 -0.0127669 2.36093e-21)
(1.2551 -0.275702 4.2515e-20)
(1.02673 0.180156 -2.65431e-20)
(1.05361 -0.0244404 -5.89213e-21)
(0.761979 0.136846 1.19998e-19)
(0.0216522 -0.0359849 1.0111e-19)
(1.14815 0.12398 0)
(0.999316 -0.000974536 5.18194e-21)
(0.041464 -0.0152512 -1.26339e-19)
(0.89388 -0.0747966 0)
(0.999009 -0.00143577 0)
(0.394744 -0.0491865 1.89067e-20)
(1.09458 -0.0269652 -4.7837e-20)
(0.893651 -0.0806206 0)
(1.04556 0.00347549 4.04658e-21)
(1.12124 -0.0597397 -5.16144e-21)
(1.17525 0.156312 2.8454e-20)
(0.49093 -0.422337 0)
(1.07095 -0.120116 0)
(0.92144 -0.313207 2.16742e-22)
(1.02969 0.00201452 0)
(1.13517 0.0374632 -3.10395e-20)
(0.999048 -0.00744997 0)
(1.17466 0.00344159 1.20604e-20)
(1.00413 -0.10048 -6.91709e-22)
(1.12977 0.114827 -5.17431e-20)
(-0.2988 -0.00501532 1.74488e-20)
(1.01526 -0.00488364 0)
(1.04094 -0.0344758 9.86304e-21)
(1.02385 -0.468458 1.57252e-20)
(1.03989 -0.0335367 -3.30483e-21)
(1.06702 -0.00166784 0)
(1.17816 -0.00299571 0)
(0.580247 -0.0255126 -3.11672e-20)
(-0.337552 0.00134085 0)
(1.00127 -0.0298457 -2.88057e-21)
(1.20418 -0.139324 9.48904e-20)
(0.339269 0.0546159 0)
(1.21176 -0.463899 -6.05506e-20)
(1.00723 -0.0528518 -2.65641e-21)
(1.03001 -0.00919618 1.32606e-22)
(1.07496 -0.0761941 1.17114e-21)
(1.0949 -0.0980736 1.37441e-20)
(1.00289 -0.0302525 -1.26734e-21)
(0.378355 0.106939 2.7947e-20)
(1.24638 -0.269426 8.0603e-20)
(0.901232 0.118607 0)
(-0.0150241 0.00928714 5.43739e-22)
(-0.0292562 -0.018153 0)
(1.02488 -0.00531975 0)
(1.01549 -0.000151362 -2.84983e-22)
(0.980282 -0.225655 0)
(0.103395 -0.0202368 0)
(0.920394 -0.0415393 3.0186e-20)
(0.907119 -0.30948 9.64143e-21)
(1.20836 -0.0181579 1.72457e-20)
(1.06936 -0.0822138 -7.90406e-21)
(0.0155583 -0.0144014 5.03604e-20)
(1.03692 -0.00628967 0)
(1.03219 0.108379 1.3005e-20)
(0.12092 0.026208 8.41985e-20)
(1.01295 -0.00157152 -7.59908e-22)
(0.478145 0.0953739 -6.3394e-21)
(0.956323 -0.167276 0)
(1.0326 -0.021834 3.13126e-21)
(1.06361 -0.112795 1.42016e-20)
(1.19143 -0.0628372 -5.17099e-20)
(1.05061 0.000371483 0)
(0.999065 -0.00133728 0)
(-0.234838 -0.00682351 -1.61765e-20)
(0.937199 0.117401 -1.07548e-20)
(1.0013 -0.0132589 3.22084e-21)
(-0.241981 -0.00351675 1.61062e-19)
(0.0177503 -0.0147525 6.8075e-20)
(1.2405 -0.178375 0)
(0.997654 -0.00791773 0)
(1.00197 -7.70233e-05 2.50411e-21)
(1.05466 0.131208 -3.72126e-20)
(1.05265 -0.0252437 1.06188e-20)
(1.0259 -0.00561865 4.36481e-21)
(1.03047 -0.0108315 -6.15355e-21)
(0.946072 -0.0129929 0)
(1.19103 -0.263933 5.59079e-20)
(1.19467 -0.0659739 5.76427e-20)
(1.07294 -0.0774437 -1.82135e-20)
(1.08855 -0.0986329 7.58506e-21)
(1.01645 -0.126694 -1.82988e-21)
(0.938639 -0.220202 2.99917e-20)
(1.02926 0.0016166 0)
(0.99999 -0.00045578 3.92473e-21)
(1.26654 0.110706 0)
(1.06245 -0.206763 0)
(1.21016 -0.139884 9.09666e-22)
(0.383807 0.185144 -1.36965e-20)
(0.917078 -0.0436497 -1.19059e-20)
(1.01037 -0.0468738 -1.15599e-21)
(1.00514 -0.000152302 0)
(1.03064 0.107301 -2.68794e-20)
(0.52327 0.102602 5.66021e-21)
(1.02618 -0.00372019 -3.12303e-21)
(1.00458 -0.00746972 -1.01856e-21)
(1.02593 -0.00401912 0)
(0.966785 -0.0611832 1.43397e-20)
(0.973855 -0.201278 -1.16442e-21)
(1.30715 -0.163531 0)
(0.987776 -0.0102675 5.06039e-21)
(0.96821 -0.0106747 8.4637e-23)
(1.02238 -0.00505764 -2.00076e-21)
(0.596954 -0.531646 1.60363e-20)
(0.938356 -0.435229 8.11241e-21)
(1.24343 -0.0212491 -8.10617e-20)
(1.11945 -0.305543 0)
(1.05304 -0.00756158 9.54688e-21)
(1.27492 0.0873004 0)
(1.06787 -0.302322 9.03204e-21)
(1.1048 -0.0807381 0)
(0.886929 -0.0893839 -2.25792e-20)
(0.115574 -0.0380259 0)
(-0.0601007 0.0230704 -5.4298e-20)
(1.13016 0.170339 2.45348e-20)
(1.00173 -0.00227916 -3.90191e-21)
(1.02633 -0.135855 2.39494e-21)
(1.18571 -0.0850047 3.66632e-21)
(0.517924 -0.0175364 1.89877e-20)
(1.01734 -0.0833769 1.07056e-21)
(1.02474 -0.00576646 -2.62856e-21)
(1.15518 -0.0315116 -9.76465e-21)
(1.03765 -0.0116104 -4.14104e-21)
(1.09322 -0.0173683 2.41692e-20)
(1.04924 -0.0195965 -1.1537e-19)
(0.253097 0.212939 1.55224e-20)
(1.07984 0.0759287 0)
(1.01329 -0.123631 0)
(-0.28462 -0.00520168 0)
(0.987879 -0.0231052 -1.11476e-20)
(1.0438 -0.0591164 9.66049e-21)
(1.00184 -0.0232304 -1.30781e-21)
(1.03979 -0.0277402 -4.84294e-21)
(1.10529 0.0767894 -2.93911e-20)
(1.05845 -0.0430188 0)
(-0.228432 -0.00686962 -1.47398e-19)
(0.895992 -0.455442 -4.9584e-21)
(1.04491 0.0030782 0)
(1.00112 -0.0128845 0)
(-0.304088 0.00294726 -5.84153e-20)
(1.0821 0.0750183 -7.74727e-21)
(1.22792 0.0778442 0)
(0.9876 -0.0224396 1.08624e-20)
(1.09096 0.0394148 -1.08838e-20)
(1.02929 -0.00926163 0)
(0.936055 -0.0690194 1.61332e-20)
(0.987099 -0.0108562 0)
(1.01491 -0.00500714 0)
(-0.294086 0.00797442 1.17898e-19)
(0.0854738 0.0227505 0)
(1.01656 -0.742537 6.81434e-20)
(0.388616 -0.138505 0)
(1.00531 -0.000441342 -1.30332e-21)
(1.18425 0.104319 -6.0026e-20)
(0.167775 0.05294 3.21758e-20)
(1.12312 -0.0617768 2.42248e-20)
(1.01038 -0.00574032 -4.97326e-24)
(0.387172 0.183581 7.57741e-22)
(1.02863 -0.0134292 0)
(1.04072 -0.00195089 -9.65411e-21)
(1.00878 -0.00541502 0)
(1.10517 0.0793787 -3.70478e-20)
(0.990053 -0.0121206 -4.94403e-21)
(0.969022 -0.0897059 -6.47008e-21)
(1.11627 -0.296004 0)
(0.520673 -0.0455395 0)
(1.03006 -0.0104378 5.15424e-21)
(0.15398 0.0906105 -6.28708e-21)
(1.1271 -0.00317915 0)
(0.997873 -0.00769511 0)
(1.07336 -0.00967513 6.39045e-21)
(0.991081 -0.0231064 6.69235e-21)
(1.00447 -0.00767212 0)
(1.06732 -0.0799552 0)
(1.13607 0.0290835 1.86777e-20)
(0.945276 -0.216451 2.07334e-20)
(0.114719 0.0443876 6.25609e-20)
(1.11732 -0.0556628 2.40728e-20)
(0.996125 -0.00428454 5.65901e-21)
(1.00531 -0.460334 -1.78198e-20)
(0.784848 0.154284 -3.82257e-21)
(0.669403 0.139403 -1.76835e-20)
(-0.216758 -0.00645658 -9.706e-20)
(1.09649 0.0750652 -3.30111e-22)
(1.00469 -0.0513139 2.80871e-21)
(1.01464 -0.00483634 0)
(1.00816 -0.0123907 -1.79912e-21)
(0.991155 -0.0396388 1.15215e-20)
(1.07737 0.0743402 0)
(1.11197 0.00632517 0)
(1.08498 0.0121876 6.65439e-22)
(0.956763 -0.160812 -1.00508e-21)
(1.09469 -0.0313539 0)
(1.09013 0.156068 0)
(1.13714 0.0537175 0)
(0.991038 -0.0222314 -2.96027e-21)
(1.08615 -0.0965217 1.69593e-20)
(-0.0570595 -0.0331352 -1.27733e-19)
(0.986735 -0.054323 0)
(0.252572 0.211451 -1.38636e-20)
(1.00321 -0.000101279 0)
(0.996689 0.000374457 -7.32192e-21)
(0.422105 0.105659 -4.00675e-22)
(0.945332 -0.0981036 0)
(1.04199 -0.0305569 3.40081e-21)
(1.16791 0.155002 2.52898e-20)
(1.10956 0.088576 0)
(0.984617 -0.22089 2.14815e-21)
(0.064471 -0.0549908 0)
(0.99367 -0.0230524 -1.89303e-22)
(0.985209 -0.0495744 0)
(0.536275 -0.477911 -3.72365e-20)
(0.108467 -0.0347281 2.54038e-20)
(0.864364 -0.119275 2.63451e-20)
(1.14605 -0.164679 2.48425e-20)
(1.04784 0.0779487 -2.81232e-20)
(1.08964 0.150812 4.24185e-20)
(-0.373167 0.00346763 0)
(1.05188 0.0807926 1.28791e-20)
(0.969922 -0.0237706 0)
(1.22851 -0.0763704 0)
(1.0069 -0.0361911 3.503e-21)
(1.07558 0.0752062 0)
(1.03748 -0.0519325 -3.30991e-21)
(0.121472 -0.0588196 1.30901e-20)
(1.0895 0.0386654 1.00276e-20)
(1.26957 -0.0946859 -5.35821e-20)
(1.08499 0.0112866 -4.98281e-21)
(1.08722 0.05643 1.14468e-20)
(1.01287 -0.001797 0)
(1.22713 0.156049 -4.37377e-20)
(1.02148 -0.0064963 -1.5545e-21)
(-0.0710606 0.0171078 8.35895e-20)
(1.00152 -0.0238 0)
(1.12482 -0.387304 -7.49427e-20)
(0.999042 -0.00593687 -5.88552e-21)
(1.04398 0.120664 4.60098e-20)
(1.09526 -0.0166042 1.26235e-20)
(0.999689 -0.00474213 -6.97769e-21)
(1.0011 -0.01696 0)
(1.00913 -0.00542332 0)
(0.923351 0.161389 -2.27352e-20)
(-0.195849 0.0157423 2.54271e-20)
(0.751557 0.0726487 7.06773e-20)
(1.10359 0.0211653 0)
(1.06488 -0.00142247 0)
(1.19421 -0.0577201 -6.41404e-20)
(1.00001 -0.000466759 6.28324e-22)
(1.00002 -0.000198867 7.44653e-21)
(0.40635 0.115245 -3.15971e-20)
(1.00069 -0.0170618 0)
(0.995959 -0.0011939 -1.03355e-20)
(1.21188 -0.021466 2.69097e-20)
(1.00184 -0.0022451 3.40209e-21)
(1.14039 -0.165578 2.61486e-22)
(1.19161 -0.0541325 5.47644e-20)
(0.995763 -0.00107013 1.1483e-20)
(0.990236 -0.0127583 0)
(0.932198 -0.0884991 -2.35661e-20)
(0.986656 -0.0524874 0)
(1.08605 -0.0482631 -3.87249e-22)
(0.776352 0.13763 0)
(1.06903 0.0233165 0)
(0.872097 -0.119467 0)
(1.0428 -0.087059 6.67966e-21)
(0.996306 -0.00401775 -2.91627e-21)
(0.388458 -0.721259 0)
(0.96488 -0.0155131 9.70507e-21)
(1.03926 -0.0394047 3.92808e-21)
(0.837699 -0.744535 1.53992e-20)
(-0.34032 -0.00250649 -2.93438e-20)
(1.08725 0.0543941 2.29038e-20)
(1.05813 0.139129 0)
(1.01637 -0.0854194 0)
(1.03957 -0.0383792 0)
(-0.31778 -0.00194533 -2.57872e-20)
(1.03824 -0.0073667 0)
(-0.312843 0.00744518 0)
(1.11268 -0.380771 3.62108e-20)
(0.999411 -0.00495481 0)
(0.737626 0.139625 0)
(1.27791 0.0931494 0)
(1.15652 -0.0278959 0)
(1.00824 -0.000457043 3.51463e-22)
(1.06194 -0.200192 0)
(0.482168 0.110976 2.43522e-20)
(1.03442 -0.023161 0)
(1.02919 -0.0201079 7.25755e-22)
(1.04974 0.00780758 0)
(1.05039 -0.000361986 5.48424e-21)
(1.04023 -0.0041276 -7.87846e-22)
(1.01179 -0.000866652 4.06188e-22)
(1.00002 -9.62745e-05 -7.81188e-21)
(0.635945 -0.0567663 7.26482e-20)
(1.07065 -0.0355683 0)
(0.697908 -0.00791422 -1.17857e-19)
(0.987102 -0.0085239 -1.70242e-22)
(1.23576 -0.0844783 0)
(1.11713 -0.0268619 1.73744e-19)
(0.998975 -0.00715988 -2.37859e-22)
(1.02087 -0.00719667 -1.59512e-21)
(1.0684 -0.0396305 0)
(1.00072 -0.00213022 3.05876e-21)
(1.008 -0.0543185 2.65244e-21)
(0.950306 -0.0362385 1.38657e-20)
(1.02892 -0.0326182 2.29647e-23)
(1.18403 0.0348102 -1.50055e-20)
(0.630979 -0.54473 -1.82579e-20)
(1.01744 -0.0023442 2.08353e-21)
(0.463874 0.112919 -3.21938e-21)
(0.00468631 0.0583362 3.11393e-20)
(0.861561 -0.103925 -2.42089e-20)
(1.22834 -0.0724338 -4.79994e-20)
(0.963484 -0.742714 2.2039e-20)
(0.933492 -0.0717452 -1.79772e-20)
(1.06835 0.0225999 -1.20099e-20)
(1.0874 -0.0303152 -9.3431e-21)
(0.295119 0.100567 4.47713e-20)
(1.06895 -0.0361292 3.85376e-23)
(1.09142 0.0304646 0)
(1.00446 -0.0334987 0)
(0.261487 0.235538 0)
(1.12249 -0.0229484 -2.08082e-20)
(0.961283 -0.420696 -3.60105e-21)
(1.16329 0.076584 -3.31735e-20)
(-0.197871 -0.00883456 0)
(1.06769 -0.038509 -9.59079e-21)
(0.998518 -0.0260324 0)
(1.15675 -0.0531716 -3.34167e-20)
(1.31288 -0.176709 0)
(1.00545 -0.0529397 -1.88387e-21)
(1.15513 -0.374898 5.60803e-20)
(0.976691 -0.0286418 0)
(0.959101 0.177085 -3.31172e-20)
(1.01077 -0.0558259 0)
(1.02851 -0.015308 -4.13687e-21)
(1.00934 -0.0057163 1.82502e-22)
(1.00175 -0.00169028 -4.23431e-22)
(0.0351426 0.0673685 -3.23192e-20)
(0.936019 0.174846 4.00643e-21)
(0.986267 -0.0220908 0)
(1.05454 0.107058 1.36068e-20)
(0.949692 -0.121074 4.85159e-21)
(0.62288 0.142103 3.41349e-20)
(-0.174675 0.0202425 0)
(1.053 0.128287 3.52035e-20)
(1.31401 -0.0236128 -2.78595e-20)
(1.03603 0.00229791 4.25262e-21)
(0.16398 0.0797362 -7.04452e-20)
(1.08683 0.0469708 0)
(1.01384 -0.0330126 -9.69212e-23)
(1.10948 0.0191629 0)
(0.379029 0.109258 1.68889e-20)
(0.419549 0.102231 -5.39928e-20)
(1.05068 -0.0146967 -7.74277e-21)
(0.955012 -0.00721589 0)
(1.01064 -0.0344629 0)
(1.01514 -0.000372472 0)
(0.358511 0.0306342 0)
(1.17874 0.040311 0)
(0.0896566 0.073189 0)
(0.143755 0.0443167 3.60035e-20)
(0.981031 -0.0192662 0)
(1.00061 -0.00201808 -1.44454e-21)
(1.14486 -0.0034283 2.44535e-20)
(1.00002 -0.000447439 -3.32798e-21)
(1.01019 -0.0126839 5.24581e-22)
(0.950761 -0.0346251 0)
(1.04923 0.00529429 0)
(1.18899 0.0347188 0)
(1.11997 -0.0220248 0)
(1.2016 -0.240541 2.41391e-20)
(0.248379 0.104046 0)
(1.14805 -0.157135 -3.09182e-20)
(0.99904 -0.00561853 2.95841e-21)
(0.94676 -0.0945597 1.78288e-20)
(1.19384 -0.161593 -5.06996e-22)
(0.349237 0.112649 2.21305e-21)
(1.09041 0.0290183 0)
(1.25359 -0.368082 2.58564e-20)
(1.14646 -0.0570629 2.76762e-20)
(0.98549 -0.0225269 0)
(1.05742 0.106963 -2.39524e-20)
(0.875633 0.125334 4.93894e-20)
(1.01053 -0.0496494 1.51531e-21)
(1.02658 -0.00459675 -3.92283e-23)
(0.645436 -0.279296 -2.8086e-20)
(0.0222368 0.0266727 0)
(1.20606 -0.249822 2.79003e-20)
(1.00185 -0.00165941 1.20616e-22)
(-0.0825545 0.0185381 0)
(0.0128841 0.00831101 -2.82162e-20)
(1.31259 -0.181398 0)
(1.02166 -0.00539793 0)
(-0.14814 -0.0161868 -4.26401e-20)
(-0.232652 -0.00476404 3.3373e-20)
(0.489269 -0.186357 0)
(1.05887 -0.0413443 -9.29824e-21)
(0.999372 0.000548821 0)
(0.726678 0.0513322 0)
(1 -7.88564e-05 1.26738e-20)
(1.09344 0.106501 2.83064e-20)
(-0.28478 0.010309 0)
(1.2582 -0.0172176 5.99132e-20)
(-0.185036 -0.0110161 3.5715e-20)
(1.12598 0.0568433 -2.00927e-20)
(0.0554302 0.0378317 -2.5413e-20)
(1.13952 0.0289942 2.0086e-20)
(0.988816 -0.0327115 0)
(0.955999 -0.00621456 4.11343e-21)
(-0.269226 -0.00405994 6.54442e-20)
(0.49662 0.164518 -2.36218e-20)
(-0.247961 -0.00438026 -4.47865e-20)
(0.285199 0.20634 0)
(1.03843 -0.00660068 0)
(1.09651 0.106638 -3.18736e-20)
(1.00001 -0.000373282 -2.62317e-21)
(1.15898 -0.0642816 -3.46621e-22)
(1.11049 0.0622032 1.87247e-20)
(1.20505 -0.154652 -3.77595e-20)
(0.99951 -0.00477407 1.22539e-21)
(0.966199 -0.0797541 0)
(1.18004 0.100409 3.53011e-20)
(0.425172 0.106193 0)
(-0.251964 -0.004815 6.14325e-20)
(-0.266091 -0.00187299 -1.0758e-20)
(1.10779 -0.0822576 0)
(1.03563 -0.128457 -1.09452e-20)
(1.14439 0.128448 0)
(0.96686 -0.0112763 -1.17816e-20)
(1.02821 -0.00870374 -1.26983e-22)
(0.996327 -0.0124378 -1.35211e-21)
(1.06222 0.0110812 9.23273e-21)
(1.08961 0.0533267 -2.21545e-20)
(0.99566 -0.00454232 6.61152e-21)
(1.11014 0.0591107 1.74598e-20)
(1.00698 -0.0121087 0)
(1.00276 -0.0001968 0)
(1.00501 -0.00742565 1.44766e-21)
(0.158041 0.0870052 5.50863e-20)
(0.963882 -0.012543 -1.6863e-21)
(1.00002 -0.000333111 -3.96024e-21)
(1.14163 -0.00545092 7.64577e-21)
(1.14441 -0.0284265 1.9853e-20)
(1.01762 -0.00251758 -1.55136e-21)
(-0.310767 0.00687618 -1.44996e-19)
(1.03815 -0.0111758 5.31699e-21)
(1.03091 0.00130984 3.20715e-21)
(1.14971 -0.07801 -8.72882e-20)
(0.882226 -0.129691 2.41105e-20)
(1.06585 -0.000845 0)
(1.02511 -0.0544018 0)
(1.27927 -0.368015 0)
(0.859883 -0.109438 4.21213e-22)
(1.06141 -0.122597 -8.95628e-21)
(0.901243 0.126173 -3.35473e-20)
(1.06495 -0.121481 0)
(0.418659 0.178381 2.02941e-20)
(0.906868 -0.0174592 -2.60839e-20)
(1.18277 0.0402167 0)
(0.501549 -0.236634 5.61757e-20)
(0.337715 0.0202996 1.23382e-20)
(1.02607 -0.0044721 0)
(0.31796 0.0998903 0)
(1.25393 0.131392 6.1346e-20)
(1.01225 -0.00409474 -6.44988e-22)
(-0.0704013 0.0337978 3.71189e-20)
(0.997817 -0.0048281 0)
(1.00546 -0.00736685 0)
(1.11806 -0.0324449 -1.97147e-20)
(1.0036 -0.00709954 -3.54697e-23)
(1.13014 -0.248301 5.17447e-20)
(0.326565 0.108411 0)
(1.0209 -0.00641587 5.15192e-21)
(0.203371 -0.118476 -1.88202e-19)
(1.0354 0.00218546 -7.79807e-21)
(1.11312 -0.0524441 1.68513e-20)
(0.497502 0.163378 0)
(1.01742 -0.00193434 2.66557e-21)
(0.00379954 0.0355723 -6.65591e-20)
(1.01175 -0.0684727 -1.53158e-21)
(1.03752 -0.0148053 2.24909e-21)
(0.996973 -0.0167646 5.19903e-21)
(0.996032 -0.0126904 -1.7306e-21)
(1.25943 0.00407793 1.00246e-19)
(0.732625 -0.196927 2.69984e-20)
(-0.351499 0.00134472 -3.88782e-20)
(1.15336 -0.156431 -7.59177e-22)
(0.087722 0.0170591 4.42263e-20)
(1.14753 -0.00912423 -2.47623e-22)
(0.995852 -0.00429172 -1.12502e-20)
(1.17616 0.109664 -6.64974e-20)
(-0.252936 -0.00484505 -4.25776e-20)
(1.28247 -0.016989 -3.02161e-20)
(0.747225 -0.220632 0)
(1.24157 -0.0160238 5.46423e-20)
(1.0837 0.0463788 0)
(1.06719 -0.0634721 1.0597e-20)
(1.26208 -0.00328884 0)
(1.02259 -0.0522105 -2.19564e-21)
(1.24596 -0.442648 5.7908e-20)
(1.00195 -0.00105279 0)
(-0.137189 -0.0222633 0)
(1.05217 -0.0132157 0)
(0.764171 -0.2289 -6.13648e-20)
(0.927662 -0.0874364 0)
(1.03969 -0.0302827 -3.51461e-21)
(0.88998 -0.0180303 0)
(0.954782 -0.00417908 0)
(1.00953 -0.012163 0)
(1.30618 -0.106434 0)
(1.0097 -0.0689406 5.90384e-22)
(1.0049 -0.00763853 1.07335e-21)
(1.11387 0.0078061 -3.23824e-22)
(1.1913 -0.0746589 -6.6392e-21)
(1.26288 0.00720873 -1.15518e-19)
(1.315 -0.172151 1.06508e-19)
(1.05405 0.147217 -5.56118e-21)
(-0.248296 0.00500233 0)
(1.00066 -0.00202759 0)
(0.999472 0.000463453 0)
(-0.0762894 0.0223169 0)
(0.995094 -0.00823056 -8.75418e-21)
(1.24546 -0.295096 1.02109e-19)
(1.12677 0.060292 -4.382e-20)
(1.0555 -0.0416974 -1.31675e-20)
(0.995876 -0.000698732 -9.62801e-21)
(1.05962 -0.112974 0)
(0.990479 -0.000722558 -4.40465e-21)
(1.03656 -0.0146395 -2.11383e-21)
(1.08488 -0.00531944 3.05581e-20)
(1.24277 -0.287036 -9.17283e-20)
(1.20559 -0.236618 0)
(0.645638 -0.296971 3.5351e-20)
(1.11948 -0.176288 -9.73614e-21)
(1.00046 -0.00288626 -2.25146e-22)
(1.10948 0.0376513 3.02472e-20)
(0.669814 0.0216225 -6.10592e-20)
(1.00653 -0.0115456 0)
(1.10819 0.063666 -1.87794e-20)
(1.06153 -0.0287343 2.63798e-20)
(0.33066 0.107104 3.93617e-20)
(0.953895 -0.0388814 1.01187e-20)
(0.00669373 -0.0153793 0)
(1.00204 -0.000940183 7.55891e-22)
(1.26928 0.117649 -2.42165e-20)
(1.00001 -0.000251757 4.10446e-21)
(1.14148 0.0439565 0)
(1.0133 -0.0336565 -4.59125e-22)
(1.06132 0.0104756 -8.25165e-21)
(1.06827 0.020831 1.27273e-20)
(1.01761 -0.00210655 -2.22013e-21)
(1.03034 0.00138961 -2.74016e-21)
(1.01686 -0.00354435 9.15843e-22)
(0.890434 0.160363 -2.97738e-21)
(-0.223814 -0.000413407 -5.55144e-20)
(1.0911 0.00468861 -3.53597e-20)
(0.0517984 0.038696 -6.51977e-20)
(0.984585 -0.021947 0)
(1.10956 0.00732647 -9.52174e-21)
(1.08345 -0.0451467 -2.25039e-20)
(1.21746 0.0958336 -6.61661e-20)
(-0.0560872 -0.0247186 1.06457e-19)
(1.09078 0.00617805 0)
(1.01979 -0.00241642 0)
(0.979153 -0.424726 -1.67028e-20)
(1.0069 -0.0117547 1.31705e-21)
(0.984262 -0.0212512 4.78257e-21)
(1.0846 -0.0406803 0)
(-0.334682 0.00363087 0)
(0.557299 -0.0390951 0)
(1.32514 -0.000506174 -1.03613e-19)
(1.05643 0.133001 0)
(0.719014 -0.197886 4.17993e-20)
(0.948086 -0.0144026 0)
(1.00517 -0.0256534 1.80267e-21)
(1.26308 -0.433167 6.0201e-20)
(1.00533 -0.00757362 4.97455e-22)
(1.31205 -0.0656111 -1.28777e-19)
(1.08426 -0.0281539 0)
(0.999204 0.000328315 0)
(0.420973 0.126048 -4.23255e-20)
(0.276597 0.0201847 7.62962e-20)
(0.996973 0.000474353 4.25831e-21)
(-0.336142 -0.00116844 0)
(1.04318 -0.089519 0)
(1.0545 0.053629 9.12316e-21)
(0.92451 -0.32863 0)
(1.05749 0.136984 0)
(0.244226 0.0213299 -1.49024e-19)
(1.23892 -0.340666 0)
(1.00263 -0.000721696 -2.84471e-21)
(1.01535 -2.85851e-05 0)
(0.270208 0.10613 -2.43302e-20)
(1.00089 -0.0305755 2.60165e-21)
(1.03092 -0.0220413 0)
(1.08643 -0.0282698 -9.16861e-21)
(0.999357 -0.0311613 0)
(0.924816 0.146435 0)
(1.06329 0.106092 1.20617e-20)
(1.14789 -0.00507729 -2.5242e-20)
(-0.0250659 0.000591035 0)
(1.12989 -0.00467684 0)
(1.10547 0.084773 1.36219e-20)
(1.06081 -0.0279405 -1.67126e-20)
(1.00275 -0.00437658 2.22321e-21)
(1.01544 -0.00148054 0)
(1.00967 -0.00688912 6.77832e-23)
(-0.339544 0.00396239 -1.40451e-19)
(0.36539 0.0291168 0)
(1.04214 0.0994722 -4.03987e-20)
(0.995668 -0.000546644 1.0457e-20)
(1.01955 -0.00219548 0)
(1.06888 0.0215194 -3.55748e-22)
(1.01539 -0.0227694 0)
(1.11985 -0.0350282 1.07176e-20)
(0.96889 -0.0851358 2.26688e-21)
(1.20887 -0.480123 0)
(0.447183 0.122099 3.06504e-20)
(1.11255 0.0575183 -3.53518e-20)
(1.1343 0.131582 2.25345e-20)
(1.04338 0.101792 2.32466e-20)
(1.03001 -0.0205828 -5.23325e-21)
(1.25885 -0.00668058 1.23812e-20)
(1.00555 -0.0261392 -1.26333e-22)
(-0.0486068 -0.0239836 -1.20653e-19)
(1.25839 0.124777 0)
(0.00435429 -0.0231583 -7.71462e-20)
(0.86957 0.0376056 8.55165e-20)
(1.05004 0.00502575 0)
(1.08503 -0.00361598 -2.12817e-20)
(1.14968 -0.650506 0)
(-0.0280237 -0.00171467 -2.91301e-21)
(0.032004 -0.026433 7.15713e-20)
(0.787798 -0.0986935 0)
(1.19893 -0.16512 4.45698e-20)
(-0.279965 -0.00104146 -1.38096e-19)
(1.00174 -0.00198094 2.32368e-22)
(1.14031 0.126911 -1.03055e-20)
(0.575795 -0.62363 -2.31601e-20)
(1.07257 0.0751118 0)
(1.00183 -0.00193304 0)
(1.03268 -0.0229734 3.61825e-21)
(1.1196 -0.0189212 0)
(0.10481 0.0420692 -2.06501e-20)
(0.340994 -0.655385 -3.99515e-20)
(1.01067 -0.309945 0)
(0.988197 -0.00716627 -8.92446e-21)
(1.06058 0.00881088 -8.67064e-21)
(0.888657 -0.0541181 3.80058e-20)
(0.179648 -0.19937 0)
(1.03872 -0.0295274 0)
(1.22416 -0.31079 -5.27373e-20)
(1.00364 -0.0145702 2.74476e-21)
(0.984946 -0.0512926 0)
(1.25126 -0.0862552 0)
(1.00645 -0.0112325 0)
(0.99825 -0.00779705 3.39238e-21)
(1.03853 -0.0529821 0)
(1.00022 -0.101027 8.4638e-22)
(1.00306 -0.00438786 -1.02506e-21)
(1.02307 -0.0514142 -4.96046e-21)
(1.02222 -0.00543223 -4.45451e-21)
(1.05839 0.14468 0)
(1.01683 0.0866712 0)
(0.391973 0.0533303 2.12754e-20)
(1.02548 -0.00518673 2.86757e-21)
(0.868606 -0.202185 0)
(0.993049 -0.00209349 0)
(1.17441 0.114072 2.40045e-20)
(1.23278 0.0691127 2.98696e-20)
(1.02409 -0.157154 7.28818e-21)
(1.0033 -0.0146452 0)
(1.05268 -0.00849457 8.94265e-23)
(1.15433 -0.397676 8.0441e-20)
(1.15245 0.073793 0)
(1.08947 -0.0301934 0)
(-0.273526 0.0133302 0)
(1.07094 0.0732685 0)
(0.99159 -0.0217893 0)
(0.981471 -0.0202162 0)
(0.457433 0.170699 2.86337e-21)
(-0.0714397 -0.035614 9.85781e-20)
(1.10243 -0.19382 0)
(1.01674 -0.00487699 1.25627e-22)
(1.04493 0.119849 1.68004e-20)
(1.00059 -0.00281047 3.93953e-21)
(1.10992 -0.0521548 6.56304e-20)
(1.02042 -0.00890297 -4.16885e-23)
(1.29985 -0.187706 -2.25796e-20)
(-0.0393788 -0.0132056 5.53893e-20)
(1.00664 -0.00775764 -1.85623e-21)
(1.03992 -0.00308539 0)
(1.29233 -0.0539891 2.54796e-20)
(0.998125 -0.0267726 4.58638e-22)
(0.813046 0.15484 -4.87153e-20)
(-0.300283 -0.00106613 6.93311e-20)
(1.10605 0.0390502 1.37441e-20)
(0.965544 -0.0101897 0)
(0.998966 -0.000334939 -9.65828e-21)
(1.0206 -0.00866339 -1.05918e-21)
(1.00194 -0.000763861 1.10955e-21)
(-0.378703 -0.000409031 -3.71615e-20)
(1.21704 -0.231982 0)
(1.21231 -0.148012 3.32567e-22)
(1.03308 -0.0495828 -2.2522e-21)
(-0.0455848 0.0418482 -8.60767e-20)
(1.0049 -0.000260159 1.06244e-21)
(0.99478 -0.0158467 -8.77978e-22)
(0.556771 0.0120941 -1.97075e-24)
(1.02657 -0.0135631 3.39747e-21)
(0.239644 0.0999059 0)
(1.01735 -0.00155499 -2.18577e-21)
(0.91969 -0.0908067 -2.92694e-20)
(0.951626 -0.0388788 0)
(0.995341 -0.0150166 0)
(1.01342 -0.0223626 5.30644e-22)
(1.00065 -0.00283493 -3.47441e-21)
(-0.220192 -0.00663219 -1.25123e-20)