/*--------------------------------*- C++ -*----------------------------------*\
| =========                 |                                                 |
| \\      /  F ield         | OpenFOAM: The Open Source CFD Toolbox           |
|  \\    /   O peration     | Version:  v2012                                 |
|   \\  /    A nd           | Website:  www.openfoam.com                      |
|    \\/     M anipulation  |                                                 |
\*---------------------------------------------------------------------------*/
FoamFile
{
    version     2.0;
    format      ascii;
    class       surfaceVectorField;
    location    "500";
    object      Uf_0;
}
// * * * * * * * * * * * * * * * * * * * * * * * * * * * * * * * * * * * * * //

dimensions      [0 1 -1 0 0 0 0];


internalField   nonuniform List<vector> 
27907
(
(1.07336 -0.303176 -9.97278e-21)
(1.0828 -0.297625 1.61827e-21)
(1.08109 -0.308983 -1.22033e-20)
(1.24611 -0.0354922 0)
(1.16792 -0.0300748 8.65576e-20)
(1.23067 -0.0297727 -5.70278e-20)
(1.01545 -0.000162984 -6.28178e-22)
(1.01539 -0.000221142 9.13631e-22)
(1.01534 -0.000134623 -5.44588e-22)
(0.393906 0.182864 -7.10227e-21)
(0.422183 0.176094 8.80947e-21)
(0.39665 0.181929 0)
(0.161721 0.0909908 -3.4827e-21)
(0.207765 0.0961184 0)
(0.14964 0.0886257 -3.5203e-20)
(0.154744 0.0179948 -3.57047e-20)
(0.11298 0.0178014 2.44074e-20)
(0.169452 0.020837 -1.08855e-20)
(-0.198004 -0.010105 1.15597e-21)
(-0.214136 -0.00492543 5.97119e-20)
(-0.202684 -0.00995531 1.15936e-19)
(1.01169 -0.00513885 0)
(1.01204 -0.0051806 3.44441e-22)
(1.01188 -0.00544908 -1.90318e-22)
(1.2298 0.0767024 6.4511e-21)
(1.23256 0.0720794 2.22745e-20)
(1.23572 0.0772496 3.4261e-20)
(1.011 -0.104104 -4.40334e-23)
(1.011 -0.107772 -5.10556e-22)
(1.0142 -0.105287 -5.55969e-22)
(1.05313 -0.0415395 1.53122e-21)
(1.05473 -0.0419286 -2.4617e-22)
(1.05354 -0.0432987 9.22035e-21)
(0.139923 -0.041302 -6.42515e-21)
(0.133179 -0.0391599 6.88191e-21)
(0.223784 -0.0512233 -4.78733e-20)
(1.00183 -0.000400987 -7.54271e-22)
(1.00172 -0.000287554 1.80045e-21)
(1.00188 -0.000268223 -7.74366e-22)
(1.04908 0.0781156 -3.86865e-21)
(1.05112 0.0795216 1.82033e-20)
(1.05132 0.0766226 2.58971e-20)
(1.04869 0.00829166 -3.77437e-21)
(1.04931 0.00784148 8.86117e-22)
(1.04836 0.00748261 5.5083e-21)
(0.590902 -0.509829 -3.06563e-20)
(0.558046 -0.482825 -5.87219e-20)
(0.594544 -0.468128 1.45192e-20)
(1.10327 0.0163276 -4.85753e-21)
(1.10149 0.0156957 -1.67236e-20)
(1.10311 0.0143334 -1.64398e-20)
(1.00369 -0.00753711 1.36599e-21)
(1.00391 -0.0075659 5.44949e-22)
(1.00368 -0.00728346 6.37557e-22)
(1.03733 -0.00617055 0)
(1.03807 -0.00629745 0)
(1.03781 -0.00562903 2.1855e-21)
(1.02214 -0.126263 -2.22976e-21)
(1.01859 -0.125823 -5.58124e-22)
(1.02111 -0.122608 1.32031e-21)
(0.0502263 0.0238308 4.55779e-23)
(0.0262942 0.015849 1.42184e-20)
(0.041293 0.0233506 -1.36338e-21)
(1.00001 -0.000507228 -1.93034e-21)
(0.999991 -0.000704947 2.2592e-21)
(1.00003 -0.000597271 3.26976e-21)
(-0.040852 -0.0166415 1.07881e-20)
(-0.0068345 -0.0194378 7.54526e-20)
(-0.0440231 -0.0168 -1.86929e-20)
(1.22169 0.159091 -1.01434e-20)
(1.22449 0.158039 -3.24124e-20)
(1.21092 0.164636 2.98904e-20)
(1.3136 -0.16588 -2.21577e-20)
(1.316 -0.168907 3.68094e-20)
(1.31682 -0.162348 -1.01579e-19)
(1.01136 -0.00508705 1.50307e-22)
(1.01154 -0.00484625 2.65616e-22)
(0.78857 -0.657967 3.60492e-21)
(0.77888 -0.678538 1.51544e-22)
(0.757545 -0.658997 -3.93179e-21)
(0.0857865 0.071396 6.27049e-21)
(0.135753 0.0766519 -2.66902e-20)
(0.0991806 0.0740917 6.69559e-21)
(0.73892 -0.0136833 0)
(0.834841 -0.0178464 0)
(0.770942 -0.016066 5.51174e-20)
(1.06409 -0.669136 0)
(1.02479 -0.668276 0)
(1.09546 -0.729903 0)
(1.08879 0.0508336 -1.66109e-21)
(1.08967 0.0524528 -2.72586e-21)
(1.09086 0.0508634 -3.73226e-21)
(0.211074 0.0233875 1.95575e-20)
(0.220297 0.0298856 1.25031e-20)
(0.229414 0.0302773 9.932e-21)
(1.00038 -0.000140999 -9.55653e-22)
(1.00033 -0.000131646 1.52233e-21)
(1.00036 -8.22242e-05 2.74599e-21)
(1.05095 -0.0141428 -8.63469e-21)
(1.05171 -0.0134307 -3.95553e-21)
(1.05064 -0.0130753 5.06467e-21)
(1.10805 0.0879698 1.63018e-23)
(1.10599 0.0855769 7.09898e-21)
(1.10483 0.0887221 6.51404e-21)
(0.999267 -0.00101328 -4.44298e-21)
(0.999157 -0.00103023 1.77396e-21)
(0.999197 -0.00116429 -2.62851e-21)
(1.00017 -0.000187234 -9.05641e-22)
(1.00013 -0.000151796 5.75125e-22)
(1.00014 -0.000196783 -1.81563e-21)
(1.03401 -0.0233184 -1.51999e-21)
(1.03312 -0.0232345 1.76426e-22)
(1.03361 -0.0241228 -5.34374e-21)
(1.03976 -0.0271633 3.13902e-21)
(1.04027 -0.0262495 4.51606e-21)
(1.03912 -0.0263715 4.91046e-21)
(1.11102 0.0147241 -1.04805e-21)
(1.11041 0.0126103 -1.39806e-21)
(1.10866 0.0143891 -8.21488e-21)
(1.0349 -0.0217598 3.55556e-21)
(1.03439 -0.0225621 -1.66746e-21)
(1.03398 -0.0215682 -1.88375e-21)
(0.934538 -0.0782324 -4.08639e-21)
(0.934537 -0.073917 -9.71681e-21)
(0.93834 -0.0772168 -1.60087e-20)
(1.02161 -0.00749565 1.40997e-21)
(1.02158 -0.00786215 1.18098e-21)
(1.02205 -0.00770555 6.40146e-22)
(0.970827 -0.0903595 6.54371e-21)
(0.973033 -0.092427 1.73723e-20)
(0.973878 -0.0890871 4.84759e-21)
(1.1725 -0.48318 0)
(1.15178 -0.488422 0)
(1.19804 -0.510794 -3.676e-20)
(1.01308 -0.00154801 -8.35139e-22)
(1.01322 -0.00139899 2.14662e-22)
(1.01327 -0.00163333 -4.47419e-22)
(-0.0400049 -0.0170411 0)
(-0.0696218 -0.0145656 -6.64296e-20)
(1.04701 -0.0565859 -3.0185e-21)
(1.0485 -0.0555073 -1.03951e-20)
(1.04675 -0.054674 0)
(1.00807 -0.103137 -8.89262e-22)
(1.01102 -0.101062 -3.98602e-22)
(1.0216 -0.00594381 -5.07339e-23)
(1.02155 -0.00557409 -9.15477e-22)
(1.02115 -0.00572961 -9.24281e-22)
(1.208 -0.153511 -4.30914e-21)
(1.21126 -0.149828 1.28944e-20)
(1.21372 -0.155476 1.871e-20)
(0.407605 0.111079 -2.39567e-21)
(0.395395 0.111173 5.7462e-21)
(0.455879 0.118386 -6.41348e-21)
(1.01565 -0.00190039 1.08685e-21)
(1.0159 -0.00194984 6.40232e-22)
(1.01572 -0.00176212 -1.30169e-22)
(1.05142 -0.0411974 -9.58387e-21)
(1.05258 -0.0400378 1.71408e-21)
(0.03748 0.0624044 1.85831e-20)
(0.0645642 0.0674368 8.27544e-22)
(1.11345 -0.217464 -3.46837e-20)
(1.19837 -0.229341 0)
(1.23682 -0.242426 7.41187e-21)
(1.00021 -0.000182284 7.95488e-23)
(1.00021 -0.000234079 1.1361e-21)
(0.514689 -0.342003 -2.59065e-20)
(0.532627 -0.313069 -1.11963e-20)
(0.992492 -0.0219288 6.19384e-22)
(0.993147 -0.022066 -7.64654e-21)
(0.992568 -0.0227446 -4.70941e-21)
(1.05193 0.0851897 -1.65005e-20)
(1.05126 0.0821856 -1.32068e-20)
(1.0492 0.0842089 -4.2366e-21)
(1.09872 -0.260351 1.22796e-20)
(1.09368 -0.264869 2.34697e-20)
(1.10186 -0.26578 -1.59318e-21)
(-0.195323 -0.00989867 -6.12262e-20)
(-0.177388 -0.0144226 -6.43201e-20)
(1.19323 0.0280807 -1.00339e-20)
(1.19062 0.0322953 -3.20056e-20)
(1.19596 0.0315767 -2.31593e-20)
(0.967719 -0.0447674 -8.06623e-22)
(0.969445 -0.0440445 7.32891e-21)
(0.967772 -0.0426954 5.79978e-21)
(1.01557 -0.00204476 -1.48466e-21)
(1.01543 -0.0018201 2.06732e-21)
(0.993748 -0.00493358 -6.74247e-21)
(0.993944 -0.00457023 -2.15884e-21)
(0.994058 -0.0049203 8.09648e-22)
(1.10859 0.0187519 0)
(1.10622 0.0201249 -5.49538e-21)
(1.1065 0.017546 0)
(1.00044 -0.000135461 -2.2005e-21)
(1.00041 -0.000194445 -1.89725e-21)
(1.03217 -0.0216645 1.6307e-21)
(1.03133 -0.0217398 0)
(1.0317 -0.0209421 0)
(0.368565 0.106095 -8.1106e-21)
(0.414559 0.110123 -2.05027e-21)
(0.2932 0.0991644 2.21518e-20)
(0.301302 0.0976755 -8.51503e-21)
(0.257917 0.0897561 -7.12636e-21)
(0.970184 -0.0244641 -5.63968e-21)
(0.96997 -0.0258155 -9.13433e-21)
(0.971348 -0.0252511 7.60134e-22)
(1.02164 -0.00631176 1.22053e-22)
(1.02207 -0.00616238 -3.19761e-22)
(0.155136 -0.318668 -5.74085e-20)
(0.17767 -0.27323 -2.18845e-20)
(0.11065 0.0319256 -8.02737e-20)
(1.01715 -0.00897875 -7.39325e-22)
(1.01668 -0.00888617 5.19929e-23)
(1.01689 -0.0086167 -9.03106e-23)
(0.994551 -0.0231762 8.1638e-23)
(0.993981 -0.0230393 -3.89899e-23)
(0.99447 -0.0224494 6.61396e-23)
(1.16344 0.120283 0)
(1.16764 0.11702 0)
(1.16906 0.121697 0)
(0.20346 0.0975241 -3.88175e-23)
(0.159094 0.085668 -4.29049e-21)
(0.189559 0.0943103 3.30728e-20)
(0.886322 -0.31645 0)
(0.900759 -0.31388 4.51195e-21)
(0.895656 -0.329244 -5.12508e-21)
(-0.062651 -0.0239558 1.17641e-19)
(-0.0604859 -0.0233634 9.73164e-21)
(-0.0874375 -0.021971 6.55115e-21)
(0.0283468 -0.0146195 2.67976e-20)
(0.0278268 -0.0147282 0)
(0.0703876 -0.0168779 0)
(1.23765 -0.457394 4.06856e-22)
(1.22499 -0.464169 -3.1363e-20)
(1.24051 -0.473306 7.99515e-23)
(1.05424 0.0854334 5.20044e-22)
(1.05273 0.0877578 7.01499e-21)
(0.0701844 0.0264588 -3.31155e-20)
(0.109919 0.027062 1.30864e-20)
(0.113914 0.0313785 -3.21061e-20)
(1.15886 0.121054 -9.50125e-21)
(1.16172 0.126104 3.56916e-20)
(1.09412 -0.027544 -1.28821e-20)
(1.09403 -0.0299595 1.53235e-20)
(1.0919 -0.0280252 1.79701e-20)
(0.460981 -0.166621 0)
(0.517515 -0.190421 0)
(0.701611 -0.248926 4.28186e-20)
(1.19552 0.0247443 3.0034e-20)
(1.19019 0.0257138 2.15459e-20)
(-0.0549585 -0.0309251 1.86e-20)
(-0.0648595 -0.0325408 1.19806e-19)
(-0.0370786 -0.0196583 2.22853e-20)
(0.995335 -0.023367 3.35852e-21)
(0.994785 -0.0240289 -2.17185e-21)
(0.0354505 0.0260071 0)
(0.0318229 0.0223896 0)
(0.991919 -0.0217951 4.31551e-21)
(0.992465 -0.0212662 4.76627e-21)
(0.105452 -0.0598324 6.53017e-20)
(0.0933342 -0.0609964 3.45573e-20)
(0.225504 -0.085011 2.37822e-20)
(0.934496 -0.0826335 7.84807e-21)
(0.930674 -0.07921 2.17981e-21)
(0.0281321 -0.0164634 1.87319e-20)
(0.0306157 -0.0157807 5.53602e-20)
(0.0708773 -0.0169043 -1.57039e-20)
(0.114054 -0.0618604 3.70376e-20)
(0.0345673 -0.0457248 2.95014e-20)
(1.1541 0.123372 -9.03719e-21)
(1.1555 0.117178 1.03379e-20)
(1.01758 -0.00908327 -4.93779e-22)
(1.01735 -0.00936756 -5.68491e-22)
(1.00158 -0.0174716 0)
(1.00127 -0.0172608 0)
(1.00134 -0.0177646 0)
(0.0723769 0.0317178 2.96707e-24)
(0.058787 0.0241898 -1.23247e-20)
(1.0339 -0.128566 -9.01759e-21)
(1.03099 -0.13208 -7.05362e-21)
(1.02991 -0.12718 1.93027e-21)
(-0.00067493 0.0242037 5.35369e-20)
(-0.0372949 0.0212118 -2.16767e-20)
(-0.0399376 0.0219925 -1.21266e-20)
(1.13574 0.0532418 0)
(1.13359 0.0509057 -2.01547e-20)
(1.13271 0.0541381 -2.14525e-20)
(1.11352 -0.132022 -7.38822e-21)
(1.1091 -0.131369 0)
(1.11208 -0.128112 0)
(0.192635 0.017162 7.856e-23)
(0.201536 0.0173213 3.57321e-23)
(1.10434 -0.659442 9.3727e-21)
(1.05745 -0.630426 1.83412e-20)
(1.03565 0.180828 -4.98584e-22)
(1.02232 0.181731 1.08579e-20)
(1.07218 0.181922 3.22635e-20)
(0.213453 0.0991678 0)
(0.258559 0.104695 -2.49077e-20)
(1.04131 -0.0374814 -2.6023e-21)
(1.04096 -0.0362728 -3.29482e-21)
(1.04251 -0.036532 -5.83611e-21)
(0.964027 -0.0117757 -8.75291e-22)
(0.964886 -0.0104884 0)
(0.96322 -0.0102469 -4.89931e-22)
(0.268901 -0.0988303 -1.37732e-22)
(0.127991 -0.0678439 -5.75544e-20)
(0.567386 -0.910534 4.51512e-20)
(1.01027 -0.00561856 3.7127e-23)
(1.01019 -0.00534228 1.48226e-23)
(1.00995 -0.00546444 2.45352e-23)
(1.00738 -0.0360276 1.154e-21)
(1.00839 -0.0362268 2.17789e-22)
(1.00796 -0.0350502 -1.43596e-21)
(0.74218 0.0747479 1.45528e-20)
(0.75077 0.0802166 -2.70587e-20)
(0.675215 0.0744588 -6.62008e-20)
(-0.329884 -0.000621394 -1.89794e-20)
(-0.35286 0.00156115 -1.14522e-19)
(-0.332202 -0.00129808 -4.97423e-20)
(-0.329185 0.00178733 -2.70231e-20)
(-0.330016 0.00306292 7.97724e-21)
(-0.301007 0.00286765 -2.95499e-20)
(1.04886 0.0090528 -3.9529e-21)
(1.04796 0.00871733 5.42485e-22)
(0.0176897 -0.0285012 2.65395e-20)
(0.0751397 -0.0328653 0)
(0.0177422 -0.0269734 -3.49134e-21)
(0.0221445 -0.0148874 0)
(-0.00705348 -0.0125233 7.22422e-20)
(1.11599 -0.0558883 -4.76649e-21)
(1.11363 -0.0539369 -1.41783e-20)
(1.11286 -0.0573553 6.18284e-21)
(0.987459 -0.010367 3.15428e-21)
(0.987196 -0.0107093 7.65345e-22)
(0.986854 -0.0101823 -5.65992e-22)
(0.551068 -0.0599835 -1.36566e-20)
(0.510632 -0.0490944 -1.82834e-20)
(0.450998 -0.0390006 8.97246e-20)
(0.602322 -0.627864 -1.63558e-20)
(0.641616 -0.607231 -2.82738e-21)
(0.644678 -0.654719 -1.31752e-20)
(1.15842 -0.380541 1.25196e-20)
(1.15771 -0.392024 2.85086e-20)
(1.16747 -0.385878 -1.50837e-20)
(1.19446 -0.477129 0)
(1.16279 -0.462288 0)
(1.25888 -0.0428006 -6.14949e-21)
(1.2925 -0.0427102 -1.31555e-20)
(1.27166 0.102106 -1.69911e-20)
(1.26904 0.107664 0)
(1.27714 0.105362 -2.75726e-20)
(0.0743496 -0.0532028 0)
(0.024043 -0.0378076 -4.528e-20)
(1.00257 -0.000150111 1.57036e-21)
(1.00279 -0.000153158 -5.59447e-22)
(1.0035 -0.000246608 -2.81694e-21)
(1.10482 0.0167906 1.08584e-20)
(1.10322 0.0180222 1.03507e-20)
(0.831523 -0.647785 9.02329e-21)
(0.801861 -0.618486 3.56164e-21)
(-0.00111654 0.0101787 1.37643e-20)
(0.00595287 0.0104138 4.245e-20)
(0.926909 -0.217123 8.24455e-22)
(0.917375 -0.218003 0)
(0.924967 -0.209635 -4.05928e-21)
(0.242391 -0.659717 -1.70941e-20)
(0.223494 -0.735509 -2.31275e-20)
(0.966965 -0.0622375 6.31721e-22)
(0.965984 -0.0644703 -5.80387e-21)
(0.96854 -0.0641628 -1.07233e-21)
(1.17142 0.114479 1.29061e-20)
(1.16592 0.113144 0)
(1.11173 0.0163851 -8.92916e-21)
(1.11339 0.0148748 9.28223e-21)
(1.00202 -0.017789 1.85248e-21)
(1.00188 -0.0172036 0)
(0.78475 -0.253413 -4.29366e-22)
(0.772335 -0.248808 1.01277e-20)
(0.776216 -0.264715 5.53766e-20)
(0.878136 -0.307727 0)
(0.872441 -0.324297 9.03863e-21)
(0.93722 -0.441802 -4.23831e-22)
(0.925523 -0.453083 -2.88609e-21)
(0.945626 -0.454103 -1.98102e-21)
(1.00297 -0.0306043 -9.61756e-22)
(1.00354 -0.0313073 1.08576e-21)
(1.0027 -0.0313944 1.67357e-22)
(1.03569 -0.196099 -3.1467e-20)
(0.972448 -0.180018 4.37743e-20)
(1.0353 -0.021179 4.14805e-21)
(1.03568 -0.0221288 4.46305e-22)
(1.04004 -0.00404805 -4.53558e-22)
(1.03983 -0.00343064 0)
(1.03923 -0.00396974 0)
(-0.138721 0.0199654 -4.66858e-21)
(-0.147254 0.0199473 5.3277e-21)
(-0.166091 0.0140482 1.02478e-20)
(0.373717 0.0350918 0)
(0.387809 0.0490621 1.08514e-20)
(0.388429 0.0442114 1.57715e-20)
(1.08813 0.0491588 -1.14274e-20)
(1.08689 0.0505831 -3.07424e-21)
(0.733163 0.130243 -1.10803e-20)
(0.704895 0.123585 -9.03032e-20)
(0.665169 0.120742 -3.39535e-21)
(1.24784 -0.445747 2.56768e-20)
(1.23057 -0.442131 -8.74245e-22)
(1.12041 0.171979 0)
(1.11733 0.175196 0)
(1.11621 0.171423 -1.99262e-20)
(1.09409 -0.0321022 8.16502e-21)
(1.09192 -0.0326563 -2.41257e-21)
(1.09409 -0.0345263 1.08169e-20)
(0.999974 -0.000517781 0)
(1.00001 -0.000691656 -1.90759e-21)
(0.999978 -0.000558279 0)
(-0.0453767 -0.0130281 4.10281e-20)
(-0.0421388 -0.0135636 1.22601e-20)
(-0.0756229 -0.0127408 2.6124e-20)
(1.08498 -0.0480443 6.84987e-21)
(1.08362 -0.0463507 -2.72236e-21)
(1.08246 -0.0483514 1.20893e-20)
(-0.0257024 -0.0272622 -4.325e-20)
(0.0112006 -0.0295491 -1.65437e-20)
(1.04565 -0.0574501 -7.41831e-21)
(1.04734 -0.0584426 3.09081e-22)
(0.99036 -0.0363926 7.83128e-22)
(0.989568 -0.0370644 4.47276e-21)
(0.989408 -0.035755 -1.70906e-21)
(0.999995 -0.000349703 3.88691e-21)
(1 -0.000175046 -1.27128e-22)
(1 -0.000186313 1.90596e-21)
(1.01029 -0.0128739 2.67663e-22)
(1.0106 -0.0131618 -2.62777e-23)
(1.01022 -0.0132628 1.98594e-22)
(1.05797 0.088304 -4.04384e-21)
(1.05661 0.0862941 -1.5026e-20)
(1.05573 0.0892387 -4.55914e-21)
(0.188089 -0.097764 5.78548e-20)
(0.256361 -0.125058 -6.51133e-20)
(0.0908451 -0.0751859 -6.18471e-21)
(0.991242 -0.0353132 3.66712e-22)
(0.991539 -0.0368039 3.24664e-22)
(1.10451 -0.255069 -3.08208e-20)
(1.09632 -0.25497 -5.93405e-21)
(0.702592 -0.00829889 -6.32766e-20)
(0.650055 -0.00683495 1.14659e-20)
(1.03858 -0.00765404 3.46393e-23)
(1.0394 -0.00781644 3.02713e-23)
(1.03871 -0.0084115 -9.14131e-23)
(0.424025 -0.054556 9.23558e-21)
(0.515724 -0.0703729 -6.59623e-20)
(0.40761 -0.0536629 0)
(1.19805 -0.255951 -1.24212e-20)
(1.19254 -0.259963 2.7993e-20)
(1.19165 -0.252456 -2.29481e-20)
(0.150539 0.0282827 4.33467e-21)
(0.202049 0.0330273 -4.42088e-20)
(0.19525 0.029205 -4.01006e-20)
(-0.210084 -0.00691042 -5.51093e-20)
(-0.211865 -0.0066993 -1.20986e-20)
(-0.18101 -0.00796681 1.87948e-21)
(1.00352 -0.00755307 -2.86722e-22)
(1.00375 -0.00779006 3.87314e-22)
(0.341103 -0.136349 0)
(0.135665 -0.0782406 -5.55092e-20)
(0.104743 0.0759464 -1.6786e-21)
(0.112499 0.0773109 3.06247e-20)
(0.155658 0.0822089 3.25052e-20)
(1.06011 0.0875264 2.43994e-20)
(1.05934 0.0905343 -1.25815e-20)
(1.21512 0.155734 3.13531e-20)
(1.21622 0.162015 1.34664e-21)
(0.652863 0.0190356 5.56841e-21)
(0.590548 0.0133988 2.67609e-20)
(0.675831 0.0162879 -3.08572e-20)
(0.96776 -0.0462844 -7.10532e-21)
(0.966038 -0.0451467 -3.12903e-21)
(0.796749 -0.245373 1.0953e-20)
(0.798997 -0.261276 -1.78267e-20)
(1.02949 -0.0324919 1.56082e-21)
(1.0305 -0.0327584 1.13826e-21)
(1.03014 -0.031682 -6.71084e-22)
(1.00868 -0.00526589 5.69038e-23)
(1.0084 -0.00509748 3.05875e-22)
(1.00864 -0.0049632 6.10088e-23)
(-0.323265 0.000167838 1.90514e-20)
(-0.324829 -0.00144145 -1.82199e-20)
(1.11808 0.166708 6.94189e-21)
(1.1244 0.172021 0)
(1.02621 -0.00561257 -9.13276e-22)
(1.02663 -0.00543109 -4.70107e-21)
(1.02673 -0.00594776 -1.6178e-21)
(1.06752 -0.00141843 -3.07432e-21)
(1.06793 -0.000358507 9.96567e-21)
(1.0688 -0.00152981 2.69842e-21)
(1.12698 0.167432 2.34428e-20)
(1.12521 0.16289 2.40555e-20)
(1.1196 0.162543 -3.693e-21)
(0.996582 -0.0181205 -2.60835e-21)
(0.996466 -0.0186423 0)
(0.996995 -0.01852 -3.4972e-21)
(-0.331605 -4.89403e-05 9.79059e-20)
(-0.304422 -0.00219372 5.9501e-20)
(1.02072 -0.00695051 4.01471e-23)
(1.02076 -0.00658213 3.38909e-21)
(1.02031 -0.00669611 7.68156e-22)
(0.994759 -0.0161338 -3.28023e-21)
(0.994935 -0.0166234 -9.77956e-22)
(0.994388 -0.0165939 1.23135e-21)
(0.933821 -0.218964 1.40591e-20)
(0.926464 -0.226365 -1.29612e-20)
(1.27462 0.0955894 -1.55249e-20)
(1.26466 0.0979612 -1.74504e-20)
(1.01002 -0.0475973 -3.87689e-22)
(1.0101 -0.048986 8.68562e-22)
(1.0089 -0.0483494 -1.10449e-21)
(1.08762 0.0475393 0)
(1.08941 0.047668 2.74627e-21)
(0.969806 -0.147853 -5.51772e-21)
(0.966068 -0.149682 -7.3136e-23)
(0.97081 -0.152196 1.04122e-21)
(1.19812 0.0216673 8.97556e-21)
(1.20024 0.0247509 8.04063e-21)
(1.02588 -0.126606 2.20361e-21)
(1.02336 -0.130395 -1.31276e-21)
(1.20441 -0.252666 1.96192e-21)
(1.20598 -0.26006 -2.99955e-20)
(1.00057 -0.00196702 -2.20785e-21)
(1.00051 -0.00183016 6.56035e-22)
(1.0005 -0.00189222 -1.47856e-21)
(1.02116 -0.00725562 2.77743e-22)
(1.02162 -0.00706986 8.36483e-22)
(0.738598 -0.199597 1.5472e-20)
(0.745996 -0.212507 0)
(0.754589 -0.200628 0)
(1.04404 -0.0581874 7.15712e-24)
(1.04391 -0.056431 -2.08907e-21)
(1.06748 -0.129834 2.04933e-21)
(1.06365 -0.13129 -9.06265e-21)
(1.06707 -0.134827 -2.18539e-20)
(1.17673 0.00237357 5.47355e-21)
(1.17863 -0.000253425 0)
(1.17998 0.00392163 0)
(1.00176 -0.000502267 0)
(1.00193 -0.000510354 -7.0014e-22)
(0.969656 -0.143516 -7.47099e-21)
(0.97405 -0.146075 0)
(1.14126 0.0511919 2.21387e-20)
(1.1443 0.0501576 -2.31214e-20)
(1.14336 0.0536556 -2.16874e-20)
(0.999994 -0.00033552 -1.54667e-21)
(0.999986 -0.000537679 0)
(0.0812559 0.0214444 0)
(0.0574544 0.0138934 1.51669e-20)
(0.0756374 0.0239171 9.86927e-21)
(1.00497 -0.102032 -8.77083e-22)
(1.00488 -0.105664 7.3215e-22)
(1.00409 -0.00755714 0)
(1.00433 -0.00758144 0)
(1.00408 -0.00726575 1.21277e-21)
(1.11467 -0.136043 -7.01012e-21)
(1.11788 -0.132599 5.2116e-22)
(0.99164 -0.0390988 6.34615e-21)
(0.992755 -0.039174 -3.75477e-21)
(0.992066 -0.0380561 2.57353e-21)
(1.07286 -0.120794 0)
(1.07602 -0.120391 8.8167e-21)
(1.07533 -0.124549 -2.35952e-21)
(0.854197 -0.291869 -7.86008e-21)
(0.848953 -0.279584 6.27598e-21)
(0.863145 -0.283325 1.39915e-21)
(0.0765168 -0.0190367 -4.9287e-20)
(0.0405359 -0.0180182 3.0963e-20)
(0.0387005 -0.0171063 -3.61779e-20)
(0.843186 -0.300032 -4.08953e-21)
(0.858482 -0.302873 -1.72417e-20)
(0.508621 -0.425632 2.30029e-20)
(0.532679 -0.454956 4.6285e-21)
(0.54208 -0.416908 -2.10882e-20)
(1.0154 -0.00498603 0)
(1.01575 -0.00505892 -4.14975e-24)
(1.01551 -0.00526143 -1.43434e-22)
(0.206146 0.0195469 -1.11703e-19)
(0.147079 0.0152125 3.9898e-21)
(1.00414 -0.00779256 -8.45983e-22)
(1.04048 -0.0382513 -1.11231e-21)
(1.04189 -0.0384615 7.03286e-23)
(1.13147 0.114953 -2.43271e-20)
(1.1348 0.117633 3.65546e-21)
(1.13471 0.113095 -4.99888e-22)
(-0.130541 0.0195867 1.73447e-21)
(-0.117597 0.0260859 -2.01602e-21)
(1.2429 -0.180465 0)
(1.24794 -0.180997 0)
(1.24469 -0.185864 0)
(1.13817 0.0524115 2.87908e-20)
(1.13908 0.0487764 4.12988e-20)
(1.1581 -0.0634086 -1.92226e-22)
(1.15773 -0.0586887 1.07242e-20)
(1.15399 -0.0620754 -1.76844e-20)
(0.975188 -0.205234 3.71412e-22)
(0.980124 -0.210006 -9.10154e-22)
(0.972745 -0.212584 5.31589e-21)
(1.02586 -0.0030367 2.25202e-21)
(1.02582 -0.00267208 -2.61984e-22)
(1.02626 -0.00294989 7.31623e-22)
(1.18073 -0.0042643 1.40238e-20)
(1.18317 -0.0068458 -1.09714e-21)
(1.18457 -0.00227575 1.12959e-20)
(0.993594 -0.00523697 5.4351e-21)
(0.993415 -0.00490396 -4.04634e-21)
(1.1953 0.0186017 -3.52997e-20)
(1.20068 0.0179563 -1.722e-20)
(-0.0420607 -0.0181189 0)
(-0.0489685 -0.0158985 0)
(-0.0720953 -0.0133487 -3.86599e-20)
(1.15037 0.124814 0)
(1.15303 0.128664 -2.89547e-20)
(1.0016 -0.000164539 1.0732e-21)
(1.00159 -0.000268555 1.86631e-21)
(0.996751 -0.017563 6.53329e-23)
(0.996212 -0.0177134 -2.60249e-21)
(1.02593 -0.00344578 1.04595e-23)
(1.02541 -0.00315689 1.82234e-21)
(1.01274 -0.00180067 -3.84626e-22)
(1.01259 -0.00193031 -3.99082e-22)
(1.01253 -0.00169994 6.35862e-24)
(0.661393 -0.0743271 4.24757e-20)
(0.588812 -0.064899 -1.58225e-20)
(1.09338 -0.0990549 -1.33395e-21)
(1.09052 -0.0992188 -3.61332e-21)
(1.09245 -0.102425 -1.18507e-20)
(1.00824 -0.012611 4.12281e-22)
(1.00822 -0.0128972 1.01677e-21)
(1.00855 -0.0128442 1.20236e-21)
(1.25084 -0.27261 6.11183e-20)
(1.25625 -0.280647 -3.87041e-20)
(1.26423 -0.274657 7.17131e-22)
(0.989025 0.178714 -3.02118e-20)
(1.04258 0.179208 -1.37223e-20)
(1.05317 -0.0248132 1.76241e-21)
(1.05428 -0.0248756 -1.03583e-20)
(1.05342 -0.0238211 -2.44603e-21)
(0.765671 0.13748 5.95635e-20)
(0.808004 0.141125 3.80489e-20)
(0.0778394 0.0255122 7.99391e-20)
(0.0921653 -0.130501 4.6928e-20)
(-0.0618783 -0.0283355 1.18221e-20)
(1.14617 0.126189 0)
(1.14787 0.120538 2.44744e-20)
(0.999359 -0.0010039 3.21617e-21)
(0.999328 -0.000908249 -1.61009e-22)
(0.027078 -0.0147313 -2.92337e-20)
(0.0287217 -0.0151959 -2.42658e-20)
(0.0722535 -0.0163476 2.74388e-20)
(0.893872 -0.0778273 0)
(0.891041 -0.0730396 0)
(0.896386 -0.0735035 0)
(0.999033 -0.00138656 0)
(0.99901 -0.00151859 0)
(0.998925 -0.00151361 2.35564e-21)
(0.420055 -0.0503477 9.04106e-21)
(0.324929 -0.0394458 -5.45443e-20)
(1.09579 -0.0274776 -2.24511e-20)
(1.09405 -0.02568 -2.92243e-20)
(0.890238 -0.0823062 0)
(0.89594 -0.0824243 0)
(1.04522 0.00325014 1.95652e-21)
(1.04546 0.00386396 1.94458e-21)
(1.046 0.00325846 -2.01529e-22)
(1.12237 -0.0612614 1.05538e-20)
(1.11947 -0.0606348 8.00624e-21)
(1.12186 -0.058023 2.40563e-20)
(1.17202 0.155624 2.71505e-20)
(1.17838 0.159434 1.19032e-20)
(1.17674 0.15269 1.36902e-20)
(0.477452 -0.436751 1.91779e-20)
(0.488977 -0.402939 1.50809e-20)
(1.06981 -0.122138 0)
(1.07003 -0.118298 2.45365e-21)
(0.914756 -0.311513 4.70608e-21)
(0.923049 -0.321392 1.01837e-22)
(0.926925 -0.308223 3.5203e-21)
(1.02947 0.00180914 0)
(1.02998 0.00194407 -1.25317e-21)
(1.13617 0.036087 -1.51349e-20)
(1.13598 0.03932 -1.40329e-20)
(1.13303 0.0375294 4.0066e-21)
(0.99898 -0.00726806 -1.26527e-22)
(0.998965 -0.00769259 0)
(0.999147 -0.00738774 3.59147e-21)
(1.17479 0.00617721 -3.02199e-20)
(1.17297 0.00187867 1.85941e-20)
(1.0022 -0.100814 -1.62566e-22)
(1.00516 -0.0989301 -1.24133e-21)
(1.12849 0.113085 -1.26919e-20)
(1.12916 0.1175 -1.74845e-20)
(-0.292149 -0.00503532 9.36636e-21)
(-0.305363 -0.00131751 7.68343e-21)
(-0.295426 -0.00680762 -7.58441e-20)
(1.01507 -0.00495208 0)
(1.01528 -0.00475888 0)
(1.04042 -0.0339852 3.26852e-21)
(1.04171 -0.0342411 1.22081e-21)
(1.0407 -0.0351245 3.14522e-21)
(1.01126 -0.46458 -4.58219e-22)
(1.03029 -0.461801 1.57389e-20)
(1.02374 -0.485283 4.82638e-21)
(1.0401 -0.0329148 1.52404e-21)
(1.03914 -0.0337234 -6.72211e-21)
(1.06634 -0.00117055 0)
(1.06697 -0.00234203 -4.61151e-21)
(1.17652 -0.00516092 0)
(0.543779 -0.0235041 -3.37749e-21)
(0.636062 -0.0286521 2.10783e-21)
(0.570247 -0.0258196 -1.25726e-20)
(-0.331871 0.000606888 0)
(-0.350726 0.00278387 0)
(1.00109 -0.0301889 2.72949e-23)
(1.00175 -0.0298254 -3.00016e-21)
(1.00096 -0.0292954 2.12461e-21)
(1.20734 -0.140382 4.06145e-20)
(1.20318 -0.135375 3.93199e-21)
(1.20146 -0.142084 4.50016e-20)
(0.35298 0.0780529 1.208e-20)
(0.149054 -0.00120528 -2.79807e-20)
(0.402733 0.0634815 0)
(1.20952 -0.471677 -2.95927e-20)
(1.1997 -0.453167 -2.7665e-20)
(1.00761 -0.0536193 9.30385e-23)
(1.00637 -0.0529077 -2.36406e-21)
(1.00768 -0.0520744 -1.31033e-21)
(1.02964 -0.00924599 6.58184e-23)
(1.03026 -0.00951721 5.84004e-23)
(1.03012 -0.00884227 -5.65325e-21)
(1.07382 -0.0767898 -8.10975e-21)
(1.07597 -0.0768204 -5.30069e-21)
(1.07478 -0.0741471 7.22297e-22)
(1.0967 -0.0982095 1.4453e-20)
(1.09444 -0.0952204 8.58653e-21)
(1.00247 -0.0300253 -2.31282e-21)
(1.00322 -0.0299706 2.83555e-21)
(0.355858 0.117305 7.82068e-21)
(0.392418 0.122182 9.166e-21)
(1.24726 -0.265189 -4.56993e-21)
(1.24157 -0.271254 5.98017e-20)
(0.916227 0.118734 -4.58216e-21)
(0.874795 0.120223 0)
(0.902933 0.118999 0)
(-0.0102449 0.00979997 -1.77193e-20)
(-0.00602368 -0.0191354 -1.00497e-22)
(1.02482 -0.0055449 -1.32662e-21)
(1.02518 -0.00525913 1.47354e-21)
(1.02465 -0.00509114 0)
(1.01553 -0.000197008 -1.9764e-22)
(1.0155 -0.000122277 -1.0732e-21)
(0.982558 -0.222481 1.15198e-21)
(0.976108 -0.225059 0)
(0.98243 -0.230538 -6.10401e-23)
(0.11968 -0.0190899 6.39172e-21)
(0.121472 -0.0222576 -2.13788e-20)
(0.91856 -0.0426899 7.40371e-21)
(0.920565 -0.03955 6.0614e-21)
(0.922227 -0.0427639 2.51873e-20)
(0.906582 -0.302122 1.19801e-21)
(1.2102 -0.0198883 2.20682e-20)
(1.20883 -0.0157867 8.04963e-21)
(1.20587 -0.0194384 1.73353e-20)
(1.0683 -0.0810379 -3.80261e-21)
(1.07091 -0.0814772 8.26322e-21)
(1.06874 -0.0839607 2.11833e-21)
(-0.00904124 -0.0138611 2.36516e-20)
(1.03683 -0.00668779 0)
(1.03659 -0.00601677 2.41873e-22)
(1.03152 0.107847 -7.42534e-21)
(1.03176 0.107505 -7.6167e-22)
(1.03358 0.109958 5.55838e-21)
(0.103273 0.0238161 -3.79995e-22)
(1.0129 -0.00168802 -3.5936e-22)
(1.01288 -0.00145441 9.08062e-23)
(0.499132 0.0988393 -7.35721e-22)
(0.459666 0.0928322 -2.64825e-21)
(0.473168 0.0933425 1.04495e-20)
(0.956523 -0.164242 -4.72442e-22)
(0.959222 -0.169173 -5.62457e-21)
(0.952694 -0.169215 0)
(1.03267 -0.022487 3.16796e-21)
(1.03304 -0.0215362 1.56798e-21)
(1.06072 -0.112924 5.94407e-21)
(1.06444 -0.115228 -1.0681e-20)
(1.06414 -0.110255 6.82485e-21)
(1.19347 -0.0650443 6.82958e-21)
(1.19307 -0.0600536 -5.84705e-20)
(1.18889 -0.0642655 -1.19437e-20)
(1.0505 -5.47362e-06 2.83725e-21)
(1.05024 0.000696284 0)
(1.05122 0.000497482 -5.88873e-21)
(0.999122 -0.00130644 3.19978e-21)
(0.999028 -0.00127513 -1.36515e-21)
(-0.241613 -0.00559042 -3.10397e-20)
(-0.23983 -0.00701986 -7.7152e-21)
(-0.217452 -0.0070452 1.57645e-21)
(0.936392 0.116631 -1.05117e-20)
(0.963161 0.115557 5.97662e-21)
(1.00122 -0.0130759 1.65746e-21)
(1.00147 -0.0133215 -1.03081e-21)
(1.00117 -0.0134318 2.0156e-21)
(-0.235688 -0.00556985 1.08319e-20)
(-0.241479 -0.00372788 9.69831e-20)
(-0.24744 -0.00209884 1.27499e-20)
(-0.0065377 -0.0133919 1.69287e-20)
(1.2377 -0.179666 0)
(1.24117 -0.175083 8.189e-21)
(0.997765 -0.00780471 0)
(0.997655 -0.0081814 2.80192e-21)
(0.997569 -0.00775655 3.88961e-21)
(1.00272 -8.57379e-05 1.97843e-21)
(1.05394 0.129789 -3.17593e-21)
(1.05568 0.132129 -1.85865e-20)
(1.0537 0.132647 -1.65803e-20)
(1.05196 -0.0248654 1.04948e-20)
(1.05275 -0.0260961 4.81513e-21)
(1.02568 -0.00539709 3.61475e-21)
(1.02581 -0.00594698 1.12429e-21)
(1.03032 -0.0107422 -1.52836e-21)
(1.03041 -0.011202 -1.97009e-21)
(1.03093 -0.010752 -2.82138e-21)
(0.947144 -0.0137217 0)
(0.945006 -0.0133138 0)
(0.946327 -0.0112403 0)
(1.18674 -0.264227 8.23097e-22)
(1.19379 -0.267929 5.8621e-20)
(1.19419 -0.0689136 2.88844e-20)
(1.19801 -0.0649227 2.44662e-20)
(1.07283 -0.0791726 2.86732e-21)
(1.07141 -0.0766206 -7.55981e-21)
(1.08749 -0.0980172 1.18424e-20)
(1.08753 -0.101158 3.6525e-21)
(1.01484 -0.125201 -9.28912e-22)
(1.01585 -0.129056 -1.35554e-21)
(0.941515 -0.218985 2.58588e-20)
(0.940832 -0.225673 9.8597e-22)
(1.02896 0.00170196 -2.72979e-22)
(1.02932 0.00137549 2.30534e-21)
(0.999993 -0.000509891 1.87852e-21)
(0.999994 -0.000507913 -2.59392e-21)
(1.2682 0.115067 -1.3182e-20)
(1.26233 0.110636 0)
(1.06221 -0.203498 0)
(1.05919 -0.208918 0)
(1.06594 -0.208317 0)
(1.21139 -0.144342 3.56802e-22)
(1.2124 -0.138179 3.9554e-22)
(0.386234 0.184147 -8.1419e-21)
(0.364395 0.190372 3.1587e-21)
(0.915318 -0.0430053 -3.73085e-21)
(0.917472 -0.0461505 8.00122e-21)
(1.00992 -0.046219 -2.20054e-22)
(1.01112 -0.0467441 1.11576e-22)
(1.00423 -0.000212334 0)
(1.00469 -0.000203484 5.8433e-22)
(1.00592 -0.000213383 2.77854e-24)
(1.03032 0.105973 -5.52542e-21)
(1.02997 0.108544 -1.69266e-20)
(0.542609 0.10389 -3.96562e-21)
(0.531185 0.104074 -7.57662e-21)
(1.02603 -0.00387483 -1.58217e-21)
(1.02647 -0.00373334 -1.96182e-21)
(1.00452 -0.00756616 -4.92587e-22)
(1.00475 -0.00755836 8.34356e-23)
(1.00449 -0.0072701 -4.84677e-22)
(1.02603 -0.00425895 0)
(1.02558 -0.00392016 -2.09525e-21)
(0.967624 -0.0602277 6.70084e-21)
(0.9655 -0.0607816 6.99828e-22)
(0.969452 -0.200504 -5.62302e-22)
(0.976431 -0.198642 -5.39891e-23)
(1.30661 -0.160102 2.49748e-20)
(1.30061 -0.165193 0)
(0.988098 -0.010391 -3.47605e-21)
(0.987758 -0.00986047 2.46306e-21)
(0.96758 -0.0109862 -6.05631e-21)
(0.96885 -0.0111829 8.65488e-23)
(0.968257 -0.00981565 4.0504e-23)
(1.02231 -0.00524845 -3.25371e-21)
(1.02264 -0.0050408 4.992e-22)
(1.02219 -0.00485856 -9.1309e-22)
(0.614515 -0.535601 -1.08463e-21)
(0.578627 -0.552872 6.69222e-21)
(0.950545 -0.429616 3.978e-21)
(0.93038 -0.42827 3.42702e-21)
(1.24254 -0.0186285 -1.25839e-20)
(1.24624 -0.0215683 -8.30278e-20)
(1.24151 -0.0237497 -4.06251e-20)
(1.11788 -0.300966 0)
(1.11465 -0.309844 -2.76703e-21)
(1.12684 -0.306364 2.47002e-20)
(1.05284 -0.00805033 4.69971e-21)
(1.05257 -0.00706761 4.60915e-21)
(1.05379 -0.00744376 -6.38657e-21)
(1.27656 0.0904616 0)
(1.26985 0.0862214 1.96456e-20)
(1.27858 0.0847525 0)
(1.0672 -0.295316 9.53952e-21)
(1.0631 -0.305227 -9.80732e-21)
(1.10637 -0.0817631 0)
(1.10485 -0.0786876 0)