/*--------------------------------*- C++ -*----------------------------------*\
| =========                 |                                                 |
| \\      /  F ield         | OpenFOAM: The Open Source CFD Toolbox           |
|  \\    /   O peration     | Version:  v2012                                 |
|   \\  /    A nd           | Website:  www.openfoam.com                      |
|    \\/     M anipulation  |                                                 |
\*---------------------------------------------------------------------------*/
FoamFile
{
    version     2.0;
    format      ascii;
    class       surfaceVectorField;
    location    "650";
    object      ddtCorrDdt0(Uf);
}
// * * * * * * * * * * * * * * * * * * * * * * * * * * * * * * * * * * * * * //

dimensions      [0 1 -2 0 0 0 0];


internalField   nonuniform List<vector> 
27274
(
(0.00176994 -0.00139115 2.61716e-18)
(0.00172771 -0.00133399 -2.56026e-18)
(0.00181258 -0.00133661 -3.2071e-19)
(-0.0214859 0.0129847 -1.68738e-18)
(-0.0185668 0.0144525 -3.55426e-18)
(-0.0188101 0.0105907 1.07356e-17)
(0.000388538 0.000359551 -8.1735e-19)
(0.000373829 0.000323644 -9.70689e-20)
(0.000382499 0.000340567 -4.87711e-19)
(0.000129 -0.000179287 -2.90398e-20)
(0.000117932 -0.000194226 1.77202e-18)
(0.000129706 -0.00019401 -6.26656e-19)
(-0.00015886 -0.000974152 -1.58941e-18)
(-0.000116722 -0.000947095 -1.3819e-18)
(-0.000115887 -0.00100969 -2.75919e-18)
(0.0094362 0.00893734 -3.79216e-18)
(0.00859151 0.00912193 6.3075e-18)
(0.00920163 0.00991353 -8.22841e-18)
(0.000177778 -6.51013e-05 -8.19699e-20)
(0.000177123 -4.88752e-05 -3.13495e-19)
(0.000173925 -6.01206e-05 -1.43694e-19)
(-0.00126684 -0.000722497 -5.39465e-18)
(-0.00151904 -0.00052097 1.46096e-17)
(-0.00119476 -0.00042315 -2.52845e-18)
(-0.000102885 0.0016217 -4.30242e-18)
(-0.000105693 0.00163801 -1.31144e-17)
(0.0364293 0.00934571 3.78414e-18)
(0.03463 0.00727917 -3.17515e-17)
(0.0336461 0.0100472 -7.96619e-18)
(-0.00012283 -0.00010271 -2.52541e-18)
(-0.000116129 -0.00010965 2.72816e-19)
(-0.00011449 -9.90319e-05 -4.64042e-19)
(-0.0193168 -0.00372413 -2.36912e-17)
(-0.0201597 -0.0032586 6.89586e-17)
(-0.0191319 -0.00272048 3.34031e-17)
(-0.00524761 -0.00219651 1.74737e-17)
(-0.0057674 -0.0021076 3.37688e-18)
(-0.00553316 -0.00271766 6.01149e-18)
(8.84676e-05 0.000152568 8.3222e-20)
(9.42399e-05 0.000148982 8.07419e-20)
(9.13048e-05 0.000118005 -4.31941e-19)
(0.000790008 -0.00019989 1.44486e-18)
(0.000774736 -0.00024292 8.54585e-19)
(0.000758746 -0.000186645 -1.06285e-18)
(0.001108 0.000815512 -3.03734e-18)
(0.00113375 0.00083703 3.24941e-19)
(0.00109537 0.00086574 -3.18517e-18)
(-0.0091295 0.00140198 -8.14373e-18)
(-0.00853913 0.0018564 3.85829e-18)
(-0.00850227 0.0015368 -1.29422e-17)
(0.000252265 -7.03339e-05 2.09224e-19)
(0.000262488 -9.11746e-05 -2.9326e-19)
(0.000260919 -4.83295e-05 1.18165e-18)
(0.000650845 0.000621456 -4.3677e-19)
(0.000669664 0.000614758 5.38288e-19)
(0.000658754 0.000595344 1.96435e-19)
(-0.0982485 0.0728033 -1.75546e-17)
(-0.098632 0.0708701 3.30122e-18)
(-0.0992807 0.0723146 -9.26574e-18)
(0.00123709 0.00109457 -3.53834e-20)
(0.00127291 0.00109877 7.46697e-18)
(0.00122924 0.00113844 -2.85404e-18)
(0.000512828 0.00115054 2.1312e-18)
(0.00049103 0.00116135 -4.22587e-18)
(0.000520098 0.001174 -1.74782e-18)
(0.0512633 -0.00364044 -3.17774e-18)
(0.0478594 -0.0042577 -1.58065e-17)
(0.0502267 -0.00302524 -8.69037e-18)
(-0.000198603 -0.000984781 -3.08195e-19)
(-0.000190326 -0.000928256 -1.04323e-18)
(-0.000161507 -0.00268856 6.55426e-18)
(-0.000165422 -0.0029027 -4.28272e-18)
(3.44989e-05 0.0005674 9.60146e-19)
(3.40634e-05 0.000546046 -5.50611e-19)
(2.85951e-05 0.000516307 -6.10581e-19)
(-1.3656e-05 0.000768145 -3.53108e-18)
(-1.12021e-05 0.000741453 -1.94009e-18)
(5.4011e-05 0.00158381 -2.17691e-18)
(5.18055e-05 0.00160673 -8.75434e-18)
(2.86442e-05 0.00158507 3.63216e-18)
(0.0164555 0.0610108 -3.08257e-18)
(0.0181152 0.0716116 1.80132e-17)
(0.0104176 0.0611212 5.32548e-18)
(0.000384198 0.000505243 -8.93374e-19)
(0.000392273 0.000532392 -3.84859e-18)
(0.000408026 0.000554173 -3.43038e-18)
(-0.000400511 -0.000613396 2.82762e-18)
(-0.000366134 -0.000631083 5.88321e-18)
(-0.000415828 -0.000653803 3.49955e-18)
(5.16397e-05 -0.00145199 -2.47658e-19)
(-2.34192e-05 -0.00143257 6.86302e-19)
(-4.14629e-06 -0.00153189 -8.15289e-20)
(0.000245758 -5.43152e-05 -2.96881e-19)
(0.000244864 -9.04012e-05 1.27871e-19)
(0.000121212 2.8371e-07 5.35328e-19)
(0.000113909 2.52444e-06 8.24807e-20)
(0.000110851 8.84466e-07 5.17739e-20)
(0.00334469 -0.00212838 9.24705e-18)
(0.00356136 -0.00218772 -2.68213e-18)
(0.00337827 -0.00231149 1.22364e-17)
(0.00172023 -0.00144118 -1.08616e-17)
(0.00181603 -0.00145946 -1.09664e-18)
(-7.16103e-05 0.00141153 -8.69026e-18)
(-5.64006e-05 0.00144211 -2.31634e-19)
(0.00825096 0.00110185 -4.50597e-18)
(0.00788913 0.00132204 -8.9807e-18)
(0.00789922 0.000870828 5.686e-18)
(0.000104616 0.00154387 -7.07265e-18)
(0.000109682 0.00162593 7.48941e-19)
(-0.000112493 -0.000118953 1.52105e-18)
(-0.000104961 -0.000122269 -1.63937e-19)
(-0.000107691 -0.000130471 9.56454e-19)
(7.0727e-05 0.000161838 2.09075e-18)
(9.47037e-05 0.000174037 -1.94448e-19)
(0.00280729 0.00322017 -2.37582e-18)
(0.00294519 0.00330888 -1.7478e-18)
(0.00293271 0.00311822 -1.50273e-18)
(0.000401422 0.000388139 -5.55193e-19)
(0.000393711 0.000373571 -4.90233e-19)
(0.0530251 0.00422508 9.12005e-18)
(0.0522992 0.00538402 3.11642e-17)
(0.051162 0.00389521 -1.36251e-17)
(-7.97763e-05 -8.93118e-06 5.34452e-19)
(-7.869e-05 -9.74764e-06 -2.80518e-19)
(-8.67048e-05 -7.75532e-06 8.06614e-20)
(0.00852975 0.000942648 7.82494e-18)
(0.00852215 0.00136203 2.14312e-17)
(0.00116262 -0.00254214 -5.79318e-18)
(0.0010985 -0.00247196 4.50223e-17)
(0.00101533 -0.00258355 -2.6415e-17)
(0.000327497 0.00163598 2.63529e-18)
(0.000322846 0.00165818 -3.43936e-18)
(0.000303513 0.00163989 -4.77547e-18)
(0.00128617 -0.00228972 -1.41177e-17)
(0.00144506 -0.00223789 4.71295e-18)
(0.00132824 -0.00211271 1.04934e-17)
(0.000278345 1.45671e-05 1.96386e-19)
(0.000279157 -9.16842e-06 -1.71116e-19)
(0.000277273 -1.01129e-05 6.53782e-19)
(-4.24926e-05 -0.000170243 5.57184e-19)
(-4.64294e-05 -0.00015375 -1.19642e-19)
(-5.20905e-05 -0.000156314 -1.28542e-18)
(0.000491066 0.000104988 -2.4567e-19)
(0.000502992 0.000109121 2.37501e-19)
(0.000485695 0.000141314 1.14492e-19)
(-2.89063e-06 -6.59034e-05 -1.07743e-19)
(1.27953e-06 -6.59227e-05 5.99123e-20)
(-8.81189e-07 -4.95037e-05 -2.27822e-19)
(0.00270755 0.0316173 1.47913e-17)
(0.00130977 0.0329035 1.74002e-17)
(-0.00331236 0.0349422 2.34564e-17)
(0.000116688 0.000498054 -2.44683e-18)
(0.000123606 0.000484415 -1.15259e-18)
(0.000112842 0.000492247 -1.74959e-18)
(8.76473e-05 1.78108e-05 2.04119e-19)
(9.46743e-05 1.65957e-05 -1.21161e-19)
(7.57828e-05 9.3604e-06 2.28612e-19)
(0.0331022 -0.0106751 -2.33284e-18)
(0.0335519 -0.00907385 -6.35612e-18)
(0.0348904 -0.0105997 -1.11046e-18)
(0.000791274 -0.000162265 1.14817e-18)
(0.000806027 -0.000212911 -7.68633e-19)
(0.000171029 0.00392065 -2.13557e-17)
(0.000130391 0.00402332 -8.3672e-18)
(0.000186079 0.00391788 4.90025e-17)
(0.00658094 -0.00637977 -9.56055e-18)
(0.00605414 -0.00651192 -6.186e-17)
(0.00614359 -0.00598906 3.1194e-18)
(0.000271986 3.56562e-05 3.78985e-19)
(0.000283899 3.78901e-05 -6.633e-19)
(0.00179842 0.00537454 -3.39105e-18)
(0.00135639 0.00508892 1.73365e-17)
(0.00183798 0.00476601 2.0485e-17)
(0.000237608 -0.000163876 -1.09619e-18)
(0.00024521 -0.000148838 1.61408e-18)
(0.000240771 -0.000180047 -3.56755e-19)
(0.00306415 0.00119554 -4.6702e-19)
(0.00294756 0.0010921 -1.50187e-18)
(0.0030755 0.00104657 7.83455e-20)
(-0.0195714 -0.00449853 -8.16368e-18)
(-0.0185828 -0.00392008 -6.34385e-17)
(0.00168338 -0.00127364 -9.7731e-18)
(0.00164143 -0.00131943 1.00272e-18)
(-0.00529444 0.017962 -2.86457e-17)
(-0.00947978 0.0285611 -1.61212e-17)
(-0.00465194 0.0154377 4.57766e-18)
(0.000468938 0.00208067 -8.77528e-18)
(0.000483896 0.00212325 7.29599e-18)
(0.000422742 0.00210915 -2.00509e-17)
(-7.97355e-06 0.000787014 -2.44311e-18)
(0.000534697 0.00113274 -4.19058e-19)
(0.000495738 0.00111582 1.84588e-19)
(0.00242039 -0.0035243 -4.72959e-18)
(0.00225643 -0.003652 -1.11938e-17)
(0.00229296 -0.00340511 -2.15046e-18)
(-4.65796e-06 -1.40965e-05 3.99627e-20)
(-3.47207e-06 -1.71943e-05 -3.00951e-19)
(-3.79231e-06 -1.5567e-05 4.16653e-19)
(0.00700163 -0.00613067 -4.12221e-18)
(0.00696873 -0.00675175 1.42129e-17)
(0.000247075 0.000143883 4.41147e-20)
(0.000238962 0.000147293 2.2165e-20)
(0.000247798 0.000152803 2.23336e-19)
(-0.000995642 -0.000901735 -1.17157e-17)
(-0.00128096 -0.00105909 1.80758e-17)
(0.000177808 -7.01058e-05 6.97177e-19)
(0.000174822 -7.47772e-05 -2.20448e-19)
(-0.0354409 0.050224 1.95983e-17)
(-0.0357287 0.0508093 -4.38844e-18)
(-0.0315806 0.0478143 1.0898e-17)
(0.00012883 -0.00134403 7.16495e-19)
(0.000172234 -0.00130293 -5.31066e-20)
(0.000207515 -0.00139199 6.57579e-19)
(0.00110597 -0.00348191 4.08099e-18)
(0.00122289 -0.00366477 -5.84313e-20)
(0.00133073 -0.00344888 -1.98957e-18)
(0.000443832 0.000103547 2.07062e-19)
(0.000431466 0.000103132 4.66995e-19)
(0.000433178 0.000132164 -3.68389e-19)
(0.000176597 -2.58965e-05 2.84578e-19)
(0.000181141 -3.2688e-05 -5.3053e-19)
(0.00946068 0.00476455 -6.85666e-18)
(0.0109206 0.00565922 9.13703e-18)
(0.00925765 0.00478885 -2.23278e-17)
(0.00118408 0.00110156 1.51466e-18)
(0.00122322 0.00104629 5.14971e-18)
(0.00349468 0.000279853 3.28169e-18)
(0.00363417 0.000339729 5.42995e-18)
(0.00356912 0.000179783 -5.32545e-18)
(4.42689e-05 0.000589054 1.166e-18)
(4.77037e-05 0.000601286 -1.0388e-18)
(-0.00481759 -0.00240698 1.28175e-17)
(-0.00493917 -0.00190641 2.99176e-18)
(-0.132224 0.0446486 6.26618e-18)
(-0.124938 0.0498832 1.34953e-17)
(-0.120579 0.0436577 9.50853e-19)
(-0.0972906 0.0761485 -2.53922e-19)
(-0.0956019 0.0728244 3.33716e-18)
(0.0190232 0.0599776 -9.9765e-18)
(0.0139772 0.0518608 -4.97563e-18)
(0.0225724 0.0245712 -1.84458e-18)
(0.0285355 0.0222378 -8.95368e-18)
(0.0260161 0.0231031 5.29938e-17)
(-0.0205474 0.0376939 1.54256e-17)
(-0.0171149 0.0383719 3.79685e-18)
(-0.0169631 0.0349189 -1.10123e-17)
(-7.86805e-05 -7.90769e-06 -5.0868e-19)
(-7.52212e-05 -9.80983e-06 -5.6977e-19)
(9.1455e-05 0.000555573 -1.73745e-18)
(8.23536e-05 0.000556815 -5.98787e-19)
(8.06319e-05 0.000541522 1.29479e-18)
(-9.1589e-05 -4.85744e-05 1.06231e-18)
(-9.39118e-05 -5.48013e-05 -1.47581e-19)
(-9.81497e-05 -5.06219e-05 1.71997e-18)
(0.00170274 0.0236501 1.03491e-17)
(0.00310654 0.0216483 -1.41916e-17)
(0.0520744 -0.00435157 -4.41253e-18)
(0.0543837 -0.00296348 2.91623e-17)
(0.000385344 -0.000481016 -1.28323e-18)
(0.000371208 -0.000501994 -1.40888e-18)
(0.000386834 -0.000510264 1.03456e-19)
(0.00131651 -0.00124396 4.37632e-19)
(0.00129958 -0.00118683 2.45944e-18)
(0.00139672 -0.00121792 -8.05319e-18)
(0.00358439 0.0303575 1.64064e-17)
(0.00741121 0.0289761 -1.19662e-18)
(-0.0020158 0.000745723 -9.69752e-19)
(-0.00179105 0.000863901 -7.47289e-18)
(-0.00204121 0.00100109 -1.67971e-18)
(0.00735 0.0205127 -2.88773e-18)
(0.00659343 0.0165709 4.93246e-18)
(0.00446823 0.00522303 1.34954e-17)
(-0.00321274 0.000926521 -1.74929e-17)
(-0.00352357 0.000882378 -1.64024e-17)
(-0.00332097 0.00120292 -3.00579e-17)
(0.00318333 -0.000972187 1.40184e-19)
(0.00324141 -0.0011437 7.54554e-18)
(0.00305919 -0.00106972 -3.73173e-18)
(-0.0103982 0.0434239 1.04056e-17)
(-0.011856 0.0456093 -8.10807e-18)
(-0.0125605 0.0490228 3.14125e-17)
(-0.000499263 -0.00118943 -1.97132e-18)
(-0.00043637 -0.00114935 3.6609e-18)
(-0.000441092 -0.00124301 -4.81205e-18)
(-0.00373088 0.010438 -8.68224e-18)
(-0.00347219 0.0113638 -2.69315e-18)
(-0.00458492 0.0110593 -6.01087e-18)
(-0.0235254 -0.00136276 -2.66248e-17)
(-0.0241097 -0.00116819 -2.63195e-17)
(-0.0254162 -0.000690525 4.63229e-17)
(0.00630199 0.00271142 -3.15024e-18)
(0.00612543 0.0024881 2.52419e-18)
(0.00643954 0.00239855 -1.55796e-17)
(0.00113808 -0.000638014 1.76853e-18)
(0.00110247 -0.000649138 -8.63315e-18)
(0.00113006 -0.000578762 1.12765e-17)
(-0.00040067 0.00381213 -1.2289e-17)
(-0.000325991 0.00381473 3.2247e-17)
(0.000381362 0.000417372 2.39082e-18)
(0.000390243 0.000427418 1.56733e-18)
(0.00039517 0.000452491 -1.51628e-18)
(0.000222574 0.00151508 8.35288e-19)
(0.000217954 0.00148259 -4.4459e-19)
(0.0002456 0.00149657 -7.38363e-18)
(2.04973e-05 0.000550146 -2.19911e-18)
(2.35026e-05 0.000567963 -8.27217e-19)
(2.26577e-05 0.000601509 1.34371e-18)
(0.000206467 0.0015315 -5.09772e-18)
(0.000232207 0.00153883 3.28876e-18)
(-0.0313781 0.0358863 -7.27265e-18)
(-0.0276592 0.0321708 5.22236e-19)
(-0.0267311 0.0344498 4.29068e-19)
(0.000119875 1.28674e-05 9.23007e-20)
(0.00012038 9.69461e-06 3.70806e-19)
(0.000119035 1.33861e-05 2.17815e-19)
(0.000237221 0.00408774 -3.01628e-17)
(0.000197642 0.00428441 1.39085e-17)
(0.000268681 0.00461326 5.92625e-17)
(-0.0388693 0.0522778 -2.91231e-18)
(-0.0347234 0.0497297 -1.24081e-17)
(0.000210543 0.00377879 1.70427e-17)
(0.000167608 0.00380993 1.32622e-16)
(0.000154984 0.00360569 2.47857e-18)
(0.00314202 -0.00083444 -1.03069e-17)
(0.00331939 -0.000894638 -3.38499e-18)
(0.0368055 0.0113549 -1.7022e-17)
(0.0386858 0.0100415 -2.48134e-17)
(0.0116228 -0.0188344 -2.80321e-18)
(0.0172912 -0.0182694 1.62728e-17)
(0.0145283 -0.0197378 6.19547e-17)
(9.00746e-05 -0.00139647 1.83635e-18)
(7.05871e-05 -0.00130792 -5.40799e-19)
(0.00254053 -0.00334063 -7.48904e-18)
(0.00264571 -0.00363039 6.10714e-18)
(0.000380427 -0.000452096 1.29109e-18)
(0.000402068 -0.000458357 -1.37866e-18)
(0.00618618 0.00298766 -6.43203e-18)
(0.00650936 0.00291641 1.2137e-17)
(0.000476262 0.000104335 2.80401e-19)
(0.000490358 6.49505e-05 -7.0056e-19)
(-3.8247e-06 -5.26051e-05 -4.53471e-19)
(-3.65518e-06 -5.46359e-05 -6.82001e-19)
(-1.71491e-06 -5.47301e-05 6.15251e-19)
(0.0149875 -0.00660518 -3.57891e-17)
(0.0135422 0.00436232 -4.87553e-17)
(0.0162356 -0.0112891 2.97375e-17)
(-9.07628e-05 -5.41965e-05 -1.79404e-18)
(-8.71459e-05 -4.82859e-05 -1.06398e-18)
(-3.47082e-05 -0.000182065 8.99709e-19)
(-3.76898e-05 -0.000184025 1.65628e-19)
(0.0333112 0.00744309 -5.53429e-18)
(0.0335933 0.00346751 -6.8119e-18)
(0.0382395 0.00387971 -4.84705e-18)
(0.00104761 0.0018434 6.72151e-19)
(0.00131027 0.00179846 7.49431e-18)
(0.00112987 0.00161693 7.1556e-18)
(0.0013368 -0.00130384 2.65784e-18)
(0.00125648 -0.00126729 1.8989e-18)
(0.00191227 0.00214724 -4.57877e-18)
(0.00183829 0.00210001 5.87751e-18)
(0.00192426 0.00205542 -5.49273e-18)
(-5.07397e-06 -5.39012e-05 4.91717e-19)
(-3.84137e-06 -4.37839e-05 -6.27672e-19)
(0.000646178 -9.30022e-05 9.752e-19)
(0.000638586 -0.000122959 9.08474e-20)
(0.000656992 -0.000142686 7.8868e-19)
(-0.000125877 -9.77991e-05 -2.57458e-18)
(-0.000128247 -0.000104786 -9.62445e-19)
(0.000228296 0.000118556 -9.07489e-19)
(0.000227629 0.000134747 3.78832e-19)
(0.00023714 0.000152135 5.8955e-19)
(0.00564807 -0.00225647 1.70948e-18)
(0.00550047 -0.00198269 -1.65493e-17)
(0.00533718 -0.00223489 -9.97263e-18)
(0.00998442 0.0284258 3.13143e-19)
(0.00733145 0.0232901 1.77864e-18)
(0.0178071 0.0622456 3.11772e-18)
(0.0153762 0.0569819 -1.42013e-17)
(0.0158582 0.063699 -8.04838e-18)
(0.000825336 0.000741149 4.59129e-20)
(0.000835579 0.000758785 -1.23775e-18)
(0.000845309 0.000720259 -3.646e-19)
(0.000382257 0.000373039 2.90769e-18)
(0.00036555 0.000395907 2.21412e-18)
(-0.000116514 0.00365785 4.23571e-17)
(-0.000144018 0.00374311 -3.66225e-17)
(-4.88163e-05 0.0037204 6.87375e-17)
(0.000465797 0.00115591 -9.43412e-18)
(0.000434822 0.00113873 -3.35009e-18)
(0.000454547 0.00111512 -1.97032e-18)
(-7.71153e-07 0.00180822 5.21254e-18)
(2.43818e-05 0.00181491 -1.4132e-17)
(-8.81041e-06 0.00182171 -1.09925e-17)
(-0.154274 0.0613041 2.01607e-18)
(-0.142115 0.0622832 -3.00903e-18)
(-0.149751 0.053173 -5.18211e-19)
(0.000830165 -0.00102562 1.94039e-19)
(0.000855162 -0.00103428 -7.60103e-18)
(0.000868064 -0.00101107 -2.3443e-18)
(-0.152209 0.0660389 -2.46257e-18)
(-0.134342 0.060296 -2.94652e-19)
(9.90804e-05 -0.000799315 6.15144e-18)
(0.000124297 -0.000833008 -4.75483e-18)
(7.57825e-05 -0.000823223 -5.91215e-19)
(0.000469068 0.00118577 -1.47387e-18)
(0.00321836 -0.00213087 1.88065e-17)
(0.00333204 -0.00204124 -2.11e-18)
(0.000201257 0.00388608 -1.85076e-17)
(0.000171265 0.00389462 4.90798e-17)
(0.0183704 0.00120279 3.94804e-18)
(0.0178497 0.00224859 9.78117e-18)
(0.019111 0.00186704 2.14391e-18)
(-2.54713e-06 -2.48798e-05 4.58231e-19)
(-2.46654e-06 -2.75024e-05 4.61317e-19)
(-1.16898e-06 -2.3951e-05 4.9147e-19)
(0.0335129 0.00852892 6.79873e-18)
(0.0206902 0.0109443 -8.31896e-18)
(0.000290658 0.00387266 -3.02142e-17)
(0.00028646 0.00369931 -4.51833e-17)
(-3.02645e-06 -2.60744e-05 -4.48544e-20)
(-2.26219e-06 -2.29822e-05 -6.43757e-19)
(0.000247322 0.00538117 -1.57254e-17)
(0.000811875 0.00533409 -3.55282e-18)
(0.000553927 0.00588306 -1.53164e-17)
(0.00172273 0.0003228 1.95473e-19)
(0.00171449 0.000380558 5.59891e-19)
(0.00177056 0.000329084 1.89456e-18)
(0.00135039 -0.000653952 -6.84774e-19)
(0.00131551 -0.000681082 2.6586e-18)
(0.00131236 -0.000635226 7.63745e-20)
(0.00100551 0.00174904 1.05883e-18)
(0.000994648 0.0017927 -1.02116e-18)
(0.00104807 0.00176796 7.2281e-18)
(0.00135815 -0.00137355 -3.11485e-18)
(0.00144508 -0.00135012 -5.95509e-18)
(0.0468966 0.0161518 7.0887e-19)
(0.0473206 0.0138083 -1.95301e-18)
(0.0451579 0.0150912 8.60067e-18)
(-0.000297777 0.00445223 2.52358e-17)
(-0.000106529 0.00457606 -9.57423e-18)
(-9.47916e-05 0.00433321 1.10506e-17)
(-0.00850947 0.00640565 1.48279e-17)
(-0.00832456 0.00625319 7.00601e-17)
(-0.00910723 0.00579035 1.83215e-17)
(0.00190073 -0.00203631 -4.5984e-18)
(0.0017764 -0.00210873 1.44518e-17)
(0.00179606 -0.00193373 -1.262e-17)
(-0.0132038 -0.00823689 1.68093e-18)
(-0.0130003 -0.00933261 -2.46682e-18)
(-0.0120692 -0.00831914 -9.04697e-18)
(0.000262305 7.52661e-05 1.62056e-19)
(0.000265505 5.48343e-05 4.56744e-19)
(0.000271051 7.32509e-05 1.01199e-19)
(-0.00688209 0.177156 -9.00434e-19)
(-0.00551859 0.178955 -8.92729e-18)
(-0.00465331 0.171334 -1.43011e-17)
(0.0531284 -0.00527243 9.98245e-18)
(0.0544393 -0.0054491 1.2349e-18)
(0.0565716 -0.00401339 3.28655e-18)
(-9.22519e-05 -0.000107748 -1.37632e-18)
(-8.94005e-05 -0.000102424 1.70941e-18)
(-9.8014e-05 -9.44545e-05 4.93707e-20)
(-9.83878e-05 -0.000107576 -2.28093e-19)
(-0.000102451 -0.000115159 1.30953e-18)
(-0.000106407 -0.000101328 2.51147e-18)
(0.00109511 0.000793107 6.63584e-19)
(0.00112851 0.000768217 -7.00888e-19)
(-0.0621696 0.012091 1.90061e-18)
(-0.0654993 0.00935473 -2.77732e-18)
(-0.0611342 0.00871556 1.0524e-17)
(0.0139109 -0.00958864 -5.79363e-19)
(0.0139096 -0.00848745 2.21732e-18)
(0.0129566 -0.00904059 3.93799e-18)
(8.96735e-05 0.000510371 -2.60411e-19)
(9.37169e-05 0.00050394 2.73763e-19)
(9.81753e-05 0.000511638 4.93857e-19)
(0.0155074 -0.00497581 -3.02153e-17)
(0.01927 -0.00408267 5.15624e-18)
(-0.0131895 -0.00233283 3.0852e-18)
(-0.0165108 -0.0031922 4.39746e-17)
(-0.0152203 -0.00270403 3.69514e-17)
(-0.000421998 0.00312501 7.43388e-18)
(-0.00046863 0.00309323 3.15292e-17)
(-0.000423201 0.0030501 -6.12739e-18)
(-0.0133588 -0.00729045 1.86603e-17)
(-0.0141739 -0.00824407 2.29098e-17)
(0.00150219 -0.000811123 -1.33297e-18)
(0.00144768 -0.000787202 -4.36706e-18)
(0.00152183 -0.000747948 2.86465e-18)
(0.000149467 -7.95441e-05 1.59579e-19)
(0.00014803 -7.41943e-05 -1.01581e-19)
(0.000145349 -7.45473e-05 -5.32036e-20)
(0.0373226 0.0304322 8.10897e-19)
(0.0354218 0.0303471 2.27618e-17)
(0.035996 0.0328038 -9.07799e-18)
(-0.0728803 0.00936933 -6.59935e-18)
(-0.0769155 0.0123455 -1.54894e-17)
(-0.071231 0.013947 -3.54692e-18)
(0.0418048 0.010516 -1.49469e-18)
(0.0382981 0.0121228 1.88209e-17)
(0.0368226 0.0112466 8.94298e-18)
(-0.0135171 0.0258305 -1.40808e-17)
(-0.0117804 0.0262406 9.81843e-19)
(-0.0125209 0.0244365 -8.9879e-18)
(2.39247e-05 0.00162219 -9.38141e-18)
(5.71206e-05 0.0016224 -4.94195e-18)
(4.09785e-05 0.00165855 1.90223e-17)
(-0.00971148 0.00133993 -6.81716e-17)
(-0.00885058 0.000825045 -5.69484e-17)
(0.0315998 -0.0108212 -8.12246e-18)
(0.000420887 0.000416403 -4.68502e-19)
(0.000425547 0.000429354 -3.90955e-19)
(0.000437114 0.000444655 -4.90239e-19)
(0.00136817 -0.0014342 2.32061e-18)
(0.00129546 -0.00138878 1.99615e-18)
(-0.0215973 0.0524045 2.82927e-17)
(-0.0203734 0.0495843 -2.93351e-17)
(-0.0230786 0.0525536 1.65936e-17)
(0.00194106 0.00242626 -4.99304e-18)
(0.00187231 0.00234946 -8.76301e-19)
(0.00181772 0.00244954 -6.92487e-18)
(0.000561017 0.00114044 1.80413e-18)
(0.000577122 0.00116431 1.24672e-18)
(0.000575397 0.0011428 -2.46904e-18)
(0.0148959 -0.0189278 -1.51899e-17)
(0.0327744 -0.0172534 1.84173e-17)
(0.00693447 -0.0191276 -7.85069e-19)
(0.00155589 -0.000817192 2.26376e-18)
(0.00148997 -0.000858536 1.1826e-17)
(0.00234492 0.000644296 9.69969e-18)
(0.00214768 0.000629638 -7.34913e-18)
(0.00226065 0.000852046 1.05228e-17)
(-9.64932e-05 -0.000120703 -9.08177e-19)
(0.000725437 -0.000935516 -4.26893e-18)
(0.00069849 -0.000935947 1.70175e-18)
(0.000734345 -0.000944374 -2.23704e-18)
(0.000579963 0.00153877 -3.0256e-18)
(0.000573367 0.00156482 -9.45397e-18)
(0.000614117 0.00154204 -1.22792e-17)
(-0.0117711 0.000972739 -1.14851e-17)
(-0.00980162 0.00182535 -4.25898e-18)
(-0.00843344 0.00201281 -2.42075e-17)
(0.0451077 0.00905592 -3.20157e-17)
(0.0460708 0.00948807 5.46424e-18)
(0.000109278 -0.00141177 -6.10583e-18)
(0.00129377 -0.0027723 -2.45023e-17)
(-0.00211267 -0.00130092 -5.33389e-17)
(0.00183228 0.000664719 4.37555e-19)
(0.00176867 0.000703742 1.12413e-18)
(0.00177388 0.000609007 -3.37407e-19)
(0.000211986 0.00378562 -3.47596e-17)
(0.000219183 0.00394825 -6.35645e-17)
(-0.0184003 0.00090636 -1.04094e-17)
(-0.0198001 0.00116685 6.27216e-17)
(-0.0208961 0.000616027 -3.77341e-17)
(-0.0154099 -0.00843177 1.54723e-17)
(-0.0163116 -0.00878842 -1.30996e-18)
(-0.0175628 -0.00812659 -1.48096e-17)
(0.00255168 0.000698451 -4.98706e-18)
(0.0024542 0.000477631 1.92107e-18)
(0.000642365 -4.4076e-05 -4.79312e-19)
(0.000650289 -7.959e-05 -5.662e-20)
(8.49282e-05 -0.000771123 1.1125e-18)
(0.000126522 -0.000785191 4.30754e-18)
(-0.0961944 0.07945 2.12935e-18)
(-0.0936437 0.0837924 -2.636e-18)
(-0.0930023 0.0795961 1.00523e-17)
(0.000792297 0.000765551 -9.0559e-19)
(0.000806736 0.000710058 6.72899e-20)
(0.000252683 7.92607e-05 -1.09472e-18)
(0.000258045 9.55764e-05 -2.90352e-19)
(0.00975621 0.0046587 -7.07114e-18)
(0.00957607 0.00449452 -1.79793e-17)
(-0.0167978 0.0380164 -9.69808e-18)
(-0.00228199 0.0334314 3.54403e-17)
(0.0110045 0.0271096 6.03676e-18)
(-0.0982542 0.0785936 -4.14983e-18)
(1.90924e-05 0.000495967 -5.01466e-19)
(2.16869e-05 0.000527788 -9.18651e-19)
(0.00079781 -0.0010147 2.25361e-18)
(0.00083174 -0.00100126 2.17303e-18)
(0.0142573 1.90337e-05 3.90115e-17)
(0.013215 -0.000326574 2.56502e-18)
(0.014121 -0.000886918 3.27821e-18)
(0.00024945 0.000130905 3.42529e-18)
(0.000250105 0.00011853 2.26758e-19)
(0.000256899 0.000149501 1.33971e-18)
(0.00334852 0.000196176 -1.33699e-18)
(0.00337589 0.000370809 4.17727e-18)
(0.000617877 -0.000163271 9.46919e-19)
(0.000614463 -0.000100367 -1.33713e-18)
(-0.00894265 0.00678233 3.76938e-18)
(-0.00910605 0.00612118 -4.99136e-17)
(0.000569867 0.000989422 -3.58943e-19)
(0.000547636 0.000993861 -8.57419e-19)
(0.000569464 0.00101631 2.07104e-18)
(-0.0180378 0.00492412 6.30745e-18)
(-0.0192248 0.00440765 -1.56135e-17)
(-0.0193812 0.00447001 -1.15755e-17)
(-0.0980375 0.0121444 2.00544e-18)
(-0.0952787 0.0180751 1.55898e-18)
(-0.10285 0.0169128 4.83697e-18)
(3.93378e-05 0.00329372 5.57653e-17)
(-0.000118744 0.00333621 -1.46846e-17)
(1.96987e-05 0.0034604 6.06939e-17)
(0.000649625 2.31961e-07 -5.50353e-19)
(0.000631339 -6.92138e-06 -4.64116e-19)
(-3.84547e-06 -6.45412e-05 1.29338e-18)
(-4.0321e-06 -6.82755e-05 1.11001e-18)
(0.000982894 -0.00331183 4.02358e-18)
(0.000881938 -0.00348503 6.65215e-19)
(0.00164702 -9.26899e-05 1.17825e-18)
(0.00169747 -9.19424e-05 -2.76797e-19)
(0.00167546 -0.000154703 -3.68375e-18)
(-0.0167347 0.00541665 4.92222e-17)
(-0.0160809 0.00518878 -4.40872e-18)
(0.00106222 0.00021815 -4.1637e-19)
(0.00107482 0.000235277 -8.28263e-19)
(0.00108285 0.000185601 -1.19651e-18)
(4.8713e-05 0.000573873 2.88401e-19)
(4.61953e-05 0.000554905 -2.4241e-18)
(4.06237e-05 0.000532677 -6.09461e-20)
(8.58068e-05 0.000517582 2.63416e-18)
(8.24988e-05 0.000503985 1.10035e-18)
(0.0071067 0.00280339 1.24672e-18)
(0.0072821 0.00305344 9.34861e-18)
(0.00745713 0.00271917 5.41107e-18)
(-0.00477181 0.0589908 -2.69391e-17)
(-0.00131985 0.0572624 -6.63504e-18)
(-0.00844116 0.0590106 -2.28272e-17)
(0.001366 -0.0010163 3.27222e-17)
(0.00118475 -0.000611636 -3.20951e-18)
(0.0011705 -0.000678465 1.05438e-17)
(-0.0117756 -0.0105327 -2.19855e-17)
(-0.0104432 -0.0106772 2.54706e-17)
(-0.0107817 -0.00957537 7.93125e-18)
(-0.000484947 -0.000717301 -4.51561e-18)
(-0.000454226 -0.000678333 -3.23376e-18)
(0.000261809 0.000128451 -5.80301e-19)
(0.0002607 0.000111959 -6.74638e-20)
(0.000271081 0.000114278 2.45397e-19)
(0.000585045 0.00107648 1.3023e-18)
(0.00054613 0.00105698 -2.02678e-18)
(0.000577389 0.00104154 2.76716e-18)
(-0.0937493 0.0103975 -7.82268e-19)
(-0.101005 0.00722065 -3.5688e-17)
(0.0262176 -0.0180566 -3.90223e-18)
(0.0318345 -0.0197606 -3.7486e-17)
(0.0361703 -0.0158561 -1.47349e-17)
(-0.000630288 0.00409362 -5.87277e-17)
(-0.000215709 0.00386727 -1.37958e-16)
(4.93949e-05 0.00423269 1.08297e-16)
(0.0189263 -1.41516e-05 -4.30679e-19)
(0.0176819 0.000472537 1.39296e-17)
(0.00167212 0.000309976 4.94075e-19)
(0.00172062 0.000250573 -7.79974e-19)
(0.000745513 -0.000932408 -2.95106e-18)
(0.000711597 -0.00092459 -1.47178e-18)
(-0.000199389 0.0041426 5.75415e-18)
(-0.000228198 0.00388597 7.08666e-18)
(-0.000693246 0.00418361 -4.1609e-18)
(0.00161309 -0.000835618 3.44014e-18)
(0.001635 -0.000776867 1.16447e-18)
(-0.0139999 -0.00817025 2.77467e-17)
(-0.0119329 -0.00908894 3.38081e-18)
(0.000566129 0.000886019 -1.49532e-18)
(0.000572274 0.000911993 -1.96025e-18)
(0.000585182 0.000897144 3.37431e-18)
(-0.0168685 0.00399768 3.22671e-17)
(-0.0167788 0.00352423 3.71732e-17)
(-0.0158886 0.00426508 -4.97793e-17)
(-0.0420834 0.0473045 8.35958e-18)
(-0.0416968 0.0509449 -1.85671e-17)
(-0.0242193 0.0383439 9.59739e-18)
(4.58887e-05 0.00483867 6.43792e-18)
(-0.000261827 0.00537856 -2.08545e-18)
(0.000488246 0.000593538 2.11015e-19)
(0.000497028 0.0006159 -1.39996e-20)
(0.000472783 0.000582067 -1.66162e-18)
(9.8569e-05 -5.67047e-07 7.44406e-20)
(9.62916e-05 4.02192e-07 -1.12624e-19)
(0.000104919 1.33927e-06 -2.37874e-20)
(0.00172551 -0.00122544 6.09224e-18)
(0.00165806 -0.00121761 -1.24467e-17)
(0.00222161 -0.00386935 -2.04877e-17)
(0.00215018 -0.00406541 1.23781e-17)
(0.00242872 -0.00401583 -8.09501e-18)
(-0.0137538 0.000389936 -7.09509e-17)
(-0.0149181 -9.10637e-05 3.52276e-18)
(0.000967557 0.00208135 -9.08977e-18)
(0.000787778 0.00185003 -1.03831e-17)
(0.00013572 5.16298e-05 4.6589e-19)
(0.000136996 4.59544e-05 3.58376e-19)
(0.000140999 5.98272e-05 -1.29154e-19)
(0.000243567 8.12816e-05 1.47045e-19)
(0.00023781 9.66996e-05 3.21847e-19)
(0.000234184 8.15239e-05 1.79451e-19)
(-1.72529e-06 -6.11522e-05 2.07456e-18)
(-1.86103e-06 -5.86008e-05 -1.74066e-18)
(-3.57357e-06 -6.52069e-05 9.93837e-19)
(-0.0127862 -0.0103894 1.09788e-18)
(-0.0138851 -0.0103005 1.60977e-17)
(0.00509882 0.00150844 5.91915e-18)
(0.00519667 0.00166701 4.84636e-18)
(0.00495219 0.00164541 7.49183e-18)
(-0.000100277 0.00320668 -3.62257e-17)
(-7.16872e-05 0.00328454 3.05969e-17)
(-0.000127713 0.00327513 -3.67878e-17)
(0.000822668 0.00103859 -1.64558e-18)
(0.000852042 0.00102238 3.0656e-18)
(0.000836615 0.000999285 -4.38953e-18)
(-0.0901505 0.082408 -1.0237e-17)
(-0.103889 0.0811264 -5.00332e-18)
(-0.0549806 0.0696728 -5.50925e-18)
(-0.0152456 0.0256839 5.78978e-19)
(-0.0143302 0.0276451 -7.16539e-18)
(-0.00403927 0.00956154 1.67176e-17)
(-0.00309947 0.00995262 -8.25934e-18)
(0.000732864 -0.000694439 1.34132e-18)
(0.000709596 -0.00070255 3.80347e-18)
(0.00072898 -0.000727782 3.33761e-18)
(0.027304 -0.0231944 8.93319e-18)
(-0.0022742 -0.0228509 -3.42777e-17)
(0.000459567 0.000101668 3.45195e-19)
(0.000457868 6.73478e-05 5.21921e-20)
(0.000188551 0.000136944 1.24221e-18)
(0.000188598 0.000116698 -1.22366e-18)
(0.000191343 0.000106182 1.44638e-18)
(-0.00104676 0.00561629 -4.8969e-17)
(0.00101268 0.00822236 -2.18662e-17)
(-0.00352703 0.0102012 -4.17037e-17)
(0.000100135 5.78386e-06 7.3599e-20)
(9.66481e-05 7.79077e-06 1.04144e-19)
(0.000107843 4.97972e-06 2.87556e-19)
(0.000180502 -8.06831e-05 1.2902e-19)
(0.000180688 -6.81291e-05 4.17321e-19)
(-0.00553704 0.00853796 -7.05534e-18)
(-0.00473907 0.00894343 -8.4465e-19)
(-0.00554575 0.00977294 -2.07531e-17)
(0.00027287 2.79972e-05 -3.51302e-19)
(0.000283289 4.06401e-05 2.00232e-19)
(0.000281866 5.43526e-05 6.37936e-19)
(0.00450046 0.0497736 -2.37555e-17)
(0.0040458 0.0453173 -2.18774e-18)
(0.00323749 0.0451006 8.52157e-19)
(0.0016722 -0.000860174 2.47206e-18)
(0.00158742 -0.000893172 1.36414e-18)
(0.000183632 0.00170617 2.43353e-18)
(0.000203732 0.00172069 -1.21039e-17)
(0.000174021 0.00172568 -3.55958e-18)
(0.000102445 5.77374e-06 2.30451e-19)
(9.62538e-05 6.91771e-06 -9.77046e-20)
(0.00196505 -0.00196431 6.1144e-18)
(0.00199921 -0.00209862 1.64787e-18)
(-0.0237693 -0.00297532 3.13171e-18)
(-0.0233973 -0.0023629 -3.12653e-17)
(-0.0240892 -0.00237013 -2.14468e-18)
(0.000122154 -0.00149346 -9.67907e-19)
(0.000122829 -0.000170712 1.59872e-18)
(0.000134566 -0.000160767 6.17928e-19)
(-5.99517e-06 0.000133696 -6.06243e-18)
(-2.52949e-06 0.000127962 -3.2549e-18)
(1.8429e-06 0.000135807 -7.15302e-19)
(0.00103822 0.0202341 -7.34665e-18)
(0.000190572 0.0191762 -2.53059e-17)
(0.00173682 0.0190947 -5.88561e-18)
(0.00585475 0.0223507 -1.80251e-18)
(0.00920969 0.0217643 -1.54646e-17)
(0.00740358 0.0188432 -2.10727e-17)
(-1.94344e-06 -6.05275e-05 1.49636e-18)
(-2.27514e-06 -6.19039e-05 2.67043e-18)
(-1.49713e-06 -3.65036e-06 -1.0769e-19)
(-7.10186e-07 -2.65389e-06 -2.68915e-19)
(-1.3847e-06 -2.6914e-06 3.6629e-19)
(-0.0278345 0.0418045 1.17455e-17)
(-0.0378191 0.0437623 -7.4609e-18)
(0.00328079 -0.00127126 8.01105e-18)
(0.00319511 -0.00135931 2.91382e-18)