/*--------------------------------*- C++ -*----------------------------------*\
| =========                 |                                                 |
| \\      /  F ield         | OpenFOAM: The Open Source CFD Toolbox           |
|  \\    /   O peration     | Version:  v2012                                 |
|   \\  /    A nd           | Website:  www.openfoam.com                      |
|    \\/     M anipulation  |                                                 |
\*---------------------------------------------------------------------------*/
FoamFile
{
    version     2.0;
    format      ascii;
    class       volScalarField;
    location    "650";
    object      omega;
}
// * * * * * * * * * * * * * * * * * * * * * * * * * * * * * * * * * * * * * //

dimensions      [0 0 -1 0 0 0 0];


internalField   nonuniform List<scalar> 
18355
(
0.0340894
5.64377
0.021887
0.0216607
0.022362
0.0822174
0.0219585
0.0563496
0.0233128
5.92174
0.0215282
5.94489
0.0895732
0.0219783
0.0220782
0.023579
7.02934
0.0217318
0.0219975
5.22839
0.025522
0.0223428
4.80761
0.0223673
0.0246539
0.0221458
0.0220715
0.0230943
2.89074
0.0219488
0.021984
0.0230542
0.0217332
0.0217967
0.0530168
0.0350909
0.0225434
0.167291
0.0229787
0.0215453
0.0219779
0.0847095
0.0218869
8.85785
0.0217751
0.175897
0.0500366
0.0237891
0.0447845
0.0217522
0.0215598
0.0218217
0.0222773
5.25792
0.0220841
0.0220737
0.125185
0.0221037
3.64989
0.130033
0.0217579
0.0635124
0.0217154
0.0432277
5.41432
0.0330561
8.99497
0.0322145
0.0220778
0.0222864
0.0602755
0.0222568
0.139226
0.0217968
0.0564427
0.021955
5.75434
0.0230228
0.0273691
0.0218032
0.0219702
0.834453
0.0252892
0.0457532
0.0221377
0.088078
6.82838
5.21708
2.77526
5.20172
0.351246
0.0218375
0.0221079
0.0214841
22.4598
4.7568
0.0217765
0.0255105
5.15086
6.25162
8.04787
6.56652
0.0423735
5.58568
0.0225602
0.102188
9.08772
0.137716
0.0315042
0.32199
0.0219224
0.0227655
0.0221476
0.0228926
5.17822
0.0220032
4.70091
5.73445
4.50276
0.0424983
5.54908
1.63111
0.0229606
0.0598644
0.0217766
0.148914
0.0218183
0.0222621
5.55617
0.0214908
0.0215664
6.17377
0.0475359
0.0252829
0.0421109
0.0222581
0.0219154
0.021526
0.0219633
0.077753
4.82894
2.4118
0.0223201
0.0219229
0.419807
0.0222383
0.0256353
11.4127
0.0234502
11.6743
0.0222094
0.0222604
0.0498691
3.69391
0.0833069
0.02227
6.13266
3.64337
0.0222676
0.0674916
0.0269479
0.0245095
0.0299419
0.0256448
0.224644
2.11691
10.6159
0.0423304
0.184075
0.0217663
2.24434
4.73866
0.0215313
0.0215364
0.02357
7.85422
0.0623778
0.0221
3.53285
24.2826
0.0766094
0.182591
0.0274564
0.0219138
0.246141
7.3452
5.09692
0.210371
0.0233667
8.15979
0.122458
0.0218856
0.0254643
5.54708
0.0483822
0.0223158
4.22106
0.0271195
0.0385999
0.0215393
0.0227711
0.0240459
13.3956
4.99818
21.3717
0.0285478
3.45913
5.02455
4.89545
0.0381418
0.0219162
0.0221549
5.18265
0.0222535
0.0217684
0.759388
3.21361
5.21654
0.0221551
0.0233859
0.56697
0.021955
0.0442725
0.0218959
9.19076
0.0221529
4.86056
7.63027
0.128071
0.0219149
0.0222742
0.0268404
0.0262017
5.13381
0.0227289
0.0221386
0.0221089
0.200764
1.85909
28.5161
0.0308095
0.183332
0.0220346
0.0217791
0.0222097
10.0152
5.93267
3.29523
0.0825762
0.0268413
0.0227793
6.97278
0.0276746
5.12949
0.0220792
4.71881
4.01955
0.0675326
0.0219312
0.0219123
0.0320906
0.0657391
16.3809
0.0491701
0.0218295
0.021769
0.0222636
0.201104
0.0823936
0.103523
0.0227128
8.4439
0.227299
0.0980022
0.0222084
4.18366
0.0218074
0.021993
10.3032
0.0218105
0.0219535
0.0984421
0.0219111
4.26062
0.0274321
0.0242632
0.0218293
0.0423377
5.27072
0.0230941
0.0216676
0.021985
0.128616
4.97679
0.0222674
0.0222792
3.63334
0.0448679
0.0846523
0.248251
0.0219973
0.0613707
0.0224928
0.0222689
0.225351
0.234782
0.322783
0.137102
0.0215005
0.0864222
0.0224526
0.0219967
3.46037
0.0219106
0.205505
0.082577
0.0221003
0.0215895
0.190045
20.1597
5.37215
0.0221316
0.0291154
10.2216
0.0216741
2.03602
0.026802
0.033027
0.999525
0.0215032
3.18403
0.0219642
0.0448619
0.0221228
0.0831515
4.99469
0.0222709
19.1328
0.0351916
0.0220413
0.0485747
0.0650118
5.84186
5.34824
5.41459
0.0220655
0.0217098
4.72136
0.0619402
0.0221162
0.0225062
0.374064
0.245373
4.23214
4.79552
0.022094
0.0232989
3.43382
0.0219173
0.0226254
0.257901
0.0386835
0.023894
18.0598
0.0222758
0.0473852
0.678786
30.9086
0.0216627
0.021994
0.0219711
0.0217835
0.0665603
0.0217828
0.0400637
0.0219745
0.0242692
0.0220972
0.0231819
0.0217948
0.0219889
0.0217852
0.0217806
0.0232502
0.126149
2.08245
0.0218956
5.9316
0.0348668
2.04277
0.0321739
0.0708217
0.0222525
6.01739
0.022464
0.022008
0.0221318
0.0216341
5.24107
0.0240478
0.0216683
0.0428474
0.0395346
0.0219155
0.0216695
5.53848
0.0222732
0.0218118
4.9425
0.0219144
3.55819
8.46883
0.253897
0.0252609
0.0225442
4.80767
0.0222455
0.0219398
4.43711
0.0222694
0.0215333
8.5861
0.0217895
4.80632
0.0446367
0.0683861
7.14663
0.0224109
0.021941
5.66756
0.0811444
2.21789
5.55771
0.0219799
0.0219231
0.0222261
4.42841
0.0442794
0.0220242
0.0222749
0.0222361
0.0495565
3.77483
0.0273733
0.0221895
0.0222756
0.0316226
0.450842
4.97795
4.71833
6.50498
0.0527365
0.047336
6.8872
0.021996
0.0218374
0.0219846
0.0218925
0.0642343
0.0220156
0.0216169
6.87145
0.0502638
0.0460938
5.30256
0.0550441
9.51282
0.0218674
0.0217868
0.0219379
0.0219751
0.0222835
0.0222815
0.0220019
2.33356
0.0221299
0.0215384
1.30897
0.131521
0.0218463
0.0227625
0.0569741
11.9609
0.0233251
0.0217736
5.85824
0.0237455
4.87727
0.0270453
0.0217927
6.61876
0.130934
0.0217264
5.4937
3.32197
6.52003
0.0217928
0.0217609
0.0257213
0.126161
0.0223498
8.29912
4.26152
5.8944
1.12023
0.021626
0.0439405
5.34419
4.7544
5.47388
0.0221132
0.0266807
0.0269081
5.19685
6.11675
0.404068
0.0221578
0.0219631
0.0221237
0.0447203
0.0220062
5.5819
0.0271934
5.26335
0.0219775
0.0221894
0.0219116
0.0314169
0.0319122
0.361434
0.0219299
0.0992658
4.84443
0.0298113
0.0219303
0.0238777
0.0305209
0.0222721
0.0322646
0.0391827
0.0295525
0.141251
0.0226001
0.0217227
0.0219895
0.0222787
0.0407678
0.0238578
0.0639516
0.0218608
0.0223674
2.73843
0.0215141
0.0323233
0.022467
0.150802
0.0240269
5.19172
0.0224464
32.1346
0.0258345
0.0238683
4.03035
2.52904
10.8484
0.0298179
0.0238456
0.0218025
0.0219636
0.115984
0.0470983
0.0331208
0.080203
2.39627
0.226972
0.0219262
5.87634
6.70434
0.0228778
0.02196
0.032265
5.10597
0.0321977
0.0222167
0.0599111
0.131408
0.0545392
0.0301469
3.68397
0.0252673
0.0930863
9.27146
1.25165
3.95035
0.0565489
0.170963
0.0269644
0.0220781
0.0229118
0.0219449
0.310727
0.318488
6.35124
0.120816
4.74992
4.73168
0.0552116
0.0238517
7.24249
11.5343
0.021541
0.134352
8.02298
7.6435
0.0274865
0.0216116
0.0251943
0.0256224
0.0301375
0.0809566
0.0219064
32.9787
0.0233231
0.0247608
5.05556
0.021859
0.0323455
5.49129
0.0219472
0.022846
4.63563
0.0217571
0.0995462
0.0215126
3.80728
0.030055
0.042115
0.0335589
0.0252295
0.122505
0.0248648
11.5162
0.0812128
0.0219295
10.1579
0.0428248
3.72388
7.41026
0.695381
0.328419
0.0219221
0.0216389
3.74732
0.023988
0.032843
0.0222397
0.0270737
6.51335
5.94663
0.0412831
22.012
0.0617762
0.0234341
0.0216132
0.0222298
0.044157
0.080328
0.0216938
10.4659
0.0290475
0.0448029
0.0220008
5.1675
5.16004
0.0219508
0.0215464
0.0824427
0.0222468
0.021723
2.92884
0.138973
0.0223324
0.0219604
0.159454
0.0447696
0.0277384
0.0598252
0.0219828
5.11853
0.0520906
0.0221341
0.323063
4.73659
0.0219587
6.06053
0.0216579
0.0219491
0.0223281
0.0345724
5.43487
0.0346061
7.8959
0.0325595
5.19772
1.4751
0.0268813
4.92856
0.022003
10.6256
0.0228559
9.14193
5.66471
0.0221177
4.49414
0.0250613
0.026155
11.4036
0.0783435
4.639
0.0218133
5.23396
0.021969
9.68889
0.0220834
0.0273676
0.0299266
0.0218016
0.0216134
0.0544803
5.68048
7.00461
0.0219293
2.39659
0.0266107
0.0218088
0.0221166
0.0279205
0.127457
11.4221
0.0334329
0.0220431
0.0270857
5.0928
0.0272568
0.021914
0.0217985
0.0276516
0.0298521
21.8136
0.021855
0.828866
0.0489731
6.41471
6.43839
9.11948
0.0215878
0.0628666
0.0218848
0.0222844
0.0277052
4.67949
0.0218346
0.0218024
0.0217837
10.98
0.0232446
0.0219532
0.0329814
0.0313042
5.2139
7.41959
0.0219358
0.0219791
5.10317
0.0221302
4.917
5.25056
5.21002
0.182306
0.226468
4.8977
0.0304097
0.0221645
0.0217869
0.0219845
0.0222511
0.0221081
0.0222761
9.28715
15.3774
0.0222203
0.090257
0.0217683
0.0235054
0.0389334
0.0220844
0.0249585
0.0229478
0.482179
3.09435
0.0605755
4.57138
0.0502085
7.87429
0.0861844
5.16099
4.88785
0.0527454
4.42697
0.238704
6.8273
0.0218042
0.0219767
0.0219774
0.0257995
4.69268
0.0217644
0.0222766
0.0765235
0.021836
0.0440727
0.0412013
0.0222174
4.64228
0.021906
0.0219783
0.165951
0.0216899
0.157976
0.356375
0.0220656
0.022719
0.0218108
0.0628092
0.021829
0.0235341
1.00028
0.0219823
4.74874
0.0221266
4.80036
0.0243729
0.120879
0.0219644
0.0806839
0.0379204
0.0221715
0.0220731
4.81103
0.0219567
8.40948
7.38133
0.0226966
0.0221125
0.0220771
0.0215771
2.70447
0.0219606
4.90214
17.8381
0.0445746
7.89735
0.0218273
0.0218914
5.41414
4.72588
0.0244888
0.0220025
0.0219346
0.0217765
0.0230266
0.0441638
1.10354
0.0249278
5.54216
2.59748
2.57706
0.0331318
0.0218783
10.0678
2.30687
0.0331166
0.0219669
0.0221
5.03711
0.0220109
3.91871
0.0645305
0.022253
0.0281046
0.0216236
0.033074
0.0266195
0.0218389
0.0215225
0.0229098
8.11196
0.0222226
0.0638622
6.96727
0.0220718
0.021914
0.0455261
3.31362
0.0310941
4.6276
0.022449
0.0215696
0.0234313
9.23669
0.385339
1.82964
0.0218772
0.0308548
0.0219649
4.67583
0.021663
4.66246
0.0474621
2.47007
0.0221917
0.021922
0.224056
0.0219259
10.0625
0.0219622
3.29862
0.0222563
0.0217756
0.0240694
0.633505
4.89579
0.0264849
0.0224197
0.0224316
0.0219288
0.0216878
0.022281
0.102279
0.0223152
5.30066
0.0237316
4.73032
0.0218524
0.0215942
0.788732
4.76021
6.18046
0.0224648
6.20059
0.0218754
17.6494
0.0224768
0.165913
0.0217989
7.55618
0.0218803
0.0265856
0.0220468
0.0218929
0.022262
5.37939
5.13805
5.32147
0.0335033
0.0257554
0.024633
0.0219897
0.0216681
0.0217574
0.0232927
0.150246
0.0220429
25.5976
0.10022
0.022
0.0225136
15.4081
0.11643
0.0233482
0.0245091
0.0330226
5.08118
0.0564391
11.1555
0.0632164
0.0798897
0.159087
0.0219826
0.021856
0.0767019
0.0415837
0.0218258
5.95427
0.0287201
5.07
0.0223301
0.302014
0.0337772
0.0620442
0.0273646
0.0220569
0.929719
0.0219308
20.2646
0.0220068
0.0220508
4.79748
0.0316971
0.0263838
11.2497
0.0218493
0.0945176
10.3075
0.0219575
0.071722
8.35271
0.0228562
0.0218582
0.0219446
0.0239583
0.023979
0.0828064
4.15121
0.023063
0.0265341
7.54478
0.0216098
7.51978
0.0242867
0.0234178
0.476609
6.7518
0.021746
0.021911
0.0237939
0.0216985
0.0216761
7.15351
0.022271
0.0265159
0.0215991
0.0550888
0.021726
0.118449
0.937688
0.022743
5.02292
0.0219379
0.0236606
0.0218789
5.42033
0.0283742
0.0218684
0.0219975
0.022124
0.0218745
0.0989184
6.0242
7.92536
9.48756
0.0221844
0.0223994
0.0853185
0.0221314
0.0216689
1.72371
5.49486
0.0237193
0.0219188
8.27627
0.0222263
0.0221866
5.13784
0.0837992
3.10991
0.0232042
0.0218747
4.61216
0.0221647
0.0325076
0.0222226
0.0293182
0.0219772
0.070808
0.157804
0.0430222
0.0220998
10.8041
0.022695
0.0218728
0.0221426
0.0220105
0.0219292
0.0220868
5.66661
0.0223695
6.01938
0.0222537
0.027938
4.91803
0.021807
0.299894
0.0231655
0.0217973
0.023579
0.0794983
0.0220347
0.0218127
0.0221272
0.0219754
0.0576845
0.0216881
0.0224012
0.0291157
0.0220916
0.0321733
10.9397
5.16147
4.90065
7.15405
0.0976481
0.0618082
8.58188
5.05522
0.0218733
0.0222463
0.0216354
0.127926
4.83399
0.038488
0.0254686
0.0215967
0.0218847
0.0221595
0.0232935
26.7854
17.3011
9.86972
0.0659187
0.0221026
0.0222361
0.0221567
5.84509
2.07745
0.0218129
2.48631
0.0216694
0.032192
0.0229516
0.0408572
0.0315345
0.427528
0.0231636
0.123896
0.0216485
0.021904
0.0829549
0.0219336
0.0220643
0.0581272
0.215162
0.0221289
0.0754891
0.0219345
0.0219793
0.0218013
0.0219643
5.90623
0.0300603
0.0230554
0.0221288
5.16276
0.152415
0.022074
0.0321344
0.0304778
5.11047
0.863894
5.78741
0.172538
0.0681149
0.114039
0.135671
0.0800265
4.74607
0.021587
0.0219205
0.0219184
0.15155
0.0221633
8.93194
0.0217793
0.0221198
4.8684
0.0544453
0.022378
0.0770049
0.0219544
0.0230141
0.777463
0.314291
0.0219557
0.638276
0.126443
19.8603
5.45614
0.0220007
5.73332
0.0219292
0.0655761
0.0218705
0.0218439
5.65771
0.0448808
0.0236127
0.0218984
4.60363
0.0250564
6.17939
6.46256
0.0222633
0.0216497
0.0245876
5.69009
0.235009
0.0415319
0.0331974
0.223573
0.0219782
0.022448
0.0218126
0.0219054
0.0231778
0.0546682
9.22509
0.0657717
0.110467
4.90101
0.0220015
2.35327
0.126715
0.0500513
0.0221931
0.0219885
0.0219238
0.0219185
0.0219441
22.3036
0.159251
5.1693
0.0658292
0.0904141
0.022177
0.093775
6.75358
0.0236245
0.0249738
0.0218598
12.6507
5.23708
0.0932876
0.113995
0.0219777
5.89928
0.0227538
0.0245408
0.040004
0.0809346
0.0216529
0.0775931
4.90627
0.0222777
24.5904
20.6889
4.85852
22.4857
0.0357812
1.57726
0.0571935
0.054007
5.97222
0.0218132
0.0333628
0.0216941
0.0222514
7.15495
0.0228768
4.81717
0.0216996
0.0218975
5.02025
0.0219185
15.9442
0.0228272
0.385441
0.023207
0.0221853
4.88936
0.0244969
0.0713608
0.0218764
0.021774
0.227983
0.21164
0.0220572
0.0282522
0.805329
0.0670083
2.47153
0.0222624
0.0219578
0.0215292
0.0219317
0.0259434
0.0570517
0.0216353
6.16177
0.0218769
0.0220401
0.0592842
7.33794
0.179007
0.0282833
0.021769
0.0224963
0.0766448
2.04492
1.30442
11.758
0.0260665
0.0365394
0.240981
0.0218851
0.0542579
5.14398
0.0219408
0.188887
8.26275
0.643717
0.677504
5.1644
0.0798871
0.0220897
5.37078
0.0266014
0.0433926
0.161848
0.0218536
0.103102
0.0218687
0.0219812
0.0512439
7.63131
0.0345713
0.021944
0.0411513
8.59155
0.0826128
3.00664
0.0219285
6.6603
0.02166
0.0774325
0.105813
0.0218963
5.14492
0.0218196
0.0218419
0.0220613
0.0219285
4.70363
0.083886
0.0222534
4.61905
0.02208
6.0404
0.0216678
3.20951
0.0477587
0.255833
0.0246728
0.0218912
0.0216803
0.022075
0.257276
0.121301
0.0221295
0.0426306
3.62607
5.11123
0.043366
5.11612
6.49197
0.0218947
7.51471
0.0217894
0.229934
0.0220046
0.0220778
0.0220326
0.0670568
6.54277
0.228815
0.0953273
5.05695
0.423409
0.268072
5.43144
0.021876
0.0766469
8.01485
0.0215409
0.0505784
6.33804
0.189512
0.0218916
5.2139
0.0668126
3.31616
3.18513
0.0269113
0.229928
0.0248114
0.0218529
0.0215908
4.76914
0.156988
0.274469
0.14648
0.0219093
5.10329
0.0348109
0.0215087
0.0224416
0.0632824
0.0240088
0.0222165
0.0222693
0.97682
0.0218997
0.0427028
9.57931
0.0216821
0.0218953
1.99319
0.021852
0.043584
0.0267245
0.132038
2.25288
0.0219127
0.0675167
0.0280051
0.078737
0.0273206
0.0248548
0.0922786
0.829735
0.0499694
5.91809
0.0842704
0.0221266
0.2236
5.11179
0.0781974
0.021783
0.0220494
0.129614
0.0229606
6.08566
0.677791
0.0282488
2.6474
0.023494
0.171881
4.15745
0.0219437
0.0221279
0.0220685
0.0219917
5.28383
0.359738
0.0250037
0.17202
0.286228
0.047115
0.0220893
0.0238024
0.0588227
0.0219368
0.0218725
5.15433
0.0226831
4.45577
0.0218212
0.0219983
0.0222728
0.0717851
0.0385274
0.0398608
0.022082
0.0230333
4.80807
2.06876
2.79278
2.66998
0.0256864
0.0224901
4.92526
0.0857182
4.07192
0.0536694
0.0218792
0.0539476
0.0266985
0.022358
0.0217944
0.0938813
0.081511
5.51214
0.0799212
0.508735
0.0221718
0.0229533
0.0219301
0.121799
9.27643
0.217016
3.51314
0.0218522
4.59896
0.0227679
0.0219713
0.0241557
0.0221384
0.768146
0.0219684
0.0868455
0.0216768
2.90787
0.0327842
11.141
0.0224378
0.0220268
0.0244459
0.0217112
0.0905601
3.75235
4.90369
0.0539915
0.0216353
5.03068
0.0586776
0.0219304
0.0677626
0.0217477
0.0239154
0.0215267
0.834587
0.0248378
0.0689403
0.0523774
0.0217625
14.1803
0.021637
0.0251556
0.0223732
0.0238232
0.0217475
0.021921
0.0305696
0.0222818
0.0252498
0.0216914
0.0238833
2.10306
3.37512
0.0224769
0.0441554
5.93906
0.0219167
0.0221572
0.031063
0.121157
0.0219296
0.0579344
5.5582
0.023035
5.39833
6.04083
0.021949
0.0225796
0.0604504
0.0214691
5.26353
4.6513
5.78003
0.0230322
0.0281963
0.0214986
2.11521
0.0286141
0.470864
0.0222428
0.143641
8.43927
0.0856686
0.0234951
3.50798
7.36835
5.19249
0.0224068
0.0217565
7.63856
2.68207
0.0218088
0.0221021
0.389647
0.0225407
0.223871
1.96617
0.0217379
0.0225729
5.34444
0.0725503
0.0226039
0.0214993
0.0423688
0.0222957
0.245657
0.0218785
0.0221342
0.0219373
0.0230021
0.0220643
0.100647
0.021754
0.0258505
5.34739
4.74578
9.29835
0.021814
0.080666
0.0847834
0.0220799
0.0247297
0.0407734
0.0219079
0.0238404
6.29894
0.0560492
0.0219476
0.0220032
0.0217893
5.32559
5.27803
0.0217343
0.0223042
0.021986
0.0619568
5.38762
0.0236582
0.0770413
0.0221424
0.0629775
0.0272088
0.334391
11.094
0.0222809
0.822732
4.70307
0.0408752
0.0218291
0.0413801
0.0287537
0.0441212
0.0266323
0.0218236
0.118502
0.027209
1.53944
0.042703
0.0221783
0.0223181
5.02104
0.0221053
0.0234386
0.209104
0.0426409
5.27864
3.53929
0.0217986
0.281717
0.615932
0.327108
0.0451784
0.0237987
0.0220624
4.87846
0.0455084
0.0218476
0.0723708
0.0693063
2.19693
5.74337
0.022062
0.0280693
0.0222215
0.22467
0.964414
0.0221877
0.0596505
0.0258805
0.023289
0.022189
8.85013
0.0691707
0.0219485
0.0237784
6.41244
0.0222614
0.0220098
0.0263267
0.0717199
0.0219633
0.0221613
0.023618
5.83784
0.0301523
0.021837
0.0218312
0.0219101
0.123183
0.0219997
0.0219504
0.913803
5.08542
0.0218553
0.0222649
0.0597528
0.0296496
0.0923042
0.0221568
2.59586
0.0219055
0.0228216
0.0292485
5.25943
10.3635
0.46358
0.0422376
5.5925
2.37625
8.12693
5.88572
0.0245283
0.0219432
0.021693
0.0417572
0.0218873
0.0219522
0.0219209
0.194039
0.0218683
8.60662
0.0319171
5.29327
0.0219018
4.83785
0.0219749
0.0278173
0.0216929
0.0229973
0.0409
0.66244
0.0221889
0.0218488
0.0250275
5.05327
0.0219112
0.0403828
0.0221937
0.0385675
4.58662
0.246347
3.78118
0.030867
0.210711
0.0221579
5.26312
9.93685
0.0218836
4.80847
2.50721
0.021893
0.0215286
0.0458325
0.0308551
0.0436011
0.0216956
5.78211
0.0328118
0.0605395
0.0216186
0.021956
0.0262692
5.589
4.56128
5.56329
0.0423213
5.44585
0.0392549
9.60326
0.0219588
2.65404
0.0219737
0.0270442
0.961418
0.0231656
0.191633
0.0218634
0.0246123
6.57635
5.53624
0.0219655
1.79824
0.0220016
4.8883
0.0217999
5.21652
4.89565
0.0218306
6.3262
0.0274511
6.07047
0.0219784
0.0264876
0.0228359
0.0869382
0.0220215
0.457749
0.0218052
6.39064
0.0848439
5.42127
0.0221338
0.0216927
0.646901
0.0231276
0.0317325
0.0218785
0.0866644
0.0246155
0.0219623
2.46729
0.0220103
0.0219439
0.0223076
0.0220694
5.08993
0.039027
0.0219537
6.29772
4.18205
0.575898
0.0216995
0.0889417
3.40533
0.0218502
0.0260558
0.0223904
0.0220436
0.0219522
0.0219919
0.0273148
0.0285239
5.33143
0.352503
0.233026
0.0222778
0.0219595
4.89969
0.0357273
0.0219307
0.0223559
8.5906
4.70891
0.0219715
5.50233
0.0392629
0.54896
0.0222787
5.5741
0.0217532
0.022828
0.0221003
0.021887
0.0234308
7.02372
0.0217344
4.76036
0.154659
3.89892
5.97037
0.022102
0.0220034
4.95707
0.0676886
0.0963968
0.0219853
0.125814
0.0222114
4.93369
6.14182
5.33737
0.0220692
5.51579
12.3915
5.3503
0.522905
0.025673
0.130925
0.0218519
0.452467
4.95545
0.0290782
5.06542
0.0218205
0.022042
0.0706476
6.30689
0.0404067
0.470455
0.0219881
9.03413
0.0410848
0.0518925
0.0218224
0.0409583
0.277198
0.0220384
0.0397788
0.0408912
0.243512
0.0215909
0.0219052
4.98246
5.12323
0.0238447
4.91589
0.0394845
0.0219974
8.91058
10.3367
0.0220966
0.516854
0.0217048
0.0220711
0.0482308
5.14217
0.0222872
4.99884
0.0235541
0.0219279
5.28282
0.0221879
0.0737963
0.0218576
2.50212
0.0220258
5.26452
0.0217725
0.055351
0.0218666
0.0275907
0.223628
4.77725
0.0492852
8.31037
0.0288094
5.44068
8.59318
5.16877
0.0218732
9.90448
11.5732
3.6741
0.420492
0.0223902
0.0218509
0.021962
10.0755
0.0219455
0.0220615
1.31763
0.0222412
8.90004
0.023068
5.74577
0.0219271
0.0222302
0.114438
0.021557
0.0582027
0.0218512
0.0753433
0.091991
2.18127
0.021814
0.0218932
4.83701
13.7921
0.0222451
0.0304859
0.03522
0.0226198
7.14263
5.23251
5.15409
0.136474
4.75389
4.0726
0.228079
0.0218997
0.0217909
0.0228485
0.021943
0.0328811
6.35327
7.79679
0.0220891
0.023873
0.0226912
3.08238
7.42242
8.56583
2.63424
0.022044
2.61327
5.35473
0.026483
5.07413
0.0499177
0.0221251
4.99091
5.96684
9.03337
0.0222076
0.0230282
0.043195
0.408385
0.0218118
0.0220115
0.0222428
0.0218307
0.0220414
6.98844
0.0238846
0.0216905
8.20352
0.022105
5.78894
0.0418129
5.45445
0.556159
0.0219798
5.39079
0.144806
0.963353
0.0227102
0.0284822
0.0220147
0.022994
6.43809
0.152061
0.0789912
0.0224724
0.0219338
0.139681
0.0233395
0.0220621
0.0273077
0.0219411
4.9629
0.0219993
5.12166
7.92932
0.0233284
0.0219819
8.48629
0.0218711
0.0216884
1.26317
0.0246268
0.0237611
0.0827405
1.83439
5.49903
0.0339485
0.0234572
0.0222694
4.89812
2.20136
0.0234707
0.0363437
0.0218748
0.0218177
0.0240152
0.0217205
0.310245
0.0294387
0.0219927
0.0222575
0.0220929
0.0218859
0.0218528
0.0219142
2.53727
6.71875
8.40336
0.36963
3.90289
0.43881
0.0248882
4.99133
7.87199
4.18803
0.0220946
0.0216851
3.69812
3.71811
0.441408
0.22077
7.51152
0.0220958
0.0219347
5.1337
0.0218461
0.15337
0.129438
0.0225315
10.0158
4.86527
0.0222611
11.0808
8.21833
0.164503
0.711669
0.0221712
2.52734
0.560109
5.34105
0.0218539
0.0658943
2.09774
0.021915
0.0417438
0.021742
0.0504141
0.022061
5.81241
0.718392
0.0220114
0.0232487
0.0223621
4.64547
0.0430553
0.0221146
0.0222006
4.6133
0.0219211
0.0232537
0.117227
0.453185
0.022495
0.0831806
0.0489105
0.0219532
0.162037
0.0219239
0.021969
0.0268582
0.021974
0.0305585
4.73712
0.233249
0.0220044
14.0915
2.85053
0.303324
7.14273
0.0423533
0.0235183
5.12762
0.0264117
0.0241466
0.0466552
0.0778882
0.0218914
0.0217283
0.0221102
0.511071
5.68733
5.93693
5.26945
0.0218244
0.02593
0.0769803
0.175569
4.88485
0.0221384
5.22424
0.0223467
7.25135
0.0215801
6.08239
0.022701
16.2179
7.67924
0.0875881
4.87547
0.0594886
0.0218383
0.0849475
5.47256
16.247
0.0263727
0.0223632
0.021956
0.0220837
0.0295071
0.0222869
0.0235813
0.0218204
0.0605514
0.0220119
4.90081
0.0222243
5.3711
0.0216809
0.162069
10.3279
0.0229492
5.07273
0.0220173
0.0274775
0.022171
0.0222003
0.0219125
0.330251
0.222059
0.0217957
0.0242863
0.0219778
5.39409
0.0312392
0.51709
0.209942
0.0219764
0.0512588
0.0226532
0.0228695
0.0464149
0.0221072
0.0557247
10.2119
0.0220296
4.83947
0.0274519
0.0218829
0.0217231
9.63272
0.0219976
4.82323
0.194114
0.0222693
2.78419
0.107744
6.15783
0.0258975
0.0252147
0.0221013
0.061981
4.30131
0.022136
0.0460811
0.0220571
0.113557
3.02067
2.27981
7.11262
22.6951
0.0295993
2.33606
0.0221623
5.21017
0.509506
0.0266274
0.472812
0.0713024
0.0215802
0.0488749
0.0220078
0.0217622
0.0242955
0.0219513
1.34314
2.05482
0.169548
3.83247
0.022076
2.14417
0.0220588
0.0219766
0.0437759
4.70503
0.0217409
4.96127
0.0975311
0.121108
6.72305
0.022243
0.0461375
8.05246
0.0448476
0.0219545
0.405536
0.0219717
0.0221304
0.0222417
2.0586
11.4051
0.025746
0.0221017
5.53036
11.8328
0.0222869
0.0222361
2.15792
5.18364
0.022214
0.328035
0.120209
0.021884
0.0303824
0.0217008
4.81503
0.0219845
10.3596
7.13777
5.92702
0.0249798
0.0323794
0.0218098
0.0218015
2.86122
0.0218452
10.4843
5.44371
0.0793704
0.0218505
0.0216931
0.709381
0.323851
0.0524477
8.21526
0.089435
5.59563
0.0230027
4.6906
2.61558
0.0268943
0.378155
5.89896
3.62927
0.0220232
7.18408
0.0217382
4.55874
0.27388
1.16784
0.0216329
0.0419526
0.0221052
1.14584
5.09281
0.0226398
0.0228569
10.6475
5.23602
0.0219499
5.36041
3.88386
5.13957
0.0222166
5.47159
0.0221522
5.50212
0.0221117
0.0226733
0.0222061
0.0219823
10.2512
0.329638
0.0217206
5.13732
5.41035
0.0215405
0.0216925
0.0421017
0.067394
0.11127
0.0493295
27.455
4.97395
4.59069
6.49122
0.109304
0.02303
0.16403
0.112629
5.14591
4.11727
6.32574
0.108765
0.057732
0.0246663
5.46529
0.0899096
0.643733
0.022185
0.0256653
11.3954
0.0220943
0.0293447
0.542371
0.0242225
0.0433676
0.0219805
0.0231877
5.43444
0.355944
0.0216454
0.0256659
10.9371
0.273585
0.0309524
1.83207
3.29586
0.0443063
0.199014
4.59092
0.0225799
5.56007
0.113358
2.79227
0.0221459
0.0214753
2.04126
4.76854
4.81684
7.98847
4.84109
0.0407203
0.082514
0.0239058
4.62607
0.0218917
0.0220277
0.0473393
0.07371
0.10371
5.56524
0.0227956
4.90146
6.04732
0.0223162
0.0940961
0.0232843
0.21883
0.129409
0.0419891
6.63257
4.73274
5.38017
2.01705
0.0327075
0.0219693
0.0226123
0.0277907
0.773542
6.45151
4.98304
9.36419
0.0528733
0.0217987
0.275287
0.0408774
4.63889
0.0220962
10.652
0.0581056
5.77264
0.0220933
3.50327
0.0951294
0.0769804
2.30678
0.021728
2.94901
6.20864
0.0218184
0.0844047
5.16038
0.0224086
0.455262
0.0231851
0.0230635
0.0222589
5.46915
0.0466845
1.66691
0.0292145
8.9847
0.0217487
0.0215222
0.0218861
0.0220648
0.0219585
8.38245
0.401615
5.93614
0.0222114
0.0217703
8.04514
0.0289831
4.97848
0.103848
0.0219097
1.07568
0.0305745
0.0399131
5.99024
0.0266918
39.9764
0.712191
0.0276439
0.0216226
0.269042
0.0215391
0.679993
8.40058
0.210941
0.0217866
6.5747
0.352923
0.0219879
2.66203
0.0221309
5.51779
5.46209
0.0282004
0.0251243
0.0738995
0.0394451
0.0222332
0.0216473
0.0219767
21.9185
0.0252796
2.41863
0.692909
10.1098
0.845831
0.119061
0.0219614
0.217394
8.85213
0.0249875
0.0218565
0.0239682
0.0222271
8.80489
0.0841346
5.22861
0.0220017
3.58963
2.93501
4.81275
8.35915
0.0219902
3.05673
2.04157
0.021951
0.022281
1.88548
5.2041
0.0265416
0.298457
3.51995
8.00062
0.0296185
0.0228821
0.451303
0.0428556
0.0231535
0.0275175
0.0221213
0.0792932
5.43731
0.0601156
0.0227936
11.2433
0.155228
0.0216501
0.195184
0.228113
0.0748586
0.0588701
0.0216628
0.0217916
2.25379
3.21362
0.0406178
0.021836
4.41641
0.455972
1.96371
2.0993
0.0235432
0.0216558
0.0220969
0.0222041
0.0298681
4.8066
0.10108
0.0223448
0.113613
0.0220683
5.20183
0.023061
5.07172
0.022837
1.16728
0.0576374
5.18961
0.0219275
0.0219537
0.0218028
4.96937
0.026276
4.79847
3.02668
0.0610766
0.022143
0.0277539
0.0310238
0.0222082
6.43512
0.0216026
5.08691
4.80966
3.40011
0.0287438
0.0219766
0.0222776
0.0220201
0.0222035
0.097794
7.9362
5.49897
23.9124
0.815181
2.49046
0.0234952
0.334977
0.0759744
0.0557992
0.0219789
0.0216614
0.229683
0.0230505
0.0216511
5.48238
2.1627
0.467616
5.00568
4.25481
0.0220995
0.022127
0.0227548
0.0450907
4.57034
0.0220575
0.0470574
0.511072
1.2068
0.0457884
0.0221277
0.349343
0.0273888
4.99765
0.0220662
0.0217268
0.0219953
0.0219796
0.0226675
5.55501
0.845048
0.0947993
0.141772
0.0914022
0.021848
0.0542771
0.0226791
0.0221028
0.0272574
7.14421
5.3793
0.021806
0.315256
0.02186
0.0568295
0.0232156
0.0287362
0.0221032
0.0878589
0.0567497
5.86167
10.0448
8.49449
8.86501
24.1677
4.69431
1.14388
0.021717
4.94768
0.0217159
7.62734
0.0258413
4.40201
0.0220924
0.0846421
0.0220439
0.0217637
0.0242843
0.0219518
1.66248
0.0216711
0.0219184
0.0216378
0.0217027
0.0217999
0.0298999
0.0221269
4.75532
0.0496587
0.0219655
3.39018
0.0220375
0.0218565
0.0652192
5.20432
0.0394574
0.0290454
0.0217614
0.0216054
4.60579
0.022214
0.0255933
0.160958
5.79612
8.91698
4.71514
4.89055
4.86069
18.5561
5.93247
8.37636
0.075333
1.90863
0.0222275
0.0219937
0.0710953
0.0261075
2.60897
0.0221523
0.0466004
0.0525266
0.361086
0.0828271
0.039121
0.0234587
0.0219854
0.0508675
0.0220433
0.0217183
0.396276
0.0222545
4.61261
5.49877
0.10315
0.0217967
5.50223
0.023158
5.16719
0.474149
0.0218384
7.65607
4.98729
0.0673376
0.0706352
0.0311473
3.30614
5.10812
0.0237335
19.0401
0.0534389
0.0404181
4.80801
0.022104
4.66165
0.0220377
0.0220717
0.0218364
2.02402
0.230373
0.330185
4.88522
0.0250746
0.0462205
3.26757
0.0217854
5.25934
0.0216868
1.89279
4.74616
10.0103
0.119816
11.6981
0.021941
0.0221918
0.0238738
6.09522
0.0490781
0.0224445
0.0219393
0.021468
0.0218909
0.0650437
0.186265
0.0792197
0.182657
0.060547
0.0219797
4.82925
0.0303141
2.24117
0.0226757
0.0217462
0.0225793
0.0222322
0.039348
0.316567
4.68868
0.564321
4.99279
0.440799
0.0218145
2.00771
0.0215202
0.0219959
0.0228867
0.0217566
0.0315676
0.0219889
0.0691301
0.0218255
5.07506
0.0222783
0.022461
0.0217524
5.17336
0.700384
0.092915
0.0215604
4.9576
0.159166
0.0795488
5.32783
0.0571273
2.18218
0.0220615
2.10922
0.205633
0.030475
0.989519
0.033325
0.0414629
0.744722
0.0281899
17.435
0.104728
5.69515
3.73729
0.0431991
0.0294034
0.0219634
4.71298
0.0220224
3.09
0.0219258
0.021895
0.0215266
0.0319688
5.36178
0.0239924
0.0219223
0.0221141
0.045553
3.00411
0.101591
2.60766
0.191652
0.0687422
0.0219925
0.0602787
0.0221852
0.0228945
6.39365
0.0331639
0.038741
0.116243
4.11842
0.154401
0.0436862
0.0712999
0.0620915
0.0245977
3.92937
0.0221809
6.78705
0.0253361
5.50019
0.0955286
3.91704
5.49865
0.0922923
4.65442
4.71621
0.135769
0.277101
0.0891547
0.551524
0.0220275
0.0797046
0.0547417
10.1894
0.0230392
5.8279
7.72564
0.0215093
0.0217568
5.48499
0.0223261
0.0219216
0.0216223
15.0657
2.2296
3.78336
0.0269637
2.77234
0.553023
3.63786
1.77408
0.0798515
0.0220511
26.484
3.06688
1.18824
0.447171
0.0219638
0.0218362
0.022013
0.0221126
1.11619
0.133733
3.17534
0.0843612
0.0221433
0.0219718
0.0222878
0.0316266
10.8333
0.0237711
5.01502
5.24858
0.0532208
0.02212
5.3255
0.17969
2.55788
0.0219316
21.0869
0.0943467
0.0221554
5.92653
3.67946
0.0231093
0.0217645
0.022103
0.0222562
0.0219903
0.15953
0.057977
0.31216
0.0425828
0.0226022
0.0303301
0.0220853
0.0256751
0.0219376
7.80415
17.7966
0.0351104
0.0220147
5.42425
0.0216874
0.190964
0.538603
10.0308
5.25147
5.23789
0.0220559
0.0222716
0.0221237
0.245503
0.0225573
3.72806
0.0254741
0.0218939
0.0219925
0.143907
0.190667
0.0220722
5.26803
0.0758646
3.89414
11.3912
0.022115
0.734414
5.22676
0.18273
0.0222878
0.0219837
0.13796
1.39266
20.9465
0.023182
8.05631
0.021742
0.0832217
2.34595
0.186133
0.0217227
8.47954
4.46627
5.5451
8.95297
0.0222767
0.0221529
0.0871363
0.159776
0.0422142
0.0230146
3.9367
0.0234787
7.93293
5.16763
0.0218873
8.82498
0.0218493
0.0818309
7.80636
0.0846733
0.0573623
2.39829
0.0239945
3.88314
0.021973
0.783484
5.58847
3.31467
12.2173
0.0243817
0.0592543
0.0217037
5.84515
0.0229382
0.0217325
0.0476862
0.0534105
0.0487156
23.5438
4.85384
5.09749
0.224563
0.0308451
0.0389601
0.0262782
0.0352875
29.6007
0.0232416
0.401619
0.0227399
5.09962
0.639715
0.0222404
0.0221646
0.0425733
29.5082
0.0432829
0.0216246
0.0218862
0.0303073
0.026629
0.0283407
0.0253956
4.91736
0.0239222
5.74937
0.0749717
0.0219421
0.0758399
0.0788209
0.040734
0.0218574
0.0220852
3.1798
5.08657
5.41039
0.0419539
0.0462603
0.0535598
0.0478236
0.0219222
0.0236252
5.35478
0.0487637
0.0238977
5.1045
6.4608
0.230934
3.4113
0.0794613
0.0226572
6.3729
0.0660357
5.35012
0.0219147
4.68095
0.0488816
0.0325785
7.00064