/*--------------------------------*- C++ -*----------------------------------*\
| =========                 |                                                 |
| \\      /  F ield         | OpenFOAM: The Open Source CFD Toolbox           |
|  \\    /   O peration     | Version:  v2012                                 |
|   \\  /    A nd           | Website:  www.openfoam.com                      |
|    \\/     M anipulation  |                                                 |
\*---------------------------------------------------------------------------*/
FoamFile
{
    version     2.0;
    format      ascii;
    class       volScalarField;
    location    "500";
    object      nut;
}
// * * * * * * * * * * * * * * * * * * * * * * * * * * * * * * * * * * * * * //

dimensions      [0 2 -1 0 0 0 0];


internalField   nonuniform List<scalar> 
18758
(
0.000104818
0.00289129
0.00671597
0.0110193
0.0109172
0.0126411
0.001111
0.00671937
0.000300686
0.000517655
0.00134035
0.00443097
0.00672104
0.000632122
0.00304075
2.45039e-05
0.000879516
0.00671967
0.0041972
0.000442158
0.00387044
0.00672574
0.0076713
0.000518083
0.000467144
0.00671898
3.63419e-05
0.0107165
0.00802878
0.000112767
0.000856896
0.00556347
0.00672349
0.00235717
0.000498498
0.00672326
0.0067245
0.00320291
0.00264577
0.000738156
0.00307397
0.000483229
0.0067376
0.000617636
0.000135139
0.00671658
0.00778755
0.00116935
0.000618272
0.00673476
0.000229974
0.00890403
0.00671605
0.00146871
0.0117834
0.00173725
0.00672425
3.16853e-05
0.00413146
0.000603976
0.000159702
0.00152175
0.000294977
0.00118727
0.00671613
0.00672458
0.000766475
0.00672338
0.00366038
0.00976171
0.0104679
0.00190177
0.00673577
1.16644e-05
0.00672832
0.00399009
0.000308746
0.0103006
7.75242e-05
0.00579081
0.0100957
0.00026257
0.000574756
0.0131618
0.000299286
0.000841428
0.00229129
0.000343315
0.000153418
0.00422195
0.0122739
0.00421527
0.00221538
0.000480722
0.0107414
0.00229845
0.000337893
0.00672968
0.00672702
0.00514699
0.000381192
0.0123957
0.000461054
0.000321971
0.00343582
6.70487e-05
0.00205118
0.00971853
0.00179762
0.00172863
0.00200502
7.19407e-06
0.0067187
0.00270716
0.0100463
0.00204891
0.00369022
0.00311182
0.00535236
0.0111345
0.000545017
0.00531898
0.00637617
2.09556e-05
0.000129851
0.000162224
0.00165088
0.000623175
0.00255333
0.00673348
0.000908392
3.21653e-05
0.00124981
0.000154057
2.17921e-05
0.000851173
0.000369131
0.000825409
0.00672692
7.33072e-05
6.98429e-05
5.41874e-05
0.00332057
0.00260138
0.00326656
0.0042658
0.00279902
0.00372668
0.000887148
0.00804604
0.000230806
0.000440018
0.000841255
0.00672575
0.00996728
0.000888858
0.00567318
0.00119704
0.00233232
0.00672619
0.00672577
0.000597771
0.00197294
0.00208027
0.000162529
0.00906867
0.00367824
0.00606978
0.000151077
0.0121745
0.00857863
0.00671969
0.00210159
0.0111897
0.000525864
0.000511542
0.00942401
0.00126517
7.56297e-05
0.00272832
0.00671808
0.000179378
0.000466954
0.00675651
0.00177825
0.00058039
0.00638979
0.00288812
0.00673355
0.00629279
0.000149164
0.00057861
0.00182781
0.000916608
0.000316803
0.000319675
0.000420639
0.000158629
0.00672267
0.0067365
7.9998e-05
0.00123761
0.00038455
0.000363674
0.00672044
0.000340021
0.000444771
0.00672592
0.00331111
0.000547864
0.00671948
0.000318809
0.00219074
0.000368624
8.56039e-05
0.00880037
8.03644e-05
2.5733e-05
0.00672218
0.0125178
0.00671949
0.00191134
0.000370613
0.004139
0.000222479
0.000440365
0.000386269
0.000178845
0.00675295
0.000305136
0.0067246
0.000333475
0.00810309
0.000360969
0.00672125
0.0064425
0.00675278
0.00671695
0.0065916
0.00047586
0.00672332
0.00032421
0.00216272
0.00206038
0.00701611
0.000448375
0.000343629
0.00672335
0.0106102
0.000340555
0.00672291
0.00722006
0.000904138
0.000313022
0.00335677
0.000568798
0.000471478
2.6731e-05
0.000399624
8.82725e-05
0.00679073
0.000494155
0.00672262
0.000370033
0.000612527
0.000386232
0.00152202
0.00672106
0.00206612
5.2381e-05
0.00211814
0.00179953
0.000339324
0.00873636
0.00243132
0.00349043
0.000214313
0.000285187
0.000134339
0.00160315
0.00572048
0.000686675
0.000468024
0.00397145
0.000470845
0.000338565
0.00426206
0.00027576
0.0080623
0.0067478
0.0067157
0.000166374
0.00904362
0.00056166
8.94936e-05
0.000313294
0.000631088
0.0106615
0.00430801
0.000462435
0.012319
0.00671682
0.0095104
0.000243294
0.0033987
0.000478631
0.000309329
0.00282234
0.00672301
0.00220005
0.00335956
0.00672177
0.0011541
0.0109038
0.000208523
0.0067229
0.00674674
0.000533189
0.00188029
0.00675335
0.00490091
0.00101156
0.000143179
0.000267922
0.000674208
0.000456385
0.000429036
0.000163445
0.00678773
0.00672593
0.000596805
0.000202067
0.000212028
0.0111676
0.000525927
0.00189581
0.00678527
0.000423637
0.00936101
0.00675385
0.00671932
0.00675331
0.000976857
0.000196679
0.000443258
0.00518968
0.00199211
0.00673696
2.43836e-05
5.85412e-05
0.000257145
0.000110216
0.00233094
0.000573557
0.000110734
0.000513651
0.000287877
0.00533826
0.00479136
0.000499144
0.00672047
0.000390436
0.00262488
0.00825928
0.000801827
0.00674768
0.000411043
0.00363217
0.000933189
0.00555557
0.0109149
0.000599192
0.000442074
0.002232
0.00346159
0.00115968
0.00506344
0.0024773
0.000527863
0.00129813
0.00155685
4.36592e-05
0.00332553
0.00672157
0.00466504
0.000642226
0.000293293
0.00326659
0.00101408
0.00577781
0.000533731
0.00492431
0.00672084
0.00350261
0.00383866
6.59555e-05
0.00237755
0.00672596
0.000319893
0.00931328
0.000471607
0.00671912
0.0114175
0.00512741
0.00375427
0.00671831
0.000499969
0.00586854
0.000574643
0.000125229
0.0067416
0.00563751
0.0114605
0.000640933
0.00672292
0.00146564
0.00371575
0.0067194
0.000727286
0.000518557
0.000153339
0.000471102
0.000506562
0.00672336
4.75013e-05
0.00512759
0.00858438
0.0080054
0.000616426
0.00163506
0.00672056
0.00672272
0.00199681
0.000747497
0.000758975
0.00135835
0.000264921
0.000867844
0.000589887
0.00047389
0.00403115
0.000548887
0.000143553
0.00129503
0.0112182
0.00667146
0.00672249
0.00613289
0.000469261
0.00220845
0.000524043
0.000453356
0.000171146
0.00278174
0.00407259
0.00142389
2.38349e-05
0.00580636
0.000197683
0.000224764
0.000662865
0.000592026
0.000420422
0.000591022
0.00177411
0.000271687
0.00286574
0.000584234
0.00150691
0.00244667
0.00105307
0.00170578
0.00150685
0.000810078
0.00671659
0.000609323
0.00673573
0.00306456
0.00481131
7.88202e-05
0.00672277
0.000465164
0.000943143
0.00672245
0.00672601
0.00671838
0.00377801
0.00227528
0.00988781
0.000860316
0.00186174
0.000299529
0.00672579
0.00672613
0.00825213
0.00672623
0.00672294
0.000270968
0.00672035
0.000227268
0.000303162
0.00672297
0.00565066
0.000432297
0.00137075
0.000762217
0.007811
0.00254232
0.000201395
0.000777506
0.0067233
1.58088e-05
0.00174944
0.00202739
3.29581e-05
0.00242063
0.00080806
0.000523068
0.000881162
0.0019999
0.00412305
0.00413032
0.00311854
8.50697e-05
0.00672247
0.00769921
0.000601376
0.000423881
0.0067451
0.000213194
0.00780742
0.00314208
0.00410352
0.00280744
0.00281554
0.00407613
0.00672954
0.00672631
0.00710584
0.00121357
0.00983242
0.00542767
0.000242165
0.00444957
0.00672267
0.00673424
0.00115671
0.00672223
0.00152214
0.000956701
0.00270667
0.000317863
2.44314e-05
0.00671954
0.00797204
0.0118044
0.000232174
0.000254293
9.79903e-05
0.000527577
0.00193572
0.000967281
0.0103924
0.00105991
0.00121489
0.00312282
0.00402562
0.000550603
4.98794e-05
0.000342295
0.00107369
0.00124406
0.00401716
0.000381637
0.000438152
0.00154492
0.000111584
0.00192843
0.00358638
0.00136686
0.00499386
0.00671864
0.00672041
0.0116902
0.00388938
0.00287502
0.000593305
0.000357976
0.00916413
0.00417177
0.000553916
0.00104266
0.00482067
0.0118451
0.000952176
0.00320644
0.000726953
0.00965619
0.00432118
0.00248681
0.00134507
0.00292438
0.00671725
0.00355849
0.000334451
0.0119304
0.00820931
0.00287045
0.0067225
0.000481062
0.006726
0.00672514
0.00103478
0.00294767
0.000274158
0.000634091
0.000158121
0.00925251
0.00023418
0.00672259
0.000462599
0.000207709
0.00889913
0.0010389
0.000576972
0.000401971
0.00319355
0.00060133
0.00442545
0.0017769
0.00675734
5.12535e-05
0.0130691
0.000155061
0.00672026
0.00334033
0.000283391
0.000478787
0.00673472
0.000677707
0.00195583
0.00210984
0.00121594
0.00672397
0.00997912
0.00672632
0.000480374
0.0050888
0.000262312
0.00138844
0.000508197
0.00771701
0.000487691
0.00239234
0.00146059
0.00498742
0.0107221
0.00143966
0.0104499
0.00415217
0.000408215
0.0067259
0.000346681
0.000579139
0.000203509
0.00672252
0.000660797
0.000297222
0.00890572
0.00584669
0.00108859
0.000485616
0.000416677
0.000364194
0.00183166
0.0065246
0.00672402
0.00236514
0.000822128
0.00672337
0.00058315
0.00672183
0.00673651
0.00671917
0.0106319
0.00164451
0.00672566
0.000499153
0.000448173
0.00672061
0.00212792
0.00390035
0.00667359
0.000368988
0.000211733
0.00187609
0.00144918
0.000468906
0.000199219
0.000381864
0.00414785
0.000417637
0.0113504
0.000537668
0.00033635
0.00166399
0.00225859
0.00675493
0.00957203
0.000581499
0.00671856
0.00735935
0.00672287
0.00671906
0.000609615
0.00671974
0.000151586
0.0102272
0.0067336
0.00163653
0.00475123
0.000614478
0.0108336
0.00671885
0.0128668
0.00108322
0.00356817
0.00672834
0.00672422
0.000270466
6.96411e-05
0.00167879
0.000232322
0.0113414
0.000465548
0.00672326
0.000335359
0.00154379
0.00171283
7.52063e-05
0.00025882
0.0010382
0.000885869
0.000273666
0.00176187
0.000435059
0.00671998
0.000883651
0.00228802
8.47354e-05
0.000410007
0.00238715
0.0077631
0.00131808
0.00672379
0.00110167
0.00110325
0.00671929
0.000720848
0.000281495
0.000295402
0.000584219
0.000710782
0.00814587
0.00672232
0.00672407
0.00467885
0.00672393
0.000317484
0.000490325
0.00142538
0.00672291
0.000396401
0.00672838
0.00369601
0.00118948
0.000317631
0.000167078
4.1431e-05
0.000229934
0.00672253
0.000761077
0.0104037
0.00672105
0.000578111
0.00148878
0.010169
0.000924917
0.0101478
0.00671999
0.000687557
0.00672586
0.000485175
0.00321117
0.00205077
0.00205276
0.00671972
0.00679101
0.00672088
0.00435702
0.000281368
0.00113168
0.012969
0.00312705
0.000787069
0.00091312
0.000288292
0.00560684
0.00112595
0.00672567
5.69957e-05
0.00672135
0.00322954
0.00089078
0.00277636
0.00709956
0.000802193
0.000547523
7.40591e-05
0.00116825
0.00516152
0.00028838
0.00671917
0.00103786
0.00100542
0.00672357
0.00881089
0.0111751
0.00672244
0.00243413
0.000703255
0.000824485
8.08339e-05
0.000521234
0.0117413
0.000283242
0.00671972
0.00672954
0.00920884
0.00336561
0.00363004
0.000985415
0.00317564
0.00348462
0.000554717
0.000466103
0.0130432
0.000552576
0.000497152
0.00162519
0.00671985
0.00671496
0.00671955
0.00243936
0.00273896
0.000626377
0.00672291
0.0067249
0.00205033
0.00523496
0.000606141
0.000617513
0.000222518
0.0084055
0.000576038
0.000364727
0.000694406
0.00393233
0.000265146
0.00417332
0.00600927
0.000621048
0.00662909
0.0086297
0.00278448
0.00118562
0.00014442
0.0129941
0.00606887
0.000133057
0.000209843
0.00616381
0.00672046
0.000354747
2.27657e-05
0.000618933
0.00672031
0.00326917
0.000666144
0.00806422
1.93795e-05
9.88744e-05
0.00585218
0.00220787
0.000347964
0.000330515
0.00236827
0.00022303
0.00672267
0.00141114
0.000236218
0.00672075
0.00672275
0.00138436
0.000575717
0.00671959
0.00178105
0.00673691
0.000714509
0.000672823
0.00569289
0.00675157
0.000130335
0.00672486
0.000322736
0.000303304
0.000298159
0.00672284
0.00251653
0.000126102
0.000342316
0.000927579
0.00379153
0.000674665
0.0039567
0.00283292
0.0110357
0.000217666
0.000205631
0.00672292
0.000558223
0.00672233
0.000612674
0.00673546
0.000355894
0.00999676
0.00671913
0.00393869
0.00136439
0.00373348
0.00681817
0.00274359
0.000860702
0.00190179
0.00672311
0.00673567
0.00671998
0.000396014
0.00128666
0.000215769
0.00156575
0.00891251
0.00673078
0.00672934
0.0081375
0.00581268
0.0101563
0.006718
0.000381217
0.000938734
0.00672732
0.00501954
0.00672223
0.00771151
0.00214799
0.00672376
4.32364e-05
0.000645638
0.00672027
0.000362805
0.000413639
0.00672218
4.38508e-05
0.00671966
0.000321894
0.0100066
0.000924406
0.00672816
0.000710772
0.000727474
0.00028348
0.000619364
0.000638327
0.00736396
0.00110151
0.000452471
0.00672394
0.00675884
0.00672203
0.00153169
0.000425091
0.00112589
0.00442136
0.000936928
0.00100294
0.00300923
0.000430808
0.00643818
0.00672888
0.00134514
0.000157834
0.00672437
0.00277873
0.00672308
0.00338719
0.00672935
3.07325e-05
0.012971
0.0067228
0.00159255
0.00671908
0.000468204
0.00671938
0.00465753
0.000592328
0.00672569
0.00676329
0.00672273
0.000237516
0.0067195
0.00401597
0.00930133
0.00163463
2.52262e-05
0.000140788
0.0129444
0.000135552
0.0067232
0.0067254
0.000583597
0.00478144
0.000525433
0.000523912
0.000588012
0.000575566
0.00354217
0.000436566
0.00136223
0.00672239
0.000251774
0.0090585
0.000250791
0.00671919
0.00633093
0.000864549
0.00176153
0.000504572
0.000796737
0.00672283
0.00676304
0.00678406
0.000738139
0.00672264
0.00545955
0.0131305
4.2716e-05
0.00148905
0.00672509
0.000221637
0.000642285
0.00672246
0.000599861
0.000385382
4.74959e-05
0.000516628
0.00294771
0.00151044
0.00063742
0.00671943
0.000223229
0.00195654
0.000226527
0.000390073
0.00029903
0.00516568
0.000525354
0.0130662
0.0108511
0.000342089
0.000211636
0.00210582
0.00672273
0.00672359
0.00189528
0.00028222
0.00672325
0.000963981
0.000340011
0.000722384
0.00672021
0.00672
0.00385545
0.00672587
0.000620805
0.0103657
0.000908384
0.00672419
0.002305
0.000323121
0.00672281
0.00117435
0.00677214
0.000312739
0.00152449
0.00555777
0.0105491
0.000160586
0.0126491
0.00315632
0.000445636
0.0054969
0.00768961
0.0109782
0.00673923
0.000651933
0.000572598
0.00672277
0.00671936
0.0019643
0.00366525
0.00672222
0.000238761
0.000400032
0.00672008
0.000831005
0.00672273
0.00122243
0.00035876
0.00672309
0.0117131
0.000862595
0.00672004
0.000464978
0.000184
0.000505433
0.00672615
0.00061322
0.00263587
0.0104938
0.00597128
0.00673778
0.00404236
0.00671793
0.0129354
0.00672022
0.000397114
0.00914376
0.00765822
0.0029482
0.00163635
0.0067228
0.00103006
0.000847483
0.000438554
0.00671413
0.00115948
0.00672276
0.00370381
0.000238009
7.21512e-05
0.000258671
0.00671998
0.00449673
0.000343532
0.00224119
0.000223691
0.00672907
0.00555633
0.00965984
0.00672216
0.00673882
0.00484673
0.0131036
0.00510721
0.00635946
0.0115839
0.0012441
0.00734513
0.00111348
0.0067165
0.00671897
0.00236542
0.00209376
0.00672519
0.0100837
0.00825901
0.00671966
0.00841443
0.000289822
0.00461307
0.00301914
7.69725e-05
0.00672449
0.000436756
0.000386653
0.00672009
0.000729385
0.002683
0.000327988
0.00401889
0.00347568
0.000447347
3.10191e-05
0.000561965
0.00558014
0.00214982
0.00672209
0.00028479
0.0020053
0.0093834
0.00671821
0.0033676
0.000523134
0.0067258
0.000202454
0.00671779
0.00234608
0.00642108
0.00028241
0.000632872
0.000550071
0.000959988
0.00179478
0.00151476
0.000442466
0.000403373
0.00145524
0.00578651
0.00672378
0.00672292
0.00196722
0.00671885
0.000340107
0.00073992
0.000384353
0.00672028
0.00119685
0.00301302
0.0014867
0.00672054
0.000307758
0.00229238
0.00672756
0.00726597
0.0118574
0.00113604
0.00672262
0.00258535
0.000757699
0.00412085
0.000209637
8.63185e-05
0.00804537
0.000929029
0.00995114
0.00262339
0.00414363
0.00671962
0.0106779
0.00471956
0.00672228
6.34263e-05
0.00478069
0.00672357
0.00672279
0.00136301
0.00106867
0.00672357
8.17754e-05
0.00751313
0.00156266
0.00671881
0.00198036
0.00966776
0.00679293
0.000859151
0.00672618
0.0067199
0.00403359
0.00672956
0.000481644
0.00370558
0.0042572
0.00542205
0.00672631
0.000663615
0.00672212
0.00461484
0.00323559
0.00554149
0.000392145
0.000560024
0.000208752
0.00150512
0.00325063
0.00672371
0.00672457
0.00940816
0.00475659
0.000442191
0.000134249
0.00936329
0.00671983
0.00672186
0.0102791
0.00672224
0.000165172
0.000321567
0.00213668
0.0115578
0.0101513
0.000296749
0.0018295
0.000862946
0.000661122
0.00673106
0.000441827
0.00672099
0.000247005
0.00672325
0.0059377
0.000784747
2.65902e-05
0.000109692
4.3085e-05
0.00672204
0.00826265
0.00672346
0.0107693
0.000519179
0.00671895
0.00673339
0.00509766
0.000409606
0.00014515
0.0118308
0.000971667
0.00571209
0.00671829
0.00461408
0.00189019
7.05112e-05
0.000344006
0.00672283
0.00672236
0.000766258
2.53775e-05
0.00470287
0.000396131
8.69307e-05
0.00518803
0.00159894
0.00104476
0.000445479
6.60078e-05
0.00111565
6.95661e-05
0.00675007
0.0067226
0.00346737
0.000442506
0.000338538
0.000889889
0.00672635
0.00257564
0.00019459
0.000125502
0.00888331
0.00672662
0.00404854
0.00520059
0.000596388
0.00671701
0.00842517
0.0003664
0.00672081
0.000731998
0.00752903
0.00156537
0.00672047
0.000422239
0.00672571
0.0028898
0.000336795
0.00391922
0.00672601
0.00672324
7.31489e-05
0.00170969
0.00271827
0.000709286
0.00641289
0.000249224
0.00672542
0.00672718
0.000303312
0.00201483
0.00541996
0.00437633
0.000235915
0.00385246
0.000404513
0.00537547
0.00219745
0.00481331
0.00349397
0.0106296
0.00673775
0.00817887
0.000184212
0.00624591
0.00482175
0.000401271
9.2056e-05
0.00672653
0.000421593
0.00672069
2.18812e-05
0.00671526
0.000644364
0.00277847
0.00672784
0.00918444
0.00285564
0.00349391
0.00145168
0.0074227
0.00672246
0.0067222
0.00572833
0.00591243
0.00677945
0.00672237
0.00213799
0.00672301
0.0067235
0.00051074
0.00672336
0.000452045
0.00675442
7.99044e-05
0.00349054
6.62274e-05
0.007153
0.00151635
0.000510698
0.00672816
0.00671936
0.00299954
0.00330688
0.00833126
0.00376959
0.00672588
0.00672448
0.00103289
0.00672148
0.00031678
0.000581381
0.00993344
0.0128471
0.00393383
0.00829638
0.0067843
0.0083004
0.00726333
0.0120912
0.000636833
0.00216628
0.00113154
0.00673217
0.00558281
0.000423337
0.000427878
0.000858246
0.00346454
0.00672687
0.006716
0.00539957
0.000398782
0.00320906
0.00671532
0.0010797
0.00672215
0.00187227
0.00221856
0.00487575
0.00961609
0.00056544
0.000760303
0.00494136
0.000309878
0.00672266
0.00586408
0.00677541
0.00561321
0.00255635
0.00495511
0.000252606
0.007004
0.000266865
0.000338245
0.00149943
0.000462722
0.0024931
0.00170122
0.00411823
0.00725292
6.96049e-05
0.012911
6.22522e-05
0.000588655
0.000509073
0.00149262
0.00672829
0.000296867
0.00168876
0.00672303
0.00282258
0.00674064
0.0030457
0.0067242
0.0101284
0.000621166
0.00671955
0.00523293
0.00639199
0.00012434
0.000109399
0.00100243
0.00261343
0.00539476
0.00671889
0.00665375
0.0003845
0.000123592
0.00671475
0.0101521
0.000898069
0.0119031
0.00672073
0.00310759
0.000165721
0.00672715
0.00672299
0.00491452
0.00588253
0.0120682
0.00147287
0.00671943
0.00199932
0.00672077
0.0117892
0.00048912
0.00672278
0.000623364
0.00539962
0.00185018
0.00825781
0.00676678
0.00672903
0.00672263
0.00677777
0.00672805
0.00335485
0.00671388
0.00198445
0.000561106
0.000507313
0.00671944
0.00229798
0.00145155
0.0106247
0.00161789
0.000213401
0.0104052
0.0118662
0.00468889
0.000958283
0.00672061
0.00564609
0.00186298
0.000628564
0.00677221
0.000446036
0.00067759
0.00258706
0.000992367
0.0067203
0.00968193
0.000173546
0.00684046
0.00366349
0.000289675
0.00134268
0.00671807
0.000782101
0.000811124
0.00672798
0.00963542
0.00672241
0.00103066
0.00672107
0.000413962
0.000309066
0.000406051
0.000600459
0.00059533
0.000731059
0.000841344
0.00147295
0.00676265
0.0082216
0.000358696
0.00672572
0.000294296
0.000651786
0.000837436
0.00634253
0.00184302
0.00672323
0.00674684
0.0039572
0.00988834
0.0011836
0.00672248
0.00253501
0.00672267
0.00672155
0.000648545
0.010349
0.00205331
0.00247064
0.0103655
7.47622e-05
0.00403968
0.0024345
0.0117032
0.000533283
0.00671694
0.00135305
0.00289242
0.00315835
0.000828014
0.00169915
0.000641909
0.000382115
0.000106563
0.00436052
0.00783674
0.00672039
0.00973409
0.00672582
0.00133393
0.0107432
0.00672314
0.00544754
0.00672595
0.00122667
0.000372237
0.00671995
0.00112555
0.0026337
0.00144204
0.000262158
0.00143965
0.00672174
0.0101682
0.00673852
0.00049121
0.000457868
0.00062869
0.00672256
0.00507787
0.00999201
0.00671856
0.00672013
0.0019852
0.000370535
0.000572647
0.000287337
0.00080109
0.00672981
0.00123881
0.00243042
0.00160412
0.0127576
0.00672367
0.000310115
0.0119344
0.000416602
0.00622965
0.000335245
0.00676337
0.00672412
2.91761e-05
0.000264831
0.000338696
0.00672489
0.00670737
0.000652268
0.000552651
0.00386561
0.00202671
0.0050502
0.00252233
0.00671931
0.00383874
0.00984857
0.00671655
0.00766817
7.42606e-05
0.000938762
0.00672982
0.00442645
0.00879599
0.00675293
0.00672702
0.00573104
0.00196979
8.82934e-05
7.86132e-05
0.000497352
0.00672194
0.00121836
0.0004305
0.00672669
0.0102938
0.000255283
0.00491404
0.000485361
0.000501757
0.00672264
5.99885e-05
0.00672303
0.000132119
0.00161073
0.0010929
0.00671475
0.0047975
0.00029997
0.0032239
0.0126479
0.00106588
0.00332326
0.00351574
0.00672035
0.00673031
0.0121487
0.00672581
0.000237025
0.00671993
0.0067351
0.000395312
0.00747842
0.00672011
0.00672067
0.00443094
0.00163912
0.00072373
0.000876144
0.0067467
0.00201683
0.00671828
0.000292988
0.0128068
0.00202513
0.000871833
0.00775117
0.000623376
0.00216299
0.000536327
0.00672997
0.00389701
0.00152195
0.0067228
0.000763175
0.004162
0.00672919
0.00381847
0.0100498
0.00311539
0.000624855
0.0127329
0.000534187
0.00198744
0.00671944
0.00534974
0.00672589
0.000563924
0.00674069
0.000649397
0.000549457
0.00101515
0.00130682
0.00911958
0.000842034
0.00672451
0.00673989
0.00549397
0.00672075
0.000581169
0.00672034
0.000450319
0.00612809
0.000133533
0.000597114
0.00190984
0.00271931
0.0100315
5.53952e-05
0.00671882
0.000991648
0.00672238
0.00671816
0.00672814
0.000787676
0.00434497
0.00157526
0.00168225
4.98108e-05
0.00317364
0.00111587
0.00672098
0.000142054
0.00599456
0.00238343
0.00125996
0.0130598
0.00321435
0.000728615
0.000798071
0.0067292
0.00218555
0.00601007
0.00298737
0.00672713
0.00672679
0.000960458
0.00672014
0.00672636
0.000571413
0.00109778
6.6319e-05
0.00281734
0.00672073
0.00684244
0.00672087
0.000256251
0.00569134
0.00671695
0.000854205
0.00672714
0.0117086
0.00465544
0.000762696
0.00621207
5.23772e-05
0.000532125
0.00555007
3.04323e-05
0.00672266
0.000214912
0.00234104
0.00105319
0.0067247
0.00672033
0.00034554
0.000341188
0.00976623
0.000615147
0.000218476
0.000838937
0.00292231
0.000611915
0.00222604
0.0123789
0.0102185
0.00818839
0.00619403
0.00671417
0.00446037
0.00715726
0.00672272
0.00444248
0.0067228
0.000881232
0.00671451
0.00401446
0.00448745
0.00483808
0.00033017
0.00018633
0.000413574
0.0052402
0.00672433
0.00671672
0.0067195
0.00671811
0.0067254
0.00672128
0.0104879
0.00853512
0.00862902
0.00120201
0.00846572
0.000421121
0.0117395
0.00822459
0.00044986
0.00672204
0.001935
8.30732e-05
0.00174971
0.00582233
0.00295922
0.00176275
0.00671752
0.00170059
0.0094232
0.00672277
0.0115652
0.00468889
0.00672234
0.0116248
0.00672812
0.000389892
0.00672306
0.00784573
0.00675618
0.00511332
0.000272141
0.00674269
0.00672304
0.0042594
0.0067187
9.01732e-05
0.00609493
0.000368613
0.00672132
0.00672424
0.00672692
0.00291911
0.000509817
0.00213406
0.0125693
0.00672256
0.00675077
0.000550969
8.00378e-05
0.00233019
0.0115002
0.00936025
0.000890844
0.00859963
0.00672195
0.0034246
0.000856591
0.00675221
0.00887629
0.00860786
0.00671797
0.00201737
0.00519382
0.00215684
0.000561073
0.000752259
0.00672286
0.000473908
0.00022058
0.000545225
0.000839411
0.00672045
0.00250426
0.00601625
0.0067237
0.00496083
0.00671405
0.00672314
0.000588438
0.00342166
0.000600701
0.0120298
0.00672022
0.000203319
0.00391002
0.00354746
0.00251909
0.00672647
0.00672297
0.00672438
0.00672247
0.0067232
0.00173395
0.00302636
0.00290029
0.00672576
0.0019882
0.0120057
0.0028895
0.0021571
0.00863472
0.00672413
0.00069727
0.00630514
0.000605956
0.0116715
0.000254023
0.0112353
0.0005898
0.00333067
0.00543754
0.000746768
0.00553613
0.000347422
0.00117761
0.00672453
0.00523137
0.00237417
0.00674493
0.000323644
0.00541317
0.00674345
0.00619817
0.000252367
0.00671985
0.00442906
0.00674013
0.00320143
0.00920201
0.00221731
0.00672225
0.00495012
0.00672303
0.00134986
0.000175591
0.00156906
0.000259461
0.000197144
0.00672372
0.0112283
0.00108225
0.00561424
0.00634523
0.00674672
0.00205367
0.00672033
0.0020563
0.00178068
0.0090987
0.00401709
0.00671985
0.00167972
0.00233631
0.000738939
0.00673041
0.00978001
0.000491136
0.000186203
0.000908636
0.00978353
0.000544847
0.00115829
0.00543279
0.00301968
0.00672161
0.00126621
0.00997692
0.002235
0.000355717
0.00338129
0.00672018
0.000314692
0.00024146
0.00121322
0.0067265
0.000247217
0.00673044
0.000255207
0.000232338
0.0005806
0.00908606
0.00672123
0.000564395
0.000503767
0.00376025
0.000284295
0.00536025
0.00169049
7.50297e-05
0.000309703
0.00548969
0.00672633
0.00672466
0.000395433
0.00671888
0.00363952
0.00562911
0.00672169
0.006755
0.000218563
0.00671486
0.000369763
0.00974091
0.00163616
0.00673819
0.00674698
0.000275964
0.000259038
0.00672269
0.00575004
0.000123254
0.0067292
0.0067171
0.0118382
0.00975436
0.00671903
0.000486983
0.000230375
0.00672326
0.00356444
0.0037628
0.000285788
0.00672475
0.00264539
0.00967062
0.00672531
0.000823469
0.0081619
0.000510483
0.00700709
0.00672492
0.000671153
0.010551
0.00787916
0.00119371
0.000592768
0.00148976
0.000686636
0.00275949
0.00496795
0.00972746
0.00910777
0.0025575
0.00312953
0.000652909
0.0042701
0.000270253
0.000964441
0.00296073
0.00675666
0.00672362
0.00546422
0.00432791
0.00671904
0.000531425
0.00942764
0.000442645
0.00672714
0.00672241
0.00140777
0.00111362
0.0011854
0.00672287
0.000684017
0.00696194
0.00671875
0.00418473
0.000795805
0.000372426
0.00672249
0.000579762
0.0017564
0.00105771
0.000689239
0.000422578
0.00893133
0.000504692
0.000164548
0.0066701
0.00671905
0.00413399
0.00142137
0.0127681
0.0010231
0.000628841
0.00672439
0.00877634
0.00066538
0.0067304
0.000805068
0.00190933
0.00993273
0.000409312
0.000829195
0.000187412
0.000581761
0.00672292
0.00672389
0.0067249
0.00130492
0.00891949
0.00122327
0.00672266
0.000290443
0.00465599
0.012638
0.00506228
0.0130775
0.000883088
0.0119012
0.000582063
0.000143679
0.0042378
0.00672564
0.00671907
0.00940521
0.00427563
0.000981209
0.00472478
0.00671436
0.00376603
0.000321778
0.00515792
0.00100724
0.00672001
0.00490919
0.00649624
0.00110462
0.00539527
0.0058914
0.00672556
0.00144119
0.00162471
0.00182861
0.00368376
0.00511826
0.00101349
0.000438986
0.0023344
0.000277446
0.000226939
3.57879e-05
0.000400394
0.00673897
0.00379432
0.00150615
0.00954999
0.00542763
0.00672145
0.00672856
0.0067414
0.00671439
0.00376162
0.00671873
0.000212953
0.00874874
0.000824938
0.00961374
0.000700683
0.00672408
0.00672269
0.000100708
0.00672421
0.00236918
0.00672227
0.00640593
0.00179545
0.00671907
0.00268386
0.0067317
0.00625955
0.00672588
0.00672282
0.0064348
0.00028315
0.00191129
0.00503612
0.000288455
0.00673061
0.000931854
0.000622786
0.000814452
0.000314861
0.00176788
0.00672271
0.00885572
0.00277702
0.00112317
0.00196762
0.00673982
0.000341394
0.00672132
0.0130703
0.00673891
0.0057944
0.00960049
0.000426173
0.00202121
0.0067186
0.000409651
0.000236098
0.000362057
0.00979242
0.0067188
0.00673838
0.00674079
0.000133908
0.0012202
0.000714865
0.00672349
0.00102177
0.00707949
0.000341009
0.00672437
0.000134642
0.000561586
0.00386408
0.000941196
0.00224578
0.00163552
0.00196887
0.00598958
0.00236693
0.011612
0.00675036
0.00053957
0.00571408
0.000138789
0.00964541
0.00870651
0.00444658
8.12269e-05
0.00672447
0.000644789
0.00672471
0.00195808
0.000989347
0.000327619
0.00029568
0.00672185
0.000675311
0.00186264
0.00031819
0.000479522
0.0127381
0.00672274
0.00226283
0.00685981
0.000242261
0.00524883
0.00112099
0.0117609
0.000585184
0.00672038
0.000181062
0.00355261
0.00770408
0.006728
0.0102056
0.00060604
0.00677007
0.000249049
0.00257974
0.00672591
0.00287213
0.000572352
0.00671879
0.00182339
0.0067182
0.00266741
0.000338442
0.000355521
0.00196386
0.00811965
0.00672572
9.49235e-05
0.000324739
0.00212959
0.000921216
0.00180045
0.00315761
0.00672463
0.00925328
0.00831201
0.00344531
0.0067553
0.00066586
0.00672267
0.0102476
0.0067219
0.000480013
0.00786511
0.00310807
8.68365e-05
0.00355187
0.000573384
0.0078683
0.000670227
0.00672284
0.00672268
0.00672378
0.0128429
0.000647023
0.000290192
0.0124133
0.00283974
0.00672404
0.00740077
0.000369876
0.000301049
0.00672339
0.00586536
0.00543455
0.000621644
0.00300222
0.00111927
0.00675968
0.00672266
0.00671868
0.00853722
0.00771283
0.000935511
0.000267928
0.00144259
0.000578943
0.00672502
0.00672235
0.000562091
0.002688
0.00672829
0.000575007
0.000157711
0.00114473
0.000236643
0.00280738
0.000540855
0.0126856
0.00243572
0.00678326
0.00297468
0.0127296
0.000319634
0.000145777
0.000530816
0.00611817
0.00475419
6.89683e-05
0.00159266
0.000457621
0.00737073
0.000419914
0.0101288
0.00696841
0.00751472
0.000680361
0.00183622
0.00671984
0.000417166
0.0118299
0.00672267
0.000307467
0.00628164
0.00672248
0.000430697
0.000215181
0.00047779
0.00630226
0.00102937
0.00224909
0.00672243
0.0067739
2.45579e-05
0.00275534
0.00208258
0.0019997
0.00671946
0.0067235
0.0029689
0.00515799
0.0067268
0.000767839
0.000483849
0.00104327
0.0067226
0.000325195
0.00532175
0.00969165
0.00121191
0.00488313
0.000742502
0.000182387
0.000230547
0.00319044
4.73467e-05
0.00023961
0.00673744
0.00614871
0.00184978
0.00145304
0.000410838
0.00874547
0.00672433
0.000551566
0.000247949
0.000280165
0.00393988
0.000375502
0.0102825
0.000401375
0.00933717
0.000505894
0.009097
0.000806056
0.0060876
0.00244273
0.0119029
0.0094459
0.000456633
0.00250995
0.00619373
0.00613918
0.00949681
0.00672153
0.00671742
0.000430199
0.000511053
0.00760879
0.00243284
0.000201559
0.00671767
0.00474826
0.00672433
0.00806209
0.000563606
0.00894266
0.00184531
0.00200972
0.000288161
0.00799395
0.00120835
0.00929701
0.00672648
0.00672397
0.000636465
0.0067232
0.00952734
0.000267107
0.0102107
0.00271797
0.00640717
0.00311969
0.00671464
0.000259113
0.00777902
0.000147513
0.00671757
0.00178395
0.00672084
0.0108595
0.00671463
0.00181105
0.0105565
0.00106023
0.000155753
0.000469503
0.00671714
0.00200547
0.000325833
0.0033558
0.00675699
0.00671828
0.00103459
0.00568653
4.74799e-05
0.00672419
7.58544e-05
0.00598667
0.00672268
0.0064897
0.00559901
0.00682131
0.00482231
0.00672277
0.000416515
0.00566135
0.00672926
0.00672313
0.00239079
0.000887406
0.000910118
0.00671815
0.00773359
0.00318471
0.0103546
0.00672038
0.00821388
0.00438467
0.000607074
0.00598877
0.000294821
0.000322904
4.49489e-05
0.00860598
0.000156382
0.00229892