/*--------------------------------*- C++ -*----------------------------------*\
| =========                 |                                                 |
| \\      /  F ield         | OpenFOAM: The Open Source CFD Toolbox           |
|  \\    /   O peration     | Version:  v2012                                 |
|   \\  /    A nd           | Website:  www.openfoam.com                      |
|    \\/     M anipulation  |                                                 |
\*---------------------------------------------------------------------------*/
FoamFile
{
    version     2.0;
    format      ascii;
    class       volVectorField;
    location    "250";
    object      cellDisplacement;
}
// * * * * * * * * * * * * * * * * * * * * * * * * * * * * * * * * * * * * * //

dimensions      [0 1 0 0 0 0 0];


internalField   nonuniform List<vector> 
18758
(
(0 0.00507427 0)
(0 0.00328241 0)
(0 0.000349352 0)
(0 0.00502663 0)
(0 0.0129834 0)
(0 5.45807e-05 0)
(0 0.0105586 0)
(0 0.0156025 0)
(0 0.0129777 0)
(0 0.0130745 0)
(0 0.00312356 0)
(0 0.00775271 0)
(0 0.0139091 0)
(0 0.0158957 0)
(0 0.0101983 0)
(0 0.00573352 0)
(0 0.00765561 0)
(0 1.67404e-05 0)
(0 0.00992246 0)
(0 0.0151456 0)
(0 0.00854164 0)
(0 0.0174314 0)
(0 4.83091e-05 0)
(0 0.000126298 0)
(0 0.0174327 0)
(0 0.0173779 0)
(0 0.0140397 0)
(0 0.0170181 0)
(0 0.0172511 0)
(0 0.00338673 0)
(0 0.0164706 0)
(0 0.0141044 0)
(0 0.0155159 0)
(0 0.0174279 0)
(0 0.0128998 0)
(0 0.00333051 0)
(0 0.013998 0)
(0 0.0128768 0)
(0 0.0152137 0)
(0 0.000193985 0)
(0 0.00308804 0)
(0 0.0133577 0)
(0 0.00283909 0)
(0 0.00612824 0)
(0 0.00198708 0)
(0 0.0164417 0)
(0 0.0133301 0)
(0 0.017223 0)
(0 0.0174438 0)
(0 0.00483653 0)
(0 0.00310142 0)
(0 0.0173731 0)
(0 0.00478889 0)
(0 0.0141842 0)
(0 0.0174005 0)
(0 0.013845 0)
(0 0.00319731 0)
(0 0.0150592 0)
(0 0.0171941 0)
(0 0.00312675 0)
(0 0.0017457 0)
(0 0.00602539 0)
(0 0.0156868 0)
(0 0.0170693 0)
(0 0.00152651 0)
(0 0.0174397 0)
(0 0.00114223 0)
(0 0.00100187 0)
(0 0.0169994 0)
(0 3.36236e-05 0)
(0 0.0173723 0)
(0 0.017379 0)
(0 0.0103505 0)
(0 0.0157632 0)
(0 0.0162944 0)
(0 0.0165003 0)
(0 0.0159612 0)
(0 0.00746501 0)
(0 0.0130873 0)
(0 0.00277949 0)
(0 0.0173414 0)
(0 0.0151888 0)
(0 0.00750841 0)
(0 0.0162339 0)
(0 0.00659896 0)
(0 0.0173899 0)
(0 0.0167021 0)
(0 0.0157914 0)
(0 0.0156807 0)
(0 0.0173898 0)
(0 0.0173825 0)
(0 0.0013307 0)
(0 0.0173107 0)
(0 0.0174442 0)
(0 0.0101254 0)
(0 0.00408818 0)
(0 0.000134886 0)
(0 0.0171826 0)
(0 0.00746111 0)
(0 0.00933314 0)
(0 0.0164772 0)
(0 0.0154794 0)
(0 0.000974368 0)
(0 0.00395058 0)
(0 0.0174383 0)
(0 0.00863267 0)
(0 0.0172356 0)
(0 0.0173835 0)
(0 0.0158532 0)
(0 0.0118279 0)
(0 0.00570395 0)
(0 0.017078 0)
(0 0.010507 0)
(0 0.000678484 0)
(0 0.0154459 0)
(0 0.0170975 0)
(0 0.0171672 0)
(0 0.00273556 0)
(0 0.0171364 0)
(0 0.00689456 0)
(0 0.00093139 0)
(0 0.0159502 0)
(0 0.00668771 0)
(0 0.0040147 0)
(0 0.0174461 0)
(0 0.0142487 0)
(0 0.00598121 0)
(0 0.00401257 0)
(0 0.0173149 0)
(0 0.0174509 0)
(0 0.0172088 0)
(0 0.00100974 0)
(0 0.0164665 0)
(0 0.0174298 0)
(0 0.000165099 0)
(0 0.00103755 0)
(0 0.0160569 0)
(0 0.00680264 0)
(0 0.0171704 0)
(0 0.0173335 0)
(0 0.0105033 0)
(0 0.00527498 0)
(0 0.0171525 0)
(0 0.015876 0)
(0 0.0174468 0)
(0 0.017249 0)
(0 0.0174382 0)
(0 0.0173075 0)
(0 0.00318462 0)
(0 0.0172597 0)
(0 0.0174507 0)
(0 0.0174502 0)
(0 0.0137367 0)
(0 0.0127488 0)
(0 0.00303706 0)
(0 0.0168202 0)
(0 0.0173017 0)
(0 0.017322 0)
(0 0.0161371 0)
(0 0.00322215 0)
(0 0.0173071 0)
(0 0.00455876 0)
(0 0.0174482 0)
(0 0.0174369 0)
(0 0.0163882 0)
(0 0.00295205 0)
(0 0.00446608 0)
(0 0.0173195 0)
(0 0.0174507 0)
(0 0.00788901 0)
(0 0.0174501 0)
(0 0.00024175 0)
(0 0.0172595 0)
(0 3.15591e-05 0)
(0 0.0157923 0)
(0 0.00915194 0)
(0 0.0100047 0)
(0 0.0173826 0)
(0 0.0174252 0)
(0 0.0154778 0)
(0 0.000756911 0)
(0 0.0144456 0)
(0 0.0173955 0)
(0 0.0160025 0)
(0 0.0172558 0)
(0 0.00962002 0)
(0 0.00342907 0)
(0 0.0149747 0)
(0 0.0174437 0)
(0 0.0163708 0)
(0 0.0174505 0)
(0 0.00951732 0)
(0 0.0169584 0)
(0 0.0160478 0)
(0 0.000453876 0)
(0 0.0158969 0)
(0 0.0171736 0)
(0 0.0135913 0)
(0 0.0174427 0)
(0 0.000201959 0)
(0 0.00430892 0)
(0 0.0173245 0)
(0 0.0162745 0)
(0 0.00472785 0)
(0 0.0060647 0)
(0 0.0174475 0)
(0 0.00735595 0)
(0 0.012847 0)
(0 0.0174509 0)
(0 0.0174512 0)
(0 0.000149867 0)
(0 0.0173022 0)
(0 0.0043854 0)
(0 0.0102717 0)
(0 0.0148782 0)
(0 0.00015725 0)
(0 0.00212699 0)
(0 0.0172973 0)
(0 7.1263e-05 0)
(0 0.0031923 0)
(0 0.0160206 0)
(0 0.00441799 0)
(0 0.0171382 0)
(0 0.0173204 0)
(0 0.0163063 0)
(0 0.000304928 0)
(0 0.0162794 0)
(0 0.0173992 0)
(0 0.0173146 0)
(0 0.00723811 0)
(0 0.0173733 0)
(0 0.0172384 0)
(0 0.0157753 0)
(0 0.000886859 0)
(0 0.0048227 0)
(0 0.00450878 0)
(0 0.0165457 0)
(0 0.0174443 0)
(0 0.0171759 0)
(0 0.0147308 0)
(0 0.00655245 0)
(0 0.0165203 0)
(0 0.0171639 0)
(0 0.000228385 0)
(0 0.0172633 0)
(0 0.0172832 0)
(0 0.00472067 0)
(0 0.0037898 0)
(0 0.00314501 0)
(0 0.00946163 0)
(0 0.0174497 0)
(0 0.00627006 0)
(0 0.000154244 0)
(0 0.00451603 0)
(0 2.16735e-05 0)
(0 0.0172107 0)
(0 0.00300941 0)
(0 0.0173795 0)
(0 0.00279031 0)
(0 0.0147659 0)
(0 0.0106087 0)
(0 0.00412131 0)
(0 0.00486646 0)
(0 0.0169403 0)
(0 0.0167823 0)
(0 0.0167591 0)
(0 0.00421843 0)
(0 0.0171771 0)
(0 0.0138234 0)
(0 0.011535 0)
(0 0.0171072 0)
(0 0.0173996 0)
(0 0.0114823 0)
(0 0.0068671 0)
(0 0.000366782 0)
(0 0.0147847 0)
(0 0.0165066 0)
(0 7.60906e-05 0)
(0 0.0103945 0)
(0 0.0158765 0)
(0 0.0036667 0)
(0 0.000932607 0)
(0 0.00625744 0)
(0 0.0174353 0)
(0 0.0103157 0)
(0 0.00675074 0)
(0 5.62188e-05 0)
(0 0.0171705 0)
(0 0.0041864 0)
(0 0.00400744 0)
(0 0.000165081 0)
(0 0.0155205 0)
(0 0.00320986 0)
(0 0.000324696 0)
(0 0.000191126 0)
(0 0.00325842 0)
(0 0.000332663 0)
(0 0.000990503 0)
(0 0.000106334 0)
(0 0.0174436 0)
(0 0.0164488 0)
(0 0.000602638 0)
(0 0.000633891 0)
(0 0.0154385 0)
(0 0.00275708 0)
(0 0.000736151 0)
(0 0.00792515 0)
(0 0.00870493 0)
(0 0.00602576 0)
(0 0.0137467 0)
(0 0.00646808 0)
(0 0.0167429 0)
(0 0.0171815 0)
(0 0.0171281 0)
(0 0.0172558 0)
(0 0.0174299 0)
(0 0.000898777 0)
(0 0.0155344 0)
(0 0.0173234 0)
(0 0.00118309 0)
(0 0.0171146 0)
(0 0.0161569 0)
(0 0.0172463 0)
(0 0.00597932 0)
(0 0.000925593 0)
(0 0.0174511 0)
(0 0.000133389 0)
(0 0.00586403 0)
(0 0.0174457 0)
(0 0.0165101 0)
(0 0.0102499 0)
(0 0.0174277 0)
(0 0.00568247 0)
(0 0.00300878 0)
(0 0.00304877 0)
(0 0.000747869 0)
(0 0.0136814 0)
(0 0.00428079 0)
(0 0.0156528 0)
(0 0.0075936 0)
(0 0.0136464 0)
(0 0.0148042 0)
(0 0.0169666 0)
(0 0.0154342 0)
(0 0.00682943 0)
(0 0.015487 0)
(0 0.00736833 0)
(0 0.00571481 0)
(0 0.0170113 0)
(0 0.0027344 0)
(0 0.0174361 0)
(0 0.00516425 0)
(0 0.0171034 0)
(0 0.00942018 0)
(0 0.0174473 0)
(0 0.0148796 0)
(0 0.0147351 0)
(0 0.0147446 0)
(0 0.0101364 0)
(0 0.0105076 0)
(0 0.00611773 0)
(0 0.0171833 0)
(0 0.0160225 0)
(0 0.00505288 0)
(0 0.0162877 0)
(0 0.0160538 0)
(0 0.00494824 0)
(0 0.0166824 0)
(0 0.0145317 0)
(0 0.0171659 0)
(0 0.0174447 0)
(0 0.0171088 0)
(0 0.0157112 0)
(0 0.0168178 0)
(0 0.00311688 0)
(0 0.0170957 0)
(0 1.50839e-05 0)
(0 0.0174395 0)
(0 0.0173147 0)
(0 0.00293947 0)
(0 0.00498748 0)
(0 0.00140381 0)
(0 0.000120847 0)
(0 0.0174328 0)
(0 0.0050954 0)
(0 0.00665529 0)
(0 0.0171013 0)
(0 0.0174464 0)
(0 0.0147993 0)
(0 0.00779684 0)
(0 0.0117308 0)
(0 0.00584356 0)
(0 0.0157661 0)
(0 0.0146531 0)
(0 0.00594803 0)
(0 0.00088779 0)
(0 0.0106207 0)
(0 0.0107635 0)
(0 0.000677707 0)
(0 0.000251005 0)
(0 0.00301706 0)
(0 0.0164083 0)
(0 0.0150714 0)
(0 0.0169018 0)
(0 0.0163489 0)
(0 0.0163555 0)
(0 0.0174468 0)
(0 0.0150451 0)
(0 0.0172854 0)
(0 0.00320103 0)
(0 0.000103672 0)
(0 0.00287204 0)
(0 0.0157521 0)
(0 0.014717 0)
(0 0.0159665 0)
(0 0.0171498 0)
(0 0.0113518 0)
(0 0.00306534 0)
(0 0.016954 0)
(0 0.00192565 0)
(0 0.0164827 0)
(0 0.000606623 0)
(0 0.0174415 0)
(0 0.0167648 0)
(0 0.00520285 0)
(0 0.000203212 0)
(0 0.0174282 0)
(0 0.0173112 0)
(0 0.00239709 0)
(0 0.00585592 0)
(0 0.000130303 0)
(0 0.0156958 0)
(0 0.00015126 0)
(0 0.000340863 0)
(0 0.0164272 0)
(0 0.0169212 0)
(0 0.014778 0)
(0 0.00976565 0)
(0 0.0154459 0)
(0 0.0159872 0)
(0 0.017105 0)
(0 0.0150602 0)
(0 1.89608e-05 0)
(0 0.0174402 0)
(0 0.000584759 0)
(0 0.00432266 0)
(0 0.0173966 0)
(0 0.00573714 0)
(0 0.016432 0)
(0 2.01983e-05 0)
(0 0.0160079 0)
(0 0.00032712 0)
(0 0.0170985 0)
(0 0.00330687 0)
(0 0.0105552 0)
(0 0.0174448 0)
(0 0.00281746 0)
(0 5.71722e-05 0)
(0 0.016658 0)
(0 0.012057 0)
(0 0.00510734 0)
(0 0.000481128 0)
(0 0.0016335 0)
(0 0.0167748 0)
(0 0.0173867 0)
(0 0.0142792 0)
(0 0.0169201 0)
(0 0.0160519 0)
(0 0.0173785 0)
(0 0.00367561 0)
(0 0.0172714 0)
(0 0.00363304 0)
(0 0.00255435 0)
(0 0.0172765 0)
(0 0.0165356 0)
(0 0.0161606 0)
(0 0.0154642 0)
(0 0.00321739 0)
(0 0.00725052 0)
(0 0.0103847 0)
(0 0.000682832 0)
(0 0.010707 0)
(0 0.00454199 0)
(0 0.00530148 0)
(0 0.00442472 0)
(0 0.00351486 0)
(0 0.0135101 0)
(0 0.000431393 0)
(0 0.00047429 0)
(0 0.0173158 0)
(0 0.0010687 0)
(0 0.000303969 0)
(0 0.000268267 0)
(0 0.0119778 0)
(0 0.00716879 0)
(0 0.00849929 0)
(0 0.0074755 0)
(0 0.00303991 0)
(0 1.17857e-05 0)
(0 0.0168931 0)
(0 0.017365 0)
(0 0.0173954 0)
(0 0.0168476 0)
(0 0.00260689 0)
(0 0.00955633 0)
(0 0.0173906 0)
(0 0.01743 0)
(0 0.00446516 0)
(0 0.00312665 0)
(0 0.0150022 0)
(0 0.0174369 0)
(0 4.48267e-05 0)
(0 1.10608e-05 0)
(0 0.0172861 0)
(0 0.0149487 0)
(0 0.0173332 0)
(0 0.00440586 0)
(0 0.00585402 0)
(0 0.0169067 0)
(0 0.00398356 0)
(0 0.00866652 0)
(0 0.00128966 0)
(0 6.11152e-05 0)
(0 0.00710822 0)
(0 0.00167635 0)
(0 0.00708185 0)
(0 0.000651089 0)
(0 0.0112418 0)
(0 0.0160167 0)
(0 4.53531e-05 0)
(0 0.000669618 0)
(0 0.000314254 0)
(0 0.0165913 0)
(0 0.0150874 0)
(0 0.0151138 0)
(0 0.00944183 0)
(0 0.016386 0)
(0 0.0163911 0)
(0 0.016112 0)
(0 0.00527708 0)
(0 0.00296026 0)
(0 0.0032045 0)
(0 0.0143797 0)
(0 0.0143023 0)
(0 0.0174349 0)
(0 0.0172669 0)
(0 0.00346928 0)
(0 0.00699027 0)
(0 0.0154276 0)
(0 0.0173277 0)
(0 0.000646093 0)
(0 0.000138627 0)
(0 0.00304661 0)
(0 0.00049914 0)
(0 0.00651745 0)
(0 0.00517766 0)
(0 0.0144431 0)
(0 0.00536991 0)
(0 0.0171926 0)
(0 0.00933671 0)
(0 0.000187361 0)
(0 0.0167627 0)
(0 0.0173976 0)
(0 0.0101665 0)
(0 0.00607408 0)
(0 0.00938226 0)
(0 0.00022176 0)
(0 0.00918356 0)
(0 0.00690153 0)
(0 0.0113461 0)
(0 0.0028676 0)
(0 0.0154963 0)
(0 0.0121859 0)
(0 0.00927005 0)
(0 0.0170348 0)
(0 0.00600099 0)
(0 0.000170129 0)
(0 0.0172419 0)
(0 6.63832e-05 0)
(0 6.36786e-05 0)
(0 0.0122207 0)
(0 0.000379518 0)
(0 0.0159407 0)
(0 0.016243 0)
(0 0.000580069 0)
(0 0.00953995 0)
(0 0.0174426 0)
(0 0.00268203 0)
(0 0.0133887 0)
(0 0.0026226 0)
(0 0.000365863 0)
(0 0.000317445 0)
(0 0.0162005 0)
(0 0.0155406 0)
(0 0.01504 0)
(0 0.00897139 0)
(0 0.014842 0)
(0 0.0121386 0)
(0 0.00360106 0)
(0 0.00426751 0)
(0 0.0174432 0)
(0 0.00038796 0)
(0 0.000139796 0)
(0 0.00935143 0)
(0 0.00460867 0)
(0 0.0163926 0)
(0 0.0168428 0)
(0 0.00477007 0)
(0 0.0159233 0)
(0 0.00679678 0)
(0 0.0170034 0)
(0 0.0149566 0)
(0 0.00438583 0)
(0 0.00801134 0)
(0 0.0164544 0)
(0 0.0174452 0)
(0 0.0164697 0)
(0 0.0101921 0)
(0 0.00593665 0)
(0 0.0045534 0)
(0 0.0171318 0)
(0 0.00039104 0)
(0 0.00605078 0)
(0 0.000662409 0)
(0 0.00518945 0)
(0 0.0164062 0)
(0 0.0150266 0)
(0 0.000121379 0)
(0 0.0122565 0)
(0 0.0100791 0)
(0 0.0122583 0)
(0 0.00946535 0)
(0 0.00315678 0)
(0 0.0112047 0)
(0 0.0174351 0)
(0 0.000242062 0)
(0 0.0171229 0)
(0 0.0174504 0)
(0 0.0174365 0)
(0 9.37137e-05 0)
(0 3.77426e-05 0)
(0 0.016214 0)
(0 0.00376707 0)
(0 0.000366401 0)
(0 0.00267501 0)
(0 0.0104445 0)
(0 0.000705628 0)
(0 0.016923 0)
(0 0.00223435 0)
(0 0.0143544 0)
(0 0.0061329 0)
(0 0.00389767 0)
(0 0.00594838 0)
(0 0.0150805 0)
(0 0.0172305 0)
(0 0.00669205 0)
(0 0.0101591 0)
(0 0.00664304 0)
(0 0.0171274 0)
(0 0.000159067 0)
(0 0.0171272 0)
(0 0.00702705 0)
(0 0.0105129 0)
(0 0.0160214 0)
(0 0.00622959 0)
(0 0.00618787 0)
(0 0.0160482 0)
(0 6.26226e-05 0)
(0 6.50066e-05 0)
(0 0.0167889 0)
(0 0.0154555 0)
(0 0.0141136 0)
(0 0.000657207 0)
(0 0.0174402 0)
(0 0.0174459 0)
(0 0.0146703 0)
(0 0.00460065 0)
(0 0.00795008 0)
(0 0.0163998 0)
(0 0.0158824 0)
(0 0.0155179 0)
(0 0.0171373 0)
(0 0.0133645 0)
(0 0.00729279 0)
(0 0.000186842 0)
(0 0.0171263 0)
(0 0.0172615 0)
(0 0.000766664 0)
(0 0.0167685 0)
(0 0.0159329 0)
(0 0.0134808 0)
(0 0.0155374 0)
(0 0.0145379 0)
(0 0.000478864 0)
(0 0.0147934 0)
(0 0.00325574 0)
(0 0.0149008 0)
(0 0.0164075 0)
(0 0.00673373 0)
(0 0.0171069 0)
(0 0.0121799 0)
(0 0.0114293 0)
(0 0.0167491 0)
(0 0.000515496 0)
(0 0.000155419 0)
(0 0.00635273 0)
(0 0.00533607 0)
(0 0.0172532 0)
(0 0.00319292 0)
(0 0.0105021 0)
(0 0.00482335 0)
(0 0.0173148 0)
(0 0.0173387 0)
(0 0.00949037 0)
(0 0.0115435 0)
(0 0.0169044 0)
(0 0.0116321 0)
(0 0.00380598 0)
(0 0.0164377 0)
(0 0.0150373 0)
(0 0.0155367 0)
(0 0.0111899 0)
(0 0.00042429 0)
(0 0.0173125 0)
(0 0.000530739 0)
(0 0.0173484 0)
(0 0.0173273 0)
(0 0.0155334 0)
(0 0.0173773 0)
(0 0.0002061 0)
(0 0.010262 0)
(0 0.0154952 0)
(0 0.0171205 0)
(0 0.016429 0)
(0 0.0113884 0)
(0 0.00293502 0)
(0 7.12278e-05 0)
(0 0.00475897 0)
(0 0.00128388 0)
(0 0.0154967 0)
(0 0.0116965 0)
(0 0.0146234 0)
(0 0.0174073 0)
(0 0.00493879 0)
(0 0.00619103 0)
(0 0.0130278 0)
(0 0.0154997 0)
(0 0.00426688 0)
(0 0.00925791 0)
(0 0.00312988 0)
(0 0.0174165 0)
(0 0.00455098 0)
(0 0.00413042 0)
(0 0.00132848 0)
(0 0.0170944 0)
(0 0.0168142 0)
(0 0.0101215 0)
(0 0.00392218 0)
(0 0.00788349 0)
(0 0.0145684 0)
(0 0.0115993 0)
(0 0.0169131 0)
(0 0.00751155 0)
(0 0.00412522 0)
(0 0.0171382 0)
(0 0.0152177 0)
(0 0.00034848 0)
(0 0.00474515 0)
(0 0.0113251 0)
(0 0.0164241 0)
(0 0.0037535 0)
(0 0.00264645 0)
(0 0.0166693 0)
(0 0.0114829 0)
(0 0.0171488 0)
(0 0.00473022 0)
(0 0.0174319 0)
(0 0.00138082 0)
(0 0.016469 0)
(0 0.0172373 0)
(0 0.0136017 0)
(0 0.0171094 0)
(0 8.67325e-05 0)
(0 0.0110684 0)
(0 0.00302006 0)
(0 0.00786102 0)
(0 0.0158934 0)
(0 0.00439219 0)
(0 0.00932498 0)
(0 0.0157913 0)
(0 0.0174512 0)
(0 0.00487273 0)
(0 0.00452493 0)
(0 0.00665619 0)
(0 0.0146908 0)
(0 0.0129 0)
(0 0.00613028 0)
(0 0.00941164 0)
(0 0.000529542 0)
(0 0.00364583 0)
(0 0.00663811 0)
(0 0.00982024 0)
(0 0.00300496 0)
(0 0.00428664 0)
(0 0.0172905 0)
(0 0.0168885 0)
(0 0.0169892 0)
(0 0.017242 0)
(0 0.00526603 0)
(0 0.0174189 0)
(0 0.00938149 0)
(0 0.00945911 0)
(0 0.0147269 0)
(0 0.00446404 0)
(0 0.00532293 0)
(0 0.000809055 0)
(0 0.000556397 0)
(0 0.0147245 0)
(0 0.017082 0)
(0 0.0173688 0)
(0 0.015188 0)
(0 0.00205092 0)
(0 0.00879171 0)
(0 0.0164355 0)
(0 0.0163623 0)
(0 0.0169226 0)
(0 0.000109956 0)
(0 0.0100601 0)
(0 0.00258852 0)
(0 0.0174319 0)
(0 0.0160165 0)
(0 0.012089 0)
(0 0.000922377 0)
(0 0.0172474 0)
(0 0.0172959 0)
(0 0.00467945 0)
(0 0.0174511 0)
(0 0.0145967 0)
(0 0.0144607 0)
(0 0.000337121 0)
(0 0.000163926 0)
(0 0.0174229 0)
(0 0.0133692 0)
(0 0.000965947 0)
(0 0.0171003 0)
(0 0.0146459 0)
(0 0.00854052 0)
(0 0.000217133 0)
(0 0.0116517 0)
(0 0.00641031 0)
(0 0.00908704 0)
(0 0.00597599 0)
(0 0.00965272 0)
(0 0.0105914 0)
(0 0.0122711 0)
(0 0.0167108 0)
(0 0.0107932 0)
(0 0.0134326 0)
(0 0.0122484 0)
(0 0.0174334 0)
(0 0.00976618 0)
(0 0.00328192 0)
(0 0.0174028 0)
(0 0.0136076 0)
(0 0.00469164 0)
(0 0.00448639 0)
(0 1.66966e-05 0)
(0 0.0143409 0)
(0 0.0135107 0)
(0 0.0003595 0)
(0 0.0143408 0)
(0 0.0121791 0)
(0 0.0134557 0)
(0 0.0174038 0)
(0 0.0165096 0)
(0 0.000459412 0)
(0 0.0095769 0)
(0 0.0136304 0)
(0 0.0135257 0)
(0 0.000952386 0)
(0 0.0171664 0)
(0 0.0051857 0)
(0 0.0168736 0)
(0 0.0166435 0)
(0 0.00972291 0)
(0 0.00452623 0)
(0 0.00418955 0)
(0 0.0151777 0)
(0 0.0171759 0)
(0 0.00044131 0)
(0 0.00529824 0)
(0 0.0169418 0)
(0 0.0172647 0)
(0 0.0145412 0)
(0 0.0145805 0)
(0 0.0135914 0)
(0 0.000675881 0)
(0 0.0150747 0)
(0 0.0155559 0)
(0 0.00929335 0)
(0 0.0173734 0)
(0 0.0172033 0)
(0 0.0123781 0)
(0 0.0155987 0)
(0 0.0173739 0)
(0 0.000231434 0)
(0 0.0168928 0)
(0 0.000972116 0)
(0 0.00165842 0)
(0 0.0164533 0)
(0 0.0127471 0)
(0 0.00142694 0)
(0 0.00252937 0)
(0 0.00518064 0)
(0 0.00660925 0)
(0 0.006206 0)
(0 0.00534827 0)
(0 0.00556101 0)
(0 0.00468375 0)
(0 0.0174034 0)
(0 0.00961407 0)
(0 0.00444899 0)
(0 0.0166763 0)
(0 0.0163083 0)
(0 0.00643354 0)
(0 0.017202 0)
(0 0.00717102 0)
(0 0.00885551 0)
(0 0.000518281 0)
(0 0.00981901 0)
(0 0.0171312 0)
(0 0.000472144 0)
(0 0.00758532 0)
(0 0.0161007 0)
(0 0.00252084 0)
(0 0.0154352 0)
(0 0.0136011 0)
(0 0.0132307 0)
(0 0.016008 0)
(0 0.008921 0)
(0 0.0173189 0)
(0 0.0165014 0)
(0 0.000490804 0)
(0 0.0106465 0)
(0 0.0158588 0)
(0 0.0147073 0)
(0 0.0174467 0)
(0 0.0136566 0)
(0 0.00295436 0)
(0 0.0116155 0)
(0 0.0137526 0)
(0 0.00401228 0)
(0 0.0161351 0)
(0 0.00669789 0)
(0 0.000165843 0)
(0 0.00912278 0)
(0 0.00614661 0)
(0 0.0094989 0)
(0 0.0103393 0)
(0 0.0164143 0)
(0 0.0127996 0)
(0 0.00876012 0)
(0 0.00121905 0)
(0 0.00591963 0)
(0 0.0105753 0)
(0 0.00294229 0)
(0 0.0171806 0)
(0 0.011106 0)
(0 0.00247367 0)
(0 0.0174493 0)
(0 0.0162832 0)
(0 0.000300724 0)
(0 0.0174497 0)
(0 0.000780454 0)
(0 0.0172958 0)
(0 0.0122868 0)
(0 0.0044019 0)
(0 0.00446731 0)
(0 0.0136666 0)
(0 0.00379523 0)
(0 0.00595546 0)
(0 0.0171357 0)
(0 0.00532203 0)
(0 0.0160387 0)
(0 0.0173944 0)
(0 0.000619146 0)
(0 0.000460923 0)
(0 0.00933456 0)
(0 0.0156449 0)
(0 0.0153879 0)
(0 0.010399 0)
(0 0.013098 0)
(0 0.00153231 0)
(0 0.00473253 0)
(0 0.00906632 0)
(0 0.00924055 0)
(0 0.0174041 0)
(0 0.0063092 0)
(0 0.0160938 0)
(0 0.00557334 0)
(0 0.00640048 0)
(0 0.00604605 0)
(0 0.0060717 0)
(0 0.0168716 0)
(0 0.0110861 0)
(0 0.0160799 0)
(0 0.0167805 0)
(0 0.0122454 0)
(0 0.00898904 0)
(0 0.00790254 0)
(0 0.00576686 0)
(0 0.00879972 0)
(0 0.00212594 0)
(0 0.00760097 0)
(0 0.0166135 0)
(0 0.00331776 0)
(0 0.00306609 0)
(0 0.00319999 0)
(0 0.00496247 0)
(0 0.0174101 0)
(0 4.9793e-05 0)
(0 0.00694019 0)
(0 0.0162704 0)
(0 0.00518308 0)
(0 0.016715 0)
(0 0.00538427 0)
(0 0.00312857 0)
(0 0.0144571 0)
(0 0.00644051 0)
(0 0.00780319 0)
(0 0.0104715 0)
(0 0.0144887 0)
(0 0.0105263 0)
(0 0.0159641 0)
(0 0.0171212 0)
(0 0.0130334 0)
(0 0.0115858 0)
(0 0.00445958 0)
(0 0.00437639 0)
(0 0.0121076 0)
(0 0.00829562 0)
(0 0.00335762 0)
(0 0.0137828 0)
(0 0.00922591 0)
(0 0.00260895 0)
(0 0.00287938 0)
(0 0.0174129 0)
(0 0.017325 0)
(0 0.000263976 0)
(0 0.00256805 0)
(0 0.0167982 0)
(0 0.0114756 0)
(0 0.0167046 0)
(0 0.0160457 0)
(0 0.0146286 0)
(0 0.0174475 0)
(0 0.000827347 0)
(0 0.0028904 0)
(0 0.00308249 0)
(0 0.015595 0)
(0 0.00943731 0)
(0 0.00280311 0)
(0 0.016855 0)
(0 0.00639384 0)
(0 0.00565369 0)
(0 0.0167674 0)
(0 0.017448 0)
(0 0.017434 0)
(0 0.015175 0)
(0 0.0132796 0)
(0 0.0117056 0)
(0 0.00809587 0)
(0 0.00246648 0)
(0 0.000279807 0)
(0 0.0168058 0)
(0 0.00256615 0)
(0 0.000415224 0)
(0 0.000712599 0)
(0 0.017447 0)
(0 0.0164177 0)
(0 0.00404531 0)
(0 0.00210293 0)
(0 0.0161281 0)
(0 0.0055815 0)
(0 0.0118212 0)
(0 0.0164613 0)
(0 0.0106033 0)
(0 0.014951 0)
(0 0.00418097 0)
(0 0.0144268 0)
(0 0.0125037 0)
(0 0.00849182 0)
(0 0.0146006 0)
(0 0.00890509 0)
(0 0.0066376 0)
(0 0.00046075 0)
(0 0.000467004 0)
(0 0.000172948 0)
(0 0.0153786 0)
(0 0.00438313 0)
(0 0.012426 0)
(0 0.0172977 0)
(0 0.00804426 0)
(0 0.00358583 0)
(0 0.0171203 0)
(0 0.00015429 0)
(0 0.00399659 0)
(0 0.017103 0)
(0 0.00667615 0)
(0 0.0116762 0)
(0 0.0153946 0)
(0 0.000174639 0)
(0 0.0118662 0)
(0 0.0154498 0)
(0 0.0113851 0)
(0 0.0163691 0)
(0 0.0167494 0)
(0 0.000274038 0)
(0 0.00137385 0)
(0 0.0158093 0)
(0 0.00413267 0)
(0 0.000202415 0)
(0 0.000559428 0)
(0 0.0138263 0)
(0 0.00901464 0)
(0 0.0171856 0)
(0 0.0106451 0)
(0 0.0167338 0)
(0 0.0174274 0)
(0 0.00935269 0)
(0 0.00911775 0)
(0 0.017115 0)
(0 0.0102776 0)
(0 0.0086801 0)
(0 0.0167942 0)
(0 0.0124157 0)
(0 0.00440918 0)
(0 0.00374823 0)
(0 0.0169253 0)
(0 0.0148869 0)
(0 0.000100937 0)
(0 0.00098451 0)
(0 0.0144424 0)
(0 0.00503476 0)
(0 0.00664809 0)
(0 0.0168421 0)
(0 0.0174109 0)
(0 0.0114495 0)
(0 0.0172755 0)
(0 0.012317 0)
(0 0.0174483 0)
(0 0.0173664 0)
(0 0.0174477 0)
(0 0.0173769 0)
(0 0.016733 0)
(0 0.0133871 0)
(0 0.00292853 0)
(0 0.0172493 0)
(0 0.0149916 0)
(0 2.57256e-05 0)
(0 0.00967669 0)
(0 0.0116539 0)
(0 0.0158238 0)
(0 0.00462278 0)
(0 0.000166616 0)
(0 0.00454227 0)
(0 0.0172776 0)
(0 0.0166725 0)
(0 0.00329338 0)
(0 0.0173074 0)
(0 0.00956531 0)
(0 0.0101583 0)
(0 0.00995992 0)
(0 0.00881904 0)
(0 0.0172974 0)
(0 0.0172634 0)
(0 3.02127e-05 0)
(0 0.0166812 0)
(0 0.0164035 0)
(0 0.0174466 0)
(0 0.0174499 0)
(0 0.0166713 0)
(0 0.0165529 0)
(0 0.000507712 0)
(0 0.0174472 0)
(0 0.0145331 0)
(0 0.0065666 0)
(0 0.0117129 0)
(0 0.0152194 0)
(0 0.0173506 0)
(0 0.017262 0)
(0 0.0115319 0)
(0 0.0104755 0)
(0 0.00855461 0)
(0 0.0113157 0)
(0 0.0174148 0)
(0 0.0124674 0)
(0 0.0030786 0)
(0 0.0145498 0)
(0 0.0063051 0)
(0 0.000652176 0)
(0 0.00239511 0)
(0 0.0145482 0)
(0 0.00262295 0)
(0 0.00283259 0)
(0 0.0156546 0)
(0 0.0147714 0)
(0 0.0163373 0)
(0 0.0174389 0)
(0 0.000526653 0)
(0 0.0148191 0)
(0 0.017355 0)
(0 0.0166576 0)
(0 0.0055871 0)
(0 0.0118455 0)
(0 0.0084959 0)
(0 0.00934024 0)
(0 0.00467626 0)
(0 2.88423e-05 0)
(0 0.00446458 0)
(0 0.00567358 0)
(0 0.0173749 0)
(0 0.0107534 0)
(0 0.00477391 0)
(0 0.0168709 0)
(0 0.0149204 0)
(0 0.0168132 0)
(0 0.015374 0)
(0 0.0153991 0)
(0 0.00296047 0)
(0 0.0156034 0)
(0 0.00587721 0)
(0 0.00809472 0)
(0 0.0148745 0)
(0 0.00436269 0)
(0 0.0171992 0)
(0 0.00297 0)
(0 0.00401222 0)
(0 0.00343838 0)
(0 0.00639097 0)
(0 0.00945917 0)
(0 0.00456523 0)
(0 0.000417927 0)
(0 0.0160228 0)
(0 0.00398066 0)
(0 0.00929376 0)
(0 0.0114882 0)
(0 0.0173427 0)
(0 0.00715501 0)
(0 0.00232756 0)
(0 0.0174031 0)
(0 0.00950687 0)
(0 0.0174458 0)
(0 0.0160332 0)
(0 0.00331282 0)
(0 0.0042121 0)
(0 0.0173613 0)
(0 0.0164711 0)
(0 0.00468479 0)
(0 0.00229421 0)
(0 0.0166004 0)
(0 0.0167006 0)
(0 1.5092e-05 0)
(0 0.00257742 0)
(0 0.00262052 0)
(0 0.00631884 0)
(0 0.00913817 0)
(0 0.000984536 0)
(0 0.0112477 0)
(0 0.0106588 0)
(0 0.00895322 0)
(0 0.00291769 0)
(0 0.000179016 0)
(0 0.00247199 0)
(0 0.00559862 0)
(0 0.00402292 0)
(0 0.00343834 0)
(0 0.0174408 0)
(0 0.0173701 0)
(0 0.00735081 0)
(0 0.017425 0)
(0 0.00690622 0)
(0 0.0167145 0)
(0 0.0173716 0)
(0 0.00623322 0)
(0 0.0148082 0)
(0 0.0170941 0)
(0 0.0174442 0)
(0 0.00776625 0)
(0 0.01427 0)
(0 0.00300076 0)
(0 0.0173131 0)
(0 0.00965585 0)
(0 0.00723876 0)
(0 0.0084458 0)
(0 0.00623856 0)
(0 3.3195e-05 0)
(0 0.0169431 0)
(0 0.017069 0)
(0 0.017319 0)
(0 0.0132507 0)
(0 8.24639e-05 0)
(0 0.0028179 0)
(0 0.000904703 0)
(0 0.0119545 0)
(0 0.00871472 0)
(0 0.0173773 0)
(0 0.017086 0)
(0 0.0101176 0)
(0 0.0123508 0)
(0 0.00932975 0)
(0 0.000865389 0)
(0 0.0174154 0)
(0 0.0162251 0)
(0 8.92209e-05 0)
(0 0.00248324 0)
(0 0.0155863 0)
(0 0.000871821 0)
(0 0.00962878 0)
(0 0.00227296 0)
(0 0.00911033 0)
(0 0.0111978 0)
(0 0.000771261 0)
(0 0.00406892 0)
(0 0.0115208 0)
(0 0.0161644 0)
(0 0.0171076 0)
(0 0.000332608 0)
(0 0.0139629 0)
(0 0.0174312 0)
(0 0.00584191 0)
(0 0.017439 0)
(0 0.0140522 0)
(0 0.017234 0)
(0 0.000119854 0)
(0 0.00463345 0)
(0 0.0148905 0)
(0 0.0169158 0)
(0 0.0174319 0)
(0 0.00613651 0)
(0 0.0160633 0)
(0 0.00139546 0)
(0 0.0088053 0)
(0 0.00396392 0)
(0 0.00564177 0)
(0 0.0159421 0)
(0 0.0166739 0)
(0 0.0163689 0)
(0 0.0158875 0)
(0 0.00385803 0)
(0 0.00716443 0)
(0 0.016779 0)
(0 0.0118819 0)
(0 0.000337899 0)
(0 0.0171537 0)
(0 0.0173776 0)
(0 0.0173749 0)
(0 0.0159817 0)
(0 0.000277625 0)
(0 0.0131096 0)
(0 0.01745 0)
(0 0.0118676 0)
(0 0.00469762 0)
(0 0.00935059 0)
(0 0.0173444 0)
(0 0.00273944 0)
(0 0.00406702 0)
(0 0.0172792 0)
(0 0.0171295 0)
(0 0.0101703 0)
(0 0.0111924 0)
(0 0.00469655 0)
(0 0.0173729 0)
(0 0.016451 0)
(0 0.0174473 0)
(0 0.0170992 0)
(0 0.00916439 0)
(0 0.00858914 0)
(0 0.0142875 0)
(0 0.016589 0)
(0 0.00229437 0)
(0 0.0155161 0)
(0 0.00238782 0)
(0 0.00349311 0)
(0 0.0045596 0)
(0 0.0149883 0)
(0 0.0172606 0)
(0 0.0166993 0)
(0 0.0174502 0)
(0 0.0036271 0)
(0 0.0170013 0)
(0 0.00682012 0)
(0 0.0142053 0)
(0 0.00346959 0)
(0 0.00720343 0)
(0 0.0171351 0)
(0 0.00453808 0)
(0 0.0174467 0)
(0 0.00130845 0)
(0 0.0173729 0)
(0 0.0172043 0)
(0 0.0101984 0)
(0 0.00233596 0)
(0 0.010016 0)
(0 0.016084 0)
(0 0.00207887 0)
(0 0.00868096 0)
(0 0.00098613 0)
(0 0.0174461 0)
(0 0.0144362 0)
(0 0.00906026 0)
(0 0.0067749 0)
(0 0.012003 0)
(0 0.00018416 0)
(0 0.0145122 0)
(0 0.00798999 0)
(0 0.0092714 0)
(0 0.0174373 0)
(0 0.0159077 0)
(0 0.00940914 0)
(0 0.00648483 0)
(0 0.0143005 0)
(0 0.00525996 0)
(0 0.000483332 0)
(0 0.0173258 0)
(0 0.0136813 0)
(0 0.017112 0)
(0 0.0117447 0)
(0 0.00609976 0)
(0 0.0174186 0)
(0 0.0119279 0)
(0 0.0169251 0)
(0 0.0172168 0)
(0 0.00437421 0)
(0 0.00224262 0)
(0 0.017432 0)
(0 0.000280048 0)
(0 0.00639335 0)
(0 0.016016 0)
(0 0.0173544 0)
(0 0.0143968 0)
(0 0.00029642 0)
(0 0.00952639 0)
(0 0.000654917 0)
(0 0.00672699 0)
(0 0.00238468 0)
(0 0.015997 0)
(0 0.000259895 0)
(0 0.0110301 0)
(0 0.0174379 0)
(0 0.000329375 0)
(0 0.0133339 0)
(0 0.00542629 0)
(0 0.00590607 0)
(0 0.0174375 0)
(0 0.00931359 0)
(0 0.0102122 0)
(0 0.0161608 0)
(0 0.0174275 0)
(0 0.00330796 0)
(0 0.000777014 0)
(0 0.00923553 0)
(0 0.0166102 0)
(0 0.0170209 0)
(0 0.0171128 0)
(0 0.00223765 0)
(0 0.000716341 0)
(0 0.0148469 0)
(0 0.00335495 0)
(0 0.00181602 0)
(0 0.00461876 0)
(0 0.0134117 0)
(0 0.0148964 0)
(0 0.00861231 0)
(0 0.0147102 0)
(0 0.00409547 0)
(0 0.0101468 0)
(0 0.00469976 0)
(0 0.0118662 0)
(0 0.0132016 0)
(0 0.01681 0)
(0 0.00436098 0)
(0 0.00935016 0)
(0 0.00340144 0)
(0 0.00267979 0)
(0 0.00311084 0)
(0 0.00576946 0)
(0 0.0173912 0)
(0 0.0172994 0)
(0 0.0158157 0)
(0 0.017316 0)
(0 0.00550853 0)
(0 0.00294386 0)
(0 0.00669068 0)
(0 0.0035668 0)
(0 0.00542407 0)
(0 0.0137028 0)
(0 0.010721 0)
(0 0.0082863 0)
(0 0.01521 0)
(0 0.00385829 0)
(0 0.00263761 0)
(0 0.0156024 0)
(0 0.0135654 0)
(0 0.0105902 0)
(0 0.0172042 0)
(0 0.00599668 0)
(0 0.0158208 0)
(0 0.0173712 0)
(0 0.0173065 0)
(0 0.013582 0)
(0 0.0160876 0)
(0 0.0164389 0)
(0 0.0100591 0)
(0 0.000545317 0)
(0 0.0173684 0)
(0 0.0174384 0)
(0 0.00333741 0)
(0 0.0172067 0)
(0 0.00625998 0)
(0 0.0118099 0)
(0 0.0153862 0)
(0 0.00275536 0)
(0 0.0171762 0)
(0 0.013595 0)
(0 0.00612205 0)
(0 0.0164844 0)
(0 0.00891774 0)
(0 0.0125479 0)
(0 0.0174315 0)
(0 0.01162 0)
(0 0.000801231 0)
(0 0.016048 0)
(0 0.0157064 0)
(0 0.000746603 0)
(0 0.016878 0)
(0 0.0166491 0)
(0 0.00430423 0)
(0 0.0126944 0)
(0 0.014884 0)
(0 0.00591615 0)
(0 0.0134276 0)
(0 0.00942222 0)
(0 0.00305496 0)
(0 0.0174211 0)
(0 0.00245166 0)
(0 0.0173296 0)
(0 0.0172837 0)
(0 0.0117834 0)
(0 0.0140886 0)
(0 0.0117498 0)
(0 0.00863131 0)
(0 0.0170944 0)
(0 0.0147704 0)
(0 0.00282023 0)
(0 0.00260434 0)
(0 0.0138237 0)
(0 0.0174223 0)
(0 0.0163693 0)
(0 0.0174157 0)
(0 0.0166877 0)
(0 0.0171023 0)
(0 0.00032932 0)
(0 0.00543034 0)
(0 0.0160976 0)
(0 0.000271515 0)
(0 0.0155769 0)
(0 0.0163002 0)
(0 0.0174338 0)
(0 0.01093 0)
(0 0.0167 0)
(0 0.00579515 0)
(0 0.0172988 0)
(0 0.0103722 0)
(0 0.00339506 0)
(0 0.0171186 0)
(0 0.0171471 0)
(0 0.0117142 0)
(0 0.0089476 0)
(0 0.0137826 0)
(0 0.00643047 0)
(0 0.0163311 0)
(0 0.00908776 0)
(0 0.0130111 0)
(0 0.00929724 0)
(0 0.0094633 0)
(0 0.0164893 0)
(0 0.00252841 0)
(0 0.000250534 0)
(0 0.017447 0)
(0 0.00014121 0)
(0 0.0173478 0)
(0 0.0173279 0)
(0 0.0173765 0)
(0 0.00973221 0)
(0 0.00839049 0)
(0 0.00445509 0)
(0 0.00926609 0)
(0 0.0152587 0)
(0 0.0174426 0)
(0 0.0166817 0)
(0 0.010155 0)
(0 0.00012424 0)
(0 0.00946658 0)
(0 0.016216 0)
(0 0.0174235 0)
(0 0.0137274 0)
(0 0.0173585 0)
(0 0.0172903 0)
(0 0.0174406 0)
(0 0.0158378 0)
(0 0.00662769 0)
(0 0.0117849 0)
(0 0.00643862 0)
(0 0.000282524 0)
(0 0.000128797 0)
(0 0.0160554 0)
(0 0.0106729 0)
(0 0.00101478 0)
(0 0.00630383 0)
(0 0.00855092 0)
(0 0.0163682 0)
(0 0.00630627 0)
(0 0.0160542 0)
(0 0.01163 0)
(0 0.00290045 0)
(0 0.0171055 0)
(0 0.0174453 0)
(0 0.0158967 0)
(0 0.00132957 0)
(0 0.00905039 0)
(0 0.0061555 0)
(0 0.00972726 0)
(0 0.00851903 0)
(0 0.0118863 0)
(0 0.0173886 0)
(0 0.00945084 0)
(0 0.0006147 0)
(0 0.0154302 0)
(0 0.00744601 0)
(0 0.00574996 0)
(0 0.0075078 0)
(0 0.00614395 0)
(0 0.00992921 0)
(0 0.0162533 0)
(0 0.0157745 0)
(0 0.00743311 0)
(0 0.00543988 0)
(0 0.00963167 0)
(0 0.00245422 0)
(0 0.00241512 0)
(0 0.000874958 0)
(0 0.013358 0)
(0 0.0174214 0)
(0 0.00864503 0)
(0 0.0168828 0)
(0 0.0137377 0)
(0 0.0168225 0)
(0 0.0133829 0)
(0 0.0141717 0)
(0 0.0174424 0)
(0 0.0145609 0)
(0 0.00483578 0)
(0 0.0142998 0)
(0 0.00985026 0)
(0 0.0139057 0)
(0 0.00187196 0)
(0 0.00833313 0)
(0 0.0173508 0)
(0 0.00313647 0)
(0 0.0171452 0)
(0 0.00879495 0)
(0 0.00756965 0)
(0 0.0171032 0)
(0 0.0174285 0)
(0 0.0083069 0)
(0 0.0118313 0)
(0 0.0164779 0)
(0 0.0124448 0)
(0 0.0127567 0)
(0 0.00320009 0)
(0 0.00617536 0)
(0 0.0162421 0)
(0 0.0170756 0)
(0 0.0173985 0)
(0 0.017446 0)
(0 0.00609383 0)
(0 0.0073052 0)
(0 0.0115279 0)
(0 0.0106136 0)
(0 0.00329227 0)
(0 0.0143846 0)
(0 0.00126812 0)
(0 0.0138553 0)
(0 0.0013738 0)
(0 0.00194253 0)
(0 0.00621684 0)
(0 0.00301989 0)
(0 0.0140397 0)
(0 0.0144216 0)
(0 0.00282996 0)
(0 0.0136151 0)
(0 0.0172918 0)
(0 0.0163654 0)
(0 0.0173475 0)
(0 0.0132461 0)
(0 0.0149903 0)
(0 0.00219919 0)
(0 0.016701 0)
(0 0.0173937 0)
(0 0.0136627 0)
(0 0.0174438 0)
(0 0.000258558 0)
(0 0.0134128 0)
(0 0.000503281 0)
(0 0.0169942 0)
(0 0.00192545 0)
(0 0.0171125 0)
(0 0.00823277 0)
(0 0.000503763 0)
(0 0.0169477 0)
(0 0.00231101 0)
(0 0.00348278 0)
(0 0.00293249 0)
(0 0.00309001 0)
(0 0.0153368 0)
(0 0.000762138 0)
(0 0.000746132 0)
(0 0.0174453 0)
(0 0.0116649 0)
(0 0.0119911 0)
(0 0.0152987 0)
(0 0.0125459 0)
(0 0.000247157 0)
(0 0.0153858 0)
(0 0.00915298 0)
(0 0.0120348 0)
(0 0.00849211 0)
(0 0.00288419 0)
(0 0.0138867 0)
(0 0.00731625 0)
(0 0.0174027 0)
(0 0.00165341 0)
(0 0.000546991 0)
(0 0.000653797 0)
(0 0.000377123 0)
(0 0.000486849 0)
(0 0.0157407 0)
(0 0.000873731 0)
(0 0.00339828 0)
(0 0.00900828 0)
(0 0.00486955 0)
(0 0.0168262 0)
(0 0.00507361 0)
(0 0.0167495 0)
(0 0.0172699 0)
(0 0.0170999 0)
(0 0.017117 0)
(0 0.0133864 0)
(0 0.0136572 0)
(0 0.00641597 0)
(0 0.0174287 0)
(0 0.00341219 0)
(0 0.0124817 0)
(0 0.00153428 0)
(0 0.0116439 0)
(0 0.0118878 0)
(0 0.0150474 0)
(0 0.0172216 0)
(0 0.00591621 0)