/*--------------------------------*- C++ -*----------------------------------*\
| =========                 |                                                 |
| \\      /  F ield         | OpenFOAM: The Open Source CFD Toolbox           |
|  \\    /   O peration     | Version:  v2012                                 |
|   \\  /    A nd           | Website:  www.openfoam.com                      |
|    \\/     M anipulation  |                                                 |
\*---------------------------------------------------------------------------*/
FoamFile
{
    version     2.0;
    format      ascii;
    class       volScalarField;
    location    "250";
    object      k_0;
}
// * * * * * * * * * * * * * * * * * * * * * * * * * * * * * * * * * * * * * //

dimensions      [0 2 -2 0 0 0 0];


internalField   nonuniform List<scalar> 
18758
(
0.000175649
0.00203798
0.000147348
0.000174786
0.000163537
0.000140084
0.000143383
0.000151747
0.000161916
0.000160734
0.00115562
0.00621532
0.000172859
0.000151287
0.000143188
0.000141877
0.00677176
0.000130669
0.000143068
0.000153265
0.00638568
0.00181243
0.000141152
0.00014009
0.00884361
0.0011309
0.0101416
0.000223311
0.000192299
0.00362378
0.000818081
0.0112539
0.000151391
0.0438312
0.000164774
0.00336374
0.000262683
0.000163658
0.00112219
0.000134824
0.00458681
0.000163072
0.00509291
0.000146331
0.000145023
0.000902939
0.000161247
0.000193605
0.0306219
0.000172268
0.00126869
0.0322585
0.000171909
0.000156141
0.000198481
0.000229976
0.000139612
0.000152978
0.000191097
0.000139273
0.000147049
0.000145778
0.0134428
0.000719932
0.000147402
0.0560811
0.000146958
0.000133268
0.000223889
0.000130856
0.0318932
0.00474127
0.000143144
0.000157651
0.000211242
0.00102507
0.0160197
0.00741473
0.000162272
0.00591261
0.000189522
0.000939927
0.00709851
0.000178537
0.000151041
0.000194119
0.000155944
0.000158538
0.0153744
0.000193229
0.0338044
0.0001535
0.000182945
0.0302454
0.000143031
0.000139083
0.000132527
0.000180891
0.00789147
0.000142418
0.00102039
0.000160291
0.0001332
0.000139049
0.0558247
0.00653694
0.000193538
0.0344478
0.0251399
0.00282338
0.000142043
0.000741717
0.000166733
0.000145879
0.000160395
0.00030271
0.000180199
0.000137903
0.000334286
0.000154304
0.000144824
0.0160038
0.000151504
0.000137991
0.0357669
0.000156188
0.000144044
0.000138006
0.000209519
0.0291482
0.000191296
0.00015376
0.000160793
0.0355556
0.000135166
0.000145832
0.00951672
0.00015019
0.000230785
0.000189324
0.000172798
0.00304908
0.000174134
0.0217877
0.0351163
0.000175636
0.0526745
0.000204272
0.00133934
0.000460812
0.0277604
0.0303479
0.000146371
0.000164895
0.00498423
0.0246309
0.00018282
0.000209987
0.000181329
0.0017741
0.0200903
0.000139293
0.0287566
0.0524134
0.000204474
0.000140029
0.000139183
0.021117
0.0291929
0.00514599
0.0289341
0.000147927
0.000195672
0.00432246
0.0263727
0.000142543
0.00014294
0.000169205
0.035259
0.000149116
0.000132338
0.000155542
0.000198318
0.000150809
0.0010485
0.000143634
0.00399124
0.000168918
0.0299872
0.00909794
0.0296795
0.000143564
0.000197677
0.0192706
0.000131508
0.000150537
0.000243181
0.000146191
0.0300186
0.000141402
0.000148379
0.000214846
0.0148136
0.000141827
0.000142075
0.0289661
0.000142499
0.000166646
0.0275771
0.0288602
0.000144754
0.000184025
0.000150333
0.000150103
0.000152021
0.000132744
0.000144606
0.000183593
0.000137099
0.00326512
0.0234274
0.000141506
0.000173536
0.00021622
0.017242
0.00617902
0.000221296
0.000191534
0.0212934
0.000142259
0.000863442
0.00017553
0.0276104
0.000147898
0.000140746
0.000141893
0.000224536
0.0317781
0.000258034
0.000148762
0.000142182
0.000215306
0.000219829
0.000145825
0.000704657
0.00025514
0.000140821
0.000138264
0.000144821
0.000142479
0.0291305
0.000145392
0.00464467
0.000142392
0.000144872
0.000275334
0.00013973
0.00993733
0.000142932
0.00465934
0.000167344
0.00013829
0.000140909
0.000195541
0.0262494
0.0227173
0.000138414
0.000226145
0.000146492
0.000145904
0.000359051
0.0395475
0.000145735
0.000141527
0.000146574
0.000151673
0.000158475
0.000135915
0.000150932
0.000151272
0.000138254
0.000153865
0.000142377
0.0472403
0.000143272
0.000141334
0.0001303
0.000216137
0.000138976
0.000138979
0.000146941
0.000149423
0.000139397
0.000142217
0.000145335
0.000153743
0.00628923
0.000157942
0.000141756
0.0372655
0.000154394
0.000141905
0.00014194
0.0045478
0.000558641
0.000132293
0.000216767
0.00653272
0.00014665
0.000174291
0.000142406
0.014295
0.00023638
0.000202595
0.00019122
0.0430804
0.000132951
0.00878466
0.000224211
0.000146968
0.000200516
0.000178262
0.000430096
0.000140729
0.000133012
0.0288644
0.00546161
0.000139645
0.0357469
0.000201225
0.000181475
0.0348825
0.000140656
0.00014031
0.0001427
0.000145574
0.00014952
0.000154015
0.00015188
0.000142944
0.000149243
0.000148742
0.0307598
0.0050664
0.000149046
0.00736149
0.00786201
0.00013946
0.000165206
0.000658725
0.00471738
0.00295421
0.000251274
0.000143623
0.0330447
0.00121923
0.000173653
0.000148715
0.000178891
0.000150103
0.000145456
0.000250269
0.0175726
0.00364837
0.000328353
0.0142394
0.000140824
0.00015711
0.000156209
0.000181677
0.0309997
0.000290291
0.0253699
0.000275131
0.0036578
0.000259909
0.000145135
0.0571591
0.0002053
0.000805783
0.00465237
0.00014239
0.00013993
0.00222677
0.0039454
0.00443601
0.000368118
0.0354241
0.000148899
0.00600223
0.00191036
0.000141956
0.000151037
0.000151996
0.000152273
0.000145192
0.000150467
0.000144205
0.000157377
0.000145837
0.000144937
0.000165066
0.000609557
0.000159922
0.000569948
0.000595544
0.0337832
0.000446246
0.00020663
0.000150225
0.000140714
0.00524573
0.000151026
0.000148856
0.0128177
0.00018108
0.000335257
0.000139992
0.0302851
0.00014455
0.000154581
0.000131954
0.0300337
0.018278
0.00331911
0.00014489
0.0340709
0.000181954
0.000144178
0.000151088
0.000145157
0.0242083
0.000145563
0.0001418
0.000719716
0.000160271
0.000148963
0.000142822
0.00015142
0.000155103
0.000277522
0.000245448
0.000148754
0.0574358
0.00013189
0.000156138
0.00019068
0.000143719
0.000722212
0.000148489
0.000155458
0.000146846
0.000279846
0.000159878
0.000144148
0.0333216
0.000654597
0.000130362
0.000157115
0.000152854
0.000141843
0.000143211
0.000151081
0.026688
0.0360493
0.000147329
0.000168461
0.0129029
0.000192498
0.00749569
0.000254975
0.00730434
0.000137254
0.000204127
0.000205793
0.000162621
0.000151245
0.00354469
0.000281632
0.000171004
0.000139865
0.000143411
0.000139043
0.000143702
0.000139002
0.000143824
0.00207415
0.000148692
0.000131552
0.000180845
0.000152765
0.000147033
0.000134678
0.000151884
0.000284559
0.00638359
0.000142709
0.00115556
0.000142606
0.000160247
0.000201613
0.0433369
0.000270227
0.000143028
0.000143701
0.0380146
0.0343811
0.000244923
0.000139758
0.000268136
0.0479481
0.000130276
0.000141287
0.011653
0.000152065
0.000190751
0.000240918
0.000154677
0.000168454
0.00013835
0.000142014
0.000152818
0.000143801
0.000141993
0.000147099
0.00662493
0.000132138
0.000341824
0.014541
0.000130356
0.000132144
0.000149821
0.000157618
0.000161179
0.000251333
0.000142495
0.0142872
0.000162608
0.00016245
0.000141146
0.000143402
0.000146403
0.000147502
0.000147406
0.0422961
0.00143169
0.000138186
0.000141763
0.000149213
0.0241744
0.00013207
0.000133011
0.000144062
0.000131614
0.000140953
0.000140914
0.000150983
0.000141841
0.000192758
0.000142417
0.000135718
0.000229644
0.0468023
0.000165358
0.000144428
0.000142566
0.000147761
0.000142568
0.000151991
0.000271569
0.000913392
0.000149275
0.0126373
0.000142425
0.000166035
0.000144675
0.000141665
0.000176309
0.00013088
0.000144006
0.0112603
0.000146828
0.000150713
0.000257593
0.000143175
0.00014332
0.029908
0.000137744
0.0043121
0.000361252
0.000142695
0.000147112
0.000175404
0.000152359
0.000161502
0.000142332
0.0023257
0.0124224
0.00699654
0.00013853
0.0369501
0.000131404
0.00014512
0.00014244
0.000168437
0.00278392
0.00024178
0.000143693
0.00015056
0.00015371
0.0271384
0.000260139
0.00014123
0.000238524
0.000154684
0.0322387
0.000160494
0.000217951
0.000139723
0.000166949
0.000181791
0.000142587
0.00013979
0.000132114
0.000139031
0.000158405
0.000228165
0.00388016
0.0103281
0.000219783
0.000154977
0.00014254
0.000137874
0.0003642
0.00411836
0.000134987
0.000174237
0.030364
0.0414925
0.000146409
0.00014572
0.000181571
0.00680788
0.000131318
0.000623274
0.000143888
0.000155905
0.000162197
0.00014497
0.000147437
0.00014796
0.000138558
0.000149331
0.000234114
0.000176167
0.00416867
0.000149903
0.00014117
0.000317838
0.000133255
0.000347395
0.00638521
0.000144041
0.01134
0.000152958
0.000145051
0.0107397
0.0049758
0.0048305
0.0271041
0.000151894
0.00981937
0.000132213
0.0543189
0.0343481
0.000171381
0.000142885
0.0042127
0.0001543
0.000194491
0.00274692
0.000465599
0.000145929
0.00807014
0.000141813
0.000175666
0.000194339
0.000140742
0.000163421
0.0186207
0.00370752
0.000156203
0.00015125
0.000131579
0.000148725
0.000157074
0.000168639
0.000228577
0.000141797
0.000311564
0.000154119
0.000145794
0.000157406
0.000131837
0.000625463
0.000142297
0.00013909
0.00067091
0.000138045
0.000151218
0.00480744
0.000182269
0.000181819
0.000143834
0.00014572
0.000184733
0.00014558
0.00679365
0.000153984
0.000152395
0.000150199
0.000145506
0.000131437
0.0200125
0.000131839
0.0387108
0.000221927
0.000149339
0.0333162
0.000140093
0.000173909
0.000155699
0.0138438
0.000153652
0.000309381
0.00666899
0.000145618
0.00563277
0.000135724
0.00119402
0.000145761
0.00014808
0.0400511
0.00431137
0.000142166
0.000146969
0.000151561
0.000138112
0.000143768
0.00293678
0.0377479
0.000141072
0.000137974
0.000135817
0.00257479
0.000239947
0.000234507
0.000138494
0.000254766
0.000148049
0.000145872
0.000160586
0.00761124
0.000141241
0.000174861
0.000274829
0.000143424
0.000382028
0.000144168
0.000160554
0.000141244
0.000138268
0.00015734
0.000145976
0.000182494
0.000143601
0.0378695
0.000146515
0.000154294
0.000191633
0.0019331
0.000174998
0.000141692
0.000145404
0.0059341
0.000270173
0.000188209
0.000139643
0.000142393
0.000157775
0.0268145
0.0053012
0.000140774
0.000142112
0.000149098
0.000146722
0.00014903
0.000142616
0.000143903
0.00744086
0.00014227
0.000143407
0.00600285
0.000138463
0.000263732
0.000213374
0.0292104
0.000360924
0.00382491
0.0391885
0.000142628
0.00014253
0.000152023
0.000140979
0.000141311
0.000138846
0.000140534
0.000148556
0.000528118
0.000200958
0.000267293
0.000153378
0.000141983
0.000163426
0.000164603
0.000189627
0.000146488
0.000150591
0.000138097
0.0348103
0.0277514
0.00683322
0.000147793
0.000195735
0.000206757
0.000366164
0.0269531
0.0076424
0.000150338
0.00014926
0.000136253
0.0365628
0.000146497
0.000132874
0.000195152
0.00676299
0.000142308
0.00491989
0.000653876
0.000142464
0.000142368
0.000142551
0.000144383
0.000143331
0.000152176
0.000163005
0.000143459
0.000146611
0.0132371
0.0359361
0.000142981
0.00402224
9.85701e-05
0.000149932
0.000144394
0.000141254
0.000138254
0.000151883
0.000149921
0.000143751
0.000147505
0.000151331
0.000146387
0.040098
0.000158818
0.000142767
0.000144564
0.00188835
0.000146097
0.000132825
0.0114516
0.000141387
0.000167302
0.000157366
0.000143456
0.00013951
0.000138033
0.00015378
0.000169786
0.000143848
0.00391517
0.000191228
0.000203873
0.00875171
0.000148864
0.000174831
0.000132214
0.000266622
0.00014948
0.00014356
0.00020545
0.00028533
0.00014789
0.0140549
0.00206037
0.000138872
0.0001613
0.00013288
0.000149493
0.000159116
0.000150861
0.000142917
0.000288139
0.000141066
0.000141534
0.00737649
0.000141611
0.000141314
0.000139531
0.0412575
0.000144837
0.000144141
0.000162584
0.023732
0.0049609
0.000266687
0.00734445
0.000142195
0.000131699
0.000143531
0.000509432
0.000148933
0.00014127
0.000152676
0.000137705
0.000623378
0.000146728
0.000145798
0.0274864
0.000142318
0.000181691
0.00110043
0.000131678
0.000143394
0.0204255
0.000151594
0.0327705
0.00263652
0.000137832
0.000144368
0.00270159
0.000138642
0.000152804
0.00428178
0.000136237
0.00719227
0.000142468
0.000144085
0.000143214
0.000164552
0.000151221
0.00873786
0.000154423
0.000140804
0.00112348
0.00676076
0.000170236
0.00016655
0.000258384
0.02875
0.024669
0.000131334
0.0285988
0.000147422
0.0150777
0.0127576
0.000141164
0.000161325
0.000146872
0.00708975
0.000139768
0.00832259
0.000141583
0.0282593
0.000196033
0.0001398
0.000131655
0.000142633
0.018577
0.000472884
0.000143949
0.00393546
0.000146363
0.00014125
0.00777451
0.000143098
0.000513679
0.000140123
0.000153158
0.00014058
0.000140192
0.000140879
0.000139838
0.000207468
0.000170067
0.00016442
0.000165977
0.000148153
0.000142726
0.00392362
0.000142636
0.00891742
0.000145525
0.00695252
0.000157654
0.00257593
0.000139447
0.000140899
0.00014109
0.0360255
0.000144767
0.00571266
0.000195782
0.000143624
0.000156944
0.000142597
0.000138137
0.000152852
0.000141524
0.00513805
0.000144062
0.000150643
0.000143807
0.000151509
0.0179367
0.00511931
0.000145643
0.000139574
0.000145049
0.00014771
0.000142023
0.000162293
0.000148584
0.000142554
0.000137398
0.000138967
0.000209163
0.000190643
0.00014553
0.000137539
0.000307286
0.000148797
0.00579733
0.0254498
0.000148208
0.0288395
0.000153326
0.000139572
0.000143969
0.000152524
0.000199053
0.00013821
0.000166448
0.00526315
0.000208037
0.000236506
0.0543339
0.0420956
0.000162409
0.000145884
0.000144464
0.00288523
0.000137553
0.000145828
0.000162506
0.000306338
0.000143418
0.000139943
0.0339851
0.000153319
0.000150223
0.000154142
0.000153286
0.000211059
0.000144459
0.000153987
0.000143985
0.000165035
0.000152303
0.000147584
0.000147798
0.00787717
0.000147635
0.000142767
0.00411983
0.000131709
0.000142653
0.000145452
0.000149775
0.000146522
0.0118765
0.000204148
0.00326249
0.0054376
0.000802976
0.0058715
0.000148889
0.000565203
0.00420333
0.00014551
0.000149161
0.000146641
0.000144517
0.000150028
0.00014849
0.000224268
0.000239268
0.000145954
0.000135464
0.000174583
0.000152274
0.00656864
0.000142513
0.000148846
0.00014214
0.000265118
0.00178399
0.000162594
0.0398776
0.000142434
0.000142257
0.000196668
0.000166796
0.000141931
0.000231603
0.000148308
0.000160912
0.00720992
0.000209501
0.000164812
0.000146693
0.000148014
0.000148215
0.000138824
0.00416397
0.000205291
0.0352251
0.000293542
0.000937598
0.000148049
0.0288163
0.032142
0.0518392
0.000194073
0.00823384
0.000161261
0.00113004
0.000206173
0.000167277
0.000130634
0.000142707
0.000145831
0.000172234
0.000139586
0.000144947
0.000258785
0.0101624
0.00423086
0.0038773
0.000189654
0.00419652
0.000169623
0.000154732
0.00014281
0.0167522
0.000246724
0.000141171
0.000163285
0.000638655
0.0328871
0.0313368
0.000169204
0.000189306
0.000131753
0.0329849
0.000147611
0.004486
0.00117979
0.000162145
0.000202833
0.000206685
0.000144264
0.000143248
0.00713962
0.000275576
0.000209246
0.000148144
0.000146124
0.000153191
0.00547242
0.000163741
0.00418778
0.000148086
0.00580324
0.000794569
0.00015523
0.00026849
0.000215871
0.0398767
0.000131757
0.000171118
0.0298966
0.000160593
0.00014196
0.00409128
0.00726927
0.000142471
0.000142588
0.00263158
0.000150851
0.000150689
0.00923932
0.000268505
0.000144571
0.000160974
0.000484899
0.000162974
0.000151918
0.000151737
0.0028165
0.000154969
0.000140475
0.000141427
0.000264866
0.000139286
0.000362901
0.000136955
0.000138569
0.00491343
0.000147101
0.000142529
0.000264887
0.000131425
0.000153021
0.000137762
0.000142395
0.000144748
0.000188574
0.000144803
0.00465184
0.000198365
0.00495033
0.0302578
0.000154528
0.000137801
0.000139288
0.0307641
0.000157802
0.000143066
0.00445521
0.000166919
0.00584633
0.00013683
0.000136778
0.000137815
0.000141253
0.000144892
0.000134179
0.000148214
0.000149847
0.000143142
0.000883101
0.00017003
0.0043812
0.000150005
0.000137843
0.000172756
0.0570244
0.0330502
0.00810842
0.0423155
0.00500563
0.000239688
0.0329698
0.000150574
0.000173875
0.000175778
0.035715
0.000141207
0.00030741
0.000877752
0.000223838
0.000142734
0.00699262
0.0001418
0.000142548
0.000145039
0.000162364
9.35145e-05
0.000342704
0.000145779
0.000131092
0.000138685
0.000134777
0.000173089
0.000143422
0.0333646
0.000190701
0.000190501
0.000148423
0.000142488
0.000133862
0.0486561
0.00259226
0.000144727
0.000141911
0.00546139
0.000134656
0.000143509
0.000135923
0.00014466
0.000144607
0.000145472
0.000137894
0.000355324
0.000152302
0.000270351
0.000163582
0.000146753
8.83239e-05
0.000146465
0.0188021
0.000146849
0.000176941
0.000733516
0.0033784
0.000171342
0.00021485
0.0430484
0.000151975
0.000165194
0.00015285
0.000142392
0.000138449
0.000140506
0.00028963
0.000172466
0.000154192
0.000249354
0.000138202
0.000145162
0.000170834
0.00435403
0.000131311
0.000172997
0.000320566
0.000194696
0.00603676
0.00014862
0.000146342
0.0314161
0.000169068
0.000139862
0.00014246
0.000201369
0.000137622
0.000138439
0.00149931
0.000186186
0.000150892
0.000148205
0.000145521
0.0330031
0.000153689
0.033902
0.00455866
0.000142723
0.000141861
0.000870379
0.000167607
0.000170782
0.000150186
0.000183772
0.000173961
0.000139651
0.000152968
0.000233655
0.00017571
0.0286794
0.00570145
0.000167165
0.00453689
0.00168593
0.000140706
0.00776386
0.00322351
0.000153767
0.058491
0.000146795
0.000217206
0.000196612
0.00352143
0.000181712
0.000223835
0.000162399
0.0055798
0.000141892
0.000132917
0.0314921
0.000152238
0.000142383
0.000142186
0.000147481
0.000134496
0.000148765
0.000141336
0.000142543
0.0355362
0.0174644
0.00014253
0.000147777
0.000267474
0.00437013
0.000131593
0.000236231
0.000203218
0.000176433
0.000145712
0.000140804
0.0480944
0.000147532
0.000186665
0.000199181
0.00013855
0.000169225
0.0354855
0.000142513
0.00526789
0.0120043
0.0300682
0.000148526
0.000142419
0.000143188
0.000144218
0.00014227
0.0047198
0.0192133
0.000138048
0.0003029
0.00728652
0.000149455
0.000145917
0.000142217
0.00700324
0.0412323
0.000202532
0.00020374
0.000152276
0.0373292
0.00413255
0.0001386
0.000142448
0.000158066
0.000167389
0.000501774
0.00472006
0.000140245
0.00027582
0.00421299
0.000160448
0.000139927
0.000146011
0.000152493
0.000141835
0.000149005
0.000138374
0.000232806
0.00275942
0.000144777
0.000146483
0.000166354
0.000138618
0.00014258
0.000151183
0.00640855
0.000137959
0.000153638
0.0416979
0.000228404
0.000290306
0.000189569
0.000148165
0.000148468
0.000149595
0.000137395
0.000141387
0.000149012
0.000318125
0.000173898
0.000149912
0.000204058
0.000137899
0.00809092
0.000346518
0.000143728
0.000372849
0.00014073
0.000151213
0.000216048
0.00787028
0.000156338
0.000153435
0.000153378
0.00022536
0.00013213
0.00595274
0.0494616
0.000138182
0.000195226
0.00689613
0.000145114
0.000150522
0.00691868
0.000192371
0.000146628
0.00474364
0.000154878
0.000142476
0.0103112
4.73305e-05
0.000422831
0.000140625
0.0112815
0.000165115
0.000133761
0.000183755
0.000162962
0.000146379
0.000202999
0.000352751
0.00472448
0.000188271
0.000208569
0.000138045
0.0433369
0.0043279
0.000230883
0.00027027
0.000145228
0.00562759
0.000145326
0.000141822
0.000177174
0.000149105
0.000386881
0.00557178
0.00014669
0.0470397
0.00160085
0.0352806
0.000160958
0.000192629
0.000131324
0.000147436
0.000152891
0.000131154
0.015529
0.00059505
0.0383351
0.000270296
0.000251836
0.00495678
0.00681924
0.00014402
0.000158875
0.00504786
0.000186822
0.000145429
0.000142296
0.000800117
0.000210466
0.000159172
0.000142779
0.000145931
0.000242256
0.000142562
0.000230746
0.00475781
0.000134312
0.0281111
0.000137557
0.0323024
0.000246601
0.0268327
0.000150936
0.00516091
0.000145134
0.000142672
0.000150011
0.0376307
0.00017155
0.00337956
0.000146656
0.000142553
0.00128429
0.0429893
0.000146615
0.000200608
0.00026446
0.0478676
0.0232769
0.000140391
0.00014563
0.00503522
0.000131267
0.000138287
0.00015496
0.000143909
0.000146947
0.000140153
0.000142123
0.000154494
0.000142073
0.000163163
0.000171576
0.000142666
0.0212966
0.0348382
0.000155907
0.00013558
0.000143078
0.000203838
0.000143587
0.000142729
0.000144696
0.000190873
0.000143826
0.000155818
0.000152079
0.000247621
0.00471009
0.000141124
0.000234601
0.000224355
0.00015886
0.000237549
0.000270201
0.000140923
0.000142744
0.000232579
0.0002139
0.000158401
0.00514608
0.0172657
0.000143064
0.0331856
0.000149298
0.000201645
0.0054594
0.0044519
0.030947
0.000151754
0.000141349
0.00887247
0.000153331
0.00949527
0.000188437
0.00379184
0.0352029
0.000140606
0.000171631
0.000142007
0.000224609
0.000205155
0.0330867
0.000141557
0.000144997
0.000234637
0.000147889
0.00737065
0.000140273
0.00585213
0.000929979
0.000176482
0.0292404
0.0349309
0.000140835
0.000140957
0.000144017
0.000334115
0.00270356
0.000148051
0.000154908
0.000148238
0.000135657
0.000176754
0.000141122
0.000136705
0.000244712
0.000147758
0.000136452
0.000156259
0.00382033
0.000301805
0.0284837
0.000145808
0.000213271
0.000161169
0.000156207
0.000192953
0.00343512
0.0367602
0.00013796
0.000202985
0.000131603
0.000168628
0.000195037
0.0001843
0.00294048
0.000148518
0.000210876
0.000137245
0.00409687
0.00396485
0.000136743
0.00015062
0.000151738
0.000152172
0.0352849
0.000144629
0.000144634
0.000148977
0.000147961
0.000139294
0.000150729
0.000143156
0.000147776
0.000143425
0.000141696
0.00679944
0.0079469
0.0369051
0.000135387
0.000132045
0.000132957
0.000135896
0.000132998
0.000168579
0.000132613
0.000138095
0.00014283
0.000139872
0.000162162
0.000142598
0.000596929
0.0109235
0.000171971
0.0022899
0.000145979
0.00179667
0.000228369
0.000129758
0.000139597
0.0107395
0.000150204
0.000144135
0.000145342
0.000218383
0.000205722
0.000140385
0.000196395
0.00016227
0.00014281
0.000218404
0.00710162
0.000162517
0.000140854
0.000153864
0.00582214
0.000162624
0.000577411
0.000140468
0.000148765
0.000144457
0.000152968
0.000170881
0.0052361
0.000164777
0.000136784
0.0315453
0.000226596
0.000215168
0.000141253
0.000154327
0.039371
0.000140645
0.00014789
0.000161236
0.0113087
0.000134228
0.000143092
0.000137979
0.0001649
0.000146045
0.00769853
0.000145444
0.000156256
0.000161872
0.035277
0.000138726
0.000136863
0.000131737
0.000164555
0.000135531
0.0025954
0.00268718
0.000163485
0.00572485
0.000142918
0.0336695
0.000145479
0.000137831
0.000215123
0.00019313
0.00022872
0.00493728
0.000290101
0.000228626
0.000167999
0.000168257
0.000149809
0.000312564
0.000144884
0.000149208
0.000286701
0.000147357
0.0049613
0.00348023
0.00275883
0.00426293
0.00541035
0.00575949
0.00587639
0.000190836
0.000154238
0.000188189
0.000144332
0.000136935
0.000141568
0.0360073
0.0286929
0.0047464
0.000156231
0.000153987
0.00482252
0.000140527
0.000193136
0.000136691
0.000171854
0.000142223
0.000132998
0.000154469
0.000172248
0.0321996
0.00016194
0.000161345
0.000137591
0.000178827
0.000744812
0.000137211
0.00020272
0.0256243
0.000131231
0.000180849
0.00013772
0.0412951
0.000149812
0.0230416
0.00014847
0.000145829
0.00016107
0.000210508
0.0200426
0.000213782
0.004501
0.000151123
0.000144873
0.000145227
0.000145086
0.000136673
0.00014324
0.0222315
0.0285658
0.000176414
0.000142919
0.000158553
0.000154443
0.000145939
0.000146442
0.000201013
0.00499995
0.00676328
0.000144759
0.00456449
0.000137727
0.000184544
0.000151087
0.000172358
0.000278751
0.00729254
0.00734336
0.000133176
0.000144513
0.000140507
0.000142587
0.000144385
0.000142213
0.0317807
0.000146206
0.000147102
0.000148334
0.000168741
0.000141735
0.0405487
0.0300124
0.00591379
0.00014555
0.000294142
0.000136539
0.00774028
0.0121936
0.000150141
0.0058511
0.000153981
0.000185526
0.000140617
0.000146716
0.000160383
0.000186688
0.000210952
0.00200702
0.000233528
0.000205461
0.000176674
0.00014968
0.000143859
0.00599475
0.000153012
0.0134735
0.000149534
0.0461945
0.00133087
0.00417911
0.000150305
0.000348015
0.00015381
0.000145337
0.000135961
0.000151505
0.000188304
0.000142718
0.00719281
0.000199181
0.00021169
0.000141428
0.000158452
0.000288577
0.00444019
0.0065593
0.000155801
0.00017488
0.0259688
0.00025841
0.000147681
0.000183048
0.00646057
0.000187076
0.000274791
0.000157159
0.000159365
0.000249642
0.000134085
0.00530878
0.000177911
0.00014417
0.000785668
0.00344066
0.0120772
0.000156653
0.000209485
0.000182113
0.000136832
0.0001836
0.000149615
0.000219731
0.000138913
0.0210764
0.0391649
0.00725145
0.00497751
0.000195939
0.00198869
0.000154613
0.000223549
0.00607162
0.0346316
0.000150788
0.000148387
0.000141978
0.00015944
0.000134389
0.000141316
0.000284797
0.000141696
0.000138504
0.000163218
0.000148663
0.00013257
0.000247941
0.00895848
0.000180925
0.000145102
0.00014481
0.000161412
0.000150097
0.000141612
0.000140583
0.000136541
0.000945796
0.000156869
0.000219212
0.000157153
0.000143688
0.000132887
0.00027771
0.000223758
0.000260792
0.0001813
0.000147269
0.000170471
0.000140606
0.000159085
0.00502357
0.0100436
0.000197544
0.000152671
0.000137389
0.000161012
0.00689996
0.00378923
0.00396724
0.000156243
0.000137903
0.000137959
0.000155292
0.000360661
0.0302615
0.000137922
0.00456687
0.000132874
0.00014332
0.000207985
0.000140455
0.00861018
0.000209551
0.00459624
0.000133568
0.000173977
0.00017308
0.0333202
0.000137737
0.000145979
0.000238664
0.00544859
0.0135314
0.00155975
0.0232359
0.000149178
0.000205263
0.000156624
0.000180881
0.0360857
0.000165998
0.000140955
0.000145628
0.000135245
0.000359215
0.0457381
0.000155467
0.0529652
0.000135847
0.00014108
0.000145713
0.000229911
0.000223479
0.0543632
0.000143717
0.00014854
0.000168239
0.00221401
0.000136436
0.0046022
0.000140354
0.000158006
0.0178645
0.000139932
0.0260575
0.00672974
0.00746603
0.0386829
0.000143661
0.000153272
0.000152335
0.0337274
0.000204008
0.000145378
0.0296818
0.000400346
0.00013118
0.000151056
0.000382674
0.000136851
0.0365555
0.0121506
0.000155985
0.000131799
0.00015425
0.00015923
0.0406375
0.000137797
0.000171244
0.000149962
0.00409203
0.034879
0.000142679
0.00013635
0.000214123
0.000156581
0.000144679
0.000143183
0.000140075
0.000183361
0.000152085
0.00523795
0.000148969
0.00014833
0.000141014
0.000150853
0.000160038
0.000151982
0.006721
0.00688446
0.00610708
0.000148054
0.000136315
0.000309627
0.000160505
0.000185736
0.000496298
0.000199509
0.00518232
0.0154818
0.000135936
0.00213939
0.000418702
0.000150149
0.000140215
0.000143721
0.000143639
0.0199823
0.00409428
0.00014455
0.0574247
0.00530794
0.0283855
0.000132814
0.000138642
0.00299565
0.000140142
0.000145747
0.000164491
0.000141947
0.000228851
0.000155801
0.0358983
0.0032565
0.000141365
0.00259906
0.000224033
0.000865044
0.000432609
0.00014299
0.000154312
0.000169702
0.0285292
0.00037733
0.000472279
0.000147841
0.000143807
0.000199538
0.00013686
0.000578935
0.0125737
0.000140547
0.000385198
0.000137055
0.0374556
0.000145942
0.0051958
0.000149843
0.0116883
0.000301302
0.0412839
0.0293822
0.000135139
0.0101087
0.0285611
0.000148435
0.032741
0.000148066
0.00013343
0.000143775
0.000159625
0.000153799
0.000145649
0.000141167
0.000236022
0.000173782
0.000181592
0.0601679
0.000186632
0.000161882
0.000149436
0.000194355
0.000136234
0.000190789
0.00152621
0.0215104
0.00662501
0.000150937
0.000153023
0.000150168
0.000225993
0.000151751
0.000141291
0.0350233
0.00868949
0.0295693
0.000148214
0.000145612
0.000177276
0.0146007
0.000147897
0.000136635
0.000150442
0.000150734
0.000173331
0.000143387
0.00554478
0.000147378
0.0336034
0.000138494
0.000578119
0.00579353
0.000652864
0.000135548
0.000188634
0.000145106
0.000137269
0.000197331
0.00701852
0.000141676
0.000149321
0.0412401
0.00014429
0.000187897
0.00144501
0.000157123
0.00997331
0.000145509
0.0131559
0.000162328
0.000327661
0.00013622
0.000141229
0.0387509
0.000140138
0.00525531
0.000154489
0.000163118
0.0280829
0.00015019
0.00014381
0.000149494
0.000141514
0.00732207
0.0344343
0.000137225
0.00531594
0.000289987
0.000324758
0.000144026
0.000244775
0.00109568
0.000159487
0.000161394
0.00014394
0.0521715
0.000133612
0.0321339
0.000136109
0.000139823
0.000153666
0.000145853
0.000138506
0.000214285
0.000152642
0.000141671
0.00399665
0.000137774
0.000183081
0.000157011
0.00130568
0.000188886
0.000140042
0.000165711
0.000141135
0.000140506
0.000154091
0.0245673
0.00119065
0.00419383
0.0169801
0.000136457
0.000143906
0.00014506
0.000140311
0.000135528
0.000462291
0.00013326
0.000155463
0.000196494
0.000149818
0.000269569
0.000144782
0.000136532
0.0304573
0.0240824
0.000146063
0.000175029
0.000165039
0.000387901
0.000141608
0.000151212
0.00430309
0.000145484
0.000884207
0.000245178
0.000149381
0.000149754
0.0239672
0.000153915
0.000187137
0.00170883
0.00406441
0.000153235
0.000160035
0.000170993
0.0272948
0.000147972
0.013076
0.00519297
0.0090808
0.0362492
0.000139512
0.000144105
0.000142274
0.00122995
0.00339834
0.000337425
0.0442335
0.000135406
0.00805716
0.000139655
0.0537598
0.000143469
0.000174327
0.000208522
0.000149119
0.000148469
0.00019194
0.000156747
0.00014781
0.000148839
0.000197951
0.00015276
0.000140756
0.00386198
0.00014809
0.000148143
0.000143806
0.000586364
0.000177008
0.00554876
0.000161529
0.000152287
0.0383206
0.000155795
0.000216407
0.000137087
0.000142319
0.0491484
0.037178
0.00388693
0.000145307
0.00015337
0.0605054
0.000217237
0.000203483
0.000711327
0.00123814
0.00317763
0.000136317
0.00594111
0.000140067
0.000186892
0.000462601
0.000192126
0.000191906
0.000151646
0.0306855
0.00019641
0.00704668
0.000206631
0.000141736
0.000143355
0.000144244
0.00135951
0.000137375
0.000876554
0.000189916
0.00757979
0.000135593
0.0252494
0.0497887
0.00575802
0.00467621
0.000149917
0.000147184
0.000142246
0.000159605
0.000144229
0.000154884
0.045414
0.000144754
0.00015026
0.0429923
0.00569767
0.00528788
0.000156391
0.000165475
0.000139829
0.0334608
0.000149609
0.0389197
0.00017447
0.000510496
0.000162221
0.000189891
0.0284062
0.000142917
0.00014236
0.0304922
0.00143489
0.000595675
0.00020786
0.000177961
0.000141608
0.000232883
0.000143911
0.000237661
0.00014364
0.000151113
0.00438844
0.000149261
0.000189883
0.000137616
0.0500071
0.000588435
0.000178026
0.000163219
0.0325628
0.000160702
0.000136019
0.0342354
0.0505532
0.0340611
0.000140073
0.000148091
0.0118914
0.0545551
0.0293242
0.000145822
0.000151067
0.000146124
0.000158163
0.000147799
0.000138448
0.00302301
0.000140874
0.0312343
0.000152532
0.000283866
0.000135615
0.0505593
0.000347265
0.000195837
0.00990006
0.00381014
0.000138618
0.000200295
0.0225547
0.000139791
0.000147544
0.000145186
0.0341494
0.0304598
0.000144573
0.0366056
0.000175098
0.000142645
0.0330536
0.000151885