/*--------------------------------*- C++ -*----------------------------------*\
| =========                 |                                                 |
| \\      /  F ield         | OpenFOAM: The Open Source CFD Toolbox           |
|  \\    /   O peration     | Version:  v2012                                 |
|   \\  /    A nd           | Website:  www.openfoam.com                      |
|    \\/     M anipulation  |                                                 |
\*---------------------------------------------------------------------------*/
FoamFile
{
    version     2.0;
    format      ascii;
    class       volScalarField;
    location    "750";
    object      nut;
}
// * * * * * * * * * * * * * * * * * * * * * * * * * * * * * * * * * * * * * //

dimensions      [0 2 -1 0 0 0 0];


internalField   nonuniform List<scalar> 
18758
(
9.99803e-05
0.00111585
0.00671672
0.0090321
0.0120576
0.0105041
0.00110379
0.00671931
0.000386001
0.000515413
0.00133092
0.00460693
0.00672128
0.00105586
0.00258975
2.45475e-05
0.00099855
0.00671928
0.00414777
0.000434585
0.00332355
0.00672572
0.00795672
0.000481011
0.000453429
0.006719
3.67662e-05
0.011052
0.00699204
0.000117845
0.0014545
0.00521585
0.00672349
0.00229474
0.00158205
0.00672368
0.0067245
0.00316156
0.00259399
0.000896714
0.00304774
0.000481959
0.00673616
0.000612513
0.000133307
0.00671572
0.00805243
0.00115802
0.000608523
0.00673361
0.00021066
0.012713
0.00671582
0.00144331
0.0121351
0.00197012
0.00672426
3.14829e-05
0.00397433
0.00109003
0.000151206
0.00151187
0.000397505
0.00118613
0.00671575
0.00672328
0.000948981
0.00672342
0.00360632
0.0128191
0.0127454
0.00187821
0.00673459
1.2539e-05
0.0067271
0.0038542
0.00054859
0.0122526
7.60332e-05
0.00599714
0.00935424
0.000309111
0.0011197
0.011245
0.000632473
0.000879618
0.00234707
0.000501503
0.000166906
0.00400855
0.010716
0.00412679
0.00224906
0.000479831
0.00978768
0.00233257
0.000673617
0.00672839
0.00673061
0.00457043
0.000376041
0.0113685
0.000873141
0.000307638
0.00320602
6.91011e-05
0.00313672
0.0117425
0.00177753
0.00170558
0.00199585
7.11389e-06
0.00671912
0.00270987
0.00689565
0.00233396
0.00406371
0.00265963
0.00555108
0.0108643
0.000568513
0.00509235
0.00664059
2.10264e-05
0.000133701
0.000164946
0.000828924
0.000532676
0.00265221
0.00673617
0.00104827
3.26941e-05
0.000897529
0.000150926
2.19526e-05
0.000852001
0.000716635
0.00100454
0.00673071
7.25818e-05
6.8753e-05
5.32655e-05
0.00326101
0.00295079
0.00321026
0.00412979
0.0028792
0.00330488
0.00143621
0.00651257
0.000251925
0.000543822
0.000872501
0.00672574
0.0100761
0.000896043
0.00595781
0.00118102
0.0023051
0.00672618
0.00672691
0.00113893
0.00202306
0.00207929
0.000153643
0.00771352
0.00365023
0.00631467
0.000139049
0.00992899
0.00915974
0.00671935
0.00205797
0.0117222
0.0011445
0.000489529
0.00791525
0.0012609
7.48163e-05
0.00267655
0.00671859
0.000198177
0.000361122
0.00675572
0.00160004
0.000498226
0.00592619
0.00329463
0.00673215
0.00595854
0.000146294
0.000546058
0.0018225
0.00141604
0.000310925
0.000424058
0.00041174
0.00014827
0.00672285
0.00673504
7.94414e-05
0.00122019
0.000377782
0.000475818
0.00672056
0.000334202
0.000820586
0.00672591
0.00289108
0.000542631
0.00671919
0.000311436
0.00217707
0.000366883
8.43146e-05
0.00837349
7.92847e-05
2.57085e-05
0.00672111
0.0101531
0.00671923
0.00187287
0.000814467
0.00409798
0.00020194
0.000792855
0.000406964
0.000174867
0.00675298
0.000382068
0.0067234
0.000440337
0.00836355
0.00078422
0.00672145
0.00613785
0.00675282
0.00671616
0.00684217
0.000480486
0.00672513
0.000291538
0.00363398
0.00200127
0.00582732
0.000422456
0.000677075
0.00672373
0.00976244
0.00033858
0.00672346
0.00736341
0.000939419
0.000312493
0.00306572
0.00058057
0.000579741
2.6773e-05
0.000393539
8.64683e-05
0.00679141
0.000802017
0.00672111
0.000458139
0.000604315
0.000960026
0.00160558
0.00672005
0.00202425
5.12882e-05
0.00207964
0.00163007
0.000419984
0.00834481
0.00270651
0.00342468
0.000196632
0.000379103
0.000138222
0.00159752
0.0057967
0.000690221
0.000468415
0.00385018
0.000780446
0.000309219
0.00864862
0.00026074
0.00833388
0.00674697
0.00671635
0.000162252
0.00853996
0.000561144
8.76812e-05
0.000355369
0.000630937
0.0105062
0.00427257
0.0037437
0.0101911
0.00671596
0.0132705
0.000238908
0.00333336
0.000470756
0.000317771
0.00254474
0.00672349
0.00220236
0.00852913
0.0067224
0.00115067
0.0106912
0.000189331
0.00672106
0.00674944
0.00218545
0.00185182
0.00675235
0.0049761
0.0010109
0.000131906
0.00027414
0.000677642
0.000454819
0.000420387
0.000159851
0.00678849
0.00672592
0.000530325
0.000194547
0.000197505
0.00847958
0.000527415
0.00188611
0.0067872
0.00391347
0.0133196
0.00675348
0.00671917
0.00675305
0.000974709
0.000192202
0.000416869
0.00510305
0.00198135
0.00673615
2.4537e-05
5.74119e-05
0.000281584
0.000104165
0.00221309
0.000560725
0.000106327
0.00052167
0.000286457
0.00555164
0.00463911
0.000464071
0.00672052
0.000384712
0.00162236
0.00779557
0.000796837
0.00674676
0.000469117
0.00362494
0.00097059
0.00302503
0.00551918
0.00179524
0.000433986
0.00236074
0.00329727
0.00114483
0.00484637
0.00243201
0.00184607
0.00128438
0.00153534
4.31522e-05
0.00304772
0.00672184
0.00520158
0.00182647
0.000401237
0.00312448
0.00123978
0.00589786
0.00053298
0.00476928
0.00671989
0.00377842
0.00338132
5.15529e-05
0.00245266
0.00672629
0.000517812
0.00950447
0.000486079
0.00671951
0.00775994
0.00515281
0.00361996
0.00671886
0.00179733
0.0057096
0.000571241
0.000118132
0.00694822
0.00567386
0.0121621
0.000763498
0.00672114
0.00139542
0.00358378
0.00671924
0.000720861
0.000782268
0.0001508
0.000481583
0.000538671
0.00672213
4.69803e-05
0.00789626
0.0133901
0.00865713
0.00190938
0.00163194
0.00671961
0.00672451
0.00198187
0.00179588
0.000901863
0.00127039
0.000260707
0.000902277
0.0004368
0.000911733
0.00382377
0.000543459
0.000154007
0.00129423
0.00494359
0.00644099
0.00672235
0.00497671
0.000464156
0.00216447
0.000579896
0.00154696
0.000167093
0.0029044
0.00395548
0.00142962
2.38477e-05
0.00603454
0.00019621
0.000212554
0.000959259
0.000486638
0.000482804
0.00111333
0.00176
0.000265559
0.00282134
0.0017683
0.001482
0.00255342
0.001242
0.000984627
0.00131006
0.00177987
0.00671577
0.000491579
0.00673441
0.00305284
0.0046232
7.71474e-05
0.00672186
0.00453847
0.000991271
0.00672238
0.00672945
0.00671892
0.00667619
0.00237849
0.00654128
0.00104027
0.0016825
0.000320566
0.00672578
0.00672611
0.0124894
0.00672977
0.00672238
0.000304567
0.00672039
0.000215966
0.000324542
0.00672239
0.00548565
0.000431357
0.00136988
0.000784753
0.00618733
0.00140309
0.000200769
0.000766568
0.00672213
1.59512e-05
0.00173429
0.00196643
3.26058e-05
0.00272563
0.00155426
0.00331014
0.000866078
0.00196239
0.00471957
0.00406408
0.00332526
8.25625e-05
0.00672219
0.0061292
0.000544962
0.000485412
0.00674457
0.000205862
0.0127815
0.00310348
0.00402857
0.00242018
0.00255681
0.00389246
0.00672887
0.00672631
0.00731691
0.00121907
0.00785473
0.00532587
0.000230445
0.00195993
0.00672126
0.00673278
0.00116418
0.00672242
0.0015162
0.000958083
0.00266536
0.000462137
2.44063e-05
0.00671939
0.0128684
0.0121318
0.000230888
0.000250652
9.89927e-05
0.000526263
0.00120093
0.000988875
0.0127391
0.00106302
0.00125391
0.00308428
0.00384239
0.000620905
4.90424e-05
0.000661956
0.00106691
0.00124387
0.00385211
0.000415681
0.000448855
0.00154248
0.000113184
0.00190374
0.00530549
0.00136915
0.00496202
0.00671921
0.00672049
0.0121972
0.00589301
0.00276844
0.000756462
0.000353192
0.0135711
0.00397243
0.0015384
0.000603509
0.00470234
0.0117056
0.00135633
0.00318672
0.000889749
0.0127896
0.0031997
0.00239638
0.00133757
0.00291155
0.00671781
0.00330736
0.000473438
0.0121237
0.00801373
0.00278731
0.0067227
0.000598779
0.00672597
0.00672635
0.00102592
0.00257497
0.000397017
0.000706123
0.000145282
0.0114957
0.000221264
0.00672184
0.000458242
0.000192819
0.0123929
0.00109621
0.000690562
0.000428171
0.00309248
0.000796013
0.00982734
0.0017724
0.00675665
5.07541e-05
0.0119545
0.000143178
0.00672033
0.0033768
0.000268437
0.000469846
0.00673372
0.000685222
0.00196344
0.00219135
0.00121484
0.00672396
0.00713452
0.00672632
0.00110959
0.00538625
0.000286932
0.00138136
0.00106891
0.0072747
0.000734834
0.00235568
0.00145073
0.00557174
0.0119261
0.00144493
0.00434152
0.00410448
0.0011084
0.00672589
0.000363384
0.00148308
0.000187182
0.00672239
0.000659447
0.000501555
0.0129548
0.00646742
0.00110015
0.000496654
0.000410066
0.000829211
0.00182489
0.0066553
0.00672384
0.00181749
0.00155631
0.00672207
0.00139138
0.00672354
0.00673929
0.00671917
0.0117163
0.00163726
0.00672565
0.00061747
0.000508337
0.00672043
0.00233768
0.00387368
0.00659586
0.000380491
0.000210285
0.00167724
0.00143178
0.000558367
0.000197531
0.000381118
0.0086546
0.00041232
0.00952353
0.00053799
0.000523911
0.00172325
0.00208541
0.00675429
0.0128213
0.000528937
0.00671821
0.00723517
0.00672193
0.0067192
0.000663724
0.0067193
0.00014285
0.0125449
0.00673228
0.00165385
0.00466491
0.000643247
0.0119762
0.00671904
0.0119356
0.00107672
0.00353606
0.00673166
0.00672432
0.000308911
6.93382e-05
0.00192989
0.000223224
0.00951312
0.000570689
0.00672205
0.000595977
0.00154639
0.000705564
7.46181e-05
0.000287344
0.00132244
0.000881133
0.000295949
0.00171914
0.000486658
0.00672006
0.000897034
0.00220004
8.39253e-05
0.0004088
0.00233495
0.00545446
0.00131592
0.00672513
0.000811832
0.00109416
0.00671927
0.000864149
0.000291606
0.000317434
0.000569587
0.00431727
0.00862914
0.00672251
0.00672405
0.00451092
0.00672245
0.000295102
0.00107859
0.00140939
0.00672243
0.000394952
0.0067284
0.00366907
0.0011762
0.000289056
0.00015194
4.1039e-05
0.000219609
0.00672286
0.00116737
0.0080494
0.00672253
0.00158759
0.00147864
0.0126444
0.000926331
0.0101211
0.00672005
0.000524096
0.00672586
0.000839245
0.00316652
0.00165116
0.0013229
0.00671981
0.0067919
0.00672008
0.00743819
0.000308569
0.00113254
0.0118792
0.00302173
0.000921965
0.000927627
0.000427499
0.00584752
0.00113028
0.00672577
5.58682e-05
0.00672297
0.00309513
0.000910034
0.00315882
0.00719445
0.000519767
0.00186226
7.34781e-05
0.00116803
0.0049486
0.000344189
0.00671929
0.00066661
0.00102121
0.00672364
0.0103559
0.0090155
0.00672237
0.00286279
0.000694363
0.000895088
7.91691e-05
0.00322272
0.00939527
0.000277064
0.00671969
0.00673009
0.0117233
0.00329994
0.00356661
0.0010042
0.00311817
0.00784844
0.000859826
0.00057521
0.0120471
0.000668672
0.00163057
0.00159402
0.00671955
0.00671488
0.00672018
0.002752
0.00241689
0.000685248
0.00672242
0.00672515
0.0012856
0.00515061
0.000658608
0.000615381
0.00024688
0.0122047
0.00130773
0.000754475
0.000649509
0.0038714
0.000300169
0.00407339
0.00625239
0.000531867
0.00695667
0.00518392
0.00246625
0.00115971
0.000147992
0.0120017
0.00625954
0.000132615
0.000192869
0.00684158
0.00672053
0.00073837
2.3063e-05
0.00172941
0.00672036
0.00320594
0.000749596
0.00776406
1.95419e-05
9.59185e-05
0.00582302
0.00178029
0.000347424
0.000351418
0.00232123
0.000222617
0.00672493
0.00140641
0.000222707
0.00672212
0.00672102
0.00136613
0.000570064
0.00671929
0.00175959
0.00673591
0.00376091
0.000870515
0.00516201
0.0067508
0.000128769
0.00672424
0.000546567
0.00040474
0.000291662
0.006725
0.00237717
0.000129453
0.000634364
0.000952207
0.00398511
0.00177926
0.0037246
0.00275187
0.0109729
0.000234792
0.000196903
0.00672179
0.00203024
0.0067226
0.000641069
0.00673387
0.000376092
0.0100806
0.00671966
0.00383047
0.000805505
0.00361715
0.00592992
0.0030491
0.0012663
0.00188072
0.00672344
0.00673408
0.00672006
0.000438193
0.00146926
0.00019757
0.00154211
0.00889218
0.00673203
0.00655871
0.00685106
0.00577425
0.0115243
0.0067184
0.000378815
0.000939118
0.00672951
0.00499095
0.00672248
0.00836888
0.00211047
0.00672382
4.29225e-05
0.000734874
0.00671961
0.000371335
0.000404618
0.00672237
4.32105e-05
0.00671934
0.000311875
0.0100028
0.00104992
0.00672893
0.000745429
0.00220329
0.000288949
0.00061218
0.00103367
0.0048845
0.00109051
0.000550675
0.00672392
0.0067597
0.00672053
0.00118361
0.00042007
0.00124575
0.0044111
0.000950842
0.00137595
0.00309693
0.000855233
0.00606058
0.00672906
0.00134458
0.000148543
0.00672583
0.00309723
0.00672251
0.00334325
0.00672934
3.05034e-05
0.0120507
0.00672297
0.00155975
0.00671931
0.00101781
0.0067201
0.00450081
0.00044257
0.00672568
0.00676431
0.00672323
0.000218733
0.00672021
0.00393306
0.0135647
0.00183773
2.51471e-05
0.000140128
0.0120706
0.000133533
0.0067229
0.00672853
0.000676997
0.0045976
0.00081127
0.00109859
0.0006425
0.000571672
0.00326943
0.000430005
0.00136297
0.00672128
0.00024109
0.0123312
0.000244494
0.00671979
0.00478323
0.00105598
0.00174585
0.00146638
0.000898227
0.00672333
0.00676241
0.00678491
0.00116992
0.00672311
0.00539678
0.0112711
4.22572e-05
0.00114424
0.00672815
0.000211005
0.000719028
0.00672253
0.00059446
0.000378236
4.73189e-05
0.000820921
0.00294212
0.00148988
0.000689996
0.0067202
0.000216143
0.00195205
0.000252468
0.000421628
0.000349074
0.005184
0.000534681
0.0117035
0.00933936
0.000345155
0.000201708
0.0023597
0.00672318
0.00672329
0.0018594
0.000290742
0.00672349
0.000962544
0.000336424
0.00118363
0.00671989
0.00671948
0.00379831
0.00672586
0.000677915
0.00480488
0.000534393
0.00672259
0.00252745
0.000324087
0.00672296
0.00115016
0.00677015
0.000351796
0.00150542
0.00550638
0.0106697
0.000187552
0.0119941
0.002988
0.000505757
0.00545177
0.00743204
0.0109657
0.00673977
0.00102978
0.000799871
0.00672163
0.00671906
0.0022984
0.00339888
0.00672073
0.000225845
0.000423667
0.00672017
0.00087343
0.0067229
0.00121135
0.000732204
0.00672323
0.0114619
0.00103516
0.00671948
0.000431489
0.000177416
0.00085191
0.00672613
0.000717585
0.00263338
0.0122857
0.00604419
0.00673643
0.00435549
0.00671787
0.0120622
0.0067196
0.000427731
0.00662228
0.0126133
0.00294518
0.0016208
0.00672113
0.00102413
0.00083829
0.000437136
0.0067148
0.00115568
0.00672499
0.00368024
0.000221229
7.01143e-05
0.00025189
0.00672004
0.00299016
0.000424519
0.00219989
0.000221526
0.00643751
0.00553726
0.00782403
0.00672105
0.00673725
0.00475652
0.0114672
0.00509294
0.00619312
0.0121829
0.00124036
0.00732803
0.00110173
0.00671698
0.00671922
0.000981451
0.00162368
0.00672462
0.00756463
0.00855673
0.00672036
0.00841002
0.000355866
0.00449144
0.00292515
7.47706e-05
0.00672461
0.00481635
0.000380013
0.00672017
0.000563316
0.0028203
0.000538146
0.00393882
0.00321857
0.000441021
3.10502e-05
0.000442483
0.0052603
0.0020989
0.0067206
0.000283175
0.0015831
0.0130086
0.00671796
0.00310086
0.0041003
0.00672578
0.000201558
0.00671765
0.00231124
0.00693993
0.00028784
0.000631456
0.000557596
0.000551118
0.00178271
0.00149144
0.000513831
0.0010334
0.00139071
0.00561892
0.0067256
0.00672343
0.00192984
0.00671934
0.000333864
0.000729747
0.000422056
0.00672
0.00131361
0.00298912
0.00131394
0.0067198
0.0003001
0.00227922
0.0067296
0.00679801
0.011661
0.00112407
0.00672268
0.00297505
0.000743102
0.00443871
0.000208035
8.55424e-05
0.00781557
0.000924651
0.0110846
0.0023655
0.0039792
0.00672038
0.0103703
0.00458673
0.00672082
6.21982e-05
0.00471418
0.00672391
0.00672199
0.00149365
0.000569043
0.00672394
7.85633e-05
0.0111299
0.0015349
0.00671859
0.00195172
0.0134195
0.00679353
0.00102301
0.00672617
0.00671959
0.00383653
0.00672902
0.000805965
0.00369555
0.00423866
0.00537604
0.00672611
0.000672653
0.00672104
0.00460228
0.00313958
0.00528414
0.000824757
0.0018743
0.000199406
0.00150619
0.00314589
0.00672399
0.00672469
0.00983565
0.00450489
0.000432809
0.000130492
0.00938842
0.00671934
0.00672274
0.0103005
0.00672244
0.000154683
0.000358957
0.00210299
0.0114019
0.0129405
0.000295059
0.00186288
0.000883994
0.00175363
0.00673232
0.00127693
0.00672089
0.000283264
0.00672215
0.00581472
0.000485763
2.67542e-05
0.000108818
4.28129e-05
0.0067235
0.00632038
0.00672388
0.0107362
0.00064788
0.00671866
0.00673473
0.00489995
0.000434438
0.000140713
0.0121485
0.00107774
0.00540511
0.00671792
0.00447929
0.00216861
6.85929e-05
0.000338206
0.00672324
0.00672373
0.000794018
2.5326e-05
0.00448365
0.000389113
8.59667e-05
0.00490646
0.00155955
0.00104423
0.000534444
6.44952e-05
0.00110623
6.89787e-05
0.00675034
0.00672087
0.00387014
0.000446107
0.000404897
0.000502316
0.00672514
0.00293203
0.000136289
0.000124193
0.0106047
0.00672814
0.00844066
0.00763961
0.00195706
0.00671737
0.00840992
0.000771962
0.00672002
0.00082231
0.00784542
0.00155199
0.00671975
0.000421078
0.00672571
0.00304576
0.000333267
0.00377881
0.00672601
0.00672579
7.29449e-05
0.00122046
0.00310783
0.00213078
0.00612462
0.000239872
0.00672542
0.00672829
0.000305298
0.00226311
0.00532174
0.00428168
0.000228592
0.00371392
0.0007972
0.0109228
0.00204305
0.00466055
0.0033487
0.0103809
0.00673622
0.0119011
0.000187212
0.00636571
0.00736863
0.000451041
9.01939e-05
0.00672591
0.000400026
0.00672053
2.21312e-05
0.00671557
0.000782571
0.00253302
0.00672669
0.00818294
0.00264829
0.00336371
0.00142918
0.00707072
0.00672224
0.00672121
0.00601425
0.00555886
0.00678029
0.00672267
0.00171534
0.00672231
0.00672365
0.000506453
0.00672358
0.000455882
0.00675555
7.71802e-05
0.00326249
6.49248e-05
0.00669513
0.0013333
0.00050987
0.00673212
0.00672012
0.00295619
0.00308457
0.00826803
0.00369364
0.00672588
0.00672636
0.00111354
0.00672052
0.000416893
0.00050057
0.0132577
0.0120444
0.00394681
0.00798948
0.00678519
0.0134173
0.00741548
0.0117898
0.000630648
0.00214239
0.00114501
0.0067319
0.0103052
0.00108066
0.000510135
0.000861633
0.00368949
0.00672663
0.00671668
0.0115219
0.000855593
0.00317571
0.00671538
0.00112756
0.00672236
0.00210508
0.00374086
0.00542922
0.0101279
0.00117426
0.000538647
0.00492256
0.000519872
0.00672297
0.00574495
0.00677585
0.00526703
0.00251618
0.00483074
0.00030291
0.00725796
0.000249216
0.000619104
0.00148235
0.000465557
0.00265953
0.00186636
0.00839037
0.00753661
6.83293e-05
0.0120581
6.07023e-05
0.000546391
0.000582474
0.00117435
0.00673207
0.000291227
0.00124135
0.0067219
0.00702023
0.00673996
0.00303482
0.00672245
0.0108184
0.000615991
0.00672031
0.00517494
0.00644177
0.000117769
0.000105901
0.000565779
0.00245115
0.00498724
0.00671922
0.00630889
0.000524492
0.000120053
0.00671522
0.0129096
0.00101396
0.0121549
0.00671994
0.0032536
0.00015948
0.00672966
0.00672234
0.00473478
0.00651847
0.0120843
0.00151124
0.00671938
0.00199538
0.00672003
0.0122231
0.000484166
0.00672216
0.000527499
0.00513362
0.0018281
0.00812145
0.00676773
0.0067298
0.0067221
0.00678043
0.00672924
0.0030756
0.00671412
0.00196222
0.00110831
0.000516271
0.00672021
0.00251563
0.00144532
0.0123018
0.00176919
0.000206342
0.0103052
0.0122028
0.00463417
0.00106716
0.0067204
0.00553599
0.000886751
0.000623296
0.00570174
0.000443892
0.00148188
0.00252762
0.00100102
0.00672064
0.0134328
0.000170744
0.00711666
0.00360861
0.00034797
0.0012656
0.00671857
0.000868294
0.000928115
0.00672801
0.00828938
0.00672246
0.00110972
0.00672028
0.000406137
0.000289416
0.00104945
0.000595077
0.00122222
0.000834559
0.000870658
0.00115246
0.00676349
0.00933922
0.000377895
0.00672571
0.000293805
0.000682161
0.000687968
0.0063503
0.00181071
0.00672334
0.00674714
0.0038026
0.0100696
0.00117295
0.00672223
0.00272071
0.00672306
0.00672065
0.000643341
0.0125016
0.00203581
0.00252594
0.012643
7.32557e-05
0.00418604
0.00234812
0.0122496
0.000548341
0.00671606
0.00127744
0.00280294
0.00299785
0.000932904
0.00169384
0.000986999
0.000414468
0.000104598
0.00418738
0.0066018
0.0067209
0.0133374
0.00672582
0.00143711
0.0108132
0.00672364
0.00544067
0.00672593
0.00118584
0.000487494
0.00671944
0.000874407
0.00238757
0.00115291
0.000248649
0.00141907
0.00672177
0.00468764
0.00673684
0.00104691
0.000452178
0.000640819
0.0067227
0.00486396
0.0129717
0.00671915
0.00672053
0.00194892
0.000391214
0.000704529
0.000427699
0.00079668
0.00672935
0.00122044
0.00238837
0.00160507
0.0120031
0.00672406
0.000304912
0.0113216
0.00112353
0.00605455
0.000396613
0.00676168
0.00672412
2.89367e-05
0.000242304
0.000408321
0.0067249
0.00653641
0.000651765
0.00120547
0.00379094
0.00133119
0.00482941
0.00246223
0.00672004
0.00373121
0.0133015
0.00671612
0.00758158
7.30459e-05
0.000926674
0.00672845
0.00937384
0.00900352
0.00675152
0.0067265
0.00599308
0.00196442
8.78241e-05
7.60041e-05
0.000485575
0.00672295
0.00121956
0.000456678
0.00672592
0.00900569
0.00027248
0.00485676
0.000481519
0.000497311
0.00672254
5.89215e-05
0.00672354
0.000130164
0.0015843
0.00108616
0.0067148
0.00463733
0.000479682
0.0031923
0.0116175
0.00135411
0.00321555
0.00339125
0.00671974
0.0067344
0.0117116
0.00672581
0.000221094
0.00672027
0.00673506
0.000422522
0.0124403
0.00672063
0.00672028
0.00425585
0.00162674
0.000740363
0.00088095
0.00509682
0.00141413
0.00671864
0.000402355
0.0120905
0.00202287
0.000918704
0.00753853
0.000653265
0.00212352
0.00063728
0.00673125
0.00399331
0.00117679
0.00672204
0.0018373
0.00407383
0.00649926
0.0037909
0.0114302
0.00303296
0.000715188
0.0120927
0.000553197
0.00133977
0.00671914
0.0108144
0.00672588
0.000558264
0.00673886
0.000672213
0.000548554
0.0013518
0.00130535
0.00440316
0.00086922
0.00672452
0.00706899
0.00546037
0.00672033
0.000894763
0.00671978
0.000449973
0.00612263
0.000136577
0.000521306
0.00190913
0.00270368
0.0131458
5.40435e-05
0.00671926
0.000992372
0.00672099
0.00671865
0.00672718
0.000788972
0.00455874
0.00189517
0.00168406
4.90147e-05
0.00254631
0.00129154
0.00672016
0.000143382
0.00666471
0.00264043
0.0012661
0.0119748
0.00365151
0.000726666
0.000822622
0.00673324
0.00102442
0.00620332
0.002935
0.00672628
0.00672676
0.000972487
0.00671929
0.00672556
0.00047762
0.00109946
6.4615e-05
0.0027297
0.00671985
0.00683781
0.00672073
0.00034176
0.00592687
0.00671731
0.00100575
0.00672731
0.0121595
0.00454625
0.000762633
0.00606619
5.07607e-05
0.000531203
0.00372283
3.02761e-05
0.0067224
0.000205452
0.0023104
0.00108858
0.00672471
0.00672038
0.000630339
0.000524393
0.0104735
0.00185431
0.000217792
0.000902353
0.00246155
0.000679557
0.00216749
0.0117408
0.0126577
0.00401343
0.00601973
0.00671448
0.0043261
0.00783341
0.00672321
0.00966754
0.00672335
0.000881241
0.00671504
0.00393266
0.00450128
0.00467652
0.000698915
0.000183668
0.000414685
0.00516989
0.00672376
0.00671598
0.00672028
0.00671859
0.0067254
0.0067214
0.0113186
0.00828807
0.00921371
0.00118597
0.00484199
0.000489568
0.00984466
0.00464731
0.00052281
0.00672221
0.00190912
8.01845e-05
0.00175071
0.0120606
0.0030185
0.00175672
0.00671747
0.00129735
0.00964446
0.006721
0.010174
0.0046738
0.00672251
0.00937772
0.00673085
0.000387626
0.00672324
0.00775796
0.00675707
0.00484729
0.000293166
0.00674182
0.00672227
0.00420235
0.00671852
8.888e-05
0.0057307
0.000396345
0.00672056
0.00672424
0.00672815
0.0033111
0.000507731
0.00211987
0.0118777
0.00672242
0.0067519
0.00068456
8.00457e-05
0.00228111
0.00953277
0.0117948
0.000892968
0.00837652
0.00672212
0.00335779
0.00108102
0.00675081
0.00890339
0.00885559
0.00671875
0.00160887
0.00503301
0.00222425
0.000496603
0.000904731
0.00672343
0.000572356
0.000218484
0.000670702
0.000842521
0.00672064
0.00242212
0.00565063
0.00672498
0.00671809
0.00671496
0.00672438
0.00065816
0.00239584
0.00127212
0.0102386
0.00672029
0.000199167
0.00385693
0.00351402
0.00249778
0.00672638
0.00672354
0.00672686
0.00672265
0.0067233
0.00165084
0.0030108
0.00285175
0.0067251
0.00208464
0.00963738
0.00283872
0.00210162
0.0132864
0.00672415
0.0017015
0.00603505
0.00150038
0.00960589
0.00028329
0.00934776
0.000706405
0.00313141
0.00547679
0.000764647
0.0053215
0.000349773
0.00116064
0.00672461
0.0051578
0.00223456
0.00674396
0.000319535
0.0056036
0.00674355
0.00624188
0.000240449
0.00671959
0.00432699
0.00674019
0.00313145
0.00948998
0.00234404
0.0067211
0.00471336
0.00672235
0.00134893
0.00017298
0.00154757
0.000329193
0.000175199
0.00672398
0.0111431
0.00110634
0.00533366
0.00649606
0.00674673
0.00106179
0.0067209
0.0020243
0.00178466
0.00960702
0.00387005
0.00671937
0.00162345
0.00231853
0.000759912
0.00673197
0.00458957
0.000518004
0.000182498
0.00107155
0.00914933
0.00187252
0.00113101
0.0108153
0.00297516
0.00672037
0.00124662
0.0100968
0.00112083
0.000356125
0.00333936
0.0067196
0.000338691
0.000214793
0.000590732
0.00672623
0.00024395
0.00673457
0.000279887
0.000231359
0.000564795
0.00865614
0.00672042
0.000575178
0.00049929
0.00370491
0.000295665
0.00522469
0.00130901
7.28271e-05
0.000337925
0.00535166
0.00672632
0.00672472
0.000425097
0.00671865
0.00346002
0.00551939
0.00672168
0.00675377
0.000214802
0.00671469
0.000389495
0.0101526
0.00163089
0.00673652
0.00674797
0.000268511
0.000255453
0.00672314
0.00602129
0.000122192
0.00672889
0.00671731
0.011404
0.0103119
0.00671874
0.00109105
0.00022925
0.00672152
0.00374402
0.00366449
0.000282366
0.00672477
0.00295752
0.0101654
0.00672531
0.000896183
0.00808947
0.000511707
0.00323679
0.00672494
0.000668125
0.0111034
0.00619179
0.00118999
0.00059175
0.0014973
0.000686522
0.00251943
0.0044443
0.0101864
0.0136039
0.0021726
0.00309384
0.000961484
0.00420975
0.000261348
0.000953654
0.00304674
0.00675775
0.0067237
0.00551675
0.00429877
0.00671966
0.0010565
0.00720599
0.00043653
0.00672586
0.00672263
0.00147166
0.00110602
0.0011721
0.00672305
0.000735918
0.00706165
0.00671863
0.00409216
0.000908113
0.000515439
0.00672267
0.000663462
0.0017416
0.00105106
0.00156056
0.000417113
0.00665803
0.00046369
0.00016126
0.00643529
0.00671959
0.00408367
0.00140768
0.0106053
0.00102494
0.000619264
0.00672385
0.00876263
0.000711547
0.00673414
0.000799306
0.0019067
0.0126786
0.000458805
0.000857774
0.000172913
0.00187911
0.00672332
0.00672414
0.00672493
0.00128407
0.00893446
0.00123681
0.00672283
0.000463852
0.00463888
0.0105008
0.00472153
0.0119209
0.000907751
0.00975077
0.000544312
0.000139671
0.0041078
0.00672515
0.00671952
0.00918564
0.00415987
0.0012088
0.00141879
0.00671434
0.00323351
0.000317055
0.00500832
0.00126115
0.00672022
0.00489469
0.00719054
0.00110036
0.00503731
0.00556726
0.00672565
0.00143793
0.00156706
0.00179854
0.00365339
0.00468528
0.00124086
0.00410008
0.00228301
0.000271221
0.000275556
3.66137e-05
0.000396464
0.00673715
0.00398972
0.00148908
0.00967539
0.00517728
0.0067207
0.00672828
0.00673956
0.00671446
0.00350246
0.0067193
0.000211124
0.00623844
0.000891425
0.00970097
0.000697385
0.00672427
0.00672318
0.00010027
0.00672374
0.00231374
0.00672125
0.00670664
0.00182583
0.00671967
0.0022365
0.00673568
0.00620957
0.00672587
0.00672192
0.00603661
0.000288168
0.0018952
0.0048849
0.000295347
0.00673231
0.00341518
0.00151249
0.00115562
0.000488992
0.00168572
0.00672231
0.0133351
0.00272657
0.00112173
0.00136341
0.00673838
0.000342953
0.00672126
0.0116519
0.00673807
0.00567582
0.0117412
0.000488199
0.00226772
0.006719
0.000712537
0.000226181
0.000357581
0.0132615
0.00671896
0.00673667
0.00673992
0.000128089
0.00121505
0.000518363
0.0067219
0.00110257
0.00740634
0.000602064
0.00672317
0.000144667
0.000560599
0.00353284
0.000936839
0.00205049
0.00159547
0.005032
0.00585945
0.00233212
0.0113166
0.00675131
0.000537344
0.00562679
0.000137612
0.0126927
0.00537027
0.0043173
7.94652e-05
0.0067231
0.000737968
0.00672419
0.00193091
0.000991249
0.000353041
0.000290025
0.00672044
0.000671006
0.00186955
0.000318049
0.000872426
0.011185
0.00672105
0.00251188
0.00686222
0.000228225
0.00525728
0.00112507
0.0104343
0.000584526
0.00672061
0.000179287
0.0032797
0.00866541
0.00672694
0.0126125
0.000541481
0.00677097
0.000246808
0.00258314
0.0067259
0.0025731
0.00440007
0.00671948
0.00180773
0.00671863
0.00264855
0.000538262
0.000480172
0.00120995
0.00780386
0.00672571
9.47049e-05
0.000325834
0.00212951
0.000924343
0.00120595
0.00312283
0.00672467
0.00801329
0.00856248
0.00326899
0.00675394
0.00072135
0.00672307
0.0113608
0.00672207
0.000498691
0.00607567
0.00314954
8.60291e-05
0.00351397
0.00217336
0.00777455
0.000514998
0.00672104
0.00672314
0.00672566
0.011093
0.000694755
0.000379193
0.0106932
0.0027863
0.00672404
0.0080288
0.000367787
0.000326241
0.00672384
0.00556833
0.00539037
0.000533523
0.00292718
0.00122781
0.00676032
0.00672297
0.00671929
0.00877756
0.0083702
0.000934026
0.000264568
0.00142692
0.00054999
0.00672744
0.00672423
0.00129243
0.00262656
0.00673128
0.000574621
0.000147958
0.00114212
0.000224674
0.00279173
0.000857992
0.0116993
0.00237841
0.00678118
0.00288891
0.012101
0.00031526
0.000143895
0.00116881
0.00599297
0.00470818
6.74881e-05
0.00149996
0.000531188
0.00719891
0.000412362
0.010343
0.00432131
0.00784814
0.000951378
0.00182402
0.00671985
0.000841172
0.0114509
0.00672494
0.000301587
0.00597585
0.00672259
0.00102174
0.00018479
0.00159658
0.00602662
0.000957342
0.00221597
0.00672251
0.00677473
2.46232e-05
0.0027013
0.00104691
0.00115559
0.00671929
0.00672383
0.00299097
0.00512984
0.00672585
0.000954438
0.0004809
0.00107347
0.00672098
0.000316878
0.00197037
0.0134152
0.0011895
0.00281122
0.00164673
0.000166467
0.000221008
0.00314677
4.69432e-05
0.000239124
0.00673589
0.00623451
0.00184565
0.00138362
0.000797924
0.00918662
0.00672436
0.00133303
0.00023146
0.00031228
0.00408472
0.000840349
0.0112339
0.00106059
0.00960513
0.000577558
0.00947193
0.00117951
0.0060811
0.002449
0.00980941
0.0133347
0.00123197
0.00584948
0.00607221
0.00421514
0.00961163
0.00672086
0.00671671
0.000425304
0.000697073
0.00738
0.00274327
0.000185499
0.0067175
0.00468724
0.00672437
0.00757574
0.000562632
0.0132562
0.00167972
0.00207086
0.000395903
0.00763968
0.00118489
0.0134452
0.00672755
0.00672394
0.000632447
0.00672367
0.00889908
0.000273581
0.0114816
0.00270262
0.00653691
0.00757155
0.00671443
0.000252934
0.00837293
0.000146113
0.00671741
0.00151477
0.00671991
0.0110063
0.00671554
0.001811
0.0095611
0.00107045
0.000152592
0.000466295
0.00671742
0.00197955
0.000318839
0.00330906
0.00675623
0.0067187
0.00105045
0.00628023
5.03541e-05
0.00672316
7.40007e-05
0.00653465
0.00672307
0.0024385
0.00610195
0.00682197
0.00504068
0.00672214
0.000727338
0.0119059
0.00672943
0.00672359
0.00235711
0.00124296
0.00091071
0.00671829
0.0115991
0.00315687
0.00911773
0.00672039
0.00808452
0.00452378
0.000606275
0.00599942
0.000423421
0.000356873
4.45792e-05
0.00718434
0.000154383
0.00228833
0.00853606
0.00181768
0.00154337
0.00085887
0.000660439
0.000226767
0.0056405
0.00021417
0.00444945
0.011929
0.000176457
0.00673337
0.000745743
0.0116773
0.00672573