/*--------------------------------*- C++ -*----------------------------------*\
| =========                 |                                                 |
| \\      /  F ield         | OpenFOAM: The Open Source CFD Toolbox           |
|  \\    /   O peration     | Version:  v2012                                 |
|   \\  /    A nd           | Website:  www.openfoam.com                      |
|    \\/     M anipulation  |                                                 |
\*---------------------------------------------------------------------------*/
FoamFile
{
    version     2.0;
    format      ascii;
    class       volScalarField;
    location    "750";
    object      p;
}
// * * * * * * * * * * * * * * * * * * * * * * * * * * * * * * * * * * * * * //

dimensions      [0 2 -2 0 0 0 0];


internalField   nonuniform List<scalar> 
18758
(
-0.106019
-0.325611
0.00122245
-0.0403126
-0.107351
-0.284398
-0.40988
0.00539077
-0.166631
0.00913878
-0.0269554
-0.411666
0.0131642
-0.0580321
-0.0204156
0.233404
-0.0717297
0.0140102
-0.0129713
-0.00178793
-0.0603926
0.0191746
-0.415045
-0.130198
-0.352667
0.00558122
7.45528e-05
-0.13684
-0.356154
-0.215398
-0.0674108
-0.0504908
0.0144651
-0.0240512
-0.0808397
0.0225236
0.0147004
-0.00904448
-0.014126
-0.0783012
-0.00982059
0.0832976
-0.00140415
0.048115
-0.274847
0.00343854
-0.415778
-0.0213657
0.0111086
-0.00148824
-0.217872
-0.0576381
0.00144517
-0.0255717
-0.142607
-0.39321
0.01466
0.335941
0.0299296
-0.0582998
-0.113525
-0.409319
-0.147685
0.0540823
0.00161169
0.0281062
-0.0758366
0.0144315
-0.00760983
-0.0546966
-0.0629756
0.0518847
-0.00166978
-0.330494
0.00230787
0.0282686
-0.112702
-0.100879
0.0711408
-0.413672
-0.415923
-0.321612
-0.0588201
-0.256407
-0.108858
-0.0635806
-0.393824
-0.147999
-0.391402
0.027778
-0.25649
0.0302599
-0.40363
0.085416
-0.41504
-0.401159
-0.106283
0.00204498
0.0201827
-0.0600732
-0.0130578
-0.249589
-0.0984185
-0.0962318
-0.0499558
-0.221534
-0.0688464
-0.0949925
-0.0155137
0.0574705
-0.400739
-0.784708
0.00695664
0.0155168
-0.224082
-0.349544
-0.257987
-0.020184
-0.412959
-0.409938
-0.0865553
0.0351024
-0.406675
0.123641
-0.234121
-0.267678
-0.321291
-0.181094
-0.398232
0.0118847
-0.0729308
-0.0104237
-0.0591584
0.0739644
0.262483
0.0545538
-0.114005
-0.0800604
0.0197486
0.187494
0.0851804
-0.015082
0.0200363
-0.389688
-0.0105737
-0.0143496
-0.0998814
-0.0566263
-0.0659357
-0.152231
-0.315121
-0.0736447
-0.063971
0.0184339
-0.416981
-0.0556834
-0.413894
-0.0207078
0.0334136
0.0201545
0.00929884
-0.0598004
-0.39568
0.0322197
-0.113176
-0.351478
-0.0138465
-0.407919
-0.228382
-0.262701
-0.383387
0.0142072
-0.399466
-0.130793
-0.0605963
-0.127672
-0.321354
0.0550959
0.177572
-0.00548848
0.00825618
-0.327823
-0.0745325
-0.00491327
-0.0385053
-0.0809209
0.0255987
-0.35174
-0.000769418
0.0275499
0.0672393
-0.182524
0.0143201
-0.0656589
0.0454229
-0.153004
-0.00507221
-0.239455
0.0157889
-0.00127191
0.221813
-0.0187775
-0.048687
-0.139742
0.0131763
0.0436557
-0.104661
0.0183367
-0.0570614
0.0152759
0.0135448
-0.101072
0.0312657
-0.0557456
0.11783
-0.417649
0.115467
0.289913
0.00246331
-0.293032
0.0137511
-0.0152555
-0.0940964
-0.0984275
-0.274427
-0.102438
-0.129781
0.0263617
-0.00471201
-0.144445
0.0284507
-0.153713
-0.414013
-0.103292
0.0132488
0.0257282
-0.00452941
0.00394732
-0.406387
-0.0706201
0.0112907
-0.316397
-0.0681167
-0.0264157
-0.149917
-0.405558
-0.101357
0.0224208
-0.41535
0.120888
0.0226778
-0.411753
-0.0648773
0.12056
-0.0184178
-0.0937806
-0.109663
0.312113
-0.0514417
0.0502923
-0.00701606
-0.0996266
0.0216766
-0.13671
0.0171605
-0.0918531
-0.41464
0.00260949
-0.0150995
-0.113928
-0.0141507
-0.0377266
-0.14081
-0.38265
-0.253579
0.0217073
-0.205483
-0.0718273
-0.29772
0.0167072
-0.0071626
-0.049809
-0.0729538
0.0201169
-0.0647491
-0.304372
-0.0512396
-0.0597967
-0.416392
-0.00384481
0.00114212
0.0192343
-0.418259
0.0985444
0.0645008
-0.173088
-0.0447982
-0.416869
-0.0123673
-0.0502614
-0.263801
0.0036541
-0.0516696
0.0537658
-0.0082773
-0.0435092
-0.16725
-0.0228376
0.0226186
-0.417706
-0.0500938
0.0194518
-0.414377
-0.414059
-0.266325
0.0237209
0.0116717
-0.0553612
-0.0255374
-0.00448251
-0.00723704
0.0747243
-0.226924
-0.171336
-0.0480529
-0.0662196
0.00226903
0.0601447
-0.00675435
0.0201956
-0.174186
-0.060315
-0.212506
-0.0412108
0.101654
0.0136371
0.0096956
-0.0481063
-0.049922
-0.00488181
0.0130768
-0.00468044
0.0550752
0.0305408
-0.341976
0.0345338
0.0535853
-0.00222544
0.20061
-0.011436
-0.209398
-0.151733
-0.0254225
-0.190701
-0.0940223
-0.0805034
0.126255
-0.410508
-0.0795875
-0.0804627
0.0137915
-0.00886445
-0.369853
-0.379258
0.00595337
-0.00370332
-0.123581
-0.0128401
-0.0629828
-0.333722
-0.0461527
-0.0671173
0.00568949
-0.414463
0.0347997
-0.0183106
0.0205388
-0.0141968
-0.0800274
-0.0312823
-0.414711
0.0166861
-0.0179888
0.0195912
-0.297606
-0.067876
-0.162261
0.0350979
-0.0652608
-0.00665839
0.0834688
0.0351485
0.00288821
-0.203694
-0.057066
-0.245242
-0.394131
0.0101931
-0.126218
-0.0578174
-0.0958565
0.0068197
-0.0414894
-0.00575848
-0.0150791
0.00816881
-0.0801042
0.0323179
0.0516101
-0.145314
-0.41061
-0.00702726
-0.103566
-0.0940386
0.0234491
-0.043835
0.0316652
0.0132719
-0.0424629
-0.100478
0.0550632
-0.430069
-0.0897139
0.0257814
-0.093763
-0.0589426
-0.0466347
-0.379409
-0.0749418
0.0191516
0.00305056
0.0112955
0.0320515
-0.0657521
-0.0799567
-0.0551871
0.0545281
-0.0651619
-0.066768
-0.100482
0.0317071
-0.0635816
-0.391461
0.0365063
-0.0465606
0.00941618
0.0248658
-0.0569911
0.0728708
-0.0160772
-0.105964
-0.082541
0.0166652
-0.407057
0.029033
0.0379121
0.264636
-0.412245
0.142419
-0.142239
-0.0572472
-0.068216
-0.271685
-0.0584688
0.0523748
-0.213219
0.016496
-0.065213
-0.0120054
-0.404598
-0.0639184
-0.359625
-0.0551061
-0.0671529
0.00372801
-0.134421
-0.00141011
-0.0776275
0.0209215
-0.188164
0.0216578
-0.0509422
-0.0648828
0.0203267
0.0204531
0.00785144
-0.0590469
-0.11618
-0.225833
-0.0730187
-0.0356443
-0.169041
0.0168003
0.0215262
-0.0595402
0.0208913
0.0258332
-0.177877
0.0136637
-0.136268
-0.165564
0.0259923
0.0321523
0.0857322
0.0364506
-0.0580413
-0.126845
-0.0387774
0.136438
-0.0188931
0.0255955
0.189908
0.0568737
-0.0133743
-0.089033
-0.332378
-0.066668
-0.0543419
0.00669561
-0.0136703
-0.329764
-0.0133329
-0.223612
-0.173028
0.0209452
-0.122978
-0.189226
-0.124525
0.00752342
-0.0579964
-0.0544736
-0.00974183
-0.00561154
-0.0212806
-0.0226904
-0.0147318
0.004605
0.0215601
-0.406529
-0.0426898
-0.353262
0.0351167
-0.225166
-0.333062
0.0217623
-0.000910158
-0.0401591
0.0154751
0.0160025
0.0708808
-0.0044136
-0.138965
0.175132
0.000525329
-0.0547796
-0.137728
0.146675
-0.211028
-0.190691
0.0856321
-0.0379692
-0.0580687
-0.0607428
-0.0411354
-0.0634154
0.0187387
-0.063177
-0.0908379
-0.0305513
-0.117095
-0.40924
-0.0394307
0.0242784
-0.128909
-0.345757
0.0184562
-0.220419
0.0461226
-0.0675682
0.0133566
-0.00550012
0.00774731
0.0135333
-0.122212
-0.0664798
0.0366404
-0.0581929
0.066399
-0.0440024
-0.115486
-0.0569249
-0.299384
-0.0113341
-0.137438
-0.0643256
0.00962112
-0.0777178
-0.0600974
-0.0588495
-0.0235995
0.0657812
0.0127981
0.00154279
-0.054396
-0.134133
-0.135287
-0.0566221
0.0415454
0.0157114
-0.110305
0.0192534
0.00934899
0.0705179
-0.0211723
-0.142707
-0.0885607
-0.233116
-0.0881645
-0.143134
0.021671
0.0718677
-0.199066
-0.0681265
-0.0622754
-0.360547
-0.11944
0.037404
-0.0591665
-0.0456457
0.0135379
-0.00493622
0.274894
-0.251077
-0.241742
0.0134217
-0.08128
-0.0566616
-0.350776
-0.0016929
-0.400649
-0.416224
-0.391447
-0.0314693
0.022144
-0.262564
0.021673
-0.0739058
-0.224567
-0.223152
-0.408261
-0.0925477
-0.0661367
-0.103377
0.0342501
0.0649791
-0.386493
-0.0413473
-0.418354
-0.0445402
-0.0135049
-0.0754971
0.0166846
-0.132902
-0.0823046
-0.211096
0.0207549
0.0549108
-0.124296
-0.0588631
-0.389203
-0.416484
-0.0835501
-0.0170866
-0.0983452
0.0548389
-0.00588664
0.0255363
-0.0322009
-0.0678546
0.0262879
-0.0819053
0.0124541
0.0116981
0.012599
-0.114997
0.0576282
0.0156718
-0.107592
-0.112946
0.000467829
-0.198554
-0.0132967
-0.00788306
-0.126544
0.126376
-0.0365451
-0.000500975
-0.350523
0.147181
-0.0424434
-0.0498958
-0.0458211
-0.0412696
0.110698
-0.13724
-0.389415
-0.0542005
-0.00464124
-0.0642529
-0.158313
0.00475344
-0.0920262
0.0236916
0.0120896
-0.0878099
0.0139932
-0.146879
-0.0658498
-0.00102983
-0.398565
-0.0109314
-0.0850797
-0.0406073
0.000417145
-0.223914
0.0121476
-0.0126688
0.0251071
0.0258989
-0.215381
0.234395
-0.301194
-0.148955
-0.285217
-0.113366
0.0260742
-0.119738
-0.417325
-0.301703
0.219517
-0.205503
-0.0620715
-0.0406123
-0.220898
0.00222198
-0.341584
0.0131426
-0.400025
-0.0248934
0.205067
0.0899159
-0.0140997
-0.354179
0.0659563
0.00981863
-0.352392
0.0140387
0.0128008
-0.0816773
-0.170633
-0.21763
-0.357929
-0.0576602
-0.285997
0.0155335
0.0220444
-0.0834617
0.0268852
-0.306934
-0.0929762
-0.0285188
0.0258242
-0.0395182
0.0309722
-0.0119179
-0.0546175
-0.304639
-0.237089
0.269453
-0.114963
0.0172235
-0.0793626
-0.309343
0.0127125
-0.0809275
-0.0334431
-0.0624677
0.0678033
-0.417726
0.0130515
-0.174454
0.0156102
-0.104135
0.0102087
-0.0314228
-0.0378523
0.000353111
-0.00748623
0.00114936
-0.0585413
-0.156246
-0.0605317
-0.22454
0.0380288
-0.0777808
-0.0552757
-0.1498
-0.412387
-0.0603053
-0.000941047
-0.0503339
0.0124048
0.0384347
-0.0559888
-0.295981
-0.41265
-0.274261
-0.0533025
0.245391
0.0728197
0.0173456
-0.331487
0.0123132
-0.329762
-0.0548998
0.0224664
-0.0854971
-0.297024
0.0245858
-0.305406
-0.0195926
-0.0550253
0.0423028
-0.0522611
-0.291948
-0.307535
0.0125037
0.00114224
-0.0842068
0.0221302
-0.00687056
-0.0569538
0.0237191
-0.0534725
-0.061406
-0.11318
-0.324306
-0.0968063
-0.0805447
-0.0328144
0.0136421
0.00159337
0.00784437
-0.272398
-0.0553399
-0.0552545
0.0260004
-0.000828749
-0.0386352
0.00676695
-0.0898258
0.0519786
-0.296628
-0.0606064
-0.0834146
-0.0923516
-0.0552061
-0.00622883
-0.219149
0.0170622
-0.413489
-0.163807
-0.4141
-0.284486
-0.0218871
-0.0547404
-0.278677
-0.333018
-0.413918
0.207491
-0.206566
-0.330159
0.0136608
-0.0966977
0.163889
-0.0639358
0.0135474
-0.00830427
-0.0884108
-0.060244
0.240474
-0.0360531
0.0339389
-0.0308669
0.126672
-0.42179
-0.0132903
-0.287609
0.0169894
0.0381653
-0.245044
0.0126642
0.022904
-0.0127361
0.0210737
0.0132805
0.00181094
-0.00205651
-0.0581113
-0.0534045
-0.0558439
-0.00421978
0.126517
0.0287133
-0.118013
-0.168663
-0.00989238
0.0174083
-0.0251422
-0.230569
-0.109744
-0.0600663
-0.183694
-0.0630909
0.0310789
0.0411585
-0.0405928
-0.391815
-0.100024
0.00155149
-0.0503595
0.0165821
-0.0819071
-0.000279969
-0.341488
-0.415897
0.0110652
-0.014579
-0.326768
0.0247026
-0.115065
-0.399295
-0.0767907
0.0560665
0.0228587
-0.000439388
0.0131071
-0.331368
-0.382809
-0.21707
-0.00779358
-0.093628
0.0104019
0.0274753
-0.319664
-0.0041864
-0.107852
0.000377984
0.0970002
0.0697836
0.0268081
0.00858549
0.0164231
-0.385827
-0.0158143
0.0223346
0.2385
-0.0894779
0.0154296
-0.131314
-0.050464
0.0155837
-0.00492197
0.0134338
-0.00637331
-0.414411
-0.0560559
0.0298232
-0.0576436
-0.0685155
-0.172087
0.0228547
-0.0857091
-0.342486
-0.0270427
-0.116183
0.0251401
-0.00498264
0.0203794
-0.0535833
-0.0578596
-0.0630248
-0.0115757
-0.0536593
-0.06332
-0.417974
-0.0937388
0.0271028
0.00719506
0.000996345
-0.146465
0.00975118
-0.390664
0.023935
0.0208192
0.00689673
0.185289
-0.310168
0.0157066
-0.0307638
0.0118304
-0.0951255
0.00895334
0.0353936
-0.0700875
0.0155034
-0.00527015
0.0223108
-0.219605
0.00844171
-0.00421075
-0.0472375
-0.384066
0.173353
0.204526
-0.25973
0.0911562
0.0239694
0.0213029
-0.159123
0.0353571
-0.0992636
-0.0905127
-0.092687
0.0763134
-0.0169817
0.00988815
0.0161157
0.00198387
-0.250107
-0.0705075
-0.030073
0.00798323
-0.115866
-0.0747078
-0.415779
-0.0731307
-0.0553919
0.0194512
0.00779031
0.00124814
-0.0787001
0.0193047
0.00889929
-0.35712
0.252537
-0.0529576
0.0213527
-0.12048
-0.0562243
0.0203056
0.0470331
-0.0442361
0.299581
-0.10093
0.0120644
-0.0239834
-0.084906
0.00946921
-0.048613
0.014492
-0.294521
-0.131498
-0.172235
-0.00595916
-0.0799023
-0.312772
-0.0419885
-0.336857
-0.0978409
-0.393007
0.0192705
0.0247455
-0.0175252
-0.174031
0.0227446
0.0797564
0.0633222
-0.0762595
0.0141864
0.0148386
-0.0145891
0.0154477
-0.0530876
-0.0477639
-0.26789
0.0270962
-0.404617
0.130814
0.0154921
-0.0559004
0.00527813
-0.159373
-0.0118699
0.0345207
-0.409838
-0.267358
-0.344337
-0.0192216
-0.31901
0.0345435
-0.0546734
-0.408675
0.00121865
-0.0845231
-0.0608367
0.00173551
0.0129247
-0.0637881
-0.0165381
0.0206217
-0.242745
-0.351001
0.0130126
-0.0670247
0.0155418
-0.0423817
-0.107269
0.0155753
-0.399135
-0.0750145
0.0149756
-0.34299
-0.0814868
-0.103569
0.0216427
-0.0567703
0.0147159
-0.0905273
0.0333883
0.0049063
-0.396343
0.0053499
-0.306383
0.0152966
-0.123629
-0.287426
-0.05369
0.019366
0.0527781
0.0228324
0.0723064
-0.0407012
0.113476
0.000973112
-0.416777
0.016148
-0.0127862
-0.220526
-0.0538843
-0.0341778
0.0130813
-0.060208
-0.147159
-0.01511
0.153781
0.0251944
-0.00520805
-0.333065
0.00215487
0.00511122
-0.00117582
-0.307198
-0.0105039
0.0108261
-0.11258
-0.0429385
-0.151596
-0.0572555
0.00161328
0.0116292
-0.330823
-0.0342492
0.0291193
-0.274982
-0.211219
0.00819316
-0.0531045
-0.171666
-0.0126883
0.0411993
-0.161454
0.019531
-0.0508748
-0.0124874
0.0132221
-0.341022
-0.40679
-0.123684
0.00171849
-0.0523232
0.0129316
0.325423
-0.0707997
0.024455
-0.0527194
0.0205974
0.121382
-0.0341613
-0.0538073
0.00491868
-0.0176584
-0.0552442
0.0198162
0.15393
0.00523316
0.0297868
-0.284495
-0.174598
0.0573118
-0.07661
-0.28086
0.056476
-0.0221246
-0.117028
-0.0938827
-0.0424036
0.0329366
0.0224073
0.0194313
-0.0164806
0.0104008
0.0207387
-0.0261278
-0.344972
0.0142509
-0.380614
0.0125822
-0.0466945
0.0158565
-0.00106353
0.0305899
0.0272302
-0.0608305
-0.339966
-0.0234307
0.0215023
-0.393995
-0.0253165
-0.408521
0.132707
0.246019
-0.0831128
-0.416281
-0.0524553
-0.0245655
-0.0138345
0.00868351
-0.0456032
-0.00108572
0.0208397
0.0335717
0.00716125
0.0222808
0.0237653
-0.401579
-0.273909
0.0196575
-0.392563
-0.0625853
-0.0345751
0.011725
0.0451553
-0.0497709
-0.00739718
-0.0558095
0.0164545
0.0137652
-0.0152239
0.0057421
-0.100804
-0.0131962
-0.0122028
-0.00543474
0.00306703
-0.0562548
0.00154673
-0.00611622
-0.0157981
0.033819
-0.0837334
-0.0506039
-0.0742116
0.0234074
0.0405628
0.0221897
0.0194069
-0.0534903
0.0310245
-0.00905574
0.00577625
-0.0840799
0.0142136
0.0190256
-0.417275
0.0157345
-0.151502
-0.154796
-0.014551
-0.397976
-0.0508689
0.125875
-0.418412
-0.057169
-0.0616082
-0.00192582
-0.0708818
0.0150682
-0.28289
0.0252478
0.0119094
-0.155403
-0.0396626
-0.224985
0.294593
0.018314
-0.165321
0.0195979
-0.133581
-0.104896
0.012303
-0.00214493
-0.0107133
-0.117516
-0.0335336
-0.125864
-0.06722
0.0214308
0.0117446
-0.0123033
-0.35615
-0.070726
0.0192252
0.0180793
0.018662
-0.0633957
0.141967
-0.0111724
-0.00515449
0.174519
0.0308881
-0.0340063
0.0768061
-0.116379
0.0156794
-0.0250487
0.199277
-0.00429238
0.0221308
-0.277428
-0.0877619
-0.151575
-0.159583
0.000457823
-0.333511
-0.414739
0.135276
-0.0859066
0.0270552
-0.0495493
-0.0590586
-0.0745767
0.00829896
-0.413991
-0.102259
0.0162687
-0.0789717
-0.41501
0.0142311
0.0157341
-0.0792234
0.0153531
-0.160518
0.0562015
-0.0144629
0.0164583
0.0162673
0.251213
-0.0460189
-0.359537
-0.0688513
-0.0504487
-0.153479
0.0218851
0.0273888
-0.305589
-0.393218
0.0356462
0.0182224
-0.221146
-0.0154255
-0.0853496
-0.048396
-0.0506543
0.0344315
0.0341672
-0.134126
0.00419221
-0.0652648
-0.274285
-0.00635064
-0.0580296
-0.125784
0.0924475
0.0297847
-0.419175
0.0147595
0.28543
0.000993704
-0.0935185
-0.0234633
0.00265229
-0.350128
-0.0236254
0.033408
-0.0235897
-0.0765554
0.0205245
0.00132748
-0.418845
0.0240704
-0.00699997
0.0171865
-0.0316861
0.0256971
0.0225363
0.0313113
0.0226241
0.110205
-0.00434264
-0.144718
-0.0508763
0.045244
-0.0590347
-0.0457931
0.0785487
0.0189022
0.00999142
-0.0147378
-0.0505435
-0.0539856
-0.00620931
0.0153006
0.0223455
-0.372439
0.00135625
-0.154007
-0.0671684
-0.0536481
-0.328849
-0.103418
-0.0644695
-0.0063523
-0.0486192
-0.172954
-0.3426
0.0279747
0.0511741
-0.0620946
0.00323712
-0.0484101
-0.0941136
-0.119445
-0.0457529
-0.21329
0.0305047
0.00129438
-0.0501632
-0.104163
0.00863521
0.00150229
-0.0630865
0.0157891
-0.384915
-0.0664684
-0.391383
-0.0524931
-0.0863648
-0.319434
-0.0109453
-0.144041
0.021906
0.0333223
-0.00665658
-0.050156
-0.00609111
-0.000347637
-0.320189
-0.415555
-0.254348
-0.114305
-0.00937753
-0.0841972
-0.187115
-0.400631
-0.0496168
-0.415375
0.0391114
-0.319076
-0.0551402
-0.169523
-0.1101
-0.0537681
0.019446
0.0027591
-0.04505
0.0250975
-0.0529387
0.00669564
0.00803007
0.0268672
-0.112114
0.0547594
0.00919257
0.0103935
0.0328508
-0.134751
-0.025783
-0.260258
-0.0232261
-0.0759923
0.000284555
0.026135
-0.127277
0.00683378
0.00103646
-0.0520144
-0.0697553
-0.139612
0.0161482
-0.404918
-0.0279091
0.0259823
0.0257829
0.0345701
-0.383776
-0.145247
-0.418981
0.0123476
0.0286007
0.000953764
-0.125475
0.0326647
0.0215358
-0.210228
0.0305998
-0.0126581
-0.0555541
-0.00549091
0.0303113
0.0213097
0.0092929
-0.00159069
-0.0181418
0.00159499
0.0473621
-0.0877894
-0.090373
0.0102194
-0.407531
-0.0320635
-0.0855864
-0.40676
-0.0503289
-0.417412
-0.13435
-0.00193547
-0.0689219
0.0146622
0.0114266
-0.335515
0.0313623
-0.129894
0.0830644
-0.0600865
0.0339879
0.0495583
0.0155539
-0.0508637
0.0844506
-0.414376
-0.0151782
-0.172672
-0.0522839
0.00851858
-0.0772502
-0.0760353
-0.00131409
-0.338208
0.0242362
-0.0649235
0.016652
0.0586434
-0.0935871
-0.0907839
0.0265696
-0.0843535
-0.369299
-0.0640713
-0.0529654
-0.005268
-0.0823073
-0.131911
0.0218488
-0.153971
-0.3655
-0.0562951
0.0331515
-0.0225814
0.0155168
-0.00401193
0.0266707
-0.0821957
-0.0542891
0.0211232
-0.209101
0.0213428
0.00115435
0.0327165
-0.0696831
0.0523826
-0.105068
-0.0416509
0.0489571
-0.166215
-0.0231798
-0.118984
-0.0837404
0.00337597
-0.0521241
0.0400093
-0.0186532
-0.0746666
-0.41634
-0.0857116
-0.339324
-0.214148
0.0194517
-0.134014
0.0153615
-0.0475079
0.0165622
-0.379177
-0.0454692
0.019585
-0.00473411
0.0199167
-0.0586238
-0.131814
0.0143538
-0.0575828
-0.0244158
-0.0529297
-0.148759
-0.0126393
0.0106912
-0.0418518
0.00434959
-0.0686305
0.0199627
-0.23302
0.0140344
0.0197886
-0.0452504
0.00111066
0.00690537
-0.0145129
-0.134693
-0.0995883
-0.141219
0.0565129
0.00593903
-0.0414632
-0.0150205
0.0240274
-0.348551
0.0109169
-0.0935428
-0.407279
-0.090877
0.0311911
-0.151654
0.00610621
0.0221119
0.238795
-0.258879
-0.148015
0.015657
0.0306435
0.0972371
-0.0868725
0.00100847
-0.0384274
0.0198127
-0.0104057
0.0105031
-0.0147367
-0.051664
0.00170246
-0.399065
-0.391932
-0.0186907
0.00173347
-0.0495952
-0.416786
0.00502149
0.0301908
-0.409251
0.0159638
0.23051
-0.116448
-0.347054
0.0189767
0.0518553
-0.113168
0.0301753
-0.169592
-0.215359
-0.00264224
-0.0307264
-0.0765209
0.021582
-0.0734333
0.0196015
0.0834277
-0.0103219
-0.0343265
0.00159119
0.0187817
-0.147784
0.0133499
-0.389546
-0.0604356
0.0395759
0.0389568
0.0151055
0.0172543
-0.390484
0.0160156
-0.235944
0.0143722
0.00809825
-0.126294
-0.0525411
0.00732715
0.000419309
0.0266243
0.00219701
-0.060886
-0.0626391
-0.0551706
-0.0373511
0.00988839
-0.161709
-0.254776
0.0166596
-0.0654401
-0.0534415
-0.0803779
-0.00731752
-0.360111
-0.00175645
-0.109682
-0.0537046
0.0230978
-0.0663354
-0.00495562
0.0265218
-0.0120109
-0.0497814
0.0420164
-0.0578659
-0.242352
-0.110739
-0.0376319
0.0130715
-0.0490685
0.0212992
-0.237059
0.000947897
-0.0544562
0.0792708
-0.0588154
0.0509315
-0.0536108
-0.06128
0.0153542
-0.248261
-0.149529
0.000593896
-0.0531796
0.0150165
-0.027869
-0.00409519
-0.385222
-0.21826
0.0230843
0.0172681
-0.0540679
-0.0775334
0.0106731
0.0477835
0.0209344
0.00870871
0.00352793
0.0566261
-0.417817
-0.387834
0.02296
0.0332111
-0.0217407
-0.0593116
0.0165453
-0.395617
-0.375904
-0.40145
0.0675967
-0.350239
-0.379977
0.0524772
-0.0650503
0.0181183
-0.0482377
-0.176458
-0.0163306
0.0037879
0.00655881
-0.0529614
0.00138233
0.0298458
-0.315792
0.0491561
-0.0734321
0.0396213
0.0171031
0.00535717
0.0149567
-0.166532
-0.406302
0.00805748
-0.0720009
-0.00119247
-0.118772
-0.00188063
0.055354
-0.0900438
-0.195947
0.109843
-0.0583329
0.169416
0.0254342
-0.0892534
0.0334995
-0.0624617
0.0147124
0.0160869
-0.117668
-0.128385
-0.0531513
-0.0701104
0.158977
-0.371795
-0.020607
-0.0916574
-0.0242184
-0.386979
-0.0514535
-0.05485
0.031574
0.00147327
-0.0937154
-0.373475
0.0225649
-0.0482936
0.0222036
-0.0431441
0.000926899
-0.00489128
-0.00794698
-0.000215234
-0.097188
0.0915144
-0.0746457
0.0359455
0.0281618
0.00401949
0.00970247
0.00896588
0.0167841
0.0186884
-0.066737
-0.0722948
-0.374558
-0.0105774
-0.261348
-0.116334
-0.225485
-0.273793
-0.118442
0.0152282
0.0515786
-0.112512
0.0235234
-0.0463756
-0.0849972
-0.0117045
0.0053799
-0.0449677
-0.188651
0.0234562
-0.408716
-0.0111222
0.018773
-0.255121
0.0264711
0.0924368
0.01602
-0.0511008
-0.00466601
0.0312314
-0.224456
-0.0030862
0.0258923
0.0129668
0.00517524
0.130444
0.0225052
-0.392467
0.0170146
0.0221058
-0.00139673
-0.376337
-0.0595814
0.0276483
-0.379276
0.021217
-0.0040921
-0.0552887
-0.393376
0.0391872
-0.351903
-0.0835828
-0.0435303
-0.0692436
0.0153226
-0.00902348
-0.0569947
-0.00385438
-0.417727
-0.19242
8.61559e-05
-0.0355421
0.0176351
-0.419096
-0.0681314
-0.0790045
0.0220149
-0.102713
0.116442
-0.102367
-0.0433356
0.0128795
-0.0222125
0.0223166
0.0094828
-0.0641057
0.000548426
0.00957713
-0.0926354
-0.3771
-0.0829336
-0.393786
0.0129165
0.0428417
-0.0069116
-0.0131215
0.0484198
0.00632471
0.0219184
0.0218929
0.0200796
0.0153287
-0.0360072
0.00642857
-0.0150932
0.004393
-0.417236
-0.303826
-0.0167546
-0.0243037
-0.0509008
0.0150809
-0.0622241
-0.0509712
-0.0516843
-0.225173
-0.298677
-0.202124
-0.357118
-0.0516818
-0.00935222
-0.0627798
0.0173889
-0.112268
-0.0331356
0.0173202
-0.00323652
-0.0512765
-0.00332417
0.125718
-0.413586
-0.00353162
-0.00439965
-0.154853
0.00492017
0.0156678
0.00836705
-0.0168968
-0.256955
-0.417082
0.0202743
0.0313753
0.0259768
0.014404
0.0918927
-0.00665834
-0.314483
-0.252196
0.0223157
-0.407007
-0.0609554
0.0303713
-0.414585
-0.00387446
-0.048505
0.00745089
-0.00517231
0.0112637
-0.378073
0.0293081
0.0141725
-0.034379
-0.0162456
-0.0649572
0.0105992
-0.0497512
-0.0912421
0.0394173
-0.374229
-0.129855
-0.0764155
-0.0587499
-0.0493045
0.0233355
0.0188754
-0.0428272
-0.134252
-0.0496701
-0.109123
-0.0767938
0.0149423
-0.33959
-0.270092
-0.267395
0.0300767
0.0718352
0.0177811
-0.193398
0.152744
-0.152131
-0.113677
0.0169141
-0.076091
0.038506
-0.0075742
-0.31711
0.0351375
-0.0441088
-0.0560688
-0.162752
0.0327862
0.0202763
0.0172254
-0.124898
0.0120163
-0.0172947
0.0338539
0.0165414
-0.00454391
0.0480534
0.00189843
-0.329026
-0.0588246
0.0207375
0.00345256
-0.0038334
-0.0382097
0.0715515
0.0224911
-0.20486
0.144264
0.00643524
0.00878094
-0.406702
-0.0551461
0.0124832
-0.0690703
0.123531
0.0246925
-0.417528
0.00511141
-0.156914
0.0157193
-0.392485
-0.110706
0.015014
-0.0732214
-0.12899
-0.0644457
-0.258017
0.0158336
0.0403079
-0.0827034
-0.155654
-0.0422265
0.0776295
0.00347766
0.0941501
-0.02351
-0.0579656
-0.0565593
-0.0465558
-0.0212401
0.00477865
-0.0845599
0.0163155
-0.25307
-0.0177148
-0.0943084
-0.00465236
0.0155186
-0.0074238
-0.0116727
0.0103349
-0.0899549
-0.256988
0.0170549
0.000375512
0.01896
-0.417639
0.0080295
-0.0123125
0.0159557
-0.0803375
-0.415566
0.00524944
-0.00360886
-0.0763673
-0.130595
0.023962
-0.0871697
0.056006
0.00818322
-0.0607463
0.0606606
-0.161396
-0.324817
0.04025
-0.404542
0.0108303
0.0136674
-0.0101937
-0.319534
0.0476564
-0.058916
0.00482115
-0.133174
-0.0812444
0.0161642
-0.059662
0.0244713
-0.0643904
-0.121634
-0.0654101
-0.260715
-0.0724969
0.017937
0.0220609
0.0165642
-0.0411428
-0.0988964
-0.0592242
0.0220072
-0.139326
-0.0112803
-0.310735
0.0327881
-0.353808
-0.0609009
-0.315088
-0.153397
-0.0173242
0.0361896
0.029393
0.0113268
-0.114221
-0.0133208
-0.0677357
-0.245858
0.00173734
-0.0624798
0.0459582
0.0333038
-0.058414
0.0146032
-0.010822
-0.379194
-0.406518
-0.0709669
0.0216999
0.00651766
0.0169604
-0.0370475
-0.0236671
-0.0114514
-0.394199
-0.0574617
-0.0524259
-0.0202908
-0.0478282
-0.322371
-0.0481467
0.0497559
0.00361446
-0.41927
-0.00428137
-0.0962327
0.0194329
0.0172737
0.0316912
0.000571296
0.00173394
-0.0158813
0.00794242
0.122624
-0.217856
-0.0730375
-0.0727638
0.0411819
0.0219822
0.0212713
-0.199927
0.0279579
-0.0204607
0.0202732
-0.417699
-0.401937
0.00783759
-0.023438
0.0163233
0.0332669
0.0218393
0.0233554
0.0221096
-0.295641
0.0390452
-0.0032586
-0.194096
0.0109887
-0.0600006
-0.0789926
-0.0576094
-0.132248
-0.0347616
0.0249758
-0.0506378
-0.00366813
-0.0557257
-0.0381151
0.00573697
-0.11284
0.0156601
-0.35701
-0.00254794
-0.00763364
-0.0875723
-0.119706
-0.384164
0.00677695
-0.106891
-0.226594
0.0358938
-0.0461984
0.0114508
0.00281529
-0.00275063
-0.0962314
0.0691526
-0.208676
0.0249138
-0.0665165
-0.415015
-0.126043
0.0280231
-0.21786
0.100105
-0.0503515
0.0499395
-0.0285023
-0.0350293
-0.0592675
0.0333747
-0.0171316
-0.407452
-0.00409978
0.0727726
0.00793103
0.147512
-0.0643078
-0.238278
0.000217309
0.0263422
0.0270009
-0.0549303
0.0285593
-0.00641089
-0.0546544
-0.387801
-0.030426
0.0200871
0.0371195
-0.406444
-0.131159
-0.0977638
-0.229751
0.0223344
-0.38976
0.00262097
-0.23144
-0.0099909
-0.0401803
-0.408786
0.0916531
0.0159084
-0.263632
-0.0522424
-0.0821203
0.0030587
-0.0516148
-0.0607819
-0.00582547
-0.212673
-0.107068
0.0209111
-0.0221774
-0.0521192
-1.12748e-05
0.0100084
0.0094376
0.0472324
-0.13153
-0.135339
-0.0459078
-0.0794109
0.0213853
0.248186
0.126222
0.0300947
0.0724838
-0.0450988
0.00702618
0.0165995
-0.350646
-0.419646
-0.0704325
-0.0042697
-0.0830032
0.0180489
-0.0554655
0.0136699
-0.0938967
-0.278031
-0.415685
0.182456
-0.0111942
-0.0526522
-0.0515963
-0.217054
0.0236826
0.0227538
0.0115475
-0.230628
-0.0840019
-0.163085
-0.393735
-0.00268075
0.014626
-0.327058
0.105333
-0.166729
0.019143
0.0194557
0.0357155
-0.335369
0.0429825
-0.0614131
0.00276005
0.0215675
0.00825064
-0.417597
-0.367864
0.0299605
-0.294419
-0.0058973
-0.127792
0.0218637
0.0176593
-0.0853207
0.0444568
0.025565
0.0981073
-0.137992
-0.055863
-0.213197
0.0182183
-0.0952897
-0.235159
0.0397705
0.00658073
0.0408124
-0.242276
-0.0838679
0.115828
-0.0888972
0.00142737
-0.0114871
-0.00854986
-0.0417878
-0.346066
-0.392257
-0.0484934
-0.218174
-0.0574917
-0.255649
-0.0843348
0.0396077
0.0125988
-0.0801846
-0.404914
0.0148888
-0.0283938
-0.0533199
0.024193
-0.0794434
-0.302988
-0.084269
0.0263325
-0.0553959
0.0500489
0.0240503
-0.00606028
0.313004
-0.00661672
-0.0498083
-0.0451311
0.0128305
0.0224311
-0.410638
-0.00375901
-0.000179689
-0.079707
-0.123835
-0.0633683
0.0218767
-0.0476478
-0.197021
-0.0494074
-0.0529684
-0.122534
-0.0670596
-0.175127
-0.0982808
-0.0150466
0.175789
0.157199
-0.00124713
-0.00580781
0.0226074
-0.0442246
-0.0795148
-0.291184
0.0154028
-0.0572861
-0.150488
-0.320298
-0.407612
-0.0880438
-0.0587185
-0.0962433
-0.0553934
-0.10681
-0.281959
-0.0730102
0.0339104
0.010961
-0.324353
-0.0451019
-0.0920813
-0.0569303
0.00767646
-0.12094
-0.101631
0.0173616
0.00387034
-0.0712753
-0.105088
-0.0871333
-0.262946
-0.188088
0.010113
-0.00318961
0.0161175
-0.384727
0.0951917
-0.0434316
-0.035565
-0.397434
-0.16987
-0.0677478
-0.0514095
-0.0506111
0.0089278
0.00247576
0.0360547
0.0191156
-0.416972
-0.201105
-0.0534407
0.0467742
-0.167908
-0.0510554
0.00202922
-0.0343171
-0.318009
0.144154
0.010027
-0.0392151
0.0173748
-0.204349
0.000479863
0.0254479
-0.412782
-0.0584569
0.0439376
0.0418122
0.00868584
0.0505707
-0.0647214
-0.0142587
-0.00508758
0.00963159
-0.0601735
-0.393615
-0.117082
0.0264933
-0.0111768
-0.29369
0.0216934
-0.249282
-0.278916
0.00118755
-0.411502
0.0236384
-0.112129
-0.0489056
0.0313447
0.0226499
0.00441291
-0.0583318
-0.0388033
0.0102796
-0.0607508
0.0191646
-0.407081
0.0138204
-0.416379
-0.417184
0.096919
-0.00453508
-0.15442
-0.154065
0.207536
-0.0516452
0.11474
0.00529029
-0.0518341
-0.00842389
-0.0774418
-0.096545
-0.0517101
-0.116673
0.0188056
-0.214882
-0.0646582
-0.0527355
-0.190534
0.0186129
-0.105449
-0.0652298
0.0152164
-0.216389
-0.0846654
-0.29058
0.0231763
0.0890994
-0.00146431
-0.10041
-0.21991
-0.0533947
-0.197029
-0.13065
-0.0727245
-0.216684
-0.417711
-0.050672
-0.0599261
-0.051996
-0.104424
-0.403899
-0.0663909
-0.260538
-0.402022
-0.0200986
0.054011
-0.0458576
-0.126795
0.0151658
0.0210635
0.0217717
-0.0363161
0.0284714
0.0167132
-0.391122
-0.0506036
0.0151148
-0.117386
0.0241484
0.00831793
-0.0262502
-0.147187
0.0156008
-0.151791
0.0255658
-0.0793897
-0.0563218
-0.185513
0.0841503
0.0146021
-0.180801
0.0160173
0.0151468
0.0876483
-0.0245988
-0.334992
-0.156171
0.0217237
-0.0345006
-0.0454168
0.0229629
-0.168743
-0.128354
0.231126
0.0155732
-0.0776388
0.0269418
0.0152045
-0.300682
-0.413062
-0.0784598
-0.139068
0.0456172
-0.0705119
0.101078
-0.38137
-0.103883
0.0200659
0.00327299
-0.129542
-0.200926
-0.381392
0.12209
-0.334075
0.0490251
-0.369746
-0.37871
0.0756265
-0.135052
0.0102103
-0.228622
0.0186856
-0.406323
0.0988846
-0.0527955
-0.404026
-0.252943
-0.236575
0.060553
-0.297897
-0.0664785
-0.111007
-0.416576
-0.0444003
-0.10737
0.00579327
0.0848425
0.131051
-0.41474
0.0171695
-0.00986533
0.0662756
-0.125473
-0.401032
-0.111371
-0.0919211
0.0220831
-0.206117
-0.00356279
-0.138191
-0.0504086
-0.306299
0.00770327
-0.17092
0.197063
0.00487598
-0.156693
-0.054334
-0.0402442
-0.119515
-0.131207
-0.393237
-0.0936681
0.0113122
0.0189125
-0.110172
-0.0845241
0.0263156
-0.235363
-0.00198479
-0.255347
-0.0177818
-0.0163436
-0.0512836
-0.208571
-0.0111452
-0.11551
0.0243543
-0.416061
-0.00122066
-0.0514277
0.189144
0.206701
0.0106272
0.0281793
0.0179724
-0.0705553
-0.0570333
-0.202503
-0.0593967
-0.0572318
-0.044882
-0.0118938
-0.0998181
-0.0461008
0.00395553
0.221492
0.013258
-0.411164
0.00132675
0.170511
-0.324616
-0.0538194
0.018276
-0.207048
-0.0174769
0.0218981
-0.101096
0.0151693
0.0104102
-0.148477
-0.0611068
-0.39962
0.021119
-0.195755
-0.0682852
-0.000530323
0.0250343
-0.0142768
-0.00372604
-0.401234
-0.0533618
-0.0464459
-0.0504035
-0.0422376