/*--------------------------------*- C++ -*----------------------------------*\
| =========                 |                                                 |
| \\      /  F ield         | OpenFOAM: The Open Source CFD Toolbox           |
|  \\    /   O peration     | Version:  v2012                                 |
|   \\  /    A nd           | Website:  www.openfoam.com                      |
|    \\/     M anipulation  |                                                 |
\*---------------------------------------------------------------------------*/
FoamFile
{
    version     2.0;
    format      ascii;
    class       surfaceVectorField;
    location    "100";
    object      ddtCorrDdt0(Uf);
}
// * * * * * * * * * * * * * * * * * * * * * * * * * * * * * * * * * * * * * //

dimensions      [0 1 -2 0 0 0 0];


internalField   nonuniform List<vector> 
14885
(
(0.0155691 0.00643252 -1.15942e-19)
(0.0162711 0.00488694 1.48466e-19)
(0.0156658 0.0059776 2.03795e-19)
(0.0314157 -0.030074 -2.21536e-18)
(0.0401224 -0.0306266 1.63257e-18)
(0.0335418 -0.017636 -3.36768e-19)
(-0.0335532 0.017214 -2.07592e-18)
(-0.0328967 0.0217854 -8.82903e-19)
(-0.0279754 0.0187119 -1.12249e-18)
(0.000276209 0.000133558 1.91365e-20)
(0.000285321 0.000141954 9.01499e-20)
(0.000293507 0.000116146 -8.62729e-20)
(-0.000158414 -2.37432e-06 -6.34755e-19)
(-0.000155061 -3.74774e-06 -1.69667e-19)
(-0.000156745 -7.49461e-06 1.79053e-19)
(0.056597 0.116268 2.17584e-18)
(0.0703646 0.0962211 7.09675e-19)
(0.0514702 0.102884 -1.02785e-18)
(0.0892158 -0.00830188 -5.12642e-19)
(0.0999664 -0.0111348 5.10434e-19)
(0.0824859 -0.0171622 -6.70694e-19)
(0.00254811 -0.112643 1.90908e-18)
(0.00808685 -0.105464 -1.19417e-20)
(-0.00380307 -0.116081 2.82353e-18)
(0.000554357 -0.00132237 5.01989e-19)
(0.00062181 -0.00148637 -1.86212e-19)
(0.000417895 -0.00142107 3.9696e-20)
(0.0264738 0.00979069 1.16113e-19)
(0.0279023 0.00909146 8.00549e-19)
(0.0279295 0.0111352 -3.57186e-19)
(-0.0545454 0.0370391 -1.42104e-19)
(-0.0575883 0.0263464 5.75798e-19)
(-0.0579811 0.024409 2.98025e-19)
(0.0219636 -0.0265243 -2.13033e-18)
(0.0286755 -0.0443721 7.13927e-18)
(0.00340524 -0.0232391 -2.71609e-18)
(0.00172979 -0.0243938 -1.49586e-19)
(0.00159164 -0.0221817 2.69507e-18)
(0.00114788 1.03555e-05 -2.45241e-19)
(0.000989429 1.4826e-06 -8.34095e-19)
(0.0011281 -0.000174493 1.73608e-18)
(0.000413486 -0.00126497 -9.66472e-19)
(0.000331761 -0.00132293 -1.31337e-18)
(0.000447276 -0.00137455 8.16637e-19)
(0.00135155 3.3648e-05 -1.31899e-18)
(0.00113653 0.000191208 -2.25606e-19)
(0.0250398 0.147413 -2.75152e-18)
(0.0267221 0.169584 2.20043e-18)
(0.00677066 0.154749 -1.188e-18)
(-0.0502199 0.0449074 -1.24289e-18)
(-0.0495849 0.0493716 -2.04078e-20)
(-0.000140852 -0.0069112 3.47883e-18)
(-0.000666895 -0.00711755 -3.91588e-19)
(-0.000197338 -0.00762338 -2.14297e-18)
(4.03801e-05 0.0123388 -5.88533e-19)
(0.00119463 0.0128706 8.72374e-19)
(-0.000229164 0.0136963 -7.76337e-19)
(0.00486905 -0.0220514 2.5298e-19)
(0.0053383 -0.0243209 5.83436e-19)
(0.015219 0.00826675 6.11001e-20)
(0.0152086 0.00735025 -5.10089e-19)
(0.000263949 0.000123228 2.3882e-19)
(0.000255829 0.000149068 -6.27348e-20)
(-0.0267083 -0.122142 3.83318e-18)
(-0.0199846 -0.123076 -6.5137e-18)
(-0.0188034 -0.132679 2.27184e-18)
(-0.000373606 0.000193656 -9.75797e-20)
(-0.000361107 0.000237358 -2.8429e-19)
(-0.000343835 0.000187934 1.05403e-20)
(-1.22223e-05 3.99908e-05 1.96279e-19)
(-8.49159e-06 5.96884e-05 1.81883e-19)
(-4.40986e-05 6.21067e-05 -4.22385e-19)
(0.0248647 0.00888429 -3.47128e-19)
(0.0248393 0.0108568 1.37139e-19)
(0.000867505 -0.000528842 -1.93959e-19)
(0.000930383 -0.000600508 7.70224e-19)
(0.000959257 -0.000504457 2.52965e-20)
(0.0407656 0.133492 -1.74394e-18)
(0.0603187 0.131132 9.2808e-19)
(-0.0395045 -0.0938009 1.72852e-19)
(-0.0423245 -0.0802143 -7.56343e-19)
(-0.0432053 -0.0886359 -2.7319e-18)
(-9.69983e-05 -6.08882e-06 8.16577e-19)
(-9.65918e-05 -4.17121e-06 8.31547e-19)
(-0.000100211 -5.32551e-06 -3.17693e-19)
(-0.0202458 -0.0186974 -2.04621e-18)
(-0.0201235 -0.0209564 -1.72897e-18)
(-0.0225228 -0.0195218 -3.75731e-18)
(0.000765592 -0.00114375 3.60723e-19)
(0.000668941 -0.00123527 8.20648e-19)
(0.000854092 -0.0012579 4.91865e-19)
(0.00085478 -0.00105433 -1.69393e-19)
(0.000694052 -0.00104975 -5.89608e-19)
(-0.0035572 -0.119662 -1.8514e-18)
(0.00905579 -0.103219 -6.69537e-18)
(0.0312222 -0.0727614 2.58265e-18)
(0.0347145 -0.0674301 -1.58202e-19)
(0.0390744 -0.061448 2.92264e-18)
(0.000261821 -2.13783e-05 1.42136e-19)
(0.000250287 -2.87512e-05 2.38199e-19)
(0.000251911 -3.0439e-05 -3.12089e-19)
(-0.000667901 -0.000236886 -5.08391e-20)
(-0.000633281 -0.00019866 -1.38152e-18)
(-0.00059938 -0.000241778 -3.31791e-19)
(-9.74286e-05 -5.38367e-06 -3.86688e-19)
(-9.81424e-05 -7.06757e-06 2.94959e-19)
(0.00578012 -0.00928887 -1.68997e-19)
(0.0045989 -0.00837673 1.45072e-19)
(0.00439135 -0.0102105 3.65233e-20)
(-0.0331919 -0.110145 -8.55076e-19)
(-0.0347873 -0.10039 -7.42033e-19)
(0.000505249 -0.00121102 2.85225e-20)
(-0.00805505 -0.11408 2.70638e-20)
(0.0156627 -0.0989144 -5.54644e-18)
(-0.0265181 -0.114264 3.37121e-18)
(-0.0935214 0.170747 2.14982e-18)
(-0.0984715 0.177168 2.05475e-18)
(-0.0959433 0.108411 1.26719e-19)
(3.1455e-05 0.000411274 1.63924e-19)
(9.62079e-06 0.000390048 -5.78633e-19)
(4.89849e-05 0.000376981 -1.46343e-19)
(-0.000381368 0.000150193 -1.55253e-19)
(-0.000413761 0.000198765 4.14263e-19)
(0.000817647 0.000622311 1.04103e-20)
(0.000886911 0.000567366 -4.62299e-20)
(0.000787395 0.000534077 2.1889e-19)
(0.000399646 -0.00115309 1.91128e-20)
(0.000508642 -0.00120038 1.57537e-19)
(0.0363987 -0.00632478 -2.40535e-19)
(0.0379591 -0.00837975 5.8375e-19)
(0.0348222 -0.00860942 2.38907e-19)
(-0.333124 -0.275603 -1.33043e-18)
(-0.349267 -0.284157 4.74204e-18)
(-0.347561 -0.264657 8.44625e-18)
(-0.105714 -0.146993 9.4992e-19)
(0.012014 -0.113415 -2.01652e-18)
(-6.16076e-05 0.000140619 -5.0372e-20)
(-4.09664e-05 0.000138564 -2.96672e-20)
(-5.06608e-05 0.000160882 -3.90837e-19)
(0.023432 0.128077 -2.70102e-18)
(0.000382527 -0.00673255 -6.51746e-20)
(-4.38972e-05 -0.00635596 -7.65879e-19)
(0.00983649 0.0364383 2.31982e-19)
(0.019426 0.0359366 -1.7726e-19)
(0.0145628 0.0334148 3.77106e-19)
(0.278107 -0.00829523 -2.11006e-18)
(0.271519 -0.00684345 -5.25856e-19)
(0.277089 0.00802625 -1.3083e-18)
(0.00611305 -0.0207764 3.17323e-18)
(0.00439186 -0.0202193 2.81086e-18)
(-0.0431946 0.0140932 -7.10472e-19)
(-0.0427586 0.0233635 -1.60356e-18)
(-0.0490806 0.0156885 -1.56951e-18)
(0.001983 -0.000936855 -5.26577e-20)
(0.00212837 -0.00102467 3.2593e-19)
(0.00212222 -0.000843624 -2.29504e-19)
(0.000221388 -0.000618264 -8.18796e-21)
(0.000219852 -0.000523146 -5.63135e-21)
(0.000298962 -0.000578521 6.88255e-21)
(0.0348372 -0.00423144 -6.96357e-19)
(0.0376895 -0.00372491 -2.01912e-18)
(0.0336144 0.0432837 -8.72162e-19)
(0.0281059 0.045237 -8.13179e-19)
(0.0320335 0.0503838 -5.10017e-19)
(0.0294396 -0.0898165 -1.4191e-18)
(0.0187282 -0.090574 -6.44453e-18)
(-0.0272861 -0.140648 -3.68565e-18)
(-0.0231978 -0.136518 -9.33001e-19)
(-0.0292007 -0.135316 -1.55123e-18)
(-0.00147569 -0.0179304 1.02995e-18)
(-0.00720466 -0.0207602 1.03579e-18)
(-0.00597439 -0.0220372 -6.86249e-19)
(-0.00037561 -0.00102957 -4.826e-19)
(-0.000533477 -0.0011175 -9.44006e-19)
(-0.000279983 -0.0012505 9.13243e-19)
(-0.00186782 0.0110713 5.62483e-19)
(-0.00100824 0.0117242 3.82658e-19)
(-0.0023451 0.0122095 6.72812e-19)
(0.0184315 0.0099338 6.10658e-19)
(0.0186314 0.0125494 4.34812e-19)
(0.0207645 0.0119977 -5.66337e-20)
(0.000587343 0.000887232 -2.95676e-19)
(0.000660311 0.000849042 -1.54911e-20)
(0.000669363 0.00096409 -3.56108e-19)
(0.0178339 0.00782718 -5.16902e-19)
(0.0166088 0.00813893 -4.95965e-19)
(-0.201786 -0.172965 1.47455e-18)
(-0.285164 -0.196336 -9.6771e-19)
(-0.191033 -0.186221 -6.09893e-18)
(0.00394743 0.0038074 -2.22699e-20)
(0.0037389 0.00435795 -1.45357e-19)
(0.00339078 0.0038616 3.52118e-19)
(-0.000922137 0.000572685 -1.98303e-19)
(-0.000828549 0.000674406 5.76166e-20)
(-0.000823146 0.000526737 -2.72114e-19)
(0.00184838 -0.00100346 5.37892e-19)
(0.00184 -0.000847547 2.5787e-19)
(-0.000418426 -0.000862132 -3.06277e-19)
(-0.000220995 -0.000941856 1.26875e-18)
(-0.217817 -0.166651 2.62163e-18)
(-0.018117 -0.0025893 5.42361e-19)
(-0.0151328 -0.00358802 4.17879e-19)
(-0.0179515 -0.00591611 1.55741e-18)
(0.000859099 0.000712614 9.09365e-21)
(0.000746871 0.000682922 2.35067e-19)
(-0.0177377 8.37456e-05 8.66873e-19)
(-0.0207864 -0.00122996 9.67405e-19)
(-0.00105497 -0.00671944 -3.8066e-19)
(-0.0011871 -0.00740361 -6.94686e-19)
(-0.0867273 0.154503 -2.49927e-18)
(-0.0997676 0.236054 -1.31466e-18)
(-0.0331142 -0.119231 1.95536e-18)
(-0.000109086 2.78759e-06 -1.15568e-19)
(-0.00014216 2.30485e-06 -6.08081e-19)
(-0.00010593 1.32567e-06 -4.39711e-20)
(-0.000166235 4.06512e-05 6.57999e-19)
(-0.000173622 3.14589e-05 9.81286e-19)
(-0.00017484 4.70108e-05 1.3802e-19)
(0.0146936 0.0145498 -3.53278e-19)
(0.0148687 0.0160439 -6.17993e-19)
(0.0165247 0.0149279 -6.27312e-19)
(0.0524603 0.00251635 -7.67048e-19)
(0.0496405 0.000868347 2.28033e-18)
(0.0538168 -0.000965482 -9.7343e-19)
(-0.0014725 0.0101158 5.10002e-19)
(-0.00267431 0.0103088 -2.05653e-19)
(-0.0326933 0.0126578 -1.38912e-18)
(-0.038266 0.0148261 1.57904e-18)
(-0.000118121 0.000109616 2.83804e-19)
(-0.000119976 6.45639e-05 -1.02418e-19)
(-0.000164296 9.55723e-05 -6.46504e-19)
(-0.0124535 -0.0115996 8.01291e-19)
(-0.0108325 -0.0145567 -5.01929e-19)
(-0.00856163 -0.0110468 6.80433e-19)
(0.000936497 -0.0148142 1.70348e-18)
(0.00117638 -0.01605 1.3853e-18)
(-0.000223834 -0.0153758 3.85797e-18)
(0.000241164 -0.00129268 3.32638e-19)
(0.000267942 -0.0014036 -3.22505e-19)
(0.019291 -0.0808291 8.2622e-18)
(0.0367857 -0.0842346 6.74675e-18)
(0.0507974 0.00610163 -9.27841e-19)
(0.0553055 0.00508113 1.86206e-18)
(0.00826752 -0.0116048 -2.13051e-19)
(0.00641032 -0.0143205 -1.13984e-19)
(0.00782165 -0.0134139 -1.38153e-19)
(0.000428474 0.00111704 -3.93657e-19)
(0.000410692 0.00123098 -2.54969e-19)
(0.000317995 0.00117481 -3.57324e-19)
(0.0326961 0.16647 1.60086e-17)
(0.0405533 0.164996 2.40544e-17)
(0.000259904 0.0112297 7.78059e-19)
(-0.0266122 -0.00332676 -1.03182e-18)
(-0.0305227 -0.00772873 -3.04406e-18)
(-0.0245352 -0.00597929 -1.01904e-18)
(0.00172047 -0.00105678 8.87129e-19)
(0.00158619 -0.00109645 6.91526e-19)
(0.00159904 -0.000960064 -2.48606e-19)
(0.000894591 -0.0137335 -4.01962e-19)
(0.00203848 -0.0142681 -9.93133e-19)
(0.0333322 0.013247 3.65595e-19)
(0.035105 0.0141702 -1.83773e-19)
(0.034704 0.0117703 -2.4763e-19)
(0.00258004 0.00146386 4.14244e-20)
(0.002478 0.0017618 -1.73429e-20)
(0.00229368 0.00153435 1.96927e-21)
(-0.0165218 -0.0161193 1.07269e-18)
(-0.0154033 -0.014915 1.75147e-18)
(0.00220635 -0.00901932 -7.14139e-19)
(0.00288092 -0.00929456 -5.72019e-19)
(0.002218 -0.00983359 -6.27901e-19)
(0.00198982 0.000838701 5.85995e-21)
(0.00184318 0.000756221 -5.38031e-21)
(0.00183866 0.000953986 7.79783e-20)
(0.0997057 -0.0915647 -6.27893e-18)
(0.145318 -0.0534894 1.45645e-18)
(0.113573 -0.0754985 8.42617e-18)
(-0.00044713 -0.000681864 -3.19111e-19)
(-0.000593146 -0.000713502 6.18376e-19)
(0.0801527 -0.00446292 -1.3219e-18)
(0.0910463 0.000914413 8.97736e-19)
(0.00215576 0.00068821 -1.60665e-20)
(0.00216727 0.000901109 6.11813e-20)
(0.00181721 -0.000510343 -1.56081e-21)
(0.00196767 -0.000570155 1.46317e-19)
(0.00182793 -0.000683879 4.59906e-19)
(0.0734176 -0.00184407 3.01639e-18)
(0.0711963 -0.00774227 -7.44505e-19)
(0.0310286 0.0122971 1.25988e-19)
(0.0316552 0.014701 4.37401e-20)
(-0.0299842 -0.143881 1.52863e-18)
(-0.0246259 -0.139262 1.35042e-18)
(0.00260218 -0.0147198 7.05484e-19)
(0.000395655 -0.0142276 -3.35364e-19)
(0.000309943 0.00129754 5.85895e-19)
(0.000442421 0.00121918 2.35845e-19)
(0.000450363 0.0013963 5.64751e-20)
(0.016774 -0.0035712 -3.13268e-19)
(0.015039 -0.00457163 7.89028e-19)
(0.0173749 -0.00600377 1.85321e-18)
(-0.000115126 -6.47059e-06 6.01642e-19)
(-0.000111244 -9.79372e-06 -5.34848e-19)
(-0.000115143 -1.16591e-05 4.41562e-19)
(-0.0432087 0.00645477 1.53415e-19)
(-0.037628 0.012516 -8.78506e-19)
(-6.13008e-06 0.00144913 8.96728e-20)
(-0.000112142 0.0013316 2.60314e-19)
(-0.000203329 0.00152231 -1.98972e-19)
(0.000231119 -0.000707675 -2.1739e-20)
(0.000137994 -0.000641238 1.64887e-23)
(0.0005134 -0.0253045 -1.15769e-18)
(0.00791719 -0.0294943 -2.06387e-18)
(0.00448748 -0.0143977 -1.09421e-18)
(-0.00211016 -0.0352359 -1.64696e-18)
(-0.00800409 -0.0160883 2.26735e-18)
(5.09719e-05 0.00043336 1.09667e-20)
(8.36653e-06 0.000449394 -1.79678e-19)
(-0.0133564 -0.00929664 -1.05077e-18)
(-0.0167396 -0.0125402 2.58739e-19)
(-0.000107503 0.000244435 -8.86782e-19)
(-0.00011873 0.000165122 5.16692e-19)
(-0.000177525 0.000212751 -1.38479e-18)
(-9.967e-05 0.000309657 -9.68295e-19)
(-2.73338e-05 0.000239715 3.46879e-19)
(0.00539254 0.0429236 1.80901e-20)
(0.00548125 0.0339038 -7.1794e-19)
(-0.0711535 -0.0888088 -4.81108e-18)
(-0.124132 -0.0900713 -6.86541e-18)
(-0.0861965 -0.0834282 -6.98279e-18)
(0.0185743 -0.00198391 -4.04573e-19)
(0.0157478 -0.0011755 2.90161e-19)
(-0.000941086 -0.000686084 5.79996e-19)
(-0.000823706 -0.000648576 1.1158e-19)
(-0.000842731 -0.000760755 -1.75867e-19)
(-9.88141e-05 -0.000508174 -9.29774e-19)
(-2.99382e-05 -0.000592606 1.52278e-19)
(-0.000158397 -0.000575493 8.3026e-20)
(-0.00036587 0.000670054 3.76531e-19)
(-0.000434483 0.00055252 1.0962e-19)
(-0.000551276 0.000728039 -6.27268e-19)
(-0.000844742 -0.000180659 1.04079e-19)
(-0.000736565 -0.000153217 5.30204e-20)
(-0.000738735 -0.000294447 -7.01864e-19)
(0.0692151 0.00223872 1.41095e-18)
(0.074332 0.00436546 3.31074e-18)
(-0.023357 -0.132234 -9.08893e-18)
(-0.137814 -0.190516 -4.48127e-18)
(-0.00188044 -0.122586 6.7256e-18)
(-0.00569742 0.00944331 6.30415e-19)
(-0.0051602 0.0104681 -5.89796e-19)
(-0.00656711 0.010365 -6.67905e-19)
(0.141008 -0.0797069 -4.46055e-19)
(0.107835 -0.116903 -4.21781e-18)
(0.00274825 -0.00414318 -6.40134e-19)
(0.00296881 -0.00452799 -1.96248e-18)
(0.00241978 -0.00437285 -3.74623e-18)
(-0.0230683 0.000924552 1.13348e-18)
(-0.0284733 6.31596e-05 -5.30222e-19)
(0.0109033 -0.0576288 2.96484e-18)
(0.00549756 -0.0615436 -3.15631e-18)
(0.0058515 -0.0549285 2.36864e-18)
(0.000243783 -0.000234742 2.81687e-19)
(0.000284343 -0.000262595 1.37845e-19)
(0.000235012 -0.00029119 2.66032e-19)
(0.035355 -0.138627 -3.67338e-18)
(0.087609 -0.111774 -3.13045e-18)
(0.000780876 -0.000541524 -2.099e-19)
(0.000807243 -0.000456358 -3.1505e-19)
(0.0120711 -0.00412202 1.91016e-19)
(0.0111796 -0.0041238 -5.3257e-20)
(0.0118379 -0.00508767 1.85771e-19)
(-0.00070156 -0.000283166 3.03804e-19)
(-0.000737609 -0.00022743 7.56755e-19)
(0.0147045 0.0132169 -3.93244e-19)
(0.0132289 0.0142193 -2.20005e-19)
(0.000484788 0.000820468 -6.99227e-20)
(0.000475024 0.000945806 2.97439e-20)
(0.000919956 0.00453248 5.50382e-21)
(0.00137561 0.00457159 2.30589e-19)
(0.000990177 0.00495741 3.99888e-19)
(0.0820135 0.0157933 -4.77121e-18)
(0.0828617 0.0159226 -6.04605e-18)
(0.0780985 0.0118711 -1.21034e-18)
(-0.000451947 -0.000529232 -2.73937e-19)
(-0.000316462 -0.000651163 -5.92798e-19)
(0.000102085 -0.000134636 -1.59216e-19)
(9.46413e-05 -0.000182248 3.351e-19)
(0.000140273 -0.000162545 -1.36242e-19)
(0.0031593 -0.00534038 1.3222e-18)
(0.00311581 -0.00494206 8.17649e-19)
(0.00268849 -0.00515961 8.63445e-19)
(0.00165163 -0.0287486 -1.594e-19)
(0.000982413 -0.0307272 -2.19975e-18)
(-0.000710321 -0.028797 5.60334e-19)
(0.00878458 -0.00960766 1.01399e-19)
(0.00709904 -0.0102696 -7.76017e-20)
(0.0123437 -0.003205 -1.75648e-19)
(0.0130912 -0.00419402 -1.47964e-18)
(-0.0442362 -0.0771273 1.52606e-18)
(-0.0513301 -0.088581 1.67742e-18)
(0.237056 -0.0201256 8.99823e-19)
(0.23732 -0.044812 -2.45567e-18)
(-0.000271025 0.000810472 -1.65855e-18)
(-0.000220681 0.000619811 4.66352e-19)
(-1.51579e-05 2.75845e-05 2.29531e-21)
(3.45575e-05 2.32496e-05 -1.10146e-19)
(-0.000151934 2.42976e-05 1.01695e-19)
(-0.000140493 2.08218e-05 6.00867e-20)
(-0.000147331 1.77016e-05 2.83237e-19)
(0.00709881 -0.0101651 -1.87141e-20)
(0.00695305 -0.00832445 4.826e-20)
(0.0509952 -0.095648 -5.99115e-18)
(-0.0248966 -0.138059 3.39455e-18)
(-6.37322e-05 0.000116716 1.00478e-18)
(0.00255262 -0.0032543 1.51099e-18)
(0.00236038 -0.003517 7.9541e-19)
(0.00219955 -0.00321642 2.70519e-19)
(0.0875713 0.0278278 2.97755e-18)
(0.0829422 0.0217217 -2.52433e-19)
(-0.0010003 0.00045768 6.15443e-20)
(-0.00108328 0.000606706 2.50953e-19)
(-0.0183634 -0.0176685 1.30301e-18)
(-0.0161879 -0.0182664 -3.30341e-18)
(0.021375 -0.0884697 -4.83303e-18)
(0.026148 -0.0799454 1.28404e-19)
(0.000909926 -0.000943715 2.03108e-19)
(0.000947584 -0.000871361 -2.40992e-20)
(0.000822844 -0.000881305 5.11999e-19)
(0.0104959 -0.0066405 9.22327e-19)
(0.0112245 -0.00767294 1.15754e-18)
(0.0119786 -0.00659272 1.26955e-18)
(-0.0459262 -0.0664478 2.06081e-18)
(-0.0442164 -0.0708762 -5.93291e-19)
(-0.0226347 -0.0101356 5.49272e-19)
(-0.0250826 0.00401961 4.2933e-18)
(-0.0272194 -0.00956796 1.29819e-18)
(0.00101338 -0.00103963 1.59141e-19)
(0.000867322 -0.0071042 6.4525e-20)
(0.000835359 -0.00652261 -7.93431e-19)
(-0.0160119 -0.0093829 -5.30158e-19)
(-0.0182829 -0.027651 -2.4495e-18)
(-0.000358915 0.000383965 4.28773e-20)
(-0.000351661 0.000427419 2.76106e-19)
(-0.000314903 0.000393735 1.99395e-19)
(-0.000731301 -0.000339964 -3.71212e-20)
(-0.000648236 -0.000340463 -1.63322e-19)
(-6.05739e-05 -0.00045217 -3.6849e-19)
(-0.00015924 -0.000437123 -4.75283e-19)
(0.000763298 0.000839158 8.15511e-20)
(0.000693329 0.000768061 4.90013e-19)
(0.0025333 -0.00383433 1.14779e-18)
(0.00299258 -0.00382646 1.32197e-18)
(0.00504853 -0.00869712 5.74151e-19)
(0.00574503 -0.00896589 2.30795e-18)
(0.00496497 -0.00938075 1.21781e-18)
(0.00183658 -0.00116481 7.5673e-20)
(-5.65347e-05 0.000931122 2.17556e-19)
(2.79444e-05 0.00102656 -3.44908e-20)
(7.40912e-05 0.000893202 3.76254e-19)
(0.0329961 -0.0110164 -1.33269e-18)
(0.0324322 -0.0245482 -2.34849e-19)
(0.0295362 -0.00474547 -1.67917e-19)
(-0.00396364 -0.0142097 -8.46594e-19)
(-0.00474676 -0.0134733 3.61241e-18)
(-0.00492434 -0.0149197 5.21797e-18)
(0.00408061 0.00332699 1.62038e-20)
(0.00452357 0.0037781 -8.68277e-20)
(0.000256086 -0.000420941 -1.29842e-20)
(0.000210454 -0.000461934 -1.78924e-20)
(0.000195588 -0.000388933 -1.45067e-20)
(-0.302072 -0.186661 -7.24353e-18)
(-0.301807 -0.204464 6.32726e-18)
(-0.26169 -0.168556 1.06847e-17)
(-0.000230014 3.32754e-05 3.17206e-19)
(-0.000238472 4.90045e-05 4.30111e-19)
(-0.000248669 4.16988e-05 4.04568e-19)
(0.0466298 -0.0401453 8.86212e-19)
(0.00796589 -0.0213957 -3.19893e-18)
(0.00723607 -0.0196168 -7.19241e-19)
(-0.00107293 -0.000718538 -4.89329e-20)
(-0.0010337 -0.000596312 1.396e-19)
(0.00427384 -0.0084497 8.19643e-19)
(0.00496712 -0.00809123 -1.33563e-18)
(0.0242223 0.0158565 3.21604e-19)
(0.00777179 0.027651 2.26886e-21)
(0.00504194 0.0371746 -3.3421e-20)
(0.000208743 -0.00119865 1.98758e-19)
(0.000145993 -0.0012687 -3.16702e-19)
(-0.13351 0.0423682 -4.93154e-20)
(-0.130778 0.0509651 2.32982e-18)
(-0.153915 0.0289585 5.67854e-18)
(0.010429 -0.00445377 -4.84085e-19)
(0.0109185 -0.00491277 3.75437e-19)
(0.0115928 -0.0044965 1.84266e-19)
(0.0104044 0.168717 1.34272e-17)
(0.001149 0.166349 6.21485e-18)
(0.00333495 0.159649 -1.15768e-17)
(-0.000160031 3.87889e-05 6.22215e-19)
(-0.000162502 4.94025e-05 -4.49787e-19)
(-0.194565 -0.0853117 1.6717e-18)
(-0.235624 -0.0798104 3.63502e-18)
(-0.189474 -0.0757151 9.01985e-18)
(0.00829934 -0.0740514 -8.59133e-19)
(0.00622436 -0.0676441 -8.09661e-18)
(0.013721 -0.0707845 -2.35072e-18)
(0.0457131 -0.0405537 9.30246e-20)
(0.036945 -0.0445586 -9.59621e-20)
(0.0419056 -0.0317184 9.45106e-19)
(0.000855515 3.01771e-05 -1.22184e-19)
(0.000828755 2.54844e-05 -1.20526e-19)
(0.000849011 5.49928e-06 -1.96615e-20)
(-0.0332405 -0.0133816 4.54399e-18)
(-0.0370764 -0.0121282 -1.25183e-18)
(-0.000508962 0.000451588 -1.96837e-18)
(-0.000366721 0.000430395 -7.91813e-19)
(0.0066996 -0.0976987 -2.65509e-19)
(0.0168463 -0.0923388 -4.39474e-19)
(0.020643 -0.0786125 1.2883e-18)
(0.00198307 -0.0262789 -9.56047e-19)
(0.0039381 -0.0278553 -2.44452e-18)
(0.0017039 -0.000457294 -1.22344e-19)
(0.00181928 -0.000370755 -2.92642e-19)
(-0.000930225 -0.000235798 -4.25978e-20)
(-0.000921793 -9.06518e-05 -2.08991e-19)
(-0.020573 -0.0163412 4.17818e-18)
(0.00088446 3.88353e-05 4.72118e-19)
(0.00086012 5.80575e-05 -3.78393e-20)
(0.0428284 -0.0515993 1.1851e-18)
(0.0544257 -0.0326028 2.50433e-19)
(0.0289561 -0.0483219 2.4101e-18)
(0.0282518 -0.0393259 6.35994e-19)
(0.0199473 -0.0496628 -1.74923e-19)
(0.000297444 -5.45278e-06 1.61708e-19)
(0.000293605 -4.23664e-06 4.51575e-19)
(0.000297506 -3.77534e-06 1.18123e-19)
(0.0187797 0.00693024 1.63413e-20)
(0.0201821 0.00748613 -3.1254e-19)
(0.0188401 0.00551444 -3.47142e-19)
(0.000773938 0.000138281 1.7807e-19)
(0.000738783 0.000143722 2.57472e-20)
(0.000767663 0.000178209 3.01446e-19)
(-0.0524149 -0.00625533 -1.5061e-19)
(-0.0481105 -0.00581957 2.31656e-18)
(-0.0463301 0.00204915 -9.28405e-19)
(0.000161403 6.79499e-05 -2.15488e-19)
(0.000148099 7.95842e-05 1.76051e-19)
(0.000167839 8.76572e-05 1.1362e-19)
(-0.181841 -0.101208 -3.13576e-18)
(-0.111219 0.0641682 6.00485e-18)
(-0.10131 0.0757752 -6.0512e-19)
(-0.126919 0.0557753 2.08418e-18)
(0.00955657 -0.00601412 -1.1745e-18)
(0.00862445 -0.0066352 -6.10862e-19)
(-0.0908696 0.0768869 -5.44187e-19)
(-0.118708 0.0515866 9.93822e-20)
(0.0177405 0.00624033 -7.2563e-19)
(0.00029629 0.000144494 1.13561e-19)
(0.000278818 0.000160413 -4.01903e-20)
(0.00269479 -0.0756663 -6.67175e-18)
(0.000555906 0.00348663 -2.00552e-19)
(0.000219056 0.00371326 -3.78182e-19)
(0.000280531 0.00334676 -2.60845e-19)
(-0.00613181 0.00846353 4.95355e-19)
(-0.00496322 0.00878618 5.2252e-20)
(0.021731 0.00890862 2.31274e-20)
(0.0231883 0.00797698 1.10887e-18)
(0.0214752 0.00705299 9.42335e-21)
(0.00265757 0.00124078 7.69693e-21)
(0.0028526 0.00147697 1.49807e-20)
(-0.000760408 -0.000408049 8.86342e-19)
(-0.000815456 -0.000336112 -1.56495e-19)
(-0.000164463 0.000397699 -2.43664e-19)
(-6.54037e-05 0.000392138 -4.75302e-19)
(-0.0031619 -0.0135227 -4.3324e-18)
(-0.00317286 -0.0147984 -2.0751e-18)
(-0.000119418 -1.40849e-07 3.40542e-19)
(-0.000114912 -2.54829e-06 4.97282e-19)
(-0.000355878 0.000340985 -8.21125e-20)
(-0.000400702 0.000366119 -3.69722e-19)
(0.0126244 -0.0955853 -4.93394e-18)
(-0.0067053 0.00546169 5.95913e-19)
(-0.00663224 0.00639215 1.06685e-18)
(-0.00768343 0.00575857 5.46746e-19)
(0.0219012 0.17022 -1.2863e-17)
(0.033036 0.157049 -9.32387e-18)
(0.0104764 -0.00371118 2.23556e-19)
(0.0102343 -0.00450678 -2.35521e-19)
(-0.0212357 -0.11301 -3.35789e-18)
(-0.0126897 -0.119025 -2.51166e-18)
(-0.0625308 -0.0350976 3.22895e-19)
(-0.0664038 -0.0527007 2.30138e-18)
(-0.0629334 -0.0516666 -1.76698e-18)
(-0.050155 -0.0401305 -4.16704e-21)
(-0.0467236 -0.0351465 1.27622e-19)
(-0.0479079 -0.037894 -3.18282e-19)
(0.0002419 -0.000806373 2.12578e-20)
(0.000333021 -0.000766349 -1.54552e-20)
(0.0085437 -0.0108817 1.11134e-19)
(0.00715239 -0.0122525 -6.26387e-20)
(0.0240817 0.0276826 -1.96466e-18)
(0.0324899 0.0158233 -3.69248e-19)
(0.0276177 0.0184771 -5.25728e-19)
(-0.000158853 3.2068e-06 -5.36782e-20)
(-0.000163341 3.17412e-07 2.95773e-20)
(-0.0525006 -0.0437822 3.90948e-19)
(-0.0520621 -0.0413477 -1.50992e-19)
(0.00960059 -0.00333619 1.23462e-19)
(0.0103736 -0.00276513 5.40323e-19)
(0.00312161 -0.0057244 -1.00034e-18)
(0.00355178 -0.00552914 -5.7032e-20)
(-0.000156631 8.85195e-07 2.20921e-19)
(-0.00015057 -3.64045e-06 4.77831e-19)
(0.00145102 -0.0087193 -1.11186e-18)
(0.0021115 -0.00827994 -4.60277e-19)
(-0.00121592 -0.00075773 -5.8741e-19)
(-0.00110481 -0.000853477 -6.56534e-19)
(0.0341083 0.0306851 9.66605e-19)
(0.0395424 0.0315042 -8.24635e-20)
(0.0402916 0.0305526 4.26118e-19)
(0.033277 0.0279343 -2.97201e-19)
(0.0340435 0.0296991 3.51059e-20)
(0.0308085 0.0291948 -1.09301e-19)
(0.000873835 0.00401905 7.46257e-20)
(0.000494426 0.00433934 -3.99053e-19)
(-0.00666073 0.00460056 1.30436e-18)
(-0.0058742 0.00527233 -5.9554e-19)
(-0.000213095 3.02108e-05 -3.70809e-19)
(-0.000210627 2.48997e-05 -6.80863e-20)
(-0.000746856 0.00443234 4.57171e-19)
(-0.00098498 0.00486192 -5.40489e-19)
(-0.000461223 0.00471741 8.77218e-19)
(0.0547082 0.156312 1.51002e-17)
(0.0445725 0.159363 4.27567e-19)
(8.93464e-05 0.000121223 3.50493e-19)
(0.000108479 0.000135205 -2.92763e-19)
(0.000108107 0.000110577 -1.62089e-19)
(-0.00981676 -0.0169425 -5.46039e-19)
(-0.0152908 -0.0185457 -3.94224e-19)
(-0.000690722 1.29789e-06 -6.03835e-20)
(-0.000683357 5.68692e-05 -4.00212e-19)
(-0.00064202 1.862e-05 -3.49789e-20)
(-8.09718e-05 0.000146122 -7.57017e-19)
(-7.28221e-05 0.000125385 5.85818e-19)
(0.000943425 0.000505404 -1.47084e-20)
(0.000997756 0.000584674 -2.2159e-19)
(-0.000151344 -0.0249343 6.35399e-19)
(0.0301988 0.0290023 1.48286e-18)
(0.0344442 0.0273232 -4.14804e-19)
(-0.00834356 -0.0191272 8.29325e-19)
(-0.00518242 -0.0153109 -7.82522e-19)
(0.0298145 0.0288795 -9.18427e-19)
(0.027928 0.0302562 1.41802e-18)
(-8.48138e-05 -5.34834e-06 -1.1569e-18)
(-7.84574e-05 -6.07744e-06 -5.91901e-19)
(-9.01081e-05 -1.85277e-06 1.67181e-19)
(-0.000246344 0.000401976 1.72298e-19)
(-0.000195136 0.000490013 1.07943e-18)
(0.000385348 -0.000367502 8.03356e-21)
(0.000390427 -0.000338827 -4.56714e-20)
(0.000423415 -0.000369425 3.16293e-20)
(-0.258479 -0.246047 1.21138e-18)
(-0.281701 -0.261858 1.4541e-18)
(0.000265618 -0.000238338 1.19229e-18)
(0.000227593 -0.000154858 -1.64055e-18)
(0.000326646 -0.000153029 -1.30298e-18)
(-0.338013 -0.204891 -6.13197e-19)
(-0.337923 -0.188509 1.49351e-18)
(-0.00102176 0.0041146 2.78437e-19)
(-0.0005562 0.00402668 4.20289e-19)
(-0.0356136 -0.0118548 9.03904e-19)
(-0.0390647 -0.00627384 -1.3106e-19)
(-0.0411197 -0.0141114 7.65962e-19)
(-0.000180876 -0.00329721 1.23314e-18)
(-0.0004456 -0.00338494 6.40025e-20)
(-0.000213392 -0.00360155 -8.70956e-19)
(-0.000148112 0.000375401 -1.24976e-19)
(-0.00014094 0.000405791 -3.58475e-20)
(-0.000177192 0.00039875 -1.6048e-19)
(-9.61663e-05 -4.84905e-06 -7.40245e-19)
(-7.40572e-05 -2.73492e-06 5.03499e-19)
(0.0484585 -0.00501863 1.47838e-19)
(0.00100169 -0.000653966 5.61488e-20)
(0.000899843 -0.000676032 -1.61873e-19)
(-0.0426615 -0.0334487 -2.21295e-19)
(-0.0366101 -0.0289636 7.91105e-19)
(-0.041437 -0.0337869 -1.734e-19)
(-0.136501 0.034043 -1.77615e-19)
(-0.115957 0.0541039 -3.32829e-18)
(8.38165e-05 -0.00321474 1.87879e-18)
(-0.000134213 -0.00304429 4.46714e-19)
(0.000117484 -2.13299e-05 1.04483e-19)
(6.91985e-05 -1.21018e-05 5.09308e-19)
(5.34176e-05 -1.15153e-05 -1.01986e-19)
(-0.0345473 0.0906085 3.2886e-18)
(-0.0267089 0.0738973 1.30457e-17)
(-0.0127588 0.09056 2.09009e-18)
(0.0147514 0.00441856 -5.18448e-19)
(0.012913 0.00582893 -4.9125e-19)
(0.0153025 0.00638556 -3.25154e-19)
(0.00155115 0.00060255 -1.49819e-20)
(0.00150737 0.000734003 8.14385e-20)
(0.00165967 0.000682809 -1.27034e-19)
(0.0177046 0.00602067 -1.23625e-19)
(0.0167411 0.00688085 -1.7124e-19)
(0.0159754 0.00893447 -5.04268e-19)
(6.2127e-05 -0.000117887 1.31675e-19)
(9.41275e-05 -0.000102906 -3.6938e-19)
(0.00909091 -0.0171755 -2.55114e-18)
(0.00998942 -0.018647 4.45982e-18)
(0.00827918 -0.0183905 -9.62583e-19)
(0.00807909 0.00474178 -2.00332e-19)
(0.00794265 0.00336452 2.39622e-19)
(0.009347 0.00422759 -5.29712e-19)
(0.000199813 -1.66712e-06 6.9411e-20)
(0.000274496 -9.17438e-06 -1.75461e-19)
(0.000198678 -3.62265e-06 -1.894e-20)
(-0.0322992 -0.0223292 -4.95914e-19)
(-0.0334836 -0.0189758 1.03996e-18)
(-0.0360815 -0.0245766 2.28611e-18)
(-0.0146376 -0.0238474 6.67484e-19)
(0.00126624 0.00064625 -2.69067e-19)
(0.00142975 0.000739927 7.58233e-19)
(0.00119249 0.000818775 7.50364e-19)
(0.032553 0.0524479 -4.15439e-19)
(0.0223512 0.0530022 -1.05629e-18)
(0.0182717 0.0560427 4.91376e-19)
(-0.00643148 0.00732379 4.42685e-19)
(-0.00743991 0.00793694 -7.63967e-21)
(0.000348631 -0.000363196 -9.65032e-21)
(0.000378916 -0.000393077 3.53242e-20)
(0.000782395 0.000107378 7.30345e-20)
(0.000812753 0.000134625 2.86721e-19)
(0.0034416 -0.00459879 -7.37762e-19)
(0.0207602 -0.0623739 3.18509e-20)
(0.000285885 -0.000369198 2.29323e-20)
(0.000306412 -0.000431853 1.53729e-20)
(-0.0571697 -0.0196036 -1.18961e-19)
(-0.0590782 -0.0244815 1.13767e-19)
(0.0158532 0.00271259 -4.37282e-21)
(0.0136087 0.00277475 2.17166e-19)
(0.0346065 0.0401565 6.26696e-20)
(0.0378676 0.0427634 4.27904e-19)
(0.000318978 -0.000337553 2.14357e-18)
(0.000360785 -0.000462084 -7.20131e-19)
(0.000466767 -0.000352192 2.64897e-18)
(0.00978298 -0.0095383 1.38612e-20)
(0.0105869 -0.01142 1.22569e-19)
(0.0456493 0.0488582 1.0444e-19)
(0.0418936 0.0527329 -5.0571e-19)
(-0.0324879 -0.0252569 -7.49394e-19)
(-0.0287622 -0.0206634 3.38238e-19)
(0.000241827 -7.91234e-06 -9.75966e-20)
(0.00026882 -1.32436e-05 -1.48836e-19)
(-0.000637924 -0.00015104 -2.75718e-20)
(-0.000569464 -0.000222204 -6.72414e-19)
(-0.000551597 -0.000139935 -6.71584e-19)
(0.000526607 0.00102401 2.00967e-19)
(0.000432054 0.000994595 4.35682e-19)
(0.00130308 0.000483171 -1.09865e-19)
(0.00111859 0.000579209 -1.57416e-18)
(0.0067464 0.00526028 1.91583e-19)
(0.00812875 0.00620428 -6.94802e-19)
(0.0195195 0.00510413 5.58811e-19)
(0.0221373 0.00065226 4.22829e-19)
(0.000996963 0.000461566 4.35184e-20)
(0.000909139 0.000458702 -7.33172e-20)
(0.0346076 -0.0182707 1.91922e-18)
(0.0333657 -0.00339448 1.84919e-18)
(-0.0224114 -0.102862 -6.24661e-19)
(-0.0143374 -0.0971016 3.51315e-19)
(-0.0234347 -0.0924014 -1.74266e-19)
(0.00016034 0.00137822 5.62003e-20)
(0.000208516 0.00120311 1.84289e-19)
(0.000671042 -3.67646e-05 1.22234e-19)
(0.000679242 -2.69463e-05 7.75237e-20)
(0.000571797 -1.9073e-05 4.55906e-19)
(-0.324987 -0.196332 -1.16067e-17)
(-0.343075 -0.225137 5.44609e-18)
(-0.0319709 -0.0154887 -4.2155e-19)
(-0.0308358 -0.00950873 -1.80512e-18)
(0.0280268 0.00360956 5.15342e-19)
(0.0258024 -0.00610447 8.69193e-19)
(0.0240414 0.00514799 -3.10338e-19)
(0.032003 -0.0390721 1.05814e-18)
(0.0293544 -0.036333 -1.16398e-18)
(0.031411 -0.0564209 -6.87643e-19)
(0.000297634 -8.99616e-06 -5.823e-20)
(0.000271252 -6.84271e-06 -9.1188e-20)
(0.00826727 -0.000514503 7.37741e-20)