/*--------------------------------*- C++ -*----------------------------------*\
| =========                 |                                                 |
| \\      /  F ield         | OpenFOAM: The Open Source CFD Toolbox           |
|  \\    /   O peration     | Version:  v2012                                 |
|   \\  /    A nd           | Website:  www.openfoam.com                      |
|    \\/     M anipulation  |                                                 |
\*---------------------------------------------------------------------------*/
FoamFile
{
    version     2.0;
    format      ascii;
    class       volScalarField;
    location    "100";
    object      k_0;
}
// * * * * * * * * * * * * * * * * * * * * * * * * * * * * * * * * * * * * * //

dimensions      [0 2 -2 0 0 0 0];


internalField   nonuniform List<scalar> 
10042
(
0.000366074
0.000584957
0.000116849
0.000141691
0.000142026
0.00902822
0.000346466
0.00681015
0.000135586
0.000189643
0.00816049
0.000672227
0.000171917
0.000141584
0.000146758
0.00014161
0.00736665
0.00807717
0.000154824
0.00016168
0.000171775
0.000366493
0.000141575
0.00913118
0.000141074
0.000155844
0.000187067
0.000134251
0.00826381
0.00740548
0.000157445
0.000175438
0.00013517
0.000134994
0.00700638
0.00659008
0.000149858
0.000135632
0.000149649
0.000233241
0.0082694
0.000135305
0.00175493
0.00593099
0.000141276
0.000141126
0.000132932
0.000146384
0.000199574
0.0602009
0.00248931
0.000140683
0.00723367
0.000154271
0.000446923
0.0299852
0.000170255
0.00672218
0.000147468
0.000131011
0.000199535
0.000469308
0.000292794
0.00724936
0.00104264
0.000145199
0.000159869
0.000542133
0.000132702
0.00045985
0.0200431
0.000151642
0.000137312
0.00014721
0.000144742
0.0145145
0.000307495
0.000132907
0.000280071
0.000154865
0.00749034
0.00871503
0.000169375
0.000140078
0.000175754
0.00023433
0.000158447
7.17409e-05
0.000140816
0.000337385
0.000163185
0.00014677
0.000272153
0.000238426
0.000576389
0.000143522
0.0614182
0.000160161
0.000692034
0.000146929
0.000162539
0.000210896
0.000148106
0.000170538
0.000157405
0.000146378
0.0604564
0.00014418
0.000320451
0.000146874
0.000146729
0.000282627
0.000208675
0.00725086
0.000614227
0.0001328
0.000202016
0.000155505
0.00529978
0.000132644
0.000131011
0.000514396
0.000454698
0.000141372
0.000468721
0.000141519
0.000141852
0.000443133
0.00177128
0.000202051
0.000135878
0.000143321
0.000143311
0.000143205
0.000277528
0.00682759
0.00016005
0.0605361
0.000151763
0.000755596
0.00021009
0.000138301
0.0584027
0.000134242
0.000160778
0.000135702
0.000173834
0.000132544
0.000150488
0.00789859
0.000143702
0.000146049
0.000152838
0.000176949
0.000379034
0.000161264
0.00106503
0.00885352
0.000143671
0.000158727
0.00015254
0.000238695
0.00401957
0.000141124
0.000150489
0.00980943
0.000137252
0.000171945
0.00667907
0.000134619
0.000337146
0.0067664
0.000442796
0.000134825
0.000154253
0.000497203
0.000141317
0.000135607
0.000142789
0.0001327
0.000151483
0.000157863
0.000147189
0.000132235
0.0045965
0.000162988
0.00015182
0.000131338
0.0947494
0.000146173
0.000697486
0.000170218
0.000136069
0.000157317
0.000569055
0.000146732
0.115283
0.000246958
0.0670704
0.000140214
0.0252267
0.00021421
0.00126397
0.000137264
0.0007417
0.000142662
0.00468283
0.000176483
0.000146355
0.000143365
0.000173722
0.000136051
0.00160211
0.00119129
0.000151077
0.000430128
0.000136888
0.00347323
0.000143805
0.0167193
0.116996
0.000263469
0.110267
0.000400426
0.00014167
0.000208702
0.000148043
0.000158464
0.000179361
0.000148472
0.000135713
0.000142307
0.000163152
0.000162179
0.000141299
0.00658137
0.000155969
0.0607395
0.000159218
0.00910325
0.0130917
0.00665031
0.000131021
0.000305603
0.000199375
0.000142754
0.00653227
0.000158517
0.000153123
0.000146509
0.000156577
0.000136318
0.000152031
0.000407188
0.00014986
0.000154874
0.000150021
0.000149733
0.0619628
0.000141672
0.000991001
0.000136079
0.000140574
0.000133091
0.000173142
0.000400762
0.000731233
0.000356951
0.000164287
0.000142369
0.000143678
0.0360246
0.000139992
0.0549924
0.000148972
0.00454712
0.000150185
0.000141077
0.000165245
0.00201788
0.000134297
0.00580516
0.113358
0.000149865
0.000160893
0.0727157
0.000205087
0.000133881
0.000284085
0.000150433
0.000168742
0.000180808
0.000164166
0.00367463
0.00138119
0.000141824
0.00084548
0.000158009
0.000143768
0.000137524
0.000152538
0.00177549
0.000131351
0.0105006
0.000203373
0.000424343
0.000140752
0.000319855
0.00214498
0.00333487
0.000155116
0.000142639
0.000143387
0.000141655
0.00018037
0.000176453
0.000133113
0.0038145
0.00733184
0.000132636
0.000163144
0.0651698
0.00342573
0.00422431
0.00707388
0.000153999
0.000177791
0.000142577
0.000156596
0.00016734
0.000142404
0.000144393
0.000333011
0.000147887
0.00604308
0.000303135
0.0603652
0.00338104
0.000136545
0.0105451
0.000209614
0.000172724
0.000131073
0.00017641
0.000157181
0.000135619
0.000139167
0.000143257
0.000160465
0.0637281
0.00014832
0.000746123
0.000160102
0.000157415
0.000482468
0.000182506
0.000148414
0.000168572
0.106673
0.000171017
0.000145903
0.000150879
0.000150461
0.00675596
0.0111126
0.000150815
0.00014107
0.000156602
0.000157091
0.000772366
0.000131062
0.000170036
0.000140309
0.000154329
0.000223123
0.000141424
0.00445115
0.0186071
0.000590993
0.000220226
0.000144806
0.0173473
0.000179137
0.000142212
0.0001833
0.000132806
0.000145138
0.000132439
0.000144768
0.000133758
0.000148511
0.0568526
0.00014831
0.000199506
0.0109861
0.000394431
0.000142206
0.00712134
0.000150287
0.000175811
0.00014079
0.0900979
0.000279449
0.00046258
0.0549677
0.00015824
0.000204
0.000187244
0.0153654
0.000147834
0.00378407
0.00016279
0.0060444
0.000148016
0.00710562
0.000150224
0.000164388
0.000645172
0.000133543
0.000149126
0.000144823
0.0108707
0.000135764
0.00013212
0.000213596
0.000153875
0.00017903
0.00336732
0.000141522
0.000172785
0.000154029
0.000132963
0.000163028
0.00629639
0.00017804
0.000150046
0.0096054
0.00560045
0.000162316
0.0431997
0.000134334
0.000174061
0.000184705
0.0939266
0.0169374
0.00415806
0.00706251
0.00136726
0.00720144
0.000132054
0.00334631
0.00818525
0.0091536
0.000182063
0.000141564
0.000139416
0.000484219
0.0487862
0.000132333
0.000160962
0.000159469
0.000141985
0.000181365
0.000189505
0.000144198
0.000164277
0.000362783
0.000149773
0.000175074
0.000403075
0.000868104
0.000138123
0.0819728
0.00974861
0.000729951
0.000145637
0.000158709
0.000160633
0.000382621
0.000143846
0.000222685
0.000148014
0.000955788
0.000140069
0.00015656
0.000159175
0.00230997
0.0019846
0.000158861
0.000139658
0.000142872
0.0033148
0.000135997
0.000194734
9.49588e-05
0.000203576
0.000151212
0.000204764
0.00150107
0.000877185
0.000145533
0.000157628
0.00626553
0.00251794
0.000180463
0.000453262
0.000147386
0.00220881
0.000170002
0.000165831
0.000156387
0.00446402
0.000149941
0.000141446
0.000147618
0.000395665
0.000141437
0.016914
0.000141981
0.000145019
0.000138301
0.000164211
0.000169662
0.000148153
0.000150017
0.000526451
0.000268355
0.000179046
0.00014797
0.000144077
0.00289547
0.000835071
0.000145158
0.000135419
0.000127838
0.00014377
0.000143776
0.000247979
0.000135699
0.000327235
0.000140862
0.000182828
0.000431388
0.0990527
0.000141522
0.000159939
0.000144956
0.000136817
0.000509981
0.000131252
0.019381
0.000180383
0.000135266
0.000174652
0.0643056
0.0100152
0.00031896
0.000147659
0.000135396
0.000132381
0.000198867
0.00144055
0.000147077
0.0134306
0.000143333
0.000135531
0.00246715
0.000157594
0.00212902
0.0001675
0.000139304
0.00147258
0.00479755
0.000336561
0.00358585
0.000143593
0.000161301
0.000138331
0.000135453
0.000143344
0.000142712
0.000145723
0.000146764
0.0800876
0.00014772
0.000218935
0.000140793
0.000251796
0.000133242
0.000182722
0.00585163
0.000135195
0.000140978
0.00614877
0.000239551
0.000133419
0.000425098
0.000141369
0.000345834
0.000135721
0.000151235
0.000136661
0.107065
0.000133271
0.000140656
0.000141848
6.06307e-05
0.000159418
0.000143274
0.000147458
0.000892522
0.000142183
0.000141627
0.000137633
0.000141685
0.000157134
0.000141442
0.000230464
0.000139107
0.058596
0.00875106
0.00143583
0.000147407
0.00015542
0.000143371
0.000222847
0.000149843
0.00885182
0.000408939
0.00104893
0.000335268
0.00654359
0.000143576
0.000144675
0.00102851
0.00078755
0.000177861
0.000197955
0.000147073
0.00244891
0.000139888
0.000145746
0.000138947
0.000135899
0.000152018
0.00086274
0.00014985
0.000154034
0.0622823
0.000142782
0.000237824
0.000200859
0.000149514
0.000182717
0.000145732
0.00603041
0.000142889
0.000142284
0.000210191
0.000145318
0.000133073
0.000158825
0.000140398
0.00013933
0.00778425
0.000256215
0.00895117
0.000146091
0.000140557
0.000140366
0.00386018
0.000152304
0.000144693
0.000139346
0.000138779
0.00692818
0.0694349
0.00133001
0.000148743
0.000160754
0.0565463
0.000160809
0.000164252
0.000179038
0.0036431
0.000406407
0.00677988
0.000139764
0.000147075
0.000143343
0.00723062
0.000139628
0.000156814
0.000143891
0.000131416
0.000175706
0.000147
0.111493
0.121111
0.000133786
0.000141184
0.000131959
0.0049553
0.000135812
0.00519437
0.000154308
0.0922871
0.000140494
0.000141456
0.000135255
0.000141357
0.000144145
0.000139452
0.000143949
0.000148308
0.000195203
0.000155766
0.001659
0.000143561
7.31219e-05
0.00379975
0.000153108
0.00608494
0.000140555
0.000141454
0.00028827
0.000150966
0.00344472
0.000143907
0.000146857
0.000139267
0.00279338
0.000140805
0.00711866
0.000176244
0.000140729
0.000218474
0.00722643
0.000190049
0.000137516
0.000200549
0.000169773
0.0186113
0.000192383
0.000150117
0.000184104
0.000145795
0.000145887
0.000144823
0.000166316
0.000689848
0.00174764
0.000262457
0.000131844
0.000211373
0.000148935
0.000187335
0.000169697
0.00552158
0.000147215
0.000145524
0.000495938
0.000140435
0.000196215
0.000167517
0.000162186
0.00707318
0.000228116
0.000140612
0.000147392
0.000175837
0.000141095
0.000411831
0.000148008
0.000175262
0.00015723
0.00235568
0.00014616
0.000164094
0.00147366
0.000148614
0.00017463
0.00013434
0.000171966
0.000140875
0.000147748
0.000142087
0.000143754
0.000152174
0.00018201
0.00015441
0.000146549
0.00330493
0.000134395
0.000140663
0.000140844
0.000132158
0.00196125
0.00021871
0.000151394
0.000298965
0.00251664
0.000143982
0.00276341
0.0178794
0.000138615
0.000141658
0.000131967
0.000270117
0.00395791
0.000156869
0.000140344
0.000184383
0.000445361
0.0671021
0.000150042
0.000409146
0.000427896
0.0014817
0.000235815
0.000141239
0.000214475
0.00514785
0.000210705
0.000147736
0.0735094
0.000280223
0.00709015
0.00324834
0.000141869
0.000207569
0.0172178
0.000797565
0.000350149
0.000166018
0.0732477
0.000150548
0.00734614
0.000145172
0.000291159
0.000155671
0.000180899
0.000131387
0.00014622
0.000141122
0.00245985
0.000142797
0.000132213
0.00252756
0.000144393
0.000161667
0.000151789
0.00131218
0.000146764
0.000150474
0.000145085
0.000143036
0.000142696
0.000158252
0.000139442
0.0144139
0.000205847
0.000167945
0.000143195
0.0127811
0.000139058
0.000199014
0.00617594
0.0019442
0.000142966
0.000132708
0.000142754
0.000150883
0.00571325
0.000184761
0.000140547
0.00423862
0.000144266
0.000145496
0.00827182
0.0001322
0.000146152
0.00319259
0.000139944
0.00149942
0.000151738
0.000197293
0.000161566
0.000181176
0.000178479
0.000143545
0.0241973
0.0370778
0.00014089
0.000169567
0.110547
0.0229829
0.000263596
0.00016112
0.000138767
0.00202141
0.000146118
0.000218103
0.000624253
0.000155443
0.000132374
0.000169838
0.00212442
0.0039041
0.000132544
0.000131954
0.00015627
0.000147342
0.0084425
0.00661691
0.000143617
0.000157739
0.00793999
0.000144897
0.000155755
0.0825264
0.000153829
0.000380196
0.000216314
0.000146428
0.000146309
0.000205688
0.000219093
0.000487884
0.000144178
0.00626412
0.00107769
0.0122472
0.000156022
0.000153122
0.0819535
0.000173286
0.00363634
0.000166103
0.00014451
0.000142452
0.005899
0.012338
0.000148935
0.000157145
0.000176646
0.00014124
0.000117593
0.000148896
0.000141277
0.00016013
0.00017119
0.000140475
0.000141165
0.0902705
0.000139645
0.000138498
0.000179634
0.000159206
0.00616082
0.000155968
0.000146535
0.00783233
0.000183866
0.000155898
0.000172321
0.00117059
0.000140929
0.000135929
0.00015879
0.000217932
0.000140048
0.000146423
0.000142304
0.000178824
0.00014182
0.000516192
0.000145255
0.000296654
0.000145367
0.000176218
0.000149677
0.000147554
0.000186664
0.0046585
0.000280516
0.000143127
0.000151647
0.00772865
0.000185134
0.00217021
0.000149549
0.00184379
0.000141107
0.000687716
0.000112902
0.000209401
0.000152577
0.000140826
0.000186026
0.0585254
0.000250626
0.000164183
0.000150525
0.000159957
0.000301734
0.000138934
0.000137408
0.000179847
0.000131492
0.000138358
0.00035882
0.000145593
0.000554883
0.00013659
0.000137667
0.000139688
0.000173178
0.000148
0.00020878
0.00291305
0.000138506
0.000145434
0.0020305
0.000141867
0.000188152
0.00015688
0.00177762
0.00635263
0.000152977
0.000510637
0.000161911
0.000145332
0.117468
0.000149215
0.000140905
0.000132901
0.000140661
0.000169806
0.00346886
0.000177874
0.000610572
0.00333799
0.00224329
0.000206682
0.00649788
0.000155045
0.00031614
0.000134762
0.00016206
0.000146226
0.000147428
0.000149567
0.0023353
0.000541527
0.00014312
0.00355025
0.000138121
0.000253882
0.000145772
0.00015537
0.00015012
0.000293069
0.00236387
0.000142152
0.000133784
0.0336318
0.000157644
0.00121032
0.000495169
0.00756354
0.000146373
0.00634541
0.0104728
0.000139183
0.000138119
0.000140596
0.000158489
0.000146108
0.000150425
0.000151008
0.00017446
0.000147018
0.000146063
0.000167752
0.000303635
0.00472415
0.000133468
0.000236601
0.000152599
0.000177053
0.000184157
0.000170009
0.000139169
0.000179434
0.000187446
0.000136363
0.000184149
0.0077596
0.000147097
0.000138255
0.000159448
0.0042658
0.00414139
0.000141639
0.00604877
0.000146184
0.000146927
0.0208209
0.000140427
0.000159929
0.00013832
0.000165047
0.000226104
0.00390617
0.000168791
0.000147867
0.00014316
0.000154
0.000141463
0.000655436
0.000133645
0.0001702
0.000364353
0.00735822
0.000137747
0.00387194
0.000139184
0.00023493
0.000150794
0.000359802
0.000134172
0.00199943
0.0739755
0.0576432
0.000144616
0.00369214
0.00774386
0.00191037
0.000148176
0.00572156
0.000141003
0.00175085
0.00438188
0.000166853
0.0752232
0.00325121
0.00655647
0.0820792
0.000258315
0.00383605
0.000138054
0.000161444
0.00452728
0.000212037
0.000143068
0.00069484
0.000149567
0.000139504
0.000152582
0.00296596
0.000212159
0.000173032
0.00517879
0.000165858
0.000695002
0.000150261
0.000141108
0.000165232
0.0065203
0.00593367
0.000165613
0.00117802
0.000148592
0.000150148
0.000169923
0.000911243
0.000181069
0.000139452
0.000247723
0.00676362
0.000147911
0.000245562
0.000136527
0.000169877
0.000270808
0.000139934
0.00794318
4.01868e-05
0.000142863
0.000150252
0.00014032
0.00148047
0.000156485
0.0118688
0.000249648
0.000140817
0.000146111
0.000134001
0.000172285
0.000139288
0.000815765
0.00015379
0.0036045
0.000518978
0.000150244
0.000162457
0.00385124
0.000148041
0.000168417
0.00015155
0.000144758
0.0743493
0.000519158
0.000149149
0.0717462
0.000223456
0.00512716
0.000139698
0.000163614
0.000171741
0.000155557
0.000178861
0.000334498
0.000147044
0.00016472
0.00802531
0.000175996
0.000155491
0.000485478
0.000289567
0.00678742
0.00014043
0.000133081
0.00338088
0.000140432
0.00560979
0.00114827
0.000200241
0.00251555
0.00014927
0.000165217
0.00772962
0.000255887
0.000140788
0.0248919
0.000170013
0.000142475
0.000200037
0.000150265
0.000145228
0.000181718
0.000156359
0.000156782
0.000153709
0.000140745
0.000154723
0.00183247
0.000166053
0.00288608
0.000143624
0.000161283
0.000140348
0.000142968
0.00180762
0.000145628
0.00680407
0.0078385
0.000150361
0.000575521
0.000168741
0.000260592
0.00013208
0.00730917
0.000136191
0.000214903
0.000154618
0.000158296
0.000139008
0.000709192
0.00015545
0.000391725
0.000170973
0.000136944
0.00555885
0.000131765
0.0736329
0.000140704
0.00282567
0.000142198
0.000137646
0.000136028
0.00715231
0.000139497
0.000144413
0.000134391
0.000140183
0.000143526
0.000112158
0.00674464
0.000151681
0.000159184
0.00014675
0.000140593
0.000138788
0.0078367
0.0670611
0.000157745
0.00014402
0.00013889
0.00013896
0.000157411
0.000157179
0.000135564
0.000404178
0.00101418
0.000280697
0.000148584
0.000140196
0.000143167
0.000153002
0.000138156
0.000149936
0.000143528
0.000139305
0.000180852
0.000148771
0.000280901
0.00896097
0.0598499
0.000218083
0.000140582
0.00014114
0.0920954
0.000147577
0.000164328
0.000168377
0.000137243
0.000143572
0.000141213
0.000548605
0.000144417
0.000543686
0.00866769
0.000182215
0.000143434
0.000158129
0.00278672
0.0001552
0.000174709
0.000156616
0.000172475
0.000137049
0.00015874
0.000363888
0.00311056
0.000139052
0.000145523
0.00035684
0.0001563
0.000179441
0.000169377
0.0022856
0.000143134
0.000158153
0.000260318
0.000340721
0.000199497
0.000152954
0.000140983
0.000139234
0.000146599
0.000185483
0.0019507
0.00792756
0.000138014
0.101361
0.00015601
0.00434426
0.00298457
0.000141202
0.0118222
0.000213822
0.000138681
0.000191951
0.000169798
0.000145864
0.000525937
0.000139589
0.061582
0.000237512
0.0541141
0.00756416
0.000181902
0.000143853
0.000158241
0.000149877
0.00014018
0.000136211
0.000141957
0.000634799
0.000148855
0.000174885
0.00237136
0.0458133
0.000174725
0.000268072
0.000148405
0.0675603
0.000132657
0.000665135
0.0916339
0.0466581
0.0433077
0.00900556
0.00395998
0.000134266
0.000145473
0.000135727
0.000206564
0.000153382
0.0107817
0.00015625
0.102267
0.000160546
0.000146701
0.000147344
0.000145912
0.00013456
0.00344643
0.0119601
0.0615864
0.000139497
0.000169408
0.000155262
0.00015006
0.000225735
0.000144368
0.00152279
0.00109988
0.000149477
0.000222334
0.000940187
0.000160414
0.00204209
0.00499636
0.000147654
0.0024898
0.000154493
0.0806543
0.000140473
0.00220326
0.000145384
0.000147218
0.000196216
0.00431091
0.00052785
0.0922884
0.000246535
0.00113565
0.000213377
0.000178369
0.00580387
0.00314139
0.000226156
0.000160572
0.116805
0.000263258
0.00574512
0.000175659
0.000677467
0.000157956
0.000171063
0.011743
0.000147801
0.000156115
0.000169941
0.000133136
0.000137126
0.000140676
0.000143746
0.061996
0.000149107
0.00434034
0.000224986
0.000529911
0.00862126
0.0013397
0.000144947
0.00014832
0.00129184
0.00166429
0.000165775
0.00524846
0.0634729
0.00146193
0.000139591
0.000168808
0.000156435
0.000220004
0.000213153
0.00534934
0.00163354
0.000185552
0.000145315
0.000151687
0.000281201
0.00124683
0.000184047
0.000442957
0.000140506
0.000168706
0.000152383
0.000490538
0.000153687
0.000136272
0.000140127
0.000152034
0.000332582
0.00335546
0.000147748
0.000206758
0.00714517
0.00015138
0.00255894
0.000168986
0.000168011
0.000167402
0.000170082
0.00161771
0.000141404
0.000139922
0.000157452
0.000254065
0.000219745
0.000171621
0.000149931
0.000152588
0.000147437
0.000214338
0.000172336
0.00015371
0.000147156
0.00793097
0.000156811
0.000654297
0.000151963
0.00016602
0.000141175
0.00408535
0.000202908
0.000182216
0.0630525
0.000158209
0.000165153
0.00115122
0.000158322
0.00425069
0.00460367
0.000146807
0.000151848
0.0306062
0.000143319
0.000340278
0.000146941
0.00750545
0.00649188
0.000248135
0.000153121
0.000140703
0.00014185
0.000143294
0.000156762
0.000132402
0.000146413
0.000140497
0.000138548
0.000154462
0.000151691
0.00014674
0.000150569
0.0229208
0.00014554
0.0551207
0.000148862
0.000145374
0.00295885
0.000141322
0.0608393
0.00620304
0.000144892
0.000149955
0.000175808
0.000433986
0.000170204
0.0713908
0.000164712
0.000147957
0.000361781
0.000138739
0.0995949
0.000146388
0.00757415
0.000133855
0.0185671
0.0735623
0.00631761
0.00014806
0.000154541
0.000139235
0.000153386
0.000213973
0.000140198
0.000143436
0.000179948
0.000167101
0.00607876
0.0002557
0.000149226
0.000177726
0.000144485
0.000160784
0.000150694
0.000143422
0.000149594
0.0575423
0.0592246
0.0001374
0.000153768
0.000149623
0.000151619
0.000117098
0.0612269
0.000194109
0.00248676
8.49846e-05
0.000152017
0.000154325
0.000197756
0.00013937
0.000154489
0.000163077
0.000151587
0.0088524
0.000151846
0.000688423
0.000200266
0.000149512
0.000183827
0.000152386
0.000154252
0.000154292
0.000160881
0.000296369
0.000148821
0.000263139
0.000145986
0.0664336
0.00232074
0.000156055
0.000147349
0.000138615
0.000161254
0.000144518
0.00130827
0.000140228
0.000225276
0.000145708
0.000157663
0.000164588
0.000145665
0.0692411
0.000148554
0.000150002
0.000503483
0.0001538
0.000156083
0.00639149
0.000149076
0.000441409
0.000139472
0.000138692
0.000149602
0.000162578
0.000136974
0.00826885
0.000149641
0.000141396
0.0065103
0.00110566
0.034129
0.00111997
0.0038422
0.000159669
0.000137781
0.000153155
0.0033165
0.000163221
0.020444
0.000150864
0.000167676
0.00140776
0.000776947
0.000138455
0.102503
0.0089656
0.000140516
0.000159491
0.00014863
0.000149946
0.00490666
0.000109591
0.000145826
0.00013919
0.00013437
0.00733158
0.00014746
0.00308116
0.000172084
0.000147173
0.000140363
0.00014148
0.0544117
0.000602602
0.000139957
0.00539473
0.0123802
0.000149561
0.000629968
0.000146833
0.000137908
0.000138459
0.000146315
0.000144023
0.000145171
0.000148206
0.000151931
0.000147264
0.000200085
0.000153124
0.00687859
0.000167744
0.00014301
0.000329321
0.000134187
0.000203549
0.00019378
0.000140343
0.00844462
0.000141105
0.000219882
0.121379
0.000138065
0.000696464
0.00412207
0.000145574
0.000148153
0.000143859
0.000739524
0.00014647
0.000759463
0.00178476
0.000156086
0.000161929
0.000180627
0.000216739
0.000145984
0.000290833
0.000147419
0.000400624
0.000368933
0.000200883
0.00243981
0.000168509
0.000229536
0.00209958
0.000356869
0.000145714
0.000185516
0.000152522
0.000183299
0.000137062
0.000156119
0.0105913
0.000160739
0.00935406
0.000338078
0.000169502
0.00844671
0.00013752
0.000231134
0.000145997
0.000159486
0.0034473
0.00766024
0.111551
0.000171856
0.000158386
0.00176055
0.00016909
0.000140599
0.000138962
0.000149417
0.000148829
0.000157457
0.000141375
0.000360162
0.000159315
0.000141698
0.000142063
0.000143071
0.000142683
0.000254557
0.000139489
0.0323539
0.000148894
0.000364177
0.000147843
0.00014492
0.000135563
0.000204282
0.000145758
0.0892368
0.0124546
0.00810302
0.000158471
0.000149564
0.000143782
0.000140275
0.000139714
0.00459839
0.000149449
0.000149131
0.00843531
0.00014486
0.00015091
0.108693
0.000384865
0.000235601
0.000251028
0.00254355
0.0116147
0.000140942
0.000139142
0.00016994
0.000325721
0.0022047
0.00587278
0.000344506
0.000143399
0.000138851
0.00625452
0.000162537
0.000148683
0.000196747
0.000148204
0.000153029
0.00384986
0.0138282
0.000165716
0.00015996
0.000156089
0.00018097
0.0151656
0.00014604
0.00014018
0.000144295
0.00719722
0.000139947
0.00015648
0.0142205
0.110315
0.000137335
0.00013995
0.000137049
0.000146538
0.000146153
0.000174002
0.0118226
0.000150338
0.00104223
0.000260414
0.00198003
0.000167791
0.000150331
0.000145328
0.000142121
0.000139056
0.000139736
0.000146131
0.0151706
0.0153493
0.000158776
0.0001376
0.000148473
0.000146156
0.000327708
0.00017463
0.0130091
0.000380078
0.000202291
0.000206533
0.000142908
0.000142829
0.000142472
0.000146242
0.00734383
0.000143163
0.000155622
0.000293621
0.000202149
0.00041569
0.000266827
0.00453563
0.00352811
0.000143414
0.00017134
0.000366497
0.0281126
0.000144782
0.000147739
0.000217618
0.000144913
0.000145491
0.000315385
0.000141926
0.000142327
0.020599
0.00015488
0.00271295
0.000142771
0.000138084
0.000171569
0.000308751
0.00024145
0.00776332
0.000157127
0.000341742
0.000174535
0.000140603
0.000227328
0.000141342
0.000154139
0.000146919
0.000138178
0.10928
9.23207e-05
0.101516
0.000248695
0.000507353
0.000340898
0.0208339
0.000139577
0.000147489
0.000466
0.000143332
0.000147932
0.000154585
0.000144285
0.000360183
0.000146669
8.47195e-05
0.00463174
0.000134496
0.000398552
0.000145226
0.000141826
0.000163549
0.000163041
0.000165433
0.000167889
0.000168506
0.00635479
0.000146598
0.000142833
0.000198692
0.00017506
0.00479229
0.000140143
0.000148372
0.000192135
0.000398629
0.00014103
0.00016928
0.000169617
0.000148954
0.000143731
0.000142683
0.000290429
0.0196603
0.00016971
0.000151191
0.000143629
0.000168969
0.000100609
0.000145829
0.000111747
0.000804503
0.000146141
0.000169121
0.0177362
0.0133912
0.000174946
0.000135078
0.000138875
0.000212918
0.000209146
0.00329151
0.000160118
0.00511787
0.000184539
0.013313
0.00279617
0.109828
0.00347592
0.0151663
0.00052518
0.014934
0.000147656
0.000497502
0.000145633
0.000119799
0.00015208
0.000150412
0.000170121
0.000281703
0.0046651
0.000151565
0.000145182
0.000183828
0.000253135
0.00889451
0.000139044
0.00014072
0.000143306
0.000158367
0.00014472
0.000173465
0.0142729
0.00897068
0.000157387
0.000143142
0.000227348
0.000147923
0.000144318
0.00594584
0.000143991
0.000155322
0.000141322
0.00691565
0.000199217
0.000690804
0.000146559
0.000137851
0.012031
0.000167798
0.000507286
0.0641031
0.0143511
0.0157553
0.000140903
0.0001459
0.000218136
0.000145034
0.000145672
0.000142511
0.000148744
0.000166634
0.000165769
0.000140735
0.00687314
0.000201325
0.000128802
0.000149643
0.0160955
0.000296073
0.000169919
0.0494244
0.00146413
0.000176571
0.0156565
0.0577357
0.000149009
0.000146703
0.000179799
0.000166462
0.000973783
0.000140663
0.000147962
0.000383991
0.000143264
0.000138981
0.000147238
0.000163823
0.0100692
0.000146751
0.000169427
0.000147701
0.0628329
0.000142652
0.0425935
0.000941131
0.00464483
0.00127976
0.000134744
0.000170134
0.000147843
0.000143343
0.0152338
0.000158848
0.0151502
0.00070309
0.000137824
0.00015209
0.000156387
0.000145178
0.00228465
0.000140565
0.000165877
0.00548305
0.00067733
0.00356295
0.000142673
0.000147753
0.000980735
0.000185461
0.000195373
0.000327963
0.0104895
0.000524789
0.000157677
0.000140395
0.000140449
0.000147008
0.00837308
0.000151609
0.00193486
0.000144276
0.000146926
0.0064309
0.000173136
0.00353901
0.000166185
0.000146084
0.000169964
0.000283756
0.000138718
0.000147352
0.00392126
0.000145036
0.00014571
0.000178102
0.0918053
0.00015697
0.000176148
0.000137172
0.000323205
0.00487217
0.000212962
0.000144582
0.000138725
0.00017437
0.000145372
0.00791842
0.0116686
0.00418483
0.00065235
0.000142996
0.000205976
0.000140905
0.000224694
0.000144923
0.00315032
0.00353453
0.00014444
0.0304268
0.00014327
0.0723368
0.000173931
0.000136876
0.000285
0.000139464
0.000140278
0.000138428
0.00013314
0.000241314
0.000817367
0.000144727
0.000137845
0.000162643
0.000134759
0.000147559
0.00015034
0.000141958
0.000144565
0.0129741
0.000187609
0.000135878
0.000151498
0.000151456
0.000143942
0.00048862
0.0136403
0.000144387
0.000140876
0.000147797
0.00340324
0.000145463
0.000149758
0.000151396
0.000200179
0.00013702
0.000152287
0.0042399
0.000144896
0.00893744
0.000142745
0.000144904
0.00014091
0.0001418
0.00013833
0.000143493
0.000356903
0.00858339
0.000137988
0.000147735
0.000155035
0.000251089
0.000168443
0.000189195
0.000142956
0.000149635
0.000211354
0.000151686
0.00886937
0.000544101
0.000141261
0.000154463
0.00643051
0.000149253
0.00386706
0.000245087
0.000141164
0.0124995
0.00160545
0.00341059
0.00943365
0.00433559
0.000167809
0.000140758
0.114958
0.000144756
0.000154265
0.00017316
0.000140711
0.000143466
0.0373598
0.000138989
0.00127582
0.0106874
0.000149262
0.000144414
0.016689
0.000142574
0.00570285
0.000136615
0.00994958
0.00022752
0.000283363
0.000142727
0.000140072
0.000149987
0.00767135
0.0206762
0.00056579
0.00245067
0.000167084
0.000143455
0.00938348
0.065272
0.00014364
0.000166859
0.000170025
0.000140992
0.0752157
0.000161193
0.000137558
0.00279752
0.000139934
0.000139295
0.000136495
0.000142966
0.000143254
0.000859328
0.000142009
0.0107428
0.000139947
0.000149274
0.000148107
0.000146616
0.000141901
0.000143115
0.000213379
0.000138221
0.000120359
0.00834399
0.00237385
0.000167941
0.0044709
0.000178587
0.000143269
0.000134571
0.000142776
0.00013494
0.0613166
0.00797332
0.000153609
0.000152528
0.00319862
0.000150893
0.00169257
0.000144361
0.000140982
0.000145044
0.00125597
0.000318711
0.000354751
0.00388733
0.000169477
0.00163138
0.00244052
0.000144064
0.000141337
0.000138964
0.000165846
0.000167748
0.0530834
0.0176931
0.000169832
0.000140191
0.000188972
0.000142045
0.00086102
0.000141549
0.00291657
0.000149937
0.000331832
0.000168659
0.000148913
0.000169467
0.000584657
0.000167327
0.0130294
0.00014107
0.000138749
0.000144178
0.000143119
0.00124788
0.000138071
0.00014712
0.000164423
0.000136646
0.000447028
0.00550814
0.000140994
0.000144233
0.000145512
0.000268189
0.00295382
0.000141168
0.000142893
0.000293241
0.000143021
0.000143664
0.00431747
0.000168033
0.0013136
0.00374867
0.00266
0.000172063
0.000141361
0.000144249
0.000164382
0.000141082
0.000140942
0.0207483
0.000315955
0.000211918
0.000142376
0.000140265
0.000150918
0.0226441
0.000142132
0.000150775
0.000145076
0.000136725
0.000140948
0.000445434
0.000149206
0.000140588
0.000168584
0.000148595
0.00013871
0.000170621
0.00176708
0.000208433
0.000139631
0.000142908
0.000143954
0.000141726
0.0060567
0.000143708
0.000432431
0.000220929
0.000141163
0.000138319
0.00649528
0.000138581
0.000139596
0.000140468
0.00916861
0.000169805
0.000233031
0.00014078
0.000135185
0.000144316
0.000879124
0.000141874
0.000147633
0.000177839
0.00111971
0.000191335
0.000134402
0.00820198
0.000132819
0.000354527
0.000140424
0.000142658
0.000138447
0.000146338
0.000143126
0.00925067
0.000177922
0.00831061
0.000189958
0.000170503
0.052527
0.000143892
0.000518048
0.00923997
0.000146604
0.000544792
0.000169957
0.00589451
0.00014238
0.0209985
0.000146082
0.000138706
0.000270094
0.000273332
0.00113359
0.000156837
0.00390478
0.0412863
0.00031139
0.000143177
0.00015537
0.000179939
0.00558966
0.000251477
0.000162919
0.000146282
0.000173376
0.006783
0.000140057
0.000825921
0.000151356
0.0179917
0.000138092
0.000137275
0.000164159
0.000162546
0.0734245
0.00126146
0.000245454
0.000140363
0.000142965
0.000239814
0.0106692
0.000416496
0.000139573
0.000152771
0.000138777
0.000140702
0.000140936
9.04572e-05
0.000274007
0.000292856
0.00025072
0.00585172
0.0133554
0.000140336
0.000146505
0.000170063
0.000138632
0.000167108
0.000141475
0.000144575
0.000143777
0.000140139
0.000160643
0.00791828
0.000184732
0.000139576
0.000140874
0.00848982
0.000176266
0.000154724
0.000170203
0.00741492