/*--------------------------------*- C++ -*----------------------------------*\
| =========                 |                                                 |
| \\      /  F ield         | OpenFOAM: The Open Source CFD Toolbox           |
|  \\    /   O peration     | Version:  v2012                                 |
|   \\  /    A nd           | Website:  www.openfoam.com                      |
|    \\/     M anipulation  |                                                 |
\*---------------------------------------------------------------------------*/
FoamFile
{
    version     2.0;
    format      ascii;
    class       volScalarField;
    location    "100";
    object      omega_0;
}
// * * * * * * * * * * * * * * * * * * * * * * * * * * * * * * * * * * * * * //

dimensions      [0 0 -1 0 0 0 0];


internalField   nonuniform List<scalar> 
10042
(
0.0377168
0.150233
0.0469711
0.021119
0.0210465
0.549455
0.160396
0.33295
0.0201643
0.044958
0.377683
0.16607
0.0383627
0.0208102
0.0215915
0.0208081
0.502059
0.377373
0.0241611
0.0252044
0.0381619
0.03468
0.0211036
0.45956
0.020974
0.0219215
0.042534
0.0200546
0.53465
0.423146
0.0225152
0.0465816
0.0201294
0.020118
0.334604
0.340211
0.0219778
0.0202603
0.021747
0.027414
0.440049
0.0201467
0.57897
0.766237
0.0210446
0.020971
0.0198713
0.0215645
0.0577272
2.76954
0.772173
0.0209735
0.498008
0.0238565
0.220769
2.19861
0.0361668
0.366668
0.0216165
0.0195943
0.0571648
0.194819
0.203121
0.325682
0.165857
0.0212767
0.0244392
0.052666
0.0198414
0.0465876
2.27941
0.0222611
0.0204047
0.0215832
0.0212324
2.02224
0.0926136
0.0198672
0.0885548
0.0242167
0.856293
0.449502
0.0238729
0.0208811
0.0333066
0.0846704
0.0239831
0.0368062
0.0208379
0.0831609
0.0298763
0.0216059
0.176245
0.0855296
0.0930824
0.0212312
2.61142
0.0246515
0.144946
0.0215629
0.0292632
0.058851
0.0216242
0.0391532
0.0254891
0.0214715
1.71281
0.0211807
0.147815
0.0215081
0.0215311
0.124005
0.0559142
0.324432
0.103968
0.0198356
0.0316631
0.0223444
0.340646
0.0198118
0.0195954
0.151285
0.151897
0.0210522
0.110645
0.0208904
0.0209161
0.246463
0.932494
0.0314954
0.0202499
0.0210868
0.0210257
0.0211126
0.121043
1.29246
0.0243481
1.69567
0.0227032
0.160379
0.0859291
0.020465
1.68324
0.020057
0.0267502
0.0202622
0.0322456
0.0198231
0.0219506
0.478927
0.0211316
0.021175
0.0231021
0.0447726
0.0610642
0.0270417
0.593204
2.05649
0.0210596
0.0222843
0.0221416
0.027783
0.910902
0.020862
0.0222993
0.529645
0.0203951
0.0412492
0.336
0.0200833
0.0529867
0.411823
0.167875
0.0200976
0.0238218
0.173991
0.0210115
0.0202508
0.0210498
0.0198418
0.022591
0.0255684
0.0215943
0.0197866
0.274834
0.0300923
0.0223526
0.0196257
2.73374
0.0213322
0.167582
0.0360791
0.0202658
0.0252818
0.422107
0.0215981
3.20601
0.0370932
2.10017
0.0208959
2.77631
0.106186
0.179061
0.0202879
0.141516
0.0209739
0.366775
0.0437647
0.0215022
0.0211324
0.0440774
0.0201794
0.210264
0.177574
0.0220804
0.042021
0.0202366
0.519973
0.0213121
2.24066
2.71314
0.0402124
2.54881
0.0400253
0.021114
0.110491
0.0216165
0.0238703
0.0374433
0.0216714
0.0202536
0.0209507
0.0302627
0.0230167
0.0210068
0.333624
0.0231498
2.42516
0.025877
0.468149
0.683368
0.434507
0.0195913
0.0343585
0.181543
0.0211234
0.443328
0.0254288
0.0232126
0.0214906
0.0250229
0.0202818
0.121889
0.155656
0.0218481
0.022902
0.0217022
0.0218433
2.87309
0.0210927
0.169653
0.0203125
0.0209605
0.0198888
0.0401334
0.150038
0.131883
0.0804963
0.0232875
0.0209543
0.0213546
2.52923
0.0206928
2.90829
0.0217497
0.328969
0.0222937
0.0210065
0.0233869
0.644572
0.0200557
0.423758
3.3124
0.022203
0.0234199
2.04818
0.0314228
0.0199506
0.0112594
0.0215686
0.0343095
0.0264065
0.023775
0.360337
0.209001
0.0208007
0.166373
0.0236979
0.0213645
0.0202956
0.0229742
0.237711
0.0196256
0.650963
0.0311339
0.172754
0.0207586
0.0355759
0.487035
0.349098
0.0225884
0.0210649
0.0212281
0.0207941
0.0262024
0.0120606
0.0198929
0.250611
0.460277
0.0198211
0.0227046
2.85434
0.295364
0.291884
0.299392
0.0224182
0.0249411
0.0210241
0.0233192
0.0327946
0.0209482
0.0213441
0.0344108
0.0214064
0.429208
0.01131
1.75424
0.257922
0.0202986
0.552016
0.0852018
0.0382246
0.019599
0.0249969
0.0225989
0.020241
0.0206426
0.021198
0.023097
2.19806
0.0218338
0.119493
0.0229944
0.0214838
0.209613
0.0255997
0.0216551
0.0237912
3.1646
0.0235534
0.0214385
0.0221067
0.0222763
0.452781
0.574803
0.0224044
0.0209877
0.0224666
0.0225827
0.337756
0.0196023
0.0239948
0.0207182
0.0217108
0.0740685
0.0208339
0.319615
0.758581
0.398438
0.0736907
0.0213603
0.739285
0.0368384
0.0210001
0.0562753
0.019827
0.0213732
0.0197957
0.021168
0.0199476
0.0217106
2.1893
0.0218202
0.0269274
0.574182
0.146836
0.0211796
0.330377
0.0220112
0.0471141
0.0209868
2.17313
0.0509042
0.198902
3.06082
0.0215343
0.0774964
0.0233349
0.727032
0.0216325
0.350898
0.0284073
0.423452
0.0217682
0.321241
0.0219325
0.0290364
0.283352
0.0199435
0.0217636
0.0211004
0.578068
0.0202485
0.0197706
0.0920398
0.0226415
0.0358629
0.337118
0.0210763
0.0383977
0.0226515
0.0198698
0.0284438
0.335715
0.0227964
0.0221649
1.43956
0.34897
0.0225911
2.32715
0.0200733
0.0252867
0.0324747
2.83881
2.17409
0.272643
0.322908
0.444196
0.329372
0.0197583
0.304277
0.720924
0.751717
0.0536616
0.021103
0.0206598
0.0819878
2.41808
0.0197927
0.0215255
0.022754
0.0211493
0.0230757
0.0234488
0.0211175
0.0238196
0.0231495
0.0221945
0.0253032
0.0643366
0.323621
0.0202865
2.04431
1.43654
0.229967
0.0212046
0.026863
0.0223961
0.142511
0.0213566
0.0325057
0.021756
0.21403
0.0206251
0.0250596
0.0213919
0.257106
0.246327
0.0222426
0.020785
0.0210908
0.521468
0.0203025
0.0279345
0.0718037
0.0764664
0.021111
0.0296821
0.289727
0.327768
0.0214433
0.0226283
0.434475
0.458054
0.0430903
0.191469
0.0214797
0.180943
0.0310965
0.0291837
0.0243566
0.351479
0.0210259
0.0210869
0.0215799
0.236788
0.0210655
0.74516
0.0211505
0.0214173
0.0203138
0.0286578
0.0817694
0.0216376
0.0221375
0.0751429
0.0411102
0.0335677
0.0216129
0.0211581
0.218965
0.312425
0.0213863
0.0200689
0.0518362
0.0212471
0.0212912
0.0631773
0.0202375
0.155428
0.0209719
0.0398589
0.0704381
2.30958
0.0210768
0.0277217
0.021426
0.0203651
0.0797133
0.0196009
0.755161
0.0433817
0.0201559
0.0241181
1.87247
0.66633
0.0504165
0.0213703
0.0200638
0.0198065
0.0230703
0.20162
0.0215344
0.898001
0.0212326
0.0199812
0.697667
0.0255358
0.256918
0.0231378
0.0207721
0.495246
0.40318
0.0509468
0.303687
0.021354
0.02872
0.0202695
0.0201673
0.0211217
0.0210689
0.0214336
0.0213663
2.06649
0.0216984
0.0573068
0.0209765
0.0327186
0.0199073
0.0358425
0.569412
0.0201591
0.0209972
0.305964
0.0359495
0.0199296
0.211144
0.0210096
0.0327081
0.020273
0.0220744
0.020353
3.16853
0.0199127
0.0207907
0.0208811
0.285697
0.0222091
0.0211073
0.0214013
0.285935
0.0211744
0.0210568
0.0204007
0.0210655
0.0247271
0.0210231
0.0289724
0.0203263
3.07159
0.912796
0.203553
0.0215975
0.0246346
0.0212664
0.0579213
0.0220001
0.464552
0.0713374
0.178068
0.0237706
0.447562
0.0213549
0.0213596
0.263745
0.239783
0.0249322
0.0908498
0.0215935
0.283984
0.0208019
0.0214495
0.020334
0.0202925
0.0221033
0.230484
0.0221858
0.021791
2.05548
0.0211841
0.0598054
0.0244764
0.0221217
0.0259279
0.0213209
0.4316
0.0210242
0.0210368
0.0530741
0.0214365
0.0197728
0.0226644
0.0208403
0.0207759
0.48225
0.0674178
0.901487
0.0215421
0.0208239
0.0208468
0.3747
0.0224434
0.021213
0.0204497
0.020629
0.443936
2.70498
0.126266
0.0217054
0.023416
3.43644
0.0284467
0.0236542
0.0348618
0.214368
0.163024
0.450354
0.0207884
0.0213487
0.0210592
0.321613
0.0207751
0.0254953
0.0210799
0.0196141
0.0248224
0.0213628
2.99177
3.02176
0.0199324
0.0210311
0.0197523
0.282421
0.0202821
0.41354
0.0221792
2.76214
0.0208287
0.0207319
0.0201656
0.021074
0.0213246
0.0201178
0.0213674
0.0217981
0.0267336
0.0246208
0.254542
0.0213655
0.0489816
0.215106
0.0223725
1.63381
0.020943
0.0208473
0.0675367
0.0216559
0.293629
0.0210836
0.0215324
0.0203757
0.757676
0.020676
0.320954
0.0401711
0.0208404
0.0631781
0.322352
0.0235734
0.0204186
0.0909198
0.0239878
0.742266
0.0259648
0.050172
0.0259325
0.0215213
0.0214684
0.0212502
0.0279982
0.150471
0.151214
0.115676
0.0196333
0.0229123
0.0218808
0.032927
0.023992
0.428196
0.0216584
0.0214111
0.0832587
0.0208339
0.0825477
0.0302802
0.0235563
0.324717
0.0262783
0.0208017
0.0213925
0.0346962
0.0207911
0.161044
0.0217465
0.0340506
0.0258186
0.438823
0.0212791
0.0281172
0.15629
0.0218593
0.0383115
0.0200718
0.0324313
0.0207984
0.0217347
0.0207925
0.0212964
0.0228749
0.044088
0.0222248
0.0215602
0.234716
0.0200786
0.0208449
0.0209896
0.0197714
0.169293
0.0256711
0.0221121
0.0270048
0.191787
0.0213087
0.272103
0.734578
0.020615
0.0208837
0.0197525
0.0855071
0.233504
0.0250691
0.02085
0.0446039
0.199238
1.95468
0.0216804
0.0547776
0.196663
0.220562
0.0266118
0.0202385
0.0233768
0.421936
0.0486408
0.0217129
1.98846
0.106747
0.328146
0.280764
0.0208939
0.0599869
0.727901
0.176207
0.151615
0.027967
2.034
0.0219772
0.449349
0.0214199
0.0259607
0.0223712
0.0273071
0.0196402
0.0214846
0.0210183
0.530619
0.0209927
0.0196584
0.743052
0.0213655
0.0284116
0.0218719
0.118776
0.0210175
0.0222601
0.0213339
0.0210019
0.0211829
0.0264692
0.0207848
1.70522
0.102598
0.0881906
0.0210225
0.924219
0.0207401
0.0826571
0.298045
0.215644
0.0211996
0.0198342
0.0209742
0.0220635
0.587274
0.0356533
0.0208553
0.561271
0.0209597
0.0214671
0.468101
0.0197844
0.021564
0.562279
0.0208658
0.438768
0.0227096
0.0445136
0.0286447
0.0336698
0.0246689
0.0212419
3.22127
3.52755
0.0209851
0.0306284
2.99564
2.12556
0.107002
0.0225034
0.0205175
0.185502
0.0214603
0.0254779
0.0992685
0.0246161
0.0198043
0.0374634
0.310308
0.220012
0.0198251
0.0197526
0.0220081
0.0216317
0.53208
0.459846
0.0206705
0.02602
0.473917
0.0212729
0.0225609
2.0319
0.022867
0.0606735
0.0243538
0.0213401
0.0215493
0.0246188
0.0518714
0.111344
0.0211877
0.338947
0.425901
0.881511
0.0245905
0.0226566
2.03137
0.041856
0.293617
0.0336742
0.0213428
0.021007
0.707532
0.696828
0.0217638
0.0255836
0.0471508
0.0208329
0.0361473
0.0217621
0.0208531
0.0223859
0.0393641
0.020785
0.0210181
2.20663
0.0206667
0.0204986
0.0358776
0.0267689
0.332888
0.0223807
0.0215025
0.7491
0.0436068
0.0225681
0.035854
0.169168
0.0209402
0.0201757
0.026674
0.0540304
0.0208166
0.0213041
0.0209888
0.0227176
0.0207786
0.304434
0.021301
0.0466007
0.0214256
0.0316489
0.0209491
0.0216993
0.0282246
0.374212
0.128893
0.0212151
0.022313
0.472387
0.0119343
0.211514
0.0221185
0.242966
0.0209549
0.119285
0.0419045
0.0230375
0.023073
0.0209899
0.0513347
1.72186
0.0378777
0.0219041
0.0220448
0.0273714
0.0146628
0.0206286
0.0204269
0.048637
0.019652
0.0205881
0.0545861
0.0212299
0.339283
0.0202721
0.0204493
0.0203733
0.0300491
0.0214568
0.0245885
0.727809
0.0206018
0.0213777
0.496834
0.0209053
0.0412957
0.0226312
0.392102
0.33648
0.022535
0.100785
0.0254103
0.0214052
3.00512
0.0220328
0.020825
0.0198632
0.0209522
0.0239861
0.525326
0.0339511
0.0742179
0.284946
0.217466
0.0453181
0.340649
0.0242235
0.0455594
0.020082
0.0294069
0.0215364
0.0215525
0.0218428
1.35847
0.0913739
0.0212058
0.390402
0.0204678
0.100709
0.0212591
0.0239356
0.021769
0.0169622
0.312435
0.0211357
0.0199603
2.49698
0.143003
0.189436
0.0852425
0.479936
0.0213133
0.345017
0.570187
0.0207593
0.0205628
0.0208502
0.0253202
0.0209673
0.0222239
0.0220585
0.0225636
0.0213637
0.0214478
0.0221529
0.0415542
0.291512
0.0199061
0.0668281
0.0230534
0.0476228
0.0378123
0.0405698
0.0207491
0.0560662
0.0391477
0.0201784
0.0456372
0.479822
0.0216415
0.0205758
0.0223398
0.274349
0.31418
0.0205421
0.434747
0.0214236
0.0215484
2.21926
0.0206952
0.0216197
0.0204814
0.021925
0.0255308
0.262737
0.0240636
0.0210434
0.0213208
0.0215896
0.0210645
0.072716
0.0199298
0.0285108
0.140071
0.470847
0.0205675
0.356742
0.0204264
0.0648633
0.0219914
0.116616
0.0200458
0.275222
2.44118
1.80473
0.0213826
0.313956
0.321415
0.230905
0.0214793
0.289768
0.0208168
0.188918
0.283051
0.0240313
3.19561
0.233685
0.461101
2.05832
0.123478
0.259884
0.0205448
0.022518
0.269984
0.0832757
0.0213065
0.127738
0.022107
0.0207618
0.0212488
0.290928
0.0845713
0.0298364
0.59626
0.029778
0.105128
0.0223331
0.0209817
0.0223644
0.452183
0.327405
0.0293395
0.193666
0.0216812
0.0219
0.0342037
0.141934
0.0411233
0.0207424
0.0640513
0.656549
0.0217565
0.0906307
0.0201743
0.0374007
0.0557055
0.0206552
0.477169
0.0872937
0.021255
0.0222866
0.02091
0.188097
0.0224694
1.85148
0.0333313
0.020928
0.0209366
0.0200161
0.0354612
0.02045
0.137614
0.0220968
0.253037
0.0843909
0.0219741
0.0291577
0.263656
0.0217765
0.0311556
0.0220771
0.0213978
1.92596
0.159263
0.0217349
3.18886
0.0235712
0.326013
0.020679
0.0218976
0.0247817
0.0225876
0.0334351
0.0524096
0.0213882
0.0229434
0.287722
0.0300934
0.0239004
0.118978
0.14601
0.307486
0.0209195
0.0198842
0.376386
0.0205216
0.644262
0.184153
0.0512939
0.197426
0.0217826
0.0219155
1.35613
0.134696
0.020808
2.27417
0.0239551
0.0210576
0.090716
0.0223006
0.0213541
0.0504303
0.0242658
0.0214391
0.0235644
0.0209837
0.0224937
0.238697
0.0336099
0.269707
0.0212764
0.0284564
0.0208542
0.021265
0.227273
0.0214951
0.337364
0.367743
0.0221625
0.100228
0.0368689
0.0354543
0.0197686
0.346558
0.180063
0.0497801
0.0235999
0.0221783
0.0206412
0.281094
0.0238048
0.0621218
0.0391973
0.020321
0.459186
0.0197274
2.06005
0.0209806
0.40922
0.0209277
0.0205118
0.0201918
0.334875
0.0207972
0.0206875
0.0200611
0.0208308
0.0213542
0.0303947
0.467218
0.0211198
0.0266715
0.0216154
0.0209647
0.0207043
0.357747
2.03098
0.0260371
0.0212716
0.0207127
0.020328
0.0247712
0.0255756
0.0201517
0.15174
0.422216
0.0372083
0.0208892
0.020823
0.0213201
0.0232615
0.0205571
0.0220583
0.0213329
0.0207284
0.0281189
0.0218825
0.0289049
0.794968
3.30036
0.0268299
0.0209558
0.0208193
2.18814
0.021141
0.0300818
0.0240583
0.0204191
0.0212258
0.0210309
0.145972
0.02122
0.111659
0.309803
0.0609605
0.0212605
0.0261107
0.250504
0.0241324
0.0380707
0.0226327
0.0416216
0.0203798
0.0266163
0.160676
0.231932
0.0205818
0.0214815
0.129051
0.0250773
0.0558484
0.0240481
0.220233
0.0212415
0.0261494
0.0351242
0.128805
0.0700481
0.0211386
0.0207897
0.0203577
0.021574
0.0412557
0.167557
0.473632
0.0205503
2.38631
0.0226113
0.552101
0.280508
0.0209965
0.838302
0.0470823
0.0206391
0.0420236
0.033814
0.02142
0.0597187
0.0208103
2.13446
0.0247778
2.13709
1.31816
0.0511161
0.0212467
0.0264434
0.0220217
0.020839
0.0202484
0.0205119
0.257074
0.0219512
0.0374818
0.272965
3.45769
0.0369071
0.0281474
0.0210034
1.9067
0.0197421
0.087947
3.09939
3.27871
2.78089
0.321105
0.994066
0.0200543
0.0213731
0.0201817
0.0611793
0.0221205
0.76787
0.0250875
2.36193
0.027655
0.0208237
0.0207973
0.0215148
0.0200782
0.24726
0.779091
2.29431
0.0206134
0.0239983
0.0241136
0.0220785
0.102784
0.0214261
0.135377
0.194947
0.0219324
0.0283725
0.141673
0.0276459
0.172079
0.396956
0.0215593
0.202977
0.0222892
2.09108
0.0209473
0.233691
0.0210661
0.0191932
0.0330621
0.624611
0.163005
2.18728
0.29631
0.225284
0.0230082
0.022847
0.35179
0.24211
0.112797
0.0281296
2.73392
0.0358635
0.321034
0.0446012
0.196761
0.0235772
0.036264
0.765219
0.0214519
0.0231707
0.0239636
0.0197875
0.020428
0.0209152
0.0211618
2.5317
0.0220177
0.265467
0.0994732
0.262435
0.33836
0.162572
0.0206346
0.0218132
0.163107
0.232833
0.0272579
0.34039
1.92581
0.178664
0.0207645
0.0344197
0.0242312
0.0913298
0.0462271
0.314131
0.216926
0.0666796
0.021358
0.0221486
0.111204
0.184371
0.0584377
0.0392161
0.0209498
0.0240922
0.0230394
0.133934
0.023521
0.0203049
0.0208892
0.0228694
0.110111
0.237578
0.0217221
0.0761385
0.337555
0.0220434
0.313666
0.024083
0.0323379
0.0240474
0.033637
0.487429
0.0210778
0.0206459
0.0220802
0.107497
0.103181
0.0358428
0.0221799
0.0229611
0.0216678
0.0453739
0.0349791
0.0235036
0.0216208
0.380099
0.0226397
0.180589
0.0226819
0.030956
0.0209726
0.968792
0.0284812
0.0607706
2.01991
0.0214641
0.0238647
0.10372
0.0226813
0.280219
0.954534
0.0215753
0.0228536
2.38069
0.0213099
0.112584
0.0215788
0.725879
0.347204
0.0318602
0.0231691
0.0209639
0.0211368
0.0212552
0.0248855
0.0198028
0.0214656
0.0209495
0.0206259
0.0236988
0.0221031
0.0213716
0.0220154
2.37352
0.0215052
1.74406
0.0219599
0.0215018
0.716749
0.0210664
1.72163
0.333957
0.0213232
0.0220821
0.0443353
0.143138
0.0239896
2.34203
0.0301794
0.0214938
0.128754
0.0205602
2.34632
0.021533
0.377717
0.0198575
2.53633
1.96136
0.339402
0.0217842
0.0236254
0.020762
0.0234703
0.0478685
0.0207643
0.0213218
0.0509238
0.0240404
0.751826
0.0332865
0.0220265
0.0386606
0.0214365
0.0281811
0.0224036
0.0213344
0.0220803
2.5869
2.05742
0.0292952
0.0233449
0.0220547
0.0227024
0.207697
1.77505
0.0521964
0.502758
0.0839033
0.0228789
0.0238317
0.10484
0.0207491
0.0237539
0.023058
0.0227081
0.34153
0.0228428
0.134244
0.0235609
0.0219582
0.110694
0.0230476
0.0239055
0.0224116
0.0266326
0.0210292
0.0215751
0.0480394
0.021419
2.13184
0.29522
0.0244915
0.021553
0.0206834
0.0224435
0.0211879
0.2003
0.0208977
0.0300003
0.0215089
0.0224098
0.0322137
0.0213955
2.13448
0.0218995
0.0221155
0.220926
0.0234046
0.0244592
0.36288
0.0218457
0.125413
0.0207517
0.0206899
0.0220937
0.0230093
0.0204142
0.304184
0.0220765
0.0209891
0.654343
0.204318
2.48185
0.17587
0.392128
0.0259535
0.0205249
0.0231061
0.260776
0.0291685
0.775297
0.0223216
0.035103
0.135325
0.122202
0.0206638
2.36614
0.336867
0.020943
0.0256973
0.0217419
0.02224
0.454434
0.0302911
0.0215008
0.0207157
0.0200577
0.344556
0.0216814
0.359447
0.0396722
0.0216346
0.0209315
0.0209922
1.6601
0.095827
0.020869
1.05722
0.770222
0.02199
0.0767237
0.0215896
0.0205312
0.0206637
0.0214835
0.0205593
0.0212495
0.0216586
0.0226374
0.0215548
0.097554
0.0230463
0.460685
0.0326362
0.0212287
0.13864
0.0200253
0.0241445
0.0514935
0.0209221
0.53689
0.0210285
0.0889773
2.95501
0.020611
0.282533
0.283027
0.021431
0.0217728
0.0211616
0.300321
0.0215481
0.0847017
0.233472
0.0219874
0.0283447
0.0417415
0.0523455
0.0212273
0.0384594
0.0216577
0.0640743
0.169986
0.0392365
0.299765
0.0226345
0.122456
0.276901
0.197087
0.0214864
0.0664026
0.0228651
0.057656
0.0204041
0.0226201
0.798319
0.0275952
0.338432
0.0533196
0.0239776
0.332949
0.0205323
0.0352586
0.0215275
0.0268308
1.10622
0.351903
2.54999
0.0397012
0.0261364
0.506521
0.0240539
0.0209648
0.0203236
0.0218974
0.0218929
0.0256446
0.0210237
0.138849
0.0271804
0.020848
0.020434
0.0213045
0.0212559
0.0946654
0.0206211
2.8508
0.0219136
0.1278
0.0213986
0.0214148
0.0199105
0.0911639
0.0212267
3.07038
0.819177
0.305463
0.0251842
0.0220962
0.0213975
0.0209165
0.0207311
0.326166
0.021795
0.0218775
0.715337
0.0213829
0.0223605
2.8069
0.164704
0.234466
0.0380232
0.555803
0.78959
0.0209974
0.0205964
0.0282694
0.10907
0.656432
0.355648
0.164253
0.0212094
0.0206888
0.300705
0.0272186
0.0217746
0.0278973
0.0216844
0.0232887
0.249469
0.839074
0.0234929
0.0274455
0.0231189
0.0285607
0.887908
0.0215081
0.0209019
0.0214086
0.313078
0.0208685
0.0251127
0.862064
2.79546
0.0204309
0.0207485
0.0199955
0.0215077
0.0212347
0.031469
0.718257
0.0222898
0.356727
0.0130617
0.637881
0.0240606
0.0219673
0.0213906
0.0211748
0.0207028
0.0202797
0.0214472
0.873717
0.879782
0.0215428
0.0205393
0.0216517
0.0214381
0.118816
0.0321479
0.862488
0.037045
0.0286449
0.074446
0.0212863
0.0210654
0.0212146
0.0214464
0.703458
0.0211916
0.0246552
0.118655
0.0364813
0.151942
0.101022
0.930174
0.296059
0.0213343
0.0299019
0.13259
1.0846
0.0213457
0.0213756
0.0283186
0.0213479
0.0213954
0.109816
0.0210099
0.0209772
0.788239
0.0242889
0.686051
0.0212433
0.0206128
0.0300887
0.131733
0.0448597
0.386822
0.0229035
0.116568
0.0408613
0.0209557
0.0463501
0.0210579
0.0239338
0.0215378
0.0205234
2.54352
0.15745
2.40306
0.114919
0.050418
0.033468
0.787763
0.0207556
0.0215537
0.199954
0.0213204
0.0216328
0.0235315
0.0213049
0.107519
0.0215475
0.0343519
0.320034
0.0200687
0.143031
0.021206
0.0211329
0.0238424
0.0237374
0.0239337
0.02416
0.0241117
0.44675
0.0214743
0.0212549
0.0248407
0.045273
0.322033
0.0208985
0.0216718
0.0271497
0.214691
0.02101
0.0240748
0.0240487
0.0208839
0.0212678
0.0209898
0.0675727
2.05696
0.0240097
0.0225498
0.0213785
0.0284343
0.0502986
0.0214055
0.0472205
0.336963
0.0215227
0.0285492
0.928651
0.842776
0.0364512
0.0201612
0.020642
0.0536269
0.0420251
0.648177
0.0265293
0.616482
0.0300627
0.826582
0.340107
2.57697
0.276749
0.892995
0.175059
0.849461
0.0217529
0.126804
0.0212185
0.138367
0.0228652
0.0222005
0.0239913
0.087844
0.291772
0.0221005
0.0213482
0.0608232
0.0685986
0.73069
0.0207395
0.0207749
0.0212391
0.0250065
0.0211698
0.0429702
0.863727
0.322201
0.0246592
0.0207013
0.144688
0.0216586
0.0213474
0.360172
0.0211908
0.0240854
0.0203803
0.489689
0.0689069
0.189483
0.0213604
0.0582421
0.799378
0.0353176
0.0826305
1.85575
0.851359
0.901739
0.0210043
0.0214527
0.0926767
0.0214005
0.021397
0.0210389
0.0216942
0.027275
0.0233971
0.0209836
0.45708
0.0236096
0.0248259
0.0218144
0.904791
0.0909909
0.0248685
2.52221
0.337103
0.0249313
0.883982
2.01038
0.0218193
0.0215623
0.0251837
0.0270932
0.236436
0.0209693
0.0215676
0.122969
0.0213369
0.0207011
0.0215588
0.0213739
0.415729
0.0215153
0.0342576
0.0216043
1.75402
0.0212344
2.14753
0.0875178
0.394017
0.308919
0.0200745
0.0239742
0.0215903
0.0212148
0.862852
0.05596
0.74897
0.0640744
0.0201568
0.0223404
0.0241191
0.0214021
0.187185
0.0209115
0.0311525
0.681517
0.0614499
0.451147
0.0212338
0.0215814
0.274976
0.0263665
0.0273225
0.11007
0.76629
0.244211
0.0221485
0.0207474
0.0208995
0.0215192
0.328471
0.022136
0.189953
0.0214154
0.0215052
0.367321
0.0222326
0.310149
0.0240061
0.0214321
0.0239943
0.0837917
0.0206991
0.0215216
0.605937
0.0213614
0.0214174
0.0475166
2.17888
0.0248835
0.0266694
0.0204227
0.105598
0.415186
0.0643311
0.0212936
0.0206993
0.0286954
0.0213711
0.474557
0.782835
0.313609
0.194198
0.0212193
0.0313864
0.0209569
0.066269
0.0213606
0.329755
0.275733
0.0213101
1.12115
0.0213088
1.91361
0.0419197
0.0204021
0.0456397
0.0207266
0.0209097
0.0205413
0.019892
0.0395397
0.261775
0.0213018
0.0205811
0.12009
0.0201209
0.021588
0.0222786
0.021155
0.0213611
0.800452
0.0317913
0.020044
0.0227087
0.0225482
0.0212773
0.144908
0.833678
0.021315
0.020923
0.0215193
0.278835
0.0214575
0.0218623
0.0224768
0.0550028
0.0201103
0.0225763
0.288339
0.0213155
0.697294
0.0212471
0.0214174
0.0210036
0.0211352
0.020594
0.0212479
0.193836
0.31032
0.0205982
0.0215279
0.0225709
0.0439323
0.0266801
0.0470845
0.0211902
0.0220434
0.0300486
0.0221827
0.321803
0.0923382
0.0210456
0.02156
2.29898
0.0220213
0.604803
0.0873643
0.0210397
0.799924
0.389077
0.266977
0.690414
0.307778
0.0263395
0.0209766
2.78217
0.0213144
0.0227759
0.0293225
0.0203563
0.0213319
2.06307
0.0207347
0.512531
0.778808
0.0220009
0.0213066
1.91705
0.0212392
0.542535
0.0203864
0.728811
0.0605734
0.0270221
0.0212566
0.0208349
0.0221626
0.662606
0.779078
0.0502546
0.38678
0.0242196
0.0212537
0.707659
2.3961
0.0213918
0.0215345
0.0239811
0.021018
1.92272
0.0365033
0.0203959
0.349107
0.0208215
0.0207115
0.0203756
0.0211822
0.0213359
0.331749
0.0211163
0.716135
0.0206807
0.0219746
0.0216172
0.0214951
0.021148
0.021223
0.0318803
0.0205896
0.0586536
0.399374
0.355965
0.0241263
0.538895
0.028595
0.0211045
0.0201028
0.021269
0.0201506
2.14027
0.287746
0.0222336
0.0228396
0.537366
0.0221024
0.138871
0.0211452
0.0210181
0.0213356
0.205337
0.0560645
0.119823
1.75696
0.0240294
0.27624
0.344071
0.0211884
0.0210595
0.0207257
0.0306404
0.0317999
1.83844
2.672
0.033072
0.0209024
0.0317602
0.0211665
0.14912
0.0208622
0.250553
0.0221927
0.0431052
0.0365054
0.0219546
0.0240611
0.101189
0.0271745
0.85086
0.0210325
0.0206768
0.0213053
0.021197
0.274599
0.0205095
0.0215247
0.0261977
0.020081
0.133603
0.619267
0.029927
0.0212225
0.0213807
0.0486147
0.220568
0.0210378
0.0212847
0.101568
0.0213028
0.021271
0.326239
0.0240548
0.195601
0.280473
0.200102
0.0343307
0.0209479
0.0212328
0.0297253
0.021033
0.020919
0.791501
0.10657
0.0249732
0.0210243
0.0209162
0.0223824
3.16703
0.0210131
0.0224054
0.0213582
0.020389
0.0209624
0.0788613
0.0217238
0.0208958
0.0219111
0.021897
0.0206986
0.0282162
0.143804
0.0349832
0.0206566
0.0210759
0.0212012
0.0209801
0.358851
0.0213907
0.0374499
0.04019
0.0210466
0.0206099
0.367095
0.0206806
0.0207174
0.020931
0.337827
0.0239408
0.0380706
0.0209343
0.0199989
0.0213186
0.0794598
0.0210176
0.0215734
0.0393082
0.20594
0.029341
0.0200082
0.330452
0.019696
0.0707775
0.0209357
0.0204812
0.0206223
0.0215732
0.0211186
0.730174
0.153351
0.303788
0.0736249
0.025915
1.65713
0.0213051
0.212263
0.339139
0.0213657
0.0689775
0.0339081
0.568777
0.0212062
0.795847
0.0215576
0.0206331
0.0428418
0.144539
0.167058
0.0254846
0.36808
3.2406
0.0557709
0.0213223
0.0239831
0.0472074
0.289784
0.0431173
0.0238897
0.0215185
0.0417237
0.44783
0.0208257
0.240725
0.0224087
0.77106
0.020577
0.0204353
0.0283933
0.0276232
1.97067
0.39593
0.0430825
0.0209223
0.0210176
0.0401262
0.426552
0.0705628
0.0208169
0.0222231
0.0207039
0.0209813
0.0210144
0.0235961
0.0485397
0.0527624
0.0445161
0.439653
0.763919
0.0208785
0.0215294
0.0223227
0.0205454
0.0269726
0.0210509
0.021247
0.021244
0.0208989
0.0256954
0.482353
0.0278392
0.0207473
0.020958
0.710128
0.0270501
0.0239112
0.0257641
0.34295
0.0326576
0.0209458
0.0274293
0.0423836
0.0207988
0.726028
0.0209248
0.0208696
0.0207492
0.213306
0.0209146
0.0207187
0.0215676
0.0214937
0.02082
0.0207209
0.509157
0.262969
0.343483
0.0216863
0.0207837
0.128699
0.0212026
0.0205257
0.0207754
0.315787
0.0213198
0.792822
0.0201112
0.0206985
0.0359961
0.0903244
0.0207338
0.163633
0.7855
0.446976
0.0208446
0.0197399
0.0208009
0.49659
0.0216078
0.0241158
0.824249
0.0209977
0.0204086
0.0218153
0.0207496
0.0999736
0.020903
0.0213144
0.0209474
0.0260511
0.339104
0.02129
0.0206807
0.0214636
0.304728
0.0991851
0.288657
0.0233975
0.0850304
0.0208278
0.0209297
0.792689
0.265927
0.0212699
0.020956
0.385296
0.0317742
0.0208831
0.0207512
0.020754
0.0209491
0.0209359
0.400598
0.0212337
0.0239855
0.0553634
0.768999
0.021133
0.0285696
0.0253923
0.0401249
0.0237275
0.0251793
0.0212837
0.792221
0.0211945
0.0276885
0.0491913
0.0234022
0.0975863
0.028237
0.020974
0.0220276
0.325316
0.328354
0.0224037
0.0207259
0.020487
0.803883
0.0208822
0.0207346
0.0266526
0.024572
0.0209487
0.355772
0.232824
0.020614
0.0232814
0.0219489
0.0207303
0.0206657
0.0209167
0.0206069
0.960467
0.0222575
0.0224749
0.0207169
0.0202432
0.0207065
0.0208618
0.0245486
0.0263928
0.022513
0.139818
0.0209613
0.020888
0.0265706
0.0207547
0.0200327
0.021907
0.509677
0.0208093
0.0411903
0.0246819
0.167428
0.0202379
0.302727
0.498358
0.329511
0.0257276
0.0209615
0.364822
0.0209692
0.168399
0.0210521
0.0247325
0.0219016
0.0209944
0.296504
0.0338109
0.265241
0.302891
0.0232675
0.020719
0.0208163
0.209967
0.0427762
0.0208759
0.0214305
0.0200378
0.021489
0.0204425
0.415127
0.0206659
0.0202557
0.0215396
0.0212764
0.0542823
0.0289335
0.0224293
0.0207158
0.0205136
0.467811
0.0234895
0.0198022
0.89276
0.0282747
0.0250246
0.0253183
0.0267991
0.0204177
0.0234318
0.367702
0.40806
0.0396764
0.0209471
0.020582
0.323077
0.339575
0.023983
0.0207528
0.023912
0.0206339
0.0218525
0.0275025
0.023011
0.0199602
0.0207051
0.0204192
0.0207183
0.0206436
0.0217986
0.0206316
0.081635
0.480072
0.0205948
0.0207637
0.0201831
0.0209826
0.021397
0.0208928
0.373954
0.443736
0.0208398
0.0219072
0.20982
0.0211278
0.472594
0.076321
0.0498976
0.020602
0.430996
0.0275861
0.433999
0.0236102
0.0206846
0.253341
0.386571
0.368525
0.0221216
0.0203638
0.337188
0.39655
0.0205982
0.0206822
0.0207053
0.0231358
0.0275875
0.0214914
0.0207019
0.0205573
0.302952
0.44787
0.0634859
0.0468339
2.83208
0.0371805
0.0205106
0.329046
0.0209971
0.0207362
0.0208
0.446294
0.0208115
0.0415025
0.0207166
0.0206679
0.0207228
0.020487
0.0209984
0.0252625
0.0202372
0.0206013
0.0795133
0.0205707
0.0214238
0.0205466
0.020271
0.357218
0.326237
0.0207826
0.11772
0.0208834
0.0205946
0.0304033
0.0223855
0.431455
0.0199496
0.0205319
0.0214194
0.020674
0.385466
0.0204998
0.0207657
0.0274299
0.0196949
0.0210238
0.0209315
0.0207415
0.260856
0.0210307
0.450004
0.312436
0.224879
0.380702
0.0214452
0.0205399
0.025309
0.0207346
0.343203
0.0201728
0.448492
0.446159
0.0201022
0.0205134
0.021173
0.443429
0.0208213
0.0208905
0.111923
0.328412
0.0878231
0.0255488
0.0371723
0.0197088
0.328714
0.305894
0.228499
0.327841
0.176791
0.342029
0.0206242
0.0207322
0.0246207
0.0108792
0.0211841
0.0206931
0.0212324
0.0352524
0.0206673
0.0201153
0.0887111
0.020577
0.300908
0.0207365
0.424002
0.307901
0.0237827
0.0212264
0.0207896
0.0208431
0.0448504
0.259904
0.0523953
0.028335
0.453028
0.0806005
0.0210723
0.022791
0.401
0.0214878
0.0205653
0.451912
0.0375249
0.481967
0.334784
0.1929
0.0273647
0.0212349
0.0209642
0.0329522
0.00992811
0.0971899
0.340066
0.0198184
0.0212711
0.0214951
0.0315626
0.441478
0.020613
0.0230449
0.203225
0.0216115
0.0222798
1.65918
0.428937
0.267894
0.0218192
0.0207697
0.0624576
0.0212135
0.0197656
0.453729
0.0213216
0.0202543
0.0769981
0.0201681
0.020529
0.384248
0.27804
0.039809
0.0202406
0.240798
0.0204673
0.23853
0.124385
0.0296118
0.0209319
0.123665
0.0240559
0.349763
0.0226753
0.0205972
0.0414287
0.198417
0.33807
0.0206741
0.0207155
0.0203707
0.0206217
0.031129
0.020765
0.0333342
0.0221578
0.061603
0.0204775
0.0541144
0.0210833
0.020392
0.0206472
0.0528814
0.0607308
0.0197213
0.0212676
0.0204192
0.0340881
0.0721174
0.0205299
0.0311776
0.0235986
0.0421966
0.0276611
0.283089
0.324235
0.180879
0.0304984
0.0307284
2.08294
0.570862
0.378015
0.0298614
0.055305
0.0205554
0.0382729
0.357862
0.0205181
0.472797
0.509734
0.77476
0.22819
0.0204953
0.397642
0.47085
0.441431
0.0212993
0.0206152
1.25374
0.635977
0.0892665
0.020751
0.324964
0.021255
0.270659
0.38311
0.237643
0.0207334
0.0225058
0.320487
0.110802
0.0203977
0.124371
0.133461
0.37787
0.0210288
0.160899
0.0204729
0.232679
0.181119
0.417659
0.444334
0.205801
0.0239682
0.371928
0.0227456
0.0281416
0.0213285
0.0620588
0.0212676
0.0206082
0.0281206
2.31288
0.0213348
0.10896
0.407503
0.364859
0.0560166
0.373703
0.020171
0.0444211
0.0246639
0.153897
0.0206458
0.0212827
0.0214664
0.0509761
0.0203966
0.0336276
0.0241359
0.0342316
0.0221852
0.022407
0.0208277
0.0970227
0.26251
0.0205222
0.426882
0.745653
0.798714
0.117497
0.0206575
0.0231929
0.0205693
0.0234452
0.0212056
0.0205841
0.199005
0.0227743
0.0213337
0.0215386
0.0205742
0.0227261
0.580178
0.021273
0.0439616