/*--------------------------------*- C++ -*----------------------------------*\
| =========                 |                                                 |
| \\      /  F ield         | OpenFOAM: The Open Source CFD Toolbox           |
|  \\    /   O peration     | Version:  v2012                                 |
|   \\  /    A nd           | Website:  www.openfoam.com                      |
|    \\/     M anipulation  |                                                 |
\*---------------------------------------------------------------------------*/
FoamFile
{
    version     2.0;
    format      ascii;
    class       volVectorField;
    location    "100";
    object      U_0;
}
// * * * * * * * * * * * * * * * * * * * * * * * * * * * * * * * * * * * * * //

dimensions      [0 1 -1 0 0 0 0];


internalField   nonuniform List<vector> 
10042
(
(0.996934 0.0740656 -2.4449e-22)
(0.969739 -0.252169 7.04956e-21)
(0.976164 -0.0477551 -4.84546e-21)
(1.01654 0.00226813 0)
(1.01339 0.000264269 2.2092e-21)
(0.761582 0.100706 4.37466e-21)
(1.10536 0.225519 -1.34838e-20)
(0.762755 -0.115501 -2.67451e-21)
(1.02348 0.000758698 0)
(0.996908 0.097573 2.6519e-22)
(0.948499 -0.181237 1.0265e-21)
(0.962856 -0.257977 0)
(1.10033 0.0367965 0)
(1.01614 -0.00033178 2.99371e-21)
(1.03321 0.00212241 0)
(1.0159 -0.000277062 0)
(0.709874 0.0376058 -8.94977e-21)
(0.927588 -0.173505 -1.88352e-21)
(1.06354 0.0110543 -1.10107e-20)
(0.987609 0.0158046 -2.37012e-21)
(1.09834 0.0412116 0)
(0.992151 0.0708342 7.30353e-22)
(1.01631 0.00213677 0)
(1.06011 0.0430851 1.48511e-21)
(1.01403 0.001401 2.23734e-21)
(1.01109 -8.26984e-06 -5.24558e-22)
(0.996647 0.0920816 5.60312e-24)
(1.01995 0.00168947 -1.61591e-23)
(0.736475 0.0988272 -2.03127e-21)
(1.03206 -0.0424006 1.33247e-21)
(1.01047 4.24647e-05 -1.36806e-21)
(1.11938 -0.00196759 -9.36418e-21)
(1.02265 0.0013823 1.25206e-21)
(1.02213 0.00143027 -2.67437e-21)
(0.768972 -0.144204 3.0786e-21)
(0.785315 -0.170358 7.41625e-21)
(1.01869 0.000557541 1.62537e-23)
(1.01819 -0.00266904 -1.77963e-23)
(1.01198 0.000136593 1.38517e-23)
(1.04417 0.00289414 5.54981e-22)
(1.04362 -0.00955542 0)
(1.02284 0.000824964 0)
(1.24339 0.06542 0)
(0.83953 -0.212474 -5.75405e-22)
(1.01494 0.0027216 -2.27813e-21)
(1.01408 0.00132918 -1.52844e-21)
(1.01514 0.00179717 1.76385e-21)
(1.03219 0.00212008 -3.67052e-22)
(1.05418 0.1193 0)
(0.95398 0.0201527 0)
(1.24034 0.0745618 -4.71452e-21)
(1.01415 0.00103203 8.8681e-22)
(0.724492 0.052854 -1.7992e-21)
(1.06104 0.0113174 4.40149e-21)
(0.869573 0.221209 6.51084e-22)
(0.567646 -0.37591 1.6625e-20)
(1.09325 0.0409141 -7.57674e-21)
(0.995253 -0.111241 2.34216e-21)
(1.02904 0.011869 -1.38684e-21)
(1.01789 -0.000232305 -7.64512e-23)
(1.04578 0.119915 -5.53419e-21)
(0.894742 0.243338 0)
(1.21644 0.0612903 -2.91995e-20)
(0.819911 -0.0491669 0)
(1.05587 -0.00646946 2.60528e-21)
(1.01627 0.000589622 3.31515e-21)
(0.990591 0.0107305 2.73706e-21)
(1.01212 0.0966009 0)
(1.0143 0.00157326 0)
(1.00841 0.0911078 0)
(1.15797 0.0477141 -1.61158e-20)
(1.01218 0.0221113 -4.67193e-22)
(1.01634 -0.00501217 0)
(1.02894 0.0108846 0)
(1.016 0.000668351 -3.18927e-21)
(1.19557 0.0537584 2.79726e-20)
(1.02763 -0.0291211 -1.02492e-21)
(1.01492 0.00181801 -1.74655e-21)
(1.02391 -0.0318259 2.28797e-21)
(1.06464 0.00895329 2.43188e-21)
(0.837959 -0.209075 -1.6188e-21)
(1.05128 0.00305359 -1.54968e-21)
(1.00639 6.68471e-05 -1.54441e-21)
(1.01352 0.000471641 -8.65561e-24)
(0.980803 0.0587763 -1.61798e-21)
(1.04232 0.165159 -8.55702e-21)
(0.993196 0.00979055 0)
(0.984457 -0.0525103 0)
(1.01437 -0.00024065 0)
(1.04209 -0.0202782 0)
(1.08385 0.0261583 0)
(1.03378 0.00135383 0)
(1.20586 0.0674483 3.39918e-20)
(1.03342 0.172437 5.65422e-21)
(1.05246 0.0103594 1.90929e-21)
(1.01577 0.00730891 0)
(0.0508288 -0.162478 1.32171e-20)
(0.990424 0.0144041 -5.01325e-23)
(0.874307 -0.118702 -2.29754e-21)
(1.02953 0.00949945 0)
(1.08082 0.0257929 6.81719e-21)
(0.989242 0.123465 0)
(1.0184 0.0160399 0)
(1.109 -0.0023432 -2.16292e-21)
(1.06566 0.0227474 -1.1001e-21)
(1.02016 0.0128196 -5.96457e-23)
(0.432831 -0.306307 2.21973e-21)
(1.01563 0.000620344 4.48195e-21)
(1.08912 0.229914 4.70883e-21)
(1.02066 0.0136519 9.9209e-23)
(1.02692 0.0111578 1.22162e-21)
(1.07664 0.211472 0)
(0.985228 0.116157 1.0142e-23)
(0.838699 -0.0752487 1.06934e-20)
(1.05141 -0.0037432 -2.68257e-21)
(1.01337 0.00127402 -7.91977e-22)
(1.02416 0.0262571 0)
(1.01092 0.000119162 0)
(1.01027 -0.0999323 -1.03564e-21)
(1.01308 9.6551e-05 -7.34155e-22)
(1.01807 -0.000369804 9.15864e-23)
(0.95177 -0.252124 0)
(0.947285 -0.250502 3.65555e-21)
(1.015 0.00295359 1.83153e-21)
(1.03934 -0.0248833 0)
(1.01438 -0.000336441 6.61818e-21)
(1.01432 -0.000269968 -3.62972e-21)
(0.861512 0.227618 1.7412e-22)
(1.21371 -0.0189387 -1.4522e-20)
(1.02069 0.0278017 -2.91171e-21)
(1.02086 -0.00340423 -2.29569e-22)
(1.01527 0.000775039 7.6202e-24)
(1.01423 -0.00106806 -3.35549e-21)
(1.01488 0.000880571 1.64378e-21)
(1.06438 0.21264 0)
(1.22753 0.14494 -2.08402e-20)
(0.99326 0.0004928 0)
(0.452232 -0.240943 0)
(1.04657 0.0169568 -2.06022e-21)
(0.865943 -0.112287 -9.10181e-22)
(1.15934 0.05875 -2.9339e-21)
(1.019 4.50671e-05 1.53858e-21)
(0.426416 -0.28718 -3.21992e-20)
(1.01983 0.00142926 6.74714e-23)
(1.04174 0.0483354 0)
(1.01845 -0.00294959 -1.67333e-23)
(0.98457 0.0563364 3.52396e-21)
(1.01426 0.00125245 -7.92464e-22)
(1.00852 0.0146814 -1.42446e-21)
(0.862512 0.276179 3.04401e-21)
(1.01542 0.000665862 -1.64038e-21)
(1.01748 -9.82672e-05 0)
(1.04955 0.0190316 8.42855e-21)
(1.113 0.0384484 0)
(1.04612 0.00956398 2.42704e-21)
(1.03955 0.0503966 -5.85576e-23)
(1.21422 -0.00998717 2.15988e-20)
(0.668483 -0.352722 -4.66018e-21)
(1.01402 -0.000764484 -3.52469e-21)
(1.00874 -0.000208647 3.80561e-22)
(1.01212 0.000244439 1.98954e-21)
(1.04538 0.00599265 -4.85804e-22)
(1.23543 0.171209 -2.07939e-20)
(1.01437 -0.000194484 -3.47567e-21)
(1.04232 0.0144073 3.7118e-21)
(0.840448 0.273212 -6.23131e-21)
(1.01672 -0.00533408 0)
(1.1121 -0.00040492 7.38033e-21)
(0.772227 -0.166196 -6.25944e-21)
(1.02135 0.00173922 1.54454e-21)
(1.04163 0.0199542 0)
(1.02299 -0.0518991 0)
(0.949857 -0.233604 0)
(1.02183 0.00180305 -1.29243e-21)
(1.06012 0.0133852 0)
(0.946063 -0.239454 0)
(1.01413 0.00208995 -1.48368e-21)
(1.0188 -0.00286854 1.78456e-23)
(1.01504 0.000739035 1.63812e-21)
(1.01452 0.00168098 -5.72433e-22)
(1.04481 0.0167659 4.0796e-21)
(1.06085 0.0304198 4.57399e-21)
(1.02981 0.0103641 -1.56205e-21)
(1.01393 0.000129398 1.42716e-21)
(1.06104 0.107473 0)
(1.08881 0.0131594 -5.04897e-21)
(1.0135 0.0234676 -1.3766e-22)
(1.01751 -0.000233042 0)
(0.692108 -0.114278 3.02767e-20)
(1.01327 -0.000206695 0)
(0.978503 -0.254031 -9.86092e-21)
(1.09066 0.0450008 6.81646e-21)
(1.02085 -0.00388162 0)
(1.05943 0.028671 -3.98235e-21)
(0.848144 0.221866 -8.52973e-22)
(1.03344 0.000645651 0)
(0.505332 -0.0731093 -1.03535e-21)
(1.03003 0.0256725 2.59849e-21)
(-0.0582909 -0.126737 0)
(1.0136 0.000460408 -2.4925e-21)
(1.09837 -0.0465762 -3.18299e-20)
(1.17775 0.0625476 4.35063e-22)
(1.09051 0.0619713 0)
(1.01692 0.00102024 -5.82869e-22)
(0.873621 -0.128802 6.50733e-21)
(1.01442 -0.00102964 -1.85451e-21)
(1.05883 0.150608 0)
(1.10923 0.0404476 -4.60397e-21)
(1.02593 0.0107295 -6.84146e-22)
(1.01483 0.000896912 -9.48776e-22)
(1.11583 -0.00272752 -8.44453e-21)
(1.01703 0.00118325 4.79829e-22)
(1.09262 0.0775652 -9.72132e-22)
(1.09648 0.037623 1.28835e-21)
(1.01741 0.00054388 -1.30193e-21)
(1.01641 0.0825837 -7.19344e-22)
(1.016 0.000972621 9.86728e-22)
(0.977424 -0.186928 8.53675e-22)
(1.01573 0.00102869 7.24152e-22)
(1.15762 -0.0291844 1.88544e-20)
(0.261767 -0.121538 -6.39548e-22)
(1.03671 0.017837 6.50806e-22)
(0.221222 -0.143486 9.40478e-22)
(1.01136 0.0842083 0)
(1.01658 0.00243643 0)
(1.18468 0.0574004 -4.85232e-21)
(1.01069 0.0113278 -1.6448e-21)
(0.995883 0.000490358 0)
(1.00282 0.081041 4.41998e-22)
(1.01933 0.0167433 -1.99485e-23)
(1.01913 -0.00314615 -4.0676e-21)
(1.01426 -0.00032024 0)
(1.0876 0.0154521 0)
(1.00904 0.000137235 0)
(1.0141 0.00193635 1.53347e-21)
(0.763548 -0.130221 -5.96049e-21)
(1.00211 -0.0038202 0)
(0.0144697 -0.169207 0)
(1.04126 0.0449642 0)
(1.06118 0.0659364 -5.78132e-22)
(1.01958 -0.154533 1.15601e-21)
(0.962538 -0.0393927 -8.16666e-23)
(1.01836 -0.000275877 0)
(1.04996 0.00579819 0)
(0.865399 0.195363 -6.34172e-22)
(1.01333 0.000279638 -1.0763e-21)
(0.975949 -0.0193238 -4.24495e-22)
(1.0384 0.0432681 0)
(1.05054 0.0203529 -3.76452e-21)
(1.01275 0.000143678 0)
(1.06415 0.0204162 3.9937e-21)
(1.02146 -0.00421336 -1.25057e-22)
(0.945293 0.0564045 4.64854e-22)
(0.887325 0.198517 0)
(1.0091 0.0135168 0)
(1.00371 -0.00320971 -2.77865e-21)
(1.01226 -0.00013801 -3.9637e-22)
(1.00725 0.00963931 -8.02393e-22)
(0.146239 -0.199402 -5.9918e-20)
(1.0152 0.00118429 -7.95724e-22)
(1.04742 -0.0205253 0)
(1.01711 -0.00316499 0)
(1.01405 0.00095919 0)
(1.01531 0.00209093 -1.03109e-22)
(1.10477 0.036237 6.27058e-21)
(0.882172 0.189996 -2.04441e-21)
(1.05043 -0.014728 0)
(0.95541 0.0506069 -4.76346e-22)
(1.00594 -0.000166039 -2.61227e-21)
(1.01426 -0.000508183 0)
(1.02291 0.00183504 9.9505e-23)
(1.08822 0.0891286 0)
(1.01616 -0.000996493 -3.13382e-21)
(0.99746 -0.00162983 1.65687e-20)
(1.00826 0.00894818 0)
(1.0539 -0.0843322 0)
(1.0486 0.00313936 0)
(1.01432 0.0022392 5.95623e-22)
(1.006 -6.95055e-05 -2.91428e-21)
(0.832404 0.218836 1.93677e-21)
(1.02038 0.00177753 3.82882e-23)
(0.928662 -0.056019 0)
(0.531246 -0.0560226 -2.7147e-23)
(1.04694 0.00333662 -1.25141e-21)
(1.01588 0.000116166 -4.38198e-22)
(0.0615096 -0.249966 -1.98816e-20)
(1.00651 0.0234678 -3.35094e-21)
(1.01572 0.00409358 -5.87298e-22)
(0.982352 0.0636858 -7.39716e-22)
(1.01632 -6.75085e-05 1.29206e-22)
(1.08325 0.048023 -6.19566e-21)
(1.00858 0.0134908 0)
(1.01422 0.000267094 -6.96635e-22)
(0.933542 -0.0788641 -1.48368e-21)
(1.05315 -0.0134444 -5.18079e-22)
(1.0146 -0.000886779 3.84037e-21)
(0.873244 0.0282344 2.09039e-21)
(0.997802 -0.00219868 -5.65575e-21)
(1.02315 0.00156977 0)
(1.01611 0.00100877 0)
(1.04755 0.0191934 -7.53168e-21)
(1.10206 0.0499263 -1.37215e-21)
(1.01749 -0.000146461 0)
(1.00262 -0.165862 0)
(1.01003 0.0239964 0)
(0.904202 0.234174 0)
(1.01674 -0.000847752 2.94537e-21)
(1.05109 0.0100148 1.79587e-22)
(0.854218 0.0287668 -4.72736e-21)
(0.925698 -0.0787113 8.07278e-22)
(1.01727 0.000247429 6.56844e-22)
(1.01475 0.000915664 3.32235e-21)
(1.01618 0.00724711 0)
(1.0149 -0.000820881 -3.09682e-21)
(1.0065 0.0119462 -3.04191e-21)
(0.976139 0.0611464 0)
(1.01556 0.0020014 0)
(1.06685 0.0991017 -1.97642e-21)
(1.05462 0.0719683 2.45594e-21)
(1.01335 0.000844106 0)
(1.01181 0.000166106 0)
(0.937313 -0.0196279 -2.19453e-20)
(1.05857 -0.0735263 4.0162e-22)
(1.03871 0.157138 7.88389e-21)
(1.06412 0.10591 -4.1835e-21)
(1.01661 0.000370494 7.62078e-22)
(1.01427 0.0142114 3.55279e-21)
(1.01497 0.000728255 3.61317e-21)
(1.00004 -0.0018145 5.90633e-21)
(1.07896 0.0470151 6.36575e-21)
(1.01462 -0.00126542 -7.43544e-21)
(1.02157 0.00870536 4.72186e-23)
(1.00224 0.0707463 0)
(1.01542 -0.000483704 2.15946e-24)
(1.0625 0.12166 0)
(0.983096 0.0704099 7.44978e-22)
(0.435751 -0.277221 -1.29689e-20)
(1.04467 0.148824 1.56483e-21)
(1.02148 -0.00477265 2.09945e-21)
(0.831127 0.238455 8.68281e-21)
(1.1572 0.0684049 3.02732e-21)
(1.09002 0.0543125 0)
(1.0186 -0.000440741 -1.22923e-22)
(1.02194 0.013115 -8.58556e-22)
(1.01117 0.000248964 2.08469e-21)
(1.01956 -0.00301096 -1.90202e-21)
(1.01549 -0.00105827 1.424e-23)
(1.01358 0.000378405 -4.39217e-21)
(1.0092 0.00332873 5.03433e-21)
(-0.0491833 -0.126909 2.36655e-21)
(1.03974 0.00328709 -6.0294e-21)
(1.0545 0.00575244 0)
(1.00872 0.00182557 2.56696e-21)
(1.02752 0.0170774 7.31008e-22)
(0.881772 0.238335 9.6609e-24)
(1.01584 0.0167147 -3.43987e-21)
(1.01115 0.0124966 3.03114e-22)
(1.00381 4.55265e-05 1.14526e-21)
(0.672428 -0.0899976 -5.10548e-21)
(1.00709 0.000172676 0)
(1.02069 0.0120961 0)
(1.01865 0.000539237 -5.90865e-22)
(1.04116 0.0155913 0)
(1.02949 0.0289668 -8.06723e-23)
(0.805971 0.22662 0)
(1.04407 0.0146374 -4.02157e-21)
(1.01377 0.000519066 1.44351e-22)
(1.00957 -0.000393401 5.87627e-22)
(1.00962 0.000946835 -5.97947e-22)
(0.849862 0.246176 -1.7704e-23)
(1.01768 -0.000303232 0)
(1.00711 0.00014671 -6.37902e-23)
(1.01644 -0.00097758 0)
(1.01212 -9.45195e-05 2.33736e-23)
(1.03812 0.152385 -4.71109e-22)
(1.01745 -0.00110575 -3.76756e-21)
(1.03769 -0.0890113 0)
(1.07519 -0.0803765 0)
(0.854683 0.180076 -2.24904e-21)
(1.04534 0.146766 2.39677e-21)
(1.02025 0.00998648 1.36766e-22)
(1.05773 -0.113727 3.29885e-21)
(0.997041 0.077887 2.54651e-22)
(1.0148 0.000686956 -6.68338e-21)
(1.13235 0.0282152 -9.02471e-21)
(1.01301 0.000587872 0)
(1.01319 0.000322406 2.38524e-21)
(1.01341 -4.03541e-05 -7.54295e-22)
(1.01449 0.00113151 -3.7123e-21)
(1.01612 0.0038387 -5.31899e-22)
(1.00828 0.00746891 1.57468e-21)
(0.314862 -0.401092 -1.18021e-20)
(1.03921 0.00432421 4.05846e-21)
(1.00628 0.0157163 0)
(0.800576 0.187699 1.12191e-21)
(0.89547 0.20131 0)
(1.01804 0.00291401 1.24877e-21)
(0.783663 -0.125058 -3.98659e-21)
(1.01835 0.000113097 -2.32206e-22)
(1.12015 0.00106045 0)
(1.0143 0.000976972 2.45714e-22)
(0.0968368 -0.192911 1.63375e-21)
(0.993476 -0.0263283 -1.33329e-21)
(0.878598 0.226228 -1.07739e-21)
(0.261407 -0.292209 6.22012e-20)
(1.02927 0.0175836 -9.60117e-22)
(1.14711 0.0695669 1.47531e-21)
(1.03516 0.0234723 -1.00084e-22)
(1.03155 -0.129759 3.16955e-21)
(1.00918 0.00697841 -7.62582e-22)
(0.759761 -0.0724642 6.45431e-21)
(1.05369 0.0493811 -1.56382e-21)
(0.9472 -0.0518339 2.61206e-22)
(1.0378 0.00442921 3.79257e-22)
(0.944257 0.0758038 5.32288e-21)
(1.01853 0.00276615 2.77775e-21)
(1.03998 0.0579468 -3.33763e-21)
(0.8599 0.240377 -6.23475e-23)
(1.01666 0.00265756 1.57619e-21)
(1.01815 0.00235056 -5.98522e-21)
(1.01714 -0.000328761 -4.15686e-24)
(0.779818 0.17176 -4.53214e-21)
(1.01995 -0.00329229 0)
(1.014 -0.000187675 0)
(1.16717 0.0559669 0)
(1.02272 -0.000699579 2.13477e-21)
(0.985601 0.0698674 9.502e-22)
(0.776669 -0.0672276 7.99781e-22)
(1.01507 0.00113914 0)
(1.09321 0.0501738 -7.29601e-21)
(1.02246 0.000109491 0)
(1.01477 0.00218101 -9.90647e-22)
(1.05156 0.0515303 3.05283e-21)
(0.791278 -0.15315 8.23333e-21)
(1.03549 0.0207036 0)
(1.03942 0.0150418 3.90586e-22)
(1.05426 0.341645 -2.72229e-21)
(1.02811 -0.0997753 -1.97155e-22)
(1.01128 0.000265469 -1.23806e-21)
(0.483581 -0.397571 -1.25915e-20)
(1.01985 0.000977261 -2.13949e-23)
(1.0069 0.00912207 1.51515e-21)
(0.990149 -0.0238807 0)
(0.752981 -0.0866112 -2.40488e-20)
(1.18122 0.116832 0)
(1.01425 0.133661 0)
(0.980072 0.095573 0)
(1.22019 0.167125 2.21147e-20)
(0.791531 -0.0756631 1.97567e-20)
(1.01402 -0.000849948 0)
(1.0717 -0.0657393 4.0829e-22)
(0.842037 -0.00919479 5.50659e-22)
(0.84553 -0.0225013 2.75969e-21)
(1.12776 0.0291667 0)
(1.01632 0.00192941 -8.07072e-22)
(1.01568 -0.00105676 3.96027e-23)
(1.05061 0.00119521 5.49423e-22)
(0.373964 -0.416742 1.31718e-21)
(1.01367 0.000259982 -1.86723e-22)
(1.0332 -0.000502338 1.89407e-22)
(1.01048 0.00021389 -3.20582e-21)
(1.01745 0.00298978 0)
(1.03191 -0.0199615 -2.14209e-21)
(1.03091 -0.0225587 2.85094e-22)
(1.01444 0.000914578 5.2243e-21)
(1.00926 0.000133459 0)
(0.98821 0.0737544 -5.19908e-22)
(1.04748 0.000250741 3.17342e-21)
(1.00543 0.00778666 -1.8006e-21)
(1.04545 0.0175934 2.26664e-21)
(1.20391 0.180142 -1.85825e-20)
(1.02356 0.00669423 1.58153e-21)
(0.158141 -0.27142 -1.08455e-20)
(1.09013 0.327942 -1.69223e-20)
(0.887215 -0.103789 1.45052e-21)
(1.01591 -0.000564017 0)
(1.08085 -0.000606151 8.36228e-21)
(1.01346 0.000240679 7.54931e-22)
(0.902825 0.197703 5.96827e-22)
(1.0237 0.00304156 -2.22789e-22)
(1.02666 0.023499 1.48103e-21)
(1.03727 0.00540335 -3.72871e-22)
(0.866389 -0.10533 2.12257e-21)
(1.01851 2.71148e-05 -1.82534e-21)
(1.06598 0.0178288 -5.14976e-21)
(1.03292 0.00102361 2.49264e-22)
(1.07201 -0.0559897 -5.58359e-22)
(0.818373 -0.116354 -3.68002e-21)
(1.01281 0.000412894 9.52165e-22)
(1.01348 0.000109275 4.48799e-21)
(1.01475 0.000975261 -3.02922e-21)
(0.910639 -0.288325 3.77624e-21)
(1.01742 -0.00322545 -2.49293e-21)
(1.02405 0.0178478 2.86745e-21)
(1.01331 -0.0595711 1.07721e-21)
(1.14252 0.0779001 -2.43396e-20)
(1.02648 0.0148845 -3.62454e-22)
(1.02678 0.01944 -4.22561e-21)
(0.939946 -0.0913353 0)
(1.11947 0.281736 -3.85074e-21)
(1.02511 0.00922648 -7.80621e-23)
(1.01092 0.000214634 0)
(0.941708 -0.0450048 -1.20154e-22)
(0.915623 -0.284233 0)
(1.06395 0.0872598 7.81327e-21)
(0.927735 0.100961 -3.50714e-21)
(1.0124 -3.92957e-05 0)
(1.06952 0.0734628 0)
(1.0022 0.0628464 1.52198e-22)
(1.01986 0.0603552 2.03542e-21)
(1.03684 0.0376205 2.67486e-21)
(1.06002 0.173443 -5.36467e-22)
(1.0271 0.0136151 0)
(1.01597 0.00179508 0)
(1.02243 0.0147281 1.9903e-22)
(0.936801 -0.100288 0)
(1.0153 0.00303894 9.47546e-22)
(1.04977 -0.109239 -2.50955e-21)
(1.01734 0.00283855 -1.14628e-21)
(1.02568 0.00727106 5.71862e-22)
(1.02573 0.00495108 0)
(1.03602 0.0578007 -4.03765e-21)
(0.941244 0.109457 4.35653e-22)
(1.02038 0.0164134 -1.60151e-22)
(1.03813 0.015982 -3.25991e-21)
(0.96191 0.173104 1.10654e-23)
(1.03388 0.0240614 0)
(0.967416 0.0410309 -2.86182e-21)
(1.02084 0.0156588 0)
(1.01565 0.000788666 7.06254e-21)
(1.07213 0.0808981 0)
(1.13371 0.262766 -3.03858e-22)
(1.02071 0.0106463 -3.8494e-24)
(1.01769 0.00586518 -5.29891e-22)
(1.01565 -0.0510049 4.10165e-21)
(1.01568 0.00773426 1.07729e-21)
(1.02006 0.00770762 0)
(0.913817 0.0491691 -2.74421e-22)
(1.02039 -0.00311173 0)
(0.870747 0.197111 -8.53482e-22)
(1.01384 0.000571884 0)
(1.00349 0.0880924 0)
(1.0746 -0.00334435 0)
(0.117027 -0.160443 0)
(1.01549 0.00317532 -2.55707e-23)
(1.08314 0.00400517 1.29709e-21)
(1.01567 0.000892319 0)
(1.01694 -0.00460601 1.48396e-21)
(0.968067 0.159865 1.38148e-21)
(1.01902 -0.000286245 9.65393e-23)
(1.08475 -0.0406929 2.67875e-20)
(1.06912 0.0871876 -8.14844e-21)
(1.02264 -0.000158151 -1.63851e-21)
(1.00706 0.00822037 -2.49695e-22)
(0.463732 -0.257746 1.48053e-21)
(0.9794 -0.157317 -2.32858e-22)
(1.04304 0.0124962 -2.2737e-21)
(1.016 -0.000405418 0)
(1.0172 0.00597213 1.09097e-21)
(1.01435 0.000747631 -7.89801e-22)
(0.995839 -0.000700957 -1.72853e-21)
(1.07854 -0.0385353 0)
(1.02178 0.0138418 -1.97851e-22)
(0.801611 -0.104943 -2.21552e-21)
(1.01707 0.00735223 -7.30462e-23)
(1.01634 -0.000154549 1.3463e-24)
(0.879819 0.367397 0)
(1.06415 0.0250949 1.13322e-21)
(1.08123 -0.0471458 5.52965e-22)
(1.01082 0.000144277 -1.284e-21)
(1.01339 0.000197741 -3.56168e-22)
(0.893616 0.344799 0)
(1.03792 0.04886 1.6168e-23)
(1.06845 -0.000407362 0)
(1.05059 0.197558 5.35212e-22)
(1.0223 0.000901835 -3.97411e-23)
(1.08543 0.00871311 -1.23838e-20)
(1.02024 0.00855441 0)
(1.02319 -0.00015096 0)
(1.01511 0.000740884 -4.72839e-21)
(1.01486 0.000836553 -5.60009e-21)
(1.02211 0.0113571 -8.85042e-23)
(1.01316 -0.000277833 4.90121e-21)
(0.0496523 -0.210406 2.29194e-20)
(1.03535 0.00630961 0)
(0.946786 0.0976768 0)
(1.01411 0.00176017 0)
(1.06005 0.0121553 0)
(1.01574 0.00227026 1.23977e-21)
(0.963066 0.0458594 0)
(0.994497 -0.185016 0)
(1.02228 -0.000581599 0)
(1.01427 0.00207423 2.68411e-23)
(1.07217 0.103064 4.54909e-21)
(1.03334 0.0196069 -6.55631e-22)
(1.01636 0.00254805 -1.06962e-21)
(0.862743 0.181862 0)
(1.01369 0.000416718 -1.48225e-21)
(0.991449 0.0645758 -5.42046e-22)
(1.01788 -0.00270011 2.31292e-21)
(1.01369 0.000514952 1.6453e-21)
(1.01714 -0.00440086 0)
(0.637797 -0.0895196 1.36874e-20)
(1.016 0.00210617 -1.12526e-21)
(1.01547 -0.00129401 3.4886e-21)
(1.01787 -0.00100622 4.38092e-21)
(0.860783 0.190274 2.62383e-21)
(1.01023 -2.82976e-05 -4.21287e-23)
(1.01511 0.000778078 3.89703e-21)
(1.01393 -0.000413339 -1.58192e-22)
(0.953259 -0.0692065 -7.09087e-21)
(1.01802 0.0031527 -9.0605e-22)
(1.0145 0.00312869 -2.88235e-21)
(1.01907 0.000126065 -2.9742e-21)
(1.0146 0.00331378 2.91499e-21)
(1.03897 0.0395888 0)
(1.01419 0.00226611 1.56974e-21)
(1.05558 0.0129211 0)
(1.02075 0.00906234 -5.31243e-22)
(0.24638 -0.258559 0)
(0.798043 -0.148899 1.80326e-21)
(0.839257 -0.129451 -1.02714e-21)
(1.00935 0.00572887 -2.55728e-21)
(1.06957 -0.000205336 -1.59846e-20)
(1.01563 0.00100556 0)
(0.913725 0.0192754 0)
(1.01875 -0.000105614 -9.27919e-22)
(1.05426 0.049903 -2.65326e-21)
(1.03815 0.0830746 0)
(0.852839 -0.125427 2.33725e-21)
(0.986425 0.0609974 0)
(0.991763 -0.00372377 1.41841e-22)
(1.02198 0.000862758 -2.57622e-23)
(1.02133 0.0093514 1.1898e-23)
(0.969432 -0.117309 5.30118e-21)
(0.964457 -0.0654483 3.74796e-21)
(1.01147 0.0138572 3.67184e-21)
(1.15855 -0.00187464 9.90433e-21)
(1.03177 0.00755356 -1.68494e-21)
(1.0409 0.0597566 -1.43365e-22)
(1.01395 0.00020735 -3.25038e-21)
(1.02421 0.0103632 0)
(1.02379 0.00754421 -1.29983e-21)
(1.01751 -0.002973 2.51745e-21)
(1.01232 0.000277272 0)
(0.961217 -0.115859 -5.61923e-21)
(1.04635 0.00477406 1.41403e-21)
(1.01109 -2.08526e-05 2.87533e-22)
(0.240871 -0.378311 0)
(1.01641 0.0060898 -1.24312e-21)
(0.916053 0.0305074 0)
(1.04068 0.00323181 1.93499e-22)
(1.04601 0.000800482 -5.345e-21)
(1.0242 0.0145344 -3.26092e-21)
(1.01302 -0.000104 0)
(1.05772 0.102914 0)
(1.0147 0.000763383 2.29884e-21)
(1.01465 0.000952617 -2.35307e-21)
(0.95566 0.0953818 0)
(1.02579 0.00804311 -5.71169e-22)
(1.0169 -0.000167682 -6.56489e-23)
(1.00913 -7.93939e-05 3.80295e-22)
(1.01416 0.000253903 3.3992e-21)
(1.0135 0.000256147 0)
(0.908469 -0.0491556 0)
(0.908447 0.0582172 2.36477e-22)
(0.806071 -0.154987 -8.28754e-22)
(1.03151 0.00140768 0)
(1.01433 -0.000146716 0)
(1.01411 0.000321969 3.39534e-21)
(1.0343 0.0468232 0)
(1.01049 0.0227616 3.03693e-23)
(1.01596 0.000793975 -3.73968e-21)
(1.01543 0.000763952 -7.40557e-22)
(1.01504 -0.000944385 -2.908e-21)
(0.995775 -0.0097513 2.58482e-22)
(0.867758 -0.0111792 3.54616e-20)
(1.07807 0.0242498 0)
(1.0095 0.0109548 -7.3441e-23)
(1.01422 2.60323e-05 -3.69198e-22)
(0.463578 -0.301343 9.66835e-20)
(1.08558 0.00530581 2.80892e-21)
(1.00842 0.00479659 -9.40216e-21)
(0.975278 0.0572874 0)
(0.856878 0.110964 3.40955e-21)
(0.902988 0.221842 -6.7575e-22)
(1.01023 0.00807806 -2.79219e-22)
(1.01395 0.00015693 0)
(1.01448 -0.000427548 4.62526e-21)
(1.01481 0.000895819 5.9891e-22)
(0.890754 0.00266815 0)
(1.01389 0.000137 0)
(1.07402 0.000244223 -6.50308e-21)
(1.01401 0.000249623 -4.57042e-21)
(1.01937 -0.000481464 -1.32615e-22)
(1.01948 0.0136712 8.17136e-22)
(1.01294 -0.000478414 -4.29459e-21)
(0.572962 -0.118443 6.7105e-21)
(0.397403 -0.0792261 -3.67125e-21)
(1.01483 0.00386467 4.45357e-22)
(1.01476 0.00255818 2.47348e-21)
(1.01434 -0.000537569 7.75925e-22)
(1.03301 0.12658 -1.22008e-21)
(1.01781 -0.0029789 0)
(0.733815 -0.0625425 0)
(1.01047 -0.000965189 0)
(0.755228 -0.0853356 -3.13304e-20)
(1.01425 2.63131e-05 -3.62149e-21)
(1.0134 -0.00300591 -4.30977e-22)
(1.02231 -0.00086325 0)
(1.01586 0.00191496 0)
(1.02109 0.00819965 -1.12754e-22)
(1.02587 0.000173917 1.75533e-22)
(1.02401 0.0027479 -3.70817e-22)
(1.03739 0.00743722 0)
(1.00961 0.0165634 0)
(1.0644 0.015513 1.16518e-21)
(0.837526 -0.0914974 -3.69008e-22)
(1.02122 0.000157215 1.01026e-22)
(0.968325 -0.0516473 6.30024e-22)
(0.803888 0.0870684 0)
(1.01771 -3.72056e-05 -2.16504e-22)
(0.706897 -0.310443 0)
(1.01388 0.00133159 -3.21863e-22)
(1.01713 -0.0016603 -3.58934e-21)
(0.987264 -0.0267467 1.22984e-21)
(1.01596 -0.000368869 2.48127e-21)
(1.04966 0.221703 6.60684e-21)
(1.0141 0.00041881 1.30898e-21)
(1.01015 0.00540449 1.60156e-21)
(1.02623 0.00575712 -6.471e-22)
(0.827051 0.218278 -6.06177e-22)
(1.01357 -0.00323229 2.2971e-21)
(0.931015 0.0292355 -5.49368e-21)
(1.07351 0.0757861 -8.11733e-21)
(1.01429 -2.49112e-05 0)
(0.984479 0.130478 -4.44691e-22)
(0.875583 -0.0487257 -1.12214e-20)
(1.03886 0.00560599 -4.9965e-23)
(1.01603 -0.00511708 5.85638e-23)
(1.1606 0.00490849 -9.06771e-21)
(1.00422 8.89863e-05 0)
(1.08312 -0.0903688 -8.06318e-21)
(1.00543 0.0126558 -4.29297e-21)
(1.01924 -0.0285219 -2.47376e-21)
(1.01878 0.0165882 0)
(1.03051 0.00158211 -1.67644e-21)
(1.02591 0.00965094 -9.71227e-23)
(1.01589 0.000414808 -2.21003e-21)
(0.990912 0.042942 -1.51932e-21)
(0.99034 -0.039464 0)
(1.01486 0.136384 1.12363e-21)
(1.0988 0.190242 5.62802e-22)
(1.01991 -0.000285846 1.20712e-22)
(0.994284 -0.00615286 1.06029e-21)
(1.01882 2.43173e-05 2.26831e-22)
(0.994664 -0.0266077 0)
(1.00442 7.92691e-05 0)
(0.726617 -0.0309034 4.83776e-21)
(1.03545 0.00192769 -2.34575e-21)
(1.02025 0.0113438 0)
(1.04885 0.0877041 8.07203e-22)
(1.0142 0.000157164 3.38248e-21)
(1.15602 0.00912835 1.72483e-20)
(1.0214 0.0648809 6.65483e-22)
(1.01489 0.000247865 0)
(0.987909 0.125854 9.12364e-21)
(0.995205 0.0263723 -3.75507e-22)
(1.01491 -0.000939842 0)
(1.01318 -0.0022363 0)
(0.99712 0.0715737 -3.91633e-22)
(1.01706 -0.000840022 -4.91098e-21)
(0.895552 0.215359 6.28644e-22)
(1.036 0.00736206 -1.56183e-22)
(0.99191 0.0671159 4.93369e-22)
(1.07626 -0.000837301 0)
(0.91139 -0.212502 0)
(1.01369 -0.00216068 0)
(1.02296 0.0568721 -1.34745e-21)
(1.05239 -0.0379224 -6.69081e-22)
(1.03808 0.00855661 0)
(1.06836 0.0731915 1.104e-20)
(1.02006 0.0012181 -7.57215e-23)
(1.00257 0.068172 0)
(1.01595 -0.00151466 1.12905e-22)
(1.03744 0.00251261 -2.17014e-21)
(1.0134 -0.00219189 0)
(1.01495 0.000841089 -1.17344e-21)
(1.04981 0.0153703 -3.18283e-21)
(1.05841 0.093551 -8.36779e-21)
(1.01126 0.000106128 -2.47866e-21)
(1.03191 0.00440545 0)
(1.00874 0.127124 -9.78533e-22)
(1.01963 0.000966044 0)
(1.01424 0.000129168 -1.81508e-21)
(1.01427 0.00190209 0)
(1.01384 -0.000512211 -7.29891e-22)
(1.08666 0.0268155 0)
(1.0446 0.0252995 -2.73959e-24)
(1.00464 0.00931771 0)
(0.985065 0.0438912 -2.25311e-22)
(0.991522 0.119189 0)
(1.02044 0.00820991 0)
(1.02075 -0.0766677 -6.09534e-22)
(1.07633 -0.10316 -6.83514e-21)
(1.0149 -0.000941982 2.9328e-21)
(1.01499 -0.00137332 3.59833e-21)
(1.01426 -0.000844337 -7.22216e-22)
(0.939396 0.13309 0)
(0.846028 0.117898 -5.03542e-21)
(1.06112 0.0255244 -4.60371e-21)
(1.01348 0.000112782 -4.72782e-21)
(1.04215 0.0983079 4.97772e-22)
(1.1244 0.240717 2.89551e-22)
(0.227836 -0.355938 -1.00014e-20)
(1.01195 -0.000700014 -2.21812e-21)
(0.957572 0.138037 0)
(1.17781 0.171196 1.86261e-20)
(0.83276 -0.116139 9.68744e-22)
(0.992391 0.0238802 0)
(1.02701 -0.000180921 -7.89818e-24)
(0.992208 -0.00901911 0)
(0.864161 -0.078092 3.19446e-23)
(0.930519 0.0421448 0)
(1.03597 0.00542331 0)
(0.164833 -0.309335 1.07162e-20)
(1.0087 -0.0316262 0)
(1.01768 0.133713 -1.27817e-20)
(1.03671 0.238675 -6.72219e-21)
(1.01761 -0.00174687 5.71505e-21)
(1.03442 -0.0240313 2.6595e-21)
(1.07648 -0.101464 3.6256e-21)
(1.06002 -0.049579 -3.48728e-21)
(0.87416 0.188846 2.49936e-21)
(0.992382 0.0460096 0)
(0.0937141 -0.275388 1.631e-21)
(1.00597 0.00857991 0)
(1.01692 0.00622515 3.0788e-22)
(1.02507 0.00839809 -4.98773e-22)
(0.985142 0.0388261 4.58934e-23)
(1.01099 9.08195e-05 0)
(1.02696 0.015148 -3.39311e-21)
(1.01745 -0.000436362 0)
(1.02501 0.0110147 7.34638e-24)
(1.01451 0.00241557 5.22921e-22)
(0.844687 0.172137 -3.89808e-21)
(1.0142 -0.000127934 -1.08852e-21)
(1.02035 -0.000531326 -2.01717e-23)
(0.850205 0.354192 2.40585e-22)
(1.0237 0.00692024 -6.10549e-23)
(1.07579 0.0287327 0)
(1.01133 -0.000308311 2.94299e-22)
(1.01758 0.12632 0)
(1.01339 -0.000252133 4.93479e-22)
(1.0384 0.0177283 -3.60146e-21)
(1.01221 0.0039352 0)
(1.01468 -0.00167448 3.27793e-21)
(1.01668 0.00592194 7.32558e-22)
(1.07858 0.000669542 0)
(1.01357 0.000274919 0)
(0.963622 0.345388 0)
(1.0139 -0.0334765 0)
(1.00296 -0.0596535 -1.06669e-20)
(1.01411 -6.16015e-05 3.46562e-21)
(0.784759 -0.103802 3.18438e-21)
(1.01349 0.000166019 -2.81334e-21)
(1.15811 0.0162535 -8.88227e-21)
(1.04139 0.122532 0)
(0.989893 -0.0490617 1.20327e-21)
(1.01651 0.0065542 -1.51522e-21)
(1.01371 0.00141162 4.302e-22)
(1.015 -0.00188068 4.64149e-22)
(1.01773 0.000490328 2.29766e-22)
(0.969869 -0.171944 1.8739e-21)
(0.956678 0.0265316 -3.81877e-21)
(1.01417 0.000315205 -3.44058e-21)
(0.912846 -0.193385 0)
(1.01726 0.000460561 0)
(1.01454 0.000717829 -5.74904e-23)
(1.06452 0.103832 6.07971e-21)
(1.01475 4.98855e-05 1.56082e-21)
(1.01802 0.000742771 -2.6211e-22)
(0.928477 -0.187489 8.74532e-23)
(1.01348 0.000427804 -4.92321e-21)
(0.911993 -0.0503333 -2.2763e-21)
(1.04774 0.0151361 -5.27883e-21)
(0.955704 0.0718259 1.6953e-22)
(1.07926 0.0224335 -1.82686e-21)
(0.961723 0.0222824 3.79005e-21)
(1.00765 0.0106086 3.73889e-21)
(1.01664 0.00764239 0)
(0.833066 -0.438456 -8.70029e-20)
(0.728281 -0.396993 1.07351e-19)
(1.01417 0.00191013 -2.38546e-21)
(0.998184 0.0598357 5.0262e-22)
(0.614624 -0.120179 1.05805e-21)
(0.922674 0.282122 3.33077e-20)
(1.05126 0.201539 8.22201e-21)
(1.00926 0.000151498 -2.38964e-22)
(1.01462 -0.00456089 1.96556e-21)
(1.06109 -0.0380434 3.94205e-23)
(1.02167 0.0121808 8.72025e-23)
(0.993564 0.0199472 0)
(1.03541 0.0548935 -2.0709e-21)
(1.0693 0.00206418 -1.54617e-20)
(1.01412 0.000624422 -2.25134e-24)
(1.10566 0.0113914 -1.42314e-20)
(0.885965 -0.0967469 -2.20591e-22)
(0.80842 0.0944227 -1.09647e-20)
(1.01441 0.00102507 0)
(1.01456 -0.000554997 8.74304e-23)
(1.01065 9.48059e-05 5.98658e-22)
(1.0322 0.00850376 1.14252e-22)
(0.708904 0.0740287 1.75805e-20)
(0.874863 -0.0657552 2.90912e-21)
(1.03037 0.00599731 6.16555e-22)
(1.07548 0.00690807 0)
(0.937663 -0.0678622 6.90984e-22)
(1.01583 0.000317783 1.94704e-21)
(1.01314 0.000475712 -1.45479e-21)
(0.274314 -0.297095 -2.40192e-20)
(1.00846 0.0254727 -1.02963e-21)
(1.03464 0.0387029 2.41125e-21)
(0.99183 0.0107109 0)
(1.01376 -0.000339873 -3.08611e-21)
(1.03175 0.00285989 -1.27322e-21)
(1.04132 0.0240894 -2.07985e-22)
(0.927357 0.0327462 0)
(1.05661 -0.0402895 0)
(1.01557 0.00054851 5.65874e-21)
(0.816518 -0.270229 8.51896e-22)
(0.969635 -0.197403 -3.79342e-21)
(0.821657 -0.133322 0)
(1.05945 0.0242794 2.74628e-22)
(1.0102 0.0248895 1.02665e-21)
(0.236416 -0.294699 8.59403e-21)
(1.11279 0.0119874 0)
(1.02213 0.268524 -9.36602e-21)
(1.09924 0.000927066 1.60848e-20)
(1.02059 0.00933423 -1.44464e-22)
(1.01484 0.000715143 -2.18439e-21)
(0.868334 -0.190809 0)
(0.995346 -0.151009 2.56434e-22)
(1.01831 0.00178432 2.66466e-21)
(1.07286 0.0077411 -1.90409e-21)
(1.12027 0.0107931 -1.04403e-20)
(1.01629 -0.00171969 0)
(0.99061 -0.0468185 -4.62498e-21)
(1.01859 0.00153264 -1.66415e-21)
(1.01506 -0.00126746 -3.62123e-21)
(1.01255 0.000323126 1.25197e-21)
(1.10908 0.00953534 1.58209e-20)