/*--------------------------------*- C++ -*----------------------------------*\
| =========                 |                                                 |
| \\      /  F ield         | OpenFOAM: The Open Source CFD Toolbox           |
|  \\    /   O peration     | Version:  v2012                                 |
|   \\  /    A nd           | Website:  www.openfoam.com                      |
|    \\/     M anipulation  |                                                 |
\*---------------------------------------------------------------------------*/
FoamFile
{
    version     2.0;
    format      ascii;
    class       surfaceVectorField;
    location    "150";
    object      ddtCorrDdt0(Uf);
}
// * * * * * * * * * * * * * * * * * * * * * * * * * * * * * * * * * * * * * //

dimensions      [0 1 -2 0 0 0 0];


internalField   nonuniform List<vector> 
27284
(
(0.070829 0.0426978 2.4625e-19)
(0.0671059 0.0406313 4.07669e-20)
(0.0671483 0.0444271 -1.52411e-19)
(-0.000268896 0.000221065 -1.6076e-19)
(-0.000275565 0.000231832 5.96664e-20)
(-0.0002851 0.000234025 1.32415e-19)
(0.00194418 -0.127348 2.68468e-18)
(0.0121123 -0.127045 4.5984e-18)
(0.00707483 -0.116758 -2.73767e-18)
(0.000559209 2.76045e-05 -4.32981e-20)
(0.000562171 2.63298e-05 -1.58136e-19)
(0.000559842 2.00957e-05 -6.60759e-20)
(-0.0144588 -0.0140032 -4.54154e-19)
(-0.0129738 -0.0174232 -2.72111e-19)
(-0.0115042 -0.0143266 -1.18344e-18)
(0.0206578 0.0177642 3.36702e-19)
(0.0206869 0.0165371 -2.14048e-20)
(0.0220418 0.0177608 3.13214e-19)
(0.00244258 0.000712538 1.49797e-19)
(0.00220779 0.000815474 7.20485e-21)
(0.00244878 0.00105769 -6.35143e-19)
(-0.0180089 -0.0137766 -4.47526e-19)
(-0.0147378 -0.0108776 -5.06346e-20)
(8.99527e-05 2.7776e-05 -1.53132e-19)
(7.72702e-05 4.03538e-05 -4.0777e-20)
(9.85799e-05 3.09683e-05 1.13213e-19)
(0.0509367 0.0198304 9.47985e-20)
(0.0444311 0.0195785 1.3814e-20)
(0.048035 0.0235656 -6.13292e-19)
(-0.00554951 0.00387244 3.04455e-19)
(-0.00476681 0.00399593 -8.991e-20)
(-0.005137 0.00323356 -3.87865e-19)
(-0.0439467 -0.0279926 -2.07681e-18)
(-0.0422304 -0.0264869 -8.26309e-19)
(-0.0415479 -0.0289232 1.57575e-18)
(-0.0457331 -0.0301247 -2.95961e-19)
(-0.0465317 -0.0272599 -7.19846e-19)
(0.0462851 0.00733345 4.27387e-19)
(0.0528506 0.0092334 -3.48507e-19)
(0.0452897 0.00257272 -1.07615e-19)
(0.000129513 5.96308e-05 2.67957e-20)
(0.000130661 7.52305e-05 -1.24093e-19)
(0.000113593 6.92375e-05 -3.37799e-19)
(-0.000612286 -5.13479e-05 -6.79554e-20)
(-0.00059611 -5.75582e-05 -3.29967e-19)
(-0.000610854 -7.42707e-05 -3.21135e-19)
(0.000555087 2.74091e-05 2.5826e-22)
(0.000556268 3.66052e-05 9.72555e-20)
(-0.00435536 -0.00188557 4.6801e-19)
(-0.00453739 -0.00236456 -6.21008e-19)
(-0.00399877 -0.00233478 4.9245e-19)
(0.0703478 -0.0602861 1.93927e-18)
(0.0733421 -0.0549342 3.15582e-18)
(0.0671516 -0.0546354 -2.86135e-18)
(-0.0040107 -0.00149253 5.294e-19)
(-0.00421759 -0.00101111 4.15474e-19)
(-0.00365686 -0.0010724 -2.11333e-19)
(0.0218138 0.077686 -3.31307e-18)
(0.0214336 0.0739433 -1.03395e-18)
(0.0252441 0.0755947 -1.08365e-18)
(0.00134769 0.000195097 -7.26661e-20)
(0.00127004 0.000229109 -6.46944e-20)
(0.00134734 0.00030799 -1.62741e-19)
(-0.000138693 0.000119976 -1.44717e-19)
(-0.00014529 0.000127591 -5.11585e-19)
(-0.000146808 0.000116354 -3.5395e-19)
(0.0207104 0.0189382 2.81462e-19)
(0.0195203 0.0178652 -9.15993e-20)
(-0.000131422 0.000124758 2.68972e-19)
(-0.00013336 0.000112849 -1.73439e-19)
(0.00227023 0.00339193 -7.0349e-20)
(0.0020207 0.00313752 1.11743e-19)
(0.00195083 0.00344948 -5.57217e-19)
(0.00248203 0.000382688 -1.18729e-19)
(0.00249814 1.21711e-05 2.28404e-19)
(0.00218628 0.00017022 -3.42673e-19)
(0.00061941 3.82352e-05 6.83068e-20)
(0.000624003 2.24869e-05 -3.77232e-20)
(0.000630297 4.03509e-05 -1.16781e-19)
(0.000112003 1.62642e-05 -3.1559e-19)
(8.0553e-05 2.44609e-05 -3.3095e-19)
(-0.00692151 0.00341099 -1.84841e-20)
(-0.00623402 0.00363144 2.62827e-19)
(-0.00645866 0.00281518 -2.61906e-19)
(0.0433762 -0.013752 6.99086e-19)
(0.0374243 -0.00586738 7.66059e-19)
(0.0377558 -0.00210632 8.50866e-20)
(-0.000785813 0.0244422 1.76651e-18)
(0.000290752 0.023098 -2.05747e-19)
(0.00111689 0.0247415 -1.15146e-19)
(-0.000926475 -0.00011421 -1.60053e-19)
(-0.000945654 -6.38804e-05 -1.88844e-20)
(-0.000982149 -0.000109203 2.67529e-19)
(-0.000467936 -0.000176481 1.99093e-19)
(-0.000455646 -0.000176536 6.56914e-19)
(-0.000455016 -0.000166138 2.83866e-19)
(0.00028207 -9.10988e-07 7.27851e-20)
(0.000280157 -1.27566e-06 -2.05593e-20)
(0.000204774 -1.33553e-06 -6.58667e-21)
(0.00391468 0.000303914 -1.73419e-19)
(0.0036633 0.000258429 4.11091e-19)
(0.00388384 5.60098e-05 -1.04836e-19)
(0.00482224 -0.00639034 6.61239e-19)
(0.00448712 -0.00662027 -1.43015e-18)
(0.00451238 -0.00617588 -3.53805e-19)
(0.00397245 0.000543462 -2.54522e-19)
(0.00421876 0.000331631 7.02784e-20)
(-0.00763589 0.00307257 -3.27407e-19)
(-0.00731111 0.00408308 1.23614e-18)
(-0.000325192 -0.000139698 1.09056e-19)
(-0.000429204 -0.000100086 -6.39461e-20)
(-0.000394142 -0.000230203 2.74253e-19)
(0.000294175 -2.96379e-05 -2.76773e-20)
(0.000305109 -2.87599e-05 -7.90329e-21)
(0.000313626 -1.86036e-05 -6.09505e-20)
(-0.0058588 0.00453386 -6.06055e-19)
(-0.000478356 -0.00017466 -3.32775e-19)
(-0.000490324 -0.000171904 -2.88147e-19)
(-0.000478012 -0.000163231 -8.82941e-20)
(-0.000263606 0.000211371 1.06516e-20)
(-0.000259671 0.000202522 1.61617e-19)
(-0.000273577 0.000215225 -9.08301e-22)
(-0.000254372 0.000208854 -2.64585e-19)
(-0.0767896 -0.0157984 -8.50758e-19)
(-0.0795932 -0.0162515 -6.19378e-19)
(-0.0755707 -0.0122837 -1.61933e-18)
(0.000696686 0.00029202 2.33935e-19)
(0.000719079 0.000278266 2.64166e-19)
(0.000720002 0.000304129 -1.34236e-19)
(0.000674946 0.000301326 -2.85809e-20)
(0.000675859 0.000278687 9.58128e-20)
(0.0508312 -0.0193939 -2.34911e-18)
(-0.000607035 -0.000615858 2.29378e-19)
(-0.000432597 -0.000615335 -4.55705e-19)
(-0.000511621 -0.000470276 -1.75549e-19)
(-0.000280878 -3.60804e-05 -1.27122e-18)
(-0.000272992 -2.89461e-05 1.19698e-18)
(-0.000263301 -3.03725e-05 -6.77455e-19)
(0.149541 0.000419743 -1.97389e-18)
(0.10658 0.0364462 -1.43616e-18)
(0.121448 0.0205441 1.74803e-18)
(-0.000712777 -0.000794158 3.88637e-19)
(-0.000804994 -0.000575831 3.9468e-19)
(0.0650112 -0.00258745 -6.34727e-19)
(0.0676037 -0.00378172 -2.16904e-18)
(0.0640092 -0.00617411 -7.42566e-19)
(0.000470687 -0.000145188 2.20691e-19)
(0.000464109 -0.000145997 1.77657e-19)
(0.000465909 -0.00014122 1.22497e-19)
(-0.00377192 -0.00198592 -6.18199e-19)
(-0.00443719 -0.00195597 -6.40716e-19)
(0.000212551 -1.88294e-05 -2.86091e-20)
(0.000179489 -1.16691e-05 3.59415e-20)
(0.000189626 -1.06807e-05 8.38123e-20)
(-0.0355774 0.00617739 -6.96344e-19)
(0.00251249 0.00358368 -5.52919e-20)
(0.00255363 0.00325058 1.09862e-20)
(-0.0574972 0.02759 -1.8197e-18)
(-0.0620723 0.0319545 -1.62037e-18)
(-0.051764 0.0368313 -8.69723e-19)
(-0.000479581 -0.000184323 -7.08377e-19)
(-0.0185292 -0.0380793 -4.99253e-18)
(-0.0201151 -0.0366488 5.84803e-18)
(-0.0178325 -0.0356086 -4.33139e-18)
(0.0612939 -0.00109088 8.67739e-19)
(0.0645834 0.0018283 -1.24379e-18)
(0.000744584 0.00213216 -2.59348e-20)
(0.000740301 0.0018202 4.21981e-19)
(0.000409167 0.00195372 -1.87465e-19)
(0.00859803 0.0294374 3.25829e-18)
(0.0105728 0.0303399 -1.5602e-19)
(0.00972679 0.0277042 8.50053e-19)
(-0.000230199 -3.93174e-05 -4.58994e-20)
(-0.000244247 -4.93894e-05 -3.38403e-20)
(-0.000227494 -4.7284e-05 2.43747e-19)
(0.00387347 0.00131496 -7.24571e-19)
(0.00387333 0.00104624 -1.73306e-19)
(0.00413549 0.00123816 3.83093e-19)
(0.00510867 -0.00623197 -5.2735e-19)
(0.00510334 -0.00669362 -1.18286e-18)
(-0.000417063 -0.000224011 1.15762e-19)
(-0.000404201 -0.000226382 -2.77268e-20)
(-0.000404522 -0.000213923 -4.34234e-21)
(0.0112466 0.0379623 2.44097e-19)
(0.0197409 0.0398664 1.47371e-19)
(0.0153905 0.0439871 4.38732e-19)
(0.00036963 0.000130431 1.61386e-19)
(0.000391252 5.92598e-05 3.56538e-19)
(0.000309565 6.91473e-05 1.28144e-19)
(0.000476292 -0.000144905 -3.66969e-20)
(0.000474852 -0.000149083 5.90634e-20)
(0.000606432 0.0184994 -3.04815e-19)
(-0.000586493 0.0195061 4.07539e-19)
(-0.000777405 0.0178929 1.11959e-18)
(-0.00511298 -0.00474768 3.93203e-19)
(-0.00506102 -0.00405586 2.56897e-19)
(-0.00443652 -0.00450065 3.76909e-20)
(0.0188756 -0.0406872 4.79607e-19)
(0.00431424 -0.0549869 5.29208e-19)
(0.0146662 -0.0407705 -6.23413e-18)
(-0.000441417 -0.000218063 4.23701e-20)
(-0.000429311 -0.000221108 1.32051e-19)
(-0.000429001 -0.000208623 -2.77284e-19)
(-0.0263305 0.0295666 -1.79855e-18)
(-0.0529883 0.0382731 -1.63533e-19)
(-0.000453795 -0.000216377 2.06288e-19)
(-0.000454421 -0.000228572 1.6925e-19)
(0.00034688 0.000190422 8.79165e-20)
(0.000412619 0.000201094 7.44687e-21)
(0.0254883 -0.0403234 4.59149e-19)
(0.0247078 -0.0311809 -9.40012e-19)
(0.00392581 0.00161934 3.13056e-20)
(0.00364829 0.00143784 -2.62142e-19)
(0.038688 -0.0161396 -1.76281e-19)
(0.0440214 -0.0185887 -2.12861e-20)
(0.0372778 -0.0209603 -1.6345e-19)
(-0.000429815 -0.000232997 2.25031e-19)
(0.00425695 0.00301818 -4.80772e-20)
(0.00459273 0.00286784 -1.81375e-19)
(0.00457274 0.00323545 -1.89925e-19)
(0.0230269 0.00929645 1.91858e-19)
(0.0244137 0.00876755 -2.78703e-19)
(0.0237484 0.0103378 3.10314e-19)
(-0.000292298 7.02235e-06 -4.71573e-20)
(-0.000279449 1.11302e-05 -2.57921e-20)
(-0.000203169 4.45826e-06 3.37272e-19)
(0.000436432 2.9733e-05 -2.18791e-19)
(0.000450349 2.06865e-05 8.04156e-21)
(0.000438181 1.96711e-05 -2.31474e-19)
(0.0190908 0.0014343 1.18065e-18)
(0.0183155 0.000615153 -6.45881e-19)
(0.0193941 0.00031268 -6.89037e-20)
(0.000294263 0.000358174 7.91748e-20)
(0.00027431 0.000335876 -4.10992e-19)
(0.000299632 0.000331874 -4.7473e-19)
(0.0185706 0.00251795 8.51887e-20)
(0.0198068 0.00231301 -8.2624e-20)
(-0.0137584 -0.00025309 -5.82427e-19)
(-0.0215264 -0.00965364 -8.11795e-19)
(0.0133081 0.0692687 -2.52275e-19)
(0.0101303 0.0666177 -1.72421e-18)
(0.0147425 0.0651616 6.297e-19)
(0.0387956 -0.0115849 -1.29463e-18)
(0.0330343 -0.0147704 5.51608e-19)
(-0.000257125 -0.000616006 -3.95094e-19)
(-0.000316013 -0.000785368 3.75361e-19)
(-0.0716967 0.074765 -7.70807e-20)
(-0.0621881 0.0826847 -1.59969e-18)
(-0.062968 0.0637334 -7.69166e-19)
(-0.00133616 0.00264601 3.24149e-20)
(-0.00168981 0.0028832 4.6642e-19)
(-0.00121162 0.00316745 -4.25444e-20)
(0.000397379 0.000266675 3.0935e-19)
(0.000409064 0.000261207 -9.10854e-20)
(0.000391783 0.000245293 6.85642e-21)
(-0.00100081 0.00241485 4.21534e-19)
(-0.00138531 0.00223276 1.41276e-19)
(0.0297499 -0.0319464 5.51324e-19)
(0.0326295 -0.03241 2.84434e-18)
(0.030879 -0.0293438 -3.92327e-19)
(0.00100588 0.000358029 -1.50589e-19)
(0.00107256 0.000336516 5.54951e-19)
(0.0010513 0.000414481 2.58077e-19)
(0.0215768 0.00942567 2.97917e-20)
(0.0222992 0.00792436 -2.07063e-19)
(0.000319268 0.000240256 1.10262e-19)
(0.000282481 0.000189774 1.96879e-19)
(-0.000101074 -0.00056847 -9.18131e-20)
(-0.000215416 -0.000471157 9.18493e-20)
(0.000416573 -3.92657e-05 -4.05177e-21)
(0.000413932 -4.25865e-05 3.51212e-21)
(0.000411977 -3.56391e-05 3.42803e-21)
(0.0039534 0.00186961 1.0958e-19)
(0.00396668 0.00216161 -1.9213e-20)
(0.00369754 0.00199358 -3.89122e-19)
(-0.000633166 -4.2423e-05 1.82461e-19)
(-0.000616103 -2.33757e-05 6.24766e-19)
(0.00748817 0.0314727 6.41321e-19)
(0.00652241 0.0289005 1.15478e-18)
(-0.072202 0.0503864 -3.72425e-20)
(-0.0786193 0.0802236 -1.11648e-18)
(0.0122083 -0.00413666 2.63071e-19)
(0.0129156 -0.00395554 3.97345e-19)
(0.0125947 -0.00480171 2.07701e-19)
(-0.000572997 -0.000126321 -2.59638e-19)
(-0.000580047 -0.000144695 1.00076e-21)
(-0.000560705 -0.000136146 6.55483e-20)
(0.000226226 -2.79502e-05 -2.92839e-20)
(0.000238 -2.47818e-05 -9.33929e-20)
(-0.000139735 -1.82122e-05 -4.5227e-20)
(-9.7448e-05 -8.06091e-06 8.50652e-20)
(-0.000148639 -1.66042e-05 -1.27091e-21)
(-0.00541259 0.0117304 2.99302e-19)
(-0.00502185 0.0128466 3.07338e-19)
(-0.00444146 0.0115322 -3.84731e-20)
(0.00392226 0.00313589 -1.67792e-19)
(0.00395553 0.00279619 3.43783e-19)
(-0.131443 -0.0432464 -7.8584e-20)
(-0.124126 -0.0488969 -6.35104e-19)
(-0.12146 -0.0390191 -4.21908e-18)
(0.000777132 0.00865759 -3.93722e-19)
(0.00124151 0.00818952 4.17721e-19)
(0.000593646 0.00803261 3.97962e-19)
(0.000302181 0.000283582 -9.66377e-20)
(0.000352359 0.000296998 -2.11917e-19)
(0.0330475 -0.039278 -1.26574e-19)
(0.0168047 -0.0571339 -8.94787e-19)
(0.00218435 0.00167822 -2.71885e-19)
(0.00213524 0.0018774 -1.72674e-19)
(0.00197784 0.0017209 -2.68608e-19)
(0.00373458 0.000868709 -3.00806e-19)
(0.00398966 0.000780734 -1.71744e-19)
(0.00237676 0.0369809 1.58263e-19)
(0.00437 0.0368384 1.05094e-18)
(-0.00535465 -0.124466 4.14006e-18)
(-0.0258635 -0.136995 -3.50839e-18)
(0.0118651 0.0268005 -3.4674e-19)
(0.022491 0.00172691 5.82362e-19)
(0.0234774 0.00259544 -1.53171e-19)
(0.0239272 0.00101681 -2.6144e-19)
(0.0387611 -0.0333521 8.04977e-19)
(0.0348269 -0.0283239 -5.41594e-19)
(-0.0782159 -0.0208439 -9.05066e-19)
(-0.0717406 -0.0158229 -1.78073e-18)
(-0.0795018 -0.0214724 3.6973e-19)
(0.00280148 0.000611922 7.28468e-19)
(0.000550544 2.5461e-05 1.08711e-21)
(0.000553057 1.94942e-05 -7.09127e-21)
(0.0744904 0.0449026 6.16867e-19)
(0.074834 0.0406839 -1.80035e-19)
(0.000932852 -7.67078e-08 -2.53611e-19)
(0.000965657 2.2992e-05 -3.40922e-19)
(0.000922358 5.04443e-05 -6.85342e-19)
(0.000384638 0.000270523 5.44617e-19)
(0.000403698 0.000289147 -7.36267e-20)
(0.1777 -0.0211515 1.03922e-19)
(0.167305 -0.0110546 -8.05472e-19)
(0.000525473 -0.000242329 1.51271e-20)
(0.000530713 -0.000241026 1.4582e-20)
(0.000523718 -0.000230392 -3.48573e-21)
(0.0109006 -0.0418518 4.15492e-18)
(0.00936925 -0.0437255 1.43272e-18)
(0.0122383 -0.0435815 7.73888e-19)
(0.0366792 0.0260145 7.09084e-20)
(0.0363106 0.0241164 -1.20682e-19)
(0.0385851 0.0249746 2.98053e-19)
(0.000214617 0.000313331 -1.42699e-19)
(0.000223987 0.000336106 -1.03309e-19)
(0.000196518 0.000335942 1.60131e-19)
(0.0720876 -0.0658875 4.5126e-18)
(0.0648597 -0.0647245 -4.77282e-18)
(-0.00777505 0.0481593 1.0769e-18)
(0.000820635 0.0478419 -1.00106e-20)
(-0.00929202 0.058121 -7.19052e-19)
(0.00048421 -3.62623e-05 8.44765e-21)
(0.000477133 -3.93149e-05 -2.91365e-21)
(0.000485331 -4.52909e-05 6.29194e-21)
(0.0171938 0.0716635 9.9675e-19)
(0.0125908 0.0729806 6.04531e-20)
(0.00509473 -0.00310756 1.4074e-18)
(0.00483512 -0.00319104 1.41756e-18)
(0.00510904 -0.00340817 1.92141e-18)
(0.0122003 -0.0157833 1.1993e-18)
(0.0131348 -0.0131362 1.15384e-18)
(0.0152668 -0.0156853 3.26597e-19)
(0.000632382 0.000401869 -3.41026e-20)
(0.000614411 0.00037949 1.09053e-20)
(0.000607949 0.000400346 3.40268e-19)
(0.070042 0.0565129 -1.4261e-18)
(0.0964241 0.0412207 -1.23838e-18)
(0.0346383 0.0272701 -8.95474e-20)
(0.0370981 0.028226 1.32915e-19)
(0.000330863 -3.17239e-05 -3.65049e-20)
(0.000325542 -3.83177e-05 -1.13886e-20)
(0.000334923 -3.62821e-05 -1.0945e-20)
(-0.0826343 0.0319851 -5.90259e-19)
(-0.0917718 0.0301699 9.31416e-19)
(-0.0908932 0.0227582 1.82556e-18)
(0.000158672 -7.4032e-05 7.52911e-21)
(0.000192805 -4.24728e-05 2.19926e-20)
(0.000199369 -9.22832e-05 -6.24255e-21)
(-0.0064988 0.0120544 1.86167e-19)
(-0.00586362 0.0106801 -2.4456e-19)
(-0.0287857 0.022855 -6.48032e-19)
(-0.0290647 0.0245104 2.68578e-19)
(-0.027383 0.0247777 5.13056e-20)
(0.000610237 3.6037e-05 6.66135e-20)
(0.000613817 5.32275e-05 1.50209e-19)
(0.00367485 0.000654234 -9.40251e-20)
(0.00352002 0.000897559 -1.40766e-19)
(0.000793769 -0.000633943 -5.59531e-19)
(0.000477691 -0.000636503 -1.33205e-19)
(0.000595708 -0.000368481 -8.74993e-20)
(0.00933166 -0.00258293 5.13591e-19)
(0.00920778 -0.00393096 -1.63025e-19)
(0.00810283 -0.00314505 -1.70635e-19)
(-0.000503804 -0.000179982 -4.31707e-19)
(-0.000502471 -0.000168895 -1.32562e-19)
(-0.000139597 4.97274e-05 2.78406e-20)
(-0.000144556 5.4039e-05 2.00793e-19)
(-0.000135865 5.58595e-05 -2.78806e-19)
(0.000547039 3.18638e-05 -1.45085e-19)
(0.000546686 2.27951e-05 8.73135e-21)
(-0.000304956 8.75664e-06 -5.94715e-19)
(-0.000329129 2.19126e-05 -2.25356e-19)
(0.000650863 0.000398661 -1.14044e-19)
(0.00065263 0.000420501 3.98556e-20)
(-0.000132923 4.37151e-05 4.49272e-20)
(-0.00014224 4.2692e-05 1.68599e-19)
(-0.00459676 -0.000456926 -2.18556e-19)
(-0.00491836 -0.000873861 -1.56734e-19)
(-0.0051495 -0.000336608 2.4291e-19)
(0.000527073 -0.000256177 3.13864e-21)
(0.000519813 -0.000243111 -1.49003e-21)
(-0.000585543 -0.000118816 -7.38554e-20)
(-0.000568212 -0.000111562 -7.05065e-20)
(0.0113459 -0.00744673 1.27759e-19)
(0.0105813 -0.00928573 -1.95187e-19)
(0.0095363 -0.00777939 -3.92656e-19)
(-0.00579696 -0.00239349 1.43756e-19)
(-0.00608586 -0.00302765 -4.30982e-19)
(-0.00658173 -0.00239852 2.78708e-19)
(0.0342293 0.00685144 2.40129e-19)
(0.0392735 0.00624371 7.24692e-19)
(0.0365719 0.00120322 5.58937e-19)
(-0.0750261 0.0337978 4.05829e-18)
(-0.075527 0.0413798 -6.28883e-19)
(0.0670524 0.052165 -2.17662e-19)
(0.0663664 0.0558349 -8.38456e-21)
(0.0635961 0.0532456 -1.38187e-19)
(0.0242934 0.173481 4.14674e-18)
(0.0518163 0.158494 1.38745e-18)
(0.0139374 0.191593 1.17941e-18)
(0.00543492 -0.00302437 2.24708e-18)
(0.00513889 -0.00280104 -1.3461e-20)
(-2.14631e-05 -2.16982e-05 -6.23458e-20)
(-3.47019e-05 -2.23253e-05 -2.92118e-19)
(-9.81823e-06 -8.95076e-06 -1.6922e-19)
(0.00902846 -0.039757 1.30024e-18)
(0.0120874 -0.0394317 1.78282e-18)
(-0.000336579 1.30304e-06 -6.01559e-20)
(-0.000338456 3.26805e-06 9.8601e-20)
(-0.000235276 1.51187e-06 -1.40532e-19)
(0.0560947 -0.0183442 -9.70966e-19)
(0.0506909 -0.0119688 -1.29906e-18)
(0.000240268 -7.92333e-06 -1.36513e-19)
(0.000244594 -6.89219e-06 3.34751e-20)
(0.000181621 -2.83175e-06 -1.55149e-19)
(0.000329768 -2.45194e-05 -3.68794e-20)
(0.000340538 -2.29394e-05 -1.476e-20)
(-0.00012609 -1.78901e-05 1.5022e-19)
(-0.000156764 -2.694e-05 -6.03609e-20)
(0.000390119 -7.14971e-05 -2.04548e-21)
(0.000392926 -8.48773e-05 -5.1556e-21)
(0.000384155 -7.55967e-05 1.05829e-20)
(0.0013078 -0.00232546 1.46395e-18)
(0.00127248 -0.00244072 8.7164e-19)
(0.00139517 -0.00238135 -2.8373e-18)
(0.00691946 0.0068806 -7.97096e-21)
(0.00711239 0.00623962 -1.1359e-19)
(0.00759069 0.00700644 7.59291e-21)
(-0.000233717 1.56308e-05 -9.63099e-21)
(-0.000242835 1.48541e-05 2.79814e-19)
(-0.000164833 8.2187e-06 3.71532e-19)
(0.0296976 0.00660932 1.95145e-19)
(0.0312719 0.0120338 1.31218e-19)
(0.0011505 0.000146987 2.87852e-20)
(0.00109432 0.000181379 3.84352e-19)
(0.00109616 0.000107344 4.86495e-20)
(0.000667459 1.81208e-05 4.43567e-19)
(0.000672322 2.70043e-06 1.09675e-19)
(0.000659372 1.89778e-06 3.31765e-19)
(0.0246502 -0.000362453 -5.91151e-19)
(0.020561 0.000270456 -7.8456e-20)
(0.0216881 -0.00248517 -2.01507e-19)
(5.68036e-05 -0.000521645 1.094e-19)
(4.61607e-05 -0.000676855 2.52212e-20)
(-0.000137618 1.63872e-05 2.95699e-19)
(-0.000131746 1.66259e-05 1.00248e-20)
(-0.000158653 2.03695e-05 -8.46117e-20)
(0.0180117 0.00355085 -1.32345e-18)
(0.0185203 0.00454877 -3.0018e-19)
(0.0173166 0.00454581 -1.26722e-19)
(0.000320831 -0.000162494 1.00699e-19)
(0.000310219 -0.00016155 -3.20168e-19)
(0.000319437 -0.000151509 -8.48778e-20)
(0.00286037 -0.000129251 3.18354e-19)
(0.00250962 -0.000321896 9.87409e-19)
(-0.0775397 -0.0185538 2.27283e-18)
(-0.081351 -0.0226726 -2.52405e-19)
(0.0273481 -0.0318195 -4.60603e-19)
(0.0289507 -0.0348512 -1.19045e-18)
(-0.000262912 0.000240449 -6.66031e-19)
(-0.000257176 0.000229505 -1.87876e-19)
(-0.000246439 0.000230146 -7.61313e-19)
(-0.000488457 -0.000377045 -1.10442e-19)
(-0.000499424 -0.000358533 8.37314e-20)
(-0.000516617 -0.000375931 4.00265e-21)
(0.000231575 -7.8779e-05 2.23669e-20)
(0.000224946 -6.6162e-05 1.16679e-20)
(0.000216871 -7.9772e-05 -3.59619e-20)
(-0.14621 -0.0489253 -6.82257e-19)
(-0.142724 -0.0607892 -4.12688e-18)
(-0.15536 -0.0579715 2.63315e-18)
(-0.000293424 -4.38331e-05 -1.80225e-19)
(-0.000282176 -4.38588e-05 -3.16889e-19)
(0.0762467 0.056579 2.04932e-19)
(0.0734208 0.053827 3.46175e-19)
(0.072596 0.0579483 2.49172e-19)
(-0.000266722 0.000230305 3.88592e-19)
(-0.000283545 0.000242533 -1.2238e-19)
(0.0451405 0.011393 7.15931e-19)
(0.0407025 0.00676683 -3.14301e-19)
(0.000199774 -0.00042719 3.46892e-19)
(5.41971e-05 -0.00038538 1.21927e-19)
(-0.00139542 -0.00385707 6.49148e-20)
(-0.00176078 -0.00371896 4.28245e-20)
(-0.00146863 -0.00344788 1.33167e-19)
(-0.00840787 0.00271298 -3.7466e-19)
(-0.00782722 0.00215929 8.18873e-19)
(-0.000203856 1.79702e-05 2.36923e-19)
(-0.000208401 1.9304e-05 -3.28579e-19)
(-0.000240923 2.52598e-05 -7.21613e-20)
(0.0669952 0.0482938 -2.0492e-19)
(0.0704764 0.0509696 2.2573e-19)
(0.000862006 -0.000143901 5.2452e-19)
(0.000851948 -0.000179627 2.70203e-19)
(0.000886678 -0.000180126 1.67334e-19)
(0.00450303 0.176678 -8.14055e-19)
(0.0395671 0.148672 2.586e-19)
(0.000672045 3.79392e-05 -1.74633e-19)
(0.000660757 3.41541e-05 -7.94393e-20)
(-0.000883463 -0.00020275 -3.39229e-20)
(-0.000841929 -0.000196944 -1.44033e-19)
(-0.000857374 -0.000242046 3.73763e-20)
(-0.000186998 -0.00105931 7.8724e-20)
(-0.000428603 -0.000924395 -8.79577e-20)
(-0.000190161 -0.000786415 2.92326e-19)
(0.000480386 0.000126616 -1.02645e-20)
(0.000488921 8.93039e-05 -1.91041e-20)
(0.000453194 9.33991e-05 1.42903e-19)
(0.013273 0.0185585 -5.4628e-19)
(0.0146674 0.0190967 -4.44142e-19)
(0.0139829 0.0174132 -5.51377e-19)
(0.002311 -4.28941e-06 2.73271e-20)
(0.00274631 0.000412154 -7.97985e-19)
(0.00280213 -0.000296771 1.72509e-19)
(0.00188539 -0.000251408 -8.54836e-19)
(0.00182291 0.000257437 -6.41329e-20)
(0.000114877 -4.22592e-05 1.66305e-20)
(0.000120944 -0.000109342 -3.35413e-21)
(0.0593015 -0.014524 1.33156e-19)
(0.057588 -0.0193198 -5.94129e-19)
(0.0065765 0.00763598 1.69795e-19)
(0.0063433 0.00679748 6.24539e-20)
(0.00269045 -0.00511169 -8.36946e-19)
(0.00267138 -0.00486979 -3.03865e-18)
(0.00289145 -0.00495811 -3.7135e-21)
(0.000866891 -0.000105752 1.40554e-19)
(0.000868776 -6.59332e-05 -8.54446e-20)
(0.000901853 -0.000100405 -5.02194e-19)
(0.000722514 0.000363615 7.03266e-20)
(0.00072388 0.000391385 -1.03361e-19)
(0.000751533 0.000376368 2.71356e-19)
(0.0114406 -0.00436532 -9.28829e-19)
(0.0117129 -0.00360489 5.17541e-19)
(-0.000370932 -0.000517118 -6.04188e-22)
(-0.000341017 -0.00053692 -5.0061e-20)
(-0.000340588 -0.000497219 -8.67814e-20)
(0.0175835 -0.0011315 -6.26692e-19)
(0.0174616 -7.01188e-05 -4.91863e-19)
(0.0165693 -0.000736766 1.20106e-18)
(-0.00740721 -0.00692506 -1.60659e-19)
(-0.00683661 -0.00861441 -2.66142e-19)
(-0.00569568 -0.00719673 -6.42261e-19)
(-0.0105234 0.0170941 -1.30917e-18)
(-0.0105552 0.0193778 -1.81407e-18)
(-0.012734 0.0172294 -1.0364e-18)
(0.00235611 0.0058356 -1.73784e-19)
(0.00252745 0.00511736 2.59521e-19)
(0.00317529 0.00589152 -6.51041e-19)
(-0.000398987 -0.000495331 2.36489e-19)
(-0.000422018 -0.000470121 -5.62174e-20)
(-0.000392477 -0.00045773 2.77217e-19)
(-0.014188 0.0463921 -4.51571e-19)
(-0.00960829 0.0409608 5.07728e-19)
(0.0600956 0.0334119 -2.32568e-18)
(0.0604061 0.0367919 -1.33907e-19)
(0.0571168 0.0359221 1.85587e-20)
(0.00386288 0.0148734 5.45972e-19)
(0.00312399 0.0157603 -6.1617e-19)
(0.00272377 0.0145892 -5.29371e-19)
(0.00118914 0.00231816 -6.20086e-20)
(0.000981085 0.0020798 -5.96559e-20)
(0.000891575 0.0023158 3.30308e-20)
(0.00420894 0.00176315 4.8255e-19)
(0.0427628 -0.00585586 -1.9892e-19)
(0.0399355 0.00126298 4.45057e-20)
(0.0452402 0.00139167 3.00934e-20)
(-0.000406094 -0.000532991 2.15722e-19)
(0.0117765 -0.0057572 -1.17217e-19)
(0.0133931 -0.00700327 3.45291e-19)
(-0.0101214 0.0149581 9.6285e-19)
(-0.00842392 0.016645 9.16235e-19)
(0.00105871 -0.00144295 -1.99929e-18)
(0.000978763 -0.00143711 -1.34748e-18)
(0.00103098 -0.00137359 -5.42576e-19)
(-0.0684074 -0.01315 2.05187e-18)
(0.000495927 -0.00475177 -2.54775e-18)
(0.000326255 -0.00486837 -9.57477e-19)
(0.000354606 -0.00463223 -2.12841e-19)
(0.00150774 -0.000444406 2.3222e-19)
(0.00182805 -0.00080192 9.8172e-20)
(-0.000296508 0.000261587 2.81242e-19)
(-0.000279035 0.000250238 2.25566e-19)
(-0.000290686 0.000252999 1.86282e-19)
(0.00131759 -0.00222584 8.21108e-19)
(0.00119977 -0.00227558 -6.89556e-19)
(0.00111468 -0.000549413 8.80447e-19)
(0.00117062 -0.00016401 8.70214e-19)
(0.00444507 0.0140559 5.54096e-19)
(0.00498564 0.0130853 -5.78407e-19)
(0.00395129 0.0129012 -7.59988e-19)
(0.000832171 -0.000109414 -1.74131e-19)
(0.00045778 -0.000147469 5.11827e-20)
(0.000451288 -0.000149135 -2.70046e-20)
(0.000453462 -0.000141946 -8.23914e-20)
(0.000672115 0.00021184 -8.76519e-20)
(0.000673966 0.000233381 -1.47441e-19)
(0.000655715 0.000223902 -2.08909e-19)
(0.0120022 0.0179547 4.97988e-19)
(0.0124736 0.0198875 8.13893e-19)
(0.0162229 0.0192063 -1.07623e-18)
(0.0173948 0.019316 -5.94469e-19)
(0.0164957 0.0179881 -1.14205e-19)
(0.000575146 5.91046e-05 7.54526e-20)
(0.000641471 -2.676e-05 3.92484e-20)
(0.000698028 0.000105839 3.30173e-19)
(0.000746513 0.0025236 -7.32126e-20)
(0.00115125 0.00236524 3.32778e-19)
(0.0156046 0.0207658 4.7158e-19)
(-0.0278336 -0.0817155 2.89717e-18)
(-0.0327664 -0.0841876 -5.15363e-19)
(-0.031302 -0.0787518 5.04656e-18)
(-0.0090067 -0.00639905 -2.02529e-19)
(-0.00737151 -0.0053398 1.31452e-19)
(0.000395977 -6.87644e-05 6.28192e-21)
(0.00038881 -5.93828e-05 1.18756e-20)
(-0.00357871 -0.0144292 -1.47908e-19)
(-0.0014214 -0.0165583 3.53636e-19)
(-0.00147865 -0.0133567 3.56853e-19)
(0.000655026 -0.00490358 -2.74285e-18)
(0.000656837 -0.00465755 6.28412e-19)
(0.000391302 -3.06497e-05 4.46497e-19)
(0.000404624 -2.48274e-05 -6.29914e-20)
(0.000402173 -2.6563e-05 -1.46748e-20)
(0.00151191 0.00575679 1.19368e-19)
(0.00192882 0.00664027 -1.16196e-19)
(0.000305337 0.000191063 -1.25531e-19)
(0.000315599 0.000199741 3.35348e-20)
(0.000315435 0.000186152 -2.72685e-19)
(-0.0276228 0.0207905 -7.22614e-19)
(-0.0299398 0.0197927 -4.01371e-19)
(-0.0197519 0.0110395 1.18013e-18)
(-0.022358 0.0091729 2.91846e-19)
(-0.021419 0.0133828 3.11984e-19)
(0.0252433 -0.0306657 -2.15392e-18)
(0.0231184 -0.0299036 -5.80346e-19)
(0.0255831 -0.028648 -1.6692e-20)
(-0.000474657 -0.00848156 1.6513e-18)
(-0.000498466 -0.00876238 1.30311e-18)
(-0.000849249 -0.00857171 -1.78526e-18)
(-0.00891798 0.0033321 1.43617e-19)
(-0.00917736 0.00222302 -1.36623e-19)
(0.00493336 0.0141952 -1.59081e-19)
(0.00609561 0.0139555 -2.15177e-19)
(0.0051833 0.0129791 8.14611e-20)
(0.0067482 -0.0150344 6.86138e-19)
(0.0093638 -0.0156482 1.86248e-19)
(0.00814137 -0.012945 5.37622e-19)
(0.0350333 -0.0328962 1.67777e-18)
(0.0363478 -0.0304551 -7.9441e-19)
(0.0383602 -0.033419 -1.28411e-18)
(0.000296416 0.000184553 4.1557e-19)
(0.000295073 0.000196774 -2.06611e-19)
(0.000462849 -0.000152367 -7.5576e-21)
(0.0024518 -0.00111426 -6.28874e-19)
(0.0028714 -0.000932122 -2.25757e-19)
(0.00249055 -0.000713651 2.32062e-20)
(-0.000571243 -0.000167651 -8.51425e-20)
(-0.000584685 -0.000159205 -2.50849e-19)
(-0.000588935 -0.000175194 2.20341e-20)
(-0.00100614 -0.00397054 -1.50219e-20)
(-0.00125769 -0.00428491 1.13727e-19)
(0.00272738 -0.00536171 -1.63417e-18)
(0.00246651 -0.00523526 -8.95168e-19)
(0.000584322 0.000100592 -2.57624e-20)
(0.000592433 8.93877e-05 -1.0567e-19)
(0.000584149 8.44238e-05 -6.75119e-20)
(0.000581766 0.000121857 1.86538e-21)
(0.000609529 0.0001038 -2.23498e-19)
(0.000610414 0.000141987 5.2469e-20)
(-0.00217689 -0.0139895 2.20697e-19)
(-0.0030434 -0.012949 -3.77011e-19)
(-0.00140791 -0.0130021 4.15405e-19)
(0.000204743 0.000294015 1.0693e-19)
(0.000227774 0.000293906 1.24658e-20)
(0.0388546 0.00995524 1.27562e-19)
(0.0409106 0.00949119 2.11319e-19)
(0.0400928 0.0117637 1.3367e-19)
(-0.00293622 0.138678 -1.99109e-18)
(-0.0323429 0.184923 9.49054e-19)
(-0.00363148 -0.0118482 7.37335e-20)
(-0.00410403 -0.0107922 7.56032e-20)
(-0.00272959 -0.0110626 8.14061e-20)
(0.000510599 0.000156055 -1.34738e-19)
(0.000467991 0.00016905 -1.11402e-19)
(-0.000261306 0.00966942 3.24743e-19)
(0.000314045 0.0091137 -5.72255e-19)
(-0.000509666 0.00899971 -6.51326e-20)
(-0.000555262 -0.000159826 9.25648e-20)
(-0.000558337 -0.000174364 -1.39189e-19)
(0.0185323 -0.00158043 -1.04245e-18)
(0.0195531 -0.00212337 6.05877e-19)
(0.0196519 -0.000842104 -2.07913e-19)
(0.00079271 -0.000251346 2.34458e-19)
(0.000777748 -0.000221654 4.71254e-19)
(0.000764718 -0.000252234 2.95794e-19)
(0.00661531 0.00828947 8.27008e-20)
(0.0067555 0.00897968 1.56561e-19)
(0.00752458 0.00846376 1.01319e-19)
(0.000285296 -3.93232e-05 6.07264e-21)
(0.000283182 -2.83334e-05 -3.64927e-20)
(0.0059302 0.00814109 7.3756e-20)
(-0.0207569 0.0155599 4.70786e-19)
(-0.0226738 0.0168074 -2.78896e-19)
(-0.000908537 -0.000156945 5.68504e-20)
(-0.000881411 -0.000114402 1.89396e-19)
(0.00478069 -0.0203534 4.40298e-19)
(0.00400495 -0.0196783 -1.46587e-19)
(0.0038813 -0.0210793 -4.74748e-18)
(0.00229466 0.00111527 2.78693e-19)
(0.00244108 0.00126035 -6.27197e-19)
(0.00224111 0.00130144 -7.51944e-19)
(-0.00123576 0.00547226 -5.06664e-19)
(-0.0018986 0.00583737 3.11858e-19)
(-0.00115585 0.00638645 -2.61431e-19)
(0.00499064 -0.0171255 -8.13727e-19)
(0.00467669 -0.0145112 5.62398e-19)
(0.000142184 4.99485e-05 2.63794e-19)
(0.000128164 4.63783e-05 4.13077e-19)
(-0.000476327 -0.000399453 -3.96929e-19)
(-0.000464308 -0.000375461 -5.78529e-20)
(0.037451 0.00835701 5.83589e-19)
(0.03683 0.0104227 2.28247e-19)
(0.000546666 0.000141887 -1.7473e-20)
(0.000552027 0.000102156 6.49434e-21)
(0.0111187 -0.0183578 -5.40851e-19)
(0.00415356 -0.00680688 6.25133e-19)
(0.00384286 -0.00658977 1.21745e-19)
(0.0037872 -0.00701105 -8.32436e-19)
(-0.12868 -0.19825 -8.68934e-19)
(0.0193916 -0.00563697 8.89403e-19)
(0.0205963 -0.005009 -7.35693e-20)
(0.0194327 -0.00443495 -9.25612e-19)
(0.0244843 -0.0329732 -3.77808e-18)
(-0.00295679 -0.00310024 1.73057e-19)
(-0.00293149 -0.00363341 1.19384e-19)
(-0.00254182 -0.00331395 -2.39338e-19)
(-0.00115792 -0.0150803 2.0634e-19)
(-0.00306387 -0.0151488 3.91839e-19)
(-0.000691733 -0.000273354 -1.13593e-19)
(-0.000566533 -0.000193208 4.03444e-19)
(-0.000567637 -0.000330994 -1.19118e-20)
(0.000522817 -0.00398961 -4.22545e-19)
(0.000689581 -0.00396879 -2.13251e-18)
(0.000579427 -0.00383678 1.44715e-18)
(-0.000539651 -0.00809398 -7.07347e-19)
(-0.000153067 -0.00827674 1.10061e-18)
(0.00558328 -0.021251 1.2404e-18)
(0.00561746 -0.0198309 -9.89203e-19)