/*--------------------------------*- C++ -*----------------------------------*\
| =========                 |                                                 |
| \\      /  F ield         | OpenFOAM: The Open Source CFD Toolbox           |
|  \\    /   O peration     | Version:  v2012                                 |
|   \\  /    A nd           | Website:  www.openfoam.com                      |
|    \\/     M anipulation  |                                                 |
\*---------------------------------------------------------------------------*/
FoamFile
{
    version     2.0;
    format      ascii;
    class       volScalarField;
    location    "550";
    object      ddt0(k);
}
// * * * * * * * * * * * * * * * * * * * * * * * * * * * * * * * * * * * * * //

dimensions      [0 2 -3 0 0 0 0];


internalField   nonuniform List<scalar> 
18355
(
-1.44048e-05
2.09751e-08
-2.3535e-05
9.00964e-09
5.44763e-06
0.000591054
2.42148e-07
3.36253e-06
1.19679e-07
0.000671586
1.27301e-06
6.73495e-06
7.29208e-06
-0.000110979
3.14828e-08
-1.43312e-08
9.82776e-09
-1.16721e-07
-8.28657e-06
-3.78063e-07
-7.92542e-05
1.67259e-07
-3.04152e-09
0.000262653
-3.98331e-09
4.51257e-07
3.52642e-07
9.88251e-10
1.44066e-07
1.48198e-06
-9.98556e-05
4.04216e-07
-1.34109e-09
1.82634e-08
4.24398e-08
3.98438e-07
-3.65537e-07
4.13461e-07
1.52729e-06
-1.58713e-07
-1.60159e-08
1.37927e-06
2.36067e-08
2.31734e-08
1.95908e-08
-8.11269e-06
3.17299e-08
3.14274e-08
-0.0052057
1.62799e-07
-6.51858e-08
-0.0174688
1.83296e-07
-8.74404e-06
2.39112e-08
-1.61738e-07
-5.87452e-08
0.000896092
6.43339e-07
-0.0223187
2.05639e-08
-4.29148e-06
-8.36703e-06
-1.87668e-07
-1.53671e-06
-7.46836e-08
3.35014e-07
-3.41726e-07
-7.60417e-09
0.00182307
1.33586e-07
2.32183e-08
1.3944e-06
-9.80234e-07
-0.00169664
2.43214e-09
0.00148597
4.67683e-09
1.22997e-07
-0.00187516
3.52826e-07
-0.000436741
-4.39248e-09
4.96665e-07
-1.13815e-06
1.82071e-08
-1.2763e-09
-7.84089e-07
-4.04615e-08
-7.01865e-07
-0.0121776
-6.85608e-05
-0.000271947
2.37427e-07
0.00956893
-2.20705e-07
-1.27093e-08
-2.56572e-07
-5.65399e-06
1.7146e-07
-8.34849e-07
1.19964e-07
2.33605e-07
1.46172e-08
3.95623e-07
-1.94336e-08
-1.448e-06
0.00967847
-5.43506e-07
1.63899e-08
-5.50944e-08
-1.36864e-07
1.76836e-06
5.09325e-07
-0.00215018
1.13779e-06
1.17561e-07
-0.00104558
3.34894e-07
3.11384e-07
0.00523726
-3.3717e-05
-0.0116942
-1.18333e-06
-0.000876458
-9.71937e-05
3.02941e-07
9.48909e-09
-2.07883e-05
1.11709e-07
-1.61335e-08
-0.0335683
-9.20702e-09
-5.91568e-06
-5.23246e-06
-5.04303e-08
-8.26788e-06
0.00681345
-1.27339e-08
-8.73657e-05
-3.80905e-09
8.96856e-05
2.57534e-08
0.000523625
-3.24879e-06
2.78559e-09
-0.0192443
5.57767e-08
1.84619e-06
0.000224694
3.9006e-09
3.07408e-07
7.09026e-07
-6.21715e-06
2.44899e-08
5.3518e-09
9.92332e-09
2.3516e-09
2.78474e-08
5.827e-09
5.39364e-07
-1.36196e-08
1.1428e-08
1.53344e-05
8.2539e-08
0.000465032
-0.0196824
-2.01217e-05
0.0141902
1.29666e-08
-1.12474e-07
-5.42424e-06
-3.93866e-08
-0.00534998
-7.63056e-08
-7.47538e-09
-1.32554e-07
2.35681e-08
1.06927e-08
6.66234e-07
6.19013e-08
0.00049349
1.4891e-07
-5.86338e-09
0.000211893
2.82041e-07
6.08634e-08
-4.93714e-07
-3.08139e-09
5.9967e-07
1.13182e-05
-5.49558e-06
5.66991e-09
-5.64689e-08
-1.01747e-08
-0.00443087
-4.914e-08
-6.33392e-06
1.9311e-08
-1.78398e-05
2.85442e-07
-1.1914e-06
1.75648e-06
6.97551e-08
-2.10276e-05
6.24073e-08
0.0128712
-4.22878e-09
2.12649e-08
3.73074e-07
2.72208e-08
-0.0010786
7.37609e-07
-3.50015e-08
6.46089e-08
-0.00442035
7.071e-07
-1.70115e-07
8.00562e-08
3.72213e-08
-4.59498e-07
-5.90854e-08
-6.82951e-07
-6.93184e-06
-9.22905e-06
1.86806e-07
-6.26003e-08
0.00546665
-1.26545e-05
1.05725e-06
-4.48438e-07
3.81572e-07
0.00144515
-6.30444e-08
2.15975e-05
-2.0623e-05
3.22413e-08
-3.79923e-05
-1.97216e-07
2.71331e-08
1.96857e-08
2.21228e-08
4.68974e-07
9.98564e-07
6.38138e-08
2.10808e-08
2.36218e-08
-0.00167254
-0.00120239
1.47816e-07
5.23905e-08
-0.00100454
-4.93279e-07
-1.69019e-05
2.15268e-08
2.47616e-06
-1.83306e-07
-7.08155e-09
3.30361e-08
-2.50218e-08
0.000178328
-3.41939e-05
-4.91339e-06
-6.24093e-07
1.85389e-06
1.91219e-05
1.41103e-05
-6.17511e-06
-2.46115e-08
2.23722e-08
6.37307e-07
2.61741e-08
-1.28299e-06
-1.9024e-07
1.15511e-08
5.89991e-08
-1.83525e-06
-4.74615e-08
-3.4937e-06
-0.00666989
-2.03082e-06
2.99076e-08
1.24572e-06
2.78975e-08
-1.00691e-06
2.12539e-08
7.77047e-07
-1.01836e-08
6.60625e-07
-0.00123718
6.67941e-09
-2.35354e-06
2.96186e-07
-1.11972e-06
-4.86024e-06
5.06799e-08
-5.50782e-08
-3.22911e-06
4.70188e-08
4.64378e-05
-3.99202e-07
0.00638018
-1.25424e-06
-5.15106e-06
-9.09776e-07
-2.1871e-06
1.01266e-07
-1.28762e-07
-5.68267e-07
-2.3643e-06
0.000754908
0.00945799
3.9149e-08
3.24043e-07
-5.77746e-06
1.30786e-06
3.81095e-08
3.01914e-08
1.40491e-08
-1.68131e-06
0.00708303
0.0192434
0.000850614
-1.44841e-06
-1.37444e-08
-0.000299473
4.41375e-08
4.53371e-08
-4.57832e-09
2.68804e-08
1.05977e-06
4.82192e-08
-0.000241458
-2.02386e-08
-9.42842e-05
1.02803e-08
-1.25594e-07
-1.31684e-06
6.85949e-06
-3.08616e-05
9.94394e-07
0.000597547
1.69756e-07
-4.15725e-08
2.70053e-08
-1.24457e-06
0.000733941
-3.63103e-08
-1.2534e-08
0.000500638
1.56497e-07
-5.22206e-08
3.88484e-06
-1.41307e-06
1.87497e-08
-2.7004e-07
7.64884e-07
-3.80502e-09
8.33635e-07
-3.65753e-08
-8.37716e-09
1.61166e-07
-0.0250821
6.13907e-05
-3.41199e-08
2.15525e-08
5.15759e-06
1.24425e-08
-5.7141e-08
-0.000492523
4.46746e-05
-1.73812e-06
3.06815e-08
3.29508e-08
7.10582e-06
-4.17646e-07
-4.2915e-06
-1.37241e-07
5.21483e-10
8.45464e-06
-9.98683e-06
1.36559e-07
-4.62607e-09
4.05744e-08
1.15504e-08
1.06263e-06
-9.85559e-09
-5.79297e-06
4.80768e-07
2.66542e-07
-9.79247e-08
1.7423e-08
-1.24499e-06
6.60917e-07
-3.99912e-06
0.00470096
0.00051062
-4.24773e-07
-1.03238e-06
1.93398e-07
9.25249e-09
6.51956e-08
-2.01868e-06
-3.20987e-09
-1.01066e-06
1.24492e-07
-9.51808e-07
-0.000336641
0.000174923
-2.96568e-05
-4.87345e-06
1.43194e-08
0.00558975
1.67344e-07
1.23663e-08
-0.000709499
1.12866e-08
1.04545e-06
-1.51032e-07
-2.09053e-06
1.2138e-08
-5.25982e-06
0.000232915
-4.42526e-06
-9.12442e-08
3.49872e-08
-4.51623e-06
3.27515e-07
-1.48601e-07
0.000608119
-4.11786e-05
1.19422e-08
-2.0597e-06
-3.9922e-06
3.46132e-08
3.19665e-08
8.72479e-07
-0.0131691
-1.50369e-06
1.51173e-07
6.04396e-08
-1.50663e-06
1.76012e-08
4.87756e-08
-1.98435e-07
2.50987e-05
0.00282552
1.559e-09
6.09422e-08
9.09007e-10
7.10432e-06
-9.5665e-06
-6.71516e-08
5.90212e-07
-8.05814e-07
-3.11322e-08
-0.00546299
-4.40298e-06
1.52651e-07
9.64438e-09
-1.3603e-06
8.38454e-06
0.00102709
1.66896e-08
-3.80627e-05
-1.30802e-08
1.58547e-08
-1.41427e-06
3.304e-07
-5.69551e-06
1.31956e-06
2.72643e-07
-1.15109e-06
1.53584e-07
3.27431e-06
3.75878e-07
-5.0669e-07
1.8951e-07
2.8685e-08
3.26916e-08
2.83206e-08
-4.42179e-06
0.00515566
-1.89743e-06
-1.82597e-07
-1.98042e-07
1.92236e-07
6.22333e-07
-7.31973e-07
-1.72377e-07
-2.73121e-08
-1.80705e-08
-1.06207e-06
2.1255e-08
-2.16776e-07
0.0160607
-3.33387e-05
-7.43098e-06
9.72623e-08
5.19364e-08
8.9481e-07
1.71491e-07
0.000407396
4.3696e-05
4.97623e-07
5.89437e-07
-1.77834e-06
1.46938e-07
1.47419e-07
-0.0137474
9.18171e-08
4.01856e-07
-0.00180994
4.28342e-09
-2.44296e-05
0.00578897
-2.38604e-07
-3.92819e-08
-0.0120473
1.04118e-08
-4.81821e-06
9.52216e-07
0.000931958
3.74134e-07
2.98428e-08
-2.16478e-08
0.00117724
0.000661011
0.000828219
-0.00105595
-1.17315e-06
-2.06546e-08
4.86578e-07
1.95886e-08
3.01203e-07
-0.000120265
-0.0036975
0.00650966
-0.00602879
-2.05914e-07
8.54814e-07
2.01639e-06
3.13265e-08
-3.55026e-08
2.01844e-06
-9.06462e-07
2.532e-08
1.83668e-08
0.000699298
-2.10233e-08
-0.00857169
1.59156e-07
-5.1067e-06
7.7662e-06
-3.39683e-08
5.15228e-07
-7.01748e-06
-1.6307e-08
0.0080152
-1.03824e-09
-3.75414e-05
1.15374e-07
-7.74526e-09
2.06e-06
-6.15353e-06
-5.17445e-06
8.21749e-08
-2.52894e-08
-1.32293e-06
-2.55539e-07
-5.3544e-06
-1.18794e-08
-3.88045e-06
-2.30807e-08
2.93085e-05
6.17493e-08
7.8679e-08
7.26361e-06
2.6246e-06
-1.15731e-05
-8.1441e-08
6.69302e-07
-6.82161e-07
-0.000449914
0.0172204
-9.62392e-09
1.95178e-05
-6.99346e-08
1.2096e-06
1.34628e-07
8.69364e-09
0.00862963
1.10501e-08
0.000602458
-3.48094e-08
-1.10161e-07
1.17724e-07
0.000447728
-5.26506e-07
-3.14492e-06
-8.2061e-07
-1.12598e-06
0.000435026
4.94026e-08
2.21916e-08
-4.49834e-05
-5.48034e-07
0.013705
8.64851e-07
-1.38009e-07
1.53672e-08
1.74716e-07
-6.74428e-07
1.82436e-07
-7.09199e-08
-6.42455e-06
-0.0227217
6.61995e-08
-0.0112137
-0.012304
1.05788e-06
6.78225e-07
5.22217e-08
-1.70568e-05
0.000714928
9.68377e-08
0.000781383
-1.77043e-06
-0.0145123
-0.00102316
-2.70164e-07
1.45472e-07
-5.94312e-08
0.000348292
-1.71789e-06
-1.01437e-07
8.06729e-09
-5.45671e-06
1.54665e-07
-1.91559e-06
2.33208e-07
-1.52555e-06
0.00904087
0.000696264
-2.39664e-05
0.000641108
-4.9583e-07
0.00229562
5.82259e-07
9.57291e-09
9.55368e-07
-0.00155062
-1.56534e-06
-1.20826e-06
-9.65506e-08
-1.23391e-05
6.31287e-10
-7.91109e-08
0.0405109
-3.21657e-08
9.30976e-07
-4.29293e-06
-3.04159e-06
-3.32243e-08
1.37649e-08
1.53304e-07
7.3265e-07
-4.89492e-08
-4.53047e-07
2.21353e-06
-7.26877e-06
2.41188e-07
3.72719e-08
-9.73469e-07
0.000608165
-8.326e-08
0.000438005
-0.00342825
-2.48341e-08
-1.672e-05
-4.26289e-08
-4.36426e-05
4.44914e-09
-2.03666e-07
7.26444e-06
4.27103e-07
-0.0133815
2.35006e-07
1.28414e-08
0.000111433
6.05741e-09
2.14347e-08
-1.85037e-08
1.18359e-08
9.88279e-07
-6.28776e-07
-4.65228e-05
6.22023e-08
0.00754261
2.56775e-07
0.000339843
-0.00517842
9.23699e-08
3.06452e-08
6.58795e-07
-1.24367e-07
-4.23966e-06
-1.3126e-08
2.86006e-08
-1.59866e-08
-9.54294e-08
-1.27137e-08
0.000141242
1.18679e-07
-2.6576e-06
-4.83572e-07
3.25472e-07
6.28025e-07
1.94561e-06
-6.90531e-06
5.06213e-09
-4.41034e-06
-1.16072e-06
-6.57523e-08
-0.0033446
0.00999446
-9.85684e-08
0.000105189
-3.3612e-08
0.00116651
-1.12992e-06
8.53534e-08
-1.353e-06
8.59331e-07
0.000297417
-1.07567e-07
-1.64319e-07
-0.00380046
-3.97486e-06
-0.000635257
-1.12894e-08
0.00130304
-1.54007e-06
-1.27758e-05
-1.20925e-08
6.90746e-08
-2.87513e-07
2.90735e-08
2.64336e-08
3.5128e-08
1.69533e-08
5.65891e-06
-5.33316e-07
9.97284e-09
1.49922e-08
-6.43497e-08
1.15736e-07
-3.71327e-06
-2.35406e-06
1.72679e-08
7.63859e-07
-1.47271e-07
-1.797e-07
-3.60842e-07
2.4291e-08
1.88345e-05
1.04558e-08
-2.14856e-09
5.91934e-08
9.39544e-08
-9.0022e-07
-1.65912e-06
-0.000695818
6.57457e-06
4.39006e-09
-9.31082e-09
8.68144e-06
2.86387e-08
1.47879e-08
-1.73835e-06
-0.000253796
4.45105e-07
-8.96098e-07
-5.08403e-10
9.17359e-09
-3.04096e-07
-1.27355e-08
-1.48688e-06
-1.55419e-08
1.46544e-07
1.32949e-08
7.85355e-08
-1.11412e-05
2.91989e-09
1.42848e-07
1.60176e-08
-7.99902e-06
0.000791469
-4.06137e-07
1.80954e-07
-1.6287e-07
8.43869e-08
1.48756e-05
-0.0166036
5.92911e-08
0.00109313
1.46543e-07
-0.00410314
2.2953e-07
1.89045e-08
-7.39887e-08
0.0100791
-3.62777e-08
-4.22972e-07
2.5216e-05
5.74887e-06
1.30011e-06
-4.34244e-08
1.75603e-08
-1.70434e-09
-7.2321e-08
-5.46532e-07
-7.10433e-06
-0.000363249
-2.46776e-06
-3.57746e-08
-1.96109e-08
5.37516e-08
1.06231e-09
1.06897e-07
9.04141e-08
-2.67097e-06
-1.0325e-06
-0.000325262
-3.50335e-08
-3.37135e-08
2.24347e-06
1.68267e-08
8.30605e-06
-2.50782e-06
-6.96929e-07
-4.04694e-06
-0.0227686
1.39838e-06
3.52846e-08
-1.41507e-08
1.17917e-08
8.87632e-09
-0.00329547
-1.96283e-06
-4.71263e-06
-3.6715e-08
7.95534e-08
6.74323e-07
1.22671e-07
-0.017798
-2.08384e-05
1.14436e-08
-2.7767e-08
-2.73139e-08
1.38597e-08
-3.16618e-08
-3.41113e-07
-2.73545e-05
-2.82183e-08
3.94254e-07
-4.32761e-08
1.0766e-08
2.96473e-08
2.63215e-08
-1.74895e-06
1.03556e-08
-9.59603e-07
-2.30125e-08
0.000172856
5.54926e-06
-1.10251e-06
0.00091081
-1.07825e-06
2.14818e-08
-4.44234e-06
0.000693904
1.05274e-09
2.48056e-08
-4.59815e-09
-2.59801e-06
7.88497e-08
1.29419e-06
0.000161508
7.89497e-09
5.8405e-07
-3.03294e-08
-0.00537527
0.000566453
6.88039e-08
-1.35941e-08
-1.00674e-06
-1.36099e-06
-4.59624e-08
-5.32731e-06
1.20416e-08
-5.51398e-08
3.43321e-09
-7.22913e-05
-0.000423984
0.00125876
-3.8284e-05
-4.49498e-08
-2.40016e-05
-4.2053e-06
-7.81704e-07
-6.8862e-08
-4.37348e-06
4.8825e-07
3.16423e-06
0.00041989
-7.0643e-08
-3.41704e-08
-3.38768e-08
3.20009e-08
-4.9074e-08
0.000732681
0.000540266
2.13451e-08
-4.4744e-09
1.67489e-07
-1.46892e-06
-8.03626e-08
-1.90146e-07
3.17398e-06
6.04965e-07
-1.53231e-07
0.000984613
-6.85369e-06
-5.74768e-06
1.03172e-08
-2.70471e-08
2.44286e-08
1.78924e-06
1.9102e-06
-4.85885e-06
-4.94122e-08
1.97255e-08
-5.86361e-07
0.00112553
-5.58914e-09
-2.45387e-08
-4.58903e-06
-4.59936e-08
-1.47512e-08
9.97848e-10
-0.00676458
-1.88753e-08
-3.4571e-08
-5.69929e-09
-9.34737e-06
-2.78719e-08
1.80252e-08
1.22993e-06
-2.57258e-08
-8.96882e-06
-4.13076e-07
1.64245e-05
-4.00683e-06
1.00947e-08
-1.31029e-06
-4.45317e-08
-9.75887e-09
5.85708e-09
-0.00211815
-0.00213743
1.51382e-05
-3.76755e-07
0.000235317
-4.51341e-06
6.42482e-07
-7.06343e-06
7.74122e-06
-6.62953e-07
-3.77231e-08
-0.013337
-2.14866e-08
-2.54289e-08
-4.94912e-08
0.000803631
-0.0319027
-4.45078e-05
4.71099e-09
-4.59196e-06
0.00120825
2.76976e-06
2.07681e-07
7.05171e-07
6.44376e-07
-1.06816e-06
0.00109424
-7.94204e-08
-2.96091e-08
1.03526e-06
-0.00303217
8.11646e-05
-7.34298e-08
-5.83744e-08
-1.29791e-07
-0.00695545
-1.36677e-06
-1.0044e-07
0.000500031
-2.44781e-08
2.71518e-06
7.24368e-07
4.22591e-05
1.60759e-08
-0.000141605
1.12397e-07
8.1411e-09
3.66853e-08
4.35511e-08
-4.85577e-09
-4.86699e-08
1.32333e-07
0.000218746
1.37707e-08
-0.00145254
-3.17901e-07
-4.71826e-09
-2.00261e-08
-6.65532e-06
-6.4718e-08
-1.13475e-07
-2.15314e-07
0.000905894
-1.40037e-06
4.26561e-07
4.74189e-08
0.0118208
1.90323e-08
-1.47932e-06
4.23619e-08
-3.78862e-05
6.2324e-07
-0.000157303
4.05402e-07
-2.15722e-07
7.62744e-05
-0.0067215
-4.54155e-05
2.55834e-09
4.519e-09
-1.22375e-06
0.00832695
5.34252e-08
-2.9184e-06
-4.07564e-07
-7.8028e-07
-4.387e-08
-6.50208e-08
5.48376e-07
1.22493e-07
-2.70235e-08
2.7145e-06
1.18379e-06
6.16005e-07
1.17316e-06
-0.0161615
1.44622e-07
0.000801273
-2.01929e-08
-3.35925e-06
-0.0140649
2.14916e-06
-6.37035e-08
-7.93065e-07
4.86154e-08
0.00211891
-8.19139e-08
7.14344e-09
-4.78826e-06
1.8926e-08
3.14854e-08
-1.53357e-08
1.14681e-07
1.74903e-08
0.0114277
-0.000581918
-4.4454e-06
-1.28013e-08
-5.64456e-09
-9.64865e-06
-9.29198e-08
0.00010876
-2.1507e-07
3.82926e-08
1.11776e-08
1.93885e-07
9.69165e-06
-7.89192e-07
-3.34358e-08
-2.50097e-05
-1.57072e-08
9.34463e-08
-1.19761e-06
-0.00856178
0.000859485
-3.05198e-08
1.82043e-07
0.00743096
-0.00186212
-2.2446e-05
3.89194e-07
-1.04214e-06
1.31072e-05
-7.34795e-09
1.3335e-05
-1.77311e-08
-0.00127069
5.47697e-07
5.3739e-10
4.22411e-07
-2.498e-09
0.0125668
-3.17153e-08
1.38825e-09
0.000663991
-1.48413e-05
0.000341125
-3.61472e-08
2.78779e-07
-5.24931e-09
7.91656e-08
4.62434e-08
-6.28326e-07
-2.93301e-08
1.10119e-07
-1.62904e-08
1.48274e-07
-2.77719e-06
-1.17276e-06
-5.82085e-07
-7.07443e-09
9.13737e-08
2.50583e-09
-0.00127462
-2.36722e-07
5.08526e-07
-5.33541e-08
-7.3999e-08
1.21939e-07
1.93332e-06
-9.56619e-08
-5.29294e-08
1.08542e-07
4.00554e-08
0.00467194
0.00012274
-1.04698e-07
0.0118349
-1.36981e-06
4.7128e-08
1.77516e-08
1.2467e-07
0.00118082
-6.37096e-07
-1.83788e-08
2.19666e-08
-6.24114e-08
-2.29326e-05
-8.85245e-08
2.39406e-09
6.2054e-06
-2.3148e-08
6.68612e-08
5.2536e-06
5.60015e-06
-3.52498e-06
-3.73409e-06
0.00404068
3.63003e-08
0.00378428
7.40281e-09
-2.90087e-08
1.3496e-08
3.05549e-07
2.55209e-08
8.23959e-08
-4.27694e-06
-1.09588e-07
5.5126e-08
0.0347557
7.98511e-06
-4.0846e-05
0.00183563
0.000623095
-3.17612e-06
1.19192e-07
-0.000180019
-0.0149162
3.33155e-08
0.00395027
9.17212e-09
1.19118e-07
7.07477e-06
-7.0675e-08
-4.2838e-05
7.87721e-07
3.11854e-07
3.43087e-07
-1.95305e-05
-1.25422e-08
0.0127279
1.46759e-08
-2.50758e-09
0.000779013
5.57338e-08
3.08564e-06
1.67146e-08
-3.59599e-06
1.89015e-09
-1.65649e-08
3.47209e-07
0.000561031
-6.65226e-08
-8.64527e-08
1.01689e-09
1.52785e-07
-1.3376e-08
1.21723e-07
0.000405269
2.9959e-09
-3.3463e-07
1.19109e-07
3.24167e-07
6.47288e-06
1.40956e-08
1.90011e-08
-4.61079e-06
-1.5642e-07
3.18811e-08
6.24738e-07
0.000159471
6.8874e-07
-1.59131e-08
-2.40658e-08
-9.8253e-07
-4.64364e-06
1.81542e-07
2.65831e-09
-2.6702e-09
3.68586e-09
7.57291e-08
-1.76346e-08
1.15718e-06
2.19528e-05
-3.76708e-06
5.69351e-08
-0.000126236
-4.5336e-08
2.97331e-07
0.00203979
-1.37578e-06
-5.57684e-08
-5.75193e-06
7.33632e-07
3.74549e-09
-0.00195077
-7.83412e-08
-1.29526e-06
-6.27182e-08
-3.36752e-06
-2.12937e-08
-4.88333e-08
-3.07336e-08
0.000298827
-1.85035e-06
-1.23731e-07
-1.59295e-05
-2.31856e-08
-2.24316e-07
-8.11213e-09
8.20815e-06
-1.20852e-07
2.39823e-08
-2.39503e-06
3.00855e-07
2.18721e-08
2.67067e-08
7.25414e-08
-3.49601e-07
-1.90713e-08
-4.56192e-08
-9.95459e-08
-3.64084e-08
-8.05365e-05
-4.73259e-06
1.74403e-08
0.000201988
-2.5275e-07
1.78389e-08
-4.9345e-08
5.16718e-08
-9.19975e-08
-6.44972e-07
-2.11552e-07
5.81615e-07
5.9609e-06
-1.65057e-07
-3.68221e-06
-4.24337e-06
-2.95108e-08
5.36521e-07
-5.78219e-06
-1.04409e-06
8.77859e-05
-2.51408e-08
1.20601e-06
-3.33552e-07
-2.29838e-06
2.8835e-07
-3.03443e-07
1.44922e-08
2.22242e-06
-8.00594e-08
-5.39402e-07
1.48997e-07
6.89313e-06
3.39478e-09
-1.61671e-07
1.64849e-05
8.21574e-08
-6.7274e-05
-0.00404674
-1.3687e-06
-1.68866e-06
1.03329e-07
-1.02102e-08
-3.83171e-08
2.58896e-08
-1.06227e-06
-0.00539876
-0.0283163
2.87256e-05
2.92751e-06
-6.25603e-07
-3.29952e-08
9.45037e-09
-7.50688e-09
0.010766
1.82936e-05
-1.50906e-07
9.34825e-08
0.000111411
1.01819e-06
2.66845e-09
-5.1134e-08
-0.0141087
7.34134e-10
2.33408e-08
0.00286735
-2.39202e-06
3.14232e-08
-9.15601e-06
9.776e-09
-1.41707e-05
-3.03329e-06
2.42461e-08
-3.24713e-08
-7.45622e-07
-0.0108972
1.67407e-08
4.60858e-08
-3.17521e-08
2.35533e-08
-2.41027e-08
0.000527608
-6.60283e-09
-2.56583e-07
6.80032e-08
-1.04033e-05
1.69501e-08
1.42383e-08
-6.10927e-08
-5.31121e-06
-3.11418e-08
-1.46819e-09
-5.0359e-05
-0.0171353
1.06018e-08
-0.000665368
-5.95309e-07
-1.94913e-06
-8.59993e-07
-4.01976e-06
-0.000392203
1.52445e-07
7.35232e-07
-2.84002e-08
1.44075e-07
-2.79202e-08
-0.00573513
-1.0758e-05
-2.08816e-09
6.22387e-07
1.86621e-08
-5.2678e-08
0.0270409
-2.76202e-08
2.68286e-07
1.8409e-07
1.18123e-05
-3.49861e-08
1.12375e-07
-2.06628e-07
0.000989333
2.3385e-08
-2.01862e-07
6.42273e-09
1.45781e-08
1.30639e-07
-1.14741e-06
-2.43308e-07
-4.32758e-08
-1.47708e-08
-2.4347e-07
-3.70367e-08
0.000554177
-1.25201e-07
2.22539e-07
-3.4794e-08
-3.51204e-06
6.42562e-09
-1.21889e-09
-1.20469e-06
-1.78332e-07
5.89355e-06
-6.40571e-08
-3.09505e-08
0.000869109
-0.0033811
-0.0142634
-9.70572e-06
1.23517e-07
2.88979e-07
0.0206441
-2.86153e-08
-2.28946e-07
-3.10425e-08
0.00268371
1.69616e-08
1.78723e-07
-3.56776e-08
-0.00446554
1.00356e-06
-2.18092e-06
0.019947
7.37281e-07
-1.13877e-06
7.03607e-08
1.22128e-07
0.0388522
-1.32928e-06
-3.88143e-09
5.57159e-09
1.3128e-07
-8.17008e-07
-2.54681e-08
3.67382e-09
-1.54456e-08
-1.2104e-08
-2.72282e-07
-0.00152926
1.10885e-07
4.03017e-06
-0.00755665
-2.63031e-05
-7.78657e-07
6.51127e-07
9.93095e-08
-1.6785e-07
5.3447e-09
-1.94019e-09
1.13741e-05
1.26117e-08
1.34202e-08
4.83418e-08
4.46401e-05
-2.15044e-05
-4.4689e-08
6.27144e-08
2.81713e-07
3.74462e-07
1.09603e-08
8.52056e-07
-8.09974e-07
9.78027e-06
-1.40548e-06
0.000348781
2.03728e-08
4.42648e-09
-9.62258e-09
3.89986e-08
-4.62531e-10
-1.91575e-08
-4.41253e-05
2.83073e-09
-5.24947e-06
5.68868e-07
8.26003e-09
1.33313e-08
6.49008e-06
3.89436e-07
-1.75881e-06
-2.25494e-06
-4.811e-08
0.0277086
-4.18574e-06
3.57126e-09
-4.2717e-08
0.000983722
-0.000294895
-4.13203e-08
3.52203e-08
-6.58699e-08
1.48762e-07
2.92605e-06
-2.22416e-07
-2.29086e-06
5.74273e-08
1.75202e-06
0.0168493
1.83343e-07
-1.26913e-08
0.00555012
7.06439e-09
0.000573549
3.89662e-07
-4.48348e-08
-4.2854e-06
5.98671e-07
-0.00360379
3.32956e-06
3.1811e-05
4.48994e-09
-2.12478e-07
2.12468e-08
-1.33906e-09
9.52848e-08
1.18118e-07
-2.65848e-08
-2.374e-08
-3.71944e-07
-2.65836e-07
1.85805e-06
-1.44428e-07
2.04983e-07
1.79869e-07
1.11486e-08
-3.19292e-08
-2.53531e-06
-1.24014e-05
1.50961e-08
-3.6484e-08
-4.5217e-06
-9.07703e-07
4.49745e-08
3.51418e-07
-0.000195434
-1.95514e-10
-1.60239e-06
-1.4818e-07
4.8448e-08
2.25342e-08
0.0236314
-2.82052e-05
-3.01799e-07
3.2957e-06
5.43172e-07
-1.1556e-06
-2.78736e-09
5.88527e-07
3.2537e-06
-6.68384e-09
-7.85099e-06
1.10947e-07
2.46866e-09
1.85259e-07
-9.14044e-09
-6.50885e-07
-6.61801e-06
0.00773847
-5.13809e-06
4.31639e-08
-7.0242e-09
-7.7323e-08
1.12096e-05
5.49783e-08
0.000249993
-2.49546e-08
-9.26102e-09
-7.58347e-09
-4.90072e-06
-2.34451e-07
-9.17582e-10
-7.07721e-08
-4.41533e-06
-1.78965e-10
0.00582587
1.06143e-08
4.97989e-08
3.19164e-07
-6.4866e-07
7.42301e-09
6.87031e-09
8.86973e-06
-2.70784e-05
4.9456e-08
-1.43152e-06
-3.75079e-08
-1.39235e-07
0.0355733
1.64756e-05
1.41675e-08
1.8435e-08
-7.82483e-07
-2.99626e-08
4.10653e-08
-1.78332e-08
9.23443e-10
-1.12786e-06
-2.67568e-06
1.54454e-07
-2.97554e-07
1.73918e-06
3.28973e-07
8.5752e-09
-2.83114e-09
-8.61682e-06
-4.06848e-07
-6.08006e-09
0.00670959
-3.19165e-08
0.0193134
-9.01739e-07
-1.11615e-07
-4.73421e-08
-5.65708e-08
-1.83258e-06
4.69136e-08
-2.63138e-07
-7.47404e-08
-6.15036e-07
3.38775e-05
-3.48086e-07
9.06871e-07
-9.10076e-09
3.67239e-08
-3.24004e-08
-4.09308e-08
-3.78632e-07
-8.96401e-09
-6.16388e-06
1.01503e-07
7.14411e-08
0.0080977
2.6656e-06
0.00090956
7.71575e-09
5.34976e-06
8.17677e-07
0.000693417
-4.3748e-06
0.00340307
-2.81485e-07
-3.16124e-08
-1.5572e-06
-3.18494e-08
0.00382783
-7.15471e-09
-9.85277e-06
3.76189e-07
0.0202162
0.027258
4.78904e-07
8.56028e-07
7.53644e-10
-1.54365e-09
-1.93414e-08
-1.00264e-08
4.29161e-08
2.17261e-07
-2.20688e-08
6.54903e-07
-2.51228e-05
0.000634612
-3.55214e-08
-5.9515e-06
2.59754e-08
-9.26436e-09
-6.5744e-08
-4.07125e-06
2.98872e-07
0.000248449
5.86517e-10
-2.90191e-08
0.00323749
-6.18178e-09
1.56163e-08
4.31325e-08
1.06288e-06
0.00353132
8.7495e-07
0.000283145
1.84882e-06
-4.02884e-06
1.09206e-07
-1.86099e-08
-1.32508e-07
8.13915e-06
3.96496e-08
2.45629e-08
-1.82459e-09
4.03144e-09
0.00583224
7.4892e-09
-0.021367
-0.000228988
-5.01556e-06
7.73406e-07
-1.00792e-05
5.62485e-06
-8.68788e-09
8.72844e-05
-7.10908e-09
0.00559145
1.75998e-07
1.86259e-07
-0.000453814
-0.000457829
5.17903e-07
-0.00962021
-1.41468e-08
0.000117514
1.48275e-08
-0.0229443
2.08482e-08
4.43021e-06
-8.44969e-07
-3.05535e-07
1.60547e-08
1.82398e-07
-4.87372e-08
-1.51075e-06
0.000997305
-4.77092e-07
0.000437256
-3.63276e-08
-0.0124151
-3.33924e-08
-5.55804e-07
-2.96686e-07
-5.06655e-08
0.00425203
-2.35704e-07
-7.08398e-09
-9.10458e-07
-1.34444e-08
-0.00366896
-3.54718e-06
2.30301e-08
-1.31196e-05
-1.20635e-06
-5.00287e-08
-1.26088e-08
6.28445e-07
-1.56895e-08
-2.4419e-06
6.39719e-08
-1.97215e-07
-1.077e-06
2.13771e-08
1.07644e-08
-3.20951e-06
1.03352e-07
-1.42196e-08
1.06467e-08
3.33224e-08
-2.60276e-08
1.90697e-05
1.05663e-06
0.00716399
-3.30733e-07
-2.09145e-06
-1.499e-06
-4.02055e-08
8.38171e-07
-2.12727e-07
1.18672e-08
0.000284168
2.80428e-08
4.49489e-06
-2.71979e-06
-5.11745e-07
-0.000114377
0.0107675
-1.74806e-08
9.62556e-07
-3.89886e-05
0.00658828
-1.46718e-08
-6.88911e-08
2.85192e-07
5.43704e-07
0.000487321
-4.15142e-07
-1.109e-08
-1.0626e-08
-5.02554e-09
6.24874e-09
0.000578531
-3.87731e-07
4.24842e-06
0.00365702
-2.86226e-08
1.00067e-06
7.86922e-07
1.18174e-09
1.42751e-08
5.28715e-08
-1.54855e-06
-6.76891e-06
3.47264e-08
-1.28953e-06
-0.000239671
-1.6707e-07
-7.62202e-09
4.80958e-07
-6.73822e-10
-0.00115257
2.26602e-05
-0.000418698
-3.45166e-06
-0.011837
9.24003e-07
-1.09587e-08
-0.000129367
4.13062e-06
1.09719e-06
-8.61153e-09
-1.11628e-08
-0.0023516
4.95706e-06
-1.44064e-08
1.46493e-08
5.74063e-07
6.07771e-05
-1.00761e-06
3.97042e-08
0.0164026
8.66852e-08
-1.43517e-06
1.73321e-08
-1.59346e-06
5.62842e-08
-1.03299e-06
1.01464e-06
-5.37886e-09
0.00832021
4.63955e-08
-1.35247e-06
-6.2239e-06
0.000786771
-5.37419e-06
2.00877e-09
-3.65456e-06
-1.36919e-07
3.38465e-07
-3.13852e-07
3.98055e-06
4.17527e-08
8.47079e-07
0.000451285
-4.02634e-08
0.000528714
1.44206e-08
9.99715e-06
1.48411e-09
4.72757e-08
0.00517778
-1.16415e-07
9.71776e-06
5.84724e-06
-1.80506e-09
0.00285932
0.0229298
-7.33791e-09
0.0093945
1.20835e-06
-2.07735e-09
-3.67501e-08
-2.65107e-05
0.00495232
-2.27977e-08
-2.97688e-08
1.19097e-06
9.78021e-09
0.0228902
-0.00116614
2.1611e-08
-5.054e-08
-5.50097e-09
-3.16395e-05
-1.48908e-06
-0.000909638
3.6974e-08
-0.00694349
-2.44967e-07
-2.60867e-06
0.00526143
-9.86135e-09
-2.16664e-08
3.06441e-07
-0.00096712
3.72155e-09
-4.15918e-09
-1.17241e-08
-7.47537e-07
-5.60665e-07
0.0132548
5.31196e-07
1.57437e-07
-2.00565e-09
-3.69732e-07
1.33296e-05
3.91138e-06
-1.634e-08
-1.82688e-07
-1.85325e-06
-2.39879e-06
2.03338e-07
-0.00844058
1.6595e-06
3.95294e-07
0.0345186
8.72195e-09
8.47903e-07
1.75219e-08
0.000893354
3.11478e-08
1.30273e-07
-2.87625e-05
-4.81348e-07
-4.63883e-09
-2.98668e-09
4.90015e-08
1.82091e-06
-7.6849e-06
3.39569e-08
-2.54047e-08
1.04207e-07
-1.99917e-07
5.34613e-06
-9.03201e-09
1.73478e-08
7.91661e-09
1.11621e-06
-1.49977e-06
1.79733e-07
1.05733e-07
0.040005
-3.82466e-08
-0.0115699
-4.98466e-07
1.96346e-07
-1.01337e-06
-3.37568e-07
-3.76621e-08
-0.000146994
-4.78727e-06
-3.53618e-06
0.0132013
-3.90362e-07
-5.21352e-09
0.0260144
4.97852e-08
-3.12781e-06
0.0233164
1.43924e-06
-1.73674e-08
1.13527e-07
-4.74485e-06
-2.53149e-08
5.86941e-08
0.00154529
2.12789e-08
-2.35875e-06
-6.80045e-07
-6.1675e-07
-2.56748e-08
-3.50759e-06
6.3422e-06
-3.98997e-08
-1.70455e-09
-0.0222802
-2.49743e-08
1.1232e-07
6.61497e-09
4.03031e-08
-0.0103015
1.82366e-06
4.27038e-07
1.45511e-07
5.39247e-08
2.56189e-07
-2.60532e-06
5.45477e-06
-2.7561e-07
0.00128228
-1.96377e-06
5.37988e-07
0.0129946
4.20457e-09
1.55306e-08
-5.34482e-09
-7.04908e-09
1.45116e-07
-6.18787e-08
-3.03302e-07
0.0271722
1.65879e-08
-3.18386e-08
-3.83704e-08
9.14131e-08
0.000360479
7.13375e-08
0.0173248
-1.15692e-06
-5.1959e-06
-7.2927e-07
0.000651704
1.48674e-07
-5.24574e-08
6.15267e-07
1.2781e-08
4.46563e-07
1.02632e-06
-1.41942e-07
0.0244325
2.89504e-09
3.46489e-08
-2.13429e-06
-1.21152e-05
7.54729e-08
-8.55967e-09
1.11575e-05
6.95964e-07
3.64802e-06
8.87502e-09
-8.84483e-09
-1.2344e-08
-5.33022e-06
2.27661e-07
-1.8192e-05
-3.45034e-06
-7.84862e-07
-9.93685e-09
-1.70166e-07
-9.56746e-07
0.00128304
-3.03017e-08
3.24069e-06
-3.14221e-08
0.00980137
-2.62896e-05
-5.44117e-07
9.24242e-06
-2.50198e-08
4.27553e-07
-9.09658e-07
-0.0049924
1.68641e-06
-1.40408e-06
-1.80433e-06
0.000429115
-1.74799e-07
6.85058e-07
-3.54046e-08
-2.05074e-05
-5.75274e-06
-6.13506e-06
1.13767e-07
1.42624e-06
0.000751218
0.000372289
9.79687e-07
1.73145e-07
-2.67974e-05
-0.00280848
-3.30104e-09
-1.55098e-06
-5.72163e-08
6.82703e-07
-7.93268e-08
-4.10405e-08
-3.55763e-08
-0.000207733
-1.79244e-07
-1.98164e-08
-3.85926e-06
0.000503928
0.00105852
-4.77617e-06
0.00431049
-2.12323e-09
-0.000829691
-4.46535e-06
3.31704e-08
-2.01846e-08
-0.00157961
-9.75959e-08
-3.79298e-08
7.90664e-09
-8.46471e-07
4.23962e-09
2.01079e-08
-0.0164233
4.29756e-08
1.17529e-07
-2.21195e-09
-2.2664e-08
4.99373e-08
-1.68148e-08
0.0353519
4.10195e-06
-2.59661e-07
-1.77306e-08
1.65717e-06
-0.00710955
1.32415e-07
3.00613e-07
0.000893897
-7.12606e-07
-6.21575e-09
-1.12091e-07
2.5556e-09
1.58026e-08
-1.54253e-05
3.52085e-06
1.72832e-08
-2.09004e-07
0.000613772
-0.000590382
-0.0144656
-2.8911e-05
6.81421e-07
0.000731655
-8.68879e-08
-1.6907e-07
-1.47472e-08
3.56009e-09
0.00155042
-0.0205033
-1.7699e-06
-1.06256e-05
0.00575742
-3.45461e-08
-5.03527e-08
2.22765e-08
-5.43521e-07
-0.00394726
1.1847e-08
1.26995e-07
0.00651816
-0.0115171
-1.47496e-08
5.50554e-08
-0.00291305
-1.6235e-07
4.63297e-07
0.000725058
2.88756e-08
-1.35114e-08
1.22542e-07
-5.39392e-05
-7.86325e-08
4.2095e-08
1.01469e-07
-2.08512e-05
1.46722e-06
0.00135746
-6.29659e-08
-4.32274e-08
-1.8719e-06
-3.19343e-07
4.60575e-06
-4.88401e-07
-5.36791e-06
7.15583e-09
8.58586e-09
5.84697e-10
0.00698193
-0.00481922
-0.0101982
-7.90775e-09
-6.21398e-09
1.82965e-07
-9.14243e-09
2.61052e-08
-2.44567e-08
-6.25533e-07
-2.45482e-08
-1.66681e-08
1.30928e-08
-3.31341e-06
-1.46047e-06
9.96543e-07
-0.00623059
-4.75985e-06
-2.61655e-06
8.62258e-07
4.1244e-06
-6.20866e-06
-7.46179e-07
-8.39241e-07
1.00012e-06
-1.66047e-08
0.000182693
-3.41214e-08
-1.3405e-11
-3.12023e-08
0.00374896
1.51256e-07
0.00107592
1.93737e-09
3.00739e-08
6.14091e-07
-5.75017e-08
-4.11152e-08
-4.96532e-08
5.39057e-06
-9.11744e-06
-2.61563e-07
1.38722e-08
5.38184e-08
0.0231623
-2.42359e-06
-0.00374951
-3.17362e-08
-6.50249e-07
-9.24205e-09
-3.92624e-08
5.85367e-09
-2.75535e-09
-6.50278e-09
2.9165e-06
-0.00132675
-3.05643e-07
-4.127e-07
-5.21385e-06
-0.0210924
1.32398e-06
1.69951e-07
-6.60406e-06
-7.42187e-07
0.00708898
4.25501e-09
-1.66619e-07
-1.1924e-05
-0.000442043
2.04646e-08
7.59369e-10
1.44122e-09
1.16162e-08
-1.01032e-06
1.26815e-07
-2.78526e-06
-2.03557e-07
1.49437e-08
3.76612e-06
-2.35946e-08
0.00112588
-2.91698e-08
-1.10098e-05
-2.27686e-08
-2.49355e-07
-3.68707e-09
-4.35226e-06
-0.0021159
6.3807e-09
3.88737e-06
-0.0121428
-1.45201e-08
3.05082e-08
-1.64326e-06
-2.3158e-08
0.0136372
8.03305e-07
6.12287e-08
-3.65964e-06
-5.06137e-08
2.59478e-06
-5.73175e-08
-7.15833e-08
3.20785e-08
5.93284e-08
-9.13866e-08
6.60691e-10
-1.28173e-08
1.82893e-07
-2.6052e-06
9.64379e-08
-8.57944e-06
4.14745e-08
4.13994e-10
-4.89165e-07
-2.62717e-06
2.14088e-07
-4.10151e-08
-3.61641e-09
1.3814e-07
-2.41627e-06
0.00845132
-7.57942e-07
8.70212e-08
2.18087e-08
1.28952e-09
-7.04397e-07
1.70632e-08
-1.73588e-08
-0.0207511
-4.88553e-05
-1.19104e-06
-7.27298e-09
3.59751e-07
5.01236e-08
-4.84036e-08
8.10178e-07
3.02053e-08
-7.72765e-06
9.77935e-08
-1.25107e-07
-2.31453e-07
-0.0223281
-2.32653e-07
-4.73171e-06
0.00707421
-0.00122627
0.00053287
3.76845e-07
-0.00163459
-0.00300943
4.87415e-08
-8.55784e-07
0.00359371
5.20156e-07
-7.76983e-09
3.46566e-08
4.40187e-07
-7.61887e-06
1.31728e-08
7.6743e-07
0.00536462
2.015e-08
-3.45472e-08
-0.00870901
0.000345272
4.80609e-06
0.000716593
0.00382743
8.84625e-08
-1.8518e-06
-1.46084e-06
-1.50253e-06
0.00300176
1.1151e-07
0.00987123
-3.98466e-05
-1.05546e-07
1.95728e-07