/*--------------------------------*- C++ -*----------------------------------*\
| =========                 |                                                 |
| \\      /  F ield         | OpenFOAM: The Open Source CFD Toolbox           |
|  \\    /   O peration     | Version:  v2012                                 |
|   \\  /    A nd           | Website:  www.openfoam.com                      |
|    \\/     M anipulation  |                                                 |
\*---------------------------------------------------------------------------*/
FoamFile
{
    version     2.0;
    format      ascii;
    class       volScalarField;
    location    "550";
    object      omega_0;
}
// * * * * * * * * * * * * * * * * * * * * * * * * * * * * * * * * * * * * * //

dimensions      [0 0 -1 0 0 0 0];


internalField   nonuniform List<scalar> 
18355
(
0.160161
0.0204314
0.20359
0.0210113
0.0333547
0.674896
0.0215053
0.0341428
0.0219817
0.392729
0.0248153
0.0989815
0.106771
0.0983963
0.021083
0.0201934
0.0210076
0.0236739
0.12835
0.0227361
0.183982
0.0218812
0.0204597
0.669239
0.0204703
0.0219917
0.0215429
0.0210185
0.0221772
0.0254009
0.272341
0.0451864
0.0203376
0.0200598
0.0211704
0.0221651
0.0268209
0.0222268
0.0257956
0.0218171
0.0221621
0.0253059
0.0200787
0.0204173
0.020428
0.27953
0.0209946
0.0209831
0.355218
0.0212779
0.0207923
0.807253
0.0213367
0.103897
0.021285
0.0227392
0.0211846
0.272927
0.0220645
4.23408
0.02007
0.0680325
0.103167
0.0213611
0.0575167
0.0206044
0.0235776
0.0269209
0.0200143
0.685524
0.0209412
0.0212849
0.0369313
0.0245192
0.277014
0.0200329
0.302063
0.0200425
0.0209124
0.31873
0.0235158
0.429225
0.0200242
0.0244837
0.0475791
0.021615
0.0223161
0.0383179
0.0208805
0.0383936
0.555915
0.149526
0.434201
0.0212655
0.631521
0.0216196
0.0208621
0.0213456
0.0639992
0.0218078
0.0450381
0.0208823
0.0212168
0.0195648
0.0237286
0.0202039
0.0570453
0.619274
0.0318745
0.0201473
0.0207973
0.0213937
0.0303034
0.024214
1.21678
0.0265751
0.0208587
0.411199
0.0227378
0.0233889
0.67617
0.207614
0.662407
0.0439739
0.426156
0.380682
0.0215428
0.0210417
0.167539
0.0216492
0.0208665
1.12
0.0212645
0.0647423
0.0824159
0.0208735
0.128793
0.619253
0.0211941
0.161928
0.0249766
0.0315315
0.0209561
0.310097
0.0827614
0.0216555
4.1968
0.0196161
0.0299813
0.289854
0.0210112
0.0233269
0.0212782
0.0282879
0.0200894
0.0205791
0.0210559
0.0216035
0.020963
0.0206748
0.0239101
0.0212704
0.0201556
0.0311534
0.0247684
0.360054
4.22959
0.18007
1.55202
0.0249485
0.0213128
0.0612398
0.0214941
0.428974
0.0212458
0.0221242
0.0213143
0.0195276
0.0225834
0.0280904
0.0216723
0.324531
0.0217679
0.0210427
0.235007
0.0211953
0.0217163
0.0373988
0.0213496
0.0216271
0.294417
0.0641516
0.0204616
0.0200449
0.0214108
1.82201
0.0205189
0.198338
0.0204411
0.0968061
0.0211584
0.0231137
0.0259507
0.0215933
0.177352
0.0215749
1.44339
0.0210379
0.0202889
0.0212769
0.0215414
0.546769
0.0226855
0.0219535
0.0196278
0.492085
0.0281211
0.0249346
0.0215903
0.0209961
0.0308122
0.0199729
0.0362542
0.0282851
0.043483
0.023234
0.0199919
0.510723
0.132807
0.0332963
0.021368
0.0237621
0.361586
0.0199845
0.029602
0.0354757
0.0219542
0.317828
0.0244164
0.0219621
0.020458
0.0224877
0.021469
0.0318998
0.0215703
0.0212912
0.0209859
0.528203
0.667497
0.0210103
0.0217004
0.665473
0.133618
0.0287788
0.0195333
0.0451804
0.0244022
0.0217497
0.0231633
0.020813
0.289424
0.0446986
0.0588559
0.0284049
0.0264476
0.0337598
0.0364067
0.0694271
0.0208059
0.0212924
0.0217925
0.0201441
0.0231217
0.0250631
0.0209782
0.0215498
0.0292602
0.020862
0.0711327
0.7298
0.0275999
0.0215667
0.0271888
0.0201334
0.0388741
0.0215262
0.0289992
0.0218768
0.0283067
0.294504
0.0203155
0.0404039
0.022642
0.0232109
0.0369918
0.0213121
0.0200308
0.0672945
0.0215452
0.034664
0.0268503
0.415964
0.0392785
0.0598352
0.0233276
0.0302983
0.0212193
0.0237078
0.027993
0.0403398
0.291254
2.99158
0.0210802
0.0240779
0.0924936
0.0278165
0.0210756
0.0209745
0.020998
0.0423405
2.70748
3.3726
0.289659
0.0288248
0.024671
0.411569
0.0196154
0.0215537
0.024615
0.0213674
0.0334217
0.0210699
0.470217
0.0202232
0.443723
0.0213544
0.0217765
0.023683
0.117687
0.198143
0.0320617
0.243684
0.0218564
0.0208898
0.0213584
0.0239716
0.410131
0.0209118
0.0214853
0.254573
0.0218021
0.0209151
0.137835
0.0235688
0.0209923
0.0212562
0.0299138
0.0222718
0.0297119
0.0200594
0.0214772
0.0217718
4.13888
0.276575
0.0200361
0.0209412
0.0296959
0.0210061
0.021405
0.43727
0.269013
0.030873
0.0213415
0.0220013
0.107194
0.0220434
0.0469024
0.0237486
0.0202589
0.0285963
0.0321368
0.0216986
0.0213548
0.0236984
0.0214804
0.0230613
0.0214058
0.0677292
0.0215021
0.0231274
0.0208411
0.0209995
0.0230206
0.02203
0.0542479
3.70957
0.317769
0.0225848
0.13256
0.0266351
0.0213732
0.0210016
0.0382863
0.0213491
0.0317491
0.0213978
0.0259732
0.397467
0.0876923
0.189378
0.0638086
0.019574
2.82959
0.0218103
0.0209679
0.218589
0.0213184
0.0264976
0.0202399
0.0635617
0.0213132
0.0592502
0.435582
0.0550303
0.0212818
0.0204604
0.0568808
0.0227484
0.0210084
0.381214
0.0384353
0.0209617
0.0387654
0.0542931
0.0204564
0.0220228
0.0306621
0.742133
0.0378634
0.021801
0.0212691
0.034512
0.0213003
0.0201821
0.0211354
0.0634208
3.76112
0.0202435
0.0220335
0.0214993
0.127702
0.0320188
0.0200319
0.0265397
0.0366288
0.0214795
2.32136
0.0678975
0.0218037
0.0214642
0.036646
0.134734
0.193818
0.0202204
0.229513
0.0212401
0.020235
0.0418157
0.0228875
0.0708718
0.0371232
0.0232643
0.0250135
0.0218916
0.132669
0.0228742
0.0273679
0.0218479
0.0201965
0.0217184
0.0202108
0.0672015
3.69783
0.0633312
0.0240462
0.0215867
0.0218446
0.0214344
0.0233436
0.0215011
0.02003
0.0213878
0.0388837
0.0204655
0.0214939
1.57705
0.205878
0.09528
0.021629
0.0218633
0.0308592
0.0218468
0.297136
0.602662
0.0237165
0.02449
0.025295
0.0222187
0.0235886
4.23079
0.032082
0.0219342
0.37301
0.0216042
0.193961
2.80801
0.0247857
0.0219765
4.15072
0.020985
0.0571754
0.0457843
0.239979
0.0228681
0.0216962
0.0214662
0.0916084
0.179464
0.191985
0.423101
0.0232058
0.0214561
0.0245004
0.0212995
0.023539
0.169504
0.545508
3.63381
1.25292
0.027713
0.0418526
0.0315108
0.0210036
0.0211497
0.0285888
0.0242971
0.0215413
0.0212973
0.460198
0.0208479
1.21299
0.0250271
0.0645476
0.116283
0.0211558
0.0242
0.179478
0.0213828
3.44211
0.0212816
0.128081
0.0321405
0.0219534
0.0310405
0.0689385
0.0648702
0.0217769
0.0200011
0.0332511
0.0249784
0.0648321
0.0213759
0.0686095
0.0208401
0.457164
0.0212728
0.0211795
0.192764
0.0262612
0.0331321
0.0211336
0.0248107
0.0228743
0.466514
3.39587
0.024196
0.0280603
0.0212024
0.0271151
0.0217227
0.0240179
3.76442
0.0204203
0.329197
0.0215336
0.0212754
0.0242026
0.296397
0.0225467
0.0728465
0.0220179
0.0331863
0.434462
0.0196234
0.0209938
0.210005
0.0374655
1.47509
0.0388064
0.021685
0.0213033
0.0209844
0.0245193
0.0219399
0.0200798
0.102945
1.41532
0.021163
0.865868
0.809805
0.0241581
0.237585
0.0201975
0.149006
0.18362
0.0196893
0.423446
0.0364883
3.71023
0.476797
0.0210819
0.0209738
0.0214806
0.284361
0.041542
0.0213077
0.0219352
0.10179
0.0217677
0.0374434
0.0210737
0.0348422
3.07235
0.0625103
0.0363936
0.0631641
0.0392904
0.281149
0.0245076
0.0209203
0.0260235
0.473234
0.0284246
0.039723
0.0212933
0.128282
0.0215168
0.0217231
2.82809
0.0216178
0.0265779
0.0313728
0.0677951
0.0214707
0.0212918
0.0241073
0.025192
0.0199687
0.0215808
0.0326539
0.111035
0.0230942
0.0212803
0.0414602
0.437254
0.0212421
0.0448692
1.54935
0.0214713
0.278341
0.0200044
0.177488
0.0213517
0.0203588
0.19605
0.023024
0.650124
0.0229721
0.0212938
0.301064
0.0213484
0.0201281
0.0215295
0.0209299
0.027034
0.0363165
0.195374
0.0219994
3.50494
0.0226981
0.0408947
0.703751
0.0220462
0.0213509
0.0248257
0.0201501
0.086509
0.0211911
0.0201041
0.0201238
0.0212935
0.0213727
0.613506
0.0242927
0.0423299
0.0227619
0.0240843
0.0235971
0.0242035
0.0439016
0.020468
0.066845
0.0441933
0.0200041
0.586788
3.07365
0.020786
0.0828573
0.0212184
0.36268
0.0330852
0.019671
0.033486
0.0255457
0.0324073
0.0208595
0.0240474
0.27826
0.0777043
0.279371
0.021369
0.285269
0.0611473
0.142433
0.0213753
0.0228017
0.0210336
0.0214756
0.0210725
0.021098
0.0204145
0.0786188
0.0252346
0.0208841
0.0200516
0.0206113
0.0217604
0.0733089
0.0600638
0.0203086
0.0251748
0.021524
0.0215544
0.0214386
0.0209507
0.0333733
0.0200471
0.0208878
0.0216975
0.0216035
0.0232692
0.0218668
0.726748
0.151488
0.0242999
0.0208702
0.128063
0.0200942
0.0200549
0.0220506
0.252509
0.0239029
0.0217706
0.0201477
0.0204512
0.0247637
0.0200063
0.0257624
0.0211817
0.0217291
0.0210717
0.02273
0.142707
0.0209121
0.0218352
0.0211925
0.140272
0.269164
0.0264817
0.021938
0.0266033
0.025422
0.0339842
4.30598
0.0216368
0.16592
0.0218523
1.29576
0.0221474
0.0202696
0.0200718
0.714274
0.0200266
0.0267074
0.0256409
0.156761
0.0399274
0.0223349
0.0210099
0.0209655
0.0212286
0.0277433
0.084319
0.459836
0.042311
0.021526
0.0200029
0.0225745
0.0210734
0.0208243
0.0217785
0.0423355
0.0245134
0.428946
0.0215206
0.0214391
0.033087
0.0213056
0.135098
0.0423847
0.0405601
0.11443
4.22847
0.0273103
0.020991
0.0200109
0.0216714
0.0212818
0.696456
0.0413563
0.084532
0.0202983
0.0215851
0.022871
0.0208437
4.35988
0.0374919
0.0200509
0.0200595
0.020916
0.0210807
0.0209212
0.0212555
0.282882
0.0199716
0.0219984
0.0203058
0.020587
0.0210817
0.0214578
0.0256682
0.0205817
0.0262823
0.0201403
0.225107
0.256396
0.0236828
0.241081
0.0226294
0.0218784
0.0565976
0.283699
0.0214311
0.0207259
0.0204735
0.0249834
0.0218786
0.0272708
0.174188
0.0214915
0.0219667
0.0214812
1.29445
0.233611
0.0220165
0.0205661
0.0245284
0.0392744
0.0211453
0.0643846
0.02084
0.0199644
0.0244077
0.095847
0.439456
0.342818
0.305926
0.0200398
0.0788485
0.0703942
0.0252003
0.0212226
0.0709894
0.0236853
0.151876
0.0632821
0.0208083
0.0200486
0.0214785
0.0220509
0.0200525
0.194506
0.377878
0.0201027
0.0215142
0.0218774
0.0347818
0.0212636
0.0208863
0.029153
0.0218365
0.0209121
0.328794
0.0769551
0.0681608
0.021268
0.0202319
0.0201179
0.0214425
0.0242456
0.029204
0.0208819
0.0206124
0.0225108
0.272153
0.0204619
0.021418
0.0639664
0.0209223
0.0207648
0.0213515
1.4648
0.0202124
0.0214473
0.0204653
0.0240789
0.0202233
0.0257957
0.121626
0.0214186
0.12867
0.0289439
0.211243
0.0515727
0.0209932
0.0258222
0.020857
0.0207492
0.0210046
0.499822
0.368391
0.0325221
0.0269527
0.0567031
0.0581601
0.0220372
0.0805437
0.0438261
0.0236452
0.0200647
0.924266
0.0222111
0.0206996
0.0203825
1.70142
1.37314
0.20877
0.0207178
0.0729556
0.181084
0.0250855
0.0291272
0.0237334
0.0228523
0.032273
0.355137
0.0227305
0.0222509
0.0243044
2.54397
0.585803
0.0212537
0.0213932
0.0210527
3.82647
0.023561
0.0218657
0.0467445
0.0258008
0.0346996
0.0237054
0.283898
0.0206802
1.28216
0.0220613
0.020064
0.0209909
0.0200368
0.0200761
0.0209023
0.0216933
0.622051
0.0205148
1.28884
0.0264295
0.021669
0.0207123
0.0746447
0.0212069
0.0214998
0.0228145
0.258393
0.0405384
0.0230304
0.0215313
3.57285
0.0206755
0.0415857
0.021515
0.217379
0.0296674
0.290906
0.0261373
0.0210094
0.0337027
0.538408
0.0373733
0.0205572
0.0213443
0.0344282
3.75783
0.019578
0.0455462
0.0208311
0.0253103
0.0208715
0.0200382
0.0218796
0.0221089
0.0200291
0.0350167
0.035047
0.0243021
0.109066
0.983511
0.0221774
0.257322
0.0201037
0.0864133
3.74493
0.150882
0.0200175
0.022007
0.0214934
0.236761
0.0211325
0.0208325
0.0713082
0.0214966
0.0215214
0.0221561
0.0220147
0.0212469
2.89896
0.391241
0.0540521
0.0207592
0.0214669
0.114039
0.0201118
0.0280804
0.0215874
0.0214797
0.0219807
0.0237931
0.257986
0.020785
0.0214755
0.221937
0.0215593
0.021778
0.0345035
3.88177
0.352666
0.0214304
0.0210554
3.39383
0.481793
0.163288
0.0205686
0.0319937
0.19039
0.0203434
0.0335779
0.0227301
0.495309
0.0233719
0.0215553
0.0222015
0.0200281
3.52
0.0214665
0.0204713
0.268608
0.0302435
0.224027
0.0199949
0.0225749
0.020048
0.0196568
0.0201921
0.0222731
0.0216113
0.0217993
0.0200357
0.0217277
0.0449184
0.0259705
0.0234449
0.0206089
0.0233952
0.0210805
0.282885
0.0216264
0.0220803
0.0214655
0.0200732
0.0217635
0.021581
0.0211653
0.0212331
0.0208362
0.0202015
0.295592
0.0338337
0.0212336
3.55659
0.033506
0.0216145
0.0216927
0.0221581
0.118168
0.021923
0.0200959
0.0200943
0.0200242
0.184409
0.0212975
0.0202768
0.151048
0.0200088
0.0197524
0.0247171
0.0262799
0.0797418
0.116408
0.753054
0.0201007
0.660692
0.0253887
0.0212282
0.0204231
0.0240815
0.0212831
0.0295543
0.0531864
0.0229603
0.021853
2.83138
0.0514644
0.221957
0.231009
0.20638
0.0886056
0.020494
0.431939
1.45156
0.0201208
0.694046
0.0207145
0.022331
0.117347
0.0207331
0.0383562
0.0248268
0.0227564
0.0218396
0.0481117
0.0213796
1.25792
0.021237
0.020165
0.0994847
0.0197837
0.0220658
0.0218381
0.0487581
0.021204
0.0214445
0.0228744
0.233984
0.0211939
0.0212919
0.0202071
0.0237801
0.0211809
0.0223303
0.287334
0.0209739
0.0257904
0.0216986
0.0235412
0.0230343
0.0209426
0.0219075
0.0784089
0.0215533
0.0217766
0.0242763
0.288598
0.0221061
0.0211282
0.0214253
0.0259722
0.079717
0.0223007
0.0210251
0.0209681
0.0205617
0.01964
0.0200568
0.0248125
0.0293167
0.0501164
0.021527
0.100356
0.0206572
0.0208876
3.85118
0.0401456
0.019977
0.0688424
0.021028
0.0210231
0.49205
0.021779
0.0414178
0.0197478
0.128305
0.0205349
0.0200125
0.0202464
0.230888
0.0921019
0.021525
0.126705
0.0202273
0.0209242
0.0207435
0.12114
0.021238
0.020658
0.0222338
0.0226185
0.0212726
0.0214413
0.0208088
0.0218236
0.0215094
0.0208538
0.0233319
0.020001
0.0903055
0.0561078
0.0201924
0.04621
0.0258822
0.020938
0.0206715
0.0218488
0.0207557
0.0285158
0.0246536
0.0403359
0.039993
0.0216507
0.0595353
0.128101
0.0212202
0.0216435
0.0695608
0.0234361
0.286416
0.0202119
0.0211862
0.0223794
0.0221488
0.0213938
0.025572
0.0209517
0.0217864
0.0212572
0.0234621
0.0205678
0.0985836
0.0213608
0.0240239
0.0277943
0.0209923
0.509004
0.356417
0.0230858
0.0254461
0.0283933
0.0198907
0.0523614
0.0214252
0.0335054
0.399426
1.38291
0.032628
0.0220161
0.0265466
0.0210436
0.0303268
0.020504
3.59343
0.0283137
0.0214448
0.0208159
0.0493368
0.0365516
0.0212232
0.0212218
3.53459
0.0216333
0.0206482
0.458246
0.0462671
0.0201104
0.122731
0.0203035
0.0516695
0.0484502
0.0212658
0.0214351
0.0228746
0.754733
0.0208083
0.0260589
0.0214393
0.0212747
0.0208305
0.0797823
0.0218246
0.0213367
0.0211601
0.112062
0.0263024
0.0208224
0.0197837
0.0846664
0.0211522
0.0204571
0.127222
4.1784
0.0219058
0.843449
0.0228917
0.0420675
0.0221464
0.0509957
0.519974
0.0227092
0.0206933
0.0203086
0.0241984
0.0212028
0.391595
0.0608677
0.0205297
0.0221082
0.0203283
0.0200381
2.08864
0.0212101
0.02237
0.0227115
0.0527311
0.0214538
0.0216795
0.0246647
0.532359
0.0214878
0.0213444
0.0204374
0.0205627
0.0239604
0.0401396
0.0215725
0.0211291
0.0212613
0.0210858
0.0203164
2.72807
0.0216877
0.0210577
0.0211029
0.0509922
0.0203691
0.0204596
0.0349637
0.020939
0.0343023
0.0212673
0.0214358
0.273722
3.87677
1.44516
0.0387662
0.0231462
0.0217137
3.22059
0.0206519
0.0246677
0.0199955
0.404309
0.0195494
0.0241047
0.0214621
0.684235
0.0388788
0.0294146
3.31831
0.0222644
0.0556712
0.0217146
0.0219049
2.80959
0.0332213
0.0211762
0.0202952
0.0235836
0.0269137
0.0214254
0.0212656
0.0206473
0.0199553
0.155567
0.35563
0.0217077
0.022277
3.91997
0.0888337
0.0232878
0.0222186
0.0230491
0.0242142
0.0212152
0.0222498
0.0592357
0.0209116
0.0203179
0.0215088
0.0653897
0.169783
0.0254029
0.0215345
0.021551
0.026386
0.0213472
0.0251741
0.0418791
0.0358077
0.0230942
0.0275499
0.0201137
0.0212267
0.0218288
0.019997
0.0215711
0.0208583
0.0868675
0.0210122
0.441641
0.0212955
0.0207234
0.0204836
0.0277028
0.0222757
0.0398087
0.0565539
0.0201394
2.25413
0.0230156
0.0204894
0.0198148
0.293491
0.19307
0.0198349
0.0208287
0.0207166
0.0222341
0.158469
0.0364232
0.0221478
0.0220648
0.11937
3.37156
0.0219362
0.0212175
1.58912
0.0237654
0.298463
0.0230199
0.0211523
0.0530075
0.0253878
3.87081
0.0264363
0.0536177
0.0203942
0.0209232
0.0216229
0.0216061
0.0237047
0.0216718
0.0215505
0.0207961
0.0218239
0.0215422
0.0216484
0.0213727
0.0228364
0.021856
0.0213429
0.0208074
0.0323218
0.0249846
0.0209207
0.0215111
0.147702
0.0217542
0.022702
0.0218365
0.184225
0.0204611
0.0358231
0.0228189
0.0201726
0.0211155
3.33811
0.0535959
0.0220457
0.0219835
0.0232231
0.0385861
0.0208719
0.0272122
0.0374319
0.0210595
0.0841976
0.0208337
0.0213346
0.021404
0.0218379
0.0283889
0.0516234
3.56165
0.0251452
0.0201808
0.0215023
0.0211118
0.0473005
0.0219339
0.101935
0.020823
0.0213754
0.0213591
0.0607908
0.0209622
0.0215727
0.0212723
0.114418
0.0204694
0.920975
0.0204223
0.023818
0.021283
0.0286831
0.0209956
0.0235446
0.0624392
0.0397572
0.0201901
0.0335706
0.0215083
0.021351
2.61994
0.0595912
0.0203139
0.0212468
0.0236479
0.020243
0.021161
0.0218537
0.0216924
0.0232041
0.045357
0.0221318
0.0262147
0.0395125
0.0216207
0.0210012
0.0211767
0.0238725
0.0288396
0.0214311
3.83338
0.0206598
3.2684
0.0345495
0.0201501
0.0207207
0.020701
0.0551723
0.0215404
0.0232394
0.0214766
0.0210471
0.059465
0.0229811
0.0256364
0.0216503
0.0214649
0.0226904
0.0212305
0.0229752
0.0213693
0.0234694
0.0219636
0.0218022
0.514415
0.0250511
0.109444
0.0210023
0.024331
0.0222647
0.189148
0.0599716
0.557921
0.0223766
0.019964
0.037653
0.0208481
0.414305
0.0221261
0.037175
0.0222783
3.392
2.12815
0.0231898
0.0256422
0.0207571
0.0205328
0.0218788
0.0199223
0.0217231
0.0229604
0.0207892
0.0249232
0.0447095
0.151002
0.0208985
0.0383333
0.020098
0.021188
0.021136
0.0752817
0.0216685
0.0426859
0.0217017
0.0211315
0.75482
0.0208799
0.0230655
0.0210494
0.023085
0.52412
0.0257653
2.63819
0.0214158
0.0590155
0.0229593
0.0211209
0.0212078
0.0273419
0.0239428
0.0212752
0.0227274
0.0213277
0.369116
0.0207359
4.09222
0.172987
0.0627534
0.0248447
0.0978892
0.0269204
0.019921
0.390824
0.0211868
1.23053
0.0218028
0.0226326
0.29614
0.286173
0.0266519
1.10189
0.0213856
0.170165
0.019615
1.40119
0.0201529
0.0229377
0.0371543
0.0214375
0.0207272
0.0219386
0.0212823
0.0322137
0.216027
0.0341427
0.161237
0.0207311
0.50443
0.0214422
0.0217756
0.0210294
0.0211597
0.399215
0.0216348
0.0205648
0.034097
0.0217973
0.332824
0.0699627
0.0212668
0.0430732
0.0344035
0.0208655
0.0214398
0.0235961
0.0203107
0.0476639
0.0287174
0.0224662
0.0227733
0.020447
0.0212722
0.0496756
0.0219018
0.02145
0.022257
0.0199285
0.0201154
0.247605
0.0265703
3.59875
0.026856
0.0455673
0.0257084
0.0211198
0.0256815
0.0205148
0.020985
0.177209
0.0239247
0.0236674
0.0454073
0.021701
0.402141
1.25527
0.0211289
0.0237269
0.0307831
2.94074
0.0203015
0.0203215
0.0216185
0.0256108
0.208153
0.0245958
0.0237346
0.0217612
0.0211703
0.0199328
0.252494
0.0233098
0.023058
0.481091
0.0216248
0.0227115
0.0238433
0.0214972
0.0212351
0.0210568
0.0462177
0.0900857
0.0218002
0.023035
0.46506
0.0209348
0.0219475
0.0231836
0.021589
0.387219
0.423934
0.367064
0.0752648
0.640772
0.022464
0.020845
0.101261
0.0223391
0.0261348
0.021076
0.0201854
0.321721
0.0617397
0.0210818
0.0207626
0.0275926
0.0319306
0.0232062
0.0200129
2.99374
0.0228975
0.0344313
0.0201371
0.0258892
0.0195934
0.022692
0.0252148
0.0211701
4.01842
0.0219646
0.0360018
0.0864187
0.134712
0.0782595
0.0211943
0.0521552
0.024347
0.0240209
0.0222001
0.0224124
0.0214444
0.0224605
0.27488
0.0228098
0.262066
0.020796
0.204403
0.0202852
0.0218913
1.45349
0.0245173
0.199136
0.0232076
0.022094
3.83227
3.01161
0.0208664
1.37131
0.0348944
0.020725
0.0198586
0.207403
0.875837
0.0204575
0.0202697
0.0212117
0.0202141
3.21906
0.827617
0.0195268
0.0198001
0.020863
0.305681
0.0416701
0.286697
0.0201865
3.63873
0.0215827
0.0595123
2.75
0.0239958
0.020565
0.0205673
0.292853
0.0203296
0.0210615
0.0201861
0.0245932
0.0231242
3.57816
0.0249665
0.0217608
0.0211927
0.0261353
0.189947
0.0411782
0.0211204
0.0208843
0.13253
0.0439031
0.022088
0.680525
0.0263767
0.0227796
2.55839
0.0227285
0.0255948
0.0218134
0.324016
0.0214106
0.0218007
0.200146
0.0271534
0.0210523
0.0213531
0.0196006
0.0342917
0.0926223
0.0209776
0.0202633
0.0220095
0.0556036
0.0227542
0.0201994
0.0212412
0.0207311
0.0221956
0.0381296
0.0215175
0.0209864
2.61528
0.0211124
0.650034
0.0305702
0.0326754
0.0232004
0.0221965
0.0214794
0.201709
0.0770977
0.056957
3.43734
0.0298189
0.0208753
3.297
0.0202072
0.0605829
3.25747
0.0222517
0.0211288
0.0237123
0.0605177
0.021196
0.0210537
0.490482
0.0212636
0.0222625
0.0210455
0.0217142
0.020327
0.0661254
0.104714
0.0201251
0.0210272
1.10634
0.0211879
0.0201597
0.0210011
0.0208447
0.736107
0.0229607
0.022896
0.0222785
0.021964
0.0202915
0.0331121
0.0849362
0.0263329
2.21147
0.0224281
0.0233677
3.36643
0.0208871
0.0203655
0.0211143
0.0208458
0.0218007
0.0197618
0.0222647
3.22084
0.0211783
0.0210978
0.0227528
0.020825
0.133112
0.0216669
2.9182
0.175828
0.0255132
0.029108
0.302195
0.0235179
0.0211864
0.0230257
0.0209515
0.0223697
0.0215085
0.0217278
3.10689
0.0202822
0.0213225
0.0403233
0.163924
0.0216926
0.0208433
0.185831
0.0221765
0.0266999
0.0213128
0.0208542
0.0210482
0.260471
0.021435
0.166489
0.0475709
0.0214105
0.0208343
0.0210998
0.0242495
0.228962
0.0201334
0.0377804
0.0211017
2.87518
0.29825
0.0221986
0.162426
0.0215468
0.0228925
0.0238101
2.57933
0.0228329
0.025024
0.0260613
0.416033
0.0216471
0.0337459
0.0214519
0.0453332
0.125033
0.141388
0.0209837
0.027969
0.150693
0.0756668
0.0227525
0.0238106
0.239199
0.278175
0.0208311
0.0472529
0.0212011
0.0238165
0.0214544
0.0223679
0.022275
0.21584
0.021615
0.0217981
0.0501107
0.420686
0.169322
0.101655
0.577101
0.0207949
0.232376
0.054144
0.0210416
0.0211216
0.364765
0.0230909
0.0214882
0.0212446
0.0403895
0.0207002
0.0212553
4.14941
0.021459
0.0217326
0.0210433
0.0214038
0.0225441
0.0204696
2.82967
0.0239494
0.0228027
0.0204966
0.027977
1.09367
0.0209198
0.021731
0.232093
0.165517
0.0213558
0.0240882
0.0207114
0.0209349
0.0391715
0.152941
0.0209359
0.0211014
0.211652
0.170894
0.991206
0.0302832
0.0222372
0.410082
0.020748
0.0246604
0.0239664
0.0205467
0.43933
1.04836
0.0361582
0.0299744
1.44909
0.0198613
0.019795
0.0225347
0.0345763
0.701649
0.0203245
0.0362246
0.786977
3.96897
0.0216308
0.0224881
1.88968
0.0210108
0.0237395
0.389451
0.0209637
0.0211912
0.0204861
0.377054
0.0208105
0.0239269
0.0218365
0.0351564
0.0267267
0.420825
0.0211927
0.0211362
0.0274129
0.0217087
0.0234069
0.0221978
0.0832124
0.0987873
0.0209947
0.0213344
3.39961
3.83156
0.718768
0.0207585
0.0213598
0.0226742
0.0215356
0.0212699
0.0214332
0.0214244
0.0218707
0.0206748
0.020774
0.0548112
0.0233254
0.0271807
0.801633
0.0563576
0.0437618
0.0240822
0.0424105
0.106451
0.0292841
0.0229038
0.0255852
0.0210756
0.161015
0.0200225
0.020272
0.0206613
0.540055
0.0209166
0.542286
0.0217195
0.0201246
0.0449427
0.0211796
0.0211473
0.021173
0.0306945
0.149026
0.0216375
0.0205445
0.0226591
0.964893
0.0432019
0.325286
0.0210759
0.0316215
0.0215317
0.0215361
0.0201717
0.0207266
0.0213592
0.0218002
0.308676
0.0223601
0.0225427
0.0996937
1.11697
0.108088
0.0208583
0.0822807
0.0309703
0.750201
0.0205476
0.0209673
0.0230107
0.111806
0.0197929
0.0213483
0.0207184
0.0203315
0.10565
0.0221524
0.0615813
0.0217438
0.0197761
0.0241935
0.021433
0.548889
0.0210553
0.024238
0.0217718
0.0266134
0.0220405
0.0530659
0.306181
0.0212313
0.0413751
4.10217
0.0211202
0.0215169
0.0379804
0.0197273
1.51917
0.0272524
0.0209529
0.0501018
0.0200071
0.0216811
0.0215106
0.0207732
0.0202015
0.0221417
0.0206578
0.0207166
0.0215304
0.0217623
0.0431083
0.0200871
0.112292
0.0205313
0.0208976
0.0271234
0.0449125
0.0219946
0.0197262
0.0211944
0.0223247
0.0425627
1.12769
0.0313084
0.0219136
0.0219489
0.0207637
0.0290457
0.0209328
0.0222863
4.09459
0.330079
0.0413506
0.02108
0.0217103
0.0221376
0.0197346
0.0390367
0.0201131
0.101349
0.0219632
0.147807
0.02621
4.03602
0.021585
0.0594301
0.990942
0.379216
0.0460163
0.0250218
0.35214
3.76636
0.0218585
0.0322117
3.72259
0.0204381
0.0207502
0.021333
0.0239628
0.057323
0.0214518
0.023848
0.636778
0.0195308
0.0214645
3.48285
0.151532
0.0824318
0.0633655
0.330277
0.0221307
0.0612142
0.0233448
0.0236973
0.443012
0.0223922
3.1194
0.0346729
0.023636
0.0213918
0.0224564
0.0244444
0.0205369
1.34429
0.0197874
0.0212428
0.021311
0.462856
3.61985
0.0275928
0.0212638
0.0222527
0.0204604
3.25974
0.0209394
0.0219701
0.0234581
0.0496564
0.0206978
0.0642101
2.65807
0.271798
0.021849
0.191837
0.0205743
0.347476
0.0198244
0.0470507
0.0217899
0.0544746
0.0258216
1.05827
0.102666
0.022649
0.0228133
0.0299743
0.0235636
0.0211055
0.0207068
0.0241608
0.0217608
0.229612
0.0196608
0.0210722
0.0214316
0.0214034
0.214829
0.0207465
0.0201309
0.0214867
0.289216
0.0266183
0.0483331
0.0226216
0.0225154
0.0697491
0.020587
0.0213119
0.0652748
0.0396819
0.0201331
0.0362887
0.0229021
0.223445
0.0212463
0.032987
0.0221397
0.0212145
0.0202259
0.0201737
0.0211601
0.0210745
1.15752
0.0585116
0.0215366
0.0213202
0.0211347
0.0221705
0.0264193
3.31291
0.0214587
0.0322622
0.0238962
0.268183
0.0216134
0.042266
0.0212951
0.0212541
0.027275
0.0212168
0.0214349
0.0206425
0.0199994
3.73714
0.0213849
0.0207377
0.0424483
0.173595
0.0376814
0.0217322
0.019886
0.0238887
2.89332
0.0232054
0.0216899
0.0215615
0.965397
0.0218528
0.0211172
0.19572
0.0207437
0.0248186
0.0227369
0.0215373
0.0201463
0.0482688
0.0251873
0.0206286
0.0212794
0.0214036
0.0208963
0.440723
0.0226617
0.0213974
0.0197664
0.0219471
0.020178
0.0212384
0.0625948
0.0206464
0.0239376
0.0232287
1.5535
0.019735
0.0224146
0.0475859
0.0265766
0.145101
0.0209904
0.0215309
0.121485
0.0214036
0.0201596
0.238855
0.0214035
1.14682
0.278123
0.0550783
3.28093
0.021417
0.0270572
0.264343
0.0212398
0.0199982
0.360822
0.4608
0.020894
0.0201302
0.022625
0.0207175
0.223423
0.0456975
0.300842
0.021484
0.0216431
0.0212192
0.021098
3.28776
0.439482
3.61221
0.0245386
0.0222912
0.640282
0.0213369
0.020893
0.0227409
0.0209276
0.0218389
0.159671
0.0197304
0.51221
0.0219296
0.0220597
0.0213954
0.0261079
0.0207383
3.27879
0.0206841
0.0212004
0.0225312
0.0201591
3.19613
0.0243944
0.0248193
2.65156
0.199898
0.0324118
3.29881
0.0212912
2.99426
0.0265262
0.0207688
0.0223077
0.0216107
0.425695
3.18746
0.02149
0.0235296
0.443346
0.0210741
0.0205702
0.0234071
2.68165
0.524021
0.0215014
0.0221223
0.0847239
0.0230703
0.0562708
0.0558357
0.0642124
0.0201447
4.00126
0.0215738
0.208096
0.0559712
0.0334919
3.88963
3.27381
3.26692
0.0203632
1.16892
0.0199372
0.0197752
0.549261
0.0197681
0.0221519
0.0211443
0.0604343
0.0206132
0.113476
0.0201623
0.0286824
0.47601
0.0259278
0.0248418
0.421358
0.0218042
0.0202387
0.0218493
0.0776808
0.0235554
0.112833
0.0214183
0.0259565
0.0217174
0.157429
0.0214212
0.0215972
0.02137
0.54673
0.030254
0.0214974
2.88908
0.0210882
0.0213966
0.023979
1.45908
0.0213959
3.92878
0.0215224
2.57958
0.0214169
0.0390955
0.0209886
0.0459698
0.0214265
0.0592319
0.0246231
0.0362587
0.0208936
0.0216839
3.1582
0.0203648
0.0238766
0.0271975
0.0200622
0.0647789
3.63477
0.109945
0.0221092
0.0197418
0.0211845
0.104243
0.0232987
3.78177
0.0239892
0.211327
0.0212958
0.346419
0.0205366
0.031921
0.0970316
0.022796
0.150225
0.0231449
2.53746
0.1485
0.0207838
1.46315
0.0223017
0.0211449
0.0228242
0.0750955
0.0230946
0.147509
0.0240382
0.0922564
0.0392521
0.0537765
0.0425436
1.34025
0.0214586
0.0215233
2.66019
2.56834
0.0333613
0.023444
2.72
0.24825
0.0212949
0.0214319
0.0212117
1.19606
0.0207147
0.0209544
0.0323224
0.0529364
0.0198229
0.0206136
0.0221752
3.97723
0.0205047
0.0239663
0.0198228
0.102923
0.0220193
1.24658
0.021822
0.0206495
0.0213342
0.0202655
0.243908
0.0332554
0.841624
0.0213272
0.0284629
0.0202029
0.223543
0.132714
0.0442415
0.0208053
0.0521791
0.0208855
0.0215824
3.40698
0.0210816
0.0239807
0.443124
0.0201468
0.0920762
0.0207544
0.0198333
0.0215474
0.141792
0.0208061
3.92681
0.0992245
0.149565
0.286631
0.0207117
0.26896
0.0541162
3.98033
0.0346994
2.35098
0.167414
0.021565
0.0349721
0.0216856
0.0283445
0.0209943
0.0228351
0.0212038
0.0257371
0.0832302
3.98983
0.0239198
0.0231878
0.749443
0.361035
0.0212071
0.0214757
0.0665448
0.0348446
0.0204167
0.866426
0.0364382
0.0221551
0.0203646
0.022389
2.60848
0.0216159
0.0510337
0.0195993
0.66952
3.92606
0.0904603
0.0221931
0.0214128
0.0211627
0.0212873
0.0214487
0.0244458
0.0222604
0.0215525
3.75137
0.0208361
0.0215345
0.0210656
0.289096
3.81673
0.0212457
0.0213986
2.79018
0.0204834
4.06917
0.021519
0.0213694
0.0197275
0.0216587
0.0205983
0.0227531
0.0202941
0.165733
0.0218202
0.188237
0.0213547
0.187939
0.0214692
0.0244455
0.21806
0.180758
0.02124
0.021446
0.0334204
0.0197264
0.515686
0.380701
0.0224812
0.0207595
0.0212329
0.0203201
0.0599632
0.203191
0.0413598
0.422761
0.0389689
0.0214358
0.0211837
0.0205285
0.874918
2.52267
0.0219919
0.0211351
0.0208244
0.0271241
0.0213805
3.17951
2.52302
0.030574
0.0202651
2.33982
0.105265
0.0214437
0.343807
0.0217323
0.533234
0.0318742
0.0319694
0.0260842
1.51037
0.0320158
3.76692
0.0208544
0.020525
0.0206994
0.0203098
0.0215004
0.0282871
0.0204991
0.0255398
0.0199996
0.267603
0.0212218
0.0289347
2.80861
0.0220736
0.0198043
0.0285696
3.97195
0.0212559
0.0206032
0.170667
4.02018
0.310165
0.0214124
0.0197376
3.16653
0.103799
0.023729
0.0475304
0.0213909
0.0315081
0.021499
0.10521
0.0206704
0.0209968
0.417129
0.0204201
0.0227505
3.40439
0.0561867
0.0206391
0.0212515
0.0207547
2.40631
0.0241352
0.0260503
0.0214269
0.0207881
0.101141
0.0298574
0.0211603
0.0212944
0.0197336
0.0226899
0.0206386
0.0227389
0.185889
3.15286
0.0232418
0.0382757
0.0208017
0.0447148
0.0212184
0.0215279
0.0207712
0.261142
0.0405053
0.0200373
0.0226972
1.21347
0.0359755
3.79533
0.0453297
0.0212945
0.0207831
0.0267141
0.0225457
3.88728
0.0204977
3.21413
3.92641
0.0209009
0.0365215
3.40475
0.025138
0.297463
0.0895901
0.0215236
3.92338
0.0255767
0.0204408
2.96678
3.12833
0.0805611
0.0216901
3.2193
0.550351
0.0213417
0.165038
3.23296
0.0213815
0.0207112
0.0218128
0.0200228
0.0215584
0.355487
4.16542
0.0214248
0.024566
2.97768
2.85031
0.0320606
0.269916
0.0210738
0.0297749
3.94515
0.0565988
2.55046
3.8775
0.0212543
0.0214324
0.0210519
0.0221215
3.9109
2.76599
0.0209722
0.0344794
3.87911
0.0584118
0.0538609
0.021135
0.0214715
0.0219335
0.845985
0.0221512
0.0345421
0.030265
0.0220101
0.425113
0.023456
0.145582
0.118826
3.79108
0.0212157
0.0212038
0.0225533
0.0336857
0.220456
0.374195
0.021865
2.73339
3.96515
0.0321772
0.0310621
3.62154
0.30773
0.294226
3.19125
0.0213265
0.363505
0.411972
0.0292516
0.0270139
0.106384
0.0223831
0.0963208
0.0232518
0.0213311