/*--------------------------------*- C++ -*----------------------------------*\
| =========                 |                                                 |
| \\      /  F ield         | OpenFOAM: The Open Source CFD Toolbox           |
|  \\    /   O peration     | Version:  v2012                                 |
|   \\  /    A nd           | Website:  www.openfoam.com                      |
|    \\/     M anipulation  |                                                 |
\*---------------------------------------------------------------------------*/
FoamFile
{
    version     2.0;
    format      ascii;
    class       volScalarField;
    location    "550";
    object      k;
}
// * * * * * * * * * * * * * * * * * * * * * * * * * * * * * * * * * * * * * //

dimensions      [0 2 -2 0 0 0 0];


internalField   nonuniform List<scalar> 
18758
(
0.000176615
0.000728387
0.000147792
0.000177028
0.000159922
0.00013965
0.000143484
0.000152036
0.000158427
0.000157443
0.000846965
0.00471642
0.00377404
0.000151252
0.000143287
0.000141883
0.00427907
0.000130633
0.00014316
0.000155903
0.00163445
0.000250876
0.000140672
0.000139809
0.000306147
0.000277932
0.00450471
0.000224765
0.000194991
0.00140057
0.0266784
0.00277209
0.000151706
0.00100408
0.000161505
0.00231539
0.00484965
0.000160448
0.013418
0.000134615
0.00586949
0.000159957
0.0058724
0.000145564
0.00014494
0.0305052
0.000158275
0.000195135
0.0263494
0.000177984
0.00196332
0.00233441
0.000178491
0.000156238
0.000215422
0.00192115
0.000139504
0.000155391
0.000191499
0.000139265
0.000146921
0.000145045
0.00073126
0.0126385
0.000147268
0.0208836
0.000146791
0.000133253
0.000224558
0.000130795
0.00366304
0.000301401
0.000143189
0.000159878
0.000197084
0.0267465
0.000519601
0.00390362
0.000158548
0.00571056
0.000197526
0.0148869
0.00399691
0.00017577
0.000150598
0.00020806
0.000155763
0.000160891
0.000630988
0.000207241
0.0241742
0.000153319
0.000187614
0.0253471
0.000143062
0.000139029
0.000132339
0.000181503
0.00384247
0.000142334
0.030865
0.000164969
0.000133192
0.000138996
0.0179305
0.00068921
0.000195566
0.0209808
0.000470312
0.00388397
0.00014206
0.0105451
0.000168568
0.000145953
0.000165093
0.0111505
0.000180595
0.000138042
0.0287757
0.000154611
0.000144843
0.000541945
0.000151146
0.000138057
0.0292081
0.000156478
0.000143389
0.000138062
0.000218842
0.0281454
0.00019245
0.00015335
0.000159164
0.026115
0.000134898
0.000145812
0.00147699
0.000149968
0.000242955
0.000196817
0.000179584
0.00710524
0.000174581
0.000478776
0.0295336
0.000177864
0.023024
0.000212115
0.000869761
0.0206201
0.0320306
0.0254846
0.000146458
0.000162465
0.00557818
0.000578249
0.000187451
0.000220563
0.000179538
0.000823262
0.0367364
0.000139374
0.017684
0.0212195
0.0220608
0.000139957
0.00013927
0.0392846
0.0292377
0.00617975
0.024035
0.000148333
0.000199033
0.0065795
0.000508737
0.000142628
0.000142985
0.000255492
0.000646803
0.000149103
0.000132346
0.000156522
0.00021481
0.000150734
0.0413601
0.000143601
0.0015711
0.000172656
0.0245437
0.0078399
0.024927
0.000143534
0.000191106
0.000358052
0.000131467
0.000150478
0.000266358
0.000146279
0.0250527
0.000141207
0.000148344
0.000227044
0.000249948
0.000141826
0.000142099
0.0173313
0.000142535
0.000163547
0.0303221
0.025807
0.000144605
0.000188536
0.000150513
0.000150265
0.000153992
0.000132549
0.000144572
0.000187969
0.000136749
0.00758412
0.000345156
0.000142022
0.000173909
0.000228769
0.000255467
0.00323238
0.000201048
0.000205504
0.0378195
0.000142286
0.000278711
0.000177795
0.000456129
0.000147866
0.000140735
0.000142486
0.000199519
0.027645
0.000295247
0.000149166
0.000142211
0.000194664
0.000225991
0.000146098
0.029416
0.000281541
0.000140806
0.000138256
0.000143082
0.000142395
0.0240388
0.000144648
0.00151027
0.000143147
0.000144434
0.000318012
0.000139669
0.000316941
0.000142938
0.0061439
0.000169967
0.000138376
0.000140889
0.000189256
0.0205456
0.0207875
0.000138497
0.000234409
0.000146593
0.000145802
0.0398729
0.000945849
0.00014562
0.0001416
0.000149657
0.000153472
0.000157561
0.000135622
0.000151271
0.000151245
0.000138242
0.000153373
0.00014241
0.0233647
0.00014337
0.000141392
0.000130275
0.000220462
0.000138918
0.000138923
0.000147264
0.000149409
0.000139321
0.000142419
0.0001455
0.000149063
0.00335852
0.000157746
0.000141446
0.0307667
0.000154138
0.000142148
0.00014218
0.00964008
0.00239828
0.000132301
0.000224523
0.000719906
0.000145988
0.00133909
0.000142439
0.0168205
0.000251526
0.000201353
0.00019402
0.00138797
0.000132959
0.00712693
0.000238377
0.000146775
0.000198955
0.000177329
0.0268845
0.000140723
0.000133016
0.0265172
0.00590169
0.000139596
0.0285383
0.000186624
0.000192564
0.0262234
0.000140655
0.000140113
0.000142714
0.000145628
0.000149773
0.000158132
0.000152123
0.000142944
0.000149521
0.000149078
0.000618074
0.00996606
0.000148963
0.00804084
0.00403569
0.000139423
0.000164951
0.00360715
0.000303829
0.00643846
0.000267907
0.000143588
0.0272694
0.0121866
0.000177206
0.000149044
0.000188678
0.000150773
0.000144688
0.000290888
0.000386918
0.00600913
0.000212286
0.00040959
0.000140809
0.000156725
0.000157376
0.000181845
0.0268566
0.00238123
0.000489869
0.000559921
0.00658073
0.000256883
0.000144749
0.0138021
0.000214623
0.00180857
0.00576072
0.00014236
0.000139615
0.000260799
0.00601733
0.00611922
0.0428337
0.0286245
0.000149283
0.00540227
0.00454889
0.000141967
0.000151059
0.00015372
0.000151439
0.000145235
0.000151417
0.00014418
0.00015659
0.000146146
0.000143437
0.000161852
0.0186863
0.000159801
0.0135819
0.0158961
0.0335244
0.0201524
0.000213235
0.000146584
0.000140354
0.00569731
0.000151062
0.000149335
0.000860207
0.00018101
0.00334214
0.000139827
0.000606288
0.000144476
0.000154318
0.000131949
0.0261759
0.0163792
0.00657506
0.000145075
0.0268364
0.000186629
0.000144167
0.000149917
0.000144965
0.000469505
0.000145497
0.000142002
0.0293744
0.000160121
0.000149418
0.000142853
0.000151876
0.000154938
0.0119127
0.000282117
0.000148441
0.0167748
0.000131883
0.000162033
0.000204091
0.000143687
0.0269929
0.000148185
0.000155277
0.000147268
0.00127248
0.000153752
0.000144119
0.0281306
0.00232729
0.000130326
0.000156727
0.000153885
0.000141846
0.000143466
0.000151018
0.0296607
0.0338051
0.000147399
0.000166826
0.000488083
0.000254262
0.00447526
0.000280093
0.00501395
0.000137447
0.000209884
0.000189753
0.000161978
0.000151618
0.00767587
0.00107391
0.00017678
0.00013999
0.000143516
0.000138971
0.000143668
0.000138933
0.000143794
0.00278482
0.000148864
0.000131523
0.000185685
0.000152378
0.000147427
0.000134555
0.000153096
0.00113255
0.00343597
0.000142702
0.00245402
0.000142263
0.000160037
0.000215053
0.0337595
0.000960432
0.00014302
0.000143664
0.0335568
0.0268678
0.000336337
0.000139657
0.000430256
0.0248763
0.000130254
0.000140994
0.0370532
0.000154094
0.000198408
0.000320413
0.00015255
0.000166769
0.00013834
0.000142083
0.000152678
0.000143322
0.000142051
0.000146982
0.00645518
0.000132138
0.00355299
0.000460274
0.00013032
0.000132144
0.000149957
0.000157028
0.000164546
0.000269278
0.000142395
0.0092415
0.000160178
0.000162065
0.000140956
0.000142448
0.00014405
0.000147591
0.000147481
0.0310644
0.0396642
0.000138178
0.000141807
0.000149208
0.0386801
0.000132072
0.000132827
0.000144028
0.000131596
0.000141024
0.000140743
0.000152242
0.000141843
0.000193346
0.00014232
0.000135475
0.000214807
0.0340644
0.000167565
0.000143713
0.000142558
0.000148167
0.000142625
0.000151656
0.000492915
0.00547441
0.000149259
0.0020117
0.000142427
0.000165871
0.000143959
0.00014146
0.000178375
0.000130812
0.000143592
0.00538959
0.000147261
0.000150644
0.000211648
0.000143471
0.000143328
0.0246899
0.000137913
0.00320555
0.00103802
0.000142933
0.000147536
0.000173904
0.000152937
0.000164793
0.000142407
0.00959075
0.00377865
0.00544455
0.000138511
0.0316429
0.000131364
0.000144947
0.000142338
0.00017711
0.0162492
0.000240831
0.000144708
0.000150493
0.000153612
0.000839902
0.000623347
0.000141201
0.00024226
0.000154408
0.0276986
0.000158926
0.000231341
0.000139615
0.00017707
0.000181263
0.000142799
0.000139679
0.000132118
0.000139009
0.000157407
0.000273748
0.00131123
0.00483297
0.000220427
0.000154883
0.00014243
0.000137874
0.00375038
0.0002841
0.000134855
0.000174288
0.0257077
0.0309671
0.000146215
0.000145326
0.000178096
0.0036531
0.000131266
0.00366253
0.00014382
0.000155278
0.000161808
0.000144949
0.00014751
0.000147499
0.000138521
0.000148991
0.000285115
0.000178228
0.00723902
0.000149746
0.000141248
0.018128
0.000133056
0.0367388
0.00704693
0.000143994
0.0011528
0.000153956
0.000144289
0.00123781
0.00651643
0.00627618
0.0239569
0.00015252
0.00235562
0.000132208
0.00927061
0.0335173
0.000173971
0.000143782
0.00643212
0.000154032
0.000194815
0.000400723
0.036441
0.000145998
0.00476508
0.000141623
0.000175555
0.000197833
0.000140906
0.000162018
0.000479921
0.00448462
0.000159475
0.00015266
0.000131543
0.000149026
0.000151575
0.000171895
0.000203599
0.000141933
0.0219212
0.000154234
0.000145741
0.000157131
0.000131846
0.00030104
0.00014233
0.000139065
0.0375096
0.000138042
0.000151946
0.00577469
0.000187166
0.000187548
0.000143799
0.000145551
0.000179684
0.000145377
0.00397193
0.000153763
0.000154583
0.000150289
0.000145592
0.000131396
0.039006
0.000131849
0.040132
0.000234815
0.000149319
0.00921526
0.000139896
0.000185088
0.000158957
0.00885021
0.000153454
0.0024056
0.00458623
0.000145374
0.00573301
0.000135736
0.000384121
0.000145541
0.000148203
0.00357911
0.00581576
0.000142194
0.000147187
0.000151955
0.000138019
0.00014373
0.00732074
0.0298382
0.000141612
0.000137882
0.000135831
0.00840269
0.000228298
0.000801326
0.000138464
0.000245265
0.000148182
0.000145708
0.000160356
0.00389128
0.000141214
0.000175047
0.000290665
0.000144838
0.00152054
0.000144152
0.000158894
0.000141216
0.000138488
0.000156886
0.000145952
0.000182288
0.000143561
0.0258709
0.000146327
0.000154061
0.000193648
0.00399942
0.000174728
0.000141335
0.00014552
0.00494136
0.000255195
0.000189849
0.000139631
0.000142335
0.000159672
0.018221
0.00574722
0.000141193
0.000142137
0.000149748
0.000146917
0.000148935
0.000142622
0.000144246
0.00496423
0.000142303
0.00014341
0.00475646
0.000138456
0.000290373
0.000206414
0.000667157
0.0174242
0.0068902
0.0301406
0.000142658
0.000142461
0.000153826
0.000141413
0.000141279
0.00013894
0.000140665
0.00014882
0.0184415
0.00021452
0.00030816
0.00015207
0.00014193
0.000160713
0.000161514
0.000184087
0.000146351
0.000150185
0.000138308
0.0296431
0.00031151
0.00603772
0.000147685
0.000198611
0.000214365
0.00147538
0.0190774
0.00158893
0.000151494
0.000154264
0.000135991
0.000503128
0.000146841
0.000132809
0.000193038
0.00261831
0.00014233
0.00172934
0.00168995
0.000142496
0.000142305
0.000142574
0.000144487
0.000143444
0.000151679
0.00016139
0.000143569
0.000146979
0.00547822
0.0298804
0.000143071
0.00770637
0.000248276
0.000149986
0.00014581
0.000141794
0.000137961
0.00015301
0.000149844
0.000143984
0.000147604
0.000151234
0.000146649
0.00259865
0.000157811
0.000142984
0.000144577
0.0112534
0.000146173
0.000132764
0.0192585
0.00014136
0.000165581
0.000156907
0.000143446
0.000139478
0.00013792
0.000156638
0.000170843
0.000144136
0.00721726
0.000185734
0.000208565
0.00126631
0.000149486
0.000582436
0.000132209
0.000530294
0.00014946
0.00014362
0.000220752
0.00028962
0.000147399
0.000509779
0.000297139
0.000138703
0.000160892
0.000132819
0.000149431
0.000157977
0.000149569
0.000142877
0.000667612
0.000141038
0.000141653
0.00417706
0.000141422
0.00014128
0.000139489
0.00127797
0.00014483
0.000144869
0.000160986
0.00028855
0.00621257
0.000310098
0.00584058
0.000142271
0.000131698
0.000143515
0.0302728
0.00014909
0.000141153
0.000152558
0.000137915
0.000372637
0.000147052
0.000145831
0.000290167
0.000142292
0.00018655
0.028961
0.000131675
0.000143483
0.000543997
0.000153307
0.0375132
0.0103468
0.000137832
0.00014435
0.00851166
0.000138599
0.000152646
0.00655091
0.000136019
0.00310835
0.000142497
0.000144154
0.000143322
0.000161378
0.000149803
0.00545997
0.000154344
0.000140791
0.00303339
0.00443674
0.000171403
0.000169898
0.00059342
0.0227104
0.000273152
0.000131285
0.0229528
0.000147481
0.0374435
0.00480242
0.000141593
0.000168599
0.000147234
0.00390622
0.000139627
0.0136334
0.000141414
0.0002949
0.000211574
0.000139895
0.000131568
0.000142683
0.000493787
0.000382936
0.000143933
0.00604439
0.000146248
0.000141221
0.00259595
0.000143132
0.000254693
0.000139972
0.000153031
0.000140584
0.000140027
0.00014086
0.000139692
0.000198878
0.000172979
0.000165
0.00016396
0.000147691
0.000142798
0.00561275
0.000142653
0.00498351
0.000145494
0.00405028
0.000157076
0.000760449
0.000139446
0.000140585
0.000141062
0.022717
0.00014426
0.00745457
0.000186372
0.000143587
0.000156667
0.000142618
0.00013813
0.000154163
0.000141612
0.00496754
0.000144063
0.000151912
0.00014367
0.000151448
0.00759933
0.00529237
0.000145448
0.000139552
0.000145426
0.000147378
0.000141975
0.000155549
0.000149099
0.000142594
0.000137577
0.00013905
0.000227675
0.000197763
0.000145828
0.000137759
0.0133503
0.000150342
0.00537667
0.000320742
0.00014842
0.0168307
0.000152729
0.000139581
0.000142567
0.000152993
0.000218279
0.000138343
0.000164748
0.00570295
0.0001994
0.00845378
0.048749
0.0319864
0.00016656
0.00014593
0.000144441
0.00748693
0.000137751
0.00014613
0.000161531
0.000961037
0.000143651
0.00014008
0.0276845
0.000153145
0.000152706
0.000154233
0.000153112
0.00019808
0.000144441
0.000153781
0.000143857
0.000168105
0.00015543
0.000147682
0.00014734
0.00650162
0.000147686
0.000142831
0.00739082
0.000131603
0.00014286
0.000145554
0.000149893
0.000146666
0.000461256
0.000211074
0.00747033
0.00216781
0.0149627
0.00564167
0.000150759
0.0216419
0.00781949
0.000145316
0.000149165
0.000146929
0.000144495
0.00015015
0.000149981
0.000203828
0.000228465
0.000146294
0.000135473
0.000179409
0.000155348
0.00510328
0.00014277
0.000149395
0.000142079
0.000312151
0.00288914
0.000161198
0.0190694
0.00014233
0.000142185
0.000194843
0.000170073
0.000141854
0.000220707
0.000147723
0.000168895
0.00379492
0.000203247
0.000167517
0.000146633
0.000147754
0.00014865
0.000138849
0.00676206
0.00019584
0.0241629
0.000490536
0.0234179
0.000147558
0.0192044
0.0283927
0.0480269
0.000206449
0.00122723
0.000158449
0.00514555
0.000210467
0.000170769
0.000130587
0.000142666
0.000145627
0.000177103
0.000139557
0.000144917
0.000363949
0.0353143
0.0130921
0.00773208
0.000195133
0.00961272
0.000176029
0.00015459
0.000142864
0.0363973
0.000268513
0.000140744
0.00016147
0.0252013
0.0273881
0.0264382
0.000165445
0.000178565
0.000131758
0.0354349
0.000147664
0.00603209
0.00253714
0.000166263
0.000215133
0.000212122
0.000144249
0.000143309
0.00395378
0.00148092
0.000227043
0.000147593
0.000144089
0.00015476
0.00564564
0.000163826
0.00686573
0.000148286
0.00593449
0.00445038
0.000156891
0.00438279
0.000197475
0.0313875
0.000131762
0.000174208
0.0351838
0.000159478
0.000141974
0.00572137
0.0052494
0.000142392
0.000142606
0.00137181
0.000151083
0.000149097
0.000323461
0.00313587
0.00014601
0.000160558
0.00513956
0.000161845
0.000152848
0.000152469
0.00660936
0.000156888
0.000140461
0.00014146
0.000520593
0.000139233
0.0321373
0.000136906
0.000138535
0.00722522
0.000146359
0.000142419
0.000442563
0.000131385
0.000152927
0.000137692
0.000142365
0.000144799
0.00019644
0.000145392
0.00611711
0.000215543
0.00879238
0.0366773
0.000154369
0.000137801
0.00013924
0.0346855
0.000157
0.000143958
0.00602056
0.000163559
0.00932215
0.000136599
0.000136737
0.000137812
0.000141315
0.000144442
0.000134156
0.000149654
0.000150869
0.000143154
0.00308362
0.000163203
0.00698141
0.000148578
0.00013778
0.000164209
0.0145604
0.0184343
0.00422424
0.0136109
0.00746543
0.000218333
0.0243838
0.000151229
0.000177816
0.000175145
0.028693
0.000141234
0.00805082
0.00166044
0.000236643
0.000142749
0.00483948
0.000141732
0.000142576
0.00014454
0.000162071
0.00819418
0.000340132
0.000145845
0.000130998
0.000138796
0.000134774
0.000174925
0.000143394
0.0266555
0.000188291
0.000194534
0.000147843
0.000142431
0.000133795
0.0323728
0.000231271
0.000144479
0.000142424
0.00039438
0.000134655
0.000143488
0.000135958
0.000144277
0.00014464
0.000145506
0.000137792
0.000440749
0.000152163
0.000126867
0.000163655
0.000146851
0.00023768
0.000145923
0.00081827
0.000146947
0.000178842
0.000366623
0.00523546
0.00017503
0.00020999
0.0321924
0.000152438
0.000166
0.000152717
0.000142425
0.00013866
0.000140516
0.000217942
0.000167539
0.000153926
0.000217793
0.000138401
0.000145806
0.00016742
0.00441614
0.000131258
0.000173582
0.000265644
0.000207213
0.000248626
0.00014901
0.000146686
0.0268072
0.000171539
0.000139867
0.000142367
0.00021204
0.000137615
0.000138423
0.0297797
0.000185237
0.000150791
0.000149679
0.000147213
0.0103864
0.000153504
0.0322428
0.0093573
0.000142797
0.000141921
0.00729749
0.000163825
0.00017078
0.000150283
0.00018219
0.000166708
0.000139637
0.000155354
0.000249529
0.000169921
0.0362408
0.00245673
0.000166603
0.00765148
0.00804108
0.000140406
0.00555696
0.0147528
0.000154244
0.0419055
0.000146635
0.000234904
0.000197598
0.00333339
0.000178854
0.000653581
0.000162516
0.00410865
0.00014183
0.000132849
0.0386244
0.000153542
0.000142343
0.000142217
0.000147255
0.000134263
0.000149413
0.00014136
0.000142562
0.0316073
0.000534573
0.000142489
0.000147039
0.00771471
0.00684156
0.00013158
0.000253186
0.000773973
0.000176013
0.000145494
0.000140792
0.0319941
0.000147408
0.00018147
0.000201105
0.000138537
0.000167975
0.0270051
0.000142666
0.00606793
0.000899817
0.0324219
0.000149153
0.000142592
0.000143217
0.000144468
0.000142304
0.00630054
0.000268581
0.000137902
0.00340314
0.000331567
0.000149589
0.000145956
0.000142244
0.00448337
0.0303941
0.000233853
0.000200936
0.000152141
0.0216563
0.00773331
0.000138676
0.000142481
0.000157381
0.000166874
0.028127
0.00565514
0.00014041
0.00287281
0.00767796
0.000156558
0.000139937
0.000146051
0.000154645
0.000141879
0.000149572
0.000138369
0.000407283
0.00518135
0.00014492
0.000146839
0.00016439
0.000138593
0.000142604
0.000147322
0.00524047
0.000137958
0.000151362
0.0341123
0.000241962
0.000225334
0.000195734
0.000147208
0.000147061
0.000148902
0.00013755
0.000141357
0.000149401
0.00316403
0.000176995
0.00015021
0.000213264
0.000138116
0.000377599
0.00107479
0.000143578
0.0379803
0.000140716
0.000151209
0.00023133
0.0269583
0.000154963
0.000153301
0.000153213
0.000310489
0.000132014
0.00032318
0.00545476
0.000138172
0.000196269
0.00466033
0.000145103
0.000150793
0.00398709
0.000192193
0.000146906
0.00349767
0.000154583
0.000142521
0.000342343
0.000243925
0.000415184
0.000140776
0.00108274
0.000170322
0.000133596
0.000178357
0.000161138
0.000146061
0.000198964
0.00442523
0.00194887
0.000180383
0.000252354
0.000138041
0.000712421
0.00686164
0.000246258
0.000313649
0.000145159
0.00768505
0.000145203
0.000141846
0.000176425
0.000149647
0.000355205
0.00626537
0.00014679
0.00583298
0.0147398
0.0287929
0.000159827
0.000190362
0.000131276
0.000146959
0.000152771
0.00013109
0.000387335
0.0135951
0.0268728
0.00337076
0.00023759
0.00138512
0.0316088
0.000144059
0.000152743
0.0114156
0.000186282
0.000145262
0.000142248
0.00593063
0.000267674
0.00015788
0.000142848
0.000146236
0.000275766
0.000142471
0.000203762
0.00679338
0.00013411
0.0286962
0.000137301
0.0373841
0.000268839
0.000517803
0.000150153
0.00433156
0.00014598
0.000142756
0.000150272
0.02919
0.000167084
0.0035065
0.000146778
0.00014245
0.000227583
0.000930623
0.00014672
0.000213127
0.000305542
0.00582729
0.000551893
0.000140326
0.000145436
0.00583193
0.000131212
0.00013799
0.000154714
0.000143755
0.000146837
0.000140045
0.000142081
0.0001542
0.000142096
0.00016389
0.000174869
0.000142096
0.00441393
0.0282703
0.000156156
0.000135593
0.000143104
0.000243409
0.000143561
0.000142782
0.000144873
0.000203164
0.000143914
0.000155033
0.000152885
0.000259922
0.00108525
0.00014104
0.000278322
0.000448199
0.000157565
0.000219303
0.000425019
0.000140606
0.000142784
0.000262361
0.000231055
0.000158203
0.00455705
0.000290903
0.00014308
0.00056633
0.000149692
0.000191878
0.00960179
0.00640412
0.0273812
0.000153234
0.00014132
0.000674886
0.000152887
0.00677109
0.000186203
0.0036662
0.0378754
0.000140373
0.000172286
0.000141935
0.000230927
0.00020373
0.0290496
0.00014159
0.000145044
0.00020794
0.000147396
0.00227661
0.000140147
0.00507412
0.00770531
0.000175445
0.000388666
0.028187
0.000140858
0.000140867
0.000144129
0.00318643
0.00172781
0.000148441
0.000154822
0.000148805
0.000135672
0.00017962
0.000141156
0.0001367
0.0023315
0.000147924
0.000136479
0.00015497
0.0311451
0.0200809
0.0333675
0.000145837
0.000241907
0.000161727
0.000155988
0.000207108
0.00752716
0.0288943
0.000138111
0.000186758
0.000131586
0.000167683
0.000195895
0.000183227
0.00417952
0.000148659
0.000206
0.000137384
0.00121764
0.00616651
0.000136749
0.000150991
0.000151328
0.000151762
0.032244
0.000144715
0.000144848
0.000148988
0.000147458
0.000139117
0.000151052
0.000143176
0.00014753
0.000143395
0.000141667
0.00681985
0.00443753
0.000469569
0.000135261
0.000131953
0.000132801
0.000135797
0.000132965
0.000174098
0.00013258
0.000138091
0.000142892
0.000139874
0.000161348
0.000142616
0.0152875
0.0352834
0.000171858
0.0119725
0.000146033
0.0108631
0.000347047
0.000236256
0.000139415
0.000506228
0.00015023
0.000144266
0.000145298
0.000255642
0.000208432
0.000140405
0.000206106
0.000164685
0.000142753
0.000382744
0.00520745
0.000167322
0.00014079
0.00015372
0.000238761
0.000156296
0.0180649
0.000140488
0.000150072
0.000144661
0.000155319
0.000168074
0.00702089
0.000169867
0.000136905
0.000587053
0.000183735
0.000240875
0.000141222
0.000156371
0.0410947
0.000140364
0.000147926
0.000159733
0.000338098
0.00013402
0.000142713
0.000138166
0.000167607
0.000145314
0.0056908
0.000145342
0.000156055
0.000160227
0.0307699
0.000138749
0.000136832
0.00013172
0.000162771
0.000135547
0.0238959
0.00670351
0.00016661
0.00578321
0.000142939
0.000558169
0.000145591
0.00013783
0.000300023
0.000181122
0.000243648
0.00533781
0.000365162
0.000255754
0.000171295
0.00016725
0.000150836
0.00363059
0.000145047
0.000148426
0.00176572
0.0001475
0.00167209
0.00127537
0.000974574
0.00734104
0.00456434
0.00740569
0.000347461
0.000196654
0.000149365
0.000191114
0.000144508
0.000137064
0.000141518
0.012731
0.00239029
0.00133949
0.000156466
0.000154185
0.00268401
0.000140543
0.000188843
0.000136656
0.000168068
0.000142249
0.000132969
0.000149598
0.000173084
0.000574547
0.000166826
0.000160027
0.000137759
0.000181001
0.0184356
0.000137409
0.000191023
0.000319494
0.000131168
0.000185073
0.000137714
0.030053
0.000146331
0.00105063
0.000149083
0.000145955
0.000157748
0.000271932
0.0033218
0.000177981
0.00156986
0.000151031
0.000144972
0.000145243
0.000145056
0.00013679
0.000143255
0.00250732
0.0310823
0.000187218
0.000143305
0.000159133
0.000154566
0.000146046
0.000146592
0.000202558
0.00292102
0.00540189
0.000144653
0.00287015
0.000137725
0.0001886
0.000151018
0.0001725
0.000337681
0.00451086
0.00408659
0.000133158
0.000144574
0.000140513
0.000142539
0.000144578
0.000142179
0.0322124
0.000146123
0.000146593
0.000148906
0.000174001
0.000141728
0.0316941
0.0315855
0.00351099
0.000145395
0.000325759
0.000136648
0.00426042
0.000254466
0.000150091
0.00397631
0.000153741
0.000189191
0.000140321
0.000146482
0.000159932
0.00018281
0.000214733
0.00348485
0.000249064
0.00021949
0.000174189
0.000149785
0.000143749
0.00579952
0.000152848
0.00442964
0.000149691
0.00441317
0.00537244
0.00713957
0.000150696
0.000283801
0.000153726
0.000144807
0.000136069
0.000152456
0.000191188
0.000142763
0.00441607
0.000192649
0.000216698
0.000141402
0.000158681
0.000371096
0.0062226
0.00579349
0.000155361
0.000180386
0.000732197
0.000234376
0.000147832
0.00018623
0.00471577
0.000189704
0.00994839
0.000156421
0.000157974
0.000267098
0.000133993
0.00205156
0.000179534
0.000144336
0.00338888
0.00735697
0.0156327
0.000159634
0.000218115
0.000180169
0.000136796
0.000182047
0.000149353
0.000245031
0.000139125
0.0405381
0.0298837
0.000326811
0.00670738
0.000207841
0.00669423
0.000154313
0.000267872
0.00592256
0.0256799
0.000150739
0.000148269
0.000142037
0.000159327
0.000134352
0.000141275
0.0137652
0.000141636
0.000138516
0.000163298
0.000148357
0.000132532
0.000192826
0.000743981
0.000185828
0.00014549
0.000145002
0.000160565
0.00015122
0.00014155
0.000140589
0.000136516
0.00215462
0.000156318
0.000182282
0.000160069
0.000143553
0.000132854
0.000350926
0.000236364
0.00243917
0.000189142
0.000147401
0.000167477
0.000140619
0.000158944
0.000260177
0.0396446
0.000228578
0.000152521
0.000137566
0.000159085
0.00544284
0.00778072
0.00587927
0.000155735
0.000138108
0.000137959
0.000154892
0.000225086
0.0268493
0.000138092
0.00417586
0.000132837
0.000143543
0.00020646
0.000140371
0.00124124
0.000208876
0.00428768
0.000133431
0.000176474
0.000172965
0.00641836
0.000137916
0.000145333
0.000256331
0.000757246
0.000658404
0.00377729
0.0369675
0.000150547
0.000232796
0.000156038
0.000171965
0.0150266
0.00016299
0.000140991
0.000145718
0.000135275
0.0103321
0.00974893
0.00015537
0.011253
0.000135932
0.00014112
0.000145773
0.000239755
0.000265077
0.00843777
0.000143679
0.000148936
0.000164543
0.0195408
0.000136538
0.00393091
0.000140701
0.000153489
0.039891
0.000139941
0.000275764
0.00593566
0.00420114
0.00335786
0.000144813
0.000153088
0.000155327
0.0279843
0.000233847
0.000145464
0.0345299
0.00157181
0.000131116
0.000150985
0.0106855
0.000136808
0.0304219
0.0352009
0.00015547
0.000131787
0.000154575
0.000157324
0.0203169
0.000137797
0.000173442
0.000148892
0.0154049
0.0243288
0.000142739
0.000136492
0.000227222
0.000158392
0.00014472
0.000142821
0.000140091
0.000182723
0.000151987
0.000274197
0.000148792
0.000148019
0.000141425
0.000151714
0.000158965
0.000151324
0.00772659
0.00559205
0.00530145
0.000148083
0.000136408
0.00496111
0.000160062
0.000189743
0.0114123
0.000210137
0.00693247
0.0357939
0.000135981
0.00615415
0.000396885
0.000150305
0.000140091
0.000143688
0.000143601
0.00280153
0.00634135
0.000144758
0.0410144
0.00260742
0.0227231
0.000132691
0.000138559
0.0173596
0.000140158
0.000146025
0.000164413
0.000141987
0.000260945
0.000155595
0.0141841
0.00417825
0.000141778
0.010481
0.000219649
0.000354823
0.0385095
0.000143011
0.000155009
0.000166548
0.000412923
0.0431522
0.000783994
0.000148372
0.000143773
0.000201906
0.000136816
0.00041864
0.00135784
0.000140566
0.0106777
0.000137184
0.0291989
0.000145787
0.00522016
0.000150063
0.00581281
0.0115784
0.0309248
0.0324239
0.000135142
0.00273514
0.0165104
0.000148867
0.0285435
0.000148237
0.000133442
0.000143624
0.00015813
0.000154141
0.000145674
0.000141172
0.000227603
0.000173337
0.000176246
0.0374447
0.000184465
0.000164341
0.000149901
0.000185315
0.000136355
0.000203178
0.0197987
0.0390873
0.0057707
0.000149914
0.000152866
0.000150487
0.000185433
0.000152243
0.000141264
0.0304842
0.000948444
0.0294782
0.000151578
0.000145666
0.000175835
0.0407101
0.000147382
0.000136603
0.000149495
0.000151664
0.000172648
0.000143503
0.00426544
0.000147464
0.015321
0.000138409
0.0011454
0.00177851
0.0119172
0.00013542
0.000200311
0.000145179
0.000137429
0.000194451
0.00094721
0.000141722
0.00014933
0.0313229
0.000144339
0.000185038
0.00438997
0.000160291
0.000441647
0.00014577
0.000765739
0.000160944
0.00281877
0.000136304
0.000140836
0.000589416
0.000140007
0.00492817
0.000155012
0.000160467
0.0289558
0.000150632
0.000143775
0.000149566
0.000141458
0.00363226
0.0285589
0.000137365
0.00433241
0.000215207
0.0370451
0.000143931
0.000201438
0.00421323
0.000158078
0.000160857
0.000143946
0.0422269
0.000133642
0.0324358
0.000136183
0.000140095
0.000153661
0.000145934
0.000138474
0.000205524
0.000152597
0.000141699
0.00661598
0.000137952
0.00017438
0.000156513
0.012682
0.00018706
0.000139812
0.000167641
0.000141154
0.000140512
0.000154564
0.0383504
0.00057912
0.0065867
0.000275283
0.000136439
0.000143801
0.000144937
0.000140331
0.000135513
0.000412324
0.000133269
0.000155566
0.000235933
0.000149934
0.000311738
0.000144746
0.00013651
0.0282118
0.0403225
0.000146159
0.000177371
0.000164952
0.041734
0.000141539
0.000152066
0.000271021
0.000145638
0.000521511
0.000265848
0.000149379
0.000150003
0.000363984
0.000155699
0.000183888
0.000251948
0.00305438
0.000153285
0.000158232
0.000166958
0.000378721
0.000148203
0.00293616
0.00359341
0.00210422
0.0298478
0.00013882
0.000144143
0.000142299
0.0037015
0.00338762
0.0329503
0.0314358
0.00013527
0.000272388
0.000139247
0.0433319
0.000143338
0.000169197
0.00021253
0.000148058
0.000148572
0.00020621
0.000156103
0.000148034
0.000148847
0.00018839
0.000152778
0.000140789
0.000248468
0.000148649
0.000148303
0.00014366
0.00608291
0.000182219
0.00679729
0.000159731
0.000152272
0.0308342
0.000155826
0.000213289
0.000137232
0.000142356
0.0149733
0.0293537
0.00228484
0.000145644
0.000155203
0.0381715
0.000215576
0.000206505
0.00104067
0.000240951
0.000260793
0.00013631
0.00883614
0.000140381
0.000188935
0.00449779
0.000204415
0.000204209
0.000151557
0.0272746
0.000192811
0.00574522
0.00021316
0.000141664
0.000143325
0.000144424
0.00559679
0.000137353
0.00441598
0.000191623
0.00431041
0.000135572
0.018134
0.00755312
0.00323163
0.00747526
0.000150074
0.000147292
0.000142195
0.000159865
0.000144265
0.000158149
0.0416531
0.00014455
0.000150522
0.0305261
0.00365063
0.00184837
0.000158014
0.000162383
0.000139682
0.0287444
0.000149088
0.0152311
0.000173689
0.000742417
0.000165024
0.000202173
0.000335725
0.000142934
0.000142404
0.0311182
0.00066511
0.00313554
0.000221751
0.000176842
0.0001414
0.000204878
0.000143887
0.000239211
0.000143603
0.000151019
0.00751381
0.000149344
0.000202317
0.000137607
0.0168603
0.00849402
0.00017339
0.000160658
0.0282755
0.000160639
0.000136083
0.0275776
0.00964912
0.0286481
0.000140088
0.000148665
0.00481692
0.00662637
0.0385739
0.000145999
0.000152821
0.000146228
0.000157135
0.000148187
0.000138423
0.00165162
0.000140908
0.00340028
0.000154148
0.000321657
0.000135475
0.0039649
0.0101302
0.000207158
0.000303687
0.00258156
0.000138635
0.00019755
0.00217311
0.000139794
0.000147765
0.000145003
0.0292896
0.0295928
0.000144611
0.0296533