/*--------------------------------*- C++ -*----------------------------------*\
| =========                 |                                                 |
| \\      /  F ield         | OpenFOAM: The Open Source CFD Toolbox           |
|  \\    /   O peration     | Version:  v2012                                 |
|   \\  /    A nd           | Website:  www.openfoam.com                      |
|    \\/     M anipulation  |                                                 |
\*---------------------------------------------------------------------------*/
FoamFile
{
    version     2.0;
    format      ascii;
    class       surfaceVectorField;
    location    "550";
    object      Uf;
}
// * * * * * * * * * * * * * * * * * * * * * * * * * * * * * * * * * * * * * //

dimensions      [0 1 -1 0 0 0 0];


internalField   nonuniform List<vector> 
27882
(
(1.0052 -0.0028536 1.38901e-21)
(1.00548 -0.0043545 -9.68515e-22)
(1.00643 -0.00310066 1.17886e-21)
(0.960423 -0.0281384 1.42823e-21)
(0.960634 -0.0371842 -3.80586e-21)
(0.969934 -0.0320554 -2.72145e-22)
(1.00279 3.22375e-05 1.90714e-22)
(1.00335 1.59242e-05 7.03122e-22)
(1.00385 -1.04265e-05 -3.04428e-22)
(1.00373 -0.00233945 -7.86155e-22)
(1.00534 -0.00139994 -1.14908e-21)
(1.01936 0.00110846 -5.20794e-22)
(1.02062 0.000358857 1.0348e-21)
(1.02054 0.00198299 -1.24049e-22)
(1.00696 0.000137112 -4.73372e-23)
(1.00764 0.000246627 0)
(1.00719 0.000184851 0)
(1.01524 -0.00487622 -1.00687e-23)
(1.01534 -0.00505269 -6.51362e-22)
(1.01549 -0.00497879 6.88419e-22)
(1.02454 -0.016269 1.11426e-21)
(1.02486 -0.0166408 2.55839e-21)
(1.02445 -0.0167019 -1.13293e-21)
(1.01818 0.0016067 -9.68252e-22)
(1.01833 0.000273982 -1.06094e-21)
(1.01708 0.00189518 0)
(1.01594 0.00190897 -7.68401e-22)
(1.01626 0.000828014 -1.17111e-21)
(0.958545 -0.00597958 3.65921e-21)
(0.964472 -0.0115874 -4.09376e-21)
(0.969114 -0.00389147 3.14802e-21)
(0.861766 0.223745 8.17084e-21)
(0.854143 0.211511 7.06701e-21)
(0.846025 0.191696 1.3499e-21)
(1.02095 0.0745111 -1.23195e-21)
(1.03362 0.0653342 -7.81845e-22)
(1.02973 0.0763375 0)
(1.03241 -0.0161321 -1.98134e-21)
(1.03317 -0.0164174 6.44091e-22)
(1.03282 -0.0156049 1.12482e-21)
(1.01471 -0.00457063 -4.55626e-23)
(1.01499 -0.0047455 -5.39972e-22)
(1.01476 -0.00478118 2.43256e-22)
(1.01227 -0.00214363 2.76121e-23)
(1.01213 -0.00205216 -2.30365e-22)
(1.01215 -0.00219459 -4.46601e-22)
(0.873359 0.232009 4.47999e-21)
(0.872463 0.24959 -1.16878e-20)
(1.01147 0.00160947 1.25487e-22)
(1.01133 0.00154933 3.89301e-23)
(1.01447 -0.00443906 -9.87864e-22)
(1.01466 -0.00439412 -2.69187e-22)
(1.0173 -0.0182522 -1.65743e-23)
(1.01738 -0.0189045 4.33721e-23)
(1.01802 -0.0185075 2.75773e-23)
(0.928225 -0.102486 2.11857e-22)
(0.908544 -0.10126 1.02734e-20)
(0.923215 -0.0848627 -5.00754e-21)
(1.11417 -0.247765 -1.63002e-20)
(1.11586 -0.239955 1.01379e-20)
(1.10624 -0.24158 7.10032e-21)
(1.00595 9.50337e-05 -5.5634e-23)
(1.00674 0.000142526 8.51142e-24)
(1.00628 0.000148718 -2.03449e-22)
(1.00664 0.000187935 -2.39682e-22)
(1.00703 0.00024163 -2.80814e-22)
(1.11372 -0.254747 -5.58124e-21)
(1.12468 -0.253992 -9.4008e-22)
(0.932518 -0.248147 3.34891e-21)
(0.943237 -0.245207 4.15184e-21)
(0.938946 -0.257972 0)
(0.905712 0.301094 1.86663e-20)
(0.89614 0.303395 3.67906e-21)
(0.906031 0.307583 -2.0382e-21)
(0.946872 0.028754 -1.17361e-21)
(0.947434 0.0201344 -4.6484e-21)
(0.938861 0.0275111 -4.63887e-22)
(0.998019 -0.0999154 -4.06954e-21)
(0.992658 -0.102049 0)
(0.994115 -0.0961406 -2.67439e-22)
(0.940621 -0.0647213 0)
(0.946214 -0.0751525 7.25612e-23)
(0.955535 -0.0637799 -2.39768e-22)
(0.837142 0.128609 -1.49511e-20)
(0.854677 0.0554123 -9.496e-21)
(0.811187 0.123342 -1.7918e-20)
(0.911892 0.296729 1.55565e-20)
(0.902913 0.292392 1.35291e-20)
(1.02424 -0.0159838 6.43643e-22)
(1.02456 -0.0159495 3.6442e-22)
(1.07956 -0.307943 -4.5083e-22)
(1.08934 -0.310938 3.61042e-20)
(1.08003 -0.321036 1.87939e-20)
(1.02185 -0.00038502 5.8155e-23)
(1.02311 -0.000923508 0)
(1.02323 0.000642983 9.11185e-22)
(0.937867 -0.0518275 5.88024e-22)
(0.92594 -0.0622378 9.46428e-23)
(1.0146 0.0728157 -1.16262e-21)
(1.00669 0.084196 -2.79028e-21)
(1.02057 -0.000997227 1.68662e-22)
(0.844563 -0.149453 -8.36893e-21)
(0.813398 -0.143096 1.67848e-20)
(0.82415 -0.208796 8.87625e-21)
(1.01403 0.00236086 0)
(1.01402 0.00231565 -1.18946e-22)
(1.01385 0.00236284 1.09636e-23)
(0.875725 0.0971266 -2.5162e-21)
(0.869203 0.0646019 5.13746e-22)
(0.874203 0.0676105 4.23453e-22)
(1.01358 0.00321004 -9.69361e-22)
(1.01349 0.00464185 -1.60549e-21)
(1.0149 0.00370727 2.76309e-22)
(0.940535 0.140921 5.31877e-22)
(0.926011 0.138318 -1.79275e-22)
(0.932245 0.122076 4.39653e-21)
(1.0128 0.00145513 2.027e-23)
(1.01242 0.00145909 -9.47139e-23)
(1.01276 0.00177604 4.12158e-22)
(1.00983 -0.00071999 -1.528e-22)
(1.00979 -0.00071006 -2.60775e-22)
(1.01016 -0.000803691 2.08918e-22)
(0.928192 0.0396418 -4.54499e-20)
(0.969185 -0.0389513 -1.8436e-20)
(0.932924 -0.0217427 1.4879e-20)
(1.01243 0.0026051 -6.03495e-22)
(1.01335 0.00210664 5.39803e-22)
(0.985274 -0.0914982 -1.22663e-21)
(0.986189 -0.0860826 -1.30421e-21)
(0.980663 -0.0885828 -2.9977e-22)
(0.210393 -0.0556455 -6.65125e-21)
(0.158764 -0.0307795 4.11541e-20)
(0.20718 -0.0644232 -1.35283e-20)
(1.00515 0.00240116 -5.62629e-22)
(1.00472 0.00108422 9.53863e-22)
(1.00596 0.00138071 -1.16163e-21)
(0.951883 0.00123125 5.55147e-22)
(0.945587 -0.00747307 -5.36555e-23)
(0.758125 -0.352438 -2.44564e-21)
(0.779975 -0.357386 -8.69958e-21)
(0.781771 -0.341145 -6.14985e-22)
(1.00459 0.00371223 0)
(1.00602 0.0035605 0)
(1.00635 -0.0113126 6.01944e-22)
(1.00668 -0.0104162 -2.99543e-23)
(1.00576 -0.0106027 -4.64754e-22)
(1.06854 -0.178513 -7.38722e-21)
(1.07475 -0.180498 0)
(1.06996 -0.18503 0)
(1.04367 0.0548248 -1.04364e-21)
(1.03421 0.0555757 3.26603e-21)
(1.01182 0.00044685 -2.02217e-22)
(1.01181 0.000502637 5.84841e-22)
(1.01211 0.000471848 3.1912e-22)
(1.01729 -0.0175556 1.08146e-22)
(1.0166 -0.0178537 -6.33569e-23)
(0.987146 -0.0812647 1.06273e-21)
(0.98335 -0.078071 1.37038e-22)
(0.988289 -0.0762812 -2.88491e-22)
(1.01185 0.000376467 -2.98563e-22)
(1.01156 0.00044004 -9.67539e-23)
(1.009 -0.000553249 0)
(1.00954 -0.000704697 2.52089e-22)
(1.00907 -0.000516673 9.535e-23)
(1.01316 0.00140388 -3.61974e-22)
(1.01274 0.00115096 -4.16854e-22)
(0.887212 -0.292402 1.64984e-21)
(0.889738 -0.2859 5.4378e-21)
(0.582847 0.200133 3.30987e-22)
(0.547362 0.151315 7.06575e-21)
(0.58612 0.204702 -5.27489e-21)
(1.00802 -0.000424932 0)
(1.00891 -0.000576485 2.5368e-22)
(0.983821 -0.277237 1.03717e-20)
(0.995491 -0.271983 0)
(0.940382 -0.256839 0)
(1.00614 -0.000230133 0)
(1.00546 -0.00015641 -1.45383e-22)
(1.00552 -0.000171529 -9.92436e-25)
(1.01004 0.00134701 0)
(1.00993 0.00128999 -2.41713e-22)
(1.01009 0.00133629 0)
(0.955767 0.0293147 1.80909e-21)
(0.948821 0.0380434 2.06246e-21)
(1.01145 0.00162661 1.05533e-23)
(1.01162 0.0017084 9.87207e-24)
(0.72269 -0.362676 4.52852e-21)
(0.732589 -0.350861 -1.8712e-21)
(0.911565 -0.272066 1.56579e-21)
(0.916208 -0.262253 6.25369e-21)
(0.924507 -0.271378 2.49813e-21)
(1.01287 -0.00504552 -3.38804e-22)
(1.01307 -0.00519611 1.01394e-22)
(1.01288 -0.00521613 -4.27761e-22)
(1.02408 -0.0211751 -3.83265e-22)
(1.02409 -0.0206999 -3.15961e-22)
(1.02331 -0.020905 -3.41704e-22)
(1.07238 -0.0376 -3.82825e-22)
(1.07273 -0.0306791 8.7552e-22)
(1.06615 -0.0341241 5.92514e-22)
(0.856993 0.138945 1.71979e-20)
(0.815125 0.192883 -4.21527e-21)
(0.928979 -0.282133 1.27178e-22)
(0.937371 -0.274911 -3.24943e-21)
(0.94095 -0.286272 6.5764e-21)
(0.901244 0.246686 0)
(0.896541 0.263091 8.47196e-22)
(0.912785 0.256383 -1.55904e-21)
(1.01789 0.00292028 4.72789e-23)
(0.95119 0.155679 -6.34458e-21)
(0.957277 0.138949 6.70759e-22)
(1.04322 -0.127619 1.01734e-20)
(1.04779 -0.127962 1.41318e-20)
(1.04486 -0.132625 7.95947e-21)
(0.874563 -0.156009 5.26766e-22)
(0.870167 -0.0894121 -1.70298e-20)
(0.888968 0.235549 0)
(0.905606 0.232998 -1.34069e-21)
(1.04309 -0.0232342 -1.50517e-21)
(1.04567 -0.0245954 5.4745e-22)
(1.04554 -0.0213182 -8.7398e-23)
(1.01147 0.0030483 -2.07777e-24)
(1.01187 0.00282035 -9.34283e-23)
(1.01206 0.00357415 3.40243e-22)
(1.07433 -0.158746 0)
(1.07206 -0.163318 6.63035e-21)
(1.06853 -0.158961 -1.10515e-20)
(1.04974 -0.024203 2.57667e-21)
(1.04942 -0.022527 -4.10895e-21)
(1.02496 -0.021577 2.96079e-22)
(1.02408 -0.0218824 -6.16586e-23)
(0.884706 -0.287267 -4.04806e-21)
(0.88321 -0.297233 -2.35725e-21)
(1.07925 -0.156633 -1.3207e-22)
(1.07474 -0.152875 0)
(0.464801 -0.36854 -1.32296e-20)
(0.429173 -0.372344 -8.74282e-21)
(0.400648 -0.363104 6.44132e-21)
(1.00877 -0.000502235 1.6068e-22)
(1.00913 -0.000483475 2.66377e-22)
(1.01003 -0.000547036 3.51173e-22)
(1.05508 -0.102306 -1.51857e-21)
(1.05885 -0.102512 -8.52682e-22)
(1.05625 -0.106207 5.80789e-21)
(0.258698 -0.0743852 0)
(0.206092 -0.0439643 -2.63386e-20)
(1.01288 -0.00490748 1.61503e-22)
(1.0127 -0.00489757 5.39186e-22)
(1.00745 -0.00085468 -1.24664e-22)
(1.00752 -0.000909862 4.81567e-23)
(1.00748 -0.000869176 -4.11481e-22)
(1.01275 0.00218521 4.25362e-24)
(1.01257 0.00213129 6.02216e-23)
(1.01275 0.00221446 -1.73102e-23)
(1.01663 -0.0736155 0)
(1.01981 -0.075245 -2.9336e-21)
(1.0161 -0.0771737 3.58061e-21)
(0.89933 0.28097 -2.41004e-21)
(0.89184 0.27581 2.8341e-21)
(0.892482 0.284713 8.72987e-21)
(1.01062 -0.00373756 3.27464e-23)
(1.01067 -0.00380654 -9.9029e-23)
(1.01055 -0.00364882 -1.76238e-22)
(0.896076 0.10279 -1.91393e-21)
(0.928161 0.0770364 3.84576e-21)
(1.01672 -0.0280054 1.11578e-21)
(1.01792 -0.0282339 -7.64233e-22)
(1.01736 -0.0266997 8.60018e-23)
(1.01 0.00135073 -1.93755e-22)
(1.01016 0.00140616 1.0558e-22)
(1.00741 -0.000828062 -2.54575e-22)
(1.00737 -0.00079319 0)
(0.962727 -0.279357 7.09561e-21)
(1.0198 -0.292005 -1.9515e-22)
(0.935866 -0.116164 2.92211e-22)
(0.945315 -0.0999888 -4.75382e-21)
(0.989562 -0.0935436 -2.67645e-22)
(0.98457 -0.0963101 2.0004e-21)
(0.490713 -0.365915 0)
(0.522327 -0.372522 2.9967e-21)
(0.928386 -0.25129 1.99812e-21)
(0.922702 -0.240082 4.46188e-22)
(0.937609 -0.243063 -1.58881e-21)
(0.867355 -0.0615112 0)
(0.867565 -0.0813105 -4.04933e-23)
(0.887247 -0.0716133 5.53041e-22)
(1.01268 -0.00213569 1.94225e-23)
(1.01252 -0.00204181 5.59125e-23)
(1.01265 -0.00198206 -8.19585e-22)
(0.622238 0.244907 -5.2124e-21)
(0.573257 0.182693 6.82603e-22)
(1.00432 0.00474548 -2.20698e-23)
(1.00388 0.00299573 3.61668e-23)
(1.00538 0.00359779 -2.055e-23)
(1.00468 -3.44907e-05 -2.24316e-22)
(1.0047 -3.15926e-05 -4.68001e-24)
(1.00379 -2.07694e-05 -7.3283e-22)
(1.01576 -0.0293853 -8.60657e-22)
(1.01541 -0.0276201 4.9341e-22)
(0.814984 0.0518996 3.03055e-21)
(0.774073 0.0489649 3.50297e-21)
(0.80321 0.0625294 1.07496e-20)
(1.0132 -0.0720095 -5.80795e-22)
(1.01643 -0.0699151 0)
(1.01075 0.000581097 2.88137e-22)
(1.0109 0.000515364 -1.51039e-22)
(1.01069 0.000568439 -9.5841e-23)
(0.718665 0.0141233 -4.41055e-21)
(0.671847 0.0023834 -4.98135e-21)
(0.695215 -0.00622503 2.95039e-21)
(1.00998 0.00281674 -2.23585e-22)
(1.01042 0.0034402 2.72622e-22)
(1.00967 0.00355201 -2.65144e-23)
(1.00521 -5.88024e-05 3.15096e-22)
(1.00497 -6.16694e-05 0)
(1.00572 -4.90248e-05 0)
(0.919291 -0.281249 4.67151e-21)
(0.9232 -0.290248 -7.29976e-21)
(1.01098 0.00331708 4.14341e-22)
(1.01101 0.00261177 -1.07527e-22)
(1.00898 0.000182621 -1.91233e-22)
(1.00913 0.000209265 -9.66094e-23)
(1.00897 0.000219772 0)
(-0.0504137 0.135249 9.31164e-21)
(-0.044335 0.12333 -6.18189e-22)
(-0.043054 0.118422 2.98671e-21)
(1.00627 -0.0121854 1.11268e-22)
(1.0071 -0.0118451 -2.91712e-23)
(1.01154 0.000852841 4.52609e-22)
(1.0118 0.000926301 1.04928e-22)
(1.01152 0.000707313 -1.16371e-22)
(1.009 0.000153374 -4.10334e-22)
(1.00884 0.00016584 -6.71797e-22)
(0.960939 -0.148197 -9.27094e-23)
(0.967793 -0.143245 3.26987e-21)
(0.958028 -0.140849 7.63768e-22)
(-0.0793253 0.220347 0)
(-0.0840364 0.217388 -1.07781e-20)
(0.99135 -0.0837582 9.94365e-22)
(1.00595 -0.000296297 -2.38176e-22)
(1.00507 -0.00015562 -7.16965e-23)
(1.00653 -0.000389244 3.13559e-22)
(1.0225 -0.0217137 9.44209e-23)
(1.02239 -0.0209688 -7.84609e-22)
(1.02177 -0.0214276 -7.00446e-22)
(0.722083 -0.291519 -1.3319e-20)
(0.750698 -0.292373 0)
(0.776995 -0.309938 -1.00105e-20)
(1.01422 0.00235204 0)
(1.01406 0.00243807 -4.18295e-23)
(1.00521 -0.000129361 3.80743e-22)
(1.00541 -0.00010717 8.8182e-22)
(1.00585 -8.85703e-05 5.16755e-22)
(0.861277 -0.326125 -9.1562e-22)
(0.871514 -0.336113 -3.21202e-21)
(0.854019 -0.342265 -3.58446e-21)
(1.0102 0.00177148 3.39189e-22)
(1.01009 0.00230299 0)
(1.01056 0.00215746 0)
(0.898205 -0.042805 -2.37473e-21)
(0.888104 -0.0405758 -2.1982e-21)
(0.897046 -0.0328646 1.92754e-23)
(1.03789 -0.127992 -8.2236e-21)
(1.04039 -0.123371 -2.62616e-23)
(1.00497 0.00641908 -1.2079e-21)
(1.00294 0.00617782 0)
(0.843824 0.0462471 -4.93218e-21)
(0.841696 0.0163767 7.91595e-21)
(0.841755 0.00668232 1.4515e-21)
(1.03325 -0.0656988 -4.69417e-22)
(1.03595 -0.066241 4.80456e-21)
(1.03349 -0.0686751 4.35894e-21)
(0.934553 -0.264575 -2.30665e-21)
(0.920025 -0.260849 1.14013e-21)
(-0.0527977 0.146614 -1.25581e-20)
(-0.0577262 0.150873 -5.60974e-21)
(1.05856 -0.0768527 -6.30479e-21)
(1.06146 -0.0763057 5.69454e-21)
(1.06021 -0.0797582 -8.59105e-21)
(0.942255 -0.280775 -1.16055e-20)
(0.901342 -0.262674 2.35214e-20)
(0.97386 -0.139659 3.56541e-21)
(0.97186 -0.133116 -6.91314e-22)
(0.979777 -0.135408 0)
(0.961911 -0.0195179 -4.43437e-21)
(0.971709 -0.0163584 -3.93064e-21)
(0.62068 -0.187538 2.87064e-21)
(0.632579 -0.167275 1.15512e-21)
(0.670208 -0.163815 2.5707e-21)
(-0.0554501 0.224731 -1.07687e-23)
(-0.0463099 0.219104 -7.37694e-21)
(-0.0318287 0.222943 1.89046e-20)
(-0.0562198 0.185952 8.52779e-23)
(-0.0636894 0.188132 2.06292e-20)
(-0.0553929 0.176615 1.91321e-20)
(1.02532 -0.00510094 -1.20178e-21)
(1.02572 -0.00513444 -1.53471e-21)
(1.02554 -0.0054685 -9.12571e-22)
(1.02356 -0.00217911 0)
(1.0224 -0.00332609 7.81813e-22)
(1.02418 -0.00385439 -3.16312e-22)
(0.881702 0.13122 9.07948e-23)
(0.88099 0.1259 -5.35736e-21)
(0.819878 0.266214 2.9291e-21)
(0.826001 0.275509 1.13151e-21)
(1.05092 -0.101827 9.42864e-21)
(1.05341 -0.0983943 0)
(0.955773 -0.152534 -1.44188e-21)
(0.965208 -0.153774 -8.351e-21)
(1.04446 -0.0312945 -7.51426e-24)
(1.04774 -0.0337288 -1.07585e-21)
(1.04374 -0.0347548 -1.65113e-21)
(0.950854 -0.023994 3.07662e-22)
(0.36099 -0.349189 -4.4689e-22)
(0.372535 -0.334573 5.25854e-21)
(0.368599 -0.33473 4.57618e-21)
(1.00988 0.000126293 1.67188e-22)
(1.01004 0.000104094 2.37556e-22)
(1.00991 0.000106104 5.30235e-23)
(0.244708 0.0169538 -1.06726e-20)
(0.194019 0.0467688 1.84876e-20)
(0.222168 0.0485948 0)
(0.918483 -0.282576 -9.36155e-21)
(0.975233 -0.296692 -9.78081e-21)
(1.07033 -0.114937 0)
(1.10484 -0.173248 0)
(1.07584 -0.171104 -9.12709e-21)
(1.01187 5.61457e-05 3.28438e-22)
(1.01163 0.000167043 9.94707e-23)
(1.01182 -1.48757e-05 3.83528e-22)
(1.00983 0.000158477 1.09274e-22)
(1.00971 0.000153149 -7.43853e-23)
(0.388623 -0.371629 1.62037e-21)
(0.3839 -0.364194 2.27681e-21)
(0.408311 -0.365431 9.29162e-22)
(-0.0689131 0.222779 0)
(-0.0744668 0.216029 0)
(0.851922 0.192507 4.61877e-21)
(0.839359 0.147801 -5.07393e-21)
(0.856891 0.1671 -7.31727e-21)
(0.00246869 0.152286 -2.6143e-21)
(-0.000977815 0.164456 4.29732e-20)
(-0.0144615 0.163644 3.20264e-20)
(1.00238 5.26457e-05 3.46959e-22)
(1.0017 7.61322e-05 -5.01552e-22)
(0.988437 -0.104522 0)
(0.983983 -0.101681 1.98502e-21)
(0.983181 -0.107797 0)
(0.891818 -0.129253 1.25628e-21)
(0.896547 -0.130531 -9.5742e-23)
(0.916936 -0.229267 9.74828e-22)
(0.907846 -0.237693 -1.80196e-21)
(1.01 -0.0027525 -6.30465e-22)
(1.0101 -0.00284835 -4.71857e-22)
(1.01007 -0.00278745 -1.54294e-22)
(1.01284 -0.00474097 -8.61524e-23)
(1.01304 -0.00488983 1.82848e-23)
(0.967524 -0.233667 -6.73381e-23)
(0.973849 -0.240481 1.45916e-21)
(0.962489 -0.242897 1.34641e-20)
(1.06627 -0.3056 7.39169e-21)
(1.07131 -0.295847 0)
(1.03522 -0.00814318 6.95122e-22)
(1.03482 -0.00737816 1.6115e-21)
(1.00937 0.0011313 -5.40681e-22)
(1.0094 0.00114717 1.70861e-22)
(1.00927 0.00109233 1.97546e-23)
(1.00782 -0.0148449 8.35936e-23)
(1.00845 -0.0144292 -2.60011e-22)
(1.00768 -0.0139251 7.20578e-22)
(1.06625 -0.173255 5.05945e-22)
(1.06211 -0.177361 -7.37902e-21)
(1.03927 -0.0112279 5.58996e-21)
(1.04003 -0.0118986 -6.73027e-21)
(0.510528 -0.24549 -1.15994e-21)
(0.526594 -0.226339 3.30938e-21)
(0.485756 -0.235357 6.27425e-22)
(1.0172 -0.00308131 1.41219e-22)
(1.01728 -0.00296771 -1.04513e-21)
(1.01742 -0.00315835 -5.76411e-22)
(0.958544 -0.0809041 1.28121e-21)
(0.944159 -0.0848694 7.92823e-23)
(0.994721 -0.0227778 0)
(0.996551 -0.0242934 0)
(0.993901 -0.0253681 0)
(0.314107 -0.102996 1.39206e-20)
(0.303357 -0.0877261 -2.44829e-20)
(1.1783 -0.171361 1.13442e-20)
(1.15817 -0.174946 5.68746e-21)
(1.1739 -0.208757 6.06144e-21)
(-0.0561587 0.192092 -2.18464e-20)
(-0.0460769 0.180937 -1.54278e-20)
(1.0171 -0.00322184 2.35556e-21)
(1.01696 -0.00301591 1.71304e-21)
(0.98087 0.000368212 1.03442e-21)
(0.976198 -0.00276212 7.72536e-22)
(0.97712 0.00423419 0)
(1.00763 -0.229458 6.9268e-22)
(0.998796 -0.241832 2.39446e-21)
(1.01873 -0.239312 2.39234e-21)
(1.00944 0.000970577 -1.1174e-22)
(1.00942 0.000929176 1.42575e-22)
(1.00955 0.000989651 -2.63178e-22)
(1.03802 -0.0118497 -1.50845e-21)
(1.0384 -0.0111876 4.62084e-21)
(1.03751 -0.0110914 -5.55524e-21)
(0.878851 -0.0379279 3.07622e-21)
(0.868278 -0.0345154 3.06533e-21)
(0.877287 -0.0267388 6.83527e-21)
(1.02484 -0.00514188 2.385e-21)
(1.025 -0.00480658 2.20955e-23)
(0.376215 -0.128345 2.59039e-20)
(0.330379 -0.12167 -1.76895e-21)
(1.00549 0.000133356 3.70516e-22)
(1.00612 0.000171612 -5.86344e-22)
(1.00544 0.000112796 -3.35583e-22)
(1.01071 0.00335378 -3.3873e-22)
(1.01086 0.00287598 3.63814e-22)
(1.01126 0.0033228 3.58995e-24)
(0.948785 -0.155792 2.97183e-21)
(0.952356 -0.162593 -5.02339e-21)
(1.11513 -0.0994344 -1.7486e-22)
(1.10572 -0.091098 -3.52919e-21)
(1.1029 -0.103794 -3.5655e-22)
(1.01209 -0.00177365 2.33541e-22)
(1.01195 -0.00168615 4.19979e-22)
(1.01208 -0.00163928 -2.1746e-22)
(1.01282 -0.00221611 6.80908e-22)
(1.0127 -0.00226402 0)
(0.310285 -0.0147782 -1.11314e-20)
(0.277756 -0.0184711 1.93149e-20)
(1.0102 -0.00073744 2.02577e-22)
(1.01032 -0.000754708 1.69919e-22)
(1.01036 -0.000725499 -3.02079e-23)
(1.02505 -0.00128805 0)
(-0.0886565 0.218593 0)
(-0.0861387 0.213086 1.56525e-20)
(1.00407 6.50062e-05 -1.72591e-22)
(1.00369 4.29316e-05 2.34058e-23)
(1.00472 0.000106646 2.20007e-23)
(1.04726 -0.103319 -1.86151e-21)
(1.04324 -0.104827 -6.31949e-21)
(1.04731 -0.107121 -9.11095e-21)
(1.01014 0.00325235 -8.33639e-22)
(1.0107 0.00401249 -8.04602e-22)
(1.00873 -0.00238202 5.97349e-22)
(1.00893 -0.00208401 3.22494e-22)
(1.00904 -0.00245423 -4.94063e-22)
(1.01631 -0.0161629 -6.63282e-23)
(1.01675 -0.0166021 5.15023e-23)
(1.01618 -0.0167602 5.11439e-23)
(1.01292 0.00224025 5.9494e-23)
(1.01276 0.0021568 6.41764e-23)
(1.01259 -0.0008009 4.72793e-22)
(1.01221 -0.000657213 4.15782e-22)
(1.0124 -0.000663418 -5.49336e-23)
(1.04733 -0.0999236 -3.69128e-21)
(1.00819 0.00029186 5.98903e-23)
(1.00802 0.000262932 -6.93854e-25)
(0.864584 -0.0225563 -5.97227e-22)
(0.866011 0.00287009 9.04856e-22)
(0.868125 -0.030029 -5.06282e-21)
(1.01619 -0.214803 -5.23044e-21)
(0.997808 -0.219468 -1.24115e-21)
(1.01053 0.000216222 7.51948e-22)
(1.0105 0.000252601 -5.53543e-22)
(1.01046 0.00037013 3.50327e-22)
(1.03027 -0.0653308 -7.18374e-21)
(1.03252 -0.0628058 1.39811e-24)
(0.941323 -0.160455 4.52158e-21)
(0.943568 -0.149415 2.01022e-21)
(1.12618 -0.108879 1.40374e-21)
(1.12726 -0.0936892 -8.85015e-22)
(0.922227 -0.171799 0)
(0.917868 -0.169979 0)
(0.931381 -0.164858 0)
(1.07075 -0.0440299 -2.28365e-22)
(1.07875 -0.0417786 -9.34524e-22)
(1.09541 -0.147898 -1.04849e-20)
(1.09253 -0.151797 -1.76604e-20)
(1.09818 -0.152394 9.47039e-21)
(0.36788 -0.360891 6.85421e-21)
(0.354615 -0.362659 3.44844e-21)
(1.01008 -0.000702127 -5.65009e-22)
(1.01006 -0.000743907 -2.12848e-22)
(0.921389 -0.252613 3.97883e-21)
(0.926602 -0.23959 1.29254e-21)
(1.05538 -0.0777599 8.00139e-22)
(1.05647 -0.0743551 -5.41252e-21)
(0.911482 -0.217716 7.22342e-22)
(0.927616 -0.220767 -5.17902e-21)
(1.00429 -7.63242e-05 -5.56215e-22)
(1.00513 -0.000103689 -3.02936e-23)
(1.00963 -0.00171553 -2.64945e-23)
(1.00953 -0.00159541 -1.69737e-22)
(1.00953 -0.00170432 -4.73943e-24)
(1.01052 0.000162232 -9.32928e-23)
(1.01061 2.09507e-05 3.70099e-22)
(1.07071 0.0076622 7.42977e-22)
(1.07148 0.015019 -4.99089e-22)
(1.07762 0.00951018 2.08988e-21)
(0.122781 -0.0119021 2.75351e-20)
(0.0887091 0.00961606 -3.69288e-20)
(0.117677 -0.0179703 -1.83504e-21)
(0.857467 -0.0314352 1.80942e-21)
(0.845206 -0.0281172 -3.79212e-21)
(0.854883 -0.0194466 2.72024e-21)
(1.02266 -0.0126346 -2.11654e-21)
(1.02228 -0.0127636 8.88149e-22)
(1.02229 -0.0122945 1.49205e-21)
(1.01297 -0.00230513 4.80555e-22)
(1.013 -0.00246957 -2.16747e-22)
(1.01316 -0.00240907 -2.00829e-22)
(1.06429 0.00631171 -1.38571e-21)
(1.06972 0.00173517 -1.5178e-21)
(0.907299 -0.044456 0)
(0.917392 -0.0462239 -8.06192e-22)
(0.915872 -0.0375123 0)
(1.00303 3.48791e-05 -9.34156e-24)
(1.00403 7.73273e-05 -4.51904e-22)
(1.0034 5.83778e-05 0)
(0.573497 -0.209127 3.85103e-21)
(0.610072 -0.208606 -1.78011e-22)
(0.859229 -0.126911 7.76363e-22)
(0.857199 -0.138003 3.83704e-22)
(0.869238 -0.133996 -5.20344e-22)
(1.00981 -0.0017148 -2.39958e-22)
(1.0097 -0.00171987 9.38267e-23)
(1.0097 -0.00160454 2.11911e-22)
(1.00717 -0.000351237 -5.5954e-22)
(1.00724 -0.000358015 1.07614e-23)
(1.00719 -0.000327565 -2.71579e-22)
(1.01317 -0.00122328 9.46099e-24)
(1.01268 -0.00098595 -3.40121e-22)
(1.01292 -0.00083626 5.14385e-22)
(1.01057 -0.00368901 -1.09985e-22)
(1.01068 -0.00385293 1.33645e-22)
(0.0245204 0.141716 -4.94362e-20)
(0.00619841 0.138252 -5.0033e-20)
(1.01144 0.00113357 -4.12132e-24)
(1.0113 0.00125926 -2.99629e-22)
(1.01115 0.000959366 5.69207e-22)
(0.977027 -0.0614486 5.96346e-21)
(0.98248 -0.0718539 -2.07927e-22)
(0.968616 -0.072167 1.86659e-21)
(1.01048 0.000126867 -3.89114e-22)
(1.01044 0.000338399 -7.97663e-22)
(1.00542 0.000105223 1.7857e-23)
(1.00629 0.000128702 -1.86912e-23)
(1.00521 8.0809e-05 2.00973e-23)
(0.814515 -0.0469558 -3.71656e-21)
(0.827156 -0.0492033 -3.87235e-21)
(0.819315 -0.0605022 4.90708e-21)
(1.01192 0.000112056 6.25326e-22)
(1.01193 0.000189967 6.26454e-22)
(1.01165 0.000265658 2.48936e-22)
(0.898372 -0.275905 -3.53336e-21)
(0.908389 -0.285951 -5.99251e-21)
(1.01332 -0.000939649 0)
(1.01317 -0.00080701 -6.29208e-22)
(1.01319 -0.000925726 0)
(0.925922 0.322188 -8.48944e-21)
(0.910075 0.348145 1.48586e-20)
(1.00416 0.00148152 5.08057e-22)
(1.00267 0.00222663 2.01445e-23)
(1.00929 0.000186464 -2.37762e-23)
(1.00925 0.000223104 -4.14338e-22)
(1.00989 -0.00182727 -8.33748e-23)
(1.00989 -0.00172434 -1.85228e-22)
(0.984144 -0.00365958 1.61697e-22)
(0.985695 0.00191836 2.96127e-21)
(0.773165 0.307869 -1.18119e-21)
(0.769375 0.298477 1.12966e-21)
(0.76213 0.307841 4.61588e-22)
(0.774079 0.320063 -1.89672e-21)
(0.787573 0.304731 5.74424e-21)
(1.00943 0.000169132 -3.67557e-23)
(1.00932 0.000156054 5.28769e-23)
(0.89979 -0.0525059 1.51584e-21)
(1.02607 -0.00536242 1.09933e-22)
(1.02598 -0.00494872 -5.90781e-22)
(1.01138 -0.00493695 0)
(1.01138 -0.00480263 2.01573e-22)
(1.0114 -0.00494517 0)
(0.628038 0.026207 1.58965e-21)
(0.65076 0.01189 -1.82564e-22)
(0.673753 0.032775 1.85636e-21)
(0.93222 -0.358965 3.22056e-21)
(0.932246 -0.345735 1.61938e-20)
(0.92046 -0.350971 8.83468e-21)
(1.0114 -0.00507981 4.10834e-22)
(1.01136 -0.00492358 3.10112e-22)
(1.00975 -0.000604303 0)
(1.00984 -0.000637188 -1.05262e-22)
(1.00986 -0.000592238 -2.75239e-22)
(1.0172 0.000941554 1.71861e-23)
(1.01765 0.000439022 4.04237e-23)
(1.01799 0.000967951 3.76496e-23)
(1.01589 -0.01571 -5.61531e-23)
(1.0164 -0.0156676 -6.34827e-23)
(1.02612 -0.0251629 -4.1137e-22)
(1.02684 -0.0249829 1.30743e-21)
(1.02672 -0.0258757 -9.20889e-22)
(1.00838 0.000314253 5.61589e-23)
(1.00866 0.000345703 -6.05528e-23)
(1.00853 -0.00276598 3.45451e-22)
(1.00838 -0.00229893 3.53589e-22)
(1.03182 -0.0158482 1.06308e-21)
(1.03208 -0.0166287 -1.99664e-21)
(1.00709 -0.000344557 1.42573e-23)
(1.00715 -0.000379304 -2.62699e-22)
(1.00465 -0.000157137 5.72842e-24)
(1.00617 -0.000215872 1.20282e-22)
(1.00515 -0.000162711 2.19434e-23)
(1.0136 -0.00220876 0)
(1.01344 -0.00223638 0)
(1.01345 -0.0020671 0)
(0.900277 -0.285149 -2.37303e-20)
(0.930678 -0.302303 -7.08812e-21)
(0.87776 -0.28693 -2.3671e-20)
(1.01514 -0.00465526 7.51451e-22)
(1.00964 -0.000566669 2.94966e-22)
(1.00963 -0.000602976 0)
(1.01043 0.00105405 -4.74278e-24)
(1.01036 0.00103493 -4.26414e-24)
(1.01034 0.000990635 -3.04652e-23)
(0.917484 -0.0546428 -7.02126e-22)
(0.925072 -0.0478258 6.47074e-22)
(1.00743 -0.00082874 -2.25263e-22)
(1.00744 -0.000818173 -4.2181e-22)
(1.0075 -0.000868882 0)
(1.00735 -0.000787464 -2.49608e-22)
(1.00273 5.25007e-05 -6.78042e-22)
(1.00199 -2.9485e-05 -8.21969e-24)
(1.03379 -0.00967525 -5.0983e-21)
(1.03447 -0.00973946 -6.87254e-21)
(1.03416 -0.0103127 4.2376e-22)
(1.0116 0.000511244 -2.24748e-22)
(1.01186 0.000570804 8.76728e-23)
(1.00512 9.69742e-05 -7.33089e-22)
(1.00474 8.93464e-05 4.50905e-23)
(1.00549 9.31195e-05 -1.46271e-22)
(1.00388 3.45073e-05 0)
(1.00336 4.4483e-05 0)
(1.00434 3.68787e-05 -7.16838e-23)
(1.01363 -0.00225242 -8.81652e-23)
(1.01378 -0.00291592 -1.07492e-22)
(1.01437 -0.00249157 1.11105e-21)
(0.924075 -0.167214 0)
(0.914707 -0.178431 -1.04397e-21)
(1.00856 -0.000398385 1.19139e-22)
(1.00672 -0.00031623 -3.21022e-22)
(1.00601 0.00014329 8.78346e-24)
(1.00546 9.79816e-05 2.2771e-22)
(-0.0293445 0.103699 -9.49711e-21)
(-0.03589 0.109462 6.14235e-21)
(-0.0274933 0.0898668 -5.94356e-24)
(1.03964 -0.0224408 6.51598e-21)
(1.04032 -0.0217166 4.36097e-21)
(1.0392 -0.0216138 -1.31014e-21)
(1.00528 4.10665e-05 1.35468e-24)
(1.00562 1.50971e-05 2.12187e-22)
(1.0048 4.17722e-05 -4.66396e-22)
(1.00501 3.93902e-05 -3.23548e-22)
(1.00574 6.47077e-05 -3.39807e-22)
(0.854933 -0.318344 1.96966e-21)
(0.870217 -0.322431 8.55784e-21)
(0.868952 -0.316141 -1.04559e-20)
(0.987801 0.0448716 7.13274e-22)
(0.983786 0.0367747 -9.73309e-22)
(0.992419 0.0371938 -4.53912e-22)
(1.00936 0.00112168 -2.60169e-22)
(1.00945 0.00117466 -3.88487e-22)
(0.996901 -0.00793945 7.40636e-22)
(0.999294 -0.0071159 0)
(0.997316 -0.00506808 1.06175e-21)
(0.952094 -0.12434 -2.79543e-21)
(0.932841 -0.130005 -1.39215e-22)
(1.01362 0.00164031 5.13638e-22)
(1.01354 0.00126303 2.02777e-22)
(1.0485 0.0460182 -2.65152e-22)
(1.05206 0.0540974 -2.72187e-22)
(1.01374 -0.00218441 -4.34846e-22)
(1.01373 -0.0023455 0)
(0.774129 0.326758 3.54055e-22)
(0.781942 0.325748 1.45107e-22)
(0.774038 0.333394 -7.2258e-22)
(0.880642 -0.0489154 -3.44813e-21)
(0.954342 -0.0414594 7.82259e-22)
(0.952248 -0.0473059 -1.59987e-22)
(0.948503 -0.0401374 1.68399e-21)
(1.00193 -0.0983944 3.67425e-22)
(1.00059 -0.103877 6.22734e-22)
(1.09448 -0.311899 -1.1361e-21)
(1.09634 -0.302444 3.40268e-21)
(1.00994 0.00134648 -1.9353e-22)
(1.01005 0.00140318 0)
(1.00991 0.00134411 4.31065e-24)
(0.877209 -0.32045 5.47617e-21)
(0.881922 -0.314445 -1.07541e-20)
(0.872043 -0.314302 7.62075e-21)
(0.934571 -0.164831 1.06152e-21)
(0.928212 -0.158702 -7.23903e-22)
(0.925656 -0.169423 1.80408e-21)
(1.0063 -0.000237467 -1.67381e-22)
(1.0057 -0.000213792 -4.61706e-23)
(1.00559 -0.0001927 -1.79399e-22)
(0.960261 -0.043044 4.62646e-22)
(0.956986 -0.0367329 0)
(1.04553 -0.0278218 8.12336e-22)
(1.04223 -0.0291239 4.85706e-22)
(0.64485 -0.146332 7.39738e-22)
(0.599815 -0.167077 -2.88038e-21)
(1.0093 -0.00189101 1.74287e-23)
(1.0094 -0.00200323 7.66608e-24)
(1.00932 -0.00197055 3.57149e-23)
(1.00983 0.00130218 7.03052e-23)
(-0.0874076 0.217805 -9.13966e-21)
(0.89988 -0.157235 3.52296e-22)
(0.897105 -0.172833 3.40271e-22)
(1.00844 -0.000602922 -5.13916e-22)
(1.00854 -0.000592835 -1.65912e-22)
(1.00853 -0.000646085 0)
(-0.0358863 0.110217 2.74351e-21)
(-0.0234769 0.0959681 -9.16513e-21)
(-0.0245602 0.0910508 4.21231e-22)
(1.05911 0.00466584 -1.30182e-21)
(1.05852 -0.000193844 9.26677e-22)
(1.05434 0.00321328 -2.15403e-21)
(1.0103 0.0122993 -4.09033e-22)
(1.00858 0.0111187 -1.1577e-22)
(1.00802 0.0134343 -1.53545e-22)
(0.663639 -0.287115 9.13634e-21)
(0.69566 -0.290717 -5.30824e-21)
(0.714018 -0.307432 1.07322e-20)
(1.0092 -0.00178301 3.09051e-23)
(1.00928 -0.00180646 7.48161e-24)
(1.01219 -6.14673e-05 -2.58864e-22)
(1.01343 -0.000926193 -6.92428e-22)
(1.0134 -0.00104119 1.15986e-21)
(1.00518 -5.36541e-06 -1.99454e-22)
(1.00454 -2.90189e-05 -6.45908e-23)
(1.01277 -0.0105309 2.16738e-23)
(1.01245 -0.0103751 1.30405e-22)
(1.01261 -0.0108111 7.317e-24)
(1.01247 0.00593045 -7.8151e-22)
(1.01306 0.00535404 7.18754e-22)
(1.01202 0.00524701 -7.4136e-22)
(1.02507 -0.0170238 1.32747e-21)
(1.02521 -0.0166346 -9.59644e-22)
(1.01042 -0.000783857 1.39515e-22)
(1.01052 -0.000793095 -1.86838e-22)
(1.0106 -0.000768659 -3.20474e-22)
(1.01313 -0.0106929 -3.89903e-23)
(1.01294 -0.010288 4.96482e-23)
(1.02326 -0.0124339 -3.77169e-23)
(1.02296 -0.0125974 -2.56433e-21)
(1.02343 -0.0127589 2.51143e-21)
(0.862515 0.328045 3.58466e-22)
(0.871245 0.337456 1.18212e-21)
(0.838327 -0.307892 -1.40426e-20)
(0.847582 -0.3142 1.30736e-20)
(1.0102 0.00141208 -3.80077e-22)
(1.00988 0.00142064 6.86326e-22)
(0.886955 -0.323035 3.6671e-21)
(0.90315 0.281358 -1.52145e-21)
(0.912501 0.273558 -4.15497e-21)
(1.00834 -0.000611301 -6.86861e-22)
(1.00834 -0.00057 -1.23281e-22)
(1.04201 -0.0481398 1.07661e-20)
(1.0408 -0.0466096 0)
(1.04274 -0.0464835 1.80243e-21)
(0.992881 0.0517294 6.54473e-23)
(0.982307 0.0539882 2.59583e-22)
(1.13401 -0.23812 -9.34844e-21)
(1.14275 -0.237088 -8.31504e-21)
(1.13351 -0.230491 1.94694e-20)
(0.856606 0.0934362 2.11303e-21)
(0.848448 0.0700963 3.73142e-21)
(0.852349 0.0593279 2.51212e-21)
(0.879963 0.0298424 0)
(0.877458 0.0185548 -7.27922e-21)
(0.889052 0.0233606 8.06475e-21)
(1.01739 -0.00279451 -7.87253e-22)
(1.01713 -0.0027233 1.80331e-21)
(-0.0193269 0.10792 1.07794e-21)
(-0.00204936 0.093947 1.79941e-20)
(-0.0164856 0.114992 -2.21699e-21)
(0.918172 0.286141 6.2455e-21)
(0.90642 0.227202 -3.27034e-21)
(0.887561 0.283207 1.11917e-20)
(0.988861 -0.0127933 6.40614e-22)
(0.987368 -0.015184 2.02689e-21)