/*--------------------------------*- C++ -*----------------------------------*\
| =========                 |                                                 |
| \\      /  F ield         | OpenFOAM: The Open Source CFD Toolbox           |
|  \\    /   O peration     | Version:  v2012                                 |
|   \\  /    A nd           | Website:  www.openfoam.com                      |
|    \\/     M anipulation  |                                                 |
\*---------------------------------------------------------------------------*/
FoamFile
{
    version     2.0;
    format      ascii;
    class       volScalarField;
    location    "400";
    object      omega;
}
// * * * * * * * * * * * * * * * * * * * * * * * * * * * * * * * * * * * * * //

dimensions      [0 0 -1 0 0 0 0];


internalField   nonuniform List<scalar> 
9793
(
0.0730505
0.233476
0.0781103
0.0210212
1.23527
0.0232623
0.0220359
0.0207825
0.021598
1.03564
0.0547537
0.288646
0.0210721
0.0207408
0.0231782
0.0205773
0.0217276
0.0220528
1.35525
0.0206859
1.05209
0.0228526
0.358467
0.0196001
0.0222239
0.02118
0.0207261
0.0210112
0.0416128
0.0215851
0.0350327
0.357224
0.183041
0.0220456
0.046293
1.17012
0.0226311
0.0228271
0.0208528
0.0211552
0.0344146
0.0232158
0.0222709
0.0221492
0.0222893
0.0213886
0.044812
0.0458876
0.0492835
0.0209927
0.0474955
0.0584192
0.0234
0.0216045
0.108454
1.13088
0.0214475
0.0910902
0.0984993
0.0208408
0.0218692
0.0231857
0.0687836
0.0219736
0.601416
0.043442
0.0671478
0.0590462
0.169489
0.0536317
0.1067
0.0209111
0.0211839
0.253784
0.0520452
0.08498
0.0214409
0.0211925
0.0220992
0.0212715
0.0465077
0.0220469
0.228631
0.0596988
0.0314014
0.0552436
0.0214123
0.021436
0.0226519
0.022328
0.240418
0.174942
0.0205236
0.362107
0.0228439
0.0719853
1.15002
0.233595
0.0204613
0.0203425
0.0203232
0.021829
0.0204336
0.0204173
0.0210271
0.0308692
0.0224719
0.0219653
0.0229858
0.139456
0.0211016
0.971667
0.0214275
0.97946
0.0579301
0.0214504
0.335411
0.050359
0.0224633
0.357651
0.0910117
0.0226524
0.0213441
0.0236517
0.0218852
1.09403
0.0391892
0.0618875
0.0225887
0.0211791
0.0215203
0.0214457
0.0211838
0.0219038
0.0215603
0.0214327
0.0223507
0.0219653
0.0214192
0.0199904
0.0213328
0.0220099
0.021235
0.0203914
0.0209135
0.0212406
0.254706
0.0204012
0.0204248
0.184502
1.47248
0.0215056
1.46876
1.10862
0.0203954
0.0220949
0.020753
0.0218398
0.0203527
0.0211804
0.0207831
0.0209762
0.0202892
1.29291
0.257458
1.18671
0.0571581
0.0256189
0.0206532
0.0212698
0.0213771
0.466804
0.256761
0.439874
0.0218319
1.34851
0.0214417
0.0195884
0.0212125
0.0274218
2.13871
0.0223424
0.0203692
0.022031
0.195084
0.021166
0.1001
0.0212061
0.0213189
0.0203247
0.0218459
0.0213378
0.0497803
0.979456
0.0617893
0.0271117
0.120288
0.0212214
1.31387
0.0200686
0.0215511
1.25066
1.09002
0.0211819
0.0214408
0.0204256
1.17678
0.020387
0.0284586
0.0224015
0.0306829
0.0469418
0.0518168
0.0216307
0.559049
0.0206477
0.021375
0.256414
0.0200887
0.126887
0.0612493
0.0213801
0.0218996
0.0213402
0.0665929
1.27972
0.0232664
0.0203822
0.0618224
0.0459839
0.0196385
0.019595
0.0224341
0.0202284
0.0442492
0.0963728
0.0214001
0.0212355
1.15488
0.0216417
0.0281194
0.0207479
0.0211593
0.0891084
0.0211684
0.0204241
0.02077
0.0218075
0.0204639
0.0218848
0.0217052
0.0239857
0.0541184
0.0418175
0.0210804
0.0234417
0.0213344
0.0242916
0.0236632
0.0203364
0.175378
0.0211975
0.0538737
0.0216889
0.0261697
0.0197812
0.0197492
0.0305983
1.20816
0.0222658
0.0203716
0.0200538
0.0260251
0.0214005
0.248702
0.244554
0.0211873
1.15337
0.0213833
0.0418821
0.0216732
0.0196891
0.0224242
0.0210174
0.0391645
0.0213762
0.0217032
0.0251585
0.0211266
0.0214319
0.0214078
0.284253
0.0225126
0.022769
0.0215833
0.0218821
0.0220117
0.0257655
0.0212503
0.42759
0.0203993
0.49025
0.415832
0.0224127
0.0221815
0.0203883
0.0267887
0.0240967
0.0215308
0.454967
0.021802
0.02037
0.0242269
0.021836
0.0215366
0.0219343
0.0543168
0.021161
0.0251709
0.0224803
0.0210361
0.258073
1.33766
0.248475
0.0198508
1.08492
0.0221016
0.106471
0.0559592
0.0201565
0.0232966
0.0549798
0.0215801
0.0264423
0.0626903
0.0207451
0.0221357
0.0215309
0.0211822
0.0211007
0.0972161
0.0212132
0.0210189
0.336498
0.0216569
0.0205166
0.0198597
0.0222566
0.020759
0.0578302
0.0219456
0.0213873
0.0216834
0.0218112
0.519652
0.0215806
0.0335034
0.0195973
0.0357821
0.117434
0.0998659
0.0379699
0.0221978
0.0225549
1.02573
0.0219154
0.157364
0.0217268
0.0202853
0.426957
0.0261538
1.41703
0.0213911
0.0471046
1.16486
0.0236818
0.0211344
0.261608
0.0257223
0.25538
0.0234757
0.0215577
0.525212
0.0212815
0.02221
0.0218874
0.0214423
0.0207588
0.0215848
0.0230868
0.507549
0.021741
1.59072
0.342769
1.16182
0.0463192
0.236248
0.0210587
0.0215302
0.111776
0.309218
0.0207585
0.0218644
0.61457
0.020041
0.933704
0.0212707
0.0231214
0.0200209
0.0321649
0.0212059
0.0263085
1.13739
0.0204224
0.354565
0.0249014
0.0220222
0.0251155
0.0215174
0.0222821
0.021414
1.29576
0.0213559
0.0215565
0.0619557
0.0215426
0.0236319
0.0221068
0.0202465
0.028292
0.0211932
0.0215656
0.0199625
0.325224
0.021071
0.321353
0.02128
0.0496806
0.0232035
0.0214333
0.0225799
0.0217383
0.0716505
0.0212109
0.116389
0.0203856
0.0214029
0.0222115
0.667609
0.0372048
0.118493
0.0465307
0.0234701
0.0212689
0.0432931
0.0280249
0.0309075
0.227818
0.277002
0.021687
0.0236448
0.0471412
0.0213501
0.0223008
0.021329
0.0204247
0.0222626
0.997042
0.0263322
0.383088
0.0204446
0.0271817
0.0195715
0.0218766
0.0216757
0.0220683
0.0438139
0.0213662
0.023033
0.020033
0.0214348
0.0241873
0.0362614
0.0212475
0.0212669
0.394185
0.0249435
0.0219572
0.0739649
0.0489959
0.0216422
0.0220697
0.0223245
0.0242231
0.0215809
0.0225522
0.0222195
0.0213055
0.0213762
0.021105
0.252033
0.058865
0.0207601
0.078446
0.0323261
0.0203918
0.0225206
0.0221261
0.704039
0.0216452
1.16516
0.0201992
0.0211796
0.0504901
0.0213081
0.0332509
0.438413
0.0259246
0.0203863
1.88835
0.0247324
0.0205849
0.021375
0.0550953
0.0209214
0.0205661
0.0212734
0.0209162
0.098865
0.0443241
0.0314539
0.0228332
0.0213148
0.0210896
0.0214999
0.0210147
0.021291
0.257555
0.107412
0.0200757
0.022937
0.115762
0.0214204
0.0243666
0.0343149
0.0208868
0.0575093
0.465217
0.0213945
0.143525
0.019693
1.05342
0.0249699
0.548692
0.0211515
0.0211302
0.0217472
0.258273
0.0226176
0.079402
0.0633967
0.27949
0.0343059
1.16873
0.0308097
0.0232069
0.0304751
0.022764
0.262327
0.0215682
0.0592872
0.0199484
0.22314
0.0222441
0.0220141
0.0210653
0.153548
0.0199898
0.0208589
0.0223488
0.0226799
0.0269239
0.0211974
0.021272
0.021387
0.0213606
1.38955
0.0209902
0.303161
0.833889
0.0210015
0.0220591
0.0279397
0.0218628
0.0213233
0.0217589
0.0237713
0.0249624
0.022298
0.022684
0.020515
0.0224186
0.0220566
0.024385
0.0217964
0.0223673
0.50489
0.0213686
1.31851
0.0252626
0.0221433
0.0212828
0.0207255
0.0229685
0.0235989
0.0211498
0.0213945
0.0195451
0.0211257
0.021366
0.0211765
0.0232361
0.0198767
0.0220135
0.0222479
0.0215637
0.023106
0.0223589
0.0317439
0.0225671
0.0210608
0.0212926
0.0205597
0.0201036
0.0210796
0.0201774
0.0209946
0.0213737
0.019981
0.0337035
0.0211635
0.0224728
0.02136
0.0580869
0.0210474
0.0200095
0.053612
0.0196748
0.0219927
0.163198
0.0222551
0.0225983
0.0215775
0.091454
0.0207352
0.0504752
0.231258
0.452463
0.0478369
0.0218816
0.0213678
0.293841
0.0232101
0.0199801
0.24571
0.0588419
0.151549
0.0213032
0.0593195
0.0213709
0.0213529
0.953706
0.0211911
0.52809
0.0234347
0.0585787
0.0210413
0.0232194
0.0219999
0.153321
0.677007
0.0213297
0.0228664
0.0271473
0.0209851
0.02393
0.0506428
0.357626
0.0211224
0.0159833
0.0228035
0.439384
0.0180311
0.367309
0.252568
0.0214097
0.0290651
0.562498
0.0210485
0.0211639
0.0224223
0.0221885
0.0199655
1.05997
0.0199516
0.268167
0.0231387
0.106162
0.0535242
0.0215164
0.110997
0.278788
0.0218302
0.558695
0.0281799
0.0730959
0.0199749
0.0196565
0.288776
0.0214687
0.772038
0.0209874
0.259476
0.0205125
0.0295958
0.302976
0.0214011
2.90339
0.0214365
0.0224463
0.0355151
0.790341
0.753053
0.020192
0.0205322
0.0200395
0.445777
0.328371
0.0229533
0.0250964
0.0251238
0.0200067
0.0210137
0.022025
0.528429
0.0256105
0.0215797
0.021012
0.0208101
0.0565645
0.145617
0.212519
0.0205693
0.0209394
0.0344737
0.0211765
0.514913
0.041352
0.266309
0.203855
0.258781
0.0208699
0.0215243
0.0233874
0.0221754
0.0246548
0.0212213
0.0589794
0.310487
0.0204459
0.316702
0.0208007
0.492305
0.0216669
0.285566
0.0242845
0.0249774
0.0211572
0.0213702
0.0249774
0.440785
0.570971
0.0214806
0.0325887
0.021221
0.0224754
0.0234897
0.828308
0.0245708
0.0730838
0.0208623
0.0276516
0.0212849
0.019903
0.0220646
0.0209677
0.205296
0.021152
0.022591
0.0225984
0.0219549
0.0199574
0.0498719
0.0217173
0.0221418
0.0208869
0.021026
0.287847
0.021058
0.822914
0.0204583
0.0138982
0.0209976
0.522244
0.0211756
0.393321
0.0216193
0.0215139
0.0208968
0.211075
0.307159
0.462508
0.15394
0.139945
0.0214659
0.0232053
0.261908
0.0200327
0.285544
0.227463
0.0496987
0.0899614
0.0224622
0.265315
0.0248295
0.309561
0.246481
0.0224376
0.0215958
0.29019
0.49253
0.0242974
0.023254
0.0212059
0.0223847
0.0345831
0.0210676
0.0200899
0.0222495
0.115223
0.035368
0.0231832
0.447076
0.0209155
0.0201906
0.222758
1.17316
0.0357438
0.0221
0.140724
0.0205663
0.0200196
0.382074
0.0199705
0.0223363
0.261709
0.236739
0.0215982
0.387696
0.11858
0.423195
0.338336
0.681627
0.0225228
0.0554847
0.0217168
0.0208497
0.0213643
0.0217637
0.0213277
1.81015
0.0219036
0.394493
0.020975
0.0399461
0.0218383
0.0355841
0.0236099
0.021471
0.0413189
0.0210468
0.0200778
0.069814
0.0224523
0.0290223
0.021578
0.0201162
0.247393
0.891423
0.0247739
0.0195642
0.0195508
0.021544
0.0225513
1.40001
0.0699589
0.339887
0.032249
0.220134
0.0219029
0.0278215
0.0258792
0.0236678
0.0896863
0.0211705
0.0210608
1.1743
0.0344789
1.3807
0.021106
0.452655
0.323419
0.0243943
0.0399003
0.0235419
1.41935
0.0215424
0.0249091
0.286635
0.02374
0.0211218
0.100717
0.0216827
0.0205301
0.0210292
0.157617
0.0217615
0.0258749
0.523293
0.0383195
0.0245324
0.0325389
0.132472
0.0910493
0.107385
0.0200911
0.0215189
0.0220988
0.0237112
0.0213895
0.0213881
0.263343
0.0235686
0.50699
0.0594474
0.0243519
0.0215435
0.249518
0.0212617
0.228041
0.0686875
0.0206634
0.792267
0.283704
0.0208688
0.021485
0.0214312
0.257067
0.432808
0.0260429
0.0430449
0.0220649
0.148139
1.03731
0.280959
0.0215251
0.0214009
1.44727
0.435298
0.0211232
0.0214231
0.0202067
0.0217612
0.0215903
0.0248252
1.19631
0.0213342
0.0248753
0.363212
0.0217026
0.0218045
0.0239235
0.14434
0.0215366
0.0246276
0.0951938
0.0218235
0.0201101
0.0218781
0.0209348
0.022337
0.308424
0.0630971
0.021997
0.0868535
0.0256598
0.192739
0.0213614
0.0228878
0.0221933
0.0217617
0.2479
0.0219692
0.022332
0.026019
0.0227095
0.0214653
0.0255484
0.0212312
0.0880238
0.0214976
0.0210586
0.596032
0.0211353
0.456976
0.0273163
0.0209854
0.516155
0.0236837
0.0317786
1.1563
0.020268
0.525926
0.0210124
0.0213894
0.486031
0.0947341
0.020288
0.021492
0.0207156
0.0216745
0.077036
0.0221222
0.021917
0.0221792
0.0221704
0.0220329
0.0213555
0.0203218
0.0209805
0.0211908
0.0492955
0.0236956
0.0200451
0.0399564
0.0222098
0.529651
0.0874043
0.0330828
0.0214763
0.0212511
0.068658
0.0230886
0.0214421
0.0217207
0.319675
0.117803
0.0213717
0.0198457
0.0638032
0.0471266
0.0196411
0.301763
0.0374166
0.0215268
0.0218271
0.0330361
0.0216091
0.028369
0.0354886
0.021837
0.147519
0.0412818
0.0317395
0.0198533
0.0213598
0.0198571
0.0198432
0.120338
0.0211382
0.0532793
0.0437688
0.0198464
0.0218851
0.0301515
0.0217373
0.0216781
0.0213935
0.0226299
0.552044
0.0198548
0.0215104
0.272595
0.0230155
0.0216212
0.024783
0.0211515
0.0216457
0.021208
0.0215059
0.0255727
0.0218516
0.0839749
0.045656
0.0198646
0.0214321
0.0198579
0.076925
0.021034
0.0239525
0.0213083
0.0202737
0.031058
0.0204329
0.0293995
0.0214131
0.0204485
0.251507
0.446709
0.0217806
0.0216381
0.0209776
0.357112
0.0734236
0.0213955
0.356992
0.467096
0.0219976
0.0322495
0.322391
0.0234923
0.309913
0.0439848
0.517106
0.0212134
0.0314847
0.0871935
0.0203906
0.253212
1.63723
0.0213934
2.81518
3.5489
0.0238847
0.316355
0.019876
0.0266642
0.0436228
0.0212506
0.263774
0.0198903
0.040605
0.0580305
0.0198638
0.0432248
0.0218535
0.0219818
0.0324897
0.0238118
0.330874
1.88083
0.0201585
0.0239886
0.71734
0.0207283
0.0247487
0.0208246
0.315377
0.0474899
0.0214152
0.0214816
0.0250511
0.585407
0.829074
0.028769
0.0198745
0.0209191
0.922641
0.51979
0.349618
0.0226376
0.0227605
0.0257539
0.0200903
0.0223798
0.0244935
0.0229666
0.0208931
0.0243452
0.271074
1.03623
0.0209936
0.168735
0.0237218
1.0968
2.60158
0.0412011
0.511761
1.16849
0.019887
0.112562
0.120278
0.330512
0.244542
0.0213126
0.120997
0.326094
0.0411048
0.0246168
0.242216
0.271113
0.0211102
0.0252722
0.0244595
0.0212298
0.06813
0.0212937
0.0221404
0.0206546
0.0199121
0.0218093
0.0213689
0.0225145
0.0255305
0.302893
0.0245149
0.324247
0.0208376
0.026487
0.0215694
0.173777
0.61853
0.0212036
0.0436129
0.0217391
0.0202464
0.021301
0.0202432
0.0211244
0.0816681
0.0216158
0.188287
0.0213948
0.0209652
0.259136
0.0225197
0.0218555
0.0211405
0.0213302
0.53012
0.0679903
0.44026
0.182692
0.296313
0.021533
0.0217807
0.0215796
0.0241444
0.044631
0.079056
0.980066
0.0209913
0.0410739
0.0221727
0.213858
1.24185
0.0247658
2.67026
1.47017
0.0226893
0.0388553
0.0209217
0.0451778
0.0237818
0.0850066
0.0432312
0.0199032
3.49971
0.131479
0.0216691
0.0229345
0.0219081
0.180507
0.0221701
0.0217353
0.553188
0.020822
0.827078
0.0273901
0.023989
0.0221734
0.0218133
0.0408902
0.0211652
0.0404373
0.0244631
0.021318
0.0207381
0.0488595
0.022437
1.60978
0.0232921
0.0245498
0.0242976
0.0638791
0.0231289
0.0213539
0.232016
0.0217149
0.0204315
0.22303
0.228722
0.0244477
0.020554
0.0229965
0.0866237
0.0552061
0.0211636
0.0328661
0.0213123
0.083878
0.154619
0.0219658
0.0211426
0.0833813
0.02099
0.0207529
0.0213801
0.0787548
2.79695
0.0371862
0.0243259
0.0218168
0.0220917
0.325204
0.0301737
0.0217008
0.021747
0.0210783
0.800159
1.46541
1.50166
0.021241
0.12988
0.0202512
0.0202209
0.0225042
0.0220267
0.0398007
0.0213607
0.138928
0.356301
3.57954
0.0241588
0.0215162
0.0215504
0.0378287
0.0206402
0.0213785
0.0332285
0.0215029
0.0212814
0.02212
0.0243692
0.0200344
2.42623
0.042355
0.0239925
0.0235766
0.0850387
0.0233383
1.24303
0.0213777
0.0212692
0.0215016
0.0210929
0.0214795
0.0208925
0.0988216
0.0817136
0.0215919
0.0221282
0.0213445
0.0238991
0.0227711
0.0525586
0.0220992
0.456075
0.0213129
0.0218244
0.0215354
0.0742317
0.0215069
0.544787
0.0215044
0.0215296
0.0195598
0.629511
0.0231938
0.19833
0.707168
0.0219018
0.0214974
0.0211562
0.0214163
0.0344122
0.0220697
0.0249028
0.0808015
0.0215968
0.0688876
0.107764
0.0234573
0.0934262
0.0215418
0.0235923
0.0210265
0.0203768
0.0202613
0.0213642
0.251469
0.0804409
0.020847
0.341273
0.0611432
0.0212592
0.432387
0.0203524
0.0329413
0.0222089
0.0210452
0.0847157
0.0214915
0.0226262
0.0238291
0.0576091
0.0738847
0.0219376
0.0210045
0.022329
2.77094
0.51336
0.0377158
0.0269617
0.0214698
0.021421
0.33682
0.0218103
0.0291796
0.084698
0.565548
0.0214775
0.036208
0.0215102
0.0217784
0.0320643
0.0309888
0.0310543
0.0221747
0.0219145
0.0259111
0.038411
0.0473928
0.0204251
0.0251839
0.0884447
0.0234505
0.0395671
0.0216415
0.0217326
0.0213516
0.0297657
0.0147801
0.0647899
0.021483
0.087256
0.0239618
0.0266521
0.0215255
0.0213529
0.0213708
0.0201438
0.0566555
0.0238107
0.0223933
0.0221045
0.0213637
0.0214684
0.162302
0.0214209
0.0214057
0.0217764
0.0425879
0.100773
0.021458
0.0212993
0.0214964
0.234409
0.0219953
0.108843
0.0214849
0.051635
0.0214622
0.0217191
0.0454837
0.021699
0.0324835
0.0217397
0.0214652
0.0203658
0.022435
0.153734
0.0218506
0.0220286
0.229
0.0215879
0.0222575
0.022101
0.0216065
0.0214097
0.0219454
0.0572683
0.0207659
0.0208332
0.0209641
0.321359
0.0241203
0.373228
0.0215246
0.0217196
0.042741
0.29576
0.216983
0.0260826
0.0304982
0.253933
0.0215154
0.263607
0.0222614
0.110617
0.0210083
0.215687
0.504981
0.0195709
0.0234785
0.0229349
0.0222618
0.0200922
0.0519466
0.0209155
0.236046
0.0216993
0.0214037
0.0217748
0.0201052
0.0217805
0.108782
0.0213593
0.0211489
0.0211539
0.0216448
0.0213844
0.519364
0.632097
0.172757
0.0215117
0.0206285
0.0238789
0.0214975
0.0213378
0.103731
0.040481
0.022821
0.0213269
0.519879
0.0226722
0.517708
0.036173
0.0226152
0.020328
0.0212902
0.0278355
0.229182
0.0217644
0.0212343
0.0475849
0.1191
0.0450733
0.592687
0.0213164
0.0240947
0.0238306
0.0199814
0.0217731
0.325347
0.435982
1.19687
0.021279
0.0178994
0.0217369
0.0215107
0.0244941
0.0219708
0.0244652
0.0327241
0.0212519
0.0214962
0.0213523
0.0209019
0.0199896
0.0212612
0.024925
0.234122
0.0291613
0.0195624
0.0200154
0.021277
0.0218633
0.0213478
0.186961
0.0220311
0.0220948
0.0219682
0.21995
0.0212596
0.0231101
0.0648958
0.0213123
0.0212949
1.61475
0.0213649
0.0213706
0.0212299
0.1629
0.0305908
0.0385891
0.0217779
1.21004
0.0205364
0.0202013
0.0204379
0.0212714
0.0399622
0.021278
0.0216876
0.043148
0.021368
0.310333
0.0246853
0.0293263
0.0217757
0.472115
0.0317315
0.0214883
0.0211407
0.0220312
0.0215768
0.0213398
0.305346
0.0209817
0.0502235
0.0211866
0.0219601
0.159495
0.0211075
0.815246
0.0784579
0.0213167
0.0763686
0.0211703
0.0219238
0.0212593
0.021782
0.0207426
0.0213492
0.0213443
0.0214503
0.0930464
0.0215103
0.0209769
0.021862
0.0208088
0.0212211
0.0212238
0.0214302
0.0205433
0.0213134
0.0213074
0.021382
0.0212735
0.0218856
0.530727
0.021249
0.0219808
0.0357966
0.223987
0.0202049
0.0290981
0.0210022
0.0215758
0.0213037
0.021628
0.651106
0.220794
0.0211213
0.0226577
0.299735
0.0215761
0.0430558
0.0735322
0.0199964
1.12076
0.0214931
0.0885227
0.0237892
0.236247
1.27751
0.540344
0.0210112
0.0211321
0.0203191
0.0242686
0.0569387
0.0224311
0.113493
0.571282
0.0213881
0.396283
0.0440997
0.0222604
0.0204166
0.031924
0.0309462
0.0213276
0.0210655
0.0206143
0.0243253
0.0242222
0.0246438
0.0241109
0.0244691
0.0249705
0.021143
0.0213472
0.0211722
0.267453
0.0244475
0.0244964
0.143171
0.043354
0.017215
0.0210925
0.0242701
0.0212397
0.0345032
0.0213627
0.0220255
0.0445621
0.0248625
0.0740562
0.0199268
0.219318
0.0365011
0.0840767
0.237289
0.0304349
0.0211493
0.0213513
0.0213415
0.0638667
0.0214227
0.0208977
0.0213451
0.0287967
0.844124
0.245253
0.0241098
0.0250407
0.0396781
0.0374984
0.229995
0.0447673
0.0414125
0.038231
0.0409026
0.144841
0.0211212
0.0211338
0.0211773
0.0522238
0.0258545
0.0411072
0.0209774
0.0212591
0.0213693
0.199895
0.021193
0.0213207
0.0210954
0.0341878
0.0209771
0.0211761
0.0203418
0.0251664
1.22607
0.0277882
0.0240078
0.0215206
0.12549
0.0266642
0.0201782
0.0213316
0.0495658
0.170906
0.0215748
0.0216475
0.151338
0.0212733
0.021038
0.0209987
0.0216671
0.0363944
0.0210205
0.0215484
0.0211374
0.0216562
0.0213052
0.021175
0.0210701
0.0212827
0.0214624
0.0976779
0.0212502
0.0207007
0.036512
0.0544415
0.0314036
0.0629882
0.0210111
0.481028
0.0212922
0.028879
0.0211091
0.0432905
0.021228
0.0212395
0.020181
0.0411478
0.0245646
0.0212183
0.72629
0.0213109
0.0201847
0.0213368
0.0220656
0.0273745
0.020994
0.0577279
0.0214663
0.124231
0.0426163
0.0215285
0.0331053
0.021018
0.0206759
0.0212008
0.873591
0.0282852
0.0278492
0.0407119
0.0681713
0.0265152
0.0384779
0.0246187
0.0213341
0.0198415
0.168359
0.0417502
0.0209973
0.0362999
0.0209163
0.0210626
0.428774
0.0205472
0.0213258
0.379379
0.0387788
0.0338928
0.0214207
0.0210696
0.033672
0.0209696
0.0204574
0.724938
0.0213312
0.0358721
1.11984
0.323741
0.0213383
0.0221926
0.0211434
0.0199885
0.0530593
0.0216029
0.0214121
0.0331314
0.0207047
0.0235416
0.0214637
0.0223594
0.0237438
0.573992
0.0244041
0.0218626
0.167526
0.217491
0.0213773
0.0396949
0.021761
0.0213189
0.0215246
0.0210247
0.0240098
0.0733659
0.0397924
0.0212859
0.0241385
0.0220064
0.0197797
0.0210935
0.0214665
0.0248971
0.020826
0.021314
0.0221855
0.0216644
0.0663586
0.0213748
0.022397
0.047062
0.0226663
0.0202441
0.228215
0.17054
0.0824294
0.277511
0.0635827
0.020606
0.0220571
0.0420279
1.1046
0.0331887
0.125331
0.233862
0.021488
0.293562
0.0502806
0.0215449
0.0380132
0.021881
0.165794
0.0419899
0.882851
0.0219458
0.0210628
0.0461871
0.0214176
0.0215957
0.244221
1.16132
0.0213475
0.0214254
0.0212437
0.856728
0.0211837
0.0211343
0.0212398
0.0210221
0.0210507
0.0371194
0.0218663
0.0209852
0.0216
0.0298118
0.0304785
0.336474
0.0213403
0.0212416
0.0225232
0.0213152
0.0210237
0.0211335
1.45175
0.0213185
0.0354997
0.0211509
0.0217676
0.020319
0.021367
0.0685868
0.0443656
0.0205659
0.0221102
0.180831
0.0915378
0.0317295
0.135848
0.0214237
0.0298476
0.0211377
0.0197662
0.0211873
0.0202062
0.0210987
0.021256
0.0216213
0.0997107
0.0199903
0.0166485
0.32037
0.0199586
0.023823
0.0406779
0.0218588
0.0211477
0.0212108
0.0212414
0.0211108
0.22917
0.0198651
0.0211796
0.0167984
0.0211348
0.0213051
0.0209986
0.0507183
0.0213862
0.0213732
0.441491
0.0206925
0.0206287
0.021173
0.0320409
0.0212619
0.0196285
0.0211267
0.0200311
0.0437958
0.283614
0.0210761
0.235992
0.0198188
0.0212913
0.0221221
0.170478
0.532327
0.0200307
0.0242531
0.0213263
0.021184
0.0211985
0.0211198
0.0340199
0.224512
0.0213838
0.0218321
0.0746374
0.020975
0.0211286
0.024455
0.0267246
0.447614
0.0213883
0.0235154
0.576288
0.0211599
0.0239229
0.0601077
1.28711
0.0207761
0.0209762
0.0212739
0.0212477
0.0209976
0.23991
0.0211082
0.570743
0.0425907
0.0219085
0.0239605
0.182594
0.0205855
0.0253171
0.326106
0.140801
0.0251966
0.0211972
0.0224404
0.159866
0.0208293
0.0313729
0.0209831
0.0200445
0.0200936
0.0201641
0.0211615
0.301079
0.0216789
0.431087
0.0454625
0.0738814
0.0665538
0.0197985
0.0213815
0.0228071
0.0438735
0.0211826
0.0626108
0.0270554
0.0200294
0.0209507
0.251771
0.0209467
0.0278679
0.225515
0.0210817
0.288367
0.0217918
0.0419178
0.0621805
0.0213932
0.0206255
0.0391857
0.0736177
0.0213539
0.0227533
0.0201942
0.0215226
0.0208802
0.299959
0.0210409
0.0201248
0.0349416
0.0201485
0.268767
0.0214126
0.0211812
0.0212624
0.0504932
0.021005
0.0209067
1.11866
0.0887235
0.0535446
0.021593
0.0201694
0.0328461
0.0662262
0.294438
0.148889
0.0238946
0.0242956
0.0216105
0.0212838
0.0245145
0.0217374
0.0212004
0.0203903
0.0301263
0.0244609
0.0209421
0.0196261
0.021558
0.0206107
0.021321
0.0257487
0.0205322
0.116542
0.026847
0.0982545
0.371093
0.0206791
0.0209634
0.0219607
0.0343769
0.0202563
0.0217267
0.0209247
0.021042
0.0211666
0.0503162
0.0213843
0.452246
0.0212689
0.0208595
0.33845
0.0368882
0.0216613
0.0208877
0.0208584
0.284165
0.164786
0.0215159
0.0202571
0.0234503
0.0209552
0.0212445
0.0210467
0.101299
0.0210087
0.020855
0.0387862
0.0204949
0.0635809
0.0239403
0.0210752
0.021327
0.189849
0.303427
0.317184
0.930365
0.0237436
0.0223298
0.0217107
0.0212457
0.0301275
0.0208311
0.0523135
0.620433
0.0225723
0.0365689
0.0807776
0.0208578
0.311499
0.0241582
0.777384
0.0240928
0.0207898
0.0208073
0.0217334
0.0211035
0.0357192
0.408736
0.0575612
0.021313
0.0209228
0.0208644
0.0261681
0.0243146
0.345137
0.0208895
0.021332
0.0620479
0.0210879
0.11935
0.202396
0.0208848
0.0215157
0.0197492
0.0213641
0.220076
1.36118
0.0208672
0.0211117
0.0207077
0.174254
0.0211611
0.0238325
0.13654
0.0355804
1.45748
0.0423948
0.163032
0.021249
0.0272928
0.0215574
0.0211575
0.0229732
0.169222
0.0204792
0.0212142
0.198424
0.0214183
0.0206477
0.211591
0.0200427
0.0211469
0.261781
0.0963983
0.0200481
0.0202309
0.0432943
0.326218
0.0425119
0.0725323
0.0262635
0.398101
0.0209877
0.0228858
0.0368879
1.19757
0.575861
0.0211704
0.517635
0.198171
0.22866
0.0206377
0.0210213
0.0203152
0.0213232
0.232953
0.0207744
0.0471916
0.0202425
0.0218571
0.0215326
0.270023
0.0213231
0.225521
0.0248615
0.0261767
0.0298805
0.0208674
0.0389309
0.0197311
0.0371049
0.0212918
0.0425764
0.0216874
0.0341839
0.34433
0.0271686
0.281514
0.020798
0.0342629
0.0238529
0.0264137
0.0213973
0.0634062
0.0218842
0.0208991
0.0212111
0.240557
0.0214805
0.0372781
0.4379
0.0258203
0.882448
0.0208442
0.020031
0.0743243
0.0398453
0.20585
0.458131
0.0208645
0.152184
0.298349
0.0445021
0.0207033
0.394789
0.219226
0.0207771
0.0232748
0.0198043
0.15098
0.361894
0.288922
0.357714
0.0208065
0.0206818
0.0216956
0.0202041
0.0230827
0.0240968
0.0220314
0.020402
0.510202
0.0221889
0.0213158
0.0296286
0.31931
0.231366
0.0219365
0.0262294
0.02208
0.434198
0.0207922
0.216967
0.0213047
0.0353889
1.60054
0.0217065
0.273755
0.0204117
0.0199144
0.0208106
0.0208399
0.0206911
0.0208392
0.0197812
0.290879
0.0238589
0.0210332
0.537651
0.020887
0.0214159
0.0206658
0.662497
0.0212497
0.0226672
0.406548
0.315666
0.020912
0.0197927
0.528624
0.0213042
0.384375
1.66029
0.0214043
0.0216644
0.03123
0.179139
0.523053
0.020259
0.0206575
0.0226335
0.0302375
0.0231604
0.517912
0.322521
0.0227663
0.0217442
0.0271789
0.0219562
0.179936
0.490954
0.0205785
0.427652
0.191809
0.0212828
0.0209371
0.0208938
0.0208658
0.0206613
0.0210435
0.0207509
0.0222341
0.275809
0.0236821
0.0215393
0.0233483
0.0248427
0.0206235
0.0207195
0.0940205
0.023018
0.0246234
0.0205984
0.0217114
0.0205707
0.0199996
0.566505
0.0213439
0.021067
0.531085
0.378597
0.378703
0.0208929
0.92128
0.0214812
1.14799
0.524975
0.0224681
0.409688
0.0206959
0.0203061
0.0654117
0.0208461
0.0474542
0.633973
0.538531
0.0239899
0.0373987
0.0213611
0.0208387
0.0222272
0.0206684
0.532301
0.512253
0.0208765
0.551229
0.485346
0.0197407
0.0206902
0.304707
0.0874854
0.0434931
0.0271282
0.14047
0.405152
0.0212988
0.306213
0.132288
0.233263
0.377487
0.023096
0.540364
0.0197733
0.035359
0.0528995
0.0198523
1.0362
0.56962
0.0472684
0.0196432
0.430113
0.0204042
0.0206849
0.821911
0.625749
0.0206906
0.0217875
0.187188
0.0198366
0.0279435
0.0208006
0.0427998
0.0194135
0.0221
0.0214721
0.268485
0.0331215
0.262593
0.0401531
0.0209434
0.293029
0.0210315
0.3272
0.0264084
0.0204595
0.57744
0.0215541
0.113545
0.0213641
1.36903
0.0211649
0.0214132
0.0202454
0.0213897
0.0205145
0.0220466
0.142325
0.029284
0.0206141
1.46635
0.340557
0.0203235
0.0205755
0.414802
0.193169
0.170709
0.232148
0.203146
0.0205829
0.0212826
0.0237326
0.025494
0.13261
0.0287118
0.0206369
0.0212841
0.0211993
0.0198182
0.0206354
0.0344102
0.0206077
0.203373
0.0209113
0.0213576
0.0697566
0.0197786
0.0352385
0.609218
0.0208341
0.0207849
0.0209719
0.0276856
0.0196427
0.0202311
0.064412
0.315526
0.0263024
0.0215362
0.0308822
0.0205492
0.0213793
0.0212496
0.171999
0.0370663
0.239659
0.0429782
0.0322204
0.0342648
0.0768934
0.0210375
0.0237791
0.0196541
0.0196437
0.0262504
0.0208178
0.417651
0.174286
0.024319
0.0591943
0.0315982
0.571319
0.0432488
0.0200435
0.0110697
0.0233741
0.339643
0.0213261
0.0204663
0.020146
0.0314041
0.526381
0.0418089
0.259313
0.0209762
0.152227
0.0206023
0.342715
0.120378
0.0204888
0.0225006
0.0212413
0.637161
0.233732
0.0216612
0.0196323
0.182641
0.0243174
0.0359358
0.0214611
0.0212829
0.411325
0.0893761
0.0205513
0.0271119
0.0207139
0.023707
0.0218868
0.149091
0.020709
0.0219876
0.0351001
0.0213412
0.0208517
0.106831
0.187358
0.021461
0.0214496
0.0216833
0.0206067
0.0205194
0.334458
0.278812
0.0208604
0.0264222
0.0208304
0.0213635
0.0213517
0.0211626
0.35239
0.283244
0.171018
0.322823
0.020758
0.0273692
0.0208447
0.021812
0.426095
0.0215771
0.0365664
0.0207299
0.0150539
0.0214839
0.33679
0.303574
0.0204561
0.0208381
0.0500184
0.0359899
1.09189
0.322308
0.0338672
0.390536
0.0241473
0.0211881
0.241481
0.0207613
0.229885
0.0199451
0.0452015
0.0281239
0.0208318
0.0214851
0.0208758
0.12019
0.294535
0.021395
0.0225977
0.0229837
0.0416069
0.0204863
0.0242035
0.308838
0.020451
0.0442202
0.138424
0.0202192
0.370362
0.0294159
0.539286
0.0204731
0.401843
0.0209186
0.0202795
0.283952
0.020473
0.184783
0.0199826
0.0208136
0.0205297
0.0237051
0.328749
0.0207485
0.371581
0.019773
0.0255375
0.25599
0.0212612
0.297313
0.109779
0.0345969
0.0923826
0.0215947
0.0205497
0.227048
0.0204971
0.0203726
0.0208694
0.199968
0.20695
0.505006
0.266539
0.0201317
0.0210556
0.0215989
0.481142
0.0206724
0.447786
0.234851
0.0212377
0.335038
0.520779
0.176678
0.0203936
0.0203631
0.0244697
0.0213287
0.0545364
0.535907
0.0203299
0.0244057
0.0207012
0.261476
0.327333
0.0211117
0.445889
0.0209895
0.021472
0.0198022
0.0206059
0.0801699
0.33181
0.0204464
0.0419024
0.328789
0.0198742
0.25342
0.0206364
0.0208935
0.0429593
0.0203934
0.544144
0.0198343
0.0800177
0.0988257
0.0197723
0.0201125
0.0209953
1.48727
0.0259444
0.125745
0.0178187
0.02584
0.0235902
0.338748
0.0205103
0.539837
0.20765
0.0206483
0.208602
0.0530562
0.282979
0.200258
0.332
0.0203797
0.252165
0.0326798
0.226005
0.236397
0.0204816
0.0203477
0.0207421
0.571551
0.0203185
0.020178
0.326884
0.0223666
0.021309
0.020359
0.0208431
0.0202934
0.0205782
0.0381927
0.0208266
0.152478
0.271014
0.0243966
0.0241536
0.0206327
0.0204023
0.136877
0.0428161
0.305314
0.42288
0.0205161
0.0206742
0.0368667
1.1102
0.202784
0.02042
0.410597
0.24231
0.0199301
0.0345963
0.0451882
0.0201633
0.0208797
0.0211875
0.021305
0.0201131
0.322689
0.520119
0.0209311
0.288845
0.0213898
0.0363392
0.0209099
0.0213364
0.0252715
0.0372736
0.0266642
0.0203346
0.01983
0.0203045
0.0203074
0.377077
0.159968
0.320536
0.0683679
0.247492
0.0222405
0.0203318
0.163152
0.246211
0.0212737
0.294863
0.0221889
0.0197718
0.206012
0.404435
0.0238578
0.0238572
0.0373941
0.0844233
0.0640611
0.0202799
0.0238221
0.020707
0.0947939
0.0206901
0.327978
0.351284
0.184419
0.334811
0.0364826
0.159018
0.331061
0.0209103
0.0203945
0.0209496
0.0208409
0.206543
0.0206323
0.0206519
0.0220128
0.0215182
0.0202283
0.325472
0.128979
0.214786
0.0202682
0.0590062
0.247037
0.242666
0.0213195
0.0204316
0.0229778
0.020193
0.313709
0.0255658
0.0202945
0.0223914
0.0205877
0.41409
0.0585938
0.0206184
0.372333
0.0215032
0.0203543
0.212237
0.373828
0.034944
0.0210443
0.326993
0.284369
0.0196497
0.0205108
0.301028
0.0460372
0.0211223
0.272456
0.0210968
0.0203987
0.0205341
0.0203437
0.167855
0.0202092
0.0203735
0.280098
0.225234
0.0205027
0.0208308
0.128861
0.33495
0.0220999
0.24072
0.0203872
0.512556
0.853494
0.0215642
0.0202303
0.254553
0.220984
0.0230929
0.0201327
0.355055
0.0250098
0.0202468
0.627681
0.0209282
0.040628
0.0204753
0.31866
0.223261
0.33349
0.335292
0.0204214
0.324226
0.0211231
0.0966906
0.229413
0.0201764
0.0319755
0.0200116
0.366408
0.0206913
0.0203476
0.0199771
0.0204589
0.0202936
0.0201322
0.0615027
0.0214534
0.0631996
0.0225216
0.0197466
0.0231787
0.334809
0.0205617
0.287177
0.0202726
0.021149
0.188772
0.0214992
0.193298
0.0237166