/*--------------------------------*- C++ -*----------------------------------*\
| =========                 |                                                 |
| \\      /  F ield         | OpenFOAM: The Open Source CFD Toolbox           |
|  \\    /   O peration     | Version:  v2012                                 |
|   \\  /    A nd           | Website:  www.openfoam.com                      |
|    \\/     M anipulation  |                                                 |
\*---------------------------------------------------------------------------*/
FoamFile
{
    version     2.0;
    format      ascii;
    class       volScalarField;
    location    "450";
    object      nut;
}
// * * * * * * * * * * * * * * * * * * * * * * * * * * * * * * * * * * * * * //

dimensions      [0 2 -1 0 0 0 0];


internalField   nonuniform List<scalar> 
10042
(
0.00975557
0.00364264
0.00222925
0.00671082
0.00675087
0.0159526
0.00217358
0.0177293
0.00670389
0.00164169
0.0106638
0.00373367
0.00120942
0.00684208
0.00679156
0.00684392
0.015906
0.0107001
0.00209609
0.00252572
0.00119841
0.00922222
0.00671035
0.0165297
0.00673492
0.00699093
0.00170832
0.00669001
0.0160756
0.0234505
0.00697434
0.00130007
0.00669949
0.00669705
0.016361
0.0149022
0.00682425
0.00669394
0.00687729
0.00712348
0.0219994
0.00670065
0.00163052
0.0053532
0.00671687
0.00673862
0.00668478
0.00678329
0.00146781
0.0104905
0.00170156
0.00671022
0.0157016
0.00230266
0.00258169
0.0242792
0.00123085
0.010587
0.00681746
0.00667989
0.00147563
0.00241134
0.00172237
0.0184456
0.0083681
0.00686378
0.00286427
0.0123945
0.0066836
0.0116629
0.00335392
0.00489309
0.00673341
0.00681316
0.00685595
0.003014
0.0038314
0.00668472
0.00280436
0.00211406
0.00563499
0.0188024
0.00709025
0.00671096
0.00169732
0.00210908
0.00314773
0.00105016
0.00677541
0.00335592
0.00137204
0.00679005
0.00194535
0.00212089
0.00818243
0.00676105
0.0312533
0.00266856
0.00620929
0.00680575
0.0015526
0.00205969
0.0068329
0.00125731
0.00196584
0.0068037
0.0350088
0.00684097
0.00221798
0.00681277
0.00680399
0.00236135
0.00201229
0.0167404
0.00714016
0.00668537
0.00608361
0.00694729
0.00937857
0.00668604
0.00667924
0.00347658
0.00258041
0.00671882
0.00443157
0.00679967
0.00681096
0.00309801
0.000835533
0.00634676
0.00670199
0.0068301
0.00686596
0.00680769
0.00240171
0.00271538
0.00321694
0.0342494
0.00300157
0.00680547
0.00139944
0.00675695
0.0344027
0.00668976
0.00175667
0.00669453
0.00185604
0.00668262
0.00683781
0.00216137
0.00683334
0.00687283
0.00280953
0.00111612
0.00708288
0.00179494
0.00112503
0.0180637
0.0068754
0.00699108
0.00689265
0.00722301
0.00222509
0.00678518
0.0037333
0.00418472
0.00673086
0.00120459
0.0153645
0.00669412
0.00760856
0.0238015
0.00254763
0.00669468
0.00223135
0.00192042
0.0067338
0.00669456
0.00681218
0.00668344
0.00324005
0.00184028
0.00681052
0.00668165
0.011133
0.00134765
0.00469033
0.00669014
0.0254047
0.0068537
0.0038536
0.00121834
0.00670437
0.00195827
0.000715696
0.00678887
0.0219947
0.00741371
0.0385976
0.00671272
0.00223565
0.00172769
0.00632975
0.0067648
0.00666429
0.00684307
0.0105599
0.0011862
0.00679623
0.00680786
0.00118266
0.00674042
0.0064403
0.0063487
0.00684584
0.00997942
0.00675894
0.0228404
0.00675058
0.00214774
0.0364425
0.00703583
0.0384618
0.0108597
0.00671145
0.00174699
0.00681824
0.00352503
0.0015414
0.00683898
0.00669584
0.00682705
0.00150582
0.00703183
0.00673466
0.0169957
0.00446806
0.033506
0.00185535
0.0151565
0.0293801
0.0211026
0.00667917
0.00735479
0.00587313
0.00676079
0.023132
0.00203156
0.00263453
0.00681885
0.00189791
0.0067088
0.00656535
0.00311604
0.00683322
0.00486564
0.00690986
0.00682119
0.0286242
0.00671914
0.00749839
0.00669957
0.00670915
0.00668576
0.0011449
0.00251687
0.00558034
0.00594724
0.00701607
0.00683038
0.0067283
0.0069505
0.00678212
0.0066732
0.00681653
0.00729484
0.00327709
0.00672076
0.00702163
0.00135224
0.00669025
0.0143501
0.0202734
0.00370272
0.00687235
0.0414572
0.00657366
0.00669279
0.00594859
0.00693271
0.00127425
0.00694874
0.00690093
0.0146756
0.00994066
0.00685768
0.0134302
0.00376792
0.00672915
0.00676904
0.00289121
0.00670838
0.00669114
0.028267
0.0065445
0.00253031
0.00680436
0.00749008
0.0195647
0.0141141
0.00686809
0.00679465
0.00675576
0.00685111
0.00698952
0.00409662
0.00668585
0.0105269
0.0153009
0.00668537
0.00698388
0.0101684
0.00651009
0.0116399
0.0124726
0.00687274
0.0077252
0.00681023
0.00408634
0.00131764
0.00683619
0.00676078
0.0110909
0.00688579
0.0120539
0.00395443
0.0353575
0.0106296
0.00671196
0.00564169
0.00134943
0.00119063
0.00667934
0.00746579
0.00695866
0.00669523
0.00675039
0.00676183
0.00713604
0.0364974
0.00499303
0.00980669
0.00714843
0.0069258
0.00228853
0.00772977
0.00682385
0.00708066
0.0166092
0.00697349
0.00679478
0.00682876
0.00375763
0.0221841
0.00987756
0.00336016
0.00672464
0.00713262
0.00712581
0.00241709
0.00668181
0.00708743
0.00678998
0.00702214
0.001885
0.00681668
0.00805359
0.0271566
0.0161835
0.00191497
0.00677291
0.0290178
0.00159905
0.00679725
0.00112825
0.00668677
0.00679464
0.00668311
0.00689331
0.00669189
0.00680958
0.0345776
0.00501668
0.00786395
0.0121158
0.00276896
0.00671551
0.016755
0.00683395
0.00115775
0.00671102
0.0424854
0.00726816
0.00281373
0.0261768
0.00693347
0.00129517
0.00715118
0.0290151
0.0068076
0.0129673
0.00163187
0.0186403
0.00537569
0.0208642
0.00693868
0.00157574
0.00230027
0.00668846
0.00692916
0.00685451
0.0141019
0.00669858
0.00668113
0.00139917
0.00688099
0.00166964
0.0126399
0.00671722
0.00119745
0.00688732
0.00668535
0.00157021
0.0160228
0.00707601
0.00403733
0.00578312
0.00979511
0.00699525
0.0285079
0.00668979
0.00707111
0.00320709
0.0200646
0.00347099
0.0082617
0.0215111
0.00197201
0.018306
0.00668146
0.00567451
0.021971
0.0223876
0.00116193
0.00671
0.00675699
0.00610933
0.0309685
0.00668257
0.00684964
0.00700494
0.00671495
0.0070257
0.007085
0.00687726
0.00374496
0.00560082
0.00344226
0.00709488
0.00811755
0.00190381
0.00674229
0.0431345
0.00573844
0.00683187
0.00685793
0.00162125
0.00700693
0.00269631
0.00673471
0.00735805
0.00556962
0.00626307
0.00678791
0.00190708
0.00684674
0.00543618
0.0103917
0.00699598
0.00672097
0.00679683
0.00455145
0.00669848
0.00734987
0.00296439
0.00129556
0.0068698
0.00710188
0.0158887
0.00236623
0.00677901
0.00696863
0.0170706
0.00413881
0.00123604
0.00559703
0.00686292
0.0117618
0.00166026
0.0016573
0.00230056
0.00910875
0.00685934
0.00670966
0.00682505
0.0152965
0.00671712
0.0287965
0.00671432
0.00676531
0.00674282
0.0016346
0.0054712
0.00683472
0.00411735
0.00535468
0.00751938
0.00186723
0.00683153
0.00684621
0.0120413
0.00230768
0.00677971
0.00671336
0.00308575
0.00676794
0.00675067
0.00152629
0.0066976
0.00121924
0.0067196
0.00155057
0.00683305
0.0416866
0.0067177
0.00155469
0.00676877
0.00671973
0.00528103
0.00667969
0.02713
0.00118003
0.00669796
0.00759583
0.0361088
0.0273141
0.00669769
0.00688319
0.00671315
0.00668176
0.00694881
0.00531176
0.00681514
0.0152452
0.00675081
0.0067824
0.00331171
0.0018678
0.0051412
0.00699421
0.00670875
0.0027753
0.0185073
0.00708981
0.0088873
0.0067248
0.00152957
0.00674543
0.0067005
0.00681304
0.0067972
0.00678881
0.0068688
0.042391
0.00619572
0.00233019
0.00671676
0.00725975
0.00668654
0.0019055
0.0256751
0.00669553
0.00671911
0.0123265
0.00695477
0.00668751
0.0111745
0.00673199
0.00875724
0.00669429
0.00685575
0.00671647
0.0184342
0.0066868
0.00678089
0.00682915
0.0112987
0.00705709
0.00681576
0.0068817
0.00862513
0.00671629
0.00673188
0.00674667
0.00673207
0.00211587
0.00673563
0.00724747
0.00675533
0.0262998
0.00675082
0.00933241
0.00680385
0.00194044
0.00674458
0.0022921
0.00681531
0.0176241
0.00547251
0.00840849
0.00830978
0.0239896
0.00672387
0.0067676
0.0195839
0.00773334
0.0077981
0.00153766
0.00680571
0.0161977
0.00673341
0.00678505
0.00675297
0.0066964
0.00688163
0.0183905
0.00361342
0.00696643
0.0377245
0.00674228
0.00176047
0.00704026
0.00377408
0.00736407
0.0068378
0.013858
0.00683207
0.00678462
0.00222171
0.00677237
0.00673381
0.0069891
0.00674974
0.00671035
0.0137064
0.00102883
0.00808549
0.00677555
0.00676518
0.00674527
0.0196635
0.00458766
0.00686076
0.00680208
0.00673369
0.024353
0.0169195
0.00833311
0.00681996
0.00686474
0.0223545
0.00150565
0.00714031
0.00175209
0.0187364
0.00247179
0.0242571
0.00673116
0.00687936
0.00684633
0.0183148
0.00672807
0.00180887
0.00687714
0.00668084
0.00755151
0.00697341
0.0234148
0.0291231
0.00669297
0.00671656
0.00668013
0.00951438
0.00669595
0.0142473
0.00710781
0.0233392
0.00675974
0.00685004
0.00669629
0.00670961
0.00675615
0.00674203
0.00673595
0.00533577
0.00782876
0.0020522
0.00916224
0.00671994
0.00180184
0.0179492
0.00684697
0.0137592
0.00671645
0.00680821
0.00731172
0.00691748
0.00938309
0.00687596
0.00680255
0.00675407
0.00805941
0.00683376
0.0193673
0.0012774
0.00676952
0.00209965
0.0167017
0.00699955
0.00673832
0.0015271
0.00707946
0.0285541
0.00781592
0.00271548
0.00761594
0.00676929
0.00678601
0.00684867
0.00198395
0.00693267
0.0121419
0.0022513
0.00668194
0.00707876
0.00681227
0.00320787
0.00707375
0.0145566
0.00649172
0.006787
0.00552398
0.00675415
0.00144372
0.00155943
0.00688465
0.0214887
0.00753706
0.00677537
0.00699399
0.00161535
0.00681167
0.00256598
0.00573394
0.001625
0.0017331
0.00640228
0.00695839
0.00170917
0.00717648
0.00506037
0.00122569
0.00668995
0.00157284
0.00679093
0.00565792
0.00686593
0.00675359
0.00286309
0.00142383
0.00694073
0.00679022
0.0084212
0.00669169
0.00676355
0.00671432
0.00668158
0.00848457
0.00734546
0.0061099
0.00928562
0.0132881
0.0067541
0.00631016
0.0288867
0.00672903
0.00681093
0.00668075
0.00546496
0.0169941
0.00193378
0.00673261
0.00143825
0.0021168
0.0404761
0.00704178
0.0051841
0.00200872
0.00981189
0.00759266
0.00675484
0.00722936
0.00896707
0.00275406
0.00605604
0.0420934
0.00296939
0.0210984
0.0122609
0.0068215
0.00253975
0.0277696
0.00567283
0.000579573
0.00199064
0.0418824
0.00682086
0.0243643
0.00677084
0.00891245
0.00695215
0.00663381
0.00668898
0.00679501
0.00671834
0.0202682
0.0068424
0.00668413
0.00317
0.00675449
0.00152455
0.00707459
0.0122787
0.00692074
0.00392038
0.00680103
0.00685839
0.00673831
0.00171223
0.00671362
0.00761342
0.00174617
0.00377096
0.00685581
0.0101885
0.00670831
0.00133669
0.0119435
0.00629192
0.00674535
0.00668505
0.00684925
0.00684222
0.0255494
0.00210536
0.00675278
0.0139076
0.00687112
0.00678178
0.013317
0.00668206
0.00678056
0.017287
0.00670946
0.0138743
0.00294459
0.00205677
0.00162617
0.00208351
0.00769711
0.00675743
0.0140287
0.0173694
0.00671838
0.00164448
0.0229573
0.00969742
0.00237049
0.00701364
0.00677497
0.00725519
0.00679698
0.00738317
0.0117578
0.00194257
0.00668198
0.00124378
0.00691613
0.0172885
0.00668272
0.00668019
0.00698165
0.0068102
0.0159795
0.0119381
0.00679571
0.00173375
0.0121042
0.00684427
0.00690829
0.0427606
0.00371265
0.00989344
0.00720668
0.00686036
0.00678298
0.00726296
0.00234305
0.00524188
0.00683777
0.0119898
0.018888
0.0154125
0.0019884
0.00390515
0.0427081
0.00121705
0.0150262
0.00132992
0.00676607
0.00680971
0.00935309
0.0285457
0.00691952
0.00181972
0.00125882
0.00680246
0.00196818
0.00691696
0.00679809
0.00699115
0.00122177
0.00677269
0.00672151
0.0412844
0.00676855
0.00676841
0.00165127
0.00170877
0.0104874
0.00696295
0.00680187
0.00964216
0.00140612
0.00691252
0.0012766
0.0138606
0.00674057
0.00671055
0.00170191
0.0035629
0.00673746
0.00696395
0.00680845
0.00693977
0.00685938
0.00129089
0.00685786
0.00569446
0.00677732
0.00199741
0.00684797
0.00607485
0.00604262
0.0232709
0.00220916
0.00674733
0.00687399
0.0129498
0.00613424
0.00646413
0.00390879
0.0165415
0.00674598
0.0061437
0.0030048
0.0071033
0.0026689
0.00671222
0.00470221
0.0343985
0.00569009
0.00698046
0.00579878
0.0015796
0.0075259
0.00674325
0.00673586
0.00115981
0.00669124
0.00672521
0.00946338
0.00694204
0.0163783
0.00671263
0.00674331
0.00676267
0.00208588
0.00700333
0.0072186
0.00353589
0.00672916
0.00680392
0.0203488
0.00681714
0.00501028
0.00693706
0.0139771
0.00992386
0.00686678
0.00616572
0.00252394
0.00678092
0.0275514
0.00404726
0.00678483
0.00668473
0.00671861
0.00707791
0.00630878
0.00175011
0.0183766
0.0135993
0.0135859
0.00213672
0.0099418
0.00214933
0.00867646
0.00669729
0.00144755
0.00678298
0.00684002
0.00681378
0.00517377
0.0194019
0.00675074
0.00896228
0.00675731
0.00235967
0.00685594
0.00242206
0.00710401
0.00706004
0.00848908
0.00672863
0.0066912
0.00780552
0.00184113
0.00545571
0.00656792
0.0137749
0.00697304
0.0110437
0.0151888
0.00670708
0.0067216
0.00675762
0.00204567
0.00691041
0.00401297
0.00685019
0.00704944
0.00698736
0.00680208
0.0070005
0.0085486
0.0230412
0.00670522
0.00283209
0.00269818
0.00118402
0.00177251
4.94507e-05
0.00671129
0.00130712
0.00187672
0.00675354
0.00128807
0.0132016
0.00679619
0.00672504
0.00699985
0.0213526
0.0157766
0.00677771
0.0113641
0.00682351
0.00680869
0.00604535
0.00681012
0.00694148
0.00676264
0.00698084
0.00739753
0.00918227
0.00700452
0.00686602
0.00671559
0.00688328
0.00671938
0.0171183
0.00669193
0.00224296
0.00262144
0.0131209
0.0066992
0.0229369
0.00680477
0.00322491
0.00695055
0.00499411
0.00668998
0.0098137
0.029145
0.0327435
0.00675853
0.00702417
0.0143037
0.0127017
0.00700398
0.0134699
0.00679283
0.00912492
0.020992
0.00714986
0.00887085
0.0152663
0.0147884
0.0428256
0.00202848
0.018517
0.00672723
0.00701993
0.0136837
0.00139767
0.00671573
0.00612433
0.00384666
0.00672588
0.00686172
0.0053842
0.00141244
0.00208204
0.0161561
0.00161564
0.00999078
0.00323233
0.00673395
0.0069256
0.011472
0.0143216
0.00156239
0.0203076
0.00683804
0.00682824
0.00134965
0.0139478
0.00140266
0.00672983
0.000564157
0.0221501
0.00683435
0.0046453
0.00676822
0.0012397
0.00412046
0.00679704
0.0130298
0.0108553
0.00672236
0.00344348
0.00671594
0.00931389
0.00696366
0.00246708
0.00786963
0.00673914
0.00687587
0.00668999
0.001303
0.00680071
0.00585417
0.00719151
0.00657862
0.0117788
0.0059229
0.00152373
0.0173277
0.00681293
0.00385404
0.00686957
0.00676038
0.0419483
0.0216967
0.00683139
0.00599363
0.00796974
0.0124545
0.00676669
0.00697088
0.00714894
0.00689044
0.00187101
0.00918011
0.00700506
0.0069868
0.0162247
0.0041372
0.00254489
0.0206445
0.0021182
0.0145207
0.00671839
0.00668589
0.017998
0.00682673
0.0227462
0.0133193
0.00175495
0.0122645
0.00684743
0.00698875
0.00346041
0.0139465
0.0067833
0.00461201
0.00709695
0.00676682
0.00149271
0.00339967
0.0067987
0.0011206
0.00236885
0.00692102
0.00236233
0.00671013
0.00688165
0.0145146
0.00132845
0.00893791
0.00674878
0.00147599
0.00674104
0.00672392
0.0223301
0.00676949
0.00860987
0.00983214
0.00432634
0.00617417
0.00126899
0.00800679
0.00668081
0.00817493
0.00163978
0.00180198
0.00267442
0.00700233
0.00674145
0.00234481
0.00258694
0.00983759
0.00126575
0.00671725
0.0175258
0.00667979
0.0402189
0.00670901
0.00587755
0.00683006
0.00671559
0.00671075
0.0100635
0.00671149
0.00680747
0.00669669
0.00674017
0.00672178
0.00139067
0.0154532
0.00687202
0.00165622
0.0067861
0.00670886
0.00670633
0.0141023
0.0402436
0.00176031
0.00676959
0.00670905
0.00675304
0.00221316
0.0018129
0.00670667
0.00649676
0.00154832
0.00818297
0.00683711
0.00674399
0.00671613
0.00249868
0.00672718
0.00475057
0.00672812
0.00672647
0.00652945
0.00685011
0.0086904
0.0201737
0.0244902
0.00725465
0.00671166
0.00679978
0.042406
0.00696251
0.00141633
0.00698925
0.00672943
0.00676609
0.00671896
0.00379513
0.00683444
0.00604927
0.0194244
0.00130427
0.00674562
0.00178301
0.0218458
0.00233645
0.00133394
0.00692462
0.00133902
0.00672608
0.00164102
0.00233639
0.0140914
0.00677349
0.00676861
0.00277888
0.00189295
0.00125659
0.00703499
0.012426
0.00673845
0.00173092
0.00793636
0.00271899
0.00127687
0.0068753
0.00680476
0.00683186
0.00678988
0.0016534
0.0097086
0.0119072
0.00672133
0.0393724
0.00690345
0.00654999
0.0108591
0.00673288
0.0226136
0.00184487
0.00672338
0.00193161
0.00131469
0.00680017
0.00957142
0.00671236
0.037368
0.00804085
0.0326143
0.00393258
0.00109611
0.0067724
0.00168882
0.00486661
0.00673666
0.0067077
0.00678229
0.00228057
0.00421727
0.00132822
0.0136561
0.0199545
0.00133332
0.00828989
0.00683186
0.0406612
0.00672338
0.0100495
0.0144989
0.0224327
0.00462856
0.0207744
0.00359826
0.00669285
0.0067992
0.00670548
0.00172493
0.00693117
0.0237975
0.00188302
0.0408376
0.00157877
0.00683086
0.00682321
0.00677549
0.00669312
0.0124638
0.0245641
0.0358762
0.00678725
0.0070583
0.00227895
0.00685685
0.00164269
0.00673702
0.00827291
0.0104141
0.00539307
0.00730397
0.0113029
0.0016442
0.00922602
0.0126422
0.00684608
0.012029
0.0069308
0.0412328
0.00670879
0.00454554
0.00687125
0.00629769
0.00625666
0.0204102
0.0202269
0.0424286
0.00153608
0.00625957
0.00719426
0.00707786
0.0164337
0.0147113
0.00174475
0.00155756
0.0366992
0.00785704
0.023142
0.00118726
0.00305865
0.00458759
0.00122238
0.0224576
0.00702123
0.00530456
0.00709484
0.00673354
0.00672048
0.00673533
0.0068185
0.020524
0.00393365
0.0147533
0.00162228
0.00180935
0.0162069
0.00675726
0.00679863
0.00523983
0.0114022
0.0126159
0.00222285
0.0155344
0.0384721
0.0063331
0.00672989
0.00127379
0.00244073
0.00151968
0.00157074
0.0232481
0.0210049
0.00134784
0.00679701
0.00685225
0.00257579
0.0119581
0.00114648
0.010766
0.00670972
0.00575663
0.00258658
0.00361906
0.00245675
0.00671292
0.00671258
0.00279782
0.00253501
0.0123314
0.00562445
0.0013597
0.00824631
0.00697401
0.0190836
0.00616926
0.00137174
0.00695272
0.0013552
0.00224911
0.00671062
0.00679927
0.0069997
0.00207189
0.00163019
0.00124542
0.00376376
0.00297665
0.00661928
0.00766739
0.0013809
0.00242331
0.0068038
0.0111831
0.00693128
0.0224676
0.00329733
0.00139593
0.00674204
0.00202387
0.00769671
0.00127687
0.0325016
0.00692536
0.00691644
0.00829407
0.00698201
0.0196776
0.00289548
0.00679784
0.0027301
0.00875456
0.00672568
0.00315695
0.00680467
0.0226658
0.0106694
0.00798531
0.00284325
0.00671611
0.00671258
0.00674112
0.0021632
0.00668701
0.00680491
0.00670932
0.00672097
0.00244047
0.00686779
0.00699937
0.00684356
0.00538689
0.00676338
0.0315596
0.00423233
0.0067575
0.00351597
0.00671051
0.0346021
0.0105652
0.00679188
0.00447645
0.00114713
0.0116904
0.00709971
0.0301149
0.00146275
0.0070287
0.00322966
0.00676407
0.0408831
0.00678976
0.0112223
0.00675123
0.0220295
0.0422414
0.0125789
0.00520944
0.00256805
0.00670977
0.00242419
0.000491536
0.00676382
0.0067273
0.00118454
0.00694257
0.00516494
0.00809135
0.00407829
0.00137364
0.00673896
0.00161791
0.00332066
0.00672306
0.00408617
0.0161469
0.0354248
0.00499488
0.00263291
0.0043161
0.00297714
0.00162044
0.0362012
0.00148804
0.0215825
0.0122656
0.00275996
0.00231282
0.00186912
0.00672286
0.00242386
0.00743603
0.0029614
0.0162277
0.0027277
0.00569084
0.00699583
0.00503882
0.00193537
0.00264317
0.00220843
0.00688884
0.00185485
0.00461312
0.0070511
0.00723724
0.00680199
0.0386288
0.0207061
0.00220377
0.0068126
0.00670434
0.00701287
0.00686301
0.00491699
0.00671513
0.00706136
0.00676893
0.00728328
0.00137061
0.00679929
0.0335253
0.00444177
0.00436706
0.0022411
0.00255718
0.00218573
0.0104049
0.00572167
0.00385604
0.00672772
0.00670622
0.00403389
0.00742589
0.00671702
0.0176189
0.00425645
0.00674908
0.0230848
0.0216196
0.0266286
0.0144744
0.0232926
0.0019189
0.00671819
0.0028863
0.0206548
0.00149706
0.0266761
0.00385974
0.00129013
0.00790253
0.0118011
0.00670269
0.04079
0.0110017
0.00671333
0.00195441
0.00664707
0.00338831
0.0177263
0.00443827
0.00677571
0.00672451
0.00669126
0.00830928
0.00635567
0.0199078
0.00121308
0.0068012
0.00670858
0.00675293
0.0308064
0.00977583
0.00670966
0.00458532
0.0232138
0.00489373
0.0172239
0.00679714
0.0067232
0.00670292
0.006799
0.00678774
0.00687806
0.00683685
0.00334595
0.00681852
0.00170441
0.00292852
0.0101569
0.00132553
0.00673706
0.00244686
0.00669747
0.00702614
0.00152866
0.00671109
0.015984
0.00671262
0.00151406
0.0333204
0.00670063
0.0022956
0.0208044
0.00678378
0.00680769
0.00682698
0.00235184
0.0067903
0.0110077
0.0108713
0.00698005
0.00157504
0.00129709
0.00289607
0.00686091
0.00770518
0.00680685
0.00897957
0.00218974
0.00211131
0.0196109
0.00691586
0.0018514
0.0218553
0.00192183
0.00677474
0.00127808
0.00303305
0.0013405
0.00672494
0.00690578
0.022951
0.00162904
0.00983323
0.00821884
0.00706462
0.0151719
0.00670008
0.00569482
0.00677593
0.00165437
0.000760338
0.012579
0.0384554
0.00122494
0.00176
0.0116896
0.00701917
0.00670924
0.00684099
0.00555919
0.00684579
0.00184523
0.00673137
0.00295808
0.00158282
0.00683268
0.00676943
0.00671655
0.00671396
0.0025691
0.00678245
0.00323041
0.00682165
0.000771512
0.00701151
0.00677102
0.00671064
0.00146152
0.0069656
0.0108203
0.0245472
0.0167858
0.00209341
0.00391662
0.00672021
0.00670935
0.00674759
0.0135466
0.00684664
0.00554279
0.0233777
0.00676875
0.00377705
0.0288998
0.00236609
0.00187879
0.00716686
0.0163931
0.0229562
0.00671627
0.0067724
0.0022605
0.00266274
0.00170315
0.0155983
0.00208534
0.00676556
0.00671549
0.00810136
0.00183722
0.00633248
0.00708576
0.00683471
0.00251781
0.0210006
0.0220782
0.00707626
0.00160166
0.00543527
0.00498624
0.0208069
0.00678224
0.00670964
0.0067388
0.0078593
0.00670916
0.00190312
0.0218318
0.0290831
0.00673129
0.00675496
0.00672295
0.00680206
0.00686328
0.00186066
0.0140153
0.00355067
0.0021008
0.0046916
0.00282835
0.00696469
0.00597683
0.00678558
0.0067131
0.00672163
0.00674851
0.00680118
0.021172
0.020715
0.00692962
0.00670197
0.00683258
0.00680353
0.0027375
0.00191017
0.0195533
0.00924519
0.00760126
0.00136031
0.00671472
0.00680788
0.00671684
0.00680294
0.0230909
0.00675977
0.00196166
0.00251682
0.00119858
0.0216037
0.00268589
0.00333187
0.013961
0.00672276
0.00201451
0.00351101
0.0268006
0.00677718
0.00701874
0.00703161
0.00678221
0.0067911
0.00280211
0.0067746
0.00681624
0.0233796
0.00201467
0.0124063
0.00672184
0.00670103
0.00197696
0.00238808
0.00413941
0.0176433
0.00697988
0.00283483
0.0011367
0.00671397
0.00490364
0.00671513
0.00214236
0.00681018
0.00674563
0.039184
0.0150812
0.0389131
0.00189693
0.0113354
0.00816055
0.0236014
0.00673224
0.00681879
0.00231028
0.00672335
0.00683067
0.00267922
0.00676958
0.00267844
0.00679767
0.00271405
0.00783747
0.00669402
0.00184354
0.00693389
0.0067127
0.00282238
0.00326975
0.00374338
0.00410042
0.00531822
0.00461584
0.00680838
0.00672099
0.00695123
0.00105724
0.00903229
0.00670864
0.00681435
0.00748692
0.0154908
0.00671675
0.00658383
0.00704743
0.00683609
0.00675703
0.00683487
0.00792362
0.00696239
0.00706532
0.00314775
0.00671912
0.00208165
0.00424453
0.00680047
0.00333478
0.019234
0.0067825
0.00208198
0.0252616
0.0242154
0.00140461
0.00669205
0.00673313
0.00521708
0.00162567
0.0160741
0.00170735
0.0227514
0.00465749
0.0225006
0.0215447
0.0366959
0.00823187
0.0212153
0.0214719
0.024273
0.00679264
0.0209084
0.00696484
0.0153086
0.00280421
0.00423732
0.00709522
0.00285616
0.0194654
0.00686274
0.006794
0.00493085
0.00698014
0.0235027
0.00670745
0.00678866
0.00674701
0.00213994
0.00691948
0.00113492
0.0224344
0.019536
0.00221776
0.00688966
0.00192744
0.00682955
0.00675637
0.0116397
0.00681894
0.00234165
0.00676123
0.0158227
0.00126641
0.0225123
0.00699883
0.00335779
0.0230043
0.00127467
0.0114479
0.0390296
0.0214409
0.0198585
0.00671117
0.00679045
0.0014711
0.00677079
0.00680057
0.00679887
0.00683782
0.00222109
0.00720699
0.00670971
0.0128096
0.00707976
0.0081357
0.00682779
0.0185037
0.00218086
0.00697965
0.0155493
0.00187219
0.00743993
0.0195735
0.0339595
0.00623808
0.00679766
0.00735549
0.0023394
0.00360141
0.00671172
0.00693257
0.00213145
0.0067154
0.00671827
0.00680711
0.00682195
0.0159909
0.00680804
0.00128337
0.00682687
0.0378299
0.00671901
0.0274504
0.00839651
0.000830745
0.00553865
0.00670923
0.0070996
0.00682393
0.00675955
0.0244118
0.00412798
0.0239574
0.0114958
0.00673333
0.00465719
0.00245172
0.00677553
0.0110929
0.00673014
0.00140088
0.0198845
0.0140762
0.00813333
0.00672018
0.00681873
0.000929897
0.00716795
0.0077934
0.00601661
0.0238064
0.00575707
0.00698591
0.0067798
0.00672789
0.0068092
0.0102594
0.00685278
0.0078109
0.00673615
0.00681146
0.0125856
0.00685671
0.00755921
0.00389155
0.0068014
0.00709005
0.0026378
0.0067042
0.00702402
0.00428313
0.00678241
0.0067922
0.00116577
0.0427895
0.00207455
0.00680511
0.00672498
0.00208097
0.0231208
0.00182739
0.00678865
0.00670451
0.00394309
0.00679338
0.013048
0.0216123
0.0136641
0.00584922
0.00673964
0.0067215
0.00673183
0.00228767
0.00677789
0.011644
0.0216102
0.00677419
0.0285645
0.00672414
0.0398984
0.00115765
0.00671557
0.00561884
0.00673559
0.00671267
0.00675374
0.00668622
0.00776812
0.00809259
0.00679312
0.00669954
0.00183992
0.00669094
0.00680968
0.00363771
0.00671178
0.00676284
0.0242178
0.0031328
0.00671888
0.00287546
0.00342142
0.00676309
0.00316794
0.0228977
0.00677003
0.00674562
0.00694236
0.00711749
0.00678356
0.00684754
0.00365027
0.0015939
0.00672771
0.0037823
0.0205175
0.00679668
0.01912
0.00671927
0.00676072
0.00671223
0.00671073
0.00672061
0.00675274
0.0022895
0.0185143
0.00670117
0.00703883
0.00698741
0.00572638
0.00393443
0.00144923
0.00674893
0.00450269
0.00684654
0.00579306
0.0198592
0.00596803
0.006715
0.00689316
0.00824174
0.004202
0.00432211
0.00246206
0.00671183
0.0226692
0.0143818
0.0219594
0.0183079
0.00773056
0.0040515
0.006714
0.032683
0.00678765
0.00580927
0.00245821
0.00676009
0.00672579
0.0179708
0.00670601
0.0016285
0.0238053
0.00442843
0.00677527
0.0183356
0.00671423
0.0115352
0.00670628
0.0191953
0.00297967
0.0149124
0.00671602
0.00673149
0.00391796
0.0244968
0.0259263
0.0114536
0.00527835
0.00714817
0.00674887
0.016085
0.0263747
0.00671569
0.00682853
0.00709667
0.00671073
0.0421142
7.40199e-05
0.00673511
0.00599487
0.00672834
0.00673136
0.00670272
0.0067534
0.00671533
0.00242807
0.00672822
0.0258528
0.0067834
0.0046754
0.00682463
0.00680464
0.00671141
0.00674389
0.00594149
0.00671659
0.00298023
0.0161437
0.00729322
0.0045557
0.00895963
0.00393995
0.00681709
0.00669084
0.00671409
0.00669096
0.0298361
0.0159798
0.00691119
0.00316858
0.0221973
0.0054349
0.0111576
0.00690918
0.00671018
0.00679541
0.00634826
0.00547924
0.00274633
0.0141755
0.00704889
0.00667211
0.00745226
0.00682692
0.00671381
0.00670803
0.00142273
0.00137607
0.0293234
0.0215207
0.00138036
0.00671037
0.00297662
0.00671221
0.00600369
0.00681138
0.00787792
0.00371274
0.00773783
0.00123297
0.00434764
0.00703475
0.00567076
0.00248642
0.0205611
0.00670963
0.00671426
0.00676416
0.0067546
0.00676467
0.00674542
0.00681219
0.00252898
0.00672339
0.00178986
0.0225464
0.00259144
0.00681624
0.00679635
0.00596237
0.00930116
0.00671312
0.0067146
0.00296565
0.00671491
0.00675238
0.00925395
0.00697621
0.0188706
0.0220029
0.0134439
0.00138885
0.00676588
0.0068117
0.00151739
0.00671003
0.00675148
0.0210496
0.00276436
0.00710985
0.00679702
0.00670895
0.00360421
0.0152775
0.00678662
0.00344198
0.00679615
0.00671167
0.00672686
0.00556736
0.00711544
0.00673879
0.00684708
0.00452876
0.00670391
0.00257766
0.0118071
0.00499816
0.00677435
0.00680739
0.00680626
0.0067755
0.0148188
0.00671898
0.0137598
0.00616399
0.00670939
0.00671456
0.0166974
0.00670341
0.00674558
0.00671574
0.00989914
0.0070906
0.00771109
0.00673381
0.00671267
0.00676531
0.0116988
0.00676721
0.00682311
0.00134953
0.00436714
0.0056697
0.00669633
0.0160256
0.00668963
0.00687457
0.00671106
0.00677558
0.006717
0.00677859
0.00679804
0.0230678
0.00193428
0.0212457
0.00136797
0.00540084
0.0302117
0.00675761
0.00696258
0.0110054
0.00698507
0.00968054
0.00164181
0.014494
0.00671519
0.0189261
0.00677935
0.00672698
0.00704084
0.00207567
0.0122281
0.00183054
0.00535238
0.0220672
0.00548526
0.0067162
0.00243004
0.00118111
0.00946245
0.00578233
0.00696425
0.00678938
0.00121565
0.000754031
0.00673439
0.00151614
0.0039324
0.0200969
0.00671442
0.00672636
0.00163747
0.00171402
0.039347
0.0174696
0.00579301
0.00671332
0.00683978
0.00590299
0.0165778
0.0133947
0.00670764
0.00698986
0.00670576
0.00670869
0.00670905
0.00233286
0.00549663
0.00557024
0.00577153
0.00328991
0.0256354
0.00672987
0.00679626
0.00701853
0.00676408
0.0024715
0.0067237
0.00683127
0.00677133
0.00670833
0.00213367
0.0056425
0.00663673
0.00673494
0.00672469
0.0227259
0.00545515
0.0022654
0.00553609
0.0122698
0.00830054
0.00679193
0.00175668
0.00602205
0.00672888
0.0272155
0.00682008
0.00679468
0.00676232
0.00618265
0.00670853
0.00670556
0.00706809
0.00680864
0.0067708
0.00673969
0.00249485
0.00872578
0.00623593
0.00683266
0.00675841
0.00662267
0.0067261
0.0067551
0.00670898
0.00309277
0.00671495
0.0227927
0.00669093
0.00672925
0.00196761
0.00554153
0.00673236
0.0058385
0.0221264
0.00206569
0.00672864
0.00668038
0.006707
0.00610237
0.0070753
0.00493986
0.0231884
0.0067865
0.00670419
0.00684695
0.00681736
3.42638e-05
0.00674571
0.00675062
0.00673094
0.00272975
0.0163212
0.00675818
0.00672194
0.00673887
0.00938914
0.00163013
0.0219612
0.00697638
0.00540238
0.00681666
0.00675894
0.0211704
0.0079145
0.00671446
0.00681158
0.00257633
0.00201957
0.00670859
0.00674828
0.00670702
0.00680236
0.00674654
0.0155431
0.00694383
0.00709343
0.0159996
0.024834
0.00684506
0.00804872
0.00687793
0.00603368
0.00706164
0.0043207
0.00672467
0.0159977
0.00671474
0.00669512
0.0165936
0.00713856
0.00165986
0.0133053
0.00683111
0.00697711
0.00315681
0.0187139
0.00422008
0.00672275
0.00671278
0.0160453
0.00673516
0.00670561
0.00722918
0.00232393
0.00670836
0.0157052
0.00791472
0.00671982
0.00700722
0.00699109
0.00675397
0.00679438
0.00670818
0.00677736
0.0266036
0.00416012
0.00701295
0.0067045
0.00674537
0.00672657
0.00674814
0.0073683
0.00434036
0.00668197
0.00334108
0.00682004
0.00672669
0.0019019
0.00670753
0.00670189
0.00688313
0.0103826
0.00672656
0.00602338
0.00744219
0.00343837
0.00682878
0.00227999
0.0103855
0.0198555
0.00697184
0.00676731
0.00404338
0.0068058
0.0118855
0.00671192
0.00741485
0.00708731
0.00677664
0.0220512
0.0062517
0.0243181
0.0182201
0.00720591
0.00670599
0.00670743
0.0117101
0.00836301
0.00671189
0.0067286
0.00673704
0.00675855
0.00671265
0.016607
0.00671599
0.00670379
0.00680236
0.00696119
0.00549977
0.00147328
0.0069979
0.0067049
0.00669919
0.00220242
0.00718109
0.00669905
0.0230937
0.0070578
0.00724392
0.00726319
0.00555459
0.00674188
0.00705891
0.0145636
0.00958168
0.00600705
0.0067352
0.00671983
0.00739133
0.0158922
0.00736001
0.00680854
0.00731255
0.00676337
0.004743
0.00723893
0.00725764
0.0067061
0.00680058
0.00670765