/*--------------------------------*- C++ -*----------------------------------*\
| =========                 |                                                 |
| \\      /  F ield         | OpenFOAM: The Open Source CFD Toolbox           |
|  \\    /   O peration     | Version:  v2012                                 |
|   \\  /    A nd           | Website:  www.openfoam.com                      |
|    \\/     M anipulation  |                                                 |
\*---------------------------------------------------------------------------*/
FoamFile
{
    version     2.0;
    format      ascii;
    class       volScalarField;
    location    "550";
    object      k;
}
// * * * * * * * * * * * * * * * * * * * * * * * * * * * * * * * * * * * * * //

dimensions      [0 2 -2 0 0 0 0];


internalField   nonuniform List<scalar> 
18758
(
0.000174485
0.0171948
0.000144227
0.0427036
0.0708521
0.0864985
0.00831299
0.000145904
0.000225265
0.000156393
0.000152393
0.0515357
0.000148177
0.000206325
0.000152621
0.00019625
0.000170102
0.000147438
0.00014845
0.000158642
0.0277317
0.000149789
0.0408985
0.000651105
0.00103423
0.000145924
0.000242691
0.0737798
0.0751346
0.000414241
0.00018157
0.0301449
0.00014914
0.000150892
0.000199086
0.000149067
0.000149462
0.000148422
0.000149339
0.000171573
0.000148422
0.000154851
0.000145844
0.000154686
0.00032289
0.000145191
0.0396949
0.000152729
0.000156065
0.000145565
0.000186072
0.0585704
0.000144683
0.000152032
0.0714536
0.0177247
0.000149394
0.000183147
0.000147879
0.000210721
0.000172939
0.00978311
0.00019262
0.000150612
0.000144748
0.000148017
0.000172163
0.000149108
0.00014808
0.0581504
0.0587016
0.000149439
0.00014563
0.000799704
0.00014591
0.000147846
0.000225017
0.0682148
0.000168423
0.0290777
0.0601417
0.00117675
0.000210716
0.0832971
0.0002268
0.000160687
0.0504673
0.000192178
0.000911814
0.000147863
0.0799194
0.000147875
0.0348662
0.000155213
0.0626718
0.0288408
0.00022498
0.000145932
0.000147268
0.0313671
0.000159585
0.0739067
0.000186848
0.000166773
0.0246203
0.000221085
0.00844589
0.0691201
0.000150288
0.000149356
0.0369515
0.0009231
0.000146186
0.000148584
0.0701072
0.0226623
0.0314258
0.000152682
0.0401341
0.0605579
0.000165703
0.000147898
0.0788764
0.000228793
0.00021281
0.00031701
0.00871983
0.000557055
0.028394
0.000148429
0.000170746
0.000239908
0.0168416
0.000163252
0.000457478
0.000152198
0.00022352
0.000172426
0.000147251
0.000166728
0.000168441
0.000180772
0.000148186
0.0351983
0.000148456
0.000148943
0.027353
0.0238861
0.000181114
0.0615449
0.000692277
0.000464268
0.000160496
0.000149787
0.0498454
0.000158187
0.0357014
0.000152725
0.000149041
0.000149918
0.000146671
0.000210281
0.0369841
0.000148997
0.000173269
0.0797638
0.000148609
0.0760722
0.000190724
0.0875877
0.0451338
0.000147405
0.0407341
0.0731036
0.000210251
0.000597534
0.0834009
0.000150796
0.000166556
0.000148813
0.000146425
0.0096058
0.000378696
0.00014627
0.000155976
0.000343342
0.000147515
0.0266085
0.000145654
0.00014756
0.000163339
0.000417878
0.000149714
0.00018008
0.000159387
0.000192549
0.000159037
0.000194097
0.000148897
0.000145774
0.000165844
0.000152597
0.000162153
0.000183923
0.000148086
0.000159193
0.000187703
0.000149845
0.0257261
0.000156001
0.000147348
0.00016739
0.00014915
0.00016234
0.000166734
0.0568964
0.000167678
0.000193854
0.000145413
0.0874896
0.000147347
0.000150333
0.000218663
0.0317534
0.000202235
0.000187157
0.000173662
0.000163264
0.000145913
0.000183928
0.000147974
0.000192241
0.0408527
0.000227376
0.000148292
0.000147502
0.000145921
0.000145368
0.0774348
0.000163293
0.000146797
0.00026767
0.00946085
0.000151401
0.0562287
0.0206473
0.000227302
0.000149113
0.0613412
0.000156733
0.00014893
0.0753085
0.000160796
0.000156953
0.000151012
0.0001673
0.000319368
0.000201741
0.000161923
0.000168325
0.000147165
0.000182138
0.000148108
0.000183621
0.000155646
0.000218308
0.0155992
0.000145424
0.000150019
0.000194486
0.00014985
0.000155622
0.000183489
0.0856349
0.0258591
0.000148132
0.000183675
0.00913765
0.000322067
0.000150168
0.000147158
0.00015857
0.000163355
0.000148148
0.0116856
0.000248476
0.0284055
0.00861895
0.0426334
0.000145937
0.000144177
0.0001642
0.061262
0.00015394
0.000168173
0.000189222
0.0001584
0.0582723
0.000148283
0.000658765
0.0847926
0.00014528
0.0515557
0.000160565
0.000148192
0.000160578
0.000181035
0.000151706
0.00014896
0.0148319
0.0233731
0.000147365
0.00972096
0.0595821
0.000199329
0.000148014
0.00014925
0.000518135
0.000151312
0.000146163
0.000147327
0.000150823
0.000191283
0.000181198
0.000158515
0.000162596
0.000158647
0.000164083
0.000146997
0.000149843
0.000502999
0.000166526
0.000185277
0.0428185
0.000154209
0.000149568
0.000149825
0.000528855
0.0520876
0.000146012
0.000147261
0.000146016
0.000152034
0.000162573
0.000656521
0.000147879
0.000149072
0.000145547
0.000205478
0.000179717
0.000200825
0.000179462
0.000151515
0.000384027
0.000173604
0.000164387
0.000157559
0.0466908
0.0322146
0.000360857
0.000148168
0.000159825
0.0210722
0.0874293
0.000153751
0.000145962
0.000175098
0.000148426
0.000161064
0.0433128
0.0408305
0.000194725
0.000158212
0.0190604
0.0001482
0.000152567
0.000147593
0.000149378
0.000193888
0.000153108
0.0117663
0.000181935
0.00015077
0.000147391
0.0342195
0.000194134
0.000224213
0.000148177
0.000176416
0.000147071
0.00015435
0.000147904
0.000145484
0.0305798
0.0272185
0.000302003
0.0489276
0.000147378
0.000219657
0.0434561
0.000167522
0.000146157
0.0441554
0.000147225
0.000149229
0.000146401
0.000194799
0.000147777
0.00015459
0.000178796
0.0810518
0.00014724
0.0691748
0.000172359
0.000148058
0.000156425
0.000148016
0.000147274
0.000157824
0.000180446
0.000163391
0.0123487
0.000166465
0.000148213
0.00019117
0.0372459
0.0443504
0.0432715
0.000192873
0.000150015
0.000145481
0.000146803
0.000149212
0.000194576
0.000170338
0.000163894
0.000160069
0.000160632
0.000343231
0.000187419
0.000147969
0.000162315
0.000791879
0.000150633
0.0418879
0.00015082
0.000148451
0.0288364
0.000156066
0.000149874
0.000318847
0.000199879
0.000164231
0.0275949
0.000147879
0.00015026
0.000202939
0.048346
0.000159688
0.000172427
0.000207226
0.000319407
0.0112386
0.000206959
0.00014935
0.000190725
0.000148581
0.000195052
0.000151272
0.0353895
0.000176039
0.00969632
0.000163704
0.000183979
0.000145282
0.000774726
0.000145671
0.0270391
0.000147644
0.000194856
0.000148293
0.00106802
0.000161786
0.000148495
0.000147275
0.000146348
0.021475
0.0258729
0.068386
0.000172052
0.000155109
0.000181481
0.000149784
0.000149908
0.0596332
0.000147288
0.000148326
0.00018947
0.000148127
0.000171863
0.000181502
0.000148296
0.000147764
0.000155822
0.000150458
0.000158713
0.0526186
0.000164151
0.00015924
0.000155846
0.00014824
0.000341321
0.000149458
0.000150282
0.000321006
0.0254533
0.000182968
0.00120935
0.000154021
0.000150207
0.0311658
0.000148522
0.0291692
0.000192584
0.000148455
0.0548754
0.000505566
0.000175678
0.000147437
0.000166049
0.0555791
0.000148445
0.000147745
0.000152782
0.000151628
0.000149014
0.000146023
0.000149956
0.0789192
0.000154947
0.0803548
0.000147915
0.00019286
0.0334853
0.000148149
0.000145716
0.000154823
0.000148759
0.000150311
0.000151336
0.000148748
0.000192277
0.000204725
0.000144748
0.0563741
0.0655212
0.00015905
0.000190717
0.000395279
0.000154695
0.00016344
0.000158858
0.0596818
0.00015482
0.000172899
0.000148389
0.0273201
0.000168965
0.000179604
0.000200402
0.00779516
0.000154676
0.000147895
0.000174027
0.000707612
0.000150171
0.000204548
0.000149183
0.018564
0.000150499
0.000147338
0.00014633
0.000148168
0.0652878
0.0208871
0.000148245
0.000234221
0.00015763
0.0449436
0.0316562
0.000510363
0.00356841
0.000148659
0.0765371
0.000179653
0.000148305
0.000172757
0.0590831
0.0257813
0.000150778
0.000149976
0.000148432
0.000144488
0.0236745
0.000192243
0.0716791
0.039492
0.000148426
0.000148839
0.000176143
0.000149861
0.000146671
0.00015129
0.000152184
0.000192672
0.000168622
0.000191645
0.0683044
0.000172841
0.000148335
0.00015563
0.000181957
0.0630115
0.000171964
0.00438546
0.000171831
0.000148282
0.000231494
0.0292937
0.000149852
0.000146217
0.000172801
0.0778981
0.000193848
0.000148129
0.0281609
0.00836456
0.00113248
0.000145521
0.00453567
0.0135064
0.0472223
0.000153093
0.000149249
0.0739231
0.00014996
0.000213341
0.0360137
0.000208358
0.00882699
0.000186911
0.0388634
0.000180789
0.000148757
0.000149905
0.0327126
0.0463032
0.0118168
0.040691
0.000148557
0.000213408
0.000149833
0.000174032
0.000187519
0.000184493
0.000148487
0.000153744
0.0002172
0.0567512
0.0355012
0.0104643
0.000164927
0.000159645
0.000228807
0.000149166
0.000146861
0.000147596
0.000157065
0.000182479
0.000148146
0.000185961
0.000146892
0.000148689
0.000147175
0.0717501
0.000149421
0.000149777
0.000174925
0.000173045
0.000144803
0.0243824
0.000148459
0.000147442
0.000171836
0.000159513
0.000155428
0.00015072
0.00261687
0.000159214
0.00016118
0.026866
0.000161299
0.0453092
0.000154225
0.00019254
0.0453333
0.0194894
0.000146111
0.0591701
0.00059065
0.000145703
0.0407957
0.000148342
0.000147087
0.000167255
0.000147495
0.000175705
0.0623326
0.000145614
0.0409293
0.000148525
0.000165533
0.0470426
0.000144633
0.0754713
0.000151847
0.00014846
0.000147462
0.000147579
0.000213969
0.000165666
0.0204844
0.000173169
0.0832171
0.000175903
0.000148157
0.000221388
0.013094
0.00715597
0.00016625
0.000200518
0.000179344
0.000156189
0.000213003
0.000150389
0.00249205
0.000148073
0.0050846
0.000151057
0.000166351
0.000155853
0.000149553
0.0647756
0.000149971
0.000146688
0.00514885
0.000151888
0.000147195
0.000171152
0.000180379
0.000215297
0.0015876
0.00250028
0.0458374
0.000148784
0.000149309
0.03211
0.000147859
0.000274824
0.000188468
0.000152572
0.000148317
0.000160311
0.000147943
0.000148296
0.000160146
0.000256331
0.000191632
0.000173221
0.000169671
0.00014879
0.000178353
0.0809631
0.000146932
0.00018778
0.000153073
0.0612519
0.000151211
0.0547953
0.000148037
0.000813519
0.000149829
0.000185242
0.000148354
0.000156551
0.000162527
0.000144684
0.000147293
0.000145045
0.0251029
0.0108966
0.000163824
0.0790702
0.000148321
0.000169888
0.000158226
0.000229231
0.0293704
0.000163967
0.000144868
0.000180361
0.000146894
0.000148309
0.000158328
0.0269069
0.0830001
0.00156071
0.000579781
0.000165938
0.000150692
0.00014772
0.00138259
0.000147111
0.00420831
0.000158167
0.000149166
0.0670279
0.0905841
0.000148503
0.0252681
0.000156148
0.000189967
0.000169502
0.00107878
0.090043
0.000327891
0.000147823
0.000144721
0.0673442
0.000148186
0.000148046
0.000158756
0.000148268
0.0211351
0.000226041
0.000176226
0.0730833
0.000172571
0.00019804
0.000152933
0.000147772
0.000144608
0.000146367
0.0258744
0.0210712
0.000236438
0.000148289
0.000144808
0.000162957
0.00014742
0.00016743
0.000154212
0.000575926
0.0601471
0.000185728
0.000231747
0.000239919
0.000147854
0.000210631
0.000147747
0.0318438
0.00061802
0.0403886
0.0630267
0.00015231
0.00016031
0.000657126
0.0722196
0.0420738
0.000161493
0.000183402
0.0383683
0.000148172
0.000228892
0.000238945
0.000195676
0.00014813
0.000148275
0.000168691
0.0395406
0.000341536
0.000170717
0.000147888
0.000155921
0.000156193
0.0166267
0.000149377
0.000231297
0.000147147
0.000150422
0.000199654
0.000146938
0.000148046
0.000151455
0.000155625
0.000147674
0.000150327
0.000145585
0.00229112
0.000263118
0.0282807
0.000146047
0.000162911
0.000148028
0.000223541
0.000221772
0.000161319
0.000147173
0.000151445
0.00021572
0.000197252
0.000159482
0.0318774
0.000194705
0.000147922
0.000148434
0.0453752
0.00132908
0.000168734
0.000145319
0.000383293
0.000148738
0.00016471
0.000145924
0.000465543
0.050776
0.000146879
0.000148976
0.00659692
0.000147962
0.0453874
0.0236935
0.00017821
0.000149243
0.000149024
0.000145898
0.00014808
0.0102478
0.0131563
0.00018606
0.000150676
0.0456817
0.000147699
0.000147549
0.0877597
0.000147026
0.072789
0.000144523
0.000156358
0.000151339
0.000147528
0.000147381
0.000148702
0.0418635
0.000149944
0.000149228
0.000172655
0.000168958
0.000147657
0.000172673
0.000162236
0.000148736
0.000182362
0.000147682
0.000161255
0.0548497
0.00018756
0.000147694
0.000233392
0.000188345
0.000179762
0.000155239
0.000179817
0.0603538
0.000153476
0.000176023
0.000147572
0.000145931
0.000147933
0.00017203
0.000162449
0.000173131
0.00014808
0.000157721
0.000179844
0.0192408
0.000228966
0.00014755
0.00014658
0.000150613
0.000175212
0.000146691
0.0245388
0.000147601
0.000148133
0.000146584
0.00018742
0.0726464
0.000148943
0.000152484
0.000147033
0.000189033
0.00014654
0.00014791
0.000339818
0.000149784
0.000146063
0.000148785
0.000187841
0.000146454
0.000147763
0.0451175
0.0182294
0.00019531
0.000161039
0.0736539
0.000163084
0.000147569
0.0001473
0.0136152
0.000147915
0.00018058
0.000186377
0.000168279
0.000154942
0.000150337
0.000158221
0.000150665
0.000145355
0.000201034
0.0640849
0.000163422
0.000146393
0.0373457
0.000172433
0.0119904
0.0085093
0.000189477
0.000148849
0.000148264
0.000148115
0.000178472
0.000148754
0.000147355
0.0788503
0.000173137
0.00017147
0.000147302
0.000170332
0.000234257
0.00014855
0.000154921
0.000161771
0.000171723
0.00018206
0.000148485
0.000151842
0.000166301
0.000146623
0.000165143
0.000149427
0.00124541
0.000174188
0.000192178
0.000147292
0.000164263
0.0740691
0.0436203
0.00036996
0.000168752
0.0208232
0.000148778
0.000147586
0.000150404
0.00018088
0.000149052
0.000151431
0.000157695
0.000178392
0.000147864
0.000147531
0.000148796
0.000149832
0.000246432
0.039216
0.00198975
0.000147895
0.0207694
0.000156562
0.000148945
0.00016375
0.000148124
0.000182355
0.000150969
0.000147904
0.0523684
0.00916969
0.0677412
0.000150237
0.0113928
0.000147896
0.0373198
0.0551189
0.000145202
0.000178788
0.000230046
0.000145361
0.000147579
0.0221748
0.000150114
0.000148023
0.000196551
0.000694785
0.000148043
0.000161781
0.000148914
0.000155053
0.000197142
0.00014903
0.060229
0.000171421
0.00014757
0.000708403
0.00016763
0.000184321
0.000149913
0.000235852
0.000148616
0.0676209
0.000147871
0.000146698
0.0595637
0.000145799
0.0717441
0.00014761
0.000172454
0.0716033
0.0544159
0.000148333
0.000149476
0.000148097
0.000151221
0.000156455
0.000154714
0.00014428
0.0107255
0.000147104
0.000148442
0.000187679
0.000179898
0.000163471
0.000148037
0.0268432
0.000183271
0.000149681
0.00015888
0.000147465
0.000147138
0.0801525
0.00014541
0.000146747
0.000147388
0.0758204
0.000147868
0.000147284
0.0697854
0.000155151
0.0422737
0.000164015
0.000144508
0.000147007
0.0130559
0.000157556
0.000148003
0.0771596
0.0459499
0.000146443
0.0391605
0.000191268
0.000148598
0.000148343
0.000190498
0.000149424
0.000870255
0.000159873
0.000148072
0.00197412
0.0358414
0.000222433
0.000147795
0.0232726
0.000157782
0.000184675
0.0003647
0.000147548
0.0200425
0.000147963
0.000157628
0.000157729
0.055998
0.000145722
0.000150468
0.000883874
0.000149804
0.000159016
0.000145759
0.000148761
0.0402038
0.000180268
0.000153705
0.000163766
0.00257739
0.000149348
0.000151721
0.000174112
0.000197481
0.000155944
0.000147799
0.000147382
0.000148891
0.000150199
0.000146793
0.00015973
0.000156594
0.00056557
0.000147911
0.00927136
0.000148315
0.000160142
0.000147748
0.00016083
0.000148736
0.000147547
0.0372052
0.0614502
0.000152868
0.000148559
0.0376278
0.000156635
0.0600632
0.000159462
0.0001655
0.0416763
0.0090319
0.0393371
0.000152152
0.000148907
0.000146515
0.0421641
0.000147437
0.000148048
0.000174255
0.000147471
0.00014917
0.000148353
0.0156402
0.00305286
0.000149137
0.00044632
0.0606196
0.000153318
0.000147424
0.000149024
0.0469611
0.000147319
0.000187927
0.000149915
0.000147738
0.000149205
0.000146445
0.000183387
0.000148461
0.00014824
0.000147267
0.000145442
0.000238702
0.000145264
0.000147453
0.000149304
0.000147837
0.000232248
0.000418982
0.000167388
0.000150168
0.00014827
0.000149223
0.000149451
0.0429229
0.000147779
0.000159049
0.000166832
0.0464772
0.000147549
0.000147318
0.0527917
0.000148737
0.000175512
0.000180882
0.000149788
0.0588801
0.0474261
0.000157373
0.0145652
0.000158348
0.000195014
0.000144659
0.00879836
0.000148207
0.00150034
0.000148266
0.000147288
0.00141015
0.000277358
0.000202112
0.000172719
0.000147254
0.062703
0.000149106
0.0771211
0.000174801
0.000147376
0.000144725
0.000148709
0.000171246
0.000166654
0.0711337
0.000169512
0.000147489
0.00014742
0.000148572
0.0213646
0.000178732
0.000159346
0.000148883
0.000147266
0.000160205
0.00021457
0.000148827
0.000159419
0.000165464
0.00014776
0.000153112
0.000150976
0.000175709
0.000174835
0.000153355
0.000166624
0.000145738
0.000148018
0.0303098
0.000165584
0.00018294
0.00152579
0.000145377
0.0259005
0.00302667
0.000163007
0.0682657
0.000147549
0.0260331
0.0347937
0.000192098
0.000146428
0.0831903
0.00019907
0.00014784
0.000167412
0.0451285
0.000150307
0.0001477
0.000164615
0.00014979
0.028919
0.000157718
0.000149167
0.00014987
0.000147102
0.000164991
0.000164589
0.0254101
0.000189443
0.0318387
0.00017428
0.000149715
0.000147579
0.000230717
0.0253373
0.000147992
0.000147721
0.00019124
0.000149273
0.000234802
0.0349976
0.0204632
0.00014787
0.00014815
0.0781667
0.000146641
0.0619684
0.000216083
0.000146957
0.0326448
0.000174808
0.000167734
0.000147799
0.00716936
0.000148099
0.00036671
0.000144425
0.000172515
0.000151627
0.00014594
0.0868874
0.000151139
0.000148099
0.000151899
0.0389553
0.000148461
0.000145218
0.0292461
0.000147519
0.000146853
0.000148723
0.000156246
0.000148323
0.000149167
0.000156237
0.000149126
0.000154565
0.000145656
0.000187126
0.0238088
0.000172817
0.0366424
0.000159677
0.000154688
0.00014724
0.000146701
0.000148985
0.0244443
0.039247
0.000147929
0.000149837
0.000147371
0.021515
0.000145157
0.000230669
0.000303718
0.0466054
0.0702303
0.0310973
0.0405816
0.000146825
0.0435879
0.0428848
0.0629617
0.000154834
0.000148891
0.000170758
0.000145712
0.0342081
0.000195612
0.000175984
0.00015662
0.0305458
0.00014796
0.000144299
0.0381549
0.00019819
0.000148342
0.000144549
0.000171541
0.000148712
0.0285749
0.0230993
0.0322374
0.0374488
0.000184643
0.00186931
0.00014796
0.000226327
0.000148663
0.000147828
0.000146696
0.0298949
0.000148898
0.000147435
0.000473429
0.0355159
0.000207116
0.000199594
0.000150864
0.000165077
0.0268886
0.0188402
0.0262186
0.0385733
0.000171566
0.0711725
0.0001805
0.000441275
0.000173037
0.000169786
0.000147256
0.000160839
0.000164055
0.000148277
0.0172603
0.000147013
0.000148305
0.000147943
0.0738154
0.000154129
0.000146587
0.000147303
0.000147861
0.000176436
0.000169587
0.00247614
0.000151129
0.0332811
0.000144575
0.000147505
0.000183803
0.000166993
0.000144386
0.046601
0.000169587
0.0673443
0.000147789
0.0306198
0.000166649
0.000147494
0.000148325
0.000147872
0.0358095
0.0719924
0.013787
0.000147734
0.000149283
0.000145014
0.0674219
0.000156474
0.000148365
0.000630229
0.000147712
0.000150173
0.0393564
0.000146192
0.000147708
0.000148399
0.000149845
0.000144542
0.000150686
0.000144463
0.000149208
0.000184424
0.000166168
0.000146734
0.0205049
0.000152843
0.0670273
0.0171174
0.000165314
0.0570742
0.0676972
0.000147347
0.000169968
0.000148059
0.00014731
0.00944135
0.000154844
0.0491206
0.000155398
0.000195264
0.000148692
0.000151344
0.000147259
0.0462236
0.000161829
0.0362242
0.000149062
0.000189508
0.000160466
0.000146476
0.000166561
0.000169053
0.000144972
0.0852961
0.00014858
0.000169378
0.000147934
0.000157634
0.000166842
0.000215677
0.000155235
0.00018417
0.00463729
0.000160359
0.000169124
0.000146076
0.0646927
0.00017337
0.000149792
0.000175652
0.00282103
0.013622
0.000147897
0.000150982
0.000149073
0.000145634
0.000147873
0.048726
0.000159499
0.000148473
0.0266207
0.000148686
0.000145118
0.00015442
0.0632833
0.000148993
0.0261519
0.0472982
0.000169744
0.0330276
0.000150717
0.0671664
0.000329714
0.000145199
0.000160312
0.000148367
0.000150183
0.000167752
0.0130955
0.000178524
0.000471069
0.000198721
0.000147709
0.0549273
0.000147218
0.0444919
0.00014977
0.0369561
0.0431635
0.000148987
0.000147111
0.000149845
0.000163832
0.000183776
0.000147643
0.0161821
0.000152035
0.000170308
0.000173599
0.000151179
0.000147361
0.0432534
0.000146679
0.00021614
0.000157338
0.0138122
0.000148756
0.000147576
0.0439963
0.000144218
0.000146227
0.000150098
0.00017359
0.000173584
0.000224734
0.000152769
0.000146478
0.000154938
0.000149379
0.000149993
0.0689167
0.000147533
0.000166785
0.0670587
0.000212819
0.000147731
0.000183251
0.000147853
0.000149335
0.000186046
0.000207823
0.000183662
0.000149557
0.000147713
0.000152984
0.000186164
0.000147825
0.000162135
0.000147676
0.000149226
0.000146779
0.000148933
0.0460723
0.00014478
0.0785649
0.000431932
0.00015413
0.000145922
0.0295242
0.0506801
0.000147176
0.0001478
0.0727636
0.000149449
0.000164688
0.000182585
0.00101766
0.000147306
0.000150531
0.000170496
0.000147853
0.0823981
0.000203168
0.000147358
0.000159211
0.000164229
0.000148517
0.000185201
0.000148941
0.000163343
0.000150787
0.00015416
0.000144568
0.000147726
0.000225588
0.00014826
0.0735815
0.000180622
0.000148218
0.000148155
0.000147743
0.000147215
0.0636152
0.000149795
0.000195375
0.0001472
0.00014718
0.000172727
0.0527688
0.000146302
0.000144861
0.000147831
0.000150076
0.000159721
0.000160044
0.0301839
0.000160742
0.000146736
0.000198963
0.0716186
0.00014932
0.000161724
0.0371439
0.000164385
0.000149717
0.00277982
0.000144587
0.0311025
0.000170937
0.000148368
0.000184486
0.000147721
0.000147517
0.00014822
0.0400103
0.000148329
0.000341297
0.0710943
0.000365444
0.0001616
0.0001476
0.0347155
0.000149838
0.0149924
0.000146428
0.000238466
0.000154171
0.000185452
0.000150272
0.0361544
0.000159607
0.000149448
0.0410196
0.0368598
0.000144883
0.000313154
0.000147774
0.00015912
0.000146948
0.00722678
0.000539731
0.000149445
0.00014851
0.0511329
0.000185135
0.000146845
0.000151634
0.000148112
0.000146512
0.000146094
0.000152407
0.0246775
0.0238829
0.000149861
0.000177951
0.000153871
0.00018013
0.000147879
0.00727834
0.0366953
0.0215949
0.000150311
0.0736034
0.0262812
0.000153449
0.000160538
0.000147226
0.000174657
0.0392631
0.000149201
0.000146075
0.000146435
0.000157562
0.000145046
0.000147862
0.000899447
0.000151057
0.000179749
0.00014838
0.000147661
0.000153688
0.000148157
0.000205498
0.0744068
0.000146362
0.000171225
0.000144908
0.0706154
0.000147393
0.000152675
0.0372103
0.000243128
0.000154367
0.0296712
0.000186614
0.000148353
0.000168048
0.000148843
0.000163885
0.000149524
0.000147333
0.000202151
0.000192197
0.0445152
0.000193731
0.000158733
0.00594695
0.000152942
0.000168537
0.000150932
0.065793
0.0462135
0.0340706
0.000147747
0.000144459
0.0322583
0.0406456
0.000148782
0.0290845
0.000148841
0.000156537
0.000144314
0.000147789
0.00014756
0.000147505
0.000222655
0.000161117
0.000163971
0.000147996
0.000148067
0.000145374
0.00014666
0.000146559
0.000149726
0.000147396
0.0514532
0.0422116
0.0458056
0.000152103
0.05987
0.000174594
0.0851715
0.0590705
0.000174438
0.000148646
0.000149188
0.000180623
0.000149722
0.0352449
0.0270513
0.000150117
0.000145774
0.000162702
0.050402
0.000147865
0.0724562
0.00014799
0.000148578
0.0886296
0.000147507
0.000156318
0.000149018
0.0348353
0.000145801
0.000147746
0.000210849
0.000145763
0.000148297
0.000147767
0.000145804
0.000165464
0.00014745
0.00866093
0.000148026
0.000149395
0.000144461
0.0254151
0.000161821
0.000149172
0.0676791
0.000148495
0.000145532
0.000219034
0.000488438
0.000148774
0.0823248
0.0678296
0.00015606
0.0421716
0.000148634
0.000148241
0.000187063
0.00014631
0.0469582
0.0473026
0.000144364
0.0001575
0.000147517
0.0167787
0.000365266
0.000171121
0.000148875
0.000321753
0.000159619
0.000173719
0.000156406
0.000148046
0.000150484
0.000147479
0.000146658
0.03146
0.000144031
0.000146655
0.000168758
0.0291468
0.000184323
0.0786742
0.000147945
0.000161939
0.000147885
0.000148502
0.000148658
0.000146393
0.000148935
0.00014734
0.000148584
0.00014907
0.000154093
0.000148296
0.000149064
0.000145831
0.017264
0.0896761
0.000149291
0.000150935
0.0516104
0.000149344
0.000195991
0.0309882
0.000349755
0.0872561
0.000246336
0.0860707
0.00507136
0.0233212
0.000147553
0.000159986
0.000147461
0.000168993
0.000153859
0.000149443
0.000147243
0.0202722
0.000145879
0.000156799
0.0762461
0.00014555
0.000146883
0.00017434
0.000145835
0.000147747
0.000147494
0.000149561
0.0493112
0.018505
0.000148144
0.000147771
0.000148296
0.000150696
0.000161737
0.000150741
0.00222208
0.000194818
0.000149227
0.0567453
0.000163049
0.000147693
0.044458
0.000145666
0.000175135
0.00014633
0.000149606
0.000149675
0.0473973
0.000147833
0.000147582
0.00015331
0.000149534
0.000160425
0.000146894
0.0373779
0.000166373
0.000162481
0.00893339
0.0773713
0.000193509
0.00016401
0.0345764
0.000148342
0.000147896
0.0001552
0.0512941
0.000175694
0.000168334
0.0278015
0.00014768
0.000978638
0.000202787
0.00372144
0.000147971
0.000159852
0.000147237
0.000190219
0.000158241
0.000361286
0.0723329
0.000147971
0.000163505
0.000156006
0.000148003
0.000290642
0.000147911
0.000162277
0.000175613
0.000182024
0.000147813
0.000149962
0.000149478
0.000173118
0.000147484
0.000149608
0.000147849
0.00014841
0.0001463
0.000160679
0.000144663
0.000290778
0.0456222
0.000150022
0.000146588
0.000145438
0.000163241
0.000159319
0.000148752
0.0377716
0.000162679
0.000146508
0.000146543
0.0632079
0.0451306
0.0001474
0.000213774
0.000159067
0.000147965
0.0221103
0.000154727
0.000175698
0.000149517
0.0356
0.0739336
0.00014968
0.000165286
0.0441388
0.000162319
0.0476006
0.000149558
0.000154046
0.0528621
0.0600708
0.000155113
0.000153844
0.000150012
0.00015268
0.000151712
0.0306729
0.0452106
0.0450249
0.000153577
0.000148283
0.000177517
0.000147779
0.000209419
0.000153754
0.0278463
0.00014578
0.000149191
0.000147255
0.000148159
0.00014677
0.000184853
0.0771001
0.000157787
0.000145427
0.0001486
0.0144296
0.00015187
0.000152343
0.000148948
0.000165132
0.0465295
0.000145829
0.000147666
0.000168635
0.000184188
0.000148667
0.000169151
0.000149424
0.000152101
0.000196185
0.000156498
0.0648283
0.000691599
0.000163199
0.0707103
0.000146849
0.0001478
0.000151118
0.0844426
0.000151339
0.00030182
0.000145882
0.0464219
0.000165059
0.000147179
0.000159615
0.000149446
0.0608549
0.000173769
0.000160596
0.000198059
0.000193359
0.000148921
0.000149272
0.000149483
0.00015468
0.046064
0.000175623
0.000148607
0.000212801
0.000148021
0.0849132
0.000147814
0.0745992
0.000159748
0.0865573
0.000477723
0.000165897
0.000147943
0.000147994
0.000146927
0.0741952
0.000148858
0.000175313
0.0279181
0.000144572
0.0273506
0.000158787
0.000147816
0.000184198
0.000147245
0.000147931
0.0380484
0.00740859
0.0329236
0.000147456
0.000146382
0.000150507
0.000154125
0.000151118
0.000148256
0.0532751
0.000183723
0.000941521
0.000150171
0.000163662
0.000491144
0.000230916
0.000157478
0.000146634
0.0231699
0.000150803
0.048447
0.000147526
0.000148061
0.000147878
0.000146418
0.000144557
0.000149978
0.000146371
0.00015975
0.0653047
0.00016501
0.046528
0.000153652
0.000149331
0.000148742
0.000199325
0.000148087
0.000150146
0.000148197
0.0318865
0.00861927
0.000146351
0.000153723
0.000147212
0.000147886
0.000149841
0.00014834
0.000147413
0.000264765
0.000149241
0.000147309
0.000191506
0.000146922
0.00357778
0.000185726
0.000186968
0.000212479
0.000153735
0.000148435
0.0508362
0.000148607
0.000183039
0.000161306
0.000146862
0.000168832
0.000148312
0.0789276
0.000145604
0.00014746
0.0691476
0.000174043
0.0211838
0.000146148
0.000187459
0.000191313
0.000158414
0.0443788
0.000147008
0.000146528
0.000145702
0.000171773
0.000150429
0.000960306
0.000147942
0.000169783
0.0428809
0.000215009
0.000148029
0.00023409
0.000153608
0.0258996
0.00015174
0.000152873
0.000153454
0.00992296
0.000147844
0.000149611
0.0605209
0.000145554
0.00015458
0.000147268
0.000161943
0.060072
0.0615643
0.000147635
0.000169587
0.000147943
0.000233263
0.000148044
0.000149705
0.000185743
0.00797869
0.000162447
0.000147841
0.000154029
0.0101034
0.000172064
0.000185315
0.0804511
0.000148056
0.0253582
0.000157595
0.000193519
0.000147723
0.000154653
0.0683438
0.000153782
0.00014729
0.000210879
0.0253897
0.0611903
0.000146017
0.0454172
0.000272954
0.000146351
0.000193829
0.0258042
0.00014984
0.000151721
0.00212242
0.00014442
0.000149688
0.000146649
0.000148556
0.000192553
0.00018413
0.000166389
0.0413447
0.000149788
0.000163589
0.000156631
0.000149138
0.000151286
0.000166045
0.000148349
0.000149468
0.0849313
0.041838
0.0274939
0.000146424
0.000166036
0.000148818
0.0484784
0.000148518
0.000166985
0.0746545
0.0177151
0.000165309
0.000148291
0.000471633
0.0345785
0.000808338
0.000147895
0.000148749
0.000146812
0.0836525
0.000165931
0.000198706
0.074637
0.000148549
0.00014935
0.042342
0.000156219
0.000182004
0.000149084
0.00014744
0.00014801
0.00133912
0.000148363
0.000175877
0.000147032
0.000148654
0.00014642
0.0448429
0.0427955
0.00015217
0.000223206
0.000150979
0.000389609
0.000147336
0.000147199
0.000186444
0.000148548
0.000147481
0.000153698
0.000174789
0.000160105
0.000187878
0.000148521
0.000180425
0.0743998
0.000148741
0.000149352
0.000148347
0.0714659
0.00016568
0.000162277
0.00018675
0.000146967
0.000148129
0.00017384
0.000156653
0.00317488
0.0864482
0.000161891
0.0531531
0.0322358
0.0434582
0.00017619
0.000149412
0.000147838
0.000230267
0.0621479
0.000147038
0.000161931
0.030169
0.000148619
0.000217974
0.000323304
0.000198657
0.000147526
0.000186324
0.000148824
0.000148606
0.000146491
0.000210716
0.000148787
0.00017597
0.000168256
0.000147724
0.000149154
0.0151359
0.000147202
0.000145248
0.000172639
0.000572943
0.000167336
0.000148052
0.000162973
0.0300005
0.0455022
0.000159274
0.0254212
0.00018592
0.000178652
0.000168226
0.000148931
0.000172966
0.000157986
0.000145876
0.000146946
0.000149581
0.000156576
0.000234376
0.0478491
0.000149402
0.000369528
0.000173791
0.000706843
0.046073
0.000230599
0.0490859
0.000198286
0.0432414
0.00017188
0.0491996
0.000177929
0.000147938
0.00014885
0.0859045
0.0451479
0.000194758
0.0133462
0.000147157
0.0346781
0.0484761
0.000148119
0.000145408
0.000163551
0.000178116
0.040826
0.0259927
0.000179782
0.000146928
0.000147442
0.000149399
0.0869035
0.000153744
0.0459082
0.000154889
0.0479376
0.000207886
0.0399667
0.000158726
0.0498581
0.000146668
0.000145174
0.000154438
0.000149012
0.0585419
0.000190466