/*--------------------------------*- C++ -*----------------------------------*\
| =========                 |                                                 |
| \\      /  F ield         | OpenFOAM: The Open Source CFD Toolbox           |
|  \\    /   O peration     | Version:  v2012                                 |
|   \\  /    A nd           | Website:  www.openfoam.com                      |
|    \\/     M anipulation  |                                                 |
\*---------------------------------------------------------------------------*/
FoamFile
{
    version     2.0;
    format      ascii;
    class       volScalarField;
    location    "550";
    object      omega;
}
// * * * * * * * * * * * * * * * * * * * * * * * * * * * * * * * * * * * * * //

dimensions      [0 0 -1 0 0 0 0];


internalField   nonuniform List<scalar> 
18758
(
0.117863
6.83208
0.0214733
3.64101
6.29352
6.76556
7.51814
0.0217133
0.286799
0.0277492
0.0236517
9.49367
0.0220467
0.168262
0.0230992
0.609316
0.0407699
0.0219419
0.0219262
0.0309563
7.53345
0.022271
5.33311
1.33178
2.19486
0.0217175
1.66242
6.29724
8.69599
3.98143
0.0657871
5.53805
0.0221819
0.0226827
0.133569
0.0221717
0.0222265
0.0220002
0.0222573
0.0439402
0.0219977
0.0266264
0.0216454
0.0261552
2.24453
0.0216164
5.09758
0.0239456
0.0273068
0.0216129
0.141152
5.89365
0.0215419
0.0234277
6.05351
10.5503
0.0222172
0.331397
0.0219413
0.188082
0.0966344
6.46123
0.12439
0.022867
0.0215514
0.0220123
0.0449647
0.0221775
0.021922
5.74939
5.47534
0.0223321
0.0216194
14.1279
0.0216854
0.0219361
0.263725
6.17963
0.0879348
5.03356
5.75409
4.45118
0.188208
6.52669
0.268577
0.0301691
22.4064
0.123073
5.94228
0.0219363
6.25461
0.0219423
13.9382
0.0270514
5.71229
12.6044
0.261463
0.0216842
0.0218906
6.30854
0.0324291
5.84915
0.0882351
0.0469231
7.3913
2.96401
4.48657
6.36153
0.0226218
0.0223094
16.0275
10.5561
0.0217576
0.0220543
7.3959
10.8692
8.38004
0.0230981
7.13244
5.46943
0.0380954
0.0219588
10.4436
1.36819
0.548043
1.6898
6.05225
0.939632
11.2014
0.0220439
0.0422025
1.52655
15.7391
0.0490502
4.85078
0.023866
0.257587
0.0459036
0.0218884
0.0776243
0.0885261
0.238031
0.0219728
13.9908
0.0220023
0.0220146
9.66024
6.50581
0.0645494
6.96215
3.26692
1.08183
0.0301238
0.0222707
5.0077
0.0280471
6.31158
0.0239544
0.0221869
0.0222888
0.0218061
0.185129
19.0387
0.0221784
0.0963217
8.52485
0.0219708
10.9063
0.219288
6.93876
5.21589
0.0219369
18.5732
6.28903
0.184535
1.21555
8.00273
0.0229623
0.075768
0.02211
0.0217954
32.6094
0.817149
0.0216465
0.0251918
0.579472
0.0219126
9.0488
0.0216302
0.0219242
0.0493477
0.744728
0.0224131
0.0613056
0.0339025
0.125896
0.031594
0.254088
0.0221484
0.0216386
0.0727008
0.0238873
0.0367041
0.0881538
0.0220352
0.0334509
0.0921559
0.0222787
8.16772
0.0273463
0.021929
0.0494046
0.0222213
0.036426
0.0757968
6.0045
0.0842922
0.540605
0.0216314
6.86418
0.0219289
0.0226389
0.227836
7.63727
0.277425
0.0901481
0.0597804
0.0465552
0.0216044
0.0896397
0.0220058
0.125268
5.0411
0.270068
0.0220631
0.0219138
0.0216061
0.0216415
10.8999
0.0367143
0.021833
0.887551
4.58938
0.022998
6.90734
38.685
0.268731
0.0221783
5.7264
0.0297344
0.0221525
10.2444
0.0302333
0.0302294
0.0225334
0.0414521
0.517629
0.681976
0.0355456
0.0846918
0.0216654
0.0724568
0.0220321
0.0872502
0.0268915
0.225631
10.2349
0.0216365
0.0225077
0.433176
0.0224402
0.0249506
0.0880043
8.78978
10.4471
0.0219655
0.124463
25.9171
2.22784
0.0226035
0.0217372
0.0292275
0.0369176
0.0219646
22.1257
0.700807
4.66364
31.9886
5.28846
0.0216256
0.0214665
0.0510418
6.69993
0.025581
0.0850062
0.120064
0.0291994
5.49005
0.0218919
1.32914
6.65111
0.0216289
4.90948
0.0376316
0.0219487
0.0331085
0.0903415
0.0228306
0.0221567
6.7512
4.51943
0.0219242
8.43959
5.49206
0.25422
0.0220176
0.0221228
1.01498
0.0229683
0.0216414
0.0217678
0.0230183
0.232686
0.0918731
0.0291905
0.0357149
0.0311059
0.0492818
0.0216505
0.0222785
0.869534
0.0556021
0.133422
3.63453
0.0259699
0.0223618
0.0220837
1.37111
5.15487
0.0216169
0.0219165
0.0216189
0.0237524
0.0439269
1.41712
0.0219589
0.022205
0.0216029
0.817427
0.214177
0.190488
0.155266
0.0228582
0.672842
0.111088
0.0374384
0.0314169
8.78147
6.69307
0.708829
0.0220473
0.0331425
8.82532
8.59771
0.0249272
0.0216299
0.0602585
0.0219571
0.0301122
8.46099
3.80828
0.113406
0.0303851
8.52362
0.0219894
0.0238731
0.0218972
0.0222633
0.111389
0.0240345
7.57134
0.270865
0.0224552
0.0219289
7.20741
0.111215
0.281406
0.0219883
0.052035
0.0217272
0.0260323
0.0219591
0.0216461
8.59419
7.42551
3.97926
20.9372
0.0219123
0.244128
4.64423
0.0423296
0.021752
3.65655
0.0217663
0.0220639
0.0217911
0.115063
0.0219502
0.0260367
0.144062
9.88627
0.0217541
6.11343
0.0478846
0.0220239
0.0257166
0.021961
0.0219183
0.0284942
0.0679677
0.048628
26.9386
0.0396264
0.022045
0.388504
5.91791
4.47266
5.34721
0.106524
0.0225362
0.0216467
0.021836
0.0222414
0.113063
0.0420897
0.031974
0.0361846
0.0301542
0.596202
0.0899656
0.0219545
0.0347045
5.46007
0.0228418
3.81843
0.0222024
0.0220827
4.60223
0.0280465
0.0224397
0.515486
0.137203
0.0504124
10.0005
0.0219411
0.0226608
0.738352
8.35105
0.0359928
0.0723262
0.173839
0.51249
26.2867
0.171301
0.0223034
0.145762
0.0220529
0.115077
0.0231127
12.2606
0.0512057
6.21179
0.0318551
0.0734839
0.0216299
1.42044
0.0216256
8.78803
0.0219015
0.356482
0.0220586
1.95745
0.0310591
0.0220894
0.0218954
0.021783
5.34271
11.1594
7.43356
0.0443943
0.0246099
0.0909521
0.0222702
0.0222874
5.99992
0.0218964
0.0220629
0.122801
0.0220415
0.0703643
0.0904513
0.0220583
0.0219477
0.0279097
0.0227518
0.0285863
6.8153
0.0313709
0.0356593
0.0266721
0.0220492
3.68097
0.0223436
0.0226253
3.4994
10.3333
0.0701177
1.89542
0.0251418
0.0225965
7.3996
0.0219501
9.2127
0.324104
0.0220833
6.82376
0.871001
0.0610756
0.0218601
0.0529592
5.6841
0.022003
0.02186
0.0231564
0.0228169
0.0220316
0.0216987
0.0222939
10.3965
0.0251586
8.44473
0.0219632
0.162203
8.38992
0.022038
0.0216372
0.0251083
0.0221293
0.022671
0.0233215
0.0220978
0.120628
0.801737
0.0215402
5.75621
5.61177
0.035484
0.143951
4.29226
0.0264003
0.0306
0.0282886
5.61649
0.0250588
0.0447353
0.0220112
5.99436
0.042028
0.215905
0.149225
7.29794
0.0249998
0.021935
0.0599753
1.70411
0.0226107
0.442638
0.022244
5.33099
0.0227598
0.0217876
0.0217793
0.0220475
5.63857
5.45447
0.0220019
0.286903
0.030587
4.31005
7.61175
0.895091
3.76628
0.0218988
6.57456
0.0602497
0.0219872
0.0459957
5.78733
5.70085
0.0226619
0.0225667
0.0220174
0.0215085
6.78329
0.118808
6.11915
4.83923
0.0220365
0.0221403
0.0590094
0.022281
0.0218081
0.0232969
0.0229573
0.123298
0.041211
0.219435
6.36076
0.0726154
0.0220654
0.0274464
0.121298
6.18152
0.0428451
7.94015
0.0530698
0.0220067
0.277509
5.22026
0.0224711
0.0216361
0.15175
6.1143
0.249665
0.0220421
8.36988
30.1775
2.33582
0.0216064
6.72376
6.91494
22.8868
0.0240298
0.0221965
7.649
0.0222945
0.197134
6.98811
0.235242
6.39326
0.0864793
5.08082
0.0694318
0.0221084
0.0225463
6.4663
3.8719
8.21552
3.73666
0.0219494
0.197643
0.0222771
0.0606012
0.0871946
0.132862
0.0220879
0.0251746
0.231484
5.61866
5.9939
9.6296
0.0386747
0.0324708
0.274791
0.0222416
0.0217041
0.0219517
0.0255425
0.0686547
0.0220352
0.0813722
0.0218524
0.0220729
0.0219042
6.3058
0.02233
0.0222696
0.0553935
0.0529322
0.0215449
11.2449
0.0219586
0.0217
0.0557951
0.0367798
0.0248206
0.0228608
5.9725
0.0358522
0.0345396
5.19054
0.0345675
3.70232
0.0260038
0.120488
27.9208
8.83455
0.0216284
5.59504
1.03522
0.0216861
5.5389
0.0220655
0.0218913
0.039478
0.02195
0.10922
6.01039
0.021624
25.4853
0.0218731
0.0378631
3.88325
0.021525
6.00469
0.0235073
0.0219784
0.0219155
0.0219484
0.258056
0.0727145
11.9431
0.0747388
6.48298
0.0591485
0.0220371
0.250417
8.49418
5.03095
0.0751322
0.184104
0.0592878
0.0266139
0.256262
0.0226917
6.15615
0.0220348
5.78684
0.0227508
0.0753464
0.0279515
0.0223304
8.75606
0.0225663
0.0218152
4.91724
0.0235468
0.0219068
0.0440476
0.0898327
0.267408
2.92504
2.89642
5.58003
0.0221328
0.0222051
6.84764
0.0219914
0.880989
0.092909
0.0237352
0.0220616
0.0327179
0.0219879
0.0219421
0.0288046
0.684106
0.217803
0.15757
0.062708
0.0221329
0.0585212
7.94758
0.0218611
0.0875922
0.0238822
5.90993
0.0232504
5.41636
0.0220294
1.29399
0.0222766
0.084052
0.0219919
0.025206
0.0297627
0.0215298
0.0216833
0.0215805
5.49255
33.2406
0.0324132
6.26711
0.0220123
0.0415459
0.0280686
0.299401
5.25279
0.0325049
0.0215379
0.221406
0.0218544
0.0220113
0.02809
9.49422
9.49476
2.14481
1.03207
0.0732632
0.0229489
0.0218999
5.01537
0.0218946
4.3696
0.0275663
0.0221855
6.77371
7.29759
0.0220905
10.1371
0.0270106
0.09884
0.0960325
1.74167
7.18299
1.16446
0.0219985
0.0215024
6.33758
0.021974
0.0219208
0.0282025
0.0219912
5.24488
0.253819
0.0594387
5.70518
0.0486869
0.128966
0.0237979
0.0219907
0.0215342
0.0217817
10.3993
7.82318
0.29736
0.0220575
0.0215312
0.0302683
0.0218405
0.0400531
0.0256354
2.97106
6.26646
0.0811899
0.284838
0.31078
0.0218826
0.245659
0.0219032
5.3116
1.04937
6.10248
7.8596
0.0230032
0.0288795
4.72636
5.65277
6.80354
0.0447931
0.13039
6.12261
0.0220479
0.274164
1.55631
0.117786
0.0220421
0.0219654
0.0411903
4.94556
3.09211
0.0962367
0.0219659
0.024848
0.0288626
49.2051
0.0222697
0.626432
0.0218877
0.0227386
0.207329
0.021863
0.0220227
0.0232195
0.0269526
0.021977
0.0226729
0.0216089
2.44462
0.417217
5.01973
0.0216299
0.0494566
0.0220127
0.2593
0.271944
0.0368842
0.0218912
0.0228476
0.603454
0.132645
0.0289396
8.30762
0.113911
0.0219494
0.0220366
3.75189
6.09814
0.0621104
0.0216149
0.77706
0.0221259
0.0361611
0.0216643
1.35364
5.08808
0.0218599
0.0220141
5.37542
0.0219436
6.5819
8.54425
0.0578668
0.0222609
0.0221659
0.0216599
0.0220358
25.5658
10.6212
0.140611
0.0228303
5.12091
0.0219443
0.0219257
7.9692
0.0217463
6.60756
0.0215111
0.0287949
0.0233082
0.0219295
0.0218435
0.0221208
5.36913
0.0224665
0.0221942
0.152962
0.0415221
0.0219726
0.0589474
0.0367253
0.0221261
0.27997
0.0219779
0.0368781
5.4975
0.0884672
0.0219523
0.28554
0.0886747
0.089319
0.0265043
0.0634612
8.64346
0.0243974
0.0597315
0.0219481
0.0215867
0.0220082
0.0425237
0.036506
0.0450445
0.0218603
0.0274381
0.0605486
6.39276
0.274492
0.0219218
0.0217827
0.0228082
0.102191
0.0218137
8.72737
0.0219556
0.0219658
0.0217817
0.419583
5.70461
0.0221549
0.0235764
0.0218832
0.0950057
0.0218083
0.0219567
0.58323
0.0222704
0.0215915
0.0221315
0.144441
0.0217949
0.0218703
4.31598
11.583
0.594212
0.0433498
5.80896
0.0497188
0.0219504
0.0219014
22.8577
0.0219584
0.0678597
0.0848657
0.0417267
0.0266716
0.0223306
0.0305109
0.0228438
0.0216221
0.214409
6.22601
0.0431907
0.021787
6.44503
0.0449672
6.82516
16.1753
0.0968578
0.0221406
0.0219258
0.0218272
0.0585154
0.0221272
0.0218413
6.14015
0.156918
0.0413608
0.0219028
0.0666793
0.28885
0.0220974
0.0263519
0.0360541
0.141001
0.0727302
0.0220262
0.0233563
0.0377978
0.0218205
0.0489149
0.0223096
8.79918
0.0601478
0.131537
0.0217768
0.0371051
5.77074
3.68424
1.06275
0.0627626
9.77401
0.0221304
0.0219516
0.0226595
0.0917754
0.0221696
0.0234218
0.0306678
0.0580014
0.0220031
0.0219547
0.0220114
0.022277
0.351877
3.77651
2.46975
0.0219958
8.94029
0.0295981
0.0221552
0.0319265
0.0218736
0.0903718
0.0229567
0.0219653
4.96733
35.3131
5.4202
0.022353
25.1599
0.0219635
4.90104
5.032
0.0215425
0.0601377
0.271411
0.0216216
0.0219635
9.18398
0.0222656
0.022021
0.193384
1.77067
0.0220299
0.0311478
0.0221508
0.0251453
0.131994
0.0221669
5.16868
0.0432854
0.0219603
1.61863
0.0595899
0.0805502
0.0222881
0.294262
0.0220603
6.18118
0.021966
0.0217717
14.9781
0.0217024
5.64278
0.0219657
0.0553886
7.83715
5.88808
0.0220003
0.0223454
0.02203
0.0232437
0.0268219
0.0266589
0.0214874
9.25758
0.0218811
0.0219661
0.143615
0.202198
0.0433112
0.0220295
5.51429
0.0886734
0.0223669
0.0351
0.0219136
0.0217558
8.21163
0.0216309
0.0217757
0.0218124
5.90086
0.0218069
0.0218423
6.11316
0.0251814
5.75286
0.0323084
0.0215137
0.0218797
6.3712
0.0259257
0.0220079
7.71241
5.532
0.0217927
4.662
0.127611
0.0219227
0.0220192
0.309676
0.0222209
1.9189
0.0332655
0.0220343
2.77635
11.016
0.254981
0.0218849
6.86432
0.029852
0.372629
0.664954
0.0219066
9.51458
0.0220124
0.0318058
0.0260058
5.57622
0.0216901
0.022372
1.56014
0.0222732
0.0354654
0.0216969
0.0221077
6.18335
0.090451
0.0251908
0.0357984
3.03164
0.0223085
0.0233091
0.056248
0.129445
0.0253622
0.0219508
0.0219196
0.0221467
0.0225693
0.021848
0.0337298
0.0274658
1.42507
0.0220098
8.02409
0.0219895
0.0282705
0.0219851
0.0360155
0.0221019
0.0219318
5.20093
5.21291
0.0240248
0.0220982
15.0778
0.0275073
14.8175
0.0365196
0.0710444
5.18638
9.73777
3.76912
0.0230127
0.0219895
0.0218037
3.66669
0.0218196
0.0220244
0.149951
0.0218479
0.0221861
0.0220673
11.3965
3.30461
0.0221813
5.54119
6.0795
0.0239561
0.0219422
0.0221914
4.44067
0.0216811
0.0899707
0.0222883
0.0219855
0.0220655
0.0217607
0.0769622
0.0219661
0.0218918
0.0217767
0.021622
0.30575
0.0216092
0.0218039
0.0221018
0.0219498
0.283789
0.80799
0.0586227
0.0226099
0.0220036
0.0221935
0.0222247
4.51522
0.0219358
0.0314102
0.0667567
4.95479
0.0219577
0.0219167
5.1481
0.022126
0.102487
0.0836427
0.0224168
5.11394
4.38352
0.0309028
7.97066
0.0281173
0.115503
0.0214874
17.5155
0.0220514
6.72218
0.0220531
0.0218476
2.22194
2.27134
0.420544
0.154952
0.0219063
7.0703
0.0221768
6.73096
0.0549448
0.0219348
0.0214897
0.0219007
0.0521432
0.0607606
6.11769
0.0398048
0.021894
0.0219432
0.0219159
11.1013
0.18351
0.0331992
0.0221458
0.0219071
0.0301025
1.01854
0.0219265
0.032543
0.0675825
0.0219349
0.0238373
0.0231363
0.0594482
0.15226
0.0243646
0.0774339
0.0215876
0.0220191
8.58467
0.0404146
0.0891828
2.16267
0.0216124
9.86886
14.9024
0.0501311
6.67816
0.0219356
5.22049
5.85581
0.103394
0.0217995
9.29424
0.13857
0.021998
0.038408
5.99765
0.0226603
0.0219783
0.039492
0.0222713
9.88284
0.0305611
0.0220495
0.0222821
0.0218789
0.0675648
0.0321489
9.18117
0.0924638
5.03995
0.0759155
0.022261
0.0219382
0.587821
12.8917
0.0219725
0.0219023
0.153002
0.0220943
0.29465
5.23443
9.67405
0.0219521
0.0219806
6.95384
0.0217634
6.1225
0.511738
0.0217139
5.75287
0.060332
0.0815105
0.0219734
17.2111
0.0220363
3.71961
0.0215055
0.048079
0.0228377
0.0216914
8.2516
0.0227023
0.0219738
0.0233776
5.26049
0.0220843
0.0216021
5.09413
0.0219047
0.0216566
0.0221235
0.0250657
0.0220622
0.022186
0.0278446
0.0221802
0.0263933
0.02156
0.26227
7.00738
0.130388
5.2064
0.027841
0.0263588
0.0218824
0.0218325
0.0221231
7.63336
4.72523
0.0218945
0.0222777
0.0219157
21.641
0.0215954
0.306953
0.476691
4.33454
5.54988
7.83855
4.91993
0.021636
4.49974
5.87857
5.24375
0.0261358
0.0221492
0.0409042
0.0216434
4.63453
0.121291
0.06058
0.0268701
8.6891
0.0219957
0.0214839
5.3159
0.135515
0.0219915
0.0215241
0.042455
0.0221227
15.7081
8.38301
6.52556
3.75441
0.0778503
2.59743
0.0218236
0.280889
0.0221135
0.0219573
0.0216471
5.43862
0.0221388
0.021822
1.89793
5.07468
0.256451
0.144491
0.0229125
0.0391202
10.6308
10.9867
5.2747
5.32193
0.116686
5.60326
0.216159
0.770405
0.0526557
0.0390488
0.0218844
0.0360749
0.03156
0.0220554
5.07364
0.0218112
0.0219866
0.0220029
6.72276
0.0255932
0.0218147
0.021843
0.0219675
0.128144
0.0872898
2.85315
0.0227022
6.20747
0.021516
0.0219186
0.0850511
0.0687702
0.0215013
4.30274
0.0401678
5.73268
0.0219907
9.93794
0.0614721
0.0219247
0.0220626
0.0219532
6.00473
6.08695
9.37214
0.0219863
0.0222616
0.0215761
5.78981
0.0281952
0.0220691
1.07835
0.0219342
0.0225881
4.78902
0.0215995
0.0219513
0.0220746
0.0221121
0.0214801
0.0224393
0.0215159
0.0222523
0.0777576
0.0398228
0.0218371
8.86017
0.023783
6.18797
10.513
0.0504096
5.50661
5.78017
0.021805
0.0403063
0.0220307
0.021848
5.77101
0.0261616
6.69692
0.0273309
0.117193
0.0220916
0.0232822
0.0219131
4.35744
0.0431172
5.302
0.022053
0.120624
0.0288222
0.0218031
0.0368401
0.0397038
0.0215458
8.1393
0.0221021
0.0393971
0.0220111
0.0304525
0.0491018
0.213758
0.0265464
0.0762508
6.55682
0.0301198
0.0379452
0.0215959
6.75432
0.0595816
0.0222715
0.0737799
4.53024
18.1962
0.0219721
0.0228766
0.0221728
0.0215826
0.021936
4.91114
0.0282596
0.022086
10.3281
0.0221169
0.0215892
0.0257451
6.04987
0.022184
10.4493
4.00764
0.0999103
8.09765
0.0226216
5.80479
0.5136
0.0216165
0.0287473
0.0220237
0.0223387
0.0379344
7.71728
0.0599972
1.18627
0.367663
0.0219041
6.79196
0.0219065
4.12676
0.022268
28.7099
3.69863
0.0221602
0.0217563
0.0222787
0.0322455
0.0863194
0.0219713
16.2296
0.0229892
0.039573
0.0746948
0.02307
0.0219233
3.76733
0.0217666
0.209098
0.029279
21.9263
0.0221279
0.0218936
3.9759
0.0214632
0.0217589
0.0225408
0.0604635
0.0513881
0.272743
0.0243185
0.0217646
0.025116
0.0222575
0.022531
5.47378
0.0219425
0.0483267
5.67562
0.198748
0.0219486
0.0899523
0.0218622
0.0222088
0.403592
0.266625
0.0901352
0.0222394
0.0219487
0.0246958
0.0833786
0.0218864
0.0295034
0.021901
0.02223
0.0218442
0.0220221
4.30146
0.0215549
9.97981
5.87184
0.025056
0.0216823
5.34092
5.76709
0.0217949
0.021972
12.7886
0.0223176
0.0645087
0.215893
2.13723
0.0219147
0.0228209
0.0494271
0.0219809
7.03155
0.204876
0.0218046
0.0310925
0.038216
0.0220919
0.2875
0.0221538
0.0500668
0.02288
0.0248217
0.021529
0.0219035
0.280629
0.0219764
5.90834
0.0628379
0.0219962
0.0219848
0.021985
0.0218713
5.27558
0.0222717
0.182711
0.0219054
0.0218539
0.0565343
5.89586
0.0217702
0.0215535
0.0219302
0.0225744
0.0300533
0.0302134
4.30538
0.0282551
0.0218414
0.158296
5.69801
0.0222723
0.0311444
4.83381
0.0358527
0.0224093
5.52573
0.0214802
7.89113
0.0407487
0.0220695
0.0750287
0.0218601
0.0219211
0.0219117
3.7652
0.0220159
0.578248
5.6874
0.587202
0.0289614
0.0219663
5.1573
0.0222778
26.6205
0.0217225
0.308141
0.0257919
0.0789863
0.022687
3.95639
0.029084
0.0222245
6.0313
6.70445
0.0215565
0.618674
0.0219896
0.0309758
0.0217373
30.1684
0.957257
0.0223162
0.022037
4.7919
0.279806
0.0218559
0.023462
0.0220334
0.0218082
0.0217134
0.0240327
5.66985
15.9018
0.022477
0.204786
0.023611
0.0615969
0.0220033
29.1889
6.03296
8.97473
0.0227336
5.73698
8.04353
0.0249138
0.0303704
0.0218768
0.0473471
6.48488
0.0221673
0.0217137
0.0217681
0.027341
0.0215831
0.0219834
1.66127
0.023103
0.198034
0.0220262
0.0219718
0.0224602
0.0220445
0.191079
12.2076
0.0217899
0.0425897
0.021539
6.13019
0.0218114
0.0242582
5.98608
2.45595
0.0262522
4.77645
0.401013
0.0220676
0.0601408
0.0221306
0.0326749
0.0222351
0.0219242
0.157621
0.116949
4.48345
0.109618
0.0348432
7.32247
0.0232149
0.0417197
0.0227175
5.36535
4.27123
4.07985
0.0219472
0.0215143
7.24517
5.60613
0.022131
5.27258
0.0221395
0.0267955
0.0214913
0.0218707
0.0218079
0.0218318
0.247199
0.0406239
0.0384791
0.0219722
0.0220202
0.0216431
0.0218258
0.0218155
0.0222627
0.0219305
4.84429
4.94839
5.25932
0.0236115
7.67158
0.0569648
6.83041
7.77861
0.0569619
0.0221133
0.0222478
0.193836
0.0224204
4.67848
9.08359
0.0225638
0.0217001
0.0303473
5.3443
0.0219961
6.3381
0.0218427
0.0221019
7.09945
0.0219234
0.0286873
0.0221651
4.4516
0.0215762
0.0219367
0.247033
0.0216164
0.0220583
0.021898
0.0217006
0.0672495
0.0218978
23.371
0.0220239
0.0222173
0.0214716
8.57118
0.0341036
0.0222261
5.44477
0.0220889
0.0215533
0.23188
5.53726
0.0221167
6.44816
6.5732
0.026288
4.9043
0.0221117
0.0219541
0.0856345
0.0216671
5.29275
5.47504
0.0214872
0.0259377
0.0218837
7.78309
0.67224
0.0436065
0.0221444
0.522305
0.0362452
0.0518366
0.0267449
0.0220292
0.0225289
0.0218971
0.0218111
5.83934
0.02145
0.0218126
0.0419978
8.99582
0.076228
6.49624
0.022015
0.0418881
0.0218831
0.0219818
0.0220864
0.0217629
0.0221529
0.021911
0.0221023
0.0221725
0.0242161
0.0219846
0.0221377
0.0216822
8.68138
7.12741
0.022186
0.0227389
5.23215
0.0222102
0.119718
4.9837
0.660582
7.08424
0.787504
7.15154
8.68147
7.1844
0.0217644
0.0301198
0.0218784
0.0500864
0.0245669
0.0222236
0.0217851
8.79283
0.0216265
0.0298384
11.7173
0.0215814
0.0217259
0.0762169
0.0217016
0.0219011
0.0218844
0.0221692
5.34081
8.33515
0.0220384
0.0219379
0.0220582
0.0228591
0.0430273
0.0228567
12.8402
0.221004
0.022194
5.07018
0.0316383
0.0219342
6.67973
0.0215881
0.0485054
0.0217737
0.0223725
0.0224027
5.17142
0.021936
0.0219627
0.0238719
0.0223002
0.0304073
0.0218236
3.79094
0.0398714
0.0439221
10.2726
7.02223
0.109151
0.0324277
5.08376
0.0220058
0.0220039
0.0251886
5.15113
0.0498676
0.0491861
8.053
0.0219762
3.28252
0.251651
3.65816
0.0219986
0.0358686
0.0218744
0.132768
0.0333931
0.630791
7.01386
0.022016
0.0355075
0.0276359
0.0219089
0.936736
0.0219617
0.0298524
0.151826
0.0907355
0.0219442
0.0222948
0.0222283
0.0565639
0.0219509
0.0221799
0.0219564
0.0220792
0.0216565
0.0378869
0.0215429
0.772213
4.64094
0.0225448
0.0217542
0.021552
0.0422628
0.034533
0.0221267
6.50035
0.0496816
0.021771
0.0218165
5.38035
4.56865
0.021938
0.198678
0.0348684
0.0220091
6.19441
0.022597
0.0740532
0.0222339
13.8131
6.91717
0.0222563
0.0350153
5.40967
0.0346505
7.59812
0.0222394
0.0254099
4.98321
6.99537
0.0252083
0.0253953
0.0225452
0.0244145
0.0228509
6.37838
4.6006
4.36693
0.0234622
0.021982
0.0568967
0.0219045
0.255452
0.024726
9.3062
0.0215711
0.0221891
0.0217514
0.0218964
0.0218439
0.079182
7.62477
0.0299067
0.0216173
0.022105
10.2544
0.0235287
0.0237543
0.0221555
0.0358017
6.52544
0.0217042
0.0218515
0.0396178
0.0865694
0.0221147
0.0415662
0.0223279
0.0236701
0.120993
0.0286737
7.06595
1.38558
0.0473468
10.7439
0.0218557
0.0219022
0.0230459
6.55303
0.0232734
0.502299
0.0216943
5.29307
0.0359311
0.0218656
0.0299446
0.0223179
5.88258
0.0566045
0.0302572
0.261044
0.10823
0.0221511
0.0222003
0.0222283
0.0247989
5.15734
0.0499412
0.0221051
0.216877
0.0218422
6.59687
0.0219437
5.81144
0.0291045
6.76514
0.834437
0.0577011
0.0219605
0.0220051
0.0218674
6.97391
0.0219767
0.0498778
7.03089
0.0215308
7.54373
0.0327646
0.0219499
0.0745784
0.021912
0.0218245
5.77526
6.74157
6.10035
0.021894
0.0217642
0.022763
0.0242784
0.0229233
0.0219394
10.6636
0.0733644
1.49654
0.0225097
0.0421478
2.28869
1.26223
0.0301622
0.0217586
6.09741
0.0228978
5.06394
0.0218894
0.0220286
0.0219782
0.0217187
0.0215285
0.0222286
0.0217852
0.0368267
7.34162
0.0349579
4.82057
0.0250408
0.0222084
0.0221251
0.40235
0.0220234
0.0224881
0.0220461
4.96709
4.83163
0.021781
0.0235941
0.0218661
0.0219698
0.0222783
0.0220653
0.0218959
0.944681
0.0222548
0.0217952
0.137734
0.021827
3.37093
0.0801846
0.0851727
0.212563
0.0239921
0.0220796
5.14679
0.0220554
0.0715636
0.0287892
0.0217893
0.0499469
0.0220659
6.17478
0.021605
0.0217895
6.60667
0.0565184
10.3472
0.0217522
0.0923001
0.159321
0.0316439
4.06986
0.0218804
0.0217448
0.0216135
0.0899857
0.0227936
1.49404
0.0220049
0.0398382
6.06296
0.222472
0.0220147
0.847316
0.0253267
6.90965
0.0235416
0.0234096
0.0239502
4.76485
0.0219597
0.0223307
5.24286
0.0215583
0.0261814
0.0218295
0.0464782
5.89584
7.48882
0.0218541
0.0955279
0.0220019
0.287684
0.0220154
0.0224075
0.0820805
24.1858
0.0392263
0.0219952
0.0253774
5.45397
0.058793
0.0823326
6.36098
0.0220242
11.5484
0.022965
0.172846
0.0217846
0.0250468
5.85634
0.0254637
0.0219174
0.451164
7.41346
6.72918
0.0217023
4.19897
0.410788
0.0216122
0.15815
9.94143
0.022278
0.0228339
2.75095
0.0214929
0.0224098
0.0218287
0.0220603
0.118823
0.0875797
0.0342181
5.10229
0.0222709
0.0578995
0.0297011
0.0222144
0.0232881
0.0336645
0.0219939
0.022227
8.25135
5.03289
7.90745
0.0216741
0.0373833
0.0221365
4.63101
0.0220946
0.0415777
7.82578
5.70545
0.0667253
0.0219532
0.835671
4.40243
1.31972
0.0220003
0.0221263
0.0218338
6.64249
0.0375138
0.158477
6.04737
0.0220457
0.0222113
5.64886
0.0286861
0.091406
0.0221739
0.0218848
0.0219741
2.16754
0.0220219
0.0506599
0.0217493
0.0221122
0.0217927
5.25357
5.48272
0.0237857
0.505713
0.0229756
0.677207
0.0219083
0.0218967
0.0835405
0.0220628
0.0219191
0.0254163
0.102519
0.0288854
0.135058
0.02204
0.0665144
5.90827
0.0221085
0.0220189
0.0220181
5.72106
0.0452612
0.0466645
0.0852066
0.0217728
0.0218521
0.137003
0.0257236
7.27976
8.77905
0.0357545
5.24991
4.33568
5.74073
0.0538091
0.0223166
0.0220003
0.274963
5.29007
0.0218713
0.0378951
4.85618
0.0221076
0.220764
1.33506
0.13235
0.0219173
0.0836134
0.0221338
0.0221059
0.0216207
0.866717
0.0221007
0.0505594
0.0364003
0.0219847
0.0221839
5.1208
0.0217764
0.0215916
0.0460476
1.20594
0.0364398
0.022024
0.039734
6.78055
4.27432
0.0280528
6.17041
0.0795241
0.118608
0.0584463
0.0220915
0.15096
0.0328199
0.0216507
0.021718
0.0223674
0.0257788
0.29134
5.43662
0.0222182
0.74895
0.0757873
2.45528
11.5592
0.278433
4.69346
0.133463
4.60067
0.0493795
5.38327
0.0566269
0.0219736
0.0221231
6.70668
4.19657
0.117582
4.90614
0.0218193
6.39359
5.09591
0.0220368
0.0216458
0.0374952
0.0622763
5.37077
10.475
0.111797
0.0218721
0.0218148
0.0222177
8.59226
0.0254698
4.23197
0.0245194
24.2408
0.20616
5.01289
0.0275069
4.91093
0.0218033
0.0215894
0.0257743
0.0221637
5.75481
0.138625
4.54624
0.0220602
6.2495
5.1366
0.0215445
0.0420333
5.57556
0.043223
0.0218699
0.0261235
0.0219754
5.25336
0.0214559
0.0223618
5.77211
0.0290399
0.0485747
0.0276449
0.021813
0.0222008
0.0415935
0.0220417
0.0216445
0.0218339
0.0298291
6.04157
3.18887
0.021971
0.128397
6.36883
0.0221176
7.51033
6.64073
0.022096
9.69615
0.0220767
0.0961388
5.1525
0.0219613
0.0221665
0.0221869
0.0804539
0.0260285
0.0218585
6.29159
0.0219786
6.65224
0.0220406
6.12383
5.29011
0.0249891
0.0217349
0.169502
0.0827516
0.151123
3.79905
0.0439278
0.0221904
4.2561
0.0224413
0.0785204
0.0709061
0.029831
0.0622843
0.0218815
0.133688
4.59941
5.93359
0.116649
0.0218793
0.206711
4.89735
0.0222719
0.204647
0.10541
2.16784
0.0219788
0.0250081
0.0214995
0.211296
7.20238
0.0800561
7.23103
0.0845963
0.0375741
5.40567
5.20603
5.14584
0.446343
9.46727
0.0692949
11.8701
0.0494498
6.0736
5.95272
0.0232569
0.0223361
0.0269434
0.0607577
0.0219985
0.0261012
0.0222616
0.0242041
0.0220046
0.0218751
6.79788
5.18138
0.0222036
0.0515806
0.0221067
0.0217938
0.0236455
0.0822565
0.0233991
0.0902376
0.0221961
0.0434404
0.455343
0.102508
0.0457285
0.021976
0.10059
0.0222202
0.0219237
0.607587
0.0228472
5.79268
0.186621
0.0219284
0.0242891
4.70037
0.0220773
0.0957009
0.0577873
0.0597195
0.0264529
0.0369913
0.02201
0.022168
5.49439
8.06212
0.0355345
0.0817304
0.0220388
5.06005
0.0255625
6.21284
0.078124
0.022111
0.0216797
7.09663
0.161794
6.56813
0.0280651
6.6393
0.0226633
5.83827
8.9439
0.0308045
0.145931
0.0218541
7.35693
0.0222334
10.418
0.028705
4.30992
5.11193
5.24149
5.51166
0.0359993
7.95869
0.163076
0.0490444
5.4601
4.18549
5.11785
0.0217126
0.0258504
0.073961
7.48461
0.0218845
0.0217847
0.0296927
0.0615674
10.6934
0.0587776
0.0450561
0.0219261
0.125486
0.0215427
0.197096
5.33978
1.07097
0.0217785
6.92436
0.0669937
0.0225287
5.53417
0.509367
0.0264921
5.17989
5.14203
4.63977
0.0557663
0.0218393
0.0288532
6.97988
0.0375941
0.0219771
7.43604
0.0214945
7.31664
0.0231907
0.0221503
5.306
5.25331
0.0218318
0.052321
0.0219473
7.04508
0.0215051
4.30252
0.15295
0.0423305
0.0219076
0.0220042
0.0221606
0.0372609
0.0492623
0.125845
0.0289348
4.81177
0.0329003
0.0252821
6.90594
4.60343
0.021644
0.154131
0.021961
5.82646
0.02207
0.0428481
5.99692
0.0274364
0.0219254
5.39374
0.0222918
0.0222547
0.0464261
0.0222781
0.021895
7.03809
0.0596222
5.79265
0.0222785
0.124867
0.0806205
0.021643
0.0219229
0.0235581
0.02184
5.56519
0.575113
4.5748
5.3301
4.11868
5.72607
0.0219165
0.0220137
0.0219393
0.0221579
0.109457
6.40904
0.0303994
0.0247999
4.44664
0.0222848
0.0217786
2.79183
0.131331
0.0214704
0.0219603
0.0218999
0.217681
0.0217564
0.0219233
0.159019
0.034082
0.112344
0.0238382
5.70355
6.69854
0.021463
0.0217176
5.3773
0.0339171
0.0250621
6.00714
0.035786
0.118615
0.494097
0.023463
0.433307
5.44418
0.0215372
0.0257268
5.07581
0.0251984
0.0220122
3.39032
0.0559679
0.0515143
0.0221795
0.340237
0.0238378
5.00454
0.0220397
0.0219742
0.0333208
0.061852
6.27749
0.0358536
0.0219657
24.6247
5.26732
0.0239782
0.0759576
0.0220344
0.0218971
0.0217507
5.08547
0.021857
6.90412
0.237981
5.46874
6.51055
0.0352923
5.08581
0.0330136
6.28782
0.619277
0.117895
0.952108
0.0766678
0.0928313
5.54067
0.0516016
0.0220036
0.0220616
15.9364
0.0401162
0.0229751
0.0221639
6.86337
8.99077
0.0220944
4.64529
9.72708
0.0606666
0.452433
0.0405444
0.0402817
0.040352
0.0984781
5.51495
0.0274213
0.195363
0.231354
0.0217609
0.112709
0.0279694
5.89471
0.0660009
0.0219589
0.236644
0.0637795
0.0769344
0.545353
0.022516
5.28666
0.201509
10.3393
7.17151
0.0221835
0.0220141
0.0218885
7.08106
5.3512
0.0828507
0.158479
0.0218547
0.02173
0.0226172
0.0735531
3.72276
0.0529824
6.39889
0.0765257
0.365748
1.39115
0.0217622
0.0551093
8.17482
7.30243
6.94959
4.63261
4.70271
0.0222279
5.28291
6.17443
5.26474
1.9474
0.0219327
6.45492
0.0225602
5.26567
0.0272793
12.0617
11.3168
3.72404
0.0221569
0.0219789
0.0755794
0.0237872
0.122053
0.0222724
0.0487363
0.0489444
0.0217985
0.0220008
0.0343112
0.0219282
7.65527
0.0218849
0.023048
6.32874
0.0617652
5.54443
0.11765
8.00471
0.0219187
0.0219755
0.022276
5.26249
7.74617
0.0220256
0.0492781
6.62912
9.11892
0.0218857
5.43498
5.1024
0.0218013
5.39056
0.0219061
0.0405589
0.022012
0.0601968
0.0220725
0.134926
6.04277
0.0218547
0.0221592
6.79165
0.0355908
0.021697
0.0220925
9.04506
0.0218725
0.0221971
4.93476
10.5519
5.43437
0.0882605
0.0219252
5.08296
6.47316
1.41804
0.0221662
0.0825314
0.0626979
0.021955
0.24308
0.0218076
0.0218089
0.0218349
0.0551852
6.85155
5.61214
0.0423913
0.152785
0.021872
5.45331
0.0218236
0.0280279
0.0464112
0.0233317
0.0519609
0.036128
0.0218606
0.113022
7.00116
0.0579329
18.4563
7.9789
0.0615613
0.0219589
0.0249477
0.240806
0.0294821
0.0221944
0.110152
7.70334
0.021706
7.24843
0.0284844
0.0219742
1.05462
6.91528
5.06921
0.0219705
0.026714
0.0249078
0.0550824
0.049499
0.021864
0.0219644
0.111179
1.01092
5.2418
0.0273569
0.0222808
0.0217428
0.170774
0.0220256
5.23129
0.0222728
0.040799
7.69379
0.190562
7.16072
0.0220533
7.34197
4.92593
7.00447
0.0220033
0.0222314
0.052177
3.9935
0.0218247
7.319
0.0218691
0.0214945
6.50616
0.0221839
0.0553255
0.0279281
0.0228989
0.0316852
0.0291959
0.0675744
0.0463577
0.038544
25.0339
0.168212
4.2433
0.0468451
0.034241
0.056311
4.91935
0.179096
0.027589
0.0220818
6.53809
0.0226761
2.0668
0.198236
0.694297
0.021691
8.86113
0.0220582
1.98366
0.0225911
0.828587
5.36376
0.0493992
11.4238
4.79395
7.6999
4.63832
6.47984
0.0639658
0.0219369
0.0218037
0.802732
0.0218084
0.0219259
0.0219857
0.0403262
0.0233327
0.0343389
10.4696
4.45139
0.126646
0.0275525
0.0273881
0.0215724
0.0254719
0.226685
0.22385