/*--------------------------------*- C++ -*----------------------------------*\
| =========                 |                                                 |
| \\      /  F ield         | OpenFOAM: The Open Source CFD Toolbox           |
|  \\    /   O peration     | Version:  v2012                                 |
|   \\  /    A nd           | Website:  www.openfoam.com                      |
|    \\/     M anipulation  |                                                 |
\*---------------------------------------------------------------------------*/
FoamFile
{
    version     2.0;
    format      ascii;
    class       volVectorField;
    location    "550";
    object      U_0;
}
// * * * * * * * * * * * * * * * * * * * * * * * * * * * * * * * * * * * * * //

dimensions      [0 1 -1 0 0 0 0];


internalField   nonuniform List<vector> 
18758
(
(1.07577 -0.303184 -2.34859e-20)
(1.24169 -0.02059 -1.39915e-19)
(1.01539 -0.000212533 0)
(0.354295 0.145223 -5.65049e-21)
(0.194728 0.0942862 0)
(0.151639 0.0302261 -1.07349e-19)
(-0.203836 -0.0105674 -1.16257e-19)
(1.01176 -0.00529014 8.89031e-22)
(1.21445 0.0759414 1.24351e-20)
(1.01094 -0.104791 0)
(1.053 -0.0425253 0)
(0.157826 -0.047221 1.19195e-20)
(1.00178 -0.000314676 -1.00339e-21)
(1.06176 0.0532003 9.72431e-21)
(1.04926 0.00736334 1.60069e-21)
(0.581972 -0.480751 7.55087e-20)
(1.1018 0.0109282 6.66399e-23)
(1.00366 -0.00734033 0)
(1.03769 -0.0063991 -3.34973e-21)
(1.01925 -0.124399 0)
(0.0671506 0.0171815 0)
(1.00002 -0.000527634 -6.68837e-21)
(-0.0317803 -0.0224886 6.9393e-20)
(1.19177 0.151048 0)
(1.32382 -0.1674 0)
(1.01144 -0.00509171 -1.0762e-21)
(0.772785 -0.65896 3.8948e-21)
(0.129339 0.0811179 5.05799e-20)
(0.808008 -0.00972993 0)
(1.04975 -0.676505 0)
(1.0923 0.0403396 -2.42119e-21)
(0.225281 0.0211467 0)
(1.00033 -0.000111074 0)
(1.05093 -0.0142189 -7.01072e-21)
(1.10179 0.0696246 0)
(0.999184 -0.000816922 -9.70457e-21)
(1.00014 -0.000161869 2.28472e-21)
(1.03322 -0.0236725 0)
(1.03931 -0.0268689 5.35056e-22)
(1.10836 0.00952758 1.646e-20)
(1.0341 -0.022096 5.49094e-21)
(0.935058 -0.075642 -7.63353e-21)
(1.02162 -0.00773609 -1.89775e-21)
(0.971589 -0.090367 -1.028e-20)
(1.1678 -0.491994 5.15313e-21)
(1.01312 -0.00153624 1.07271e-22)
(-0.0507536 -0.0210868 0)
(1.04644 -0.0557911 -2.47456e-21)
(1.00891 -0.102268 0)
(1.02134 -0.00582005 1.13209e-21)
(1.21026 -0.151827 0)
(0.418494 0.0971861 0)
(1.0157 -0.00188718 -3.25406e-22)
(1.05159 -0.0411967 -9.17432e-21)
(0.0842375 0.0736508 -5.30714e-20)
(1.18253 -0.234621 -2.74744e-20)
(1.00018 -0.000182444 0)
(0.513502 -0.321334 -1.17402e-19)
(0.992464 -0.0217651 -1.3007e-20)
(1.06062 0.0572776 0)
(1.09538 -0.262198 -6.31384e-22)
(-0.190413 -0.0136045 1.1491e-19)
(1.18338 0.0281782 1.36472e-20)
(0.967828 -0.0434316 -7.32254e-21)
(1.01551 -0.00196099 1.7323e-22)
(0.993864 -0.00464348 0)
(1.10581 0.0138597 2.90187e-20)
(1.00038 -0.000143957 0)
(1.03141 -0.021572 -2.1355e-21)
(0.401394 0.0946384 0)
(0.298668 0.0841177 0)
(0.970177 -0.0246604 0)
(1.02167 -0.00620324 -2.31148e-21)
(-0.0146471 -0.0844132 0)
(1.01678 -0.00888744 3.42566e-22)
(0.994083 -0.0225692 -1.62947e-22)
(1.14809 0.104649 5.45046e-20)
(0.209334 0.0914626 -9.77674e-21)
(0.892558 -0.317298 0)
(-0.0702953 -0.0269477 1.25481e-19)
(0.0373231 -0.0226528 -1.67785e-19)
(1.22872 -0.465638 0)
(1.06184 0.0593776 -1.41221e-20)
(0.10447 0.0399818 0)
(1.1426 0.106989 4.41784e-21)
(1.09195 -0.0297692 -4.00384e-21)
(0.542269 -0.194735 -1.65039e-19)
(1.18362 0.025062 0)
(-0.0527976 -0.0312246 8.45356e-20)
(0.994607 -0.0231806 0)
(0.0520919 0.0358009 7.63559e-20)
(0.992085 -0.0212881 1.06458e-20)
(0.126582 -0.0680256 4.68804e-20)
(0.932545 -0.0791265 -1.6091e-20)
(0.0372558 -0.0240652 0)
(0.0826423 -0.0548565 -4.56815e-20)
(1.13838 0.104884 -1.6411e-20)
(1.01723 -0.00918093 -4.04828e-22)
(1.00117 -0.0171728 5.07055e-21)
(0.0874895 0.0219778 7.00461e-23)
(1.03022 -0.128299 -4.82643e-21)
(-0.0218768 0.0318955 6.75149e-20)
(1.12814 0.0439141 0)
(1.10973 -0.13025 -2.37462e-20)
(0.207119 0.0141013 1.70655e-20)
(1.06332 -0.647598 0)
(1.0431 0.15206 0)
(0.245116 0.0995399 0)
(1.04094 -0.036999 -5.22291e-21)
(0.963942 -0.010197 0)
(0.15647 -0.0706942 0)
(0.461558 -0.63646 -5.63064e-20)
(1.01001 -0.00552571 -1.57876e-21)
(1.00745 -0.0359132 0)
(0.761342 0.0919639 7.27368e-21)
(-0.352489 -0.00108911 0)
(-0.318076 0.00353309 -1.06826e-19)
(1.04903 0.00814664 -1.80714e-21)
(0.035033 -0.0333487 -4.62678e-20)
(0.0112879 -0.0214321 1.2082e-20)
(1.11204 -0.056086 -4.26783e-20)
(0.987078 -0.00985934 3.53963e-21)
(0.516639 -0.0563112 0)
(0.63056 -0.623182 3.10981e-20)
(1.15686 -0.386366 3.59737e-20)
(1.16626 -0.47303 -1.85012e-20)
(1.29049 -0.0291522 5.46942e-20)
(1.24575 0.109385 1.88577e-20)
(0.0716137 -0.0518368 0)
(1.00306 -0.000131771 0)
(1.10292 0.0122183 1.81229e-20)
(0.801691 -0.639691 2.52643e-21)
(0.0398746 0.00816411 -2.12165e-20)
(0.922038 -0.213337 8.65417e-21)
(0.206151 -0.674848 1.08185e-20)
(0.966553 -0.0628352 0)
(1.1501 0.101739 -7.08346e-20)
(1.1102 0.0107723 1.75121e-20)
(1.00159 -0.0171575 0)
(0.776267 -0.253156 -4.11723e-20)
(0.878098 -0.312804 0)
(0.933221 -0.444019 0)
(1.00266 -0.0308732 3.84542e-21)
(1.04091 -0.202414 9.5398e-20)
(1.03491 -0.0218319 -1.66972e-21)
(1.03969 -0.00424509 0)
(-0.113837 0.0171623 0)
(0.358845 0.0404658 0)
(1.09096 0.0394591 -4.69718e-21)
(0.739378 0.133222 0)
(1.23784 -0.45201 -6.141e-20)
(1.09735 0.139606 4.62577e-20)
(1.0919 -0.0341635 -1.66465e-20)
(0.999964 -0.000504776 0)
(-0.0601983 -0.0198815 -2.38846e-20)
(1.0823 -0.0480888 1.35018e-20)
(0.0024627 -0.0330136 0)
(1.04566 -0.0575935 0)
(0.989329 -0.0362423 7.20659e-21)
(1 -0.000200229 0)
(1.01016 -0.0131123 2.44184e-21)
(1.06405 0.0614776 0)
(0.176937 -0.101015 0)
(0.990586 -0.0360513 0)
(1.09684 -0.257629 2.18324e-20)
(0.728497 -0.00302482 0)
(1.0388 -0.00826775 -3.58046e-21)
(0.446385 -0.0669014 0)
(1.19189 -0.257136 0)
(0.194145 0.0430028 -7.54121e-20)
(-0.219372 -0.00873729 0)
(1.00358 -0.00750543 0)
(0.189034 -0.0924012 0)
(0.144406 0.0839936 -4.93145e-20)
(1.06558 0.0625771 1.63872e-20)
(1.18526 0.147918 0)
(0.668579 0.0273998 6.30992e-20)
(0.96676 -0.0450052 -9.46822e-21)
(0.791156 -0.250767 3.1037e-20)
(1.02959 -0.0325218 2.13024e-21)
(1.00845 -0.00511076 1.47719e-23)
(-0.280416 -0.0020318 0)
(1.09848 0.138253 -4.7667e-20)
(1.02642 -0.00576558 -6.42075e-21)
(1.06829 -0.00248094 -9.88598e-21)
(1.10177 0.135605 -3.62235e-20)
(0.996435 -0.0179649 -3.22748e-21)
(-0.336748 -0.00151859 0)
(1.02049 -0.00680042 8.96863e-22)
(0.994523 -0.0159564 0)
(0.927923 -0.217618 -1.60369e-20)
(1.2443 0.103489 0)
(1.00906 -0.048265 3.25839e-22)
(1.09137 0.0379074 4.45339e-21)
(0.96745 -0.148609 8.29477e-21)
(1.18853 0.0227629 -6.20725e-20)
(1.02238 -0.127045 3.36789e-21)
(1.20069 -0.257203 7.54065e-20)
(1.00048 -0.00184183 0)
(1.02134 -0.00731874 2.11389e-21)
(0.74571 -0.202754 -9.48238e-20)
(1.0436 -0.0575319 0)
(1.0646 -0.131401 0)
(1.17154 0.00115025 1.32937e-20)
(1.0018 -0.00048103 -1.11689e-21)
(0.96958 -0.144923 -1.15823e-20)
(1.13588 0.043693 0)
(0.999972 -0.000400281 0)
(0.0967832 0.0167063 0)
(1.00485 -0.102998 1.42463e-21)
(1.00406 -0.0073516 0)
(1.11362 -0.133342 -5.98399e-22)
(0.991634 -0.0385552 -1.29586e-20)
(1.07321 -0.121099 0)
(0.853238 -0.283274 2.16652e-20)
(0.0491458 -0.0251807 9.38622e-20)
(0.850401 -0.295386 0)
(0.527559 -0.426106 5.0779e-20)
(1.01546 -0.00506853 -8.06032e-22)
(0.175593 0.0283607 -7.06587e-20)
(1.00394 -0.00751269 3.21936e-21)
(1.04055 -0.0383421 6.02653e-21)
(1.12009 0.0964423 0)
(-0.0939047 0.0208545 3.11807e-20)
(1.24549 -0.183143 0)
(1.133 0.0426769 0)
(1.15339 -0.0608546 3.59655e-21)
(0.974466 -0.20769 8.67238e-22)
(1.02589 -0.00313903 4.70955e-21)
(1.17621 -0.00468483 -7.31988e-20)
(0.993544 -0.00484397 -7.16408e-21)
(1.18901 0.0193168 5.58515e-20)
(-0.0529462 -0.0208022 1.12139e-19)
(1.13468 0.108646 0)
(1.00162 -0.000235247 -1.07502e-21)
(0.996278 -0.0173653 -6.03062e-21)
(1.02567 -0.00340354 -2.04912e-21)
(1.01255 -0.00181866 0)
(0.595278 -0.0735055 3.25893e-20)
(1.09062 -0.099921 -1.37105e-20)
(1.00811 -0.0126923 3.83924e-21)
(1.25302 -0.278624 -8.31527e-20)
(1.02511 0.150084 0)
(1.05312 -0.0249653 0)
(0.794379 0.14383 0)
(0.0289274 -0.0401794 9.63776e-20)
(1.13126 0.106554 8.64385e-21)
(0.99929 -0.000726456 2.65713e-21)
(0.0362311 -0.0225205 -4.15419e-20)
(0.893294 -0.0736198 0)
(0.998966 -0.00125526 5.86922e-21)
(0.392185 -0.0557662 1.84485e-20)
(1.09314 -0.0283939 1.27672e-22)
(0.89297 -0.0793974 0)
(1.04582 0.00290994 -6.59119e-21)
(1.119 -0.0601554 3.68734e-20)
(1.14833 0.138769 0)
(0.489626 -0.417897 -6.56661e-20)
(1.06934 -0.119882 1.12058e-20)
(0.918902 -0.311318 -1.00029e-20)
(1.02973 0.00162499 1.00964e-22)
(1.13007 0.0306758 5.40795e-20)
(0.998972 -0.00741911 -7.22609e-21)
(1.16829 0.00218554 0)
(1.00301 -0.100058 0)
(1.11694 0.0956798 3.47034e-20)
(-0.312279 -0.00793803 1.70627e-20)
(1.01517 -0.00491569 3.82721e-23)
(1.04036 -0.0347017 2.41873e-21)
(1.01936 -0.46643 3.28138e-20)
(1.03934 -0.0337563 2.61692e-21)
(1.06726 -0.00307478 1.68008e-20)
(1.17202 -0.00368659 4.54989e-20)
(0.596297 -0.0255709 0)
(-0.335273 0.00198073 1.23559e-19)
(1.00088 -0.0297057 -6.81346e-21)
(1.20321 -0.138536 5.96786e-20)
(0.339523 0.0758069 0)
(1.20536 -0.463859 0)
(1.00657 -0.0527773 -1.72881e-21)
(1.02987 -0.00935767 1.57421e-21)
(1.07351 -0.0763175 0)
(1.09316 -0.0980139 3.81748e-20)
(1.00249 -0.030148 3.31485e-21)
(0.35567 0.130744 0)
(1.2444 -0.272105 -7.75796e-20)
(0.834357 0.0837887 1.58523e-20)
(0.00931376 0.00582092 2.32503e-20)
(-0.030884 -0.0235324 -9.17142e-20)
(1.02479 -0.00545574 1.80528e-21)
(1.01548 -0.000190783 4.38412e-23)
(0.97824 -0.224547 0)
(0.100623 -0.027662 -2.61695e-21)
(0.920002 -0.040643 3.33686e-22)
(0.904667 -0.307495 1.99737e-20)
(1.20229 -0.0161458 1.57518e-20)
(1.06794 -0.0822521 6.90597e-21)
(0.0098436 -0.0215298 1.48629e-19)
(1.03685 -0.00663031 0)
(1.04234 0.0687506 1.98226e-22)
(0.129101 0.0381227 0)
(1.01289 -0.00158176 3.86185e-23)
(0.459336 0.0748696 0)
(0.954798 -0.166209 1.04916e-20)
(1.03227 -0.0219967 2.18335e-21)
(1.06206 -0.112569 1.2312e-20)
(1.18822 -0.0613866 0)
(1.05086 -0.000332297 0)
(0.999036 -0.00113713 -5.37154e-21)
(-0.237304 -0.00953456 1.56589e-20)
(0.874944 0.0820801 -8.5253e-21)
(1.00114 -0.0129537 0)
(-0.243314 -0.005767 -1.5094e-19)
(0.0116353 -0.0219751 0)
(1.24066 -0.178798 0)
(0.99758 -0.00783637 -5.54246e-22)
(1.00194 -7.46471e-05 0)
(1.05363 0.0926742 0)
(1.05215 -0.0257379 0)
(1.02581 -0.00576873 4.43001e-21)
(1.03032 -0.0109851 2.23199e-21)
(0.945941 -0.0123265 1.02104e-20)
(1.18871 -0.265108 -5.32201e-20)
(1.19162 -0.0643931 0)
(1.07152 -0.0775512 0)
(1.08687 -0.0985823 6.7917e-21)
(1.01507 -0.126187 0)
(0.936766 -0.218827 1.77489e-20)
(1.02929 0.00123774 2.42827e-21)
(0.999989 -0.000375754 -8.41021e-21)
(1.23838 0.113897 -1.79863e-20)
(1.06037 -0.20629 1.88299e-20)
(1.20935 -0.139085 0)
(0.333977 0.148417 -1.16606e-20)
(0.916673 -0.0427233 0)
(1.00977 -0.0468607 2.21065e-21)
(1.00506 -0.000151802 -3.09904e-21)
(1.0405 0.0676238 1.00795e-20)
(0.499771 0.0803081 1.72015e-20)
(1.02611 -0.00392305 0)
(1.00448 -0.00733932 1.40309e-21)
(1.02585 -0.00421044 -1.10255e-21)
(0.966144 -0.0606991 0)
(0.972026 -0.200205 0)
(1.31063 -0.163866 0)
(0.987661 -0.00968513 -2.67474e-21)
(0.968081 -0.0100658 -2.16124e-20)
(1.02229 -0.00515388 1.30825e-21)
(0.594877 -0.527072 -3.58855e-20)
(0.934811 -0.432837 0)
(1.23745 -0.0161691 -2.47219e-20)
(1.11633 -0.305607 0)
(1.05303 -0.00829294 -8.06663e-21)
(1.25073 0.093768 -5.69755e-20)
(1.06491 -0.301763 0)
(1.10295 -0.0808554 2.22723e-22)
(0.886188 -0.0880762 0)
(0.113735 -0.0420635 0)
(-0.025703 0.0207961 -2.47788e-20)
(1.10454 0.140144 5.69221e-20)
(1.00169 -0.00229009 -1.08067e-21)
(1.02484 -0.135356 6.76052e-22)
(1.20105 -0.0814264 -1.13846e-19)
(0.533662 -0.0177399 1.87667e-20)
(1.01633 -0.0831356 3.12501e-23)
(1.02464 -0.00588999 -1.79135e-21)
(1.15138 -0.0321662 3.67256e-20)
(1.03748 -0.0118937 6.63542e-21)
(1.09204 -0.0191875 2.11616e-20)
(1.07946 -0.00969271 5.6508e-20)
(0.199633 0.174283 1.23596e-20)
(1.08295 0.0571278 0)
(1.01194 -0.123124 0)
(-0.297792 -0.00838552 0)
(0.987586 -0.022636 0)
(1.04284 -0.0592067 2.10389e-21)
(1.00152 -0.0230069 1.5588e-21)
(1.03933 -0.0279836 -4.0564e-21)
(1.10227 0.0609585 3.31806e-20)
(1.05757 -0.0434071 7.02903e-21)
(-0.229609 -0.00924477 1.42503e-19)
(0.892557 -0.452633 0)
(1.04516 0.00253463 3.40474e-21)
(1.00098 -0.0125893 -3.69418e-21)
(-0.311048 0.00394735 0)
(1.08478 0.0567517 0)
(1.2097 0.0778295 -3.10045e-20)
(0.987329 -0.0219554 0)
(1.09309 0.0313846 -4.71232e-21)
(1.02915 -0.00940862 2.21685e-21)
(0.935413 -0.0682119 -1.66278e-20)
(0.98698 -0.0102727 0)
(1.01483 -0.00504131 2.23837e-22)
(-0.2808 0.00873686 7.85301e-20)
(0.108525 0.0181422 0)
(1.01016 -0.736913 0)
(0.38705 -0.140391 -6.73138e-22)
(1.00524 -0.000435798 -7.64051e-22)
(1.16588 0.0950041 1.08427e-20)
(0.186607 0.0445409 4.90711e-20)
(1.12086 -0.0621767 0)
(1.01026 -0.00579699 1.4272e-21)
(0.337359 0.144606 9.74988e-21)
(1.02844 -0.0135457 -3.26207e-21)
(1.04077 -0.00241957 -7.81896e-21)
(1.00866 -0.00542672 -1.24028e-21)
(1.10188 0.0629904 0)
(0.989914 -0.0115741 1.53656e-20)
(0.968114 -0.089073 9.6302e-21)
(1.11329 -0.296055 2.7474e-20)
(0.523638 -0.0516567 0)
(1.02991 -0.0105908 -2.83301e-21)
(0.176298 0.0917709 0)
(1.12403 -0.00609153 0)
(0.997805 -0.00762833 0)
(1.0731 -0.0111553 1.62093e-20)
(0.990779 -0.0226791 -2.47226e-21)
(1.00437 -0.00753066 1.54753e-21)
(1.06595 -0.080013 6.6781e-21)
(1.1313 0.0233721 7.31003e-22)
(0.943424 -0.215128 2.35855e-20)
(0.117123 0.0426179 -1.15885e-19)
(1.11514 -0.0562395 -2.19035e-20)
(0.996078 -0.00425381 -5.93882e-21)
(1.00104 -0.458248 0)
(0.776415 0.126361 -4.2949e-20)
(0.605395 0.108359 -1.3494e-20)
(-0.233836 -0.0078386 9.47133e-20)
(1.09557 0.058656 0)
(1.00406 -0.0512253 3.30405e-22)
(1.01456 -0.00487131 -6.01559e-23)
(1.00796 -0.0123074 -4.66465e-21)
(0.990692 -0.039408 1.58112e-21)
(1.08144 0.05553 -2.39487e-20)
(1.11 0.00251457 0)
(1.08568 0.00891016 0)
(0.955308 -0.159757 -2.06445e-20)
(1.09319 -0.0326134 2.77159e-20)
(1.07617 0.121941 -1.70265e-20)
(1.13074 0.0449333 1.04889e-20)
(0.990763 -0.0217964 -9.28521e-21)
(1.08451 -0.0964756 -5.14097e-21)
(-0.056114 -0.0345607 8.18417e-21)
(0.986136 -0.0540435 0)
(0.198625 0.171246 0)
(1.00315 -9.78512e-05 2.98597e-21)
(0.996679 0.000396006 -7.27126e-21)
(0.383788 0.105156 -1.88608e-20)
(0.944411 -0.0972637 0)
(1.04147 -0.0308121 -5.50409e-21)
(1.14235 0.136576 4.25051e-20)
(1.10422 0.0709472 0)
(0.982616 -0.219825 -1.78237e-21)
(0.0643314 -0.057184 1.07154e-19)
(0.993385 -0.022647 -6.6034e-21)
(0.984647 -0.0492854 -5.32134e-21)
(0.534627 -0.473395 4.98851e-20)
(0.106553 -0.0391203 -2.45344e-20)
(0.863449 -0.117697 2.69114e-20)
(1.14436 -0.16449 8.05316e-20)
(1.0601 0.0522721 -1.04609e-20)
(1.07686 0.118067 -1.63628e-20)
(-0.376647 0.00255717 1.43359e-19)
(1.06234 0.0553558 -2.02969e-20)
(0.969653 -0.0232279 1.17972e-20)
(1.22634 -0.0733203 0)
(1.00644 -0.0361843 -2.77197e-21)
(1.08002 0.0558845 3.76414e-20)
(1.03668 -0.0520326 -2.67131e-21)
(0.120555 -0.0610505 -1.01142e-19)
(1.09193 0.0308716 0)
(1.28145 -0.0898852 -5.27266e-20)
(1.0856 0.00808236 1.66468e-23)
(1.09029 0.043892 0)
(1.0128 -0.00180966 -2.58309e-23)
(1.1967 0.147965 7.40643e-20)
(1.02138 -0.00655569 -1.41973e-22)
(-0.0355898 0.0149642 -8.03935e-21)
(1.0012 -0.0235773 0)
(1.12045 -0.387063 -7.04429e-20)
(0.99897 -0.00594598 0)
(1.04122 0.081196 1.3229e-20)
(1.09399 -0.0185009 -2.19728e-20)
(0.999626 -0.00474094 0)
(1.00088 -0.0166137 6.64414e-21)
(1.009 -0.00544647 1.23295e-21)
(0.911355 0.127629 1.70931e-20)
(-0.162221 0.014882 0)
(0.78662 0.0890328 -6.4909e-20)
(1.10285 0.0158848 0)
(1.06515 -0.00271412 -2.25311e-20)
(1.19076 -0.0561671 5.81515e-20)
(1.00001 -0.00041348 -2.95791e-21)
(1.00001 -0.000140638 0)
(0.408535 0.0995377 -2.28146e-20)
(1.00048 -0.0167094 -7.32242e-21)
(0.995935 -0.00117846 -5.16522e-21)
(1.20606 -0.0191262 0)
(1.00179 -0.00225396 2.8939e-22)
(1.13867 -0.165392 -3.95533e-20)
(1.188 -0.0527407 -5.11962e-20)
(0.995744 -0.00104898 3.11028e-21)
(0.990089 -0.0122124 -1.17685e-20)
(0.931397 -0.0875814 2.13516e-20)
(0.986071 -0.0522041 4.18052e-21)
(1.08461 -0.0489413 -1.75738e-20)
(0.807873 0.142715 0)
(1.07227 0.0216415 -1.16038e-20)
(0.871154 -0.11793 2.25562e-20)
(1.04159 -0.0869315 0)
(0.99626 -0.00399466 -9.02209e-21)
(0.387045 -0.715507 -2.86682e-21)
(0.964683 -0.0149071 1.98552e-20)
(1.0386 -0.0396004 0)
(0.833466 -0.738886 0)
(-0.353347 -0.00290209 -2.81833e-20)
(1.09041 0.0424084 0)
(1.05158 0.099712 0)
(1.01533 -0.0851723 0)
(1.03894 -0.0385755 2.84788e-21)
(-0.329955 -0.00189367 0)
(1.03816 -0.0077194 -3.92129e-22)
(-0.303822 0.00798176 -1.68776e-20)
(1.1085 -0.380456 4.44905e-20)
(0.999349 -0.00496284 0)
(0.768994 0.144394 1.50875e-20)
(1.25267 0.0996684 8.4102e-20)
(1.15255 -0.028656 0)
(1.00815 -0.00046155 0)
(1.05993 -0.199722 -9.39687e-21)
(0.470873 0.0909134 0)
(1.03406 -0.0233411 -3.20671e-21)
(1.0289 -0.0202462 0)
(1.05025 0.00722837 3.87324e-21)
(1.05062 -0.00106041 0)
(1.04022 -0.00457014 0)
(1.01172 -0.000874275 0)
(1.00001 -6.69151e-05 0)
(0.639161 -0.062116 0)
(1.06969 -0.0362879 0)
(0.722243 -0.00120842 -3.89781e-20)
(0.986994 -0.00793016 5.53708e-21)
(1.2342 -0.081296 -4.89137e-20)
(1.14586 -0.0170308 -2.88264e-20)
(0.998906 -0.00713966 7.93897e-21)
(1.02076 -0.00724799 -9.71579e-22)
(1.06741 -0.0402453 1.84645e-20)
(1.00067 -0.00210397 0)
(1.00732 -0.0542395 -4.27741e-21)
(0.949925 -0.0356324 -1.42446e-20)
(1.02844 -0.0327692 3.61636e-21)
(1.17453 0.0322897 -3.39262e-21)
(0.628778 -0.540192 3.53872e-20)
(1.01738 -0.00240976 0)
(0.455864 0.0935143 -4.75327e-21)
(0.0257975 0.0633674 2.68246e-20)
(0.86074 -0.102339 2.41244e-20)
(1.22592 -0.0692856 0)
(0.957834 -0.73704 0)
(0.932824 -0.0709064 0)
(1.0714 0.0210309 1.05133e-20)
(1.08617 -0.0315023 8.09252e-21)
(0.307099 0.0889557 3.36441e-20)
(1.06803 -0.0368103 0)
(1.09294 0.0242856 -8.16218e-21)
(1.00402 -0.0334417 -5.75811e-21)
(0.204071 0.200807 0)
(1.11991 -0.0247073 3.65572e-20)
(0.95769 -0.418536 0)
(1.15128 0.0675406 -2.89121e-20)
(-0.196968 -0.0108871 0)
(1.06675 -0.0391267 -8.74463e-21)
(0.998166 -0.0257714 0)
(1.1536 -0.0531354 1.55901e-20)
(1.31607 -0.178033 -8.71256e-20)
(1.00479 -0.0528483 4.10911e-21)
(1.15078 -0.375247 0)
(0.976359 -0.0281797 1.48831e-20)
(0.959413 0.148912 -2.54077e-20)
(1.01007 -0.0557645 0)
(1.02829 -0.0154331 0)
(1.00921 -0.00574475 1.5286e-22)
(1.00171 -0.00170009 5.51853e-22)
(0.0580622 0.070744 2.66454e-20)
(0.935551 0.146515 3.05674e-21)
(0.985996 -0.0215971 0)
(1.0581 0.0753097 -8.13066e-23)
(0.948534 -0.120153 0)
(0.56241 0.11188 -2.1876e-20)
(-0.142027 0.0196022 1.86218e-20)
(1.05411 0.0902538 1.33273e-20)
(1.32139 -0.00922064 1.09563e-19)
(1.03611 0.00185629 8.28644e-22)
(0.184746 0.0868119 0)
(1.09022 0.037086 -8.48964e-21)
(1.0134 -0.0330998 0)
(1.10797 0.0140089 -4.71159e-20)
(0.382682 0.0940448 2.23546e-20)
(0.380284 0.107208 0)
(1.05045 -0.0152701 -7.36042e-21)
(0.954903 -0.00657958 2.15909e-20)
(1.01019 -0.034509 0)
(1.01511 -0.00039722 -5.62221e-22)
(0.337039 0.026359 9.03618e-21)
(1.1691 0.0368242 0)
(0.110238 0.0788201 5.86663e-20)
(0.163971 0.0369972 4.0961e-20)
(0.980801 -0.0187101 0)
(1.00056 -0.00197376 3.48869e-21)
(1.14056 -0.00592133 0)
(1.00002 -0.000379388 1.09891e-20)
(1.00999 -0.0127003 -3.78693e-21)
(0.950405 -0.0340084 1.1674e-20)
(1.04964 0.00467353 -9.8452e-22)
(1.17911 0.0325867 1.40806e-20)
(1.11749 -0.0238079 -3.54685e-20)
(1.19982 -0.241706 0)
(0.267523 0.100874 1.78134e-20)
(1.14638 -0.156904 2.04056e-20)
(0.998974 -0.00562801 3.20494e-21)
(0.945884 -0.0937352 9.64821e-21)
(1.19276 -0.161348 -7.81341e-20)
(0.359966 0.10155 2.62865e-20)
(1.09198 0.0231467 1.33245e-20)
(1.2479 -0.370572 1.19938e-19)
(1.14362 -0.0571957 5.10041e-20)
(0.98522 -0.0220497 2.1092e-22)
(1.06044 0.0758312 0)
(0.830059 0.0919669 0)
(1.0099 -0.0496227 1.33195e-21)
(1.0265 -0.00478575 -2.34796e-21)
(0.644093 -0.275947 3.21526e-20)
(0.0269078 0.0373026 -1.02002e-21)
(1.20418 -0.251174 -5.39052e-20)
(1.00181 -0.00166687 6.39993e-22)
(-0.0469299 0.0164921 -2.64436e-20)
(0.0336162 0.00527792 2.07676e-20)
(1.31556 -0.183147 9.37987e-20)
(1.02156 -0.00547477 -1.14816e-21)
(-0.146499 -0.0180542 0)
(-0.234672 -0.00731503 0)
(0.487857 -0.188189 8.78492e-20)
(1.05801 -0.041762 0)
(0.999367 0.000835323 -3.22565e-21)
(0.760548 0.0674521 0)
(1 -5.23989e-05 -4.41359e-21)
(1.08855 0.0828753 -5.83946e-20)
(-0.276727 0.0119439 7.50372e-20)
(1.25197 -0.010644 -1.13205e-19)
(-0.184189 -0.013091 0)
(1.12097 0.0467122 5.17576e-20)
(0.0836268 0.0327821 9.44272e-21)
(1.13439 0.023451 -3.49777e-20)
(0.988416 -0.032405 7.04672e-21)
(0.955918 -0.00557553 -2.10913e-20)
(-0.286759 -0.00596916 -6.3906e-20)
(0.441594 0.12606 0)
(-0.250197 -0.00690305 8.68226e-21)
(0.234286 0.16865 0)
(1.03836 -0.00696828 7.07851e-21)
(1.09105 0.0834853 2.53852e-20)
(1.00001 -0.000330963 0)
(1.15611 -0.0639697 -1.77482e-20)
(1.10782 0.0499118 1.67863e-20)
(1.2042 -0.154231 -5.22753e-20)
(0.999446 -0.0047698 0)
(0.965402 -0.0791412 0)
(1.16268 0.0908361 3.04315e-20)
(0.421583 0.0882899 0)
(-0.269295 -0.00687563 0)
(-0.270429 -0.00420036 0)
(1.1059 -0.0823592 -3.5553e-20)
(1.03413 -0.128036 0)
(1.12735 0.109621 0)
(0.966727 -0.0106767 -1.18972e-20)
(1.02808 -0.00884025 3.21501e-21)
(0.996199 -0.0120697 -8.80102e-21)
(1.06336 0.00994148 7.84146e-21)
(1.09214 0.0417464 2.73352e-21)
(0.99561 -0.00448116 -1.02873e-20)
(1.10773 0.0473983 -1.50614e-20)
(1.0068 -0.0119711 0)
(1.00272 -0.000197966 0)
(1.00491 -0.00729233 2.67659e-21)
(0.179809 0.0901009 9.39236e-20)
(0.963737 -0.0119524 0)
(1.00001 -0.000298096 0)
(1.13764 -0.00785923 0)
(1.14094 -0.0295167 -3.03905e-20)
(1.01756 -0.00258169 -8.06061e-22)
(-0.296226 0.00672246 -9.63937e-20)
(1.03799 -0.011468 2.05633e-21)
(1.03094 0.000918781 2.04647e-21)
(1.14725 -0.0777262 9.19251e-21)
(0.881199 -0.128195 0)
(1.06614 -0.00220205 -5.20651e-21)
(1.02434 -0.0544155 -1.65377e-21)
(1.27397 -0.370669 -1.19638e-19)
(0.858982 -0.10783 -2.58147e-20)
(1.05984 -0.122318 7.6718e-21)
(0.858973 0.0915572 -3.68719e-21)
(1.06337 -0.121206 0)
(0.36797 0.138821 7.62825e-21)
(0.906679 -0.0164734 -5.17852e-20)
(1.17293 0.0370701 3.60515e-21)
(0.501904 -0.238471 5.3917e-20)
(0.317262 0.0166262 -1.02204e-20)
(1.026 -0.00465916 2.08444e-21)
(0.327502 0.0871778 0)
(1.22387 0.130667 -7.86533e-21)
(1.01216 -0.00414259 -2.99687e-22)
(-0.0377188 0.0327993 -6.70083e-20)
(0.997762 -0.00482882 1.21002e-20)
(1.00535 -0.00723684 -2.69358e-21)
(1.11572 -0.0337743 0)
(1.00352 -0.00699258 0)
(1.12777 -0.24846 1.58664e-21)
(0.338045 0.0973381 -2.89628e-20)
(1.0208 -0.00646909 1.9931e-21)
(0.204652 -0.120287 -1.20107e-19)
(1.03547 0.00174361 -7.89844e-22)
(1.11102 -0.0531014 2.28252e-20)
(0.442022 0.123306 0)
(1.01737 -0.00201202 0)
(0.0116148 0.0458668 -2.0139e-20)
(1.01091 -0.0683124 3.30645e-21)
(1.0373 -0.0150557 -1.77261e-21)
(0.996763 -0.0163241 5.59384e-21)
(0.995901 -0.0123116 5.49468e-21)
(1.25075 0.0109366 3.21577e-20)
(0.731497 -0.194249 2.6508e-20)
(-0.359558 0.000609454 1.10918e-19)
(1.15172 -0.156199 -4.49201e-20)
(0.0915606 0.027526 1.27888e-19)
(1.14325 -0.0111901 -1.43021e-20)
(0.995806 -0.00424094 5.7818e-21)
(1.15784 0.0984116 -5.68716e-20)
(-0.257035 -0.00737156 -4.13107e-20)
(1.29728 -0.00262822 -1.16901e-19)
(0.745845 -0.21792 3.74078e-20)
(1.23507 -0.0111502 5.1251e-20)
(1.088 0.0366755 0)
(1.06594 -0.0637052 0)
(1.25419 0.0038414 0)
(1.02188 -0.0522455 -4.35679e-22)
(1.23972 -0.443631 5.54727e-20)
(1.00191 -0.00105709 8.64467e-22)
(-0.135686 -0.0240764 7.28537e-20)
(1.05198 -0.0138462 0)
(0.762743 -0.226318 0)
(0.926875 -0.086477 3.00073e-21)
(1.03919 -0.0305122 -2.64092e-21)
(0.916638 -0.010559 -5.59256e-20)
(0.95471 -0.00353296 0)
(1.00934 -0.0121519 -1.31897e-21)
(1.31503 -0.101439 0)
(1.00887 -0.0687575 -3.47354e-21)
(1.00479 -0.00750173 -1.47856e-21)
(1.11179 0.00388017 -1.92093e-20)
(1.18858 -0.073257 2.55811e-20)
(1.25373 0.01443 -1.07952e-19)
(1.31862 -0.173333 0)
(1.04095 0.107119 0)
(-0.253878 0.00813259 1.35501e-20)
(1.00061 -0.00199129 0)
(0.99947 0.000752447 3.86847e-21)
(-0.0414895 0.0203959 8.01708e-20)
(0.995017 -0.00800165 6.11816e-21)
(1.24264 -0.29785 1.62021e-20)
(1.12138 0.0496562 -1.86027e-20)
(1.05467 -0.0420647 1.64909e-21)
(0.995859 -0.000680214 -2.77951e-21)
(1.0581 -0.112742 -7.12323e-21)
(0.990468 -0.000349601 0)
(1.03634 -0.0148733 -1.65086e-21)
(1.08445 -0.00747399 1.80578e-20)
(1.24021 -0.289742 -1.08052e-20)
(1.20395 -0.23779 -5.89991e-20)
(0.64415 -0.293536 0)
(1.11765 -0.176098 0)
(1.0004 -0.00282941 2.61851e-22)
(1.10803 0.0298561 0)
(0.699883 0.0342624 -1.34697e-19)
(1.00636 -0.0113902 2.20047e-21)
(1.10587 0.0508729 1.61212e-20)
(1.06085 -0.029396 -2.26026e-20)
(0.340872 0.095227 0)
(0.953491 -0.038289 0)
(0.00213865 -0.0226583 -4.78942e-20)
(1.002 -0.000944151 -1.15087e-21)
(1.24207 0.121468 4.27622e-20)
(1.00001 -0.000225423 0)
(1.1352 0.0367803 0)
(1.01285 -0.033736 0)
(1.0624 0.00939047 -7.12611e-21)
(1.07095 0.0192395 0)
(1.01755 -0.00218385 6.01084e-22)
(1.03038 0.00100194 -6.3254e-21)
(1.01679 -0.00357828 1.60869e-21)
(0.880005 0.128423 1.57101e-20)
(-0.207333 -0.00170633 0)
(1.09079 0.00162353 0)
(0.0608875 0.0498786 -5.97437e-20)
(0.984314 -0.0214423 1.65847e-21)
(1.10787 0.00343496 0)
(1.08212 -0.045855 -6.42982e-21)
(1.1972 0.092748 -2.92467e-20)
(-0.0555799 -0.0282169 -3.42242e-20)
(1.09063 0.00301776 0)
(1.01973 -0.00253805 -1.97054e-21)
(0.975393 -0.422658 1.40165e-20)
(1.00672 -0.0116172 0)
(0.984008 -0.0207367 -1.64857e-21)
(1.08328 -0.0415173 -1.54589e-20)
(-0.340854 0.00377681 0)
(0.564595 -0.0439591 0)
(1.32139 0.0149051 9.72584e-20)
(1.05479 0.0948162 0)
(0.717885 -0.195178 0)
(0.947941 -0.0137359 1.25438e-20)
(1.00481 -0.0255546 2.3063e-21)
(1.25691 -0.434394 0)
(1.00522 -0.00744082 0)
(1.32204 -0.0555235 -2.57138e-20)
(1.08314 -0.0293508 0)
(0.999196 0.000601022 -6.68741e-21)
(0.43818 0.120195 -6.70586e-20)
(0.292633 0.0319018 -5.49467e-20)
(0.996965 0.000501949 8.32788e-21)
(-0.344664 -0.00150283 -1.36759e-19)
(1.04194 -0.08938 6.50295e-21)
(1.07008 0.0380412 -3.67902e-21)
(0.921843 -0.326698 0)
(1.05246 0.0975271 0)
(0.258434 0.0331714 1.43029e-19)
(1.23483 -0.342889 4.32185e-20)
(1.00259 -0.000721936 1.50371e-23)
(1.01536 -5.96736e-05 -4.01896e-22)
(0.287938 0.101329 -1.75939e-20)
(1.00049 -0.0304385 6.61404e-21)
(1.0306 -0.0221903 3.98222e-21)
(1.08526 -0.0295038 -8.1265e-21)
(0.998957 -0.0309974 0)
(0.901828 0.110495 0)
(1.06504 0.0765477 -9.50676e-21)
(1.14358 -0.00739472 7.55404e-21)
(-0.0319755 0.00637885 1.07251e-20)
(1.12667 -0.00745744 0)
(1.10151 0.0673846 3.3259e-20)
(1.06018 -0.0285942 1.0728e-20)
(1.00269 -0.00435478 1.45623e-21)
(1.01538 -0.00151222 -5.65346e-22)
(1.00953 -0.00692198 -6.25417e-22)
(-0.341027 0.00429593 1.02473e-21)
(0.342325 0.0259442 -1.21339e-20)
(1.05073 0.066476 -3.08524e-20)
(0.995654 -0.000527091 0)
(1.0195 -0.00231968 1.02565e-21)
(1.07171 0.0198155 -1.16713e-20)
(1.01507 -0.0229012 -4.67705e-22)
(1.11746 -0.0362437 -9.33086e-21)
(0.968037 -0.0845226 2.13736e-20)
(1.20237 -0.479831 2.46721e-20)
(0.449117 0.10643 -2.21718e-20)
(1.10978 0.0462861 -1.5639e-20)
(1.11808 0.110399 1.89921e-20)
(1.05106 0.068554 1.7786e-20)
(1.02971 -0.0207244 -4.90427e-22)
(1.25142 3.45058e-05 1.1588e-20)
(1.00518 -0.026066 -1.20655e-22)
(-0.0483959 -0.0277929 -1.1637e-19)
(1.22857 0.125326 2.98981e-20)
(0.00365507 -0.0276973 2.48314e-20)
(0.904077 0.0531277 -5.40688e-20)
(1.05046 0.00438538 0)
(1.08468 -0.00586965 -1.87784e-20)
(1.14247 -0.647014 1.3607e-20)
(-0.0359888 0.00319245 -8.76661e-20)
(0.0310815 -0.0308655 2.2963e-20)
(0.787107 -0.0965842 -2.46916e-20)
(1.19795 -0.164937 4.31376e-20)
(-0.292684 -0.000239787 1.58953e-19)
(1.00169 -0.00199094 0)
(1.12411 0.107798 8.56965e-21)
(0.573504 -0.618647 0)
(1.07792 0.0554053 -1.44373e-20)
(1.00179 -0.00194206 0)
(1.03234 -0.0231473 2.54369e-21)
(1.11709 -0.0209022 0)
(0.12919 0.0358333 4.72655e-20)
(0.339769 -0.649847 0)
(1.00779 -0.308799 1.94906e-20)
(0.988126 -0.00663015 0)
(1.0615 0.0077433 0)
(0.888177 -0.0529615 -4.79918e-20)
(0.183694 -0.203704 -1.00267e-19)
(1.03823 -0.0297512 2.66659e-21)
(1.22085 -0.312905 -7.85341e-20)
(1.00344 -0.0142952 -3.38403e-21)
(0.984369 -0.0509884 5.87104e-21)
(1.25042 -0.0823849 0)
(1.00628 -0.0110744 -5.75566e-22)
(0.998177 -0.00773895 -4.27234e-21)
(1.0377 -0.0530898 3.56725e-21)
(0.999113 -0.100577 4.24604e-21)
(1.003 -0.00435324 2.80231e-21)
(1.02237 -0.0514459 -7.33561e-22)
(1.02212 -0.00551775 -2.74358e-21)
(1.04858 0.104996 4.38624e-21)
(1.03673 0.050004 -1.51138e-20)
(0.366831 0.0487123 0)
(1.02539 -0.00534043 -3.90366e-21)
(0.867075 -0.200357 0)
(0.993028 -0.00190858 1.8486e-21)
(1.1555 0.102037 6.25573e-20)
(1.21561 0.070231 -2.35753e-20)
(1.02245 -0.156583 -4.13246e-21)
(1.00311 -0.0143599 0)
(1.05263 -0.00920188 1.73651e-20)
(1.14962 -0.397874 -3.02916e-20)
(1.14199 0.0638078 1.52513e-20)
(1.08817 -0.03142 1.88256e-20)
(-0.255578 0.0141574 -9.54084e-20)
(1.07708 0.0539192 1.09058e-20)
(0.991339 -0.0213458 7.06987e-21)
(0.981228 -0.0196751 8.46533e-21)
(0.404877 0.132802 -1.35773e-20)
(-0.0702437 -0.037147 -9.45394e-20)
(1.10047 -0.193591 -2.89502e-20)
(1.01665 -0.0049046 0)
(1.04971 0.081623 -1.9226e-20)
(1.00054 -0.00277146 -4.70511e-21)
(1.1079 -0.0528353 1.51525e-20)
(1.0203 -0.00896238 1.29792e-21)
(1.3023 -0.189614 0)
(-0.0452859 -0.0201101 -5.39873e-20)
(1.00651 -0.00765253 0)
(1.03993 -0.00352359 0)
(1.30602 -0.0429926 7.64503e-20)
(0.997777 -0.0265284 5.2885e-22)
(0.840151 0.153813 -4.02098e-20)
(-0.317884 -0.00331706 -5.9437e-20)
(1.10518 0.0309575 0)
(0.965427 -0.00957976 1.25606e-20)
(0.998942 -0.00010438 -9.90927e-21)
(1.02047 -0.00871262 1.83843e-21)
(1.00191 -0.000767371 4.47327e-21)
(-0.393312 -0.00171557 3.57711e-20)
(1.21274 -0.235851 -6.78837e-20)
(1.21162 -0.147367 4.39213e-20)
(1.03234 -0.0496745 0)
(-0.0142066 0.0408788 -1.74649e-20)
(1.00484 -0.000255774 1.53909e-21)
(0.994594 -0.0153637 -7.52428e-21)
(0.584074 0.0232307 2.21296e-19)
(1.02638 -0.013664 -1.49919e-22)
(0.260931 0.101461 3.97088e-20)
(1.01731 -0.00164419 -1.05888e-21)
(0.91889 -0.0897684 4.54007e-20)