/*--------------------------------*- C++ -*----------------------------------*\
| =========                 |                                                 |
| \\      /  F ield         | OpenFOAM: The Open Source CFD Toolbox           |
|  \\    /   O peration     | Version:  v2012                                 |
|   \\  /    A nd           | Website:  www.openfoam.com                      |
|    \\/     M anipulation  |                                                 |
\*---------------------------------------------------------------------------*/
FoamFile
{
    version     2.0;
    format      ascii;
    class       volScalarField;
    location    "350";
    object      k;
}
// * * * * * * * * * * * * * * * * * * * * * * * * * * * * * * * * * * * * * //

dimensions      [0 2 -2 0 0 0 0];


internalField   nonuniform List<scalar> 
18355
(
0.000325078
0.000137045
0.000238822
0.000140889
0.000215739
0.00305625
0.000146493
0.000217599
0.000151948
0.00436206
0.000159842
0.000200373
0.000202178
0.00636405
0.00014283
0.000135471
0.000140875
0.000155694
0.000219619
0.000151361
0.00029326
0.000149244
0.000136916
0.00366903
0.000136988
0.000149872
0.000146777
0.00014099
0.000152667
0.000161372
0.00818076
0.000184097
0.000137759
0.000134347
0.000145023
0.0001504
0.00015899
0.000150782
0.000162296
0.000148645
0.000151198
0.000161009
0.00013451
0.000136866
0.000136961
0.000237465
0.000141137
0.000141017
0.00803129
0.000144758
0.000142236
0.0004806
0.000145065
0.000204265
0.000143107
0.000151704
0.000144851
0.0128999
0.000150473
0.000354354
0.000134451
0.000188102
0.000204179
0.000145037
0.000192915
0.000140235
0.000154855
0.000159103
0.000134035
0.00307644
0.000142322
0.000143139
0.000176698
0.000157712
0.000328816
0.000134217
0.0120312
0.000134328
0.000142018
0.000329894
0.000154793
0.000417232
0.000134145
0.0001572
0.000178947
0.000149436
0.000153257
0.00017068
0.000140403
0.000171113
0.00785273
0.000267482
0.000450127
0.000144737
0.00440657
0.000147877
0.00014
0.000144978
0.000180178
0.000148892
0.00017717
0.000141678
0.000144406
0.000130552
0.000155379
0.000135582
0.000192686
0.00492269
0.000164627
0.000135108
0.000141723
0.000147135
0.000169569
0.000156717
0.000254067
0.00016257
0.00014141
0.000321081
0.000152875
0.000154377
0.0044782
0.00023999
0.00569951
0.000174607
0.000232246
0.000243448
0.000146762
0.000141225
0.000470088
0.000147723
0.000140071
0.000459217
0.000143436
0.00018336
0.000201509
0.000140436
0.000219804
0.00398187
0.00014235
0.000281603
0.000156708
0.000251932
0.000140897
0.00217369
0.000202774
0.000146543
0.000418457
0.000131417
0.000169362
0.00667804
0.000140916
0.000154207
0.000144924
0.000179484
0.000134627
0.000138262
0.000141396
0.000149332
0.000140975
0.000139289
0.000156731
0.000143546
0.000135162
0.000200666
0.000158839
0.00241415
0.00056954
0.000730079
0.000752252
0.000156724
0.000146248
0.000181708
0.000148348
0.00684253
0.000145387
0.000150577
0.000146396
0.000130243
0.000151355
0.000163459
0.000149702
0.00203913
0.000148593
0.000141247
0.00061899
0.000144328
0.00015017
0.000170926
0.000143288
0.000147417
0.000239659
0.00018011
0.000137296
0.000134826
0.000143794
0.000260677
0.000139401
0.00967655
0.000137139
0.00458271
0.000144061
0.000152378
0.000162772
0.000149453
0.00149149
0.000146897
0.000537671
0.000141215
0.000137243
0.000144441
0.000146887
0.000264247
0.000152219
0.000148373
0.000131593
0.005903
0.000163593
0.000156251
0.000147121
0.000141273
0.00016379
0.000134012
0.000168851
0.000174248
0.000206329
0.000161646
0.000134207
0.00460779
0.000244736
0.000171475
0.000145041
0.000155405
0.00462743
0.000134172
0.000211464
0.000117159
0.000149124
0.000240032
0.000155232
0.000148545
0.000137367
0.000151112
0.000146375
0.00016952
0.000146912
0.000143105
0.000140938
0.000279782
0.00145312
0.000143004
0.000147322
0.00169105
0.000210306
0.000177663
0.000130272
0.000244645
0.000155257
0.000147416
0.000160849
0.000139598
0.00658732
0.000600806
0.000178135
0.000160809
0.00016386
0.000221421
0.000210286
0.000182304
0.00013955
0.000143148
0.000148505
0.000135191
0.00015226
0.000156488
0.000140656
0.000146933
0.000167315
0.000140293
0.000190285
0.00125717
0.00016403
0.000147141
0.000163893
0.000135071
0.000170487
0.000146211
0.000165011
0.000148635
0.000163946
0.00439387
0.000137493
0.00017061
0.000152432
0.000161273
0.000212519
0.000145195
0.000134629
0.000188441
0.000146915
0.000236971
0.000158957
0.0118136
0.00017032
0.000178747
0.000153939
0.000170143
0.000144268
0.000153878
0.000160338
0.000170579
0.0021655
0.000175515
0.00014217
0.000158717
0.000198216
0.000164954
0.000142099
0.000140954
0.000140947
0.00017372
0.000259498
0.0544113
0.00219103
0.000166877
0.00015615
0.00134253
0.000131294
0.000146654
0.000156113
0.000144154
0.00017159
0.000144231
0.00354648
0.000135878
0.000953888
0.00014352
0.000148428
0.000154696
0.000205886
0.00228466
0.000169649
0.00161896
0.000149259
0.000140517
0.000144042
0.000159813
0.00481519
0.000140746
0.000145304
0.00238314
0.00014892
0.000140845
0.000210912
0.000157517
0.000140945
0.000144395
0.000166275
0.00015182
0.000166178
0.000135575
0.00014525
0.00014867
0.000301568
0.000384867
0.000135273
0.000140708
0.00020422
0.000141011
0.000147967
0.00237518
0.000402404
0.000171239
0.00014389
0.000149343
0.000202734
0.000149302
0.000237276
0.000154004
0.000136656
0.000205417
0.0002051
0.000148177
0.000144126
0.000155837
0.000146249
0.000156795
0.000143743
0.000210454
0.000146478
0.000153619
0.000142672
0.000141
0.000151701
0.000149994
0.000180284
0.0278528
0.00121292
0.000154566
0.000209892
0.000179334
0.000143734
0.000143863
0.000169182
0.000143301
0.000173858
0.000145714
0.000161558
0.00097675
0.00110018
0.00114549
0.000179771
0.000130685
0.0393435
0.000148893
0.00014059
0.000302716
0.000143087
0.000180429
0.00013735
0.000198466
0.000143055
0.000181224
0.00242947
0.000176579
0.000144026
0.000137548
0.000177256
0.000152878
0.000142765
0.00345714
0.000394263
0.000140531
0.000169757
0.000180268
0.000137468
0.000150002
0.000167682
0.0037896
0.00016839
0.000148922
0.000144544
0.000166421
0.000144535
0.00013618
0.000143669
0.000360184
0.0217015
0.000136453
0.000151456
0.000145137
0.000207774
0.000204326
0.000134784
0.000180761
0.000169056
0.000145197
0.000260776
0.000188029
0.000148803
0.000145966
0.000167622
0.000209587
0.0178269
0.00013624
0.0328726
0.00014285
0.00013645
0.00017218
0.000153238
0.000214182
0.000176478
0.000153961
0.000158806
0.000149267
0.000209518
0.000153368
0.000159562
0.000149184
0.000136017
0.000147928
0.000136216
0.000187434
0.0287367
0.000198157
0.000156649
0.00014703
0.000149185
0.000145783
0.000154092
0.00014604
0.000135586
0.000143686
0.000170528
0.000137477
0.000145893
0.0361839
0.0153514
0.00019926
0.000147539
0.000150987
0.000167838
0.000149066
0.00641239
0.000258081
0.000157758
0.000157524
0.000158016
0.000150586
0.00015435
0.0111487
0.000166638
0.000149369
0.00462082
0.000146924
0.00380039
0.0354283
0.000155843
0.000149667
0.0141734
0.000140719
0.000179836
0.000185254
0.00418948
0.000153386
0.000147779
0.000145084
0.00430671
0.0183695
0.00342016
0.00095943
0.000153021
0.000144946
0.000157176
0.00014316
0.000155972
0.000282011
0.00460183
0.0353886
0.0112011
0.000169879
0.00018112
0.000171592
0.0001412
0.00014217
0.000173401
0.00015489
0.000146416
0.000143107
0.00122001
0.000139902
0.0131453
0.000161247
0.000185064
0.000204824
0.000142225
0.000156725
0.00366748
0.000143647
0.0504655
0.000143476
0.00025219
0.000166769
0.000149206
0.000171219
0.000181941
0.000180679
0.000150296
0.000134031
0.000165292
0.000156154
0.000185076
0.000143467
0.000188505
0.000139844
0.000255094
0.000146271
0.000143561
0.000226468
0.000173074
0.000161134
0.000144312
0.000158347
0.00015669
0.00320913
0.0546764
0.000155216
0.000192044
0.000145309
0.000163562
0.000148387
0.000154914
0.0371456
0.00013678
0.00127489
0.00014681
0.000145794
0.000155548
0.00629
0.000152131
0.000196446
0.000149145
0.000165879
0.00459555
0.000131426
0.000140999
0.0252577
0.000170609
0.0395416
0.000177398
0.00014785
0.000143116
0.000142725
0.000157733
0.000149735
0.00013663
0.000219182
0.000492568
0.000143339
0.00211793
0.00291574
0.000157932
0.000237191
0.000136396
0.000191697
0.00307537
0.000132474
0.00554934
0.00016799
0.00028731
0.00318689
0.000143217
0.000142681
0.000148312
0.00123696
0.000173061
0.00014443
0.000148956
0.000216321
0.000148614
0.000168675
0.000143503
0.000166875
0.0586636
0.00368966
0.000244184
0.00297625
0.00017234
0.0105824
0.000157508
0.000140565
0.000161182
0.00299008
0.000178525
0.000171921
0.000144218
0.000242999
0.000145317
0.000148174
0.0598382
0.000149071
0.000162017
0.000204729
0.000192931
0.000144575
0.000142873
0.000155454
0.000159223
0.000134112
0.000146447
0.000173633
0.00020845
0.000153462
0.000145375
0.000173114
0.00359384
0.000143628
0.00231537
0.000257676
0.000145092
0.0358991
0.00013473
0.00024566
0.000143644
0.000138179
0.000225503
0.000153964
0.00493487
0.000153117
0.000142888
0.0376853
0.000143621
0.000134948
0.000145637
0.000140664
0.000162911
0.000169233
0.000673965
0.000151769
0.0468614
0.000154012
0.0019132
0.00145387
0.000150166
0.000143999
0.000158321
0.000136614
0.00019568
0.000142468
0.000134845
0.000135733
0.000144242
0.000143571
0.000253026
0.000157692
0.000171569
0.000151578
0.000158439
0.000155867
0.000167899
0.000531421
0.000137396
0.000187233
0.000175236
0.000134376
0.00372026
0.0579353
0.000141737
0.000841236
0.000145311
0.00418703
0.000165717
0.00013229
0.000165656
0.000160235
0.00138554
0.00014251
0.000154567
0.00335196
0.000204781
0.00026623
0.000143539
0.00356162
0.000185309
0.000216056
0.000143476
0.00015218
0.000142846
0.000146166
0.000141973
0.000144388
0.000136795
0.00112033
0.000169258
0.000141173
0.000134277
0.00014011
0.000148651
0.00020075
0.000184656
0.000137485
0.000159257
0.000146638
0.00014682
0.000145639
0.000140811
0.000230268
0.0001343
0.00014022
0.000149746
0.000147304
0.000151978
0.000146037
0.00024553
0.000265559
0.000155485
0.000140061
0.000208023
0.000134733
0.000134371
0.000145878
0.000263935
0.000156667
0.000144756
0.000136011
0.000137191
0.000158815
0.000133961
0.000160422
0.000142364
0.0001484
0.000141875
0.000151993
0.00320268
0.0001405
0.000148944
0.000143489
0.0002283
0.00446796
0.000158483
0.000149746
0.000178752
0.000162251
0.000228279
0.00484115
0.000149682
0.00304615
0.000149056
0.00723187
0.000149982
0.000136952
0.000135908
0.00363309
0.000135583
0.000158709
0.000189372
0.000215392
0.000179738
0.000153882
0.000142464
0.000143032
0.000143454
0.000159979
0.000191788
0.00359585
0.000170202
0.000145412
0.000133983
0.000155034
0.000141807
0.000140866
0.000148495
0.000171568
0.000163128
0.00214699
0.000145334
0.000144344
0.000174045
0.000143165
0.000209761
0.000170695
0.000173089
0.000204483
0.00033525
0.000165699
0.000141174
0.000134061
0.000147542
0.000142945
0.00245107
0.000172733
0.000194617
0.000136885
0.000147126
0.0001554
0.000141126
0.00296016
0.000264567
0.0001344
0.000135906
0.000143352
0.000141992
0.000140822
0.000144371
0.000234452
0.000134981
0.000149583
0.000136904
0.000137898
0.000142096
0.000145936
0.000159338
0.000137853
0.000173273
0.000135961
0.000962411
0.000234006
0.000154755
0.00304682
0.000154326
0.000148726
0.000181168
0.00249524
0.000144517
0.000140338
0.000137015
0.000176747
0.000151096
0.000165638
0.000579393
0.000146387
0.000149792
0.00014463
0.0100694
0.00156827
0.000151891
0.000139726
0.000155576
0.000169892
0.000142237
0.000180249
0.000140298
0.000133964
0.000155713
0.000265425
0.00104343
0.00391508
0.000236673
0.000134689
0.000241014
0.000205311
0.000157693
0.00014343
0.000205387
0.000157779
0.000253534
0.000273306
0.000141659
0.000134765
0.000144666
0.000149142
0.000134884
0.00276166
0.00329475
0.000134633
0.000146616
0.000149372
0.000166994
0.000143947
0.00014181
0.00022772
0.000148708
0.000142569
0.00262845
0.000188143
0.000186112
0.00014277
0.00013592
0.000134845
0.000145584
0.000167577
0.000181735
0.000140488
0.000139164
0.000153667
0.00341108
0.000137045
0.000143902
0.000180245
0.000140892
0.000139166
0.000143575
0.000451247
0.000135741
0.000144434
0.000137109
0.000153069
0.000135742
0.000158134
0.000207105
0.000143934
0.000221795
0.000161633
0.000225421
0.000175154
0.000140825
0.000159085
0.000140363
0.000139042
0.000140834
0.00377697
0.00498498
0.000206867
0.000159121
0.00462604
0.000182282
0.000150107
0.000190282
0.000218384
0.000153489
0.000135583
0.00174584
0.000150008
0.000140785
0.00013799
0.000270218
0.000447499
0.00212168
0.00013888
0.000190321
0.00338207
0.000170886
0.00016937
0.000156494
0.000155343
0.000164884
0.00299382
0.000152698
0.000150142
0.000158418
0.0317284
0.000250617
0.00014387
0.000146637
0.000143126
0.000421316
0.000153875
0.000148995
0.00372554
0.000158011
0.000176945
0.000156447
0.00669703
0.000138596
0.00839905
0.000149871
0.0001359
0.000141244
0.000135549
0.000135941
0.000140689
0.000148167
0.000260769
0.000138174
0.0108161
0.000158473
0.000147446
0.000141275
0.000187228
0.000143232
0.000146449
0.000156533
0.00895109
0.000210001
0.000153934
0.000146447
0.0179473
0.000138566
0.000171572
0.000146221
0.00139055
0.000170747
0.00438488
0.000159716
0.000142761
0.000247646
0.00688472
0.000268753
0.000137684
0.000143513
0.000167005
0.0372615
0.000130957
0.000172145
0.00014216
0.000160095
0.000140339
0.000134807
0.000149076
0.000150086
0.000135246
0.000177227
0.00017392
0.000160448
0.000203603
0.00146346
0.000150425
0.00260479
0.000136304
0.000195502
0.000279018
0.000215097
0.000134582
0.000148953
0.000146
0.0159078
0.000144264
0.000140574
0.00018912
0.00014641
0.00014622
0.000151071
0.000149671
0.000142939
0.0379004
0.00392479
0.000178603
0.000139132
0.000145232
0.000227098
0.000136279
0.000269201
0.000147007
0.000145788
0.000149166
0.000156716
0.000233256
0.000140169
0.000145063
0.0329184
0.000147066
0.000148506
0.000167154
0.000520598
0.0025801
0.000144347
0.000143393
0.0474715
0.00308992
0.000173429
0.000140289
0.000164613
0.000221276
0.000137761
0.000221834
0.000152753
0.00367977
0.000155189
0.000145989
0.000150341
0.000135539
0.0372602
0.000144938
0.000138934
0.00399323
0.000192791
0.00119999
0.000135191
0.000152187
0.000135569
0.000132021
0.000136189
0.000149341
0.000146585
0.000148887
0.000135587
0.000148401
0.000171485
0.000161509
0.000163557
0.000140385
0.000154978
0.000141909
0.00525101
0.000147233
0.000149753
0.000148184
0.000135929
0.000148669
0.000147909
0.000143778
0.000143248
0.000141129
0.000136226
0.00792442
0.000775478
0.000144378
0.0306571
0.00016552
0.000149688
0.000147708
0.000150292
0.00820827
0.000147316
0.000136265
0.000134584
0.000134594
0.00272643
0.000144381
0.000136942
0.000254168
0.000134102
0.000133297
0.000173817
0.000180679
0.000213389
0.000205916
0.0385977
0.000135657
0.0018869
0.000157455
0.00014306
0.000136841
0.000164696
0.00014314
0.000163651
0.000175998
0.000153393
0.000151404
0.0603575
0.000139377
0.025725
0.00724225
0.00258066
0.000223704
0.0001391
0.000244153
0.00043081
0.000135097
0.000856392
0.000138866
0.000150879
0.000205015
0.000140324
0.000301694
0.000158713
0.000152819
0.000148933
0.000255139
0.00014383
0.0109214
0.000142829
0.000136245
0.00868713
0.000133583
0.000148971
0.000148516
0.000174005
0.000142238
0.000144021
0.000153255
0.00204093
0.00014407
0.000144324
0.0001368
0.000154736
0.000142333
0.000150873
0.00132624
0.000141348
0.000157419
0.000148087
0.000156297
0.000166538
0.000140415
0.000148863
0.000192331
0.000146836
0.000147919
0.000160447
0.00695168
0.000150659
0.000141731
0.000143931
0.00015997
0.000214846
0.000151389
0.000140963
0.00014126
0.00013772
0.000131854
0.000135608
0.00015969
0.000202798
0.000174778
0.000146699
0.00945015
0.000139579
0.000144713
0.0290136
0.000172223
0.000134156
0.000181674
0.000146201
0.000140947
0.0034842
0.000148509
0.000171947
0.000132443
0.000209083
0.000139368
0.000134765
0.000135995
0.0011572
0.000225807
0.000146652
0.0002354
0.000135823
0.000142088
0.000139005
0.000206284
0.000145551
0.000138473
0.000149449
0.000152405
0.000142956
0.000145712
0.00014043
0.000147884
0.000146591
0.000140246
0.000154683
0.000135257
0.00176321
0.000179687
0.000136558
0.000246154
0.000157715
0.000140732
0.000139798
0.000151292
0.000140583
0.000160877
0.000155668
0.000196578
0.000196418
0.000147602
0.000184183
0.000209708
0.000142968
0.000147499
0.000187144
0.000152367
0.00686645
0.000135614
0.000143855
0.000152073
0.000147336
0.000142567
0.000157126
0.000140481
0.000161173
0.00014386
0.000153115
0.000139495
0.000199737
0.00014469
0.000154487
0.000210097
0.000142834
0.00384514
0.00381398
0.00015417
0.000159028
0.000162112
0.000134257
0.000192518
0.000145495
0.000165283
0.00338366
0.000521125
0.000232149
0.000163956
0.000161435
0.000142711
0.000164373
0.000139047
0.0104556
0.00020311
0.000147521
0.00014064
0.000241484
0.000175187
0.000142774
0.000143102
0.000271228
0.000147572
0.000138388
0.00570702
0.000176259
0.000134976
0.000235816
0.000136111
0.000258658
0.000177186
0.000142987
0.000144268
0.000157567
0.000306856
0.0001401
0.00015858
0.000144249
0.000143012
0.00013975
0.00486856
0.000148258
0.000145043
0.000143871
0.000223703
0.000158943
0.000140268
0.000132858
0.000194717
0.000142151
0.000136896
0.000249548
0.000884764
0.000148818
0.00024695
0.000157941
0.00017334
0.000150205
0.000177149
0.00440051
0.000146756
0.000141232
0.00013715
0.000155618
0.000142734
0.00505131
0.000911093
0.000137425
0.000150588
0.000136437
0.000135601
0.0587588
0.000142824
0.000151712
0.000152248
0.000238672
0.000144476
0.000147935
0.000155699
0.00454955
0.000146429
0.000145127
0.000137397
0.000138414
0.000155087
0.000172306
0.000146775
0.000142086
0.000144754
0.000143249
0.00013717
0.0372743
0.000147923
0.000143364
0.000141842
0.000178491
0.000136557
0.000136913
0.000166399
0.0001422
0.00018131
0.000144101
0.00014444
0.00269608
0.0286102
0.000386481
0.000236028
0.000159121
0.000148191
0.0614026
0.000139676
0.000155649
0.000135261
0.00654439
0.0001304
0.00015553
0.00014457
0.00253623
0.000177864
0.000236964
0.0582689
0.000151553
0.000194494
0.000148047
0.000149498
0.0527671
0.000165136
0.000142099
0.000136048
0.00015426
0.000162715
0.000143956
0.000144805
0.000139663
0.000134834
0.000228491
0.00606727
0.000148115
0.000157007
0.000682554
0.000967427
0.000152176
0.00014998
0.00015293
0.000154894
0.000142324
0.000150354
0.000296422
0.000140262
0.000136318
0.000146214
0.000318897
0.000154233
0.00015738
0.000146736
0.000147141
0.000160062
0.000143674
0.000159602
0.000174021
0.000232108
0.00015399
0.000656871
0.000134744
0.000142807
0.000148356
0.000135243
0.000146892
0.000140007
0.000251085
0.000140901
0.0009634
0.000144952
0.000139049
0.000137633
0.000183596
0.000151373
0.000171605
0.000181857
0.000136096
0.0572344
0.000157002
0.000138096
0.000133351
0.00421917
0.000182318
0.000133598
0.00014045
0.000141039
0.000150175
0.000216857
0.000243383
0.000149776
0.000149246
0.000205834
0.0580254
0.000149575
0.000142575
0.00022822
0.000154382
0.00116206
0.000153984
0.000142288
0.000178377
0.000174484
0.0295012
0.00018117
0.000816146
0.000136925
0.000142087
0.000149445
0.00014646
0.000154428
0.000147919
0.000146139
0.000139458
0.000147851
0.000146218
0.000148122
0.000145163
0.000152664
0.000149252
0.000143609
0.000141781
0.000174062
0.000161986
0.00014035
0.000145214
0.000226097
0.000144491
0.000147254
0.000148924
0.00168829
0.000136933
0.000167822
0.000151743
0.000136136
0.000143462
0.0438357
0.000219448
0.000149377
0.000148672
0.00015476
0.000169841
0.000140003
0.000161955
0.000181043
0.0001412
0.000191047
0.000140879
0.000143195
0.000142905
0.000148175
0.000160647
0.000133564
0.0436023
0.000176498
0.000136341
0.00014493
0.000143206
0.000204863
0.000149113
0.00157573
0.000139694
0.000143809
0.00014347
0.000183352
0.00014238
0.000146572
0.00014412
0.000205487
0.000137007
0.0389995
0.00013705
0.00016925
0.000144515
0.000161134
0.000140776
0.000153898
0.000642399
0.000222689
0.0001364
0.000179605
0.00014521
0.000146621
0.0393271
0.00113488
0.000136225
0.000142738
0.000153213
0.000135903
0.000143808
0.000148448
0.00014763
0.000160799
0.000175259
0.000150278
0.000158131
0.000222177
0.000147615
0.000140801
0.000142082
0.000153459
0.000161432
0.000144106
0.0349055
0.000140718
0.0614373
0.000167404
0.000136636
0.000140117
0.000139854
0.000100253
0.000146099
0.000154188
0.00014624
0.000140555
0.00184022
0.000151994
0.000171332
0.000147266
0.000145585
0.000151578
0.000143166
0.000151801
0.000143411
0.000151104
0.000149436
0.000148857
0.00595318
0.000170798
0.00486712
0.000140887
0.00017291
0.0001517
0.00380979
0.000178961
0.00431547
0.000151069
0.000134924
0.000169789
0.000142856
0.00468146
0.000149734
0.000188935
0.000151374
0.0460542
0.0329891
0.00015449
0.000171412
0.000139359
0.000137451
0.000148575
0.000134546
0.000148002
0.000153026
0.000139413
0.000163682
0.000204202
0.00301157
0.000140579
0.000244844
0.000134675
0.000142384
0.000143488
0.000191509
0.000147774
0.000242861
0.000148013
0.000143557
0.0495007
0.000140162
0.000153857
0.000142197
0.000156815
0.00451626
0.00016687
0.0275927
0.000145359
0.000178579
0.000152705
0.000141702
0.000143925
0.000207786
0.00016502
0.000143085
0.00015176
0.000143151
0.00685949
0.000139073
0.000323382
0.00013232
0.000179249
0.000158711
0.000223588
0.000181611
0.000134541
0.00810489
0.000142342
0.00886534
0.000148911
0.000152018
0.00422749
0.00458345
0.000160896
0.0145648
0.000143522
0.00248842
0.000131084
0.000368208
0.000135239
0.000152025
0.000189223
0.0001464
0.000139112
0.000149564
0.000144354
0.000173795
0.00340611
0.000167309
0.00208404
0.000140994
0.00687693
0.000144315
0.000146655
0.000142814
0.000144908
0.00514435
0.000147072
0.000137972
0.000166954
0.000148168
0.00509016
0.000197798
0.000142959
0.000200131
0.0001658
0.000140405
0.000144789
0.000155926
0.000136557
0.000177177
0.000162512
0.000151615
0.000151118
0.000137249
0.000145833
0.000177998
0.000149468
0.000144927
0.000150289
0.000134921
0.000135664
0.0385565
0.000162373
0.0394971
0.00015911
0.000175938
0.000160257
0.000141989
0.000166772
0.000138744
0.00014075
0.00107485
0.000164973
0.000172757
0.000172104
0.000147425
0.00024314
0.00228221
0.00014356
0.000164681
0.000187965
0.0522535
0.000136405
0.000138139
0.000147614
0.000192112
0.00236592
0.000167634
0.000154238
0.00014854
0.000142009
0.000135431
0.00275261
0.00015437
0.000152422
0.00461697
0.000146756
0.000154395
0.000156938
0.000145007
0.000142782
0.000143202
0.000176686
0.000192729
0.000148821
0.00015165
0.000249913
0.000142183
0.000149311
0.000154546
0.000146775
0.00401462
0.00578258
0.000371621
0.000197143
0.00485425
0.000152943
0.000139761
0.00028046
0.000157225
0.000161865
0.000143066
0.000135355
0.00523236
0.00128777
0.000141375
0.00013953
0.000162503
0.00027399
0.000154015
0.000134925
0.0443189
0.000152489
0.000166549
0.000134994
0.000160459
0.000131113
0.000150678
0.000160082
0.000142014
0.0341414
0.000149217
0.000166977
0.000194688
0.00262137
0.000189518
0.000142184
0.000179315
0.000155218
0.000164522
0.000150595
0.000150603
0.000145377
0.000152791
0.00180698
0.000151883
0.00181402
0.000139932
0.000223674
0.000135941
0.000148894
0.000146133
0.000155601
0.000222744
0.000165362
0.000149604
0.0292793
0.04695
0.000139993
0.0490228
0.000173919
0.000138834
0.000133912
0.000742564
0.0444673
0.000138986
0.000136144
0.000144055
0.000136843
0.061734
0.000253003
0.000130222
0.000133085
0.000139916
0.000237569
0.000173347
0.00478153
0.000135984
0.000278556
0.000146833
0.000183134
0.0291595
0.000164512
0.000139416
0.000139794
0.00426996
0.000136669
0.000141216
0.000136528
0.000162762
0.000152043
0.039184
0.000163442
0.000148637
0.000142356
0.000157923
0.000221845
0.000186061
0.000141659
0.0001418
0.000210518
0.000174291
0.000149641
0.0014406
0.000163732
0.000153273
0.0598519
0.000151802
0.000160201
0.000148391
0.00231801
0.00014528
0.000148728
0.0160792
0.000159282
0.000141147
0.000143297
0.000131148
0.000180386
0.000193902
0.000141028
0.00013602
0.000150009
0.000182467
0.000161728
0.000135082
0.000142784
0.00013915
0.000154897
0.000170305
0.000146015
0.000142834
0.0449079
0.000141936
0.00531607
0.000163282
0.000167773
0.00015313
0.000150527
0.00014498
0.0233491
0.000189246
0.000182815
0.0384808
0.000162741
0.000140064
0.0312232
0.000136436
0.000184831
0.0599486
0.000155434
0.000141757
0.00015453
0.000183368
0.000142627
0.000143201
0.0437541
0.000142876
0.000151816
0.000140342
0.00014655
0.000137423
0.000194684
0.000201626
0.000135857
0.000141048
0.00102196
0.000142535
0.000136569
0.000140845
0.000140665
0.000312558
0.000161019
0.000153591
0.000153572
0.000149254
0.000137302
0.000176048
0.000195338
0.000158388
0.00027072
0.000152824
0.000155072
0.0392314
0.000140088
0.000136287
0.00014339
0.000140461
0.000148759
0.000132623
0.000149526
0.0592754
0.000144773
0.000141761
0.000155943
0.000140651
0.00200603
0.000147713
0.0365086
0.000226344
0.000173566
0.000161398
0.00249703
0.000161527
0.000143031
0.000154042
0.000140466
0.000151792
0.000147483
0.000148086
0.0274243
0.000135865
0.000143795
0.000169303
0.000188786
0.000147889
0.000139723
0.000220899
0.000151142
0.000182353
0.00014304
0.000139851
0.000143785
0.0368635
0.000146312
0.000204602
0.000173751
0.000149269
0.000139636
0.00014324
0.000159833
0.00360805
0.000135922
0.000181304
0.000141746
0.0341721
0.000234404
0.000149097
0.000216037
0.000146137
0.000153628
0.000153589
0.000264319
0.000160239
0.000158788
0.000159421
0.00540194
0.000147535
0.000179159
0.000144521
0.000203586
0.000208167
0.000222531
0.000142833
0.000165462
0.00279626
0.00728571
0.000154708
0.000154891
0.00394711
0.00393554
0.000140289
0.000177404
0.000143213
0.000156533
0.000145994
0.00015257
0.000151826
0.0309022
0.00014729
0.000148142
0.000176467
0.00537958
0.00837929
0.00020122
0.00453978
0.00013982
0.00319501
0.000178028
0.000142139
0.000141728
0.00614832
0.000158686
0.000145093
0.000142571
0.00017251
0.000138638
0.000142814
0.00060275
0.000145577
0.000148303
0.000141088
0.000143815
0.000151357
0.000138912
0.0554503
0.000168395
0.000152835
0.000139407
0.000166078
0.0143911
0.000142443
0.000148109
0.00406437
0.000224937
0.000143442
0.000154791
0.000138711
0.00014039
0.000193915
0.000215104
0.000140428
0.000143248
0.00415063
0.000336932
0.00128951
0.000186888
0.000150262
0.00465674
0.000140578
0.000155777
0.000154728
0.00013984
0.0529976
0.00136362
0.000167375
0.000185044
0.000416419
0.000133919
0.000133076
0.000152121
0.000167615
0.00191048
0.000136479
0.000171755
0.00545466
0.000410553
0.000147071
0.000151183
0.000264469
0.00014269
0.000155627
0.00482284
0.000140847
0.000142488
0.000139057
0.000244489
0.000141701
0.000164599
0.000149098
0.000215633
0.000163726
0.0055523
0.000143037
0.000142137
0.000163933
0.000147554
0.000172471
0.000149159
0.000193829
0.000200398
0.000140784
0.000144371
0.0485083
0.000685073
0.00282356
0.000139042
0.000143347
0.000155312
0.000145273
0.000143119
0.000143988
0.000146566
0.000148491
0.000139441
0.000139652
0.000177164
0.000152368
0.000172297
0.00188582
0.000179099
0.00017388
0.000157609
0.000199864
0.000207404
0.00016171
0.000157172
0.000160699
0.000141683
0.0188119
0.000136125
0.000135759
0.000140707
0.00502622
0.000142438
0.00497148
0.000148276
0.000135025
0.0001846
0.000142877
0.000142202
0.00014285
0.000189806
0.000104785
0.000147065
0.000139868
0.000151723
0.00668949
0.000173639
0.00481655
0.00014301
0.000172414
0.000146573
0.000145615
0.000136285
0.000138872
0.000143355
0.000154293
0.00039873
0.000151917
0.000151902
0.000199607
0.000920917
0.000202605
0.000142042
0.000189315
0.000163769
0.0036655
0.00013791
0.000142947
0.000154347
0.000301541
0.00013247
0.000144565
0.00013883
0.000136607
0.000201864
0.000153062
0.000184916
0.000144519
0.000132242
0.000169312
0.000143964
0.000972737
0.000144378
0.000161012
0.000147974
0.000158865
0.00014939
0.000177815
0.00491131
0.000142461
0.000186332
0.00471999
0.000141643
0.000146641
0.00016998
0.000131883
0.0576497
0.000183673
0.000142511
0.000177421
0.000134282
0.00014708
0.000147872
0.000141427
0.000136628
0.00014999
0.000140426
0.000138761
0.0001452
0.000148292
0.000173253
0.000136021
0.000206245
0.000138457
0.000140322
0.000159185
0.00017163
0.000149911
0.000131976
0.000142401
0.000153953
0.000170686
0.00328708
0.000164148
0.00014916
0.00014906
0.00013946
0.000161315
0.000140645
0.000152409
0.000295207
0.000238796
0.000173192
0.000141359
0.00014817
0.000149949
0.000132098
0.00019164
0.000134893
0.00022536
0.000149396
0.000237338
0.00015827
0.000286465
0.000146807
0.000178102
0.0471678
0.00427628
0.00137776
0.000157783
0.00632928
0.000486764
0.000148743
0.000165129
0.0172944
0.000138382
0.000138993
0.000143915
0.000156033
0.000532682
0.000145909
0.000159256
0.00383033
0.000130246
0.000144531
0.00027521
0.0184274
0.00019436
0.00176096
0.00536344
0.000150048
0.000189657
0.000152335
0.000153157
0.00443829
0.000154278
0.0457356
0.00024141
0.00015378
0.000145959
0.000151661
0.000158277
0.000139387
0.0361955
0.000132363
0.000142834
0.000143253
0.00253009
0.0385964
0.000203302
0.000144672
0.00015059
0.000138864
0.0613075
0.000143489
0.000149754
0.000154079
0.000151287
0.000138622
0.000182204
0.0304155
0.00457774
0.000147112
0.00115399
0.000139529
0.00601299
0.000132783
0.000270303
0.000147955
0.000181838
0.000158507
0.00109519
0.000200818
0.000152787
0.000151855
0.000189527
0.000155724
0.000141815
0.000138696
0.000158005
0.000148257
0.00258063
0.000131549
0.000142714
0.000144169
0.000143747
0.00186921
0.000139258
0.000134606
0.000146705
0.00115087
0.000162763
0.000176361
0.000152557
0.000151226
0.000184497
0.000139864
0.000143176
0.000181345
0.000171275
0.000134621
0.000171544
0.000152459
0.00314959
0.000142701
0.000278104
0.000147733
0.000143053
0.000135267
0.000134903
0.000142226
0.000141321
0.00101732
0.000177483
0.000146857
0.000143087
0.000142242
0.00015292
0.000158325
0.0501581
0.000146543
0.000201773
0.000164909
0.00509256
0.000147247
0.000170197
0.000143048
0.00014273
0.000164637
0.000142561
0.000145684
0.000140356
0.000136099
0.0191184
0.000143525
0.000139207
0.000259879
0.00491671
0.000190129
0.000145954
0.00013498
0.000155155
0.0333821
0.000153367
0.000147907
0.000146652
0.00491696
0.000148479
0.000143861
0.0281984
0.000141357
0.000156127
0.000155825
0.000146447