/*--------------------------------*- C++ -*----------------------------------*\
| =========                 |                                                 |
| \\      /  F ield         | OpenFOAM: The Open Source CFD Toolbox           |
|  \\    /   O peration     | Version:  v2012                                 |
|   \\  /    A nd           | Website:  www.openfoam.com                      |
|    \\/     M anipulation  |                                                 |
\*---------------------------------------------------------------------------*/
FoamFile
{
    version     2.0;
    format      ascii;
    class       volScalarField;
    location    "200";
    object      p;
}
// * * * * * * * * * * * * * * * * * * * * * * * * * * * * * * * * * * * * * //

dimensions      [0 2 -2 0 0 0 0];


internalField   nonuniform List<scalar> 
18758
(
0.00310791
-0.00285833
0.00390421
0.00294409
0.00884728
0.000653732
0.00124621
-0.00216393
0.00879834
0.0088421
0.000162245
-0.0214569
0.0122825
-0.0105467
0.00151005
0.00221109
-0.0230573
5.77674e-05
0.00153332
0.00672916
-0.0225704
-0.0371532
0.000727668
0.00152917
-0.0365018
-0.0811738
-0.0781419
0.00579745
-0.0278543
-0.0105903
-0.026113
-0.0706533
-0.00213703
-0.0417114
0.00889123
-0.01209
0.0121211
0.00874086
-0.0530977
0.000665926
-0.016732
0.00904496
0.000495914
0.00460037
0.00303998
-0.0148329
0.00903477
-0.0247011
-0.0863724
0.00373611
-0.000336094
-0.114326
0.00351169
0.00809736
-0.0434667
0.012176
0.00367054
0.00647115
-0.0219755
0.00367459
0.00329479
0.00460127
-0.0663821
5.45976e-05
0.00337638
-0.0282521
0.00449216
0.00246813
0.00807926
0.000100831
-0.110535
-0.0899031
0.00308604
0.00850539
0.0236391
-0.0268538
-0.0372605
-0.0224553
0.00892055
0.00243886
-0.0396828
-0.0484918
-0.0181829
0.0175256
0.00477562
-0.0438251
-0.0246462
0.00896531
-0.0747121
-0.0445037
-0.0748654
0.0026183
-0.0392612
-0.0802135
0.00304958
0.00458012
0.000420418
-0.0250367
-0.0354257
0.0045249
-0.0150972
0.0104123
0.00242366
0.00457327
-0.0284958
-0.0195766
-0.0261324
-0.081284
-0.04349
-0.0135592
0.00192914
-0.00177017
0.00658969
0.00422821
0.0106771
0.00213515
-0.0239457
0.003545
-0.00403996
0.00473555
0.00436131
-0.0396182
0.00471615
0.00414934
-0.149391
0.00815866
0.00456969
0.00416554
-0.0388299
-0.198128
-0.0236491
0.00416259
-0.00222529
-0.0436057
0.000570071
0.00443858
-0.026404
0.00469759
-0.0128102
-0.0388431
0.00642073
-0.0214407
-0.0273009
-0.0481284
-0.156055
-0.0382062
-0.0240812
-0.0363853
-0.000470807
-0.0563326
-0.206268
-0.155325
-0.00503193
0.00839894
-0.0147245
-0.0865539
-0.0384374
-0.0407074
0.0182537
-0.0025543
-0.055553
0.00423092
-0.0746015
-0.0251156
0.00440493
0.00356946
0.00421095
-0.0837733
-0.200019
-0.0251471
-0.126736
0.00388515
-0.0289364
-0.000913038
-0.0519504
0.00517059
0.00292236
-0.0622893
-0.0453315
-0.0118069
0.00220188
0.0080211
-0.0435357
-0.0156824
-0.0620695
-0.000414113
-0.0115966
0.0101396
-0.0754257
0.0184922
-0.151019
-0.000315384
0.00270225
-0.010583
0.00160193
-0.0142674
-0.0125599
-0.00478023
-0.0690851
0.00233147
0.00383978
-0.0430957
0.0230665
0.00218098
0.00190208
-0.0680044
0.00507564
0.008556
-0.209432
-0.185025
0.00254676
-0.0380676
0.00389537
0.00615062
0.00595657
0.0004972
0.00177484
-0.0383677
0.00072255
-0.0176052
-0.0106674
0.0039256
-0.0263111
-0.0430809
0.0232429
-0.00614872
0.025115
-0.0462469
-0.0661792
0.00504961
-0.0795952
-0.0370768
-0.0471164
0.00447802
0.00360485
0.00390671
0.0243853
-0.101526
-0.0124546
-0.00131887
0.00180126
0.0232785
-0.0116085
0.00322283
-0.0634499
-0.0428574
0.00350177
0.00457651
0.0036017
0.00460521
-0.121881
0.00460717
-0.00142999
0.00389039
0.000472737
-0.0211149
0.00359358
-0.0957159
0.00146828
-0.0333203
0.00663764
0.00417546
0.00346774
0.00299122
0.006278
0.00116827
0.00419719
-0.0136702
-0.00527297
0.00573876
0.000583192
-0.0925159
0.00562508
0.00494259
0.00176079
0.00570597
-0.00846258
0.000695834
0.00621179
-0.0100518
0.00457265
0.00400749
0.00147103
-0.0275439
0.00132354
0.00492367
0.000221222
-0.013396
0.00458593
0.00456949
0.00326509
-0.0112556
0.00368622
0.00316299
0.00299954
0.00360773
-0.00694363
0.00265502
0.00157309
-0.142442
-0.0172833
0.00388413
0.00384554
-0.0836296
0.00391563
0.00215556
0.00362372
-0.0205844
0.00457797
0.0123086
0.0013932
-0.016286
-0.01426
-0.0109808
-0.0290982
-0.0353313
0.0023368
-0.0957211
-0.0471385
0.00440806
-0.0100261
0.0179274
-0.0458636
0.00399293
0.00237524
-0.191029
-0.00340688
0.00480813
-0.140075
0.0210978
0.00672289
-0.0534015
0.00396541
0.00359245
0.00139958
0.00420522
0.00555274
0.00386345
-0.00262953
0.00515172
0.00531646
-0.00219772
-0.036492
-0.0906332
0.00469921
-0.0889035
-0.0363058
0.00479167
-0.0256342
0.00360831
-0.0365288
-0.0133575
-0.000540687
-0.000381131
-0.133887
-0.0326513
0.00976185
-0.00230503
0.00690014
0.006281
0.00461376
-0.0140797
-0.0198378
-0.00616744
0.0263359
-0.0195243
0.00356617
-0.0194939
0.00816305
-0.0233987
-0.0963301
0.000218651
-0.052857
0.0221067
-0.0174233
0.000651328
0.000347536
-0.0273855
-0.0385507
0.00217135
-0.00485142
0.00447818
0.00150499
-0.0376266
-0.0110749
-0.0165973
0.00124125
-0.146795
-0.00163414
-0.0272878
-0.0118947
0.0021218
-0.00856375
0.00631113
0.00456797
0.00441236
0.00635614
-0.0014077
0.00404632
0.00340126
0.00346487
0.00553492
-0.0320495
-0.0267355
-0.0248863
-0.0256101
-0.165589
-0.0298399
-0.0334291
0.00358605
0.00143294
-0.00315355
-0.00815411
-0.000733723
-0.0325023
-0.0220792
0.00134861
0.0036302
-0.0406931
0.00315503
-0.0174694
0.00192923
-0.0542314
-0.00914164
-0.0179983
0.00303293
-0.0533622
-0.0413302
0.00130437
0.00450492
0.00235253
-0.0503773
0.00275303
0.00315669
0.00488739
-0.0276027
-0.00102908
0.00290779
-0.000687179
-0.000298339
-0.00413594
0.00534845
0.0010493
-0.0221229
0.00188325
0.00382627
-0.0467207
0.000265805
-0.0195213
0.000909667
0.000302483
0.00371213
0.00124463
0.00352833
-0.00125575
-0.115471
0.00313128
0.000212484
-0.0188081
0.00739095
0.00215719
0.00365188
0.00109135
0.0141242
-0.0426411
-0.00534062
-0.0138421
-0.0207659
-0.0611803
-0.0356158
-0.0383541
-0.032769
0.00348171
-0.0317075
0.0221178
0.0087598
-0.00161888
-0.0210724
0.00512981
0.0065812
0.00380429
0.00131035
0.00464928
0.000341533
0.00464272
0.000623467
0.0118638
0.00406336
0.00169023
-0.0430567
0.00399243
0.00364581
0.000907661
0.00735599
0.00547525
-0.0239392
0.00512418
0.00090908
0.000171015
-0.0256046
-0.0430843
-0.0363727
0.0217631
0.0017567
-0.000496113
-0.0426675
-0.0459518
0.00474018
0.00367068
0.00290906
-0.0244531
0.000165096
8.15016e-05
-0.0704207
0.00576208
-0.0386452
0.00526779
0.00446294
-0.0128084
0.00459443
0.00505338
0.00244656
0.00119686
0.00500464
0.00300118
-0.0470744
0.00229247
0.00345342
-0.0265938
0.000165581
0.00228157
0.00410126
-0.0142177
0.00987997
0.00297344
0.00446466
0.0196842
0.00278082
0.00871258
0.00440149
0.00349855
0.00357911
-0.00504983
-0.00498918
-0.10731
-0.0719304
0.0045563
0.00497992
-0.0107408
-0.0805157
0.00197704
0.00044623
0.000660355
0.00175018
0.00487126
0.00437889
0.00563991
0.00222763
-0.0215707
0.00437169
0.000678955
0.0210078
-0.0349439
0.00655166
0.00457281
0.0049103
0.00370401
0.00247823
0.00472542
0.00434002
0.00255686
-0.011575
-0.0353291
0.00492966
-0.0263516
0.00455536
0.00219218
-0.0365972
0.000205202
0.00120988
-0.0772973
0.00383883
-0.0144417
0.02501
0.003888
0.000238861
-0.0592946
0.00350314
0.0105374
0.00402251
0.00342366
0.00377886
0.0166626
0.00081466
0.00986432
0.00510923
-0.0313959
-0.0411386
-0.024915
0.00462326
-0.141991
0.00155272
0.00256452
0.00406364
0.00409347
0.0125317
0.0190434
0.00384814
-0.0147749
0.00477947
-0.0252533
0.00352364
0.00299558
0.00312658
-0.0158283
-0.110187
-0.00315292
0.00712092
0.00483524
0.00401273
-0.0199281
0.00341453
0.00484779
0.00202503
0.00471451
-0.00494278
0.00676181
-0.000299732
-0.0704658
0.00727865
0.00766758
0.00416211
0.00451244
0.00291758
-0.0325167
0.000850184
-0.024566
-0.16301
-0.112593
0.00243201
0.00111261
0.0183989
-0.0262468
0.00147511
0.00459418
0.00511974
0.0040861
-0.0241277
0.00124918
-0.00535419
0.0046711
0.00459863
0.00459274
0.00565096
-0.0354271
-0.028936
0.00612998
0.00488964
-0.00258392
0.000511889
-0.00235363
-0.0493006
0.00522212
-0.0263342
0.00473283
0.00462117
-0.0298981
-0.00295322
-0.00257319
0.00780156
0.000725597
-0.0678892
0.00235972
-0.0290334
-0.158552
0.00962954
0.00386245
-0.0260753
-0.0153335
0.0172581
-0.0304619
-0.0037074
-0.00419088
-0.0536663
0.00236373
-0.023713
-0.0294247
0.00399678
-0.0120099
-0.0405761
0.0108479
0.00871871
0.00577809
0.00166444
-0.00275563
0.00363403
0.00998049
0.0252142
0.00486421
0.000938267
0.00758914
0.00576153
-0.0231453
0.00204243
0.00103124
0.00152888
0.00472602
-0.0565825
0.00453033
0.00627852
0.00112908
-0.0409564
-0.0459961
-0.000706905
0.00548025
0.000252629
0.00512492
-0.0243541
-0.0181086
0.00598888
-0.00746661
0.00581892
0.00156608
-0.0767277
0.00202777
-0.007029
-0.0468041
-0.0119571
-0.0994802
0.00217325
0.00677187
0.00832001
-0.000918093
-0.0188835
0.00246923
-0.0137263
0.00178121
0.00171269
0.00395359
-0.0185554
0.00525597
-0.00452614
-0.0878116
-0.00151265
0.0018161
0.00371509
-0.00117713
0.00442355
-0.000594555
-0.0141045
-0.068216
0.00401064
0.00440904
0.00396999
-0.00607314
0.0211627
0.00752495
0.00460128
0.00328995
-0.0041918
0.0055844
-0.0265708
-0.0284265
0.00292529
-0.02575
-0.00330138
0.00160765
0.00364467
-0.000949513
-0.00164298
0.00294238
0.00349353
-0.0185618
0.00586603
-0.0213162
0.00041511
-0.0355657
0.00426645
-0.0182207
-0.0267892
0.0118636
-0.0225048
0.00138499
0.0057683
-0.0194335
0.00328695
0.0171881
0.00443021
0.00470504
0.00780885
-0.0898098
-0.000958851
0.00402203
0.00196942
0.00063939
0.00364128
0.00465987
0.00301861
0.00388038
-0.0261663
0.00155274
0.000143704
-0.0188254
0.00461712
-0.0487758
0.012329
-0.0291988
-0.0411602
-0.0261522
-0.0699997
0.0027921
0.00470139
0.00620851
0.00397702
0.00303661
0.00386877
0.00368475
-0.00285262
-0.000112886
-0.0432768
-0.00210068
0.00370058
0.00448756
0.00240315
0.00602315
0.00160172
0.0025716
0.0061265
0.00345965
-0.085183
-0.00353986
-0.0635857
0.00443217
-0.0274143
-0.0352132
0.00432403
-0.0964499
-0.0191387
0.00483978
0.00169398
0.000620512
-0.0473714
0.000892301
0.00266912
-0.0104075
-0.0362286
0.00261436
-0.0010658
-0.00165527
0.00126438
0.00350844
0.00109428
0.0056622
0.00161367
0.00757098
-0.00956508
0.00262645
0.00106218
-0.0810714
-0.0889932
0.00168945
-0.0258825
-0.0525868
0.00606927
0.00379594
0.00396822
0.000177796
0.00648484
0.00603768
0.00358436
-0.00467893
0.00742603
-0.000280126
-0.093199
-0.00761159
0.00360159
0.00567788
-0.056056
-0.00449487
0.0026186
0.00406502
0.00288173
-0.0125688
-0.0177747
-2.78534e-05
0.00452369
0.00434213
0.00722211
-0.0364069
0.00368516
-0.0297788
0.00135126
-0.0297162
-0.0191577
0.000620719
0.0119388
0.00234414
0.00256718
-0.0117251
0.0054933
-0.0450725
-0.019654
0.00630007
-0.0682027
-0.08946
0.00230237
-0.0235226
0.0026139
0.00126129
-0.00517832
0.00732133
0.00443089
0.00416803
0.0033079
0.00484728
-0.0290996
0.00439551
0.00309548
0.00454869
-0.0886377
0.00572213
0.00380725
-0.00854619
0.0242099
-0.0212475
-0.0187268
-0.0492842
0.00510874
0.00190313
-0.000162204
-0.00562794
0.00424177
0.00506467
-0.0106835
0.00345273
-0.0169343
6.34705e-05
-0.00273998
0.0023264
0.00321431
-0.0425704
-0.0193691
0.00185157
0.00267822
-0.0556415
0.00580916
-0.167013
-0.06407
0.00449962
-0.00124769
0.0121825
0.00461131
-0.0113657
-0.0197321
0.00149338
-0.0466914
0.00123963
0.0056015
0.00164333
0.00452397
0.00742283
-0.0651257
0.00113816
0.0038857
0.00748728
-0.0146831
-0.0360228
0.00627518
0.00461496
-0.108164
0.0213287
0.00143757
-0.111442
0.00436242
-0.0690033
-0.0790604
0.00393437
0.00390202
0.000230114
-0.0317767
0.00483372
-0.00262953
0.00438463
0.00155773
-0.0437284
0.00369542
0.00151521
0.00258503
-0.0597984
-0.0185516
0.00524677
-0.0337122
0.00399894
0.00297923
-0.0533434
0.000653727
-0.0570573
0.00487055
-0.00870163
0.00401339
0.00489392
0.00384522
0.00485092
0.011641
0.00632029
0.011686
-0.00901164
0.00662389
0.00159628
-0.0191707
0.000973143
-0.0635306
0.000604397
-0.0211818
-0.0150916
-0.00492519
0.00363468
0.00367817
0.00324805
-0.0741811
0.0011663
-0.0466082
0.0216353
0.000348609
-0.0225169
0.00103764
0.00453722
0.0069616
0.00477725
-0.0179724
0.00532748
0.00516312
0.00483986
-0.0112037
0.00139469
-0.0343372
0.00530553
0.00448055
0.00383084
0.00645964
0.00328036
0.0035756
0.00419057
0.00270026
0.0035121
0.00357783
-0.0430316
-0.0378252
0.00337933
0.00348132
0.0254841
0.00679639
-0.101458
-0.00435709
-0.00342568
-0.0590752
0.00435908
0.00357805
0.00350936
0.000313295
0.00633634
0.00356693
-0.0128011
-0.00999141
0.00358365
0.0271414
-0.0227863
-0.103782
0.0100068
-0.00247661
-0.00167999
-0.0327221
0.00342972
0.00346862
-0.0155818
0.00456148
0.00359844
0.00379994
-0.13903
-0.0195111
0.00391091
0.00368618
-0.0094289
0.00322637
-0.00136035
-0.0189918
0.00494991
0.010218
0.00412445
-0.0047707
0.00593942
-0.0438843
-0.00748219
0.00139635
-0.0308728
0.00149077
0.00358418
0.00285998
-0.00648562
0.00381726
-0.0160433
-0.0349915
-0.0314531
-0.0194079
-0.00549929
-0.0084522
0.00387466
-0.0026841
-0.0353931
0.00493127
-0.010287
0.00337652
-0.0017445
-0.0066881
0.00672611
0.025447
0.0223018
0.0034859
0.00388688
0.0151869
0.00419478
-0.00787456
0.00377306
0.00444418
0.00454979
-0.0144231
0.00739824
-0.0114473
-0.043117
0.00422397
0.00449767
-0.0114201
0.0064347
0.00426262
0.0197194
0.00647313
0.00393066
-0.031361
0.0093485
0.00994566
0.00271954
0.00447246
-0.000889331
0.00464533
-0.0236648
0.0129827
-0.0726188
0.00343986
-0.0722265
0.00649213
-0.0810266
-0.0811705
-0.0216714
-0.0429101
-0.10525
0.00897821
0.00108409
-0.0272941
0.0100202
8.50457e-05
0.00346271
0.00542707
0.0150448
0.00450983
0.00275592
0.00405382
-0.0608207
-0.0933438
-0.0300736
-0.0359049
-0.0344412
0.00654635
0.00625359
0.0011882
-0.0594248
-0.035413
0.000474921
-0.00769659
-0.021853
-0.125827
-0.161331
0.000642689
0.0171187
0.00196512
-0.169447
-0.00717995
-0.0168109
-0.00620165
0.0100936
-0.0420693
-0.0295073
-0.00108114
0.0029984
-0.0283272
0.00343352
-0.0428143
0.00632738
0.00352603
0.00714696
-0.0122909
0.00067424
-0.0140047
-0.00347633
-0.0273539
0.0027029
0.00578389
0.00573266
0.0239245
-0.119439
0.00195579
0.00982622
-0.0713424
-0.0108511
0.00204102
-0.0234915
-0.0318965
0.00371832
0.0010603
-0.000328604
0.00380556
0.00431283
-0.102758
0.00735644
0.00383124
-0.0223887
-0.0157258
-0.0149483
0.00212007
0.00116383
-0.00327967
0.00623618
0.00468052
0.00475206
0.00500533
0.00456962
-0.0214683
0.00427826
0.00460977
-0.0336769
0.00463295
0.00431525
0.00384003
0.00159668
-0.00729268
0.00427095
0.00481833
-0.00241643
-0.0404928
0.00475942
-0.00548264
-0.0437389
-0.0359441
-0.0223762
-0.00285681
0.00449924
0.00454274
-0.066751
-0.00861124
0.00389632
-0.00794268
0.00108414
-0.09825
0.000135668
0.00426289
0.0044861
0.0047649
0.00563724
0.00243362
0.0065422
0.00629787
0.000425856
0.00189644
0.00103192
-0.018938
0.00423494
0.00426334
0.00368337
-0.0277646
-0.0935821
-0.0480837
-0.047058
-0.0403552
0.0232402
-0.0841669
0.00475342
0.00981307
-0.0203607
-0.126146
0.00464271
0.0104019
0.00117913
-0.0436043
0.00302509
-0.029791
0.00422081
0.00113159
0.000683328
-0.025237
-0.00240413
-0.078425
-0.00411739
0.000255922
0.00356872
0.0035284
0.00676576
-9.73756e-05
-0.0799213
-0.010906
0.00681834
0.00662704
0.00352713
0.00224613
-0.0579803
0.0270642
0.00185836
0.00343742
-0.0355549
0.00351456
-0.000177802
0.00400557
0.00561599
-0.00212265
0.00427842
0.00432895
0.00213384
-0.0140186
8.2731e-05
0.000648671
-0.00545116
-0.0388344
0.00452463
-0.0354451
-0.00573638
-0.0347646
0.00097042
0.00478272
0.0100694
0.0108984
-0.0973621
0.00470889
0.0122329
0.00226369
0.00260777
0.0040275
0.00411224
0.0178561
0.00349289
-0.0145175
0.0158905
0.00402102
0.0047476
-0.00290265
-0.0207906
0.00144177
-0.0284931
-0.0720442
-0.0423958
0.0124457
0.003911
0.00198397
-0.168768
0.00688361
0.0043747
0.00389492
-0.0407491
0.00446234
0.00460516
-0.0793607
-0.0173357
0.0061458
0.00651898
0.0037889
-0.105242
-0.0196552
-0.167174
-0.00684996
0.00164507
0.00499474
0.00945776
0.0022653
0.00383664
-0.00697042
0.00388316
0.00373797
0.00446417
0.00668279
-0.0324413
0.00507154
-0.203465
-0.0182493
-0.0217072
-0.0367804
0.0109965
0.00378656
-0.0547277
-0.00393145
0.00378845
-0.026987
0.00433548
-0.0523148
-0.0218498
0.00522055
0.00401872
0.00769934
0.00984916
-0.00781191
0.00439674
0.00266148
-0.0202833
0.0066537
0.00332252
0.00187487
0.00646198
0.000638837
0.00100687
0.00468696
0.0029143
-0.027821
-0.0482123
0.00479656
0.00465798
0.0109952
-0.0292228
0.00179969
-0.0525407
0.0115263
-0.0217378
0.00506201
0.00395588
-0.06368
0.00655887
0.000110112
-0.0229866
0.00463038
0.00394841
-0.0383345
0.00307812
-0.0177476
-0.035684
-0.0830627
0.00102094
0.00303059
0.000570126
0.00404136
0.00169807
-0.00594542
0.00775672
0.00234186
0.00498689
-0.0346053
0.00421893
-0.00274289
0.0015977
-0.0482662
-0.113382
0.00595264
0.00714378
-0.0143387
-0.0461483
-0.0293673
0.00387703
0.00501635
-0.0139223
-0.0225485
-0.00335392
-0.0085832
0.00390358
0.00419842
-0.0327025
0.00355275
0.00431013
-0.00352601
0.00640622
0.00492148
-1.27069e-05
0.00460044
0.00759097
0.00388117
0.00316261
0.00210835
-0.00986036
0.00463533
0.00501004
0.00371967
-0.0271466
0.00452022
0.00437798
-0.0382406
-0.0422785
0.0130924
-0.0370001
0.004234
0.00339991
0.00467592
0.00402685
0.00295586
0.0049653
0.00702571
0.00419019
-0.00293139
0.00466756
0.00349152
-0.0316613
0.0118802
0.00450786
-0.023236
0.00469612
-0.0092012
-0.0502313
-0.109738
0.0083118
-0.00758908
-0.0202546
0.00714224
0.00164086
-0.101105
-0.029078
0.00455282
-0.0225457
-0.0299034
0.00400083
-0.00327655
-0.0275795
-0.0197307
-0.000401539
-0.00958657
-0.0166406
0.00249666
-0.00445735
-0.037082
0.00133987
0.00397333
-0.031535
0.0129586
0.00203233
0.00188085
-0.00662609
0.00385484
0.00802633
-0.0166651
-0.0188079
0.0104223
0.00625073
0.00452751
-0.0511823
-0.0151569
-0.0520623
-0.0469815
0.00425638
0.0107709
0.00449805
0.004833
-0.0195598
-0.000354776
0.00330431
-0.0245103
-0.00289796
-0.0512412
0.00862735
-0.0716733
-0.0118711
-0.0117236
0.00147209
0.00413658
-0.00975164
0.0012637
-0.0782596
-0.0206592
-0.0329832
0.00625291
0.0245103
-0.02468
-0.104052
0.00535026
0.00346264
-0.00554616
-0.0188917
0.00472575
0.00341471
0.0128876
0.00537722
-0.00081767
0.00145303
0.00128238
0.00582235
0.00381839
0.0260891
-0.0201977
0.000835438
-0.0350469
0.00147168
-0.0194609
-0.0592947
-0.111161
0.00604671
-0.0199741
0.00381408
0.00516952
-0.00341268
-0.126762
0.00256923
0.00253153
0.002921
0.00398986
0.0266786
-0.0473053
-0.00266994
-0.0422907
-0.0494506
-0.0286026
-0.0575793
0.00483964
0.0048601
-0.012987
0.00136917
0.00134408
-0.00230485
0.00462569
0.00442592
0.00483084
0.00329614
-0.01339
0.00199526
0.0106941
0.00639676
0.00344113
0.00130042
-0.128084
0.00342813
0.00391933
0.000603184
0.00482786
-0.000303035
0.00125758
0.00287655
-0.0451805
0.00555227
0.00443651
0.00165833
0.00460285
-0.0182533
0.00502656
0.00474579
0.00717193
0.000758656
0.014051
0.00454912
0.0044847
0.00279236
0.0043112
0.00403053
0.00238188
0.00923938
-0.0456653
0.000518331
-0.0713573
0.00519812
0.0123543
0.00775341
0.00978797
-0.0862777
0.00610901
0.00289704
-0.035475
0.00614102
-0.0903749
0.00359745
-0.0134239
-0.0135519
0.00364741
-0.029703
0.00434907
0.00418515
-0.0062941
-0.077678
0.00480002
0.00373455
0.027178
0.00613883
-0.0398761
0.00368229
-0.0206796
-0.0195528
-0.0182259
-0.0857053
-0.136288
0.00472129
0.00498108
0.000758092
0.00812546
-0.00632355
-0.00111591
0.00117697
0.00331306
0.00393889
0.00371393
0.00473657
0.00416363
0.0124604
-0.00364454
0.00409989
0.00831189
-0.0927959
-0.000726778
-0.088394
-0.00325405
0.00818312
0.00375599
-0.0238568
-0.0446515
0.0126742
-0.129496
0.00104277
0.0103854
0.00179761
-0.0190665
0.00377245
-0.0166997
-0.011299
0.0041931
0.00821866
0.00337649
-0.00703412
-0.00385673
0.00415536
-0.00191661
0.00444029
0.00451027
-0.15255
0.00340521
0.00213069
-0.0097686
0.00608915
0.00234861
-0.00241311
0.000464693
0.00657225
-8.81017e-05
0.00275241
-0.0806744
-0.0431009
-0.0820225
0.00309473
0.00166217
0.00183546
0.00266567
0.00260159
0.0136565
0.00247275
0.00454576
0.00125575
0.00441086
-0.0173453
0.00100364
0.0278065
-0.0434988
-0.0249121
-0.00515969
-0.00249708
-0.0451422
0.00533105
-0.0396261
0.00377533
-0.0200036
0.000629092
0.000853373
0.00415934
0.00728765
-0.0228883
0.00434278
0.00363663
0.00936626
0.00357541
0.00729287
-0.0483012
0.0123412
0.00495176
0.00624248
0.0271276
0.00338492
-0.0211108
0.00437279
0.00632131
0.00201409
0.00389129
0.00973569
-0.0354123
0.0126021
0.00399705
-0.048974
0.00321755
0.0046096
0.00305231
0.00590276
-0.022599
0.00378414
-0.00707877
0.00565559
-0.0653432
0.000485185
0.00536368
0.0040315
0.0130222
0.00463908
-0.0421013
0.00440767
-0.0246943
-0.00656882
-0.0315796
0.00463009
0.00421488
0.00178658
-0.00891518
0.00390754
-0.0890076
0.00441738
0.0123514
-0.0174719
0.000725696
-0.0577023
0.00355056
0.00449874
0.00680371
0.0181065
-0.044927
-0.0065367
-0.0535212
-0.0625516
0.00651797
-0.0179282
0.00421654
0.00456045
0.00303807
0.00335926
0.0231916
-0.00342323
-0.0232996
-0.0012962
-0.000284754
-0.030391
-0.00597697
0.00672614
-0.0146972
-0.0356654
0.00365712
0.00474544
0.00138259
0.00400595
0.00423319
-0.0848016
-0.118708
-0.0182679
0.00385006
0.000415524
-0.0166309
0.00428958
0.00395057
0.00424299
-0.00196214
0.00154738
0.00283328
0.00372442
-0.03042
-0.0734783
0.0117544
-0.0101406
0.00403633
0.00394455
-0.0395445
0.00342063
0.0223122
-0.040454
0.0013358
-0.0404082
0.00447363
-0.109208
0.00365546
-0.0347059
0.00357669
-0.00111097
0.00881041
0.00680396
-0.00818888
0.00327685
-0.00776681
-0.0148934
0.00344648
0.00389594
0.000666922
0.00397453
0.000375878
-0.0106885
-0.03248
0.00660491
0.00412139
0.00866389
0.00623299
-0.00474896
0.00297897
-0.0221267
-0.0208712
-0.000734433
0.00569293
-0.0120193
0.00448587
-0.0351037
-0.0132098
-0.0261914
-0.0420965
-0.0249576
-0.0241671
0.00294319
0.00352496
0.00399549
0.00343839
0.0017025
0.00320536
-0.0694446
0.00405828
0.00453764
0.000725843
0.0143709
0.00227038
-0.116795
-0.0330927
-0.0127206
0.00464358
-0.0695522
0.00396616
-0.0329906
0.0124782
0.0045955
-0.0104906
-0.0162251
-0.0339916
0.00446803
0.00338074
-0.0217537
0.01969
-0.0211887
-0.00763232
-0.0286019
-0.0439709
0.00998504
-0.00662831
0.00498956
-0.0285495
-0.0104303
-0.0808752
0.00566954
-0.056257
-0.0219482
-0.0299993
-0.00181171
-0.0133648
-0.00391171
0.000975236
0.00330678
0.00200213
-0.0307531
0.00119285
-0.0378069
0.00813111
-0.0237555
0.00273437
0.00857966
-0.0464979
-0.0207802
-0.0381375
-0.0125
0.00385058
-0.116282
0.00153459
-0.00371838
0.016535
-0.0283505
-0.0298358
0.0290397
-0.00529158
0.00224994
-0.0550409
0.00224648
-0.00208832
-0.0320353
0.00144031
0.00309322
-0.0268059
0.00256518
0.00375363
-0.0376934
0.00313689
0.00422247
-0.0151444
0.00424582
-0.0570282
0.0010087
-0.0157505
-0.0896787
0.00193392
-0.0234595
-0.0418669
-0.00838053
-0.0142919
0.00452825
-0.0181729
-0.0626566
-0.0120315
0.00687478
0.00498352
0.00868043
0.00243656
0.0032965
-0.00282465
0.00427104
0.0045762
0.0104378
0.00691272
0.00247982
0.00337656
-0.0364518
-0.0441273
0.00376376
0.00274394
-0.0167915
0.00432512
0.00410162
0.00407357
0.00421394
-0.00583708
-0.0126978
0.010673
0.00864883
0.00432411
0.00277943
-0.036305
-0.0390458
0.00687625
0.00381509
-0.00355908
-0.00519663
0.0042592
-0.0278128
0.00507053
0.0216687
0.00399157
-0.0192486
0.00339489
0.00319456
-0.0370263
-0.0279788
-0.0182138
-0.0121348
0.00342971
0.00452196
-0.0119599
0.0151863
-0.0569253
0.00407168
-0.00383491
0.00276834
0.00315419
-0.00345244
0.00486815
-0.0475786
-0.00584619
0.00243766
0.00204006
0.00969794
-0.0241849
-0.103529
0.00340413
0.00455858
-0.0353729
-0.015473
-0.038707
-0.00521932
-0.0385833
0.00691582
-0.0467616
-0.00971536
0.00115245
-0.0842884
0.00357672
0.00476811
-0.0042898
0.00321578
-0.0159873
-0.0457168
0.00102057
-0.0279067
0.00328389
0.00481043
-0.00184479
-0.00962567
0.00453567
-0.0269859
-0.00030822
-0.00135867
0.000313208
-0.0589093
0.00394344
-0.0190509
0.00340998
0.00344505
-0.0185658
0.00435182
0.00671514
0.00830628
-0.0311136
-0.0306857
0.00385278
-0.0179429
0.00402997
-0.123581
0.00640803
0.0036717
-0.196598
0.00444623
0.00122882
-0.0125781
-0.00698138
0.00427437
-0.146946
-0.0527374
-0.00944832
0.00184286
0.00154491
0.00889396
-0.0385935
0.00449996
0.00960771
0.00592572
-0.084292
-0.0763431
0.00146601
0.00334669
-0.0482975
0.00723634
-0.0023269
0.0053986
0.00420984
-0.0190654
-0.0111349
-0.00238648
0.00396729
0.00440306
0.00342698
0.00148276
0.00381601
0.0061386
0.00985614
-0.00477343
-0.0232265
-0.00749507
0.00393343
-0.0146498
0.00883805
-0.034918
-0.0192002
-0.040525
-0.032974
-0.0512419
0.00399586
-0.0257595
0.00281834
-0.00575902
0.00485585
-0.000252678
-0.000290333
-0.00988733
-0.0038807
0.00183165
-0.024049
-0.0174585
-0.0426432
0.00184902
0.00449112
-0.077872
0.00422644
0.00107599
0.00109314
0.00490453
-0.0668145
0.00251438
-0.0860233
-0.0123466
0.00409171
0.0311588
0.011897
-0.0878229
0.00504247
0.000642948
0.00318356
0.0120544
-0.0458512
0.00468034
0.00318852
0.00280232
-0.000546711
-0.0250908
0.00426691
-0.0870986
-0.0698289
0.00434675
-0.0198447
0.00402918
-0.119193
0.00415333
-0.00231342
-0.00416425
-0.00673977
0.00493561
-0.0614455
-0.197822
0.00319334
-0.0789504
-0.0573497
-0.00101799
-0.0739726
-0.00372588
0.00309467
0.00468149
0.000785872
0.000980327
-0.00323559
0.00448866
0.00920703
-0.0219636
0.00137461
-0.0264444
-0.0115248
0.00937139
0.00617187
0.0102288
0.00332605
-0.0445686
-0.0536717
0.0223986
-0.0270105
0.00603393
-0.0201404
-0.00263345
0.00344973
-0.000229085
0.00287476
-0.157145
-0.0457399
-0.0372341
0.0014192
-0.0038157
-0.015951
0.0240066
0.00450397
0.00423394
0.00604245
0.00187348
-0.0206103
0.00238617
-0.0177483
-0.00762662
-0.093899
0.00447916
0.00332304
-0.00915864
-0.0224376
0.0030965
-0.0471304
0.0036153
0.00400247
-0.00706283
-0.0276493
0.00486937
-0.00986794
-0.0586129
0.00348372
-0.00875651
-0.00623139
0.00881164
-0.00666467
0.00112043
-0.0365874
-0.0102567
-0.0401149
0.00391207
0.00126878
-0.0908011
0.00485099
-0.00781263
0.00261827
0.00373354
-0.0980463
-0.00133761
-0.000600632
-0.00733424
0.00415201
0.00886567
-0.0741056
0.00403852
-0.012519
0.00355151
0.0205535
0.00508536
0.00535794
0.00170548
-0.00165824
-0.0207238
-0.000397668
-0.0223841
0.00318789
-0.0648482
0.00390305
0.00341601
-0.00319912
-0.00435508
0.00457467
0.0180061
-0.00765864
0.00478088
-0.00689276
0.00402389
0.0149608
-0.0154374
-0.0390757
0.00373223
0.00380106
0.0129846
0.00458185
0.00393464
0.00204499
-0.0237679
0.00167947
-0.00801366
-0.0500119
0.00417763
0.00554655
0.00573151
0.00436908
0.00372376
-0.0797535
0.00238623
0.0062403
-0.0466242
0.00587501
-0.0426291
0.00061452
0.00418779
-0.0515308
0.0247169
-0.00466963
-0.0392602
0.00147094
0.0156977
0.00387944
0.0015516
0.00238665
0.00527699
0.00241283
-0.0313238
-0.0103422
-0.00368929
-0.0467307
0.00532862
-0.00715101
-0.0436221
-0.00581291
-0.00304805
0.00371191
0.0118219
-0.0524838
0.00676577
-0.0761611
-0.0268825
0.00538743
-0.0643009
0.00319651
-0.000217806
0.00252068
0.000196208
0.00661591
0.00258134
-0.0930317
0.00306773
-8.14304e-05
0.003244
-0.0246673
0.00427197
0.00393015
-0.0243963
0.00592896
0.00691445
-0.0454379
-0.00657874
-0.00272728
-0.0100788
0.0108333
-0.00525723
0.00467446
0.0116743
0.00074507
-0.0040524
0.00552461
-0.0206435
0.00341151
-0.0358088
0.00531117
-0.00735838
-0.0587733
0.00252509
0.00876645
0.0039951
0.00232445
-0.0328911
-0.138771
0.00531654
0.00407884
0.00504858
-0.0265576
0.00715048
-0.0234797
0.00342255
0.00256931
0.00180157
0.00414753
0.00823346
0.00403729
-0.0284893
-0.00558646
-0.0436093
-0.0441414
0.00137443
-0.0780148
-0.00540598
0.000523581
0.00682481
0.00413505
2.74722e-05
0.00244706
-0.0185195
0.00441545
-0.00341673
-0.0262034
-0.0347405
0.00371675
-0.0485266
-0.0414293
-0.00777955
-0.0342329
-0.00556809
-0.00719879
0.00463406
0.0087226
-0.000339551
0.00786582
-0.0202411
0.00241313
-0.00357915
-0.102504
-0.00585765
-0.00623277
0.00675977
0.00703847
0.00484021
-0.105727
0.00468153
-0.0542602
-0.0198945
0.0040975
0.0116653
-0.0465097
-0.0136191
0.000688285
0.00212673
-0.19066
0.00136713
0.0121651
-0.0457046
-0.0173691
0.00464183
0.0238001
-0.000463595
0.00622681
-0.000247395
-0.0160834
-0.0326493
-0.00695521
-0.0459429
0.00445309
-0.0305649
-0.0222073
0.00363796
0.00178049
-0.0720954
0.00885039
0.00388083
-0.0675742
-0.0375772
-0.113666
0.00416409
0.00284433
-0.09391
-0.0290245
-0.199687
-0.000464762
0.00709282
-0.00486908
6.15739e-05
-0.000974809
0.00455453
-0.00433282
0.00471519
-0.118228
0.00430831
-0.00949481
0.00306973
-0.0278042
-0.0114311
-0.0414694
-0.0355896
0.00667511
0.00458964
-0.00718597
-0.0122033
0.00435756
-0.00260723
0.00485969
-0.0795172
-0.190346
-0.00199208
-0.146055
0.00790634
0.00125025
-0.0691862
-0.0114306
-0.00805807
-0.0848733
-0.0708306
0.00026437
-0.0658542
0.00350829
0.00339532
-0.128373
0.0154232
-0.025375
-0.112489
0.00412754
-0.0887143
-0.00153381
0.00309128
-0.0145824
-0.0462937
-0.0921548
-0.00938975
0.00311417
0.00318384
-0.00248149
-0.0110104
0.0299339
-0.118361
-0.00313528
-0.0239963
0.00308754
0.0027853
0.00299478
-0.00566031
0.00159072
-0.0377912
-0.00442715
0.00415743
-0.00487306
-0.134868
-0.00893299
0.0305811
-0.092041
5.2312e-06
-0.182106
-0.0244546
-0.0210123
-0.010709
0.00153092
0.00282112
0.0023083
0.001493
-0.0401616
0.00351862
0.00351827
-0.00591248
0.00336379
-0.0197343
-0.0179143
-0.0146534
-0.0314679
-0.00738076
-0.0705342
-0.0949427
-0.000317542
0.00686374
-0.0277621
-0.0155265
-0.00565902
0.00443211
-0.00170707
0.00349463
-0.00591657
0.000636246
-0.0962038
0.00068521
0.00241797
-0.145304
-0.0720783
0.0038705
0.0030039
-0.00593901
-0.0211099
-0.000818591
0.00378028
0.00317024
-0.00932696
-0.0503293
-0.0448551
0.0044736
-0.0407397
0.000316461
-0.0344559
0.00275574
-0.0340326
0.0033056
0.00418433
-0.0389965
-0.0377572
0.00696042
-0.0197568
-0.0386408
-0.0423896
0.0030861
-0.00303026
-0.0634909
-0.0448945
0.00779142
-0.108071
-0.00038717
0.0106091
0.00175388
-0.00985589
-0.0188669
-0.0758397
-0.0332183
0.00379831
0.00251621
0.00528285
-0.0213596
-0.000119195
0.00498602