/*--------------------------------*- C++ -*----------------------------------*\
| =========                 |                                                 |
| \\      /  F ield         | OpenFOAM: The Open Source CFD Toolbox           |
|  \\    /   O peration     | Version:  v2012                                 |
|   \\  /    A nd           | Website:  www.openfoam.com                      |
|    \\/     M anipulation  |                                                 |
\*---------------------------------------------------------------------------*/
FoamFile
{
    version     2.0;
    format      ascii;
    class       volScalarField;
    location    "950";
    object      ddt0(omega);
}
// * * * * * * * * * * * * * * * * * * * * * * * * * * * * * * * * * * * * * //

dimensions      [0 0 -2 0 0 0 0];


internalField   nonuniform List<scalar> 
18355
(
-2.17261e-05
0.227017
-3.52406e-06
1.59797e-06
-1.00631e-05
0.00359924
1.82633e-06
0.000377934
4.53572e-06
0.322795
2.20371e-06
-0.19522
-0.00142121
1.05478e-06
4.27162e-06
-4.46764e-06
-0.116694
2.93222e-07
-1.24093e-05
0.500185
4.30947e-06
-1.83167e-05
-0.237052
-1.06961e-05
-0.000116607
-3.49304e-07
-3.69267e-07
-1.85209e-05
2.54006
-5.61214e-06
-2.64323e-06
-3.16731e-05
1.32398e-07
2.61182e-06
-0.00010035
-2.75567e-05
3.04469e-06
-0.00361122
2.27696e-08
2.78446e-06
9.09925e-07
0.00553981
-4.22781e-06
0.515605
2.59096e-06
-0.00490283
-0.000279474
-5.23846e-06
-0.000449955
-5.51054e-07
3.67555e-06
-3.30058e-06
1.79719e-07
0.328935
-4.23574e-07
1.31143e-06
0.0072779
4.79441e-06
0.0031879
-0.0047247
-6.46476e-07
0.00179599
7.8679e-07
0.000197496
-0.146555
-3.15401e-05
-3.68639
4.89621e-05
-3.20201e-07
-1.38589e-05
-0.000579635
3.30279e-07
-0.0054262
-5.42451e-07
0.000279304
1.98249e-06
-0.00103351
-2.68075e-05
-0.000149226
-2.63303e-06
1.77989e-06
-0.0614794
-2.39776e-06
-2.6491e-06
-4.32016e-07
-0.00132069
0.451594
0.534102
2.43181
0.00512514
0.044766
3.09391e-06
-7.15913e-07
1.99019e-06
-0.274764
-0.186597
2.74714e-06
-1.96521e-05
0.374443
0.00826486
2.14367
-0.0304488
-2.76648e-05
1.83601
-2.02086e-05
0.00306071
-0.409673
-0.00161623
6.49599e-05
0.394744
-4.08687e-06
-1.15354e-05
-3.104e-07
-9.67145e-06
0.580605
1.43359e-06
-0.020043
-0.0318378
0.0218148
-0.00013379
0.293428
0.992103
-2.5675e-05
-0.000610495
2.72491e-06
-0.00949929
-2.55519e-06
4.99898e-08
-1.33791
2.25979e-06
3.71804e-06
0.485613
0.000673752
-2.17316e-05
0.000561126
2.98433e-07
2.07965e-06
2.24502e-06
3.514e-06
-0.00123197
0.762688
0.765601
-8.17343e-06
-3.32863e-06
-0.0534922
-1.66446e-05
6.98931e-05
1.85138
-1.28862e-05
2.19603
-4.38933e-06
-1.73216e-05
2.89637e-05
0.0104541
0.00482113
2.29355e-07
0.688439
0.00940615
2.1219e-07
0.00165344
8.16177e-06
2.12503e-05
7.88131e-05
-2.73221e-05
0.0056584
0.312234
0.538617
0.000141803
0.000340369
-6.3657e-07
-0.0228228
-0.128404
2.90404e-06
2.78479e-06
6.93122e-07
0.223435
0.00204238
-6.39372e-07
-1.12818
0.378512
0.0170785
0.00375279
2.84439e-05
1.98502e-06
0.00798177
0.200876
-0.196339
0.0132834
-1.72879e-05
-0.115788
0.0071121
-5.7244e-06
-2.63601e-05
1.20647
-0.000247539
-1.90478e-05
-0.112342
2.28366e-05
0.000462379
2.98409e-06
-4.38696e-06
-9.49536e-06
0.478812
-0.136314
-1.41823
0.000691754
-0.00695558
-0.0880579
-0.163413
0.000448707
6.64314e-08
-2.52413e-06
0.563682
-1.69494e-05
-6.47494e-07
-0.0246987
-1.72023
0.557219
-3.70547e-07
-1.26645e-05
-0.0173561
2.7764e-06
-9.45105e-05
8.89204e-07
0.454649
-1.7872e-05
-0.0588666
0.293285
0.131028
-3.05822e-07
2.07429e-07
-0.000153228
2.54685e-05
-0.019565
8.08553e-06
-2.41765e-07
-5.23012e-07
0.00455489
-1.52604
-1.32141
7.37032e-05
-0.000837327
-4.24499e-06
-8.49622e-07
-1.96773e-05
0.351325
-0.877748
-0.00815961
0.00469386
3.49186e-05
-4.19117e-06
0.0478724
3.04284e-05
-0.175458
-1.65228e-05
-0.133707
-0.388708
0.00149735
-9.46605e-06
1.55033e-06
-9.31573e-06
-0.000807642
0.508912
0.000676397
1.60376e-06
-3.09022e-07
3.39084e-07
-0.0144279
0.000106484
-0.0444268
-1.68739e-05
4.6998
0.0283683
0.00280514
7.98637e-06
0.158943
-2.69059e-06
3.74239e-06
0.0688918
2.72321e-06
1.94345e-06
0.00187441
1.67517e-06
-0.0809422
2.77517e-05
-8.6735e-07
2.4605e-06
0.0002092
-0.189907
-3.12897e-05
1.73116e-06
-2.99637e-07
0.00126851
0.39012
1.75841e-07
1.51852e-07
-1.13447
-0.00025053
0.0047517
0.105274
3.50631e-06
-0.000682777
-1.48837e-05
2.65083e-07
0.203126
0.0102118
0.0229696
0.00685682
2.51293e-06
-0.00176522
-1.66572e-05
-1.22713e-05
-5.80999
-1.79879e-06
-0.0418063
-0.0081488
-6.94629e-07
3.31742e-06
-0.0125428
1.76195
-0.0683009
-4.19636e-07
2.15749e-05
0.591109
3.47556e-06
-1.21629
-0.000189203
-0.000942892
0.532371
2.44809e-06
0.256391
-1.32989e-05
0.000529685
1.20021e-06
0.00466393
-0.186547
-1.26764e-08
0.477612
0.000150302
2.45515e-07
-0.000394082
0.00199956
1.69374
0.392508
1.23654
-1.59359e-05
1.07351e-06
-0.260063
-0.00997111
-7.0126e-07
-1.77353e-06
-0.00700542
0.0084026
0.033447
-0.326322
-9.57158e-07
-5.89705e-06
-0.0190283
-4.13623e-06
1.8158e-06
-0.0564329
0.000486509
-2.82848e-05
2.34152
1.79114e-07
-0.00144269
-0.00856229
-1.32936
2.00053e-06
-5.56074e-06
4.05969e-06
2.19367e-06
0.00132816
2.23975e-06
-0.000273969
4.34081e-06
2.19431e-05
-8.45967e-07
5.31462e-06
3.17119e-06
-9.91446e-06
3.2224e-06
2.83152e-06
-2.51713e-06
0.0130129
-0.0388801
1.62231e-06
0.440733
0.00131852
-0.00937889
0.000166385
-0.000980588
-1.61657e-05
0.542
3.55173e-06
1.40557e-06
-3.73981e-07
2.49152e-06
0.454936
1.35979e-05
1.9752e-06
0.00017663
-0.000212217
-5.73914e-06
3.26984e-06
0.0363966
-1.84924e-05
-2.8456e-06
-0.0242809
2.12483e-06
-0.0318081
-0.0682653
0.0341077
-0.000121773
-2.00438e-05
-0.137887
3.29519e-07
2.99496e-06
0.0412588
3.31882e-07
2.78047e-06
-0.116408
-6.7637e-07
-0.173603
0.000764345
0.00264111
-0.0750296
-1.4181e-05
3.9888e-06
-0.0118279
0.00393242
-0.121367
0.827527
4.20837e-06
1.96898e-06
-1.45299e-05
-0.877852
0.00119737
-1.33123e-05
3.01144e-07
-1.89762e-05
-0.00123875
-0.007023
-0.000116587
-1.37553e-05
1.64301e-07
0.000150465
-0.45632
0.413505
-0.137877
0.0784314
-0.000624379
-0.000363984
0.359752
1.03775e-08
1.23369e-06
-6.50532e-07
1.94907e-06
-0.00631565
2.21584e-06
1.72176e-06
-0.000306467
0.000549265
-0.000108007
-0.0412141
-0.00175522
0.230132
-6.91818e-06
3.23688e-06
-1.85382e-06
1.61453e-06
1.89872e-07
-4.62292e-08
3.23736e-06
0.933283
-3.27049e-07
3.54875e-06
4.92437
-0.00417549
1.16138e-06
-1.7596e-05
-0.000136195
0.350033
-5.10518e-06
2.77694e-06
0.615495
-1.62077e-05
2.83899
-0.00021599
2.11469e-06
0.0339718
-0.00407096
4.72323e-07
-0.178505
0.763129
0.2408
1.71107e-06
2.83545e-06
3.20394e-05
0.00493951
-8.89096e-06
3.94119
-1.09062
0.565564
-0.151103
2.57986e-06
0.00068635
0.339288
-0.190144
0.605806
-1.11401e-05
2.52282e-05
-5.07866e-05
0.146403
-0.0343844
0.0948016
-1.79361e-05
3.38871e-06
-4.35234e-07
-0.00138175
2.96057e-06
0.0642552
0.000301659
0.579989
-1.81666e-07
-1.83578e-05
1.63561e-06
-4.73134e-05
-0.000271691
0.41732
2.92267e-06
0.00358228
0.25751
-5.53311e-05
-1.00775e-05
-1.13562e-05
-0.000129292
2.72198e-07
3.16194e-05
0.000519918
-3.2134e-05
-0.00401311
2.60073e-06
5.88788e-07
-3.66282e-07
-5.11962e-08
0.000350617
-3.06549e-05
0.00163798
-7.41776e-06
-1.06546e-05
-0.658409
3.09074e-06
0.00357793
-1.12288e-05
-0.00325389
-3.09408e-05
0.431646
2.77772e-06
0.933323
6.53624e-06
-8.10669e-06
-0.443583
-0.636417
0.0447486
-7.69481e-05
9.86634e-06
1.60682e-06
4.02778e-06
0.0070221
-0.000434067
0.00042671
-0.00788999
0.897307
0.00210395
1.99502e-06
-0.0495799
0.131085
-2.12835e-05
3.17345e-06
0.00241703
0.0687606
-1.92671e-05
4.51214e-07
-0.00114864
-0.00332408
-0.000350345
1.87126e-05
-0.00366459
-1.80718e-05
0.00124198
0.0549268
0.552632
5.52241
-0.00147923
0.0144071
2.12285e-05
1.34691e-06
-2.22102e-05
-3.22353e-06
-0.0359194
-0.277647
0.231394
0.00487765
-0.11749
-0.829916
-0.00315612
-5.92275e-06
0.155725
0.274804
2.77317e-06
0.0756787
-0.308072
-0.0627329
-0.000298833
2.93016e-06
-1.827e-05
-3.45727e-05
-0.00013892
-0.00021278
-2.34371e-06
1.12581
-2.05382e-06
-5.93765e-07
0.132427
-7.04524e-06
-0.00162358
0.455629
4.1757e-06
1.27038e-05
-0.227891
1.81492e-06
0.00400896
2.65638e-06
-0.655449
-6.72709e-05
0.000711239
0.00185907
2.61775e-05
0.00679987
4.39504e-05
1.42384
0.0044246
-5.47839e-08
0.412204
0.000766855
0.187097
-0.253282
-0.324183
-0.179982
-2.5398e-06
2.49898e-06
0.619352
-1.15632e-05
4.49459e-05
6.83877e-07
2.19075e-05
0.069613
-0.188272
-0.000308053
1.71843
-0.010372
1.38086e-05
2.9183e-06
6.63702e-07
0.00013547
-0.00127111
3.37436e-06
-0.0142823
-0.000527315
-0.000261416
4.64666e-06
-0.171164
-0.0126154
-5.52594e-06
3.04555e-06
0.00447425
4.41313e-07
4.05692e-07
-0.501251
0.0655204
-1.35556e-05
3.95326e-06
0.00470488
-0.000480235
-0.000174662
0.0062146
-9.32275e-06
0.410266
0.00110988
-1.86197e-05
-0.189205
-0.10953
2.12188e-06
-0.148584
1.65807e-06
3.86448e-06
-7.4736e-06
-0.00186256
0.0455268
0.000127347
0.0820725
-0.000260019
0.582004
-0.539381
1.975e-05
-0.115918
-6.12996e-06
0.291687
-1.92762e-05
0.600611
0.252114
-1.69428e-05
-0.0702549
2.97121e-05
1.92293e-07
0.167754
-0.00137302
-0.13331
4.38473e-07
0.404944
1.98023e-06
0.81608
-1.67146e-06
-0.000297435
-9.8077e-05
-1.35642e-06
3.88659e-06
0.00168518
1.55997
0.33013
1.89682e-06
-0.0190203
1.51525e-05
-1.2849e-06
-4.26964e-07
0.000146984
0.00797848
0.22941
0.000106291
-4.54798e-07
3.19891e-05
0.562952
-0.000207028
-1.58572e-06
-1.61513e-06
1.81536e-05
6.49881e-05
2.74377
-6.49576e-06
0.0672428
-0.000446224
0.400558
0.236128
-2.77234
3.42458e-06
0.00224081
-5.63476e-06
3.94054e-06
2.99618e-05
-1.27237
1.89756e-06
1.38496e-06
4.29424e-06
0.258302
-1.2513e-05
-1.29826e-06
-0.000190846
-1.23099e-05
-0.198604
-0.321368
2.75093e-06
2.42094e-06
-0.152434
-1.74807e-05
-0.190098
0.31612
-0.0337923
-0.088905
0.0307984
1.06884
-9.33302e-05
-3.22102e-07
-8.09231e-07
-1.56129e-05
-1.25784e-05
-8.01151e-07
-1.23223e-05
0.0150977
-3.57455
7.29844e-06
-0.00148143
1.70988e-06
1.62644e-05
-0.000144379
-6.22254e-07
1.93139e-06
1.47514e-05
-0.0141981
-0.0011531
-0.000511463
-0.127233
0.00110499
-7.27948
-0.00637596
0.524977
-0.269703
0.00120911
-0.179482
-9.51195e-05
-0.230482
2.62019e-06
4.11118e-06
1.54303e-06
-3.34006e-05
0.330298
-3.57903e-07
-1.69044e-08
-0.000526021
2.37623e-06
0.000372131
-0.00073859
4.76691e-07
-0.536294
6.8365e-07
1.69128e-06
0.00818433
1.32547e-06
-0.0067961
0.244641
-1.539e-05
-2.28695e-05
-1.00139e-06
0.000171063
1.71463e-06
1.7929e-05
-0.146796
-3.01431e-08
-0.28187
3.73782e-06
-0.325851
-6.52282e-05
0.0075832
4.445e-06
0.00414695
-2.57756e-05
-1.18456e-07
-1.4815e-05
-0.344555
2.78776e-06
-0.338601
-0.354807
-1.80751e-05
1.17746e-06
-4.45322e-07
3.80213e-06
-0.516934
3.82274e-06
-0.384572
-3.18215
-9.02016e-05
0.307543
2.19944e-06
-2.01137e-06
-0.0723679
-0.221708
-6.73822e-06
2.32559e-06
-3.1649e-06
-6.53627e-07
-3.66323e-05
7.31529e-05
0.145214
2.78735e-05
3.55553
-0.011302
-2.00137
5.21388e-05
2.8503e-06
0.0957208
0.00363901
-0.000260048
4.11785e-06
-9.32729e-06
-0.364835
2.55137e-06
-0.423736
-0.00125213
2.92304e-07
0.000259195
3.02458e-06
0.00010614
1.98223e-05
2.39748e-06
3.26876e-06
-3.21819e-05
0.349928
4.05294e-07
0.00214003
0.417684
-8.32774e-06
2.12867e-06
0.00125408
2.89245
0.00012535
-0.161134
2.44339e-06
3.77822e-06
-6.47571e-06
0.206328
0.187552
-0.00877141
1.92552e-06
-2.61561e-05
-1.18637e-05
-0.0925684
3.00391e-06
-0.350296
-0.000102631
-0.290618
5.95193e-07
1.99633e-06
0.0431336
-1.04273e-06
0.451399
3.73391e-07
0.0111478
2.62416e-07
-2.85611e-07
8.48214e-07
0.0199648
-0.0926983
2.45036e-05
-8.72536e-07
-1.28192e-05
-4.68783e-08
3.39921e-06
-1.98616e-08
-0.00178785
-8.96741e-06
0.679497
1.59283e-05
-0.162419
2.14843e-06
3.50698e-06
-0.150558
-0.21457
-0.115009
1.54344e-06
0.417717
1.7709e-06
18.1553
-1.34404e-05
-0.00835501
-2.41063e-06
0.370339
-2.69527e-06
1.92556e-05
-7.62094e-08
-5.32096e-06
2.76622e-07
0.537948
1.81766
0.396279
3.96927e-05
-4.51152e-05
2.5217e-05
1.36437e-06
1.69955e-06
1.69563e-06
-7.8619e-06
-0.00655643
-4.21828e-07
-0.216427
-0.00306466
2.46108e-06
-1.06424e-05
11.1308
0.00688847
-1.91008e-05
1.93502e-05
-0.00115981
-0.118921
0.00167079
0.315906
0.00218898
0.00405253
-0.0965042
-4.39592e-07
-5.67224e-06
-0.000192284
-0.00016817
2.39124e-06
0.909793
0.000975741
-0.0267816
-8.43282e-06
-0.107407
-0.00160086
-0.000716762
1.7167e-05
-2.92375e-07
0.3252
2.03572e-06
0.0896341
-7.62508e-07
-8.7505e-08
-0.162281
0.000143312
-0.000106716
0.173901
-6.61272e-06
0.00388589
-0.48931
3.53567e-06
0.00419149
-0.209676
-5.48889e-06
-6.22243e-06
2.21835e-06
-2.32038e-05
-8.84111e-07
0.0045657
-0.0821607
-3.58056e-05
0.000113425
0.545056
4.19263e-06
-0.0320943
-6.78142e-05
1.61715e-05
2.14437
0.0480508
1.79245e-06
1.92282e-06
3.17853e-07
1.89323e-06
1.38204e-06
-0.186518
2.16742e-07
-0.000131622
3.2737e-06
0.0158682
5.05144e-07
-0.0200139
-0.275434
-2.21338e-05
0.283445
1.86496e-06
5.56911e-06
-8.1799e-06
0.259264
0.000330539
2.47532e-06
2.81097e-06
6.55046e-06
-4.61146e-06
0.00130471
0.11632
-0.364288
0.382895
4.29965e-07
-1.09525e-05
0.00480467
-1.1183e-05
2.97311e-06
0.172674
0.159974
1.75231e-05
2.61315e-06
0.144102
4.61018e-07
2.86113e-07
0.471389
0.00409839
-1.98364
4.69478e-06
3.15278e-06
-0.142347
-3.83629e-06
0.000150339
4.59653e-07
-8.75035e-06
-3.84341e-07
-0.000917548
-0.0070832
0.000768836
-3.26402e-07
0.446608
-1.03162e-05
2.32845e-06
-2.23881e-07
-7.49363e-08
-5.83202e-07
5.29523e-06
-0.00449254
-6.40762e-07
0.418197
6.48259e-06
3.24341e-05
-0.251822
2.17241e-06
-0.00221757
-1.47535e-05
2.04623e-06
-1.09026e-05
0.00417586
7.29913e-07
9.04393e-07
4.09081e-08
7.4485e-07
0.0020875
1.23833e-06
-2.09021e-05
-3.35029e-05
-4.59578e-07
-0.000752161
-0.376257
0.532392
1.00085
-0.146071
0.00257411
-0.000682327
-0.102
0.490515
4.58636e-06
-1.3567e-05
2.23873e-06
0.0438201
-0.453665
-0.000283443
2.87225e-05
3.34209e-06
-8.805e-06
6.53104e-07
-6.26887e-06
0.307956
0.447941
-0.0515256
0.00110895
-5.41521e-07
4.96134e-07
1.81633e-07
-0.214725
-0.719871
2.96787e-06
-0.0254763
1.4921e-06
3.09623e-05
-2.89383e-05
-9.58029e-05
1.74235e-05
-1.35828
-1.84614e-05
-0.0408885
4.21004e-06
2.26593e-06
-0.00146192
3.14874e-06
1.33741e-06
0.00191949
0.0163155
2.92203e-08
0.0057583
3.04467e-06
1.06888e-06
8.16371e-08
3.31473e-06
0.113587
-1.41648e-05
-3.53786e-06
-3.38205e-06
0.279326
0.0570506
-7.31862e-07
-4.0128e-05
7.04218e-05
0.00393902
-0.0463779
0.00118675
-0.0183473
0.00275347
0.00561154
0.0107333
-0.0016838
-0.17079
3.40678e-06
2.47517e-06
-7.97833e-07
0.0759669
-1.73726e-05
-0.319526
3.04015e-06
-1.63572e-05
-0.171271
-0.000175031
-1.41739e-05
0.00713595
2.25991e-06
-6.5759e-06
0.0242221
-0.00854137
4.20022e-06
-0.0668887
-0.00399355
-0.931184
0.472681
2.13776e-06
-0.176989
2.65294e-06
-7.63258e-05
2.04443e-06
1.82188e-06
0.242366
0.000325984
2.0933e-05
-8.64044e-06
-0.129299
2.36727e-05
0.407518
0.00547019
2.80752e-07
2.93158e-06
-4.26338e-05
0.00412184
-0.00184988
0.000670503
-8.94362e-05
0.00118537
-4.49634e-07
2.60265e-06
2.89288e-06
2.53252e-06
-1.25889e-05
-0.00026475
-0.00357899
0.000466378
0.00606881
-0.165619
1.4398e-06
-0.237528
-0.00403781
0.00085911
5.06358e-07
3.52955e-06
2.68435e-06
2.15251e-06
1.78268e-06
-1.51602
-0.00411611
0.277568
0.000414617
0.00159965
-1.49725e-05
0.00131736
0.210981
9.11175e-06
-1.29484e-05
2.85046e-06
0.522902
0.421485
-0.00194781
0.00539965
-5.68542e-07
1.03224
1.09694e-05
-7.19064e-07
0.000627154
0.000624904
3.26766e-06
0.00408998
-0.0644436
2.98341e-07
-1.06094
0.373666
-0.309237
-1.52066
-4.04869e-05
0.466793
0.00111681
-0.0128282
0.286729
1.467e-06
0.000524489
3.61684e-06
3.71415e-07
0.31955
-3.27303e-05
-0.355252
1.10439e-06
4.40466e-06
-0.268072
-8.1194e-06
0.427509
1.16748e-05
0.239825
-4.31946e-06
5.42355e-08
-0.314929
-7.65015e-05
0.00329679
2.04859e-06
2.95454e-06
0.000443447
0.0446792
-4.15867e-07
-5.93479e-05
-0.0352224
0.00286818
-0.00257278
2.5286e-07
4.35408e-06
3.46415e-06
1.00492e-06
-4.23522e-05
-7.03276e-05
2.62889e-06
0.0960175
-2.4036e-06
5.46778e-07
-0.000686867
0.325492
-0.00442168
2.83765e-05
1.77338e-06
-1.6922e-05
-0.000488098
-0.00958162
0.0898727
-0.135523
-7.77796e-05
-1.29987e-05
-0.00231306
1.14009e-06
-0.000371873
0.294753
1.83437e-06
-0.005055
0.427237
0.0404762
0.810255
-0.206904
0.00350475
-9.32431e-06
0.661246
6.89938e-06
0.000813604
-0.000570815
-5.32972e-06
-0.00215651
1.82191e-06
-2.30834e-07
0.00116932
-0.0844697
0.000662893
1.77793e-06
-0.000331064
0.367093
-0.00252607
0.223551
4.4122e-07
0.457916
3.24903e-06
-0.00144065
-0.00355692
-8.41142e-06
-0.179132
2.80446e-06
1.94874e-06
-6.48202e-06
-2.53869e-06
-0.294437
0.00457855
3.66264e-07
-0.165523
-9.03507e-07
-0.134505
2.88402e-06
2.26985
0.00079987
-0.00463139
2.74834e-05
-8.9578e-06
1.42336e-06
1.22288e-06
-0.167124
-0.00914328
1.10965e-06
0.000663999
0.99008
-0.307178
0.000731675
0.512038
-0.0691056
-9.01981e-06
-0.231156
1.20768e-06
-0.00133535
1.24556e-06
-1.49058e-06
-4.66353e-07
-0.000715781
0.136147
0.00811979
-0.00262607
-0.00898171
0.254787
0.00656079
0.2903
1.46933e-06
-0.000884569
-0.227827
3.35359e-06
0.0011014
0.137789
-2.58362e-05
-3.05449e-06
0.622473
0.0023149
2.48943
-5.66625
1.19514e-05
-0.00211871
-1.04351e-05
-5.43349e-06
3.24678e-06
-0.0852918
-0.00438688
-0.115204
-0.00647588
2.01726e-06
0.0678526
0.00163416
3.0631e-06
-1.50246e-05
0.00130633
-6.08916e-07
1.32401e-07
1.68012e-07
-0.0478674
1.90852e-06
-3.7515e-05
-0.391041
1.39032e-06
1.84619e-06
-5.46366
2.89633e-06
3.68976e-05
-0.000125935
-0.00125204
0.00298524
-6.3636e-06
0.00283581
2.99668e-05
-0.00171354
1.24221e-05
2.11456e-05
-0.0237497
0.0407118
-0.000212712
0.0782456
0.0170206
6.44412e-06
0.0165185
0.235917
0.00400143
1.91578e-06
-4.7276e-09
0.106626
-3.89198e-05
-0.153299
-0.0657298
3.3748e-05
0.829142
6.31314e-06
-0.00667422
-0.19512
-1.24211e-05
7.27966e-07
-4.17934e-07
1.4794e-06
0.399782
0.596759
-1.20654e-05
-0.00526155
-0.00574874
-0.000460945
3.54268e-06
-2.17675e-05
-0.00064253
1.82676e-06
1.47465e-06
1.18582
-1.38471e-05
-0.0696754
5.6228e-07
1.30291e-06
3.1335e-07
-0.000438884
0.000254051
0.000124529
4.97498e-06
-5.67856e-06
-0.361757
0.185965
-0.00334533
-0.792452
8.62246e-07
-2.40423e-06
-0.418733
-0.00122082
-0.673008
-6.83096e-05
-3.19964e-06
-0.000189634
0.000173289
-1.78304e-06
1.9503e-06
0.00288223
0.00424426
0.129541
-0.000736969
-0.288322
3.30843e-06
9.27824e-06
9.592e-07
0.00782246
-0.426572
0.0120401
-0.0314975
-5.51053e-06
-0.131356
-1.50743e-05
1.69438e-06
2.73063e-05
-1.6062e-05
0.0122886
2.60307e-06
0.00455166
1.61193e-06
-0.0104784
6.39697e-05
4.78729
-3.10656e-06
3.8551e-07
-8.21308e-05
7.91991e-07
0.00167907
0.00791192
-0.381697
-0.000137148
2.64926e-06
-0.436056
3.80183e-05
-1.5568e-06
0.00219598
2.80334e-06
-2.54093e-06
3.3369e-06
-0.165638
2.23869e-05
-0.000594417
-8.73551e-05
-4.08987e-08
0.485201
2.45472e-06
-1.61455e-05
-2.12704e-07
5.07034e-06
1.72275e-06
-1.58824e-06
0.000107794
-5.68834e-08
2.49748e-05
1.20937e-06
1.73248e-05
-0.00900738
-0.767684
-1.06513e-05
0.000841658
-0.13739
2.22659e-06
2.65963e-07
-0.000573474
0.00742865
-2.84494e-06
0.000430706
0.120346
-5.63126e-06
0.0703239
1.36566
-6.51769e-07
1.09839e-05
-0.000260983
1.87007e-06
0.890483
0.34533
0.24923
-5.08831e-06
3.32373e-05
1.00415e-06
0.00194894
0.000410344
0.144524
2.84345e-07
0.00152053
-0.164172
0.00453188
-1.47846e-05
-7.03465
-0.19386
0.0789275
-9.16399e-06
-4.74153e-08
0.356913
-0.00259086
1.8692e-07
-2.13464e-07
0.420186
1.3123e-05
-0.00866009
0.0192229
4.06035e-07
1.08052e-05
0.301879
0.00349285
-1.08257e-05
2.95504e-06
0.00062625
6.68753e-07
0.0883625
-1.54154e-06
2.65015e-06
-1.20523e-05
-3.91005e-05
-6.41471e-07
-0.00320569
2.7922e-06
-3.79074e-06
0.681499
-0.0449113
0.395219
-3.80812e-06
-0.00194224
0.00482363
-7.44557e-06
5.07195e-06
0.000656791
2.19491e-06
2.34798e-06
0.100752
0.000456379
-2.39204e-06
-4.22324e-06
2.97144e-06
-0.0247908
0.208026
2.71408e-06
-1.39669e-06
1.42828e-06
0.0022228
-0.200052
-1.3946e-05
-0.00104616
-2.81758e-07
-0.000258014
-9.63205e-05
-0.0372531
-0.0936365
4.11691e-06
-0.0184333
-0.296772
-0.000255876
3.85843e-06
-0.00035823
4.18095e-05
-5.55136e-05
2.63777e-05
2.9129e-06
0.00725149
-0.000139974
-0.0144054
0.00371577
-1.88461e-05
2.78256e-06
0.499704
-1.69447e-05
8.62149e-06
0.00441942
-0.00141007
-0.531172
2.19082
3.01543e-06
0.0335862
-0.493997
-0.0302908
0.000188668
6.93101e-06
-5.29001e-07
-2.3296
0.00107782
2.82145e-06
0.000562329
0.00208538
-0.0113171
0.117346
-3.09366e-07
-9.13831e-06
-1.22993e-05
0.0254933
0.00528143
8.72117e-07
-0.000465591
3.43293e-06
-1.47316e-05
7.69483e-07
-0.400839
-0.000510565
-1.08402e-06
7.44119e-08
-0.00937196
2.62722e-07
1.16006e-06
1.28782e-05
-1.494e-05
-4.54145e-06
6.54454e-07
2.9666e-07
2.76628
1.54763e-05
3.23489e-06
-8.02035e-07
7.30884e-07
0.0788982
2.59993e-06
3.40143e-06
-0.247386
-0.481307
-6.51675e-06
4.31386e-07
0.00217252
-2.44e-05
0.00675624
2.49537e-06
0.702742
2.37252e-06
-7.27338e-06
5.6657e-05
-0.419868
-0.391587
-0.0325467
0.000672891
0.00647124
1.07481
-1.38646
0.0963098
2.93852e-05
-2.3978e-06
1.8676e-06
5.81278e-05
-2.40942e-06
-2.99805e-07
3.98797e-06
-0.0167
-7.66084e-06
0.449731
0.000101276
-0.00731393
1.52789e-06
0.0563586
-5.89821e-06
1.52934e-05
1.13915e-06
1.1267e-05
2.20268e-05
0.00380631
3.24358e-06
5.87008e-07
2.65653e-05
0.11118
2.03008e-06
0.000565577
2.80721e-08
-0.000153129
-0.364398
0.0751803
0.00882474
4.08775e-05
0.0126692
6.31643e-06
0.209593
-0.226983
2.36644e-06
-0.224894
0.738524
-5.31386e-06
2.42746e-06
-0.000200376
7.19677e-06
-1.84998e-05
1.24853e-06
-0.207541
0.00138514
-0.000512748
3.8271e-06
1.73832e-06
-6.03936e-05
0.0605612
0.646961
-0.0114795
0.000248169
-0.147222
-0.000453046
-0.587087
1.58667e-06
-0.00442077
1.51349e-06
3.42436e-05
-10.4712
-1.73245e-05
-0.0104694
-7.61102e-06
2.34571e-05
0.224597
1.48857
1.62004e-06
-0.483369
1.27749e-06
-0.275733
-3.32465e-07
-0.16514
-0.0988531
3.02907e-06
0.195483
6.82933e-06
0.205694
1.37529e-06
2.97003e-05
-1.56787e-05
0.000188253
9.64618e-07
-0.00927721
1.37053e-06
0.0492258
0.00174896
-0.0468277
1.1648e-06
1.29636e-06
-0.106118
-1.60221e-05
0.000249922
-4.34201e-06
-0.000906205
2.52036e-05
-5.18404e-06
0.22535
-1.45833e-05
3.36819e-06
1.96672e-06
-1.59819e-05
0.489788
0.000466302
1.71183e-06
0.256113
-0.279002
-0.219056
1.85293e-06
-0.00218524
-0.0101946
3.37938e-06
9.54736e-06
1.80337e-06
3.48715e-07
1.70488e-06
-2.11255e-07
1.70802e-05
2.40491e-05
-0.0479211
-0.119463
0.0276871
1.83481e-07
3.52437e-06
0.425936
0.000115835
2.92907e-06
-1.51785e-06
0.888309
-0.274391
-5.52462e-06
0.0127648
4.42312e-05
-0.113631
9.85854e-08
0.0325973
1.54394e-06
-2.68683e-05
1.93576e-07
2.40934e-06
-1.07757e-05
0.250023
4.18639e-07
-0.06109
-0.00986393
-0.364112
0.942234
3.80443e-08
-1.15597e-06
-0.0283457
0.000342429
0.0224892
3.62404e-06
0.00733535
9.56221e-07
-0.241565
0.216943
0.425454
8.25087e-07
-0.145266
0.486098
0.464125
0.174054
-3.5629e-05
-0.00278062
-6.62732e-06
-0.741977
-0.133222
6.55194e-06
0.475664
2.33491e-06
2.43411e-07
0.00148346
0.552159
-0.000104249
-0.0378137
1.36427e-06
0.0167092
0.000674367
0.000512006
2.97173e-06
-0.000345158
-0.286463
4.17626e-07
0.000526439
9.10452e-05
0.0108562
2.08885e-06
1.89278e-06
0.16599
-0.00398726
7.77739e-06
-0.00456558
-0.000690073
2.66785e-06
0.464816
-0.311624
-8.52136e-07
0.000751911
8.96445e-07
2.56274e-07
0.000996298
0.111905
-5.18834e-06
-0.264776
2.07314e-05
-2.4887e-06
0.0138775
-1.05805e-06
0.0035015
2.10727e-06
0.00253809
1.48134e-06
0.0102665
3.5027e-07
7.19467e-05
1.74825e-06
3.52207e-06
0.142605
-0.290373
4.5456e-05
-0.101486
1.53981e-05
0.401795
-0.0783051
0.417818
1.23654e-06
0.238195
0.227462
0.569981
-0.00530303
-2.09257e-05
6.00819e-07
1.53354e-06
-0.0634567
-1.35061e-06
-1.36087e-07
-0.257949
3.92858e-07
0.267797
1.57799e-05
0.044751
-1.0188e-05
3.80049e-07
0.00586323
3.06671e-06
0.00210268
-4.77705e-06
0.000424503
-0.00218861
0.570412
1.40869e-06
-3.92851e-06
-0.338594
0.550303
3.79552e-07
-5.14282e-06
0.000168047
1.31685e-05
0.00259093
0.0437734
-0.270643
-0.00538363
-0.0842906
-1.0608
0.00990953
2.43349e-06
1.10603e-06
-4.81597e-06
1.95703e-06
-0.00150447
-0.286397
0.330132
7.67317e-08
1.75484e-05
-1.2838e-05
0.183503
-0.226705
0.0445452
0.109763
-1.39075e-05
-0.0507502
-0.0408974
-3.37565e-06
0.291991
0.00101557
3.39984e-06
-0.222603
0.347287
-0.0988951
1.38441e-07
1.5635e-05
-0.000591475
-1.11234
-3.5754e-06
-1.48735e-05
3.99012e-07
2.88211e-06
9.1032e-08
0.171714
3.61289e-06
1.32544e-06
-0.379511
-4.48499e-08
0.0852951
0.00010753
0.0133407
0.068402
1.40871e-06
-0.352557
0.13655
-0.0564442
-1.47631e-05
3.36895e-05
1.37056e-06
-9.06786e-06
-0.158005
0.0150933
-0.00105575
-4.87264e-06
2.10877e-06
0.147653
5.61868e-06
-2.10545e-07
3.39252e-05
3.18036e-06
0.0793142
1.09186e-06
-0.333802
-0.154022
-1.46386e-05
1.43073e-06
0.186342
1.26152e-06
3.53158e-06
-0.00971856
2.18569e-05
1.90606e-05
-0.00186096
-0.013054
-0.229572
0.00043287
-1.05351e-05
-1.77617e-06
0.00223114
0.571224
9.88154e-06
0.000158207
-3.61024e-06
2.88985e-06
1.8385e-05
2.75509e-06
-0.0488534
-1.76812e-06
-1.32606e-05
6.21754e-06
-9.06598e-07
-6.20582e-06
2.75397e-06
1.91214e-06
-0.00355646
0.386338
-0.0824928
-0.00581457
-0.508749
0.130762
2.57374e-05
-0.141638
0.282216
-1.22002
-3.00301e-07
2.05236e-06
-0.00393142
-9.13698
0.00916284
-0.00957475
-0.168201
1.23528e-07
1.44912e-06
0.607257
2.04194e-06
0.00632412
-0.00479058
-8.42819e-06
-0.244887
0.444109
2.54132e-07
0.134701
0.537546
-0.0373858
-0.0115479
-1.6652e-05
-2.12087
-0.0212745
-0.192238
2.14036e-06
0.00101021
0.12152
2.26285e-06
0.000702178
1.95982e-06
0.000240679
-1.58042e-05
-0.258248
0.222372
-5.15235e-06
-1.77821e-05
-1.31152e-05
-0.150891
0.000292354
-1.70112e-05
-1.15423e-05
-0.619436
-3.71604e-07
-1.66922e-05
6.93962e-05
-0.12614
-8.92312e-07
-0.00996666
0.0027722
3.55742e-06
0.00769664
-1.56582e-06
3.98944e-06
-7.4479e-05
4.15821e-06
-0.000238023
-0.11912
0.0334586
1.98005e-06
0.499898
-0.197645
0.00520916
-0.152372
0.000696251
-2.30243e-05
-0.0468783
-8.00336e-05
-3.3082e-06
-5.5407e-05
0.00228206
1.19964e-06
3.90598e-06
2.17696e-07
0.0145012
0.239606
-0.180853
0.287357
2.23784e-06
1.56257e-05
-0.00117817
0.021791
-0.0584148
9.89839e-07
0.432911
1.52637e-06
-0.302123
1.86297e-06
0.257275
-4.67946e-06
0.506471
-0.0488135
0.000885706
-0.00626487
0.000271511
1.62213e-06
-0.00116354
-0.00972621
0.248717
1.22157e-05
1.04155e-06
1.59427e-06
-1.44396e-05
5.11147e-05
-8.91779e-08
-1.21372e-08
-5.7513e-07
0.00120668
1.96028e-06
-0.155782
5.03965e-07
0.236132
2.10129e-06
0.0140646
0.5249
-1.63802e-05
1.07661
1.18866e-06
1.63446e-05
7.53159e-06
1.68383e-08
-5.79259e-06
-0.0930648
0.00628189
-2.3881e-06
2.83936e-05
1.76688e-06
0.666642
0.000120451
-0.00259976
-0.0035505
-6.44264e-07
0.00124751
-1.71803e-05
-1.07607e-05
0.000285176
-4.64965e-07
0.000532024
0.509603
8.1001e-07
0.0229422
-5.48267e-05
-3.84131e-06
4.92642e-07
-0.145694
2.05353e-06
-0.317412
0.00855691
6.05267e-08
-0.166498
-0.00147092
0.349513
-5.49267e-05
2.28505e-05
-6.42726e-07
-0.00067229
0.0688149
-4.63357e-07
-0.00026069
-1.8451e-07
0.00662716
0.00307502
0.807006
0.123216
0.178457
0.000379894
0.320402
7.35919e-06
0.195246
0.0649106
1.50219e-05
-0.016738
0.00322202
3.61574e-06
-0.000268053
2.0137e-06
9.68795e-07
1.35191e-06
-6.85386e-07
3.99771
0.133344
0.00790061
2.06944
4.82365e-07
-5.53547
-3.3132e-07
3.87725e-06
0.000344382
-0.0731713
2.80109e-06
-0.174373
0.00186734
0.00741627
0.166388
-1.49324e-06
-2.70425e-05
0.609953
0.00104721
4.28952e-06
-0.0262162
2.12128e-06
7.04319e-07
3.49454e-07
-0.108754
0.548227
2.52689e-05
-6.56005e-07
0.279491
0.521978
1.57818e-06
4.54694e-07
-0.143114
-0.488778
-7.1185e-06
-0.0923108
-0.0035186
-1.2187e-06
-0.000180753
1.15611e-06
-0.397539
1.57094e-06
0.225325
0.0748472
-0.0807171
2.86784e-05
-0.000195341
2.91276e-06
4.28481e-07
0.202791
-4.34491e-07
0.597148
0.524395
-0.00108706
2.02378e-06
2.16964e-06
-0.241734
0.0625703
-0.00531099
-0.20991
-0.00230314
1.52401
-1.39468e-05
-0.131033
-0.081648
-5.73672e-05
0.208802
-0.268163
1.60279
-1.22234e-05
0.0407961
1.45231e-07
-0.205679
0.127135
0.113302
3.82219e-06
-0.000289739
-6.17461e-07
0.105854
0.434163
-1.80605e-05
-4.97636e-06
0.208034
0.31919
-1.15582e-05
0.121514
0.627357
-0.271146
4.02113e-07
-0.283651
-1.69051e-07
-0.93924
-6.95926e-07
-1.48816e-05
6.26175e-07
-2.98757e-06
0.769636
-0.00813086
1.28442e-06
0.502765
-0.115405
3.94347e-06
2.12759e-06
0.00103966
-0.00485137
0.00647758
8.47111e-05
0.256066
0.309396
-0.130655
-0.123525
0.00651134
-1.81568e-05
-0.000218977
-0.00328803
-0.00162396
-1.73526
0.189814
0.00635665
0.00198003
2.53437e-05
-0.113214
0.00441937
-0.0727788
6.81406e-08
2.37401e-05
0.0886314
-4.17053e-07
0.000100283
0.181867
2.26205e-05
0.000434297
-1.21797e-05
6.11617e-06
-0.113267
-0.0882077
3.48343e-06
2.44956e-05
-0.0749561
0.00221766
-0.000235565
-0.0121313
0.628783
0.000189152
0.00989555
-0.121258
-3.69943e-07
0.1293
0.00709927
0.826883
1.24996e-07
2.19302e-06
0.0518325
-0.0507195
-0.169087
0.138376
0.256718
-0.00147949
0.00179267
-2.78956e-06
-0.119125
2.02185e-06
7.86807e-07
0.000930068
-0.000655352
-0.00221937
-0.227027
-2.17827e-05
0.029892
0.234063
-1.01214e-05
0.0027375
5.73518e-06
0.176697
-0.00466689
0.000386039
0.319438
-0.159781
0.410742
0.000184316
7.41775e-05
1.79726e-06
-9.99994e-06
1.73251e-05
-8.38684
-0.203726
-0.176684
0.204017
-0.000140645
-2.02824e-06
0.07447
0.000231981
-0.0933899
-4.10511e-07
-0.455491
-0.000219452
-0.0152894
1.72502e-07
-1.37001
-0.000815142
0.00400214
1.54726
2.80859e-06
2.05975
0.231074
-8.93208e-07
-0.00193873
0.069993
-4.15779e-06
-0.233338
-4.03809e-05
-4.91897e-06
3.04526e-07
0.582368
-0.000193467
0.215119
1.06167e-05
0.418521
1.10476e-06
3.63084e-06
-3.44479e-07
1.02312e-06
1.61306e-06
-0.153809
0.186206
0.176736
-2.49307e-08
7.33292e-07
0.203451
2.17692e-05
0.182512
0.00603092
1.92656e-06
-0.0462729
5.41216e-06
0.000563734
0.0431677
-6.0004e-05
0.303171
0.0225295
-9.93144e-07
2.83128e-06
-0.356051
3.43029e-06
-0.517767
-0.335541
0.0306075
-2.04798e-06
-0.254951
-0.216559
4.25445e-06
1.33534
-9.61202e-08
-0.12871
-0.0984927
2.11652e-06
1.73541e-05
0.0113158
0.000192281
1.31443e-06
3.7979e-06
-3.99643e-07
0.253217
-0.000147874
-0.0023037
0.0498612
-0.190701
1.65998