/*--------------------------------*- C++ -*----------------------------------*\
| =========                 |                                                 |
| \\      /  F ield         | OpenFOAM: The Open Source CFD Toolbox           |
|  \\    /   O peration     | Version:  v2012                                 |
|   \\  /    A nd           | Website:  www.openfoam.com                      |
|    \\/     M anipulation  |                                                 |
\*---------------------------------------------------------------------------*/
FoamFile
{
    version     2.0;
    format      ascii;
    class       surfaceScalarField;
    location    "1000";
    object      meshPhi;
}
// * * * * * * * * * * * * * * * * * * * * * * * * * * * * * * * * * * * * * //

dimensions      [0 3 -1 0 0 0 0];
oriented        oriented;


internalField   nonuniform List<scalar> 
27907
(
-9.69605e-05
-0.00022769
0.000324669
-0.000199957
0.000266285
-6.6325e-05
0.000299434
0.000140953
-0.000378509
0.000156355
-0.000296157
0.000139805
0.000163338
-0.000250986
8.76479e-05
-0.000123289
0.000244853
-0.000121563
-0.00016231
0.000181216
-1.89059e-05
-0.000852118
-2.27678e-05
0.000903476
-8.68083e-05
-0.000205812
0.000292632
-0.000347328
0.000604197
-0.000256495
-0.000899255
0.000458902
0.000441575
0.00012844
9.91167e-05
-0.000227556
0.000131809
-5.81974e-05
-4.12445e-05
0.000262579
0.000101299
-0.000363843
0.000111889
0.00065073
-0.000760587
-0.000138352
0.000287045
-0.000148691
0.000590249
-0.000437119
-0.000152912
0.00109968
-0.000314735
-0.000767845
-0.000978517
0.000933063
4.98227e-05
0.000172055
0.000378677
-0.00055049
-0.000107664
0.000180283
-7.26188e-05
8.54809e-05
7.45079e-05
-0.000157404
0.000147412
-0.000239236
9.18239e-05
-0.000168467
-6.39375e-05
0.000232409
-0.000324722
0.000185496
0.000139231
3.83846e-05
-0.000858873
-0.000262454
0.000147689
0.000114766
0.000190058
-0.000247524
5.74658e-05
0.000209798
-0.000271493
6.16975e-05
-0.000210975
2.24957e-05
0.000188481
-0.000313207
0.000504257
-0.000190951
0.000189756
-7.79517e-05
-0.000111805
2.88215e-05
1.63437e-05
-2.95506e-05
-2.88671e-05
0.000779031
-0.00074807
0.000156184
-0.000396154
0.000240004
0.00012609
0.000427674
-0.000551901
-2.34844e-06
-3.61754e-05
4.9191e-05
0.000195542
-0.000966991
0.000775018
0.000921423
-3.76518e-05
-0.000880963
0.000611704
-0.00023332
-0.00037818
0.000439674
0.000606192
-0.00104219
0.000427774
0.000312867
-0.000740321
-0.0010929
0.000268804
0.000836552
0.000619293
1.34206e-05
-0.000632331
-0.000220995
-1.27984e-05
0.000233796
-5.19635e-05
-0.00033332
0.000427394
-4.13645e-05
0.000188777
0.00057789
0.000157262
-0.000734225
0.000336399
-0.000683302
0.000945177
-4.37738e-05
-0.000886306
-0.000253163
-9.54032e-05
0.000348592
0.000182483
6.44508e-05
-0.000246934
-0.000272361
0.000680681
-0.000375819
-0.000310436
-0.00058747
0.000193128
-3.06911e-06
0.000281181
-0.000140257
-0.000140921
-4.71384e-05
5.52933e-05
-0.00021514
-0.000125671
0.000782939
-0.000958254
0.000177542
4.47864e-05
-0.000370432
0.000325677
-0.000420102
0.000132157
0.00028797
3.32495e-05
-0.000195559
-0.000303997
-6.17431e-05
0.000365773
0.000392749
-0.000867257
0.000475195
0.000302785
-0.000546417
0.000111748
0.00079137
-0.000901657
0.000567685
3.45714e-05
-0.000602046
-1.33012e-05
5.52577e-05
0.00108447
-0.000138949
-0.000940935
0.000203344
-2.08605e-05
-6.63451e-05
-0.000117699
0.000184045
0.000871388
-9.85694e-05
-0.00077204
5.41794e-05
0.000905302
0.000142896
-0.000198317
5.54215e-05
0.00105493
-0.000101401
-0.000936527
-0.000740943
0.00103443
-0.000290861
7.13743e-05
-0.000351463
0.0002801
-0.000211018
0.000199824
1.11953e-05
0.000265253
-0.000396987
0.000131753
-6.17042e-05
-0.000135778
0.000197482
0.000105679
0.000115391
-0.000221069
-0.000141234
-9.22887e-05
0.000233525
-0.000235073
0.000279883
0.000275463
-0.000132158
-0.000143304
-0.000229193
0.000300579
0.000464759
0.000246136
-0.00071045
0.000112438
0.000118198
-0.000230636
0.000101155
-0.000405119
-0.000110147
-6.83337e-05
0.00017848
-0.00106038
0.000322226
0.000139404
0.00013606
0.000994168
-0.000208857
7.03329e-05
0.000173297
-0.00024363
-0.000302247
0.000730312
0.000170197
6.69737e-05
-0.00023717
-0.000116717
0.000187051
0.000112611
-0.000341791
0.000309404
0.000760248
-0.00119069
0.000372166
0.000822732
-0.000192658
8.49939e-05
-0.000259584
0.000550916
-0.000291095
-0.000270201
9.48535e-05
0.000175348
0.00032317
-0.000410319
8.72023e-05
0.000483179
-0.00011189
-0.000371184
0.000116039
7.37175e-05
3.84395e-05
-0.000249413
0.000123548
0.000135479
-0.000259024
4.51977e-05
-0.000256216
0.000790889
-0.00100053
0.000211522
-0.000825281
3.96469e-05
0.000785884
-0.000227468
0.000110752
-3.25638e-05
0.000909098
-0.000821563
-5.87088e-05
0.00103504
-0.000196067
-0.000836252
-9.29901e-05
-0.000132597
0.000225589
-0.000148674
0.000165496
-1.68225e-05
0.000124898
7.5569e-05
-0.000200467
0.00077254
-0.000658645
0.000159799
-0.000242293
8.24949e-05
-1.07941e-05
0.000180992
0.000671064
-0.000483097
-0.000187709
-0.000168209
-0.000539577
0.000708917
-0.000242251
2.20508e-05
0.000220202
0.000228759
-0.00018521
-4.35474e-05
-0.000282053
0.000154881
0.000127176
6.73726e-05
-0.000288365
7.45145e-05
-0.000274467
-0.000310809
4.71089e-05
0.000263706
-2.93722e-05
0.00020267
-3.49187e-05
5.47356e-06
6.97766e-05
0.000403219
0.000187226
-0.000150054
-0.000112398
0.000109316
7.09668e-05
-0.000128136
0.000395163
-0.000266978
-1.86511e-05
-0.000153393
0.000113525
0.000508808
-0.000621854
-2.21756e-05
-0.000329273
0.000324193
0.000287694
-0.000115249
-0.0010696
-0.00042386
0.000327528
9.63445e-05
-5.54403e-07
0.000265822
-0.000309445
0.000229965
7.9486e-05
-0.00059068
-0.000331945
0.000925356
0.000106327
0.000174856
-0.000356286
0.000798943
0.000855125
1.28377e-05
-0.000864172
-0.000136085
-4.41778e-05
0.000180263
0.000138241
-0.000232535
9.42936e-05
-0.000483367
0.00017026
-0.000273266
4.25247e-05
0.000230742
0.000108134
-0.000249366
-0.00022256
0.000256512
-3.39489e-05
0.000350623
-0.000700123
0.000349949
-0.000124773
-6.98827e-06
0.000138877
-7.25035e-05
-0.000120376
0.00019288
0.000745281
-0.00049729
-0.000247441
0.000204352
-4.4553e-05
-0.000112543
0.000691275
-0.00112699
0.000617738
0.000510842
4.06624e-07
4.25778e-05
-4.15305e-05
-0.00105441
0.000251383
0.000813672
-0.000146596
-0.000150767
0.000297385
-0.000104046
-0.000114803
0.00021885
-0.000443072
-0.000682185
-0.000101614
-0.000318462
2.97432e-05
0.000180056
-0.00099645
0.000993376
7.26795e-06
9.56209e-05
-0.000244182
0.000148563
0.00017439
0.000127455
-0.000301833
0.000239713
-0.00012004
-0.000119672
7.77201e-05
0.000119467
-0.000197187
0.000507938
0.000605435
-0.000224426
0.000120381
0.000137137
8.25406e-05
-0.000219678
-0.000310685
0.00016411
-0.000297895
0.000129433
-9.51104e-05
0.00025407
-0.000158957
-0.000272441
0.000665724
-0.000154047
-0.000269797
-3.20832e-06
0.000845309
-0.000839161
0.000833527
-0.000104601
-0.000700298
-0.000103923
-7.15367e-05
-0.000233405
1.08493e-05
-0.00120761
0.000388786
0.000829469
-0.000809841
0.000212915
0.000597736
0.000349445
-0.000246093
-0.000103345
0.000189086
0.000741614
-0.000927148
6.75412e-05
-0.000216215
0.00100719
-4.62274e-05
-0.000944989
8.71401e-05
-0.000941545
0.00085731
-0.000352863
0.000224765
7.60364e-06
-0.000318405
-0.000870337
0.000331766
0.000540131
-0.000338369
-0.00014489
-0.000525048
0.000471257
5.39049e-05
-0.000253753
0.000354939
-0.000348101
0.000520385
-0.000135223
0.000309625
6.801e-05
-0.000422498
0.000369945
-0.00101522
-6.26332e-05
0.000383247
-0.000168886
-0.00021435
0.000692208
-0.000803754
-0.000378125
-0.000136842
0.000515172
-0.000394341
2.62729e-05
0.000368115
0.000111317
4.95459e-05
-0.000107128
-0.000417777
-0.000388419
-2.1613e-05
0.000410082
6.35065e-07
-0.000120229
-6.85804e-05
0.000177497
-0.000108917
-0.000274921
0.000611706
0.00107155
-0.000310261
-0.000745615
0.000364795
0.000118475
0.00100327
-0.000685017
-0.000316603
-0.000262821
-0.000155048
0.000418021
0.000242405
0.000162722
-0.000405106
-0.000273334
0.000133029
0.000140306
0.000310699
-6.82787e-05
0.000285102
-0.000161191
-0.00012391
-0.0011233
0.000517928
0.000625869
-0.000238048
0.00011476
0.000772605
4.00869e-05
0.000752235
3.81398e-05
0.000249114
-0.000287239
6.79178e-05
-0.000204003
-0.000317132
0.000205739
0.000111402
2.86067e-05
-0.00041697
0.000507904
2.22082e-05
-0.000530016
-0.000268504
-0.000146914
0.000415486
-0.00058065
-0.000354884
0.000945247
-0.000466234
0.00010478
0.000361502
-0.000692195
0.000805153
-0.000402183
0.000148466
-0.000193399
-3.5967e-06
0.000196996
-0.000176099
0.000288721
-5.28384e-05
2.25313e-05
-0.00083696
0.00102983
0.000531771
-0.00110159
1.26669e-05
0.000419954
-0.000391792
-0.000269304
2.70547e-05
-0.000123079
-0.000327089
0.000450359
-0.000983236
0.000958466
3.44526e-05
-0.00031898
0.000186469
0.000132517
0.000236327
-0.000112776
-0.000412103
0.000757086
-0.000343521
-1.60635e-05
-0.0002572
0.00018681
-8.38519e-05
-0.000102958
0.000116295
-0.000292383
-0.000484446
0.000611981
8.08913e-05
0.00014004
-0.00022093
-0.000313613
0.000576918
-0.0002632
0.00049256
-0.000664351
0.000173865
-0.000137907
0.000233529
0.000563784
-9.8655e-05
0.000315327
-0.00062883
-0.000966711
0.000305353
0.000663561
0.000622837
-0.000555472
-6.71964e-05
-7.59945e-05
0.00027795
-0.000201949
8.76953e-05
0.000197407
0.000231444
-0.000494096
0.000206781
0.000172064
-0.000378823
-0.00106043
0.00104317
-0.000162372
0.000470777
-0.000308324
0.000766734
0.000213456
-0.000973351
6.50949e-05
-0.000459382
0.00037414
-0.000648648
-0.000198909
0.000237061
-0.000153681
0.000177207
-2.35259e-05
-0.000295109
-0.000802633
-0.000972976
0.000260237
0.000714682
-6.29246e-05
-0.000184898
0.000247829
-0.000724013
-0.000246931
-0.000549969
-0.000258921
-0.000439906
0.000231739
-0.000268394
3.66566e-05
-3.8642e-05
0.00016354
0.00101198
-0.00103
2.09165e-05
0.000454706
-0.000311583
-0.000143087
-5.98589e-05
0.000151953
-9.20937e-05
0.000153582
-0.000245868
0.00030324
0.000501137
-0.000803107
-0.00110323
0.0010945
1.66795e-05
1.84926e-05
0.000435645
-0.000453771
0.000384261
-0.000507125
0.000342791
-0.000930799
0.000128354
-0.000188213
-0.000146431
-0.000172543
-0.00030341
0.000232961
7.04553e-05
-6.61438e-05
-0.000234764
-6.91407e-05
0.00100753
-0.000927034
0.00040406
-6.03474e-05
-0.000461439
0.000246078
0.000215413
-0.000134056
-0.000139278
0.000123008
0.000561241
-0.000684099
-0.000190184
0.00029363
8.18707e-05
-0.000375468
-0.000656935
0.000171377
0.000485947
0.000186571
-7.87786e-05
-0.000895154
5.94666e-05
-0.000234567
0.000175108
0.000107555
0.000387692
-0.00039471
-0.000236882
0.000163097
7.3786e-05
-0.000318884
-0.000154574
0.000473564
0.000866176
0.000222603
-3.29197e-05
0.000544038
-0.000510811
0.000447526
-1.05725e-05
-0.000436901
-0.000446127
-0.000297642
0.000745615
-0.000145384
0.000640258
0.000146803
4.54291e-05
-0.000192232
-5.66455e-05
-0.000246756
-0.000178348
-0.000732252
0.000916764
-0.00017956
3.54888e-06
0.000176012
0.000207014
-0.000198031
-0.00011909
-0.000931338
-0.000111913
0.00104868
6.51159e-06
-0.000172099
-5.54239e-05
0.000227528
-0.000876216
0.000465738
-0.00108227
-0.000112753
-0.00114495
0.000432926
0.000716729
-0.000753999
7.16412e-05
0.000682603
-0.000173072
0.000300538
9.31589e-05
0.000354411
0.000492503
-0.000473614
-0.000625395
0.000298495
-0.000179771
0.000558697
-0.000583129
0.000230322
-0.000915003
-0.000138006
-0.000122012
0.000123846
0.000280883
-0.000233769
-0.000465143
0.000270152
0.00019505
0.000312329
0.0001424
-8.5465e-05
0.000241822
0.000599818
-0.000476684
-0.000320941
-0.00054773
-4.36502e-05
8.87662e-06
8.42711e-05
-0.000159195
0.000218669
-0.000134696
-0.000102185
-0.000442599
0.000984197
0.00104968
-0.000285242
-0.000747759
0.000534378
-0.000966739
-0.000497806
0.000611801
0.000241239
-0.000509665
-0.000142908
-0.000181809
-0.000980288
0.00081366
-3.37825e-06
-0.000796594
0.000800333
-1.99419e-05
0.000935994
-0.000902146
-0.00029833
0.000159979
-0.000224264
-8.51733e-05
-0.000128756
0.000354539
-0.000225766
-0.000443433
0.000257011
0.000186439
-0.000295124
-0.000496276
0.00079332
0.000232614
-0.000282297
4.96889e-05
-0.000362223
0.000265286
0.000603982
-0.000405227
-0.000198551
-0.000538503
0.000276722
0.000261856
-0.000113852
0.000126431
6.91952e-05
-0.000195626
0.000126342
0.000223109
-0.000454962
0.000461035
1.47872e-05
-0.000377722
-0.000157282
0.000535208
-0.000303638
0.000169327
0.000134314
1.27465e-05
0.000218993
0.000801013
-0.000520852
-0.000279549
-0.000983117
0.000925164
0.000179789
-0.000448351
0.000268643
0.000424333
0.000600548
-0.00102092
0.000619891
-0.000474556
-0.000144961
-0.000190742
0.0002857
-9.49555e-05
-9.48834e-05
-0.000149427
0.000244312
-0.000373528
3.13058e-05
0.000342261
0.000399442
-0.000578954
6.18327e-05
-0.000215514
0.000731231
-0.000960294
0.000230741
0.000699785
-6.60862e-06
0.000945868
-0.000821545
-0.00012082
-7.70808e-05
0.00100124
0.000457642
-0.000221934
-0.000235663
-0.000483786
0.000727542
-0.000242941
1.60143e-05
-0.000195575
-8.30053e-05
-0.000182396
0.000265408
-0.000298897
-0.000665616
-0.000971489
0.000799759
0.000215801
-0.0001155
-0.000100301
5.0487e-05
-0.00042397
-0.000254943
0.000168144
0.000948113
-0.000215246
-0.000368073
0.000452562
-8.43673e-05
-0.00099307
-0.000102147
0.000309506
-0.000705313
0.000396087
0.000242011
-0.000780998
-0.000942828
0.000668259
0.000156011
4.38142e-05
-0.000199825
-0.000157862
8.92817e-05
8.01147e-05
0.000102625
-0.000182739
-0.000115029
-0.00011715
0.00014174
2.10704e-05
-0.000346763
0.000254968
9.18087e-05
0.000235602
-0.00011332
-0.000122282
0.000449911
0.000173076
0.000239995
0.000694019
-0.000335844
0.000250382
0.00101973
-0.00100523
-8.19355e-06
-2.63589e-05
-0.00081225
0.000842087
9.04665e-05
0.000770727
0.000203669
0.000254006
-0.000864681
0.000906832
-4.03562e-05
-9.62891e-05
0.000715973
-0.000230523
-0.000212889
-0.000266347
0.000132665
0.000133684
-0.000162225
-0.000976002
0.000199256
-3.59181e-05
0.000404815
8.94753e-05
-0.000494139
-0.000963167
3.82017e-05
-0.000781851
0.000384943
0.000397647
0.00021813
0.000816444
-0.00103224
0.00075459
-0.000131979
-0.00052459
0.000267103
0.00014489
-0.000411917
-0.00028988
-0.000293176
8.92277e-05
9.75826e-05
0.000381048
0.000290183
0.000267937
0.000565562
-0.000831194
-0.000218026
0.000155106
-9.61288e-05
-0.000135388
0.000231518
0.000287594
-0.000198446
-8.91443e-05
-0.000126863
0.000204583
-0.000415261
0.000149072
0.000266234
0.000303042
0.000551831
-0.0008535
-0.000756242
-0.000162591
-4.8643e-05
-0.000923513
0.000867174
0.000137525
0.000440869
-0.000409517
0.000544529
-0.000332438
-0.000211907
-0.000544492
-4.14655e-05
0.000586303
0.000232764
-0.000551526
0.00059715
-0.000301766
0.000137172
0.0001646
0.000351823
-0.000588756
0.000808646
-0.000188337
-0.000436794
0.000110501
-0.000220648
-0.000482348
0.000751191
-0.000267924
-0.000277036
0.000182155
6.01993e-06
-8.27691e-06
-0.000939898
0.000205056
-0.000139147
-6.59087e-05
-0.000408608
0.000555599
-0.000146794
0.00066087
-0.000929619
0.000270783
0.000217535
-0.000293522
-0.000202131
0.000358348
-0.000244922
-0.000216471
-0.000216064
0.000186693
0.000372029
0.00066399
0.000297986
-0.000798387
0.000501334
0.000125855
0.000224897
-0.00012578
-0.000656862
0.000485106
0.000171819
-0.00022383
-0.000144229
0.000368103
-0.000116165
0.000378776
-0.000104093
-0.000197667
-0.000178102
0.000100168
7.79338e-05
-0.000269099
0.000905657
-3.35093e-05
-0.00011107
0.000324949
-0.000213854
4.06071e-05
0.000997074
0.000109435
0.000331475
0.000791913
-0.000612144
-0.00017848
1.95963e-05
-0.00023566
0.000120419
-0.000488362
-0.000177175
-0.000126458
0.000101213
-0.000645324
-0.000518556
0.000321086
0.000197555
0.000440878
-0.000220728
0.000156795
-0.000936422
0.00100564
-7.61634e-06
0.000134047
0.000130394
0.000818649
-0.000234834
7.74627e-06
0.000227094
0.000397514
-0.000881719
0.000490389
-0.000157919
-9.85872e-05
0.000256512
0.000481629
0.000138618
2.41359e-05
0.0007549
-0.000770935
0.00128442
-0.000907378
0.000779124
-0.000663999
0.000154334
-0.000285847
0.000131516
-0.000196319
0.000170824
2.54954e-05
-0.000209895
0.000116906
0.000439539
-0.000598514
0.00015917
0.000756819
-0.000231301
-0.000524609
-0.000376586
0.000366057
-9.06244e-05
9.18165e-06
8.55786e-05
6.25058e-05
-7.9937e-05
1.62706e-05
0.000122577
0.00010969
-0.000232266
0.000565654
0.000723485
0.000859261
-0.000852221
-5.75313e-06
0.00042501
-0.000131346
-0.000403718
-2.57911e-05
-0.000454295
0.000230519
7.51263e-05
-0.000451662
0.000870206
-9.87047e-06
-0.00100001
0.000137625
0.000648512
-0.000356671
-0.000291668
0.000415378
-0.000896617
0.000328723
0.000417008
0.000244388
-0.00026045
-0.00078831
0.000354579
0.000434208
-0.000367493
-0.000289289
0.00076135
-0.000258121
-0.00050272
-0.000482484
0.000752936
0.000204472
-7.6694e-06
-0.000196802
0.000690886
-0.000954935
0.00026459
-0.000900517
0.000161372
0.000740677
2.97758e-05
-0.000208515
0.00017874
-0.000164606
0.000191653
-2.70471e-05
-0.000250332
-0.000268128
-3.12946e-05
0.000210487
-0.000179188
0.000404589
0.000396948
-0.000858784
-0.000208613
4.40072e-05
-4.66204e-05
-0.000945232
-0.000185534
0.000103423
8.21108e-05
7.34845e-05
-0.000308311
-0.000727015
0.000824492
-9.03828e-05
1.10744e-05
0.000233316
0.000240223
0.000418161
-0.000238295
-0.000130874
0.000155476
2.49778e-05
-0.00017845
-0.000286627
-0.000249523
0.000172957
7.65667e-05
0.000804715
0.000976328
-9.76841e-05
-0.000873831
-0.000167266
0.000819832
0.000320885
-0.000765303
0.000787525
7.07035e-05
0.000123027
0.000145704
-0.000214095
6.25058e-05
-0.000138212
-0.000128134
-0.000623934
-7.99826e-05
0.000704666
-0.00014304
0.000172784
-1.23625e-05
-0.000849205
0.000862837
-0.000222737
-0.000114262
0.00033702
7.55465e-05
0.000945619
-0.000173076
8.56383e-06
-0.000849535
0.000189145
0.000661164
-0.000110946
0.000369772
-0.000247705
-0.000453226
0.000757658
0.000321643
-0.00064028
0.000318945
-0.00084983
0.000849596
0.00040117
-1.52092e-05
-0.000385924
-0.000227934
-7.03952e-05
0.000941941
-4.61443e-05
-0.000869097
0.000196481
3.39879e-05
-0.000230468
-8.2206e-05
-0.000114809
0.000197015
-0.00018438
0.000485608
-0.000301179
-0.000303477
0.000192426
-0.000118986
0.000199101
0.000622626
-0.000366423
-0.000421332
-0.000498413
0.000693526
-0.000194628
-0.000138655
7.23103e-05
0.000142238
-0.000765357
-0.000563313
0.000374658
0.00018883
0.00011577
-0.000909808
0.000796752
0.000133683
-0.000248885
0.000115202
-0.000640021
0.00016108
0.000479127
1.07011e-05
-0.000234957
-0.000263145
0.000392021
-0.000128848
-0.000129838
0.000163087
-0.000706475
0.000938511
-3.27044e-05
-0.000902855
0.000401204
-0.000534456
0.000133344
0.000233481
6.03469e-05
-0.000293824
0.000805457
-0.000174292
-0.000107754
-0.000378167
0.000959466
-0.000580261
0.000129722
0.000106608
-0.000464116
0.000789555
-0.000324195
-0.00110963
0.00113663
-2.0325e-05
0.000736578
6.64166e-05
-0.000316973
0.000372583
-2.94639e-05
-8.49687e-05
-0.000113197
0.000198166
-9.37836e-05
0.000223507
0.00076113
0.000188942
-0.000281978
-9.47443e-07
0.000282938
-0.00020648
-0.00032264
0.00052929
0.000163193
0.000124405
-1.50111e-05
-0.000181308
-0.000299237
0.000127145
0.000203059
-0.000258703
5.56484e-05
-0.00119813
0.000596655
0.000605586
-0.000143188
-0.000104335
0.000137645
-0.000475902
0.0010521
-0.000211832
-0.000837161
0.000132852
0.000434995
0.000187028
0.000114254
9.08025e-05
0.000795839
-0.000822475
0.000704993
-0.000851074
0.000146199
6.97955e-05
-0.000853305
0.000785923
0.000206012
-0.000309414
0.000153431
0.000172526
3.53006e-05
-0.000207827
0.000375154
3.48024e-05
-0.00040992
0.000194604
0.000107823
0.000127779
-0.000812074
-3.67856e-06
0.000816886
-0.000279782
0.000359568
-0.000468042
0.000354304
0.000113834
0.00010729
-2.05682e-05
-0.000154257
-0.0008896
0.000710425
-0.00038839
0.000724312
8.15771e-05
-0.000804096
0.000339459
-0.00013196
-0.000507854
0.000296027
-7.44769e-05
-0.000221536
0.000159807
6.08946e-05
-0.000220701
0.000328631
-0.000472804
-0.000444804
0.000848938
-0.000700189
0.000291806
0.000369378
-0.000158579
-0.000210773
0.000161631
5.6643e-05
-0.000218274
-0.000238663
-0.00032444
-0.000233508
1.67277e-05
0.000216783
0.000553053
-0.000192736
-0.000360189
0.000953938
-0.000191
6.91124e-05
-0.000351076
-0.000208455
-6.48088e-06
0.000214938
0.000854758
-0.00052148
-0.00135121
0.000537038
0.000824265
-0.000129923
0.000298137
-0.000168211
-0.000130797
0.000160814
1.4128e-05
-0.000310507
-0.000107161
0.000176357
-8.97672e-05
-8.56927e-05
-2.21567e-05
0.000255642
0.000887245
-0.000916144
-0.000117187
-5.2485e-05
0.000169672
4.3976e-05
0.000165647
-0.000209623
-0.000106228
0.000290266
-0.000773218
3.38221e-05
-0.000495509
7.81049e-05
0.000172449
-0.000250552
-5.7145e-05
5.7145e-05
-0.000119992
-0.000176895
0.000296905
-9.06366e-05
-9.48972e-05
0.00027926
-0.00036681
8.75637e-05
-0.000216423
8.65852e-05
0.000394871
-0.000290164
-0.000104655
-8.0869e-05
-9.62724e-05
0.000177141
-0.000141662
0.000408837
-0.000299669
-0.000562618
0.000863902
0.000804186
-9.90501e-05
-8.67463e-05
-9.56984e-05
0.000182445
-7.1344e-05
0.000283776
-0.000212428
0.000190779
0.000116765
-0.000266191
0.000890777
-0.000287607
0.000167631
-9.65852e-05
6.71298e-06
0.000112951
0.000395035
-0.000397033
0.000147059
0.000250027
0.000179658
-0.000432793
-0.000836969
0.000117903
0.000654611
5.80095e-05
-0.000712262
-0.00027674
-7.00092e-05
0.000204406
-7.9245e-06
0.000107718
-0.000194465
-0.000188507
1.31516e-05
0.000175355
0.000435414
0.000168755
-0.000499846
0.000240437
-0.000172899
0.000289205
0.000747377
-0.000750419
0.000977954
-0.000949811
-2.05309e-05
0.000821259
-0.000959113
0.000141807
-0.000873496
0.000388126
0.000486288
0.000254013
0.000385952
-0.000752096
0.000367567
-0.000143681
-0.000253295
-0.00111835
0.000941553
0.000188069
-2.61771e-05
7.04503e-05
0.00100478
-0.000179794
-0.000806909
0.000106768
0.000112706
-0.000219474
-0.000868459
4.34821e-05
-6.63444e-05
7.81539e-05
-6.38645e-06
-0.000333072
-0.000134865
0.000558009
-0.000378888
-0.00017898
0.000297591
0.000663905
1.60054e-06
0.000154411
-0.000365066
0.000792618
-0.000914134
0.000870449
4.94401e-05
0.000458789
-0.000184511
-0.000274191
0.000579407
-0.000252334
-0.000327004
0.000207679
-1.02858e-05
-0.000708091
0.000719658
-0.00024169
8.18343e-06
0.000300778
-0.000150521
-0.00029463
0.000445352
6.47361e-05
-0.000273188
0.000309362
-0.000459678
-0.000262927
-7.2912e-05
-0.000700016
0.000359978
0.000229674
-0.00012716
-0.000102514
1.08075e-05
0.000161719
-0.000805418
-0.000227073
0.000109374
-0.000120529
0.000281114
-0.000160579
-0.000745986
0.000762402
1.33715e-05
-0.000206402
0.00012618
8.02218e-05
0.000959818
-0.000922967
-3.19941e-05
0.000938687
-0.000174256
-0.000746817
0.000363264
-0.000578188
0.000215133
0.000156332
-0.000905874
-0.000222515
-0.000118108
0.000340647
-4.52984e-05
0.00020693
-0.000967102
0.000125916
0.000103759
-0.000536692
-0.00065699
-0.000589846
0.000106995
-0.00028605
0.00021471
0.000893587
-9.77622e-05
-0.000768995
-0.000213495
0.000133362
8.01333e-05
0.000622933
0.00018623
-0.000808356
-0.000925318
0.000140767
0.000788263
-9.22858e-05
0.00100352
-0.000907324
0.00101975
-0.000195491
-1.28126e-05
0.000330319
-0.000317494
0.000277616
0.000105641
-0.000187781
1.58665e-05
0.000171914
-5.44671e-05
0.000383146
8.4689e-05
0.000160165
0.000100176
0.000394377
-0.000494452
0.000952752
0.000305216
3.17862e-05
-0.000336988
-1.8987e-06
-0.000186608
0.000257481
-5.44188e-05
-0.000385986
0.000217113
-0.000344637
0.000215898
0.000309785
0.000140794
-0.00045047
0.000626486
5.3078e-05
-0.000679034
-0.000303613
0.000290811
-0.000946744
0.000535543
0.000412426
-0.000132185
0.000240321
-0.000212125
0.000226517
9.8412e-06
8.64799e-05
-0.000203666
0.000784589
-4.05394e-06
-0.000125303
-0.000260669
0.000282515
0.000366165
-0.000872817
0.000204327
0.000670521
-9.71539e-05
-0.000174337
0.0010359
-0.000945499
-7.92184e-05
-0.000291939
0.000114768
-0.000100331
0.000723997
0.000735533
0.000195697
0.000349004
0.000280071
0.000160895
-0.000440919
0.000257713
7.26158e-05
0.000245846
-0.000213603
-1.51127e-05
0.000228719
0.000191476
-7.65974e-05
-0.000114878
-0.000377701
-0.000331855
7.53275e-05
-0.000182489
0.00113778
-0.000669763
-0.000465826
-0.000219518
-5.97933e-06
0.000225502
0.000280388
0.00011453
0.000725673
-0.000265709
0.000803523
6.746e-05
-0.000394665
0.000361965
-0.000767653
-0.00046948
-0.000135821
-0.000785625
0.000270156
-0.000659726
0.00039001
6.61247e-05
-0.000285638
-0.000260909
0.000186443
-0.000280155
0.000150235
0.000419857
-0.00027374
-0.000146061
-1.74536e-05
0.000507601
-0.000480242
0.000207172
-0.000418606
0.000211524
-0.000251432
0.000156324
0.000235911
-0.00101797
0.000792369
-0.000248812
0.000395923
-0.000906273
0.000683613
0.000223646
-0.0001698
1.4434e-05
0.000155366
0.000765851
-0.000118097
-0.000647384
0.000181089
-3.91963e-05
-0.000141893
-0.000179681
-6.19094e-06
6.67164e-05
0.000214171
-6.5737e-05
1.72495e-06
-0.00048834
0.000391933
9.64737e-05
0.000465224
0.000589322
-0.000373176
-0.000499291
0.000744345
-0.000358598
-0.00038522
0.000873276
-8.73901e-05
-0.000820783
0.000324405
0.000669082
-0.000966594
0.000242287
-8.79514e-05
-0.000121564
-5.38963e-05
0.000283566
0.000349333
-0.000632558
-8.06194e-05
-0.000132876
0.000816695
0.000138525
-0.000559816
0.000227569
0.000179951
-0.00067668
0.000103773
-0.000292315
0.00018855
0.000121766
-0.00018347
-0.000261792
0.000545655
-0.000807419
0.000889855
-6.48139e-05
-0.000206382
0.000217091
-0.000871523
0.000882828
-6.465e-05
-0.000698399
0.000518999
0.000179914
0.000146613
6.91878e-05
0.000161659
-0.000251449
8.97913e-05
0.000190889
9.91995e-05
-0.000290084
0.000194022
-0.000249441
0.000255847
2.17751e-05
3.41028e-05
-0.000787837
0.000605012
0.000447806
-0.00104892
0.00011744
-0.000249623
0.000775689
-0.00028259
0.000207523
7.50706e-05
0.000702721
-0.000472234
-0.00022995
1.19483e-05
-0.000547276
0.000535609
0.000244242
-0.000133563
-0.000110679
0.000123288
0.000110815
-0.000234102
-0.000774353
-2.99027e-06
-0.000184791
0.000386416
0.000375383
-0.000282563
-6.90999e-05
0.000351722
0.000353806
-0.000181725
0.000162731
-0.000114759
0.000165835
-0.000270313
0.000104482
4.83003e-07
-0.000135824
0.000169671
-0.000143618
0.000365097
-0.000161946
0.000143112
-0.000234039
9.09271e-05
0.000817572
0.000197294
-0.000989656
0.000854896
0.000204798
0.000186885
-0.000951372
0.000766791
-0.000155302
-7.5997e-05
0.000231301
0.00032155
-0.00023774
-8.37939e-05
0.000454572
8.5401e-05
0.00012927
-0.000214671
0.00055892
-0.000153945
-7.38371e-05
-0.000322288
-0.000166989
-0.000738191
-0.00021231
0.000749937
-0.000519015
0.000735662
-0.000591578
-0.000100773
-0.000824323
0.000980511
-0.0001335
-9.51375e-05
-8.29643e-05
0.000173542
0.000156392
0.000184065
-0.000340441
-3.0489e-05
0.000834809
8.03329e-05
-0.000869471
0.000378413
0.000959158
-0.0008293
-0.000125093
0.000550813
-0.000187357
0.000591298
-0.000687207
0.000220956
0.000241603
-0.000108976
-0.000132626
-0.000416276
0.000272655
-0.000349535
8.02623e-05
0.000269283
-0.000128391
0.000284796
0.000883751
9.7129e-05
1.27417e-05
-0.000316343
-0.000368312
0.000976918
6.85743e-05
-0.000323135
0.000202612
-9.5683e-05
0.000212998
-0.000117315
0.000264337
-9.00305e-05
-0.000174304
0.000742011
-1.6095e-05
-0.000350173
0.000620744
0.000157367
-0.000225625
6.82589e-05
0.000102928
0.000103715
-0.000206642
0.000129215
0.000202197
0.000231271
-0.000433453
0.000169291
0.00020011
-0.000122933
-8.56801e-05
-0.000396205
1.50874e-05
9.8232e-05
-0.00027112
8.10181e-05
0.000147741
-0.000238837
0.000348311
1.09668e-06
-9.70468e-05
0.000409097
-0.000540864
0.000110241
8.48294e-05
-0.000195071
0.000152703
5.17693e-05
-0.000229061
-0.000105154
0.000334238
1.09666e-05
-0.000890409
0.00088072
0.000785133
-0.000461042
-0.000323142
0.000171947
0.000380912
-0.000552792
8.12414e-05
-0.000165093
-0.00070606
-0.000164731
-0.000192728
0.000288619
-9.58852e-05
0.000996174
-4.69925e-05
-0.000942154
0.000714189
0.000279667
4.90006e-05
-0.000328653
-0.000899909
-0.000107826
6.24308e-05
0.000859264
-0.000916187
0.000752029
4.08191e-05
-0.00024634
0.000620869
0.000746843
-0.0001758
-0.00055157
-0.000531533
-0.000413888
0.000880673
3.61333e-05
-0.000249733
-0.000211068
-8.1608e-05
0.000292693
-9.27174e-05
-0.000139817
-6.198e-05
0.000470148
-0.000260329
-0.000209779
-8.28612e-05
0.000879537
-0.000795843
0.000283052
-0.000329453
0.000123654
0.00044466
-0.000536457
9.19304e-05
0.000118209
0.000884334
0.000478338
-0.000771623
0.000264343
-0.000109457
-4.48204e-05
0.000273913
-0.000229069
0.000472479
0.000221495
0.000125662
-0.00020417
7.85079e-05
0.000200223
-0.000439013
0.000406713
-0.000842345
3.14404e-05
2.08529e-05
-0.000163834
9.55008e-05
0.000351601
-0.000459721
0.000108176
3.78011e-05
-0.00076304
0.000745631
-8.00874e-05
0.000233988
-0.000153894
-0.000472635
0.000445364
3.66452e-05
-0.000435601
-0.000153991
-0.00048527
-0.000345144
0.000840176
0.0002677
3.12281e-05
-0.000298923
0.000108586
-0.000828357
7.17361e-05
0.000773203
0.000779895
-0.000763657
0.000223797
5.13693e-05
-0.000275163
-4.2969e-05
0.000984027
-0.000250281
0.000150965
9.93179e-05
0.000123131
-0.000197454
7.43229e-05
0.000172293
0.000321031
-0.00049322
0.000787255
0.000460067
-0.000671816
0.000212965
-0.000954209
0.000479852
-0.000148019
-8.89459e-06
8.773e-05
0.00012943
-0.000269685
0.000216947
0.000273924
0.000573654
-0.000846149
-9.61774e-05
-0.000110224
-6.53277e-06
-7.33184e-05
-0.000772249
0.000862027
0.000183672
7.0399e-05
0.00102833
-0.000984156
-3.69945e-05
-0.000118725
-0.00013226
0.000803239
-1.87859e-05
-0.000757097
-0.000616064
0.000364237
0.000251966
0.000125905
0.00106228
-0.00018392
-0.000875311
-0.000429834
-0.000438684
0.00087312
-0.000459313
-2.27421e-06
0.000205758
-8.6291e-05
-0.000259631
0.000922451
-0.000522128
0.000534377
0.000371982
-0.000230587
-0.00014139
-0.000104693
0.000513971
9.46909e-05
0.000710236
-0.000790778
0.000191907
0.000266965
-0.000540978
0.000163038
0.000360139
1.92908e-05
0.000146964
0.000552481
1.472e-05
0.000430048
-0.000167213
0.000128017
0.000354749
-0.000412262
5.75717e-05
0.000959383
-0.000845291
-0.00011152
0.000330865
-0.000331798
0.00042854
-0.00032847
-0.000100007
0.000214059