/*--------------------------------*- C++ -*----------------------------------*\
| =========                 |                                                 |
| \\      /  F ield         | OpenFOAM: The Open Source CFD Toolbox           |
|  \\    /   O peration     | Version:  v2012                                 |
|   \\  /    A nd           | Website:  www.openfoam.com                      |
|    \\/     M anipulation  |                                                 |
\*---------------------------------------------------------------------------*/
FoamFile
{
    version     2.0;
    format      ascii;
    class       volVectorField;
    location    "350";
    object      U;
}
// * * * * * * * * * * * * * * * * * * * * * * * * * * * * * * * * * * * * * //

dimensions      [0 1 -1 0 0 0 0];


internalField   nonuniform List<vector> 
18355
(
(1.09823 0.0814188 0)
(0.141992 -0.00872595 -1.44223e-20)
(1.00404 0.0220533 -2.01986e-21)
(1.01517 0.0049512 -3.87974e-23)
(1.04497 -0.00484968 0)
(1.13428 -0.0386747 -3.03994e-20)
(1.00401 0.00712168 -4.06841e-21)
(1.15111 0.0217845 0)
(0.939517 -0.00625051 3.19218e-21)
(0.0935627 -0.013191 0)
(1.02206 0.000557926 6.12899e-22)
(-0.327919 -0.00477797 1.08045e-19)
(1.18495 0.00910931 8.41054e-20)
(0.987429 0.00530968 6.29154e-21)
(1.02611 0.0351744 -6.73636e-22)
(0.987764 0.0712275 -1.99809e-20)
(-0.261698 0.0122793 -1.84896e-20)
(1.01564 0.0104434 8.75088e-22)
(1.0052 0.0364671 -5.96293e-21)
(0.436168 0.00212984 0)
(0.968327 0.0883958 -2.37981e-20)
(0.975327 0.0346395 1.60868e-20)
(0.127663 -0.0638492 0)
(1.04424 -0.00527107 -9.00614e-22)
(1.05614 -0.021696 4.88242e-21)
(0.999227 0.00378556 -2.90036e-21)
(0.996236 0.000784463 -6.86803e-21)
(0.943224 0.00648604 2.60996e-20)
(-0.0359296 0.0743662 -1.57852e-20)
(0.993846 0.0243763 1.35568e-20)
(1.03683 -0.00565349 4.21344e-21)
(1.05208 -0.00910029 9.6973e-21)
(1.01542 0.010015 0)
(1.00997 0.000573468 3.35383e-23)
(1.13783 0.129316 0)
(1.10221 0.0813587 4.82264e-21)
(0.955693 -0.00295135 0)
(1.18362 0.272981 -1.47006e-20)
(0.944941 0.00768206 -1.09915e-20)
(1.02264 0.00102968 1.84364e-22)
(0.986839 0.00514301 -1.19071e-20)
(0.940673 0.320392 0)
(1.00396 0.0227507 5.58525e-22)
(0.0255321 -0.0106487 0)
(1.01487 -1.1114e-05 0)
(1.19433 0.272864 0)
(1.14639 0.0722303 -5.04651e-21)
(0.935503 0.0263209 -3.41482e-20)
(1.13417 0.0741315 -3.96995e-21)
(1.0151 0.0115401 7.85635e-23)
(1.01965 0.00245936 -1.8934e-22)
(1.01703 0.0224963 0)
(0.999984 0.000306794 8.50007e-21)
(0.313515 -0.034305 0)
(1.0004 0.00635685 0)
(1.00178 0.00030275 2.96479e-22)
(1.13864 -0.0837741 0)
(1.02595 0.0361005 2.93643e-22)
(0.115309 0.450325 0)
(1.22882 0.133721 5.15809e-22)
(1.01471 0.0116288 -8.20221e-22)
(1.13645 -0.0180508 1.52459e-20)
(1.01667 0.00960271 1.56739e-22)
(1.01669 0.195619 0)
(-0.311721 -0.00670788 -1.22483e-19)
(1.09591 0.0778322 1.43636e-20)
(0.0213775 0.0616644 0)
(0.857017 0.0540483 2.16403e-20)
(0.996526 0.000773524 -9.41503e-21)
(0.976894 0.0348368 4.55037e-21)
(1.16189 0.0978413 -3.13471e-20)
(1.00006 0.000371499 -3.09898e-21)
(1.23508 0.13805 6.768e-22)
(1.01159 0.01149 1.16898e-21)
(1.15146 0.0250436 -5.77802e-20)
(1.00418 0.00733941 4.15549e-21)
(0.641813 -0.0576067 2.77511e-20)
(1.05292 -0.00633827 0)
(1.06861 -0.0264138 -1.26816e-20)
(1.0164 0.0197093 -5.84109e-22)
(1.00372 0.00702307 1.50794e-21)
(1.24041 0.366454 -4.01361e-20)
(0.970275 0.0860763 1.88595e-20)
(1.06553 0.183975 2.91979e-20)
(0.999123 0.00399281 -1.77459e-21)
(1.18243 0.0104651 -3.92449e-20)
(0.1538 0.0071148 -1.70983e-20)
(0.440486 0.00595298 0)
(-0.0391362 0.0682956 0)
(0.29338 -0.0495077 4.45804e-21)
(1.14851 -0.0570834 0)
(1.01502 -4.51869e-05 0)
(0.999904 0.00564166 7.4177e-21)
(1.01876 0.000527743 -1.22729e-21)
(-0.0148706 -0.0528571 -8.29e-22)
(0.0947925 -0.0589348 0)
(1.02582 0.0155136 0)
(1.07464 -0.000239731 0)
(0.282381 -0.0315352 0)
(-0.18877 0.0129891 -3.76222e-20)
(-0.0144677 0.0420048 0)
(-0.212028 0.0107483 7.46019e-20)
(1.09976 0.138416 -1.02257e-20)
(1.12803 -0.0659042 -1.28923e-20)
(1.04435 -0.00997019 6.91407e-21)
(1.15519 -0.0298924 3.21748e-20)
(-0.377541 -0.00120559 0)
(1.12634 0.310654 0)
(1.10302 0.0259911 -2.81482e-20)
(0.48794 -0.313911 2.40051e-20)
(0.998296 0.0236718 6.04092e-21)
(0.951277 0.0183419 -9.18865e-21)
(0.998968 0.00319101 3.24751e-21)
(0.949065 0.0176982 -1.00821e-20)
(0.289029 -0.0197779 -1.31391e-20)
(1.00297 0.000865106 5.25805e-21)
(0.0696783 -0.307951 1.02239e-19)
(0.633104 -0.0573708 -1.41172e-20)
(0.074877 0.342219 0)
(1.09543 0.143293 -2.02313e-20)
(0.100785 -0.0150553 1.58152e-21)
(1.39311 0.102731 0)
(1.05204 -0.00691443 0)
(1.16175 0.101385 5.24195e-20)
(1.02519 0.0156929 0)
(1.12671 0.322184 0)
(1.01742 0.0218858 -1.35802e-21)
(1 0.000738826 8.92265e-21)
(1.35698 0.254504 6.01661e-20)
(1.0185 0.000605178 1.02919e-21)
(1.01965 0.00268557 4.18126e-22)
(1.19249 -0.0962677 -7.38623e-20)
(1.12725 -0.00186587 8.25998e-21)
(1.0734 -0.0011476 0)
(0.913061 0.189367 0)
(0.999997 0.000852014 -7.12188e-21)
(1.02273 0.0281739 2.94122e-24)
(1.0221 0.000325795 8.27982e-22)
(0.992044 0.0143232 0)
(1.16524 0.172737 3.98835e-20)
(-0.0219763 0.0396716 -4.85356e-21)
(-0.0679119 0.0201959 -2.81119e-20)
(0.998962 0.0483131 -1.09917e-21)
(0.997873 0.0228768 0)
(0.37895 0.0252176 7.75e-20)
(0.975304 0.0310796 5.56662e-22)
(0.910042 0.00396028 0)
(0.0988012 0.0171458 0)
(1.06304 0.00993455 -7.57289e-23)
(0.0834799 0.0240643 -5.33735e-21)
(1.0446 0.000933905 0)
(0.974666 0.032304 -4.57874e-22)
(1.13265 0.127413 1.61161e-20)
(0.108738 0.403363 0)
(1.1263 -0.0559832 -1.65765e-21)
(1.00003 0.000387531 6.72946e-22)
(1.19596 -0.0939273 1.30964e-20)
(0.0836501 0.310911 -5.07052e-20)
(1.00004 0.000395631 -8.95885e-22)
(1.14102 -0.0177114 0)
(1.01226 0.104342 3.35405e-21)
(1.05114 0.0621931 -6.4044e-21)
(0.907704 0.0942846 2.80748e-20)
(1.07454 -0.00320303 -3.49901e-21)
(1.15836 -0.0563192 1.24441e-20)
(0.497497 0.668605 -5.9327e-20)
(0.144369 0.0567148 -4.10543e-22)
(1.12497 0.0861272 6.16798e-21)
(1.22204 -0.0153999 -2.38243e-21)
(1.01379 0.0114058 1.84322e-21)
(-0.0421189 0.205677 7.51994e-22)
(0.0546011 -0.0540302 3.856e-20)
(1.02102 0.00111529 -2.20084e-24)
(1.0218 0.00108932 -8.26596e-23)
(0.990518 0.0704814 -7.29683e-21)
(0.125062 -0.0030897 0)
(1.10419 -0.0662196 -7.74441e-21)
(1.00026 0.00579744 -6.78243e-22)
(1.37622 0.255572 0)
(0.380351 0.187571 -9.77703e-20)
(0.66754 -0.116634 -5.20256e-20)
(1.21913 -0.0180403 4.78326e-20)
(1.08607 0.00854722 0)
(1.00547 0.00652711 7.10651e-22)
(1.15032 -0.0463901 0)
(0.136292 -0.00330454 1.98108e-20)
(0.256046 -0.0628577 -1.97344e-20)
(1.15639 -0.0501316 4.70909e-20)
(0.938558 0.00639018 5.68006e-21)
(-0.280648 0.00954587 0)
(1.13634 -0.0849749 1.96316e-21)
(1.00447 0.024276 4.2935e-21)
(1.07348 -0.00408064 0)
(1.07634 -0.0605404 -1.34386e-20)
(0.891723 0.210907 -5.51073e-20)
(0.977322 0.0378028 -1.0713e-20)
(1.2917 -0.0691345 -6.72983e-20)
(1.08489 0.00730098 0)
(1.11187 -0.00407211 -2.476e-20)
(1.02155 0.00125855 -2.99267e-22)
(1.05478 0.0160326 6.43384e-21)
(0.942225 0.0461866 1.24295e-20)
(0.10088 0.0633413 -2.34033e-19)
(0.220727 -0.0580703 2.50854e-20)
(-0.384857 -0.00248037 -3.00622e-20)
(0.997294 0.115933 0)
(0.0858993 -0.275908 8.40074e-20)
(-0.121854 0.0127312 0)
(-0.111968 -0.0118771 4.98463e-20)
(1.11026 -0.00567785 1.71472e-20)
(1.02203 0.0290926 0)
(1.0438 0.00136703 1.8751e-21)
(0.39689 0.0181105 0)
(0.999258 0.0466779 0)
(1.01335 0.0111462 -1.38702e-21)
(1.24137 0.355018 3.58183e-20)
(0.852115 -0.0331292 2.4022e-20)
(0.392801 0.0136602 -9.60021e-21)
(0.999056 0.00291771 0)
(1.06177 0.0103295 7.89164e-21)
(1.2867 0.250685 3.52917e-20)
(0.993593 0.0155673 0)
(1.0596 0.180924 -9.00386e-21)
(1.02264 0.0274711 -3.6323e-22)
(0.0656416 0.0489444 1.03889e-19)
(0.985209 0.0362268 6.75653e-21)
(-0.148868 0.017699 -5.71347e-20)
(0.139078 -0.00122916 -1.95761e-20)
(0.547663 0.00240796 -8.66406e-20)
(1.02113 0.0291523 6.94564e-22)
(0.99998 0.000396843 -9.38856e-21)
(1.06686 -0.0255666 5.68847e-21)
(1.03236 0.0913471 0)
(-0.117219 0.0206893 1.65459e-19)
(1.01612 0.057011 1.28418e-21)
(0.999384 0.00428916 1.44962e-21)
(1.00019 0.00557607 7.84309e-22)
(1.1588 0.321622 0)
(1.14804 -0.0495353 0)
(-0.274849 0.00229264 -6.0934e-20)
(1.10044 0.0255783 -1.35113e-20)
(1.22863 -0.00791178 3.34223e-20)
(1.03706 -0.00691136 -1.24933e-21)
(1.01288 0.011759 8.28878e-22)
(0.982199 0.0366376 -1.47504e-20)
(0.118367 -4.61275e-05 1.93066e-20)
(1.3168 0.073977 -7.74908e-20)
(0.065806 -0.109855 0)
(1.12483 -0.0568387 6.04568e-21)
(1.01417 0.101097 0)
(1.05437 0.0170793 6.37462e-21)
(0.207191 0.813696 4.04188e-20)
(1.08645 0.00512885 5.13031e-21)
(-0.0755985 -0.0105653 2.03937e-20)
(0.990358 0.0356773 1.21482e-20)
(-0.23623 0.0162538 2.26806e-19)
(0.688703 -0.0124517 -1.60362e-20)
(1.14236 -0.0157946 0)
(0.999411 0.0286411 7.33498e-21)
(1.00605 0.00040592 1.68168e-21)
(1.09194 0.0782562 0)
(1.17172 0.0936736 0)
(0.217035 0.0994725 1.83884e-19)
(1.12968 -0.00192859 -2.63285e-20)
(1.00834 0.00643597 4.12111e-21)
(1.01281 0.0102808 -9.01938e-22)
(0.999977 0.000518636 5.06562e-21)
(1.22741 -0.017233 0)
(1.08775 0.266295 -1.62807e-20)
(0.587582 -0.0437852 6.35534e-20)
(0.983048 0.0540195 -9.30355e-21)
(0.0646155 0.0633674 0)
(1.15684 -0.0520565 -2.57621e-20)
(1.15507 -0.0279467 -3.91859e-20)
(1.03875 0.0283398 4.39165e-21)
(1.29482 -0.0648862 3.05471e-20)
(1.017 0.0204501 -4.39363e-22)
(0.995996 0.0101952 0)
(1.06594 0.828859 0)
(1.00885 0.000666971 -1.42947e-21)
(1.00418 0.00761805 0)
(1.15808 -0.0263538 -2.92122e-20)
(1.00327 0.0160322 -1.69405e-21)
(-0.0372393 -0.0606355 -5.53206e-20)
(1.0855 0.00392753 -4.69055e-21)
(0.926485 0.0168925 -1.67742e-20)
(1.00852 0.000659796 -1.30063e-21)
(1.12413 0.0899268 0)
(-0.310531 -0.00191863 5.66222e-20)
(1.05282 -0.00827151 -6.32293e-21)
(1.01475 0.00477049 2.23528e-22)
(0.989441 0.000327347 1.16235e-20)
(1.14861 -0.0408836 -2.28163e-20)
(0.19863 -0.0191446 0)
(0.999977 0.000556849 -9.79083e-21)
(1.00001 3.7149e-05 0)
(0.789339 -0.0287245 1.92651e-20)
(1.11023 0.138014 -3.4613e-20)
(1.12534 -0.0607267 1.2644e-20)
(0.631776 0.396043 6.94497e-20)
(0.996217 0.00984663 4.35757e-21)
(1.16669 0.0926001 0)
(0.964043 0.0293377 6.07893e-21)
(1.00002 6.58802e-05 0)
(0.631311 0.365831 -1.54657e-19)
(1.15827 -0.0546035 1.35595e-20)
(1.19913 -0.069055 1.26228e-20)
(1.14872 -0.0418971 3.29165e-20)
(1.01856 0.000873245 -7.26513e-22)
(0.648903 -0.115208 5.31584e-20)
(1.04242 -0.0101634 2.83314e-21)
(1.00408 0.0358863 0)
(1.37395 0.0860598 -4.46919e-20)
(1.00048 0.021221 0)
(1.2309 -0.0140998 8.28584e-20)
(0.926272 0.316009 0)
(0.999933 0.00596307 -2.82999e-21)
(1.01693 0.00299163 0)
(1.23247 -0.00454929 0)
(0.0373797 -0.0198508 1.45549e-20)
(-0.0816757 0.0109799 0)
(1.01855 0.0407254 -7.90014e-23)
(0.912023 0.0905056 -5.98289e-21)
(0.0125994 -0.00892118 1.37606e-22)
(1.02956 0.00124404 2.13353e-21)
(1.14758 -0.0509047 0)
(1.06321 -0.0288142 -1.23083e-20)
(0.961156 0.145561 0)
(1.14189 -0.0517611 6.26559e-22)
(1.01827 0.000942241 5.22128e-22)
(0.494334 0.724158 2.80024e-20)
(1.0022 0.0338709 -3.22759e-21)
(0.909133 0.200291 0)
(1.00103 0.000304529 2.71295e-21)
(1.12447 -0.0595711 -1.47823e-20)
(-0.285782 0.00617424 0)
(0.999954 -0.000182532 -3.15097e-22)
(0.122042 0.0992072 1.24153e-19)
(1.11333 0.0263895 4.54022e-21)
(0.995157 0.00366177 1.04244e-20)
(1.14269 0.0741412 1.11927e-21)
(1.13671 -0.0201573 -4.15996e-20)
(1.10293 -0.0754879 -1.57419e-20)
(0.333201 -0.0309815 0)
(1.11997 -0.0581509 -1.25426e-20)
(0.990672 0.0346759 0)
(1.01646 0.00926027 -2.26492e-22)
(0.0465402 -0.0624823 2.06207e-20)
(0.700421 -0.0753618 -8.28933e-20)
(0.999659 0.00532112 0)
(1.0129 0.0532943 0)
(1.18655 -0.0674693 -1.45255e-20)
(1.15095 -0.0466218 -9.21083e-21)
(0.262214 0.717031 2.57264e-21)
(0.0832125 -0.069556 3.73e-20)
(0.997943 0.00466586 -3.09697e-22)
(1.06086 0.0195 1.99985e-21)
(0.0463868 -0.163895 3.29762e-20)
(0.999024 0.0237361 -1.15461e-20)
(1.01558 0.0552855 9.3074e-22)
(1.16585 -0.0570916 3.74067e-20)
(1.10975 -0.00956759 0)
(1.06384 -0.00124163 0)
(0.0353394 0.00438111 -1.11909e-20)
(1 0.000464261 -1.33108e-23)
(0.827496 0.16692 3.71073e-20)
(1.29115 0.258105 -4.04864e-20)
(-0.285252 -0.00267616 8.07901e-20)
(1.01462 0.0044468 -7.54803e-22)
(0.985977 0.0221954 6.34086e-21)
(0.993523 0.0121114 8.2042e-21)
(1.02361 0.017147 0)
(0.830095 0.2568 0)
(1.02418 0.0169385 6.67272e-22)
(1.11494 0.097556 -6.86284e-21)
(0.993871 0.0118042 -6.09454e-21)
(1.03582 0.0717551 -3.14063e-21)
(0.997987 0.00444037 0)
(0.941167 -0.00426826 0)
(1.03304 0.00946448 2.81329e-21)
(1.0103 0.0368912 -4.53637e-21)
(1.03157 0.0106418 1.34145e-21)
(1.03158 0.0102039 2.83224e-22)
(0.998089 0.0672195 3.71671e-21)
(0.562309 0.113548 0)
(-0.0701695 -0.0201307 0)
(1.02379 0.0271892 0)
(0.984241 -0.0752729 -3.0077e-20)
(0.946812 0.157971 0)
(-0.0734173 0.0150461 0)
(1.10063 0.00226741 0)
(1.17785 0.0481941 -1.11844e-21)
(0.980711 0.037472 1.21532e-20)
(1.06806 -0.0813326 -1.53883e-20)
(0.957671 -0.0029126 0)
(1.00281 0.000717773 -4.53059e-21)
(0.999285 0.00450696 4.06886e-22)
(1.01706 0.00467382 -1.83501e-23)
(0.303538 -0.0278773 0)
(1.06057 0.0434853 0)
(1.01524 -4.2487e-05 7.26394e-23)
(1.12802 0.0217418 -3.2901e-20)
(1.11071 0.0970388 -1.13447e-20)
(0.999333 0.0246523 0)
(1.02946 0.000807653 2.52873e-21)
(-0.08077 0.0238897 1.07364e-19)
(0.977746 0.0361129 2.40814e-21)
(1.01674 0.0210047 1.03864e-21)
(0.139164 -0.671324 -6.21257e-21)
(1.00367 0.0147847 -1.43726e-21)
(0.0533291 -0.0828435 -1.00874e-19)
(-0.262475 0.0065002 1.96885e-19)
(1.16368 -0.0566847 1.61677e-20)
(0.913662 0.00241217 -1.48464e-20)
(1.04353 -0.0105646 -3.10895e-21)
(-0.280709 -0.00257948 -5.55074e-20)
(1.00008 0.000472065 -2.25651e-21)
(0.998895 0.0159037 -8.61617e-21)
(0.199586 0.652433 -1.27262e-19)
(1.00002 0.000521746 1.51102e-21)
(1.02078 0.00132092 3.25828e-22)
(-0.278974 0.00980103 0)
(1.012 0.0114088 0)
(-0.269028 0.00700831 0)
(1.1023 -0.0386236 -1.82734e-20)
(1.11147 -0.06474 0)
(-0.245638 0.0110563 -7.79949e-20)
(0.963934 0.0251381 3.61465e-20)
(0.99921 0.0155322 9.16526e-21)
(0.691019 -0.0525437 1.59784e-20)
(1.13289 -0.0395977 8.55729e-21)
(-0.0242895 0.21706 8.53059e-22)
(1.12807 -0.0693582 0)
(0.994059 0.0108231 0)
(1.00519 0.00648574 0)
(0.974124 0.0291931 -1.8082e-20)
(0.863231 -0.035722 1.70308e-20)
(0.950949 0.204968 -3.05743e-20)
(1.00527 0.0377543 6.46885e-21)
(0.999999 0.000358081 -9.20247e-21)
(0.997767 0.0455022 0)
(0.819826 0.175731 0)
(0.0652944 -0.183326 0)
(0.990519 0.106794 1.09249e-20)
(0.974998 0.0277205 1.09652e-20)
(0.999992 0.00038411 5.63864e-21)
(1.09931 0.00384723 0)
(1.14417 -0.0563518 -2.24359e-20)
(0.211995 -0.0201451 0)
(-0.233951 0.0165602 0)
(1.03443 -0.0985039 0)
(0.769807 0.137483 -6.21649e-20)
(0.842684 0.184137 3.92249e-20)
(0.0479215 -0.0139164 0)
(1.03991 0.000847166 0)
(1.00861 0.00906315 0)
(0.989666 -0.000166192 -8.52192e-21)
(1.02378 0.0262181 0)
(0.815485 0.242755 -1.39924e-21)
(0.996392 0.00840185 -5.09788e-21)
(1.01519 -6.63365e-05 -1.71646e-22)
(-0.20564 0.0097629 0)
(0.808743 0.173778 0)
(1.13832 0.0714735 -1.10671e-21)
(0.326902 -0.0525506 7.89542e-21)
(0.757463 0.14039 0)
(0.115849 -0.00145333 -2.52054e-20)
(1.01247 0.0270772 -2.85408e-21)
(1.03224 0.00941829 -2.3547e-21)
(0.995045 0.0218221 -3.44725e-21)
(1.00357 0.00667395 -4.97821e-21)
(1 0.000246452 9.40265e-21)
(0.99999 0.000302543 -3.5377e-21)
(0.996045 0.00938559 -4.92327e-21)
(-0.0776367 0.0397253 -1.0382e-21)
(1.01985 0.0405333 0)
(1.01825 0.00180442 0)
(1.37617 0.0982417 0)
(1.23232 0.116394 -6.04334e-20)
(1.00829 0.00904009 0)
(1.05212 -0.00220712 1.04685e-20)
(0.92513 0.256636 1.76264e-20)
(1.0006 0.83316 8.48793e-20)
(0.990818 0.0677867 1.94413e-20)
(1.02707 0.0141651 0)
(1.09545 -0.0730754 0)
(0.945104 0.0448609 -9.79898e-21)
(0.0541169 0.0774967 1.66353e-20)
(1.06303 -0.0304201 1.09267e-20)
(1.02372 0.0180653 -4.6015e-22)
(-0.177927 -0.000566987 0)
(1.23449 0.112153 6.18014e-20)
(1.01453 0.00850142 0)
(-0.0327867 -0.00814663 8.44611e-20)
(-0.0432585 0.0178213 -5.05833e-21)
(-0.0346927 0.03784 -1.5347e-22)
(1.02309 0.018292 0)
(1.02663 0.0136517 0)
(1.02984 0.0888882 3.32543e-22)
(1.146 -0.0416075 -7.18107e-21)
(0.964201 0.0175524 1.37523e-20)
(0.0696166 0.0681914 -1.80039e-20)
(0.919618 -0.0362843 -8.42604e-21)
(1.03489 -0.072377 2.76083e-20)
(1.37535 0.18724 -8.99977e-20)
(1.01727 0.00442952 -7.66758e-23)
(1.10063 -0.0397275 3.36539e-20)
(0.182864 -0.00715047 0)
(0.0872228 -0.0594803 0)
(0.395913 -0.018066 0)
(0.978203 0.025635 0)
(0.982924 0.101665 -1.89296e-21)
(1.00753 0.103669 -2.68562e-21)
(0.0513528 -0.0281514 0)
(-0.211179 0.00945791 7.34353e-20)
(1.14787 -0.058799 5.67633e-21)
(0.986545 0.0368722 0)
(0.992556 0.0139912 1.45417e-21)
(0.998148 0.00261294 -2.09141e-21)
(0.946419 0.209432 4.14261e-20)
(0.996274 0.00907973 0)
(0.755775 -0.0532426 -4.39977e-22)
(1.00591 0.106408 -7.35981e-21)
(0.314378 -0.0215618 1.56224e-20)
(0.985786 0.0145283 -5.23413e-21)
(0.998158 0.0440982 0)
(1.00604 0.000551287 -3.40949e-21)
(0.863488 0.0548277 0)
(1.02943 0.131806 -2.38061e-21)
(1.14319 -0.0550014 -2.16391e-20)
(1.0026 0.0140763 -1.60813e-21)
(1.14687 -0.0338828 -1.58859e-20)
(0.955271 0.853749 3.63251e-20)
(1.08151 -0.0240344 5.76011e-22)
(1.00036 0.0286561 -6.17352e-21)
(0.941032 0.0388701 -2.32744e-20)
(1.07712 -0.0320914 2.58449e-20)
(1.00001 0.000504584 3.78391e-23)
(1.10414 0.0445885 0)
(1.11135 -0.0080238 -1.346e-21)
(1.08114 -0.0224856 -2.00802e-21)
(1.22922 0.162516 0)
(1.01353 0.054757 -6.70282e-22)
(1.01443 0.00806113 0)
(0.990316 -0.000123096 -3.6834e-21)
(0.999972 -0.000118911 -2.2883e-21)
(1.11905 0.0912444 4.10057e-22)
(1.06299 -0.00234479 1.15216e-20)
(1.1384 -0.016775 1.70556e-20)
(1.01217 0.0262087 2.0887e-21)
(1.04431 -0.00617726 0)
(0.290963 0.258979 -3.12941e-20)
(1.01797 0.00122123 1.20767e-22)
(0.849295 -0.026776 2.84706e-20)
(0.959874 0.0187043 9.07299e-21)
(1.20028 0.23292 0)
(0.929378 0.0174467 -1.94463e-21)
(0.293366 -0.0289078 0)
(1.04732 0.0238438 -4.04262e-21)
(-0.0443406 -0.00142897 -4.16508e-20)
(0.927786 0.0593105 -5.08838e-20)
(0.935955 0.0291914 0)
(0.679761 -0.0129745 -8.20103e-21)
(0.255187 0.262097 3.32665e-20)
(0.987602 0.0745968 6.75895e-20)
(1.07976 -0.0257327 -5.11486e-22)
(1.05916 0.0419919 0)
(1.02324 0.0192437 0)
(0.993727 0.0137768 0)
(1.13832 -0.0555252 0)
(1.13793 0.0851881 1.89432e-20)
(0.972027 0.14727 -2.06445e-20)
(1.0725 0.273789 1.24981e-20)
(-0.0696298 0.0308488 -8.83306e-21)
(1.16239 -0.0625264 0)
(1.00501 0.000527282 1.93079e-21)
(-0.0271993 0.00995835 -9.95472e-20)
(1.16818 -0.101442 4.53501e-20)
(1.05232 -0.00428431 0)
(0.993283 0.0140134 3.68057e-21)
(0.847452 -0.0205774 0)
(0.260963 -0.045688 1.07421e-20)
(1.09005 0.0817492 0)
(1.00005 0.00163367 0)
(0.70056 0.0332788 -1.47374e-19)
(1.22183 0.162841 2.32152e-21)
(1.13902 0.137054 -2.45964e-20)
(0.872936 0.0497092 2.81935e-21)
(0.614056 0.781099 9.0466e-21)
(1.07483 0.0018638 0)
(1.16018 -0.0216687 1.11911e-21)
(0.0867943 -0.00415051 0)
(1.14297 -0.0531853 -7.43512e-22)
(1.36802 0.0952061 0)
(0.82965 0.213418 0)
(1.14789 0.318043 0)
(1.08442 0.0117446 1.82313e-20)
(1.00167 0.000378914 -6.00208e-22)
(1.05305 -0.00491335 0)
(0.99446 0.0235252 -1.30202e-20)
(0.407054 0.012705 1.31106e-19)
(0.475405 -0.254764 0)
(0.146685 -0.00386853 0)
(0.582362 0.11107 0)
(-0.265433 -0.00696505 2.61136e-20)
(-0.0228901 -0.188428 3.99296e-20)
(0.713342 0.025035 6.34847e-20)
(0.987128 0.0740948 1.46325e-20)
(0.120776 -0.0042991 0)
(0.640888 0.0642994 -4.87445e-20)
(1.02253 0.000747577 6.15284e-22)
(0.546478 0.0782343 8.0302e-20)
(0.00321831 0.0681379 8.30558e-21)
(1.18347 -0.072628 -2.13964e-20)
(0.994484 0.10871 0)
(1.01632 0.0034315 0)
(1.07379 0.00279691 -2.89661e-21)
(1.07315 -0.00708969 -2.89888e-21)
(1.07551 -0.0327585 -1.49369e-20)
(1.17218 0.00592653 6.73871e-22)
(1.00087 0.0218746 2.65237e-21)
(-0.0151108 -0.00154896 1.85058e-20)
(0.995813 0.0683158 8.64756e-21)
(0.969761 0.0799107 2.86147e-20)
(0.0636973 -0.03052 0)
(1.01018 0.0248338 -7.15681e-22)
(1.02724 0.137018 0)
(0.43021 -0.0206781 0)
(0.998968 0.0147982 2.21129e-21)
(1.04385 0.0424793 -1.95304e-21)
(-0.0487289 -0.05358 -5.97864e-20)
(1.00992 0.0029799 -6.06329e-22)
(1.14574 -0.0345916 1.72881e-20)
(1.01828 0.00117356 3.19112e-22)
(-0.0315921 -0.116209 -4.31065e-20)
(1.08019 -0.0271336 0)
(1.10524 -0.0278883 1.27959e-20)
(0.966388 0.149682 -1.51979e-20)
(1.05525 0.0684529 -6.76368e-21)
(1.14605 -0.0407986 -3.63564e-21)
(0.920463 3.88713e-06 -9.41469e-21)
(0.0887302 0.0406675 2.02654e-20)
(1.12641 -0.0522008 0)
(1.03706 -0.00290541 0)
(-0.12374 -0.0132106 -3.06268e-20)
(1.10576 -0.029496 -4.92446e-21)
(0.545463 0.789521 -2.23787e-20)
(-0.318843 0.00826771 7.7872e-20)
(1.35458 0.101916 0)
(1.14692 -0.0559567 -1.76111e-22)
(0.998027 0.0222267 8.94738e-21)
(1.01795 0.00532824 -2.60531e-23)
(-0.040156 0.00743059 6.77238e-21)
(0.938838 0.0406375 -1.46276e-20)
(1.10665 0.0435669 1.17903e-21)
(1.00002 0.0011807 0)
(1.0859 0.0108768 -1.81149e-20)
(1.07263 -0.0951297 -6.1078e-21)
(0.573655 -0.0856182 0)
(1.11848 0.0950432 3.32715e-21)
(-0.0366693 -0.00539982 1.93889e-20)
(0.816134 0.229507 3.11772e-20)
(1.01591 0.0693904 0)
(1.01656 0.00366277 2.59697e-23)
(1.00005 0.00147579 3.7723e-21)
(1.13094 0.0216958 7.14275e-20)
(1.09123 0.259424 -1.58996e-20)
(1.02753 0.00707863 0)
(1.114 0.0930389 0)
(0.998181 0.12043 1.04202e-21)
(1.10635 0.14065 2.67911e-20)
(1.01409 6.48268e-05 0)
(-0.0740807 -0.00879484 -1.13577e-19)
(-0.114902 0.0214337 -8.7812e-20)
(0.993024 0.0241301 4.44986e-21)
(1.02232 0.00121231 5.03271e-22)
(1.13201 -0.0422779 0)
(1.00003 0.00105527 -2.25391e-22)
(1.01499 0.00870466 0)
(-0.0194981 -0.169888 2.11325e-20)
(0.547263 0.0949345 0)
(0.968366 0.0268111 2.79001e-20)
(0.994181 0.0144236 -1.00487e-20)
(1.15018 -0.067259 -1.80333e-20)
(1.1339 0.078092 -1.82637e-20)
(1.06863 -0.0282867 1.89259e-20)
(0.711005 -0.0650256 0)
(1.01082 0.0359619 3.72123e-21)
(0.199914 -0.00792872 0)
(1.12622 -0.0157822 7.53278e-21)
(0.98372 0.0338033 -7.06015e-21)
(0.432041 0.155222 1.54861e-19)
(0.0420689 -0.0526908 2.48892e-22)
(1.00388 0.00811661 -1.01702e-21)
(0.64372 -0.0875258 -1.04345e-20)
(1.01542 0.00479668 2.61845e-23)
(0.999225 0.0145485 -2.1001e-21)
(0.964195 0.0159446 -2.33658e-20)
(0.826896 -3.39841e-05 0)
(-0.0919608 0.0255408 -1.11169e-19)
(1.11163 0.0281434 1.07785e-20)
(0.0980494 -0.00489132 1.51927e-20)
(1.01741 0.141312 6.39421e-22)
(0.287413 0.00221823 -3.65968e-23)
(1.40378 0.19118 1.23703e-19)
(1.08509 0.0142526 0)
(-0.281176 -0.00729449 1.60506e-20)
(0.985687 0.0233829 6.45215e-21)
(0.48594 0.0427894 -7.47136e-20)
(1.05294 -0.00292478 -1.15864e-20)
(0.121904 0.00443366 -1.09975e-20)
(0.142425 -0.0074524 -5.21248e-21)
(0.997538 0.0410386 0)
(0.127018 0.561177 -1.21872e-19)
(1.02913 0.0833814 1.33815e-22)
(0.924293 0.0608962 5.73591e-20)
(0.850718 0.0696087 9.76944e-20)
(0.655618 0.0907614 2.26515e-20)
(-0.255711 -0.00212302 5.48303e-20)
(1.01004 0.0098743 -1.16417e-21)
(0.302648 -0.0307251 0)
(0.988882 0.012947 0)
(0.116867 0.04042 -6.5671e-21)
(1.04225 0.00192425 -1.85022e-21)
(1.00164 0.107626 8.44001e-21)
(1.07713 -0.029768 -7.63941e-21)
(1.01207 0.0137651 -2.56e-21)
(1.01403 0.000576422 0)
(1.11942 -0.0298378 -3.63789e-20)
(1.08903 -0.0676803 7.22398e-21)
(1.22789 -0.074358 0)
(1.00496 0.00613183 -1.45749e-21)
(0.143075 0.154629 1.96407e-19)
(1.08355 0.0152697 2.0314e-21)
(1.01154 0.0136368 -3.02332e-21)
(0.99799 0.00284574 8.90193e-21)
(0.942629 0.0997904 1.93258e-20)
(1.15254 -0.0389386 0)
(0.722451 0.0595982 -3.36144e-20)
(1.1085 0.0280972 0)
(1.00932 0.00047494 0)
(1.03709 0.0962277 -3.60319e-21)
(0.262286 -0.0180914 2.30077e-20)
(0.998706 0.105928 -4.55445e-21)
(0.999788 0.0213019 2.38169e-21)
(1.01236 0.014126 1.57624e-21)
(1.0393 0.0986081 5.16277e-21)
(1.09725 0.0222149 -1.28778e-20)
(0.00146861 -0.00444575 2.51132e-22)
(1.00994 0.0239479 1.37915e-21)
(1.16097 0.469524 7.42794e-20)
(0.898289 0.218629 1.39718e-20)
(1.20228 -0.0978264 -8.62529e-21)
(-0.0411566 0.0369335 -1.19553e-19)
(0.016697 0.0638486 1.25408e-20)
(1.01615 0.00254693 -1.71882e-23)
(1.1087 -0.0607194 9.09725e-21)
(1.0046 0.0235484 3.31982e-21)
(1.02138 0.0445868 0)
(1.08563 0.000447681 4.41218e-21)
(-0.000936923 0.0696497 2.15874e-20)
(1.00797 0.00554727 -5.55341e-22)
(1.02265 0.019465 0)
(1.01266 0.000438389 0)
(0.602172 0.0452117 6.91811e-20)
(0.960189 0.0501644 -3.12077e-20)
(1.03761 -0.00330684 0)
(1.04988 0.128028 0)
(1.08628 0.0816357 0)
(0.296119 -0.0637806 1.98612e-20)
(-0.361436 -0.00145404 0)
(1.00396 0.0111162 0)
(0.987951 0.00648129 0)
(0.25948 -0.0603521 0)
(0.98513 0.0344493 7.16883e-21)
(-0.0938588 -0.0182262 -8.03642e-20)
(0.162571 -0.0103615 0)
(-0.10725 0.0181176 0)
(0.660496 0.351157 3.33302e-20)
(0.818405 0.447447 1.07768e-20)
(0.943816 -0.0423558 9.45162e-21)
(1.0791 -0.0292582 1.0669e-21)
(0.999195 0.00272714 0)
(1.01241 0.0118347 -9.83991e-22)
(1.00189 0.0351145 -1.69454e-21)
(0.970811 0.0249396 -2.81585e-20)
(0.999648 0.00566825 -3.19835e-21)
(0.969225 0.024774 2.24927e-20)
(0.930675 -0.0168875 0)
(-0.0212785 -0.0660521 2.45743e-20)
(1.03821 0.0293748 -3.86518e-21)
(0.663429 0.182565 -1.05946e-19)
(1.00967 0.00367618 2.11205e-21)
(1.0178 0.0687302 0)
(1.10805 0.10187 3.14179e-21)
(1.00031 0.00640253 -5.58722e-21)
(0.968204 0.0821583 -2.17411e-20)
(1.04483 0.0435524 -1.83979e-22)
(0.353964 0.0182826 1.80045e-21)
(0.0948561 -0.117311 2.05898e-19)
(1.16637 0.0854944 -3.35223e-20)
(-0.226122 -0.0029932 -5.29446e-20)
(0.835341 0.192005 2.10161e-20)
(0.0303142 0.0687971 0)
(1.09481 0.27177 1.8454e-20)
(0.355655 0.0258412 0)
(-0.0475325 -0.0395907 -8.75732e-20)
(1.12777 -0.014314 0)
(0.9058 0.784898 -4.4175e-20)
(1.16256 -0.0602335 0)
(-0.317381 0.00689046 -6.29127e-20)
(1.03466 0.00236948 4.26558e-21)
(0.993718 0.0111684 7.0826e-21)
(1.00355 0.00619689 -1.64793e-21)
(1.0743 -0.00601161 0)
(0.488626 0.026178 -8.38658e-21)
(1.01327 0.0106042 0)
(0.999962 7.50831e-05 -5.55336e-21)
(1.17337 0.0142181 -3.9354e-20)
(1.0074 0.00309694 2.12578e-21)
(1.01407 0.201732 0)
(1.01208 0.189121 0)
(1.00019 0.000621892 0)
(0.959285 -0.0383607 8.82036e-21)
(1.03691 -0.00160865 6.69621e-21)
(0.987376 0.00615181 0)
(1.15179 -0.0656297 -1.03087e-20)
(1.01622 0.0072748 -5.46641e-22)
(1.24808 0.0608954 -7.77546e-20)
(0.445824 -0.258706 7.31577e-20)
(1.00073 0.0389862 8.32169e-21)
(1.0482 -0.00826457 0)
(1.01122 0.0132257 2.79657e-21)
(0.935853 0.275 -1.86972e-21)
(1.0083 0.00610346 -2.13043e-21)
(1.04878 0.0509584 -6.09248e-21)
(1.36852 0.209351 -9.03305e-20)
(0.988503 0.000858238 -8.39103e-21)
(0.0498725 -0.0679612 -3.03797e-20)
(1.03814 0.0250439 0)
(0.0891879 -0.0693209 0)
(1.06121 -0.0131896 2.08313e-21)
(1.13894 -0.0671436 8.61513e-21)
(0.999227 0.012928 -2.90799e-22)
(1.1194 -0.0681 -3.16519e-21)
(1.10353 0.101356 -4.96974e-21)
(0.999279 0.00244752 0)
(1.00156 0.0399018 0)
(0.0759339 -0.0698399 3.38453e-20)
(0.993104 0.0151319 0)
(-0.346607 0.00721324 0)
(-0.35056 0.00871265 0)
(0.981966 0.0525048 1.04906e-20)
(1.00116 0.000320347 0)
(1.0005 0.00660085 0)
(1.01926 0.00302743 -4.14177e-22)
(-0.0148944 -0.15593 2.52916e-21)
(0.994776 0.0142196 4.98074e-21)
(0.130606 -0.0746754 4.4182e-20)
(-0.0167899 -0.0354899 -9.48508e-22)
(1.1104 0.13219 2.85391e-20)
(-0.0308536 0.0405108 -1.31608e-19)
(1.00971 0.000628974 -1.00547e-21)
(1.00353 0.0206178 2.09603e-21)
(-0.075353 0.00916873 -1.02106e-19)
(-0.0890147 -0.0341059 -3.72038e-20)
(0.922504 -0.00229787 1.1336e-20)
(1.00046 0.00993283 7.33869e-21)
(0.995733 0.0222242 -9.31804e-21)
(1.01289 0.0112869 1.57808e-21)
(1.04947 -0.0117954 2.64083e-21)
(0.862155 0.178302 -3.37635e-20)
(0.348829 0.382416 -4.62248e-20)
(1.05049 0.069179 0)
(0.0556778 0.0742267 3.82527e-20)
(0.117516 0.161318 1.26451e-19)
(0.931198 -0.0406288 0)
(0.856143 0.0682245 -2.76021e-20)
(1.03447 0.0152556 5.36826e-22)
(-0.224178 -0.0128549 7.92332e-22)
(-0.0549057 0.205069 5.03854e-20)
(1.05256 0.126125 2.37163e-21)
(0.999458 0.0126529 2.03108e-21)
(0.977731 0.0231344 -3.45756e-21)
(0.0244087 -0.0537608 -3.17686e-20)
(0.996154 0.00868237 5.42146e-21)
(-0.0365465 -0.125463 4.61265e-20)
(0.829417 0.245926 -2.78843e-20)
(1.00005 0.00057341 -3.82819e-21)
(0.946618 0.101351 0)
(1.01516 5.05378e-05 -9.47161e-23)
(1.10682 0.0269061 9.29252e-21)
(1.06943 0.0667956 4.07183e-21)
(1.0072 0.0029213 0)
(1.01743 0.00134921 3.78591e-22)
(1.04819 -0.0113893 2.29094e-21)
(-0.0151063 -0.0134534 -1.87699e-20)
(1.00016 0.000972994 -3.72811e-21)
(1.10429 -0.0692368 -7.48177e-21)
(0.0735031 -0.0118442 1.84579e-20)
(0.978387 0.0215656 -3.86032e-21)
(1.00323 0.0154423 0)
(0.825653 0.15546 -3.55311e-20)
(0.00769804 0.07833 1.10991e-20)
(1.09892 0.007729 -3.45372e-21)
(-0.07473 -0.0490308 5.96794e-20)
(0.958372 -0.00105459 -5.54596e-23)
(1.01925 0.00281124 -3.15468e-22)
(0.938999 0.00316382 1.87907e-20)
(0.102936 -0.00284829 1.03639e-20)
(0.409085 0.16982 3.93318e-20)
(0.179521 0.104593 0)
(1.00909 0.000447869 -2.63697e-22)
(0.866937 0.0480032 0)
(1.0033 0.0336395 -2.9029e-21)
(-0.101028 -0.0447028 0)
(1.02377 0.00709794 -9.11275e-22)
(0.975876 -0.0387157 0)
(0.854552 0.187492 3.24127e-20)
(-0.0277992 -0.12162 3.91547e-20)
(1.00032 0.00139719 3.56375e-21)
(1.0048 0.00198185 1.08309e-21)
(0.794584 0.453049 -3.10321e-20)
(0.997681 0.0208588 0)
(-0.0331754 -0.010989 0)
(1.03931 0.00152171 -1.25579e-21)
(0.18206 0.514479 0)
(1.00003 0.000481657 3.59236e-21)
(1.0124 0.0104029 9.00537e-22)
(0.932773 0.026303 4.25286e-20)
(1.14005 0.460581 -5.80764e-20)
(-0.210433 0.0173249 1.89022e-19)
(1.03082 0.0945602 -2.16374e-21)
(1.04855 0.0178317 -8.96586e-21)
(0.962748 0.0239086 3.21354e-22)
(1.03745 -0.00208217 -7.24465e-21)
(1.02766 0.00661432 -1.93229e-21)
(0.99998 5.6019e-05 0)
(1.18702 -0.0012874 5.30131e-20)
(1.00514 0.0483874 0)
(0.327465 -0.00379111 -5.62668e-21)
(1.01166 0.0738602 2.46231e-22)
(-0.134423 -0.0154192 8.35049e-20)
(1.03621 0.00215316 0)
(1.01918 0.00370389 0)
(1.35008 0.168834 0)
(-0.0894572 -0.033519 4.68789e-20)
(0.726219 -0.0907316 2.13906e-20)
(1.01699 0.0508511 1.9707e-21)
(0.168233 0.0117522 2.6468e-20)
(1.03682 0.00161944 0)
(-0.00762258 0.0414892 0)
(0.963087 0.0274439 -3.68307e-20)
(1.22915 0.00316859 2.13233e-20)