/*--------------------------------*- C++ -*----------------------------------*\
| =========                 |                                                 |
| \\      /  F ield         | OpenFOAM: The Open Source CFD Toolbox           |
|  \\    /   O peration     | Version:  v2012                                 |
|   \\  /    A nd           | Website:  www.openfoam.com                      |
|    \\/     M anipulation  |                                                 |
\*---------------------------------------------------------------------------*/
FoamFile
{
    version     2.0;
    format      ascii;
    class       volScalarField;
    location    "400";
    object      ddt0(omega);
}
// * * * * * * * * * * * * * * * * * * * * * * * * * * * * * * * * * * * * * //

dimensions      [0 0 -2 0 0 0 0];


internalField   nonuniform List<scalar> 
18758
(
0.000354058
0.105806
-5.29176e-06
0.000241012
0.000159581
4.41253e-07
-5.73979e-06
-1.91612e-05
0.000201679
0.000199936
0.0555557
0.0405403
-0.27007
2.49633e-05
-5.67847e-06
-4.43939e-06
0.0615129
-1.83176e-06
-5.85042e-06
-0.000209628
0.41625
1.50392
4.09987e-07
-5.20679e-06
1.37753
0.0453863
0.221694
-0.00283562
-0.00117
0.169605
-0.607204
0.412737
-1.97425e-05
1.49147
0.000122973
0.130359
-0.317488
0.000118606
-0.812428
3.16795e-05
-0.0191141
0.000319129
0.00363664
3.54249e-05
-2.74882e-06
-0.408994
0.000264819
8.56188e-06
-0.791908
-0.000875146
-0.0247848
1.37592
-0.00102191
8.44259e-05
-0.0120788
-0.173941
-3.66362e-06
-0.000179302
0.000514429
-1.33712e-05
-1.32889e-06
3.30843e-05
0.46621
0.0303172
-1.44154e-06
0.130798
3.317e-06
-2.95653e-06
-0.00241313
-1.43618e-06
1.24895
0.185342
-3.48844e-06
-0.000382616
0.00727577
-0.8833
0.958353
0.0897021
0.000235814
0.0124746
-0.00578315
-0.61694
0.0746501
0.0010384
-4.11636e-06
-0.0104847
7.75882e-05
-0.000425024
0.511828
-0.0104605
-0.00468018
-4.3135e-06
-0.0029426
-0.870973
-3.36405e-06
-1.20986e-06
-8.8018e-07
0.000306421
0.109173
-3.12231e-07
-0.44486
-0.000711387
-3.15163e-06
-1.0796e-06
0.114846
0.407705
-0.00076274
0.0505737
1.99702
0.0648394
-4.65571e-06
0.0418662
0.000111435
2.00511e-06
-0.000756146
-0.0737703
0.000406006
-3.42897e-06
-0.0503238
-0.000109344
-9.27563e-07
1.55259
-3.91817e-05
-2.06952e-06
0.828902
5.86463e-05
2.62103e-05
-1.81793e-06
-0.00529534
0.126305
-2.48964e-06
-1.19242e-06
0.000377955
0.0198486
6.68829e-05
-1.04692e-06
-0.0933671
4.61677e-05
-0.00885094
-0.00521743
-0.000283217
-0.0512678
0.000241678
1.88771
0.691975
-0.00110796
0.0907559
-0.00426818
0.0627065
-0.0896839
-0.159756
0.769384
-1.43465e-06
0.000166418
-0.00855531
0.310344
-0.00288888
-0.00558902
0.000728244
0.086893
0.0502748
-1.79629e-06
-0.534837
0.091241
-0.576674
1.94041e-05
-2.1584e-06
-0.571395
-0.00366436
-0.0130694
0.239155
-4.92662e-06
-0.00135401
-0.0390566
1.252
-6.55981e-06
-4.19978e-06
0.0126352
2.09236
9.66411e-07
-2.70572e-06
-1.42685e-05
-0.0113459
1.30778e-05
0.209567
-2.07889e-06
0.165324
-0.000556689
-1.05257
-0.437895
0.701347
-2.0911e-06
0.00265214
0.887934
-3.24998e-07
1.09028e-05
-0.0128427
-1.76407e-06
-1.2032
-4.37066e-06
1.11156e-05
-0.00761783
1.53888
-4.32499e-06
-5.37286e-06
-0.653915
-5.36905e-06
0.000206857
-0.110888
0.646138
-3.77522e-06
-0.0027667
-7.95612e-05
2.654e-05
-0.000120698
-8.8209e-07
-5.49427e-06
-0.00262912
4.45202e-07
-0.0672131
2.38284
1.57726e-05
0.000284116
-0.00664859
1.45877
0.0296248
0.010921
-0.0103673
-0.145129
-5.30619e-06
0.0398981
-0.000887587
0.637723
6.5994e-07
-3.00103e-06
1.82114e-05
0.00784999
-0.483353
-0.0145065
-1.48972e-05
-5.03526e-06
0.00656995
-0.00319403
-7.43196e-06
-0.0799492
-0.0134847
-2.90323e-06
-2.48711e-06
5.01506e-05
-1.02743e-06
0.101784
3.33546e-05
0.0670131
2.71658e-05
1.24479e-07
-0.0285408
1.76665e-05
0.33785
-5.86621e-06
-0.208816
2.37158e-05
-2.36295e-06
-3.06774e-06
0.00263496
0.789711
0.333215
-2.27672e-06
-0.00697137
-1.99942e-06
4.16599e-06
-2.67137
2.0085
4.06413e-06
-6.92066e-06
-0.000975911
-0.000105703
0.000268935
4.64105e-07
2.15692e-05
2.34951e-05
-2.3436e-06
-8.97618e-07
-5.28495e-06
0.0889079
-5.65851e-06
-6.20889e-06
-9.76063e-07
-0.00219515
-1.1065e-06
-1.02072e-06
-6.75796e-06
4.3695e-06
5.84351e-06
-7.53708e-06
-9.18244e-06
-0.000173378
0.0327567
-8.31758e-06
-6.2608e-06
0.706589
8.99332e-05
-3.35711e-06
-3.37395e-06
-0.00320629
-0.129087
-2.7481e-06
-0.00188515
0.446847
2.20352e-05
-0.181277
-5.22802e-06
0.361174
-0.0088199
0.000565379
-0.00103875
1.53546
-3.41578e-06
0.186956
-0.00817692
2.9205e-06
0.00090714
0.000353139
-0.061259
-3.12359e-06
-3.30058e-06
0.448931
-0.00258982
-2.1253e-06
0.782996
0.0049369
-0.000558149
0.0319575
-3.29408e-06
2.75382e-05
-5.82306e-06
2.10121e-06
4.19616e-06
-0.000377675
-1.12301e-05
-3.61515e-06
-3.55269e-08
-1.12994e-05
2.24961
0.0480344
6.31844e-05
0.211614
0.0998014
-2.38621e-06
0.000331791
-0.0920702
0.522177
-0.0303882
-0.0198285
-2.03504e-06
0.447801
-0.373672
-0.000247043
-1.06845e-05
5.06108e-05
-2.68176e-06
3.95633e-05
-0.0179756
0.857738
-0.0143295
0.0308948
-0.0614152
-2.90234e-06
0.000171469
-3.61705e-05
0.000556858
-0.593939
-0.0233144
0.216743
-0.146308
-0.0293428
-0.00519349
-3.00911e-07
0.215279
-0.00498619
-0.187173
-0.000790988
-9.88743e-07
-4.88642e-06
1.55867
-0.0133406
-0.0351252
-3.97792
0.850725
-1.41562e-05
0.00137774
-0.18865
-4.62286e-06
1.77992e-05
-8.67343e-05
0.000142103
-9.78118e-07
-1.4071e-05
-1.57205e-06
1.96728e-07
-5.87206e-06
-0.000140493
0.000491384
-0.454777
0.000138247
-0.37735
-0.332979
-0.0534522
-0.454792
-0.0033803
-0.000174178
-3.99721e-06
0.00430335
1.58068e-05
-1.87731e-05
0.875924
0.000768319
-0.294838
1.61789e-05
2.52682
-2.85936e-06
9.42017e-05
-2.31136e-06
-1.33914
0.740769
-0.0337754
-8.06557e-06
0.0279195
-0.00289807
-5.49114e-06
0.000117582
-4.21621e-06
0.0819064
-5.91613e-06
-6.64888e-06
-0.551514
0.000140358
-1.81385e-05
-3.58041e-06
-3.70233e-05
-1.1166e-05
-0.149309
-0.017053
-1.20512e-06
0.148639
-2.12889e-06
5.36303e-05
-0.0102197
-3.90963e-06
-0.432437
-1.37656e-06
-3.15571e-05
-4.748e-06
-0.0443814
-0.000165743
-1.69406e-06
-0.0733494
-0.152328
-1.0172e-06
0.000173283
-0.000120332
-4.58443e-06
-1.92157e-06
-4.74351e-06
0.339817
-0.107142
-6.67063e-07
0.000945084
0.0523795
-0.00325133
0.047543
-0.00166981
0.0383308
-4.76913e-06
-0.00308468
0.00535436
-0.000104703
-2.65256e-05
-0.059878
-0.139074
-0.000197564
-2.1472e-06
-5.89691e-06
-8.18178e-07
-3.93119e-06
-9.75765e-07
-4.70664e-06
-0.0481367
1.80878e-06
-7.82119e-07
-0.003195
-1.54522e-06
-3.97456e-06
-1.85872e-05
-0.000121403
-0.129584
0.232338
-3.87147e-06
-0.162845
-7.62085e-07
0.000185813
-0.00904383
-0.124038
-0.221032
-5.40947e-06
-1.91693e-06
-0.132724
0.00990057
-0.03283
-1.7109e-05
-0.00944767
0.067316
-1.16734e-06
-1.08243e-06
-0.630354
-0.00013426
-0.00538134
-0.031579
0.00011565
0.00097809
-2.59731e-06
-5.70912e-06
-3.95184e-06
-2.95354e-06
-6.22727e-06
-2.21066e-06
9.26858e-05
-1.70144e-06
-0.495141
0.070172
-1.10021e-06
-1.85599e-06
1.78525e-06
0.000229588
-0.000432009
-0.00365423
8.37136e-08
-0.379959
0.000378559
-0.000149806
6.66043e-06
-8.80934e-05
7.84755e-05
-9.67076e-07
-9.6606e-07
0.787278
-0.245804
-2.44682e-06
-6.12163e-06
2.43654e-06
-0.0205361
-2.50883e-06
-3.0912e-08
-4.97055e-06
-1.19384e-06
-6.36836e-06
5.74169e-06
-5.77527e-05
-4.42616e-06
0.000286438
4.38207e-07
9.34161e-05
0.00370966
-0.0166043
9.03679e-05
2.89883e-05
-3.28858e-06
-4.1965e-06
-4.38521e-06
6.62001e-05
0.0156058
-0.0906395
2.86824e-06
0.547555
-3.58449e-06
0.000286242
3.02026e-05
-6.06995e-06
-0.000898988
-9.21475e-07
-3.43182e-06
0.138498
-5.14606e-06
1.48326e-05
0.0148327
-3.94431e-06
-3.6825e-06
-1.34844
-4.0757e-06
-0.0366579
-0.102653
-3.41453e-06
-4.74974e-06
0.000453745
-6.46604e-05
-0.000403466
-6.35189e-06
-0.299231
0.45403
0.0226387
-2.37354e-06
0.549703
-7.23361e-09
-4.38344e-06
6.78093e-08
-0.000765668
-0.493936
0.00209366
1.3132e-05
1.18666e-05
-0.000137741
0.416404
-0.00905343
-3.14787e-06
-0.00180128
0.000101624
-0.240647
0.000393615
-0.00171209
-2.8074e-07
-0.000377692
0.000957394
-3.2856e-06
-6.76194e-07
-2.57565e-06
-2.46815e-06
0.000249239
0.00103419
0.0832041
0.210393
-0.000393245
-7.79533e-05
7.77779e-07
-2.44349e-06
-0.396148
1.22145
7.12494e-06
0.000497202
0.821338
0.802201
-4.36357e-06
-1.70438e-06
0.00135447
-0.0054134
1.51229e-07
-0.0690678
-6.3291e-07
-1.59432e-07
0.000301708
-5.51498e-06
-9.11064e-07
-5.38227e-06
-1.87254e-06
7.30051e-05
0.00468612
-0.000722665
-0.0503606
3.99038e-05
-6.69415e-06
-0.104022
-2.90918e-06
-0.706546
-0.0152322
-1.06779e-06
0.467423
0.00011891
3.24428e-05
0.0197895
-0.0241503
-0.0220136
0.52663
-5.84217e-05
0.446703
-1.34048e-06
0.319429
0.0203904
-0.000164467
2.58566e-05
-0.0241809
9.20672e-05
0.000415311
-0.00165654
-1.08651
-1.38914e-06
0.132832
-3.78826e-06
0.000618789
-0.00146617
-2.56678e-06
0.000627413
1.68029
-0.0553761
-0.000366849
-6.58321e-05
-8.10138e-07
-9.40129e-06
-0.000111168
-0.000385849
0.0130571
-1.02016e-05
0.0401359
-8.41689e-05
1.45925e-06
0.000135122
-1.79496e-06
0.0341549
-5.32529e-06
-2.30528e-06
-0.11477
-2.43437e-06
4.56943e-06
0.00417025
-0.00310061
-0.00416578
-1.89238e-06
5.6723e-06
0.00242393
6.51902e-06
0.00736501
7.15092e-05
-0.000151428
8.20223e-06
-4.09474e-06
-2.08246e-07
-0.39306
-1.89672e-06
0.0129973
-0.00508761
2.86772e-06
0.570474
-5.48951e-06
-0.00073991
-0.000369006
-0.862722
5.98587e-05
-0.00947871
0.0343493
-7.86585e-06
0.011792
-1.51054e-06
-0.00605343
7.78878e-06
-1.15421e-06
0.521073
-0.00482136
-5.43661e-06
-7.86579e-06
-3.00715e-05
1.26759e-06
-1.82417e-06
-0.0505536
-0.294707
-1.71188e-05
1.22287e-06
-1.54546e-06
-0.633124
0.0100386
-0.0762824
-2.00706e-06
-0.00367883
-1.13791e-06
6.358e-06
0.000182374
0.088319
-3.2994e-06
0.000417751
-0.0198685
-0.000367521
-0.130637
-1.7841e-06
0.000360936
-3.19105e-06
-1.12035e-05
0.000195665
1.46745e-06
0.000901532
-3.99473e-06
0.0304375
-1.21348e-06
8.46271e-05
-0.000490767
-0.0847963
0.000672299
-3.79977e-06
-5.00986e-06
0.00353569
-0.000312774
5.79738e-05
-2.82027e-06
-1.44596e-06
-0.000360387
-0.137084
0.00409737
-2.25798e-06
-4.62094e-06
-2.92753e-05
-7.58616e-06
1.6337e-05
-2.98595e-06
-4.47298e-06
0.0398446
-5.24707e-06
-3.24096e-06
0.00847591
-2.67611e-06
-0.0129209
0.000498512
1.76741
-0.0672346
-0.0350422
-0.301499
-3.81886e-06
-1.04209e-06
-0.000103263
-3.51395e-05
-2.66031e-06
-2.34292e-06
-1.02149e-06
-6.74444e-06
-0.0476008
-0.00897741
-0.00592923
-0.000181402
-1.39085e-06
0.000498454
0.000447276
0.00261824
-4.97548e-06
6.30617e-05
-1.11335e-05
-0.608325
2.37814
-0.308155
2.1938e-06
-0.000934891
-0.00372044
-0.123697
-0.101801
0.355643
-5.43177e-05
-0.000629902
0.000122789
2.50093
-9.17873e-06
4.47164e-07
0.00162495
-0.0989293
-3.98851e-06
0.0374257
0.0470437
-5.12489e-06
-8.83361e-07
-5.65185e-06
-9.97559e-06
-5.62127e-06
-4.70584e-05
0.000637968
-6.14789e-06
-1.00613e-05
0.399149
-0.526086
-5.68749e-06
-0.0699793
-0.00478341
1.91785e-05
-7.49737e-05
-4.89556e-05
-5.88533e-07
-3.7173e-05
2.63795e-05
-1.93342e-06
-1.12591e-06
-4.72469e-05
-6.42605e-06
0.982905
0.000324567
-1.35849e-06
-6.51743e-06
-0.579988
-1.48614e-06
7.60807e-08
-0.902179
-2.85164e-06
0.000904248
0.000203678
-2.60509e-06
-2.07488e-06
1.9618e-06
-0.00023113
-0.00033073
-2.52552e-06
-0.0394234
0.00263643
-0.00230471
0.412831
-2.61899e-05
-0.0747207
-1.52487e-06
-0.0356379
4.33821e-06
-7.7462e-06
-0.00922751
-0.0289568
2.03815e-05
0.00878221
0.00872525
-4.05644e-06
0.000278062
9.12249e-08
-4.37511e-06
0.000297042
4.37705e-05
-6.99602e-07
-0.0625208
-1.92313e-06
-9.11559e-06
0.0613739
7.65807e-06
-3.08236e-06
-1.66934e-06
1.24249
-6.24716e-06
-7.11515e-05
0.000591595
0.779905
-0.0102722
-0.0189664
0.0378241
-6.11655e-06
-1.64189e-06
-2.30376e-06
-0.546238
2.51181e-06
-1.10607e-06
4.99716e-05
-7.53844e-06
-0.00468842
-7.75411e-06
-2.48109e-07
1.47398
-2.02425e-06
-0.00309297
-0.604483
-1.53599e-06
-5.71902e-06
1.84758
-9.20135e-05
-0.191199
-0.768623
-2.31916e-06
-1.43548e-06
-0.0876891
-1.64343e-06
5.68199e-05
-0.0412409
-2.82931e-06
-0.0470438
-5.5363e-06
-8.60681e-06
-5.91092e-06
0.000536868
4.93426e-05
0.246337
-4.93614e-06
-2.81479e-06
-0.0178586
0.0461573
-0.00030602
-0.000240901
-0.0687213
-0.139481
0.470439
1.43695e-07
0.00061125
-8.11644e-07
-0.548254
0.468931
-5.23116e-06
-0.000367561
-9.45527e-06
0.0173084
4.11838e-07
-0.98131
7.15115e-06
2.26202
-0.0104663
-8.47143e-07
8.4966e-08
-4.16761e-06
0.0209863
0.00135152
-1.96755e-06
-0.0902114
-2.94419e-06
-3.38198e-06
-0.0521461
-4.32984e-06
-0.0461811
4.83863e-07
5.50552e-05
-3.38059e-06
1.18939e-06
-2.76292e-06
7.14279e-07
0.00164562
-0.000204188
-0.000309332
0.000878284
1.17724e-05
-5.12386e-06
-0.0156332
-5.22764e-06
0.260471
-4.52479e-06
0.0727128
0.000239869
0.138686
3.35394e-06
1.03162e-06
-2.50877e-06
-0.000174138
-1.71777e-06
-0.0895199
0.00406453
-3.86265e-06
0.000131052
-5.50073e-06
-2.32247e-06
-5.189e-05
-8.46455e-06
0.0232868
-2.69014e-06
-6.1485e-05
1.83874e-06
2.82653e-05
-0.720532
-0.0409537
6.92486e-06
-2.60922e-06
7.25221e-05
9.86022e-06
-1.76174e-06
-0.000215299
-1.65712e-05
-3.86609e-06
-4.30223e-06
5.25392e-06
-0.0104753
-0.00455084
-4.69844e-06
-5.03988e-06
-0.969445
-9.01478e-05
0.0205956
2.20632
-3.8338e-06
-0.69087
3.65488e-06
1.1327e-05
-0.000108134
-5.47961e-05
-0.00770729
-3.38369e-06
0.000874716
1.79971e-05
0.00619157
-0.863386
-0.245292
0.810037
-0.000597884
-5.494e-07
-9.52919e-07
-0.0610799
-1.37881e-05
-3.0399e-06
0.000501153
-0.0865467
-1.69198e-06
-2.38144e-06
0.634282
4.87785e-05
-7.57222e-05
-0.000233374
6.28934e-05
0.00545456
-9.40214e-07
6.9138e-05
1.95923e-06
-0.000392765
-0.000230921
-4.85772e-07
2.06012e-05
-0.226704
-2.9696e-06
-5.18588e-06
-0.0436487
2.04245e-07
-1.31663e-06
-7.89663e-06
3.27467e-06
8.68735e-05
0.755634
-0.00330896
-0.0381996
-0.000407651
-0.0672445
0.00217883
-0.000169143
-0.155299
-0.0545303
6.15289e-06
2.55539e-06
-5.72887e-06
-7.53642e-07
3.66747e-06
-8.32632e-05
0.0122918
-0.0110373
-3.03027e-06
-1.23946e-06
-0.00109064
-0.000186448
0.0157487
-3.29524e-06
-1.80224e-05
-1.49987e-06
-0.0302341
0.00941459
0.000582141
0.0433413
5.95827e-07
-1.08132e-06
0.00143379
-1.70575e-05
-6.58887e-07
0.00387877
2.22712e-05
-6.92558e-05
0.0199368
0.00120205
-0.000269299
-5.23935e-06
3.6394e-06
-1.28449e-05
-3.38211e-06
-0.0424812
0.00218406
-0.0306413
0.0154345
-0.10016
1.81227e-05
-0.499924
0.130872
-0.235775
-0.00919161
0.0550437
0.000276203
-0.122306
-0.00179931
-0.000519931
-1.52095e-06
-1.28133e-06
7.39656e-06
-0.00116759
-2.23514e-06
-5.27404e-06
-0.0405923
-0.318443
-0.0157853
-0.0508809
-0.00316891
-0.0357018
-0.000308494
9.83445e-05
-5.02246e-06
-0.0933676
-0.00959394
-3.12445e-08
0.000666716
-0.354923
0.2099
0.829795
0.00121621
0.00349202
-1.73832e-06
-0.188674
-3.0594e-06
-0.0277286
0.0838859
-0.000668285
-0.00767184
-0.00267501
-1.75708e-06
-3.95196e-06
0.304845
-0.0230726
-0.00802584
2.30467e-05
-0.000253323
-6.39897e-05
-0.00288005
-1.35974e-05
-0.036505
-3.56446e-06
0.00475573
-0.104579
-0.000225604
0.00126216
0.0097024
0.801061
-1.82655e-06
-0.000417353
0.147919
0.000440016
-4.67946e-06
-0.522032
0.0475716
-2.60789e-07
-5.44235e-06
0.0764248
-1.88224e-05
0.000155999
0.212221
-0.222139
-3.07713e-05
0.000282844
-0.479233
0.000552585
-8.31105e-05
-6.45208e-05
-0.0283156
-0.000251258
-3.02221e-06
-4.69864e-06
0.0119787
-1.11622e-06
-0.16905
1.4699e-07
-1.82561e-06
-0.0327588
4.80281e-05
7.13052e-07
-0.0936154
-3.03664e-07
4.60916e-05
9.41674e-07
-2.62254e-06
-3.88435e-06
-0.00546223
-3.7359e-05
-0.0207685
-0.012283
-0.0187362
-0.890018
3.12481e-05
-2.44891e-06
-1.48e-06
0.103394
0.000246898
4.98594e-07
-0.0176691
0.000916882
0.0210577
-8.79784e-07
-3.10855e-07
-2.33897e-06
-7.54161e-06
1.34064e-05
-5.38584e-06
-7.5211e-05
-1.91957e-05
-3.71282e-06
-0.186216
0.00238052
-0.0405164
0.000266735
8.00731e-07
6.24381e-05
0.266
0.243831
0.106812
0.128527
-0.111133
-1.54069e-05
0.155159
-1.28176e-05
-0.000532232
0.000901347
0.349433
-4.4878e-06
-0.284552
-0.0753849
-0.0051835
-3.12485e-06
0.0436436
-1.21514e-06
-5.48575e-06
2.68027e-07
0.000262357
-0.0904181
-0.0137342
-1.67474e-06
-8.79726e-07
1.35307e-06
-4.48743e-07
-0.000276942
-2.71885e-06
0.0544894
0.00144709
0.000693496
2.01982e-05
-5.37275e-07
-4.46297e-06
0.284406
0.25923
-7.98665e-06
2.34169e-05
-0.00461353
-5.42841e-07
-2.44666e-06
-2.07437e-06
9.4989e-06
-3.27662e-06
1.70526e-06
1.73117e-06
0.026157
4.37929e-05
-0.0473579
-9.56814e-06
-1.80835e-06
-0.0428423
1.16657e-05
2.02449
-2.1689e-06
-0.000746503
0.0418377
-0.0137844
-0.00050281
-0.000507995
0.809989
0.000158189
-0.000332588
-6.44594e-06
-4.15874e-06
-5.72438e-06
-3.60339e-06
0.00645813
0.0015629
9.10267e-05
0.0033188
-5.13631e-06
-2.95051e-05
0.00139535
0.102588
3.41708e-07
0.000136673
-0.0505097
-0.0095145
0.0847446
-5.16111e-06
-1.05675e-05
0.772004
-0.000281215
-3.4965e-06
7.88091e-09
-0.00724299
-2.02324e-06
-2.33809e-06
-0.041713
0.00139907
4.93117e-05
-7.55879e-05
-0.000130792
0.480472
5.68325e-05
0.0358683
-0.900705
-5.32204e-06
-5.09373e-06
-0.0583313
0.000960133
-0.000847259
7.22774e-06
-0.00169517
-0.000625242
-2.72312e-06
-0.000171026
-0.00741741
0.00195479
-0.168923
-0.00494126
0.000632493
-0.0883387
-0.021963
1.37599e-05
0.0972462
-0.798539
-0.000115497
-0.161535
-6.12112e-07
-0.00699142
-1.28435e-05
-0.00575234
-0.00138939
-0.0632763
-0.000234615
0.00696138
-1.29194e-06
4.63822e-07
-0.753411
-4.56642e-05
-1.09142e-06
-4.73592e-06
4.16272e-06
1.72278e-05
-2.69632e-05
-4.16347e-06
-3.40438e-06
-0.0826238
1.97409
-2.34852e-06
5.42225e-05
-0.477757
-0.0281933
-1.23472e-06
-0.00859442
-0.102805
0.000804297
7.05832e-06
-3.02203e-06
0.354415
-2.99735e-06
0.00248471
-0.000550275
-2.5034e-06
-0.000704411
0.00845184
-7.8136e-06
-0.00324035
0.00716556
0.204888
-2.41131e-05
-7.49421e-06
-4.12821e-06
-1.0849e-06
-5.27585e-06
-0.0263734
0.441826
-2.96198e-06
-0.341696
2.02875
2.17299e-06
-2.60669e-07
-5.26455e-06
0.112019
0.758135
0.00606512
0.00168842
4.10438e-05
0.0274236
-0.0596439
-2.17617e-06
-4.81191e-06
0.000267774
0.000529535
-0.330257
-0.013267
-2.99548e-06
-0.0148002
-0.053779
0.000237998
-3.71976e-06
-3.97415e-07
-0.000142979
-4.97389e-06
-2.47646e-05
-2.62612e-06
-0.0323399
-0.0232599
-5.54562e-06
-1.11888e-05
0.00091223
-2.19126e-06
-4.65807e-06
0.000102862
0.0157154
-2.42029e-06
0.000146377
-0.12279
-0.00904464
0.00497793
-0.00361975
0.000183003
0.000215581
5.19965e-05
-3.74091e-06
-2.61836e-06
-7.99704e-06
-0.124045
0.000695648
-1.25631e-05
-0.00549405
-4.61397e-06
-0.00385387
-0.0769237
2.50332e-06
-0.0542387
-3.43316e-06
2.15565e-05
-0.00710806
0.112935
0.000181696
5.5742e-05
4.6289e-05
-0.0158867
-1.60341e-07
0.189606
0.547655
-2.29782e-06
0.000462982
0.0166463
-9.36392e-07
-1.02403e-05
0.0216293
0.0007301
-6.28919e-06
-0.0357319
0.000106448
-4.31959e-06
0.707518
-0.123481
-0.00177132
-2.40442e-06
-0.0573904
-0.00110344
-1.86657e-06
0.00248338
0.000622742
0.00010503
0.00745173
-0.317509
0.000392327
0.00234407
-0.00352544
-2.30078e-06
2.14962
-0.0400515
-0.00414986
-0.00973463
1.41796e-06
0.0247084
3.11821e-06
-4.16574e-06
0.00106422
-2.36881e-05
-0.0227835
-0.00156434
-6.58477e-07
0.450543
-0.548268
-0.283007
0.000447591
0.00183813
7.65945e-08
-6.87224e-05
5.30574e-05
4.91969e-07
-0.009698
-0.529898
0.030928
-0.249892
-0.0211071
0.174687
0.0226844
-4.04969e-06
-0.000180298
-0.952261
0.000892429
5.10522e-06
-9.14312e-07
-0.138662
-0.0119434
0.000200874
-5.15333e-06
-9.08101e-06
0.0209406
-7.4957e-09
0.0088646
-0.0280396
-9.43099e-06
-1.52387
-3.45155e-06
0.0840548
-0.00724219
1.71403
7.16815e-05
-0.046497
-2.40527e-05
-6.48739e-06
-9.42447e-06
0.559216
0.00152279
-0.0253705
-8.1711e-06
1.31728e-07
0.102855
1.96394
-4.76371e-07
-0.00822475
-0.00856602
0.386849
1.81125
-1.73688e-06
6.22336e-06
-0.00900601
2.3237e-07
-3.38243e-06
3.46318e-05
2.83834e-06
2.1352e-06
-6.2707e-07
-1.5839e-06
0.000101445
-4.79099e-06
-0.000322951
-0.000315348
4.89831e-05
-0.441835
0.38029
-0.000106027
-1.39859e-06
-4.21866e-06
-0.00741161
-2.29875e-06
-5.25617e-06
-6.3399e-06
-0.00957512
-8.45149e-06
3.71499e-06
-7.5689e-05
-0.00154914
0.277986
-1.1511e-06
-0.00598326
-0.0363754
0.000149951
0.00267919
-0.0162582
8.65682e-06
-3.78619e-06
-0.0209857
-0.0117616
-1.16737e-05
-0.0641291
2.34023
-4.01502e-06
1.39103
-6.58022e-06
0.0026897
-0.105891
0.0348576
-0.878437
-7.50312e-05
-3.28743e-06
0.605003
8.92913e-05
0.0536767
0.00221628
0.00787171
0.0417362
3.36489e-05
3.24253e-05
-8.71934e-07
0.00328439
0.00024585
-0.540273
-4.42161e-06
-2.45609e-06
0.0112986
2.14559e-05
-0.0515045
-2.90884e-05
-0.0186671
-0.601374
0.00109473
2.23276
0.618207
-5.04727e-06
-1.68019e-06
-5.25471e-06
-0.0766467
0.111074
-1.09215e-05
-7.83375e-06
-2.07991e-05
-1.47839e-06
-0.00138622
-5.83192e-06
-1.13753e-06
-0.376153
-2.08772e-06
-1.88272e-06
0.000178847
0.0901905
-0.60588
0.271267
1.0633e-08
-0.00319787
-0.000398039
9.83638e-05
-0.010405
-0.0797086
0.581193
-0.000117708
0.00311739
-1.15164e-06
0.000769844
0.0030739
0.00132817
-0.460423
2.5842e-06
-0.000271911
-4.45795e-06
0.18025
-0.0110155
-1.14429e-06
-2.17763e-05
5.58081e-06
6.11225e-06
0.239329
-3.92058e-06
-8.27912e-06
1.75106e-06
2.28868e-05
-3.58767e-06
-1.73207e-05
-3.91973e-06
4.24629e-06
-2.54932e-06
-3.821e-06
0.0408282
0.101601
3.02351
2.30092e-06
-6.11694e-07
-1.12835e-06
-1.0143e-06
-1.23137e-07
-0.0012537
-9.738e-07
-2.51947e-06
-5.09115e-06
-3.40886e-06
0.000447371
-5.46557e-06
-0.541719
0.225375
0.000470257
-0.621422
-6.61163e-07
-0.536511
-0.0159152
-0.0455326
1.86766e-06
0.745515
-6.94274e-06
-5.27755e-06
8.48762e-07
-0.00221349
-0.000796312
-4.06422e-06
0.00132589
-0.000248446
-9.95854e-07
-0.0297366
0.10216
-0.000913051
-1.76485e-06
6.97445e-05
0.623396
0.000558751
-0.42256
-4.15839e-06
-4.72861e-05
-7.52174e-06
-0.000301325
0.000431719
-0.00394762
-0.0010665
-3.18249e-06
2.22793
0.00491614
-0.00693699
-2.53641e-06
-0.000228271
-0.335772
2.37265e-05
-1.05021e-06
3.20408e-05
0.0198918
1.65694e-05
6.70833e-06
-4.59248e-06
-0.000664621
3.62958e-05
0.110465
2.77457e-06
9.02854e-05
0.000518695
-0.0623058
-3.17883e-06
-2.40259e-07
-1.60562e-06
0.000734912
-1.33687e-06
0.128529
-0.0711461
-0.00065653
-0.00977678
-4.46594e-06
2.03413
-4.25039e-06
-2.38715e-06
-0.016301
0.00393141
-0.00482237
-0.00988379
-0.0131885
-0.0275707
-0.000314997
0.000792664
-4.75338e-05
-0.283564
-5.94715e-06
6.79814e-05
-0.567937
-1.20108e-06
0.0149528
0.0943628
0.0756048
-0.0673257
0.00287804
-0.109369
0.31416
-0.00322552
-9.76028e-05
0.00241562
-6.86514e-06
-3.20538e-06
-1.72522e-06
0.0595344
1.41681
0.319727
-0.000116763
-4.48023e-05
-0.0240046
-3.94699e-06
-0.000180984
-3.88015e-07
0.00154678
-5.21293e-06
4.93185e-09
9.35511e-05
-3.13698e-06
1.17811
-0.000893798
0.000471016
-3.94321e-06
-0.000779461
-0.489609
-1.06502e-05
0.00547805
2.94414
4.82827e-07
-0.00245167
-2.25416e-06
0.638136
0.000155571
2.86794
-2.28776e-05
-3.09257e-06
0.00022723
-0.0128269
-0.468391
0.00350978
0.0965464
1.96305e-05
-4.29167e-06
-1.50889e-06
-4.93763e-06
-3.02936e-06
-3.95486e-06
-0.294466
-1.3194
-0.000715031
-6.74135e-05
6.13059e-05
7.41951e-05
-2.88322e-06
-8.13014e-06
-0.000406266
0.217219
0.0398622
-2.61506e-06
-0.0281904
-2.25154e-06
-0.00221592
2.17367e-05
0.000332302
-0.0204176
0.0474579
0.0371062
-2.85354e-07
-3.27851e-06
-3.50474e-06
-9.24241e-07
-7.33818e-06
-2.02087e-06
0.0825414
-3.20794e-06
3.669e-05
-2.08971e-05
-0.001194
-4.09004e-06
0.804269
-0.935386
0.0027564
4.841e-06
-0.013036
-2.80782e-06
0.0455761
0.29316
0.000102018
0.00794096
8.09398e-05
-0.00187748
8.02687e-06
5.65233e-06
0.000271706
0.00158113
-0.00177602
-0.43041
-0.00535918
-0.00909942
0.000150728
4.46956e-06
1.19385e-06
-0.212452
6.0233e-05
0.777124
1.00233e-05
0.405533
-0.563482
-0.0349822
-2.05303e-05
-0.00524326
3.16154e-05
-1.04323e-06
-3.43165e-06
-7.48774e-05
-0.0012099
-5.02277e-06
-0.00978367
0.00383001
-0.00218025
-3.59414e-06
9.88779e-05
-0.0135369
-0.0179295
0.0279161
0.000150658
-0.00345995
1.47272
-0.0301438
-1.23218e-06
-0.00055407
0.0182615
-0.00103123
-0.429725
0.000179956
0.000125551
-0.0064783
-4.09449e-06
0.00777743
-0.000392593
-6.93128e-06
-0.149042
-0.0530032
-0.986792
-0.000438412
-0.00482433
0.000894297
-3.23392e-07
0.00143956
-1.10949e-07
-0.00687475
0.000237317
0.116
-0.308994
0.505494
-0.0131044
-0.00898976
-0.530141
0.000104855
-0.0173392
0.00237495
0.0442747
1.83503e-05
-1.1854e-05
-5.0257e-06
0.000146547
-6.14831e-06
-2.46419e-06
-0.596275
-1.47746e-06
-2.75035e-06
-0.000254611
-2.63576e-06
-8.65301e-07
0.00640681
0.617208
-0.00314108
-4.52295e-06
-6.6775e-06
0.000430398
-5.4142e-05
-1.10248e-06
-3.55957e-06
-7.13813e-07
-0.0101085
0.000200867
0.00545443
-0.000415424
1.99421e-06
1.1185e-07
-0.0188362
-0.00797344
-0.0341007
-0.00394033
-1.25806e-06
0.00134176
-3.86367e-06
0.000115054
0.0325342
0.0384934
-0.00852432
3.56091e-05
-1.31503e-05
0.000197863
0.0248416
-0.0549404
-0.216015
0.000179764
-1.80233e-05
-2.47569e-06
0.000132934
0.00624109
-1.30834
-4.07491e-06
-0.0210639
2.64902e-07
-7.89985e-06
-0.000193506
-1.17103e-06
-0.0504325
-0.000698508
-0.00491118
-2.42305e-06
-0.00030588
0.000503742
0.56932
-1.38513e-05
2.8396e-05
-0.00780658
0.272918
1.09717
-0.389554
0.259311
-9.17941e-05
-0.0127401
0.000184571
0.00315637
-0.00204379
0.000143337
-4.77943e-06
-2.91807e-06
-1.42793e-06
-1.17697
0.1994
-4.2731e-05
0.348699
-2.82323e-06
-5.04404e-06
-1.38385e-06
-0.00666396
-0.0175066
0.409332
-2.70287e-06
-1.30627e-05
0.00111396
-0.409317
-2.52951e-06
0.0741584
9.71354e-06
4.605e-05
0.152437
-3.53587e-06
1.16569
0.11642
0.0754171
0.451884
-2.25213e-05
5.35407e-05
-0.000392861
0.157966
-0.00698445
-3.52474e-06
-0.228986
-0.121836
4.58493e-07
2.12931e-05
-0.608851
-1.19842e-07
0.689286
0.0882583
0.000160197
-1.92743e-06
-7.07172e-05
0.000248264
0.0573754
-2.40367e-06
-1.7985e-05
6.98936e-05
0.00796035
-0.0460267
-5.38801e-06
-6.34165e-06
-0.00677995
-0.000296147
-3.50103e-06
6.10904e-06
-3.77663e-06
0.00105963
3.91225e-05
0.0231596
-1.96721e-06
4.15175e-06
2.72402e-05
-5.83007e-05
-0.000368731
7.3286e-05
0.0934175
0.0143241
0.00203536
-5.10208e-07
-2.24319e-06
-0.129327
0.000192599
-0.00224285
-0.624825
-0.00741257
-0.0153351
0.211014
-2.13622e-06
-0.560731
-0.0191134
1.89643e-06
-1.31399e-07
-2.75959e-06
-2.68222e-06
-0.487878
-0.0222717
-7.55562e-06
-0.145034
0.157649
-1.24346
-1.6431e-06
8.54125e-07
-0.00565498
-3.87008e-06
-8.1813e-06
-1.54868e-05
-4.78719e-06
-0.00700974
-8.25679e-06
0.0506238
-0.119998
-3.08331e-05
-0.239004
0.000215379
-0.00277745
-0.498937
-4.21785e-06
-0.000120114
0.000506844
2.65881
-1.72649
-0.0758691
-1.90428e-05
-2.15989e-06
-0.000852718
-3.52103e-08
-0.0122233
0.754873
-4.09416e-06
-1.25892
-3.21549e-06
0.295329
-0.000103109
-0.00803766
-5.42636e-06
-0.837922
0.0058416
-0.235583
-0.208294
-1.00005e-06
-0.0685401
-0.620756
-1.47662e-05
-0.423397
-2.2962e-06
-1.08742e-06
2.44384e-06
0.000185861
-6.16484e-05
-3.16347e-07
-3.33764e-06
0.000946812
0.00068665
0.00244331
-0.0905339
0.001829
-0.000249835
3.72703e-06
0.00313243
-4.44643e-06
-0.00965416
-1.22252
0.111134
0.0106173
8.29104e-05
4.02189e-05
-1.41399e-05
0.00461357
-4.2645e-05
-3.34723e-06
0.470918
0.569157
-1.26548
0.000152037
-1.52015e-06
0.00126962
0.0339388
4.5926e-05
-6.29653e-07
6.76556e-05
-6.10752e-05
0.000842023
-5.51528e-06
-0.0310414
-3.91045e-06
0.296545
8.66093e-07
-0.14
0.2333
-0.458899
2.26397e-06
-0.00924066
-3.69237e-06
-3.56982e-06
0.00182451
0.375093
-4.99947e-06
4.32343e-06
-0.219665
-2.84718e-06
0.00201402
-0.274276
-0.000435895
0.740549
-8.0463e-06
0.784685
0.000566233
-0.0581413
-2.03925e-06
-3.18034e-06
2.90604
-5.97298e-08
-0.000353773
-0.00010107
0.000414807
0.527449
-2.44114e-05
-2.16556e-06
4.69527e-06
-1.55311e-06
-0.419465
-0.28362
-3.36834e-06
-0.0282562
0.0102036
-0.728058
5.55098e-07
-0.0253773
-0.173882
0.000274649
0.000334833
-2.40446e-06
-0.15982
-1.60728e-06
0.0180217
-1.96959e-06
4.31588e-06
1.47125e-05
-1.94804e-06
-1.76442e-06
0.00321987
3.85285e-05
-4.2314e-06
-0.0321737
-4.25598e-06
0.00262571
0.000190586
-0.429958
0.000644419
1.10426e-06
-0.000514165
-3.95664e-06
-3.49849e-06
-8.94352e-05
0.206528
0.0533639
-0.036363
2.82017
-9.13814e-07
-3.33673e-06
-1.19992e-06
-4.00203e-06
9.89171e-07
-0.0194674
-3.87368e-06
8.25356e-05
-0.0200305
1.56697e-05
-0.0168729
-4.65536e-06
-6.80827e-07
-1.08633
0.0746982
-2.14542e-06
-0.00112591
-1.79629e-05
-0.665271
-1.08616e-06
-6.43428e-05
0.25368
-1.71216e-05
0.0344085
-0.00561851
4.29194e-06
-8.75714e-06
2.62988
-0.000195935
0.00217188
0.293312
-0.439984
5.33773e-06
-0.000787773
0.000747453
2.60597
-2.48377e-05
0.915748
-0.0852665
-0.324042
-0.225001
1.62067e-05
-3.20357e-06
-4.24053e-06
-0.206375
0.0200883
-1.21781
0.761422
1.89218e-06
0.0403015
-3.23032e-05
-0.180662
1.61564e-06
0.00180592
-0.00191561
5.67054e-05
-2.60565e-05
-0.011157
0.000178493
-3.88316e-06
6.35211e-07
0.00312733
2.43554e-05
-4.46773e-06
0.0427269
-1.89085e-05
-2.54004e-06
-7.71886e-07
-0.526806
-0.000608367
-0.0025916
0.000102474
3.21295e-05
-0.222581
-7.35524e-05
-0.00120814
-3.28518e-06
-4.56372e-06
0.144096
0.848941
0.0684057
-0.000196802
-0.000178076
-0.0997541
-0.00151926
-0.000803689
0.0187549
0.0398422
0.178226
-1.23392e-06
-0.0746821
-8.46935e-06
-0.000544
-0.299078
-0.00937144
-0.00946663
-5.26574e-06
-1.05433
0.00206386
0.0219567
0.00135908
-9.99192e-07
-2.97183e-06
-6.83273e-06
-0.399404
-1.44171e-06
-0.191609
-0.000390122
0.0284392
1.19674e-06
-0.608803
0.271534
0.00847518
-0.0506428
6.22855e-07
-3.80894e-06
-1.7976e-06
0.000106262
-2.93175e-06
-0.000286505
-0.189497
-4.41844e-06
-8.72049e-06
0.674453
0.00828365
0.0254089
-0.000273988
0.00038362
6.79528e-07
-0.366455
3.21353e-05
0.0273026
0.00089978
-0.00839766
-0.000612727
-0.00962044
1.85415
-4.30196e-06
-4.84818e-06
-0.135768
0.0595155
-0.159961
-0.00858008
0.00125237
3.93932e-06
0.010906
-3.14677e-06
-0.0206952
-2.68979e-06
1.78059e-05
-0.0460353
3.47479e-06
-0.00980036
-2.03283e-06
0.161114
-0.56634
0.0016105
0.000505483
-0.355792
0.000158893
-1.50636e-06
-0.171101
0.285448
-0.110486
-3.8075e-06
-2.09913e-05
0.285812
0.378231
-0.0905913
-4.4878e-06
-0.000130912
-2.41556e-06
0.00012202
-9.91185e-06
-2.05868e-06
0.308955
-4.62337e-06
1.38443
-0.000139742
-0.00152943
1.81414e-06
0.50017
-1.18824
-0.00849387
1.99426
0.0449374
-2.90938e-06