/*--------------------------------*- C++ -*----------------------------------*\
| =========                 |                                                 |
| \\      /  F ield         | OpenFOAM: The Open Source CFD Toolbox           |
|  \\    /   O peration     | Version:  v2012                                 |
|   \\  /    A nd           | Website:  www.openfoam.com                      |
|    \\/     M anipulation  |                                                 |
\*---------------------------------------------------------------------------*/
FoamFile
{
    version     2.0;
    format      ascii;
    class       volVectorField;
    location    "400";
    object      ddtCorrDdt0(U);
}
// * * * * * * * * * * * * * * * * * * * * * * * * * * * * * * * * * * * * * //

dimensions      [0 1 -2 0 0 0 0];


internalField   nonuniform List<vector> 
18758
(
(0.00657083 -0.00236331 6.96763e-19)
(0.0384575 -0.013954 2.14955e-19)
(1.3518e-05 -2.63371e-06 1.60671e-18)
(0.00634287 -0.00345153 -5.72149e-19)
(-0.00745378 0.000830818 -1.59854e-18)
(2.99257e-06 2.91335e-06 1.02658e-20)
(0.000194842 -6.20106e-05 8.88281e-20)
(-0.000877629 -0.000782794 -1.16169e-18)
(-0.0065652 0.000138013 1.30896e-18)
(-0.00586273 -0.00137554 -2.419e-18)
(0.0256362 -0.0227068 -2.98665e-19)
(-0.00117418 -0.22685 5.15099e-18)
(-0.040884 -0.0269779 -1.81791e-18)
(0.000910973 -0.000378071 1.49015e-18)
(0.00019351 -4.55554e-05 -3.29334e-20)
(0.000162664 3.0091e-05 4.81854e-20)
(-0.0174291 -0.220035 -7.86887e-19)
(7.30962e-06 -5.72523e-05 2.359e-21)
(0.000188417 -4.16185e-05 3.84297e-20)
(0.000408249 0.00325913 -1.59436e-18)
(0.0790713 -0.0257463 -1.8428e-19)
(0.0466187 0.0981243 -4.40902e-18)
(1.45368e-06 3.22147e-06 -1.46608e-20)
(-4.43967e-05 6.71981e-06 -1.80668e-20)
(0.0172974 0.108764 -1.09141e-17)
(0.11879 0.00958775 -9.42923e-19)
(-0.0475314 0.0697662 5.00286e-18)
(0.00149148 -0.065591 -4.64576e-18)
(0.0358681 -0.00576755 -2.60503e-18)
(0.0528103 -0.00841843 2.01608e-19)
(0.0668297 -0.079319 1.10397e-17)
(-0.0635461 0.074485 -6.43289e-18)
(-0.000785406 -0.000665489 6.08112e-19)
(-0.0981527 0.165028 8.11432e-18)
(-0.0077887 0.00294876 7.18433e-19)
(0.0518231 -0.0188683 2.04652e-19)
(-0.0372811 -0.0343441 1.04833e-18)
(-0.0069922 0.00226989 -7.0118e-19)
(0.0541716 0.0494091 9.08726e-18)
(0.000269427 0.000309804 -4.84298e-20)
(0.0161844 -0.137103 4.08706e-18)
(-0.00603584 -0.00407586 6.09506e-19)
(-0.0149291 -0.115509 4.1704e-19)
(-0.00117522 -0.000521176 1.80952e-19)
(0.000207855 1.05238e-05 -2.46351e-20)
(0.00649131 -0.021025 -1.50741e-17)
(-0.00498888 -0.00379047 9.87892e-20)
(0.0346843 -0.0123532 2.43934e-18)
(-0.101568 0.156566 -4.09828e-17)
(0.00393339 -0.0050906 4.81037e-19)
(0.0286679 -0.026881 1.19768e-19)
(-5.8727e-05 0.0670487 1.1021e-18)
(0.00330281 -0.00582682 7.08492e-20)
(0.00368121 -0.00184346 -1.16859e-18)
(0.0393148 0.0480433 2.87124e-19)
(-0.0402508 -0.0214057 -1.6128e-18)
(-0.000332354 0.000345657 -1.447e-19)
(0.000633255 0.00292418 9.58296e-19)
(0.0301841 -0.014067 7.92788e-19)
(-0.000226341 0.000318174 2.43573e-19)
(0.000206862 5.9345e-06 8.80607e-20)
(-0.00117851 -0.000290908 5.11025e-19)
(-0.052562 -0.102147 -9.67599e-18)
(0.145342 -0.182352 4.67468e-19)
(0.000205969 6.63118e-06 9.83996e-21)
(-0.160222 0.159403 5.21232e-18)
(0.000171591 -7.04255e-06 -2.68398e-20)
(-1.00059e-05 -8.50208e-05 -1.24685e-19)
(-0.0032508 -0.0659179 5.81761e-19)
(1.50489e-05 -6.1385e-05 -4.11356e-21)
(-0.0138159 0.079937 -7.89443e-18)
(0.144473 -0.00403209 -2.31833e-18)
(0.000239347 0.000118483 -4.26902e-19)
(-0.00434257 0.00518353 8.59943e-19)
(-0.0384375 0.0429771 1.69577e-18)
(0.0570842 -0.0838034 2.53334e-18)
(-0.0432532 0.420808 -2.9887e-18)
(-0.0482571 -0.172044 1.37749e-18)
(-0.00680812 -0.0010363 1.90594e-18)
(-0.0276562 -0.110592 -2.28021e-20)
(0.0319888 0.0199524 1.13437e-17)
(0.0386248 0.0522008 4.77251e-18)
(-0.0443862 -0.177668 -3.82117e-18)
(-0.0225747 0.0181422 -1.85985e-18)
(-0.00115869 -0.00198978 -1.026e-19)
(0.0320167 0.0395837 2.72249e-17)
(0.00283875 0.00127554 -3.80877e-19)
(-0.00467967 0.0059782 -1.62385e-18)
(-0.0291236 -0.116817 -3.34389e-18)
(0.0290225 0.0394683 -2.13498e-17)
(-0.0630946 0.188292 -1.83016e-18)
(0.000173734 2.81945e-06 -4.88397e-20)
(0.020657 0.0153009 -1.51967e-18)
(-0.110628 0.153743 2.77169e-17)
(0.000227521 0.000115481 1.86975e-19)
(0.000182433 1.87565e-05 1.93569e-19)
(8.93203e-05 4.68426e-06 -1.07648e-19)
(0.0216599 -0.00341649 1.01036e-18)
(-0.035423 -0.179815 6.56966e-18)
(0.000202478 -8.35996e-05 7.85438e-19)
(0.0265075 -0.06881 3.58083e-18)
(0.00329183 0.00955186 -8.79112e-19)
(-1.12226e-05 -8.6326e-05 8.34707e-20)
(0.000185707 1.44846e-05 -4.21388e-19)
(-0.16001 0.16808 -3.67912e-17)
(0.0804286 0.00167611 1.81812e-19)
(0.0358547 -0.0103516 -3.58956e-18)
(-0.0684815 0.182573 6.58722e-18)
(0.123634 -0.0248153 1.3261e-18)
(0.0715287 -0.0374178 -1.98314e-19)
(0.000158273 1.92736e-06 2.83262e-20)
(0.135334 -0.20323 6.46819e-18)
(0.00182871 -0.00643073 -4.91998e-19)
(9.92562e-05 5.8528e-07 5.72285e-19)
(0.00424623 0.00949931 -1.25967e-19)
(0.0333006 -0.116654 -3.95626e-18)
(0.0207953 -0.00468507 -6.01999e-19)
(0.000129518 2.70272e-05 -1.75585e-19)
(0.0542699 -0.122544 8.70243e-18)
(-0.00021467 -0.00304656 7.73257e-19)
(8.96571e-05 -4.35215e-06 -6.48527e-19)
(-0.0298563 0.411385 8.66955e-18)
(-0.000788643 -0.00223235 -3.01201e-19)
(7.04249e-05 -0.000177112 -1.4136e-18)
(0.0921208 0.0572989 -7.71452e-18)
(0.00387874 -0.00141759 -9.34662e-19)
(-0.000574021 -0.000384379 4.63675e-19)
(6.66064e-05 -0.00017338 1.19395e-18)
(0.0621182 -0.00657725 -1.69715e-18)
(0.110365 -0.0162849 1.93087e-17)
(0.0316344 -0.0122211 -3.33086e-18)
(0.000152254 -7.99488e-06 2.12435e-19)
(-0.00242419 -0.00617306 3.19532e-20)
(-0.122455 0.221806 -7.34597e-18)
(0.000382144 0.000306099 2.81004e-20)
(0.000115382 -2.15864e-05 -8.83648e-19)
(-0.0617208 0.587425 4.59573e-19)
(3.97943e-05 -0.00210776 8.03739e-21)
(0.0418161 -0.0598618 4.48132e-19)
(0.032428 0.0176454 -5.14262e-18)
(0.00115229 -0.00779081 1.0593e-18)
(0.0499042 -0.102724 3.5057e-18)
(0.0154581 0.000605889 8.89156e-19)
(0.058037 0.111899 6.82699e-19)
(0.11068 0.0421718 1.23244e-18)
(0.0133907 0.00970513 -4.37531e-18)
(-0.1572 0.174263 1.98486e-17)
(0.0552274 -0.00364622 3.75507e-18)
(0.0299559 -0.0195467 3.14732e-19)
(0.10395 -0.0915379 1.31536e-19)
(0.121068 0.000632288 2.69283e-18)
(0.0232731 -0.00881098 2.86354e-17)
(0.000256642 0.000291434 -3.39382e-19)
(-0.00658442 0.00503446 -1.67075e-18)
(0.00906296 -0.155642 -6.91791e-19)
(0.0992458 0.110037 -1.55176e-19)
(0.0212789 0.0140948 1.14302e-18)
(0.0651829 -0.00573204 1.30443e-17)
(-0.0163813 0.027098 2.61888e-18)
(0.0351971 -0.0208508 -5.16219e-19)
(0.170781 0.0286715 6.22451e-20)
(4.58551e-05 -0.00011126 7.17115e-19)
(-0.113559 0.0513871 -2.74161e-17)
(-0.15542 0.181355 -2.3267e-17)
(-0.126687 0.136947 1.00754e-17)
(0.000378692 0.000377547 -5.76206e-19)
(6.13443e-05 -0.00012589 -6.11293e-19)
(0.138393 -0.043412 -3.52601e-20)
(0.118605 -0.0102278 -7.72723e-18)
(0.0152386 -0.226286 3.9065e-18)
(-0.0383853 0.000298578 1.59363e-17)
(2.3021e-05 -1.84487e-06 -1.08948e-18)
(0.0403113 -0.00805948 1.65927e-18)
(-0.000327834 -0.0140654 -1.78936e-19)
(0.156508 -0.128012 2.15701e-18)
(0.000187888 -9.72658e-05 -5.50616e-19)
(0.000221798 0.000106256 -1.94664e-19)
(0.100414 0.0238875 -1.45646e-17)
(-0.0371841 0.141523 -9.31824e-18)
(0.000658203 0.00039581 -4.10235e-19)
(-4.68753e-05 -5.95297e-05 -6.95606e-20)
(0.00419938 5.52146e-05 -1.28726e-18)
(0.0399927 0.0443861 1.19522e-17)
(0.00110398 0.000477405 -8.02435e-18)
(0.0824499 -0.114869 6.18046e-19)
(0.000191211 0.000101535 -8.15188e-19)
(0.0556478 -0.00251219 -5.00933e-19)
(0.0142957 -0.000745623 -3.70886e-19)
(-0.132646 0.169931 2.69759e-17)
(-0.200095 0.184741 -3.49584e-18)
(0.00947744 -0.0158464 -2.33523e-17)
(0.000192757 8.56591e-05 5.31894e-19)
(-0.00187269 -0.0413515 1.45631e-18)
(-0.098935 0.426731 8.24688e-18)
(-5.49875e-05 7.21791e-05 -1.16547e-19)
(0.00103528 0.000378072 -1.11818e-18)
(0.0454163 -0.0676263 1.77842e-18)
(0.000248355 0.000288401 -5.34769e-19)
(-0.152747 0.197021 -8.96094e-18)
(-1.85825e-05 -6.62338e-06 -5.37063e-19)
(-0.000552288 -0.0023817 -2.68389e-19)
(0.0702908 -0.00684775 -3.26749e-18)
(-0.0689785 0.153826 -1.95352e-20)
(0.000158448 2.15688e-05 2.40262e-20)
(0.000158296 -1.03256e-06 1.10526e-20)
(-0.12556 0.0701134 1.79778e-18)
(6.9401e-05 -0.000100789 6.58459e-19)
(-0.00775347 0.00437255 1.57613e-18)
(0.118373 -0.00847817 -2.94198e-18)
(0.077714 -0.0303967 -3.68647e-17)
(-6.39197e-06 9.67492e-07 5.22859e-19)
(0.0242161 0.0127191 -8.02785e-19)
(-0.000341247 -0.0028916 1.87396e-19)
(0.00167 -0.000909324 1.12411e-18)
(0.000773705 0.00219019 -5.90005e-19)
(9.12533e-05 3.33884e-05 8.74013e-20)
(0.000150567 -5.99754e-06 -7.3956e-20)
(0.0227859 0.0125885 1.81314e-19)
(3.45034e-06 5.88266e-06 1.05202e-19)
(0.047105 -0.0689429 4.97194e-19)
(-0.0314538 0.336774 -1.02683e-17)
(0.000615869 -0.000431999 -1.79736e-19)
(0.015129 -0.000334702 -3.17574e-19)
(0.0714061 -0.0104537 2.02282e-18)
(-0.120952 0.170485 2.2332e-21)
(0.00926311 0.122042 -4.41435e-18)
(-0.0366592 0.0522053 -1.61842e-18)
(0.019285 0.0422651 -3.28366e-19)
(0.166104 0.0160328 1.55576e-18)
(8.88034e-05 -0.000111384 -7.51674e-20)
(0.117815 0.00428673 -4.95318e-18)
(0.0137483 0.00870528 4.73419e-18)
(0.171786 -0.126808 -4.61241e-18)
(0.000121396 -1.6588e-05 4.92036e-19)
(0.00021116 -2.27822e-05 1.07591e-19)
(0.000772078 -0.000422006 -6.23215e-19)
(-0.0657137 0.00506245 -3.65635e-18)
(-0.0726602 0.138831 2.73025e-18)
(0.0503964 -0.0769196 -1.66058e-18)
(-0.00016862 -0.000134837 6.97122e-19)
(0.000161288 -1.12031e-05 5.15527e-21)
(-0.059107 0.00748711 4.2061e-18)
(0.0368644 -0.0521289 2.05335e-19)
(-5.78165e-06 -7.5627e-06 -4.21276e-19)
(0.105231 -0.0932149 -1.053e-19)
(0.0799046 -0.0478116 3.47137e-18)
(0.000216145 -2.17555e-06 3.49718e-19)
(0.000126851 -0.000112155 6.07958e-19)
(0.000844252 0.00120613 -6.57881e-19)
(0.000196092 -9.74487e-05 -7.0742e-19)
(-0.0450543 0.0122658 -2.49199e-17)
(-0.000458329 -0.000776653 -5.66729e-19)
(0.0357355 0.0257026 1.1958e-19)
(0.000868171 -0.000586322 6.51363e-19)
(1.85013e-06 -1.41755e-06 -2.47072e-20)
(0.0657145 -0.0780241 -6.20621e-19)
(0.000124296 0.000399502 6.98339e-19)
(0.155161 -0.010275 -5.13414e-18)
(0.000160548 -7.46896e-06 -7.30773e-20)
(-0.0127475 -0.452956 -4.26698e-18)
(0.00289677 -0.00619005 3.67133e-19)
(7.17198e-05 -0.000170087 -3.80973e-19)
(0.000217989 1.58179e-06 -4.28145e-20)
(-0.0037795 -0.038993 8.08742e-19)
(-0.124853 -0.0665106 -5.80774e-18)
(-0.093833 -0.0131759 2.16933e-18)
(6.68508e-05 -0.000163516 7.48388e-19)
(0.042049 -0.055159 -1.3421e-18)
(0.000269688 0.000290562 3.56752e-19)
(-1.51762e-05 -0.000240505 5.35827e-20)
(0.0614163 -0.124646 -2.5372e-19)
(-0.0113155 0.121237 -1.16312e-17)
(3.37134e-05 -0.000219317 2.28062e-19)
(0.00014828 -0.000132975 -3.8043e-19)
(-2.29417e-06 0.00296053 -4.22633e-20)
(0.000812467 0.00190771 9.42625e-19)
(0.00114367 -0.00425948 2.62058e-18)
(5.0262e-06 4.5969e-06 -4.52856e-20)
(0.00201626 -0.00103531 -9.5674e-19)
(0.00087916 -0.000470903 1.91156e-18)
(0.000132173 -0.000108833 3.46108e-19)
(0.000148388 -1.02947e-05 3.22224e-19)
(0.00017142 -2.83306e-05 5.03158e-20)
(-0.147312 0.195301 -3.73385e-17)
(0.000193741 -5.61712e-05 -1.76401e-19)
(0.000149993 -0.000143715 4.34436e-19)
(-1.34503e-06 -4.10652e-05 -4.50486e-20)
(0.0376465 -0.0480867 -6.97995e-19)
(0.000181767 -7.22834e-06 -9.08376e-19)
(0.000183711 -1.00334e-07 1.60791e-19)
(4.90138e-06 -3.48771e-06 5.11608e-19)
(0.000723163 0.000260554 -1.37506e-18)
(-0.000361203 0.000277336 -1.68813e-19)
(-4.31641e-05 -7.48737e-06 4.21129e-19)
(-3.07559e-05 5.98989e-07 5.00067e-19)
(0.00147015 0.0022563 -1.79437e-19)
(0.00455599 0.132824 4.36008e-18)
(0.00017138 1.88522e-06 6.90643e-20)
(-4.12838e-05 3.65278e-06 3.3173e-20)
(0.119013 0.0801823 -1.19975e-17)
(0.00232155 -0.000196246 -5.38659e-19)
(6.52116e-06 -1.92345e-06 9.31858e-20)
(5.86174e-06 -4.29513e-06 -3.62395e-19)
(0.00753014 2.69613e-05 -3.30946e-18)
(-0.000360751 -0.0295405 5.66943e-20)
(-4.94436e-05 -5.06923e-05 3.10733e-19)
(0.011679 -0.00470782 -1.5393e-19)
(0.0789738 0.023163 1.32802e-18)
(-0.00141645 -0.000140596 -7.38796e-19)
(-0.0428242 -0.0142529 -5.66553e-19)
(0.000170146 -3.7481e-05 -7.22416e-21)
(-0.055768 0.0457442 2.58142e-19)
(0.0459179 -0.0624994 -3.98472e-18)
(0.025558 -0.0383032 5.43231e-19)
(0.0349613 -0.00360276 3.26138e-18)
(-0.104368 0.162501 2.86033e-18)
(-2.54132e-05 -7.71737e-05 7.316e-21)
(-0.0103417 -0.0346472 7.34073e-18)
(0.0783071 -0.0144144 -6.47832e-18)
(0.000176697 -2.93688e-06 1.29376e-19)
(0.0227374 -0.0369797 -5.27455e-19)
(-0.017769 0.0231306 -3.61004e-18)
(0.101486 -0.095357 -2.60592e-19)
(0.000203358 -7.86373e-05 -4.37612e-19)
(-2.16539e-05 -8.22392e-05 -7.65894e-20)
(0.0926323 -0.0257065 -2.33622e-18)
(-0.00485136 0.0526895 -4.11182e-19)
(0.000147842 -0.000177014 -2.30526e-20)
(0.0418877 0.079045 -2.17876e-18)
(-0.0485962 0.00425833 3.37759e-18)
(-0.0041283 -0.00880238 5.17642e-19)
(-0.126408 0.226398 -2.65452e-17)
(0.000197928 -7.83017e-05 -1.56755e-20)
(0.000264597 0.000486418 -3.04082e-19)
(0.000161921 -1.18403e-05 6.78368e-20)
(0.000102595 -1.33456e-06 -1.03294e-18)
(0.0012099 0.000238925 -5.88851e-19)
(-0.00236686 -0.00327638 -4.30406e-19)
(-0.000805585 -0.00090082 -3.72933e-19)
(2.34537e-06 -8.98924e-05 1.03103e-18)
(0.00109298 0.000276001 -4.98671e-20)
(-0.000129405 -0.000186489 -4.73231e-19)
(-0.0932292 -0.305776 -1.25892e-17)
(0.0182929 -0.0067955 -3.58596e-18)
(0.00033839 -0.0018508 -1.81889e-19)
(-0.0103669 -0.0143443 -1.73273e-18)
(-0.040849 -0.139874 1.25851e-19)
(0.000143927 -0.00017375 1.83849e-18)
(0.00849536 0.000319837 -2.0259e-18)
(-0.00560145 -0.0371325 1.73589e-19)
(0.00804426 0.103259 -2.70102e-17)
(0.0377533 -0.122309 -4.12678e-19)
(0.026087 -0.0844407 2.93392e-18)
(0.000187799 0.000112745 2.25937e-19)
(-0.00465693 0.0644303 4.83749e-18)
(-0.00924985 -0.337993 2.62262e-18)
(0.0133558 -0.00869743 3.88313e-18)
(-8.73123e-05 -0.000169562 1.15004e-19)
(-0.00530791 -0.00761666 -9.78686e-19)
(0.00206843 -0.000463895 -1.6005e-18)
(-0.000904755 -0.000558261 -1.7629e-19)
(0.0503705 -0.0706372 2.46488e-18)
(-0.0844339 0.453186 -2.11033e-18)
(0.0188681 -0.131829 2.94003e-19)
(-0.0395724 0.0708939 -5.09273e-20)
(-0.109721 0.498295 4.65201e-18)
(0.000214835 -1.52037e-05 -1.2803e-19)
(0.00365117 -0.000343718 -1.01502e-17)
(0.00466982 0.000292706 1.16636e-18)
(0.0217799 -0.00639976 -1.21188e-19)
(-0.0828836 0.13414 2.82616e-19)
(0.0353659 -0.106708 4.03291e-18)
(0.134747 -0.0867124 4.58968e-18)
(-0.0765751 -0.0735623 1.17391e-17)
(0.0267797 -0.116467 -1.76571e-18)
(0.0247489 -0.0904727 -1.51963e-18)
(2.04821e-06 -1.01397e-06 3.41801e-20)
(-0.161568 0.153424 4.97277e-17)
(0.058555 -0.00267086 -3.78759e-18)
(0.0149051 -0.0265673 2.64349e-19)
(0.00422327 -0.143755 -1.48868e-18)
(0.00017885 -8.44408e-06 -4.87434e-20)
(-4.10999e-05 8.1486e-06 -1.11976e-19)
(0.0364335 0.0969475 2.83097e-18)
(0.0234428 -0.142927 1.08382e-18)
(-0.0692368 0.118329 -1.19279e-18)
(0.118378 -0.0852101 3.04644e-18)
(0.0655197 0.060841 -9.95574e-18)
(-0.000171115 -0.000172129 -1.21082e-19)
(0.00136548 -0.242642 -5.85644e-20)
(0.071532 -0.0396401 5.66266e-20)
(0.000161413 2.0897e-05 5.41153e-20)
(0.000628489 -0.000520837 2.91202e-19)
(0.00159463 0.00179945 -9.99244e-21)
(-0.00221228 0.00145384 -7.17721e-19)
(9.17015e-05 -2.88231e-06 -3.62778e-19)
(0.00226497 -0.000242223 -6.70123e-19)
(0.000170418 0.00020467 4.95238e-19)
(0.000159157 -5.4436e-06 -6.14426e-20)
(1.83575e-06 -6.86095e-06 1.20185e-18)
(0.00160245 0.000601819 4.11769e-19)
(-0.0101983 -0.00533245 8.34761e-19)
(0.00597098 -0.0324615 5.70404e-18)
(0.00497503 0.00151412 2.63961e-18)
(0.117919 0.0173001 -4.22662e-18)
(0.103505 0.0164322 -4.36217e-18)
(0.150074 0.0341017 -1.75669e-17)
(-0.0152284 -0.0666905 -8.81614e-18)
(0.0549049 -0.0137789 3.56842e-19)
(0.0014359 0.00175609 -9.56645e-20)
(-3.31464e-05 9.49581e-06 -6.12528e-20)
(-0.00930656 -0.124694 1.01968e-19)
(0.00055448 -0.000585607 1.87038e-18)
(-0.000235569 -7.8197e-05 4.64815e-20)
(-0.0883488 0.476466 -9.15573e-19)
(0.0208302 -0.00762631 6.97415e-19)
(0.0363101 -0.0458052 -2.26153e-19)
(1.10857e-05 0.000474448 -4.08322e-19)
(-0.0834342 -0.256753 9.84003e-18)
(0.000215509 7.57754e-06 -5.29437e-20)
(0.00242933 -0.000296215 5.44096e-19)
(-6.09871e-05 5.03691e-06 2.15805e-19)
(-0.192313 0.220749 -1.50401e-17)
(-0.0782175 0.0205047 -2.749e-19)
(0.0382757 -0.128793 1.50739e-19)
(-3.1293e-05 -6.11579e-07 -1.15107e-19)
(-0.141609 0.234699 -3.83946e-17)
(0.0178381 0.0159133 1.2133e-17)
(0.000168495 -9.99087e-06 4.47182e-21)
(-0.00174945 0.0017242 -3.23632e-19)
(-5.99053e-06 -1.63558e-06 1.41655e-19)
(0.119027 -0.054351 3.0696e-19)
(-1.28831e-05 3.1344e-06 3.76335e-19)
(-4.17036e-05 -1.01214e-05 -1.49749e-19)
(-0.0913495 0.0631425 -3.57152e-19)
(0.00502754 0.00182973 -5.29582e-18)
(-0.000237386 -0.000118521 -2.76841e-19)
(0.000217744 0.000106122 8.64392e-20)
(-0.00104788 -0.000411295 3.14253e-19)
(-0.0026098 -0.00165367 -1.93319e-19)
(0.0631092 -0.276409 1.3196e-17)
(0.0453491 -0.0335968 7.7173e-20)
(2.99249e-06 3.9604e-07 6.05619e-20)
(-0.163802 0.15322 -1.69296e-17)
(-6.15651e-05 1.98974e-05 -4.87174e-21)
(-0.00249126 -0.0037545 2.36886e-19)
(0.0177925 0.0402516 1.04938e-17)
(9.67679e-05 9.60478e-05 1.88661e-19)
(0.0484467 -0.0395684 7.38872e-19)
(1.21555e-06 2.90575e-07 -4.42461e-20)
(-0.00300861 -0.00165456 1.14968e-19)
(1.5286e-05 -1.77816e-06 1.51988e-19)
(0.0296165 -0.101898 -3.36219e-18)
(0.00232688 0.00321048 4.68391e-19)
(0.000174709 0.000199921 3.0745e-20)
(-0.0420431 0.119623 -7.4182e-18)
(0.00545713 -0.0291666 -8.18236e-20)
(1.19008e-06 -4.58822e-05 -2.46809e-21)
(0.00352803 -0.000494734 8.94431e-18)
(-0.000950009 0.00322468 1.27569e-18)
(0.000158773 2.07911e-05 4.9464e-20)
(2.01117e-05 3.36832e-06 -2.52954e-20)
(0.000159254 -6.3419e-06 1.71342e-20)
(-0.107213 -0.108343 -3.93767e-18)
(-0.0466964 0.243202 1.30716e-18)
(0.000294591 0.000195071 -6.3252e-20)
(0.00788626 -0.0080042 -4.73445e-20)
(-0.0982207 0.519475 -4.13089e-18)
(0.0974864 0.0204831 3.23982e-18)
(-0.00171935 0.123356 -1.63367e-18)
(0.0773798 -0.0501198 -6.34736e-19)
(-0.00362311 0.100693 2.23799e-18)
(0.00014865 -0.00010166 -1.88296e-19)
(0.0511122 -0.0136464 -4.86745e-19)
(-0.0535158 0.00211714 -2.13252e-18)
(-0.010503 0.0022907 -6.19809e-19)
(-0.000844628 -0.000558666 -2.51214e-19)
(0.0441801 -0.069977 1.16447e-18)
(-0.0100491 -0.0221137 5.94379e-19)
(-0.000237215 -0.00749096 2.28501e-18)
(7.43616e-06 3.03989e-06 -9.72252e-20)
(0.00019407 -6.45428e-05 9.77773e-20)
(0.000184414 -3.04907e-05 -8.30206e-19)
(9.81663e-05 8.79205e-05 -2.11295e-19)
(0.000184659 -3.98038e-05 3.61733e-19)
(7.73445e-05 4.68735e-05 -1.46269e-19)
(-0.0555918 0.00610097 7.66359e-19)
(7.93789e-05 -6.99104e-06 1.72808e-18)
(-5.75751e-05 5.04617e-05 -5.73564e-20)
(0.0153041 0.0167605 7.14952e-18)
(0.000155882 -1.05946e-05 -5.1199e-19)
(1.86011e-05 -3.77393e-07 3.28735e-19)
(0.000101541 0.000397445 1.16492e-19)
(-0.000735471 0.00288022 4.48654e-19)
(-0.0127141 -0.019073 -6.00549e-19)
(0.080633 -0.0399493 1.09597e-18)
(3.24796e-05 -0.000101619 -5.20419e-19)
(0.0250765 -0.0277072 -2.14796e-19)
(-4.66278e-06 -4.07856e-06 -9.3428e-21)
(0.00529802 0.000978932 -2.08619e-18)
(0.0555592 0.0242333 -3.87839e-18)
(-0.0431884 0.263555 4.92556e-18)
(-0.0677386 -0.0836485 4.04939e-19)
(0.000152825 -6.83805e-06 3.53069e-20)
(0.000183436 0.000124138 -1.80276e-19)
(-0.0477168 0.254038 5.23204e-18)
(-0.131621 0.229261 2.79846e-17)
(-0.0101192 -0.0111081 4.94197e-19)
(-0.000181078 0.000417228 -2.83693e-19)
(0.0495351 -0.0479334 -8.85665e-19)
(-0.151702 0.188605 2.03425e-17)
(-1.53654e-06 -4.47304e-05 5.51057e-20)
(-6.35701e-06 -6.20544e-06 6.43294e-21)
(0.268727 -0.000413592 3.325e-18)
(0.000450019 0.00225051 -7.81518e-19)
(0.0349254 0.0168004 -1.33055e-17)
(-0.0118822 -0.0091312 -2.70292e-18)
(-0.00180086 0.00234427 9.97827e-19)
(0.00744264 -0.0086177 2.71276e-18)
(0.000131829 -0.000117105 -7.12582e-19)
(0.000193805 -8.32751e-05 -5.15995e-19)
(0.000155754 6.76647e-06 9.68184e-20)
(-1.64397e-05 5.64876e-06 2.02385e-20)
(0.000120717 -0.000116217 -5.89508e-19)
(0.000200687 9.45382e-06 2.02202e-19)
(-0.0181765 -0.0180451 -3.83991e-18)
(-4.07516e-05 -5.97405e-05 -4.31828e-20)
(0.0295068 -0.0481598 1.68445e-18)
(-0.081898 0.499843 4.30515e-18)
(1.00888e-06 -4.9317e-05 -1.10278e-20)
(-4.20249e-05 -6.26807e-05 -2.77895e-19)
(7.90668e-05 -3.07108e-06 -1.30106e-18)
(0.00305376 -0.00226689 -8.75363e-19)
(0.00835415 0.00438426 -6.26683e-19)
(0.0501743 -0.0335163 1.56772e-18)
(0.000211584 -5.88052e-05 -3.34302e-19)
(-0.204517 0.168605 7.08698e-18)
(-0.00695572 -0.00550598 -3.15455e-19)
(-0.00994596 0.00295542 1.15811e-18)
(-0.00018834 -4.15397e-05 -4.8175e-19)
(0.00135738 0.000358776 -4.27442e-19)
(0.000885483 0.0015777 -2.77682e-20)
(0.000273159 0.000127616 -8.72297e-19)
(0.00027823 0.000148663 1.42553e-18)
(0.0676571 0.165982 -1.43129e-18)
(0.0971289 -0.101601 -7.74565e-20)
(0.000128543 -0.000101162 -4.86759e-19)
(0.000128419 -0.000131768 -4.08206e-19)
(0.000667489 0.000264399 -4.66858e-18)
(0.111248 -0.00649366 -1.01564e-17)
(-5.99838e-05 -5.01783e-06 1.83179e-19)
(0.000129778 3.45348e-05 4.92341e-20)
(8.16402e-05 4.29188e-05 -5.83492e-20)
(-5.95738e-05 3.99378e-05 1.84254e-19)
(0.00016555 -0.000149767 1.22072e-19)
(-0.00014584 -3.92265e-05 2.26389e-19)
(0.00125952 0.00125656 4.18848e-19)
(0.000161237 2.9263e-05 -3.24678e-20)
(0.0312557 -0.0168389 -1.24117e-18)
(0.000215066 -4.33057e-05 1.7637e-19)
(0.0004267 0.00045133 -3.78452e-20)
(-0.0584381 -0.0438658 2.16969e-18)
(-0.0329713 0.263405 -6.71016e-18)
(-0.00154882 -0.00578218 1.41739e-18)
(-0.00051502 -0.000497522 -6.98684e-19)
(0.000173968 -0.000141578 1.78591e-19)
(2.23823e-05 -8.60943e-08 3.82687e-21)
(0.000193648 6.71854e-05 -1.08548e-19)
(0.000177005 -0.00258055 -1.12078e-18)
(0.0249367 -0.0314457 5.00081e-20)
(0.0101233 -0.051014 -6.05059e-20)
(0.000701779 0.000329451 -2.56864e-18)
(0.104615 -0.06171 -1.57255e-18)
(0.00017606 -0.000142664 -6.65876e-19)
(0.00905391 0.000607511 -2.08763e-18)
(-0.000763267 -0.000381735 -4.01445e-19)
(-2.96975e-05 -8.79205e-06 5.1037e-20)
(0.0149432 0.00854641 -1.99537e-18)
(1.636e-05 -5.64869e-05 1.49731e-20)
(-1.87428e-05 5.42541e-06 -2.38484e-19)
(-0.0205588 -0.0428076 -5.80173e-18)
(1.44237e-05 -4.43959e-06 6.21997e-19)
(0.00107829 0.000332398 3.14935e-18)
(-0.0288671 0.070891 -1.477e-18)
(8.83659e-06 -8.2683e-06 -5.0549e-19)
(0.000201188 -1.09698e-05 3.6461e-19)
(-0.177831 0.20205 1.8851e-17)
(0.000165136 -1.67574e-05 4.7957e-19)
(-0.0637695 0.0196335 4.37256e-19)
(-0.00985342 -0.0184808 2.02414e-19)
(1.35347e-07 -1.22441e-05 4.76122e-19)
(1.65607e-05 -7.9274e-07 1.66352e-19)
(-0.0193934 0.016725 4.75416e-19)
(-0.00163267 -0.000181382 -5.91877e-20)
(0.00870328 0.00357647 7.5246e-20)
(0.000189708 -9.92548e-05 2.27892e-19)
(-0.0197134 -0.389422 5.56775e-19)
(0.0965398 -0.0703298 7.95286e-19)
(-0.0195285 0.0913131 1.3915e-17)
(0.000138622 -0.000129555 -8.35692e-19)
(0.133455 0.0729665 -5.45041e-18)
(-5.07393e-05 6.27277e-05 2.68525e-20)
(-5.81059e-06 3.30679e-07 2.33777e-20)
(0.000230294 3.19692e-05 1.11619e-20)
(0.000526921 -0.00597606 2.67866e-19)
(-0.172406 0.147141 -8.4243e-19)
(-0.051629 -0.0660932 -2.01811e-18)
(0.00144081 -0.0003194 4.44782e-19)
(0.00103407 0.000439611 3.08675e-18)
(-0.00076848 -0.00284877 -8.34824e-20)
(-0.207338 -0.517378 3.03572e-17)
(0.0431132 -0.0458856 2.45125e-18)
(0.000201614 4.51092e-05 -9.63329e-20)
(0.0140115 -0.00432004 6.79491e-19)
(0.00236166 -0.000624526 -2.97116e-18)
(-0.0559912 0.117823 -1.88721e-17)
(-0.00180602 -0.00593908 1.73564e-19)
(-0.0104904 -0.0104379 1.87243e-19)
(0.000163179 -0.000132653 -3.46687e-19)
(-0.000451403 -0.00609702 -8.05862e-20)
(0.0204698 -0.0106595 1.74355e-18)
(3.17943e-06 -1.22469e-05 -2.52619e-19)
(0.00016302 -0.000142264 1.84612e-19)
(-5.86429e-05 -1.84871e-05 2.00238e-19)
(0.000142928 -0.000162658 5.88629e-19)
(-0.000811904 -0.00461036 -5.70294e-19)
(0.0377807 -0.0272398 -1.11554e-19)
(0.0366013 0.0133017 -5.0196e-19)
(-0.047582 -0.0280157 1.08523e-17)
(-0.011488 -0.00807635 -1.02273e-19)
(-0.00215538 0.00349751 1.3438e-18)
(0.000227883 1.72949e-05 -6.73046e-20)
(0.000102378 -6.30729e-05 -2.12937e-19)
(0.0289717 -0.0586488 -1.6122e-18)
(0.0141062 0.104379 -7.30891e-18)
(0.000194783 0.000426765 -1.1097e-19)
(0.0156527 -0.00238494 2.26992e-18)
(0.0406524 -0.0127932 -8.80571e-18)
(0.0763829 0.158426 4.86761e-18)
(-1.10194e-06 -1.61863e-07 2.07425e-20)
(-5.22868e-06 3.2493e-06 8.48127e-20)
(-0.0221584 0.0223199 2.39664e-18)
(0.0131577 0.148143 -5.11705e-18)
(-4.58848e-05 6.88113e-05 4.10726e-20)
(-0.0133078 -0.0352859 -6.83252e-20)
(0.000133258 -0.000128539 5.34055e-20)
(0.000167769 -3.49346e-06 1.254e-19)
(0.00645268 0.000105773 -5.33905e-18)
(0.000172041 -8.53222e-06 3.47248e-20)
(0.000295651 0.000172881 1.09984e-19)
(-0.00175077 -0.000330053 1.4021e-18)
(0.000163105 -9.13209e-05 -2.42979e-19)
(-0.0019955 0.000946251 4.93923e-19)
(0.042652 -0.0275148 -2.19861e-18)
(0.0152385 0.00747062 -2.17156e-18)
(-0.0413367 0.120864 -4.21636e-18)
(0.00141718 -0.00106151 -8.70819e-19)
(0.000167603 -0.00013917 -6.09955e-20)
(0.0497866 -0.115585 5.32379e-18)
(0.00013447 7.43148e-05 -4.25316e-20)
(0.0583881 -0.126577 -1.0154e-17)
(-0.000638981 0.00233623 1.4861e-17)
(0.000113725 -0.000138617 -3.59796e-19)
(-0.0803332 0.571975 2.53294e-18)
(-0.00300016 -5.15238e-05 -9.32712e-20)
(-0.000589063 -0.000666094 5.55245e-19)
(-0.0631924 0.598484 1.96236e-17)
(0.00389774 0.0122288 -2.55648e-20)
(-0.00487836 0.0169062 1.38082e-19)
(-0.130517 -0.109273 2.4851e-18)
(-0.00141109 -9.659e-05 -1.00249e-19)
(-0.0786127 0.0580404 2.24427e-18)
(-3.56739e-05 -5.43255e-05 1.05589e-19)
(-0.15367 0.143622 -5.37811e-18)
(0.152342 0.0418819 1.41465e-17)
(0.0114588 -0.00807826 -2.5559e-19)
(0.00107984 -0.000587765 -4.21801e-20)
(0.0330057 -0.196871 -5.47236e-18)
(0.00215516 -0.000611298 1.42175e-18)
(0.0140501 0.0391425 -1.87576e-19)
(0.0909127 -0.0262289 -2.01165e-19)
(0.229085 -0.0158471 1.64639e-18)
(0.000234789 0.00027275 -2.28919e-19)
(-0.00289871 -0.0962933 1.44559e-17)
(-1.45543e-05 -3.93754e-06 1.4351e-19)
(0.0165801 -0.00357559 3.79707e-19)
(0.0389064 -0.00579737 -3.07294e-18)
(2.53073e-05 -2.44661e-05 7.42531e-19)
(0.00427404 -0.00619498 -3.67366e-19)
(-0.00909535 0.32216 2.73258e-18)
(-0.0611433 0.00850251 -1.65025e-20)
(-0.00127426 0.00585074 2.49555e-18)
(0.00127272 0.00143967 -8.79459e-19)
(-5.78687e-05 6.24713e-05 9.98936e-21)
(-4.75437e-05 -0.000183871 -8.18344e-19)
(0.00221173 0.00242885 5.67874e-19)
(0.0135184 -0.00221679 6.1003e-19)
(-0.0596958 0.0390525 -3.85413e-18)
(0.000231018 -9.38014e-05 6.05653e-19)
(0.0371892 -0.125274 -2.46169e-18)
(-0.00168924 0.00322383 1.80385e-19)
(-3.69136e-05 -0.000220998 -1.38501e-18)
(0.00377557 0.000626288 -7.8169e-18)
(-5.67468e-05 -3.2974e-05 -1.93951e-19)
(0.0128404 0.00627078 2.68973e-20)
(0.000163265 -2.57757e-05 -3.72395e-20)
(0.000142539 -0.000165234 3.28779e-19)
(0.0996639 -0.100372 3.12066e-19)
(0.00011685 -8.66495e-05 8.93073e-20)
(0.00226076 -0.00082017 2.64607e-18)
(-0.0234059 -0.112539 5.64829e-20)
(0.0191171 0.0161242 -1.19415e-17)
(0.0133798 0.0204674 -1.01273e-17)
(0.000162976 0.000167432 2.02541e-19)
(0.000109872 -0.00019774 -9.97965e-20)
(-0.00115953 -0.027982 1.31446e-18)
(0.000241818 -0.000100423 -1.15023e-19)
(0.000323139 0.170009 7.24765e-18)
(0.0022282 0.000112288 1.79046e-18)
(0.000297354 0.00251786 1.2363e-18)
(0.000417172 -0.000365599 -4.07051e-19)
(-7.72475e-05 -0.000153418 -9.13487e-19)
(-5.20746e-05 7.20764e-05 2.33937e-19)
(0.176848 -0.0321705 1.35102e-18)
(-5.77388e-05 -3.05151e-05 3.68502e-20)
(-0.0182063 0.194086 -2.39528e-19)
(0.0768347 -0.0102304 2.72851e-18)
(0.000703024 0.000367373 -3.06914e-18)
(-0.059309 0.139222 -1.22928e-17)
(-3.47904e-05 -1.19698e-05 2.9309e-19)
(-0.00264223 -0.00790785 -4.31286e-19)
(-0.00108882 0.00541281 -7.56503e-21)
(-0.216555 -0.480347 1.2053e-17)
(0.00210356 0.000369098 6.06419e-18)
(0.0318379 -0.0408078 4.57196e-19)
(-0.0063856 -0.173735 -3.34919e-18)
(-2.74997e-05 -1.11964e-06 -6.33239e-20)
(-0.0357967 -0.106587 -7.38619e-20)
(8.22102e-06 -3.52469e-05 5.70386e-19)
(0.086393 -0.0237986 -4.23504e-20)
(0.000220308 -0.000138932 -7.96463e-20)
(0.000216114 -6.56939e-06 2.72827e-19)
(-0.106118 0.195161 1.06334e-18)
(-0.00238614 -0.127581 5.81079e-19)
(0.000161997 -1.1338e-05 -9.50783e-21)
(0.000486009 0.000205922 -4.58779e-19)
(-0.00102421 -0.000546762 4.13596e-19)
(9.07995e-05 3.01407e-05 -1.23565e-18)
(0.00016501 0.000156134 8.14015e-20)
(0.0390423 -0.0883623 9.77698e-19)
(-0.101256 0.268186 2.46423e-18)
(0.000513806 -0.000127626 3.95169e-19)
(9.20787e-05 2.80212e-05 6.12588e-19)
(1.27518e-05 -4.29488e-05 6.12326e-19)
(-0.0229684 -0.364749 -1.41176e-17)
(-0.0581056 -0.0603533 5.628e-18)
(-0.020201 -0.00985162 -9.18807e-19)
(0.000153815 -0.000106747 -1.11016e-19)
(0.013511 -0.00904419 -3.80927e-19)
(0.000200485 -1.55559e-05 -8.1302e-19)
(6.61074e-05 -0.00022717 5.1906e-19)
(0.00532019 0.00131724 6.93526e-18)
(-0.0367859 -0.195305 -5.74546e-18)
(0.000197514 4.32071e-05 3.68618e-20)
(0.0160921 -0.00132773 7.55292e-19)
(0.0633607 -0.033907 3.17716e-20)
(0.000181688 0.00244042 -1.37818e-19)
(-0.00279253 -0.0284615 2.24569e-19)
(0.000208623 7.83633e-05 5.31979e-20)
(-0.00297006 -0.00568683 -1.11715e-19)
(0.000198395 3.85637e-05 -1.94013e-19)
(0.000330488 -9.68801e-05 -4.24246e-19)
(0.0036567 -0.000838364 -1.61529e-18)
(-9.43576e-05 -0.000230724 1.32839e-18)
(0.0216929 -0.00935381 -9.95428e-19)
(0.00010733 7.84977e-05 -4.58019e-20)
(-0.126893 0.215753 -1.88187e-17)
(0.000154403 -1.16564e-06 9.7917e-20)
(0.00236366 2.87972e-05 -1.70911e-18)
(0.0342245 -0.00792675 4.74169e-18)
(-0.0533549 -0.00265242 1.08048e-18)
(0.0159321 -0.00466316 2.72376e-19)
(-2.71669e-05 7.91206e-06 -7.36623e-22)
(-5.94204e-05 -0.00013198 6.69642e-19)
(-0.000139222 -0.174475 -6.18711e-19)
(0.0142996 -0.0121386 6.62259e-19)
(0.0092426 0.0365516 6.44377e-19)
(0.000155916 2.48272e-05 3.19066e-19)
(0.000191489 -0.0001187 1.4285e-18)
(-0.00478108 0.00444165 9.68988e-19)