/*--------------------------------*- C++ -*----------------------------------*\
| =========                 |                                                 |
| \\      /  F ield         | OpenFOAM: The Open Source CFD Toolbox           |
|  \\    /   O peration     | Version:  v2012                                 |
|   \\  /    A nd           | Website:  www.openfoam.com                      |
|    \\/     M anipulation  |                                                 |
\*---------------------------------------------------------------------------*/
FoamFile
{
    version     2.0;
    format      ascii;
    class       surfaceScalarField;
    location    "850";
    object      meshPhi;
}
// * * * * * * * * * * * * * * * * * * * * * * * * * * * * * * * * * * * * * //

dimensions      [0 3 -1 0 0 0 0];
oriented        oriented;


internalField   nonuniform List<scalar> 
27907
(
1.6149e-05
3.79224e-05
-5.40748e-05
3.33044e-05
-4.4352e-05
1.1047e-05
-4.92536e-05
-2.31875e-05
6.22905e-05
-2.6042e-05
4.9327e-05
-2.32856e-05
-2.72057e-05
4.18044e-05
-1.45987e-05
2.05351e-05
-4.0783e-05
2.02477e-05
2.70345e-05
-3.01835e-05
3.14899e-06
0.00014064
3.75881e-06
-0.000149092
1.44579e-05
3.42778e-05
-4.8738e-05
5.78114e-05
-0.000100569
4.26936e-05
0.000149435
-7.62641e-05
-7.33844e-05
-2.13932e-05
-1.6509e-05
3.79021e-05
-2.24623e-05
9.94571e-06
7.02058e-06
-4.37252e-05
-1.68685e-05
6.05868e-05
-1.85414e-05
-0.000107847
0.00012604
2.30441e-05
-4.78104e-05
2.47661e-05
-9.82184e-05
7.2734e-05
2.54443e-05
-0.000183078
5.24049e-05
0.000127919
0.000161925
-0.000154432
-8.2448e-06
-2.86433e-05
-6.30409e-05
9.16418e-05
1.79327e-05
-3.00281e-05
1.20955e-05
-1.40168e-05
-1.21861e-05
2.58485e-05
-2.45532e-05
3.98475e-05
-1.52943e-05
2.80592e-05
1.06492e-05
-3.87093e-05
5.40853e-05
-3.0896e-05
-2.31902e-05
-6.33383e-06
0.000141788
4.37146e-05
-2.45992e-05
-1.91155e-05
-3.16563e-05
4.12277e-05
-9.57155e-06
-3.49439e-05
4.52198e-05
-1.02763e-05
3.51402e-05
-3.7469e-06
-3.13935e-05
5.21371e-05
-8.39425e-05
3.17867e-05
-3.16062e-05
1.29838e-05
1.86224e-05
-5.00822e-06
-2.84493e-06
5.1387e-06
4.78907e-06
-0.000129251
0.000124099
-2.60087e-05
6.59694e-05
-3.99672e-05
-2.03847e-05
-6.92332e-05
8.92898e-05
4.13333e-07
6.3972e-06
-8.68359e-06
-3.24111e-05
0.000160259
-0.000128462
-0.000152867
6.24619e-06
0.000146138
-0.000101804
3.88298e-05
6.29362e-05
-7.28704e-05
-0.000100472
0.000172711
-7.1206e-05
-5.20772e-05
0.000123227
0.000180202
-4.43288e-05
-0.000137952
-0.000103067
-2.2336e-06
0.000105233
3.6809e-05
2.13171e-06
-3.89412e-05
8.58215e-06
5.50492e-05
-7.05557e-05
6.88972e-06
-3.1443e-05
-9.60764e-05
-2.61466e-05
0.000122056
-5.59909e-05
0.000113729
-0.000155911
7.22286e-06
0.000146257
4.21638e-05
1.58892e-05
-5.80577e-05
-3.03946e-05
-1.0735e-05
4.11295e-05
4.50334e-05
-0.000112526
6.21304e-05
5.15818e-05
9.76136e-05
-3.21675e-05
5.11193e-07
-4.68337e-05
2.33613e-05
2.34719e-05
8.26612e-06
-9.69731e-06
3.58338e-05
2.09318e-05
-0.000129863
0.000158927
-2.94482e-05
-7.45821e-06
6.16864e-05
-5.42345e-05
6.99679e-05
-2.20107e-05
-4.79617e-05
-5.53808e-06
3.25726e-05
5.06254e-05
1.02822e-05
-6.09138e-05
-6.53043e-05
0.000144195
-7.90114e-05
-5.00644e-05
9.03528e-05
-1.85933e-05
-0.000131698
0.000150008
-9.44752e-05
-5.75324e-06
0.00010019
2.30415e-06
-9.58764e-06
-0.000179673
2.30177e-05
0.00015587
-3.38693e-05
3.47455e-06
1.10505e-05
1.96041e-05
-3.06547e-05
-0.000144834
1.63835e-05
0.000128312
-8.93463e-06
-0.00014928
-2.38009e-05
3.3032e-05
-9.23106e-06
-0.00017398
1.67245e-05
0.000154469
0.000122854
-0.000171534
4.82247e-05
-1.18873e-05
5.85354e-05
-4.66505e-05
3.51474e-05
-3.32828e-05
-1.86469e-06
-4.41792e-05
6.612e-05
-2.19442e-05
1.02775e-05
2.26154e-05
-3.2893e-05
-1.7602e-05
-1.92196e-05
3.68215e-05
2.3524e-05
1.53716e-05
-3.88961e-05
3.91462e-05
-4.6609e-05
-4.58814e-05
2.20123e-05
2.38689e-05
3.81717e-05
-5.00613e-05
-7.73112e-05
-4.09456e-05
0.000118179
-1.87279e-05
-1.96872e-05
3.84149e-05
-1.68458e-05
6.74648e-05
1.83462e-05
1.13817e-05
-2.97279e-05
0.0001758
-5.34303e-05
-2.32192e-05
-2.26623e-05
-0.00016491
3.46415e-05
-1.17147e-05
-2.88646e-05
4.05792e-05
5.03127e-05
-0.00012157
-2.83482e-05
-1.11552e-05
3.95033e-05
1.94405e-05
-3.11553e-05
-1.87552e-05
5.69244e-05
-5.10178e-05
-0.000125355
0.000197127
-6.1616e-05
-0.000136214
3.20894e-05
-1.41567e-05
4.32158e-05
-9.1719e-05
4.84613e-05
4.5005e-05
-1.57989e-05
-2.92062e-05
-5.38092e-05
6.83182e-05
-1.45195e-05
-8.04557e-05
1.86309e-05
6.18061e-05
-1.93276e-05
-1.22785e-05
-6.40252e-06
4.15424e-05
-2.05779e-05
-2.25652e-05
4.31425e-05
-7.52817e-06
4.26755e-05
-0.00013133
0.00016612
-3.51241e-05
0.000137235
-6.59307e-06
-0.000130694
3.78874e-05
-1.84469e-05
5.42387e-06
-0.000150077
0.000135636
9.69684e-06
-0.000171739
3.25326e-05
0.000138738
1.54884e-05
2.20853e-05
-3.75741e-05
2.47633e-05
-2.75653e-05
2.80197e-06
-2.08032e-05
-1.25869e-05
3.339e-05
-0.000128019
0.000109132
-2.66163e-05
4.03566e-05
-1.37405e-05
1.79788e-06
-3.01461e-05
-0.00011169
8.0403e-05
3.12404e-05
2.79445e-05
8.9628e-05
-0.00011777
4.03495e-05
-3.67279e-06
-3.6677e-05
-3.81023e-05
3.08488e-05
7.2533e-06
4.69784e-05
-2.5797e-05
-2.11824e-05
-1.12216e-05
4.803e-05
-1.2411e-05
4.57146e-05
5.17668e-05
-7.84624e-06
-4.39217e-05
4.89226e-06
-3.37569e-05
5.8994e-06
-9.2636e-07
-1.18001e-05
-6.70991e-05
-3.11551e-05
2.49932e-05
1.87211e-05
-1.82078e-05
-1.18203e-05
2.13399e-05
-6.58109e-05
4.44622e-05
3.10656e-06
2.55494e-05
-1.88858e-05
-8.46488e-05
0.000103449
3.6933e-06
5.48395e-05
-5.3955e-05
-4.78819e-05
1.90796e-05
0.000177071
7.05958e-05
-5.45513e-05
-1.60467e-05
9.23384e-08
-4.42742e-05
5.15408e-05
-3.83028e-05
-1.32391e-05
9.79512e-05
5.50513e-05
-0.00015347
-1.77099e-05
-2.91242e-05
5.90479e-05
-0.000132429
-0.000141513
-2.12418e-06
0.000143
2.26665e-05
7.3583e-06
-3.00248e-05
-2.30256e-05
3.87312e-05
-1.57056e-05
8.04594e-05
-2.83412e-05
4.5515e-05
-7.08289e-06
-3.84324e-05
-1.80108e-05
4.15344e-05
3.70687e-05
-4.27239e-05
5.6544e-06
-5.83289e-05
0.000116466
-5.82168e-05
2.03116e-05
1.13753e-06
-2.25723e-05
1.20763e-05
2.005e-05
-3.21263e-05
-0.000123982
8.27227e-05
4.11615e-05
-3.40372e-05
7.4208e-06
1.87108e-05
-0.000114944
0.000187149
-0.000102592
-8.48306e-05
-6.62362e-08
-6.94984e-06
6.75074e-06
0.000174344
-4.15521e-05
-0.000134527
2.44127e-05
2.5107e-05
-4.9524e-05
1.733e-05
1.91217e-05
-3.64518e-05
7.35667e-05
0.00011328
1.69238e-05
5.30394e-05
-4.95401e-06
-2.99901e-05
0.000164991
-0.000164508
-1.20339e-06
-1.59267e-05
4.06712e-05
-2.47447e-05
-2.90456e-05
-2.12283e-05
5.02718e-05
-3.99267e-05
1.9994e-05
1.99326e-05
-1.29451e-05
-1.98986e-05
3.28437e-05
-8.45592e-05
-0.000100738
3.73807e-05
-2.00508e-05
-2.28417e-05
-1.3748e-05
3.65897e-05
5.1738e-05
-2.73295e-05
4.96161e-05
-2.15578e-05
1.58416e-05
-4.23178e-05
2.64759e-05
4.53024e-05
-0.000110703
2.56571e-05
4.49358e-05
5.32189e-07
-0.000140229
0.00013919
-0.000137962
1.73226e-05
0.000115938
1.73096e-05
1.19152e-05
3.8875e-05
-1.80701e-06
0.000199459
-6.4219e-05
-0.000136961
0.000134507
-3.53646e-05
-9.92878e-05
-5.82021e-05
4.09881e-05
1.72127e-05
-3.13319e-05
-0.000122893
0.000153619
-1.12497e-05
3.6013e-05
-0.00016612
7.62519e-06
0.0001559
-1.44454e-05
0.00015608
-0.000142126
5.87658e-05
-3.74329e-05
-1.26642e-06
5.30319e-05
0.00014457
-5.51154e-05
-8.97282e-05
5.63215e-05
2.41174e-05
8.74249e-05
-7.84692e-05
-8.97576e-06
4.22584e-05
-5.91099e-05
5.79514e-05
-8.66348e-05
2.25222e-05
-5.15699e-05
-1.14712e-05
7.13033e-05
-6.23449e-05
0.00016741
1.03279e-05
-6.38315e-05
2.81287e-05
3.57007e-05
-0.000115082
0.000133607
6.29545e-05
2.2783e-05
-8.57737e-05
6.56625e-05
-4.37476e-06
-6.12967e-05
-1.89636e-05
-8.41964e-06
1.78374e-05
6.95621e-05
6.46745e-05
3.59876e-06
-6.82831e-05
-1.03314e-07
1.95952e-05
1.14228e-05
-2.95641e-05
1.81413e-05
4.5757e-05
-0.000101814
-0.000178323
5.15838e-05
0.000124112
-6.07442e-05
-1.97279e-05
-0.000166631
0.000113767
5.25781e-05
4.37559e-05
2.58133e-05
-6.95962e-05
-4.03735e-05
-2.71019e-05
6.74716e-05
4.55268e-05
-2.21574e-05
-2.33695e-05
-5.17485e-05
1.13722e-05
-4.74868e-05
2.68481e-05
2.06385e-05
0.000185212
-8.53998e-05
-0.000103319
3.96494e-05
-1.91144e-05
-0.000128492
-6.65663e-06
-0.000124929
-6.35196e-06
-4.14888e-05
4.7838e-05
-1.13125e-05
3.39789e-05
5.282e-05
-3.4267e-05
-1.85547e-05
-4.76316e-06
6.9427e-05
-8.45681e-05
-3.69764e-06
8.8247e-05
4.47149e-05
2.44664e-05
-6.91933e-05
9.58823e-05
5.85849e-05
-0.000156074
7.76351e-05
-1.74477e-05
-6.01964e-05
0.000115162
-0.000133993
6.69763e-05
-2.47247e-05
3.22129e-05
5.99072e-07
-3.2812e-05
2.93291e-05
-4.80864e-05
9.02866e-06
-3.85102e-06
0.000138672
-0.00017065
-8.7851e-05
0.000181952
-2.09157e-06
-6.93418e-05
6.47136e-05
4.48555e-05
-4.50624e-06
2.04893e-05
5.44505e-05
-7.49747e-05
0.000162695
-0.00015859
-5.69987e-06
5.3129e-05
-3.10581e-05
-2.20719e-05
-3.93623e-05
1.87838e-05
6.84169e-05
-0.000125702
5.70298e-05
2.67553e-06
4.28391e-05
-3.11153e-05
1.39665e-05
1.71488e-05
-1.93689e-05
4.86957e-05
7.81916e-05
-9.88447e-05
-1.34733e-05
-2.33251e-05
3.67984e-05
5.22166e-05
-9.60569e-05
4.38218e-05
-7.99695e-05
0.000107921
-2.82809e-05
2.29699e-05
-3.88969e-05
-9.37855e-05
1.64103e-05
-5.25033e-05
0.0001047
0.000160153
-5.05943e-05
-0.000109941
-0.000103677
9.24588e-05
1.11852e-05
1.26572e-05
-4.6294e-05
3.36355e-05
-1.46066e-05
-3.28803e-05
-3.85322e-05
8.22583e-05
-3.44401e-05
-2.8658e-05
6.30942e-05
0.000175116
-0.000172248
2.70338e-05
-7.83819e-05
5.1333e-05
-0.000126972
-3.53525e-05
0.000161209
-1.0839e-05
7.64909e-05
-6.22688e-05
0.000107955
3.3127e-05
-3.94813e-05
2.55974e-05
-2.95159e-05
3.91851e-06
4.86247e-05
0.000132086
0.000161502
-4.32025e-05
-0.000118643
1.04807e-05
3.07966e-05
-4.12783e-05
0.000120165
4.09826e-05
9.13346e-05
4.30019e-05
7.32495e-05
-3.85984e-05
4.47036e-05
-6.10553e-06
6.43626e-06
-2.72394e-05
-0.000167816
0.00017079
-3.46822e-06
-7.57297e-05
5.18925e-05
2.38305e-05
9.97015e-06
-2.53094e-05
1.53392e-05
-2.55806e-05
4.09518e-05
-5.03955e-05
-8.32781e-05
0.000133456
0.000182214
-0.000180705
-2.75532e-06
-3.07724e-06
-7.24929e-05
7.55097e-05
-6.39714e-05
8.44218e-05
-5.68399e-05
0.000154336
-2.13788e-05
3.13489e-05
2.43893e-05
2.87385e-05
5.05336e-05
-3.88003e-05
-1.17345e-05
1.1017e-05
3.91025e-05
1.14305e-05
-0.00016664
0.000153323
-6.64572e-05
9.92856e-06
7.68477e-05
-4.09818e-05
-3.58752e-05
2.23284e-05
2.31983e-05
-2.04748e-05
-9.34158e-05
0.000113864
3.16757e-05
-4.88993e-05
-1.36342e-05
6.25271e-05
0.000109325
-2.85189e-05
-8.08729e-05
-3.10754e-05
1.30359e-05
0.000148101
-9.90416e-06
3.90671e-05
-2.91645e-05
-1.79145e-05
-6.402e-05
6.52098e-05
3.94553e-05
-2.71655e-05
-1.22899e-05
5.31003e-05
2.57399e-05
-7.88587e-05
-0.000143528
-3.68857e-05
5.48019e-06
-9.0569e-05
8.50347e-05
-7.45268e-05
1.76065e-06
7.27567e-05
7.39619e-05
4.93475e-05
-0.000123628
2.35603e-05
-0.00010391
-2.44518e-05
-7.56675e-06
3.20186e-05
9.43438e-06
4.10975e-05
2.95345e-05
0.000121263
-0.000151811
2.99079e-05
-5.91107e-07
-2.93168e-05
-3.44804e-05
3.29831e-05
1.9835e-05
0.000154328
1.85479e-05
-0.000173832
-1.10011e-06
2.86638e-05
9.23114e-06
-3.7896e-05
0.000145458
-7.73247e-05
0.000178874
1.86286e-05
0.000189094
-7.1537e-05
-0.000118389
0.000125437
-1.19192e-05
-0.000113562
2.8826e-05
-5.00564e-05
-1.55138e-05
-5.9021e-05
-8.19544e-05
7.88117e-05
0.000104107
-4.96905e-05
2.99276e-05
-9.30121e-05
9.71135e-05
-3.8358e-05
0.000151114
2.27909e-05
1.98134e-05
-2.01401e-05
-4.67827e-05
3.89354e-05
7.74619e-05
-4.49898e-05
-3.24827e-05
-5.20177e-05
-2.37163e-05
1.42347e-05
-4.02772e-05
-9.98444e-05
7.9347e-05
5.33047e-05
9.09742e-05
7.32992e-06
-1.48494e-06
-1.41209e-05
2.65138e-05
-3.64195e-05
2.24351e-05
1.702e-05
7.31306e-05
-0.000162577
-0.000174405
4.73785e-05
0.000124309
-8.83184e-05
0.000159794
8.28095e-05
-0.000101779
-4.01739e-05
8.48749e-05
2.38024e-05
3.02818e-05
0.000162861
-0.000135194
5.6174e-07
0.000132449
-0.000133085
3.29171e-06
-0.000154543
0.000149006
4.96901e-05
-2.66463e-05
3.73531e-05
1.41863e-05
2.14436e-05
-5.9047e-05
3.76001e-05
7.38559e-05
-4.28067e-05
-3.10524e-05
4.89353e-05
8.22913e-05
-0.000131529
-3.8743e-05
4.70178e-05
-8.27592e-06
6.0329e-05
-4.41841e-05
-0.000100535
6.74462e-05
3.3049e-05
8.96652e-05
-4.60765e-05
-4.3602e-05
1.89633e-05
-2.10585e-05
-1.15252e-05
3.25837e-05
-2.10431e-05
-3.71601e-05
7.70595e-05
-7.8053e-05
-2.50652e-06
6.2886e-05
2.61854e-05
-8.91074e-05
5.05735e-05
-2.82029e-05
-2.23712e-05
-2.12306e-06
-3.64756e-05
-0.000133273
8.66559e-05
4.65084e-05
0.000162439
-0.000152869
-2.99331e-05
7.46441e-05
-4.47266e-05
-7.02565e-05
-9.94379e-05
0.000169013
-0.000103109
7.89308e-05
2.41113e-05
3.17697e-05
-4.75859e-05
1.58157e-05
1.58034e-05
2.48881e-05
-4.0692e-05
6.21963e-05
-5.21274e-06
-5.6991e-05
-6.64971e-05
9.63792e-05
-1.02989e-05
3.58963e-05
-0.000121362
0.000159369
-3.82986e-05
-0.000116355
1.09865e-06
-0.000156693
0.000136091
2.00132e-05
1.27883e-05
-0.000166124
-7.62052e-05
3.69554e-05
3.92412e-05
8.0404e-05
-0.000120925
4.03772e-05
-2.66737e-06
3.25753e-05
1.38253e-05
3.03798e-05
-4.42062e-05
4.9508e-05
0.000110254
0.000160896
-0.000132447
-3.5944e-05
1.92378e-05
1.67062e-05
-8.40664e-06
7.05942e-05
4.24605e-05
-2.80044e-05
-0.00015737
3.57223e-05
6.12579e-05
-7.53219e-05
1.40413e-05
0.00016408
1.68681e-05
-5.15162e-05
0.000117392
-6.5925e-05
-4.01982e-05
0.000129727
0.000155227
-0.000110234
-2.59854e-05
-7.29774e-06
3.32832e-05
2.62937e-05
-1.48709e-05
-1.3344e-05
-1.70933e-05
3.04371e-05
1.91594e-05
1.96566e-05
-2.37826e-05
-3.53305e-06
5.77522e-05
-4.24643e-05
-1.52905e-05
-3.92421e-05
1.88747e-05
2.03674e-05
-7.48952e-05
-2.88107e-05
-3.96039e-05
-0.000114576
5.59366e-05
-4.17025e-05
-0.000168639
0.000166218
1.3547e-06
4.36213e-06
0.000134411
-0.000139369
-1.49668e-05
-0.000127548
-3.39146e-05
-4.22969e-05
0.000143514
-0.000150508
6.69873e-06
1.60247e-05
-0.000119161
3.83946e-05
3.54576e-05
4.43629e-05
-2.20967e-05
-2.22665e-05
2.67809e-05
0.000161183
-3.31883e-05
5.98256e-06
-6.73826e-05
-1.48932e-05
8.22475e-05
0.000159532
-6.32849e-06
0.000129918
-6.39682e-05
-6.60816e-05
-3.61875e-05
-0.000135461
0.000171247
-0.000125352
2.19641e-05
8.72962e-05
-4.44699e-05
-2.41226e-05
6.85784e-05
4.82757e-05
4.88246e-05
-1.48619e-05
-1.62535e-05
-6.34218e-05
-4.82989e-05
-4.45253e-05
-9.40245e-05
0.000138129
3.63143e-05
-2.58344e-05
1.60112e-05
2.25501e-05
-3.85616e-05
-4.79008e-05
3.30524e-05
1.48476e-05
2.11305e-05
-3.40756e-05
6.91451e-05
-2.48224e-05
-4.43314e-05
-5.03561e-05
-9.16918e-05
0.000141812
0.000124405
2.67791e-05
8.05038e-06
0.000152821
-0.000144036
-2.2844e-05
-7.34091e-05
6.81875e-05
-9.06221e-05
5.53231e-05
3.52651e-05
9.05475e-05
6.89556e-06
-9.75068e-05
-3.87591e-05
9.18382e-05
-9.93424e-05
5.02606e-05
-2.28467e-05
-2.7415e-05
-5.85814e-05
9.7667e-05
-0.000134158
3.13506e-05
7.27087e-05
-1.84051e-05
3.67513e-05
8.01816e-05
-0.000124881
4.45412e-05
4.6142e-05
-3.0339e-05
-1.01089e-06
1.37987e-06
0.000156706
-3.41543e-05
2.31764e-05
1.09778e-05
6.80186e-05
-9.24908e-05
2.44367e-05
-0.000109688
0.000154273
-4.49431e-05
-3.62315e-05
4.88873e-05
3.36603e-05
-5.96754e-05
4.07886e-05
3.60509e-05
3.59879e-05
-3.10957e-05
-6.16952e-05
-0.000110117
-4.95273e-05
0.000132688
-8.3324e-05
-2.09624e-05
-3.74591e-05
2.095e-05
0.000109385
-8.07832e-05
-2.86129e-05
3.7276e-05
2.40194e-05
-6.13034e-05
1.93439e-05
-6.30753e-05
1.73371e-05
3.29223e-05
2.96648e-05
-1.66841e-05
-1.29807e-05
4.48111e-05
-0.000150539
5.56943e-06
1.8498e-05
-5.41185e-05
3.56159e-05
-6.73752e-06
-0.000165456
-1.82221e-05
-5.5195e-05
-0.000131607
0.000101721
2.96595e-05
-3.26398e-06
3.92518e-05
-2.00408e-05
8.12742e-05
2.951e-05
2.10626e-05
-1.68314e-05
0.000107309
8.63255e-05
-5.34531e-05
-3.28887e-05
-7.27804e-05
3.67636e-05
-2.61152e-05
0.000154452
-0.000165809
1.26859e-06
-2.2327e-05
-2.16037e-05
-0.000135628
3.91137e-05
-1.29021e-06
-3.78245e-05
-6.56641e-05
0.000145779
-8.10541e-05
2.63021e-05
1.64201e-05
-4.27233e-05
-8.01162e-05
-2.30578e-05
-3.9757e-06
-0.000124448
0.000127096
-0.000212668
0.000150233
-0.00012884
0.000109816
-2.57057e-05
4.76103e-05
-2.19052e-05
3.26992e-05
-2.84527e-05
-4.24654e-06
3.49599e-05
-1.94718e-05
-7.31447e-05
9.95966e-05
-2.64873e-05
-0.000125673
3.84062e-05
8.71043e-05
6.27131e-05
-6.09604e-05
1.51479e-05
-1.5344e-06
-1.42545e-05
-1.00082e-05
1.27678e-05
-2.60179e-06
-2.04165e-05
-1.827e-05
3.86864e-05
-9.36613e-05
-0.000119789
-0.00014318
0.000141952
9.58302e-07
-7.07793e-05
2.18736e-05
6.84349e-05
4.36635e-06
7.56561e-05
-3.83899e-05
-1.25107e-05
7.52145e-05
-0.000145058
1.64529e-06
0.000165961
-2.28377e-05
-0.00010796
5.93742e-05
4.85547e-05
-6.90417e-05
0.000149031
-5.46871e-05
-6.93752e-05
-4.07052e-05
4.33804e-05
0.000131013
-5.89328e-05
-7.21658e-05
6.11969e-05
4.81734e-05
-0.000126692
4.29503e-05
8.36515e-05
8.01426e-05
-0.000125119
-3.40571e-05
1.27742e-06
3.27796e-05
-0.000114868
0.000158765
-4.39932e-05
0.000149535
-2.67962e-05
-0.00012301
-4.95949e-06
3.47305e-05
-2.97711e-05
2.7417e-05
-3.1922e-05
4.50499e-06
4.16728e-05
4.46346e-05
5.21231e-06
-3.5058e-05
2.98449e-05
-6.73187e-05
-6.60457e-05
0.000142584
3.47469e-05
-7.32988e-06
7.71841e-06
0.000156463
3.09027e-05
-1.72263e-05
-1.36765e-05
-1.22395e-05
5.13517e-05
0.000119852
-0.000135944
1.49139e-05
-1.84455e-06
-3.8861e-05
-4.00104e-05
-6.96206e-05
3.96732e-05
2.17377e-05
-2.57976e-05
-4.14259e-06
2.97175e-05
4.77326e-05
4.15607e-05
-2.88079e-05
-1.2753e-05
-0.000133395
-0.00016167
1.6174e-05
0.000144679
2.77242e-05
-0.000135885
-5.31994e-05
0.00012687
-0.000130331
-1.17019e-05
-2.03236e-05
-2.40824e-05
3.53736e-05
-1.00082e-05
2.30206e-05
2.1342e-05
0.000103723
1.32964e-05
-0.000117153
2.38247e-05
-2.87789e-05
2.05496e-06
0.000141143
-0.000143426
3.70959e-05
1.90299e-05
-5.61295e-05
-1.25829e-05
-0.000156545
2.86525e-05
-1.41238e-06
0.000141235
-3.14473e-05
-0.000109926
1.87489e-05
-6.2459e-05
4.18704e-05
7.53272e-05
-0.000125927
-5.35064e-05
0.000106513
-5.30605e-05
0.000140955
-0.000140936
-6.68074e-05
2.53279e-06
6.42677e-05
3.79649e-05
1.17251e-05
-0.000155479
7.61829e-06
0.000143509
-3.2726e-05
-5.66107e-06
3.83869e-05
1.36923e-05
1.91227e-05
-3.28151e-05
3.07041e-05
-8.08664e-05
5.01534e-05
5.05418e-05
-3.20475e-05
1.98183e-05
-3.31625e-05
-0.000103638
6.08944e-05
7.00178e-05
8.28954e-05
-0.000115353
3.23709e-05
2.30945e-05
-1.20441e-05
-2.36452e-05
0.000127222
9.37283e-05
-6.23399e-05
-3.14201e-05
-1.9205e-05
0.000150925
-0.000132185
-2.22664e-05
4.14544e-05
-1.91881e-05
0.000106522
-2.681e-05
-7.97466e-05
-1.78236e-06
3.91341e-05
4.38227e-05
-6.52857e-05
2.14577e-05
2.1626e-05
-2.7164e-05
0.000117442
-0.00015559
5.42101e-06
0.000149658
-6.68005e-05
8.89844e-05
-2.22022e-05
-3.88884e-05
-1.00513e-05
4.89389e-05
-0.000133854
2.90299e-05
1.79474e-05
6.28306e-05
-0.000159423
9.6413e-05
-2.16063e-05
-1.77565e-05
7.71399e-05
-0.000131241
5.3885e-05
0.000183572
-0.000188067
3.36242e-06
-0.000121792
-1.09784e-05
5.38083e-05
-6.32241e-05
5.0046e-06
1.41525e-05
1.88542e-05
-3.30068e-05
1.56205e-05
-3.72272e-05
-0.000126344
-3.13617e-05
4.6962e-05
1.57791e-07
-4.71222e-05
3.43777e-05
5.37161e-05
-8.81226e-05
-2.7181e-05
-2.07205e-05
2.50027e-06
3.01989e-05
4.98392e-05
-2.11766e-05
-3.38209e-05
4.30889e-05
-9.26865e-06
0.000198146
-9.86757e-05
-0.000100143
2.38495e-05
1.73781e-05
-2.29106e-05
7.92111e-05
-0.000174488
3.51307e-05
0.000138823
-2.21098e-05
-7.23938e-05
-3.11516e-05
-1.90302e-05
-1.51241e-05
-0.000132038
0.000136441
-0.000117263
0.000141553
-2.43173e-05
-1.15782e-05
0.000141536
-0.000130374
-3.3994e-05
5.10488e-05
-2.52968e-05
-2.87361e-05
-5.8797e-06
3.46158e-05
-6.24744e-05
-5.79564e-06
6.82629e-05
-3.24134e-05
-1.79592e-05
-2.1283e-05
0.000134866
6.10925e-07
-0.000135678
4.72517e-05
-6.06453e-05
7.79187e-05
-5.89856e-05
-1.89516e-05
-1.75329e-05
3.38379e-06
2.55089e-05
0.000147073
-0.000118182
6.46071e-05
-0.000120079
-1.35222e-05
0.000133297
-5.65313e-05
2.19623e-05
8.45222e-05
-4.93049e-05
1.24045e-05
3.68979e-05
-2.66176e-05
-1.01427e-05
3.67602e-05
-5.47294e-05
7.87388e-05
7.3444e-05
-0.000140133
0.000116552
-4.85739e-05
-6.1519e-05
2.64108e-05
3.51035e-05
-2.69215e-05
-9.43451e-06
3.63559e-05
3.97093e-05
5.39804e-05
3.88932e-05
-2.78617e-06
-3.61074e-05
-9.2078e-05
3.20889e-05
5.99665e-05
-0.000158361
3.17067e-05
-1.15103e-05
5.84693e-05
3.47199e-05
1.07944e-06
-3.57998e-05
-0.000142019
8.66361e-05
0.000223247
-8.87118e-05
-0.000136151
2.16399e-05
-4.96575e-05
2.80171e-05
2.17857e-05
-2.67845e-05
-2.39695e-06
5.27334e-05
1.78489e-05
-2.93741e-05
1.49517e-05
1.42731e-05
3.69039e-06
-4.25796e-05
-0.000146423
0.000151253
1.95187e-05
8.74197e-06
-2.82607e-05
-7.32471e-06
-2.75904e-05
3.49152e-05
1.76934e-05
-4.82409e-05
0.000128499
-5.56823e-06
8.1555e-05
-1.30091e-05
-2.87231e-05
4.17318e-05
9.15892e-06
-9.15892e-06
1.99834e-05
2.94597e-05
-4.94466e-05
1.50965e-05
1.58062e-05
-4.65104e-05
6.10914e-05
-1.45836e-05
3.60477e-05
-1.44217e-05
-6.57485e-05
4.83128e-05
1.74253e-05
1.34696e-05
1.60352e-05
-2.95049e-05
2.35855e-05
-6.80689e-05
4.97536e-05
9.34146e-05
-0.000143449
-0.000133769
1.64754e-05
1.44486e-05
1.59396e-05
-3.03882e-05
1.18826e-05
-4.72643e-05
3.53808e-05
-3.17765e-05
-1.94482e-05
4.43359e-05
-0.000147478
4.78975e-05
-2.79173e-05
1.61944e-05
-1.12148e-06
-1.8807e-05
-6.57759e-05
6.61053e-05
-2.44854e-05
-4.16302e-05
-2.99217e-05
7.20804e-05
0.000137978
-1.9421e-05
-0.000108935
-9.65363e-06
0.000118523
4.60897e-05
1.16597e-05
-3.4046e-05
1.31991e-06
-1.79417e-05
3.23903e-05
3.1398e-05
-2.19056e-06
-2.92075e-05
-7.24792e-05
-2.80893e-05
8.32138e-05
-4.00289e-05
2.87961e-05
-4.81671e-05
-0.000124281
0.000124774
-0.000161577
0.000156942
3.39192e-06
-0.000136247
0.000159072
-2.35294e-05
0.00014502
-6.44442e-05
-8.07398e-05
-4.22863e-05
-6.41858e-05
0.00012505
-6.11341e-05
2.3922e-05
4.21718e-05
0.000185216
-0.000155927
-3.11381e-05
4.45177e-06
-1.19481e-05
-0.000166963
2.9877e-05
0.000134102
-1.77834e-05
-1.87725e-05
3.65558e-05
0.000144405
-7.23041e-06
1.12802e-05
-1.32433e-05
1.08642e-06
5.54475e-05
2.24512e-05
-9.28962e-05
6.30749e-05
2.97958e-05
-4.91411e-05
-0.000109613
-2.66588e-07
-2.57188e-05
6.04425e-05
-0.000131254
0.000150965
-0.000143776
-8.16608e-06
-7.63922e-05
3.0722e-05
4.56543e-05
-9.64858e-05
4.20193e-05
5.44542e-05
-3.4488e-05
1.70924e-06
0.000117668
-0.000119602
4.02559e-05
-1.36304e-06
-5.00883e-05
2.5059e-05
4.90499e-05
-7.41443e-05
-1.07824e-05
4.55017e-05
-5.15041e-05
7.6527e-05
4.37919e-05
1.21438e-05
0.000116526
-5.99481e-05
-3.82548e-05
2.11799e-05
1.70748e-05
-1.80011e-06
-2.6936e-05
0.000133121
3.78215e-05
-1.82174e-05
2.00748e-05
-4.68213e-05
2.67453e-05
0.000123125
-0.000125811
-2.20685e-06
3.43785e-05
-2.10167e-05
-1.33618e-05
-0.00015866
0.000152554
5.29287e-06
-0.000156009
2.89709e-05
0.00012416
-6.04594e-05
9.62264e-05
-3.58047e-05
-2.60537e-05
0.000150991
3.70598e-05
1.96708e-05
-5.6735e-05
7.54495e-06
-3.44665e-05
0.000159552
-2.09727e-05
-1.72822e-05
8.87635e-05
0.000108649
9.81658e-05
-1.78075e-05
4.76424e-05
-3.57607e-05
-0.000147416
1.61148e-05
0.000126904
3.556e-05
-2.22129e-05
-1.33471e-05
-0.000103594
-3.09709e-05
0.000134423
0.000153242
-2.33143e-05
-0.000130568
1.52897e-05
-0.000166258
0.000150311
-0.000169194
3.24215e-05
2.13393e-06
-5.50146e-05
5.28784e-05
-4.62385e-05
-1.7595e-05
3.1277e-05
-2.64274e-06
-2.86343e-05
9.07083e-06
-6.38087e-05
-1.41059e-05
-2.66772e-05
-1.66774e-05
-6.56563e-05
8.23143e-05
-0.000158445
-5.0833e-05
-5.29392e-06
5.61243e-05
3.1625e-07
3.10818e-05
-4.28855e-05
9.06387e-06
6.42877e-05
-3.61613e-05
5.73972e-05
-3.59567e-05
-5.15616e-05
-2.34337e-05
7.49748e-05
-0.000104225
-8.83016e-06
0.00011296
5.05665e-05
-4.84347e-05
0.000157301
-8.89874e-05
-6.85263e-05
2.20167e-05
-4.00279e-05
3.60027e-05
-3.84732e-05
-1.67112e-06
-1.44042e-05
3.39229e-05
-0.000130179
6.72596e-07
2.08697e-05
4.34155e-05
-4.70328e-05
-6.0957e-05
0.000144825
-3.39057e-05
-0.000111269
1.61819e-05
2.90374e-05
-0.000171317
0.000156356
1.31032e-05
4.86247e-05
-1.91156e-05
1.66848e-05
-0.000120407
-0.00012216
-3.25693e-05
-5.80845e-05
-4.66405e-05
-2.6794e-05
7.34259e-05
-4.29223e-05
-1.20942e-05
-4.0948e-05
3.5577e-05
2.51713e-06
-3.80948e-05
-3.18924e-05
1.27581e-05
1.91343e-05
6.38379e-05
5.45474e-05
-1.25466e-05
3.03955e-05
-0.000189043
0.00011126
7.73701e-05
3.65627e-05
9.95911e-07
-3.75594e-05
-4.66876e-05
-1.90704e-05
-0.000120603
4.41562e-05
-0.000134004
-1.12465e-05
6.56991e-05
-6.02577e-05
0.000128065
7.83421e-05
2.24918e-05
0.000130084
-4.492e-05
0.000109691
-6.48504e-05
-1.10137e-05
4.75755e-05
4.34557e-05
-3.10531e-05
4.66624e-05
-2.50231e-05
-6.99211e-05
4.55868e-05
2.43241e-05
2.90041e-06
-8.43029e-05
7.98209e-05
-3.44845e-05
6.9677e-05
-3.52094e-05
4.18785e-05
-2.60373e-05
-3.90832e-05
0.000168721
-0.000131318
4.14273e-05
-6.59231e-05
0.000150562
-0.000113582
-3.71565e-05
2.8282e-05
-2.40414e-06
-2.5878e-05
-0.000127398
1.9644e-05
0.000107686
-3.01624e-05
6.52858e-06
2.36338e-05
3.0493e-05
1.05098e-06
-1.1112e-05
-3.56715e-05
1.12208e-05
-2.92975e-07
8.13095e-05
-6.52588e-05
-1.60631e-05
-7.7159e-05
-9.77501e-05
6.19518e-05
8.28852e-05
-0.000123694
5.95885e-05
6.40102e-05
-0.000144016
1.44316e-05
0.000135541
-5.35238e-05
-0.000110351
0.000159484
-4.03553e-05
1.46491e-05
2.02478e-05
8.97703e-06
-4.71639e-05
-5.81042e-05
0.000105206
1.3428e-05
2.21319e-05
-0.000135587
-2.29991e-05
9.31579e-05
-3.78705e-05
-2.99336e-05
0.000112556
-1.72835e-05
4.86849e-05
-3.14031e-05
-2.02816e-05
3.05591e-05
4.35413e-05
-9.07592e-05
0.000133029
-0.000146636
1.06828e-05
3.43747e-05
-3.61584e-05
0.000144349
-0.00014658
1.07328e-05
0.000116164
-8.63295e-05
-2.9926e-05
-2.442e-05
-1.1524e-05
-2.6926e-05
4.18814e-05
-1.49557e-05
-3.1794e-05
-1.65224e-05
4.83154e-05
-3.23154e-05
4.15456e-05
-4.26127e-05
-3.62677e-06
-5.67329e-06
0.00013107
-0.000100245
-7.4193e-05
0.00017378
-1.95609e-05
4.15773e-05
-0.000128902
4.70674e-05
-3.45647e-05
-1.25036e-05
-0.000116868
7.85308e-05
3.82407e-05
-1.95734e-06
8.96745e-05
-8.79384e-05
-4.06812e-05
2.22463e-05
1.84347e-05
-2.05349e-05
-1.84574e-05
3.89922e-05
0.000128978
4.98063e-07
3.07789e-05
-6.43044e-05
-6.24676e-05
4.7041e-05
1.15037e-05
-5.8556e-05
-5.89284e-05
3.02671e-05
-2.71038e-05
1.91144e-05
-2.76214e-05
4.50232e-05
-1.74026e-05
-8.20408e-08
2.30841e-05
-2.88196e-05
2.36355e-05
-6.00772e-05
2.66524e-05
-2.38368e-05
3.89816e-05
-1.51449e-05
-0.000135595
-3.27217e-05
0.000163923
-0.000141623
-3.40609e-05
-3.10021e-05
0.000157803
-0.000127198
2.58669e-05
1.2658e-05
-3.85253e-05
-5.35521e-05
3.95937e-05
1.39552e-05
-7.56809e-05
-1.42245e-05
-2.15314e-05
3.57558e-05
-9.30367e-05
2.56247e-05
1.22955e-05
5.36682e-05
2.77419e-05
0.000122628
3.56168e-05
-0.000125811
8.71268e-05
-0.000121664
9.77976e-05
1.66568e-05
0.000136305
-0.000162124
2.20629e-05
1.58462e-05
1.38186e-05
-2.89053e-05
-2.6046e-05
-3.06547e-05
5.66977e-05
5.08622e-06
-0.000139283
-1.32321e-05
0.000143247
-6.28889e-05
-0.000158784
0.000137269
2.07072e-05
-9.16773e-05
3.1183e-05
-9.84022e-05
0.000114359
-3.68026e-05
-4.02416e-05
1.81511e-05
2.20903e-05
6.93063e-05
-4.53961e-05
5.82147e-05
-1.33676e-05
-4.48491e-05
2.13828e-05
-4.74313e-05
-0.000146361
-1.60853e-05
-2.12212e-06
5.26864e-05
6.10309e-05
-0.000161885
-1.14218e-05
5.38198e-05
-3.37462e-05
1.59371e-05
-3.54773e-05
1.95401e-05
-4.40277e-05
1.49954e-05
2.90318e-05
-0.000123012
2.66847e-06
5.82234e-05
-0.000103218
-2.62111e-05
3.75802e-05
-1.13693e-05
-1.71437e-05
-1.72748e-05
3.44185e-05
-2.15221e-05
-3.36745e-05
-3.85171e-05
7.21888e-05
-2.81951e-05
-3.33279e-05
2.04759e-05
1.4271e-05
6.71935e-05
-2.5601e-06
-1.63604e-05
4.51544e-05
-1.34945e-05
-2.46079e-05
3.97687e-05
-5.79983e-05
-1.85896e-07
1.60813e-05
-6.80861e-05
9.00132e-05
-1.83619e-05
-1.41293e-05
3.24912e-05
-2.54343e-05
-8.62276e-06
3.81507e-05
1.75137e-05
-5.56685e-05
-1.82325e-06
0.000148033
-0.000146445
-0.000130334
7.65265e-05
5.36396e-05
-2.86287e-05
-6.34193e-05
9.2036e-05
-1.35317e-05
2.74981e-05
0.000117147
2.73326e-05
3.21005e-05
-4.8072e-05
1.59705e-05
-0.000164915
7.77927e-06
0.000155977
-0.000118715
-4.65784e-05
-8.16101e-06
5.47368e-05
0.000149172
1.78801e-05
-1.03365e-05
-0.000142287
0.000151695
-0.00012499
-6.78401e-06
4.09984e-05
-0.000103335
-0.000125256
2.94767e-05
9.25657e-05
8.83064e-05
6.8765e-05
-0.000145289
-6.01825e-06
4.15945e-05
3.5151e-05
1.35908e-05
-4.87448e-05
1.54431e-05
2.32881e-05
1.02481e-05
-7.83001e-05
4.33557e-05
3.49372e-05
1.38158e-05
-0.00014668
0.000132679
-4.7142e-05
5.48701e-05
-2.05945e-05
-7.40395e-05
8.93229e-05
-1.53072e-05
-1.95699e-05
-0.000146396
-7.93211e-05
0.000127973
-4.40289e-05
1.82311e-05
7.46393e-06
-4.56153e-05
3.81466e-05
-7.85928e-05
-3.68432e-05
-2.09305e-05
3.40068e-05
-1.30764e-05
-3.33389e-05
7.30985e-05
-6.74671e-05
0.000139882
-5.22155e-06
-3.47318e-06
2.72884e-05
-1.59067e-05
-5.85545e-05
7.65597e-05
-1.80152e-05
-6.23452e-06
0.000125833
-0.000122992
1.33388e-05
-3.89716e-05
2.56316e-05
7.9053e-05
-7.43923e-05
-6.12059e-06
7.24935e-05
2.56274e-05
8.00743e-05
5.69404e-05
-0.000138595
-4.45879e-05
-5.20132e-06
4.97882e-05
-1.80862e-05
0.000137488
-1.191e-05
-0.000128305
-0.00012905
0.000126354
-3.72752e-05
-8.55596e-06
4.58304e-05
7.12455e-06
-0.000163155
4.16866e-05
-2.51446e-05
-1.65423e-05
-2.05088e-05
3.28881e-05
-1.23793e-05
-2.86785e-05
-5.34358e-05
8.20951e-05
-0.000130923
-7.49043e-05
0.000109335
-3.47292e-05
0.000157438
-7.91646e-05
2.51398e-05
1.51023e-06
-1.46124e-05
-2.15579e-05
4.49187e-05
-3.61322e-05
-4.55123e-05
-9.53125e-05
0.000140574
1.60194e-05
1.83591e-05
1.09663e-06
1.22943e-05
0.000128014
-0.000142907
-3.05924e-05
-1.17257e-05
-0.000170005
0.000162681
6.1158e-06
1.97749e-05
2.20294e-05
-0.000132294
3.09206e-06
0.000124756
0.000102565
-6.06399e-05
-4.19495e-05
-2.09453e-05
-0.000176102
3.04859e-05
0.000145089
7.11527e-05
7.26194e-05
-0.000144547
7.69172e-05
3.80829e-07
-3.42713e-05
1.43727e-05
4.30916e-05
-0.000153121
8.53697e-05
-8.75691e-05
-6.1957e-05
3.84063e-05
2.35498e-05
1.74239e-05
-8.55434e-05
-1.57531e-05
-0.000118163
0.000131628
-3.19546e-05
-4.44525e-05
9.00664e-05
-2.71445e-05
-6.0803e-05
-3.25773e-06
-2.44783e-05
-9.26042e-05
-2.451e-06
-7.16078e-05
2.78511e-05
-2.13226e-05
-5.90565e-05
6.86294e-05
-9.58427e-06
-0.000159245
0.00014028