/*--------------------------------*- C++ -*----------------------------------*\
| =========                 |                                                 |
| \\      /  F ield         | OpenFOAM: The Open Source CFD Toolbox           |
|  \\    /   O peration     | Version:  v2012                                 |
|   \\  /    A nd           | Website:  www.openfoam.com                      |
|    \\/     M anipulation  |                                                 |
\*---------------------------------------------------------------------------*/
FoamFile
{
    version     2.0;
    format      ascii;
    class       volScalarField;
    location    "850";
    object      omega;
}
// * * * * * * * * * * * * * * * * * * * * * * * * * * * * * * * * * * * * * //

dimensions      [0 0 -1 0 0 0 0];


internalField   nonuniform List<scalar> 
18758
(
0.121473
3.53189
0.0214755
4.93416
5.08483
7.28336
7.90586
0.0217123
0.249039
0.0277833
0.0237022
9.84621
0.0220469
0.15723
0.0231077
0.62581
0.0411579
0.0219415
0.0219261
0.0310193
7.7533
0.0222711
5.62778
0.964912
1.6878
0.0217169
1.71139
5.25672
9.27866
4.2071
0.065872
5.99297
0.022182
0.0227077
0.118151
0.0221728
0.0222265
0.0219988
0.0222665
0.0438747
0.0219973
0.0265704
0.0216422
0.0261034
2.28373
0.0216144
5.3602
0.0239863
0.0273403
0.0216114
0.144226
4.70584
0.0215424
0.023471
5.06125
10.6911
0.0222172
0.377361
0.0219584
0.175212
0.099285
6.77831
0.111373
0.0228265
0.0215514
0.0220097
0.0450161
0.0221776
0.0219186
4.62704
4.47961
0.0223281
0.0216175
14.1922
0.0216813
0.0219512
0.228631
4.89941
0.0897664
5.17247
6.68239
4.41691
0.175511
6.61385
0.238374
0.0303071
22.7366
0.110689
6.27309
0.021951
6.20267
0.0219595
13.5916
0.0269881
6.69433
12.197
0.22926
0.0216801
0.0219024
6.51783
0.0325216
5.57856
0.0802231
0.0470446
7.79232
3.01183
5.73138
5.02504
0.0226356
0.0223131
15.6238
10.5808
0.0217582
0.0220274
7.68881
9.87736
7.35591
0.0231084
7.37381
6.29049
0.0379721
0.0219678
11.2761
1.38135
0.578451
1.69853
2.45908
0.579449
10.8118
0.0220496
0.0425321
1.56983
15.5107
0.0494333
4.85521
0.0237934
0.223616
0.0456656
0.0219004
0.0782025
0.090319
0.245563
0.021963
14.399
0.0220027
0.0220147
8.76642
7.89292
0.0652993
7.08332
3.21198
3.63966
0.0302512
0.0222708
5.4148
0.028171
6.4906
0.0239895
0.0221681
0.0222888
0.0218073
0.171853
18.4493
0.0221611
0.0988264
9.22589
0.0219716
11.6671
0.233885
7.30256
4.95082
0.0219366
18.0138
5.20487
0.170446
0.859924
8.59425
0.0229197
0.0765893
0.0221003
0.0217968
32.7726
2.70631
0.0216463
0.0253946
0.961191
0.0219277
8.13478
0.0216274
0.0219371
0.0497206
0.51027
0.0223707
0.0622934
0.0339698
0.113308
0.0316613
0.269222
0.0221489
0.0216357
0.0737664
0.0239182
0.0368509
0.0816062
0.0220353
0.0335023
0.0834067
0.0222787
8.26397
0.0273587
0.021929
0.0496444
0.0221967
0.0365607
0.0770239
6.82973
0.0837176
0.549468
0.0216287
7.4755
0.0219289
0.0226515
0.200196
7.21649
0.289314
0.0817681
0.058496
0.0468284
0.0216063
0.0833004
0.0220036
0.112972
5.31237
0.242398
0.0220636
0.0219282
0.0216076
0.0216392
11.6491
0.0368139
0.0218371
0.95561
5.74867
0.0230389
7.00682
37.6697
0.234297
0.0221794
6.68292
0.0296856
0.0221536
11.0926
0.0303847
0.0301835
0.0225324
0.041202
0.493895
0.682734
0.0356826
0.0862159
0.0216682
0.0677462
0.0220278
0.0807227
0.0269035
0.198642
10.3421
0.0216336
0.0225197
0.45651
0.0224488
0.0251302
0.0816588
9.6573
9.14941
0.0219612
0.125632
12.3177
2.72959
0.0225543
0.0217356
0.0293466
0.0369913
0.0219567
9.18368
0.728467
4.88348
31.0219
5.6166
0.0216252
0.0214688
0.0517835
7.73212
0.0255344
0.0865491
0.111825
0.0293202
6.27901
0.0218914
4.41086
6.87044
0.0216266
4.43941
0.0377046
0.0219463
0.0332108
0.087392
0.0228521
0.0221577
7.04632
4.83057
0.0219287
8.88954
6.30498
0.264132
0.0220131
0.0221341
4.77292
0.0230071
0.0216407
0.0217658
0.023007
0.244642
0.0890073
0.0293142
0.0358074
0.0311574
0.0495997
0.0216533
0.0222785
0.55908
0.0562116
0.134248
4.82072
0.025923
0.0223207
0.0220938
4.40736
4.53731
0.0216182
0.0219169
0.0216198
0.0236867
0.0442169
1.15252
0.0219666
0.0222111
0.0216024
0.832757
0.221207
0.177208
0.161228
0.0228874
0.477893
0.114249
0.0374575
0.0313881
9.07241
6.62039
1.49567
0.0220472
0.033233
6.15437
9.53012
0.0249173
0.0216293
0.058216
0.0219583
0.0303308
6.85504
3.02876
0.105326
0.0304296
8.49049
0.022006
0.0239013
0.0219063
0.0222719
0.100206
0.0241
8.00785
0.279667
0.022454
0.0219322
6.38986
0.103064
0.243016
0.0220048
0.0535648
0.0217252
0.0259767
0.0219682
0.0216431
7.65122
7.53173
4.04629
20.7889
0.0219113
0.211264
4.59216
0.0420437
0.0217524
4.77676
0.0217631
0.0220644
0.0217924
0.103143
0.021959
0.0259811
0.149309
10.7856
0.0217521
4.94141
0.0469312
0.0220193
0.0259108
0.021978
0.0219187
0.0286178
0.0640002
0.0489742
25.6071
0.0394227
0.0220415
0.408365
5.73621
4.77878
5.00354
0.0973037
0.0224875
0.0216438
0.0218401
0.0222166
0.105644
0.0420051
0.0327884
0.0362628
0.0302916
2.45424
0.081871
0.0219722
0.0348077
5.73522
0.022786
3.03546
0.0222114
0.022082
6.77558
0.0279992
0.0224537
0.495105
0.12099
0.0509813
9.78542
0.0219567
0.0226129
0.77029
8.71372
0.036024
0.0730634
0.163027
1.33628
22.8134
0.159507
0.0223031
0.141794
0.0220272
0.107305
0.0231142
12.047
0.0528486
3.73971
0.0325835
0.0726055
0.0216277
0.986576
0.0216234
8.46763
0.0219108
0.376293
0.0220551
4.8066
0.0312519
0.022088
0.0219071
0.0217842
5.69607
9.78827
7.71006
0.0446954
0.024761
0.0876187
0.0222702
0.0222873
4.74213
0.0219079
0.0220611
0.114802
0.0220414
0.0711972
0.0869797
0.0220566
0.0219578
0.0278505
0.0226986
0.028709
6.91521
0.0327765
0.0356927
0.0267398
0.0220457
3.69414
0.0223454
0.0226335
3.50475
9.43814
0.0698979
5.07837
0.0251339
0.0226059
6.55154
0.0219506
8.3228
0.341939
0.0220813
6.92137
0.551005
0.0588384
0.0218584
0.0534987
4.65974
0.0220022
0.021855
0.023173
0.0228393
0.0220325
0.021697
0.0222939
11.2047
0.025262
9.14178
0.0219698
0.159535
5.92054
0.0220338
0.0216342
0.0252019
0.0221297
0.0226218
0.0232878
0.0220863
0.107509
0.857751
0.0215412
4.67149
4.72696
0.0355106
0.139607
4.47515
0.0263366
0.0318105
0.0284417
4.53252
0.025158
0.0460843
0.021994
2.90528
0.0415871
0.222961
0.129268
7.66968
0.0250943
0.0219444
0.0584771
1.44887
0.0225605
0.478032
0.0222417
5.89738
0.0227129
0.0217835
0.0217805
0.0220476
4.6892
5.90545
0.0220182
0.309396
0.0305745
4.71352
7.32178
4.61607
1.39747
0.0218956
5.57475
0.0617718
0.0219627
0.0459879
4.62895
8.37147
0.0226881
0.0225644
0.0219919
0.0215106
7.69321
0.105512
5.07471
4.91524
0.0220519
0.0221408
0.0566069
0.022281
0.0218097
0.023265
0.0229721
0.11035
0.0408383
0.23048
5.00433
0.073336
0.0220623
0.0273903
0.123356
4.84334
0.0442497
8.81442
0.0521123
0.0220228
0.28031
5.18115
0.022428
0.0216367
0.151187
5.937
0.259969
0.0220421
7.93207
29.5759
1.89697
0.0216053
7.01626
7.19077
23.0525
0.0240949
0.0221966
8.02805
0.0222945
0.176498
6.32497
0.219702
6.70455
0.0794152
5.19027
0.0651897
0.0221046
0.022545
5.93002
4.76214
8.59321
3.51578
0.0219498
0.176705
0.0222771
0.0593156
0.080663
0.13578
0.0220864
0.0251195
0.200479
4.58823
5.53752
10.1356
0.0386817
0.0325721
0.24196
0.0222469
0.0217024
0.0219546
0.025799
0.0683655
0.0220316
0.0763493
0.0218575
0.0220808
0.021905
5.12989
0.0223321
0.0222696
0.0534896
0.0515454
0.0215456
9.93148
0.0219597
0.0217022
0.0551164
0.0368247
0.0249915
0.0228388
6.36216
0.0358805
0.0346631
5.22312
0.0346889
4.78771
0.0260048
0.107315
28.1844
9.79108
0.0216292
4.52354
0.671997
0.0216844
5.32277
0.0220619
0.0218925
0.0392192
0.0219493
0.112266
4.73449
0.0216216
24.8375
0.021871
0.03775
4.74696
0.0215268
5.58219
0.0234589
0.0219802
0.0219284
0.0219521
0.233499
0.0734344
10.6519
0.075361
6.84874
0.0567823
0.0220338
0.215992
8.91248
1.97249
0.0756984
0.171764
0.061465
0.0267168
0.232639
0.0226616
7.63375
0.0220348
6.02432
0.0227791
0.0758458
0.0278918
0.022339
8.90205
0.0225637
0.0218177
2.72155
0.0235016
0.0219076
0.0437457
0.0875063
0.24101
2.23786
5.28297
5.06384
0.0221332
0.022205
6.76617
0.0219889
0.946776
0.0841891
0.0237908
0.0220602
0.0328323
0.0219879
0.021943
0.0291266
0.777627
0.2293
0.157196
0.0632992
0.0221335
0.0574129
8.49609
0.0218659
0.0814051
0.0239505
4.67343
0.023214
6.09424
0.0220294
0.724654
0.0222766
0.0768207
0.0219669
0.0254317
0.0307727
0.0215313
0.0216858
0.0215792
5.74997
29.481
0.032903
5.9371
0.0220284
0.0415134
0.0281933
0.26033
5.36913
0.0330582
0.0215398
0.228758
0.0218592
0.0220278
0.0282186
8.41628
10.4117
0.907216
4.70714
0.0740738
0.0229372
0.0218994
5.6809
0.0218957
1.87414
0.0277214
0.0221857
5.66415
8.03299
0.0220899
8.67387
0.0270838
0.101738
0.0980208
5.08115
7.8749
1.41218
0.0219982
0.0215041
4.97178
0.0219684
0.0219169
0.028362
0.0219859
5.50172
0.247021
0.0569882
5.99464
0.0476288
0.114358
0.0238641
0.0219897
0.021535
0.0217829
9.16871
9.26252
0.354286
0.0220562
0.0215334
0.0314648
0.0218287
0.0397562
0.0255808
3.61024
4.95329
0.0757533
0.257462
0.406292
0.0218785
0.225227
0.0219009
5.46226
0.652387
6.38646
7.91907
0.0230231
0.0292262
5.67798
5.98633
7.10507
0.0448399
0.132246
5.49093
0.0220479
0.242116
1.59639
0.110127
0.022042
0.0219627
0.0408231
5.00542
3.11556
0.0983934
0.0219703
0.0250343
0.0288466
52.1843
0.0222764
0.682981
0.0218958
0.0226891
0.203789
0.0218675
0.0220182
0.0232292
0.0269476
0.0219761
0.0226366
0.021608
5.18973
1.18952
6.23286
0.0216299
0.04979
0.0220117
0.224081
0.236476
0.037019
0.0218991
0.0228781
0.644431
0.115752
0.0290924
7.47215
0.107187
0.0219674
0.0220519
4.80409
6.35728
0.0629787
0.0216124
4.41927
0.0221264
0.0360921
0.0216602
1.21395
5.55357
0.021862
0.022014
2.21102
0.0219507
6.6795
8.05536
0.0570953
0.0222644
0.0221667
0.021656
0.0220359
24.1468
10.7152
0.141886
0.0228243
4.83023
0.0219443
0.0219376
8.61221
0.0217423
5.38495
0.0215134
0.0287458
0.0232713
0.0219391
0.021834
0.0221212
5.03023
0.0224784
0.0221944
0.158433
0.0411486
0.0219712
0.0581812
0.0368778
0.0221264
0.288685
0.0219771
0.0370081
6.20067
0.0917187
0.0219582
0.296202
0.0848505
0.0875667
0.0265036
0.0610351
8.69202
0.0244529
0.0573221
0.0219516
0.0215904
0.0220045
0.0452088
0.0366375
0.0465863
0.02186
0.0275665
0.0622261
6.51384
0.245232
0.0219355
0.0217808
0.0227805
0.104862
0.0218158
8.1533
0.0219571
0.0219589
0.0217794
0.430376
5.78619
0.0221553
0.0236329
0.0218845
0.0859594
0.0218101
0.0219685
1.7399
0.0222704
0.0215953
0.0221321
0.144399
0.0217965
0.0218637
4.6354
11.6033
0.610433
0.0435774
5.62673
0.0500819
0.0219528
0.0219128
18.6616
0.0219693
0.0639165
0.0779587
0.041322
0.0266168
0.0223293
0.0305454
0.022791
0.0216194
0.211355
4.87253
0.0434846
0.0217883
6.55657
0.0451904
7.1721
4.7804
0.0996817
0.0221416
0.0219246
0.0218303
0.0575745
0.0221277
0.0218325
7.06608
0.160499
0.0438448
0.0219132
0.0675598
0.314286
0.0220965
0.026316
0.0361998
0.145471
0.0679242
0.0220001
0.0233949
0.0376151
0.0218225
0.0493847
0.0222698
10.5028
0.058714
0.120512
0.0217732
0.0371192
6.01263
4.90607
1.03272
0.0635455
9.21573
0.022131
0.0219541
0.0226774
0.0892509
0.0221703
0.0234093
0.0306576
0.0574782
0.0220021
0.0219539
0.0220126
0.022277
0.725449
3.18626
0.968147
0.0219931
8.55875
0.0295818
0.0221556
0.0326422
0.0218692
0.0858395
0.0229584
0.0219705
5.23892
33.8042
5.67333
0.0223571
23.1419
0.0219692
5.0581
5.4194
0.0215441
0.0583811
0.267996
0.0216189
0.0219627
4.08358
0.0222643
0.022017
0.190832
1.59589
0.02203
0.0313021
0.0221513
0.0252619
0.114982
0.0221673
5.64754
0.0434319
0.0219593
1.25841
0.0603712
0.0741354
0.0222881
0.326194
0.0220332
4.88012
0.0219702
0.0217651
15.4428
0.0217015
5.75193
0.0219645
0.054338
8.23348
4.81804
0.0219854
0.0223403
0.0220254
0.0232123
0.0269112
0.0266208
0.0214899
9.79505
0.0218889
0.0219676
0.144172
0.209834
0.0436092
0.0220294
4.67265
0.0828678
0.0223776
0.0351165
0.0219272
0.0217522
8.83752
0.021628
0.0217693
0.021804
6.08218
0.021807
0.021837
4.96008
0.025297
5.36439
0.0329523
0.0215158
0.0218811
3.19764
0.0262553
0.022007
8.1306
5.01688
0.0217942
4.78795
0.117301
0.0219212
0.0220353
0.326339
0.0222214
4.6785
0.0333416
0.0220343
1.60354
10.8695
0.22282
0.02187
7.74152
0.0298808
0.380526
2.41494
0.021922
9.8404
0.0220088
0.0317774
0.026332
4.58876
0.0216887
0.0223718
4.74983
0.0222732
0.0354884
0.0216958
0.0220972
5.55444
0.0884916
0.0251318
0.0358279
1.13507
0.0223119
0.0233423
0.0544774
0.113393
0.0255417
0.0219604
0.0219274
0.0221478
0.0225856
0.0218498
0.0337768
0.0275464
1.27093
0.0220089
8.01892
0.0219669
0.0287809
0.0219834
0.0361054
0.0220936
0.0219411
5.33587
5.19557
0.0240666
0.022097
15.5842
0.0275934
15.2947
0.0365643
0.0714615
5.07919
10.2782
4.61462
0.023042
0.0219888
0.0218054
4.93131
0.0218102
0.0220205
0.153817
0.0218358
0.0221872
0.0220641
11.1163
1.19318
0.0221824
5.19859
4.78129
0.0240312
0.0219415
0.0221935
4.48695
0.0216837
0.0930612
0.0222883
0.0219846
0.0220661
0.0217572
0.0712668
0.0219674
0.0218916
0.021773
0.0216212
0.364439
0.0216068
0.0218007
0.0221038
0.0219623
0.260323
4.42021
0.0593446
0.0225564
0.0220201
0.0221945
0.0222252
4.52019
0.0219535
0.0314971
0.0676709
4.68859
0.0219568
0.0219217
5.6802
0.0221264
0.105247
0.0797257
0.022428
5.48784
4.36478
0.0308723
8.25919
0.0282461
0.109469
0.0214914
5.13888
0.0220507
7.50462
0.0220497
0.0218444
1.19453
2.24285
0.442817
0.152119
0.0219129
7.2321
0.022178
5.74187
0.0530459
0.0219342
0.0214939
0.0218967
0.0513678
0.061558
5.03702
0.0404947
0.0219072
0.0219421
0.0219147
10.1047
0.191094
0.0332543
0.0221466
0.0219136
0.0302145
1.08683
0.0219226
0.03261
0.0683319
0.0219519
0.023912
0.023125
0.0571328
0.156803
0.0244188
0.0778885
0.0215902
0.0220147
7.58716
0.0404152
0.0837469
1.09944
0.0216099
8.86877
15.4665
0.0504913
5.38276
0.0219436
5.27207
5.80128
0.094864
0.0218007
10.2737
0.120624
0.021996
0.0383462
6.40199
0.0226115
0.0219767
0.0395779
0.0222713
8.74696
0.0305519
0.0220492
0.0222821
0.0218873
0.0685165
0.0335072
8.28364
0.0876908
5.53306
0.0764292
0.0222611
0.0219458
0.62622
13.3383
0.0219753
0.0219037
0.150376
0.022096
0.275317
5.07161
9.92249
0.021965
0.0219971
6.10464
0.0217568
4.79511
0.538897
0.0217123
5.73698
0.0584237
0.0824168
0.0219739
16.7664
0.0220356
3.75422
0.0215075
0.0471363
0.0228635
0.0216875
9.03463
0.0227252
0.0219907
0.0234154
5.2936
0.0220825
0.0216
5.07137
0.0219201
0.0216585
0.022124
0.025283
0.0220598
0.0221865
0.0278284
0.0221809
0.0263883
0.0215641
0.274994
7.68958
0.134255
5.35544
0.0283062
0.0263026
0.0218942
0.0218348
0.0221293
7.95967
4.82889
0.0218896
0.0222777
0.0219248
22.9164
0.0215935
0.267095
1.00334
4.43761
5.75971
7.31733
4.95728
0.0216392
4.80732
5.36802
5.30927
0.026113
0.0221578
0.0421514
0.0216432
4.85308
0.106765
0.0581586
0.0269827
7.87543
0.0219955
0.0214863
5.04416
0.117835
0.0219659
0.0215254
0.0437625
0.022123
16.4837
3.0086
6.011
4.75511
0.0729669
1.25443
0.0218236
0.243661
0.0221132
0.021964
0.0216494
5.97705
0.02213
0.0218119
1.97513
5.28331
0.24654
0.125203
0.0229061
0.039117
9.44472
10.6234
5.32199
5.57756
0.119914
5.77553
0.22312
0.532041
0.0512465
0.0411169
0.0218964
0.0361815
0.032798
0.0220517
5.46264
0.0218081
0.0219616
0.0219998
5.56174
0.0255392
0.0218167
0.0218372
0.0219707
0.132529
0.0891007
1.05591
0.0227254
6.39012
0.0215181
0.0219319
0.0782992
0.0697735
0.0215035
4.37042
0.0406676
4.82146
0.0219888
9.7721
0.0622341
0.0219353
0.0220605
0.0219653
5.52935
5.11836
9.71195
0.0219859
0.0222308
0.0215752
4.79453
0.0281822
0.0220664
0.603074
0.0219497
0.0225923
4.87946
0.0216034
0.0219578
0.022072
0.0221241
0.021484
0.0224394
0.0215176
0.0222512
0.0725173
0.0397064
0.0218395
8.51314
0.0238464
4.87007
10.2353
0.0508863
6.26859
4.81642
0.0217977
0.0408764
0.0220298
0.0218445
2.80967
0.0261379
6.78834
0.0272761
0.111814
0.0220886
0.023224
0.0219158
4.50197
0.0432934
5.51558
0.0220542
0.112026
0.0292476
0.0218045
0.0368668
0.0398127
0.0215476
8.83542
0.0221017
0.0403054
0.0220089
0.0304407
0.0494182
0.187561
0.0265378
0.0716645
6.95684
0.0302363
0.039827
0.0215996
5.7795
0.0585685
0.0222715
0.0730598
4.19517
17.071
0.021974
0.0229086
0.0221732
0.0215851
0.0219486
4.56926
0.0285354
0.022084
9.32986
0.0221169
0.0215877
0.0257082
4.75466
0.0221915
9.49917
4.73885
0.102547
7.28605
0.0226452
4.7749
0.582895
0.0216145
0.0291328
0.0220397
0.0223433
0.0380713
8.10946
0.0581224
1.01543
0.387699
0.0219091
6.88018
0.0219097
4.58079
0.022268
29.4646
4.88406
0.0221614
0.0217523
0.0222787
0.0328067
0.0796016
0.0219702
15.6453
0.0230214
0.0417292
0.0752885
0.0230774
0.0219226
3.67301
0.0217598
0.189516
0.0292854
19.72
0.0221283
0.0219023
4.6361
0.0214651
0.0217592
0.0225531
0.0593212
0.0500005
0.236483
0.0242441
0.0217612
0.0252272
0.0222669
0.0224788
5.81889
0.0219426
0.0486789
6.67967
0.173657
0.0219571
0.0842556
0.0218587
0.0222088
0.422036
0.260862
0.0839916
0.0222395
0.0219566
0.0246707
0.0770931
0.0218718
0.0304969
0.021907
0.0222307
0.0218466
0.0220225
4.46524
0.0215547
10.7812
5.59156
0.0250974
0.021678
5.27518
6.32587
0.0217916
0.0219728
13.371
0.0222776
0.0648211
0.225855
1.59741
0.0219205
0.022783
0.0487385
0.021981
6.52901
0.190408
0.0217973
0.0312059
0.0382779
0.0220903
0.300455
0.0221549
0.0504494
0.0228808
0.0249026
0.0215301
0.0219056
0.243257
0.0219552
7.00482
0.0652757
0.0220131
0.0220016
0.0219835
0.0218811
5.79158
0.0222717
0.180819
0.0219077
0.0218527
0.0554834
4.88309
0.0217708
0.0215537
0.0219442
0.0225425
0.0301717
0.0303196
6.59026
0.028956
0.0218428
0.140856
5.43352
0.0222339
0.0313064
5.01779
0.0358105
0.0224042
5.91958
0.0214842
7.2644
0.0430863
0.0220663
0.07437
0.0218548
0.0219339
0.0219126
4.59834
0.0220307
3.66659
5.34032
0.585514
0.0298039
0.0219655
5.04721
0.0222778
25.1281
0.0217168
0.406282
0.0257352
0.0808584
0.0226549
2.6837
0.0292364
0.0222245
5.52332
6.27372
0.0215566
4.40348
0.0219882
0.0310838
0.0217333
31.5942
0.558618
0.0222768
0.0220144
4.38881
0.291907
0.0218577
0.0233996
0.0220294
0.0218097
0.0217095
0.0239635
5.64332
16.6725
0.0224294
0.211268
0.0236396
0.0647
0.0220011
30.769
5.4995
8.53875
0.0227192
6.31154
7.35539
0.0248392
0.0304732
0.0218877
0.0521089
5.88455
0.0221745
0.0217103
0.0217662
0.0274809
0.0215817
0.0219829
0.927249
0.0230493
0.205812
0.0220427
0.0219703
0.022462
0.0220438
0.16848
12.8202
0.021791
0.0429877
0.0215411
5.00887
0.0218031
0.0241816
5.80483
2.61281
0.0262215
3.50201
0.411078
0.0220669
0.0609731
0.0221199
0.0330942
0.0222351
0.021926
0.136429
0.103627
4.4336
0.10107
0.0348437
6.7786
0.0232206
0.0413043
0.0227441
5.93361
4.356
3.01144
0.0219568
0.0215161
6.97383
5.17071
0.0221316
5.22732
0.0221403
0.0268893
0.0214936
0.0218645
0.0218063
0.0218215
0.216586
0.0407526
0.0385836
0.0219752
0.0220192
0.0216409
0.021828
0.021817
0.0222628
0.0219333
4.39132
4.91191
4.96538
0.023622
7.76859
0.0550235
6.77299
7.81032
0.0551049
0.0221136
0.0222512
0.202503
0.0223748
4.86646
8.49063
0.0225661
0.0216992
0.0313507
4.80386
0.0219925
7.74332
0.0218425
0.0221015
7.47445
0.021935
0.0286308
0.0221656
4.96174
0.02158
0.0219524
0.228852
0.0216159
0.0220559
0.021887
0.0216994
0.0682089
0.0219122
23.7021
0.0220216
0.0222173
0.0214753
7.8301
0.0342223
0.0221977
6.0416
0.0220873
0.0215576
0.219032
4.72522
0.022121
7.52326
5.217
0.0263996
4.87982
0.022112
0.0219527
0.0881327
0.0216648
5.71808
4.94998
0.0214901
0.0262688
0.0218886
7.96897
2.78077
0.0434799
0.0221455
0.526757
0.036281
0.0503985
0.0268538
0.0220294
0.0225483
0.0219116
0.0218132
5.95711
0.0214526
0.0218149
0.0415582
7.15128
0.0720044
7.94077
0.022015
0.0421267
0.0218793
0.0219837
0.0220915
0.0217609
0.0221541
0.0219204
0.0221018
0.0221728
0.0243209
0.0219601
0.0221444
0.0216804
8.72802
7.90779
0.0221936
0.0227665
4.60024
0.0222103
0.112678
5.57622
2.68102
7.18502
0.832809
7.09891
9.36643
7.86186
0.0217645
0.030234
0.0218844
0.0499301
0.0246398
0.0222239
0.0217792
9.46014
0.0216255
0.0298101
12.3951
0.0215835
0.0217224
0.076714
0.0217
0.0218957
0.0218844
0.0221718
4.89949
8.30181
0.0220348
0.0219546
0.0220561
0.0228091
0.0432226
0.0228419
12.835
0.229916
0.0221949
5.48763
0.0320777
0.0219487
7.0585
0.0215903
0.0534528
0.0217745
0.0223593
0.0223615
4.94604
0.0219529
0.0219617
0.0239547
0.0223121
0.0305068
0.0218246
3.4538
0.0397092
0.0442442
10.7321
6.26703
0.0991753
0.0330661
5.02163
0.0219981
0.0220009
0.0253123
4.6554
0.0548886
0.0491528
7.9196
0.0219749
3.57924
0.254626
1.29016
0.0219984
0.0359508
0.0218848
0.125844
0.0334374
0.501205
6.45097
0.0220137
0.0355625
0.0276252
0.0219062
1.0371
0.0219693
0.0307285
0.156973
0.0866954
0.0219589
0.0222948
0.0222286
0.0553074
0.0219502
0.0221819
0.0219642
0.0220786
0.0216552
0.0379614
0.0215435
0.777683
4.49637
0.022495
0.0217478
0.021556
0.0425449
0.0345485
0.022127
5.91326
0.0499244
0.021768
0.0218174
6.13828
4.46541
0.0219374
0.17981
0.0348739
0.0220052
6.16979
0.0226001
0.0734324
0.022234
14.2216
5.90737
0.0222563
0.0351621
5.06823
0.0347688
6.5674
0.0222395
0.0253618
4.44919
7.13288
0.0253123
0.0253402
0.0225126
0.0243936
0.0228752
6.5814
4.48284
4.68404
0.0234783
0.0219589
0.0556331
0.0219003
0.252267
0.0247645
8.46763
0.0215752
0.0221894
0.0217499
0.0218968
0.021846
0.0737513
8.02203
0.0299256
0.0216147
0.0221047
10.4351
0.0234857
0.0237698
0.022156
0.0357424
6.96301
0.0217031
0.0218442
0.0396621
0.0797101
0.0221145
0.0412103
0.0223294
0.0236292
0.114604
0.0286285
7.22798
0.902375
0.0471757
11.3565
0.0218578
0.0218924
0.023047
7.32493
0.0232138
2.3057
0.0216926
4.9062
0.0358534
0.021874
0.0300639
0.0222791
4.65954
0.0550422
0.0303731
0.273495
0.0993058
0.022152
0.0222012
0.0222285
0.0249139
4.81751
0.052497
0.0221043
0.187264
0.0218421
7.27951
0.0219588
6.48561
0.0292711
7.56789
0.58699
0.0582901
0.0219717
0.0220045
0.0218693
6.12272
0.0219751
0.0509082
4.32991
0.0215318
7.77922
0.0327987
0.0219614
0.0769764
0.021914
0.0218244
5.29836
7.06896
6.29178
0.0219075
0.0217627
0.0227126
0.0243799
0.022958
0.0219403
10.6788
0.0767726
4.53806
0.0225305
0.0424073
2.27426
1.31263
0.0301393
0.021752
6.06095
0.0228815
4.66634
0.0218982
0.0220262
0.0219789
0.0217131
0.0215298
0.0222266
0.0217865
0.0368641
7.57658
0.0350788
4.6042
0.0249826
0.0222091
0.0221255
0.428344
0.0220227
0.0225083
0.0220426
4.97075
5.00757
0.0217821
0.0236392
0.0218744
0.0219725
0.0222784
0.0220618
0.0219104
0.944264
0.0222421
0.0217889
0.12981
0.0218284
5.48213
0.0757841
0.08741
0.183471
0.0240788
0.0220777
4.59746
0.0220434
0.076107
0.0296024
0.0217825
0.0498321
0.0220653
7.16739
0.0216048
0.021788
5.26941
0.0548358
9.73318
0.0217527
0.0834374
0.157837
0.0316558
4.62119
0.0218815
0.0217387
0.0216129
0.0923047
0.0227783
0.728867
0.0220012
0.0405835
6.41127
0.191647
0.0220122
0.920824
0.025295
7.35171
0.0234816
0.023472
0.0240295
5.61094
0.0219654
0.0223441
5.87152
0.0215624
0.0261166
0.0218204
0.0465222
4.67729
7.66943
0.0218421
0.0974667
0.021999
0.324715
0.0220146
0.0223998
0.0867597
24.5987
0.0394057
0.0219922
0.0253292
5.69226
0.0582791
0.0758387
6.12484
0.0220197
11.6576
0.0229531
0.171077
0.0217847
0.0251403
6.99898
0.0254143
0.0219198
0.470431
7.62428
6.05335
0.0216984
4.36727
0.806873
0.0216158
0.151328
9.26607
0.0222781
0.0228559
5.22658
0.0214957
0.0223704
0.0218301
0.0220653
0.105449
0.0808238
0.0359656
5.06612
0.022271
0.0574091
0.0296842
0.0221898
0.0232555
0.0352462
0.0219686
0.0222272
8.98382
5.32526
8.01116
0.021672
0.0372623
0.0221373
4.36199
0.0220951
0.0413652
8.23755
5.88906
0.0674709
0.0219541
2.94004
4.96489
0.673077
0.0219966
0.0221266
0.0218381
6.5436
0.037384
0.140849
7.26733
0.0220321
0.0222113
5.14056
0.0286453
0.0875196
0.0221751
0.0218953
0.0219759
1.29113
0.022036
0.0527775
0.0217489
0.0221118
0.0217942
5.62528
5.08184
0.0237179
0.545286
0.0229659
0.587594
0.0219189
0.0219042
0.0776885
0.0220764
0.0219318
0.0253831
0.105437
0.029176
0.133642
0.0220177
0.0630168
5.54352
0.0221152
0.0220185
0.0220347
5.331
0.0455034
0.0471271
0.0786842
0.0217645
0.0218517
0.140851
0.0259436
8.24755
9.80692
0.035891
4.73489
2.95973
5.25783
0.0528815
0.0222976
0.0220001
0.248051
5.94494
0.0218783
0.0380501
5.63233
0.0221072
0.195913
1.46331
0.116727
0.0219316
0.0873623
0.0221435
0.0221057
0.0216242
0.891718
0.0220943
0.0557424
0.0387516
0.0219841
0.0221849
5.3196
0.0217712
0.0215903
0.0459059
0.961301
0.0372017
0.0220197
0.039917
5.36458
4.52152
0.028344
6.25282
0.0775773
0.122004
0.0591401
0.0220963
0.153777
0.0330135
0.0216473
0.0217157
0.022325
0.0259878
0.267461
4.96485
0.0222183
4.2655
0.0763925
3.04974
11.5879
0.256938
4.37472
0.116697
4.56696
0.0483177
4.92358
0.0565135
0.0219753
0.0220907
7.58887
4.71715
0.103829
5.62966
0.0218114
6.51591
4.67724
0.0220346
0.0216435
0.0376117
0.0592639
5.25364
9.16548
0.114084
0.021872
0.0218087
0.0222179
9.46108
0.0254253
4.75721
0.0246616
24.0956
0.181139
5.08274
0.0277781
4.54329
0.0218039
0.0215896
0.0257364
0.0221649
6.63145
0.133163
4.34383
0.0220643
5.72231
5.38635
0.0215449
0.0423094
5.07796
0.0433873
0.0218698
0.0264348
0.0219736
4.69606
0.0214586
0.0223204
6.83371
0.0292898
0.0488656
0.0276118
0.0218141
0.0222071
0.0417943
0.0220453
0.0216443
0.0218354
0.0300926
5.59895
3.42158
0.0219706
0.132033
5.70556
0.0221176
6.41366
5.92796
0.0221006
9.9123
0.0220738
0.0863859
5.00292
0.0219651
0.0221677
0.0221566
0.0826572
0.0261245
0.0218593
5.04593
0.0219662
8.15722
0.0220404
6.72987
5.36562
0.0249488
0.0217313
0.148925
0.0791919
0.154957
5.76957
0.0440715
0.0221596
4.78147
0.0224368
0.0744375
0.0665563
0.0299511
0.0629139
0.021891
0.133631
5.67756
5.04879
0.119008
0.0218907
0.178576
4.37316
0.0222719
0.212889
0.0948999
0.952257
0.0219754
0.0249569
0.0215031
0.182919
7.33207
0.0862004
7.21976
0.0863301
0.0377971
4.89806
5.2305
5.51677
1.27614
9.77605
0.0650357
12.4467
0.0506008
6.00553
7.15462
0.0232843
0.0223347
0.0270418
0.0587046
0.021997
0.0260954
0.0222616
0.0243037
0.0220024
0.0218798
8.28342
5.53214
0.0222038
0.0511024
0.0221063
0.0217953
0.0237073
0.0778364
0.0233449
0.0920649
0.022168
0.0435966
2.08006
0.104368
0.045934
0.0219747
0.102464
0.0222204
0.021925
0.617239
0.0228784
5.25632
0.16283
0.0219338
0.0244075
4.8722
0.0220745
0.0975443
0.0572876
0.0596339
0.0264602
0.0370392
0.0220066
0.0221683
5.01122
8.49394
0.0355015
0.07655
0.0220425
5.11758
0.0254964
7.44644
0.0796421
0.0221107
0.0216765
6.61015
0.168313
6.00324
0.0280482
7.59974
0.0226284
5.33151
9.70506
0.0307808
0.151335
0.0218552
6.9138
0.0221978
11.2111
0.0286605
5.00901
5.55438
4.80943
5.01248
0.0360684
8.32644
0.14755
0.0483605
5.31426
4.69332
4.69847
0.0217122
0.0257886
0.0753717
8.0673
0.0218875
0.0217848
0.0296739
0.0619593
11.2408
0.0592583
0.045158
0.0219323
0.1242
0.0215469
0.170561
5.37559
0.697164
0.0217797
6.84263
0.0676753
0.022529
5.11167
3.06142
0.0268768
4.78371
4.58206
4.77731
0.0562998
0.0218435
0.0288536
6.53959
0.0375152
0.0219758
7.00561
0.0214986
7.76
0.0232117
0.0221567
4.59741
4.7139
0.0218315
0.0512579
0.0219506
7.7996
0.0215084
4.76892
0.156589
0.0422771
0.0219068
0.0220016
0.0221616
0.0376036
0.0522431
0.122883
0.0290604
6.41034
0.0344239
0.0253093
5.98845
4.84464
0.0216417
0.159659
0.0219417
5.51139
0.0220742
0.0430003
6.48671
0.0276029
0.0219287
4.86019
0.0222933
0.0222548
0.0464652
0.0222781
0.0218943
6.39651
0.0619932
6.86445
0.0222785
0.120147
0.0784448
0.0216396
0.0219332
0.0235686
0.0218339
5.22762
3.51914
4.82648
4.71516
4.74963
5.39016
0.0219182
0.022029
0.0219432
0.0221349
0.112697
7.54799
0.0304992
0.0247488
4.35597
0.0222739
0.0217698
2.41648
0.114666
0.0214739
0.0219709
0.0218913
0.188901
0.0217571
0.0219227
0.155133
0.0341329
0.100363
0.0239075
5.1797
5.77045
0.0214656
0.0217139
5.54325
0.0340324
0.025077
5.73005
0.0357264
0.121968
0.756955
0.0235243
0.671101
5.11397
0.0215413
0.0257027
5.48382
0.025138
0.0220088
1.20448
0.0545342
0.0535045
0.0221851
0.35761
0.0239203
4.65472
0.022054
0.0219755
0.03343
0.0627518
7.56415
0.0358303
0.0219429
25.1451
4.91894
0.0239147
0.0743021
0.0220299
0.0219112
0.0217475
5.31905
0.0218592
7.19147
0.243792
5.04667
5.95019
0.0353678
5.16413
0.0331251
7.62081
0.727381
0.107958
0.571538
0.0742845
0.0950938
5.76245
0.0501943
0.0220035
0.0220589
16.4105
0.0401546
0.022967
0.0221575
5.78787
9.78107
0.0220938
4.85369
9.71251
0.0645504
0.447286
0.0405908
0.0404293
0.041788
0.101065
5.0735
0.0275768
0.183202
0.211962
0.0217598
0.103987
0.0279185
5.31375
0.0623295
0.0219596
0.242914
0.0647643
0.07376
0.56414
0.0225378
4.89438
0.207929
10.6455
6.89436
0.0221838
0.022011
0.0218989
5.1633
4.94805
0.0847437
0.145273
0.0218579
0.021728
0.0225709
0.0769962
4.75209
0.05178
7.83993
0.0726892
0.385703
0.690229
0.0217626
0.0532393
8.33398
7.30933
6.16135
6.96166
4.45421
0.0222287
4.45308
5.16324
4.87243
5.2445
0.0219461
5.09318
0.0225809
4.78959
0.0274129
12.5869
11.9222
3.77993
0.0221581
0.0219961
0.0712433
0.0237519
0.107332
0.0222724
0.0491968
0.0485013
0.0218001
0.0220003
0.0343147
0.0219289
7.85156
0.0218859
0.023035
5.25197
0.0650004
5.47777
0.103599
8.43151
0.0219186
0.0219767
0.0222382
4.77053
7.89595
0.0220239
0.0481303
8.03735
9.62796
0.0218925
4.62643
4.57971
0.0218016
4.88554
0.0219088
0.0402869
0.0220104
0.0584757
0.0220703
0.13448
6.20238
0.0218424
0.0221593
8.1213
0.0356445
0.021693
0.0220975
9.97612
0.0218738
0.0221651
4.4192
9.9889
5.4297
0.0806293
0.0219421
4.5275
5.36445
0.761047
0.0221666
0.0874652
0.0622744
0.0219339
0.21466
0.021807
0.0218097
0.0218249
0.0535746
8.03849
4.75569
0.0424063
0.138503
0.0218716
5.69754
0.0218147
0.0279804
0.0466678
0.0233633
0.0505201
0.0360782
0.0218601
0.114668
8.03015
0.0573579
18.2085
7.81933
0.0622569
0.0219553
0.0250972
0.221374
0.0294514
0.0221944
0.0980416
7.22226
0.0217046
7.85546
0.0289296
0.0219581
0.88538
6.29522
5.26901
0.021973
0.0268515
0.0248332
0.055678
0.0486194
0.0218637
0.0219653
0.114319
1.1943
5.68448
0.0274792
0.0222822
0.0217371
0.156127
0.0220253
5.02335
0.0222728
0.0410116
7.92788
0.199009
6.7617
0.0220492
7.57202
4.94186
7.10399
0.0220017
0.022223
0.0509187
2.48167
0.0218252
7.42708
0.0218768
0.0214984
6.45479
0.0221842
0.0534172
0.027869
0.02287
0.0318141
0.0293145
0.0681247
0.0466746
0.0390367
21.0835
0.173614
5.77951
0.0471709
0.0342513
0.0562507
5.53643
0.160981
0.0276859
0.0220794
5.22492
0.0226773
0.861699
0.208789
0.477277
0.0216895
8.98526
0.0220544
2.08138
0.0225523
0.862535
4.96976
0.0497023
11.7746
4.34786
7.31009
4.91575
7.31907
0.0640891
0.0219417
0.0217995
0.91686
0.0218071
0.0219136
0.0219845
0.0405786
0.0233424
0.0343465
10.9816
6.41415
0.110846
0.0276714
0.0273303
0.0215753
0.0254195