/*--------------------------------*- C++ -*----------------------------------*\
| =========                 |                                                 |
| \\      /  F ield         | OpenFOAM: The Open Source CFD Toolbox           |
|  \\    /   O peration     | Version:  v2012                                 |
|   \\  /    A nd           | Website:  www.openfoam.com                      |
|    \\/     M anipulation  |                                                 |
\*---------------------------------------------------------------------------*/
FoamFile
{
    version     2.0;
    format      ascii;
    class       surfaceVectorField;
    location    "400";
    object      ddtCorrDdt0(Uf);
}
// * * * * * * * * * * * * * * * * * * * * * * * * * * * * * * * * * * * * * //

dimensions      [0 1 -2 0 0 0 0];


internalField   nonuniform List<vector> 
27284
(
(0.154837 -0.0982379 1.28591e-18)
(0.120415 -0.0937116 -1.35275e-18)
(0.145596 -0.0827772 2.16554e-18)
(-3.11211e-05 -3.24092e-05 -3.77964e-19)
(-2.89807e-05 -3.10533e-05 5.17991e-20)
(-2.92538e-05 -4.59925e-05 -4.62224e-20)
(-0.098381 0.0539197 -3.19824e-19)
(-0.104387 0.0492826 2.81494e-18)
(-0.0974292 0.0453771 -3.61707e-19)
(-0.00015877 -1.45891e-05 1.34204e-19)
(-0.000155438 -1.46774e-05 3.22569e-19)
(-0.000160435 -1.18331e-05 -4.25513e-20)
(0.0175848 -0.00637525 1.84014e-19)
(0.0193011 -0.00372915 1.47698e-18)
(0.016184 -0.00314011 -5.65209e-19)
(0.00191358 0.0805054 -1.5103e-18)
(0.0155569 0.0754124 5.77633e-19)
(0.00435563 0.0927801 -5.17121e-19)
(-0.00111932 0.000659636 1.73135e-19)
(-0.00104535 0.000486142 1.97736e-19)
(-0.00126891 0.000455849 -1.59042e-19)
(0.0182974 -0.00956986 -1.66691e-18)
(0.0150028 -0.00824732 1.94926e-19)
(-3.8954e-05 -7.93626e-06 -4.31409e-20)
(-3.137e-05 -1.07944e-05 1.32735e-19)
(-3.98191e-05 -1.01445e-05 -2.50885e-19)
(-0.0646453 -0.0301165 -7.06158e-19)
(-0.0560863 -0.0278012 -4.17217e-19)
(-0.0567837 -0.0435405 -5.92818e-19)
(-0.000120568 0.00656525 5.87291e-19)
(0.000353389 0.00597328 3.05953e-19)
(-0.000481275 0.00598047 -7.95475e-20)
(-0.0162031 0.0436602 -1.32806e-18)
(-0.015024 0.0419534 4.74364e-19)
(-0.0172645 0.0417698 4.67364e-19)
(-0.0173119 0.0451081 2.75964e-18)
(-0.0152934 0.0452102 -2.05328e-18)
(0.128205 -0.0104914 1.31595e-18)
(0.114929 -0.0576045 -6.74572e-19)
(0.121982 -0.026655 6.70594e-19)
(-4.89142e-05 -1.86512e-05 -8.05757e-20)
(-4.72153e-05 -2.56188e-05 4.45494e-20)
(-4.06193e-05 -2.2424e-05 -8.75742e-20)
(-1.64772e-05 6.79034e-05 2.65139e-19)
(-2.26334e-05 5.93459e-05 1.84359e-19)
(-2.13631e-05 5.22369e-05 -1.98387e-19)
(-0.000158919 -1.48933e-05 -6.82171e-20)
(-0.000156446 -2.19999e-05 -2.58029e-19)
(-0.00434631 0.00238198 -2.17861e-19)
(-0.00488259 0.00227359 -2.35287e-19)
(-0.00444004 0.00183392 4.6981e-19)
(-0.102719 -0.0524102 8.77457e-19)
(-0.0991292 -0.0628651 5.86532e-20)
(-0.0932888 -0.0545076 -2.16175e-19)
(0.00202444 -0.00220687 -2.06745e-20)
(0.00175699 -0.00241854 5.81595e-20)
(0.00163398 -0.00195742 -1.64992e-19)
(0.0828978 0.0316731 -2.67767e-19)
(0.0815681 0.0283761 2.50212e-19)
(0.0854443 0.0289859 -5.34003e-20)
(6.88888e-05 -0.000327668 -2.36272e-19)
(7.57482e-05 -0.000298408 -3.48587e-19)
(0.000129715 -0.000332502 3.44087e-19)
(-2.90576e-05 4.83141e-05 1.52704e-19)
(-3.12281e-05 5.038e-05 1.8697e-19)
(-3.26995e-05 4.40528e-05 -1.1039e-19)
(-0.00986467 0.0785152 2.57647e-18)
(-0.00243997 0.0677082 7.24347e-19)
(-2.53324e-05 5.07878e-05 4.23483e-20)
(-2.7338e-05 4.4832e-05 2.88955e-20)
(-0.000492375 0.00152532 -2.14617e-19)
(-0.000520534 0.0012328 -3.49855e-19)
(-0.000741601 0.0013813 1.86773e-19)
(-0.000985071 0.000826959 -3.23075e-19)
(-0.000814489 0.00102665 -3.30488e-19)
(-0.00071767 0.000790903 3.24635e-19)
(-0.000159203 -2.99293e-05 1.00465e-19)
(-0.000160384 -1.97917e-05 -1.13867e-20)
(-0.000161032 -3.16153e-05 -7.0975e-20)
(-5.66401e-05 -3.07613e-06 -1.291e-19)
(-3.63439e-05 -5.25783e-06 5.39516e-20)
(-0.00123282 0.00762744 -1.18383e-19)
(-0.000641825 0.00708927 2.58971e-19)
(-0.00155508 0.0069601 -9.74386e-20)
(-0.0570532 0.252433 2.77802e-18)
(-0.0391 0.295718 -8.72995e-19)
(-0.0512608 0.250117 1.55298e-19)
(0.0225478 0.0117874 -4.31721e-19)
(0.0216661 0.00998934 -6.09751e-19)
(0.023836 0.00992457 -1.7962e-20)
(0.000111182 0.000117193 -6.66721e-20)
(0.000132091 0.0001186 -1.66639e-20)
(0.000144669 0.000128508 1.48205e-19)
(-3.2184e-05 -6.81068e-05 1.92612e-20)
(-2.95827e-05 -6.35335e-05 3.36832e-19)
(-3.06836e-05 -6.50219e-05 1.76326e-19)
(-6.09373e-05 -3.01037e-06 7.15415e-21)
(-6.29471e-05 -2.60526e-06 5.55376e-20)
(-6.19246e-05 -7.39944e-07 1.27233e-20)
(0.00178448 -0.000198247 3.65085e-20)
(0.00156838 -0.000253634 1.75629e-19)
(0.00178071 -0.000388119 -2.02049e-19)
(-0.00523104 -0.00267764 -2.15024e-18)
(-0.00542092 -0.00232635 6.65605e-19)
(-0.00500066 -0.0024005 5.17461e-19)
(0.00182002 -6.62085e-06 -4.50654e-20)
(0.00207527 -0.000149058 -1.31048e-19)
(-0.00193378 0.00810613 -4.06636e-19)
(-0.000899759 0.00839324 -1.82847e-19)
(-0.000602461 0.000427108 1.88501e-19)
(-0.000641455 0.000498129 -4.43062e-19)
(-0.000685108 0.000440325 -4.54387e-20)
(-0.000154961 1.55128e-05 7.67457e-19)
(-0.000161082 1.40337e-05 4.59737e-19)
(-0.000169743 8.82499e-06 4.98698e-19)
(0.000298996 0.00717817 1.23373e-19)
(-3.48311e-05 -6.98145e-05 1.04545e-19)
(-3.68277e-05 -6.95658e-05 -1.0793e-21)
(-3.58174e-05 -6.77302e-05 7.40144e-20)
(-3.25062e-05 -3.40591e-05 -1.03893e-19)
(-3.38086e-05 -3.64649e-05 -5.72062e-20)
(-3.21958e-05 -4.87092e-05 -2.86111e-19)
(-3.2788e-05 -1.88179e-05 1.75832e-19)
(-0.00456397 0.0704767 -7.01112e-19)
(-0.00503838 0.0685931 1.15382e-18)
(-0.00264629 0.0692664 -6.92806e-18)
(-0.00010331 -0.000173971 -1.78184e-20)
(-0.000108209 -0.000169227 -7.2313e-20)
(-0.000106951 -0.000177132 -4.27625e-21)
(-9.85135e-05 -0.000168674 -1.60712e-20)
(-0.000106576 -0.000166199 -1.58453e-20)
(-0.0754801 0.197905 -4.79544e-19)
(0.000631218 -0.000203015 2.08194e-19)
(0.000606155 -0.000129279 -5.81216e-20)
(0.000523938 -0.00020826 1.36479e-19)
(-1.3704e-05 -3.69031e-07 6.14088e-19)
(-1.49046e-05 -9.1391e-07 -2.13919e-19)
(-1.50856e-05 1.52063e-07 1.21981e-19)
(0.0926964 0.0565571 1.49137e-20)
(0.0966174 0.0524439 -7.18748e-19)
(0.0991675 0.0622305 -1.18704e-18)
(0.000778692 -0.000214958 8.22015e-20)
(0.000645468 -0.000297414 4.20255e-19)
(-0.00785959 -0.0932059 -7.03084e-19)
(-0.012192 -0.0983393 7.4966e-20)
(-0.0151586 -0.0897273 -6.15786e-19)
(-0.000207969 -8.80447e-05 1.20899e-18)
(-0.00021237 -7.83935e-05 9.57733e-21)
(-0.000207985 -8.69633e-05 7.50425e-19)
(0.00236825 -0.00195899 4.63001e-19)
(0.00256039 -0.00250211 6.86869e-20)
(-3.81337e-05 1.45334e-06 1.99808e-19)
(-3.83218e-05 1.17683e-06 1.02208e-19)
(-3.8699e-05 1.2468e-06 8.33034e-20)
(-0.105035 0.466737 1.66732e-18)
(-0.000446316 0.00176481 -5.01719e-19)
(-0.000214335 0.00155172 -1.50874e-19)
(4.61537e-06 0.0872397 1.03253e-18)
(0.0140042 0.0897699 6.10061e-18)
(0.0228069 0.0890015 -6.86176e-18)
(-3.4174e-05 -7.06771e-05 -3.05213e-21)
(-0.0297784 0.0255123 6.45036e-18)
(-0.0279063 0.0266247 -3.45687e-18)
(-0.0278323 0.0238605 3.23404e-18)
(-0.00353942 -0.0861076 -3.21574e-19)
(0.000263638 -0.0945409 -1.84213e-19)
(-0.00114502 -0.0016273 3.08154e-19)
(-0.00118419 -0.00134828 2.62558e-19)
(-0.000857251 -0.0014142 -8.55103e-20)
(0.0331097 0.0042505 -1.97794e-19)
(0.0349387 0.00229248 -2.83312e-19)
(0.0318405 0.00199373 4.44082e-20)
(-2.16882e-05 8.05618e-06 1.17429e-19)
(-2.09519e-05 1.07599e-05 2.73722e-19)
(-2.49915e-05 1.20765e-05 4.55098e-19)
(0.00138541 -0.00197685 -1.44937e-19)
(0.00119014 -0.00200225 1.09013e-18)
(0.00134827 -0.00221753 -5.74531e-19)
(-0.00508328 -0.00297969 -5.32079e-19)
(-0.00549801 -0.0029083 -3.57836e-19)
(-2.0416e-05 -5.73167e-06 5.27875e-20)
(-1.86424e-05 8.40977e-06 -1.09903e-19)
(-1.85384e-05 -2.52149e-06 2.29075e-20)
(-0.0592177 -0.00374647 1.19404e-20)
(-0.0626125 0.00314076 7.37958e-19)
(-0.0654557 -0.00916411 -1.82108e-18)
(6.36667e-05 -3.73672e-05 6.87226e-20)
(9.05184e-05 -1.14575e-05 -1.25046e-19)
(0.000100989 -4.2858e-05 -3.11387e-20)
(-0.000208441 -9.64479e-05 -6.35359e-19)
(-0.000215764 -8.68137e-05 4.43613e-19)
(0.0170075 0.00746037 7.82238e-20)
(0.0174898 0.00904821 2.55123e-19)
(0.0156799 0.0086276 -2.06072e-20)
(-0.0073373 0.0010707 -2.09079e-19)
(-0.00669492 0.00149296 -2.93405e-19)
(-0.00652708 0.000721239 3.15826e-19)
(0.0237548 0.0318846 -5.51749e-19)
(0.0293471 0.0324598 4.32076e-19)
(0.0254988 0.0260331 -2.45361e-19)
(-2.48175e-05 -3.30951e-05 1.44926e-20)
(-2.24174e-05 -1.92947e-05 -2.79028e-20)
(-2.21021e-05 -2.92954e-05 -3.37085e-19)
(-0.117746 0.440678 2.57349e-18)
(-0.0951598 0.499281 7.89488e-18)
(-2.80316e-05 -4.51784e-05 9.51182e-20)
(-2.81612e-05 -3.68096e-05 2.93418e-19)
(4.5584e-05 -6.33951e-05 1.933e-19)
(3.08513e-05 -3.60434e-05 -1.50742e-19)
(0.0229862 0.0365948 -9.7192e-19)
(0.0180045 0.0317006 2.3015e-18)
(0.00162877 -0.00199012 -1.38297e-18)
(0.00144358 -0.00177823 -5.74125e-19)
(0.00478708 0.0413374 -1.1825e-19)
(0.00899569 0.0472507 3.59233e-19)
(0.0110645 0.0399645 -1.28283e-19)
(-2.24571e-05 -9.26992e-06 -9.46548e-20)
(0.00292055 -0.00205366 -7.46422e-19)
(0.00287356 -0.0023537 -7.15365e-19)
(0.00320826 -0.00228846 -9.16299e-20)
(0.0142972 -0.0217003 -4.01875e-19)
(0.0140447 -0.0237205 -3.07752e-19)
(0.0160211 -0.0223673 -6.03496e-20)
(-4.90136e-06 3.7412e-07 9.43748e-20)
(-6.10468e-06 -9.26774e-07 1.91217e-19)
(-2.19453e-05 -5.50241e-07 6.64005e-20)
(-7.25164e-05 -1.16891e-05 6.73917e-20)
(-8.80164e-05 -6.29407e-06 -1.64014e-19)
(-8.29514e-05 -7.91651e-06 3.98454e-20)
(0.00363483 -0.0179951 1.37275e-18)
(0.00262839 -0.0170954 1.32362e-18)
(0.00236677 -0.0185604 1.51428e-19)
(-6.68364e-05 4.47267e-05 -2.65996e-20)
(-6.6412e-05 5.11604e-05 -1.70667e-19)
(-6.43622e-05 4.49329e-05 -7.78155e-20)
(0.00488872 -0.0173226 5.50462e-19)
(0.00492097 -0.0188111 1.1753e-18)
(0.0289594 0.0660588 -1.95891e-18)
(0.0378736 0.00473303 3.02926e-18)
(0.0734488 0.0289713 3.49566e-19)
(0.0690133 0.0288648 4.26939e-19)
(0.0717491 0.0248208 3.18003e-19)
(-0.0020153 0.0408542 -4.97031e-20)
(-0.000198328 0.0350819 -6.67493e-19)
(0.000560183 -5.89487e-05 -2.71252e-19)
(0.000690556 -4.04275e-05 1.18849e-19)
(-0.0433218 -0.151297 -1.56116e-18)
(-0.0587392 -0.122986 -1.77288e-18)
(-0.0381248 -0.139981 4.93979e-19)
(0.000790471 -0.0017538 3.30305e-19)
(0.00112999 -0.00189972 -2.05213e-19)
(0.000753287 -0.00221839 -3.39071e-19)
(-5.72003e-05 -5.00112e-06 7.97305e-20)
(-5.68903e-05 -1.60844e-05 -6.5382e-20)
(-5.7642e-05 -8.88877e-07 -1.41569e-19)
(0.000460084 -0.00159299 6.42238e-19)
(0.000763462 -0.00138899 5.25546e-19)
(-0.0391886 -0.0244211 -1.26506e-20)
(-0.0410786 -0.0276714 8.17708e-19)
(-0.036804 -0.0267783 -6.38314e-20)
(8.36254e-05 -0.000202978 5.34413e-19)
(9.32437e-05 -0.000226657 -7.64023e-19)
(0.000135005 -0.000216791 -5.2583e-19)
(0.0140731 -0.0200111 -2.28391e-19)
(0.0122027 -0.0212549 1.10462e-18)
(3.27977e-05 -8.29931e-05 -1.40526e-19)
(5.69234e-05 -8.66662e-05 2.19187e-20)
(0.000507929 -1.47136e-05 -2.96136e-19)
(0.000465548 -9.16323e-05 -2.33349e-19)
(-7.45746e-05 -4.14383e-05 8.58217e-21)
(-7.61632e-05 -4.56193e-05 1.24937e-20)
(-7.96086e-05 -3.93835e-05 -1.8286e-20)
(0.00184274 -0.00197356 3.55817e-19)
(0.00209978 -0.00195189 9.68942e-19)
(0.00188921 -0.00174974 -4.1013e-19)
(-9.97317e-06 7.66211e-05 -1.44355e-19)
(-1.1547e-05 8.34643e-05 1.77448e-19)
(0.034542 0.00660772 -2.87039e-19)
(0.0314224 0.00627189 4.65612e-20)
(-0.0280661 -0.179326 -9.60641e-20)
(-0.0496699 -0.164392 -3.18162e-19)
(-0.00316466 -0.010285 -3.73853e-18)
(-0.00298135 -0.0110068 1.36723e-18)
(-0.00386388 -0.0106805 -1.62575e-18)
(-3.51545e-05 -3.55052e-06 -4.58351e-19)
(-3.61511e-05 -1.43415e-05 8.9771e-20)
(-3.83148e-05 -1.741e-05 1.09331e-20)
(-3.83271e-05 9.69907e-07 1.3457e-19)
(-3.8812e-05 3.27728e-06 -2.35098e-19)
(-3.21765e-05 5.37193e-06 7.83401e-20)
(-3.42901e-05 2.11924e-06 2.78398e-20)
(-2.92239e-05 4.60478e-06 -7.34619e-20)
(0.00715163 0.0102532 2.81814e-19)
(0.00827157 0.0104962 -4.29277e-19)
(0.00746916 0.0091205 -3.57826e-20)
(0.00294438 -0.00174126 8.47259e-19)
(0.00265382 -0.00183972 3.69286e-20)
(-0.0286971 0.0885609 1.98522e-19)
(-0.0276255 0.085389 -2.91768e-18)
(-0.0249906 0.0863514 5.22392e-18)
(0.00701039 0.00287586 6.21355e-20)
(0.006726 0.00228063 4.41787e-20)
(0.00630883 0.00283166 -5.86137e-20)
(2.06782e-05 -0.00010057 1.40034e-19)
(8.56603e-06 -8.02166e-05 6.57325e-20)
(0.0228736 0.041252 -7.41173e-19)
(0.0303171 0.0422948 1.38337e-19)
(0.00127815 -0.00066715 1.69317e-18)
(0.00141993 -0.000603641 4.19734e-19)
(0.00125429 -0.000520811 -2.69744e-19)
(0.000987831 -0.0019074 -2.04987e-18)
(0.000953856 -0.00210926 9.06561e-20)
(-0.0559803 -0.011507 -6.03412e-19)
(-0.0529485 -0.00264386 -1.39832e-18)
(-0.0926373 0.0562933 -3.38784e-18)
(-0.0983583 0.0603507 -2.52485e-18)
(0.0412694 0.100584 1.80339e-18)
(0.00431368 -0.0222082 -2.36918e-19)
(0.00561994 -0.023488 -2.35032e-19)
(0.00358773 -0.0242082 1.87344e-18)
(0.0202174 0.0469468 -6.07e-20)
(0.0176767 0.0397396 1.57397e-18)
(-0.0078557 0.0739388 3.53201e-18)
(-0.0064916 0.0760065 4.46811e-18)
(-0.00916701 0.0757226 1.10363e-17)
(-0.00129232 0.000878771 -4.84892e-20)
(-0.000156602 -1.24815e-05 -1.44308e-20)
(-0.000159576 -8.37656e-06 2.40909e-19)
(0.153106 -0.111433 -2.34753e-18)
(0.147529 -0.115854 2.25353e-18)
(-0.00012708 -0.000164149 1.90412e-19)
(-0.00010657 -0.000175546 -1.34906e-18)
(-0.000103789 -0.000170219 -5.91363e-19)
(-5.84791e-05 5.68207e-06 9.51448e-21)
(-5.83073e-05 -8.12378e-06 1.1082e-19)
(0.0859539 0.0576032 7.56977e-19)
(0.0893486 0.0521927 3.16523e-19)
(-0.00021465 -6.37477e-05 1.53759e-19)
(-0.000209704 -6.01466e-05 -4.96959e-19)
(-0.000210711 -7.31246e-05 -9.04605e-20)
(-0.0425726 -0.000818301 -2.20028e-18)
(-0.0440366 0.00140254 -3.77307e-18)
(-0.0451282 -0.0016041 2.23705e-18)
(0.0450691 -0.035982 -3.31072e-19)
(0.0419111 -0.0364158 -5.633e-19)
(0.0445634 -0.0399252 -6.83851e-19)
(-6.63485e-05 5.57089e-05 -3.61954e-20)
(-6.87506e-05 5.53682e-05 3.80774e-20)
(-6.88609e-05 5.37968e-05 -7.3534e-20)
(-0.10943 -0.0490235 1.79091e-18)
(-0.101876 -0.0434155 4.7911e-19)
(-0.0621631 -0.0521024 -4.91731e-19)
(-0.066056 -0.0377057 2.3693e-19)
(-0.0686223 -0.0510755 1.46965e-20)
(-0.000136599 -3.63723e-06 -7.27463e-20)
(-0.000134399 -7.27593e-06 -4.26213e-19)
(-0.000136477 -1.07875e-06 -2.6369e-19)
(0.0779531 0.0282912 4.15279e-19)
(0.0753494 0.0321459 1.68535e-19)
(-0.00225574 -0.00309729 -7.59197e-19)
(-0.00231989 -0.00287066 -3.56494e-19)
(-0.00248495 -0.00310491 -1.76753e-18)
(0.00537463 0.0175417 1.50821e-19)
(0.00236098 0.0173592 5.60975e-19)
(0.00335866 0.0207592 -3.35419e-19)
(-7.36638e-05 -0.000155219 2.82033e-20)
(-7.57139e-05 -0.000151339 -1.84828e-20)
(-7.24864e-05 -0.000144217 2.30377e-21)
(0.129609 0.122185 1.70317e-19)
(0.121338 0.106657 2.23788e-18)
(0.0457793 -0.0316866 9.24038e-20)
(0.0492604 -0.03522 5.22216e-19)
(-0.000170009 1.02858e-05 1.19707e-18)
(-0.000172171 1.39662e-05 -1.70668e-19)
(-0.000175572 1.10435e-05 8.22375e-19)
(0.0624336 0.0900492 1.24384e-18)
(0.0805073 0.0886432 2.2546e-19)
(0.0291084 0.0945163 -6.61545e-18)
(-0.000156117 -0.000100322 -9.73635e-21)
(-0.000147002 -8.78709e-05 1.7809e-21)
(-0.000144312 -0.000106009 8.91198e-21)
(0.0068356 0.0115946 -1.26273e-19)
(0.00601862 0.0102048 3.12082e-19)
(-0.0383989 0.0623777 1.76447e-18)
(-0.0360322 0.0706003 -5.76375e-20)
(-0.0317166 0.0730693 -4.06507e-19)
(-0.000160147 -2.57812e-05 -3.58909e-21)
(-0.000155836 -3.89345e-05 -6.96987e-20)
(0.000782968 -0.00185683 -1.47854e-18)
(0.000966746 -0.00174678 -1.50549e-18)
(-0.00155809 0.00076649 1.12128e-19)
(-0.00126144 0.000791646 1.09486e-19)
(-0.00133374 0.000543484 -4.16934e-20)
(-0.00362183 0.00698635 3.21389e-19)
(-0.0025702 0.00791193 -7.06701e-20)
(-0.00243522 0.00643986 -2.07647e-19)
(-3.83893e-05 -7.06909e-05 -1.61452e-19)
(-3.89705e-05 -6.61135e-05 -5.12408e-19)
(-3.71433e-05 1.67815e-05 -3.98258e-19)
(-3.81467e-05 1.77411e-05 2.1607e-19)
(-3.59048e-05 1.85482e-05 -3.22818e-19)
(-0.00015424 -1.72735e-05 -2.85786e-19)
(-0.000153398 -1.08678e-05 -3.45937e-20)
(-3.92849e-06 1.63399e-08 -8.28416e-19)
(-1.42422e-06 -8.63428e-07 4.43296e-19)
(-7.78445e-05 -0.0001648 4.2947e-20)
(-7.24623e-05 -0.000159758 4.75513e-20)
(-3.54497e-05 1.41768e-05 -1.17426e-19)
(-3.97491e-05 1.34077e-05 -8.93732e-20)
(-0.00339916 0.00349198 -1.68478e-19)
(-0.0039369 0.00351855 -3.28118e-19)
(-0.00363548 0.00406652 3.67598e-20)
(-0.000218517 -5.26816e-05 -9.82088e-20)
(-0.000218885 -6.6656e-05 1.35411e-18)
(-3.21798e-05 1.00882e-05 1.60709e-19)
(-3.43672e-05 7.21747e-06 6.13225e-20)
(-0.000903186 0.0118385 3.47743e-19)
(0.000950996 0.0124018 -7.18384e-20)
(0.000383391 0.0104259 7.63368e-20)
(-0.00586144 0.00333895 -1.78961e-19)
(-0.00659106 0.00313068 -2.31185e-19)
(-0.00636365 0.00403532 -1.45712e-19)
(-0.0403567 -0.00967236 -3.98956e-18)
(-0.048152 -0.00746035 1.97201e-18)
(-0.0422236 -0.00175462 -1.68724e-19)
(0.0490983 0.0876901 -5.29566e-18)
(0.113787 0.0842153 5.06816e-19)
(0.185114 -0.0600696 1.03682e-18)
(0.191973 -0.0502418 -3.59622e-18)
(0.181889 -0.0451763 -2.93563e-18)
(0.1508 -0.017221 -4.11636e-20)
(0.137692 -0.0124032 -1.37024e-18)
(0.146474 -0.0278344 4.68604e-19)
(-0.00217818 -0.00341893 2.0194e-18)
(-0.00198609 -0.0031451 8.99695e-19)
(-5.82249e-05 2.15917e-06 -5.60856e-21)
(-5.7213e-05 3.06644e-06 -1.55594e-19)
(-5.3404e-05 1.2738e-06 -1.47135e-19)
(-0.0397801 4.74534e-05 -7.67413e-19)
(-0.040606 -0.00263711 -3.90631e-21)
(-2.72665e-05 4.4877e-06 4.4088e-20)
(-2.39751e-05 4.8037e-06 1.95898e-19)
(-3.40864e-05 1.31508e-06 1.92071e-19)
(-0.0901605 0.136214 2.34284e-18)
(-0.0894242 0.156768 -5.74593e-19)
(-4.85281e-05 4.58642e-06 -1.05741e-19)
(-5.13733e-05 5.18606e-06 -3.10674e-20)
(-5.24567e-05 2.10889e-06 4.23967e-20)
(-0.000169504 7.72146e-06 -2.06955e-19)
(-0.000172956 7.61857e-06 4.27329e-19)
(-3.48921e-05 4.51831e-06 -2.09071e-20)
(-3.53021e-05 7.66103e-06 1.05404e-19)
(-8.58599e-05 -7.47116e-05 8.18932e-21)
(-8.15116e-05 -7.9186e-05 1.04597e-21)
(-8.7494e-05 -7.92302e-05 2.54989e-21)
(-0.0014161 3.43495e-05 6.18483e-19)
(-0.00150975 5.72535e-05 -3.80913e-18)
(-0.00147855 -2.86312e-05 7.53294e-19)
(0.00739516 -0.00372929 1.38429e-20)
(0.00684201 -0.00410492 -5.55669e-19)
(0.00758148 -0.00439321 -9.25783e-19)
(-1.58594e-05 -4.17733e-06 -6.35706e-20)
(-1.31241e-05 -3.45503e-06 9.69815e-20)
(-2.96005e-05 -1.47391e-06 -2.89506e-19)
(-0.0335684 -0.0103564 -2.34378e-19)
(-0.0370689 -0.0170937 2.63196e-19)
(-3.61817e-06 -0.000249528 2.15242e-19)
(2.35301e-06 -0.000231939 2.88367e-19)
(-3.91826e-05 -0.000225806 6.93942e-20)
(-0.000159978 -2.28556e-05 3.37987e-19)
(-0.000161106 -1.64923e-05 2.51174e-19)
(-0.000162245 -1.1992e-05 -5.0532e-19)
(-0.0260438 -0.000789378 -3.43164e-19)
(-0.0217738 -0.00192944 4.11094e-19)
(-0.0226835 0.00218029 1.74417e-19)
(0.000440093 3.38125e-05 8.47384e-20)
(0.000537055 7.65577e-05 9.54244e-20)
(-3.90207e-05 1.02545e-06 -2.1082e-19)
(-4.16194e-05 -8.46442e-07 -1.10696e-19)
(-4.15049e-05 2.44245e-06 -2.38355e-19)
(0.00600192 -0.0164455 1.85348e-19)
(0.00732963 -0.017032 -2.10548e-19)
(0.00707645 -0.0155676 -1.42822e-18)
(-0.00017973 8.6449e-05 -5.38831e-19)
(-0.00017415 9.0098e-05 -1.76187e-18)
(-0.0001786 7.98236e-05 -6.94064e-19)
(-0.000948091 0.00129068 2.23618e-19)
(-0.000642458 0.00118058 1.19874e-19)
(-0.00612609 0.0719921 -3.85611e-18)
(-0.00883603 0.0716404 -1.15069e-18)
(-0.0383227 -0.0214381 1.08058e-18)
(-0.0418057 -0.0224702 -6.26796e-19)
(-2.38449e-05 4.39792e-06 -3.13684e-19)
(-2.67441e-05 4.913e-07 1.70769e-19)
(-2.48644e-05 1.77152e-05 1.72404e-19)
(-6.77698e-06 8.30819e-05 2.60291e-20)
(-1.20647e-05 6.5685e-05 1.68234e-19)
(-3.01716e-06 7.2607e-05 6.38475e-20)
(-0.000126992 4.21481e-05 -7.23887e-20)
(-0.000122089 3.45832e-05 -1.60315e-19)
(-0.00011702 4.64562e-05 5.14322e-19)
(-0.0370778 0.0923111 5.61257e-19)
(-0.0376648 0.0883101 9.68766e-19)
(-0.0423413 0.0947454 -6.26741e-19)
(-1.2935e-05 -1.54928e-06 4.62183e-21)
(-1.31363e-05 1.87577e-06 3.27875e-19)
(0.0444639 -0.208577 8.69179e-18)
(0.132101 -0.128099 -1.4846e-18)
(0.106229 -0.146784 -5.45584e-18)
(-2.83245e-05 -1.53994e-05 3.48563e-19)
(-2.64971e-05 -2.98156e-05 1.71893e-19)
(0.129118 0.0114179 2.47057e-18)
(0.12186 0.0141457 -3.31012e-19)
(0.000364695 5.3925e-05 4.04498e-19)
(0.000365501 -1.53653e-05 4.62414e-21)
(-0.0035999 -0.000982797 4.28783e-20)
(-0.00377492 -0.000624829 -6.08951e-20)
(-0.00337943 -0.000617285 1.112e-19)
(-0.00273984 0.00865505 -6.58506e-19)
(-0.00294024 0.00786125 1.37093e-19)
(-2.85331e-05 -6.13924e-06 1.36495e-19)
(-2.98511e-05 -7.09048e-06 -3.52678e-20)
(-2.47089e-05 -9.11966e-06 -8.59298e-20)
(0.165383 -0.0711193 5.28342e-18)
(0.180692 -0.0900941 5.12803e-18)
(-0.000201755 -0.000104734 -6.28982e-19)
(-0.000216037 -8.53533e-05 3.44186e-19)
(-0.00021373 -9.3242e-05 6.02354e-19)
(0.156888 0.00172449 1.38093e-19)
(0.151068 -0.0042082 9.2153e-19)
(-0.000159543 -3.68508e-05 9.25254e-20)
(-0.000160765 -3.358e-05 7.95955e-20)
(6.8989e-05 0.000101845 -1.18749e-19)
(4.73182e-05 8.25525e-05 3.3306e-20)
(4.45754e-05 8.64377e-05 -3.13169e-20)
(-0.000669611 0.00122693 3.09718e-19)
(-0.000420161 0.00111701 2.40149e-19)
(-0.000624861 0.000971757 -2.63541e-19)
(-0.000158469 -6.15483e-05 -9.16338e-20)
(-0.00017143 -7.62129e-05 3.08746e-20)
(-0.00017656 -5.32589e-05 8.55422e-19)
(-0.0171288 0.0377409 1.92229e-20)
(-0.0160574 0.0430072 4.70808e-19)
(-0.01236 0.0402097 -1.09843e-18)
(-0.00294332 5.09446e-05 -7.76383e-20)
(-0.00334004 -0.000386921 -3.61315e-19)
(-0.00349496 0.000253698 3.00779e-20)
(-0.00255337 0.000314177 -3.96427e-19)
(-0.00242512 -0.000144055 2.34351e-19)
(-0.000168791 -8.84128e-05 -1.16147e-21)
(-0.000167979 -0.000112403 -8.24289e-22)
(-0.100433 0.0812928 -2.96975e-18)
(-0.0867498 0.11064 -1.06788e-19)
(0.00787302 -0.00313174 6.35972e-19)
(0.00718729 -0.00302137 -7.24813e-21)
(-0.00388844 -0.000853018 -1.3513e-18)
(-0.00364881 -0.000836857 -3.75368e-18)
(-0.00377132 -0.00104831 -2.90274e-18)
(-0.00018438 -0.000120105 -1.41027e-18)
(-0.000168852 -0.000134068 -8.91006e-19)
(-0.000177522 -0.000127359 1.02318e-19)
(-9.05643e-05 -0.000183234 -4.06429e-21)
(-8.4303e-05 -0.00018538 -1.25073e-20)
(-8.99971e-05 -0.000190805 -1.06163e-20)
(-0.00342847 -0.00949142 3.15507e-19)
(-0.0025583 -0.00979498 -1.21128e-18)
(-1.22091e-05 0.000129069 -1.81e-19)
(-1.81488e-05 0.000124538 -1.32537e-19)
(-2.02195e-05 0.000124402 -1.83535e-20)
(0.000475866 -0.0163688 -1.99019e-19)
(0.0016182 -0.0161078 1.08705e-19)
(0.000822298 -0.0151165 5.07587e-19)
(0.00379739 0.00650323 2.00358e-19)
(0.00323348 0.00766547 -5.55944e-19)
(0.00246534 0.00644846 4.27633e-19)
(-0.0199942 -0.0151955 1.08102e-18)
(-0.0251894 -0.0174932 2.98524e-21)
(-0.0188968 -0.0192997 -4.35686e-19)
(-0.00299096 -0.00298629 -3.46459e-19)
(-0.00290502 -0.00230633 -1.76177e-19)
(-0.00367776 -0.00275761 -5.75361e-20)
(-6.51392e-06 0.000129453 1.86929e-20)
(-3.54608e-06 0.000126701 -8.12839e-20)
(-1.05556e-05 0.000125985 3.89786e-19)
(-0.0586437 -0.0668826 -3.44949e-19)
(-0.0579968 -0.0526531 2.87677e-19)
(0.07576 -0.0814269 1.7346e-18)
(0.0842605 -0.0814859 -1.83806e-18)
(0.0816949 -0.0716614 -7.6349e-20)
(0.014519 0.00234591 4.49917e-20)
(0.0151791 0.00348118 -2.34205e-20)
(0.0137131 0.00343566 -3.09016e-20)
(-0.0010057 -0.000627147 3.52945e-21)
(-0.000828337 -0.000521939 -1.17523e-19)
(-0.000831119 -0.000696193 1.94058e-19)
(0.00180472 -0.00220456 -1.45778e-18)
(-0.0536765 0.00738396 -7.82797e-19)
(-0.0518575 -0.0049605 2.72438e-19)
(-0.0579385 -0.00276134 3.52213e-19)
(-1.81482e-06 0.000131952 4.91623e-20)
(-0.00274077 0.011259 5.81371e-19)
(-0.002883 0.013444 -7.28304e-19)
(-0.015805 -0.0134141 1.37039e-18)
(-0.0204893 -0.0114819 5.66014e-19)
(-0.000790979 0.000107576 8.00857e-20)
(-0.000777763 0.000149655 -2.74081e-18)
(-0.000744877 0.000117968 -1.19981e-18)
(-0.00365977 0.0725854 3.75513e-18)
(-0.0033075 0.000917615 1.19611e-18)
(-0.00336489 0.0010765 1.06174e-18)
(-0.00318259 0.001015 8.83312e-19)
(-0.00221013 0.000533714 -5.34899e-20)
(-0.00255994 0.000828603 -3.34484e-19)
(-1.9524e-05 -2.02022e-05 1.74545e-19)
(-2.19276e-05 -7.4379e-06 -2.30571e-19)
(-2.31893e-05 -2.70256e-05 8.50653e-20)
(-0.00133765 1.28179e-05 -9.07704e-19)
(-0.00136417 8.75011e-05 3.85374e-18)
(-0.00185773 0.000663072 6.69023e-19)
(-0.00185864 0.000309435 1.64038e-19)
(0.0138984 0.00134962 -4.30112e-20)
(0.0131667 0.000402974 2.63894e-19)
(0.0125243 0.00142279 -2.23083e-20)
(-0.0001945 -0.000113236 6.6361e-19)
(-0.000213318 -6.75398e-05 -8.02322e-19)
(-0.000215906 -5.55607e-05 -2.93015e-19)
(-0.000210893 -6.72614e-05 -5.05925e-19)
(-0.000124047 -0.000142894 9.42338e-20)
(-0.000117488 -0.00015115 8.57224e-20)
(-0.000119499 -0.000144511 -7.60805e-21)
(-0.0176885 0.0330679 -4.07591e-19)
(-0.0213075 0.0343559 2.46947e-18)
(-0.0140927 0.0502372 1.01002e-18)
(-0.0128172 0.0568304 2.45369e-19)
(-0.00645108 0.0507267 6.02095e-19)
(3.66485e-05 7.15547e-05 1.51339e-19)
(5.09324e-05 0.000124395 3.09626e-19)
(-1.93182e-05 0.000110119 1.44116e-19)
(-0.00110037 -0.00196764 3.8299e-19)
(-0.00150429 -0.00190976 8.75248e-20)
(-0.0200145 0.0463797 2.57806e-18)
(-0.0597424 0.0477761 3.27861e-19)
(-0.0586745 0.0515467 2.30552e-19)
(-0.0561491 0.0487039 -2.10315e-19)
(0.00508577 0.00636572 2.98256e-19)
(0.00404433 0.00533006 -2.80447e-19)
(-8.35994e-05 -7.07776e-05 -1.21786e-21)
(-8.88598e-05 -6.80614e-05 1.69743e-21)
(-3.39501e-05 0.0122659 -3.83315e-19)
(-0.00230665 0.0138409 4.49493e-19)
(-0.00158257 0.0109585 -7.6288e-20)
(-0.00344963 0.000832958 3.04151e-19)
(-0.00327424 0.00077428 -9.10881e-19)
(-0.000167289 -9.26951e-06 -1.00761e-18)
(-0.000169297 -3.97841e-06 9.73663e-19)
(-0.000161767 -7.42097e-06 1.10875e-18)
(-0.00223726 -0.00317645 -1.90895e-20)
(-0.00280115 -0.00380673 -1.31084e-19)
(-6.42478e-05 4.96764e-05 -6.32766e-20)
(-6.35794e-05 4.90077e-05 1.74648e-20)
(-6.27218e-05 4.82214e-05 2.70541e-20)
(-0.0387353 0.0545969 -6.67411e-19)
(-0.0430033 0.0466843 2.34762e-19)
(0.0231937 -0.00746242 -6.5156e-20)
(0.0263826 -0.00455602 3.96656e-19)
(0.0265474 -0.00946143 -5.63554e-20)
(-0.0357095 -0.0198503 -1.16466e-18)
(-0.0341946 -0.0178596 -1.31193e-18)
(-0.0334063 -0.0206456 -1.20454e-18)
(-0.00655594 0.00228502 2.44185e-18)
(-0.00686811 0.00230802 -8.25753e-19)
(-0.00664829 0.00259506 1.0363e-17)
(-0.0024638 0.00952241 -9.8804e-20)
(-0.00357781 0.00911174 9.00862e-20)
(-0.0136896 0.012786 -1.78825e-19)
(-0.0122516 0.0153409 1.73524e-19)
(-0.011182 0.0127221 -1.50115e-19)
(0.00743954 0.0125453 -2.32398e-19)
(0.00646096 0.0148161 2.12659e-19)
(0.00513808 0.0125739 7.50988e-21)
(-0.0425593 -0.0306709 8.97081e-19)
(-0.0402121 -0.0337554 -1.93848e-19)
(-0.0448763 -0.0346313 6.26281e-20)
(-6.66328e-05 5.11098e-05 -6.02547e-20)
(-6.44351e-05 5.25265e-05 -3.22494e-20)
(-0.000216669 -6.61787e-05 4.43016e-19)
(-0.000183209 0.00155682 -1.88921e-21)
(-0.000516163 0.00171493 -2.54244e-19)
(-0.000425921 0.00137349 3.88038e-19)
(-3.88374e-05 -3.72149e-05 -2.65119e-19)
(-3.6635e-05 -2.3539e-05 1.23502e-19)
(-3.75762e-05 -3.34227e-05 -1.45273e-19)
(-0.00334923 -0.00130405 -1.19306e-19)
(-0.00377707 -0.00137699 4.92008e-20)
(-0.00409545 -0.000830363 9.6269e-19)
(-0.00394501 -0.000671158 -3.24577e-18)
(-0.000141578 -7.16478e-05 -1.61573e-19)
(-0.00014551 -6.40987e-05 -7.53108e-20)
(-0.000146181 -6.04046e-05 -4.58172e-20)
(-0.000138809 -0.000109441 -2.23569e-19)
(-0.000144748 -0.000122531 -3.45307e-19)
(-0.000125804 -0.000116292 -5.60185e-19)
(-0.0132822 -0.010249 -4.28819e-19)
(-0.0130753 -0.00843282 -1.58364e-19)
(-0.0111461 -0.00986623 8.03086e-19)
(-6.42815e-05 5.35931e-05 -6.31859e-20)
(-6.40394e-05 5.68611e-05 -6.91792e-21)
(0.0188448 -0.0453622 1.00989e-18)
(0.0183166 -0.0491081 1.26205e-20)
(0.0219219 -0.0471211 -4.90466e-19)
(-0.0717976 0.0181137 -1.67637e-18)
(-0.052586 0.0213682 4.59854e-18)
(-0.0125774 -0.00659786 -2.82407e-19)
(-0.0117767 -0.0051437 1.19628e-19)
(-0.0105769 -0.00662907 4.42659e-19)
(-0.000137997 -7.09319e-05 -1.01083e-19)
(-0.000143992 -4.51918e-05 -9.7474e-19)
(0.00746904 0.004312 1.53218e-20)
(0.00724049 0.00351248 1.33572e-19)
(0.00670471 0.00421023 2.60345e-19)
(-3.96931e-05 -4.04048e-05 -7.63834e-20)
(-4.05521e-05 -4.9029e-05 -3.94485e-19)
(3.19094e-05 -0.0174697 -5.01947e-19)
(-0.000517313 -0.0188801 4.53591e-19)
(0.000907128 -0.018825 -1.54458e-18)
(-0.000249048 -3.25284e-05 7.72779e-19)
(-0.000236169 -4.98966e-05 2.15925e-18)
(-0.000245934 -2.26786e-05 -2.18977e-19)
(0.00866729 -0.00298336 3.23365e-19)
(0.00962 -0.00287263 -5.95088e-20)
(0.00916365 -0.00372661 1.48796e-19)
(-0.000154166 1.98826e-05 8.47302e-20)
(-0.0001488 1.48975e-05 1.27895e-19)
(0.0081999 -0.00245882 3.68886e-19)
(-0.0145056 0.0765397 -6.73026e-20)
(-0.0130749 0.10305 1.25256e-18)
(9.22255e-05 0.000110294 -1.42602e-19)
(8.49355e-05 0.000104453 -3.79218e-19)
(-0.0191817 -0.000725803 -5.16954e-18)
(-0.0184489 -0.00011977 -2.81422e-19)
(-0.0195486 0.00038191 5.76971e-19)
(0.000893724 -0.00083294 -9.77466e-19)
(0.00101967 -0.000911554 2.02832e-18)
(0.00100344 -0.000773345 7.16984e-19)
(0.000164796 -0.00357916 -2.66761e-19)
(0.000676822 -0.00403139 1.96236e-20)
(-7.16258e-05 -0.0043763 3.85109e-19)
(0.00990825 0.0122906 5.65733e-19)
(0.00804512 0.0103583 2.41223e-19)
(-5.43869e-05 -1.39195e-05 9.43248e-20)
(-4.97042e-05 -1.43081e-05 2.46499e-20)
(-2.75569e-06 9.82834e-05 3.83183e-19)
(-8.70551e-06 9.07142e-05 -1.13728e-19)
(0.015831 -0.043451 5.78024e-19)
(0.0191501 -0.0420586 1.11401e-18)
(-0.00013766 -9.17783e-05 1.57725e-18)
(-0.000152442 -0.000102048 2.93618e-19)
(0.00833385 0.0176858 -1.60291e-19)
(-0.00555011 -0.00201265 1.18961e-18)
(-0.00532451 -0.00175707 4.13291e-18)
(-0.00570338 -0.00166569 -1.19264e-18)
(-0.0310146 -0.397298 -9.02423e-18)
(-0.00490058 -0.0186217 2.89938e-19)
(-0.00419399 -0.0200432 2.97676e-19)
(-0.00344278 -0.0185658 -3.26305e-19)
(-0.038502 -0.018245 7.31362e-19)
(-0.00420457 0.000608777 -6.42659e-19)
(-0.00458038 0.00024836 -1.46452e-20)
(-0.00407154 0.000169476 -2.24018e-20)
(-0.0133197 -0.0124669 2.68684e-19)
(-0.0155309 -0.0105667 -8.90043e-19)
(0.000425473 -0.00029609 -7.39655e-20)
(0.000366439 -0.000248014 -1.35525e-19)