/*--------------------------------*- C++ -*----------------------------------*\
| =========                 |                                                 |
| \\      /  F ield         | OpenFOAM: The Open Source CFD Toolbox           |
|  \\    /   O peration     | Version:  v2012                                 |
|   \\  /    A nd           | Website:  www.openfoam.com                      |
|    \\/     M anipulation  |                                                 |
\*---------------------------------------------------------------------------*/
FoamFile
{
    version     2.0;
    format      ascii;
    class       volScalarField;
    location    "400";
    object      k;
}
// * * * * * * * * * * * * * * * * * * * * * * * * * * * * * * * * * * * * * //

dimensions      [0 2 -2 0 0 0 0];


internalField   nonuniform List<scalar> 
18355
(
0.0001831
0.000137043
0.000236286
0.000140916
0.00021448
0.00431079
0.000146527
0.000214539
0.000151476
0.00458649
0.000159542
0.000198215
0.000199989
0.00241357
0.000142781
0.000135407
0.000140901
0.000155351
0.000217259
0.000151749
0.000303151
0.000149321
0.000136926
0.00477403
0.000136999
0.000149704
0.000146855
0.000141038
0.000152122
0.000160996
0.00682478
0.000184708
0.000137622
0.000134267
0.000145556
0.000150782
0.000159246
0.000151125
0.000161895
0.000148653
0.000151335
0.000160681
0.000134432
0.000136861
0.000136959
0.00023597
0.000141237
0.000141109
0.00617316
0.000145107
0.000141767
0.000439646
0.000145454
0.000205342
0.000143157
0.000152207
0.000144891
0.00810575
0.000150344
0.000648477
0.00013437
0.000186098
0.000205302
0.000145091
0.000194109
0.00013992
0.000154972
0.000159376
0.000133948
0.00398377
0.000142527
0.000143193
0.000176949
0.000157196
0.0003349
0.000134125
0.00798744
0.000134229
0.00014221
0.000306218
0.000154903
0.000797821
0.000134053
0.000157325
0.000180285
0.000148334
0.000153444
0.000171746
0.00014052
0.000172138
0.00356562
0.000273112
0.000994753
0.000145075
0.00661673
0.000147932
0.00014007
0.000144962
0.000180513
0.00014896
0.000178373
0.000141863
0.000144726
0.000130574
0.000155487
0.000135514
0.000193938
0.00679982
0.000165331
0.000135038
0.000141842
0.000146368
0.000169444
0.000156818
0.000255017
0.000162552
0.000141581
0.000363943
0.000152923
0.000154485
0.00501411
0.000243295
0.0025064
0.000175956
0.000316765
0.000242435
0.000146814
0.000141256
0.000133944
0.000147813
0.000140147
0.00045407
0.00014353
0.000181143
0.000204366
0.000140568
0.00021728
0.00524747
0.000142382
0.000289261
0.000156947
0.000265029
0.000140996
0.000910561
0.000205621
0.000146622
0.00132777
0.000131451
0.00016919
0.00643626
0.000140961
0.000154321
0.000145483
0.0001797
0.000134545
0.000138242
0.00014143
0.000148246
0.000141078
0.000139247
0.000156395
0.000143648
0.000135096
0.000207455
0.000158342
0.00269732
0.00214989
0.000230566
0.00424342
0.000156948
0.000145765
0.000179704
0.000147336
0.00499571
0.000145628
0.000150714
0.000145699
0.000130259
0.000151472
0.000163718
0.000148643
0.002266
0.00014867
0.000141312
0.000859008
0.00014463
0.000149312
0.000171861
0.000143319
0.000147577
0.000237955
0.000180101
0.000137301
0.000134704
0.000143823
0.00026225
0.000139127
0.00261727
0.000137137
0.00159602
0.000144354
0.000152151
0.000162311
0.000148424
0.000349961
0.000147008
0.00696873
0.00014128
0.000137098
0.000144836
0.000146977
0.00038476
0.00015363
0.000148947
0.000131626
0.00395462
0.000163845
0.000156428
0.000147225
0.000141388
0.000164408
0.00013393
0.000169826
0.00017778
0.000186562
0.000159955
0.000134115
0.00562762
0.000241852
0.000171713
0.000144881
0.000155515
0.00527145
0.000134085
0.000218594
0.000144081
0.000149224
0.000238875
0.000155341
0.000149194
0.000137368
0.000151224
0.000146895
0.000169769
0.000147022
0.000143153
0.000141016
0.00038257
0.00237275
0.000143197
0.000147712
0.00263121
0.00020742
0.000180674
0.000130288
0.00026663
0.00015537
0.000147519
0.000159217
0.000139666
0.0063502
0.000478679
0.000178282
0.000160841
0.000163377
0.000224868
0.00021148
0.000182748
0.000139618
0.000143198
0.000148751
0.000135108
0.000152114
0.000156662
0.000140693
0.000147025
0.000166585
0.000140417
0.000192706
0.00137943
0.000163124
0.000147222
0.00016385
0.000134992
0.00017162
0.000146332
0.000165288
0.000148736
0.000164184
0.00401889
0.000137353
0.00017011
0.000152497
0.000158773
0.000211028
0.000145096
0.000134514
0.000190717
0.000147008
0.000252637
0.000159187
0.0165271
0.000171466
0.000178841
0.0001535
0.000169203
0.000144607
0.000153993
0.000160385
0.000170082
0.00277502
0.00103421
0.000142338
0.000159193
0.000200105
0.000164936
0.000142262
0.000141045
0.000141013
0.000172953
0.00111042
0.0598825
0.00278365
0.00016602
0.000156361
0.00165125
0.000131328
0.00014677
0.000156317
0.000144244
0.000171831
0.000144887
0.00345862
0.000135802
0.00153991
0.000143553
0.000148454
0.000154195
0.00020341
0.000510684
0.000169903
0.0020281
0.000149281
0.000140642
0.000144129
0.000158365
0.00509392
0.00014088
0.0001454
0.00267725
0.000148959
0.000140992
0.000208214
0.000156211
0.000141017
0.000144334
0.000166542
0.00015202
0.000166443
0.000135437
0.000145345
0.000148738
0.000312565
0.000754695
0.000135146
0.000140794
0.000200797
0.000141079
0.000146908
0.00247285
0.000777242
0.000170317
0.000143974
0.000149444
0.000200457
0.000149444
0.000261067
0.000154116
0.000136545
0.000199786
0.000206306
0.000148249
0.000144201
0.000155509
0.000146281
0.000156051
0.000143772
0.000211963
0.000147037
0.000153729
0.00014222
0.000141073
0.000151682
0.000150088
0.000178785
0.0429665
0.00199773
0.000153391
0.000206915
0.000180096
0.000143769
0.000144492
0.000168859
0.000143335
0.000172753
0.000145735
0.000160855
0.00129788
0.000900261
0.000356739
0.000181005
0.000130716
0.0384238
0.000148963
0.000140626
0.000314269
0.000143113
0.000175921
0.00013726
0.000199867
0.00014308
0.000179343
0.00378679
0.000176544
0.00014422
0.000137542
0.000177141
0.000152929
0.000142838
0.00377358
0.000338622
0.000140564
0.000169368
0.000178711
0.000137463
0.000149933
0.000167935
0.00184318
0.00016943
0.000148956
0.000144909
0.000166327
0.000144559
0.000136025
0.000143703
0.000260174
0.0376669
0.000136337
0.000150424
0.000145198
0.000205323
0.000205681
0.000134674
0.0001762
0.000170023
0.000145292
0.000260323
0.000186017
0.000148884
0.000145994
0.000168584
0.000207212
0.0196646
0.000136127
0.0170801
0.000142895
0.00013633
0.000173441
0.000153304
0.00021547
0.000176853
0.000154079
0.000158249
0.000149347
0.00020671
0.000153412
0.000159609
0.00014923
0.0001359
0.00014803
0.000136094
0.000185364
0.0438478
0.000199494
0.000156255
0.000147157
0.000149229
0.000146408
0.000153676
0.000146184
0.000135444
0.000143728
0.000171629
0.000137482
0.000146009
0.0404269
0.00448484
0.000201114
0.000147633
0.000149887
0.000168094
0.00014914
0.0062955
7.80729e-05
0.000158144
0.00015761
0.000157596
0.000150681
0.000154507
0.0190112
0.000167264
0.000149663
0.00421886
0.000147021
0.000850566
0.0354076
0.000155944
0.000149616
0.0221518
0.000140759
0.000178166
0.000185922
0.00400275
0.000153421
0.000147881
0.000145182
0.0037588
0.0185282
0.00320335
0.000705568
0.000152651
0.000145042
0.000157309
0.000143209
0.000156591
0.000288747
0.00290902
0.049039
0.0142665
0.00017074
0.000181475
0.000171439
0.0001413
0.000142243
0.000173493
0.0001558
0.000146535
0.000143153
0.00238498
0.000139975
0.0146671
0.000161887
0.000182967
0.000202536
0.000142297
0.00015682
0.000804948
0.000143689
0.0583704
0.000143539
0.000257492
0.000167404
0.000149318
0.000171022
0.000182032
0.000182078
0.000149286
0.000133939
0.000165297
0.000156252
0.000182968
0.000143497
0.000186577
0.000139917
7.14205e-05
0.000146912
0.0001438
0.000223769
0.000173627
0.000176151
0.000144539
0.000158418
0.000155306
0.00316994
0.0602158
0.000155402
0.000207697
0.000145009
0.000163538
0.000148446
0.000155091
0.0451904
0.000136779
0.00211702
0.000146902
0.000145348
0.000155745
0.00618794
0.000152408
0.000198732
0.00014866
0.00016567
0.00545634
0.00013146
0.000141078
0.0104815
0.000171598
0.0436525
0.000177837
0.000147909
0.000143159
0.000142943
0.000157252
0.000149735
0.000136542
0.000221018
0.000502514
0.000143574
0.00125051
0.00149956
0.000157676
0.000237166
0.000136236
0.00025114
0.00288151
0.000132497
0.00612009
0.000167763
0.000488556
0.00331374
0.000143251
0.000142879
0.000147234
0.00145326
0.000172332
0.00014465
0.000149053
0.000219723
0.00014869
0.000168366
0.000143737
0.00016674
0.0567651
0.00285109
0.000236979
0.00226397
0.000173393
0.00647097
0.000157598
0.000140652
0.000161206
0.0032184
0.00017897
0.000171295
0.00014442
0.000240627
0.00014538
0.000148209
0.0594013
0.00014804
0.000162081
0.000202443
0.000194998
0.000144623
0.000142898
0.000155643
0.000159288
0.00013403
0.00014699
0.000173432
0.00020844
0.000153578
0.000145197
0.000174302
0.00482656
0.000143825
0.00162284
0.00025767
0.000145188
0.0217495
0.000134625
0.000245771
0.000143706
0.00013812
0.000223541
0.000153983
0.00251115
0.000153229
0.000142913
0.0264987
0.000143684
0.000134874
0.000145721
0.000140756
0.000162985
0.000170167
0.000288822
0.000150885
0.0563836
0.000153185
0.00130037
0.00153621
0.000150105
0.000144086
0.000158399
0.000136443
0.000193181
0.000142525
0.000134754
0.000135571
0.000144457
0.000143613
0.000252254
0.000157253
0.000171002
0.000151893
0.000158957
0.000155571
0.000167398
0.000435251
0.000137404
0.000185227
0.000176528
0.000134278
0.0021469
0.0557901
0.000141452
0.000641553
0.000145112
0.00497413
0.000165515
0.000132315
0.00016563
0.000160267
0.00097041
0.000142196
0.000154678
0.00246272
0.000207139
0.000238074
0.000143582
0.00381685
0.000183726
0.000251546
0.000143508
0.000152305
0.000142893
0.00014628
0.000142122
0.000144981
0.00013679
0.000820506
0.000166473
0.00014112
0.000134197
0.000140298
0.000148684
0.000202698
0.000183064
0.000137344
0.000159311
0.000146766
0.000146959
0.000145455
0.000140903
0.000230743
0.000134211
0.000140293
0.000148963
0.000147399
0.000152668
0.00014698
0.000245575
0.000272536
0.000155677
0.000140131
0.000205731
0.000134645
0.000134281
0.00014683
0.000246811
0.000156308
0.000145681
0.000135839
0.000137195
0.000158297
0.000133877
0.000159738
0.000142418
0.00014847
0.000142012
0.000152118
0.00106407
0.000140586
0.000149028
0.000143517
0.000225715
0.00432081
0.000158602
0.000149737
0.000179746
0.000162944
0.000229696
0.0116909
0.000148616
0.00283792
0.000149138
0.0110058
0.000150448
0.000136823
0.000135784
0.00502405
0.000135435
0.000158826
0.00021145
0.000212687
0.000180062
0.000153925
0.000142388
0.000143594
0.000143645
0.000160007
0.000188705
0.00344903
0.000170928
0.000145477
0.000133896
0.000155264
0.000141932
0.000141027
0.000148588
0.000171002
0.000161427
0.00230567
0.000145395
0.000144402
0.000173863
0.000143211
0.000207436
0.000171192
0.000174186
0.000201487
0.000541346
0.000164995
0.000141282
0.00013397
0.000147645
0.00014297
0.00319863
0.000172015
0.000192039
0.000136787
0.000147229
0.000154611
0.000141299
0.00909247
0.000254736
0.000134302
0.000135749
0.000142737
0.000142136
0.000140954
0.000144285
0.000233568
0.00013486
0.000149931
0.00013681
0.000137922
0.000142256
0.000146055
0.000158809
0.000137877
0.000173379
0.000135794
0.00128478
0.00023383
0.000154297
0.00274179
0.000153106
0.000148824
0.000179584
0.00261812
0.000144569
0.000140178
0.000137027
0.000173938
0.000150122
0.000164928
0.000730016
0.000146496
0.000149948
0.000144673
0.0127312
0.00195366
0.000150963
0.000139408
0.000156421
0.000171056
0.000142333
0.000181225
0.000140304
0.000133885
0.000155907
0.000269593
0.0012819
0.00458249
0.000235351
0.000134566
0.000237537
0.000207033
0.000158661
0.000143629
0.000207225
0.000158153
0.000214655
0.000275932
0.000141832
0.000134638
0.000144715
0.000149615
0.000134757
0.00247271
0.00364775
0.000134568
0.000146714
0.000149389
0.000166802
0.000144168
0.000141893
0.000219269
0.000148963
0.000142373
0.00343418
0.000185503
0.000183776
0.000142791
0.000135848
0.000134774
0.000147481
0.000167035
0.000181219
0.000140618
0.000139037
0.000152566
0.0035844
0.000137055
0.00014394
0.000181835
0.000141035
0.000139218
0.000143632
0.000480849
0.000135669
0.000144493
0.00013712
0.000154849
0.000135674
0.000158421
0.000204256
0.000143974
0.000219073
0.000162099
0.000223286
0.000175086
0.000140875
0.000160033
0.000140502
0.000139091
0.000140869
0.00418958
0.00439399
0.000214058
0.000159363
0.00259832
0.000180553
0.000150219
0.000187303
0.00021519
0.000154409
0.000135446
0.00119358
0.000150107
0.000140416
0.000137797
0.000270177
0.000474372
0.000618772
0.000138932
0.000188137
0.00312347
0.000170673
0.000168379
0.000156399
0.000154526
0.000164737
0.00398131
0.000152438
0.000150241
0.000158168
0.0314069
0.000249374
0.000144094
0.000146323
0.000143205
0.00194636
0.000153524
0.000148981
0.00201968
0.000158303
0.000176736
0.000156341
0.00622137
0.000138638
0.0113818
0.000149966
0.000135747
0.00014136
0.000135615
0.000135789
0.000140826
0.000148235
0.000190721
0.000138078
0.0128895
0.000158692
0.000147544
0.000140858
0.000184623
0.000143418
0.000146579
0.000155183
0.00770122
0.000202789
0.000153965
0.000146565
0.0339341
0.000138608
0.00017286
0.000146342
0.000462163
0.000169833
0.00449849
0.000159965
0.00014283
0.000259029
0.00373794
0.000257927
0.000137705
0.000143568
0.000166714
0.0459293
0.000130987
0.000172826
0.000142286
0.000159489
0.000140458
0.000134693
0.000149109
0.000150182
0.000135118
0.000177042
0.000174164
0.000160657
0.00020086
0.000947439
0.00015052
0.00291618
0.000136134
0.000193026
0.000388103
0.000211919
0.000134478
0.000148526
0.000146124
0.0189619
0.00014454
0.000140537
0.000186888
0.000146515
0.000146342
0.000151238
0.000149766
0.000142995
0.0381002
0.00417061
0.000177077
0.000139184
0.000145326
0.00023237
0.000136131
0.000274396
0.000147146
0.000145913
0.000149265
0.00015742
0.000231481
0.000140123
0.000145151
0.0179801
0.000147149
0.000148598
0.000166869
0.00294391
0.00356093
0.000144414
0.000143604
0.054888
0.00337119
0.000193708
0.000140537
0.000164479
0.000219136
0.000137625
0.000225233
0.000152504
0.0039111
0.000155171
0.000146099
0.00015085
0.000135528
0.0493278
0.000145026
0.00013896
0.00395575
0.000192331
0.0013305
0.000135107
0.000152253
0.00013543
0.000132051
0.000136046
0.000149728
0.000146658
0.000148912
0.000135545
0.000148466
0.000172389
0.0001608
0.000161515
0.000140218
0.000154696
0.000142042
0.00465554
0.000147364
0.000150237
0.000147134
0.000135802
0.000148708
0.000151443
0.000143991
0.00014337
0.00014129
0.000136092
0.00967863
0.000566936
0.000144574
0.0445263
0.000165558
0.000148584
0.00014781
0.000150388
0.00771661
0.000147563
0.000136094
0.000134515
0.000134484
0.000517135
0.000144618
0.00013682
0.000212977
0.000134007
0.000133305
0.000177879
0.000184926
0.0002163
0.000202817
0.0396955
0.000135953
0.00514542
0.000157713
0.000143154
0.00013684
0.000163861
0.000143194
0.00016416
0.000175704
0.000153118
0.000150464
0.0600499
0.000157028
0.0118633
0.00671499
0.00255087
0.000227564
0.000139111
1.86328e-05
0.000465125
0.000134995
0.00360092
0.000138918
0.000150986
0.000202663
0.00014041
0.000284909
0.000158732
0.000152887
0.000148842
0.000250612
0.000143891
0.0126682
0.000142883
0.00013607
0.00707869
0.000133588
0.000152871
0.000148612
0.000173816
0.000142256
0.000144047
0.000153317
0.00208615
0.000144282
0.00014456
0.000136633
0.000154908
0.000142384
0.00015098
0.00155738
0.000141494
0.000157523
0.000148177
0.000156897
0.000173711
0.000140453
0.000148961
0.000189935
0.000146961
0.000148305
0.000160646
0.00669461
0.000150769
0.000141762
0.000143965
0.000161024
0.000216632
0.000151294
0.000140991
0.0001414
0.000137742
0.000131885
0.000135467
0.000159413
0.000209997
0.000174429
0.000146801
0.00386894
0.000139642
0.00014508
0.0384219
0.000171591
0.000134071
0.000182435
0.000146897
0.000140976
0.00389456
0.000148521
0.000173215
0.000132439
0.00020597
0.000139436
0.00013466
0.000135924
0.00132707
0.000230077
0.000146773
0.000242195
0.000135752
0.00014216
0.000139053
0.000204006
0.000145089
0.000138513
0.000150216
0.000152465
0.000143001
0.000145835
0.000140582
0.000148186
0.000146694
0.000140371
0.000154354
0.00013515
0.000660632
0.00017799
0.000136374
0.000248003
0.00015793
0.000140824
0.000139867
0.000150411
0.000140674
0.000161034
0.000155783
0.000197078
0.000198644
0.000147676
0.000182548
0.000206513
0.00014306
0.00014766
0.000184847
0.000153021
0.00646613
0.000135552
0.000145065
0.000151746
0.000148202
0.000144352
0.000157235
0.000140519
0.000163244
0.000144075
0.000154006
0.000139559
0.000197682
0.000144766
0.000154598
0.000212534
0.000142984
0.00396491
0.00267187
0.000153307
0.000158406
0.000162557
0.000134259
0.000193396
0.000145619
0.000166027
0.00175225
0.000521861
0.000235897
0.000167745
0.00016244
0.000142988
0.000164927
0.000138767
0.0268516
0.000206726
0.000146767
0.000140798
0.00024414
0.000175554
0.000142834
0.000143219
0.000291307
0.000147619
0.000138425
0.00671931
0.000175248
0.000134878
0.000237088
0.000136061
0.000255299
0.000176018
0.000143037
0.000144323
0.000156008
0.000319107
0.000140237
0.00015889
0.000144299
0.000143059
0.00013982
0.00170886
0.000148364
0.000144939
0.000144191
0.000228598
0.000159263
0.000140417
0.000132845
0.000192138
0.000142216
0.000136905
0.000254158
0.0039563
0.000148915
0.000246737
0.000156343
0.00017259
0.000149571
0.000175851
0.00452847
0.000148702
0.000141738
0.000137039
0.000155808
0.000142816
0.00278458
0.000489154
0.000137443
0.000150728
0.000136378
0.000135491
0.0573143
0.000142909
0.000151629
0.00015236
0.000233601
0.000144533
0.000148026
0.000155817
0.00453699
0.000146449
0.000145058
0.000137322
0.000138353
0.000155266
0.000171678
0.000146983
0.00014218
0.000144942
0.000143282
0.000137062
0.0361938
0.000147973
0.000143604
0.000141931
0.000177179
0.000136522
0.000136922
0.000167259
0.000142283
0.000183466
0.000144341
0.00014451
0.0030571
0.0346991
0.000410098
0.00021484
0.000157935
0.000148205
0.0616575
0.000139735
0.000155749
0.000135125
0.00693979
0.000130416
0.000155713
0.000144628
0.00127549
0.000178269
0.000228063
0.0617222
0.000151625
0.000195592
0.000148146
0.000149484
0.0545242
0.000165213
0.000142125
0.000135998
0.000154422
0.00016371
0.000143992
0.000144989
0.000139723
0.000134851
0.000228591
0.00531426
0.000148207
0.000160669
0.00490533
0.000433447
0.000152944
0.000150925
0.000153064
0.000155007
0.000142341
0.000150838
0.000334973
0.000140311
0.000136261
0.000146336
0.000366101
0.000166683
0.000157645
0.000146838
0.000147274
0.000160332
0.000143742
0.000159589
0.000175201
0.000224172
0.000153144
0.000491238
0.000134678
0.000142867
0.000148448
0.000135286
0.000146949
0.000140083
0.000241685
0.00014094
0.00162988
0.000145489
0.000139067
0.000137586
0.000189563
0.000151379
0.000171
0.00018374
0.000135957
0.0553564
0.000158308
0.000137972
0.000133351
0.0042663
0.000309053
0.000133595
0.000140611
0.000140898
0.000150707
0.000213955
0.000227818
0.000150717
0.000149725
0.000203133
0.0620756
0.000149647
0.000142611
0.00328739
0.000154544
0.00183181
0.000153794
0.000142379
0.000176896
0.000177796
0.0350152
0.000185642
0.000470773
0.000136869
0.000142164
0.000148359
0.000146578
0.000154598
0.000148005
0.000146246
0.000139522
0.000148138
0.000146827
0.000151612
0.000145258
0.000152776
0.000149278
0.000143673
0.000141653
0.000173812
0.000162842
0.000140403
0.000145278
0.000223851
0.000145381
0.000149337
0.000148864
0.000604147
0.000136941
0.000167544
0.000152481
0.000135972
0.000143771
0.0516565
0.000219683
0.000149523
0.00015275
0.000154735
0.000170978
0.00014006
0.0001622
0.000180852
0.00014123
0.000188221
0.000141048
0.000143227
0.0001447
0.000148574
0.000160779
0.000156918
0.0526262
0.000173654
0.000136162
0.000144979
0.000143423
0.000209104
0.000149213
0.00148672
0.000139765
0.000143871
0.000143513
0.000181426
0.000142453
0.000146682
0.000144357
0.000202268
0.000137015
0.0411924
0.000137008
0.000165916
0.000144888
0.000161153
0.000140812
0.000154049
0.000401116
0.000220584
0.000136228
0.000180471
0.000145275
0.000145944
0.0439426
0.000621039
0.000136173
0.000142777
0.00015407
0.000135837
0.000144133
0.000148537
0.000147729
0.000158374
0.000174297
0.000150368
0.000158354
0.000218319
0.000147736
0.000140828
0.000142106
0.000155238
0.000161904
0.000144142
0.0430547
0.000140556
0.0625656
0.000167062
0.000136463
0.000140201
0.000139931
0.000118064
0.000146429
0.000153839
0.000146368
0.000141257
0.000974183
0.000152784
0.000169986
0.000147365
0.00014571
0.000151688
0.000143276
0.000152577
0.00014344
0.000153074
0.00014953
0.000148866
0.00819004
0.000170681
0.00434486
0.000140937
0.000176748
0.000151695
0.00346034
0.000180564
0.00645756
0.000150876
0.000134802
0.000169295
0.0001423
0.00508552
0.000149833
0.000188677
0.000151379
0.0539909
0.0376594
0.000154507
0.00016985
0.000139443
0.000137469
0.000148664
0.000134555
0.000148102
0.000153142
0.000139477
0.000163667
0.00020304
0.00267692
0.000140701
0.000279903
0.0001346
0.000142433
0.000143709
0.000189324
0.000148062
0.000247415
0.000148091
0.000143644
0.0456423
0.000140235
0.000153595
0.000142378
0.000156116
0.00638228
0.000166785
0.0290399
0.000147253
0.000180257
0.000152839
0.000141737
0.000143985
0.000208225
0.000165611
0.000143139
0.000151878
0.000143182
0.00888648
0.000139096
0.000611876
0.000296894
0.000180011
0.000158726
0.000226772
0.000186314
0.00013455
0.00459697
0.000142387
0.0111688
0.000148963
0.000152126
0.00421981
0.00450908
0.000161134
0.0147778
0.000143551
0.00227957
0.00013113
0.000391431
0.000135162
0.000158649
0.000189357
0.000146323
0.000139183
0.000149639
0.000144609
0.000173723
0.00334588
0.000168147
0.00204288
0.000141361
0.00277588
0.000144368
0.000146888
0.000142867
0.00014475
0.00555465
0.000147336
0.000138001
0.000166637
0.000148257
0.00453502
0.000199611
0.000143006
0.000203684
0.0001666
0.000140542
0.000144885
0.000155883
0.000136478
0.00017608
0.000162979
0.000151378
0.000151109
0.000137248
0.00014632
0.000176741
0.00014945
0.000145026
0.000150395
0.000134868
0.000135505
0.0241615
0.000162379
0.0518068
0.00015939
0.000174985
0.000159581
0.000142078
0.000166885
0.000138896
0.000140796
0.00131475
0.000165535
0.000176275
0.000173193
0.00014795
0.000244207
0.0109634
0.000143665
0.000163869
0.000192037
0.049316
0.000136331
0.000138106
0.000147701
0.000187616
0.00246567
0.000166804
0.000154398
0.000148556
0.00014203
0.00013537
0.00294327
0.000153971
0.000158795
0.00476415
0.00014683
0.000154166
0.000156806
0.00014506
0.000142832
0.000143314
0.000175738
0.000194097
0.000148826
0.000151683
0.000249565
0.000142271
0.000149434
0.000154548
0.000146885
0.00397147
0.00610799
0.000653716
0.000199511
0.00186423
0.000152833
0.000139813
0.000281009
0.000161037
0.000161805
0.000143361
0.000135298
0.00475532
0.000725379
0.000141408
0.000139629
0.000162768
0.000267094
0.000153628
0.000135189
0.0440824
0.000152618
0.000166405
0.000134927
0.000159788
0.000131145
0.000150774
0.000159995
0.000142037
0.0372201
0.000149318
0.000167889
0.000196938
0.00232903
0.000191701
0.000142203
0.000177934
0.000155365
0.000163489
0.000150574
0.000156081
0.000145501
0.000152739
0.00198431
0.000151996
0.00198036
0.000140058
0.000221441
0.000135893
0.000148992
0.000919662
0.000155771
0.000220406
0.000173469
0.000149704
0.0394172
0.0470831
0.000140056
0.0471398
0.000174119
0.000138874
0.000133909
0.000359079
0.0413533
0.000138868
0.000136073
0.000145268
0.000136667
0.0623167
0.000254478
0.000130237
0.000133077
0.00013997
0.000235989
0.000172619
0.00441024
0.000135858
0.000517751
0.000147036
0.000185016
0.030863
0.00016483
0.000139185
0.000139852
0.00409452
0.000136592
0.000141244
0.000136358
0.000162751
0.000152847
0.0442804
0.000163634
0.000148692
0.000142397
0.000158031
0.000219424
0.000185522
0.000141689
0.000141885
0.000207492
0.000173435
0.000150095
0.0018244
0.000163137
0.000153271
0.0589512
0.000151921
0.000160254
0.000148488
0.00313457
0.000145406
0.000148813
0.00547506
0.000159403
0.000141176
0.000143327
0.00013118
0.000179009
0.000194709
0.000141126
0.000135955
0.000149963
0.000181193
0.000167385
0.000135056
0.00014283
0.000139168
0.000156674
0.00016979
0.000146461
0.00014294
0.0488157
0.00014203
0.0027667
0.000163884
0.000168351
0.000152746
0.000150537
0.000145057
0.0183292
0.000191451
0.000181274
0.0427032
0.000163296
0.000140126
0.0415132
0.000136285
0.000183201
0.0621468
0.000157472
0.000141791
0.000154696
0.000181464
0.000142703
0.000143314
0.0384946
0.000142917
0.000153061
0.000141024
0.000146645
0.000137305
0.000196569
0.000199377
0.000135705
0.000141096
0.000243143
0.000142608
0.000136658
0.000140889
0.00014084
0.000325074
0.000163519
0.000153604
0.000153178
0.000149355
0.000137437
0.000175463
0.000193458
0.000158631
0.00020867
0.000154016
0.000155072
0.0437041
0.000140139
0.000136278
0.000143698
0.000140621
0.000148841
0.000132618
0.000150052
0.0615784
0.00014453
0.000141843
0.000156235
0.000140816
0.00190813
0.000147814
0.037872
0.000223303
0.000176548
0.000161582
0.00263558
0.000160343
0.000143214
0.000153864
0.000140499
0.000151777
0.000148757
0.000148132
0.037272
0.000135822
0.000143878
0.000170059
0.000188803
0.000147989
0.000139771
0.000218598
0.000150945
0.000187185
0.00014307
0.000139905
0.000144272
0.0227215
0.000146518
0.000311972
0.000173275
0.000149388
0.000139681
0.0001433
0.000160228
0.00364026
0.000135764
0.000181058
0.000141819
0.0352824
0.000233962
0.000149497
0.000213532
0.000146245
0.000153632
0.000154434
0.000264193
0.000162655
0.000158161
0.000159302
0.00567443
0.000147623
0.000177894
0.000144584
0.000204836
0.000204987
0.000225641
0.000142939
0.000165395
0.00251448
0.00489369
0.000154213
0.000155057
0.0036601
0.00363984
0.000140437
0.000176407
0.000143407
0.000156489
0.000146129
0.000152804
0.000152043
0.0256826
0.000147394
0.000148231
0.000175191
0.00568285
0.00655715
0.000198202
0.0051055
0.000139936
0.00300077
0.000176555
0.00014232
0.000141767
0.00568262
0.000157354
0.000145171
0.00014259
0.000173652
0.00013867
0.000142855
0.00275384
0.000145702
0.000148393
0.000141117
0.000143855
0.000151476
0.000138928
0.0563445
0.000171855
0.000152521
0.000139267
0.000165883
0.0146932
0.000142537
0.000148421
0.00389771
0.000222506
0.000143484
0.000154934
0.000138741
0.000140434
0.000193177
0.000212168
0.000140477
0.000143291
0.00383988
0.000317706
0.000863411
0.000188757
0.000151264
0.00495082
0.000140666
0.000155923
0.000154899
0.000139692
0.0450202
0.000626012
0.000167268
0.000186912
0.000536517
0.000133917
0.000133074
0.000151902
0.000168469
0.00241064
0.000136412
0.000172469
0.00747274
0.00189256
0.000147168
0.000151299
0.000266644
0.000142758
0.000155705
0.0060254
0.000140931
0.000142547
0.000139063
0.000243217
0.000141557
0.000165122
0.000149099
0.000218398
0.000163532
0.00538644
0.000143209
0.000142226
0.000163112
0.000147727
0.000175836
0.000149591
0.000191182
0.00019782
0.000140824
0.000144492
0.0558657
0.00447475
0.00105641
0.000139078
0.000143377
0.000155003
0.000145326
0.000143178
0.00014402
0.000147405
0.00014858
0.000139507
0.000139758
0.000178835
0.000152375
0.000171774
0.000785029
0.000177473
0.000173056
0.000157464
0.00019859
0.000208873
0.000161876
0.00015564
0.000160657
0.000141784
0.015112
0.000136046
0.000135718
0.000140556
0.00501416
0.00014253
0.00496216
0.000148305
0.000134938
0.000184989
0.00014304
0.000142286
0.00014302
0.000194925
0.000135406
0.00014732
0.000139712
0.000151845
0.0114008
0.000172821
0.00435796
0.000143299
0.000172568
0.000146881
0.000145687
0.000136104
0.000138916
0.000143387
0.000156829
0.000277048
0.000151664
0.000152214
0.000196711
0.0002556
0.000200033
0.000142119
0.00018689
0.000163615
0.00422803
0.000137897
0.000142747
0.000154419
0.000299575
0.000132418
0.00014469
0.000138875
0.000136535
0.000199216
0.000152744
0.000186923
0.000146618
0.000132198
0.000172874
0.000143995
0.00118622
0.000143699
0.000162061
0.00014806
0.000159159
0.000149488
0.000176331
0.00452959
0.000142479
0.000185908
0.0138662
0.000141669
0.000146741
0.000169494
0.000131854
0.0547548
0.000180711
0.000142662
0.000176161
0.000134181
0.00014994
0.000147582
0.000141656
0.000136443
0.000150094
0.00014039
0.000138798
0.000145251
0.000148238
0.00017247
0.000136131
0.000203325
0.000138469
0.000140399
0.000159296
0.000172803
0.000149974
0.000131953
0.000142446
0.000153605
0.000171605
0.0129449
0.000163975
0.000149255
0.000149159
0.000139551
0.000161548
0.000140731
0.000152568
0.000403053
0.00023783
0.00017249
0.000141386
0.000148216
0.000150054
0.000132073
0.00018839
0.00013481
0.000228543
0.000149491
0.000224422
0.00015853
0.000280209
0.000147053
0.000179039
0.0477093
0.00411501
0.00119786
0.00015798
0.00553238
0.00265332
0.000148842
0.0001649
0.0344091
0.000138594
0.000139032
0.000144003
0.000156136
0.000329141
0.00014603
0.000159383
0.00481238
0.00013026
0.000144582
0.00034381
0.0130404
0.000192455
0.00154744
0.00595811
0.00015015
0.000191366
0.000152429
0.000153373
0.00448459
0.000154076
0.051532
0.000208062
0.000153902
0.000146165
0.000151448
0.000159063
0.000139469
0.0400978
0.000132317
0.000142883
0.000143283
0.00125936
0.0433819
0.000228845
0.000144855
0.000150441
0.000138765
0.0620726
0.000142892
0.000149947
0.000154232
0.000181525
0.00013865
0.000180279
0.0310034
0.00464941
0.000147213
0.0014107
0.000139603
0.00496038
0.000132728
0.000294701
0.000148599
0.000180593
0.000158575
0.000632715
0.000201018
0.000152794
0.000152586
0.000194114
0.000155702
0.000141895
0.000138731
0.000157729
0.000148157
0.00275541
0.00013162
0.000142922
0.000144218
0.000143782
0.00213216
0.000139336
0.000134575
0.000146883
0.00180354
0.000163805
0.000175242
0.000152591
0.000151341
0.000182276
0.000139931
0.000143219
0.000183023
0.000170691
0.00013459
0.000172287
0.000152591
0.00316257
0.000142737
0.000261403
0.000148348
0.000143177
0.000135243
0.000134876
0.00014229
0.000141354
0.0103961
0.000178676
0.000146949
0.000143117
0.000142357
0.000152715
0.000158476
0.0560001
0.000146484
0.000200809
0.000165524
0.00486788
0.000147362
0.000171242
0.000143089
0.000142765
0.000164478
0.000142603
0.000145808
0.000140327
0.000136014
0.0360511
0.000143554
0.000139285
0.000239844
0.00524842
0.000191152
0.000146613
0.000134918
0.000155324
0.0355899
0.000153507
0.000148005
0.000146936
0.0137879
0.00014857
0.000144109
0.0208044
0.000141207
0.000156313