/*--------------------------------*- C++ -*----------------------------------*\
| =========                 |                                                 |
| \\      /  F ield         | OpenFOAM: The Open Source CFD Toolbox           |
|  \\    /   O peration     | Version:  v2012                                 |
|   \\  /    A nd           | Website:  www.openfoam.com                      |
|    \\/     M anipulation  |                                                 |
\*---------------------------------------------------------------------------*/
FoamFile
{
    version     2.0;
    format      ascii;
    class       volScalarField;
    location    "300";
    object      k_0;
}
// * * * * * * * * * * * * * * * * * * * * * * * * * * * * * * * * * * * * * //

dimensions      [0 2 -2 0 0 0 0];


internalField   nonuniform List<scalar> 
18758
(
0.000177474
0.00167334
0.000147331
0.000176892
0.000162938
0.000140104
0.000143437
0.000151859
0.000161516
0.000160475
0.000994734
0.00705409
0.000278543
0.000151373
0.000143239
0.000141888
0.0073689
0.000130656
0.000143116
0.000153782
0.00524887
0.00187411
0.000141171
0.000140064
0.00836358
0.00050485
0.00602735
0.000225021
0.000193791
0.00313178
0.000635285
0.00786165
0.000151508
0.0398296
0.000164127
0.00284486
0.000409976
0.000162989
0.000615917
0.000134943
0.00572314
0.000163007
0.00615267
0.000146279
0.000145008
0.000687789
0.000161131
0.000194969
0.0295492
0.000173365
0.00111568
0.0281504
0.000172884
0.000156587
0.000201943
0.000294499
0.000139552
0.000153519
0.000192213
0.000139232
0.000147021
0.000145722
0.00905896
0.00386495
0.000147368
0.0566135
0.000146844
0.000133229
0.000225425
0.000130834
0.0279783
0.00170844
0.000143215
0.000157449
0.000208032
0.000684837
0.0234187
0.00739583
0.000161879
0.00663902
0.000191584
0.000599267
0.00725295
0.000176844
0.000150958
0.000196945
0.000156068
0.000158255
0.0106027
0.000195947
0.03195
0.000153462
0.0001843
0.0292214
0.000143097
0.000139076
0.000132482
0.000181724
0.00792649
0.000142442
0.000772078
0.000161018
0.000133163
0.000139042
0.0560161
0.00623636
0.000194943
0.0324391
0.0279118
0.00104039
0.000142054
0.00732422
0.000167844
0.000145781
0.000161163
0.000312732
0.000180941
0.000137889
0.000352187
0.000154525
0.000144719
0.0228123
0.000151493
0.000137973
0.0379737
0.000156654
0.000143925
0.000137986
0.000212725
0.0315974
0.000192497
0.000153505
0.000160689
0.0344286
0.000135288
0.000145713
0.0139338
0.000150507
0.000233885
0.000191361
0.000173405
0.00368075
0.000174752
0.0267224
0.0375521
0.000176458
0.0532238
0.000207004
0.0011123
0.000418525
0.0308708
0.031088
0.000146492
0.00016409
0.00620407
0.00911342
0.000184174
0.000213282
0.000179025
0.00145138
0.0156356
0.000139264
0.0277721
0.0529701
0.00273147
0.000139941
0.000139156
0.0153888
0.0318278
0.00638064
0.028707
0.000147881
0.000197412
0.00388055
0.024654
0.000142587
0.000143002
0.000219727
0.0307114
0.000149199
0.000132321
0.000156173
0.000201737
0.000150893
0.000725348
0.000143653
0.00351176
0.000169894
0.0289479
0.014766
0.03015
0.000143581
0.000197928
0.0278743
0.000131499
0.000150622
0.000247161
0.000146307
0.02894
0.000141352
0.000148439
0.000218734
0.0127173
0.000141834
0.000142088
0.0278091
0.000142458
0.000165921
0.0305828
0.0304989
0.000144704
0.000185441
0.000150265
0.000150359
0.000152524
0.000132699
0.000144609
0.000184972
0.000137084
0.00302878
0.0298374
0.000141623
0.000174107
0.000220018
0.0155234
0.00626
0.000218162
0.000194014
0.016528
0.000142217
0.000417465
0.000176347
0.0219706
0.000147743
0.000140751
0.00014202
0.000221646
0.0306932
0.000263387
0.000148912
0.000142198
0.000213142
0.000222177
0.000145818
0.000545871
0.00025999
0.000140826
0.000138253
0.000144365
0.000142504
0.0287776
0.000145295
0.00416167
0.000142579
0.000144958
0.000281279
0.00013966
0.00415699
0.000142935
0.00753413
0.000168264
0.000138272
0.000140913
0.000195751
0.019587
0.014957
0.000138394
0.000228896
0.000146613
0.000145975
0.000381805
0.0340151
0.000145808
0.000141497
0.000148222
0.000152152
0.000158491
0.0001359
0.000151224
0.000151359
0.000138243
0.000153542
0.000142388
0.047986
0.000143323
0.000141302
0.00013029
0.000218313
0.000138966
0.000138969
0.000146926
0.000149507
0.000139355
0.000142244
0.000145343
0.000152498
0.00643314
0.000157897
0.00014173
0.0403187
0.000154485
0.000141941
0.000141965
0.00177925
0.000479644
0.000132276
0.000219164
0.00696059
0.000146618
0.00019265
0.000142419
0.00715059
0.000239754
0.000203673
0.000192728
0.0397307
0.00013292
0.00377704
0.000228896
0.000146855
0.000201483
0.000176341
0.000401433
0.000140737
0.000132979
0.0308467
0.00456259
0.000139609
0.0369934
0.000199725
0.000185266
0.0334079
0.000140664
0.000140213
0.000142704
0.000145469
0.000149808
0.000154408
0.000151981
0.000142897
0.000149532
0.00014888
0.0336117
0.00173801
0.000149413
0.00315344
0.00746653
0.000139428
0.000165492
0.000854275
0.00521968
0.00436756
0.000255135
0.00014364
0.0332679
0.00522829
0.00017461
0.000148852
0.00018361
0.000150408
0.000145389
0.00025492
0.0268105
0.00507861
0.000292782
0.0235242
0.000140829
0.000157222
0.000156877
0.00018245
0.0299588
0.000298745
0.0136145
0.000283946
0.00487346
0.000265311
0.000145248
0.0574157
0.000208396
0.000717381
0.00585551
0.00014238
0.000139902
0.00234549
0.005354
0.00447068
0.00039868
0.0371012
0.000149044
0.00695539
0.000730794
0.000141968
0.000151128
0.000152549
0.000153153
0.000145111
0.000150805
0.000144242
0.000156873
0.000145843
0.000144342
0.000164684
0.000482025
0.000160117
0.000733943
0.000764906
0.0366516
0.000564035
0.000209206
0.000149285
0.000140691
0.00631795
0.000151117
0.000149021
0.0144439
0.000181785
0.000353681
0.00013991
0.0327626
0.000144537
0.000154672
0.000131943
0.0286828
0.00983846
0.00460646
0.000144895
0.0330104
0.000183243
0.000144183
0.000151926
0.000145094
0.00962893
0.000145532
0.000141823
0.0012969
0.000160462
0.00014912
0.000142879
0.00015154
0.000155118
0.0135152
0.000248289
0.000148786
0.0578639
0.00013188
0.000156691
0.000192982
0.000143726
0.000635918
0.000148515
0.000155458
0.000146838
0.000287691
0.00015829
0.000144183
0.0325893
0.000567177
0.00013035
0.000157227
0.000152387
0.000141852
0.000143245
0.000151115
0.0262511
0.0321486
0.000147444
0.000168623
0.0210105
0.000227999
0.00690501
0.000259629
0.00639613
0.00013727
0.00020651
0.000204674
0.000162195
0.000151364
0.00332446
0.000286552
0.000171452
0.000139891
0.000143467
0.000139027
0.000143708
0.000138986
0.00014383
0.00296164
0.000148536
0.000131545
0.000182071
0.000152532
0.000147017
0.000134703
0.000151554
0.00030601
0.00496532
0.000142661
0.0010151
0.000142724
0.000160436
0.000204891
0.0375665
0.000281291
0.000143031
0.00014372
0.0334449
0.0331511
0.000245534
0.000139692
0.00027891
0.0485851
0.000130267
0.000141406
0.00703754
0.000152554
0.000192861
0.00024108
0.000155504
0.000168608
0.000138337
0.000142049
0.000152808
0.000143804
0.000141957
0.000147077
0.00569828
0.000132128
0.000330235
0.0232552
0.000130344
0.000132133
0.000149631
0.000157699
0.000162111
0.000252105
0.000142521
0.0189124
0.000162368
0.000161987
0.000141064
0.000142968
0.000145814
0.000147615
0.00014752
0.044812
0.000855956
0.000138177
0.000141726
0.000149298
0.0190754
0.000132057
0.000132982
0.000144067
0.000131607
0.000140928
0.000140836
0.000151433
0.000141851
0.000193904
0.000142442
0.000135984
0.00023252
0.0410752
0.000165859
0.000144304
0.000142598
0.000147722
0.000142612
0.000152469
0.000257145
0.000825922
0.000149358
0.00909381
0.000142455
0.000166356
0.000144584
0.000141613
0.000177134
0.000130858
0.000144004
0.00791496
0.000146814
0.000150797
0.000248075
0.000143188
0.000143341
0.0286606
0.000137741
0.00511178
0.000339565
0.000142725
0.000147104
0.000173899
0.000152451
0.000162442
0.000142372
0.00624822
0.00764674
0.00594859
0.000138514
0.0403568
0.000131397
0.000145066
0.00014247
0.000168875
0.00859837
0.000243648
0.000143928
0.000150643
0.000153577
0.0315987
0.000267885
0.000141232
0.000240419
0.000154771
0.0313621
0.000160411
0.000220556
0.000139683
0.000167463
0.000182433
0.000142602
0.000139749
0.0001321
0.000139007
0.000158384
0.000229176
0.00333444
0.00754933
0.000221412
0.000154302
0.00014257
0.000137867
0.000242594
0.00448172
0.000135112
0.000174785
0.0313844
0.0441668
0.000146338
0.000145733
0.000179356
0.0066757
0.00013131
0.000914438
0.000143938
0.000155512
0.000162405
0.000144977
0.000147549
0.000147939
0.000138545
0.000149791
0.00023475
0.000176992
0.00424129
0.000150109
0.000141145
0.000332186
0.000133224
0.000366489
0.00543393
0.000144094
0.0144396
0.000154009
0.000144936
0.0139918
0.00410594
0.00414353
0.024735
0.000151998
0.00702087
0.000132202
0.0545058
0.0374212
0.000172213
0.000143113
0.00572513
0.000154386
0.00019199
0.000577126
0.000519195
0.000146039
0.00777743
0.000141764
0.000176253
0.000196091
0.00014075
0.000163481
0.0260155
0.00447603
0.000156439
0.000151725
0.00013157
0.000148853
0.000155613
0.000169577
0.00022571
0.000141788
0.00032395
0.000153514
0.000145868
0.000157539
0.000131833
0.00060935
0.000142311
0.000139065
0.000537921
0.000138038
0.000151543
0.0057469
0.000183608
0.000183146
0.000143855
0.000145796
0.000184768
0.00014567
0.006828
0.000154076
0.000152859
0.000150295
0.000145585
0.00013143
0.0143445
0.000131835
0.0339025
0.000225906
0.000149422
0.030631
0.000140045
0.000174953
0.000155926
0.0252646
0.000153745
0.000315928
0.00736654
0.000145588
0.0062782
0.00013572
0.000360404
0.000145846
0.000148189
0.03871
0.0055193
0.00014218
0.000147174
0.000151673
0.000138087
0.000143786
0.00337809
0.0343236
0.000141135
0.000137949
0.000135813
0.0194143
0.000244351
0.000250098
0.000138481
0.000240118
0.00014816
0.000145944
0.000160775
0.0077806
0.000141243
0.000175467
0.000274765
0.000144512
0.000417606
0.000144212
0.000160446
0.000141246
0.000138274
0.000157444
0.000146048
0.000183242
0.000143604
0.0375287
0.000146414
0.000154387
0.000193043
0.00278505
0.000175529
0.000141678
0.000145484
0.00686878
0.000250727
0.000186381
0.000139649
0.000142417
0.00015753
0.0260979
0.00621299
0.000140817
0.00014213
0.000149296
0.000146919
0.000149172
0.000142665
0.00014393
0.00655472
0.000142285
0.00014343
0.00696815
0.000138449
0.000268034
0.000214102
0.033728
0.000373239
0.00490878
0.0354523
0.000142676
0.000142555
0.000152568
0.000141033
0.000141317
0.000138858
0.000140554
0.000148684
0.000371525
0.000204271
0.000267964
0.000153546
0.000142002
0.000163164
0.000164189
0.000189742
0.00014643
0.000150772
0.000138092
0.0327232
0.0300486
0.00397613
0.000147615
0.000197397
0.000209588
0.000402931
0.0263239
0.00925841
0.000150724
0.000152579
0.000136568
0.030852
0.000146667
0.000132852
0.000195937
0.0092154
0.000142343
0.00454711
0.000360919
0.000142475
0.000142404
0.000142558
0.000144475
0.00014339
0.000151791
0.00016303
0.000143541
0.000146788
0.0103014
0.0336397
0.000143026
0.0034996
0.000188664
0.000150216
0.000144724
0.000141325
0.000138308
0.000152376
0.000150181
0.000143766
0.00014762
0.000151034
0.000146534
0.037958
0.000158827
0.000142807
0.00014465
0.000858119
0.000146213
0.0001328
0.022491
0.000141393
0.000167414
0.000157471
0.000143476
0.000139512
0.000137995
0.000154341
0.000170313
0.000143883
0.00479008
0.000191406
0.000206086
0.00940598
0.000149063
0.000169685
0.000132203
0.000277038
0.000149564
0.00014363
0.000209262
0.000292518
0.000147953
0.00362768
0.000772774
0.000138829
0.000161479
0.000132853
0.000149518
0.000159086
0.000150828
0.000142904
0.000282045
0.00014107
0.000141522
0.00785371
0.000141529
0.000141319
0.000139532
0.0378694
0.000144934
0.000144446
0.000162583
0.0242287
0.00570534
0.000272422
0.00646964
0.000142234
0.000131695
0.000143552
0.000582789
0.000148763
0.000141273
0.000152755
0.000137704
0.000312467
0.000146889
0.000145904
0.0234187
0.000142355
0.000182991
0.00078921
0.000131674
0.000143473
0.0248577
0.000152089
0.0353626
0.0011435
0.000137826
0.000144418
0.00385121
0.000138628
0.000152881
0.00430515
0.00013621
0.0080084
0.000142478
0.000144169
0.000143269
0.000164198
0.000151176
0.00881553
0.000154473
0.000140811
0.00231699
0.00741554
0.000170794
0.000167021
0.000260279
0.028184
0.025832
0.000131326
0.028128
0.000147291
0.00974756
0.0101823
0.000141252
0.000161926
0.000147041
0.00710157
0.000139733
0.0226129
0.000141504
0.0295758
0.000199057
0.00013982
0.000131637
0.00014268
0.00544377
0.000305879
0.000144003
0.00638222
0.000146312
0.000141254
0.00840599
0.000143121
0.000331735
0.0001401
0.000153233
0.000140589
0.000140164
0.000140886
0.000139801
0.00020783
0.000170298
0.00016375
0.000165992
0.000148187
0.00014276
0.00566565
0.000142641
0.00889991
0.000145539
0.00730772
0.000157741
0.0021377
0.000139404
0.000140813
0.000141094
0.035287
0.000144792
0.00482577
0.000192731
0.000143629
0.000157069
0.000142602
0.00013813
0.000153434
0.000141518
0.00634323
0.000144118
0.000151057
0.000143858
0.000151593
0.0267239
0.00684851
0.000145724
0.000139579
0.000145371
0.000147746
0.000142049
0.000160695
0.000148859
0.000142599
0.000137398
0.000138927
0.000211361
0.000192705
0.000145536
0.00013756
0.000531086
0.0001489
0.00170199
0.0302914
0.000148328
0.0274507
0.000152908
0.000139504
0.000143561
0.000152608
0.000197799
0.000138192
0.000166541
0.00556951
0.000222085
0.000240132
0.0551011
0.0457295
0.000163403
0.000145993
0.000144515
0.00383585
0.000137551
0.000145834
0.000162621
0.000303417
0.000143451
0.000139965
0.0346403
0.000153412
0.000150288
0.00015491
0.00015336
0.000223053
0.000144512
0.000154082
0.000144037
0.000166008
0.000152536
0.000147697
0.000147896
0.00625997
0.000147733
0.000142797
0.00453131
0.000131687
0.000142683
0.00014544
0.000149873
0.000146805
0.0124912
0.000206772
0.00483192
0.00500645
0.00877471
0.00495838
0.000148844
0.000829786
0.00435871
0.000145609
0.000149246
0.000146625
0.00014457
0.000150128
0.000148611
0.000221774
0.000243291
0.000145975
0.000135462
0.000174289
0.000152463
0.00563074
0.000142542
0.000149137
0.000142161
0.000271128
0.00302564
0.00016265
0.03985
0.000142461
0.000142279
0.000197517
0.000167463
0.000141948
0.000232771
0.000148352
0.00016168
0.00711151
0.000210229
0.000165711
0.000146644
0.000147799
0.000148379
0.000138809
0.00432702
0.000205404
0.035095
0.000259616
0.000623802
0.000148101
0.0279395
0.0294184
0.0521272
0.00019682
0.00236011
0.000161191
0.000930007
0.000208372
0.000168243
0.000130617
0.000142757
0.000145908
0.000171952
0.000139589
0.00014492
0.00025645
0.00609149
0.00146971
0.00374128
0.000191512
0.00561758
0.000170504
0.000155051
0.000142836
0.0121327
0.000251223
0.00014123
0.000163278
0.000591039
0.0326763
0.0326389
0.000168984
0.000188126
0.000131749
0.0356894
0.000147711
0.00487058
0.00049007
0.000163099
0.000206147
0.000209066
0.000144311
0.000143323
0.00631528
0.000300447
0.000210049
0.000148211
0.000145428
0.000153827
0.00569082
0.000163906
0.00414357
0.000148207
0.00498258
0.000741012
0.000155141
0.000295533
0.00021286
0.0432747
0.000131753
0.000172055
0.0268174
0.000160636
0.000141971
0.00161167
0.0058639
0.000142508
0.000142591
0.00221679
0.000151035
0.000151145
0.00346055
0.000286998
0.000144913
0.000161147
0.000150588
0.000163075
0.000152053
0.000151861
0.00428105
0.000154927
0.00014046
0.000141449
0.000264037
0.000139282
0.000383486
0.000136936
0.000138555
0.00424799
0.000147062
0.000142556
0.000261274
0.000131418
0.000153095
0.000137727
0.000142422
0.000144802
0.000190578
0.000144913
0.00469054
0.000201897
0.0063401
0.0285364
0.000154567
0.000137794
0.000139286
0.0282422
0.000157825
0.000143255
0.00482069
0.000166681
0.00188844
0.000136877
0.000136762
0.00013781
0.000141245
0.000144899
0.00013412
0.00014838
0.000150172
0.00014316
0.000763048
0.000176969
0.0040624
0.000150294
0.000137807
0.000171015
0.0573895
0.0301048
0.00789932
0.0422795
0.00433658
0.000245684
0.0302848
0.000150862
0.000174848
0.000176274
0.0357523
0.000141226
0.000730362
0.000798781
0.000227946
0.000142788
0.00629748
0.000141815
0.000142557
0.000145088
0.000162586
0.0131633
0.000309987
0.000145884
0.000131061
0.000138654
0.000134772
0.000172218
0.000143433
0.0312221
0.000191296
0.000195104
0.000148449
0.000142529
0.000133809
0.0461195
0.00165161
0.000144684
0.000142121
0.00102274
0.00013465
0.000143528
0.00013592
0.000144675
0.000144656
0.000145365
0.000137858
0.000279068
0.000152385
0.000277089
0.000163738
0.000146876
0.000121273
0.000146504
0.0199441
0.000146972
0.000177787
0.000682667
0.00415656
0.000172313
0.000215788
0.0466285
0.000152922
0.00016442
0.00015284
0.00014243
0.00013847
0.000140515
0.000237637
0.000172151
0.000154275
0.000224012
0.000138221
0.000145273
0.000170721
0.00178008
0.000131303
0.000173588
0.000264306
0.000197517
0.0022856
0.000148541
0.000146526
0.0330137
0.000168428
0.000139871
0.000142494
0.000204399
0.000137616
0.000138425
0.000796026
0.000186923
0.00015113
0.000148386
0.000145848
0.0300778
0.000153784
0.036686
0.0223305
0.000142759
0.000141893
0.00325912
0.000167288
0.000170447
0.000150283
0.000182337
0.000172745
0.000139656
0.000153524
0.000237843
0.000175322
0.0314344
0.00525773
0.000167463
0.00417121
0.00473533
0.000140606
0.0071333
0.0194332
0.000153941
0.0600138
0.000146731
0.000222461
0.00019792
0.00304166
0.000179834
0.000228945
0.000161935
0.00578101
0.000141909
0.000132891
0.0297947
0.000152785
0.000142421
0.000142202
0.00014753
0.000134536
0.000148972
0.000141356
0.000142589
0.0351799
0.0239203
0.000142557
0.000147776
0.000221162
0.0054475
0.000131588
0.000240223
0.000213064
0.000176994
0.000145807
0.000140811
0.0463014
0.000147573
0.000186725
0.000200818
0.000138534
0.000169148
0.034642
0.000142536
0.0058322
0.0157274
0.026659
0.000148737
0.000142433
0.000143213
0.000144183
0.000142285
0.00458544
0.00998853
0.000138007
0.000257135
0.00834553
0.000149269
0.000146025
0.000142227
0.00668927
0.0431526
0.000211371
0.000212917
0.000152359
0.0366326
0.00369051
0.000138611
0.000142482
0.000158141
0.000167687
0.000541385
0.00524813
0.000140263
0.000278071
0.00383312
0.000159857
0.000139937
0.000146123
0.000153058
0.000141863
0.000149184
0.000138361
0.000223984
0.00361179
0.000144916
0.000146673
0.000166417
0.000138601
0.000142615
0.000150314
0.0055366
0.000137952
0.000154216
0.0359823
0.000232371
0.000236037
0.000191484
0.000148364
0.000147644
0.000149738
0.000137403
0.000141393
0.000149299
0.000747037
0.000173531
0.000150034
0.000204136
0.00013792
0.00172853
0.000553091
0.000143787
0.000395369
0.000140715
0.000151301
0.000220876
0.00319243
0.000156469
0.000153503
0.000153474
0.000222881
0.000132103
0.00213099
0.0489878
0.000138173
0.000196575
0.00760718
0.00014525
0.000150641
0.00630156
0.000193435
0.000146779
0.0046585
0.000154969
0.000142516
0.0106555
0.000105092
0.000301631
0.000140621
0.0149906
0.000165543
0.000133702
0.000183689
0.000162923
0.000146506
0.000210833
0.00038984
0.00482908
0.000190914
0.000219411
0.000138038
0.0376718
0.00410739
0.000234599
0.000279548
0.000145357
0.00671308
0.000145446
0.000141847
0.000177704
0.000149277
0.000375237
0.00470141
0.000146814
0.0461628
0.00696424
0.0331741
0.000161018
0.000193355
0.000131317
0.000147538
0.000152968
0.000131143
0.00386633
0.00191001
0.0381873
0.000235239
0.000250405
0.00514449
0.00280379
0.000144079
0.000157441
0.022211
0.000187622
0.000145538
0.000142331
0.00184164
0.000214726
0.000159073
0.00014281
0.000146092
0.00028539
0.000142599
0.000224487
0.00419854
0.000134337
0.0260386
0.00013753
0.0285965
0.000252183
0.017571
0.000151037
0.00386445
0.000145612
0.000142717
0.000150129
0.0382569
0.000171266
0.00290091
0.00014663
0.000142587
0.000861473
0.0377986
0.000146738
0.00020373
0.000273304
0.0482948
0.0261904
0.000140394
0.000145736
0.00548064
0.000131258
0.000138261
0.000154984
0.000143968
0.000146787
0.000140144
0.000142153
0.000154573
0.000142087
0.00016255
0.000171301
0.00014231
0.0286974
0.0349357
0.00015589
0.000135577
0.000143099
0.000211881
0.000143607
0.000142754
0.000144833
0.000193263
0.000143903
0.000155257
0.000152187
0.000261639
0.00492108
0.000141132
0.000258746
0.0002289
0.000158746
0.00021904
0.000270633
0.000140837
0.000142797
0.00021998
0.000206782
0.000158372
0.00586826
0.0128128
0.00014308
0.0233051
0.000149598
0.000201555
0.00599813
0.00642219
0.029828
0.000152278
0.000141353
0.00820436
0.000153556
0.00482971
0.000191751
0.00272328
0.0308417
0.000140515
0.000172187
0.000142025
0.000233149
0.00020624
0.0322165
0.000141581
0.000145137
0.000234894
0.00014797
0.010205
0.000140202
0.00593473
0.00729728
0.000176935
0.0203121
0.0356176
0.000140824
0.000140961
0.000144088
0.00119064
0.0022462
0.000148207
0.000154947
0.000148492
0.000135654
0.000176104
0.000141111
0.000136688
0.000200874
0.000147877
0.000136441
0.000156405
0.00163349
0.0028478
0.0241631
0.000145912
0.000214974
0.000161866
0.000156328
0.000195747
0.00455747
0.0374072
0.000138397
0.000204244
0.000131597
0.0001689
0.000198634
0.00018495
0.00206931
0.000148353
0.000211721
0.000137269
0.00365505
0.00542745
0.000136726
0.000150745
0.000151345
0.000151762
0.0384537
0.000144759
0.000144759
0.000149063
0.000148052
0.000139251
0.000150851
0.000143177
0.000147804
0.000143437
0.000141695
0.00333769
0.00741648
0.0283573
0.000135356
0.000132022
0.000132912
0.000135869
0.000132985
0.00016889
0.000132589
0.000138087
0.000142859
0.000139881
0.000162298
0.000142602
0.00255993
0.00767354
0.000172444
0.0186721
0.000146089
0.000923765
0.000247052
0.000145794
0.000139559
0.0129849
0.000150265
0.000144213
0.000145477
0.000220398
0.000207687
0.000140397
0.000200605
0.000163145
0.000142861
0.000217919
0.00673909
0.000162853
0.000140862
0.000154052
0.00384132
0.000162561
0.000409379
0.000140481
0.000149055
0.000144574
0.000153067
0.000171007
0.00455112
0.000165069
0.000136792
0.0304308
0.000213325
0.00021773
0.000141257
0.000154381
0.0387188
0.000140549
0.000147984
0.000160932
0.00254956
0.000134239
0.000143052
0.000137995
0.00016428
0.000145977
0.00702919
0.000145572
0.000156381
0.000161832
0.0347827
0.000138712
0.000136842
0.000131728
0.000164562
0.00013553
0.00115391
0.00262117
0.000162962
0.00595639
0.000142932
0.0298254
0.000145638
0.000137825
0.000214707
0.000191864
0.000233198
0.0053999
0.000298871
0.000228527
0.000167931
0.000168517
0.00015015
0.000187289
0.000145027
0.000148401
0.000278958
0.000147479
0.00509063
0.00296849
0.00232886
0.00410326
0.00571054
0.0067289
0.00680643
0.000192752
0.000153017
0.000197944
0.00014443
0.000136942
0.000141581
0.0344084
0.0224619
0.00462201
0.000156192
0.000154045
0.00483164
0.000140539
0.000194483
0.000136675
0.00017174
0.000142232
0.00013299
0.000153303
0.000172844
0.020506
0.000162445
0.000161373
0.000137601
0.000181711
0.00041812
0.000137216
0.00019879
0.020559
0.000131221
0.000182054
0.000137714
0.0421681
0.000148974
0.0244557
0.00014874
0.000145945
0.000160867
0.000208887
0.0276532
0.000206084
0.00406407
0.000151207
0.000145014
0.000145369
0.000145098
0.000136683
0.000143261
0.0279791
0.0264116
0.000177402
0.000142972
0.000159092
0.000154684
0.000146049
0.000146422
0.000202616
0.00462824
0.00708794
0.000144835
0.00456121
0.00013772
0.000185961
0.000151172
0.000172881
0.000286396
0.0076985
0.00678991
0.000133172
0.000144638
0.000140515
0.000142632
0.000144493
0.000142246
0.0293338
0.000146177
0.000147161
0.000148534
0.000168806
0.000141741
0.044131
0.0281444
0.00600044
0.000145667
0.000290865
0.000136549
0.00741203
0.00551493
0.000150681
0.00599651
0.000154069
0.000186945
0.000140535
0.000146181
0.000160546
0.000183868
0.000213106
0.0013957
0.000237691
0.000209051
0.0001767
0.000149778
0.000143908
0.00252418
0.000153088
0.0125604
0.000149815
0.0447733
0.00902135
0.00506489
0.000150432
0.000290687
0.000153865
0.000145378
0.000135978
0.000151667
0.00018968
0.000142739
0.00750302
0.000199446
0.000214075
0.000141429
0.000158929
0.000296916
0.00525614
0.00581975
0.000155871
0.00017411
0.0171772
0.00026273
0.000147799
0.000181792
0.00575326
0.000188391
0.00198805
0.000157162
0.000159209
0.000253434
0.000134029
0.0051123
0.000178763
0.000144262
0.000655562
0.00379909
0.0235587
0.00015659
0.000212607
0.000183171
0.000136812
0.000184139
0.000149484
0.000232042
0.000139664
0.0193664
0.0362613
0.0063453
0.00431159
0.000198832
0.00826309
0.000154696
0.000223994
0.00510382
0.0334212
0.000150874
0.000148382
0.00014201
0.000159869
0.000134326
0.000141323
0.00512595
0.000141709
0.000138493
0.000162661
0.000148637
0.000132547
0.000231056
0.0085949
0.000182161
0.000145136
0.000144949
0.000161538
0.000150451
0.000141624
0.000140592
0.000136526
0.00523095
0.000156938
0.000230704
0.000157118
0.000143753
0.000132877
0.000284289
0.000227546
0.000279477
0.000180966
0.000147391
0.000170433
0.000140617
0.000159263
0.00162567
0.0222575
0.000199271
0.000152762
0.000137401
0.000160777
0.00605675
0.00364541
0.00323199
0.000156308
0.000137898
0.000137952
0.000155363
0.00025491
0.0290966
0.000137929
0.00451676
0.000132863
0.000143341
0.000209138
0.000140456
0.0115917
0.000210917
0.0045888
0.000133516
0.000174788
0.000173585
0.0307118
0.000137747
0.000145946
0.000242949
0.00666434
0.015678
0.000929761
0.0200413
0.000149183
0.000209954
0.000156671
0.000193002
0.0344497
0.000165352
0.000140976
0.000145724
0.000135258
0.000364121
0.0456134
0.000155467
0.0535036
0.000135866
0.000141102
0.000145818
0.000232704
0.000223666
0.0537482
0.00014373
0.000148692
0.000168008
0.0010729
0.000136448
0.00399396
0.000140378
0.000157351
0.0162233
0.000139942
0.0186113
0.0067067
0.00691709
0.0396162
0.000143942
0.000153362
0.000152576
0.0334239
0.000203214
0.000145532
0.0323922
0.000369295
0.000131169
0.000151141
0.00571065
0.000136835
0.0394137
0.00831221
0.000156034
0.00013179
0.000154299
0.000159272
0.0407132
0.00013779
0.000172054
0.000150032
0.0015419
0.0346332
0.000142707
0.000136366
0.000217183
0.000156408
0.000144731
0.00014316
0.000140085
0.000184076
0.000152167
0.00149806
0.000148887
0.00014812
0.000140998
0.000151036
0.00016066
0.000152108
0.00659085
0.00596833
0.00700977
0.000148142
0.000136326
0.000906997
0.000160873
0.000187158
0.00411216
0.000202533
0.00440156
0.011228
0.000135935
0.000756426
0.000404462
0.000150253
0.000140203
0.000143734
0.000143651
0.0278097
0.00434956
0.000144667
0.0586777
0.00367889
0.0264662
0.000132779
0.000138619
0.00123056
0.000140152
0.000145898
0.00016459
0.000141976
0.000241981
0.000155765
0.0341483
0.00269026
0.000141403
0.00743419
0.000214488
0.000500081
0.000429273
0.000143007
0.000154314
0.000168932
0.0245683
0.000413177
0.000436958
0.000148079
0.000143825
0.000201282
0.000136842
0.000386032
0.0138049
0.000140559
0.000368858
0.00013706
0.0372505
0.000146026
0.00538454
0.000149957
0.0255211
0.000309358
0.0365973
0.0322369
0.000135148
0.00227958
0.0271469
0.000148596
0.0325129
0.000148182
0.000133431
0.000143829
0.000159483
0.000153875
0.000145749
0.000141181
0.000221465
0.000174265
0.000181516
0.0620232
0.000187165
0.000162736
0.000149715
0.000194129
0.000136253
0.000193238
0.000831688
0.027951
0.00568231
0.000151066
0.000153116
0.00015029
0.000221499
0.000151857
0.000141292
0.0377839
0.00749329
0.0275923
0.000151535
0.00014571
0.000177688
0.0249367
0.000148151
0.000136619
0.000150507
0.000150936
0.000173759
0.000143462
0.00540888
0.000147485
0.0307205
0.000138471
0.000518863
0.0040704
0.00175225
0.00013552
0.000190722
0.00014525
0.000137283
0.000198061
0.00533528
0.000141703
0.000149408
0.0363303
0.000144406
0.000188367
0.000622544
0.000157108
0.0117937
0.000145652
0.0158357
0.000162366
0.000342243
0.000136232
0.000141212
0.0314164
0.000140122
0.00562854
0.000154506
0.000162825
0.0232935
0.000150326
0.000143829
0.000149589
0.000141525
0.014307
0.0330001
0.000137228
0.00521164
0.000284454
0.000169679
0.000144077
0.000253848
0.000910374
0.000159397
0.000161559
0.000143981
0.0527287
0.000133615
0.0300857
0.000136121
0.000139806
0.000153729
0.00014596
0.000138495
0.000206273
0.000152723
0.000141695
0.00397737
0.000137788
0.000182086
0.000157096
0.000840695
0.00018853
0.000140002
0.000164837
0.000141152
0.000140514
0.000154136
0.0218573
0.000944763
0.00396703
0.0113821
0.000136442
0.000143961
0.000145144
0.000140323
0.000135531
0.000364489
0.000133223
0.000155768
0.000200032
0.000150103
0.000276537
0.000144789
0.000136516
0.0292558
0.0283067
0.000146178
0.000175832
0.000165125
0.000599318
0.000141621
0.000151377
0.0028514
0.000145477
0.000729511
0.00024985
0.000149466
0.000149871
0.0205309
0.000153987
0.000187526
0.00133985
0.0109144
0.000153303
0.000159623
0.000170105
0.0212649
0.000147991
0.0136716
0.00744797
0.0172356
0.0333027
0.000139522
0.000144159
0.000142306
0.00105972
0.00333732
0.00035615
0.0464727
0.000135371
0.00238278
0.000139842
0.05444
0.000143527
0.000174011
0.000210712
0.00014913
0.000148458
0.000194518
0.000156769
0.000147937
0.000148924
0.000197722
0.000152839
0.000140774
0.00141225
0.000148291
0.000148257
0.000143851
0.00162287
0.000178551
0.00475032
0.000161209
0.00015237
0.0341955
0.00015578
0.000217639
0.000137099
0.000142351
0.0493828
0.0391319
0.00383761
0.000145407
0.000153516
0.0626357
0.000218474
0.000205468
0.000714156
0.000770828
0.00204614
0.000136304
0.00460285
0.000140098
0.00018812
0.00012399
0.000194725
0.000194481
0.000151678
0.02966
0.000196987
0.00669726
0.000216717
0.000141749
0.000143364
0.000144358
0.000342495
0.000137367
0.000316202
0.000191197
0.00739385
0.000135595
0.023669
0.0489064
0.00580222
0.00409354
0.000150021
0.000147297
0.000142269
0.000160094
0.000144286
0.000155539
0.0453152
0.000144693
0.000150379
0.044208
0.00580259
0.00461446
0.000156227
0.000164992
0.000139796
0.0322389
0.000149559
0.0383659
0.000174921
0.000537102
0.000161782
0.000192102
0.0296645
0.00014293
0.00014239
0.033192
0.00112159
0.00111132
0.000211638
0.000178451
0.000141573
0.000225323
0.000143929
0.000245693
0.000143652
0.000151197
0.00394967
0.000149356
0.000192139
0.000137611
0.0502214
0.00273615
0.000179392
0.000162999
0.0326573
0.000161142
0.00013603
0.0334423
0.0501043
0.0331771
0.000140083
0.000148335
0.00725195
0.0537787
0.0316194
0.000145948
0.000150893
0.000146237
0.000158081
0.000147959
0.000138439
0.00712644
0.000140893
0.0271308
0.000152738
0.00027771
0.000135581
0.0496502
0.000413413
0.000198743
0.00927771
0.00359976
0.000138606
0.000201084
0.0280479
0.0001398
0.000147675
0.000145278
0.0325269
0.0330174
0.000144619
0.0389969
0.00017458
0.000142664