/*--------------------------------*- C++ -*----------------------------------*\
| =========                 |                                                 |
| \\      /  F ield         | OpenFOAM: The Open Source CFD Toolbox           |
|  \\    /   O peration     | Version:  v2012                                 |
|   \\  /    A nd           | Website:  www.openfoam.com                      |
|    \\/     M anipulation  |                                                 |
\*---------------------------------------------------------------------------*/
FoamFile
{
    version     2.0;
    format      ascii;
    class       volScalarField;
    location    "300";
    object      omega_0;
}
// * * * * * * * * * * * * * * * * * * * * * * * * * * * * * * * * * * * * * //

dimensions      [0 0 -1 0 0 0 0];


internalField   nonuniform List<scalar> 
18758
(
0.0259054
0.246699
0.0215393
0.0257368
0.0254484
0.02052
0.0212863
0.0226336
0.0250032
0.0247116
0.143652
0.511785
0.162594
0.0225569
0.0212664
0.0211446
0.518572
0.0195428
0.0212569
0.0235275
0.532597
2.01543
0.0206404
0.0205474
3.05436
0.540566
0.790027
0.105029
0.0750225
0.351454
0.372357
0.913468
0.0225284
4.03005
0.025811
0.334474
0.160738
0.0254362
0.214254
0.0198996
0.361908
0.0256554
0.365818
0.0214968
0.0214298
0.389842
0.0249795
0.0762852
2.15696
0.0249005
0.142646
3.15865
0.0248188
0.0238884
0.130991
0.112503
0.0205419
0.0233626
0.069161
0.0204968
0.0216471
0.0214135
1.27682
1.21119
0.0216671
4.30805
0.0214656
0.0198547
0.105442
0.0195612
3.11377
1.28498
0.0212223
0.0253939
0.0691365
0.40061
1.3792
0.512456
0.0251674
0.375039
0.0799461
0.202294
0.509957
0.0398224
0.0222127
0.107209
0.0247857
0.0259067
1.31246
0.10596
2.81739
0.0223824
0.061534
2.15222
0.0212118
0.0207467
0.0196822
0.0521222
0.526116
0.0211043
0.400701
0.0271142
0.0198478
0.0207431
4.27648
0.56998
0.0761261
2.9183
1.47849
0.186295
0.0211689
1.49667
0.0256139
0.0213159
0.0271404
0.202746
0.0506274
0.0203446
0.241265
0.022776
0.0212326
1.37993
0.0223131
0.0204728
3.03636
0.0239489
0.0211369
0.0204747
0.123232
3.59473
0.0702916
0.0222969
0.0269296
3.57344
0.0199408
0.0213365
1.21311
0.0221955
0.132786
0.0785868
0.0266833
0.359926
0.0425773
1.45442
3.10385
0.0464637
4.22405
0.110255
0.169735
0.358238
3.87223
2.82861
0.0215872
0.0258402
0.369013
1.77888
0.0610932
0.126914
0.0419932
0.214797
2.53647
0.0205721
2.18801
4.19076
0.895424
0.0205961
0.0205631
2.60328
3.62657
0.49727
2.42585
0.02167
0.0826775
0.270781
1.47527
0.0210692
0.0212097
0.251869
3.84012
0.0219962
0.019783
0.0238988
0.126402
0.0224511
0.552987
0.0213601
0.355984
0.0306617
2.18265
1.25443
2.75109
0.0213505
0.0688138
1.42095
0.0196895
0.0223629
0.15029
0.0215765
2.21578
0.020723
0.0218234
0.141788
1.41297
0.0211423
0.0211717
2.22084
0.0209519
0.0263683
3.87898
3.28842
0.0211816
0.063052
0.0220599
0.0222169
0.0229318
0.019701
0.0214161
0.0620466
0.0201862
0.314335
1.47891
0.0208319
0.0415274
0.142429
1.52058
0.306527
0.0778481
0.10438
2.58884
0.02093
0.4771
0.0462687
1.51462
0.0215445
0.0209868
0.020898
0.0825775
2.25189
0.170228
0.0218741
0.0211813
0.0751182
0.115559
0.0213567
0.440598
0.197594
0.0209981
0.0206274
0.0211303
0.0211041
2.36963
0.0213396
0.286801
0.0209908
0.0210624
0.199917
0.0205508
1.80605
0.0212637
0.826503
0.0257882
0.0204931
0.0210098
0.0658155
1.76247
1.74737
0.0205028
0.127618
0.0216018
0.0214136
0.256496
3.51959
0.0213847
0.0208579
0.0211917
0.0227917
0.025745
0.0200595
0.0223952
0.0225469
0.0206276
0.0223167
0.0212153
4.07719
0.0212767
0.0208434
0.0195305
0.111453
0.0207254
0.0207307
0.0215335
0.0220601
0.0205151
0.0208488
0.0212452
0.0220472
0.311964
0.0229026
0.0207387
3.13951
0.0238378
0.0208513
0.0208682
0.469619
0.0692341
0.0197777
0.0320748
0.57029
0.0215542
0.100715
0.0212185
1.65316
0.143008
0.0844896
0.0739185
4.0387
0.0198254
0.777541
0.161489
0.0214748
0.0806729
0.0395802
0.340505
0.0209692
0.0198318
3.43945
0.287515
0.0207319
2.86503
0.0627459
0.0288525
3.39783
0.0209634
0.0206275
0.0212475
0.0212978
0.0220169
0.0226579
0.0226876
0.0210029
0.0219566
0.0218727
2.15275
0.449536
0.0220438
0.698148
0.512649
0.0207191
0.0318872
0.143749
2.51332
0.374268
0.148906
0.0213606
2.64515
0.697399
0.0324381
0.0218683
0.0284685
0.0222623
0.0213602
0.161245
1.40342
0.389687
0.120225
1.33943
0.0209973
0.0253251
0.0241583
0.0527748
2.20026
0.191949
1.35616
0.137433
0.349495
0.157205
0.0211325
4.36134
0.11532
0.0776879
0.407261
0.02104
0.0205135
1.89028
0.397321
0.406501
0.263961
2.94808
0.0219068
0.512023
0.145222
0.0211545
0.0224629
0.0228711
0.022492
0.0212319
0.0223646
0.0214225
0.022747
0.021347
0.0211081
0.0294481
0.253981
0.027445
0.328712
0.340252
3.35499
0.390548
0.110664
0.0216889
0.0206097
0.369547
0.0224535
0.0218976
1.3244
0.0514331
0.0653238
0.0205797
2.14617
0.021376
0.0239279
0.0197411
2.41991
1.80866
0.382317
0.0212174
3.25089
0.0599357
0.021386
0.0223075
0.0212244
1.27801
0.0212627
0.020817
0.819509
0.027743
0.0219223
0.0211989
0.0225344
0.0238855
1.74287
0.0708257
0.0216881
4.35646
0.0197344
0.0231939
0.0998685
0.0214063
0.360016
0.0217199
0.0240405
0.0214856
0.178809
0.0228545
0.0214165
2.43615
0.0616935
0.0195343
0.0253283
0.0230217
0.0211444
0.0209995
0.0221162
1.73498
2.21428
0.0216629
0.0340603
1.2975
0.22622
0.404528
0.195453
0.396153
0.0202761
0.103991
0.0677342
0.0277963
0.022479
0.328373
0.044425
0.026243
0.0206227
0.0212844
0.0207281
0.0214048
0.0207218
0.0214226
0.534407
0.0217092
0.0196989
0.0584404
0.0221952
0.0215224
0.0198953
0.0228291
0.0484934
0.520472
0.0209783
0.118055
0.0207989
0.027631
0.120721
2.27809
0.145253
0.0212599
0.0213716
2.20559
3.4193
0.0340572
0.0205547
0.0810299
4.11631
0.0195264
0.0206493
2.10102
0.0229706
0.0815929
0.0327555
0.0227099
0.0339886
0.020633
0.0210255
0.0222875
0.0209621
0.0209002
0.021646
0.454608
0.0197878
0.0557123
1.34359
0.0195319
0.0197874
0.0218866
0.0254611
0.0269051
0.0739151
0.0211136
1.35461
0.0278992
0.0277513
0.0207551
0.0209366
0.0212859
0.021681
0.0216692
3.0368
0.635873
0.0206241
0.0208823
0.0220124
2.70937
0.019751
0.0197192
0.0214382
0.0197092
0.0208097
0.0207311
0.0224876
0.0211412
0.0719651
0.0211112
0.0200086
0.0996042
2.39202
0.0251284
0.0211909
0.0210943
0.0216398
0.0211927
0.0224907
0.0506123
0.1715
0.0220295
0.784195
0.0210813
0.0327188
0.0212398
0.0207455
0.0471713
0.0195666
0.0210203
0.760022
0.0214692
0.0224181
0.0982809
0.0210183
0.0213135
2.32005
0.0203253
0.664341
0.0627635
0.0209187
0.0215165
0.0371885
0.0228475
0.0269878
0.0210535
0.752996
0.748995
0.3883
0.0206533
3.20993
0.0196835
0.0212033
0.0211264
0.0243547
1.1254
0.114637
0.0212453
0.0223784
0.0226125
1.97103
0.075999
0.0210579
0.0357608
0.0239453
2.34256
0.0267815
0.0343348
0.0207538
0.0243623
0.0519226
0.0209267
0.0207557
0.0197564
0.0206851
0.0256036
0.0613406
0.282005
0.745562
0.0335215
0.0233906
0.0211305
0.0205818
0.0480734
2.82147
0.0199322
0.0421559
2.92679
3.04873
0.0213951
0.0212829
0.0422094
0.389792
0.0196714
0.193929
0.0212048
0.02257
0.0290983
0.0214647
0.0216763
0.0217616
0.0206672
0.0220532
0.0649055
0.0469082
0.395921
0.022149
0.0208255
0.224281
0.01974
0.25276
0.446708
0.0212169
1.25153
0.0227457
0.0212871
1.21951
0.277133
0.277824
1.74695
0.0227082
0.876698
0.0197993
4.38843
3.33794
0.0311418
0.0210821
0.479063
0.0237705
0.0510434
0.186834
0.357603
0.0215536
0.510681
0.0207845
0.0439535
0.0812371
0.0207376
0.0293288
1.42421
0.631101
0.0249188
0.0225887
0.0197
0.0218682
0.0225143
0.0302903
0.0871143
0.0208694
0.214019
0.0232255
0.0213935
0.0255985
0.0197482
0.117854
0.0212019
0.0206893
0.43412
0.0206076
0.0224952
0.404594
0.0607665
0.0624159
0.0213917
0.0213833
0.0512248
0.0213714
0.393994
0.0236696
0.0231121
0.0222234
0.0213607
0.0196851
2.58556
0.0197479
2.15861
0.159728
0.0220506
3.07326
0.0205461
0.0270844
0.0246978
1.80782
0.0235332
0.0635979
0.388492
0.021257
0.415394
0.0202901
0.128847
0.0213951
0.0217587
3.54905
0.399572
0.0211835
0.0215568
0.0225835
0.0205418
0.0213854
0.319141
2.23055
0.0207599
0.0205307
0.0203014
1.80358
0.113215
0.0558406
0.0206571
0.03495
0.0217524
0.0214078
0.0279186
0.524862
0.0210609
0.0432452
0.0859914
0.0209177
0.0607179
0.0213912
0.0267538
0.021061
0.0203765
0.0254168
0.0214264
0.053535
0.0213919
3.75892
0.0214946
0.0238101
0.0732204
0.48354
0.0428212
0.0207419
0.0213496
0.378268
0.036879
0.0463265
0.0208267
0.0210928
0.0254209
2.15258
0.414419
0.0207091
0.0211696
0.0219572
0.0215284
0.0219691
0.0211785
0.0210842
0.402319
0.0211947
0.0213208
0.380789
0.0206415
0.216331
0.0859993
2.0964
0.308917
0.391303
2.26319
0.0211865
0.0211051
0.022897
0.0207435
0.0210637
0.0205445
0.0207052
0.0218356
0.59275
0.120445
0.0825445
0.0219261
0.0210648
0.0284266
0.0290641
0.0578484
0.0214024
0.0222649
0.0203496
2.21434
1.54948
0.496722
0.0215437
0.0827178
0.113788
0.0663078
2.15477
0.970557
0.0222973
0.022203
0.0200748
3.85146
0.0215321
0.0198695
0.0713921
0.939372
0.0211657
0.287881
0.0727068
0.0212282
0.0211402
0.0212429
0.0212001
0.021274
0.0227628
0.0288729
0.0212594
0.0215443
0.838771
2.2662
0.0212461
0.334972
0.260981
0.0220972
0.0213517
0.0207929
0.020308
0.0227241
0.0220873
0.0210817
0.0216782
0.0225866
0.0215347
3.53675
0.025949
0.0209215
0.0212145
0.21715
0.0215655
0.0198588
1.85787
0.0210765
0.0327386
0.0254373
0.0213306
0.0208033
0.0205133
0.0237747
0.0378255
0.0210697
0.389382
0.0602863
0.100923
1.00599
0.0219078
0.0662965
0.0197986
0.0831207
0.0220794
0.0211235
0.137921
0.209825
0.021701
0.728685
0.713194
0.0204248
0.0283358
0.0198594
0.0219352
0.0260056
0.0222924
0.0210947
0.0582071
0.0210302
0.0208474
0.487482
0.0208114
0.0210612
0.0208026
3.57659
0.0212492
0.0212628
0.0284881
1.59772
0.434279
0.188708
0.481828
0.0210404
0.0197262
0.0213399
0.394077
0.0217262
0.0209255
0.023027
0.0203114
0.109567
0.0215629
0.0215183
1.56623
0.0211477
0.0598038
0.421945
0.0197234
0.0212519
1.45185
0.022747
3.49697
0.247632
0.0205796
0.0214097
0.605271
0.0206797
0.023093
0.398907
0.0201126
0.573559
0.0212295
0.0211715
0.0212641
0.0291001
0.0223679
0.586237
0.0224762
0.0209814
0.398556
0.388897
0.0384826
0.0257504
0.0558193
2.22865
1.59231
0.0196743
2.27349
0.0214635
2.3923
0.838604
0.0207719
0.0236598
0.0215805
0.400223
0.0207723
1.85245
0.0208091
1.57101
0.117678
0.0206131
0.0196916
0.021194
0.938057
0.106457
0.0212041
0.713208
0.0215169
0.0210601
0.576587
0.0212859
0.556448
0.0208178
0.0231848
0.020953
0.0208208
0.0209913
0.0207761
0.078337
0.0263964
0.0290656
0.0312434
0.0217686
0.0212293
0.476127
0.0212563
0.587917
0.0215435
0.514947
0.0255234
0.291786
0.0205097
0.0206965
0.0210352
3.02839
0.0210814
0.422461
0.0542143
0.0213951
0.0253125
0.0212521
0.0206219
0.0230505
0.0208354
0.493493
0.0212137
0.022398
0.0212108
0.0226303
1.78504
0.758576
0.0213757
0.0208148
0.0214269
0.0216994
0.0211189
0.0232276
0.0218338
0.0211849
0.0202953
0.0204624
0.179414
0.0804211
0.0213082
0.0203029
0.329792
0.0221309
0.688305
1.50659
0.021777
2.30453
0.0222345
0.0205388
0.0210354
0.0229037
0.0307765
0.0203745
0.0319254
0.442
0.0387222
0.276675
4.43798
3.14357
0.0277112
0.021519
0.0214244
0.417003
0.0202913
0.0213441
0.0288793
0.065744
0.0210093
0.020645
2.75194
0.0233969
0.0221318
0.0221133
0.0232502
0.0379764
0.0214172
0.0236884
0.0212232
0.0285559
0.022407
0.0216883
0.0216718
0.555537
0.0217155
0.0212388
0.406191
0.0196911
0.0209319
0.0212854
0.0221114
0.021639
0.841009
0.107571
0.452394
0.369043
1.62984
0.295314
0.0218789
0.490379
0.399368
0.0213682
0.0219956
0.0214951
0.0214264
0.0221719
0.0220501
0.0837656
0.108388
0.0213249
0.0202556
0.036747
0.0224004
0.309001
0.0209352
0.0218915
0.0210781
0.18212
0.454557
0.0286811
3.77001
0.0211193
0.0210895
0.07443
0.0254794
0.0210724
0.102387
0.0217804
0.0237277
0.400132
0.0834086
0.0283444
0.0214681
0.0216194
0.0217807
0.0206458
0.400275
0.0748245
2.87702
0.0497233
0.498679
0.0217369
2.15724
2.83271
4.40857
0.101574
0.860247
0.0250516
0.126626
0.10344
0.0297733
0.0195438
0.0211723
0.021402
0.03507
0.020814
0.0212172
0.0340971
2.09949
0.618076
0.335912
0.0757035
0.535898
0.0261074
0.0230914
0.0212484
2.42892
0.178489
0.0206308
0.0289601
0.329077
2.54142
2.97925
0.0332144
0.0514567
0.0197357
3.44177
0.0217105
0.416678
0.0972177
0.0276367
0.119731
0.107135
0.0213993
0.0212332
0.560121
0.0581813
0.177661
0.0217409
0.0212561
0.0232226
0.443657
0.0239322
0.313248
0.0217567
0.342958
0.130804
0.0241432
0.0860823
0.0742232
3.141
0.019735
0.0313681
2.73639
0.0272071
0.0211591
0.268351
0.557748
0.0211428
0.021253
0.246215
0.0221999
0.0221531
1.75606
0.0820873
0.0214063
0.0280387
0.115317
0.0291531
0.0227478
0.0226629
0.327926
0.0240853
0.0207419
0.0209945
0.0733713
0.0207717
0.293968
0.0204401
0.0206679
0.348633
0.0216205
0.021123
0.0339837
0.0196847
0.023121
0.0204807
0.0210861
0.0214928
0.0780276
0.0213137
0.318668
0.132989
0.558484
3.47435
0.0236572
0.0205684
0.0207748
2.67731
0.0253666
0.0211221
0.318177
0.0311802
0.742081
0.020151
0.0204282
0.0205802
0.0208145
0.0212412
0.019895
0.0219771
0.0222493
0.0212974
0.0790275
0.0280516
0.315805
0.022049
0.0204837
0.025225
4.39902
2.97141
0.517412
3.79604
0.401235
0.104936
2.87434
0.0222619
0.0328305
0.043483
2.66069
0.0209804
0.22867
0.0929104
0.157976
0.0211889
0.473696
0.0210608
0.021241
0.0210944
0.0292988
1.68125
0.297583
0.0215452
0.0195823
0.0204303
0.0201447
0.0275182
0.0213425
2.79939
0.063351
0.030277
0.0218167
0.0211512
0.0198606
2.70886
0.559676
0.0211411
0.0209029
0.29641
0.0201315
0.0213406
0.0203085
0.0212087
0.021478
0.0212893
0.0205015
0.054341
0.0229354
0.171027
0.0239611
0.0216215
0.265286
0.0215426
3.82626
0.0216291
0.0478079
0.12449
0.370113
0.0317333
0.0892998
3.13562
0.0225508
0.0296296
0.0223194
0.0211738
0.0204795
0.0209407
0.0836308
0.0359872
0.0236996
0.0749333
0.0204607
0.0213805
0.0351672
0.281106
0.0196707
0.0411666
0.305238
0.102851
0.569663
0.0217562
0.0215043
3.07872
0.026607
0.020856
0.0211352
0.11155
0.020551
0.0206456
0.596043
0.0584594
0.0223497
0.0219747
0.0215345
3.05023
0.0235695
3.32012
1.82686
0.0212258
0.0210183
0.585332
0.031595
0.0235144
0.0222174
0.0245155
0.0251919
0.0208263
0.0233484
0.157657
0.0390341
3.7878
0.373902
0.0335882
0.393719
0.678581
0.020671
0.498921
1.85117
0.0225634
4.47076
0.0215143
0.173754
0.0794239
0.443335
0.0240451
0.0505185
0.0277386
0.330038
0.0210623
0.0198688
3.69428
0.0228625
0.0211486
0.0211819
0.0216609
0.0198576
0.0218858
0.020992
0.0211771
3.73226
1.42466
0.0210984
0.0217345
0.0882307
0.401307
0.0197111
0.186431
0.077128
0.0446206
0.0213923
0.0209792
2.75836
0.0216837
0.0538114
0.0868281
0.0206516
0.0232261
3.60268
0.0208753
0.439017
1.27422
2.8289
0.0218407
0.0208879
0.0212936
0.0211321
0.0211945
0.318976
1.31988
0.020344
0.0550367
3.30181
0.0218494
0.0215256
0.021197
0.452496
2.97696
0.0384417
0.0329407
0.0229271
3.65341
0.337971
0.0205078
0.0210765
0.0257196
0.0338061
0.371624
0.322415
0.0206838
0.0808149
0.339313
0.0231172
0.0208674
0.0215436
0.0231314
0.0210234
0.0219327
0.020633
0.0359524
0.351282
0.0213493
0.021517
0.0316749
0.0206638
0.021089
0.0217701
0.353149
0.0205958
0.0225351
2.22545
0.160799
0.0797919
0.0767575
0.0218002
0.0217005
0.0220625
0.0204063
0.0210734
0.0219136
0.213573
0.026215
0.022123
0.0314521
0.0203367
0.418277
0.182585
0.0212184
0.312375
0.020762
0.0225201
0.165953
1.5511
0.0236829
0.0232765
0.0234423
0.035023
0.019722
1.29808
4.30828
0.0206253
0.0781938
0.481438
0.021356
0.0222833
0.363828
0.0702954
0.0215562
0.434378
0.0240681
0.0211835
0.81554
0.7571
0.0584667
0.020744
1.22439
0.0302008
0.0198397
0.0494485
0.028651
0.0215814
0.0443106
0.333527
0.432825
0.0351764
0.0414098
0.0206101
3.89754
0.314256
0.180588
0.229594
0.0213591
0.797296
0.0213614
0.0210293
0.0452343
0.0219568
0.0464267
0.337134
0.0215836
3.87012
1.03893
2.25732
0.02752
0.0671081
0.0196738
0.0217203
0.0230969
0.0196492
0.811902
0.728352
3.80002
0.0700991
0.113324
0.440395
1.45955
0.0212052
0.0225758
1.84436
0.0597673
0.0213652
0.0211389
0.463564
0.0328891
0.0258953
0.0212386
0.0214779
0.0641783
0.0211459
0.0867897
0.321713
0.0198476
2.79396
0.0202553
2.20244
0.210059
3.00433
0.0223094
0.433946
0.0214454
0.0210825
0.0221513
2.78419
0.0352697
0.41893
0.0214591
0.0211384
0.305385
3.91497
0.0215769
0.115718
0.224603
4.37311
1.4657
0.0208657
0.0213874
0.43535
0.0196648
0.0203295
0.023843
0.0212299
0.021457
0.0208352
0.0211276
0.0238125
0.0211682
0.0282862
0.0268964
0.0208557
1.78391
2.65554
0.0242655
0.0202717
0.0212863
0.0355698
0.0213501
0.0212421
0.0213497
0.0954028
0.021146
0.0225734
0.0227931
0.0366903
0.440311
0.0209199
0.0542351
0.0438512
0.0256992
0.0688135
0.0373773
0.0207362
0.021197
0.0285265
0.0273235
0.0230095
0.70236
3.13197
0.0212916
2.17639
0.0219782
0.0699914
0.725463
0.776259
2.16033
0.0227441
0.0210724
0.989133
0.0227966
0.673766
0.0324808
0.348691
2.15713
0.0206574
0.0395849
0.0210739
0.0340058
0.0873263
2.25759
0.0210054
0.0213532
0.0964932
0.0216922
0.799502
0.0206194
0.44606
0.980419
0.0440145
3.27982
2.76093
0.0207755
0.0209064
0.0213414
0.298471
0.294582
0.0217485
0.0225779
0.0217719
0.0202813
0.0262646
0.0207977
0.020394
0.0644194
0.0217097
0.0203635
0.0236778
1.04497
0.858627
2.83599
0.0215283
0.0536161
0.0227601
0.0249096
0.105789
0.658323
2.77698
0.0203154
0.0386522
0.0197084
0.0347932
0.0346104
0.055157
0.260089
0.0216718
0.0859417
0.020257
0.35631
0.352563
0.0203941
0.0223029
0.0220443
0.0220791
3.27157
0.0213323
0.0213605
0.0219564
0.0217003
0.0204733
0.0223364
0.0212968
0.0217268
0.0213455
0.0211067
0.538148
0.509745
3.55342
0.0200612
0.0197196
0.0197779
0.0201261
0.0198893
0.0324005
0.0198289
0.0206104
0.0212486
0.0208549
0.028715
0.0212544
0.706788
2.21265
0.0392526
1.82642
0.0215252
0.242293
0.0477398
0.236193
0.0205482
0.825589
0.0220463
0.0213471
0.0213756
0.0570156
0.0986392
0.0209163
0.0296643
0.0270538
0.0211758
0.0401185
0.457018
0.028566
0.0209032
0.0229048
1.0122
0.0243134
0.475356
0.0209233
0.0220601
0.02135
0.0224472
0.028743
0.359894
0.0300082
0.0203603
2.18619
0.0359301
0.0374112
0.0210573
0.023859
4.10847
0.0206651
0.0217448
0.0269658
0.580632
0.0198307
0.0210387
0.0204478
0.0297444
0.0214489
0.571122
0.0213792
0.0249685
0.0278449
3.69581
0.0206371
0.0204166
0.0197189
0.0300214
0.0202649
0.820701
0.43841
0.028887
0.445486
0.0212758
2.21772
0.0214023
0.0205814
0.0365534
0.0554917
0.165168
0.324568
0.252627
0.300021
0.0261745
0.0343662
0.0221512
0.0480869
0.0213624
0.0218123
0.1535
0.0216573
0.437781
0.273826
0.251963
0.391444
0.328699
0.731144
0.565076
0.078555
0.0221065
0.0330762
0.0213524
0.0203726
0.0210388
3.33617
2.99633
0.440886
0.0244106
0.0234376
0.433352
0.0209343
0.0290672
0.0204158
0.0361615
0.0211998
0.0199096
0.0220681
0.0405008
2.17394
0.0282202
0.0276754
0.0204218
0.0271958
0.193059
0.0202618
0.0601602
3.66308
0.0196594
0.0572419
0.0205679
2.87635
0.0216201
4.05126
0.0218206
0.0214979
0.0248872
0.0343942
1.76693
0.0333412
0.361056
0.0225473
0.0213502
0.0213714
0.021515
0.0203493
0.0213036
1.76008
2.96888
0.0275976
0.021056
0.024921
0.0230438
0.0215669
0.0214491
0.0884783
0.44715
0.383684
0.0212327
0.430946
0.0205567
0.0628933
0.0225179
0.040004
0.229151
0.443805
0.377295
0.0199348
0.0213188
0.0209471
0.021162
0.0213506
0.0211376
2.72151
0.021493
0.021641
0.0217991
0.0326657
0.0211305
3.16173
3.01728
0.332223
0.0213839
0.264255
0.0203382
0.435666
1.05167
0.0221873
0.332721
0.0236482
0.0640799
0.0207113
0.021502
0.0275871
0.0462342
0.107747
0.18553
0.153448
0.133091
0.0307671
0.022089
0.0212087
0.366304
0.0231592
0.843878
0.0220132
3.81385
1.02889
0.393144
0.0222272
0.0973064
0.0233855
0.0211454
0.0201476
0.0226285
0.0679678
0.021243
0.468728
0.038498
0.111773
0.0210845
0.0247826
0.24538
0.424154
0.402584
0.0244215
0.0243219
2.9235
0.0783674
0.0216958
0.042664
0.355223
0.0652909
0.801988
0.0249389
0.0259554
0.208521
0.019875
0.288312
0.0488074
0.0213386
0.0722626
0.368097
1.83486
0.0228761
0.121173
0.027009
0.0204168
0.0534565
0.0218031
0.197886
0.0204591
2.2157
2.37001
0.717823
0.327162
0.103839
1.0156
0.0238927
0.0308267
0.344842
3.19975
0.0224214
0.0218814
0.02103
0.0250732
0.0199085
0.0210542
0.940578
0.02105
0.0206085
0.0282427
0.0219303
0.019829
0.0403662
1.01443
0.0587829
0.0212048
0.0213626
0.0281257
0.0222317
0.021049
0.020951
0.0203993
0.694058
0.0249964
0.0544779
0.0253351
0.0212228
0.0198942
0.221848
0.149488
0.078773
0.0273292
0.0216446
0.0350824
0.0209445
0.0268766
0.4133
1.70702
0.0328562
0.0231356
0.0202753
0.0268635
0.465702
0.334705
0.338007
0.0246563
0.0203289
0.0205942
0.0241685
0.0897517
2.41726
0.0204506
0.435379
0.0198913
0.0210022
0.0900487
0.0208676
0.824426
0.0936766
0.426172
0.0198276
0.0319319
0.0406402
3.12261
0.020309
0.0214518
0.168651
0.560332
1.38579
0.11841
2.44609
0.0222126
0.183496
0.024776
0.0317968
3.26265
0.0240591
0.0209429
0.0215461
0.0200829
0.12311
3.8712
0.0240485
4.40925
0.0201336
0.020954
0.0214996
0.128218
0.0303708
4.30252
0.0213914
0.021836
0.0323098
0.501369
0.0203276
0.425525
0.0206609
0.0227784
2.24453
0.0208664
1.57091
0.809861
0.49516
4.30596
0.0212191
0.023364
0.022365
2.54521
0.0321609
0.0213879
3.66609
0.0721786
0.0196507
0.0225038
0.950815
0.0204335
3.12984
2.20995
0.0244506
0.0197267
0.0235529
0.0245075
3.81884
0.0205687
0.0308346
0.0221299
0.6456
2.77458
0.0212314
0.0201822
0.152728
0.024803
0.0214845
0.0210495
0.020891
0.0543188
0.0228299
0.382206
0.0217915
0.0216481
0.0207551
0.0224202
0.0225188
0.0225154
0.801778
0.360773
0.431632
0.0217704
0.0203169
0.279478
0.0253889
0.0653658
0.877897
0.10775
0.35127
2.40546
0.0203079
0.120515
0.051732
0.0221978
0.0208372
0.0213946
0.021379
1.77193
0.282818
0.02136
4.44032
0.640878
2.56935
0.0197722
0.0205891
0.552204
0.020896
0.021463
0.0239862
0.0210347
0.237713
0.0226764
3.23457
0.317876
0.020804
1.3381
0.0649778
0.443594
0.297517
0.0212811
0.0236059
0.0326462
3.79337
0.261394
0.0488081
0.0217058
0.0213962
0.0876857
0.0204333
0.366981
0.841734
0.0209335
0.128798
0.0203843
2.6696
0.0215096
0.326618
0.0221135
1.81398
0.196538
2.28187
3.6734
0.0200703
0.549014
2.32286
0.0218161
2.37103
0.0217547
0.0199708
0.0212151
0.0261161
0.0233629
0.0215191
0.0209882
0.0683087
0.0412296
0.0468198
4.50051
0.0573976
0.0268767
0.0221115
0.0611066
0.020168
0.0949724
0.412322
1.74072
0.39809
0.0223191
0.0232827
0.0221903
0.0370786
0.0226485
0.0210669
3.18575
0.920014
2.76347
0.022061
0.0215316
0.0446395
1.72673
0.0217979
0.020412
0.02221
0.0223876
0.0403751
0.0212593
0.442933
0.0216923
3.00203
0.0205771
0.0552211
0.689126
0.678474
0.0200724
0.0901171
0.0213674
0.0203935
0.0732079
0.803245
0.0210099
0.0220273
2.26091
0.0213021
0.0584566
0.0962041
0.0253445
0.809525
0.021445
1.35328
0.028429
0.281757
0.0203067
0.0206705
3.5269
0.0208264
0.327202
0.023668
0.0281547
2.87123
0.0221956
0.0213952
0.0220501
0.0210385
1.2038
2.285
0.0203979
0.443204
0.0547987
0.260986
0.0212211
0.0714768
0.0952664
0.0261221
0.0282882
0.0213636
4.3656
0.0199968
2.62919
0.0202964
0.0205827
0.0233165
0.021554
0.0206709
0.0628921
0.0229805
0.0210168
0.281174
0.0204325
0.0451602
0.02514
0.237427
0.0279737
0.0205999
0.0301227
0.020979
0.0209493
0.0234919
2.29858
0.162548
0.282728
3.2629
0.0203852
0.0211426
0.0212725
0.0209064
0.0202185
0.338486
0.0198443
0.0232446
0.18787
0.0220761
0.220915
0.0214804
0.0203904
2.58692
1.73149
0.02157
0.0457455
0.0240319
0.34325
0.0210592
0.0225164
0.461295
0.021432
0.126562
0.17321
0.0220464
0.0220872
3.5607
0.0236374
0.0566593
1.4312
1.08378
0.0231591
0.0224159
0.0336975
3.5533
0.0218342
0.844838
0.742001
1.25176
2.23303
0.0204675
0.0213679
0.0211655
0.114132
0.480505
0.233587
3.01976
0.0200563
0.552658
0.0205355
4.4048
0.0212063
0.0378682
0.10569
0.0219636
0.0219296
0.104925
0.0247655
0.0217115
0.0219316
0.0655463
0.0230023
0.0209305
0.388669
0.021759
0.0217667
0.0211265
0.70878
0.0256278
0.362394
0.0271423
0.0228574
2.21797
0.0241981
0.0939413
0.020379
0.0211756
4.03923
2.9741
0.50824
0.0214433
0.0234407
4.52163
0.0962185
0.0960996
0.0984276
0.160599
0.370658
0.0203692
0.72159
0.0206243
0.0640299
0.0536129
0.0968908
0.0968415
0.0221993
2.16607
0.0713825
0.373951
0.0359906
0.0210597
0.0213392
0.0213245
0.0748504
0.0205129
0.0861785
0.0688402
0.432547
0.0202198
2.48652
3.98395
0.331427
0.348301
0.0221404
0.0216746
0.0210813
0.0252428
0.0213779
0.0242942
4.24972
0.0211646
0.0222136
2.92177
0.331461
0.32609
0.0246801
0.0296532
0.0207828
2.33113
0.022002
3.66087
0.0417789
0.0704347
0.0280514
0.0939497
1.5489
0.0212777
0.0211852
3.53251
0.185294
0.290578
0.138112
0.045901
0.0208227
0.0816011
0.0214176
0.0664903
0.0213815
0.0225491
0.34081
0.0219973
0.0939722
0.0205526
4.08881
0.784447
0.028521
0.0283565
2.49377
0.0255836
0.0202866
2.42213
4.03749
2.43581
0.0208921
0.0217476
0.859236
4.26905
3.74277
0.0214878
0.0226864
0.0215775
0.0253235
0.0217114
0.0206652
0.803305
0.0209408
3.07839
0.0230846
0.090053
0.0200707
4.2855
0.133248
0.10183
3.02923
0.493497
0.0206187
0.0784633
1.76215
0.0208506
0.0216773
0.0213419
2.21819
3.476
0.0214783
3.05059
0.0380544
0.0212379
2.68567
0.0227586
0.0697479
2.21807
2.20207
0.0211955
2.66265
0.0251276
0.020245
2.89341
0.0431469
0.374599
2.06849
0.0279837
3.35505
0.158169
0.0257526
0.542807
3.96778
2.76747
0.0220562
0.0200274
0.0211186
0.0224111
0.313979
1.19986
2.96844
1.78262
0.0244497
0.0200155
0.0208745
0.0234203
0.333103
0.0211975
0.413687
0.282027
0.0203728
0.0221876
2.98476
0.0625757
0.83
0.573598
0.0213302
3.3394
0.365016
0.91905
0.0224617
0.0240969
0.11054
0.0213352
0.0226423
0.0998043
0.0234344
0.0794481
2.1332
0.0215885
0.100729
1.56327
0.0511006
0.0378958
0.331913
0.23063
3.47473
0.0213582
0.738355
3.98021
0.0429003
0.022046
0.0205255
0.021729
0.0214308
0.522302
0.0224309
2.90658
0.022453
0.0212449
2.72695
0.977621
0.0202771
0.0211289
0.432088
0.411526
0.0213814
0.0204561
0.0250714
0.0252616
0.189214
0.0571438
0.0205531
0.0974432
0.0219833
0.394775
0.112399
0.424475
0.0212748
0.0367674
2.40153
0.421811
0.0219765
0.133875
0.435319
1.36951
0.0202302
0.022439
2.62992
0.133991
0.0571059
3.0136
0.0214218
0.0619313
0.0226558
0.0554366
0.0730934
0.626801
0.135423
0.0237318
0.0209199
0.0310684
0.349614
0.0213454
0.0318191
0.332942
0.0716354
0.0206668
3.01278
1.38966
0.0610619
0.0224931
0.0215454
0.0215149
0.0245069
0.0393751
0.274597
0.0957153
0.0204342
0.0212939
0.360383
0.210173
0.0214427
0.338778
0.21432
0.0224737
2.47356
3.91597
0.020264
4.2582
3.70993
3.06617
2.44239
0.0207562
0.294468
0.1261
0.0220549
0.0239035
3.59339
0.360732
3.3155
0.0255498
0.0212947
0.0248027
3.87945
0.0219368
0.401282
0.0197583
0.0216689
2.92953
0.331714
0.0337225
0.6046
0.0565671
0.0227055
1.27353
0.781306
0.205201
0.273921
0.0607562
0.0660745
0.0213387
0.0213099
0.054289
2.40191
2.32655
0.278098
0.118264
0.33798
2.56989
0.0295681
0.0209762
0.0217481
0.0645779
0.398799
0.0204614
0.0591448
0.468797
0.0937485
0.279207
0.0862044
2.92301
0.0217545
0.0226007
0.443568
0.0308568
0.021764
0.022344
0.255019
0.0299408
0.0551009
0.0204054
0.0213027
0.366633
0.406564
0.0222681
0.315488
0.280016
0.0847114
0.0223178
0.256944
0.0210488
2.19723
0.105649
3.26172
0.0215345
0.169106
0.0200551
0.0213017
0.701326
0.334093
0.182733
0.0203984
0.20229
0.430997
0.496695
0.917962
0.0381821
0.0223621
0.269082
0.172868
0.021222
0.0209446
0.120625
0.717469
0.283626
0.0255088
2.30666
0.0203631
0.0217616
0.0821142
0.067168
0.0211793
0.438709
0.0214269
0.0215187
0.0220777
0.0222407
0.244553
0.509145
0.0196415
0.0899872
0.0208892
0.0331452
2.88629
0.0218732
0.301033
3.47241
0.186502
0.198178
0.021471
2.18925
0.0223795
0.137049
0.0207434
0.128411
0.0324466
0.0248049
0.0214689
0.114592
0.0645458
0.168349
0.21222
0.0217939
0.0202673
0.368836
0.132149
0.0323172
3.01306
0.0237895
3.61574
0.021472
0.1817
0.123135
0.434845
0.0202848
0.20031
0.0562619
0.14457
0.0224377
0.0238452
0.0240822
0.0236158
0.0240462
0.0237699
0.0236173
0.0210502
0.094027
2.17585
0.501473
0.0246473
0.0212054
2.48653
0.941106
0.0212161
0.0624524
0.0233835
0.0227862
0.901583
0.374392
0.0202297
2.38392
0.021468
0.335991
0.182197
0.161932
0.0232115
0.0218726
0.0231137
0.0204348
0.0224468
0.343508
0.281771
0.0326148
0.360198
0.142216
0.0213617
0.043101
0.977516
0.0215057
0.024068
0.168701
0.0236508
0.0596517
0.0236592
0.0240751
0.0502749
1.19974
0.097847
3.04151
0.0249617
0.203928
0.0669163
0.185497
0.0660099
0.0265524
0.021053
0.0243668
0.148297
0.339234
3.71371
0.0209781
2.42833
0.363826
0.322796
0.130623
0.123665
2.71865
3.75289
0.019756
0.0999357
0.023938
0.183299
0.233018
0.371485
0.0211217
0.381707
0.0526693
0.121727
0.0210481
0.304278
0.0231082
0.151579
0.0226569
0.0917489
0.160412
0.0251208
0.0208482
0.021715
2.40008
0.0207689
0.20972
0.0658992
0.231566
0.02707
0.431891
0.0747977
0.0212129
0.020714
2.19175
0.0233126
0.0208511
0.0211488
0.0630433
4.30352
0.11416
0.021391
0.0362462
0.364691
0.429499
0.0465938
0.0209645
0.0496756
1.29758
0.0261974
0.0233376
0.020807
4.38446
0.0207005
3.49144
0.327643
0.0452135
0.0950473
0.0373334
0.0202805
0.022553
0.472076
0.0230386
0.0249959
0.0210991
0.021322
3.28967
0.302622
0.101821
0.0205104
2.76524
0.07454
0.331272
0.0212268
0.0269855
0.0244851
0.138731
0.0212632
0.0591437
0.370733
0.096846
0.0245938
0.0208288
0.0260049
0.0262103
0.0489993
0.020213
0.0216845
0.0215495
0.0215043
2.96086
2.15517
0.260397
0.0356024
0.0220218
0.0196727
0.264287
0.738769
0.438166
0.0240264
0.0904631
0.0213013
0.0217256
0.0802688
0.0207304
1.53497
0.0217576
3.40977
0.0201784
2.33255
0.0214471
0.346164
0.36123
0.0917739
0.165183
0.0196705
0.611156
0.0203047
0.11733
0.859051
0.147654
0.0206088
0.0622958
0.0981331
0.0617967
0.105546
0.0410219
0.10964
0.0200724
0.0339076
0.0204023
0.357538
0.183764
2.4485
2.60302
0.0217004
0.360478
0.0209301
0.0210302
0.159046
0.0201443
0.0210287
0.0210903
0.0210333
0.195878
0.0222997
0.0230938
0.0219821
0.0212599
0.021097
0.0223992
0.024231
0.021462
0.0312077
0.035334
0.0222481
0.35925
0.0231128
0.05752
0.0677464
0.0388525
0.0479682
0.0890598
0.178058
0.0567493
0.284743
0.431609
0.271141
0.0203579
0.0208994
0.0236151
0.0199029
0.0984959
0.0297038
0.0202015
2.60925
3.34394
1.80387
0.0354404
0.0586643
0.042339
0.0213796
0.612047
0.106234
0.0222205
1.20821
1.50316
0.0215539
0.315761
0.704776
0.343407
0.0509435
0.0650132
0.0471315
0.0206449
0.0198561
0.455709
0.320292
0.736007
0.0229566
0.021112
1.81067
0.0469369
0.0230984
0.0198232
0.244262
0.020258
0.0243186
0.0258242