/*--------------------------------*- C++ -*----------------------------------*\
| =========                 |                                                 |
| \\      /  F ield         | OpenFOAM: The Open Source CFD Toolbox           |
|  \\    /   O peration     | Version:  v2012                                 |
|   \\  /    A nd           | Website:  www.openfoam.com                      |
|    \\/     M anipulation  |                                                 |
\*---------------------------------------------------------------------------*/
FoamFile
{
    version     2.0;
    format      ascii;
    class       surfaceScalarField;
    location    "300";
    object      phi;
}
// * * * * * * * * * * * * * * * * * * * * * * * * * * * * * * * * * * * * * //

dimensions      [0 3 -1 0 0 0 0];
oriented        oriented;


internalField   nonuniform List<scalar> 
27882
(
0.512776
-0.363622
-0.149152
0.485799
-0.196932
-0.288866
0.271578
-0.532481
0.26091
0.166464
0.346314
-0.222356
0.349014
-0.126655
-0.426145
-0.102121
0.528267
0.185338
0.188185
-0.373513
0.119264
-0.330372
0.211112
-0.33978
0.117427
0.246718
-0.372387
0.125672
0.379299
-0.528506
0.149208
0.462977
-0.133922
-0.329055
-0.366346
0.117443
0.248905
0.332136
-0.164838
-0.167295
0.104838
-0.430593
0.325769
-0.428584
0.147994
0.280606
0.124962
0.338016
-0.313517
-0.168303
0.381876
-0.277026
0.176344
0.138668
-0.315009
-0.469798
0.33916
0.130639
0.0366352
-0.115318
0.078683
0.0868035
-0.512948
-0.333767
0.540322
-0.206554
0.107252
-0.0706167
0.17618
-0.104084
-0.0720955
-0.197869
-0.0804807
0.27835
0.22887
-0.1413
-0.0875698
-0.186786
0.0411027
0.145683
0.492603
-0.339893
-0.152709
-0.162485
0.249671
-0.0871861
0.0290933
-0.226962
0.30699
-0.187723
0.0727805
-0.117356
0.044576
-0.166763
0.337391
-0.170625
0.190312
0.302292
-0.259424
-0.106919
0.182254
0.206728
0.0540593
-0.260787
0.395651
-0.477074
0.0814231
0.474344
-0.360398
-0.113946
-0.184983
-0.165186
0.350173
0.443715
-0.192394
-0.251321
0.468211
-0.334711
-0.133497
0.520672
-0.361839
-0.158811
-0.218013
0.136323
0.0816893
-0.333511
0.148531
-0.184659
0.02276
0.161899
0.0224359
-0.0179748
-0.00446114
0.505815
-0.354125
-0.151689
0.530709
-0.151408
0.074696
-0.0973163
0.0226203
0.186945
0.318872
-0.392635
0.168429
0.224209
0.0645995
-0.133016
0.068417
0.367323
-0.249878
0.484772
-0.461788
-0.0229809
-0.156581
0.332927
-0.183167
0.167581
0.015586
0.365683
0.119092
0.489075
-0.0788413
-0.410216
0.333141
0.135074
-0.0411883
-0.14243
0.0129169
-0.141752
0.128836
0.0241726
0.464924
0.0827974
-0.0508857
-0.0319117
-0.0179507
0.401714
-0.383749
0.62559
-0.298972
-0.326617
0.0621758
0.166694
-0.544992
0.231475
-0.0287276
0.103424
0.0849979
0.0554239
-0.140422
0.144636
-0.398912
0.254287
0.164458
-0.283576
0.119118
0.239494
-0.289361
0.0498671
0.0375987
-0.200083
0.0333946
0.158546
-0.191941
-0.273984
-0.0882494
0.362233
-0.0930599
0.318182
0.125534
0.140906
-0.150954
0.010048
-0.0490821
0.25581
-0.289903
0.0159199
0.0123196
0.211178
-0.223496
-0.539981
0.260785
0.2792
-0.133114
0.0275609
0.105553
0.19703
0.0533038
-0.140996
0.305456
-0.197574
0.156386
-0.136497
0.00338283
-0.029031
0.0561797
-0.0271488
-0.350039
0.509128
-0.159064
0.139914
-0.159202
0.0192884
0.0183875
0.00404848
-0.249112
0.393759
0.522773
-0.101085
-0.421678
-0.339443
-0.13489
0.474333
0.176516
-0.169122
-0.00739309
0.369383
-0.294238
-0.0751453
0.17918
-0.380595
0.201424
-0.169217
-0.048795
0.329544
-0.227848
-0.101695
0.31622
0.309371
0.428628
0.0941559
0.0370062
0.0457912
-0.288237
-0.18156
-0.155943
-0.0287157
-0.0471383
0.0181073
-0.0966696
0.258199
-0.16153
0.416939
-0.153354
-0.263584
-0.138214
0.441679
-0.303447
0.123574
-0.110657
0.280933
-0.466968
0.186038
0.476375
-0.472787
-0.00357945
0.121485
0.20806
-0.149555
0.0185464
0.131009
0.180606
-0.00409035
0.554881
-0.264013
-0.290866
-0.0190915
0.141818
-0.122727
-0.342977
0.4906
-0.14762
0.5505
-0.386835
-0.163653
0.173045
-0.13965
-0.208792
-0.331186
-0.507616
0.0744095
0.433211
-0.0205861
0.0213199
-0.000733718
-0.221119
-0.171513
-0.502845
0.341512
0.161337
-0.421406
-0.0862051
-0.0506486
-0.103961
0.15461
-0.0125079
0.0144781
-0.160407
-0.526408
0.274557
0.251869
-0.230951
0.241235
-0.0102836
-0.00200593
-0.0405502
0.0425562
-0.141493
0.537145
-0.352086
0.481165
-0.129068
0.10346
0.0953883
-0.198849
-0.402605
-0.0631479
0.465756
-0.179686
0.0299392
0.149747
0.140713
0.000193312
0.430221
-0.149285
0.468293
-0.145603
-0.322689
0.19675
-0.185731
-0.0110181
-0.272447
0.175778
-0.0209358
0.000349628
0.171323
-0.164111
-0.00721124
0.0726192
-0.035613
-0.022161
0.149192
-0.127031
-0.190103
-0.338402
0.0364463
0.100667
-0.137113
0.0115332
0.00918153
-0.0207148
0.0146115
-0.0138231
-0.000788356
0.0535198
-0.258331
0.204816
-0.377827
0.102804
0.275026
0.239951
0.234393
0.195653
-0.0458419
0.159493
-0.0195787
0.0783586
-0.129007
-0.237193
-0.0393214
0.276516
0.295697
-0.0986861
0.0648231
0.033863
0.354755
0.0306172
-0.385368
0.0102674
-0.0151578
0.00489036
0.0265412
0.046078
-0.203517
0.12858
0.0749377
-0.547741
0.247481
0.300262
0.413616
-0.0588573
-0.0671189
0.101902
-0.0347833
-0.0165038
0.00399592
0.417181
-0.415917
-0.00126418
0.00426526
0.0072102
-0.0114755
0.4079
-0.136316
-0.172194
0.168482
0.00371228
-0.250346
-0.172088
0.0544036
0.203796
0.135208
-0.391893
0.256691
0.141936
-0.391038
0.0558879
-0.134671
0.0787834
0.11514
-0.0423594
0.229581
0.046586
0.520349
-0.245095
-0.275253
-0.130207
-0.177489
0.307697
-0.0666012
0.131201
0.141365
0.165317
-0.103699
-0.0321711
0.13587
0.421335
-0.316913
-0.104412
-0.335971
-0.0039218
0.349721
-0.293798
-0.0559215
0.0160906
0.00229689
-0.0750716
-0.12684
0.201912
0.00447608
0.0101354
0.27799
0.143357
0.0608854
-0.167605
0.106719
0.205629
0.0326446
-0.238273
-0.539362
0.219696
0.319667
0.236038
-0.314443
0.0784074
-0.156276
0.0201337
0.136143
0.317142
-0.263616
0.0184067
-0.00231608
-0.494002
0.0769022
0.417103
-0.192455
-0.254295
0.446753
0.199049
-0.120691
-0.184072
-0.0406758
0.224748
-0.147812
0.427499
-0.279671
-0.401595
0.263398
0.0135379
-0.0032705
0.092946
-0.363892
0.270951
-0.0404343
-0.0123735
0.00834021
0.554522
-0.375499
-0.17902
-0.114651
0.152535
-0.0378835
-0.462994
0.270542
-0.134416
0.424816
-0.290396
0.107061
-0.327335
0.220276
0.16421
-0.503652
0.00244749
0.390131
-0.392555
0.0448419
0.341945
-0.444066
-0.0467132
0.403306
-0.356593
-0.0894016
0.295031
-0.171035
-0.280358
0.451396
0.180314
0.0164364
0.0667369
0.132313
0.0301682
-0.21424
-0.323153
0.42124
-0.0980868
0.269798
-0.0303028
-0.073196
0.133914
-0.0607175
-0.0276198
-0.0710663
0.345005
-0.252053
0.0858774
0.0903023
0.158626
0.0126969
0.251764
-0.19736
0.0619073
-0.413982
-0.482907
0.147449
0.335472
0.275811
-0.446843
0.0697183
-0.208737
0.139019
0.0220021
-0.0157449
-0.00625721
-0.150861
0.00870248
0.142159
-0.342683
0.26235
0.0803353
0.102006
0.322972
-0.424963
-0.134249
0.203968
0.0260415
-0.198704
0.172663
-0.342006
-0.169942
0.511952
0.132076
-0.09563
0.161518
-0.0281695
-0.133349
-0.477435
0.342069
0.135381
-0.261842
-0.199233
0.461085
-0.204563
0.496552
-0.291987
0.37089
-0.191704
0.0119945
-0.00772923
0.514408
-0.251853
-0.262551
0.319696
-0.570135
0.250439
-0.170548
0.446362
0.463129
-0.0731788
-0.38995
0.140131
-0.0132346
-0.126897
0.379951
-0.573263
0.193315
0.15915
-0.0741523
-0.396453
-0.0278219
0.424295
-0.263232
0.00431694
-0.233597
-0.233368
-0.362543
0.436957
-0.102082
-0.37534
-0.114374
0.17526
0.124761
-0.0434708
-0.0812897
-0.0104297
0.13519
0.0288647
-0.391404
-0.153645
0.0674947
-0.325822
-0.227072
0.357113
-0.130036
0.129435
-0.136296
0.00686089
-0.0619526
-0.0387964
0.100749
-0.353966
0.126899
0.0874371
-0.331679
0.244246
0.122633
0.352646
-0.475279
0.317286
-0.210222
0.216117
-0.0300996
-0.186016
0.492834
-0.150888
-0.419365
0.284953
0.160672
0.171466
0.199913
-0.461746
-0.3116
-0.176068
0.487684
-0.434089
0.37942
0.054685
-0.0577744
0.0418964
0.015878
-0.245244
0.355565
-0.268122
0.397477
-0.435863
0.0383861
-0.142308
-0.0563963
-0.152244
0.378661
-0.226408
0.276394
-0.43886
0.0968582
0.0944101
-0.292574
0.198166
-0.121521
-0.340265
-0.534158
0.258704
0.275457
-0.558255
0.262917
0.295342
0.207713
0.252432
-0.460143
-0.479954
0.156801
-0.43799
0.087974
-0.454297
0.120531
-0.0233081
9.85801e-05
0.0232096
0.116002
-0.233328
0.117328
-0.597233
0.338162
0.259077
-0.392606
-0.20462
-0.106603
-0.113562
0.220165
0.28333
-0.460867
0.177539
0.280677
0.239673
-0.1505
-0.247148
0.39765
-0.332075
0.0438383
-0.0945479
0.427692
0.141687
0.225637
-0.405383
-0.0286909
-0.110983
0.14784
-0.0368565
-0.126337
0.0489805
-0.150842
0.101862
-0.0882147
-0.098571
-0.0531543
-0.0642021
-0.61647
0.299768
0.316703
0.289881
-0.127538
-0.162343
-0.187027
0.146311
0.0407157
0.0404486
-0.424558
0.384124
-0.114504
0.163485
-0.223033
-0.014159
-0.0308159
0.131483
0.160814
-0.458773
0.297972
-0.300249
-0.00500433
0.442115
-0.215995
0.0621275
0.340551
-0.402671
-0.0175486
0.0215196
-0.00397102
-0.0470927
0.197053
-0.14996
0.41391
-0.286125
-0.127782
-0.0141124
-0.0291022
0.0432147
0.448237
-0.287411
-0.167787
-0.36586
-0.0305741
0.120826
0.355556
-0.198597
0.316816
-0.118215
0.0420307
0.326815
-0.368844
-0.0846105
-0.245759
0.155144
-0.410434
0.255295
-0.298768
0.100173
-0.172754
0.269579
-0.0968218
0.0836367
-0.122311
0.15506
-0.261663
-0.0794869
-0.323115
0.176318
0.243728
0.125655
-0.267319
0.329451
-0.0266102
0.173635
-0.147024
0.462176
-0.178846
0.115225
-0.0793899
-0.0358348
0.481161
-0.151667
-0.329493
0.156242
-0.140044
-0.0161979
-0.417138
0.100237
-0.0201904
0.0141099
0.00608056
0.265435
-0.258967
-0.00646736
0.10093
-0.323215
0.222286
-0.273194
0.100443
0.290688
0.123225
-0.408712
0.301292
0.107424
0.139421
-0.474128
-0.130727
-0.240264
0.272909
0.488578
-0.199505
-0.289073
0.247355
-0.192759
-0.0545957
-0.0144473
-0.225817
-0.140825
0.228281
-0.0198014
-0.208479
0.155105
-0.285309
0.183273
-0.00266653
0.0040273
-0.0259731
-0.123582
-0.0445669
0.296331
-0.186479
0.168672
0.0178066
0.0761659
-0.436563
0.0165338
0.139708
-0.0145757
0.477705
0.00837167
-0.0553599
0.0469882
-0.126122
0.335535
-0.482206
0.146671
0.208146
0.280433
0.377946
-0.395884
0.223241
0.317082
-0.0724757
-0.0428425
0.281657
-0.298804
0.45936
-0.160556
0.149348
-0.0199132
0.00377125
-0.0731021
0.283259
0.136051
0.28089
-0.281847
-0.146721
0.300865
-0.197015
-0.103848
-0.35649
0.158534
0.197959
0.461986
-0.29607
-0.165913
0.284784
0.265725
-0.37463
-0.0340796
0.26671
-0.407614
0.140914
-0.421126
0.109541
-0.533972
0.294589
0.239387
0.157931
-0.488146
0.330217
0.260084
-0.248867
-0.0112159
0.213053
-0.261914
0.0488608
-0.210885
0.188205
0.0226802
0.0338128
0.120607
-0.15442
0.163861
-0.130048
0.0152435
-0.0255392
0.0102957
0.260607
0.00609893
-0.150397
0.144298
-0.268465
0.47618
0.43069
-0.0356791
-0.39501
-0.357043
0.164649
0.158722
0.142146
-0.345118
0.212198
0.13292
-0.22751
0.145806
0.176068
0.00720505
0.37371
-0.283548
-0.0901613
-0.373184
-0.200077
0.128586
-0.0449492
0.284626
0.236063
0.211636
-0.0956331
0.558967
-0.288527
-0.270439
-0.0196978
0.00493558
0.0147622
-0.121413
0.316626
-0.206258
-0.351993
0.0137333
-0.0278458
0.137051
-0.148963
0.0119124
-0.50427
0.402357
0.101938
0.316799
0.14519
-0.252193
0.469449
-0.217254
0.185871
-0.230437
0.221659
-0.51307
0.291414
-0.356483
-0.177671
-0.0896115
-0.113906
-0.0127738
-0.198111
-0.082768
0.384231
-0.242285
-0.309883
0.208637
0.101249
0.163312
0.0775792
-0.24089
0.136409
-0.126163
-0.0102464
-0.152743
-0.175714
0.328458
-0.608146
0.359994
0.248153
-0.042514
0.226014
0.332953
-0.312553
0.354586
0.0413836
0.121653
0.294328
-0.415962
0.107292
0.142379
-0.242014
-0.366132
0.257334
-0.0940215
0.526282
-0.228876
-0.297399
-0.164002
0.138029
0.197334
-0.498377
0.301045
0.353528
-0.0868089
0.0218163
-0.015771
-0.00604531
-0.144522
-0.316345
0.127528
0.373512
-0.50104
0.191919
0.0363623
-0.00524806
-0.295432
0.300683
0.285766
-0.433561
-0.464788
0.0822491
0.382544
0.503316
-0.324181
-0.179113
-0.0519372
0.142311
-0.0903733
-0.026776
0.00926357
0.0175124
0.214258
0.0748288
-0.289082
0.235384
-0.112742
-0.122641
0.219552
-0.233999
0.131633
-0.0757448
0.419086
-0.348884
-0.0702016
-0.00226753
0.163786
0.0301746
0.388911
-0.509548
0.330778
0.178772
0.149377
-0.143278
-0.181342
0.248061
0.00966903
-0.257729
0.219843
0.0871505
-0.426421
0.379708
0.385158
-0.360666
-0.0244902
0.137064
0.29316
-0.514049
0.217844
0.296211
0.310427
-0.122235
0.457151
-0.120264
-0.336877
0.430994
-0.309322
0.0798193
0.377339
0.010963
0.334388
0.23604
-0.373854
0.137813
-0.3171
-0.158317
0.475425
-0.544071
0.365142
0.17893
0.130328
-0.142761
0.0124331
-0.152284
-0.374105
-0.259338
0.455247
-0.195904
0.358867
0.126009
-0.484876
0.240647
-0.245893
0.0348157
0.350344
-0.099046
0.438207
-0.208744
0.150907
0.379803
0.347127
0.0352372
-0.382364
-0.199162
0.0232646
0.175898
-0.157277
0.0988046
0.058472
-0.0299559
0.0201624
0.00979351
-0.197155
0.0106768
0.385866
-0.383396
-0.356455
-0.0606724
-0.0191815
-0.00759447
-0.0311081
0.499974
-0.313003
-0.18697
0.50836
-0.142674
0.0705289
-0.300653
0.230125
-0.0312332
0.525005
-0.137113
0.48424
-0.076125
0.120323
-0.0441984
-0.140704
-0.186628
0.141937
-0.00122391
0.199463
0.300513
0.492708
-0.175907
0.10711
0.128274
-0.457219
0.257995
-0.132771
-0.25583
0.388609
-0.504875
0.216955
0.287945
-0.5305
0.30946
0.221041
0.0457004
0.299311
0.0804664
-0.442283
0.179547
-0.395893
0.216346
0.266434
-0.439322
0.17289
0.306028
0.067683
0.234581
-0.0150294
0.493159
-0.119646
-0.163851
0.430286
-0.423456
0.106363
-0.249679
0.18553
0.0641502
0.343535
-0.141294
-0.20224
0.0908824
-0.243625
-0.248882
-0.131705
0.0515134
-0.126585
-0.181679
0.225062
-0.0433818
0.23453
0.0135323
0.295741
0.10066
-0.396398
0.469208
-0.311275
-0.473025
-0.188167
0.272697
-0.0845276
-0.290869
0.102705
-0.00921722
-0.0193193
0.0285365
0.0462019
-0.149901
-0.247038
0.446961
-0.285973
0.285382
-0.19097
-0.0866105
0.0194915
-0.533169
0.244644
-0.284472
0.448682
0.357058
-0.346073
-0.429784
-0.114286
-0.134806
-0.254744
0.389555
0.451406
-0.15566
-0.124181
-0.188375
0.312558
0.433776
0.00515006
0.162431
-0.376598
0.127726
0.336714
-0.478208
0.177313
-0.203805
0.0264926
-0.0193333
-0.0106226
-0.421666
0.288922
0.132746
-0.216759
-0.286083
0.427972
-0.269909
-0.158055
-0.393734
0.134401
0.270391
0.119422
-0.389801
-0.406122
-0.410201
0.296213
0.113989
-0.456558
0.153436
0.303123
-0.30695
0.220777
0.0861748
0.273252
-0.321969
0.0487182
0.293265
0.134713
0.140437
-0.167046
0.480936
0.0571109
-0.401495
0.344386
0.159086
-0.000459677
-0.210082
-0.33491
-0.232909
-0.29759
-0.0277426
-0.274054
0.301797
-0.110308
-0.422167
-0.0131022
0.249142
0.053652
0.193703
0.502908
-0.133386
-0.369516
-0.125173
0.389688
-0.264505
-0.00129113
0.222949
0.331934
-0.36938
0.214599
0.154781
0.471121
-0.191959
-0.279161
-0.518678
0.165647
0.353035
0.249456
0.276832
-0.19292
0.20524
0.0831156
-0.293519
0.210406
0.210641
0.132895
0.388188
-0.252974
-0.0428877
0.31614
-0.412868
0.409725
0.159323
0.302483
-0.461797
0.00180464
-0.0251128
0.490763
-0.216844
-0.273918
0.275951
0.278574
0.246216
-0.382826
0.136617
0.495364
-0.347018
-0.148344
0.0915981
-0.218438
0.223593
-0.14993
-0.0736623
0.285091
0.161319
-0.446408
-0.173076
0.281811
0.12421
-0.0173028
-0.106907
0.30189
-0.23136
-0.27237
-0.160589
0.432974
0.260672
-0.411171
0.0546437
-0.226877
0.172234
0.0060714
-0.0691005
-0.161849
0.430873
-0.302022
-0.128849
0.0832561
-0.350082
0.266833
0.247763
0.247603
-0.170525
0.165867
0.00465889
-0.337641
-0.181033
0.34005
-0.256787
-0.360363
-0.172805
-0.0457449
-0.340766
0.386519
-0.072366
-0.153933
0.2263
-0.113879
-0.181936
0.295816
0.517113
-0.197418
-0.289145
0.292967
0.137909
0.123898
0.218739
-0.342634
0.385173
-0.138949
0.183747
-0.48252
0.298783
0.40094
-0.0949109
0.0427489
-0.118207
0.173179
-0.190824
0.0176454
-0.00892719
-0.00489592
0.0131543
-0.0223715
-0.390528
0.138338
-0.434443
0.484155
-0.049712
-0.0118549
-0.342377
0.395455
-0.0530778
0.195319
0.295445
0.170846
0.291331
0.241567
-0.367132
0.125571
-0.146553
0.0167132
-0.185712
0.168999
-0.130927
-0.373323
-0.0766086
0.366048
-0.460592
-0.444945
0.315581
0.129374
-0.465142
0.169075
-0.289592
0.155247
0.00383962
0.0913589
0.340668
-0.432026
0.270808
0.154012
0.220764
0.128747
-0.147838
-0.470317
0.185846
0.00552291
0.422571
-0.243023
0.368387
-0.126816
-0.328662
0.484555
-0.15589
0.297652
0.216395
-0.121007
0.157232
-0.407579
-0.0954078
0.299865
-0.216746
0.22869
-0.199597
0.289224
0.159476
-0.448698
0.0150153
0.0529048
-0.0679201
0.0273569
-0.0121134
0.314767
-0.213834
-0.443781
0.273237
-0.225277
-0.190639
0.254097
-0.199452
-0.207439
-0.0807017
0.288141
-0.0213789
-0.217938
0.239317
0.132913
0.00691598
-0.139829
-0.105865
-0.225596
0.331467
-0.236515
0.400702
-0.164187
-0.0879541
-0.406046
0.182082
-0.00890188
-0.131092
-0.494438
0.204632
0.289812
0.074338
-0.191669
0.117332
-0.1139
-0.13334
-0.0728113
-0.166479
0.239292
0.142267
-0.266445
-0.174218
-0.13505
-0.138141
0.449769
0.239588
0.110134
0.283242
-0.181088
-0.102154
0.15255
-0.402337
0.249792
0.147294
-0.171531
0.216807
0.140311
0.0233167
0.162674
-0.18599
0.298445
0.135528
-0.433971
0.372722
0.0917372
-0.464459
0.150111
0.229326
-0.315909
0.27017
0.0999053
0.486629
-0.310882
-0.175738
-0.11807
0.469027
-0.227987
-0.24104
-0.0221518
0.15008
-0.00884847
0.208367
-0.326769
0.118412
0.234111
-0.356787
0.122681
-0.0408221
0.199982
-0.15916
0.238823
-0.362046
0.123229
0.0581864
-0.400562
0.166391
-0.243262
0.0768728
-0.297282
0.291156
-0.123883
-0.167271
0.338041
-0.346037
0.00800156
-0.262885
0.482582
0.0742825
0.433557
-0.135112
-0.00542937
-0.12029
-0.0773671
0.0828725
-0.0489885
-0.033884
-0.290118
0.347231
0.134134
-0.420257
0.167691
-0.240501
-0.120863
0.0547209
0.0661418
0.170892
-0.242952
0.072061
0.0947629
-0.378309
0.0897214
-0.348488
0.258766
-0.445538
0.000980971
0.444559
0.204784
0.264244
-0.473218
0.311751
0.161473
0.205484
-0.226863
0.354835
-0.116006
0.319249
-0.233021
-0.0862241
0.0735812
-0.00440688
-0.0691743
0.48891
-0.280764
-0.299571
0.148095
-0.335873
0.187782
-0.090036
0.130552
-0.408697
0.27815
0.374369
-0.165991
0.364109
0.0391977
-0.0196525
0.0217749
-0.00212241
-0.292175
0.457693
-0.165514
-0.271477
0.402034
-0.161073
-0.312139
0.0516209
0.0847883
0.054197
0.169396
0.412254
-0.270841
-0.141412
-0.458188
0.140467
0.317729
0.257681
-0.394937
0.137258
0.232028
0.0872245
-0.119849
-0.010956
-0.382487
0.162537
-0.43489
-0.0105102
-0.034815
-0.232058
0.266874
-0.330545
0.453178
0.450273
-0.279483
-0.170789
-0.102016
-0.23386
0.335883
0.0479964
0.19324
-0.284952
0.447507
0.496623
-0.331256
-0.165365
0.210236
-0.0183166
-0.132409
0.34922
0.00554315
-0.130458
0.431675
-0.301197
0.00440763
-0.0474084
0.0430008
0.507649
-0.355964
-0.151669
-0.0669362
-0.0102597
-0.134663
-0.239191
0.168753
0.0133294
0.482825
-0.0521341
0.349975
-0.0119298
0.0242808
0.309645
-0.333925
-0.133132
0.390815
0.0636934
-0.271131
0.286663
0.152233
-0.438884
-0.430897
0.291771
0.139134
-0.00899921
-0.274576
-0.00832779
0.00396963
0.260923
0.176506
-0.468678
-0.44984
0.173043
0.27681
0.105347
-0.315474
0.210128
0.318668
-0.170569
-0.0883509
0.454402
-0.134667
-0.257298
0.391974
-0.382694
0.374044
-0.22392
-0.390573
0.26541
0.264232
-0.464531
0.181188
0.283351
0.0920386
-0.120208
0.0123042
-0.176627
0.164323
-0.135493
0.104677
-0.126293
-0.268243
0.394536
-0.0251956
0.00554309
-0.250464
0.394034
-0.143561
-0.0600001
-0.241627
-0.114859
0.290878
0.166819
0.26533
-0.440094
0.174778
0.501873
-0.323391
-0.178476
-0.414796
0.453581
-0.0387812
-0.262067
0.127019
-0.112577
-0.0291756
-0.0945961
-0.0626805
0.165783
-0.200598
-0.479601
0.309349
0.170252
-0.152552
-0.253579
0.40614
-0.228166
0.0464881
0.19975
0.0603347
-0.0582749
-0.127675
0.18595
-0.444977
0.0694812
-0.416021
0.143845
0.27218
0.180665
0.31596
-0.0222212
-0.00246274
0.0246839
-0.10525
-0.171224
0.276475
0.00332352
0.444018
-0.458156
0.0141491
0.139767
-0.144211
-0.00618571
0.196778
0.253497
-0.00568642
0.185129
-0.221015
0.0358865
0.190573
-0.296873
0.106303
0.527451
-0.174804
0.498861
-0.162146
0.0456238
0.0695161
0.196924
0.0972155
-0.294136
0.324398
0.157656
-0.482051
-0.0410882
-0.131678
0.172766
0.0543518
-0.133723
-0.26201
0.395744
-0.227493
-0.342641
-0.135453
0.39458
-0.259125
-0.242124
-0.163247
-0.136012
-0.255045
0.391066
0.236789
-0.398456
0.161683
0.159055
-0.387646
0.228596
0.0959542
0.251444
-0.347388
0.14468
-0.342575
0.197898
0.208514
-0.199147
-0.00936671
0.33849
-0.355059
0.0165745
-0.0875436
0.284471
-0.0279583
-0.287786
0.315744
0.00454817
-0.0267693
0.012161
0.369725
-0.0892413
-0.337179
0.0536752
0.0712644
-0.12494
0.320897
-0.295976
-0.0249174
-0.446652
0.269445
0.177209
0.450876
-0.159996
0.322204
-0.459316
-0.122345
0.30755
-0.185203
0.020631
0.30027
-0.417672
0.453235
-0.035559
0.124519
0.14818
0.338382
-0.193699
-0.109885
0.294588
-0.184699
-0.0239165
0.0974977
-0.0216156
0.237734
-0.521319
0.299168
0.222155
0.234774
0.131775
-0.366543
-0.204207
-0.104731
0.308938
0.211282
0.284966
-0.461816
0.176852
0.0643645
-0.109415
0.285524
0.143386
-0.428894
-0.0865619
0.193672
0.197209
0.0130277
-0.398474
0.258549
0.139936
0.271005
-0.428981
0.157986
0.214487
-0.430749
0.216267
0.312638
-0.173968
0.145263
0.00623855
-0.151501
-0.0458673
-0.418916
0.20002
-0.326312
-0.172649
0.142801
0.00657608
0.205427
-0.0202976
0.308424
-0.203074
-0.338436
0.211134
0.127303
-0.150097
-0.256666
-0.0439854
-0.0717943
-0.160252
0.380724
-0.220467
0.0721982
0.070348
-0.142546
0.0118809
0.12825
0.266422
-0.394085
0.127666
-0.311759
0.249912
0.0618468
0.141301
-0.425384
-0.0337193
0.459106
0.194673
-0.177959
-0.163142
0.44811
0.37241
-0.221333
0.148968
0.097713
-0.292522
0.194812
-0.282569
0.323029
0.472622
-0.191367
-0.281255
-0.319849
0.455019
-0.135156
0.385627
-0.233073
-0.22602
0.36311
0.491332
-0.390668
-0.152949
0.418291
-0.159191
0.430206
-0.0858691
0.367745
-0.132966
0.282939
0.152857
-0.435794
0.187668
0.0208467
0.215887
-0.185718
0.25217
-0.444982
0.192813
0.137404
-0.150639
-0.180822
-0.215071
0.255424
0.497319
-0.428769
-0.0685484
-0.288578
-0.109886
0.115121
0.0177925
0.277689
-0.51786
0.240178
-0.315327
0.440184
-0.124852
-0.255447
0.196183
0.0592657
0.500688
-0.320021
0.372978
-0.167493
0.207476
0.105809
-0.313283
0.212882
0.110667
-0.323544
-0.148854
-0.144462
0.293316
0.269225
0.124572
-0.393787
-0.0186349
-0.131619
0.412133
0.0851873
0.341141
-0.00264509
-0.236924
0.0751416
0.161783
0.0756612
0.0106464
0.0177463
-0.297335
0.0931284
-0.291515
0.475271
-0.0890075
0.324542
-0.235526
-0.227166
0.350176
-0.12301
-0.405681
-0.0392567
-0.0670927
-0.188353
0.0735008
-0.372304
0.19878
0.27478
-0.473559
0.241663
0.093803
-0.335465
-0.381372
0.139263
-0.211696
0.370758
0.421736
-0.0313794
-0.217486
0.286871
-0.189155
-0.0816603
0.340937
-0.259276
0.10892
-0.433074
-0.468236
0.329866
0.138382
-0.118022
-0.239148
0.357171
0.353954
0.143277
0.00198615
0.237553
0.0694675
-0.307018
0.293649
0.178974
-0.00596181
-0.00684644
0.0128083
-0.0306406
0.246527
-0.195943
0.491409
-0.295466
0.00603268
0.07655
-0.463374
0.0395113
-0.115636
-0.302012
0.170522
0.491542
-0.243777
-0.0840048
0.291484
0.426779
-0.368593
0.115768
-0.352899
0.237138
-0.0557787
-0.065084
0.360297
0.131038
-0.254104
0.142042
-0.114481
-0.384041
-0.0307505
0.306686
0.138914
-0.4456
0.405101
-0.134701
-0.125888
0.191424
0.181555
0.231184
0.137208
0.261198
0.00148531
0.454163
-0.31162
-0.142527
-0.419034
0.25846
0.344981
-0.103318
-0.122325
-0.268793
0.391129
-0.0713915
0.125067
0.206157
-0.388632
0.182482
-0.2558
0.0791386
0.176663
0.157737
0.290512
0.354806
-0.148644
-0.140836
-0.327389
0.348897
-0.233122
0.179309
-0.167004
0.334376
-0.0968222
0.242129
-0.0631286
-0.179
-0.204375
0.0261132
0.178263
0.136599
-0.391378
0.254782
0.221814
-0.376045
0.154243
0.395744
-0.287031
-0.108712
0.178848
0.246141
-0.424973
-0.340601
0.258941
-0.0254764
-0.426553
0.452056
-0.164941
-0.125291
-0.124387
0.297378
-0.494309
0.135179
0.500002
-0.340026
-0.159974
-0.411143
0.0913074
-0.0206795
0.0371671
-0.0164875
-0.383576
-0.0508654
0.251685
0.170886
0.203106
0.0369033
-0.240009
0.300555
-0.151364
0.174681
-0.248709
0.427574
-0.201162
0.487847
-0.286675
-0.144056
-0.173649
0.317707
0.125961
0.263629
-0.389585
0.0666901
0.345593
-0.114405
0.297298
-0.106724
0.240929
-0.369567
0.128645
0.0585575
-0.223395
0.122191
-0.0674701
0.278787
0.218692
0.136148
0.271691
-0.436952
0.165272
0.270192
-0.438829
0.168639
0.384726
-0.248123
-0.139438
-0.262203
0.401651
-0.31742
-0.180956
0.200503
-0.311805
0.111305
0.154647
-0.286596
0.190157
0.289394
-0.479549
-0.124043
0.062235
0.0618077
0.00294329
0.138993
-0.368321
-0.151031
0.481812
0.169514
-0.153872
-0.0156424
0.0235736
-0.288861
0.26529
-0.240339
0.13571
0.104629
-0.260626
-0.12325
-0.141492
0.264745
0.000413213
0.0131247
-0.338204
-0.156956
0.495174
0.437641
0.32269
0.173864
-0.0920474
-0.20147
0.276893
-0.428293
0.151401
0.167618
-0.431628
0.101155
-0.187717
0.460965
-0.243066
-0.217898
0.438077
-0.29144
-0.146635
0.153296
0.0162183
0.022401
0.00427933
-0.0266804
0.0110391
-0.0303585
-0.327905
0.186612
-0.316508
0.17271
0.143804
0.0904392
0.193146
-0.283578
0.286499
0.0111224
-0.297621
0.206093
0.294598
0.529099
-0.219314
-0.309781
0.175327
-0.188532
0.0132054
0.279756
-0.375902
-0.0417662
-0.175881
-0.00512782
-0.0150626
0.164721
-0.238252
0.0735315
0.0400047
-0.332574
0.292571
-0.167109
-0.31249
-0.180014
-0.0757849
0.353619
0.0844592
0.2484
-0.337399
-0.072369
0.372777
-0.131842
0.255191
0.0429628
-0.298152
0.527408
-0.200591
0.259054
-0.134531
0.231431
0.106308
-0.337736
-0.376986
0.403733
-0.0267469
0.256665
-0.246658
-0.0100042
0.251891
-0.400029
0.148149
-0.31069
0.402049
0.417611
-0.110924
-0.217189
-0.304126
-0.285711
-0.20257
0.488285
0.000670636
-0.221443
0.220774
0.432281
-0.162087
-0.141375
0.363771
-0.222395
0.00498126
0.061222
-0.327685
0.425132
-0.0974468
-0.0921422
-0.0340205
-0.406353
0.190358
-0.300383
0.34039
-0.139037
0.0264601
-0.408988
0.0982982
0.237309
-0.363139
0.125835
0.0945595
0.190825
-0.144267
-0.196851
0.287298
-0.1725
0.173172
0.272161
-0.248584
0.107441
0.175801
0.193719
-0.0164056
0.294884
0.234218
-0.509733
0.185896
0.323843
-0.261094
0.314216
-0.0531212
0.194836
-0.37962
-0.0267338
-0.291124
0.508973
0.315491
-0.114984
-0.422411
0.269868
0.146107
0.22894
-0.346961
0.231035
-0.156697
0.048157
0.0082468
-0.0564038
0.249321
0.135861
-0.220977
-0.155592
-0.2846
0.146208
0.252739
-0.398938
-0.149608
0.413702
-0.147276
0.17899
0.100233
0.326546
0.16931
-0.184447
0.0151373
-0.0751496
0.330343
-0.156154
0.377816
0.447056
-0.0453316
-0.210595
-0.0969834
0.307583
0.157358
0.249167
-0.406518
0.414169
0.0162788
0.16303
-0.0292377
0.00855814
-0.155191
-0.255008
0.0287498
-0.12438
0.27007
0.143636
-0.0106031
-0.00455466
-0.0626626
0.0103062
0.0523565
-0.00786276
0.0302638
0.147329
-0.0764083
-0.0709203
-0.0975995
-0.0124488
-0.32106
-0.342245
-0.114312
-0.141497
0.146066
-0.0045692
-0.250835
-0.415664
0.247361
0.250601
0.136223
-0.386815
-0.13809
-0.028875
-0.232218
-0.157279
-0.137033
-0.376033
0.0453095
-0.358311
0.0444424
0.075881
-0.238113
0.128373
0.109739
-0.419812
0.0723121
0.3475
-0.146082
0.134306
0.0117759
0.142016
0.191977
-0.333993
0.423059
0.146701
-0.41006
0.263362
0.127177
0.267778
-0.394943
0.104334
-0.134193
0.131925
0.374373
-0.447551
0.218941
-0.0312724
0.216977
-0.109685
-0.00622451
0.0203344
-0.0156446
0.00671739
-0.0487075
-0.144041
0.192749
-0.0336916
0.20288
-0.169188
0.201216
0.232343
-0.0148928
0.255069
0.00159839
0.197608
0.261753
0.243281
-0.378733
-0.222796
-0.105108
-0.000558572
0.129302
-0.128744
0.00130437
0.222533
-0.0640668
-0.334838
0.370434
-0.469479
0.390977
-0.0658224
-0.0582202
-0.277902
-0.11618
-0.165454
-0.314723
0.17067
0.228511
0.232455
0.434678
-0.4187
-0.0159458
-0.444133
0.249608
0.194525
-0.283008
0.159762
-0.448101
0.206741
0.24136
-0.328519
0.481956
0.303339
-0.154557
-0.14878
-0.291484
0.0776098
0.213875
-0.18192
0.000835444
0.0208974
-0.0217328
-0.227552
0.238041
-0.33042
0.0923796
-0.0436826
-0.0145028
0.0581855
-0.209415
0.179929
0.0294864
0.15985
-0.197444
-0.193996
0.391441
-0.03049
0.400924
0.251101
0.135578
-0.38667
-0.159955
0.425881
-0.265907
-0.247833
-0.245811
-0.185524
-0.277467
0.504722
-0.207564
-0.297156
0.121945
0.0372048
0.245932
0.127279
-0.37321
-0.161558
0.0246708
0.170003
0.213316
-0.234524
0.0212083
0.195006
-0.0196779
-0.304306
0.100208
0.2041
0.194949
0.104918
0.315025
0.0809246
-0.395949
0.108724
0.194617
-0.139617
-0.250648
0.390269
-0.258757
-0.150974
0.409739
0.216185
0.0857046
-0.332055
0.481269
-0.149205
0.0145869
0.111726
-0.126313
0.179689
0.278494
-0.458177
-0.1426
-0.0850175
-0.332689
0.417706
-0.253228
-0.174714
0.427945
-0.127269
0.307853
-0.262542
-0.479727
-0.0803337
-0.175431
0.255766
0.256154
0.126486
-0.382635
-0.411758
0.141856
0.329037
-0.0686595
-0.0822941
0.270354
0.0995692
-0.36992
0.207922
-0.453533
0.245612
-0.0373511
-0.0956653
-0.175129
0.317145
-0.0139408
-0.0101998
0.0241406
0.164173
0.0800216
-0.244194
0.452071
-0.291295
-0.160769
-0.42778
0.0957359
-0.0486813
0.00499867
-0.171154
0.141055
-0.282459
0.46323
-0.255308
0.231854
-0.165573
-0.0662806
-0.102403
0.485571
-0.163368
0.472254
-0.185198
-0.287049
-0.168648
0.461076
-0.29242
0.382705
-0.25674
-0.276443
0.360496
-0.0840474
0.31445
0.132326
-0.446775
0.420576
-0.148412
-0.201897
-0.172731
0.131427
0.267535
-0.39895
0.47304
-0.137504
-0.217189
0.464197
-0.247007
0.238367
-0.448591
0.210224
0.240039
0.264685
0.402899
-0.146741
-0.430833
-0.00790655
0.438741
-0.0403446
0.0166985
-0.0725777
0.0558791
0.148035
-0.38455
-0.0201458
0.0683028
0.429219
-0.177534
0.168343
0.0253762
-0.0459641
-0.41701
-0.0851731
-0.179568
0.168265
0.0113029
0.00560368
-0.0223552
0.0167515
-0.145937
-0.264709
0.410654
-0.198199
-0.0791522
0.277352
-0.331298
0.147229
-0.000918148
0.249574
0.200351
-0.368336
0.167985
0.406937
-0.26072
-0.144566
0.448171
-0.361367
-0.0155863
-0.170125
0.00805006
0.115524
-0.0361533
0.145229
-0.109076
0.109946
-0.335536
-0.487486
0.277405
0.457014
0.496655
-0.344641
-0.152011
0.103812
-0.333775
0.229965
-0.277103
0.394022
-0.116906
0.0102157
-0.0285851
0.176826
-0.148241
-0.0953482
0.386038