/*--------------------------------*- C++ -*----------------------------------*\
| =========                 |                                                 |
| \\      /  F ield         | OpenFOAM: The Open Source CFD Toolbox           |
|  \\    /   O peration     | Version:  v2012                                 |
|   \\  /    A nd           | Website:  www.openfoam.com                      |
|    \\/     M anipulation  |                                                 |
\*---------------------------------------------------------------------------*/
FoamFile
{
    version     2.0;
    format      ascii;
    class       pointVectorField;
    location    "350";
    object      pointDisplacement;
}
// * * * * * * * * * * * * * * * * * * * * * * * * * * * * * * * * * * * * * //

dimensions      [0 1 0 0 0 0 0];


internalField   nonuniform List<vector> 
19270
(
(0 0 0)
(0 0 0)
(0 0 0)
(0 0 0)
(0 0 0)
(0 0 0)
(0 0 0)
(0 0 0)
(0 0 0)
(0 0 0)
(0 0 0)
(0 0 0)
(0 0 0)
(0 0 0)
(0 0 0)
(0 0 0)
(0 0 0)
(0 0 0)
(0 0 0)
(0 0 0)
(0 0 0)
(0 0 0)
(0 0 0)
(0 0 0)
(0 0 0)
(0 0 0)
(0 0 0)
(0 0 0)
(0 0 0)
(0 0 0)
(0 0 0)
(0 0 0)
(0 0 0)
(0 0 0)
(0 0 0)
(0 0 0)
(0 0 0)
(0 0 0)
(0 0 0)
(0 0 0)
(0 0 0)
(0 0 0)
(0 0 0)
(0 0 0)
(0 0 0)
(0 0 0)
(0 0 0)
(0 0 0)
(0 0 0)
(0 0 0)
(0 0 0)
(0 0 0)
(0 0 0)
(0 0 0)
(0 0 0)
(0 0 0)
(0 0 0)
(0 0 0)
(0 0 0)
(0 0 0)
(0 0 0)
(0 0 0)
(0 0 0)
(0 0 0)
(0 0 0)
(0 0 0)
(0 0 0)
(0 0 0)
(0 0 0)
(0 0 0)
(0 0 0)
(0 0 0)
(0 0 0)
(0 0 0)
(0 0 0)
(0 0 0)
(0 0 0)
(0 0 0)
(0 0 0)
(0 0 0)
(0 0 0)
(0 0 0)
(0 0 0)
(0 0 0)
(0 0 0)
(0 0 0)
(0 0 0)
(0 0 0)
(0 0 0)
(0 0 0)
(0 0 0)
(0 0 0)
(0 0 0)
(0 0 0)
(0 0 0)
(0 0 0)
(0 0 0)
(0 0 0)
(0 0 0)
(0 0 0)
(0 0 0)
(0 0 0)
(0 0 0)
(0 0 0)
(0 0 0)
(0 0 0)
(0 0 0)
(0 0 0)
(0 0 0)
(0 0 0)
(0 0 0)
(0 0 0)
(0 0 0)
(0 0 0)
(0 0 0)
(0 0 0)
(0 0 0)
(0 0 0)
(0 0 0)
(0 0 0)
(0 0 0)
(0 0 0)
(0 0 0)
(0 0 0)
(0 0 0)
(0 0 0)
(0 0 0)
(0 0 0)
(0 0 0)
(0 0 0)
(0 0 0)
(0 0 0)
(0 0 0)
(0 0 0)
(0 0 0)
(0 0 0)
(0 0 0)
(0 0 0)
(0 0 0)
(0 0 0)
(0 0 0)
(0 0 0)
(0 0 0)
(0 0 0)
(0 0 0)
(0 0 0)
(0 0 0)
(0 0 0)
(0 0 0)
(0 0 0)
(0 0 0)
(0 0 0)
(0 0 0)
(0 0 0)
(0 0 0)
(0 0 0)
(0 0 0)
(0 0 0)
(0 0 0)
(0 0 0)
(0 0 0)
(0 0 0)
(0 0 0)
(0 0 0)
(0 0 0)
(0 0 0)
(0 0 0)
(0 0 0)
(0 0 0)
(0 0 0)
(0 0 0)
(0 0 0)
(0 0 0)
(0 0 0)
(0 0 0)
(0 0 0)
(0 0 0)
(0 0 0)
(0 0 0)
(0 0 0)
(0 0 0)
(0 0 0)
(0 0 0)
(0 0 0)
(0 0 0)
(0 0 0)
(0 0 0)
(0 0 0)
(0 0 0)
(0 0 0)
(0 0 0)
(0 0 0)
(0 0 0)
(0 0 0)
(0 0 0)
(0 0 0)
(0 0 0)
(0 0 0)
(0 0 0)
(0 0 0)
(0 0 0)
(0 0 0)
(0 0 0)
(0 0 0)
(0 0 0)
(0 0 0)
(0 0 0)
(0 0 0)
(0 0 0)
(0 0 0)
(0 0 0)
(0 0 0)
(0 0 0)
(0 0 0)
(0 0 0)
(0 0 0)
(0 0 0)
(0 0 0)
(0 0 0)
(0 0 0)
(0 0 0)
(0 0 0)
(0 0 0)
(0 0 0)
(0 0 0)
(0 0 0)
(0 0 0)
(0 0 0)
(0 0 0)
(0 0 0)
(0 0 0)
(0 0 0)
(0 0 0)
(0 0 0)
(0 0 0)
(0 0 0)
(0 0 0)
(0 0 0)
(0 0 0)
(0 0 0)
(0 0 0)
(0 0 0)
(0 0 0)
(0 0 0)
(0 0 0)
(0 0 0)
(0 0 0)
(0 0 0)
(0 0 0)
(0 0 0)
(0 0 0)
(0 0 0)
(0 0 0)
(0 0 0)
(0 0 0)
(0 0 0)
(0 0 0)
(0 0 0)
(0 0 0)
(0 0 0)
(0 0 0)
(0 0 0)
(0 0 0)
(0 0 0)
(0 0 0)
(0 0 0)
(0 0 0)
(0 0 0)
(0 0 0)
(0 0 0)
(0 0 0)
(0 0 0)
(0 0 0)
(0 0 0)
(0 0 0)
(0 0 0)
(0 0 0)
(0 0 0)
(0 0 0)
(0 0 0)
(0 0 0)
(0 0 0)
(0 0 0)
(0 0 0)
(0 0 0)
(0 0 0)
(0 0 0)
(0 0 0)
(0 0 0)
(0 0 0)
(0 0 0)
(0 0 0)
(0 0 0)
(0 0 0)
(0 0 0)
(0 0 0)
(0 0 0)
(0 0 0)
(0 0 0)
(0 0 0)
(0 0 0)
(0 0 0)
(0 0 0)
(0 0 0)
(0 0 0)
(0 0 0)
(0 0 0)
(0 0 0)
(0 0 0)
(0 0 0)
(0 0 0)
(0 0 0)
(0 0 0)
(0 0 0)
(0 0 0)
(0 0 0)
(0 0 0)
(0 0 0)
(0 0 0)
(0 0 0)
(0 0 0)
(0 0 0)
(0 0 0)
(0 0 0)
(0 0 0)
(0 0 0)
(0 -9.39069e-06 0)
(0 -7.32278e-06 0)
(0 -9.10934e-06 0)
(0 -7.79061e-06 0)
(0 -8.35701e-06 0)
(0 -5.41e-06 0)
(0 -6.02732e-06 0)
(0 -6.7384e-06 0)
(0 -3.29363e-06 0)
(0 -4.85426e-06 0)
(0 -1.32592e-06 0)
(0 -5.94477e-06 0)
(0 -2.59586e-07 0)
(0 -8.22979e-06 0)
(0 -4.51252e-06 0)
(0 -4.61205e-06 0)
(0 -3.82456e-06 0)
(0 -3.61363e-06 0)
(0 -8.84421e-06 0)
(0 -2.94763e-06 0)
(0 -2.41535e-06 0)
(0 -1.85483e-06 0)
(0 -3.41201e-07 0)
(0 -8.99715e-06 0)
(0 -7.27242e-06 0)
(0 -7.16579e-06 0)
(0 -5.73405e-06 0)
(0 -5.343e-06 0)
(0 -1.66633e-06 0)
(0 -1.21922e-06 0)
(0 -5.20585e-06 0)
(0 -1.7953e-06 0)
(0 -4.01836e-07 0)
(0 -6.9127e-06 0)
(0 -3.87693e-06 0)
(0 -4.96809e-06 0)
(0 -6.53793e-06 0)
(0 -7.57403e-06 0)
(0 -5.83447e-06 0)
(0 -4.17288e-06 0)
(0 -1.08116e-06 0)
(0 -7.1814e-07 0)
(0 -2.98893e-06 0)
(0 -4.45066e-07 0)
(0 -5.61697e-06 0)
(0 -7.88532e-06 0)
(0 -5.95193e-06 0)
(0 -8.77341e-06 0)
(0 -7.52199e-06 0)
(0 -8.85818e-06 0)
(0 -7.24636e-07 0)
(0 -2.05108e-06 0)
(0 -2.69178e-06 0)
(0 -5.337e-06 0)
(0 -5.43284e-06 0)
(0 -8.99483e-06 0)
(0 -6.95471e-06 0)
(0 -5.0869e-06 0)
(0 -9.63347e-06 0)
(0 -7.9931e-06 0)
(0 -7.71326e-06 0)
(0 -8.8717e-06 0)
(0 -5.87983e-06 0)
(0 -5.40945e-06 0)
(0 -5.32661e-06 0)
(0 -4.53175e-06 0)
(0 -3.39604e-06 0)
(0 -2.86834e-06 0)
(0 -1.9434e-06 0)
(0 -2.79743e-07 0)
(0 -0.000173906 0)
(0 -0.000223528 0)
(0 -0.000251816 0)
(0 -0.000257849 0)
(0 -0.000263005 0)
(0 -0.000267274 0)
(0 -0.000270323 0)
(0 -0.000272346 0)
(0 -0.000273211 0)
(0 -0.000272884 0)
(0 -0.000271465 0)
(0 -0.00026882 0)
(0 -0.000265168 0)
(0 -0.000260627 0)
(0 -0.000255436 0)
(0 -0.000249518 0)
(0 -0.000242801 0)
(0 -0.000234945 0)
(0 -0.000226184 0)
(0 -0.000220322 0)
(0 -0.000216868 0)
(0 -0.000217646 0)
(0 -0.000214245 0)
(0 -0.000214841 0)
(0 -0.000211507 0)
(0 -0.000211935 0)
(0 -0.000208646 0)
(0 -0.000208931 0)
(0 -0.000205671 0)
(0 -0.000205789 0)
(0 -0.000202561 0)
(0 -0.000202302 0)
(0 -0.000202538 0)
(0 -0.000199307 0)
(0 -0.000199149 0)
(0 -0.000195858 0)
(0 -0.000195574 0)
(0 -0.000198728 0)
(0 -0.000195021 0)
(0 -0.00019804 0)
(0 -0.000191895 0)
(0 -0.00019123 0)
(0 -0.000188073 0)
(0 -0.000187359 0)
(0 -0.000184199 0)
(0 -0.000183338 0)
(0 -0.000108643 0)
(0 -0.00010387 0)
(0 -0.000106999 0)
(0 -0.000102363 0)
(0 -0.000105097 0)
(0 -0.000100835 0)
(0 -0.000103611 0)
(0 -9.94328e-05 0)
(0 -0.00010244 0)
(0 -9.8125e-05 0)
(0 -0.000101144 0)
(0 -9.68495e-05 0)
(0 -9.98855e-05 0)
(0 -9.55936e-05 0)
(0 -9.87367e-05 0)
(0 -9.43907e-05 0)
(0 -9.75432e-05 0)
(0 -9.33194e-05 0)
(0 -9.64546e-05 0)
(0 -9.23686e-05 0)
(0 -9.54206e-05 0)
(0 -9.13038e-05 0)
(0 -9.4433e-05 0)
(0 -9.0322e-05 0)
(0 -9.34426e-05 0)
(0 -8.89094e-05 0)
(0 -9.25497e-05 0)
(0 -8.8692e-05 0)
(0 -9.18591e-05 0)
(0 -8.79952e-05 0)
(0 -9.12029e-05 0)
(0 -8.73057e-05 0)
(0 -9.05455e-05 0)
(0 -8.66637e-05 0)
(0 -8.98924e-05 0)
(0 -8.59991e-05 0)
(0 -8.92584e-05 0)
(0 -8.54561e-05 0)
(0 -8.87268e-05 0)
(0 -8.49872e-05 0)
(0 -8.81887e-05 0)
(0 -8.44637e-05 0)
(0 -8.76618e-05 0)
(0 -8.39384e-05 0)
(0 -9.2193e-05 0)
(0 -8.72778e-05 0)
(0 -8.36109e-05 0)
(0 -8.00848e-05 0)
(0 -8.02344e-05 0)
(0 -7.65136e-05 0)
(0 -7.68525e-05 0)
(0 -7.31849e-05 0)
(0 -7.29253e-05 0)
(0 -6.99544e-05 0)
(0 -6.96352e-05 0)
(0 -6.67992e-05 0)
(0 -6.65363e-05 0)
(0 -6.37276e-05 0)
(0 -6.36029e-05 0)
(0 -6.07355e-05 0)
(0 -6.0746e-05 0)
(0 -5.79218e-05 0)
(0 -5.80376e-05 0)
(0 -5.52901e-05 0)
(0 -5.55239e-05 0)
(0 -5.27947e-05 0)
(0 -5.30665e-05 0)
(0 -5.04267e-05 0)
(0 -5.07357e-05 0)
(0 -4.81792e-05 0)
(0 -4.85209e-05 0)
(0 -4.60195e-05 0)
(0 -4.6397e-05 0)
(0 -4.39701e-05 0)
(0 -4.43676e-05 0)
(0 -4.20296e-05 0)
(0 -4.24315e-05 0)
(0 -4.01826e-05 0)
(0 -4.06137e-05 0)
(0 -3.84528e-05 0)
(0 -3.8936e-05 0)
(0 -3.68662e-05 0)
(0 -3.74023e-05 0)
(0 -3.53995e-05 0)
(0 -3.59797e-05 0)
(0 -3.40224e-05 0)
(0 -3.46245e-05 0)
(0 -3.26646e-05 0)
(0 -3.33554e-05 0)
(0 -3.1397e-05 0)
(0 -3.2276e-05 0)
(0 -3.02214e-05 0)
(0 -3.08596e-05 0)
(0 -2.9082e-05 0)
(0 -2.97927e-05 0)
(0 -2.8062e-05 0)
(0 -2.89329e-05 0)
(0 -2.71216e-05 0)
(0 -2.78429e-05 0)
(0 -2.62425e-05 0)
(0 -8.70297e-05 0)
(0 -6.36353e-05 0)
(0 -4.67409e-05 0)
(0 -8.94171e-05 0)
(0 -5.49857e-05 0)
(0 -3.51178e-05 0)
(0 -2.86105e-05 0)
(0 -4.34649e-05 0)
(0 -2.8264e-05 0)
(0 -3.47767e-05 0)
(0 -0.000179795 0)
(0 -0.000179206 0)
(0 -0.000175865 0)
(0 -0.000175081 0)
(0 -0.000171916 0)
(0 -0.000172733 0)
(0 -0.000170861 0)
(0 -0.000173929 0)
(0 -0.000167776 0)
(0 -0.000166525 0)
(0 -0.000163428 0)
(0 -0.000162069 0)
(0 -0.000158948 0)
(0 -0.000157581 0)
(0 -0.000154468 0)
(0 -0.00015305 0)
(0 -0.000149924 0)
(0 -0.00014843 0)
(0 -9.5841e-05 0)
(0 -0.00014524 0)
(0 -0.000146622 0)
(0 -0.000143683 0)
(0 -0.000146726 0)
(0 -0.000141886 0)
(0 -0.000144761 0)
(0 -0.000138895 0)
(0 -0.00013703 0)
(0 -0.00013408 0)
(0 -0.000132168 0)
(0 -0.000129259 0)
(0 -0.000127313 0)
(0 -0.000124447 0)
(0 -0.000122458 0)
(0 -0.000119641 0)
(0 -0.000117583 0)
(0 -0.000120267 0)
(0 -0.000114826 0)
(0 -0.000112737 0)
(0 -0.000116852 0)
(0 -0.000110013 0)
(0 -0.000107917 0)
(0 -8.50694e-05 0)
(0 -0.000105233 0)
(0 -0.000103111 0)
(0 -0.000100456 0)
(0 -9.83135e-05 0)
(0 -9.5681e-05 0)
(0 -9.35165e-05 0)
(0 -9.59825e-05 0)
(0 -9.11734e-05 0)
(0 -9.34255e-05 0)
(0 -8.87823e-05 0)
(0 -0.000100894 0)
(0 -8.64548e-05 0)
(0 -8.41178e-05 0)
(0 -8.18388e-05 0)
(0 -7.95284e-05 0)
(0 -7.72828e-05 0)
(0 -7.50119e-05 0)
(0 -7.27845e-05 0)
(0 -9.37715e-05 0)
(0 -7.88744e-06 0)
(0 -8.99967e-06 0)
(0 -8.46828e-06 0)
(0 -9.65717e-06 0)
(0 -9.12044e-06 0)
(0 -1.05568e-05 0)
(0 -9.80544e-06 0)
(0 -1.11386e-05 0)
(0 -1.04999e-05 0)
(0 -1.18758e-05 0)
(0 -1.12555e-05 0)
(0 -1.27165e-05 0)
(0 -1.20906e-05 0)
(0 -1.36442e-05 0)
(0 -1.29945e-05 0)
(0 -1.14685e-05 0)
(0 -1.23646e-05 0)
(0 -1.08842e-05 0)
(0 -1.17756e-05 0)
(0 -1.03346e-05 0)
(0 -1.12541e-05 0)
(0 -9.8862e-06 0)
(0 -1.07771e-05 0)
(0 -9.32439e-06 0)
(0 -1.03548e-05 0)
(0 -9.08454e-06 0)
(0 -1.00066e-05 0)
(0 -8.77053e-06 0)
(0 -9.70079e-06 0)
(0 -8.50027e-06 0)
(0 -9.46226e-06 0)
(0 -8.32214e-06 0)
(0 -1.21778e-05 0)
(0 -9.28013e-06 0)
(0 -8.17344e-06 0)
(0 -9.13029e-06 0)
(0 -8.0266e-06 0)
(0 -1.03256e-05 0)
(0 -1.24135e-05 0)
(0 -9.01665e-06 0)
(0 -7.96463e-06 0)
(0 -8.95195e-06 0)
(0 -7.92329e-06 0)
(0 -8.941e-06 0)
(0 -7.94531e-06 0)
(0 -8.98726e-06 0)
(0 -8.03732e-06 0)
(0 -9.0821e-06 0)
(0 -8.15583e-06 0)
(0 -1.01058e-05 0)
(0 -7.32602e-06 0)
(0 -9.22105e-06 0)
(0 -8.31311e-06 0)
(0 -9.40798e-06 0)
(0 -8.51164e-06 0)
(0 -7.46392e-06 0)
(0 -7.69381e-06 0)
(0 -6.70097e-06 0)
(0 -6.95355e-06 0)
(0 -6.01153e-06 0)
(0 -6.26526e-06 0)
(0 -5.25899e-06 0)
(0 -5.64933e-06 0)
(0 -4.8019e-06 0)
(0 -5.11357e-06 0)
(0 -4.33129e-06 0)
(0 -4.61472e-06 0)
(0 -3.88196e-06 0)
(0 -4.1729e-06 0)
(0 -3.49942e-06 0)
(0 -3.79077e-06 0)
(0 -3.15818e-06 0)
(0 -5.37737e-06 0)
(0 -8.7481e-06 0)
(0 -4.03652e-06 0)
(0 -7.83259e-06 0)
(0 -7.01969e-06 0)
(0 -1.46096e-05 0)
(0 -7.05713e-05 0)
(0 -7.27515e-05 0)
(0 -9.77612e-05 0)
(0 -7.50071e-05 0)
(0 -6.83373e-05 0)
(0 -6.61652e-05 0)
(0 -6.39382e-05 0)
(0 -6.18078e-05 0)
(0 -5.95748e-05 0)
(0 -5.75009e-05 0)
(0 -9.54939e-05 0)
(0 -0.000100255 0)
(0 -9.65735e-05 0)
(0 -0.000101261 0)
(0 -9.74832e-05 0)
(0 -5.52856e-05 0)
(0 -5.7087e-05 0)
(0 -9.27923e-05 0)
(0 -9.36159e-05 0)
(0 -9.82406e-05 0)
(0 -9.42952e-05 0)
(0 -3.12859e-05 0)
(0 -3.18732e-05 0)
(0 -3.31748e-05 0)
(0 -3.37905e-05 0)
(0 -3.22962e-05 0)
(0 -3.42197e-05 0)
(0 -3.56897e-05 0)
(0 -3.60633e-05 0)
(0 -3.75255e-05 0)
(0 -3.78269e-05 0)
(0 -3.9308e-05 0)
(0 -3.95773e-05 0)
(0 -4.10849e-05 0)
(0 -4.14341e-05 0)
(0 -3.97932e-05 0)
(0 -4.17388e-05 0)
(0 -4.34721e-05 0)
(0 -4.38378e-05 0)
(0 -4.56355e-05 0)
(0 -4.60125e-05 0)
(0 -4.77914e-05 0)
(0 -4.81836e-05 0)
(0 -4.99669e-05 0)
(0 -5.03528e-05 0)
(0 -5.22204e-05 0)
(0 -5.25655e-05 0)
(0 -5.04714e-05 0)
(0 -5.26945e-05 0)
(0 -5.48128e-05 0)
(0 -5.50516e-05 0)
(0 -5.72182e-05 0)
(0 -5.7632e-05 0)
(0 -5.98586e-05 0)
(0 -6.0473e-05 0)
(0 -6.27548e-05 0)
(0 -6.35779e-05 0)
(0 -6.10921e-05 0)
(0 -6.43701e-05 0)
(0 -6.68677e-05 0)
(0 -6.77969e-05 0)
(0 -7.0299e-05 0)
(0 -7.13444e-05 0)
(0 -7.38733e-05 0)
(0 -7.49909e-05 0)
(0 -7.75123e-05 0)
(0 -7.86692e-05 0)
(0 -8.11764e-05 0)
(0 -8.23744e-05 0)
(0 -8.49258e-05 0)
(0 -8.61727e-05 0)
(0 -8.88017e-05 0)
(0 -9.00815e-05 0)
(0 -9.27884e-05 0)
(0 -9.40685e-05 0)
(0 -9.68305e-05 0)
(0 -9.81156e-05 0)
(0 -0.000100907 0)
(0 -0.000102222 0)
(0 -0.000105087 0)
(0 -0.000106451 0)
(0 -0.000109454 0)
(0 -0.000110856 0)
(0 -0.000113979 0)
(0 -0.000115412 0)
(0 -0.00011858 0)
(0 -0.000120019 0)
(0 -0.000123197 0)
(0 -0.000124641 0)
(0 -0.000127811 0)
(0 -0.000129259 0)
(0 -0.00013238 0)
(0 -0.000133868 0)
(0 -0.000136961 0)
(0 -0.000138505 0)
(0 -0.000141582 0)
(0 -0.000143139 0)
(0 -0.000146159 0)
(0 -0.00014768 0)
(0 -0.000150761 0)
(0 -0.0001522 0)
(0 -0.000155371 0)
(0 -0.000156725 0)
(0 -0.000160016 0)
(0 -0.000161347 0)
(0 -0.000164794 0)
(0 -0.000166132 0)
(0 -0.000169766 0)
(0 -0.00017109 0)
(0 -0.000167228 0)
(0 -0.000172093 0)
(0 -0.000176082 0)
(0 -0.000176943 0)
(0 -0.000180936 0)
(0 -0.000181745 0)
(0 -0.000177528 0)
(0 -0.000182284 0)
(0 -0.000186519 0)
(0 -0.000186941 0)
(0 -0.000163354 0)
(0 -0.000182466 0)
(0 -0.000186925 0)
(0 -0.000191414 0)
(0 -0.000191217 0)
(0 -0.000195781 0)
(0 -0.000195431 0)
(0 -0.000190654 0)
(0 -0.00019474 0)
(0 -0.00019956 0)
(0 -0.000198714 0)
(0 -0.000203512 0)
(0 -0.000202584 0)
(0 -0.00019772 0)
(0 -0.000201401 0)
(0 -0.00014495 0)
(0 -0.000206401 0)
(0 -0.000205063 0)
(0 -0.000199971 0)
(0 -0.000203534 0)
(0 -0.000208717 0)
(0 -0.000207085 0)
(0 -0.000212229 0)
(0 -0.000210519 0)
(0 -0.000205222 0)
(0 -0.0002086 0)
(0 -0.000213812 0)
(0 -0.00021188 0)
(0 -0.000206527 0)
(0 -0.00020971 0)
(0 -0.000214986 0)
(0 -0.000212699 0)
(0 -0.000217895 0)
(0 -0.000215529 0)
(0 -0.000210186 0)
(0 -0.000212884 0)
(0 -0.000218164 0)
(0 -0.000215342 0)
(0 -0.000220409 0)
(0 -0.000217599 0)
(0 -0.000212222 0)
(0 -0.000214516 0)
(0 -0.000219808 0)
(0 -0.000216721 0)
(0 -0.00012152 0)
(0 -0.000211115 0)
(0 -0.000213294 0)
(0 -0.000218806 0)
(0 -0.000215399 0)
(0 -0.00022076 0)
(0 -0.000217394 0)
(0 -0.000211858 0)
(0 -0.000213893 0)
(0 -0.000219012 0)
(0 -0.000215631 0)
(0 -0.000210167 0)
(0 -0.000211997 0)
(0 -0.000217299 0)
(0 -0.00021362 0)
(0 -0.000218827 0)
(0 -0.000215047 0)
(0 -0.00020949 0)
(0 -0.000210851 0)
(0 -0.000216279 0)
(0 -0.00021204 0)
(0 -0.000217315 0)
(0 -0.000213148 0)
(0 -0.000207743 0)
(0 -0.000208884 0)
(0 -0.000214474 0)
(0 -0.000210071 0)
(0 -0.000204536 0)
(0 -0.000205477 0)
(0 -0.000210867 0)
(0 -0.00020612 0)
(0 -0.000211312 0)
(0 -0.00020669 0)
(0 -0.000200697 0)
(0 -0.000202143 0)
(0 -0.000207269 0)
(0 -0.000202588 0)
(0 -0.000197525 0)
(0 -0.000197737 0)
(0 -0.000202905 0)
(0 -0.000198051 0)
(0 -9.93811e-05 0)
(0 -0.000192809 0)
(0 -0.000193162 0)
(0 -0.000203056 0)
(0 -0.000187791 0)
(0 -0.000188155 0)
(0 -7.98527e-05 0)
(0 -0.000182628 0)
(0 -0.000183047 0)
(0 -0.000177325 0)
(0 -0.000177802 0)
(0 -0.000139915 0)
(0 -0.000171863 0)
(0 -0.000172357 0)
(0 -0.000171243 0)
(0 -0.000178107 0)
(0 -0.000172657 0)
(0 -0.000178206 0)
(0 -0.000172795 0)
(0 -0.000167119 0)
(0 -0.000167252 0)
(0 -6.18634e-05 0)
(0 -0.000172845 0)
(0 -0.000167334 0)
(0 -0.000161615 0)
(0 -0.000161762 0)
(0 -0.000155945 0)
(0 -0.000156196 0)
(0 -0.000172765 0)
(0 -3.99689e-05 0)
(0 -0.00015029 0)
(0 -0.000150634 0)
(0 -0.000144623 0)
(0 -0.000145012 0)
(0 -0.000150902 0)
(0 -0.000145335 0)
(0 -0.000139341 0)
(0 -0.000139719 0)
(0 -0.000151068 0)
(0 -0.000133633 0)
(0 -0.000134085 0)
(0 -0.000121527 0)
(0 -0.000127932 0)
(0 -0.000128431 0)
(0 -8.35822e-05 0)
(0 -0.000122218 0)
(0 -0.000122731 0)
(0 -0.000121595 0)
(0 -0.000128757 0)
(0 -0.000123093 0)
(0 -6.18499e-05 0)
(0 -0.000215157 0)
(0 -0.000117028 0)
(0 -0.000117435 0)
(0 -0.000103681 0)
(0 -5.32876e-05 0)
(0 -5.53101e-05 0)
(0 -5.11369e-05 0)
(0 -8.96697e-05 0)
(0 -9.02957e-05 0)
(0 -6.70899e-05 0)
(0 -5.15602e-05 0)
(0 -0.00012893 0)
(0 -9.88538e-05 0)
(0 -0.000111355 0)
(0 -0.000111799 0)
(0 -0.000144232 0)
(0 -4.92202e-05 0)
(0 -4.71255e-05 0)
(0 -8.56683e-05 0)
(0 -8.62481e-05 0)
(0 -0.00010597 0)
(0 -4.06412e-05 0)
(0 -0.000105713 0)
(0 -0.000106166 0)
(0 -4.5274e-05 0)
(0 -4.32491e-05 0)
(0 -8.16061e-05 0)
(0 -8.2139e-05 0)
(0 -0.000100058 0)
(0 -0.000100517 0)
(0 -0.000106453 0)
(0 -0.000100833 0)
(0 -0.000106566 0)
(0 -0.000100985 0)
(0 -9.52753e-05 0)
(0 -9.54536e-05 0)
(0 -8.97613e-05 0)
(0 -8.99576e-05 0)
(0 -9.54385e-05 0)
(0 -8.99922e-05 0)
(0 -4.14304e-05 0)
(0 -3.94905e-05 0)
(0 -4.10644e-05 0)
(0 -7.74826e-05 0)
(0 -7.79783e-05 0)
(0 -8.25515e-05 0)
(0 -7.83546e-05 0)
(0 -7.68817e-05 0)
(0 -8.28422e-05 0)
(0 -7.86082e-05 0)
(0 -8.30077e-05 0)
(0 -7.87459e-05 0)
(0 -1.23784e-05 0)
(0 -1.35484e-05 0)
(0 -1.30534e-05 0)
(0 -1.42744e-05 0)
(0 -1.38054e-05 0)
(0 -1.50678e-05 0)
(0 -1.46004e-05 0)
(0 -1.59214e-05 0)
(0 -1.54723e-05 0)
(0 -1.68458e-05 0)
(0 -1.64586e-05 0)
(0 -1.78508e-05 0)
(0 -1.74251e-05 0)
(0 -1.88796e-05 0)
(0 -1.8423e-05 0)
(0 -7.43367e-05 0)
(0 -7.44593e-05 0)
(0 -8.45415e-05 0)
(0 -8.46387e-05 0)
(0 -1.99944e-05 0)
(0 -1.95657e-05 0)
(0 -9.94614e-05 0)
(0 -2.11856e-05 0)
(0 -2.08167e-05 0)
(0 -3.25596e-05 0)
(0 -5.04158e-05 0)
(0 -3.73529e-05 0)
(0 -3.83958e-05 0)
(0 -3.58711e-05 0)
(0 -2.2449e-05 0)
(0 -2.21534e-05 0)
(0 -2.38371e-05 0)
(0 -2.35838e-05 0)
(0 -2.5396e-05 0)
(0 -2.51309e-05 0)
(0 -8.30471e-05 0)
(0 -7.92381e-05 0)
(0 -7.94007e-05 0)
(0 -7.00356e-05 0)
(0 -7.01472e-05 0)
(0 -9.5234e-05 0)
(0 -7.2738e-05 0)
(0 -7.20618e-05 0)
(0 -3.69596e-05 0)
(0 -3.97315e-05 0)
(0 -3.84361e-05 0)
(0 -4.12447e-05 0)
(0 -3.99428e-05 0)
(0 -4.2867e-05 0)
(0 -4.15027e-05 0)
(0 -4.4598e-05 0)
(0 -4.31426e-05 0)
(0 -4.63128e-05 0)
(0 -4.48601e-05 0)
(0 -4.17697e-05 0)
(0 -4.34945e-05 0)
(0 -4.05086e-05 0)
(0 -4.21008e-05 0)
(0 -4.53001e-05 0)
(0 -4.39479e-05 0)
(0 -4.07462e-05 0)
(0 -4.26674e-05 0)
(0 -3.95961e-05 0)
(0 -4.14572e-05 0)
(0 -3.84868e-05 0)
(0 -4.03192e-05 0)
(0 -3.73408e-05 0)
(0 -3.92586e-05 0)
(0 -3.62776e-05 0)
(0 -3.82722e-05 0)
(0 -3.53779e-05 0)
(0 -3.73786e-05 0)
(0 -3.45779e-05 0)
(0 -3.66016e-05 0)
(0 -3.39539e-05 0)
(0 -3.59484e-05 0)
(0 -4.2305e-05 0)
(0 -3.87151e-05 0)
(0 -3.80682e-05 0)
(0 -4.09351e-05 0)
(0 -4.02534e-05 0)
(0 -4.23319e-05 0)
(0 -3.34944e-05 0)
(0 -4.72056e-05 0)
(0 -4.31949e-05 0)
(0 -4.24297e-05 0)
(0 -1.47676e-05 0)
(0 -3.38168e-05 0)
(0 -3.24098e-05 0)
(0 -2.70561e-05 0)
(0 -7.40661e-05 0)
(0 -7.42794e-05 0)
(0 -6.57147e-05 0)
(0 -6.5817e-05 0)
(0 -4.54835e-05 0)
(0 -4.46564e-05 0)
(0 1.25054e-06 0)
(0 1.10992e-06 0)
(0 1.24703e-06 0)
(0 1.10386e-06 0)
(0 1.23684e-06 0)
(0 1.09749e-06 0)
(0 1.22279e-06 0)
(0 1.07893e-06 0)
(0 1.20138e-06 0)
(0 1.05066e-06 0)
(0 1.19596e-06 0)
(0 1.01755e-06 0)
(0 1.15108e-06 0)
(0 9.74093e-07 0)
(0 1.1175e-06 0)
(0 9.30423e-07 0)
(0 1.0746e-06 0)
(0 8.83939e-07 0)
(0 1.02343e-06 0)
(0 8.29848e-07 0)
(0 9.72363e-07 0)
(0 7.71965e-07 0)
(0 9.49268e-07 0)
(0 6.99102e-07 0)
(0 8.48696e-07 0)
(0 6.01784e-07 0)
(0 7.45316e-07 0)
(0 4.37775e-07 0)
(0 7.0321e-07 0)
(0 4.97366e-07 0)
(0 6.39766e-07 0)
(0 9.07413e-07 0)
(0 3.81076e-07 0)
(0 5.31471e-07 0)
(0 2.45739e-07 0)
(0 4.08708e-07 0)
(0 6.96348e-07 0)
(0 5.4966e-07 0)
(0 2.57643e-07 0)
(0 4.01421e-07 0)
(0 6.64371e-07 0)
(0 5.17992e-07 0)
(0 7.64266e-07 0)
(0 6.08219e-07 0)
(0 8.42735e-07 0)
(0 6.80351e-07 0)
(0 8.99206e-07 0)
(0 4.15821e-07 0)
(0 7.34731e-07 0)
(0 9.45725e-07 0)
(0 7.767e-07 0)
(0 9.7615e-07 0)
(0 -6.85257e-06 0)
(0 -1.82959e-05 0)
(0 -0.000249366 0)
(0 -6.79021e-05 0)
(0 -6.71609e-05 0)
(0 -2.67897e-05 0)
(0 -2.87996e-05 0)
(0 1.1309e-06 0)
(0 -3.04502e-05 0)
(0 -2.90988e-05 0)
(0 -8.83807e-06 0)
(0 -6.89934e-05 0)
(0 -6.92518e-05 0)
(0 -6.85719e-05 0)
(0 -7.43134e-05 0)
(0 -6.93459e-05 0)
(0 -2.48689e-05 0)
(0 -4.7813e-05 0)
(0 -4.86255e-05 0)
(0 -4.69899e-05 0)
(0 -6.13782e-05 0)
(0 -6.14812e-05 0)
(0 -6.5812e-05 0)
(0 -6.1485e-05 0)
(0 -6.56964e-05 0)
(0 -6.13808e-05 0)
(0 -6.54739e-05 0)
(0 -6.1174e-05 0)
(0 -6.43191e-05 0)
(0 -6.4475e-05 0)
(0 -3.19434e-05 0)
(0 1.27794e-06 0)
(0 -3.24575e-05 0)
(0 -5.70842e-05 0)
(0 -5.68956e-05 0)
(0 -6.51556e-05 0)
(0 -9.77441e-05 0)
(0 -2.6567e-05 0)
(0 -2.46395e-05 0)
(0 1.03952e-06 0)
(0 -2.72442e-05 0)
(0 -1.25631e-05 0)
(0 -3.57437e-05 0)
(0 9.84371e-08 0)
(0 -0.000184477 0)
(0 -3.08127e-05 0)
(0 -4.32564e-05 0)
(0 -0.000160242 0)
(0 -2.83703e-05 0)
(0 -0.000210799 0)
(0 -0.000186403 0)
(0 -6.93116e-05 0)
(0 -6.44871e-05 0)
(0 -5.97089e-05 0)
(0 -5.97773e-05 0)
(0 -5.02001e-05 0)
(0 -6.29786e-05 0)
(0 -6.21852e-05 0)
(0 -7.54617e-05 0)
(0 -2.58903e-05 0)
(0 -9.11198e-05 0)
(0 -9.03337e-05 0)
(0 -9.42799e-05 0)
(0 -9.35125e-05 0)
(0 -9.75057e-05 0)
(0 -9.65037e-05 0)
(0 -0.000100706 0)
(0 -9.99487e-05 0)
(0 -0.000103882 0)
(0 -0.000102893 0)
(0 -9.90567e-05 0)
(0 -0.000106919 0)
(0 -0.000108024 0)
(0 -0.000111061 0)
(0 -0.000112277 0)
(0 -0.000115297 0)
(0 -0.000116612 0)
(0 -0.000119576 0)
(0 -0.00012107 0)
(0 -0.000123894 0)
(0 -0.000125558 0)
(0 -0.000128217 0)
(0 -0.000129884 0)
(0 -0.000132617 0)
(0 -0.000134399 0)
(0 -0.000137093 0)
(0 -0.000138942 0)
(0 -0.000141636 0)
(0 -0.000143515 0)
(0 -0.000146238 0)
(0 -0.000148127 0)
(0 -0.000145384 0)
(0 -0.000149994 0)
(0 -0.000152809 0)
(0 -0.00015476 0)
(0 -0.000157617 0)
(0 -0.000159648 0)
(0 -0.0001625 0)
(0 -0.000164579 0)
(0 -0.000167422 0)
(0 -0.000169554 0)
(0 -0.000172408 0)
(0 -0.000151915 0)
(0 -0.000174553 0)
(0 -0.000177432 0)
(0 -0.000179569 0)
(0 -0.000182394 0)
(0 -0.000184552 0)
(0 -0.000187248 0)
(0 -0.000189382 0)
(0 -0.000191985 0)
(0 -0.000171617 0)
(0 -0.000194108 0)
(0 -0.000196639 0)
(0 -0.000198799 0)
(0 -0.000201252 0)
(0 -0.000191497 0)
(0 -0.000203439 0)
(0 -0.000205814 0)
(0 -0.000207988 0)
(0 -0.000210304 0)
(0 -0.000212474 0)
(0 -0.000214771 0)
(0 -0.000212544 0)
(0 -0.000216961 0)
(0 -0.000214665 0)
(0 -0.000219014 0)
(0 -0.000221316 0)
(0 -0.000223278 0)
(0 -0.000220962 0)
(0 -0.000225072 0)
(0 -0.000227371 0)
(0 -0.00022901 0)
(0 -0.000231265 0)
(0 -0.0002328 0)
(0 -0.000194494 0)
(0 -0.000234968 0)
(0 -0.000236403 0)
(0 -0.000234199 0)
(0 -0.000237686 0)
(0 -0.000239834 0)
(0 -0.000240952 0)
(0 -0.000238763 0)
(0 -0.000241895 0)
(0 -0.000244033 0)
(0 -0.000244901 0)
(0 -0.000246943 0)
(0 -0.000247789 0)
(0 -0.000245641 0)
(0 -0.000248475 0)
(0 -0.000250579 0)
(0 -0.000251129 0)
(0 -0.00024887 0)
(0 -0.000251381 0)
(0 -0.00025365 0)
(0 -0.000253786 0)
(0 -0.000256033 0)
(0 -0.000256106 0)
(0 -0.000253694 0)
(0 -0.000255933 0)
(0 -0.000258373 0)
(0 -0.000258087 0)
(0 -0.000260526 0)
(0 -0.000260157 0)
(0 -0.000257613 0)
(0 -0.00025955 0)
(0 -0.0002621 0)
(0 -0.000261329 0)
(0 -0.00026381 0)
(0 -0.000262946 0)
(0 -0.000260383 0)
(0 -0.000261869 0)
(0 -0.000264405 0)
(0 -0.000263178 0)
(0 -0.000109888 0)
(0 -0.000265616 0)
(0 -0.000264303 0)
(0 -0.00026173 0)
(0 -0.000262774 0)
(0 -0.000265245 0)
(0 -0.000263619 0)
(0 -0.000261015 0)
(0 -0.000261765 0)
(0 -0.000264295 0)
(0 -0.000262362 0)
(0 -0.000264756 0)
(0 -0.000262787 0)
(0 -0.000127178 0)
(0 -0.000260314 0)
(0 -0.000260679 0)
(0 -0.000263084 0)
(0 -0.000260875 0)
(0 -0.000263187 0)
(0 -0.000260934 0)
(0 -0.00025856 0)
(0 -0.00025862 0)
(0 -0.000260843 0)
(0 -0.000258395 0)
(0 -0.000210073 0)
(0 -0.000260507 0)
(0 -0.000257907 0)
(0 -0.000255448 0)
(0 -0.000255104 0)
(0 -0.000257343 0)
(0 -0.000254481 0)
(0 -0.000175351 0)
(0 -0.000252127 0)
(0 -0.000251424 0)
(0 -0.000253714 0)
(0 -0.00025064 0)
(0 -0.000252815 0)
(0 -0.000249754 0)
(0 -0.000247462 0)
(0 -0.000246559 0)
(0 -0.00024878 0)
(0 -0.000245557 0)
(0 -0.00012649 0)
(0 -0.000247653 0)
(0 -0.000244418 0)
(0 -0.000242196 0)
(0 -0.000241051 0)
(0 -0.000243145 0)
(0 -0.00023976 0)
(0 -0.000237582 0)
(0 -0.000236273 0)
(0 -0.000233976 0)
(0 -0.000232658 0)
(0 -0.000234828 0)
(0 -0.000231246 0)
(0 -0.00022893 0)
(0 -0.000227569 0)
(0 -0.000229764 0)
(0 -0.000226085 0)
(0 -0.000223749 0)
(0 -0.000222232 0)
(0 -0.000219754 0)
(0 -0.000218212 0)
(0 -0.000220575 0)
(0 -0.000216507 0)
(0 -0.000214015 0)
(0 -0.00021225 0)
(0 -0.000209694 0)
(0 -0.000207923 0)
(0 -0.000205282 0)
(0 -0.000203659 0)
(0 -0.000200899 0)
(0 -0.000199246 0)
(0 -0.000196481 0)
(0 -0.00019466 0)
(0 -0.000233397 0)
(0 -0.000160461 0)
(0 -0.000144304 0)
(0 -0.000222701 0)
(0 -1.52896e-05 0)
(0 -1.63122e-05 0)
(0 -0.000251295 0)
(0 -5.34235e-05 0)
(0 -9.3677e-05 0)
(0 -4.78539e-05 0)
(0 -3.93429e-05 0)
(0 -2.54395e-05 0)
(0 -0.000218741 0)
(0 -3.13386e-05 0)
(0 -2.16556e-05 0)
(0 -0.000191873 0)
(0 -0.000190054 0)
(0 -5.50523e-05 0)
(0 -5.51836e-05 0)
(0 -0.00024872 0)
(0 1.34303e-06 0)
(0 -5.7037e-05 0)
(0 -1.09984e-05 0)
(0 -0.000206524 0)
(0 -2.63915e-05 0)
(0 -2.44575e-05 0)
(0 6.52267e-08 0)
(0 -4.93972e-05 0)
(0 -5.28112e-05 0)
(0 -5.26442e-05 0)
(0 -0.000187234 0)
(0 -0.000185401 0)
(0 -0.000182503 0)
(0 -0.000180663 0)
(0 -2.4146e-05 0)
(0 -0.000177565 0)
(0 -0.000175859 0)
(0 -1.50904e-05 0)
(0 -2.28255e-05 0)
(0 -5.26194e-05 0)
(0 -1.70428e-05 0)
(0 -1.81131e-05 0)
(0 -0.000165648 0)
(0 -0.00016485 0)
(0 -0.000159153 0)
(0 -0.000158134 0)
(0 -0.00015238 0)
(0 -0.000151237 0)
(0 -0.000145299 0)
(0 -0.000144015 0)
(0 -0.000137911 0)
(0 -0.000136435 0)
(0 -0.000130208 0)
(0 -0.00012856 0)
(0 -0.00013486 0)
(0 -0.000126826 0)
(0 -0.000133172 0)
(0 -0.000124937 0)
(0 -0.000131246 0)
(0 -0.000122863 0)
(0 -0.000129125 0)
(0 -0.000120616 0)
(0 -0.000126876 0)
(0 -0.000122254 0)
(0 -0.00011822 0)
(0 -0.000124463 0)
(0 -0.000115716 0)
(0 -0.000121984 0)
(0 -0.00011311 0)
(0 -0.000119453 0)
(0 -0.000114372 0)
(0 -0.000110356 0)
(0 -0.000116664 0)
(0 -0.000125578 0)
(0 -0.00012279 0)
(0 -0.000113641 0)
(0 -0.00011974 0)
(0 -0.000110495 0)
(0 -0.000116591 0)
(0 -0.000125696 0)
(0 -0.000122665 0)
(0 -0.000113471 0)
(0 -0.000119651 0)
(0 -0.000110383 0)
(0 -0.000116585 0)
(0 -0.000125673 0)
(0 -0.000122652 0)
(0 -0.000113423 0)
(0 -0.000119537 0)
(0 -0.000128492 0)
(0 -0.000125505 0)
(0 -0.00011636 0)
(0 -0.000122316 0)
(0 -0.000113068 0)
(0 -0.000119008 0)
(0 -0.000127853 0)
(0 -0.000124829 0)
(0 -0.000115795 0)
(0 -0.000121772 0)
(0 -0.000130567 0)
(0 -0.000127391 0)
(0 -0.000118566 0)
(0 -0.000124072 0)
(0 -0.000115185 0)
(0 -0.000120619 0)
(0 -0.000129378 0)
(0 -0.000125849 0)
(0 -0.000116978 0)
(0 -0.000122225 0)
(0 -0.000113301 0)
(0 -0.00011848 0)
(0 -0.000127288 0)
(0 -0.000123396 0)
(0 -0.000114598 0)
(0 -0.000119373 0)
(0 -0.000110509 0)
(0 -0.000115095 0)
(0 -0.000123662 0)
(0 -0.000119425 0)
(0 -0.00011061 0)
(0 -0.000114981 0)
(0 -0.000123412 0)
(0 -0.000119063 0)
(0 -0.000110412 0)
(0 -0.00011448 0)
(0 -0.000105768 0)
(0 -0.000109704 0)
(0 -0.000118185 0)
(0 -0.000113385 0)
(0 -0.000104934 0)
(0 -0.000108605 0)
(0 -0.000100227 0)
(0 -0.000103899 0)
(0 -0.000112027 0)
(0 -0.000107353 0)
(0 -9.93074e-05 0)
(0 -0.000102775 0)
(0 -0.000110516 0)
(0 -0.000105958 0)
(0 -9.83291e-05 0)
(0 -0.000101518 0)
(0 -9.40539e-05 0)
(0 -9.72299e-05 0)
(0 -8.99447e-05 0)
(0 -9.31187e-05 0)
(0 -0.000113331 0)
(0 -8.596e-05 0)
(0 -8.90711e-05 0)
(0 -9.60808e-05 0)
(0 -9.19067e-05 0)
(0 -8.49909e-05 0)
(0 -8.75889e-05 0)
(0 -8.07349e-05 0)
(0 -8.30554e-05 0)
(0 -7.62207e-05 0)
(0 -7.8303e-05 0)
(0 -9.86644e-05 0)
(0 -7.15462e-05 0)
(0 -7.34887e-05 0)
(0 -8.01671e-05 0)
(0 -7.53646e-05 0)
(0 -6.87411e-05 0)
(0 -7.06745e-05 0)
(0 -6.41908e-05 0)
(0 -6.62029e-05 0)
(0 -5.98685e-05 0)
(0 -6.1839e-05 0)
(0 -8.18481e-05 0)
(0 -5.56455e-05 0)
(0 -5.75046e-05 0)
(0 -6.35755e-05 0)
(0 -5.93171e-05 0)
(0 -5.32889e-05 0)
(0 -5.52388e-05 0)
(0 -4.93362e-05 0)
(0 -5.13422e-05 0)
(0 -4.57193e-05 0)
(0 -4.75867e-05 0)
(0 -8.25839e-05 0)
(0 -0.00010395 0)
(0 -4.22522e-05 0)
(0 -4.39092e-05 0)
(0 -6.94489e-05 0)
(0 -4.92302e-05 0)
(0 -4.5451e-05 0)
(0 -4.02672e-05 0)
(0 -4.16558e-05 0)
(0 -3.67635e-05 0)
(0 -3.78145e-05 0)
(0 -6.52022e-05 0)
(0 -0.000132684 0)
(0 -3.31101e-05 0)
(0 -3.38969e-05 0)
(0 -2.94413e-05 0)
(0 -3.01848e-05 0)
(0 -2.61144e-05 0)
(0 -2.68905e-05 0)
(0 -0.000123968 0)
(0 -0.000115993 0)
(0 -0.000117712 0)
(0 -0.000109714 0)
(0 -0.000111473 0)
(0 -0.000103476 0)
(0 -0.000105274 0)
(0 -9.72448e-05 0)
(0 -9.54529e-05 0)
(0 -9.90397e-05 0)
(0 -9.0958e-05 0)
(0 -9.28017e-05 0)
(0 -3.10105e-05 0)
(0 -2.77841e-05 0)
(0 -2.38865e-05 0)
(0 -2.48894e-05 0)
(0 -5.79638e-05 0)
(0 -5.71154e-05 0)
(0 1.38099e-06 0)
(0 -2.10496e-05 0)
(0 -2.22624e-05 0)
(0 -6.91117e-05 0)
(0 -8.46783e-05 0)
(0 -8.65812e-05 0)
(0 -5.36652e-05 0)
(0 -4.62582e-05 0)
(0 -4.86805e-05 0)
(0 -5.05098e-05 0)
(0 -5.07126e-05 0)
(0 -5.01856e-05 0)
(0 -0.000250521 0)
(0 -1.84158e-05 0)
(0 -1.98077e-05 0)
(0 -2.37081e-05 0)
(0 -2.14073e-05 0)
(0 -1.74611e-05 0)
(0 -1.92068e-05 0)
(0 -5.51954e-05 0)
(0 -5.07942e-05 0)
(0 -6.13009e-05 0)
(0 -5.61824e-05 0)
(0 -6.03264e-05 0)
(0 -5.51554e-05 0)
(0 -5.92313e-05 0)
(0 -5.40201e-05 0)
(0 -0.000172619 0)
(0 -0.000170951 0)
(0 -2.12014e-05 0)
(0 -1.52545e-05 0)
(0 -1.71508e-05 0)
(0 -5.06565e-05 0)
(0 -4.8572e-05 0)
(0 -4.84305e-05 0)
(0 -5.23643e-05 0)
(0 -4.81679e-05 0)
(0 -5.19648e-05 0)
(0 -4.77888e-05 0)
(0 -4.63779e-05 0)
(0 -4.65176e-05 0)
(0 -1.91444e-05 0)
(0 -2.62703e-05 0)
(0 -2.43048e-05 0)
(0 -2.82776e-05 0)
(0 -0.000247883 0)
(0 -0.00019733 0)
(0 -1.99647e-05 0)
(0 -2.14341e-05 0)
(0 -4.40089e-05 0)
(0 -4.36639e-05 0)
(0 -0.000167603 0)
(0 -0.000165921 0)
(0 -5.14415e-05 0)
(0 -0.000183553 0)
(0 -1.33154e-05 0)
(0 -1.53573e-05 0)
(0 -1.91099e-05 0)
(0 -1.7423e-05 0)
(0 -1.3915e-05 0)
(0 -1.60318e-05 0)
(0 -1.27614e-05 0)
(0 -1.47318e-05 0)
(0 -4.0385e-05 0)
(0 -8.73062e-05 0)
(0 -8.72552e-05 0)
(0 -9.15357e-05 0)
(0 -9.14083e-05 0)
(0 -9.5735e-05 0)
(0 -9.55138e-05 0)
(0 -9.9878e-05 0)
(0 -9.9554e-05 0)
(0 -0.000103951 0)
(0 -2.25693e-05 0)
(0 -2.23842e-05 0)
(0 -7.83604e-05 0)
(0 -8.03523e-05 0)
(0 -7.64888e-05 0)
(0 -0.000214562 0)
(0 -0.000212119 0)
(0 -0.000216579 0)
(0 -0.00021411 0)
(0 -0.000218512 0)
(0 -3.18835e-05 0)
(0 -4.21791e-05 0)
(0 -4.23792e-05 0)
(0 -0.000169191 0)
(0 -0.000164116 0)
(0 -0.000160761 0)
(0 -0.000158941 0)
(0 -0.000155517 0)
(0 -0.000153724 0)
(0 -0.00015017 0)
(0 -0.000148469 0)
(0 -0.00014487 0)
(0 -0.000143216 0)
(0 -3.70235e-05 0)
(0 -1.89053e-05 0)
(0 -2.00258e-05 0)
(0 -2.51982e-05 0)
(0 -5.51389e-05 0)
(0 -1.84048e-05 0)
(0 -1.94036e-05 0)
(0 -1.16913e-05 0)
(0 -1.32825e-05 0)
(0 -5.28493e-05 0)
(0 -1.92038e-05 0)
(0 -0.000249588 0)
(0 -1.61431e-05 0)
(0 -1.44524e-05 0)
(0 -1.16928e-05 0)
(0 -1.26977e-05 0)
(0 -9.98433e-06 0)
(0 -0.00010912 0)
(0 -8.15004e-05 0)
(0 -0.000162132 0)
(0 -0.000139676 0)
(0 -0.000137936 0)
(0 -2.11991e-05 0)
(0 -2.0295e-05 0)
(0 -2.06994e-05 0)
(0 -7.26801e-05 0)
(0 -0.000139017 0)