/*--------------------------------*- C++ -*----------------------------------*\
| =========                 |                                                 |
| \\      /  F ield         | OpenFOAM: The Open Source CFD Toolbox           |
|  \\    /   O peration     | Version:  v2012                                 |
|   \\  /    A nd           | Website:  www.openfoam.com                      |
|    \\/     M anipulation  |                                                 |
\*---------------------------------------------------------------------------*/
FoamFile
{
    version     2.0;
    format      ascii;
    class       volScalarField;
    location    "150";
    object      omega_0;
}
// * * * * * * * * * * * * * * * * * * * * * * * * * * * * * * * * * * * * * //

dimensions      [0 0 -1 0 0 0 0];


internalField   nonuniform List<scalar> 
18355
(
2.35523
0.0204259
0.201835
0.0210091
0.0510327
0.0724389
0.0216054
0.0587407
0.0219681
0.380068
0.025947
0.12384
0.13113
0.782006
0.0210736
0.0201903
0.0210055
0.0242547
0.15785
0.0225392
1.04715
0.0219129
0.0204564
0.0723458
0.0204672
0.0221524
0.0216412
0.0210142
0.0221553
0.0267638
0.331998
0.0416126
0.0203299
0.0200648
0.021158
0.022112
0.0262755
0.0221893
0.0272693
0.0219062
0.0221601
0.0265565
0.0200825
0.0204129
0.0204229
0.259273
0.0209904
0.0209799
0.456741
0.0212242
0.0208276
1.86642
0.0212678
0.132797
0.0212852
0.0225378
0.0211875
0.197709
0.0222352
0.578409
0.0200745
0.0857691
0.129561
0.0214017
0.0498032
0.0206264
0.023505
0.0262991
0.0200212
0.599129
0.0209352
0.0212851
0.035604
0.0252413
0.256462
0.0200405
0.214764
0.0200502
0.0209074
0.206715
0.0234736
0.0963871
0.0200317
0.0243924
0.0411505
0.0216889
0.0222622
0.034186
0.0208748
0.0341659
0.819167
0.120125
0.0781784
0.0212191
0.384482
0.02174
0.0208615
0.0212872
0.0686628
0.0218514
0.0391374
0.0208763
0.0211772
0.0195631
0.0236863
0.020201
0.049314
0.375005
0.0297228
0.020146
0.0207953
0.021435
0.0311546
0.0242045
0.280986
0.0269772
0.020854
0.223405
0.0228451
0.0233363
0.534494
0.20455
0.858568
0.0387239
0.198747
0.274392
0.0216396
0.0210388
2.37405
0.0216668
0.0208657
1.90184
0.0212737
0.07631
0.0811712
0.0208633
0.164787
0.5756
0.0211921
0.257707
0.0245326
0.0368235
0.0209563
1.53585
0.0804222
0.0216516
0.515392
0.0196092
0.0310216
0.25292
0.0210074
0.0232728
0.0213356
0.0263135
0.0200926
0.0205765
0.0210525
0.0216791
0.0209627
0.0206725
0.0246701
0.0212804
0.0201539
0.0297804
0.0257423
0.242386
0.573728
2.21819
0.535946
0.0245133
0.0213255
0.0706734
0.0215607
0.56502
0.0212389
0.0221218
0.0213526
0.0195266
0.0225546
0.0273272
0.0217358
0.224266
0.0217989
0.0210369
0.0268949
0.0211661
0.0217357
0.033321
0.0213459
0.0217328
0.262711
0.0691391
0.0204543
0.0200496
0.0214078
0.283256
0.0205383
2.12961
0.020435
0.807554
0.0211337
0.0231777
0.0275579
0.0216453
2.26589
0.0215807
0.37729
0.0210321
0.0202841
0.0212912
0.0215739
0.0515272
0.0224204
0.0219946
0.0196197
0.642063
0.0273745
0.0246591
0.0215999
0.0209936
0.0289397
0.0199688
0.0326885
0.0256
0.041185
0.023409
0.01999
0.57203
1.12085
0.0320852
0.0213737
0.0236986
0.273197
0.0199806
0.0302441
0.0437156
0.0219608
0.266123
0.0243621
0.0219599
0.0204507
0.0224682
0.0215681
0.0308183
0.0215778
0.0212903
0.0209819
0.0520838
0.0598752
0.0210176
0.0216848
0.0622746
0.154524
0.0264372
0.0195318
0.0355605
0.0243382
0.021746
0.023282
0.0208083
0.259625
0.29403
0.062278
0.0285536
0.0281433
0.0352366
0.0323874
0.0756228
0.0208006
0.0212917
0.0218985
0.020144
0.0231669
0.0247967
0.0209758
0.0215762
0.0307107
0.0208515
0.0669801
0.784237
0.0287583
0.0216028
0.027711
0.0201341
0.0348078
0.021528
0.0281603
0.0218754
0.0276161
0.325636
0.0203087
0.0420022
0.0227097
0.0237365
0.0334276
0.0212987
0.0200348
0.0615222
0.0215741
0.0386215
0.0263732
0.229674
0.035668
0.0638018
0.0236268
0.0320095
0.0211606
0.0236482
0.0280974
0.0418268
0.160669
0.269155
0.0210716
0.023856
0.108027
0.028256
0.0210671
0.0209719
0.0209935
0.0472078
0.267031
0.420981
0.216039
0.0302425
0.0243102
0.0474122
0.0196068
0.0215582
0.0242656
0.0213667
0.0321784
0.0210552
0.432269
0.0202201
0.166317
0.0213519
0.0218569
0.023946
0.143304
2.04538
0.030907
0.183005
0.0219465
0.0208845
0.021358
0.0242569
0.387946
0.0209086
0.0214749
0.0495432
0.0218721
0.0209087
0.158027
0.0237164
0.0209878
0.0212707
0.0288665
0.0222713
0.0287877
0.0200474
0.0214659
0.0218142
0.440235
0.0526328
0.020025
0.0209415
0.0332484
0.0210011
0.021466
0.045345
0.0615085
0.0326448
0.0213422
0.0220056
0.132193
0.021962
0.0384138
0.0237021
0.0202544
0.029469
0.0340163
0.0217323
0.0213455
0.0243001
0.0214548
0.0234151
0.0214026
0.0557669
0.0215844
0.0230828
0.0208737
0.0209947
0.0229978
0.0221407
0.0640715
0.477161
0.0492247
0.0228657
0.153469
0.0265846
0.0213706
0.0209952
0.039421
0.0213454
0.0340463
0.021473
0.0271762
0.0492982
0.065473
2.10604
0.0659466
0.0195725
2.89125
0.0218522
0.0209658
0.850296
0.0213161
0.0272329
0.0202744
0.0543651
0.0213112
0.0685368
0.39676
0.0578871
0.0212792
0.0204543
0.0603657
0.0228491
0.021014
0.342997
0.219662
0.0209601
0.0401982
0.0643758
0.0204495
0.0221774
0.0296872
0.82543
0.0354112
0.021873
0.0211989
0.0351187
0.0212802
0.0201887
0.0211538
0.0368376
0.477512
0.0202393
0.022089
0.0214962
0.150376
0.0332604
0.0200312
0.0273263
0.0330821
0.0214782
0.288261
0.0854719
0.0218336
0.0214373
0.0342265
0.15571
0.297428
0.0202177
1.94387
0.0212366
0.020232
0.0376023
0.0229578
0.0583731
0.0356477
0.0231992
0.0258142
0.0219223
0.154382
0.0230127
0.0274668
0.0219171
0.0201958
0.0217249
0.0202096
0.0842401
0.43577
0.0538254
0.0246862
0.0216174
0.0219159
0.0214964
0.023671
0.0214758
0.0200295
0.0213846
0.0350174
0.0204575
0.0214435
2.06539
2.10079
0.112245
0.021644
0.0219464
0.0297881
0.0218845
0.215024
0.228053
0.0236299
0.0245327
0.0256462
0.0222195
0.023408
3.71892
0.0296408
0.0219246
0.403617
0.0215798
2.10111
2.7788
0.0247455
0.022113
3.82287
0.020982
0.0650537
0.0420788
0.366031
0.0230134
0.0217024
0.0214642
0.443525
0.43083
0.362929
0.45952
0.0233616
0.0214537
0.0243908
0.0212981
0.023307
0.473738
0.701761
0.48157
0.115515
0.0268047
0.0389191
0.0324562
0.0209987
0.0211501
0.0280159
0.0238405
0.0215437
0.0212957
0.239637
0.0208458
0.12542
0.0245769
0.0790972
0.1401
0.0211568
0.0242042
2.32034
0.0213794
0.543176
0.021274
0.108923
0.0296591
0.0219516
0.0322362
0.0756789
0.0669003
0.0218342
0.020007
0.0334985
0.024946
0.0791222
0.0213727
0.0865163
0.0208373
0.22001
0.0212656
0.0211694
0.192617
0.0254228
0.0404709
0.0211252
0.0248873
0.0233941
0.424667
0.423303
0.0239274
0.0306626
0.0212092
0.0275142
0.0217688
0.0237795
3.80659
0.020416
0.0370225
0.0215705
0.0212873
0.0239008
0.219628
0.0224982
0.0671218
0.0220011
0.0344712
0.336474
0.0196141
0.0209893
2.18504
0.0334022
1.98812
0.0363984
0.021744
0.0213012
0.0209789
0.0252538
0.0220602
0.020132
0.121337
1.92977
0.0211531
1.00696
0.904192
0.0250689
0.210866
0.0202038
2.21618
0.354705
0.0196788
0.322877
0.037357
0.321722
0.449683
0.0210776
0.0209758
0.0215424
0.056356
0.046319
0.021299
0.0219455
0.122634
0.0217999
0.0387389
0.021075
0.0355809
1.31461
0.432824
0.0655742
0.413541
0.034773
0.197126
0.0245311
0.0209214
0.0262576
0.437518
0.0265245
0.044096
0.0212893
0.590951
0.0215134
0.0217935
2.70394
0.0216808
0.026619
0.0373123
0.0595242
0.0214734
0.0212901
0.023829
0.0252941
0.0199612
0.0215553
0.0337722
0.144446
0.0230389
0.0212756
0.0366833
0.394421
0.0212325
0.400131
0.284961
0.0214697
1.6094
0.0199958
0.205206
0.0213478
0.0203174
0.193206
0.0232153
0.638846
0.0229252
0.0212921
1.59468
0.0213447
0.0201281
0.0215248
0.0209309
0.0271059
0.0326867
2.05984
0.0220149
0.570052
0.0229436
0.409518
0.777696
0.022207
0.0213512
0.0248827
0.02014
0.110034
0.0211958
0.0201074
0.0201366
0.0212877
0.0213691
0.230852
0.0251341
0.0441043
0.022575
0.023837
0.0242726
0.0242379
0.303329
0.02046
0.0840287
0.0387654
0.0200027
0.730352
1.74395
0.0207951
0.379876
0.0212255
0.228788
0.0343366
0.0196632
0.0338729
0.0257762
0.395212
0.0208703
0.0240016
0.455553
0.0693073
0.0466208
0.0213652
0.341634
0.0762093
2.15785
0.0213719
0.0227387
0.0210158
0.0214979
0.0210632
0.021081
0.0204103
0.405179
0.0258662
0.0208816
0.0200569
0.0206039
0.0218308
0.0645599
0.0749712
0.0203029
0.0253035
0.0215554
0.0215837
0.0214755
0.0209505
0.0357484
0.0200536
0.0208884
0.0217173
0.0216174
0.022959
0.0214854
0.261932
0.114133
0.0240097
0.0208701
0.150331
0.0200983
0.0200613
0.0214991
0.0445242
0.0246485
0.0213611
0.0201608
0.0204444
0.0257346
0.0200129
0.0266577
0.0211859
0.0217651
0.021062
0.022671
0.818829
0.0209132
0.0218618
0.0211758
0.175731
0.36976
0.0263331
0.0220593
0.0266388
0.0248261
0.0342811
3.09455
0.0217
0.36049
0.0218797
0.102771
0.0220536
0.0202655
0.0200643
0.400173
0.0200281
0.0265708
0.0288639
0.170478
0.0380177
0.0222742
0.021007
0.0209407
0.0212191
0.0279201
0.102187
0.382793
0.0416604
0.0215323
0.0200093
0.0225043
0.0210636
0.0208148
0.0217898
0.0440102
0.0250284
0.0446746
0.021527
0.0214382
0.0340293
0.0213035
0.155407
0.0421528
0.0357815
0.136907
0.567789
0.0292764
0.0209879
0.0200179
0.0216778
0.0212819
0.602657
0.0457437
0.106518
0.0202948
0.0215965
0.0231742
0.0208343
2.83773
0.0873468
0.0200584
0.0200593
0.0209496
0.0210705
0.0209191
0.0212679
0.229085
0.0199749
0.0219584
0.0203036
0.0205866
0.021072
0.0214784
0.0262063
0.0205814
0.0253989
0.0201532
0.0524109
0.210734
0.0239692
0.13478
0.0226184
0.021887
0.0662683
0.345358
0.0214285
0.0207294
0.0204706
0.0263248
0.0219064
0.0292521
0.0280707
0.0215192
0.0220282
0.0214854
0.108823
0.225182
0.0220338
0.0205833
0.0240779
0.03573
0.0211425
0.0676531
0.0208341
0.0199589
0.0241084
0.270837
0.469211
0.262871
0.23306
0.0200467
0.0332089
0.0590927
0.0246232
0.021211
0.0595969
0.0236158
0.197033
0.488636
0.0208025
0.020057
0.0214821
0.0219295
0.0200594
0.122392
0.304782
0.0201037
0.0215457
0.0219755
0.0358199
0.0212512
0.0208633
0.028914
0.0219224
0.0208928
0.182139
0.0921848
0.0833185
0.0212687
0.0202288
0.0201186
0.0212712
0.0243014
0.0268578
0.0208731
0.0206166
0.0228098
0.352463
0.0204573
0.0214168
0.0647387
0.020918
0.0207587
0.0213475
1.8691
0.0202089
0.0214471
0.02046
0.0224477
0.0202211
0.0251506
0.145318
0.0214173
0.16797
0.0276845
0.208186
0.0536457
0.0209897
0.0252223
0.0208422
0.0207429
0.0210014
0.453984
0.396131
0.0308059
0.0264088
0.531691
0.0698169
0.022148
0.097936
0.0523649
0.0232321
0.0200538
1.05264
0.0222167
0.0207204
0.0203954
0.252203
1.95737
1.92801
0.0207106
0.0918443
0.357736
0.0248529
0.0313493
0.0242628
0.0231544
0.0332014
0.133292
0.0230486
0.0222563
0.0252404
2.78024
0.228908
0.0212402
0.0214007
0.0210693
0.331493
0.0237057
0.021972
0.549905
0.0251369
0.0357687
0.0242568
0.276539
0.0206752
0.108035
0.0220646
0.0200585
0.0209889
0.0200172
0.0200676
0.0208959
0.0217305
0.226442
0.020519
0.11701
0.0259766
0.0216774
0.0207345
0.0891462
0.0211953
0.021531
0.0232092
0.214568
0.0458618
0.0232067
0.0215367
0.335285
0.0206707
0.0375964
0.0215196
1.88998
0.0320599
0.334049
0.0255433
0.0210117
0.0344559
0.162999
0.0955303
0.0205568
0.0213405
0.0361767
3.66506
0.0195743
0.0454108
0.0205582
0.0263912
0.0208644
0.0200398
0.0220003
0.0221127
0.0200174
0.0359763
0.0337698
0.0242197
0.134647
1.11026
0.0221857
0.311571
0.0201008
0.10904
0.32229
0.164933
0.0200161
0.0219646
0.021499
0.219452
0.0211202
0.02083
0.0899623
0.0215224
0.0215243
0.0221515
0.0220212
0.0212516
2.76629
0.412077
0.0614585
0.0207532
0.0214553
0.132749
0.0201032
0.0895016
0.0216136
0.0214843
0.0219887
0.0234856
0.245048
0.0205486
0.0214748
2.07646
0.0216
0.0217904
0.0362214
0.335474
0.0674087
0.0214282
0.0210652
3.08811
0.446524
2.33339
0.0207071
0.0328388
0.193777
0.0203355
0.0343558
0.0230543
0.440301
0.0236773
0.0215346
0.0221413
0.020018
0.373451
0.0214652
0.0204765
0.368132
0.0283202
0.162813
0.0199931
0.0226377
0.0200368
0.0196461
0.0201955
0.0221509
0.0216219
0.0218831
0.0200271
0.0217703
0.0441863
0.0271276
0.0250884
0.0206044
0.0239278
0.0210702
0.314474
0.021653
0.0220503
0.0215291
0.0200662
0.0218322
0.0210291
0.0211792
0.0212376
0.0208312
0.0202028
0.424688
0.343455
0.0212511
0.371876
0.0335797
0.0216837
0.0216992
0.0221558
0.461637
0.0217855
0.0200951
0.0200961
0.0200257
2.24186
0.0212848
0.0202716
0.183258
0.0200155
0.0197434
0.0242651
0.0249848
0.0655464
0.140613
1.70548
0.0200885
0.769575
0.0248472
0.0212348
0.0204184
0.0239386
0.0212838
0.0278905
0.0563305
0.0233161
0.0218741
2.7085
0.0707292
1.96124
0.0871268
0.380175
0.0696203
0.0204814
0.227279
1.86383
0.0201243
0.832621
0.0207073
0.0223156
0.140847
0.0207285
0.139725
0.0250827
0.0228215
0.0219693
0.0400409
0.0213754
0.115876
0.0212418
0.020178
0.474093
0.0197639
0.0215195
0.0218486
0.0504451
0.0212055
0.0214431
0.0229583
0.317944
0.0212115
0.021277
0.0202218
0.0235597
0.0211847
0.0223134
0.135032
0.0209756
0.0257094
0.0217159
0.0233385
0.0224912
0.0209416
0.0219167
0.0990865
0.0215879
0.0216961
0.0242065
0.250202
0.0222
0.0211285
0.0214247
0.0252737
0.0651354
0.0225396
0.0210222
0.0209697
0.0205614
0.0196331
0.0200452
0.025886
0.02945
0.0526953
0.0215492
0.723761
0.0206419
0.0211098
3.49794
0.0442728
0.0199708
0.0740497
0.0212854
0.0210202
0.459225
0.0218645
0.0371264
0.0197391
0.149816
0.0205452
0.020005
0.0202452
0.10165
0.0724756
0.0215604
0.620361
0.020225
0.0209034
0.0207373
0.145178
0.0212525
0.0206543
0.0218924
0.0226997
0.0212731
0.0214594
0.0207941
0.0217614
0.0215422
0.0208421
0.0238134
0.0200009
0.902779
0.0642588
0.0202043
0.0537155
0.0254519
0.0209388
0.0206542
0.0218667
0.0207509
0.0282359
0.0245629
0.0425624
0.0427544
0.0217035
0.073894
0.151183
0.0212261
0.021745
0.0853067
0.0231302
0.261895
0.0202092
0.0211603
0.022529
0.0216529
0.0208812
0.0254823
0.0209503
0.0213773
0.0212467
0.023073
0.0205404
0.122428
0.0213438
0.023959
0.0282879
0.0210138
0.437794
0.463068
0.0230885
0.0260584
0.0270056
0.0198774
0.0468039
0.0214423
0.0317069
0.579779
1.88846
0.0364145
0.0215761
0.0258124
0.0210031
0.0283618
0.0205186
0.332248
0.0283716
0.0214819
0.0208034
0.048273
0.0345772
0.021229
0.0212253
0.314957
0.0216034
0.0206452
0.245022
0.0529119
0.0201148
0.606135
0.0203087
0.04157
0.0555695
0.0212677
0.0214343
0.0229747
0.146628
0.0207906
0.0253077
0.0214392
0.0212754
0.0208271
0.76886
0.0218188
0.0213776
0.0211055
0.158797
0.0255247
0.0208034
0.0197785
0.107337
0.0211535
0.0204538
0.104464
0.543398
0.0219154
0.258095
0.0230279
0.0465611
0.0221825
0.0569948
0.439528
0.0217321
0.0208699
0.0203037
0.0239074
0.0212077
0.572382
0.339232
0.0205286
0.0221843
0.0203343
0.0200337
2.637
0.0212157
0.0226332
0.0226732
0.0556133
0.0214543
0.0216957
0.0245726
0.436217
0.0214623
0.0213888
0.0204415
0.0205625
0.0237077
0.0444418
0.0215682
0.0211247
0.0212886
0.0210842
0.0203121
2.91158
0.0217516
0.0210532
0.0210966
0.0590973
0.0203708
0.0204565
0.0328764
0.0209042
0.0408628
0.0212508
0.0214334
0.288709
4.26789
0.740036
0.0329588
0.0234566
0.0218161
0.681968
0.0206315
0.024632
0.0199991
0.180812
0.0195481
0.023839
0.0214633
0.78242
0.0364975
0.0300751
0.424825
0.0223776
0.0485283
0.0217224
0.0220222
2.58403
0.0331413
0.0211786
0.0203004
0.0233963
0.0260884
0.0214247
0.0212911
0.0206262
0.0199471
0.175564
0.365739
0.0217227
0.0226264
0.357292
0.917334
0.0229605
0.0221292
0.0229502
0.0241544
0.0212169
0.0222053
0.100755
0.0209119
0.020324
0.021515
0.09792
0.232744
0.0248511
0.0215552
0.0216074
0.0257229
0.0213439
0.0255181
0.0367839
0.0895969
0.0230887
0.354573
0.0201141
0.0212325
0.0218419
0.0199819
0.0215443
0.0208569
0.0351264
0.0210087
0.118714
0.0213523
0.0207197
0.0204841
0.0242786
0.0224616
0.0433525
0.050271
0.020151
2.34635
0.0227368
0.0204965
0.0198039
0.366598
0.215764
0.0198238
0.0208091
0.0207114
0.0221959
0.171222
0.106328
0.0219341
0.021943
0.142557
0.455974
0.0219818
0.0212153
0.251719
0.0235756
0.0362293
0.0234796
0.0211505
0.0603494
0.0265947
4.37863
0.0285019
0.54618
0.0203973
0.020906
0.021696
0.0215841
0.0234921
0.0216912
0.0215527
0.0207904
0.0217638
0.0215219
0.0210708
0.0214196
0.0227911
0.0219433
0.0213395
0.0207958
0.0343719
0.0232917
0.0209206
0.0215163
0.171067
0.0213569
0.0217436
0.0219592
0.869741
0.0204579
0.0372962
0.0225539
0.0201813
0.0210622
0.368602
0.124534
0.0219895
0.0214502
0.0235424
0.0348576
0.0208722
0.0265746
0.0382981
0.0210566
0.102083
0.0208203
0.021331
0.0209396
0.0217449
0.0281643
0.0718842
2.86011
0.0262033
0.0201914
0.021499
0.0211201
0.0490423
0.0219386
0.33826
0.0208188
0.0213712
0.0213552
0.073597
0.0209531
0.0215748
0.0212567
0.138919
0.0204663
1.91554
0.0204237
0.0261841
0.0212969
0.0288961
0.0209926
0.0233963
0.559098
0.0403743
0.0201992
0.0348035
0.021513
0.0213839
2.17773
0.557315
0.0203191
0.0212487
0.0232426
0.0202422
0.0211048
0.0218677
0.0217003
0.0238718
0.0512095
0.0221467
0.025747
0.0373315
0.0216923
0.020999
0.0211789
0.0224536
0.0275114
0.0214277
3.80357
0.0206531
0.321941
0.036788
0.0201414
0.0207192
0.0206985
0.0516324
0.0215085
0.0236458
0.0215061
0.0207512
0.556899
0.0226697
0.0269368
0.021658
0.0214689
0.0226721
0.0212365
0.0226738
0.0213658
0.0222135
0.0219716
0.0218949
0.379514
0.0248245
0.457186
0.0209984
0.0237228
0.0224079
0.321638
0.0593697
0.492877
0.0225631
0.0199695
0.0404781
0.0208838
0.43889
0.0221326
0.0434969
0.0224616
0.371315
2.14646
0.0234085
0.0271343
0.0207455
0.0205318
0.0218937
0.0199121
0.0217296
0.022906
0.0207829
0.0248879
0.0437595
0.31771
0.0208948
0.051798
0.0201003
0.0211924
0.0211468
0.0955945
0.0216519
0.047792
0.0216722
0.0210692
1.94383
0.0208802
0.0234701
0.0210517
0.0234329
0.36966
0.0257489
2.52279
0.0212552
0.0579409
0.0228718
0.0211206
0.0211391
0.0271714
0.0238553
0.0212764
0.0226899
0.0213244
0.390753
0.0207319
0.405397
0.222756
0.0658998
0.0250859
0.0918518
0.0255638
0.0199089
0.189647
0.0211906
0.11468
0.0218596
0.0226065
0.335319
0.334005
0.0260639
0.141919
0.0213827
0.309098
0.0196124
0.548827
0.0201519
0.0219763
0.043171
0.0215122
0.0207176
0.0219836
0.0212628
0.0340578
0.3101
0.0310363
0.356747
0.0207102
0.797066
0.0214421
0.0216607
0.0210083
0.0211671
0.433142
0.0216016
0.0205637
0.0362
0.0218112
0.350595
0.0623535
0.0212683
0.0412604
0.0325289
0.020852
0.0214368
0.0239797
0.0203168
0.0553112
0.0272848
0.0226954
0.0227768
0.0204405
0.0212562
0.0579305
0.0220201
0.0214474
0.0222528
0.0199029
0.0201273
1.84631
0.0268785
0.461685
0.0262514
0.0523211
0.0265713
0.0211147
0.0257113
0.0204544
0.0209819
0.229449
0.0238395
0.0238822
0.044403
0.0217285
0.271479
0.312055
0.0210645
0.0238997
0.033779
2.65197
0.0203074
0.0203189
0.021697
0.0284018
0.342553
0.0242951
0.0235496
0.0218447
0.021172
0.0199617
0.0455577
0.0237205
0.0220863
0.431958
0.0216359
0.0229536
0.0244639
0.0214934
0.0212393
0.0210035
0.0537035
0.103499
0.021893
0.0229921
0.29668
0.0208953
0.0219418
0.0234288
0.0215918
0.411704
0.400223
0.0467781
0.0705427
0.845655
0.0226633
0.0208444
0.0434398
0.0222915
0.026688
0.0210276
0.0201829
0.343827
0.202584
0.0210794
0.0207493
0.0268423
0.100693
0.0231134
0.0200002
2.84696
0.0228198
0.0353523
0.0201364
0.0267129
0.0195882
0.0226397
0.0258249
0.021172
5.18827
0.0219687
0.0338496
0.0944845
0.314751
0.0806538
0.0211963
0.0610032
0.0241789
0.0240495
0.0222231
0.0216554
0.0214496
0.0226332
0.244016
0.0227817
0.278709
0.0207798
0.209248
0.0202901
0.0218973
0.250427
0.0242803
0.206022
0.022361
0.0220998
3.28039
2.82081
0.0208664
1.01867
0.0337183
0.0207197
0.019845
1.96796
1.20019
0.0204447
0.0202716
0.0211769
0.0202275
0.812562
0.297738
0.0195261
0.019794
0.0208631
0.2301
0.0468028
0.324478
0.0201878
0.301009
0.0215806
0.0536941
2.51807
0.0239996
0.0205788
0.0205398
0.330674
0.0203376
0.0210585
0.0202001
0.0245994
0.0227936
4.00225
0.0248977
0.0218151
0.0211964
0.0260445
0.193813
0.0410692
0.0211202
0.0208561
0.154217
0.0487648
0.0219889
0.656137
0.0281308
0.0230188
2.68771
0.0226892
0.0257613
0.0218229
0.110367
0.0214258
0.0218217
2.21042
0.0269801
0.0210492
0.0213495
0.0195935
0.0371488
0.109754
0.0209754
0.0202656
0.0221613
0.0677997
0.0222458
0.0201995
0.0212445
0.0207273
0.0232318
0.0412022
0.0214222
0.0209457
2.27562
0.0211066
0.379338
0.0287513
0.0301726
0.0233734
0.0221989
0.0214799
0.99612
0.0786754
0.0695884
4.10674
0.0282346
0.0208757
0.318055
0.0202111
0.07524
0.356617
0.0232015
0.021129
0.0235052
0.0734205
0.0212008
0.0209989
2.19433
0.0212646
0.0222065
0.0207464
0.0216525
0.0203209
0.0570167
0.12926
0.0201364
0.0210229
1.16035
0.021192
0.0201295
0.0209974
0.0208237
0.189028
0.0233734
0.0231066
0.0222326
0.0219682
0.020299
0.0362827
0.106488
0.025811
0.255355
0.0223325
0.0236305
4.02141
0.0208877
0.0203643
0.0210612
0.0208251
0.0218276
0.0197535
0.0220965
0.313307
0.0211804
0.0210924
0.0227305
0.0208092
0.364941
0.0216746
2.62661
0.182521
0.0260244
0.028696
0.324491
0.0238147
0.0211732
0.0234978
0.0209502
0.0225927
0.0218971
0.0217951
0.310451
0.0202866
0.0213262
0.0393963
0.218463
0.0216999
0.0208427
0.190593
0.0223708
0.0293607
0.02131
0.0208539
0.0210266
1.70426
0.0214549
0.215318
0.049695
0.0214397
0.0208334
0.0210383
0.0238459
0.302458
0.020146
0.0384332
0.0210974
2.64196
0.225544
0.0220685
0.175697
0.0215484
0.0231186
0.0234037
0.276599
0.0231528
0.0258047
0.0262436
0.424767
0.0216951
0.0366605
0.0214515
0.0426766
0.146647
0.170114
0.0209425
0.0286012
0.312745
0.499744
0.0230279
0.0235939
0.348027
0.344433
0.0208119
0.0550652
0.0211882
0.0242195
0.0214813
0.022349
0.0222635
0.91125
0.0216567
0.0218121
0.0556136
0.429555
0.187875
0.126827
0.541293
0.0207796
0.351214
0.0604715
0.0210447
0.0211212
0.393566
0.023522
0.0214897
0.0212454
0.0357609
0.0206958
0.0212568
0.504467
0.0214647
0.0217492
0.0210403
0.0214015
0.0225114
0.0204778
2.67082
0.0238158
0.0230998
0.0204825
0.0290975
0.13653
0.0208928
0.021698
0.321052
0.179206
0.0213519
0.0239407
0.0207073
0.0209341
0.0390361
0.167239
0.0209351
0.0210423
0.325276
0.426657
1.16468
0.0293824
0.0221421
0.372311
0.020733
0.0244964
0.0237384
0.0205392
2.34756
1.1342
0.03651
0.0284251
0.197687
0.0198503
0.0197854
0.0228175
0.0314344
0.629284
0.0203315
0.0327137
0.785583
0.355811
0.0216382
0.0224574
0.269553
0.0209643
0.0237827
0.258631
0.0209619
0.0211959
0.0204705
0.274636
0.020798
0.0238722
0.0219351
0.0403728
0.0278165
0.404757
0.0211825
0.0211327
0.0285924
0.0217158
0.0241411
0.0220635
0.10449
0.124504
0.0209915
0.0213484
2.73666
0.331411
0.87922
0.0207545
0.0213562
0.0226017
0.0215325
0.0212731
0.0214331
0.0208845
0.0218732
0.0206744
0.0207599
0.0525339
0.0232392
0.0268876
0.916156
0.0633851
0.0480926
0.0247553
0.0458331
0.138894
0.0289847
0.0234072
0.0260763
0.0210672
0.552606
0.0200558
0.020276
0.0206553
0.431676
0.0208901
0.431834
0.0217932
0.0201261
0.0418036
0.0211691
0.0211463
0.0211616
0.0271677
0.917344
0.0216069
0.0205384
0.0226092
0.532442
0.0477944
0.345322
0.0210302
0.03271
0.021485
0.0215421
0.0201841
0.0207208
0.0213555
0.0224992
0.193418
0.0224966
0.022475
0.122302
1.21253
0.132037
0.0208432
0.0971157
0.0320643
0.416897
0.0205449
0.020941
0.022019
0.315903
0.0197962
0.0213631
0.0207124
0.0203392
0.129456
0.0221081
0.0550807
0.0211286
0.0197791
0.0241059
0.021433
0.635237
0.0210992
0.0233076
0.0217864
0.0259606
0.0220501
0.0594077
0.340375
0.0212321
0.0410916
1.14561
0.0211199
0.021545
0.0407128
0.0197293
2.62973
0.0294254
0.0209702
0.0572305
0.0200101
0.0213105
0.021522
0.0207634
0.0202123
0.0221359
0.02066
0.0207119
0.0215278
0.0218752
0.0471478
0.0200544
0.138321
0.0205189
0.0208984
0.0269882
0.0433861
0.0220564
0.0197251
0.0211985
0.0222708
0.0416482
0.239196
0.0324455
0.0219213
0.0219562
0.020751
0.0284725
0.0209333
0.0222821
0.394442
0.25155
0.0461918
0.0210771
0.0218046
0.0221328
0.019733
0.0431832
0.0201154
0.0970118
0.0219692
0.175633
0.0256411
0.400107
0.0215606
0.0613167
1.94979
0.409441
0.351044
0.0246763
0.35682
0.324234
0.0218651
0.0337235
0.400092
0.0205072
0.0207457
0.0213363
0.0239315
0.241078
0.0214741
0.0239324
0.58641
0.0195299
0.0214666
0.299646
0.619046
0.104164
0.374503
0.445102
0.0221246
0.0528643
0.0232248
0.0235266
0.379398
0.0223262
3.73875
0.0377272
0.0235595
0.0214148
0.0226991
0.0228084
0.0205415
1.97116
0.0197901
0.0212466
0.0213102
0.592892
4.03836
0.0359567
0.0212875
0.0224175
0.0204563
0.373429
0.0209815
0.0220188
0.0233033
0.0652588
0.0206941
0.0739874
2.65083
0.305906
0.0217679
0.19446
0.0205498
0.0934101
0.0198254
0.0476166
0.0215834
0.0662294
0.0258066
1.20477
0.128474
0.0228505
0.0225455
0.0353901
0.0238867
0.0211007
0.0207019
0.0250961
0.0218754
0.332699
0.0196574
0.0210786
0.0214308
0.0214011
0.281979
0.0207357
0.0201301
0.0215236
0.0323177
0.0257209
0.0542395
0.0227591
0.0224873
0.0815247
0.020559
0.0213093
0.0659889
0.0428642
0.0201324
0.0327397
0.0228241
0.358319
0.0212478
0.10794
0.0215676
0.0212164
0.0202268
0.0201728
0.021162
0.0210718
0.18754
0.0597699
0.021571
0.0213172
0.0211274
0.0221148
0.0261672
0.386304
0.0215469
0.0297384
0.0238004
0.33256
0.0216504
0.0408974
0.0212935
0.021255
0.0282403
0.0212207
0.0214555
0.0206668
0.0200565
0.407086
0.0213818
0.0207272
0.0321231
0.454325
0.0364058
0.0213693
0.0198898
0.0236727
2.50503
0.0230849
0.0216986
0.0215207
0.180639
0.0218669
0.0211199
1.72242
0.0207371
0.0245215
0.0226535
0.0215412
0.0201591
0.0526422
0.0258122
0.020617
0.0212822
0.0213976
0.0208968
0.133028
0.0225931
0.0213947
0.0197685
0.0220104
0.0201773
0.0212452
0.0781198
0.020635
0.0238658
0.0235771
0.3064
0.0197267
0.022491
0.0537571
0.0259536
0.183864
0.0209606
0.0214841
0.243437
0.0214015
0.0201552
0.367795
0.0214156
1.99479
0.954881
0.0670961
0.346407
0.021415
0.0263783
1.73907
0.0212455
0.0200002
0.129599
0.0692458
0.0208946
0.0201326
0.0227531
0.0207402
0.203893
0.0449086
0.996074
0.0214829
0.0216494
0.021219
0.0210995
0.697721
0.220539
3.68966
0.0242889
0.0225067
2.34791
0.0213366
0.0208934
0.0225405
0.0209271
0.0218493
0.0582011
0.0197245
0.432028
0.0218286
0.0219316
0.0213927
0.0260207
0.0207628
0.470932
0.0206816
0.0211977
0.0226811
0.0201579
2.92189
0.02412
0.0260106
3.02969
0.0680457
0.030072
0.412215
0.0212981
1.51447
0.026313
0.020764
0.0223625
0.021655
0.387277
0.461352
0.0214489
0.0233111
0.271382
0.0210648
0.0205688
0.0240473
2.07188
0.643361
0.0215353
0.021992
0.0920106
0.0227777
0.0689365
0.0680037
0.0637588
0.0201436
0.403298
0.0215221
0.338542
0.0541486
0.033238
4.01859
0.315701
3.91727
0.0203624
1.2164
0.0199461
0.0197768
0.255406
0.0197625
0.022182
0.0211451
0.0586308
0.0206036
0.142902
0.0201612
0.0249766
0.433562
0.0257322
0.0245262
0.413169
0.021816
0.02024
0.0218572
0.0929968
0.0242233
0.135755
0.0214171
0.0253921
0.0217742
2.17285
0.0214179
0.0215583
0.0213666
0.613496
0.0311266
0.0215252
3.8101
0.0210943
0.0213904
0.0248599
0.18466
0.0213932
3.6177
0.0214276
2.65161
0.0214306
0.0419232
0.0209846
0.0510559
0.0214259
0.0570562
0.0243957
0.0367474
0.020894
0.0217497
0.324339
0.020364
0.0239488
0.0268774
0.0200606
0.0574608
0.305366
0.140721
0.0220321
0.0197357
0.0211879
0.133928
0.0237689
4.72404
0.0238371
0.322386
0.0215008
0.151219
0.020534
0.0297443
0.121889
0.0227533
1.97442
0.0236033
3.67061
0.164904
0.0207685
1.39039
0.0222622
0.0211381
0.0227534
0.0812724
0.0234602
0.16414
0.0246536
0.116672
0.0425417
0.0651187
0.0477808
0.301449
0.0214573
0.0215301
3.78876
3.71133
0.0328456
0.0233877
2.10012
0.388591
0.0215306
0.0214357
0.021208
0.0983109
0.0207059
0.0209073
0.032053
0.149579
0.0198253
0.0206122
0.0221857
2.67831
0.0205013
0.0238984
0.0198266
0.123785
0.0220676
1.07641
0.0218295
0.0206474
0.0213357
0.020264
0.562584
0.0348845
0.195243
0.0213238
0.0280531
0.0202032
0.210784
0.20424
0.0500376
0.0207887
0.0603631
0.020886
0.0215849
0.3269
0.0210716
0.0239383
0.140083
0.0201456
0.114906
0.0207521
0.0198371
0.0215543
1.92948
0.0207756
4.11006
0.112423
0.28529
0.297071
0.0207075
0.555296
0.0654428
4.83018
0.0315015
3.61938
0.179994
0.0215669
0.0321063
0.0217392
0.0282005
0.0211429
0.0227544
0.0212056
0.0252702
0.352614
3.71243
0.0238212
0.0231106
0.400131
0.38097
0.0212059
0.0214533
0.790851
0.0345325
0.0204088
0.252591
0.0356395
0.0221623
0.0203606
0.0223694
0.328219
0.0216235
0.0585673
0.0195943
0.414741
5.15605
0.072657
0.0223185
0.0214811
0.0211729
0.021269
0.0214711
0.0245756
0.0224822
0.0216026
4.05436
0.0208355
0.0215002
0.0210573
0.297801
0.361566
0.0212518
0.0214065
3.05426
0.0204808
3.77304
0.0215258
0.0213672
0.0197241
0.0216078
0.0205884
0.022739
0.020298
0.24145
0.0217986
0.0754676
0.0213512
2.12001
0.0214663
0.0242961
1.95047
0.185238
0.021266
0.0214466
0.0328729
0.0197271
0.633611
0.414908
0.022475
0.0207554
0.0212365
0.0203136
0.0467083
0.3205
0.0363013
0.423243
0.0354386
0.0213672
0.0211863
0.0205271
0.961309
0.282936
0.0217402
0.0211297
0.0208089
0.0268479
0.0213773
1.7006
3.03057
0.0286299
0.0202686
3.58625
0.130087
0.0214444
0.044932
0.0225119
0.26415
0.0331912
0.033465
0.0268256
1.95768
0.0316273
5.56816
0.0208411
0.0205234
0.0206952
0.0203115
0.0215039
0.027799
0.0204869
0.0250767
0.0200007
0.243599
0.0210704
0.0283954
2.38694
0.022072
0.0198069
0.0282763
4.22255
0.0212553
0.0206021
0.180259
1.05062
0.514541
0.0216963
0.0197337
1.86351
0.129132
0.0237814
0.0530139
0.021389
0.033092
0.0215159
0.130656
0.0206619
0.021158
0.421824
0.0204169
0.0226638
0.320412
0.0532963
0.0206377
0.0208054
0.0207425
3.19922
0.0238921
0.0258097
0.0214265
0.0207804
0.124421
0.0305437
0.0211486
0.0212927
0.019734
0.0229328
0.0206407
0.0226599
0.188915
2.18059
0.0231097
0.0373961
0.0207961
0.0401724
0.0212196
0.0215477
0.0207641
0.244002
0.0392433
0.0200318
0.0226209
1.17779
0.0350307
3.43487
0.0506649
0.021295
0.0207685
0.0278672
0.0223382
3.89212
0.0204844
3.89067
3.98189
0.0209012
0.0365928
0.296769
0.02532
1.49025
0.112609
0.021773
3.36539
0.0253763
0.0205109
3.87473
2.41799
0.102466
0.0217339
0.385228
0.34534
0.0213378
0.176207
0.383858
0.0213783
0.0207071
0.0218222
0.0200133
0.0215491
0.110265
0.98975
0.0214234
0.02473
2.72499
3.79098
0.0340296
0.0515475
0.0210708
0.0268752
0.964895
0.0494802
3.69801
3.28404
0.0212554
0.0214568
0.0210444
0.0230172
2.57326
0.291222
0.0209457
0.0340196
0.335368
0.309865
0.047588
0.021135
0.0214968
0.0219442
0.247395
0.0223485
0.0344589
0.0284685
0.0220189
0.403669
0.0230619
0.0530054
0.142859
0.354903
0.0212191
0.0212047
0.02251
0.0307591
0.207517
0.311848
0.0218764
2.38957
2.06804
0.0315924
0.0313877
0.443585
0.341908
0.294981
0.46111
0.0213267
0.264142
0.998397
0.0294531
0.0271923
0.131898
0.0225974