/*--------------------------------*- C++ -*----------------------------------*\
| =========                 |                                                 |
| \\      /  F ield         | OpenFOAM: The Open Source CFD Toolbox           |
|  \\    /   O peration     | Version:  v2012                                 |
|   \\  /    A nd           | Website:  www.openfoam.com                      |
|    \\/     M anipulation  |                                                 |
\*---------------------------------------------------------------------------*/
FoamFile
{
    version     2.0;
    format      ascii;
    class       surfaceVectorField;
    location    "550";
    object      ddtCorrDdt0(Uf);
}
// * * * * * * * * * * * * * * * * * * * * * * * * * * * * * * * * * * * * * //

dimensions      [0 1 -2 0 0 0 0];


internalField   nonuniform List<vector> 
14470
(
(-0.000760853 0.00217686 2.00957e-18)
(-0.000756998 0.00227661 -1.26228e-17)
(-0.000674868 0.00218409 3.21976e-18)
(-0.0453679 -0.00236448 -2.45564e-17)
(-0.04632 -0.00172021 6.16474e-17)
(-0.000336669 0.00064215 8.31743e-19)
(-0.000390048 0.000633157 2.04225e-18)
(-0.000374847 0.000651068 5.86694e-18)
(0.00449735 0.0670597 1.07157e-17)
(0.00520991 0.0700579 3.53678e-17)
(0.00280282 0.0684214 1.13416e-17)
(-8.0937e-07 0.000131956 -1.22998e-19)
(-9.25534e-07 0.000133965 -1.04208e-18)
(-5.41061e-07 0.000194909 -1.48399e-18)
(-0.0287685 -0.0204014 1.21994e-17)
(-0.0283146 -0.0212376 -1.25271e-18)
(-0.0294382 -0.0193656 2.06543e-17)
(-0.0170336 0.00607535 4.23223e-19)
(-0.0173632 0.00535637 -2.37269e-18)
(-0.0180558 0.00595085 -6.38482e-18)
(0.0450323 -0.00160368 -1.00501e-17)
(0.04648 -0.00215489 1.11423e-17)
(0.0493427 -0.0044241 4.22142e-17)
(-0.00207097 -0.00101495 6.4051e-20)
(-0.00215588 -0.00110317 7.03013e-19)
(-0.00221893 -0.000964047 7.81623e-19)
(-4.69484e-05 0.000343999 -3.21926e-19)
(-3.81749e-05 0.000317825 1.02051e-18)
(-3.81908e-05 0.000307144 3.51529e-20)
(-5.12192e-05 0.000380531 -5.80318e-19)
(-5.50586e-05 0.000372391 3.95061e-19)
(-0.00048863 -3.13144e-06 -1.80206e-18)
(-0.000474831 2.86137e-05 1.25556e-18)
(-0.000489082 4.11551e-05 -1.70061e-18)
(0.0590044 0.051403 -6.20086e-18)
(0.0529447 0.0535006 1.14301e-17)
(0.0557261 0.0536129 -1.24238e-17)
(-0.000880189 -0.000907824 -6.8958e-19)
(-0.000817612 -0.000868266 5.14462e-19)
(-0.000795211 -0.000949865 -5.71765e-19)
(0.00525567 -0.0082969 1.44074e-18)
(0.00533251 -0.00883302 3.25393e-18)
(0.00583742 -0.00830865 -1.16196e-18)
(-0.0141578 -0.0111006 -9.47219e-18)
(-0.0151354 -0.0112017 5.11222e-18)
(-0.0148467 -0.0102002 -8.45908e-18)
(-0.000479105 0.000525353 -3.04908e-18)
(-0.00050616 0.000491497 2.99055e-18)
(-0.000490159 0.000507792 -1.68659e-18)
(0.0112883 0.070486 -2.08787e-17)
(0.0101629 0.0713912 9.42896e-19)
(0.012528 0.0738896 -1.2714e-17)
(0.000243749 -0.000278158 4.54015e-20)
(0.000254465 -0.000257291 3.22316e-20)
(0.000266357 -0.000280594 -1.39388e-20)
(0.000299723 -0.00076324 9.07756e-21)
(0.000361636 -0.000800626 -5.60262e-20)
(0.000338563 -0.000724231 -7.88495e-21)
(-5.43963e-07 3.88426e-05 4.06857e-19)
(3.88652e-07 3.87278e-05 8.4661e-19)
(0.0038386 0.060311 2.8557e-17)
(0.00224886 0.0602882 1.5103e-17)
(0.00302696 0.0624086 2.93115e-19)
(0.04121 0.00101584 -1.9115e-17)
(0.0450543 -0.00127098 -2.4624e-17)
(0.0621427 0.0477377 9.53617e-19)
(0.0670358 0.04872 3.81687e-18)
(-0.0023897 0.00492268 1.07326e-17)
(-0.00237204 0.00471835 2.55383e-18)
(-0.00216425 0.00483017 -1.05857e-17)
(-0.000173366 0.000604775 1.40725e-18)
(-0.000194533 0.000600312 1.75037e-18)
(-0.000169702 0.000580048 -3.94891e-19)
(-2.68271e-06 3.76453e-05 2.72052e-19)
(-2.95004e-06 4.45898e-05 7.88839e-20)
(-6.15761e-06 5.76054e-05 -1.52905e-18)
(0.00022626 -0.000274695 3.09351e-20)
(0.000239066 -0.00029738 4.80026e-19)
(-0.0199003 -0.00274694 -4.26997e-18)
(-0.0207088 -0.00308424 -1.25826e-17)
(-0.0206312 -0.00202578 9.16124e-18)
(0.0395763 0.00363527 2.43739e-17)
(0.0387588 0.00359072 1.54737e-18)
(0.0398121 0.00266694 5.14536e-17)
(-0.0371951 -0.0187665 -2.80362e-17)
(-0.0325527 -0.0191518 8.79298e-19)
(-0.0346929 -0.0174475 -1.41661e-17)
(-0.000242965 0.000897409 6.05456e-19)
(-0.000221553 0.000917809 4.28726e-18)
(-0.000255285 0.000880915 7.192e-19)
(-0.000501092 0.000451236 -6.12973e-19)
(-0.000517713 0.000418412 -6.84469e-19)
(-0.00052089 0.000402673 1.93867e-19)
(-0.000136839 -1.87391e-05 3.03738e-19)
(-0.000146608 -1.72815e-05 -1.40989e-18)
(-0.000164363 -8.7303e-06 -3.24964e-18)
(-0.00288429 -0.00978541 -6.75567e-18)
(-0.00312313 -0.00935009 -2.53467e-18)
(-0.00336595 -0.00996705 1.52889e-18)
(0.00393549 -0.00702816 -1.33755e-18)
(0.00353033 -0.00687868 3.80929e-18)
(0.00377507 -0.0065827 3.05707e-18)
(0.000217413 0.00455593 -1.10741e-19)
(0.000275434 0.0047302 1.47783e-18)
(7.96298e-05 0.00470596 1.07306e-17)
(0.00417992 0.0650418 2.87546e-18)
(0.00505274 0.0656851 -3.70872e-18)
(0.00291105 0.0650818 -1.51951e-17)
(-0.00840347 -0.00533749 -1.29677e-17)
(-0.00791359 -0.00518877 6.20679e-19)
(-0.00798116 -0.00576834 -3.96334e-18)
(-0.0189638 -0.00224907 -1.01088e-17)
(-0.0189818 -0.00325334 2.39672e-18)
(-0.0727167 0.00642571 1.26022e-17)
(-0.0685355 0.00596207 3.34212e-18)
(-0.0521574 0.00844711 4.51789e-18)
(0.0509319 0.0416258 -1.16845e-17)
(0.0499301 0.0341126 -2.55198e-17)
(0.0657691 0.0469932 -8.83258e-18)
(-6.59069e-07 2.25637e-05 -9.35782e-19)
(-2.40095e-06 3.48851e-05 -1.64252e-18)
(-3.07736e-05 0.000829437 4.77558e-18)
(-4.23708e-05 0.000806343 3.28814e-18)
(-1.46569e-05 0.000813019 -5.84656e-18)
(-4.42485e-05 0.0010478 -2.62097e-18)
(-4.66215e-05 0.00105193 4.1879e-19)
(-2.80918e-05 0.00105885 -1.06223e-18)
(0.0337002 -0.0137233 3.42239e-17)
(0.0359748 -0.0118727 -2.33855e-17)
(0.0452207 -0.0149091 -2.95274e-17)
(-2.44083e-06 6.95612e-05 6.02842e-18)
(-2.25715e-06 3.35804e-05 1.5635e-18)
(-2.86738e-06 3.00992e-05 -2.50368e-19)
(0.00114922 -0.00135509 7.72882e-19)
(0.0011826 -0.00126279 1.08617e-18)
(0.00126322 -0.00137763 -6.34038e-19)
(-0.00045258 0.000564991 -3.71677e-18)
(-0.000465909 0.000544816 1.96726e-19)
(-0.00256255 -0.0103879 3.85862e-18)
(-0.00230434 -0.00973718 -2.23453e-18)
(-0.000122665 -2.94107e-05 6.10509e-19)
(-0.000126896 -1.91723e-05 8.21411e-19)
(-0.00796695 -0.0107795 2.38542e-18)
(-0.0086327 -0.0108383 -2.78996e-18)
(-0.00796238 -0.0113467 -1.31913e-18)
(-6.47645e-06 0.00010754 4.75268e-19)
(-4.4232e-06 0.000114583 4.34139e-19)
(-0.00419879 0.00673931 -1.88182e-17)
(-0.00431469 0.00642349 2.64149e-18)
(-0.00457367 0.00672139 1.94697e-18)
(0.00535312 0.0672846 1.75092e-17)
(0.00631118 0.0652266 4.23067e-18)
(-0.000451671 7.49482e-06 2.8771e-19)
(-0.000438849 4.19522e-05 -2.18711e-18)
(-0.000437669 -1.86029e-06 -2.2973e-18)
(-0.0117223 -0.0296662 1.06122e-17)
(-0.0107885 -0.0310138 7.80909e-18)
(-0.0101171 -0.0295994 4.85988e-18)
(0.00104994 -0.00132776 1.40858e-19)
(0.00111849 -0.00144358 5.40856e-19)
(-1.23598e-06 3.54e-05 -1.97499e-18)
(-0.000577778 0.00530355 8.96365e-19)
(-0.000505137 0.00547354 6.16077e-18)
(-0.000385547 0.00528414 -5.50653e-18)
(-0.00654208 0.0127663 6.06481e-18)
(-0.00692945 0.0128041 1.3542e-18)
(-0.00658042 0.0133355 -1.5055e-17)
(-0.000384823 0.000639584 3.59485e-19)
(-0.000366932 0.000660841 5.27789e-19)
(-0.00035675 0.00067279 9.33079e-19)
(0.0018572 -0.0158838 8.83303e-18)
(0.00124851 -0.0152178 2.96406e-17)
(0.00218471 -0.0152144 -3.72763e-18)
(-0.000191414 1.82664e-05 -1.35482e-18)
(-0.00019163 1.06843e-05 -1.52186e-19)
(-0.000195083 1.15271e-05 -2.42101e-18)
(-0.00200373 -0.00094339 -9.14828e-19)
(-0.00195614 -0.00103802 -5.04703e-19)
(0.0232404 -0.00320235 -2.41018e-17)
(0.0186073 -0.00445497 3.17549e-17)
(-0.00345131 -0.00450912 2.20246e-18)
(-0.00341432 -0.004201 1.01226e-18)
(-0.00375189 -0.00430951 -1.13526e-18)
(0.00439273 -0.00717247 -2.83574e-18)
(0.0048042 -0.00726526 5.49224e-19)
(0.00463502 -0.00681426 -2.80351e-18)
(0.001014 0.0526436 1.45814e-17)
(-0.00194642 0.0502175 -2.28422e-17)
(0.000827362 0.0494646 -3.0454e-17)
(-0.00052339 0.00110224 4.01946e-19)
(-0.000499677 0.00115816 -2.52253e-18)
(-0.000461397 0.00108675 -4.66804e-19)
(0.000375256 0.0123981 4.39514e-17)
(0.000142139 0.0124557 -1.4974e-17)
(0.000315812 0.0122194 -1.11685e-18)
(0.0551398 -0.00809062 -5.90322e-18)
(0.0540235 -0.00588014 -4.82654e-17)
(0.0581818 -0.00903747 -1.34024e-17)
(-0.290149 -0.0840528 4.64644e-18)
(-0.288933 -0.0866286 3.36144e-17)
(-0.292818 -0.088061 4.62889e-18)
(-0.0236804 0.0407928 1.46037e-17)
(-0.0202131 0.0434419 3.60817e-17)
(-0.0268422 0.0390809 -2.02766e-17)
(-2.03548e-06 7.86926e-05 6.96004e-19)
(-2.63914e-06 8.81522e-05 -1.33395e-18)
(-6.74148e-06 0.000116105 -9.40158e-20)
(-0.00287418 0.00975169 -8.8532e-18)
(-0.00324056 0.00955444 -8.76235e-18)
(-0.00284898 0.0093609 1.6637e-17)
(-0.0351028 0.00750888 -1.7178e-17)
(-0.0250534 0.00826076 -2.82288e-18)
(-0.0228116 0.00945741 -6.50228e-18)
(-0.000206119 0.00084852 4.09183e-19)
(-0.00023008 0.000820643 -1.72527e-18)
(-0.000225526 0.000841614 1.92504e-18)
(-3.23584e-06 0.000121174 4.62637e-19)
(-2.82852e-06 0.000116337 4.94566e-19)
(-1.96301e-07 7.46588e-05 5.9085e-18)
(-0.0029324 0.00997065 -1.96039e-17)
(-0.00263542 0.00982053 5.92346e-18)
(0.0137688 0.0685041 3.56439e-17)
(0.0103479 0.0684223 -2.19488e-18)
(-0.0132924 -0.0108604 -1.24527e-18)
(-0.0135241 -0.0118136 1.01673e-18)
(-0.00377695 0.0023144 3.81201e-18)
(-0.00393099 0.00217449 5.70298e-18)
(-0.00373721 0.00207094 5.27527e-18)
(0.00406095 -0.00756439 -3.11477e-18)
(-0.0320782 -0.000196072 5.00589e-19)
(-0.0307179 0.000586148 1.38229e-17)
(-0.0305639 -0.00111917 -2.45424e-18)
(-2.20664e-06 0.000130352 6.75138e-19)
(-5.62054e-06 0.000178559 -2.7291e-18)
(0.00216706 -0.029928 -1.55222e-17)
(0.00235337 -0.028265 -1.05984e-17)
(0.00382969 -0.0291011 -1.39401e-17)
(0.00321828 0.0642478 7.76098e-18)
(0.00575079 0.064991 4.74592e-17)
(-0.00626624 0.0122644 -7.98398e-18)
(-0.00584685 0.0129996 1.54099e-17)
(0.00828331 0.0591745 -1.44447e-17)
(0.00736437 0.0610104 3.22273e-17)
(0.00928069 0.0610037 -1.50935e-18)
(-0.0323698 0.00579314 -3.29254e-17)
(-0.0359748 0.00474256 -1.68219e-17)
(-0.029399 0.0062055 -7.02957e-18)
(-0.0280836 0.00662332 -7.22126e-18)
(-0.034312 0.00667038 5.65352e-18)
(-0.0120859 -0.00185401 4.02987e-18)
(-0.0128246 -0.00171028 1.49561e-19)
(-0.0124529 -0.00242074 -5.70274e-18)
(0.0465326 0.0503682 2.52429e-17)
(0.0404865 0.0401335 3.5711e-18)
(-0.000640438 0.000292173 -6.22954e-19)
(-0.000668227 0.000256078 5.60554e-19)
(-0.000643564 0.000264435 2.11478e-18)
(-0.0204085 0.0405986 -2.24679e-17)
(-0.0292094 0.0369134 -1.36059e-17)
(-0.0153007 -0.00772871 -3.55837e-18)
(-0.0148662 -0.00703327 8.75703e-18)
(-0.014456 -0.007853 4.93839e-18)
(-0.00507969 -0.00218328 6.1224e-19)
(-0.00528498 -0.00236603 9.64941e-19)
(-0.00535917 -0.00204498 2.44819e-19)
(-2.31421e-06 7.99347e-05 1.736e-18)
(-5.21924e-06 0.000137713 -5.8455e-19)
(0.0195904 0.0627163 -1.9875e-18)
(0.0212656 0.0620782 -2.09588e-17)
(0.0221879 0.0609577 -3.63131e-17)
(-0.00801462 -0.0100619 -6.98202e-18)
(-0.00730268 -0.0106514 6.83571e-18)
(-0.129869 -0.0437129 3.86045e-21)
(-0.104528 -0.0401078 -1.76516e-18)
(-0.125258 -0.0498486 -7.75907e-18)
(-1.81104e-05 0.000851019 -4.60032e-18)
(-4.58672e-05 0.000849423 2.93103e-18)
(-0.0376322 0.0351064 -1.87929e-17)
(-0.0327011 0.0379984 -4.46751e-17)
(-0.0318376 0.0386076 -2.12401e-17)
(-0.00948371 0.00821134 -2.47302e-17)
(0.00407293 0.0076155 -3.13792e-17)
(0.00604036 0.00665498 -3.75773e-17)
(-0.260542 -0.0841093 -1.63843e-17)
(-0.279862 -0.0839398 6.14421e-18)
(-0.000326006 -0.000175218 -4.69091e-19)
(-0.000339628 -0.000179021 5.71008e-19)
(-0.000336387 -0.000154183 2.56729e-18)
(-0.000188166 0.000854107 3.008e-19)
(-0.000185628 0.000877285 -2.22999e-18)
(-3.59787e-07 3.59441e-05 -7.7316e-19)
(-1.14265e-05 0.000105995 -3.78634e-18)
(-1.34116e-05 0.000102039 3.42161e-19)
(-1.70125e-05 0.000126984 2.68351e-19)
(0.00586913 0.060762 4.10877e-17)
(0.00496278 0.0582697 -1.34696e-17)
(0.000639322 0.0147165 2.83641e-17)
(0.00047835 0.0152461 -5.52315e-17)
(-0.00134426 0.0156764 5.15562e-17)
(0.0271103 0.00375075 1.27862e-17)
(0.02814 0.00372476 1.30287e-17)
(0.0266469 0.00271124 4.30408e-17)
(-0.00053203 0.00102312 3.15723e-18)
(-0.000583336 0.00109315 -7.6578e-19)
(-0.00011676 0.000804733 -9.35096e-19)
(-0.000129427 0.000814146 -5.24642e-18)
(-0.000121394 0.000833782 1.26481e-18)
(0.00633988 -0.00474207 -5.35091e-18)
(0.00640164 -0.00429385 -4.6635e-18)
(0.00687056 -0.00465504 7.0824e-18)
(-7.50242e-05 0.00104071 -1.71041e-19)
(-7.74739e-05 0.00104124 -1.7907e-18)
(-9.05602e-05 0.00103513 -2.05897e-18)
(0.00621511 0.0678075 1.94725e-17)
(0.00764888 0.0667996 1.07392e-17)
(0.0067314 0.0683828 2.37185e-17)
(-6.60028e-06 0.00103288 -1.1457e-18)
(-2.1941e-05 0.00102634 -1.68419e-18)
(-1.04671e-05 0.00101919 -6.40465e-18)
(-0.0317462 0.0393111 -3.54653e-17)
(-0.0358306 0.0362417 4.87675e-18)
(-0.029533 0.0419997 -4.5537e-18)
(0.00209251 -0.0315939 1.55936e-17)
(0.000395078 -0.0304948 -3.11102e-18)
(-0.0433798 0.0292544 -2.89172e-18)
(-0.0332222 0.0336047 1.30002e-17)
(-0.0313896 0.0320952 4.83342e-18)
(-0.00732855 -0.0152709 -1.77443e-17)
(-0.00697814 -0.0161717 -3.94806e-19)
(-0.00644846 -0.0154359 2.80667e-18)
(0.00304898 -0.00671448 -4.26884e-19)
(0.00315514 -0.00722015 -4.24461e-18)
(7.22672e-06 0.00104623 1.02944e-18)
(4.84223e-06 0.001048 4.57285e-18)
(-0.0162354 -0.0092065 5.43801e-18)
(-0.0168922 -0.00982302 5.15483e-18)
(-0.0171774 -0.00877945 -1.22327e-18)
(0.0408239 0.00345603 -2.49368e-17)
(0.0381526 0.00449778 2.16159e-17)
(0.0314116 -0.0496944 -1.56816e-17)
(0.021409 -0.0480276 -2.11523e-17)
(0.029691 -0.0526259 -1.33441e-17)
(0.0295574 -0.050436 -8.51875e-18)
(0.0351755 -0.0447052 1.79625e-17)
(-0.000216867 -0.00603188 -2.55118e-18)
(0.000131069 -0.00603613 -1.93592e-18)
(-9.00352e-05 -0.0057456 -2.47723e-18)
(-0.000606776 -0.000373301 -6.48432e-19)
(-0.00059036 -0.000377984 4.74724e-20)
(-0.000587778 -0.000370315 1.62979e-18)
(-0.000757601 0.00205226 7.33352e-18)
(-0.000845491 0.0021456 2.48898e-18)
(-0.00284319 -0.00396951 -9.21404e-19)
(-0.00292835 -0.0037159 -1.77744e-18)
(-0.00265458 -0.00378867 -1.47702e-18)
(-0.00320339 -0.00893734 9.78623e-19)
(-0.00280692 -0.00862946 -2.30662e-18)
(-0.00332869 -0.00833686 5.05021e-18)
(-0.0233141 0.0057415 2.09791e-18)
(-0.022407 0.00617501 -2.83659e-18)
(-0.0234133 0.00695008 -4.66975e-18)
(-0.0836969 -0.018381 -1.97898e-17)
(-0.0996567 -0.0159701 -4.33166e-18)
(-0.0697161 -0.0237152 1.8163e-17)
(0.00636702 -0.00521831 -5.00329e-18)
(0.00593081 -0.004859 4.82947e-18)
(-2.81236e-06 7.35318e-05 -8.25384e-19)
(-1.43539e-07 4.66539e-05 1.69096e-18)
(-0.0155994 -0.0132078 -7.44256e-18)
(-0.015942 -0.013827 -8.35205e-18)
(-0.0164885 -0.0129675 -2.80294e-18)
(0.0150299 0.0630807 -2.4923e-17)
(0.0146991 0.0657656 2.10486e-17)
(0.0115775 0.0641859 -1.66745e-17)
(-0.00361434 -0.00905394 -1.02399e-18)
(-0.000955347 0.000882639 -2.28066e-18)
(-0.00103236 0.000887758 3.10247e-18)
(-0.000971271 0.000810411 -5.38412e-19)
(0.00122564 -0.0246432 2.14242e-18)
(0.00241021 -0.0253711 -4.03084e-18)
(0.00240668 -0.0240326 -1.15666e-17)
(0.0300383 -0.0163398 1.50108e-17)
(0.026925 -0.0183437 -1.10408e-17)
(0.0449689 -0.0199216 -6.70181e-18)
(-0.016435 0.0176264 2.5465e-17)
(-0.0158397 0.0170283 -7.32396e-18)
(-0.0149885 0.0180291 2.12087e-17)
(1.03797e-05 0.00103642 -1.07639e-18)
(2.72242e-05 0.00104275 2.22072e-19)
(-0.0197514 0.0403924 -2.96201e-17)
(-0.017054 0.0433871 -1.62813e-17)
(-0.000631131 -0.000362186 2.15748e-18)
(-0.000644113 -0.000376808 -1.81114e-18)
(1.92687e-05 0.00101726 2.58114e-18)
(-0.000233644 0.00077547 -3.25578e-18)
(-0.000219977 0.000765281 -3.90147e-18)
(-0.000210715 0.000788794 9.06988e-19)
(0.01287 0.00367424 1.24833e-17)
(0.0176415 0.000264693 -1.97342e-20)
(0.0168167 0.00192886 9.15553e-18)
(-0.00485805 -0.00194785 -4.99622e-19)
(-0.00476529 -0.0022458 -7.34659e-19)
(-0.000160213 0.000610074 1.10931e-19)
(-0.000181907 0.000625761 -7.04013e-20)
(-0.000115786 0.000777806 1.41386e-18)
(-0.000160541 0.00077255 -4.82036e-18)
(-0.00014943 0.000801875 -6.30289e-18)
(-0.0279109 0.00655238 -2.52856e-18)
(-0.0331826 0.00840153 -4.13501e-17)
(-0.029984 0.00976857 -9.86494e-18)
(-0.0153076 -0.0122174 2.3931e-17)
(-0.0160758 -0.0111998 2.76024e-18)
(-0.000404375 0.000621612 7.33269e-19)
(-0.00041025 0.000609261 -3.54068e-18)
(-0.0426585 -0.0193002 -2.3902e-17)
(-0.0466636 -0.0168923 -3.58273e-17)
(-0.000584046 0.000815795 3.78482e-18)
(-0.000566187 0.000774657 1.91735e-18)
(-0.000601972 0.00077966 -1.51094e-18)
(0.00234407 -0.02673 1.8905e-17)
(0.000996202 -0.0273958 2.5368e-17)
(-0.000344157 -0.0063457 1.54777e-18)
(-0.000549196 -0.0060156 2.28795e-19)
(0.000276431 -0.000806016 -7.16428e-20)
(0.000257916 -0.000743918 -9.40845e-20)
(-0.00320856 0.0154669 -2.26505e-17)
(-0.00338319 0.0157675 1.59363e-17)
(-0.00295676 0.0157737 -1.99972e-17)
(0.000595971 -0.00273739 8.58661e-20)
(0.000428562 -0.00279418 1.15559e-18)
(0.000441542 -0.00260322 4.89307e-20)
(-0.0461371 0.00522136 -1.50836e-17)
(-0.0435366 0.00571403 -1.22324e-17)
(-0.0774073 -0.0366709 3.75787e-17)
(-0.0496412 -0.0330528 -5.93654e-18)
(-0.0684188 -0.0414443 4.07899e-17)
(0.000149199 -0.00319187 -4.88407e-19)
(-4.60513e-05 -0.0031976 1.09203e-18)
(2.28974e-05 -0.00300967 -1.37514e-19)
(-0.000313382 -0.000169402 4.02397e-19)
(-0.000302108 -0.000163092 -2.01334e-18)
(-0.000312385 -0.00014265 -1.01527e-18)
(-2.74241e-05 0.000285488 -4.06506e-19)
(-1.93107e-05 0.000242158 4.38785e-19)
(-1.99014e-05 0.000249458 -1.91358e-19)
(-0.000912264 0.000887479 7.84531e-19)
(-0.000950792 0.000933559 -4.05192e-18)
(0.0142878 0.00300249 -1.28344e-17)
(0.0133734 0.00377356 4.39e-17)
(0.0153421 0.00304442 4.51348e-17)
(0.0291707 -0.00949528 -2.13264e-20)
(0.0316318 -0.00728324 -1.99709e-18)
(0.0285709 -0.0074097 -1.21373e-17)
(-0.00692286 0.0518012 -1.89791e-17)
(-0.00164114 0.0544045 1.50768e-17)
(-0.00777304 0.0528798 -2.15606e-17)
(-0.000506567 -3.15466e-05 1.50054e-18)
(-0.000490005 -4.50134e-05 -1.62543e-18)
(-0.0275494 -0.020158 1.18501e-18)
(-0.0280528 -0.0214116 -2.69602e-18)
(-0.0125428 0.0131808 4.22686e-19)
(-0.0132182 0.0126693 -1.43153e-18)
(-0.0124523 0.0123848 1.23484e-18)
(-0.00299233 0.016613 4.66691e-17)
(-0.00258288 0.0167588 5.84418e-18)
(-0.0026564 0.0163472 -1.79112e-17)
(-0.000252046 0.000791024 -1.88305e-18)
(-0.000272488 0.000784331 -1.22615e-18)
(-0.000277068 0.000760312 -1.94306e-18)
(-0.00295338 -0.00487638 2.62533e-19)
(-0.00321415 -0.0047127 -1.51351e-18)
(-0.00289846 -0.00460921 -4.77199e-18)
(-0.0437145 0.0296246 1.49989e-17)
(-0.0464644 0.0290312 -3.70204e-19)
(0.0197519 -0.0105526 4.218e-17)
(0.00389383 -0.0325072 9.02078e-18)
(0.0019239 -0.0336227 -1.01285e-17)
(-5.71533e-05 0.00103459 -3.88143e-18)
(-3.87071e-05 0.00103436 -1.76648e-19)
(-5.51363e-05 0.00104419 -3.66553e-18)
(-4.49682e-05 0.00104007 -8.75041e-19)
(-5.64661e-05 0.00103454 -8.28049e-19)
(-0.000313483 -0.000194206 -6.47952e-19)
(-0.0569789 0.0233117 -1.08317e-17)
(-0.0589448 0.0234978 -1.27261e-17)
(0.0526343 -0.0071824 3.3059e-17)
(0.0533887 -0.0101144 3.93107e-17)
(0.0232923 -0.00959528 8.42156e-18)
(0.0156197 0.00603243 -1.54431e-18)
(-0.153598 -0.0480772 -1.74838e-17)
(-0.133151 -0.0385685 8.5185e-18)
(-0.00191418 -0.000788491 -1.50831e-19)
(-0.00182093 -0.000771533 -5.29178e-19)
(-0.00183141 -0.000866813 1.65849e-20)
(-0.028733 0.0702935 1.38187e-17)
(-0.00977935 0.0760413 -4.07039e-18)
(-0.0324934 0.0833451 2.26145e-17)
(-0.00040025 0.0144272 1.99827e-17)
(-0.000323855 0.0144693 3.60079e-17)
(-0.000529751 0.0145555 6.25553e-17)
(-0.000869808 0.00486046 2.63115e-17)
(-0.000645278 0.00490167 -2.58914e-18)
(-0.000687397 0.00466715 1.85188e-17)
(0.00176118 -0.00136815 -3.49823e-19)
(0.00162641 -0.00137739 -2.9418e-18)
(0.00164584 -0.00126022 -2.87793e-18)
(-0.0025552 0.00284279 -1.87993e-18)
(-0.00245665 0.00270176 5.43218e-18)
(-0.00238814 0.00283954 -5.37348e-18)
(0.000463417 0.0153744 -1.24576e-17)
(0.000282009 0.0157955 -8.018e-17)
(-0.00019587 0.015403 -1.09228e-17)
(0.000130397 -0.000207731 -3.93523e-19)
(0.000144444 -0.000222352 6.20666e-19)
(0.000125235 -0.000221209 -7.65046e-19)
(-0.000521866 0.00047443 3.73409e-18)
(-0.000523201 0.000458647 3.18431e-19)
(-2.71789e-05 0.000464019 -2.7531e-18)
(-3.03229e-05 0.000452003 -1.04324e-18)
(-2.18265e-05 0.000397812 4.25547e-18)
(-0.000511392 0.00123453 -1.60145e-18)
(-0.000523217 0.00131979 3.51949e-18)
(-0.000579991 0.00125326 -2.29878e-18)
(0.000533757 -0.000883716 -9.53423e-20)
(0.000577999 -0.000882226 -6.29711e-20)
(0.000549552 -0.00082411 -3.70688e-20)
(-0.00173777 -0.010817 -7.42179e-18)
(-0.00232214 -0.010876 1.24744e-18)
(-0.00201574 -0.0114441 -6.8265e-19)
(0.000660157 -0.00757482 3.13011e-20)
(0.000456325 -0.00793548 -9.43101e-19)
(0.000953238 -0.00788125 -1.00275e-19)
(0.00497664 0.0738345 -4.12631e-17)
(0.00519352 0.0746499 -1.7803e-17)
(0.00492074 0.0749671 -2.1438e-17)
(-6.53657e-05 0.000911683 8.80592e-19)
(-9.63853e-05 0.000940382 -8.71077e-19)
(-0.000108381 0.000895349 1.10417e-18)
(-0.00705191 -0.00509753 -3.82166e-18)
(-0.00660718 -0.00508236 2.61902e-18)
(-0.00688494 -0.00464737 1.59173e-18)
(0.00033372 -0.00318434 -7.01844e-19)
(0.000281756 -0.00338063 1.70634e-19)
(-0.00145289 0.00198836 -4.6096e-18)
(-0.00134634 0.00194456 -1.53803e-18)
(-0.00141953 0.00187778 -2.42424e-18)
(-0.00690157 0.0175427 -5.43485e-18)
(-0.00615456 0.0175445 -1.44834e-18)
(-0.00658987 0.0182796 1.48119e-18)
(-0.0146928 -0.0130422 1.89251e-18)
(0.0155687 0.0604097 3.11646e-18)
(0.0189981 0.060959 -4.51116e-18)
(8.50845e-05 -0.000185631 -5.8413e-19)
(8.53839e-05 -0.000174509 4.45078e-19)
(7.22475e-05 -0.000180473 -3.63728e-19)
(0.00145185 0.0548497 4.47874e-17)
(0.003784 0.0542328 3.18079e-17)
(-0.00362197 0.00242281 8.41259e-19)
(-0.00381763 0.00254471 2.59617e-19)
(0.0159066 -0.014503 1.40125e-18)
(0.0167522 -0.0154075 1.05625e-17)
(0.0170976 -0.0141833 6.39011e-18)
(-0.000965564 -0.000888446 -8.0602e-19)
(-0.000942739 -0.000956874 -2.18718e-19)
(-0.0243533 0.0053188 -1.26499e-17)
(-0.0233962 0.00467482 1.24428e-17)
(-0.000104212 0.000768863 1.42717e-18)
(-0.000104208 0.000796134 3.93178e-19)
(-0.00101909 0.0103245 -1.62814e-17)
(-0.000844707 0.0100212 5.30744e-18)
(-0.000608265 0.0104187 1.51986e-17)
(-0.0156651 -0.00842388 -6.90613e-18)
(-0.0160734 -0.00750298 -5.03972e-19)
(0.000472823 -0.000866093 6.79283e-20)
(0.000498404 -0.0009379 -3.92289e-19)
(0.00220796 0.0165065 2.4472e-17)
(0.00255651 0.0163701 -1.77634e-17)
(0.00229347 0.0168803 -6.40756e-18)
(-0.0105589 0.0430207 -2.11356e-17)
(-0.0195134 0.0391075 4.05553e-18)
(-0.0114898 0.0402232 7.28369e-18)
(-0.0119192 -0.00133377 3.55409e-18)
(-0.0115979 -0.00193852 5.08008e-18)
(-0.000750301 0.000224078 -2.9438e-18)
(-0.000717942 0.000252533 -2.64196e-19)
(-0.000749251 0.000261284 1.23925e-18)
(-0.0080676 -0.0186785 9.69756e-19)
(-0.00834123 -0.0177234 1.93311e-19)
(-0.00922779 -0.0183447 -2.26104e-18)
(-0.00649347 0.0226012 -1.04293e-17)
(-0.00843891 0.0265516 -8.57548e-17)
(-0.0217961 0.0215139 -3.60799e-17)
(-0.00166877 0.0101104 -1.39759e-18)
(-0.00131939 0.0102283 -1.44178e-17)
(-0.00149976 0.00981709 3.92028e-18)
(-0.00170219 0.0104243 1.51042e-17)
(-0.00196465 0.0100579 1.23382e-18)
(0.00643795 0.0720409 -3.75344e-18)
(0.00752422 0.0709876 4.87719e-17)
(0.00765617 0.0705328 9.00943e-18)
(0.00343587 -0.0437609 -1.90012e-17)
(0.00568333 -0.0435974 -1.73087e-18)
(0.00797288 -0.0464036 -1.33351e-17)
(0.0148101 -0.0146481 6.46117e-18)
(0.0151856 -0.0135435 -1.15166e-17)
(0.00244466 -0.016517 -6.70181e-19)
(0.00136942 -0.0165475 6.05301e-18)
(-0.000348257 0.0141369 -3.03623e-18)
(-0.000120713 0.0144172 -2.53292e-17)
(0.00114041 -0.000744573 -2.41492e-19)
(0.00121235 -0.000722726 -6.29871e-20)
(0.00114263 -0.000670463 -5.60677e-19)
(-0.0216541 0.0525166 -2.3434e-17)
(0.0249063 0.00461274 -3.61122e-17)
(0.0258678 0.00354985 1.10479e-18)
(0.000117776 -0.000197069 -1.04834e-18)
(0.000133118 -0.000196852 -2.79644e-19)
(-1.434e-05 0.000362781 -2.64276e-18)
(-1.3563e-05 0.000369496 -1.69873e-18)
(-8.42057e-06 0.000305267 -2.24561e-18)
(-0.076524 0.00754341 4.33908e-18)
(-0.0862298 0.00413311 -9.00129e-18)
(-0.000697803 0.000609892 5.23817e-18)
(-0.000728044 0.0005777 -4.68403e-18)
(-0.000748775 0.000622617 5.20506e-18)
(-9.14355e-06 9.27875e-05 -1.74278e-18)
(-1.17691e-05 0.000115653 1.7365e-19)
(-0.00908065 -0.0356432 -7.6168e-18)
(-0.0115113 -0.0356791 3.5235e-18)
(-0.00927949 -0.0338493 -1.8924e-17)
(-0.013697 -0.035482 1.32842e-18)
(-0.0136743 -0.0336519 1.40682e-17)
(-0.0166828 -0.0349921 -3.82552e-17)
(-0.00210484 -0.000788008 -3.72679e-19)
(-0.00275214 -0.00510757 1.15714e-18)
(-0.00307456 -0.00519484 2.42729e-18)
(-0.00745251 -0.00515059 -4.27302e-18)
(-0.00712683 -0.00551684 -1.81286e-19)
(-0.00741454 0.00638072 1.4733e-19)
(-0.00696409 0.00641353 -3.20265e-18)
(-0.00726792 0.00678327 5.79091e-18)
(-0.00222645 -0.00575914 5.57214e-18)
(-0.00199619 -0.00552652 -7.42826e-19)
(-0.0018909 -0.00582807 -7.93025e-18)
(-0.000232414 0.000795279 1.17147e-18)
(-0.0126034 0.00238722 -1.98482e-18)
(-0.0126179 0.00191695 4.55459e-19)
(-0.0121111 0.00218766 -5.09211e-19)
(0.00347863 0.0775781 4.61841e-18)
(0.00291997 0.0789538 -1.46753e-17)
(0.00359349 0.0783578 -1.14021e-17)
(0.000416218 -0.000831547 1.22997e-19)
(0.000447933 -0.000786721 2.26047e-19)
(-0.00902873 0.0482724 2.86123e-17)
(-0.00779336 0.0502799 -8.02198e-18)
(-0.000621927 0.0515499 1.96204e-17)
(-3.76253e-06 0.00014681 -3.29125e-18)
(-6.98039e-06 0.000101408 -1.04562e-18)
(-7.30071e-05 0.000446652 6.499e-19)
(-6.07221e-05 0.000419062 2.56803e-19)
(-7.16173e-05 0.000465056 -2.01366e-18)
(9.98795e-05 -4.48082e-05 -5.00612e-19)
(9.22299e-05 -5.08269e-05 -5.9909e-19)
(0.000101795 -4.99886e-05 3.7863e-19)
(0.0044776 0.0691421 -1.02738e-17)
(5.03824e-05 0.000890895 3.43031e-18)
(4.20634e-05 0.000870158 1.6176e-18)
(2.76775e-05 0.000893581 7.7233e-19)
(-0.0243603 0.0062332 1.72443e-17)
(-0.0174701 0.0049452 3.24718e-17)
(-0.0091782 0.0525075 -1.77375e-17)
(-0.0116564 0.0504821 -3.23386e-17)
(-0.0118263 0.0513243 3.32713e-17)
(-0.000130666 0.0003308 1.36901e-19)
(-0.000131138 0.000346571 6.14832e-18)
(-0.000146498 0.000342765 1.667e-18)
(-9.46339e-05 0.000728488 -9.63641e-19)
(-0.000106886 0.000744341 -5.41578e-19)
(-0.0356855 0.00273375 1.8065e-17)
(-0.0419165 0.000496285 1.1086e-18)
(-0.040163 -0.000787684 2.93183e-19)
(9.22454e-05 -3.27592e-05 1.30299e-18)
(0.000108806 -3.28536e-05 -4.54563e-19)
(-8.566e-06 0.00021323 -8.93441e-19)
(-9.255e-06 0.000210155 2.0267e-18)
(-1.21979e-05 0.000266667 6.89597e-18)
(0.000143159 -3.34462e-05 3.70592e-19)
(0.000132643 -3.46366e-05 -5.31532e-19)
(0.00013432 -2.29428e-05 -1.80981e-19)
(-0.00704266 0.0543649 -2.90178e-17)
(-0.00787047 0.0547366 -1.46306e-17)
(-0.00329858 0.0151281 -4.47737e-18)
(-0.00289798 0.0151292 -2.09495e-17)
(-0.00225647 0.00429825 8.32321e-19)
(-0.00218267 0.00411056 -1.8033e-18)
(-0.00239691 0.00416256 -5.40116e-18)
(-0.00852107 0.0174429 -6.00887e-18)
(-0.0087882 0.0166403 -4.70981e-18)
(-0.00931552 0.0173692 -1.54399e-19)
(-0.012253 -0.0283694 -3.87528e-18)
(-0.0131889 -0.0268061 1.33784e-17)
(-0.0113319 -0.0267882 -3.01948e-17)
(-0.0833164 -0.0307232 -6.22094e-18)
(-0.0055807 0.0614347 1.04691e-18)
(-0.00317501 0.0634495 -5.47822e-17)
(-0.00358748 0.0584506 -9.03151e-18)
(-0.000232226 -0.0032087 1.07194e-18)
(-0.000107906 -0.00342023 -2.94836e-19)
(0.028983 0.112373 4.08017e-17)
(0.00843798 0.103434 -4.71966e-17)
(0.0244567 0.124088 3.30667e-17)
(-7.12586e-06 8.98568e-05 -3.22598e-18)
(-7.40139e-06 0.000134801 2.60985e-18)
(-4.80881e-06 8.75304e-05 2.89159e-18)
(0.0104281 0.0240883 3.41088e-17)
(-0.00421205 0.0183303 2.32228e-17)
(0.00238361 0.0219542 1.28836e-17)
(-0.000409653 0.015232 -8.54471e-18)
(0.00476486 0.0134055 2.89011e-17)
(0.00934224 0.0633599 -3.20543e-18)
(0.00635358 0.0627675 7.62719e-18)
(0.00953355 0.0627773 1.75768e-17)
(-0.0282285 0.0420608 -1.6655e-17)
(0.00263545 -0.0416134 5.88438e-19)
(0.00102773 -0.0439685 4.29941e-19)
(0.000484654 -0.00602816 1.0651e-18)
(0.000390003 -0.00633754 -3.03574e-18)
(-0.0124905 -0.010693 2.18062e-18)
(-0.013063 -0.0100098 3.46137e-18)
(0.000346515 -0.00726606 2.63511e-18)
(0.000818882 -0.00724226 -1.6587e-18)
(0.00189825 -0.00135455 2.12707e-18)
(0.00201769 -0.0013121 -6.88851e-19)
(0.00188366 -0.00121931 5.40813e-19)
(0.00103637 -0.00346523 -9.50652e-19)
(0.00111498 -0.00365925 1.97837e-18)
(0.0012562 -0.00350807 -1.82344e-19)
(-0.00776787 0.0173912 -6.20723e-18)
(-0.00714488 0.016806 -2.99305e-18)
(-0.00255751 0.00504878 8.38279e-18)
(-0.00235291 0.0051567 1.74831e-17)
(-8.58552e-05 0.000720326 2.71132e-18)
(-8.24764e-05 0.000692805 1.79209e-18)
(-1.03618e-06 1.34165e-05 1.88479e-18)
(-9.3599e-08 6.01669e-06 4.3445e-18)
(-1.62273e-07 6.57707e-06 2.03104e-18)
(9.85302e-05 -0.000197108 7.01306e-19)
(7.98358e-05 -0.000199549 -3.19252e-19)
(0.000296106 -2.29406e-05 -5.66741e-20)
(0.000310108 -1.58482e-05 1.92896e-19)
(0.000295451 -2.68108e-05 -2.7935e-19)
(0.000382484 -0.000877964 -1.1213e-19)
(-0.00257767 0.0532622 -5.85344e-18)
(-0.00324408 0.0550835 1.12619e-17)
(-0.000558266 0.0538559 1.85914e-17)
(-0.000378358 -0.000202956 2.68179e-19)
(-0.000360459 -0.000222901 -1.80602e-18)
(-0.000363484 -0.000189412 -6.72625e-19)
(-0.000827836 -0.000804952 9.97777e-19)
(-0.000813562 -0.000750071 5.59129e-20)
(-0.000892742 -0.000772283 5.32158e-19)
(0.000319238 -1.75185e-05 4.43719e-20)
(0.000318183 -1.6009e-05 6.53665e-20)
(0.000304508 -2.17658e-05 -2.62528e-19)
(-0.000461136 1.92638e-05 2.73839e-18)
(-0.000465917 -2.38283e-05 8.11611e-19)
(0.00477351 0.0845818 1.55906e-17)
(0.00369495 0.0836967 3.23204e-17)
(0.00317437 0.0879142 4.76602e-17)
(-0.0171386 0.0166929 1.82874e-17)
(-0.017367 0.0178468 9.79009e-19)
(0.00177813 0.0112313 -9.44351e-18)
(0.00147948 0.0110985 -1.63166e-17)
(0.00141361 0.0114534 1.80572e-17)
(-0.000590454 0.00300675 -1.30983e-17)
(-0.000675133 0.00312702 -5.23939e-18)
(-0.000520403 0.00314763 1.37176e-17)
(5.51689e-05 -0.0252912 1.69495e-17)
(0.000233514 -0.0240171 8.71147e-19)
(0.000345405 -1.16601e-05 -3.15566e-21)