/*--------------------------------*- C++ -*----------------------------------*\
| =========                 |                                                 |
| \\      /  F ield         | OpenFOAM: The Open Source CFD Toolbox           |
|  \\    /   O peration     | Version:  v2012                                 |
|   \\  /    A nd           | Website:  www.openfoam.com                      |
|    \\/     M anipulation  |                                                 |
\*---------------------------------------------------------------------------*/
FoamFile
{
    version     2.0;
    format      ascii;
    class       surfaceScalarField;
    location    "450";
    object      meshPhi;
}
// * * * * * * * * * * * * * * * * * * * * * * * * * * * * * * * * * * * * * //

dimensions      [0 3 -1 0 0 0 0];
oriented        oriented;


internalField   nonuniform List<scalar> 
27907
(
-3.23184e-05
-7.58924e-05
0.000108217
-6.66513e-05
8.87606e-05
-2.2108e-05
9.87607e-05
4.64926e-05
-0.000124834
5.2118e-05
-9.87186e-05
4.66015e-05
5.4446e-05
-8.36618e-05
2.9216e-05
-4.10963e-05
8.16177e-05
-4.05211e-05
-5.41033e-05
6.04052e-05
-6.30196e-06
-0.000280715
-7.49926e-06
0.000297641
-2.89348e-05
-6.86008e-05
9.75399e-05
-0.000115687
0.000201253
-8.54338e-05
-0.000299076
0.000152633
0.000146872
4.28134e-05
3.30389e-05
-7.5852e-05
4.44853e-05
-1.96513e-05
-1.39174e-05
8.75196e-05
3.37635e-05
-0.00012127
3.71956e-05
0.000216317
-0.000252902
-4.61174e-05
9.56813e-05
-4.95635e-05
0.000196633
-0.000145616
-5.09392e-05
0.000366357
-0.000104894
-0.000255922
-0.000324551
0.000309526
1.65273e-05
5.73208e-05
0.000126157
-0.000183392
-3.58881e-05
6.00944e-05
-2.42063e-05
2.8506e-05
2.48402e-05
-5.25094e-05
4.91375e-05
-7.97453e-05
3.06079e-05
-5.61547e-05
-2.13121e-05
7.74684e-05
-0.000108239
6.18311e-05
4.64097e-05
1.26468e-05
-0.000282924
-8.74846e-05
4.92297e-05
3.82553e-05
6.33527e-05
-8.25078e-05
1.91553e-05
6.99322e-05
-9.04971e-05
2.05657e-05
-7.03249e-05
7.49856e-06
6.28268e-05
-0.000104372
0.00016804
-6.36322e-05
6.32521e-05
-2.59839e-05
-3.72682e-05
9.7466e-06
5.52386e-06
-9.99274e-06
-9.59136e-06
0.000258851
-0.000248542
5.20558e-05
-0.000132037
7.99934e-05
4.18385e-05
0.00014191
-0.000183135
-7.86319e-07
-1.20506e-05
1.64061e-05
6.48844e-05
-0.00032084
0.000257178
0.000305998
-1.25034e-05
-0.000292528
0.000203792
-7.77294e-05
-0.00012599
0.000145868
0.000201133
-0.000345737
0.000142501
0.000104221
-0.00024661
-0.000360847
8.87485e-05
0.000276263
0.000206264
4.46997e-06
-0.0002106
-7.36646e-05
-4.26611e-06
7.79318e-05
-1.71106e-05
-0.000109761
0.000140739
-1.37882e-05
6.29257e-05
0.000192254
5.23183e-05
-0.000244244
0.000112046
-0.000227584
0.00031196
-1.44467e-05
-0.000292474
-8.43813e-05
-3.17987e-05
0.000116189
6.08277e-05
2.14836e-05
-8.23111e-05
-8.97169e-05
0.000224251
-0.000123788
-0.000103238
-0.000195366
6.43759e-05
-1.02304e-06
9.37266e-05
-4.67522e-05
-4.69734e-05
-1.58413e-05
1.85697e-05
-7.17129e-05
-4.18902e-05
0.000260051
-0.000318263
5.89716e-05
1.49278e-05
-0.000123468
0.000108552
-0.000140024
4.40491e-05
9.59836e-05
1.10832e-05
-6.51864e-05
-0.00010132
-2.05784e-05
0.00012191
0.000130717
-0.00028863
0.00015815
9.97543e-05
-0.000179982
3.70918e-05
0.00026267
-0.00029927
0.000189131
1.15178e-05
-0.000200574
-4.50081e-06
1.8688e-05
0.000359682
-4.60782e-05
-0.000311969
6.77814e-05
-6.9535e-06
-2.2115e-05
-3.92331e-05
6.13482e-05
0.000289899
-3.27936e-05
-0.000256835
1.78866e-05
0.000298906
4.76321e-05
-6.61059e-05
1.84738e-05
0.000347852
-3.34316e-05
-0.000308753
-0.000246076
0.000343552
-9.65936e-05
2.37904e-05
-0.000117149
9.33628e-05
-7.03395e-05
6.66079e-05
3.73175e-06
8.8414e-05
-0.000132323
4.39161e-05
-2.0568e-05
-4.52593e-05
6.58274e-05
3.52263e-05
3.84636e-05
-7.36897e-05
-4.70778e-05
-3.07628e-05
7.78414e-05
-7.83521e-05
9.32882e-05
9.1821e-05
-4.40526e-05
-4.77681e-05
-7.63943e-05
0.000100189
0.000154761
8.19636e-05
-0.000236571
3.74794e-05
3.93993e-05
-7.68784e-05
3.37144e-05
-0.000135022
-3.67156e-05
-2.27779e-05
5.94935e-05
-0.000352139
0.000107015
4.64678e-05
4.53533e-05
0.000330219
-6.93673e-05
2.34443e-05
5.77657e-05
-8.12098e-05
-0.000100687
0.000243292
5.67323e-05
2.23245e-05
-7.90567e-05
-3.89057e-05
6.23502e-05
3.75353e-05
-0.000113925
0.000102053
0.00025077
-0.000394944
0.000123451
0.00027291
-6.42194e-05
2.83313e-05
-8.64835e-05
0.000183548
-9.69807e-05
-9.00671e-05
3.16178e-05
5.84494e-05
0.000107702
-0.000136745
2.90617e-05
0.000161012
-3.72853e-05
-0.000123689
3.86796e-05
2.45725e-05
1.28132e-05
-8.31376e-05
4.11823e-05
4.51593e-05
-8.63405e-05
1.50659e-05
-8.54052e-05
0.000262869
-0.000332522
7.03048e-05
-0.00027461
1.3192e-05
0.000261509
-7.58227e-05
3.69172e-05
-1.08546e-05
0.000299758
-0.000270884
-1.93629e-05
0.000343785
-6.51217e-05
-0.000277728
-3.09965e-05
-4.41988e-05
7.5196e-05
-4.9558e-05
5.51655e-05
-5.60749e-06
4.16327e-05
2.51897e-05
-6.68224e-05
0.000256746
-0.000218951
5.32661e-05
-8.07642e-05
2.74983e-05
-3.59805e-06
6.03305e-05
0.000223553
-0.00016093
-6.25294e-05
-5.5878e-05
-0.000179252
0.000235513
-8.07502e-05
7.35023e-06
7.34004e-05
7.62528e-05
-6.17368e-05
-1.45158e-05
-9.40163e-05
5.16265e-05
4.23916e-05
2.24574e-05
-9.61209e-05
2.48378e-05
-9.14877e-05
-0.0001036
1.57026e-05
8.79001e-05
-9.79072e-06
6.75566e-05
-1.17199e-05
1.83883e-06
2.34317e-05
0.00013433
6.2373e-05
-5.0018e-05
-3.7466e-05
3.64388e-05
2.36556e-05
-4.27069e-05
0.000131705
-8.89809e-05
-6.21705e-06
-5.11312e-05
3.77988e-05
0.000169419
-0.000207047
-7.3915e-06
-0.000109752
0.000108009
9.5849e-05
-3.8225e-05
-0.000354754
-0.00014128
0.000109171
3.21136e-05
-1.84793e-07
8.86041e-05
-0.000103147
7.66541e-05
2.6495e-05
-0.000196139
-0.000110227
0.000307305
3.54422e-05
5.82852e-05
-0.000118199
0.000265096
0.000283847
4.26105e-06
-0.000286795
-4.53617e-05
-1.47259e-05
6.00876e-05
4.60805e-05
-7.75116e-05
3.14312e-05
-0.000161073
5.67365e-05
-9.1088e-05
1.41748e-05
7.69138e-05
3.60444e-05
-8.31214e-05
-7.41855e-05
8.55031e-05
-1.13161e-05
0.00011676
-0.000233136
0.000116534
-4.17257e-05
-2.33865e-06
4.65449e-05
-2.41678e-05
-4.01254e-05
6.42933e-05
0.000248149
-0.000165573
-8.23832e-05
6.81173e-05
-1.4851e-05
-3.74447e-05
0.000230018
-0.000374697
0.000205396
0.000169846
1.3521e-07
1.41528e-05
-1.38148e-05
-0.000348567
8.30955e-05
0.000268978
-4.88621e-05
-5.0252e-05
9.9122e-05
-3.4682e-05
-3.82677e-05
7.29499e-05
-0.000147296
-0.000226796
-3.38688e-05
-0.000106145
9.91433e-06
6.00184e-05
-0.000330592
0.000329617
2.41114e-06
3.18736e-05
-8.13939e-05
4.95207e-05
5.81278e-05
4.24834e-05
-0.000100607
7.99041e-05
-4.00134e-05
-3.98905e-05
2.59067e-05
3.98224e-05
-6.57291e-05
0.00016917
0.000201631
-7.48087e-05
4.0127e-05
4.57125e-05
2.75135e-05
-7.32259e-05
-0.000103554
5.46998e-05
-9.92964e-05
4.31435e-05
-3.17033e-05
8.46895e-05
-5.29855e-05
-9.06804e-05
0.000221585
-5.13465e-05
-8.99282e-05
-1.06511e-06
0.000280655
-0.000278572
0.000275318
-3.45629e-05
-0.000231313
-3.46411e-05
-2.38456e-05
-7.78004e-05
3.61637e-06
-0.000399383
0.000128611
0.000274389
-0.000269434
7.08398e-05
0.000198878
0.00011648
-8.20296e-05
-3.44478e-05
6.27616e-05
0.000246168
-0.000307733
2.25137e-05
-7.20717e-05
0.000332456
-1.52586e-05
-0.000311858
2.89272e-05
-0.000312557
0.00028461
-0.000117606
7.49134e-05
2.53449e-06
-0.000106133
-0.000289351
0.000110309
0.000179587
-0.000112753
-4.82811e-05
-0.000174956
0.000157034
1.79624e-05
-8.45745e-05
0.0001183
-0.000115972
0.000173374
-4.50729e-05
0.000103205
2.29034e-05
-0.000142354
0.000124583
-0.000335145
-2.06815e-05
0.000127743
-5.62926e-05
-7.14461e-05
0.000230334
-0.000267402
-0.000125986
-4.55938e-05
0.000171653
-0.000131421
8.75594e-06
0.000122683
3.75747e-05
1.6717e-05
-3.56964e-05
-0.000139209
-0.000129448
-7.20299e-06
0.00013667
2.12247e-07
-4.0131e-05
-2.28602e-05
5.91658e-05
-3.63056e-05
-9.15685e-05
0.000203751
0.000357058
-0.000103342
-0.000248507
0.000121563
3.948e-05
0.000333581
-0.000227743
-0.000105257
-8.75664e-05
-5.16591e-05
0.000139279
8.07979e-05
5.42379e-05
-0.000135028
-9.11113e-05
4.43428e-05
4.67687e-05
0.000103562
-2.27586e-05
9.50337e-05
-5.37303e-05
-4.13031e-05
-0.000369971
0.000170602
0.000206139
-7.93493e-05
3.82532e-05
0.000257332
1.33239e-05
0.000250046
1.27126e-05
8.30337e-05
-9.57411e-05
2.26393e-05
-6.8001e-05
-0.000105707
6.85773e-05
3.71328e-05
9.53373e-06
-0.000138962
0.00016926
7.40086e-06
-0.000176625
-8.94857e-05
-4.89633e-05
0.000138473
-0.000192019
-0.000117362
0.000312646
-0.000155383
3.49207e-05
0.000120481
-0.000229759
0.000267259
-0.000134044
4.94832e-05
-6.44665e-05
-1.1989e-06
6.56655e-05
-5.86972e-05
9.62366e-05
-1.78347e-05
7.60616e-06
-0.00027779
0.000341828
0.000175847
-0.000364218
4.17079e-06
0.000138275
-0.000129007
-8.97678e-05
9.01819e-06
-4.10035e-05
-0.000108967
0.00015004
-0.000325406
0.000317228
1.14008e-05
-0.000106325
6.21554e-05
4.41716e-05
7.87752e-05
-3.75918e-05
-0.00013697
0.000251641
-0.00011417
-5.35448e-06
-8.57329e-05
6.22701e-05
-2.79507e-05
-3.43194e-05
3.87635e-05
-9.74565e-05
-0.000160744
0.000203056
2.69638e-05
4.66798e-05
-7.36434e-05
-0.000104498
0.000192234
-8.76983e-05
0.000163453
-0.000220467
5.7697e-05
-4.5969e-05
7.7843e-05
0.000187738
-3.28504e-05
0.000105072
-0.000209531
-0.000321215
0.000101473
0.000220507
0.000207516
-0.000185062
-2.23877e-05
-2.53309e-05
9.2648e-05
-6.73147e-05
2.92317e-05
6.58022e-05
7.71115e-05
-0.000164619
6.89236e-05
5.73521e-05
-0.000126268
-0.000351401
0.000345727
-5.41103e-05
0.000156888
-0.000102748
0.00025462
7.08866e-05
-0.000323262
2.16938e-05
-0.000153094
0.000124614
-0.000216037
-6.62994e-05
7.90163e-05
-5.12272e-05
5.90692e-05
-7.84198e-06
-9.71899e-05
-0.00026436
-0.000323274
8.64787e-05
0.000237486
-2.09747e-05
-6.16321e-05
8.26088e-05
-0.000240526
-8.20305e-05
-0.000182963
-8.61386e-05
-0.000146606
7.72459e-05
-8.94641e-05
1.22188e-05
-1.28807e-05
5.45134e-05
0.000336066
-0.000342024
6.94561e-06
0.000151556
-0.000103851
-4.76915e-05
-1.99529e-05
5.06508e-05
-3.06979e-05
5.11936e-05
-8.19555e-05
0.000100861
0.000166679
-0.000267097
-0.000365354
0.000362439
5.52435e-06
6.15828e-06
0.000145077
-0.00015111
0.00012802
-0.000168945
0.000113825
-0.000309046
4.27847e-05
-6.27375e-05
-4.88095e-05
-5.75134e-05
-0.000101135
7.76527e-05
2.34848e-05
-2.20479e-05
-7.82545e-05
-2.28483e-05
0.000332991
-0.000306353
0.000133272
-1.99024e-05
-0.000153791
8.2015e-05
7.1795e-05
-4.46851e-05
-4.64259e-05
4.09761e-05
0.000186953
-0.000227876
-6.33913e-05
9.78655e-05
2.72871e-05
-0.00012514
-0.00021878
5.7073e-05
0.000161841
6.21902e-05
-2.61257e-05
-0.000296856
1.98218e-05
-7.81875e-05
5.83685e-05
3.58517e-05
0.00012766
-0.00012997
-7.89605e-05
5.43654e-05
2.45953e-05
-0.000106266
-5.15115e-05
0.000157815
0.000287358
7.38349e-05
-1.09668e-05
0.000181246
-0.00017017
0.000149154
-3.52362e-06
-0.000145611
-0.000148316
-9.89505e-05
0.000247936
-4.82441e-05
0.00021246
4.89344e-05
1.5143e-05
-6.40774e-05
-1.88816e-05
-8.22508e-05
-5.9185e-05
-0.000242978
0.000304206
-5.98534e-05
1.18296e-06
5.86705e-05
6.90046e-05
-6.60078e-05
-3.96952e-05
-0.000309131
-3.71453e-05
0.000348064
2.18551e-06
-5.73654e-05
-1.84744e-05
7.58416e-05
-0.000291209
0.000154801
-0.000357808
-3.72773e-05
-0.000379045
0.000143341
0.000237304
-0.00025103
2.3853e-05
0.000227263
-5.76884e-05
0.000100176
3.10486e-05
0.00011812
0.000164013
-0.000157719
-0.00020834
9.9441e-05
-5.98909e-05
0.000186136
-0.000194351
7.67647e-05
-0.000303168
-4.57303e-05
-4.05784e-05
4.11783e-05
9.36258e-05
-7.79211e-05
-0.000155021
9.00359e-05
6.50062e-05
0.000104102
4.74628e-05
-2.84882e-05
8.0607e-05
0.000199817
-0.000158796
-0.000106691
-0.000182083
-1.44834e-05
2.95422e-06
2.80093e-05
-5.30639e-05
7.28884e-05
-4.48986e-05
-3.40615e-05
-0.000146356
0.000325513
0.000349322
-9.48629e-05
-0.00024895
0.000176703
-0.000319614
-0.00016574
0.000203707
8.03981e-05
-0.000169856
-4.7635e-05
-6.06019e-05
-0.000325624
0.000270281
-1.12394e-06
-0.000265007
0.000266263
-6.58389e-06
0.000309118
-0.000297888
-9.94433e-05
5.33264e-05
-7.47535e-05
-2.83906e-05
-4.29156e-05
0.000118172
-7.52499e-05
-0.000147805
8.56673e-05
6.21441e-05
-9.80493e-05
-0.000164887
0.000263577
7.75361e-05
-9.40965e-05
1.65626e-05
-0.000120734
8.84236e-05
0.000201191
-0.000134975
-6.61348e-05
-0.000179442
9.22103e-05
8.72582e-05
-3.79506e-05
4.21436e-05
2.30651e-05
-6.52087e-05
4.21135e-05
7.43685e-05
-0.000153482
0.000155489
4.99109e-06
-0.000125848
-5.24025e-05
0.000178323
-0.000101211
5.64417e-05
4.47708e-05
4.24882e-06
7.29976e-05
0.000266704
-0.000173416
-9.30735e-05
-0.00032482
0.000305706
5.99111e-05
-0.0001494
8.95197e-05
0.00014074
0.000199184
-0.000338567
0.000206418
-0.000158016
-4.82691e-05
-6.35799e-05
9.52326e-05
-3.16515e-05
-3.16277e-05
-4.98089e-05
8.14372e-05
-0.000124493
1.04339e-05
0.000114073
0.000133074
-0.000192872
2.06109e-05
-7.18381e-05
0.000242987
-0.000319082
7.66787e-05
0.00023287
-2.19902e-06
0.000313887
-0.000272607
-4.00919e-05
-2.55976e-05
0.000332525
0.000152526
-7.3967e-05
-7.85424e-05
-0.000160929
0.000242028
-8.08136e-05
5.3381e-06
-6.51915e-05
-2.76681e-05
-6.0798e-05
8.84684e-05
-9.93022e-05
-0.000221141
-0.000322416
0.000265425
7.19337e-05
-3.85e-05
-3.34337e-05
1.68268e-05
-0.000141304
-8.49771e-05
5.60456e-05
0.000315076
-7.15216e-05
-0.000122639
0.000150794
-2.81106e-05
-0.000328822
-3.38165e-05
0.000103101
-0.000234941
0.00013194
8.04041e-05
-0.000259458
-0.000310498
0.000220072
5.20038e-05
1.46047e-05
-6.66085e-05
-5.26207e-05
2.97606e-05
2.67049e-05
3.42083e-05
-6.09129e-05
-3.8343e-05
-3.91164e-05
4.73139e-05
7.02971e-06
-0.000115581
8.49851e-05
3.06013e-05
7.85339e-05
-3.77733e-05
-4.07606e-05
0.000149905
5.76661e-05
7.91184e-05
0.000228858
-0.000111947
8.34601e-05
0.0003375
-0.000332664
-2.71172e-06
-8.74951e-06
-0.000269607
0.000279542
2.98715e-05
0.000254578
6.78804e-05
8.46575e-05
-0.000287187
0.000301198
-1.34036e-05
-3.207e-05
0.000238472
-7.68376e-05
-7.09599e-05
-8.87821e-05
4.42214e-05
4.45612e-05
-5.37096e-05
-0.000323141
6.64188e-05
-1.19727e-05
0.000134875
2.98108e-05
-0.000164631
-0.000319716
1.26805e-05
-0.000260161
0.000128097
0.000132325
7.24624e-05
0.000271249
-0.000342917
0.000251073
-4.39533e-05
-0.000174697
8.90104e-05
4.82837e-05
-0.000137267
-9.66125e-05
-9.7711e-05
2.97426e-05
3.25276e-05
0.000126942
9.66723e-05
8.89179e-05
0.00018769
-0.000275848
-7.26745e-05
5.17016e-05
-3.20428e-05
-4.5129e-05
7.71724e-05
9.58642e-05
-6.61483e-05
-2.97146e-05
-4.22877e-05
6.81945e-05
-0.000138399
4.96832e-05
8.87325e-05
0.00010079
0.000183531
-0.000283841
-0.000249043
-5.35414e-05
-1.61011e-05
-0.000305628
0.000288349
4.57297e-05
0.000146938
-0.000136487
0.000181407
-0.000110747
-7.05941e-05
-0.000181323
-1.3809e-05
0.00019526
7.75661e-05
-0.000183789
0.000198858
-0.000100587
4.57233e-05
5.48657e-05
0.000117253
-0.00019557
0.000268631
-6.27389e-05
-0.000145505
3.68337e-05
-7.35492e-05
-0.000160497
0.000249968
-8.91562e-05
-9.23451e-05
6.07181e-05
1.99745e-06
-2.74721e-06
-0.000311967
6.83518e-05
-4.63822e-05
-2.19695e-05
-0.000136123
0.000185098
-4.89042e-05
0.000219554
-0.000308804
8.99624e-05
7.25101e-05
-9.78384e-05
-6.73702e-05
0.000119438
-8.16281e-05
-7.21463e-05
-7.20214e-05
6.22308e-05
0.000123558
0.000220535
9.91402e-05
-0.000265607
0.000166791
4.19514e-05
7.49656e-05
-4.19265e-05
-0.000218906
0.000161667
5.72616e-05
-7.45985e-05
-4.80688e-05
0.000122684
-3.87186e-05
0.000126249
-3.46969e-05
-6.58877e-05
-5.93673e-05
3.33894e-05
2.59779e-05
-8.96923e-05
0.00030131
-1.11476e-05
-3.70201e-05
0.000108307
-7.12783e-05
1.34876e-05
0.000331208
3.64738e-05
0.000110479
0.000263412
-0.000203594
-5.9363e-05
6.5321e-06
-7.85533e-05
4.01226e-05
-0.000162715
-5.90577e-05
-4.21521e-05
3.37038e-05
-0.000214886
-0.000172808
0.000107003
6.58358e-05
0.000145168
-7.35747e-05
5.2264e-05
-0.000309096
0.000332061
-2.53878e-06
4.46824e-05
4.3274e-05
0.000271693
-7.82768e-05
2.58205e-06
7.56969e-05
0.000132032
-0.000292873
0.000162868
-5.26389e-05
-3.2862e-05
8.55029e-05
0.000160385
4.61601e-05
8.02421e-06
0.000250947
-0.000256324
0.00042608
-0.000300987
0.000257185
-0.000219175
5.14442e-05
-9.52817e-05
4.38384e-05
-6.54399e-05
5.69414e-05
8.49846e-06
-6.99645e-05
3.89685e-05
0.000146436
-0.000199395
5.30285e-05
0.000251762
-7.69398e-05
-0.000174504
-0.000125509
0.000122001
-3.03782e-05
3.07755e-06
2.86378e-05
2.07418e-05
-2.65292e-05
5.39955e-06
4.0859e-05
3.65632e-05
-7.7422e-05
0.000187652
0.00024001
0.000285189
-0.000282843
-1.9094e-06
0.000141655
-4.3777e-05
-0.000136261
-8.69778e-06
-0.000151407
7.68278e-05
2.50381e-05
-0.000150529
0.000288833
-3.27614e-06
-0.000332123
4.57096e-05
0.000216053
-0.000118822
-9.71698e-05
0.000138201
-0.000298318
0.000109456
0.000138849
8.14623e-05
-8.68161e-05
-0.00026249
0.000118072
0.000144587
-0.00012247
-9.64069e-05
0.000253532
-8.5952e-05
-0.000167402
-0.000160116
0.000249864
6.81574e-05
-2.55647e-06
-6.56009e-05
0.00022988
-0.000317733
8.80428e-05
-0.000299294
5.36323e-05
0.000246202
9.92527e-06
-6.9505e-05
5.958e-05
-5.48688e-05
6.38845e-05
-9.01569e-06
-8.34218e-05
-8.9352e-05
-1.04314e-05
7.01616e-05
-5.97287e-05
0.000134715
0.000132169
-0.000285396
-6.95378e-05
1.46691e-05
-1.54669e-05
-0.000313528
-6.18447e-05
3.44744e-05
2.73703e-05
2.44944e-05
-0.000102768
-0.000241588
0.000273945
-3.00331e-05
3.69146e-06
7.77715e-05
8.00725e-05
0.000139345
-7.94064e-05
-4.32708e-05
5.13848e-05
8.25077e-06
-5.94721e-05
-9.55249e-05
-8.31741e-05
5.76522e-05
2.55222e-05
0.000267036
0.0003235
-3.23645e-05
-0.000289473
-5.5592e-05
0.000272414
0.00010667
-0.000254345
0.00026146
2.34707e-05
4.05206e-05
4.79914e-05
-7.05206e-05
2.07418e-05
-4.60704e-05
-4.27111e-05
-0.000207631
-2.6617e-05
0.000234514
-4.76797e-05
5.75945e-05
-4.1068e-06
-0.000282112
0.000286653
-7.42399e-05
-3.80845e-05
0.000112332
2.51819e-05
0.000314021
-5.74789e-05
2.82654e-06
-0.000282714
6.29481e-05
0.000220042
-3.73691e-05
0.000124511
-8.34302e-05
-0.000150751
0.000252026
0.000107089
-0.000213177
0.000106195
-0.000282099
0.000282063
0.000133707
-5.06909e-06
-0.000128624
-7.59779e-05
-2.3465e-05
0.000310559
-1.5214e-05
-0.000286512
6.54934e-05
1.13293e-05
-7.68225e-05
-2.7402e-05
-3.82697e-05
6.56718e-05
-6.14465e-05
0.000161834
-0.000100369
-0.00010115
6.41367e-05
-3.96618e-05
6.6367e-05
0.000207412
-0.000122006
-0.000140289
-0.000165942
0.000230914
-6.47997e-05
-4.62184e-05
2.41034e-05
4.73319e-05
-0.000254672
-0.000187668
0.000124819
6.291e-05
3.84487e-05
-0.000302147
0.000264635
4.45611e-05
-8.29614e-05
3.84005e-05
-0.000213219
5.36642e-05
0.000159625
3.56698e-06
-7.83177e-05
-8.77063e-05
0.000130661
-4.29452e-05
-4.32793e-05
5.43625e-05
-0.000235086
0.000311632
-1.08586e-05
-0.000299771
0.000133703
-0.000178108
4.44389e-05
7.7826e-05
2.01154e-05
-9.79397e-05
0.000267914
-5.80965e-05
-3.59175e-05
-0.000125774
0.000319133
-0.000192998
4.32403e-05
3.55357e-05
-0.000154377
0.000262648
-0.000107838
-0.000367325
0.000376314
-6.7284e-06
0.000243151
2.19177e-05
-0.000107051
0.000125816
-9.95445e-06
-2.83229e-05
-3.77324e-05
6.60554e-05
-3.1261e-05
7.4502e-05
0.000252958
6.27903e-05
-9.39893e-05
-3.15803e-07
9.43095e-05
-6.8797e-05
-0.000107498
0.000176355
5.43975e-05
4.1468e-05
-5.00371e-06
-6.04361e-05
-9.97443e-05
4.23811e-05
6.76852e-05
-8.62329e-05
1.85492e-05
-0.000397457
0.000197927
0.000200898
-4.77293e-05
-3.47784e-05
4.58666e-05
-0.00015858
0.000349259
-7.03167e-05
-0.00027787
4.42618e-05
0.000144929
6.23427e-05
3.80845e-05
3.02674e-05
0.00026443
-0.000273255
0.000234659
-0.000283275
4.86641e-05
2.31764e-05
-0.000283319
0.000260978
6.79043e-05
-0.000101999
5.05802e-05
5.75087e-05
1.17669e-05
-6.92756e-05
0.000125036
1.15995e-05
-0.000136622
6.48679e-05
3.59411e-05
4.25929e-05
-0.000269961
-1.22284e-06
0.000271573
-9.42383e-05
0.000121055
-0.000155957
0.000118061
3.79313e-05
3.57654e-05
-6.86352e-06
-5.10015e-05
-0.000294107
0.000236531
-0.000129306
0.000240934
2.71306e-05
-0.000267483
0.000113139
-4.39611e-05
-0.000169183
9.8672e-05
-2.48246e-05
-7.38425e-05
5.3269e-05
2.02982e-05
-7.35671e-05
0.000109527
-0.000157575
-0.000147748
0.00028195
-0.000233252
9.7209e-05
0.000123116
-5.28551e-05
-7.02516e-05
5.38771e-05
1.8881e-05
-7.2758e-05
-7.95088e-05
-0.000108084
-7.78357e-05
5.57586e-06
7.22606e-05
0.000184291
-6.42238e-05
-0.000120023
0.000317064
-6.34817e-05
2.30366e-05
-0.000117021
-6.94845e-05
-2.16028e-06
7.16457e-05
0.00028423
-0.000173391
-0.00044688
0.00017765
0.000272667
-4.33071e-05
9.93777e-05
-5.60695e-05
-4.35991e-05
5.36029e-05
4.77021e-06
-0.000104894
-3.57205e-05
5.87856e-05
-2.99224e-05
-2.85643e-05
-7.38546e-06
8.5213e-05
0.000292874
-0.000302357
-3.90622e-05
-1.7495e-05
5.65573e-05
1.46587e-05
5.52156e-05
-6.98743e-05
-3.54092e-05
9.65592e-05
-0.000257203
1.12228e-05
-0.000164419
2.60348e-05
5.74827e-05
-8.35168e-05
-1.89589e-05
1.89589e-05
-3.9995e-05
-5.89612e-05
9.89626e-05
-3.02122e-05
-3.16324e-05
9.30818e-05
-0.000122263
2.91863e-05
-7.21411e-05
2.88617e-05
0.000131598
-9.67015e-05
-3.4878e-05
-2.69564e-05
-3.20908e-05
5.90472e-05
-4.72083e-05
0.000136245
-9.96169e-05
-0.000187035
0.000287206
0.00026768
-3.29678e-05
-2.89155e-05
-3.18995e-05
6.0815e-05
-2.37812e-05
9.45915e-05
-7.08088e-05
6.35931e-05
3.89217e-05
-8.87299e-05
0.000295565
-9.58629e-05
5.58737e-05
-3.24212e-05
2.24912e-06
3.7641e-05
0.000131648
-0.000132317
4.90098e-05
8.33261e-05
5.98815e-05
-0.000144253
-0.000278177
3.91832e-05
0.000218012
1.93199e-05
-0.000237205
-9.22411e-05
-2.3335e-05
6.81352e-05
-2.6415e-06
3.59062e-05
-6.48216e-05
-6.28357e-05
4.38388e-06
5.84518e-05
0.000145047
5.62161e-05
-0.000166527
8.01057e-05
-5.76305e-05
9.63981e-05
0.000248668
-0.000249669
0.000323626
-0.000314165
-6.79263e-06
0.000272576
-0.00031832
4.70662e-05
-0.000290616
0.000129139
0.0001618
8.46487e-05
0.000128086
-0.000249601
0.000121985
-4.78831e-05
-8.44129e-05
-0.00037039
0.000311849
6.22774e-05
-8.81335e-06
2.36898e-05
0.00033399
-5.9716e-05
-0.00026824
3.55894e-05
3.75688e-05
-7.31581e-05
-0.000288973
1.44692e-05
-2.24584e-05
2.64197e-05
-2.16102e-06
-0.00011098
-4.49377e-05
0.000185934
-0.000126247
-5.96371e-05
9.81155e-05
0.000218913
5.33514e-07
5.14703e-05
-0.000121084
0.000262925
-0.000302978
0.000288514
1.63863e-05
0.000152892
-6.14874e-05
-9.13734e-05
0.000193092
-8.40912e-05
-0.000108977
6.90896e-05
-3.4209e-06
-0.000235504
0.000239371
-8.05627e-05
2.7278e-06
0.000100239
-5.01481e-05
-9.81584e-05
0.000148378
2.15786e-05
-9.10621e-05
0.000103071
-0.000153146
-8.76419e-05
-2.43039e-05
-0.000233201
0.000119979
7.65581e-05
-4.23866e-05
-3.41713e-05
3.6025e-06
5.39062e-05
-0.000266323
-7.56909e-05
3.6458e-05
-4.01755e-05
9.37029e-05
-5.35252e-05
-0.000245639
0.000251045
4.40264e-06
-6.88007e-05
4.20601e-05
2.67406e-05
0.000318541
-0.000306315
-1.06182e-05
0.00031167
-5.78353e-05
-0.000247961
0.000121014
-0.000192607
7.1666e-05
5.21067e-05
-0.000302057
-7.41662e-05
-3.93664e-05
0.000113541
-1.50995e-05
6.89768e-05
-0.000319155
4.1972e-05
3.45863e-05
-0.000178029
-0.000217943
-0.000196484
3.56427e-05
-9.53492e-05
7.15696e-05
0.000294638
-3.22367e-05
-0.000253531
-7.11651e-05
4.44541e-05
2.67111e-05
0.000207322
6.19817e-05
-0.000269021
-0.000306888
4.66915e-05
0.000261471
-3.06288e-05
0.000333063
-0.000301121
0.000338458
-6.48815e-05
-4.27065e-06
0.000110101
-0.000105826
9.25348e-05
3.5212e-05
-6.25937e-05
5.28884e-06
5.73049e-05
-1.81529e-05
0.000127697
2.82296e-05
5.33882e-05
3.33805e-05
0.000131415
-0.000164759
0.000316183
0.000101734
1.05949e-05
-0.000112323
-6.32898e-07
-6.22028e-05
8.58258e-05
-1.81393e-05
-0.000128656
7.2368e-05
-0.00011487
7.1961e-05
0.000103227
4.69153e-05
-0.000150104
0.000208582
1.76715e-05
-0.000226065
-0.000101199
9.69326e-05
-0.000314822
0.000178099
0.000137145
-4.40614e-05
8.01066e-05
-7.16778e-05
7.6576e-05
3.32751e-06
2.88267e-05
-6.78889e-05
0.000260711
-1.34702e-06
-4.17657e-05
-8.68853e-05
9.41239e-05
0.000121989
-0.000289867
6.78653e-05
0.000222706
-3.23844e-05
-5.81117e-05
0.000342567
-0.000312666
-2.62001e-05
-9.73114e-05
3.82555e-05
-3.33913e-05
0.00024097
0.000244402
6.51967e-05
0.000116272
9.33441e-05
5.3624e-05
-0.000146951
8.59005e-05
2.42042e-05
8.19478e-05
-7.12002e-05
-5.03752e-06
7.6239e-05
6.38253e-05
-2.55325e-05
-3.82928e-05
-0.000127258
-0.000110113
2.51092e-05
-6.08297e-05
0.000377688
-0.000222334
-0.000154636
-7.31717e-05
-1.99308e-06
7.51663e-05
9.34459e-05
3.81696e-05
0.00024138
-8.83755e-05
0.000266711
2.23909e-05
-0.000131475
0.000120586
-0.000254992
-0.00015594
-4.50412e-05
-0.000260519
8.99439e-05
-0.000219636
0.000129848
2.20413e-05
-9.52112e-05
-8.69663e-05
6.21454e-05
-9.33838e-05
5.00777e-05
0.00013993
-9.1231e-05
-4.86789e-05
-5.83976e-06
0.000169799
-0.000160732
6.90326e-05
-0.000139483
7.0483e-05
-8.38103e-05
5.21077e-05
7.81466e-05
-0.000337244
0.00026251
-8.29206e-05
0.00013195
-0.000301426
0.000227375
7.43846e-05
-5.65999e-05
4.81133e-06
5.17888e-05
0.000254979
-3.93165e-05
-0.000215529
6.03631e-05
-1.30654e-05
-4.72975e-05
-6.07085e-05
-2.09144e-06
2.22384e-05
7.1389e-05
-2.22912e-05
5.84526e-07
-0.000162745
0.000130618
3.21512e-05
0.000154445
0.000195658
-0.000124149
-0.000166105
0.000247832
-0.000119392
-0.000128255
0.000287969
-2.89639e-05
-0.00027202
0.000106915
0.0002205
-0.000318521
8.07621e-05
-2.9317e-05
-4.05213e-05
-1.79654e-05
9.44341e-05
0.000116337
-0.00021065
-2.68731e-05
-4.42919e-05
0.000271461
4.60469e-05
-0.000186489
7.5811e-05
5.99147e-05
-0.000225288
3.45897e-05
-9.7434e-05
6.28476e-05
4.05887e-05
-6.11567e-05
-8.71822e-05
0.000181722
-0.000266483
0.000293723
-2.13899e-05
-6.87929e-05
7.23625e-05
-0.000288637
0.000293456
-2.14876e-05
-0.000232519
0.0001728
5.99022e-05
4.8871e-05
2.30626e-05
5.38861e-05
-8.38159e-05
2.99303e-05
6.36287e-05
3.30659e-05
-9.66929e-05
6.46731e-05
-8.31457e-05
8.52787e-05
7.25808e-06
1.13533e-05
-0.000262294
0.000200745
0.000148588
-0.000348003
3.91466e-05
-8.32072e-05
0.000257536
-9.41951e-05
6.91735e-05
2.50231e-05
0.000233951
-0.000157209
-7.65518e-05
3.9643e-06
-0.000181581
0.000177716
8.1414e-05
-4.45209e-05
-3.68928e-05
4.10959e-05
3.69384e-05
-7.8034e-05
-0.000257005
-9.96759e-07
-6.15969e-05
0.000128683
0.000125008
-9.41722e-05
-2.30297e-05
0.000117223
0.000117931
-6.05725e-05
5.4243e-05
-3.8253e-05
5.52777e-05
-9.01034e-05
3.48271e-05
1.6296e-07
-4.58427e-05
5.72603e-05
-4.73656e-05
0.000120412
-5.34147e-05
4.77039e-05
-7.80128e-05
3.0309e-05
0.000271532
6.55247e-05
-0.000328122
0.00028354
6.81849e-05
6.20786e-05
-0.000315992
0.000254705
-5.17669e-05
-2.53322e-05
7.71e-05
0.000107179
-7.92431e-05
-2.793e-05
0.000151475
2.8467e-05
4.30901e-05
-7.1557e-05
0.000186223
-5.12909e-05
-2.46095e-05
-0.000107417
-5.55411e-05
-0.000245519
-7.10999e-05
0.000251186
-0.000173916
0.00024232
-0.000194872
-3.31894e-05
-0.000272195
0.000323775
-4.40643e-05
-3.17125e-05
-2.76548e-05
5.78474e-05
5.21289e-05
6.13529e-05
-0.000113476
-1.01205e-05
0.000277107
2.65149e-05
-0.000286927
0.000125999
0.000317754
-0.000274692
-4.14381e-05
0.000183498
-6.24152e-05
0.000196933
-0.000228869
7.36519e-05
8.05342e-05
-3.63252e-05
-4.42088e-05
-0.000138727
9.08652e-05
-0.000116507
2.67531e-05
8.97578e-05
-4.27956e-05
9.49291e-05
0.000292918
3.21885e-05
4.24703e-06
-0.000105442
-0.000122205
0.000324177
2.28581e-05
-0.000107709
6.75359e-05
-3.18943e-05
7.09993e-05
-3.91049e-05
8.81116e-05
-3.00099e-05
-5.81007e-05
0.000246724
-5.35292e-06
-0.000116584
0.000206674
5.24555e-05
-7.52081e-05
2.27529e-05
3.43092e-05
3.45715e-05
-6.88806e-05
4.30714e-05
6.73914e-05
7.70823e-05
-0.000144468
5.6426e-05
6.66981e-05
-4.09777e-05
-2.85601e-05
-0.000133752
5.09522e-06
3.27427e-05
-9.03693e-05
2.7006e-05
4.92471e-05
-7.96024e-05
0.00011609
3.70105e-07
-3.21973e-05
0.000136285
-0.000180176
3.67472e-05
2.82765e-05
-6.50236e-05
5.0901e-05
1.72565e-05
-7.63494e-05
-3.50494e-05
0.000111407
3.64299e-06
-0.000295767
0.000292562
0.000261186
-0.000153361
-0.000107492
5.72933e-05
0.000126918
-0.000184188
2.70805e-05
-5.50311e-05
-0.000234481
-5.47064e-05
-6.42416e-05
9.62049e-05
-3.19613e-05
0.000330336
-1.55812e-05
-0.000312416
0.000237629
9.3217e-05
1.63326e-05
-0.000109544
-0.00029815
-3.57288e-05
2.07259e-05
0.000285242
-0.000304161
0.000250178
1.35789e-05
-8.20474e-05
0.000206799
0.000250045
-5.88583e-05
-0.000184794
-0.000176738
-0.00013763
0.000290756
1.20443e-05
-8.32432e-05
-7.03534e-05
-2.72016e-05
9.75609e-05
-3.09058e-05
-4.66058e-05
-2.04916e-05
0.000156699
-8.6766e-05
-6.99185e-05
-2.75117e-05
0.000292021
-0.00026422
9.43464e-05
-0.000109812
4.12161e-05
0.00014817
-0.000178755
3.06332e-05
3.92023e-05
0.000293251
0.00015891
-0.000256346
8.81135e-05
-3.64852e-05
-1.49383e-05
9.12942e-05
-7.63468e-05
0.000157325
7.37527e-05
4.18875e-05
-6.80568e-05
2.61693e-05
6.67327e-05
-0.000146318
0.000135092
-0.000280013
1.04522e-05
6.95094e-06
-5.46115e-05
3.18336e-05
0.000117182
-0.000153215
3.60531e-05
1.24559e-05
-0.000251432
0.000245723
-2.66954e-05
7.7995e-05
-5.12973e-05
-0.00015849
0.000149278
1.22867e-05
-0.0001451
-5.12946e-05
-0.00016014
-0.000113876
0.00027728
8.92321e-05
1.04092e-05
-9.96394e-05
3.61954e-05
-0.0002746
2.37893e-05
0.000256317
0.000258878
-0.00025344
7.45981e-05
1.71229e-05
-9.17194e-05
-1.42691e-05
0.000326771
-8.34264e-05
5.03212e-05
3.31058e-05
4.10436e-05
-6.58179e-05
2.47743e-05
5.74108e-05
0.000106973
-0.000164346
0.000261944
0.000152638
-0.000222894
7.06578e-05
-0.000314862
0.00015838
-4.99765e-05
-3.0041e-06
2.92433e-05
4.31431e-05
-8.98942e-05
7.23103e-05
9.10908e-05
0.000190763
-0.000281353
-3.20592e-05
-3.67415e-05
-2.18232e-06
-2.44741e-05
-0.000256345
0.000286163
6.12236e-05
2.34662e-05
0.0003402
-0.000325556
-1.22384e-05
-3.95748e-05
-4.40867e-05
0.000264882
-6.19542e-06
-0.000249641
-0.000205257
0.000121355
8.39512e-05
4.19203e-05
0.000352606
-6.1049e-05
-0.000290529
-0.000142394
-0.000145323
0.000289281
-0.0001541
-7.62738e-07
6.85862e-05
-2.87637e-05
-8.62542e-05
0.000306499
-0.000173229
0.0001773
0.000123992
-7.68611e-05
-4.71293e-05
-3.48769e-05
0.000171228
3.15372e-05
0.000236588
-0.00026349
6.39541e-05
8.8967e-05
-0.000180243
5.43225e-05
0.000121228
6.49349e-06
4.89876e-05
0.000184899
4.905e-06
0.000143304
-5.57376e-05
4.26722e-05
0.000118226
-0.000137392
1.91868e-05
0.00031858
-0.00028069
-3.70297e-05
0.000110284
-0.000110595
0.000142821