/*--------------------------------*- C++ -*----------------------------------*\
| =========                 |                                                 |
| \\      /  F ield         | OpenFOAM: The Open Source CFD Toolbox           |
|  \\    /   O peration     | Version:  v2012                                 |
|   \\  /    A nd           | Website:  www.openfoam.com                      |
|    \\/     M anipulation  |                                                 |
\*---------------------------------------------------------------------------*/
FoamFile
{
    version     2.0;
    format      ascii;
    class       volScalarField;
    location    "450";
    object      omega_0;
}
// * * * * * * * * * * * * * * * * * * * * * * * * * * * * * * * * * * * * * //

dimensions      [0 0 -1 0 0 0 0];


internalField   nonuniform List<scalar> 
18758
(
0.118127
7.17513
0.0214725
3.81733
6.22447
6.23245
7.409
0.0217129
0.294816
0.027831
0.0236857
9.74067
0.0220466
0.175255
0.0230841
0.622382
0.0417376
0.0219429
0.0219303
0.0310547
7.51945
0.0222711
5.36278
2.73532
2.10636
0.0217171
1.7077
6.12428
8.56408
4.06743
0.0695728
5.71411
0.0221819
0.0226896
0.141994
0.0221716
0.0222265
0.022008
0.0222671
0.0451312
0.0220053
0.0266504
0.0216474
0.0262069
2.03423
0.0216171
5.09004
0.0239889
0.027382
0.021615
0.139732
6.20258
0.0215427
0.0234566
5.92616
10.2627
0.0222172
0.342017
0.0219362
0.194979
0.0969095
6.35607
0.126971
0.0228582
0.0215523
0.0220142
0.0462904
0.0221775
0.0219284
6.1039
5.8443
0.0223203
0.0216215
14.201
0.0216862
0.0219297
0.275706
6.21141
0.08812
5.03819
5.68153
4.51176
0.194803
6.05701
0.280638
0.0303881
22.5989
0.125615
5.91317
0.0219292
5.84271
0.0219373
14.1727
0.0270829
5.59285
12.8199
0.275159
0.0216852
0.0218893
6.34331
0.0325355
5.55217
0.092853
0.0470373
7.52939
2.85554
4.98565
6.3606
0.0226409
0.0223018
16.2566
10.5975
0.0217571
0.022051
7.21131
10.763
8.58212
0.0230836
7.32189
5.34499
0.0384009
0.021959
10.5306
1.38841
0.562266
1.96206
6.57529
1.50062
11.4382
0.022043
0.0433189
1.55466
14.5429
0.0492586
4.85125
0.023873
0.269182
0.0472032
0.0218872
0.0778699
0.0882954
0.237865
0.0219644
13.9117
0.0220096
0.0220182
10.3017
6.73402
0.0684444
6.83019
3.58724
1.69682
0.0303309
0.0222708
4.91558
0.0281718
6.44072
0.0239981
0.0221743
0.0222888
0.0218043
0.19255
19.2513
0.0221679
0.0964824
8.36726
0.0219754
11.0569
0.221057
6.40534
5.17392
0.0219378
18.794
6.14259
0.192228
2.27195
7.75375
0.0229565
0.0759944
0.022122
0.0217953
31.5154
1.25483
0.0216493
0.0252091
0.712493
0.021911
9.00853
0.0216321
0.0219245
0.0495643
1.04328
0.022422
0.0645366
0.0339982
0.128032
0.0316924
0.255555
0.0221483
0.0216407
0.073377
0.0239308
0.0368247
0.089846
0.0220351
0.0335459
0.0964572
0.0222788
7.90277
0.0274218
0.02193
0.0495285
0.0222119
0.0365477
0.0771486
6.02059
0.0828411
0.549355
0.0216323
6.3208
0.0219298
0.0226587
0.239286
8.08106
0.271118
0.0946235
0.0601787
0.0465619
0.0216064
0.0911744
0.0220078
0.12726
5.01756
0.284087
0.0220629
0.0219132
0.0216082
0.0216419
10.9847
0.0368524
0.0218316
0.859141
5.08898
0.0230127
6.79597
38.662
0.281752
0.0221782
5.63054
0.0297593
0.0221521
10.3936
0.0304601
0.0302568
0.0225312
0.0417743
0.655416
0.68088
0.0356618
0.084985
0.0216661
0.0756762
0.0220331
0.0889113
0.0269639
0.237096
9.87102
0.0216372
0.0225244
0.438127
0.0224556
0.0249678
0.0894905
8.65545
10.6563
0.0219562
0.123086
27.1741
1.93166
0.0226152
0.0217409
0.0293393
0.0370574
0.0219563
24.1046
0.657521
4.11441
34.3449
5.30201
0.0216282
0.0214655
0.0515284
6.75906
0.02558
0.0852745
0.120376
0.0293117
5.39762
0.0218959
0.559044
6.15259
0.0216294
5.50794
0.0376858
0.0219552
0.0332206
0.0901805
0.0228276
0.0221564
6.57062
3.49248
0.0219261
8.28559
5.38243
0.250361
0.0220195
0.0221218
0.755995
0.0229837
0.0216441
0.0217718
0.0230143
0.227187
0.091648
0.0293052
0.035849
0.0311993
0.0494901
0.0216509
0.0222785
1.36171
0.0556467
0.131832
3.7601
0.0259729
0.0223695
0.0220841
0.542303
5.69745
0.0216192
0.0219174
0.0216212
0.0237588
0.0441224
1.39826
0.0219593
0.0221992
0.0216051
0.803107
0.215754
0.186807
0.155505
0.0228626
0.912707
0.111358
0.0376321
0.0314563
9.01733
7.17471
1.06458
0.0220472
0.0332427
8.82342
8.42409
0.0249858
0.0216325
0.0610585
0.0219618
0.0303519
8.47829
3.57569
0.12132
0.0304774
8.23122
0.0219813
0.0239167
0.0218909
0.0222746
0.118799
0.0240717
7.41226
0.273399
0.0224542
0.0219308
7.37231
0.119077
0.286691
0.0219805
0.0541879
0.0217307
0.0260512
0.0219592
0.0216467
8.91085
7.27531
4.01292
21.1544
0.0219126
0.253442
4.96903
0.0426714
0.0217514
3.77481
0.02177
0.0220671
0.0217909
0.122717
0.0219516
0.0260836
0.144233
9.92521
0.0217579
6.094
0.0490084
0.0220255
0.0257708
0.0219535
0.0219192
0.028593
0.0707026
0.0488502
26.6947
0.040014
0.0220456
0.393309
5.86214
4.76013
5.32564
0.113908
0.0225445
0.0216472
0.021835
0.0222311
0.12099
0.0430683
0.0322776
0.0362791
0.0303686
0.691924
0.0944878
0.0219477
0.0348446
5.42372
0.0228446
3.56495
0.0222054
0.0220825
4.91085
0.028096
0.0224537
0.647206
0.145689
0.0506761
10.2086
0.0219349
0.0226562
0.744056
8.56911
0.0360541
0.0722971
0.180404
0.562503
25.9383
0.178333
0.0222928
0.143636
0.0220488
0.123098
0.0231438
12.5009
0.0534014
6.19325
0.0321562
0.0783636
0.0216304
2.7825
0.0216277
9.36016
0.0218949
0.357359
0.0220585
0.881274
0.0313386
0.0220887
0.0218948
0.0217827
5.27909
12.0202
7.25654
0.0457259
0.0246205
0.0908878
0.0222702
0.0222874
6.27052
0.0218956
0.0220628
0.122706
0.0220414
0.0703944
0.0904627
0.0220584
0.0219485
0.0279497
0.0227503
0.0287277
6.72571
0.0312586
0.0357209
0.02675
0.0220497
3.6918
0.0223367
0.0226469
3.59046
10.3271
0.0743685
1.36914
0.0252007
0.0226168
7.49723
0.0219545
9.49208
0.325894
0.0220827
6.72564
1.34031
0.0619715
0.0218615
0.0530566
6.07122
0.0220107
0.0218653
0.0231419
0.022815
0.0220358
0.0216997
0.0222939
10.438
0.0252153
8.2815
0.0219642
0.15971
8.44308
0.0220388
0.0216391
0.0251649
0.0221291
0.0226854
0.0233169
0.02211
0.123683
0.803478
0.0215411
6.11883
5.58754
0.0355302
0.142221
4.36032
0.0264236
0.030503
0.0284327
5.95373
0.0251141
0.0460824
0.0220044
7.32965
0.0426743
0.217362
0.155638
7.19814
0.0250534
0.0219269
0.0604568
1.59962
0.0226216
0.455023
0.0222319
5.4926
0.0227785
0.0217917
0.021779
0.0220474
5.64748
5.56414
0.0219942
0.289183
0.0306585
4.70826
7.91445
0.719353
4.63361
0.0219008
6.34293
0.0636404
0.0219881
0.0473339
6.13459
6.212
0.0226689
0.0225631
0.0220159
0.0215083
6.96389
0.12218
5.9977
5.09685
0.0220293
0.0221402
0.0604468
0.0222811
0.0218065
0.0232925
0.0229472
0.126175
0.0418719
0.218094
6.38248
0.0725712
0.0220651
0.0274926
0.12036
6.3468
0.0440004
7.79708
0.0535154
0.0219988
0.2821
4.90591
0.0224812
0.0216388
0.148357
5.74533
0.244628
0.022042
8.97977
31.7092
2.24796
0.0216085
6.67385
6.76739
23.1009
0.024068
0.0221965
7.44699
0.0222945
0.207598
7.22375
0.230665
6.2959
0.0913024
5.36126
0.0721131
0.0220959
0.0225441
6.42597
4.19981
8.06182
3.60277
0.0219537
0.208086
0.0222772
0.061004
0.0927052
0.131911
0.0220873
0.0252182
0.240801
6.04581
5.95573
9.38702
0.0388686
0.0325778
0.287159
0.0222354
0.0217073
0.0219547
0.0254936
0.0729408
0.0220361
0.0863521
0.0218518
0.0220721
0.021905
6.2062
0.0223242
0.0222696
0.0566875
0.0537349
0.0215459
11.6252
0.0219633
0.0217014
0.05603
0.0368402
0.0248336
0.0228886
5.63288
0.0358977
0.0346532
4.85719
0.0346798
3.91586
0.0259954
0.123818
28.1603
9.06202
0.0216309
5.96863
1.9215
0.0216859
5.81062
0.0220653
0.021892
0.0399823
0.0219509
0.109139
6.22949
0.021626
25.6475
0.0218754
0.0381817
4.19945
0.0215257
5.70439
0.0235439
0.0219836
0.0219156
0.0219511
0.258473
0.0730134
11.9936
0.0746316
5.99274
0.0604476
0.0220378
0.260994
8.24458
5.5375
0.0758224
0.186037
0.0625232
0.0266951
0.256197
0.0227139
6.19359
0.0220346
5.73992
0.0227576
0.0757992
0.0279883
0.0223436
8.65176
0.0225631
0.0218138
4.92774
0.0235825
0.0219077
0.0451383
0.0895387
0.267445
2.70248
2.43183
5.67413
0.0221327
0.022205
7.29266
0.0219941
0.868643
0.0982372
0.0237699
0.0220616
0.0328282
0.0219881
0.0219469
0.0289792
0.694238
0.216995
0.152953
0.0627361
0.0221326
0.0612396
7.72295
0.0218609
0.0932152
0.0239131
6.17791
0.0232464
5.35646
0.0220293
2.20618
0.0222766
0.0879362
0.021992
0.0251651
0.0296836
0.0215306
0.0216845
0.0215817
5.45137
33.3772
0.0327801
5.90001
0.0220046
0.0425415
0.0281932
0.310974
5.30025
0.0328806
0.0215388
0.222742
0.021854
0.022004
0.0282197
9.63887
9.47155
2.77707
0.808895
0.0737627
0.0229426
0.0218932
4.49637
0.0218953
4.75239
0.0276841
0.0221855
6.65989
6.76767
0.0220903
10.2196
0.027091
0.105723
0.0966646
1.2757
6.63747
1.16445
0.0219984
0.0215015
6.38742
0.0219646
0.021927
0.0283469
0.0219817
5.05735
0.260734
0.0608168
5.38602
0.0498013
0.137259
0.023826
0.021991
0.0215348
0.0217812
10.6042
8.09776
0.292773
0.0220576
0.021532
0.0301985
0.0218401
0.0405664
0.0256848
2.97609
6.38804
0.0861203
0.300235
0.303695
0.0218884
0.245219
0.0218963
5.34743
1.77944
6.23225
7.70595
0.0229937
0.0290528
5.12812
5.34447
6.98485
0.0450412
0.128393
6.21696
0.0220478
0.28738
1.5745
0.125886
0.022042
0.0219726
0.0418551
5.17616
3.10434
0.0964143
0.0219673
0.024816
0.028896
50.2223
0.0222824
0.620543
0.0218878
0.0227385
0.203509
0.021863
0.0220243
0.0232546
0.0270234
0.0219773
0.0226941
0.0216111
2.05426
0.343422
5.21003
0.0216324
0.04957
0.0220138
0.270667
0.277626
0.0370006
0.0218914
0.0228521
0.590074
0.138967
0.02911
8.64624
0.121845
0.0219432
0.0220288
4.04415
6.07323
0.0621395
0.0216161
0.558663
0.0221256
0.0364565
0.0216661
1.27514
5.00739
0.0218603
0.0220175
5.84621
0.0219343
6.54177
8.34632
0.06055
0.0222566
0.0221658
0.0216617
0.0220357
24.6575
10.2671
0.137862
0.0228576
5.35406
0.0219441
0.0219262
7.67745
0.0217498
6.47666
0.0215114
0.0288362
0.0233033
0.0219306
0.0218412
0.0221205
5.34314
0.0224808
0.0221942
0.153475
0.0422439
0.0219736
0.0592059
0.0368458
0.0221259
0.278579
0.0219783
0.0369934
5.45184
0.094542
0.0219546
0.287457
0.0949405
0.0890342
0.0265728
0.0665657
8.57211
0.0244483
0.0609426
0.0219509
0.0215875
0.0220099
0.0434918
0.0366273
0.0464098
0.0218643
0.027544
0.0637108
6.20465
0.288469
0.0219214
0.0217814
0.0228352
0.102172
0.0218121
8.54337
0.0219586
0.0219573
0.0217804
0.425082
5.39827
0.0221548
0.0236002
0.0218838
0.10023
0.021808
0.0219566
0.694176
0.0222704
0.0215919
0.0221308
0.142076
0.0217945
0.0218762
4.78713
11.2954
0.604047
0.0433288
5.50863
0.0498597
0.0219533
0.0219013
23.4455
0.0219583
0.0706099
0.0897259
0.0422409
0.0267048
0.022331
0.0305991
0.0228629
0.0216231
0.212198
6.35972
0.0433511
0.0217866
6.44865
0.0462793
6.67923
12.9486
0.103594
0.0221402
0.0219272
0.0218286
0.0612603
0.0221265
0.0218389
5.72294
0.155091
0.0421728
0.0219029
0.0667221
0.288006
0.0220967
0.026407
0.0361718
0.144481
0.0759097
0.0220255
0.0233854
0.038244
0.0218203
0.0490304
0.0223155
10.0441
0.060606
0.132273
0.0217806
0.037304
5.43833
3.93399
1.02066
0.0628126
9.53395
0.0221298
0.0219546
0.0226776
0.0914119
0.0221696
0.023419
0.0307404
0.0607523
0.0220033
0.0219558
0.0220159
0.022277
0.319454
3.62393
3.3762
0.0219986
8.67259
0.0296424
0.0221551
0.0322518
0.0218769
0.0907969
0.0229857
0.0219668
4.83822
34.474
5.17908
0.0223556
24.4768
0.0219647
5.1449
4.89173
0.0215418
0.0628563
0.278836
0.0216227
0.0219639
12.115
0.0222665
0.0220222
0.187383
1.57104
0.0220298
0.0314134
0.0221507
0.0251982
0.138211
0.0221669
4.99271
0.0444589
0.0219614
1.57653
0.0597679
0.0841488
0.0222882
0.294444
0.0220583
6.23525
0.0219678
0.0217717
15.084
0.021702
5.35337
0.0219668
0.0557981
7.65393
6.11836
0.021993
0.0223331
0.0220313
0.0232339
0.0269115
0.0266631
0.0214871
9.10068
0.0218809
0.0219709
0.141698
0.20273
0.043402
0.0220293
6.45431
0.0899233
0.0223792
0.0351542
0.021913
0.0217595
8.01569
0.0216318
0.0217756
0.021817
5.53828
0.0218104
0.0218386
6.06508
0.0252368
5.93626
0.0326456
0.0215137
0.0218803
6.62677
0.0258882
0.0220092
7.49326
5.67421
0.0217922
4.95053
0.128456
0.0219261
0.0220134
0.312659
0.022221
0.679338
0.0333649
0.0220341
2.80622
11.2544
0.26575
0.0218896
7.00444
0.0299387
0.387307
0.826105
0.0219026
9.79615
0.022014
0.0318422
0.025959
6.02373
0.0216898
0.0223726
0.881556
0.0222733
0.0355126
0.0216966
0.0220967
6.32925
0.090107
0.0252269
0.0359977
3.8769
0.0223028
0.0233391
0.0570597
0.136842
0.0254046
0.0219518
0.021921
0.0221463
0.0225858
0.0218483
0.0338228
0.0275543
1.40425
0.02201
7.7229
0.021987
0.0283651
0.0219861
0.0361236
0.0220904
0.0219332
5.39153
5.06458
0.0240685
0.0220973
15.0334
0.0275969
14.9286
0.0365813
0.0712186
5.45309
9.59709
4.16238
0.0230098
0.0219929
0.0218033
3.93353
0.0218242
0.0220256
0.150566
0.0218472
0.022186
0.0220671
10.9965
4.1786
0.0221812
5.63404
6.30277
0.0239868
0.0219424
0.0221797
5.02222
0.0216821
0.0962052
0.0222883
0.0219858
0.0220687
0.0217599
0.0805517
0.0219708
0.0218958
0.0217805
0.0216231
0.302188
0.0216103
0.0218081
0.0221057
0.0219498
0.297481
0.58439
0.0587494
0.0226184
0.0219991
0.0221935
0.0222248
4.87952
0.0219332
0.0315117
0.0668885
5.20606
0.0219586
0.021918
5.05809
0.0221258
0.1025
0.0841347
0.0224317
4.94806
4.97701
0.0309434
7.74469
0.0282466
0.123429
0.0214864
17.6006
0.0220512
7.04951
0.0220535
0.0218434
4.1528
2.1555
0.417448
0.14776
0.0219073
6.92348
0.0221767
6.48453
0.0562724
0.0219353
0.0214885
0.0219023
0.0525193
0.0607969
6.01868
0.0407494
0.0218892
0.0219434
0.0219191
10.9564
0.184792
0.0333035
0.0221454
0.0219079
0.0302892
1.04644
0.0219283
0.0326366
0.0680528
0.021933
0.0238625
0.0231339
0.060598
0.151878
0.0244138
0.0778088
0.0215892
0.0220207
8.7848
0.0406002
0.0900558
3.67433
0.0216139
9.8608
15.0173
0.0503152
6.60195
0.0219378
4.90108
5.80788
0.110589
0.0217996
9.27041
0.145847
0.0219989
0.0390841
6.10758
0.0226741
0.0219793
0.0396388
0.0222713
10.3195
0.0306361
0.0220525
0.0222822
0.0218785
0.0675467
0.032277
9.11506
0.099011
5.2398
0.0758
0.0222611
0.0219402
0.611552
12.6874
0.021973
0.0218954
0.151017
0.022098
0.309039
4.99826
9.77926
0.0219521
0.0219726
6.67635
0.0217639
6.33231
0.516663
0.0217173
5.68585
0.0610358
0.0801746
0.0219762
17.1561
0.0220363
3.73266
0.0215057
0.0492352
0.0228369
0.0216921
8.01598
0.022706
0.0219663
0.0234077
5.5462
0.0220837
0.0216033
4.96225
0.0219014
0.0216582
0.0221232
0.0250314
0.0220621
0.022186
0.0279186
0.0221801
0.0264213
0.0215599
0.264359
7.14449
0.130586
5.37733
0.0279153
0.0263882
0.0218803
0.0218324
0.0221294
7.75833
5.00764
0.0219007
0.0222778
0.0219168
21.874
0.0215967
0.319772
0.514791
4.92713
5.27575
8.32944
5.19409
0.0216362
4.72442
6.07516
5.0748
0.026199
0.0221432
0.0418914
0.0216447
4.33201
0.128362
0.0616818
0.0269584
8.98374
0.0219966
0.0214833
5.16492
0.142303
0.021993
0.0215246
0.0436153
0.0221225
15.6372
11.1701
6.46505
4.09773
0.0821662
2.85488
0.0218274
0.292474
0.0221127
0.0219584
0.0216488
5.60837
0.0221522
0.0218264
1.76731
5.07781
0.245146
0.151135
0.0229412
0.0392996
11.04
10.6392
4.98545
5.35749
0.118255
5.31861
0.216208
1.15927
0.0535379
0.0397561
0.0218824
0.0361811
0.0316553
0.0220557
4.80882
0.0218128
0.0219888
0.0220056
6.55271
0.0256331
0.0218145
0.0218393
0.0219692
0.128424
0.0875944
4.03379
0.0227051
6.54193
0.0215165
0.0219185
0.0872339
0.0688863
0.0215014
4.88652
0.0411394
5.67332
0.0219917
10.1425
0.0614357
0.0219257
0.0220626
0.0219533
5.98072
5.92439
9.10056
0.0219862
0.0222541
0.0215774
5.75734
0.0282648
0.0220688
1.60609
0.0219335
0.02261
5.06077
0.0216
0.0219536
0.0220742
0.0221142
0.0214791
0.0224385
0.0215162
0.0222403
0.0820868
0.0400931
0.0218371
8.5905
0.023812
6.26304
10.1578
0.0505524
5.43319
5.72964
0.0218095
0.0412529
0.0220307
0.021844
5.98696
0.026224
6.63082
0.0273638
0.125063
0.0220795
0.0232887
0.0219143
4.92522
0.0432647
5.33926
0.022057
0.120929
0.0289763
0.0218031
0.0374259
0.0405424
0.0215469
7.90344
0.0221018
0.0403158
0.0220117
0.0305243
0.0492155
0.224485
0.0266144
0.0806185
6.70958
0.0303167
0.0385035
0.0215966
6.64368
0.0599161
0.0222715
0.0737014
4.21966
15.9833
0.0219734
0.0228945
0.0221728
0.0215841
0.0219288
5.16677
0.0284095
0.0220853
10.6698
0.0221161
0.0215905
0.0258021
6.24049
0.0221792
11.1924
4.30574
0.101607
8.44647
0.0226278
5.7923
0.608553
0.0216172
0.0289078
0.0220164
0.0223407
0.0386337
7.51567
0.0626913
1.09449
0.366506
0.0218968
6.69807
0.0219077
4.62504
0.022268
28.9979
3.98658
0.0221599
0.02176
0.0222787
0.0325896
0.088252
0.0219721
13.7752
0.0229867
0.0402464
0.0745578
0.0231012
0.0219234
3.60987
0.0217668
0.21907
0.0293595
21.6368
0.0221279
0.0218873
4.42424
0.021462
0.0217583
0.0225587
0.0607868
0.0526148
0.283667
0.0243339
0.0217639
0.0251701
0.0222671
0.022535
5.21235
0.0219425
0.0484563
5.46803
0.209682
0.0219501
0.0908277
0.0218644
0.0222088
0.417964
0.254073
0.0913155
0.0222394
0.0219505
0.024697
0.0883097
0.0218915
0.0294454
0.0218939
0.0222437
0.0218444
0.0220264
4.88007
0.0215558
9.97472
5.86846
0.0251205
0.0216833
5.07852
5.80392
0.0217971
0.0219746
12.939
0.0223217
0.0642231
0.217853
2.04093
0.0219161
0.0228147
0.049839
0.0219833
6.66261
0.200277
0.0218092
0.0311949
0.0383686
0.0220912
0.289149
0.0221534
0.0502393
0.0229079
0.0248754
0.0215295
0.0218962
0.291415
0.0219728
5.59895
0.066299
0.0219914
0.0219814
0.0219857
0.021868
5.07037
0.0222717
0.177948
0.0219065
0.0218548
0.0569073
6.06838
0.0217695
0.0215546
0.0219233
0.0225952
0.0301964
0.0303744
4.62116
0.0281966
0.0218417
0.16052
5.43801
0.0222749
0.0314192
5.08399
0.0361552
0.0224285
5.2159
0.021479
8.38985
0.0415819
0.0220692
0.0799841
0.0218655
0.0219211
0.0219163
4.16814
0.0220116
0.562352
5.44712
0.79021
0.0289007
0.0219667
4.91
0.0222779
26.1559
0.0217243
0.299184
0.0258153
0.0843056
0.022678
3.82792
0.0292615
0.0222245
6.1895
6.94064
0.0215576
0.565286
0.0219902
0.0310773
0.0217405
29.1284
1.34941
0.0223143
0.0220318
5.3909
0.281037
0.0218563
0.0234738
0.0220343
0.0218083
0.0217137
0.0240448
5.50793
15.8377
0.0224811
0.206258
0.023579
0.0650693
0.0220041
28.2693
6.03315
8.73639
0.0227271
5.40231
7.96563
0.0249421
0.0305621
0.021874
0.0484202
6.73906
0.0221732
0.021714
0.021767
0.0274501
0.0215843
0.0219857
1.74993
0.0231038
0.198712
0.0220184
0.0219734
0.0224668
0.0220444
0.193364
12.3676
0.0217899
0.0437268
0.0215399
6.05288
0.021816
0.0242721
6.29247
2.55094
0.0262347
5.1718
0.401065
0.0220675
0.0601989
0.0221181
0.0330675
0.0222351
0.0219256
0.164207
0.120912
4.88332
0.117387
0.0348739
6.89065
0.0231946
0.04229
0.022726
5.135
4.83784
4.06989
0.0219485
0.0215145
7.56985
5.60848
0.0221304
4.9728
0.0221389
0.0268827
0.0214911
0.0218766
0.0218125
0.0218366
0.259167
0.0407084
0.0386163
0.0219726
0.0220211
0.0216433
0.0218256
0.0218156
0.0222628
0.0219325
5.19205
5.23922
5.23476
0.0236524
7.53135
0.0579241
6.35344
7.64649
0.0578937
0.0221131
0.0222377
0.195246
0.022421
4.37897
9.64068
0.0225848
0.0216997
0.0304413
5.44753
0.0219987
6.12626
0.0218466
0.0221013
6.57071
0.021924
0.028729
0.022165
4.69416
0.0215766
0.0219358
0.246671
0.0216189
0.0220584
0.0218936
0.0217003
0.0675526
0.0218944
22.2778
0.0220244
0.0222172
0.0214703
8.46103
0.0342255
0.0222181
5.1924
0.0220883
0.0215532
0.231694
5.51954
0.0221048
5.97599
6.54587
0.0263658
5.21099
0.0221115
0.0219606
0.0916115
0.0216699
5.2818
5.61702
0.0214868
0.0259127
0.0218776
7.55032
0.803444
0.0447177
0.0221439
0.654534
0.0363361
0.0530519
0.0268283
0.022029
0.0225348
0.0218933
0.0218097
5.84163
0.0214489
0.0218114
0.0426253
8.96575
0.0805394
6.14813
0.0220149
0.041993
0.0218888
0.0219869
0.0220847
0.021762
0.0221525
0.0219119
0.0221016
0.0221725
0.0242402
0.0219884
0.0221442
0.0216829
8.37111
6.57747
0.0221921
0.0227481
5.71183
0.0222102
0.127761
5.1655
0.391024
6.59347
0.81797
6.70935
8.8703
7.32847
0.0217681
0.0302864
0.0218727
0.0502556
0.0246147
0.0222236
0.021789
8.95845
0.021629
0.0298709
11.8503
0.0215831
0.021729
0.0760709
0.0217013
0.0218948
0.0218853
0.0221728
5.40566
8.04249
0.0220389
0.0219362
0.0220583
0.0228803
0.0431846
0.0228844
12.8236
0.218663
0.022194
4.91891
0.0319677
0.0219341
6.85706
0.0215898
0.049718
0.0217731
0.0223911
0.0224139
5.12622
0.0219306
0.0219635
0.0238944
0.02231
0.0305827
0.0218207
3.7004
0.0401747
0.0441233
9.9667
6.75995
0.116621
0.032793
4.82723
0.0219965
0.0220052
0.0252412
5.27573
0.0513052
0.0493314
9.14919
0.021977
3.30057
0.249671
4.60973
0.0219995
0.0359945
0.0218711
0.131875
0.0334462
0.881907
6.81329
0.0220166
0.0357068
0.0277001
0.0219148
1.02645
0.0219624
0.0299164
0.152474
0.0909383
0.0219435
0.0222948
0.0222284
0.0570439
0.0219511
0.022183
0.0219576
0.0220788
0.0216594
0.0379364
0.0215436
0.812063
4.98897
0.022552
0.021755
0.0215522
0.0423884
0.0345977
0.022126
6.73621
0.0499374
0.0217698
0.0218168
5.1911
4.94828
0.0219386
0.208609
0.0349304
0.0220113
6.009
0.0226054
0.0739411
0.0222339
13.7099
6.71411
0.0222563
0.0355021
5.59946
0.0347784
7.53851
0.0222394
0.0254587
5.23491
6.86064
0.0252682
0.025418
0.0225652
0.0244157
0.0228494
6.38114
4.96173
4.79288
0.0234368
0.0219874
0.059267
0.0218979
0.262273
0.0247884
9.93071
0.0215713
0.0221891
0.0217553
0.0219006
0.0218441
0.0834315
7.39929
0.0299893
0.0216189
0.0221043
9.87907
0.0235674
0.0237982
0.0221554
0.0362126
6.686
0.0217038
0.0218571
0.0404461
0.0887723
0.0221143
0.0423233
0.0223186
0.0237107
0.128958
0.0287323
6.90815
1.40283
0.0478952
10.7629
0.0218561
0.0218973
0.0230778
6.04364
0.0232794
0.488289
0.0216948
5.45741
0.0363149
0.0218623
0.0300864
0.0223151
6.16386
0.0572868
0.0304601
0.253976
0.115915
0.0221508
0.0222003
0.0222283
0.0248428
5.38956
0.0519145
0.0221043
0.222934
0.0218461
6.08303
0.0219428
5.46029
0.0292871
6.22714
1.40515
0.0577521
0.0219599
0.0220061
0.0218678
6.75936
0.0219799
0.0518067
7.29679
0.0215313
8.07248
0.0328553
0.0219501
0.0792773
0.0219131
0.0218282
5.77617
6.6603
6.54238
0.0218899
0.0217632
0.0227804
0.0243083
0.0229413
0.0219443
10.6312
0.0781435
0.678092
0.0225197
0.0422866
2.06573
1.28351
0.0302367
0.0217593
5.91357
0.0229275
5.28738
0.0218834
0.022029
0.0219799
0.0217206
0.0215289
0.0222293
0.0217849
0.0368961
7.17746
0.0354348
5.11258
0.0250821
0.0222084
0.0221243
0.405607
0.0220242
0.0224971
0.0220464
4.84492
4.78557
0.0217805
0.0235683
0.0218623
0.0219715
0.0222784
0.0220652
0.0218932
0.902886
0.0222429
0.0217992
0.136889
0.0218241
3.79938
0.085207
0.0910907
0.220005
0.0240085
0.0220792
5.63457
0.022066
0.0760986
0.028742
0.0217887
0.0501072
0.0220657
5.75542
0.0216073
0.0217936
6.55044
0.0573112
10.1242
0.0217517
0.0965907
0.156536
0.031734
4.53941
0.021881
0.0217459
0.0216159
0.0901348
0.0227835
2.42792
0.0220073
0.0407522
6.1871
0.230832
0.0220164
0.85473
0.0253333
7.07638
0.0235545
0.0234102
0.0239755
4.81148
0.021961
0.0223403
5.0716
0.0215585
0.0262143
0.0218275
0.0466568
6.20252
7.33457
0.0218588
0.0961328
0.0220044
0.283516
0.0220164
0.0224268
0.0877602
23.0745
0.039347
0.0219971
0.0254266
5.36994
0.0590036
0.0864021
5.96085
0.0220256
11.2705
0.0229796
0.169728
0.0217882
0.0251012
5.6536
0.0254768
0.0219188
0.44542
7.47388
6.61838
0.0217027
4.75396
0.41192
0.0216129
0.155443
10.4465
0.0222781
0.0228305
2.14785
0.0214928
0.0224218
0.0218289
0.0220591
0.122476
0.0894873
0.0344236
5.36873
0.022271
0.0579605
0.0297391
0.0222041
0.0232803
0.0338018
0.0219971
0.0222271
8.03348
5.00499
8.61202
0.021677
0.0378435
0.0221361
5.06136
0.0220945
0.0418752
7.62717
5.56707
0.0671146
0.0219586
0.418841
4.64288
2.04354
0.0220028
0.0221256
0.0218323
6.18408
0.0379386
0.160672
5.73351
0.0220564
0.0222113
5.7261
0.0287241
0.091509
0.0221737
0.0218798
0.0219743
2.19379
0.0220177
0.052773
0.0217522
0.0221113
0.0217925
5.24989
5.49053
0.0238117
0.502865
0.0230062
1.01142
0.0219087
0.0218973
0.0885503
0.0220562
0.0219192
0.0254361
0.102437
0.0290653
0.133367
0.0220345
0.0693451
5.6156
0.0220968
0.0220217
0.0220121
5.47761
0.0453763
0.0470655
0.0901566
0.0217752
0.0218557
0.137039
0.0257634
7.43915
8.6557
0.0358713
5.29698
4.41367
5.86537
0.0558603
0.0223051
0.0220002
0.288095
5.1028
0.0218708
0.0380117
5.03602
0.0221072
0.23227
1.40679
0.140536
0.0219164
0.0891436
0.0221293
0.0221057
0.0216213
0.858955
0.022112
0.0520566
0.0366086
0.0219848
0.0221838
5.01738
0.0217802
0.0215933
0.0474171
2.46469
0.0370594
0.0220253
0.0398532
6.92142
4.825
0.0281968
6.3445
0.0848333
0.118398
0.0585472
0.0220972
0.151907
0.0330154
0.0216528
0.0217213
0.0223671
0.025832
0.304313
5.49828
0.0222182
0.661635
0.0756187
2.74773
11.8297
0.293748
5.08711
0.140865
4.94249
0.0501624
5.43517
0.0593801
0.0219745
0.0221269
6.17729
4.58936
0.124564
4.92686
0.0218175
6.44216
5.31552
0.0220371
0.0216461
0.0376246
0.0642106
5.63683
10.6967
0.111449
0.0218727
0.0218198
0.0222177
8.41383
0.0254843
4.43602
0.0245335
24.4555
0.208301
5.3324
0.0276242
5.45728
0.0218016
0.0215902
0.0258303
0.0221634
5.70554
0.13715
5.00127
0.0220594
6.48651
4.83828
0.0215452
0.0421559
5.656
0.0432821
0.0218705
0.0261282
0.021977
5.27011
0.021455
0.0223593
5.6191
0.0292257
0.048692
0.0277043
0.0218133
0.0221918
0.0417176
0.0220474
0.0216472
0.0218342
0.0300568
5.9869
3.34708
0.0219741
0.128545
6.51546
0.0221168
7.4595
6.81616
0.0220986
9.94859
0.0220763
0.10038
4.97744
0.0219637
0.0221663
0.0221976
0.0860236
0.026103
0.021859
6.37053
0.0219709
6.42105
0.0220405
6.20105
5.1509
0.0249897
0.0217381
0.172792
0.0831897
0.152265
3.99223
0.0440805
0.0222008
4.54371
0.0224611
0.0834566
0.0741611
0.0299554
0.0622899
0.0218762
0.131815
4.89145
5.98959
0.115817
0.0218766
0.216479
5.26302
0.0222719
0.20606
0.112202
2.61742
0.0219695
0.0250167
0.0214991
0.221447
6.73708
0.0853995
6.82403
0.0846636
0.0382827
5.51395
5.06833
5.35668
0.452467
9.56161
0.0719401
11.9285
0.0514508
5.69975
5.69219
0.0232873
0.0223266
0.0270333
0.0615319
0.021999
0.0261667
0.0222616
0.0242311
0.0220067
0.0218695
6.42162
4.99428
0.0222036
0.0518376
0.0221064
0.0217934
0.0236271
0.0830319
0.023431
0.0900258
0.0221901
0.0435827
0.434708
0.101853
0.0458521
0.0219767
0.0999719
0.0222202
0.021925
0.603576
0.0228512
5.86756
0.19028
0.0219305
0.024298
4.66646
0.0220768
0.0954314
0.0579803
0.0594033
0.0265248
0.0371676
0.0220123
0.0221679
5.56284
8.26894
0.0359491
0.0829881
0.0220382
5.3778
0.0255351
5.83806
0.0781677
0.0221102
0.0216801
6.85387
0.161412
6.54398
0.0280892
6.1243
0.0226547
5.84713
8.83664
0.0308425
0.146149
0.0218546
7.27129
0.0222327
10.4523
0.0287439
4.54731
4.94924
5.26658
5.62735
0.03609
7.78314
0.172601
0.0494775
5.32225
4.60164
5.33247
0.0217121
0.0258686
0.0742048
7.66482
0.0218781
0.0217883
0.0297686
0.0616218
10.6973
0.0588144
0.0451961
0.0219281
0.123947
0.0215426
0.203269
5.08688
1.13526
0.0217785
6.8517
0.0673738
0.0225362
5.69027
0.453276
0.0265092
5.36764
5.25383
4.6099
0.0558612
0.0218386
0.0289371
6.79525
0.0378853
0.0219802
7.33882
0.0214937
6.81693
0.0232215
0.0221559
5.78664
5.29936
0.0218351
0.0528807
0.0219503
7.19046
0.021505
4.59037
0.154204
0.0421987
0.0219079
0.0220063
0.0221604
0.0379672
0.051089
0.12427
0.029092
5.03435
0.033056
0.0253437
6.7366
4.40473
0.0216442
0.155125
0.0219572
5.70423
0.0220732
0.0429309
5.60116
0.0275555
0.0219273
5.50386
0.0222933
0.0222547
0.0465745
0.0222782
0.0218954
6.72307
0.062657
5.53274
0.0222786
0.123664
0.0860654
0.0216448
0.021924
0.0235968
0.0218453
5.49271
0.467059
4.37324
5.66218
4.41003
5.62632
0.0219177
0.0220094
0.0219418
0.0221496
0.109314
6.39657
0.0305035
0.0248405
5.04245
0.0222834
0.0217809
2.56079
0.136939
0.0214692
0.0219599
0.0218941
0.228192
0.021756
0.0219282
0.156287
0.0342758
0.119571
0.0238665
5.85321
6.43106
0.0214622
0.0217205
5.25193
0.0340315
0.0251203
5.86849
0.0361477
0.118224
0.548921
0.0234621
0.457869
5.3952
0.0215371
0.0257877
5.2878
0.0252203
0.0220143
4.88185
0.0565584
0.0535915
0.0221687
0.339093
0.0238158
5.23556
0.0220343
0.0219755
0.033465
0.0620392
6.16532
0.0361247
0.0219655
24.8382
5.47995
0.0240099
0.0759647
0.0220355
0.0218948
0.0217502
5.08402
0.0218523
6.86919
0.233819
5.62718
6.48446
0.0354705
4.64574
0.0331483
6.14295
0.879145
0.118871
1.21774
0.0768864
0.0931387
5.41788
0.0526305
0.0220043
0.0220616
16.0268
0.0402812
0.0230069
0.0221642
6.71028
8.88161
0.0220941
4.67778
9.75183
0.0639758
0.508021
0.040703
0.0403354
0.0413122
0.0986374
5.54917
0.0275377
0.20109
0.231861
0.0217601
0.120509
0.028027
5.99511
0.0681864
0.021962
0.232945
0.0639603
0.0773733
0.54688
0.022526
5.31484
0.198452
10.3226
6.81805
0.0221835
0.0220152
0.0218831
7.18337
5.38514
0.0830975
0.167143
0.0218502
0.0217334
0.0226137
0.0780348
3.93251
0.0535936
6.1181
0.0773926
0.375564
1.94382
0.0217616
0.0563284
8.37383
7.17011
6.64714
5.04331
5.30247
0.0222297
5.5022
6.21764
5.27336
1.76337
0.0219328
6.50014
0.0225718
5.31947
0.0273838
12.1093
11.3836
3.64928
0.0221566
0.0219753
0.0768415
0.0237853
0.127357
0.0222724
0.048847
0.0492429
0.0217983
0.0220021
0.0345919
0.0219295
7.42492
0.0218855
0.0230641
6.34672
0.0650313
5.83828
0.123762
7.81922
0.0219237
0.0219772
0.0222769
5.37328
7.57614
0.0220258
0.0505078
6.21531
9.03721
0.0218859
5.88221
5.25208
0.0218035
5.52091
0.0219071
0.0412779
0.0220124
0.06079
0.0220722
0.133233
5.87807
0.0218594
0.0221592
6.32095
0.0357732
0.0216977
0.0220981
8.95774
0.0218731
0.0221937
5.22606
10.2902
5.7238
0.092941
0.0219224
5.26766
6.45773
1.66988
0.0221662
0.0878513
0.0662705
0.0219592
0.255264
0.0218091
0.0218121
0.0218332
0.0571278
6.34042
5.90308
0.0425059
0.161842
0.0218759
5.63356
0.021822
0.0280609
0.0465337
0.0233628
0.0530754
0.0363933
0.0218638
0.111936
6.46241
0.0579861
18.6958
7.84481
0.0616862
0.0219618
0.0249833
0.250643
0.0295525
0.0221944
0.116774
7.98937
0.0217057
6.71242
0.0286195
0.0219683
1.05792
6.74993
4.98853
0.0219723
0.0268063
0.0249346
0.0551836
0.0500446
0.0218681
0.0219688
0.111496
1.1037
5.04226
0.0274585
0.0222788
0.0217436
0.179641
0.0220255
5.06526
0.0222729
0.0409211
7.7786
0.191858
6.86231
0.0220535
6.92249
4.80914
6.89455
0.0220038
0.0222309
0.0537708
3.78752
0.0218251
6.95862
0.0218683
0.0214939
6.55686
0.0221839
0.0567446
0.0279321
0.0228895
0.0317935
0.029355
0.0675266
0.0465913
0.039373
26.1839
0.168966
4.48344
0.0467967
0.034565
0.056456
4.79487
0.188769
0.0276762
0.0220812
6.53221
0.0226855
3.05732
0.19815
0.908138
0.0216907
8.34122
0.0220582
2.0101
0.022583
0.838608
5.51837
0.0496013
11.4357
5.35471
8.24663
4.90813
5.98523
0.0638097
0.0219393
0.0218018
0.807577
0.021806
0.021933
0.0219891
0.0404687
0.0233698
0.0345974
10.2068
4.785
0.13318
0.02765
0.0274385
0.0215736
0.0254879