/*--------------------------------*- C++ -*----------------------------------*\
| =========                 |                                                 |
| \\      /  F ield         | OpenFOAM: The Open Source CFD Toolbox           |
|  \\    /   O peration     | Version:  v2012                                 |
|   \\  /    A nd           | Website:  www.openfoam.com                      |
|    \\/     M anipulation  |                                                 |
\*---------------------------------------------------------------------------*/
FoamFile
{
    version     2.0;
    format      ascii;
    class       volScalarField;
    location    "100";
    object      omega_0;
}
// * * * * * * * * * * * * * * * * * * * * * * * * * * * * * * * * * * * * * //

dimensions      [0 0 -1 0 0 0 0];


internalField   nonuniform List<scalar> 
18355
(
2.26474
0.0204294
0.198177
0.02101
0.0494517
0.091852
0.0216503
0.0573896
0.0220043
0.366705
0.0258749
0.12231
0.129335
0.676832
0.0210861
0.0201941
0.0210065
0.0243086
0.153926
0.0225775
1.87043
0.021903
0.0204591
0.0806238
0.02047
0.0221777
0.0216844
0.0210156
0.0221915
0.0266839
0.168393
0.0407624
0.0203387
0.020065
0.0212571
0.0221081
0.0263064
0.0221843
0.0271675
0.0219159
0.022161
0.0264648
0.0200828
0.0204158
0.0204261
0.257997
0.0209928
0.0209822
0.199171
0.0212399
0.0208476
1.52897
0.0212851
0.132909
0.0212856
0.0225771
0.0212595
0.22852
0.0222538
1.04779
0.0200747
0.0862122
0.128656
0.0214913
0.0494652
0.0206447
0.0234322
0.0263245
0.0200221
0.556793
0.0209475
0.0212855
0.0348388
0.0253247
0.366536
0.020041
0.215358
0.0200505
0.0209189
0.311802
0.0234015
0.158764
0.0200323
0.024269
0.0415586
0.0217195
0.0222973
0.0343358
0.0208821
0.0343037
0.639254
0.39817
0.122688
0.0212342
0.415872
0.0217611
0.0208656
0.0213461
0.0703502
0.0218438
0.0394481
0.0208863
0.0211921
0.0195625
0.0236001
0.0202052
0.0488734
0.398308
0.0298277
0.020148
0.0208468
0.0214841
0.030705
0.0240885
0.279476
0.0266982
0.0208638
0.33935
0.0228003
0.0232717
0.440248
0.201183
0.690188
0.0392132
0.309154
0.27282
0.0216837
0.0210402
2.285
0.0216634
0.0208703
1.56387
0.0212762
0.0776794
0.0860409
0.0208712
0.160257
0.575182
0.0211937
1.00837
0.0244927
0.0397727
0.0209596
1.36017
0.0855596
0.0216526
0.827144
0.0196046
0.0305766
0.203894
0.0210086
0.0232107
0.0213965
0.0261867
0.020093
0.0205822
0.0210543
0.0217106
0.0209661
0.0206806
0.0247085
0.0212831
0.0201562
0.0296508
0.0258064
0.175662
1.01045
2.13068
1.44869
0.0244717
0.0213835
0.0720055
0.0215932
0.267198
0.0213316
0.0221232
0.0213982
0.0195242
0.0225428
0.0270513
0.0217654
0.163721
0.0217925
0.0210387
0.0340418
0.021181
0.0217684
0.0333244
0.0213465
0.0217725
0.260426
0.0707899
0.0204587
0.020054
0.0214086
0.281426
0.0205518
2.08263
0.0204387
0.687517
0.0211483
0.0232446
0.0274806
0.0216757
2.19309
0.0215791
1.11707
0.021034
0.0202903
0.0213196
0.0215738
0.0521771
0.0225378
0.0220223
0.019615
0.402217
0.0270925
0.0246602
0.0215978
0.0209967
0.0289649
0.0199726
0.0327997
0.0260085
0.0454523
0.0235391
0.0199943
0.571924
1.16485
0.0314761
0.0214189
0.0236126
0.233204
0.0199848
0.0298591
0.0442333
0.0219556
0.264407
0.0243629
0.0219693
0.0204552
0.0224566
0.021616
0.0302897
0.0215761
0.0212907
0.0209838
0.0505305
0.0588415
0.0210335
0.0217882
0.0564857
0.154154
0.0270733
0.0195297
0.0392163
0.0243369
0.0217485
0.0234302
0.0208126
0.199055
0.288918
0.0639717
0.0286358
0.0280426
0.0338853
0.0331695
0.0775129
0.0208049
0.0212921
0.0219326
0.0201456
0.0232345
0.0247991
0.0209768
0.021575
0.03074
0.020859
0.0696783
0.765365
0.0289112
0.0216025
0.0273947
0.0201354
0.0350791
0.0215274
0.0278202
0.0218758
0.0273233
0.292893
0.0203165
0.0426185
0.0226699
0.0235125
0.0348108
0.0213164
0.020039
0.0639789
0.0215733
0.0433243
0.0264134
0.421733
0.036103
0.0653363
0.0236961
0.0321268
0.021177
0.0236412
0.0281733
0.0424342
0.116782
0.261302
0.0210752
0.0238312
0.109308
0.0278987
0.0210706
0.0209743
0.0209951
0.0475103
0.259908
0.371913
0.184729
0.0303244
0.0242787
0.0509292
0.0196036
0.021557
0.0242299
0.021367
0.0315694
0.0211593
0.321995
0.020225
0.283227
0.0213523
0.0218657
0.024028
0.141679
1.94446
0.0303763
0.155378
0.0219402
0.0208919
0.0213582
0.0242859
0.369292
0.0209162
0.02148
0.0865615
0.021866
0.0209173
0.157103
0.0236887
0.0209896
0.0213101
0.0284738
0.022276
0.0283932
0.0200522
0.0214711
0.0218078
0.5949
0.0693845
0.0200295
0.0209446
0.0310103
0.0210028
0.0214971
0.0489586
0.0799254
0.0328534
0.0213424
0.0219995
0.130449
0.0219792
0.0433137
0.0236967
0.0202601
0.0288669
0.0345584
0.0217278
0.0213495
0.0243493
0.0214737
0.0234457
0.0214034
0.0550844
0.021635
0.0230311
0.0208991
0.0209965
0.023059
0.0221793
0.0648471
0.486667
0.0713553
0.0229338
0.153215
0.0266293
0.021371
0.0210972
0.0399273
0.021346
0.0337429
0.0215153
0.0272703
0.0522306
0.0471462
1.99249
0.0675367
0.0195725
2.65164
0.0218446
0.0209669
1.88876
0.0213164
0.0272248
0.0202803
0.0543127
0.0213115
0.0698979
0.462286
0.0593245
0.0212858
0.020459
0.0619921
0.0228034
0.0210435
0.314388
0.2287
0.0209611
0.0407112
0.0652233
0.020454
0.0221825
0.0292307
0.24014
0.0358661
0.0218672
0.021216
0.035485
0.0212951
0.0201902
0.0211897
0.0476408
0.498883
0.0202444
0.0221179
0.0214973
0.149052
0.0340633
0.0200363
0.0272395
0.0332743
0.0214791
0.286252
0.0859674
0.0218264
0.0214565
0.0346149
0.153943
0.241535
0.0202216
1.96728
0.0212387
0.0202364
0.0381423
0.0229067
0.0570716
0.0348993
0.0231434
0.0259114
0.0219124
0.153487
0.0229583
0.0275288
0.0219091
0.0201987
0.0217228
0.0202129
0.0849245
0.433015
0.0536509
0.0247534
0.0216273
0.0219082
0.0215489
0.0237362
0.0215566
0.0200273
0.0213856
0.0353642
0.0204623
0.0215234
2.11532
2.07266
0.113805
0.0216411
0.0219808
0.029329
0.0218758
0.165361
0.220199
0.023602
0.0243974
0.0257766
0.0222025
0.0233613
4.1308
0.0294407
0.0219237
0.389505
0.0215964
2.02146
2.75451
0.0247532
0.0221209
4.18972
0.0209832
0.0663134
0.0412206
0.367234
0.0229622
0.0217007
0.0214649
0.439562
0.205979
0.364353
0.448298
0.023432
0.0214545
0.0242693
0.0212984
0.0232939
1.70142
0.543612
0.482851
0.113146
0.026838
0.0381076
0.0319917
0.0210011
0.0211532
0.0279575
0.0239128
0.0215429
0.021296
0.373681
0.0208504
0.115755
0.0245699
0.0801741
0.13827
0.0211599
0.0240873
2.26358
0.0213803
0.554038
0.0212771
0.102255
0.029449
0.0219524
0.0317891
0.0774245
0.0686587
0.021866
0.0200089
0.033808
0.0249568
0.0802558
0.0213735
0.0867864
0.020842
0.214197
0.0213888
0.0211739
0.191495
0.0254819
0.0402349
0.0212059
0.024734
0.0231469
0.328359
0.379783
0.0239016
0.0326109
0.021265
0.0271986
0.021764
0.0237513
3.92895
0.0204187
0.0556576
0.0215722
0.0213413
0.023848
0.151763
0.0225585
0.070404
0.0220712
0.0346878
0.438345
0.0196106
0.0209913
2.17745
0.0334198
2.00913
0.035683
0.0217517
0.0213016
0.0209923
0.0253343
0.0220545
0.0201399
0.129528
1.64611
0.0211576
0.602514
0.318508
0.0250148
0.208375
0.0202056
2.07016
0.351974
0.0196737
0.4314
0.0377705
0.320914
0.392079
0.0211108
0.02099
0.0215745
0.0290157
0.0466509
0.0213062
0.021941
0.132675
0.0217936
0.0392332
0.0210908
0.0359218
0.543657
0.428862
0.0713644
0.408438
0.0348255
0.209212
0.0243965
0.0209253
0.0260145
0.389254
0.0261325
0.0442896
0.0212961
0.49789
0.0215146
0.0217998
2.13451
0.021717
0.0263549
0.0338078
0.061845
0.0214748
0.0212904
0.0237702
0.0251128
0.0199646
0.0216312
0.0333079
0.143423
0.0229905
0.0212957
0.0370685
0.471583
0.0212387
0.39497
0.283637
0.0214706
1.67813
0.0200006
0.200788
0.0213484
0.0203325
0.191553
0.0231556
0.176502
0.022882
0.0212924
1.69502
0.0213452
0.0201295
0.0215278
0.0209347
0.0267995
0.0327937
1.91995
0.0220498
0.594528
0.0229879
0.402791
0.756096
0.0222105
0.0213515
0.024728
0.0201385
0.110252
0.0211979
0.020108
0.0201386
0.0212947
0.0213699
0.22733
0.02519
0.0448308
0.0226116
0.0238062
0.0242978
0.0244508
0.312702
0.0204647
0.084685
0.0392019
0.0200073
0.612909
0.504073
0.0208265
0.37899
0.0212894
0.174194
0.0345736
0.0196577
0.0341739
0.0255684
0.388328
0.020904
0.0239986
0.456004
0.0727094
0.046627
0.021366
0.338908
0.0762116
2.09819
0.0213727
0.0227191
0.0210466
0.0214981
0.0210665
0.0211817
0.0204131
0.397979
0.0258323
0.0208924
0.0200571
0.0206478
0.0218274
0.0673867
0.0750986
0.0203099
0.0251275
0.0215629
0.021593
0.0215285
0.0209536
0.0347394
0.0200538
0.0208922
0.0217485
0.0216148
0.0230052
0.0215254
0.259037
0.224503
0.0239778
0.0208741
0.148229
0.0200986
0.0200614
0.0215128
0.0455381
0.0246939
0.0213801
0.0201624
0.0204484
0.0258021
0.0200139
0.0267745
0.021188
0.0217596
0.0210651
0.0226521
0.664327
0.0209173
0.0218541
0.0211883
0.170277
0.371784
0.0263647
0.0220536
0.0267309
0.0248228
0.0345563
3.81972
0.0217298
0.360541
0.0218714
0.101623
0.0220556
0.020271
0.0200628
0.459113
0.0200244
0.026619
0.0302799
0.168706
0.0372149
0.0223182
0.0210203
0.0210293
0.021225
0.0279981
0.103167
0.220362
0.0424512
0.0215334
0.0200107
0.0225495
0.0210666
0.0208231
0.0217847
0.0447453
0.0251235
0.0548353
0.0215281
0.0214395
0.033535
0.0213039
0.153603
0.0429271
0.0360101
0.137068
1.01117
0.0292577
0.0209906
0.0200192
0.0216766
0.0212825
0.536812
0.0461455
0.106817
0.0203027
0.0215944
0.0232129
0.0208428
3.7312
0.0967315
0.0200586
0.0200568
0.0209686
0.0210737
0.0209267
0.0213069
0.227546
0.0199711
0.0219574
0.0203118
0.0205893
0.0210754
0.0214787
0.0263509
0.0205841
0.0253021
0.0201555
0.083166
0.207431
0.0240496
0.0575027
0.0226473
0.0218829
0.0671272
0.339277
0.0214296
0.0207391
0.0204734
0.0269098
0.0219381
0.0292427
0.0335156
0.02152
0.0220273
0.0214866
0.101849
0.206061
0.0220682
0.0205951
0.0241676
0.0361669
0.0211462
0.0693489
0.0208409
0.0199625
0.0240749
0.502611
0.452911
0.229651
0.231093
0.0200499
0.0345176
0.0591338
0.0247308
0.0212168
0.0598982
0.0235863
0.188528
0.723137
0.0208595
0.0200599
0.0214834
0.0219389
0.0200633
0.0383704
0.258572
0.0201045
0.0215465
0.0219695
0.036133
0.0212576
0.0208874
0.0287332
0.0219525
0.0209097
0.129059
0.0934695
0.0846494
0.0212692
0.020234
0.0201197
0.0213076
0.0244648
0.0266766
0.0208811
0.0206241
0.0228954
0.351177
0.0204607
0.021418
0.0664127
0.0209265
0.020762
0.0213481
1.8663
0.0202134
0.0214485
0.0204638
0.0224872
0.0202259
0.0250905
0.144571
0.0214185
0.163565
0.0277118
0.206489
0.0548928
0.0209909
0.0253442
0.0208499
0.0207459
0.0210025
0.463551
0.380058
0.0309074
0.0264429
0.490907
0.0706943
0.0221884
0.099125
0.0503181
0.0232757
0.0200602
0.739212
0.0222098
0.0207338
0.0204067
0.24703
1.71294
1.78739
0.0207135
0.0922477
0.355016
0.0249424
0.0313361
0.0241779
0.0231955
0.0334109
0.0683203
0.0230805
0.0222491
0.0251728
2.87537
0.225545
0.0212463
0.0214652
0.0211002
0.32779
0.0237876
0.0219821
0.500137
0.0250918
0.0352526
0.0241702
0.228584
0.0206777
0.0966248
0.022053
0.0200619
0.0209922
0.0200383
0.0200728
0.0209042
0.0217261
0.219054
0.020525
0.0962948
0.0259983
0.0216767
0.0207498
0.0904856
0.0212007
0.021537
0.0232492
0.211407
0.0470862
0.0231433
0.0215355
0.321076
0.020673
0.0381561
0.0215188
1.71667
0.0320295
0.312515
0.0253821
0.0210417
0.0357236
0.184284
0.10481
0.0205601
0.021341
0.0364323
3.8135
0.0195698
0.0463574
0.0206111
0.0264725
0.0208716
0.0200448
0.0220463
0.0220994
0.0200204
0.0354231
0.0330808
0.0241727
0.134024
0.891221
0.022169
0.305158
0.0201024
0.10921
0.321086
0.162993
0.020021
0.0220431
0.0214983
0.27056
0.0212033
0.0208396
0.0906435
0.0215225
0.0215235
0.0221555
0.0220104
0.0212526
2.72592
0.406058
0.0626737
0.0207563
0.0214603
0.211244
0.0201018
0.10603
0.0216245
0.0214837
0.0219835
0.0234735
0.241835
0.0205875
0.0214759
2.09156
0.0216015
0.0217852
0.0364398
0.333713
0.0585836
0.0214294
0.0210826
3.27319
0.422479
2.24726
0.020917
0.033034
0.191918
0.020345
0.0337251
0.0230841
0.448103
0.0236001
0.021544
0.0221603
0.0200175
0.352869
0.0214662
0.0205018
0.36863
0.0284882
0.104939
0.0199928
0.0226008
0.0200406
0.0196417
0.0201975
0.0221793
0.0216221
0.0218786
0.0200271
0.0217655
0.0451217
0.027228
0.0249625
0.0206217
0.0239692
0.0210732
0.276462
0.0216649
0.022067
0.0215608
0.0200646
0.0218284
0.0210952
0.0211938
0.0212421
0.0208405
0.0202054
0.381167
0.343417
0.0212675
0.34996
0.033898
0.0217138
0.0216978
0.0221415
0.430137
0.0218207
0.0200945
0.0200968
0.0200305
2.17869
0.0212919
0.0202779
0.177113
0.0200172
0.0197374
0.0254942
0.0268069
0.0665408
0.140163
1.98292
0.0201165
0.992334
0.0247945
0.0212381
0.0204213
0.0240078
0.0212842
0.0277353
0.0576964
0.0233578
0.0219099
1.57918
0.0699701
1.95965
0.0822134
0.385886
0.0697233
0.0205185
0.220482
1.88809
0.020125
0.973593
0.0207101
0.0222987
0.139561
0.0207442
0.151345
0.0249248
0.0227773
0.0219917
0.0395585
0.0213763
0.10025
0.0212428
0.02018
0.430778
0.0197645
0.0216581
0.0218453
0.0515417
0.0212064
0.021444
0.0229073
0.309801
0.0212268
0.0212839
0.0202249
0.0235096
0.0211868
0.0222961
0.0615964
0.0209821
0.0257373
0.0217115
0.023323
0.0223931
0.0209428
0.0219124
0.0994315
0.0215958
0.0217045
0.0241652
0.229075
0.0222003
0.02113
0.0214259
0.0254058
0.0660176
0.022545
0.0210232
0.020976
0.0205645
0.0196273
0.0200497
0.025796
0.0290291
0.0538956
0.0215482
0.592544
0.0206547
0.0213698
3.78875
0.0444947
0.0199748
0.0756864
0.0215759
0.0210212
0.459211
0.0218712
0.0376355
0.0197414
0.149721
0.0205743
0.0200103
0.0202509
0.0472482
0.0727396
0.0215667
1.18446
0.02023
0.0209292
0.0207402
0.142996
0.0213035
0.0206568
0.0219423
0.0226604
0.0212735
0.0214597
0.0208012
0.0217793
0.0215437
0.0208494
0.0238627
0.0199984
0.850773
0.0654635
0.0202062
0.0695349
0.0254598
0.0209424
0.0206678
0.0219029
0.0207679
0.0283311
0.0245667
0.0418474
0.0415799
0.0217111
0.074236
0.150479
0.0212296
0.0217837
0.086419
0.0231881
0.22848
0.0202137
0.0211809
0.0224963
0.0216825
0.0210082
0.0255017
0.0209514
0.0215577
0.0212531
0.023107
0.020584
0.120707
0.0213561
0.0239551
0.0286458
0.0210335
0.448039
0.463
0.0231189
0.0261796
0.0268673
0.019885
0.0458182
0.0214428
0.0319455
0.5352
1.5493
0.0350893
0.0218237
0.0259604
0.0210173
0.0282049
0.0205288
0.320104
0.0284697
0.0215356
0.020811
0.0554479
0.0338636
0.0212306
0.0212298
0.31421
0.0216255
0.0206476
0.587578
0.0533475
0.0201152
0.893787
0.0203114
0.0402056
0.0561939
0.0212682
0.0214356
0.0230161
0.467152
0.0207971
0.0252355
0.0214406
0.0212758
0.0208315
0.613836
0.0218204
0.021421
0.0211205
0.213234
0.0254577
0.0208104
0.019781
0.107736
0.0211563
0.0204564
0.12344
0.896026
0.0219113
0.255576
0.0230879
0.0469373
0.0222817
0.0580167
0.454169
0.0218194
0.0211531
0.0203118
0.0238496
0.021211
0.530122
0.108834
0.0205316
0.0221815
0.0203372
0.020032
2.46907
0.0212188
0.0226358
0.0226426
0.0515226
0.0214557
0.0216918
0.0245767
0.450062
0.0214814
0.0214327
0.0204464
0.0205689
0.0236566
0.0446025
0.0215811
0.0211282
0.021301
0.0211174
0.0203207
2.68627
0.0217578
0.0210685
0.0210997
0.0598707
0.0203742
0.0204591
0.0331841
0.0209294
0.0414372
0.0212571
0.0214346
0.27855
4.42757
1.77093
0.0326393
0.0233914
0.021833
0.452409
0.020644
0.0246377
0.019995
0.488426
0.0195471
0.0237753
0.0214647
0.739394
0.0357483
0.0299061
0.379281
0.022376
0.0476609
0.0217192
0.0220198
2.56225
0.0334599
0.0211798
0.0203032
0.0233537
0.0262433
0.0214259
0.0213021
0.0206384
0.0199566
0.172781
0.339785
0.0217184
0.0224306
0.354495
0.871288
0.023007
0.0222785
0.022923
0.0241494
0.0212176
0.0222396
0.0986721
0.0209138
0.0203269
0.021514
0.0834603
0.216773
0.0248044
0.0215539
0.0216167
0.0255634
0.0213443
0.0253322
0.036988
0.0858979
0.0231158
0.358951
0.0201152
0.021234
0.021839
0.0199979
0.0215641
0.0208616
0.0370454
0.0210098
0.19214
0.0214089
0.0207234
0.020489
0.0246192
0.0224429
0.0437023
0.0517605
0.0201567
0.379144
0.0228351
0.020503
0.0198074
0.366683
0.20544
0.0198271
0.0208165
0.0207388
0.0222237
0.169452
0.0993266
0.0219964
0.0219512
0.14229
0.395218
0.02197
0.021217
0.243025
0.0235511
0.0337031
0.0235018
0.0211542
0.0614001
0.0275521
4.52622
0.029589
0.532712
0.0204015
0.0209321
0.0217264
0.021594
0.0234533
0.0216873
0.0215532
0.0207944
0.0217818
0.0216013
0.0211798
0.0215024
0.0227546
0.021936
0.0213399
0.0208252
0.0346355
0.023399
0.0209225
0.0215175
0.167088
0.0213648
0.0218264
0.021979
0.731132
0.0204605
0.0376917
0.0225699
0.0201824
0.0210767
0.334614
0.168614
0.0220073
0.021567
0.023472
0.0351937
0.0208752
0.0263407
0.0376386
0.0210577
0.103353
0.0208284
0.0213315
0.021011
0.0217542
0.0282719
0.0663743
3.12436
0.0266988
0.0201927
0.0214995
0.021133
0.0481814
0.0219325
0.348269
0.0208234
0.021372
0.021356
0.0746273
0.0209812
0.0215746
0.0212632
0.138577
0.020469
2.07467
0.0204276
0.0261355
0.0213239
0.0289898
0.0209936
0.0233747
0.541181
0.0440729
0.0202006
0.035406
0.0215142
0.0214333
2.30321
0.537008
0.0203217
0.0212493
0.023288
0.0202476
0.0211202
0.0218645
0.0216992
0.0234778
0.0517779
0.0221306
0.0257667
0.0399832
0.0217033
0.0209999
0.02118
0.0225073
0.0275442
0.0214284
3.95084
0.020675
0.446204
0.0369017
0.0201404
0.020733
0.0207118
0.0653826
0.0215225
0.0236977
0.0215107
0.0207869
0.534717
0.0226954
0.0270755
0.0216576
0.0214684
0.0226619
0.0212404
0.0226996
0.0213666
0.0222485
0.0219622
0.0218954
0.383779
0.0250138
0.452404
0.0209997
0.0251434
0.0224093
0.317098
0.0612377
0.877082
0.0225935
0.0199651
0.0407967
0.0209011
0.441271
0.0221263
0.0442562
0.022442
0.341587
2.16769
0.0233368
0.0271868
0.02075
0.0205348
0.0218901
0.0199201
0.0217272
0.0228651
0.0207869
0.0248054
0.0439071
0.314005
0.0209021
0.061488
0.0201009
0.0211943
0.0211603
0.0957054
0.0216553
0.0510132
0.0216937
0.0210902
0.517782
0.0208841
0.0235109
0.0210572
0.0234597
0.78688
0.0256862
2.71766
0.021272
0.0597334
0.0228437
0.0211223
0.0211621
0.0277261
0.0239071
0.0212769
0.0226773
0.0213248
0.380674
0.0207351
0.465998
0.215043
0.0675339
0.0249258
0.104523
0.0269253
0.0199193
0.192535
0.0211923
0.0922441
0.0218525
0.0225772
0.309655
0.306001
0.025864
0.123427
0.0213836
0.301461
0.0196139
1.69431
0.0201539
0.0222137
0.0444144
0.0215281
0.0207214
0.0219717
0.021269
0.0345325
0.302423
0.0310391
0.363188
0.0207744
0.62877
0.0214435
0.0216928
0.0210386
0.021227
0.432405
0.0216155
0.0205693
0.0363433
0.0218089
0.340966
0.0648157
0.0212687
0.0417638
0.0328596
0.02086
0.0214374
0.0238909
0.0203229
0.0557913
0.0271503
0.0227232
0.0228287
0.0204445
0.0213608
0.058593
0.0220187
0.0214481
0.0222445
0.0199116
0.02013
1.90011
0.0265961
0.446323
0.0262764
0.052692
0.0266912
0.0211181
0.025658
0.020462
0.0209831
0.220193
0.0238929
0.0239194
0.0453148
0.0218303
0.270097
0.895774
0.0210851
0.0240437
0.0382359
0.789304
0.0203127
0.0203138
0.0217094
0.027104
0.34429
0.0243882
0.0235288
0.021848
0.0211731
0.019952
0.0824826
0.0237771
0.022239
0.441446
0.0216359
0.022961
0.0243831
0.0214939
0.0212402
0.0210221
0.0538769
0.10477
0.0218941
0.0230532
0.29576
0.0209189
0.0219437
0.023361
0.0215915
0.402907
0.42395
0.0477477
0.074231
0.689861
0.0226672
0.0208476
0.0507915
0.0221436
0.0264394
0.0210423
0.0201863
0.33445
0.0736016
0.0210808
0.0207543
0.0265981
0.116315
0.0231401
0.02002
2.46167
0.0227974
0.0357006
0.0201381
0.0268431
0.0195839
0.0226869
0.0256388
0.0211731
5.45444
0.0219626
0.0342416
0.0971362
0.310272
0.0833248
0.0211971
0.0617749
0.0241734
0.0239522
0.0222296
0.0218636
0.0214492
0.022635
0.205083
0.0227709
0.251838
0.0207859
0.20612
0.0202929
0.0218925
0.23601
0.0242716
0.20297
0.0225292
0.0220937
3.62238
2.50637
0.02087
0.373319
0.0330202
0.0207221
0.0198493
1.78489
0.339505
0.0204598
0.0202775
0.021202
0.02023
0.444696
0.29803
0.019524
0.019797
0.0208662
0.227796
0.0470533
0.290424
0.02019
0.297839
0.0215936
0.0553899
2.70232
0.0240009
0.0205893
0.0205701
0.298974
0.0203425
0.0210595
0.0202028
0.0246473
0.02283
4.12475
0.0248345
0.0218097
0.0211978
0.0260807
0.19205
0.0404123
0.0211217
0.0208797
0.153854
0.0492816
0.0219915
0.660484
0.0281065
0.0229713
2.23286
0.0226762
0.0255528
0.0218199
0.0517309
0.0214265
0.0218151
2.18288
0.0270384
0.0210503
0.0213501
0.01959
0.0370481
0.110678
0.0209781
0.0202709
0.0221626
0.0675996
0.0221649
0.0202019
0.0212453
0.0207314
0.0236747
0.0414936
0.0214414
0.020962
2.38985
0.0211099
0.184123
0.0288136
0.0299362
0.0234421
0.0222075
0.0214812
0.307697
0.08132
0.0699206
4.41109
0.0282515
0.0208791
0.302242
0.0202134
0.0754796
0.387629
0.0235821
0.0211307
0.0234618
0.0744346
0.0212037
0.0210169
0.42661
0.0212651
0.0222973
0.0207907
0.0216879
0.02033
0.0585696
0.127948
0.0201405
0.0210242
1.035
0.021195
0.0201396
0.0209986
0.0208315
0.86366
0.0239155
0.0230513
0.0222727
0.021962
0.0203369
0.0360598
0.105118
0.0258247
0.248714
0.0224441
0.0235502
4.25713
0.0208902
0.020366
0.0210764
0.0208328
0.0218205
0.0197561
0.0221151
0.388432
0.0212013
0.0210952
0.0227523
0.0208167
0.375765
0.0216718
2.70537
0.180544
0.0268163
0.0288281
0.311264
0.0236768
0.0211783
0.0235164
0.0209513
0.0225736
0.0218547
0.0218037
0.295894
0.0202892
0.0213266
0.0400478
0.205519
0.021697
0.0208456
0.188956
0.0223904
0.0306542
0.0213104
0.0208571
0.0211176
1.77366
0.021462
0.202322
0.0507372
0.0216539
0.0208362
0.0210632
0.023836
0.292994
0.0201494
0.0377864
0.0211001
2.72937
0.223384
0.0220924
0.174104
0.0215488
0.0230664
0.0234599
0.274324
0.0235598
0.0259056
0.0264082
0.432692
0.0217041
0.0363665
0.0214529
0.0421283
0.146401
0.166214
0.0209583
0.0282424
0.305749
0.463184
0.0230555
0.0235388
0.341696
0.337302
0.020819
0.05518
0.0211935
0.0241193
0.0214857
0.022365
0.0222754
0.351051
0.0216655
0.0218097
0.0566484
0.43863
0.0497268
0.126962
0.454746
0.0207855
0.345239
0.0617433
0.0210507
0.0211231
0.381047
0.023483
0.021491
0.0212461
0.0359657
0.0206978
0.0212574
0.768814
0.0214643
0.0217442
0.0210413
0.0214026
0.0224973
0.0205071
2.52579
0.0237936
0.0231389
0.0204951
0.0287697
0.124585
0.0209075
0.0217006
0.315096
0.176183
0.0213526
0.0239315
0.0207093
0.0209355
0.0407844
0.165447
0.0209367
0.0210674
0.321366
0.496048
0.985715
0.0306907
0.0222742
0.34371
0.0207503
0.0244936
0.023716
0.020554
2.38089
0.95547
0.0369738
0.0294639
0.611384
0.019854
0.0197888
0.0228392
0.0315159
0.611522
0.0203349
0.0324007
0.965097
0.358011
0.0216381
0.0224433
0.265968
0.0209892
0.0236897
0.323202
0.0209643
0.0211981
0.0205095
0.273063
0.0208268
0.0239142
0.0219332
0.0420331
0.0275643
0.417666
0.0211877
0.0211362
0.028716
0.0217321
0.024349
0.0220871
0.104908
0.123996
0.0209926
0.0213506
2.88439
0.327332
0.729638
0.0207569
0.0213569
0.022651
0.021533
0.0212737
0.0214343
0.0210073
0.0218728
0.0206852
0.0207652
0.0540322
0.0233098
0.0267641
0.781935
0.0646965
0.0486708
0.0246499
0.0454635
0.140044
0.0291104
0.0231834
0.0258588
0.02107
0.262759
0.0200605
0.0202786
0.0206771
0.444052
0.0209044
0.448227
0.0217948
0.0201272
0.0409068
0.0211741
0.0211497
0.0211664
0.0283811
0.399748
0.021621
0.0205532
0.0225924
0.715174
0.0483459
0.336371
0.0210456
0.0331429
0.0214932
0.0215432
0.0201856
0.0207233
0.0213562
0.0228548
0.233496
0.0224671
0.0225274
0.122868
1.09829
0.131876
0.0208572
0.0981685
0.0321886
0.489695
0.0205498
0.0209606
0.0223702
0.431731
0.0197944
0.0213653
0.020715
0.0203432
0.129566
0.0221471
0.0568866
0.0211956
0.0197776
0.0241787
0.0214342
0.604197
0.0211203
0.024182
0.0217844
0.0259641
0.0220446
0.0605495
0.331972
0.0212327
0.0405471
2.21849
0.0211214
0.021545
0.0410597
0.019729
1.97666
0.0301588
0.0209881
0.0581412
0.0200138
0.0213855
0.0216005
0.0208204
0.020214
0.022127
0.0206888
0.020714
0.0215283
0.0219007
0.0477517
0.0200771
0.137018
0.0205261
0.0209021
0.0270503
0.0443163
0.0220422
0.0197257
0.0212001
0.0223126
0.042416
0.599756
0.0325539
0.021914
0.0219512
0.0207558
0.0285987
0.0209365
0.0222835
0.441177
0.250202
0.0463519
0.0210782
0.0218192
0.022124
0.019734
0.0430235
0.0201162
0.110313
0.0219603
0.171136
0.0256426
0.46294
0.0215736
0.0630753
2.02892
0.399023
0.362916
0.0245555
0.334098
0.318123
0.0218605
0.0338543
0.387792
0.0206577
0.0207481
0.0213367
0.02383
0.0843408
0.0214749
0.0238982
0.574701
0.019528
0.0214679
0.297438
0.3557
0.102986
0.384959
0.434386
0.0221137
0.0541803
0.0232953
0.0236066
0.203882
0.0223713
3.79298
0.038371
0.0235521
0.0214234
0.0227257
0.0230791
0.0205665
2.1328
0.0197885
0.0212474
0.0213108
0.552595
4.20393
0.0394967
0.0213044
0.0224414
0.0204735
0.448114
0.0210054
0.0220174
0.0232576
0.057283
0.0206961
0.0754566
2.79609
0.292369
0.0218042
0.177726
0.0205917
0.124404
0.0198235
0.0560132
0.0216847
0.0661184
0.0259639
1.05969
0.127155
0.0228111
0.0225612
0.0403349
0.0237979
0.0211036
0.0207041
0.025052
0.0219028
0.33386
0.0196608
0.0210886
0.0214321
0.0214022
0.278571
0.0207398
0.0201316
0.021532
0.043176
0.0258306
0.0550221
0.022719
0.0224746
0.0830244
0.0205936
0.0213097
0.0678741
0.0432681
0.020134
0.0324512
0.0228017
0.359889
0.0212483
0.103267
0.02165
0.021221
0.0202292
0.0201751
0.0211648
0.0210732
0.372321
0.0614565
0.0215716
0.0213176
0.0211313
0.0221548
0.0262094
0.339439
0.0215717
0.0299367
0.0238592
0.32809
0.0216605
0.0417144
0.0212939
0.0212554
0.0279347
0.0212218
0.0214565
0.0206891
0.0200466
0.398364
0.0213827
0.0207313
0.0342896
0.447683
0.0376874
0.0214406
0.0198859
0.0236098
2.65792
0.023052
0.0216954
0.0215323
0.29082
0.0218637
0.0211366
0.49297
0.0207595
0.0245154
0.0227072
0.0215402
0.020164
0.0535586
0.0256292
0.0206286
0.0212828
0.0214162
0.0208993
0.0400007
0.0226421
0.0213957
0.0197677
0.021998
0.0201797
0.021249
0.0787309
0.0206474
0.0239151
0.0235114
0.307121
0.0197284
0.0224602
0.0545077
0.0259627
0.176888
0.0209887
0.0214922
0.238157
0.0214025
0.0201532
0.371705
0.021416
2.07751
0.846059
0.0670656
0.357635
0.0214163
0.0261594
1.82512
0.0212499
0.0199964
0.292999
0.0761533
0.0208966
0.0201336
0.0227122
0.0207729
0.20023
0.046081
0.966355
0.0214837
0.0216473
0.0212241
0.0211188
0.596806
0.352309
3.80831
0.024276
0.0224935
2.39535
0.0213369
0.0208953
0.0225797
0.0209288
0.0218461
0.0664753
0.019726
0.440985
0.0218373
0.0219469
0.0213938
0.0260495
0.0208024
0.455569
0.0206939
0.0212028
0.022645
0.02016
3.07343
0.0240341
0.0260046
2.5648
0.0865393
0.029783
0.363627
0.0213215
1.01978
0.0263445
0.0207683
0.0223371
0.0216841
0.408022
0.413313
0.021456
0.0233794
0.0933046
0.0210677
0.020575
0.0240097
2.13294
0.606615
0.0215402
0.0220113
0.094441
0.0227864
0.0692044
0.0683983
0.0655378
0.0201454
0.478579
0.0215316
0.336357
0.0557029
0.0335625
4.22566
0.296229
4.03623
0.0203641
1.13834
0.0199486
0.019776
0.255027
0.0197646
0.0221639
0.0211477
0.0605257
0.0206144
0.140318
0.0201633
0.0258522
0.44082
0.0257627
0.0245148
0.434255
0.0218135
0.0202423
0.0218533
0.0944615
0.0241757
0.135164
0.0214183
0.0253903
0.0217707
2.13359
0.0214189
0.0215708
0.0213674
0.580639
0.0312242
0.0215325
3.89234
0.0211062
0.0214071
0.0248408
0.534411
0.0213942
3.95473
0.0214472
2.44999
0.0214309
0.0423519
0.0209867
0.0517576
0.021427
0.0588703
0.0243855
0.0372148
0.0208956
0.0217531
0.304504
0.0203658
0.0239151
0.0267917
0.0200599
0.0594694
0.302995
0.138541
0.0220319
0.0197374
0.0211894
0.132809
0.0237071
4.8827
0.0238282
0.317125
0.0218072
0.109675
0.0205393
0.0294367
0.120691
0.0227813
2.11708
0.0235507
3.70296
0.163876
0.0207742
1.8848
0.0223025
0.0211422
0.0227297
0.083286
0.0234014
0.163335
0.0247216
0.116921
0.0429204
0.0652072
0.047989
0.301523
0.0214575
0.0215312
3.95887
3.76804
0.0339345
0.0233777
2.218
0.271898
0.021814
0.0214355
0.0212134
0.133322
0.0207098
0.0209292
0.0323079
0.19362
0.019823
0.0206143
0.0221688
3.45511
0.0205056
0.0239408
0.0198238
0.124163
0.0222465
1.16282
0.0218259
0.0206512
0.021336
0.0202856
0.541712
0.0344585
0.301086
0.0213243
0.0281451
0.0202057
0.209161
0.19029
0.0504012
0.020795
0.0541491
0.0208883
0.0215841
0.306439
0.0210746
0.0238374
0.0458298
0.0201474
0.11529
0.020761
0.0198341
0.0215552
2.09428
0.0207953
4.32477
0.121591
0.309306
0.285523
0.0207095
0.508364
0.065727
5.2372
0.0312329
3.66252
0.177365
0.0215663
0.0317126
0.0217372
0.0282028
0.0212887
0.0227964
0.0212064
0.0252685
0.367143
4.05084
0.0238793
0.0231342
0.766593
0.369182
0.0212109
0.0214701
0.658082
0.0349132
0.0204429
0.250234
0.0360972
0.0221611
0.0203908
0.0223575
0.334597
0.0216236
0.059453
0.0195893
0.786508
5.28994
0.0733493
0.0223445
0.0215418
0.021189
0.0212755
0.0214776
0.0245196
0.0224923
0.0216103
4.14155
0.0208377
0.02151
0.0210599
0.287945
0.356578
0.0212531
0.0214935
1.40419
0.0204835
4.12505
0.0215268
0.0213755
0.0197252
0.0216208
0.0205985
0.0227562
0.0203348
0.221424
0.0217988
0.074957
0.0213518
1.96679
0.0214669
0.0242933
1.73242
0.18314
0.021314
0.021448
0.0331905
0.0197272
0.598056
0.42332
0.0224803
0.0207578
0.0212374
0.0203221
0.0506116
0.326327
0.0363696
0.418513
0.0349207
0.0213846
0.0211875
0.0205298
0.858668
0.265582
0.0215282
0.0211334
0.0208155
0.0269027
0.021378
0.411174
2.4931
0.0286527
0.0202733
3.61146
0.130014
0.0214457
0.0462918
0.0230152
0.0505827
0.0333249
0.0335692
0.0265798
1.79249
0.031891
5.00545
0.0208548
0.0205262
0.0206972
0.0203371
0.0215033
0.0278995
0.0205125
0.0250732
0.0200046
0.242163
0.0211106
0.0280224
2.575
0.0220624
0.019805
0.0281871
4.43466
0.0212613
0.0206042
0.177784
2.01617
0.301537
0.0220177
0.0197351
0.364585
0.129078
0.0236892
0.0538372
0.0213977
0.0327002
0.0215255
0.12928
0.0206751
0.0213053
0.431844
0.0204191
0.0227178
0.30251
0.0548579
0.0206415
0.020919
0.0207471
2.50359
0.0238176
0.0258389
0.0214276
0.0207878
0.124888
0.0306729
0.0211531
0.021293
0.0197344
0.0229766
0.0206487
0.0226992
0.186786
0.466351
0.0231815
0.0379541
0.02081
0.0395449
0.0212204
0.0215578
0.0207712
0.241474
0.0384538
0.0200311
0.0226722
1.15251
0.0354851
3.69044
0.0513152
0.0212954
0.020774
0.0276126
0.0223761
4.11655
0.0204987
3.97748
4.22038
0.0209028
0.0370496
0.28423
0.0252635
1.28481
0.111597
0.0221285
3.78534
0.0253927
0.0206505
4.05004
0.28703
0.102718
0.0217304
0.331091
0.280144
0.0213384
0.174612
0.328981
0.0213792
0.0207091
0.0218193
0.0200188
0.0215541
0.209314
1.93994
0.0214247
0.0248809
2.64205
3.85195
0.0337029
0.0573808
0.0210719
0.0288008
1.82229
0.0486455
3.74133
3.68463
0.0212559
0.0214608
0.0210476
0.0234897
3.33247
0.268388
0.0209681
0.0344021
0.334789
0.322783
0.0469896
0.0211375
0.0214977
0.0219398
0.244596
0.0223829
0.0348427
0.028245
0.0220136
0.419099
0.0230956
0.0632414
0.142264
0.348229
0.0212202
0.0212092
0.0225348
0.0305632
0.205651
0.266826
0.0218729
2.59154
3.05428
0.0310159
0.0315911
0.423373
0.333549
0.283416
0.463212
0.021327
0.303226
0.949611
0.0296692
0.0268863
0.131537
0.0226411
0.118989
0.0232099
0.020934