/*--------------------------------*- C++ -*----------------------------------*\
| =========                 |                                                 |
| \\      /  F ield         | OpenFOAM: The Open Source CFD Toolbox           |
|  \\    /   O peration     | Version:  v2012                                 |
|   \\  /    A nd           | Website:  www.openfoam.com                      |
|    \\/     M anipulation  |                                                 |
\*---------------------------------------------------------------------------*/
FoamFile
{
    version     2.0;
    format      ascii;
    class       pointVectorField;
    location    "550";
    object      pointDisplacement;
}
// * * * * * * * * * * * * * * * * * * * * * * * * * * * * * * * * * * * * * //

dimensions      [0 1 0 0 0 0 0];


internalField   nonuniform List<vector> 
19220
(
(0 0 0)
(0 2.82082e-06 0)
(0 2.82082e-06 0)
(0 0 0)
(0 2.82082e-06 0)
(0 2.82082e-06 0)
(0 0 0)
(0 0 0)
(0 0 0)
(0 0 0)
(0 0 0)
(0 0 0)
(0 0 0)
(0 0 0)
(0 0 0)
(0 0 0)
(0 0 0)
(0 0 0)
(0 0 0)
(0 0 0)
(0 0 0)
(0 0 0)
(0 0 0)
(0 0 0)
(0 0 0)
(0 0 0)
(0 0 0)
(0 0 0)
(0 0 0)
(0 0 0)
(0 0 0)
(0 0 0)
(0 0 0)
(0 0 0)
(0 0 0)
(0 0 0)
(0 0 0)
(0 0 0)
(0 0 0)
(0 0 0)
(0 0 0)
(0 0 0)
(0 0 0)
(0 0 0)
(0 0 0)
(0 0 0)
(0 0 0)
(0 0 0)
(0 0 0)
(0 0 0)
(0 0 0)
(0 0 0)
(0 0 0)
(0 0 0)
(0 0 0)
(0 0 0)
(0 0 0)
(0 0 0)
(0 0 0)
(0 0 0)
(0 0 0)
(0 0 0)
(0 0 0)
(0 0 0)
(0 0 0)
(0 0 0)
(0 0 0)
(0 0 0)
(0 0 0)
(0 0 0)
(0 0 0)
(0 0 0)
(0 0 0)
(0 0 0)
(0 0 0)
(0 0 0)
(0 0 0)
(0 0 0)
(0 0 0)
(0 0 0)
(0 0 0)
(0 0 0)
(0 0 0)
(0 0 0)
(0 0 0)
(0 0 0)
(0 0 0)
(0 0 0)
(0 0 0)
(0 0 0)
(0 0 0)
(0 0 0)
(0 0 0)
(0 0 0)
(0 0 0)
(0 2.82082e-06 0)
(0 2.82082e-06 0)
(0 2.82082e-06 0)
(0 2.82082e-06 0)
(0 2.82082e-06 0)
(0 2.82082e-06 0)
(0 2.82082e-06 0)
(0 2.82082e-06 0)
(0 2.82082e-06 0)
(0 2.82082e-06 0)
(0 2.82082e-06 0)
(0 2.82082e-06 0)
(0 2.82082e-06 0)
(0 2.82082e-06 0)
(0 2.82082e-06 0)
(0 2.82082e-06 0)
(0 2.82082e-06 0)
(0 2.82082e-06 0)
(0 2.82082e-06 0)
(0 2.82082e-06 0)
(0 2.82082e-06 0)
(0 2.82082e-06 0)
(0 2.82082e-06 0)
(0 2.82082e-06 0)
(0 2.82082e-06 0)
(0 2.82082e-06 0)
(0 2.82082e-06 0)
(0 2.82082e-06 0)
(0 2.82082e-06 0)
(0 2.82082e-06 0)
(0 2.82082e-06 0)
(0 2.82082e-06 0)
(0 2.82082e-06 0)
(0 2.82082e-06 0)
(0 2.82082e-06 0)
(0 2.82082e-06 0)
(0 2.82082e-06 0)
(0 2.82082e-06 0)
(0 2.82082e-06 0)
(0 2.82082e-06 0)
(0 2.82082e-06 0)
(0 2.82082e-06 0)
(0 2.82082e-06 0)
(0 2.82082e-06 0)
(0 2.82082e-06 0)
(0 2.82082e-06 0)
(0 2.82082e-06 0)
(0 2.82082e-06 0)
(0 2.82082e-06 0)
(0 2.82082e-06 0)
(0 2.82082e-06 0)
(0 2.82082e-06 0)
(0 2.82082e-06 0)
(0 2.82082e-06 0)
(0 2.82082e-06 0)
(0 2.82082e-06 0)
(0 2.82082e-06 0)
(0 2.82082e-06 0)
(0 2.82082e-06 0)
(0 2.82082e-06 0)
(0 2.82082e-06 0)
(0 2.82082e-06 0)
(0 2.82082e-06 0)
(0 2.82082e-06 0)
(0 2.82082e-06 0)
(0 2.82082e-06 0)
(0 2.82082e-06 0)
(0 2.82082e-06 0)
(0 2.82082e-06 0)
(0 2.82082e-06 0)
(0 2.82082e-06 0)
(0 2.82082e-06 0)
(0 2.82082e-06 0)
(0 2.82082e-06 0)
(0 2.82082e-06 0)
(0 2.82082e-06 0)
(0 2.82082e-06 0)
(0 2.82082e-06 0)
(0 2.82082e-06 0)
(0 2.82082e-06 0)
(0 2.82082e-06 0)
(0 2.82082e-06 0)
(0 2.82082e-06 0)
(0 2.82082e-06 0)
(0 2.82082e-06 0)
(0 2.82082e-06 0)
(0 2.82082e-06 0)
(0 2.82082e-06 0)
(0 2.82082e-06 0)
(0 2.82082e-06 0)
(0 2.82082e-06 0)
(0 2.82082e-06 0)
(0 2.82082e-06 0)
(0 2.82082e-06 0)
(0 2.82082e-06 0)
(0 2.82082e-06 0)
(0 2.82082e-06 0)
(0 2.82082e-06 0)
(0 2.82082e-06 0)
(0 2.82082e-06 0)
(0 2.82082e-06 0)
(0 2.82082e-06 0)
(0 2.82082e-06 0)
(0 2.82082e-06 0)
(0 2.82082e-06 0)
(0 2.82082e-06 0)
(0 2.82082e-06 0)
(0 2.82082e-06 0)
(0 2.82082e-06 0)
(0 2.82082e-06 0)
(0 2.82082e-06 0)
(0 2.82082e-06 0)
(0 2.82082e-06 0)
(0 2.82082e-06 0)
(0 2.82082e-06 0)
(0 2.82082e-06 0)
(0 2.82082e-06 0)
(0 2.82082e-06 0)
(0 2.82082e-06 0)
(0 2.82082e-06 0)
(0 2.82082e-06 0)
(0 2.82082e-06 0)
(0 2.82082e-06 0)
(0 2.82082e-06 0)
(0 2.82082e-06 0)
(0 2.82082e-06 0)
(0 2.82082e-06 0)
(0 2.82082e-06 0)
(0 0 0)
(0 0 0)
(0 0 0)
(0 0 0)
(0 0 0)
(0 0 0)
(0 0 0)
(0 0 0)
(0 0 0)
(0 0 0)
(0 0 0)
(0 0 0)
(0 0 0)
(0 0 0)
(0 0 0)
(0 0 0)
(0 0 0)
(0 0 0)
(0 0 0)
(0 0 0)
(0 0 0)
(0 0 0)
(0 0 0)
(0 0 0)
(0 0 0)
(0 0 0)
(0 0 0)
(0 0 0)
(0 0 0)
(0 0 0)
(0 0 0)
(0 0 0)
(0 0 0)
(0 0 0)
(0 0 0)
(0 0 0)
(0 0 0)
(0 0 0)
(0 0 0)
(0 0 0)
(0 0 0)
(0 0 0)
(0 0 0)
(0 0 0)
(0 0 0)
(0 0 0)
(0 0 0)
(0 0 0)
(0 0 0)
(0 0 0)
(0 0 0)
(0 0 0)
(0 0 0)
(0 0 0)
(0 0 0)
(0 0 0)
(0 0 0)
(0 0 0)
(0 0 0)
(0 0 0)
(0 0 0)
(0 0 0)
(0 0 0)
(0 0 0)
(0 0 0)
(0 0 0)
(0 0 0)
(0 0 0)
(0 0 0)
(0 0 0)
(0 0 0)
(0 0 0)
(0 0 0)
(0 0 0)
(0 0 0)
(0 0 0)
(0 0 0)
(0 0 0)
(0 0 0)
(0 0 0)
(0 0 0)
(0 0 0)
(0 0 0)
(0 0 0)
(0 0 0)
(0 0 0)
(0 0 0)
(0 0 0)
(0 0 0)
(0 2.82082e-06 0)
(0 2.82082e-06 0)
(0 2.82082e-06 0)
(0 2.82082e-06 0)
(0 2.82082e-06 0)
(0 2.82082e-06 0)
(0 2.82082e-06 0)
(0 2.82082e-06 0)
(0 2.82082e-06 0)
(0 2.82082e-06 0)
(0 2.82082e-06 0)
(0 2.82082e-06 0)
(0 2.82082e-06 0)
(0 2.82082e-06 0)
(0 2.82082e-06 0)
(0 2.82082e-06 0)
(0 2.82082e-06 0)
(0 2.82082e-06 0)
(0 2.82082e-06 0)
(0 2.82082e-06 0)
(0 2.82082e-06 0)
(0 2.82082e-06 0)
(0 2.82082e-06 0)
(0 2.82082e-06 0)
(0 2.82082e-06 0)
(0 2.82082e-06 0)
(0 2.82082e-06 0)
(0 2.82082e-06 0)
(0 2.82082e-06 0)
(0 2.82082e-06 0)
(0 2.82082e-06 0)
(0 2.82082e-06 0)
(0 2.82082e-06 0)
(0 2.82082e-06 0)
(0 2.82082e-06 0)
(0 2.82082e-06 0)
(0 2.82082e-06 0)
(0 2.82082e-06 0)
(0 2.82082e-06 0)
(0 2.82082e-06 0)
(0 2.82082e-06 0)
(0 2.82082e-06 0)
(0 2.82082e-06 0)
(0 2.82082e-06 0)
(0 2.82082e-06 0)
(0 2.82082e-06 0)
(0 2.82082e-06 0)
(0 2.82082e-06 0)
(0 2.82082e-06 0)
(0 2.82082e-06 0)
(0 2.82082e-06 0)
(0 2.82082e-06 0)
(0 2.82082e-06 0)
(0 2.82082e-06 0)
(0 2.82082e-06 0)
(0 2.82082e-06 0)
(0 2.82082e-06 0)
(0 2.82082e-06 0)
(0 2.82082e-06 0)
(0 2.82082e-06 0)
(0 2.82082e-06 0)
(0 2.82082e-06 0)
(0 2.82082e-06 0)
(0 2.82082e-06 0)
(0 2.82082e-06 0)
(0 2.82082e-06 0)
(0 2.82082e-06 0)
(0 2.82082e-06 0)
(0 2.82082e-06 0)
(0 2.82082e-06 0)
(0 2.82082e-06 0)
(0 2.82082e-06 0)
(0 2.82082e-06 0)
(0 2.82082e-06 0)
(0 2.82082e-06 0)
(0 2.82082e-06 0)
(0 2.82082e-06 0)
(0 2.82082e-06 0)
(0 2.82082e-06 0)
(0 2.82082e-06 0)
(0 2.82082e-06 0)
(0 2.82082e-06 0)
(0 2.82082e-06 0)
(0 2.82082e-06 0)
(0 2.82082e-06 0)
(0 2.82082e-06 0)
(0 2.82082e-06 0)
(0 2.82082e-06 0)
(0 2.82082e-06 0)
(0 2.82082e-06 0)
(0 2.82082e-06 0)
(0 2.82082e-06 0)
(0 2.82082e-06 0)
(0 2.82082e-06 0)
(0 2.82082e-06 0)
(0 2.82082e-06 0)
(0 2.82082e-06 0)
(0 2.82082e-06 0)
(0 2.82082e-06 0)
(0 2.82082e-06 0)
(0 2.82082e-06 0)
(0 2.82082e-06 0)
(0 2.82082e-06 0)
(0 2.82082e-06 0)
(0 2.82082e-06 0)
(0 2.82082e-06 0)
(0 2.82082e-06 0)
(0 2.82082e-06 0)
(0 2.82082e-06 0)
(0 2.82082e-06 0)
(0 2.82082e-06 0)
(0 2.82082e-06 0)
(0 2.82082e-06 0)
(0 2.82082e-06 0)
(0 2.82082e-06 0)
(0 2.82082e-06 0)
(0 2.82082e-06 0)
(0 2.82082e-06 0)
(0 2.82082e-06 0)
(0 2.82082e-06 0)
(0 2.82082e-06 0)
(0 2.82082e-06 0)
(0 2.82082e-06 0)
(0 2.82082e-06 0)
(0 2.82082e-06 0)
(0 2.82082e-06 0)
(0 2.82082e-06 0)
(0 2.82082e-06 0)
(0 2.82664e-06 0)
(0 2.82081e-06 0)
(0 2.82079e-06 0)
(0 2.82086e-06 0)
(0 2.82116e-06 0)
(0 2.82088e-06 0)
(0 2.83252e-06 0)
(0 2.82115e-06 0)
(0 2.8208e-06 0)
(0 2.82079e-06 0)
(0 2.82085e-06 0)
(0 2.83933e-06 0)
(0 2.82859e-06 0)
(0 2.82099e-06 0)
(0 1.44736e-06 0)
(0 2.79316e-06 0)
(0 3.76855e-06 0)
(0 1.92491e-06 0)
(0 -1.01379e-07 0)
(0 1.68767e-06 0)
(0 1.18934e-06 0)
(0 1.65519e-06 0)
(0 2.18368e-06 0)
(0 2.82088e-06 0)
(0 2.83775e-06 0)
(0 2.82074e-06 0)
(0 2.82086e-06 0)
(0 2.83793e-06 0)
(0 2.824e-06 0)
(0 2.82171e-06 0)
(0 2.82136e-06 0)
(0 2.8211e-06 0)
(0 2.82081e-06 0)
(0 1.46576e-06 0)
(0 1.22553e-06 0)
(0 9.01429e-07 0)
(0 2.8214e-06 0)
(0 2.8217e-06 0)
(0 2.82077e-06 0)
(0 1.43953e-06 0)
(0 9.04285e-07 0)
(0 1.30595e-06 0)
(0 1.47156e-06 0)
(0 9.12597e-07 0)
(0 2.3666e-06 0)
(0 3.12232e-06 0)
(0 3.21033e-06 0)
(0 9.00048e-07 0)
(0 1.63479e-06 0)
(0 2.82068e-06 0)
(0 7.25951e-07 0)
(0 6.41296e-07 0)
(0 3.9422e-07 0)
(0 1.70938e-06 0)
(0 -7.43632e-07 0)
(0 1.41273e-06 0)
(0 2.03949e-06 0)
(0 6.16503e-07 0)
(0 1.69077e-06 0)
(0 1.05787e-06 0)
(0 5.43227e-07 0)
(0 3.36698e-07 0)
(0 1.00602e-06 0)
(0 2.07677e-06 0)
(0 2.41831e-06 0)
(0 2.94253e-06 0)
(0 3.26349e-06 0)
(0 3.61156e-06 0)
(0 3.84689e-06 0)
(0 3.99684e-06 0)
(0 4.07214e-06 0)
(0 4.05404e-06 0)
(0 3.89355e-06 0)
(0 3.79403e-06 0)
(0 3.8305e-06 0)
(0 3.35148e-06 0)
(0 3.33248e-06 0)
(0 2.92425e-06 0)
(0 2.87312e-06 0)
(0 2.60136e-06 0)
(0 2.57742e-06 0)
(0 2.39214e-06 0)
(0 2.3373e-06 0)
(0 2.15802e-06 0)
(0 2.04252e-06 0)
(0 1.82351e-06 0)
(0 1.70289e-06 0)
(0 1.44066e-06 0)
(0 1.62288e-06 0)
(0 1.2428e-06 0)
(0 1.41952e-06 0)
(0 9.8353e-07 0)
(0 1.10338e-06 0)
(0 5.73354e-07 0)
(0 6.08641e-07 0)
(0 -2.69029e-08 0)
(0 -1.20942e-07 0)
(0 -7.92233e-07 0)
(0 -9.80231e-07 0)
(0 -1.65965e-06 0)
(0 -1.89717e-06 0)
(0 -1.4575e-06 0)
(0 -2.32262e-06 0)
(0 -2.15681e-06 0)
(0 -2.90155e-06 0)
(0 -2.60544e-06 0)
(0 -3.29424e-06 0)
(0 -2.86104e-06 0)
(0 -3.43773e-06 0)
(0 -2.9562e-06 0)
(0 -3.41858e-06 0)
(0 -2.91842e-06 0)
(0 -3.31895e-06 0)
(0 -3.72815e-06 0)
(0 -2.89212e-06 0)
(0 -3.2411e-06 0)
(0 -2.9202e-06 0)
(0 -3.22857e-06 0)
(0 -2.93654e-06 0)
(0 -3.19902e-06 0)
(0 -2.90239e-06 0)
(0 -3.15335e-06 0)
(0 -2.88115e-06 0)
(0 -3.13317e-06 0)
(0 -2.90975e-06 0)
(0 -3.15826e-06 0)
(0 -3.3199e-06 0)
(0 -3.00579e-06 0)
(0 -3.25223e-06 0)
(0 -3.13161e-06 0)
(0 -3.3681e-06 0)
(0 -3.19353e-06 0)
(0 -3.43098e-06 0)
(0 -3.18683e-06 0)
(0 -3.43426e-06 0)
(0 -3.17549e-06 0)
(0 -3.4256e-06 0)
(0 -3.17732e-06 0)
(0 -3.39106e-06 0)
(0 -3.16325e-06 0)
(0 -3.3541e-06 0)
(0 -3.11509e-06 0)
(0 -3.29208e-06 0)
(0 -3.0372e-06 0)
(0 -3.19398e-06 0)
(0 -2.91548e-06 0)
(0 -3.06332e-06 0)
(0 -2.75666e-06 0)
(0 -2.90309e-06 0)
(0 -2.59533e-06 0)
(0 -2.72178e-06 0)
(0 -3.62216e-06 0)
(0 -2.43561e-06 0)
(0 -2.54556e-06 0)
(0 -2.86418e-06 0)
(0 -2.27557e-06 0)
(0 -2.37724e-06 0)
(0 -2.10992e-06 0)
(0 -2.25696e-06 0)
(0 -1.98163e-06 0)
(0 -2.18103e-06 0)
(0 -1.91105e-06 0)
(0 -2.12785e-06 0)
(0 -1.86519e-06 0)
(0 -2.08661e-06 0)
(0 -1.73722e-06 0)
(0 -1.85232e-06 0)
(0 -2.06506e-06 0)
(0 -1.85571e-06 0)
(0 -2.04937e-06 0)
(0 -1.84088e-06 0)
(0 -2.04916e-06 0)
(0 -1.83361e-06 0)
(0 -2.06426e-06 0)
(0 -2.92946e-06 0)
(0 -1.84916e-06 0)
(0 -2.09064e-06 0)
(0 -1.56156e-06 0)
(0 -3.19115e-06 0)
(0 -1.88182e-06 0)
(0 -2.12253e-06 0)
(0 -1.93876e-06 0)
(0 -2.19912e-06 0)
(0 -2.04307e-06 0)
(0 -2.33613e-06 0)
(0 -2.47077e-06 0)
(0 -2.62671e-06 0)
(0 -2.73278e-06 0)
(0 -2.87111e-06 0)
(0 -2.78646e-06 0)
(0 -3.02802e-06 0)
(0 -3.07449e-06 0)
(0 -3.25008e-06 0)
(0 -3.21883e-06 0)
(0 -3.47924e-06 0)
(0 -3.48299e-06 0)
(0 -3.75589e-06 0)
(0 -3.76444e-06 0)
(0 -4.07652e-06 0)
(0 -4.11198e-06 0)
(0 -4.46001e-06 0)
(0 -4.37969e-06 0)
(0 -4.79843e-06 0)
(0 -4.67961e-06 0)
(0 -5.12621e-06 0)
(0 -5.30034e-06 0)
(0 -5.66617e-06 0)
(0 -5.8703e-06 0)
(0 -6.26052e-06 0)
(0 -6.01437e-06 0)
(0 -6.59382e-06 0)
(0 -6.84419e-06 0)
(0 -7.18677e-06 0)
(0 -6.81986e-06 0)
(0 -7.51761e-06 0)
(0 -7.81076e-06 0)
(0 -8.20321e-06 0)
(0 -7.85154e-06 0)
(0 -8.58214e-06 0)
(0 -8.94916e-06 0)
(0 -9.39141e-06 0)
(0 -8.9687e-06 0)
(0 -9.84675e-06 0)
(0 -1.02889e-05 0)
(0 -1.07807e-05 0)
(0 -1.12382e-05 0)
(0 -1.17432e-05 0)
(0 -1.12603e-05 0)
(0 -1.22564e-05 0)
(0 -1.27396e-05 0)
(0 -1.32992e-05 0)
(0 -1.27654e-05 0)
(0 -1.38676e-05 0)
(0 -1.44276e-05 0)
(0 -1.50758e-05 0)
(0 -1.56667e-05 0)
(0 -1.63819e-05 0)
(0 -1.57803e-05 0)
(0 -1.70923e-05 0)
(0 -1.77381e-05 0)
(0 -1.84648e-05 0)
(0 -1.77336e-05 0)
(0 -1.9146e-05 0)
(0 -1.98685e-05 0)
(0 -2.06028e-05 0)
(0 -1.97138e-05 0)
(0 -2.1362e-05 0)
(0 -2.21618e-05 0)
(0 -2.29695e-05 0)
(0 -2.20168e-05 0)
(0 -2.37568e-05 0)
(0 -2.46955e-05 0)
(0 -2.5424e-05 0)
(0 -2.44838e-05 0)
(0 -2.6129e-05 0)
(0 -2.70629e-05 0)
(0 -2.78245e-05 0)
(0 -2.68323e-05 0)
(0 -2.85966e-05 0)
(0 -2.95575e-05 0)
(0 -2.93547e-05 0)
(0 -2.44455e-06 0)
(0 -2.61618e-06 0)
(0 -1.18742e-06 0)
(0 -2.1464e-06 0)
(0 -1.425e-06 0)
(0 -2.35281e-06 0)
(0 -1.64888e-06 0)
(0 -2.45198e-06 0)
(0 -1.815e-06 0)
(0 -2.42692e-06 0)
(0 -1.88316e-06 0)
(0 -2.39006e-06 0)
(0 -1.92603e-06 0)
(0 -2.23049e-06 0)
(0 6.00497e-07 0)
(0 4.36572e-07 0)
(0 6.05313e-07 0)
(0 4.43427e-07 0)
(0 6.22535e-07 0)
(0 4.52188e-07 0)
(0 6.43706e-07 0)
(0 8.06441e-07 0)
(0 8.25378e-07 0)
(0 6.58533e-07 0)
(0 8.29971e-07 0)
(0 6.61072e-07 0)
(0 8.23619e-07 0)
(0 6.503e-07 0)
(0 8.10347e-07 0)
(0 9.75509e-07 0)
(0 6.27453e-07 0)
(0 7.9102e-07 0)
(0 9.62848e-07 0)
(0 9.43986e-07 0)
(0 7.63394e-07 0)
(0 9.13032e-07 0)
(0 1.10316e-06 0)
(0 7.23558e-07 0)
(0 8.62684e-07 0)
(0 6.6336e-07 0)
(0 7.95988e-07 0)
(0 5.89951e-07 0)
(0 7.2674e-07 0)
(0 9.23167e-07 0)
(0 8.56675e-07 0)
(0 1.04219e-06 0)
(0 9.70834e-07 0)
(0 1.14408e-06 0)
(0 1.06592e-06 0)
(0 1.23067e-06 0)
(0 1.14071e-06 0)
(0 1.30328e-06 0)
(0 1.20772e-06 0)
(0 1.36741e-06 0)
(0 1.27435e-06 0)
(0 1.4319e-06 0)
(0 1.32913e-06 0)
(0 1.49107e-06 0)
(0 1.38317e-06 0)
(0 1.54936e-06 0)
(0 1.44405e-06 0)
(0 1.60592e-06 0)
(0 1.50114e-06 0)
(0 1.65369e-06 0)
(0 1.54831e-06 0)
(0 1.69029e-06 0)
(0 1.58229e-06 0)
(0 1.72248e-06 0)
(0 1.60624e-06 0)
(0 1.74746e-06 0)
(0 1.62334e-06 0)
(0 1.76659e-06 0)
(0 1.64318e-06 0)
(0 1.78526e-06 0)
(0 1.66365e-06 0)
(0 1.79514e-06 0)
(0 1.67207e-06 0)
(0 1.79619e-06 0)
(0 1.66926e-06 0)
(0 1.78996e-06 0)
(0 1.65077e-06 0)
(0 1.77752e-06 0)
(0 1.63175e-06 0)
(0 1.76204e-06 0)
(0 1.61935e-06 0)
(0 1.73908e-06 0)
(0 1.57596e-06 0)
(0 1.71039e-06 0)
(0 1.56725e-06 0)
(0 1.67898e-06 0)
(0 1.53251e-06 0)
(0 1.63758e-06 0)
(0 1.49035e-06 0)
(0 1.59114e-06 0)
(0 1.44645e-06 0)
(0 1.53952e-06 0)
(0 1.39226e-06 0)
(0 1.48351e-06 0)
(0 1.32783e-06 0)
(0 1.42609e-06 0)
(0 1.25814e-06 0)
(0 1.36329e-06 0)
(0 1.18609e-06 0)
(0 1.29372e-06 0)
(0 1.11106e-06 0)
(0 1.21799e-06 0)
(0 1.031e-06 0)
(0 1.12961e-06 0)
(0 9.30182e-07 0)
(0 1.02552e-06 0)
(0 8.09291e-07 0)
(0 9.10736e-07 0)
(0 6.82924e-07 0)
(0 7.85687e-07 0)
(0 5.45095e-07 0)
(0 6.49889e-07 0)
(0 3.95258e-07 0)
(0 5.03415e-07 0)
(0 2.34283e-07 0)
(0 3.45644e-07 0)
(0 6.74836e-08 0)
(0 1.76713e-07 0)
(0 -1.18525e-07 0)
(0 -4.38742e-09 0)
(0 -3.17937e-07 0)
(0 -1.97154e-07 0)
(0 -5.32535e-07 0)
(0 -4.1039e-07 0)
(0 -7.70265e-07 0)
(0 -6.60237e-07 0)
(0 -1.02278e-06 0)
(0 -9.14364e-07 0)
(0 -1.29353e-06 0)
(0 -1.16667e-06 0)
(0 -7.68528e-07 0)
(0 -1.04348e-06 0)
(0 -1.445e-06 0)
(0 -1.30161e-06 0)
(0 -9.18699e-07 0)
(0 -1.15521e-06 0)
(0 -1.57833e-06 0)
(0 -1.41236e-06 0)
(0 -1.01129e-06 0)
(0 -1.27507e-06 0)
(0 -1.69482e-06 0)
(0 -1.55553e-06 0)
(0 -2.00474e-06 0)
(0 -1.85033e-06 0)
(0 -1.40238e-06 0)
(0 -1.68539e-06 0)
(0 -2.15857e-06 0)
(0 -1.97772e-06 0)
(0 -2.4829e-06 0)
(0 -2.29048e-06 0)
(0 -1.73552e-06 0)
(0 -2.10564e-06 0)
(0 -2.61058e-06 0)
(0 -2.42171e-06 0)
(0 2.93272e-07 0)
(0 -1.93833e-06 0)
(0 -2.24632e-06 0)
(0 -2.74089e-06 0)
(0 -2.57279e-06 0)
(0 -2.068e-06 0)
(0 -2.39423e-06 0)
(0 -2.92798e-06 0)
(0 -2.74273e-06 0)
(0 -3.311e-06 0)
(0 -3.1189e-06 0)
(0 -1.88572e-06 0)
(0 1.01247e-06 0)
(0 1.47318e-06 0)
(0 1.51409e-06 0)
(0 1.37526e-06 0)
(0 1.11812e-06 0)
(0 1.33999e-06 0)
(0 1.00089e-06 0)
(0 4.42631e-07 0)
(0 -4.5857e-07 0)
(0 -3.72205e-06 0)
(0 -3.52485e-06 0)
(0 -4.1638e-06 0)
(0 -3.95949e-06 0)
(0 1.46303e-06 0)
(0 -4.63521e-06 0)
(0 -4.43066e-06 0)
(0 -3.75624e-06 0)
(0 -4.2281e-06 0)
(0 -3.56665e-06 0)
(0 -4.03467e-06 0)
(0 -3.38365e-06 0)
(0 -3.84705e-06 0)
(0 -3.20704e-06 0)
(0 -3.66667e-06 0)
(0 -3.0343e-06 0)
(0 -3.49543e-06 0)
(0 -4.15488e-06 0)
(0 -3.99097e-06 0)
(0 -3.32589e-06 0)
(0 -3.16432e-06 0)
(0 -5.15296e-06 0)
(0 -5.3466e-06 0)
(0 1.72975e-06 0)
(0 1.5178e-06 0)
(0 -5.91488e-06 0)
(0 -6.10025e-06 0)
(0 1.86452e-06 0)
(0 -6.71199e-06 0)
(0 -6.90305e-06 0)
(0 -7.55707e-06 0)
(0 -7.75475e-06 0)
(0 1.90884e-06 0)
(0 1.74568e-06 0)
(0 6.55912e-07 0)
(0 -8.45846e-06 0)
(0 -8.64367e-06 0)
(0 -9.38599e-06 0)
(0 -9.56948e-06 0)
(0 -2.95036e-05 0)
(0 -3.04131e-05 0)
(0 -2.79144e-05 0)
(0 -2.70627e-05 0)
(0 -2.54474e-05 0)
(0 -2.83772e-06 0)
(0 -2.45673e-06 0)
(0 -2.47179e-05 0)
(0 -2.30792e-05 0)
(0 -2.37124e-05 0)
(0 -2.14273e-05 0)
(0 -2.20446e-05 0)
(0 -1.98801e-05 0)
(0 -1.92913e-05 0)
(0 -1.7839e-05 0)
(0 -1.03267e-05 0)
(0 -1.05418e-05 0)
(0 -1.84769e-05 0)
(0 -1.65284e-05 0)
(0 -1.59519e-05 0)
(0 -1.47776e-05 0)
(0 -1.52868e-05 0)
(0 -1.3675e-05 0)
(0 -1.32182e-05 0)
(0 -1.22267e-05 0)
(0 -1.76295e-06 0)
(0 -1.17691e-05 0)
(0 -1.08914e-05 0)
(0 -1.1256e-05 0)
(0 -1.00464e-05 0)
(0 -1.41225e-06 0)
(0 4.42664e-07 0)
(0 -9.66729e-06 0)
(0 -8.91629e-06 0)
(0 -9.13854e-06 0)
(0 -8.15158e-06 0)
(0 -7.85858e-06 0)
(0 -7.17019e-06 0)
(0 -7.3676e-06 0)
(0 -6.46098e-06 0)
(0 -6.14852e-06 0)
(0 -5.50548e-06 0)
(0 -5.71555e-06 0)
(0 -4.88579e-06 0)
(0 -4.53054e-06 0)
(0 -3.96696e-06 0)
(0 4.52922e-07 0)
(0 2.73554e-07 0)
(0 -3.41146e-06 0)
(0 -2.70955e-06 0)
(0 -3.17179e-06 0)
(0 -1.81127e-06 0)
(0 -1.25869e-06 0)
(0 -3.81168e-07 0)
(0 -7.91506e-07 0)
(0 6.12711e-07 0)
(0 1.14896e-06 0)
(0 2.10917e-06 0)
(0 1.64591e-06 0)
(0 3.06889e-06 0)
(0 3.55429e-06 0)
(0 4.38311e-06 0)
(0 3.88318e-06 0)
(0 5.01159e-06 0)
(0 4.43689e-06 0)
(0 5.37409e-06 0)
(0 4.75375e-06 0)
(0 5.60965e-06 0)
(0 6.12207e-06 0)
(0 6.44104e-06 0)
(0 5.93018e-06 0)
(0 6.88159e-06 0)
(0 6.35182e-06 0)
(0 7.34791e-06 0)
(0 6.81706e-06 0)
(0 7.83253e-06 0)
(0 8.33263e-06 0)
(0 8.87853e-06 0)
(0 8.33716e-06 0)
(0 9.40524e-06 0)
(0 8.7444e-06 0)
(0 9.74655e-06 0)
(0 8.92056e-06 0)
(0 9.83833e-06 0)
(0 1.06202e-05 0)
(0 1.0539e-05 0)
(0 9.63331e-06 0)
(0 1.01317e-05 0)
(0 9.17599e-06 0)
(0 9.50881e-06 0)
(0 1.03816e-05 0)
(0 9.64967e-06 0)
(0 8.83274e-06 0)
(0 8.94101e-06 0)
(0 8.20532e-06 0)
(0 8.33111e-06 0)
(0 8.94511e-06 0)
(0 8.45191e-06 0)
(0 7.86665e-06 0)
(0 8.09145e-06 0)
(0 7.5336e-06 0)
(0 7.81442e-06 0)
(0 8.27452e-06 0)
(0 7.30213e-06 0)
(0 7.65884e-06 0)
(0 7.1616e-06 0)
(0 7.64645e-06 0)
(0 7.15918e-06 0)
(0 7.77751e-06 0)
(0 7.30424e-06 0)
(0 8.04823e-06 0)
(0 7.5404e-06 0)
(0 8.39194e-06 0)
(0 8.42894e-06 0)
(0 7.9126e-06 0)
(0 -1.1302e-05 0)
(0 -1.11211e-05 0)
(0 -1.16616e-05 0)
(0 -1.07747e-05 0)
(0 -1.1722e-05 0)
(0 -1.09607e-05 0)
(0 -1.19253e-05 0)
(0 -1.11665e-05 0)
(0 -1.21316e-05 0)
(0 -1.13363e-05 0)
(0 -1.22994e-05 0)
(0 -1.14724e-05 0)
(0 8.90907e-06 0)
(0 8.43138e-06 0)
(0 6.79627e-06 0)
(0 -1.24524e-05 0)
(0 -1.16383e-05 0)
(0 9.4017e-06 0)
(0 8.89439e-06 0)
(0 1.36833e-06 0)
(0 6.8922e-06 0)
(0 -1.31849e-05 0)
(0 -1.25935e-05 0)
(0 -1.17674e-05 0)
(0 9.78481e-06 0)
(0 1.0204e-05 0)
(0 9.18788e-06 0)
(0 1.76873e-06 0)
(0 -1.27106e-05 0)
(0 -1.18639e-05 0)
(0 1.56983e-06 0)
(0 2.12806e-06 0)
(0 -4.0096e-06 0)
(0 2.52556e-06 0)
(0 2.57955e-06 0)
(0 2.55183e-06 0)
(0 2.59962e-06 0)
(0 2.57433e-06 0)
(0 2.61818e-06 0)
(0 2.59302e-06 0)
(0 2.63414e-06 0)
(0 2.60751e-06 0)
(0 2.64618e-06 0)
(0 2.56508e-06 0)
(0 2.61849e-06 0)
(0 2.65516e-06 0)
(0 1.04685e-05 0)
(0 1.07614e-05 0)
(0 2.46602e-06 0)
(0 -1.28135e-05 0)
(0 -1.19276e-05 0)
(0 -3.79962e-06 0)
(0 2.62667e-06 0)
(0 2.65959e-06 0)
(0 3.59181e-06 0)
(0 2.07482e-06 0)
(0 2.71012e-06 0)
(0 -1.10715e-05 0)
(0 -1.11088e-05 0)
(0 -1.19967e-05 0)
(0 -1.11549e-05 0)
(0 1.09476e-05 0)
(0 1.10651e-05 0)
(0 2.62256e-06 0)
(0 -2.59512e-06 0)
(0 2.62943e-06 0)
(0 2.65913e-06 0)
(0 -3.54734e-06 0)
(0 -3.5557e-06 0)
(0 -3.82575e-06 0)
(0 -3.5673e-06 0)
(0 -1.03329e-05 0)
(0 -1.03555e-05 0)
(0 -3.27934e-06 0)
(0 -3.26837e-06 0)
(0 -1.12231e-05 0)
(0 -1.03814e-05 0)
(0 -1.37697e-05 0)
(0 2.62622e-06 0)
(0 2.65521e-06 0)
(0 2.59418e-06 0)
(0 -9.55538e-06 0)
(0 -9.55794e-06 0)
(0 -3.86944e-06 0)
(0 -2.97026e-06 0)
(0 -2.97468e-06 0)
(0 -1.04156e-05 0)
(0 -9.5877e-06 0)
(0 -8.7639e-06 0)
(0 -8.79752e-06 0)
(0 -8.01482e-06 0)
(0 -8.04348e-06 0)
(0 2.73809e-06 0)
(0 3.41909e-06 0)
(0 1.12968e-05 0)
(0 1.12566e-05 0)
(0 -7.31499e-06 0)
(0 -7.36098e-06 0)
(0 -6.66432e-06 0)
(0 -6.73719e-06 0)
(0 -6.04929e-06 0)
(0 -6.12719e-06 0)
(0 -5.46274e-06 0)
(0 -5.54687e-06 0)
(0 -4.92044e-06 0)
(0 -5.01212e-06 0)
(0 -4.42248e-06 0)
(0 -4.52358e-06 0)
(0 -5.11128e-06 0)
(0 -4.62663e-06 0)
(0 -4.08262e-06 0)
(0 -4.18781e-06 0)
(0 -3.6822e-06 0)
(0 -3.7915e-06 0)
(0 -3.3121e-06 0)
(0 -3.42773e-06 0)
(0 -2.9644e-06 0)
(0 -3.07874e-06 0)
(0 -2.63348e-06 0)
(0 -2.75462e-06 0)
(0 -2.32135e-06 0)
(0 -2.44692e-06 0)
(0 -2.03247e-06 0)
(0 -2.16783e-06 0)
(0 -1.77683e-06 0)
(0 -1.92979e-06 0)
(0 -1.56415e-06 0)
(0 -1.72373e-06 0)
(0 -1.38332e-06 0)
(0 -1.54245e-06 0)
(0 -1.2166e-06 0)
(0 -1.36202e-06 0)
(0 -1.04861e-06 0)
(0 -1.18524e-06 0)
(0 -8.95303e-07 0)
(0 -1.05134e-06 0)
(0 -7.7717e-07 0)
(0 -9.54497e-07 0)
(0 -1.28017e-06 0)
(0 -1.15213e-06 0)
(0 -8.70678e-07 0)
(0 -1.0602e-06 0)
(0 -8.04548e-07 0)
(0 -9.81974e-07 0)
(0 -7.43262e-07 0)
(0 -9.14736e-07 0)
(0 -6.9445e-07 0)
(0 -8.64692e-07 0)
(0 -6.62818e-07 0)
(0 -8.32997e-07 0)
(0 -6.42542e-07 0)
(0 -8.11639e-07 0)
(0 -1.85778e-06 0)
(0 -1.00262e-06 0)
(0 -9.81459e-07 0)
(0 -8.01038e-07 0)
(0 -9.81446e-07 0)
(0 -8.14993e-07 0)
(0 -1.01605e-06 0)
(0 -8.62615e-07 0)
(0 -1.08131e-06 0)
(0 -9.3343e-07 0)
(0 -1.16348e-06 0)
(0 -1.35212e-06 0)
(0 -1.01141e-06 0)
(0 -1.24919e-06 0)
(0 -1.08217e-06 0)
(0 -1.30664e-06 0)
(0 -1.13393e-06 0)
(0 -1.34144e-06 0)
(0 -1.17918e-06 0)
(0 -2.92478e-06 0)
(0 -1.39226e-06 0)
(0 -1.24288e-06 0)
(0 -1.46956e-06 0)
(0 -1.33106e-06 0)
(0 -1.22463e-06 0)
(0 -1.57798e-06 0)
(0 -1.45057e-06 0)
(0 -7.49245e-06 0)
(0 2.62011e-06 0)
(0 2.64821e-06 0)
(0 -4.29444e-06 0)
(0 2.68013e-06 0)
(0 2.67293e-06 0)
(0 2.63805e-06 0)
(0 2.66287e-06 0)
(0 2.69977e-06 0)
(0 2.68475e-06 0)
(0 2.64949e-06 0)
(0 2.66971e-06 0)
(0 2.70144e-06 0)
(0 2.687e-06 0)
(0 2.71496e-06 0)
(0 2.70192e-06 0)
(0 2.72722e-06 0)
(0 2.71526e-06 0)
(0 2.73848e-06 0)
(0 2.72682e-06 0)
(0 2.74781e-06 0)
(0 2.73601e-06 0)
(0 2.75536e-06 0)
(0 2.74343e-06 0)
(0 2.72145e-06 0)
(0 2.72887e-06 0)
(0 2.7495e-06 0)
(0 2.73603e-06 0)
(0 2.75485e-06 0)
(0 2.74149e-06 0)
(0 2.75949e-06 0)
(0 2.74639e-06 0)
(0 2.76376e-06 0)
(0 2.7517e-06 0)
(0 2.76792e-06 0)
(0 2.75622e-06 0)
(0 2.77133e-06 0)
(0 2.75962e-06 0)
(0 2.74238e-06 0)
(0 2.74564e-06 0)
(0 2.7622e-06 0)
(0 2.74775e-06 0)
(0 2.76433e-06 0)
(0 2.74968e-06 0)
(0 2.76577e-06 0)
(0 2.75145e-06 0)
(0 2.76679e-06 0)
(0 2.75291e-06 0)
(0 2.7356e-06 0)
(0 2.73778e-06 0)
(0 2.75431e-06 0)
(0 2.73918e-06 0)
(0 2.75515e-06 0)
(0 2.73929e-06 0)
(0 2.75526e-06 0)
(0 2.73894e-06 0)
(0 2.7216e-06 0)
(0 2.72112e-06 0)
(0 2.73868e-06 0)
(0 2.72094e-06 0)
(0 2.73869e-06 0)
(0 2.72162e-06 0)
(0 2.73926e-06 0)
(0 2.7227e-06 0)
(0 2.7401e-06 0)
(0 2.72374e-06 0)
(0 2.74131e-06 0)
(0 2.72516e-06 0)
(0 2.70523e-06 0)
(0 2.70706e-06 0)
(0 2.70178e-06 0)
(0 2.72733e-06 0)
(0 2.70961e-06 0)
(0 2.72975e-06 0)
(0 2.71198e-06 0)
(0 2.73187e-06 0)
(0 2.71409e-06 0)
(0 2.69137e-06 0)
(0 2.69356e-06 0)
(0 2.7159e-06 0)
(0 2.6956e-06 0)
(0 2.71752e-06 0)
(0 2.6973e-06 0)
(0 2.71892e-06 0)
(0 2.6986e-06 0)
(0 2.67394e-06 0)
(0 2.67521e-06 0)
(0 2.69943e-06 0)
(0 2.67583e-06 0)
(0 2.69972e-06 0)
(0 2.67578e-06 0)
(0 2.69965e-06 0)
(0 2.67548e-06 0)
(0 2.64784e-06 0)
(0 2.64743e-06 0)
(0 2.67533e-06 0)
(0 2.64719e-06 0)
(0 2.67592e-06 0)
(0 2.64723e-06 0)
(0 2.61464e-06 0)
(0 2.61462e-06 0)
(0 2.64773e-06 0)
(0 2.61531e-06 0)
(0 2.64861e-06 0)
(0 2.61633e-06 0)
(0 2.64984e-06 0)
(0 2.61734e-06 0)
(0 2.65132e-06 0)
(0 2.61833e-06 0)
(0 2.57969e-06 0)
(0 2.58012e-06 0)
(0 2.6194e-06 0)
(0 2.5811e-06 0)
(0 2.53655e-06 0)
(0 2.53734e-06 0)
(0 2.58184e-06 0)
(0 2.53704e-06 0)
(0 2.58164e-06 0)
(0 2.53608e-06 0)
(0 2.58096e-06 0)
(0 2.53544e-06 0)
(0 2.57843e-06 0)
(0 2.535e-06 0)
(0 2.57835e-06 0)
(0 2.53496e-06 0)
(0 2.4839e-06 0)
(0 2.58044e-06 0)
(0 2.53487e-06 0)
(0 2.58042e-06 0)
(0 2.53413e-06 0)
(0 2.57742e-06 0)
(0 2.58172e-06 0)
(0 2.53335e-06 0)
(0 2.48086e-06 0)
(0 2.47893e-06 0)
(0 2.53207e-06 0)
(0 2.47695e-06 0)
(0 2.53064e-06 0)
(0 2.4749e-06 0)
(0 2.4162e-06 0)
(0 2.41266e-06 0)
(0 2.47301e-06 0)
(0 2.40846e-06 0)
(0 2.47045e-06 0)
(0 2.4057e-06 0)
(0 2.46792e-06 0)
(0 2.40505e-06 0)
(0 2.46594e-06 0)
(0 2.40273e-06 0)
(0 2.46436e-06 0)
(0 2.39779e-06 0)
(0 2.33926e-06 0)
(0 2.4635e-06 0)
(0 2.39487e-06 0)
(0 2.32882e-06 0)
(0 2.46335e-06 0)
(0 2.39194e-06 0)
(0 2.46199e-06 0)
(0 2.38884e-06 0)
(0 2.45939e-06 0)
(0 2.38558e-06 0)
(0 2.30661e-06 0)
(0 2.30167e-06 0)
(0 2.38207e-06 0)
(0 2.2961e-06 0)
(0 2.37791e-06 0)
(0 2.28887e-06 0)
(0 2.3725e-06 0)
(0 2.28013e-06 0)
(0 2.18569e-06 0)
(0 2.17365e-06 0)
(0 2.26996e-06 0)
(0 2.1599e-06 0)
(0 2.25742e-06 0)
(0 2.1428e-06 0)
(0 2.2423e-06 0)
(0 2.12254e-06 0)
(0 2.22672e-06 0)
(0 2.06855e-06 0)
(0 2.10272e-06 0)
(0 2.20592e-06 0)
(0 2.0764e-06 0)
(0 2.17967e-06 0)
(0 2.62282e-06 0)
(0 2.04221e-06 0)
(0 2.15317e-06 0)
(0 2.51898e-06 0)
(0 2.62176e-06 0)
(0 2.67947e-06 0)
(0 2.72568e-06 0)
(0 2.00656e-06 0)
(0 2.1219e-06 0)
(0 1.9837e-06 0)
(0 2.53376e-06 0)
(0 1.96799e-06 0)
(0 2.10162e-06 0)
(0 1.83993e-06 0)
(0 2.71506e-06 0)
(0 2.33263e-06 0)
(0 2.75661e-06 0)
(0 1.91857e-06 0)
(0 2.03012e-06 0)
(0 2.26493e-06 0)
(0 1.85435e-06 0)
(0 1.96962e-06 0)
(0 2.67303e-06 0)
(0 2.13721e-06 0)
(0 2.0691e-06 0)
(0 1.89769e-06 0)
(0 2.00367e-06 0)
(0 2.77969e-06 0)
(0 1.81099e-06 0)
(0 1.91832e-06 0)
(0 2.10343e-06 0)
(0 2.01607e-06 0)
(0 1.81309e-06 0)
(0 1.91167e-06 0)
(0 2.10311e-06 0)
(0 1.99929e-06 0)
(0 2.17886e-06 0)
(0 2.07444e-06 0)
(0 1.87711e-06 0)
(0 2.13718e-06 0)
(0 2.18804e-06 0)
(0 2.22708e-06 0)
(0 2.67015e-06 0)
(0 -2.68166e-06 0)
(0 -2.73586e-06 0)
(0 2.78117e-06 0)
(0 -1.7306e-06 0)
(0 -1.62252e-06 0)
(0 -1.04494e-05 0)
(0 2.77294e-06 0)
(0 -1.07364e-05 0)
(0 -7.25751e-06 0)
(0 1.15478e-05 0)
(0 1.13887e-05 0)
(0 1.14127e-05 0)
(0 1.09137e-05 0)
(0 1.09436e-05 0)
(0 1.03752e-05 0)
(0 1.03083e-05 0)
(0 9.71525e-06 0)
(0 9.57269e-06 0)
(0 8.99195e-06 0)
(0 8.7965e-06 0)
(0 8.19443e-06 0)
(0 7.99946e-06 0)
(0 7.44152e-06 0)
(0 7.34546e-06 0)
(0 6.93789e-06 0)
(0 6.92738e-06 0)
(0 6.74442e-06 0)
(0 6.74691e-06 0)
(0 6.77797e-06 0)
(0 6.71693e-06 0)
(0 6.76018e-06 0)
(0 6.8632e-06 0)
(0 6.77603e-06 0)
(0 6.96087e-06 0)
(0 6.92929e-06 0)
(0 7.10977e-06 0)
(0 7.13326e-06 0)
(0 -3.45941e-06 0)
(0 -3.5873e-06 0)
(0 2.7385e-06 0)
(0 3.59174e-06 0)
(0 4.32485e-06 0)
(0 -2.4468e-06 0)
(0 -2.55758e-06 0)
(0 -2.83352e-06 0)
(0 -2.66901e-06 0)
(0 -2.38053e-06 0)
(0 -2.93059e-06 0)
(0 -2.73684e-06 0)
(0 -2.4714e-06 0)
(0 -2.51409e-06 0)
(0 -2.24447e-06 0)
(0 -2.29416e-06 0)
(0 -2.57208e-06 0)
(0 -2.38063e-06 0)
(0 -2.07762e-06 0)
(0 -2.19896e-06 0)
(0 2.45197e-06 0)
(0 -1.52819e-06 0)
(0 2.76939e-06 0)
(0 2.74723e-06 0)
(0 2.72051e-06 0)
(0 2.71941e-06 0)
(0 2.66782e-06 0)
(0 -1.9322e-06 0)
(0 -1.83635e-06 0)
(0 2.64687e-06 0)
(0 2.48741e-06 0)
(0 -1.88079e-06 0)
(0 8.00028e-06 0)
(0 8.19484e-06 0)
(0 5.83043e-06 0)
(0 -1.91252e-06 0)
(0 -1.60608e-06 0)
(0 -1.78323e-06 0)
(0 -1.41303e-06 0)
(0 -1.60149e-06 0)
(0 -1.16481e-06 0)
(0 -1.36307e-06 0)
(0 -8.90406e-07 0)
(0 -1.08223e-06 0)
(0 -7.03965e-07 0)
(0 3.8229e-06 0)
(0 -4.41149e-07 0)
(0 -2.99592e-07 0)
(0 7.26626e-06 0)
(0 7.28462e-06 0)
(0 4.8103e-06 0)
(0 6.89088e-06 0)
(0 9.32329e-06 0)
(0 7.1524e-06 0)
(0 -4.97169e-07 0)
(0 -1.17633e-06 0)
(0 -2.52908e-06 0)
(0 -2.38111e-06 0)
(0 4.14115e-06 0)
(0 5.10747e-06 0)
(0 -1.71588e-06 0)
(0 -2.9008e-06 0)
(0 1.86138e-06 0)
(0 -2.26129e-06 0)
(0 -1.57491e-06 0)
(0 -2.16661e-06 0)
(0 1.17047e-05 0)
(0 1.14721e-05 0)
(0 1.08607e-05 0)
(0 7.39704e-06 0)
(0 7.37386e-06 0)
(0 -7.06128e-07 0)
(0 2.76504e-06 0)
(0 -5.04031e-08 0)
(0 9.91928e-08 0)
(0 -7.09152e-06 0)
(0 4.58292e-06 0)
(0 3.86218e-06 0)
(0 -2.84445e-06 0)
(0 -1.0548e-06 0)
(0 -1.64118e-06 0)
(0 2.34041e-06 0)
(0 -6.11798e-07 0)
(0 -9.72226e-07 0)
(0 8.51555e-06 0)
(0 1.28907e-06 0)
(0 7.52761e-06 0)
(0 7.49553e-06 0)
(0 -3.31204e-05 0)
(0 -7.38383e-06 0)
(0 7.35998e-06 0)
(0 7.54831e-06 0)
(0 7.68888e-06 0)
(0 7.90235e-06 0)
(0 -3.32214e-05 0)
(0 -3.13471e-05 0)
(0 -3.12265e-05 0)
(0 -2.95337e-05 0)
(0 1.17054e-05 0)
(0 1.13787e-05 0)
(0 -2.0579e-06 0)
(0 -2.39426e-06 0)
(0 -2.73143e-06 0)
(0 4.02179e-07 0)
(0 6.29789e-07 0)
(0 2.15719e-07 0)
(0 -2.95446e-05 0)
(0 -2.78405e-05 0)
(0 -2.77334e-05 0)
(0 -2.61287e-05 0)
(0 6.88185e-06 0)
(0 -1.73156e-06 0)
(0 4.93064e-06 0)
(0 5.94819e-06 0)
(0 7.81063e-06 0)
(0 8.3462e-06 0)
(0 8.48726e-06 0)
(0 9.07924e-06 0)
(0 7.48242e-06 0)
(0 -1.57433e-06 0)
(0 -1.2797e-06 0)
(0 -1.83848e-06 0)
(0 -1.50787e-06 0)
(0 -2.10884e-06 0)
(0 -1.76855e-06 0)
(0 -2.36566e-06 0)
(0 -2.02718e-06 0)
(0 -2.65401e-06 0)
(0 -2.31735e-06 0)
(0 -3.03409e-06 0)
(0 -2.7077e-06 0)
(0 -3.52053e-06 0)
(0 -1.99848e-06 0)
(0 -3.25179e-06 0)
(0 -4.13988e-06 0)
(0 -3.95553e-06 0)
(0 -4.88355e-06 0)
(0 2.70303e-06 0)
(0 -2.62123e-05 0)
(0 -2.45393e-05 0)
(0 -2.44113e-05 0)
(0 -2.28521e-05 0)
(0 6.97703e-06 0)
(0 4.74504e-06 0)
(0 4.00834e-06 0)
(0 8.92709e-06 0)
(0 9.75111e-06 0)
(0 9.95785e-06 0)
(0 1.06501e-05 0)
(0 1.08661e-05 0)
(0 1.14428e-05 0)
(0 1.10917e-05 0)
(0 1.16472e-05 0)
(0 1.20202e-05 0)
(0 1.19749e-05 0)
(0 -2.29329e-05 0)
(0 -2.12697e-05 0)
(0 -2.12214e-05 0)
(0 -1.97068e-05 0)
(0 -1.96498e-05 0)
(0 -1.82224e-05 0)
(0 -1.82596e-05 0)
(0 -1.68843e-05 0)
(0 -1.68778e-05 0)
(0 -1.56149e-05 0)
(0 -1.56268e-05 0)
(0 -1.55521e-05 0)
(0 -5.03959e-06 0)
(0 -5.37794e-06 0)
(0 1.2434e-05 0)
(0 1.22036e-05 0)
(0 -4.7472e-06 0)
(0 -1.92339e-06 0)
(0 -2.61714e-06 0)
(0 -1.1985e-06 0)
(0 1.14928e-05 0)
(0 1.10997e-05 0)
(0 1.04378e-06 0)
(0 1.35695e-06 0)
(0 -3.81304e-06 0)
(0 -1.44572e-05 0)
(0 -1.44598e-05 0)
(0 -1.59752e-06 0)
(0 -2.27005e-06 0)
(0 3.31107e-06 0)
(0 -2.96124e-06 0)
(0 -3.07721e-06 0)
(0 1.07531e-05 0)
(0 4.70274e-06 0)
(0 3.95232e-06 0)
(0 2.73635e-06 0)
(0 -2.15302e-06 0)
(0 -2.06537e-06 0)
(0 -1.85264e-06 0)
(0 -1.74234e-06 0)
(0 4.11716e-07 0)
(0 5.76263e-06 0)
(0 6.71527e-06 0)
(0 1.1191e-05 0)
(0 -2.88482e-06 0)
(0 -3.69841e-06 0)
(0 -1.60562e-05 0)
(0 8.40975e-06 0)
(0 1.26897e-05 0)
(0 1.23954e-05 0)
(0 1.17603e-05 0)
(0 1.19754e-05 0)
(0 -1.32071e-05 0)
(0 -1.51913e-05 0)
(0 -1.26572e-05 0)
(0 -1.44452e-05 0)
(0 -1.21309e-05 0)
(0 -1.06312e-05 0)
(0 -1.034e-05 0)
(0 -1.17473e-05 0)
(0 -1.01185e-05 0)
(0 -8.81587e-06 0)