/*--------------------------------*- C++ -*----------------------------------*\
| =========                 |                                                 |
| \\      /  F ield         | OpenFOAM: The Open Source CFD Toolbox           |
|  \\    /   O peration     | Version:  v2012                                 |
|   \\  /    A nd           | Website:  www.openfoam.com                      |
|    \\/     M anipulation  |                                                 |
\*---------------------------------------------------------------------------*/
FoamFile
{
    version     2.0;
    format      ascii;
    class       volVectorField;
    location    "550";
    object      U;
}
// * * * * * * * * * * * * * * * * * * * * * * * * * * * * * * * * * * * * * //

dimensions      [0 1 -1 0 0 0 0];


internalField   nonuniform List<vector> 
18355
(
(1.09898 0.0815869 -1.50792e-20)
(0.0722921 -0.0154232 0)
(1.00414 0.0222512 -8.48817e-23)
(1.01506 0.00497317 0)
(1.04187 -0.00433709 0)
(1.15255 -0.0783787 7.39008e-21)
(1.00397 0.00691644 -2.41573e-21)
(1.16201 0.024624 -2.63017e-20)
(0.939511 -0.00626059 3.01878e-20)
(-0.0264031 -0.00387652 8.08426e-20)
(1.02194 0.00148528 2.48299e-21)
(-0.214455 0.00302514 0)
(1.20122 0.02331 6.91551e-20)
(0.987502 0.00540332 4.45377e-21)
(1.02606 0.034284 4.41967e-21)
(0.988212 0.0703972 -1.70727e-20)
(-0.250946 0.0210819 -1.57445e-19)
(1.0155 0.0102214 -1.89193e-21)
(1.00541 0.0360635 0)
(0.716983 -0.153581 9.92249e-21)
(0.968956 0.0875735 -1.26712e-21)
(0.975555 0.0346572 5.12973e-21)
(0.120243 -0.00375071 6.19354e-20)
(1.04111 -0.004584 1.36231e-21)
(1.0479 -0.0218327 0)
(0.999334 0.00406486 -2.96098e-21)
(0.996259 0.000162431 5.15555e-21)
(0.943335 0.00650749 5.75702e-20)
(0.0855175 0.212007 -7.10203e-21)
(0.994022 0.0247155 -1.25265e-20)
(1.03465 -0.00405654 -6.74321e-21)
(1.04763 -0.00932299 -7.13999e-21)
(1.01528 0.009797 0)
(1.00995 0.000562921 -3.57118e-23)
(1.13568 0.130127 6.48009e-21)
(1.10301 0.0816685 1.69879e-20)
(0.955723 -0.00275707 -6.6457e-23)
(1.18018 0.263874 0)
(0.945064 0.00771823 -3.68762e-20)
(1.02243 0.00191851 -1.8179e-21)
(0.986897 0.00527439 -9.75607e-21)
(0.945245 0.318307 1.10052e-20)
(1.00408 0.0229272 4.38822e-22)
(-0.104387 0.0039642 0)
(1.01541 7.80956e-05 1.24791e-21)
(1.19027 0.263138 -6.47613e-21)
(1.14812 0.0758503 1.22275e-20)
(0.935777 0.0262256 0)
(1.13566 0.0765735 3.93551e-20)
(1.015 0.0112987 -3.86875e-23)
(1.01954 0.0030309 7.3112e-22)
(1.01697 0.0219819 7.60357e-23)
(0.999991 0.000558193 0)
(0.284037 -0.0523759 -2.54756e-20)
(1.00052 0.00600998 0)
(1.00186 0.000295328 -2.16991e-22)
(1.08551 -0.162275 0)
(1.02591 0.0351844 -9.89895e-22)
(0.116451 0.460842 0)
(1.2172 0.137703 -3.15171e-20)
(1.0146 0.0114004 4.06287e-23)
(1.15479 -0.0333819 0)
(1.01648 0.00940901 2.4364e-21)
(1.01776 0.193517 0)
(-0.198165 0.000455246 -3.18565e-20)
(1.09678 0.0779183 -3.86421e-21)
(0.0496025 0.1496 -3.84258e-20)
(0.857707 0.0544438 2.04344e-20)
(0.99654 0.000232192 0)
(0.977169 0.0348703 -1.37634e-20)
(1.16025 0.102068 -1.74813e-20)
(1.00007 0.000468954 0)
(1.22243 0.141435 0)
(1.01156 0.0114336 5.59833e-22)
(1.16145 0.0283691 -4.75806e-20)
(1.00413 0.00715614 2.30597e-21)
(0.671149 -0.0903234 6.46948e-20)
(1.04896 -0.00696195 1.46851e-20)
(1.05832 -0.0307407 -1.76278e-20)
(1.01633 0.0192723 0)
(1.00368 0.00676882 2.30902e-21)
(1.24441 0.349261 0)
(0.970908 0.0852765 0)
(1.06542 0.181735 0)
(0.999227 0.00419506 -3.60655e-21)
(1.19792 0.0239471 -1.59088e-20)
(0.289976 -0.00618636 2.33213e-20)
(0.733777 -0.158228 2.69729e-20)
(0.0689704 0.221016 0)
(0.253085 -0.0307157 1.31518e-20)
(1.25823 -0.0765728 7.29785e-20)
(1.01552 5.49276e-05 -9.56529e-22)
(1.00003 0.00550245 0)
(1.01895 0.00123537 -3.22205e-21)
(-0.00367358 0.191833 2.3738e-20)
(0.087119 -0.00167803 -1.02612e-19)
(1.02543 0.0151721 4.62288e-21)
(1.07221 -0.00456433 3.38931e-20)
(0.239603 -0.0476961 5.17708e-20)
(-0.191162 0.0243017 -3.38066e-23)
(0.0138924 0.259341 0)
(-0.212607 0.0210963 0)
(1.09886 0.137759 0)
(1.11976 -0.0801379 3.0742e-20)
(1.04047 -0.00865916 -1.03189e-20)
(1.19592 -0.0417176 -6.02954e-20)
(-0.270077 0.00708761 6.97288e-20)
(1.12731 0.302634 -3.03109e-20)
(1.10599 0.0231029 -2.145e-20)
(0.484597 -0.307854 -2.47381e-20)
(0.99846 0.023962 -5.49923e-21)
(0.951517 0.0183828 0)
(0.999072 0.00351068 8.43062e-21)
(0.949277 0.0177242 1.02977e-20)
(0.283811 -0.0599553 -6.03284e-20)
(1.00296 0.000809051 0)
(0.0686938 -0.299612 2.94102e-19)
(0.668557 -0.0945817 2.22252e-20)
(0.0754109 0.352047 2.12489e-19)
(1.09462 0.142395 -3.01776e-21)
(-0.0165678 -0.00534589 -7.71796e-20)
(1.34583 0.112768 4.75229e-20)
(1.04799 -0.00733991 -1.16691e-20)
(1.15983 0.105371 -2.00554e-20)
(1.0248 0.0153209 -1.50046e-21)
(1.12825 0.313776 0)
(1.01734 0.0213675 5.28e-23)
(1.00002 0.00105162 2.89726e-21)
(1.38322 0.239588 0)
(1.01871 0.00126976 3.07357e-21)
(1.01953 0.00323307 1.43216e-21)
(1.13827 -0.0245811 7.24622e-20)
(1.13763 -0.0102997 0)
(1.07066 -0.00532911 -3.39087e-20)
(0.915262 0.188625 1.8425e-20)
(1.00002 0.00119796 4.81409e-21)
(1.02259 0.0273937 1.52617e-23)
(1.022 0.00130275 -1.00504e-21)
(0.992115 0.014522 0)
(1.16028 0.171285 -5.41039e-20)
(0.0140599 0.264431 -2.32383e-20)
(-0.00909766 0.256209 0)
(0.999232 0.0476717 -9.67216e-22)
(0.998018 0.0231793 -5.60667e-23)
(0.37955 0.0314225 9.69099e-21)
(0.975568 0.0311767 1.69789e-20)
(0.910222 0.00392749 0)
(0.263408 0.0248566 0)
(1.06152 0.00782449 -6.50794e-21)
(0.236639 0.0349584 0)
(1.04235 0.000967199 -1.00122e-20)
(0.974946 0.0323248 0)
(1.13081 0.128229 -1.8491e-20)
(0.109666 0.413385 -1.18757e-19)
(1.11609 -0.110453 -3.78242e-20)
(1.00004 0.000502283 -6.30336e-21)
(1.15897 -0.0257618 -3.84346e-20)
(0.0840422 0.320213 -1.94353e-19)
(1.00005 0.000511581 2.2323e-21)
(1.16241 -0.0311031 0)
(1.01273 0.103286 -1.38283e-21)
(1.05149 0.0612467 0)
(0.908699 0.0940215 -2.74828e-20)
(1.07154 -0.00775085 4.71719e-21)
(1.15193 -0.191179 2.24442e-20)
(0.506525 0.678675 3.57061e-20)
(0.2178 0.0570168 4.9735e-20)
(1.12559 0.0877863 -7.36622e-21)
(1.2402 0.0227336 -4.58848e-20)
(1.01372 0.0112061 0)
(-0.0676916 0.241862 0)
(0.0495619 0.00104554 7.50815e-23)
(1.02094 0.00190782 -5.79372e-24)
(1.02167 0.00193851 3.57344e-21)
(0.990953 0.0696626 1.0449e-20)
(0.117863 -0.00866564 0)
(1.07247 -0.0991674 5.27848e-21)
(1.00039 0.00559905 -5.11347e-21)
(1.36588 0.235744 0)
(0.458624 0.220551 1.31652e-19)
(0.666233 -0.113584 7.68542e-22)
(1.23994 0.0201958 0)
(1.08608 0.00381904 -3.90312e-22)
(1.00541 0.006541 -1.91048e-21)
(1.19117 -0.174184 -3.20314e-20)
(0.150841 -0.0132473 -2.35906e-20)
(0.221216 -0.0180011 -3.65451e-20)
(1.23908 -0.0636385 -7.35529e-20)
(0.938693 0.00638617 -1.79597e-20)
(-0.269905 0.019209 1.60866e-19)
(1.08154 -0.159711 0)
(1.00459 0.0243788 6.50268e-22)
(1.07019 -0.00849057 9.00371e-21)
(1.06625 -0.095491 2.089e-22)
(0.894371 0.210392 4.1889e-20)
(0.977666 0.0376966 -2.07843e-21)
(1.27412 0.0163578 -1.8211e-20)
(1.08457 0.00254106 6.06451e-21)
(1.11657 -0.0139623 4.76634e-20)
(1.02141 0.00207171 -3.14941e-21)
(1.05373 0.0147548 0)
(0.942687 0.0459331 0)
(0.153931 0.0775254 0)
(0.182116 -0.0138349 3.10676e-20)
(-0.265084 0.00936391 0)
(0.997996 0.114809 3.14686e-21)
(0.0849974 -0.266742 -1.71668e-19)
(-0.0534851 -0.000711352 0)
(-0.0195953 -0.0139379 -4.75346e-20)
(1.11434 -0.016003 -3.57446e-23)
(1.02199 0.0283361 0)
(1.04166 0.00144997 1.50784e-20)
(0.689696 -0.138536 3.75447e-20)
(0.999524 0.0460591 0)
(1.01328 0.0109837 -2.66669e-23)
(1.24369 0.33812 -3.78482e-20)
(1.1169 -0.267391 1.57946e-20)
(0.67341 -0.134718 0)
(0.999138 0.00332334 -4.78034e-21)
(1.06026 0.00834869 -2.84796e-21)
(1.27535 0.235439 0)
(0.993681 0.0157683 -1.40119e-21)
(1.05964 0.178812 8.75679e-21)
(1.02253 0.0267171 -1.53386e-21)
(0.118178 0.0487905 -1.11617e-19)
(0.985453 0.036163 0)
(-0.0989909 0.00687618 5.85275e-20)
(0.199592 -0.0133211 -3.91412e-20)
(0.548007 0.00672127 9.06486e-20)
(1.02109 0.0283887 0)
(0.999999 0.000705272 7.14951e-21)
(1.05689 -0.0292233 -7.91831e-21)
(1.03275 0.0903649 -5.0999e-21)
(-0.0690798 0.00835467 -9.67365e-20)
(1.01634 0.0560384 0)
(0.999502 0.00447706 1.44861e-21)
(1.00032 0.00543312 5.06571e-21)
(1.15925 0.311564 -1.11792e-20)
(1.28293 -0.121531 2.5065e-20)
(-0.194368 0.014367 0)
(1.10315 0.0226546 -1.99944e-20)
(1.24109 0.030016 -5.52811e-22)
(1.03473 -0.00509363 -7.89214e-21)
(1.01283 0.0116109 -9.62061e-23)
(0.982495 0.0366014 0)
(0.170449 -0.00377144 6.65762e-20)
(1.31952 0.0940453 -2.44138e-20)
(0.0664782 -0.101928 8.30338e-20)
(1.11182 -0.109817 3.81242e-20)
(1.01465 0.100027 -1.13261e-22)
(1.05339 0.0158102 0)
(0.211362 0.829704 -7.04047e-20)
(1.08614 -0.000131978 -6.77218e-21)
(0.00985996 -0.0141186 9.63275e-20)
(0.990631 0.0355942 5.40645e-21)
(-0.203142 0.016067 0)
(1.04368 -0.258498 -1.89564e-21)
(1.16378 -0.0272774 2.83672e-20)
(0.999582 0.0287548 0)
(1.006 0.000406063 0)
(1.09276 0.0781746 3.61863e-20)
(1.16969 0.0989126 -4.32999e-20)
(0.290038 0.11849 -6.14766e-21)
(1.14099 -0.0100428 -4.78796e-20)
(1.00831 0.00653495 -8.4806e-22)
(1.01275 0.0101447 0)
(0.999986 0.000827924 2.52263e-21)
(1.24402 0.0241834 9.85171e-20)
(1.08831 0.261075 -1.87321e-20)
(0.587412 -0.0397689 5.88307e-20)
(0.983453 0.0534808 1.00313e-21)
(0.148923 0.0887387 5.9737e-20)
(1.24339 -0.0630421 -4.55958e-20)
(1.1933 -0.038938 2.66586e-20)
(1.03844 0.0274955 -1.19943e-20)
(1.27888 0.0179143 1.65513e-20)
(1.01693 0.0199783 0)
(0.996053 0.00968755 -8.95769e-21)
(1.09153 0.83228 0)
(1.00884 0.000668199 -2.78314e-22)
(1.00414 0.00744982 8.21327e-22)
(1.19667 -0.0322345 2.17391e-20)
(1.0033 0.0162233 5.63736e-21)
(-0.0178486 0.250871 0)
(1.08488 -0.00137459 0)
(0.926692 0.0168079 1.70267e-20)
(1.0085 0.000659594 3.8923e-22)
(1.1245 0.0915293 8.89559e-21)
(-0.206795 0.00229456 0)
(1.04849 -0.00870869 9.31476e-21)
(1.01465 0.00478581 -2.17568e-22)
(0.989481 9.61743e-05 -4.2972e-21)
(1.20077 -0.0751062 -6.46506e-20)
(0.123106 -0.0295471 0)
(0.999986 0.000880551 -1.97445e-21)
(1.00002 4.76302e-05 0)
(1.08815 -0.263172 4.038e-20)
(1.10904 0.13764 2.06363e-20)
(1.10725 -0.116085 1.96662e-20)
(0.637604 0.400601 -3.68917e-20)
(0.996272 0.00928311 -4.25209e-21)
(1.16513 0.0976878 4.09527e-20)
(0.964318 0.0293707 6.95889e-24)
(1.00003 8.39347e-05 -1.19166e-21)
(0.636602 0.370281 1.52905e-19)
(1.15592 -0.194714 0)
(1.11447 -0.239534 -4.15018e-20)
(1.20414 -0.0778374 2.83844e-20)
(1.01871 0.00151974 -2.1625e-21)
(0.647558 -0.111956 0)
(1.03875 -0.00848786 0)
(1.00426 0.0355456 -2.26454e-21)
(1.34896 0.102645 0)
(1.00059 0.0215191 3.9235e-21)
(1.24466 0.0272685 9.5057e-20)
(0.930837 0.314244 -1.02791e-20)
(1.00007 0.00573152 -5.43361e-21)
(1.01687 0.00330416 1.87794e-21)
(1.24205 0.0333509 1.01091e-19)
(0.0995724 0.0323132 -2.16732e-20)
(-0.0148356 -0.00364811 0)
(1.01868 0.0398651 -5.56178e-22)
(0.912962 0.0902517 3.12779e-22)
(-0.119958 0.00533664 0)
(1.02868 0.00218035 -8.06224e-21)
(1.28174 -0.115724 2.25591e-20)
(1.05196 -0.0309359 -1.69142e-20)
(0.962367 0.144515 3.72955e-21)
(1.28383 -0.111818 -4.43616e-20)
(1.01842 0.00155395 1.9621e-21)
(0.504306 0.735801 3.57874e-20)
(1.00239 0.033659 -2.80745e-21)
(0.911521 0.19959 3.71705e-21)
(1.00114 0.000306572 0)
(1.10817 -0.112957 -1.8012e-20)
(-0.208963 0.0052909 -1.77692e-20)
(0.999947 0.000191109 -3.60871e-22)
(0.172784 0.122922 1.00606e-19)
(1.11783 0.023894 -6.20921e-21)
(0.995211 0.00286306 5.61299e-21)
(1.14403 0.0773938 0)
(1.15582 -0.0371462 -3.61849e-20)
(1.06195 -0.0687123 -3.45785e-20)
(0.32652 -0.0652103 -2.3425e-22)
(1.12819 -0.0954703 -9.32993e-20)
(0.990936 0.0346738 -5.40397e-21)
(1.01627 0.0090784 -4.82858e-22)
(0.0805971 -0.00240807 2.95202e-20)
(0.699531 -0.0728435 -8.49834e-20)
(0.999793 0.00526312 -1.19816e-20)
(1.01315 0.0524018 -2.25886e-21)
(1.11485 -0.244737 0)
(1.18788 -0.177418 3.09052e-22)
(0.267632 0.730442 3.01913e-20)
(0.112558 -0.00601102 -4.06246e-20)
(0.998044 0.00430426 1.60427e-21)
(1.06017 0.0178251 0)
(0.0463512 -0.156376 0)
(0.999169 0.0240157 0)
(1.01582 0.0543295 1.52048e-22)
(1.25037 -0.045066 -3.08709e-20)
(1.1133 -0.021334 0)
(1.06066 -0.00380322 -1.79269e-20)
(0.132632 0.042117 -2.43679e-22)
(1.00001 0.000653019 3.1124e-21)
(0.829732 0.167431 0)
(1.27888 0.240782 8.6687e-20)
(-0.203837 0.00929437 7.97235e-20)
(1.01453 0.00447378 0)
(0.986164 0.0226079 -5.85946e-21)
(0.993587 0.0120312 -6.05764e-21)
(1.02331 0.0166826 0)
(0.833924 0.257253 7.84382e-20)
(1.02386 0.0164982 -2.68999e-21)
(1.11495 0.0983577 3.96771e-20)
(0.993926 0.0116759 -6.06579e-21)
(1.03615 0.0708017 -4.30522e-21)
(0.998069 0.00413831 0)
(0.941193 -0.00426341 -2.64378e-20)
(1.03218 0.00953473 -2.4109e-21)
(1.01045 0.0363175 2.939e-21)
(1.03081 0.0106506 -2.5888e-21)
(1.03078 0.0102831 0)
(0.998497 0.066359 2.81858e-21)
(0.563804 0.117714 -9.69263e-20)
(-0.0756047 0.224996 -9.1687e-21)
(1.02365 0.0264439 0)
(0.930493 -0.0752528 7.50017e-20)
(0.948286 0.156965 0)
(-0.0790208 0.233971 0)
(1.10261 -0.00500565 3.06422e-22)
(1.18231 0.057824 2.01451e-20)
(0.980993 0.0374108 0)
(1.00156 -0.0613411 0)
(0.957703 -0.00267875 1.6776e-20)
(1.0028 0.000670301 0)
(0.999401 0.00461868 0)
(1.01691 0.00484725 9.82138e-22)
(0.278312 -0.0560452 5.19962e-20)
(1.06086 0.0422975 0)
(1.01581 8.13078e-05 0)
(1.13533 0.0199131 -8.48e-20)
(1.11077 0.0977153 -4.18515e-20)
(0.999474 0.0248949 1.07329e-20)
(1.02858 0.00180333 4.68836e-21)
(-0.0344612 0.0107257 0)
(0.978056 0.0360759 2.64528e-21)
(1.01667 0.0205174 -2.99478e-22)
(0.136883 -0.658377 1.00628e-19)
(1.00369 0.0149328 -4.89917e-21)
(0.0553616 -0.0750008 0)
(-0.257408 0.0168162 -1.85114e-19)
(1.24988 -0.0483979 -2.72269e-20)
(0.913795 0.00239147 5.21526e-21)
(1.03964 -0.00901394 0)
(-0.178059 -0.000155244 0)
(1.00011 0.000585594 -2.0837e-21)
(0.998949 0.0160424 0)
(0.20277 0.665188 0)
(1.00003 0.000696817 0)
(1.02069 0.00207817 -9.33586e-22)
(-0.266294 0.0190612 -9.26693e-20)
(1.01196 0.011324 1.17955e-22)
(-0.195037 0.00434732 0)
(1.0929 -0.0610122 0)
(1.08311 -0.104972 -1.36567e-20)
(-0.240108 0.0207095 2.51495e-19)
(0.964174 0.025239 -2.40222e-20)
(0.999267 0.0156334 -2.02322e-21)
(0.745719 -0.111204 4.90236e-20)
(1.14869 -0.080165 3.97712e-20)
(-0.073031 0.240727 0)
(1.12126 -0.077034 -3.35425e-20)
(0.994118 0.0105712 1.44416e-20)
(1.00513 0.00646546 1.71283e-21)
(0.974409 0.0293238 -1.08293e-21)
(1.06892 -0.225879 -2.29313e-20)
(0.953027 0.203585 -4.5197e-21)
(1.00548 0.0372945 0)
(1 0.000468947 1.56686e-21)
(0.998048 0.0449634 -5.40785e-22)
(0.822124 0.176323 0)
(0.0646631 -0.175319 5.74565e-20)
(0.991151 0.105788 -1.23881e-20)
(0.975257 0.0279168 -9.21328e-21)
(1.00001 0.000645485 -1.4048e-21)
(1.10115 -0.00293516 0)
(1.26727 -0.0851314 -1.16253e-20)
(0.143044 -0.0332307 -9.84961e-21)
(-0.199011 0.0156929 1.15266e-19)
(0.92678 -0.0368372 -7.68569e-20)
(0.771586 0.139026 -5.97956e-20)
(0.845098 0.184511 0)
(-0.0748444 0.00156835 -8.92586e-20)
(1.038 0.00132296 -1.2628e-20)
(1.00858 0.00918546 3.24725e-21)
(0.989701 -0.000422304 4.63686e-21)
(1.02363 0.0254778 -1.12884e-21)
(0.819008 0.243501 3.11255e-20)
(0.996457 0.00768254 3.78522e-21)
(1.0158 5.39863e-05 0)
(-0.20914 0.0212461 0)
(0.810946 0.174695 1.91814e-20)
(1.14005 0.0744342 -1.98325e-20)
(0.294792 -0.0364481 0)
(0.759345 0.142055 7.40744e-20)
(0.123083 -0.00450408 0)
(1.01254 0.0266833 -1.33883e-21)
(1.0314 0.00950906 8.87332e-21)
(0.995186 0.0221887 3.06574e-21)
(1.00354 0.0063887 -2.52158e-21)
(1.00001 0.000323622 0)
(1.00001 0.00052367 -3.63849e-21)
(0.996104 0.00878166 0)
(-0.00226197 0.251415 1.08385e-21)
(1.01996 0.0396584 6.91453e-22)
(1.01828 0.00233128 0)
(1.32432 0.109221 -1.37056e-19)
(1.2207 0.123357 2.0718e-20)
(1.00826 0.00917499 4.65301e-22)
(1.04896 -0.0028779 1.6223e-20)
(0.928379 0.255345 3.39942e-21)
(1.03625 0.845885 0)
(0.991225 0.066998 -1.45711e-20)
(1.02658 0.0139208 1.66103e-21)
(1.05071 -0.0711425 1.31163e-22)
(0.945527 0.0445907 0)
(0.179054 0.125694 1.31303e-20)
(1.05106 -0.032487 1.51293e-20)
(1.02343 0.0175809 2.16862e-21)
(-0.183857 0.0113492 0)
(1.22282 0.120033 -2.27882e-20)
(1.01442 0.00834233 0)
(0.0450857 -0.0150801 5.01686e-21)
(0.000771246 0.264241 5.59866e-21)
(0.000747464 0.0321851 -1.0749e-19)
(1.02281 0.0177881 1.78042e-21)
(1.02615 0.0134379 -5.22371e-21)
(1.03022 0.0878926 5.54912e-21)
(1.19439 -0.0837101 3.72136e-22)
(0.964389 0.0178144 1.45058e-20)
(0.170452 0.0927384 0)
(1.11125 -0.231005 2.12718e-20)
(0.983801 -0.0741231 -1.02614e-19)
(1.32878 0.173084 1.12709e-19)
(1.01712 0.00464019 -9.73014e-22)
(1.08991 -0.0615416 1.79932e-20)
(0.182181 -0.0307526 -1.34245e-20)
(0.0842289 -0.00113508 -3.14242e-20)
(0.508057 -0.110329 0)
(0.978446 0.0259192 0)
(0.983578 0.100704 -6.66467e-21)
(1.00805 0.1026 4.65323e-21)
(-0.0259607 0.00187817 0)
(-0.212213 0.0201086 7.96151e-20)
(1.26588 -0.0745353 -9.29403e-20)
(0.986838 0.0368236 3.17528e-21)
(0.992646 0.0141493 0)
(0.998203 0.00264359 0)
(0.948552 0.208074 5.58492e-21)
(0.99633 0.00842745 0)
(0.813419 -0.121156 -3.83277e-20)
(1.00645 0.105333 1.6409e-21)
(0.325578 -0.0693427 3.80842e-20)
(0.985922 0.0149782 0)
(0.998421 0.043618 3.31278e-21)
(1.00597 0.000553595 2.20616e-22)
(0.864179 0.055138 -2.71678e-20)
(1.02986 0.130544 9.11971e-21)
(1.26438 -0.0902859 1.16974e-20)
(1.00261 0.0141356 0)
(1.18484 -0.059522 -5.09893e-22)
(0.973904 0.854283 6.00161e-20)
(1.07326 -0.0328827 2.68873e-20)
(1.00054 0.0287466 5.0244e-21)
(0.941431 0.038672 0)
(1.065 -0.0403254 1.21132e-20)
(1.00002 0.000695658 -8.91828e-22)
(1.10662 0.0436261 1.02062e-20)
(1.11569 -0.0193429 -2.9112e-20)
(1.07352 -0.0309543 -2.56758e-20)
(1.21744 0.162154 0)
(1.01379 0.0538332 3.22302e-21)
(1.01432 0.00791135 0)
(0.990349 -0.000477693 4.01128e-21)
(0.999971 0.00015712 2.60119e-21)
(1.11943 0.0924632 3.18416e-20)
(1.05956 -0.00477932 -4.25439e-23)
(1.15764 -0.0306317 0)
(1.01224 0.0258526 1.69798e-21)
(1.04111 -0.00537736 0)
(-0.00576126 0.231422 1.74094e-20)
(1.0181 0.00177636 -2.15106e-21)
(0.849098 -0.0262413 7.15018e-20)
(0.960081 0.0188598 0)
(1.1937 0.225724 -3.9694e-20)
(0.929614 0.0173725 0)
(0.259544 -0.0529544 5.67513e-20)
(1.04677 0.02289 6.29714e-21)
(-0.13867 0.0130465 1.09861e-19)
(0.92838 0.0590323 -1.65214e-20)
(0.936286 0.0290999 1.56057e-20)
(1.03002 -0.252133 2.49417e-21)
(-0.0289345 0.235859 1.94294e-20)
(1.07265 0.0810616 -6.39476e-20)
(1.07068 -0.0341642 -7.13336e-22)
(1.05941 0.0408126 -1.13122e-20)
(1.02297 0.0187103 9.58082e-22)
(0.993794 0.0138578 1.16989e-20)
(1.13885 -0.13105 -1.4658e-20)
(1.13842 0.0878094 2.22576e-20)
(0.973207 0.146113 2.03613e-20)
(1.07386 0.268848 0)
(-0.00212255 0.254053 -1.22324e-20)
(1.13585 -0.201015 0)
(1.00493 0.00051888 3.41108e-21)
(0.0386878 -0.00572091 1.44083e-19)
(1.07088 -0.0246737 -6.23452e-20)
(1.04878 -0.00488877 7.5346e-21)
(0.993315 0.0141171 -1.90927e-20)
(0.847352 -0.0199705 -1.81245e-20)
(0.210094 -0.0271556 3.28295e-20)
(1.09072 0.081653 -1.86393e-20)
(1.0001 0.00205321 0)
(0.701128 0.0356991 1.49693e-19)
(1.21108 0.16257 2.46336e-21)
(1.13658 0.137558 1.33432e-20)
(0.873547 0.0499362 0)
(0.626815 0.791353 3.61731e-21)
(1.07278 -0.00220487 0)
(1.19373 -0.0243653 -2.53683e-20)
(-0.0140619 0.000691856 0)
(1.28365 -0.104595 -1.72952e-21)
(1.34553 0.108921 0)
(0.832674 0.213958 2.5549e-20)
(1.1485 0.308725 0)
(1.08463 0.00757564 0)
(1.00175 0.000365949 0)
(1.04941 -0.00558442 7.99559e-21)
(0.99466 0.0238615 1.35195e-20)
(0.407588 0.0186088 0)
(0.472649 -0.248792 6.56658e-20)
(0.143357 -0.0159284 0)
(0.583907 0.115163 1.61997e-19)
(-0.155955 -0.00274788 2.59594e-20)
(-0.0315306 0.148494 0)
(0.713716 0.0272642 -6.44918e-20)
(0.987605 0.0732325 5.25961e-21)
(0.0719177 -0.00790862 9.0748e-20)
(0.734975 0.0575365 0)
(1.02235 0.0016796 -2.08903e-21)
(0.54739 0.0827883 8.40503e-20)
(0.0457459 0.221704 3.13052e-20)
(1.10602 0.00483538 0)
(0.995191 0.107654 7.95151e-22)
(1.01624 0.0036552 -3.37557e-21)
(1.07178 -0.00106849 -4.14849e-21)
(1.0692 -0.0116885 0)
(1.0629 -0.0402666 0)
(1.19046 0.0148675 -4.02113e-20)
(1.00099 0.0221594 2.2832e-21)
(-0.123474 0.0118932 0)
(0.996223 0.0674818 7.00349e-21)
(0.970346 0.0791683 0)
(-0.0130599 0.000887085 -2.13974e-20)
(1.01026 0.0246388 2.65341e-21)
(1.0277 0.135716 3.11667e-21)
(0.568337 -0.12521 0)
(0.999037 0.0148435 2.03453e-21)
(1.04391 0.041462 0)
(0.0310596 -0.00796711 0)
(1.00992 0.00296807 0)
(1.1836 -0.0622646 -2.74285e-20)
(1.01839 0.00176064 2.40953e-21)
(-0.0294785 0.215033 -2.2431e-20)
(1.07062 -0.0359166 5.92869e-21)
(1.10243 -0.0467076 -1.19756e-20)
(0.967629 0.148596 9.92269e-21)
(1.05568 0.0675894 3.14798e-21)
(1.19286 -0.0801556 -6.20514e-21)
(0.920532 -0.0001491 2.21006e-20)
(0.249428 0.0458543 0)
(1.12126 -0.103116 0)
(1.03511 -0.00176763 0)
(-0.162705 0.00848169 -1.09972e-19)
(1.10243 -0.0493385 2.77869e-20)
(0.556649 0.800873 -4.62012e-21)
(-0.281964 0.014457 8.0812e-20)
(1.30316 0.111231 8.82347e-20)
(1.2565 -0.0815117 1.12465e-20)
(0.998146 0.0225323 8.16405e-21)
(1.01776 0.00550128 6.26202e-22)
(-0.00351935 0.26704 -1.07231e-20)
(0.939277 0.0403796 0)
(1.10932 0.0426092 0)
(1.00005 0.00153916 0)
(1.08618 0.00654557 0)
(0.967248 -0.0331629 9.00288e-20)
(0.521318 -0.0371128 -4.67606e-20)
(1.1186 0.0961795 -4.24275e-20)
(-0.175278 0.00891785 -1.31182e-19)
(0.819425 0.230244 3.17776e-20)
(1.01626 0.0684318 0)
(1.01647 0.00388577 -9.86571e-22)
(1.0001 0.0018692 0)
(1.13876 0.0202503 4.58455e-20)
(1.09145 0.254372 -3.43558e-20)
(1.02688 0.00741921 0)
(1.19481 0.102757 9.29573e-20)
(0.998817 0.119288 -4.06722e-21)
(1.1052 0.140045 0)
(1.0144 0.00011929 0)
(0.010556 -0.0141229 -2.149e-20)
(-0.0684039 0.00953001 -6.05134e-20)
(0.993196 0.02448 -4.15116e-21)
(1.02213 0.00206171 9.92757e-22)
(1.14479 -0.086734 0)
(1.00005 0.0013824 -2.06081e-22)
(1.01487 0.00854144 0)
(-0.0476861 0.152055 0)
(0.54848 0.0994441 1.03505e-19)
(0.968628 0.0269562 0)
(0.994253 0.0145348 6.17883e-22)
(1.12293 -0.171969 -3.08583e-20)
(1.13502 0.0805462 2.16864e-20)
(1.05759 -0.0326659 1.34825e-20)
(0.710251 -0.062613 0)
(1.01096 0.035388 0)
(0.201448 -0.037454 0)
(1.1374 -0.0312977 4.35983e-20)
(0.983981 0.0338625 0)
(0.433539 0.161129 9.26396e-20)
(0.0399237 0.00111468 0)
(1.00385 0.00790143 1.57771e-21)
(0.579526 -0.0408314 4.66712e-20)
(1.01531 0.00485256 1.30379e-21)
(0.999315 0.0145331 0)
(0.964363 0.0162083 -1.68754e-20)
(0.826959 0.000802326 0)
(-0.052668 0.0148962 7.25856e-20)
(1.1157 0.0258059 0)
(0.00164141 -0.00318635 0)
(1.018 0.139962 -1.80395e-21)
(0.4386 -0.0746965 -2.66543e-20)
(1.35926 0.176426 -3.0136e-20)
(1.08553 0.0103967 2.61885e-20)
(-0.169408 -0.00146706 -1.39103e-20)
(0.985881 0.023766 -6.25485e-21)
(0.571509 0.0323956 0)
(1.0496 -0.00367738 -1.69006e-20)
(0.256068 0.00589232 -9.39413e-21)
(0.0778474 -0.0151536 -3.00806e-20)
(0.997783 0.0406792 -3.93381e-21)
(0.128783 0.572886 -6.26444e-20)
(1.02951 0.0823857 -3.88919e-21)
(0.924824 0.0606002 9.62136e-21)
(0.943587 0.070882 -6.25868e-20)
(0.656966 0.0939815 -1.26304e-19)
(-0.156421 -0.00176874 0)
(1.01002 0.00992332 0)
(0.272232 -0.0532417 -4.47643e-20)
(0.988977 0.0132388 -8.27391e-21)
(0.309935 0.0267453 0)
(1.04027 0.00211973 -3.02869e-21)
(1.00231 0.106584 2.97297e-21)
(1.06604 -0.0378484 1.10886e-20)
(1.01204 0.0136631 -1.0338e-21)
(1.01411 0.000637827 8.29705e-22)
(1.12435 -0.0549508 0)
(1.06127 -0.0798729 3.52945e-20)
(1.16167 0.00709132 3.97885e-20)
(1.0049 0.00607968 0)
(0.143146 0.162487 1.58959e-19)
(1.08387 0.0116421 -2.00474e-20)
(1.01152 0.0135763 0)
(0.998046 0.0027734 0)
(0.943544 0.0991792 -1.83422e-20)
(1.2056 -0.0612721 -3.07346e-20)
(0.811039 0.0555629 -6.64345e-20)
(1.11208 0.02575 0)
(1.00928 0.00046975 -1.13313e-23)
(1.03745 0.0952503 -7.3075e-21)
(0.245289 -0.0536893 4.70723e-20)
(0.999341 0.104894 7.48817e-22)
(0.999897 0.0216076 2.09513e-21)
(1.01232 0.0139943 9.69756e-22)
(1.03964 0.0976049 8.34324e-21)
(1.09953 0.0188342 -1.70779e-20)
(-0.150713 0.00841164 -5.16439e-20)
(1.01002 0.0237943 -8.65097e-22)
(1.17059 0.457183 0)
(0.901072 0.217969 3.79348e-20)
(1.13859 -0.0207479 5.96694e-20)
(-0.00793447 0.0317741 0)
(0.0524706 0.166589 -1.6453e-20)
(1.01613 0.00282064 2.44373e-21)
(1.08367 -0.0969376 0)
(1.00471 0.0236782 -3.46227e-21)
(1.02151 0.0436614 6.48773e-22)
(1.08455 -0.00541783 0)
(0.0557516 0.221018 2.88745e-20)
(1.00794 0.00563996 4.2537e-22)
(1.02241 0.0189144 9.16043e-22)
(1.01266 0.000453473 -6.57519e-22)
(0.685924 0.0381412 1.30894e-19)
(0.960564 0.0497958 -6.43149e-22)
(1.03557 -0.00213887 0)
(1.05007 0.126902 -2.53434e-21)
(1.08693 0.0814048 0)
(0.263665 -0.0222767 0)
(-0.253403 0.00581217 -1.35454e-19)
(1.00394 0.0110576 -2.36768e-21)
(0.988019 0.00656975 0)
(0.223653 -0.0183483 -1.34753e-20)
(0.985388 0.0344688 0)
(0.000465533 -0.0148703 1.90618e-20)
(0.0981911 -0.0216993 0)
(-0.053493 0.00432609 -2.25416e-20)
(0.665728 0.354964 -1.20571e-19)
(0.826305 0.448444 9.45714e-21)
(1.05692 -0.180555 5.57759e-20)
(1.06852 -0.0380086 -2.74665e-20)
(0.999271 0.00320765 5.9146e-21)
(1.01237 0.0117216 -2.45373e-22)
(1.00209 0.0348638 5.45604e-21)
(0.971042 0.0251498 1.70934e-20)
(0.999784 0.00551309 2.74572e-23)
(0.969464 0.0249774 -2.82426e-20)
(0.932614 0.014089 5.44783e-20)
(-0.00469794 0.263525 3.86616e-23)
(1.03794 0.0285015 9.72793e-21)
(0.665973 0.185795 -1.06219e-19)
(1.00966 0.00367839 0)
(1.01812 0.0677936 1.58673e-22)
(1.10797 0.102332 -3.75809e-21)
(1.00044 0.00605903 0)
(0.968829 0.0813902 0)
(1.0449 0.0425048 0)
(0.354334 0.0244128 -2.24499e-19)
(0.0953883 -0.109123 -1.39658e-19)
(1.16588 0.090998 3.89715e-20)
(-0.128464 -0.00424544 -1.04007e-19)
(0.837932 0.192483 2.05036e-20)
(0.075475 0.148964 4.11e-20)
(1.0954 0.266173 2.1215e-20)
(0.638205 -0.116032 -4.95225e-20)
(0.0450421 -0.0175768 -6.83528e-20)
(1.1398 -0.0288008 -4.67928e-20)
(0.922769 0.786169 -4.92576e-20)
(1.14057 -0.204445 -2.18008e-20)
(-0.282254 0.0133994 9.3083e-21)
(1.03334 0.00302399 -2.81007e-21)
(0.993781 0.010983 5.28843e-21)
(1.00353 0.00592378 1.24238e-21)
(1.07071 -0.0107619 -1.43797e-20)
(0.869002 -0.201613 -4.45811e-20)
(1.0132 0.0104426 -7.75236e-23)
(0.999953 0.000374508 -3.01092e-21)
(1.18777 0.0240569 6.13831e-20)
(1.00737 0.00314941 -3.90588e-23)
(1.01523 0.199522 0)
(1.01317 0.187199 0)
(1.00024 0.00073851 -2.38431e-21)
(1.08977 -0.194092 0)
(1.03508 -0.000621584 3.51187e-21)
(0.987439 0.00628395 5.07093e-21)
(1.12727 -0.175127 2.60751e-20)
(1.01605 0.00719691 -6.61865e-22)
(1.23782 0.0810542 -2.72963e-20)
(0.443117 -0.252342 1.85026e-20)
(1.00097 0.0386261 3.27617e-21)
(1.04423 -0.00784226 -7.18786e-21)
(1.0112 0.0131919 -4.73652e-22)
(0.939416 0.273294 -1.53363e-21)
(1.00827 0.00619284 0)
(1.04901 0.0499371 -9.58683e-21)
(1.32315 0.190181 -1.12792e-19)
(0.988545 0.000748084 9.13855e-21)
(0.0889686 -0.00802859 -4.25664e-20)
(1.03771 0.0242702 -6.90139e-21)
(0.115225 -0.00509748 -1.55895e-20)
(1.05533 -0.0152585 0)
(1.11423 -0.148783 0)
(0.999259 0.0127128 2.67874e-22)
(1.08906 -0.118284 1.86083e-20)
(1.10351 0.101679 5.9562e-21)
(0.999341 0.00299256 -3.60381e-21)
(1.0018 0.0394885 0)
(0.113872 -0.00754503 9.30847e-20)
(0.993183 0.015328 1.2027e-20)
(-0.291616 0.0131943 8.4474e-20)
(-0.283434 0.0132829 0)
(0.982346 0.0520171 0)
(1.00126 0.000318626 0)
(1.00062 0.00619007 -1.43633e-21)
(1.01914 0.0035166 -7.90871e-22)
(-0.051186 0.160241 0)
(0.994858 0.0142652 0)
(0.150783 -0.00721959 -5.8597e-20)
(-0.00599289 0.271747 2.68164e-20)
(1.10928 0.131967 0)
(-0.00554438 0.0468266 1.54681e-19)
(1.0097 0.000618327 -2.19002e-25)
(1.00362 0.0208573 6.79261e-21)
(-0.0074028 -0.00517245 -1.50918e-19)
(0.0112654 -0.0134897 -3.74556e-20)
(0.922585 -0.0024146 -4.69383e-20)
(1.0005 0.00934918 0)
(0.995882 0.0225829 -7.02732e-21)
(1.01283 0.0111425 0)
(1.04462 -0.0112131 -3.8401e-21)
(0.864432 0.178366 -2.93583e-20)
(0.351968 0.390556 6.8776e-20)
(1.05089 0.0682866 1.40858e-21)
(0.16269 0.123713 -1.51057e-20)
(0.117498 0.169334 -8.63801e-20)
(1.14153 -0.267609 -3.47961e-20)
(0.856994 0.0686349 -6.95078e-21)
(1.03379 0.014954 -8.5307e-21)
(-0.182361 0.00752679 -6.61457e-20)
(-0.0577407 0.23782 0)
(1.05272 0.125114 0)
(0.999478 0.0124159 -3.76626e-21)
(0.977939 0.0234865 -1.41982e-20)
(0.100698 -0.0180494 -5.52793e-20)
(0.996217 0.00800068 6.80988e-21)
(-0.0334782 0.206755 -4.61984e-20)
(0.833001 0.246415 -1.28747e-22)
(1.00006 0.00072574 3.20318e-21)
(0.9475 0.100693 0)
(1.01558 0.000157875 -1.54254e-21)
(1.11025 0.0243884 0)
(1.07007 0.0660159 -1.14121e-20)
(1.00716 0.00297678 0)
(1.01756 0.00183525 1.06471e-21)
(1.04357 -0.0106059 0)
(-0.119529 0.00656625 -4.63994e-20)
(1.00021 0.00117413 -1.5563e-21)
(1.06973 -0.102641 7.13616e-22)
(-0.052596 -0.00231639 -5.69294e-20)
(0.978583 0.0219481 0)
(1.00326 0.0156069 -5.88365e-21)
(0.827903 0.156096 3.69403e-20)
(0.129499 0.176915 1.63599e-20)
(1.10096 0.00181811 4.79833e-20)
(0.00221903 -0.00479638 3.67384e-20)
(0.95842 -0.000796745 -2.41191e-23)
(1.01914 0.00332133 -1.25977e-21)
(0.939061 0.00318128 3.29106e-20)
(0.0486129 -0.0011969 -8.65508e-20)
(0.410651 0.175859 1.67326e-21)
(0.1798 0.11197 0)
(1.00906 0.00043946 2.07862e-22)
(0.86757 0.0483009 2.48557e-20)
(1.00349 0.0334077 3.38075e-21)
(-0.0245057 -0.00331217 -4.60379e-20)
(1.02331 0.00737505 -1.50852e-23)
(1.10062 -0.192979 -2.97311e-20)
(0.856975 0.187669 3.15166e-20)
(-0.0569508 0.185166 2.36962e-20)
(1.0004 0.00158858 2.92209e-21)
(1.00473 0.00196444 -1.9392e-21)
(0.802481 0.454698 0)
(0.99782 0.021197 0)
(-0.139396 0.00747537 0)
(1.03752 0.00198907 8.49527e-21)
(0.184451 0.525534 -1.15783e-19)
(1.00005 0.000616686 -6.0232e-21)
(1.01235 0.0102913 2.80596e-22)
(0.932994 0.0261503 0)
(1.14904 0.449311 8.38085e-21)
(-0.198167 0.023231 0)
(1.0312 0.0935673 -1.73043e-22)
(1.04764 0.0169097 3.304e-21)
(0.962978 0.0240319 -2.61623e-20)
(1.03552 -0.0010679 0)
(1.027 0.00700228 -3.9603e-21)
(0.999979 0.000280169 0)
(1.20806 0.015575 0)
(1.00544 0.0476267 -4.36803e-21)
(0.481465 -0.0949052 -1.30814e-20)
(1.01201 0.0728826 1.0595e-22)
(-0.0341676 -0.0118167 0)
(1.03474 0.00275464 0)
(1.01901 0.00412051 0)
(1.30567 0.15903 9.52421e-20)
(0.011004 -0.0160626 0)
(0.645608 -0.0430396 -4.71171e-20)
(1.0172 0.0499329 3.6923e-22)
(0.319117 -0.0106048 2.01415e-21)
(1.03526 0.00223431 0)
(0.0110141 0.226193 0)
(0.96334 0.0275173 7.28433e-21)
(1.23689 0.0369198 9.50727e-20)