/*--------------------------------*- C++ -*----------------------------------*\
| =========                 |                                                 |
| \\      /  F ield         | OpenFOAM: The Open Source CFD Toolbox           |
|  \\    /   O peration     | Version:  v2012                                 |
|   \\  /    A nd           | Website:  www.openfoam.com                      |
|    \\/     M anipulation  |                                                 |
\*---------------------------------------------------------------------------*/
FoamFile
{
    version     2.0;
    format      ascii;
    class       volScalarField;
    location    "750";
    object      k_0;
}
// * * * * * * * * * * * * * * * * * * * * * * * * * * * * * * * * * * * * * //

dimensions      [0 2 -2 0 0 0 0];


internalField   nonuniform List<scalar> 
18355
(
0.000162376
0.0418843
0.000147345
0.00014561
0.000150346
0.00018792
0.000147578
0.000174733
0.000151233
0.0427331
0.000145018
0.0303796
0.00018413
0.000148008
0.00014884
0.000151899
0.0137047
0.00014623
0.000148266
0.0384755
0.000154216
0.000149381
0.0745538
0.000150373
0.000155653
0.000148876
0.00014837
0.000150902
0.0143959
0.00014785
0.000149031
0.000152256
0.000146208
0.000146843
0.000168807
0.000163067
0.000149895
0.00018277
0.000150705
0.000145185
0.000148017
0.000168519
0.000147373
0.0324093
0.00014787
0.000183755
0.000170225
0.000151932
0.000168012
0.000146352
0.000145047
0.000147272
0.000149836
0.0709382
0.000148449
0.000148367
0.000203416
0.00014896
0.000461137
0.000184169
0.000146375
0.00018001
0.000146129
0.000162948
0.0340035
0.000161771
0.00775882
0.00015776
0.00014841
0.000149228
0.000172147
0.000149684
0.000185301
0.000146548
0.000174639
0.000147554
0.0657941
0.000152085
0.000159316
0.000147024
0.000147659
0.000264021
0.000153909
0.000164565
0.000148821
0.000183708
0.036249
0.0377543
0.0157456
0.0781228
0.00025223
0.000148279
0.000148611
0.000144417
0.00670076
0.0708131
0.000147229
0.000156127
0.0685198
0.00856735
0.0128499
0.0101654
0.000164611
0.0269305
0.000151103
0.000191835
0.0193852
0.000177216
0.000161903
0.000184787
0.00014764
0.000150346
0.00014889
0.000150564
0.0617447
0.000147851
0.000477962
0.0649143
0.000474977
0.000164566
0.0458977
0.000501602
0.000151979
0.000171985
0.000147221
0.000177677
0.000147254
0.000149726
0.00138026
0.000144437
0.000145089
0.0372856
0.000172895
0.000155872
0.0001615
0.000149696
0.000148096
0.000144996
0.000147853
0.000173073
0.0149681
0.0200033
0.000149428
0.000147633
0.000189178
0.000149101
0.000153851
0.0266751
0.000152624
0.024266
0.000149693
0.000149166
0.000167807
0.000432812
0.000189459
0.000149782
0.03459
0.000471734
0.000149764
0.000181227
0.00015582
0.000153712
0.000156931
0.000156381
0.00022949
0.000272112
0.0633854
0.000166493
0.000201553
0.000146395
0.0269502
0.0662605
0.000144926
0.000145027
0.000151882
0.0317394
0.000182246
0.000148555
0.000608461
0.0493061
0.000166001
0.00020124
0.000158316
0.000147257
0.00023541
0.0333091
0.0808237
0.000218331
0.000151329
0.0108743
0.000202715
0.000147419
0.000156205
0.0302287
0.000162806
0.000149325
0.012456
0.00015804
0.000168024
0.000145028
0.000151041
0.000152257
0.0481569
0.077714
0.00906211
0.000156874
0.000474917
0.0545851
0.0601521
0.000167843
0.000148056
0.000149472
0.0396438
0.000149246
0.000146396
0.000250227
0.00204401
0.0403648
0.000148944
0.000152476
0.000244871
0.000147795
0.000163978
0.000147971
0.0563368
0.000148823
0.0469111
0.0324606
0.000170347
0.000148039
0.000149813
0.00015868
0.000155376
0.0501234
0.000150577
0.000148827
0.000148618
0.000184326
0.00112987
0.00863334
0.000161217
0.000199874
0.000149275
0.000146468
0.000149002
0.0268614
0.0102325
0.000471334
0.000189365
0.000155714
0.000151048
0.000534053
0.000158649
0.0633694
0.000148551
0.0306374
0.00905421
0.000181109
0.000147788
0.000147516
0.000161098
0.00017401
0.0565967
0.000173645
0.000146673
0.000146367
0.00014974
0.000204117
0.000170543
0.000168415
0.000150338
0.0108684
0.000222746
0.00019057
0.000149359
0.0129972
0.000147111
0.000147945
0.000770883
0.000146709
0.000147548
0.000190251
0.000147343
0.0156314
0.00015847
0.000152489
0.000146908
0.000166453
0.0333208
0.00015231
0.000145638
0.000147964
0.000200004
0.0572637
0.000149764
0.000149847
0.00397563
0.000165653
0.000190166
0.000178659
0.000147964
0.000172815
0.000149769
0.000149773
0.000176286
0.000232125
0.00025541
0.000202199
0.000144517
0.000167067
0.00015083
0.000148236
0.00248622
0.000147485
0.000205019
0.000168005
0.00014856
0.000145125
0.000200842
0.00979813
0.0587086
0.000148955
0.000156599
0.0286806
0.000146933
0.00126895
0.000158764
0.000158967
0.000293952
0.000144514
0.000316403
0.000148063
0.000162047
0.000148709
0.000189543
0.0333686
0.000149787
0.0420447
0.000164746
0.000148198
0.000169555
0.000180717
0.0386902
0.0684252
0.0218406
0.000148495
0.000146084
0.0709062
0.000164217
0.00014867
0.000150035
0.00026727
0.000235224
0.00042501
0.0748386
0.000148521
0.000152161
0.00051805
0.000147604
0.000150343
0.000225897
0.000168326
0.000153661
0.00923689
0.000149825
0.000162114
0.000259888
0.00686739
0.000145598
0.000148151
0.000147859
0.000147215
0.000165443
0.000147223
0.00016512
0.000147876
0.000153225
0.000148543
0.000151029
0.000147631
0.000148279
0.000147523
0.000147501
0.000151431
0.000170621
0.0195168
0.000147979
0.0528505
0.000159467
0.0205385
0.000163038
0.000177411
0.000149157
0.0482175
0.00014974
0.000147886
0.000148778
0.000145486
0.06718
0.000153232
0.000146699
0.000169536
0.000164848
0.000147617
0.000146934
0.05293
0.000149211
0.000147147
0.000526124
0.000147345
0.000460635
0.0090868
0.000226036
0.000153494
0.000151103
0.0386128
0.000149601
0.000147578
0.000440782
0.000149778
0.000144924
0.0120441
0.000146509
0.0359081
0.000173013
0.000184439
0.0117203
0.000149574
0.000147585
0.0561655
0.000187786
0.0269408
0.0273858
0.000147897
0.000147322
0.000149064
0.00769438
0.000162308
0.000148387
0.000149817
0.000149174
0.000162482
0.000473728
0.000155917
0.000148958
0.000149824
0.000162496
0.000260233
0.0590208
0.0316173
0.0635788
0.000162917
0.000162307
0.0390929
0.000148851
0.000146752
0.000147952
0.000147954
0.000165
0.000148064
0.000146299
0.00692965
0.000162624
0.00016878
0.0795651
0.000163307
0.0277727
0.00014753
0.000147567
0.00014774
0.00014769
0.000149879
0.000149866
0.000147991
0.020752
0.000148961
0.00014479
0.000383593
0.000185361
0.000146813
0.000151364
0.000164628
0.000725458
0.000151511
0.000147277
0.0396004
0.000151942
0.00937591
0.000159151
0.00014728
0.00723835
0.000185373
0.000146098
0.0666287
0.0176812
0.0497891
0.000147264
0.000147164
0.000154845
0.000200034
0.000149432
0.0104344
0.00463427
0.0473663
0.000180455
0.00014543
0.000172753
0.0446442
0.0706203
0.0553593
0.000148686
0.000155386
0.000155791
0.0523106
0.00981566
0.000263389
0.000148843
0.000147831
0.000148724
0.00016257
0.000148013
0.0486428
0.000156407
0.0624619
0.000148054
0.000149019
0.00014742
0.000157397
0.000159319
0.00023567
0.000147452
0.000192055
0.000441279
0.00016179
0.000147782
0.000152059
0.00016266
0.000149799
0.000161958
0.000168553
0.000161429
0.000184563
0.000150249
0.000146061
0.000147953
0.000149844
0.000165642
0.00015366
0.000180076
0.000147451
0.000150392
0.0246475
0.000144583
0.000157524
0.000149707
0.000182612
0.000152204
0.0670601
0.000150123
0.0109888
0.000154068
0.000152055
0.0104367
0.0252372
0.0507879
0.000161847
0.000152905
0.000147343
0.000147831
0.000199658
0.00016855
0.000159141
0.000169719
0.0201257
0.0002304
0.000147375
0.0638224
0.0501962
0.000151701
0.000147817
0.000157579
0.0752262
0.000161063
0.000149397
0.000163907
0.000183059
0.000168961
0.000156819
0.000334618
0.000155761
0.000188335
0.0305827
0.000545772
0.00402087
0.000163893
0.000180693
0.000157726
0.000148383
0.000151793
0.000147807
0.00018308
0.000185599
0.0372968
0.00017006
0.0417713
0.0105164
0.000163114
0.00015231
0.0334655
0.0805442
0.000145144
0.000170929
0.0102205
0.0504013
0.000156138
0.000145273
0.000155647
0.000156497
0.00016241
0.000182698
0.000147479
0.0107861
0.000151534
0.000153331
0.055025
0.00014735
0.00015956
0.0521538
0.000147615
0.000150989
0.065968
0.000146151
0.000192282
0.000144591
0.0144898
0.000162091
0.000171162
0.000159127
0.000154605
0.000198897
0.000153146
0.0225209
0.000188567
0.000148683
0.0257601
0.000171721
0.000355627
0.0175593
0.000168898
0.000246339
0.000147608
0.000145572
0.0169985
0.000152193
0.000162543
0.000149564
0.000157869
0.0601438
0.0881208
0.000165748
0.0138597
0.000164552
0.000151857
0.000145299
0.000149489
0.000170189
0.000170519
0.000146729
0.0336103
0.000157204
0.000165518
0.00014982
0.0634118
0.0497224
0.000147884
0.000145158
0.000188433
0.000149614
0.000146095
0.0123668
0.000171779
0.000149381
0.000147805
0.000212331
0.000167974
0.000159792
0.000163837
0.000148251
0.0478099
0.000175738
0.000148754
0.000184262
0.0648365
0.000147588
0.0864514
0.000145595
0.00014763
0.000149362
0.000158693
0.0493888
0.000164204
0.0334653
0.00015951
0.04868
0.000123518
0.000157595
0.0390805
0.000148202
0.0838891
0.000151604
0.0309565
0.0415309
0.000148753
0.000460851
0.000154124
0.000154468
0.0646297
0.000166107
0.0422714
0.00014661
0.0686345
0.000147957
0.0282012
0.000149189
0.000156124
0.000162121
0.000146632
0.000145343
0.000177551
0.034343
0.0407684
0.000147363
0.000337879
0.000157194
0.000146673
0.000148675
0.000155975
0.000198813
0.0764461
0.000163307
0.000149842
0.000156249
0.0593537
0.000155998
0.000147518
0.000146642
0.000156729
0.000160419
0.0149937
0.000147284
0.000227439
0.000162957
0.0401569
0.0480765
0.00796935
0.000145075
0.000182316
0.000147384
0.000149486
0.000158854
0.0122954
0.000146702
0.00014732
0.000147327
0.0818035
0.0001512
0.000148813
0.000160183
0.000160395
0.0827193
0.0231685
0.000147457
0.000148007
0.0803147
0.000148737
0.0629813
0.0463978
0.0526351
0.000175154
0.00017789
0.014925
0.000162451
0.00014901
0.000146506
0.000148182
0.000149148
0.000148614
0.000149233
0.070939
0.00937882
0.000149389
0.000167447
0.000146232
0.000151965
0.00016439
0.00014845
0.000153576
0.000151196
0.000192206
0.000373298
0.000172813
0.0465187
0.000162803
0.00843949
0.000170914
0.040678
0.0680766
0.00017586
0.000438282
0.000233503
0.0176624
0.000147873
0.000147885
0.000147701
0.000156669
0.0279856
0.000146362
0.000149829
0.00018097
0.000146695
0.000163051
0.000162348
0.000149397
0.00986114
0.000148528
0.000148011
0.000213939
0.000145886
0.000191944
0.000186216
0.000148545
0.00015146
0.000146668
0.000165589
0.000146668
0.000152286
0.000125073
0.000147981
0.071938
0.000149092
0.0751698
0.000154849
0.000201643
0.000147719
0.000189052
0.000163969
0.000149061
0.000148583
0.075236
0.000147808
0.0175024
0.0198009
0.000150276
0.000148635
0.000148401
0.000145155
0.0131719
0.000147789
0.0788083
0.0076199
0.00016568
0.0389334
0.000147142
0.000147323
0.059566
0.0641292
0.000152706
0.000147939
0.000147723
0.000146438
0.000152334
0.000161691
0.000226889
0.000154183
0.00999738
0.000349217
0.00125394
0.000158166
0.000148047
0.0244058
0.0274283
0.000160309
0.000147737
0.000148635
0.0739276
0.00014804
0.0144214
0.000165131
0.000149658
0.000156058
0.000145955
0.000163041
0.000156286
0.000146712
0.000144616
0.000152038
0.0339114
0.000149436
0.000182907
0.037454
0.00014854
0.000147351
0.000161663
0.00879534
0.000161931
0.0619855
0.000149682
0.000145094
0.000151391
0.028098
0.000186632
0.000291198
0.000147786
0.000157161
0.000148057
0.0578632
0.000146132
0.00989209
0.000162314
0.0150498
0.00014921
0.000147287
0.000177776
0.000147614
0.0288179
0.000148701
0.000396106
0.000149682
0.00014641
0.000152236
0.000212718
0.0225176
0.000155627
0.000150083
0.000149601
0.000148654
0.000146711
0.000149862
0.000187508
0.000149442
0.0503386
0.000152276
0.0589164
0.000148143
0.00014528
0.00017986
0.064041
0.0840079
0.000149948
0.0382416
0.000148269
0.00763383
0.000149748
0.000196691
0.000146983
0.0520367
0.000147234
0.000156227
0.000148229
0.000147442
0.000149725
0.063759
0.0148825
0.0434712
0.000158301
0.000156756
0.000153889
0.000147788
0.00014562
0.000146155
0.000151465
0.000190663
0.00014902
0.0146977
0.000183427
0.000147921
0.000149817
0.00712526
0.000199725
0.000151344
0.000153738
0.000158782
0.0228502
0.000178435
0.0834914
0.000182557
0.000187951
0.000173754
0.000147975
0.000147222
0.000181422
0.00016126
0.000147995
0.0397751
0.000156393
0.0177336
0.0001495
0.000184551
0.000158274
0.000173736
0.00015583
0.000148288
0.000116221
0.000148376
0.0135469
0.000148298
0.000148252
0.0590886
0.000162504
0.000157943
0.0672974
0.000147343
0.000168136
0.0286304
0.000147799
0.000168603
0.0332638
0.000150692
0.000147276
0.000148422
0.00015367
0.000153299
0.000189234
0.0131505
0.000152355
0.000155276
0.0347506
0.000145496
0.00805663
0.000154741
0.00015209
0.000338408
0.0106383
0.000146073
0.000147326
0.000152953
0.000146199
0.000145721
0.0859152
0.00014979
0.00015821
0.000145198
0.000163275
0.000146069
0.000170225
0.000217045
0.000151475
0.0540368
0.000147423
0.000152624
0.00014755
0.0489232
0.000156638
0.000146919
0.00014792
0.000149039
0.000147282
0.000190211
0.0540293
0.0220123
0.0447708
0.000149161
0.000149522
0.000190629
0.000148756
0.000146179
0.000250848
0.0472117
0.000152261
0.000148302
0.0285707
0.000149462
0.000149174
0.0464356
0.000188668
0.00258671
0.000151081
0.000148016
0.0406044
0.000148907
0.000157812
0.000149437
0.000161092
0.000148011
0.000177557
0.000195968
0.00017189
0.000148554
0.0461115
0.0001502
0.000146948
0.000149253
0.000148318
0.000147627
0.000148943
0.0584924
0.000149692
0.0496136
0.000149513
0.000159026
0.0672172
0.000146491
0.00018819
0.00015111
0.000146427
0.000151668
0.000187628
0.000148158
0.000147382
0.000148745
0.000148032
0.000179189
0.000145812
0.000149559
0.000156489
0.000148498
0.000159236
0.0127256
0.0473562
0.0141936
0.0802782
0.000190195
0.000173571
0.0833457
0.0366609
0.000148563
0.000149126
0.000145451
0.000171665
0.0217216
0.000161569
0.000154622
0.000145284
0.00014758
0.000148976
0.000152172
0.039567
0.0550416
0.00953533
0.000179871
0.000148574
0.000149534
0.000148957
0.0292646
0.000587649
0.000147791
0.000337664
0.00014568
0.000161863
0.000152046
0.000163025
0.0001613
0.000256053
0.000151131
0.000170471
0.000145954
0.000147163
0.00017405
0.000147474
0.000148291
0.000179317
0.00022293
0.000148757
0.000166632
0.000147471
0.000148025
0.000146544
0.00014788
0.0623953
0.000157991
0.000151101
0.000148784
0.0511967
0.000172912
0.000148394
0.00015765
0.000161014
0.0197838
0.000221816
0.0594932
0.000197722
0.000184597
0.000196936
0.000201167
0.000170612
0.0333956
0.000145095
0.000147383
0.000147526
0.000173031
0.000148867
0.0214565
0.000147466
0.000148756
0.0608022
0.000173206
0.000149491
0.000165658
0.000147561
0.000150768
0.000272492
0.000185272
0.000147666
0.000231653
0.000185197
0.0113422
0.0630677
0.000148015
0.0325073
0.000147411
0.000167802
0.000146953
0.00014677
0.0427177
0.000162065
0.00015227
0.000147597
0.0431678
0.000154105
0.0516023
0.0701418
0.000149738
0.000145931
0.000152834
0.0582708
0.000183069
0.00017066
0.000158966
0.000224829
0.000147991
0.000150111
0.000147891
0.000148224
0.000151026
0.000163188
0.0782283
0.000179316
0.000195906
0.0289766
0.000147865
0.016077
0.00018509
0.00016243
0.000149221
0.00014795
0.000147411
0.000147263
0.000147445
0.00864288
0.000183164
0.0712853
0.000179267
0.000187733
0.000148951
0.000188704
0.0578336
0.000161465
0.000155231
0.000146882
0.0687319
0.0444054
0.000176137
0.000197726
0.000148069
0.0133969
0.000150807
0.000152749
0.000169448
0.000169256
0.000146089
0.000186776
0.0485206
0.000149839
0.0124165
0.0571266
0.0704692
0.00860791
0.000162876
0.000751207
0.000164054
0.000162921
0.0439044
0.000147406
0.000159277
0.000147105
0.000149645
0.0489332
0.000152018
0.0754888
0.000145896
0.000148765
0.0272067
0.000147676
0.0695328
0.000150969
0.000186139
0.000151956
0.000149164
0.0784093
0.000155145
0.000184497
0.000146993
0.000147419
0.000230253
0.000176866
0.000148291
0.000156075
0.00027039
0.000183954
0.000352276
0.000149728
0.000147681
0.000144718
0.000147605
0.000156946
0.000164569
0.000145439
0.0586679
0.000147201
0.000148188
0.000171445
0.0358837
0.00017777
0.000159651
0.000146235
0.000150902
0.000181024
0.000304895
0.000261941
0.0310884
0.000157351
0.000163184
0.00023478
0.000148383
0.000168735
0.0514733
0.000147421
0.000208426
0.0257364
0.000315333
0.000441173
0.0662002
0.000187138
0.000148603
0.0222132
0.000155234
0.000172141
0.00018164
0.000147493
0.000187538
0.000147552
0.00014808
0.000174883
0.0116209
0.000159319
0.000147463
0.000164508
0.0299073
0.000166791
0.0175648
0.000147597
0.0371346
0.000146178
0.000170407
0.000184138
0.00014757
0.0265001
0.000147805
0.000146749
0.000148498
0.000148054
0.0699777
0.000189123
0.000149662
0.0621637
0.000148431
0.0166361
0.00014611
0.0103852
0.000162028
0.000185735
0.000152917
0.000147574
0.000145764
0.000148492
0.000219304
0.000175191
0.000148761
0.00017091
0.0164489
0.0713368
0.000172307
0.040057
0.0771389
0.000147595
0.0253402
0.000146406
0.000231666
0.000147904
0.000148584
0.000149007
0.000176236
0.0361394
0.000230354
0.000181546
0.0462877
0.000187393
0.000183996
0.0475049
0.000147027
0.000172587
0.0155047
0.000144791
0.00017456
0.0615411
0.000208892
0.000147349
0.0498194
0.000165505
0.00830888
0.0052419
0.000156923
0.000182168
0.000154932
0.000147507
0.000145106
0.0264473
0.000195867
0.000180128
0.000194833
0.000147227
0.0225366
0.000159463
0.000144419
0.00014965
0.000178941
0.000153349
0.000149388
0.00014978
0.000266446
0.000147181
0.000163704
0.0202976
0.000145703
0.00014715
0.00281092
0.000146811
0.00016151
0.000158426
0.000178312
0.000320574
0.00014762
0.000184262
0.000159265
0.00016936
0.000157354
0.000154229
0.000167978
0.0002154
0.0001703
0.0382536
0.000166779
0.000149045
0.000224858
0.0321111
0.000186982
0.000146331
0.000148245
0.000171785
0.000152298
0.0866861
0.000203909
0.000158757
0.0264993
0.00015232
0.000200155
0.0137714
0.00014794
0.000148746
0.000148346
0.000147771
0.0177059
0.000228749
0.000155263
0.000200032
0.000248249
0.000168731
0.000148975
0.000153398
0.000171145
0.000147456
0.000147001
0.0152636
0.000151101
0.000503627
0.000146662
0.000147846
0.000149802
0.000168185
0.000161457
0.000166723
0.000148868
0.00015162
0.0741113
0.0210618
0.000354577
0.000396521
0.000153907
0.00015029
0.0787757
0.000182826
0.0120932
0.000162876
0.000147255
0.000172521
0.000155472
0.00014992
0.000146411
0.000167777
0.000188656
0.0465299
0.000181785
0.000355794
0.000149137
0.000151021
0.000148547
0.000200923
0.0185737
0.000226374
0.000416599
0.000147192
0.0498518
0.000151335
0.000147661
0.000153056
0.00014878
0.000210251
0.000147936
0.00019008
0.000145681
0.000378508
0.000157992
0.012327
0.000150161
0.000148833
0.000155092
0.000146009
0.00018789
0.000442309
0.0789775
0.000172444
0.000145524
0.082346
0.000163846
0.000147673
0.000167947
0.00014706
0.000153236
0.000144664
0.000183203
0.000154192
0.000177967
0.0001726
0.000146705
0.0715469
0.000145522
0.000155559
0.00014953
0.000152897
0.000146084
0.000148041
0.000161365
0.000149868
0.000154619
0.000145847
0.000152848
0.000300751
0.00534059
0.000149728
0.000172613
0.0692593
0.000147253
0.000148962
0.000158725
0.000200829
0.000148094
0.000175672
0.0210779
0.000151029
0.076325
0.0139962
0.000147812
0.000150305
0.000166889
0.000144269
0.0219248
0.028216
0.0450135
0.000151602
0.000159398
0.000144827
0.00031053
0.000156343
0.000190418
0.000149585
0.000179374
0.0134448
0.000190539
0.000152764
0.00753339
0.0154565
0.0502237
0.00014958
0.000146638
0.0565794
0.000351918
0.000146593
0.000148576
0.000186667
0.000150219
0.000218461
0.000299451
0.000146128
0.000150298
0.0228951
0.000184883
0.000150845
0.000144343
0.000165033
0.000149328
0.000218174
0.000147184
0.000149144
0.000147906
0.000152335
0.000148325
0.000182753
0.000147139
0.00015472
0.0490385
0.0312238
0.0292739
0.000147039
0.000169036
0.00019033
0.000148571
0.000153219
0.000170062
0.000147189
0.000152337
0.0612789
0.000164476
0.00014782
0.000148207
0.000147754
0.0142601
0.0736698
0.000146947
0.000149762
0.00014776
0.000181882
0.0309652
0.000151792
0.000174146
0.000148853
0.000165583
0.000158863
0.000234607
0.00843504
0.000149487
0.000256943
0.0702549
0.00016352
0.000147742
0.000163761
0.000159272
0.000162408
0.000155678
0.000147902
0.00020108
0.000155554
0.000265543
0.000161855
0.000148953
0.000149741
0.0364655
0.000148655
0.000160492
0.000220841
0.000161206
0.0849387
0.00797746
0.000147685
0.000181533
0.0001993
0.000183321
0.000162506
0.000152309
0.000148325
0.018162
0.000161556
0.000148037
0.000167855
0.000182212
0.000315773
0.047387
0.000148302
0.0001558
0.000149031
0.000226554
0.000213399
0.000149185
0.000172563
0.000154531
0.000151284
0.000149189
0.0158053
0.000178112
0.000147821
0.000152908
0.0698506
0.000149718
0.000147927
0.000156782
0.000165368
0.000147939
0.000148989
0.000152627
0.00562549
0.000160048
0.000147797
0.000146792
0.000148523
0.000170215
0.000147928
0.000147585
0.000351759
0.0817753
0.000147423
0.000149746
0.000180523
0.000161519
0.000169288
0.000149225
0.0193095
0.000147174
0.000150628
0.000159831
0.0774766
0.0213452
0.00019176
0.000170812
0.0558192
0.0207138
0.0195129
0.0622739
0.000153593
0.000147786
0.000146135
0.000161538
0.000147293
0.000147825
0.000148955
0.000177076
0.00014745
0.0323897
0.000162103
0.0787411
0.000148411
0.0649181
0.000148026
0.000157271
0.000145888
0.000151095
0.000160857
0.000250327
0.00014919
0.000146858
0.000154385
0.073234
0.00014726
0.000169622
0.000149225
0.000162964
0.0151025
0.000178108
0.000481799
0.000158594
0.000215731
0.000149197
0.0506556
0.0118171
0.000147025
0.0744941
0.0257505
0.000147454
0.000144967
0.000167993
0.000160635
0.000167188
0.000145783
0.0306536
0.000158004
0.00017265
0.000145768
0.000147528
0.000157544
0.0174791
0.0138362
0.0121509
0.00016876
0.0206452
0.000160748
0.0196746
0.000148512
0.00034845
0.000147666
0.000156104
0.000263587
0.000151079
0.000200568
0.00014738
0.000153564
0.0524359
0.0211854
0.000147595
0.000568356
0.000147872
0.0779696
0.000146556
0.0821281
0.0235561
0.000147917
0.0387551
0.000156971
0.0418282
0.000147999
0.000155524
0.00015058
0.000173113
0.000148009
0.000223293
0.00014651
0.0640536
0.000186248
0.0797427
0.000149015
0.000145918
0.000302147
0.000152069
0.000157484
0.000147314
0.000167084
0.000153718
0.000147935
0.0188202
0.000148261
0.000147541
0.000149709
0.000148561
0.0492266
0.000163002
0.000147512
0.0410566
0.000496106
0.000195074
0.000147376
0.000178495
0.000454252
0.00014788
0.000156384
0.000149967
0.00014821
0.000147521
0.000148159
0.000156858
0.000159995
0.0568163
0.000186408
0.000180048
0.000149838
0.000147652
0.0322573
0.000167105
0.000147448
0.000149897
0.0197423
0.0681773
0.000148003
0.076278
0.000161166
0.000198275
0.000149844
0.0546931
0.000146133
0.000151763
0.000148553
0.000147046
0.000151505
0.036646
0.000146119
0.0622871
0.000197815
0.000372235
0.0412053
0.000148566
0.000148209
0.0264668
0.000166841
0.000168115
0.000147943
0.000203556
0.000149248
0.0667036
0.0416616
0.042698
0.000148496
0.0658885
0.0507905
0.067609
0.000191855
0.000153852
0.00017979
0.000147333
0.000291261
0.0767357
0.000160754
0.0508883
0.000146588
0.000148202
0.000167987
0.0396202
0.000162197
0.000277187
0.000147759
0.059431
0.000170212
0.00016315
0.000146639
0.000164316
0.000181909
0.000148182
0.000169085
0.000167864
0.00023533
0.00014603
0.000147219
0.0561277
0.0419071
0.000152385
0.0335003
0.000160949
0.000147911
0.0630177
0.0288549
0.000148539
0.00024653
0.000145974
0.000148587
0.000174011
0.0519619
0.000149423
0.0235769
0.000152166
0.000147665
0.0153536
0.000149405
0.000185523
0.000146854
0.000328424
0.000148119
0.0164207
0.000146901
0.000163341
0.000148254
0.00015544
0.000176954
0.0691089
0.000162251
0.0436557
0.000160385
0.0675914
0.0767073
0.0462011
0.000147016
0.0273372
0.073894
0.0168281
0.000264232
0.000149525
0.000146875
0.000148517
0.000108309
0.000147795
0.000148982
0.000438913
0.00014957
0.030249
0.00015132
0.0613253
0.000147781
0.000149492
0.000197755
0.000145226
0.000179525
0.000147145
0.000167924
0.000180657
0.0219495
0.00014657
0.000147411
0.0720994
0.0626994
0.000149602
0.00015978
0.000164764
0.000150396
0.00793434
0.0436783
0.0698119
0.000192661
0.0277114
0.0052526
0.000230347
0.000147136
0.000146419
0.000150646
0.000147473
0.00015869
0.0250645
0.0634123
0.000148475
0.00015286
0.000151087
0.00749393
0.0879604
0.000259639
0.000331973
0.000148397
0.000312388
0.0560389
0.000154729
0.052696
0.000174868
0.000149103
0.0796659
0.0382318
0.00886801
0.000149323
0.000151251
0.000167114
0.000224002
0.000146979
0.000148266
0.00014958
0.000146689
0.000148195
0.0637278
0.000152418
0.000145761
0.0207676
0.000148587
0.0384166
0.000168334
0.0383234
0.000286443
0.000147701
0.0750715
0.000172142
0.000222623
0.000150329
0.000159799
0.000147991
0.000150757
0.0173626
0.000208412
0.000174221
0.000150295
0.000147412
0.000171824
0.000152044
0.000148319
0.000155212
0.000147516
0.0561928
0.000147838
0.028995
0.0248077
0.000151297
0.000147723
0.0280498
0.000146999
0.000147107
0.000226167
0.000153564
0.000152627
0.000177155
0.000286897
0.0701356
0.000160065
0.000151474
0.000149405
0.0481256
0.0213581
0.000160821
0.000167519
0.00014725
0.000147894
0.000153035
0.000146825
0.000187416
0.000161196
0.000148152
0.000149518
0.000148513
0.000147436
0.000148042
0.000147368
0.000325902
0.035888
0.0690994
0.000203908
0.00263974
0.000187191
0.000154097
0.0246325
0.0259981
0.00514673
0.000148525
0.000147252
0.000457463
0.00315609
0.000204364
0.000197293
0.0836898
0.000148521
0.000147632
0.0552628
0.000146783
0.000209989
0.000191816
0.000150601
0.0134576
0.0323345
0.000149716
0.0156115
0.0329074
0.00017369
0.000208563
0.000148885
0.00133447
0.000247889
0.0839885
0.000146828
0.000164646
0.0202708
0.000147266
0.00017077
0.000147656
0.000172141
0.000148514
0.0278889
0.000187546
0.000148251
0.000152306
0.000149464
0.0359383
0.000169456
0.000148687
0.000148975
0.0163241
0.000147555
0.000152306
0.000175865
0.000190057
0.000149996
0.000166619
0.000162059
0.000147609
0.000213429
0.000148081
0.000147851
0.000158413
0.000147779
0.000162998
0.0665303
0.000228546
0.000148028
0.0613574
0.0162022
0.00018577
0.0143734
0.000171299
0.000152952
0.0395552
0.000157823
0.000152343
0.000166776
0.000169622
0.000148387
0.000146719
0.000148622
0.000208481
0.0441735
0.0706941
0.0718211
0.000146613
0.000154177
0.000175643
0.000177173
0.0428104
0.000148821
0.036193
0.000149608
0.0196333
0.000145882
0.0434925
0.00015022
0.0652278
0.0342549
0.000186334
0.0530466
0.000164403
0.000146734
0.000166988
0.0114384
0.0614268
0.00015682
0.000149481
0.000147531
0.000148563
0.000159909
0.000149905
0.000151942
0.000146706
0.000178198
0.000148059
0.0760144
0.000149445
0.0495666
0.000146039
0.000211163
0.0641743
0.000150714
0.0143369
0.00014801
0.000156991
0.000149205
0.000149271
0.000147599
0.000186463
0.000185491
0.0001469
0.000152476
0.000148005
0.0479616
0.00016199
0.000216678
0.000219026
0.000148037
0.000175155
0.000151178
0.000150632
0.000161679
0.00014861
0.00016718
0.0709091
0.000148098
0.0674756
0.000155695
0.000147315
0.000146173
0.0243514
0.000148001
0.070708
0.000177564
0.000149776
0.01605
0.000189045
0.0515902
0.000157035
0.000154032
0.000148566
0.000174499
0.0181388
0.000148807
0.000166459
0.00014851
0.000199954
0.000371623
0.021323
0.0678299
0.0459855
0.000157876
0.0196978
0.000149172
0.0512767
0.00023198
0.000157207
0.000230762
0.000184192
0.000145225
0.000162957
0.000148043
0.000146835
0.000152856
0.000147834
0.000860254
0.000266229
0.000215352
0.01299
0.000148378
0.000963562
0.000148292
0.000147795
0.000169577
0.0563774
0.00014704
0.034983
0.000168235
0.000201669
0.0215357
0.000149594
0.000168911
0.0338314
0.000162329
0.00014832
0.000187767
0.000147979
0.000148764
0.000149575
0.000273665
0.0607779
0.000155391
0.000148572
0.0424035
0.0713235
0.000149292
0.00014954
0.00395837
0.0854236
0.000149183
0.000183703
0.000182236
0.000147207
0.000162741
0.000145964
0.021277
0.000147754
0.0846747
0.0703022
0.0662548
0.000154227
0.000157789
0.000147721
0.000146526
0.0176879
0.000146874
0.0291812
0.0622199
0.000174049
0.000146808
0.000146235
0.000208443
0.000187156
0.000162489
0.0897633
0.000181231
0.0270604
0.000151769
0.0523306
0.000317463
0.000158287
0.000186023
0.0746227
0.00835856
0.000148301
0.0059013
0.000146207
0.00811493
0.000228041
0.000225688
0.000145522
0.000166846
0.000148593
0.000249711
0.0399233
0.000151184
0.000150713
0.0815147
0.0474166
0.000148033
0.0479159
0.0166554
0.0198463
0.000149392
0.0725271
0.000148923
0.0136816
0.000148639
0.000151144
0.000149316
0.000148084
0.0299518
0.00025809
0.000146366
0.0467722
0.0191281
0.000144657
0.000146195
0.000161716
0.000165903
0.000198951
0.000167599
0.0309818
0.0558258
0.0491121
0.0734189
0.00019807
0.000150839
0.000213013
0.000181516
0.0186781
0.00415471
0.0393566
0.000197164
0.000179635
0.000153902
0.0181792
0.000169218
0.000218039
0.000149163
0.000154597
0.0484044
0.000148517
0.000157899
0.000194369
0.000153309
0.000170216
0.000148087
0.000151761
0.0815361
0.000184731
0.000146087
0.000154488
0.0310712
0.00024463
0.000163262
0.000285982
0.017683
0.000168369
0.000218534
0.0402591
0.000149976
0.0446747
0.000199025
0.0187248
0.000148884
0.00014429
0.0207935
0.0272745
0.0308266
0.0751171
0.0358193
0.000161902
0.000185844
0.000152342
0.0345331
0.000148145
0.00014805
0.000173369
0.000179718
0.000177319
0.0289514
0.000150454
0.000485556
0.0433688
0.000150266
0.000189682
0.000159476
0.000176874
0.000184362
0.000169397
0.0397606
0.0376634
0.042773
0.000300606
0.000162634
0.000147965
0.000150842
0.000159087
0.0003649
0.0285839
0.0341478
0.0270816
0.000163435
0.000146693
0.000229315
0.000168211
0.0552777
0.000148529
0.0153641
0.000169034
0.0343222
0.000148503
0.00249431
0.000174715
0.000187191
0.00522286
0.000146935
0.0153738
0.0380058
0.000146706
0.000179714
0.0494874
0.000150125
0.000285438
0.000152635
0.000151666
0.000149703
0.0560443
0.000169848
0.000250101
0.000160864
0.0706017
0.000146697
0.00014453
0.000147203
0.000148291
0.000147563
0.0873864
0.000185621
0.0422948
0.000149352
0.000146909
0.072984
0.000160522
0.0354138
0.000195686
0.000148697
0.000232111
0.000157095
0.000169573
0.0370974
0.000158113
0.0221931
0.000208845
0.000155482
0.000145367
0.000181605