/*--------------------------------*- C++ -*----------------------------------*\
| =========                 |                                                 |
| \\      /  F ield         | OpenFOAM: The Open Source CFD Toolbox           |
|  \\    /   O peration     | Version:  v2012                                 |
|   \\  /    A nd           | Website:  www.openfoam.com                      |
|    \\/     M anipulation  |                                                 |
\*---------------------------------------------------------------------------*/
FoamFile
{
    version     2.0;
    format      ascii;
    class       volVectorField;
    location    "600";
    object      U_0;
}
// * * * * * * * * * * * * * * * * * * * * * * * * * * * * * * * * * * * * * //

dimensions      [0 1 -1 0 0 0 0];


internalField   nonuniform List<vector> 
9793
(
(1.09048 -0.116698 -3.15326e-21)
(0.969552 -0.165567 1.3441e-21)
(1.08404 -0.12354 2.92464e-21)
(1.01574 -0.0010779 -6.37055e-24)
(0.786027 0.0734295 -1.29124e-20)
(1.00559 -0.00313441 9.05548e-22)
(1.01064 -0.000367292 -1.24602e-22)
(1.0134 -0.00261827 -1.39917e-22)
(1.03493 0.000596761 -1.36481e-20)
(0.880122 0.0140682 -3.00944e-20)
(1.10458 -0.00210875 0)
(0.813419 0.0772657 1.64669e-21)
(1.01561 -0.000999393 -2.21428e-23)
(1.0205 -0.00299326 6.71176e-22)
(1.0029 -3.16241e-05 0)
(1.01883 -0.003661 -3.95748e-23)
(1.02376 -0.00459135 7.03859e-22)
(1.02522 -0.00569672 6.3956e-22)
(0.985093 -0.221585 0)
(1.01995 -0.00387637 -6.47819e-22)
(0.903437 -0.0684694 0)
(1.03347 -0.0299266 -5.97181e-22)
(0.886467 0.0271534 -5.01063e-22)
(1.01764 0.00288111 0)
(1.02863 -0.0059877 4.66939e-22)
(1.0156 -0.000804077 0)
(1.01749 -0.00588432 0)
(1.02018 0.000490818 -8.82504e-23)
(1.1006 -0.0346855 0)
(1.03435 0.000220494 1.11271e-20)
(0.97942 0.0314369 1.36679e-22)
(0.90425 0.029582 6.10612e-22)
(1.00106 0.199561 4.77147e-21)
(1.00749 2.50669e-05 -1.29136e-21)
(1.10527 -0.0416089 4.11155e-21)
(0.880547 -0.103545 4.09187e-22)
(1.00862 -5.20617e-05 0)
(1.03141 -0.0300856 5.77302e-22)
(1.01356 -0.0039925 0)
(1.01076 -4.96306e-05 -6.14517e-22)
(0.984823 0.0329563 2.41891e-21)
(1.00486 -5.70454e-05 1.1096e-21)
(1.01428 -0.000546979 2.92216e-23)
(1.01023 -0.000294404 -4.24424e-24)
(1.01368 -0.000489968 -1.4929e-22)
(1.01517 -0.000653396 2.12658e-23)
(1.10495 -0.0351753 0)
(1.03466 0.0655104 0)
(1.00074 0.115603 1.04383e-22)
(1.01567 -0.00117332 6.88001e-24)
(1.10883 -0.042935 -1.27825e-20)
(1.11094 -0.00601766 1.44092e-20)
(1.00391 -0.00929105 8.76029e-22)
(1.03373 -0.00722885 0)
(1.20609 -0.0276751 2.94828e-21)
(0.743034 -0.0937422 0)
(1.02537 0.00165766 3.14854e-21)
(1.09863 0.0152229 0)
(0.924229 0.252073 -9.8864e-21)
(1.01344 -0.0036898 7.92842e-22)
(1.00918 -7.35741e-05 0)
(1.00596 -0.0156778 0)
(0.922488 0.194365 1.2114e-21)
(1.01756 -0.000491588 -2.3754e-21)
(0.567632 0.242713 -1.36107e-20)
(1.00645 0.151385 -4.05517e-21)
(0.933021 0.189197 1.90948e-21)
(0.954682 0.161333 2.05258e-21)
(0.839974 0.0814249 -2.53394e-21)
(1.1045 -0.00475951 0)
(1.21055 -0.0426125 -2.55266e-21)
(1.01333 0.000419236 0)
(1.01741 -0.00399533 3.57458e-22)
(1.03975 -0.0559893 -1.39539e-22)
(1.11192 -0.0488904 0)
(0.93243 0.251858 0)
(1.02595 0.00108426 0)
(1.01947 0.000643747 2.71678e-22)
(1.01662 0.010548 -1.06332e-21)
(1.02104 0.0028887 1.40684e-21)
(0.989868 0.154317 0)
(1.01126 0.0089471 3.09856e-21)
(0.938447 -0.19898 0)
(1.00978 0.0473647 9.41504e-22)
(0.988467 0.0254205 -5.91687e-21)
(1.02201 0.060728 0)
(1.02251 0.00315483 -1.34902e-21)
(1.0265 0.000436954 -5.94633e-21)
(1.0089 -0.0136058 0)
(1.00673 0.00706754 0)
(0.980358 -0.156359 -5.83743e-21)
(0.757553 0.12116 -1.74184e-20)
(1.01218 0.000924831 -1.41865e-21)
(0.908299 0.0469851 1.47041e-23)
(1.00787 -0.0154763 0)
(1.00281 0.0471286 3.4359e-23)
(0.778038 -0.0809894 -7.56484e-24)
(0.949911 -0.187498 1.52748e-21)
(1.01236 0.000701656 9.82053e-22)
(1.01387 0.00156116 1.64271e-21)
(1.01409 0.00155001 -7.37654e-22)
(1.00512 -0.000934275 -5.38688e-22)
(1.01358 -0.000987623 -2.67693e-21)
(1.0135 -0.000810737 8.79152e-22)
(1.01978 0.00114962 -2.49228e-22)
(0.993294 0.0256356 5.04435e-21)
(1.01045 -0.013775 -1.59334e-23)
(1.00931 -0.00010119 2.07532e-21)
(1.00597 -0.00964574 -1.08497e-22)
(1.0728 0.059914 -4.90801e-21)
(1.01237 0.000272759 8.62589e-25)
(0.865172 -0.0196852 2.78839e-22)
(1.02336 0.00150644 2.19685e-21)
(0.775484 -0.157945 0)
(1.11339 -0.00926893 0)
(1.02596 0.00147927 -2.68351e-21)
(1.04482 0.145025 0)
(1.10926 -0.0536647 7.91012e-21)
(1.01145 0.0110796 0)
(0.9245 0.048318 0)
(1.06589 0.0759851 -2.39042e-21)
(1.00618 9.84135e-05 0)
(1.02413 -0.00285611 0)
(1.00413 -0.00149396 -1.24125e-21)
(1.04017 -0.01116 7.39048e-21)
(0.89446 -0.0577341 0)
(1.08959 0.00254977 8.12909e-21)
(1.01289 0.0635851 -7.3391e-22)
(1.01775 0.0125871 1.06206e-21)
(1.01864 -0.00410259 0)
(1.0113 0.00024623 4.38603e-23)
(1.02658 0.000843618 3.26127e-21)
(1.01864 -0.00424097 8.70396e-22)
(1.00617 -0.00805931 -1.10435e-21)
(1.03338 0.000678419 -3.73773e-21)
(1.02697 -0.000265892 5.12401e-22)
(1.01686 -0.000366039 1.23969e-21)
(1.01039 -0.00027969 0)
(1.02297 0.00133966 1.7002e-21)
(1.01249 0.000245355 -1.02148e-21)
(1.02364 -0.00278205 0)
(1.02674 -0.00788763 0)
(1.01382 -0.000707793 5.20023e-22)
(1.01557 0.0021887 -8.1584e-22)
(1.02178 -0.00298034 0)
(1.02454 -0.00408166 -1.31055e-21)
(1.0091 -0.0685258 0)
(1.01533 0.00229659 7.13386e-22)
(1.01243 -9.29587e-05 2.47144e-21)
(0.69969 0.143292 3.25063e-21)
(1.05907 -0.352239 -1.08685e-20)
(1.01081 0.000210121 -4.1524e-23)
(1.07604 -0.331662 0)
(0.996185 -0.0828329 4.2685e-20)
(1.01254 -0.000125707 -8.30341e-22)
(1.00919 0.000249009 7.91728e-23)
(1.01111 0.000199187 0)
(1.02526 -0.00798813 -4.78278e-22)
(1.01475 0.00190778 0)
(1.01379 -0.000697396 -3.45485e-22)
(1.01334 -0.00276689 1.3952e-21)
(1.0202 -0.00033267 -1.46746e-21)
(1.01501 -0.00388682 1.64171e-22)
(0.967126 -0.201873 5.79287e-21)
(1.02369 -0.0751618 -4.53862e-22)
(0.899348 -0.0830256 0)
(1.0242 0.0707208 3.64213e-22)
(1.05827 -0.0360689 -6.46516e-21)
(1.01654 -0.00521282 -1.62473e-22)
(1.00823 -0.00151773 -4.84258e-22)
(1.01877 -0.00149279 0)
(0.831498 -0.106761 -1.21555e-20)
(1.0172 -0.0863191 4.59405e-22)
(0.829723 -0.14609 1.43133e-20)
(1.04006 -0.00906445 0)
(0.983289 -0.208032 -1.69626e-21)
(1.02708 0.000165343 2.75547e-21)
(1.01709 0.00267057 -1.19069e-22)
(1.01842 -0.00477525 -6.44392e-22)
(1.07573 -0.0179819 1.22986e-20)
(0.295091 -0.0624251 -6.17594e-21)
(1.05124 -0.00192664 -8.31345e-21)
(1.01447 0.00195669 0)
(1.02715 -0.00634656 -9.63388e-22)
(0.941458 0.263744 0)
(1.01736 -0.00379161 -3.22178e-22)
(1.09631 0.0177639 0)
(1.01821 -0.00463957 -5.5934e-22)
(1.02329 -0.0037572 0)
(1.01574 -0.00370667 -1.68796e-22)
(1.04072 -0.00829921 7.29713e-21)
(1.02028 3.36965e-05 0)
(1.01383 0.113138 -1.01739e-22)
(0.876815 -0.0331062 3.95796e-21)
(0.93493 0.171878 -2.99752e-21)
(1.07404 -0.0172536 1.03393e-20)
(1.08771 -0.160791 1.12602e-20)
(1.00985 0.00194799 -1.04604e-21)
(1.01919 -0.127118 0)
(1.01234 0.000252899 6.00186e-22)
(1.03289 0.000377738 5.21634e-21)
(0.955223 -0.179583 0)
(0.741652 -0.121103 3.25951e-21)
(1.0189 -0.00391634 3.99094e-22)
(1.02754 -0.000600093 -3.5887e-21)
(1.01912 0.00168905 0)
(0.88493 -0.0876704 1.43722e-22)
(1.01834 1.88721e-05 0)
(0.995809 0.0195986 4.90616e-21)
(1.0478 -0.0141265 5.18368e-21)
(1.08038 -0.0293941 -1.14538e-21)
(1.04596 0.0948365 1.40153e-22)
(0.969437 0.128672 9.87972e-24)
(1.03466 -0.00743255 -2.78843e-21)
(1.0877 -0.172315 -1.51788e-20)
(1.01134 0.000230535 1.51946e-21)
(1.00794 -0.00440866 0)
(0.960486 0.247303 1.79482e-21)
(1.01921 0.00200919 0)
(0.880295 0.200573 -3.78945e-21)
(1.11487 -0.0802565 -4.23687e-22)
(1.02505 -0.00139436 -9.38393e-23)
(1.04093 -0.0103195 3.59268e-21)
(1.02013 9.34866e-05 1.20191e-21)
(1.00608 0.0557783 -1.17797e-21)
(0.964987 -0.190999 -4.79745e-21)
(1.00528 -0.00533864 2.42798e-22)
(1.01267 -0.000364793 2.51207e-21)
(1.11846 -0.0729858 0)
(1.10199 -0.0103061 -1.11064e-20)
(1.01771 0.00288347 6.63918e-23)
(1.01743 0.00276613 3.28561e-23)
(1.05243 -0.00158537 1.38549e-20)
(1.01204 0.000239463 0)
(1.094 0.000137367 6.81594e-21)
(0.886133 0.187964 0)
(1.02266 0.000853105 6.20217e-23)
(1.01832 -0.00221154 8.66697e-22)
(0.787015 -0.0571807 0)
(1.00721 0.0026216 0)
(0.999755 0.019636 -3.77677e-21)
(1.02113 -0.00122704 -1.812e-22)
(1.01848 -0.00253546 1.50136e-21)
(0.999822 0.183997 -8.06475e-22)
(1.01789 -0.00248618 -7.75697e-22)
(1.01243 0.000230885 -1.85389e-21)
(1.01325 -0.0024181 -4.22449e-24)
(1.02447 -0.00927205 2.27663e-21)
(1.01228 0.000337685 -8.97474e-22)
(1.00852 1.69404e-05 2.35122e-21)
(1.0271 -0.0147097 3.98932e-21)
(1.06044 -0.0184051 0)
(1.11123 -0.0127601 0)
(1.09183 0.00127497 0)
(1.01768 -0.00271796 -4.36449e-22)
(1.02504 -0.0350805 -1.34192e-21)
(1.01802 -0.00196831 -8.10991e-22)
(1.0618 -0.019616 0)
(1.01099 0.00690041 -3.10168e-21)
(1.01749 0.000663918 0)
(0.99693 0.204309 -2.76133e-21)
(1.01799 -0.00239532 7.44938e-22)
(1.11297 -0.0165484 -1.89944e-20)
(1.00861 -1.209e-05 -6.56179e-22)
(1.06102 -0.0367101 1.08228e-20)
(1.01831 0.00270866 -3.32373e-23)
(1.01829 0.00277482 3.64977e-23)
(1.07965 -0.0323176 -8.12153e-21)
(0.944953 -0.180082 0)
(1.01178 -0.0119213 4.66164e-23)
(1.01747 0.00105428 0)
(1.01411 -0.00126671 6.52688e-22)
(1.03751 -0.0492846 -2.54182e-21)
(1.02566 -0.00091057 0)
(1.00401 -0.127624 -6.81414e-22)
(0.999686 -0.131166 3.43486e-22)
(1.01889 -0.00410197 1.03932e-21)
(0.866795 -0.0486284 -4.0728e-21)
(1.01959 -0.000297958 0)
(1.09101 0.00247672 0)
(1.02314 -0.00912505 -2.6697e-21)
(1.01793 0.00289749 6.09763e-23)
(1.00776 -6.7032e-05 0)
(1.0109 -6.00499e-05 6.45985e-22)
(1.08902 0.00343146 -1.04997e-20)
(1.02497 -0.00166695 1.46764e-21)
(1.02616 -0.0147849 0)
(1.06118 -0.0307151 0)
(1.01239 -0.00054535 1.3496e-21)
(1.02741 -0.00104212 -7.1334e-21)
(1.02303 0.00102372 -2.17022e-21)
(1.03142 0.166593 5.04897e-21)
(1.00901 -0.00867791 -5.00198e-22)
(1.00859 -0.000198482 -1.05937e-21)
(1.01055 0.000192302 3.52365e-22)
(1.00522 -0.00669216 1.09976e-21)
(1.03955 -0.0156355 -9.15675e-22)
(1.06303 -0.0315921 0)
(1.01928 -0.000683212 0)
(0.897708 -0.230124 0)
(1.0126 -0.000390494 -2.69829e-24)
(0.890432 0.23575 6.95134e-21)
(0.983316 0.153209 -2.0163e-20)
(1.00771 2.58084e-05 -1.41532e-21)
(1.0094 -0.000211807 0)
(1.01664 0.00199365 -1.82293e-21)
(1.03728 -0.0523113 2.79482e-21)
(1.04873 -0.0337669 -4.79729e-21)
(1.02105 -0.00967006 1.05468e-21)
(0.900975 0.235168 0)
(1.01912 -0.000280172 6.48297e-23)
(1.01668 0.00169177 0)
(1.04789 -0.0355433 4.64754e-21)
(1.02274 -0.0168858 2.16875e-21)
(1.02784 -0.010235 -2.79754e-21)
(1.0074 0.0054345 -5.6585e-22)
(1.01403 0.0545075 7.97686e-22)
(1.01949 -0.00379139 1.73524e-22)
(1.04105 -0.0449531 0)
(1.04928 -0.0139441 0)
(1.01779 -0.00344171 -1.17343e-21)
(1.03571 -0.0672921 -9.16581e-22)
(1.04805 -0.198313 -5.42426e-21)
(1.03485 -0.0540756 -5.18586e-24)
(1.01882 0.00233746 5.46691e-23)
(0.395336 -0.0587667 1.2995e-20)
(1.03888 -0.0180218 7.08541e-23)
(0.92026 0.241582 4.54519e-22)
(1.115 -0.0598579 -8.71039e-21)
(1.01412 -0.00237594 -6.92298e-22)
(1.06034 0.00164645 2.11479e-20)
(1.11234 -0.0657078 0)
(1.00635 -0.00159389 0)
(1.00145 0.0147246 -1.15225e-21)
(1.10997 -0.000306871 4.93491e-21)
(1.01294 -0.002103 1.19699e-21)
(1.01414 -0.000532779 -1.09557e-22)
(1.03206 0.000486224 2.99039e-21)
(1.00997 2.3681e-05 0)
(1.0209 0.000991215 -2.11305e-22)
(1.09909 -0.139254 -7.02901e-21)
(1.01809 -0.00473566 5.62914e-22)
(1.01749 -0.00325803 6.20438e-22)
(0.89031 -0.227745 -2.61538e-21)
(1.0067 0.00120616 -3.993e-21)
(1.01814 -0.0041997 1.38028e-21)
(1.01856 0.00249094 -1.32204e-22)
(1.03331 -0.0233007 -1.25992e-21)
(1.01305 -0.00230803 3.97681e-24)
(1.10228 -0.15071 0)
(1.04001 -0.0133509 4.52573e-22)
(1.02598 -0.00457279 4.61374e-21)
(1.02242 -0.0139676 2.1526e-21)
(1.00537 0.000653945 2.75375e-21)
(0.790127 -0.00256439 -5.41386e-21)
(1.03328 -0.00645133 2.29684e-21)
(0.987393 -0.0508736 4.5298e-22)
(1.01732 0.00276124 1.15018e-22)
(1.09252 -0.0197416 0)
(1.21217 -0.0458886 -1.3439e-20)
(1.10008 0.0200111 -8.19056e-21)
(1.09496 -0.019527 -8.01562e-21)
(1.03181 -0.0223452 -9.31527e-22)
(1.0039 -0.0102715 1.86307e-21)
(1.07432 -0.18687 -7.03718e-22)
(1.00891 -7.2524e-05 0)
(0.994637 0.205156 -6.24269e-22)
(1.00888 0.00531227 -2.20253e-21)
(1.01189 0.000266359 0)
(1.00855 0.12048 2.19253e-20)
(1.00455 0.0145208 0)
(1.04585 -0.20937 0)
(1.02609 -0.00431669 -3.61203e-21)
(1.09542 0.000367815 -1.42628e-20)
(0.890646 -0.11399 -5.30699e-22)
(1.03161 0.00664524 0)
(1.01732 -0.00355747 4.39677e-22)
(1.01629 0.190432 -1.76748e-20)
(1.07072 -0.010779 -1.02859e-20)
(1.01779 -0.0689461 -1.85602e-22)
(1.02743 -0.0351438 1.78418e-21)
(1.03317 -0.00500222 -5.03405e-21)
(0.971734 0.163314 -8.17627e-22)
(1.01917 -0.000622244 0)
(1.03788 -0.020514 0)
(1.00743 2.66408e-05 9.97561e-22)
(1.00994 -6.62894e-05 0)
(1.01848 -0.00539411 0)
(1.0338 -0.00573329 2.53557e-21)
(1.02846 -0.0326134 -3.31088e-21)
(0.794571 -0.011328 1.14667e-20)
(1.03872 -0.00686309 -1.27351e-20)
(0.197205 0.241153 0)
(0.923434 0.102007 3.67773e-22)
(1.06233 -0.185194 0)
(1.10044 -0.00784143 2.35141e-21)
(1.02647 -0.0429994 0)
(1.0107 -4.5454e-05 1.26018e-21)
(1.03176 0.000823966 0)
(1.18989 -0.162939 -3.48848e-20)
(0.936113 0.110849 0)
(1.02131 -0.000386716 1.79858e-22)
(1.04319 0.00021016 0)
(0.88133 -0.195721 -2.56415e-21)
(1.01381 -0.00128781 1.29295e-21)
(0.801019 -0.164288 0)
(1.01838 -0.00206101 -4.78896e-22)
(1.03065 -0.0325652 0)
(1.01353 -0.00105089 -2.5488e-21)
(1.08139 -0.0380247 0)
(1.01792 -0.00457491 0)
(1.07235 -0.0115407 7.53839e-21)
(0.87872 -0.0608626 0)
(1.01835 0.000506177 -1.53125e-21)
(0.882404 0.00924994 -3.60378e-22)
(1.02565 -0.026075 1.28525e-21)
(1.04059 -0.0147122 -3.05863e-21)
(1.02879 -0.0248143 7.00623e-22)
(1.00918 0.00396338 -4.36023e-22)
(1.01175 -0.0131219 5.78708e-23)
(1.02501 -0.00261074 1.36404e-21)
(0.980337 -0.151606 0)
(1.01959 -0.000331794 1.22308e-21)
(1.02794 -0.0108497 4.64404e-21)
(1.11213 -0.00282736 -2.62497e-20)
(1.03295 -0.00362528 0)
(1.01282 0.00833233 1.74526e-21)
(1.04007 -0.0170955 0)
(1.01446 -0.00337027 0)
(1.07673 -0.0200748 0)
(1.01329 -0.000594856 7.09324e-22)
(1.02712 -0.0114105 4.24887e-21)
(1.01276 -0.000404571 1.21518e-21)
(0.889304 -0.0835732 -1.19612e-22)
(1.02286 -0.00413695 1.26729e-21)
(0.897424 -0.0972623 -6.00088e-22)
(1.00825 -0.00257655 5.12301e-22)
(1.06616 0.0840868 -5.15102e-21)
(1.01194 -0.000188211 5.30304e-23)
(1.00738 -0.00089998 0)
(1.0082 -0.000156148 7.21874e-23)
(1.03803 -0.00717474 1.30005e-20)
(0.940015 0.257882 -1.07235e-20)
(1.01047 0.00280055 0)
(1.22465 -0.0668289 0)
(1.01648 -0.00416587 -1.65988e-22)
(1.01907 -0.00120802 -1.45796e-21)
(1.03928 -0.0195969 -3.44571e-21)
(0.871156 -0.193884 3.99164e-21)
(0.975027 0.0355855 2.88453e-21)
(1.18667 0.000651748 -4.88722e-21)
(1.06362 0.0844685 -9.54008e-23)
(1.00356 -0.00667563 0)
(1.02078 -0.00132967 -3.23686e-21)
(0.97727 -0.0585444 3.79445e-22)
(1.07578 -0.022361 -9.3639e-21)
(1.0776 -0.0382897 0)
(0.955074 -0.181258 -1.14359e-21)
(0.992832 -0.217561 3.83883e-21)
(1.01937 -0.000285745 -1.19688e-21)
(1.02561 -0.0202072 2.75922e-22)
(1.09672 -0.000757398 -1.27437e-20)
(1.02437 -0.00332612 0)
(1.00819 0.00853384 -1.13183e-21)
(1.02359 -0.00349751 0)
(1.01338 -0.00097521 8.0532e-22)
(1.00752 3.78811e-05 0)
(0.729984 -0.163221 8.46217e-21)
(1.07227 -0.0136661 -6.59318e-21)
(0.974196 0.21841 -1.81819e-20)
(1.01338 -0.0011685 8.66828e-22)
(1.03306 -0.0543898 0)
(1.01703 0.00259082 0)
(1.00859 9.36278e-06 0)
(1.00929 0.00013464 1.18021e-21)
(1.00979 0.00799484 -1.10637e-21)
(0.974157 -0.0540226 -2.93112e-21)
(1.00761 -0.00334611 0)
(1.0253 -0.0176393 -2.75936e-22)
(1.01292 -0.00108732 1.12002e-21)
(1.0181 -0.000671064 6.42234e-22)
(1.01526 0.0121136 0)
(1.0571 0.0758799 5.06862e-21)
(1.01236 -0.000553093 0)
(1.02057 -0.00127575 0)
(0.978257 0.197354 -2.80652e-21)
(1.0057 0.0106146 0)
(1.04091 -0.0124746 -8.33174e-21)
(0.921887 0.203603 -1.65873e-21)
(1.04607 0.0997592 1.81483e-21)
(1.00854 3.21002e-05 -1.73805e-21)
(1.00706 7.93947e-05 1.60138e-21)
(1.03819 -0.0221735 -1.54725e-21)
(1.01278 0.0111075 -1.715e-21)
(1.02726 -0.0119814 1.01542e-21)
(1.0141 -0.000397624 4.33004e-22)
(1.01797 -0.000516543 1.2561e-21)
(1.00907 0.00183935 0)
(1.01824 -0.00163777 0)
(1.0179 -0.00266179 0)
(1.00214 -0.0555031 -1.21126e-22)
(1.11808 -0.0163816 1.48013e-20)
(1.01097 0.000150068 1.07696e-21)
(0.934299 0.268025 1.07771e-20)
(1.05094 -0.0676421 3.95855e-21)
(1.0129 0.00113499 9.46732e-22)
(1.00939 -0.0104041 0)
(1.01475 0.0103552 1.98726e-21)
(0.877295 -0.00591117 0)
(1.02217 -0.0100673 1.836e-23)
(0.705045 0.0144819 7.98409e-21)
(1.01455 -0.00274665 0)
(1.01835 -0.00241809 -9.70366e-22)
(1.1056 -0.00974981 -1.86216e-21)
(1.02284 -0.00360494 0)
(1.08711 -0.012543 1.21824e-20)
(1.01192 0.0656781 0)
(1.04109 -0.0477763 0)
(1.0131 0.00133384 1.81572e-21)
(0.164527 0.208731 0)
(1.00816 0.0103782 6.24098e-22)
(1.01397 0.000574717 0)
(1.02092 -0.00217643 -8.89629e-22)
(1.0948 0.00497029 0)
(1.01583 -0.00411554 0)
(1.01382 0.000453789 0)
(1.01954 -0.00057267 1.88202e-21)
(1.01576 -0.00391633 -3.64743e-22)
(1.013 0.16549 0)
(1.09315 0.00133016 -7.39904e-21)
(1.04895 -0.0653587 -2.99242e-22)
(1.0073 -0.00820949 -6.96288e-22)
(1.0205 -0.00252448 1.981e-25)
(1.01856 -0.00363726 0)
(1.03091 -0.0043853 2.80275e-22)
(1.0121 0.000322696 -3.65346e-22)
(1.01951 -0.000495282 1.84399e-21)
(0.904194 0.000550769 0)
(1.10085 0.024061 1.21353e-20)
(1.01446 -0.00147783 1.70315e-22)
(1.00826 -0.0176291 9.11652e-23)
(1.21281 -0.166878 2.05992e-20)
(1.01819 -0.0077377 -7.25165e-22)
(1.05941 0.00712149 -1.25375e-22)
(0.988154 -0.0560539 0)
(1.01253 0.000404919 0)
(1.10688 -0.000920798 0)
(0.961935 0.215343 1.55764e-20)
(1.02558 -0.00126309 2.92734e-21)
(1.07848 0.00703565 -2.0088e-20)
(1.01798 0.00289635 -2.59227e-22)
(0.773295 -0.1345 1.82431e-21)
(1.06115 -0.0271909 0)
(1.03467 0.0895986 -1.61668e-20)
(1.0174 -0.00377707 -4.02115e-22)
(1.01824 -0.00265114 -1.00209e-21)
(1.02409 -0.00278617 -1.70423e-21)
(0.984375 -0.135789 5.54238e-21)
(1.00406 -0.012001 -3.05836e-21)
(0.927674 0.215496 0)
(0.979024 0.169773 -6.68807e-21)
(0.533195 0.247337 3.75434e-21)
(1.08909 -0.0127386 0)
(0.71334 0.0689402 0)
(1.07604 -0.0415199 7.21291e-21)
(1.00464 -3.94571e-05 7.21397e-22)
(1.08212 -0.00705677 -7.84768e-21)
(1.00774 -0.0157089 1.33301e-21)
(1.04604 0.133525 -1.20269e-20)
(1.03147 -0.00852759 -2.49864e-21)
(1.07527 0.07502 -4.23305e-21)
(1.01215 0.000767425 -1.20362e-21)
(1.07802 -0.0148624 0)
(1.00867 -5.78645e-05 3.78916e-22)
(1.04633 0.00178535 6.72573e-21)
(1.01822 -0.00342361 0)
(1.09162 0.0179576 -1.28094e-20)
(1.01219 -9.50293e-05 3.27824e-22)
(1.01054 5.40824e-06 6.9408e-23)
(1.05057 -0.00585915 9.10362e-21)
(1.04905 -0.0177377 0)
(1.074 -0.0144771 6.82325e-21)
(1.01754 -0.00418541 3.19877e-22)
(1.02163 -0.00316713 0)
(1.01862 -0.00750106 0)
(1.01852 -0.00701695 7.81288e-22)
(1.00047 -0.227153 -5.00747e-21)
(1.01584 -0.00137363 -4.50341e-22)
(0.993872 -0.228653 -1.93494e-20)
(0.838699 -0.170837 0)
(1.01583 -0.00129066 0)
(1.00906 -0.000104281 -1.61874e-21)
(1.0333 -0.0570377 -2.48455e-21)
(1.0432 -0.00073842 6.54194e-21)
(1.02339 -0.00305966 0)
(1.02463 -0.0158817 6.08512e-22)
(1.03 0.00831616 0)
(1.06263 -0.0258106 -3.86057e-21)
(1.0509 0.000777387 4.49541e-21)
(1.05015 -0.0168885 6.43682e-21)
(1.013 0.000164721 7.77933e-22)
(1.01355 0.0117563 -1.08608e-21)
(1.03193 -0.0204215 3.80849e-21)
(1.06111 -0.0220587 -1.10064e-20)
(1.02224 -0.0158348 -4.4467e-21)
(1.03372 -0.0245969 1.61011e-21)
(0.986155 -0.254344 8.78293e-21)
(1.02086 -0.00786812 0)
(0.985045 -0.162198 -1.78504e-21)
(1.06926 -0.00773722 -2.0904e-20)
(1.01051 -0.000338654 1.60172e-22)
(1.02201 -0.00329285 0)
(1.01242 -0.00180832 0)
(1.00067 -0.00460141 -3.34258e-22)
(0.999094 -0.00629293 0)
(1.018 -0.00251631 0)
(1.0091 -0.000957955 0)
(1.01717 0.00252742 0)
(1.01905 -0.00355039 0)
(1.00892 -0.000175856 0)
(1.01878 -0.00141105 2.29566e-21)
(1.02141 -0.0324589 1.04039e-21)
(1.01264 0.000408069 -2.55285e-22)
(1.04649 0.000758862 1.04372e-21)
(1.00719 -3.0888e-05 -1.53916e-21)
(1.03356 -0.00423132 0)
(1.02037 -0.0302822 0)
(1.05211 0.000525391 -1.21539e-20)
(1.08389 -0.00758092 1.07994e-20)
(1.00767 1.32988e-05 0)
(1.01715 -0.00266624 -7.65998e-23)
(1.02227 -0.00308793 0)
(1.01314 0.000281561 4.05034e-22)
(1.01184 0.00347615 3.54874e-23)
(1.01008 0.000217204 -1.15902e-21)
(1.01133 0.00345239 -1.25502e-21)
(1.01712 -0.00322521 1.61992e-21)
(1.02123 -0.00793789 0)
(1.01208 0.000216411 -1.62089e-21)
(1.08661 -0.0310436 0)
(1.01057 -4.36129e-05 -1.37256e-21)
(1.00802 -4.4765e-05 -1.26753e-21)
(1.02468 -0.00257432 0)
(1.10445 0.0427433 5.33322e-21)
(1.01667 -0.00209287 6.70166e-22)
(1.01328 -0.000986613 1.47566e-23)
(1.10146 -0.00101537 -1.04775e-20)
(1.01781 0.00293004 2.37076e-22)
(1.01709 0.00119712 -1.11926e-21)
(1.09322 0.0202054 7.73078e-21)
(1.02873 -0.00450081 -1.8334e-21)
(1.01204 -0.000368035 4.27096e-24)
(1.00972 0.000177224 0)
(1.09648 0.0129164 0)
(1.01252 -0.00196769 0)
(1.09825 -0.000293104 -1.10409e-22)
(0.581358 0.221518 1.36693e-20)
(0.984305 -0.0178313 -2.18657e-20)
(0.995984 0.122681 1.27436e-21)
(1.0169 0.000387421 2.261e-22)
(1.02517 -0.00314812 -2.54077e-21)
(1.03484 -0.171739 -1.01096e-20)
(1.01682 -0.00990935 -3.42576e-21)
(1.01288 -0.000624989 -1.24517e-21)
(1.02121 -0.0513473 -4.28902e-24)
(1.05304 0.0984908 3.29513e-21)
(1.2139 -0.130422 0)
(1.02268 -0.00320386 0)
(1.09527 0.00517163 0)
(1.02517 -0.00289324 4.54253e-21)
(1.02425 -0.00255201 0)
(0.753709 -0.179781 3.48474e-23)
(1.01894 -0.00137048 -4.39519e-22)
(0.958736 -0.0691123 -1.09947e-21)
(1.01092 0.0123975 2.5572e-21)
(1.11995 -0.0211939 -1.38467e-20)
(1.01696 -0.00264645 -3.03827e-22)
(1.04795 -0.0268803 2.79062e-21)
(1.03066 -0.0195506 -4.35003e-21)
(1.08744 0.0109586 -1.59981e-20)
(0.871061 0.299284 -3.70538e-21)
(1.01883 -0.00174624 -5.05384e-22)
(1.01063 0.0106277 -2.52473e-21)
(1.07507 -0.000921822 1.15518e-20)
(1.0169 -0.00306362 -1.2302e-21)
(1.00894 0.00741881 2.46254e-21)
(1.09985 -0.00177806 -1.2086e-20)
(0.51279 0.000203834 8.90303e-24)
(1.01721 -0.00341625 -4.31613e-22)
(1.06216 -0.00138414 -5.28238e-23)
(1.01811 -0.00967871 -1.37436e-21)
(1.04295 -0.0532791 -2.42767e-21)
(1.0591 -0.00631941 -7.70725e-23)
(1.02426 0.177149 7.61768e-21)
(1.04653 -0.116834 0)
(1.0198 0.00538943 -9.15694e-22)
(0.982791 -0.00192801 4.14029e-21)
(0.881984 0.249937 -1.51966e-20)
(1.01669 -0.00223048 3.13277e-22)
(1.01863 -0.00164773 0)
(1.00744 -4.156e-05 0)
(1.02183 0.00965585 0)
(1.01236 -7.65856e-05 -1.38531e-21)
(0.71886 -0.131518 -1.24462e-20)
(1.01261 -0.000239151 1.23507e-21)
(0.964118 -0.237699 0)
(1.05894 0.000970515 -1.25998e-20)
(0.992026 0.0739021 9.3213e-22)
(1.10685 -0.00686729 0)
(1.03172 -0.00438719 2.58461e-21)
(1.20434 -0.00462389 -4.92082e-21)
(0.878306 -0.199527 0)
(1.03873 -0.010857 0)
(0.997936 0.120187 -1.08603e-21)
(0.985141 -0.00434333 -2.05537e-21)
(1.09641 0.00761275 0)
(1.0125 -0.000312743 -1.08736e-21)
(1.01759 0.00290987 2.80994e-22)
(0.991954 0.157082 -1.21561e-20)
(1.0164 -0.00589862 -1.3713e-22)
(0.856087 0.303994 0)
(1.01376 -0.0007453 -3.75359e-22)
(1.03146 -0.157857 1.43803e-21)
(1.01482 -0.000387891 -9.42712e-22)
(1.04005 0.0736072 -3.1834e-22)
(0.997075 0.115077 -4.05694e-20)
(1.02067 0.00488628 1.03856e-21)
(0.0804377 0.105797 0)
(1.0195 -0.000259899 -6.60071e-22)
(1.05191 -0.00552489 9.3757e-21)
(1.09021 -0.016997 -7.45181e-21)
(0.796034 -0.226907 -3.96689e-21)
(0.818545 -0.219669 7.04332e-21)
(1.01276 0.0052319 -1.18738e-21)
(1.01513 -0.000561267 -4.55475e-22)
(1.01321 -0.00123137 -1.11694e-21)
(0.986261 0.0419121 -3.17708e-21)
(0.883988 -0.215273 0)
(1.01682 -0.000358793 -1.89428e-21)
(0.995894 -0.0054919 0)
(1.05885 0.0146601 8.19463e-23)
(1.01278 -0.000783224 0)
(1.01626 -0.00239507 -2.90085e-25)
(1.00587 -0.00945829 3.15415e-21)
(0.965499 -0.0744488 2.29342e-22)
(1.04139 0.00858836 1.39748e-21)
(1.01566 -0.00621454 0)
(1.01047 3.80047e-06 0)
(1.01329 -0.00318015 4.69467e-22)
(0.983834 0.130819 9.21575e-22)
(1.21854 -0.143816 -1.28831e-21)
(1.03041 -0.0437187 0)
(1.01339 0.000382832 -4.14923e-22)
(1.01468 -0.000933664 3.91367e-22)
(1.12209 0.0138569 -6.03997e-21)
(1.01879 -0.00160728 -9.33121e-22)
(1.01217 0.132671 -1.98191e-20)
(1.0996 -0.0302152 -7.66351e-21)
(0.95195 -0.24362 1.54156e-20)
(1.08101 0.0519371 4.24716e-21)
(1.04348 -0.13939 0)
(1.01504 -0.00329689 -1.30085e-21)
(1.03206 -0.00372718 -7.78614e-23)
(1.05893 -0.0119081 9.42045e-21)
(1.0483 -0.00527505 -7.37114e-21)
(1.06246 -0.0231366 1.32735e-20)
(1.01915 -0.000915235 1.83078e-21)
(1.09596 0.00500607 1.74975e-20)
(1.04053 -0.177946 4.99448e-21)
(1.01395 -0.000630065 1.76338e-21)
(0.862982 -0.197477 -5.77726e-21)
(1.01317 -0.00298 -3.28857e-23)
(0.892857 -0.0778616 7.50876e-22)
(1.0376 -0.00100939 0)
(1.09413 0.0232899 -8.72631e-21)
(1.015 -0.0362778 7.95415e-22)
(1.0334 0.0121626 -2.14647e-22)
(1.0172 -0.00339441 2.66028e-24)
(1.01428 0.0123267 3.48987e-22)
(1.04357 -0.0207632 -7.63944e-22)
(1.00661 -0.170722 0)
(0.866548 0.239445 1.00554e-20)
(1.01883 -0.00918573 9.68323e-22)
(1.07856 -0.0449105 -7.57939e-21)
(1.0157 -0.00669186 -1.11821e-21)
(1.03279 -0.0260488 -1.88364e-22)
(1.04909 -0.0277804 2.95744e-21)
(0.439918 -0.0432375 -7.79312e-21)
(1.0117 -0.000222747 4.36347e-22)
(1.0979 0.00813931 1.64885e-20)
(1.01498 -0.00305896 -1.15275e-21)
(1.07648 -6.99383e-05 -1.06449e-20)
(1.01807 -0.00211053 9.30233e-22)
(1.01263 0.000349173 9.40645e-22)
(1.00807 -6.16761e-06 2.59831e-21)
(1.01478 -0.000953962 2.4496e-22)
(0.687833 0.155297 0)
(1.01847 -0.00189312 0)
(1.04033 -0.0247153 6.79239e-21)
(1.00863 -0.000113269 0)
(1.00872 0.000280869 -3.99338e-22)
(1.01217 0.000447662 0)
(1.09549 -0.0726022 7.93375e-21)
(1.00883 -5.66759e-05 -6.71507e-22)
(1.04838 0.00190516 -5.37292e-21)
(1.01532 -0.00349716 9.90347e-22)
(1.0164 -0.00252005 0)
(0.986227 -0.211483 2.53615e-21)
(1.01684 -0.00198771 -1.30014e-21)
(0.900191 -0.0459359 -5.55449e-22)
(1.01412 -0.000804627 7.00821e-24)
(1.05871 -0.0136257 -3.3712e-22)
(1.01052 5.73356e-06 4.03568e-24)
(0.975234 -0.0685762 -1.21538e-21)
(1.00964 7.45612e-05 -5.6116e-22)
(0.81315 0.0577229 0)
(1.02294 -0.013105 -4.0506e-21)
(1.01618 -0.00635658 1.55137e-22)
(1.01448 -0.00102874 -4.22967e-22)
(0.925677 -0.234882 -2.17769e-21)
(0.997989 -0.198785 9.42517e-21)
(0.89101 -0.0951024 3.05715e-24)
(0.868138 0.0718301 0)
(1.12954 -0.0186161 8.37627e-21)
(1.01628 -0.00532639 -1.13244e-23)
(1.05721 -0.0123828 -9.29399e-21)
(0.998995 -0.11805 -1.1504e-20)
(1.0115 0.000876919 -1.21538e-21)
(1.03336 0.131483 0)
(1.03199 0.161393 1.0348e-20)
(1.09147 -0.0786087 5.5871e-21)
(1.16182 -0.0333755 0)
(1.03677 -0.0247868 0)
(0.959107 -0.228977 2.26334e-21)
(1.01876 0.0156171 0)
(0.897293 -0.153256 3.75848e-21)
(0.974228 -0.157572 3.78952e-21)
(1.04001 -0.0228437 -1.60376e-21)
(1.0318 -0.00936828 3.89006e-21)
(0.969448 -0.224932 -2.27215e-21)
(0.902064 -0.243252 3.45773e-21)
(1.01537 -0.000190453 1.65031e-21)
(1.02394 -0.0326619 0)
(1.01917 -0.000995839 1.14634e-21)
(1.01791 -0.016677 0)
(1.08641 0.000734418 0)
(1.01012 0.000142693 -5.48695e-22)
(1.01225 0.00401112 0)
(1.04955 -0.00489563 -8.30725e-21)
(1.0607 -0.0265975 0)
(1.09068 -0.0147101 0)
(1.00521 -0.0135487 0)
(1.02975 -0.0252113 -1.46182e-20)
(1.01459 -0.00104025 -3.61755e-22)
(1.01101 0.00278533 -1.33936e-21)
(1.07986 -0.00425728 0)
(0.924343 -0.14891 -7.58581e-23)
(1.08691 0.00302505 1.49785e-20)
(1.01809 -0.000284891 -1.73277e-21)
(1.03664 -0.0340513 -5.63495e-22)
(1.01519 0.000103318 0)
(1.01155 0.00137629 0)
(1.04267 0.148348 -7.21634e-21)
(1.01197 0.000919159 -2.52103e-23)
(1.03658 -0.0230918 1.46083e-21)
(0.946501 -0.236635 -9.58544e-21)
(0.938399 -0.234832 0)
(1.01885 0.00721854 2.77646e-21)
(0.87452 -0.129312 0)
(1.20823 -0.016612 0)
(0.895386 -0.0085568 -3.32058e-22)
(1.06299 -0.117919 -5.75799e-21)
(0.411176 -0.0288721 8.05325e-21)
(1.01506 -0.000442667 8.72128e-22)
(0.965139 0.145563 3.2427e-21)
(1.02292 -0.0148658 2.14614e-21)
(1.01472 -0.00289134 1.28578e-21)
(1.02359 -0.00665144 -1.24003e-21)
(1.0086 -6.12678e-05 -1.56502e-21)
(1.01617 -0.00729171 1.1796e-21)
(0.160772 0.0707757 -9.308e-22)
(1.02518 0.00475995 -4.59288e-22)
(1.01563 0.175316 -6.87225e-21)
(1.01244 0.010111 0)
(1.03881 -0.0818454 0)
(1.02398 -0.0169749 1.54776e-21)
(1.08755 0.00164273 0)
(1.02812 0.0133985 7.2122e-22)
(1.00738 -0.00540341 1.13211e-21)
(1.10046 -0.0274266 2.1845e-20)
(1.01114 0.00936637 0)
(1.01136 0.00228755 0)
(1.13727 -0.036141 0)
(1.01457 -0.0155622 7.62006e-22)
(1.07762 -0.0270926 1.00652e-20)
(1.02317 0.00459041 0)
(1.01519 -0.00154564 -3.47161e-22)
(1.0026 -0.181872 6.57841e-21)
(0.839877 -0.158327 -2.82715e-21)
(1.01858 0.0188261 -1.40173e-21)
(1.01715 0.00260922 0)
(1.0169 0.00238417 0)
(1.01408 -0.00660108 1.11602e-21)
(1.01984 0.0122679 1.04737e-21)
(1.01335 -0.214152 4.62821e-21)
(1.13517 -0.0283862 0)
(1.07135 -0.12068 5.65401e-21)
(1.08258 -0.0348582 0)
(1.01136 0.183285 -1.72248e-20)
(1.01983 0.00134174 1.06485e-21)
(1.00072 -0.043485 7.30749e-24)
(0.992441 -0.00576902 0)
(1.05982 -0.0147668 2.22955e-21)
(1.16375 -0.0448196 -1.12718e-20)
(1.01725 -0.00357327 8.98368e-23)
(1.0174 -0.00270567 4.23706e-22)
(0.909526 -0.0917888 0)
(1.08909 -0.0299738 1.58207e-21)
(0.302438 -0.0251545 -5.07794e-21)
(1.01702 -0.00314923 -6.27037e-23)
(1.00522 -0.0515222 3.7516e-20)
(1.00007 -0.0323259 0)
(1.0138 -0.000163395 1.32698e-21)
(1.09152 -0.00133185 0)
(1.06184 -0.000489676 -1.34315e-20)
(1.02918 -0.218584 7.43358e-21)
(1.01165 -0.000387802 -1.33205e-21)
(1.06758 -0.00869766 7.1461e-21)
(1.07113 -0.0997136 0)
(0.998338 0.00148383 1.31568e-21)
(1.01712 -0.00328737 0)
(1.04206 -0.0309298 6.00588e-22)
(1.0214 -0.0138315 -2.80225e-21)
(1.01313 0.000218146 1.91612e-22)
(1.01678 -0.00262935 8.60136e-22)
(0.866697 0.0672378 0)
(1.01966 -0.0143565 -1.51586e-21)
(1.07187 0.00204105 7.01048e-22)
(0.910834 -0.0289512 0)
(1.09055 -0.00268311 1.28303e-20)
(1.01589 -0.0391887 0)
(1.0764 -0.0484425 -9.42985e-23)
(0.984859 0.0497204 1.68057e-21)
(0.96397 0.166885 -4.85751e-21)
(0.991131 0.0530255 2.18162e-22)