/*--------------------------------*- C++ -*----------------------------------*\
| =========                 |                                                 |
| \\      /  F ield         | OpenFOAM: The Open Source CFD Toolbox           |
|  \\    /   O peration     | Version:  v2012                                 |
|   \\  /    A nd           | Website:  www.openfoam.com                      |
|    \\/     M anipulation  |                                                 |
\*---------------------------------------------------------------------------*/
FoamFile
{
    version     2.0;
    format      ascii;
    class       surfaceVectorField;
    location    "600";
    object      Uf_0;
}
// * * * * * * * * * * * * * * * * * * * * * * * * * * * * * * * * * * * * * //

dimensions      [0 1 -1 0 0 0 0];


internalField   nonuniform List<vector> 
14516
(
(1.088 -0.120095 -1.75713e-21)
(1.09543 -0.118031 -1.31357e-21)
(1.08835 -0.111127 2.55237e-21)
(0.975663 -0.160718 -2.19979e-21)
(0.961352 -0.174507 -6.88004e-23)
(0.971316 -0.160075 6.49556e-21)
(1.07899 -0.121469 1.44309e-21)
(1.08521 -0.1296 7.10863e-21)
(1.01569 -0.00103705 -1.33862e-23)
(1.0157 -0.00113086 -6.93252e-25)
(1.01581 -0.0010523 -2.77991e-24)
(0.832936 0.0425383 -2.15312e-20)
(0.770977 0.07614 -6.19074e-21)
(0.730116 0.115417 -1.33685e-20)
(1.00485 -0.00232345 -7.81103e-22)
(1.00532 -0.00420836 7.77262e-22)
(1.00669 -0.00264028 4.28243e-22)
(1.00961 -0.000161823 -5.94595e-23)
(1.0105 -0.0003552 1.24979e-22)
(1.01118 -0.000486537 -6.66855e-22)
(1.01337 -0.00270401 6.94924e-22)
(1.01333 -0.00252287 -7.42362e-23)
(1.01352 -0.00264394 6.89436e-22)
(1.03469 0.000449258 -2.42392e-21)
(1.03477 0.00108795 -1.00613e-20)
(1.03555 0.000410293 1.62285e-21)
(0.940177 -0.0325253 -9.67025e-21)
(0.898083 0.0133976 -1.41087e-20)
(1.10459 -0.00337197 0)
(1.10593 -0.00144053 0)
(1.10273 -0.00147623 -5.77187e-21)
(0.827366 0.0799106 -4.96006e-22)
(0.812467 0.0674774 8.26241e-22)
(0.80454 0.0869889 -3.67523e-21)
(1.01561 -0.000913957 -1.12122e-23)
(1.01555 -0.000995439 7.74938e-24)
(1.02027 -0.00343124 2.06597e-23)
(1.02111 -0.00301418 3.42384e-22)
(1.02006 -0.00254914 -2.25997e-22)
(1.00391 -6.62131e-05 5.50515e-22)
(1.00395 -4.9101e-06 4.03258e-22)
(1.01937 -0.00381175 -3.4931e-22)
(1.01851 -0.00393888 7.03304e-22)
(1.01852 -0.0031482 5.91042e-22)
(1.02444 -0.00499091 3.96758e-24)
(1.02404 -0.00363355 6.22569e-22)
(1.02278 -0.00479982 5.40008e-22)
(1.02477 -0.00673184 -3.40273e-22)
(1.02643 -0.00539116 4.92069e-22)
(0.984294 -0.21415 -8.98274e-22)
(0.992983 -0.224626 -2.70025e-21)
(0.977171 -0.226421 -7.0878e-24)
(1.0203 -0.00444802 -3.34826e-22)
(0.89877 -0.063087 0)
(0.901801 -0.0748362 0)
(0.910092 -0.0665632 0)
(1.03251 -0.0300004 -7.13978e-23)
(1.03424 -0.0307654 -2.94293e-22)
(1.0337 -0.0287109 1.86275e-21)
(0.894293 0.0278985 -2.52115e-24)
(0.884948 0.0177072 -5.00544e-21)
(0.878746 0.0351408 -5.24138e-22)
(1.01767 0.00287564 3.35975e-23)
(1.01753 0.00283231 1.71157e-23)
(1.02783 -0.00622061 -2.70367e-22)
(1.02872 -0.00513693 -7.33957e-22)
(1.02952 -0.00665816 2.22273e-22)
(1.01538 -0.000708604 1.16423e-23)
(1.01561 -0.000795871 2.29593e-24)
(1.017 -0.00556163 -8.14709e-23)
(1.01802 -0.0056342 0)
(1.01751 -0.006622 0)
(1.02025 5.50215e-05 -7.77243e-22)
(1.02056 0.000751596 -1.54612e-22)
(1.01953 0.000670055 -1.19453e-21)
(1.1026 -0.034792 0)
(1.1 -0.0321376 -4.33861e-21)
(1.09873 -0.036014 0)
(1.03384 0.000471034 3.32726e-21)
(1.03455 -0.000164978 7.00546e-21)
(0.981675 0.0319549 1.1583e-21)
(0.976952 0.0343455 1.83188e-21)
(0.977958 0.0269952 6.17125e-23)
(0.905787 0.0381276 3.13561e-21)
(0.912389 0.023514 -8.17361e-22)
(1.00093 0.190752 1.90667e-21)
(1.00902 0.194691 -8.54321e-21)
(0.991108 0.209757 2.12578e-21)
(1.00808 3.39995e-05 3.95327e-22)
(1.00805 6.57781e-06 -6.54597e-22)
(1.00579 2.27448e-05 -6.1163e-22)
(1.10511 -0.0381812 1.91628e-21)
(1.10712 -0.0424717 -4.0312e-21)
(1.10267 -0.043304 2.00984e-21)
(0.882505 -0.0963146 2.86316e-22)
(0.886953 -0.109414 1.25044e-21)
(0.872547 -0.10585 -7.57426e-23)
(1.00858 -0.000124816 -5.2403e-22)
(1.00684 -7.07992e-06 5.8346e-22)
(1.03103 -0.0312439 3.02376e-22)
(1.03085 -0.0291266 2.96023e-22)
(1.0135 -0.0038104 4.26805e-22)
(1.01343 -0.00410672 0)
(1.0138 -0.00412429 0)
(1.01078 -4.58745e-05 -2.59693e-22)
(1.01031 -7.17646e-05 -2.74674e-22)
(1.01121 -2.22139e-05 -4.78421e-22)
(0.986638 0.0289536 -1.0327e-21)
(0.986791 0.036504 2.62895e-21)
(1.00653 -9.1326e-06 -1.47518e-22)
(1.00358 -6.92804e-05 2.20396e-22)
(1.01411 -0.000594225 -5.06594e-23)
(1.01474 -0.000551555 1.0062e-22)
(1.0141 -0.000568274 -7.31718e-22)
(1.01019 -0.000276721 -2.09817e-24)
(1.00941 -0.000298898 1.32157e-22)
(1.01109 -0.000284292 2.11297e-22)
(1.01176 -0.000344068 3.38194e-23)
(1.01422 -0.000507938 2.25249e-22)
(1.01515 -0.000653103 1.00471e-23)
(1.10667 -0.0334051 1.39637e-21)
(1.02954 0.0681626 1.86599e-22)
(1.03742 0.0706516 -1.81947e-22)
(1.03791 0.0592022 0)
(1.00675 0.114444 -8.67265e-22)
(0.985152 0.122347 5.69048e-23)
(1.01186 0.108527 5.22376e-23)
(1.01573 -0.00124222 3.26799e-24)
(1.01562 -0.00119906 2.10544e-23)
(1.11007 -0.0456985 -6.42286e-21)
(1.11187 -0.0403666 6.63815e-21)
(1.11224 -0.00766796 7.09147e-21)
(1.11162 -0.00428027 -7.24449e-21)
(1.10887 -0.00636424 7.22879e-21)
(1.00492 -0.00949823 7.0658e-22)
(1.00372 -0.00809692 4.78006e-22)
(1.0031 -0.0102054 4.24613e-22)
(1.03427 -0.00724518 -1.48404e-21)
(1.0335 -0.00683448 1.17683e-21)
(1.03343 -0.00763107 2.73994e-21)
(1.20601 -0.0347291 -2.04674e-21)
(1.20833 -0.0205618 1.40439e-21)
(1.19743 -0.0257972 1.19131e-21)
(0.761053 -0.0874727 -3.86985e-24)
(0.742464 -0.107573 1.67231e-21)
(0.731204 -0.0797181 0)
(1.02564 0.0015828 3.92996e-22)
(1.02509 0.00154581 1.43724e-22)
(1.09773 0.0158512 0)
(1.09727 0.013891 0)
(1.10006 0.0144258 6.40975e-21)
(0.92829 0.252149 -5.13448e-21)
(0.922268 0.246758 -4.6489e-21)
(0.922324 0.255861 -1.27013e-21)
(1.01357 -0.00363342 5.95829e-22)
(1.0133 -0.00358064 9.01425e-22)
(1.00897 -7.15922e-05 0)
(1.00838 2.26807e-05 0)
(1.00987 -9.76418e-05 0)
(1.00696 -0.0156127 0)
(1.00556 -0.0146297 0)
(1.00542 -0.01678 0)
(0.926858 0.191969 1.51337e-21)
(0.922175 0.200061 -5.27493e-22)
(0.918402 0.188301 -1.02583e-21)
(1.01724 -0.000446602 -1.774e-22)
(1.01784 -0.000593099 -7.86581e-22)
(1.01691 -0.00044352 -2.11754e-22)
(0.573063 0.233553 -1.29805e-20)
(0.605777 0.220383 5.63324e-21)
(0.996537 0.152966 -1.77933e-21)
(1.00983 0.159279 -1.86085e-21)
(1.01208 0.142412 4.0245e-21)
(0.93414 0.179282 -8.18913e-22)
(0.939429 0.191931 1.44109e-23)
(0.944823 0.167104 -3.71623e-21)
(0.959899 0.153397 2.64243e-21)
(0.962261 0.161095 4.87739e-22)
(0.840968 0.0886969 -3.2925e-21)
(0.854518 0.0761581 1.3636e-21)
(1.10584 -0.00587411 0)
(1.10267 -0.00540071 0)
(1.21311 -0.0460583 -8.27446e-21)
(1.19952 -0.0457957 -1.19816e-21)
(1.01281 0.000356299 4.56471e-25)
(1.01329 0.000432638 -1.24268e-23)
(1.01406 0.000618784 0)
(1.0174 -0.00388643 2.05189e-22)
(1.0175 -0.00410081 3.36026e-22)
(1.01738 -0.00398005 1.70074e-22)
(1.03753 -0.0614874 -5.41232e-22)
(1.03706 -0.0554119 -7.22793e-23)
(1.04445 -0.0502275 6.85845e-22)
(1.11078 -0.0512891 4.05089e-21)
(1.11609 -0.0492481 -3.42559e-21)
(0.935809 0.254884 -5.37425e-21)
(0.93288 0.245436 0)
(1.02596 0.00128602 -1.36814e-21)
(1.02629 0.000955834 1.75884e-21)
(1.02563 0.000978417 0)
(1.01964 0.000870631 5.26213e-22)
(1.01904 0.000710264 1.58823e-22)
(1.01981 0.000219393 1.041e-22)
(1.01719 0.0115504 1.09865e-22)
(1.0157 0.0104614 3.964e-22)
(1.01692 0.00981678 -5.39331e-22)
(1.02176 0.00304912 4.3323e-23)
(1.02063 0.0034402 -4.75847e-22)
(1.02064 0.00235386 9.57051e-24)
(0.985036 0.162181 -3.19188e-21)
(0.986046 0.145619 -1.65754e-22)
(1.01138 0.00998072 1.53271e-21)
(1.01042 0.00847234 4.83584e-22)
(1.01194 0.00855652 -2.37263e-22)
(0.944001 -0.193362 7.43308e-22)
(0.933937 -0.2001 6.87599e-22)
(0.934664 -0.201294 0)
(1.00608 0.0472448 5.50307e-22)
(1.00778 0.0518861 2.7942e-22)
(1.01418 0.0442239 4.39672e-22)
(0.991007 0.0257097 2.45632e-21)
(0.986649 0.0219545 -4.88922e-21)
(1.01738 0.0621658 -3.68637e-22)
(1.02301 0.065963 1.85165e-22)
(1.02608 0.055512 0)
(1.02286 0.00393274 -5.95713e-22)
(1.02296 0.00245333 7.68797e-22)
(1.02655 0.000645956 -1.21396e-21)
(1.02679 0.00030134 -1.48292e-21)
(1.02617 0.000348469 -1.44884e-21)
(1.00834 -0.0146196 0)
(1.00981 -0.0137788 -8.67795e-24)
(1.00873 -0.0127624 -1.94105e-22)
(1.00711 0.00615349 -2.95088e-22)
(1.00743 0.00784141 -5.88062e-22)
(1.0057 0.00720765 3.23038e-22)
(0.976537 -0.157728 -1.0884e-20)
(0.988928 -0.145011 -9.6137e-21)
(0.728003 0.132858 -5.37683e-21)
(0.720515 0.140004 -8.35456e-21)
(0.827391 0.0919041 6.85886e-21)
(1.01228 0.000793476 -3.06253e-22)
(1.01206 0.000842901 -7.065e-22)
(1.01225 0.00114216 -3.22343e-23)
(0.916666 0.0482368 7.40155e-24)
(0.900993 0.055661 -1.26172e-21)
(1.00829 -0.0164099 1.11125e-23)
(0.996726 0.050651 1.33819e-22)
(1.00498 0.0430687 -1.52179e-22)
(0.782626 -0.0689852 -3.8278e-24)
(0.791239 -0.0861208 4.38531e-24)
(0.952459 -0.184539 -1.17824e-21)
(0.954662 -0.181432 -2.26467e-21)
(1.01231 0.000533497 9.1389e-23)
(1.01246 0.000783275 5.04518e-22)
(1.01397 0.00155466 5.55264e-22)
(1.01387 0.00172148 3.97311e-22)
(1.01374 0.00140107 7.49913e-22)
(1.01427 0.00175403 -3.77028e-22)
(1.01403 0.00141866 -5.59477e-22)
(1.00577 -0.00130982 -2.62956e-22)
(1.0052 -0.000118912 1.00741e-21)
(1.00446 -0.00139913 5.2365e-23)
(1.01354 -0.000896051 -9.0426e-22)
(1.01349 -0.000982729 -9.9959e-22)
(1.01371 -0.00106333 -8.52108e-22)
(1.01339 -0.000755386 4.44416e-22)
(1.01359 -0.000796449 8.98807e-22)
(1.01944 0.0014517 -1.20047e-22)
(1.02011 0.00116083 -1.22387e-22)
(0.994595 0.0224112 4.97416e-21)
(0.995161 0.0282147 4.06687e-21)
(1.0111 -0.0133516 1.21466e-22)
(1.01063 -0.0148663 -3.57784e-22)
(1.00853 9.82819e-06 -3.26327e-22)
(1.00911 -0.000103675 5.02995e-23)
(1.00998 -0.000126681 2.71401e-22)
(1.00666 -0.00889947 -7.05857e-22)
(1.00619 -0.0106831 1.81952e-22)
(1.06902 0.0685005 -3.78292e-21)
(1.07658 0.0562211 7.34261e-21)
(1.07227 0.0502156 -2.31632e-21)
(1.01249 0.000353786 4.52031e-24)
(1.01137 0.000180594 -3.95921e-23)
(0.871239 -0.026489 2.22722e-21)
(0.87129 -0.0127472 1.36174e-22)
(0.849991 -0.0227208 -1.66056e-21)
(1.02319 0.00145826 2.15536e-21)
(1.0236 0.00142236 1.04473e-21)
(0.790328 -0.160967 0)
(0.774273 -0.146715 8.96552e-22)
(0.764145 -0.168995 1.79474e-23)
(1.11238 -0.0109 0)
(1.11586 -0.00865397 0)
(1.02629 0.00157805 -1.24032e-21)
(1.03733 0.156643 2.71058e-21)
(1.04363 0.146892 -3.68218e-21)
(1.05143 0.1302 -4.01567e-21)
(1.11229 -0.0569298 -7.10245e-22)
(1.10645 -0.0537426 3.87499e-21)
(1.01248 0.0114296 -5.50877e-22)
(1.01061 0.011675 0)
(0.931126 0.0412954 0)
(0.927842 0.0541719 0)
(1.06103 0.0759223 1.83265e-21)
(1.06368 0.0855782 3.40764e-21)
(1.00781 0.000169547 4.28648e-23)
(1.00483 6.27412e-05 1.55649e-23)
(1.00496 5.88803e-05 0)
(1.02387 -0.00282997 0)
(1.02424 -0.00307044 0)
(1.02424 -0.00269689 0)
(1.00465 -0.00032514 -6.33838e-22)
(1.00282 -0.00180247 6.16068e-22)
(1.0406 -0.0107168 5.37717e-21)
(1.04058 -0.0118809 -6.95019e-22)
(1.03942 -0.0110075 3.56603e-21)
(0.886903 -0.059206 0)
(0.897377 -0.0517615 -2.78514e-22)
(1.09028 0.00249512 4.23127e-21)
(1.08934 0.00303542 -2.64486e-21)
(1.08921 0.0020146 2.17062e-21)
(1.01351 0.0589739 -1.05871e-21)
(1.00788 0.069028 -3.23601e-22)
(1.01879 0.0124276 1.05464e-21)
(1.01724 0.0135321 8.04151e-22)
(1.01864 -0.00419655 4.70957e-22)
(1.01877 -0.00409943 5.79999e-22)
(1.01852 -0.00400645 -2.73751e-22)
(1.01097 0.000238196 -2.34673e-22)
(1.01054 0.000241949 5.69048e-23)
(1.01222 0.000358335 -7.8529e-23)
(1.02692 0.000931885 -4.94159e-22)
(1.01854 -0.00427162 2.10991e-22)
(1.01876 -0.00438796 -2.77271e-22)
(1.00564 -0.00736355 1.04301e-23)
(1.006 -0.00881975 1.35892e-21)
(1.007 -0.00785914 -9.6813e-22)
(1.0331 0.000498569 1.27018e-21)
(1.0333 0.00103107 -4.2594e-21)
(1.02702 -4.77334e-05 1.64802e-21)
(1.02727 -0.000443371 -1.68559e-21)
(1.02664 -0.000336103 1.58292e-21)
(1.01526 -0.000253741 1.28557e-21)
(1.01743 -0.000406651 5.50623e-22)
(1.00954 -0.000150503 0)
(1.01096 -0.000359171 -8.49926e-22)
(1.02302 0.00116855 -4.08728e-22)
(1.02274 0.00141641 1.06648e-21)
(1.0124 0.000246923 -1.67645e-22)
(1.01253 0.000262085 -4.01837e-22)
(1.01244 0.000229378 -1.52076e-22)
(1.02352 -0.00292009 0)
(1.0235 -0.00259516 0)
(1.02595 -0.00800482 -2.43669e-22)
(1.02701 -0.00708862 -4.95964e-22)
(1.02734 -0.0086261 0)
(1.01377 -0.000703325 5.27196e-23)
(1.014 -0.000721862 2.52157e-22)
(1.01365 -0.000671496 3.59952e-23)
(1.01549 0.00224231 -2.28524e-22)
(1.01545 0.00195823 -3.86003e-22)
(1.01587 0.0022946 -5.09678e-22)
(1.02231 -0.00353013 6.41261e-22)
(1.02204 -0.00246392 -6.6755e-22)
(1.02484 -0.00333538 5.35338e-23)
(1.02368 -0.00415716 -7.22194e-22)
(1.02517 -0.00474127 -6.49479e-22)
(1.01303 -0.068725 -9.16574e-23)
(1.00604 -0.0607131 -6.3761e-23)
(1.0011 -0.0722526 0)
(1.01505 0.00211536 3.70751e-22)
(1.0154 0.00252442 -4.05031e-22)
(1.01249 -0.000119945 8.05042e-22)
(1.01242 8.23769e-05 2.39837e-22)
(1.01241 -0.000221784 8.61786e-22)
(0.72808 0.128283 2.20197e-21)
(0.632556 0.168592 1.47091e-21)
(1.06614 -0.340556 -5.36684e-21)
(1.0569 -0.353743 -5.10383e-21)
(1.02695 -0.349991 2.92585e-20)
(1.01178 0.000381667 -1.91854e-23)
(1.00971 0.000104342 -1.81306e-23)
(1.08965 -0.331485 0)
(1.06903 -0.314605 9.62521e-21)
(1.00532 -0.103795 2.18631e-20)
(1.04853 -0.114072 -4.28078e-21)
(1.01257 -0.000264445 -3.64917e-22)
(1.01256 -3.36512e-05 -8.43542e-22)
(1.00991 0.000255086 -7.22252e-24)
(1.00982 0.000258064 2.4457e-22)
(1.01117 0.000218473 7.50671e-22)
(1.01056 0.000151409 -3.11006e-22)
(1.01155 0.000271223 0)
(1.02493 -0.00860714 1.03574e-21)
(1.02476 -0.0073016 -2.15558e-22)
(1.01461 0.00193408 0)
(1.01467 0.00172144 -7.71724e-22)
(1.01384 -0.000749271 6.0822e-22)
(1.01354 -0.000581799 6.73312e-23)
(1.01345 -0.00289582 2.82094e-22)
(1.01324 -0.0027557 5.96087e-22)
(1.01964 -0.000545969 -3.42051e-22)
(1.02058 -0.00067567 -2.81914e-22)
(1.01539 -0.0037965 1.91889e-23)
(1.01472 -0.00363674 8.18603e-23)
(1.0149 -0.00431572 -7.36875e-24)
(0.975586 -0.205332 2.71645e-21)
(0.966392 -0.195321 7.57169e-21)
(0.959967 -0.205588 5.48187e-21)
(1.02031 -0.0803601 4.03863e-21)
(1.03052 -0.0710136 -7.03773e-22)
(1.02033 -0.0723305 -3.14282e-22)
(0.892297 -0.0856433 7.1912e-23)
(0.90471 -0.0875747 0)
(1.02015 0.0776841 4.12033e-21)
(1.05971 -0.0363206 2.75035e-21)
(1.05778 -0.0345756 -3.17929e-21)
(1.05724 -0.0370681 -1.75034e-21)
(1.0165 -0.00466026 -1.64264e-22)
(1.01605 -0.00533274 2.61394e-23)
(1.00819 -0.00205526 1.82187e-22)
(1.00782 -0.00125134 -2.35363e-22)
(1.00865 -0.00118904 2.97233e-22)
(1.01894 -0.00133902 -8.33084e-22)
(1.01847 -0.00156804 0)
(1.0188 -0.00162325 -2.68136e-22)
(0.831117 -0.127333 1.5236e-21)
(0.846046 -0.105437 -2.15511e-20)
(0.822924 -0.0795664 -4.97234e-21)
(1.02078 -0.0888793 -1.80704e-22)
(1.01037 -0.0893189 1.93778e-22)
(0.837105 -0.167156 1.58526e-20)
(0.825484 -0.139744 1.14876e-20)
(1.04042 -0.00868663 3.5799e-21)
(1.04054 -0.00974881 1.88802e-21)
(1.03938 -0.00895302 0)
(0.990262 -0.202848 -8.18333e-22)
(1.02743 0.000244253 1.26186e-21)
(1.01721 0.0027139 9.63718e-24)
(1.01706 0.00263005 -5.99085e-23)
(1.01703 0.00266108 -1.70033e-22)
(1.01832 -0.00470533 -6.01063e-22)
(1.01848 -0.00492673 2.67039e-23)
(1.0185 -0.00468518 -4.14717e-22)
(1.07495 -0.0177312 1.13797e-20)
(1.07616 -0.0189839 6.09477e-21)
(1.07684 -0.0169675 -5.12237e-21)
(0.352654 -0.0579589 1.16567e-22)
(0.251397 -0.0565823 -2.99449e-21)
(0.285368 -0.0760193 -2.29987e-21)
(1.0519 -0.00166973 3.75969e-21)
(1.05063 -0.00145158 -4.16352e-21)
(1.05117 -0.00262803 5.69145e-22)
(1.01451 0.0021453 0)
(1.0264 -0.00575167 4.33841e-22)
(0.95141 0.255976 9.03954e-22)
(0.937248 0.265924 5.46384e-21)
(0.935751 0.265343 0)
(1.01739 -0.00380115 -3.6287e-22)
(1.01731 -0.00369124 -1.99191e-22)
(1.09816 0.0189776 -4.30625e-21)
(1.09368 0.0184218 -4.5668e-21)
(1.01816 -0.00469006 -2.50568e-23)
(1.01818 -0.00446267 -2.78325e-22)
(1.02344 -0.00362732 0)
(1.02306 -0.00368231 0)
(1.02336 -0.00397908 0)
(1.01609 -0.00395441 -1.67396e-22)
(1.01569 -0.00332079 8.93307e-23)
(1.04149 -0.00843159 -3.8367e-21)
(1.0403 -0.00766819 3.76184e-21)
(1.02021 6.31954e-05 5.38853e-22)
(1.02025 -4.11395e-05 9.07933e-22)
(1.02041 7.64289e-05 -5.10023e-22)
(1.02986 0.104763 1.59312e-23)
(1.00491 0.12048 -1.65206e-21)
(0.871811 -0.0408331 -1.23404e-21)
(0.885135 -0.0332064 2.23199e-21)
(0.928975 0.168575 -1.44481e-21)
(1.07396 -0.0156954 8.39034e-21)
(1.07302 -0.0179062 -1.14207e-22)
(1.08778 -0.167275 -2.66278e-21)
(1.09559 -0.155441 5.24578e-21)
(1.08077 -0.158433 -3.88158e-21)
(1.01012 0.00237493 -5.26666e-22)
(1.00947 0.00192309 -5.10872e-22)
(1.01003 0.00151123 -2.39599e-22)
(0.977383 -0.105207 -1.90976e-20)
(1.07525 -0.171059 1.13439e-21)
(1.01237 0.00025324 3.06901e-22)
(1.01216 0.000214937 5.89001e-22)
(1.03249 0.000479755 4.1499e-21)
(1.03303 -7.38134e-06 1.29349e-21)
(0.95941 -0.185943 -2.52428e-21)
(0.949866 -0.179828 0)
(0.960028 -0.171761 0)
(0.756603 -0.127389 2.58608e-21)
(0.730247 -0.126397 -4.29319e-21)
(1.01889 -0.00402184 7.42723e-22)
(1.01878 -0.00381111 1.95099e-22)
(1.01902 -0.00392106 -7.37105e-23)
(1.02748 -0.000821371 -5.36107e-21)
(1.02789 -0.000528646 -1.74442e-21)
(1.01916 0.00185826 0)
(1.01885 0.00174918 0)
(0.878404 -0.0816272 2.08489e-24)
(1.01837 0.000269798 -7.90889e-22)
(1.01798 -0.000115342 1.78406e-22)
(1.01878 -0.0001092 -6.28062e-22)
(0.997903 0.0197506 -1.66988e-21)
(0.994256 0.0169263 2.10973e-21)
(1.04859 -0.0140296 2.42906e-21)
(1.04747 -0.014835 2.53314e-21)
(1.04723 -0.0132696 -4.0813e-22)
(1.0801 -0.0308937 -4.79585e-21)
(1.07892 -0.0281308 4.64247e-21)
(1.08193 -0.0291293 -5.47812e-22)
(1.05401 0.0896795 -6.84593e-22)
(1.05535 0.087491 -6.52144e-21)
(0.964454 0.127426 2.25446e-23)
(0.961077 0.136054 1.88411e-22)
(1.03497 -0.00802925 2.1358e-21)
(1.03516 -0.00703456 -1.12408e-21)
(1.08036 -0.178762 -2.6602e-21)
(1.09742 -0.176381 5.8617e-21)
(1.01091 0.000244404 -6.27919e-24)
(1.01174 0.000281635 1.00233e-22)
(1.00773 -0.00386774 0)
(1.00768 -0.00488034 5.71181e-22)
(1.00847 -0.00444436 -1.01288e-21)
(0.966763 0.232884 -8.71322e-21)
(0.963789 0.242792 -4.36016e-21)
(1.01902 0.0021602 2.59445e-23)
(1.01946 0.00203013 -1.60017e-22)
(0.883048 0.193751 -1.8492e-21)
(0.882824 0.203944 2.74464e-21)
(0.87357 0.203867 -5.68143e-22)
(1.11693 -0.0763973 -1.99259e-22)
(1.1106 -0.0801037 -3.03762e-21)
(1.11768 -0.084894 9.61948e-21)
(1.02502 -0.00155451 8.00165e-22)
(1.02534 -0.00132751 1.50405e-21)
(1.02482 -0.00126456 -1.08498e-21)
(1.04172 -0.0105091 -8.15157e-22)
(1.02014 0.000165599 5.86423e-22)
(1.02002 3.64382e-05 -2.07962e-21)
(1.00999 0.0551442 -2.31968e-22)
(1.00028 0.059919 -1.07947e-21)
(0.974212 -0.186646 -1.99856e-21)
(1.00442 -0.00598948 1.18304e-22)
(1.00634 -0.00591346 1.14138e-22)
(1.01263 -0.000384335 1.19461e-21)
(1.01265 -0.000279906 6.00191e-23)
(1.01271 -0.000455899 -2.89776e-22)
(1.11558 -0.0695519 0)
(1.1232 -0.0732707 5.08151e-21)
(1.1012 -0.00905433 -4.27701e-21)
(1.10369 -0.0100528 -6.76603e-21)
(1.10118 -0.0114169 -2.32466e-21)
(1.0177 0.00286527 -1.51685e-22)
(1.0178 0.00293659 4.08877e-23)
(1.01737 0.00276384 7.56881e-23)
(1.01741 0.00274642 5.60027e-23)
(1.05263 -0.000906788 9.43201e-21)
(1.05309 -0.00214609 1.22651e-20)
(1.01196 0.000249321 0)
(1.01222 0.000241786 0)
(1.01186 0.000223375 -3.32491e-23)
(1.09477 0.000178493 -4.11679e-21)
(1.09348 0.00077614 -4.72952e-22)
(1.09358 -0.000626404 3.33352e-21)
(0.88233 0.183936 0)
(0.891721 0.188054 0)
(1.02285 0.00093701 -1.07426e-21)
(1.02245 0.000919787 6.04925e-23)
(1.02269 0.00070995 1.08535e-21)
(1.01815 -0.00230455 8.04529e-22)
(1.01836 -0.00212867 1.95518e-22)
(1.01844 -0.00223812 9.5086e-22)
(0.775915 -0.0472966 0)
(0.804783 -0.0515114 1.79405e-21)
(1.00688 0.00191202 -2.03722e-21)
(1.00789 0.00278999 2.68592e-22)
(1.00675 0.00329051 3.07286e-22)
(1.00063 0.0170257 -1.88341e-21)
(1.0013 0.0215424 -1.76611e-21)
(1.02127 -0.00080425 -7.02954e-23)
(1.02163 -0.00154296 -1.72025e-22)
(1.02053 -0.00133949 -4.09187e-22)
(1.01842 -0.00247592 2.46235e-22)
(1.01836 -0.00259885 3.17306e-22)
(1.01871 -0.0024962 4.71625e-22)
(1.00672 0.174565 -3.88831e-22)
(0.989246 0.186494 2.5638e-21)
(1.01794 -0.00244176 1.42235e-23)
(1.01795 -0.00250157 -3.79629e-22)
(1.01775 -0.00254659 -4.95576e-23)
(1.01236 0.000266894 -1.29508e-21)
(1.01249 0.000322681 -4.26213e-22)
(1.01315 -0.00236479 -4.16621e-25)
(1.01328 -0.00233167 -1.96753e-24)
(1.02379 -0.00923773 3.26305e-22)
(1.02485 -0.0100603 1.10821e-21)
(1.01221 0.000222249 3.00326e-22)
(1.00924 -7.3772e-05 5.67884e-22)
(1.00785 6.29109e-05 1.16593e-21)
(1.02665 -0.0147454 2.05838e-21)
(1.02723 -0.0141825 9.38686e-22)
(1.02745 -0.0151474 -1.03212e-22)
(1.06115 -0.019027 0)
(1.06078 -0.0172701 -4.68157e-21)
(1.05944 -0.0186064 4.43986e-21)
(1.1121 -0.0146862 -9.66277e-21)
(1.10913 -0.0128499 4.4992e-21)
(1.09142 0.001865 0)
(1.09252 0.00127546 -3.81474e-21)
(1.09135 0.000629264 0)
(1.01779 -0.00269328 -2.15954e-22)
(1.01754 -0.00270813 1.39148e-23)
(1.01769 -0.00277195 -2.18297e-22)
(1.02633 -0.0351127 3.02914e-22)
(1.0245 -0.0338482 -6.68759e-22)
(1.02427 -0.0364166 1.54956e-22)
(1.01814 -0.00180665 -3.77216e-22)
(1.01805 -0.00203328 2.74345e-22)
(1.01782 -0.00206247 -3.63735e-22)
(1.06144 -0.0207473 -5.14824e-21)
(1.0629 -0.0192457 0)
(1.01182 0.00762576 -7.43672e-22)
(1.00996 0.00726228 -1.63438e-21)
(1.01128 0.0055862 -2.00552e-21)
(1.01748 0.000881819 0)
(1.01794 0.000595145 -8.2035e-22)
(1.01724 0.000518292 0)
(0.995122 0.205127 -1.71646e-21)
(1.00354 0.193547 -7.88675e-21)
(0.986872 0.212549 -1.06901e-20)
(1.0179 -0.00242269 7.72462e-22)
(1.11559 -0.0164223 -1.37373e-21)
(1.11163 -0.0182981 -2.23131e-21)
(1.00789 7.80065e-05 1.06276e-21)
(1.00937 -3.50156e-05 -1.38245e-22)
(1.00842 -1.3453e-05 -2.99911e-22)
(1.06231 -0.0354869 4.79867e-21)
(1.06166 -0.0387321 2.8134e-21)
(1.01831 0.00272673 -1.81321e-24)
(1.01842 0.00263745 -1.20714e-22)
(1.01822 0.00275546 -1.1503e-23)
(1.01834 0.002782 -2.04766e-23)
(1.01817 0.00282486 1.70671e-23)
(1.08113 -0.0335797 -3.94035e-21)
(1.07796 -0.032451 6.24322e-22)
(0.94132 -0.173996 -7.16546e-22)
(0.940772 -0.187195 -5.45068e-22)
(1.01171 -0.0126535 5.3019e-23)
(1.01131 -0.0112131 2.30637e-23)
(1.01256 -0.0117706 4.6863e-23)
(1.01781 0.00121376 2.39997e-22)
(1.01713 0.00111545 -1.53778e-22)
(1.01397 -0.00127791 9.72061e-22)
(1.01428 -0.0013789 4.07735e-22)
(1.01406 -0.00111878 -5.26578e-23)
(1.0374 -0.0509215 3.09934e-23)
(1.03948 -0.0485004 -1.18566e-21)
(1.03587 -0.0484342 1.20877e-22)
(1.02562 -0.00109537 1.53134e-21)
(1.02595 -0.000862159 1.86391e-22)
(1.02541 -0.00076405 1.73667e-22)
(1.00192 -0.12936 -1.69137e-22)
(1.01109 -0.116688 -1.51404e-21)
(0.999796 -0.133725 -3.3229e-22)
(0.993989 -0.136864 4.91902e-21)
(1.00416 -0.123582 -1.67617e-22)
(1.01901 -0.00421895 -3.66564e-23)
(0.872763 -0.0546999 -2.05217e-21)
(0.853776 -0.0520834 -3.51058e-21)
(1.01959 -0.000315667 6.49225e-22)
(1.01954 -0.00027559 -3.63478e-22)
(1.01961 -0.000254363 0)
(1.09143 0.00305607 0)
(1.02264 -0.00963555 -1.20593e-21)
(1.02287 -0.00845162 2.84508e-22)
(1.01795 0.00289572 -1.19919e-22)
(1.01783 0.00288498 -7.22771e-23)
(1.018 0.00287062 2.91561e-23)
(1.00829 -9.06794e-05 2.03254e-22)
(1.00606 -5.28017e-05 0)
(1.00827 -4.77083e-05 -4.62777e-22)
(1.01125 -9.619e-05 1.15485e-22)
(1.01042 -1.26316e-05 5.11203e-22)
(1.02478 -0.00181534 -1.37911e-21)
(1.02519 -0.00184598 3.38901e-21)
(1.02595 -0.0153017 1.99844e-21)
(1.02589 -0.0143279 1.49108e-21)
(1.06214 -0.0310615 0)
(1.06132 -0.0290297 0)
(1.05991 -0.0309712 0)
(1.01233 -0.000547917 6.49076e-22)
(1.01201 -0.000431423 -4.98248e-22)
(1.01252 -0.00061754 -4.55354e-22)
(1.02709 -0.00109443 -1.89875e-21)
(1.02768 -0.00122274 -1.58134e-21)
(1.02327 0.000943141 2.13162e-22)
(1.02446 0.17786 -5.58533e-21)
(1.03117 0.159504 -4.98553e-21)
(1.00914 -0.00950886 -2.57358e-22)
(1.00818 -0.00848357 -5.97792e-22)
(1.00957 -0.00809667 3.8502e-22)
(1.00685 -0.000211418 1.4082e-22)
(1.01137 0.000223001 -1.68349e-23)
(1.00958 0.000243598 -1.01352e-22)
(1.01039 0.00020827 -1.18786e-22)
(1.00563 -0.00600662 -2.16774e-21)
(1.00433 -0.0067914 1.53545e-21)
(1.04011 -0.0151653 -1.97899e-21)
(1.03981 -0.0163572 -4.52521e-22)
(1.03881 -0.0154231 -7.60355e-23)
(1.06303 -0.0331114 0)
(1.06455 -0.0309892 0)
(1.01923 -0.000642094 0)
(1.01928 -0.000749111 -7.46188e-22)
(1.01934 -0.000647244 0)
(0.893769 -0.228783 -1.29288e-21)
(0.899359 -0.237462 1.86621e-21)
(0.903454 -0.224432 -9.05387e-22)
(1.01262 -0.000504196 9.95932e-22)
(0.896914 0.235071 3.2284e-21)
(0.885831 0.242584 -3.60516e-22)
(0.885783 0.227768 4.87415e-21)
(0.995351 0.136728 7.68436e-21)
(0.981166 0.175452 -1.20538e-20)
(0.972003 0.14344 -1.01534e-20)
(1.00622 1.93923e-05 -7.40655e-22)
(1.00808 2.97869e-05 -5.7132e-22)
(1.00852 -7.31132e-05 0)
(1.00929 -0.000193243 -7.94655e-22)
(1.01005 -0.00028332 9.28507e-23)
(1.01665 0.0018422 -9.21521e-22)
(1.01636 0.00197998 4.97772e-22)
(1.01687 0.00219679 -8.225e-22)
(1.03521 -0.0532864 1.45689e-21)
(1.03911 -0.0534058 1.35569e-21)
(1.04837 -0.0346645 -3.9793e-22)
(1.04998 -0.0336456 -5.59197e-21)
(1.04801 -0.0325953 -2.31165e-21)
(1.02161 -0.00989868 3.28118e-22)
(1.02092 -0.00908646 5.26664e-22)
(1.02058 -0.0100133 -5.99154e-22)
(0.905426 0.227794 -1.04778e-21)
(0.904434 0.242147 5.18357e-21)
(1.0192 -0.000282142 -6.1681e-22)
(1.0188 -0.00033722 -4.87723e-22)
(1.01932 -0.00010309 -8.03662e-24)
(1.01691 0.0016299 0)
(1.01645 0.00148048 0)
(1.0468 -0.0359274 2.296e-21)
(1.04881 -0.037065 2.16314e-21)
(1.0225 -0.0163714 -1.04742e-21)
(1.02336 -0.0169311 1.85181e-21)
(1.02234 -0.0174222 2.25064e-21)
(1.0279 -0.010581 1.18831e-21)
(1.02743 -0.010061 -1.43018e-21)
(1.02822 -0.0100143 -4.04844e-21)
(1.00817 0.00541654 -1.38796e-21)
(1.00677 0.00472441 2.46515e-22)
(1.01841 0.0504625 3.89158e-22)
(1.01926 -0.00365621 8.48546e-23)
(1.01978 -0.00372982 8.31915e-23)
(1.01941 -0.00399824 -4.12565e-22)
(1.04104 -0.0463646 0)
(1.03964 -0.0441061 -1.65819e-22)
(1.04272 -0.0441789 0)
(1.04982 -0.0145289 0)
(1.04948 -0.0130381 0)
(1.01763 -0.00333993 -1.36559e-22)
(1.018 -0.00344181 -5.89513e-22)
(1.01771 -0.00354215 -5.88816e-22)
(1.03791 -0.0671315 -2.51805e-21)
(1.04692 -0.203399 -2.64798e-21)
(1.05671 -0.19279 -2.69547e-21)
(1.04056 -0.193977 9.0173e-21)
(1.03017 -0.0560296 2.45865e-22)
(1.03687 -0.0481812 1.31051e-24)
(1.01867 0.00240191 1.917e-22)
(1.01888 0.0024496 1.22665e-22)
(0.415765 -0.0520667 -3.75636e-21)
(0.455023 -0.0591618 6.47039e-21)
(1.03951 -0.0175535 3.48698e-23)
(1.03907 -0.0187996 -1.82908e-21)
(1.0381 -0.0177591 1.42933e-22)
(0.917851 0.24122 -6.66541e-21)
(0.919679 0.237115 3.79292e-21)
(1.11391 -0.0624965 -4.75391e-21)
(1.1195 -0.0602099 2.27865e-21)
(1.01433 -0.0025692 -3.48477e-22)
(1.01413 -0.00214806 2.88349e-23)
(1.01387 -0.00235244 -3.45733e-22)
(1.05963 0.00131458 3.95085e-21)
(1.06121 0.00121511 1.96615e-21)
(1.10885 -0.0657812 0)
(1.00689 -0.00120495 0)
(1.00631 -0.00233644 0)
(1.00308 0.0147342 -5.81989e-22)
(1.00014 0.0126761 -5.29196e-22)
(1.11085 -0.00140797 -8.68317e-21)
(1.10859 -0.000697229 2.53849e-21)
(1.1107 0.00143195 3.1069e-21)
(1.013 -0.0021868 6.53662e-22)
(1.01298 -0.00206074 -6.58994e-22)
(1.01286 -0.00204293 -6.89063e-22)
(1.01307 -0.000284653 -9.25536e-22)
(1.01445 -0.00062741 -5.04963e-23)
(1.03185 0.000701928 1.35642e-21)
(1.03179 0.000161441 1.10614e-21)
(1.01022 1.09755e-05 0)
(1.01029 1.98783e-05 2.23119e-24)
(1.00907 2.71824e-05 0)
(1.02164 0.000950803 1.49641e-22)
(1.02063 0.00148612 -6.55924e-22)
(1.10046 -0.144023 -3.57519e-21)
(1.09208 -0.13803 6.3876e-21)
(1.10371 -0.133962 -1.86174e-22)
(1.018 -0.00464816 2.59342e-22)
(1.01812 -0.00485214 2.87866e-22)
(1.01731 -0.00324823 1.06216e-21)
(1.01757 -0.00317919 3.27892e-23)
(0.888244 -0.220998 -1.3064e-21)
(1.00604 0.000955569 -1.12031e-21)
(1.00724 0.000747452 -1.14102e-21)
(1.0183 -0.00476774 6.95602e-22)
(1.01766 -0.00401098 2.93219e-22)
(1.01849 0.00248291 -5.93633e-23)
(1.03263 -0.0228723 -1.11162e-21)
(1.03355 -0.0240959 1.95024e-22)
(1.03405 -0.0227429 -6.33702e-22)
(1.01299 -0.00235525 1.8493e-24)
(1.10958 -0.152534 1.13597e-21)
(1.04033 -0.0140873 -1.3901e-21)
(1.04051 -0.0128989 -4.10389e-21)
(1.03926 -0.0131735 2.23597e-22)
(1.02605 -0.00445776 4.1636e-22)
(1.0262 -0.00479375 1.77023e-21)
(1.02572 -0.00476072 2.13931e-21)
(1.02268 -0.0135542 -1.02591e-21)
(1.02268 -0.0144049 2.14936e-21)
(1.0219 -0.0138988 -3.51935e-22)
(1.0047 0.00115456 2.28541e-21)
(0.792164 -0.00850292 3.58396e-21)
(0.792225 0.02813 2.65486e-21)
(0.79136 -0.0187982 1.55416e-21)
(1.03358 -0.00609911 2.57054e-21)
(1.03275 -0.0064674 1.7284e-22)
(0.987746 -0.0535847 2.20193e-22)
(0.990142 -0.0492938 -6.35822e-22)
(0.984952 -0.0491002 1.01356e-21)
(1.01735 0.00278641 2.58511e-23)
(1.09376 -0.0195735 -4.07676e-21)
(1.09147 -0.0184515 -3.65723e-21)
(1.09178 -0.0206955 0)
(1.21566 -0.0562226 -6.92529e-21)
(1.1992 -0.0346679 2.31333e-20)
(1.10047 0.0220777 2.16614e-21)
(1.10238 0.0187245 -4.48791e-21)
(1.09621 -0.0206761 -3.79288e-21)
(1.09564 -0.018038 1.20778e-21)
(1.03185 -0.0212671 1.57817e-21)
(1.03105 -0.022577 -1.79074e-22)
(1.00391 -0.0112866 -2.00824e-21)
(1.00491 -0.00980759 2.68997e-21)
(1.00322 -0.00946448 9.73161e-22)
(1.06852 -0.185987 -3.53939e-22)
(1.07953 -0.196967 -1.93349e-21)
(1.00826 -0.000130397 -4.26294e-22)
(1.00967 6.19128e-06 -2.39252e-22)
(0.985341 0.212424 -2.93894e-22)
(1.00052 0.196009 6.37243e-21)
(1.00905 0.00462913 -1.9074e-21)
(1.00949 0.00585515 -1.05494e-21)
(1.01145 0.000244872 -5.34215e-22)
(1.01205 0.000289078 5.57352e-22)
(1.01066 0.0931026 1.09827e-20)
(1.0168 0.127545 1.92202e-20)
(1.00515 0.0124355 0)
(1.00583 0.015951 0)
(1.03604 -0.213541 3.96054e-21)
(1.05509 -0.215523 1.34436e-21)
(1.02583 -0.00415469 -4.01443e-21)
(1.02632 -0.00422459 -1.81827e-21)
(1.096 -0.000169067 -1.35113e-20)
(1.09562 0.00116606 3.64965e-21)
(0.896121 -0.112699 -2.65241e-22)
(0.887893 -0.122295 -2.37501e-22)
(1.03084 0.0074888 0)
(1.03301 0.00713797 0)
(1.03115 0.00551135 1.56084e-22)
(1.01737 -0.00365147 -1.31924e-22)
(1.01726 -0.00348636 2.89638e-24)