/*--------------------------------*- C++ -*----------------------------------*\
| =========                 |                                                 |
| \\      /  F ield         | OpenFOAM: The Open Source CFD Toolbox           |
|  \\    /   O peration     | Version:  v2012                                 |
|   \\  /    A nd           | Website:  www.openfoam.com                      |
|    \\/     M anipulation  |                                                 |
\*---------------------------------------------------------------------------*/
FoamFile
{
    version     2.0;
    format      ascii;
    class       pointVectorField;
    location    "250";
    object      pointDisplacement;
}
// * * * * * * * * * * * * * * * * * * * * * * * * * * * * * * * * * * * * * //

dimensions      [0 1 0 0 0 0 0];


internalField   nonuniform List<vector> 
18874
(
(0 0 0)
(-0 -6.41096e-07 -0)
(-0 -6.41096e-07 -0)
(0 0 0)
(-0 -6.41096e-07 -0)
(-0 -6.41096e-07 -0)
(0 0 0)
(0 0 0)
(0 0 0)
(0 0 0)
(0 0 0)
(0 0 0)
(0 0 0)
(0 0 0)
(0 0 0)
(0 0 0)
(0 0 0)
(0 0 0)
(0 0 0)
(0 0 0)
(0 0 0)
(0 0 0)
(0 0 0)
(0 0 0)
(0 0 0)
(0 0 0)
(0 0 0)
(0 0 0)
(0 0 0)
(0 0 0)
(0 0 0)
(0 0 0)
(0 0 0)
(0 0 0)
(0 0 0)
(0 0 0)
(0 0 0)
(0 0 0)
(0 0 0)
(0 0 0)
(0 0 0)
(0 0 0)
(0 0 0)
(0 0 0)
(0 0 0)
(0 0 0)
(0 0 0)
(0 0 0)
(0 0 0)
(0 0 0)
(0 0 0)
(0 0 0)
(0 0 0)
(0 0 0)
(0 0 0)
(0 0 0)
(0 0 0)
(0 0 0)
(0 0 0)
(0 0 0)
(0 0 0)
(0 0 0)
(0 0 0)
(0 0 0)
(0 0 0)
(0 0 0)
(0 0 0)
(0 0 0)
(0 0 0)
(0 0 0)
(0 0 0)
(0 0 0)
(0 0 0)
(0 0 0)
(0 0 0)
(0 0 0)
(0 0 0)
(0 0 0)
(0 0 0)
(0 0 0)
(0 0 0)
(0 0 0)
(0 0 0)
(0 0 0)
(0 0 0)
(0 0 0)
(0 0 0)
(0 0 0)
(0 0 0)
(0 0 0)
(0 0 0)
(0 0 0)
(0 0 0)
(0 0 0)
(0 0 0)
(0 0 0)
(0 0 0)
(-0 -6.41096e-07 -0)
(-0 -6.41096e-07 -0)
(-0 -6.41096e-07 -0)
(-0 -6.41096e-07 -0)
(-0 -6.41096e-07 -0)
(-0 -6.41096e-07 -0)
(-0 -6.41096e-07 -0)
(-0 -6.41096e-07 -0)
(-0 -6.41096e-07 -0)
(-0 -6.41096e-07 -0)
(-0 -6.41096e-07 -0)
(-0 -6.41096e-07 -0)
(-0 -6.41096e-07 -0)
(-0 -6.41096e-07 -0)
(-0 -6.41096e-07 -0)
(-0 -6.41096e-07 -0)
(-0 -6.41096e-07 -0)
(-0 -6.41096e-07 -0)
(-0 -6.41096e-07 -0)
(-0 -6.41096e-07 -0)
(-0 -6.41096e-07 -0)
(-0 -6.41096e-07 -0)
(-0 -6.41096e-07 -0)
(-0 -6.41096e-07 -0)
(-0 -6.41096e-07 -0)
(-0 -6.41096e-07 -0)
(-0 -6.41096e-07 -0)
(-0 -6.41096e-07 -0)
(-0 -6.41096e-07 -0)
(-0 -6.41096e-07 -0)
(-0 -6.41096e-07 -0)
(-0 -6.41096e-07 -0)
(-0 -6.41096e-07 -0)
(-0 -6.41096e-07 -0)
(-0 -6.41096e-07 -0)
(-0 -6.41096e-07 -0)
(-0 -6.41096e-07 -0)
(-0 -6.41096e-07 -0)
(-0 -6.41096e-07 -0)
(-0 -6.41096e-07 -0)
(-0 -6.41096e-07 -0)
(-0 -6.41096e-07 -0)
(-0 -6.41096e-07 -0)
(-0 -6.41096e-07 -0)
(-0 -6.41096e-07 -0)
(-0 -6.41096e-07 -0)
(-0 -6.41096e-07 -0)
(-0 -6.41096e-07 -0)
(-0 -6.41096e-07 -0)
(-0 -6.41096e-07 -0)
(-0 -6.41096e-07 -0)
(-0 -6.41096e-07 -0)
(-0 -6.41096e-07 -0)
(-0 -6.41096e-07 -0)
(-0 -6.41096e-07 -0)
(-0 -6.41096e-07 -0)
(-0 -6.41096e-07 -0)
(-0 -6.41096e-07 -0)
(-0 -6.41096e-07 -0)
(-0 -6.41096e-07 -0)
(-0 -6.41096e-07 -0)
(-0 -6.41096e-07 -0)
(-0 -6.41096e-07 -0)
(-0 -6.41096e-07 -0)
(-0 -6.41096e-07 -0)
(-0 -6.41096e-07 -0)
(-0 -6.41096e-07 -0)
(-0 -6.41096e-07 -0)
(-0 -6.41096e-07 -0)
(-0 -6.41096e-07 -0)
(-0 -6.41096e-07 -0)
(-0 -6.41096e-07 -0)
(-0 -6.41096e-07 -0)
(-0 -6.41096e-07 -0)
(-0 -6.41096e-07 -0)
(-0 -6.41096e-07 -0)
(-0 -6.41096e-07 -0)
(-0 -6.41096e-07 -0)
(-0 -6.41096e-07 -0)
(-0 -6.41096e-07 -0)
(-0 -6.41096e-07 -0)
(-0 -6.41096e-07 -0)
(-0 -6.41096e-07 -0)
(-0 -6.41096e-07 -0)
(-0 -6.41096e-07 -0)
(-0 -6.41096e-07 -0)
(-0 -6.41096e-07 -0)
(-0 -6.41096e-07 -0)
(-0 -6.41096e-07 -0)
(-0 -6.41096e-07 -0)
(-0 -6.41096e-07 -0)
(-0 -6.41096e-07 -0)
(-0 -6.41096e-07 -0)
(-0 -6.41096e-07 -0)
(-0 -6.41096e-07 -0)
(-0 -6.41096e-07 -0)
(-0 -6.41096e-07 -0)
(-0 -6.41096e-07 -0)
(-0 -6.41096e-07 -0)
(-0 -6.41096e-07 -0)
(-0 -6.41096e-07 -0)
(-0 -6.41096e-07 -0)
(-0 -6.41096e-07 -0)
(-0 -6.41096e-07 -0)
(-0 -6.41096e-07 -0)
(-0 -6.41096e-07 -0)
(-0 -6.41096e-07 -0)
(-0 -6.41096e-07 -0)
(-0 -6.41096e-07 -0)
(-0 -6.41096e-07 -0)
(-0 -6.41096e-07 -0)
(-0 -6.41096e-07 -0)
(-0 -6.41096e-07 -0)
(-0 -6.41096e-07 -0)
(-0 -6.41096e-07 -0)
(-0 -6.41096e-07 -0)
(-0 -6.41096e-07 -0)
(-0 -6.41096e-07 -0)
(-0 -6.41096e-07 -0)
(-0 -6.41096e-07 -0)
(-0 -6.41096e-07 -0)
(-0 -6.41096e-07 -0)
(-0 -6.41096e-07 -0)
(-0 -6.41096e-07 -0)
(-0 -6.41096e-07 -0)
(-0 -6.41096e-07 -0)
(-0 -6.41096e-07 -0)
(-0 -6.41096e-07 -0)
(-0 -6.41096e-07 -0)
(-0 -6.41096e-07 -0)
(-0 -6.41096e-07 -0)
(-0 -6.41096e-07 -0)
(-0 -6.41096e-07 -0)
(-0 -6.41096e-07 -0)
(-0 -6.41096e-07 -0)
(-0 -6.41096e-07 -0)
(-0 -6.41096e-07 -0)
(-0 -6.41096e-07 -0)
(-0 -6.41096e-07 -0)
(-0 -6.41096e-07 -0)
(-0 -6.41096e-07 -0)
(-0 -6.41096e-07 -0)
(-0 -6.41096e-07 -0)
(-0 -6.41096e-07 -0)
(-0 -6.41096e-07 -0)
(-0 -6.41096e-07 -0)
(-0 -6.41096e-07 -0)
(-0 -6.41096e-07 -0)
(-0 -6.41096e-07 -0)
(-0 -6.41096e-07 -0)
(-0 -6.41096e-07 -0)
(-0 -6.41096e-07 -0)
(-0 -6.41096e-07 -0)
(-0 -6.41096e-07 -0)
(-0 -6.41096e-07 -0)
(-0 -6.41096e-07 -0)
(-0 -6.41096e-07 -0)
(-0 -6.41096e-07 -0)
(-0 -6.41096e-07 -0)
(-0 -6.41096e-07 -0)
(-0 -6.41096e-07 -0)
(-0 -6.41096e-07 -0)
(-0 -6.41096e-07 -0)
(-0 -6.41096e-07 -0)
(-0 -6.41096e-07 -0)
(-0 -6.41096e-07 -0)
(-0 -6.41096e-07 -0)
(-0 -6.41096e-07 -0)
(-0 -6.41096e-07 -0)
(-0 -6.41096e-07 -0)
(0 0 0)
(0 0 0)
(0 0 0)
(0 0 0)
(0 0 0)
(0 0 0)
(0 0 0)
(0 0 0)
(0 0 0)
(0 0 0)
(0 0 0)
(0 0 0)
(0 0 0)
(0 0 0)
(0 0 0)
(0 0 0)
(0 0 0)
(0 0 0)
(0 0 0)
(0 0 0)
(0 0 0)
(0 0 0)
(0 0 0)
(0 0 0)
(0 0 0)
(0 0 0)
(0 0 0)
(0 0 0)
(0 0 0)
(0 0 0)
(0 0 0)
(0 0 0)
(0 0 0)
(0 0 0)
(0 0 0)
(0 0 0)
(0 0 0)
(0 0 0)
(0 0 0)
(0 0 0)
(0 0 0)
(0 0 0)
(0 0 0)
(0 0 0)
(0 0 0)
(0 0 0)
(0 0 0)
(0 0 0)
(0 0 0)
(0 0 0)
(0 0 0)
(0 0 0)
(0 0 0)
(0 0 0)
(0 0 0)
(0 0 0)
(0 0 0)
(0 0 0)
(0 0 0)
(0 0 0)
(0 0 0)
(0 0 0)
(0 0 0)
(0 0 0)
(0 0 0)
(0 0 0)
(0 0 0)
(0 0 0)
(0 0 0)
(0 0 0)
(0 0 0)
(0 0 0)
(0 0 0)
(0 0 0)
(0 0 0)
(0 0 0)
(0 0 0)
(0 0 0)
(0 0 0)
(0 0 0)
(0 0 0)
(0 0 0)
(0 0 0)
(0 0 0)
(0 0 0)
(0 0 0)
(0 0 0)
(0 0 0)
(0 0 0)
(0 0 0)
(0 0 0)
(-0 -6.41096e-07 -0)
(-0 -6.41096e-07 -0)
(-0 -6.41096e-07 -0)
(-0 -6.41096e-07 -0)
(-0 -6.41096e-07 -0)
(-0 -6.41096e-07 -0)
(-0 -6.41096e-07 -0)
(-0 -6.41096e-07 -0)
(-0 -6.41096e-07 -0)
(-0 -6.41096e-07 -0)
(-0 -6.41096e-07 -0)
(-0 -6.41096e-07 -0)
(-0 -6.41096e-07 -0)
(-0 -6.41096e-07 -0)
(-0 -6.41096e-07 -0)
(-0 -6.41096e-07 -0)
(-0 -6.41096e-07 -0)
(-0 -6.41096e-07 -0)
(-0 -6.41096e-07 -0)
(-0 -6.41096e-07 -0)
(-0 -6.41096e-07 -0)
(-0 -6.41096e-07 -0)
(-0 -6.41096e-07 -0)
(-0 -6.41096e-07 -0)
(-0 -6.41096e-07 -0)
(-0 -6.41096e-07 -0)
(-0 -6.41096e-07 -0)
(-0 -6.41096e-07 -0)
(-0 -6.41096e-07 -0)
(-0 -6.41096e-07 -0)
(-0 -6.41096e-07 -0)
(-0 -6.41096e-07 -0)
(-0 -6.41096e-07 -0)
(-0 -6.41096e-07 -0)
(-0 -6.41096e-07 -0)
(-0 -6.41096e-07 -0)
(-0 -6.41096e-07 -0)
(-0 -6.41096e-07 -0)
(-0 -6.41096e-07 -0)
(-0 -6.41096e-07 -0)
(-0 -6.41096e-07 -0)
(-0 -6.41096e-07 -0)
(-0 -6.41096e-07 -0)
(-0 -6.41096e-07 -0)
(-0 -6.41096e-07 -0)
(-0 -6.41096e-07 -0)
(-0 -6.41096e-07 -0)
(-0 -6.41096e-07 -0)
(-0 -6.41096e-07 -0)
(-0 -6.41096e-07 -0)
(-0 -6.41096e-07 -0)
(-0 -6.41096e-07 -0)
(-0 -6.41096e-07 -0)
(-0 -6.41096e-07 -0)
(-0 -6.41096e-07 -0)
(-0 -6.41096e-07 -0)
(-0 -6.41096e-07 -0)
(-0 -6.41096e-07 -0)
(-0 -6.41096e-07 -0)
(-0 -6.41096e-07 -0)
(-0 -6.41096e-07 -0)
(-0 -6.41096e-07 -0)
(-0 -6.41096e-07 -0)
(-0 -6.41096e-07 -0)
(-0 -6.41096e-07 -0)
(-0 -6.41096e-07 -0)
(-0 -6.41096e-07 -0)
(-0 -6.41096e-07 -0)
(-0 -6.41096e-07 -0)
(-0 -6.41096e-07 -0)
(-0 -6.41096e-07 -0)
(-0 -6.41096e-07 -0)
(-0 -6.41096e-07 -0)
(-0 -6.41096e-07 -0)
(-0 -6.41096e-07 -0)
(-0 -6.41096e-07 -0)
(-0 -6.41096e-07 -0)
(-0 -6.41096e-07 -0)
(-0 -6.41096e-07 -0)
(-0 -6.41096e-07 -0)
(-0 -6.41096e-07 -0)
(-0 -6.41096e-07 -0)
(-0 -6.41096e-07 -0)
(-0 -6.41096e-07 -0)
(-0 -6.41096e-07 -0)
(-0 -6.41096e-07 -0)
(-0 -6.41096e-07 -0)
(-0 -6.41096e-07 -0)
(-0 -6.41096e-07 -0)
(-0 -6.41096e-07 -0)
(-0 -6.41096e-07 -0)
(-0 -6.41096e-07 -0)
(-0 -6.41096e-07 -0)
(-0 -6.41096e-07 -0)
(-0 -6.41096e-07 -0)
(-0 -6.41096e-07 -0)
(-0 -6.41096e-07 -0)
(-0 -6.41096e-07 -0)
(-0 -6.41096e-07 -0)
(-0 -6.41096e-07 -0)
(-0 -6.41096e-07 -0)
(-0 -6.41096e-07 -0)
(-0 -6.41096e-07 -0)
(-0 -6.41096e-07 -0)
(-0 -6.41096e-07 -0)
(-0 -6.41096e-07 -0)
(-0 -6.41096e-07 -0)
(-0 -6.41096e-07 -0)
(-0 -6.41096e-07 -0)
(-0 -6.41096e-07 -0)
(-0 -6.41096e-07 -0)
(-0 -6.41096e-07 -0)
(-0 -6.41096e-07 -0)
(-0 -6.41096e-07 -0)
(-0 -6.41096e-07 -0)
(-0 -6.41096e-07 -0)
(-0 -6.41096e-07 -0)
(-0 -6.41096e-07 -0)
(-0 -6.41096e-07 -0)
(-0 -6.41096e-07 -0)
(-0 -6.41096e-07 -0)
(-0 -6.41096e-07 -0)
(-0 -6.41096e-07 -0)
(-0 -6.41096e-07 -0)
(-0 -6.41096e-07 -0)
(-0 -6.41096e-07 -0)
(-0 -6.41096e-07 -0)
(-0 -6.41096e-07 -0)
(-0 -6.41096e-07 -0)
(-0 -6.41096e-07 -0)
(-0 -6.41096e-07 -0)
(-0 -6.41096e-07 -0)
(-0 -6.41096e-07 -0)
(-0 -6.41096e-07 -0)
(-0 -6.41096e-07 -0)
(-0 -6.41096e-07 -0)
(-0 -6.41096e-07 -0)
(-0 -6.41096e-07 -0)
(-0 -6.41096e-07 -0)
(-0 -6.41096e-07 -0)
(-0 -6.41096e-07 -0)
(-0 -6.41096e-07 -0)
(-0 -6.41096e-07 -0)
(-0 -6.41096e-07 -0)
(-0 -6.41096e-07 -0)
(-0 -6.41096e-07 -0)
(-0 -6.41096e-07 -0)
(-0 -6.41096e-07 -0)
(-0 -6.41096e-07 -0)
(-0 -6.41096e-07 -0)
(-0 -6.41096e-07 -0)
(-0 -6.41096e-07 -0)
(-0 -6.41096e-07 -0)
(-0 -6.41096e-07 -0)
(-0 -6.41096e-07 -0)
(-0 -6.41096e-07 -0)
(-0 -6.41096e-07 -0)
(-0 -6.41096e-07 -0)
(-0 -6.41096e-07 -0)
(-0 -6.41096e-07 -0)
(-0 -6.41096e-07 -0)
(-0 -6.41096e-07 -0)
(-0 -6.41096e-07 -0)
(-0 -6.41096e-07 -0)
(-0 -6.41096e-07 -0)
(-0 -6.41096e-07 -0)
(-0 -6.41096e-07 -0)
(-0 -6.41096e-07 -0)
(-0 -6.41096e-07 -0)
(-0 -6.41096e-07 -0)
(0 -6.40801e-07 0)
(0 -6.44559e-07 0)
(0 -6.4162e-07 0)
(0 -6.41222e-07 0)
(0 -6.41155e-07 0)
(0 -6.41658e-07 0)
(0 -6.40999e-07 0)
(0 -6.43663e-07 0)
(0 -6.41259e-07 0)
(0 -6.41079e-07 0)
(0 -6.41112e-07 0)
(0 -6.41778e-07 0)
(0 -6.41098e-07 0)
(0 -6.4163e-07 0)
(0 -6.49972e-07 0)
(0 -6.4118e-07 0)
(0 -6.41518e-07 0)
(0 -6.4125e-07 0)
(0 -6.41438e-07 0)
(0 -1.62359e-07 0)
(0 -7.47847e-07 0)
(0 -8.14717e-07 0)
(0 -1.22827e-06 0)
(0 -2.16454e-07 0)
(0 -2.40678e-07 0)
(0 1.27375e-07 0)
(0 -7.48712e-08 0)
(0 -6.45469e-07 0)
(0 5.6092e-08 0)
(0 -6.40661e-07 0)
(0 -6.40947e-07 0)
(0 -6.41344e-07 0)
(0 -6.41087e-07 0)
(0 -6.41104e-07 0)
(0 -6.42892e-07 0)
(0 -6.41111e-07 0)
(0 -6.41193e-07 0)
(0 -6.45623e-07 0)
(0 -6.41091e-07 0)
(0 -6.41604e-07 0)
(0 -6.41134e-07 0)
(0 -8.03301e-07 0)
(0 -1.95159e-07 0)
(0 -6.55571e-07 0)
(0 2.00006e-07 0)
(0 -6.41226e-07 0)
(0 -6.41136e-07 0)
(0 -6.41069e-07 0)
(0 -6.41087e-07 0)
(0 -6.41154e-07 0)
(0 -5.81079e-07 0)
(0 -3.14804e-07 0)
(0 1.19135e-07 0)
(0 -1.44348e-07 0)
(0 -2.59002e-07 0)
(0 -8.4528e-07 0)
(0 -4.29574e-07 0)
(0 -1.20765e-06 0)
(0 -3.85213e-07 0)
(0 5.94278e-08 0)
(0 -6.40913e-07 0)
(0 -2.20365e-07 0)
(0 -1.2052e-06 0)
(0 -3.13122e-07 0)
(0 1.32227e-08 0)
(0 -6.57502e-07 0)
(0 -9.58254e-08 0)
(0 -2.04088e-07 0)
(0 -7.40495e-07 0)
(0 -2.37196e-07 0)
(0 -1.13443e-07 0)
(0 -6.70355e-08 0)
(0 1.40943e-05 0)
(0 1.44618e-05 0)
(0 1.36449e-05 0)
(0 1.4048e-05 0)
(0 1.32257e-05 0)
(0 1.35964e-05 0)
(0 1.27929e-05 0)
(0 1.31508e-05 0)
(0 1.23531e-05 0)
(0 1.27816e-05 0)
(0 1.19059e-05 0)
(0 1.21693e-05 0)
(0 1.14424e-05 0)
(0 1.1679e-05 0)
(0 1.09926e-05 0)
(0 1.1235e-05 0)
(0 1.05529e-05 0)
(0 1.08181e-05 0)
(0 1.01148e-05 0)
(0 9.88252e-06 0)
(0 9.47846e-06 0)
(0 9.66326e-06 0)
(0 9.09564e-06 0)
(0 9.24512e-06 0)
(0 8.74619e-06 0)
(0 8.59614e-06 0)
(0 8.28654e-06 0)
(0 8.41086e-06 0)
(0 7.96827e-06 0)
(0 8.06949e-06 0)
(0 7.62803e-06 0)
(0 7.72689e-06 0)
(0 7.28494e-06 0)
(0 8.12541e-06 0)
(0 7.39383e-06 0)
(0 6.9443e-06 0)
(0 7.06458e-06 0)
(0 6.59862e-06 0)
(0 6.71644e-06 0)
(0 6.24546e-06 0)
(0 6.1197e-06 0)
(0 5.78876e-06 0)
(0 7.18695e-06 0)
(0 5.89861e-06 0)
(0 5.47814e-06 0)
(0 1.48529e-05 0)
(0 1.1871e-05 0)
(0 5.59952e-06 0)
(0 1.24214e-05 0)
(0 5.56589e-06 0)
(0 5.15492e-06 0)
(0 5.23616e-06 0)
(0 4.8243e-06 0)
(0 4.90608e-06 0)
(0 4.50266e-06 0)
(0 4.57557e-06 0)
(0 4.19934e-06 0)
(0 4.12983e-06 0)
(0 3.86347e-06 0)
(0 3.79833e-06 0)
(0 3.57833e-06 0)
(0 3.64075e-06 0)
(0 3.4191e-06 0)
(0 3.52245e-06 0)
(0 3.48725e-06 0)
(0 3.3168e-06 0)
(0 3.37655e-06 0)
(0 3.22933e-06 0)
(0 3.26939e-06 0)
(0 3.13041e-06 0)
(0 3.15168e-06 0)
(0 3.00264e-06 0)
(0 3.00939e-06 0)
(0 2.84201e-06 0)
(0 2.82985e-06 0)
(0 2.65636e-06 0)
(0 2.64241e-06 0)
(0 2.471e-06 0)
(0 2.46815e-06 0)
(0 2.31419e-06 0)
(0 2.32484e-06 0)
(0 2.19536e-06 0)
(0 2.21401e-06 0)
(0 2.10182e-06 0)
(0 2.12308e-06 0)
(0 2.01806e-06 0)
(0 2.02274e-06 0)
(0 1.99415e-06 0)
(0 1.93711e-06 0)
(0 1.91479e-06 0)
(0 1.85485e-06 0)
(0 1.80418e-06 0)
(0 1.77528e-06 0)
(0 1.7068e-06 0)
(0 1.70012e-06 0)
(0 1.61931e-06 0)
(0 1.62728e-06 0)
(0 1.54843e-06 0)
(0 1.56688e-06 0)
(0 1.65891e-06 0)
(0 2.8365e-06 0)
(0 1.86463e-06 0)
(0 1.60404e-06 0)
(0 1.67962e-06 0)
(0 1.50543e-06 0)
(0 3.00401e-06 0)
(0 2.82783e-06 0)
(0 1.65222e-06 0)
(0 1.71074e-06 0)
(0 1.69357e-06 0)
(0 1.71802e-06 0)
(0 1.69473e-06 0)
(0 1.68763e-06 0)
(0 1.67124e-06 0)
(0 1.66308e-06 0)
(0 1.65648e-06 0)
(0 1.6504e-06 0)
(0 1.67836e-06 0)
(0 3.00744e-06 0)
(0 2.82384e-06 0)
(0 1.65787e-06 0)
(0 1.69782e-06 0)
(0 3.01323e-06 0)
(0 2.80441e-06 0)
(0 1.67589e-06 0)
(0 1.73453e-06 0)
(0 1.72423e-06 0)
(0 2.99606e-06 0)
(0 2.7738e-06 0)
(0 1.79596e-06 0)
(0 1.79345e-06 0)
(0 2.94919e-06 0)
(0 2.71609e-06 0)
(0 1.86574e-06 0)
(0 1.85918e-06 0)
(0 1.77707e-06 0)
(0 2.84538e-06 0)
(0 2.61774e-06 0)
(0 1.86855e-06 0)
(0 1.74909e-06 0)
(0 1.93179e-06 0)
(0 2.68542e-06 0)
(0 2.4774e-06 0)
(0 1.86528e-06 0)
(0 1.67933e-06 0)
(0 2.48589e-06 0)
(0 2.29968e-06 0)
(0 1.77983e-06 0)
(0 1.54063e-06 0)
(0 2.26217e-06 0)
(0 2.09613e-06 0)
(0 2.47485e-06 0)
(0 1.6333e-06 0)
(0 1.36175e-06 0)
(0 2.13979e-06 0)
(0 1.91742e-06 0)
(0 1.937e-06 0)
(0 1.69365e-06 0)
(0 1.72138e-06 0)
(0 1.51273e-06 0)
(0 1.54194e-06 0)
(0 1.40575e-06 0)
(0 1.42218e-06 0)
(0 1.37668e-06 0)
(0 1.39721e-06 0)
(0 1.43459e-06 0)
(0 1.48746e-06 0)
(0 2.21972e-06 0)
(0 2.43495e-06 0)
(0 1.60066e-06 0)
(0 1.70829e-06 0)
(0 1.46957e-06 0)
(0 1.17694e-06 0)
(0 1.854e-06 0)
(0 2.00064e-06 0)
(0 2.17127e-06 0)
(0 2.40669e-06 0)
(0 2.1153e-06 0)
(0 2.232e-06 0)
(0 2.1241e-06 0)
(0 2.4456e-06 0)
(0 1.32737e-06 0)
(0 1.28779e-06 0)
(0 9.68155e-07 0)
(0 2.27294e-06 0)
(0 2.31446e-06 0)
(0 2.25117e-06 0)
(0 1.99059e-06 0)
(0 2.25866e-06 0)
(0 2.24905e-06 0)
(0 2.08043e-06 0)
(0 2.5411e-06 0)
(0 1.4838e-06 0)
(0 1.45307e-06 0)
(0 1.41118e-06 0)
(0 1.37969e-06 0)
(0 1.31249e-06 0)
(0 1.28073e-06 0)
(0 1.1974e-06 0)
(0 1.18082e-06 0)
(0 1.10166e-06 0)
(0 1.10896e-06 0)
(0 1.04215e-06 0)
(0 1.07056e-06 0)
(0 1.00913e-06 0)
(0 1.04607e-06 0)
(0 9.78923e-07 0)
(0 1.01495e-06 0)
(0 9.40748e-07 0)
(0 9.69055e-07 0)
(0 8.94419e-07 0)
(0 9.08787e-07 0)
(0 8.36766e-07 0)
(0 8.35962e-07 0)
(0 8.45897e-07 0)
(0 7.77835e-07 0)
(0 7.96189e-07 0)
(0 7.34155e-07 0)
(0 7.62672e-07 0)
(0 7.07611e-07 0)
(0 7.4118e-07 0)
(0 6.89243e-07 0)
(0 7.23405e-07 0)
(0 7.91308e-07 0)
(0 7.71653e-07 0)
(0 7.0176e-07 0)
(0 7.47553e-07 0)
(0 6.75469e-07 0)
(0 7.1536e-07 0)
(0 6.39687e-07 0)
(0 6.77906e-07 0)
(0 7.67243e-07 0)
(0 7.27659e-07 0)
(0 6.4198e-07 0)
(0 6.9339e-07 0)
(0 6.11008e-07 0)
(0 6.66609e-07 0)
(0 5.8823e-07 0)
(0 7.52655e-07 0)
(0 6.49636e-07 0)
(0 5.73167e-07 0)
(0 6.43591e-07 0)
(0 5.60486e-07 0)
(0 6.42232e-07 0)
(0 5.47996e-07 0)
(0 6.33877e-07 0)
(0 5.35983e-07 0)
(0 6.25023e-07 0)
(0 5.32326e-07 0)
(0 7.1672e-07 0)
(0 6.25807e-07 0)
(0 5.36791e-07 0)
(0 5.11533e-07 0)
(0 6.27172e-07 0)
(0 4.32581e-07 0)
(0 2.20052e-06 0)
(0 1.87855e-06 0)
(0 2.0253e-06 0)
(0 1.71671e-06 0)
(0 1.86637e-06 0)
(0 1.58122e-06 0)
(0 1.72329e-06 0)
(0 1.45254e-06 0)
(0 1.59566e-06 0)
(0 1.3407e-06 0)
(0 1.48635e-06 0)
(0 1.24504e-06 0)
(0 1.38244e-06 0)
(0 1.14509e-06 0)
(0 1.28294e-06 0)
(0 1.05099e-06 0)
(0 1.19765e-06 0)
(0 9.72466e-07 0)
(0 1.11765e-06 0)
(0 9.01697e-07 0)
(0 1.04226e-06 0)
(0 8.348e-07 0)
(0 9.74021e-07 0)
(0 7.74802e-07 0)
(0 9.13834e-07 0)
(0 7.22941e-07 0)
(0 8.53411e-07 0)
(0 6.69195e-07 0)
(0 7.9202e-07 0)
(0 6.2005e-07 0)
(0 7.6219e-07 0)
(0 5.7307e-07 0)
(0 6.84237e-07 0)
(0 5.28195e-07 0)
(0 6.37696e-07 0)
(0 4.92929e-07 0)
(0 6.17989e-07 0)
(0 4.56918e-07 0)
(0 5.60442e-07 0)
(0 4.18873e-07 0)
(0 5.1625e-07 0)
(0 3.84521e-07 0)
(0 4.77738e-07 0)
(0 3.52234e-07 0)
(0 4.50631e-07 0)
(0 3.22973e-07 0)
(0 4.21781e-07 0)
(0 2.97128e-07 0)
(0 4.09662e-07 0)
(0 2.68258e-07 0)
(0 3.54448e-07 0)
(0 2.37064e-07 0)
(0 3.25168e-07 0)
(0 2.1771e-07 0)
(0 3.17244e-07 0)
(0 1.97251e-07 0)
(0 2.77411e-07 0)
(0 1.70023e-07 0)
(0 2.45636e-07 0)
(0 1.31958e-07 0)
(0 2.20142e-07 0)
(0 1.2523e-07 0)
(0 2.06398e-07 0)
(0 1.05917e-07 0)
(0 1.90478e-07 0)
(0 9.06246e-08 0)
(0 1.90772e-07 0)
(0 7.7971e-08 0)
(0 1.56852e-07 0)
(0 6.30047e-08 0)
(0 1.42e-07 0)
(0 5.26416e-08 0)
(0 1.37013e-07 0)
(0 4.17147e-08 0)
(0 1.29678e-07 0)
(0 3.05756e-08 0)
(0 1.16717e-07 0)
(0 2.19525e-08 0)
(0 1.03219e-07 0)
(0 1.23466e-08 0)
(0 8.88173e-08 0)
(0 2.4929e-09 0)
(0 7.65553e-08 0)
(0 -4.44967e-09 0)
(0 6.86822e-08 0)
(0 -5.61475e-09 0)
(0 6.50994e-08 0)
(0 -7.73354e-09 0)
(0 6.7769e-07 0)
(0 9.74214e-07 0)
(0 4.35553e-07 0)
(0 2.88598e-07 0)
(0 2.28529e-07 0)
(0 6.08952e-08 0)
(0 -1.50258e-08 0)
(0 5.92329e-08 0)
(0 -1.55045e-08 0)
(0 1.44708e-06 0)
(0 6.36074e-08 0)
(0 2.01314e-06 0)
(0 1.52529e-07 0)
(0 -2.84333e-09 0)
(0 7.39328e-08 0)
(0 -3.08585e-08 0)
(0 1.03361e-08 0)
(0 8.97822e-08 0)
(0 1.61228e-07 0)
(0 1.80956e-07 0)
(0 3.24899e-08 0)
(0 1.56806e-07 0)
(0 2.61696e-07 0)
(0 2.5989e-07 0)
(0 2.83011e-07 0)
(0 -6.54215e-08 0)
(0 3.85813e-07 0)
(0 2.38014e-08 0)
(0 5.57555e-07 0)
(0 3.70514e-07 0)
(0 3.92294e-07 0)
(0 -7.42603e-08 0)
(0 7.7417e-07 0)
(0 4.88313e-07 0)
(0 5.04919e-07 0)
(0 -5.90865e-08 0)
(0 -3.99401e-08 0)
(0 1.11423e-06 0)
(0 -1.12055e-07 0)
(0 -9.84085e-08 0)
(0 1.55649e-06 0)
(0 6.085e-07 0)
(0 6.15425e-07 0)
(0 -1.61401e-07 0)
(0 -1.46779e-07 0)
(0 -2.06631e-07 0)
(0 -1.88269e-07 0)
(0 1.0098e-06 0)
(0 -2.45377e-07 0)
(0 -2.24966e-07 0)
(0 7.25396e-07 0)
(0 7.23318e-07 0)
(0 2.12974e-06 0)
(0 2.11288e-06 0)
(0 1.03415e-06 0)
(0 7.01776e-07 0)
(0 -2.77557e-07 0)
(0 -2.55866e-07 0)
(0 -2.96411e-07 0)
(0 -1.99836e-07 0)
(0 -2.29593e-07 0)
(0 -1.69276e-07 0)
(0 -1.99025e-07 0)
(0 -2.55894e-07 0)
(0 -2.26069e-07 0)
(0 -2.789e-07 0)
(0 -1.34231e-07 0)
(0 -2.4807e-07 0)
(0 -2.98125e-07 0)
(0 -2.6384e-07 0)
(0 -3.13137e-07 0)
(0 4.9854e-06 0)
(0 9.02015e-07 0)
(0 2.00356e-06 0)
(0 2.26441e-06 0)
(0 2.01539e-06 0)
(0 2.47561e-06 0)
(0 2.04918e-06 0)
(0 2.6763e-06 0)
(0 1.95307e-06 0)
(0 1.8911e-06 0)
(0 -2.74055e-07 0)
(0 -3.24846e-07 0)
(0 1.71291e-06 0)
(0 1.57484e-06 0)
(0 8.40724e-07 0)
(0 8.53541e-07 0)
(0 8.35145e-07 0)
(0 2.51491e-06 0)
(0 2.674e-06 0)
(0 7.04715e-07 0)
(0 3.84488e-07 0)
(0 2.19716e-06 0)
(0 2.78788e-06 0)
(0 -2.14873e-07 0)
(0 1.39363e-06 0)
(0 1.15492e-06 0)
(0 -2.8385e-07 0)
(0 -3.34566e-07 0)
(0 9.75138e-07 0)
(0 9.89704e-07 0)
(0 1.00565e-06 0)
(0 6.88169e-07 0)
(0 2.71818e-06 0)
(0 2.85435e-06 0)
(0 2.20029e-06 0)
(0 2.77215e-06 0)
(0 1.69799e-06 0)
(0 1.0468e-06 0)
(0 -2.93014e-07 0)
(0 -3.40756e-07 0)
(0 3.28146e-07 0)
(0 2.34446e-08 0)
(0 6.69234e-07 0)
(0 2.22061e-06 0)
(0 5.78491e-07 0)
(0 2.44162e-07 0)
(0 1.11908e-06 0)
(0 1.13309e-06 0)
(0 2.8869e-06 0)
(0 3.01381e-06 0)
(0 -3.55693e-07 0)
(0 8.35332e-07 0)
(0 1.3322e-07 0)
(0 -1.95999e-07 0)
(0 2.10083e-06 0)
(0 2.66468e-06 0)
(0 3.36302e-06 0)
(0 3.25157e-06 0)
(0 -2.95709e-07 0)
(0 -3.40921e-07 0)
(0 3.97486e-06 0)
(0 3.86528e-06 0)
(0 3.09784e-06 0)
(0 3.709e-06 0)
(0 4.50948e-06 0)
(0 4.34387e-06 0)
(0 5.1791e-06 0)
(0 5.04435e-06 0)
(0 5.91902e-06 0)
(0 5.86898e-06 0)
(0 6.76393e-06 0)
(0 6.79607e-06 0)
(0 5.82842e-06 0)
(0 6.84906e-06 0)
(0 7.78447e-06 0)
(0 7.93076e-06 0)
(0 8.80633e-06 0)
(0 9.04529e-06 0)
(0 9.84034e-06 0)
(0 1.01729e-05 0)
(0 9.31555e-06 0)
(0 1.04744e-05 0)
(0 1.12575e-05 0)
(0 1.15605e-05 0)
(0 1.23145e-05 0)
(0 1.26147e-05 0)
(0 1.33433e-05 0)
(0 1.36264e-05 0)
(0 1.43135e-05 0)
(0 1.45839e-05 0)
(0 1.52521e-05 0)
(0 1.55277e-05 0)
(0 1.61978e-05 0)
(0 1.64971e-05 0)
(0 1.71637e-05 0)
(0 1.2897e-05 0)
(0 2.43878e-07 0)
(0 5.85139e-07 0)
(0 1.26387e-06 0)
(0 1.28314e-06 0)
(0 -3.38886e-07 0)
(0 -6.83476e-07 0)
(0 3.04782e-06 0)
(0 3.15913e-06 0)
(0 2.02686e-06 0)
(0 2.90957e-06 0)
(0 2.93172e-06 0)
(0 -2.92191e-07 0)
(0 -3.35315e-07 0)
(0 -2.4374e-07 0)
(0 -8.22772e-07 0)
(0 1.41803e-06 0)
(0 1.45193e-06 0)
(0 1.39702e-06 0)
(0 1.66615e-06 0)
(0 1.59675e-06 0)
(0 1.64895e-06 0)
(0 3.20929e-06 0)
(0 3.30224e-06 0)
(0 1.56357e-07 0)
(0 4.84055e-07 0)
(0 2.30451e-06 0)
(0 7.28071e-07 0)
(0 8.41193e-07 0)
(0 7.4079e-07 0)
(0 8.5764e-07 0)
(0 7.53765e-07 0)
(0 8.74301e-07 0)
(0 -3.79929e-07 0)
(0 -3.72579e-07 0)
(0 -3.25052e-07 0)
(0 -3.61023e-07 0)
(0 -3.1202e-07 0)
(0 -3.47006e-07 0)
(0 -2.96025e-07 0)
(0 -3.30714e-07 0)
(0 -3.78624e-07 0)
(0 -3.62826e-07 0)
(0 -4.0781e-07 0)
(0 -3.92603e-07 0)
(0 -4.34126e-07 0)
(0 -4.19646e-07 0)
(0 -3.7579e-07 0)
(0 -4.03528e-07 0)
(0 -4.44603e-07 0)
(0 -4.29338e-07 0)
(0 -3.86349e-07 0)
(0 -4.13873e-07 0)
(0 -4.52796e-07 0)
(0 -4.39016e-07 0)
(0 1.64603e-06 0)
(0 -1.14479e-06 0)
(0 -1.02926e-06 0)
(0 -1.2348e-06 0)
(0 3.35449e-06 0)
(0 3.40791e-06 0)
(0 6.60522e-07 0)
(0 -4.74586e-07 0)
(0 -4.61527e-07 0)
(0 1.39961e-05 0)
(0 1.65656e-06 0)
(0 1.62708e-06 0)
(0 8.03606e-08 0)
(0 3.89033e-07 0)
(0 -4.23965e-07 0)
(0 -4.47544e-07 0)
(0 -4.81788e-07 0)
(0 -4.68458e-07 0)
(0 1.86289e-06 0)
(0 1.79751e-06 0)
(0 1.86471e-06 0)
(0 3.43826e-06 0)
(0 3.43018e-06 0)
(0 3.37009e-06 0)
(0 3.35848e-06 0)
(0 3.29823e-06 0)
(0 3.29247e-06 0)
(0 3.25138e-06 0)
(0 3.3087e-06 0)
(0 3.24822e-06 0)
(0 3.23245e-06 0)
(0 3.20545e-06 0)
(0 3.20208e-06 0)
(0 3.12315e-06 0)
(0 3.13446e-06 0)
(0 3.00988e-06 0)
(0 3.04178e-06 0)
(0 2.99553e-06 0)
(0 9.12225e-07 0)
(0 7.63747e-07 0)
(0 8.81994e-07 0)
(0 -4.99999e-07 0)
(0 -4.86694e-07 0)
(0 -4.5436e-07 0)
(0 -4.71594e-07 0)
(0 -5.02367e-07 0)
(0 -4.86713e-07 0)
(0 -5.15048e-07 0)
(0 -1.45311e-06 0)
(0 -1.42383e-06 0)
(0 -4.55403e-07 0)
(0 1.49992e-08 0)
(0 -2.93183e-07 0)
(0 3.1755e-07 0)
(0 2.90251e-06 0)
(0 2.93404e-06 0)
(0 -1.76211e-06 0)
(0 -1.79782e-06 0)
(0 1.62405e-06 0)
(0 1.57987e-06 0)
(0 1.72314e-06 0)
(0 1.97908e-06 0)
(0 1.80353e-06 0)
(0 2.03455e-06 0)
(0 1.8766e-06 0)
(0 2.11184e-06 0)
(0 1.95462e-06 0)
(0 2.19486e-06 0)
(0 2.03762e-06 0)
(0 2.28331e-06 0)
(0 2.12188e-06 0)
(0 2.37811e-06 0)
(0 2.21033e-06 0)
(0 2.47855e-06 0)
(0 2.6593e-06 0)
(0 2.76933e-06 0)
(0 2.58238e-06 0)
(0 2.88272e-06 0)
(0 2.6918e-06 0)
(0 3.00301e-06 0)
(0 2.80467e-06 0)
(0 3.12849e-06 0)
(0 2.92223e-06 0)
(0 3.26407e-06 0)
(0 3.05032e-06 0)
(0 3.40559e-06 0)
(0 3.19099e-06 0)
(0 3.56002e-06 0)
(0 3.34007e-06 0)
(0 3.72818e-06 0)
(0 3.49822e-06 0)
(0 3.89438e-06 0)
(0 3.6655e-06 0)
(0 4.05491e-06 0)
(0 3.82788e-06 0)
(0 4.21287e-06 0)
(0 3.98392e-06 0)
(0 4.37786e-06 0)
(0 4.14939e-06 0)
(0 4.55698e-06 0)
(0 4.32806e-06 0)
(0 4.75233e-06 0)
(0 4.52402e-06 0)
(0 4.96848e-06 0)
(0 4.75286e-06 0)
(0 5.203e-06 0)
(0 4.63182e-06 0)
(0 4.97496e-06 0)
(0 5.44154e-06 0)
(0 5.19687e-06 0)
(0 5.67858e-06 0)
(0 5.45316e-06 0)
(0 5.93956e-06 0)
(0 5.71523e-06 0)
(0 6.2248e-06 0)
(0 5.98118e-06 0)
(0 6.51537e-06 0)
(0 6.26357e-06 0)
(0 6.83062e-06 0)
(0 6.5745e-06 0)
(0 7.17094e-06 0)
(0 3.93839e-06 0)
(0 2.96237e-06 0)
(0 5.46074e-06 0)
(0 6.45338e-06 0)
(0 1.15861e-06 0)
(0 2.0104e-06 0)
(0 7.73427e-07 0)
(0 8.85808e-07 0)
(0 9.98501e-07 0)
(0 1.00618e-06 0)
(0 1.11913e-06 0)
(0 -5.37567e-07 0)
(0 2.84197e-09 0)
(0 3.13335e-07 0)
(0 2.78874e-06 0)
(0 2.64383e-06 0)
(0 6.69463e-06 0)
(0 -8.98444e-07 0)
(0 -1.2793e-06 0)
(0 -2.00257e-06 0)
(0 -2.02795e-06 0)
(0 1.13168e-06 0)
(0 1.245e-06 0)
(0 7.55147e-07 0)
(0 1.56825e-06 0)
(0 1.486e-06 0)
(0 7.11803e-08 0)
(0 4.01475e-07 0)
(0 2.95523e-06 0)
(0 7.81913e-07 0)
(0 1.5259e-06 0)
(0 -2.13169e-06 0)
(0 -2.10113e-06 0)
(0 -2.18682e-06 0)
(0 -2.05483e-06 0)
(0 -2.03747e-06 0)
(0 -1.99759e-06 0)
(0 -1.91364e-06 0)
(0 -1.87137e-06 0)
(0 -1.75601e-06 0)
(0 -1.68214e-06 0)
(0 -1.78187e-06 0)
(0 1.71212e-06 0)
(0 1.70244e-06 0)
(0 -1.62352e-06 0)
(0 3.24385e-06 0)
(0 3.94905e-06 0)
(0 2.71998e-06 0)
(0 -9.16961e-07 0)
(0 -1.31124e-06 0)
(0 4.7083e-06 0)
(0 1.34559e-07 0)
(0 4.35213e-07 0)
(0 3.22169e-06 0)
(0 -1.85703e-07 0)
(0 -2.0934e-07 0)
(0 -1.23383e-07 0)
(0 -2.27691e-07 0)
(0 -1.37528e-07 0)
(0 -2.3771e-07 0)
(0 -1.43942e-07 0)
(0 -2.37317e-07 0)
(0 -4.69923e-08 0)
(0 -1.42912e-07 0)
(0 -2.30597e-07 0)
(0 -1.36618e-07 0)
(0 -2.20622e-07 0)
(0 -3.05293e-07 0)
(0 -2.92243e-07 0)
(0 -2.07502e-07 0)
(0 -2.76649e-07 0)
(0 -3.51795e-07 0)
(0 -3.35109e-07 0)
(0 -4.00983e-07 0)
(0 -3.84404e-07 0)
(0 -3.1739e-07 0)
(0 -3.6679e-07 0)
(0 -4.25475e-07 0)
(0 -4.07748e-07 0)
(0 -3.48245e-07 0)
(0 -3.90634e-07 0)
(0 -4.42868e-07 0)
(0 -4.28387e-07 0)
(0 -3.72912e-07 0)
(0 -4.12335e-07 0)
(0 -4.62603e-07 0)
(0 -4.47357e-07 0)
(0 -4.95982e-07 0)
(0 -4.7621e-07 0)
(0 -4.30419e-07 0)
(0 -4.60494e-07 0)
(0 -4.1306e-07 0)
(0 -4.44283e-07 0)
(0 -4.8651e-07 0)
(0 -4.71399e-07 0)
(0 -5.08978e-07 0)
(0 -4.95534e-07 0)
(0 -4.55545e-07 0)
(0 -4.80641e-07 0)
(0 -5.20373e-07 0)
(0 -5.02423e-07 0)
(0 -4.61748e-07 0)
(0 -4.89111e-07 0)
(0 -5.20363e-07 0)
(0 -5.08493e-07 0)
(0 -4.7404e-07 0)
(0 -4.94536e-07 0)
(0 -5.26561e-07 0)
(0 -5.15503e-07 0)
(0 -4.79074e-07 0)
(0 -5.02575e-07 0)
(0 -5.33123e-07 0)
(0 -5.2193e-07 0)
(0 -4.90544e-07 0)
(0 -5.10815e-07 0)
(0 -5.38887e-07 0)
(0 -5.27736e-07 0)
(0 -5.008e-07 0)
(0 -5.17777e-07 0)
(0 -5.42743e-07 0)
(0 -5.33663e-07 0)
(0 -5.0838e-07 0)
(0 -5.24437e-07 0)
(0 -5.47938e-07 0)
(0 -5.38984e-07 0)
(0 -5.14969e-07 0)
(0 -5.30269e-07 0)
(0 -5.52292e-07 0)
(0 -5.44687e-07 0)
(0 -5.21671e-07 0)
(0 -5.37055e-07 0)
(0 -5.13086e-07 0)
(0 -5.29394e-07 0)
(0 -5.50494e-07 0)
(0 -5.44064e-07 0)
(0 -5.21891e-07 0)
(0 -5.372e-07 0)
(0 -5.56597e-07 0)
(0 -5.51003e-07 0)
(0 -5.30657e-07 0)
(0 -5.45136e-07 0)
(0 -5.63583e-07 0)
(0 -5.58065e-07 0)
(0 -5.38746e-07 0)
(0 -5.52183e-07 0)
(0 -5.31853e-07 0)
(0 -5.46161e-07 0)
(0 -5.25028e-07 0)
(0 -5.40214e-07 0)
(0 -5.58768e-07 0)
(0 -5.53254e-07 0)
(0 -5.68647e-07 0)
(0 -5.64547e-07 0)
(0 -5.48064e-07 0)
(0 -5.60778e-07 0)
(0 -5.77601e-07 0)
(0 -5.7232e-07 0)
(0 -5.55922e-07 0)
(0 -5.67626e-07 0)
(0 -5.50802e-07 0)
(0 -5.6293e-07 0)
(0 -5.77835e-07 0)
(0 -5.7359e-07 0)
(0 -5.58094e-07 0)
(0 -5.69291e-07 0)
(0 -5.52961e-07 0)
(0 -5.64827e-07 0)
(0 -5.47688e-07 0)
(0 -5.60197e-07 0)
(0 -5.7536e-07 0)
(0 -5.71149e-07 0)
(0 -5.84174e-07 0)
(0 -5.80991e-07 0)
(0 -5.67159e-07 0)
(0 -5.77717e-07 0)
(0 -5.63049e-07 0)
(0 -5.74001e-07 0)
(0 -5.86952e-07 0)
(0 -5.83418e-07 0)
(0 -5.69724e-07 0)
(0 -5.79523e-07 0)
(0 -5.64947e-07 0)
(0 -5.75349e-07 0)
(0 -5.88394e-07 0)
(0 -5.84812e-07 0)
(0 -5.7096e-07 0)
(0 -5.80906e-07 0)
(0 -5.93351e-07 0)
(0 -5.89825e-07 0)
(0 -5.76635e-07 0)
(0 -5.86032e-07 0)
(0 -5.72068e-07 0)
(0 -5.81962e-07 0)
(0 -5.94282e-07 0)
(0 -5.90699e-07 0)
(0 -5.77756e-07 0)
(0 -5.87047e-07 0)
(0 -5.73501e-07 0)
(0 -5.83228e-07 0)
(0 -5.95211e-07 0)
(0 -5.91634e-07 0)
(0 -5.78989e-07 0)
(0 -5.87603e-07 0)
(0 -5.74202e-07 0)
(0 -5.83044e-07 0)
(0 -5.9494e-07 0)
(0 -5.90681e-07 0)
(0 -5.77956e-07 0)
(0 -5.85906e-07 0)
(0 -5.97309e-07 0)
(0 -5.92709e-07 0)
(0 -5.72355e-07 0)
(0 -6.02967e-07 0)
(0 -5.98652e-07 0)
(0 -6.07803e-07 0)
(0 -6.03774e-07 0)
(0 -6.11889e-07 0)
(0 -6.07975e-07 0)
(0 -5.99461e-07 0)
(0 -6.03921e-07 0)
(0 -6.15496e-07 0)
(0 -5.94877e-07 0)
(0 -6.00065e-07 0)
(0 -6.08174e-07 0)
(0 -6.05144e-07 0)
(0 -5.96786e-07 0)
(0 -6.01751e-07 0)
(0 9.00847e-08 0)
(0 -6.18945e-07 0)
(0 -6.21996e-07 0)
(0 -1.7048e-06 0)
(0 -1.55115e-06 0)
(0 -6.0993e-07 0)
(0 -6.06188e-07 0)
(0 -5.95673e-07 0)
(0 -6.01275e-07 0)
(0 1.25895e-06 0)
(0 1.37301e-06 0)
(0 1.41102e-06 0)
(0 -5.90754e-07 0)
(0 -5.95804e-07 0)
(0 1.4798e-06 0)
(0 1.37141e-06 0)
(0 -2.76908e-07 0)
(0 -2.38961e-07 0)
(0 -2.18222e-07 0)
(0 -1.77238e-07 0)
(0 -1.57178e-07 0)
(0 -1.14547e-07 0)
(0 7.59295e-07 0)
(0 7.38977e-07 0)
(0 1.93397e-06 0)
(0 2.02846e-06 0)
(0 2.00737e-06 0)
(0 2.13417e-06 0)
(0 2.07121e-06 0)
(0 2.22766e-06 0)
(0 2.1334e-06 0)
(0 -6.14027e-07 0)
(0 5.49698e-06 0)
(0 3.34916e-07 0)
(0 6.37685e-07 0)
(0 -1.69824e-06 0)
(0 -1.54529e-06 0)
(0 -2.2773e-06 0)
(0 -2.38921e-06 0)
(0 -5.83923e-07 0)
(0 -5.89507e-07 0)
(0 -6.01735e-07 0)
(0 -5.94705e-07 0)
(0 8.60372e-07 0)
(0 -5.81784e-07 0)
(0 -5.87429e-07 0)
(0 -5.99275e-07 0)
(0 -5.92358e-07 0)
(0 -6.24878e-07 0)
(0 -6.27384e-07 0)
(0 1.67979e-05 0)
(0 5.8589e-06 0)
(0 9.62604e-06 0)
(0 1.11497e-05 0)
(0 -9.72547e-08 0)
(0 -5.33299e-08 0)
(0 -9.80154e-07 0)
(0 -1.41109e-06 0)
(0 -6.03162e-07 0)
(0 -5.96139e-07 0)
(0 -2.57057e-07 0)
(0 2.30472e-06 0)
(0 2.20747e-06 0)
(0 2.36939e-06 0)
(0 1.29371e-07 0)
(0 1.37855e-06 0)
(0 1.49577e-06 0)
(0 1.14148e-06 0)
(0 1.36017e-06 0)
(0 1.2408e-06 0)
(0 1.44143e-06 0)
(0 -6.0615e-07 0)
(0 -5.9883e-07 0)
(0 -6.08399e-07 0)
(0 -6.0059e-07 0)
(0 -6.09743e-07 0)
(0 -6.01299e-07 0)
(0 -6.1006e-07 0)
(0 2.26298e-06 0)
(0 -1.53428e-07 0)
(0 3.33361e-06 0)
(0 3.35026e-06 0)
(0 8.15449e-06 0)
(0 1.30034e-07 0)
(0 2.90606e-07 0)
(0 -5.08064e-07 0)
(0 -5.00519e-07 0)
(0 -4.80199e-07 0)
(0 -4.72099e-07 0)
(0 -4.48342e-07 0)
(0 -4.3957e-07 0)
(0 -5.33635e-07 0)
(0 1.362e-05 0)
(0 -1.70933e-06 0)
(0 -1.56358e-06 0)
(0 1.06204e-06 0)
(0 -3.29602e-07 0)
(0 1.95472e-06 0)
(0 2.17604e-06 0)
(0 2.12487e-06 0)
(0 2.36242e-06 0)
(0 2.30314e-06 0)
(0 2.53996e-06 0)
(0 2.47077e-06 0)
(0 1.96384e-06 0)
(0 3.2525e-06 0)
(0 1.83015e-06 0)
(0 1.19998e-06 0)
(0 7.80208e-07 0)
(0 3.72292e-07 0)
(0 -5.7819e-07 0)
(0 5.47449e-07 0)
(0 -6.00928e-07 0)
(0 -6.09753e-07 0)
(0 -4.12759e-07 0)
(0 -2.46871e-06 0)
(0 -2.59594e-06 0)
(0 -6.29636e-07 0)
(0 -6.31727e-07 0)
(0 6.78333e-07 0)
(0 6.93316e-07 0)
(0 6.01617e-07 0)
(0 6.23286e-07 0)
(0 5.39573e-07 0)
(0 5.70268e-07 0)
(0 4.90494e-07 0)
(0 5.264e-07 0)
(0 6.07136e-07 0)
(0 4.52675e-07 0)
(0 2.38061e-06 0)
(0 2.28081e-06 0)
(0 2.33194e-07 0)
(0 -1.13727e-07 0)
(0 -1.12168e-08 0)
(0 1.69933e-06 0)