/*--------------------------------*- C++ -*----------------------------------*\
| =========                 |                                                 |
| \\      /  F ield         | OpenFOAM: The Open Source CFD Toolbox           |
|  \\    /   O peration     | Version:  v2012                                 |
|   \\  /    A nd           | Website:  www.openfoam.com                      |
|    \\/     M anipulation  |                                                 |
\*---------------------------------------------------------------------------*/
FoamFile
{
    version     2.0;
    format      ascii;
    class       volScalarField;
    location    "150";
    object      ddt0(omega);
}
// * * * * * * * * * * * * * * * * * * * * * * * * * * * * * * * * * * * * * //

dimensions      [0 0 -2 0 0 0 0];


internalField   nonuniform List<scalar> 
18758
(
0.00129083
0.0158264
2.92785e-06
0.00131133
0.000208395
5.39216e-06
-3.92311e-06
7.15461e-05
0.000112625
0.00010735
0.081947
-0.00942879
0.0141007
1.62676e-05
-4.6192e-06
-8.90179e-06
-0.173013
2.11715e-06
-5.43098e-06
-3.19449e-05
-0.0623745
-0.886973
4.57514e-06
-1.28589e-06
-0.350736
1.63586
-0.160356
-0.00439001
-0.00654487
0.021631
1.44442
-0.20894
6.28084e-05
-0.100495
0.000282463
0.0176776
0.00702426
0.000241003
1.21051
3.11118e-05
0.0283511
2.45056e-05
-0.0393999
4.02256e-05
-9.01989e-06
1.16172
8.4498e-05
-0.00632432
-0.00730856
0.000489345
0.0972605
-0.484774
0.000319587
-0.000190287
-0.00146344
-0.00611321
9.78457e-06
-3.45155e-05
-0.00528338
6.65238e-06
-8.57065e-06
4.72823e-05
-0.507449
-0.0521834
-8.45077e-06
-0.191608
-6.38805e-06
3.93078e-07
-0.00443787
2.81576e-06
-0.606394
0.303922
-6.38516e-06
0.000349991
0.00192139
1.34237
-0.681362
-0.106346
0.000108771
-0.133067
-0.00459749
1.1163
-0.149027
0.0018675
-0.000156228
-0.000603619
-0.000102312
0.000378359
-0.50768
-0.00110387
-0.121299
-1.2831e-05
-0.00352954
-0.0110273
-6.71368e-06
-4.76439e-06
6.6467e-06
-0.00316533
-0.0793086
-1.83219e-06
1.29765
1.20165e-05
2.03924e-07
-4.35862e-06
-0.186108
-0.0529611
-0.00629308
-0.449797
-0.497546
-0.0747593
-8.47417e-06
-0.011096
-5.33483e-05
8.74051e-07
-1.97699e-05
-0.010566
-0.00294752
5.66773e-06
-0.0112167
5.4258e-05
-3.40392e-06
-0.692835
-0.000117754
3.62943e-06
0.607348
-0.000206783
1.41111e-05
3.81572e-06
-0.00816353
-1.02191
-0.0053873
-1.58713e-05
0.000365406
-0.409658
1.96497e-05
-3.10658e-06
-0.158154
6.40086e-05
-0.00721531
-0.0051119
-0.000432725
0.0960735
-0.00197232
-0.49057
0.736164
-0.0020698
-0.161846
-0.00861511
0.0623137
3.34421
-1.0502
-0.178533
-5.30652e-06
0.000317633
0.0202265
-0.729171
-0.00357254
-0.00792942
0.00215935
0.036827
-0.649373
6.97413e-06
0.011791
-0.152106
0.96921
1.27829e-05
6.60906e-06
-0.560845
-0.719799
0.153223
-0.192314
2.47048e-06
-0.00768761
0.0188772
-0.517896
-3.7636e-06
-7.3538e-06
1.52252
-0.0559468
-4.13148e-06
-5.7677e-07
-0.000219422
-0.000859238
-5.81124e-06
1.56283
-5.38082e-06
0.0213862
-0.000911201
-0.00604493
0.255783
-0.241317
-5.03759e-06
-0.00179248
-0.393147
-2.16182e-06
-4.14642e-06
-0.0111158
-5.79846e-06
0.00387064
-2.9612e-06
-0.00020953
-0.00219872
-0.674195
-9.46438e-06
-9.40966e-06
0.0336278
8.37413e-07
0.000298134
-1.58104
-0.780518
-6.42949e-06
-0.00399501
-0.000327017
-7.54838e-05
-4.508e-05
6.45602e-06
-9.31668e-06
-0.0039505
3.29859e-06
-0.00673117
-0.303991
-1.54683e-05
-0.00181833
-0.00459211
-0.75532
-0.0242622
0.000475193
-0.000119597
-0.654364
1.39927e-07
1.66057
-0.00212132
-0.529805
-3.44834e-06
-5.68232e-06
-1.22759e-05
-0.00179927
-0.00308804
-0.00695001
1.50262e-05
-8.2515e-06
-0.00119297
-0.00742864
-3.09392e-06
2.22545
-0.00888568
-5.83326e-06
-3.32811e-06
5.38744e-05
-1.30994e-06
-0.152076
1.80039e-05
0.0036755
-4.20923e-05
7.06534e-06
-0.00398607
1.0148e-05
0.211347
-9.66012e-06
0.0574609
-0.00015688
4.1531e-06
-6.38738e-06
-0.00151454
-1.62222
-0.964604
4.34829e-06
-0.0102918
-5.76993e-06
1.17207e-05
-0.00690253
-0.136089
9.3034e-06
-2.68906e-06
0.000226209
-4.50667e-05
0.000139674
3.4885e-06
-8.86663e-05
1.70177e-05
-3.50275e-06
-1.69113e-05
-7.66139e-06
-0.0789159
-4.1894e-06
-2.17807e-06
1.23257e-06
-0.0076799
-4.30667e-06
-4.1317e-06
-2.19727e-06
-2.26353e-06
1.50111e-05
-5.73279e-06
-9.82508e-06
0.000148339
-0.0302688
-1.36586e-05
-1.60137e-06
0.491344
-1.90108e-05
-2.99744e-07
1.27179e-07
-0.113557
0.0558817
-5.76014e-07
0.0132995
-0.0464587
7.57949e-05
0.00605668
-7.39829e-06
-0.355661
-0.00613052
-0.0050667
-0.00623204
-0.0937414
-3.34569e-07
-0.307414
0.00145239
-8.30538e-06
-0.00472288
0.00208414
2.66476
-4.66795e-06
-8.40958e-08
-0.907549
-0.00982692
-1.61572e-06
0.35924
-3.56459e-05
-0.000183706
-0.504862
-4.90662e-06
1.25894e-05
-9.42109e-06
9.49605e-07
-3.6802e-05
1.71509e-05
7.45445e-05
3.19005e-06
-3.31464e-05
1.43465e-05
-0.525383
-0.103927
3.73544e-05
-0.158648
-0.0546954
-1.78779e-06
-0.000680805
0.0585383
-1.08702
0.191187
-0.00480907
-5.66532e-06
0.103427
0.372667
-0.00117703
1.44407e-05
-0.000875313
-7.58752e-05
9.22486e-06
-0.00340454
-0.530502
0.0760685
-0.0238617
-0.669525
-5.66049e-06
-8.41552e-05
-0.000241437
-0.00313009
-0.0176756
-0.00709187
-0.458183
-0.0132595
0.0459234
-0.00720625
5.62272e-06
-0.159028
-0.00845462
0.102461
0.00540643
-4.49348e-06
-1.13956e-06
-0.930364
0.138432
0.0531418
-0.0114775
0.46714
1.66616e-05
0.0406453
0.209243
-8.99374e-06
2.42917e-05
-7.87248e-05
-5.44087e-06
-3.02652e-06
-7.99436e-05
-6.59938e-06
-1.95494e-05
-1.96387e-06
5.10135e-05
0.000833784
0.8315
-0.000284481
0.563279
0.610919
0.89641
0.671652
-0.00959413
0.000109167
-9.70173e-07
-0.00109302
2.5886e-05
1.44402e-05
-1.49299
-0.0028805
0.32304
-4.52957e-06
-0.541052
-8.68465e-06
-2.12604e-05
-1.6797e-06
0.00549517
-0.564641
0.132862
-7.47532e-06
-0.377264
-0.00311612
-8.7794e-06
8.21053e-06
-4.37879e-06
-0.405054
-1.00282e-05
-4.72923e-06
0.98468
-0.000308836
1.61977e-05
-7.15688e-06
6.31956e-05
0.000198241
0.292802
0.0100538
7.55379e-07
-0.177729
-1.93347e-06
1.99281e-05
-0.000252774
-9.81201e-06
1.2815
6.62303e-07
0.000239204
1.10881e-06
-0.00926513
-8.9955e-05
-6.94424e-06
0.0484081
0.063665
1.7254e-06
-8.54282e-05
0.000115946
-9.29166e-06
-1.59189e-06
-8.16147e-06
-2.65619
0.571602
-3.0233e-06
-0.000496201
-0.915616
1.19536
-0.0299036
-0.00356409
-0.0206995
1.29648e-06
-0.00883347
-0.000401356
0.000811898
5.87262e-05
0.00744822
0.00652318
-0.000582129
-1.99868e-06
-3.85174e-06
-3.65902e-06
-9.92295e-06
-3.763e-06
-1.13072e-05
-0.449099
6.59137e-06
-2.15191e-06
-0.00267897
-1.42752e-05
-5.14179e-07
1.35747e-05
8.64873e-05
0.00519059
-0.0673373
1.93396e-06
0.117862
7.7183e-06
-0.000289288
-0.0046908
0.529536
-0.00752399
-9.50668e-06
-5.95185e-06
0.552896
-0.429147
0.00213743
-3.21171e-07
0.0165502
-0.0935261
1.32521e-06
7.28662e-06
-0.223166
-2.9359e-05
-0.00511275
0.00310322
-3.38668e-05
-0.000461785
-3.40192e-06
-4.43795e-06
-1.42103e-05
-1.6819e-07
-7.91859e-07
-9.9955e-06
0.00413079
-4.73105e-08
0.208891
-0.727067
1.74044e-06
-3.80126e-08
6.58618e-06
-9.36273e-06
-0.000397597
0.0243251
-2.1364e-06
0.0646577
0.000612807
0.000811277
1.59998e-05
2.58862e-05
8.05787e-05
-2.66317e-06
-2.62134e-06
0.182062
0.794181
-3.69554e-06
-1.45774e-06
-2.619e-06
-0.70896
-1.53689e-06
8.88136e-06
-1.16142e-05
-2.08789e-06
-3.66284e-06
1.42173e-05
-5.56801e-05
-9.22664e-06
-0.00553542
-1.72366e-06
4.06134e-05
-0.00430958
0.495197
-0.00019649
1.67197e-05
-6.57411e-07
-3.05798e-07
-6.71634e-06
0.000143742
0.157634
0.133446
-3.06706e-06
-0.160583
-1.0599e-06
-0.000721759
2.03777e-05
-1.51166e-06
-0.00237241
3.047e-06
-5.66705e-07
-0.0505791
3.52823e-06
-3.33592e-06
-0.0141176
2.02045e-06
-4.69955e-06
0.00458809
5.01239e-06
-0.304671
0.0187817
-1.1068e-06
4.19893e-07
0.00181753
8.90985e-05
-0.00041065
-4.18415e-06
0.213218
-0.137042
-0.0157823
-3.06329e-06
0.44565
-1.80719e-06
-6.49072e-06
-4.55941e-06
5.69685e-06
0.35202
-0.0063583
4.46801e-05
-5.26011e-06
-0.000189294
-1.67578
0.00622836
-7.52544e-06
0.0229995
-9.63661e-06
0.00768018
0.000328381
-0.00212031
-1.70457e-06
-1.16532e-05
-0.00274303
-1.18796e-06
-1.47394e-06
-1.40787e-06
-2.47852e-06
0.000231761
0.0048152
0.00533464
-0.0642125
-0.00233342
0.000167558
-3.13207e-06
-4.16955e-06
0.135506
-0.804321
1.94902e-05
-0.00185386
-0.216312
0.201663
-4.65408e-06
7.17502e-07
0.00200864
-0.036227
-1.64611e-06
0.0508835
2.09499e-06
-1.55108e-05
-0.000391756
-8.84694e-06
-3.419e-06
9.04185e-05
-3.24097e-06
8.94701e-05
0.00863098
-0.00242077
0.0844904
-6.66521e-05
-3.26624e-06
0.000253546
8.52486e-06
-0.00835563
0.015604
3.09446e-06
-0.44858
0.000188013
2.06449e-05
-0.557212
0.0031279
0.0033979
-2.61222
7.78697e-05
-0.171875
3.31721e-08
-0.126063
0.704555
-0.00106205
-4.0758e-05
0.273842
-5.75686e-06
0.00429901
0.0767105
0.0704759
-5.50883e-06
-0.029256
-3.41239e-06
-0.0020312
-0.00766965
1.86756e-06
-5.83503e-05
-0.533692
-0.391485
9.53007e-05
-6.11421e-05
-2.24138e-06
1.40927e-05
-2.95173e-05
-0.000969381
-0.00662766
-6.28227e-06
-0.00250294
0.000150081
1.10911e-05
-0.000129147
-1.00263e-06
0.0132685
-8.09444e-06
-2.24946e-06
2.80605
-3.96409e-06
-8.60058e-05
-0.226896
-0.00321994
-0.00238015
-6.58517e-06
7.15944e-06
-0.000544516
1.00509e-06
-0.0391886
-2.27631e-05
-2.82482e-05
1.66561e-05
1.10377e-05
-2.0485e-06
-0.573966
-1.09187e-06
0.569987
0.00416643
-3.64152e-06
-0.852118
-1.08673e-06
0.000330875
5.23316e-05
0.99781
-2.41665e-05
0.29666
-0.0318723
-1.63601e-06
-0.186238
-2.41347e-06
1.2679
4.22019e-06
4.172e-06
-0.324092
-0.0788071
-9.14838e-06
-1.04148e-05
6.84603e-05
-4.74631e-06
-6.36685e-06
0.0467791
0.307369
-2.01283e-07
-4.48704e-06
-2.3341e-06
0.286299
-0.00490743
0.00153098
-3.0806e-06
0.0291408
4.73866e-06
9.19276e-06
-0.00031553
-0.109126
-7.86156e-06
-0.0020146
0.321812
0.000131522
0.0316316
-3.95691e-06
0.000382953
-7.72608e-06
-8.38262e-06
-6.79078e-05
1.43394e-05
-0.0031754
-1.00489e-05
-0.163331
-1.26228e-05
-2.9387e-05
-0.00609429
-0.348944
-0.00185036
-9.09114e-07
9.18529e-06
-0.00493908
0.044328
0.00310581
-6.17826e-06
-9.55879e-07
0.000358988
0.00362455
-0.201837
-7.40725e-06
-7.82792e-06
1.26565e-05
-9.74409e-06
0.000116346
-7.31584e-06
1.98686e-06
-0.0269993
-8.16191e-06
-3.90367e-06
-0.00305555
-3.19331e-06
-0.0615852
-0.00262961
-0.965673
1.89764
0.0951581
0.276472
-7.50476e-06
-6.94932e-07
-6.49172e-05
-1.39057e-06
-7.08894e-06
-1.25014e-06
-1.97356e-06
1.27632e-05
-0.0300606
-0.00182882
0.0988786
0.000127673
-1.62444e-06
0.000636083
0.000839952
-0.00101128
-7.51283e-06
-6.12685e-05
-9.31541e-06
0.121799
-0.157694
0.000998097
-5.22515e-06
-0.00780433
-0.00930546
0.0248041
-0.0552558
-0.82545
-3.37692e-05
0.000277532
1.93709e-05
-0.0675847
2.16633e-06
-1.54769e-07
-0.00402539
-0.663799
-7.4203e-06
0.00534566
0.605312
-7.18525e-06
-6.34847e-06
-8.43854e-06
-1.24518e-05
-3.92824e-06
0.000113835
4.84124e-05
-7.41449e-06
1.99264e-06
-0.0716638
0.107416
-5.49092e-06
-0.0022283
0.806401
-3.98254e-05
-0.000142108
-5.72663e-06
7.072e-06
-9.05031e-05
-3.49725e-05
-1.40854e-06
-1.41771e-06
9.76211e-05
3.33624e-06
-0.277899
0.000148761
-1.45117e-06
-1.47741e-05
0.282221
-5.58162e-06
3.13562e-07
0.744731
-7.65304e-06
-0.000320359
-7.46275e-05
-3.91816e-06
-6.11799e-06
-9.49599e-07
-3.99773e-05
-0.0012571
-1.46737e-06
0.0782634
-0.0012408
-0.00833639
-1.07588
1.16853e-05
0.00556401
1.25149e-07
0.0273297
-2.88599e-06
-9.78983e-06
-0.000100023
-0.00464912
2.06008e-05
-0.337304
0.670424
-1.36492e-06
-0.000307705
4.00188e-07
-8.66133e-06
0.000248937
6.00007e-05
-4.86034e-06
0.0119761
-4.2255e-06
-6.79062e-06
-0.118886
2.15296e-05
-8.76389e-06
-5.66121e-06
-0.187443
-1.69034e-05
4.86841e-05
8.97415e-05
-0.384173
0.0113095
-3.08001e-05
-0.0134985
-4.43716e-06
-1.64377e-06
-3.7382e-06
0.0263899
3.99954e-06
-8.46372e-06
3.25192e-05
-4.53033e-06
1.43551
4.26284e-06
-2.1709e-06
-0.159361
-7.09896e-06
-0.0029564
1.25037
-1.73168e-06
-7.22403e-06
-0.462772
-5.51326e-05
0.688572
0.0878994
-4.32558e-06
-4.25469e-06
-0.429522
-3.23298e-06
2.53597e-05
0.0662554
-8.63836e-07
-0.109776
-8.31334e-06
-1.13507e-05
-4.70084e-06
0.000768814
6.37551e-05
-0.0224203
-9.21288e-06
-4.65228e-06
-0.140711
-0.0432518
-0.00136536
9.23998e-05
0.0144111
-0.112448
-0.28197
-1.36995e-06
-0.145286
-4.20888e-06
-0.386898
-0.0838133
-7.5429e-06
-8.68545e-05
3.79796e-06
-0.04129
-3.39853e-06
0.981377
2.17669e-05
-0.117065
-0.000241848
-2.17616e-06
-2.32319e-06
-6.52369e-06
-0.388062
1.52266
2.6299e-06
0.276106
-8.77422e-06
-7.82704e-06
-0.0824563
-4.51699e-06
0.616321
-5.73365e-06
5.83046e-05
-4.96158e-06
-5.11178e-06
-4.80682e-06
-2.72386e-06
-0.00193088
9.18689e-05
0.000984949
-1.55885e-05
3.4675e-05
-5.94981e-06
0.33611
-8.04574e-06
-0.0317817
-9.9253e-06
-0.189686
-3.13894e-05
0.0100854
-8.71e-08
-2.92911e-05
-6.2284e-06
-0.166408
9.22068e-07
0.0443899
0.00123822
-9.78644e-06
-0.000112633
-8.42375e-06
-3.77563e-06
-0.000120493
-9.56404e-06
0.131413
2.6658e-06
-4.251e-05
5.37591e-07
1.33509e-05
0.616888
0.141552
4.783e-06
-6.24811e-06
5.15985e-06
3.02579e-05
-7.03145e-06
-0.000154781
-1.94686e-05
-6.62483e-06
2.26367e-06
1.183e-05
0.0209572
-0.00573578
-1.57929e-06
-1.09916e-06
-0.0261773
2.51029e-05
-0.529835
-0.160294
8.69712e-06
0.0932766
-1.98861e-05
1.13081e-05
4.00267e-05
0.000101242
0.00102657
7.2624e-06
-0.000227502
0.00745301
-0.00287029
-0.0292628
-0.313108
0.156715
-0.000362719
-7.33237e-07
-4.63351e-06
0.108252
-2.23095e-06
-1.31808e-06
-0.0001888
0.0194867
-1.25738e-06
-1.59845e-06
0.203262
-2.70893e-05
-3.65834e-05
-0.000135532
5.06712e-05
-0.00296547
-3.51938e-06
-3.40247e-05
2.0326e-06
-0.000710973
-3.99374e-05
-4.48631e-07
6.63551e-06
-0.0472246
-5.50102e-06
-5.55689e-06
0.0839902
-2.34886e-06
-1.59337e-06
-9.53915e-06
1.70084e-05
-0.000147165
-0.19664
-0.00955091
0.29586
-0.00556993
0.379887
-0.0122715
-9.76441e-06
-0.038308
0.0937418
-1.28916e-06
-1.90924e-06
-1.87374e-06
-3.92153e-06
1.99501e-05
1.74814e-05
-0.00132724
-0.00660738
-1.1578e-06
-2.44196e-06
0.0018615
-4.03553e-05
-0.0231136
-6.72747e-07
-2.30461e-05
-2.12685e-06
-0.00263879
-0.375092
-2.31427e-05
-0.179721
-2.86755e-06
-1.85647e-06
-0.0044456
-0.000369013
-2.21335e-06
-0.00451727
2.75758e-05
-4.66493e-05
-0.0382847
-0.00238555
-0.000714545
-8.28767e-06
-9.03388e-06
1.21516e-05
-4.40703e-06
0.0683531
-0.00150173
-0.0222675
0.22811
1.16705
2.71004e-05
-0.0207534
-0.508976
-0.315791
-0.00311265
-0.686017
4.58248e-05
0.129272
-0.00844281
-0.000808205
2.17397e-06
-6.57147e-06
6.49491e-06
0.00157964
-6.26559e-06
-9.10618e-06
0.00294832
-0.149386
-0.460504
0.0430917
-0.00616137
0.0605051
5.24889e-05
-3.74155e-05
-5.43385e-06
-0.535455
-0.00363728
7.42529e-06
0.000140101
1.12032
0.0612141
-0.0714795
0.000524816
0.00086061
-1.32691e-06
0.940668
-4.97025e-06
0.0419903
0.567044
-0.000329655
-0.00562697
-0.00915858
-4.26618e-06
-6.39915e-06
-0.0583761
0.154859
0.0183526
1.9694e-05
7.00253e-05
-0.000134279
-0.00761771
3.48155e-06
0.0569197
8.42428e-06
-0.00831185
0.0959094
0.000185354
-0.00899682
-0.00123563
0.239846
-1.41055e-06
-0.00106202
-0.356555
1.73544e-05
-8.83472e-06
-0.0647467
-0.0601301
-5.66266e-06
-8.33893e-06
0.020782
-0.000328715
2.72036e-06
0.130617
0.00556026
-2.98444e-05
-0.00029533
0.140948
-0.000147472
6.3821e-05
6.69368e-05
0.0950746
0.000157368
-9.9675e-06
-3.94978e-06
0.00441807
-4.9669e-06
0.127357
-2.03389e-06
-3.08165e-06
0.0341589
5.74545e-06
-2.16251e-06
0.00743614
-1.96719e-06
6.77408e-05
1.07909e-06
-1.18802e-06
-8.07545e-06
-0.00470119
-3.18161e-05
0.0548922
-0.000392861
0.0178673
0.519228
0.00015628
-4.50413e-06
-5.30635e-06
-0.0391579
0.000131793
1.65142e-05
0.047503
0.000573996
-0.610286
6.03668e-06
-2.30861e-06
-4.36503e-06
-9.42335e-06
-1.63748e-05
-3.58037e-06
3.21097e-06
-6.81953e-05
-4.67141e-06
0.104068
-0.00129246
0.0437718
4.27492e-05
2.07715e-06
-0.000898771
-0.153378
-0.811499
-0.0433145
-0.12028
0.061718
-0.00479236
-0.556111
0.000182757
-0.00118174
-0.00177714
0.176732
-4.28649e-06
0.0136489
0.107238
0.00151811
-7.11492e-06
-0.021542
-2.99242e-06
-8.09823e-06
4.58532e-06
-0.000428914
-0.0291641
2.49588
-5.88914e-06
3.39469e-06
1.01735e-05
-1.26544e-06
0.00080629
-5.97026e-06
-0.116948
-0.00302755
-0.00144288
3.59587e-05
-5.75496e-06
-3.83536e-06
0.270619
-0.253353
-1.69709e-06
0.000118446
-0.204943
-1.21444e-06
-4.70552e-06
-1.62329e-06
-1.57369e-05
-7.70204e-06
-5.64982e-07
-5.41438e-07
0.381432
1.98383e-06
-0.00736119
9.17763e-06
-5.08828e-06
-0.103012
8.18262e-05
-0.371698
-6.17703e-06
-0.00254806
0.0216515
-0.248375
-0.00102366
-0.00309377
0.146584
0.000144959
0.00109099
-1.0258e-05
-7.33788e-06
-2.02753e-07
-5.07483e-06
-0.00127811
0.00068702
6.46774e-06
0.0146987
-7.0565e-07
-3.21544e-05
0.000230338
-0.0774503
-1.4244e-06
-0.00178615
2.57401
-0.0027606
0.0298894
6.14447e-06
-2.49707e-06
-0.0472116
0.000667883
-6.2695e-06
-5.26296e-06
-0.00558102
-4.52315e-06
-3.18043e-06
0.798651
-0.00345084
-7.38031e-05
1.1601e-06
-0.000192266
-0.862585
-3.50778e-05
1.00275
0.304626
-5.84232e-06
-3.39212e-06
0.0771899
0.000687977
-0.000374239
1.85929e-05
-0.00048625
-0.000746567
-6.23978e-06
-6.18766e-05
-0.00501968
0.000699609
1.23262
-0.00890487
-0.00080175
0.0768897
0.0446247
1.98322e-05
-0.0192155
0.956921
-0.000296339
-0.236852
-1.1509e-05
-0.0221228
-0.006105
-0.0157742
-0.000184871
0.00199038
0.000803901
0.0052735
-2.23827e-06
4.42032e-08
0.377632
-0.000101491
-6.07457e-06
-7.56364e-06
2.94207e-05
1.61168e-05
8.37398e-06
-3.43376e-06
-7.46068e-06
0.0356203
-0.522802
-1.04582e-06
-6.9848e-06
-0.0230665
0.0694176
-1.88234e-06
0.00539576
-0.000385874
-0.00207124
4.95731e-07
-4.60126e-06
0.232931
3.27758e-05
-0.000788636
-0.00786314
-3.01619e-06
-2.00669e-06
-0.269101
-7.76082e-06
0.00119622
-1.71244
-0.695494
7.67574e-06
-7.16661e-06
-4.07259e-06
6.38212e-06
-8.13396e-06
0.0552497
-0.121487
-1.56836e-06
0.0063228
-0.85963
4.23932e-06
-1.51605e-06
-8.6928e-06
-0.0327536
0.215336
-0.00289477
-0.00269804
2.03834e-06
-0.340818
0.00676041
-1.56755e-06
-2.01008e-06
-1.01357e-05
-0.000778955
0.015813
0.031724
-1.91452e-07
-0.00295444
0.0359372
-0.00018058
-6.31453e-06
-3.93474e-06
-6.08853e-05
-3.41598e-06
1.39708e-05
-3.49614e-06
0.00325298
-0.301952
-6.45517e-06
-2.99227e-06
-0.000124566
-2.84164e-06
-1.70652e-06
6.98753e-05
-0.0205787
-4.02109e-06
-3.31865e-05
0.553423
-0.00177951
0.0556698
-0.00569022
4.78473e-05
2.05542e-05
2.05605e-05
-2.03763e-07
-7.16883e-06
-2.84999e-05
0.0434675
-0.00315969
2.8523e-05
-0.00253008
-6.66463e-07
-0.220225
-0.0607393
-2.10424e-06
0.585473
-1.05438e-05
2.21913e-05
-0.00668614
0.0802125
-3.62209e-05
7.437e-05
-3.30572e-05
9.6514e-05
-2.9923e-06
0.342241
-0.11683
-3.56718e-06
-0.00656638
-0.0643057
-7.22719e-06
3.927e-05
-0.0327932
-0.00511206
3.98409e-06
-0.00965969
-2.33928e-05
-6.9332e-06
-0.120147
-0.71216
0.450273
1.9361e-06
-0.940723
0.000718029
-5.34172e-06
-0.000329783
0.000176217
-0.000194617
-0.0100088
0.0265904
1.1133e-06
-0.00217404
-0.00436861
-3.74567e-06
-0.0925043
0.054776
0.00288101
0.122016
-6.00154e-06
-1.04838
-5.4332e-06
-2.68056e-06
-0.00200226
1.65637e-05
0.0392183
-0.0056627
1.8993e-07
-0.107046
0.956554
0.315295
-1.13026e-05
-0.00362543
-1.43391e-06
6.70427e-05
4.42707e-05
-9.24533e-07
-0.355709
0.436699
-0.0670521
0.0145421
-0.00770826
0.00833449
0.114498
2.12121e-06
0.000153372
0.512558
-0.00363916
-2.86983e-06
-5.96344e-06
-0.129242
0.00107098
0.00037078
-5.63933e-06
-3.98923e-07
-0.0232164
-5.58342e-06
-0.00477375
0.029644
1.09669e-05
0.69023
-9.06314e-07
0.574284
0.126684
-0.0510795
-3.06594e-05
-0.0587102
7.54555e-05
-3.05211e-06
2.92954e-05
0.240368
0.000607053
0.0605576
-9.32735e-06
-4.82876e-06
-0.101211
-0.0885947
1.04536e-06
-0.00656209
0.209988
-0.112643
-0.484687
-7.01078e-06
-1.92846e-06
0.0138649
-1.2165e-06
-8.64096e-07
0.000182026
-1.13992e-06
-4.85886e-06
-6.66589e-06
-6.89304e-06
2.03452e-05
-8.41551e-06
0.00086774
0.000631099
2.09023e-05
0.284652
0.166181
0.000259208
-2.428e-06
-4.63787e-06
0.00152636
-4.82815e-06
-6.01361e-06
-5.67626e-06
-0.000606377
-9.79251e-06
-2.14053e-05
7.72641e-05
0.0149747
0.00587265
-6.64136e-06
-0.0021874
0.000337959
0.000396209
0.0330856
0.0131451
-8.40298e-08
-6.79079e-06
0.00447743
0.00236621
1.29967e-06
-0.161683
0.0725841
-5.04765e-06
-0.276294
-3.53025e-05
-0.00103626
0.00396114
-0.585559
7.40901e-05
-7.29038e-05
-8.00727e-06
-0.414185
-3.62455e-05
-0.0877967
-0.00413427
-0.0577526
0.591009
-1.18797e-05
-0.00159695
-2.17515e-06
0.0134764
-0.00478666
0.156365
-3.1608e-06
-7.36991e-06
-0.00718804
1.38434e-05
-0.411673
-4.26949e-06
-0.0224864
0.249393
-0.00170697
-0.0201175
0.243778
-9.91279e-06
-8.94213e-06
-1.90004e-06
0.0317611
0.00532169
1.07076e-05
-5.94421e-06
-1.17443e-05
-2.38828e-06
-0.000896441
-9.98992e-06
-7.58487e-09
-0.00331725
5.43767e-06
-4.35286e-07
-4.96201e-05
0.350066
0.883453
-0.783307
-3.4285e-06
0.000618568
-0.000280506
-0.000101805
1.91554e-05
-0.660745
0.25924
7.87225e-05
-0.00412745
-2.03899e-06
-0.000800632
-0.00489108
-0.0029799
-0.0424159
3.02872e-06
-0.00289354
-1.87547e-06
0.0185043
0.0503817
2.22961e-07
4.27018e-05
-1.19414e-05
-1.2197e-05
0.650911
-6.96547e-06
-5.38078e-06
-1.35399e-06
9.10671e-06
-2.04412e-06
4.49883e-05
-4.4801e-06
3.50911e-05
-6.16152e-06
-8.7573e-06
-0.0682453
-0.0371195
-0.0759773
-2.51362e-06
-2.71566e-06
-4.21682e-06
-3.49549e-06
-1.02375e-06
0.00093317
6.98724e-07
-3.85479e-06
-5.29174e-06
-6.44096e-06
-0.000235337
-8.66305e-06
-0.0226783
-0.311462
-0.00145568
0.674485
-5.84092e-07
0.424358
0.000593297
-0.0542046
-2.25633e-06
-0.23369
-1.0838e-05
-9.65438e-07
-6.9746e-06
0.00181517
-0.00889431
-5.47972e-06
0.0063468
-0.000550917
-6.85978e-06
0.000527467
-0.0208416
0.000439357
-7.52944e-06
-7.92493e-05
-0.513863
-0.000882461
0.655839
-5.26677e-06
-4.1915e-05
-3.98032e-06
-0.000259841
-0.000420355
0.0243282
0.000682395
-8.15926e-07
-0.319418
0.00321872
-0.00531971
-6.78026e-06
0.000116975
-0.0272116
2.72903e-05
-3.56543e-06
0.000642788
-0.327457
1.49531e-05
-7.05464e-06
9.55114e-08
0.000995858
2.40959e-05
-0.0468673
-6.30703e-06
-0.000105989
0.00021565
-0.0690256
-4.26061e-06
-5.1642e-07
-2.23422e-06
4.29308e-05
-2.43861e-06
0.362358
0.0577226
0.000848339
-0.0237878
-5.6727e-06
-0.248491
-7.50127e-06
-4.29627e-06
0.000458202
0.000526133
-0.00239635
0.029554
1.00957
1.35848
0.000314953
-0.000744926
-2.13859e-05
0.0645583
-6.27002e-06
-9.72287e-05
-0.0133855
2.7091e-06
0.00150752
0.00448542
0.0211553
0.085703
0.0146536
-0.0138344
-0.0460293
-0.00650352
0.000129955
-0.003992
-2.454e-06
-5.5912e-07
-3.08223e-06
-0.745209
-0.37965
-0.0025578
0.000282422
0.000161487
-0.00686452
-4.96435e-06
0.00727091
-2.17154e-06
0.000201698
-8.63816e-06
-1.49115e-06
0.000128351
-0.00167005
-0.270044
0.000379487
6.89472e-05
2.28134e-07
0.00273716
0.945871
-1.85488e-06
0.00129118
-0.0171007
-1.10452e-06
-0.00300627
-4.44964e-06
0.200318
0.000123997
-0.303875
-1.3616e-05
1.93138e-06
8.94748e-05
0.000895134
0.499133
-0.0075828
0.00660173
-5.34637e-06
-7.15875e-06
-7.61522e-06
-1.11057e-05
-1.21825e-06
-4.63929e-06
0.309204
0.64654
-0.000129471
2.74948e-05
-0.000329904
-0.00010876
-6.55991e-06
-8.15243e-06
-0.00745176
-0.0103869
-0.104333
-1.72275e-05
-0.00566114
-4.75554e-06
-0.00429832
1.76728e-06
-0.00160741
0.0208667
-0.0639431
-0.0425775
-1.95914e-06
-6.87805e-06
-5.21816e-06
-6.1649e-06
-3.18153e-06
-7.00287e-06
-0.0535119
-8.18786e-06
9.01789e-05
7.78163e-06
0.00117748
-9.2226e-06
0.203921
0.179061
-0.0115483
-4.2223e-06
2.949
-1.61603e-06
-0.0457529
-0.140231
0.000114862
-0.00420474
-1.44735e-05
-0.00463785
1.12514e-06
-0.000148942
-0.000253064
0.00222899
-0.00845686
-0.0136945
-0.00214349
-0.00160664
5.83106e-05
1.44291e-05
2.20917e-06
-0.0748379
3.72085e-05
-0.108459
-3.55257e-05
-0.126872
0.147378
0.0703885
3.7213e-05
1.168
0.000121792
1.7478e-06
-5.07404e-06
5.38206e-05
-0.00533727
-6.1541e-06
-0.0843621
-0.00324721
-0.00861074
-8.71294e-06
-0.000294051
0.582101
0.0312538
-0.00678128
3.49684e-05
0.000454475
-0.0656764
0.0449941
4.53033e-06
0.00274229
-0.0217483
-0.00502847
-0.0049693
0.000193268
0.00045883
0.0446133
-4.37421e-06
0.00339575
-0.00263495
-3.08748e-06
0.091512
0.0376468
0.850697
-0.000303464
-0.00895026
0.00100519
-8.26173e-07
-0.002507
-1.51706e-05
0.11803
8.00579e-05
-0.0249094
0.144145
-0.0697797
0.0152417
-0.00269862
0.534624
5.74057e-06
0.0013391
-0.0151247
-0.377117
2.93177e-06
4.78705e-05
-2.986e-06
-0.000307894
-3.60946e-06
-6.82725e-06
0.797491
-2.78339e-06
-5.30388e-06
0.000880142
5.35567e-05
5.72888e-07
-0.000893589
-0.498095
-0.00264744
8.42163e-07
-5.43492e-06
-0.000191037
-2.35535e-05
-3.33215e-06
-4.9958e-06
-2.15162e-06
0.0576896
1.97578e-05
-0.00295796
0.000251108
-3.69379e-06
-1.12511e-06
0.00704439
-0.00320108
-0.00742846
-0.00110781
8.53988e-07
7.54389e-05
-4.79008e-06
-0.000245885
0.130899
-0.0882807
-0.00261473
-2.3783e-05
-1.49543e-06
0.000578389
-0.0164319
0.0293486
-0.0231559
3.48728e-05
3.35885e-06
-4.09024e-06
3.66983e-05
0.0945193
-0.005332
1.38055e-06
-0.00402816
-1.06276e-06
-6.04081e-06
-0.00437935
-7.45664e-06
-0.347967
-0.0049056
-0.0017212
-4.88233e-06
-0.00112705
-0.00164149
-0.815108
2.77735e-07
6.88905e-05
-0.00189121
-0.0495056
-1.21256
0.232322
-0.0652692
3.9779e-05
-0.00950204
8.7745e-05
-0.00197977
-0.75534
-0.000400927
-5.65885e-06
-6.50314e-06
-5.47049e-06
0.5712
-0.0929923
0.000232413
-0.121316
-5.37773e-06
-5.73222e-06
2.90905e-07
-0.00268361
0.000525887
-0.153564
-7.89556e-06
1.37407e-05
0.00056858
-0.108077
-1.90491e-06
-0.0263426
1.42968e-05
-9.79209e-05
-0.272885
-6.15038e-06
-0.1458
-0.709295
-0.0414487
-0.13005
-0.000107946
-2.08786e-05
2.01479e-05
0.0897477
0.00032579
-7.44659e-06
1.51276
0.0313081
-8.51133e-07
2.72073e-06
0.659697
-2.37856e-06
0.605283
-0.346253
8.71314e-05
-2.03642e-06
0.000177658
-2.10238e-05
-0.111763
-4.50235e-06
-0.000992058
1.42604e-05
-0.528933
0.080981
-6.10172e-06
-4.29824e-06
0.00906851
0.000274535
-8.02732e-06
-9.59246e-06
-6.03454e-06
-0.00304115
1.90796e-05
0.0810174
-9.84667e-06
-1.22417e-05
-3.08526e-05
3.86452e-05
6.00177e-05
-3.56356e-05
-0.495259
-0.0270498
0.00627328
-2.77454e-06
-2.11792e-06
0.731769
-0.000307432
-0.00469671
0.358542
-0.00625357
0.02075
-0.528519
-1.56929e-06
0.0739701
0.0494698
2.44178e-05
-6.66953e-06
-8.05877e-06
-7.70348e-06
0.150439
0.0461219
-3.57058e-06
-0.252737
-0.111961
0.417853
-4.0681e-06
-6.4719e-06
-0.337215
-5.85219e-06
1.76697e-07
1.97577e-05
-3.04038e-06
1.17001
-8.09345e-06
-0.760794
-0.0243568
1.14118e-05
0.00588893
0.0203885
1.43526
-0.0242703
-5.19949e-06
0.000164959
0.00123269
-0.0382652
-0.012926
0.0411965
-7.56367e-06
-7.05766e-06
-0.00773724
-2.20749e-06
1.54612
-0.176836
-5.07417e-06
1.19177
-1.86029e-07
0.172139
6.09137e-05
0.0360106
2.51216e-05
0.114563
-0.0106536
0.337638
0.613314
-5.43808e-06
-0.240577
0.153738
1.25108e-05
0.158088
7.28112e-06
-2.34622e-06
-7.69212e-07
0.000436535
0.000150653
-4.51816e-06
-3.34281e-06
0.0498463
-0.00164774
-0.000200122
-0.175102
-0.00262775
-0.000505509
-6.7662e-05
-0.000440645
-4.68834e-06
-0.00166084
0.84201
-0.577086
-0.010413
1.4234e-05
-2.87818e-05
3.37507e-05
-0.00774638
7.75339e-05
-8.0304e-06
0.861141
-0.270415
0.148442
0.000290947
-5.8654e-06
-0.00165851
-0.0134811
8.09422e-05
-2.17254e-06
-3.02605e-06
3.00757e-05
-0.00148845
-5.15386e-06
-0.0182876
-4.91504e-06
-0.836378
-6.04342e-06
0.0647679
-0.236446
0.333837
-1.63847e-06
-0.000534389
-7.49571e-06
-6.71559e-07
-0.00353102
-0.266487
-3.57342e-06
1.79254e-07
0.379342
-6.67259e-06
-0.00241822
0.266962
0.000221989
-0.160855
-2.47767e-07
-1.28553
-1.22984e-06
0.917409
-2.29274e-06
-5.75192e-07
-0.0865855
-6.43085e-06
0.0155611
0.000183503
0.000687731
-0.743294
3.45355e-05
-7.29436e-06
9.20997e-06
-3.12565e-06
0.329069
0.299693
2.48838e-07
-0.0137239
-0.0133695
-0.0267212
2.28844e-06
0.00334334
0.122906
0.000369196
-0.000281809
-2.72605e-06
-0.257326
-2.02243e-06
0.180233
-2.39496e-06
-0.000108311
0.000126121
-5.97587e-06
-3.59741e-06
0.00179131
5.86135e-05
-2.76043e-06
0.0525161
-4.55334e-07
0.00122304
-2.21724e-05
0.497217
0.00531152
-5.00308e-06
0.00111842
-3.92434e-06
-5.3827e-06
0.000162826
0.185161
0.0534449
0.0517017
0.0477386
-1.45517e-06
-1.38222e-05
-1.88883e-05
-5.63461e-06
-1.93447e-06
1.85441
-7.01356e-07
-6.28599e-05
-0.0161615
-3.79427e-05
0.0501269
-1.06479e-05
-1.32598e-06
-0.023613
-1.63199
-6.08712e-06
-0.00195915
2.02491e-05
-0.027027
-4.35228e-06
4.68634e-05
-0.0588684
9.12405e-06
0.0592015
-0.00170113
-1.04785e-06
2.50132e-05
-0.000900474
0.000101204
-0.00203341
-0.179883
0.352319
0.000112659
0.000289354
0.00134965
-0.00353193
4.02046e-05
-0.144272
-0.481652
0.316577
0.404307
-9.75841e-05
-1.88509e-06
-8.10826e-06
0.125084
-0.196216
-0.0115156
0.164633
-1.51003e-06
0.0603136
-2.58639e-05
-0.282573
-3.80632e-06
0.000581143
-0.00806295
1.4758e-05
4.81427e-05
4.73153e-05
0.000150576
7.47571e-06
-2.38584e-06
-0.000633357
8.14673e-05
-5.5454e-06
0.2396
5.87307e-06
6.4297e-06
-1.38724e-05
0.083331
0.00117669
0.0217927
0.000666783
5.24805e-05
0.415397
0.000260902
-0.00316955
-1.02149e-06
-7.66043e-06
-0.098313
0.444544
-0.279101
3.29175e-05
7.49055e-05
-0.148159
-0.00407611
-0.00848358
0.081025
0.143018
-0.06072
-1.61036e-06
-0.147454
9.52947e-07
-0.00497524
0.531753
-0.00180851
-0.00151712
-7.35086e-06
0.0119186
-0.00338034
-0.0507614
0.00239875
-3.15966e-06
-6.50917e-06
-5.0837e-06
0.437306
-4.53231e-06
0.284936
-0.00542173
-0.0466459
-1.66833e-06
1.27723
-0.111981
0.000572635
0.0199795
2.08685e-05
-5.15953e-06
-1.2056e-06
-0.000348448
-1.62632e-06
-7.69356e-05
-0.172107
-3.94622e-06
3.31593e-05
0.177209
0.00767901
0.000225099
0.000264385
0.00094793
-3.72628e-06
0.0357052
-7.04125e-05
-0.317389
-0.00160103
0.064303
0.000719316
-0.00039395
-0.328011
-5.90407e-06
-7.48379e-06
0.874099
0.0445268
-0.102951
-0.0003116
-0.00193903
-1.55601e-05
-0.00512024
-8.58859e-06
2.98898e-05
-7.77136e-06
-6.13364e-06
0.0467811
8.57367e-06
-0.00110058
-4.46231e-06
-0.110827
0.149631
-0.0023268
0.000581588
0.105233
-0.000363432
-2.55016e-06
0.348218
-0.118418
0.0623057
-6.07122e-06
-7.47139e-06
-0.166953
-0.144599
2.07916
2.52942e-06
6.36455e-05
-6.06364e-06
0.000350192
8.74983e-06
-3.75738e-06
0.220116
-5.39018e-06
-0.59864
5.5895e-05
0.628784
-1.2135e-06
-0.128316
0.297481
-0.00488529
-0.259912
-0.177339
-5.20745e-06
-0.00403538
0.185974
-6.36311e-06