/*--------------------------------*- C++ -*----------------------------------*\
| =========                 |                                                 |
| \\      /  F ield         | OpenFOAM: The Open Source CFD Toolbox           |
|  \\    /   O peration     | Version:  v2012                                 |
|   \\  /    A nd           | Website:  www.openfoam.com                      |
|    \\/     M anipulation  |                                                 |
\*---------------------------------------------------------------------------*/
FoamFile
{
    version     2.0;
    format      ascii;
    class       volScalarField;
    location    "350";
    object      k_0;
}
// * * * * * * * * * * * * * * * * * * * * * * * * * * * * * * * * * * * * * //

dimensions      [0 2 -2 0 0 0 0];


internalField   nonuniform List<scalar> 
9793
(
0.000212299
0.00649059
0.000212257
0.000141125
0.000395243
0.00015362
0.000151989
0.000139667
0.000146948
0.00037274
0.000185789
0.0289824
0.000141647
0.000144272
0.000162247
0.000142521
0.000154974
0.000162053
0.0167953
0.000144181
0.0214812
0.000153156
0.00404069
0.000131487
0.000155879
0.000142674
0.000144795
0.000146439
0.000178834
0.000146851
0.000194129
0.00421282
0.0041819
0.000153495
0.000183285
0.0290251
0.000157222
0.000153011
0.000140708
0.000144344
0.000191934
0.000162694
0.000152709
0.000152897
0.000152818
0.000144677
0.000181582
0.00194539
0.000304706
0.000140861
0.000184446
0.000189867
0.000153147
0.000147274
0.000236763
0.0136909
0.000144479
0.000203649
0.00299164
0.000140548
0.000151649
0.00015206
0.00189845
0.000149501
0.000584148
0.00323651
0.0010246
0.000464834
0.0219642
0.000185775
0.000235712
0.000144606
0.000142999
0.0027685
0.000188696
0.00172532
0.000144489
0.0001444
0.000157525
0.00014929
0.00450235
0.000155214
0.00680089
0.00163302
0.000178806
0.00194555
0.000151629
0.000144527
0.000150381
0.000158165
0.00643806
0.000335766
0.000139033
0.00491824
0.000151181
0.00205434
0.0191114
0.00676617
0.000138201
0.000137113
0.000136968
0.000151812
0.000137687
0.000137431
0.000142046
0.000178917
0.000149668
0.000152374
0.000151921
0.00162091
0.000146441
0.0281054
0.000144163
0.0015148
0.000189609
0.000144574
0.00156829
0.000187728
0.00016179
0.00513087
0.00195878
0.000160008
0.000143777
0.000155104
0.000149258
0.0245446
0.000172435
0.00250481
0.000164087
0.000142512
0.00015036
0.000144616
0.000142575
0.000152864
0.000146442
0.000144577
0.000152788
0.000151249
0.000144084
0.000134067
0.000143654
0.000154547
0.000143646
0.000138178
0.000146018
0.000154857
0.00456313
0.000138282
0.000137702
0.000365577
0.00113619
0.000150169
0.000438175
0.000359276
0.00013731
0.000155857
0.000142239
0.000153086
0.000137472
0.000143141
0.000139748
0.000146429
0.000139293
0.0246015
0.00439559
0.0262154
0.00243119
0.000160277
0.000142859
0.00014561
0.000146414
0.000879126
0.00499738
0.000574903
0.000148938
0.0166281
0.000144653
0.000131211
0.000142994
0.000162185
0.073636
0.000151047
0.000137607
0.000154616
0.000700222
0.000142782
0.000212568
0.000142943
0.000143594
0.000139419
0.000148991
0.00014329
0.000275359
0.0268365
0.000797695
0.000161718
0.000245526
0.000145704
0.000354487
0.000134913
0.000146357
0.0261742
0.00817054
0.000142473
0.000144727
0.000139656
0.0286376
0.000139416
0.000170945
0.000151664
0.00016721
0.000248189
0.000428135
0.000147554
0.000246119
0.000141366
0.000146713
0.000532749
0.000138594
0.0239699
0.000199295
0.000144056
0.000149311
0.000143302
0.00238005
0.0230393
0.000153272
0.000137106
0.000199499
0.00018038
0.000131894
0.000131362
0.000151307
0.000136673
0.000177193
0.0170412
0.00014392
0.000144726
0.0239577
0.000149939
0.000171047
0.000143701
0.000144075
0.00452603
0.000143785
0.000137692
0.000139542
0.000152917
0.000138231
0.000151878
0.000147451
0.000156269
0.000187686
0.000174965
0.000142872
0.000154728
0.00014568
0.000156972
0.000157225
0.000138325
0.00639747
0.000144187
0.000187669
0.000151355
0.00016127
0.000134369
0.000134131
0.000167144
0.0297643
0.000148852
0.000138663
0.000135082
0.000161327
0.000144239
0.0059167
0.00607666
0.000142548
0.028659
0.000143936
0.000174726
0.000151554
0.000132523
0.0001565
0.000143006
0.000172284
0.000144008
0.000147333
0.000159178
0.000142897
0.000144657
0.000143998
0.00213703
0.000150057
0.000158841
0.000151042
0.000152654
0.00014994
0.000160289
0.000142688
0.0222696
0.000137343
0.0114456
0.00139446
0.000155893
0.00015381
0.000138542
0.000162654
0.000157126
0.000150047
0.0125714
0.000147969
0.000138356
0.000157339
0.000147776
0.00014627
0.00015297
0.00184342
0.000144782
0.00015967
0.000151938
0.000142763
0.00366788
0.000396857
0.00255283
0.000136423
0.0479184
0.000150364
0.00458648
0.00019321
0.000136603
0.000153603
0.000192506
0.000148992
0.00016508
0.000191505
0.000139301
0.000151628
0.000145984
0.000145394
0.000147758
0.00022873
0.000143093
0.000142386
0.0189968
0.000150055
0.000142286
0.000136041
0.000150889
0.000139443
0.000236792
0.000149593
0.000144406
0.000146822
0.000151607
0.00164377
0.000147021
0.000175774
0.000131421
0.000172308
0.000246876
0.000211946
0.000174024
0.000150488
0.000160234
0.000277286
0.000151606
0.00682867
0.000151297
0.0001373
0.00104336
0.000165111
0.000387319
0.000144443
0.000179138
0.0290015
0.000162106
0.000142385
0.00325132
0.000159178
0.00416566
0.000154779
0.00014675
0.000397681
0.000143071
0.000150821
0.000152567
0.000147283
0.00014522
0.000147056
0.00015378
0.00174635
0.000148338
0.067306
0.00648799
0.000249477
0.00018056
0.00193029
0.000143602
0.000145946
0.00026212
0.00692828
0.000144241
0.00014886
0.00842316
0.000134936
0.00180383
0.000145174
0.000153885
0.000134639
0.000169329
0.000143035
0.000160106
0.028262
0.000139631
0.00358749
0.000178955
0.000149985
0.000176302
0.000148858
0.000148888
0.000154822
0.000406156
0.000143676
0.000146457
0.00019119
0.000146514
0.000157255
0.00015039
0.000138343
0.000163524
0.00014335
0.000146472
0.000133928
0.00305147
0.00015114
0.00309775
0.000145748
0.000252794
0.000160835
0.000147497
0.000157307
0.000148334
0.00111863
0.000145621
0.000245974
0.000140667
0.000146726
0.000150838
0.00560674
0.000197724
0.000245362
0.00024296
0.000153798
0.000142878
0.000186816
0.000163273
0.00016798
0.00661342
0.00672066
0.000146965
0.000167953
0.000179657
0.000143876
0.000157683
0.000143675
0.000137576
0.000154739
0.00261572
0.000160324
0.000482064
0.000137929
0.000163354
0.000130962
0.000151906
0.000150959
0.000155579
0.000188065
0.000146589
0.000163057
0.000134788
0.000144688
0.000159882
0.00200922
0.000144048
0.000142851
0.00167065
0.000160637
0.00014964
0.00290841
0.000257426
0.000150894
0.000153795
0.000151324
0.000159897
0.000146637
0.00015491
0.000151648
0.000146349
0.000146165
0.000143219
0.00434762
0.000192105
0.000142336
0.000905972
0.000170996
0.000137457
0.000150002
0.00015787
0.0241936
0.000151378
0.0204756
0.000137256
0.000144175
0.000184238
0.000143477
0.000168879
0.0013648
0.00016101
0.000137431
0.074308
0.000160723
0.000138994
0.000147258
0.000182265
0.000141399
0.000138731
0.000142832
0.000141277
0.0029219
0.000176832
0.000169873
0.000151378
0.000146516
0.000143651
0.00014591
0.000145419
0.00014304
0.00986407
0.000221775
0.000135428
0.000164944
0.000269368
0.000145127
0.000343611
0.000177234
0.000144389
0.000187557
0.000447387
0.000144183
0.000215454
0.00013285
0.00687919
0.00015873
0.000333178
0.000142571
0.000143648
0.000154679
0.00624025
0.000161216
0.00223819
0.00681081
0.000727714
0.000169854
0.0232297
0.000167921
0.000162585
0.000165346
0.000162525
0.00327987
0.000146806
0.000267998
0.000134052
0.000292928
0.000154319
0.000149544
0.000143187
0.0002064
0.000134455
0.000143146
0.000151208
0.000152731
0.000161244
0.000143072
0.000143093
0.000144847
0.000144612
0.00769447
0.000140826
0.00700688
0.00243269
0.000140911
0.000152712
0.000164666
0.000148871
0.000143578
0.000147513
0.000162125
0.000158662
0.000150749
0.000152725
0.000137902
0.000161196
0.000149928
0.000157288
0.00014742
0.000151363
0.00992824
0.000144558
0.000718785
0.000158152
0.000152718
0.000143198
0.000139262
0.000163897
0.000168534
0.000143702
0.000148272
0.000130657
0.000144209
0.000147817
0.000142094
0.00015387
0.000132927
0.000149561
0.000155144
0.000146782
0.000153107
0.00015101
0.000166678
0.000157082
0.000142342
0.000143278
0.000138356
0.000136783
0.000145468
0.000137512
0.000142063
0.000144579
0.000134418
0.000170778
0.00014457
0.000156488
0.000143926
0.000257815
0.000141236
0.000134511
0.00018466
0.000132514
0.000150176
0.000224304
0.00015598
0.000156323
0.000150773
0.000203814
0.000139333
0.000181925
0.000643508
0.00345802
0.00266041
0.00014945
0.000144044
0.00609181
0.000159496
0.000134149
0.00296747
0.00026767
0.000271455
0.000143385
0.000184856
0.000144061
0.000143843
0.00118789
0.000142201
0.00748952
0.000176731
0.000192106
0.000142089
0.000154599
0.000149514
0.000193325
0.0248769
0.000145966
0.000172728
0.00016062
0.000141825
0.000157497
0.000182504
0.00873735
0.000142322
0.000330531
0.000160216
0.00414505
0.000306128
0.00187731
0.00425945
0.000150583
0.000168961
0.00976172
0.000141282
0.000142008
0.000156106
0.000159431
0.000134045
0.00667101
0.000133832
0.0074722
0.000153309
0.00443759
0.000185771
0.000146172
0.0002366
0.00206046
0.00014893
0.000334176
0.00016645
0.000192562
0.000134122
0.000132332
0.00300154
0.000145715
0.0241099
0.000141311
0.00517995
0.000138696
0.00207393
0.00254994
0.00015048
0.0928361
0.000144502
0.000151527
0.000171421
0.000865338
0.00134031
0.000138321
0.000139088
0.000134879
0.00198061
0.0126579
0.000158016
0.000158591
0.000409827
0.000134476
0.00014126
0.000154457
0.00732131
0.000171106
0.000146336
0.000144066
0.000140102
0.00394807
0.000263016
0.000106753
0.000138565
0.000140601
0.000257248
0.000142099
0.000381163
0.000178248
0.00818431
0.00137418
0.00494609
0.000140603
0.00014623
0.000154558
0.000150495
0.000157894
0.000142429
0.00018507
0.00629977
0.000137753
0.00158635
0.000139998
0.00387768
0.000147667
0.000791318
0.000156221
0.000190247
0.000142922
0.000158993
0.000290724
0.00645667
0.00849713
0.000145547
0.000170269
0.000149507
0.00015176
0.000155327
0.0334337
0.000169909
0.000192694
0.000140437
0.000161177
0.000145177
0.000133186
0.000153315
0.000140844
0.000389914
0.000141935
0.000152417
0.000157217
0.000153937
0.000134086
0.000188218
0.00015148
0.000150097
0.000140817
0.000141376
0.00593427
0.000141291
0.0183271
0.000138015
0.000312212
0.000143777
0.00575838
0.000146234
0.0287722
0.000146556
0.000145979
0.000140227
0.00653753
0.00584206
0.002525
0.000291159
0.000275436
0.000145787
0.000154156
0.00585234
0.000135513
0.00277347
0.00431407
0.000189487
0.000220856
0.000151848
0.00641929
0.000162886
0.00319158
0.00649275
0.000151858
0.000147095
0.00632048
0.0260116
0.000166974
0.000153899
0.000142312
0.000158189
0.000168811
0.000145524
0.000136626
0.000150775
0.000356998
0.000171274
0.000152348
0.00335593
0.000140386
0.000137685
0.000417854
0.0304249
0.000169591
0.000150631
0.000214224
0.000139378
0.00013544
0.0012332
0.000134482
0.000151363
0.00671566
0.00670868
0.000152505
0.00142141
0.000245417
0.0159945
0.00423808
0.027915
0.000154499
0.000406558
0.000147103
0.000140289
0.000144319
0.000151208
0.000151319
0.0711938
0.000158023
0.00138615
0.000154334
0.000179334
0.000147883
0.000169525
0.000179019
0.000147755
0.000178159
0.000154644
0.00013618
0.000202869
0.00019802
0.00016495
0.000153591
0.000136005
0.00530344
0.00322872
0.000191603
0.000130904
0.000130652
0.000145187
0.000163555
0.000401228
0.000202976
0.00419932
0.000169357
0.00503403
0.000150552
0.000163613
0.000160407
0.000155372
0.000220575
0.000142972
0.000142526
0.0237555
0.00017139
0.0539804
0.000142256
0.00435669
0.0037021
0.000167716
0.000173805
0.00015432
0.000590787
0.000146903
0.000157619
0.00443544
0.000177098
0.000142441
0.00027532
0.000146781
0.000138075
0.000141858
0.000311304
0.000147057
0.000158414
0.00751523
0.000172827
0.000157172
0.000170333
0.00340241
0.00867769
0.00310591
0.000136315
0.000146244
0.000150129
0.000179593
0.00014683
0.000265447
0.00396936
0.000154356
0.00397074
0.000360702
0.00110412
0.000146501
0.00470906
0.000143006
0.00687626
0.000191261
0.000139056
0.000739535
0.0064481
0.000139996
0.000145659
0.00014567
0.00343885
0.0016174
0.0001612
0.000185219
0.000306199
0.000258705
0.0451158
0.000712363
0.000148933
0.000143896
0.0647535
0.00916452
0.000142216
0.000145508
0.000138505
0.000147633
0.000146303
0.000157232
0.029019
0.000144336
0.000162954
0.00849503
0.000147976
0.000153015
0.000155864
0.000262058
0.000146457
0.00017359
0.00363356
0.0001489
0.000135775
0.000149215
0.00014102
0.000150983
0.00243481
0.00457968
0.000153905
0.00370298
0.000170825
0.000116998
0.000143686
0.000162957
0.000150469
0.000147077
0.00514999
0.00015351
0.0001548
0.000161254
0.000156804
0.000159676
0.000158058
0.000142722
0.000208596
0.000145959
0.000141307
0.000317763
0.000142512
0.00955702
0.000172766
0.000141336
0.00741018
0.000169405
0.000167003
0.0216367
0.000136044
0.00727355
0.000141661
0.000143842
0.0110019
0.0035662
0.000136264
0.000145843
0.000139362
0.000147775
0.000193431
0.000149947
0.000150484
0.000153579
0.000156314
0.000149863
0.000144614
0.000137606
0.000141054
0.000142198
0.00132586
0.000154973
0.000134711
0.000173794
0.000159756
0.00900164
0.000339305
0.000167131
0.000145597
0.000142902
0.000191553
0.000153058
0.000145742
0.000146785
0.00278287
0.000235706
0.000143783
0.000132912
0.000187761
0.000186968
0.000132078
0.00334537
0.000174525
0.00014586
0.000148892
0.000197177
0.000147325
0.000164766
0.0019664
0.00015253
0.0114614
0.000193824
0.000274918
0.000133136
0.000143979
0.000132793
0.000132767
0.000235711
0.000142683
0.00118374
0.00018562
0.000132703
0.000149248
0.000187021
0.000152098
0.00014777
0.000143714
0.000150454
0.00332596
0.000132856
0.000145826
0.00369891
0.000156035
0.00014734
0.000189933
0.00014271
0.000147557
0.000142638
0.000145543
0.000196252
0.000153212
0.000216889
0.000257678
0.000133177
0.000144387
0.000132976
0.000209473
0.000141369
0.000155905
0.000143605
0.000136685
0.000191942
0.000137468
0.000163853
0.000144371
0.000137686
0.00254675
0.00593688
0.000147655
0.000146229
0.000140962
0.00267799
0.000208035
0.000143707
0.00384993
0.00993948
0.000153708
0.000292613
0.00369219
0.000155352
0.00215067
0.000147155
0.0050335
0.000142626
0.000174098
0.000208348
0.000137023
0.00207532
0.0641291
0.000143818
0.0905019
0.101646
0.00016838
0.00231344
0.000133789
0.000161182
0.000181332
0.000142719
0.0054594
0.000134186
0.000175155
0.000196959
0.000133432
0.000235385
0.000147366
0.000149528
0.000168087
0.000155062
0.0067412
0.0749517
0.000136562
0.000156179
0.0307852
0.000139212
0.000156768
0.000140019
0.00259695
0.000244076
0.000178093
0.000148443
0.000157122
0.0218848
0.0379875
0.000163109
0.000133461
0.000140838
0.0425976
0.00558553
0.00261079
0.000152245
0.000152187
0.000159075
0.000135576
0.00015451
0.000170476
0.000152302
0.000141179
0.000170266
0.00462367
0.00856116
0.00014118
0.000321783
0.000155013
0.0128403
0.0826875
0.000182309
0.0098846
0.0241874
0.000133815
0.000215032
0.000219684
0.0132355
0.00317781
0.000144093
0.000221325
0.00559458
0.00017909
0.000158362
0.00330961
0.000422756
0.000142074
0.000158075
0.000156378
0.000142669
0.000189413
0.000143472
0.000155597
0.000138751
0.000134699
0.000147091
0.000144214
0.000151506
0.000158051
0.00570858
0.000168763
0.00584469
0.000140169
0.000159475
0.000146838
0.000332027
0.000205744
0.00014253
0.000181274
0.000150864
0.0001357
0.000143142
0.000136276
0.000142617
0.000212546
0.000147347
0.00413344
0.000151992
0.000140838
0.00598897
0.000154174
0.000148731
0.000141892
0.000144366
0.00811229
0.00018899
0.00170388
0.000475956
0.000278532
0.000146292
0.000148297
0.000149856
0.000155902
0.000151143
0.000193391
0.0438157
0.000141324
0.000179175
0.000150519
0.00409174
0.0569688
0.000156759
0.0882707
0.000483051
0.000157831
0.000177487
0.000141458
0.00017878
0.000159135
0.000201963
0.000177682
0.000134228
0.100722
0.0115451
0.000147787
0.000152694
0.000149266
0.000486042
0.000152758
0.000148244
0.00468583
0.000139941
0.000397214
0.000172826
0.000164729
0.000150384
0.00014873
0.000224902
0.000142261
0.000983555
0.000156322
0.000143776
0.000139296
0.000595041
0.000150922
0.0681797
0.00015676
0.000169317
0.000157491
0.000197108
0.000153294
0.000144355
0.00361063
0.000147885
0.000137274
0.00191836
0.00353167
0.000169153
0.000138477
0.000156205
0.000241575
0.000194125
0.000142012
0.000309662
0.000145732
0.000217131
0.000384229
0.000149504
0.00014219
0.000204208
0.000141329
0.000139314
0.000143808
0.000196885
0.0894189
0.000215463
0.000167061
0.000148552
0.000149977
0.00417381
0.00018706
0.000151229
0.000148104
0.000142007
0.0211434
0.00572937
0.0143869
0.000142817
0.000226291
0.000135835
0.000136005
0.000159822
0.000149747
0.000177362
0.000143639
0.000379115
0.00574902
0.100267
0.000155893
0.00014602
0.000146557
0.00017573
0.000138611
0.000145093
0.000172687
0.000146044
0.000143338
0.000149892
0.000167262
0.000134754
0.0814756
0.000176043
0.00016877
0.000154636
0.000168576
0.000153933
0.000302204
0.000143952
0.000143019
0.000145764
0.00014218
0.000145483
0.000141174
0.000230642
0.000212216
0.000147089
0.000150847
0.000144807
0.000168432
0.000152225
0.000193097
0.000150254
0.0145039
0.00014331
0.000148867
0.000149242
0.000199265
0.000145668
0.0207136
0.000145416
0.000146396
0.000130712
0.02614
0.000154169
0.00110689
0.0298419
0.000149097
0.000145591
0.000142322
0.000144321
0.000196436
0.000150306
0.000157691
0.00137818
0.000147114
0.000209524
0.000241303
0.000154923
0.000214525
0.000146176
0.000154654
0.000141988
0.000136841
0.000135873
0.000143768
0.00321922
0.0002051
0.000140195
0.0104521
0.00353578
0.000142813
0.000227348
0.000136559
0.000172357
0.000151617
0.000141453
0.000222794
0.000145897
0.000157065
0.00015633
0.000196615
0.000195487
0.000149542
0.000141485
0.000150916
0.0907909
0.00630451
0.000171574
0.00016
0.000145429
0.000144438
0.00616204
0.000147121
0.000165057
0.00018849
0.00633326
0.000145707
0.000170707
0.000145854
0.000148508
0.000171149
0.000166422
0.000169569
0.000150368
0.000149267
0.000159848
0.000510445
2.65356e-05
0.000137295
0.00015764
0.000199905
0.00015495
0.000177203
0.000147564
0.000148326
0.000143607
0.000166631
0.000247252
0.000205841
0.000145758
0.000226561
0.00016889
0.000161238
0.000146072
0.000143661
0.000143685
0.000139547
0.000196499
0.000176439
0.000151657
0.000150248
0.000144182
0.000145525
0.000268041
0.000144064
0.000144209
0.000148607
0.000227967
0.000236628
0.000145216
0.000145063
0.000145361
0.00318982
0.000149454
0.000240802
0.000145775
0.000192509
0.000145362
0.000146785
9.26448e-05
0.000148095
0.000168354
0.000148239
0.000144799
0.000136724
0.000151583
0.000219933
0.000147377
0.000149869
0.00472479
0.000146283
0.000150335
0.000150112
0.00014673
0.000145817
0.000149576
0.00236077
0.000139451
0.000140036
0.000140759
0.00416831
0.00015683
0.00676838
0.000146305
0.000147186
0.000232149
0.000839648
0.00629461
0.000159047
0.000168623
0.00656606
0.000146139
0.00457444
0.00014887
0.000214141
0.000141765
0.00170064
0.00813871
0.00013084
0.000155336
0.000188509
0.000150405
0.000137691
0.00218622
0.000140722
0.00654985
0.000148002
0.000144127
0.000148585
0.000137801
0.000148556
0.000227597
0.000144064
0.000141982
0.000142164
0.000146508
0.00014395
0.00768629
0.00266733
0.0129573
0.000146095
0.000142412
0.000155436
0.000145476
0.000143835
0.000205918
0.000175103
0.00015164
0.000143251
0.00693327
0.000152801
0.00744872
0.000795658
0.000152146
0.000136297
0.000142945
0.000182688
0.0108228
0.000147589
0.000142814
0.000388517
0.000225246
0.000178455
0.000228774
0.000143623
0.000165417
0.000163725
0.000134971
0.000148498
0.00397422
0.00525888
0.029742
0.000143101
0.000245206
0.000148346
0.000145878
0.000170069
0.000149507
0.000170708
0.000190431
0.000143027
0.000145245
0.000144244
0.000140576
0.000134241
0.000144633
0.000158866
0.00327799
0.000269684
0.000130715
0.000134471
0.000142847
0.000149019
0.000143992
0.000943589
0.000149748
0.000149971
0.000149588
0.00650122
0.000142925
0.000154303
0.00523181
0.000143264
0.00014342
0.0224909
0.000145451
0.000143718
0.000142544
0.000330407
0.000286491
0.00017757
0.000148611
0.0270488
0.000140995
0.000135729
0.000137432
0.00014326
0.000197841
0.000143048
0.000147702
0.000177701
0.000144256
0.00314509
0.000174623
0.000165738
0.00014846
0.007214
0.000165566
0.000145809
0.000141872
0.000150124
0.00014686
0.000143931
0.00357721
0.000140777
0.000103363
0.000142448
0.000148703
0.000282552
0.000142154
0.00176667
0.000196749
0.000143695
0.00714289
0.000142357
0.000148989
0.000142881
0.000148625
0.000139235
0.000144072
0.00014433
0.00014535
0.000226421
0.000146113
0.000140739
0.000148961
0.000139791
0.000142639
0.00014271
0.000144299
0.000138165
0.000143108
0.000143887
0.000143741
0.000143223
0.000149202
0.00457245
0.000145764
0.000149579
0.000205038
0.00346361
0.00014154
0.00019001
0.000141171
0.000152261
0.000143551
0.000146584
0.00141525
0.00354958
0.000141732
0.000151464
0.00555855
0.000146394
0.000668721
0.000628291
0.000134912
0.0134535
0.000145722
0.00939083
0.000156277
0.000713169
0.01804
0.00267401
0.000141173
0.000142114
0.000140715
0.000157461
0.000194662
0.00015086
0.00955305
0.00838647
0.000144033
0.0108895
0.000232611
0.000167179
0.000137086
0.000170955
0.000169457
0.000143997
0.000141927
0.000146495
0.000166809
0.000166111
0.000170163
0.000165154
0.000168226
0.000227163
0.000142887
0.000144698
0.000142272
0.00356189
0.00016978
0.000170967
0.000272707
0.000223232
0.000297958
0.00014232
0.000169825
0.000142908
0.000168849
0.000143602
0.000149949
0.000271726
0.000157546
0.000212895
0.000134768
0.00618284
0.00019059
0.000201697
0.00491553
0.000248429
0.000142342
0.000143552
0.000143513
0.00499249
0.000144306
0.000140217
0.000143645
0.000166132
0.000660635
0.00563832
0.000169406
0.000212353
0.000219753
0.000175515
0.00546795
0.000190356
0.000215314
0.000172811
0.00022472
0.00223832
0.00014172
0.000141803
0.000142678
0.00113638
0.000226718
0.000211953
0.000144674
0.000143134
0.000145284
0.000871554
0.000142446
0.000144936
0.000142082
0.000172712
0.000141224
0.000142349
0.000136456
0.000157643
0.000380304
0.000163515
0.0001645
0.000145891
0.000259253
0.000176644
0.000139659
0.000143266
0.000775622
0.000458136
0.000146357
0.000146528
0.000288603
0.000144557
0.000141677
0.000141555
0.000147085
0.000206934
0.000141186
0.00014662
0.00014209
0.000146974
0.00014408
0.000142565
0.000141361
0.000143659
0.000145553
0.00479927
0.000142702
0.000138853
0.000207695
0.000195923
0.00019317
0.000186136
0.000141433
0.00776198
0.000142946
0.000186147
0.000141922
0.000229785
0.000144173
0.000142711
0.000135505
0.000222371
0.00016937
0.000142715
0.000230976
0.000144422
0.000135701
0.000144822
0.000150564
0.000162525
0.000141646
0.000359688
0.000145283
0.000657824
0.000189943
0.000146229
0.000167063
0.000141048
0.000139802
0.000142465
8.09874e-05
0.000185809
0.000230485
0.00016466
0.000221547
0.000159512
0.000207897
0.000170569
0.00014404
0.00013345
0.000363292
0.000221845
0.000140979
0.000191669
0.000141412
0.000142034
0.000986563
0.000138986
0.000144115
0.00659668
0.000208509
0.000310015
0.000145338
0.000141848
0.000436552
0.000141264
0.000142856
0.000220294
0.000144938
0.000384015
0.000153037
0.00683558
0.000143644
0.000149808
0.000142084
0.000137035
0.000220451
0.000147101
0.000143971
0.000175466
0.000139074
0.00023807
0.000145481
0.000150276
0.000167201
0.000312416
0.000167507
0.000147282
0.000223605
0.00501532
0.000145249
0.000216664
0.000146862
0.000144093
0.000146317
0.000142129
0.000169168
0.000115416
0.000216958
0.000144568
0.000169552
0.000147891
0.000132585
0.000142491
0.000146085
0.000168839
0.000139684
0.000145961
0.000148718
0.000146905
0.00046695
0.000143663
0.000149762
0.000187545
0.000151144
0.00013561
0.00328468
0.00641135
0.00111706
0.000249976
0.000188202
0.00013962
0.000149396
0.00023301
0.0164505
0.000429087
0.00584096
0.00333021
0.000145546
0.00377067
0.000335858
0.000146061
0.000212465
0.000149173
0.00029786
0.000218954
0.000160748
0.00014903
0.000142747
0.000188762
0.000145553
0.000146922
0.00254608
0.0260167
0.000143919
0.000144399
0.000145286
0.00100576
0.000143777
0.000143065
0.00014275
0.000141255
0.000141765
0.000212038
0.000148962
0.000141196
0.000146816
0.000167441
0.000221757
0.000313578
0.000144338
0.000144184
0.000151538
0.000143924
0.000141527
0.000141795
0.000461686
0.000144423
0.000173003
0.000142099
0.000147819
0.000136183
0.000144571
0.00065701
0.000222657
0.000138264
0.000149554
0.00184776
0.00231147
0.000207827
0.000309975
0.000145291
0.000167547
0.00014222
0.000132539
0.000143481
0.000135956
0.000141998
0.000143013
0.000146595
0.000231035
0.000135005
0.000483748
0.000312201
0.000136972
0.000214552
0.000181972
0.000148702
0.000142169
0.000142373
0.00014558
0.000143509
0.00535107
0.000133827
0.000144587
0.000233951
0.000142285
0.000143505
0.000141052
0.000750369
0.000144022
0.000143841
0.000317707
0.000138953
0.000138547
0.00014344
0.0003921
0.000143105
0.000131521
0.000142143
0.000135687
0.000246112
0.0020714
0.000142117
0.00234584
0.000133147
0.000143699
0.000155887
0.00487373
0.0289958
0.000134397
0.000165171
0.000143707
0.000142705
0.000143801
0.000142001
0.00115197
0.00481733
0.00014495
0.000148782
0.000248977
0.000140786
0.000142823
0.000168356
0.000162518
0.000314452
0.000144935
0.000154091
0.00787555
0.000142493
0.000168657
0.00336905
0.00436685
0.000142424
0.000141446
0.000149095
0.000144632
0.000141294
0.00494541
0.000142565
0.00603573
0.000377543
0.000149038
0.000168544
0.00283223
0.000146392
0.000226953
0.00385358
0.000290091
0.000157664
0.00014253
0.000154647
0.00442407
0.000139718
0.000270587
0.00014138
0.000134732
0.000134454
0.000135287
0.000142428
0.0119164
0.000146537
0.000852824
0.00321218
0.000195518
0.000400363
0.000132838
0.000143762
0.000152436
0.000518928
0.000142353
0.00347794
0.000172089
0.000134478
0.000140973
0.0042828
0.000141126
0.000171377
0.00344802
0.000141926
0.00632904
0.000148423
0.000190946
0.000214415
0.000144022
0.000138634
0.000180521
0.000209135
0.000145471
0.000153035
0.000135079
0.000170754
0.000140455
0.00335653
0.000142258
0.000139887
0.000203352
0.000135393
0.00642009
0.000144201
0.000142153
0.000145319
0.000234266
0.000141895
0.000140728
0.0141397
0.00022511
0.00238693
0.000150184
0.000135634
0.000190678
0.00483048
0.000304201
0.000248736
0.000163778
0.000166663
0.000146268
0.000143305
0.000170718
0.000148164
0.000144696
0.000136796
0.000203148
0.000171085
0.000140988
0.000131213
0.000146035
0.000138481
0.00014679
0.000200958
0.000229331
0.0210575
0.000179942
0.000236453
0.00653529
0.00013927
0.000141081
0.000149545
0.000172677
0.000136915
0.000151452
0.000140724
0.000142462
0.000142397
0.000184174
0.000145066
0.000677276
0.00014296
0.000140708
0.000590598
0.00017788
0.00015135
0.000140924
0.000140299
0.000276067
0.00328608
0.000145804
0.000135754
0.000177287
0.000141105
0.000142898
0.000141848
0.000220118
0.000141063
0.000140201
0.000212698
0.000137866
0.000197003
0.000168723
0.000142255
0.000143841
0.00447739
0.000158964
0.00482676
0.0277678
0.000167214
0.000153904
0.000147914
0.00014273
0.000152215
0.000140241
0.000307369
0.000250674
0.000150823
0.000204313
0.00103097
0.00014055
0.000609738
0.000174959
0.0316834
0.00018492
0.000139681
0.000139915
0.000148295
0.000141945
0.000239864
0.00674581
0.000235561
0.000145061
0.000141329
0.000140223
0.000224505
0.000174077
0.000857678
0.000140466
0.00014758
0.000235724
0.000143181
0.000527265
0.000224715
0.000140584
0.000145885
0.00013231
0.000146597
0.00396248
0.000890883
0.000140309
0.000142773
0.00013952
0.00352687
0.000142177
0.00015508
0.000230564
0.000207498
0.000380523
0.000217179
0.000249167
0.000142789
0.000162458
0.0001466
0.000143423
0.000152987
0.000929489
0.000137677
0.00014421
0.000174802
0.000145764
0.000141678
0.00526969
0.000138137
0.000144114
0.000115492
0.00373753
0.000134878
0.00013554
0.000181131
0.00371684
0.000175062
0.000743613
0.000166289
0.000296908
0.000140869
0.000254316
0.000208919
0.000539659
0.00984602
0.000219242
0.000235211
0.0014581
0.00204145
0.000138695
0.00014104
0.000137065
0.000144361
0.00143532
0.000139477
0.000185333
0.000141808
0.000152636
0.000146618
0.00599713
0.000143191
0.00175734
0.000169286
0.0001833
0.000253612
0.000251035
0.000996461
0.000131965
0.000176939
0.000143844
0.00124439
0.000147511
0.000200929
0.0070166
0.000213198
0.00687185
0.000139703
0.000608312
0.000168121
0.000204722
0.000144598
0.00319605
0.000148429
0.000140483
0.000142547
0.00250553
0.00014558
0.000216976
0.00403457
0.000173716
0.0110175
0.000139818
0.000134593
0.00766879
0.000190571
0.00475851
0.00109569
0.00014072
0.00282215
0.00749711
0.000183589
0.000139167
0.000994737
0.00381378
0.000139542
0.000182672
0.000132503
0.000305075
0.00653755
0.00376489
0.000893514
0.000139726
0.000138883
0.000148048
0.00013533
0.000181989
0.000169523
0.000149948
0.000137207
0.00211707
0.000156595
0.000147355
0.000162032
0.00461218
0.00224387
0.000161864
0.000196633
0.000208486
0.000425723
0.000139751
0.00753412
0.000143048
0.000172063
0.0282606
0.000150725
0.00900517
0.000136958
0.000136038
0.000140022
0.000139987
0.000139297
0.000140433
0.000132301
0.000255601
0.000168074
0.000141757
0.00555905
0.000140722
0.000148635
0.000138816
0.00183326
0.000146686
0.000151533
0.00320064
0.00281894
0.000140303
0.000132425
0.000315526
0.000144494
0.000577769
0.0208898
0.00014841
0.000147817
0.000186774
0.00447137
0.00753461
0.00013664
0.000138687
0.000157598
0.000189905
0.000153585
0.00720547
0.00276891
0.000175779
0.000148126
0.000180503
0.000149526
0.000485932
0.00213808
0.000138344
0.0025853
0.000601391
0.000142925
0.000140831
0.000140995
0.00014065
0.000138647
0.000141954
0.000139255
0.00015654
0.00418514
0.000163477
0.000149769
0.000153945
0.000157177
0.000138767
0.000139022
0.000225775
0.000152858
0.000188193
0.000138412
0.00015082
0.000138182
0.000134219
0.00907454
0.000143587
0.000141341
0.00740172
0.00107469
0.00886396
0.000140572
0.000460951
0.000145668
0.0159557
0.00424618
0.000154839
0.000751785
0.000138911
0.000136036
0.000348389
0.000139824
0.000185746
0.00303058
0.00830522
0.000169056
0.000335099
0.000146792