/*--------------------------------*- C++ -*----------------------------------*\
| =========                 |                                                 |
| \\      /  F ield         | OpenFOAM: The Open Source CFD Toolbox           |
|  \\    /   O peration     | Version:  v2012                                 |
|   \\  /    A nd           | Website:  www.openfoam.com                      |
|    \\/     M anipulation  |                                                 |
\*---------------------------------------------------------------------------*/
FoamFile
{
    version     2.0;
    format      ascii;
    class       volVectorField;
    location    "450";
    object      ddtCorrDdt0(U);
}
// * * * * * * * * * * * * * * * * * * * * * * * * * * * * * * * * * * * * * //

dimensions      [0 1 -2 0 0 0 0];


internalField   nonuniform List<vector> 
18758
(
(0.00612381 -0.00301773 -8.57485e-19)
(0.0351817 -0.0196587 -1.51591e-20)
(-3.74008e-06 1.07511e-06 6.67087e-19)
(0.00576536 -0.00405196 7.946e-19)
(-0.00754712 0.00224075 -1.24236e-18)
(-8.5627e-06 -2.41896e-06 5.04101e-21)
(0.000152597 -0.000100296 -1.76482e-19)
(-0.00102024 -0.000674253 9.64696e-19)
(-0.00678121 0.00136277 8.30296e-20)
(-0.00637733 -0.000328533 -9.03952e-19)
(0.0220415 -0.0241645 -1.9592e-19)
(-0.0197458 -0.22719 1.13366e-18)
(-0.046582 -0.0203007 4.60983e-19)
(0.000731733 -0.000585842 9.46448e-19)
(0.00014901 -7.78519e-05 -2.21421e-20)
(0.000111982 1.9118e-05 -7.38451e-20)
(-0.0331972 -0.20636 7.24705e-19)
(-3.37682e-05 -9.35893e-05 2.04359e-20)
(0.000142785 -7.16873e-05 4.36916e-19)
(0.00103915 0.00307666 2.29425e-20)
(0.0771079 -0.0421835 8.01159e-21)
(0.0735515 0.0819916 -3.53189e-17)
(-8.9237e-06 -5.80614e-07 1.33631e-20)
(-3.61697e-05 5.1419e-06 -1.86007e-20)
(0.0577279 0.0914624 2.86826e-17)
(0.11018 -0.00742319 6.04573e-18)
(-0.0264922 0.0317627 2.91664e-17)
(-0.0101622 -0.0667054 -6.19147e-18)
(0.0339624 -0.0115296 1.01572e-18)
(0.0504712 -0.0177262 3.14414e-20)
(0.0532677 -0.0104813 2.08091e-17)
(-0.0388427 0.0557804 -2.32103e-17)
(-0.000910775 -0.000578867 2.85319e-20)
(-0.0354827 0.13351 3.07579e-19)
(-0.00743967 0.0044929 -2.37191e-20)
(0.0499484 -0.0244525 7.04591e-20)
(-0.0433223 -0.0279623 1.66538e-18)
(-0.00679009 0.00362821 1.42355e-19)
(0.0581523 0.0304765 -7.16815e-18)
(0.000330785 0.000113709 -4.41166e-20)
(0.00910637 -0.154529 -1.16113e-19)
(-0.00709543 -0.0030793 1.83156e-18)
(-0.0266557 -0.111041 1.40929e-19)
(-0.00134873 -0.000280246 5.07475e-19)
(0.000143215 2.01e-06 -7.06723e-21)
(-0.0435319 0.107006 2.209e-17)
(-0.00597131 -0.00295309 -1.46117e-18)
(0.0315754 -0.0178265 9.47484e-19)
(-0.110837 0.204569 2.14976e-17)
(0.003166 -0.00529912 6.12553e-20)
(0.0256288 -0.0277858 5.05826e-19)
(0.0620942 -0.0127242 3.78951e-18)
(0.00245845 -0.00592705 -6.1745e-19)
(0.00315819 -0.00261417 5.13517e-20)
(0.046477 0.0394567 3.25055e-18)
(-0.0452998 -0.0149305 1.35532e-18)
(-0.000179088 0.000382343 1.87697e-19)
(0.00119063 0.00271627 -1.14544e-19)
(0.027109 -0.0188779 1.776e-18)
(-8.21281e-05 0.000339502 -2.78346e-19)
(0.000135797 1.89886e-06 3.62975e-21)
(-0.00130458 -5.04557e-05 3.04532e-19)
(-0.0320486 -0.0654689 -8.70314e-18)
(0.0853806 -0.258718 5.94827e-19)
(0.000133192 3.48744e-06 -4.97099e-20)
(-0.154918 0.169084 -1.77192e-17)
(7.77371e-05 -6.93145e-06 -1.0546e-18)
(2.17402e-05 -0.000119795 -2.64678e-19)
(-0.0154246 -0.0665477 5.54969e-18)
(-2.29965e-05 -0.000104811 -4.36067e-21)
(0.0471399 -9.3352e-06 4.33528e-18)
(0.126624 -0.0187282 -7.44306e-18)
(0.000175052 7.40266e-05 -1.08624e-19)
(-0.00319033 0.00581821 1.02363e-18)
(-0.0270648 0.0495967 -1.34456e-18)
(0.0507471 -0.0388033 -2.16369e-17)
(0.0532929 0.127625 -1.08755e-17)
(-0.0571148 -0.140675 4.06843e-18)
(-0.00726833 0.000201594 3.60068e-19)
(-0.0383062 -0.0999168 5.26515e-20)
(0.0342808 0.0139528 -5.03767e-18)
(0.0352499 0.0159299 2.08262e-17)
(-0.0571504 -0.152936 -2.77362e-18)
(-0.0180476 0.022084 -7.55051e-21)
(-0.00158952 -0.00175913 1.51494e-19)
(0.0378931 0.0328169 3.32936e-17)
(0.00288074 0.000712569 7.75481e-19)
(-0.00335003 0.00666506 4.70728e-19)
(-0.0172082 -0.0673104 4.05849e-20)
(0.0350193 0.0332832 -2.54185e-17)
(-0.0133206 0.138453 1.64272e-18)
(0.000114279 -8.31177e-07 1.1425e-20)
(0.0225075 0.0113387 -7.35137e-19)
(-0.115973 0.202268 -4.13554e-17)
(0.000162995 7.21917e-05 5.3591e-20)
(8.44008e-05 1.13207e-05 -2.9465e-19)
(7.30238e-05 -9.82882e-05 2.45168e-20)
(0.0203915 -0.00704968 4.35836e-18)
(-0.0382643 -0.140501 1.87132e-18)
(9.55308e-05 -0.000142278 -4.05747e-19)
(-0.0117785 0.0243965 1.05754e-17)
(0.00509412 0.00871319 1.68318e-18)
(1.69486e-05 -0.000117539 1.40657e-19)
(8.79843e-05 7.56361e-06 -1.73311e-19)
(-0.153506 0.174882 5.19894e-19)
(0.0800757 -0.0278447 9.54804e-19)
(0.033138 -0.0159968 -4.50615e-18)
(-0.0222903 0.131238 2.10829e-18)
(0.159956 -0.160295 1.38356e-18)
(0.0758932 -0.0393013 -1.28929e-19)
(0.00011018 -8.28608e-06 -1.78209e-19)
(0.0640401 -0.289433 2.32916e-18)
(0.000360356 -0.00697107 -5.1297e-19)
(4.40394e-05 4.305e-06 -6.12409e-20)
(0.00595114 0.00843243 -2.04779e-18)
(0.0178352 -0.125062 3.15043e-18)
(0.0193194 -0.00814289 -3.7233e-18)
(0.000212104 1.9432e-05 -8.30379e-20)
(0.0434592 -0.131735 -6.20947e-19)
(-0.000804074 -0.00298536 -3.90789e-19)
(2.09978e-05 2.73893e-06 -8.44716e-20)
(0.0480878 0.0864012 -7.68179e-19)
(-0.00125153 -0.00206537 -2.14552e-19)
(3.57544e-05 -0.000116355 -5.73231e-19)
(0.0593336 0.100018 1.45184e-18)
(0.00343235 -0.00223459 -2.33021e-19)
(-0.000717155 -0.00023907 -1.92379e-19)
(2.895e-05 -0.000115034 1.00744e-18)
(0.0588851 -0.0160879 3.65584e-19)
(0.112477 0.00399808 3.53378e-17)
(0.028789 -0.0172001 1.83247e-18)
(6.15422e-05 -8.49928e-06 -1.34097e-19)
(-0.00357382 -0.00563952 -4.90249e-19)
(-0.100177 0.201778 -2.0828e-17)
(0.000439666 8.03239e-05 -3.26344e-21)
(2.82549e-05 -1.6851e-05 -1.42981e-18)
(-0.0901198 0.514186 -1.31151e-17)
(-0.000390642 -0.00205847 -2.34218e-19)
(0.0325311 -0.0663632 1.51601e-18)
(0.034328 0.0115992 8.81884e-18)
(-0.00057121 -0.00825332 8.67106e-19)
(0.0381582 -0.127703 -3.48599e-19)
(0.0149999 -0.00209496 7.98644e-19)
(0.106122 -0.120956 -3.14646e-19)
(0.0824063 0.0824714 -5.10571e-19)
(0.0145439 0.00713651 -2.78311e-18)
(-0.150444 0.181371 2.80475e-17)
(0.0526526 -0.0123086 -6.79627e-18)
(0.0262044 -0.0222658 -5.26936e-19)
(0.0942659 -0.101748 -8.01577e-20)
(0.132567 0.0145667 -2.27621e-17)
(0.000441044 0.0287123 3.52801e-17)
(0.000250339 0.000210495 1.48146e-18)
(-0.00582231 0.00639872 -1.3309e-19)
(0.00190122 -0.166618 -2.88065e-18)
(0.0863733 0.0818644 6.66094e-19)
(0.022892 0.0101684 -2.90725e-18)
(0.0618822 -0.01565 -7.40156e-18)
(-0.0100571 0.029567 3.68857e-18)
(0.0315025 -0.0242444 6.07783e-20)
(0.190571 0.028785 6.99059e-19)
(1.60476e-05 -4.0441e-05 5.07948e-21)
(-0.113569 0.091419 1.11484e-17)
(-0.147312 0.185703 -3.13175e-17)
(-0.174147 0.272509 -2.23278e-19)
(0.000510761 0.000305563 -1.03844e-19)
(3.23559e-05 -5.52019e-05 1.04272e-19)
(0.240424 -0.0230597 2.1233e-18)
(0.124067 0.00952278 -3.74421e-17)
(-0.00219093 -0.247552 -7.90192e-19)
(-0.0519093 0.0384243 1.69261e-17)
(6.4689e-06 1.38282e-07 -2.47197e-19)
(0.0377095 -0.014468 2.7584e-18)
(-0.000958816 -0.03563 6.23464e-21)
(0.127428 -0.120708 -2.75648e-18)
(7.64627e-05 -0.000105972 5.43242e-21)
(0.000160078 6.78921e-05 1.9919e-20)
(0.0992371 0.00558175 -4.04703e-18)
(0.0308222 0.102968 -1.48475e-17)
(0.000652339 0.000243808 2.37283e-19)
(-2.50653e-05 -7.22412e-05 -7.7082e-20)
(0.00404983 -0.000808251 3.44319e-19)
(0.0462796 0.0358438 4.78128e-18)
(0.00108632 0.000242455 2.1392e-18)
(0.116832 -0.0908663 -6.27817e-19)
(0.000176028 4.5914e-05 -1.32171e-18)
(0.0540773 -0.0131087 4.07464e-20)
(0.0138616 -0.00339821 -1.6609e-18)
(-0.140236 0.220286 -4.20475e-17)
(-0.22533 0.289842 2.18779e-18)
(-0.0112208 0.0213952 -4.12676e-17)
(0.00017635 2.81153e-05 1.1259e-18)
(-0.00940123 -0.0409223 3.81012e-18)
(0.0428335 0.241313 2.43895e-18)
(-4.23067e-05 5.60331e-05 5.74679e-19)
(0.00100118 0.000158223 -4.38706e-18)
(0.0357062 -0.0752565 -1.44411e-18)
(0.000244145 0.000209819 -2.88503e-19)
(-0.161356 0.243018 4.79483e-17)
(-3.16688e-06 -9.48416e-06 3.06724e-19)
(-0.00080828 -0.00208559 1.31805e-19)
(0.0665773 -0.0173281 7.22632e-18)
(0.00429068 0.145136 -1.70007e-19)
(0.00010877 1.30612e-05 -7.16412e-20)
(0.000109875 -1.24383e-05 4.35986e-19)
(-0.128558 0.115813 -1.70638e-17)
(-4.26634e-05 -2.82393e-05 -1.24617e-18)
(-0.00714439 0.00596013 -4.17599e-19)
(0.124693 0.00929856 1.2124e-17)
(0.0651793 -0.00332831 4.14024e-18)
(6.19114e-06 -6.69735e-08 -2.6257e-19)
(0.0255626 0.00828565 1.05033e-18)
(-0.000675707 -0.00260403 -6.05087e-19)
(0.00130317 -0.00122317 -6.02179e-19)
(0.0011798 0.00197399 -9.4069e-20)
(8.38879e-05 -7.63692e-05 1.82452e-20)
(0.000106322 -9.92664e-06 -7.23595e-20)
(0.0241742 0.00839776 -2.6042e-18)
(-6.32541e-06 -2.31792e-06 -6.16589e-20)
(0.040292 -0.0871045 8.46779e-19)
(0.137845 0.0939209 -5.7719e-18)
(0.000571147 -0.000357498 -5.69704e-19)
(0.0145119 -0.002915 -4.0979e-18)
(0.0672393 -0.0208422 -1.28094e-17)
(-0.0448668 0.169994 2.73093e-19)
(0.0131481 0.102474 1.38138e-18)
(-0.0232173 0.0583057 6.11374e-19)
(0.026183 0.0378005 7.63364e-18)
(0.211444 0.0228619 -6.13513e-20)
(-2.22915e-05 -4.7453e-05 -4.79544e-19)
(0.109649 -0.0126011 5.63756e-18)
(0.0147137 0.00611185 -6.04811e-18)
(0.115311 -0.074461 2.90604e-18)
(3.43215e-05 -1.30319e-05 1.06986e-18)
(0.000128963 -4.41804e-05 2.92028e-20)
(0.000727019 -0.000364446 1.6166e-19)
(-0.0640305 0.0197882 5.37061e-18)
(-0.0836383 0.182967 -2.78619e-17)
(0.0396461 -0.0843623 3.30033e-18)
(-0.000202101 -0.000160473 -8.49607e-20)
(0.000114149 -2.4195e-05 -4.72284e-19)
(-0.0565007 0.0205334 -2.10028e-18)
(0.0284084 -0.057851 -1.0986e-18)
(-3.16785e-06 -6.36708e-06 4.61437e-19)
(0.0833591 -0.113447 -5.95209e-19)
(0.0727377 -0.0573713 -5.09578e-19)
(0.000137911 -2.56205e-05 1.41386e-19)
(3.09001e-05 -8.64208e-05 4.85014e-19)
(0.00108697 0.00100644 -1.59669e-19)
(8.67899e-05 -0.00015685 3.47019e-19)
(-0.0549577 0.0511456 -2.62118e-17)
(-0.000674566 -0.000646527 -2.50082e-19)
(0.0391954 0.00729579 2.48903e-19)
(0.000800649 -0.000532799 1.18638e-19)
(-1.62202e-05 -3.77365e-06 3.39347e-20)
(0.0559077 -0.0876035 2.44682e-18)
(0.000272867 0.000361733 2.32166e-19)
(0.13758 -0.0260159 -7.96017e-18)
(0.000119291 -1.41464e-05 -1.06088e-19)
(-0.00286824 -0.481304 1.82731e-17)
(0.00150779 -0.00693076 5.26777e-19)
(3.87682e-05 -0.000103735 -7.65221e-19)
(0.000141213 -2.47296e-05 -1.78617e-19)
(-0.0108794 -0.0382621 2.22139e-19)
(-0.0681764 -0.0190749 1.5172e-18)
(-0.0347347 -0.00114637 -3.62284e-19)
(3.29224e-05 -9.87292e-05 5.53807e-19)
(0.0334404 -0.06143 -2.23789e-18)
(0.000265315 0.000208917 -1.18295e-18)
(-0.000181019 -0.000291141 7.89478e-20)
(0.107175 -0.0896535 8.03407e-18)
(0.0662927 0.0450137 -1.97922e-17)
(-0.000128035 -0.00027975 -9.82678e-20)
(4.55087e-05 -6.57227e-05 -5.4013e-19)
(0.00072759 0.00268943 -2.46048e-20)
(0.00115638 0.00169054 -1.32934e-19)
(0.000191408 -0.00442413 -3.59734e-19)
(-6.34143e-06 -5.31009e-06 5.57217e-20)
(0.00163544 -0.00142223 -4.42945e-19)
(0.000686599 -0.000658258 -3.19231e-18)
(3.54025e-05 -8.72485e-05 -1.90925e-19)
(5.83647e-05 -9.98359e-06 6.4099e-19)
(0.000129048 -4.4772e-05 9.72374e-20)
(-0.137158 0.194243 2.85682e-18)
(0.00015088 -9.14996e-05 -2.31813e-19)
(4.78642e-05 -8.16851e-05 1.5066e-19)
(-3.04476e-05 -6.70081e-05 -7.91384e-21)
(0.0297112 -0.0537008 1.10563e-18)
(8.12488e-05 -1.55612e-05 7.50261e-19)
(8.42673e-05 -7.79179e-06 -9.42514e-20)
(3.98928e-06 -3.06716e-06 -1.85073e-19)
(0.000679814 9.43344e-05 -1.14995e-18)
(-0.000221405 0.000324361 -3.29853e-19)
(-2.63023e-05 -3.97057e-06 5.63463e-20)
(-1.72475e-05 1.68187e-06 -1.11833e-19)
(0.0018536 0.0018826 -4.41582e-20)
(0.0074008 0.117243 -1.78537e-19)
(0.000110179 -6.10414e-06 1.5443e-20)
(-3.51942e-05 2.28763e-06 1.67941e-19)
(0.0887028 0.118819 -5.43201e-18)
(0.00210853 -0.000638656 2.42234e-18)
(-6.10386e-06 5.99224e-06 1.76305e-20)
(-9.58322e-06 4.03036e-06 1.08776e-19)
(0.0160911 0.0311327 -5.23741e-18)
(-0.00627547 -0.028641 2.24633e-20)
(-2.94999e-05 -6.15995e-05 -3.60212e-19)
(0.0111138 -0.00654917 -1.54848e-19)
(0.084104 -0.0121832 3.89127e-19)
(-0.00152239 0.000144915 6.64734e-20)
(-0.0472509 -0.00713718 7.04475e-19)
(0.000128391 -5.70621e-05 1.61162e-19)
(-0.0217907 0.034823 -2.45637e-19)
(0.0367937 -0.0696699 4.91717e-18)
(0.0188681 -0.0422496 -6.89762e-19)
(0.0333763 -0.00934787 -1.34092e-18)
(-0.0492536 0.136969 6.97401e-18)
(-2.15143e-06 -9.94878e-05 1.7508e-19)
(-0.00353372 -0.00428877 -8.375e-18)
(0.0732098 -0.0254332 -6.52876e-18)
(8.45755e-05 -2.58063e-06 -6.97427e-19)
(0.0162895 -0.040641 2.38917e-19)
(-0.012292 0.0259775 -1.46783e-18)
(0.0862707 -0.109848 -2.94709e-18)
(0.00010981 -0.000102354 3.41717e-19)
(4.23909e-06 -0.000107893 3.15543e-19)
(0.0857733 -0.00154354 3.09852e-17)
(-0.00612776 0.0242664 1.32809e-19)
(3.68899e-05 -0.000146668 -2.45987e-19)
(0.010579 0.124843 2.05682e-17)
(-0.0470065 0.0147297 4.50592e-19)
(-0.00624377 -0.0083083 -4.89931e-19)
(-0.0976602 0.199983 9.28774e-19)
(0.000105043 -0.000100277 1.33099e-19)
(0.000420814 0.000423904 -1.35541e-19)
(0.000121026 -2.07078e-05 1.37555e-19)
(4.75931e-05 2.07745e-06 -2.99756e-19)
(0.00114344 -2.40468e-05 4.70957e-21)
(-0.00263208 -0.00268765 4.78465e-19)
(-0.000983018 -0.00080003 -1.41677e-18)
(-0.000119301 -1.17621e-05 1.73344e-18)
(0.0010391 3.76699e-05 1.65658e-20)
(-0.00018253 -0.00022354 -5.42079e-19)
(0.0230359 -0.0750232 -1.38511e-17)
(0.0297844 0.023445 -5.99508e-18)
(-4.83739e-05 -0.0018466 -2.55855e-19)
(-0.00214715 0.0121156 8.86536e-18)
(-0.0419182 -0.0999584 1.86304e-18)
(3.55222e-05 -0.000144538 9.55363e-19)
(0.00816317 -0.00119369 -7.41867e-19)
(-0.012805 -0.0352519 1.17341e-18)
(0.0413228 0.0928155 7.31342e-18)
(0.0227876 -0.140637 -2.94402e-19)
(0.0131516 -0.0903188 -7.03791e-18)
(0.000178346 6.26614e-05 -1.81455e-19)
(-0.0255686 0.108612 -1.20497e-17)
(-0.0113403 -0.434843 3.37834e-18)
(0.01163 -0.011124 3.72296e-18)
(-0.000140669 -0.000213876 1.03368e-18)
(-0.00722863 -0.00684135 -1.74443e-19)
(0.00181551 -0.0008471 -1.0292e-18)
(-0.0010858 -0.00035897 -2.85218e-19)
(0.0402188 -0.0785077 1.5328e-18)
(0.0617844 0.198253 -4.61594e-18)
(0.00267569 -0.140739 5.07191e-19)
(-0.0209002 0.0765706 -1.18532e-18)
(-0.02999 0.340611 8.77387e-18)
(0.000131934 -4.30133e-05 -1.53658e-19)
(0.00336309 -0.00101815 1.46431e-18)
(0.00456398 -0.000658688 -1.23668e-19)
(0.020007 -0.0100132 3.00894e-18)
(-0.0883522 0.178563 3.31521e-17)
(0.0184076 -0.117194 -2.83988e-18)
(0.09215 -0.0469596 -1.13586e-18)
(-0.0926424 -0.0593264 -4.02065e-18)
(0.018961 -0.135189 1.76411e-18)
(0.0113199 -0.0971278 4.20118e-18)
(-1.70087e-05 -2.89248e-06 -1.02023e-21)
(-0.154304 0.161353 5.79255e-18)
(0.0561293 -0.0118737 1.05026e-18)
(0.0111705 -0.0273381 7.22056e-19)
(-0.0117411 -0.14645 -2.16681e-19)
(8.3722e-05 -8.25192e-06 6.29547e-19)
(-3.38063e-05 6.37998e-06 8.66463e-20)
(0.063519 0.0848559 9.69398e-18)
(0.00761283 -0.155472 -2.16335e-18)
(-0.0614971 0.148306 6.09858e-19)
(0.151446 -0.065279 -6.18843e-18)
(0.0333884 0.105513 -1.79511e-17)
(-0.00021431 -0.00019901 -8.78506e-20)
(-0.0142098 -0.246089 -1.63709e-18)
(0.075296 -0.0438885 -3.54147e-19)
(0.000111686 1.02526e-05 3.3221e-20)
(0.0004245 -0.000674188 6.70658e-20)
(0.00187955 0.00143619 -3.79355e-20)
(-0.00205138 0.00188943 -5.11026e-19)
(2.47812e-05 3.86777e-06 7.34023e-19)
(0.00206451 -0.000661094 -3.22856e-19)
(0.000170628 0.000147861 8.33807e-21)
(7.27953e-05 -5.24476e-06 -8.69236e-19)
(3.55419e-06 -5.96188e-06 -3.32892e-19)
(0.00170372 0.000335674 -1.60725e-19)
(-0.0110191 -0.00329357 8.5282e-19)
(-0.00663142 -0.153231 9.75176e-18)
(0.0049593 0.000575078 -9.18207e-19)
(0.0921326 0.141457 -3.05358e-18)
(0.0731061 0.149422 -1.68784e-17)
(0.150571 0.0565948 6.21809e-18)
(-0.0277225 -0.199358 4.11526e-18)
(0.0512095 -0.0220572 -8.45125e-18)
(0.00173253 0.00143155 5.35102e-20)
(-2.76112e-05 6.90083e-06 -1.15287e-19)
(-0.0208453 -0.121929 -1.62831e-19)
(0.000348121 -0.000722714 1.41608e-18)
(-0.000248938 -9.05252e-05 -5.73217e-19)
(-0.111235 0.252895 6.59596e-18)
(0.0188607 -0.0110203 -4.92089e-19)
(0.0326479 -0.0528634 4.35358e-19)
(0.000181742 0.00044491 2.17752e-19)
(0.0342428 -0.0268444 1.19931e-17)
(0.000148346 7.65573e-07 -8.52449e-20)
(0.00219009 -0.000760357 -6.08763e-18)
(-4.47623e-05 -2.46368e-06 -1.44646e-20)
(-0.194776 0.262532 -6.98923e-19)
(-0.0395906 0.0361266 3.05871e-19)
(0.0246725 -0.150975 -3.12066e-18)
(-1.82411e-05 8.45962e-07 6.35218e-19)
(-0.104582 0.203829 5.49413e-17)
(0.0199191 0.0124542 -1.2944e-18)
(0.000130942 -1.71209e-05 1.49726e-19)
(-0.0015336 0.00209161 -6.44234e-19)
(3.40834e-06 -2.54004e-06 -8.9141e-20)
(0.0932584 -0.0356586 1.79184e-18)
(1.04666e-06 2.51554e-06 1.56462e-19)
(-2.59912e-05 -6.32039e-06 1.29795e-18)
(-0.14853 0.19304 2.88947e-19)
(0.00506612 0.000878872 -9.92657e-20)
(-0.000262415 -0.000130522 1.05895e-18)
(0.000153363 6.83908e-05 -5.33094e-20)
(-0.0011035 -0.000271537 7.89167e-19)
(-0.00289245 -0.00118139 -1.46676e-20)
(-0.0429677 -0.403328 -3.04824e-18)
(0.041367 -0.0400853 -1.05694e-18)
(-9.3655e-06 2.66508e-07 -7.60421e-20)
(-0.15897 0.163284 2.01744e-17)
(-4.57076e-05 1.17189e-05 -1.18489e-19)
(-0.00285243 -0.0031162 -3.53566e-19)
(0.0243049 0.0361642 -3.92433e-17)
(0.00010168 8.14306e-05 -6.00802e-20)
(0.0144295 0.0758607 -3.27707e-18)
(-9.19598e-06 2.4429e-07 3.4636e-20)
(-0.00328429 -0.00112273 -3.62577e-20)
(2.09017e-06 1.10601e-06 -3.53446e-20)
(0.0137934 -0.109902 9.55038e-19)
(0.00276586 0.0026367 -2.375e-19)
(0.000172938 0.000143785 4.64015e-19)
(-0.0570213 0.164041 -2.06581e-17)
(-7.02418e-05 -0.0293707 6.92806e-19)
(-2.94209e-05 -7.60016e-05 -3.24967e-20)
(0.00321195 -0.00114015 -1.26535e-18)
(-0.000457577 0.00346957 1.52867e-18)
(0.000109141 1.1538e-05 5.49859e-20)
(1.83238e-05 6.86929e-06 2.83309e-19)
(0.000125622 -1.1148e-05 1.64593e-19)
(-0.0731345 -0.0716966 -2.86036e-18)
(-0.0125032 0.209954 -1.12712e-17)
(0.000262453 9.25375e-05 -6.4387e-19)
(0.0061171 -0.00926776 -9.34253e-20)
(-0.0254468 0.404228 1.14184e-17)
(0.0961129 0.00335288 -6.34759e-18)
(0.00590898 0.0885181 -1.08849e-18)
(0.0693508 -0.0603879 5.4991e-21)
(0.00394996 0.0662037 -2.87225e-18)
(0.000204918 -9.45412e-05 6.24875e-20)
(0.0473144 -0.0214927 4.74461e-18)
(-0.0523993 0.0136811 2.01868e-18)
(-0.00974065 0.00417945 8.4748e-19)
(-0.000945627 -0.000463607 3.40704e-19)
(0.0385845 -0.0897718 -2.09471e-18)
(-0.0137641 -0.0203272 1.76222e-19)
(-0.00195639 -0.00769001 -3.86033e-19)
(-5.44102e-07 1.21635e-05 -8.61712e-19)
(0.000151006 -0.000103272 6.80523e-20)
(8.13395e-05 -3.79198e-05 -4.29867e-19)
(0.000103036 7.3844e-05 -1.02642e-18)
(8.19214e-05 -4.55506e-05 8.11441e-19)
(8.38195e-05 4.30751e-05 -1.39001e-18)
(-0.0610796 0.0167082 -5.79378e-20)
(3.44736e-05 -5.30664e-06 -6.62871e-19)
(-4.38075e-05 3.96657e-05 3.28659e-19)
(0.0175997 0.0137325 7.53816e-18)
(6.57729e-05 -1.1245e-05 7.47417e-19)
(9.48883e-06 1.52739e-06 -2.03318e-19)
(0.000187296 0.000239803 -1.17337e-19)
(-0.000318934 0.00307788 -3.24965e-19)
(-0.0160956 -0.0168415 2.79935e-19)
(0.0815726 -0.0459074 -4.25097e-19)
(-8.58669e-05 -3.44666e-05 2.09533e-19)
(0.0216515 -0.0287818 -6.70062e-19)
(-2.73499e-05 -6.31713e-06 -4.03514e-20)
(0.00518716 -3.1215e-06 5.57801e-19)
(0.0575523 0.013818 4.92187e-18)
(-0.0267673 0.240701 4.3802e-18)
(-0.0849439 -0.0710999 5.68822e-18)
(0.000108225 -1.20507e-05 -6.95391e-21)
(0.000177708 6.94722e-05 1.11088e-18)
(-0.0212076 0.222382 4.09889e-18)
(-0.101394 0.204455 -2.68601e-17)
(-0.0112751 -0.00895223 1.09832e-19)
(-2.13709e-05 0.000422213 -1.95791e-19)
(0.0442923 -0.0562427 5.44332e-19)
(-0.141803 0.191242 5.26099e-17)
(-3.31302e-05 -7.03058e-05 1.10334e-20)
(-3.11719e-05 -8.93881e-06 3.25061e-20)
(0.284022 0.0248006 2.16288e-18)
(0.000878843 0.0020933 -3.80683e-19)
(0.0366548 0.0103958 -7.67075e-18)
(-0.0126356 -0.0067547 3.27115e-19)
(-0.00148626 0.00273013 2.66807e-19)
(0.00561047 -0.00975309 -2.98851e-18)
(3.26634e-05 -9.32843e-05 -6.28821e-20)
(8.17914e-05 -8.63697e-05 5.92572e-19)
(0.000107134 1.15131e-06 4.83524e-20)
(-1.87767e-05 3.71739e-06 -4.06404e-20)
(1.51169e-05 -4.70656e-05 1.04081e-18)
(0.000137698 4.07847e-06 5.48948e-20)
(-0.0134262 0.00727518 1.79643e-17)
(-1.77262e-05 -7.2533e-05 4.2665e-19)
(0.0228369 -0.0558915 1.03153e-20)
(-0.00286806 0.300722 -1.13648e-17)
(-3.16147e-05 -7.95781e-05 3.14444e-20)
(-1.89676e-05 -7.55593e-05 -4.89078e-19)
(3.68721e-05 -2.47039e-06 8.0482e-19)
(0.0024396 -0.00279445 2.61932e-19)
(0.00892356 0.00268102 -2.06806e-18)
(0.0463841 -0.0401339 1.95038e-18)
(0.000107166 -0.000123052 -2.36803e-20)
(-0.232939 0.264598 -4.00183e-18)
(-0.0079096 -0.00409777 1.66588e-19)
(-0.00903665 0.00470845 -5.47061e-19)
(-0.000244505 4.58254e-05 -2.08959e-19)
(0.00143358 0.000148436 3.87989e-20)
(0.00118563 0.00134667 1.15052e-19)
(0.000231223 2.42642e-05 -6.54284e-19)
(0.000240782 4.65012e-05 1.3827e-19)
(0.0255261 0.202384 2.17545e-19)
(0.0998626 -0.110391 -4.29535e-19)
(3.16719e-05 -8.06437e-05 -3.35723e-19)
(2.2159e-05 -6.82416e-05 1.06357e-19)
(0.000626955 0.000115143 -1.50887e-19)
(0.20572 -0.0168749 6.94692e-18)
(-4.34826e-05 -1.31008e-05 2.20271e-20)
(0.000121035 -8.72453e-05 -1.40172e-20)
(8.53008e-05 3.71898e-05 7.12606e-19)
(-4.5075e-05 3.08895e-05 -3.05781e-19)
(6.34967e-05 -8.42771e-05 8.47788e-19)
(-0.000197334 4.04429e-05 1.92581e-19)
(0.00144099 0.000974204 -1.49918e-19)
(0.000110684 1.89438e-05 -7.56285e-22)
(0.0277908 -0.0217132 -1.48997e-18)
(0.000112885 -0.000106804 -1.11155e-19)
(0.000521532 0.000201848 6.13491e-20)
(-0.0683357 -0.0321874 -3.78021e-18)
(-0.0250421 0.246146 -6.76388e-18)
(-0.00298928 -0.00566102 -1.23539e-18)
(-0.000678699 -0.000360207 7.2459e-19)
(6.16939e-05 -0.00017839 2.90555e-19)
(1.12144e-05 9.54248e-07 -2.6103e-19)
(0.000138474 4.09201e-05 -9.53816e-22)
(-0.000333116 -0.00256708 1.55686e-19)
(0.0202538 -0.0362672 5.12851e-19)
(0.000576232 -0.0536331 -1.43029e-18)
(0.000680449 0.000172326 -3.85986e-18)
(0.0939512 -0.0606325 -9.99876e-20)
(6.42612e-05 -0.000174674 -1.16196e-19)
(0.00875528 -0.00100159 -6.52341e-18)
(-0.000907844 -0.000207909 2.98857e-19)
(-1.80286e-05 -1.09981e-05 1.53557e-19)
(0.015827 0.00574497 -3.31394e-18)
(-1.76017e-05 -0.000103996 1.01849e-20)
(-2.03179e-05 3.73964e-06 -5.234e-20)
(-0.0159432 -0.0189315 7.00368e-18)
(-4.90751e-06 -2.58731e-07 7.63364e-20)
(0.00103461 0.000104675 5.15503e-18)
(-0.0109505 0.0738722 -1.02466e-18)
(-1.211e-05 -7.21286e-07 3.90319e-19)
(0.000172931 -6.51656e-05 5.23371e-19)
(-0.183678 0.246545 -1.40084e-17)
(0.000237643 -2.36138e-05 -8.03736e-20)
(-0.069321 0.0344601 9.71039e-20)
(-0.0131418 -0.0157439 -9.37531e-19)
(5.06334e-06 -1.03002e-05 8.50924e-19)
(4.77447e-06 2.07068e-06 3.23694e-19)
(-0.0152935 0.0200284 -1.80718e-19)
(-0.00161976 6.94516e-05 -1.33344e-19)
(0.00915471 0.00181314 1.90076e-18)
(7.82106e-05 -0.000106825 4.73984e-19)
(-0.0140704 -0.459708 -9.14928e-18)
(0.0909211 -0.0550512 2.80002e-18)
(-0.0142322 0.0580006 -3.47039e-18)
(3.90719e-05 -0.000107668 5.96258e-19)
(0.111412 0.111376 -9.21347e-18)
(-3.83655e-05 4.94471e-05 1.38998e-19)
(5.39042e-06 -9.10582e-07 5.40223e-19)
(0.000137185 -3.4048e-05 1.01461e-19)
(-0.000293109 -0.00569916 -1.01482e-19)
(-0.209638 0.262368 -1.10385e-17)
(-0.0659415 -0.0567928 -1.60051e-18)
(0.00140334 -0.000340619 4.96686e-19)
(0.00101385 0.00021928 6.14487e-18)
(-0.00133144 -0.00269413 -4.8664e-19)
(-0.126102 -0.344495 1.32527e-17)
(0.03772 -0.0532518 1.63703e-18)
(0.000138205 2.56417e-05 1.16934e-20)
(0.01356 -0.00650332 6.00591e-19)
(0.00206544 -0.00106755 9.3922e-20)
(-0.0659603 0.162875 -2.02508e-17)
(-0.00293379 -0.00552905 2.59023e-19)
(-0.0132041 -0.00878654 -4.69656e-19)
(4.6867e-05 -0.000126466 6.62839e-19)
(-0.0012595 -0.00565899 -1.78159e-19)
(0.0181029 -0.0139083 -2.13713e-18)
(8.33025e-06 -1.0559e-05 -5.9959e-19)
(4.48418e-05 -0.000135214 -1.25224e-19)
(-4.15621e-05 -2.69089e-05 8.22878e-20)
(3.66528e-05 -0.000130188 1.03751e-19)
(-0.00173812 -0.00445822 -7.32956e-19)
(0.0339685 -0.0328638 1.17887e-18)
(0.0382073 -0.00237445 -2.40094e-19)
(-0.0401582 -0.017208 4.20757e-18)
(-0.0138063 -0.00615171 -1.76449e-19)
(-0.00162843 0.00397649 -1.17258e-18)
(0.000131872 -5.02331e-05 -2.60656e-19)
(1.59046e-05 -3.41078e-05 1.71427e-19)
(0.0184583 -0.0693458 -5.98031e-19)
(0.0500834 0.0921279 9.50938e-18)
(0.000287127 0.00023885 1.15602e-19)
(0.0147093 -0.00501758 -8.39007e-18)
(0.0168416 0.0229942 -1.77543e-17)
(0.0325237 0.193131 1.40439e-17)
(4.48577e-06 -9.90174e-07 9.49794e-20)
(-1.25779e-05 1.30552e-06 -1.23818e-19)
(-0.0167272 0.0260321 -6.35523e-19)
(0.0261368 0.116076 7.02164e-18)
(-3.47449e-05 5.28898e-05 2.89775e-19)
(-0.019928 -0.0314349 -1.26257e-19)
(9.73779e-06 -0.000185261 8.26303e-19)
(8.18305e-05 -4.1334e-06 1.29042e-20)
(0.00615006 -0.00105169 -1.04021e-18)
(0.000135829 -1.47047e-05 -6.46454e-19)
(0.000258407 6.99126e-05 9.08972e-19)
(-0.00189604 4.75186e-06 -1.29165e-18)
(6.25845e-05 -8.58544e-05 -4.58822e-19)
(-0.001917 0.00133855 6.04962e-19)
(0.0388939 -0.0336532 -2.14913e-18)
(0.0159191 0.00467094 1.03057e-17)
(-0.0387264 0.157945 1.02626e-18)
(0.00101097 -0.0013375 3.31322e-19)
(6.51136e-05 -7.37067e-05 -1.10348e-18)
(0.0362573 -0.129704 -1.23832e-17)
(0.000135729 -5.64801e-05 -6.6403e-20)
(0.0834785 -0.108953 2.60437e-18)
(0.00400955 0.0230753 -1.70988e-17)
(-1.10344e-05 -0.000190552 -1.44132e-18)
(-0.116394 0.425282 4.70789e-18)
(-0.00310519 0.000493535 -2.73838e-19)
(-0.000780828 -0.000516394 -5.7079e-19)
(-0.0837702 0.50132 3.13559e-18)
(0.00339837 -0.0132821 4.76526e-20)
(-0.00576786 -0.00850564 9.97106e-20)
(-0.0832075 -0.0609999 -1.22902e-18)
(-0.00138638 0.000111119 -1.21908e-19)
(-0.0566172 0.0454228 7.20723e-18)
(-1.10948e-05 -6.88924e-05 -2.47499e-19)
(-0.144497 0.151792 4.2052e-18)
(0.149956 0.0671426 -1.21293e-17)
(0.00981955 -0.0102123 1.6135e-18)
(0.00100954 -0.000557696 1.66896e-20)
(0.0139979 -0.226637 8.53433e-18)
(0.00186976 -0.00101994 -9.49074e-20)
(0.0209173 0.0343889 5.97149e-19)
(0.0835262 -0.0305117 -7.59099e-21)
(0.219292 -0.0641951 1.37408e-19)
(0.000229242 0.000193603 1.86846e-18)
(0.00261243 -0.054132 5.85514e-19)
(1.21195e-07 -6.53377e-06 7.56761e-20)
(0.015456 -0.00628263 2.44469e-18)
(0.0366966 -0.0120257 -4.68223e-18)
(-7.41634e-06 -1.45449e-05 -5.25683e-19)
(0.0029483 -0.00686669 1.42484e-19)
(0.0670974 -0.00150605 1.20567e-17)
(-0.0684028 0.0209131 -7.26978e-21)
(-9.38733e-05 0.00591661 -1.34781e-18)
(0.00149512 0.00114807 -2.35507e-19)
(-4.43593e-05 4.89738e-05 -3.32194e-19)
(-0.000109438 -0.000236523 2.8886e-18)
(0.00256865 0.00194387 5.6591e-20)
(0.0128564 -0.00470891 6.57417e-19)
(-0.0484868 0.0516894 -1.95762e-18)
(0.000142561 -1.94501e-05 3.88041e-19)
(0.0213872 -0.132906 8.14306e-18)
(-0.00121566 0.00360236 6.02391e-19)
(-0.000194755 -0.000262811 6.41241e-19)
(0.00365399 -8.29662e-05 4.20528e-18)
(-3.88521e-05 -3.77774e-05 2.53303e-19)
(0.0139393 0.00270028 2.77356e-20)
(0.000118152 -4.12903e-05 -1.16819e-19)
(3.6957e-05 -0.000131122 -9.93372e-19)
(0.0880848 -0.114221 1.68543e-18)
(2.48665e-05 -6.30747e-05 4.66136e-19)
(0.00193144 -0.00124935 1.78668e-18)
(-0.0371746 -0.104469 -6.68158e-20)
(0.0211877 0.0124427 2.24356e-18)
(0.0163356 0.0176921 1.27507e-17)
(0.00016003 0.000120748 -1.23342e-19)
(-5.26228e-05 -0.000275141 2.53778e-19)
(-0.00629344 -0.0275779 1.03083e-18)
(9.36588e-05 -0.000198007 -1.79646e-19)
(0.0121958 0.141759 -4.79747e-18)
(0.00207863 -0.000317344 -4.72744e-18)
(0.000788541 0.00237782 6.16708e-19)
(0.000261312 -0.000493001 -2.02347e-19)
(-0.000211674 -0.00017032 1.87912e-19)
(-3.97107e-05 5.62265e-05 -2.22142e-19)
(0.254156 0.000314585 -4.44274e-18)
(-3.99225e-05 -3.52801e-05 -4.22812e-19)
(-0.0137093 0.153496 -1.76775e-19)
(0.0722698 -0.0213438 4.69385e-18)
(0.00069325 0.000204935 9.82293e-19)
(-0.00819904 0.065684 1.35725e-17)
(-2.01562e-05 -1.44397e-05 9.12728e-20)
(-0.00452098 -0.00767549 5.04176e-19)
(-1.77125e-05 0.0054492 -3.77721e-20)
(-0.259333 -0.546675 2.03582e-17)
(0.00201515 -4.07307e-05 1.98317e-19)
(0.0300599 -0.0449442 1.49703e-19)
(-0.0127104 -0.165611 9.24001e-19)
(-2.73499e-05 -1.91765e-06 2.9112e-19)
(-0.0480762 -0.0937331 -8.08313e-20)
(-1.70402e-05 -1.26129e-05 2.75852e-19)
(0.08009 -0.0279191 -9.23801e-20)
(6.32312e-05 -0.000235595 1.88859e-19)
(0.000157011 -0.000103642 -1.06097e-18)
(-0.0658675 0.145996 1.43803e-17)
(-0.0183404 -0.127335 -3.31653e-20)
(0.000115009 -2.38068e-05 7.37164e-20)
(0.000450237 0.000105859 -2.62326e-19)
(-0.0011143 -0.000411274 2.28115e-19)
(2.44958e-05 6.51397e-05 2.75466e-19)
(0.000159765 0.000107797 -5.96668e-19)
(0.0302423 -0.105942 -1.30536e-19)
(-0.0807788 0.250108 -1.28749e-17)
(0.000507762 -5.74377e-05 -1.00526e-19)
(2.70402e-05 6.1408e-05 1.30132e-19)
(-1.53532e-05 -2.00441e-05 5.4079e-20)
(-0.131578 -0.482859 2.66706e-18)
(-0.0714788 -0.0493096 2.091e-18)
(-0.0229691 -0.00633169 -2.76877e-19)
(5.35438e-05 -9.55618e-05 -4.55742e-19)
(0.0122286 -0.0113395 -9.3052e-19)
(0.000144 -0.000109878 1.3604e-18)
(-0.000101974 -0.000297131 -3.13511e-19)
(0.00526026 0.000317972 4.30494e-18)
(-0.04468 -0.162623 -1.59534e-18)
(0.000135881 2.62188e-05 -1.2131e-20)
(0.0152663 -0.00405698 5.91121e-18)
(0.0606919 -0.040235 -9.16596e-20)
(0.000758415 0.00214706 1.18448e-19)
(-0.00759444 -0.0269687 3.16317e-19)
(0.000189791 3.6326e-06 1.06242e-18)
(-0.00401606 -0.00506325 2.79262e-19)
(0.000136303 2.32064e-05 1.44165e-20)
(0.000382023 -0.000112851 3.18519e-19)
(0.00328359 -0.00150328 1.26911e-17)
(-0.000253529 -0.000260862 -3.62626e-19)
(0.0194778 -0.0130044 -3.83644e-19)
(0.000109525 6.43872e-05 -5.16602e-19)
(-0.109809 0.202775 -2.14344e-18)
(6.62652e-05 1.0449e-06 3.05374e-19)
(0.00218843 -0.000422069 7.3446e-18)
(0.031998 -0.0134083 5.89203e-18)
(-0.0594104 0.00647642 -1.39466e-18)
(0.0145837 -0.00727303 1.32016e-18)
(-2.46584e-05 5.53714e-06 1.13742e-19)
(-0.000187381 -0.000148063 -5.44279e-20)
(-0.00513878 -0.184395 -2.69243e-18)
(0.0124022 -0.0147428 4.32375e-19)
(0.0159789 0.0330043 1.19346e-19)
(6.13823e-05 2.77249e-05 -7.01385e-19)
(8.3042e-05 -0.000168974 -1.68256e-19)