/*--------------------------------*- C++ -*----------------------------------*\
| =========                 |                                                 |
| \\      /  F ield         | OpenFOAM: The Open Source CFD Toolbox           |
|  \\    /   O peration     | Version:  v2012                                 |
|   \\  /    A nd           | Website:  www.openfoam.com                      |
|    \\/     M anipulation  |                                                 |
\*---------------------------------------------------------------------------*/
FoamFile
{
    version     2.0;
    format      ascii;
    class       surfaceScalarField;
    location    "450";
    object      phi;
}
// * * * * * * * * * * * * * * * * * * * * * * * * * * * * * * * * * * * * * //

dimensions      [0 3 -1 0 0 0 0];
oriented        oriented;


internalField   nonuniform List<scalar> 
27882
(
0.50944
-0.361514
-0.147926
0.466142
-0.188135
-0.278008
0.271644
-0.532581
0.260933
0.16423
0.345209
-0.22187
0.351309
-0.129441
-0.426056
-0.102104
0.528159
0.185935
0.187334
-0.373273
0.120072
-0.330585
0.210511
-0.34154
0.119668
0.245852
-0.373832
0.127979
0.360093
-0.51205
0.151956
0.461952
-0.216628
-0.245325
-0.384047
0.13692
0.247126
0.331535
-0.164957
-0.16658
0.105608
-0.430435
0.32482
-0.428425
0.148304
0.280113
0.213307
0.248645
-0.313506
-0.168139
0.381871
-0.276269
0.175713
0.138979
-0.314693
-0.433976
0.321181
0.112795
0.0507464
-0.117896
0.0671497
0.0867943
-0.512851
-0.333714
0.540239
-0.206526
0.116683
-0.0659367
0.155377
-0.0993184
-0.0560582
-0.212908
-0.0831186
0.296027
0.2273
-0.13121
-0.0960897
-0.179891
0.0404359
0.139455
0.464791
-0.315044
-0.149747
-0.147105
0.241687
-0.0945826
0.0456197
-0.258528
0.307079
-0.187009
0.0673786
-0.136301
0.0689227
-0.166943
0.339857
-0.172916
0.181731
0.283061
-0.256648
-0.127401
0.184365
0.210445
0.0423185
-0.252763
0.395337
-0.476604
0.0812667
0.455723
-0.307041
-0.148681
-0.182215
-0.168955
0.351169
0.454366
-0.243093
-0.211272
0.469223
-0.334388
-0.134837
0.520311
-0.361453
-0.158869
-0.215382
0.144205
0.0711761
-0.333174
0.150957
-0.17705
0.0221799
0.15487
0.00857998
-0.0150304
0.00645038
0.503276
-0.35364
-0.149637
0.515871
-0.155779
0.104087
-0.113037
0.0089507
0.183898
0.319377
-0.390253
0.168465
0.221788
0.0561258
-0.129236
0.0731106
0.38363
-0.246711
0.4851
-0.462198
-0.022903
-0.156578
0.33229
-0.176628
0.160682
0.0159468
0.366011
0.119087
0.488823
-0.0789485
-0.409883
0.333046
0.136176
-0.0613827
-0.144082
0.00196947
-0.0983348
0.0963653
0.0242763
0.464536
0.103651
-0.073748
-0.029903
-0.0181027
0.401652
-0.383556
0.625351
-0.298845
-0.326506
0.0717905
0.155509
-0.54478
0.231274
-0.0180335
0.12212
0.0828031
0.0400415
-0.122845
0.145312
-0.398814
0.253497
0.165846
-0.284986
0.119139
0.258121
-0.302809
0.0446881
0.0486107
-0.195715
0.180083
0.0536106
-0.233693
-0.210641
-0.181541
0.392182
-0.0956891
0.278497
0.175869
0.134387
-0.148401
0.0140143
-0.0417432
0.252188
-0.299474
0.0888325
0.0100172
0.218744
-0.228761
-0.54083
0.262684
0.278145
-0.134458
0.0343639
0.100094
0.196498
0.0529996
-0.141053
0.306899
-0.231644
0.170261
-0.131958
-0.00249962
-0.0776682
0.0900766
-0.0124084
-0.349711
0.508776
-0.159077
0.134299
-0.156569
0.02227
0.0132985
-0.00471855
-0.24828
0.393586
0.522826
-0.101445
-0.421385
-0.339295
-0.134737
0.474031
0.171981
-0.165336
-0.00664466
0.398163
-0.219289
-0.178874
0.178038
-0.380144
0.202101
-0.17447
-0.0409121
0.329035
-0.225829
-0.103206
0.316127
0.309223
0.428311
0.094509
0.058936
0.044715
-0.24636
-0.187617
-0.149874
-0.0271762
-0.0739909
-0.00367733
0.00608783
0.220523
-0.226611
0.381132
-0.147469
-0.233664
-0.138614
0.441539
-0.302934
0.0805225
-0.078553
0.275954
-0.464633
0.188678
0.476369
-0.472848
-0.00352558
0.12322
0.205814
-0.128279
-0.00251783
0.130797
0.17618
-0.00419945
0.554934
-0.264026
-0.290909
0.000939228
0.115741
-0.11668
-0.341267
0.491082
-0.149816
0.550514
-0.386757
-0.163762
0.235678
-0.0555947
-0.210794
-0.330038
-0.507497
0.0739631
0.433532
-0.0118654
0.0210859
-0.00922046
-0.220445
-0.169809
-0.503496
0.341171
0.162323
-0.421708
-0.0857915
-0.0437657
-0.0995503
0.143316
-0.0198793
0.015848
-0.154449
-0.526125
0.274484
0.251632
-0.229711
0.242053
-0.012342
0.0278715
-0.0661971
0.0383256
-0.14119
0.536527
-0.351934
0.481098
-0.12917
0.216644
-0.0395826
-0.177061
-0.401465
-0.0649677
0.466431
-0.163603
0.0196137
0.143989
0.138635
-0.00424765
0.429547
-0.153594
0.443024
-0.164178
-0.278847
0.192925
-0.183004
-0.0099217
-0.260135
0.266222
-0.0206806
0.00881521
0.167927
-0.16301
-0.00491709
0.0947185
-0.0357825
-0.0174907
0.139151
-0.121661
-0.187619
-0.324431
0.0225272
0.0906135
-0.113141
0.0173614
0.000305563
-0.017667
0.0196658
-0.0167068
-0.00295901
0.0540142
-0.258495
0.204478
-0.380941
0.103598
0.277342
0.186733
0.26899
0.178805
-0.0357737
0.156704
-0.0224046
0.0752183
-0.118984
-0.245837
-0.0343256
0.280163
0.278523
-0.0991332
0.0495348
0.0495985
0.355354
0.0301616
-0.385518
0.0177076
-0.01569
-0.00201757
0.0492858
0.0454328
-0.215487
0.124991
0.0904961
-0.54771
0.247286
0.300423
0.413792
-0.0584395
-0.0610289
0.100162
-0.0391335
-0.0156625
-0.00421678
0.418578
-0.341224
-0.0773541
0.00807325
0.00692932
-0.0150026
0.407945
-0.136304
-0.165224
0.160654
0.00456975
-0.268116
-0.156717
-0.00147514
0.221998
0.135964
-0.391802
0.255834
0.142477
-0.390762
0.0423423
-0.119264
0.0769219
0.129337
-0.0619587
0.229188
0.0469579
0.520202
-0.245056
-0.275146
-0.129733
-0.17611
0.305843
-0.0720342
0.12816
0.141424
0.164887
-0.0938771
-0.0171387
0.111016
0.421322
-0.316501
-0.104826
-0.321521
0.00647597
0.343635
-0.289144
-0.0544912
0.0231341
-0.00983561
-0.114963
-0.121394
0.236357
0.00652814
0.0131376
0.277494
0.143822
0.0710127
-0.168487
0.0974742
0.112873
0.146794
-0.259667
-0.53921
0.219619
0.31959
0.235494
-0.314087
0.0785925
-0.140272
0.0093221
0.13095
0.317111
-0.2631
0.00768793
0.0154462
-0.493952
0.0768811
0.41707
-0.194033
-0.253311
0.447343
0.185181
-0.109963
-0.175495
-0.0754808
0.250976
-0.148078
0.427294
-0.279224
-0.401506
0.262883
0.00982973
0.00787783
0.0940655
-0.364295
0.270227
-0.041085
-0.0166256
0.00685891
0.554493
-0.375475
-0.179019
-0.115686
0.149634
-0.0339482
-0.463285
0.269251
-0.135357
0.424056
-0.288701
0.106859
-0.326816
0.219956
0.164044
-0.503338
0.0022302
0.389998
-0.39224
0.0410173
0.341854
-0.443958
-0.0637236
0.385439
-0.321716
-0.18597
0.298843
-0.171541
-0.279949
0.451488
0.177407
0.0155185
0.0639408
0.12124
0.0708684
-0.246364
-0.25179
0.414904
-0.163114
0.278799
-0.0206781
-0.0782653
0.13368
-0.0554143
-0.0377436
-0.0613896
0.34546
-0.251397
0.0807608
0.0746158
0.157538
0.0103888
0.215635
-0.21711
0.0619908
-0.41393
-0.482671
0.147724
0.334939
0.275351
-0.446893
0.0768777
-0.224139
0.147261
0.0139978
-0.0136084
-0.000389418
-0.13357
-0.00192817
0.135498
-0.342824
0.261852
0.0809708
0.102524
0.322409
-0.42494
-0.140071
0.216949
0.0172999
-0.183939
0.166639
-0.342015
-0.169983
0.511995
0.107792
-0.0852647
0.146364
-0.0274154
-0.118948
-0.477296
0.341598
0.135689
-0.261395
-0.19976
0.461151
-0.203677
0.496138
-0.292463
0.37021
-0.192175
0.015068
-0.00699473
0.515142
-0.253221
-0.261922
0.288055
-0.551238
0.263183
-0.171034
0.446384
0.463073
-0.0731745
-0.389899
0.120971
-0.00295803
-0.118013
0.380195
-0.57341
0.193213
0.140498
-0.0576946
-0.396376
-0.0276244
0.42399
-0.263526
0.104539
-0.229776
-0.234858
-0.36312
0.437081
-0.102366
-0.374936
-0.106643
0.177655
0.139621
-0.0124089
-0.127212
-0.0411755
0.180796
0.0284299
-0.391552
-0.146303
0.0670897
-0.325587
-0.225943
0.3568
-0.130859
0.0993422
-0.125787
0.0264452
-0.0538588
-0.0620231
0.115882
-0.353634
0.127688
0.0884727
-0.332135
0.24366
0.121041
0.354025
-0.475066
0.316677
-0.20982
0.214551
-0.0286268
-0.185924
0.492709
-0.150855
-0.418382
0.283023
0.160759
0.170775
0.200377
-0.461777
-0.311354
-0.176076
0.487422
-0.434202
0.379049
0.0551442
-0.0785976
0.0394667
0.0391308
-0.244506
0.355896
-0.267426
0.397303
-0.435741
0.0384383
-0.136564
-0.0473752
-0.151702
0.378337
-0.22664
0.276604
-0.438887
0.0968702
0.0946853
-0.292379
0.197693
-0.121647
-0.340553
-0.534227
0.258752
0.275473
-0.558291
0.262937
0.295352
0.206296
0.253458
-0.459755
-0.47096
0.219169
-0.437707
0.0879839
-0.454238
0.120523
-0.0223304
0.00927961
0.0130508
0.115366
-0.232599
0.117232
-0.597402
0.33821
0.259188
-0.392666
-0.204739
-0.0849213
-0.129531
0.214452
0.270355
-0.46003
0.189674
0.280617
0.239584
-0.149675
-0.243238
0.392912
-0.323735
0.0773751
-0.0957675
0.428812
0.156187
0.227442
-0.405041
-0.0291687
-0.123748
0.175784
-0.0520361
-0.120659
0.0541396
-0.146703
0.0925631
-0.0859994
-0.093892
-0.0498071
-0.0864943
-0.616245
0.299626
0.316619
0.294454
-0.146519
-0.147934
-0.172593
0.132835
0.0397578
0.0402728
-0.424323
0.384043
-0.106307
0.160447
-0.226684
-0.0191535
-0.017643
0.108256
0.161244
-0.458597
0.297347
-0.300119
-0.0108724
0.449347
-0.270669
0.0629147
0.33994
-0.402858
-0.0112737
0.0205641
-0.00929044
-0.0524306
0.207395
-0.154965
0.415792
-0.282128
-0.133665
0.0161168
-0.0575929
0.0414761
0.448027
-0.286789
-0.167516
-0.365594
-0.0307909
0.120762
0.355604
-0.197528
0.315974
-0.118448
0.0397138
0.3286
-0.368315
-0.0853988
-0.245188
0.156258
-0.410844
0.254583
-0.298115
0.100586
-0.171892
0.269187
-0.0972967
0.196118
-0.15577
0.157918
-0.24284
-0.0779906
-0.323476
0.164923
0.190353
0.20781
-0.26686
0.329772
-0.025925
0.171865
-0.145941
0.466672
-0.196317
0.120671
-0.0744378
-0.0462332
0.456614
-0.177187
-0.279427
0.139918
-0.136197
-0.00372109
-0.417261
0.100754
-0.0201564
0.0123128
0.00784362
0.212778
-0.260722
0.0479436
0.101558
-0.317533
0.215974
-0.272858
0.100965
0.287483
0.128308
-0.407866
0.299552
0.108312
0.140553
-0.474943
-0.124248
-0.139608
0.286402
0.471619
-0.22901
-0.24261
0.254935
-0.212363
-0.0425722
0.12252
-0.262128
-0.141079
0.227357
-0.0198213
-0.207536
0.153718
-0.283452
0.17872
-0.00254015
-0.00103255
-0.00715495
-0.121124
-0.0537671
0.269402
-0.207642
0.169281
0.0383606
0.114504
-0.421545
0.00184667
0.138071
-0.0145722
0.477645
0.0273298
-0.0745552
0.0472254
-0.117041
0.318615
-0.473992
0.155377
0.244599
0.22702
0.377703
-0.395813
0.223201
0.317038
-0.0648961
-0.053
0.227604
-0.283998
0.488917
-0.204919
0.127066
-0.027724
0.00981219
-0.0736378
0.20195
0.134494
0.246637
-0.281356
-0.147077
0.300382
-0.197058
-0.103325
-0.355575
0.158178
0.197395
0.463628
-0.296791
-0.166838
0.284711
0.265798
-0.373134
-0.0347333
0.267081
-0.407457
0.140371
-0.420898
0.109536
-0.53403
0.29463
0.239397
0.157343
-0.487403
0.33006
0.26306
-0.249099
-0.0139618
0.216248
-0.264508
0.0482604
-0.209486
0.187294
0.0221914
0.0419771
0.0981226
-0.1401
0.151439
-0.109462
0.00224788
-0.0185631
0.0163152
0.266305
0.00481939
-0.140363
0.135543
-0.269158
0.475453
0.430626
-0.0356767
-0.394949
-0.354817
0.111723
0.157957
0.142423
-0.345128
0.211633
0.133495
-0.218258
0.00911409
0.171339
0.00738084
0.357782
-0.257749
-0.100033
-0.373477
-0.199934
0.148141
0.0479769
0.284536
0.235767
0.210843
-0.0954768
0.558814
-0.288458
-0.270356
-0.0241882
0.0257218
-0.00153362
-0.164923
0.265837
-0.20629
-0.352002
0.0467123
-0.0305955
0.137899
-0.146268
0.00836902
-0.50392
0.402246
0.101661
0.317941
0.145686
-0.252169
0.469413
-0.217245
0.159753
-0.213521
0.221662
-0.513067
0.291404
-0.356506
-0.177723
-0.0948244
-0.120663
-0.0122626
-0.197223
-0.0832761
0.383991
-0.241519
-0.310039
0.208107
0.10193
0.162423
0.0787845
-0.241208
0.0917162
-0.0924293
0.000713157
-0.14989
-0.159832
0.309721
-0.608098
0.359972
0.248125
-0.0464182
0.225959
0.332854
-0.314651
0.354364
0.0358893
0.121972
0.294006
-0.415988
0.0918896
0.149798
-0.24199
-0.366109
0.257677
-0.0952545
0.526368
-0.228956
-0.297415
-0.144085
0.13693
0.195239
-0.497047
0.301807
0.353401
-0.0863243
0.0167676
-0.0127994
-0.00396814
-0.156393
-0.303637
0.127555
0.373331
-0.500886
0.190975
0.0363815
-0.00513109
-0.295884
0.301013
0.285294
-0.43338
-0.464869
0.0822284
0.382638
0.503035
-0.323918
-0.179128
-0.108295
0.179128
-0.0708336
-0.0233176
0.0362541
-0.0129365
0.213652
0.0752622
-0.288916
0.23264
-0.11234
-0.1203
0.345378
-0.222858
0.117279
-0.0749371
0.478858
-0.332099
-0.14676
0.00138452
0.144979
0.101361
0.377498
-0.509578
0.330741
0.178835
0.140558
-0.135739
-0.192502
0.250817
0.00914274
-0.25996
0.219259
0.0878183
-0.404386
0.340662
0.396304
-0.359069
-0.0372354
0.140825
0.28872
-0.514198
0.217949
0.296246
0.309958
-0.122628
0.457233
-0.120744
-0.336494
0.43099
-0.309027
0.0801952
0.377033
0.0111993
0.334156
0.247379
-0.394694
0.147315
-0.317077
-0.158381
0.475454
-0.54393
0.36505
0.178879
0.130893
-0.140077
0.00918337
-0.152322
-0.373812
-0.25935
0.455309
-0.195962
0.358708
0.125804
-0.484512
0.240833
-0.245965
0.0446257
0.351677
-0.0793587
0.400539
-0.208039
0.158026
0.357845
0.347069
0.0352394
-0.382309
-0.197829
0.0228741
0.174955
-0.149554
0.0895012
0.0600528
-0.00544177
0.0224795
-0.0170378
-0.197752
-0.00988965
0.385487
-0.383268
-0.356157
-0.0611094
0.00477163
-0.0280892
-0.0297214
0.503949
-0.319585
-0.184365
0.508612
-0.142601
0.0789149
-0.284201
0.205285
-0.0293118
0.524858
-0.1371
0.484169
-0.0578582
0.0984117
-0.0405535
-0.140415
-0.186402
0.135438
0.00319648
0.205039
0.29891
0.49432
-0.17638
0.107069
0.125571
-0.457281
0.257516
-0.133572
-0.254913
0.388481
-0.504578
0.216897
0.287668
-0.530428
0.309423
0.221005
0.0468214
0.298635
0.0805484
-0.442013
0.164981
-0.415086
0.250105
0.266355
-0.43924
0.172885
0.274812
0.0829686
0.213785
0.131593
0.493012
-0.119681
-0.163845
0.430199
-0.423463
0.106382
-0.248537
0.184041
0.0644955
0.340232
-0.138791
-0.201441
0.0779402
-0.22783
-0.247891
-0.132257
0.0391581
-0.154121
-0.183952
0.225235
-0.0412833
0.236752
0.0140643
0.296542
0.100198
-0.396742
0.468592
-0.31125
-0.472836
-0.187508
0.272398
-0.0848913
-0.290605
0.103096
0.00114312
-0.0139786
0.0128355
0.0307002
-0.124577
-0.246618
0.44699
-0.285316
0.285193
-0.190508
-0.0949879
0.033959
-0.533016
0.244557
-0.284313
0.448357
0.357069
-0.345881
-0.429675
-0.114255
-0.135685
-0.254074
0.389756
0.451824
-0.155284
-0.124064
-0.187737
0.3118
0.43359
0.00381193
0.156869
-0.376275
0.12838
0.336479
-0.477669
0.178467
-0.218386
0.0399188
0.0122292
-0.0176709
-0.421874
0.285635
0.136237
-0.217886
-0.285611
0.427874
-0.269088
-0.15879
-0.393772
0.13442
0.269626
0.119949
-0.389581
-0.406236
-0.394751
0.274944
0.119806
-0.449986
0.170869
0.279117
-0.306795
0.220348
0.0864457
0.256287
-0.287411
0.0311232
0.292471
0.1354
0.139286
-0.165211
0.481722
0.0570893
-0.401448
0.344358
0.155928
0.00160934
-0.210089
-0.334691
-0.232877
-0.297552
-0.017096
-0.293634
0.31073
-0.110374
-0.422211
-0.0133603
0.248853
0.0425032
0.212432
0.503043
-0.133479
-0.369567
-0.125661
0.389591
-0.263934
-0.0165002
0.222989
0.331943
-0.391964
0.230111
0.161853
0.477073
-0.202878
-0.274195
-0.518761
0.16569
0.35307
0.249477
0.276888
-0.198575
0.208592
0.0838114
-0.293828
0.210015
0.207922
0.132309
0.388096
-0.252135
-0.026468
0.282755
-0.473723
0.402644
0.15984
0.302024
-0.461868
-0.0073616
-0.0149688
0.490634
-0.216776
-0.273859
0.275926
0.278565
0.245373
-0.382512
0.137135
0.494542
-0.34818
-0.146363
0.120434
-0.241828
0.238686
-0.145011
-0.0936748
0.284554
0.161641
-0.446196
-0.172665
0.280286
0.0631396
0.10996
-0.173099
0.287186
-0.208272
-0.271897
-0.160828
0.432717
0.255202
-0.404878
0.054855
-0.22625
0.171394
0.00315919
-0.0672821
-0.16243
0.435756
-0.298398
-0.137359
0.0823753
-0.34974
0.267362
0.249992
0.244548
-0.166432
0.160993
0.00543961
-0.337673
-0.18109
0.339705
-0.257333
-0.360275
-0.172741
-0.0464938
-0.340236
0.386726
-0.0737683
-0.152419
0.226187
-0.114087
-0.168421
0.282508
0.496792
-0.208737
-0.304889
0.29111
0.144645
0.124274
0.21933
-0.343605
0.384839
-0.13947
0.184142
-0.4826
0.298453
0.384549
-0.109737
0.0557748
-0.117896
0.170073
-0.187131
0.0170578
-0.0131425
-0.00356422
0.0116267
-0.0104836
-0.390504
0.138334
-0.434389
0.484095
-0.0497065
-0.00794085
-0.265391
0.397309
-0.131917
0.195253
0.295381
0.186636
0.280036
0.240477
-0.366857
0.126377
-0.146422
0.0164337
-0.184232
0.167798
-0.130738
-0.373192
-0.0769545
0.366118
-0.461887
-0.445063
0.31524
0.129818
-0.466772
0.169979
-0.27392
0.153926
0.00200236
0.135535
0.316016
-0.451551
0.269001
0.155053
0.220208
0.125531
-0.124592
-0.469987
0.185673
-0.0100467
0.428789
-0.263808
0.368017
-0.127542
-0.328915
0.486595
-0.157682
0.297254
0.153418
-0.193001
0.13965
-0.407766
-0.120704
0.300092
-0.216282
0.265266
-0.219647
0.289148
0.159475
-0.448624
0.0323387
0.053553
-0.0858917
0.0175993
-0.0153514
0.310336
-0.20878
-0.443695
0.27266
-0.22468
-0.116544
0.253402
-0.198548
-0.21471
-0.0691376
0.283847
-0.0187368
-0.192428
0.211165
0.101007
0.0082661
-0.109273
-0.106332
-0.225067
0.331396
-0.181103
0.417463
-0.23636
-0.0879388
-0.406014
0.178587
-0.00851397
-0.124788
-0.494572
0.204748
0.289821
0.0752095
-0.190433
0.115223
-0.206524
-0.144585
-0.07403
-0.16611
0.24014
0.141792
-0.265857
-0.17416
-0.134305
-0.138554
0.448696
0.234898
0.108736
0.301727
-0.196223
-0.105505
0.153381
-0.402558
0.249175
0.123013
-0.171612
0.215703
0.141096
0.0231414
0.161997
-0.185138
0.298356
0.135527
-0.433884
0.371163
0.0859755
-0.457138
0.149431
0.22961
-0.316287
0.269791
0.0906531
0.486684
-0.310538
-0.17615
-0.118831
0.475725
-0.268622
-0.207103
-0.01867
0.147494
-0.00521352
0.208728
-0.326686
0.117953
0.232857
-0.356254
0.123395
-0.0473874
0.201566
-0.154178
0.237655
-0.361588
0.12393
0.144723
-0.410115
0.165725
-0.24258
0.0768548
-0.296995
0.290767
-0.124222
-0.166546
0.338421
-0.345539
0.00711541
-0.262827
0.482446
0.0624188
0.433464
-0.135108
-0.0339013
-0.108653
-0.0776079
0.109022
-0.080925
-0.0280965
-0.290092
0.34718
0.138622
-0.420752
0.167211
-0.241242
-0.0981134
-0.00459859
0.102712
0.170319
-0.242351
0.0720309
0.103471
-0.361221
0.00110394
-0.308741
0.307637
-0.445501
0.000985401
0.444515
0.247511
0.228213
-0.473376
0.311735
0.161638
0.18507
-0.203807
0.354309
-0.116657
0.319214
-0.232569
-0.086647
0.0709669
0.0190791
-0.0900461
0.479861
-0.235262
-0.298991
0.148522
-0.335585
0.187061
-0.0907813
0.130998
-0.408863
0.277863
0.37422
-0.165497
0.319598
0.065841
-0.0186358
-0.00129764
0.0199335
-0.291862
0.45776
-0.165899
-0.271202
0.402197
-0.161257
-0.312122
0.0127041
0.0790121
0.0712465
0.167439
0.421554
-0.268981
-0.152573
-0.458204
0.140858
0.317343
0.250172
-0.38868
0.138507
0.231588
0.0876242
-0.120781
-0.0105352
-0.40083
0.162733
-0.434639
-0.00972458
-0.0262053
-0.214401
0.240606
-0.331211
0.452252
0.452449
-0.270059
-0.18239
-0.102548
-0.233289
0.335833
0.0501419
0.19191
-0.284525
0.447249
0.496532
-0.331208
-0.165325
0.209448
-0.0184737
-0.133221
0.348922
0.00490683
-0.130737
0.431635
-0.300908
0.0322896
-0.0709603
0.0386708
0.507423
-0.355688
-0.151743
-0.0668752
-0.0104191
-0.148681
-0.246013
0.165368
0.0132193
0.48275
-0.0521245
0.349554
-0.011135
0.103712
0.247954
-0.351666
-0.134568
0.38474
0.0544162
-0.269126
0.286125
0.152555
-0.438685
-0.430884
0.291001
0.13988
-0.00925644
-0.27573
-0.0123076
0.0110954
0.211239
0.17697
-0.468834
-0.449672
0.173427
0.276239
0.105927
-0.315485
0.209558
0.318352
-0.169832
-0.0897031
0.45582
-0.135186
-0.256544
0.391725
-0.372362
0.373618
-0.224194
-0.390471
0.264805
0.290445
-0.46459
0.181704
0.282881
0.0801876
-0.107603
0.0243943
-0.183559
0.159165
-0.112608
0.0949647
-0.159849
-0.224537
0.384386
-0.00402705
-0.0146088
-0.249699
0.393752
-0.144057
-0.0606778
-0.241076
-0.1145
0.29049
0.167268
0.264794
-0.439793
0.174992
0.502027
-0.323425
-0.178606
-0.414916
0.453672
-0.0387584
-0.261651
0.127344
-0.0807928
-0.017542
-0.0954508
-0.0541033
0.156759
-0.182965
-0.481129
0.311173
0.169955
-0.15319
-0.252722
0.405908
-0.22867
0.0447177
0.200174
0.0628858
-0.0663822
-0.121232
0.187614
-0.444961
0.0694842
-0.415415
0.145134
0.270279
0.180682
0.31585
-0.0148158
0.013088
0.00172776
-0.179134
-0.0984478
0.277582
0.0108322
0.443861
-0.458093
0.0142265
0.133478
-0.136295
-0.00406805
0.20702
0.245429
-0.00322518
0.263344
-0.185572
-0.0777723
0.189989
-0.296413
0.106423
0.526685
-0.17266
0.49816
-0.16168
0.0681502
0.0611871
0.196144
0.0977608
-0.293906
0.324365
0.157623
-0.481989
-0.0452245
-0.124164
0.169388
0.186332
-0.13418
-0.261356
0.39553
-0.187356
-0.363882
-0.134266
0.371626
-0.23736
-0.241533
-0.163514
-0.136517
-0.254278
0.39079
0.236225
-0.398258
0.162025
0.159803
-0.387413
0.227608
0.0967042
0.250712
-0.347422
0.145613
-0.343467
0.197852
0.208005
-0.196806
-0.0111994
0.338557
-0.354576
0.0160165
-0.0880507
0.284193
-0.00396281
-0.303931
0.307894
-0.00589721
-0.00891855
0.0127725
0.369094
-0.0927545
-0.311632
0.0595037
0.058384
-0.117888
0.320535
-0.294954
-0.0255819
-0.446299
0.268658
0.17764
0.450898
-0.16041
0.322126
-0.459226
-0.122142
0.306505
-0.184365
0.0213029
0.29923
-0.41776
0.453301
-0.035543
0.123874
0.148523
0.33896
-0.193349
-0.110414
0.294415
-0.184003
-0.0502085
0.121175
-0.023001
0.237551
-0.521419
0.299243
0.222174
0.233681
0.132625
-0.366309
-0.21047
-0.103989
0.314459
0.210776
0.284921
-0.461743
0.176822
0.0886331
-0.0953134
0.284975
0.143663
-0.428647
-0.0840427
0.191111
0.196204
0.0132443
-0.398395
0.257982
0.140408
0.270462
-0.428738
0.158271
0.215004
-0.430976
0.215969
0.31227
-0.173292
0.145131
0.0047145
-0.149846
-0.0458505
-0.419021
0.153792
-0.313641
-0.173025
0.134382
0.00617589
0.176915
0.0864287
0.30833
-0.202405
-0.353069
0.21573
0.137338
-0.150093
-0.234699
-0.0495019
-0.0720325
-0.161011
0.380524
-0.219516
0.0623696
0.0731371
-0.135507
0.00107094
0.1199
0.265372
-0.393982
0.128608
-0.269352
0.211773
0.0575789
0.120802
-0.425344
-0.0337019
0.459044
0.193287
-0.176854
-0.163106
0.448026
0.372286
-0.221149
0.147381
0.0957589
-0.291745
0.195985
-0.282565
0.322833
0.479759
-0.200406
-0.279353
-0.319268
0.454672
-0.135411
0.385848
-0.23247
-0.323555
0.357705
0.491515
-0.391319
-0.153214
0.418001
-0.15955
0.430007
-0.104067
0.367376
-0.133697
0.282046
0.153605
-0.435652
0.185583
0.0224217
0.282805
-0.211937
0.190307
-0.46158
0.271274
0.129003
-0.131961
-0.232932
-0.182154
0.25452
0.497216
-0.428667
-0.0685494
-0.288061
-0.11034
0.0852162
0.0157907
0.277737
-0.517897
0.240156
-0.3145
0.439985
-0.125488
-0.255036
0.195395
0.0596407
0.500622
-0.319942
0.336874
-0.151804
0.206722
0.106337
-0.31306
0.212254
0.111106
-0.323363
-0.091164
-0.191219
0.282383
0.268459
0.125074
-0.393538
-0.0153751
-0.125859
0.412034
0.0851812
0.340658
-0.00210419
-0.195658
-0.0344098
0.230068
0.075599
0.0147449
0.00514709
-0.298254
0.0877839
-0.291197
0.475334
-0.0896296
0.324543
-0.234918
-0.228942
0.370082
-0.14114
-0.405433
-0.039633
-0.0674424
-0.187594
0.116504
-0.400502
0.198747
0.274724
-0.473471
0.322894
-0.00952097
-0.313373
-0.381143
0.139602
-0.210751
0.370551
0.421518
-0.0291896
-0.21991
0.286249
-0.190491
-0.0336064
0.323224
-0.289618
0.108946
-0.432877
-0.468065
0.329284
0.138775
-0.146688
-0.222545
0.369232
0.291549
0.141672
0.00345874
0.233956
0.0703768
-0.304334
0.294294
0.185465
-0.0110391
-0.00365352
0.0146926
0.00498419
0.277821
-0.195884
0.491286
-0.295403
0.00402889
0.0766274
-0.46339
0.0444768
-0.102335
-0.297596
0.170948
0.491806
-0.241814
-0.0845746
0.291295
0.478424
-0.333701
0.114927
-0.352552
0.237622
-0.0179268
-0.0801866
0.360848
0.130665
-0.270298
0.140938
-0.106574
-0.384119
-0.0307984
0.306609
0.138848
-0.445458
0.404792
-0.135171
-0.109599
0.175445
0.161429
0.230094
0.13792
0.280966
-0.0650324
0.453936
-0.311336
-0.142608
-0.418798
0.257964
0.32682
-0.00392674
-0.122819
-0.268164
0.390977
-0.0569454
0.116449
0.205443
-0.388476
0.183029
-0.255458
0.0796925
0.175765
0.158133
0.289889
0.354594
-0.149154
-0.141252
-0.326818
0.348543
-0.23362
0.187052
-0.162658
0.331323
-0.0973686
0.245545
-0.0645328
-0.181013
-0.203595
0.027888
0.175706
0.137668
-0.391338
0.253668
0.221068
-0.375779
0.154705
0.383602
-0.227584
-0.156018
0.17913
0.245649
-0.424788
-0.327604
0.293997
-0.025342
-0.426534
0.451862
-0.0861671
-0.124274
-0.124263
0.282209
-0.470345
0.135133
0.500272
-0.340483
-0.15979
-0.410845
0.0915705
0.00659617
0.0398536
-0.0464498
-0.383529
-0.0508611
0.259205
0.169584
0.215852
0.0325157
-0.248368
0.300243
-0.15081
0.173951
-0.248264
0.427386
-0.201543
0.487853
-0.286316
-0.143589
-0.172844
0.316432
0.126746
0.263065
-0.389814
0.138276
0.345182
-0.11509
0.296711
-0.106723
0.239943
-0.369268
0.129322
0.0580538
-0.223011
0.107445
-0.112043
0.219378
0.217468
0.136838
0.271112
-0.436722
0.165604
0.269216
-0.438725
0.169508
0.38468
-0.247013
-0.13989
-0.261543
0.401428
-0.317604
-0.179444
0.199693
-0.311324
0.11163
0.155088
-0.28659
0.190282
0.289321
-0.479604
-0.121613
0.0536633
0.0679497
-0.000850462
0.136288
-0.368342
-0.151052
0.481792
0.190016
-0.15154
-0.0384767
0.0240903
-0.288847
0.264755
-0.214458
0.111722
0.102735
-0.284418
-0.122526
-0.141844
0.264369
-0.0105859
0.0204156
-0.337992
-0.156977
0.494962
0.437567
0.322878
0.173259
-0.0928595
-0.200969
0.280864
-0.434392
0.153527
0.167683
-0.43171
0.101375
-0.185418
0.47506
-0.196367
-0.278694
0.435238
-0.292764
-0.142474
0.153632
0.036384
0.0332302
0.000117315
-0.0333476
-0.000115969
-0.0138626
-0.325188
0.186396
-0.316264
0.172016
0.144246
0.0897572
0.193467
-0.283228
0.240742
0.037282
-0.278024
0.20614
0.29448
0.529162
-0.219363
-0.309801
0.173308
-0.187257
0.0139485
0.276666
-0.375957
-0.0418051
-0.175991
-0.00858792
-0.0115685
0.164257
-0.237734
0.0734756
0.0410574
-0.334243
0.293185
-0.16732
-0.31381
-0.179157
-0.0763016
0.353266
0.0819709
0.247821
-0.337454
-0.0722615
0.372432
-0.132492
0.251408
0.0426797
-0.294089
0.528455
-0.199856
0.258651
-0.134779
0.230105
0.107099
-0.337205
-0.348903
0.365584
-0.0166812
0.256805
-0.246411
-0.0103963
0.251116
-0.399758
0.148636
-0.271202
0.406737
0.417471
-0.110862
-0.217259
-0.304162
-0.285709
-0.202591
0.488299
5.59462e-05
-0.220787
0.22073
0.432411
-0.163196
-0.0767779
0.33588
-0.259103
0.00285679
0.0160619
-0.282654
0.405866
-0.123212
-0.0664078
-0.0260215
-0.430816
0.160147
-0.300562
0.341619
-0.10167
0.0208771
-0.408659
0.137457
0.23622
-0.362647
0.126424
0.0948634
0.190328
-0.144259
-0.197159
0.286912
-0.172631
0.172686
0.272177
-0.248088
0.108194
0.193533
0.210772
-0.0323049
0.294926
0.234234
-0.509906
0.186061
0.323843
-0.265235
0.311411
-0.0461772
0.194211
-0.357528
-0.0732884
-0.291159
0.509105
0.314922
-0.115231
-0.42221
0.269016
0.127074
0.208645
-0.355333
0.23001
-0.154801
0.0422204
0.0368162
-0.0790366
0.248422
0.136413
-0.220114
-0.151532
-0.28105
0.146772
0.251904
-0.398681
-0.147139
0.413572
-0.148202
0.177154
0.181972
0.296451
0.163313
-0.189105
0.0257921
-0.0743302
0.325737
-0.156144
0.377805
0.446888
-0.0452415
-0.209881
-0.0975875
0.307466
0.15802
0.248679
-0.406702
0.432519
0.0279539
0.159098
-0.033742
0.0403381
-0.155768
-0.238984
0.0165841
-0.101849
0.268907
0.144664
-0.00602329
-0.00966671
-0.0935049
0.0415627
0.0519422
-0.00567418
0.0389044
0.144464
-0.0789544
-0.0655098
-0.0983528
-0.0101991
-0.322976
-0.320048
-0.129938
-0.133374
0.136659
-0.00328501
-0.246465
-0.415477
0.247337
0.24984
0.136709
-0.386554
-0.138788
-0.0342788
-0.230956
-0.157631
-0.137042
-0.376027
0.0369672
-0.356553
0.0465277
0.051884
-0.216906
0.108215
0.108692
-0.406862
0.0830643
0.323798
-0.139997
0.131473
0.00852309
0.217307
0.112043
-0.329349
0.424256
0.149043
-0.41013
0.261086
0.12769
0.267058
-0.394754
0.0940116
-0.120183
0.121568
0.374295
-0.44747
0.21868
-0.0330968
0.205945
-0.114056
-0.00637516
0.0186879
-0.01693
0.00378741
-0.0448784
-0.146911
0.19179
-0.0395752
0.211368
-0.171793
0.201148
0.232315
-0.00381815
0.254834
0.00196974
0.260301
0.228616
0.216928
-0.351194
-0.219626
-0.105563
-0.00532949
0.124592
-0.119262
0.00100783
0.221992
-0.0645713
-0.334246
0.343523
-0.422882
0.378414
-0.0577706
-0.0638425
-0.277138
-0.116845
-0.164526
-0.313455
0.169864
0.295736
0.179324
0.434552
-0.418548
-0.0160192
-0.453216
0.237447
0.215769
-0.282604
0.160076
-0.456072
0.249757
0.206315
-0.310157
0.481025
0.304053
-0.154812
-0.149241
-0.278766
0.0909135
0.187852
-0.194615
-0.00708718
0.0147517
-0.00766454
-0.22752
0.232469
-0.324505
0.0920356
-0.0395694
-0.0402059
0.0797753
-0.208659
0.178095
0.0305631
0.160174
-0.168928
-0.181576
0.350504
-0.019293
0.362816
0.250293
0.136066
-0.386363
-0.160209
0.425705
-0.265506
-0.231838
-0.241607
-0.187052
-0.276234
0.505825
-0.207847
-0.297979
0.0995562
0.0409415
0.227248
0.145487
-0.372736
-0.161747
0.0245062
0.168781
0.170021
-0.20136
0.0313396
0.193626
-0.0203183
-0.304566
0.100768
0.203797
0.194535
0.105555
0.267498
0.116904
-0.384402
0.108855
0.195197
-0.140344
-0.250147
0.390489
-0.257911
-0.15167
0.409577
0.19286
0.0943261
-0.331551
0.481051
-0.149505
0.000923425
0.103314
-0.104237
0.180023
0.278279
-0.458305
-0.142967
-0.0618052
-0.347123
0.408928
-0.254843
-0.173815
0.428657
-0.127858
0.306841
-0.269874
-0.479604
-0.0809816
-0.174573
0.255554
0.255847
0.126973
-0.382823
-0.411654
0.142562
0.329147
-0.0704276
-0.0779737
0.269475
0.100353
-0.36983
0.248042
-0.472511
0.224469
-0.0314486
-0.0977879
-0.0860571
0.303364
-0.0328093
-0.00734068
0.04015
0.163191
0.0810859
-0.244278
0.452131
-0.290981
-0.161154
-0.427599
0.0960419
-0.0754716
0.0359022
-0.170139
0.141512
-0.282056
0.473241
-0.225199
0.230708
-0.1676
-0.0631081
-0.105184
0.485475
-0.163349
0.472376
-0.185505
-0.286875
-0.168969
0.461107
-0.292143
0.382929
-0.256184
-0.275418
0.360302
-0.0848869
0.314214
0.132294
-0.446509
0.419873
-0.147698
-0.201727
-0.171409
0.131894
0.266918
-0.398817
0.46655
-0.147936
-0.214279
0.461908
-0.247629
0.244447
-0.456382
0.211935
0.240237
0.265587
0.403069
-0.147224
-0.429574
-0.009419
0.438992
-0.0422165
0.0459833
-0.104332
0.0583485
0.230096
-0.4112
-0.0485369
0.0907573
0.441831
-0.182626
0.172826
0.0379458
-0.0475216
-0.41862
-0.0850652
-0.176183
0.164534
0.0116491
0.00719838
-0.0186967
0.0114983
-0.146583
-0.263884
0.410462
-0.180077
-0.104558
0.284634
-0.315966
0.135272
-0.00243647
0.248801
0.170665
-0.404756
0.234091
0.406687
-0.259919
-0.144925
0.448114
-0.36132
-0.0151471
-0.169085
-0.00542291
0.0859454
-0.0310995
0.125475
-0.0943758
0.110383
-0.335453
-0.487291
0.277202
0.457002
0.496753
-0.344663
-0.152092
0.100833
-0.331605
0.230771
-0.276559
0.393927
-0.117375
0.0425551
-0.0323007
0.173874
-0.141573