/*--------------------------------*- C++ -*----------------------------------*\
| =========                 |                                                 |
| \\      /  F ield         | OpenFOAM: The Open Source CFD Toolbox           |
|  \\    /   O peration     | Version:  v2012                                 |
|   \\  /    A nd           | Website:  www.openfoam.com                      |
|    \\/     M anipulation  |                                                 |
\*---------------------------------------------------------------------------*/
FoamFile
{
    version     2.0;
    format      ascii;
    class       volVectorField;
    location    "450";
    object      U;
}
// * * * * * * * * * * * * * * * * * * * * * * * * * * * * * * * * * * * * * //

dimensions      [0 1 -1 0 0 0 0];


internalField   nonuniform List<vector> 
18758
(
(1.00984 -0.00730486 -1.50305e-21)
(0.990712 -0.0550938 0)
(1.00331 8.64586e-06 -1.81136e-21)
(1.00856 -0.00694407 9.79416e-22)
(1.01467 0.00517275 -1.2452e-21)
(1.00722 0.00018239 -4.70871e-23)
(1.01538 -0.00503298 -7.6568e-23)
(1.02337 -0.0168137 -1.35078e-21)
(1.01345 0.00406689 0)
(1.01107 0.00309542 0)
(0.980156 -0.0311006 -8.16055e-22)
(0.818404 0.0472347 8.10936e-22)
(0.980985 0.0677273 1.47389e-21)
(1.03284 -0.0168007 3.80734e-21)
(1.01484 -0.0047405 -3.39159e-22)
(1.0122 -0.0020956 1.88314e-22)
(0.82506 0.100506 1.32816e-20)
(1.01144 0.00153956 1.13791e-23)
(1.01464 -0.00451314 0)
(1.01913 -0.0160908 0)
(0.984139 -0.133407 0)
(1.1888 -0.193789 2.79031e-20)
(1.00664 0.000127183 4.48516e-23)
(1.0066 0.00019527 -5.02457e-22)
(1.19648 -0.19908 -4.90583e-20)
(1.02473 -0.277179 0)
(0.897906 0.284853 -1.67829e-20)
(0.915609 -0.0293036 -3.97103e-21)
(1.01919 -0.116897 -1.38955e-21)
(0.98939 -0.092001 0)
(0.802297 0.334506 5.77801e-21)
(0.891125 0.289229 2.29583e-20)
(1.02336 -0.0162805 1.38006e-21)
(1.13804 -0.254554 0)
(1.01775 0.00557293 0)
(0.976664 -0.0871751 0)
(0.968483 0.0658383 0)
(1.01651 0.00453809 0)
(0.866294 -0.312463 -1.46268e-20)
(1.01432 0.00232653 1.31847e-22)
(0.867029 -0.0744308 -4.44361e-21)
(1.00727 0.00338784 2.09306e-21)
(0.894806 0.0542515 0)
(1.01147 0.00167092 0)
(1.00996 -0.000733898 3.30582e-22)
(0.833802 0.31976 0)
(1.0074 0.00201726 -1.66948e-21)
(1.00531 -0.111482 5.75786e-21)
(0.094535 0.164211 0)
(1.00642 -0.00340163 -1.05985e-21)
(0.969088 -0.0327426 2.03353e-21)
(0.872526 -0.413815 5.56326e-21)
(1.00573 -0.0023478 -1.06748e-21)
(1.00801 -0.0136791 0)
(1.11649 -0.160118 1.64806e-20)
(0.992646 0.0592836 -4.52477e-21)
(1.01193 0.00077384 0)
(1.01868 -0.0158031 -3.86704e-22)
(1.00333 -0.101249 4.74339e-21)
(1.01183 0.000675495 0)
(1.00927 -0.000578581 0)
(1.0118 0.00163002 -4.37766e-22)
(0.876515 -0.295243 1.09446e-21)
(0.518435 -0.118601 -5.70805e-22)
(1.00877 -0.000524652 -1.59658e-22)
(0.872855 -0.134852 0)
(1.00582 -0.000196384 -7.97372e-23)
(1.01004 0.00123453 -7.6428e-22)
(0.916615 -0.0212938 7.34162e-21)
(1.01147 0.00156386 0)
(0.839825 -0.411401 -1.28257e-20)
(1.01258 -0.303334 4.5814e-21)
(1.01298 -0.00506003 1.85979e-22)
(1.02275 -0.0151966 0)
(1.06507 0.012812 0)
(0.808861 0.331411 -2.29189e-20)
(1.01582 -0.356989 -7.04357e-21)
(0.847982 0.185006 -6.65111e-21)
(1.01185 0.00438974 0)
(0.904125 0.0817445 0)
(1.07525 -0.125881 -1.6602e-20)
(0.873271 -0.320522 -2.16451e-20)
(0.838987 0.154042 6.48281e-21)
(1.03688 0.00025355 2.29937e-21)
(1.00992 0.0020799 9.13922e-22)
(1.10915 -0.142716 -1.38634e-20)
(1.05193 -0.0235212 0)
(1.02351 -0.0149965 0)
(0.882716 -0.29731 0)
(1.11119 -0.137536 1.33902e-20)
(0.526614 -0.302774 2.39961e-20)
(1.00929 -0.000490597 0)
(1.07671 -0.0997164 8.59202e-22)
(0.11523 0.160543 1.76121e-20)
(1.01287 -0.00485589 -9.78365e-23)
(1.00752 -0.000864495 -1.42165e-21)
(1.01277 0.00207357 0)
(1.03149 -0.0861286 -4.19348e-21)
(0.861203 0.216229 -6.00472e-21)
(1.01061 -0.00381927 -4.53001e-22)
(0.82392 0.331202 1.02623e-20)
(1.02359 -0.0217289 -2.2677e-21)
(1.01008 0.00128015 -7.30683e-22)
(1.00746 -0.000831933 9.83762e-22)
(0.892657 -0.149233 0)
(1.00094 -0.142707 5.82785e-22)
(1.00952 -0.115167 -6.76906e-21)
(0.573261 -0.316354 -1.29567e-20)
(1.01717 -0.311382 -5.5125e-21)
(0.935404 -0.120726 2.1535e-23)
(1.01263 -0.00204042 5.11788e-22)
(0.507448 -0.133619 1.52386e-21)
(1.00293 -0.00200707 2.96625e-23)
(1.00451 -2.71933e-05 6.81752e-22)
(1.02304 -0.0227933 -2.2155e-21)
(0.808495 -0.0480765 1.49403e-21)
(1.02856 -0.0834391 0)
(1.01104 0.000490556 1.3068e-24)
(0.777864 -0.0825748 -1.6822e-20)
(1.00849 0.00103157 -7.5387e-22)
(1.00529 -4.25386e-05 1.58268e-22)
(0.987665 -0.369997 1.416e-20)
(1.00952 0.00162483 9.26347e-22)
(1.00905 0.000119992 -1.45259e-21)
(-0.0392641 0.271251 0)
(1.00863 -0.0143817 1.37653e-21)
(1.01093 0.000796439 8.45134e-22)
(1.00898 8.43783e-05 1.55124e-21)
(1.0064 -0.170673 0)
(-0.0170564 0.270963 0)
(1.00707 -0.105151 -5.22347e-21)
(1.00598 -0.000297853 2.22205e-22)
(1.01738 -0.0248311 0)
(0.690758 -0.16248 0)
(1.01453 0.00230565 0)
(1.00545 -0.000118482 3.57545e-22)
(0.783598 -0.197381 6.36352e-21)
(1.00935 0.000520424 1.21935e-21)
(0.905498 -0.105018 -4.27527e-21)
(1.07036 -0.124903 1.75709e-20)
(1.00136 -0.000706934 -1.5383e-21)
(0.8534 -0.118782 1.06096e-21)
(1.04505 -0.072302 5.24306e-21)
(1.00683 -0.340693 0)
(-0.0311815 0.276321 0)
(1.07254 -0.0753833 3.80573e-22)
(0.835186 -0.132652 -3.08946e-21)
(1.01506 -0.15847 0)
(0.984858 -0.0387095 4.21699e-23)
(0.768525 -0.236105 1.16127e-21)
(0.0633698 0.269424 -1.71954e-20)
(-0.0779059 0.266852 -2.46159e-21)
(1.02558 -0.00514311 1.38102e-21)
(1.02025 0.00394544 -1.11052e-21)
(0.867883 -0.0384789 -5.4306e-21)
(0.897366 0.320089 -6.56653e-21)
(1.0732 -0.0988078 2.99808e-21)
(1.00804 -0.176795 5.12039e-21)
(1.04559 -0.00666525 0)
(0.982753 -0.0482611 6.92049e-22)
(0.476713 -0.379592 -3.72361e-21)
(1.00999 8.84135e-05 -1.19033e-22)
(0.122874 0.193671 0)
(0.849252 -0.146258 2.50712e-20)
(0.920569 0.230024 4.95606e-21)
(1.01237 0.000155519 0)
(1.00989 0.000108565 -1.15509e-22)
(0.613521 -0.378512 -1.57784e-21)
(0.001672 0.273085 0)
(0.827803 -0.0329036 -7.69978e-21)
(-0.0441793 0.249662 -1.83688e-20)
(1.00239 7.5131e-05 1.48091e-21)
(1.01248 -0.125483 3.74686e-21)
(0.89213 -0.175688 -2.48481e-22)
(0.99177 -0.283074 5.27877e-21)
(1.01008 -0.00280667 -5.49488e-22)
(1.01296 -0.00476253 0)
(1.04859 -0.254711 1.40453e-20)
(1.15875 -0.263269 1.46897e-20)
(1.03548 -0.00770041 -1.15575e-21)
(1.00932 0.00108377 -7.11535e-22)
(1.01093 -0.0159765 0)
(1.11054 -0.158182 7.00646e-21)
(1.04045 -0.0115584 0)
(0.733607 -0.248112 1.32426e-22)
(1.01735 -0.00308396 -1.44132e-21)
(0.994331 -0.101591 0)
(1.0054 -0.0301688 1.07866e-21)
(0.173191 0.13681 0)
(1.00408 0.150943 3.93111e-21)
(-0.0784338 0.262633 -1.99099e-20)
(1.01715 -0.00313289 6.50966e-22)
(0.958201 -0.0308351 0)
(1.1417 -0.247646 -5.20197e-21)
(1.00944 0.00102253 -2.37373e-22)
(1.03851 -0.0115674 0)
(0.886697 -0.108428 0)
(1.02513 -0.00493072 0)
(0.21384 0.10679 0)
(1.0057 0.000131371 -1.76579e-22)
(1.0097 0.00176473 0)
(1.00227 -0.185089 -8.3243e-21)
(1.1618 -0.00591894 9.28355e-24)
(1.01206 -0.0016744 0)
(1.01275 -0.00219312 1.97936e-23)
(0.159323 0.177343 -3.47676e-20)
(1.01031 -0.000710511 1.02539e-21)
(1.01962 0.00547712 3.73697e-22)
(0.035682 0.26965 0)
(-0.0692098 0.266336 -2.12955e-20)
(1.00413 7.23495e-05 0)
(1.06813 -0.103734 0)
(1.00923 0.00157954 8.00926e-22)
(1.00958 -0.00353897 0)
(1.01781 -0.0149969 0)
(1.01289 0.00209105 6.54912e-23)
(1.01251 -0.000723089 -3.15252e-22)
(1.06949 -0.101034 -2.98358e-21)
(1.00798 0.000263311 -1.4749e-22)
(0.884699 -0.122212 2.18503e-21)
(1.14222 -0.250247 -6.03556e-21)
(1.01088 -7.64018e-05 -1.81011e-22)
(1.04238 -0.0707401 -7.66315e-21)
(0.995044 -0.186079 7.74506e-21)
(1.16437 0.00663985 1.4486e-22)
(0.941749 -0.118456 6.82968e-21)
(1.07357 0.0102924 1.85763e-21)
(1.12458 -0.126304 -1.71809e-20)
(0.507713 -0.379256 7.05629e-21)
(1.01015 -0.000727327 1.09749e-21)
(1.01376 -0.277471 0)
(1.0694 -0.0749952 1.9365e-20)
(0.995825 -0.261967 -7.94573e-21)
(1.00493 -0.000116992 -1.50246e-24)
(1.0096 -0.00171496 -1.55857e-22)
(1.01109 -0.000271086 0)
(1.0286 0.0475038 0)
(0.0339231 0.194378 1.53406e-20)
(0.86624 -0.111844 -4.12288e-21)
(1.02202 -0.0126318 5.75473e-22)
(1.01304 -0.00239595 0)
(1.03017 0.0398549 0)
(0.922996 -0.0997351 0)
(1.00345 5.02354e-05 -9.95423e-22)
(0.758001 -0.248006 0)
(0.912351 -0.197557 -1.91692e-21)
(1.00977 -0.00170787 -1.27543e-22)
(1.00721 -0.000389449 -7.07774e-22)
(1.01418 -0.000563348 9.16315e-22)
(1.0106 -0.00383162 -3.76926e-22)
(-0.0347578 0.246974 0)
(1.01054 0.00077486 -4.39535e-22)
(1.01201 -0.0780605 2.46183e-22)
(1.01101 -0.000344056 0)
(1.00569 0.00010414 1.20827e-22)
(0.850355 -0.144609 3.14841e-21)
(1.01225 0.000377629 5.77677e-22)
(1.00764 -0.31628 -8.28577e-22)
(1.01325 -0.000917586 2.2683e-22)
(0.927372 4.41895e-06 0)
(1.00294 -0.00367125 0)
(1.00929 0.000134328 0)
(1.0099 -0.00177684 1.63094e-22)
(0.962973 -0.0286768 3.51178e-21)
(0.759179 0.270251 2.50772e-21)
(0.778743 0.276586 0)
(1.00939 9.93144e-05 -1.17627e-22)
(0.914755 -0.108566 4.35398e-21)
(1.02599 -0.00500814 1.47e-21)
(1.01112 -0.005034 0)
(0.751797 -0.0609952 2.76148e-21)
(1.02865 -0.375311 0)
(1.01115 -0.00513339 -6.41988e-22)
(1.00988 -0.000625649 -5.67151e-22)
(1.01896 0.00268889 9.54746e-23)
(1.01751 -0.0145897 3.64528e-22)
(1.0251 -0.0288994 2.79131e-21)
(1.00841 0.000315405 3.49371e-22)
(1.00948 -0.00397216 0)
(1.03212 -0.0168893 3.20837e-21)
(1.00714 -0.000409768 0)
(1.00532 -0.000172081 -3.06128e-23)
(1.01352 -0.00222672 0)
(0.813591 -0.148349 -3.81713e-20)
(1.01514 -0.00483279 -5.34688e-22)
(1.00974 -0.00062026 -5.06072e-22)
(1.01035 0.000971934 0)
(0.931293 -0.102862 -6.40055e-22)
(1.00749 -0.000843149 0)
(1.00745 -0.00082669 0)
(1.00265 1.81164e-05 1.39294e-21)
(1.03443 -0.0100347 2.61647e-21)
(1.01173 0.000800936 4.29768e-22)
(1.0051 8.93232e-05 0)
(1.00387 3.09977e-05 4.53137e-22)
(1.0161 -0.00157474 -3.11883e-22)
(0.932924 -0.105197 -4.90236e-21)
(1.00824 -0.000404154 -1.03577e-23)
(1.00591 0.00012772 4.95065e-22)
(-0.00797965 0.258545 0)
(1.04082 -0.0230491 4.40513e-21)
(1.0053 4.96593e-05 0)
(1.00534 6.09278e-05 -1.10166e-21)
(0.8891 -0.28545 5.3155e-21)
(0.973412 0.0162847 -1.00676e-21)
(1.00936 0.00110828 -5.33738e-22)
(1.00513 -0.0149423 1.31611e-21)
(1.01086 -0.157333 0)
(1.01222 0.00193509 -4.54616e-22)
(1.0047 0.0595797 1.49717e-21)
(1.01369 -0.00228389 0)
(0.803319 0.292456 0)
(0.897118 -0.112953 -2.16101e-23)
(0.956661 -0.0832625 1.29073e-21)
(1.0244 -0.115989 7.92383e-21)
(1.13166 -0.241143 -6.9943e-20)
(1.00996 0.00129774 0)
(0.891628 -0.282507 -5.33919e-21)
(0.984835 -0.200813 -8.27248e-21)
(1.00596 -0.000219271 5.94709e-22)
(0.959594 -0.0788381 -2.46535e-21)
(1.04164 -0.00491465 0)
(0.762259 -0.219048 -1.20868e-21)
(1.00937 -0.00202953 -4.5866e-22)
(1.00992 0.00125981 3.54277e-24)
(-0.0528047 0.268662 -2.90129e-20)
(0.89512 -0.185417 4.2406e-23)
(1.00852 -0.00070644 -4.43086e-22)
(-0.0477656 0.260013 -1.29121e-20)
(1.02465 0.0291102 0)
(1.00169 0.00725544 -1.71463e-21)
(0.638843 -0.163432 -1.43411e-21)
(1.00928 -0.00189242 2.24419e-22)
(1.01254 0.000225937 -6.06817e-22)
(1.01342 -0.000992074 2.86811e-22)
(1.00484 -2.01744e-05 -4.41927e-22)
(1.01339 -0.0107362 0)
(1.00981 0.00420741 0)
(1.02376 -0.0171254 0)
(1.01046 -0.000732364 -2.51741e-21)
(1.01367 -0.0105874 -1.52579e-22)
(1.02282 -0.0126154 0)
(0.952282 0.402349 7.70854e-22)
(0.889637 -0.282942 -9.37375e-21)
(1.0095 5.10048e-05 0)
(0.892487 -0.282672 4.9685e-21)
(0.869102 0.242951 -1.05409e-20)
(1.0084 -0.000682474 1.11961e-21)
(1.04753 -0.0502117 2.85793e-21)
(0.965905 0.0244962 9.85822e-22)
(1.20155 -0.175093 1.6558e-20)
(0.847836 -0.0633393 2.41767e-22)
(0.868412 -0.0609554 1.1905e-20)
(1.0173 -0.00283471 5.9672e-22)
(-0.0483425 0.255766 0)
(0.901551 -0.14019 -1.10663e-20)
(0.994158 -0.025653 0)
(1.02296 -0.0124255 7.51512e-22)
(1.00377 0.00859636 0)
(1.01023 -0.00434919 1.52359e-21)
(1.01117 0.00130981 0)
(0.878044 -0.116141 0)
(1.11544 -0.290895 -4.23746e-21)
(0.852177 -0.011475 -1.59998e-21)
(1.09227 0.0122103 0)
(1.09817 -0.268276 -1.84604e-22)
(1.00972 -0.00178386 1.99802e-24)
(1.0428 -0.0302501 0)
(1.01109 -0.0168578 3.89724e-22)
(1.02458 -0.0853489 3.06499e-21)
(0.0520177 0.189627 0)
(0.821054 -0.0588517 0)
(0.978565 -0.245869 6.93902e-22)
(0.940316 0.0813631 6.45133e-21)
(0.867905 -0.0905571 -2.53295e-21)
(0.858846 -0.0539183 -1.64078e-20)
(1.00514 9.25928e-05 -1.27186e-22)
(0.949269 -0.14972 -4.42817e-20)
(1.01617 -0.164928 0)
(0.970993 -0.00763399 2.06414e-21)
(0.854449 0.0203234 0)
(1.00654 -0.000261596 -5.60123e-22)
(1.00667 0.000193922 0)
(1.19136 -0.184042 1.64601e-20)
(0.845467 -0.0290349 1.41154e-21)
(1.01749 0.151961 -7.60447e-21)
(0.719272 -0.0718985 -2.97635e-21)
(-0.049156 0.269293 0)
(1.02242 -0.0128223 -6.50453e-22)
(0.828524 0.0286684 1.19321e-21)
(0.919794 -0.110221 5.54618e-22)
(1.01237 -0.00213163 1.14497e-23)
(1.03035 -0.016589 -5.39901e-21)
(1.01623 -0.0147525 0)
(1.01543 0.00281215 2.18602e-22)
(1.00522 -5.46651e-05 -8.84878e-22)
(1.01051 -0.00474868 2.5026e-22)
(1.01931 -0.00285207 0)
(1.00404 -0.000116527 2.63533e-22)
(1.00362 7.76081e-06 0)
(1.01343 -0.00121598 3.35186e-22)
(1.01359 -0.0143074 0)
(0.900492 -0.300977 -2.12442e-20)
(1.05326 -0.0358739 6.80223e-21)
(0.735497 0.28086 -6.90003e-21)
(0.745406 0.289142 1.94516e-20)
(0.0587667 0.268683 5.47123e-21)
(0.923917 -0.287307 1.7466e-20)
(0.994835 -0.153194 -2.5548e-21)
(1.01521 -0.00134999 0)
(1.00651 0.000186789 -5.73757e-22)
(0.887148 0.0469109 1.71594e-22)
(1.02972 -0.0166541 0)
(1.02148 -0.0127563 0)
(0.801556 -0.30838 0)
(1.02169 -0.0824704 -3.09881e-21)
(0.927199 -0.0372316 0)
(1.01238 0.000451739 -6.14016e-22)
(0.936785 0.409758 0)
(1.00988 -0.000700618 -3.71842e-23)
(1.04067 -0.0239421 -5.8766e-21)
(1.00936 0.00110901 -3.5447e-22)
(0.330605 0.0511378 0)
(0.793093 0.294739 0)
(0.845962 -0.0847677 1.74782e-21)
(1.00389 4.4666e-05 9.25995e-22)
(0.591189 -0.15005 2.9357e-20)
(1.08185 -0.0939967 -7.10416e-21)
(1.01346 -0.000780047 -2.16316e-22)
(1.01575 0.00216152 -1.46104e-21)
(1.00409 5.81228e-05 -9.22347e-22)
(0.985063 -0.232696 -4.01513e-21)
(1.00387 2.4266e-05 -2.11217e-22)
(1.00514 0.0001039 9.8703e-22)
(0.889746 0.26789 -5.32858e-21)
(1.05489 -0.0361086 2.77244e-21)
(1.02183 -0.0129153 0)
(1.01281 -0.00455512 0)
(1.02229 -0.015853 5.25435e-22)
(1.02132 -0.0186188 0)
(0.517598 -0.163085 -5.42564e-21)
(0.942938 -0.0690668 -2.23529e-21)
(1.00314 7.10182e-05 2.06318e-22)
(0.901926 -0.139528 -2.20252e-20)
(1.0094 0.00111156 0)
(1.0092 0.00456765 8.6809e-22)
(1.12331 -0.122584 -2.03173e-20)
(1.01607 -0.000510894 0)
(0.807219 0.328611 8.35144e-21)
(1.00307 0.000114907 -2.21671e-23)
(1.02086 -0.0184154 1.83462e-23)
(1.00329 3.90285e-05 -7.06073e-23)
(0.834831 -0.0518014 1.63222e-20)
(1.01719 -0.00280107 -6.04619e-22)
(1.019 -0.0028421 0)
(-0.00890666 0.220864 1.48715e-20)
(0.970757 0.00855611 1.05404e-21)
(1.01057 0.00111814 4.57313e-24)
(1.04164 -0.0298583 0)
(1.01646 -0.00270607 2.11059e-21)
(1.01215 -0.00182155 1.12828e-22)
(1.00489 4.39559e-05 0)
(1.01279 -0.000568981 -4.34386e-22)
(0.731648 0.235924 0)
(0.271367 -0.18605 -1.14104e-20)
(1.02613 -0.00790799 0)
(1.02172 -0.0497243 4.78007e-21)
(1.06842 -0.266099 0)
(1.04436 -0.246941 0)
(0.91633 -0.211515 1.36726e-20)
(0.904709 -0.187418 -2.26388e-22)
(0.911003 -0.22614 -9.78687e-21)
(1.01065 0.000588441 -9.2493e-22)
(0.996459 -0.145223 -2.75926e-21)
(1.02311 0.034883 -2.77308e-21)
(1.02066 -0.01131 2.84271e-21)
(1.02298 -0.0159869 -1.29377e-21)
(0.883126 -0.140086 -1.13323e-21)
(0.987712 0.0215375 1.50518e-21)
(1.00217 0.00115334 -8.36258e-22)
(1.00585 4.29831e-05 0)
(1.01534 -0.00513339 -4.30206e-22)
(1.00758 -0.000893206 -1.16286e-21)
(1.0159 -0.00049236 4.80903e-22)
(1.00753 -0.000855911 -4.59201e-22)
(1.01562 -0.000210503 -9.00593e-22)
(1.02981 0.0701027 -4.44303e-22)
(1.00309 1.46999e-05 0)
(1.00926 0.000975095 -2.57689e-22)
(1.08686 -0.0898026 8.73103e-21)
(1.00608 -0.00028 6.10424e-22)
(1.00317 3.16612e-05 3.47768e-22)
(1.01416 0.00238127 6.34865e-23)
(1.01581 -0.00295386 0)
(0.991576 0.0233087 -1.52524e-21)
(0.963546 -0.1434 -1.17083e-21)
(1.01032 -0.00075352 6.05698e-24)
(0.965572 -0.0237489 -1.30419e-21)
(1.00643 0.000116339 0)
(1.05071 -0.0375025 -3.17313e-22)
(1.06717 -0.171893 -6.77257e-22)
(0.19131 -0.107491 0)
(0.923937 0.0775665 0)
(1.01271 -0.000879366 -6.30119e-22)
(1.01754 -0.00278961 -7.58835e-22)
(0.245852 -0.158736 8.17072e-21)
(0.643422 -0.149919 2.83941e-20)
(1.00357 0.0157698 -5.97409e-22)
(1.01215 0.000623086 -1.54727e-24)
(0.916165 -0.0693275 2.41116e-21)
(0.800521 -0.132655 -4.18917e-20)
(1.01048 0.00103474 -1.82185e-23)
(1.00712 0.000160142 0)
(0.558868 -0.372857 -5.50128e-21)
(1.01832 -0.0150285 -6.80304e-22)
(1.06699 -0.129611 1.64931e-20)
(1.00655 0.0174785 -4.68447e-22)
(1.0168 0.00218069 7.06886e-22)
(1.01983 -0.0486523 -4.02205e-21)
(1.00729 -0.000422121 1.4345e-21)
(1.00979 -0.00251387 0)
(1.01 -0.00048742 5.33727e-23)
(1.0055 8.22213e-05 -2.45492e-22)
(1.01009 -0.000671918 -9.92352e-22)
(1.0097 -0.000645194 -2.38967e-22)
(0.895489 0.285454 -4.36429e-21)
(1.00846 0.000675566 -4.58308e-22)
(0.925486 -0.0225476 3.55586e-21)
(1.05525 -0.307566 0)
(1.01071 0.00118687 -9.43946e-24)
(1.00856 0.000727043 0)
(1.0022 9.60846e-06 0)
(1.03366 -0.0308832 0)
(1.01494 -0.0244956 -2.58237e-21)
(0.943048 -0.0782477 3.0139e-21)
(1.01074 -0.00397272 -1.8773e-22)
(1.00759 0.147208 -2.7102e-21)
(1.01481 -0.0181686 5.64233e-22)
(1.02149 -0.0118438 -3.045e-21)
(1.01058 0.000198578 -1.47687e-21)
(1.01294 -0.000853341 0)
(1.01485 -0.000689463 -6.24192e-22)
(1.02574 -0.00884176 -1.41369e-21)
(1.02568 -0.00848476 0)
(0.0147026 0.188133 -1.42735e-20)
(0.736066 -0.267009 -8.3434e-22)
(1.00706 -0.000374879 0)
(1.00994 -0.000684415 -1.02599e-21)
(1.0337 -0.00958476 -7.4663e-21)
(0.5915 -0.382164 1.30434e-21)
(1.00946 0.00115474 3.38263e-22)
(1.01314 0.00216744 1.07344e-24)
(1.01556 -0.00021711 -9.64343e-22)
(1.00923 0.000989003 -4.96505e-22)
(1.00955 -0.000548406 -1.04293e-21)
(1.01047 0.000155532 6.85143e-22)
(1.01591 -0.013511 0)
(1.01209 -0.00194035 -1.83872e-22)
(0.997505 -0.102463 -2.67616e-21)
(1.01076 -0.00395381 0)
(1.01486 0.0023126 0)
(0.968316 0.051102 -1.70071e-21)
(0.166203 -0.0796439 -4.38537e-21)
(1.00492 0.00260817 3.93772e-22)
(1.01076 0.000751777 -9.22857e-22)
(1.01034 -0.00343109 0)
(1.00239 -1.66717e-05 1.9583e-22)
(1.01303 -0.00405728 0)
(1.00885 0.000428313 -5.63953e-22)
(0.96151 -0.030427 1.20303e-21)
(0.938544 0.00661604 7.85461e-22)
(1.03498 -0.00888299 2.67712e-21)
(0.972941 -0.197924 1.10233e-21)
(1.01025 -0.00329814 0)
(1.04841 -0.0522722 -9.19626e-21)
(1.01118 0.00106216 0)
(1.00564 0.000114796 7.86273e-22)
(1.0677 -0.0781495 -1.14938e-20)
(1.0114 0.00153307 -6.29265e-23)
(1.00539 7.7403e-05 1.00449e-23)
(0.903539 -0.296535 -6.38789e-21)
(1.00345 3.82587e-05 -2.98138e-22)
(1.03854 -0.0124203 -8.94246e-22)
(1.0911 0.00197677 0)
(1.00497 4.78846e-05 0)
(1.01627 -0.00370399 0)
(0.27541 0.0851185 0)
(1.01097 0.000506606 0)
(1.04465 0.0700605 -1.72825e-22)
(0.99384 0.0213834 0)
(1.00474 5.91969e-05 0)
(1.00324 2.39893e-05 7.07754e-22)
(1.0351 -0.00278015 2.79384e-22)
(1.02146 -0.0160823 5.22906e-22)
(1.01376 -0.0246753 -5.80253e-22)
(1.00997 -0.00272185 -1.5579e-21)
(0.927999 -0.0976343 0)
(0.954601 -0.202313 5.89696e-22)
(0.900967 -0.231274 7.42325e-21)
(1.00743 -0.000506972 3.83983e-22)
(0.0127296 0.257197 0)
(1.00916 0.000846488 0)
(1.00407 5.58053e-05 3.71987e-22)
(1.01112 -0.00414315 5.74752e-22)
(1.00582 0.00124121 0)
(0.960691 0.193698 1.49165e-20)
(0.93958 0.0499075 -7.8954e-21)
(1.0118 -0.00112995 0)
(1.03931 -0.01115 6.52968e-21)
(1.00893 0.00173434 -7.64452e-22)
(0.908443 0.351854 6.65432e-21)
(0.922324 -0.0588825 -2.27683e-21)
(1.01061 -0.00162474 -4.72668e-23)
(1.00538 -0.0183257 0)
(1.03843 -0.0245376 0)
(0.00590275 0.215009 0)
(1.01836 -0.0255917 0)
(1.00156 0.016743 -3.87078e-22)
(1.00839 -0.000948855 -4.69353e-22)
(1.00592 0.00263388 0)
(1.01491 -0.0804907 3.53374e-22)
(1.00488 5.71906e-05 0)
(1.00849 -0.000937708 -4.92328e-22)
(1.00939 0.00113283 -2.12188e-22)
(1.00802 -0.000573168 -6.38464e-22)
(1.02159 -0.0255734 1.83244e-21)
(0.956842 -0.057819 0)
(1.00927 -0.0691913 6.25107e-24)
(0.897511 -0.293587 6.42535e-21)
(1.00515 0.0175847 1.12437e-21)
(1.01707 -0.00154562 9.79975e-22)
(1.01108 -0.00419138 -8.86385e-22)
(1.00694 -0.000235714 0)
(0.908415 -0.0176623 -2.25878e-21)
(1.20202 -0.183421 0)
(1.01441 0.00236977 -1.00272e-22)
(1.0367 -0.0714018 -2.11104e-21)
(-0.079863 0.269337 0)
(0.00857119 0.200506 0)
(1.00326 1.15835e-05 4.56808e-22)
(1.00453 0.000127025 0)
(1.04101 -0.000651661 0)
(0.989922 -0.151058 1.43435e-20)
(1.00922 0.000835303 2.39575e-22)
(0.971838 0.032554 -9.42229e-22)
(1.01092 -0.00434722 -6.23116e-22)
(1.00429 -5.76921e-05 -2.52231e-22)
(1.04686 -0.042326 9.42245e-21)
(1.01343 -0.000730366 8.9056e-22)
(1.02616 -0.00828488 0)
(1.01224 0.00241232 6.24702e-22)
(1.00726 -0.000608184 -3.98935e-22)
(1.01449 0.00256808 0)
(0.955125 -0.0659203 -6.1223e-22)
(1.06436 -0.077565 1.04443e-20)
(0.948519 0.191244 1.84255e-20)
(1.00941 -0.0031283 0)
(1.0097 -0.000567591 -6.15957e-22)
(0.791102 -0.0744216 5.80533e-21)
(1.01329 0.00220238 -7.91505e-23)
(0.758306 -0.0788029 9.31736e-21)
(0.894301 0.283843 -3.1207e-22)
(1.01091 -0.00430495 1.59915e-21)
(0.776258 -0.241306 8.33758e-21)
(1.0135 0.00412093 0)
(1.01073 0.000904683 1.43271e-21)
(0.819966 -0.233023 1.64966e-20)
(0.893422 -0.18314 0)
(0.894906 -0.185693 1.81993e-22)
(0.734161 0.249178 -2.57343e-21)
(1.02145 -0.0157196 -7.08962e-22)
(0.884634 0.281317 1.05292e-20)
(1.00833 0.000601782 3.2026e-22)
(1.00226 -0.155828 -4.18327e-20)
(0.0560978 0.265022 -2.63773e-20)
(0.995556 -0.0230816 2.23316e-21)
(1.0112 -0.000608601 0)
(0.819526 -0.0715261 3.24055e-20)
(1.03784 -0.0234477 1.74713e-21)
(1.05416 -0.039268 7.22324e-22)
(0.966371 -0.170029 0)
(0.610451 -0.176186 -1.61126e-21)
(1.02423 -0.00502383 1.86658e-21)
(0.899097 0.276712 9.46973e-21)
(1.00535 0.000108166 0)
(1.03332 -0.0731388 4.86949e-21)
(1.01777 -0.123162 1.61932e-21)
(1.00565 2.57747e-05 0)
(1.02463 -0.039192 3.65377e-21)
(1.02426 -0.355624 0)
(1.02951 0.0786831 0)
(1.02216 -0.0168067 -2.56753e-21)
(1.01619 -0.0139037 0)
(1.0094 0.00103434 -7.84947e-24)
(1.02342 -0.0124812 1.87274e-21)
(1.01631 -0.00238408 9.25546e-22)
(1.00364 -0.0284332 -3.90446e-21)
(1.06431 0.0356254 6.52996e-21)
(1.01007 -0.000522589 5.50846e-22)
(0.7948 -0.0532641 -7.21508e-21)
(1.01655 -0.00201055 -1.6688e-23)
(1.0111 -0.00482973 0)
(1.04832 -0.0297388 -1.66488e-20)
(1.00858 0.000718931 0)
(1.023 -0.0128114 3.65671e-23)
(1.01338 -0.00229002 0)
(1.00813 -0.000576403 -2.72727e-22)
(0.740461 -0.240259 6.46676e-22)
(1.00694 -0.000303796 3.50786e-22)
(1.00976 -0.00443116 -1.6433e-21)
(0.888461 0.0677116 0)
(1.0806 -0.0967256 9.52802e-22)
(1.097 -0.0910657 -1.93927e-20)
(1.01789 -0.00227423 -2.45696e-22)
(1.01126 -0.00544036 0)
(0.981045 -0.0345988 -1.10638e-21)
(1.01161 -0.00594766 3.03098e-23)
(0.979717 -0.133539 -1.45589e-20)
(1.04236 -0.0214557 0)
(1.01869 -0.0153331 5.43372e-22)
(1.02902 -0.0148534 -3.35547e-21)
(1.01109 -0.00428178 -1.92225e-21)
(1.00935 0.00095717 2.50794e-25)
(0.572731 -0.378519 -1.09048e-21)
(1.00865 0.000766614 0)
(0.287625 -0.255909 6.94652e-23)
(0.993291 -0.198393 3.81373e-21)
(1.0356 -0.00858407 2.73545e-21)
(0.742258 -0.387621 -1.69302e-20)
(1.00632 0.000155949 4.64422e-22)
(1.00242 0.00476365 1.70552e-21)
(1.02165 -0.0167596 8.12152e-22)
(0.682948 -0.0633985 1.82801e-20)
(1.04378 -0.0199056 -9.54106e-21)
(0.943205 -0.0383659 0)
(0.871659 0.0433849 5.67652e-23)
(1.0041 5.84987e-05 0)
(0.899106 0.0905023 1.67216e-22)
(1.00668 9.53132e-05 -3.65051e-22)
(0.966523 -0.158996 1.87396e-22)
(1.01151 -0.0059336 0)
(1.02527 -0.0106685 -1.17796e-21)
(0.930097 -0.343908 2.57076e-20)
(0.865598 0.0332104 0)
(1.01293 -0.00223715 -2.81025e-22)
(1.01473 -0.00881146 0)
(1.02265 -0.0161313 6.81723e-22)
(1.00816 -0.000209953 9.49908e-22)
(1.01765 -0.00223123 7.75249e-22)
(0.87673 -0.0932155 1.90956e-21)
(0.190469 -0.0442545 -4.02385e-20)
(1.01114 -8.69487e-05 -9.89312e-22)
(1.00803 -0.000210179 -4.81033e-22)
(1.00667 9.00003e-05 -3.7758e-22)
(0.550985 -0.114306 -3.13585e-21)
(0.948811 0.0556981 3.31909e-21)
(1.00578 0.0306436 0)
(1.00726 -0.000553908 0)
(0.998496 -0.0165801 1.48106e-21)
(1.02485 -0.0106602 3.80854e-21)
(1.0112 -0.00536268 0)
(1.05243 -0.0377386 5.27555e-21)
(0.845551 0.18314 7.94039e-21)
(1.0107 -0.00151617 8.45472e-23)
(1.03951 -0.0730979 0)
(0.935423 -0.105117 2.32067e-21)
(1.01805 0.00254437 -1.96506e-22)
(0.976603 0.0166605 -3.53399e-22)
(1.0187 -0.00473583 -3.78471e-23)
(1.0175 -0.0235621 -3.84998e-22)
(1.01066 -0.00137996 0)
(1.01116 0.000458852 3.20183e-22)
(1.04069 -0.0310849 -1.54807e-21)
(1.0111 -0.00471761 -2.34735e-23)
(1.01755 -0.0837104 -4.12756e-21)
(1.01569 -0.0005434 4.54376e-22)
(0.735399 -0.157179 -2.40877e-20)
(1.00675 -0.000290516 0)
(1.0422 -0.0224962 2.68531e-21)
(1.0154 -0.112283 -6.18884e-22)
(1.01575 0.0755198 4.49651e-22)
(1.03074 -0.0710501 0)
(1.00606 0.00018055 4.54929e-22)
(1.01108 -0.00419829 1.63589e-21)
(0.877939 -0.0156787 -2.86925e-21)
(0.993934 -0.0170394 -2.33018e-21)
(1.05177 -0.0339453 -7.89559e-22)
(1.00799 -0.00101305 5.80183e-22)
(1.01044 -0.00363524 -3.647e-22)
(1.02251 -0.0149489 -4.85425e-23)
(0.0460667 0.208075 0)
(0.872968 0.0629746 0)
(1.01101 5.54647e-06 2.21625e-21)
(1.0128 -0.00248269 0)
(1.02036 -0.0128459 -6.07483e-22)
(1.01465 -0.0085241 1.21571e-22)
(1.01279 0.00282553 6.51097e-22)
(1.01246 -0.00428958 -5.02287e-23)
(1.00471 5.65214e-05 1.58974e-21)
(0.900182 -0.219668 -8.05928e-21)
(1.01339 -0.00236689 0)
(1.01651 -0.0038851 0)
(0.8724 -0.00624888 6.17511e-21)
(1.00746 -0.000434095 7.82849e-22)
(0.909627 -0.207058 3.78472e-21)
(0.945329 0.00655602 9.55052e-21)
(0.947712 0.387492 -8.54541e-22)
(0.774141 -0.20752 1.72766e-21)
(0.853106 -0.121116 -2.04468e-21)
(0.16345 -0.0139774 1.28324e-21)
(1.01273 -0.00424551 -4.76173e-24)
(1.01054 -0.003777 4.02287e-22)
(1.01678 -0.0148411 0)
(1.01097 -2.24701e-05 9.28971e-22)
(1.01076 -0.00201511 0)
(1.00608 5.83001e-05 3.34082e-22)
(1.00555 6.47564e-05 -1.46186e-21)
(1.02343 -0.0121654 -1.07248e-21)
(0.537775 -0.135859 6.80604e-22)
(1.07286 -0.169494 6.1194e-22)
(0.938891 -0.0955585 0)
(1.01634 0.00462542 9.57055e-22)
(1.01028 -0.0033972 -1.75331e-22)
(1.01377 -0.0187435 -1.81979e-22)
(1.0149 -0.0136673 0)
(0.972403 -0.0320986 -1.46861e-21)
(1.00328 2.12436e-05 0)
(1.00896 -0.00250589 -2.3459e-21)
(1.01104 0.000527325 3.15176e-22)
(0.140267 0.052407 -2.91009e-20)
(1.14446 -0.200532 -1.10797e-20)
(0.915777 -0.289223 2.67007e-21)
(1.00502 -0.000140006 -7.3305e-22)
(1.0081 -0.121743 -7.91101e-21)
(1.00028 -0.158169 0)
(0.980091 0.0222523 1.92432e-21)
(0.0252955 0.21489 0)
(0.751883 0.153639 -3.36159e-21)
(1.01677 -0.0130825 0)
(1.01966 0.00203026 0)
(1.01508 0.0022359 0)
(1.15677 -0.276058 1.44444e-20)
(1.01821 -0.00914753 3.373e-22)
(1.00863 0.000617382 -4.41196e-22)
(0.970656 -0.0759408 -9.75111e-23)
(0.954421 0.141236 -2.6006e-20)
(1.01253 -0.00364173 0)
(1.02312 -0.0742045 6.11637e-22)
(0.95005 -0.0721319 0)
(1.01383 -0.00219275 -3.1101e-22)
(1.01164 -0.0040672 -1.30762e-22)
(1.01406 -0.00197482 -5.84549e-22)
(1.01043 -0.00268019 -1.60448e-21)
(1.01493 -0.00512412 2.27378e-22)
(1.01454 -0.00149909 -1.24354e-21)
(1.02162 -0.0360781 2.20599e-21)
(1.01386 -0.00544996 0)
(1.0181 -0.00931157 -5.82575e-22)
(0.91109 -0.298345 -6.20114e-21)
(0.104187 0.0843132 1.12953e-20)
(1.01437 -0.00441156 -2.76447e-23)
(0.894291 -0.165027 -3.04215e-21)
(1.10026 -0.235974 -1.08881e-20)
(1.01232 -0.0104678 0)
(1.01123 -0.00111522 1.0164e-22)
(1.01104 -0.000110824 9.40476e-22)
(1.00802 0.000244916 -5.07113e-23)
(1.01421 -0.0137719 1.25458e-21)
(1.01212 -0.0101475 4.39405e-22)
(1.00433 6.33006e-05 0)
(1.02528 -0.00911315 -2.45475e-21)
(1.01423 -0.00192385 -5.9384e-22)
(1.01951 -0.00905514 7.33031e-22)
(0.963923 -0.363206 -2.1297e-20)
(1.02379 -0.0288058 -1.59607e-21)
(1.00504 3.02256e-05 1.44732e-21)
(1.01035 -0.00259927 0)
(0.906699 0.309632 -1.09629e-20)
(1.02472 -0.0051924 -4.02932e-21)
(1.00876 0.000673128 0)
(0.63389 -0.181605 -1.77321e-20)
(1.01098 -0.00194813 0)
(1.01997 -0.0455157 1.99217e-21)
(1.0395 -0.0307868 7.83126e-22)
(1.01674 -0.00365882 1.20254e-21)
(1.00788 -0.00101108 -1.15086e-21)
(1.00843 -0.000173408 8.80898e-22)
(1.01927 -0.0165248 1.10611e-21)
(1.06815 -0.059413 2.00108e-20)
(1.00453 3.39347e-05 -7.32765e-22)
(0.858317 -0.139474 -8.3918e-21)
(0.968183 -0.0344164 -4.49236e-22)
(0.990778 -0.140346 -4.26549e-21)
(0.753927 0.185738 0)
(1.02019 -0.0124322 5.97914e-22)
(1.0197 0.0499634 -8.05e-22)
(1.00843 0.000651885 0)
(0.92209 -0.0819753 0)
(1.03509 -0.00971849 -1.15241e-20)
(1.01018 -0.00249981 1.21816e-21)
(1.07027 -0.185026 0)
(0.837012 -0.140624 4.35229e-21)
(1.01082 -0.00581909 -7.90261e-22)
(0.965492 -0.215617 0)
(1.00453 -0.293172 -2.46098e-20)
(1.00648 0.000178531 0)
(1.0463 -0.0403494 0)
(1.00888 0.000715609 4.64896e-22)
(1.01287 -0.000590751 1.28003e-22)
(1.02111 -0.0266199 -1.56203e-21)
(1.01004 -0.00408558 0)
(1.00664 -0.000246529 0)
(1.00361 0.0219021 8.73289e-22)
(1.01025 -0.00193857 1.13926e-22)
(1.00991 -0.000493836 -5.74848e-22)
(0.8724 -0.123264 -4.75966e-21)
(1.01085 0.000304249 4.47395e-22)
(1.01073 -0.00212656 0)
(1.0079 -0.00104584 7.25095e-22)
(1.01247 -0.369249 -7.91433e-21)
(1.01036 -0.0026158 -4.27431e-23)
(1.01038 -4.13686e-05 8.40855e-22)
(1.02083 -0.0343611 -2.48742e-21)
(1.1684 0.0117281 0)
(1.03004 0.0313972 -6.46868e-21)
(0.859464 -0.134534 -3.66595e-21)
(0.892913 0.285558 8.31529e-21)
(1.00989 -0.0026067 0)
(1.0089 0.000876545 1.5866e-22)
(1.01698 -0.00363052 -6.49834e-22)
(0.57821 -0.188878 0)
(1.00336 -3.41137e-05 0)
(1.00913 -0.00174313 -5.79398e-22)
(1.03223 -0.0201637 0)
(1.01081 0.000615521 -6.14266e-22)
(0.958031 -0.144847 1.40031e-21)
(1.01932 -0.00949465 -2.03231e-22)
(1.02217 -0.00688201 -3.03672e-21)
(1.12957 -0.15412 -3.34833e-21)
(1.01193 -0.00395246 -1.95943e-22)
(1.08593 -0.0931741 4.5804e-21)
(0.813904 0.334024 -1.00422e-20)
(1.00892 0.000867673 0)
(1.01368 -0.00533162 0)
(0.96299 -0.357029 2.10719e-20)
(1.017 -0.0144607 -3.61607e-22)