/*--------------------------------*- C++ -*----------------------------------*\
| =========                 |                                                 |
| \\      /  F ield         | OpenFOAM: The Open Source CFD Toolbox           |
|  \\    /   O peration     | Version:  v2012                                 |
|   \\  /    A nd           | Website:  www.openfoam.com                      |
|    \\/     M anipulation  |                                                 |
\*---------------------------------------------------------------------------*/
FoamFile
{
    version     2.0;
    format      ascii;
    class       volScalarField;
    location    "1000";
    object      omega;
}
// * * * * * * * * * * * * * * * * * * * * * * * * * * * * * * * * * * * * * //

dimensions      [0 0 -1 0 0 0 0];


internalField   nonuniform List<scalar> 
18355
(
0.0339341
5.37221
0.0218846
0.0216619
0.0223502
0.0767505
0.0219577
0.0572867
0.0232985
5.3084
0.0215198
6.7997
0.0968122
0.0219731
0.0220807
0.0236183
7.02466
0.0217349
0.0220258
4.37523
0.0255396
0.0223773
5.88334
0.0223566
0.0246651
0.0221463
0.0220715
0.0230914
4.33683
0.0219437
0.0219708
0.023042
0.0217364
0.0217973
0.0532089
0.0349601
0.0225374
0.164683
0.0229844
0.0215362
0.0219726
0.0838025
0.0218857
7.88005
0.021769
0.173325
0.0505614
0.0238041
0.045004
0.0217556
0.0215537
0.0218334
0.022277
5.69118
0.0220868
0.0220737
0.105105
0.0221056
3.65657
0.133868
0.0217613
0.062031
0.0217179
0.0429416
6.16191
0.0328969
12.5112
0.0321983
0.0220776
0.0223076
0.061239
0.0222568
0.143199
0.0217977
0.0574022
0.0219538
5.89785
0.023001
0.0270622
0.0218123
0.0219697
0.80373
0.0253256
0.0455374
0.0221385
0.0950174
4.73638
4.34182
4.05233
6.21885
0.33228
0.0218299
0.0221099
0.0214789
21.7058
5.67267
0.0217735
0.0252925
5.42809
6.12314
4.92942
6.47694
0.0422212
2.94086
0.0225621
0.106647
10.1233
0.135724
0.0310951
0.356828
0.0219167
0.0227897
0.022148
0.0229104
4.87383
0.0220038
4.72599
5.89887
4.48329
0.042351
5.09109
3.68396
0.0229421
0.0607964
0.0217738
0.147079
0.0218291
0.0222617
7.73589
0.0214856
0.0215605
5.44547
0.0463768
0.0250851
0.0418221
0.0222575
0.0219221
0.0215176
0.0219491
0.0782668
4.0901
2.33648
0.0223656
0.0219161
0.41508
0.0222637
0.0255679
6.63785
0.0233827
6.53447
0.022194
0.0222877
0.0499852
3.70409
0.0721977
0.0222699
5.14447
3.66191
0.0222675
0.0668012
0.0268679
0.0243944
0.0299272
0.0254169
0.213756
2.08203
9.51938
0.0423824
0.212363
0.0217692
2.11152
5.46466
0.0215235
0.021528
0.0236013
7.21169
0.05329
0.022102
4.70385
23.6614
0.0789507
0.210165
0.0270986
0.0219121
0.245965
6.82517
6.37037
0.227963
0.0233601
8.11628
0.102006
0.0218888
0.0252487
3.11038
0.0480474
0.0223469
5.75258
0.0267846
0.0372864
0.0215311
0.0227278
0.0240817
12.8376
6.14475
24.6643
0.0284601
3.44959
4.9586
5.08804
0.0368259
0.0219269
0.022138
4.07499
0.0223001
0.0217709
0.736884
4.08438
4.10859
0.0221553
0.0233218
0.566436
0.0219403
0.0440951
0.0219048
8.23201
0.0221812
4.83745
6.90149
0.120267
0.0219268
0.0222738
0.0266208
0.0260879
4.95644
0.022738
0.0221393
0.0221107
0.194997
0.480602
30.7421
0.0304191
0.210174
0.0220241
0.0217813
0.022239
8.89785
8.49059
3.18475
0.0711136
0.0267457
0.0227351
6.90067
0.0272789
5.20683
0.0221046
4.96501
4.47898
0.0670887
0.021939
0.0219143
0.0319069
0.0671863
15.7708
0.0481437
0.0218276
0.0217708
0.0222632
0.234014
0.081453
0.106002
0.0227671
10.0991
0.245059
0.101702
0.0221816
5.6948
0.0218171
0.0219888
9.64428
0.0218103
0.021952
0.104123
0.0219013
4.44832
0.0270541
0.0242804
0.0218294
0.0424119
6.00397
0.023077
0.021669
0.0219848
0.132937
4.73851
0.022267
0.0222792
4.34777
0.0447833
0.0721892
0.247534
0.0219942
0.0626273
0.0225282
0.0222689
0.229069
0.226427
0.313834
0.141522
0.0214949
0.0864447
0.022454
0.0220247
6.78344
0.0219018
0.236217
0.0826529
0.0221026
0.0215869
0.21807
26.1686
5.13215
0.0221503
0.0291024
9.15039
0.0216606
0.523831
0.0266565
0.0328809
0.422691
0.0214978
3.14036
0.0219876
0.0445988
0.0221227
0.0710669
5.54954
0.0222708
18.8822
0.0347437
0.022043
0.048969
0.0629892
4.08715
5.59654
2.2709
0.0220893
0.0217114
5.66619
0.0626895
0.022118
0.0225332
0.36211
0.244212
4.19082
5.88381
0.0220965
0.0232314
3.36835
0.0219127
0.0226451
0.282899
0.0371581
0.0238105
22.9224
0.0222756
0.0465092
0.677404
32.4346
0.0216639
0.0219898
0.02196
0.0217837
0.065289
0.0217827
0.0400096
0.021964
0.0242005
0.0220993
0.0231747
0.0217842
0.0220181
0.0217754
0.0217716
0.0232788
0.125504
2.06249
0.0219024
5.07658
0.0347102
1.99833
0.0313871
0.074085
0.0222916
5.0059
0.0224565
0.0220086
0.0221329
0.0216335
5.36281
0.0239353
0.0216648
0.0425448
0.0394727
0.0219132
0.0216558
5.17462
0.0223021
0.021822
4.98166
0.0219053
3.44808
8.33413
0.283603
0.0252657
0.0225484
5.39029
0.0222454
0.0219269
4.39832
0.0222692
0.0215257
8.54144
0.0217908
5.29963
0.0409262
0.0581205
7.06822
0.0224273
0.0219284
5.58653
0.0756865
2.17064
2.92651
0.0219714
0.0219217
0.0222457
3.56378
0.0440828
0.0220559
0.0222748
0.0222833
0.0490792
3.69363
0.0273076
0.022206
0.0222753
0.0309214
0.36013
4.76769
4.97337
6.3301
0.0524897
0.0469921
6.18375
0.0219798
0.0218352
0.0219849
0.0218972
0.0630724
0.0220163
0.0216148
6.74055
0.0501558
0.046409
6.36605
0.054775
8.64501
0.0218837
0.0217763
0.0219278
0.0219751
0.0222834
0.0222812
0.022
2.2955
0.0221474
0.0215329
2.31825
0.137056
0.0218439
0.0227411
0.0564146
11.1778
0.0233657
0.0217685
4.15504
0.0237932
7.43918
0.0269113
0.021794
6.51773
0.136584
0.0217287
5.38138
2.90222
5.86661
0.0217948
0.0217559
0.0256157
0.127115
0.022361
8.58015
2.82708
4.85833
1.66262
0.0216251
0.0403755
4.63833
5.66292
5.01992
0.022123
0.0266541
0.0268458
5.2069
6.04393
0.356697
0.022188
0.021949
0.0221244
0.0444947
0.0220051
5.18171
0.0271368
5.01977
0.0219662
0.0222338
0.0219125
0.0314205
0.0317712
0.344856
0.0219205
0.100055
4.65836
0.0290656
0.0219395
0.0239172
0.0297134
0.0222719
0.0320148
0.0376708
0.028834
0.143631
0.0226166
0.0217249
0.0219896
0.0222786
0.0407515
0.0237834
0.0624627
0.021876
0.0223563
3.09
0.0215088
0.0320874
0.0224746
0.15017
0.0240547
5.3436
0.0224093
33.5745
0.0258707
0.0238873
4.51021
2.99736
10.7244
0.0290913
0.0237439
0.0218051
0.0219501
0.103532
0.0473614
0.032984
0.0792589
2.371
0.217072
0.0219274
5.41858
6.46636
0.0228568
0.0219466
0.0320642
5.97674
0.0320209
0.0222161
0.0599879
0.133542
0.0547322
0.0301628
3.56584
0.0250754
0.0984423
8.64924
0.448217
6.23463
0.0558051
0.165826
0.0266577
0.0220782
0.0228903
0.021937
0.322621
0.356696
5.67845
0.118748
5.31848
6.23487
0.0546961
0.0238932
7.11931
10.6409
0.0215319
0.132727
6.78077
7.84981
0.0274118
0.0216102
0.0250082
0.0253943
0.0293967
0.0860196
0.0218997
33.2979
0.0233561
0.0248024
5.16568
0.0218699
0.0322102
5.1567
0.0219351
0.0227941
5.38378
0.0217568
0.100078
0.021507
4.7624
0.029281
0.0393737
0.0334151
0.0250901
0.124023
0.0248123
5.53671
0.0711768
0.0219138
10.353
0.0398244
3.61049
7.70317
0.999756
0.32614
0.0219136
0.0216381
3.16004
0.0240296
0.0325726
0.0222392
0.0267605
6.32922
6.74876
0.0412951
21.4319
0.0611342
0.0234297
0.0216121
0.0222291
0.0439253
0.0795869
0.0216865
10.7765
0.0289486
0.0447034
0.0219899
5.21101
4.96787
0.0219459
0.0215375
0.0759498
0.0222463
0.0217256
3.79576
0.139418
0.0223513
0.0219461
0.142641
0.044986
0.0274147
0.0605949
0.0220101
4.39779
0.0498253
0.0221582
0.355895
5.4029
0.0219573
6.67004
0.021659
0.0219378
0.0223331
0.0348797
5.11514
0.0342127
7.53312
0.0324208
3.94899
2.53545
0.0265878
5.55265
0.0220008
9.51451
0.0228316
6.06989
5.20433
0.0221554
4.4666
0.0249795
0.0261763
10.8238
0.0775085
5.13973
0.0218123
5.4898
0.0219563
4.66215
0.0220673
0.0272958
0.0291785
0.0218039
0.0216119
0.0502507
3.53176
7.57103
0.0219282
2.44406
0.0263503
0.0218104
0.0221175
0.0279072
0.134094
10.5996
0.0330433
0.0220475
0.0269427
4.6888
0.0271823
0.0219048
0.0218012
0.0275009
0.0294718
18.1986
0.0218646
0.785645
0.0486177
6.01074
5.82199
9.87768
0.0215853
0.054046
0.0218858
0.0222948
0.0272803
7.2403
0.0218329
0.021806
0.0217821
10.0125
0.0232946
0.0219389
0.0328044
0.0311173
6.52426
8.39429
0.0219305
0.0219717
6.34172
0.0221548
5.17618
4.79104
5.00518
0.176679
0.219933
2.76796
0.0295958
0.0221644
0.0217888
0.0220122
0.022266
0.0221103
0.0222963
8.89713
15.2764
0.0221955
0.0893999
0.0217676
0.0234948
0.0388461
0.022087
0.0249948
0.0228853
0.464697
3.02817
0.0618473
4.97615
0.049961
15.1674
0.0849895
3.90199
5.39993
0.0506403
4.22056
0.233505
7.13628
0.0217894
0.0219674
0.0219776
0.0255587
4.1384
0.0217668
0.0222764
0.0809888
0.0218344
0.0437501
0.0409369
0.0222173
2.28042
0.02189
0.0219716
0.150884
0.0216916
0.170929
0.390945
0.0220976
0.0227152
0.0218118
0.0621532
0.0218272
0.0234542
1.20632
0.0219816
5.72139
0.022106
5.90323
0.0243095
0.103908
0.0219559
0.067665
0.0378111
0.0221714
0.0221063
5.89538
0.0219423
8.88609
8.04041
0.022751
0.0221124
0.0220799
0.0215721
3.41842
0.0219474
6.1349
12.9043
0.0444712
7.39822
0.0218282
0.0218859
5.16201
5.2448
0.0244809
0.0220027
0.0219256
0.0217787
0.0230315
0.0439561
1.10058
0.0248029
8.66538
2.62884
3.25773
0.0331289
0.0218664
10.8561
2.0976
0.032957
0.0219594
0.0221053
5.72963
0.0220108
4.14541
0.0633095
0.0222529
0.0281029
0.0216191
0.0326785
0.0264448
0.0218375
0.0215174
0.0229147
7.59969
0.0222224
0.0542815
6.04857
0.0220742
0.0219043
0.0453388
7.72454
0.0304836
5.28139
0.0224454
0.0215642
0.0234217
9.0949
0.402756
1.81798
0.0218792
0.0308565
0.021988
5.22475
0.0216586
2.29279
0.0471946
2.66477
0.0221915
0.0219221
0.217554
0.021915
9.50887
0.0219468
3.26689
0.0222562
0.0217772
0.0240645
0.605788
5.00674
0.0263624
0.0223867
0.022449
0.0219133
0.0216801
0.0222809
0.112342
0.0223533
4.17148
0.0237231
5.05686
0.0218368
0.0215903
0.97649
5.2296
6.59875
0.0224833
4.33092
0.0218598
8.61879
0.0225054
0.188464
0.0218075
6.6866
0.0218766
0.0264137
0.0220485
0.0218934
0.0222617
5.29452
1.62236
4.23451
0.0335047
0.0255238
0.0245197
0.0219904
0.0216695
0.021757
0.0233365
0.161977
0.0220263
28.5073
0.107773
0.0219999
0.0225327
7.82016
0.104147
0.0233908
0.0243925
0.0329107
5.23849
0.0522187
10.1035
0.0540373
0.0707591
0.158937
0.0219825
0.0218621
0.0810553
0.0413391
0.0218105
4.42836
0.0287171
5.06317
0.0223674
0.318393
0.0335294
0.0636338
0.0273297
0.022059
1.24896
0.0219163
22.6244
0.0220054
0.0220528
5.04918
0.0310126
0.0261559
10.6973
0.0218626
0.0971893
9.304
0.0219428
0.0709561
7.43195
0.0228973
0.0218659
0.02193
0.0238664
0.0238769
0.0723063
4.41126
0.0230611
0.0264813
4.52687
0.0216062
7.39825
0.0242302
0.0233389
0.522986
6.76853
0.0217459
0.0219017
0.0236988
0.0216986
0.0216776
7.29171
0.0222707
0.0263089
0.0215968
0.0556078
0.0217281
0.11201
0.927996
0.0227339
4.86375
0.021937
0.0235683
0.0218945
5.12847
0.0283302
0.0218672
0.0219967
0.0221172
0.0218755
0.10507
5.47569
8.92215
8.86078
0.0221838
0.0224176
0.0709819
0.0221418
0.0216648
1.69808
5.43951
0.023709
0.0219044
8.83338
0.0222262
0.0221861
4.05776
0.0773185
3.79988
0.0232115
0.0218631
4.98036
0.0221655
0.0324883
0.0222224
0.0286294
0.0219769
0.0741077
0.178962
0.039912
0.0221017
10.1442
0.0227102
0.0218718
0.0221366
0.0220096
0.0219171
0.0220668
5.61448
0.0223933
5.18882
0.0222241
0.027502
5.35333
0.0218055
0.294755
0.0232247
0.0217959
0.0236102
0.0718745
0.0220379
0.0218176
0.0221278
0.0219636
0.0527533
0.02169
0.0224413
0.0290862
0.022094
0.0319942
11.3177
3.8976
2.74785
7.22037
0.102078
0.0633455
8.21126
4.02694
0.0218657
0.022262
0.0216357
0.130602
4.89595
0.0382677
0.0253688
0.0215931
0.0218993
0.0221594
0.0232257
25.9284
16.7341
9.65059
0.0668978
0.0221045
0.0222361
0.0221567
6.66759
2.91812
0.0218009
2.49266
0.0216708
0.0319452
0.0229419
0.0406107
0.0313075
0.459765
0.0232222
0.113362
0.0216447
0.0219038
0.0832744
0.0219249
0.0220644
0.0532606
0.219849
0.0221294
0.0747865
0.0219266
0.0219741
0.0218011
0.0219506
5.67936
0.0299146
0.0230902
0.0221295
4.90746
0.153874
0.0220763
0.0321081
0.0300802
5.07783
0.820665
5.32889
0.198382
0.057364
0.113737
0.142973
0.0793357
5.17865
0.0215842
0.0219113
0.0219077
0.156172
0.0221897
10.1726
0.0217706
0.022157
5.09936
0.0552872
0.0224061
0.0767763
0.0219524
0.0230239
0.764105
0.305505
0.0219453
0.689481
0.132935
22.9178
5.4428
0.0219984
6.57991
0.0219235
0.0649547
0.0218685
0.021842
5.24121
0.0446176
0.0235663
0.0219082
4.89264
0.0249773
5.46007
6.42386
0.022263
0.0216461
0.0246021
5.61887
0.226251
0.0390512
0.0330974
0.227765
0.021978
0.0224108
0.0217981
0.0218917
0.023191
0.0547428
8.71525
0.0670801
0.109976
5.23284
0.0220024
2.48779
0.133043
0.049691
0.0221929
0.0219827
0.0219143
0.0219186
0.0219444
25.3798
0.158097
5.6676
0.0672201
0.0946971
0.0222173
0.0991328
5.94852
0.0235961
0.0248063
0.021859
11.6413
4.03683
0.0940528
0.110208
0.0219789
4.62967
0.0227032
0.0245426
0.0380296
0.0798672
0.0216472
0.0703863
4.86273
0.0222776
27.4
20.047
5.54249
25.4645
0.0356346
0.456138
0.0562468
0.0519399
5.48601
0.0218172
0.033214
0.0216808
0.0222514
6.42137
0.0228883
5.90423
0.0217016
0.0218889
5.0143
0.0219227
15.0878
0.0227763
0.415379
0.0231414
0.0221853
6.12581
0.0244458
0.0647052
0.0218745
0.0217654
0.224225
0.205213
0.0220608
0.0282418
0.793314
0.0571163
2.41859
0.0222619
0.0219481
0.0215237
0.0219183
0.025692
0.0564898
0.0216353
5.53582
0.0218734
0.0220438
0.0600182
6.98028
0.172293
0.0277614
0.0217683
0.0224944
0.0810984
2.04417
1.235
11.9956
0.0258312
0.0363983
0.239037
0.021869
0.0544131
4.83944
0.0219411
0.215723
4.22118
0.354482
0.38429
5.31405
0.0752604
0.0220948
2.3594
0.0265728
0.0402181
0.159095
0.0218688
0.113368
0.0218701
0.0219704
0.049725
7.56214
0.0344025
0.0219434
0.0410262
8.7171
0.0819405
3.07635
0.0219159
4.16342
0.0216545
0.0768916
0.113986
0.0219049
5.46855
0.021808
0.0218402
0.022061
0.0219443
5.54971
0.0762325
0.0222527
5.27512
0.0220822
6.15683
0.0216642
7.63878
0.0474455
0.244144
0.0246451
0.0219044
0.021682
0.0220728
0.292556
0.119656
0.0221294
0.040591
3.4175
5.56163
0.040042
3.86414
6.6121
0.0219067
8.62906
0.0217886
0.222656
0.0220056
0.0220748
0.0220157
0.0697004
6.66926
0.225802
0.101046
4.90572
0.430725
0.260664
4.9785
0.0218722
0.0768941
8.20948
0.0215359
0.0490381
6.07323
0.216705
0.0218869
4.03831
0.0661458
6.38577
6.45202
0.0267145
0.223082
0.0246569
0.0218687
0.0215886
4.88474
0.177679
0.265682
0.165717
0.0219074
5.40286
0.0346697
0.0215047
0.0224669
0.0634698
0.0239051
0.022216
0.0222691
0.941657
0.0218962
0.0424605
10.836
0.0216837
0.0218917
4.31557
0.0218507
0.043402
0.0264785
0.130704
2.25995
0.0219134
0.0571925
0.0275302
0.0778612
0.027115
0.0247242
0.0976426
0.866266
0.0505105
6.37715
0.0850846
0.0221227
0.239893
4.69349
0.0715421
0.0217819
0.0220533
0.133093
0.0229832
6.68908
0.661426
0.027956
2.07248
0.0234073
0.197813
4.45407
0.0219634
0.0221279
0.0220716
0.0219923
2.18199
0.400818
0.0248342
0.197865
0.300574
0.0473749
0.0220676
0.0237197
0.0594431
0.0219384
0.0218689
1.74525
0.0226607
4.43285
0.0218199
0.0219991
0.0222725
0.0709524
0.0382907
0.0398381
0.022082
0.0229797
5.77339
1.97003
2.81865
3.78724
0.0256697
0.0224559
6.10291
0.0921094
5.01512
0.0535535
0.0218768
0.0549026
0.0266456
0.0223309
0.0217931
0.0931773
0.071982
5.59907
0.0850946
0.358146
0.0221803
0.0229589
0.0219146
0.111315
10.2526
0.210089
3.40288
0.0218587
4.92329
0.0227416
0.0219712
0.0240781
0.0221575
0.837006
0.0219551
0.0781187
0.0216783
2.9577
0.0327773
9.87086
0.0224082
0.0220107
0.0244008
0.0217134
0.0949114
3.76466
6.14684
0.0549474
0.0216344
6.39023
0.0580659
0.0219203
0.0670625
0.021743
0.0238195
0.0215216
0.964774
0.0247096
0.0720577
0.0531195
0.0217674
13.2348
0.0216365
0.0249729
0.0223695
0.0237262
0.0217474
0.0219347
0.0300416
0.0222817
0.0251126
0.0216933
0.0237926
2.0154
4.36257
0.022499
0.0407084
5.59291
0.0219166
0.0221571
0.0309199
0.11
0.0219463
0.0586871
6.07653
0.0230719
6.25339
5.45049
0.0219361
0.0225654
0.0599044
0.021465
2.47273
4.07904
5.40027
0.0229773
0.0277146
0.0214917
2.08397
0.0286132
0.469201
0.0222428
0.141726
8.51168
0.0727856
0.023427
5.76536
7.50805
5.38861
0.0224183
0.0217613
6.67881
2.69398
0.0218084
0.0221017
0.385697
0.0225222
0.250735
1.96916
0.0217397
0.0225592
5.95526
0.0661154
0.0225809
0.0214955
0.0423157
0.0222941
0.280887
0.0218739
0.0221108
0.021957
0.0230179
0.0220682
0.107785
0.0217489
0.0258157
4.26557
4.79305
8.97437
0.0218235
0.0795789
0.0711187
0.0220818
0.0247556
0.0385472
0.0219078
0.0238567
6.08768
0.0555023
0.0219374
0.0219971
0.0217755
5.295
5.93835
0.0217297
0.0222792
0.0219864
0.0534843
6.08396
0.0236993
0.0781371
0.0221429
0.0623701
0.0268534
0.353974
10.9099
0.0222916
0.813341
5.56835
0.0406813
0.0218281
0.0411931
0.0284442
0.0438865
0.0265299
0.0218102
0.101331
0.0272127
1.54385
0.0424281
0.0222217
0.022286
3.97238
0.0221317
0.0234128
0.223654
0.0426911
6.5549
5.8797
0.0217874
0.273807
0.756837
0.324289
0.0449097
0.0238038
0.0220658
6.54782
0.0453726
0.0218339
0.0714571
0.0677272
2.22354
5.32844
0.0220651
0.0280879
0.0222359
0.227217
0.959071
0.0221875
0.0608186
0.0259022
0.0233337
0.022189
9.51339
0.072312
0.0219366
0.0236849
6.39958
0.0222614
0.0220109
0.0260932
0.0711359
0.0219565
0.0221611
0.0235311
8.73137
0.0299268
0.0218271
0.0218306
0.0218942
0.119865
0.0219994
0.0219435
0.378564
6.29887
0.0218697
0.0222645
0.053205
0.028917
0.0899897
0.022133
2.47154
0.0219053
0.0228662
0.0288952
5.96047
11.9261
0.440496
0.0402058
5.20861
2.37534
9.80339
5.70615
0.0244389
0.0219337
0.0216933
0.0415056
0.0218825
0.0219384
0.0219115
0.184389
0.0218815
7.76268
0.0315266
6.30908
0.0218866
5.34904
0.0219712
0.0276339
0.0216947
0.0229967
0.0407385
0.653526
0.0222009
0.0218462
0.0248955
5.80522
0.0219075
0.0384332
0.0221937
0.0383956
5.4931
0.234908
3.80325
0.030734
0.236925
0.0221353
5.10513
10.036
0.0218828
5.87008
2.03258
0.0218941
0.0215203
0.0459801
0.0306404
0.0437313
0.0216971
6.59754
0.0328533
0.0617406
0.021614
0.0219564
0.0259989
5.51876
5.51574
5.4968
0.042184
5.63742
0.0390678
11.0248
0.0219437
2.67988
0.021974
0.0269128
2.30465
0.023212
0.218325
0.0218747
0.0245489
5.8819
7.02946
0.021966
2.41309
0.0220026
6.10083
0.0218004
6.49327
5.01521
0.0218176
5.90239
0.0273005
5.92804
0.0219705
0.0263728
0.0228934
0.0867132
0.0220229
0.454535
0.0218039
5.67864
0.0873489
6.44299
0.022128
0.0216945
0.384961
0.0230811
0.031705
0.0218787
0.0843577
0.0245276
0.0219559
2.42804
0.0220297
0.0219364
0.0222774
0.0221027
4.14493
0.0388617
0.0219542
6.05683
3.97501
0.528261
0.0216843
0.0922229
3.45739
0.0218395
0.0258467
0.0223555
0.0220473
0.0219518
0.0219823
0.0271457
0.0279598
5.09329
0.337826
0.239842
0.0222776
0.0219534
4.10255
0.0337949
0.0219222
0.022328
4.81686
5.43954
0.0219668
6.33147
0.0390928
0.527288
0.0222785
5.18743
0.021753
0.0228249
0.0221012
0.0218864
0.0234696
6.76208
0.0217365
5.31336
0.17737
3.71757
4.50133
0.0221031
0.0219936
4.85583
0.0668439
0.0985695
0.0219784
0.105885
0.0222286
5.32793
5.92355
3.75694
0.0220669
5.36191
11.6913
5.51324
0.505968
0.0256902
0.13043
0.0218639
0.388228
6.0576
0.0284257
4.31978
0.0218188
0.0220432
0.0698105
5.54872
0.0401389
0.35567
0.0219887
8.90837
0.0388745
0.0517117
0.021821
0.04082
0.271522
0.0220395
0.0380548
0.0407631
0.244375
0.0215786
0.0219016
5.06788
5.67468
0.0238457
4.86863
0.0392546
0.0219967
7.7414
9.32602
0.0220985
0.532534
0.0217068
0.0220688
0.0458882
5.23098
0.0223201
4.83203
0.0235072
0.0219197
5.23014
0.0221672
0.0665073
0.0218559
2.4956
0.0220278
5.2163
0.0217775
0.0553766
0.0218504
0.02761
0.213262
5.47263
0.0491694
8.70543
0.0282002
5.68871
8.27462
4.23835
0.0218693
9.85833
10.7963
3.26433
0.329688
0.02243
0.021848
0.0219471
9.34748
0.0219339
0.0220448
0.412543
0.0222411
8.64051
0.0230414
5.69884
0.0219394
0.0222301
0.111048
0.0215537
0.0527733
0.0218558
0.07431
0.0970819
2.01903
0.0218125
0.0218907
5.63265
12.9066
0.0222444
0.0302945
0.0347487
0.0226045
7.01091
5.63759
5.47738
0.153294
4.87033
3.18122
0.221084
0.0218992
0.02179
0.0228876
0.021941
0.0328018
7.09269
6.66172
0.0220905
0.0237827
0.0226641
4.38277
7.49298
7.9904
2.67367
0.0220606
2.63292
5.0997
0.0265052
4.85211
0.0475842
0.0221023
6.24571
3.81682
7.21206
0.0222071
0.0230018
0.0433122
0.451009
0.0218202
0.0220323
0.0222428
0.0218294
0.0220424
6.05103
0.0238999
0.0216921
9.13924
0.0221061
6.18523
0.0417459
6.03378
0.35356
0.0219803
5.79621
0.150269
0.961711
0.0227635
0.0279501
0.0220163
0.0230122
6.59492
0.146513
0.0799266
0.0224443
0.0219317
0.140198
0.0232609
0.0220642
0.0273505
0.0219336
5.18644
0.0220001
5.06652
9.15885
0.0233652
0.0219823
8.88561
0.0218673
0.0216748
1.25153
0.0245667
0.0236795
0.0852515
1.86986
5.53112
0.0337847
0.023483
0.0222933
5.31554
2.06826
0.0234377
0.0342795
0.0218738
0.0218038
0.0239201
0.0217155
0.290072
0.0287384
0.0220041
0.0222295
0.0220953
0.0218902
0.0218396
0.0219041
2.58067
4.05189
8.22083
0.366056
1.69983
0.438448
0.0247812
5.21968
4.10286
2.44465
0.0220943
0.0216701
3.70736
6.06779
0.425262
0.231025
7.51495
0.0220969
0.021921
4.39841
0.0218442
0.140862
0.145262
0.0225076
10.1929
4.0418
0.0222611
11.1709
6.9931
0.161968
0.702637
0.0221953
3.63315
0.56378
6.63813
0.0218523
0.0664236
2.02799
0.0219159
0.0392748
0.0217263
0.0509343
0.0220923
6.50784
0.826708
0.0220078
0.0231976
0.0223875
5.00471
0.0428797
0.0221415
0.0222136
4.75864
0.02191
0.0232003
0.115842
0.440851
0.0225207
0.0797
0.0492711
0.0219463
0.144244
0.0219382
0.0219574
0.0265392
0.0219677
0.0298679
5.46561
0.242689
0.0220028
13.2974
3.10238
0.290632
7.23493
0.039605
0.0234559
5.73038
0.0261431
0.0241471
0.0466335
0.0770656
0.0218755
0.021726
0.0221109
0.489456
5.15971
5.64916
5.77948
0.0218229
0.0259845
0.0787981
0.162948
5.45105
0.0221383
4.57172
0.0223665
7.81545
0.0215683
5.75341
0.0227097
15.3991
7.18533
0.0924169
5.25683
0.0591503
0.0218364
0.0847987
5.41551
15.5602
0.0261392
0.0223613
0.0219563
0.0220999
0.0291962
0.0222868
0.0236134
0.0218202
0.0599912
0.0220113
5.98602
0.0222243
5.12854
0.0216803
0.15563
9.17987
0.0230051
1.76952
0.022019
0.0273073
0.0221532
0.0222002
0.0219123
0.375604
0.214699
0.0218036
0.024275
0.0219696
4.46882
0.0306448
0.509376
0.225216
0.0219774
0.0493936
0.0226394
0.0229213
0.0464827
0.0221077
0.0555987
8.90861
0.0220324
5.47871
0.0274371
0.0218812
0.021726
11.0148
0.0219951
5.55833
0.185331
0.022269
2.93054
0.119038
5.52548
0.0256616
0.0251998
0.0221035
0.0638213
4.32014
0.0221369
0.0460667
0.0220544
0.0945296
3.02832
2.17242
6.12067
21.9852
0.0295003
2.21527
0.0221457
5.09936
0.544374
0.0263673
0.476164
0.0656932
0.0215746
0.0485051
0.0220066
0.0217655
0.024326
0.0219386
2.57865
1.99542
0.153447
3.90477
0.0220769
3.95846
0.0220627
0.0219715
0.0436646
5.21544
0.0217359
5.56267
0.0980366
0.104429
6.60376
0.0222211
0.0464477
6.78061
0.0445745
0.0219534
0.39341
0.0219597
0.0221304
0.0222416
2.01787
10.4106
0.025582
0.0221026
4.92101
10.7269
0.0222843
0.0222355
3.83763
6.61591
0.0222482
0.327444
0.123358
0.0218782
0.0296507
0.0217029
4.89134
0.0219847
9.32826
6.14537
5.49185
0.024858
0.0322657
0.0217989
0.021801
2.85378
0.0218433
9.65306
5.34342
0.0802212
0.0218487
0.0216921
0.725866
0.312798
0.0515614
7.88338
0.0952686
3.10913
0.0229606
4.91121
2.57772
0.0265454
0.375684
5.83303
5.16803
0.0220364
7.05025
0.0217409
1.2506
0.301945
1.16824
0.0216319
0.0420249
0.0221072
1.0829
3.73951
0.022629
0.0228967
9.75404
4.77708
0.0219754
5.37183
3.25581
2.61186
0.0222158
5.64709
0.0221524
6.72396
0.0221135
0.0226529
0.022206
0.0219742
8.73933
0.318113
0.0217223
3.94161
5.52724
0.0215369
0.0216918
0.041823
0.0666786
0.0941041
0.0494117
26.5492
4.8271
4.91175
5.93209
0.0943341
0.0230769
0.150282
0.11616
5.11025
3.51641
5.87211
0.0988951
0.051386
0.0245526
5.577
0.0881842
0.690169
0.0221852
0.0256108
11.2593
0.0220965
0.0292202
0.536285
0.0241205
0.0428184
0.0219899
0.0231166
6.55937
0.355816
0.0216386
0.0256106
11.2798
0.282038
0.030179
1.8313
2.90564
0.0445279
0.203793
4.82634
0.0225835
5.66711
0.0999215
2.64164
0.0221458
0.021471
1.98325
4.81823
5.21192
6.74519
3.63209
0.0405483
0.084825
0.0239446
4.84604
0.0218793
0.0220292
0.0453588
0.0776933
0.104224
6.26346
0.0228484
4.88134
5.75093
0.0223083
0.0966689
0.0232691
0.217819
0.13375
0.04142
6.05876
5.24482
4.05949
1.99847
0.0323655
0.0219567
0.0225864
0.0273247
1.52752
7.38101
5.58207
9.86652
0.0525316
0.0218028
0.302908
0.0406221
5.14918
0.0220981
11.4134
0.0581435
6.42707
0.0220944
2.63115
0.0949871
0.067114
2.93535
0.0217228
3.86665
5.60223
0.0218187
0.0892178
5.37994
0.0223827
0.411884
0.0231832
0.0230065
0.0222584
5.06776
0.0470298
1.65773
0.0285518
7.6253
0.0217516
0.0215181
0.0218795
0.0220651
0.0219584
8.03678
0.407751
5.78034
0.0222113
0.0217743
6.76885
0.0283612
3.61173
0.0937213
0.0219141
1.08113
0.0305671
0.0375765
6.5432
0.0263784
38.3863
0.736634
0.0276454
0.0216218
0.259094
0.0215347
0.640666
9.58364
0.217844
0.0217919
7.50624
0.367487
0.0219828
2.62391
0.0221309
6.29099
5.23094
0.0281743
0.0250927
0.0736947
0.0391579
0.0222327
0.021635
0.021977
20.7519
0.0252956
2.42226
0.664686
11.6874
0.508269
0.120524
0.0219883
0.212287
7.64089
0.0249334
0.0218692
0.0238922
0.0222264
8.79812
0.0847406
5.82008
0.0220026
2.71096
2.69094
4.98841
7.54985
0.0219858
3.03869
1.94351
0.0219763
0.022281
1.89969
4.52998
0.0263566
0.302298
3.55154
6.73805
0.0292156
0.0228843
0.429871
0.0427553
0.0231565
0.0274821
0.0221216
0.0781739
5.84379
0.0605944
0.0228026
10.5617
0.146811
0.021647
0.208296
0.22335
0.0731021
0.0506493
0.021659
0.0217993
2.2723
3.19356
0.0404299
0.0218342
4.42764
0.470507
0.496402
2.07759
0.0234715
0.0216536
0.0220989
0.022204
0.0293834
4.86667
0.0935321
0.0223892
0.114951
0.0220704
5.57535
0.0231031
4.29146
0.0228429
1.09217
0.0501301
5.2456
0.0219506
0.0219433
0.0218022
3.63173
0.0261293
5.27915
4.19338
0.0525506
0.0221745
0.0274822
0.0308565
0.0222501
5.72916
0.0216009
4.78746
5.11659
0.932465
0.0281251
0.0219769
0.0222774
0.0220213
0.0222333
0.0928044
7.89121
5.87474
22.9427
0.824914
2.52998
0.02353
0.331743
0.0697025
0.0493304
0.0219742
0.0216492
0.22231
0.0229924
0.0216446
5.07011
0.560849
0.464211
6.37805
4.0309
0.0221
0.0221281
0.0227417
0.0410283
4.27947
0.0220613
0.0458057
0.513983
1.21356
0.0440514
0.022134
0.362096
0.0271413
6.36568
0.0220653
0.0217295
0.021994
0.0219719
0.0227142
5.72571
0.447351
0.0921342
0.141138
0.0909478
0.0218508
0.0487346
0.0226837
0.0221028
0.0268774
6.18625
6.03348
0.0218152
0.334471
0.0218585
0.0570539
0.0232532
0.0281581
0.0221047
0.0890804
0.0566388
5.36448
10.0445
8.20508
10.269
23.4421
5.20341
1.08425
0.0217173
6.02408
0.0217185
6.7124
0.02581
4.41206
0.0220931
0.0888276
0.0220531
0.0217633
0.0243112
0.0219768
1.68474
0.0216564
0.0219392
0.0216365
0.0217048
0.0218037
0.029743
0.022127
5.2359
0.0498654
0.0219612
4.36151
0.0220389
0.0218552
0.0677267
6.56461
0.0392882
0.0286715
0.0217662
0.0216043
5.10845
0.022187
0.0255992
0.159746
5.98289
9.16954
5.25304
6.13599
4.84985
17.9053
4.60824
8.28265
0.0742917
4.37299
0.0222269
0.0220226
0.074578
0.0258455
2.53557
0.0221292
0.0445606
0.0480658
0.393265
0.0860799
0.0390661
0.0233773
0.0219864
0.0472676
0.0220653
0.0217191
0.428475
0.0222471
5.15133
5.55947
0.105859
0.0217832
5.1361
0.0232031
5.32907
0.472336
0.0218367
8.66624
6.17538
0.0640005
0.070161
0.0308753
3.27898
4.12776
0.0236446
19.0745
0.0539914
0.0402713
5.78951
0.0221233
11.8408
0.0220386
0.0220606
0.0218239
2.04939
0.257343
0.343199
5.12837
0.0250653
0.0460129
3.23528
0.0217914
6.56944
0.0216863
1.99005
4.64198
10.9018
0.123118
12.0733
0.0219635
0.0221705
0.0238933
6.46493
0.0463819
0.0224149
0.0219623
0.0214642
0.0218893
0.0643386
0.176584
0.0829369
0.175333
0.0600051
0.0220061
5.24549
0.0297543
2.23719
0.0226273
0.0217478
0.0225625
0.0222321
0.0376044
0.314479
4.84817
0.545613
6.34532
0.459136
0.0218214
1.99503
0.0215124
0.0220038
0.0229325
0.0217612
0.0307013
0.0219878
0.0684711
0.0218238
2.02203
0.022278
0.0224387
0.021755
4.36566
1.2213
0.0926392
0.0215497
4.86084
0.145886
0.0803126
4.99533
0.0581727
2.46053
0.0220742
1.9899
0.196961
0.0301925
2.16274
0.0327449
0.0412134
0.720506
0.0281875
16.6857
0.103145
6.10082
4.34509
0.0429146
0.0290688
0.0219665
5.18935
0.0220041
3.11985
0.0219151
0.0218946
0.0215227
0.0309997
6.81659
0.0238921
0.0219173
0.0221144
0.0442394
5.28927
0.101251
2.63713
0.221696
0.0675333
0.0219891
0.0595759
0.0221847
0.0228551
7.20128
0.0318681
0.0385045
0.114954
8.63162
0.15319
0.0428068
0.0717964
0.0647191
0.0244658
10.4666
0.0222192
7.26534
0.0251391
13.5297
0.0958186
7.32008
6.30575
0.0972237
4.81014
1.84966
0.153684
0.307132
0.0979763
0.646995
0.0220292
0.0835656
0.0545795
10.7682
0.0230888
3.60049
6.76139
0.0215041
0.0217615
6.16009
0.0223185
0.021912
0.0216213
14.2376
2.03791
6.23845
0.0267665
2.4891
0.712781
8.67521
1.77456
0.0794945
0.0220318
25.2344
3.09822
2.12733
0.441836
0.0219586
0.0218352
0.0220143
0.0221125
1.50678
0.143632
4.99628
0.0891977
0.022144
0.0219597
0.0222878
0.0315927
12.8764
0.0236901
10.8406
3.99356
0.0519031
0.0221215
4.90678
0.17405
2.56672
0.0219421
20.4484
0.097437
0.0221554
5.67363
4.38293
0.0230696
0.0217646
0.0221047
0.0222557
0.021985
0.157675
0.0574751
0.335332
0.0424313
0.0225571
0.03049
0.0220875
0.0257211
0.0219613
8.38424
16.5976
0.0349777
0.0220241
4.80379
0.0216852
0.183617
0.55231
8.65621
4.27279
6.59681
0.0220599
0.0222964
0.022125
0.241143
0.0226101
3.74867
0.0253206
0.0218936
0.0219931
0.164224
0.181086
0.0220746
4.40848
0.0748142
3.08628
10.1656
0.0221164
0.702932
3.91621
0.194577
0.0222877
0.0219795
0.139105
1.39757
20.2801
0.0231421
7.89104
0.0217438
0.0835064
2.35809
0.179964
0.0217247
7.98323
5.18727
6.29034
7.5381
0.0222766
0.0221922
0.0907491
0.157819
0.0419511
0.0229702
4.51073
0.0233951
6.75421
4.19909
0.0218839
8.92174
0.0218468
0.0874293
6.66209
0.0838092
0.0580127
2.27613
0.0239951
10.3314
0.021978
1.41125
6.22551
3.10152
12.3641
0.024286
0.0537015
0.0217052
5.91998
0.0229634
0.0217351
0.0473228
0.0528565
0.0490873
22.9751
5.0294
4.25768
0.212909
0.0306662
0.0387271
0.026268
0.0334458
28.8421
0.0232405
0.406556
0.0227946
5.18609
0.624193
0.022217
0.0221644
0.0422863
28.5995
0.0429881
0.0216115
0.0218844
0.0299661
0.0264521
0.028304
0.0253269
4.97735
0.0239383
3.64902
0.0740107
0.0219285
0.0709852
0.0706269
0.0405646
0.0218411
0.0220668
4.16084
4.18144
5.14761
0.0417268
0.0459268
0.0531624
0.047535
0.0219186
0.0235722
3.72045
0.0484618
0.0238482
4.23025
6.01668
0.228561
5.85245
0.0784276
0.0226403
6.1175
0.0651116
4.45061