/*--------------------------------*- C++ -*----------------------------------*\
| =========                 |                                                 |
| \\      /  F ield         | OpenFOAM: The Open Source CFD Toolbox           |
|  \\    /   O peration     | Version:  v2012                                 |
|   \\  /    A nd           | Website:  www.openfoam.com                      |
|    \\/     M anipulation  |                                                 |
\*---------------------------------------------------------------------------*/
FoamFile
{
    version     2.0;
    format      ascii;
    class       surfaceScalarField;
    location    "850";
    object      phi;
}
// * * * * * * * * * * * * * * * * * * * * * * * * * * * * * * * * * * * * * //

dimensions      [0 3 -1 0 0 0 0];
oriented        oriented;


internalField   nonuniform List<scalar> 
27907
(
-0.0830781
0.0652121
0.0178659
-0.0636993
-0.00957781
0.0732771
0.414615
-0.466095
0.0513197
0.0224295
-0.0105193
-0.0119103
0.0131734
-0.00550288
-0.0076705
-0.011562
0.00471712
0.00684488
0.0104435
-0.00031545
-0.010128
-0.331129
0.422415
-0.0913577
0.0900264
-0.0784779
-0.0115486
-0.168388
0.0216022
0.146785
-0.0208126
0.182495
-0.161686
-0.00686432
0.00421384
0.00265048
0.0803194
-0.436363
0.355973
0.0882512
-0.104556
0.0163044
0.259827
-0.178855
-0.0809765
0.0498641
-0.0305856
-0.0192785
0.0326001
0.0937125
-0.126313
-0.0904355
0.369584
-0.279193
-0.118363
-0.13879
0.257142
0.145273
-0.122405
-0.0228682
0.00244929
0.000484251
-0.00293354
-0.430398
0.448819
-0.0184287
-0.00423526
0.0019765
0.00225876
0.0625011
-0.0808894
0.0183883
0.0252952
-0.0905711
0.0652758
-0.420075
0.0888645
0.0386914
0.00566526
-0.0443566
-0.00242532
-0.00528153
0.00770684
0.0339465
0.0138537
-0.0478002
0.0781712
-0.0608317
-0.0173395
0.0922732
0.0096036
-0.101877
0.0010089
-0.00702126
0.00601237
0.474182
-0.461806
-0.0124082
-0.243896
0.123287
0.120605
-0.0989159
0.0292933
0.0696225
-0.484593
0.293003
0.191585
0.557011
-0.334874
-0.222159
0.280214
-0.133214
-0.147008
-0.155392
0.243136
-0.0877499
0.024883
-0.123802
0.098919
0.272791
-0.191217
-0.0815819
0.158985
-0.140075
-0.0189112
0.177067
-0.340636
0.16354
-0.119923
0.159167
-0.0392444
0.0991051
-0.0751634
-0.0239417
-0.495545
0.26149
0.233944
-0.00270811
-0.00152715
-0.153994
0.192156
-0.0381648
-0.148994
-0.0193948
-0.206372
0.399174
-0.19284
-0.0896345
0.114418
-0.0247836
0.0225388
-0.0169172
-0.00562165
-0.474378
0.0917267
0.382568
-0.19332
0.172504
0.00411535
-0.00654067
-0.0242166
0.0803905
-0.056174
0.299382
0.257607
0.0445385
-0.0226457
-0.218631
-0.0143818
0.233007
-0.0996011
0.0330236
0.0665774
0.0569081
-0.0867226
0.0298144
0.00881655
0.00162694
-0.113943
0.107944
0.00599928
0.188033
-0.0315402
-0.156494
-0.386131
-0.0883206
0.344763
-0.192008
-0.152759
-0.0751806
0.133052
-0.0578719
0.364374
0.10978
0.143977
-0.277314
0.133327
0.00403086
0.018508
-0.0163309
0.0135561
0.00277479
-0.12415
0.224822
-0.100674
-0.379654
0.173247
-0.0165141
0.0106036
0.0059105
0.14728
-0.376552
0.22923
0.210926
-0.011842
-0.199091
0.0876162
-0.065921
-0.0216953
0.00737083
0.00347038
-0.0108412
-0.0820743
0.0244249
0.0576494
0.00394192
-0.00188919
-0.00205273
-0.000390493
-0.000493263
0.000883755
0.0794278
-0.0580385
-0.0213893
-0.0583788
-0.0412223
0.00344861
-0.00797465
0.00452604
0.0870302
0.000585953
0.167104
-0.150347
-0.0167576
0.0176077
-0.0279261
0.0103185
-0.0954555
-0.0184878
0.00355531
-0.00274352
-0.000811789
-0.0446098
0.255529
0.00435677
-0.000908167
-0.000597897
-0.218039
-0.00465603
0.000981407
0.00367463
0.141537
0.0174476
-0.000562283
-0.000415739
0.000978021
-0.00255227
-0.00210376
0.0773399
0.00969033
0.348127
-0.200884
0.12487
-0.261618
0.136738
-0.000838838
0.00328813
0.149161
-0.0227394
-0.126422
-0.00277101
0.000884076
0.00188694
-0.0798302
-0.0240875
0.103918
0.0179434
-0.110858
0.0929146
-0.00469886
0.00570776
0.0509243
0.0272468
0.0675601
-0.0445586
-0.0230015
0.0121886
-0.00481779
-0.164698
-0.0312985
0.195992
0.144524
-0.24211
0.0975856
0.00327497
-0.00582724
-0.0165141
0.194898
0.218232
-0.413203
-0.154994
0.261174
-0.106186
-0.0491493
0.0412304
0.0079189
0.0138265
0.000367387
-0.0141939
-0.0103552
0.0108262
-0.000471024
0.125877
0.133946
-0.00127686
0.00220521
-0.000928345
-0.000246341
-0.000315944
0.0188233
0.112302
-0.131126
-0.269824
0.240646
0.0291759
-0.0208629
0.0275857
-0.00672283
-0.0406789
0.000828607
0.0398503
0.0201565
-0.0769258
0.0567693
0.0644457
0.0346594
-0.0751109
0.0114117
-0.0619304
0.0766071
-0.0146766
0.00302709
-0.00204568
0.440043
-0.624144
0.184009
-0.0780366
0.110636
0.0621935
-0.0235021
-0.000630491
0.00111474
0.131355
-0.0544849
-0.0768704
-0.00944625
0.0310826
-0.199756
0.118331
0.0814236
-0.0824693
0.0165483
0.12439
-0.0995077
0.27626
-0.151405
0.00410862
-0.0482794
0.0441708
-0.0754948
-0.00657962
-0.00539043
-0.0469266
0.0523171
-0.260788
0.238256
0.0225253
-0.0587418
0.0345252
0.225824
0.0469601
-0.188338
0.277009
-0.0886802
-0.0025553
0.00239678
0.000158523
-0.00899714
-0.00100615
0.0100033
-0.0135053
0.105778
0.0240101
-0.0393037
0.0152936
0.0575352
0.0218926
-0.0520982
-0.00837201
0.0604702
0.185
-0.046899
-0.138102
-0.45899
0.457353
0.00161702
0.00442974
-0.00302758
-0.00140217
-0.00244435
0.155558
-0.153115
-0.00220683
0.000929969
-0.198173
0.0441771
0.00615402
0.164819
-0.170977
0.48623
-0.299393
-0.186841
-0.190593
0.354919
-0.164352
-0.0945103
0.0707243
0.0237859
0.00991834
-0.00556146
-0.00435688
-0.182941
0.189091
0.0852365
-0.0283284
0.0482656
-0.0143191
0.164421
0.0877929
-0.252224
0.0228921
-0.00465169
-0.0182404
0.0689239
-0.0891555
0.0202316
0.00384029
0.0084042
-0.0122445
-0.0121638
0.0113709
0.000792893
-0.323288
0.232816
0.00688667
0.00303166
-0.00511927
0.00908791
-0.00396864
-0.0347797
-0.0597307
-0.0040049
0.066506
0.0421341
-0.0093443
-0.0327898
0.171057
0.0169746
-0.0606314
0.06474
-0.265662
0.143647
0.122008
0.261184
-0.4597
0.198444
0.0127953
-0.0127953
0.0148976
-0.0669958
-0.179081
0.345905
-0.166847
-0.073884
0.156891
-0.0830093
-0.0111054
-0.0546477
0.0657531
-0.317545
0.233377
0.0841592
0.0122787
0.00154779
-0.219922
0.387004
-0.167122
-0.313381
0.185136
0.128237
0.0679423
0.0634128
-0.0745392
0.0126088
-0.0288968
0.208519
-0.179626
0.0972347
-0.11074
-0.0465177
-0.0549034
0.101421
-0.115165
0.0197098
0.127788
0.0174847
0.106341
-0.0374166
0.534765
-0.30042
-0.234386
-0.182685
0.359715
-0.0287437
0.0750604
-0.0463167
-0.1791
-0.019076
0.137251
-0.150305
0.0130531
0.0840114
-0.102875
0.0188638
-0.301174
0.381436
-0.120914
0.0743955
0.0775566
-0.105545
0.0279883
-0.529679
0.0706755
0.00376869
-9.3631e-05
-0.00367506
-0.170714
0.0217192
-0.164879
0.381762
-0.216925
-0.0892959
0.107239
0.0595667
0.149924
-0.209494
-0.118709
0.136341
-0.0176319
0.0523103
-0.0744933
0.022183
0.00172626
-0.00137548
-0.000350779
-0.0258266
0.0781369
-0.0229525
0.0424723
-0.0195198
-0.0876687
0.324838
-0.23722
-0.00412456
-0.00743745
0.204662
-0.200596
0.0358944
0.094385
-0.0382805
-0.0561045
-0.00163447
-0.000920835
0.0191705
0.0586685
-0.077839
0.104008
-0.0264516
-0.0799515
0.12163
-0.0416792
-0.0834701
0.111488
-0.0280177
-0.356248
0.294534
0.06169
0.0711644
-0.107719
0.0365547
0.246959
0.097801
-0.021406
-0.0937594
0.00435
-0.00367916
-0.00067084
0.0901969
-0.012857
-0.00529509
-0.431125
-0.185843
-0.131712
-0.264363
-0.0919104
0.474933
-0.282582
-0.192458
0.0114199
-0.0322827
0.165813
-0.103661
-0.0621518
-0.207644
-0.0765232
0.284144
0.0255192
-0.0860532
0.060534
0.0119093
0.0556508
-0.219189
0.0418809
0.177305
0.0432935
-0.0192834
0.00207269
-0.000105836
-0.00196685
0.0790276
0.0111693
-0.27701
-0.207587
-0.000275268
-0.000456498
0.000731765
0.127329
-0.00581495
-0.121515
-0.36576
0.0434187
0.322336
0.0239206
-0.00102852
0.0225195
0.144584
0.0898344
0.0374945
-0.0753027
0.200867
-0.12557
-0.0562011
-0.0619293
0.11813
0.079643
-0.0219123
-0.0577307
0.0145536
-0.0375062
-0.115051
-0.00365819
-0.0894754
0.0601621
0.0293132
-0.116396
-0.165984
-0.13289
0.0484392
0.0844504
-0.30898
0.334865
-0.0259044
0.102832
-0.0188212
-0.142712
-0.0280034
0.0458082
0.0485768
0.0153561
-0.000670895
-0.0146852
-0.338929
0.251197
-0.0364015
0.202078
-0.165681
-0.0710175
0.0733813
-0.00236379
0.164134
-0.20054
0.109212
-0.183099
-0.0317111
0.0265489
0.00897698
-0.0355258
-0.0114697
0.00111451
0.137705
0.100022
-0.237733
0.027471
0.0789401
-0.106411
0.0114001
-0.0018053
-0.00959479
-0.0807381
0.0226996
0.210904
-0.18096
-0.0299473
-0.186976
-0.110419
0.297378
-0.176869
0.101981
0.074888
0.0946456
0.0711667
-0.222515
-0.0382791
0.0106202
0.000779899
0.0848456
-0.0593264
0.0232154
0.0196207
-0.0428361
-0.000630491
0.00164189
-0.372844
0.190514
0.182302
0.0137446
0.400755
0.0329964
-0.0972731
0.0642766
0.00511041
-0.00338415
0.1519
-0.113697
-0.0382028
-0.0650505
-0.084343
0.10579
-0.0214473
-0.0538686
0.153234
-0.0993658
-0.000665762
-0.26813
0.149756
0.0827796
-0.0374883
-0.0452913
-0.00413437
-0.326043
-0.169619
-0.00620938
-0.012461
0.0186704
-0.0894395
0.120376
-0.0309363
-0.124096
0.268063
-0.178521
0.0700659
0.108454
-0.0802052
0.106549
-0.0263434
-0.218972
0.203548
0.0154191
-0.367606
0.00183916
0.0107225
-0.0126023
0.00187974
0.0581893
-0.034974
-0.366747
0.218521
0.14821
0.00906708
-0.0111111
0.00204403
-0.000872237
-0.0613087
0.0804792
-0.289551
0.305528
-0.0159872
0.439952
0.0573425
-0.0727958
0.0154533
-0.0504211
-0.168771
0.1384
-0.317508
0.112125
-0.238603
0.126465
-0.11882
0.213189
-0.0943691
-0.0681437
-0.0210118
-0.111932
0.0317262
-0.0911285
-0.0857412
-0.000981588
-0.10268
-0.139935
0.0175294
0.00705856
0.0608836
0.176409
-0.292823
0.324491
0.161737
0.0275783
0.0490288
0.00706883
-0.0917633
0.0846943
-0.0560261
0.083497
0.0171291
0.00530048
0.0584533
0.0934461
-0.217773
0.188873
0.427665
-0.588807
0.161019
0.0519261
0.0308535
0.0184685
-0.0246779
-0.383699
0.119311
-0.193406
0.399187
-0.205823
-0.284675
-0.0990521
-0.116421
-0.0833364
-0.0996949
0.0162246
0.0840372
-0.058742
-0.095301
-0.174527
0.256498
-0.136069
-0.12043
-0.382742
0.207691
0.175017
0.0464818
0.00338227
0.0520031
-0.0573936
0.0918197
-0.0275831
-0.0642367
0.0320941
-0.0886773
0.0565831
-0.251326
0.198053
0.0532702
0.0636359
0.0103669
-0.0740027
0.00487459
-0.0879527
0.0398593
0.10023
-0.14009
0.0179855
-0.110442
0.0924563
-0.00465912
0.000125386
0.000632586
-0.000757971
-0.0635568
0.0524513
0.353999
0.0861739
-0.440222
0.13242
-0.143111
0.0106903
0.00228231
-0.062646
0.0603637
0.0308823
-0.00433342
0.0041908
0.141487
-0.14568
-0.213232
-0.159639
0.109416
-0.0072937
-0.102122
0.26801
-0.193995
-0.0740237
0.0326328
0.109844
-0.142478
-0.0598663
-0.00263847
0.0625047
0.0119423
-0.0160454
0.00410308
-0.0753414
0.091765
-0.0164237
-0.118156
-0.0217797
0.0134346
0.00192149
-0.265618
0.0324737
0.233141
0.0286944
-0.207796
0.123256
0.137977
-0.261241
-0.239584
0.0841857
0.0209436
-0.0916973
0.0707537
0.172531
0.000263464
-0.172796
0.0100013
-0.000934221
0.072789
-0.0411083
-0.0316807
-0.188935
0.113627
-0.199783
-0.166981
-0.00140541
-0.00901679
0.0104222
-0.0900352
0.0146937
0.0360585
0.0539679
-0.0183769
-0.247246
0.089432
0.0210005
-0.110433
0.120375
-0.307367
0.159819
-0.0259253
-0.133894
0.163217
0.077428
-0.16433
-0.17465
-0.00633902
0.0082583
-0.00191928
0.00149002
0.00227867
-0.0649411
0.026639
0.038302
0.0208826
-0.259858
-0.232673
0.492427
0.00898682
0.0671278
-0.0761146
0.00140314
-0.00763666
0.00623352
0.0571657
-0.113367
0.397374
-0.202539
0.000309265
0.0168198
-0.143395
-0.12962
0.272998
-0.278733
0.183428
0.0952966
0.429684
-0.168569
0.0732413
-0.0522978
0.155381
0.11097
-0.266355
-0.154734
0.0348097
-0.0548227
0.0869167
0.00607878
-0.0239376
0.0178588
0.251749
-0.139639
0.00358512
0.00958827
-0.0964798
0.130405
-0.0339253
0.0983467
-0.387911
-0.0280096
0.163766
-0.135758
-0.268312
0.138029
0.130278
0.188316
-0.13923
0.085361
-0.0842992
0.117273
-0.0329744
0.0836968
-0.0766384
0.00285088
-0.000778195
-0.0757424
0.0945654
-0.366199
0.198779
0.167415
-0.0049946
-0.0660229
-0.0356576
0.0292968
0.00636075
0.00750707
0.0239819
-0.031489
-0.00875293
-0.00341089
0.0257769
-0.0969973
0.0712203
0.216562
-0.178187
-0.0383787
0.193382
-0.357772
-0.360482
0.152811
-0.123094
0.182658
0.0643745
0.0273904
0.0231255
0.101546
-0.124672
-0.141332
0.144859
-0.0035281
-0.118089
0.0286493
0.034652
0.0106005
-0.0671662
0.0565656
0.0241778
-0.171466
-0.0968508
-0.136012
0.135029
0.00109517
0.00246015
-0.214856
0.0281746
0.186679
-0.000493594
0.0124359
0.42754
-0.414457
0.231941
-0.0010784
-0.0108902
0.0119686
-0.119307
-0.0158196
0.135127
-0.165498
-0.0438535
0.209347
0.0684692
0.0111738
-0.0886385
-0.0102775
-0.0521417
0.0851379
0.00539344
-0.00236636
-0.162332
0.150486
0.19243
-0.0296785
-0.162754
0.0118867
-0.00189428
0.00610812
-0.0186858
-0.0659419
0.0846275
-0.104709
0.10074
0.00396892
0.0811457
0.00710548
0.0672711
-0.0566706
-0.000317996
-0.0101803
0.0104983
-0.0715321
0.0878577
-0.212009
0.1154
-0.0316245
-0.0837751
-0.230096
0.0750958
0.0970217
-0.0326473
0.0743192
0.138614
-0.212936
0.00271788
0.00267556
0.108054
-0.0186227
-0.0738492
0.0761315
-0.141481
0.000148356
0.00532938
0.0877472
-0.0930767
0.148785
-0.0396435
-0.0412459
-0.174669
-0.205022
-0.000337642
0.000463028
0.255533
-0.132284
-0.0398588
0.0754144
-0.0355556
-0.447354
0.144979
0.302359
0.0639157
-0.070942
0.00702632
-0.111708
0.14434
-0.445088
0.279432
0.165635
-0.0761898
-0.185441
0.221144
0.208477
-0.0422568
-0.000422821
0.0426796
-0.00308232
-0.000906109
0.00398843
-0.0236172
-0.0255321
-0.1046
-0.0154346
0.120034
0.040416
-0.162513
0.122095
0.0907021
0.0158464
-0.280773
0.515498
-0.234735
-0.417495
0.0305881
0.38691
0.0180546
-0.0144382
-0.00361641
-0.25693
0.180729
0.22611
0.118854
-0.344968
0.00790441
-0.0922475
-0.11313
0.467068
-0.0147194
-0.0899901
0.103144
-0.0124417
-0.0803474
0.306454
-0.117396
0.272771
-0.00454843
-0.107393
0.111941
-0.170586
-0.0442721
0.124816
-0.127261
0.0419096
0.00138387
-0.00137358
-0.117268
0.11864
0.0792301
-0.097916
0.00737016
-0.138465
0.131094
-0.259398
-0.106808
-0.0414487
0.0161151
0.0253336
-0.175367
-0.0203074
0.195673
0.142267
-0.190655
0.0483843
-0.0479052
0.0629119
-0.0150067
-0.0126811
-0.00198518
0.0146663
-0.0915985
0.0969276
0.0696816
-0.0342649
-0.0354168
0.122542
-0.118352
-0.0583333
0.00172388
-0.014405
0.276657
-0.112248
0.000522277
-0.00786914
0.00734686
-0.0819863
0.0421274
-0.328691
-0.0347738
0.363445
0.0423799
-0.000470326
-0.0109034
0.0156839
0.0937315
-0.250994
-0.228814
0.479679
-0.0892466
0.0963153
-0.00397974
-0.0162443
0.0202241
0.0889903
0.135012
-0.286439
0.151417
-0.206907
0.0280474
-0.169109
-0.0498665
0.0335509
-0.221896
0.464941
-0.445907
-0.0191771
0.0586956
0.0356642
-0.0295855
-0.16926
0.178312
-0.00905381
0.0343533
0.0139123
-0.277793
0.164625
0.113164
-0.0925624
0.10486
-0.0122973
-0.0694441
-0.0108275
-0.298169
-0.402647
0.111026
-0.170498
0.0594693
-0.519555
0.244744
0.274781
0.178806
0.0320956
-0.187618
0.05166
0.135958
-0.100517
-0.165152
-0.0743326
0.0997802
-0.0254477
0.0073232
0.0391586
-0.174154
0.37311
-0.199025
-0.014931
0.0201892
-0.00525817
-0.00486565
0.00244928
0.00241638
0.133112
-0.0451224
-0.08799
0.0530935
0.0623061
-0.0136758
-0.0512653
0.0197436
-0.131209
0.129834
0.120981
0.0292085
-0.150191
-0.0083056
-0.00802527
-0.17703
0.00776804
-0.00732779
0.104386
-0.0970586
-0.268185
0.111189
0.15699
-0.00386196
-0.00566718
0.00952914
0.0692481
-0.127199
0.0579508
0.0803425
-0.0283393
0.0690882
0.0180823
-0.0871706
0.00889039
-7.38428e-05
-0.0660055
0.153443
-0.267099
0.113649
-0.100808
-0.0116395
0.112448
-0.0899866
0.0775799
0.0124066
0.0355996
0.0832724
-0.0631159
-0.219505
0.0502197
0.169283
0.0500417
-0.0381324
-0.190477
-0.00791991
0.198394
0.159786
0.117459
-0.277261
-0.187232
0.408316
0.38185
0.104768
-0.486679
-0.00585583
0.00319421
0.00266162
0.0426933
0.00734838
0.231588
-0.249969
-0.05923
0.0730051
-0.0137751
0.142005
-0.107517
-0.0344878
0.0308587
-0.0233516
-0.00321481
0.000132492
-0.002744
0.0600865
0.0598639
0.0165094
-0.0763733
0.0275355
-0.193915
0.16637
0.00705125
-0.0123328
0.113165
-0.0159307
-0.0903009
0.238693
-0.148399
-0.122254
0.0470731
0.00113743
0.00969798
-0.0107764
-0.152374
-0.0915271
-0.161316
0.00746532
0.15385
0.235385
-0.0879459
-0.147445
-0.443547
0.0154257
0.427993
-0.00749699
0.00982048
-0.0023235
-0.0804742
0.0994976
-0.0190235
0.00258757
-0.0041705
0.00557364
0.148542
-0.242845
0.0943
0.251219
0.283515
-0.0180701
-0.102772
0.120842
-0.070474
-0.359928
-0.325462
0.134843
-0.0293717
-0.158247
-0.150297
0.203191
-0.0528966
0.0336111
0.12733
-0.0580827
-0.0444281
0.104215
-0.0597874
-0.0081308
0.0131333
-0.00500247
0.096325
0.00441524
-0.325938
-0.121433
-0.0110985
-0.108209
-0.000823646
-0.0855748
0.0863984
0.018204
-0.0139284
-0.00427552
-0.122114
0.114786
0.0760442
-0.0705724
-0.00547181
0.0277327
-0.125936
0.0982027
-0.00428382
0.235867
-0.0716378
0.0124077
-0.038618
0.0404272
-0.00180925
0.030282
0.178234
0.068581
-0.265713
0.197109
0.065156
-0.0298548
-0.0353012
0.00158576
0.0619124
0.424239
-0.0424369
0.000300772
0.000331814
0.00148742
-0.00148742
-0.086481
-0.00350552
0.20078
0.198357
0.00650305
-0.00640176
-0.000101293
-0.0113965
0.00886946
0.00252705
-0.0210395
0.140448
0.0320818
-0.447477
0.272443
-0.0453077
0.0432599
0.00204779
0.317782
0.158409
-0.0927092
0.0655455
0.0271637
0.00716682
-0.00664454
0.0650736
0.0169494
-0.0820231
0.00207221
0.00681817
0.0215974
0.085362
-0.10696
0.00362387
-0.00357562
-4.82504e-05
-0.114643
0.0303433
-0.232508
0.199879
0.0326247
0.0472128
-0.208529
0.0115575
-0.0117811
0.000223679
0.0270015
-0.00418782
-0.0228137
-0.000673971
-0.00978597
-0.00625942
0.137857
-0.0376891
-0.0550201
0.152706
-0.43348
-0.118508
0.0385565
-0.0190348
0.101354
-0.082319
-0.0915965
0.0019619
0.0909445
-0.419658
-0.120302
0.149984
-0.029683
-0.065923
0.0749098
0.00388189
-0.0188129
0.0113869
0.000170552
0.0085138
-0.0110183
0.00250449
-0.0773989
0.117258
0.0612082
0.0879525
0.0899664
-0.0109388
0.122806
0.133691
0.159198
0.136939
-0.296155
0.229033
0.0907303
-0.319771
-0.00362756
-0.135119
0.138745
-0.0819951
-0.344086
0.068253
0.275829
-0.108348
0.0893129
-0.165626
-0.160359
0.325958
-0.448063
-0.176169
-0.197519
0.40198
-0.204508
0.0102374
-0.00626569
-0.00397171
-0.0653329
0.209856
-0.411892
-0.0689297
0.480807
0.100381
-0.118452
0.00485563
0.11524
-0.120096
-0.308759
0.134557
-0.00836126
0.00202225
0.224908
0.0430941
0.1613
0.11469
-0.276004
0.00590911
-0.104763
0.0988533
-0.00241295
-0.0853655
0.0877783
0.149626
-0.228144
0.149576
0.078565
0.0103519
0.0656922
0.0671703
0.170518
-0.105869
-0.0646494
-0.0391173
0.000499283
0.105645
0.0648727
-0.0228227
0.023132
0.0215778
0.0193059
-0.00816805
-0.0142479
0.022416
-0.00938238
0.00188539
-0.216125
-0.00120224
0.0147583
-0.0841414
0.013814
0.0703274
-0.202788
-0.175426
0.378137
-0.00124355
0.000486933
0.000756615
-0.153431
-0.179589
0.333007
-0.199416
0.403392
-0.204022
-0.102249
-0.0298227
0.132071
-0.465664
0.186423
-0.084514
0.108294
-0.0237798
0.0145562
0.00364774
0.212297
-0.00966085
0.0014928
-0.176463
0.203989
-0.0278679
0.140169
0.00357343
0.0234281
-0.226447
0.39741
-0.171032
-0.00332804
0.000374824
0.00295322
-0.133571
0.16034
-0.0267709
-0.111452
0.26544
-0.153994
0.328622
-0.191049
-0.137583
-0.00703959
0.236066
-0.0785725
0.0466093
0.0319631
0.0241759
-0.0529197
0.00850174
-0.0113334
0.00283162
0.109469
-0.0131442
0.00570006
-0.000982936
0.120383
-0.10029
-0.0200931
-0.145311
0.0679237
-0.0802068
0.0122831
0.00989876
-0.00138495
-0.0103041
0.070168
0.030622
0.0444384
0.0247355
0.0670842
-0.0910638
0.113048
-0.021984
-0.109694
0.160513
-0.0508207
-0.0637652
-0.0148073
0.0636715
0.111214
-0.174888
0.0806542
-0.023119
0.346948
0.12205
-0.469053
0.00500772
0.00149533
-0.0473941
0.170677
0.0799882
-0.0493663
0.113759
-0.118308
-0.04969
0.203524
-0.153838
0.0623164
-0.0484627
0.178322
0.148516
-0.326865
0.0157311
-0.0895802
-0.167231
0.0336581
0.201627
0.122918
-0.099793
0.107126
-0.102935
-0.00419154
-0.0294905
0.0760998
-0.0129912
0.0473245
-0.0584247
0.0111002
-0.000158615
0.00779906
-0.00764044
-0.26837
-0.232246
0.00106739
-0.000766621
-0.0885184
-0.200935
0.289446
0.081956
-0.0739102
-0.00804577
-0.0792568
0.100854
0.0104683
0.172025
0.247608
-0.327957
-0.0687961
-0.109725
0.165153
-0.235803
-0.266057
0.154596
0.142983
-0.0290284
-0.113955
0.0676023
0.0143537
0.0685041
0.0357113
0.0414339
0.0237221
0.00372688
0.092759
-0.096486
0.432181
-0.237585
-0.194623
0.111093
-0.0189994
-0.0920939
0.00298384
0.0391503
0.305879
-0.14001
-0.165895
0.0819638
0.0193898
0.0879473
0.0753299
-0.163279
-0.0152953
0.0163511
-0.00105575
0.0872223
-0.188878
0.101655
-0.00162396
0.00121447
0.00040949
-0.117679
0.46457
0.0667779
-0.0391996
0.0957683
-0.507667
-0.0514627
-0.054654
0.106117
-0.219185
0.128878
-0.149935
0.146306
0.0156619
-0.137286
0.121623
0.146597
0.279931
-0.118648
0.428292
-0.272436
-0.155923
0.00735412
-0.0496109
0.00759338
-0.00759338
0.14981
-0.110082
-0.039729
-0.00557038
0.00224234
-0.217864
0.213577
-0.0259116
0.127457
0.181596
-0.0260396
-0.0834052
0.0372458
0.0461594
0.00186975
0.00207217
0.124715
0.0250942
0.237166
0.129502
-0.366713
0.0576699
0.0226725
0.140226
0.0483725
-0.26624
-0.0286942
-0.128989
0.157682
0.0093713
-0.0107767
-0.0265195
-0.00013094
0.0266504
-0.0703925
0.0720545
-0.00166204
-0.0273162
-0.0454796
-0.0285044
0.0526803
-0.176555
0.0577334
0.294122
-0.213233
-0.0808982
0.053806
0.0268482
0.20252
0.0132818
0.0671188
-0.0804006
0.0313498
0.127175
-0.158526
-0.424024
0.295602
0.128421
0.0055354
0.0161419
-0.0216773
0.0174857
-0.0124417
-0.00504397
-0.220543
0.011158
-0.00265628
0.130473
-0.123104
-0.0912855
0.109381
-0.0180951
-0.0218025
0.0819646
0.0423654
0.0133611
0.05172
0.0264764
-0.0781964
0.529861
-0.325682
-0.204252
-0.452829
0.0524127
0.400262
-0.00919992
-0.00441351
0.0136134
-0.127958
0.265657
-0.137185
-0.140138
0.15233
0.228536
-0.091548
-0.136994
0.0395427
-0.0473879
0.00784522
-0.0111406
-0.0674029
0.0785434
0.0176106
0.00183958
-0.000169642
-0.00166994
0.0307477
-0.127228
0.0758594
-0.0465661
0.165259
-0.0773144
0.378122
-0.0894928
-0.288678
0.169328
0.272173
-0.441611
-0.297387
-0.0938118
0.391142
0.0104651
-0.0107831
0.000823346
-0.0805995
0.0627969
0.0178026
0.345235
-0.0976298
0.361217
-0.124097
-0.115548
-0.131868
-0.146226
0.278083
0.0249637
-0.127213
-0.129897
-0.0248378
-0.0162924
0.00759501
0.0159338
-0.0235288
-0.0301371
-0.0782109
-0.0429928
0.0707112
-0.0277184
-0.068904
-0.0116955
-0.141617
0.27662
-0.0796135
0.0158483
0.232074
0.0620393
-0.00409602
-0.0299155
-0.0542259
0.00108288
-0.0020048
0.000921921
-0.0101646
0.0580465
-0.0478819
0.0417941
-0.192094
0.121054
0.0219281
-0.0720342
0.0274217
0.0446125
-0.000741948
0.00215174
-0.00140979
-0.000811404
-0.099433
0.0617742
0.0376588
0.0827975
-0.0836212
-0.00949071
0.0112146
0.344202
-0.457384
0.0840821
0.00588425
-0.0370525
-0.00362639
0.0993544
-0.00233277
0.448911
-0.257319
0.123669
0.00366053
-0.00379566
0.00525406
-0.0014584
-0.017785
-0.0236636
-0.0603434
0.0935106
-0.0331672
0.311975
-0.139142
-0.172836
0.0195839
0.138929
-0.158515
0.121893
-0.106286
-0.0156072
-0.0116131
0.0115073
0.149462
-0.199156
-0.0527648
-0.0285458
0.0813106
-0.141709
0.305299
-0.163608
0.0218415
0.0546116
-0.084965
0.0303534
0.163538
-0.303574
-0.345672
0.20387
0.141786
-0.077294
0.151611
-0.164868
0.0221548
-0.168658
0.398798
-0.23019
-0.122486
0.186154
-0.181995
0.0525371
-0.00521254
-0.0740756
0.0864132
-0.0123376
-0.0101775
0.00917131
0.32888
-0.0118478
-0.0689649
0.0808126
0.31719
-0.164863
-0.15233
-0.0145456
-0.00168034
-0.0767976
-0.103531
-0.00136001
0.104891
-0.304509
0.162784
-0.169328
-0.0820008
-0.0216453
-0.0552805
0.101698
-0.0284431
-0.0732549
-0.110325
0.139533
0.00758278
-0.000875654
-0.00670713
0.079623
0.0197313
-0.172067
-0.0834092
0.231949
-0.0270106
0.000180406
-0.00292393
-0.0938797
0.003643
0.0902365
-0.436694
0.249039
0.187604
-0.0769246
0.0220831
0.0548415
0.243983
0.193248
-0.437256
0.108562
-0.13643
0.342884
-0.26387
-0.0790379
0.0554549
-0.0820376
0.0265827
0.00280578
0.198943
-0.397273
0.198287
0.121596
0.155405
0.0682039
-0.0806322
0.0124282
0.221166
-0.0677298
-0.00990799
-0.0325148
0.0424228
0.0126595
0.000510458
-0.0131699
-0.0911895
0.103434
-0.0122443
-0.119304
-0.357905
0.0580785
0.299823
0.0963392
0.246518
0.248881
-0.366611
0.0108101
0.0598314
0.0205591
0.058392
0.208723
-0.172467
-0.0362599
-0.00177653
0.000532982
-0.396157
0.136216
-0.175851
-0.137537
0.0155867
-0.024931
0.132979
0.162565
-0.295562
-0.0151804
0.00967749
-0.22588
0.40248
-0.176669
0.00129064
-0.108022
0.106731
0.138882
-0.145122
0.294286
-0.149171
-0.288353
0.255719
0.0326241
-0.181808
0.425761
0.000857161
0.0105138
-0.203187
0.0376843
-0.195148
-0.228877
-0.0092308
0.0493925
-0.0401617
0.125151
-0.00148214
0.470864
-0.254532
-0.216369
0.110168
-0.104259
0.00940687
0.127844
-0.101088
0.345806
0.0258624
0.209418
-0.110146
0.00661451
0.000783867
0.000430602
0.0694925
0.0163142
-0.0858069
0.146032
0.137967
-0.284006
0.0508722
0.0221329
-0.0274996
-0.0729306
0.10043
0.114971
-0.0219432
-0.0930278
-0.137078
-0.0277904
-0.0201216
0.108894
-0.0887727
0.0596779
-0.200458
0.105698
0.0947589
-0.120531
0.0202402
-0.201274
0.291994
0.138919
0.182164
-0.321106
-0.16097
0.336595
-0.175648
-0.00797956
-0.101824
0.109803
0.0791908
0.0571497
0.118143
-0.0137571
0.118921
0.151629
-0.270562
0.129888
-0.158583
0.0221012
-0.00252162
-0.00814074
0.0106624
0.0410892
-0.0862192
0.271347
0.358873
-0.0880925
-0.270804
-0.116932
0.11085
-0.0464456
-0.0644049
-0.147165
0.0145094
-0.000149906
-0.0143595
0.317156
-0.177828
-0.13934
-0.122498
0.275037
0.0838129
0.0324594
0.0227214
-0.0551808
0.0010389
-0.00194011
0.00090121
0.176887
-0.477342
0.0204841
0.150969
-0.171456
0.192256
0.211095
0.0205131
-0.09977
0.461994
-0.253183
-0.20886
-0.188668
-0.0759566
0.264622
-0.0617977
0.0610709
0.000726752
-0.365295
0.461052
0.158846
-0.307883
0.149018
-0.409109
0.220082
0.189016
-0.105911
0.0520894
0.0538212
0.435068
-0.281702
-0.153419
0.284749
-0.134919
-0.14984
0.00369423
0.0232189
-0.0269131
0.0171448
-0.0650831
0.0479383
0.0397826
-0.0242677
-0.0751653
0.00113492
-0.0027147
0.00157978
0.113216
-0.0813469
-0.0318691
0.178083
0.139061
-0.354921
0.0979798
0.000420373
0.00717301
0.0347288
-0.2234
0.0331576
0.0841156
-0.0155932
0.100955
0.125421
-0.100458
-0.123958
-0.0289523
0.15291
-0.0825478
-0.129048
0.21159
-0.135944
0.017787
0.178327
-0.204973
0.0266437
0.238128
-0.439812
0.201629
0.0823569
-0.0277454
0.0176625
-0.00552145
-0.012141
0.128249
-0.023749
-0.1045
0.157452
-0.454901
-0.0492611
0.0393531
0.028452
0.00633726
0.00366403
-0.00371495
0.00315721
-0.00777365
-0.083512
0.263114
-0.460036
0.1969
-0.386367
0.135266
-0.00587758
0.419003
-0.41328
0.0199035
-0.454547
0.342472
0.112056
-0.243774
-0.0445891
0.00294743
0.00169049
-0.00463792
0.0322031
-0.103402
0.0954219
-0.19845
-0.156484
0.0957688
-0.0920421
-0.0749406
0.00603658
-0.226467
-0.218642
0.0865098
0.0726565
-0.102089
-0.0482161
0.0585248
-0.0387852
-0.0197397
-0.0997323
0.0824554
0.152924
-0.157897
-0.0354254
0.10534
-0.135163
0.424887
-0.212467
-0.212466
-0.00307602
0.0914048
-0.088329
-0.173018
-0.0447597
-0.0324787
0.0591177
0.0208217
-0.0795137
-0.0196126
0.0991263
-0.288282
0.144871
-0.025062
0.125291
0.000563583
0.00141419
-0.00197777
-0.0200858
0.00956649
0.0657363
0.0181626
-0.0838989
-0.0978374
0.00395757
0.0012624
0.013247
-0.191456
0.121394
-0.322678
-0.0324355
-0.166182
0.198614
-0.00480524
-0.0526759
-0.305232
-0.124983
0.117343
0.0561277
0.0858768
0.106918
-0.00348416
-0.451546
0.173608
0.277895
-0.475343
0.202743
0.272567
-0.145945
0.233729
0.110748
-0.476049
-0.00168484
-0.0723908
-0.0151805
0.00539452
-0.0808914
0.0715907
0.00930075
-0.285601
0.197078
-0.0108884
0.0124539
-0.00156551
0.0965653
0.0253277
0.273161
-0.459511
0.186316
-0.0781144
-0.0633671
0.447915
0.0180941
-0.466165
-0.0171534
-0.0870708
0.104224
0.0449674
-0.201174
0.156203
0.161565
0.150406
-0.00403012
-0.0010858
0.00511593
-0.0101803
-1.11195e-05
0.00240456
-0.00239344
0.160446
-0.219456
0.0590043
-0.00514353
-0.00765176
-0.116232
0.00506612
-0.00587749
0.00081137
0.00089833
-0.00492845
-0.458869
-0.11185
0.0917282
0.0603814
-0.071522
-0.198613
-0.192233
-0.217699
0.409876
-0.00230465
-0.005738
0.00804265
0.135796
-0.218351
0.324097
-0.128856
-0.195258
0.028038
0.0568416
-0.0848797
-0.0310261
0.345106
-0.0962684
0.130596
0.0267924
-0.15739
0.450013
-0.139921
0.163363
-0.0234437
0.0454412
0.0562567
-0.270271
-0.189274
-0.0040552
0.000442864
0.00361233
-0.135909
-0.26294
-0.212438
-0.0871614
0.0184417
0.0687197
-0.0850858
0.0998455
-0.0147599
0.0545966
-0.106059
0.376472
0.0760757
-0.0252035
0.160275
0.100894
0.00405782
-0.288633
0.149488
-0.122427
0.313468
-0.191063
0.047134
-0.00275132
-0.0443827
0.190461
0.214959
-0.405498
0.00160248
0.207889
-0.0770127
0.104745
0.031753
-0.0419176
0.0190459
-0.0230256
-0.135034
-0.133155
0.14028
0.0845404
-0.196022
-0.149664
0.175091
0.00065636
-0.175748
-0.158341
0.0486463
-0.0784737
-0.0358894
0.114363
-0.236334
-0.185218
0.421463
-0.00224164
0.161445
-0.31024
0.148778
0.295969
-0.173169
-0.122807
-0.0793936
-0.026517
-0.0279567
0.0744515
-0.0464949
0.0411469
0.0871019
-0.349198
0.471189
0.0086448
-0.0109494
-0.0975543
0.10707
-0.00951619
0.159666
0.123684
-0.0995736
-0.0241109
0.14277
-0.288816
0.15918
-0.0012335
0.0389952
-0.0377617
-0.115023
-0.260568
0.138123
-0.132314
0.267284
-0.134983
-0.00247108
0.000530968
-0.156623
-0.116646
0.273257
0.318488
-0.202008
-0.116494
0.00256689
-0.171059
0.0311368
0.00098135
0.00331722
-0.00429857
-0.139072
0.0609572
-0.341943
-0.101699
-0.216403
0.408614
-0.00690704
0.170534
-0.146063
-0.0244724
0.15362
0.163567
-0.0370421
-0.00826567
0.00511594
-0.00577504
0.000659101
0.324635
0.110389
-0.00185901
-0.00557142
0.00743042
-0.0851626
0.00564884
0.21079
0.0534872
-0.264287
-0.253619
0.145162
0.108454
-0.0477186
-0.0342676
-0.0379475
0.327599
-0.289663
0.0568996
0.0131549
-0.0700546
0.10968
0.019033
-0.368277
0.0826966
-0.0669655
-0.00482429
0.00339787
0.00142641
-0.0130791
0.263633
-0.100538
-0.163103
0.00838334
-0.00782072
-0.000562621
-0.118107
-0.0178375