/*--------------------------------*- C++ -*----------------------------------*\
| =========                 |                                                 |
| \\      /  F ield         | OpenFOAM: The Open Source CFD Toolbox           |
|  \\    /   O peration     | Version:  v2012                                 |
|   \\  /    A nd           | Website:  www.openfoam.com                      |
|    \\/     M anipulation  |                                                 |
\*---------------------------------------------------------------------------*/
FoamFile
{
    version     2.0;
    format      ascii;
    class       volScalarField;
    location    "900";
    object      omega_0;
}
// * * * * * * * * * * * * * * * * * * * * * * * * * * * * * * * * * * * * * //

dimensions      [0 0 -1 0 0 0 0];


internalField   nonuniform List<scalar> 
10042
(
0.0219186
0.0220477
0.0219136
0.0232498
12.4243
0.0220685
5.51716
0.701275
0.0217678
0.022008
5.02678
0.023189
0.0215357
0.0214969
0.0234889
0.0220301
0.0220218
0.0222586
0.0219209
0.134865
0.0219037
0.202204
0.0215944
0.0216235
0.0220547
0.0273904
0.0221316
0.0226519
0.0217913
0.0223395
0.0220194
5.57161
0.022019
0.0222293
0.0254115
0.0216358
0.0268106
0.0305193
0.0216375
0.0290482
0.14586
0.0231106
5.38608
0.0220009
12.6095
0.0511116
0.0223086
0.0807872
0.0262015
0.042485
0.022167
0.0224397
0.0231584
0.0230131
0.0268395
0.0220613
0.0217915
0.0222797
0.0222209
0.02298
0.0220435
0.0220024
0.025572
0.0218901
0.0222443
0.0222331
0.022045
0.0738312
5.24371
0.0218854
0.0229763
0.159093
0.0220041
0.0320322
0.0220224
0.0216208
12.2799
0.02193
0.0298549
5.56474
0.0256712
12.6567
0.0219856
0.0227595
0.0220511
0.0222138
0.021899
0.153896
0.0219516
0.0219006
0.0221504
12.4284
0.0227222
0.0223493
0.0222975
0.0218621
0.0219372
0.0218564
0.0285777
0.0217949
0.0222908
0.102682
1.23963
0.0222024
0.0225478
0.0501316
0.0219206
0.0219313
0.0219118
0.0214641
0.0217167
0.021836
0.0252623
4.7725
0.0222339
0.0218504
0.0219459
0.0219261
0.02186
7.15501
0.0219455
0.390871
0.0220276
0.0219841
0.100906
0.0219895
0.421121
0.0268646
0.0482274
0.0218931
0.0308248
0.0220146
4.58489
0.171259
0.021795
0.05602
5.09125
0.0221588
0.0843184
0.178759
0.0226614
0.0219432
0.0224452
0.140279
0.0220101
0.0218357
0.05505
0.0215687
0.0218688
0.0249697
0.0217923
0.0222555
4.48928
6.02533
0.0221854
0.0215304
0.0225974
0.0219945
0.0568382
11.2886
5.84138
0.111675
0.0219872
0.0217932
0.0220451
0.0219973
0.0595259
27.2775
5.95083
6.98772
0.0226247
0.0218463
11.6802
0.175236
0.0378108
4.49899
7.54957
0.0220152
0.0855796
0.0307316
0.0227375
5.76236
0.0220994
0.0268107
0.0230005
8.4808
0.207295
0.0220474
4.80067
0.0235418
3.06941
0.0224415
4.31349
5.17301
0.0864694
1.39842
0.0247529
0.021931
0.0215349
0.0232221
0.0367993
0.0220813
0.0218288
0.178193
0.0220846
0.0216865
4.8466
0.0221563
0.0222604
0.022243
0.785424
0.0218891
0.0551668
0.335166
0.0225677
0.215549
0.0219722
0.0219885
0.06102
0.0217755
0.0253347
0.0227181
0.395852
0.0313476
0.0252576
0.0280569
0.319154
0.0218429
0.142737
0.023205
0.0217673
0.138415
0.0218543
0.0231786
0.0219437
0.0251261
0.0217127
0.021483
0.0230513
0.0256106
0.0219942
0.0220327
0.0220036
0.0253315
0.021851
0.0220279
0.0216259
0.0226069
0.0227948
0.0222689
0.0215363
0.0218776
0.0240952
0.539673
0.111939
6.03621
0.0384483
0.037103
0.0236659
0.0571146
4.98886
0.0228699
0.0219236
0.0215017
0.023164
0.0217121
0.218481
0.0231759
0.021895
0.0222507
0.0385243
0.022846
0.305097
0.037714
0.183858
0.0236082
0.0255953
0.021716
0.0245148
0.0220269
0.0318584
0.0219207
0.0274448
4.85547
0.0216878
0.0218551
5.03828
0.0525051
0.0220173
0.0220424
0.0238371
4.42466
0.0497832
0.14601
0.022182
0.021531
0.0218436
0.0217792
0.321021
0.0218927
0.0220374
0.0218447
0.0219732
0.0312578
0.0236852
0.0744503
10.0723
0.0227774
5.94663
0.0218539
0.0243466
0.0221231
7.16623
0.100468
1.38113
10.1038
0.0216061
0.0232063
0.0218904
0.0238406
0.0281145
0.0222418
0.0319782
0.0217107
0.0214989
0.022019
0.0812266
0.022284
0.0232837
0.0219793
0.0235313
4.75685
0.0218542
0.0221758
0.0219879
0.0218666
0.0407989
0.08644
0.0369773
0.725775
0.0315648
0.0260567
0.0219947
0.0214792
0.0222238
0.0222681
0.384188
0.0219207
0.0222347
0.0907177
0.021831
0.0244901
0.0228713
0.0958083
0.0219364
0.0250637
0.0454164
0.0317583
0.0231478
0.0219367
1.56133
0.0558671
0.0222931
0.0403985
0.021949
0.0218578
0.021947
0.0244182
0.830994
0.0241915
0.0222494
0.022749
0.0222923
0.022271
0.132509
0.0219346
0.0216281
5.32342
0.021841
3.79137
0.36947
0.0326134
3.95687
7.10022
0.0273699
0.14307
0.0221582
0.0435833
0.0222914
0.0222235
0.228983
0.0220638
0.0240695
13.2356
0.0220329
0.0219051
0.050298
2.36039
0.0221582
0.0215634
5.61529
0.101713
0.0218428
0.0743406
16.8178
0.0217744
0.0222642
0.021646
0.0218771
0.0214799
0.021681
3.003
1.49204
0.0222594
10.1663
0.0214988
0.0218926
0.585782
0.0220673
3.26325
0.0533456
0.0227736
0.0216029
0.021554
0.138944
0.0227231
0.0273768
0.0223404
4.60495
0.0224552
3.075
0.0232979
0.0219357
0.0218504
0.67429
0.0219511
0.0256831
0.0218778
0.0219103
8.03075
0.0248112
0.0219362
0.0217533
5.85701
0.0218849
0.0250741
0.0231503
0.0217167
9.56209
4.06864
0.0218849
0.0221803
0.0242906
0.0215357
0.0220076
0.0219727
5.60347
0.0219958
0.0217537
0.028204
0.775533
0.0553739
0.0222686
0.030313
18.7934
0.03269
0.0219397
0.0219417
0.169659
0.0222293
0.0219416
0.0291364
0.0218092
0.021682
0.0228654
0.0215701
0.0377867
0.021918
0.0219551
6.51209
0.0217659
0.0225686
0.0220658
0.0222798
0.0318236
0.021889
0.0218401
1.37389
0.0224515
6.18415
0.0228417
0.022282
0.0222767
0.125404
0.0219177
0.021941
0.0220124
0.0223706
0.0275196
5.85616
0.0218886
0.0375234
4.82907
0.0325768
0.0222612
0.0219609
0.0221107
0.0222031
0.0218659
2.21306
5.02729
0.0220737
0.0268777
0.0271787
0.026781
0.0220308
0.0216627
0.278626
0.136419
3.49359
0.0215971
0.0221483
0.0220225
0.021846
6.02769
0.0334539
0.0223775
0.0218458
0.0218045
0.021999
0.273186
0.0248062
0.0221392
6.91159
1.46823
0.433729
0.0509806
0.0220149
0.0218002
0.0482884
0.0503056
3.7388
27.4372
0.0246002
0.0259918
0.0222106
0.0232375
0.0221662
0.0221998
5.30081
0.0216192
0.0218577
0.0486927
0.0222104
0.213872
0.0226872
0.115172
0.0287211
0.022245
0.0230518
0.0254089
0.034861
0.0509527
0.0826835
0.0222824
0.0423556
0.0227793
0.0218611
0.0221185
0.0222485
0.0220347
0.024855
0.0554464
0.0409094
0.0221427
0.0225031
0.0220083
0.0219244
0.129019
0.0219295
0.023126
0.167485
0.0215717
0.0504037
0.0627886
0.0220398
8.25554
0.0369693
0.0222099
0.232415
0.0219954
0.0222687
0.0219734
0.0219812
0.0222924
0.0236199
0.0220063
1.04963
0.0226637
0.0219656
0.0221589
0.0322241
0.0305901
0.0219792
0.0239093
0.0218004
0.0298045
0.0219442
0.0288896
0.0216334
0.0229581
0.0215499
0.0219337
9.50317
0.0216521
0.112833
0.0219683
0.0226872
0.0217475
0.0304075
0.0220743
0.0382388
0.0220159
0.205212
0.0222623
5.3211
0.0215653
0.0233798
0.0222716
0.0219892
0.0219602
0.0235804
0.0220342
0.125993
34.3197
0.199635
0.0235545
0.0360376
0.0218209
0.0379356
0.0510474
0.0220114
0.0287968
0.0870794
4.02757
0.0630697
5.75068
0.0260145
0.0221027
0.0222315
0.0242835
0.0236132
0.0327017
0.0216101
0.0231821
0.101722
0.0222649
0.0219251
0.0241888
8.13934
0.0232317
0.0290989
0.048047
0.0222517
5.39654
0.0216263
0.0218327
0.0223634
0.0218128
6.17307
0.0573091
7.14809
0.0220565
3.51542
12.1012
0.360813
0.0324084
0.0574582
0.141168
0.0396494
0.0219798
0.0218817
0.0299275
7.97237
0.0218132
0.0288659
6.97991
0.0219131
0.0219105
0.0218668
0.0228036
0.0219524
0.0219875
0.123592
3.61636
0.0219573
0.0219987
4.53452
3.67407
0.0218247
0.0219432
0.022155
0.0218808
0.64363
0.0571376
0.288759
0.0225478
0.0219051
0.021774
0.0227678
0.0220521
0.0299309
0.0225821
10.0151
0.0220059
0.0220747
0.0397602
0.0218091
0.0306266
0.0657921
0.0228942
32.6945
5.78711
0.022108
0.0218618
7.52732
6.12967
0.0348305
0.0219734
0.667345
0.191244
0.0256125
0.0219635
0.0219946
0.0219232
0.351852
0.0235185
0.0962189
0.0222686
4.61447
0.765449
0.0219635
0.0219893
0.118885
0.0221496
0.0217448
0.0247767
5.65575
3.79574
9.35045
0.0224372
0.0512492
0.0380485
0.0216495
0.0218672
0.0221936
0.336895
0.0222061
0.0219607
0.0511025
0.0220202
0.0604247
0.0221114
0.022106
0.0216965
0.0221509
0.155001
0.0221991
0.0218732
0.0368592
0.0553642
0.412963
0.0222101
0.0819508
3.2614
6.12861
0.0228799
5.74755
9.45939
0.0219144
0.0215473
0.0225975
0.0232433
2.68042
0.0232057
0.0221224
0.0222063
3.78868
0.0367269
0.0223855
0.0221421
0.02194
0.0407225
0.0217587
0.0218357
0.0290658
0.0227455
0.0222043
0.0217681
1.49977
0.0218545
0.0226663
0.022029
0.022312
0.14318
0.022203
0.0229478
0.0220714
0.0243752
0.847628
0.0222919
0.391973
0.0252925
3.04946
0.0216753
0.0232102
0.0287301
0.0817158
0.0505295
0.022574
6.8001
4.27866
0.0224853
0.0218083
0.354892
0.0220791
0.0222513
0.0217339
0.0222419
0.0463745
0.0222928
0.0222931
0.0649124
0.0277878
0.0230405
0.0310139
0.0227237
10.0984
0.0230022
0.916474
0.0218735
0.0487227
0.0362145
5.8252
0.0237189
5.41595
0.0222696
0.024862
0.0220419
0.0220575
0.0219221
0.109946
0.0400046
0.0409473
7.77193
0.0221192
11.6924
0.0251093
0.0217679
0.0312232
0.0283207
5.28245
0.021984
0.0277108
0.050947
0.0231735
0.0414827
0.0222838
0.0215794
0.0222833
0.333198
0.0221332
0.0220032
0.0217416
0.0217312
0.021938
0.0219887
0.0222349
0.0218568
0.0221506
0.0224543
0.0249084
0.030512
0.0219908
3.46961
0.0219618
2.6581
0.0368303
3.58533
0.0340028
0.0246811
5.79217
0.0309905
0.351092
6.93568
0.0402667
0.0221993
0.0218507
0.022785
0.146021
0.0218704
6.45074
0.0218727
18.0395
5.20711
0.0461493
0.0226811
7.01935
4.51878
0.0231613
0.0219801
0.0222641
0.0238997
0.0215695
0.0216756
0.0557694
0.18241
0.0220779
0.0218641
0.022354
0.677293
0.0504598
0.0221557
0.0247254
0.0792338
0.0223988
0.0220262
5.7142
0.0222603
0.0218903
11.9534
0.0237917
0.0219578
5.76718
3.89708
10.9096
0.0219221
0.0230634
0.358778
0.0217404
0.0218544
0.0222845
0.027684
0.0220426
0.0221115
0.0234311
0.0460264
0.188368
0.0217885
0.0219449
0.0220794
0.0218211
0.0224931
0.0216037
0.122408
0.0281246
0.0219647
0.0219852
0.0217721
0.021975
0.0223479
6.124
0.0271296
0.021558
0.0219333
0.0407622
5.06183
0.0220425
0.0219819
0.0220289
0.0215595
5.2012
0.0409541
0.0217486
0.0220667
0.0277705
0.106621
0.0221692
0.0222829
0.0246448
0.0219833
0.0249881
0.0223223
5.2544
0.0337532
0.0220689
0.0252017
11.5027
0.0278902
0.130002
0.024687
0.372693
0.022271
0.0221955
0.0243534
0.0543685
0.0219104
0.0218588
0.0222438
0.0226199
0.108663
0.12203
2.36594
0.0225401
0.021992
0.0278271
0.0219737
0.0219709
5.46168
0.0234931
0.021966
0.0219845
0.301305
0.712705
0.0219905
0.0220514
0.0775147
0.0218018
0.0221038
0.0219371
0.0753077
0.0228757
0.0250024
11.1994
0.0222302
0.022168
3.16279
0.021908
0.170974
0.0218945
0.0231812
0.0411241
0.0219995
0.0220888
0.0222873
0.0231904
6.88348
0.0219271
0.022135
0.22691
0.025447
0.275443
7.02278
0.0457998
0.0222122
0.426697
0.0218692
6.09438
0.0221675
0.0219956
0.0217253
6.38373
0.0222123
0.0223184
0.0221598
0.0303912
2.84415
0.0276187
0.0467277
0.0219154
0.022135
0.0351863
0.0278693
0.0218401
0.0247002
0.021897
5.08289
5.00092
0.0221382
0.0229044
0.022223
2.2593
0.0221564
18.7178
0.0219789
0.0218272
0.0217432
0.0223589
0.0234413
0.0222715
0.021991
0.0220069
0.718153
0.088044
0.0218558
0.0239996
0.0236317
0.0402447
0.0218511
0.0257456
0.0227624
0.0219735
0.023187
0.0284474
0.0222802
0.0219143
0.0264557
0.021752
0.15572
0.0229432
0.144607
0.0221147
0.022037
0.021883
0.0575701
0.0386819
0.0217743
0.0240201
0.061485
0.0224062
0.0217778
0.0248794
0.0222247
9.26361
0.230701
0.0245922
6.74516
0.0230823
0.0308747
0.0815487
0.0369205
0.0303197
5.51876
0.0280013
0.106633
0.0219946
0.0227983
0.0218491
0.0219548
0.0254418
0.021763
0.203695
0.0219799
0.0220054
0.0739745
0.0219462
0.0459428
0.0251776
0.025037
0.0218752
0.0420629
0.151973
0.0214231
0.028883
7.86881
0.0420813
0.021775
0.0279622
0.0219932
0.0217801
4.31022
0.0218381
0.0217869
0.0443094
0.0219572
0.025691
0.0217608
0.0220009
4.80156
0.0218505
0.0216716
0.0242556
0.0219208
0.021551
0.0222519
5.36317
0.022148
0.022084
0.0215875
0.06957
0.0223979
0.0241908
0.0219324
0.0339846
0.0226025
0.021913
0.0227589
0.0220996
0.0217834
0.118615
0.0401276
0.0278131
0.0234314
0.0432978
0.0635442
0.0273285
0.0280031
0.0228784
7.12458
0.0219444
0.0219657
0.0219238
0.0222384
0.034948
0.0218923
9.05546
4.53767
1.87898
0.0220835
0.0242639
0.0381308
0.0215436
0.0894355
0.0462161
0.863938
0.0540963
5.82656
0.0636995
0.136316
2.34268
0.0277195
0.0228284
0.0247145
0.0217802
4.48243
0.0224798
0.0289642
0.0218052
0.0247796
0.0220435
4.37889
5.55957
0.0222037
5.21997
0.656765
0.162391
0.0416414
0.0609771
0.0216753
6.86996
0.021971
5.83523
4.94809
0.0222044
0.0219154
0.022001
0.0232871
0.0243079
0.0328879
0.15674
0.0221247
0.0220381
0.0246471
0.0223128
0.0220355
0.0256716
0.0218421
0.0220581
0.180475
0.0573713
0.02204
6.76547
0.0228134
0.0222723
0.0234268
0.244941
0.021943
0.0217368
0.0962215
0.184472
0.0218046
0.0247533
0.611284
0.0490292
4.72902
0.021786
0.130287
5.66721
10.7743
0.0220817
0.021929
0.0513956
0.0259793
0.0401306
0.0223059
8.42553
0.0443636
0.159856
0.0220445
0.0219759
5.33662
0.167729
0.0221492
0.0222724
7.50943
0.0219293
0.0216155
0.0218622
0.0231951
0.0221969
0.029426
0.0221173
0.0234335
0.0216277
0.0298708
23.7017
0.0572555
0.032072
6.25677
0.0688933
0.0216516
0.0217782
0.021862
0.0222837
0.119614
0.0295839
0.0221553
0.0219829
0.021974
0.0216107
0.0319773
0.0216209
0.0479726
0.0236866
0.0221231
6.27188
4.60862
0.0221014
7.85241
0.0334249
0.0320041
0.0222643
0.0216322
10.9958
0.0668047
0.0219229
0.0217337
0.0219376
0.0256064
0.0222625
0.122503
0.0215269
0.0220586
0.0219997
2.71143
8.07571
0.0215382
0.02201
0.153078
0.504835
0.0245144
4.99709
8.71168
0.0218379
0.0221418
0.0221371
0.02297
2.60828
0.0220367
0.0222844
0.185247
0.0835963
0.0222122
0.0219461
0.0734323
0.0222837
0.0220737
0.101704
0.069519
6.38295
0.0219825
0.0598901
0.0407848
0.0476452
0.0230904
0.0270833
0.0219411
0.0220122
0.122959
0.025502
0.021997
0.0244991
4.80984
0.0215483
0.0218191
0.0215411
0.0753282
0.0219488
0.0220861
0.0214437
0.0219481
0.686041
10.4835
0.0222205
1.85436
5.3238
5.17806
0.0219399
0.0219545
0.0218358
0.0219025
0.0221159
0.0221493
0.0216312
0.0220821
0.0217845
0.0242403
6.08955
0.0354634
0.22183
0.0279151
0.0220299
0.0230977
0.0315313
0.0221789
0.0218559
0.0391909
0.0313052
0.51789
0.0368587
0.0215192
8.88847
0.022651
0.021503
0.0218568
0.300457
0.0386508
0.0227719
0.0252865
0.0220728
0.022093
0.0320249
0.0360027
0.0269763
5.79319
0.0220823
0.02203
0.640997
0.0365868
0.0248847
0.113552
0.0229702
0.0645495
0.225011
0.0610934
8.23097
0.021837
0.0218094
0.0219405
0.0220478
0.0220949
0.022978
0.0357931
0.0433678
17.3613
0.0220724
8.17591
3.78431
0.0242264
1.4511
0.0222203
0.0856323
8.71634
0.021912
0.0814155
0.0215901
1.96374
0.0221976
0.168723
0.0218699
0.400415
0.0340344
4.81995
0.0218531
0.143038
0.0216745
0.0229772
0.248751
0.0218443
8.06683
6.07968
0.243814
5.00733
0.0805369
6.05926
0.0377753
0.0220169
0.0441941
0.0425397
4.94057
0.022076
0.0220167
0.0225918
0.0462797
0.021959
0.0222265
0.0222056
18.8985
2.96632
0.0219238
8.19729
0.0580505
0.0217337
0.0372793
0.0270998
3.00874
0.0290499
0.021776
0.705486
0.022072
0.0219382
0.0220893
0.117895
0.0553313
0.0218051
0.0264036
0.0221108
0.0222607
0.0217966
11.8037
0.0222857
0.0218163
1.84178
0.192025
0.0237022
0.0218131
2.32464
0.028106
0.0231991
0.0219506
0.0514651
0.022994
0.0259885
0.0245128
3.74321
0.042644
0.0535831
0.0215102
0.0298053
0.0394937
0.0264706
0.0223774
9.42104
0.0222527
0.131522
0.0218957
0.0221935
0.0294168
0.158054
0.0232457
0.024549
0.0221132
0.0367515
0.0571818
0.0738599
0.0276792
0.0222924
0.0219646
0.0280545
0.0704278
0.0219406
0.0385791
0.0220137
0.0219437
4.41387
0.0219018
9.86678
0.0219467
0.0270632
0.0603741
0.0219401
0.0268667
0.0840031
0.0924358
0.0219439
0.0666579
0.0225178
0.0222636
0.0219108
5.11992
4.02478
0.0219138
0.0219342
0.0216568
0.0218189
0.0804716
4.75252
0.021933
1.47729
0.021738
0.0218014
0.0218966
0.456109
0.0227305
0.0237334
0.0219511
0.0219602
0.0219295
0.0222569
0.0222596
0.030028
13.9339
0.0216468
0.0219249
0.041904
0.0639709
0.0218029
4.6739
0.049431
0.0217958
0.0215482
0.0222796
0.096005
0.0217436
0.0654683
0.0280096
0.0235278
0.0217932
0.0415804
0.021531
0.140571
0.027535
0.0223734
3.11844
0.434447
0.0214304
0.0218693
6.26563
0.107193
0.0664209
0.0241201
0.0654357
0.0215774
7.49356
0.0534056
0.0218367
2.01649
3.77382
0.0231497
0.0428557
0.0486345
0.0217696
10.4805
0.0221829
0.0258173
0.0288906
0.0222452
0.0220491
0.052069
0.0218757
0.0218897
0.0218742
6.53459
0.0218482
0.021938
0.0217584
0.0218935
0.0218586
0.0222304
0.0457801
0.0458085
0.0233832
0.0222501
1.502
0.0222502
0.0218361
0.021905
0.0216489
0.0220842
0.0219712
0.0271167
0.0772212
0.0222241
0.0287455
0.0499399
0.021748
0.0273933
4.11705
0.022607
0.0215355
0.0220787
0.0848661
0.0222029
0.0222031
0.0241002
0.0247005
2.57196
13.0164
0.0218272
0.0218643
0.0219441
0.0695036
0.0233048
0.0218041
0.0282815
0.074399
0.0221683
0.0268114
0.0221328
0.101276
0.180375
0.0227815
0.129449
0.0254642
4.42151
0.0222052
0.0218977
7.95332
0.120346
0.0241477
0.135649
0.0934421
31.7164
0.0458545
0.707401
0.0250276
0.024509
5.13108
0.0265391
0.174681
0.0281498
0.120899
4.50585
0.0222933
0.0221367
0.0219773
0.382994
0.021452
6.19228
0.032819
23.2301
0.0229599
0.121836
0.187103
0.0219469
0.0221912
0.0810521
0.0291492
0.0220884
0.0248273
0.078437
0.0679497
0.0716524
0.091301
11.8788
0.145494
0.022115
0.0222015
6.25536
0.0774645
0.0225874
0.0374616
4.36028
0.0222417
0.0236246
0.021943
0.0285253
0.0220385
0.022105
0.0391377
0.0221105
0.0227732
4.97199
32.3264
0.0217326
0.0256722
0.0258387
0.19192
0.042584
0.0223308
0.0219266
0.106256
20.2568
0.0219349
0.025228
0.0220564
5.6709
0.0218378
0.0292688
0.255043
0.256655
0.0222723
0.144052
0.0844359
0.0519031
0.0255527
0.0220205
9.46044
0.0218229
0.0254219
0.0222384
0.0272794
0.0216211
0.0216454
0.0220799
0.0614632
0.0218274
0.0219773
0.0217817
0.0220758
0.0218735
0.0220161
0.0813195
4.33798
3.0368
0.0248747
0.0220566
0.0321602
0.023434
8.81993
0.0222851
0.192052
0.021628
0.0219961
0.0224024
0.033379
4.51458
0.0219603
4.55196
0.0222234
0.0215279
0.0229658
8.20942
0.023325
0.0454199
9.1293
0.0222849
0.0221882
6.89403
0.0218973
7.63851
0.0220883
0.0294589
8.19168
0.0226284
0.0220956
0.0218585
9.8445
0.0256649
0.0218781
0.855166
0.0219602
0.0226365
0.0756146
23.8888
0.203154
5.5606
3.09699
0.0748533
0.0234142
0.194166
0.213466
0.0218507
0.0218668
0.0227977
0.0259704
0.0806854
0.0219902
0.025319
0.0219058
0.0219613
2.89237
0.0222253
9.70696
0.0215717
0.0297
0.0521705
0.0218278
0.0215215
5.07335
7.88515
0.0613509
0.0220792
0.0246487
0.0448587
0.0217717
0.0315383
0.0905315
0.0355224
0.0234381
7.21985
25.9153
0.0215472
0.0221331
0.0216546
0.0221945
0.0227808
0.0263515
21.7174
0.0221202
0.0219632
0.0384285
21.2263
0.0215805
0.741304
0.0216157
0.119212
0.0521177
8.52883
0.0563785
0.053918
0.0567884
0.0215307
0.0215132
0.222761
0.0252069
0.022086
0.752806
0.0218359
0.0220832
0.0216273
0.0454438
0.221454
0.576149
0.152214
0.0268834
0.0289826
0.0220772
12.5874
0.180365
0.0229645
0.0219748
0.0217514
0.0765172
10.5951
0.0358466
10.9684
0.0229253
0.0217759
4.84441
0.0219473
6.41279
9.89478
0.0217073
0.029045
0.246226
0.0240917
0.035804
0.0218272
5.53045
0.0255167
0.16802
5.4288
5.09573
0.0266245
0.026961
0.0221352
0.149375
12.9629
0.0229296
0.0236499
6.05263
0.0495907
0.0682232
0.0222636
3.46426
5.20441
0.0994289
0.0219583
0.0256502
0.0218964
1.66194
0.0656633
0.0315612
8.23115
4.36264
0.0215336
0.138213
0.0220996
2.14039
0.0957939
0.0257988
0.0246566
0.832866
0.0214049
0.0525312
6.19136
5.29329
0.0229425
0.0220304
0.0217933
0.0901234
1.04191
0.161739
5.75644
0.0784756
0.0404778
0.0217912
4.71837
0.0694711
0.0281877
0.201912
5.58795
5.60547
5.16965
10.0651
4.52694
6.05691
0.0220586
0.028917
0.0316604
0.0220099
12.4145
0.701587
0.0220187
7.79658
0.0221287
0.0219919
0.0217751
0.0292202
0.0218718
4.41227
0.0624461
0.189888
0.0217686
0.550187
0.0481708
0.390423
5.0949
0.0226984
0.0265176
0.0376222
0.0681344
0.0217634
0.0216443
0.0218922
4.38655
0.0217839
0.021766
0.156245
0.0231647
21.2603
0.0220452
8.603
0.0219529
0.0220597
0.0219552
0.0219825
0.0259692
0.024191
10.3187
0.0311139
0.0331034
7.60375
0.0218213
9.15894
0.0217998
7.45748
3.40531
7.39744
0.0591445
0.0219714
0.0222726
7.36364
0.0221099
0.0254471
0.0221105
0.0279342
8.30014
0.0218846
0.021853
0.0218858
0.0222652
7.37918
10.8663
0.0218249
0.0214446
4.54089
11.0623
0.0218674
4.73225
0.0222644
10.3169
6.53696
0.0578231
0.386094
1.10746
0.0879441
4.63995
0.0665206
0.0219846
0.0215496
0.0217884
9.05646
10.5873
0.0229222
0.0283201
4.7144
0.021843
4.94766
0.0218642
0.0220043
0.0216322
2.12013
0.061858
0.0217505
4.77614
0.0222527
4.83459
5.35841
0.0217364
0.0221102
0.104702
0.0219557
0.0219517
0.0218318
3.8578
0.0318504
0.0220305
0.0221296
3.19843
0.0219485
0.0406868
0.0219854
7.35744
0.0221009
0.106096
0.0236945
5.43086
7.37033
0.0305071
0.0706751
0.0504363
0.0220735
0.0759367
6.44632
0.02175
0.0735122
0.0217695
0.522194
0.0219003
7.28739
3.06652
0.109974
4.54144
5.02715
0.0414357
0.0225678
1.13054
0.0219308
13.1372
0.0253231
0.899747
0.0218711
0.0325958
0.0463713
0.0304524
0.0221131
0.0219468
0.0221956
5.51935
0.0667462
4.47107
3.21937
0.0276459
0.0216253
0.0549109
10.7966
0.0335876
0.0217831
0.0220791
3.24753
1.72636
8.23745
5.37459
0.0350077
0.0222752
0.0217814
0.0471904
0.0492899
0.641598
0.0219986
0.0220683
36.5581
0.0615848
0.0222854
0.0536807
0.698072
0.0935791
0.0216383
0.0487703
0.545644
1.00328
6.65119
0.185375
0.021883
0.0222693
0.0220946
0.022285
0.0219669
0.0220896
0.0333053
0.241207
0.0330326
0.0264387
0.0285814
0.0221875
0.0260741
0.0225752
0.0347305
0.032743
0.0218212
0.0279151
0.0219051
0.0218424
0.0224737
0.0221204
0.425359
0.0216034
0.0795569
0.572855
0.617822
10.7947
4.63595
0.022417
0.0222368
0.021904
7.91049
0.0219815
0.0214761
0.0221739
6.60312
0.0312268
0.032005
0.37946
0.0233505
0.0220319
0.0292062
0.0218812
0.0485435
0.0222855
0.0341129
0.0217885
0.0219355
0.022875
0.0234614
0.0246391
0.553025
0.0345112
0.114626
0.0564556
0.105876
0.0430091
0.0641648
0.0219383
4.75269
0.0246032
0.0266054
0.021941
0.0226697
0.127876
0.0219838
0.0644394
7.09667
0.0294462
0.387767
0.100488
0.0540748
0.069622
0.0605031
0.0219349
0.027938
0.0220892
0.077763
0.0505206
7.38455
0.0217631
0.0470163
0.0264806
4.55207
0.344625
0.043345
0.0220965
0.0504624
0.021575
0.0608412
0.0227117
5.65035
0.0216586
0.0259317
0.0220156
0.0358696
0.109942
0.0302828
4.10702
0.0220389
0.0287874
0.0612424
0.0220147
3.87202
9.60891
0.135466
0.04612
0.0462467
0.0218338
0.0217679
6.38959
0.100796
0.0216591
0.0224943
0.0250914
0.0219128
0.421849
0.0217807
8.31864
0.13626
0.125099
0.0370906
0.0223225
0.0216681
0.0218273
0.154689
0.0835424
0.0267081
4.73594
0.0221735
0.0231284
0.0272872
9.09225
0.0215211
0.308884
0.0214049
6.39085
0.0219106
0.0219053
0.0384607
0.0219838
0.0222252
0.12393
0.0220847
0.0222942
0.021775
0.0434155
0.0253174
2.27754
0.0219913
0.0221036
0.0218481
0.112539
0.0218091
0.0286822
0.0376578
6.74954
8.97596
11.9263
0.92821
0.391542
0.040349
0.0634654
0.0273778
0.0222513
0.0221205
8.89004
0.0582372
0.0215432
0.0219648
0.0219536
0.0265216
0.080043
0.0222518
0.0303576
0.104234
0.143531
0.120735
0.0219668
0.0222377
3.49276
0.023483
0.0216033
4.15088
7.2615
0.0217004
0.0214388
0.0267613
0.0220539
0.0385804
0.0222485
3.14158
0.0222727
2.25281
0.0219601
5.32788
0.0292501
0.0219499
0.0516943
0.0215976
0.0220296
0.0222648
0.0311733
0.470125
0.021862
0.142899
0.0222856
0.0221997
0.118244
0.021733
0.0221279
0.0221017
0.0214707
0.0219636
0.0215187
0.0221659
1.35123
0.0218612
0.0217565
0.0575102
0.0216356
0.02194
0.022167
0.0221518
9.82148
0.435526
0.0220089
0.022847
0.0219468
0.0222856
0.161064
0.0220547
0.0219829
7.9328
0.0219612
0.0425442
0.0480737
0.0380474
0.0218848
0.170674
0.0219159
0.29186
0.0705586
0.0219025
7.04815
2.3422
0.0283522
0.126716
0.0218373
0.0218807
0.0456264
0.173724
0.0217637
0.0218575
0.0221823
0.0399802
0.0221023
0.0360458
0.0221099
0.0457462
0.35835
0.0391992
0.151111
0.0218472
0.0246254
0.022888
0.0236999
0.0216933
0.0219077
0.0228327
0.0235587
0.0690793
0.0223504
0.0784604
0.0219447
7.14221
0.0215226
0.0217796
0.0686472
0.0222717
0.10046
0.0721118
0.0370232
0.0220058
0.0228421
0.0219662
0.0369617
0.0220861
0.0563291
0.0250598
0.0221538
0.021681
0.0273841
8.11204
0.0315885
0.0522783
4.83522
2.28847
0.0386604
0.0215767
6.78983
0.0219491
0.0233818
0.0224135
0.088075
0.0219269
0.0352497
0.0278458
0.0234968
0.0221214
0.0251423
0.0222
0.0538135
0.0219359
0.0221854
0.0219579
0.0278948
1.35759
0.0219932
8.3248
0.0886612
0.0214591
9.24251
0.247968
0.0218529
0.023151
0.071938
0.0217968
0.0219121
4.4473
0.0220268
5.82922
0.025585
0.0244415
0.0226757
0.0224434
0.0219213
0.0218503
0.0623326
0.0225516
0.0219597
0.0219189
0.0223965
5.45214
0.0364489
0.0220341
0.0291334
0.126711
0.0678213
0.0218865
0.0220063
0.0219656
0.0247127
0.0228139
0.0224299
0.02625
5.17335
0.0218321
0.022945
3.15771
0.0244357
0.0874679
0.135606
0.0218793
0.0222702
1.06953
0.0749922
0.141493
5.65988
6.23238
0.157963
3.21414
0.0218016
0.0231638
0.0216853
0.0221865
5.57296
0.0219989
0.0502057
0.0549825
0.0285484
0.0249912
0.503114
0.0219098
0.0221157
0.0250277
0.0219391
0.0220495
0.0217759
0.0221567
0.0611168
0.0219427
0.0221521
0.021788
0.0463064
0.0221323
8.88508
0.0219243
0.0231015
0.0218167
0.0222522
0.0227082
0.0219552
0.0374574
0.0229695
0.021935
0.0278051
0.0220236
0.0222647
0.0219926
0.0312112
0.0223183
0.0220333
0.0220464
0.0220595
0.0275089
0.0220204
0.0220081
0.0907701
0.0220741
0.0219243
0.0236938
3.59521
0.0471048
0.0224403
0.0455696
11.282
0.0997127
0.168337
0.0238933
0.0227471
0.0260583
0.699709
0.0220669
0.194968
0.0227405
0.0218912
0.027869
0.0220501
0.0646345
0.0697872
0.0597083
0.0229051
0.0219515
0.0278813
0.0272055
0.0229422
0.024124
0.0235525
0.0446563
0.0768838
0.0617849
0.0219358
0.024134
2.0327
0.0231411
0.0222854
6.38911
0.522009
0.0219492
0.0224106
0.0233105
0.0691264
11.2012
0.0219599
0.345507
6.72203
0.0388459
0.0551538
0.0217333
0.0234577
0.022657
0.0714828
0.0222319
0.0296724
0.023384
0.255827
0.0221935
0.0220615
7.56089
0.0234299
0.0230199
0.0221471
0.0222126
0.0374544
4.54873
0.0276054
0.0220433
3.33185
0.0799311
0.0223023
0.0219635
0.0218354
0.0240134
0.0217628
0.162917
0.0218712
0.0241577
0.0249568
0.0511885
0.0261661
0.0218343
0.0270687
0.0240926
0.0218314
0.0809964
0.0220875
0.0232752
0.0216938
0.022272
25.0285
0.0273895
0.0222876
4.7591
0.0227365
0.0219505
1.50594
0.0574757
4.42976
0.0219286
0.0230031
0.0218823
0.022554
0.0229477
5.15099
0.0224977
0.0768558
0.0217893
0.0222376
0.0238255
0.0219545
0.0369437
9.13566
0.494861
0.0219529
0.0217246
0.215122
0.0225761
0.0221294
0.0262634
0.026249
0.407792
0.0818843
0.022742
6.2117
0.073467
0.0224018
0.0217568
0.0222186
0.0284819
5.30897
0.022284
0.055074
0.0227429
0.0220896
0.0215935
0.0225105
16.917
0.0270223
0.0217745
0.0237025
0.0220949
0.0254219
0.0214497
0.0232961
0.0219585
0.02291
0.444751
0.0220437
0.022213
0.0834188
0.0216187
0.0215846
7.46719
0.021884
6.86324
5.61965
12.8259
0.0264535
0.0221434
0.0215118
0.022139
0.0214856
0.0235698
0.187121
0.044988
0.43192
0.0749921
0.0240115
0.0216182
0.0229604
0.022571
0.0222726
0.0221336
0.0215735
0.0753048
0.0224799
24.4035
0.0222641
0.0226801
0.0222636
0.0220647
8.91396
0.146583
0.0287396
0.0215103
0.0466351
0.0231092
0.0219725
0.0674783
0.0214544
0.0233249
9.32396
0.0219615
0.0219081
0.0219067
6.74761
5.08339
0.0216794
0.0225788
0.0245999
0.0221093
0.0217092
0.0219582
0.0220755
0.021914
0.0218528
0.0218991
0.0244813
4.91745
0.0384899
0.0219403
0.0219381
0.0223082
0.0221347
0.0221773
0.0258721
0.0276311
16.5722
0.0252929
0.0221817
0.0229032
0.0219495
0.0809634
0.0216129
0.0222237
0.023266
0.0280205
0.0267423
10.1955
0.0221067
0.0291394
0.0226182
0.0225648
0.0221042
0.0216368
0.0229682
0.0960925
0.165053
0.0217501
0.0337174
0.0672278
0.0222648
0.0355556
0.0375646
4.66262
0.0222494
0.0235044
0.0225223
0.0216049
0.0662569
0.0219606
0.0219985
0.0450669
0.199937
0.181084
0.0217783
0.0219212
7.17674
4.66641
0.0216129
0.925716
2.25057
0.0218274
0.0216084
0.0217935
0.022078
0.02214
0.0215651
0.0279624
7.91839
0.0218097
0.0219607
0.0217015
0.0221574
0.021802
0.021846
0.0215551
4.65942
0.0220158
0.192
0.0221646
0.0218086
0.0229158
0.0218424
0.0221755
0.0277254
0.0221544
0.022336
6.45183
0.0219921
0.0247551
0.0220173
0.0219875
0.0221402
0.0218203
0.0989696
0.0220567
0.0221057
0.0220079
0.174093
0.0309522
0.022146
0.0221751
0.0219425
0.0229809
4.45011
0.0233355
0.0236394
0.0219531
0.0221224
0.0219577
0.049417
0.0231176
0.0228308
0.39513
0.0430324
0.021815
0.0247522
0.0220188
0.0223964
0.02183
4.86091
0.0219617
0.0220582
0.0218126
0.0299303
0.0233485
0.0230924
0.0219294
0.0217968
0.0553083
9.87452
0.0218255
0.0568136
0.0234183
0.0233343
12.2486
0.0217594
0.0219849
0.0219525
0.023595
0.0232111
0.0217959
0.0241468
0.0219094
0.0837639
0.0215395
0.0217246
0.0249101
0.022142
0.0819646
0.0254558
16.2671
0.0573458
0.0222121
0.10139
4.62226
0.0227301
0.0242555
0.0220679
0.025271
0.0217873
0.0355326
0.0426334
0.0218911
0.0290909
0.0219196
4.74225
0.0222292
0.0238061
5.69687
0.0385226
0.0238463
0.157503
0.0221557
0.0219947
4.89556
0.0217606
12.4172
0.0218532
0.021874
0.062536
3.34047
0.0219187
0.0431301
9.46315
0.0218613
0.0221745
0.022003
0.0267131
0.0250509
0.0227697
0.0220052
4.46399
0.0219649
0.0225839
0.0219433
0.0219146
0.0220352
0.0233203
0.0286148
10.3295
0.0222315
9.66297
0.0219443
0.0227608
0.024437
0.0226299
0.0521772
0.0539639
0.0224291
0.0219369
0.0218313
0.0766859
0.0217386
0.0218398
0.467048
0.11879
0.021745
0.0220026
0.0217908
0.0220879
0.0245292
0.0815403
0.0219662
0.0221267
0.0217519
0.0221922
0.021965
0.0215128
0.0265334
4.95652
0.021705
0.0223241
6.92967
0.0219135
0.0377053
0.0220686
0.0284956
0.0476541
22.7772
0.0222612
0.0220545
0.0217949
0.022157
0.0220416
0.0214579
0.0221438
0.0221266
0.0231574
0.0479781
0.0246353
0.0233906
9.32942
0.0220284
0.148875
0.0217387
0.0219233
0.0220158
6.12399
0.0218489
0.0512016
0.022952
0.0225923
0.0219341
0.0217601
0.0218751
0.0223763
0.0218572
0.0218232
0.0470107
0.246602
8.8763
0.0217978