/*--------------------------------*- C++ -*----------------------------------*\
| =========                 |                                                 |
| \\      /  F ield         | OpenFOAM: The Open Source CFD Toolbox           |
|  \\    /   O peration     | Version:  v2012                                 |
|   \\  /    A nd           | Website:  www.openfoam.com                      |
|    \\/     M anipulation  |                                                 |
\*---------------------------------------------------------------------------*/
FoamFile
{
    version     2.0;
    format      ascii;
    class       volVectorField;
    location    "900";
    object      U_0;
}
// * * * * * * * * * * * * * * * * * * * * * * * * * * * * * * * * * * * * * //

dimensions      [0 1 -1 0 0 0 0];


internalField   nonuniform List<vector> 
10042
(
(0.996111 0.0114984 1.18688e-20)
(0.998562 0.00449763 -5.98951e-21)
(1.03577 0.018241 -1.30335e-21)
(1.00996 8.06972e-05 -2.06894e-21)
(0.917021 0.0318133 -3.5282e-20)
(0.999246 0.00440427 2.64531e-21)
(0.783653 -0.148986 -6.87521e-20)
(1.23049 -0.0674041 -1.72618e-19)
(1.02996 0.0170392 -9.37894e-21)
(1.00182 0.00481768 -1.52335e-21)
(-0.25287 -0.0191249 -7.11336e-20)
(1.01536 0.000111383 2.26159e-21)
(1.01744 0.00275124 2.61517e-21)
(1.0178 0.00115702 3.99676e-23)
(0.961226 0.0568629 -9.85182e-22)
(0.999719 0.00552969 8.53951e-21)
(0.999644 0.00580905 -2.62184e-21)
(1.00005 0.00051046 -8.94962e-21)
(0.996249 0.0110548 -4.82117e-21)
(0.696556 0.312705 0)
(1.00427 0.00569069 2.10224e-22)
(1.15484 -0.0885319 4.16639e-20)
(1.0166 0.000629491 3.20153e-21)
(1.01554 0.0053666 0)
(0.998655 0.00427163 -1.36193e-22)
(1.07731 0.022862 0)
(0.998896 0.00181104 6.68167e-21)
(0.995679 0.0562338 -4.4601e-21)
(1.0209 0.0243138 1.50649e-21)
(1.00284 0.050035 1.27583e-22)
(0.996524 0.00289322 4.67143e-21)
(-0.16575 0.0023089 -1.64757e-19)
(1.00179 0.00453938 0)
(1.01927 0.0450216 1.98403e-21)
(1.06224 0.0529668 -2.87805e-21)
(1.01509 0.00552307 -9.13812e-22)
(1.07489 0.0260684 -2.63203e-20)
(1.07895 0.0055467 0)
(1.01477 0.00516042 0)
(1.01044 0.117327 1.04361e-21)
(0.66693 0.306151 7.31485e-20)
(0.969665 0.0558971 -1.11044e-20)
(0.738 -0.158746 0)
(0.992869 0.033864 -3.85383e-21)
(0.915028 0.0337187 -3.56843e-20)
(1.1056 -0.0160724 1.96263e-21)
(0.977033 0.0386312 -1.20451e-20)
(1.08921 -0.0597465 3.8185e-20)
(1.07127 0.0355228 0)
(1.06275 -0.0200191 9.50327e-21)
(1.00053 0.000566631 1.97883e-21)
(1.04476 0.00325044 -1.61143e-20)
(0.959627 0.045425 0)
(1.04932 0.00542385 1.37861e-20)
(1.07507 0.0279937 2.94219e-20)
(0.999322 0.00456768 1.54641e-21)
(1.02173 0.0243435 -1.58119e-21)
(0.977539 0.0373866 -1.74016e-22)
(1.01987 0.0436379 2.25924e-21)
(0.962138 0.0455262 8.86625e-21)
(0.997594 0.00348477 -8.52086e-21)
(0.997025 0.0051546 4.17515e-21)
(1.06323 0.0555769 1.30547e-20)
(1.03485 0.0184023 1.97562e-21)
(0.965324 0.0189502 2.90899e-20)
(1.02249 0.0428499 9.26673e-23)
(0.973223 0.0139673 -1.06217e-20)
(0.743767 0.219956 -3.45606e-20)
(-0.0699019 -0.0535928 3.74343e-20)
(1.00053 0.0284713 0)
(1.04905 0.00479667 0)
(0.650767 0.318867 -7.52948e-20)
(0.991631 0.033665 0)
(0.865966 0.0780885 8.17378e-20)
(0.974123 0.0102392 0)
(1.01587 0.00567217 1.17371e-21)
(0.790862 0.011967 1.18875e-20)
(0.996124 0.0100415 0)
(0.906313 0.096618 0)
(0.683751 -0.130867 -1.62012e-19)
(1.06896 0.0350346 0)
(1.1266 0.0634567 -1.114e-19)
(1.00719 0.0375302 0)
(0.972049 0.0491432 -3.84548e-21)
(0.97294 0.012849 -2.87866e-20)
(1.00016 0.00189409 0)
(0.99665 0.0136077 -6.11161e-21)
(1.19275 0.233182 0)
(0.985973 0.0222069 -6.72341e-21)
(0.997093 0.0136847 4.5992e-21)
(1.03151 0.0340288 -2.08143e-21)
(1.13442 0.0707076 -4.96267e-21)
(0.996762 0.0581114 4.85105e-21)
(1.04401 0.00341439 4.83675e-21)
(1.00166 0.0486167 -1.27992e-22)
(1.01522 0.0309966 0)
(0.999303 0.00959769 -6.39747e-21)
(1.0097 0.0298705 -8.97151e-22)
(1.01016 0.113802 0)
(1.02607 0.0224101 -2.41322e-21)
(0.99999 0.000105366 -8.14519e-21)
(1.18658 0.164118 0)
(1.24458 -0.085053 -8.53059e-20)
(1.00019 0.00202742 -3.88065e-22)
(0.989402 0.0522905 -6.11901e-21)
(1.06129 0.19607 -4.94792e-21)
(0.993649 0.0106345 -1.54609e-20)
(0.999374 0.0100536 -3.24991e-21)
(1.00413 0.00534391 0)
(1.02494 0.00194475 0)
(1.01077 0.00144976 -9.35782e-23)
(1.00427 0.0227766 4.50539e-21)
(1.03802 0.0773031 9.25296e-21)
(-0.110369 -0.0488312 -4.21269e-20)
(0.966259 0.017971 -1.33743e-20)
(1.00156 0.0208417 0)
(0.991057 0.00371021 -8.20618e-21)
(0.995959 0.0105211 -6.27242e-21)
(1.01583 0.0302239 -4.0455e-22)
(-0.0341544 0.027971 1.1913e-19)
(0.986097 0.021228 1.21345e-20)
(1.22186 -0.074062 8.27002e-20)
(0.99629 0.0370679 7.91079e-21)
(0.993798 0.00137907 0)
(1.18367 0.155499 -1.37444e-20)
(1.00639 0.0382228 1.64231e-21)
(1.22385 -0.0623301 8.101e-20)
(1.07361 0.0488589 3.94941e-20)
(1.05295 0.193047 -6.76838e-22)
(0.99766 0.0147166 -4.75776e-21)
(0.90406 0.102645 -3.11102e-20)
(0.979454 0.0215738 0)
(-0.193555 -0.00658806 1.16971e-19)
(1.19844 -0.0203974 -1.46732e-19)
(1.02522 0.0225927 -5.87828e-21)
(1.11757 0.156317 5.44887e-20)
(-0.150456 0.0166894 0)
(1.03161 0.0354376 -5.15361e-21)
(1.09429 -0.0627669 0)
(1.20306 0.240897 0)
(0.983446 0.053383 0)
(0.990531 0.00371263 5.51119e-21)
(0.984217 0.0473735 0)
(1.21913 0.11335 -2.90442e-22)
(1.04 0.00483715 9.16196e-21)
(1.00395 0.0222022 0)
(1.13223 0.120287 3.53742e-20)
(1.02958 0.00369053 -2.93205e-21)
(1.00966 0.0308898 1.09326e-21)
(1.01401 0.0852176 -3.36917e-21)
(1.03218 0.0161315 0)
(1.00004 0.000198655 4.24515e-21)
(0.297866 -0.0741057 1.00358e-19)
(-0.0803868 0.0152568 -2.33807e-19)
(0.9996 0.00184808 0)
(1.01739 0.00241905 -3.87786e-21)
(0.952183 0.0136956 -2.01535e-20)
(0.996704 0.00521479 0)
(1.11729 0.16341 -3.14281e-20)
(-0.109528 -0.00039169 0)
(-0.255638 -0.0203658 1.31953e-19)
(1.18462 0.00502695 0)
(0.99547 0.00372757 -6.15441e-21)
(1.03166 0.0167858 -1.26432e-20)
(1.01086 0.0401676 -2.86278e-22)
(0.98018 0.0204574 0)
(0.971334 0.256736 0)
(0.228458 0.143577 -2.45085e-19)
(-0.18785 0.00831242 1.71739e-19)
(-0.0333275 0.014646 1.07379e-19)
(1.04724 0.00746045 -9.77515e-21)
(1.00509 0.0126697 0)
(1.3164 0.107005 -9.87547e-21)
(0.70304 0.36769 -1.92639e-20)
(0.919054 0.164756 -2.3506e-20)
(0.579977 -0.218131 1.01075e-19)
(-0.169998 0.0540932 1.28802e-21)
(0.994461 0.0355929 -4.57903e-22)
(0.730016 0.240334 6.96057e-20)
(1.06323 0.0971686 0)
(0.949733 0.01448 -1.87722e-20)
(-0.147158 0.00281599 -1.23197e-20)
(0.972144 0.0167681 9.27657e-21)
(1.07174 0.0501265 7.95344e-21)
(0.969506 0.0531331 -1.78335e-20)
(-0.00173017 0.0311852 -3.21378e-19)
(1.21834 0.00448478 -4.28982e-20)
(1.02016 0.0385086 5.01354e-21)
(-0.213373 -0.0390719 5.70344e-22)
(1.05113 0.0415985 0)
(0.783693 0.799115 0)
(0.982265 0.0469499 0)
(0.286108 -0.0811222 8.66405e-20)
(1.40591 0.128415 -1.08786e-19)
(1.15476 -0.0156679 -8.64041e-20)
(1.38169 0.0585699 -1.16205e-19)
(1.06397 0.0291904 -6.48824e-22)
(0.99457 0.00938111 3.08843e-21)
(1.01703 0.00223328 -1.20816e-21)
(1.02886 0.0602451 -1.43979e-20)
(0.895409 0.149085 -5.5661e-20)
(1.02121 0.0389198 -4.28848e-22)
(1.00567 0.0230245 0)
(0.72876 0.390118 4.0371e-20)
(0.971791 0.0154355 0)
(1.01874 0.0143903 0)
(0.866228 0.840194 1.11982e-19)
(0.999356 0.00223003 5.66018e-21)
(1.00004 0.000598781 4.90279e-21)
(0.999895 0.00127735 1.5928e-20)
(1.30229 0.0566077 0)
(1.01746 0.000392205 2.15621e-21)
(0.964991 0.245858 0)
(1.08575 0.441461 1.47643e-19)
(0.954176 0.0154444 1.74927e-20)
(1.22301 0.00602719 -6.4343e-21)
(0.97755 0.00879353 2.99671e-22)
(1.00036 0.00674331 0)
(1.1515 0.0981926 -6.84482e-20)
(1.00997 0.0155902 -1.96444e-21)
(1.04107 0.0771699 -4.39254e-21)
(0.951847 0.0221901 -1.90537e-20)
(1.18612 0.381083 0)
(1.08018 0.00369066 0)
(0.946546 0.072657 0)
(1.07885 0.0193091 -3.47658e-20)
(1.21487 -0.0419225 1.08317e-19)
(1.00275 0.0215631 1.10075e-20)
(1.20692 0.0202877 -8.94803e-21)
(1.04994 0.00422292 -7.60835e-21)
(1.03069 0.0165021 2.37248e-22)
(0.846114 0.393324 -2.23548e-20)
(1.00467 0.0121972 1.17498e-22)
(1.0498 0.00368278 -1.38743e-20)
(1.03625 0.0190355 0)
(1.01681 0.0867983 5.90452e-21)
(1.01693 0.016206 -6.40298e-22)
(1.01832 0.000756993 2.39524e-21)
(1.05159 0.025219 0)
(1.05636 0.00188846 0)
(0.995396 0.00340071 -5.92957e-21)
(0.994956 0.0370168 -8.29245e-21)
(1.01067 0.0387782 0)
(1.03734 0.0804091 -7.41771e-21)
(1.0019 0.020201 2.06354e-22)
(0.99678 0.00308128 -4.40805e-21)
(1.01444 0.00124261 -1.06429e-23)
(0.990111 0.0544204 -6.4494e-21)
(1.04813 0.00621747 -6.11559e-21)
(1.00003 0.000383495 8.05907e-21)
(1.01694 0.00143789 -2.7845e-21)
(1.00106 0.0276121 -3.78359e-21)
(0.994487 0.078112 -1.22166e-21)
(1.20279 0.391903 0)
(1.18656 0.00958019 5.72988e-20)
(-0.230438 -0.0329878 6.96844e-20)
(0.911833 0.169596 1.63668e-20)
(0.935027 0.164447 3.212e-20)
(0.960849 0.0597408 0)
(1.11279 -0.0201716 7.26214e-20)
(0.844955 -0.184885 -1.20155e-19)
(1.05006 0.0250574 -1.98183e-20)
(0.993784 0.010126 6.46976e-21)
(1.01811 0.00078488 0)
(1.02678 0.059795 -1.09224e-20)
(1.01658 0.0156125 1.23877e-21)
(1.15368 -0.0969959 0)
(1.05224 0.0116726 -2.05331e-20)
(0.997153 0.0145411 -1.57019e-22)
(0.999939 0.00115731 -1.83262e-20)
(0.885332 0.150601 4.80579e-20)
(1.04908 0.00603314 -3.63304e-20)
(1.09696 0.423025 -8.32594e-20)
(0.928284 0.169608 -1.16604e-20)
(1.22194 0.19436 0)
(1.0518 0.0432618 0)
(1.056 0.00150688 0)
(1.01557 0.0151119 1.13788e-23)
(1.06162 0.014597 -1.68564e-20)
(1.0406 0.00527107 -6.87927e-21)
(1.06668 0.0995376 1.83956e-20)
(0.990268 0.0226704 1.05054e-20)
(1.0774 0.0249592 3.16822e-20)
(-0.152651 -0.00510282 1.0202e-19)
(1.01823 0.0140752 -1.7271e-22)
(1.0324 0.0203494 -3.16076e-20)
(0.901266 -0.17555 1.03066e-19)
(1.1098 -0.0166062 -1.90912e-20)
(1.02002 0.0374562 -3.7748e-21)
(0.997324 0.00309409 0)
(0.995147 0.0751905 -3.98077e-21)
(0.553821 -0.227016 -8.92582e-20)
(1.13244 0.0397302 -9.55712e-20)
(1.22377 0.108465 1.47582e-19)
(1.00045 0.00047308 -4.0756e-21)
(1.01709 0.00192051 5.08224e-21)
(1.00312 0.0222188 -6.27454e-21)
(1.03009 0.017786 -3.41038e-22)
(1.21425 -0.0471639 -1.70905e-20)
(0.994407 0.0186268 -1.68081e-21)
(0.997611 0.00376404 2.71343e-22)
(1.00478 0.0140013 8.90974e-22)
(0.977474 0.00752788 -1.53481e-20)
(1.0749 -0.0012107 1.7101e-20)
(0.96941 0.0661273 0)
(1.11648 0.219653 -4.47368e-20)
(0.750743 -0.0540853 0)
(0.963484 0.0427375 -2.82175e-20)
(1.25775 -0.0290559 7.60931e-20)
(1.00178 0.0187391 -3.49724e-21)
(1.06041 0.0148181 0)
(0.998711 0.00184938 -1.44285e-21)
(-0.286511 -0.00238568 -1.76101e-19)
(1.18736 0.139917 3.1065e-20)
(1.34945 0.135404 -5.18924e-20)
(-0.164786 0.0858061 6.72438e-20)
(1.01673 0.00585013 -1.63378e-21)
(1.05266 0.0112081 1.41461e-20)
(1.00099 0.0294144 4.91535e-21)
(0.97997 0.0724446 -2.193e-20)
(1.07938 0.0215038 1.87879e-20)
(1.00005 0.00119669 1.08719e-22)
(1.05652 0.112305 -4.46805e-23)
(1.01118 0.00151489 5.87159e-23)
(1.01865 0.000486768 -2.52818e-21)
(0.993171 0.0354554 8.99515e-21)
(1.12288 0.226889 6.04578e-20)
(0.999989 0.000376816 0)
(1.04902 0.0411579 2.87977e-21)
(0.980449 0.0181257 -1.54468e-20)
(0.971571 0.0643759 -8.01658e-21)
(-0.149812 -0.0133316 1.82053e-19)
(1.00149 0.0194313 -2.11159e-22)
(0.999504 0.00194884 5.76933e-21)
(1.0027 0.00167213 0)
(1.03446 0.0174012 0)
(1.08092 0.139337 -4.8412e-20)
(1.15494 -0.0189178 1.19404e-19)
(0.944201 0.16798 -2.33514e-20)
(1.25431 -0.0176326 -6.07328e-20)
(1.07664 -0.000205581 -2.10238e-20)
(1.06874 0.049427 0)
(0.979626 0.0190456 0)
(1.01803 0.00110556 0)
(1.03551 0.0327213 1.77116e-21)
(1.00004 0.000426195 9.14028e-21)
(1.22838 -0.0167705 -1.09032e-19)
(0.990714 0.0234052 -1.11063e-20)
(1.02165 0.0439667 -5.63666e-21)
(1.05846 -0.0683898 0)
(1.00505 0.0233184 -4.68127e-21)
(0.984309 0.0793604 -1.04866e-20)
(0.971911 0.0517522 1.66579e-20)
(1.0604 -0.0746814 1.3919e-21)
(1.03862 0.0120274 -6.03862e-21)
(0.947888 0.0699665 0)
(1.05153 0.185183 3.9111e-20)
(1.05199 0.112219 1.40117e-20)
(1.03129 0.0571828 -3.69101e-21)
(0.993599 0.00840452 -1.95613e-20)
(1.29527 -0.0194403 0)
(1.1373 0.118022 -6.15067e-20)
(1.04438 0.0164748 -1.13387e-21)
(1.08098 0.133055 2.83915e-20)
(1.00119 0.0082803 0)
(1.00465 0.0116991 2.67744e-21)
(1.00141 0.00823847 -4.8264e-21)
(0.981373 0.0796134 0)
(1.32034 0.152045 9.07504e-20)
(1.05484 0.00551279 0)
(1.00005 0.00101099 -3.61593e-22)
(0.965713 0.0430197 0)
(1 0.000113343 0)
(0.999997 0.000722461 0)
(0.716594 0.331423 2.08875e-20)
(0.99435 0.00892849 1.55634e-21)
(1.02464 0.0105707 5.75379e-21)
(-0.126761 0.0176396 0)
(1.00625 0.00829753 3.23947e-23)
(1.21928 -0.102866 0)
(1.22518 -0.021514 0)
(0.86676 0.0856959 -9.45185e-20)
(0.398074 -0.245372 0)
(-0.228847 -0.0321547 0)
(1.01005 0.104211 -1.36938e-21)
(0.822455 0.391416 5.35e-20)
(0.9993 0.001983 -5.77945e-21)
(1.06484 -0.0222651 0)
(0.999997 0.000230396 -6.62905e-21)
(0.976806 0.0341502 0)
(1.04917 -0.130863 6.86625e-20)
(1.00049 0.00463356 0)
(0.977724 0.0744291 1.22507e-20)
(0.613838 1.01763 1.24666e-19)
(1.01616 0.000548944 -2.39034e-21)
(1.00414 0.00591402 -2.13518e-21)
(0.783128 0.137335 -2.94222e-20)
(0.821135 0.733875 0)
(1.02197 0.0413628 -2.75875e-21)
(1.02879 0.00428344 5.6488e-21)
(-0.170069 0.0064716 0)
(1.19089 0.148213 1.63077e-20)
(1.00512 0.0132245 -1.56915e-21)
(0.736677 0.204604 5.22017e-20)
(-0.181 -0.0257367 0)
(1.01048 0.0158566 0)
(1.00003 0.000725594 3.59241e-22)
(1.02074 0.0115145 -4.56714e-21)
(0.998914 0.0167255 1.1197e-21)
(1.01859 0.000595361 2.65018e-21)
(1.01821 0.0132903 -3.0122e-21)
(1.2934 -0.0237141 0)
(1.24243 -0.0771098 5.57708e-20)
(0.976223 0.0355625 1.03291e-20)
(0.933013 -0.0341797 9.84863e-20)
(1.0176 0.000996853 2.65529e-21)
(0.994505 0.0177042 7.56325e-21)
(1.30055 0.202365 8.47548e-20)
(1.04031 0.0158805 6.97763e-22)
(1.22209 -0.0936793 8.57982e-20)
(1.13711 0.038445 1.14288e-19)
(0.969993 0.047977 2.88213e-20)
(1.02584 0.00851762 1.04113e-20)
(1.02815 0.00430737 2.69896e-21)
(1.09373 0.336141 0)
(1.04805 0.00725296 2.28817e-20)
(1.00597 0.10604 1.29075e-21)
(0.99577 0.0490761 -4.38848e-21)
(-0.23314 -0.0219656 7.17332e-22)
(0.956327 0.0144391 3.35624e-20)
(1.41694 0.145625 6.23461e-20)
(0.964284 0.0560705 -1.50608e-20)
(1.00278 0.00716153 3.25747e-21)
(1.00196 0.0215538 -3.29762e-21)
(1.26448 0.330605 0)
(1.00235 0.00686061 7.5449e-21)
(0.911299 0.032191 0)
(0.997298 0.0224596 -6.49292e-21)
(1.03783 0.0120541 2.30191e-21)
(-0.137288 0.00603994 4.47589e-20)
(1.06446 0.0327383 4.41479e-20)
(0.990713 0.00536003 1.04837e-20)
(1.01142 0.000933817 -9.31767e-24)
(-0.217078 0.0116945 -3.99717e-23)
(0.998247 0.0157345 0)
(1.06584 0.0337435 -2.89937e-20)
(1.02287 0.0613619 0)
(1.01592 0.0156376 -2.89907e-21)
(1.11808 -0.0166207 -9.95732e-20)
(0.414649 -0.236773 8.79867e-20)
(1.00481 0.00705319 -4.04699e-21)
(0.968123 0.0180405 2.47922e-20)
(1.05565 0.00576501 -3.62942e-21)
(1.01682 0.00168206 -3.59971e-22)
(0.999766 0.0063024 0)
(0.992757 0.00036568 0)
(-0.214769 0.00988726 -8.96096e-20)
(0.994248 0.000115213 0)
(1.01779 0.000502556 -4.10075e-21)
(0.976823 0.112304 -7.38955e-21)
(1.22461 -0.0847886 7.26112e-20)
(1.14276 0.0901249 -1.09901e-21)
(1.00003 0.000465921 -2.15726e-22)
(1.06398 0.092242 0)
(-0.148559 -0.0149657 0)
(1.0754 -0.00366033 -1.8201e-20)
(0.989239 0.00134267 1.12681e-21)
(0.993944 0.00785515 -1.27596e-20)
(1.20083 -0.0157305 3.563e-20)
(1.04337 0.0162641 1.78583e-20)
(1.00274 0.00679662 -3.22408e-21)
(0.903874 0.0849908 3.61574e-21)
(1.03112 0.0182873 1.08689e-20)
(1.01779 0.013053 2.72934e-21)
(0.949918 0.0238745 0)
(1.01923 0.00573152 1.02958e-22)
(0.968473 0.174017 0)
(0.993174 0.0110436 8.45707e-21)
(1.00217 0.0069033 -4.00113e-21)
(-0.278671 -0.0172271 0)
(1.00925 0.00625142 9.55406e-22)
(1.04645 0.00690635 1.26176e-20)
(1.00069 0.00452121 1.03272e-20)
(0.996788 0.0474296 1.12653e-20)
(1.05876 0.106829 -1.78406e-20)
(1.00459 0.0068422 2.55205e-21)
(1.03355 0.0173205 0)
(1.33703 0.149254 -2.04297e-19)
(0.999873 0.0528307 3.59766e-22)
(0.611436 -0.0832929 1.08951e-19)
(1.04917 0.0264147 1.18684e-20)
(1 0.000200193 6.84633e-21)
(1.00001 0.00017353 0)
(1.19975 0.1762 1.08769e-19)
(0.989369 0.0189709 -9.67604e-21)
(0.990624 0.00495781 -8.72593e-21)
(1.00229 0.00191735 0)
(1.04545 0.015444 0)
(0.953292 0.0997866 0)
(0.829851 -0.129916 8.52808e-20)
(0.997724 0.0155366 -4.85043e-21)
(0.961004 0.171227 0)
(0.681089 0.815977 -2.6699e-20)
(1.07395 -0.0046623 -1.07836e-21)
(1.00003 0.000691562 -5.21464e-21)
(0.992575 0.00322549 7.20821e-21)
(1.04165 0.00997279 2.08495e-20)
(1.00017 0.00207927 -7.43795e-21)
(1.00059 0.0172 -3.99172e-21)
(-0.0480289 0.0829768 -6.19659e-20)
(-0.191132 0.0121253 1.71874e-19)
(1.00047 0.00441954 0)
(1.07339 0.0463696 -6.17119e-20)
(1.06654 0.00438909 1.66607e-21)
(1.06534 0.00478908 -1.57987e-21)
(0.972882 0.0097135 5.73061e-21)
(1.01308 0.00143892 6.77289e-22)
(1.19238 -0.0802233 -6.58651e-20)
(1.10191 0.324992 0)
(0.719187 0.794151 0)
(1.02514 0.00847693 -4.21941e-21)
(1.04239 0.0105502 3.23089e-21)
(1.03931 0.0160907 0)
(1.00608 0.00852472 1.14715e-21)
(-0.0285064 -0.0483049 1.99498e-19)
(1.07489 0.0995196 4.82971e-20)
(1.04522 0.0162725 1.05764e-20)
(1.02087 0.0280443 -6.07976e-21)
(1.00933 0.000676054 4.38099e-22)
(0.975053 0.00759753 0)
(1.2015 -0.0798806 6.19118e-20)
(1.06526 0.0308121 -2.4387e-20)
(0.998948 0.00166907 0)
(-0.248529 0.00326584 9.75029e-20)
(0.80439 0.687599 0)
(1.0578 0.486064 0)
(1.06971 0.192993 2.10054e-20)
(0.999795 0.00599159 0)
(1.02509 0.0236732 1.04053e-20)
(1.05269 -0.0232739 2.56148e-20)
(1.12548 0.111002 -1.27785e-20)
(-0.00446063 0.0196684 1.22635e-19)
(0.337654 0.165667 2.28388e-19)
(0.946427 0.0630018 0)
(0.907032 0.0302562 0)
(1.00018 0.00176271 0)
(1.0486 0.0392683 1.63662e-21)
(0.969324 0.0186234 0)
(1.0002 0.00194324 -1.53886e-21)
(-0.255236 -0.0220066 -1.96033e-19)
(1.0148 0.00133401 0)
(1.00144 0.0180236 4.05979e-22)
(1.09635 -0.0193698 0)
(1.00013 0.001945 6.79474e-21)
(1.12454 -0.121487 0)
(1.04775 0.0259765 1.09076e-20)
(1.15463 -0.0494919 -5.6316e-21)
(1.02338 0.109547 1.181e-20)
(0.999984 0.00119948 9.89115e-21)
(1.05205 0.0147414 -6.30098e-21)
(1.06398 0.0509546 2.90372e-20)
(1.05593 -0.00867839 -1.35591e-20)
(1.0727 0.187481 -2.03268e-20)
(0.975175 0.308584 -5.93218e-21)
(0.999972 0.00040874 -5.47325e-21)
(1.05992 -0.0195503 3.1156e-21)
(1.02982 0.0519004 0)
(1.01404 0.0306867 -3.05452e-22)
(1.0008 0.00274919 -6.98191e-22)
(1.03555 0.0338818 0)
(0.996076 0.000314596 5.01705e-21)
(0.945131 0.0662092 0)
(1.14225 0.0862371 1.77533e-20)
(0.848908 0.144125 0)
(0.998904 0.00133506 1.31183e-20)
(0.998859 0.0544691 2.39825e-21)
(1.00236 0.00178051 3.56302e-21)
(0.990368 0.00867209 9.40384e-21)
(0.80658 0.372247 -3.62393e-20)
(1.00368 0.00475212 1.90544e-21)
(1.01896 0.0624751 0)
(1.14762 -0.0863117 -1.15253e-19)
(1.01883 0.00554782 5.72045e-21)
(1.12599 0.117073 0)
(1.04332 -0.037216 0)
(0.997075 0.0029084 4.70299e-21)
(-0.0190889 0.0328112 0)
(1.10027 0.0134882 2.9449e-20)
(1.00006 0.00203467 -8.10022e-21)
(1.23106 0.018807 -1.17721e-19)
(1.03796 0.0185581 0)
(1.00003 0.000500965 -1.59098e-22)
(0.979216 0.0131285 1.97434e-20)
(0.993978 0.00251202 -1.71036e-21)
(0.999992 0.000191786 0)
(1.04976 0.0474401 0)
(0.973856 0.00736539 0)
(0.85453 0.636202 0)
(0.985658 0.0538196 7.61135e-21)
(0.993027 0.00348991 -1.40879e-20)
(1.02463 0.0400828 0)
(1.06305 0.106764 9.27229e-21)
(1.08841 0.0288396 0)
(0.99345 0.00105162 1.17436e-20)
(1.05742 0.0129221 1.71045e-20)
(1.02437 0.0237915 0)
(1.07672 0.0053687 3.49724e-20)
(0.980666 0.00684389 0)
(1.0201 0.112999 -1.09405e-22)
(1.02529 0.0108509 -8.09988e-21)
(0.944484 0.0163894 1.62957e-20)
(1.02723 0.00481221 -5.98764e-21)
(1.0018 0.00870136 3.49672e-21)
(0.849849 -0.0489057 -3.06418e-20)
(1.02024 0.0117747 9.23642e-22)
(0.808942 0.352636 0)
(0.992583 0.000855904 0)
(1.04874 0.0146362 -2.01289e-20)
(1.00989 0.00600686 -3.01723e-22)
(1.08502 0.0172815 3.97499e-20)
(1.00063 0.00433165 -1.92549e-21)
(1.1034 0.0138966 -3.41186e-20)
(1.02109 0.0365393 -5.5851e-22)
(1.22704 0.0226857 0)
(0.999997 0.000906475 -3.18507e-21)
(0.855076 -0.16237 -6.56903e-20)
(1.02972 0.00333941 3.76626e-21)
(0.970603 0.0615742 5.02171e-22)
(0.999969 0.000587841 -6.21051e-21)
(0.976474 0.00967755 -1.69761e-20)
(1.00103 0.00781729 0)
(1.04836 0.0481145 0)
(0.996166 0.000880041 -1.18255e-20)
(0.659488 0.271994 7.46491e-20)
(0.64347 0.464127 -8.29798e-20)
(1.11344 -0.125019 0)
(1.05679 0.0237727 -2.02628e-20)
(0.949209 0.161786 0)
(1.00704 0.0233762 -1.64344e-21)
(0.988279 0.173481 1.91436e-21)
(1.10344 -0.0187527 2.98544e-20)
(1.00191 0.00447548 0)
(0.910451 0.085249 0)
(0.970592 0.324582 -3.05759e-21)
(0.0297656 0.0128057 -1.15633e-19)
(1.03962 -0.0345559 -1.19317e-20)
(1.41364 0.228612 -5.00586e-21)
(1.06677 0.0517471 -8.18724e-20)
(0.998332 0.0412522 -3.5385e-21)
(1.00009 0.00145429 6.42924e-21)
(1.05945 0.0141768 0)
(1.05097 0.0446898 -8.57049e-21)
(1.05749 -0.00620716 5.41224e-21)
(1.01639 0.0055298 -2.72333e-21)
(1.03454 0.0547552 1.76705e-20)
(1.18389 0.0145944 -1.37336e-19)
(1.00004 0.00017457 4.28977e-21)
(0.990234 0.00805345 -1.58382e-20)
(1.05842 0.0122974 5.64769e-22)
(0.308986 -0.0478153 0)
(0.97279 0.0599513 0)
(1.06091 0.0897336 1.13339e-20)
(1.04966 -0.0215794 2.21348e-20)
(0.999978 0.00104822 -1.06201e-20)
(0.647009 -0.141744 -3.65398e-22)
(1.01618 0.00648887 -4.30421e-23)
(1.00565 0.0142847 0)
(1.0045 0.0501118 -1.13568e-22)
(1.0312 0.0190232 -8.15968e-21)
(-0.267244 0.000370807 1.59127e-19)
(1.10111 -0.0301551 0)
(0.200451 -0.0323942 0)
(1.00172 0.000690319 -3.85782e-21)
(1.36695 0.338961 -7.6601e-20)
(0.0265262 0.0443697 0)
(1.2256 -0.0231815 0)
(1.05844 -0.00632482 0)
(1.11209 -0.0232734 -4.71839e-20)
(1.20207 0.0168673 0)
(1.01783 0.174696 -1.12135e-20)
(0.980038 0.0168759 -1.63265e-20)
(0.996834 0.0231263 6.85883e-21)
(0.901188 0.0907681 -4.12194e-21)
(-0.3005 -0.00606707 8.69595e-20)
(1.00848 0.0235728 -1.4014e-21)
(0.974827 0.11682 -5.10089e-22)
(0.543781 -0.0555679 0)
(0.992963 0.0122163 0)
(1.0025 0.0096307 -3.29143e-21)
(1.01352 0.0314033 -4.30709e-22)
(0.989437 0.0586168 0)
(1.00085 0.00790191 0)
(1.03992 0.0112191 -9.48786e-21)
(1.19243 0.183555 -1.11234e-19)
(1.36726 0.0534971 1.08751e-19)
(1.03906 0.011188 -2.56984e-21)
(1.00049 0.00647333 4.19481e-21)
(-0.210518 -0.0083339 0)
(0.174551 -0.0869079 -4.94854e-20)
(1.00642 0.0237421 1.87767e-21)
(0.989909 0.00113112 -1.10791e-21)
(1.00054 0.000677281 6.5111e-21)
(0.998373 0.0165372 4.80099e-21)
(1.30842 0.212675 -1.07459e-19)
(1.09748 -0.0323403 0)
(1.06158 0.439743 -3.5157e-20)
(0.987237 0.0520252 -6.65218e-21)
(1.00247 0.010057 4.53326e-21)
(1.03233 0.0146571 -5.7958e-21)
(0.947723 0.0125264 0)
(0.997827 0.00333122 1.65077e-20)
(1.08142 0.0119339 4.6696e-20)
(0.967482 0.0403218 0)
(0.612683 -0.0556503 0)
(0.999396 0.00624281 6.22794e-21)
(1.00123 0.00332677 0)
(1.05604 0.15655 -3.06608e-20)
(1.00832 0.0226522 0)
(1.06463 -0.00453979 2.51951e-20)
(0.898145 0.276792 0)
(1.05081 0.0149697 2.61803e-21)
(0.766203 0.61095 -1.28051e-19)
(0.133908 -0.0148084 0)
(0.996835 0.0412992 5.0782e-21)
(1.00083 0.0179538 -3.81949e-21)
(1.13896 -0.0405975 6.14841e-20)
(-0.282913 -0.00800076 -1.6735e-19)
(0.996897 0.155381 6.93903e-22)
(1.0371 0.0183351 0)
(1.23948 -0.0580457 4.33836e-20)
(0.776144 0.422194 -3.89863e-20)
(0.91594 0.038965 -2.142e-20)
(0.980903 0.0159158 -2.39475e-22)
(1.00257 0.00144949 0)
(1.0038 0.00514718 0)
(1.11975 0.423981 -1.07558e-19)
(1.05574 0.0243082 2.00674e-20)
(0.793646 0.311817 0)
(1.00002 0.000544271 -6.39923e-22)
(-0.142215 -0.0235965 -2.94123e-19)
(1.31306 0.141821 -8.53165e-20)
(0.992646 0.00272831 -7.52925e-21)
(0.997407 0.00615731 1.71669e-22)
(0.671232 0.25882 6.59198e-20)
(0.999346 0.00233728 -1.99999e-20)
(1.01026 0.00608389 2.14577e-22)
(1.00209 0.0848414 2.48694e-21)
(-0.0663188 -0.0231624 0)
(0.0724448 0.0113539 0)
(0.979143 -0.0435002 1.8049e-19)
(1.04564 0.00734367 -1.12709e-20)
(1.11764 -0.00464516 -2.57979e-20)
(1.01708 0.166635 -8.0929e-22)
(1.01428 0.00524135 0)
(1.00875 0.000416604 -9.3052e-22)
(0.999624 0.0016848 1.09679e-20)
(1.12978 0.406157 1.01851e-19)
(1.00022 0.00158263 0)
(0.99301 0.00400892 0)
(1.11509 -0.006149 2.29072e-20)
(0.974205 0.0115249 0)
(1.14719 0.102802 7.09156e-20)
(1.00097 0.000890699 4.78869e-21)
(0.998523 0.00213794 7.52082e-21)
(1.0115 0.00125936 5.05264e-22)
(0.999064 0.00136086 6.29758e-21)
(1.19241 -0.0206098 1.78143e-19)
(1.00023 0.00174738 0)
(1.00054 0.0265264 0)
(1.10473 0.0259227 -7.64829e-20)
(0.950564 0.24605 -4.15237e-21)
(0.848845 0.541635 -6.48477e-21)
(1.0001 0.0019971 -3.27806e-21)
(1.17727 0.0661909 0)
(0.0937586 -0.0839725 -1.45976e-19)
(0.636501 -0.0904893 -1.87023e-19)
(0.967618 0.0489068 -1.46634e-20)
(-0.252975 0.00230567 -1.53505e-19)
(-0.117648 -0.010366 0)
(0.993266 0.0118581 0)
(1.01715 0.00287634 -3.17952e-21)
(0.982955 0.0510802 -8.59045e-21)
(0.947603 0.0363542 -6.20093e-21)
(0.0526944 0.0095761 -1.62618e-19)
(1.02495 0.0619621 0)
(1.00079 0.00258061 7.03575e-21)
(1.0002 0.0016816 5.76022e-21)
(0.188758 -0.0779169 2.10757e-19)
(0.989077 0.165576 -2.23611e-21)
(1.04489 0.00681691 -1.47817e-21)
(1.00064 0.00224469 4.54411e-21)
(0.98953 0.00241251 1.00063e-20)
(1.08756 0.13034 0)
(1.00966 0.00637698 -2.7192e-22)
(1.00701 0.000601754 1.95436e-23)
(1.07546 0.00679035 -3.42665e-20)
(0.988557 0.0564513 6.66661e-21)
(0.999708 0.00154757 1.6506e-22)
(1.02694 0.0198498 -4.16946e-21)
(0.744709 0.673134 0)
(1.03164 0.020844 -8.90281e-22)
(0.993264 0.0564889 -5.88759e-21)
(0.995846 5.06962e-05 0)
(0.999682 0.0489458 0)
(1.21773 0.128869 4.57383e-20)
(1.00014 0.00212616 7.44037e-21)
(0.977228 0.056411 0)
(0.997513 0.00139068 0)
(1.06209 0.0294815 -2.10278e-20)
(0.662514 0.593326 -4.62518e-20)
(0.999999 0.000138683 -4.87258e-21)
(0.860971 0.518054 5.45635e-21)
(1.04235 0.074683 7.89354e-21)
(0.07033 0.0131135 0)
(1.01616 0.000628447 0)
(1.0307 0.0590408 -7.66365e-22)
(1.07347 0.00651992 4.05879e-21)
(1.17753 0.0700251 6.67204e-20)
(0.785842 0.150687 6.13606e-20)
(0.967108 0.0388704 0)
(1.39033 0.213334 -1.60826e-19)
(1.10059 -0.154506 -6.14064e-20)
(0.960965 0.026187 0)
(1.0114 0.000713303 5.53818e-22)
(1.22247 -0.0277869 -4.5228e-20)
(0.99753 0.000710974 -8.49047e-21)
(1.00005 0.00104021 6.38247e-21)
(1.01363 0.0150279 0)
(1.00007 0.001165 0)
(1.12689 0.0469707 0)
(1 2.01577e-05 0)
(0.999989 0.000187196 0)
(0.884843 0.272614 -1.64881e-20)
(1.02218 0.104904 1.16421e-22)
(1.01438 0.000107354 2.55754e-21)
(0.928451 0.121122 1.7976e-21)
(0.951663 0.019643 5.00716e-20)
(0.890865 -0.0401097 0)
(1.05152 0.0223426 0)
(0.839311 0.60697 0)
(0.999084 0.0175286 -1.31223e-21)
(1.09934 -0.0172068 -3.29148e-20)
(0.996188 0.163074 -2.22606e-22)
(0.391333 -0.0475116 0)
(1.05666 0.0328146 1.6475e-20)
(-0.074543 -0.0430893 -2.06309e-19)
(1.00002 0.000566153 5.07132e-21)
(1.05688 0.00381705 0)
(1.0018 0.00254163 3.19689e-21)
(0.999021 0.0398072 3.29181e-21)
(0.98846 0.0190703 0)
(1.14935 -0.0491688 0)
(0.866523 0.152143 -1.83682e-20)
(1.05666 -0.0160131 2.12046e-20)
(-0.268768 -0.0177298 -9.78e-20)
(1.00073 0.00289374 0)
(0.978432 0.973373 1.16119e-19)
(1.05606 0.00260939 1.24589e-20)
(1.02162 0.0225052 0)
(0.872079 0.0737983 -8.18029e-20)
(1.08092 0.0415737 -3.75152e-22)
(0.131008 -0.00982147 0)
(0.997105 0.00622466 -9.34229e-21)
(0.948859 0.0996048 -1.88081e-20)
(0.946052 0.233304 -8.35529e-21)
(1.02112 0.0631759 0)
(0.838973 0.146927 2.86422e-21)
(1.00001 0.000235743 1.49189e-22)
(1.01607 0.00321616 -3.03765e-21)
(1.00001 0.000214339 0)
(1.01013 0.481414 -3.46005e-20)
(0.999227 0.00277058 -1.68198e-21)
(1.00174 0.00492119 4.1293e-21)
(1.01267 0.0143542 -3.61389e-22)
(1.01051 0.00117352 5.56529e-23)
(1.00159 0.00869564 1.29176e-22)
(1.00019 0.0066902 -1.33919e-20)
(1.02526 0.0416205 0)
(1.00302 0.0151534 6.68297e-21)
(0.999277 0.00214913 6.44221e-21)
(0.956654 0.01209 1.27223e-22)
(1.00471 0.0870507 1.93317e-22)
(0.934273 0.118765 4.20583e-20)
(0.994074 0.000496653 0)
(0.102426 0.00276707 -7.9527e-20)
(1.00231 0.0358506 0)
(1.34749 0.331417 0)
(0.903154 0.154579 2.76042e-20)
(-0.0671218 0.023059 -4.24829e-20)
(1.09262 0.0748618 0)
(1.05612 0.00411449 -2.44876e-20)
(-0.190695 0.013735 -1.78419e-19)
(1.09078 0.030062 0)
(1.04694 0.464569 2.84929e-20)
(0.849148 -0.0801586 1.54561e-21)
(1.08778 0.124604 0)
(1.0002 0.00183338 -6.07687e-21)
(1.00472 0.0133962 7.19955e-22)
(1.00489 0.0596871 1.88988e-21)
(1.22273 0.123279 -2.04365e-19)
(1.01256 0.031428 0)
(-0.0347442 -0.000202047 -1.16964e-19)
(1.00411 0.0291946 0)
(1.00186 0.71864 9.61957e-20)
(0.79399 -0.174245 3.14061e-20)
(1.04957 -0.0184048 -1.87298e-20)
(1.04685 0.0271245 1.07438e-20)
(-0.0575689 0.0250308 0)
(-0.133718 0.00741282 1.0917e-19)
(0.941647 0.0171178 3.13792e-20)
(0.993685 0.00180342 0)
(0.999991 0.000766796 1.05093e-20)
(1.05734 0.0141401 0)
(1.0163 0.00308189 -6.59772e-23)
(1.01278 0.00115872 -5.41479e-22)
(1.10907 0.168503 -5.52344e-20)
(1.03974 -0.129761 -8.65569e-20)
(0.997608 0.00118865 -9.76936e-22)
(1.01166 0.030935 3.63699e-22)
(0.958788 0.0113539 1.309e-22)
(1.26992 0.320666 4.72474e-20)
(1.05318 -0.0267254 -2.7058e-20)
(0.999637 0.0027682 0)
(1.04063 0.0715208 -2.0032e-20)
(1.1684 0.0327868 0)
(0.996741 0.0508206 0)
(1.00026 0.00564389 -1.16969e-21)
(-0.0830513 -0.000726476 3.80135e-22)
(0.986366 0.0426787 0)
(0.994863 0.0191814 0)
(0.872929 1.011 -1.12422e-19)
(0.998065 0.0741527 8.5699e-21)
(0.97861 0.00675322 0)
(-0.160311 0.0136029 -3.57933e-19)
(0.324783 -0.223537 1.03501e-19)
(0.0941634 0.0505535 0)
(0.990675 0.010057 9.44319e-21)
(0.977726 0.0591173 -1.16213e-20)
(1.2375 -0.00687122 0)
(1.01301 0.0149455 3.77822e-22)
(1.02046 0.0291051 3.6513e-21)
(0.999993 0.000381405 0)
(1.05974 -0.000251092 -4.49901e-21)
(0.997852 0.00389526 1.71916e-20)
(1.00103 0.000838833 -5.76239e-21)
(1.05057 0.00319 2.26233e-20)
(0.794614 0.12791 -8.25701e-20)
(0.925983 0.440291 -1.16213e-21)
(1.00897 0.0156909 1.54977e-21)
(0.981964 0.0118658 1.66797e-20)
(0.997463 0.000229009 0)
(1.02003 0.0272462 3.6274e-21)
(0.984557 0.0494527 5.45943e-22)
(1.01517 0.00354658 0)
(1.19624 0.0195857 3.52525e-20)
(1.00544 0.110982 1.68286e-22)
(0.992643 0.0307814 -8.69772e-21)
(0.99564 0.0050169 0)
(1.01024 0.0147524 -7.72957e-22)
(1.00258 0.004776 -2.75837e-21)