/*--------------------------------*- C++ -*----------------------------------*\
| =========                 |                                                 |
| \\      /  F ield         | OpenFOAM: The Open Source CFD Toolbox           |
|  \\    /   O peration     | Version:  v2012                                 |
|   \\  /    A nd           | Website:  www.openfoam.com                      |
|    \\/     M anipulation  |                                                 |
\*---------------------------------------------------------------------------*/
FoamFile
{
    version     2.0;
    format      ascii;
    class       volScalarField;
    location    "400";
    object      nut;
}
// * * * * * * * * * * * * * * * * * * * * * * * * * * * * * * * * * * * * * //

dimensions      [0 2 -1 0 0 0 0];


internalField   nonuniform List<scalar> 
18355
(
0.000543027
0.00687479
0.00601043
0.00672095
0.00311977
0.000817652
0.00671963
0.000571395
0.000972158
0.00675926
0.00673821
0.00554999
0.000489745
0.00549887
0.00288804
0.000940569
0.00193695
0.0067278
0.00290234
0.0139265
0.000635323
0.00167755
0.0139381
0.00352881
0.00177787
0.0067233
0.00672248
0.00105198
0.00884511
0.00395221
0.00454632
0.00244526
0.00672634
0.00673508
0.00027307
0.000557383
0.00140533
0.000122105
0.00103598
0.0067401
0.00532274
9.15366e-05
0.00560188
0.0035499
0.00679329
0.000120516
0.000467492
0.000827243
0.000450461
0.00672743
0.00672737
0.00591569
0.00672589
0.0148546
0.0067218
0.00672179
0.000476
0.00293889
3.57249e-05
0.000219309
0.0067272
0.000804656
0.00672776
0.00024003
0.00679206
0.000603622
0.000845083
0.0002632
0.00672241
0.00179243
0.000326751
0.0067253
0.000181756
0.00672468
0.000571802
0.00671961
0.0109291
0.00222847
0.0013951
0.00619696
0.00671961
0.000264705
0.000626984
0.000255182
0.00672318
0.000424366
0.00460646
0.0131987
0.00851668
0.0148248
0.000761361
0.0067927
0.00672242
0.00672423
0.000269453
0.0136628
0.00556431
0.00132118
0.0144417
0.00136947
0.00153
0.00154225
0.00033347
0.0017093
0.00313052
0.000865187
0.00231495
0.000110667
0.000799432
3.03514e-05
0.00454912
0.00115031
0.00672326
0.001193
0.0139437
0.00671947
5.46348e-05
0.0121404
4.8299e-05
0.000307457
0.00775667
0.000245611
0.00265771
0.000353712
0.00509661
0.000105906
0.00515802
0.00672559
0.000375973
0.00672308
0.00672713
0.000974874
0.000781777
0.00153946
0.000169832
0.00672546
0.00364544
0.00673815
0.00564928
0.000199211
0.00289323
0.008172
0.00178424
0.00452874
3.47884e-05
0.00191839
0.000590401
0.00216282
0.00191125
0.00137743
0.00355761
0.00172993
0.000318482
3.67808e-05
0.000658267
0.00672571
0.0010147
5.26119e-05
0.00672563
0.000806426
0.000582167
0.00103012
0.000336052
0.00143461
0.000646717
2.27588e-05
0.00551819
0.000432635
0.00037772
0.00672597
0.0101176
0.013095
0.00673237
0.00673557
0.000997047
0.00364714
0.00068267
0.00672221
0.00034448
0.00210458
6.87076e-05
0.000377511
0.00109868
0.00671932
0.000946226
0.00413978
0.0144793
0.00106902
0.000830012
0.00132196
0.000474183
0.00552904
0.0015452
0.00370499
0.000143964
0.00162677
0.000583521
0.00125483
0.000841149
0.00673443
0.00214853
0.0007638
0.00319735
0.0133788
0.000477607
0.000522043
5.11771e-05
0.011223
0.0115735
0.000896172
0.0035616
0.00318496
0.0131066
0.00190513
0.00672552
0.000331359
0.00870579
0.0131921
0.00672339
0.00178901
0.000345843
0.00612976
0.000239274
0.00396714
0.00554959
0.00203616
0.0100169
0.00387116
5.03794e-05
0.00348284
0.00672577
0.00148589
0.000698709
0.0102889
0.00137467
0.00672322
0.00672245
0.000100375
0.000321508
0.000248204
0.000847479
0.000339111
0.00420129
0.00672582
0.00186233
0.00236702
0.00116623
7.04941e-05
0.000691604
0.000574714
0.00220462
1.56935e-05
0.00116352
0.0121524
0.00240658
0.00664995
0.0113489
0.000726718
0.00370269
0.00673169
0.000604477
0.000296224
0.00312601
0.000768839
0.0067196
0.0067242
0.00672571
0.000364578
0.00015405
5.58367e-05
0.00131422
0.00212656
0.000999437
0.000782323
0.00255494
0.000597516
0.00603558
0.0067234
7.97497e-05
0.00672567
0.00671975
0.000692966
0.00672782
0.00365506
0.00125222
0.000756108
0.00672882
0.000465151
0.00672872
0.00237259
0.00672027
0.00654258
0.00110052
0.0116189
0.00672565
0.00672586
0.00879903
0.000322729
0.000704363
3.55841e-05
0.00672291
0.000307508
0.00140765
0.00672564
3.63431e-05
0.000627798
0.000565843
0.00132386
0.00672338
6.90931e-05
0.00353455
0.00282631
0.000502419
0.00573783
0.000346093
8.77044e-05
0.00672226
0.0067209
0.000321832
0.000335117
0.0113246
0.00234033
0.000353776
0.0028
0.00677997
0.000469911
0.00151181
0.000300713
0.000524209
0.00672233
2.03371e-05
0.00310476
0.000157206
0.00672208
0.000704917
0.00696709
0.00672568
0.00167926
0.00082085
0.00672259
0.000433516
0.000785676
0.00304898
0.0148925
0.00204017
0.0027054
0.00672757
0.0135233
8.94702e-05
0.00672269
0.00176719
0.0010762
0.000809458
1.73215e-05
0.0136149
0.00672208
0.00185025
6.36135e-05
0.00489103
0.00160236
0.000885089
0.000909401
0.0017881
0.000427453
0.00672585
0.00013466
0.000296636
0.000155966
0.00671988
0.00317757
0.00672921
0.00549629
8.60158e-05
0.00573481
0.000405582
0.00672841
0.000954413
0.0067222
0.000922536
0.00480922
0.0028863
0.00617588
0.00560701
0.00112093
4.81146e-05
0.00415881
0.00363794
0.00581825
0.000254585
0.00482975
0.00107726
0.000414713
0.00193429
0.00364526
0.00150072
0.00671959
0.00672302
0.00672299
0.0141459
0.00130788
0.00677256
0.000672658
0.000463003
0.00463342
0.00678135
0.0101612
0.00194149
0.00565626
2.37837e-05
0.00672588
6.57602e-05
0.00106231
0.000887681
0.000564081
0.00317711
0.00849241
0.00672502
0.00672919
2.49301e-05
0.0067257
0.00673157
0.00140338
0.00672487
0.00775852
0.000886616
0.000656667
0.00162967
0.00158478
0.00672811
0.00922524
0.000830734
0.0100887
0.00221699
0.00672671
0.00671932
0.00176924
0.00853989
0.000180115
0.00278871
0.00672582
0.00209376
0.000110377
5.54123e-05
0.000523822
0.00206462
0.00672585
0.000961174
0.000696439
0.0122168
0.00686376
0.00411623
0.000110402
0.000131507
0.00540333
0.00403669
0.00672124
0.00672971
0.00353195
8.72383e-05
0.00672203
0.00677
0.00100315
0.000101339
0.000447322
0.0148542
0.000100155
0.00258834
0.00447956
0.00506181
0.0044488
0.00671965
0.006726
0.00672595
0.00672271
0.00922062
0.00242682
0.00672287
0.000297802
0.000240386
0.0067213
0.00250352
0.000118381
7.12719e-05
0.0010626
0.00552006
0.00288602
0.000797375
0.00494764
0.00148404
0.00547687
0.00108428
0.000220774
0.00672391
0.0120076
0.00529009
0.00821889
0.00526643
0.00601935
0.000730028
0.00108321
0.0018029
0.00277068
0.00806741
0.00467104
0.000179011
0.00672296
0.000885555
0.00831054
0.0135985
0.014812
0.00226646
0.000554595
0.000610917
0.00971981
0.001591
0.000715112
0.00215784
0.00491129
0.00672262
0.00018282
0.0067224
0.00882742
0.000578187
0.0143947
0.00399873
0.00215517
0.00672806
0.000269336
0.000405929
0.000743831
0.00672457
0.00101156
6.82175e-05
0.00121284
0.00368369
0.000820376
0.00119342
0.00672581
0.000700908
0.000866276
0.00122884
0.00018354
0.0016134
0.00672333
0.00672822
0.00672586
0.000466229
0.00185305
0.000749119
0.00464767
0.00315347
0.00874473
0.0067217
0.00023928
0.00133148
0.000139116
0.000724202
0.0144581
0.00221718
0.000269891
0.000525327
0.000767455
0.0125151
0.0086867
0.0045559
0.001221
0.00138266
0.00534164
0.00643965
0.000642291
0.000422357
0.000312979
0.00013264
0.00856409
0.00055674
0.00672074
0.0112812
0.00132124
0.00257415
0.00673286
0.000233926
0.0142329
0.000596541
0.00672471
9.65845e-05
0.000179655
0.000274279
0.000301295
3.05124e-05
0.00146827
0.000678768
0.00302446
0.000461634
0.000782619
0.000125208
0.000104269
0.00117736
0.00672095
0.00246549
0.00414024
3.75111e-05
3.40907e-05
0.00544793
4.50005e-05
0.00926123
0.00228599
9.25931e-05
0.000886659
0.00407191
0.00687355
0.0067399
5.28276e-05
0.00136081
0.00198552
0.000492119
0.00672047
0.00148035
0.0014897
0.00119767
0.000579409
0.00586354
0.000259918
0.00101443
0.000714663
0.0104486
0.00516771
0.000389997
0.0147191
0.00672674
0.00174837
0.0130911
0.00671801
0.000897124
0.00672265
0.00338348
0.00117094
0.000934503
0.00029467
0.00090907
0.00108477
0.000657419
0.00142525
0.000748839
0.00450088
0.00277044
0.000913437
2.13572e-05
0.002362
0.000282664
0.000768228
0.00514744
0.00672529
0.00449686
0.000730898
0.000833629
0.00672514
0.00116674
0.00355547
0.00973969
0.000453593
0.000903627
8.7319e-05
0.00113668
0.00672113
0.00672488
0.000677448
0.000135517
0.0067611
0.00296167
0.000459155
0.000321212
0.00681297
0.012118
0.0101442
0.00367717
0.00673835
0.00081735
0.00672523
0.00672453
0.00256491
5.08505e-05
0.00159273
0.00657597
0.000525063
0.00045891
0.00135276
8.92645e-05
0.00308766
0.00966546
0.000813883
0.00214323
3.58287e-05
0.0129152
0.00671987
0.00919641
0.00672103
0.00672625
0.00174148
0.000208962
0.00969422
0.00071512
0.00380108
0.000377687
0.0120781
0.000123493
0.00117571
0.00844718
0.00303435
0.00700918
0.00251317
0.00282672
0.00680617
0.0022673
2.79332e-05
0.000808642
0.000527944
0.00582733
6.38913e-05
0.00950798
0.0067224
0.0146601
0.00501277
0.00220163
0.0034345
0.00053026
0.00118038
0.00672719
0.00672413
0.000800983
0.00316128
0.0016672
0.0067192
4.49967e-05
0.00114536
0.006727
0.00672246
0.000407465
0.00101823
0.00702273
0.000705673
0.00679183
0.000687164
0.0132061
0.000579978
0.00561507
0.00672824
0.000584529
0.000930753
0.00103191
0.00537384
0.000103666
0.000135823
0.000972954
0.00809554
0.000906459
0.00671915
0.00067291
0.00536334
0.00208484
0.00119959
0.0028657
0.00671912
0.00521596
0.00676276
0.0070167
0.000988408
0.005127
0.000455633
0.000610753
0.014519
0.00338219
0.00672157
0.00580565
0.0145833
0.00219409
0.0123612
0.00852776
0.0105914
4.05296e-05
4.07516e-05
0.007987
0.00104612
0.00672362
0.00672544
0.00294148
0.00188721
0.00672248
0.00179409
0.00593189
0.000841383
0.00261633
5.94764e-05
0.00671828
0.00109668
0.000412534
0.00672182
0.000681867
0.00158097
3.41628e-05
4.67277e-05
0.000358711
0.0104987
0.000119186
0.00130858
0.00011734
0.0119705
0.0127391
0.000815456
7.92058e-05
0.000497544
0.00258275
0.00531017
0.00672763
0.00671956
0.00141955
0.0128136
0.00672513
0.00672582
0.000415623
0.0067181
0.000213025
0.000222063
0.00672435
0.00760253
0.00473252
0.00535115
0.000481556
0.00672437
0.00024441
3.17028e-05
0.00245101
0.0028315
0.00672625
0.000112343
0.0067195
0.00130575
0.000142891
0.0062198
0.0126296
0.00277569
0.013726
0.00173519
0.000551095
0.00672349
0.000606
0.00043684
0.00672374
0.00242483
0.0135612
0.0056397
0.00208551
0.00270938
0.00133626
0.00672194
0.00672159
0.00672633
0.00226563
0.00673074
0.0136552
0.000510201
0.000315459
0.00504349
0.00673906
0.00645336
0.0113798
0.0127073
0.000624951
0.00672066
0.00469423
0.00672526
0.00258435
0.000144201
2.73266e-05
0.00093719
0.00397312
4.82043e-05
0.00824058
0.000239324
0.0039829
0.00266506
0.0105086
0.000453465
0.00672324
0.00227595
0.0126429
0.00672226
0.00337917
0.000101918
0.00672529
0.000449375
0.00675224
0.000909475
0.000822272
0.00671789
0.00672031
0.00271999
0.0041295
0.00672454
0.000648094
0.00502813
0.00242328
0.00672687
0.000135741
0.00687448
0.000964934
0.012742
0.00151384
0.00672622
0.000846318
0.00259965
3.70274e-05
4.29827e-05
0.00675205
0.000278717
0.00328732
0.0121227
0.00674293
0.00733792
0.000133739
0.00218356
0.0067238
0.00671818
4.12143e-05
0.00558695
0.00292239
0.00423118
2.78158e-05
0.00672538
0.00672427
0.000741226
8.32698e-05
0.00465928
0.00067257
0.00243531
0.0015577
0.00457031
0.00676184
0.00672597
0.000460862
0.00186166
0.0133747
0.00107397
0.0122084
0.00491188
0.00672642
0.000234313
0.0126609
0.00814175
0.00176885
0.00534277
0.00469037
0.000369967
0.00138293
0.000311528
0.00638932
0.00652319
0.00673528
0.000761917
0.0067224
0.00518619
0.00672556
0.0148525
0.00113032
0.00830053
0.00022876
0.00146034
0.000992738
0.00671974
0.00671945
0.0067181
0.00105767
0.000242965
0.00378955
0.000563791
0.000308075
0.00672062
0.00130105
0.000400849
0.00073002
0.00105965
0.0010473
0.000277054
0.00454055
0.000862783
0.00624633
0.000690461
0.000756943
4.38052e-05
0.00648189
0.00583035
0.000507486
0.000175271
0.00514313
0.00212379
0.000391882
0.00353651
0.00180049
3.29298e-05
0.000224219
0.000382222
0.000505361
0.00672217
0.000153797
0.00397052
0.00080497
0.00337201
0.00672229
0.0121407
0.000985026
0.00147694
0.0060625
0.00510933
5.92606e-05
0.00269665
0.0064615
0.000137831
0.00379729
0.0012684
0.00554308
0.00415311
0.00176181
0.00149082
0.000707318
0.0120049
0.00249194
0.000587162
0.0039437
0.00673353
0.00106167
0.00191152
0.00133909
0.000597378
0.00157616
0.00671781
0.00672669
0.00144161
0.00673467
0.00672153
0.00709246
0.00672575
0.00148263
0.00672103
9.79615e-05
0.00672286
4.97669e-05
2.81796e-05
0.00272414
0.0102942
0.00671923
0.00140713
0.0044722
0.00852029
0.000484549
0.00671795
0.00672104
0.00251437
0.00599106
0.000686821
0.00968921
0.00298515
0.00501856
0.00672411
0.00154664
0.000618333
0.00206992
0.00674313
2.34645e-05
0.00841314
0.000951647
0.00367096
0.00381227
0.00672457
0.00672405
0.00983414
0.000803423
0.00861938
0.000993529
0.00399997
0.00912936
0.00203951
0.000222667
0.00672459
0.00120005
0.00555717
0.000408427
0.00034313
0.000903372
0.00672215
0.0044972
0.00123315
0.00671791
0.0067456
0.00325024
0.00562085
0.00296025
0.012257
0.00184816
0.00381346
0.00239437
0.00114515
0.0126556
0.00671802
6.70215e-05
0.00112605
0.00671812
0.000916813
0.000795131
0.00672128
0.00499192
0.00672275
0.00429098
0.000797284
0.00672199
0.00155942
0.000358263
0.00672195
0.00037989
0.00116925
0.010965
0.00827032
0.0059463
0.000825782
0.000362275
0.00750717
0.012655
0.00679538
0.00186045
0.00672116
5.05368e-05
0.0121593
0.000266158
0.000780934
0.00672573
0.00424948
0.00672305
0.00176756
0.00159897
0.00294142
0.000967572
0.000691915
0.00672226
0.00672482
0.00672344
0.00539388
0.00035929
0.00495477
4.74446e-05
0.00672142
0.000709378
0.00250928
0.000277087
0.000699911
0.000664892
0.00100309
5.30512e-05
0.00674331
0.00671801
0.00019487
0.00672401
0.00672108
0.000751718
0.0010781
0.00672283
8.47694e-05
0.00672321
0.00528461
0.00672306
0.00600013
0.00760449
0.000456964
0.00118304
0.00243902
0.00937534
4.494e-05
0.00672203
0.000250912
0.000924743
0.00393788
7.78086e-05
0.0105884
0.000337673
0.000650232
0.000959518
0.00109496
0.000134338
0.00727014
0.00672033
0.0067252
0.00556158
4.70935e-05
0.00200019
0.00270489
0.00509148
0.00234694
0.0122317
0.00049856
0.00151953
7.21526e-05
0.00671999
0.00110833
0.00025274
4.99955e-05
0.00672502
0.000301123
0.000245029
0.000600653
0.0150307
0.00672576
0.00612622
0.00672184
0.000143147
0.00671928
0.00671936
0.00701081
0.000147788
0.0011515
0.00409066
0.00970444
0.000808315
0.00338998
0.005524
0.00672571
0.00673803
0.000641775
0.0101414
7.27828e-05
0.000910587
0.000290235
0.00103093
0.00596554
0.00231581
0.00522408
0.00392408
0.000968729
0.000108408
0.00706761
0.000644232
0.000949802
0.00603232
0.00672075
0.00262769
0.000230732
0.000109592
0.00672387
0.00672613
0.00672535
0.0067181
0.00671859
0.000426011
0.00013949
0.0146577
0.000739539
0.000635997
0.00206299
0.00085059
0.0086267
0.00287943
0.0014695
0.00671881
0.00485969
0.00886561
0.000202746
0.000901017
0.00474311
0.00204217
0.00173251
0.000670591
0.000913409
0.000116667
0.00674438
0.000789857
0.0103128
0.00672591
0.000517301
0.00292918
0.0121373
0.000419203
0.0004799
0.000367845
9.84615e-05
0.000104508
0.00685715
0.00509498
0.000305721
0.00678234
0.00672519
0.00744054
0.00276451
0.013535
0.00672246
0.00679693
0.0126863
0.00422247
0.00469988
0.00163481
3.12116e-05
0.00185217
0.00672366
0.0140315
0.00182409
0.000795337
0.00671917
0.00563002
0.000915375
4.01845e-05
0.0067216
0.000391969
0.000195497
0.000671776
4.62303e-05
0.00672556
0.0067245
0.00672277
0.00621224
0.00146472
0.000107165
0.0067206
0.00969727
0.00673467
0.00672116
0.000313731
0.00495209
7.95915e-05
0.00119613
0.0067182
0.00343651
0.000497569
4.1524e-05
0.000130338
0.00300048
0.00147302
0.000447533
0.000395273
0.00469673
0.000284896
0.00954505
0.00671851
0.000519505
0.00347833
0.000519473
0.000647071
0.0122995
0.000806358
0.00244034
0.00231399
0.000592152
0.000892709
0.000119885
0.00468278
0.000444411
0.0067449
0.00366583
0.000832974
0.00151082
0.000262787
0.00671917
0.000352484
0.00382463
7.6412e-05
0.0044054
0.00577182
0.00491503
0.00674614
0.000147041
0.000283229
0.00499699
0.00522161
0.00494372
0.00671887
0.00258033
0.00346893
0.0132552
0.000797098
0.00672538
0.0127544
0.00672204
0.00275063
0.00674029
0.00660219
0.000121389
8.36723e-05
0.000677553
0.00437901
0.00672201
0.00672885
0.00065271
0.00010641
0.00672239
0.000881639
0.00451151
0.012602
0.000890781
0.0117867
0.00631932
0.00439791
0.00377691
0.00671988
0.000487818
0.00672176
0.00249657
0.00394126
0.000380597
0.000819135
0.000907878
0.000274798
0.00966298
3.27944e-05
6.90708e-05
0.00822664
0.00672201
0.000200101
0.00192102
0.00672208
0.000778973
0.00443645
0.000642552
0.00602339
0.0125539
8.64619e-05
0.00775278
0.000594953
0.000946355
7.31138e-05
0.00148102
0.00448152
0.00671957
0.00565217
0.000371162
3.42136e-05
0.00036356
0.00671943
0.000636185
0.000261101
0.00671566
0.001554
0.000717863
0.00155687
0.00672447
0.00672583
0.000200167
0.00672084
0.000260619
0.00235299
0.00671926
0.00672092
0.000415752
0.00671809
0.000152721
0.00144601
0.000127877
3.91202e-05
0.00433631
0.000652206
0.00118748
0.000114623
0.000906443
0.00102295
6.01555e-05
3.07466e-05
0.000436096
0.0070557
6.43254e-05
0.00268799
0.00101318
0.0124825
0.000816624
0.00671823
0.00672136
4.68941e-05
0.00283305
0.00885985
3.087e-05
0.000984094
0.0111756
0.00149089
0.000393144
0.0120956
0.0033733
0.00672231
0.00672144
0.00671926
0.000712691
0.000683384
0.00146816
0.000445267
0.000347667
0.000424378
0.00292917
0.00181322
0.000309475
0.00672125
0.00672196
0.00339646
0.00253647
2.50719e-05
0.00672244
0.00671981
0.00672574
0.000122105
0.000264704
0.000561284
0.00255959
0.00198517
0.0132871
0.00671355
3.9919e-05
0.000102613
0.000528722
0.00241124
0.0134078
0.000404308
0.00237039
0.000101198
0.00646767
0.000474758
0.000574436
0.0024956
0.00671833
5.62591e-05
0.000754536
0.00866106
0.000436121
0.000663893
0.00238555
0.00129912
0.00444991
0.000715562
0.0021504
0.000864107
5.62068e-05
0.0060105
0.01109
0.00254283
0.00671955
0.000970456
0.00212648
0.000261577
0.0052939
0.00076549
0.00671966
4.30322e-05
0.000245265
0.00163212
0.0025603
0.00360712
0.00186393
0.00672405
0.000774997
5.15541e-05
0.0137435
0.000541911
0.00672427
0.0135385
9.35769e-05
0.004838
0.000163134
0.00629788
0.00146684
0.00672108
0.000232112
0.00100841
0.000509747
0.000535456
0.00673807
0.00502738
0.00672366
0.00145345
0.00158124
0.0013342
0.00671789
0.00344999
0.000960959
0.006726
0.00093781
0.00672253
0.00118684
4.43421e-05
0.0104859
0.00145737
0.000802458
0.0111742
0.00671818
0.00672351
0.000433338
0.000714236
0.00333828
0.000608053
0.000497093
0.0011829
0.0150365
0.00464834
0.00473916
0.00187201
0.000166458
0.00672251
0.00488231
0.0126025
0.00730926
0.00199454
0.0011747
0.00673981
4.36445e-05
0.000403106
2.90504e-05
0.0067251
0.000118989
0.00159304
0.000585282
0.00180192
0.000429053
0.00207671
0.0098156
0.00157591
0.00673675
0.00743367
4.24841e-05
0.00672307
0.00672231
3.03766e-05
0.00173308
0.000892778
3.91265e-05
0.0067223
0.00172148
0.000665815
0.00081045
0.00257534
0.00671529
0.000353703
0.00172994
0.000519308
0.00673311
0.00289582
0.00342997
0.00270278
0.00672136
0.00028575
0.00579911
0.000637401
0.0137789
0.00677199
0.00319188
0.00636255
0.000117895
0.000631809
0.00254385
0.000702245
0.000915651
0.00671798
0.000932844
0.0045755
0.000133621
0.00413528
0.00315784
0.00542985
0.00269263
0.0149575
0.00672036
0.00277343
0.00671966
0.00076312
0.00610153
0.000754742
0.0002312
0.00672331
0.000114431
0.00137199
0.000748201
0.000760001
0.00203616
0.000291016
0.0133036
0.000312769
0.00676737
0.000282786
0.00095511
0.000183227
0.000644688
0.00499016
0.00058901
0.000437758
3.76161e-05
0.000180216
0.00211048
0.00263483
0.0124133
0.00224724
0.00685059
0.00108056
0.000147946
0.0119897
0.00705021
0.00517484
3.63295e-05
0.000322056
3.7248e-05
0.00015486
0.000930918
0.00672176
0.000912897
0.000131383
0.00476625
0.000117942
0.00078599
3.58573e-05
0.00885251
0.00672126
0.000410164
0.00170252
0.00102656
0.00020708
0.0067238
0.000346694
0.000560628
0.000913564
0.00672356
0.00181384
0.000470639
0.00452716
0.00143162
0.00573659
0.00672542
0.00672002
0.00117257
7.70096e-05
0.00321305
0.00672312
0.00147994
0.000861458
0.000769681
0.0044623
0.00672634
0.00467373
5.02023e-05
0.00672085
0.00672237
0.000424514
0.0129613
0.00484406
0.00672563
0.000793584
0.00119166
8.3164e-05
0.00259457
0.00723323
0.00671799
0.00132904
0.000948419
0.012531
0.00232911
3.92982e-05
0.000882884
0.0105443
0.00944949
0.00208726
0.0079743
0.00096121
0.00431976
0.0067335
0.000187036
0.00654681
0.00482774
0.00679796
4.96366e-05
0.0046992
0.00364317
0.000886393
0.0149202
0.00455938
0.0128964
0.0034098
0.00067828
0.00672378
0.00131084
0.000164041
0.000368785
0.00231382
0.00672342
0.000931999
0.0144594
0.00672073
0.000889924
0.00672385
0.000361456
0.00311183
3.50402e-05
5.91728e-05
0.000435159
0.000871018
0.00272335
0.00912397
0.00118301
0.006718
0.0139639
0.0108099
0.00490376
0.00673535
0.000434961
0.000731038
0.000437345
0.00671909
0.00570398
0.000232321
0.000394008
0.00674474
0.00671875
0.00147033
0.0032043
0.000460876
0.0021899
0.000608016
0.0038045
0.000186109
0.00221223
0.00366043
3.83698e-05
0.00671935
0.000644728
0.000319869
0.00104801
0.000320318
0.0049537
0.000849588
0.00867412
0.000700911
0.00671895
7.23935e-05
0.00671992
0.0140962
0.00672406
0.0146094
0.00487127
0.00489154
0.00556003
0.000744422
0.0068136
0.00575226
0.000669552
0.00115811
0.00016761
0.00672025
0.000257032
0.00671977
0.0103314
0.000745476
0.014833
0.00673618
0.00672482
0.00101683
0.00212285
0.000284547
0.00575983
6.40684e-05
0.000920001
0.0040745
0.00527792
0.00274356
0.00672282
0.00249633
0.00234928
0.0108833
0.000372672
0.00671874
0.00653064
0.000108059
2.99852e-05
0.00679454
0.000261613
4.42352e-05
0.00439455
0.00118095
0.00237627
0.00672121
0.00671923
0.00374295
0.000660528
0.00119908
0.0111376
4.1334e-05
5.20545e-05
0.00672587
0.00672199
0.012891
0.000979432
0.00672391
0.00249579
0.00332621
0.0130534
0.00339562
0.0149595
0.000227553
3.295e-05
0.00672586
0.0104242
0.00671837
0.00275963
0.00672198
0.00671792
0.000915251
0.00517571
0.00672277
0.0124325
0.000416383
4.36588e-05
0.00253504
0.00672207
0.00322847
0.0122049
0.000118105
6.06969e-05
0.00672705
0.000492616
0.00218836
0.0126346
0.00667845
0.00834824
0.00673133
0.0118721
0.00359798
0.0148757
3.45775e-05
0.000522135
0.000144937
0.00521312
0.000657436
0.0143579
0.00119572
0.0109753
0.00671815
0.00672273
0.000126053
0.000862244
0.000243274
0.000920756
0.00671944
0.00445854
0.000898604
0.000115144
0.00671952
0.000372684
3.83837e-05
0.00672291
0.000894665
0.000612271
0.0008446
0.00676571
0.00672086
0.0107619
0.00882655
0.000920489
0.0070951
0.000198136
0.00672079
0.00682923
0.00263316
0.0067222
0.000300487
0.00672409
0.00673612
0.000844948
0.00982026
0.0019471
0.0113248
0.00117204
0.00490558
0.00294964
0.00291529
0.000782774
0.00671865
4.26071e-05
0.00672189
0.00316253
0.00668444
0.0001008
0.00482158
0.000398945
3.83906e-05
0.0129749
0.000115015
0.00293181
0.00120012
0.0150689
0.00624636
0.00941712
0.00672272
0.00248864
0.00673275
0.00443326
0.000697006
0.00158731
0.00672362
0.0039436
1.41758e-05
0.00442254
0.00348866
0.000408337
0.00672492
0.00331786
0.00134043
0.00976939
0.00379789
0.00672474
0.00100296
0.00673916
0.000886747
0.00629829
0.00011156
0.000297832
0.0090603
0.00671977
0.00553513
0.0130291
0.00393336
0.00672525
0.000639738
0.000804669
0.00160682
0.00111122
0.00888897
0.0125247
0.000363335
0.00594782
0.00862932
0.000831635
0.00671809
0.0067201
0.00131829
0.00671974
0.000248119
0.00412278
0.00824862
0.00672173
0.00120395
0.00255787
0.000367369
0.00674054
4.27749e-05
0.00017184
0.00254505
0.000166231
0.0109438
0.000435062
0.00993332
0.00081687
0.00276671
0.0143578
0.005438
0.000957076
0.00672427
0.00138324
0.000442803
0.000697765
0.00670252
0.00280459
0.0067249
0.00671921
0.00672291
0.00954917
0.000989957
0.00671948
0.00270502
0.00672216
0.00723142
0.000596552
0.00771756
0.000423952
0.0067193
0.0123679
4.55274e-05
3.41082e-05
0.00130679
0.00118075
0.00672034
0.00103801
0.00269366
0.000877913
0.000220946
0.00239519
0.00671992
4.6312e-05
0.00154152
0.00672213
0.00041384
0.00672281
0.0109472
0.00671965
0.011893
0.00359663
0.000935719
0.00671947
0.00362766
0.0067226
0.00678409
2.18685e-05
0.000850937
0.00117524
0.000265456
3.55762e-05
0.0121445
0.000337681
0.000899279
0.00203642
0.0102292
0.0083268
0.00685597
0.000979157
0.0062987
0.00509329
0.001161
0.00675658
6.41963e-05
0.0011962
0.00289958
0.00254529
0.00672207
0.00474743
0.00475999
0.00672794
2.84194e-05
0.00413647
0.00485559
0.000170774
0.00714832
2.90523e-05
0.00093634
0.0049897
0.00375186
0.00808517
0.00672232
0.00679315
4.06285e-05
0.000685101
0.000110877
0.000206543
0.00650482
0.0067219
0.00611624
0.0129183
0.00671926
0.000643921
0.0003759
0.00263574
0.00136237
0.0126227
0.00672542
0.00122966
0.00370505
4.3228e-05
3.92721e-05
0.00204344
0.00894669
0.000321268
0.014438
0.00671862
8.17532e-05
0.00615792
0.00671898
0.000905416
0.00638529
0.00055568
0.00254582
0.00497403
0.000254404
0.00301781
0.0020335
0.00153679
0.00798404
0.000636598
0.00232366
0.00202758
0.0112803
0.0056496
0.00204137
0.000131123
3.61231e-05
0.00162762
6.84012e-05
0.000108315
0.0067224
0.000453313
0.00336783
0.00672975
0.00142362
0.0067224
0.00115889
0.0131473
0.000970917
0.00672519
0.00378655
0.00394929
5.28512e-05
0.00200009
0.000878158
0.00195425
0.00836232
0.00144175
0.000720766
0.000297018
0.000144319
0.00471655
0.00675319
0.0067222
0.000117342
0.00725636
0.0117476
0.0148889
0.00671805
0.0005259
0.000266932
7.11968e-05
0.00934835
0.0067224
0.0113567
0.00191439
0.00275987
0.00676227
0.00698067
0.00123742
0.00428367
0.00399594
0.000694612
0.0110492
0.00010283
0.00671958
6.5483e-05
0.00209647
0.00421465
0.00114876
0.00163322
0.0067189
0.00238722
0.000901713
0.00672617
0.000979462
0.00672534
0.000709929
0.00672414
0.0142408
0.00672441
0.00872601
0.00673297
0.000860798
0.00569636
0.00106309
0.00490321
0.00672042
0.000709852
0.00249666
0.00672398
0.00447888
3.41818e-05
9.38415e-05
0.00673839
0.000709258
0.00555517
0.0142565
0.000969056
0.000245396
0.00108297
0.00491009
0.000782706
0.00273668
0.00121864
0.000119469
0.00672227
0.000210276
0.00628443
0.00672063
0.0133429
0.000505462
0.00587931
0.00672737
0.00284427
0.00672638
0.0122741
5.35666e-05
0.00672563
0.00395483
0.000477533
0.00331337
0.00146664
0.00068021
0.00672228
0.00041266
0.0128329
0.00672311
0.000327996
0.00278533
0.000478547
3.87951e-05
0.00891623
0.00912962
0.00220875
0.000478759
0.00578377
0.00227724
0.00931301
0.000345442
0.00115081
0.000280248
0.000838742
0.00672872
0.000139735
0.00672456
0.0064993
0.000754009
0.00462439
0.000351871
2.344e-05
0.000443075
0.00050161
0.00672128
0.000369033
0.00672119
0.00672222
0.000635712
0.0118565
0.00624529
0.00742793
5.97819e-05
0.000597474
0.00334063
0.00281565
0.000475968
0.00393621
0.000168734
0.00338221
3.3589e-05
0.00500371
0.0067224
0.00672497
2.43724e-05
0.00474983
0.000914093
0.00672222
0.00731829
0.00531134
0.0017943
0.00672517
0.000473538
0.0129527
0.00206634
3.21397e-05
0.000214541
0.00673238
0.00116779
0.0067248
0.0119571
0.00671966
0.00734108
0.00938022
0.01147
0.000913974
0.000300966
0.00539445
0.00672206
0.00431917
0.00672612
0.00291195
0.0149822
0.000222579
0.00671891
0.00673781
3.26518e-05
5.2464e-05
0.000103269
0.00773453
0.000335378
0.00153037
0.00219863
0.0113684
2.39926e-05
0.00138592
3.14331e-05
0.0112609
0.0068897
0.00274663
0.000814703
0.00672521
0.00358579
0.000840718
2.37266e-05
0.00672626
0.0004684
0.00672239
0.000135292
0.0100151
0.00282247
0.00128747
0.00754231
0.00873283
0.00321865
0.0086948
0.00417597
0.000884107
0.00672466
0.0119642
0.00672348
0.00255211
0.00672257
0.0026224
0.00672413
0.00352531
0.00299921
0.000608809
0.00673541
0.0103125
0.00355309
0.00671574
0.00673628
0.000185058
9.36563e-05
0.0005214
0.000300718
0.00125492
0.0109376
0.0109719
0.0106977
0.000601678
0.00101647
0.000564914
0.000212063
0.0036902
0.00902153
0.00571489
0.000794311
0.000771609
0.00102957
0.00333831
8.95378e-05
0.000289724
0.00672364
0.000685203
0.00438811
0.00672202
0.000506873
2.91533e-05
0.00112485
0.000722609
0.00315597
0.00158401
0.0147027
3.23681e-05
0.00674695
0.000693094
0.00288939
0.000294933
0.00116142
4.14476e-05
0.00522005
0.000488014
0.00116751
0.0090697
0.00131815
0.00830263
0.000693132
0.00669048
0.0067229
0.00672128
0.00546713
0.00586928
0.00657479
0.00888754
0.00691109
0.000222967
0.000752436
0.000847158
0.00769976
0.00427754
0.00672035
0.000825464
0.000438611
0.00016677
0.00548102
0.00117246
3.8825e-05
0.00696629
0.00376263
0.000809381
0.00685228
3.87876e-05
0.000207856
0.000738648
0.00568955
0.00832503
0.00793067
4.20978e-05
0.000802619
0.0046197
0.00257666
0.0012223
0.000394754
0.00484801
0.00722395
0.00313461
0.000116333
0.00673034
0.000833586
0.000690531
0.0118418
0.00672207
0.00151649
0.000244884
0.00666342
0.0067218
0.00797166
0.000173829
0.000698194
0.000377233
0.00670309
0.00939154
0.00569539
0.00672595
0.000321474
0.00976323
0.00256499
0.000670623
0.00240067
0.00180724
0.0067255
0.0148153
0.000528017
2.45999e-05
0.00119692
0.0074051
0.00674109
0.00671622
0.00673097
0.00672082
0.00671923
0.00763048
3.09474e-05
0.00690251
0.00672422
0.00642326
0.00855782
0.00120391
0.0055966
0.000735422
0.00678204
3.60017e-05
0.000297687
0.000931852
0.00682402
0.00140925
0.000583877
3.36016e-05
0.000409996
0.00672117
3.43273e-05
0.0067191
2.83876e-05
0.00299738
0.00109464
0.00673214
0.00439567
3.73858e-05
0.00672326
0.0103768
0.00672263
0.00678147
0.0116184
0.000462956
0.000726581
8.56354e-05
0.000708683
0.00682515
0.00676893
0.00515247
0.00035866
0.000558297
4.16985e-05
3.31803e-05
0.00242789
0.000610176
0.000179934
0.00310765
0.000865912
0.00666616
0.000613829
0.00502781
0.00187127
0.00672482
0.00187996
0.000195943
0.00822758
0.00672013
0.00216926
4.62931e-05
0.00567177
0.00331103
0.00672305
2.75779e-05
0.00670031
0.00331068
0.00672612
3.80315e-05
0.0136275
0.000985468
0.000621091
4.23814e-05
0.00850103
0.000975819
0.00108168
3.3428e-05
0.000642978
0.00122875
0.00050991
0.00672242
9.54642e-05