/*--------------------------------*- C++ -*----------------------------------*\
| =========                 |                                                 |
| \\      /  F ield         | OpenFOAM: The Open Source CFD Toolbox           |
|  \\    /   O peration     | Version:  v2012                                 |
|   \\  /    A nd           | Website:  www.openfoam.com                      |
|    \\/     M anipulation  |                                                 |
\*---------------------------------------------------------------------------*/
FoamFile
{
    version     2.0;
    format      ascii;
    class       volScalarField;
    location    "400";
    object      omega_0;
}
// * * * * * * * * * * * * * * * * * * * * * * * * * * * * * * * * * * * * * //

dimensions      [0 0 -1 0 0 0 0];


internalField   nonuniform List<scalar> 
18355
(
0.0338969
5.49422
0.0218983
0.0216598
0.0223638
0.0722943
0.0219567
0.0546025
0.0233099
5.48298
0.0215284
6.13159
0.0879751
0.0219762
0.0220598
0.0235405
7.3459
0.0217322
0.0220114
4.74186
0.025459
0.022366
4.76965
0.0223699
0.0248091
0.0221474
0.0220715
0.0230936
1.9662
0.021965
0.0219813
0.0230801
0.0217339
0.0217961
0.0530538
0.0348793
0.0225387
0.169507
0.0229779
0.0215446
0.0219764
0.0847373
0.0218991
7.73243
0.0217804
0.178584
0.0497099
0.023782
0.0445162
0.0217536
0.0215575
0.0218233
0.022277
4.4693
0.0220849
0.0220742
0.109905
0.0220848
3.64916
0.134327
0.0217594
0.0586307
0.0217151
0.0430946
5.54563
0.0328704
6.78958
0.0321873
0.0220777
0.0223044
0.0603985
0.0222568
0.144
0.0217995
0.0547148
0.0219529
5.67136
0.0230429
0.0275913
0.0218054
0.0219684
0.843873
0.0252356
0.0457378
0.0221391
0.0864622
7.06636
4.75102
1.99519
4.64899
0.286777
0.0218418
0.0221093
0.0214856
21.3289
4.6421
0.0217692
0.0254947
4.3937
6.35004
6.27972
6.72821
0.0422389
4.46896
0.0225728
0.0921278
9.68022
0.138887
0.0311435
0.357732
0.0219363
0.0227798
0.022149
0.0229003
4.36225
0.0220034
4.7262
5.62034
4.48383
0.0423924
5.14578
1.80899
0.0229786
0.0599874
0.0217694
0.151317
0.0218195
0.0222618
6.81452
0.0214917
0.0215639
3.19756
0.0453768
0.0252723
0.0418852
0.0222578
0.0219062
0.0215262
0.0219609
0.078572
4.02793
2.24634
0.0223239
0.0219358
0.420258
0.0222641
0.0255873
7.91918
0.023447
7.54338
0.0222065
0.022287
0.0498278
3.69305
0.0736262
0.0222699
3.17872
3.64613
0.0222675
0.0622405
0.026837
0.0244316
0.0298852
0.0256426
0.195277
2.10286
10.1721
0.0420737
0.187682
0.0217683
2.84767
4.56035
0.0215308
0.0215357
0.0235283
7.76811
0.0598121
0.0221012
4.19181
23.8784
0.0750818
0.184713
0.027315
0.0219124
0.221937
7.25197
4.83466
0.1887
0.02337
8.49526
0.107604
0.0218994
0.0254622
5.17003
0.0482734
0.0223359
1.88969
0.0269943
0.0373868
0.0215384
0.0227635
0.0240419
12.8869
4.6799
23.39
0.0282964
3.46086
5.38715
5.45887
0.03694
0.021908
0.0221505
4.77157
0.0222619
0.0217706
0.771668
4.67272
4.75735
0.0221564
0.0233828
0.582767
0.0219539
0.0442397
0.0218882
8.79057
0.0221781
5.07194
7.51999
0.124821
0.0219075
0.0222739
0.0270725
0.0260952
5.31974
0.022693
0.0221402
0.0221103
0.201369
0.738122
31.2274
0.0304662
0.185025
0.0220335
0.0217816
0.022232
9.80749
6.00546
3.30409
0.0729146
0.0267093
0.0227713
6.93065
0.0275319
5.78725
0.022104
4.96985
4.82062
0.0623246
0.0219509
0.021912
0.0319107
0.0659963
15.8612
0.0468523
0.0218297
0.0217711
0.0222633
0.205271
0.0831295
0.104948
0.0227172
4.22546
0.203768
0.0886656
0.0221868
2.13335
0.0218087
0.0219866
10.1719
0.0218097
0.0219512
0.0903087
0.021912
4.16429
0.0272988
0.0242667
0.0218286
0.0420797
5.48577
0.0231194
0.021667
0.0219846
0.112156
4.44526
0.0222671
0.0222792
4.76106
0.04479
0.0749444
0.242718
0.0219911
0.0614924
0.0225186
0.0222689
0.219441
0.20517
0.878278
0.119371
0.021501
0.086247
0.0224606
0.0220102
3.59688
0.0219195
0.20884
0.0837577
0.0221015
0.0215871
0.194009
10.5151
5.77051
0.0221169
0.0290592
8.7416
0.0216701
0.834964
0.0270977
0.0331142
0.381754
0.0215034
3.16538
0.0219831
0.0446197
0.022123
0.0738692
5.26457
0.0222708
18.636
0.0345473
0.0220406
0.0482495
0.0596782
4.84537
4.48063
4.59453
0.0220901
0.0217091
4.89252
0.0626316
0.0221177
0.0224843
1.77223
0.220466
4.2156
5.10353
0.0220946
0.0232868
3.46656
0.0219315
0.0225976
0.239269
0.0374087
0.0239102
9.12272
0.0222756
0.0471425
0.696426
33.7501
0.021662
0.0220106
0.0219651
0.021777
0.0658857
0.0217763
0.0399326
0.0219679
0.024183
0.0220979
0.023181
0.021788
0.0219958
0.0217782
0.0217741
0.0232122
0.125756
4.53393
0.0218868
5.88271
0.0345593
4.18499
0.0316802
0.0703501
0.0222796
5.51494
0.0224593
0.0220083
0.0221334
0.0216317
4.40951
0.0239938
0.0216735
0.0417022
0.0393857
0.0219311
0.0216658
5.67271
0.0222965
0.0218135
4.94838
0.0219137
3.61458
8.74017
0.237906
0.0252418
0.0225561
4.99458
0.0222455
0.0219369
4.42137
0.0222693
0.0215326
8.92857
0.0217921
5.07117
0.0432367
0.0641825
7.40426
0.0224226
0.021938
5.60941
0.0712837
2.97616
4.19398
0.0219731
0.0219217
0.0222505
4.94749
0.0438993
0.0220346
0.0222748
0.0222485
0.0492276
3.78517
0.0272243
0.0222131
0.0222754
0.0311631
0.314174
4.39768
4.97166
6.18716
0.0526575
0.0471775
6.18817
0.0219908
0.0218383
0.0219844
0.0218832
0.0636536
0.0220115
0.0216224
6.98683
0.0502317
0.0457198
4.76552
0.0548531
9.41004
0.0218747
0.02178
0.021949
0.0219736
0.0222834
0.0222812
0.0219964
2.09597
0.0221147
0.0215371
1.37296
0.136112
0.0218471
0.0227718
0.0567637
11.7968
0.0232935
0.0217662
5.18897
0.0237465
2.66031
0.0273861
0.0217865
6.66462
0.135498
0.0217272
6.21051
2.90545
6.34529
0.021787
0.0217539
0.025611
0.108693
0.0223625
3.71246
4.87546
5.73397
1.27869
0.0216235
0.0426272
5.06021
4.66127
4.54734
0.0221359
0.0265854
0.0268129
4.72327
6.27836
0.309076
0.0221823
0.0219601
0.0221243
0.0447969
0.022001
5.61724
0.0271355
4.39043
0.0219827
0.0222031
0.0219116
0.0313751
0.0318734
0.297124
0.0219271
0.0875421
4.78029
0.0298849
0.0219497
0.0238751
0.0307656
0.022272
0.0319366
0.0378858
0.0295745
0.145586
0.0225699
0.0217234
0.0219897
0.0222786
0.0405591
0.0238787
0.0590447
0.0218692
0.02237
3.64151
0.0215138
0.0321206
0.0224734
0.154001
0.0240334
4.39365
0.0224309
28.499
0.0258152
0.0238602
4.83399
3.65055
10.9748
0.029938
0.0237984
0.0217966
0.021959
0.0976469
0.0468335
0.0329319
0.0800226
2.15967
0.19785
0.0219259
6.33799
5.01519
0.0228907
0.0219567
0.0320755
4.53228
0.0320307
0.0222167
0.0594728
0.135108
0.0546579
0.0301054
3.64501
0.0252501
0.0861883
8.56628
0.444463
4.09763
0.056154
0.170267
0.0268427
0.0220784
0.0229259
0.021959
0.315472
0.3259
6.23618
0.118481
4.92179
5.96746
0.0547701
0.0238084
7.31712
11.4845
0.0215404
0.137447
5.85402
6.4957
0.0274197
0.0216092
0.0251783
0.0256359
0.0303963
0.0780557
0.0219171
28.7927
0.0232842
0.0247166
4.61076
0.0218694
0.0324747
4.6378
0.0219425
0.0228059
4.97914
0.0217581
0.0875549
0.0215125
4.2159
0.0301603
0.0406178
0.0332134
0.0251316
0.106106
0.0248449
6.2603
0.0718094
0.0219251
9.02621
0.0413336
3.68095
7.92673
0.736515
0.283789
0.0219332
0.0216363
3.307
0.0239854
0.0324702
0.0222395
0.0269486
6.05039
6.36203
0.041157
16.2167
0.0618288
0.0233719
0.0216108
0.0222296
0.042942
0.0808569
0.0216886
10.7244
0.0289073
0.0447273
0.0220011
5.81646
5.33426
0.0219667
0.0215455
0.0721594
0.0222466
0.0217238
5.59276
0.146905
0.0223511
0.0219566
0.135098
0.0444903
0.0280364
0.0594657
0.0219883
4.7253
0.0489541
0.0221586
0.339878
4.54574
0.0219563
6.49281
0.0216568
0.0219446
0.0223379
0.0347498
5.51255
0.0340308
7.53893
0.0324431
4.62721
1.78428
0.0267625
5.06367
0.0220209
10.637
0.0228666
8.68802
5.50588
0.0221349
4.48112
0.0249672
0.0261366
11.4506
0.0767492
4.87077
0.0218152
4.42339
0.0219687
6.35512
0.0220798
0.0273263
0.0300952
0.0218053
0.021612
0.0506186
4.99843
5.25525
0.0219279
2.42226
0.0265008
0.0218126
0.0221171
0.0278283
0.113306
11.4131
0.0329385
0.0220439
0.0269673
4.35969
0.0271613
0.0219232
0.0218021
0.0275294
0.029556
14.9689
0.0218654
0.830375
0.0488506
3.56863
6.27128
6.84397
0.0215854
0.0592803
0.0218979
0.0222604
0.0275711
3.64158
0.0218346
0.021797
0.0217805
10.9865
0.0232434
0.0219496
0.0328685
0.0311408
4.95466
7.82478
0.0219326
0.0219758
4.78749
0.0221564
5.58639
4.9593
5.44846
0.1833
0.225803
5.15195
0.0305764
0.0221657
0.0217896
0.0220041
0.0222715
0.0221095
0.0222979
9.43073
11.5648
0.0221992
0.0900296
0.0217692
0.0234412
0.0387718
0.0220852
0.0249103
0.0229023
0.473728
3.09489
0.0605853
4.84984
0.0501072
5.4711
0.0862982
4.86255
5.67753
0.0494295
4.36373
0.206865
7.28907
0.0217986
0.0219703
0.0219761
0.0258078
4.82318
0.0217664
0.0222764
0.0745617
0.0218355
0.0439358
0.0412069
0.0222174
5.00612
0.0219012
0.0219759
0.140156
0.0216891
0.164725
0.380902
0.0220809
0.0227346
0.0218144
0.0627014
0.0218292
0.0234752
1.10089
0.0219814
5.01817
0.0221117
5.0653
0.0244492
0.103013
0.021958
0.0733213
0.0377515
0.0221726
0.0220865
5.22109
0.0219552
9.0589
7.99421
0.0227022
0.0221127
0.0220777
0.0215743
6.16114
0.0219562
5.30777
14.2106
0.044462
7.61622
0.0218271
0.0219003
5.83444
5.34808
0.0244878
0.0219986
0.0219461
0.0217788
0.0230588
0.0440708
1.1038
0.0248275
2.96603
2.61228
4.53472
0.0330799
0.0218695
9.62501
2.66401
0.033049
0.0219606
0.0221203
6.00363
0.0220064
4.10749
0.063791
0.0222529
0.0280006
0.0216262
0.0325954
0.0265097
0.0218384
0.0215219
0.0229365
7.1668
0.0222226
0.0610935
6.38606
0.022091
0.0219139
0.0454059
2.17935
0.0306778
4.77824
0.0224461
0.021567
0.0234201
9.46561
0.39417
1.83363
0.0218765
0.0308336
0.0219812
4.69164
0.0216583
5.01493
0.0473669
6.4871
0.0221918
0.0219213
0.223047
0.0219342
8.71604
0.021957
3.29241
0.0222563
0.0217778
0.0240616
0.634441
5.11734
0.0263704
0.02241
0.0224456
0.0219245
0.0216827
0.0222809
0.100263
0.0223106
4.52876
0.0236675
5.26455
0.0218467
0.0215912
0.843862
5.39026
6.58737
0.0224367
6.58747
0.0218697
14.4208
0.022497
0.171045
0.0218005
7.25137
0.0218893
0.0264754
0.0220461
0.0219067
0.0222618
4.46248
3.25559
5.16945
0.0334424
0.0257905
0.0245495
0.0219886
0.0216677
0.0217584
0.0232641
0.156415
0.0220378
22.0671
0.101718
0.021996
0.0225284
12.1396
0.0979815
0.0233399
0.0244308
0.0330693
5.34651
0.0523398
11.1052
0.0600954
0.0704994
0.159892
0.0219821
0.0218667
0.0742267
0.0415149
0.0218201
5.02022
0.0285143
5.20561
0.0223241
0.304223
0.033799
0.0619752
0.0272714
0.0220565
0.985362
0.0219238
16.33
0.0220093
0.0220501
5.34174
0.0312432
0.026536
11.2908
0.0218573
0.101435
8.97655
0.0219547
0.0717321
7.44046
0.022836
0.0218691
0.0219372
0.023962
0.0239468
0.07292
4.82123
0.0230944
0.0264223
7.17699
0.0216088
7.69576
0.0243616
0.023365
0.387546
6.7821
0.0217471
0.0219113
0.023762
0.0216952
0.0216755
7.51459
0.0222708
0.026713
0.0215966
0.0551371
0.021727
0.110753
0.935152
0.0227578
4.60302
0.0219365
0.0236218
0.0218909
4.9574
0.0283012
0.0218674
0.0219927
0.0221019
0.0218862
0.0912053
6.03325
8.42376
9.1221
0.0221848
0.0224181
0.0764358
0.0221538
0.0216641
1.71439
4.99625
0.0236521
0.0219111
7.74831
0.0222262
0.022187
4.81773
0.0733829
4.6404
0.0232027
0.0218653
4.87007
0.0221738
0.0325145
0.0222226
0.0292919
0.0219765
0.0702574
0.161894
0.0415613
0.0221009
10.3548
0.022705
0.0218719
0.0221484
0.0220122
0.0219361
0.0220702
5.60707
0.0223482
5.73382
0.0222339
0.0277926
5.69238
0.0218071
0.306438
0.0231681
0.0217975
0.023584
0.0699224
0.0220326
0.0218075
0.0221282
0.0219788
0.0532611
0.0216879
0.022425
0.0290489
0.0220926
0.0319565
11.7238
4.75787
5.14186
7.31782
0.0887967
0.0617439
8.89476
4.82476
0.0218724
0.0222674
0.0216336
0.121455
4.97337
0.038407
0.0253699
0.0215936
0.0218973
0.0221597
0.0232822
26.4982
16.8226
10.1452
0.0620042
0.0221038
0.0222361
0.0221576
6.07387
2.41025
0.0218067
2.49646
0.0216687
0.0318712
0.0229743
0.0407593
0.0312672
0.34453
0.0231651
0.11479
0.0216473
0.0219032
0.0835834
0.0219302
0.0220647
0.0537119
0.186195
0.0221299
0.0763632
0.021931
0.0219774
0.0218035
0.021962
6.06419
0.0298946
0.0230255
0.0221402
4.76535
0.159766
0.022074
0.0321134
0.0301463
5.19909
0.858414
6.07198
0.178239
0.0645352
0.0983886
0.120305
0.0805909
5.01242
0.0215846
0.0219191
0.0219256
0.162674
0.022188
9.24171
0.0217723
0.022135
5.46169
0.0533138
0.0224026
0.0765366
0.0219518
0.0230154
0.792792
0.314664
0.0219499
0.6784
0.130698
20.9279
4.53485
0.0219973
5.88905
0.0219263
0.0655959
0.0218698
0.0218437
5.44064
0.0447076
0.0235398
0.0219145
4.8697
0.0249651
5.5521
6.46936
0.0222631
0.0216455
0.0246166
5.67132
0.232044
0.0400189
0.0331289
0.195825
0.0219774
0.0224325
0.0218068
0.0218974
0.0231821
0.0548497
9.43116
0.0622828
0.0955555
5.19306
0.022002
5.92719
0.130971
0.0498227
0.0221932
0.0219825
0.0219218
0.0219178
0.0219435
24.8914
0.162451
4.44318
0.0624048
0.0832106
0.0221921
0.0867435
6.67325
0.0236126
0.0249506
0.0218588
12.1938
5.10485
0.0947306
0.0969172
0.0219774
4.87516
0.0227198
0.0245562
0.0385972
0.0811096
0.0216483
0.0685411
5.14436
0.0222776
26.1567
20.2561
5.6369
25.1264
0.0356303
0.680383
0.0565834
0.0535749
5.48696
0.0218075
0.0331553
0.0216893
0.0222514
6.89889
0.0229031
5.26956
0.0216997
0.0218976
4.95333
0.0219366
15.5632
0.0227897
0.393557
0.0231936
0.0221856
4.9725
0.0245929
0.0639338
0.0218756
0.0217672
0.202119
0.208184
0.0220566
0.0281953
0.82219
0.0625213
2.47719
0.0222621
0.0219519
0.0215283
0.0219352
0.0259696
0.0568427
0.0216334
6.29161
0.0218857
0.0220384
0.0594161
6.50226
0.180221
0.0281637
0.0217699
0.022505
0.0743917
2.04786
1.29157
12.0763
0.0261578
0.0363779
0.208569
0.0218799
0.0543748
4.73121
0.0219403
0.178975
3.70341
0.403455
0.362746
5.94645
0.0704474
0.0221104
4.17558
0.0265239
0.041873
0.16338
0.0218572
0.101508
0.0218686
0.0219873
0.048403
7.91494
0.0344134
0.0219426
0.0411225
7.55216
0.0820716
3.17176
0.0219337
6.62701
0.0216551
0.0779537
0.107758
0.021912
5.46913
0.0218133
0.0218417
0.022078
0.0219241
5.20458
0.0731956
0.022253
4.80092
0.0220801
6.35639
0.0216632
2.20979
0.0474067
0.253635
0.0246489
0.0219056
0.0216798
0.0220771
0.255308
0.122371
0.0221297
0.0408842
3.00296
6.05929
0.041911
4.87187
6.70453
0.0219099
7.67071
0.0217904
0.20029
0.0220054
0.022085
0.0220275
0.0666589
3.50034
0.202261
0.0970606
5.19088
0.428039
0.269762
5.02481
0.0218762
0.0771408
8.51815
0.0215395
0.0478192
6.08271
0.179007
0.0219017
4.55702
0.0665632
2.07579
2.24646
0.0267978
0.228996
0.0247856
0.0218562
0.0215885
4.97833
0.159921
0.272424
0.148516
0.0219079
2.3885
0.0344524
0.0215088
0.0224606
0.0593557
0.023977
0.0222166
0.0222691
0.980432
0.0218986
0.0426113
10.0739
0.0216822
0.0218943
1.53016
0.0218509
0.0435123
0.0269098
0.13364
2.26013
0.021929
0.0634366
0.0278752
0.0784575
0.0271909
0.0247733
0.0958009
0.875464
0.049589
5.54548
0.0862353
0.0221048
0.199767
4.85368
0.0689553
0.0217835
0.0220482
0.135966
0.0229938
6.54388
0.66649
0.0280613
2.112
0.0234567
0.171853
4.83669
0.021961
0.0221283
0.0220689
0.0219918
2.47967
0.313406
0.0249785
0.172131
0.392464
0.0468262
0.0220762
0.023807
0.0589684
0.0219368
0.0218729
4.91548
0.022689
4.4417
0.021823
0.0219974
0.0222725
0.071684
0.0383539
0.0393573
0.0220634
0.0230249
5.4513
3.01839
2.80661
3.26061
0.0256794
0.022482
5.55595
0.0843955
5.09838
0.053561
0.0218892
0.0531014
0.0265844
0.0223498
0.0217948
0.093693
0.0717354
4.98014
0.0780143
0.335491
0.0221516
0.022905
0.0219247
0.101961
9.93685
0.18634
3.56424
0.0218624
4.93311
0.0227746
0.0219699
0.0240647
0.0221639
0.832949
0.0219668
0.0755903
0.0216766
2.92668
0.0327463
5.01288
0.0224312
0.022021
0.0245427
0.0217113
0.0832633
3.73973
5.25327
0.0531699
0.0216326
5.52037
0.0585822
0.0219403
0.0678502
0.0217411
0.0238894
0.0215259
0.905359
0.0247582
0.0677659
0.0513275
0.0217617
13.7615
0.0216346
0.025136
0.0223705
0.0237827
0.0217486
0.0219151
0.0301963
0.0222817
0.0251525
0.0216912
0.02382
2.10723
4.70666
0.0224959
0.0426631
6.68998
0.0219159
0.022158
0.0310065
0.10145
0.0219248
0.0557025
2.1292
0.0230071
4.70724
2.69955
0.0219568
0.0225415
0.060456
0.0214711
5.17973
4.80205
5.29922
0.0230225
0.0280505
0.0215012
2.11682
0.0284724
0.469754
0.0222428
0.144999
8.85456
0.076314
0.0234946
1.63631
7.8107
4.74532
0.022419
0.0217558
7.37288
2.68907
0.021811
0.0221017
0.384565
0.0225019
0.209294
1.96254
0.0217392
0.0225357
2.58249
0.0647595
0.0226068
0.0214997
0.0422566
0.0222951
0.241813
0.021886
0.0221217
0.0219533
0.0230366
0.0220643
0.102288
0.0217472
0.0257762
4.55647
4.90713
8.27881
0.0218182
0.0806517
0.0753012
0.0220976
0.0246744
0.0393048
0.0219071
0.0237835
6.17137
0.0558128
0.0219591
0.0220176
0.0217836
5.45926
4.54126
0.021728
0.0222967
0.0219849
0.0584403
5.63609
0.0236746
0.077784
0.0221439
0.062909
0.0273406
0.299264
11.4515
0.0222565
0.843969
5.17651
0.0407819
0.021826
0.0413323
0.0285353
0.0439147
0.0265208
0.0218177
0.102513
0.0271583
1.53785
0.0419781
0.0221958
0.0223037
4.82822
0.0221308
0.0234252
0.185634
0.0425536
6.31606
2.09082
0.0217923
0.283131
0.65952
0.319735
0.0450442
0.0237387
0.0220619
3.14036
0.0455487
0.0218416
0.0723216
0.0632318
2.19925
5.71404
0.0220622
0.0280354
0.0222433
0.19827
0.998453
0.0221876
0.0595824
0.0258161
0.0232895
0.022189
9.57987
0.0678183
0.0219581
0.0237473
6.48704
0.0222614
0.022009
0.0262251
0.0704295
0.0219791
0.0221615
0.0235879
6.5174
0.02994
0.0218281
0.0218352
0.0219053
0.122529
0.0219953
0.0219457
0.648513
5.95386
0.0218632
0.0222646
0.0553978
0.0296518
0.0913668
0.0221444
2.40666
0.0219046
0.0228
0.0289911
6.40114
10.6822
0.4553
0.0405682
5.80811
2.0455
8.64236
6.05254
0.0244376
0.021955
0.0216899
0.0416372
0.0218964
0.0219573
0.021923
0.187775
0.0218795
7.60599
0.0315024
4.71842
0.0218963
4.4179
0.0219927
0.0277047
0.0216925
0.0229463
0.0408074
0.679107
0.0221684
0.0218508
0.0249385
4.4693
0.0219095
0.0389571
0.0221939
0.0383567
4.59553
0.240796
3.77424
0.030706
0.195607
0.0221404
4.81616
10.4833
0.0218826
4.73146
2.16721
0.0219071
0.0215285
0.0455448
0.0306323
0.043285
0.0216961
5.99956
0.0328811
0.0605832
0.0216188
0.0219556
0.0263353
5.59657
1.70336
5.68459
0.0414008
5.76059
0.0392348
10.3062
0.0219521
2.65444
0.0219728
0.0269206
0.914926
0.0231737
0.197028
0.0218746
0.0245248
6.43236
3.17671
0.0219651
2.12858
0.0220007
4.88942
0.0218026
4.89961
5.12549
0.0218244
6.13111
0.0273546
5.50057
0.0219752
0.0263715
0.0228341
0.0875858
0.022021
0.471404
0.021806
6.68105
0.0778638
4.87075
0.0221368
0.021692
2.55085
0.0231319
0.0316724
0.0218901
0.0828183
0.0245254
0.0219786
2.82734
0.0220345
0.0219396
0.0222944
0.0220865
4.59802
0.0388279
0.0219532
5.61837
4.11581
0.525058
0.0216971
0.0904908
3.42042
0.0218414
0.0259634
0.0223768
0.0220419
0.0219509
0.0220005
0.0271968
0.028421
5.65071
0.349982
0.247284
0.0222776
0.0219543
4.82549
0.0355949
0.0219278
0.022348
3.28265
5.29099
0.0219884
4.82998
0.0391235
0.530408
0.0222785
5.73977
0.0217543
0.0228484
0.0221011
0.0218861
0.0234274
6.35401
0.0217356
4.50511
0.154567
3.84052
4.77111
0.0221029
0.0220105
4.91753
0.0676061
0.100403
0.0219792
0.109972
0.0221921
5.70758
5.55973
5.44916
0.0220721
6.21464
11.8844
4.46542
0.504521
0.0256854
0.133247
0.0218611
0.339773
4.65645
0.0290174
4.53993
0.0218202
0.0220413
0.0707239
3.4779
0.0403009
1.70071
0.0219877
8.99388
0.0395899
0.0519007
0.0218219
0.0408771
0.278234
0.0220378
0.0384113
0.0401465
0.220091
0.0215905
0.0219038
4.55013
5.01664
0.0237818
5.00844
0.0395051
0.0219929
8.58779
9.09095
0.0220971
0.542576
0.0217048
0.022075
0.0456343
4.70076
0.022275
5.11209
0.0234861
0.0219395
5.35913
0.0221823
0.0657409
0.021857
2.49982
0.022023
5.3468
0.0217703
0.0551101
0.021861
0.0275576
0.217435
5.4616
0.049165
7.80453
0.0287244
4.54723
8.76624
4.84942
0.021874
9.68112
11.5625
3.54536
0.287491
0.0224147
0.021853
0.0219552
9.95817
0.0219551
0.022056
0.941445
0.0222412
8.14119
0.0230152
5.77064
0.0219451
0.0222302
0.0974259
0.0215597
0.0537901
0.0218609
0.0752472
0.0934089
2.2912
0.0218146
0.0219056
5.60442
13.2545
0.0222448
0.0303325
0.0345519
0.022578
7.25769
4.97656
6.06326
0.138733
4.96224
4.83832
0.20078
0.0218987
0.021792
0.0228266
0.0219408
0.032986
6.76711
7.65983
0.0220898
0.0238102
0.0226948
1.3254
7.85025
8.4816
2.88631
0.0220706
2.85602
5.65611
0.0264323
4.65235
0.0470592
0.0221115
4.83763
6.15651
6.98249
0.0222078
0.0229749
0.0429495
0.33453
0.0218163
0.0220356
0.0222428
0.02183
0.0220412
7.07231
0.0238279
0.0216908
8.76066
0.022106
5.43374
0.0410399
5.28318
0.340022
0.0219793
6.50934
0.155464
0.963678
0.0227094
0.0283402
0.0220127
0.0230025
6.79747
0.127586
0.0797578
0.0224681
0.0219318
0.141908
0.023304
0.0220616
0.0273102
0.0219372
4.54143
0.021999
5.08294
7.83346
0.0233319
0.0219811
7.78616
0.0218719
0.021684
1.25865
0.0245408
0.0236948
0.0839619
1.84887
6.41164
0.0337932
0.0234582
0.0222529
4.75948
2.28385
0.0234588
0.0360667
0.0218854
0.0218118
0.0239468
0.0217145
0.300914
0.0293922
0.0220167
0.0222378
0.0220935
0.0219
0.0218468
0.0219146
2.55836
6.51644
8.3726
0.381643
4.76477
0.439282
0.0247947
5.27691
3.22964
4.8596
0.0220942
0.0216827
3.70044
4.16438
0.44535
0.23128
7.80701
0.0220966
0.0219378
4.39499
0.0218459
0.128306
0.130584
0.0225318
10.5814
4.82203
0.0222611
10.9721
7.46217
0.164389
0.701092
0.0221961
4.51746
0.577124
5.08174
0.0218534
0.0663904
3.18182
0.0219143
0.0402085
0.0217384
0.0492667
0.0220793
6.19392
0.72862
0.0220277
0.0232534
0.0223852
4.90136
0.0419926
0.0221391
0.0222219
4.95644
0.0219283
0.023257
0.118345
0.443161
0.0224727
0.0792289
0.0495359
0.0219482
0.139336
0.0219174
0.0219634
0.0269429
0.0219674
0.0310096
4.53827
0.212567
0.0220014
13.5859
3.5647
0.299097
7.51279
0.0408174
0.0235293
5.12793
0.0265068
0.0241438
0.0465795
0.0783468
0.0218861
0.0217262
0.022111
0.514549
5.33675
6.75506
4.49456
0.0218242
0.0259194
0.0778897
0.16812
4.94149
0.0221385
4.79556
0.0223253
7.78377
0.0215802
5.45529
0.0227066
15.692
7.23072
0.0819365
4.64121
0.0595614
0.0218384
0.0851561
5.58699
16.0237
0.0262714
0.0223624
0.0219555
0.0221082
0.0292528
0.0222868
0.0235377
0.0218237
0.0567052
0.0220091
4.66183
0.0222243
4.91045
0.0216775
0.135451
9.89151
0.0229568
5.12078
0.0220154
0.0273575
0.0221477
0.0222004
0.0219284
0.35545
0.222348
0.021798
0.0242805
0.0219752
4.59024
0.0308233
0.53327
0.185244
0.021976
0.0483228
0.0226626
0.0228607
0.04647
0.0221073
0.055778
9.90687
0.022028
4.43309
0.0273917
0.0218942
0.0217231
9.39595
0.0219944
5.57381
0.190184
0.0222691
3.70903
0.104836
5.70098
0.0259562
0.0251331
0.0221026
0.0616318
4.8254
0.0221375
0.0459789
0.0220655
0.100341
3.02593
2.1293
7.3458
22.4752
0.0295404
2.6392
0.0221393
4.78642
0.542266
0.0265176
0.487161
0.0638302
0.0215773
0.0487481
0.0220047
0.0217591
0.0242469
0.021959
0.907302
2.03601
0.14559
1.41862
0.0220765
2.42044
0.0220583
0.0219705
0.0427032
4.66561
0.0217344
5.19559
0.0982514
0.10316
6.5843
0.022237
0.0457249
7.21989
0.0445967
0.0219399
0.40496
0.0219708
0.0221307
0.0222417
2.04606
10.9
0.0256539
0.0221019
5.32791
11.4296
0.0222849
0.0222359
1.27422
5.86083
0.0222068
0.330662
0.123601
0.0218909
0.0307255
0.0217004
4.96373
0.0219831
10.4442
7.5051
6.49828
0.02488
0.0323265
0.0218032
0.0218032
3.10921
0.0218491
8.75911
4.51255
0.0801571
0.02185
0.0216891
0.718432
0.321978
0.0521136
8.7376
0.0903601
3.62525
0.0230058
5.07396
2.60565
0.0269348
0.376952
6.97175
2.04784
0.0220477
7.21791
0.0217392
4.51655
0.25644
1.16426
0.0216314
0.0416844
0.0221065
1.13811
5.08618
0.0226504
0.0228332
10.7141
4.90722
0.0219627
4.94005
3.59405
2.51729
0.0222166
6.49749
0.0221536
5.34313
0.0221131
0.0226803
0.022206
0.0219951
8.50239
0.956359
0.0217182
4.80654
5.68023
0.0215393
0.0216888
0.0418498
0.067242
0.096794
0.0492337
27.1754
4.50767
4.91496
7.32324
0.0939052
0.0230393
0.137657
0.115655
5.23238
4.83643
6.05023
0.0918297
0.0537516
0.0245811
5.7326
0.089337
0.650018
0.0221852
0.0255711
11.5337
0.0220953
0.0292095
0.542207
0.0241463
0.0419864
0.0220038
0.023153
4.96975
0.357521
0.0216409
0.025555
11.2296
0.329085
0.0314103
1.82974
3.04364
0.0438458
0.170307
4.83426
0.0225829
5.07664
0.0963944
2.48178
0.0221461
0.0214768
3.6913
4.92871
5.094
8.31622
4.94597
0.040688
0.0758646
0.0238674
4.8529
0.0218844
0.0220274
0.0449004
0.0721355
0.105281
5.86541
0.0228087
4.88212
5.45713
0.0223179
0.0845809
0.0232719
0.215223
0.133673
0.0407123
5.99544
4.97264
5.41431
2.02003
0.0322899
0.0219699
0.0226138
0.0276927
0.673786
6.63391
5.21698
8.58435
0.0527864
0.0218024
0.257535
0.039963
4.76831
0.0220972
11.4804
0.0582467
5.60614
0.022094
4.70566
0.0961408
0.0686703
0.996394
0.0217217
1.93675
6.08032
0.021822
0.0852003
4.76894
0.0224037
0.336704
0.0232223
0.0230527
0.0222586
4.54407
0.0460308
1.66079
0.0291312
8.8267
0.021746
0.0215216
0.0218916
0.0220652
0.0219573
8.78955
0.405317
5.47269
0.0222115
0.0217673
8.23878
0.0288714
4.84989
0.0883058
0.0219079
1.07766
0.030564
0.0386401
5.6995
0.0267491
39.3818
0.724332
0.0276289
0.0216203
0.269287
0.0215378
0.671212
8.79157
0.183169
0.0217895
6.84811
0.366519
0.0219811
1.9559
0.022131
5.59632
5.97703
0.0281063
0.0250409
0.0747683
0.038611
0.0222302
0.0216432
0.0219761
21.8806
0.0252908
2.41943
0.668306
9.90885
0.392527
0.121751
0.0219751
0.187424
8.58051
0.0249524
0.0218663
0.0239975
0.0222269
8.672
0.0848026
5.13058
0.0219998
8.13185
2.90595
5.05812
8.23072
0.0219837
3.04937
3.12758
0.0219575
0.022281
1.88584
4.38674
0.0264382
0.606344
3.53034
8.06949
0.0293262
0.0228827
0.445387
0.0419085
0.0231007
0.0274254
0.022122
0.0791573
4.57775
0.0586356
0.022799
10.8131
0.12941
0.021646
0.171394
0.220451
0.0736412
0.0570616
0.0216583
0.0217936
2.24479
3.21105
0.0404987
0.021836
4.41365
0.473753
0.618257
5.66354
0.0235417
0.0216519
0.0220976
0.0222041
0.0295542
5.10216
0.0862136
0.0223607
0.114193
0.022068
4.96028
0.0230647
4.55458
0.022841
1.14476
0.0548833
4.71773
0.0219353
0.0219568
0.0218046
5.19659
0.026506
4.54193
4.64519
0.0582707
0.0221384
0.0275986
0.030887
0.0222263
6.87803
0.0216002
4.85799
5.08
4.58283
0.0287491
0.0219761
0.0222774
0.0220167
0.0221943
0.0842189
7.62642
5.85784
23.8774
0.823491
2.5161
0.0234972
0.345099
0.0673469
0.0527036
0.0219767
0.0216572
0.198416
0.0230014
0.0216465
4.62438
0.739804
0.481374
5.29292
4.18462
0.0221
0.0221285
0.0227675
0.0440772
4.84289
0.0220572
0.0448981
0.504142
1.21169
0.0436061
0.0221471
0.361518
0.0272535
5.18468
0.0220715
0.0217276
0.0219904
0.0219756
0.0226506
4.95845
0.394837
0.0826499
0.120633
0.0810197
0.0218467
0.0509652
0.0226814
0.0221031
0.0271473
7.65582
4.60474
0.0218088
0.328423
0.0218593
0.054148
0.0232239
0.0286055
0.0221037
0.0792818
0.0568919
5.48989
9.85394
8.71792
8.62356
23.8508
4.76435
1.13467
0.0217134
5.73145
0.0217163
7.35486
0.0257518
4.39961
0.022093
0.0792886
0.0220664
0.0217647
0.0242317
0.0219568
1.66768
0.0216691
0.0219208
0.0216348
0.0217029
0.021804
0.029778
0.0221271
4.61503
0.0496009
0.0219607
4.6851
0.0220367
0.0218557
0.0645362
5.04665
0.0388685
0.0287978
0.0217618
0.0216033
4.77872
0.0221971
0.0255821
0.164149
5.79104
9.5239
4.84991
5.02698
4.97396
18.144
2.86461
8.13395
0.075213
1.42835
0.0222274
0.0220103
0.0703027
0.0261486
2.61079
0.0221353
0.0442636
0.0492936
0.366402
0.0769519
0.0386459
0.0234276
0.0219859
0.047751
0.0220681
0.0217194
0.446135
0.0222552
4.806
6.43427
0.105463
0.0217909
5.50073
0.023157
5.4459
0.482256
0.0218382
6.81843
4.73862
0.0611039
0.0708287
0.0308543
4.66781
4.52582
0.0237086
18.6598
0.0533799
0.0403438
5.41472
0.0221295
3.33112
0.0220377
0.0220704
0.0218302
2.03359
0.214025
0.336416
4.44229
0.0249892
0.046109
3.27842
0.0217877
6.24648
0.0216833
1.9144
5.05288
9.61595
0.123189
9.73328
0.021942
0.0221856
0.0238198
6.50949
0.0463243
0.0224384
0.0219553
0.0214699
0.0218899
0.0651339
0.180711
0.0747955
0.178466
0.0605838
0.0219825
4.45629
0.0299638
2.23946
0.0226459
0.0217477
0.022585
0.0222322
0.0380005
0.279644
4.97625
0.548317
5.12127
0.458719
0.0218198
1.99932
0.0215207
0.0220197
0.0228971
0.0217561
0.0311297
0.021988
0.0689089
0.021827
5.0822
0.0222781
0.02246
0.0217492
4.81932
0.61536
0.0937035
0.0215616
4.49238
0.132403
0.0793091
4.42111
0.0569801
0.842265
0.0220855
2.07314
0.173342
0.030204
0.831837
0.0327469
0.0416465
0.755919
0.0281374
17.0707
0.10293
6.99367
1.22609
0.0430511
0.0291434
0.0219846
4.68524
0.0220089
3.1027
0.0219244
0.0218941
0.0215258
0.0315161
6.17635
0.0239681
0.0219199
0.0221142
0.0435607
2.00778
0.107051
2.60752
0.198633
0.0702645
0.0219938
0.0586665
0.022185
0.0228954
6.74175
0.0327182
0.0382155
0.112776
3.14231
0.155786
0.0420662
0.0717685
0.0638799
0.0245397
2.60738
0.0221851
6.35675
0.0253544
3.5058
0.0843288
2.35639
4.7857
0.0938767
4.86796
4.99542
0.133158
0.262809
0.0990708
0.601506
0.0220254
0.0803754
0.0549044
10.4774
0.0230451
3.61391
7.15981
0.0215093
0.0217574
4.71491
0.0223286
0.0219225
0.0216198
14.748
2.21168
2.22422
0.0268428
4.55684
0.493737
2.34839
1.77294
0.0803354
0.0220361
26.2583
3.07096
0.685427
0.461249
0.0219586
0.0218401
0.0220123
0.0221128
0.62915
0.138573
3.82609
0.0851459
0.0221449
0.0219726
0.0222877
0.0313762
11.1031
0.0237052
3.7186
4.60642
0.0535077
0.0221215
4.93931
0.181843
2.55934
0.0219508
20.7127
0.0975976
0.0221568
6.79131
4.74098
0.0230552
0.0217658
0.0221042
0.0222559
0.0219843
0.162754
0.0579073
0.28277
0.0424831
0.0225756
0.0303904
0.0220856
0.025682
0.0219509
8.41828
17.8049
0.0348924
0.0220391
5.51303
0.021683
0.186581
0.560898
9.82768
4.46542
6.13917
0.0220552
0.0222559
0.0221252
0.249155
0.0225703
3.74023
0.0253885
0.0218929
0.0219921
0.143064
0.183679
0.0220727
4.98599
0.0758068
1.12479
11.0657
0.0221164
0.720542
4.67035
0.160891
0.0222877
0.0219808
0.139644
1.39373
20.9799
0.0231234
8.35822
0.0217386
0.0837459
2.35779
0.188852
0.0217236
7.38752
2.26624
6.87281
8.93812
0.0222766
0.0221733
0.0876602
0.160597
0.041961
0.0230159
4.82219
0.0234379
8.39585
4.45709
0.0218867
7.66063
0.0218497
0.0803925
7.68601
0.0849676
0.0574248
2.56688
0.0239828
2.69357
0.021995
0.713981
6.91484
2.77224
12.119
0.0242968
0.0546449
0.0217044
7.01832
0.0229535
0.0217335
0.0475803
0.0532063
0.0476718
23.0888
5.10402
4.63417
0.194845
0.0307075
0.0387094
0.0262463
0.0353286
29.1899
0.0231851
0.415918
0.0227546
5.32304
0.653064
0.0222327
0.0221658
0.0424775
29.1487
0.043226
0.0216215
0.0218851
0.0300059
0.0265198
0.0282329
0.0252948
4.38738
0.0238658
3.42531
0.0747475
0.0219402
0.067308
0.0695252
0.0406131
0.0218522
0.0220689
1.94192
4.55676
4.48266
0.0418875
0.0460859
0.0535958
0.0476958
0.0219202
0.0236537
5.62321
0.0486801
0.0239505
4.67367
7.42192
0.228523
3.14331
0.0793865
0.0226652
7.5002
0.0656953
4.47928
0.0219139
4.67297
0.0488866