/*--------------------------------*- C++ -*----------------------------------*\
| =========                 |                                                 |
| \\      /  F ield         | OpenFOAM: The Open Source CFD Toolbox           |
|  \\    /   O peration     | Version:  v2012                                 |
|   \\  /    A nd           | Website:  www.openfoam.com                      |
|    \\/     M anipulation  |                                                 |
\*---------------------------------------------------------------------------*/
FoamFile
{
    version     2.0;
    format      ascii;
    class       volScalarField;
    location    "400";
    object      p;
}
// * * * * * * * * * * * * * * * * * * * * * * * * * * * * * * * * * * * * * //

dimensions      [0 2 -2 0 0 0 0];


internalField   nonuniform List<scalar> 
18355
(
-0.0723094
-0.0962296
0.0169963
0.000342434
-0.0216018
-0.0963606
0.0119177
-0.122909
0.0793401
-0.106948
-0.00540281
-0.390922
-0.160354
0.0342137
-0.00254318
0.0355984
-0.456512
0.00171364
0.0177418
-0.0920695
0.0536351
0.0472414
-0.155674
-0.0209504
-0.0299649
0.0212945
0.0248277
0.076546
-0.107277
0.0283927
-0.0154823
-0.0270985
0.00174854
0.00373922
-0.118961
-0.076347
0.064191
-0.201639
0.075204
-0.00576317
0.0347232
0.0342709
0.0172083
-0.116711
-0.00174074
-0.212226
-0.121601
0.0847216
-0.108725
0.00236518
-0.00364976
0.00378435
0.020374
-0.105892
0.0178842
0.0111265
-0.0792202
-0.00215515
0.411225
-0.219785
0.00276328
-0.103741
0.000593149
-0.00561519
-0.388839
-0.0696141
-0.0848604
0.154439
0.024522
0.0459523
-0.140448
0.013171
-0.227501
0.00558465
-0.123377
0.0118592
-0.10792
-0.0275381
-0.0396232
0.00371865
0.0122292
-0.312098
0.0515877
-0.0519726
0.0214731
-0.157627
-0.0750053
-0.0925699
-0.109707
-0.116429
-0.129705
-0.00176938
0.0190782
-0.00349559
-0.131384
-0.158157
-0.00543901
-0.0453838
-0.103832
-0.450437
-0.109988
-0.453368
-0.0799279
-0.122057
-0.0210959
-0.126382
-0.407764
-0.148495
-0.0732447
0.350428
0.0235006
0.0698306
0.0220384
0.0717033
-0.0986524
0.0101964
0.471646
-0.106555
0.462639
-0.0765046
-0.108095
-0.360757
-0.0268924
-0.140717
-0.00484906
-0.152214
0.00331035
0.0182629
-0.401123
-0.00334743
-0.00360567
-0.176695
-0.0956517
-0.0443756
0.09239
0.0181179
-7.53399e-05
-0.00548071
0.0299505
-0.15588
-0.112351
-0.130475
0.0247907
0.0239063
0.449741
0.0472873
0.107195
-0.0717819
-0.0362408
-0.0701523
-0.0213517
0.0478125
-0.113889
0.436159
-0.0803228
0.0141705
-0.173728
0.470921
0.0140539
-0.109198
0.0110256
-0.0248194
0.108561
-0.0454562
-0.0974607
0.178807
-0.453881
-0.0999181
-0.202281
0.0035693
-0.145377
-0.163194
-0.0047844
-0.00527223
0.0329277
-0.0878565
-0.0616129
0.0180658
-0.393752
-0.437809
0.289639
-0.199082
-0.0559074
0.00981839
-0.102306
-0.087256
-0.126828
-0.13264
0.0807682
-0.456057
-0.0776487
0.0169483
-0.0445861
-0.117307
0.106989
0.0456242
-0.253575
-0.0548582
-0.0794933
-0.00510378
-0.0291317
0.0787911
-0.447269
-0.132278
-0.328
0.0240387
0.474889
-0.43553
-0.387347
-0.0777312
0.000356915
-0.0208148
-0.0896857
0.0243406
0.00383725
-0.303197
-0.109036
-0.0897385
0.0219786
-0.0352287
-0.321761
0.0281944
-0.0459171
-0.00026783
-0.456299
0.037696
-0.446374
-0.0824185
0.371282
0.00123788
0.0202597
-0.0382605
-0.00794984
-0.448978
0.0084957
0.0207717
0.0181941
-0.187874
-0.115897
-0.325289
-0.0709577
-0.208693
-0.0155826
0.00450067
0.040678
-0.0828696
-0.378675
0.511684
-0.0787349
0.00934251
-0.028611
0.180413
-0.0563678
-0.393644
0.0327133
-0.455851
-0.110275
-0.11077
0.0228387
0.00718658
-0.0657388
-0.15082
-0.450846
-0.0981722
0.00674933
0.00403007
0.0197409
-0.207901
-0.0936474
0.347243
0.0401828
-0.0784768
-0.133731
-0.125994
-0.0144753
-0.261454
0.00332621
0.0253621
-0.322574
0.00480238
0.0120024
-0.129346
0.0166732
-0.143541
-0.055462
0.0927809
0.00505266
-0.0995272
-0.406636
-0.0276779
0.000623314
0.0315929
-0.117096
-0.105298
0.0196019
0.0126294
-0.103075
-0.0905732
-0.0787542
0.247491
0.0250914
-0.145894
0.0578316
0.012631
0.258065
-0.0979673
-0.10464
-0.117405
-0.00331192
0.302664
-0.0196946
0.0187915
-0.366998
0.0208982
-0.211458
0.0493752
0.0190565
-0.0016437
-0.212762
-0.0764873
-0.432943
0.00497539
0.104894
-0.117129
-0.0102276
-0.117872
-0.0353906
0.0549998
-0.118564
-0.00313448
0.134338
0.0205042
0.093537
0.011765
-0.0785963
-0.433378
0.0212275
-0.451359
-0.0838604
0.0263569
-0.117907
-0.103925
-0.133169
-0.101449
-0.119288
0.0322994
0.000699349
-0.195449
0.272314
0.0197951
0.0112717
-0.107162
-0.101812
0.227483
-0.190751
0.0232793
-0.0342133
0.504186
0.0227787
0.00874913
-0.146142
-0.0770144
-0.0364989
-0.0759581
0.0173866
0.169154
-0.331789
-0.361176
0.000631274
0.0363953
0.0281961
-0.00318805
0.147921
-0.00372289
-0.0906401
0.0278031
-0.0105053
0.0232836
0.078005
-0.0119855
0.012703
-0.0106148
-0.0106778
0.0258104
0.359473
-0.189798
-0.00138886
-0.12167
0.0667691
-0.185364
-0.0695401
-0.153829
0.0421497
-0.131526
0.0623167
0.0103431
0.0209613
-0.00120304
-0.105634
-0.0336174
-0.00172364
-0.098474
-0.0864758
0.0225634
-0.0101847
-0.450525
0.0450987
0.00376584
0.281445
0.0158209
0.514549
-0.454579
-0.143476
0.103972
-0.0204608
-0.405581
0.0131588
0.0220893
0.2881
0.0157263
-0.00461779
-0.456598
0.00518013
-0.434923
-0.0655281
-0.0670238
-0.455477
0.0580957
0.0216853
-0.112902
-0.0944335
-0.146252
-0.12835
0.0275911
0.010117
0.0484596
-0.100599
0.0563837
0.0178504
0.0145188
0.0257485
0.174369
0.500362
0.0310886
0.0474983
0.0199772
-0.0683608
-0.125963
-0.105156
-0.454368
-0.151267
0.218146
0.153815
-0.115366
-0.0177177
0.00758927
0.0313092
-0.00151288
0.164377
0.0249184
-0.00162711
-0.450662
0.182237
-0.112977
-0.115243
0.227031
-0.0874045
0.00915914
-0.0114221
0.0269547
0.0122334
0.0144492
0.0200889
0.0253045
-0.128949
0.00386835
-0.0029141
-0.350107
-0.221522
0.00788682
-0.0271779
0.06697
-0.354045
0.0327716
-0.00657206
-0.124985
0.0762858
-0.0866934
-0.035184
-0.00308557
-0.450577
-0.223661
0.00197374
-0.400488
-0.123259
-0.458382
-0.00251305
-0.00630312
-0.00532739
-0.112572
0.0573968
-0.0798132
-0.10507
-0.121156
-0.365928
-0.0014511
-0.0640846
-0.0884004
-0.159682
-0.0958974
0.0442815
0.0388538
0.0156274
-0.133304
-0.453226
-0.131278
0.036382
0.0293965
0.0232621
0.0599083
0.0250401
-0.10777
0.0172685
-0.0978367
0.0363922
0.0252833
0.00738354
0.148914
-0.00840228
-0.124512
0.0170075
-0.114761
-0.224058
-0.0501024
0.0218297
0.0797104
-0.0457902
0.0168283
-0.075887
-0.0787379
-0.0498865
-0.225806
0.0107511
0.00192011
0.0306601
0.0212494
-0.0940398
-0.0357184
-0.106222
0.00928474
-0.0213055
-0.140215
-0.00288928
0.15916
0.0617094
-0.208028
0.0902372
-0.101273
-0.0223217
-0.121066
0.0918488
0.0843216
-0.107072
-0.140549
-0.415357
-0.0484437
-0.0324879
-0.00241549
0.0280236
-0.0898857
-0.11358
0.0448231
-0.0806304
-0.128134
-0.0968465
0.00833302
-0.428962
-0.186471
-0.027318
0.0285143
0.160902
-0.113473
-0.0640198
0.0168418
0.276156
-0.217584
-0.12079
0.140796
0.0297117
-0.0461214
-0.132335
-0.0992318
-0.119719
-0.374492
0.158628
-0.174653
-0.0549658
0.0112678
-0.0280101
0.0277605
0.438893
0.374342
-0.0885534
0.348316
-0.389098
-0.196939
0.26745
0.0361017
-0.0933682
-0.441373
-0.00566739
0.369635
-0.0970154
-0.279322
0.0274254
-0.00104698
-0.0450958
-0.0441264
-0.0446414
-0.146176
0.0205394
-0.111727
0.0280328
0.0524262
-0.133817
0.0109976
-0.00708181
-0.0926527
0.0218635
-0.0183235
-0.248624
0.00422582
-0.113081
-0.00308254
-0.162719
-0.048942
-0.0700995
0.0497071
-0.0290664
-0.112887
0.0970902
-0.0736323
-0.0823736
-0.0156951
-0.165116
-0.0702295
0.0714124
-0.45614
-0.342377
-0.127257
0.0237455
-0.0016711
-0.124986
0.0818869
-0.0780379
0.0167597
-0.0563843
-0.15213
-0.130406
-0.0938524
-0.121882
0.166579
0.00839662
-0.00115196
0.0167169
-0.101513
-0.0960167
-0.00815018
-0.40627
0.023418
-0.0870987
-0.00132854
-0.396634
-0.44911
0.0291395
-0.00557025
-0.0923379
0.0166015
0.00165892
-0.214131
0.367042
0.0538052
0.0274996
-0.0900569
-0.108644
-0.0395813
0.265602
0.0121402
-0.089479
-0.0928405
0.0391084
0.417228
-0.165977
0.0126685
-0.131628
8.34182e-05
0.0215428
0.0573072
0.179418
-0.45427
-0.0823141
-0.0993024
0.00231499
-0.0833916
-0.374472
-0.055725
-0.386363
0.036752
-0.439773
-0.0278261
-0.0730218
-0.0944216
0.025764
0.363004
-0.00447382
0.0950973
-0.4234
0.30293
-0.408438
0.00646066
-0.102385
0.0331382
-0.0729701
-0.0193468
0.0203543
-0.0459491
0.00595786
0.000107621
-0.0831646
-0.121884
-0.275619
0.010215
0.500032
-0.0543752
0.00645351
0.0234244
0.0764112
-0.123258
-0.428599
-0.0785926
0.00366772
-0.0128466
-0.095044
0.0233452
0.0216719
0.00587821
-0.0149839
-0.0676692
-0.112455
0.0110722
-0.246098
0.0993535
-0.18538
-0.455213
-0.0877287
-0.0012158
-0.0656707
0.0166388
0.00274614
-0.0553726
-0.0983217
0.00678476
-0.00192398
0.00109064
-0.433254
0.0617497
-0.0161461
-0.028243
-0.0603171
-0.125958
-0.405789
0.0141155
0.0337553
-0.127113
0.0377407
-0.374586
-0.0966239
-0.444477
0.245642
0.0931928
-0.104502
-0.0473924
0.021749
0.00494583
0.0209444
0.0514271
0.0198223
0.0528857
-0.365539
-0.134882
-0.0139518
0.286053
0.00463151
0.00679041
-0.0840815
0.0181272
0.0537655
-0.0189622
0.458712
0.508652
-0.144468
-0.406945
0.158348
-0.0845019
-0.10227
-0.0873972
-0.325653
-0.0946534
-0.184139
-0.098003
-0.45744
-0.0138259
0.0279518
0.0119354
-0.045166
-0.105693
0.00375879
0.0213569
-0.147068
0.00656589
-0.00341912
-0.000206917
0.0128772
-0.100895
-0.0155707
0.0342613
-0.0911511
0.000259864
-0.233217
0.386776
0.0224076
-0.0241058
0.00659028
0.0529774
0.00667737
-0.0227278
-0.364133
0.0326272
-0.193882
-0.0142471
-0.186094
-0.034105
-0.0843104
0.0212892
-0.0717904
-0.0795747
0.0217111
0.0216468
-0.199916
0.0286532
-0.450167
-0.44487
0.0412115
0.0116651
0.0177624
-0.00324441
-0.21962
0.026874
-0.183779
-0.12878
-0.0892776
-0.454562
0.00394918
0.0173239
-0.429645
-0.330412
0.0956817
0.0189759
0.0262262
0.0043216
-0.0250985
0.138554
0.390421
-0.0244884
-0.0838253
0.502745
-0.106649
0.154512
-0.0123916
-0.220664
-0.142595
-0.0304229
0.0209562
0.0446189
-0.294423
0.0251902
-0.169594
0.150987
0.0139822
0.0726441
-0.00148845
-0.0767924
-0.0431731
0.00669249
-0.00251897
-0.0240992
-0.129842
0.0137186
-0.0613546
-0.108119
0.0439294
0.0165675
0.171926
-0.0960106
-0.0682906
-0.240923
0.0617911
-0.00329743
0.0803091
-0.0931837
0.424631
0.50058
0.00433919
0.145904
0.0193251
-0.237374
-0.00544279
-0.106846
0.143191
-0.218089
0.0134971
0.00872853
0.109004
0.0239769
-0.130884
-0.0172626
0.374394
0.0139735
0.00445073
0.0870305
-0.229227
-0.45667
-0.00657194
-0.0236802
0.0591092
-0.0159915
-0.00834282
0.0213303
-0.162721
0.0184981
-0.0853081
0.0128233
-0.376967
-0.0149567
-0.00302468
-0.350894
-0.332433
-0.133863
0.00734926
-0.0735781
-0.015422
-0.106225
0.0586538
-0.209488
0.0034034
-0.456437
0.0153188
-0.0409849
0.0260512
0.0182853
0.016824
-0.0985862
-0.121916
-0.0808237
0.157984
-0.0435789
-0.0252895
0.0124364
0.000884888
0.00427495
0.0304707
-0.22826
-0.0187049
-0.150605
-0.18763
0.0186431
0.0632351
-0.102151
-0.0911713
0.0606157
-0.027072
0.0703508
-0.456973
-0.085094
-0.435227
-0.0634249
-0.0844159
0.253144
0.0323052
0.0118018
-0.144266
0.0995667
-0.0142924
-0.13155
0.0835079
-0.453742
0.0173871
0.356515
0.174652
-0.143983
0.0391207
0.0255059
-0.362338
-0.0156846
-0.150858
0.041813
0.025809
-0.389955
-0.0696001
-0.0396696
-0.421779
0.00876665
0.336917
-0.101674
0.0276372
-0.0562178
-0.102182
0.0279206
0.0117749
-0.0155937
-0.0384451
-0.0385193
-0.0824517
-0.11285
-0.0258182
0.0278989
-0.0737336
-0.000591327
-0.453445
-0.0331302
-0.0222494
-0.18234
-0.449717
0.00391828
0.0159895
-0.0367895
-0.00217411
0.000610625
-0.207291
0.0171889
-0.0383711
-0.00148078
0.262278
0.00220985
0.360201
0.378508
-0.0246037
-0.110317
0.0104823
-0.0320087
0.0122147
-0.116054
0.0276273
0.00736509
0.0202271
-0.006035
0.0149586
-0.131593
-0.45306
-0.409681
-0.454235
0.0167239
0.0581344
-0.0731824
0.0455934
-0.00524847
0.168915
-0.144736
0.0117037
-0.0150424
-0.217855
0.0129233
0.0165316
-0.0818978
-0.0941979
-0.10588
0.078805
-0.0117266
-0.434183
0.0507791
0.16571
0.0138414
-0.0512162
0.0342486
-0.15327
-0.203346
-0.0683461
0.0173172
-0.450357
0.0678832
0.00754842
0.00980761
0.0425025
0.0241712
-0.0131906
-0.105834
0.00818688
-0.132221
-0.0164116
-0.0565255
-0.338043
0.00579251
-0.167784
0.0525124
0.00569946
0.0809423
-0.0885593
0.0227845
-0.00121188
0.0159847
0.0358213
-0.0816326
0.000874262
0.0487399
0.0991563
0.017463
-0.000796986
-0.448034
-0.0785676
-0.103503
-0.203638
-0.127241
-0.144695
-0.329002
-0.0934397
-0.00099345
0.0506608
-0.000487569
0.36227
-0.0955491
0.00179927
-0.00643722
-0.0027729
0.0129433
0.0131977
-0.0339668
-0.42517
-0.447718
-0.456237
-0.116548
0.0178554
0.0125208
0.0162838
-0.404404
-0.380024
-0.013215
0.514741
0.000356109
-0.0754404
-0.0261282
-0.0398755
-0.0727751
-0.179303
0.0541511
0.359632
-0.000449348
0.00833246
-0.16383
0.0167987
0.0110387
-0.0833463
-0.113249
0.0161939
0.124485
0.0161159
0.034739
0.00584672
0.030241
-0.116857
0.00302253
0.0258817
0.0498546
-0.111396
0.382711
0.0247249
0.160395
-0.0700214
-0.453537
-0.207688
-0.441322
-0.213557
-0.0630624
-0.110749
-0.123528
-0.108035
-0.444295
-0.00153995
0.0161504
0.0219412
0.380858
0.0404974
-0.358417
-0.0101942
0.0243817
-0.385207
-0.124591
0.0554695
0.280943
0.0127261
0.0719471
-0.330599
-0.0614244
0.0215451
-0.342853
-0.218805
-0.252401
-0.0982876
0.0293438
-0.381471
0.0138779
-0.063996
0.00823917
0.00724845
-0.0988048
0.104449
-0.00528108
0.0168392
-0.436376
-0.00128737
-0.14146
-0.153206
0.0175661
-0.0045312
0.0965926
-0.103718
-0.136897
-0.0718324
0.060773
-0.112962
0.0336083
-0.0216667
-0.0139202
-0.014412
0.076471
0.246843
-0.362688
-0.1219
-0.110949
-0.45388
0.00999965
-0.213361
-0.216772
0.217735
0.0136121
0.0286346
0.0167203
0.00861208
0.00939949
-0.35759
-0.21415
-0.107441
-0.122747
-0.129113
0.0263117
-0.133224
-0.453863
-0.00145468
-0.0448734
0.00694369
-0.452332
-0.0787134
-0.175408
-0.103685
0.0361752
-0.107535
-0.0187275
0.0953637
-0.0745229
-0.0535548
-0.0058536
-0.0888719
-0.447477
0.015613
-0.255955
-0.446007
-0.287864
-0.36457
-0.0703073
-0.115037
0.155141
0.251454
-0.115113
-0.00182833
0.0395061
-0.0107979
0.012858
-0.457541
-0.0233725
-0.205208
0.00118592
-0.00122887
-0.0954234
0.0217932
-0.4488
-0.0193407
0.403358
-0.0331883
0.0220584
-0.157742
-0.0335883
-0.0874877
0.00832994
-0.00962958
-0.101796
0.135372
0.0241814
0.0959812
-0.342369
-0.0675762
0.508263
0.0192842
0.0211895
-0.00298133
0.0238078
-0.0446772
0.0777287
-0.000394937
-0.449576
0.014684
0.0226547
-0.138929
-0.138008
-0.0921487
-0.0547455
0.00458191
-0.0211432
-0.143791
0.503811
-0.233005
-0.423428
-0.0418643
-0.0722914
-0.0980622
-0.015414
-0.117146
-0.106635
0.00928746
-0.160007
-0.0806143
-0.111558
-0.12276
-0.380858
-0.0968392
0.0436686
-0.122242
0.0351078
-0.0688967
-0.193992
0.00620401
-0.165299
0.00455873
0.0371327
-0.0978292
-0.456053
0.0715058
0.010545
-0.0794323
-0.167304
0.296776
-0.146151
0.0236464
-0.0746338
-0.00613989
-0.103887
-0.192957
0.0170914
-0.456071
-0.0131451
0.00696322
0.0438643
0.00439358
-0.245173
-0.0900759
0.019421
-0.245552
0.0244823
-0.45697
-0.00472174
-0.0979561
0.208664
-0.155536
0.0973092
0.015344
0.000601775
0.010302
-0.183019
-0.136464
0.0118326
-0.0802224
-0.113794
-0.330189
-0.0655912
-0.08988
-0.156159
0.0160275
-0.355277
0.00519864
-0.09661
0.00996203
0.0468129
-0.0184511
-0.14985
-0.217905
-0.102741
-0.187656
-0.453068
0.383964
-0.116996
-0.107122
0.00985973
-0.151331
-0.456188
-0.00270147
-0.0969919
-0.143576
-0.156679
0.0175126
-0.0833446
0.138078
-0.0984559
-0.307002
-0.0532095
-0.125436
-0.0445548
0.00546047
-0.00129574
-0.456667
-0.200907
0.205743
-0.19503
0.00971918
-0.216638
0.0611486
-0.00154783
0.0561823
-0.114447
-0.0390229
0.0216281
0.0158824
-0.33111
0.0105871
-0.0450446
-0.372221
0.00141939
0.010351
-0.299749
0.00677232
0.142976
-0.0397682
-0.174205
0.489367
0.0213386
-0.0650978
-0.0551326
-0.0689106
-0.0549548
-0.0316285
0.321667
0.421524
-0.120831
-0.246748
0.328065
-0.00503381
-0.127075
-0.0964808
-0.0907637
0.00510987
0.0231993
0.369015
-0.0228435
-0.133813
0.411117
-0.0623235
-0.131562
-0.0302054
-0.191526
-0.108205
0.019083
0.0128615
0.0179143
0.0100145
-0.133594
-0.172363
-0.0455537
-0.193608
-0.10183
-0.11361
-0.0153182
-0.0373166
-0.13697
0.00854314
0.00962853
-0.110589
-0.0269348
0.315593
0.00682726
0.0126399
0.021268
-0.0504691
0.00909392
-0.0969977
-0.00384094
-0.0319296
-0.236486
-0.1665
0.494069
-0.383704
0.107443
-0.0248149
-0.208025
-0.15798
-0.192343
0.256248
0.0154215
-0.127885
0.031481
-0.0232666
0.00536831
0.295221
-0.0842784
-0.171279
-0.151399
-0.121483
0.00138779
0.0079045
-0.0165471
-0.0945026
-0.418083
-0.10247
0.515807
0.0111618
-0.409713
-0.0276234
0.0119433
-0.0111059
0.0415332
-0.356935
0.0324001
-0.0896377
0.00117872
0.499201
0.156946
-0.074974
-0.0245132
-0.0184412
-0.0326868
0.00121432
-0.12633
0.51067
-0.179568
-0.127
-0.00160107
-0.177075
0.22821
0.0255357
-0.0557809
-0.0064777
-0.0385256
-0.00263965
-0.352478
-0.0297269
-0.145688
-0.121374
0.000623708
-0.452299
-0.00127871
-0.0458651
0.0600301
-0.0332082
0.00394375
0.0028556
-0.0680452
0.0162988
-0.0272796
0.000876763
-0.0236235
0.511084
-0.110031
0.0587932
-0.0671591
-0.407137
0.00860062
0.0164827
-0.00511609
-0.0933322
0.00345769
-0.121691
-0.224864
0.0280155
-0.109088
-0.0849679
0.0292537
-0.00331213
-0.0557732
-0.00324943
-0.109558
-0.106597
-0.118971
-0.0311597
-0.0562681
-0.00539298
0.502328
0.0794318
0.397987
0.0129128
-0.180547
-0.458023
-0.0762937
-0.0355095
-0.271202
-0.45775
-0.173983
0.0601947
0.000493585
-0.456181
0.486342
0.00623605
0.0236908
0.41992
-0.00497763
-0.151202
0.482362
0.00283876
-0.00479077
-0.231548
-0.0894499
-0.0265324
-0.00161942
-0.0855476
0.0576961
-0.180875
0.0146002
-0.0169146
0.0180275
-0.0235979
0.020544
-0.192581
-0.00673782
0.0285367
-0.0856121
-0.456505
-0.139072
0.00544253
-0.0429116
-0.0745497
0.0445966
0.0488648
-0.073255
0.00836465
0.0250021
-0.140388
0.0619383
0.0286146
0.0384919
-0.0134066
-0.453231
-0.108126
-0.00664146
-0.022446
0.0121593
-0.0668025
-0.420442
0.0801264
-0.160638
0.020378
0.0632356
-0.0436525
-0.147899
-0.45582
0.00128329
-0.337126
-0.239887
-0.0556359
0.0012457
-0.0601885
-0.0645827
0.0434714
-0.00112239
-0.0140015
-0.083019
0.0695582
0.493065
0.0582131
0.0279267
-0.0204065
-0.0957468
0.0349426
-0.00141953
-0.125682
0.165125
-0.210766
-0.0966853
-0.0124139
0.402336
-0.330821
0.436524
0.0678061
0.021112
0.0242266
-0.275864
0.206484
-0.014637
-0.0261377
-0.105701
0.456267
-0.456379
0.0177798
0.1138
0.0490965
-0.108459
-0.342903
0.0122561
-0.141063
0.0517658
0.0652981
0.0123117
-0.443402
-0.144937
0.0293111
-0.0362947
-0.143591
0.013256
0.0130859
-0.0533911
0.296604
0.0309874
0.0133249
-0.0345592
-0.387439
-0.0673333
-0.0106248
0.00809264
-0.0158512
0.371893
0.0195986
0.0170667
-0.10803
-0.215109
0.00858498
0.017925
-0.0757038
-0.0515089
0.0274278
-0.017801
-0.129124
0.00827325
0.0222935
-0.0659256
-0.289802
-0.328404
-0.030731
-0.0784706
-0.446789
-0.127452
-0.402083
-0.11708
-0.012663
0.0277516
-0.00210291
0.0835279
0.0166385
0.0298338
-0.00146983
0.0208898
0.0116935
-0.118259
-0.0746994
-0.112909
-0.0160962
-0.125657
0.0331714
-0.0387321
0.000568032
0.00648994
0.137649
-0.318676
0.00169738
0.00865444
-0.0282249
-0.114644
0.0112087
-0.0762867
0.0219303
-0.0578459
-0.138162
0.22116
0.507373
0.000256123
-0.151311
-0.0139564
-0.119808
-0.455041
0.00781662
-0.153139
-0.134227
0.0177574
-0.00508721
-0.109919
-0.0696318
-0.105298
0.0019242
-0.40094
0.167363
-0.143218
-0.00101799
0.00976929
-0.0430649
-0.451933
-0.234553
-0.452382
-0.099766
-0.457355
0.097266
-0.417643
-0.0165954
0.449138
0.0111292
-0.00893182
-0.324557
0.0674437
-0.221962
0.0117297
0.000388029
-0.454999
-0.269193
0.00999452
-0.37727
0.0128932
-0.150888
0.00580267
-0.123586
-0.456303
-0.0140037
-0.0991006
-0.037333
-0.147241
0.0333257
-0.00260725
0.0411902
-0.146269
0.0135382
-0.310025
0.00582895
-0.43969
-0.124128
-0.1125
0.0104201
0.00023097
-0.102736
-0.0318431
0.158274
0.015656
0.308805
-0.015301
0.0304191
-0.15385
0.028471
0.016839
-0.0199907
0.0238713
-0.0857673
-0.0571302
0.00966402
-0.139843
-0.252319
0.415425
-0.010952
-0.183035
0.484606
-0.0112378
-0.0522722
-0.0215741
0.0230704
0.0107849
0.0385062
-0.0388089
-0.0540606
-0.436946
-0.0155067
-0.048305
0.0161647
0.017739
-0.0996509
-0.0539679
0.0162913
-0.0228662
-0.081335
-0.274349
0.032605
-0.108329
0.0528801
0.453855
0.0213767
-0.448497
0.00410681
-0.0244525
0.0145561
0.00791813
0.067191
-0.145122
0.0025699
-0.158112
-0.183007
-0.0724499
-0.138682
0.0152986
0.0392304
-0.0957221
-0.00268339
0.338615
0.029065
-0.0802808
0.0036139
-0.343708
-0.143048
-0.077186
0.0100056
-0.404099
-0.450865
-0.102248
0.363557
0.106481
-0.199203
0.0095438
-0.135548
-0.129375
-0.0523296
-0.0896883
0.00603366
0.0264353
-0.0404695
-0.16854
-0.00213217
-0.103928
0.0110236
-0.358637
-0.0749292
0.152289
0.00592762
-0.0761802
0.393213
0.0266082
-0.0775082
-0.0979036
-0.100694
-0.00816479
0.0109442
-0.121914
-0.307407
0.0192171
-0.456512
0.0820468
0.0192391
-0.453886
-0.102573
0.0237837
-0.333542
0.000833233
0.00965599
-0.0868055
-0.143468
0.012267
-0.10069
-0.00601086
0.0249172
-0.452502
-0.0208991
-0.0871901
0.00743554
0.478886
0.0252413
-0.452877
-1.99293e-05
0.243949
-0.015184
0.109498
0.378038
-0.287312
0.229792
-0.339944
-0.0532831
-0.1018
-0.322016
-0.0845272
0.0100482
-0.0873036
-0.436604
-0.136819
-0.112761
0.0474341
0.00892655
-0.0165179
-0.353403
0.0285406
-0.0191592
-0.107966
0.0130553
-0.14663
-0.00357056
-0.10955
0.0202561
0.0128828
-0.105493
-0.00159437
-0.0810545
0.0112198
-0.0103025
-0.183666
-0.141927
0.00612283
0.0180052
-0.270295
-0.452531
0.0185047
-0.0583385
-0.0826576
-0.00323226
-0.451419
-0.255253
-0.347618
-0.19254
-0.456796
-0.105724
-0.100199
0.0081914
0.00528147
0.0259796
0.0118345
0.0754061
-0.432663
-0.45199
0.0149205
-0.0253755
-0.0272712
-0.233073
-0.233559
-0.321034
-0.360469
0.0342717
-0.362899
-0.439469
0.101729
-0.10788
-0.0888138
-0.0163277
-0.137093
-0.0746596
-0.0942859
0.0217103
-0.00415136
-0.104297
-0.175149
0.00565154
0.0275105
0.0125387
0.00610747
0.0265146
-0.447542
0.0262641
0.00169951
-0.419612
0.0155202
-0.25255
-0.100335
-0.304363
-0.113498
0.0108293
-0.325791
0.365633
0.463961
0.0364998
-0.0559681
0.0162285
0.0744908
-0.458397
-0.101879
-0.165236
-0.0255119
0.0118954
0.357639
-0.0292203
0.0252554
0.116926
0.0163691
-0.140064
0.0113811
-0.0982213
-0.311696
0.0730366
0.0113418
-0.199712
0.00981176
-0.0106979
0.208096
0.00332678
-0.020249
-0.176891
0.447304
-0.376347
-0.000966042
0.0789737
0.00803672
-0.262851
-0.1409
-0.00162861
-0.0555837
0.014871
-0.0139876
-0.0223832
-0.00672136
-0.119215
-0.0527371
0.0300459
-0.0158508
0.0235251
0.0165218
-0.0146357
0.017153
0.390243
-0.0718989
-0.311345
-0.293529
-0.104359
0.328239
-0.0172911
-0.457106
-0.0841139
-0.104277
0.0239409
-0.0107322
0.450102
-0.381869
-0.2518
-0.267788
-0.237258
0.0148528
0.0245102
-0.0900258
0.00721808
-0.0938142
-0.18707
-0.0260155
-0.454713
-0.101158
0.0128392
-0.451897
-0.108636
0.273207
0.451698
0.0417388
-0.110744
-0.326335
-0.122316
0.00728991
0.284933
-0.170368
0.00812043
-0.073618
-0.0121026
-0.116684
0.0245667
-0.434224
-0.35256
0.0389845
-0.033021
0.0563613
-0.445267
-0.10083
0.0337919
0.0477078
-0.0992799
0.0227511
-0.0332413
-0.162345
0.44317
0.0100417
0.317146
0.247568
0.0175301
-0.0883304
0.0019306
0.0280766
-0.0435471
0.0210372
-0.0409888
-0.155994
-0.109156
0.0288811
-0.446913
-0.172953
-0.0915826
-0.457204
-0.0720774
-0.0342523
-0.349075
-0.0420664
0.0914958
-0.10313
-0.0825218
-0.0156234
9.03028e-05
0.0146954
-0.260219
-0.101619
-0.397188
-0.105643
0.00625034
0.107355
-0.168959
-0.0747674
-0.351788
0.0121466
-0.0889581
0.007317
-0.449407
-0.00779515
-0.128366
0.069279
-0.447055
-0.102594
-0.134286
-0.207231
0.135573
0.00700397
0.295974
-0.451543
-0.442254
-0.0537967
0.0593435
0.010072
0.0378113
-0.0671791
0.0213603
0.0278329
0.00718597
-0.109446
0.0281027
-0.134972
0.0124766
-0.116816
-0.00237082
-0.101983
-0.454267
0.0537243
-0.113373
0.0165136
-0.0414639
-0.0103233
0.0218767
0.0217323
0.40338
-0.193415
0.00372994
0.092425
0.0338961
-0.0877901
-0.0694041
-0.303422
-0.130289
0.0354636
-0.0943066
-0.0247268
0.0371106
0.224773
0.0238248
-0.0877086
-0.452489
0.0181629
-0.125001
0.0661965
0.0162447
0.000912662
-0.266385
0.0297169
-0.282772
-0.0145278
0.0212187
-0.180134
-0.161872
-0.136792
-0.0428079
0.0322498
0.0186481
-0.142945
-0.112253
0.0205736
-0.0971025
0.0459059
-0.0768452
0.468927
-0.132389
-0.44231
-0.43447
0.000871207
-0.151058
-0.00934166
-0.120908
-0.329772
-0.0548719
-0.315953
-0.0918254
-0.00378681
0.0911225
0.0285294
-0.000757534
0.0479315
0.029973
-0.284162
0.0665753
-0.0900302
-0.206222
0.0133649
-0.365979
0.0207909
0.0207178
-0.102368
-0.236605
-0.00690086
-0.421791
0.299017
-0.0853746
-0.452167
-0.0218322
-0.111966
-0.108015
0.0764736
-0.00404339
0.447555
0.0339117
0.012988
0.0129252
0.313914
-0.451287
-0.0395093
0.0239056
-0.0925099
-0.452247
0.0566275
0.0186683
-0.264487
-0.179435
0.0127309
0.333129
-0.209658
0.0150849
-0.0428641
0.000525485
-0.0980949
0.0124916
-0.428423
-0.436083
-0.420115
-0.022901
0.164297
-0.0123743
0.00577754
-0.151349
0.00918416
-0.123073
-0.0978188
-0.162489
0.00728199
-0.00323149
0.45791
-0.110312
0.24683
-0.322911
-0.177775
-0.133938
-0.0309871
-0.415442
0.290929
-0.0457565
0.41031
-0.368128
-0.0989726
0.033271
-0.451117
0.00212245
-0.109885
-0.142168
0.31533
0.000270771
-0.10028
0.0185287
-0.247028
-0.0867428
-0.0241781
0.024082
-0.424166
-0.0993701
0.0153998
-0.152331
-0.130612
-0.139262
0.0175271
-0.356122
0.0203688
-0.14568
0.0193352
-0.0260191
0.0124026
0.0357279
-0.113424
-0.104467
-0.00147749
-0.0798295
-0.457209
-0.00112275
-0.00286594
0.0666186
0.116285
-0.0798641
-0.10727
-0.43501
-0.107424
-0.412725
-0.403913
-0.0835652
0.0649003
-0.0937171
-0.205022
-0.453608
-0.100912
-0.0982204
-0.0929251
-0.0744304
-0.0236365
-0.456424
0.00733606
-0.341045
0.0219386
0.0160302
-0.421513
0.0177388
-0.0054794
0.36732
-0.0225897
-0.0967963
0.0292308
-0.0274933
-0.115247
0.352515
-0.00652131
0.0195039
-0.414866
-0.100767
-0.0424711
0.507646
-0.128969
-0.107844
-0.115093
-0.444002
0.0662342
-0.183002
-0.0884442
-0.124923
0.0228017
-0.00313486
-0.178045
-0.456368
-0.45068
-0.433067
-0.0955718
0.0231387
-0.121424
0.0439406
-0.453463
-0.0135987
0.0134761
-0.0883579
-0.147382
-0.181437
-0.4284
0.0536392
0.405386
-0.129841
-0.020289
-0.120077
-0.00108793
0.152037
-0.220354
-0.0939978
-0.119466
-0.425967
-0.0792286
0.497229
-0.0764875
0.0336757
-0.0267888
-0.0529346
-0.286506
-0.379858
-0.423736
-0.188837
0.13301
0.00543654
-0.139883
-0.0960708
-0.291723
0.017041
-0.432757
-0.120465
-0.318672
0.0146265
-0.103651
-0.160991
-0.0804036
-0.212022
-0.00697376
-0.108645
-0.090763
0.00707022
-0.173415
-0.185359
-0.0245655
-0.14394
-0.026825
-0.0317325
0.0177727
-0.0939451
-0.112823
0.298323
-0.0537589
-0.450467
-0.00138051
-0.00151085
0.0149747
0.0115856
0.0108348
-0.324991
0.368907
-0.150312
0.0217514
-0.000551658
-0.439801
-0.0545634
-0.0925493
-0.0917725
0.00300188
0.478914
0.146489
-0.0697541
-0.276517
-0.0445476
-0.442199
0.462331
0.119241
-0.000949888
0.353185
-0.0020684
0.382494
-0.374404
-0.114925
0.00408003
-0.398097
0.437156
0.0248287
-0.119764
0.0230874
-0.370307
-0.421931
0.0436454
0.0204026
0.114912
-0.092937
0.000985483
-0.0091729
0.0352296
-0.401897
0.103494
0.488038
0.458292
-0.27926
-0.142906
-0.205561
0.0164692
-0.103413
-0.455127
0.100471
0.0102287
-0.0359755
0.021357
-0.449613
-0.166707
-0.322511
0.0147427
-0.207707
0.516596
-0.456853
-0.0832239
0.0244845
0.349898
-0.167108
0.0115751
0.0213496
0.472536
-0.0907692
-0.0496114
-0.103755
0.429608
-0.445189
-0.0668293
0.0727266
0.442077
-0.102292
0.00791049
0.0354072
0.0143312
0.0147698
-0.101832
0.269325
0.0713368
-0.455709
-0.0986077
-0.00414056
-0.126298
0.337305
0.135774
-0.0600693
-0.00449696
0.00342689
0.510998
0.400437
-0.0688427
0.00691891
0.379791
-0.321513
-0.120234
-0.196503
-0.0361388
-0.00350031
0.02354
0.0123791
-0.0655995
-0.434905
-0.0959837
0.0363779
0.359089
0.0249719
-0.259469
0.0630035
-0.0899751
0.072011
0.0973945
-0.0646675
-0.1409
0.0116938
-0.00161631
0.00591394
-0.0892579
-0.0356116
-0.174627
-0.113302
-0.0639083
0.0121266
-0.0605074
-0.0306746
0.0309545
-0.432037
-0.00120581
-0.0940534
-0.454325
-0.104411
-0.0494293
0.0345515
0.0170083
0.0255427
0.0116784
-0.100958
-0.278822
-0.454772
-0.422048
0.472635
0.361082
0.0771192
-0.284275
-0.0910265
-0.0690759
0.0334642
-0.00958778
-0.0966414
-0.017115
-0.00639703
-0.0931475
-0.122121
-0.307091
-0.162723
-0.198757
0.0134289
0.0191239
-0.025741
-0.0598821
-0.108906
0.0197144
-0.0938043
0.454678
0.488049
-0.0880155
0.0461852
0.434244
-0.0588054
-0.155334
0.0472143
0.00168908
0.0198849
0.0327056
0.0224183
-0.0998939
-0.134468
-0.10641
-0.108836
-0.112049
0.00276878
-0.0733685
0.0682732
0.0120432
-0.0536175
-0.427806
-0.106637
0.00439019
0.421377
0.00744908
-0.114713
0.0716179
-0.0553443
0.0235974
-0.117974
-0.10841
-0.102333
-0.448429
-0.319285
-0.282469
-0.440714
-0.308858
-0.265099
-0.00257494
-0.228103
0.00128016
-0.456207
0.032067
0.392597
0.0134706
-0.133541
0.0366028
0.00439442
0.0447565
0.0105157
0.502251
-0.0102795
0.0080782
-0.00198835
0.00119863
0.0056506
-0.0293399
0.0232662
-0.209655
-0.115716
0.0169108
-0.114437
0.0265819
0.00713863
-0.145827
-0.128457
0.0255737
-0.0645707
0.0018379
-0.000589165
-0.336164
-0.015819
0.10603
-0.211164
-0.109896
-0.454458
-0.359063
-0.160694
-0.456212
-0.446395
-0.164348
-0.30897
-0.0220107
-0.307925
0.0212786
0.0201538
-0.1487
-0.043934
0.511901
-0.0145862
-0.0865222
-0.0773528
0.438082
-0.127528
-0.0942245
-0.0323668
0.00957656
-0.0815553
0.0307005
0.00313173
0.436155
-0.0188084
-0.28673
-0.371742
-0.197163
-0.0134043
-0.10432
0.0588696
-0.456519
0.440132
0.00682055
-0.333854
-0.131165
-0.098556
-0.0932968
-0.0726655
-0.104079
-0.0857175
-0.0372545
-0.442479
-0.126781
0.140776
-0.231386
0.0390317
-0.0897987
0.0267196
-0.00110953
-0.0139084
0.403641
-0.147793
0.38353
-0.121082
0.0292943
0.213361
0.498592
0.00372876
-0.206868
-0.00243523
0.507587
-0.102959
-0.233859
-0.212053
-0.155752
0.00779959
-0.0206314
0.0308845
-0.455552
-0.085139
-0.0249144
0.017186