/*--------------------------------*- C++ -*----------------------------------*\
| =========                 |                                                 |
| \\      /  F ield         | OpenFOAM: The Open Source CFD Toolbox           |
|  \\    /   O peration     | Version:  v2012                                 |
|   \\  /    A nd           | Website:  www.openfoam.com                      |
|    \\/     M anipulation  |                                                 |
\*---------------------------------------------------------------------------*/
FoamFile
{
    version     2.0;
    format      ascii;
    class       surfaceScalarField;
    location    "50";
    object      phi;
}
// * * * * * * * * * * * * * * * * * * * * * * * * * * * * * * * * * * * * * //

dimensions      [0 3 -1 0 0 0 0];
oriented        oriented;


internalField   nonuniform List<scalar> 
27907
(
-0.0842214
0.0655683
0.018653
-0.063238
-0.00974933
0.0729873
0.415136
-0.465937
0.0507386
0.0282053
-0.0062867
-0.0219186
0.0127215
-0.00337748
-0.00934405
-0.0136175
0.0054005
0.00821704
0.0107473
-0.000319457
-0.0104279
-0.332696
0.422586
-0.0899181
0.0922504
-0.0785448
-0.0137056
-0.16968
0.022563
0.147117
-0.0228824
0.184132
-0.161251
-0.00790453
0.00531788
0.00258665
0.0804698
-0.436555
0.356049
0.0981106
-0.108686
0.0105756
0.258928
-0.176525
-0.0824054
0.0505374
-0.0311761
-0.0193613
0.0355329
0.0928636
-0.128397
-0.0889023
0.369322
-0.280437
-0.120217
-0.136848
0.257061
0.146339
-0.122533
-0.0238059
0.000356149
0.000213837
-0.000569986
-0.430306
0.448896
-0.0185927
-0.00406155
0.00173863
0.00232292
0.0674298
-0.0832335
0.0158037
0.023405
-0.0895873
0.0661823
-0.420228
0.0874999
0.0392793
0.00573436
-0.0450137
-0.00526709
-0.00358219
0.00884927
0.0367263
0.0143554
-0.0510816
0.0793428
-0.0618364
-0.0175064
0.0917231
0.0142444
-0.105968
0.000635316
-0.00385069
0.00321538
0.474236
-0.461827
-0.0124271
-0.244165
0.125279
0.118883
-0.103175
0.0286675
0.0745076
-0.484555
0.293288
0.191265
0.557026
-0.334896
-0.222142
0.280997
-0.135395
-0.145606
-0.153667
0.243463
-0.0897987
0.027514
-0.126215
0.0987005
0.274049
-0.190191
-0.0838622
0.159732
-0.140245
-0.0194874
0.175099
-0.340208
0.165097
-0.11974
0.159785
-0.040045
0.10038
-0.0764625
-0.0239172
-0.495771
0.260974
0.234755
-0.00269622
-0.00136534
-0.1534
0.193198
-0.0397989
-0.149218
-0.0204623
-0.2047
0.399098
-0.194413
-0.0908457
0.11472
-0.0238745
0.0201184
-0.0159672
-0.00415119
-0.474885
0.0928661
0.381986
-0.194616
0.171732
0.00353064
-0.00879773
-0.0244396
0.0835782
-0.0591386
0.299369
0.257644
0.0451385
-0.0226594
-0.218005
-0.0154617
0.233465
-0.105072
0.0284701
0.076602
0.0566744
-0.0873947
0.0307202
0.00908458
0.00166274
-0.115292
0.109818
0.0054738
0.188717
-0.0323321
-0.156386
-0.385667
-0.0892466
0.345
-0.19104
-0.153962
-0.0738718
0.135007
-0.0611353
0.364401
0.109821
0.146384
-0.277932
0.131544
0.00291591
0.0172025
-0.0147336
0.0130113
0.00172232
-0.123581
0.22499
-0.10141
-0.379578
0.174863
-0.0167579
0.0108033
0.00595459
0.149254
-0.376927
0.227656
0.210348
-0.0107086
-0.199642
0.0917682
-0.0674568
-0.0243114
0.00954823
0.00192164
-0.0114699
-0.0827764
0.0244857
0.0582907
0.00404983
-0.0019783
-0.00207153
0.00096909
-0.000876091
-9.29992e-05
0.0805653
-0.0592823
-0.021283
-0.0659019
-0.0391702
0.00308036
-0.0096933
0.00661294
0.0926876
-0.000919426
0.169368
-0.15063
-0.0187387
0.0188459
-0.0294097
0.0105638
-0.096969
-0.0183233
0.00366557
-0.00285105
-0.000814519
-0.0458545
0.2562
0.0062675
-0.00318715
0.00049697
-0.218504
-0.00515947
0.00136479
0.00379468
0.141759
0.0179731
0.00124163
-0.00116151
-8.01141e-05
-0.00296481
-0.00219466
0.081192
0.0114956
0.348855
-0.199617
0.123441
-0.261376
0.137931
-0.000503752
0.000859902
0.149614
-0.0220166
-0.127598
-0.00193927
-0.00232045
0.00425972
-0.0813944
-0.0257756
0.10717
0.0190475
-0.111817
0.0927696
-0.00177801
0.00241332
0.0518427
0.0275001
0.0633695
-0.0426694
-0.0207
0.0120708
-0.00252256
-0.163447
-0.033494
0.19694
0.143957
-0.24216
0.0982027
0.00339613
-0.00636094
-0.0167579
0.196403
0.217077
-0.413509
-0.153928
0.261436
-0.10751
-0.0474152
0.041186
0.00622922
0.0101091
0.000391019
-0.0105001
-0.00639504
0.00685679
-0.000461755
0.127101
0.131825
-0.00145202
0.00213947
-0.000687442
0.000843692
0.000397934
0.0203637
0.112023
-0.132387
-0.270151
0.240103
0.0300467
-0.0249287
0.0316128
-0.00668407
-0.0413361
0.00092803
0.040408
0.0198342
-0.0778382
0.0580039
0.0656952
0.0346845
-0.0744961
0.0112581
-0.059644
0.077413
-0.017769
0.00346875
-0.00210396
0.440142
-0.624348
0.184162
-0.0772927
0.112825
0.0631076
-0.0238283
0.00169755
-0.00148372
0.132252
-0.0546517
-0.0776007
-0.00953748
0.0316532
-0.200173
0.119106
0.0810667
-0.0862084
0.0187515
0.127332
-0.0998186
0.276377
-0.152942
0.00422604
-0.0486941
0.044468
-0.0762102
-0.00656619
-0.00564598
-0.0474324
0.0530784
-0.261938
0.238258
0.0236771
-0.062459
0.0380195
0.225334
0.0487116
-0.186433
0.276727
-0.0902977
-0.00198805
0.0020299
-4.18492e-05
-0.00511472
0.000366834
0.00474788
-0.0180698
0.109793
0.0247504
-0.0367771
0.0120267
0.0589194
0.0216458
-0.0528971
-0.00919454
0.0620917
0.187024
-0.0489649
-0.13806
-0.459119
0.457348
0.0017641
0.00368768
-0.00292143
-0.000766244
-0.000715459
0.155205
-0.15449
-0.00220746
0.000755439
-0.199138
0.0457366
0.005002
0.165752
-0.170755
0.486231
-0.299341
-0.186891
-0.192248
0.355579
-0.163342
-0.102802
0.0727627
0.0300394
0.0106507
-0.0060387
-0.00461199
-0.183719
0.188719
0.085925
-0.0292506
0.0516843
-0.014958
0.162324
0.0898051
-0.252134
0.0268983
-0.00637382
-0.0205245
0.0702987
-0.0898189
0.0195202
0.0036746
0.00969214
-0.0133667
-0.00899588
0.00912127
-0.000125396
-0.322729
0.233813
0.00720668
0.00344402
-0.00768958
0.00993409
-0.00224451
-0.0415787
-0.0612234
-0.000631628
0.0680614
0.0438562
-0.00988346
-0.0339727
0.171166
0.017551
-0.0610401
0.0652661
-0.266197
0.145591
0.120604
0.262541
-0.460074
0.197504
0.00960665
-0.00960665
0.0167317
-0.0696288
-0.181165
0.346497
-0.165342
-0.0765916
0.157716
-0.081125
-0.0138979
-0.0582493
0.0721472
-0.317602
0.234509
0.0830891
0.00931262
0.000796456
-0.218129
0.386967
-0.168854
-0.313522
0.184098
0.129422
0.0682059
0.0640464
-0.0755137
0.0158697
-0.0302127
0.209539
-0.179328
0.0962821
-0.114352
-0.0473141
-0.0547508
0.102065
-0.11636
0.0193911
0.127977
0.0183612
0.107134
-0.0368354
0.534914
-0.30077
-0.234159
-0.18456
0.359644
-0.0290774
0.0755661
-0.0464887
-0.178397
-0.0207413
0.137421
-0.151487
0.0140654
0.0849601
-0.104079
0.0191193
-0.301172
0.381611
-0.121688
0.0743735
0.0790206
-0.108401
0.0293804
-0.529678
0.0705529
0.000892945
0.000209752
-0.0011027
-0.17187
0.0226517
-0.163424
0.381511
-0.218102
-0.0891411
0.108188
0.0607402
0.149478
-0.21022
-0.119924
0.136884
-0.0169608
0.0528165
-0.0750927
0.0222762
0.000965214
-0.00159301
0.000627799
-0.0260186
0.0788351
-0.0234643
0.0430348
-0.0195705
-0.0896981
0.325858
-0.236179
-0.00440404
-0.00921349
0.205883
-0.201028
0.0375794
0.100032
-0.0409512
-0.0590808
-0.00157513
-0.000412916
0.0180569
0.0598631
-0.07792
0.10699
-0.0279695
-0.0796357
0.122484
-0.0428485
-0.0843753
0.112195
-0.0278197
-0.357054
0.293833
0.0632112
0.0718416
-0.108805
0.036963
0.246118
0.0988814
-0.0212423
-0.0951179
0.00407345
-0.00362776
-0.00044569
0.0960919
-0.0148999
-0.00534472
-0.431241
-0.187067
-0.130538
-0.263378
-0.0936871
0.475102
-0.281941
-0.193203
0.0113636
-0.0362922
0.166559
-0.104928
-0.0616305
-0.209159
-0.0752685
0.284418
0.0245345
-0.0864262
0.0618917
0.0101472
0.0532222
-0.220632
0.0437924
0.176838
0.0402361
-0.0154858
0.00208459
-0.000120813
-0.00196378
0.0833465
0.0127454
-0.277333
-0.207223
-0.000917918
0.00125547
-0.000337557
0.127525
-0.00561105
-0.121914
-0.365502
0.043009
0.322491
0.027136
-0.000237667
0.0241514
0.145216
0.0901925
0.0373327
-0.07716
0.200933
-0.123776
-0.0553129
-0.0634856
0.118798
0.0855064
-0.0261321
-0.0593743
0.0146059
-0.0380702
-0.115325
-0.00459866
-0.0902509
0.0608826
0.0293682
-0.117862
-0.164203
-0.136215
0.0506668
0.0855481
-0.308205
0.335314
-0.0271147
0.104206
-0.0192455
-0.142852
-0.0290184
0.0486013
0.0514307
0.0142956
-0.000533788
-0.0137618
-0.339566
0.249843
-0.0385539
0.203109
-0.164557
-0.0721216
0.0742755
-0.00215384
0.162954
-0.20151
0.107501
-0.184094
-0.032238
0.0305394
0.00864389
-0.0391833
-0.00718248
0.000787447
0.139116
0.0989646
-0.238084
0.0288206
0.0785063
-0.107327
0.00297903
-0.00208326
-0.000895773
-0.0818176
0.0225353
0.211911
-0.180767
-0.0311457
-0.189079
-0.108321
0.297392
-0.177755
0.103416
0.0743391
0.095986
0.0705725
-0.22247
-0.0394706
-0.00082598
0.00380501
0.0853814
-0.0608469
0.0241131
0.0263951
-0.0505082
0.00169755
0.00137724
-0.372906
0.192231
0.180664
0.0143697
0.400722
0.0327691
-0.0978142
0.065045
0.00599912
-0.00503391
0.152174
-0.113554
-0.0386205
-0.0657652
-0.0849269
0.106439
-0.0215119
-0.055459
0.154381
-0.0989219
5.11713e-05
-0.268147
0.147926
0.0924552
-0.0460725
-0.0463828
-0.0060187
-0.325459
-0.170358
-0.00577149
-0.0114124
0.0171839
-0.0902697
0.120982
-0.030712
-0.122463
0.268843
-0.179609
0.0714727
0.108136
-0.0800148
0.10705
-0.0270356
-0.219678
0.202421
0.0172547
-0.367739
0.00223495
0.0109548
-0.0128144
0.00185961
0.0693586
-0.0452455
-0.36727
0.217646
0.149619
0.00926814
-0.0113838
0.00211561
9.39615e-05
-0.0624428
0.0804997
-0.290893
0.305544
-0.0146571
0.440097
0.0583952
-0.0766949
0.0182996
-0.0525979
-0.168036
0.136475
-0.317654
0.109911
-0.237801
0.127886
-0.119324
0.213298
-0.0939746
-0.069491
-0.0203279
-0.112303
0.032288
-0.0906068
-0.0871491
-0.00222919
-0.102699
-0.140951
0.0184179
0.00666436
0.0615415
0.174848
-0.292718
0.324361
0.161868
0.0249292
0.0524838
0.00633364
-0.0920894
0.0857557
-0.0554271
0.0842477
0.0298394
-0.0016341
0.0588224
0.0933516
-0.218773
0.188559
0.427744
-0.588998
0.161202
0.0537852
0.03867
0.0177136
-0.0234851
-0.384302
0.120914
-0.191997
0.398979
-0.206998
-0.283667
-0.100646
-0.117163
-0.0830106
-0.100188
0.0158121
0.0831047
-0.0596997
-0.0965636
-0.173589
0.256582
-0.136756
-0.119826
-0.382754
0.209291
0.173449
0.0472471
0.00329029
0.0525304
-0.0581764
0.0920694
-0.0279647
-0.0641047
0.0315481
-0.0892672
0.0577191
-0.252072
0.196783
0.0552865
0.0620677
0.0129983
-0.075066
0.00432563
-0.088547
0.0413402
0.100005
-0.141345
0.017832
-0.110651
0.092819
-0.00576506
-0.000881482
0.00118973
-0.000308248
-0.0677863
0.0538884
0.353668
0.0866711
-0.44036
0.132624
-0.144181
0.0115562
0.00103453
-0.0642333
0.0631987
0.0343473
-0.00380792
0.0054275
0.141262
-0.14669
-0.214937
-0.15798
0.110644
-0.00803382
-0.10261
0.268921
-0.192772
-0.076153
0.0346571
0.109128
-0.143786
-0.0615264
-0.00284591
0.0643723
0.0309903
-0.0206095
-0.0103807
-0.0827854
0.096331
-0.0135457
-0.11823
-0.0227212
0.0127453
0.00155028
-0.26516
0.0315213
0.233637
0.0301779
-0.208576
0.124546
0.137163
-0.261713
-0.240187
0.0865176
0.024537
-0.0968938
0.0723568
0.172043
0.00191274
-0.173957
0.0102492
-0.000981011
0.0737074
-0.041697
-0.0320104
-0.189088
0.111926
-0.201319
-0.165958
-0.000708208
-0.00582515
0.00653336
-0.0936476
0.0108622
0.0383173
0.0539331
-0.0174324
-0.24773
0.0880766
0.0247877
-0.112864
0.118495
-0.307581
0.160439
-0.0264788
-0.133961
0.163583
0.076519
-0.16606
-0.173525
-0.00389961
0.00503417
-0.00113456
0.000396847
0.000496098
-0.0659861
0.0271378
0.0388483
0.0222421
-0.260083
-0.232585
0.492619
0.0110233
0.0684634
-0.0794867
0.000879527
-0.00539632
0.0045168
0.0584543
-0.113767
0.39796
-0.201582
0.0115237
0.0183157
-0.141434
-0.13167
0.273097
-0.278416
0.181567
0.0968456
0.430034
-0.16752
0.0778454
-0.0533084
0.154377
0.112176
-0.266555
-0.155379
0.0356392
-0.0559591
0.0875072
0.00539653
-0.0266057
0.0212091
0.251454
-0.141549
0.00207833
0.0106432
-0.0966372
0.132184
-0.0355468
0.0971636
-0.388064
-0.0304845
0.165436
-0.134953
-0.268375
0.139053
0.12932
0.189499
-0.140201
0.0847419
-0.0853859
0.11999
-0.034604
0.0840974
-0.0774332
0.00290114
-0.000816546
-0.0754547
0.0958182
-0.366009
0.19948
0.166527
-0.00527434
-0.0668473
-0.0328269
0.0276966
0.00513031
0.00779252
0.0304183
-0.0382108
-0.00692737
-0.00206851
0.0237432
-0.100167
0.0764236
0.217548
-0.177927
-0.0396221
0.192105
-0.358189
-0.360823
0.151653
-0.122425
0.183164
0.0725336
0.0237974
0.0252238
0.101571
-0.126795
-0.144578
0.145361
-0.000783869
-0.118571
0.0283008
0.0363937
0.0113708
-0.0716636
0.0602928
0.0255956
-0.172294
-0.0960823
-0.137175
0.134945
0.0011773
0.00248827
-0.215906
0.0290413
0.186864
0.0167631
0.0142272
0.427693
-0.414475
0.231105
-0.00373809
-0.00565166
0.00938974
-0.120073
-0.0154479
0.135521
-0.164416
-0.0459631
0.210377
0.0711706
0.0143357
-0.0939217
-0.00925343
-0.0528195
0.0855885
0.0058827
-0.00241395
-0.162104
0.151394
0.193185
-0.0305769
-0.16261
0.0118587
-0.00177034
0.00708821
-0.0189243
-0.0660681
0.0849924
-0.105983
0.101116
0.00486655
0.0833297
0.0147809
0.0737566
-0.0623858
-0.000271958
-0.00715389
0.00742585
-0.0802162
0.0886576
-0.212239
0.115392
-0.0311987
-0.0841938
-0.230493
0.0765618
0.102854
-0.0303206
0.0760991
0.137864
-0.213964
0.00315979
0.0027229
0.110646
-0.0225691
-0.0745552
0.0755897
-0.141788
-0.00279046
0.000633391
0.0933362
-0.0939697
0.149603
-0.0385202
-0.0447133
-0.176365
-0.203228
-0.00141156
0.000530073
0.256025
-0.131482
-0.0409093
0.0765783
-0.035669
-0.447134
0.14409
0.303038
0.0656443
-0.0764958
0.0108515
-0.11106
0.145717
-0.445236
0.280246
0.164983
-0.0745748
-0.186806
0.222418
0.207591
-0.0401059
-0.00020032
0.0403063
-0.00206569
-0.000863761
0.00292945
-0.0215835
-0.0258317
-0.104033
-0.0183601
0.122392
0.0428415
-0.163303
0.12046
0.0907535
0.0162968
-0.280859
0.515508
-0.234654
-0.417425
0.0304975
0.386928
0.0161964
-0.0139935
-0.00220293
-0.256417
0.181838
0.22702
0.117989
-0.34501
0.00778559
-0.0927125
-0.113572
0.467213
-0.0158489
-0.0901341
0.103758
-0.0130048
-0.0794543
0.306474
-0.118734
0.273109
-0.00413306
-0.107977
0.11211
-0.17056
-0.0453472
0.126269
-0.126985
0.0363564
0.0038797
-0.0060284
-0.114472
0.1205
0.0794397
-0.0983641
0.00876486
-0.139568
0.130802
-0.259992
-0.106019
-0.0421821
0.016337
0.0258451
-0.174934
-0.021046
0.195979
0.140771
-0.190823
0.0500506
-0.0486401
0.063893
-0.015253
-0.00909891
-0.00135272
0.0104516
-0.0962601
0.0968934
0.0706335
-0.0329355
-0.037698
0.123674
-0.118247
-0.0602582
0.000836474
-0.00993538
0.276422
-0.114102
0.000232984
-0.00487262
0.00463963
-0.0830657
0.0421564
-0.329505
-0.0340101
0.363508
0.038801
-0.00244454
-0.0134461
0.0163885
0.0942556
-0.251296
-0.228663
0.479909
-0.0902757
0.0966093
-0.0030882
-0.015564
0.0186522
0.0908026
0.137133
-0.28695
0.149813
-0.206481
0.0299536
-0.168048
-0.0516314
0.0351136
-0.22155
0.46531
-0.445818
-0.0195468
0.0587659
0.0391852
-0.0337886
-0.17146
0.178829
-0.00736889
0.0364231
0.0152612
-0.277906
0.163636
0.114269
-0.0930026
0.104738
-0.011735
-0.0712758
-0.0096898
-0.29852
-0.402705
0.109444
-0.170742
0.0612976
-0.519752
0.245083
0.274658
0.178667
0.0332428
-0.187651
0.0512917
0.136359
-0.10234
-0.163861
-0.0761682
0.101681
-0.0255128
0.00754922
0.0396979
-0.172608
0.373044
-0.200463
-0.0144625
0.0186434
-0.00418094
-0.00672043
0.00529293
0.00142749
0.133518
-0.0451756
-0.088343
0.0528128
0.0625796
-0.0139359
-0.0520501
0.0201936
-0.132546
0.126517
0.120322
0.031181
-0.151504
-0.00699105
-0.00774252
-0.177392
0.00593056
-0.0110194
0.108096
-0.0970763
-0.268527
0.110247
0.158277
-0.0109088
0.00748399
0.00342481
0.068369
-0.127943
0.0595741
0.0814142
-0.0288837
0.0717663
0.0180811
-0.0898474
0.00915939
-7.48138e-05
-0.0679483
0.154721
-0.267497
0.112774
-0.100871
-0.012586
0.113457
-0.0887859
0.0780189
0.010767
0.0367796
0.0841644
-0.0643301
-0.220111
0.0511079
0.169002
0.0462231
-0.0360759
-0.191696
-0.00680291
0.198498
0.157666
0.119818
-0.277491
-0.186235
0.408629
0.381672
0.10517
-0.486869
-0.00698571
0.00549138
0.00149433
0.0403878
0.00583534
0.232594
-0.250028
-0.0681198
0.079157
-0.0110371
0.142485
-0.108274
-0.0342115
0.0369517
-0.0291592
-0.00225792
0.000192229
-0.00652838
0.0649236
0.0584714
0.0166584
-0.0751299
0.0254665
-0.192529
0.167058
0.00907752
-0.0126597
0.116709
-0.0204265
-0.0889152
0.238833
-0.149921
-0.123423
0.0495513
0.000229226
0.00274087
-0.00647895
-0.1506
-0.0935678
-0.160854
0.00688852
0.153965
0.235949
-0.0893118
-0.14664
-0.443265
0.014925
0.428289
-0.00411298
0.00519169
-0.00107871
-0.0825042
0.101562
-0.0190575
0.00115969
-0.00241597
0.0032955
0.147899
-0.243052
0.0951522
0.251064
0.283838
-0.0191282
-0.103438
0.122566
-0.0703544
-0.359953
-0.325944
0.133685
-0.028936
-0.158716
-0.148046
0.202672
-0.0546275
0.0336502
0.128165
-0.0597959
-0.0439443
0.105092
-0.0611477
-0.00963603
0.012638
-0.00300194
0.0977556
0.00336058
-0.326531
-0.120609
-0.0117157
-0.108358
0.000215435
-0.0865614
0.086346
0.0161712
-0.0136072
-0.00256403
-0.124929
0.113909
0.0771723
-0.0722311
-0.0049412
0.0288803
-0.127147
0.098267
-0.00334197
0.235934
-0.0767835
0.00866365
-0.0407157
0.0416881
-0.000972396
0.0315918
0.177946
0.0662341
-0.264703
0.198458
0.0657249
-0.0303157
-0.0354092
0.00432824
0.0631898
0.424402
-0.0427524
0.0011048
8.49271e-05
-0.00122207
0.00122207
-0.0868373
-0.0019486
0.202327
0.196755
0.0067233
-0.00661617
-0.000107133
-0.0116252
0.00908697
0.00253826
-0.022203
0.141618
0.0304242
-0.447457
0.27213
-0.045874
0.0424179
0.00345605
0.317715
0.158475
-0.09961
0.0688614
0.0307486
0.00395798
-0.003725
0.0644954
0.0174733
-0.0819687
0.00212256
0.00703683
0.0235371
0.0869718
-0.110509
0.00210993
-0.00215943
4.94983e-05
-0.117154
0.0317684
-0.233172
0.199636
0.033534
0.0477557
-0.20861
0.00915179
-0.00964087
0.000489078
0.0418969
-0.0120028
-0.0298941
-0.000670479
-0.0242333
0.00362376
0.13957
-0.0416776
-0.0579325
0.152614
-0.433474
-0.11907
0.0394346
-0.0217685
0.105636
-0.0838677
-0.0916114
0.000765652
0.0902004
-0.419712
-0.120085
0.150543
-0.0304592
-0.0671744
0.0781978
0.00291191
-0.0173744
0.00951199
-0.000360201
0.00855647
-0.0111283
0.00257179
-0.076985
0.118325
0.0607602
0.0888541
0.0960956
-0.0127491
0.123427
0.133155
0.161039
0.135158
-0.296206
0.230323
0.0894566
-0.319783
-0.00676732
-0.133221
0.139987
-0.0820158
-0.343738
0.0673846
0.276352
-0.112513
0.090744
-0.167292
-0.159179
0.326459
-0.44824
-0.176149
-0.196174
0.401924
-0.205768
0.0103524
-0.00822685
-0.00212554
-0.0660177
0.209975
-0.411957
-0.0688519
0.480804
0.100971
-0.120099
0.00582728
0.115643
-0.121471
-0.308279
0.135652
-0.00523073
0.00133112
0.224156
0.0447618
0.159684
0.1159
-0.27559
0.00678234
-0.105753
0.098971
-0.00223291
-0.0858114
0.0880443
0.150342
-0.22886
0.14881
0.0800493
0.00971223
0.0674601
0.0674503
0.17127
-0.107025
-0.0642456
-0.0395434
-0.00117222
0.106849
0.0644208
-0.0279305
0.0394542
0.0212903
0.0191767
-0.00844005
-0.0148664
0.0233065
-0.00482789
0.000714907
-0.217447
2.22257e-05
0.012989
-0.0849671
0.0106253
0.0743418
-0.204153
-0.174201
0.378324
-0.000476711
0.00022734
0.000249372
-0.152518
-0.180588
0.333101
-0.198168
0.403343
-0.205193
-0.102238
-0.0313889
0.133626
-0.465678
0.185224
-0.085902
0.109145
-0.0232433
0.0139986
0.0021726
0.210586
-0.0101288
0.00168876
-0.177056
0.202518
-0.0293332
0.141356
0.00930723
0.0325896
-0.225009
0.397262
-0.172279
-0.00307055
-0.0023403
0.00541084
-0.133121
0.161179
-0.0280593
-0.113463
0.265862
-0.152402
0.328792
-0.189917
-0.138879
-0.00563522
0.235955
-0.0784788
0.0456351
0.0328437
0.0241592
-0.0532366
0.00570718
-0.00779525
0.00208807
0.110084
-0.0123285
0.00783302
-0.00243252
0.121953
-0.100806
-0.0211471
-0.144259
0.069391
-0.0837536
0.0143626
0.0100126
-0.00145612
-0.0107181
0.0691896
0.0309532
0.0446129
0.025191
0.0668784
-0.0898937
0.116505
-0.0266111
-0.108893
0.161389
-0.0524971
-0.0630125
-0.0154663
0.0622593
0.112455
-0.174715
0.0819918
-0.0230723
0.346857
0.122316
-0.4692
0.00517741
0.00154589
-0.0455068
0.170785
0.0805552
-0.0496021
0.114304
-0.118437
-0.0516553
0.204372
-0.152718
0.0658183
-0.0514629
0.17992
0.147298
-0.32723
0.01435
-0.0889051
-0.167941
0.0348198
0.20279
0.125103
-0.0998792
0.107999
-0.103139
-0.00486098
-0.0302256
0.0758607
-0.0115684
0.0458034
-0.0579681
0.0121646
0.000259091
0.00407868
-0.00433777
-0.2687
-0.232472
0.00135545
-0.00025065
-0.0870246
-0.201928
0.288951
0.0822755
-0.0750245
-0.00725105
-0.081005
0.104542
0.012133
0.171998
0.248455
-0.32791
-0.0698992
-0.10971
0.164117
-0.236432
-0.266483
0.153016
0.144628
-0.0314097
-0.113219
0.0688173
0.0134582
0.0683581
0.0367339
0.0419551
0.0237698
0.00466685
0.0928796
-0.0975465
0.432277
-0.237262
-0.195024
0.114473
-0.0214683
-0.0930044
0.00360824
0.0402479
0.306422
-0.141524
-0.164908
0.083327
0.0223091
0.0859712
0.077253
-0.163225
-0.0133676
0.0152061
-0.00183851
0.0878898
-0.189241
0.101351
-0.000876088
0.000331244
0.000544844
-0.117895
0.464724
0.0673541
-0.0424249
0.0957057
-0.507665
-0.0536252
-0.0553799
0.109005
-0.218926
0.130009
-0.150725
0.143957
0.019704
-0.138515
0.118811
0.148009
0.279459
-0.119782
0.428896
-0.271309
-0.157614
0.00636431
-0.0464702
0.00539448
-0.00539448
0.151966
-0.109486
-0.0424806
-0.00761885
0.00454831
-0.217277
0.213934
-0.0281723
0.129743
0.182983
-0.0277787
-0.0862761
0.0402269
0.0460493
0.00195305
0.00209678
0.12446
0.0275055
0.235858
0.130915
-0.36679
0.0582564
0.0231578
0.13912
0.0492816
-0.26656
-0.0305415
-0.128419
0.15896
0.00647782
-0.00718603
-0.0291222
-0.00156923
0.0306915
-0.069843
0.0704847
-0.000641645
-0.0262343
-0.0504606
-0.0287955
0.0529547
-0.176591
0.0572666
0.295309
-0.212988
-0.0823252
0.0553292
0.0266625
0.203739
0.0126022
0.0666731
-0.0792752
0.0333785
0.126554
-0.159933
-0.424025
0.295278
0.128747
0.00318464
0.0161231
-0.0193077
0.0188643
-0.0136237
-0.00524057
-0.221191
0.007655
-0.00194782
0.131797
-0.123033
-0.0988048
0.110544
-0.0117396
-0.0218333
0.0827159
0.0443992
0.0144602
0.0530911
0.0259681
-0.0790592
0.530046
-0.325946
-0.204137
-0.453125
0.0529837
0.400081
-0.0103524
-0.00232824
0.0126806
-0.127219
0.266332
-0.139359
-0.138576
0.1537
0.229136
-0.0927908
-0.136347
0.0381563
-0.046111
0.00795468
-0.00819702
-0.0755295
0.0837265
0.0185149
-0.000677287
0.00316585
-0.00248857
0.0323923
-0.12903
0.079152
-0.0504846
0.165313
-0.0793426
0.378013
-0.0885732
-0.289458
0.170555
0.271231
-0.441829
-0.29877
-0.0924148
0.391162
0.00667832
-0.00695028
7.69746e-05
-0.0844897
0.0714555
0.0130342
0.345227
-0.0967723
0.361314
-0.125475
-0.112842
-0.130569
-0.14771
0.278274
0.0263715
-0.128609
-0.129775
-0.0256054
-0.0161224
0.0057562
0.0155171
-0.0212733
-0.0331389
-0.0793737
-0.0448859
0.0753537
-0.0304678
-0.0768842
-0.00760553
-0.13999
0.277118
-0.0795156
0.016503
0.231958
0.0633477
-0.00418577
-0.0270519
-0.0579152
0.000769456
-0.00190443
0.00113498
-0.0114714
0.0592008
-0.0477294
0.0434934
-0.191542
0.120404
0.0242241
-0.0731627
0.0276556
0.0455071
0.00237576
-0.000186777
-0.00218898
-0.00100088
-0.0997288
0.0618746
0.0378542
0.083801
-0.0835856
-0.00647732
0.00731379
0.343929
-0.457525
0.089142
0.00695362
-0.037547
-0.00378909
0.100837
0.00201719
0.449073
-0.257861
0.125815
0.0023492
-0.00210527
0.00297304
-0.000867769
-0.0181782
-0.024004
-0.0612717
0.0944223
-0.0331507
0.312083
-0.140342
-0.171743
0.0222206
0.13689
-0.159112
0.122139
-0.106314
-0.0158251
-0.0118231
0.0117023
0.148232
-0.19989
-0.054231
-0.0279874
0.0822185
-0.140461
0.305487
-0.165033
0.0226244
0.0550082
-0.0847678
0.0297596
0.162395
-0.303929
-0.345774
0.20508
0.140689
-0.0760993
0.152198
-0.165916
0.0230637
-0.167756
0.398738
-0.231001
-0.123732
0.18599
-0.180441
0.0528889
-0.00708549
-0.0850853
0.0906863
-0.005601
-0.00629874
0.00666558
0.328691
-0.0118062
-0.0694772
0.0812833
0.317112
-0.16375
-0.153363
-0.0168174
0.000155413
-0.0787002
-0.103571
-0.0021524
0.105724
-0.304591
0.164124
-0.168163
-0.0839111
-0.0214337
-0.0564045
0.105331
-0.0295916
-0.0757392
-0.109734
0.140915
0.00456952
-0.000523248
-0.00404627
0.0859444
0.0148925
-0.171799
-0.0842955
0.232193
-0.0399333
0.000165355
-0.00301641
-0.0939569
0.00274523
0.0912116
-0.436728
0.247736
0.188971
-0.0837772
0.0269773
0.0567999
0.243678
0.193646
-0.437332
0.108322
-0.137656
0.342092
-0.264598
-0.0775049
0.0571173
-0.0821616
0.0250443
0.00281159
0.197863
-0.397375
0.199497
0.122998
0.153726
0.0677702
-0.0797829
0.0120127
0.221435
-0.066717
-0.0067257
-0.0311787
0.0379044
0.0110232
0.000127007
-0.0111502
-0.0921895
0.107383
-0.0151932
-0.118733
-0.357652
0.057682
0.299969
0.0946074
0.247474
0.248818
-0.366739
0.00825393
0.0637175
0.0198607
0.0592931
0.209878
-0.171916
-0.0379637
-0.00189794
0.00142123
-0.396305
0.136181
-0.176987
-0.136537
0.0163603
-0.0262438
0.135071
0.160721
-0.295799
-0.0143742
0.0109967
-0.22461
0.40246
-0.177877
0.000920525
-0.108146
0.107225
0.139181
-0.143829
0.294271
-0.150444
-0.289376
0.255413
0.0339578
-0.182208
0.425875
0.00119246
0.00792882
-0.204187
0.0397695
-0.195485
-0.22854
-0.00956027
0.0499572
-0.0403969
0.126077
-0.000261357
0.471258
-0.253676
-0.217595
0.111184
-0.104401
0.00847663
0.128944
-0.100834
0.345908
0.026275
0.210238
-0.11084
0.00726841
-0.0001867
0.000517943
0.0771823
0.00977925
-0.0869616
0.14739
0.136924
-0.284316
0.0602222
0.0189347
-0.0243848
-0.0785704
0.102955
0.115817
-0.0227636
-0.0930532
-0.137134
-0.0287825
-0.0224136
0.112162
-0.0897487
0.0629724
-0.201455
0.104912
0.0965422
-0.121927
0.0211208
-0.202706
0.292159
0.140544
0.180508
-0.32106
-0.159701
0.336702
-0.177008
-0.0130932
-0.0995906
0.112684
0.078829
0.0580553
0.119319
-0.011224
0.120814
0.149792
-0.270611
0.129355
-0.159897
0.0268147
-0.00242689
-0.00824718
0.0106741
0.0442561
-0.0874905
0.271586
0.360073
-0.0896834
-0.2704
-0.116406
0.111753
-0.0462116
-0.0655412
-0.146034
0.012249
-0.00044814
-0.0118009
0.317362
-0.179211
-0.138155
-0.123508
0.274625
0.0854384
0.0327899
0.0231245
-0.0559144
-0.00207375
-8.19872e-05
0.00215573
0.176632
-0.477415
0.0227036
0.149969
-0.172673
0.191137
0.212191
0.022237
-0.103242
0.462459
-0.25231
-0.210169
-0.187785
-0.0769658
0.264749
-0.066401
0.0653113
0.0010897
-0.365351
0.461051
0.160272
-0.308019
0.14774
-0.409204
0.220617
0.188583
-0.10592
0.0514787
0.054441
0.435768
-0.28098
-0.154809
0.285279
-0.13692
-0.148363
0.00240605
0.0276816
-0.0300877
0.0163629
-0.068142
0.0517791
0.0403391
-0.0244332
-0.0752956
0.00421083
-0.00292588
-0.00128495
0.113921
-0.082025
-0.0318956
0.179475
0.137883
-0.355657
0.099236
0.000347787
0.00504669
0.0357484
-0.223534
0.0348851
0.0851046
-0.0176065
0.104578
0.126858
-0.100487
-0.123954
-0.0295265
0.153481
-0.0841961
-0.127178
0.211372
-0.136885
0.0186543
0.17809
-0.205918
0.0278275
0.239369
-0.439487
0.200096
0.0822494
-0.0272412
0.0158402
-0.00354417
-0.0122961
0.128763
-0.0232711
-0.105492
0.156267
-0.455062
-0.0447712
0.0380455
0.0309742
0.00651284
0.00373631
0.00640313
-0.00171099
-0.014931
-0.0838738
0.262865
-0.460275
0.197402
-0.38653
0.135191
-0.0054987
0.418929
-0.41349
0.0222831
-0.454863
0.342318
0.112539
-0.243488
-0.0458925
0.00398723
0.00334263
-0.00732986
0.0323948
-0.10634
0.0932466
-0.197652
-0.158011
0.0968324
-0.0921656
-0.0777189
0.000834735
-0.227147
-0.218097
0.0873344
0.0724499
-0.102106
-0.0493805
0.0590594
-0.0388945
-0.0201648
-0.10133
0.0837465
0.1522
-0.157297
-0.0373199
0.105162
-0.136551
0.425172
-0.211468
-0.213722
-0.00233842
0.0916529
-0.0893145
-0.172614
-0.046161
-0.03294
0.0600778
0.0216134
-0.0798257
-0.0201423
0.099968
-0.288213
0.146772
-0.0264609
0.126466
0.00377122
-0.00115326
-0.00261796
-0.0255486
0.0192619
0.0673172
0.0166749
-0.0839921
-0.0987337
0.00477672
0.00120927
0.0110398
-0.192007
0.120156
-0.322866
-0.0345622
-0.165152
0.199712
-0.00430338
-0.0522948
-0.305358
-0.125269
0.117121
0.0559879
0.0864974
0.108882
-0.00149963
-0.452051
0.174561
0.277475
-0.47575
0.203983
0.271754
-0.144403
0.234204
0.110695
-0.476049
-0.00978608
-0.0752992
-0.0170737
-0.00715964
-0.0803252
0.0699205
0.0104047
-0.285358
0.198332
-0.00945425
0.0110777
-0.00162345
0.0966113
0.0255273
0.27346
-0.45957
0.186098
-0.0755674
-0.0662208
0.448233
0.0179098
-0.466203
-0.017584
-0.0874158
0.105
0.0467428
-0.202304
0.15556
0.160537
0.151545
-0.00371567
-0.00019832
0.00391399
-0.00715389
0.00148082
-0.0010768
-0.000404023
0.158638
-0.219428
0.0607872
-0.00381039
-0.00579626
-0.117371
0.00304057
-0.00358495
0.000544378
-0.000170652
-0.00354502
-0.458687
-0.114997
0.0925835
0.0684159
-0.0766129
-0.197378
-0.191385
-0.21856
0.409924
0.00779149
-0.00489218
-0.00289931
0.13396
-0.218158
0.323962
-0.127558
-0.196409
0.0273675
0.057332
-0.0846996
-0.02972
0.345231
-0.0964348
0.130086
0.0285153
-0.158602
0.45008
-0.13894
0.164473
-0.0255336
0.047006
0.0583247
-0.27052
-0.189062
-0.00195315
-0.000970212
0.00292336
-0.138428
-0.262115
-0.213648
-0.0860273
0.0168888
0.0691385
-0.0863612
0.100576
-0.0142145
0.0551543
-0.10878
0.376479
0.0837023
-0.0234801
0.161401
0.100032
0.00243475
-0.288758
0.148415
-0.120592
0.313378
-0.192795
0.0508232
-0.00237235
-0.0484509
0.189511
0.216205
-0.405747
0.00169748
0.209129
-0.076924
0.105804
0.0315475
-0.0430189
0.0184482
-0.0215364
-0.136065
-0.132464
0.140857
0.084132
-0.197114
-0.148665
0.174929
0.0011555
-0.176084
-0.158782
0.0498888
-0.0788032
-0.035675
0.114478
-0.235392
-0.186118
0.421475
-0.00229678
0.162839
-0.310405
0.147559
0.296553
-0.171676
-0.124882
-0.0802486
-0.0256711
-0.0279845
0.0752472
-0.0472627
0.0407686
0.0879947
-0.349093
0.47138
0.0100658
-0.00227427
-0.0983862
0.108185
-0.00979886
0.158406
0.123997
-0.0998912
-0.0241056
0.141721
-0.28906
0.157383
-0.00113894
0.0409739
-0.039835
-0.113648
-0.26018
0.139581
-0.130383
0.267151
-0.136773
-0.00338288
0.0033009
-0.154824
-0.118375
0.273193
0.319344
-0.201216
-0.118134
0.00100834
-0.171894
0.0329533
0.00049861
0.00117483
-0.00167344
-0.139278
0.0637106
-0.342161
-0.101142
-0.217548
0.408668
-0.00672597
0.171599
-0.144612
-0.0269877
0.154698
0.162414
-0.036665
-0.00920894
0.00201861
-0.0025316
0.000512995
0.324152
0.111598
-0.00126748
-0.00341064
0.00467812
-0.0858109
0.00598518
0.2093
0.0550531
-0.264357
-0.253796
0.144458
0.109338
-0.0487731
-0.0342926
-0.0383075
0.327761
-0.289458
0.0586227
0.0187606
-0.0773833
0.110608
0.019321
-0.368435
0.081233
-0.0668831
-0.00531501
0.00354392
0.00177109
-0.0152903
0.264111
-0.102144
-0.16197
0.00437345
-0.00413624
-0.000237212
-0.118152
-0.0187325
0.0197423