/*--------------------------------*- C++ -*----------------------------------*\
| =========                 |                                                 |
| \\      /  F ield         | OpenFOAM: The Open Source CFD Toolbox           |
|  \\    /   O peration     | Version:  v2012                                 |
|   \\  /    A nd           | Website:  www.openfoam.com                      |
|    \\/     M anipulation  |                                                 |
\*---------------------------------------------------------------------------*/
FoamFile
{
    version     2.0;
    format      ascii;
    class       volVectorField;
    location    "650";
    object      U;
}
// * * * * * * * * * * * * * * * * * * * * * * * * * * * * * * * * * * * * * //

dimensions      [0 1 -1 0 0 0 0];


internalField   nonuniform List<vector> 
18355
(
(1.09692 0.0821337 0)
(0.0934506 -0.0236367 3.06465e-20)
(1.00391 0.0221188 8.92073e-23)
(1.01497 0.00502091 2.03754e-21)
(1.04388 -0.00403239 0)
(1.14051 -0.0730935 -7.51163e-21)
(1.00383 0.00706198 0)
(1.15704 0.0253114 -8.3321e-20)
(0.939484 -0.00731066 -3.26983e-21)
(-0.0174047 -0.0133844 0)
(1.02213 0.000566212 -5.1326e-21)
(-0.214979 -0.00345293 -1.08595e-19)
(1.19544 0.022593 7.31001e-20)
(0.987415 0.0056673 1.98405e-21)
(1.02555 0.0345096 4.32671e-21)
(0.987681 0.0697263 7.96055e-21)
(-0.255705 0.0148221 2.01548e-20)
(1.01537 0.0101163 -5.4217e-21)
(1.005 0.0354575 1.45571e-21)
(0.688284 -0.165454 7.56332e-20)
(0.968493 0.0869191 1.79324e-20)
(0.975266 0.0338231 -9.55207e-21)
(0.100733 -0.0132796 6.68862e-20)
(1.04318 -0.00441893 -1.66782e-21)
(1.05204 -0.018982 -2.79058e-21)
(0.999329 0.00364155 -2.50072e-21)
(0.99625 -0.000610478 -9.41327e-21)
(0.943271 0.00552235 -5.71282e-20)
(0.0383918 0.157664 2.26307e-20)
(0.993778 0.0245417 -1.04603e-20)
(1.03657 -0.00506732 2.14992e-22)
(1.05002 -0.00805166 -8.42563e-21)
(1.01516 0.00968848 -2.2016e-21)
(1.00988 0.000549133 -9.86537e-22)
(1.13351 0.129311 -6.92072e-21)
(1.10085 0.0821776 0)
(0.955697 -0.00367937 1.67952e-20)
(1.18005 0.26129 6.9624e-20)
(0.944982 0.00671732 3.55558e-20)
(1.02269 0.00111488 -2.73146e-21)
(0.986804 0.00554244 -2.61451e-21)
(0.94563 0.318018 0)
(1.00384 0.0227517 0)
(-0.0957424 -0.00438786 1.11284e-19)
(1.01496 -1.43304e-05 -2.36844e-21)
(1.19014 0.260376 -1.15109e-19)
(1.14481 0.0758168 6.45075e-20)
(0.935594 0.0252207 3.98754e-20)
(1.13264 0.0767795 0)
(1.01487 0.0111201 0)
(1.01964 0.00276924 0)
(1.01668 0.0217292 2.18398e-21)
(0.999993 0.000630365 0)
(0.274624 -0.0656982 -5.48148e-20)
(1.00044 0.00554556 0)
(1.0018 0.00028307 -1.04358e-22)
(1.06478 -0.138979 0)
(1.02538 0.0354006 -3.10631e-21)
(0.116402 0.461384 0)
(1.21381 0.135012 1.01565e-19)
(1.01446 0.0111967 1.16262e-21)
(1.14695 -0.0306108 0)
(1.01637 0.00940645 -1.7096e-21)
(1.01734 0.193005 1.78071e-21)
(-0.198962 -0.0059023 1.54e-19)
(1.09475 0.078565 1.90486e-20)
(0.0587194 0.175064 0)
(0.857569 0.0539548 6.24126e-20)
(0.996534 -0.000551072 -7.75586e-21)
(0.976881 0.0340431 0)
(1.15711 0.101313 -3.77047e-20)
(1.00008 0.000492596 1.69914e-22)
(1.21908 0.138563 -4.02846e-20)
(1.01145 0.0111936 -6.291e-22)
(1.1566 0.0289726 0)
(1.004 0.00732188 3.98998e-22)
(0.662095 -0.106267 0)
(1.05091 -0.00554818 1.28564e-20)
(1.06114 -0.0252792 1.01324e-20)
(1.01608 0.0190135 -1.49487e-21)
(1.00354 0.00688172 1.24755e-21)
(1.24591 0.345865 -6.30535e-20)
(0.970446 0.0846207 -1.5101e-20)
(1.06462 0.18107 3.43879e-20)
(0.999206 0.00372442 0)
(1.19218 0.0233033 0)
(0.321564 -0.0176944 6.47778e-20)
(0.702117 -0.171156 2.29586e-20)
(0.0242745 0.173088 -1.17819e-20)
(0.237558 -0.0449486 4.20094e-20)
(1.24376 -0.0860727 8.86023e-20)
(1.01512 -4.53775e-05 1.81528e-21)
(0.999976 0.00500767 0)
(1.01885 0.000502445 -1.80737e-21)
(-0.0059946 0.171855 0)
(0.0681826 -0.0110649 4.60921e-20)
(1.02533 0.015708 -4.6674e-21)
(1.07194 -0.00137236 0)
(0.232808 -0.0604631 -5.57884e-20)
(-0.193624 0.0180688 1.25209e-19)
(-0.00179782 0.254988 0)
(-0.215743 0.0148129 -8.23892e-20)
(1.09732 0.137304 0)
(1.11443 -0.0951784 -6.52269e-20)
(1.04331 -0.00869092 -1.88559e-20)
(1.18601 -0.0421503 0)
(-0.269715 0.000321106 0)
(1.1277 0.300937 6.03076e-20)
(1.1033 0.0252717 2.67019e-20)
(0.484206 -0.307177 2.5954e-20)
(0.998223 0.0238405 8.52383e-21)
(0.951386 0.0174012 -2.71469e-20)
(0.999067 0.00306411 -1.4411e-21)
(0.949137 0.016729 1.91613e-20)
(0.282815 -0.070949 0)
(1.00287 0.000801694 2.90411e-22)
(0.0687222 -0.298539 -9.18958e-20)
(0.659237 -0.110393 4.78067e-20)
(0.075525 0.352836 2.08268e-19)
(1.09318 0.141915 -1.24216e-20)
(-0.00965985 -0.015421 2.07328e-20)
(1.33886 0.107533 -4.86372e-20)
(1.05008 -0.00606013 -1.83878e-20)
(1.15677 0.104552 4.16787e-20)
(1.02467 0.0158071 0)
(1.12881 0.312099 3.53494e-20)
(1.01705 0.021138 -1.0297e-23)
(1.00002 0.00112894 9.02822e-21)
(1.3833 0.232281 6.22885e-20)
(1.01861 0.00058545 -1.66786e-21)
(1.01963 0.00302575 2.33852e-21)
(1.12825 -0.0313579 -1.16797e-19)
(1.13222 -0.00755786 1.20661e-20)
(1.07057 -0.00216991 0)
(0.915184 0.188318 -2.0902e-20)
(1.00002 0.00127918 -9.14561e-21)
(1.02217 0.0274585 0)
(1.02218 0.000311396 3.12206e-21)
(0.991942 0.0147991 3.05012e-21)
(1.15847 0.169518 0)
(-0.00414332 0.245208 0)
(-0.0359515 0.19009 -6.69554e-20)
(0.998738 0.046947 -7.31096e-22)
(0.997788 0.0231072 -1.20654e-20)
(0.37956 0.0319763 -7.77112e-20)
(0.975312 0.0303979 -1.59345e-20)
(0.910161 0.00299006 0)
(0.306199 0.00883523 -4.10817e-20)
(1.06153 0.00998848 0)
(0.285852 0.0215835 4.94595e-20)
(1.04363 0.00159828 6.24585e-21)
(0.974688 0.0315008 2.13395e-20)
(1.12869 0.127494 0)
(0.109577 0.414074 1.15041e-19)
(1.10275 -0.0977769 4.27756e-20)
(1.00004 0.000534323 -1.14276e-21)
(1.14938 -0.0332165 4.17048e-20)
(0.0841006 0.320686 -1.90511e-19)
(1.00005 0.000543685 1.45192e-21)
(1.15443 -0.0289763 5.6528e-20)
(1.01198 0.10307 9.21988e-22)
(1.0504 0.0620391 0)
(0.908477 0.0934468 0)
(1.07146 -0.00439073 -2.12254e-20)
(1.12234 -0.179412 -1.47372e-21)
(0.506496 0.679521 0)
(0.210779 0.0509961 0)
(1.12297 0.0879214 0)
(1.23452 0.021136 0)
(1.01359 0.010968 0)
(-0.0745757 0.0180831 0)
(0.0315063 -0.00796316 7.53406e-20)
(1.02107 0.00119478 0)
(1.02186 0.00117326 0)
(0.990404 0.0690232 0)
(0.148727 -0.0160367 0)
(1.06655 -0.0810113 0)
(1.00033 0.00513775 -3.4713e-21)
(1.36607 0.228961 0)
(0.445936 0.211525 0)
(0.666005 -0.113371 0)
(1.23426 0.0185199 0)
(1.08453 0.00686784 0)
(1.00533 0.00672088 -5.84021e-22)
(1.16245 -0.169384 -3.33226e-20)
(0.181239 -0.0201012 8.25855e-20)
(0.202684 -0.0307983 0)
(1.22652 -0.0693471 -1.0818e-19)
(0.938653 0.00541453 2.24727e-20)
(-0.274752 0.0128612 0)
(1.06162 -0.135861 0)
(1.00433 0.0241077 5.11667e-22)
(1.07028 -0.00514151 3.04113e-20)
(1.06124 -0.111092 -3.66043e-20)
(0.894379 0.210158 0)
(0.977349 0.0368425 -7.29878e-21)
(1.26489 0.0163937 -1.13852e-19)
(1.08314 0.00563441 0)
(1.1124 -0.0101923 -1.45252e-20)
(1.02159 0.00136778 0)
(1.05364 0.0165487 5.61508e-21)
(0.942452 0.044943 0)
(0.145776 0.0707436 0)
(0.164028 -0.0263005 -3.35882e-20)
(-0.26503 0.00295246 -1.27085e-19)
(0.997386 0.114473 1.99307e-22)
(0.0850907 -0.266221 1.07081e-19)
(-0.0570489 -0.00904847 8.91711e-20)
(-0.022504 -0.0199814 0)
(1.11027 -0.0120282 2.55255e-20)
(1.02158 0.028334 0)
(1.04289 0.00204284 0)
(0.659252 -0.159835 0)
(0.999045 0.0453294 -6.56178e-22)
(1.01315 0.0107448 -7.50918e-22)
(1.24507 0.334683 7.82762e-20)
(1.07535 -0.256923 4.89109e-20)
(0.646715 -0.153619 -2.7535e-20)
(0.999129 0.0029312 -6.85143e-21)
(1.06026 0.0104669 0)
(1.27456 0.230164 0)
(0.993496 0.0160386 -1.23822e-21)
(1.05885 0.178226 -3.5637e-20)
(1.02214 0.026781 -3.33219e-21)
(0.111899 0.0432176 0)
(0.985127 0.0354007 0)
(-0.103881 -0.00147828 5.96493e-20)
(0.23104 -0.0200323 -7.61842e-20)
(0.547943 0.00703359 0)
(1.02068 0.0283219 0)
(1 0.000790528 1.96569e-21)
(1.05991 -0.0241372 2.73008e-20)
(1.03181 0.0904393 -7.50769e-21)
(-0.0741129 -0.000118593 0)
(1.01565 0.0558016 0)
(0.999478 0.0040274 -4.89686e-21)
(1.00026 0.00497665 4.4833e-21)
(1.15987 0.309459 -4.47493e-20)
(1.26246 -0.13368 0)
(-0.193909 0.00773784 1.97154e-19)
(1.10059 0.0248556 0)
(1.23544 0.0285485 8.17857e-20)
(1.03684 -0.00620513 -1.27087e-20)
(1.0127 0.0113529 -6.85423e-22)
(0.982169 0.0358231 -2.98375e-22)
(0.204399 -0.0103924 8.33469e-20)
(1.31203 0.0889406 9.90423e-20)
(0.0665598 -0.101723 8.28476e-20)
(1.09876 -0.0967191 -4.52737e-20)
(1.01389 0.099827 1.63513e-21)
(1.05325 0.0175846 -5.51591e-21)
(0.211286 0.83062 3.11951e-21)
(1.08463 0.00312503 -3.01594e-20)
(0.00668148 -0.0202059 0)
(0.990305 0.0348899 0)
(-0.208669 0.0088389 -1.8028e-19)
(0.983907 -0.255664 -3.54546e-20)
(1.15599 -0.0254105 3.03097e-20)
(0.999285 0.0283559 0)
(1.00596 0.000411705 0)
(1.09082 0.0788443 -2.03362e-20)
(1.16636 0.0979969 -4.57654e-20)
(0.279984 0.111189 0)
(1.13539 -0.00746144 -1.26148e-20)
(1.00827 0.00649098 4.56007e-22)
(1.01264 0.00990788 2.69923e-21)
(0.999989 0.000909528 0)
(1.23843 0.0226289 5.21813e-20)
(1.08821 0.259808 1.80105e-20)
(0.587338 -0.0394643 6.40325e-20)
(0.983031 0.0526276 7.32447e-21)
(0.212567 0.0699359 -3.96753e-21)
(1.23098 -0.0694032 9.64109e-20)
(1.18364 -0.0391253 -2.03125e-20)
(1.03803 0.0285753 -3.15243e-22)
(1.2702 0.0178306 3.4599e-20)
(1.01666 0.0197437 6.29491e-22)
(0.995884 0.00972362 0)
(1.09291 0.833214 -1.2355e-19)
(1.00881 0.000655435 8.61028e-22)
(1.00401 0.0076275 -2.19702e-21)
(1.18761 -0.0328162 -2.3315e-20)
(1.00311 0.0164576 4.77942e-21)
(-0.0221098 0.196493 2.54021e-20)
(1.08349 0.00194077 2.91777e-20)
(0.92657 0.0158083 -1.58561e-20)
(1.00847 0.000647604 0)
(1.12195 0.0915916 0)
(-0.207552 -0.00456354 -5.65983e-20)
(1.05071 -0.00732946 1.08184e-20)
(1.01455 0.00481929 -2.24652e-21)
(0.98945 0.000254808 -3.94503e-21)
(1.18697 -0.0756909 -1.39777e-20)
(0.126892 -0.0401088 0)
(0.999988 0.000965612 0)
(1.00002 5.08552e-05 -3.48343e-22)
(1.04493 -0.25426 5.28073e-20)
(1.10736 0.137107 -2.23622e-20)
(1.09371 -0.101267 5.07232e-20)
(0.63793 0.401089 3.04896e-20)
(0.996104 0.00926191 7.34903e-21)
(1.16184 0.0968678 0)
(0.964101 0.0284283 4.13225e-25)
(1.00003 8.91175e-05 0)
(0.636855 0.370793 -5.81698e-20)
(1.12573 -0.183527 2.85505e-20)
(1.07636 -0.223074 0)
(1.18984 -0.0787872 3.02012e-20)
(1.01865 0.000907784 -3.65866e-21)
(0.647307 -0.111747 0)
(1.04163 -0.00890092 -5.24124e-21)
(1.00387 0.0349319 -2.84168e-21)
(1.34147 0.0976835 -8.95973e-20)
(1.00037 0.0215418 0)
(1.23906 0.0257919 4.98217e-20)
(0.931208 0.313984 0)
(1 0.00522031 0)
(1.01685 0.00332382 -3.46127e-21)
(1.23639 0.0319121 -1.05926e-19)
(0.132019 0.0255269 0)
(-0.018653 -0.0120576 -2.76145e-23)
(1.01815 0.0396471 0)
(0.912741 0.0896531 -5.21225e-21)
(-0.110501 -0.00262714 -5.30753e-20)
(1.02943 0.00157524 -5.40148e-21)
(1.26236 -0.128121 0)
(1.05615 -0.0258342 3.96636e-21)
(0.96199 0.144118 1.21053e-20)
(1.26244 -0.123088 -4.85341e-20)
(1.01835 0.000991429 1.68908e-21)
(0.504295 0.736374 0)
(1.00202 0.0330598 3.78947e-21)
(0.91148 0.199316 2.9697e-20)
(1.00112 0.000289788 1.0935e-21)
(1.09509 -0.0986578 -3.86945e-20)
(-0.211299 -0.00227166 -2.71058e-20)
(0.999944 0.00028546 0)
(0.16289 0.115312 0)
(1.11459 0.0258421 -1.97644e-20)
(0.995149 0.00230706 -1.01235e-20)
(1.14085 0.0774143 -4.53662e-20)
(1.14766 -0.0342811 0)
(1.05653 -0.082655 0)
(0.318097 -0.0777317 -1.30879e-21)
(1.12281 -0.110907 -3.33422e-20)
(0.990615 0.0340122 2.17772e-21)
(1.01616 0.00907666 -2.19387e-21)
(0.0628407 -0.008327 -3.15704e-20)
(0.699295 -0.0727576 8.42896e-20)
(0.999747 0.00475672 -2.3896e-21)
(1.01253 0.0520548 5.72861e-23)
(1.07634 -0.228961 5.22536e-20)
(1.15881 -0.171909 4.21022e-20)
(0.267379 0.731272 0)
(0.0943884 -0.0119341 1.45201e-20)
(0.997991 0.00358911 -1.00773e-20)
(1.05975 0.0198058 1.27332e-20)
(0.046432 -0.15582 -3.33608e-20)
(0.998926 0.0238882 -7.88856e-21)
(1.01515 0.05407 0)
(1.24086 -0.0519224 0)
(1.10914 -0.0169583 0)
(1.06138 -0.00131645 1.36629e-20)
(0.171126 0.0345993 -4.76866e-20)
(1.00001 0.000707168 -9.55003e-24)
(0.829739 0.167306 -3.55397e-20)
(1.27827 0.235303 -8.93028e-20)
(-0.202362 0.00277912 0)
(1.01443 0.00451062 0)
(0.985957 0.0223759 -2.72893e-21)
(0.993414 0.0123028 -7.05327e-21)
(1.02313 0.0170119 -3.45307e-21)
(0.834151 0.257219 0)
(1.0237 0.0168828 8.63411e-21)
(1.11271 0.0983819 -5.17744e-20)
(0.993752 0.0119337 0)
(1.03521 0.0711112 2.07314e-21)
(0.998016 0.00342677 7.17636e-21)
(0.941166 -0.00531662 0)
(1.03254 0.0102507 6.70469e-21)
(1.01 0.035789 4.98972e-23)
(1.03106 0.0114069 3.48581e-21)
(1.03106 0.0110108 0)
(0.997914 0.0657928 -2.38573e-21)
(0.563799 0.118019 -9.54471e-20)
(-0.0579415 0.117733 7.448e-21)
(1.02327 0.0265969 4.43544e-21)
(0.92547 -0.0900584 -8.02597e-20)
(0.948014 0.15653 3.77331e-21)
(-0.0637461 0.116509 3.25421e-21)
(1.09981 -0.00148652 4.32083e-20)
(1.1778 0.0573138 -2.10188e-20)
(0.980676 0.0365697 8.14044e-21)
(0.99591 -0.0745752 -3.61304e-20)
(0.957679 -0.00356534 -1.60929e-20)
(1.00271 0.00065964 3.35397e-22)
(0.999367 0.00412452 5.74841e-21)
(1.01688 0.00497392 -1.85311e-21)
(0.272469 -0.0685538 0)
(1.05979 0.0437224 0)
(1.01532 -5.31486e-05 1.37857e-23)
(1.13117 0.0215844 -6.84682e-20)
(1.10859 0.0977885 4.54533e-20)
(0.999218 0.024705 0)
(1.02934 0.001099 6.405e-21)
(-0.0396908 0.00227241 5.65824e-20)
(0.977764 0.035254 -8.03391e-21)
(1.0164 0.0202614 -1.48589e-21)
(0.13676 -0.657245 0)
(1.00352 0.015195 0)
(0.0551422 -0.0739352 3.07053e-22)
(-0.261697 0.0104369 5.39516e-20)
(1.23984 -0.0553381 -5.86918e-20)
(0.913719 0.00141889 2.00074e-20)
(1.04261 -0.00921967 5.79045e-21)
(-0.179205 -0.00699639 -5.57413e-20)
(1.00011 0.000608171 -1.60423e-22)
(0.998749 0.0163438 2.9067e-21)
(0.202737 0.665944 0)
(1.00003 0.000745193 9.77819e-22)
(1.02081 0.0014353 -1.48486e-21)
(-0.271234 0.0127196 9.4589e-20)
(1.01184 0.0110754 6.27381e-22)
(-0.197671 -0.00335182 -1.66393e-20)
(1.08866 -0.0514443 0)
(1.07451 -0.0876877 -3.14583e-20)
(-0.244273 0.0144582 0)
(0.963985 0.0243798 2.24752e-20)
(0.999069 0.0159367 -6.62061e-21)
(0.737501 -0.12626 1.04936e-19)
(1.13662 -0.0742415 0)
(-0.0747268 0.0147317 -1.96242e-20)
(1.11569 -0.0917114 7.25385e-20)
(0.993951 0.0107746 0)
(1.00504 0.00664725 3.34519e-22)
(0.97418 0.0285611 0)
(1.04693 -0.223184 -5.01127e-20)
(0.952891 0.20323 2.23117e-20)
(1.00504 0.0366773 1.33184e-21)
(1 0.000501119 -1.05095e-21)
(0.997592 0.0442103 0)
(0.822139 0.176197 4.56747e-20)
(0.0649306 -0.174747 -7.1805e-21)
(0.990572 0.105381 2.74626e-21)
(0.975031 0.0272039 0)
(1.00002 0.000719201 3.53266e-21)
(1.09847 0.000484224 -4.83111e-20)
(1.25084 -0.0954947 -5.0179e-20)
(0.145583 -0.0441726 -3.64911e-21)
(-0.204465 0.00835259 5.90415e-20)
(0.918825 -0.0454092 -5.24892e-21)
(0.771506 0.13893 -6.05828e-20)
(0.845111 0.184348 0)
(-0.0694842 -0.00734463 0)
(1.03925 0.00148491 -1.05484e-20)
(1.00851 0.0091489 -3.91024e-22)
(0.989677 -0.000279555 -4.3929e-21)
(1.02326 0.0256406 0)
(0.819129 0.243506 0)
(0.996308 0.00743513 -9.91272e-21)
(1.01527 -7.84038e-05 1.68291e-21)
(-0.211828 0.0149155 -2.07048e-19)
(0.810974 0.174606 0)
(1.13691 0.0745942 -2.33701e-20)
(0.278825 -0.0510737 0)
(0.759347 0.142003 0)
(0.155813 -0.0111465 -7.03139e-20)
(1.0122 0.026243 0)
(1.03174 0.010206 -5.80698e-21)
(0.994962 0.0221844 5.41008e-21)
(1.00341 0.00646926 -1.05532e-21)
(1.00001 0.000347227 0)
(1.00002 0.00058727 -4.04564e-21)
(0.995942 0.00871141 -6.31577e-21)
(-0.0388753 0.172095 -1.34455e-21)
(1.01941 0.0395093 0)
(1.01828 0.00202011 4.02431e-21)
(1.31736 0.104274 -4.55913e-20)
(1.21686 0.120817 -4.54759e-20)
(1.0082 0.00917204 0)
(1.05044 -0.00157582 1.80085e-20)
(0.92851 0.255072 1.38895e-20)
(1.03457 0.845294 7.74e-20)
(0.990678 0.0663423 7.17576e-22)
(1.02655 0.0145568 5.02135e-21)
(1.04544 -0.0853753 -1.07521e-19)
(0.945291 0.0435865 0)
(0.220127 0.0851719 0)
(1.05557 -0.0270549 4.38373e-21)
(1.02323 0.0179003 -6.99513e-23)
(-0.185056 0.00499359 -1.91033e-19)
(1.21885 0.117508 -4.66066e-20)
(1.0143 0.00822836 0)
(0.0415217 -0.0215134 -5.18636e-21)
(-0.0205874 0.22096 -7.98047e-20)
(-0.00423805 0.025646 1.09873e-19)
(1.0226 0.0180486 0)
(1.02613 0.0140555 -7.43134e-21)
(1.02931 0.0879458 8.16543e-21)
(1.17955 -0.0832635 0)
(0.964261 0.0170522 -1.36764e-20)
(0.240483 0.0637933 2.71648e-21)
(1.08749 -0.227256 0)
(0.978654 -0.0888941 7.35168e-20)
(1.32564 0.166022 9.21875e-20)
(1.0171 0.00476032 1.85652e-21)
(1.08607 -0.0516465 3.21705e-20)
(0.203169 -0.038758 -1.53923e-20)
(0.0652479 -0.0102271 5.94231e-20)
(0.496975 -0.117893 0)
(0.978229 0.0253347 3.34027e-21)
(0.983047 0.100211 -3.8059e-22)
(1.00734 0.102327 1.06314e-21)
(-0.03482 -0.00798315 0)
(-0.215244 0.0137836 0)
(1.25195 -0.0848036 -1.24036e-19)
(0.9865 0.0360597 -5.37226e-21)
(0.992468 0.0144339 -1.24153e-21)
(0.99818 0.00199591 -1.99831e-21)
(0.948424 0.2077 -2.02109e-20)
(0.996169 0.00829362 2.01154e-21)
(0.806251 -0.135999 -3.07466e-20)
(1.00575 0.105044 -2.75874e-22)
(0.322066 -0.0801739 1.05899e-20)
(0.985769 0.0150797 -4.73773e-21)
(0.997972 0.042881 0)
(1.00594 0.000562655 0)
(0.864038 0.05462 -4.35046e-20)
(1.02904 0.130323 -7.11474e-21)
(1.24687 -0.100338 0)
(1.00243 0.0144393 2.91823e-21)
(1.17333 -0.0585472 0)
(0.976151 0.857658 1.45201e-20)
(1.07348 -0.0266328 -2.88741e-20)
(1.00024 0.0283383 3.74844e-21)
(0.941214 0.0376882 0)
(1.06664 -0.0328927 -2.64844e-20)
(1.00003 0.000749705 -5.9006e-23)
(1.10407 0.0450956 -3.4866e-20)
(1.11141 -0.0151899 0)
(1.07371 -0.0250079 2.84246e-20)
(1.21475 0.159151 0)
(1.01315 0.0535046 0)
(1.01421 0.00780606 0)
(0.99033 -0.00038996 -3.82771e-21)
(0.999971 0.000231625 0)
(1.11701 0.0925838 3.38948e-20)
(1.06043 -0.00233922 -1.25753e-20)
(1.14989 -0.0281995 0)
(1.01192 0.0254161 9.79135e-23)
(1.0433 -0.00527327 0)
(-0.0097296 0.0308834 0)
(1.01804 0.00132994 9.61584e-22)
(0.849007 -0.0267422 0)
(0.95992 0.0179689 0)
(1.19276 0.222881 -1.43989e-21)
(0.9295 0.016363 4.66068e-20)
(0.253967 -0.0655011 0)
(1.04646 0.0243919 7.91761e-21)
(-0.130505 0.0056219 0)
(0.928152 0.058194 2.83618e-20)
(0.936117 0.0281112 -3.70107e-22)
(0.974341 -0.249759 0)
(-0.02688 0.0287258 1.28879e-20)
(1.06823 0.0733224 0)
(1.07132 -0.0277445 -2.49373e-20)
(1.05839 0.0422489 -1.31743e-20)
(1.02273 0.0189617 0)
(0.993603 0.0141614 0)
(1.12012 -0.120261 -3.97756e-20)
(1.13554 0.0877235 2.38262e-20)
(0.972798 0.145717 7.07606e-21)
(1.07389 0.267753 -1.60449e-20)
(-0.0340462 0.186483 6.81935e-20)
(1.10516 -0.186404 2.46284e-20)
(1.00488 0.00053196 3.70948e-22)
(0.0347554 -0.0140874 -4.85088e-20)
(1.05987 -0.0301182 -5.33202e-20)
(1.0505 -0.0035882 0)
(0.993112 0.0144149 0)
(0.847261 -0.020444 3.66362e-20)
(0.196118 -0.0409987 -3.54887e-20)
(1.08885 0.0822466 2.50465e-20)
(1.0001 0.00209322 5.59877e-21)
(0.701064 0.0357337 7.24842e-20)
(1.20849 0.159738 0)
(1.13449 0.136652 0)
(0.873403 0.0493585 4.54205e-20)
(0.62693 0.792483 -4.7509e-21)
(1.07244 0.000844366 0)
(1.18545 -0.0247829 0)
(0.0100935 -0.00723846 4.49994e-20)
(1.26404 -0.116422 -5.85158e-20)
(1.33852 0.103506 0)
(0.832763 0.213874 0)
(1.14904 0.306757 4.57335e-20)
(1.08317 0.0104031 -2.71018e-20)
(1.00169 0.000348415 2.18169e-22)
(1.0512 -0.00420711 0)
(0.994431 0.0237417 1.00458e-20)
(0.407502 0.0192038 0)
(0.472376 -0.248225 8.36754e-20)
(0.170785 -0.0235334 0)
(0.583837 0.115527 0)
(-0.157331 -0.00909797 1.04886e-19)
(-0.0165898 0.117937 -4.90127e-22)
(0.71358 0.0272474 -1.24567e-19)
(0.987079 0.0725794 -1.00632e-20)
(0.0999468 -0.0156046 6.69821e-20)
(0.730982 0.0485941 0)
(1.02258 0.000793004 -3.15241e-21)
(0.547388 0.083178 0)
(0.0338059 0.241598 7.65891e-20)
(1.09109 0.0043859 -2.28771e-20)
(0.994591 0.107276 -6.02731e-21)
(1.01619 0.00372754 -4.96284e-21)
(1.07144 0.00187905 4.54544e-21)
(1.06951 -0.00813741 1.87283e-20)
(1.06497 -0.0328522 1.73879e-20)
(1.18446 0.0145701 7.61786e-20)
(1.00077 0.0221294 -3.31266e-21)
(-0.110078 0.00456565 0)
(0.995652 0.0668937 -5.354e-21)
(0.969895 0.0784652 0)
(-0.0223081 -0.00930516 -1.86795e-22)
(1.00998 0.0242215 0)
(1.02691 0.13546 -6.34818e-21)
(0.554969 -0.132244 0)
(0.99884 0.0151544 1.62785e-21)
(1.04314 0.0424592 3.67018e-21)
(0.0180088 -0.0116605 2.33298e-21)
(1.00985 0.00287215 -2.16616e-21)
(1.17175 -0.0610889 0)
(1.01835 0.00126497 -4.12709e-21)
(-0.0249634 0.161737 0)
(1.07131 -0.0291982 2.65576e-20)
(1.09806 -0.0395263 -3.30992e-20)
(0.967254 0.148204 2.56036e-21)
(1.05447 0.0683337 -1.1581e-20)
(1.17856 -0.0795774 0)
(0.92047 -0.00115943 2.77044e-20)
(0.306637 0.0269176 0)
(1.10843 -0.0918327 -1.08129e-20)
(1.03669 -0.00239762 -4.46304e-21)
(-0.16832 0.00122753 5.84666e-20)
(1.09783 -0.041844 3.00467e-20)
(0.556862 0.801911 3.18906e-21)
(-0.286898 0.0075901 9.42233e-20)
(1.2965 0.106316 9.03797e-20)
(1.24113 -0.0908729 0)
(0.997912 0.0225032 6.38849e-21)
(1.01775 0.00566398 0)
(-0.020145 0.223946 7.16723e-20)
(0.939063 0.0393903 -1.3514e-20)
(1.10666 0.0440748 4.99393e-20)
(1.00006 0.0016032 -3.58858e-22)
(1.08466 0.00945542 2.03311e-20)
(0.958962 -0.041636 -1.09235e-20)
(0.508941 -0.049657 -2.53297e-20)
(1.11626 0.096206 -3.68607e-20)
(-0.16533 0.00158063 0)
(0.819522 0.230219 3.04452e-20)
(1.01553 0.068254 2.46235e-22)
(1.01643 0.0039683 1.77839e-21)
(1.00011 0.00191747 -2.34786e-21)
(1.13446 0.0218164 4.92252e-20)
(1.09124 0.253108 1.96911e-20)
(1.02721 0.00780667 -5.11443e-21)
(1.19048 0.0949567 -3.10413e-20)
(0.9982 0.118955 1.10897e-21)
(1.1036 0.139498 8.98698e-21)
(1.01417 7.82708e-05 0)
(0.00730969 -0.0204807 8.78811e-20)
(-0.0736399 0.0011657 -1.23228e-19)
(0.99295 0.0243124 -6.99131e-21)
(1.02236 0.00132023 0)
(1.13216 -0.0798584 -2.99844e-20)
(1.00006 0.00144626 -1.53423e-22)
(1.01475 0.00845074 0)
(-0.0246193 0.101239 -3.59453e-20)
(0.548536 0.0998747 1.54164e-19)
(0.968422 0.0261305 0)
(0.99406 0.0148366 -8.87288e-21)
(1.09785 -0.156044 0)
(1.13209 0.0806721 0)
(1.06064 -0.026861 0)
(0.710045 -0.0625506 -3.70458e-20)
(1.01051 0.0348665 6.61454e-22)
(0.218995 -0.0457302 0)
(1.13081 -0.0274563 -2.35351e-20)
(0.983686 0.0331382 -8.86359e-21)
(0.433569 0.161584 0)
(0.02215 -0.00774492 -4.31069e-20)
(1.00371 0.0080697 0)
(0.569175 -0.053296 -2.5119e-20)
(1.01523 0.00491882 4.00811e-23)
(0.999119 0.0148387 0)
(0.964218 0.0154501 -2.26038e-22)
(0.82683 0.000416472 6.19081e-20)
(-0.0583878 0.00689871 1.48621e-20)
(1.11259 0.0277167 3.02868e-20)
(0.0248052 -0.0109539 -5.026e-20)
(1.01729 0.139652 4.27673e-21)
(0.444425 -0.0870296 0)
(1.35644 0.168947 0)
(1.08397 0.0131154 -4.56937e-22)
(-0.170642 -0.00777049 -1.30233e-19)
(0.985667 0.0234727 1.42836e-20)
(0.567161 0.0235636 -4.14424e-22)
(1.05114 -0.00229125 -1.48255e-20)
(0.292329 -0.00508934 0)
(0.09952 -0.0235346 -3.36512e-20)
(0.997363 0.0399519 0)
(0.128652 0.573707 -5.5961e-20)
(1.02861 0.0824583 0)
(0.924584 0.0597758 -5.08636e-20)
(0.939555 0.0623354 -6.45514e-20)
(0.656942 0.0942192 -1.48511e-19)
(-0.1579 -0.00871032 1.09451e-19)
(1.00994 0.00976679 0)
(0.26524 -0.0661786 -2.44031e-20)
(0.988817 0.0134902 0)
(0.359909 0.000166789 -1.60509e-20)
(1.04143 0.00259901 0)
(1.00167 0.10626 0)
(1.06747 -0.0308875 0)
(1.0119 0.013392 1.19764e-21)
(1.01398 0.000638153 0)
(1.117 -0.0485874 -3.80906e-20)
(1.05625 -0.0949851 9.36102e-20)
(1.14769 0.00682429 0)
(1.00481 0.0062506 -3.56251e-22)
(0.143347 0.162964 -7.91958e-20)
(1.08238 0.0143029 6.14939e-21)
(1.01139 0.0133213 1.41272e-21)
(0.998017 0.0020887 0)
(0.943217 0.0985771 0)
(1.1934 -0.0626421 2.44048e-20)
(0.806867 0.0468185 1.00997e-19)
(1.10911 0.0277112 0)
(1.0092 0.000462898 0)
(1.03645 0.0953359 -1.09744e-20)
(0.248349 -0.0643264 -2.55916e-20)
(0.998702 0.104537 2.44849e-21)
(0.999669 0.0216348 1.61966e-21)
(1.01217 0.0137112 -7.6348e-22)
(1.03862 0.0976856 1.25742e-20)
(1.09712 0.021218 -1.87356e-20)
(-0.133094 0.00104857 5.46285e-20)
(1.00975 0.0234008 1.96216e-22)
(1.17284 0.456006 -1.11197e-20)
(0.901124 0.217726 0)
(1.12762 -0.0264673 0)
(-0.0130738 0.0254433 -1.32021e-19)
(0.0523081 0.192579 -2.43555e-20)
(1.01608 0.00283046 0)
(1.07633 -0.0809494 -3.45913e-21)
(1.00446 0.0234445 0)
(1.0209 0.0435939 0)
(1.08322 -0.00185877 -6.72966e-21)
(0.0387555 0.221803 4.18409e-20)
(1.0079 0.00561491 0)
(1.02217 0.0191099 0)
(1.01253 0.000455124 0)
(0.68163 0.0294338 -6.77071e-20)
(0.960231 0.0488372 -1.93827e-20)
(1.03723 -0.00276339 0)
(1.04903 0.126744 6.76033e-21)
(1.08513 0.0820194 -1.99097e-20)
(0.245359 -0.0357993 0)
(-0.253329 -0.000961263 3.42771e-20)
(1.00379 0.0113311 7.76423e-22)
(0.987915 0.00682891 8.46078e-21)
(0.20538 -0.031502 -2.90406e-20)
(0.98508 0.0337445 5.94563e-21)
(-0.00309316 -0.0198646 0)
(0.115451 -0.0305191 0)
(-0.0582301 -0.00422982 0)
(0.666002 0.355349 3.00338e-20)
(0.826927 0.448756 -1.39397e-20)
(1.04559 -0.18927 -8.94429e-20)
(1.0695 -0.0309494 0)
(0.999259 0.00288422 3.85872e-21)
(1.01225 0.0114634 0)
(1.00171 0.0342384 -3.86055e-21)
(0.970838 0.0244043 3.12137e-20)
(0.999726 0.00498197 -2.52537e-21)
(0.969265 0.0241997 -2.0867e-20)
(0.921659 0.0107163 -5.56255e-20)
(-0.00708194 0.226744 0)
(1.03751 0.029534 0)
(0.66602 0.186003 -5.33292e-20)
(1.0096 0.00356855 -5.03731e-22)
(1.01737 0.0676657 -1.08126e-21)
(1.10591 0.102372 3.17095e-20)
(1.00035 0.00558502 4.01359e-21)
(0.96839 0.0806928 2.33594e-21)
(1.0441 0.0435077 1.01571e-20)
(0.354275 0.0250364 1.08978e-19)
(0.0954629 -0.108547 6.98099e-20)
(1.16243 0.0903297 4.23305e-20)
(-0.130258 -0.0111523 0)
(0.837973 0.192352 2.02488e-20)
(0.0927285 0.159437 2.7941e-20)
(1.09539 0.264843 -1.20582e-20)
(0.614401 -0.144291 1.33124e-20)
(0.0386414 -0.0204622 -8.82948e-20)
(1.13322 -0.0252578 8.18466e-20)
(0.924555 0.788418 0)
(1.10922 -0.190521 2.98018e-20)
(-0.287305 0.00657005 0)
(1.03428 0.00294519 -1.11256e-20)
(0.993614 0.0112167 -3.13064e-21)
(1.0034 0.00599488 6.20721e-22)
(1.0708 -0.00721413 -3.19128e-20)
(0.793478 -0.223447 -4.2659e-20)
(1.01308 0.01021 -1.8198e-21)
(0.99995 0.000455345 -2.66147e-21)
(1.18219 0.0237548 -1.65507e-21)
(1.00735 0.00313943 4.64129e-22)
(1.01485 0.198991 -2.54364e-21)
(1.01274 0.186739 0)
(1.00025 0.000747689 7.11016e-22)
(1.07556 -0.199795 0)
(1.0365 -0.00109569 -3.588e-23)
(0.987336 0.00654746 0)
(1.10144 -0.159898 -1.86208e-20)
(1.01596 0.00724871 -1.55816e-21)
(1.2326 0.0790145 0)
(0.442907 -0.25172 -1.48876e-19)
(1.00055 0.0379409 0)
(1.04667 -0.00718496 -8.6179e-21)
(1.01107 0.0129543 -8.93465e-22)
(0.939609 0.272977 0)
(1.00824 0.00614582 5.03817e-22)
(1.04805 0.0509094 0)
(1.32122 0.183364 6.71881e-20)
(0.988505 0.000961702 1.69183e-20)
(0.0714141 -0.0134149 -4.59256e-20)
(1.0374 0.025383 1.35526e-20)
(0.0968623 -0.0114454 5.01799e-20)
(1.05754 -0.0124285 0)
(1.0942 -0.132454 4.31201e-20)
(0.999062 0.0129646 -8.53505e-21)
(1.07721 -0.10018 0)
(1.10152 0.101766 -3.39287e-20)
(0.999329 0.00272708 0)
(1.00138 0.0388049 -2.41884e-21)
(0.0965655 -0.0126058 3.31731e-20)
(0.993002 0.0156067 7.41422e-21)
(-0.295283 0.00617116 -1.71859e-19)
(-0.286155 0.00613137 5.4123e-20)
(0.981932 0.0511509 -1.65128e-20)
(1.00124 0.000300879 0)
(1.00052 0.00573382 1.08806e-21)
(1.01922 0.00341201 -2.62614e-21)
(-0.0280846 0.0984515 2.4859e-20)
(0.994665 0.0145602 1.2526e-20)
(0.132301 -0.0135343 -1.26386e-19)
(-0.0116768 0.244338 0)
(1.10752 0.131496 0)
(-0.0104678 0.0411893 -1.47905e-19)
(1.00963 0.000601365 0)
(1.00341 0.0208299 1.13025e-21)
(-0.0111479 -0.0134562 -1.0209e-19)
(0.00518845 -0.0167271 -2.67664e-22)
(0.922548 -0.00343217 -3.44629e-20)
(1.00032 0.00926923 1.30131e-21)
(0.995658 0.0225594 0)
(1.0127 0.0108911 1.41932e-21)
(1.04761 -0.0103323 4.57743e-21)
(0.86441 0.178151 -3.28141e-21)
(0.352004 0.391133 1.1436e-19)
(1.04978 0.0689357 -1.34978e-20)
(0.206914 0.0925998 0)
(0.117696 0.169807 1.68152e-19)
(1.10346 -0.255334 0)
(0.856859 0.0681789 0)
(1.03386 0.0159497 -1.27358e-21)
(-0.189617 0.0010551 0)
(-0.0689809 0.00853035 0)
(1.05161 0.125012 -3.91999e-21)
(0.99928 0.0126487 7.54026e-21)
(0.977734 0.0229713 6.74394e-21)
(0.0917811 -0.0200416 0)
(0.996064 0.00782006 1.16023e-21)
(-0.0252108 0.153688 0)
(0.833157 0.246359 0)
(1.00007 0.000759731 2.08275e-21)
(0.947153 0.100107 1.71093e-20)
(1.01526 5.72602e-05 6.00012e-21)
(1.10731 0.0264248 -1.28953e-20)
(1.06863 0.0669502 0)
(1.00715 0.0029774 3.5717e-22)
(1.0175 0.00149455 0)
(1.04655 -0.00995613 8.1471e-21)
(-0.118984 -0.0016756 3.685e-20)
(1.00021 0.00119499 -2.96473e-21)
(1.0637 -0.08337 0)
(-0.0403055 -0.010968 0)
(0.978387 0.0214943 -7.06596e-21)
(1.00308 0.015862 -4.01495e-21)
(0.827863 0.155948 0)
(0.116333 0.143219 2.66677e-20)
(1.09835 0.00497629 5.11068e-21)
(-0.0111975 -0.00913471 -1.92931e-20)
(0.958386 -0.00166156 2.94345e-20)
(1.01922 0.00316798 -2.11292e-21)
(0.938979 0.00218384 2.53967e-20)
(0.0779539 -0.00859337 -8.55074e-20)
(0.410769 0.176317 0)
(0.179985 0.112545 -2.03972e-19)
(1.009 0.000430554 7.96727e-22)
(0.867441 0.0477416 -4.70258e-20)
(1.00313 0.0328061 -7.61937e-22)
(-0.037644 -0.00802267 4.85271e-20)
(1.02349 0.00772303 1.73479e-23)
(1.08637 -0.199079 1.56205e-20)
(0.856973 0.187494 -2.96472e-20)
(-0.0349874 0.103883 7.90423e-21)
(1.00041 0.0015669 0)
(1.00467 0.00202211 -3.73108e-24)
(0.803054 0.455072 6.32636e-21)
(0.997608 0.0212633 0)
(-0.137676 -0.000405227 5.28067e-20)
(1.03868 0.00216674 -7.82378e-21)
(0.184443 0.525968 1.09539e-19)
(1.00005 0.000650983 -3.92129e-21)
(1.01224 0.0100494 0)
(0.932791 0.0251242 -5.72547e-20)
(1.15111 0.448165 0)
(-0.203031 0.0171512 0)
(1.03027 0.0935993 3.24355e-21)
(1.04759 0.018472 -2.02461e-20)
(0.962799 0.0231376 0)
(1.03702 -0.00154897 0)
(1.02736 0.00733512 -5.51671e-21)
(0.999978 0.000345224 -5.60517e-21)
(1.20195 0.0145742 -3.44272e-20)
(1.00491 0.0470201 2.04589e-21)
(0.478071 -0.104864 1.64772e-20)
(1.01128 0.0726129 5.07311e-22)
(-0.0372854 -0.0170227 8.23541e-20)
(1.03575 0.00275688 0)
(1.01909 0.0041387 1.54321e-22)
(1.30161 0.1525 0)
(0.00550175 -0.0195795 0)
(0.637244 -0.0549435 0)
(1.01656 0.0496999 0)
(0.349747 -0.0249584 -2.18983e-20)
(1.03634 0.00221224 0)
(0.00657953 0.250398 3.88067e-20)
(0.96316 0.0266352 6.80167e-21)
(1.23121 0.035484 2.53567e-20)
(1.01626 0.0184084 -1.50109e-21)
(0.0347325 0.0288455 1.16484e-19)
(1.00507 0.0201769 0)
(1.06637 0.0678101 -1.20921e-20)
(0.995449 0.00213566 -5.35185e-21)
(1.00301 0.0236869 2.53849e-21)
(1.00003 0.00102084 0)
(0.367722 -0.0894416 -3.36706e-20)
(1.18209 -0.106531 -3.40861e-20)
(0.313555 -0.0462879 0)
(0.852629 0.0718389 0)