/*--------------------------------*- C++ -*----------------------------------*\
| =========                 |                                                 |
| \\      /  F ield         | OpenFOAM: The Open Source CFD Toolbox           |
|  \\    /   O peration     | Version:  v2012                                 |
|   \\  /    A nd           | Website:  www.openfoam.com                      |
|    \\/     M anipulation  |                                                 |
\*---------------------------------------------------------------------------*/
FoamFile
{
    version     2.0;
    format      ascii;
    class       surfaceScalarField;
    location    "850";
    object      meshPhiCN_0;
}
// * * * * * * * * * * * * * * * * * * * * * * * * * * * * * * * * * * * * * //

dimensions      [0 3 -1 0 0 0 0];
oriented        oriented;


internalField   nonuniform List<scalar> 
14907
(
-8.30743e-05
-0.000184794
0.000280536
2.01683e-06
4.86758e-05
-1.72243e-05
-0.000831758
0.000962198
-9.29065e-05
-4.34658e-05
-3.14194e-05
-4.48884e-05
0.000406209
-0.000361192
0.000103846
1.2418e-05
-0.000110591
0.000274523
0.000553153
-0.000827356
-0.000347071
-0.000258011
0.000606284
-4.32386e-05
0.000756882
-0.000694772
0.000129608
-0.000146507
3.43411e-05
-0.000257385
0.000390485
-0.000133096
-0.000142713
2.86019e-05
-0.000151485
4.40972e-05
0.000118185
-2.12101e-05
0.000210278
-0.000129465
0.000127835
-0.00109218
0.00096997
-1.61241e-05
-6.5502e-05
4.81058e-05
2.32943e-05
-7.09906e-05
0.000108084
-9.57196e-05
-5.64651e-06
0.000248085
-0.000317813
0.000613229
-0.000473179
-0.000139688
0.000380749
-0.000431283
1.23406e-05
0.000826959
-0.000836637
1.20263e-05
-0.000136981
1.56633e-05
0.000173229
5.88978e-06
7.76205e-05
-1.7514e-05
1.30845e-05
2.11454e-05
6.44266e-05
0.000845415
-0.000899947
1.15034e-05
-0.000162665
0.000124568
3.12859e-05
0.000944933
-0.000964138
0.000149955
0.000677924
-0.000811755
-2.30468e-05
-0.000987478
0.00102945
-7.16193e-05
2.63554e-05
4.75266e-05
-0.000409574
0.000222438
0.000187143
0.000193693
-2.28407e-05
-0.00136194
0.000871914
0.0005072
0.00101971
-6.90569e-05
-0.00093313
0.000146586
-6.93648e-05
0.000170164
0.000773626
-0.000933322
0.000991474
-0.000844167
-0.000142056
5.35022e-05
0.000117176
-0.00124827
0.000302544
0.000953173
0.000284696
0.000328705
0.000110649
0.000962692
-0.00106505
-0.000493546
0.000768164
0.00110299
-0.000235533
-0.00084286
-0.000409958
0.000365203
0.000920362
-2.18493e-05
-0.000893663
-0.0003008
-0.000546541
0.000859472
0.000927144
-0.00102313
9.68036e-05
-0.00120009
0.000752903
0.00046204
0.00105902
6.75921e-05
-0.00111893
8.34529e-05
-0.000187083
8.46325e-05
-0.00135477
0.00100884
-0.00136987
0.000638301
0.000741316
-0.00043079
-0.00070672
0.00115854
0.000829976
-0.000650355
-1.85847e-05
0.000112431
-0.000606208
0.000770643
0.000798034
-0.0010819
-0.000400433
-0.000938031
-0.000399152
-0.000955155
2.08052e-05
-3.00312e-06
-1.4305e-05
0.000287558
-0.000356913
6.00316e-05
0.000278573
0.000756082
-0.000888161
0.000104177
0.000531792
0.000455326
-0.000983379
0.00119011
-0.00117649
1.03137e-05
0.00114786
-0.000385716
-0.000753533
5.95595e-05
0.000617591
-0.000676609
0.000493416
-0.00032333
-0.000170016
-0.000771379
0.000119854
0.000665222
0.000842592
-0.00125203
-0.000175856
0.000812985
0.000316864
-0.000767425
-0.000130449
0.000899472
0.000806477
-0.000988815
0.00020058
4.75703e-05
0.000127094
0.00042158
-1.52628e-05
4.72224e-06
0.000298228
-0.000291245
0.000174244
0.000738678
-0.000909299
-0.000782997
0.000262481
0.000520722
-0.000417494
-0.00077298
4.30142e-05
-0.000452768
0.00111625
-0.000914155
-0.000173583
-0.000129778
0.00109443
-0.000958963
0.000175076
0.000986173
5.6216e-06
2.28851e-06
-2.87168e-08
-0.000372949
0.000191492
0.000207603
0.000755128
-0.00022095
-0.000533458
0.000201913
-0.000610261
0.000426525
-8.81706e-05
-0.000267733
0.00105735
-0.000133195
-0.000905095
-0.000315808
0.000358985
-0.00083461
0.000876706
-0.000187284
0.000992303
-0.00099627
-0.000986807
0.000271134
0.000733235
-0.000145283
0.000409244
-0.000264406
0.000843159
-0.000764259
-6.30111e-05
-0.000116365
-0.00112195
-0.000128441
0.000750466
-0.000604761
-5.70246e-05
5.70246e-05
-0.000724861
6.90259e-05
0.000657789
2.70757e-05
0.000647294
-0.000673125
-6.40349e-07
3.19079e-05
-6.12388e-05
0.00104287
-0.000971578
-0.000444532
-0.000305311
0.000751419
0.000132155
0.000271904
-0.000380244
-0.000415988
0.00027525
-2.6974e-06
0.000349846
0.000483155
-0.000422566
-2.14422e-05
0.000158842
-0.000173338
-0.000193225
-0.000409188
0.000613485
-0.000123429
0.00113336
-0.000995663
0.000281077
0.000212379
-0.00052598
0.00106298
-0.000404501
3.79473e-05
0.000377084
0.000443081
0.000132885
-0.000567457
0.000262787
-9.02271e-05
-0.000878252
-0.000202326
0.000396702
-0.000194332
0.000703978
-0.000477834
0.000446886
-0.0007927
0.000914702
-0.000107144
-0.000791245
0.000309155
-0.000308818
6.6716e-06
6.70064e-05
-0.000789514
0.000440129
0.000695737
0.000462071
-0.000718798
-0.000193099
-0.000560186
0.000765243
-0.000993624
0.000551105
0.00031891
-7.53208e-05
-0.000233529
0.000825552
-0.000647929
-0.000103078
-0.000723544
0.000834947
-0.000498389
0.000212524
0.000285879
0.000178451
-0.000764886
0.000589641
0.00074216
-0.000848462
0.000886581
-0.000731546
-0.000151647
-0.000323578
0.000415614
-9.20134e-05
0.000669189
0.00041112
0.00104655
-0.000117505
0.000365341
0.000390408
-0.00107913
0.000155573
0.000937137
0.000593243
-0.000144213
0.00115097
-0.00014686
-0.000988778
0.000410543
0.000352045
-0.00076059
0.000939637
0.000153015
-0.00104922
0.000358489
-0.000537522
0.000463013
-0.000898831
0.000439878
0.000241771
-0.000913214
0.000691797
8.95304e-05
0.000764121
6.82418e-05
0.000918416
-0.000978248
1.29079e-05
-0.000673719
0.000684198
4.27122e-05
-2.19247e-05
-2.3938e-05
0.000167204
-0.000640964
0.000474021
-0.000447802
0.000392755
5.50801e-05
-5.84177e-06
-0.000241141
0.000184334
-0.000123221
-4.62991e-07
3.43343e-05
-0.00108884
0.00106056
0.000333169
-5.33982e-05
4.32798e-05
0.000845756
-0.000439625
0.000161676
0.000277972
-9.91917e-05
0.000366661
-0.000267461
0.000160941
-0.000772681
0.000615278
0.000252837
-0.000151226
-9.04545e-05
-0.000653593
0.000688785
-0.000856107
0.000940182
-5.61641e-05
0.000727514
-0.00082115
-0.000363514
0.000714584
-0.000350242
-0.000355021
-8.4561e-05
-0.00016138
-0.000236412
1.53088e-05
-0.000463072
0.00139809
-0.00116657
-0.000206216
-6.8784e-06
0.000295592
-0.000225638
-0.000594843
0.000279247
-0.000545604
-0.000118127
0.000664123
0.000930531
-0.0008116
-0.000116798
3.5695e-05
-0.000760499
0.000724752
0.000263619
7.80467e-05
-0.000341658
-0.000163957
0.000945623
-0.000761315
-0.000555375
0.000615436
0.00102139
-0.000985949
-2.72223e-05
0.0011024
-0.00106223
-0.00020746
-0.000202104
0.00135696
-0.000900824
-0.000432258
-0.000975467
0.000797376
-0.000936412
0.00105542
0.000262238
-0.000464518
0.000570159
0.000123555
-0.000691713
0.000508577
-0.00108511
0.000593645
0.0003877
-0.000130023
-0.000257666
0.00107661
-0.000969113
-9.56072e-05
-1.9272e-05
-0.000396883
0.000416181
0.000415383
0.00074975
0.00072041
-0.00055277
-0.000239935
-0.000354613
0.000439263
-0.000789807
0.000352858
-0.00061406
0.000382568
0.000231825
0.00105852
-0.00106366
1.65413e-05
0.000401499
-4.755e-05
-0.000328528
-8.82965e-05
-6.20381e-06
-0.000365273
-0.000602051
0.000980786
0.000955893
-0.000767119
-0.000186368
-0.000228312
0.000748808
0.000900656
-0.000269174
-0.000603444
-0.000542337
-2.94773e-06
0.000982105
-0.00062303
-9.93529e-05
0.000748084
0.000289226
-0.000308478
-6.85643e-05
5.14246e-06
-8.5264e-07
5.89477e-05
-3.85534e-05
-2.1844e-06
-9.52315e-06
0.000105567
-3.42051e-06
-0.000249012
-0.000364576
-8.03597e-05
-8.00225e-05
0.000111615
0.00048959
-0.000852167
-0.000528814
6.05459e-05
0.000468398
-1.31706e-05
-0.00106808
0.000544778
2.65426e-05
0.000934039
-0.000192083
-0.000719893
-0.000127986
0.000184817
-1.64188e-05
-0.000199599
-0.000585095
0.000787586
0.00018219
-0.000436932
0.000291605
-0.00103681
0.000926872
-0.000155792
0.0011878
-0.00102485
0.000569402
-7.77094e-05
-0.000491456
0.000828649
0.000166271
-0.000277621
-0.000550295
0.000835455
1.12275e-05
0.000903284
-0.000905757
-8.75379e-05
-0.00044091
0.000529574
0.00012557
0.000373682
-0.000488905
-0.000467831
0.000775331
-0.000305112
-0.000210578
0.0010714
-0.00067847
0.000574114
-0.000568013
-5.7845e-06
-0.000162442
0.00021405
0.000933115
-0.00112405
0.000402597
0.000598733
-0.000801839
0.000877471
-0.000691447
0.000602966
9.84187e-05
2.40725e-05
0.000129389
-0.00013262
-0.00125911
0.000420614
0.000851191
-0.000122785
-0.000932109
0.00106074
0.000203872
4.97993e-05
0.000768859
-0.00095105
0.000119439
0.000377617
0.000770261
6.33953e-06
-0.00041442
-6.52798e-06
-5.08793e-05
-3.87667e-05
0.000126507
-6.55509e-05
0.000949794
-0.00100123
0.00159508
-0.00043776
-0.00112415
7.52805e-06
0.000105683
7.4981e-05
-8.35913e-05
-2.03351e-06
5.26548e-06
-0.000763941
-0.000926512
0.00107323
-0.000133648
0.000517506
5.2122e-05
-0.000482493
0.000646276
0.000159118
0.000228587
0.000160715
0.000771631
0.00107318
-0.000783441
-0.000286819
0.000932038
-0.000799516
-0.0011136
0.000553778
0.000563569
-0.000435424
-0.000304953
0.000740279
-0.000258605
-0.000984256
-0.000330462
0.000490604
-0.0001406
0.000188093
0.000785805
-0.0011355
-0.000159619
-0.000516241
0.000748489
8.00988e-05
0.000577432
-0.00103799
0.000479923
0.00024567
-2.9184e-06
0.000100544
0.000628414
0.000329049
0.000910526
4.12813e-05
-0.000569947
0.000263661
-0.000744885
0.000635312
0.000110423
0.000472448
0.00061151
-0.00120875
0.0010931
0.000664206
-0.000574988
-6.80192e-05
-0.00103323
0.000704039
0.00034253
0.00107124
-9.71248e-05
-5.62527e-05
0.00108639
-0.000448181
0.000637426
-0.00017048
0.000847366
-0.000157869
-0.000340498
-0.000610225
3.25308e-05
4.00588e-05
-0.000793978
0.0007953
0.000507586
-0.000943487
-0.000188629
-0.000869803
-0.000183317
4.93652e-06
1.25197e-05
1.00282e-06
-0.0010456
0.000132771
0.000800329
-0.000764728
0.00112797
-0.000271416
-0.000849827
-0.000161348
0.000573582
0.000120356
-4.34849e-05
-5.51003e-05
-3.25315e-07
0.000494354
0.000793787
-1.93884e-05
-0.000690566
0.000604473
-3.50791e-05
-0.000398212
0.000441553
7.17973e-06
-4.66971e-07
-0.000344448
-9.58671e-05
0.000469962
0.000139274
0.000815943
0.00031352
0.000790678
-0.00109965
-0.00095951
2.91412e-05
0.000936907
0.000820546
-0.000237805
-0.00058174
0.000514741
-0.000538491
2.4101e-05
-0.00132031
0.00093743
-0.000744351
0.000471828
0.000273189
0.000335622
1.16021e-05
-0.000365874
-0.0008833
-0.000137929
7.18295e-05
-8.44949e-05
-0.000214136
-0.000118282
0.0005754
0.000130977
-0.000704576
0.000623769
-0.000204296
-0.000419126
-7.82742e-05
-0.00026959
0.000213257
0.000109093
-0.000387427
0.000983091
0.000709454
-0.000577875
0.00111085
-0.00107905
-2.08818e-05
0.000864951
6.02114e-06
-0.000117672
0.0001101
-0.000213036
-0.000574843
0.000793481
6.64318e-05
-0.000127676
-6.77736e-05
-3.48797e-05
0.000131389
0.000729518
0.000704733
0.000116655
3.60306e-06
0.000107988
-0.000130909
-0.0010308
8.30878e-05
1.97682e-07
0.000718903
-0.000705852
1.48905e-05
-0.000964615
-0.000333931
-2.1803e-05
0.000355756
0.000338481
-0.000142889
7.88153e-05
0.000288021
-0.000279981
3.27057e-06
-0.000793983
-4.76129e-05
-0.00108874
0.000752401
0.000341567
-0.000269256
0.000710766
-0.000916166
0.00013422
0.000711727
-0.000510072
-0.000200783
-0.000552469
0.000868778
2.14505e-05
-0.000979721
0.000740248
-0.000107976
0.000843535
-8.28498e-05
-0.00074729
1.59858e-06
-8.62897e-05
0.000167451
-0.000622568
0.000456054
-0.000582197
0.000150018
0.000807675
0.00126288
-0.00120176
-5.72546e-05
0.000516839
0.001365
-0.000801827
-0.000553023
-0.00106077
0.000907361
0.000358691
-0.000970174
0.000270404
0.000732128
0.000800613
-0.00106874
-0.000809425
-0.000182087
0.000743638
-0.000949882
0.00135183
-0.000307061
-0.00102535
1.32636e-05
-0.000433058
0.00043609
0.00035872
0.000353776
-0.000246546
0.000713023
-0.00125691
0.000540517
0.000735405
-0.000176036
-0.000906886
-6.17325e-05
3.35484e-05
6.99679e-05
-0.000128025
7.21625e-06
-1.05547e-05
-1.70041e-05
0.000622635
0.000750786
0.000622461
-0.000473034
-0.000148997
0.0010669
0.000123666
-0.00117756
-3.6751e-06
8.41278e-05
-6.38475e-05
-0.000430073
-0.000879392
-3.52046e-05
3.52046e-05
-0.000285932
0.000271177
-0.000590923
0.000391737
2.89081e-05
0.000535127
-4.79349e-05
-0.000483956
-0.000396272
7.27198e-05
-0.00018967
0.000193025
3.29091e-05
-4.62313e-05
0.000713555
-0.000666047
-0.00044648
0.000614761
0.000179099
-0.000945093
-9.19101e-05
0.000873176
-0.000781742
-0.00026806
0.000968935
-2.82725e-05
-0.000932527
0.000228643
0.000345815
7.48281e-05
-4.44641e-06
-0.000123731
0.00122158
-0.0001573
-0.000125268
0.000125268
0.000107505
0.000807157
-0.000900834
0.000285577
-0.00101611
0.000730946
6.01485e-07
-1.51862e-05
1.26048e-05
0.000282265
0.000837232
-0.000141192
-0.000315418
-0.000141348
-6.44991e-07
-0.000320589
-0.000176799
-0.000567204
-0.000186098
0.000754354
-0.00016988
-0.000226981
-0.000719326
-0.000443668
-0.000874541
0.00017827
0.000726368
-0.000341247
0.000179873
0.00064432
0.000348488
2.36574e-05
0.000786116
-0.000168118
-0.000354144
-0.000191384
0.000395742
-6.13614e-05
7.58093e-05
9.80134e-05
-0.000551113
0.000490257
0.000291721
-3.53731e-05
-0.000255519
5.07996e-05
-0.000109852
-0.000553026
-1.22985e-05
-0.00038486
0.000474839
0.000918956
-0.000581271
0.00015198
0.000429614
5.99726e-06
0.000238451
0.00043806
-0.000464445
0.000502086
-0.00058165
8.01657e-05
-0.00101317
3.66029e-05
0.00102078
0.00060219
0.000724659
0.000410107
0.000996731
0.000102525
-0.000556097
0.000644705
-3.29882e-05
-0.000192623
-0.000640503
-0.000735755
0.000196196
0.000539922
0.000988066
0.00100946
-3.19654e-05
-0.000984613
3.52193e-05
0.000963701
-0.000380295
0.000122916
0.00104043
-0.00104591
0.000384148
-0.0011223
3.72707e-05
0.000290617
-0.000287925
3.39064e-05
0.000421196
-0.000377955
0.000583067
-0.000204737
-0.000230095
3.0203e-05
0.000226772
0.00107047
-0.00106638
-2.19538e-06
0.000475475
2.87401e-05
-0.000496008
-0.000811889
-0.000127273
-0.000170454
0.000332148
0.0010852
-0.000198607
-0.000881156
0.000651014
-0.00038158
-0.000270964
-0.000104525
2.55663e-05
2.0866e-05
7.86129e-05
-0.000370956
0.00029235
0.000302483
-4.99515e-05
-0.000252177
0.000358796
0.000732905
0.000147427
0.000844323
-0.000982697
0.000519851
-0.000202478
-0.000378601
0.000708001
0.000190066
0.000182864
-0.000377223
-0.00132125
0.000800711
0.00118603
-0.00010724
-1.61658e-05
-1.94246e-06
1.43939e-05
-4.90999e-05
-0.000386841
4.35872e-06
0.000355103
-7.47586e-05
-0.000280336
-0.000314134
3.60757e-06
7.24121e-05
-0.000202194
0.000882204
3.5883e-05
-0.00091564
-0.000670742
-1.1328e-06
-0.000538998
0.000798742
-0.000256143
7.78025e-07
7.32188e-05
-0.00102113
4.39252e-05
-0.000375491
-0.000111019
0.000904197
3.42916e-05
-0.000601322
0.000571132
0.000399936
-0.00037008
-0.000436809
0.000617912
-0.00072054
-0.000512753
0.00034629
-3.98045e-05
-0.000909925
5.42661e-05
0.000859585
0.000820922
-2.6313e-06
-0.000485421
-6.31241e-06
0.000837671
-0.000987598
-0.000109027
-1.33078e-07
0.000120246
0.000646433
-0.000903265
0.000259537
-0.000254899
0.000549298
-0.000171594
-3.55304e-05
0.000281459
0.000109029
-3.65146e-05
0.000437304
-0.000343872
-0.00114845
1.47436e-05
-2.63362e-06
2.91272e-05
-1.58255e-05
-4.22181e-06
-0.000959985
0.000448808
-0.00101718
-0.00025138
0.00042991
-0.000719452
-3.84756e-05
0.000418525
0.00114235
-0.0010659
-6.07739e-05
-0.000250176
-0.00039633
0.00064671
-0.00105033
0.000806342
-4.72733e-05
2.69584e-05
2.7533e-05
-0.000159885
0.000688085
-0.000527044
0.000652949
-5.39817e-05
-0.000567441
0.000101147
0.000554992
0.000424421
-0.000155522
-0.000298131
0.000267773
-0.00112433
0.000871216
0.00126951
-0.000462193
-0.000803114
-0.000570946
-0.000211579
0.000236758
-0.000217607
0.000867062
-0.000441805
0.000875462
-0.000983314
-2.21798e-05
4.13521e-05
1.70945e-06
-0.000388593
0.00043297
-4.07774e-05
0.00101137
-5.75219e-05
-0.000908654
1.25273e-05
4.86381e-07
-1.83851e-05
0.000308604
-0.00030178
0.000138355
-0.000451506
0.000204444
0.00021118
3.38461e-06
-4.29342e-06
-0.00101885
0.00047031
-0.00146073
0.000772338
0.000694472
-0.000629729
-0.000830228
-0.000140183
0.000957602
0.000287885
-0.000264225
-3.9447e-05
0.000808273
-0.000817335
1.06457e-05
-0.000731965
-3.30249e-06
-2.55957e-05
-0.000475439
-4.29568e-05
0.000155991
0.000896917
-4.67543e-05
-0.000908977
-0.000107857
-3.36752e-05
0.000310125
-0.000421568
0.000111501
0.000920905
-0.000908032
-5.38794e-06
0.000819886
0.000896618
-0.000803067
-7.88757e-05
0.000335758
-0.000329305
-5.11458e-05
0.000760039
-0.000992046
0.000254503
0.000138939
0.000865991
-0.000160476
4.86632e-06
0.000105456
0.000249651
-0.000346152
0.000176309
-0.000380379
0.000406985
-2.65011e-05
-0.000975061
0.000671654
-1.45761e-05
5.29344e-05
0.0007093
5.50707e-05
0.00104473
-0.00109228
0.000758225
-0.000885022
0.000131873
-0.00030613
-0.000172806
0.000479022
-0.000413372
5.83987e-05
0.000140861
0.000856367
-0.000989302
-5.97662e-06
-7.78684e-05
9.03288e-05
2.04068e-06
-0.000966939
-4.76601e-05
-0.000501818
-0.000806384
-1.32767e-06
-6.00812e-05
-0.000360178
0.000260993
-9.63809e-06
5.94809e-06
0.000316292
-0.000322881
-6.66092e-06
0.00092558
-0.000914162
1.34068e-06
-2.79525e-08
-0.000109136
0.00073367
-0.000624515
-0.000149203
-0.000885829
-0.000869809
0.000917154
-4.44318e-05
0.0009784
-0.000912352
-5.90955e-05
6.02514e-05
3.02664e-05
-0.00111647
0.000846122
0.000284552
0.000874304
-0.000927201
-0.000457823
0.00112765
-0.000206936
-0.000765589
0.000663725
-0.000143004
-0.00052018
-2.76739e-05
-2.33799e-05
-0.00102731
0.00110248
-2.02016e-05
0.00106134
-0.00101831
0.00108561
-0.000791789
-0.000125579
0.000151477
1.33735e-05
7.85148e-05
0.000782575
0.000100784
-9.85649e-05
-2.58527e-06
0.000949045
-0.000846513
0.000310303
0.000767076
-0.000708539
-5.66927e-05
1.87809e-05
0.000102018
-0.000100452
0.000868867
0.000286192
8.4272e-05
0.000322473
0.000630732
-0.0005747
-4.37359e-05
-0.000256494
0.000485519
-0.000278435
0.000273386
-4.59119e-06
6.25968e-05
-0.000985467
0.000931502
-0.000361988
-0.000473264
-0.000106046
-1.26102e-06
-0.000136209
-0.000689209
-0.000453571
0.00114561
8.94136e-06
0.000133997
-0.000414192
0.000280229
0.000991069
-5.57368e-05
-0.000928464
-2.91543e-06
9.30219e-05
-0.000132291
-0.000610874
0.000546226
6.555e-05
-0.00107344
0.00052681
0.000581361
-2.90596e-07
-1.72722e-05
-0.000806862
7.63023e-05
0.000743138
0.00030961
-2.77167e-05
-0.000286603
-7.39645e-05
7.39645e-05
0.000304161
-0.000862297
0.000568044
0.00100758
-0.000232474
-0.000260514
-8.5579e-05
-0.000987019
-7.97977e-05
-0.000424005
3.00238e-05
0.000974146
-0.000135995
-0.000824523
-0.000435348
0.000890472
0.000908621
-0.000799791
-0.000101421
0.000336445
-2.55203e-05
0.00106366
-6.63572e-05
-0.000989956
-0.000595489
0.000666102
-0.00105902
0.000217969
-0.00010485
0.000861928
-0.000746435
9.04145e-05
0.00089667
7.40019e-05
0.000463127
0.000107592
-0.00112083
0.000682386
-0.000572955
-6.4735e-05
1.18607e-07
2.87268e-05
4.7147e-06
-0.000554764
0.000158782
0.000396273
-0.000436357
0.000567934
0.000421205
-0.000677117
-3.13783e-05
-0.000348527
-0.000959575
0.000996298
-2.67091e-05
-0.000138474
-0.000378771
0.000551684
5.95848e-05
-0.000910746
0.000857951
-6.31292e-06
1.33107e-05
0.000249665
0.00074725
-0.000903281
6.08125e-05
-0.00044604
-0.000164086
-0.000302581
2.04139e-05
0.000321892
-0.000815565
-0.00048103
0.000735569
-0.000933822
0.000958407
5.64022e-05
-0.000127181
5.58622e-06
0.000771769
-0.000942143
0.000129148
-5.53277e-05
-0.000529619
0.000844038
-1.80362e-06
8.46247e-05
-8.20162e-05
-0.000169228
-0.000442703
3.81282e-05
0.000404612
-0.000914371
0.000805413
-0.000621919
-0.000305494
0.000934631
-0.000769338
-0.000143891
0.000817517
-0.000135212
-0.000645725
-0.000821186
0.000798677
2.45038e-05
-0.000871975
0.000854688
1.94415e-05
0.000189756
-1.3043e-05
-0.000893684
0.000525357
0.000138933
-0.000440176
0.000134154
-0.0012444
0.000203227
-0.000501073
0.00029809
0.000911348
0.00092637
-0.000847611
-6.56384e-05
-3.14378e-05
3.45913e-05
0.000201005
-0.0010714
-0.000246915
0.000726736
-0.000935386
0.00115288
-0.000222991
-0.000143452
0.00117248
-0.00107776
-7.42269e-05
-0.000838341
0.000358242
2.32072e-05
1.81819e-05
0.000104758
0.000532791
0.000992888
8.03968e-05
0.000599087
-0.000245478
-0.000353331
6.81191e-05
-0.000990318
-0.000952568
-6.05995e-05
-0.00105461
0.00111749
8.58706e-05
-2.2813e-05
0.000815652
2.69221e-05
-0.000188272
0.000189702
0.000453742
-0.000381579
-2.17028e-05
3.99412e-05
-0.00101728
0.000781964
6.52346e-05
-0.000406637
0.000192505
-1.6912e-05
0.00088913
-0.000869265
0.000396005
0.000203311
1.85227e-05
-0.000317556
0.000259823
-0.000564641
0.000218906
0.000345906
-0.000411467
0.00037147
4.00265e-05
0.000204395
-0.00064983
-0.00122017
0.000279026
-0.000308461
0.000865566
-0.000750903
0.000286014
-0.000856797
6.30969e-05
0.000795504
4.86636e-06
0.000734893
-2.5726e-05
0.000502629
0.000796381
-0.00021265
-0.000126634
-0.00056282
0.000659943
-6.52698e-05
0.000913587
-2.8068e-05
-0.000415977
0.000678424
-0.00026224
-0.000241088
-0.000189018
0.000453671
-1.51328e-05
5.28379e-05
-9.18328e-06
0.00047581
0.0006308
6.66793e-05
-0.00098214
0.000928176
8.53924e-05
8.02902e-05
-0.00111135
0.000549137
0.000596522
0.000505772
-0.0006646
0.000401863
-1.89877e-05
-0.000806142
3.96604e-06
-9.41266e-05
-0.00017676
0.000389296
0.000741336
-0.000224046
-0.000516897
0.000577468
0.000590131
-0.000551891
-0.00012994
-6.67175e-05
0.000241287
0.000157233
0.000345253
-0.000937234
0.000923398
0.000395143
-0.000334497
6.74085e-05
2.97743e-05
-4.04119e-06
0.000656186
1.43427e-05
-0.000660373
-5.47713e-05
5.63914e-05
0.000916744
-8.2848e-05
-0.000827942
0.00071188
-0.00113055
0.000127754
0.000387245
-7.01855e-06
6.95641e-07
-8.77383e-06
-4.36281e-06
9.65293e-05
-3.94446e-05
-0.000132412
-0.000676112
0.000811296
-0.000615231
6.33537e-05
-0.00112187
2.77295e-05
0.00109609
0.000844483
-0.000194771
-0.000649165
-0.00101662
-8.33184e-05
-0.00025259
0.000372044
-0.000119431
6.93531e-05
0.000326793
8.00059e-05
0.000861784
0.000286447
-0.000538713
0.000590637
-5.11604e-05
-0.000318548
-2.76649e-05
0.000346217
0.000867847
-3.42867e-07
-0.000865786
-0.000634264
-0.000212021
0.000675278
0.000544944
-0.000493511
-5.10922e-05
0.000981478
-0.00101215
3.37576e-05
0.000732723
-0.000705735
2.04147e-05
0.000280906
-0.00031307
-0.000456117
0.000497527
0.000259244
-0.00087459
0.000168481
-0.000649663
0.000481787
-9.09418e-07
-8.21207e-06
-0.00028629
-4.76263e-05
-0.000586533
0.000113969
0.000407712
2.46924e-05
0.000303723
-0.000327013
4.01948e-05
-0.000516523
-0.00013566
2.7902e-05
-0.000373492
0.000261696
-4.92268e-05
0.000971702
-0.000912948
-0.000226572
0.000369596
-0.000142993
-0.000344621
-0.000146493
0.000491209
-0.00037982
-0.000174604
-0.00105175
-6.64732e-05
-0.000552477
-0.000315199
0.000872758
-2.37017e-05
-0.0008315
-0.000138121
0.000205136
0.000260054
8.15034e-06
3.91804e-06
-0.000288145
9.67227e-05
-0.000552671
-0.000110067
0.00010951
8.78319e-06
-3.04726e-05
-0.000392957
0.000383779
-0.000931363
-0.000801596
0.000541242
-0.000738226
0.000325255
-0.000311779
-4.67621e-05
-9.9252e-06
1.63526e-08
-4.51557e-05
-7.4186e-05
-0.000139749
0.000179993
-1.5051e-05
-0.000746733
-0.000119498
-3.17848e-06
-0.000647
0.000663939
0.000835514
-0.000759193
-7.04573e-05
-0.000229034
0.000719307
-0.000484495
0.000422864
6.17598e-05
1.93006e-05
-5.80637e-05
-2.29766e-06
0.000126021
0.000453488
-0.000578061
0.000241739
0.000499736
0.000372453
-0.000622496
0.00106491
-6.07579e-05
0.000318762
-2.86478e-05
-0.00029011
-0.000377897
-0.000469776
0.000186636
-0.000139731
-0.00088441
0.00105281
0.000118787
-0.00105392
0.000940136
0.000442821
0.000138688
-0.000581185
0.000941642
-1.86494e-05
-8.59503e-05
-0.000104001
-3.45569e-07
0.000496751
-0.000862855
4.36885e-05
-0.00107597
5.58038e-05
-0.000108003
0.000111979
-6.89678e-06
0.000543694
-0.000540751
-2.86216e-06
-0.00094018
0.000769216
-0.000361935
-6.96752e-05
0.000151566
-9.38215e-05
-0.000947007
-0.000110378
0.00102995
-0.000388583
0.000347415
-0.000794194
-6.26805e-06
0.000818703
0.000420679
-0.000244331
-0.000654228
0.000730867
3.02172e-05
0.000925119
-6.47883e-07
-3.16084e-05
0.00104409
0.000219855
-0.000654712
0.000436706
-4.38028e-09
-0.000105918
0.00107943
-0.000959442
2.76777e-05
3.56255e-06
-2.41013e-05
-0.000172823
-0.000886968
0.000201179
-0.00048608
0.000284955
2.10414e-06
-2.10414e-06
-9.8695e-05
-0.00038558
-0.000978314
-4.72619e-05
-0.000368756
-0.000177571
0.000546405
0.000276263
-0.000224087
0.000765917
-0.0010299
8.41968e-05
-0.000421741
0.000549062
0.000156509
-0.000722764
-0.000326035
0.0010476
-0.000188196
0.000391628
0.000683843
-0.000832787
0.000149089
-8.43232e-05
0.000974373
-0.000886721
3.26679e-05
-3.72688e-05
0.00068039
-0.000474878
1.88721e-07
-1.68822e-05
2.56832e-07
-9.17639e-05
-5.39666e-06
1.00476e-06
0.000504298
-0.00048668
4.85422e-06
0.00101795
-0.000878703
-0.000133752
9.46055e-06
-9.46055e-06
0.000107988
0.000599443
0.000245817
-0.00101487
0.000109214
-4.90405e-05
-1.04234e-05
-0.000974547
0.000230193
0.000748301
0.00121425
-1.81394e-05
-0.000386234
-0.00109108
1.96147e-05
0.00108211
0.000171096
-0.000431536
-0.000308215
0.000272947
-0.000874091
6.52312e-06
0.000674047
-0.000299354
-0.000374347
0.00108805
-0.00012471
-0.000959839
0.00039725
-8.70801e-05
4.65404e-05
-5.54384e-07
-0.00143842
0.000674633
0.000769368
0.00033883
0.000170089
-0.000504555
-0.000908876
7.50034e-05
0.000522735
0.000149626
-9.9961e-05
-0.000767418
0.000771532
-0.000169752
-0.000600577
-6.47875e-05
0.00109148
-0.00101958
7.72112e-05
-0.000178274
0.000160625
2.73542e-05
0.000171828
-0.000424397
0.000420993
-0.00134695
-0.000876734
0.000925246
-2.47155e-05
0.000763344
-0.000892188
-0.00103884
0.000152389
0.000892095
0.000459758
-0.000390232
0.000365853
-5.03349e-05
0.000560524
0.000713885
0.000564674
-0.000792836
0.000914708
0.000790138
-2.15341e-05
-1.95154e-05
-9.20075e-05
-7.52078e-05
0.000145634
4.72733e-05
0.000139885
-0.000506229
0.000366574
-8.55525e-05
-1.50276e-05
0.000158494
-6.33456e-05
-7.48538e-05
0.000431481
-0.000433441
7.79174e-06
0.000163023
-8.20873e-06
2.40406e-05
6.53739e-05
0.000103722
6.87258e-05
0.000926104
0.00041991
-0.00039453
-3.59677e-05
2.67881e-07
-3.66739e-06
0.00105188
0.000913725
-0.000953652
-0.000928069
-4.18585e-05
-2.57058e-05
-0.000279427
0.00020077
-0.000569285
0.000150587
-0.00091022
0.000776819
-0.00030554
-0.000258918
0.000102428
-0.000867394
0.000182271
-0.00041589
0.000233657
0.00112141
-0.000696275
-0.000417291
-0.0012596
-0.000166516
-0.000100544
0.000337315
-0.000236765
0.000814757
0.000102171
1.48375e-05
-0.000555136
0.000788478
-0.000232849
-9.3392e-05
-0.000842477
-2.92856e-06
5.18753e-05
-0.000851733
0.00102267
-0.000156602
0.000573551
-0.000284261
0.000774579
0.000315303
-0.000431718
0.000116446
-0.000551485
-0.000193654
0.000756761
-0.00034319
-9.94597e-05
0.000829266
-0.0011334
-0.00103022
0.000897558
0.000271303
-0.000293087
-0.0009343
-0.000294309
-1.47037e-05
-8.39415e-06
-6.59312e-06
-0.00102366
0.000964695
9.48978e-05
-0.000208831
0.000241004
8.66402e-06
0.000880272
-0.00083457
-0.000805014
0.00109029
2.88564e-05
-3.54406e-07
-0.00102384
0.000760983
-0.00102046
0.00102477
-0.00053788
0.000160256
0.00109499
-4.31228e-05
5.45406e-05
-3.99127e-05
-4.8271e-06
-0.000917153
-5.0113e-05
0.000867248
-0.000822677
-4.12163e-05
0.00104783
-0.000998265
-5.28937e-05
6.72294e-06
4.73535e-05
0.000428656
-0.000113327
0.000893147
0.000139935
-0.00101611
-0.000450117
6.20067e-05
0.000461071
-0.000959518
-7.31859e-05
-0.00075722
0.000917864
-0.000225864
-0.000128376
0.000293502
0.000577642
-0.000871389
-0.000295354
-0.000118789
0.000555043
2.08741e-05
-0.000557734
0.000966569
-0.00105889
0.000192852
0.000416532
-0.000608469
0.000451772
0.000147138
0.000760596
-2.85051e-06
0.0010546
-0.00116667
0.000118451
-1.80582e-05
3.55416e-06
1.44721e-05
0.00027176
0.00112416
0.000595003
-0.000779958
-0.000575548
0.000419465
0.000156308
3.7014e-05
-0.000320191
0.000322871
-3.5878e-05
0.000729309
-0.000674157
1.35103e-05
-1.50382e-07
-0.000968841
0.00017639
-0.001018
-7.39959e-05
2.94328e-05
2.63205e-05
-0.000513656
-0.000234498
0.000901248
0.000927171
-0.000138
-0.000773228
8.13867e-05
0.000219834
-0.000318781
-0.000328826
0.000377974
-2.47763e-05
0.000168173
-0.000197994
1.69674e-05
0.000790178
-0.000820186
4.21888e-05
-0.000457857
0.000231323
3.53259e-06
-0.00089724
-0.0007113
-1.80924e-05
6.40005e-05
0.000413824
0.000260568
-6.10759e-05
5.97314e-05
0.000168348
-1.37836e-05
-4.18637e-06
0.000535563
0.000342887
-0.000530806
-0.00108533
0.000109757
5.82162e-05
-9.07528e-05
0.000217546
-0.000232136
-0.000373006
-0.000658036
0.000247433
-0.000680931
0.000433934
-2.24561e-05
-0.000192514
0.000230588
3.24289e-05
0.000130909
-6.35993e-05
0.00100953
-0.000933649
0.000833931
-0.000838149
1.05816e-05
0.000372814
0.000726859
-0.00108451
0.000630687
0.000345864
-0.000967904
-0.000131352
0.000852339
7.5088e-05
-7.47702e-07
-2.31e-06
1.80012e-05
-0.001096
0.000892543
0.000214748
-0.000544826
0.000141858
0.00040319
0.000588833
-0.00104803
0.000908223
-0.000175552
-0.000730261
0.00110246
-7.26247e-05
-0.00101477
-0.000428873
-5.22702e-05
-2.55579e-06
-0.00092967
0.000976319
-7.10354e-06
-0.00110204
0.000934324
2.05595e-08
-0.000933129
0.00053714
-0.000479907
-2.7742e-05
0.000850577
4.65135e-05
-0.000869819
5.36868e-06
-0.000125082
6.68312e-05
-2.82417e-05
-0.000920948
0.00059021
0.000333562
0.000371019
-0.000704168
2.74542e-05
0.000912296
-0.000938933
-0.000927206
-8.67609e-05
-0.000214157
-0.000919149
-5.38226e-07
0.000923981
-0.000890965
6.58474e-05
0.000522222
0.000423713
0.00075855
-0.000102927
-0.000654549
-0.0010082
6.31206e-05
-0.000886849
1.09532e-05
1.66075e-05
-0.00027412
0.000414173
-0.000637798
0.000389236
-0.000283388
0.000100898
0.000150181
0.000872585
9.59654e-05
-0.000744118
-4.37945e-05
3.94523e-06
0.000665294
-1.63322e-06
-9.42172e-05
6.74087e-05
-5.71407e-05
-0.000832866
9.15072e-05
-0.0010878
0.000435923
0.000673369
-0.000471516
0.000856505
0.000109641
-0.000322215
0.00021258
0.00094175