/*--------------------------------*- C++ -*----------------------------------*\
| =========                 |                                                 |
| \\      /  F ield         | OpenFOAM: The Open Source CFD Toolbox           |
|  \\    /   O peration     | Version:  v2012                                 |
|   \\  /    A nd           | Website:  www.openfoam.com                      |
|    \\/     M anipulation  |                                                 |
\*---------------------------------------------------------------------------*/
FoamFile
{
    version     2.0;
    format      ascii;
    class       volScalarField;
    location    "250";
    object      k;
}
// * * * * * * * * * * * * * * * * * * * * * * * * * * * * * * * * * * * * * //

dimensions      [0 2 -2 0 0 0 0];


internalField   nonuniform List<scalar> 
18355
(
0.000162072
0.0338742
0.000147536
0.000145569
0.000150408
0.000181647
0.000147533
0.000173965
0.000151227
0.0360346
0.000144967
0.0352861
0.000183568
0.000147967
0.000148504
0.000151677
0.0140981
0.000146209
0.00014841
0.0584167
0.000153946
0.000149535
0.0691443
0.000150433
0.000155962
0.00014891
0.000148373
0.000150906
0.0194454
0.000148062
0.000148991
0.000152411
0.000146189
0.000146783
0.000168571
0.000162769
0.000149879
0.000182946
0.000150722
0.000145109
0.00014798
0.00016839
0.000147572
0.0284003
0.000147902
0.000184087
0.000169965
0.000151924
0.000167767
0.00014635
0.000144958
0.000147246
0.000149832
0.061079
0.000148471
0.000148377
0.00019024
0.00014862
0.000457634
0.000185022
0.000146384
0.000177222
0.000146087
0.000162657
0.0391709
0.000161464
0.00480238
0.000157661
0.000148412
0.000149398
0.000171995
0.000149683
0.000186286
0.000146589
0.000173942
0.000147505
0.0541097
0.000152242
0.000159698
0.000147027
0.000147615
0.000268335
0.00015366
0.000164262
0.000148854
0.00018321
0.0298724
0.0586092
0.0188929
0.0659069
0.000229973
0.0001483
0.000148646
0.00014442
0.0065209
0.0662538
0.000146995
0.000156259
0.0585663
0.00867056
0.0104065
0.0103123
0.00016428
0.00156614
0.000151139
0.000187205
0.0226762
0.000177476
0.000161584
0.000186513
0.000147836
0.000150406
0.000148918
0.000150608
0.0545897
0.000147856
0.000486862
0.0552596
0.000470976
0.000164236
0.0388094
0.000968212
0.000152129
0.000171807
0.000146989
0.000178088
0.000147212
0.000149722
0.00401334
0.000144436
0.000144996
0.00185973
0.000171491
0.000156005
0.000161271
0.00014969
0.000147859
0.00014495
0.000147787
0.000172891
0.0125143
0.0197898
0.000149424
0.000147811
0.000189051
0.000149297
0.000153818
0.023694
0.000152726
0.0212153
0.000149756
0.000149359
0.000167538
0.000430068
0.000182026
0.00014978
0.00184326
0.000468819
0.000149762
0.000178319
0.000155383
0.000153262
0.000156757
0.000156528
0.000202984
0.000273891
0.0633738
0.000166261
0.000203587
0.000146417
0.0275698
0.0628642
0.000144869
0.000144963
0.00015164
0.0246121
0.000179458
0.000148586
0.00213535
0.0490952
0.000165891
0.00020328
0.000158261
0.00014722
0.000211417
0.026045
0.0693807
0.000207471
0.000151335
0.0110684
0.000189999
0.000147646
0.000156356
0.00406373
0.000162564
0.000149497
0.00218906
0.000157998
0.000167042
0.000144958
0.000151006
0.000152216
0.0464135
0.0673736
0.011581
0.000156475
0.000482685
0.0612281
0.0686555
0.000166855
0.000147845
0.000149522
0.0556858
0.000149292
0.00014642
0.00025875
0.0475462
0.0557432
0.000148968
0.000152563
0.000248327
0.00014774
0.000163661
0.000147741
0.0566621
0.000149039
0.0515147
0.0253052
0.000171298
0.00014784
0.000149807
0.000159089
0.000154915
0.0549202
0.000150229
0.000148861
0.000148651
0.000184297
0.000243206
0.0112784
0.000160921
0.000202604
0.000149231
0.000146501
0.0001492
0.0201277
0.0132012
0.000481093
0.000181878
0.000155271
0.000151013
0.000527929
0.000158598
0.0726482
0.00014879
0.0332071
0.0599383
0.000178317
0.000148054
0.000147516
0.000160782
0.0001739
0.0549694
0.000172177
0.000146666
0.000146391
0.000149734
0.000206409
0.000170407
0.000169023
0.000150326
0.0126565
0.000210087
0.00018623
0.000148986
0.00245416
0.000147085
0.000147796
0.000762756
0.000146673
0.000147495
0.000186583
0.000147326
0.0154639
0.000158429
0.000152474
0.000146872
0.000166202
0.0380774
0.000152468
0.000145605
0.000147969
0.000191953
0.0477538
0.000149759
0.000149847
0.052873
0.000165335
0.000182478
0.000179329
0.000147822
0.000172699
0.0001499
0.000149773
0.000177085
0.000206088
0.000182733
0.000193394
0.000144503
0.000166858
0.000150822
0.000148396
0.00433793
0.000147624
0.000207268
0.000167965
0.000148592
0.000145047
0.000203666
0.00745224
0.0658657
0.000148719
0.000156406
0.0257325
0.000146758
0.000252774
0.000159261
0.000158694
0.00023852
0.000144499
0.000317914
0.000148289
0.000161803
0.000148711
0.000182211
0.0374308
0.000149787
0.0402205
0.000164269
0.000148175
0.000169303
0.000177533
0.00401741
0.060475
0.00153061
0.00014874
0.000146047
0.0705442
0.000164087
0.000148707
0.000149796
0.00229028
0.00021101
0.000421753
0.0739544
0.000148544
0.000152132
0.000527383
0.000147812
0.000150043
0.000220498
0.000167257
0.000153848
0.0106105
0.000149821
0.000161958
0.000254766
0.00900815
0.000145561
0.000148334
0.000147723
0.000147002
0.000165158
0.000147004
0.000164845
0.000147728
0.000152724
0.000148565
0.000151024
0.000147472
0.00014833
0.000147331
0.00014732
0.000151184
0.000170844
0.0182949
0.00014773
0.0135503
0.000159186
0.0189248
0.000162625
0.000177242
0.00014934
0.00670127
0.00014972
0.000147891
0.000148815
0.000145408
0.0584413
0.000152897
0.000146745
0.000168824
0.000164559
0.000147841
0.00014675
0.0573241
0.000149398
0.000147137
0.000526625
0.000147306
0.000462589
0.00918266
0.000219114
0.000153482
0.000151119
0.0439342
0.0001496
0.000147505
0.000437418
0.000149775
0.000144866
0.0123806
0.000146546
0.0401519
0.000171503
0.000180452
0.0119775
0.000149698
0.000147496
0.0507078
0.00018145
0.0278439
0.00187008
0.000147747
0.000147285
0.000149253
0.0382469
0.000162041
0.0001485
0.000149816
0.000149234
0.00016226
0.0004829
0.000155533
0.000149151
0.00014982
0.000162125
0.000236298
0.0494925
0.0343057
0.0142576
0.000162816
0.000162122
0.0338847
0.000148874
0.000146755
0.000147964
0.000147702
0.000164718
0.000147961
0.00014635
0.00696577
0.000162495
0.000168535
0.0669269
0.000163172
0.0209412
0.000147627
0.000147396
0.000147882
0.000147654
0.000149878
0.000149861
0.000147859
0.0209496
0.000148711
0.000144732
0.000515674
0.000186444
0.000146814
0.000151513
0.000164374
0.000759413
0.00015131
0.000147037
0.00316326
0.000151923
0.0141634
0.000159707
0.000147069
0.00728025
0.000186471
0.000146091
0.0764934
0.0166343
0.051872
0.00014706
0.000146934
0.000154371
0.000190896
0.00014953
0.0132275
0.0315553
0.00776681
0.000265395
0.000145348
0.000171342
0.0371919
0.0665009
0.0592669
0.000148888
0.000155028
0.000155367
0.0471594
0.0099204
0.000235198
0.00014905
0.000147741
0.000148744
0.000162323
0.000147888
0.0427096
0.000155994
0.0565339
0.000148102
0.000149126
0.000147425
0.0001573
0.000158896
0.000234641
0.000147369
0.000186071
0.000413087
0.000161914
0.000148045
0.000152042
0.000162985
0.000149796
0.000161643
0.000167482
0.000161506
0.000185328
0.000149958
0.000146054
0.000147967
0.000149843
0.000165395
0.00015385
0.000177225
0.000147578
0.000150445
0.0258934
0.000144555
0.000157583
0.000149792
0.000183081
0.000152201
0.0580857
0.000149902
0.00859832
0.000153963
0.000152047
0.0596945
0.025803
0.060935
0.000162023
0.000152583
0.000147137
0.000147721
0.000186647
0.000168297
0.000158819
0.000169597
0.0200675
0.000205171
0.000147366
0.0718149
0.00461592
0.000151852
0.000147725
0.000157625
0.0637224
0.000160743
0.000149396
0.000163918
0.000183686
0.00016872
0.000156726
0.000334316
0.000155881
0.000185268
0.0234269
0.000245944
0.00553824
0.000163758
0.00018067
0.000157672
0.000148388
0.000151946
0.000147991
0.000182619
0.000182443
0.02978
0.000170377
0.0474984
0.0128985
0.000163061
0.000152066
0.0261091
0.0882926
0.000145076
0.000171906
0.00833941
0.0202038
0.000155746
0.000145198
0.000155768
0.000156668
0.00016272
0.000181698
0.000147641
0.00850535
0.000151292
0.00015311
0.0492273
0.00014752
0.000159138
0.0606059
0.000147506
0.000150568
0.0700147
0.000146161
0.000186128
0.000144563
0.0152491
0.000162242
0.000169724
0.000158838
0.000154128
0.000190369
0.000153135
0.0201915
0.000181505
0.000148668
0.0275963
0.000170242
0.000348057
0.0184629
0.000157387
0.00022887
0.000147771
0.000145482
0.0160097
0.000152171
0.00016221
0.00014956
0.000157815
0.0112575
0.0614057
0.000165474
0.016784
0.000164378
0.000151449
0.000145223
0.000149487
0.000169468
0.000170375
0.000146514
0.0448238
0.000156805
0.000165203
0.000149799
0.0726553
0.0540591
0.000148086
0.00014508
0.000181649
0.00014961
0.000146081
0.0141637
0.000171819
0.000149523
0.000147702
0.000192544
0.000167726
0.000160243
0.000163716
0.00014828
0.040474
0.000173601
0.00014898
0.00018286
0.0619047
0.000147532
0.0556966
0.00014555
0.000147512
0.000149452
0.000158606
0.0531579
0.000163767
0.0258845
0.000159117
0.0482989
0.000332418
0.000157533
0.0445987
0.000148395
0.0912235
0.000151756
0.0243784
0.0336217
0.000148903
0.000457363
0.000153656
0.000154336
0.0746729
0.000166009
0.0479574
0.000146634
0.0593739
0.000147932
0.0247025
0.000149236
0.000155721
0.000162321
0.00014669
0.000145293
0.000174656
0.00393816
0.0142461
0.000147327
0.000338104
0.000157142
0.00014673
0.000148695
0.000155728
0.000192236
0.0849784
0.000162919
0.000149692
0.000155777
0.0517349
0.000155598
0.000147659
0.000146695
0.000156276
0.000160169
0.0170666
0.000147465
0.000229296
0.000162777
0.00228742
0.0500759
0.00535197
0.000145003
0.00017893
0.000147601
0.000149157
0.000158813
0.0107062
0.00014669
0.000147125
0.000147219
0.089684
0.000151197
0.000148801
0.00015978
0.000160063
0.069978
0.0269567
0.000147377
0.000147953
0.0687512
0.000148968
0.0720977
0.038224
0.0578598
0.000174583
0.000178154
0.0214269
0.000162689
0.000149032
0.000146544
0.000148388
0.000149303
0.00014865
0.000149385
0.0684305
0.00800631
0.000149018
0.0001675
0.000146239
0.000151549
0.00016409
0.000148474
0.000153336
0.000150755
0.000192141
0.000378273
0.000172669
0.052748
0.000162643
0.00659786
0.000170774
0.0522798
0.076816
0.000173748
0.000437937
0.000208727
0.0185482
0.000147833
0.000147741
0.00014767
0.000156829
0.057761
0.000146381
0.000149827
0.000180226
0.000146676
0.000162766
0.000162032
0.000149397
0.0195931
0.000148517
0.000147965
0.00019296
0.000145841
0.000194156
0.000190597
0.000148697
0.000151557
0.000146723
0.00016545
0.000146661
0.000151839
0.00015421
0.000147978
0.0722978
0.000148775
0.0736941
0.000155097
0.00018793
0.000147571
0.000182673
0.000163674
0.000149079
0.000148715
0.0754911
0.000147754
0.0186314
0.0214705
0.000150285
0.000148639
0.000148418
0.000145056
0.0141975
0.000147674
0.076532
0.00891772
0.000165361
0.0394662
0.000147081
0.000147473
0.0670257
0.0721864
0.000152701
0.000147843
0.00014788
0.00014647
0.000152448
0.00016151
0.000228687
0.000153678
0.0126983
0.000348806
0.0372682
0.000158037
0.000147834
0.0281396
0.0277617
0.000159909
0.00014759
0.000148819
0.0819796
0.000147927
0.0158474
0.000164872
0.000149656
0.00015581
0.000145984
0.000162665
0.000155889
0.000146693
0.000144582
0.000152134
0.0313337
0.000149435
0.000180149
0.0314665
0.00014872
0.000147322
0.000161524
0.0160656
0.000161602
0.0653808
0.000149671
0.000145001
0.000151379
0.0213214
0.000187769
0.000288084
0.000147699
0.000157072
0.000148263
0.0610507
0.00014596
0.0183779
0.000162137
0.0150276
0.000149211
0.000147271
0.000177994
0.000147727
0.0273324
0.000148714
0.000393987
0.000149681
0.000146436
0.000152209
0.000214049
0.0238
0.00015516
0.000149973
0.000149721
0.000148651
0.000146484
0.000149861
0.000186934
0.000149367
0.0525273
0.00015189
0.0671878
0.000148122
0.000145176
0.000160043
0.0722507
0.0478959
0.000149642
0.0324787
0.000148256
0.00610473
0.000149863
0.000199315
0.000146971
0.053437
0.000147373
0.000155823
0.000148209
0.000147656
0.000149721
0.0591941
0.000555266
0.0372383
0.000158172
0.000156952
0.000153422
0.000147761
0.000145593
0.000146165
0.00015125
0.000192741
0.000149051
0.0141059
0.000183919
0.000147823
0.000149902
0.00515305
0.000186692
0.000151327
0.000153284
0.000158494
0.0242224
0.000175408
0.0905367
0.000179495
0.000181091
0.000173224
0.000147981
0.000147411
0.000180445
0.000161014
0.000147966
0.00245988
0.000156155
0.0183218
0.000149402
0.000181983
0.00015828
0.000173588
0.000155474
0.000148277
8.86077e-05
0.000148258
0.0144328
0.000148305
0.000148237
0.0674489
0.000162132
0.000158255
0.0765949
0.000147468
0.000168258
0.0224623
0.000147722
0.000168468
0.0264968
0.000150532
0.000147464
0.000148293
0.000153822
0.000153179
0.000181765
0.0608687
0.00015249
0.000154891
0.029729
0.00014546
0.00810222
0.000154989
0.000151651
0.000252084
0.010761
0.000146085
0.000147304
0.000152805
0.000146082
0.000145689
0.0510965
0.000149786
0.000158577
0.000145117
0.000163424
0.000146067
0.000170709
0.000215539
0.000151585
0.0455327
0.000147387
0.000152347
0.000147719
0.0419755
0.000156247
0.000146893
0.000147804
0.000148662
0.000147476
0.000186707
0.0578196
0.025482
0.0447836
0.000149168
0.00014964
0.000183282
0.000148957
0.000146008
0.000250703
0.0443148
0.000151856
0.000148161
0.0322316
0.000149461
0.000149182
0.041091
0.000181886
0.0442511
0.000151095
0.000147783
0.0454089
0.000148991
0.0001578
0.000149436
0.000161128
0.000148011
0.000177349
0.000198087
0.000170414
0.000148582
0.045428
0.00015026
0.000146923
0.000149358
0.000148324
0.000147717
0.000148614
0.0510612
0.000149429
0.00631717
0.000149164
0.000158976
0.0761938
0.000146484
0.000188408
0.000151089
0.000146422
0.00015167
0.00018099
0.000148103
0.000147199
0.000148768
0.00014806
0.000175828
0.000145784
0.000149704
0.0001563
0.000148524
0.000158828
0.0133665
0.0451239
0.0226702
0.0404881
0.000186267
0.000173415
0.0765626
0.0551695
0.000148547
0.000149294
0.000145388
0.000170811
0.0593822
0.000161217
0.000154152
0.000145181
0.000147763
0.00014898
0.000152151
0.0412927
0.0549877
0.0097126
0.000177766
0.000148604
0.000149534
0.000148975
0.0337111
0.00131721
0.000147683
0.000342478
0.00014564
0.000161553
0.000152172
0.000162692
0.000160991
0.000242958
0.000151101
0.000170514
0.000145921
0.000147142
0.000173849
0.000147386
0.0001483
0.000175987
0.000205174
0.000148781
0.000166586
0.000147382
0.000147995
0.000146575
0.000147821
0.0289618
0.000157564
0.000150881
0.00014888
0.043176
0.000172411
0.000148396
0.000157635
0.000160735
0.0203594
0.000222822
0.0657088
0.000200464
0.000181035
0.000188579
0.000193811
0.000170454
0.0369624
0.000145018
0.000147329
0.000147635
0.000172619
0.000149081
0.0259536
0.000147261
0.000148885
0.0694995
0.000172752
0.000149635
0.000165701
0.0001475
0.000150795
0.000276035
0.000185612
0.00014753
0.000210713
0.00018632
0.0139364
0.0606293
0.000147937
0.037464
0.000147337
0.000167636
0.000146929
0.000146755
0.0346133
0.000161842
0.000151776
0.000147834
0.0481721
0.000153643
0.00709341
0.0214282
0.000149734
0.000145778
0.000152845
0.049376
0.000182684
0.000169261
0.000158679
0.000206523
0.000147993
0.000149884
0.000147845
0.000148072
0.000151048
0.000163101
0.0771694
0.000177644
0.00018794
0.0314742
0.000147876
0.0157906
0.000186174
0.000162288
0.000149222
0.00014782
0.000147349
0.000147245
0.00014743
0.0108122
0.000183655
0.060654
0.000177643
0.000184607
0.000149064
0.000185453
0.0612661
0.000161236
0.000155333
0.000146855
0.0685449
0.0392139
0.000176153
0.0001879
0.000148073
0.0103337
0.000150416
0.00015277
0.000168202
0.000169103
0.000145913
0.000180553
0.0534222
0.000149837
0.0151754
0.0581681
0.0777605
0.0106957
0.00016255
0.000241594
0.000163892
0.000163098
0.03761
0.000147212
0.000158943
0.000146945
0.000149645
0.0504486
0.000152088
0.0760628
0.000145874
0.000148756
0.0609078
0.000147931
0.0721666
0.00015055
0.000191936
0.000151906
0.000149165
0.0723374
0.000155408
0.000179254
0.000146967
0.00014721
0.000204352
0.000176729
0.000148276
0.000155881
0.000236932
0.000179862
0.000354998
0.000149722
0.000147544
0.000144671
0.000147634
0.000157125
0.00016434
0.000145374
0.0635284
0.000147342
0.000148143
0.000171212
0.0342794
0.000178081
0.000159619
0.000146242
0.000150936
0.000180298
0.000302694
0.000264921
0.0457833
0.000157601
0.000162869
0.000209573
0.000148378
0.000168523
0.0429197
0.000147407
0.000205208
0.0202966
0.000236425
0.000243075
0.0760562
0.000181241
0.000148799
0.00180197
0.000154872
0.000170622
0.000181666
0.000147513
0.000187004
0.000147497
0.000148139
0.000173112
0.0118431
0.000159055
0.00014743
0.000164178
0.0316158
0.000166671
0.0175573
0.000147653
0.0328475
0.000145995
0.000170188
0.000184709
0.000147809
0.0285998
0.000147687
0.000146733
0.000148655
0.00014793
0.07412
0.000181874
0.000149656
0.065749
0.000148439
0.0173363
0.000145948
0.0156076
0.000161911
0.000185433
0.000152901
0.000147797
0.000145728
0.000148537
0.000220732
0.000175137
0.000148763
0.00016951
0.0147714
0.0808925
0.000170832
0.0519299
0.0307083
0.000147824
0.0301779
0.000146415
0.000207211
0.000147922
0.000148658
0.00014904
0.000176013
0.00386938
0.000205048
0.000182008
0.0501428
0.000189114
0.000184565
0.0394885
0.000147014
0.000172401
0.0161163
0.000144734
0.000172843
0.0133317
0.000205322
0.000147519
0.0494872
0.000165387
0.0177008
0.00234262
0.000156663
0.000182291
0.000155015
0.000147513
0.000145034
0.0281295
0.000198089
0.000180206
0.00019622
0.000147191
0.00205893
0.000159163
0.000144408
0.000149776
0.000176938
0.000153238
0.000149389
0.000149777
0.000219953
0.000147142
0.000163383
0.0244472
0.000145688
0.000147115
0.00135034
0.000146785
0.000161316
0.000158778
0.000178383
0.00032303
0.000147863
0.000180398
0.000159227
0.000169176
0.000157071
0.000153798
0.000168026
0.000213326
0.000170038
0.0420964
0.000167059
0.00014867
0.000209509
0.0611235
0.000180729
0.000146332
0.000148215
0.000171013
0.00015236
0.0549052
0.000199192
0.000158577
0.0255267
0.00015202
0.000201621
0.0609214
0.00014817
0.000148753
0.000148356
0.000147773
0.000500344
0.000235097
0.000155353
0.000201627
7.20181e-05
0.000168464
0.000148702
0.000153549
0.000170928
0.000147456
0.000146991
0.00211203
0.000151244
0.000501312
0.000146685
0.000147822
0.000149798
0.000168038
0.000161127
0.000166395
0.00014852
0.000151595
0.0777681
0.0206639
0.000355022
0.000571329
0.00015389
0.000150209
0.0793041
0.000182468
0.0142487
0.000162845
0.000147419
0.000172155
0.000155093
0.00014984
0.000146409
0.000167742
0.000181456
0.0462315
0.000181134
0.000243464
0.000148817
0.000150641
0.000148552
0.000187586
0.0214807
0.000201225
0.000417464
0.000147368
0.056558
0.000151479
0.000147625
0.000152545
0.000149001
0.000185863
0.000147892
0.00018235
0.000145657
0.000378647
0.000157889
0.0152571
0.000150105
0.000148806
0.000155361
0.000145988
0.00018467
0.000432591
0.0759583
0.0001721
0.000145438
0.0782131
0.000163761
0.000147807
0.000167802
0.000146838
0.000153152
0.000144623
0.000192071
0.000153768
0.000177487
0.000172101
0.000146633
0.0727891
0.00014544
0.000155669
0.00014952
0.000152614
0.000146096
0.000147879
0.000161074
0.000149866
0.000154143
0.000145818
0.000152399
0.000303075
0.0568881
0.000149825
0.000171075
0.0794155
0.000147232
0.000148979
0.000158317
0.00018737
0.000147946
0.000174717
0.00164215
0.000150839
0.0653711
0.0155185
0.0001479
0.00014988
0.000166681
0.000144295
0.00617164
0.0564139
0.0390559
0.000151563
0.000159347
0.000144823
0.000310987
0.000156095
0.00019157
0.000149585
0.00017946
0.01388
0.000182941
0.000152888
0.00156604
0.0160044
0.0497291
0.000149669
0.000146561
0.0585109
0.000352799
0.000146623
0.000148576
0.000188193
0.00014978
0.00021228
0.000299371
0.000146135
0.000149871
0.00261987
0.000179441
0.000150974
0.000144341
0.000164708
0.000149327
0.000218244
0.000147305
0.0001489
0.000148123
0.000152425
0.000148328
0.000183212
0.000146911
0.000154347
0.0545463
0.0332228
0.0285538
0.000147091
0.00016888
0.000182744
0.000148735
0.000152983
0.000168733
0.000147169
0.000152007
0.0118521
0.000164234
0.000147964
0.000148359
0.000147696
0.0146136
0.0630043
0.000146736
0.00014969
0.000147733
0.000178497
0.0352572
0.000151795
0.000174015
0.000148886
0.000165415
0.000159125
0.000234505
0.00855161
0.00014915
0.000232025
0.0739867
0.000163169
0.000147624
0.000163413
0.000159063
0.000162136
0.000155225
0.000147837
0.000187974
0.000155301
0.000263908
0.00016162
0.000149089
0.000149515
0.0544327
0.000148886
0.00016026
0.000206838
0.000161003
0.0846098
0.0181115
0.000147552
0.000181454
0.00019144
0.000183082
0.00016227
0.000151971
0.000148315
0.00438567
0.000161474
0.000147978
0.000167694
0.000178758
0.00031414
0.0501195
0.000148307
0.000155671
0.000149206
0.000207274
0.000198438
0.000149184
0.000172365
0.000154256
0.000151283
0.000149189
0.0170585
0.000177595
0.000147936
0.000152746
0.0209564
0.000149717
0.000147907
0.000156714
0.000165311
0.000148123
0.000148993
0.000152439
0.0106222
0.000159763
0.000147565
0.000146855
0.000148517
0.000170976
0.000147821
0.000147472
0.000233309
0.0827263
0.000147526
0.000149741
0.000176933
0.000161571
0.000169076
0.000148988
0.0188065
0.000147152
0.000150431
0.000159609
0.085653
0.0257921
0.000192026
0.000169396
0.0610603
0.0211375
0.0269154
0.0306523
0.000153096
0.000147951
0.000146022
0.0001613
0.000147442
0.000147875
0.000148955
0.000176669
0.000147619
0.0287569
0.000161768
0.0664103
0.000148405
0.0573967
0.000148226
0.000156856
0.000145851
0.000150707
0.000160656
0.000262046
0.00014888
0.000146881
0.000153931
0.0621489
0.000147215
0.000168373
0.000149225
0.000162593
0.014245
0.000178409
0.000473457
0.000158187
0.000208755
0.000148863
0.0440555
0.0121144
0.000146999
0.0685478
0.0250575
0.000147678
0.000144911
0.000167727
0.000160332
0.000166942
0.000145779
0.035318
0.000158012
0.000172497
0.000145766
0.000147516
0.000157765
0.017812
0.0011906
0.0123762
0.000168239
0.0218192
0.000160497
0.0292806
0.000148424
0.000346554
0.000147644
0.000155634
0.000557796
0.000151105
0.0002036
0.000147566
0.000153107
0.0549171
0.00391085
0.000147585
0.000201333
0.000147848
0.0710708
0.000146593
0.0695053
0.0249281
0.000147836
0.0308939
0.000156561
0.0399879
0.000147932
0.000155057
0.000150543
0.000173077
0.000147995
0.000236573
0.000146514
0.0706524
0.000183031
0.0671546
0.000149073
0.000145869
0.000577462
0.000152211
0.000157519
0.000147513
0.0001665
0.000153222
0.00014813
0.0190725
0.000148521
0.000147436
0.000149499
0.000148728
0.0437593
0.000162638
0.0001475
0.0388021
0.000486505
0.000195207
0.000147279
0.000178715
0.00045154
0.000147654
0.000156301
0.000149774
0.000148168
0.000147489
0.00014824
0.000156445
0.000159975
0.0632784
0.000186016
0.000181207
0.000149835
0.000147529
0.0568779
0.000166887
0.000147368
0.000149797
0.016923
0.0740491
0.000148195
0.0658799
0.000160832
0.000198526
0.000149842
0.0596671
0.000146144
0.000151868
0.00014857
0.000147022
0.000151492
0.0353329
0.000146123
0.0589212
0.000198656
0.000358072
0.00370398
0.000148587
0.000148295
0.0612724
0.000166662
0.000167825
0.000147812
0.000189816
0.000148969
0.0760274
0.0393718
0.041207
0.000148556
0.0755304
0.0496237
0.0600443
0.000194617
0.000153858
0.000179992
0.00014747
0.000239561
0.0669911
0.000160762
0.0440884
0.000146574
0.000148179
0.000167837
0.00155464
0.000161866
0.00037044
0.000147749
0.0535223
0.000168876
0.000163003
0.000146616
0.000163975
0.000180559
0.000148158
0.000167926
0.000167402
0.000210186
0.000145912
0.000147179
0.0490814
0.0470299
0.000152033
0.0354514
0.000160691
0.000147801
0.0646252
0.0217035
0.000148558
0.00024106
0.000145943
0.000148677
0.000172066
0.0483279
0.000149246
0.0538321
0.000151687
0.000147815
0.0157135
0.000149336
0.000179748
0.000146832
0.00032632
0.000148043
0.0168072
0.000146792
0.000163227
0.000148242
0.000155304
0.000178171
0.0758142
0.000162175
0.0343524
0.000160376
0.0616043
0.0654745
0.0399086
0.000147011
0.0207673
0.0828495
0.0164362
0.000235045
0.000149684
0.000146897
0.000148427
0.000142346
0.000147918
0.000148946
0.000243349
0.00014957
0.0294989
0.000150865
0.0475255
0.000148039
0.000149492
0.000188065
0.000145262
0.00017608
0.00014732
0.000167738
0.000181058
0.0219272
0.000146571
0.000147611
0.078297
0.0614281
0.000149597
0.000159447
0.000164263
0.00014996
0.00802271
0.0474767
0.0798749
0.000193758
0.0295184
0.0367408
0.000204653
0.000147112
0.00014643
0.000150486
0.00014742
0.000158403
0.0282321
0.0667266
0.000148493
0.000152422
0.000151221
0.000736811
0.0609946
0.000549319
0.000509953
0.000148653
0.00049342
0.0621776
0.000154624
0.0442954
0.00017283
0.000148834
0.0700123
0.0353066
0.00629431
0.000149325
0.000150794
0.00016688
0.000240385
0.000147044
0.000148525
0.00014958
0.000146666
0.000148181
0.0687528
0.000152094
0.00014575
0.02389
0.000148609
0.0423021
0.000167873
0.0433357
0.000237332
0.000147689
0.0851998
0.000172193
0.00022248
0.000150295
0.000159748
0.000147941
0.000150786
0.0181453
0.000193237
0.000174065
0.000150298
0.000147361
0.000172174
0.000151761
0.000148313
0.000155129
0.000147418
0.0516025
0.00014783
0.0577499
0.0296098
0.000151317
0.000147704
0.0309221
0.000146996
0.000146941
0.000224721
0.000153111
0.000152152
0.000177216
0.000286638
0.0807955
0.00015968
0.000151484
0.000149171
0.0521279
0.0213511
0.000160603
0.000167118
0.000147426
0.000147837
0.00015258
0.000146622
0.000187198
0.000161206
0.000148422
0.000149173
0.000148534
0.000147666
0.000147976
0.000147345
0.000323499
0.0313375
0.0519123
0.000206691
0.0200886
0.000187911
0.000153609
0.0263129
0.0195383
0.027584
0.000148525
0.000147136
0.00046226
0.00522108
0.000205492
0.00020007
0.0534051
0.00014854
0.000147652
0.0501638
0.000146768
0.000191216
0.000192494
0.000150712
0.0141075
0.0558807
0.000149715
0.01553
0.0270521
0.000173398
0.000207029
0.000149099
0.0421484
0.000251855
0.0700988
0.000146807
0.000164652
0.0200753
0.000147248
0.000169364
0.00014761
0.000171585
0.000148694
0.0312435
0.000141393
0.000148419
0.000152443
0.000149598
0.0396833
0.000168818
0.000148915
0.000149157
0.0581261
0.000147658
0.000152435
0.000175956
0.000191414
0.000149738
0.000166606
0.000162111
0.000147491
0.000193849
0.000147903
0.000147721
0.000158647
0.000147628
0.00016358
0.0624781
0.000210372
0.000147954
0.0603827
0.017393
0.000186158
0.0148173
0.000169831
0.000153119
0.0451756
0.000158074
0.000152343
0.000166488
0.000169479
0.000148381
0.000146655
0.000148641
0.000209586
0.0359676
0.081309
0.0617153
0.0001466
0.000154127
0.00017563
0.00017678
0.0486497
0.000148823
0.0600928
0.000149341
0.0212509
0.000145778
0.0393887
0.000150252
0.0655661
0.0264953
0.000183888
0.0549135
0.000164157
0.000146724
0.000166916
0.0116439
0.0681663
0.000156736
0.000149479
0.000147518
0.000148797
0.000159658
0.000149905
0.00015166
0.000146759
0.000176165
0.000147988
0.0672466
0.000149445
0.042697
0.000145922
0.000194499
0.0644767
0.000150737
0.00463817
0.000147961
0.000156572
0.00014881
0.000149272
0.000147832
0.000186199
0.000185566
0.000146912
0.000152491
0.000147947
0.0570696
0.000161654
0.000225923
0.000206745
0.000148043
0.000173223
0.00015129
0.000150562
0.000161618
0.000148621
0.000166908
0.0727517
0.000148057
0.0595978
0.000155441
0.000147503
0.000146136
0.0286112
0.00014793
0.0775221
0.00017718
0.000149773
0.0173527
0.000188361
0.00566633
0.000157256
0.000153682
0.000148598
0.0001743
0.0605432
0.000148843
0.000166149
0.000148593
0.000188791
0.000367757
0.0214621
0.074394
0.0488165
0.000157451
0.019785
0.000148778
0.0448325
0.000225726
0.000157138
0.000237957
0.000179131
0.000145119
0.000162773
0.000147965
0.000146715
0.000152626
0.000147912
0.000539169
0.00026475
0.000194264
0.0006808
0.000148389
0.00212211
0.000148285
0.000147652
0.000168994
0.0593726
0.000146818
0.0396722
0.000168205
0.000187835
0.0217993
0.000149549
0.000168659
0.027681
0.000162097
0.000148006
0.000187778
0.000147947
0.000148771
0.000149574
0.000271603
0.0600522
0.00015499
0.000148585
0.034686
0.0719256
0.000149278
0.000149536
0.000779296
0.0804086
0.000149059
0.000182617
0.000182782
0.000147308
0.000163181
0.000145929
0.0600113
0.000147719
0.0925466
0.0780878
0.0752729
0.000153733
0.000157778
0.000147578
0.000146549
0.0179661
0.00014693
0.0270599
0.060066
0.000173885
0.00014679
0.000146095
0.00020626
0.000187367
0.000162644
0.0858708
0.00018149
0.00126359
0.000151899
0.0593869
0.000315744
0.000158471
0.000186705
0.0861245
0.0195918
0.000148556
0.00591136
0.000146201
0.00258398
0.000222548
0.000225439
0.00014547
0.000166572
0.000148626
0.000253884
0.0475546
0.000151289
0.000150522
0.0893613
0.0390609
0.000148181
0.0456486
0.0161919
0.000727678
0.000149393
0.0833628
0.000148952
0.013287
0.000148674
0.000151276
0.000149316
0.000148224
0.0263634
0.000305783
0.000146263
0.0428723
0.0200907
0.000144617
0.000146065
0.000161479
0.000165677
0.000187343
0.000167325
0.0331694
0.0468121
0.0556873
0.0843088
0.00018633
0.000150879
0.000192519
0.000181978
0.0191998
0.0392314
0.0316133
0.00018592
0.000176289
0.000153431
0.0190419
0.000169106
0.00019538
0.000149163
0.000154178
0.0601677
0.000148543
0.000157461
0.000195591
0.000152833
0.000169344
0.000148355
0.000151434
0.0681654
0.000183997
0.000145906
0.000154075
0.0440815
0.000109198
0.000163828
0.000288418
0.016999
0.000168085
0.000203476
0.0444477
0.000150001
0.0454535
0.000186396
0.018
0.000148888
0.000144306
0.0197642
0.0289009
0.0337895
0.0832444
0.0370268
0.000161538
0.000182581
0.000152136
0.0376315
0.000147979
0.000148041
0.000171606
0.000179137
0.000177305
0.0327803
0.000150507
0.000480288
0.0393735
0.000150299
0.000185257
0.000159274
0.000177747
0.000185275
0.000168565
0.0347975
0.0425219
0.0373686
0.000301793
0.000162288
0.000147951
0.000150961
0.000159086
0.000338068
0.0333512
0.0386915
0.0295582
0.000163333
0.00014675
0.000222603
0.000167659
0.0604333
0.000148555
0.0172441
0.000168828
0.0394986
0.000148521
0.0325082
0.000174667
0.000180716
0.000534939
0.00014672
0.0207207
0.0305061
0.000146762
0.000179965
0.049976
0.000150138
0.000240798
0.000152791
0.000151614
0.000149697
0.0593136
0.000169497
0.000250187
0.000160846
0.074215
0.000146572
0.000144505
0.00014728
0.000148298
0.000147534
0.0810443
0.000187367
0.0404364
0.000149352
0.000146786
0.0798483
0.000160486
0.0328866
0.000185118
0.000148533
0.000231538
0.000157043
0.000168357
0.0416728
0.000158314
0.0220647
0.000207637
0.000155377
0.000145291
0.000179866
0.000144668