/*--------------------------------*- C++ -*----------------------------------*\
| =========                 |                                                 |
| \\      /  F ield         | OpenFOAM: The Open Source CFD Toolbox           |
|  \\    /   O peration     | Version:  v2012                                 |
|   \\  /    A nd           | Website:  www.openfoam.com                      |
|    \\/     M anipulation  |                                                 |
\*---------------------------------------------------------------------------*/
FoamFile
{
    version     2.0;
    format      ascii;
    class       volScalarField;
    location    "950";
    object      k;
}
// * * * * * * * * * * * * * * * * * * * * * * * * * * * * * * * * * * * * * //

dimensions      [0 2 -2 0 0 0 0];


internalField   nonuniform List<scalar> 
18758
(
0.000174667
0.00250561
0.000144252
0.0461933
0.0709665
0.0782276
0.00877777
0.000145854
0.000209255
0.000156454
0.000152713
0.0560944
0.000148178
0.000211938
0.000152173
0.000194401
0.000171106
0.000147446
0.000148425
0.000158737
0.0285845
0.000149793
0.0436794
0.00117069
0.000570484
0.000145881
0.000251273
0.070113
0.0514613
0.000545912
0.000185144
0.0367519
0.000149142
0.000151022
0.000196679
0.000149079
0.000149462
0.000148518
0.000149532
0.000172376
0.000148536
0.000154699
0.000145784
0.000154551
0.000400915
0.000145155
0.0421805
0.000152982
0.000156105
0.000145533
0.000185937
0.0726186
0.000144702
0.000152342
0.0675641
0.0152082
0.000149395
0.000185296
0.000147954
0.000214559
0.000173085
0.0102803
0.000188604
0.000150337
0.000144759
0.000147993
0.000173169
0.00014911
0.000148143
0.0714263
0.067482
0.000149293
0.000145596
0.000996839
0.000145812
0.000147891
0.000208657
0.0702991
0.00016863
0.0305266
0.0650754
0.0015576
0.000214154
0.0747775
0.000210162
0.000161114
0.0540171
0.000188325
0.00105309
0.000147883
0.0717545
0.000147959
0.0352498
0.000155077
0.0671024
0.0286745
0.000208471
0.000145834
0.00014741
0.0332327
0.000159718
0.0664855
0.000185554
0.000166961
0.0304898
0.000351899
0.043616
0.0721822
0.000150492
0.000149311
0.0365863
0.000931218
0.000146169
0.000148211
0.0608169
0.0222375
0.0283542
0.00015222
0.0427984
0.0640553
0.000165977
0.000148034
0.0801296
0.000231476
0.000217197
0.000373193
0.00129172
0.000350175
0.0287419
0.000148496
0.000171766
0.000247004
0.015814
0.000163333
0.000462231
0.000151927
0.000207851
0.000173301
0.00014739
0.000166823
0.000168627
0.000180962
0.0001479
0.0321923
0.000148575
0.000148849
0.0245626
0.0300768
0.000184971
0.0697984
0.000947765
0.0150327
0.000160917
0.00014979
0.0523351
0.000158621
0.0377106
0.00015297
0.000148732
0.00014992
0.000146618
0.000212594
0.0371779
0.000148702
0.000173445
0.0588287
0.000148624
0.0813371
0.000191231
0.0788674
0.0437622
0.000147416
0.0409011
0.070318
0.00021221
0.000832779
0.0659272
0.000150519
0.000166701
0.000148797
0.000146432
0.00875584
0.0082878
0.000146223
0.00015611
0.00160003
0.000147696
0.0260632
0.000145601
0.000147758
0.000163426
0.000286156
0.000149379
0.000183827
0.000159404
0.000188605
0.000159145
0.000195443
0.000148901
0.000145718
0.000165821
0.000152812
0.000162353
0.000182154
0.000148084
0.000159221
0.000185937
0.000149847
0.0281722
0.000156018
0.000147362
0.000167582
0.000148818
0.000162566
0.000166898
0.0621851
0.000167586
0.000194214
0.000145358
0.0793184
0.000147363
0.000150527
0.000206408
0.0290987
0.000202729
0.000185493
0.0001735
0.000163348
0.0001459
0.000182202
0.000147959
0.000188424
0.0433883
0.000211505
0.000148296
0.000147694
0.000145906
0.000145318
0.0770277
0.00016355
0.000146806
0.00026761
0.0465788
0.000151681
0.0656111
0.0180912
0.000210961
0.000149125
0.0660474
0.000156665
0.000148935
0.0811185
0.00016122
0.000156886
0.000150669
0.000167517
0.000358971
0.000201167
0.000162145
0.000168405
0.000147037
0.000181679
0.000148042
0.000181894
0.000155657
0.000206465
0.0170539
0.000145365
0.000150222
0.000195899
0.000150031
0.000155749
0.00018179
0.0734543
0.0234066
0.000147885
0.000183475
0.00405805
0.000258032
0.000149841
0.000147175
0.000158945
0.000163613
0.000147871
0.00382667
0.000258178
0.0287587
0.00834948
0.0455992
0.000145905
0.000144195
0.000164331
0.0679453
0.000153822
0.000168262
0.000186625
0.000158756
0.0622879
0.000148266
0.00415257
0.0762281
0.000145235
0.066976
0.000160588
0.000148272
0.000160801
0.000180246
0.000151487
0.000148968
0.0157996
0.023072
0.000147477
0.0104397
0.0633855
0.000200126
0.000147959
0.000149383
0.0145669
0.000151593
0.000146119
0.000147368
0.000150761
0.000192015
0.000180389
0.000158888
0.000162858
0.000158736
0.00016416
0.000146884
0.000149846
0.000329488
0.000166659
0.000185095
0.0434406
0.000154097
0.000149236
0.000149874
0.00378863
0.0688693
0.000145991
0.000147281
0.000145993
0.000151766
0.000162647
0.000421723
0.000148017
0.000149047
0.000145531
0.000204691
0.00017996
0.000196466
0.00017965
0.000151517
0.000268638
0.000173831
0.00016468
0.00015751
0.0504202
0.0306515
0.00411228
0.000148162
0.000159949
0.00471884
0.0768885
0.000153753
0.000145927
0.000174739
0.000148512
0.000161524
0.0123499
0.0215588
0.000197741
0.000158278
0.0205778
0.000148213
0.000152778
0.000147552
0.000149566
0.000193255
0.000153453
0.0124473
0.000182197
0.000150449
0.000147488
0.0315462
0.000196805
0.000208544
0.000148204
0.000179448
0.000147076
0.000154188
0.00014804
0.00014542
0.027014
0.0302907
0.000268186
0.0512724
0.00014735
0.000205107
0.0494193
0.000167722
0.000146135
0.0441856
0.000147242
0.000149082
0.000146405
0.000193924
0.000147938
0.000154446
0.000178975
0.0803198
0.000147269
0.0692632
0.000172572
0.000147996
0.000156718
0.000148056
0.000147295
0.000158183
0.000179999
0.000163484
0.0118162
0.00016671
0.000148159
0.000192271
0.0708882
0.0530574
0.0418903
0.000193702
0.000149666
0.000145418
0.000146821
0.000148878
0.000198244
0.000170965
0.000164766
0.000160085
0.000161054
0.00499446
0.000185998
0.000148029
0.000162597
0.0009091
0.00015029
0.0223299
0.000150899
0.000148443
0.0352356
0.000155958
0.000150097
0.000342506
0.000196915
0.000164362
0.0284107
0.000147926
0.000149905
0.000202788
0.0525554
0.000159681
0.000172519
0.000213334
0.00173715
0.010513
0.000211998
0.00014923
0.000189187
0.000148206
0.000198689
0.000151382
0.036576
0.000179122
0.00187093
0.000164551
0.000187863
0.000145238
0.00130603
0.000145627
0.0250444
0.000147586
0.000196217
0.000148227
0.0170498
0.000162235
0.000148456
0.00014743
0.000146348
0.0597977
0.0225458
0.0577741
0.000173246
0.000155177
0.000180562
0.000149786
0.000149909
0.0729182
0.000147444
0.000148298
0.000186952
0.00014812
0.00017196
0.000180568
0.000148271
0.000147934
0.000155708
0.000150102
0.000159145
0.0642416
0.000165304
0.000159223
0.000156075
0.000148185
0.000345181
0.000149388
0.000150446
0.00034404
0.0242789
0.000186923
0.0254576
0.000153999
0.000150378
0.0297412
0.000148525
0.0257496
0.000193572
0.000148405
0.0674987
0.000317397
0.000175284
0.000147359
0.000166186
0.0719819
0.000148549
0.000147763
0.000152356
0.000151441
0.000148932
0.000145975
0.000149956
0.0737974
0.000155335
0.0599521
0.000148033
0.000191317
0.00651663
0.000148082
0.00014566
0.000155212
0.000148761
0.000150011
0.000151145
0.000148708
0.000188237
0.000204923
0.000144771
0.0722225
0.062081
0.000159043
0.000189131
0.000459808
0.000154543
0.000164344
0.000159275
0.068673
0.000155208
0.000175264
0.000148051
0.0118958
0.000169225
0.000179994
0.000194033
0.00822666
0.000155064
0.000147811
0.000173807
0.000497577
0.000149844
0.000207386
0.000149019
0.0555999
0.000150236
0.000147354
0.000146326
0.000148165
0.0629308
0.0584945
0.000148271
0.000232744
0.000157586
0.0553603
0.0283331
0.0107481
0.000660081
0.000148414
0.0731608
0.00018364
0.000147956
0.00017381
0.0713874
0.0275411
0.000150924
0.000149933
0.000148063
0.000144522
0.0302289
0.000188205
0.0684157
0.0445905
0.000148444
0.000148843
0.000175802
0.000149864
0.000146625
0.000151104
0.000151821
0.000188698
0.000168886
0.000192468
0.0725525
0.000172913
0.000148273
0.000155506
0.000181949
0.0732228
0.000174065
0.00548931
0.000171812
0.000148294
0.000226891
0.0556878
0.00014954
0.000146183
0.000172544
0.0699158
0.000195224
0.000148125
0.026091
0.00860701
0.000657519
0.000145497
0.00480855
0.0143982
0.0508021
0.000153444
0.000149251
0.058727
0.00014996
0.000207187
0.0320882
0.000202571
0.00930264
0.000186278
0.0409071
0.00018028
0.000148536
0.000149872
0.0324089
0.0508679
0.0126606
0.0243439
0.000148544
0.000206987
0.000149835
0.000173885
0.000187892
0.00018446
0.000148444
0.000153566
0.000203705
0.0710297
0.0350505
0.0115041
0.000165201
0.000159783
0.00021241
0.000149133
0.000146826
0.000147705
0.000156976
0.000185975
0.000148096
0.000186791
0.000146938
0.000148798
0.000147199
0.0708311
0.000149367
0.000149778
0.00017476
0.000172937
0.000144821
0.0215669
0.00014853
0.000147311
0.000171849
0.00015949
0.000155514
0.000150636
0.00293741
0.000159204
0.000161387
0.0542104
0.00016151
0.0477238
0.000154177
0.000188548
0.0488272
0.0249392
0.000146084
0.0690846
0.000480431
0.000145648
0.0393688
0.000148275
0.000147114
0.000167517
0.000147495
0.000175904
0.0718638
0.000145569
0.040972
0.000148303
0.000165819
0.0493826
0.000144667
0.0678533
0.000151707
0.000148577
0.000147662
0.000147702
0.000205245
0.000165702
0.0195086
0.000173232
0.0752358
0.000175528
0.00014811
0.00020626
0.0141236
0.00107849
0.000166191
0.000196156
0.000183829
0.000156586
0.00020496
0.000150234
0.00305637
0.00014807
0.0053928
0.000151178
0.000166366
0.000155739
0.000149742
0.034651
0.000149943
0.000146666
0.00120539
0.000151721
0.000147219
0.000171744
0.000179735
0.000206129
0.000793766
0.0357532
0.041791
0.000148787
0.000149311
0.0303174
0.000147862
0.000277474
0.000187285
0.000152905
0.000148298
0.000160522
0.000147945
0.000148408
0.000160588
0.000263994
0.000192432
0.000172899
0.000169801
0.00014879
0.000179722
0.0629726
0.000146988
0.000188464
0.000153407
0.0713173
0.000151
0.0586849
0.000148033
0.000543603
0.00014983
0.000183912
0.000148003
0.000156428
0.000163246
0.000144713
0.000147174
0.000145032
0.0630159
0.00830746
0.000164504
0.0710684
0.000148333
0.000170526
0.000158657
0.000211321
0.0308319
0.000164687
0.000144896
0.000180581
0.000146942
0.000148334
0.000158748
0.025032
0.078119
0.000420307
0.014019
0.000165822
0.000150612
0.000147519
0.00159451
0.000147138
0.000806576
0.000158567
0.00014917
0.0776968
0.0819355
0.000148494
0.0244006
0.000156387
0.000201274
0.00016975
0.0248355
0.0815375
0.000332473
0.000147814
0.000144716
0.0727962
0.000147927
0.000148092
0.000159171
0.000148015
0.0576486
0.000220675
0.000175874
0.0675676
0.000172714
0.000196152
0.000153263
0.000147756
0.000144633
0.000146355
0.0235637
0.0262839
0.000237306
0.000148273
0.000144839
0.000163893
0.000147142
0.000167671
0.000154058
0.000614845
0.0749291
0.000186254
0.000215275
0.000242728
0.000147891
0.00020373
0.000147533
0.0335065
0.000457971
0.0432091
0.0392585
0.000151966
0.000160763
0.000395468
0.0671731
0.0451755
0.000161389
0.000183386
0.0360903
0.000148168
0.000212332
0.000241167
0.000199761
0.000148124
0.000148349
0.000168993
0.0432302
0.000345244
0.000170911
0.000147984
0.000155784
0.000156145
0.0209898
0.000149548
0.000238968
0.000147265
0.000150081
0.000197676
0.000146993
0.000147986
0.000151595
0.000155611
0.000147661
0.000150191
0.000145562
0.0309966
0.000258418
0.0364808
0.000146015
0.000162946
0.000148017
0.000207705
0.000207229
0.000161432
0.000147294
0.00015147
0.000220541
0.000192358
0.000159899
0.0280533
0.000199386
0.000148
0.000148444
0.0508656
0.00150817
0.000168881
0.000145275
0.00653745
0.000148738
0.000165008
0.000145844
0.000390397
0.0536165
0.000146909
0.000148864
0.0010998
0.000147842
0.0640292
0.0245904
0.000179962
0.000149206
0.000149031
0.00014582
0.000148077
0.0100571
0.0108068
0.000185886
0.000150725
0.0447488
0.000147676
0.00014775
0.0726094
0.000146995
0.0741179
0.000144561
0.000156261
0.000151135
0.00014772
0.000147115
0.0001487
0.0407488
0.000150152
0.000149233
0.000172651
0.000169238
0.000147647
0.000172664
0.00016245
0.000148737
0.000182586
0.000147669
0.000161356
0.0589801
0.000197541
0.000147847
0.000230774
0.000191801
0.00017928
0.000155218
0.000180447
0.0292799
0.000153779
0.000175646
0.000147688
0.00014592
0.000147889
0.000175179
0.000162679
0.000175521
0.000148087
0.000158138
0.000184115
0.0205215
0.000212635
0.000147748
0.000146479
0.000150504
0.00017532
0.000146664
0.0251857
0.000147684
0.000147877
0.000146475
0.000187725
0.0662785
0.000148948
0.000152815
0.00014706
0.000187606
0.000146549
0.00014806
0.00372034
0.000149784
0.000146039
0.000148777
0.000187339
0.000146453
0.000147737
0.0589173
0.0139974
0.000195724
0.000161017
0.0663855
0.000163117
0.000147671
0.000147467
0.012123
0.00014806
0.000180292
0.00018589
0.000168498
0.00015479
0.000150048
0.000158286
0.000150391
0.000145306
0.00019867
0.0731346
0.000163565
0.000146389
0.0562032
0.000173613
0.0127097
0.00734582
0.000200343
0.000148851
0.00014815
0.000148074
0.00017992
0.000148747
0.000147098
0.0751912
0.000172939
0.000174393
0.000147466
0.000170452
0.000234187
0.000148516
0.000154812
0.000161972
0.000172282
0.000181394
0.000148116
0.000152147
0.000166585
0.000146636
0.000165292
0.000149085
0.0023913
0.000173996
0.000188796
0.000147314
0.000164559
0.0680695
0.0501235
0.0003249
0.000168895
0.021756
0.000148774
0.00014769
0.000150638
0.000180158
0.000149059
0.000151381
0.000157681
0.000180152
0.000147846
0.000147534
0.000148805
0.000149832
0.000248362
0.0202847
0.000477722
0.00014789
0.0220196
0.000156516
0.00014895
0.000164552
0.00014801
0.000181112
0.000151091
0.000148009
0.0532004
0.00751607
0.063571
0.000150102
0.0112551
0.000148009
0.0431199
0.0561458
0.000145188
0.000179627
0.000224696
0.000145311
0.000147568
0.00848133
0.000149842
0.000147968
0.000195384
0.000510986
0.000148039
0.000162197
0.000148919
0.000155424
0.00019232
0.000149036
0.0603711
0.000172381
0.000147567
0.000429108
0.000167768
0.000183262
0.000149914
0.000236474
0.000148242
0.0707141
0.000147971
0.000146523
0.0616208
0.000145756
0.0657728
0.000147605
0.000172385
0.0519952
0.0732684
0.000148008
0.000149321
0.00014803
0.000151047
0.000156835
0.000154665
0.000144321
0.0114703
0.000147211
0.000148543
0.000187247
0.000180237
0.000163613
0.000148033
0.00945816
0.000181689
0.000149882
0.000158883
0.000147663
0.000147137
0.0598177
0.000145354
0.000146568
0.000147274
0.069049
0.000147828
0.000147066
0.0690181
0.000155534
0.0383682
0.000164817
0.000144538
0.000147035
0.00190742
0.000157588
0.000147998
0.0617458
0.0414409
0.000146439
0.046184
0.000188061
0.000148462
0.000148389
0.000191502
0.000149436
0.00971939
0.000159997
0.000148068
0.000597107
0.0372582
0.000206881
0.000147584
0.0299611
0.000157822
0.000186593
0.00632151
0.000147667
0.0254381
0.000147916
0.000157558
0.000157733
0.0710605
0.000145672
0.00015019
0.0141418
0.000149808
0.000159029
0.000145713
0.000148486
0.0365872
0.000179662
0.000153519
0.000164078
0.000544258
0.000149296
0.000152003
0.000173898
0.00019363
0.000156197
0.000147962
0.000147544
0.000148897
0.000150418
0.000146817
0.000159782
0.000156858
0.000449225
0.000147892
0.00650763
0.000147952
0.000160582
0.000147729
0.000160924
0.000148476
0.000147739
0.0401246
0.0573981
0.000153135
0.00014852
0.0374209
0.000156904
0.061801
0.000159444
0.000165552
0.041261
0.00959576
0.0542295
0.000151961
0.000148767
0.000146518
0.0509635
0.000147319
0.000147991
0.000174406
0.000147192
0.000149186
0.000148292
0.0171166
0.000610396
0.000149154
0.000413852
0.0730661
0.000153628
0.000147412
0.00014889
0.0632149
0.000147181
0.000197984
0.000149915
0.000147724
0.000149074
0.000146325
0.000182581
0.000148553
0.000148243
0.00014728
0.00014543
0.000240481
0.000145225
0.00014749
0.000149215
0.000148007
0.000217834
0.00698962
0.000167518
0.000149816
0.000148338
0.000149238
0.000149465
0.0508329
0.00014794
0.000159167
0.000166935
0.0466917
0.000147544
0.00014743
0.0558208
0.000148738
0.000175609
0.000179838
0.000149988
0.0585708
0.0623265
0.000157323
0.0158308
0.000158783
0.000200675
0.00014468
0.00658211
0.00014819
0.00167957
0.000148214
0.000147099
0.00164297
0.000272499
0.000204366
0.000172589
0.000147381
0.0658555
0.000149121
0.0747455
0.000174665
0.000147372
0.000144744
0.00014844
0.000171256
0.000166789
0.068653
0.000170676
0.000147541
0.000147401
0.00014843
0.0213565
0.000179246
0.000159398
0.000148888
0.000147388
0.000160625
0.000218289
0.000148553
0.000159523
0.000165556
0.000147929
0.000153402
0.000150911
0.000175323
0.000175163
0.000153652
0.000166652
0.000145739
0.00014796
0.027552
0.000165838
0.000181468
0.00124697
0.000145336
0.0249684
0.00197269
0.000163037
0.0761774
0.000147728
0.0555568
0.0696658
0.000193158
0.000146441
0.0808704
0.00019406
0.000147814
0.000167831
0.0487758
0.000150007
0.000147685
0.000164867
0.000149791
0.0253623
0.000157688
0.000149008
0.00014987
0.00014721
0.000165067
0.000165905
0.0251099
0.000192533
0.0396033
0.000174346
0.000149719
0.000147745
0.000247711
0.024702
0.00014805
0.000147541
0.000190038
0.000149175
0.000220165
0.0563422
0.0255167
0.000148032
0.00014816
0.0770076
0.00014647
0.0730708
0.000220301
0.000146941
0.0681507
0.000174482
0.000167685
0.000147864
0.00611606
0.000148081
0.0003726
0.000144461
0.000172741
0.000151481
0.000145842
0.0713489
0.000151114
0.000148127
0.000152188
0.0389239
0.000148415
0.000145186
0.0305243
0.000147645
0.000146786
0.000148721
0.000156136
0.000148283
0.000149175
0.000156204
0.000149133
0.000154485
0.000145652
0.000187938
0.0304089
0.000172938
0.0401742
0.00016009
0.000154532
0.000147353
0.000146722
0.000149149
0.0299536
0.0457178
0.000147958
0.000149838
0.000147542
0.026022
0.000145131
0.000212348
0.00108471
0.0625613
0.0650953
0.0282951
0.0432183
0.000146724
0.0502815
0.0386368
0.0590067
0.000154782
0.000148875
0.000172571
0.000145698
0.0310794
0.000192392
0.000175578
0.000157042
0.0269737
0.000147965
0.000144328
0.0595307
0.000193253
0.000148
0.000144579
0.000173474
0.000148713
0.0320308
0.0115408
0.0321202
0.0512175
0.000185056
0.000498206
0.000147922
0.000209294
0.000148636
0.000147963
0.000146645
0.0370469
0.000148901
0.000147291
0.000576538
0.0376172
0.000204264
0.000193601
0.000150933
0.000165332
0.0235266
0.0200134
0.0574592
0.0410852
0.000171786
0.0656191
0.000180641
0.000316311
0.000172908
0.000172081
0.000147375
0.000160925
0.000165195
0.000148215
0.0538681
0.000146929
0.00014797
0.000147918
0.0751861
0.000153973
0.000146597
0.000147078
0.000147951
0.000176573
0.000169782
0.000549376
0.000151096
0.0324358
0.000144611
0.000147705
0.000182095
0.000167088
0.000144426
0.0617079
0.000170604
0.0636238
0.000147766
0.0317476
0.000166777
0.000147687
0.000148291
0.000148031
0.0351772
0.0676826
0.0151136
0.000147724
0.000148922
0.000145005
0.0647608
0.000156435
0.000148307
0.000322273
0.000147902
0.000150307
0.0452481
0.000146164
0.000147862
0.000148342
0.000149928
0.000144568
0.000150387
0.0001445
0.000149057
0.000184527
0.00016642
0.000146757
0.0218493
0.000153182
0.0711886
0.0185781
0.000165453
0.0612403
0.0644186
0.000147259
0.000171113
0.00014804
0.000147108
0.00149397
0.000154773
0.0647613
0.000155263
0.000201849
0.000148478
0.000151053
0.000147325
0.0623964
0.000161882
0.0384241
0.000149009
0.000186834
0.000160935
0.000146486
0.000167003
0.000169729
0.000144996
0.0684103
0.000148572
0.000170677
0.000147901
0.000157604
0.000167037
0.000205664
0.00015519
0.000184722
0.00428967
0.000160779
0.000171271
0.000146057
0.0780813
0.000173279
0.000149794
0.000175533
0.0019722
0.0156027
0.000147965
0.000151272
0.000149078
0.000145638
0.000147856
0.0494846
0.000159901
0.000148422
0.0233209
0.000148665
0.000145097
0.000154328
0.071767
0.000148973
0.0231699
0.0473316
0.000170098
0.0290217
0.000150826
0.0652047
0.000406664
0.000145163
0.000160767
0.000148388
0.000150036
0.00016836
0.0140058
0.000179266
0.0003542
0.000200682
0.000147575
0.0686096
0.000147287
0.0592834
0.000149772
0.0426085
0.051799
0.000148998
0.000147099
0.000149847
0.000164559
0.000182032
0.000147631
0.016563
0.000151871
0.000172817
0.000173674
0.000151317
0.000147339
0.0292786
0.000146501
0.000210368
0.000157352
0.0115534
0.000148762
0.000147517
0.0574051
0.000144226
0.000146196
0.000150286
0.000173478
0.000173615
0.000208292
0.000152526
0.000146357
0.000155318
0.000149571
0.000149621
0.0649273
0.000147521
0.00016698
0.0695933
0.000203455
0.000147898
0.000181683
0.000147735
0.000149338
0.000187417
0.00020523
0.00018198
0.00014956
0.000147879
0.000152933
0.000186138
0.000147632
0.000162838
0.00014756
0.000149339
0.000146805
0.000148871
0.06227
0.000144788
0.0680095
0.000419437
0.000154355
0.000145824
0.0591887
0.0550699
0.000147091
0.000147873
0.0754599
0.000149092
0.000164665
0.000183179
0.000529829
0.000147427
0.000150252
0.000170568
0.000147891
0.0775478
0.000198336
0.00014729
0.000159427
0.000164483
0.000148472
0.000185846
0.000148951
0.000163409
0.000150888
0.000154538
0.000144599
0.000147555
0.000208731
0.000147901
0.0738103
0.000185932
0.000148294
0.000148251
0.000147725
0.000147266
0.0628386
0.000149796
0.000194157
0.000147253
0.000147142
0.000172647
0.0731393
0.000146278
0.000144872
0.000147832
0.000149919
0.000160125
0.000160447
0.0319151
0.00016116
0.000146755
0.000193434
0.0645998
0.000148957
0.00016216
0.0434752
0.000164709
0.000149756
0.00236652
0.000144607
0.0284133
0.000173613
0.000148305
0.000188726
0.000147721
0.000147714
0.000148299
0.0551634
0.000148392
0.00492424
0.064104
0.000464202
0.000162158
0.000147588
0.0540408
0.000149841
0.0123431
0.000146296
0.000240162
0.000154001
0.000192786
0.000149998
0.0153687
0.000160047
0.000149451
0.0368806
0.0329489
0.000144892
0.00725025
0.000147755
0.000159325
0.000146906
0.00740136
0.000294913
0.000149066
0.000148141
0.0656783
0.000185627
0.00014687
0.000151349
0.000148049
0.000146523
0.000145988
0.000152153
0.0259835
0.0267456
0.000149495
0.000178318
0.000153346
0.000185736
0.000147849
0.00765919
0.0356848
0.0228328
0.000150218
0.069551
0.0263519
0.000153239
0.000160935
0.00014731
0.000180165
0.035124
0.000149348
0.000145974
0.000146343
0.000157991
0.000145029
0.000147894
0.0003702
0.000150756
0.000180116
0.000148397
0.000147657
0.000153513
0.00014814
0.00019754
0.078219
0.000146372
0.000172363
0.000144937
0.0689854
0.0001473
0.000152419
0.035623
0.000181113
0.000154308
0.0111228
0.000186873
0.000148345
0.000168193
0.000148579
0.00016452
0.000149525
0.000147391
0.000195143
0.000188236
0.0531751
0.000195732
0.000158782
0.00407536
0.000152454
0.000168775
0.000151097
0.0646396
0.0608134
0.0139777
0.000147918
0.000144497
0.0299494
0.0392359
0.000148773
0.0572933
0.000148837
0.000156933
0.000144353
0.000147782
0.000147623
0.000147363
0.000207961
0.00016115
0.000164223
0.000148054
0.000148056
0.000145324
0.000146676
0.000146573
0.000149729
0.00014748
0.0559344
0.043436
0.0440453
0.000152225
0.0393334
0.000174346
0.0767721
0.0357812
0.000174181
0.000148647
0.000149099
0.00018117
0.000149343
0.034833
0.0249069
0.000150241
0.000145733
0.000163601
0.0457604
0.000147841
0.0769031
0.000147992
0.000148554
0.0799567
0.000147707
0.000156217
0.000149024
0.0443257
0.000145796
0.00014793
0.00020442
0.000145738
0.000148259
0.000147469
0.000145753
0.000165694
0.000147571
0.00943497
0.000147988
0.000149399
0.000144482
0.0256233
0.000162096
0.000148811
0.0660286
0.00014845
0.000145534
0.000223928
0.00043042
0.000148634
0.0783656
0.0751983
0.000156476
0.0439609
0.000148633
0.000148336
0.000195909
0.000146244
0.0503723
0.0428025
0.000144405
0.000157571
0.000147414
0.0181593
0.00771724
0.000171835
0.000148876
0.000387523
0.00015961
0.000173719
0.000156817
0.000148045
0.000150594
0.000147572
0.000146632
0.0673347
0.000144058
0.000146637
0.000168979
0.00784464
0.000185184
0.0801285
0.00014794
0.000162017
0.000147936
0.000148614
0.00014867
0.000146302
0.00014894
0.000147507
0.000148556
0.000149075
0.00015427
0.000147983
0.000149232
0.000145784
0.0187982
0.0816238
0.000149445
0.000151128
0.0690837
0.000149346
0.000200957
0.039344
0.000303738
0.0790713
0.000258543
0.079213
0.00645527
0.0299972
0.000147545
0.000160399
0.000147374
0.000169163
0.000154223
0.000149451
0.000147196
0.0262491
0.000145845
0.00015673
0.0798059
0.000145556
0.000146839
0.00017438
0.000145778
0.000147499
0.000147462
0.000149464
0.0446876
0.020054
0.000148083
0.000147948
0.000148264
0.000150431
0.000161788
0.000150755
0.00409392
0.000195522
0.000149241
0.057516
0.000163659
0.000147888
0.0481007
0.000145666
0.000181015
0.00014631
0.000149579
0.000149374
0.0456694
0.000147914
0.000147575
0.000153552
0.000149741
0.000160811
0.000146806
0.0192481
0.000166619
0.000162569
0.00867188
0.0779992
0.000193742
0.000164798
0.051675
0.00014807
0.000147858
0.00015556
0.0481592
0.0001817
0.000168518
0.0258306
0.000147666
0.000972227
0.000202098
0.00071703
0.000147972
0.000159874
0.000147302
0.000187976
0.00015824
0.000295342
0.0791158
0.000147934
0.000163831
0.000155939
0.000148073
0.000318685
0.000148032
0.000163014
0.000175994
0.000180917
0.000147985
0.000149962
0.000149485
0.00017299
0.000147473
0.000149504
0.000147988
0.00014839
0.000146243
0.000160718
0.000144686
0.000297845
0.051691
0.000149673
0.000146424
0.000145448
0.000163394
0.000159326
0.000148738
0.0335969
0.000162706
0.00014639
0.000146556
0.0648805
0.0526029
0.000147396
0.000209331
0.000159039
0.000147924
0.0234625
0.000154571
0.000175559
0.00014952
0.0343804
0.0773073
0.000149681
0.000165774
0.0410336
0.000162612
0.0242881
0.000149561
0.000153912
0.0541692
0.0659226
0.000155504
0.000153669
0.000149842
0.000152634
0.000151537
0.0331485
0.0519647
0.0573766
0.000153062
0.000148001
0.000178379
0.000147538
0.000204758
0.000153971
0.0252493
0.000145772
0.000149196
0.000147287
0.000148228
0.000146795
0.000184857
0.0634808
0.000157827
0.000145381
0.000148579
0.0159462
0.000151749
0.000152483
0.000148954
0.000165467
0.0505417
0.00014578
0.000147624
0.000169219
0.000182382
0.000148656
0.000169487
0.000149336
0.000152009
0.000202062
0.000156408
0.0689748
0.000350894
0.00016326
0.0578895
0.000146877
0.000147509
0.000151204
0.0778302
0.000151044
0.00204767
0.000145834
0.0432346
0.000165377
0.000147202
0.00016002
0.000149064
0.0712517
0.000173571
0.000161009
0.000198678
0.000194755
0.000148928
0.00014929
0.000149488
0.00015503
0.0446821
0.000179419
0.000148573
0.000201235
0.000148005
0.0777161
0.000147986
0.0708253
0.000160188
0.0794649
0.000379916
0.000166012
0.00014808
0.000147992
0.000146958
0.0780818
0.000148706
0.000177707
0.00927282
0.0001446
0.0273759
0.0001588
0.000147988
0.000191363
0.000147298
0.000147911
0.0370019
0.00779654
0.0327139
0.00014754
0.000146302
0.000150217
0.000154361
0.000151414
0.000148372
0.0334301
0.000191264
0.00758255
0.000150406
0.000163831
0.000573873
0.000236826
0.000157443
0.000146464
0.0245245
0.000150783
0.0475183
0.00014748
0.00014802
0.000147927
0.000146291
0.00014459
0.000149699
0.00014637
0.000159727
0.0566227
0.000165464
0.0484139
0.000153485
0.000149347
0.000148728
0.000201041
0.000148078
0.000150366
0.000148135
0.0331755
0.00906729
0.000146344
0.000153318
0.000147224
0.000147966
0.000149843
0.000148273
0.000147543
0.000290136
0.000148985
0.000147261
0.000188943
0.000146838
0.0396407
0.000187058
0.000195453
0.000201102
0.000153893
0.000148398
0.0682826
0.000148547
0.000191353
0.000161852
0.000146666
0.000169004
0.000148294
0.0756345
0.000145587
0.000147516
0.0750964
0.000173821
0.021826
0.000146128
0.000185464
0.000190368
0.000158418
0.0580299
0.000147031
0.000146374
0.000145678
0.00017191
0.00015032
0.000428706
0.000147909
0.000171057
0.0461484
0.000202512
0.000148006
0.000242013
0.000153508
0.0309218
0.000151464
0.00015282
0.000153711
0.0483893
0.000147968
0.000149827
0.0619637
0.000145559
0.000154412
0.000147012
0.000162026
0.0718649
0.0468537
0.000147469
0.000169835
0.000147932
0.000232173
0.000148034
0.000149717
0.000195808
0.00858055
0.000162586
0.000147812
0.0001539
0.0106449
0.000172122
0.00018458
0.0722391
0.000147993
0.0209976
0.000157456
0.000192425
0.000147693
0.000155042
0.0717305
0.000153642
0.000147353
0.000214347
0.0305482
0.0783433
0.000145914
0.0602822
0.00047498
0.000146312
0.000191576
0.023071
0.000149843
0.000151493
0.0330475
0.00014446
0.000149406
0.000146666
0.000148572
0.000188549
0.000182308
0.000168077
0.0413742
0.000149792
0.000163578
0.000156569
0.000148799
0.000151108
0.000167637
0.000148028
0.000149474
0.0679276
0.0444861
0.0264244
0.000146357
0.000166343
0.000148819
0.0568707
0.000148524
0.000167199
0.0560619
0.01873
0.000165447
0.000148414
0.000339336
0.0443292
0.000367504
0.000147865
0.000148735
0.000146821
0.0751789
0.000166227
0.000193122
0.0755459
0.000148462
0.00014935
0.039555
0.000156128
0.000180936
0.0001491
0.000147443
0.000148048
0.000485727
0.000148422
0.000179348
0.000147023
0.000148627
0.000146424
0.048034
0.0410197
0.000151921
0.000226229
0.000150994
0.000428522
0.000147508
0.000147323
0.000186733
0.00014856
0.000147683
0.000153585
0.000174943
0.000160543
0.000186972
0.000148156
0.000180381
0.0668425
0.000148625
0.00014922
0.000148389
0.0643159
0.000165878
0.000162308
0.000186554
0.00014679
0.00014808
0.000174038
0.000156891
0.00419694
0.0811292
0.000162106
0.0481471
0.0130172
0.0391628
0.000177054
0.000149132
0.00014783
0.000216279
0.0632137
0.000147121
0.000162079
0.0390218
0.000148605
0.000208609
0.000305325
0.000195806
0.000147716
0.000196073
0.000148819
0.000148601
0.000146439
0.000210477
0.000148811
0.00018215
0.000170616
0.000147712
0.000149167
0.0159184
0.000147169
0.00014523
0.000173506
0.0012598
0.000168419
0.000147991
0.000163159
0.0222988
0.0614692
0.000159675
0.0431945
0.000189802
0.000178748
0.000168371
0.000149063
0.000172982
0.000157965
0.000145809
0.000146929
0.000149202
0.000156855
0.000220785
0.0437378
0.000149405
0.010521
0.000173836
0.000841989
0.0489081
0.000214742
0.056063
0.00019406
0.0499077
0.000171885
0.0448039
0.000179959
0.00014799
0.000148498
0.0794481
0.0539477
0.000192071
0.0524251
0.000146922
0.0522154
0.0470321
0.000148078
0.000145355
0.000163809
0.000177783
0.039866
0.0236268
0.000179776
0.000146931
0.000147392
0.000149403
0.0741302
0.000153618
0.0419362
0.000154961
0.0500697
0.00019915
0.0416521
0.000159106
0.0666821
0.000146607
0.000145178
0.000154336
0.000149024
0.0634834
0.000188592
0.057264