/*--------------------------------*- C++ -*----------------------------------*\
| =========                 |                                                 |
| \\      /  F ield         | OpenFOAM: The Open Source CFD Toolbox           |
|  \\    /   O peration     | Version:  v2012                                 |
|   \\  /    A nd           | Website:  www.openfoam.com                      |
|    \\/     M anipulation  |                                                 |
\*---------------------------------------------------------------------------*/
FoamFile
{
    version     2.0;
    format      ascii;
    class       volScalarField;
    location    "950";
    object      omega;
}
// * * * * * * * * * * * * * * * * * * * * * * * * * * * * * * * * * * * * * //

dimensions      [0 0 -1 0 0 0 0];


internalField   nonuniform List<scalar> 
18758
(
0.122612
3.38278
0.0214749
5.4159
5.00691
6.50857
7.83345
0.0217101
0.243827
0.0278449
0.0237034
10.3081
0.0220467
0.169547
0.022999
0.604966
0.0423045
0.0219424
0.0219097
0.0311086
8.78785
0.0222713
5.77829
2.25848
1.58394
0.0217148
1.79501
5.02325
9.30526
4.47674
0.0716478
6.10933
0.0221821
0.0226744
0.126157
0.0221725
0.0222265
0.0219945
0.0222583
0.0452109
0.0219924
0.0265724
0.021641
0.0261349
2.22853
0.021614
5.45135
0.0240075
0.0274002
0.0216107
0.142609
5.15956
0.0215431
0.0234709
4.90629
10.2993
0.0222172
0.369841
0.0219496
0.186278
0.0998878
6.6999
0.11067
0.0227968
0.0215521
0.0220108
0.0466137
0.0221776
0.0219147
5.09881
4.91071
0.0223058
0.0216168
14.3578
0.0216789
0.0219406
0.23138
4.96763
0.0906195
5.21822
6.87557
4.87306
0.186027
5.85066
0.243067
0.030457
23.1356
0.109791
6.26772
0.0219391
5.52733
0.0219511
13.8723
0.0270009
6.82149
12.4104
0.232977
0.0216778
0.0219
7.18494
0.0326172
5.09099
0.0842828
0.0471007
7.64253
3.30298
5.74114
5.05571
0.022635
0.0222999
15.8823
10.6554
0.0217565
0.022011
7.58466
9.51155
7.52072
0.0230016
7.70966
6.35694
0.0381743
0.0219697
11.6051
1.41764
0.58982
2.07964
2.30705
0.689868
11.0682
0.0220482
0.0438483
1.64335
17.4833
0.0496982
4.85312
0.023777
0.226146
0.0471313
0.0218979
0.078611
0.0911136
0.249602
0.0219439
14.358
0.0219971
0.0219926
9.9412
8.20736
0.0710832
6.86411
4.09442
4.95734
0.030387
0.0222709
5.4309
0.0282408
6.71773
0.0240112
0.0221389
0.0222889
0.0218026
0.182569
18.6425
0.0221355
0.099319
9.25137
0.0219553
12.0761
0.229985
6.49639
4.8069
0.0219375
18.2268
5.01236
0.181496
1.62976
8.53382
0.022892
0.0770912
0.0220985
0.0217958
31.1259
4.74738
0.0216434
0.0253194
2.39995
0.0219256
7.87261
0.0216267
0.0219382
0.0500019
0.562858
0.0223601
0.0673645
0.0340679
0.112075
0.0317523
0.270236
0.0221487
0.0216348
0.0741263
0.0239408
0.0369482
0.0818632
0.0220351
0.0336052
0.0867581
0.0222789
8.80448
0.0274185
0.02193
0.0497064
0.0221716
0.0366477
0.0778429
7.14708
0.0839881
0.553322
0.0216278
6.74249
0.0219299
0.022652
0.203941
8.07671
0.283395
0.0854284
0.0585203
0.0471319
0.0216034
0.0832502
0.0220049
0.111525
5.38839
0.247815
0.0220634
0.0219278
0.021605
0.0216383
11.9641
0.0368903
0.0218335
0.889532
5.73828
0.0230181
6.85066
36.6651
0.24067
0.0221791
6.84239
0.0297264
0.0221528
11.5114
0.0305441
0.030218
0.0224718
0.0414015
0.717301
0.683036
0.0357717
0.0869495
0.0216581
0.0707369
0.0220277
0.0810005
0.0269589
0.202258
9.89345
0.0216326
0.0225189
0.46908
0.0224453
0.0250636
0.0817418
9.75576
9.27929
0.0219413
0.124076
14.7408
2.23586
0.0225454
0.0217307
0.0294145
0.0370644
0.0219375
12.6111
0.739854
4.5685
31.5352
5.76216
0.0216232
0.0214681
0.0518075
8.12426
0.0255291
0.0872612
0.109523
0.0293948
6.39943
0.021877
2.75998
6.07654
0.0216259
5.13203
0.0377823
0.0219416
0.0332881
0.0862649
0.022785
0.0221572
6.86101
4.39087
0.0219316
8.75209
6.40056
0.26011
0.0220139
0.0221323
4.5065
0.022988
0.0216382
0.0217607
0.0229979
0.243452
0.0878516
0.0293863
0.0358875
0.0312456
0.0498805
0.0216441
0.0222786
0.671805
0.0563993
0.132394
5.44991
0.0259085
0.0223094
0.0220856
2.84045
5.2278
0.0216152
0.0219178
0.0216171
0.0236712
0.0443706
1.15698
0.0219697
0.0222
0.0216016
0.824894
0.225161
0.171653
0.162752
0.0228393
0.518013
0.115315
0.0375796
0.0314442
9.49843
7.53355
4.16536
0.0220469
0.0333266
5.17818
9.61172
0.0249558
0.0216274
0.0585443
0.0219454
0.0305209
6.64237
5.42553
0.117041
0.0305058
8.11211
0.021992
0.0239243
0.0218944
0.0222668
0.108378
0.0241004
7.8719
0.284282
0.0224
0.0219351
6.44732
0.114257
0.240733
0.021992
0.0567661
0.0217207
0.0259731
0.02197
0.0216418
8.00948
7.98862
4.2187
21.1274
0.0219102
0.210583
5.01207
0.0422652
0.0217505
5.32004
0.0217596
0.0220385
0.0217913
0.111343
0.0219622
0.0260153
0.15056
11.0728
0.0217475
4.92846
0.0479708
0.0220198
0.0258848
0.0219644
0.0219196
0.0286775
0.0665354
0.0491644
25.0415
0.039702
0.0220414
0.420214
5.72691
5.1949
4.86763
0.106553
0.0224757
0.0216425
0.0218373
0.0221898
0.117709
0.0430442
0.033092
0.0363471
0.030435
3.87051
0.0857083
0.0219605
0.0348937
5.72472
0.0227647
5.49347
0.022215
0.0220822
7.53798
0.02803
0.0224492
0.651948
0.128745
0.0511984
10.0244
0.0219452
0.0225828
0.7475
9.13883
0.0361142
0.0729511
0.175298
2.25419
21.6588
0.172015
0.0222828
0.1382
0.0220092
0.119441
0.0231248
12.3569
0.0561096
3.16102
0.0328927
0.0797183
0.021627
2.02075
0.0216226
9.78456
0.0218982
0.382468
0.0220543
4.36554
0.0314635
0.0220868
0.0219062
0.0217829
5.63262
10.8495
7.63735
0.0463168
0.0246829
0.0864968
0.0222703
0.0222874
5.16208
0.0219064
0.022061
0.112162
0.0220411
0.0711398
0.0858956
0.0220567
0.0219609
0.0278777
0.0226707
0.0287979
6.78789
0.0325643
0.0358059
0.0267898
0.0220456
3.71886
0.0223311
0.0226366
3.77746
9.28671
0.0764748
4.91586
0.0251681
0.0226071
6.51518
0.0219342
8.57536
0.348395
0.0220801
6.74027
0.627535
0.0592338
0.0218551
0.0536708
5.24222
0.0219973
0.0218523
0.0230672
0.0227757
0.0220108
0.0216954
0.0222939
11.4901
0.025267
9.15955
0.0219725
0.15442
5.67472
0.0220336
0.0216333
0.0252102
0.0221295
0.0226157
0.0232666
0.0220853
0.107367
0.837534
0.0215417
5.22131
4.75678
0.0355447
0.136377
4.59642
0.0263392
0.0315925
0.028514
4.94509
0.0251637
0.0479837
0.0219746
4.21028
0.0421208
0.226836
0.130964
7.60554
0.0251003
0.0219286
0.0585551
1.29746
0.0225507
0.489616
0.0222173
5.83329
0.0227111
0.0217805
0.0217791
0.0220473
4.75803
5.83065
0.0220048
0.287252
0.0306491
5.24801
7.97788
4.0962
1.33677
0.0218735
5.21049
0.0668934
0.0219508
0.0475424
5.08321
9.923
0.0226563
0.0225568
0.0219779
0.0215106
7.91806
0.105894
4.93059
5.32706
0.022039
0.0221406
0.0576711
0.0222812
0.0218054
0.0232444
0.0228833
0.109696
0.0414069
0.231633
5.07437
0.0732001
0.0220613
0.0274179
0.122058
5.12159
0.0458937
8.88653
0.0522669
0.0220088
0.271104
5.26027
0.0224191
0.0216338
0.150625
5.33109
0.263387
0.0220418
9.27389
30.6429
1.71409
0.0216047
6.99243
7.02614
23.4444
0.0240978
0.0221967
7.95864
0.0222945
0.184139
6.5998
0.211561
6.63378
0.0841686
5.68887
0.0675273
0.0220793
0.0225412
5.76056
5.11909
8.42684
5.8146
0.0219334
0.184323
0.0222772
0.0593472
0.087035
0.134723
0.0220851
0.0251419
0.20001
5.13788
5.38088
9.89608
0.0388012
0.0326651
0.247917
0.0222371
0.0216989
0.0219588
0.025601
0.0746586
0.0220318
0.0822976
0.0218556
0.0220799
0.0219057
5.01088
0.0223205
0.0222696
0.0545198
0.052059
0.021546
10.2796
0.0219459
0.0216912
0.0550894
0.0368822
0.024917
0.0228472
6.43762
0.0359217
0.0347537
5.26133
0.0347709
5.18553
0.0259604
0.107319
28.6129
10.1307
0.0216264
4.96814
0.963722
0.0216825
5.88417
0.0220611
0.0218931
0.0396074
0.02195
0.112814
5.05296
0.0216209
24.9306
0.0218512
0.0379597
5.05213
0.0215272
5.09727
0.0234779
0.021969
0.0219293
0.0219564
0.22522
0.073727
10.4229
0.0752278
6.0839
0.057662
0.022034
0.216894
8.67847
1.95215
0.076022
0.166424
0.0665341
0.0267611
0.224411
0.0226653
7.24941
0.0220346
5.99542
0.0227428
0.076121
0.0279152
0.0223366
8.83314
0.0225584
0.021814
2.36596
0.0235151
0.0219084
0.0449133
0.0864693
0.231736
1.8623
5.16877
5.1196
0.022133
0.0222052
7.59154
0.0219912
0.974253
0.0892239
0.0237898
0.0220604
0.0329082
0.0219882
0.0219333
0.0292352
0.815743
0.230239
0.155185
0.0633283
0.022133
0.0607671
8.44139
0.0218648
0.0881041
0.023935
5.04499
0.0231929
6.2458
0.0220291
0.981476
0.0222766
0.0799909
0.0219545
0.025256
0.0305615
0.0215317
0.0216758
0.0215794
5.68221
29.0981
0.033252
5.3312
0.0220148
0.0425608
0.0282598
0.258783
5.46346
0.0334303
0.0215396
0.232782
0.0218576
0.0220148
0.0282843
8.38723
10.6352
0.928227
4.37968
0.0745385
0.0229295
0.0218846
5.47955
0.0218963
1.68483
0.0277664
0.0221857
5.50957
7.53137
0.02209
8.47746
0.0271493
0.114349
0.0992116
4.91788
7.27407
1.33797
0.0219979
0.0215024
5.08528
0.0219482
0.0219127
0.0284329
0.0219649
5.46101
0.245215
0.0579578
5.47348
0.0486382
0.122533
0.0238468
0.0219896
0.0215358
0.021781
9.23227
9.65856
0.292985
0.0220564
0.0215332
0.0313091
0.0218203
0.0401487
0.0256136
3.64142
5.27443
0.0813899
0.262537
0.313599
0.021875
0.217631
0.0218858
5.55559
0.870999
6.65637
8.01644
0.0229353
0.0293339
5.73035
5.48795
7.45264
0.0453679
0.130577
5.47847
0.0220477
0.248082
1.62307
0.122727
0.0220418
0.0219585
0.0413897
5.46653
3.1388
0.0994553
0.0219733
0.0248783
0.0288725
54.3252
0.0222731
0.680301
0.0218957
0.0226671
0.197392
0.0218667
0.0220187
0.0232423
0.0270039
0.0219761
0.0226363
0.0216072
5.05267
0.340146
6.44388
0.0216275
0.0499364
0.0220119
0.225953
0.231682
0.037126
0.0218994
0.0228314
0.648695
0.118688
0.0291945
7.9115
0.119777
0.021956
0.0220384
5.16451
6.35008
0.0631599
0.021612
3.5544
0.0221259
0.0362806
0.0216587
1.1399
5.6092
0.0218619
0.0219919
1.97853
0.0219329
6.56232
7.70271
0.0605104
0.0222554
0.0221664
0.0216546
0.0220356
22.7539
10.0799
0.13976
0.0228322
5.29016
0.0219422
0.0219395
8.53352
0.0217396
5.19649
0.0215136
0.0287747
0.0232498
0.0219422
0.0218246
0.0221207
4.89465
0.022473
0.0221944
0.157392
0.041791
0.0219719
0.0581389
0.0369759
0.0221262
0.293043
0.0219771
0.0371148
6.39701
0.10238
0.0219624
0.282821
0.0940192
0.0865591
0.0265543
0.0645403
8.65497
0.0244754
0.0581017
0.0219559
0.021586
0.0220053
0.0468168
0.0367282
0.0486046
0.0218479
0.0276065
0.067322
6.28913
0.250076
0.0219358
0.021776
0.0227882
0.105222
0.0218117
7.78994
0.0219612
0.0219401
0.0217745
0.432218
5.27247
0.0221553
0.0236187
0.021885
0.0907187
0.0218088
0.0219699
3.50183
0.0222705
0.0215899
0.0221309
0.142424
0.0217949
0.0218605
5.29656
11.0069
0.61668
0.0434583
5.13113
0.0503312
0.021957
0.0219129
19.2078
0.0219707
0.0665311
0.0828511
0.0417005
0.0266324
0.0222836
0.0306245
0.022788
0.0216188
0.202716
5.1108
0.0436339
0.0217867
6.53404
0.0467959
7.03775
6.59368
0.111765
0.0221408
0.0219198
0.0218248
0.0610358
0.0221267
0.0218231
6.554
0.157113
0.0451552
0.0219135
0.067654
0.288515
0.0220952
0.0263351
0.0363026
0.149156
0.0708195
0.0219855
0.0233978
0.0379397
0.0218214
0.0495915
0.0222571
11.232
0.0587774
0.117744
0.0217696
0.0372389
5.46602
5.27824
0.996244
0.063676
8.79419
0.0221301
0.0219584
0.0226751
0.088093
0.0221701
0.0234016
0.0307386
0.0610832
0.0220019
0.0219548
0.0219941
0.022277
0.313816
5.79687
1.02022
0.0219955
8.14626
0.0296126
0.0221555
0.0329683
0.0218647
0.0849617
0.0229689
0.0219734
5.12856
32.0267
5.26874
0.0223191
21.9075
0.0219721
5.42805
5.31511
0.021542
0.0615651
0.263516
0.0216183
0.0219628
6.03863
0.0222233
0.0220173
0.186149
1.28421
0.0220297
0.0314935
0.0221512
0.0252597
0.118025
0.0221673
5.4763
0.0448095
0.0219601
1.11363
0.0605863
0.0771449
0.0222882
0.297821
0.022017
4.98457
0.0219734
0.0217598
15.7591
0.0216996
5.2626
0.0219654
0.0544563
8.20872
5.3492
0.021966
0.0223169
0.0220256
0.02319
0.0269657
0.0266118
0.02149
9.67318
0.0218882
0.021955
0.141845
0.213402
0.0437443
0.0220291
7.31708
0.082682
0.0223718
0.0351781
0.021927
0.021749
8.82484
0.0216271
0.0217639
0.0218007
5.48939
0.0217952
0.0218269
4.92143
0.025298
5.78366
0.0332861
0.021516
0.0218815
2.97231
0.0260852
0.0220075
8.04357
5.24488
0.0217925
5.15232
0.115116
0.0219023
0.0220249
0.333775
0.0222217
3.97204
0.0334347
0.022034
1.4101
11.1902
0.223051
0.0218647
7.9203
0.0299519
0.402393
3.83569
0.0219155
10.1536
0.0220094
0.0317956
0.0261428
5.16599
0.0216868
0.0223253
4.20281
0.0222734
0.0355367
0.0216939
0.0220721
5.65948
0.0873995
0.0251479
0.0359431
1.17381
0.0222999
0.023348
0.0549769
0.11859
0.0255086
0.0219632
0.0219302
0.0221471
0.0225824
0.0218495
0.0338573
0.0276074
1.24044
0.0220086
7.71102
0.0219519
0.0288049
0.0219839
0.0362167
0.0220685
0.0219446
5.84572
4.90173
0.0240869
0.0220956
15.6927
0.0276647
15.6224
0.0366481
0.0722919
5.58688
10.1999
5.12957
0.0229708
0.021967
0.0218039
5.30858
0.0218069
0.0220207
0.155842
0.0218273
0.0221872
0.0220633
10.5557
1.26528
0.0221824
5.13124
5.15813
0.0240097
0.0219414
0.0221706
5.25337
0.0216729
0.104043
0.0222883
0.0219845
0.0220403
0.0217527
0.0744651
0.0219546
0.0218773
0.0217696
0.0216207
0.312761
0.0216065
0.0217967
0.0220787
0.0219635
0.270386
3.56045
0.0595381
0.0225434
0.0220122
0.0221945
0.0222256
4.93446
0.0219497
0.0315894
0.0681586
5.12607
0.0219574
0.0219239
5.73436
0.0221261
0.10563
0.0791088
0.0224256
5.30159
5.05511
0.0309546
8.01167
0.0283172
0.122704
0.0214889
7.13251
0.0220503
7.36087
0.0220497
0.0218341
2.56276
2.22019
0.457699
0.152926
0.0219147
7.07997
0.0221779
5.32881
0.054148
0.0219345
0.0214908
0.0218729
0.0515085
0.0619045
4.92621
0.0416218
0.0218987
0.021942
0.0218956
9.69032
0.19452
0.0333518
0.0221461
0.0219151
0.0303331
1.10039
0.0218982
0.0327044
0.0687895
0.0219494
0.0238848
0.0231279
0.0578369
0.159204
0.0244405
0.0782942
0.0215875
0.0220153
7.68825
0.0405102
0.0832874
1.8531
0.0216096
8.67411
15.6321
0.0506593
5.32663
0.0219476
5.30491
5.759
0.103993
0.0218003
10.5178
0.124486
0.0219963
0.0389721
6.69895
0.0226043
0.0219773
0.0396544
0.0222713
9.36709
0.03062
0.0220233
0.0222822
0.0218862
0.0688177
0.0336254
7.9963
0.0970642
5.73597
0.0761658
0.0222613
0.0219494
0.679981
13.0667
0.0219772
0.0218888
0.147017
0.0220704
0.286086
5.24977
9.5542
0.0219658
0.0219827
5.57612
0.021752
5.12781
0.563225
0.0217082
5.70712
0.0586659
0.0826344
0.0219776
16.6397
0.0220352
3.7948
0.021508
0.048221
0.0228024
0.0216848
9.01895
0.0226791
0.021977
0.0234186
5.8261
0.0220812
0.0215999
4.91427
0.0219146
0.0216518
0.0221234
0.0251181
0.0220596
0.0221865
0.0278785
0.0221807
0.0263699
0.0215595
0.280056
7.82903
0.135572
5.81929
0.0283009
0.0263133
0.0218901
0.0218339
0.0221159
7.81101
5.20834
0.0218863
0.0222778
0.0219272
23.6502
0.0215935
0.26206
1.67195
5.18913
5.29809
8.18509
5.4275
0.0216303
5.13228
5.7437
4.99054
0.0261593
0.0221454
0.0434995
0.0216422
4.58989
0.112183
0.0587758
0.0270281
8.17604
0.021996
0.0214859
5.31035
0.121587
0.0219546
0.021526
0.0453929
0.0221227
16.5761
4.35979
5.82186
5.17076
0.0779168
1.12238
0.0218116
0.244409
0.0221118
0.0219673
0.0216436
6.12335
0.02213
0.0218082
1.91163
5.35945
0.235018
0.127659
0.0229159
0.0392104
9.8717
10.0821
5.35707
5.71646
0.12153
5.29442
0.22691
0.638476
0.0518639
0.0422082
0.0218925
0.0362831
0.0329
0.0220514
5.40244
0.0218053
0.0219513
0.0220017
5.29343
0.0255552
0.0218154
0.0218271
0.0219739
0.133668
0.0898177
1.14351
0.0226781
7.10286
0.0215183
0.0219327
0.0792213
0.0703021
0.0215039
5.06345
0.0417892
4.7904
0.0219892
10.0297
0.0626143
0.0219377
0.0220604
0.0219668
5.3826
4.92786
9.41413
0.0219856
0.0222057
0.0215755
4.79844
0.0282296
0.0220653
0.660303
0.0219493
0.0225962
5.26859
0.0215977
0.021962
0.0220709
0.0221233
0.0214817
0.022387
0.0215182
0.0222275
0.0772284
0.0398708
0.0218386
8.11345
0.0238328
5.00604
9.74022
0.0510593
6.416
4.79652
0.0217945
0.042019
0.0220295
0.0218339
2.49555
0.0261851
6.65687
0.0272898
0.125308
0.0220636
0.0232092
0.0219174
5.2668
0.0434839
5.63739
0.022032
0.109778
0.0293366
0.0218038
0.0373957
0.0407011
0.0215473
8.80591
0.0221016
0.0414362
0.0220089
0.030507
0.0495219
0.192039
0.0265889
0.076719
6.32948
0.0303629
0.0407007
0.0215945
5.60733
0.0585438
0.0222717
0.0725984
3.58132
18.0948
0.0219769
0.022901
0.0221732
0.0215828
0.0219349
4.97728
0.0286108
0.0220827
9.63122
0.0221155
0.0215878
0.0257515
5.04026
0.0221823
10.6428
4.98098
0.103892
7.82201
0.0226113
4.80267
1.22023
0.0216142
0.0292275
0.0220267
0.0223045
0.0387885
7.91096
0.0611742
0.927944
0.394074
0.0218941
6.68327
0.0219111
5.28606
0.0222681
30.0425
5.27192
0.022161
0.0217493
0.0222788
0.0331385
0.0801955
0.0219705
16.6852
0.022953
0.0427983
0.0751008
0.0230883
0.0219218
5.52844
0.0217548
0.197868
0.0293579
18.915
0.0221282
0.0218894
5.26916
0.021464
0.0217569
0.0225525
0.0593155
0.0510615
0.237043
0.0242338
0.0217566
0.0252287
0.0222582
0.0224614
5.39939
0.0219416
0.0487579
6.62886
0.178682
0.0219607
0.0837305
0.0218548
0.022209
0.422423
0.254767
0.0836759
0.0222395
0.0219605
0.0246737
0.0824004
0.021867
0.0303368
0.021893
0.02223
0.021846
0.0220015
5.2301
0.0215554
10.9616
5.55211
0.0251404
0.0216757
5.36405
6.59587
0.0217885
0.0219766
13.7629
0.0222629
0.0650373
0.23007
1.33054
0.0219227
0.0227574
0.0489393
0.0219836
5.81273
0.183779
0.0217944
0.0312849
0.0383579
0.022089
0.307395
0.0221544
0.0507237
0.0228903
0.0249219
0.0215308
0.0218902
0.24337
0.0219395
6.76724
0.0710761
0.0220046
0.0219957
0.0219838
0.0218746
5.5522
0.0222718
0.175501
0.0219089
0.0218502
0.0555273
5.39257
0.0217686
0.0215542
0.0219317
0.0225442
0.0302467
0.0304067
8.06286
0.0287565
0.0218427
0.138494
5.00691
0.0222184
0.0315099
5.36247
0.036016
0.0224069
5.45061
0.0214816
8.03298
0.0444317
0.0220654
0.0819049
0.0218515
0.0219349
0.0219015
5.14448
0.0220239
3.58389
4.94818
0.909676
0.0296036
0.0219656
5.20059
0.022278
24.1497
0.0217138
0.299495
0.0257379
0.0898045
0.0226273
4.94342
0.0293535
0.0222246
5.71681
6.78323
0.021557
4.08816
0.0219883
0.0311616
0.0217306
30.4878
0.611817
0.0222555
0.0219954
5.05925
0.298091
0.0218576
0.0233885
0.0220293
0.021809
0.0217063
0.0239527
5.43829
16.7583
0.0224136
0.21444
0.0234848
0.0703517
0.0220012
29.8944
5.37645
8.13464
0.0227098
5.82508
7.12455
0.0248428
0.0305862
0.0218826
0.054276
6.3079
0.0221571
0.021707
0.0217621
0.0275294
0.021582
0.0219854
0.87064
0.0230277
0.209389
0.0220291
0.0219716
0.0224475
0.0220433
0.164537
13.2288
0.0217905
0.0443742
0.0215408
4.92913
0.0217998
0.0241691
6.45019
2.59474
0.0261685
5.82831
0.414042
0.0220671
0.061194
0.0220933
0.0334629
0.0222351
0.0219279
0.137777
0.104605
4.87728
0.111705
0.0349482
6.05251
0.0230974
0.0417474
0.0227137
5.65277
5.01675
5.45591
0.0219599
0.0215167
7.78033
5.04879
0.0221304
5.30953
0.0221393
0.0269345
0.0214939
0.0218615
0.0218015
0.0218181
0.221441
0.0408826
0.0386596
0.0219772
0.0220194
0.0216398
0.0218269
0.0218164
0.0222629
0.0219361
4.80536
5.35902
4.82188
0.0236428
7.8596
0.0556129
5.96913
7.93172
0.0556317
0.0221133
0.0222333
0.206138
0.0223559
4.69593
9.76295
0.0225691
0.0216974
0.0314183
5.02009
0.0219945
7.81561
0.0218305
0.0221004
6.70556
0.0219371
0.0286585
0.0221655
5.25869
0.0215757
0.0219519
0.221685
0.0216146
0.0220558
0.0218735
0.0216973
0.0685609
0.0219063
22.2455
0.0220214
0.0222175
0.0214729
7.54194
0.0342863
0.0221722
5.72267
0.022086
0.0215535
0.221003
4.52018
0.0220981
6.99804
5.23931
0.0264346
5.33837
0.0221117
0.0219478
0.0985146
0.0216625
5.86945
5.20905
0.0214898
0.0261208
0.0218764
7.69783
3.94107
0.0447208
0.0221445
0.812433
0.0363919
0.0514339
0.0268978
0.0220291
0.0225172
0.0219047
0.0218095
5.85772
0.0214518
0.0218115
0.042066
6.36659
0.0772693
7.80661
0.0220147
0.0422895
0.021876
0.0219724
0.0220879
0.0217569
0.0221533
0.0219221
0.0221005
0.0221728
0.0242748
0.0219515
0.0221318
0.0216789
8.33721
7.32662
0.0221772
0.022738
5.28417
0.0222103
0.125669
5.79284
0.441637
6.36386
0.869747
6.29442
9.50232
8.02071
0.021756
0.0303326
0.0218727
0.0499415
0.0246552
0.0222241
0.0217763
9.62971
0.021624
0.0298338
12.7754
0.0215817
0.0217197
0.0764108
0.0216978
0.0218808
0.0218818
0.0221433
4.97496
7.92089
0.0220344
0.0219529
0.0220561
0.022809
0.0434083
0.0228498
14.7547
0.231388
0.022195
5.36483
0.0323831
0.0219493
7.42627
0.0215881
0.0558825
0.0217724
0.0223616
0.0223533
4.79322
0.0219438
0.0219622
0.0239183
0.0223018
0.0305985
0.0218178
6.15333
0.0399002
0.044417
10.2534
5.70913
0.108186
0.0334331
5.1463
0.0219766
0.0220014
0.0253068
4.94959
0.0576861
0.0491741
9.45295
0.0219753
3.52513
0.249518
1.41586
0.0219987
0.0360878
0.0218786
0.122651
0.0334802
0.600299
5.92877
0.0220136
0.0356795
0.0276401
0.0219021
1.04135
0.0219713
0.0307264
0.159406
0.0856672
0.0219588
0.0222948
0.0222288
0.0554309
0.0219501
0.0221515
0.0219674
0.0220779
0.0216526
0.038054
0.0215443
0.749704
4.92985
0.0224825
0.0217434
0.0215527
0.0427066
0.0346677
0.0221257
6.25299
0.050241
0.0217632
0.0218174
6.0427
4.90424
0.0219378
0.188982
0.0349387
0.0220064
5.92881
0.0225841
0.0729547
0.0222341
14.1488
5.52579
0.0222563
0.0355982
5.473
0.0348377
7.14474
0.0222396
0.0253947
4.82346
6.98019
0.0253198
0.0253429
0.0225136
0.0243949
0.0228112
7.15883
4.91601
5.28439
0.0233369
0.0219519
0.0583847
0.0218854
0.243366
0.0248056
9.7173
0.0215706
0.0221894
0.0217448
0.021885
0.0218455
0.0783247
7.91503
0.0299971
0.0216142
0.0221036
9.98052
0.0235017
0.0237927
0.0221559
0.0360545
7.33181
0.021701
0.0218415
0.0405135
0.0805006
0.022114
0.0419027
0.0223118
0.0236506
0.128134
0.0286711
7.01558
0.80639
0.0476828
11.5103
0.0218576
0.0218781
0.0230576
6.63733
0.0231996
2.22869
0.0216911
5.27112
0.0361322
0.021867
0.0301393
0.0222569
5.04369
0.0553366
0.0305038
0.266666
0.109349
0.0221516
0.0222015
0.0222286
0.0249016
5.27337
0.0556153
0.0221029
0.185613
0.0218299
6.56351
0.0219583
6.00062
0.0293923
6.89007
0.77583
0.0586714
0.0219722
0.0220047
0.0218694
5.66245
0.021953
0.0536509
5.28159
0.0215325
9.14243
0.0328973
0.0219635
0.0850974
0.0219154
0.0218124
5.18372
7.01778
7.03555
0.0218999
0.0217589
0.0227094
0.0243427
0.0229477
0.0219311
10.3999
0.0848937
3.38712
0.0225142
0.0425502
2.54346
1.36831
0.0302007
0.0217473
5.82276
0.0228907
5.08595
0.0218867
0.0220259
0.0219814
0.0217102
0.0215306
0.0221861
0.0217851
0.0369541
7.50947
0.0354968
5.01434
0.0250065
0.0222094
0.0221242
0.440114
0.0220229
0.0224894
0.0220421
4.83031
4.96898
0.0217805
0.0235035
0.0218668
0.0219756
0.0222785
0.022061
0.0219056
0.943195
0.0222137
0.0217857
0.126413
0.0218214
5.42926
0.0821021
0.0975863
0.182196
0.0240249
0.0220772
5.29386
0.0220415
0.0839043
0.0294405
0.0217763
0.0498447
0.0220648
6.67871
0.0216038
0.0217836
5.23599
0.0552326
9.3206
0.0217509
0.0866332
0.154245
0.0317335
5.28214
0.0218819
0.0217346
0.0216118
0.0928953
0.0227603
0.888517
0.0220026
0.0417202
6.70104
0.191057
0.022013
0.942522
0.0253033
7.4588
0.0234714
0.0233997
0.0239952
5.5367
0.0219688
0.0223318
5.77465
0.0215586
0.0261266
0.0218117
0.0468976
5.09282
7.6858
0.0218378
0.0986394
0.0220009
0.271915
0.0220149
0.0224023
0.0964739
23.0734
0.0395214
0.0219933
0.0253628
5.62343
0.0582522
0.0796195
5.46127
0.02202
11.2686
0.02293
0.167332
0.0217747
0.0251488
7.00317
0.0254173
0.0219216
0.476397
7.66746
5.80381
0.0216954
5.03062
0.797275
0.0216098
0.147303
10.1266
0.0222782
0.0227879
5.08301
0.0214955
0.0223635
0.0218298
0.0220626
0.105937
0.0813156
0.0362654
5.54496
0.0222712
0.0578989
0.0296978
0.0221629
0.0232341
0.0354265
0.0219591
0.0222274
8.97336
5.40318
9.2019
0.0216695
0.0376149
0.0221366
4.83671
0.022095
0.0415439
8.20434
5.73568
0.0679254
0.0219458
0.518317
5.26062
0.767226
0.0219983
0.0221253
0.0218342
5.77984
0.0376975
0.138548
7.07254
0.0220303
0.0222113
5.11957
0.0286664
0.0864251
0.0221749
0.0218856
0.0219776
1.14465
0.0220291
0.0560165
0.0217462
0.0221104
0.0217929
5.76755
4.96564
0.0237196
0.536468
0.0229764
0.881965
0.02192
0.021905
0.083316
0.022065
0.0219328
0.0253778
0.105894
0.0292898
0.130727
0.0219981
0.0658663
5.06994
0.0220932
0.0220126
0.0220242
4.94143
0.0455867
0.0473321
0.0839056
0.0217604
0.0218376
0.142621
0.0258984
8.44236
9.95221
0.0359794
4.82786
4.90707
5.41151
0.0551906
0.0222685
0.0219999
0.257634
5.81688
0.0218768
0.0381796
5.84626
0.0221067
0.202771
1.36006
0.123929
0.021931
0.0972548
0.0221339
0.0221056
0.0216176
0.867854
0.0220925
0.0586947
0.0391702
0.0219839
0.0221848
5.22414
0.0217683
0.0215903
0.0474682
2.41589
0.0379504
0.0220199
0.0400343
6.60471
5.27635
0.0284159
6.45646
0.0855383
0.122142
0.059289
0.0220813
0.154734
0.0325262
0.0216461
0.0217121
0.022305
0.0259618
0.28074
4.97633
0.0222184
4.02232
0.0761744
2.98636
12.0035
0.263302
4.82723
0.121705
4.9847
0.0489034
4.94008
0.0602357
0.0219775
0.022079
6.94709
5.21786
0.109693
5.55732
0.0218034
6.54232
5.08892
0.0220342
0.0216424
0.0376782
0.0609098
5.78607
9.26013
0.113821
0.0218723
0.0218057
0.022218
9.51799
0.0254163
4.83445
0.0245911
24.3897
0.176783
5.58296
0.0278186
5.2727
0.0217992
0.0215894
0.0257788
0.0221645
6.8489
0.129616
4.83837
0.022062
6.15304
5.34874
0.0215457
0.0424673
5.06201
0.0434902
0.0218702
0.0263314
0.0219748
4.75271
0.021458
0.0222986
6.91713
0.029409
0.049101
0.0276599
0.0218139
0.0221896
0.04191
0.0220332
0.0216412
0.0218351
0.0302644
5.42693
3.46071
0.0219743
0.133672
5.78495
0.0221162
7.11137
6.0617
0.0220923
10.3428
0.0220728
0.089195
5.21486
0.0219693
0.0221671
0.0221526
0.091969
0.0261624
0.0218595
5.35619
0.0219468
8.23801
0.0220401
7.06782
5.20211
0.0249666
0.0217285
0.146663
0.0786029
0.155967
6.29154
0.0443148
0.0221551
5.12649
0.02244
0.0807224
0.0697361
0.0300296
0.0629924
0.021881
0.131521
5.62944
5.47077
0.118214
0.0218856
0.181101
4.79355
0.0222719
0.221742
0.101931
0.918308
0.021955
0.0249528
0.0215018
0.186038
6.55304
0.0953027
6.45909
0.0866045
0.0385126
5.07771
5.06598
5.71741
1.3111
9.80356
0.0673189
12.6491
0.0534237
5.3928
7.06584
0.0232925
0.0223144
0.0270857
0.0590076
0.021997
0.02614
0.0222617
0.0242633
0.0220038
0.0218682
8.16398
5.47207
0.0222038
0.0511564
0.022106
0.0217938
0.0235897
0.0775468
0.0233579
0.0922326
0.0221448
0.0437002
1.29591
0.103776
0.0461839
0.021975
0.102029
0.0222205
0.0219266
0.630314
0.0228297
5.22811
0.159902
0.0219371
0.0243306
4.96822
0.0220734
0.0974166
0.0572682
0.0598196
0.0265131
0.0371434
0.0220079
0.0221683
5.01315
8.92717
0.0358225
0.0766592
0.0220407
5.61015
0.0254994
7.14881
0.080028
0.0221095
0.0216743
5.99864
0.168386
5.84798
0.0280557
6.99873
0.0226007
5.21622
9.76137
0.0307842
0.152863
0.0218553
7.34025
0.0221797
11.4684
0.0286884
5.29877
5.40862
4.83665
5.17324
0.0361273
8.31962
0.159197
0.0485901
5.1259
5.2385
5.09711
0.0217104
0.0257844
0.0755123
8.49946
0.0218743
0.0217748
0.0297326
0.0619447
11.3794
0.0593416
0.0452349
0.0219357
0.121699
0.0215436
0.168893
5.41264
0.667668
0.0217791
7.00644
0.0680964
0.0225124
5.48049
1.6845
0.0267968
5.1564
4.84044
4.75456
0.0564362
0.0218411
0.0289264
6.04004
0.0376954
0.0219792
7.40639
0.0214963
7.13181
0.0232218
0.0221381
5.26773
4.81637
0.0218175
0.0515585
0.021955
8.23255
0.0215075
5.11633
0.157716
0.0421747
0.0219065
0.022003
0.0221613
0.0383376
0.0552223
0.120108
0.0291579
6.7192
0.0346373
0.025352
5.63656
4.66473
0.0216406
0.159135
0.0219261
5.30433
0.0220662
0.0430815
5.88255
0.0276554
0.0219314
5.05315
0.0222534
0.0222551
0.0465245
0.0222782
0.0218943
5.75376
0.0670182
6.72537
0.0222787
0.117305
0.0864739
0.0216387
0.0219356
0.0235911
0.021831
5.06106
1.96731
4.56184
5.35504
4.96853
5.19819
0.0219197
0.0220219
0.0219471
0.0221101
0.113061
7.86382
0.0305627
0.0247673
5.03626
0.0222217
0.0217657
2.34364
0.116743
0.0214719
0.0219717
0.0218769
0.191436
0.0217555
0.0219173
0.15123
0.0342514
0.10768
0.0238874
5.37976
5.32432
0.0214653
0.0217115
5.40794
0.0341146
0.0251155
5.51514
0.0359884
0.121958
1.51498
0.0234469
0.954176
4.96478
0.0215385
0.0257406
5.67456
0.0251382
0.0220101
1.34825
0.0548028
0.056721
0.0221648
0.364244
0.023795
5.07121
0.022045
0.0219782
0.0335174
0.0630737
7.7721
0.0360107
0.0219308
25.6105
5.33711
0.0239227
0.0737561
0.0220299
0.0219073
0.0217434
5.40285
0.021849
7.18252
0.239389
5.42077
5.79538
0.035472
5.18088
0.0332072
7.78999
1.63407
0.106069
0.577399
0.0737743
0.0958874
5.64261
0.0509902
0.0220036
0.0220586
16.7077
0.0402377
0.0229779
0.0221174
5.51706
9.86721
0.0220938
4.98823
9.33054
0.0700444
0.58622
0.0406678
0.0405197
0.0431081
0.101926
4.99734
0.027628
0.193001
0.221889
0.0217563
0.114946
0.0279579
5.31966
0.0641323
0.0219635
0.238445
0.0650829
0.0734187
0.578033
0.0225215
4.82011
0.204969
10.5312
6.14736
0.0221839
0.0220112
0.0218882
6.27062
4.8753
0.0852476
0.157648
0.0218483
0.0217239
0.0225467
0.0850151
5.09045
0.0520923
7.81146
0.0726303
0.383031
0.717957
0.0217604
0.0541848
8.6625
7.43005
5.59253
8.67699
5.18639
0.0221918
4.77059
5.48208
4.80113
5.13615
0.0219474
5.26113
0.0225658
4.8697
0.0274602
12.7476
12.113
6.13738
0.0221574
0.0219904
0.0715991
0.0237444
0.109561
0.0222726
0.0493994
0.0486178
0.0217989
0.022001
0.0345063
0.0219304
8.6033
0.0218863
0.0230118
5.48532
0.070659
6.06148
0.107215
8.42272
0.0219115
0.0219794
0.0222211
5.05605
7.95331
0.0220236
0.0492796
7.80115
9.60909
0.0218925
5.27687
4.8848
0.0217864
5.16776
0.0219101
0.0409397
0.0220103
0.058634
0.0220699
0.131727
6.01267
0.0218379
0.0221593
7.79569
0.0357499
0.0216902
0.0220824
10.1348
0.0218741
0.022145
4.80035
9.52869
6.00237
0.0849223
0.0219375
4.8585
5.49263
0.721109
0.0221665
0.0971106
0.067122
0.0219262
0.218372
0.0217894
0.0218057
0.0218161
0.0555248
7.61294
5.35738
0.0425256
0.150222
0.0218573
5.99178
0.0218064
0.0279946
0.0468885
0.0233695
0.0514242
0.0362418
0.0218441
0.113634
7.54355
0.0581678
18.5467
7.9608
0.0624258
0.0219495
0.0250619
0.231869
0.0295109
0.0221945
0.103804
7.79092
0.0217023
7.24442
0.0290034
0.0219407
0.772534
5.87482
5.1994
0.0219762
0.0268822
0.0248345
0.0558563
0.0489543
0.0218538
0.0219492
0.11543
1.20475
5.42758
0.0275187
0.0222783
0.021733
0.167276
0.022025
5.26235
0.022273
0.0411283
8.21511
0.202675
6.07398
0.0220486
6.93308
4.82083
7.08759
0.0220017
0.022177
0.0525377
4.09218
0.0218253
6.79976
0.0218747
0.0214966
6.65862
0.0221842
0.0546107
0.0278981
0.0228453
0.0318916
0.0294126
0.0680464
0.0468703
0.0399528
21.3899
0.176063
6.06997
0.0474633
0.0344859
0.05654
5.45483
0.17003
0.0277434
0.0220785
5.33155
0.022659
0.948126
0.210398
0.502992
0.0216874
8.69121
0.0220537
2.18081
0.0225239
0.893501
5.33727
0.0498361
11.7109
4.9544
8.30039
5.21017
6.67222
0.0642767
0.0219456
0.0217926
0.925039
0.0218009
0.0219102
0.0219628
0.0407552
0.0233552
0.034516
10.7438
8.8103
0.114679
0.0277321
0.0273604
0.021573
0.0254118
0.237903