/*--------------------------------*- C++ -*----------------------------------*\
| =========                 |                                                 |
| \\      /  F ield         | OpenFOAM: The Open Source CFD Toolbox           |
|  \\    /   O peration     | Version:  v2012                                 |
|   \\  /    A nd           | Website:  www.openfoam.com                      |
|    \\/     M anipulation  |                                                 |
\*---------------------------------------------------------------------------*/
FoamFile
{
    version     2.0;
    format      ascii;
    class       volScalarField;
    location    "400";
    object      ddt0(omega);
}
// * * * * * * * * * * * * * * * * * * * * * * * * * * * * * * * * * * * * * //

dimensions      [0 0 -2 0 0 0 0];


internalField   nonuniform List<scalar> 
18758
(
0.000705431
0.104127
-3.09806e-06
0.000612249
0.000252312
5.0897e-06
-9.51225e-07
4.64232e-07
0.000281006
0.000256894
0.0563045
0.0234585
-0.297045
3.79683e-05
-1.09911e-06
9.33846e-07
0.0512965
-1.23514e-06
-1.19361e-06
-0.000199316
0.430574
0.470959
5.70114e-06
7.59642e-08
1.95226
-0.0581609
0.378578
-0.00375584
-0.00149542
0.170866
-0.881455
0.581529
-1.99467e-06
1.43515
0.000232485
0.160689
-0.34667
0.000218383
-1.01475
2.18606e-05
-0.027655
0.000355319
-0.00886781
2.94781e-05
2.80367e-06
-0.438436
0.000307168
-0.000276761
-0.696721
-0.000109927
0.0352953
1.41426
-0.000239145
6.71553e-05
-0.0109623
-0.197515
-2.79365e-07
-0.000170763
0.00028574
-1.31939e-05
3.01956e-06
2.697e-05
0.631895
-0.0698162
2.83778e-06
0.104829
3.75667e-06
-1.81234e-06
-0.00090684
-7.62599e-07
1.30638
0.361736
1.03949e-07
-0.000327921
0.00760442
-1.33167
0.458502
0.0890097
0.000308117
0.00289294
-0.00607668
-0.742481
0.0732661
0.00135065
-3.68092e-05
-0.0104881
8.77831e-05
-0.000338447
0.706249
-0.0104554
0.00388833
-1.27873e-07
-0.00306554
-0.764586
3.10064e-07
1.64702e-06
-2.27358e-07
0.000143176
0.105147
2.86359e-06
-0.575564
-0.000713184
-2.02459e-06
1.61852e-06
0.0920138
0.402371
-0.00104419
0.0629735
2.26599
0.122122
6.35917e-07
0.0721541
6.57643e-05
1.51968e-06
-0.000721512
-0.0332722
0.000232508
-3.92679e-06
-0.0507421
-1.49329e-05
-1.71036e-06
0.786366
-2.63601e-05
-1.59031e-06
0.663925
3.90186e-05
1.59078e-05
-1.33468e-06
-0.00581965
0.0153222
-0.000199146
-2.67341e-06
0.000457146
-0.00808974
5.55835e-05
-1.52564e-06
-0.17694
7.42663e-05
-0.00854745
-0.00528767
-0.000375416
-0.065399
0.000160026
1.66352
0.49476
-0.00111378
0.0774678
-0.00491207
0.0615956
-0.0998633
-0.0939131
0.700739
2.71982e-06
0.000254763
-0.0161733
0.663114
-0.00303258
-0.00602815
0.00133045
0.0931735
-0.0209717
-1.40387e-06
-0.430081
0.0717096
-0.567782
1.80613e-05
-1.7636e-06
-0.24656
-0.0671959
-0.0203425
0.310248
-2.97738e-06
-0.00174709
-0.0289048
1.61496
-3.21089e-06
8.46277e-08
0.0205639
2.23759
7.11777e-06
-1.75284e-06
-2.76827e-05
-0.0110475
2.09615e-05
-0.0392116
2.87339e-06
0.175819
-0.000653828
-0.91502
-0.456874
0.670307
2.80628e-06
0.00244367
-0.0289063
6.98651e-08
1.90316e-05
-0.00984832
2.51299e-06
-1.10595
3.388e-06
0.000104076
-0.00664082
1.50477
1.34138e-06
5.69597e-07
-0.510934
-3.44339e-06
0.000333113
-0.072822
0.431164
3.83673e-06
-0.00293124
9.48803e-05
1.42127e-05
-0.000115186
-2.33142e-07
1.42804e-06
-0.00282055
3.65093e-06
-0.0791765
1.78294
-2.39409e-05
0.000198544
-0.00793078
1.24577
0.0315224
0.0119974
-0.00991942
-0.0738916
-3.32812e-06
0.0257185
-0.000956949
1.10849
-9.19032e-07
1.38499e-06
-3.44746e-05
0.00879104
-0.36359
-0.0178283
-6.01198e-06
3.08558e-07
0.00765186
-0.00286626
-4.36285e-07
-0.102971
-0.0148863
1.54152e-06
-3.91424e-07
6.09034e-05
2.4107e-06
0.2053
2.40862e-05
0.0662091
9.81602e-06
5.58047e-06
-0.0215757
1.31816e-05
0.696688
9.08328e-07
-0.298865
-5.37974e-05
-1.91742e-06
1.7364e-06
0.00244669
0.922255
0.72649
-1.6975e-06
-0.00535673
2.24344e-06
8.86872e-06
0.0351703
1.96986
8.38907e-06
-4.82112e-06
-0.000875462
-0.000100651
0.000307203
3.07947e-06
9.3486e-06
3.70466e-05
-1.59808e-07
-4.26449e-06
2.61915e-07
0.0794998
-9.90624e-07
-4.5917e-06
-5.09392e-07
-0.00313286
1.64089e-06
1.62367e-06
2.19695e-07
1.14885e-05
9.50243e-06
-1.92543e-06
-9.12176e-07
-0.000169667
0.0309779
-5.27289e-06
9.32766e-08
0.525151
0.000105439
-1.89103e-06
-1.95355e-06
0.175601
-0.151116
-1.75285e-06
0.000231328
0.385919
8.2856e-07
-0.212092
2.39446e-07
0.900795
-0.00839664
0.000406441
-0.00135935
1.48434
-2.37988e-06
0.2146
-0.00646108
3.52124e-06
0.000730285
0.000896484
-0.0664985
8.6657e-07
-2.24463e-06
0.243966
0.0013566
-5.55685e-07
0.765378
0.0053791
-0.00082645
0.00507169
7.66432e-07
2.53895e-05
8.39597e-07
1.55768e-06
5.18589e-06
-0.000334754
8.90496e-06
-1.88057e-06
2.17343e-06
-2.38553e-06
1.00959
0.199888
7.80112e-05
0.186616
0.108886
-5.33122e-07
0.00031967
-0.118216
2.2973
-0.0459947
-0.0329731
2.91489e-06
0.532374
-0.411934
-0.00044732
-2.0468e-06
-0.000151174
-1.08596e-05
3.13446e-05
-0.010388
-0.0793423
-0.0277637
0.0354034
-0.151073
1.49347e-06
0.000190098
-5.90174e-05
0.000410707
-0.490713
-0.0387504
0.424566
-0.030657
-0.0391132
-0.0238247
4.47027e-06
0.201698
-0.00575998
-0.0690782
-0.0125326
1.37957e-06
3.98531e-07
0.138103
-0.0268262
-0.0403141
-3.61613
0.749216
-4.84916e-06
-0.00750509
-0.0328054
8.34567e-07
3.12902e-05
-8.67366e-05
0.000127975
-1.76481e-06
-2.04266e-05
3.06306e-06
-6.6981e-06
1.01839e-06
-0.000229403
0.000636939
-0.484444
0.000144711
-0.474449
-0.400574
-0.116694
-0.453456
-0.00358829
-0.000188595
1.38777e-06
-0.00683754
2.95383e-05
-9.22461e-06
0.799092
0.000624087
-0.263166
1.08445e-05
1.94021
2.78611e-06
0.000109316
-1.68181e-06
-1.32621
1.08334
-0.0459143
-1.6199e-06
-0.0437616
-0.00300842
1.31916e-06
0.000114745
4.08418e-06
0.188849
3.30309e-06
-1.674e-06
-0.516575
0.000150381
-8.26836e-06
3.3881e-07
-1.97222e-05
4.08014e-05
-0.0347286
0.000152772
4.23146e-06
0.126911
-1.53046e-06
-0.000222874
-0.0100385
2.5177e-06
-0.565517
3.70451e-06
2.1341e-05
-2.23923e-06
-0.0493253
-0.000427112
3.15844e-06
0.0306356
-0.134069
-5.19649e-07
0.000192214
-7.25506e-05
1.09748e-06
8.56342e-07
2.77663e-06
0.355421
-0.133855
4.34349e-06
0.000948723
-0.0770669
0.00499675
0.0484036
-0.0116336
0.0444869
-6.03313e-06
-0.0033767
0.00599185
4.18154e-05
-1.01588e-05
-0.0675126
-0.152186
-0.000234123
-8.06965e-07
-1.08808e-06
1.67418e-06
2.6269e-06
1.66395e-06
2.55145e-06
-0.0728023
1.7655e-07
-3.47669e-07
-0.00324477
-2.62617e-06
-6.49839e-07
-1.32476e-05
-8.04564e-05
-0.144051
0.372696
-1.88029e-06
-0.0159025
3.64756e-06
0.000192031
-0.00925926
-0.14097
-0.183375
1.02686e-06
3.03694e-06
-0.161192
-0.0503671
-0.0203156
-3.36532e-05
-0.0265056
0.0472449
-6.97715e-07
2.71888e-06
-1.38383
-0.000126439
-0.0057105
-0.0193131
0.000122782
0.000982919
-4.87164e-07
-2.78319e-06
2.33848e-06
3.47389e-06
-4.38524e-06
3.34852e-06
0.020261
-6.73679e-07
-0.502146
-0.12956
-6.15073e-07
-8.17926e-07
-8.78496e-07
0.000253639
-0.000496009
0.00162156
3.46961e-06
-0.390428
0.000495537
7.62843e-06
4.91734e-06
-0.000147649
0.000105864
5.28722e-06
4.79477e-06
0.773022
-0.123692
-1.95498e-07
-4.02103e-06
9.77797e-06
0.325573
-1.78188e-06
-4.41848e-07
2.6213e-06
-7.30632e-07
-5.10464e-06
4.34669e-06
-5.50973e-05
1.16704e-06
7.74459e-05
3.40874e-06
7.15578e-05
0.00869924
-0.00516847
-2.0073e-05
1.96541e-05
9.45041e-08
-8.57466e-07
-3.37084e-07
0.000105772
0.0199648
-0.119958
9.47891e-06
0.599252
-2.28582e-07
0.000269533
2.2826e-05
1.97546e-06
-0.000958934
-2.72472e-07
3.08732e-06
0.291375
-3.3405e-06
2.34479e-05
0.0227657
-2.54382e-06
1.52496e-06
-1.24452
-5.43953e-06
-0.0624755
-0.0778232
1.22189e-06
-1.59064e-06
0.000847218
-3.97154e-05
-0.000452302
-3.05598e-06
-0.396139
0.657271
0.0335632
-3.20418e-07
0.370804
3.13641e-07
4.60472e-06
3.73631e-06
-0.000756328
-0.503974
0.00148163
-4.83405e-05
1.9862e-05
-7.60168e-05
0.0999626
-0.0179105
2.14665e-06
0.00194435
0.000118157
-0.118845
0.000457406
-0.00251516
1.47575e-06
-0.00077799
0.000770893
1.26998e-06
9.60098e-07
-1.80053e-06
-4.89376e-07
0.000304273
0.00186221
0.0828969
0.338687
-0.000629002
-3.01626e-05
3.95108e-06
-3.77137e-07
-0.431112
2.52819
1.11494e-06
0.000411844
0.693071
0.769863
4.18448e-06
4.46521e-06
0.00191874
-0.00125586
4.61834e-07
-0.0919372
3.24242e-06
-4.96246e-06
0.000299602
1.64286e-06
4.79537e-06
-3.6187e-05
5.96221e-07
5.31021e-05
0.000440639
-0.00079805
-0.0591105
2.69759e-05
-5.17209e-06
-0.0561502
-2.90238e-06
-0.196995
0.00359425
2.70468e-06
0.073622
2.79786e-05
2.05094e-05
-0.106495
-0.0139558
-0.0109829
0.508963
-3.77599e-05
0.575957
-2.93561e-07
0.306936
-0.0656251
-0.000312504
1.81624e-05
-0.0317118
0.000108605
0.000908758
-0.00701186
-2.33736
2.94972e-06
0.135788
3.61721e-06
0.000532496
-0.00182879
-1.51529e-06
0.00066206
0.984524
-0.0690312
-0.000342151
-6.36406e-05
-4.008e-07
-7.8673e-07
-0.000327662
-0.000502178
0.0113557
-8.85102e-06
-0.011442
-3.65897e-05
6.38143e-06
0.000146217
-1.0364e-06
0.0318206
2.72579e-07
-5.02676e-07
-0.0811148
-2.86423e-07
-1.08504e-05
-0.0079801
-0.0031982
-0.00408378
3.03421e-06
9.60175e-06
0.00237588
1.02153e-05
0.00971981
8.47475e-05
-0.000142513
1.9278e-05
1.3232e-06
1.29358e-07
-0.278153
-1.15491e-06
0.02722
-0.00572945
9.56716e-06
0.572247
1.2898e-06
-0.00109784
-0.000344626
-0.870707
7.21172e-05
0.0209971
0.0147141
9.44745e-08
0.00221808
-2.37942e-07
-0.00663279
1.12158e-05
5.31393e-06
0.503797
-0.0167999
4.47894e-07
-3.65582e-06
-1.1404e-05
2.1474e-06
2.97532e-06
-0.0639049
-0.372385
-1.2394e-06
2.14109e-06
-2.76015e-07
-0.231102
0.00898859
-0.0902163
2.93529e-07
-0.00401868
5.41094e-06
1.05212e-05
0.00018779
0.07701
2.08687e-06
0.000332917
-0.00177336
-0.000231917
-0.134718
3.22738e-06
0.000439693
2.12074e-06
-1.51349e-05
0.000215777
6.63187e-06
0.000726977
2.81916e-06
-0.0171483
-1.26646e-07
9.91977e-05
-0.000749189
-0.100974
0.000602574
1.77058e-06
9.59019e-07
-0.00662065
-0.00125691
0.000533192
5.65962e-07
1.8161e-06
-0.000275946
-0.0804326
-0.00127335
-6.08001e-06
3.74815e-07
-1.99918e-05
-3.27216e-06
-5.40213e-05
1.01515e-06
-2.78924e-06
0.0484135
2.8557e-07
1.6988e-06
-0.00564675
-7.71649e-07
-0.00923731
0.00132274
0.0830233
-0.0694443
-0.0444702
-0.376136
2.5897e-07
2.18158e-06
-0.000101084
-1.50564e-05
2.05557e-06
-1.19861e-06
1.29224e-06
1.5361e-06
-0.263369
-0.00934439
0.000338407
6.67996e-05
1.83259e-06
0.000618292
0.000627736
0.00251118
4.28817e-06
4.71222e-05
-1.11912e-05
-0.719005
2.51064
-0.0840177
5.13641e-07
-0.00125837
-0.0039552
-0.138059
-0.0466062
0.237337
-4.90622e-05
-0.000643958
0.000106546
2.61028
-4.33565e-06
1.50148e-06
0.00139022
-0.147193
3.47816e-07
0.0366658
0.0432985
3.21476e-07
2.74059e-06
7.25726e-07
-7.43293e-06
-1.29436e-06
-4.28699e-06
0.000690001
-1.41323e-06
-5.27213e-06
0.604289
-0.622379
-1.07741e-06
-0.0707366
-0.0409081
1.96936e-05
1.13312e-05
-3.80423e-05
2.69993e-06
-4.03093e-05
2.72099e-05
2.43822e-06
5.15887e-06
-9.83587e-06
-1.21393e-06
0.89476
0.00036764
2.21628e-06
-5.14955e-06
-0.697895
2.80669e-06
1.214e-06
-0.785999
1.99376e-06
0.000932476
0.000223842
2.19085e-06
1.03134e-06
2.86836e-06
-0.0002206
-0.000357817
5.81259e-07
-0.0472414
0.00249145
-0.00274216
0.333042
-1.76695e-05
-0.0934611
-4.69965e-07
-0.0405391
1.1273e-05
-5.33657e-06
-0.00989416
-0.0279736
2.59758e-05
0.0203281
0.135141
1.62443e-06
0.000284094
1.24625e-06
3.20265e-06
0.00035431
5.67153e-05
1.68207e-06
-0.0524446
1.90401e-06
-7.86867e-06
0.0343851
4.48226e-06
2.16479e-06
1.22451e-06
1.16468
-5.10651e-06
-9.26542e-05
0.000639175
0.577909
-0.0179131
-0.0134946
0.0701354
-3.0252e-06
-1.03212e-06
2.35442e-06
-1.17586
8.78058e-07
1.0224e-06
6.79936e-05
-7.39099e-06
-0.00867112
-2.67425e-06
4.42042e-06
1.8578
2.07437e-06
-0.00318214
-0.86855
-9.51935e-07
-1.23964e-06
1.93239
-8.84288e-05
-0.149383
-0.85305
-2.13596e-07
3.54274e-06
-0.0822916
8.38004e-07
7.45021e-05
-0.0526735
6.86769e-08
-0.0382674
5.18615e-07
-6.56219e-06
-1.30119e-06
0.000686445
6.36484e-05
0.3056
3.41003e-06
1.19835e-06
-0.019603
0.0309761
-0.000347417
-0.000328883
-0.0589386
-0.026413
0.294094
4.34027e-07
0.0774736
-2.86494e-06
-0.822517
0.612141
-3.93476e-05
-0.000440636
-4.0539e-06
0.0143372
2.43648e-06
-0.758049
3.86595e-06
2.37755
-0.0104911
1.08259e-06
4.66469e-07
-1.88949e-07
0.0632825
-0.00351105
1.62374e-06
-0.107439
1.28828e-07
2.09719e-06
-0.0634888
6.38282e-07
0.0543058
2.75321e-06
7.76163e-05
6.35557e-07
3.08801e-06
1.3011e-06
2.51003e-06
0.00149293
-0.000304827
-0.000140326
0.000925553
2.29541e-05
-6.20972e-07
-0.0185456
9.2114e-07
0.291173
3.18885e-06
0.0681945
0.000265152
0.127919
-1.08713e-05
-2.90265e-05
2.04121e-06
0.0435476
5.07031e-06
-0.0503471
0.0044895
2.69332e-06
0.000144671
7.96486e-07
-9.25315e-08
-5.77454e-05
-7.78231e-06
0.00344127
1.13536e-06
-5.6681e-05
5.25962e-06
4.24357e-05
-0.892207
-0.0510988
1.02791e-05
7.59095e-07
-8.349e-06
1.90203e-05
2.39479e-06
-0.000333268
-1.30758e-05
1.02149e-07
-4.83527e-06
3.0623e-06
-0.00846772
-0.00484468
1.34785e-06
-7.17507e-06
-1.04722
-7.45951e-05
0.0664596
1.66783
3.17963e-06
-0.518616
-1.36555e-06
1.00425e-05
-8.99995e-05
-2.88649e-05
-0.00840762
-4.35599e-06
0.000892556
-0.00135697
0.00766848
-1.1064
-0.287316
0.768486
-0.000677726
4.32263e-06
3.67397e-06
-0.0730482
-1.09902e-05
2.44713e-06
0.000523048
-0.090012
2.5309e-06
-9.96047e-07
0.677648
6.05492e-05
-0.000200953
8.53773e-05
8.51486e-05
0.00710388
3.61203e-06
8.16267e-05
5.14846e-06
-0.000469673
-0.000263127
5.32619e-06
2.55416e-05
0.0324282
2.19005e-06
-4.12903e-07
-0.0513158
5.72162e-07
1.97297e-06
-1.32001e-07
1.41501e-05
3.29347e-05
0.7836
-0.00382545
-0.0484377
-0.0151401
0.0879127
0.0097102
-0.000243381
-0.34428
-0.0677354
9.38318e-06
9.97759e-06
6.14835e-07
3.77553e-06
1.54442e-05
-6.94048e-05
0.0105707
-0.00802363
2.62222e-06
-8.03334e-08
-0.000924863
-0.000258379
0.0262506
-1.34755e-06
-1.47301e-05
2.17853e-06
-0.0169533
0.0137601
0.000623636
0.0594883
3.70888e-06
2.53284e-06
0.00119263
-7.13079e-05
2.64275e-06
0.00337277
2.9595e-05
-0.00049641
0.0102448
0.000168682
-0.00034772
2.77682e-06
2.16539e-06
-5.73548e-06
-2.0449e-06
-0.0505446
0.00210935
0.00318002
0.0116536
-0.0840242
2.5626e-05
-0.385288
0.159429
-0.282168
-0.00943604
0.119902
0.000306874
-0.159038
-0.00239578
-0.000597369
-9.76622e-07
2.26877e-06
1.13368e-05
-0.00101181
9.18841e-07
1.92987e-06
-0.0228449
-0.766281
0.023867
-0.0532907
-0.00357814
-0.0433026
-0.000523327
6.29511e-05
-1.91489e-07
-0.246024
-0.0107021
5.03154e-06
0.000727329
-0.41559
0.324485
0.670665
0.00131692
0.00369309
-1.07808e-06
-0.181916
2.21467e-06
-0.0319658
0.0959373
-0.000708687
-0.00835271
-0.00301818
3.34211e-06
-2.61064e-07
0.444774
-0.0111301
-0.0059615
2.8995e-05
-0.000275507
-7.10653e-05
-0.00059803
3.83533e-07
-0.036058
3.11074e-06
0.010207
-0.13477
-0.000182588
0.0247192
0.00990001
0.720219
-1.16706e-06
-0.000492371
0.163923
0.000477588
7.09212e-07
-0.0818568
0.166357
3.32726e-06
8.59308e-07
0.0771267
1.95689e-05
6.73587e-05
0.406252
-0.237011
-2.29512e-05
0.000288707
-0.599473
0.000578283
-6.20945e-05
-4.48808e-05
-0.0438781
-0.000204275
-2.96386e-06
-1.42709e-06
0.00157158
1.55819e-06
-0.113369
1.6507e-06
5.48192e-07
-0.00975527
3.26547e-05
3.8619e-06
-0.0444428
7.29512e-08
6.94345e-05
1.9659e-06
8.857e-07
7.55291e-07
-0.00572222
-3.17466e-05
-0.0195922
-0.0110859
-0.0284423
-0.941729
6.75993e-05
-5.18393e-07
1.49782e-06
0.10855
0.000292395
-5.76074e-05
-0.0191181
0.00104471
0.085696
1.712e-06
1.31204e-06
-9.7332e-08
-6.87374e-06
1.21112e-05
-4.87246e-06
-6.47769e-05
-2.93066e-05
1.32869e-06
-0.190692
0.00182493
-0.0372119
0.000198355
1.66023e-06
-0.000476401
0.251951
0.249644
0.0978964
0.130996
-0.0961597
-0.00443497
0.176054
-0.000103334
-0.000697301
0.000789035
0.453104
-1.00803e-06
-0.328437
-0.00969332
-0.0084464
7.0231e-07
0.0643008
2.39476e-06
5.98248e-07
6.01137e-06
0.000273175
0.0283469
-0.0136729
2.53066e-06
-1.55576e-07
-6.95285e-07
6.31817e-07
-0.000147752
2.56701e-06
0.0664527
0.00129556
0.000484387
2.8162e-05
2.71779e-06
-3.60717e-06
0.343142
0.306601
9.43144e-08
4.43455e-05
-3.42869e-05
5.59433e-07
2.52955e-06
-1.12165e-06
8.84108e-06
1.18925e-06
1.16283e-06
2.69503e-06
0.0119088
5.67056e-05
-0.02285
4.28935e-06
2.36378e-06
-0.08532
-7.5262e-06
1.40438
2.31626e-06
-0.000928036
0.0398488
-0.0234494
-0.000579668
-0.000286051
0.77543
9.94775e-05
-0.000163301
-4.41083e-07
2.94801e-07
-5.99535e-06
3.26801e-07
0.00907521
0.0016952
0.000109681
0.005126
-5.41014e-06
-3.00511e-05
0.00145686
0.141413
6.1783e-07
7.82906e-05
-0.0678849
-0.0095254
0.140683
-3.42703e-06
-5.70596e-06
0.564387
-0.000220728
9.49634e-08
3.6009e-06
-0.00796996
6.70239e-08
-1.86602e-07
0.00367158
0.00121962
3.27891e-05
-6.56322e-05
-7.05389e-05
0.486592
7.00844e-05
-0.067257
-0.414346
-7.40751e-07
-2.32049e-06
-0.0686463
0.00109648
-0.000195316
1.86595e-05
-0.000611534
-0.000754523
6.38897e-07
-0.000165102
-0.00907528
0.00207123
-0.059429
-0.0078345
0.000587463
-0.0985626
-0.0287039
5.02498e-06
0.121066
-0.422562
-4.17212e-07
-0.200813
9.64993e-07
-0.00291552
-0.000258533
0.00874292
-0.00040358
-0.084785
-9.65898e-05
0.00585666
2.1182e-06
1.54485e-06
-0.827054
-4.94765e-05
2.09985e-06
2.09788e-07
1.22409e-05
1.27742e-05
-1.90565e-05
-9.53487e-07
6.67896e-07
-0.207864
1.63064
1.26117e-06
3.73737e-05
-0.529593
-0.0352511
-7.59188e-07
-0.00720917
-0.121524
0.000707109
1.0758e-05
9.71071e-07
0.416356
6.79363e-06
0.00243581
-0.000647214
-5.46626e-07
-7.8113e-05
-0.0667356
-1.70621e-06
-0.00682083
-0.0977616
0.263526
-1.66576e-05
-1.71092e-06
7.68724e-07
-5.97732e-07
2.12746e-07
-0.0212089
0.694314
1.96323e-06
-0.365478
1.92172
-1.28807e-07
4.30795e-06
4.64496e-07
0.0655066
0.761761
0.00112671
0.00132164
5.38326e-05
0.0359945
-0.0606927
-1.04938e-06
-1.23024e-06
0.000297288
0.000507229
-0.722137
-0.0149548
-1.80253e-06
0.0168997
-0.0499543
-0.000464538
6.27526e-08
4.18347e-06
-0.000138085
-1.6691e-06
-1.51495e-05
-6.15258e-07
-0.0391328
-0.0359088
-1.59007e-06
-6.24132e-06
0.000956186
-8.22362e-08
-9.96984e-07
9.20156e-05
0.0220872
-2.56779e-07
9.94114e-05
-0.142293
-0.00439356
0.00631249
-0.0040933
0.000255671
0.000269764
6.34048e-05
-3.7987e-06
2.05613e-06
-5.20309e-06
-0.13242
0.000774761
-4.73949e-07
-0.00537307
-7.52031e-06
0.00581049
-0.112095
5.68735e-06
-0.108657
-3.42071e-06
3.52637e-05
-0.00712694
0.185612
0.000184681
8.08414e-05
5.77464e-05
-0.0196065
3.91536e-07
0.151875
0.529946
-1.57033e-08
9.44951e-05
0.0121375
2.85991e-06
3.59565e-06
0.0280003
0.000438948
-1.18643e-06
-0.0361081
0.00012214
-1.816e-07
0.763645
0.565756
-0.00393579
-1.36369e-06
-0.153317
-0.00101232
-6.85794e-07
0.00246755
0.000680969
0.000108847
0.00924557
-0.440592
-0.0218482
0.00232968
-0.0108014
-9.1004e-08
2.01203
-0.038794
-0.00243918
-0.0121623
4.71053e-06
0.0379791
6.5489e-06
-9.2372e-07
0.000958613
-1.35844e-05
-0.0024531
0.00302746
4.35301e-06
0.431753
-0.561177
-0.36447
0.000485891
0.00161083
3.79787e-07
9.78619e-05
7.31604e-05
7.71962e-07
0.0454572
-0.454355
-0.040385
-0.26884
-0.0250859
0.0703716
0.261653
2.09227e-07
-0.000102791
-0.616072
0.000678681
8.2871e-06
2.60559e-06
-0.141685
-0.0127224
0.000281584
-6.15326e-07
-4.19286e-06
0.0266629
3.60134e-06
0.00913814
-0.00892388
-7.15082e-06
-1.38683
2.68052e-07
0.0868267
-0.00460114
1.9121
5.48626e-05
0.182351
-8.37241e-05
-3.13894e-06
3.27681e-06
0.61543
0.00162607
0.00288907
-2.40461e-07
3.89539e-06
0.130337
1.9761
4.24631e-06
-0.00851412
-0.00945563
0.41758
1.97103
6.25925e-07
9.64875e-06
-0.014181
5.02886e-07
7.38589e-07
7.68799e-05
6.08709e-06
8.71853e-07
1.7965e-06
2.49079e-06
0.000123753
5.2803e-07
-0.000183914
-0.000311265
7.1933e-06
-0.695662
0.479265
-5.23524e-05
-2.03102e-07
8.72738e-07
-0.00752616
2.68405e-06
-1.56726e-07
-2.34385e-06
-0.00938477
-5.96323e-06
-3.86724e-06
-5.32142e-05
0.000408324
0.180722
4.26478e-07
-0.00782697
-0.04711
0.000226222
0.00371357
-0.0118787
7.65878e-06
-1.27165e-08
-0.0113819
-0.00639162
-7.47924e-06
-0.0734491
2.61712
1.17365e-06
1.99225
-4.17552e-06
0.00260159
-0.101765
0.0528825
-0.817705
-7.44592e-05
2.15086e-06
0.613974
5.89999e-05
0.176289
0.00136388
0.0902221
0.0515446
2.2745e-05
-2.9905e-05
2.50298e-06
0.0029945
0.00010192
-0.751092
-1.32284e-06
1.11266e-06
0.00906427
2.67246e-05
-0.0569032
-4.15347e-05
-0.0117599
-0.621533
0.00100677
2.09208
0.661643
-4.78221e-06
9.7021e-07
-5.48735e-07
-0.0808214
0.139654
-4.14488e-06
1.10376e-06
-1.59553e-05
-2.70037e-07
-0.00358827
-5.59853e-06
5.47874e-08
-0.413304
4.11458e-06
-7.888e-07
0.000177679
0.236824
-0.580413
0.369709
4.25556e-06
-0.00434411
1.63233e-05
0.000112806
-0.0103967
-0.0729117
0.647233
-8.34166e-05
0.00313945
-6.80115e-07
0.000738975
0.000298673
0.00117233
-0.191778
8.89818e-07
-0.000649315
-8.78081e-06
0.110597
-0.0228087
-2.67425e-08
-7.25923e-06
8.23165e-07
9.31496e-07
0.0945747
-3.27731e-08
-3.10196e-06
8.62248e-06
2.78799e-05
2.27598e-06
-2.28537e-06
1.08704e-06
1.30148e-05
2.62791e-06
1.94763e-06
0.0665091
0.115217
3.01093
4.24751e-06
-9.9248e-08
-3.05754e-07
1.29569e-06
6.34936e-07
-0.00115652
2.09043e-07
-2.95093e-07
-3.96969e-07
1.40501e-07
0.000464269
9.90561e-07
-0.715322
0.18364
0.000417481
-0.267772
3.91982e-06
-0.60721
-0.019119
0.107424
6.04512e-06
0.686305
2.55763e-06
-9.44691e-07
4.27819e-06
-0.00537068
-0.00120017
-3.96932e-07
0.00224653
-0.000300538
2.74342e-06
-0.036451
0.105313
-0.000837164
4.52381e-07
4.42784e-05
0.715616
0.000525743
-0.357173
-5.12007e-07
-4.91499e-05
-2.95447e-06
-7.8627e-05
0.000435864
0.00456757
-0.000965736
-2.84834e-06
2.25313
0.00369901
-0.00872404
2.10702e-06
-0.000188469
-0.403326
2.25822e-05
4.42286e-06
0.000171668
0.0244398
1.18005e-05
7.1926e-06
-4.64491e-06
-0.00048628
2.4649e-05
0.259943
6.22859e-06
0.000103452
0.000594612
-0.120026
-1.93131e-06
1.09527e-06
-1.05731e-06
0.00078678
-1.95058e-07
0.0534237
-0.0759133
-0.000520887
-0.00607826
8.15189e-07
2.62461
-4.66972e-07
-1.24766e-07
-0.0204726
0.00404831
-0.0069382
-0.0102092
-0.0130783
-0.00336166
-0.000318263
0.000771837
-4.18667e-05
-0.312811
-1.96179e-06
1.93342e-05
-0.466035
4.31368e-06
-0.0262909
0.0952525
0.0756144
-0.0824085
-0.0034608
-0.108874
0.235173
-0.00346318
-4.4749e-05
0.00361057
-2.08133e-06
-2.95198e-06
1.97078e-06
0.0516899
1.64831
0.252788
-6.40418e-05
-9.9503e-06
-0.0292151
-2.24175e-07
-5.90043e-05
1.20896e-06
0.00161788
5.08187e-07
6.98378e-07
9.34317e-05
-6.18507e-05
1.77412
-0.000819226
0.000515785
-3.88476e-06
-2.11983e-07
-0.554323
-9.20875e-06
0.00613303
3.01499
7.57069e-07
-0.0025032
1.67976e-08
0.678386
0.000171713
1.05507
-1.82997e-05
1.84361e-06
0.000278816
-0.0168032
-0.728997
0.00229546
0.0610177
2.87724e-05
-3.99888e-07
2.3389e-06
2.88551e-06
-2.75383e-06
1.30633e-06
-0.591198
-1.25376
-0.000712501
-3.55608e-05
2.67045e-05
3.95752e-05
1.23303e-06
-8.93738e-07
-0.000747235
0.322256
0.0249726
-1.89872e-06
-0.0337313
-3.54642e-07
-0.00242975
3.17368e-05
0.000265289
-0.0151454
0.0465425
0.0450381
3.84098e-07
4.99874e-07
5.34893e-07
2.52234e-06
-2.62259e-06
2.00977e-06
0.0998166
2.61442e-07
7.84267e-06
-1.37761e-05
-0.00105302
1.48757e-06
0.720803
-1.04871
0.00472794
8.07531e-06
-0.011824
-2.60818e-06
0.0504227
0.452375
5.60441e-05
0.00811116
9.56868e-05
-0.00213362
7.17827e-06
-3.70253e-05
0.000280869
0.00223695
-0.00166533
-0.120341
-0.00770388
-0.00967139
9.71788e-05
1.34418e-05
4.46881e-06
0.00711965
7.9731e-05
0.86644
1.10341e-05
0.392556
-0.63907
-0.0409232
-7.03994e-06
0.00284002
6.38756e-05
5.94947e-06
-3.47523e-06
-5.59374e-05
-0.00151896
2.83768e-08
-0.00589429
0.00494996
-0.00259582
2.07232e-06
7.18419e-05
-0.00741878
-0.0257265
0.037552
0.000179017
-0.0021735
1.65293
-0.00700136
4.57676e-06
-0.000228163
0.0229507
-0.00130839
-0.561461
0.000229614
0.000219319
-0.00598581
-3.1161e-06
0.00828982
-0.000480718
-2.06943e-06
-0.174256
-0.0642808
-0.857498
-0.000257993
-0.00476116
0.00120059
1.05853e-06
0.00131186
8.44826e-08
-0.00158982
7.82816e-05
0.196137
-0.337763
0.538887
-0.00649072
-0.00905274
-0.58454
0.000124296
-0.0111359
0.0102473
0.0306143
2.82345e-05
2.53181e-06
-2.19466e-06
0.000118748
-5.70053e-06
2.28973e-06
-0.611942
2.09674e-06
-1.60107e-06
-4.28019e-05
1.13916e-05
2.56899e-07
0.00477291
0.599957
-0.00318696
-1.91184e-06
-2.64782e-06
0.000444661
-4.83776e-05
2.41785e-06
4.30565e-07
8.77835e-07
-0.105281
0.000228908
0.00533906
-0.000359047
5.27143e-06
8.39937e-07
-0.019058
-0.0046796
-0.0110799
-0.00404527
4.38735e-06
0.00137813
-1.67881e-07
0.000125079
0.0575624
-0.0160252
-0.00772295
4.62807e-05
-1.46475e-05
0.000314033
0.0489113
-0.0589525
-0.0805699
0.000206514
-1.55685e-05
-4.17086e-07
0.00015856
0.00725195
-1.3387
-3.94911e-06
-0.00937611
1.04895e-06
-1.93318e-06
-0.000382448
1.11864e-06
-0.0606276
-0.00087407
-0.0091587
-1.4793e-06
-0.000392309
0.000438024
0.563277
-1.66559e-05
8.03388e-06
-0.00677261
0.176753
0.899082
-0.481551
0.294668
-7.02492e-05
-0.0110952
0.000221444
0.00263597
0.03079
-0.00101412
-1.56528e-06
1.16412e-06
-7.32249e-07
-0.299088
0.197324
4.16552e-06
0.327571
-2.68196e-06
-1.80117e-06
3.47123e-06
-0.00706737
-0.0113662
0.39952
2.65056e-06
-4.79183e-06
0.00122059
-0.0574242
-2.30203e-06
0.201271
1.7803e-05
0.000260276
0.229838
4.50552e-08
1.5194
0.144718
0.0926185
0.59226
2.68574e-05
6.59302e-05
-0.000222748
0.282771
-0.00929695
1.64043e-07
-0.156166
-0.133577
7.17842e-07
3.14858e-05
-0.62803
1.50813e-06
0.513033
-0.256476
0.000194175
-1.33499e-06
-3.25395e-05
0.00025474
0.0712983
-4.0383e-07
-8.71058e-05
5.47764e-05
0.0290564
-0.0178882
-4.20731e-07
-6.71063e-06
-0.00717031
-0.000234105
1.23263e-06
7.14288e-06
5.92652e-08
0.000943453
5.41773e-05
0.0400534
5.22028e-07
3.18572e-06
2.19569e-05
-4.25043e-05
9.46135e-05
5.23499e-05
0.133546
0.0235287
-0.00679844
4.93506e-06
-1.91061e-06
-0.182044
0.000161992
-0.00253367
-0.58032
-0.00760022
-0.00740406
-0.13105
-1.25694e-06
-0.631311
0.00852529
1.41137e-05
2.14687e-06
2.59867e-06
2.78628e-06
-0.749482
-0.0240264
-2.94957e-06
-0.187871
0.239886
-0.978252
-8.73145e-07
1.34272e-06
0.00731557
-2.26032e-08
-3.37784e-06
-4.06724e-06
-1.45843e-06
-0.0113802
-4.31944e-06
0.0533007
0.033286
-2.77171e-05
-0.292617
0.00198414
-0.00817722
-0.975663
9.58507e-07
-7.97408e-05
0.000775555
2.64164
-2.91601
-0.0450971
-1.37535e-05
2.64463e-06
-0.000967553
1.51949e-06
-0.0166577
0.584771
-4.93098e-07
-0.397864
-2.98285e-06
0.391658
-3.25805e-06
-0.00782342
6.50045e-06
-0.784404
0.00884468
-0.281137
-0.173773
-2.03806e-07
-0.0265713
-0.466692
-6.73207e-06
-0.626516
4.3386e-06
-3.27843e-07
5.65922e-06
0.000273892
-2.69473e-05
4.02207e-06
-3.37177e-08
0.000326827
0.000613458
0.00244818
-0.119391
0.00169556
-0.000297873
-4.86182e-06
0.00308551
-4.98874e-06
-0.00970498
-0.067474
0.0964896
0.0238961
6.28644e-05
5.14563e-05
-1.17239e-06
0.00307817
-2.33712e-05
2.09911e-06
0.276776
0.619211
-1.29709
9.73339e-05
2.69736e-06
0.00120769
0.000802711
2.1148e-05
9.85989e-07
4.77819e-05
-4.72634e-05
0.000755081
-1.55855e-06
-0.0288848
5.15744e-07
0.295916
1.39958e-06
-0.0930313
0.274734
-0.398472
4.41417e-06
-0.00892046
5.81305e-07
-3.65079e-06
0.00159285
0.482239
-1.80019e-06
1.19469e-05
-0.261938
8.36293e-07
0.0018513
-0.336034
-0.000401072
0.693117
-3.29749e-06
0.405592
0.000604199
-0.0511544
-1.59762e-06
2.24896e-06
2.85279
2.3264e-06
-0.00632028
-5.80569e-05
0.000504836
0.636413
-1.13689e-05
2.83099e-06
1.36877e-05
1.97849e-06
-0.473978
-0.380163
-3.21774e-06
-0.0156118
0.00739794
-1.12318
4.21896e-06
-0.0289593
-0.226777
0.000352795
0.000346555
2.40309e-06
-0.205611
-8.11801e-07
-0.0177633
-1.33763e-06
5.14415e-06
4.65653e-05
2.19946e-06
8.49177e-07
0.00381282
5.95415e-05
-1.08884e-06
-0.0319068
-4.36414e-06
0.00287364
0.000211455
-0.487414
0.000359661
6.64293e-06
-0.000301763
-5.0269e-07
6.87412e-07
-5.17738e-05
0.24616
0.0503812
-0.034248
2.23779
5.65173e-07
-1.5147e-06
-1.2597e-06
-3.66221e-07
1.86561e-06
-0.00791909
-2.75951e-06
5.49205e-05
-0.0180268
1.63907e-05
-0.0101115
3.09664e-06
7.73655e-07
-1.25136
0.0796667
1.91832e-06
-0.00115853
-7.38169e-06
-1.13425
2.74232e-06
-4.69558e-05
0.336493
-7.26349e-06
0.0318665
-0.00934548
1.18929e-05
3.28232e-06
2.60755
-0.000165455
0.00207762
0.220378
-0.523193
3.76576e-05
-0.000260529
0.001037
2.37113
-1.01816e-05
0.83464
-0.102963
-0.394246
-0.283862
5.09717e-05
1.69511e-06
3.61696e-07
-0.163027
0.0253252
-0.240108
0.773425
3.966e-06
0.0695485
-5.76635e-05
-0.224487
5.05377e-06
0.00190491
-0.0019955
4.402e-05
-9.34907e-06
-0.00988095
0.000221399
2.4769e-06
6.83526e-06
0.00312544
4.85141e-05
-1.2503e-06
0.076403
-1.20325e-05
4.44239e-06
5.23953e-07
-0.440026
0.000301462
0.00941797
0.000247596
5.17088e-05
-0.27088
-2.90932e-05
-0.00170812
-3.25421e-06
7.0883e-09
0.143697
0.768971
0.088795
-0.000177084
-0.000149816
-0.124018
-0.000882986
-0.00163681
0.0295844
0.073216
0.26099
1.74097e-07
0.0406747
-1.2863e-05
-0.00081424
-0.348982
-0.00979245
-0.0095617
3.35535e-06
-1.02889
0.00187158
0.0237156
0.00157212
2.52902e-06
2.529e-06
-2.61335e-06
-0.464547
4.71225e-07
-0.236807
-0.000731936
0.0325934
2.13837e-06
-0.45344
0.266418
0.0110443
-0.0223409
1.24366e-05
4.979e-07
1.63517e-06
7.44527e-05
1.89645e-06
-0.000279379
-0.257625
4.10697e-06
4.14613e-06
0.713437
0.00735406
0.0280895
-0.000210503
0.000574139
2.6584e-06
-0.276283
-1.30258e-06
0.0498004
0.00082308
0.00841328
-0.000499587
-0.00935863
2.25996
1.05321e-06
-1.78708e-07
-0.169124
0.055829
-0.175077
-0.00908815
0.00117642
2.7837e-06
0.0130171
2.3879e-06
-0.0220415
2.68084e-06
2.65959e-05
-0.0458542
1.21048e-05
-0.00953573
1.34319e-07
0.154431
-0.500444
0.00148829
0.000615446
-0.604242
0.000122855
-1.05302e-06
-0.205812
0.278686
0.00216372
1.59682e-07
-1.58224e-05
0.458797
0.362687
-0.0253049
3.35524e-07
-0.000100056
1.67985e-06
0.000188673
-3.32855e-06
5.94341e-07
0.0651632
-1.33285e-06
1.31445
-0.000116845
0.0018354
3.95334e-06
0.493872
-1.29834
-0.00871976
1.88987
0.0627836
-1.81908e-06
0.00120945
-0.591228
3.17437e-07
2.48291e-06
8.93884e-06
-0.680227
-0.076446
1.04731e-06
0.666648
0.00195813
2.91215e-09
-0.336871
4.76882e-05
0.00180205
-0.67011
-1.157
3.85872e-06
0.00115413
0.000892405
-1.33765e-05
0.753247
0.00253699
0.0368698
0.608482
0.00134226
0.248242
0.0818062
0.000153077
-0.272189
0.568548
0.440252
1.33749e-05
9.11647e-07
2.27987e-06
-2.35824e-06
-0.0325695
-0.3567
1.71331