/*--------------------------------*- C++ -*----------------------------------*\
| =========                 |                                                 |
| \\      /  F ield         | OpenFOAM: The Open Source CFD Toolbox           |
|  \\    /   O peration     | Version:  v2012                                 |
|   \\  /    A nd           | Website:  www.openfoam.com                      |
|    \\/     M anipulation  |                                                 |
\*---------------------------------------------------------------------------*/
FoamFile
{
    version     2.0;
    format      ascii;
    class       volScalarField;
    location    "400";
    object      nut;
}
// * * * * * * * * * * * * * * * * * * * * * * * * * * * * * * * * * * * * * //

dimensions      [0 2 -1 0 0 0 0];


internalField   nonuniform List<scalar> 
18758
(
0.0069447
0.00751507
0.00685808
0.00694916
0.00543617
0.00681599
0.00673679
0.00671273
0.0058863
0.00599649
0.00908452
0.0142796
0.00409546
0.00386659
0.00673401
0.00670976
0.0139367
0.0066853
0.00673121
0.00654261
0.00815266
0.000417489
0.00682734
0.0068134
0.00104912
0.000516476
0.00449782
0.000943887
0.00051331
0.00810802
0.00638729
0.00509057
0.0067275
0.00431252
0.00494371
0.00857857
0.00484795
0.00593435
0.00398151
0.00677201
0.0189041
0.00516085
0.0179835
0.00679734
0.00676583
0.00941777
0.00537105
0.000537604
0.0111778
0.00692009
0.00955129
0.00345853
0.00690885
0.00608986
0.000370176
0.00380678
0.00679369
0.00657907
0.000574019
0.00679455
0.00679162
0.00679781
0.00320357
0.0166186
0.00680126
0.0112623
0.00684117
0.00671204
0.00089076
0.00668797
0.00404127
0.000735625
0.00674572
0.00617596
0.0011808
0.00426831
0.0107401
0.0125045
0.00570216
0.0179958
0.000481492
0.00602915
0.0126937
0.00117975
0.00678199
0.000424239
0.00191384
0.00576625
0.00337421
0.000447347
0.00803017
0.00685635
0.000591402
0.00858816
0.00674348
0.00670207
0.00672954
0.000672789
0.0129424
0.00674447
0.00764871
0.00361924
0.00671108
0.0067016
0.0111915
0.00828055
0.000521915
0.00790702
0.00465235
0.0040983
0.00671007
0.0170002
0.00658812
0.00684942
0.00329809
0.0015325
0.00070523
0.00678211
0.00154666
0.00677415
0.00682188
0.00979796
0.00678208
0.00673995
0.0133049
0.00642038
0.00680098
0.00673993
0.000449124
0.0107356
0.000556297
0.00688448
0.00226458
0.00897138
0.00677969
0.00683346
0.00969773
0.00678345
0.000807293
0.000503888
0.00648848
0.0149717
0.000816651
0.00740316
0.0131185
0.000744492
0.0112604
0.000443394
0.00833335
0.00119228
0.0107801
0.0118439
0.0067835
0.0054313
0.0192471
0.00194572
0.000631018
0.000439451
0.00117859
0.00826047
0.00529777
0.00677023
0.00651116
0.0111635
0.0144292
0.00679985
0.00676799
0.00285872
0.0109213
0.0145248
0.0123903
0.00684438
0.000504066
0.0154297
0.00378614
0.00676307
0.00673999
0.000425654
0.00325599
0.00451075
0.00668999
0.00630099
0.000401598
0.00343126
0.00126924
0.00672367
0.00817539
0.00265917
0.00657475
0.019709
0.0118454
0.00672338
0.000706661
0.0125587
0.00667921
0.00382545
0.000928312
0.00677862
0.00809913
0.00682535
0.00680276
0.00045893
0.00440676
0.0067081
0.0067108
0.00697277
0.00679576
0.00512559
0.0105939
0.0105885
0.00684218
0.000591358
0.00680949
0.00678023
0.00666052
0.00673434
0.00675139
0.000682341
0.00678353
0.0146178
0.00849959
0.00680183
0.000854524
0.000477706
0.00562432
0.0168324
0.00122579
0.000498511
0.00408866
0.00679116
0.000530635
0.000809913
0.00304736
0.00686212
0.00670552
0.00679968
0.00115747
0.0123988
0.00109036
0.00680888
0.00671274
0.00108774
0.000696509
0.00684588
0.00119176
0.000788059
0.00670545
0.00670142
0.00682286
0.00674732
0.0125082
0.00680091
0.00980952
0.00680071
0.00686539
0.00118015
0.00679465
0.000995383
0.00672156
0.0129967
0.00656005
0.00674823
0.00670594
0.000742244
0.0036081
0.0029097
0.00675101
0.000747284
0.0067848
0.00681184
0.00164199
0.00380896
0.00681259
0.00678099
0.00681874
0.00668494
0.00235099
0.0067687
0.00676811
0.00418333
0.00670085
0.00688076
0.00671118
0.0108363
0.00673463
0.00677618
0.0066711
0.000647735
0.00670358
0.00670207
0.00684645
0.0045757
0.00679413
0.00683398
0.00685643
0.00683473
0.0180091
0.00689501
0.00683074
0.013945
0.00257962
0.00681654
0.00681209
0.00296059
0.00398474
0.00668954
0.00690397
0.00899618
0.00679431
0.00288477
0.0067115
0.0018723
0.00082691
0.000645027
0.000499106
0.0050754
0.00670654
0.00261656
0.000510501
0.00683836
0.00063423
0.00123011
0.00120733
0.00671023
0.00670729
0.0105349
0.0138705
0.00673116
0.0134589
0.000985162
0.00649729
0.0083517
0.0067087
0.00679825
0.00671589
0.00684028
0.00680972
0.00675721
0.00657447
0.00679967
0.00681512
0.00680738
0.00663088
0.00296351
0.0067846
0.00259089
0.0120594
0.00672694
0.00116634
0.00705438
0.000894188
0.0154854
0.00112422
0.00672302
0.0131476
0.0102176
0.00263696
0.00680741
0.00654796
0.00677099
0.00679945
0.000972624
0.0122519
0.0155894
0.00158595
0.0163041
0.00670592
0.00183313
0.00580211
0.000701227
0.011325
0.00156994
0.00272305
0.00146457
0.01824
0.00125708
0.00685539
0.0103423
0.000436855
0.00773469
0.0159157
0.00676643
0.00681588
0.000648567
0.0160565
0.0128439
0.000374647
0.0132438
0.00680458
0.0147391
0.00166702
0.00671045
0.00412674
0.00668213
0.00682922
0.00684054
0.00676014
0.0067316
0.00689432
0.00685016
0.00677775
0.00201233
0.00857555
0.0015225
0.0106885
0.0110299
0.0131079
0.00894331
0.000477892
0.00683546
0.0068212
0.0183521
0.0048167
0.00680707
0.00730093
0.00068548
0.00282212
0.0067929
0.00560378
0.00676071
0.00240925
0.00668472
0.00657193
0.00208392
0.0158131
0.00684538
0.00793873
0.00068415
0.00674116
0.00681821
0.00684463
0.0026054
0.00685683
0.00682439
0.0127682
0.00132546
0.00680363
0.00673764
0.00672562
0.0054065
0.0168138
0.00310192
0.00685448
0.0110088
0.00668373
0.00671048
0.00049164
0.00671338
0.00881
0.00683175
0.00519529
0.00685422
0.00151896
0.00679814
0.0067306
0.0132126
0.00569475
0.00667273
0.00199563
0.00661729
0.00670818
0.00683343
0.00683091
0.00967797
0.0110347
0.00680364
0.0010356
0.0170098
0.000442508
0.013396
0.000820104
0.012603
0.00677548
0.000478562
0.000990016
0.00275839
0.00673502
0.014985
0.00376185
0.0065314
0.00678866
0.00673879
0.00670515
0.00671301
0.00670531
0.00671324
0.00706731
0.00685337
0.00667842
0.000671711
0.00687194
0.00685461
0.0067729
0.00664062
0.00395203
0.00805592
0.00679632
0.0093137
0.00684492
0.00144598
0.000367651
0.0132282
0.00151162
0.00672712
0.00672324
0.0116534
0.00834941
0.00599525
0.00679252
0.00330692
0.0109844
0.00667131
0.006832
0.00182392
0.00664959
0.000485975
0.00613683
0.00684381
0.00108783
0.00670357
0.00675226
0.00685446
0.00685052
0.00678889
0.00679381
0.010236
0.00667796
0.00169895
0.0158962
0.00667317
0.00667834
0.00684384
0.00210597
0.00351801
0.00323357
0.00674507
0.020123
0.00228352
0.00316588
0.00679339
0.0067825
0.00683273
0.00680606
0.00680533
0.0151422
0.00126939
0.00669891
0.00678349
0.00475897
0.003502
0.00668736
0.00674184
0.00671916
0.00667811
0.00676962
0.00679044
0.00674281
0.00670918
0.000559489
0.0067424
0.0067867
0.0011517
0.0142903
0.00662866
0.00680169
0.00675495
0.00685405
0.00672802
0.00678256
0.00560251
0.00881299
0.00462319
0.00630266
0.00675257
0.00113495
0.00679991
0.00682922
0.000760717
0.00668726
0.00684423
0.00534345
0.00685545
0.00368537
0.00141409
0.00682362
0.00672385
0.00588182
0.00678229
0.0089722
0.00400033
0.00683656
0.00685668
0.00128769
0.00667074
0.00336003
0.00675821
0.0114566
0.00621842
0.0121792
0.00670526
0.0140838
0.00667595
0.00685235
0.00673928
0.00683977
0.0175691
0.00133767
0.00678976
0.0034126
0.0067757
0.0105525
0.00341966
0.00670591
0.00689486
0.00247279
0.0128702
0.00215347
0.00626755
0.00672709
0.00675844
0.000688715
0.00682703
0.00672942
0.00668772
0.00671822
0.00261862
0.00294787
0.00861965
0.00586142
0.00643995
0.00658897
0.00674235
0.00669792
0.00395269
0.000633287
0.0067757
0.000812664
0.0115957
0.0149912
0.00684982
0.00684074
0.0011718
0.0146354
0.00667548
0.00697803
0.00678102
0.00688949
0.00136414
0.00675326
0.00680438
0.00679016
0.00670227
0.00680336
0.00288748
0.000741017
0.0131565
0.00678728
0.00677489
0.00151711
0.00674708
0.00122518
0.0101915
0.00678477
0.00838153
0.00680627
0.00680041
0.0108329
0.0138339
0.0145607
0.00611434
0.00669296
0.00495773
0.00667783
0.00918686
0.0133931
0.00282237
0.00679879
0.0140439
0.00277332
0.00135899
0.0028399
0.00457091
0.00677322
0.0120394
0.00682538
0.000817483
0.000511211
0.00679313
0.00168261
0.00942294
0.00902359
0.00627702
0.00672715
0.00667923
0.00680732
0.00680522
0.00270689
0.0013313
0.00679192
0.00149943
0.00660284
0.00681332
0.00177535
0.00667645
0.00502702
0.00671165
0.00671953
0.00122736
0.00669766
0.00675438
0.0150981
0.000606306
0.000649906
0.00672337
0.00681177
0.000793285
0.00680885
0.0153031
0.00255604
0.00662168
0.00526137
0.00681171
0.0066771
0.00284838
0.00667666
0.0141266
0.000480063
0.00452723
0.00584984
0.00681695
0.00652315
0.0063126
0.0164156
0.00250387
0.00357437
0.0188654
0.00684977
0.0152174
0.00668929
0.00290175
0.00680991
0.00680908
0.00717785
0.0154202
0.00671138
0.00682595
0.00671737
0.00672108
0.00672216
0.0163981
0.0122623
0.00680202
0.00671801
0.00669011
0.0161057
0.00128572
0.00351076
0.00670244
0.00676957
0.00680978
0.00681142
0.00146812
0.0132602
0.00670557
0.00085927
0.00326906
0.00682874
0.00478338
0.0067391
0.00253054
0.00670567
0.00678947
0.00206621
0.00681208
0.00068655
0.00671214
0.00969826
0.00681173
0.00241264
0.000543099
0.00745743
0.000816521
0.0068253
0.00681051
0.0192337
0.00683744
0.00129676
0.00670422
0.00674699
0.00617201
0.00756633
0.0156098
0.00680105
0.00671311
0.00680212
0.00682243
0.0067873
0.00673408
0.00683869
0.0127578
0.00671269
0.00672562
0.0192414
0.00670609
0.000849636
0.000874775
0.00863206
0.00123477
0.016229
0.0127974
0.00673247
0.00674929
0.00667314
0.00680416
0.00670782
0.00676236
0.00679526
0.00680936
0.0152484
0.000400912
0.00329014
0.00693374
0.00673699
0.00214212
0.00209117
0.000749533
0.00685471
0.00678268
0.00678922
0.0120173
0.00588816
0.00410007
0.00685592
0.00051689
0.000487006
0.00386828
0.00812014
0.00767314
0.00676756
0.00670494
0.00680007
0.00247003
0.0068102
0.00668696
0.000618243
0.0157329
0.00672366
0.0105032
0.00566933
0.00671112
0.00673306
0.00671037
0.00681049
0.00673852
0.00666206
0.00168895
0.0067497
0.00681242
0.00662788
0.0115467
0.00673059
0.0127914
0.000355322
0.00680495
0.0067938
0.00680235
0.00679943
0.00671701
0.00680613
0.00683409
0.00680736
0.00668306
0.00680245
0.00619102
0.0022549
0.00683596
0.00681383
0.00437937
0.00677737
0.00668796
0.0174056
0.00670757
0.00119946
0.00186432
0.0067247
0.00670497
0.00672571
0.00650051
0.000994386
0.00684271
0.0160441
0.000690316
0.00049021
0.00740725
0.00680674
0.0024486
0.00667807
0.00328868
0.00448157
0.00679457
0.000381197
0.00133321
0.00681436
0.00263087
0.000567738
0.0067982
0.0014448
0.00669053
0.00681461
0.00247217
0.00676634
0.00677374
0.0038731
0.00670682
0.00678622
0.0158264
0.00679699
0.00670875
0.00670592
0.00487142
0.00681641
0.00678404
0.00171449
0.00978286
0.0142919
0.00111165
0.0105033
0.00675605
0.00667685
0.00672524
0.00854154
0.00686185
0.00674652
0.00349259
0.00678383
0.00299017
0.00681091
0.00677681
0.00402281
0.00672923
0.000657401
0.00569961
0.00667671
0.00674856
0.00591473
0.00669705
0.0128729
0.00387259
0.00669669
0.00674276
0.00812205
0.00670212
0.00342416
0.0126988
0.00676954
0.0150236
0.00671085
0.00680481
0.00673609
0.00197584
0.00676021
0.0101106
0.00687041
0.00670981
0.00673267
0.0186262
0.000929316
0.00649751
0.00368446
0.0106959
0.0105644
0.00667528
0.011631
0.00687044
0.00238639
0.00704479
0.00680312
0.00678482
0.00681301
0.0155162
0.00672316
0.016659
0.0067967
0.00577784
0.000423698
0.00678788
0.00668525
0.0067306
0.00260368
0.00302061
0.0067847
0.010551
0.00679964
0.00670617
0.0151936
0.00672251
0.000364611
0.00672595
0.00373128
0.00670847
0.00672781
0.00671012
0.00672504
0.000820402
0.00645471
0.00244178
0.00139101
0.00680438
0.00672373
0.0137731
0.00671
0.0104686
0.00675421
0.0133261
0.0019816
0.00746858
0.00679141
0.00679268
0.00670642
0.00898683
0.00685747
0.010406
0.00104162
0.00671232
0.00185274
0.00670959
0.00669739
0.00666754
0.00678995
0.0138017
0.00678732
0.00675261
0.006775
0.0038688
0.0167581
0.0111261
0.00681029
0.00670455
0.00678359
0.00680575
0.0067237
0.0068011
0.00682151
0.00672959
0.00677561
0.0067937
0.000364368
0.000484363
0.00684767
0.00677995
0.00555688
0.00673761
0.00185271
0.00871332
0.00681068
0.00597006
0.00687875
0.00679787
0.00681693
0.00666181
0.00563688
0.00678687
0.001449
0.0120467
0.00634866
0.00365946
0.0120377
0.0153732
0.00303452
0.00678055
0.00674274
0.0131335
0.00678379
0.00685151
0.00149506
0.00328213
0.00684069
0.00678505
0.0131859
0.00251102
0.00675255
0.00694282
0.00355941
0.00640909
0.00674477
0.00244295
0.0067795
0.002994
0.00676539
0.0068078
0.00682105
0.00668286
0.00631004
0.00672244
0.0142228
0.00668774
0.00682741
0.00684856
0.00633335
0.00678988
0.00799123
0.000449115
0.0138707
0.0107746
0.0168109
0.0136354
0.00676621
0.0136312
0.0137087
0.00680707
0.00493546
0.00684052
0.00674474
0.00594857
0.00674876
0.00127885
0.00130333
0.00686806
0.00668815
0.00154248
0.00676418
0.0140519
0.00681807
0.00681694
0.00674002
0.00112767
0.00703433
0.00160188
0.00984843
0.00674087
0.00674181
0.000597475
0.00659437
0.00673234
0.00121569
0.0068084
0.00676433
0.015115
0.000792401
0.00321492
0.00684343
0.00683857
0.0068138
0.00672225
0.0135926
0.000803792
0.00922005
0.00534112
0.00116654
0.00681035
0.00719787
0.00671374
0.0115817
0.000444185
0.0018464
0.0054293
0.00717793
0.000512539
0.00272842
0.00668286
0.00673929
0.00681099
0.0015077
0.00670521
0.00684315
0.0060934
0.00403536
0.00184063
0.0151774
0.000515968
0.0137705
0.00657734
0.00674533
0.00672123
0.00469702
0.00076984
0.0068306
0.00165431
0.0102158
0.0132231
0.0118176
0.00135349
0.000922512
0.0066764
0.0128678
0.00680091
0.0133016
0.0052947
0.00333197
0.000400392
0.000504577
0.00674113
0.00674734
0.00877191
0.00507625
0.000370833
0.00681418
0.0068023
0.00663909
0.0116931
0.00684825
0.0163101
0.00681125
0.012276
0.00728145
0.00641366
0.00343868
0.00114816
0.0147764
0.00667688
0.00265149
0.00612425
0.00183237
0.00670922
0.00405157
0.00723632
0.00673659
0.00670884
0.00828278
0.00680403
0.00681049
0.00096808
0.00507268
0.00678815
0.00146709
0.00916398
0.00142669
0.00668365
0.00670023
0.0171179
0.00642289
0.00676973
0.00673438
0.0034804
0.00670388
0.00134396
0.00669883
0.00670249
0.0115263
0.00679606
0.00674384
0.00552777
0.00667656
0.00413244
0.00672381
0.0067494
0.00673619
0.000517061
0.00680266
0.0169243
0.000380435
0.0144769
0.00732642
0.00461838
0.00669876
0.00670308
0.0071717
0.00263397
0.00679209
0.0176961
0.00148481
0.00184503
0.00678354
0.00669418
0.00669569
0.00678365
0.00681429
0.00674459
0.00676098
0.00676532
0.00672069
0.00630935
0.00661004
0.0141091
0.00680766
0.00672678
0.00666071
0.0102177
0.00618677
0.0126169
0.00970757
0.0104766
0.00121712
0.00680394
0.00678141
0.00261187
0.000806359
0.0137105
0.0067288
0.00667976
0.0092937
0.000517939
0.00673638
0.0107887
0.00673003
0.00671093
0.00686378
0.00134115
0.0171153
0.000932567
0.00676873
0.00669208
0.00679145
0.00669066
0.00606103
0.00671915
0.00786068
0.000642207
0.00654669
0.00680147
0.00673537
0.00674058
0.0155087
0.00252819
0.00684519
0.00679095
0.00273583
0.00668902
0.00672397
0.00669323
0.00681402
0.00673397
0.00683758
0.00672304
0.00530063
0.00319401
0.00134833
0.00354798
0.00679068
0.000255508
0.00679322
0.00275696
0.00679272
0.00074201
0.00542023
0.0121825
0.00259732
0.000881471
0.015568
0.00681124
0.00225138
0.00684714
0.00672535
0.00676471
0.00670897
0.0014979
0.00118117
0.00276209
0.00150323
0.00675854
0.00679911
0.00112514
0.00408398
0.00667537
0.000814659
0.000459793
0.000404724
0.00247655
0.00684287
0.00681233
0.0116741
0.00636425
0.00670558
0.00673794
0.000421757
0.00669585
0.00670359
0.00123089
0.000642537
0.00677475
0.00676237
0.00679174
0.00552454
0.00246654
0.0129652
0.015805
0.00672475
0.00674729
0.0085525
0.0015126
0.00714423
0.00543965
0.00726
0.00668403
0.00670473
0.00658659
0.00067826
0.0010333
0.0111062
0.0115744
0.00108897
0.0116084
0.00856141
0.00679383
0.0112079
0.0165376
0.00681681
0.012488
0.00681975
0.000402615
0.000541852
0.00587839
0.00728436
0.00333595
0.00313925
0.0174662
0.00673363
0.00668924
0.00752997
0.00669593
0.00673164
0.00671281
0.00680782
0.00677004
0.00680971
0.00673097
0.00673127
0.0091065
0.0077484
0.00675162
0.00679467
0.00389362
0.0166724
0.00667646
0.000550243
0.00287853
0.000801784
0.00680889
0.00671043
0.0155261
0.00680311
0.000725077
0.000533033
0.00670681
0.00715859
0.00897705
0.00683936
0.0135553
0.0128332
0.00545018
0.00681308
0.00683098
0.00672427
0.00683433
0.00671276
0.0162981
0.00296663
0.00678492
0.00421693
0.000971357
0.00684438
0.00678016
0.00670948
0.0129974
0.014781
0.00504852
0.00665168
0.00328102
0.00940067
0.0131043
0.00676139
0.00675552
0.00211912
0.00111229
0.0107306
0.0180409
0.00678757
0.00348386
0.0132802
0.00674287
0.00670508
0.00677935
0.0066261
0.0067442
0.00680414
0.00670471
0.004385
0.0116737
0.00678414
0.00681535
0.00134835
0.00670595
0.00675765
0.00685443
0.01246
0.00669742
0.00683402
0.0127701
0.000571332
0.00164083
0.000502421
0.00680221
0.00679249
0.00679039
0.00673576
0.00670852
0.00681753
0.00622386
0.00676585
0.00678292
0.006153
0.00678642
0.00273033
0.00414937
0.00676963
0.00132611
0.00677519
0.00427969
0.000399481
0.00120471
0.00663708
0.00386048
0.00245088
0.00518928
0.00669877
0.000905917
0.00766575
0.0066983
0.000543749
0.0162333
0.00679582
0.00676232
0.0136029
0.000572075
0.00680738
0.0106214
0.00219304
0.00672635
0.00766658
0.000308694
0.00508809
0.00678537
0.013735
0.00210953
0.00674059
0.000774614
0.00173187
0.00679672
0.00504348
0.00990095
0.0111262
0.00402586
0.0047451
0.00669688
0.00356639
0.0149694
0.000526804
0.000931227
0.00679925
0.00807621
0.00680216
0.00674147
0.000795321
0.00680077
0.00857523
0.0124049
0.006799
0.00859278
0.0169548
0.0112047
0.00180071
0.000614097
0.00667498
0.0068085
0.00365097
0.00667426
0.00274727
0.0126292
0.00973027
0.00534772
0.00166314
0.00996389
0.00122649
0.00678852
0.00686455
0.016241
0.00062993
0.00680492
0.00673044
0.00716183
0.00544842
0.00295527
0.00672322
0.00679979
0.00475149
0.00673951
0.00127891
0.0128307
0.00676699
0.0046742
0.00678643
0.0111125
0.000620063
0.00155077
0.00678229
0.00643401
0.00677787
0.00676486
0.00677875
0.0140217
0.00119326
0.00600101
0.0068518
0.00674094
0.00242003
0.00445207
0.00679756
0.000394279
0.000854674
0.00766024
0.00543925
0.00672556
0.00680729
0.013037
0.00667495
0.00679673
0.00457908
0.00677435
0.00684459
0.00672302
0.00672604
0.00270421
0.0067118
0.00280051
0.0063771
0.00677515
0.0165003
0.0135384
0.00641593
0.00668847
0.00672137
0.0053723
0.0067246
0.00671937
0.00678056
0.000492833
0.00680043
0.00687929
0.00667609
0.00727383
0.00875954
0.00674213
0.00459217
0.00393355
0.00331305
0.00164498
0.00661631
0.00678701
0.00673466
0.00651886
0.00676575
0.00688597
0.0104455
0.00121181
0.00671883
0.00260035
0.00681205
0.000806392
0.0110071
0.00806059
0.00956833
0.00670512
0.00670706
0.00625212
0.00675962
0.00411312
0.00609001
0.00624386
0.0123883
0.00679311
0.000874335
0.00673524
0.0071937
0.000670469
0.0105918
0.00673695
0.00679209
0.0013455
0.00681798
0.0166093
0.00679405
0.0120889
0.0140483
0.000804866
0.00163788
0.0134229
0.00677621
0.00673866
0.00674931
0.00647921
0.00861593
0.0068155
0.00686115
0.00682346
0.00668908
0.00640602
0.00678261
0.00670225
0.00194497
0.00681021
0.00670064
0.00663462
0.00119625
0.0143
0.00440078
0.00677443
0.00273404
0.00704148
0.00188005
0.000436343
0.00874171
0.013833
0.00681447
0.00405413
0.00667787
0.00102756
0.00579293
0.000675911
0.00342938
0.00685981
0.000800391
0.00678134
0.00788238
0.0181225
0.00670436
0.00676021
0.00687107
0.00687957
0.0136056
0.00678189
0.00677427
0.00521304
0.00681946
0.00680323
0.0067553
0.00672163
0.00680018
0.00671843
0.00671253
0.00350099
0.0116423
0.00207371
0.00674961
0.00669574
0.006721
0.00675103
0.0066867
0.00209072
0.00668758
0.00669906
0.00672228
0.00670631
0.00149499
0.00670888
0.00817655
0.00894323
0.00091747
0.0162837
0.00678319
0.00426637
0.00444213
0.000319916
0.00679128
0.00995635
0.00681386
0.00675333
0.00680027
0.00276169
0.000538256
0.00671102
0.00690782
0.0033971
0.00674263
0.00397017
0.0121701
0.00249771
0.00673543
0.00674691
0.0027091
0.00685098
0.0121238
0.00671265
0.00677079
0.00676899
0.00679694
0.00377354
0.0109737
0.00230843
0.00672073
0.00426744
0.00637759
0.00548625
0.00670714
0.00646588
0.00945774
0.00679453
0.00680295
0.00318045
0.00269372
0.00676567
0.00679057
0.00675172
0.00224309
0.00679881
0.00786655
0.00680299
0.00186202
0.00187626
0.00909541
0.0067205
0.00670218
0.00668113
0.00147846
0.00668848
0.0011702
0.00698177
0.00266188
0.0122158
0.00671709
0.00302952
0.00680073
0.00669607
0.00469386
0.000891285
0.000558609
0.0178836
0.00110659
0.000396262
0.00642837
0.00109004
0.00678474
0.00553156
0.00678547
0.00682579
0.00215754
0.00680776
0.0111344
0.00895875
0.0070816
0.0120092
0.0177088
0.012106
0.00972605
0.000497734
0.00684799
0.00641006
0.00676165
0.00672398
0.00672627
0.00842728
0.00259488
0.00852165
0.00639083
0.00657438
0.0112939
0.00671193
0.00675537
0.00669406
0.00111246
0.0067088
0.00668033
0.00688537
0.00088792
0.00241409
0.00310939
0.00176589
0.0067408
0.00676281
0.00761178
0.00677756
0.00110276
0.00143214
0.00667481
0.000647877
0.0066951
0.0146724
0.00685072
0.00316409
0.00682015
0.00678537
0.00607577
0.00484713
0.0146071
0.00637962
0.00836492
0.00341803
0.00678791
0.00679701
0.00674289
0.00671905
0.00672334
0.0137667
0.00477593
0.0064851
0.00679718
0.00489272
0.00673378
0.00677007
0.00684356
0.000529266
0.00934653
0.0177941
0.00681589
0.0107715
0.00669902
0.000591116
0.0035983
0.00091492
0.00106445
0.0164544
0.0140943
0.00668111
0.00678012
0.00670704
0.00673684
0.00676513
0.00672706
0.00723531
0.00680096
0.00679325
0.00681623
0.00176724
0.00670738
0.0149926
0.00709156
0.0164561
0.00680547
0.000910315
0.00671609
0.0138625
0.00276921
0.0068039
0.0174744
0.00252461
0.000586297
0.00678094
0.00681643
0.00152414
0.00111056
0.000570769
0.00379977
0.000711032
0.000392526
0.00390684
0.00604516
0.00677808
0.00429707
0.00353717
0.00797547
0.00681154
0.00835841
0.0137569
0.0162399
0.00676929
0.00312135
0.004729
0.00686294
0.00675473
0.00670352
0.000578813
0.00671852
0.0151935
0.00474844
0.000573229
0.00670704
0.00513629
0.00112279
0.014097
0.0119319
0.00253773
0.0068456
0.0016958
0.00313321
0.0068108
0.00140664
0.0127976
0.000568605
0.00688907
0.0029396
0.0035631
0.000663963
0.00674646
0.0127287
0.000723783
0.0067583
0.00440357
0.0150318
0.0172252
0.00680071
0.000466191
0.00694435
0.00670048
0.000683422
0.00685616
0.000455957
0.00682784
0.0131332
0.013541
0.00660578
0.0126127
0.000417655
0.0172364
0.00262429
0.0063923
0.0129521
0.00802703
0.00391958
0.0067788
0.00674895
0.00478902
0.0067505
0.00671087
0.0158202
0.00672856
0.00671945
0.0025766
0.00677537
0.00668525
0.0061982
0.00671965
0.000681672
0.00685756
0.00678213
0.00155945
0.00677419
0.00672506
0.00670921
0.00669231
0.00937095
0.00236597
0.00381271
0.00619246
0.00676705
0.00667978
0.00108326
0.00056201
0.00349256
0.0063354
0.00680746
0.00113511
0.00671227
0.00147302
0.0022128
0.0176326
0.00574412
0.00260077
0.00678221
0.00279477
0.0104066
0.0153286
0.00620563
0.00245101
0.00678785
0.00669794
0.00270683
0.00160577
0.0066801
0.00674705
0.00974667
0.00668006
0.00683925
0.000687675
0.00672773
0.0164882
0.000680404
0.00954233
0.00673568
0.00284219
0.000838222
0.00544505
0.00678752
0.00679474
0.000714966
0.010626
0.00754092
0.00152917
0.00853533
0.00672381
0.000352484
0.00260172
0.00646248
0.00851011
0.00663943
0.00672913
0.00676163
0.00673945
0.00258508
0.00966425
0.00627728
0.00906043
0.00675394
0.00673147
0.00677865
0.000807237
0.00642418
0.00893342
0.00671785
0.00681062
0.00143324
0.00168681
0.00671459
0.00892008
0.00679261
0.0067835
0.0129602
0.00670562
0.00390953
0.0067409
0.0113979
0.00593314
0.00679792
0.00257734
0.00677831
0.0133764
0.00542542
0.00679998
0.011464
0.00340317
0.00667507
0.00383417
0.0158958
0.00669606
0.0137167
0.00672325
0.0026901
0.00668164
0.00654763
0.00547441
0.0100308
0.00669849
0.00285744
0.00678704
0.0017611
0.00942523
0.0067206
0.00676267
0.000400742
0.00628576
0.00673552
0.00679254
0.00670476
0.000674639
0.00348428
0.00229183
0.00683246
0.00684356
0.00679156
0.00673874
0.00703221
0.00677203
0.00591577
0.0147162
0.017153
0.00655696
0.00671208
0.00932539
0.00460813
0.000580951
0.0131682
0.000414994
0.0116019
0.00664713
0.00669449
0.00480586
0.00839729
0.00586162
0.00672503
0.00671713
0.00671806
0.0135209
0.0186646
0.00677022
0.0123215
0.00382888
0.00509289
0.00671657
0.0067314
0.00172372
0.00670619
0.00679499
0.00686392
0.00674577
0.00051117
0.00686875
0.00831856
0.00746285
0.00680077
0.0110215
0.00167849
0.00108549
0.00922602
0.00671882
0.00652858
0.00154824
0.00209352
0.00108235
0.00591687
0.00682446
0.00672066
0.000513748
0.0066965
0.00107727
0.0102504
0.00671302
0.00282744
0.00672571
0.0140142
0.00680277
0.0173313
0.00678251
0.0149417
0.00154367
0.0130101
0.0113191
0.00673782
0.00271988
0.00646132
0.00681264
0.00987961
0.00681042
0.00668231
0.00677236
0.0029297
0.00658459
0.00676985
0.00672414
0.00186225
0.000862147
0.000819634
0.0120139
0.000674734
0.00351452
0.00678294
0.000790191
0.00676185
0.000490996
0.00166615
0.0166622
0.0121169
0.00678046
0.0025085
0.0067741
0.00624786
0.00670482
0.00670601
0.0132016
0.00558045
0.00604598
0.00674675
0.00676501
0.000802303
0.017789
0.00679883
0.00669258
0.0067861
0.00674425
0.000881642
0.00674625
0.0115636
0.00679663
0.00629288
0.00672815
0.00579924
0.00400099
0.0122585
0.00675377
0.000510668
0.00679327
0.00673462
0.000621894
0.00477719
0.00674126
0.00499192
0.0128539
0.00677481
0.000660762
0.00478066
0.00618962
0.0095516
0.00678923
0.009301
0.00162838
0.00123446
0.00671081
0.00682523
0.00250334
0.00672448
0.0179263
0.00652025
0.00231185
0.00356059
0.00677406
0.00672116
0.00567904
0.0067239
0.0200488
0.010957
0.0067297
0.0109015
0.00562425
0.00619224
0.00678228
0.00327683
0.00464964
0.00282039
0.00147492
0.0067372
0.0117482
0.00668288
0.00818979
0.00670872
0.00679465
0.00511796
0.00676975
0.00669878
0.00140887
0.00410681
0.00673858
0.0172078
0.00674643
0.000972698
0.0019986
0.00642495
0.00678058
0.00679606
0.00217295
0.00672579
0.00670627
0.00655553
0.0106802
0.00737529
0.0157288
0.00092304
0.00669289
0.00680281
0.00681832
0.00671074
0.0067048
0.00109645
0.00671561
0.00673036
0.000352006
0.00680599
0.000969781
0.00673932
0.00669483
0.00730429
0.0172335
0.00677476
0.000809446
0.00687346
0.0083595
0.00672208
0.00672378
0.00526469
0.0067882
0.00725821
0.000812871
0.00478546
0.00678643
0.00179515
0.0065094
0.000686766
0.000452785
0.0189156
0.00549478
0.00699251
0.00146298
0.00194374
0.00677798
0.00894915
0.0162939
0.020221
0.0114385
0.00679326
0.00674398
0.00672223
0.00650571
0.00616366
0.00154412
0.0154695
0.00675143
0.00228553
0.00680169
0.0118956
0.00676204
0.0010634
0.000539928
0.00679318
0.00676867
0.000444482
0.0029256
0.00681303
0.0052038
0.000765866
0.00482557
0.00672368
0.00212611
0.0068176
0.00681008
0.00680248
0.012249
0.00696782
0.0112296
0.00300617
0.00430327
0.0119726
0.00643629
0.000851968
0.00672989
0.00672128
0.0104991
0.0137647
0.00652664
0.0067896
0.00654748
0.0117699
0.000834251
0.000538942
0.0094762
0.00488849
0.00509138
0.00669149
0.00411522
0.00679535
0.000561625
0.00697744
0.000482851
0.000463123
0.00683061
0.00963669
0.00064433
0.0166898
0.00629333
0.00672739
0.00671704
0.00676693
0.00705179
0.00669612
0.00646665
0.000586806
0.0144082
0.00670759
0.00480692
0.00952081
0.0155061
0.0115265
0.00639123
0.00679373
0.00674396
0.00471247
0.00674658
0.00640974
0.0107044
0.00684417
0.00677147
0.0150532
0.0167138
0.00966675
0.00630954
0.00204257
0.00672283
0.0129116
0.00678634
0.00946034
0.000861259
0.00901922
0.00293088
0.000484128
0.00468767
0.00671643
0.00672019
0.0115942
0.00674175
0.00597492
0.000399526
0.000779535
0.00679494
0.00127886
0.00671907
0.00322811
0.00671726
0.00345204
0.0131202
0.00620639
0.000498083
0.00669502
0.0106282
0.0122468
0.0063992
0.00194625
0.0091258
0.0044986
0.00670745
0.0104678
0.00965105
0.0132904
0.00670422
0.00682362
0.00483507
0.00885002
0.0111769
0.00678885
0.00666206
0.0067754
0.00345647
0.00681555
0.00669799
0.00827581
0.00672588
0.00330327
0.00661706
0.00319708
0.00675702
0.00754914
0.00044116
0.000409466
0.000951388
0.00620904
0.00672157
0.000617827
0.012522
0.00670403
0.00681142
0.0068
0.0113246
0.0114232
0.0067324
0.0136221
0.0010977
0.00671672
0.00860662
0.00402132
0.000615952
0.0120633
0.00840799
0.00687054
0.008346
0.00677379
0.00677722
0.0141176
0.000989777
0.0146843
0.00105059
0.00677094
0.00782586
0.00770831
0.00380736
0.00981755
0.00809982
0.0150226
0.00506069
0.00672508
0.00672202
0.00674518
0.0167622
0.0114542
0.00216785
0.0156857
0.00204917
0.00672277
0.00683849
0.00656055
0.0140958
0.00670862
0.0123195
0.0178139
0.00669296
0.00642462
0.013992
0.000638703
0.00731878
0.000616099
0.00672627
0.0116877
0.0132338
0.01161
0.00396721
0.00498447
0.00777278
0.00676855
0.00686859
0.000436067
0.00691454
0.00900369
0.0135962
0.00679767
0.000566278
0.00413224
0.000721088
0.000983954
0.0126371
0.000544412
0.00306693
0.00672103
0.00513905
0.0104643
0.000851834
0.00614565
0.00669582
0.00681514
0.00679306
0.0110412
0.00684783
0.0152353
0.00685049
0.00674177
0.0124389
0.0026532
0.00670532
0.00672127
0.00999253
0.00772323
0.0067347
0.00678062
0.00691281
0.00241601
0.000615735
0.000682357
0.0066969
0.000438724
0.00679856
0.0118211
0.00907467
0.0130399
0.006765
0.00723797
0.00913458
0.0134795
0.00676497
0.00867273
0.000244747
0.000369431
0.00678396
0.00674068
0.00488806
0.000394826
0.00290014
0.00401454
0.00671842
0.00186539
0.00687409
0.000676087
0.000565522
0.00423758
0.000565793
0.00687188
0.00683412
0.00737592
0.0127871
0.00673398
0.00722293
0.0158325
0.0017819
0.00669966
0.00176936
0.020139
0.00286831
0.00673288
0.00676505
0.00679079
0.00244611
0.00105347
0.00129745
0.000456584
0.00678009
0.00673485
0.0168798
0.000279971
0.00671866
0.0158898
0.00483738
0.00688018
0.00877262
0.00782657
0.00675185
0.00995531
0.00266408
0.00874377
0.0103293
0.00673129
0.00665596
0.000608701
0.00679045
0.00684818