/*--------------------------------*- C++ -*----------------------------------*\
| =========                 |                                                 |
| \\      /  F ield         | OpenFOAM: The Open Source CFD Toolbox           |
|  \\    /   O peration     | Version:  v2012                                 |
|   \\  /    A nd           | Website:  www.openfoam.com                      |
|    \\/     M anipulation  |                                                 |
\*---------------------------------------------------------------------------*/
FoamFile
{
    version     2.0;
    format      ascii;
    class       surfaceScalarField;
    location    "450";
    object      meshPhi;
}
// * * * * * * * * * * * * * * * * * * * * * * * * * * * * * * * * * * * * * //

dimensions      [0 3 -1 0 0 0 0];
oriented        oriented;


internalField   nonuniform List<scalar> 
27284
(
0.000160311
-0.000265356
0.000105134
-0.000133568
0.00012271
1.50754e-05
9.49448e-05
7.97076e-05
-0.000174619
-8.593e-05
0.00013597
-3.9945e-05
1.5092e-05
0.000281965
-0.000295489
-0.000294131
-8.30991e-05
0.000378222
0.000182878
-0.000291395
0.000110666
0.00029429
-0.000277665
-2.13279e-05
2.87436e-05
3.69256e-07
0.000201204
-0.000236676
3.62901e-05
0.000434443
-0.000147379
-0.000285936
0.000165275
-8.01209e-05
-8.51253e-05
5.84018e-05
0.000106898
0.000115985
0.000211201
-0.0003268
-4.94969e-05
4.87735e-05
9.01473e-06
7.2431e-05
-9.78043e-05
2.82847e-05
-0.000115413
4.14962e-05
-8.81002e-05
0.000364216
-0.000274829
0.00010237
0.000106458
-0.000208766
0.00017119
9.67346e-05
-0.000265932
0.000132828
-0.000298308
0.000165624
7.39348e-05
-0.000350438
0.000278324
-4.87079e-05
9.81808e-05
-4.37814e-05
7.18232e-05
-0.000365096
3.63881e-05
-7.9959e-05
0.000264941
-0.000362334
9.99678e-05
7.72082e-05
0.000232197
-0.00030644
-0.000220433
2.40904e-05
0.000205875
-1.57095e-05
1.48223e-06
0.000407086
-0.000158892
-0.00024737
0.000162648
0.000137847
-0.000300371
0.00011731
-0.000330204
0.000213308
-9.18037e-05
-1.29644e-05
0.000106773
5.39713e-05
4.85162e-06
-5.63849e-05
2.4965e-07
2.12579e-07
-2.88579e-07
0.000226001
-0.00030683
8.24134e-05
0.000149284
0.000111487
-0.000260442
-3.18073e-05
0.00025945
0.00014017
0.000267722
-0.000361301
0.000314472
4.87027e-05
2.65424e-05
2.9419e-05
-3.61229e-05
0.000276444
9.08497e-06
5.62146e-05
-6.2852e-05
0.000109455
-0.000132675
2.74928e-05
-1.98048e-05
0.00010751
-0.000137354
2.98536e-05
-0.000216161
-3.15492e-05
0.000254066
2.86834e-05
-0.000238441
-0.000198131
0.000359773
-5.8865e-05
-0.000297026
1.57068e-05
-7.7494e-06
-5.43527e-06
0.000169065
-0.000277872
0.000108851
0.000295808
6.73801e-05
-0.000124021
0.000222066
-9.79639e-05
0.000354522
-0.000109604
-0.00023686
-0.000112119
0.000285422
4.43771e-06
-1.99576e-06
-1.34218e-06
-0.000312847
0.000363328
-9.63187e-05
-0.000127844
4.48755e-05
8.29742e-05
6.55378e-05
7.32953e-05
9.42271e-05
-0.000167467
-0.000242344
0.000118434
0.000161572
-5.41664e-05
-0.000105903
1.36833e-06
0.000224758
-0.00022584
-1.49557e-05
1.38298e-05
3.7874e-06
-5.32921e-05
-0.000195204
0.000249202
-5.4141e-05
0.000203702
4.81501e-05
7.01249e-06
-5.31004e-05
-0.000387975
0.000260322
0.00012846
-0.000219046
0.000284204
-6.16347e-05
0.000175249
0.000185209
-5.65845e-05
0.000305308
-0.000248254
0.000378759
-9.39362e-05
-0.00028363
-3.86547e-05
0.000265407
-0.000225583
5.42605e-05
8.52809e-06
-6.05507e-05
-0.000275316
-3.7469e-05
-4.7626e-06
6.1307e-05
-0.000267004
5.15421e-05
0.000238864
-0.000276293
0.000221759
-0.000274278
-0.000224733
0.0003205
-9.4723e-05
5.87801e-05
-0.000244519
-2.17374e-05
0.000266957
-0.000310583
0.000133514
0.000177306
9.53837e-06
3.4727e-06
-8.42928e-06
5.5708e-05
-2.47085e-05
-1.74404e-05
7.1703e-05
-0.000248371
0.000176955
0.000232498
1.96238e-05
-0.000246231
-0.000189651
0.000261659
-3.44377e-05
-0.00024788
0.000362468
-0.000243755
-0.00011853
0.000132302
-0.000355797
-0.000329744
0.000274463
0.000410305
-0.000156819
-0.000252756
-0.000165079
6.15546e-05
0.000104917
0.000226444
-6.97907e-05
-0.000150135
-5.17708e-05
-0.000111669
-3.23118e-05
0.000188338
-0.000155913
-0.000273997
-2.91901e-05
0.00030493
-0.000197579
-0.000112758
-0.000225857
-3.7216e-05
-5.83562e-05
-0.000267675
-1.21362e-06
1.77903e-06
-3.97809e-07
-5.3339e-06
0.000251766
-0.000245771
0.000111248
-3.51799e-05
0.000245434
-0.000243754
0.000121666
0.000289222
-0.000305062
0.000155296
0.000150079
2.92154e-06
7.15404e-05
-7.1719e-05
3.6078e-06
1.85085e-06
4.26397e-06
-3.83999e-06
1.74108e-06
-4.25853e-05
0.000248438
-0.000205325
2.63768e-05
-0.000270172
0.000126151
-0.000155356
2.92176e-05
0.000307548
-7.23777e-05
-0.00023457
-0.000281626
5.97924e-05
-4.18644e-05
0.000281895
-4.74711e-05
0.000297536
-0.000249046
-0.000395081
0.000200653
-0.000171676
-0.000215475
-6.46841e-05
0.000159656
-0.000325081
-0.000300284
0.000147738
0.000152808
0.000216359
-0.000257177
-0.000122296
0.00010779
1.45164e-05
0.000262656
-8.61181e-05
-1.74788e-05
0.000268497
-0.000108112
-0.000345615
0.000317791
3.00502e-05
6.17512e-05
0.000171065
0.000330247
-0.000161134
0.000331114
-0.000218454
-0.000108579
-0.000237935
0.0001078
0.000130218
8.25335e-05
-0.00021329
0.00013086
-0.000199853
-2.28942e-05
0.000227793
0.000205289
-0.000102867
-0.000224746
-9.6867e-05
0.000322326
-8.99367e-05
-3.15819e-06
0.000108577
0.00017056
0.000192059
6.83499e-06
-0.000189227
0.00018283
-5.52088e-05
-0.00023797
0.000294546
0.000204909
-0.000244043
4.48555e-05
-0.000124649
-0.000191574
-0.000158577
0.000241234
-6.78047e-05
4.80839e-05
3.24141e-05
4.88493e-05
8.39426e-05
-0.000132785
4.25028e-06
-1.55488e-06
-2.6638e-06
0.000219829
-0.000261852
-4.70869e-06
7.04917e-06
-2.35166e-06
-0.000206135
-4.01359e-06
-0.000158176
-0.000236013
0.000189784
-5.90315e-05
-0.000128923
5.48246e-05
0.00022691
-0.000280058
7.10086e-05
-1.23011e-05
-5.69516e-05
3.36802e-05
2.87499e-05
1.80893e-05
-9.21601e-05
-2.22426e-06
1.53853e-05
-1.14568e-07
0.000209173
-2.2853e-05
-2.71531e-05
-0.000337549
7.38805e-05
0.000264733
9.48103e-05
0.000239844
5.99902e-05
-5.48986e-05
5.77122e-05
0.000235623
-0.000291935
-0.00036614
9.34946e-05
0.000273733
-0.000144697
0.000207697
-6.22376e-05
-5.89054e-05
0.00010776
-0.000107031
0.000261392
-0.00015428
-0.000199231
-9.76064e-05
0.00029693
0.000221737
-0.000214387
2.87556e-06
2.4142e-06
-3.343e-06
-0.000117749
-0.000120094
6.0513e-06
5.50859e-06
-7.34287e-06
0.000149916
-0.000348045
1.04598e-06
1.16343e-06
-1.40919e-06
-2.63347e-05
-2.50432e-05
-2.01739e-06
8.29103e-06
-2.18125e-06
1.01906e-08
2.20534e-06
-0.000342401
0.000177505
0.000165783
-9.08561e-05
-0.000165097
0.000256439
6.67538e-06
6.73694e-06
-8.58202e-06
-0.000195901
5.19844e-05
0.000296019
2.40301e-05
-0.000318142
-4.44591e-05
0.000222819
-0.000171223
0.000193599
-0.00016005
-3.24789e-05
-0.000323724
0.000269062
-1.67139e-06
-1.447e-05
2.22059e-05
-6.75694e-05
0.000267885
-0.000199972
0.000256037
-5.1297e-05
-0.000192949
0.000257328
-2.22291e-05
1.08747e-05
-0.000133159
-0.000179506
0.000147298
0.000159718
-0.00012781
-2.7534e-05
-5.42124e-05
-8.36163e-06
6.4227e-05
9.64444e-05
-0.000115151
3.80279e-05
0.000104536
-0.000161303
5.67826e-05
1.13082e-05
6.85119e-06
0.00015986
-0.000264496
0.000104701
-1.08596e-05
0.000137897
0.000393452
-0.00027698
-3.78257e-05
-0.000282374
5.12368e-05
0.000303215
-0.000352953
0.000398356
-0.00025738
-1.24849e-05
-1.16747e-06
1.878e-05
-0.000263477
0.000156528
0.000110712
-0.000362695
0.00025448
8.72255e-05
-0.000286366
0.000147456
-0.00018552
9.80725e-05
-0.000117731
2.18559e-05
0.000195537
-5.34606e-05
-0.000140069
0.000288079
-0.000302851
1.71213e-05
-0.000298366
0.000357018
-5.76767e-05
-0.000206999
5.79458e-05
0.000150782
-7.13418e-05
-0.000133949
2.97138e-06
1.36312e-06
-0.0002213
0.000371267
0.000183938
-0.000274277
0.000190799
-0.000222164
3.17113e-05
-0.000392482
0.000111882
0.000283059
-0.000290047
9.12361e-05
0.00020481
-0.000123365
-0.000181367
4.48777e-05
9.29738e-06
-5.27034e-05
0.000179548
6.99877e-05
-0.000249248
-1.74783e-05
0.000124121
-0.00010556
-0.000378103
0.000315814
6.31664e-05
6.14519e-05
-0.00023692
0.000177202
9.62155e-06
4.96332e-05
-5.76938e-05
8.35052e-05
-0.000307705
-0.000145035
0.000295811
-0.00015066
-3.33807e-05
0.000280885
-0.000247022
0.000195555
-0.000229369
3.60566e-05
0.000217005
-1.96934e-05
-9.72465e-05
0.000117509
5.59881e-05
-0.000227777
0.000286859
-0.000310564
-6.65209e-05
0.00034536
-7.47681e-05
-0.000269099
0.000118395
-4.18476e-05
0.000199947
-0.000157751
-0.00019835
0.00012856
0.000182407
-5.9453e-05
-0.000118656
-0.000178986
-0.000162647
-6.0403e-05
-0.000136118
0.000264372
-2.08854e-05
-0.00024303
-0.000279092
0.000335815
-9.61926e-05
-0.000231629
-2.67073e-05
0.000221252
-0.000187949
-0.000356717
5.93443e-05
-0.000241127
0.000350602
-0.00010885
-0.000322211
0.00028123
4.48295e-05
5.45849e-05
0.00010841
0.000116709
-9.00188e-05
0.000157121
-6.70723e-05
0.000113016
-0.000129372
-1.71388e-06
-3.49689e-07
-5.15484e-06
0.000120422
-0.000114154
0.000164847
-0.000206341
7.83046e-05
-6.9957e-05
9.19066e-06
-0.000189466
0.000252834
6.16652e-05
0.000136229
-0.000191904
-5.38409e-06
6.82435e-07
-0.00025462
5.62343e-05
0.000199513
0.000276344
-0.000150568
-0.000125657
-0.000251287
0.000171361
8.01128e-05
0.000270951
0.000128155
7.18499e-05
0.000275883
-0.000346761
-5.08739e-05
0.00029368
-0.000241323
-6.81218e-05
-0.000133519
0.000201746
-0.000126533
0.000194063
0.000233689
2.41421e-05
0.000242482
-0.000263963
-6.55169e-05
-9.83381e-06
7.77572e-05
-0.000290543
0.000343233
0.000220645
-2.95441e-05
1.47767e-05
0.000180075
-0.000185017
-2.11928e-06
-0.000273029
0.000277329
0.000466017
-0.000185071
-0.000279973
3.51978e-05
-0.000229951
-0.000251342
0.000134669
0.000116804
-0.000395273
7.40774e-05
0.000461357
-0.000188862
-0.000271297
-2.16848e-05
0.000311999
0.000354118
-0.00010106
-0.000252405
-7.31646e-05
9.99681e-06
-0.000268605
0.00018722
8.16669e-05
0.000284289
4.54427e-05
-0.000326903
-0.000388341
0.000210287
0.000178604
7.15561e-05
-2.72451e-05
-0.000203816
-5.20731e-06
-8.30339e-07
1.0786e-05
-0.00010063
3.48529e-05
-0.0001747
0.000139967
-0.000260169
0.000281155
-1.98357e-05
-0.000253536
7.86022e-05
0.000176647
0.000261126
-0.000310443
-1.47743e-05
-2.61053e-05
1.04369e-05
-6.3047e-05
-0.00011201
-0.00013919
0.000296193
-0.000295961
0.000239812
0.000113038
-0.000258148
0.000145433
-0.000343316
-2.5804e-05
0.000225796
-0.000199757
9.69441e-05
1.03006e-05
0.00032531
-0.000334177
0.000185956
0.000280962
0.00025718
-0.000300364
4.70288e-05
0.000232381
2.40414e-05
-0.000255903
-0.000120783
-0.000130264
0.000165065
-0.000130097
2.24107e-05
9.58413e-05
-0.00011763
-5.20241e-05
-9.13804e-05
0.000143422
-0.0003579
0.000199586
0.000162536
-0.000282633
-6.45046e-05
0.000348952
0.000140129
-0.000244865
0.000104847
0.000169951
0.000184689
-0.000136245
-0.00021641
0.000250168
-0.00021486
2.87872e-05
0.000188729
-0.000210045
-0.000132384
-6.31394e-05
0.000195619
-0.000141871
8.98647e-05
8.72765e-05
8.81674e-05
-0.000175426
-8.96326e-05
0.00011265
0.000277212
-4.40661e-05
-0.000167832
0.000212309
7.66589e-06
0.00024809
-0.000254531
5.9806e-06
-4.78985e-06
-9.74021e-07
-0.000306162
-5.36589e-05
-0.000232851
-0.000311203
1.12163e-05
0.000304697
0.000231442
-1.55317e-07
5.5273e-07
-0.000228134
-4.68564e-05
0.000275696
2.12952e-06
-9.51402e-05
9.58391e-05
0.000371841
-0.000154313
-0.000107622
0.000109636
1.45304e-05
-5.52681e-05
-0.000303855
-3.34579e-05
-0.000303708
0.000338534
0.000164796
-7.10332e-05
-9.37354e-05
-0.000152416
-0.000113351
0.000265842
-0.000241138
0.000220667
2.27451e-05
-0.00011176
0.000349946
-0.00028183
-6.61102e-05
0.000253705
-1.53583e-05
-1.81605e-05
-0.000288313
-0.000317748
0.000287644
3.20322e-05
1.61203e-05
0.000185905
2.8847e-05
0.000228604
-0.000251969
4.88976e-05
-5.76019e-05
2.32258e-05
-6.25807e-06
1.70191e-06
4.59506e-06
6.52331e-05
0.000253518
-0.000316938
-2.73142e-05
-0.000222995
0.000255418
-8.92003e-05
0.000159643
-7.04189e-05
-0.00030188
-1.41959e-05
-2.1841e-05
0.000208345
-0.000179876
-0.000283338
4.0327e-05
0.00024593
-2.83634e-05
0.000239116
7.13502e-05
-2.45057e-05
-2.97606e-05
0.000214796
-0.000242687
-4.79694e-05
-9.45517e-06
5.85907e-05
-1.31864e-05
7.29506e-05
-0.000311556
3.94288e-05
-5.23247e-05
-7.55145e-05
-1.56977e-05
0.000120491
-0.000104107
9.1234e-06
-5.59269e-05
0.000214982
1.7182e-05
-0.000225658
-0.000363186
0.000296934
6.79955e-05
-0.000145285
0.000180245
-8.78524e-06
1.16831e-05
4.60517e-07
-4.2298e-05
0.000266993
-0.00022378
0.000103579
-0.000118631
0.000459128
-0.000272249
0.000289691
-0.000291526
6.56082e-06
0.00014036
0.000206221
0.000151021
-9.25955e-05
0.000218975
-6.92163e-05
-0.000147929
-0.000121941
0.000117897
0.000246016
-1.31749e-05
-9.00396e-05
0.000110634
-1.81896e-05
-0.000354865
-6.69965e-06
-0.000182146
0.000308799
-0.000125321
0.000283819
3.50729e-05
-0.000316786
1.00559e-05
-6.08039e-05
6.33293e-05
0.000273271
-0.000360138
3.17081e-05
-3.52443e-05
1.27708e-05
-0.000290793
-2.75791e-05
0.000320239
-1.84192e-05
0.000129843
0.000266452
-0.000275677
9.57316e-06
0.000131081
0.000385658
-0.000137939
-0.000246846
-5.31248e-06
-7.04595e-06
0.000172969
-0.000349801
6.07522e-05
-2.9028e-05
-0.000237104
0.000268429
-3.03352e-06
-0.000133725
0.000136829
-9.90039e-05
-4.13323e-05
0.000140344
1.97879e-05
0.000101282
4.02287e-05
0.000211988
-0.000250025
-0.000169939
7.99551e-05
-9.90129e-05
0.000341274
-0.00024034
-7.09344e-06
-8.663e-05
-1.15426e-07
1.15426e-07
0.000264235
-0.000142007
-0.000122067
8.60766e-05
0.000180486
0.000211544
0.000248522
-0.000183332
-0.000106155
-0.00037353
0.000104083
0.000270492
-0.000199352
0.000207997
-0.000362222
0.000344556
1.86268e-05
0.000111553
-0.000263888
7.77269e-05
0.000141029
-0.000218638
-1.27402e-06
1.50146e-07
7.68744e-05
0.000103271
-0.000180135
-0.000319155
0.000291805
-0.000153486
0.000177151
0.000287705
-0.000154728
0.000119231
5.70964e-06
-0.000223361
-0.000129428
-5.25216e-06
2.27931e-06
2.97394e-06
2.54063e-05
0.00022029
0.000146396
-1.54464e-05
-0.000221726
0.000104057
0.000246519
-0.00016717
-7.88019e-05
0.000273691
-0.00012152
-0.000152045
0.000350928
-0.000261188
-8.62711e-05
-0.000174843
0.000100465
7.8169e-05
0.000123231
0.000231998
-0.000278536
0.000186564
4.7654e-05
-0.000231484
-7.58109e-05
-0.000159985
-0.000192889
-6.05825e-05
2.12869e-05
-0.000165685
8.96649e-05
0.000141437
-0.000144396
-6.37381e-05
-0.000107185
-0.00039119
6.8463e-05
0.0003245
6.49002e-06
-0.000247158
-0.000244053
-7.82523e-05
0.000322369
-0.000234719
0.000125033
0.000109861
-0.000247621
0.000314638
0.000346955
-8.63112e-05
0.000138806
-0.000215665
7.70133e-05
7.27588e-06
-3.66965e-05
3.70502e-05
7.75552e-05
1.36356e-05
-8.91912e-05
-0.000217492
-6.23432e-05
-4.51785e-05
-0.000135365
3.63684e-05
1.53991e-05
-0.000103071
9.21808e-06
-2.13458e-06
-2.47399e-06
-6.93217e-05
-1.56609e-05
0.000100794
0.000115905
4.89152e-05
0.000114658
-0.000295441
-1.10473e-05
-5.1373e-05
6.39214e-05
-0.000346609
0.000125319
-8.87863e-05
-0.000265793
0.000342894
-7.37093e-05
-1.16611e-05
0.000116208
-0.000105136
0.000178487
0.000348456
-5.04603e-05
-1.07809e-05
5.0115e-05
-0.000108628
-0.000125906
-0.000115718
-3.61075e-06
0.000119349
0.000200468
0.000108968
-0.000309377
8.90588e-05
6.5703e-06
-9.32707e-05
-0.000133231
-0.000137986
0.000271262
-9.52492e-05
2.03861e-05
0.0001069
-8.00865e-05
-0.00015954
0.000239837
-0.000305778
5.95039e-05
0.000247193
-5.50164e-06
0.000272268
0.00023635
-0.000292489
0.00022828
0.000286792
9.31371e-05
-0.000189909
0.000265247
-0.000165952
7.67772e-05
5.06256e-05
0.000247884
0.000233549
-0.00010508
-0.000128246
5.94496e-05
-0.000317412
0.000259717
7.87259e-05
1.18035e-05
-8.83612e-05
-0.000363117
0.000186537
0.000178175
8.74777e-05
-6.56432e-05
0.000172025
-0.00010633
0.000117295
-0.000158617
0.000245081
-0.00021941
0.000281032
8.43804e-05
-0.000377888
8.6073e-05
0.000294212
0.000314715
6.54185e-05
0.000131872
0.000252205
-0.00024083
5.19041e-05
0.000116491
-0.000166809
9.72525e-06
4.14021e-05
-5.02188e-05
7.87481e-05
0.000215389
-0.000286255
0.000252512
-6.50304e-05
0.000122819
-0.000109079
0.000162534
-0.000246958
0.000161202
8.57822e-05
0.000242046
-8.21183e-05
-0.000102115
-0.000287451
-5.60501e-05
6.8692e-06
6.08741e-06
0.000221706
2.30903e-08
-4.47168e-06
-7.86909e-07
-0.000109157
-5.87673e-05
0.000167952
6.04117e-05
-0.000341574
-3.20547e-05
0.00028206
-0.000249276
0.000291021
4.70773e-05
-0.000336999
-0.000309305
2.80115e-05
0.000282447
0.000292436
-6.10884e-05
-0.000230718
7.43582e-05
-9.67253e-05
2.23699e-05
-8.96909e-05
-0.000144992
0.000234979
0.000265236
-0.000365621
0.000102995
0.000106284
2.00087e-05
-0.000126107
4.01239e-05
2.75017e-05
0.000148112
-0.000114311
0.000191197
0.000239454
-0.00021686
-2.22635e-05
-0.000294622
-9.49797e-05
9.22231e-05
-1.78623e-05
0.000190234
-6.32041e-07
-0.000102613
-0.000119026
-0.000123148
0.000240767
-7.92436e-05
-1.99001e-05
9.95632e-05
0.000300642
-0.000249023
-9.85894e-05
-0.000262454
-0.000306536
-3.35742e-05
0.000344035
-0.00019123
0.000247845
-5.59116e-05
-0.000213401
2.15056e-05
-0.000100326
0.000231435
-0.000159559
-7.13101e-05
0.000342849
-3.81672e-05
1.04868e-05
-0.00031324
0.00023952
-0.000260574
-0.000309116
0.000220383
0.000279175
6.69236e-05
-0.00034435
-0.000127609
0.000149769
-0.000370888
6.08188e-06
0.000111221
0.000283436
2.36301e-05
-0.000306831
0.000393168
-7.30888e-05
-0.000318681
-0.000259323
-7.03681e-05
-3.46683e-05
0.000255069
0.000217073
-0.000242461
-5.84295e-06
0.000243544
-0.000231837
0.000114741
0.000279626
0.000290592
-0.000363924
7.46992e-05
0.00032724
-4.02284e-05
-7.88238e-05
-0.000222302
0.000201871
0.000170606
6.26613e-05
0.000160393
-0.000216728
0.00030062
-1.69333e-05
0.000278998
8.37977e-05
-0.000361291
5.13538e-05
-0.000163358
0.00011206
7.97728e-05
7.12692e-05
-0.000201485
0.00020056
0.000278733
-0.00025161
0.0001079
0.000160666
-0.000178395
0.000264201
-5.3291e-05
-8.99161e-05
0.000143215
8.0528e-05
-5.62862e-05
0.000307208
-7.85289e-05
-0.000228473
0.000155997
-0.000245373
-3.02124e-05
7.96303e-05
0.000230063
-0.000264139
0.000120311
-0.000140226
0.000218068
-1.10566e-05
3.5724e-06
-1.1013e-05
5.69772e-05
-4.41364e-05
0.000140677
7.50993e-05
-0.000215602
0.000102431
0.000137315
-0.00011386
0.000165273
0.000226828
-0.00017563
-4.04299e-05
-6.27939e-05
0.000157066
-0.000143889
0.000212582
6.4783e-05
-0.00017391
-2.82029e-08
-3.25326e-08
-0.000317852
9.89049e-05
0.00022244
-5.57981e-05
0.000154786
-9.8965e-05
-6.92177e-05
-0.000201696
0.000272719
-0.000354826
4.56743e-05
2.81706e-06
-1.07925e-06
0.000284147
-4.04832e-05
-0.000242962
0.000247305
-7.69208e-05
-0.000168619
4.97476e-05
-0.000277162
0.000162137
-7.4848e-05
-0.000313733
0.000130588
0.000183624
1.92908e-05
0.000105839
-3.71196e-06
5.14169e-06
7.03353e-08
0.000207007
-3.81676e-05
0.000313723
-0.000273596
-7.96377e-05
-0.000233536
-4.85997e-05
-6.94582e-05
0.000118061
0.000119357
-3.58871e-05
-7.92037e-05
0.000117639
-9.72668e-05
0.000275932
-0.000324217
5.0683e-05
7.22446e-06
-2.4869e-06
7.88902e-05
-0.000284496
0.000206177
3.77295e-07
-4.83135e-06
5.58585e-05
0.000164944
-0.000299908
0.000197076
0.000103023
4.51351e-05
0.000191391
-0.000234545
-9.31188e-05
0.000172569
-7.93132e-05
0.00024471
-9.1233e-05
-0.000153072
4.48405e-06
0.000187945
0.000271466
-0.00017843
-9.29651e-05
-0.00025689
-3.12811e-05
-0.00021565
-0.0002877
6.27065e-05
0.000225403
-0.000332197
-1.21428e-05
0.000346584
0.000279304
-5.06378e-05
-0.000220692
0.000104708
0.000182915
0.00025957
-0.000352424
0.000181739
-0.000307621
0.000127259
-3.82941e-06
-1.32189e-06
-8.04131e-05
0.000246468
-0.000165884
-0.000297499
0.000169705
0.000127824
-0.000243081
-7.09748e-05
-7.95627e-05
-0.000254294
0.000333968
-0.000323509
0.000246467
8.34776e-05
-0.000329064
-6.42717e-05
0.00016057
-9.62757e-05
-5.95408e-06
8.55275e-05
-0.000192589
-7.26537e-05
-2.40507e-05
9.98407e-05
-7.54394e-05
-2.47743e-06
-1.09925e-06
3.66998e-06
0.000165779
7.93418e-05
0.000248096
-0.000156863
-9.1072e-05
-2.16683e-05
-9.08163e-05
0.000112494
-0.000224819
0.000275297
-0.000196875
-3.5356e-05
0.000235132
-0.000213704
1.56478e-05
-5.59846e-06
3.59074e-05
0.000158662
5.96077e-05
-0.000191894
-0.000367872
0.000250432
0.000120111
0.000305948
-0.000255261
-4.93453e-05
0.000161887
-0.000242137
-0.000293218
0.000106222
-3.01916e-05
-0.000218042
0.000251392
-7.97162e-05
0.000218673
-2.41048e-05
-0.000104561
0.000128677
-0.000256057
6.55007e-05
0.000207767
2.98145e-05
-0.000236207
-0.000220191
-3.48659e-05
0.000217559
5.06114e-05
-0.000304798
2.95486e-05
0.0002474
0.000183396
4.91359e-05
-0.000226719
0.00028159
-0.000311094
3.0244e-05
5.08251e-05
-0.000274884
0.000262164
-0.000205772
9.1052e-05
9.87192e-05
-0.000189671
0.00011658
0.000237129
-0.000247166
0.00010223
9.79705e-06
-6.32816e-05
0.000378356
-0.000323605
-5.25097e-05
-4.42314e-05
-0.000149275
0.000193537
-6.60055e-06
9.52026e-07
0.000346919
-6.46301e-05
-5.64507e-05
-0.00018457
-0.000115106
0.000287366
1.64587e-06
-0.000284155
-6.45762e-05
-8.19966e-05
0.000154094
0.00016961
0.000130751
-0.000299758
4.53497e-05
0.000239467
-1.10283e-05
5.34901e-05
-4.11251e-05
1.69181e-05
0.000112126
-0.000127681
2.51255e-05
0.000254585
-0.00027907
1.66122e-05
0.000205534
-0.000362396
0.000225255
4.18776e-05
-1.36959e-05
-2.14944e-05
-0.000203921
-9.60857e-05
0.000155647
-0.000291847
0.000352538
-5.60275e-05
2.38851e-05
-0.000243001
0.000114501
-0.000295912
0.000280499
-0.000182158
-9.83047e-05
-1.03353e-05
5.55028e-05
-4.39539e-05
0.000186515
-0.000106774
-0.000162049
0.000286272
-0.000118602
3.11663e-06
-8.02831e-07
9.08947e-05
-0.000146672
-5.54033e-05
0.00030969
-0.000253328
-0.000300398
0.000222194
-8.29574e-05
-0.000278489
-0.000175526
0.000120457
0.00019044
9.00939e-05
0.000136209
-0.000292632
-6.43697e-05
-6.15308e-06
3.72083e-05
4.93253e-05
-4.83778e-05
0.000237658
9.30574e-05
0.000254472
-0.000178103
0.000266281
-0.000154648
1.03625e-05
-1.22714e-05
8.08946e-06
-0.000118153
6.48686e-05
0.000292112
4.43336e-05
-0.000334403
-0.000224314
0.000249329
-0.000265593
-0.000129461
-0.00027486
0.000344935
0.000276002
0.000242273
-4.55017e-05
-7.54983e-06
5.40259e-05
-0.000111969
-5.011e-05
0.000162117
-0.000257208
0.000314418
-5.09477e-05
-6.46027e-05
7.80496e-05
-1.09056e-05
6.50852e-05
1.14244e-05
-7.48647e-05
-0.000248197
9.15038e-05
-0.000262476
0.00015466
-6.77755e-05
-8.68651e-05
-8.39443e-05
1.92868e-05
0.000145894
-0.00017421
0.000272644
-0.000355454
0.000292814
-0.000305718
-3.06936e-05
-6.61982e-05
-0.000196167
0.000264165
0.000260507
-0.000203076
0.000103944
-0.000170727
0.000247233
-9.92726e-05
6.10698e-05
-9.84418e-06
0.00030528
-0.000155305
0.000117668
-0.000141761
-6.61665e-06
8.94814e-06
-9.96716e-07
0.000187531
-0.000236117
4.94941e-05
9.32087e-07
-3.41393e-06
3.88366e-06
-0.000115134
9.59738e-05
-0.000187532
9.45455e-05
-2.7509e-06
3.3116e-07
-7.48217e-05
-0.000276768
-3.35963e-05
3.90561e-05
-0.000262266
8.85762e-07
-5.93096e-06
-0.000193184
0.000263524
-6.99352e-05
0.000251261
-0.00017447
-7.61936e-05
-0.000315568
0.000200368
0.000115363
-0.000281486
-7.42508e-05
-0.000124858
0.000222312
2.04662e-05
-0.000104092
8.40967e-05
-0.000147281
0.000157335
-1.00043e-05
0.000103342
0.000197676
3.951e-05
-0.000339066
0.000179022
0.000160699
-0.000225418
3.13003e-05
-0.000292853
0.000343948
-4.80443e-05
-0.00013288
0.000366682
-0.000228286
6.32081e-07
-2.65498e-07
-3.73033e-05
-9.09579e-05
0.000227526
-0.000334318
-1.05628e-05
3.00254e-05
-3.90966e-05
1.6129e-05
5.13249e-05
-4.43445e-05
-3.46368e-06
3.93069e-06
3.48873e-07
0.000353135
-7.55623e-05
-0.00027559
-0.000147734
-0.000167659
2.96985e-05
-0.000176923
0.000111034
-0.000242953
0.000288983
0.000377882
-9.93277e-05
-0.000275967
-8.37496e-05
-0.000291533
0.000236572
-3.88967e-05
-2.28172e-05
-0.00026667
0.00033951
-2.40187e-06
5.31902e-05
-4.86078e-05
5.17e-05
0.000169795
-0.000215166
-1.34951e-05
1.68568e-05
-0.000377467
9.22739e-05
0.000282046
6.3916e-05
-0.000344443
2.07728e-05
9.72092e-05
-0.000116749
-6.94392e-05
-8.59033e-05
6.36713e-05
0.000320853
-0.000189733
0.000159675
-0.00022281
-0.000153724
3.80268e-05
8.87116e-06
5.10758e-05
-9.46471e-05
0.000116669
-0.000351756
7.13416e-05
0.000348249
1.8031e-05
-0.000111422
1.32477e-05
7.01872e-05
-8.17365e-05
-0.000134361
0.000354107
5.04891e-05
-4.15886e-05
0.000218069
0.000158385
-0.000375482
-0.000281587
3.15075e-05
-2.57239e-05
0.000353824
-0.000116456
-0.000231687
-0.00016054
-0.000177734
-6.61859e-05
-0.000282723
0.000349273
-0.000178795
0.000233782
0.00039322
-0.00025999
-0.000131478
5.2137e-05
-3.56368e-05
5.0039e-05
0.000155289
-0.000102306
8.28216e-05
0.000261599
-0.000160728
-0.000100592
-0.000132838
0.000315888
-0.000289849
0.000192423
0.00035464
-7.42231e-05
-7.05491e-05
-0.000263301
0.000335064
-6.9855e-05
-2.68672e-05
1.51977e-05
-4.86236e-06
9.79157e-05
-7.59827e-05
0.000204738
0.000117675
-0.000308906
0.000191508
-0.000276379
-8.71724e-05
0.000365781
-2.93644e-05
-8.61575e-05
-9.27173e-06
-3.82072e-05
4.83418e-05
0.000201504
-0.000357662
5.0024e-05
-3.93809e-05
0.000172559
8.92996e-05
-0.000101642
9.00327e-05
6.96328e-05
4.65191e-05
3.89425e-05
-1.43669e-05
-1.51587e-05
2.56459e-05
2.19178e-05
-7.24575e-07
-1.42594e-07
1.21308e-06
3.64794e-05
-0.000323352
0.000112964
-0.000188795
8.06397e-05
0.000108204
-0.00027407
0.000227887
0.000124505
-0.00023781
0.00011348
-0.00039505
0.000237084
0.000161131
-5.52159e-06
5.2314e-05
-4.48529e-05
-2.26729e-05
1.0025e-05
0.000346931
-0.00010118
-0.00023966
0.000260532
-6.85678e-05
-0.000188102
0.000235113
-0.00032061
8.69861e-05
0.000154324
-0.000134932
-4.47924e-05
0.000206576
-0.000135324
-0.000256554
0.000286427
-0.000323167
4.20594e-05
0.000255772
0.000207856
0.000112314
0.000235835
-0.000111178
0.000275864
-5.80181e-05
0.000107772
6.30028e-05
-0.000170737
-3.3473e-05
7.83517e-05
6.31232e-06
-0.000252597
0.000246935
-0.000246113
-3.67889e-05
4.68742e-05
0.000325616
-8.08445e-05
-0.000242845
0.00012416
-3.10659e-05
-8.08876e-05
0.000366003
-0.000104887
0.000128717
-0.000196607
6.79913e-05
5.85479e-05
-0.000170475
-1.46786e-05
0.000101343
-8.44618e-05
-0.00026327
2.97197e-05
-0.000318584
8.46966e-05
0.000179276
2.39393e-05
-9.37915e-05
-5.35562e-06
0.000214556
5.04266e-05
5.37297e-05
-1.13841e-05
1.81456e-05
-5.8708e-06
-9.31199e-06
0.000226209
-0.000171628
0.000204827
-0.000186682
8.12236e-05
5.78359e-05
-0.000139045
3.7331e-05
7.30979e-06
-4.37682e-05
-3.96283e-05
8.78094e-05
-0.000100299
-6.60572e-05
-5.61681e-05
0.000127093
0.000235672
-0.000335143
4.53425e-05
1.88415e-06
0.000290145
-0.000119939
5.86857e-05
-0.000276836
0.000209409
7.99816e-05
-1.50064e-06
-4.71944e-06
9.05351e-05
0.000293153
-0.000183797
0.000345576
-0.000160498
-6.03792e-05
-0.000191187
-0.00031349
0.000267661
4.73392e-05
0.000218065
-7.65535e-05
-0.000144082
-2.52797e-05
0.000170151
7.62585e-05
3.26272e-05
4.24671e-06
-3.17933e-05
-5.5935e-05
9.66634e-05
5.76111e-05
-0.000243838
0.000187776
-1.27513e-05
4.35802e-06
-0.000275719
0.000282763
-0.000191004
3.19915e-05
0.000351702
-5.57059e-05
-0.000293121
0.000359479
-8.06857e-05
-0.000276472
0.000290256
-0.000302397
-0.000230266
0.000348251
0.000109298
-8.5931e-05
9.89782e-06
6.87676e-06
-1.13234e-05
1.2528e-05
-1.66273e-05
7.18473e-06
0.000367326
-7.53965e-05
-0.000178693
0.000153065
-2.71499e-05
-0.000241519
0.000274267
0.000210564
-6.94203e-05
8.66242e-06
4.67859e-05
5.22148e-05
-4.14838e-05
0.000153465
0.000412377
-0.000270121
-0.000141652
6.8568e-05
0.000163385
-0.000120341
2.36272e-05
0.000139384
-5.81467e-05
-6.31583e-06
6.04884e-05
-5.25269e-05
0.00011444
1.15479e-05
-0.000124957
-1.54168e-05
0.000254441
-0.000238734
0.000396196
-6.7219e-05
-0.000327521
-0.000274536
0.000315743
0.000229942
0.0003428
-0.000280902
-7.89831e-05
0.000206336
-0.000127299
0.0001637
0.000249241
2.82076e-08
-2.81611e-06
5.47691e-05
-5.94624e-05
-4.76253e-06
0.000296923
0.000269039
-0.000363809
9.66e-05
5.36726e-05
0.000161833
0.000132622
1.21905e-05
5.5502e-05
-6.51879e-05
5.2613e-05
0.000301826
5.75126e-05
0.000293855
0.000215386
-0.000137166
-7.80747e-05
-9.71477e-05
0.000262386
-0.000162082
0.000186488
2.93814e-05
-0.000213003
0.000220717
-0.000270813
5.1566e-05
-0.00018042
0.000206592
-0.000139667
0.00012468
1.65059e-05
-2.3922e-05
0.000131272
-0.000173707
4.24956e-05
0.000111155
-0.000166015
5.49147e-05
4.4331e-05
9.26773e-05
-6.58765e-05
6.99891e-05
-7.18926e-05
1.01193e-05
1.78474e-05
7.68317e-05
-9.36529e-05
0.000192978
-0.000257385
0.00028604
-5.75454e-05
-0.00022325
0.000205366
3.2675e-05
4.35261e-06
-3.24387e-05
-0.000194666
0.000105347
-8.438e-05
0.000125725
-8.33793e-05
-3.78815e-05
0.000290319
-5.0417e-05
-0.000232247
-0.000225255
8.51497e-05
0.000205822
5.94204e-05
-0.000155967
0.000102292
-0.000204447
-6.36344e-05
0.000273626
-0.00032312
0.0001571
0.000166045
1.9127e-05
-2.45741e-05
0.000316094
9.07269e-05
3.92585e-05
-2.05572e-05
-0.000100472
0.00012224
0.000110673
-7.50944e-05
-3.27259e-05
-3.06972e-05
0.000235947
-0.000204806
-6.19945e-05
-0.000103928
5.1423e-05
0.00024621
0.000227613
-0.000121093
-0.00016263
-7.75769e-05
0.000240479
-0.000148849
3.16142e-05
0.00011725
0.000241534
-0.000113705
-0.000127718
-1.46911e-05
-0.000181325
0.000204579
0.000113657
0.000283724
-3.77058e-05
-0.000192695
0.000235192
7.40989e-05
0.00010169
-0.000170008
0.000163809
2.02599e-05
-0.000174539
-0.000214538
-5.1471e-05
0.000266678
-2.54023e-05
0.000293533
-5.64867e-05
0.000224807
9.57053e-05
0.000159912
-0.000255106
0.000145155
7.29787e-05
0.00021549
-5.74766e-05
-0.000385943
0.000116241
0.000270354
-0.000297364
-5.87124e-05
0.000357649
5.03049e-05
-5.86032e-05
7.66755e-05
-0.000330842
0.00027012
-0.000307033
3.78681e-05
1.45914e-05
-2.12697e-05
1.06243e-05
1.53632e-05
7.92941e-07
6.89234e-05
8.57548e-05
-0.000124592
-0.000172852
0.000111608
0.000154743
0.000129603
-0.000165979
4.20902e-05
-0.00010913
0.000172482
-6.33047e-05
7.4184e-05
6.92142e-05
-0.000269062
0.000269461
2.55371e-05
-0.000294249
-0.000120881
-0.000141707
0.000263323
0.000323808
-0.000215092
2.77181e-05
-2.20668e-05
-9.25462e-05
0.000147132
0.000171926
-0.000317908
0.000270123
0.000324691
-7.74336e-05
-0.000155106
9.28149e-05
0.000204782
-0.000298851
6.70189e-07