/*--------------------------------*- C++ -*----------------------------------*\
| =========                 |                                                 |
| \\      /  F ield         | OpenFOAM: The Open Source CFD Toolbox           |
|  \\    /   O peration     | Version:  v2012                                 |
|   \\  /    A nd           | Website:  www.openfoam.com                      |
|    \\/     M anipulation  |                                                 |
\*---------------------------------------------------------------------------*/
FoamFile
{
    version     2.0;
    format      ascii;
    class       volVectorField;
    location    "600";
    object      ddt0(U);
}
// * * * * * * * * * * * * * * * * * * * * * * * * * * * * * * * * * * * * * //

dimensions      [0 1 -2 0 0 0 0];


internalField   nonuniform List<vector> 
18355
(
(0.0842655 0.0329272 -1.21748e-19)
(0.00018043 -0.000118806 3.40987e-19)
(-0.0305556 -0.10828 -3.06109e-18)
(0.000292565 -1.16123e-05 6.01569e-20)
(0.00758183 0.0158795 -1.26694e-18)
(-0.0552685 0.0183262 1.56361e-21)
(-0.000805445 -0.000956803 4.39811e-21)
(0.0101337 0.0147296 1.12805e-18)
(0.000212454 1.22095e-06 -4.35562e-19)
(0.0230065 -0.0532312 1.64531e-19)
(-0.00677598 0.00138299 1.49926e-18)
(-0.0400927 -0.00977009 -4.21188e-18)
(-0.0425143 -0.009472 -2.41569e-18)
(0.074452 0.0503694 -6.69329e-19)
(0.00021531 -5.73027e-06 1.0508e-20)
(0.000130336 -4.29918e-05 4.78914e-19)
(0.000317404 -1.12251e-05 -1.47572e-19)
(-0.0026727 -0.00356376 -6.50851e-19)
(0.0554321 -0.067725 -7.89699e-18)
(0.00260507 0.00119908 -5.66929e-19)
(0.0576968 0.105819 8.21661e-18)
(0.000772392 0.000341058 1.51477e-19)
(0.000153332 -3.37116e-05 6.41543e-19)
(-0.0547991 0.0161677 5.8645e-20)
(0.000150586 -2.16654e-05 6.01691e-19)
(-0.00197735 -0.000109251 6.0656e-19)
(-0.0011199 -0.000640331 2.25905e-20)
(0.000274617 -2.79559e-05 -3.3493e-19)
(0.000208517 2.72962e-06 8.73492e-20)
(-0.00805134 0.000318324 -7.72283e-20)
(-0.0633772 0.0447476 -6.67439e-18)
(-0.00641686 0.028318 -5.25319e-19)
(0.000113297 5.55898e-05 2.30884e-20)
(0.000127662 5.32548e-05 3.59688e-19)
(5.69245e-05 -4.55365e-06 -7.77723e-21)
(0.000131977 0.0018427 -1.93101e-19)
(0.0036724 -0.00432581 1.87737e-18)
(-4.13879e-05 0.00203588 5.44342e-19)
(-0.00900014 0.000248767 6.33424e-19)
(-0.000465286 0.000145254 -2.74652e-19)
(0.000450177 -6.71075e-06 1.30165e-19)
(-0.00773483 0.0014454 -7.13115e-21)
(0.000132852 2.456e-05 7.99947e-19)
(0.000181425 -0.000108475 5.9115e-19)
(0.000182351 -0.000115378 8.98227e-20)
(-0.0728478 0.0135 1.43107e-18)
(0.000207558 2.90548e-05 9.68594e-20)
(0.000211511 3.47119e-05 2.6131e-19)
(-0.0548566 0.0360352 3.79739e-18)
(0.000251606 0.000312147 -7.01432e-21)
(9.76112e-05 1.42836e-05 5.937e-19)
(0.182107 0.0276453 3.17312e-18)
(0.00032799 0.000372873 8.70913e-19)
(0.0654041 -0.0135376 -1.70153e-18)
(0.000389554 -4.6271e-05 1.20149e-20)
(0.0025447 0.00170489 3.22559e-19)
(4.2571e-05 1.94968e-06 9.14476e-19)
(0.00038685 0.0488056 -1.12427e-17)
(-0.0021804 7.09881e-05 -3.35791e-19)
(-0.00224104 0.0375667 -1.71005e-18)
(0.000131198 4.5043e-05 -4.24578e-19)
(-0.0223408 -0.0243737 1.13743e-17)
(0.0646689 -0.00979035 -2.49446e-20)
(0.00154876 -0.000796924 5.43244e-19)
(0.00658712 0.0364824 -8.63623e-20)
(6.75493e-05 1.7284e-05 -3.06915e-19)
(0.00277471 0.0015908 -9.34761e-19)
(0.00397564 -0.0043915 9.8427e-19)
(9.83926e-05 0.000135182 -1.02867e-18)
(0.0031272 -0.131692 4.62212e-19)
(-6.7836e-05 1.93408e-06 -8.98706e-19)
(0.000396014 -4.49719e-05 -8.199e-20)
(-0.00588939 0.0206948 1.7024e-18)
(-0.0016493 -0.00600566 2.12286e-18)
(-0.0210597 0.0337198 -2.40334e-18)
(0.000110357 0.000124292 6.28833e-20)
(-0.0125443 0.0438755 -2.77064e-18)
(0.000113754 0.000120468 1.10765e-19)
(-6.21997e-05 -1.20843e-05 9.68472e-19)
(-0.0246408 0.0287599 -7.4001e-19)
(0.00260555 0.00178527 1.15208e-18)
(-0.0363151 0.0111576 -9.0577e-19)
(0.00010433 0.000135271 1.47695e-18)
(0.00300971 0.00337801 -3.24463e-21)
(0.023715 0.0104017 -2.47614e-19)
(0.000151016 4.45378e-06 -3.15926e-19)
(0.000293499 1.76013e-06 1.18875e-18)
(0.0177238 0.00133122 -8.55735e-19)
(0.000108594 6.11522e-05 7.48057e-19)
(0.0180033 0.00269236 1.98739e-19)
(0.0789288 0.0414716 -8.78116e-18)
(0.0190185 0.10501 -2.90573e-18)
(-0.0357004 0.00521406 9.91788e-19)
(0.000118808 0.000345577 1.32715e-18)
(0.099208 -0.00468088 -1.05122e-18)
(0.00227789 0.000734391 7.08485e-19)
(0.000153664 0.000111058 7.80635e-19)
(0.0018755 0.000594715 -9.17467e-19)
(0.0240598 -0.0317341 -1.56129e-18)
(0.000533536 0.000411523 -5.17328e-20)
(0.0220928 0.00998142 1.53583e-19)
(-7.64522e-06 -2.58988e-05 -3.86456e-19)
(6.13824e-05 0.000290318 -1.39379e-18)
(4.10386e-05 -3.1332e-05 1.79015e-20)
(0.00259762 0.00230803 9.37468e-20)
(0.000135548 -3.33367e-05 -1.14455e-18)
(0.00356326 0.0375068 -2.84479e-18)
(0.0985886 0.00406448 1.01399e-18)
(0.0109106 -0.00313851 2.17962e-19)
(0.000123448 -5.11922e-05 -4.57536e-19)
(3.40057e-05 5.01797e-06 1.04798e-19)
(5.85942e-05 3.15022e-06 1.25834e-19)
(-0.010144 0.0110081 9.02745e-20)
(0.00262016 0.00325901 3.9208e-20)
(-0.0964886 -0.0210179 1.05485e-18)
(-0.00190519 0.0082111 -9.15437e-19)
(-9.72107e-07 -2.99328e-05 4.43497e-19)
(-0.0319276 0.0307636 -1.3978e-19)
(0.00107498 0.00178426 7.55398e-20)
(0.00273104 0.00131053 -6.7619e-19)
(0.00847323 -0.105619 6.99122e-20)
(-0.037948 -0.10893 2.72583e-18)
(0.0763774 0.114656 3.14904e-18)
(0.0223255 0.00199318 -1.52111e-19)
(-0.0348187 0.0246255 3.00791e-19)
(-0.0836989 0.0095287 -4.43913e-18)
(-0.00102329 -0.000914591 5.29137e-19)
(0.000303572 -8.64212e-06 -1.56678e-18)
(0.0891866 0.0309296 2.57777e-19)
(0.000553742 0.000109936 -3.52956e-19)
(0.000149695 0.000113748 -1.19393e-18)
(0.17165 0.0689465 -2.20638e-18)
(0.000296859 0.0001952 9.36574e-20)
(0.00221246 -0.0378844 -8.25133e-18)
(0.0427613 0.0260816 1.74523e-19)
(0.000111816 1.44104e-06 2.02867e-20)
(0.0524832 -0.0735958 -1.38966e-18)
(0.0664597 -0.0603674 -3.99423e-19)
(0.000380763 3.33184e-05 2.45433e-20)
(0.0247356 0.109617 1.07468e-18)
(0.0040432 -0.00187152 -3.07368e-18)
(-0.0188208 0.00701728 -3.93296e-19)
(0.000170475 0.000111504 -5.152e-19)
(0.166639 -0.0294878 1.44436e-18)
(0.0420781 0.0290465 -1.13814e-18)
(0.00044964 -1.72689e-05 6.70716e-20)
(-0.0339762 0.0387908 -1.99218e-20)
(2.1228e-06 -0.000152462 -3.10826e-20)
(-0.0109736 0.00996975 -4.101e-19)
(-0.0333801 -0.0676256 4.76442e-21)
(0.000272731 -2.85228e-05 -1.07682e-19)
(0.00260479 0.0012294 -1.56253e-19)
(-0.000608089 -0.00103529 2.83308e-20)
(-0.00764561 -0.00193973 -2.61866e-20)
(0.000134716 1.45345e-05 -1.0713e-18)
(0.000161049 -1.40956e-05 1.48387e-18)
(0.00029557 -1.05794e-05 1.39294e-18)
(0.000153883 4.87119e-06 -1.34046e-19)
(0.000178453 0.000107313 6.32892e-19)
(0.000166632 -1.06185e-05 -6.95656e-20)
(-0.00420379 -0.00247119 -5.13604e-19)
(0.000264845 0.000203554 -9.02157e-20)
(0.000124359 -5.44437e-05 2.02379e-19)
(-0.0119324 0.00168113 9.07048e-19)
(-0.00410656 -0.00523301 1.21989e-18)
(0.00260341 -0.0389814 1.9252e-20)
(-0.0243043 0.0442557 -4.6654e-19)
(0.0871318 0.0444799 -2.54023e-19)
(-0.155106 0.20973 4.26725e-18)
(0.00420632 -0.00168045 -2.39347e-18)
(4.96844e-05 -2.76413e-06 2.37496e-19)
(0.00298919 -0.0355513 2.05295e-18)
(0.000114266 1.42686e-06 -5.39642e-20)
(-0.0686885 0.0172538 6.09361e-18)
(3.12853e-05 -5.61734e-07 3.78793e-20)
(0.000464717 -1.24528e-05 -3.3069e-21)
(5.43855e-05 3.23756e-06 -5.08479e-20)
(3.96741e-05 -5.09536e-05 4.43434e-20)
(0.00113531 -0.00105586 2.4079e-18)
(0.00524783 0.0074883 4.79012e-20)
(0.000172933 2.60814e-06 5.32088e-19)
(0.00680568 -0.0337187 -1.57981e-20)
(0.000637853 0.000234198 -6.1068e-19)
(0.000243701 -2.60627e-05 -1.09007e-18)
(-0.00189913 -0.0224873 5.49503e-20)
(-6.73149e-05 0.000289399 1.24705e-18)
(0.000169185 -5.72831e-06 -1.53349e-19)
(0.0168567 0.00500103 3.0131e-20)
(0.000376282 -6.88488e-05 3.68464e-21)
(-0.0014024 -0.000576075 -2.82887e-19)
(-0.079835 0.00911884 2.91542e-18)
(0.0215762 -0.0327569 -1.32196e-18)
(0.000173547 -0.000127627 2.35476e-19)
(8.60393e-05 0.000193527 -7.09997e-19)
(0.000399204 -9.96984e-06 2.09872e-19)
(-0.102302 -0.0346043 2.68374e-19)
(9.79968e-05 2.04216e-05 -9.33851e-19)
(0.0950444 0.042659 1.05119e-19)
(0.000182798 -0.000123889 -6.79805e-19)
(0.0825733 0.0498295 2.28475e-20)
(-0.000103974 0.000220717 -2.76525e-19)
(0.000627164 -0.00296488 -2.67796e-19)
(-0.00923132 -0.00108395 -2.09558e-18)
(0.000188187 -1.23285e-06 -2.79356e-20)
(0.0876303 0.0404879 -6.61504e-20)
(0.000567971 -4.94689e-05 -1.11463e-18)
(-0.151166 0.137821 -5.06089e-18)
(0.000242107 -2.87905e-05 -3.12208e-19)
(7.33932e-05 -2.95484e-06 -6.49037e-21)
(-0.00093617 -0.000404302 -3.73387e-19)
(0.000198046 0.000293487 -8.88273e-20)
(-0.0505275 -0.0068041 8.04261e-19)
(-7.68783e-05 -0.00264651 -1.01549e-19)
(-0.000115007 -0.00209437 2.90566e-19)
(-3.85567e-06 -0.000168775 3.60585e-20)
(-0.0647364 -0.0251915 -4.39109e-18)
(0.00466765 0.00779229 -5.50721e-19)
(0.00223219 -0.00302666 1.76836e-18)
(0.00055695 7.97157e-06 6.86996e-20)
(0.000182638 6.68721e-05 -7.36538e-19)
(0.0102 -0.00284671 -1.6713e-19)
(-3.88631e-06 5.74937e-05 2.54528e-19)
(0.0157793 -2.44058e-06 -1.13413e-19)
(-0.00622426 0.00330088 -7.28227e-19)
(0.0170468 -0.0200174 -4.78965e-19)
(0.00249427 -0.0035177 4.123e-19)
(1.74532e-05 0.000102055 -1.39282e-19)
(0.0751333 -0.0316157 8.51039e-19)
(0.0721939 0.0295977 4.22093e-19)
(-0.000578403 0.0167926 -1.01833e-19)
(0.000677913 -0.000950576 -7.33359e-19)
(0.00277721 0.00209859 -5.03598e-19)
(0.00251917 -0.054773 -1.28265e-19)
(3.66534e-06 8.17333e-05 -1.03425e-18)
(-0.0128932 -0.000617028 1.51495e-19)
(0.0121602 -0.0190789 2.04348e-19)
(0.000846082 -0.000484053 -3.79674e-18)
(-0.0774536 0.0134556 -7.32342e-19)
(0.000502842 -0.00260327 5.5846e-18)
(-0.000592833 -0.00192431 -8.31655e-19)
(0.000178271 -0.000135854 4.84001e-19)
(0.00108437 -0.000994766 1.55083e-18)
(-0.000462165 -0.00152478 5.65059e-19)
(0.0012418 0.0149012 -2.14262e-19)
(0.000550323 -1.85579e-05 6.41354e-20)
(0.000389487 -6.98112e-05 -3.3361e-20)
(0.00023137 4.15428e-06 -4.16833e-19)
(-0.0500587 -0.0132558 -9.1975e-19)
(-0.053974 0.00328516 1.08546e-19)
(-0.000237614 1.04272e-05 -5.61842e-19)
(0.00190045 -0.00102063 -4.44829e-19)
(-0.0557626 -0.00386031 -6.35164e-20)
(-0.0455749 -0.0605013 7.42243e-19)
(-0.00546099 0.00456389 -4.70318e-19)
(3.82799e-05 -5.40585e-05 -3.8515e-20)
(-0.012196 -0.000712161 4.01889e-19)
(0.00061447 -0.00264725 1.85637e-18)
(0.000462283 -1.22997e-06 -6.20731e-20)
(0.00315578 -0.00308811 9.06069e-19)
(0.000139153 3.06292e-05 -1.25656e-19)
(-0.0287742 -0.0734453 -6.99214e-20)
(0.0121015 0.0190222 9.50671e-19)
(0.0185335 -0.0291457 2.24299e-18)
(-0.000573643 -0.00535184 -3.63357e-18)
(-0.0102942 -0.00140314 -1.38707e-19)
(-0.0174025 -0.0123989 -8.67581e-19)
(-0.0124935 0.00827231 1.32861e-18)
(0.0290011 -0.0341711 2.00676e-19)
(0.000138325 1.27171e-05 -2.28625e-19)
(0.000390051 -6.74006e-05 2.65335e-19)
(-0.00176705 -0.000180996 9.40114e-19)
(0.000127468 -4.03232e-05 -6.98983e-19)
(0.00112966 -0.00299062 -9.3835e-19)
(0.00211354 -0.0032082 -3.62384e-20)
(0.000278453 -2.39492e-05 -5.34435e-19)
(0.000291126 0.000244335 1.32215e-19)
(0.0089472 -0.0118317 2.00009e-18)
(0.000116459 -1.01298e-05 -3.13855e-19)
(0.0422413 0.00840638 -1.27038e-19)
(-0.00314653 -0.337923 1.24749e-17)
(0.0055243 -0.0112358 1.15395e-19)
(0.000165953 0.000312165 1.30968e-19)
(-0.00330754 0.00908166 2.64307e-18)
(0.0001298 -3.38689e-05 2.96109e-19)
(0.0178321 -0.00107749 1.25935e-19)
(0.000525051 -0.000110658 -2.94146e-19)
(0.00470304 0.00943248 -1.10311e-19)
(0.000456937 -8.14513e-06 -1.57259e-19)
(0.00417461 0.00897509 1.41887e-20)
(-0.00699855 -0.095911 1.96851e-18)
(0.000103777 2.84231e-05 2.02072e-19)
(0.00146138 -0.0160195 -2.4551e-18)
(0.00137846 0.00134701 1.46156e-19)
(0.00425289 -0.000565305 8.21748e-19)
(-0.0105932 0.0103431 2.04815e-18)
(0.000224888 -4.56768e-06 -5.7356e-20)
(7.05824e-05 0.000176496 -2.25792e-19)
(0.0394914 0.00801715 8.43146e-20)
(0.000261163 0.000262331 2.6612e-20)
(-0.0164401 0.00972373 4.89337e-19)
(0.00308494 -0.00456843 1.44426e-18)
(0.0274141 0.0721974 -5.46389e-18)
(0.0179116 -0.00450726 -2.36855e-20)
(0.0188071 -0.0308059 -1.10102e-19)
(-0.000551461 -0.00351203 -1.324e-18)
(0.0104002 -0.0132295 2.09887e-18)
(0.00036023 0.000134963 7.9524e-19)
(0.000625384 -0.00203477 -2.08427e-18)
(-0.000396851 -0.00515334 8.39424e-18)
(0.00236665 -0.016213 1.1351e-18)
(0.010097 -0.0293818 1.66154e-19)
(-0.123178 -0.151137 -4.29597e-18)
(0.00020129 2.63916e-05 1.85427e-19)
(-0.00109935 0.00555541 -1.55836e-18)
(0.058313 -0.00556457 3.45767e-19)
(-0.00373566 0.00978508 -3.89063e-19)
(0.000190302 1.78572e-05 -3.70845e-19)
(0.00020759 5.06503e-05 3.44848e-20)
(0.000249357 -2.51414e-05 4.2526e-19)
(-0.00827859 -0.0109359 3.36113e-18)
(-0.117136 -0.13891 -7.81388e-20)
(-0.247504 -0.241345 -1.00982e-17)
(0.0162997 -0.0261495 2.44884e-20)
(0.00660079 -0.0126717 -9.23577e-19)
(0.00359315 -0.00196611 -3.33652e-20)
(-0.0308225 -0.0206542 1.91107e-19)
(-7.18529e-06 -0.000148831 3.70834e-20)
(0.000567431 -6.86954e-05 1.97674e-19)
(0.00372804 -0.00177349 3.56572e-18)
(0.000397121 -8.57837e-05 -1.09083e-19)
(0.000964285 0.0165552 -1.09505e-18)
(5.59857e-05 -5.83576e-06 1.50361e-21)
(-0.0498534 -0.0829443 2.06901e-18)
(0.000141302 -2.11947e-05 -3.71654e-20)
(-0.0438406 0.0212178 2.12924e-19)
(0.000455129 -3.2321e-05 -1.16913e-19)
(-0.000379452 0.000196771 -6.25045e-19)
(0.000182012 -0.0043904 9.21505e-19)
(-0.0491484 -0.0200458 -5.24863e-18)
(0.0895382 0.0503439 -7.97636e-19)
(0.00232012 0.0145952 6.73556e-20)
(0.017124 -0.0195851 3.31548e-20)
(-2.85241e-05 0.000677586 1.10703e-19)
(0.000110424 7.23803e-05 -6.79099e-19)
(0.000394277 -7.9065e-05 1.59699e-19)
(0.00418361 -0.00371373 4.72947e-19)
(0.0189265 -0.064131 -1.84651e-19)
(0.000101842 0.000102071 -3.24596e-24)
(0.000355845 2.01112e-05 5.87982e-20)
(-0.0227574 -0.026253 -4.61926e-19)
(0.000168816 0.000579424 -3.19958e-20)
(9.88733e-05 6.84807e-05 -5.99588e-19)
(-0.0548458 -0.0438801 -8.35664e-18)
(0.00333761 -0.00349136 -3.40924e-19)
(0.000239024 -1.16364e-05 -1.40077e-18)
(0.000341654 -0.000816501 9.55097e-20)
(0.00441452 0.0106004 3.89097e-20)
(0.000490291 3.83628e-06 3.66978e-20)
(0.0033948 0.0108454 -2.32024e-19)
(-0.000186379 7.81191e-05 -5.26705e-19)
(0.000340779 1.75618e-05 -3.47956e-19)
(0.000495841 0.000385379 -2.10413e-19)
(-0.00191664 0.0307046 -1.88679e-18)
(-0.0172812 -0.0199383 -8.18445e-20)
(-0.00017766 3.25774e-05 8.29859e-21)
(0.000185201 0.000104128 -6.60518e-19)
(0.00942589 -0.0102396 5.1427e-21)
(0.000251346 -3.21911e-05 -8.63928e-19)
(0.000119131 -1.90852e-06 -1.10902e-18)
(-0.0324956 -0.0328298 -4.37044e-20)
(-0.0216754 -0.01609 -4.4018e-19)
(0.0131059 -0.0119087 -6.33909e-19)
(0.000389702 -5.18477e-05 4.13999e-19)
(0.00089773 -0.000514829 5.46004e-19)
(-0.044126 -0.0119837 -8.70597e-19)
(-6.95209e-05 0.00190369 -3.13009e-19)
(-0.0119365 0.00180123 -9.65352e-20)
(0.000526075 -0.00209412 1.74461e-18)
(0.000119431 -1.80952e-05 -1.33175e-21)
(0.00747754 -0.0093332 2.33605e-19)
(-0.00164795 0.0140598 8.74338e-19)
(0.000444017 0.000291398 2.6815e-19)
(0.00034691 1.44316e-05 3.20063e-19)
(-0.00314892 -0.00308017 3.81447e-19)
(0.000190579 1.91975e-06 -7.76064e-19)
(-0.00381804 -0.00208391 8.73909e-19)
(0.000396322 -1.49508e-05 -2.44434e-19)
(-0.0408814 0.0285562 -2.54434e-18)
(-0.000775314 -0.00132926 1.94363e-19)
(0.00248802 0.00085434 -7.10101e-19)
(7.18631e-05 1.15581e-05 -6.58541e-20)
(0.000235931 -2.08072e-05 -1.43418e-18)
(0.00129647 -0.00261601 7.48477e-19)
(-0.00207335 -0.000804118 1.76909e-19)
(-0.00989534 -0.023662 2.29281e-18)
(-0.192668 -0.0047517 3.23581e-20)
(-0.0216031 -0.0278254 -7.72646e-20)
(0.00121331 -0.00306757 -2.02049e-19)
(-0.0410766 -0.0621727 2.30521e-18)
(-0.0063178 0.00614707 -2.18695e-20)
(0.000420948 -2.70167e-05 1.17337e-19)
(5.71809e-05 -4.16874e-06 6.02032e-22)
(0.00152313 -0.0143164 -1.07517e-17)
(0.000363238 -7.64366e-05 3.62997e-20)
(0.0147845 -0.0128776 1.11153e-19)
(-0.000603229 -0.000807678 5.70035e-19)
(-0.00273075 -0.00873062 -1.34484e-18)
(-0.0321643 -0.0145336 -8.2909e-20)
(0.0278106 -0.0253812 -3.73517e-19)
(0.0860583 0.0520103 4.97529e-19)
(0.0284494 -0.0261365 -6.67928e-19)
(4.2482e-05 -2.44259e-05 -1.36985e-20)
(-0.320382 -0.367512 -2.2654e-18)
(0.000592549 0.000362624 3.93018e-19)
(0.000279287 -1.87149e-05 6.49043e-19)
(0.0763146 0.0995937 -1.04468e-17)
(0.00044358 -3.61178e-05 -3.63365e-22)
(0.00628954 -0.00773114 -7.26853e-19)
(-0.000986477 -0.00133484 -1.94736e-20)
(0.00362805 0.0421758 -1.77677e-18)
(0.000421493 -4.33433e-05 -6.38471e-21)
(0.000570843 -0.0335301 -3.45874e-18)
(-0.067423 0.0513572 -5.28013e-20)
(0.0146931 -0.0267998 3.93255e-18)
(0.000260858 0.000114007 1.73544e-19)
(0.000186972 -0.000135821 5.63732e-19)
(0.0152194 -0.028572 -2.58344e-18)
(0.00124016 0.00167416 2.18992e-20)
(0.000123891 -0.000396021 6.20438e-19)
(0.0148128 -0.0462942 3.15331e-19)
(0.0114962 0.0146753 -2.2853e-20)
(0.000281503 -1.51212e-05 -4.61801e-19)
(0.00114005 -0.0149082 3.69353e-18)
(-0.00896846 -0.0245301 1.21845e-18)
(0.000183603 -0.000134655 -7.432e-20)
(-0.000823482 0.000387973 5.34629e-19)
(0.00254531 0.0128254 -1.60236e-19)
(-0.0406288 -0.0199276 5.7301e-18)
(0.0138522 -0.00899818 8.63206e-19)
(9.14941e-05 0.000597416 -3.91875e-21)
(0.000434659 0.000147361 -5.78339e-19)
(0.000977931 -0.0110771 -3.92139e-18)
(0.000190068 -6.69242e-06 -1.33786e-18)
(8.52151e-05 9.59347e-06 7.19452e-19)
(0.000220077 -0.00065067 -7.34014e-19)
(0.0213158 -0.0249409 4.84295e-19)
(-0.181336 -0.00257838 -2.09398e-19)
(0.00011375 -3.10061e-05 -2.90395e-19)
(0.000136729 8.46224e-07 8.74242e-21)
(0.000486113 -2.25726e-05 -1.72226e-20)
(-0.0524777 -0.0205279 9.75601e-18)
(-0.00327912 0.0128678 -5.90879e-19)
(4.29584e-05 0.000163036 5.99123e-19)
(0.00687877 -0.00645161 3.26958e-19)
(0.0163701 -0.000969523 8.06503e-19)
(0.000440545 -0.000170622 1.64974e-18)
(-0.100096 -0.0265497 -6.53904e-19)
(-0.0222166 -0.0267751 -4.74555e-18)
(0.00070191 0.000246054 4.84823e-19)
(0.000184448 -2.43014e-06 9.7793e-19)
(0.013109 -0.00829869 6.84869e-19)
(-0.0547709 -0.0148098 9.18934e-18)
(0.0487999 0.0237122 1.9392e-18)
(0.000103302 -4.12511e-05 3.84265e-19)
(0.105844 0.0455603 8.5268e-19)
(0.000376483 2.93191e-05 6.92177e-20)
(0.000103071 -3.48911e-05 -1.99111e-19)
(0.0203682 -0.00367423 -1.07529e-18)
(0.00161932 0.00161764 7.77125e-20)
(-0.0416238 0.033752 6.51117e-19)
(-0.00365846 0.0208037 -1.58876e-18)
(0.00267365 0.00093691 1.07207e-18)
(-0.00163481 -0.00695405 -1.00865e-18)
(0.000826008 0.000287682 -2.5208e-19)
(-0.0509641 -0.0466753 -1.15931e-18)
(0.00109232 0.00202803 3.34835e-20)
(-0.000429049 -0.00460855 -4.77456e-18)
(0.000288192 0.000608452 -1.79535e-21)
(0.00010176 -3.91237e-05 -2.59983e-20)
(0.000725897 -0.00024552 -1.44858e-18)
(9.73654e-05 -3.89776e-05 4.88818e-19)
(-0.0192598 -0.0298426 -7.88977e-18)
(-0.205178 -0.0277252 -1.68896e-19)
(0.00028106 0.0430373 -1.22137e-18)
(-0.00290762 -0.00423722 6.48883e-19)
(-5.28503e-05 5.96268e-05 -1.03533e-19)
(0.000208245 0.000634562 3.00126e-20)
(-0.00121382 -0.000530354 6.06474e-19)
(-0.00104272 -0.00336682 2.01399e-18)
(0.00199937 -0.00032295 8.0074e-21)
(-0.000268827 -0.000221357 -1.77623e-19)
(0.000338279 -7.88785e-05 5.9292e-19)
(0.0182525 -0.00218838 6.11452e-19)
(0.000180461 -0.000139082 -1.32307e-20)
(0.0021364 2.26922e-05 -3.73907e-19)
(0.151936 0.102386 -3.48015e-18)
(0.0990256 0.041621 1.30143e-19)
(0.0597427 -0.00913893 -1.79418e-18)
(0.000554957 6.87888e-05 1.71562e-19)
(0.000154611 2.2317e-06 -9.09392e-19)
(0.00340414 0.0126109 -6.64153e-19)
(0.000698888 0.000314247 -1.66659e-19)
(-0.0325571 -0.0592676 -8.61075e-20)
(-0.00947533 -0.134301 -2.52586e-18)
(-0.00141781 0.00484586 1.6354e-18)
(0.00203012 0.00423112 7.49758e-20)
(0.00334643 -0.00669002 -1.90091e-18)
(0.00146013 2.43162e-05 1.06106e-19)
(0.00308149 -0.000493552 6.64806e-19)
(0.0126144 0.0747051 -9.47866e-19)
(0.0115699 0.00502843 -9.06461e-20)
(-5.37767e-05 0.00148536 -1.24831e-18)
(-0.0287958 -0.139757 8.17609e-19)
(0.000289941 1.70931e-05 7.31652e-19)
(0.0900986 0.0472646 4.74603e-19)
(-0.319524 -0.387412 7.42912e-18)
(0.000394954 -0.00288267 -2.30253e-18)
(-0.000701974 0.000345321 -2.65177e-19)
(0.00652197 0.0806 1.09627e-18)
(0.00026957 -2.70042e-05 1.50557e-20)
(0.00133261 -0.0315438 9.87454e-19)
(-0.00888076 0.029198 -4.33962e-19)
(0.0474331 0.0208007 5.06531e-19)
(0.000876964 0.0021475 7.70592e-20)
(0.000690607 -0.000235381 6.84439e-20)
(0.000439231 -0.000173632 1.12932e-18)
(0.0474816 0.039086 1.20135e-19)
(0.0538639 0.00629523 -1.02997e-18)
(0.0416616 0.0233731 5.45731e-20)
(-0.0252332 0.0767139 -6.11602e-19)
(0.000342071 -0.00329865 2.91716e-19)
(0.000431432 -0.000171676 -7.20523e-19)
(0.0032795 0.00308026 -1.45576e-19)
(0.000384586 -8.61945e-05 -3.72023e-20)
(0.000712895 0.00439273 2.25962e-19)
(0.0386077 0.106642 -3.98486e-19)
(-0.0721516 -0.0707213 -1.27306e-17)
(-0.216493 -0.0282287 -2.43246e-18)
(-0.138454 -0.023449 -3.13298e-20)
(-0.00287242 0.0107907 1.01087e-18)
(-0.00560801 0.0257214 -1.13682e-18)
(-0.0129303 0.0109515 -1.63658e-18)
(0.000210546 1.41698e-05 2.98414e-19)
(0.000260077 0.000123816 -2.83699e-19)
(-0.00374874 0.0122416 4.60778e-19)
(0.00553132 0.000105549 -2.28826e-19)
(0.000535497 -0.000113683 -3.86999e-19)
(0.000389805 -8.66221e-05 -1.0011e-19)
(-0.0506248 0.0243071 2.76139e-20)
(0.000146463 9.0575e-05 6.22054e-19)
(-0.135909 -0.0325784 -1.36627e-19)
(0.000242973 0.00702317 -1.30474e-18)
(-0.0101529 -0.0341245 6.26831e-18)
(-0.0467428 -0.011797 7.26739e-19)
(0.000263311 0.000135259 -1.90559e-19)
(0.00231583 0.0035249 -2.63307e-20)
(0.0927468 0.0341713 1.54709e-19)
(0.000336769 -8.91768e-05 6.86294e-20)
(-0.249347 -0.0473414 1.40791e-18)
(0.000339632 1.26751e-05 -3.29967e-19)
(0.00615897 0.0925791 -2.43123e-18)
(0.0112544 0.00573064 -3.67044e-20)
(0.000445834 -1.13159e-05 -6.68687e-20)
(-0.0139121 0.00962712 1.45656e-18)
(0.0262255 -0.0348362 1.11444e-17)
(0.031317 -0.0251684 1.25304e-19)
(0.000177444 -7.36678e-07 -1.49485e-19)
(7.31293e-05 0.000152858 2.04732e-19)
(0.00170924 -0.0101026 -4.3679e-18)
(0.000273543 -0.00298495 4.96112e-18)
(-0.008772 -0.0362407 -5.36417e-18)
(0.000362127 -4.49047e-05 1.7418e-19)
(-0.0239944 -0.0235425 -7.18346e-18)
(0.000141425 7.58341e-05 -1.19669e-19)
(0.00146721 -0.128258 9.87832e-19)
(6.21568e-05 -4.39486e-06 2.50284e-21)
(0.000143397 0.000125599 -3.32441e-19)
(-0.0615879 -0.0764927 8.68257e-21)
(-0.00318859 -0.0057284 -4.75391e-19)
(0.0118254 -0.0149323 3.30907e-19)
(2.73693e-05 2.08051e-07 -7.69706e-20)
(0.00161554 0.00498453 -1.62218e-19)
(0.00357051 0.00119563 -9.94871e-20)
(-0.0363925 -0.0803586 -3.21341e-20)
(-0.253805 -0.229918 2.88309e-18)
(0.00293737 -0.00192148 -1.80951e-18)
(-0.00824645 0.00369738 -3.55457e-19)
(5.75468e-05 -3.79521e-06 1.88569e-19)
(-0.00223254 0.00900628 1.49015e-18)
(0.000325566 0.000416935 -8.77929e-20)
(0.00275756 -0.00180444 3.0584e-19)
(-0.070645 0.131596 -2.6761e-19)
(0.000179068 -0.000101838 -6.45603e-19)
(-0.0158011 -0.0318248 1.96593e-20)
(0.00010895 0.000307115 2.42245e-19)
(5.02761e-05 -4.309e-06 4.30986e-19)
(0.00372385 -0.00069664 -3.27481e-18)
(-0.0275349 -0.0609539 2.42415e-20)
(-0.000261283 0.00242073 7.44757e-19)
(0.0366082 0.0249822 -3.23597e-18)
(0.00232946 -0.000728943 -5.32917e-19)
(-0.00256196 -0.0083888 -1.11894e-18)
(-0.081453 0.0354933 1.08553e-19)
(-1.48402e-05 -0.000160739 3.51238e-20)
(0.000233911 -7.6465e-06 9.41913e-19)
(0.105801 0.0358326 2.01662e-18)
(0.0168598 0.00360432 -2.18457e-19)
(0.16625 0.0972868 7.09758e-18)
(-3.41895e-05 0.0221584 -1.4387e-19)
(-0.000212109 0.000193769 -2.26781e-19)
(0.000391604 -9.66124e-05 1.45619e-19)
(-0.000112605 2.75462e-05 6.87096e-20)
(-0.00248242 -0.00557076 -3.58155e-18)
(-0.000247185 0.000776284 2.24639e-19)
(-0.000805066 -0.00114803 5.61475e-20)
(0.0520223 0.0357454 -5.59465e-19)
(0.118163 0.209499 2.48993e-18)
(0.000149628 0.000100104 -1.9209e-19)
(-0.0831264 -0.177307 1.10349e-17)
(-0.0701368 -0.0835114 -4.51632e-19)
(-0.00520317 0.00142857 3.25698e-18)
(-0.0649189 -0.0898154 -1.68443e-18)
(7.19427e-05 -3.32974e-06 1.14579e-19)
(0.0801615 0.029689 -7.33341e-19)
(0.0448954 0.0343387 6.20675e-19)
(-5.9483e-05 -0.000270662 1.47034e-19)
(-0.0834755 0.036222 4.10456e-19)
(0.000875887 -0.0127286 -1.45665e-18)
(-0.103984 -0.0159692 1.10895e-18)
(-0.0196879 -0.0926775 3.58089e-19)
(0.000454721 -0.000515274 6.182e-19)
(-0.000137769 4.91562e-06 3.5475e-19)
(0.000116789 3.91289e-07 5.09871e-19)
(-0.00137037 -0.027777 3.12938e-21)
(-0.00738959 -0.0112595 1.76372e-18)
(0.000276073 6.80564e-05 7.4269e-19)
(0.000693794 -0.000500484 -1.786e-18)
(0.0524898 0.031964 -8.60999e-19)
(0.000590792 0.000286533 -6.53951e-20)
(0.000562711 -0.0134205 4.30582e-18)
(-0.000252766 9.51978e-05 -9.62816e-19)
(0.0003405 -0.0112698 2.13146e-19)
(-0.318087 -0.238582 -8.09561e-19)
(0.0395824 0.0374241 3.16065e-20)
(-0.00198267 0.013317 5.50133e-19)
(0.0321087 0.0327632 1.21413e-20)
(0.0181176 0.0056877 8.91259e-20)
(-0.01468 0.064246 7.85022e-18)
(0.00240175 0.00397669 2.09066e-20)
(0.000169078 0.000132792 7.74424e-19)
(4.76978e-05 0.00724787 6.91465e-19)
(-0.0110355 -0.0864141 -1.11095e-19)
(-0.00734948 -0.00342734 -2.72646e-19)
(-0.00763386 -0.00856602 3.21789e-18)
(0.000238103 0.00010072 -5.74375e-20)
(0.0718603 0.0251049 5.00405e-19)
(0.00047206 -1.41196e-05 3.74793e-20)
(-0.000272244 0.000289912 9.10495e-19)
(0.0167877 -0.188564 -5.85865e-18)
(0.000111673 -9.40771e-07 8.16256e-19)
(0.000631383 0.00778173 1.97828e-19)
(0.0091997 -0.0136038 -3.85141e-19)
(0.0341719 0.023107 2.44975e-18)
(0.000334398 -5.79749e-05 -6.12862e-20)
(0.000412059 -6.43574e-05 4.72186e-20)
(0.00371076 -0.000253413 7.16936e-19)
(0.00162685 0.00556914 -1.15002e-19)
(-3.80511e-05 1.98828e-05 1.66336e-19)
(-0.00175669 0.000920938 -4.07749e-19)
(-0.0173786 0.00848015 -4.29354e-19)
(0.0695055 -0.0146247 3.7926e-19)
(0.00253809 0.000597819 8.99436e-19)
(0.000198779 5.72491e-06 5.389e-19)
(0.0206 0.00193546 1.68477e-19)
(-0.0740472 0.0565335 7.9821e-20)
(0.000291891 5.79014e-05 -9.69621e-19)
(0.0248105 0.0320746 1.00638e-19)
(-0.0947898 -0.0229933 -1.11579e-18)
(0.000432975 -0.000170743 -2.42795e-18)
(0.100271 0.0583367 1.17326e-20)
(-8.76795e-05 3.85327e-05 -2.403e-19)
(-0.0229578 -0.115735 -1.03417e-17)
(0.000384137 -0.000138725 -2.68767e-19)
(-0.000877044 -0.00162049 -3.6508e-20)
(-0.0635015 -0.0693541 2.75824e-18)
(0.000599646 0.00252893 4.22396e-20)
(-0.0315705 0.0334613 1.01324e-18)
(0.00237903 0.000525392 -4.1464e-19)
(0.000407791 -6.41863e-05 7.446e-20)
(0.0994131 0.0597142 -1.13912e-18)
(0.000372653 -0.000132479 8.5427e-20)
(0.00013147 -3.65948e-05 1.48841e-19)
(0.000471654 5.32968e-06 -1.76155e-19)
(0.000161362 0.000132879 4.66242e-20)
(0.000412712 0.00865128 2.14893e-19)
(0.0162938 0.00116832 3.48459e-19)
(0.0865357 0.0553719 -1.89022e-18)
(0.000161628 -8.45599e-07 5.44449e-19)
(-0.238149 -0.0337759 1.31508e-18)
(-0.00222998 -0.00254637 -2.18412e-19)
(0.0228178 0.0355724 -1.68652e-19)
(-0.0124203 -0.314196 -2.21878e-17)
(-0.000828892 0.000529073 -3.99407e-19)
(0.000391374 -5.81306e-05 -4.16034e-19)
(0.00205766 0.00474179 1.11462e-19)
(-0.000510767 -0.000302145 1.22021e-19)
(-0.03052 -0.0370986 4.5531e-18)
(0.000320741 0.00015888 -9.81071e-20)
(0.000130558 9.25142e-06 5.43597e-19)
(0.000139879 0.000164314 6.65645e-19)
(0.00025554 8.60491e-05 -2.77224e-19)
(0.000334964 -9.20642e-05 2.56668e-19)
(-0.0704577 -0.106223 -3.32584e-19)
(-0.00371971 -0.00439161 -1.24588e-18)
(0.00266588 -0.0177244 -5.25311e-19)
(0.00292258 0.000994802 -4.80461e-19)
(-0.000214909 0.00546626 6.27565e-19)
(-0.00379035 -0.00199019 1.883e-18)
(0.000714302 -0.00531947 8.29117e-20)
(0.00757659 0.0220074 1.76445e-19)
(0.000171471 -0.000134342 1.17433e-18)
(-0.0198426 -0.0275354 1.34499e-18)
(0.022889 0.00349565 4.32289e-19)
(2.85809e-05 0.000126655 1.47119e-19)
(-0.0606722 -0.138774 8.75538e-18)
(-0.318846 -0.262511 -8.1357e-18)
(4.19428e-05 -5.38634e-06 7.04967e-19)
(0.00635905 0.0324666 2.70321e-19)
(5.91872e-05 -1.44767e-06 -1.63971e-19)
(-0.0083954 -0.0557792 5.04472e-19)
(-0.00218257 -0.00848688 3.64518e-18)
(-2.4616e-05 -0.000244787 -1.76249e-19)
(0.00108983 -0.0103604 4.38752e-18)
(0.000269558 0.00659234 -4.0106e-20)
(0.0164407 0.0335909 3.87497e-19)
(4.39533e-05 -3.04564e-06 -6.253e-19)
(0.000465332 -0.00229934 2.43182e-18)
(0.0380978 0.0551871 -2.30338e-18)
(0.0291293 0.0395269 3.00163e-19)
(-0.0444722 -0.0127349 -5.97534e-22)
(0.000338913 -0.000100484 -2.57191e-19)
(0.0368386 -0.0123409 -3.78333e-20)
(-0.0210431 -0.0145837 5.11322e-18)
(0.0759577 0.0319642 -2.46977e-19)
(0.000357726 -5.09002e-05 7.43572e-20)
(0.00178767 -0.000978184 2.09711e-19)
(0.000465489 -0.000411995 -3.229e-19)
(0.000265724 0.000219971 1.02523e-20)
(0.000204977 -8.51004e-06 1.4474e-18)
(5.24848e-05 -5.66648e-06 3.26643e-20)
(0.00018931 -0.00010517 -2.23419e-19)
(0.0121562 0.0356662 -1.0443e-19)
(0.00583562 -0.00517081 -1.62439e-19)
(0.000188865 1.30036e-05 4.11246e-19)
(0.000125438 6.94471e-05 -3.61435e-20)
(1.63748e-05 4.21897e-06 3.64584e-19)
(2.30577e-05 0.000549457 -1.11617e-19)
(0.0268541 0.0379478 3.28834e-19)
(-0.0198035 -0.0153687 -3.16965e-18)
(7.87133e-05 1.80348e-05 3.94737e-19)
(0.00108069 0.00580987 6.46202e-19)
(1.19709e-05 0.000177238 1.25103e-19)
(-4.01848e-07 0.000109863 3.71922e-19)
(0.000600242 -0.00117477 -4.81783e-19)
(0.000186881 9.97941e-05 2.64257e-19)
(-0.0150937 -0.0156097 -3.78975e-19)
(0.00011761 9.4771e-05 1.51391e-19)
(0.000171067 0.000125866 -5.26918e-19)
(0.000166934 -4.98611e-06 5.50379e-20)
(0.000528308 7.16206e-05 5.63551e-19)
(0.003665 -0.000384708 -6.53817e-19)
(-0.00185298 -0.000961387 -5.66622e-19)
(-0.0971067 -0.0241042 7.3192e-19)
(0.00652889 0.102992 1.39071e-18)
(0.00320115 -0.00183523 8.46111e-19)
(0.000158402 0.000117758 -6.41006e-19)
(-0.0519527 -0.0132778 -5.65135e-18)
(0.000130261 2.20071e-05 5.93832e-20)
(0.000121991 8.02194e-05 -2.27419e-19)
(-0.00165899 -0.00139102 -1.04907e-19)
(-0.040588 -0.0170623 -1.29186e-19)
(-0.00385682 -0.00310747 3.61198e-19)
(-0.00122163 -0.00134846 4.15897e-19)
(0.000131843 0.000124769 1.68163e-19)