/*--------------------------------*- C++ -*----------------------------------*\
| =========                 |                                                 |
| \\      /  F ield         | OpenFOAM: The Open Source CFD Toolbox           |
|  \\    /   O peration     | Version:  v2012                                 |
|   \\  /    A nd           | Website:  www.openfoam.com                      |
|    \\/     M anipulation  |                                                 |
\*---------------------------------------------------------------------------*/
FoamFile
{
    version     2.0;
    format      ascii;
    class       surfaceVectorField;
    location    "600";
    object      ddtCorrDdt0(Uf);
}
// * * * * * * * * * * * * * * * * * * * * * * * * * * * * * * * * * * * * * //

dimensions      [0 1 -2 0 0 0 0];


internalField   nonuniform List<vector> 
27284
(
(0.0867787 0.0319016 2.05405e-19)
(0.082339 0.0314863 -3.74813e-19)
(0.0840298 0.0351537 1.49469e-19)
(0.000105369 -0.000118374 2.13054e-19)
(0.000107232 -0.000122413 -1.83678e-19)
(0.000110027 -0.000115012 4.21588e-19)
(-0.0347189 -0.108592 3.69639e-19)
(-0.0273495 -0.112285 -6.66514e-18)
(-0.0288866 -0.102836 -1.91478e-18)
(7.99321e-05 -1.25594e-05 -4.00571e-20)
(8.11411e-05 -1.59743e-05 -9.015e-20)
(7.61006e-05 -1.34926e-05 -8.90473e-20)
(0.00888906 0.0152939 -4.86458e-20)
(0.00715783 0.0179563 -6.10141e-19)
(0.0061286 0.014792 2.13946e-18)
(-0.0549652 0.0171751 7.80655e-20)
(-0.0545341 0.0200844 3.76603e-20)
(-0.0567189 0.0179222 9.29588e-19)
(-0.000946823 -0.000947066 3.08564e-19)
(-0.000747941 -0.000850833 3.05164e-19)
(-0.000774934 -0.0010877 -8.21459e-19)
(0.0118576 0.0157002 -6.13933e-20)
(0.00979853 0.0127781 4.40997e-19)
(6.81969e-05 1.96576e-06 -1.57008e-19)
(6.98709e-05 1.37443e-06 3.91862e-19)
(6.80236e-05 3.51539e-07 -3.73616e-19)
(0.0207433 -0.0585937 5.46246e-22)
(0.0187558 -0.0499185 2.41496e-19)
(0.0289601 -0.0489906 -3.55289e-19)
(-0.00732619 0.00144193 6.69731e-19)
(-0.00652504 0.0018664 1.81642e-18)
(-0.00652783 0.000967926 -7.3937e-19)
(-0.0413299 -0.00952094 -3.29417e-18)
(-0.0393484 -0.00873681 2.47519e-18)
(-0.0394927 -0.0110154 -3.50455e-18)
(-0.0434162 -0.010798 -1.66059e-18)
(-0.0432446 -0.00818173 3.70048e-18)
(0.0773015 0.0498853 9.72591e-19)
(0.0771466 0.0483979 9.671e-19)
(0.0712052 0.0506249 -3.43559e-19)
(7.35064e-05 -5.33563e-06 -1.49741e-20)
(7.63356e-05 -8.31344e-06 -3.10021e-19)
(7.77347e-05 -4.09227e-06 4.43739e-20)
(8.52663e-05 -3.87926e-05 -2.89471e-19)
(8.33329e-05 -4.23727e-05 -5.94237e-20)
(8.37429e-05 -4.68905e-05 1.31414e-19)
(7.99323e-05 -1.05231e-05 -8.37974e-19)
(8.24822e-05 -1.34392e-05 -3.32735e-20)
(-0.00297172 -0.00332348 -1.35075e-19)
(-0.00283856 -0.00390188 -1.36529e-21)
(-0.00236185 -0.00350281 -7.24083e-19)
(0.053899 -0.0709557 -4.32257e-18)
(0.0585579 -0.0666227 -3.89531e-18)
(0.0528438 -0.06428 -5.37681e-18)
(0.00251802 0.00144203 -7.55369e-20)
(0.00274991 0.00107976 -4.73409e-19)
(0.00230587 0.00103371 -1.06634e-19)
(0.0665266 0.102205 -4.10598e-18)
(0.0484573 0.107914 3.79596e-18)
(0.0619571 0.102799 1.20288e-18)
(0.000703959 0.000308394 -7.00148e-20)
(0.000637875 0.000322478 4.02776e-20)
(0.000679346 0.00039981 2.13459e-19)
(5.32276e-05 -2.73636e-05 6.19518e-19)
(5.66026e-05 -3.5879e-05 3.72159e-19)
(5.65923e-05 -3.68574e-05 -1.66061e-19)
(-0.0572437 0.0147319 1.08398e-18)
(-0.053305 0.0146934 1.18223e-18)
(5.17545e-05 -1.68195e-05 3.51608e-21)
(5.22814e-05 -2.10685e-05 -6.74426e-20)
(-0.00215592 -1.22471e-05 1.43461e-19)
(-0.00187145 -3.89283e-05 1.21986e-19)
(-0.00204026 -0.000286465 6.65046e-19)
(-0.00113875 -0.000787973 2.93295e-19)
(-0.00132588 -0.000614554 -1.3126e-19)
(-0.00108107 -0.000544875 -6.94222e-19)
(7.57911e-05 -2.95354e-05 -2.16605e-19)
(7.5189e-05 -2.69825e-05 -2.7583e-19)
(7.45674e-05 -2.99252e-05 1.1952e-19)
(6.83582e-05 1.44218e-06 2.01444e-19)
(6.75673e-05 2.70272e-06 -1.11487e-19)
(-0.00857605 0.000306505 1.91873e-19)
(-0.00795739 0.000851614 -1.02696e-19)
(-0.00770409 -5.8937e-05 1.35001e-18)
(-0.0593685 0.0408667 -2.60576e-18)
(-0.0592845 0.0423248 -1.51134e-18)
(-0.0693847 0.0433466 -1.95192e-18)
(-0.00787552 0.0287928 -4.73986e-19)
(-0.00607417 0.0270393 -8.13461e-19)
(-0.0052094 0.0295377 -5.88519e-19)
(6.75563e-05 4.1815e-05 1.11349e-19)
(8.75588e-05 6.11412e-05 2.86564e-19)
(6.23519e-05 6.85123e-05 -1.56512e-19)
(8.78996e-05 4.91426e-05 -4.40675e-20)
(8.61004e-05 6.19244e-05 1.48501e-19)
(8.81765e-05 4.78157e-05 3.30605e-19)
(5.36436e-05 -5.28995e-06 -5.67049e-21)
(5.14549e-05 -5.25706e-06 2.34382e-20)
(5.85931e-05 -2.80853e-06 2.61526e-20)
(-7.16489e-06 0.00194255 1.98296e-19)
(5.66278e-05 0.00172806 8.38456e-19)
(0.000195888 0.00188562 -2.41754e-19)
(0.00380487 -0.00435867 1.38589e-18)
(0.00351028 -0.00450434 -6.8687e-19)
(0.00354811 -0.00414793 -3.14145e-19)
(-0.000220483 0.00201823 1.05067e-19)
(-4.73762e-05 0.00223979 -4.61213e-19)
(-0.00918966 -0.000424456 -7.07051e-19)
(-0.00937521 0.000769422 -1.4815e-18)
(-0.000493371 0.000171386 -4.24593e-19)
(-0.000586039 0.000154766 6.64488e-19)
(-0.00050946 9.83981e-05 -3.62528e-19)
(9.42199e-05 -8.02223e-06 -1.27237e-19)
(9.83648e-05 -8.90046e-06 4.72481e-20)
(0.00010627 -4.56934e-06 2.95467e-20)
(-0.0079955 0.00196077 3.78621e-21)
(8.91326e-05 3.46874e-05 1.93762e-19)
(8.98677e-05 1.93334e-05 -1.41799e-19)
(9.02402e-05 2.0576e-05 -2.15323e-19)
(0.000105581 -0.000112444 3.33754e-19)
(0.000105223 -0.000106825 1.67057e-19)
(0.000110005 -0.000104262 3.67543e-19)
(9.98321e-05 -0.000116368 1.49343e-19)
(-0.0751142 0.0135164 3.68959e-19)
(-0.0711082 0.0120186 -1.51044e-18)
(-0.0722907 0.0159875 -6.17753e-20)
(6.09081e-05 3.14688e-05 1.79138e-19)
(6.22297e-05 2.12128e-05 1.99222e-19)
(5.73801e-05 3.35013e-05 3.71697e-19)
(5.93355e-05 4.22507e-05 1.50059e-19)
(6.32871e-05 2.97479e-05 -1.45327e-19)
(-0.0637305 0.0281328 4.85292e-18)
(0.000205427 0.000343048 4.31488e-19)
(9.15758e-05 0.000330573 6.82711e-19)
(0.000174172 0.00024047 -3.05137e-19)
(5.38277e-05 1.71454e-05 -1.67205e-19)
(5.51664e-05 1.25023e-05 -2.56553e-19)
(4.88569e-05 1.3129e-05 1.44402e-19)
(0.17719 0.047114 2.01626e-18)
(0.179952 0.0287948 1.604e-18)
(0.182312 0.0130856 -5.31612e-19)
(0.000229132 0.00046442 -1.40386e-20)
(0.00032915 0.0003346 -1.24018e-19)
(0.0652878 -0.0120448 -1.13242e-18)
(0.0675792 -0.014014 -1.09296e-18)
(0.0632505 -0.0155343 -5.99791e-19)
(0.000194066 -4.58117e-05 -3.79356e-20)
(0.000188992 -5.82e-05 1.41853e-19)
(0.000188178 -3.93553e-05 -9.10479e-21)
(0.00223287 0.0018089 8.04639e-20)
(0.00278418 0.00190872 -1.37281e-19)
(2.01739e-05 3.41309e-06 4.96292e-19)
(2.78848e-05 1.82531e-06 7.75698e-20)
(2.55676e-05 1.48784e-06 2.24421e-19)
(-0.00660936 0.0453538 -7.42873e-18)
(-0.00243208 4.06209e-05 -1.97683e-19)
(-0.00218835 0.000248254 -6.26315e-19)
(-0.00216505 0.0333299 -2.05708e-18)
(-0.00654102 0.0375671 3.17849e-18)
(0.00278296 0.0416209 -6.48204e-19)
(8.79681e-05 4.84432e-05 -2.90101e-19)
(-0.0223542 -0.025599 3.29626e-18)
(-0.0233724 -0.0238626 6.92972e-19)
(-0.021154 -0.0236375 2.6371e-18)
(0.0619973 -0.00936809 -1.01439e-18)
(0.0660342 -0.00747753 -6.90847e-19)
(0.00168808 -0.000908925 1.77318e-19)
(0.00138121 -0.000890922 8.17795e-19)
(0.00148876 -0.000649646 -5.95379e-19)
(0.00529879 0.0369726 -1.40461e-18)
(0.00835035 0.0379248 -9.27097e-19)
(0.00663108 0.0342341 8.59456e-19)
(2.94181e-05 1.49071e-05 -1.87152e-19)
(3.00704e-05 2.02776e-05 9.32249e-20)
(2.41275e-05 1.65739e-05 -3.32307e-19)
(0.00265218 0.00168171 -7.67887e-21)
(0.00268505 0.00144332 -8.60878e-19)
(0.00290263 0.00165678 -4.29103e-20)
(0.0040535 -0.00427026 -3.01827e-18)
(0.00402335 -0.00463331 -4.99142e-19)
(6.40653e-05 0.000135352 2.43257e-19)
(5.87804e-05 0.000137142 -5.47436e-19)
(6.18707e-05 0.000130101 -5.32592e-19)
(0.00589983 -0.117756 1.00785e-18)
(-0.00624909 -0.140355 -9.97638e-19)
(0.0146842 -0.126069 3.39688e-18)
(-0.000139444 -5.46041e-06 4.37844e-20)
(-0.000174003 1.39511e-05 -4.16307e-19)
(-0.000128354 3.86136e-06 -6.8617e-19)
(0.000195276 -3.83202e-05 4.06771e-20)
(0.000194907 -5.3802e-05 -4.13637e-21)
(-0.00473797 0.0207571 -1.88809e-19)
(-0.00658573 0.021904 1.09109e-18)
(-0.00644418 0.0196661 7.9633e-19)
(-0.00167549 -0.0064724 5.03741e-19)
(-0.00213777 -0.00578409 -7.80972e-19)
(-0.00127412 -0.00575575 9.54829e-20)
(-0.0228502 0.0313331 -1.64924e-18)
(-0.0206679 0.0376794 -2.34348e-18)
(-0.0178221 0.0320902 -6.01883e-18)
(7.45516e-05 0.000122388 8.62598e-20)
(6.93964e-05 0.000129964 7.95732e-19)
(7.24478e-05 0.000118408 -2.79196e-19)
(-0.0138661 0.0545015 5.19977e-18)
(-0.0175906 0.0304843 -1.45626e-18)
(7.84275e-05 0.000112328 -1.66069e-20)
(7.58317e-05 0.000126015 -2.56452e-19)
(-0.000111483 -1.81113e-05 3.07602e-19)
(-0.00014296 -1.66374e-05 5.73689e-19)
(-0.028004 0.0299957 6.51626e-19)
(-0.0240994 0.02508 -6.17503e-19)
(0.00265526 0.00196417 3.00993e-19)
(0.00242867 0.00175412 6.05765e-19)
(-0.0360198 0.00833098 2.51426e-18)
(-0.0402087 0.0116705 -4.04349e-19)
(-0.0340926 0.0142403 4.38868e-19)
(6.60106e-05 0.000139958 5.58998e-19)
(0.00275446 0.00332564 1.31029e-20)
(0.00309808 0.00322661 -7.41417e-20)
(0.00302133 0.00358246 -2.74836e-20)
(0.0228896 0.0101945 -4.98612e-20)
(0.0243838 0.00943315 -2.56405e-19)
(0.0238063 0.0113048 9.36655e-20)
(7.60078e-05 5.62608e-06 -3.1132e-19)
(7.78432e-05 4.9564e-06 -7.76504e-20)
(6.25273e-05 2.15115e-06 -1.71964e-19)
(7.15398e-05 6.29718e-06 9.38585e-19)
(8.10161e-05 4.16213e-06 1.1762e-19)
(7.76433e-05 1.97734e-06 -7.30772e-20)
(0.0178499 0.002006 -3.45882e-19)
(0.0169696 0.00122388 -3.67715e-19)
(0.0180909 0.000823657 -4.42542e-19)
(-9.07816e-06 6.67465e-05 1.7067e-20)
(-7.63359e-06 4.89455e-05 -9.84937e-21)
(-7.37025e-06 6.64533e-05 2.95842e-19)
(0.0173848 0.00315776 -3.30354e-20)
(0.018687 0.00285343 -4.13798e-20)
(0.0798716 0.0754297 -3.06619e-18)
(0.0855467 0.027018 -3.53209e-18)
(0.0220474 0.108253 -1.18284e-18)
(0.0127619 0.103807 -7.2489e-19)
(0.022175 0.0993197 -4.39599e-19)
(-0.0377298 0.00155763 -8.20239e-19)
(-0.0334 0.00456519 4.96592e-19)
(5.16585e-06 0.000320626 -6.36406e-20)
(-7.22797e-06 0.00041645 -2.43467e-20)
(0.0977853 -0.00342093 -1.44267e-20)
(0.0961353 -0.0275863 4.60471e-18)
(0.0958759 0.0121167 -1.52758e-18)
(0.00204618 0.000651498 -1.7124e-19)
(0.00222267 0.000949657 4.5351e-19)
(0.00244184 0.000614657 6.14275e-19)
(1.08693e-05 0.000112359 -2.20506e-19)
(1.54442e-05 0.000114252 7.78356e-20)
(1.22246e-05 0.000105751 4.41644e-19)
(0.00185333 0.000427259 2.14529e-20)
(0.00167545 0.000666314 -2.33223e-19)
(0.0225868 -0.0322861 -1.48669e-18)
(0.0252104 -0.0334472 5.10501e-18)
(0.0242233 -0.0300988 -2.38498e-18)
(0.000419377 0.000398237 -1.14589e-19)
(0.000472937 0.000386805 1.64276e-19)
(0.000438707 0.000451683 1.88048e-19)
(0.0212679 0.0104692 -2.20287e-19)
(0.0219198 0.00871395 4.69401e-20)
(-8.24312e-05 -2.89759e-05 2.26222e-20)
(-7.89741e-05 -2.86423e-05 -1.66934e-19)
(-8.38114e-05 0.000290241 -8.97619e-20)
(1.05765e-05 0.000228341 -9.33648e-19)
(3.96452e-05 -2.79741e-05 6.95147e-21)
(3.85437e-05 -3.2508e-05 -4.30637e-20)
(3.60349e-05 -3.45785e-05 1.10669e-20)
(0.00264952 0.00219542 -2.24461e-19)
(0.00261535 0.00246597 2.12664e-20)
(0.00239712 0.00226898 -1.08547e-19)
(8.72592e-05 -3.27598e-05 2.18673e-20)
(8.75589e-05 -2.59665e-05 -4.45852e-19)
(0.00355782 0.0399514 -2.13535e-18)
(0.0022796 0.0361163 -1.72139e-18)
(0.100074 0.0244045 6.64106e-19)
(0.093258 -0.0218554 -1.45587e-18)
(0.0105431 -0.00299295 3.51392e-20)
(0.0112223 -0.00287545 -8.21093e-19)
(0.0108666 -0.00363381 5.67597e-19)
(8.37712e-05 -5.30282e-05 -8.88073e-20)
(8.31761e-05 -4.77027e-05 -2.25029e-19)
(8.36385e-05 -4.83532e-05 8.77644e-20)
(1.57857e-05 5.73485e-06 3.37318e-20)
(1.26653e-05 5.21316e-06 -7.80462e-20)
(1.91584e-05 3.50798e-06 2.86532e-20)
(2.00044e-05 1.4722e-06 -1.78292e-19)
(2.13652e-05 4.16264e-06 1.50608e-19)
(-0.0105221 0.0104984 -1.44582e-19)
(-0.01038 0.0120145 -6.12811e-19)
(-0.00921763 0.0106081 4.68907e-19)
(0.00241654 0.00338842 7.61905e-21)
(0.00250318 0.00306554 -6.8689e-22)
(-0.0954698 -0.0219609 -4.63238e-19)
(-0.0967938 -0.0226756 8.0856e-19)
(-0.0936866 -0.0165444 -1.47625e-18)
(-0.00212204 0.0086212 3.62084e-19)
(-0.00149065 0.00817542 -4.41558e-19)
(-0.00217731 0.00787981 -1.86666e-19)
(-6.14117e-05 -3.46984e-05 2.17379e-19)
(-8.42282e-05 -2.96524e-05 3.14534e-19)
(-0.0340979 0.0276234 1.10532e-19)
(-0.033314 0.0351964 -2.674e-18)
(0.0010957 0.00172678 4.78942e-20)
(0.00100969 0.00190255 5.47895e-20)
(0.000907269 0.00173277 1.70276e-21)
(0.002597 0.0012706 -3.7444e-19)
(0.00283368 0.00123316 3.54932e-19)
(0.0210253 -0.0912098 -3.54926e-18)
(-0.00211794 -0.105247 -8.06958e-19)
(-0.0412817 -0.103847 8.39499e-19)
(-0.0385574 -0.113449 5.57824e-18)
(0.0838486 0.13609 2.81258e-18)
(0.0214375 0.00198059 -8.38798e-20)
(0.0225933 0.00278134 1.78771e-19)
(0.0228991 0.00107108 -1.82119e-19)
(-0.0391549 0.0232142 -1.19825e-18)
(-0.0331553 0.0206492 1.68397e-18)
(-0.0819546 0.00924073 -9.44094e-19)
(-0.0831163 0.0121623 -1.99196e-18)
(-0.0846627 0.00757611 5.00854e-19)
(-0.00118769 -0.00107921 1.99106e-19)
(8.14051e-05 -9.08327e-06 -7.31953e-20)
(7.99318e-05 -8.52092e-06 -7.56766e-19)
(0.0909133 0.0324823 1.9664e-19)
(0.0896887 0.0283486 -1.83914e-19)
(0.00044597 8.72995e-05 -7.82682e-20)
(0.000466429 0.000110898 -1.79901e-19)
(0.000429118 0.000127949 -1.90281e-19)
(6.80326e-06 0.000107942 -8.24773e-19)
(8.93311e-06 0.000118007 -2.48672e-19)
(0.167917 0.0769088 1.46535e-19)
(0.16562 0.0889796 -9.45186e-19)
(0.00014345 0.000198614 -2.68365e-21)
(0.000144142 0.000195072 3.02764e-21)
(0.000149166 0.000190625 -2.31194e-20)
(0.00254761 -0.0367978 -3.53395e-18)
(0.000639683 -0.0381369 -1.12086e-18)
(0.0032733 -0.0387485 7.008e-19)
(0.0424107 0.027427 -4.23387e-19)
(0.0414551 0.0252027 1.52068e-22)
(0.0444695 0.0255591 2.79796e-19)
(-3.71716e-07 -4.31793e-06 -1.45903e-19)
(-3.15634e-06 1.27491e-05 2.26201e-19)
(1.18385e-06 -6.84615e-06 2.94422e-19)
(0.0546416 -0.0766829 3.52993e-18)
(0.0474015 -0.0737372 1.13991e-18)
(0.0707619 -0.0450025 2.9157e-18)
(0.0567764 -0.0728228 -3.19228e-18)
(0.0690049 -0.0689472 5.88264e-19)
(0.000105166 3.02596e-05 4.66274e-20)
(0.000112293 3.10626e-05 1.45973e-19)
(0.000107027 3.85084e-05 -2.30401e-20)
(0.0334244 0.10727 1.19295e-18)
(0.0319874 0.107747 -1.16313e-18)
(0.00407136 -0.00178517 -2.76316e-18)
(0.00385412 -0.00183182 1.66759e-19)
(0.00407569 -0.002019 -2.52515e-19)
(-0.0176662 0.0083821 -5.06514e-20)
(-0.0179075 0.00541421 1.25888e-19)
(-0.0207014 0.0074277 7.57191e-19)
(3.20258e-05 0.000108775 1.86507e-19)
(3.58636e-05 0.000105175 -1.28265e-19)
(2.83083e-05 0.00011757 -1.74527e-19)
(0.156353 -0.0173813 1.18799e-18)
(0.171391 -0.0249173 -1.95273e-18)
(0.0402385 0.0295952 -1.35367e-18)
(0.0436189 0.0300499 -8.99056e-19)
(0.00011269 -1.52155e-05 3.27489e-20)
(0.000108633 -1.83743e-05 3.75784e-20)
(0.000113834 -1.82876e-05 2.29625e-20)
(-0.0279238 0.0414611 -6.3194e-19)
(-0.0378242 0.0422752 2.12805e-19)
(-0.0359638 0.0334172 2.72864e-19)
(-1.53977e-06 -0.000159768 6.95283e-21)
(-8.30159e-06 -0.000157049 6.88545e-21)
(1.12916e-05 -0.000141077 -2.09902e-20)
(-0.0119918 0.0105014 -1.0373e-18)
(-0.0106956 0.0090563 4.03609e-19)
(-0.0310043 -0.0705849 1.06874e-21)
(-0.0319431 -0.0717798 1.16603e-19)
(-0.0371399 -0.0566168 1.94058e-19)
(7.58188e-05 -2.74024e-05 1.59609e-19)
(7.78382e-05 -2.97952e-05 1.95685e-19)
(0.00256648 0.00107775 4.67641e-19)
(0.00240059 0.00126993 1.22788e-19)
(-0.000723613 -0.00116521 1.1595e-19)
(-0.000756799 -0.000941334 5.48391e-19)
(-0.000498142 -0.00100458 -4.35375e-20)
(-0.0076103 -0.00272634 -1.6828e-19)
(-0.00826311 -0.00161524 -2.03611e-20)
(-0.00700058 -0.00148897 7.61849e-21)
(8.88247e-05 1.64882e-05 -5.2274e-19)
(8.92674e-05 4.97464e-06 -9.27873e-19)
(5.34621e-05 -1.24183e-05 7.74804e-19)
(5.52671e-05 -1.64892e-05 1.83005e-19)
(5.10031e-05 -1.30962e-05 3.19939e-19)
(8.59195e-05 -1.07806e-05 5.93619e-19)
(8.68306e-05 -4.71281e-06 2.20271e-19)
(7.37379e-05 5.23507e-06 -6.60803e-19)
(7.89113e-05 7.47452e-06 7.2231e-20)
(3.36411e-05 9.9402e-05 5.73467e-19)
(2.73375e-05 0.000110763 4.66541e-19)
(4.92491e-05 -7.90046e-06 -3.36413e-19)
(5.33468e-05 -1.08252e-05 2.33028e-20)
(-0.00403035 -0.0022066 6.93848e-19)
(-0.00410421 -0.00278766 -8.15666e-20)
(-0.00459549 -0.00240974 8.72331e-20)
(0.000138395 0.000205389 6.44275e-20)
(0.000142724 0.00020163 1.11822e-19)
(8.33209e-05 -5.461e-05 1.11738e-19)
(8.36653e-05 -5.4162e-05 7.29946e-20)
(-0.0125013 0.000518845 6.04626e-19)
(-0.0126071 0.00260927 6.61745e-19)
(-0.0107381 0.00176575 9.58462e-19)
(-0.00395431 -0.00478418 -1.35633e-20)
(-0.00380815 -0.00557359 2.37577e-18)
(-0.00469467 -0.00531267 -4.34374e-20)
(0.00485992 -0.0366325 -5.6524e-19)
(0.00388396 -0.0426333 -4.76166e-19)
(-0.00168451 -0.0384543 7.77706e-19)
(-0.0197365 0.0418514 4.99768e-19)
(-0.0224742 0.0503659 -2.58807e-19)
(0.0874038 0.0425462 -1.75746e-19)
(0.0886118 0.0458861 1.11398e-19)
(0.0849776 0.0452835 -5.74063e-20)
(-0.152591 0.175928 3.79922e-18)
(-0.163545 0.278693 1.92881e-18)
(-0.150251 0.200268 4.82801e-18)
(0.00435703 -0.00172986 -3.38579e-20)
(0.00410156 -0.00154888 -3.7524e-19)
(2.04481e-05 -3.55205e-06 3.81598e-19)
(1.8538e-05 -3.09047e-06 -2.94056e-19)
(2.0868e-05 -1.39808e-06 3.3602e-20)
(0.00163454 -0.034486 -8.57663e-19)
(0.00433789 -0.0350333 4.32859e-18)
(5.28111e-05 1.0265e-06 2.6995e-19)
(5.38327e-05 1.90436e-06 1.035e-19)
(4.57151e-05 5.47634e-07 2.01098e-20)
(-0.065207 -0.00285984 -1.39412e-18)
(-0.0754859 0.0168697 4.41783e-18)
(1.49484e-05 -5.47849e-08 6.76996e-20)
(1.47109e-05 -1.13225e-06 2.94935e-20)
(2.6495e-05 -9.12946e-07 3.58976e-20)
(0.000111282 -1.104e-05 -6.35837e-21)
(0.000117258 -1.02789e-05 -2.46329e-20)
(1.73674e-05 2.40556e-06 -6.22914e-20)
(1.57449e-05 4.99929e-06 -3.29905e-20)
(3.76821e-05 -5.25624e-05 -3.25819e-20)
(4.14376e-05 -4.35169e-05 2.86781e-20)
(3.6799e-05 -5.64269e-05 -4.99056e-20)
(0.00103725 -0.00102225 1.93756e-18)
(0.00102245 -0.00109417 -1.87544e-19)
(0.00110668 -0.00106915 -3.95215e-19)
(0.00490371 0.00763907 -2.62776e-19)
(0.00524632 0.00698558 4.66724e-21)
(0.00560378 0.00791284 2.22721e-19)
(9.26054e-05 2.25625e-06 1.95998e-20)
(9.1534e-05 3.20559e-06 -1.35937e-20)
(7.28647e-05 1.016e-06 -1.52197e-19)
(0.00566716 -0.0307153 8.25242e-20)
(0.00999707 -0.0327215 -2.95852e-19)
(0.000571689 0.000241049 -2.48864e-20)
(0.000522372 0.000259336 -3.37492e-19)
(0.000539317 0.000198791 -2.19553e-19)
(7.64231e-05 -2.80624e-05 -6.79316e-19)
(7.60582e-05 -2.51912e-05 -5.6547e-20)
(7.58769e-05 -2.37143e-05 -3.03568e-19)
(-0.00159824 -0.024921 -3.20132e-20)
(-5.25258e-05 -0.020943 2.71607e-19)
(-0.00430314 -0.0218513 1.06789e-20)
(-0.000151968 0.000252185 5.13243e-19)
(-0.000197815 0.000336446 3.07585e-19)
(6.09635e-05 -5.30445e-06 -7.96668e-20)
(6.34829e-05 -5.08899e-06 8.57964e-19)
(6.47217e-05 -8.67552e-06 -8.15046e-19)
(0.0168525 0.00429148 -1.08451e-19)
(0.0174645 0.00531941 5.17422e-20)
(0.0161611 0.00538588 6.47257e-20)
(0.000107599 -7.29885e-05 1.84568e-20)
(0.000101986 -6.55241e-05 -3.53333e-20)
(0.000106343 -6.93227e-05 8.08717e-20)
(-0.00160879 -0.000711422 -2.4105e-19)
(-0.00150339 -0.000440212 -5.8243e-19)
(-0.0784157 0.0113838 1.00116e-18)
(-0.0783463 0.00744307 1.17551e-18)
(0.0203142 -0.0315868 -7.83317e-19)
(0.0213166 -0.0348219 -4.48616e-19)
(9.92006e-05 -0.000130827 7.34115e-19)
(9.82589e-05 -0.000126903 -2.3674e-19)
(9.3506e-05 -0.000124171 4.16744e-19)
(4.86745e-05 0.000185303 -4.63794e-19)
(6.29179e-05 0.000195959 -4.00769e-19)
(6.13253e-05 0.000198806 -3.23853e-20)
(6.99552e-05 -1.18007e-05 -3.57371e-21)
(6.72677e-05 -1.00693e-05 6.40711e-20)
(6.87881e-05 -9.44098e-06 1.08483e-19)
(-0.101607 -0.0292341 -3.22977e-19)
(-0.101473 -0.0363489 -2.12456e-18)
(-0.106277 -0.0371056 -3.89125e-19)
(5.77092e-05 2.15471e-05 -3.60216e-19)
(5.1017e-05 2.22981e-05 -9.11681e-20)
(0.0971959 0.0420885 1.32465e-19)
(0.0935248 0.0407739 -1.24404e-19)
(0.0946494 0.0446025 -3.92247e-19)
(0.000100795 -0.000124589 -6.81828e-19)
(0.000106178 -0.000128673 -6.08445e-19)
(0.0900283 0.0458633 -2.14919e-20)
(0.0804475 0.0519985 -5.11078e-19)
(-0.000210544 0.000204754 -9.39818e-20)
(-0.000115189 0.00018247 -5.96852e-19)
(0.000807131 -0.00297966 -5.94218e-19)
(0.000426385 -0.00314509 2.0472e-20)
(0.000453369 -0.00273122 9.27937e-20)
(-0.00981597 -0.00120763 -1.09049e-18)
(-0.00880279 -0.00144164 -6.45356e-20)
(9.41932e-05 -1.64983e-06 -8.65476e-20)
(9.63923e-05 -2.01775e-06 2.28302e-19)
(0.0001025 -1.86932e-06 3.07652e-20)
(0.085596 0.0388419 4.1206e-19)
(0.089846 0.0397002 -5.26544e-19)
(0.000425806 -3.54281e-05 -5.62075e-19)
(0.000425529 -5.94931e-05 -4.96049e-19)
(0.000447489 -5.27716e-05 -6.39911e-20)
(-0.138545 0.0873541 -1.76313e-18)
(-0.156975 0.166314 -1.24038e-18)
(7.52115e-05 -3.06534e-05 1.0605e-19)
(7.49205e-05 -3.20301e-05 -2.19234e-20)
(3.61089e-05 7.36328e-06 1.98847e-19)
(4.26742e-05 -8.63087e-06 -2.91798e-19)
(2.30246e-05 -7.30623e-06 -1.50016e-19)
(-0.00111052 -0.000453837 1.4834e-19)
(-0.000996013 -0.000294358 3.7876e-19)
(-0.000862746 -0.000443677 -6.19332e-19)
(7.9369e-05 0.000301597 1.72721e-21)
(9.52873e-05 0.000277185 -5.19317e-20)
(6.47437e-05 0.000296646 -6.51065e-20)
(-0.0506047 -0.00982117 -2.17709e-18)
(-0.0531837 -0.005749 3.61487e-19)
(-0.0476564 -0.0032796 -4.08585e-19)
(-0.00012282 -0.00234412 1.47451e-19)
(0.000218879 -0.00269424 1.87612e-19)
(-0.000378718 -0.00284451 -5.56995e-22)
(-0.000415179 -0.0020146 -2.73167e-19)
(6.3084e-05 -0.00195327 -2.56801e-19)
(-1.88222e-05 -0.000182148 4.01315e-23)
(3.17797e-06 -0.000166394 3.31222e-21)
(-0.070419 -0.0479393 -6.76483e-18)
(-0.0505659 -0.03114 3.50218e-18)
(0.00445396 0.00843865 -2.0137e-19)
(0.0042969 0.00747798 2.84368e-19)
(0.00212008 -0.00312836 8.33588e-19)
(0.00210868 -0.00294425 1.07662e-18)
(0.00227608 -0.00302693 -1.22102e-19)
(0.000422393 -6.36432e-06 6.20084e-20)
(0.000415455 2.35844e-05 -1.42905e-19)
(0.000445114 4.56138e-06 4.89806e-19)
(4.53517e-05 6.24174e-05 -3.86897e-19)
(3.76976e-05 7.51279e-05 -1.09525e-19)
(4.04843e-05 6.31842e-05 -4.91089e-19)
(0.00980323 -0.00315717 4.24859e-19)
(0.0101007 -0.00247772 4.49401e-19)
(-2.7201e-05 6.99625e-05 -3.95702e-19)
(-3.61033e-05 4.68505e-05 4.59641e-19)
(-2.7629e-05 5.56458e-05 8.41212e-20)
(0.0160423 -0.000509326 8.64184e-21)
(0.0160065 0.000589246 3.39847e-19)
(0.0150547 -1.51591e-05 -1.35183e-19)
(-0.00593262 0.00391234 -6.00761e-19)
(-0.00721294 0.0035501 -4.13329e-19)
(-0.00583911 0.00260685 -7.45545e-20)
(0.0145595 -0.0197749 6.21723e-19)
(0.0188997 -0.0220505 4.08594e-20)
(0.0180341 -0.0184111 1.13092e-19)
(0.00277302 -0.00331171 6.95475e-19)
(0.00212504 -0.00315794 -8.07466e-20)
(0.00237692 -0.00401841 -4.74524e-21)
(-1.67482e-05 9.17269e-05 -5.97889e-19)
(-4.97767e-06 0.000114656 3.6336e-21)
(-8.81538e-06 9.90281e-05 -1.51013e-19)
(0.0797638 -0.0209922 1.19309e-18)
(0.0712025 -0.0289 4.0355e-19)
(0.0720469 0.0271856 -1.84108e-19)
(0.0739913 0.0305293 9.81928e-20)
(0.0699063 0.0311005 -1.01435e-19)
(0.000216984 0.0166719 -6.34727e-19)
(-0.000897689 0.0176644 1.28763e-20)
(-0.00115113 0.0161113 9.3519e-19)
(0.000579002 -0.00106238 -6.05338e-19)
(0.000555816 -0.000869726 2.43595e-19)
(0.000723653 -0.000908586 -1.16562e-19)
(0.00289918 0.00213361 -3.38865e-19)
(-0.00331468 -0.0553204 2.88208e-19)
(0.00599392 -0.0497312 -3.95877e-19)
(0.0040598 -0.0607375 9.12329e-19)
(-2.6754e-05 8.55279e-05 -2.46662e-19)
(-0.0119633 -0.00138299 2.14524e-19)
(-0.0148244 -0.000832809 -1.59373e-19)
(0.0118467 -0.0167602 2.88642e-20)
(0.0109076 -0.0202294 -1.54234e-19)
(0.000774567 -0.000502512 -1.41966e-18)
(0.000719478 -0.000490256 -8.27936e-19)
(0.000743911 -0.000466366 -8.19675e-19)
(-0.0789324 0.0160736 -1.01448e-18)
(0.000512555 -0.00262761 3.7359e-18)
(0.000374774 -0.00268459 -5.09145e-19)
(0.00042004 -0.00250782 1.89899e-18)
(-0.000555837 -0.0017053 -7.75202e-20)
(-0.000866252 -0.00202696 -5.998e-19)
(0.000108579 -0.000136932 2.28325e-19)
(0.00010357 -0.000135156 8.59794e-19)
(0.000108414 -0.000132412 -6.115e-20)
(0.00103193 -0.000965364 -3.98377e-19)
(0.000956646 -0.000981912 1.65328e-18)
(-0.000679451 -0.00143116 3.82759e-19)
(-0.000316032 -0.00145163 -1.24428e-19)
(0.00104758 0.0157707 -6.84709e-19)
(0.00190006 0.0147467 -6.4855e-20)
(0.000697823 0.0142606 -5.29881e-20)
(0.000399279 -1.49372e-05 1.48443e-19)
(0.000186904 -6.90759e-05 1.2169e-19)
(0.000183095 -7.89176e-05 -3.53531e-20)
(0.000183277 -6.29958e-05 -9.5276e-22)
(7.28183e-05 -2.21056e-06 2.78409e-19)
(7.00599e-05 7.32672e-06 -2.20929e-20)
(7.24801e-05 6.66105e-06 -1.92651e-19)
(-0.047232 -0.0130572 -4.70071e-19)
(-0.052544 -0.0185154 -1.3976e-18)
(-0.0551886 0.000311803 6.01075e-20)
(-0.0550588 0.0050387 1.01888e-18)
(-0.0512434 0.0052249 7.3536e-19)
(-0.000263756 1.28447e-05 -9.29724e-20)
(-0.000325548 2.89761e-05 5.93437e-19)
(-0.000311684 -1.48715e-05 -3.87039e-19)
(0.00200888 -0.000860373 -1.96342e-19)
(0.00187711 -0.00124206 -4.4761e-19)
(-0.0582163 -0.00885323 -2.24109e-18)
(-0.0436713 -0.0611851 1.37748e-18)
(-0.0486294 -0.0618663 -1.06347e-18)
(-0.0455645 -0.0573494 -5.77576e-19)
(-0.00551604 0.00534954 -2.8012e-19)
(-0.00479273 0.00425974 -2.85119e-19)
(3.79694e-05 -4.65409e-05 -1.02132e-20)
(3.39182e-05 -6.02554e-05 -7.79209e-21)
(-0.0122684 0.000538619 1.53689e-19)
(-0.0136338 -0.00143576 4.90456e-19)
(-0.0108945 -0.00149148 2.83476e-21)
(0.000618938 -0.00271252 2.25419e-19)
(0.000598725 -0.00256549 -3.06137e-19)
(0.000150116 -1.61515e-05 -2.59201e-21)
(0.000147844 -1.17084e-05 -8.56992e-20)
(0.000152705 -6.91213e-07 -2.35247e-20)
(0.00301636 -0.00263831 4.18665e-19)
(0.00357456 -0.00338701 -1.07761e-19)
(1.36263e-06 2.14421e-05 -1.7894e-19)
(1.33271e-06 3.74656e-05 -1.48843e-19)
(2.4434e-06 3.20591e-05 -8.44545e-20)
(-0.0306402 -0.0658443 -1.74764e-19)
(-0.025349 -0.0785678 -4.40376e-19)
(0.0116981 0.016621 5.28564e-19)
(0.00998783 0.0205072 5.74986e-19)
(0.0140725 0.019463 4.59622e-19)
(0.0186641 -0.0300797 1.09775e-18)
(0.0167705 -0.0288602 -2.53358e-19)
(0.0194751 -0.0281946 2.46233e-18)
(-0.000533478 -0.00527691 1.79773e-18)
(-0.000592354 -0.00550266 -1.03705e-18)
(-0.000844846 -0.00530064 -8.09302e-18)
(-0.0107756 -0.000885637 2.85201e-19)
(-0.0104306 -0.00216316 -8.95056e-19)
(-0.0166136 -0.0140721 -7.88132e-19)
(-0.0194532 -0.012393 2.93145e-19)
(-0.0159904 -0.0106955 -1.13535e-18)
(-0.0115874 0.0092874 1.82181e-18)
(-0.0144846 0.00900685 2.24663e-19)
(-0.0119775 0.00688572 -1.99507e-19)
(0.0274729 -0.0345349 6.04361e-18)
(0.0293353 -0.0325049 -1.31734e-18)
(0.0305963 -0.035855 1.59026e-18)
(2.09512e-06 5.87384e-06 1.37479e-19)
(6.8654e-07 1.05616e-05 6.67199e-20)
(0.00018968 -7.48051e-05 -9.95289e-20)
(-0.00183852 -8.33375e-06 4.59657e-19)
(-0.00201394 -0.000282152 5.90964e-19)
(-0.0016741 -0.000235835 8.45975e-20)
(8.39573e-05 -3.70119e-05 -1.95753e-19)
(8.2789e-05 -4.49651e-05 -3.62859e-19)
(8.14233e-05 -3.8384e-05 -1.80702e-19)
(0.00115234 -0.00280767 -1.4141e-19)
(0.00123036 -0.0032315 -5.14196e-19)
(0.00213375 -0.0033285 -8.86849e-20)
(0.00193259 -0.00319693 1.37116e-18)
(8.38857e-05 -2.14795e-05 8.71857e-20)
(8.27195e-05 -2.57728e-05 -2.66856e-19)
(8.35476e-05 -2.45186e-05 -1.78686e-19)
(0.000161906 0.000251962 8.14173e-20)
(0.000187449 0.000224287 7.9718e-20)
(0.000180038 0.000253302 -1.3574e-20)
(0.00965178 -0.0125341 2.17404e-18)
(0.00770259 -0.012272 1.00018e-18)
(0.00913426 -0.0108626 1.03759e-18)
(2.28999e-06 -2.21181e-05 1.57704e-19)
(-6.42752e-07 -3.85619e-06 -2.11949e-19)
(0.0408673 0.00820338 -2.3818e-20)
(0.0430068 0.0072158 -1.7977e-19)
(0.0426002 0.00991423 -2.81432e-19)
(-0.00783867 -0.323547 -7.63821e-18)
(0.00394665 -0.336527 -2.7622e-19)
(0.00605437 -0.0118912 -5.53251e-19)
(0.00442709 -0.0112809 -5.79215e-19)
(0.00587855 -0.0103896 6.79718e-19)
(9.67396e-05 0.000305842 4.94207e-20)
(5.96365e-05 0.000330759 8.49944e-21)
(-0.00358255 0.00950451 9.5659e-19)
(-0.00274887 0.00904277 2.03119e-18)
(-0.00362631 0.00868132 2.80681e-19)
(8.53689e-05 -3.51609e-05 2.29912e-19)
(8.48124e-05 -2.67011e-05 3.97547e-19)
(0.0170061 -0.00102511 5.0199e-19)
(0.0180358 -0.00167177 4.00031e-19)
(0.0182293 -0.000362746 8.85783e-20)
(0.000398686 -0.000112547 -3.39071e-19)
(0.000384877 -0.000100549 -1.79242e-19)
(0.000380226 -0.00011825 -6.472e-19)
(0.0043977 0.0091806 -4.81343e-20)
(0.00446987 0.00998125 9.84333e-21)
(0.00542004 0.00945916 1.8964e-19)
(8.8012e-05 -1.19122e-05 -4.32892e-20)
(9.03555e-05 -6.85066e-06 -8.90972e-20)
(0.00364894 0.00892913 -6.89416e-21)
(-0.00889697 -0.102737 4.32305e-19)
(-0.00743234 -0.0846049 -6.79229e-19)
(5.05035e-05 2.34674e-05 2.93033e-19)
(6.92057e-05 2.02784e-05 -1.43524e-19)
(0.00185642 -0.0161243 -6.32964e-19)
(0.00132171 -0.0154131 5.3547e-19)
(0.000987486 -0.0165491 8.62162e-19)
(0.00130093 0.00124431 -2.05529e-19)
(0.00140319 0.0013989 1.68141e-19)
(0.0012225 0.00139848 -4.35109e-20)
(0.00380125 -0.000607433 3.91923e-19)
(0.00429939 -0.000181641 2.04875e-19)
(0.00448884 -0.000892276 -1.05803e-19)
(-0.0108628 0.0118293 9.9997e-19)
(-0.00932363 0.00973308 9.52669e-19)
(6.93505e-05 -4.50835e-06 -3.50718e-19)
(7.03489e-05 -2.66148e-06 1.64269e-19)
(3.56357e-05 0.000171026 -1.4475e-19)
(3.89336e-05 0.00017179 2.29899e-20)
(0.0389685 0.00668676 5.60699e-20)
(0.0386827 0.00910284 7.35702e-20)
(0.000129822 0.000281539 -1.54559e-22)
(0.000144451 0.000252841 9.84794e-21)
(-0.0171142 0.0115882 1.67426e-18)
(0.00322775 -0.00461541 -8.27147e-19)
(0.00298307 -0.00440179 4.49075e-19)
(0.00291633 -0.0047297 -5.8098e-19)
(0.0365468 0.0842796 -4.55122e-18)
(0.0174354 -0.00512266 1.39467e-18)
(0.0187131 -0.00461236 -1.2627e-20)
(0.0175704 -0.00393609 -3.30998e-19)
(0.017339 -0.0321119 -1.54876e-18)
(-0.000929841 -0.00342879 5.84108e-19)
(-0.000561559 -0.00386697 -6.12923e-19)
(-0.000442634 -0.00333313 -7.29641e-19)
(0.0116997 -0.0125751 6.67949e-19)
(0.00994264 -0.0146009 -4.52668e-20)
(0.000308342 0.000144688 1.05659e-19)
(0.000248089 8.56304e-05 -1.55591e-19)
(0.000228967 0.00016582 8.03375e-20)
(0.000535663 -0.00206898 -7.77507e-20)
(0.000653578 -0.00207061 3.26318e-18)
(0.000581642 -0.00196376 1.98385e-18)
(-0.000545932 -0.00497189 -1.86519e-18)
(-0.000276375 -0.00516179 2.87001e-18)
(0.0024261 -0.0171388 2.65769e-19)