/*--------------------------------*- C++ -*----------------------------------*\
| =========                 |                                                 |
| \\      /  F ield         | OpenFOAM: The Open Source CFD Toolbox           |
|  \\    /   O peration     | Version:  v2012                                 |
|   \\  /    A nd           | Website:  www.openfoam.com                      |
|    \\/     M anipulation  |                                                 |
\*---------------------------------------------------------------------------*/
FoamFile
{
    version     2.0;
    format      ascii;
    class       volScalarField;
    location    "200";
    object      ddt0(k);
}
// * * * * * * * * * * * * * * * * * * * * * * * * * * * * * * * * * * * * * //

dimensions      [0 2 -3 0 0 0 0];


internalField   nonuniform List<scalar> 
18355
(
0.0239194
-1.50309e-08
8.6733e-06
1.59974e-08
-1.11307e-05
3.34853e-05
2.92694e-07
-8.85541e-06
1.83052e-08
-0.000674809
1.61805e-07
2.60187e-06
2.56569e-06
-0.0114346
8.89885e-09
7.12267e-09
2.01415e-08
7.55563e-07
2.72067e-06
4.72405e-07
7.73219e-05
-8.02627e-08
1.31881e-08
-6.94861e-06
1.49976e-08
5.68796e-08
2.57217e-07
1.07832e-08
1.2471e-08
1.80438e-07
-0.00489269
-3.05581e-06
-4.46127e-08
4.72357e-09
-1.29228e-07
-7.4049e-07
1.12994e-07
-8.023e-07
1.4595e-07
3.13125e-07
3.54073e-08
8.52978e-08
-4.16118e-09
-1.46209e-08
-1.20414e-08
9.68493e-08
-1.32934e-08
-9.3456e-09
-0.00357495
-2.82556e-07
5.07718e-08
0.0538355
-2.91189e-07
1.73497e-05
5.83239e-09
2.5528e-07
-4.68626e-08
-0.0205056
-5.69113e-08
-1.2837e-06
5.70891e-10
3.47755e-06
1.93446e-05
5.14334e-07
-4.35524e-06
4.0563e-08
-4.83435e-07
7.51107e-08
3.56769e-08
0.00161148
-3.78255e-08
7.39924e-09
-2.476e-06
1.04176e-06
0.000809446
2.75842e-08
-0.0212874
2.70253e-08
-7.20034e-09
0.000586103
-4.60246e-07
0.000119015
3.37313e-08
-7.55704e-07
-3.18843e-06
1.34655e-07
3.55369e-08
-1.5276e-06
4.23036e-08
-1.99735e-06
-0.0122248
6.86674e-06
6.78985e-05
-2.85575e-07
-0.0010089
-1.84822e-07
3.98124e-08
1.81194e-07
6.33755e-06
-3.98422e-08
-3.22895e-06
-2.73365e-08
-2.29317e-07
-1.51259e-08
-5.1262e-07
1.10484e-08
-4.86764e-06
-0.00266286
5.11393e-07
-1.14708e-08
-3.99472e-08
6.85047e-08
-1.03264e-06
-7.09876e-07
2.22339e-07
-9.77652e-07
-2.66073e-08
0.000765854
-2.10577e-07
-4.18755e-07
-0.000153101
-4.53291e-06
-0.010537
-1.2439e-06
0.000589896
3.23078e-07
2.65419e-07
1.73022e-08
0.0217002
-4.07414e-08
4.26357e-08
0.0528817
5.51996e-08
5.2747e-06
1.03182e-06
2.45174e-08
1.00859e-05
0.000978895
4.35864e-08
-0.000102607
-3.23202e-07
3.37302e-06
9.60429e-09
-0.00457248
-8.81599e-08
3.10299e-08
1.16997e-06
-7.02875e-08
-1.00152e-06
-0.00282676
1.00648e-08
-4.37741e-07
2.1596e-07
-1.64128e-06
-7.29409e-09
1.38204e-08
1.60997e-08
1.43157e-07
8.02783e-09
1.95262e-08
6.70771e-07
5.57879e-08
-8.96724e-09
-3.39012e-06
8.60896e-07
-0.00110706
1.01901e-05
0.0181807
6.25171e-05
-3.5558e-07
-3.44013e-08
4.66501e-06
1.17748e-07
-0.00214212
-4.83587e-08
3.16721e-08
6.78922e-08
-1.89228e-08
-1.06501e-07
-1.79443e-06
1.01077e-07
-0.000963888
-5.04358e-08
4.6811e-09
3.00279e-05
-2.06208e-07
7.44606e-08
-2.68013e-06
2.49115e-08
2.09581e-07
3.25084e-07
6.20343e-06
-8.69901e-09
6.61904e-08
4.18921e-08
-1.09984e-06
3.46382e-08
-0.00142489
-1.43859e-08
-0.00858811
-1.87138e-07
1.01023e-06
2.36297e-07
8.35967e-08
0.0213051
-3.36218e-08
-1.71299e-05
4.23021e-09
-4.31243e-08
1.96775e-07
7.84195e-08
-9.72918e-05
6.47679e-07
4.03225e-07
-6.71926e-08
-0.00142473
-1.79216e-06
-3.33157e-08
-3.13091e-08
-1.2468e-08
1.98491e-07
1.89687e-08
-9.46749e-07
-7.1864e-07
9.0442e-05
2.82418e-07
3.23996e-08
0.000804174
0.00047756
-2.1584e-06
3.05406e-07
-5.50953e-07
-0.00205695
2.37098e-08
5.16816e-06
0.000130891
-6.73466e-08
-6.29856e-07
4.95704e-08
3.16396e-07
-1.8951e-08
-1.08e-07
5.94194e-08
-2.10029e-06
-3.27662e-08
6.38657e-09
-5.43006e-09
-4.15752e-05
-1.56594e-06
9.26339e-09
4.76145e-07
9.27478e-05
4.13871e-06
-8.21078e-07
-1.86775e-08
-1.54892e-05
3.30026e-08
4.32849e-08
6.53014e-07
2.90622e-08
-0.00253216
0.000325758
5.41886e-06
5.10005e-07
1.97098e-07
1.54958e-06
-6.71776e-06
7.16717e-06
2.51855e-08
4.9296e-09
1.41541e-07
-1.71206e-08
1.04858e-06
-1.26454e-08
1.16748e-08
3.80327e-08
2.50675e-06
2.40215e-08
1.99623e-06
0.00566187
1.84219e-06
7.64304e-08
-1.00274e-06
-1.65571e-08
-5.12382e-08
-2.41614e-08
-1.90187e-06
3.47974e-08
-1.65605e-06
0.000237292
-4.42581e-08
2.34184e-06
-2.11312e-07
-7.61719e-07
-1.06849e-07
2.51783e-09
6.05628e-08
3.2512e-07
5.11435e-08
1.69427e-06
1.73916e-07
-0.00798903
1.69249e-06
5.46796e-06
8.05105e-07
2.62643e-06
-2.22487e-07
-1.45805e-08
4.57895e-07
2.36313e-06
-0.0013311
5.19069e-06
-3.46064e-08
-1.50504e-06
1.52074e-05
-1.09895e-06
-3.54993e-08
-4.71133e-09
-1.57004e-10
1.82263e-06
-1.52977e-05
-0.0162609
-0.00135733
1.95418e-06
-2.90373e-07
6.86039e-05
-6.6887e-08
-2.56398e-08
-2.98505e-07
-1.22967e-08
-2.23879e-06
-1.30639e-07
-0.000336166
1.07499e-08
0.000432991
3.17357e-08
2.94023e-07
9.28584e-07
3.10135e-06
0.00477223
-2.17065e-06
-0.000941405
5.39181e-08
4.35614e-08
-1.16153e-08
1.32892e-06
-0.000679956
4.91674e-08
2.51747e-08
0.000145287
2.49575e-08
4.75396e-08
3.31355e-06
8.54915e-07
-3.91877e-09
2.83231e-07
-2.00406e-06
3.62885e-08
-1.9751e-06
-3.44075e-08
2.01147e-08
-2.46617e-08
-3.22447e-06
0.000204551
-3.61693e-08
1.30745e-08
-1.00318e-05
-1.16921e-09
8.96727e-08
-0.00120307
0.000116794
2.50643e-06
-9.14061e-09
-7.50983e-08
2.78056e-06
-4.6853e-07
-9.96926e-06
-4.98593e-09
-2.40202e-08
-2.35066e-05
-1.13766e-06
-1.65348e-08
2.17917e-08
7.53505e-07
3.68559e-09
-5.68586e-08
4.04779e-08
-6.52577e-06
1.08502e-07
-3.66687e-07
5.4021e-08
-5.12867e-09
1.05603e-06
2.01433e-07
3.2658e-06
-0.000266517
3.27462e-05
4.84163e-07
4.58872e-06
2.76582e-06
2.71178e-08
-1.08185e-07
2.03205e-06
2.18181e-08
3.08293e-06
2.74703e-07
1.23014e-06
4.81054e-05
-0.000551226
0.0237299
6.47845e-06
-1.2617e-08
0.00126773
-5.05423e-08
1.29299e-08
-2.75514e-05
2.9537e-08
-1.83268e-06
1.69104e-08
-4.71995e-06
2.50528e-08
4.50055e-06
0.00216052
4.89086e-06
6.1598e-08
-2.98183e-08
5.13349e-06
-2.41632e-07
2.23029e-07
-0.000876959
0.000101565
1.50927e-08
2.03282e-06
3.4133e-06
-2.91322e-08
2.3822e-07
-2.01345e-06
-0.000902341
1.8482e-06
2.73275e-08
-2.31007e-07
1.45519e-06
2.69001e-09
-1.72135e-08
2.67209e-07
6.5313e-05
-0.000100443
-2.85652e-08
8.24989e-08
4.21119e-08
3.01606e-06
-5.99041e-07
4.59305e-08
-2.04136e-06
-3.19174e-07
1.32024e-08
-5.62453e-07
3.5275e-06
-6.12868e-08
2.49073e-09
1.73569e-06
2.78142e-06
-0.00673975
-2.86388e-08
-0.0161553
3.89909e-08
-3.05278e-08
1.65686e-06
-2.98457e-07
-5.44263e-06
-2.54401e-06
-4.01485e-07
1.12689e-06
-8.48705e-08
4.07042e-06
-2.60111e-07
3.97109e-07
-8.09191e-09
-3.00058e-08
-5.67487e-08
-3.22291e-08
3.76508e-06
-5.95519e-05
-4.18924e-06
8.63637e-07
2.29974e-07
-2.31375e-09
2.59832e-07
8.13992e-07
3.80145e-07
-2.46277e-08
2.70047e-08
5.79664e-07
-2.12807e-08
3.82425e-07
-0.017188
-0.00425403
1.58932e-05
-3.79789e-08
1.04306e-07
-2.08908e-06
-7.47932e-08
-0.00313449
5.01736e-06
-1.45608e-06
-7.25145e-07
1.4764e-06
-1.60548e-07
-3.65116e-07
0.00329118
-2.62799e-06
-5.71523e-07
0.000178981
2.28644e-08
0.00637541
0.0117677
9.82648e-08
2.90138e-07
0.00288785
9.76427e-09
4.51582e-06
-2.87727e-06
0.00032116
-2.26198e-07
-5.08724e-08
4.08223e-09
-0.000520463
-0.00534854
0.000699283
0.00198224
8.97376e-07
3.65716e-09
-8.02718e-07
4.86772e-09
-1.42837e-06
-0.000187982
9.86414e-05
-0.000785218
6.31137e-05
-2.37966e-06
-2.91821e-06
-1.03758e-06
-1.58099e-08
4.72996e-08
-1.08992e-07
1.26649e-06
-2.56315e-08
7.33795e-09
0.000939338
4.04824e-08
0.000333247
-1.77146e-06
4.24418e-06
2.71852e-06
4.92386e-08
-6.53789e-07
0.0138067
2.40481e-08
-0.00574579
2.11844e-08
-5.91977e-06
-2.65471e-06
3.04563e-08
-9.43314e-07
6.86364e-06
6.65167e-06
6.70535e-08
4.60781e-08
1.28085e-06
1.16619e-07
4.35412e-06
3.27547e-08
3.27996e-06
3.8051e-08
2.16768e-05
-1.26016e-07
-6.16943e-08
3.56749e-06
9.52333e-07
6.56069e-05
-4.76925e-08
-7.82763e-07
-3.63154e-07
-0.000192299
-0.0299089
-2.2246e-07
1.3991e-06
-6.8163e-08
-1.06621e-06
2.32971e-09
-2.32954e-07
-0.00594151
-5.17419e-09
-0.000433254
1.31218e-07
-3.13474e-08
-4.40125e-07
-0.0030347
-3.24203e-07
-2.40163e-06
3.46815e-07
1.10806e-06
0.00136165
-6.78338e-08
-7.02292e-09
-0.00499338
-2.43428e-06
-0.0131685
-2.80344e-06
2.68018e-07
9.25573e-09
-1.29805e-08
9.72352e-07
9.20759e-08
7.15775e-09
1.26046e-05
0.0318327
-6.54569e-08
0.00802362
0.00300679
2.01766e-07
5.89972e-07
-1.91043e-08
0.0183845
0.0012583
-7.41655e-08
0.000888243
1.70717e-06
-6.7239e-06
0.000297775
2.06262e-07
-2.33519e-09
1.2722e-07
-0.00070225
1.80574e-06
3.98838e-08
-4.67726e-08
1.335e-05
-5.33344e-08
1.86777e-06
-2.49314e-08
1.45488e-06
-0.0597377
-0.000956803
9.20928e-06
-0.00101311
-2.77936e-06
-0.0242395
-7.86214e-07
2.96486e-08
-9.81406e-07
0.000284269
-8.82712e-07
1.48748e-06
4.53917e-08
-0.00091729
4.04564e-08
2.41487e-07
-0.0138677
7.65617e-08
-1.1572e-06
-5.78175e-06
-3.43657e-06
5.32638e-08
2.27218e-08
-4.74651e-07
-8.91931e-07
-2.2806e-09
-2.10455e-07
-1.00037e-06
1.91621e-05
-3.64162e-07
4.55468e-08
-1.41054e-06
0.00227974
2.37652e-08
-2.49653e-05
-1.08725e-06
7.26274e-09
-0.024122
-2.47364e-08
-4.34692e-07
1.94053e-09
-5.24405e-08
2.29097e-06
-2.46051e-07
-0.00428435
-3.27725e-07
2.29434e-08
-0.0229054
-7.69201e-10
-1.17161e-08
5.09154e-08
2.71716e-08
-1.26713e-06
-1.5283e-06
0.0179157
1.03009e-07
-0.00569177
1.55681e-07
0.000439128
0.00460169
2.31013e-07
-1.02333e-08
-8.5e-07
-6.15651e-09
4.30774e-06
5.1387e-08
-1.22691e-08
6.45027e-08
3.9025e-08
2.04623e-08
-8.04177e-07
7.89932e-07
2.68712e-06
4.74997e-07
-1.47763e-06
5.721e-07
4.82321e-07
0.000392013
-1.24363e-08
3.6313e-06
-1.80344e-06
3.74722e-08
2.49219e-06
-0.0552945
-8.05821e-09
0.000865243
-6.61168e-08
-0.00233562
1.11144e-06
-6.88925e-08
1.29307e-06
-8.72077e-07
0.000587189
-7.66319e-09
1.94898e-08
-0.000875117
-4.42053e-06
-4.85209e-05
1.8894e-08
-0.000179999
2.52445e-06
0.0160727
3.10514e-08
-1.77984e-07
1.72267e-07
4.93271e-08
-3.21825e-08
-1.3349e-07
-9.18892e-09
0.000936401
2.97307e-07
2.96588e-08
8.50636e-09
-3.96674e-08
6.72838e-08
-4.0858e-06
2.73265e-06
-4.64476e-08
-8.30146e-07
1.91383e-07
2.0806e-07
3.49253e-07
1.20411e-08
3.43023e-06
1.60413e-08
3.782e-08
7.06794e-08
-2.45666e-08
7.67556e-07
-5.19685e-07
-5.35524e-07
1.70455e-05
-2.63956e-07
3.9798e-08
2.48205e-06
-9.91926e-09
1.01656e-08
-5.12387e-07
-7.16787e-05
7.04494e-07
-3.27694e-07
5.11095e-08
-8.78373e-09
9.2076e-07
3.64754e-08
1.36681e-06
5.37689e-08
-3.08531e-08
-2.52415e-08
-1.76261e-07
-0.00781358
3.59119e-08
-7.52387e-08
4.77809e-09
9.71767e-06
0.000293391
2.26011e-07
9.20197e-08
2.34526e-06
-1.60121e-06
-6.40545e-06
0.000829799
1.01687e-07
0.00122037
-8.28473e-08
-0.000188095
-6.54556e-07
-3.72569e-08
-1.05872e-08
0.000298825
-1.72552e-08
2.70865e-07
3.78495e-06
3.43373e-06
-2.60223e-06
4.04314e-08
3.21076e-08
-1.32994e-07
2.10746e-08
4.50387e-07
6.28189e-06
-0.00122549
2.93424e-06
5.63567e-08
4.29922e-08
2.20329e-08
-1.76823e-08
-5.63477e-08
-8.07875e-08
2.69671e-06
1.89404e-06
-0.000321582
5.77498e-08
3.62245e-08
-1.13544e-06
6.19077e-09
2.9233e-06
2.86691e-06
-2.40544e-06
4.77866e-06
-2.04726e-06
5.53783e-07
-1.10086e-08
4.05777e-08
-3.47178e-08
3.7789e-08
0.00225789
1.87087e-06
4.08007e-06
2.97218e-08
-3.11667e-08
4.7483e-08
-4.28553e-08
0.000937437
1.49685e-05
1.67596e-08
-2.61766e-08
3.78498e-08
-2.93066e-08
5.65705e-08
2.75321e-07
2.41389e-06
-2.24175e-08
-6.09666e-07
4.18652e-08
2.01433e-08
-3.60047e-08
4.2301e-08
1.51454e-06
2.06144e-08
6.15769e-07
6.67462e-08
0.000256793
-7.39286e-07
9.3117e-07
-0.00222577
2.20605e-07
-5.37699e-08
3.76421e-06
-0.000153215
4.5129e-08
1.13678e-08
1.63589e-08
4.47454e-06
6.88337e-08
5.73784e-07
-1.22625e-05
8.11884e-08
-4.47314e-07
5.60124e-08
0.000102903
-0.000769088
9.24324e-08
2.0858e-08
1.40115e-06
1.90451e-06
3.88819e-08
6.43105e-06
1.59747e-08
9.92466e-09
-2.49239e-07
0.000460018
0.00224809
-0.00179197
2.73694e-06
6.61355e-08
-3.32434e-05
-4.67998e-06
1.25869e-06
8.24225e-09
-4.66924e-06
-1.6017e-06
-2.62718e-05
0.00147737
-3.69635e-08
6.54218e-08
5.50641e-08
-3.66409e-07
7.30938e-08
-0.00195058
-0.00107854
-9.64791e-09
9.38387e-08
7.71831e-08
1.39477e-06
9.76237e-09
7.30894e-08
-2.47573e-05
1.59007e-08
-2.33844e-07
-0.00173437
6.23718e-06
5.11386e-06
4.00202e-08
1.90773e-08
-1.43246e-08
-9.45047e-07
3.30475e-07
-5.10082e-06
3.38963e-08
1.49938e-08
6.07081e-07
0.000125092
9.67359e-09
4.164e-08
6.62223e-06
5.47474e-08
1.30063e-08
5.86071e-09
0.00518717
8.95657e-09
3.94231e-08
8.84817e-09
-7.18531e-07
2.30387e-08
-5.20422e-07
4.05721e-06
4.07237e-08
1.3849e-05
7.82942e-08
2.58846e-06
4.3364e-06
6.88956e-09
1.40274e-06
3.18623e-09
8.64757e-09
1.27486e-08
0.000656445
-0.000108736
-7.01168e-06
1.2999e-07
-0.00352822
3.79161e-06
1.86441e-07
6.18281e-06
1.75173e-06
7.41638e-07
-3.28436e-08
0.00990528
-4.3879e-08
6.27979e-08
2.91581e-08
-9.88549e-06
0.0294751
0.00552788
-5.65133e-09
3.70426e-06
0.00100822
4.58241e-07
7.64486e-07
-1.49076e-07
8.79302e-08
1.03746e-06
-0.00222921
5.31507e-07
-4.00347e-08
1.27476e-07
0.0133268
-3.0501e-07
-1.16655e-09
-5.71093e-08
2.51273e-07
-1.67442e-05
9.65226e-07
3.33555e-07
-0.00344767
-4.34282e-07
-1.25097e-06
-1.26847e-07
-0.00233174
-6.14258e-09
7.84065e-05
-1.15192e-07
-4.01053e-08
-8.25407e-09
1.1392e-07
-3.66628e-08
4.48802e-08
-1.4423e-08
-9.72342e-06
1.84052e-08
0.00118136
8.71768e-08
-1.10794e-08
2.63925e-08
6.22149e-06
7.22521e-09
1.76431e-07
5.78896e-07
-0.00690531
-3.69071e-05
-2.82536e-07
-2.22721e-08
0.0001062
-7.26683e-09
2.11879e-06
-2.18232e-08
0.00476478
5.25346e-07
0.00265327
-1.35882e-06
1.96877e-07
9.30235e-06
-0.0190718
2.16353e-05
2.74305e-08
3.75621e-09
1.25218e-06
-0.00767287
-5.31218e-08
3.48725e-06
-1.16337e-07
1.07178e-06
3.51386e-08
5.46906e-08
2.86105e-07
-1.27726e-07
-3.94094e-08
-1.3512e-06
-2.43642e-06
-1.0783e-06
3.77671e-06
0.00896749
-1.50986e-07
-0.000386975
-3.94864e-08
3.85264e-06
-6.4053e-06
3.9239e-06
4.06101e-08
3.88604e-07
-1.73952e-08
-0.00921539
-5.59486e-08
2.70515e-08
3.93279e-06
6.46466e-08
-2.41196e-08
4.78453e-08
-1.13274e-07
2.37847e-08
0.00865668
0.00314178
4.02828e-06
9.91979e-09
1.68608e-08
3.08337e-05
-1.15162e-08
3.44204e-05
2.26241e-07
-2.4115e-08
-5.42769e-08
-1.40939e-06
5.81196e-06
1.71417e-07
1.35504e-08
-0.0106927
1.26662e-07
-7.9014e-08
1.20798e-06
-1.55945e-05
-0.0021327
2.56122e-08
1.80138e-08
-0.0177269
0.000484277
0.0314378
1.23015e-06
1.00328e-06
1.38746e-06
-4.34392e-08
5.92889e-06
5.15646e-07
0.000539639
-2.61506e-07
1.11814e-08
-5.89261e-07
-6.88388e-08
-0.000422719
1.70501e-08
1.37599e-07
0.000385383
5.67982e-06
-0.000491194
6.04687e-10
-2.22944e-07
-3.55031e-08
-7.41946e-08
-2.59066e-08
4.04498e-07
4.96489e-08
9.04257e-08
-2.90266e-08
2.09267e-10
3.44166e-06
1.27159e-06
1.68275e-06
-1.4763e-07
6.4651e-07
-2.05303e-08
-0.000695702
2.51082e-07
-4.8727e-07
1.31832e-07
-1.19713e-08
5.9752e-08
-3.86381e-06
1.46217e-07
6.80258e-08
-3.80534e-08
-3.04466e-08
-0.00194196
0.000573719
1.7938e-07
-0.000658247
1.32447e-06
1.17659e-07
-4.08744e-08
-1.29571e-07
-0.00163362
2.04701e-07
-3.67889e-08
-6.52917e-09
5.19875e-08
0.00747319
8.1171e-09
-3.22281e-08
1.05662e-05
4.7785e-08
-4.79722e-08
7.61785e-06
1.41887e-05
-5.82875e-06
4.67092e-06
-0.0270915
-7.51115e-08
0.00337715
-4.15482e-07
6.5499e-08
-7.89754e-09
-1.29578e-06
7.71195e-09
-2.07282e-06
4.50841e-06
6.32643e-07
9.99117e-08
-0.0209763
0.000127427
-0.0126922
-0.00510099
0.0003871
-7.05165e-06
2.31951e-07
-7.80242e-07
0.00362506
-1.64208e-08
0.00495942
-8.60674e-09
-1.62477e-07
2.95151e-06
8.99137e-08
3.93713e-05
-6.48956e-07
-2.47867e-07
8.62638e-08
-2.84607e-06
1.00784e-08
-0.000887711
2.72966e-08
5.16861e-08
-0.00227418
-3.14207e-08
-1.22725e-06
-4.20781e-08
3.88352e-06
4.45648e-08
5.22505e-08
-2.74913e-07
-0.00010201
1.62174e-07
3.97375e-09
5.70559e-08
-3.83769e-07
5.04879e-08
-1.67302e-07
-0.000665511
4.03632e-08
1.80337e-07
-5.60084e-08
-1.59967e-06
-1.19637e-05
1.60768e-08
-5.29718e-08
3.74385e-06
2.18711e-07
-2.76866e-07
-1.2991e-06
-0.00331823
-4.71596e-07
4.53726e-08
4.54992e-08
8.26719e-07
-4.93121e-06
2.74061e-07
1.93078e-08
4.07921e-08
2.73505e-08
-6.82259e-08
-3.45465e-08
8.73441e-08
7.20576e-06
4.04486e-06
2.93972e-08
-0.0138581
8.5779e-09
2.38617e-06
-0.00372968
1.56859e-06
9.53983e-09
7.11549e-06
3.01571e-06
1.86814e-08
0.000675926
2.64686e-07
1.10553e-06
1.72672e-08
4.93466e-06
1.44757e-07
-1.08177e-08
3.54161e-08
-0.000477326
-6.42841e-06
1.98835e-07
-0.000281375
2.05635e-08
8.30752e-08
7.56003e-09
2.57648e-06
-1.50617e-08
-5.18274e-09
-8.41133e-07
-1.92651e-07
1.20696e-08
3.26697e-08
-6.63137e-08
1.00912e-07
1.12058e-07
1.45065e-08
6.64482e-07
-1.0797e-08
-0.00309583
4.21801e-06
3.22688e-08
3.05155e-07
1.12584e-08
1.9638e-08
2.86197e-09
1.02104e-07
8.65407e-08
4.94347e-07
5.99553e-08
-3.0759e-06
-1.90773e-06
2.64875e-07
2.90771e-06
4.88841e-06
6.35869e-08
2.02371e-07
4.60751e-06
1.14374e-06
-0.0030758
1.87902e-08
-6.64375e-07
-3.01227e-07
-7.42156e-07
-6.55549e-07
1.48285e-07
1.4068e-08
-1.61873e-06
1.71179e-08
3.23562e-07
3.11217e-07
2.3813e-06
1.97649e-08
2.09711e-08
6.83399e-06
1.04307e-07
0.000459743
-0.00111708
8.8452e-07
1.44193e-06
-1.72006e-06
4.93494e-08
-3.47784e-06
3.02571e-08
1.06117e-06
-0.00348734
0.0425451
-5.73307e-06
2.15748e-07
9.4691e-07
-8.01278e-08
-2.3057e-06
1.76623e-08
3.44387e-05
6.17182e-06
5.62845e-08
-6.88868e-08
4.28618e-06
-2.74797e-06
4.12121e-08
6.51155e-08
-4.04546e-06
1.0188e-08
-1.53615e-09
0.000254245
2.31179e-06
-1.43336e-08
-0.000109005
3.26836e-08
6.73149e-06
2.76751e-06
1.2468e-08
3.81347e-08
5.19728e-07
-5.30489e-06
-4.52281e-08
-6.91443e-07
4.32589e-08
1.00707e-08
3.47922e-08
-0.0120946
3.71903e-08
3.05211e-07
-2.06523e-07
3.64807e-06
-6.32548e-07
-4.82828e-08
3.88828e-08
4.45231e-06
5.13139e-08
1.08972e-08
8.92882e-06
4.51566e-06
-4.76355e-08
-3.29925e-06
4.46991e-07
1.91174e-06
5.11536e-07
3.67696e-06
0.000273943
1.68455e-07
1.59707e-06
-1.78767e-09
-4.53563e-07
5.98457e-08
-0.00497691
-0.00137793
2.55609e-08
-5.60473e-07
2.65747e-08
-1.09758e-08
-0.00791493
6.23358e-08
2.74398e-07
-2.4707e-07
6.18366e-06
4.32544e-08
-5.5505e-08
5.48376e-08
-0.000152847
-2.55131e-09
3.12194e-07
2.14565e-08
9.37682e-09
-3.93025e-07
1.45305e-06
1.49161e-07
3.04126e-08
1.3446e-07
2.29907e-07
1.67613e-08
0.00232167
2.38252e-07
-4.11694e-08
1.78541e-08
3.14297e-06
1.60344e-08
1.14113e-08
1.33979e-06
2.09925e-08
1.08467e-05
-2.31056e-08
2.4001e-08
-0.000793132
0.00258415
0.000166086
-5.56896e-05
5.00811e-09
4.67827e-08
-0.0604895
-3.54828e-08
8.78742e-08
-1.80432e-08
0.000467819
-1.64886e-08
-5.01229e-07
4.56851e-08
0.000287756
-2.90333e-06
-3.53481e-05
-0.0439212
-5.32332e-07
-4.11998e-06
-6.86688e-08
1.32705e-07
0.00273863
1.29543e-06
4.55117e-08
3.63619e-08
-3.4275e-07
3.92306e-07
4.48076e-08
7.74671e-08
-4.2525e-08
7.27568e-08
2.91997e-06
-0.00127092
-6.13075e-08
-7.13732e-06
-1.70349e-05
0.00591965
7.7532e-07
6.67595e-07
-2.35195e-07
1.94691e-08
4.2099e-08
-3.93977e-07
7.3034e-06
2.1393e-08
2.91067e-08
-2.02926e-08
1.37074e-06
-0.000105372
-3.63286e-07
1.80812e-08
-3.80388e-08
-1.44103e-06
-1.25962e-09
-7.58915e-07
-2.59869e-06
4.5737e-06
9.70425e-07
0.000696172
-9.28999e-09
4.06011e-08
-1.9528e-08
9.35067e-08
1.36364e-08
4.19741e-08
-4.36912e-05
1.21899e-08
0.000216873
2.39973e-07
1.43975e-08
1.03728e-08
-4.21095e-08
5.4672e-08
1.77735e-06
4.34324e-07
8.7691e-08
-0.0360188
-5.0325e-07
2.93657e-08
-5.65947e-09
0.000359502
-4.02556e-05
-4.50432e-09
-6.53946e-08
-6.39955e-08
-4.39661e-07
3.91837e-06
2.34087e-05
-6.73609e-07
-4.36663e-07
3.81217e-06
-0.0370147
-7.53554e-08
4.35849e-08
1.58534e-06
-2.01937e-07
-0.000786246
4.91771e-07
4.37842e-08
3.6965e-06
3.61084e-06
0.0036526
3.425e-06
0.0031568
1.99886e-08
9.03127e-08
1.30964e-07
9.54316e-09
-3.14952e-07
-5.27622e-08
6.94671e-09
2.13157e-08
1.74215e-07
-1.93141e-07
-3.53445e-06
4.69653e-07
-2.80885e-07
2.86064e-08
-1.79764e-09
-1.26254e-07
4.66045e-06
-1.93795e-06
1.80601e-08
5.55071e-08
3.02635e-06
-2.98553e-07
-4.06278e-08
4.22755e-08
-0.00344838
9.77142e-09
1.55586e-06
-3.48721e-07
-5.53521e-09
-1.6757e-07
-0.000485704
7.90345e-06
-4.5165e-07
-1.2179e-06
-2.07475e-07
1.12796e-06
3.5382e-08
-1.55474e-06
-1.67756e-06
2.54894e-08
7.25673e-06
-6.3974e-08
1.81528e-08
-7.64105e-07
-2.55191e-07
4.94757e-07
0.000123651
-0.014903
8.64591e-06
1.12276e-08
3.63563e-08
1.24975e-07
-3.95851e-06
-8.4728e-08
0.0004535
3.19003e-08
7.4606e-09
1.72498e-08
4.01043e-06
1.40254e-07
-1.45461e-08
-1.29783e-08
4.68973e-06
1.1141e-08
-0.0237629
1.34163e-08
1.12241e-06
1.30527e-07
5.45747e-07
1.212e-08
-1.79347e-07
0.0034891
1.07351e-05
-2.32053e-09
4.50075e-06
5.59746e-08
4.85861e-08
0.00957529
0.0026516
2.87501e-08
2.16061e-08
7.82249e-07
3.63195e-08
-1.88288e-07
-1.35444e-08
-2.41283e-08
-6.74203e-07
2.46125e-06
-1.34397e-07
6.47022e-08
2.67888e-06
-3.8385e-08
1.8078e-08
4.48887e-08
-9.00374e-07
1.28459e-07
3.71545e-08
-0.00518242
-1.26985e-07
-0.0688799
1.06698e-06
-1.20717e-08
1.02692e-07
9.65759e-08
-0.00011412
-2.69745e-07
7.11046e-07
1.5343e-07
-3.66029e-07
-0.000653492
-1.02734e-07
3.18928e-06
-5.25618e-09
-2.35015e-08
-7.01712e-08
6.64919e-08
1.59696e-08
3.0503e-08
-4.2078e-07
-1.05855e-07
1.62409e-07
-0.00252513
9.03546e-07
-6.18284e-05
6.9698e-09
8.45756e-06
-4.78619e-07
0.000312955
5.97836e-06
0.00134778
4.98457e-07
-5.7426e-09
1.54254e-06
3.7569e-08
-0.00089666
-5.24202e-08
1.23157e-05
1.70786e-08
-0.00194874
-0.00832521
-2.96968e-07
3.90711e-06
-1.65624e-08
2.59336e-08
-1.39985e-08
6.20851e-08
-6.24737e-08
-3.15036e-07
1.74403e-08
-9.78923e-07
-2.47767e-05
0.000839493
4.92338e-08
1.13343e-05
-1.11888e-08
4.91289e-08
1.28902e-07
3.57658e-06
-3.65077e-07
8.86827e-06
1.83989e-08
-2.21057e-07
-0.0338045
3.95813e-08
6.19811e-07
1.61236e-09
-1.94835e-07
0.000506182
-1.24095e-06
0.0181648
-1.05831e-06
6.06683e-06
-2.37941e-07
4.38884e-08
-1.73015e-07
3.22698e-06
-7.54138e-08
1.17734e-08
-1.04414e-07
1.8384e-08
-0.00222265
1.23619e-08
-4.84233e-06
-2.30593e-05
6.28475e-06
-7.3425e-07
-8.95369e-06
1.71295e-05
7.12116e-08
-0.022158
4.68871e-08
0.00099992
-7.49084e-09
-2.39086e-07
0.00248146
0.00160813
-1.4133e-06
0.000691945
3.75639e-08
0.00137515
-1.76812e-08
2.79548e-05
-1.42311e-08
-3.05945e-09
1.72982e-05
-2.7645e-07
-2.03524e-08
-8.28281e-08
-4.53977e-08
4.53461e-06
0.000279979
-1.38608e-06
0.000421359
-9.12515e-08
-0.0139119
4.22126e-08
1.83797e-07
1.42999e-07
-5.98749e-08
-0.00125397
6.80372e-08
4.64935e-08
1.04595e-06
-9.69221e-09
-8.70616e-05
-2.90868e-06
1.23894e-08
-2.20975e-06
1.23612e-06
1.34654e-08
-1.8971e-09
-2.59874e-07
7.29398e-08
2.33136e-06
-1.65466e-06
4.66836e-07
1.04739e-06
-1.77143e-08
-1.26275e-07
2.82421e-06
1.48305e-07
-1.78077e-09
-8.06152e-08
6.91699e-08
7.71978e-08
-0.0190733
-1.04459e-06
-0.00020105
6.28452e-08
2.12999e-06
1.36567e-06
2.57885e-08
-1.88413e-06
-2.80067e-07
7.69699e-09
-0.000288624
-4.82276e-08
-6.62685e-06
3.55443e-06
-1.12287e-07
2.43273e-07
-2.61516e-05
-2.37305e-07
-3.62515e-07
5.10005e-06
-0.0354914
6.78213e-08
-2.43174e-07
5.62824e-09
-1.45097e-05
0.000791355
-9.72419e-07
-1.78033e-07
1.8139e-07
4.64121e-08
-1.39384e-07
-0.000434612
7.1774e-07
-3.29108e-07
-0.000904453
4.71785e-08
-5.25044e-07
-8.13615e-08
3.0349e-08
2.82625e-08
-2.47986e-07
1.9252e-06
1.12586e-05
1.76419e-07
1.1905e-06
-6.50632e-08
-2.17152e-08
3.59806e-08
-2.56013e-07
-8.93774e-09
0.00307519
9.91149e-05
1.12915e-05
-9.73516e-07
-0.0107936
-4.3407e-07
3.69811e-08
-3.16764e-05
-7.18777e-06
-8.09172e-07
-1.22536e-07
7.07155e-09
-0.000233166
-0.00199463
3.2304e-08
-3.0376e-08
-1.6275e-06
5.13073e-05
1.07743e-06
-7.00173e-08
-0.00282691
-2.01118e-07
1.40292e-06
-1.07561e-08
1.44632e-06
-6.42269e-08
9.93607e-07
-5.95459e-07
4.60389e-08
-0.00284794
-8.06141e-08
1.5159e-06
1.24093e-05
0.00121582
1.01545e-05
4.30384e-08
3.07441e-06
-3.84239e-08
-1.89699e-06
-3.9316e-07
-8.94751e-07
-2.33122e-08
-5.3423e-07
-0.000534164
-6.93789e-08
-0.000457234
-3.93286e-08
2.1703e-06
3.90458e-08
-7.17801e-08
-3.2236e-05
-8.35208e-08
1.84859e-06
-8.18866e-06
-5.32155e-08
-0.00502256
-0.00458792
3.72748e-08
-0.0487017
-2.25389e-06
5.90976e-09
1.70845e-08
0.0273433
-0.0426683
-4.32131e-08
5.44308e-08
-6.25863e-07
3.51073e-08
-0.0601988
3.25797e-10
-1.54742e-08
2.33785e-08
3.67339e-08
-2.64592e-06
1.68916e-06
-3.52626e-05
-2.97216e-08
2.77427e-06
1.64817e-07
1.35412e-06
0.0184956
1.93101e-08
4.74358e-08
8.32094e-08
0.000778119
5.84254e-08
2.70151e-08
5.77604e-08
1.24455e-06
3.1064e-07
-0.00174111
-1.68699e-06
1.09807e-08
4.41346e-08
2.21594e-07
2.17368e-06
-1.90586e-06
4.36686e-08
2.76759e-08
3.91201e-06
2.30011e-06
-5.79826e-07
0.00303597
4.9677e-07
-1.33912e-07
-0.014724
-1.15263e-07
-9.55759e-07
-4.10323e-08
-0.00168039
2.48041e-08
-7.58604e-08
-0.00308558
3.30149e-07
2.35842e-08
2.59706e-08
-5.90731e-08
-6.54303e-07
1.16165e-05
-7.8844e-09
5.22883e-08
2.04149e-07
1.98158e-06
-7.46408e-06
2.04382e-08
2.49714e-08
1.51661e-08
3.71688e-06
1.59435e-06
-3.81406e-07
-2.97451e-07
0.00882309
2.20717e-08
-0.0109572
4.28789e-07
-2.71479e-06
8.79746e-07
-4.29559e-07
2.90469e-08
-0.0355587
9.46739e-06
2.86213e-06
-0.00327105
1.68948e-07
3.64721e-08
2.44941e-05
-2.61476e-08
2.71755e-06
-0.0662745
3.23068e-06
4.5614e-08
-3.38943e-07
3.99558e-06
5.85502e-08
-3.10219e-07
-0.0316173
1.5454e-08
-4.27863e-07
-3.23589e-07
3.16878e-07
-1.4504e-08
-4.81219e-06
2.90588e-06
9.40265e-08
1.18831e-08
0.00823168
5.63692e-08
-1.59411e-08
9.85346e-09
-7.16859e-08
-5.60939e-05
5.72728e-06
-2.06496e-07
-5.13858e-08
-8.34845e-08
2.32364e-07
6.2004e-06
2.16093e-06
1.28762e-08
-6.31069e-07
-2.2299e-07
-2.96048e-07
-0.00311258
3.02066e-08
1.52312e-10
-1.3754e-07
-3.89833e-08
-7.09849e-08
2.10475e-08
-1.32616e-08
-0.0655331
5.10519e-08
2.06052e-08
6.14491e-08
-6.58907e-08
0.000465392
-6.0558e-08
0.0137597
-2.38461e-06
3.40057e-06
5.71748e-07
-0.000261213
-4.93978e-07
-5.40419e-09
4.73847e-07
1.60236e-08
8.96606e-08
-5.8734e-07
2.89091e-07
0.000259772
3.26927e-08
-1.7847e-09
2.53014e-06
-3.77671e-05
-6.68806e-08
3.59908e-08
3.98571e-06
-7.6501e-08
3.3941e-06
1.86173e-08
3.70024e-08
-1.18951e-07
-0.0228415
-7.22322e-08
-3.89003e-05
3.62507e-06
3.17523e-06
3.51003e-08
-9.19176e-08
7.19137e-07
0.00010549
8.5927e-08
-1.69621e-06
2.70449e-08
0.0146731
3.04759e-06
3.11895e-07
3.38323e-06
5.35896e-09
-1.66169e-07
1.19158e-06
4.93773e-06
6.05279e-06
1.21234e-06
1.83747e-06
0.000439007
2.72475e-07
2.0812e-07
3.76875e-08
-1.66356e-05
4.87989e-06
3.75047e-06
-3.10839e-07
-1.08922e-06
0.0010695
-0.00452439
-2.43327e-07
-4.36178e-07
0.000754977
0.000821753
-3.82728e-08
1.901e-06
-4.68017e-09
-3.14439e-07
1.5519e-07
5.27341e-08
4.9136e-08
-0.0394602
2.50933e-07
-4.76813e-09
3.56213e-06
0.00064694
-0.00760253
4.44624e-06
-7.76246e-05
-2.64936e-08
0.00128567
4.20416e-06
1.52933e-08
4.37455e-08
-0.00104572
2.29256e-07
3.69041e-08
4.27297e-08
-2.05822e-06
4.4392e-09
1.82891e-08
6.16147e-08
-2.35853e-08
-6.37588e-08
2.1733e-08
3.46263e-08
-1.37322e-07
1.49476e-07
-0.00524051
4.81917e-06
5.76171e-07
-7.5178e-08
-7.29561e-07
-0.000326763
-2.70173e-07
-4.01607e-07
0.000448549
6.22773e-06
1.80867e-08
-6.05684e-08
7.63544e-09
1.46097e-08
1.36819e-05
3.85918e-06
1.33534e-08
-8.48007e-08
0.000341693
0.00155223
0.00785385
-4.68178e-08
6.15801e-07
-0.000960614
4.45773e-08
1.2165e-08
-1.99189e-07
-9.14764e-08
-0.00451186
0.00929004
1.76075e-06
-5.29821e-07
-4.66436e-05
1.41671e-08
7.90259e-09
4.34208e-07
-9.16562e-07
0.00269374
4.30171e-08
-3.17232e-06
0.0039545
-1.11916e-05
5.74115e-09
-1.38939e-07
-1.19392e-05
-4.32286e-08
-5.57716e-07
0.00068213
-1.17213e-09
5.16196e-08
2.78948e-07
1.45072e-07
-6.62709e-08
-1.03395e-08
1.24921e-07
2.64658e-07
-5.6318e-07
-5.78214e-05
1.04983e-08
3.55313e-08
1.7147e-06
2.71777e-07
-1.26276e-07
2.18373e-07
4.30303e-06
3.70664e-06
9.2278e-09
5.505e-08
-0.018784
-2.00722e-05
-0.00663953
1.69671e-08
2.79188e-08
-1.16851e-07
3.72001e-08
1.14297e-08
4.81853e-08
1.4843e-07
4.7965e-08
7.85708e-08
-3.14947e-08
5.3312e-06
1.19661e-06
-1.57065e-07
-0.00240913
4.40725e-06
2.3813e-06
-1.5337e-07
-4.86939e-06
2.00853e-05
6.08037e-07
-2.61503e-07
-6.78322e-07
-1.43256e-09
-0.00568882
-2.75571e-08
3.37743e-08
-7.85295e-08
-0.000715629
-2.71368e-07
1.41588e-05
1.75846e-07
-1.58355e-08
-2.69892e-06
8.19149e-09
4.47129e-08
-1.99508e-09
1.44915e-05
0.000483967
9.92374e-08
-1.16063e-07
-1.54918e-07
0.00217162
2.31967e-06
-3.31743e-05
-8.83282e-08
3.91893e-06
-1.47785e-07
5.48205e-08
3.32093e-08
1.61583e-09
2.70456e-08
2.86038e-06
7.66007e-05
-3.69314e-07
-4.52422e-07
5.01009e-06
0.00777663
3.70099e-06
-2.05836e-07
7.03779e-06
7.76825e-07
0.000395719
1.27998e-08
-2.12584e-07
3.1268e-06
0.000902386
-6.40219e-09
5.69098e-08
-1.3936e-09
4.68123e-08
3.96844e-06
-5.39113e-08
-4.78864e-08
-6.50505e-07
2.4399e-09
4.71164e-06
4.94701e-08
0.00718668
1.05993e-07
2.77487e-06
3.34439e-09
-5.04967e-08
-4.55136e-08
3.88928e-06
-9.84312e-05
4.29025e-08
-2.05935e-06
2.30417e-05
4.29678e-08
7.27287e-08
1.6588e-06
2.75212e-08
-0.0168491
5.20866e-06
8.45921e-08
3.24684e-06
5.13356e-08
-1.18261e-06
-7.12186e-08
-4.57654e-08
1.55721e-08
-1.0671e-07
2.00317e-07
4.87204e-09
4.02595e-08
1.77716e-07
2.43953e-06
5.01915e-08
9.72396e-06
-5.41178e-08
3.6158e-08
3.40905e-07
3.41378e-06
-6.9918e-08
2.76337e-08
4.49306e-08
-5.91368e-08
3.00102e-06
-3.6147e-05
7.83337e-07
-9.82104e-08
-6.05486e-08
-2.08952e-08
5.32122e-07
2.01533e-08
3.456e-08
-3.34327e-06
1.94766e-06
1.54721e-06
2.99863e-08
6.83399e-09
-1.00691e-07
3.121e-08
-5.94569e-06
-1.54294e-08
-5.25982e-06
-1.03824e-07
-3.15e-06
-5.97831e-08
-3.96322e-06
8.47695e-08
5.78055e-06
-0.00835666
0.0021553
0.000606425
-9.96376e-07
-0.00188916
-2.21874e-05
-6.99972e-08
8.96038e-07
-7.23842e-05
7.29287e-07
1.38929e-08
-3.46805e-09
-5.94176e-07
-0.000193868
5.8049e-08
-1.42972e-06
0.00126851
-1.55695e-08
5.05945e-08
-7.26e-06
-0.00853278
2.31028e-06
0.000734784
-0.000971711
-1.2373e-07
-3.71112e-06
1.34716e-06
1.49596e-06
-0.00187156
-6.62525e-08
-0.00902651
-4.8734e-05
-3.81058e-08
-3.1946e-08
4.45879e-07
9.23245e-07
8.57072e-08
-0.0229108
-3.09446e-09
2.41959e-08
3.62283e-08
-0.00198632
-0.00173344
3.04546e-06
1.93601e-07