/*--------------------------------*- C++ -*----------------------------------*\
| =========                 |                                                 |
| \\      /  F ield         | OpenFOAM: The Open Source CFD Toolbox           |
|  \\    /   O peration     | Version:  v2012                                 |
|   \\  /    A nd           | Website:  www.openfoam.com                      |
|    \\/     M anipulation  |                                                 |
\*---------------------------------------------------------------------------*/
FoamFile
{
    version     2.0;
    format      ascii;
    class       volVectorField;
    location    "200";
    object      ddtCorrDdt0(U);
}
// * * * * * * * * * * * * * * * * * * * * * * * * * * * * * * * * * * * * * //

dimensions      [0 1 -2 0 0 0 0];


internalField   nonuniform List<vector> 
18355
(
(-0.27892 -0.132514 -1.71336e-19)
(-1.45883e-05 -6.52397e-06 -4.67383e-19)
(0.00189564 0.0843303 -2.04947e-19)
(-0.000314213 2.38107e-05 -7.92081e-20)
(0.00400225 -0.0195793 4.26138e-20)
(0.0582279 0.0429163 4.84892e-20)
(0.000270472 0.000756554 6.59607e-19)
(0.000657395 -0.020374 -2.03446e-19)
(-0.000156134 -1.45502e-05 -4.2846e-20)
(-0.0380782 0.046479 4.75029e-19)
(0.00545715 0.00238045 5.87174e-20)
(0.0249144 0.0292321 -1.87157e-18)
(0.0264568 0.0301391 2.75686e-17)
(-0.103438 -0.147737 -3.37038e-18)
(-0.000181347 -2.56483e-05 1.94369e-20)
(6.01588e-05 0.000103923 -5.62725e-19)
(-0.000316274 2.07022e-05 1.89752e-19)
(-0.000102513 0.00460102 -1.22054e-19)
(-0.0640418 0.0691581 8.65363e-18)
(-0.0018765 -0.00271109 2.73497e-19)
(0.158299 -0.0286861 -1.6827e-18)
(-0.000596584 -0.000159961 1.03644e-18)
(-3.91518e-05 -1.66755e-05 4.62445e-20)
(0.0521338 0.0455486 -4.06904e-19)
(-4.03095e-05 -2.47251e-05 5.281e-19)
(0.00101923 0.000812537 3.62479e-19)
(0.000705467 0.000611085 -1.28792e-19)
(-0.000329003 5.25316e-05 -3.16174e-19)
(-0.000154869 -1.02803e-05 9.96634e-20)
(0.00592081 0.00377229 -4.09842e-19)
(0.096078 0.0652255 5.94033e-18)
(0.0223461 -0.0157315 -3.67661e-19)
(0.000182709 9.15592e-05 7.52274e-21)
(7.83526e-07 -2.57236e-05 -3.68855e-19)
(-6.61047e-05 5.06681e-07 -2.27324e-21)
(0.000343898 -0.00171771 2.76152e-20)
(-0.00571294 0.00343879 2.65645e-18)
(0.000572194 -0.00182742 -8.70763e-20)
(0.00656424 0.00423648 3.9946e-19)
(-6.92665e-05 0.000406235 6.18549e-19)
(-0.00018084 2.02159e-05 8.7645e-19)
(0.00619511 0.00275975 1.26012e-20)
(3.3942e-06 -2.27588e-06 -1.89258e-19)
(-2.20304e-05 -7.21961e-06 2.88001e-19)
(-1.9218e-05 -1.63622e-06 3.07985e-19)
(0.0500187 0.0341368 2.96727e-18)
(-0.000345543 -8.08491e-05 -1.77651e-20)
(-0.000341096 -8.90797e-05 -3.16109e-19)
(0.0866624 0.116436 -3.64912e-18)
(-7.516e-05 -0.000732755 -7.30484e-19)
(5.54004e-06 -7.14074e-06 2.2823e-19)
(-0.200812 -0.575901 -4.71008e-18)
(-0.000118954 -0.00082916 7.60803e-19)
(-0.09865 -0.00177973 1.3576e-18)
(-0.000338471 0.000108806 3.67186e-19)
(-0.00158028 -0.00322379 -3.31984e-19)
(-4.1286e-05 -2.25384e-06 -5.96607e-20)
(0.11734 -0.0340437 -5.2497e-18)
(0.00130042 0.000767648 -3.19114e-19)
(0.0684632 0.043011 5.96322e-18)
(1.96973e-06 -1.70626e-05 3.88066e-19)
(0.00758823 0.0316896 -4.56083e-18)
(-0.0976802 -0.00927719 -8.13162e-19)
(-0.00144882 0.00015837 1.0365e-18)
(0.0225383 -0.0321023 -1.00126e-19)
(1.50769e-05 -3.4761e-06 -2.97668e-19)
(-0.00181572 -0.00207316 1.85202e-18)
(-0.00603515 0.00332833 -4.99916e-18)
(4.57474e-06 -5.34539e-05 7.44401e-19)
(-0.0461991 0.0482334 -7.52361e-19)
(7.69507e-05 -0.000306605 2.66925e-19)
(-0.000344509 0.000108207 -2.17849e-18)
(0.0163915 -0.011507 -7.46685e-22)
(-0.00199478 0.00628922 2.3986e-19)
(0.0502473 -0.00629921 -4.18524e-19)
(1.04334e-06 -5.71508e-05 -2.21427e-19)
(0.121428 -0.0318851 -4.84347e-18)
(-5.84001e-07 -5.6011e-05 -6.36303e-20)
(5.44219e-05 -0.000293252 -3.52672e-20)
(0.0478556 0.000264962 -9.24068e-20)
(-0.00156825 -0.00216418 -1.19268e-18)
(0.0397666 0.0207185 -1.45712e-18)
(1.98371e-06 -5.64226e-05 -5.1616e-19)
(-0.00115523 -0.0038249 3.99756e-20)
(-0.017784 -0.0246699 1.08077e-20)
(-1.54388e-05 -5.07473e-06 3.22763e-19)
(-0.000285212 -1.03134e-05 -1.14518e-19)
(-0.0171283 -0.0100835 -4.13054e-19)
(-0.000261058 -0.000115462 -3.57259e-19)
(-0.0165991 -0.0117405 8.82675e-19)
(-0.0157484 -0.376747 -1.45713e-17)
(0.0918401 -0.0422366 1.313e-19)
(0.0341885 0.0219019 6.23209e-19)
(8.02931e-05 -0.000716424 -5.77487e-20)
(-0.0878478 0.0237554 -2.54325e-18)
(-0.00130401 -0.00142724 -1.08924e-18)
(-0.000255039 -0.000144512 -5.40551e-21)
(-0.00103089 -0.00113353 5.1251e-20)
(-0.036497 0.0265639 2.72964e-19)
(-0.000404839 -0.000173636 -3.42521e-18)
(-0.016208 -0.0230646 1.60852e-19)
(7.20094e-06 -0.000283248 -2.69178e-19)
(0.000104962 -0.000643909 -1.09532e-19)
(-0.00010781 -6.8423e-06 -1.17914e-21)
(-0.00134462 -0.00264739 -1.26613e-18)
(6.64224e-05 0.000100483 7.62715e-19)
(0.0250424 -0.0295492 1.2968e-19)
(-0.0962273 0.0274005 -1.11517e-20)
(-0.0123749 -0.00153553 4.81327e-20)
(3.58408e-05 8.85065e-05 -7.47977e-19)
(-4.37312e-05 -4.6116e-06 -4.215e-19)
(-2.67973e-06 1.09216e-08 -6.50759e-20)
(0.0127867 -0.00262211 -1.08469e-20)
(-0.000875059 -0.00352846 7.27607e-19)
(0.0482761 0.0573635 8.98155e-18)
(0.00549117 -0.00521383 1.40025e-19)
(-7.67139e-06 -0.00027738 6.4768e-19)
(0.0549194 0.00767849 5.59777e-20)
(-0.000271909 -0.00150518 3.04482e-18)
(-0.00190176 -0.00177661 -4.15983e-18)
(-0.0383864 0.0437599 -1.24409e-18)
(0.00571918 0.0850487 -3.15687e-19)
(-0.00547888 -0.412049 -6.64352e-18)
(-0.0221554 -0.0136484 5.81636e-19)
(0.0523609 0.0133953 -8.05904e-20)
(0.0514211 0.0399281 -2.40257e-18)
(0.000492126 0.000814752 -6.46959e-19)
(-0.00031517 1.68516e-05 8.11645e-19)
(-0.276744 -0.0944004 1.89544e-19)
(-0.000495451 8.37388e-05 -1.48934e-18)
(-0.00025529 -0.000148608 -3.216e-21)
(-0.177038 -0.540721 1.91984e-19)
(-0.000378229 -5.57684e-05 -1.7538e-19)
(-0.0157575 0.0354672 -2.36902e-18)
(-0.0268336 -0.0690222 2.78227e-19)
(-0.000264485 -7.97382e-05 -2.02779e-19)
(-0.059365 0.0738464 -6.03767e-18)
(-0.0531069 0.021326 1.22115e-19)
(-0.000275631 -9.67085e-06 -3.19833e-18)
(0.102618 -0.0411678 -1.18046e-18)
(-0.00480131 0.000705347 4.50562e-18)
(0.0184422 0.00396673 3.46311e-20)
(-0.000310989 -0.000178143 -3.11455e-20)
(-0.248156 -0.546085 1.65874e-17)
(-0.0208818 -0.0719551 3.73808e-19)
(-0.000213755 3.2867e-05 3.38061e-20)
(0.066679 0.0523381 6.06629e-18)
(-0.00013843 3.94026e-05 9.71308e-21)
(0.0127907 -0.00145815 3.29532e-20)
(0.0169596 0.0673199 -2.74734e-19)
(-0.000329577 4.76731e-05 2.96778e-19)
(-0.00182226 -0.00164433 1.78041e-18)
(0.000436466 0.0011275 -1.05772e-19)
(0.00570227 0.00474074 -1.83087e-19)
(6.29756e-06 9.78754e-06 3.36051e-19)
(-4.76751e-05 -7.96955e-06 2.31606e-19)
(-0.000317018 1.33863e-05 -5.82281e-19)
(-6.50424e-06 -6.36986e-06 -1.46062e-19)
(-0.000313827 -0.000175089 -1.82025e-21)
(-4.73059e-05 -7.77766e-06 1.9137e-19)
(0.00164069 0.00439226 3.69729e-19)
(-0.000380922 -5.56471e-05 -1.30462e-18)
(4.02015e-05 9.62986e-05 4.00934e-19)
(0.0110176 0.00400484 8.03324e-20)
(0.000411221 0.00664198 2.5834e-19)
(-0.0128862 0.031266 3.49737e-21)
(0.0693695 0.0492817 1.05431e-17)
(-0.31095 -0.18709 -1.79523e-19)
(0.0763801 0.0605 -3.98513e-19)
(-0.00486094 0.00043122 -2.63146e-18)
(-2.77162e-05 4.19911e-06 6.65101e-20)
(-0.0160583 0.0333582 1.22288e-18)
(3.66466e-06 -5.71103e-08 -2.8034e-19)
(0.0873514 0.16506 5.81807e-19)
(-3.56147e-05 7.6824e-07 -1.82534e-20)
(-0.000210073 2.34955e-05 8.4255e-19)
(-1.21298e-08 1.61728e-06 4.01551e-20)
(-0.00011867 -2.04372e-05 6.13188e-21)
(-0.0015165 0.00127064 6.72691e-18)
(-0.000781323 -0.00892754 -2.40908e-19)
(-4.11401e-05 -6.33751e-06 8.29426e-21)
(-0.0162253 0.0253374 3.70653e-19)
(-0.000535973 -3.87184e-05 -5.87778e-19)
(-0.00034039 6.81853e-05 3.4212e-19)
(-0.00768996 0.0188257 4.47487e-19)
(0.000227403 -0.000603602 5.58325e-19)
(-5.42096e-05 -1.98643e-06 3.36279e-19)
(-0.013916 -0.0135168 -1.05269e-19)
(-0.000194455 0.000153866 -1.59199e-18)
(0.000981541 0.000669365 3.19877e-19)
(0.0499936 0.0382705 -1.40289e-17)
(-0.0344127 0.0282203 -2.05135e-19)
(-1.15437e-05 5.25176e-06 5.66287e-20)
(-2.18822e-05 -1.13323e-05 5.30859e-20)
(-0.000119477 4.45314e-05 -9.55462e-19)
(0.0456478 0.0639333 9.6699e-18)
(8.87061e-06 -1.06697e-05 1.01583e-19)
(-0.268669 -0.0981412 4.82292e-19)
(-1.13319e-05 -2.4031e-06 3.05131e-19)
(-0.0940408 -0.19364 1.58483e-18)
(0.000206843 -0.000524657 -1.29214e-19)
(-0.00259444 0.00272389 -5.81029e-20)
(0.00614536 0.00535939 1.24588e-19)
(-5.21472e-05 -7.48748e-06 -5.23813e-19)
(-0.297516 -0.146571 1.79198e-19)
(-0.000514601 0.000233196 -1.26878e-19)
(0.0748765 0.0520812 1.67897e-18)
(-0.000339088 6.33223e-05 1.09845e-18)
(0.000164266 0.000135298 -6.5127e-19)
(0.00105809 0.000671555 9.84058e-19)
(-0.000274488 -3.4856e-05 -4.24154e-19)
(0.0267667 0.0352553 2.39777e-18)
(-0.00080668 0.00238767 -7.76591e-20)
(-0.000530932 0.0019021 3.97885e-19)
(-0.000142542 4.98959e-05 -2.07345e-20)
(0.0672284 0.229355 1.66172e-18)
(-6.78895e-05 -0.0087865 2.07641e-18)
(-0.00363656 0.00283056 -1.94861e-18)
(-0.000501753 0.000175544 7.43618e-20)
(-0.000334662 -0.00013181 6.4912e-21)
(-0.0114905 -0.00147936 1.41369e-18)
(1.65342e-05 0.0001194 -3.27339e-19)
(-0.0157444 -0.00748114 7.8578e-19)
(0.0068003 0.000487385 -3.63513e-19)
(-0.0221259 0.0118888 1.05384e-18)
(-0.00358277 0.00154555 5.01469e-20)
(1.29922e-05 8.44495e-05 -5.6687e-20)
(-0.0495377 0.0168856 -8.42298e-20)
(-0.105412 -0.138135 3.07905e-18)
(0.00996287 -0.0124785 4.23427e-20)
(-0.000902962 0.000219564 -6.57365e-19)
(-0.00160217 -0.00253804 5.35091e-19)
(-0.0126248 0.0510084 7.88518e-19)
(1.73204e-05 0.000105249 4.03558e-19)
(0.0103231 0.00626104 -1.82091e-19)
(-0.0181638 0.0108976 -1.43021e-18)
(-0.000939324 0.000740598 -1.61863e-19)
(0.0511692 0.035815 3.38877e-18)
(-0.00166989 0.0032467 2.16425e-19)
(-1.67829e-05 0.00193544 -3.78545e-19)
(-3.58144e-06 -1.91557e-06 1.10319e-20)
(-0.00143936 0.00121613 -3.78967e-18)
(7.03565e-05 0.00151946 -5.23471e-21)
(0.00727961 -0.0122883 1.71921e-20)
(-0.000498366 0.000199973 2.95525e-18)
(-0.000325915 0.000133524 -3.6582e-19)
(-0.000345076 -4.37147e-05 -1.41959e-19)
(0.0220706 0.0354009 -2.2074e-18)
(0.0349211 0.0417855 -1.1987e-18)
(0.000221183 -0.000279994 -7.00446e-19)
(-0.00183663 0.000204571 -2.57273e-19)
(0.0292157 0.0436843 1.81294e-18)
(0.0131118 0.0599098 -2.98077e-18)
(0.00676658 -0.000768532 -1.39182e-19)
(-0.000116622 -1.18183e-05 1.93582e-21)
(0.00919065 0.00577336 -2.92401e-19)
(-0.0018319 0.0032052 1.48181e-19)
(-0.00027905 1.84755e-05 1.71894e-18)
(-0.00391625 0.000900359 2.01633e-19)
(-0.000227093 -6.50211e-05 -8.33117e-20)
(0.0106714 0.068512 1.90692e-19)
(-0.00422594 -0.0268232 -2.55473e-20)
(-0.0301493 0.0238649 1.68073e-18)
(-0.00209505 0.00658958 3.5565e-18)
(0.00675563 0.00604 -3.31098e-20)
(0.00673757 0.0167871 -2.72107e-19)
(0.015184 -0.00093111 -1.59073e-18)
(-0.0425234 0.0285762 -3.38672e-19)
(-0.000224544 -5.36191e-05 1.03454e-19)
(-0.000332526 0.000133614 8.02713e-19)
(0.0014874 0.000473058 3.55315e-19)
(3.43825e-05 7.90992e-05 -4.0069e-20)
(-0.00304736 0.00252263 -1.96662e-19)
(-0.00362893 0.00305588 4.17361e-19)
(-0.000332405 1.60784e-05 -4.78915e-19)
(-0.000321141 -1.67044e-05 1.43633e-19)
(-0.0136081 0.00796 4.73586e-19)
(-0.000255999 -6.79556e-05 9.2523e-20)
(-0.0464561 -0.0372143 -6.64096e-19)
(-0.041694 0.25963 -7.97406e-18)
(-0.0102544 0.00837541 -3.55563e-19)
(-0.000260934 -4.22998e-05 2.35442e-18)
(0.00698439 -0.00505047 6.78074e-19)
(2.70083e-05 6.62648e-05 2.79037e-20)
(-0.0186634 -0.00748762 -1.39851e-19)
(-0.000484852 0.00029401 -4.61888e-18)
(0.000899046 -0.0102095 -3.90049e-19)
(-0.000166387 2.49093e-05 -3.35358e-19)
(0.000903611 -0.00960173 -1.04495e-18)
(-0.00108503 0.128193 7.06641e-19)
(0.000169845 0.000110189 7.33777e-19)
(-0.00892732 0.0158542 1.74735e-18)
(-0.00071232 -0.00124451 -5.63254e-18)
(-0.0036145 -0.00175617 3.37791e-19)
(0.0147781 -0.00385091 5.84478e-19)
(-0.000181917 -1.92128e-05 5.38181e-20)
(-1.0833e-05 6.25694e-06 6.03869e-19)
(-0.0414911 -0.0341265 -1.58565e-20)
(-0.000306262 -2.541e-05 2.7877e-19)
(0.0186298 0.000272893 3.22185e-19)
(-0.00526432 0.00396906 1.17709e-19)
(-0.0217023 0.0516758 3.5606e-18)
(-0.020806 -0.0038212 2.80934e-19)
(-0.0309446 0.0255913 -4.09301e-19)
(-0.00186181 0.00372543 -2.28747e-19)
(-0.015381 0.00904259 -3.75557e-19)
(-0.000277547 -0.0005838 -7.94332e-20)
(-0.00154261 0.00255223 5.50397e-18)
(-0.00216622 0.00632815 -5.51113e-18)
(-0.0098787 0.0157453 7.25569e-20)
(-0.0145508 0.0263303 -4.02789e-19)
(0.0137218 0.1011 4.08805e-19)
(-0.000360502 -6.80376e-05 1.48188e-19)
(0.00323269 -0.00441387 1.47728e-18)
(-0.0845337 -0.0183873 2.31604e-19)
(0.00775321 -0.00538356 -1.58746e-19)
(-0.000363184 -5.74481e-05 1.66397e-20)
(-0.000334479 -0.000111041 -3.69066e-20)
(-0.000344526 8.19944e-06 -1.44727e-19)
(0.0018944 0.0155318 -1.33263e-17)
(0.0164658 0.0976523 -2.43687e-19)
(0.142935 0.0741403 -1.36533e-19)
(-0.0223016 0.0241899 -7.20232e-19)
(-0.0116142 0.00948418 3.38104e-19)
(-0.00440652 0.00104046 -7.1586e-18)
(0.0098426 0.0314609 -2.68683e-19)
(-0.000120354 5.8421e-05 4.55465e-20)
(-0.000503984 0.000252841 -1.3915e-18)
(-0.00444843 0.000783838 -4.3606e-18)
(-0.000379425 0.000199477 -3.79272e-18)
(0.00864257 -0.0134217 -4.70779e-20)
(-7.22809e-05 -8.40037e-08 -1.16861e-21)
(0.0118673 0.0895984 -6.57349e-19)
(7.56761e-05 0.000100368 5.31085e-20)
(0.0543963 0.0233395 7.74043e-19)
(-0.00023178 5.4574e-05 1.60758e-19)
(-9.4756e-05 0.000346536 -1.49911e-19)
(-0.00288379 0.00415714 -4.30713e-19)
(0.0259924 0.0387792 -1.64663e-17)
(-0.307395 -0.218283 -2.08881e-18)
(0.00601881 -0.012887 3.46382e-19)
(-0.0225976 0.0169033 -1.70425e-19)
(5.1182e-05 -0.000210693 3.0135e-19)
(-0.000267009 -0.000127993 3.82572e-19)
(-0.000375668 0.000185568 3.24801e-18)
(-0.00591221 0.000895206 -5.7093e-19)
(-0.0344158 0.0595509 -1.07501e-18)
(-0.000274043 -0.000156953 -7.3903e-20)
(-0.000267226 -2.66737e-06 2.15038e-19)
(0.00864255 0.0211124 -2.2234e-19)
(-0.000128023 -0.000219878 -1.99842e-19)
(-0.000280634 -0.000132969 5.50884e-20)
(0.0215058 0.0531219 8.10903e-18)
(-0.00506742 0.00111619 4.81797e-19)
(-0.000346324 -1.55061e-05 4.36487e-19)
(-0.000591382 0.000254461 1.44973e-20)
(0.00190925 -0.0110374 8.70563e-20)
(-0.00030487 -6.8126e-07 4.71107e-20)
(0.00294696 -0.0107506 1.61938e-19)
(0.000152517 0.000183562 -1.03146e-19)
(-0.000269372 1.90178e-06 -5.27825e-19)
(-0.000381276 -0.000141693 3.46405e-18)
(0.0644672 0.0422613 -1.31336e-17)
(0.00499423 0.0219321 -5.12148e-19)
(0.000124648 0.000202966 3.1891e-19)
(-0.000310903 -0.000166279 -3.65511e-20)
(-0.0130877 0.00459638 7.86895e-20)
(-0.000343867 2.38798e-05 -2.65616e-19)
(3.56234e-07 3.59583e-06 -3.58398e-19)
(0.00747834 0.0374129 8.86671e-19)
(0.0088958 0.0203851 1.70776e-19)
(-0.0176998 0.00701862 1.28134e-18)
(-0.000375374 0.000147359 -3.78114e-18)
(-0.00100304 0.000760343 -6.24469e-18)
(0.0262282 0.0323518 -8.40587e-18)
(0.00157697 -0.00178108 -1.57926e-19)
(0.00988542 0.00401751 8.73096e-19)
(-0.00147082 0.00266518 -7.36146e-18)
(0.000117529 0.000122942 2.36478e-21)
(-0.0112714 0.00475666 -6.04443e-19)
(0.00878199 -0.01265 3.95447e-20)
(-0.000391438 -6.06889e-05 2.49475e-19)
(-0.000274128 4.41106e-06 5.84769e-19)
(0.000497083 0.0044076 2.41726e-19)
(-0.000199856 -9.92178e-06 7.99738e-20)
(0.00150815 0.00331547 9.31258e-19)
(-0.000127544 5.2338e-05 8.45015e-19)
(0.0372814 0.00565079 1.59418e-18)
(0.000452216 0.00146727 3.51743e-19)
(-0.00192467 -0.00124054 -2.42959e-18)
(1.16834e-05 -2.65585e-06 1.76862e-19)
(-0.000347373 9.10099e-07 3.9167e-20)
(-0.0030146 0.00210218 -1.71003e-19)
(0.00148954 0.00116264 8.15723e-20)
(-0.00172135 0.0267614 6.4926e-19)
(0.0557568 0.0987069 -6.77611e-18)
(0.00884997 0.0257913 6.46479e-19)
(-0.00232324 0.00171018 -5.17266e-19)
(0.01023 0.0600228 -7.04436e-19)
(0.00872146 -0.00269005 1.59953e-18)
(-0.000224588 4.82314e-05 3.28699e-19)
(-6.94383e-05 -1.3897e-06 -2.78294e-21)
(-0.0081729 0.0142092 -2.91956e-18)
(-0.000200429 0.000165376 2.17046e-18)
(-0.0195389 0.00753585 -7.239e-19)
(0.000170132 0.000569361 3.40706e-19)
(-0.00218024 0.00907969 -1.72823e-19)
(0.0142394 0.0301518 1.77443e-19)
(-0.0271294 0.0174446 -7.56071e-19)
(-0.317745 -0.25824 3.15173e-19)
(-0.0406934 0.0188148 -9.40521e-19)
(-0.000106543 -1.23933e-05 2.49666e-21)
(0.157947 0.181848 2.72502e-18)
(-0.000461694 -0.000145005 4.38294e-18)
(-0.000332283 3.3317e-06 -9.81165e-20)
(0.147812 -0.0194341 -4.50372e-19)
(-0.000225912 6.84041e-05 -1.91187e-18)
(-0.0093083 0.00365863 5.57141e-19)
(0.000144434 0.0013867 2.22359e-20)
(0.0296738 -0.0317749 -3.42129e-20)
(-0.000234499 7.36749e-05 1.38857e-18)
(-0.0134504 0.0321624 -1.41856e-18)
(0.064933 0.0202058 1.9101e-19)
(-0.0255437 0.0223734 5.10579e-19)
(-0.000499882 7.07309e-05 -2.00321e-19)
(1.34795e-05 -1.90128e-05 4.29485e-19)
(-0.0265736 0.0241703 -7.7627e-19)
(-0.00045581 -0.00148117 6.47344e-19)
(-0.000240372 4.12303e-06 5.64368e-20)
(-0.027876 0.0387588 1.22467e-19)
(-0.00312329 -0.0215453 2.0578e-19)
(-0.000331271 -3.58882e-06 -1.48177e-20)
(-0.00806958 0.0148955 -1.86329e-18)
(-0.00283103 0.0271566 -4.12675e-18)
(7.10139e-06 -1.5621e-05 -1.57763e-19)
(0.000385903 0.000408004 -7.95283e-19)
(0.00481402 -0.0116594 -2.45507e-19)
(0.103598 0.211061 -5.72168e-18)
(-0.0184663 0.00340808 1.76458e-18)
(-7.58514e-05 -0.000208304 -2.74624e-19)
(-0.000373516 -0.000630981 -3.01286e-21)
(-0.00637474 0.0113884 8.87294e-18)
(-0.000200004 -6.30732e-06 8.90434e-20)
(4.58341e-05 6.92977e-05 1.67908e-19)
(-0.000420806 0.000161737 -2.8022e-19)
(-0.0241926 0.0171901 9.69675e-19)
(0.0540295 0.0948976 3.91429e-18)
(0.000106389 0.000127397 9.67722e-20)
(-4.41291e-05 -1.69593e-06 1.2116e-19)
(-0.000270011 3.09466e-05 4.94155e-19)
(0.0271772 0.0403966 -9.73246e-18)
(0.00970827 -0.0106331 1.19703e-19)
(3.64296e-06 4.38244e-05 -3.16426e-20)
(-0.00944049 0.00228351 -9.37729e-20)
(-0.0169546 -0.00678846 -1.22006e-18)
(-0.000388155 0.000390463 1.62778e-18)
(0.0480827 0.0631536 -1.30158e-17)
(0.00672708 0.0332301 9.99295e-19)
(-0.000573643 -5.98029e-05 2.25473e-18)
(-0.000199415 -7.82793e-06 -1.19922e-19)
(-0.0172981 0.00294237 -1.91816e-18)
(0.0306407 0.0379954 2.1061e-17)
(-0.0399243 0.0398829 -1.73653e-18)
(9.33352e-05 0.000125627 -6.14171e-20)
(-0.183781 0.00160088 6.27193e-19)
(-0.000273811 -8.027e-06 3.11154e-18)
(0.000106635 0.00013009 1.36241e-19)
(-0.0232623 -0.00603998 1.1922e-18)
(-0.000798605 -0.00158837 6.17547e-19)
(0.0402481 0.00427432 -8.00207e-19)
(0.0149976 -0.0131184 -1.80245e-19)
(-0.0020311 -0.00139573 2.44269e-19)
(-0.00238564 0.00712069 -3.77508e-20)
(-0.000655677 -0.000123515 -3.19875e-18)
(0.0186711 0.0537835 -4.71757e-18)
(-0.000172779 -0.00172624 -1.54074e-18)
(-0.00185601 0.00579019 -6.19902e-18)
(-0.000182221 -0.000275236 1.54023e-18)
(7.46978e-05 0.000110382 -1.55452e-19)
(-0.000720262 0.000476268 2.23776e-18)
(8.93719e-05 0.000121103 2.03548e-19)
(0.00355612 0.034559 -7.21792e-18)
(0.0484694 0.103728 1.47085e-18)
(0.0319387 -0.028691 -1.3863e-19)
(-0.000187914 0.00530987 2.25758e-19)
(-0.000432669 0.000275402 -4.72762e-20)
(-0.000121551 -0.000270868 -2.90767e-19)
(0.00125426 0.000909119 -2.55345e-19)
(-0.00136394 0.00381344 -4.57399e-20)
(-0.00159908 -0.000430369 -1.59549e-18)
(-1.32037e-05 0.000351391 -8.14321e-20)
(-0.000193409 0.000218141 2.87365e-19)
(-0.0198356 -0.00656699 1.83141e-19)
(1.38266e-06 -4.19731e-06 -1.1163e-19)
(-0.00154701 -0.00077676 1.2389e-18)
(0.0139469 0.061267 -8.1185e-19)
(-0.243376 -0.0565493 -8.423e-19)
(-0.0881834 -0.0115866 1.98092e-18)
(-0.000503462 0.00012083 2.48354e-19)
(-3.15952e-05 -4.04194e-06 -3.20756e-19)
(0.00373082 -0.0120335 8.68555e-21)
(-0.00055794 -0.000125052 -1.11666e-18)
(0.0163517 0.0533384 -2.424e-19)
(-0.00283132 0.0971415 -1.86386e-19)
(0.00313595 -0.00361617 -6.99745e-19)
(0.000141988 -0.00410383 -7.74756e-20)
(-0.0067718 0.0050004 8.97257e-19)
(-0.00133149 -2.60549e-05 -9.11494e-18)
(-0.00314283 -0.000193582 -2.18797e-18)
(0.05409 0.0294137 4.65827e-19)
(-0.00830883 -0.010269 -2.54165e-20)
(0.000325727 -0.0013265 -3.28318e-19)
(0.00866927 0.172383 7.90636e-18)
(-0.000277925 -1.84053e-05 -2.4475e-19)
(-0.300836 -0.178456 5.90218e-19)
(0.126776 0.209132 -2.23357e-18)
(-0.00173642 0.00358821 1.18999e-18)
(0.000266358 0.000397106 5.51515e-19)
(0.0557214 0.027536 1.27001e-17)
(-0.000332793 2.29375e-05 3.88052e-19)
(-0.0136263 0.0302572 -2.51039e-18)
(0.0242106 -0.014276 -5.68603e-19)
(-0.0476597 -0.0619062 4.91553e-19)
(5.53342e-05 -0.00173792 1.77562e-18)
(-0.000681849 0.000474719 5.53863e-19)
(-0.000393701 0.000379292 2.03581e-19)
(-0.0318577 -0.0649542 -9.77922e-20)
(-0.0381462 0.00487966 -1.53634e-17)
(-0.0388018 -0.0626679 -1.44958e-20)
(0.0571905 -0.0397778 -6.13368e-19)
(-0.00252665 0.003146 1.10905e-19)
(-0.000384574 0.000369612 2.33955e-18)
(-0.00154671 -0.00368345 -2.10138e-18)
(-0.000321004 0.000153454 5.72588e-19)
(0.00102881 -0.0043152 -5.87561e-19)
(0.11871 -0.0495778 2.92411e-18)
(0.0549516 0.258455 2.70103e-19)
(0.0556295 0.106354 4.11117e-19)
(0.0602678 0.0722104 8.68643e-19)
(0.00788258 -0.0077305 3.5607e-19)
(0.019711 -0.0147586 -1.6528e-19)
(0.0144999 -0.000871575 -1.6448e-19)
(-0.000350413 -5.86029e-05 -1.36306e-20)
(-0.000346934 1.13527e-05 1.54622e-18)
(0.00952571 -0.00843224 -1.07294e-19)
(-0.00558724 -0.00242719 -1.25929e-18)
(-0.000501498 0.000303234 9.57208e-19)
(-0.000313864 0.000149462 2.99239e-19)
(0.0617857 0.0279976 2.98249e-20)
(-0.000244667 -0.000121368 7.69832e-20)
(0.0642901 0.0766642 -1.15972e-18)
(0.00291784 -0.00638754 -1.65437e-19)
(-0.00463341 0.0352799 -6.64443e-18)
(0.0279298 0.0335119 1.13332e-17)
(-0.000345491 4.33057e-07 -6.66457e-19)
(-0.000478182 -0.00362285 -9.76069e-19)
(-0.26864 -0.0816919 5.04161e-19)
(-0.000203742 0.000225712 -3.82649e-18)
(0.132429 0.096665 4.18725e-19)
(-0.000277076 5.36255e-06 4.63734e-19)
(0.0831501 -0.0336536 -7.09503e-19)
(-0.0075527 -0.0107157 5.42324e-19)
(-0.000186897 2.62186e-05 -9.60671e-19)
(0.0144572 0.000437872 1.97062e-19)
(-0.039335 0.0295192 5.95867e-19)
(-0.0441552 0.0172844 1.16699e-18)
(-5.70313e-05 -4.85134e-06 4.74018e-19)
(4.91234e-06 -2.21201e-05 3.95403e-20)
(-0.00655188 0.0100869 -6.79444e-18)
(-0.0016609 0.00376589 4.60956e-18)
(-0.00618595 0.0365976 -2.81518e-18)
(-0.000157472 0.000135507 1.48175e-18)
(0.009078 0.0315792 3.22996e-18)
(-0.000240161 -0.000107981 5.77347e-21)
(-0.00818696 0.0956592 -6.28609e-19)
(-6.42608e-05 -5.65288e-07 -1.14732e-21)
(-0.000342154 -0.000154487 -6.2526e-20)
(0.0187285 0.0701726 1.26527e-18)
(0.000116351 0.00588615 9.33375e-20)
(-0.0167517 0.0074278 9.35675e-19)
(-3.77575e-05 4.80078e-07 1.01295e-19)
(0.000894062 -0.00454805 -8.83453e-19)
(-0.00210528 -0.00297894 2.42596e-20)
(0.00174798 0.0787242 9.10135e-19)
(0.124335 0.0731887 1.14238e-17)
(-0.00374593 0.00132754 -4.78278e-18)
(0.00834769 0.00112449 -1.6097e-19)
(-4.72846e-05 3.43667e-06 2.25007e-19)
(0.00620803 -0.00563299 -6.14017e-19)
(-0.000279 -0.000133798 -1.13958e-18)
(-0.00351315 0.00128263 -4.99055e-18)
(0.158453 0.0496761 -2.93938e-18)
(-2.94202e-05 4.5299e-06 -2.5984e-19)
(0.00584873 0.0270013 -1.63427e-19)
(-0.00025428 -1.50612e-05 -9.71946e-21)
(-3.29537e-05 6.05077e-06 1.10319e-19)
(-0.00385725 -0.000282654 7.46392e-18)
(0.0111332 0.0517615 1.60564e-19)
(0.00203996 -0.00214929 4.10671e-19)
(-0.0188232 -0.057738 -1.52805e-18)
(-0.00207784 -0.000732817 -8.47139e-19)
(-0.00177871 0.0104782 1.71048e-17)
(0.0697678 0.0357045 5.55036e-19)
(-0.000122962 6.3805e-05 3.934e-21)
(-0.000347685 -2.49012e-05 -4.41817e-19)
(-0.207838 0.00473128 -2.28363e-18)
(-0.0148082 -0.0119898 -4.1682e-19)
(-0.0125145 0.10023 -2.50348e-18)
(0.0136462 -0.0168107 -7.66448e-20)
(-0.000188491 0.000239797 -5.05162e-19)
(-0.000299349 0.000165904 -1.3339e-18)
(0.000141478 -0.000320041 2.61972e-19)
(-0.00111964 0.00623344 -3.10755e-19)
(0.000244834 -0.000204737 1.00748e-18)
(9.94419e-05 0.00116481 -3.44166e-20)
(-0.0233996 -0.103519 -3.21194e-19)
(-0.0583685 -0.341124 5.8178e-18)
(-0.000354196 -0.000129802 8.01197e-20)
(0.0450795 0.354749 4.10633e-18)
(0.0915473 0.250279 -4.72517e-18)
(0.00430104 0.00161427 -8.24243e-20)
(0.0192211 0.0768777 -1.81119e-18)
(6.3107e-05 9.24936e-05 8.37997e-21)
(-0.237469 -0.137736 1.14347e-19)
(-0.0163215 -0.0912454 1.15402e-19)
(-0.00014335 0.00014014 -2.21842e-20)
(0.074582 0.0373273 -5.94602e-19)
(-0.00690147 0.0129946 4.5519e-18)
(0.0527616 0.0677078 4.62336e-18)
(-0.0138428 0.0800714 -1.13133e-18)
(-0.000511327 -6.4864e-06 -9.46745e-20)
(0.000157784 -0.000291396 6.47961e-19)
(1.0661e-05 1.65245e-06 5.38688e-19)
(-0.0084523 0.0220261 3.44103e-19)
(0.000939815 0.0154049 7.00538e-18)
(-0.000557617 9.26956e-05 -1.21817e-19)
(-0.000799886 0.000798764 4.56322e-18)
(-0.0332081 -0.0978138 8.76262e-20)
(-0.000484606 -7.71284e-05 -2.63548e-18)
(-0.00696013 0.0137255 3.0571e-19)
(0.000283877 -0.000357326 -2.73134e-19)
(-0.00583938 0.0118667 -8.18205e-18)
(0.30039 0.0425465 1.36434e-18)
(-0.0211465 -0.0615999 2.67873e-19)
(0.0108269 -0.00974194 3.47128e-19)
(-0.0217235 -0.0485794 1.72996e-19)
(-0.0148967 -0.0151381 1.0462e-19)
(0.132461 -0.0192574 3.01336e-18)
(-0.000315334 -0.00406992 1.48193e-18)
(-0.00029111 -0.000188455 2.41297e-20)
(0.00344691 -0.00557825 -6.55765e-19)
(-0.0202002 0.0668152 1.26929e-18)
(0.00477451 0.00585875 -3.72617e-19)
(0.00250428 0.0131376 -3.3585e-18)
(-0.000520341 8.11618e-05 4.1251e-19)
(-0.105283 -0.115464 -1.53184e-18)
(-0.00026375 2.9341e-05 -5.76324e-19)
(-8.17167e-05 0.000195103 -1.51663e-18)
(0.0697895 0.164538 -5.49833e-19)
(-1.27371e-05 9.43637e-07 4.26084e-19)
(0.00331188 -0.00634386 -1.29142e-20)
(-0.0142199 0.00723525 -6.96135e-19)
(-0.0178162 -0.052017 -2.66107e-19)
(-0.000192515 0.000257103 3.43885e-19)
(-0.000253724 0.000106801 -5.4911e-19)
(-0.00361014 -0.000709959 -2.39473e-18)
(0.00122928 -0.0050526 -1.53058e-19)
(2.56992e-05 0.000156401 -6.52347e-19)
(0.00225391 0.000363747 5.59739e-19)
(0.0160668 0.00293901 3.07251e-19)
(-0.10553 0.0009112 -2.52885e-19)
(-0.00207671 -0.00101091 -2.19877e-19)
(-0.000121294 -2.56021e-05 -1.27549e-20)
(-0.0201638 -0.0126064 -6.67909e-19)
(0.0691951 0.0256442 -7.57226e-19)
(-0.000498486 8.01909e-05 -1.02329e-19)
(-0.0155793 -0.046185 -1.00256e-19)
(0.0490502 0.0597628 -9.06726e-18)
(-0.000383777 0.000386786 -5.70668e-19)
(-0.0806684 -0.018572 3.74043e-19)
(6.45275e-05 0.000169573 -1.11254e-19)
(-0.000845874 0.0880614 -4.4307e-19)
(-0.000311631 0.00025789 6.43842e-19)
(-6.22061e-05 0.00154919 -1.43424e-20)
(0.0207574 0.0676911 3.89855e-19)
(0.000457902 -0.00194081 3.6818e-19)
(0.133899 0.121429 -3.33833e-18)
(-0.00197049 -0.00088437 -1.57653e-18)
(-0.000245821 0.000108894 -1.00459e-18)
(-0.0209923 0.0063907 4.10606e-19)
(-0.00031552 0.000246273 3.79781e-19)
(2.41535e-05 6.63219e-05 -2.04448e-19)
(-0.000284858 1.54618e-06 1.39349e-18)
(-0.000296273 -0.000192371 2.0293e-20)
(0.00392335 -0.00688087 1.93597e-20)
(-0.0156337 -0.00906895 -1.89783e-19)
(-0.322382 -0.303137 -3.87698e-18)
(-7.20294e-05 -4.12639e-06 -8.49159e-21)
(0.101253 0.105628 -3.04157e-18)
(5.13818e-07 0.00292025 2.27625e-19)
(-0.00695787 -0.0516222 5.71993e-19)
(-0.0440986 0.253518 -3.10308e-18)
(0.000479616 0.000292066 1.82267e-19)
(-0.000377995 0.000160564 1.64094e-18)
(0.000380599 -0.00457942 7.45296e-19)
(0.000149652 0.000550436 1.26013e-19)
(0.00904084 0.0428304 -1.18538e-18)
(-0.000343375 -4.95885e-05 9.78941e-19)
(1.12367e-05 2.01992e-05 -4.23171e-19)
(-6.34818e-05 -4.33835e-05 1.28814e-19)
(-0.000534278 8.61651e-05 6.67044e-20)
(-0.00020757 0.000218812 2.22096e-18)
(0.0196529 0.0835932 5.16935e-18)
(0.000434023 0.00580162 -7.43207e-19)
(-0.010554 0.0171557 1.04195e-18)
(-0.00229408 -0.00269865 -4.41063e-19)
(0.00241046 -0.00480566 -4.98636e-21)
(0.00152336 0.00378646 -3.79355e-19)
(-0.00300335 0.00374143 2.42249e-19)
(0.00207094 -0.0270394 -4.87729e-20)
(-7.48708e-06 5.15436e-06 -4.10094e-19)
(0.00470468 0.0330457 -6.11397e-19)
(-0.0218485 -0.0158621 -8.48816e-19)
(9.57872e-06 6.62922e-05 -1.09595e-19)
(0.0330337 0.297453 -1.64148e-18)
(0.286611 0.0582084 3.4729e-18)
(-1.88066e-05 1.38866e-05 -5.75233e-19)
(0.0119467 -0.0397708 -1.67039e-19)
(-5.1957e-05 7.43705e-08 -1.18613e-19)
(-0.0011556 0.0474626 1.07808e-18)
(-0.00221599 0.0103573 -1.51585e-17)
(-0.00016598 0.000102262 9.76502e-21)
(-0.00607072 0.0106238 7.01614e-18)
(0.00286234 -0.00516088 -6.67673e-20)
(-0.0020163 -0.0473292 -4.23495e-19)
(-1.49742e-05 9.97952e-06 5.50871e-19)
(-0.00148808 0.00295571 -7.07381e-19)
(0.0119301 -0.0847515 6.00767e-19)
(0.011047 -0.0627751 -1.4063e-19)
(0.0202453 0.0285913 -1.58364e-18)
(-0.000217425 0.000224353 2.75371e-18)
(-0.0487938 0.0037987 -7.34624e-20)
(0.0104343 0.0239818 -7.93243e-18)
(-0.183752 -0.14892 -6.89208e-19)
(-0.000163943 0.000148181 6.1366e-19)
(-0.00214123 0.000915868 -7.35676e-18)
(-0.000464291 -7.8496e-05 4.66915e-19)
(-0.000328815 -1.10252e-05 7.44522e-20)
(-0.000371586 -2.01023e-05 -3.20716e-20)
(-7.07034e-05 1.12142e-06 7.55876e-20)
(-2.51576e-05 -3.71824e-06 -9.06122e-19)
(0.00676162 -0.0478637 1.65475e-19)
(-0.00800378 0.00157335 -5.41013e-19)
(-0.000100581 -3.69338e-05 3.2095e-19)
(6.14052e-07 -3.60821e-05 -2.48894e-19)
(-3.98732e-05 -9.49932e-07 1.94707e-19)
(-5.84353e-05 -0.00014416 1.38874e-19)
(0.0106762 -0.0582989 -1.18141e-20)
(0.00908327 0.024089 3.6301e-18)
(0.000180633 0.000126152 7.21121e-19)
(0.00179457 -0.00494054 1.21623e-18)
(-0.000371709 0.000149783 3.43576e-20)
(-0.000420522 0.000224753 3.6215e-19)
(-0.00094727 0.00041333 2.96367e-19)
(-0.000315549 -0.000166167 1.24867e-19)
(0.00413119 0.0182842 -8.81529e-19)
(4.81703e-07 -4.79605e-05 1.28082e-19)
(-0.000273801 -0.000169519 1.28639e-21)
(-5.68804e-05 -2.72636e-06 1.6388e-20)
(-0.000479058 0.000117531 -5.06538e-19)
(-0.00407567 -0.00109219 -1.42053e-19)
(0.00128851 0.00195381 2.89689e-19)
(0.0455098 0.0567644 -1.03354e-17)
(0.0902485 -0.0317876 -2.4969e-19)
(-0.00392834 0.00110871 1.03734e-17)
(-0.000261068 -0.000153711 -6.69188e-21)
(0.0296608 0.036088 -1.22592e-17)
(7.58107e-06 6.14893e-06 1.00914e-19)
(6.94348e-07 -4.02459e-05 3.1212e-20)
(0.000890894 0.00223923 6.28874e-19)
(0.0159314 0.0277404 1.9539e-18)
(0.00106817 0.00475606 -5.35623e-19)