/*--------------------------------*- C++ -*----------------------------------*\
| =========                 |                                                 |
| \\      /  F ield         | OpenFOAM: The Open Source CFD Toolbox           |
|  \\    /   O peration     | Version:  v2012                                 |
|   \\  /    A nd           | Website:  www.openfoam.com                      |
|    \\/     M anipulation  |                                                 |
\*---------------------------------------------------------------------------*/
FoamFile
{
    version     2.0;
    format      ascii;
    class       volScalarField;
    location    "200";
    object      k;
}
// * * * * * * * * * * * * * * * * * * * * * * * * * * * * * * * * * * * * * //

dimensions      [0 2 -2 0 0 0 0];


internalField   nonuniform List<scalar> 
18355
(
0.0268084
0.000137038
0.000241481
0.000140887
0.000214679
0.000332533
0.000146662
0.000220209
0.000152273
0.00396067
0.000160361
0.000205217
0.000206943
0.0140983
0.00014291
0.000135392
0.000140875
0.000156784
0.000233861
0.000151819
0.000262415
0.000149151
0.000136932
0.000338473
0.000137006
0.000149996
0.00014696
0.00014098
0.000153048
0.000162011
0.00642698
0.000181021
0.000137545
0.000134275
0.000145714
0.00014947
0.000158488
0.000149795
0.000162938
0.000148959
0.000151163
0.000161516
0.000134426
0.000136857
0.000136955
0.000240166
0.00014114
0.000141026
0.00718226
0.000144679
0.000141697
0.0244573
0.000144892
0.00022095
0.000143085
0.0001519
0.000144885
0.00785445
0.00015045
0.000321168
0.000134371
0.000193509
0.00021949
0.00014506
0.000187769
0.000139831
0.000154319
0.000158557
0.00013398
0.00410271
0.000142528
0.000143118
0.00017443
0.000159283
0.000692952
0.000134154
0.00438827
0.00013426
0.000142242
0.000546002
0.000154291
0.000371068
0.000134086
0.000156448
0.000173901
0.000148961
0.000153598
0.000166812
0.000140483
0.000167186
0.0131898
0.00025723
0.00034779
0.000144682
0.00183093
0.000146346
0.00014006
0.000144174
0.000187451
0.000148842
0.000172397
0.00014186
0.000144432
0.000130599
0.000154849
0.000135503
0.000187602
0.00204002
0.000162585
0.000135003
0.000141814
0.000146333
0.00016894
0.000156054
0.000251681
0.000161878
0.000141612
0.00062394
0.000152703
0.000153912
0.00416835
0.000241294
0.0147262
0.000170259
0.000548943
0.00024522
0.000146935
0.000141229
0.0368462
0.000147626
0.000140137
0.0193971
0.000143468
0.000190683
0.000196616
0.000140504
0.000235613
0.00285266
0.000142365
0.000255892
0.000155955
0.000233322
0.000140947
0.0344309
0.000196878
0.000146529
0.000317354
0.000131456
0.000168787
0.00521553
0.000140907
0.000153729
0.00014533
0.000177801
0.000134534
0.000138268
0.000141405
0.000148845
0.000141023
0.000139296
0.000157761
0.000143579
0.000135062
0.000202447
0.00016028
0.00161108
0.000331235
0.0446503
0.000487237
0.000155979
0.000145588
0.000188377
0.000147742
0.00757118
0.000145683
0.000150547
0.000145646
0.00013029
0.000151091
0.000161699
0.000149323
0.00142239
0.000148508
0.000141232
0.000229753
0.000144386
0.000150047
0.000166993
0.000143268
0.000147605
0.000241877
0.000187514
0.000137298
0.000134719
0.000143782
0.000255561
0.000139058
0.0499679
0.000137133
0.0158211
0.000144148
0.000153773
0.000163585
0.000149108
0.0426178
0.000146777
0.000473337
0.0001412
0.000137038
0.000145109
0.000146926
0.000284312
0.000151666
0.000148708
0.000131647
0.00786319
0.000161856
0.000155843
0.000147017
0.000141291
0.000161875
0.000133878
0.000165375
0.000177293
0.0001934
0.000158001
0.000134082
0.00296589
0.000383555
0.000169471
0.000145041
0.000154848
0.00384177
0.000134033
0.00020463
0.000221335
0.00014896
0.0002423
0.000155019
0.000148803
0.000137363
0.000150865
0.000146757
0.000167564
0.000146795
0.000143081
0.000140937
0.000299112
0.000327418
0.000143271
0.000146659
0.000312197
0.000217949
0.000178552
0.000130314
0.000211206
0.000155024
0.000147435
0.000157332
0.000139637
0.0054514
0.000895661
0.000184451
0.000160996
0.000164635
0.000206492
0.000213284
0.000190474
0.000139586
0.000143122
0.000148655
0.000135066
0.00015376
0.0001561
0.000140654
0.000146928
0.000171407
0.000140355
0.000185923
0.00762123
0.000167399
0.000147191
0.000163217
0.000134954
0.000167003
0.000146095
0.000163156
0.000148595
0.000162373
0.00704195
0.000137284
0.000173013
0.000152227
0.000158398
0.000210432
0.000145308
0.000134524
0.000183625
0.000146927
0.000232352
0.000158556
0.000759049
0.000167915
0.000185229
0.000155182
0.000173999
0.000144158
0.000153633
0.000160467
0.000172983
0.00161505
0.000279078
0.000142146
0.000156911
0.000206048
0.000164115
0.000142077
0.00014097
0.000140939
0.00017602
0.00027434
0.0018239
0.00200902
0.000170441
0.0001555
0.000289693
0.000131314
0.000146535
0.00015548
0.00014409
0.000169495
0.000145087
0.00422773
0.000135789
0.000494532
0.000143511
0.000148704
0.000156117
0.000211609
0.0479025
0.000167613
0.00171822
0.000149333
0.000140602
0.000143981
0.000162172
0.0044854
0.000140844
0.000145325
0.000349205
0.000148943
0.000140943
0.000217588
0.000159448
0.000140939
0.000144522
0.000164368
0.000151837
0.000164289
0.000135295
0.00014527
0.000148631
0.000290379
0.000350022
0.000135004
0.000140755
0.000216084
0.000141
0.0001471
0.000397832
0.000384073
0.000175563
0.000143838
0.000149165
0.00020776
0.00014889
0.000215002
0.00015377
0.000136482
0.000194484
0.000205557
0.000148135
0.000144139
0.000156875
0.000146368
0.000156563
0.00014373
0.000203708
0.000146826
0.000153196
0.000142106
0.000140991
0.000153057
0.000149982
0.00018489
0.000425133
0.000300917
0.000153589
0.000217168
0.000179523
0.000143724
0.000144743
0.000171131
0.00014328
0.000180435
0.000145928
0.000163546
0.000303867
0.000430301
0.0441257
0.000185661
0.000130754
0.0515432
0.000148829
0.000140591
0.000256893
0.000143076
0.000179016
0.000137067
0.000192969
0.000143044
0.000187198
0.00187913
0.000182256
0.000144022
0.000137539
0.000183317
0.00015267
0.000143005
0.00295933
0.000461412
0.000140535
0.00017176
0.000185057
0.000137457
0.000150323
0.000165808
0.0129797
0.000167933
0.000148964
0.000144403
0.000167593
0.000144617
0.000136006
0.00014389
0.000158346
0.000379286
0.000136274
0.000151088
0.000145146
0.000213449
0.000204699
0.000134634
0.000179803
0.000165832
0.000145126
0.000255335
0.000193478
0.000148716
0.000146088
0.000166937
0.000214877
0.00523242
0.000136065
0.0442799
0.000142864
0.000136266
0.000169307
0.000152956
0.000206376
0.000174185
0.000153493
0.00016059
0.000149165
0.000216394
0.000153155
0.000159648
0.000149181
0.000135843
0.000147785
0.000136033
0.000193183
0.000376328
0.000192733
0.000157892
0.00014715
0.000149198
0.000146337
0.000155256
0.000145329
0.00013537
0.000143664
0.000167376
0.000137471
0.000145146
0.0108344
0.0501252
0.000208732
0.000147438
0.000150579
0.000165883
0.00014898
0.00404838
0.000262104
0.000156122
0.000156877
0.00016031
0.000150381
0.000153804
0.00403622
0.000163656
0.000148739
0.00762913
0.000147061
0.0481927
0.0488587
0.000155665
0.000150015
0.00551171
0.000140715
0.000185739
0.000182062
0.00583647
0.000153217
0.000147638
0.000145005
0.00350155
0.00604988
0.00542518
0.00322714
0.000154427
0.000144871
0.000156374
0.000143133
0.000154124
0.00023888
0.00756608
0.000477078
0.000388847
0.000167866
0.000178093
0.000170981
0.000141194
0.000142189
0.000171199
0.000154997
0.000146296
0.000143082
0.000724845
0.00013996
0.000371568
0.000159276
0.000191444
0.000209879
0.000142247
0.000156117
0.0455954
0.000143624
0.00107345
0.000143484
0.000238351
0.000163708
0.000149169
0.000170723
0.000190365
0.000186258
0.000149992
0.000133964
0.000166193
0.000155991
0.000191568
0.000143452
0.000193624
0.000139899
0.00025657
0.000147151
0.000143517
0.000231514
0.000169692
0.000224002
0.000144566
0.000157671
0.000154965
0.00378806
0.00262594
0.000154681
0.000191539
0.000144787
0.00016278
0.000148378
0.000154394
0.0162482
0.000136778
0.000308994
0.000146899
0.000145166
0.000154843
0.0041297
0.000152025
0.000190363
0.000148686
0.000166873
0.00159822
0.000131455
0.000140994
0.0512395
0.000166637
0.0162208
0.000174615
0.000148065
0.000143091
0.000142938
0.000159264
0.000149864
0.000136369
0.00021545
0.00907835
0.000143291
0.0116152
0.0130607
0.000158474
0.000239632
0.000136216
0.00908886
0.00538866
0.000132498
0.00173574
0.00016954
0.00026918
0.00386428
0.000143355
0.000142931
0.000147547
0.0004606
0.000175295
0.000144388
0.000148807
0.000216377
0.000148538
0.000170485
0.000143733
0.000168096
0.0329159
0.00342615
0.000246592
0.00312487
0.000168092
0.00608099
0.000156808
0.000140631
0.00016043
0.00348198
0.000177907
0.00017373
0.000144194
0.000285735
0.000145325
0.0001484
0.0532837
0.000148364
0.000161077
0.000228316
0.000186504
0.000144572
0.000142863
0.00015475
0.000158482
0.000133934
0.000146359
0.000173105
0.00022923
0.000153027
0.000145518
0.00016901
0.00186017
0.000143588
0.00295854
0.000253359
0.000145017
0.0288098
0.000134491
0.000243329
0.000143597
0.000137806
0.000230725
0.0001538
0.0129156
0.000152728
0.000142877
0.0251011
0.000143574
0.000134842
0.000145667
0.000140731
0.000161865
0.00016568
0.0445626
0.000151856
0.00110386
0.000154316
0.00299286
0.00680918
0.000150458
0.000143944
0.000157602
0.000136375
0.000202448
0.000142499
0.000134734
0.000135641
0.00014421
0.000143546
0.000248731
0.000158958
0.000174406
0.000152111
0.000156584
0.000156761
0.000163125
0.000828195
0.000137399
0.000192828
0.00017081
0.000134247
0.00766275
0.0370862
0.000141262
0.00181551
0.000145004
0.0029672
0.000166698
0.000132343
0.000166609
0.000159542
0.00246556
0.000141987
0.000154338
0.00437995
0.000197583
0.00024715
0.000143513
0.00471274
0.000189383
0.00583038
0.000143459
0.000151851
0.000142939
0.000146166
0.000141942
0.000145136
0.000136788
0.00235994
0.000171283
0.000141223
0.000134208
0.000140283
0.000148726
0.000193981
0.000188805
0.000137273
0.000158557
0.000146742
0.000146933
0.000145653
0.000140858
0.000206168
0.000134231
0.000140284
0.000149672
0.000147218
0.000152097
0.000146715
0.000247006
0.000251985
0.000154901
0.000140123
0.000213087
0.000134631
0.000134298
0.000146659
0.000249319
0.00015775
0.000145604
0.000135908
0.000137191
0.000160323
0.000133907
0.000162541
0.000142395
0.000148341
0.000141842
0.000151669
0.0170779
0.000140571
0.000148841
0.000143555
0.000244044
0.00581968
0.000158324
0.000149878
0.000179831
0.000160164
0.000202264
0.000839718
0.000149298
0.00537129
0.000148948
0.000353571
0.000149051
0.000136754
0.000135737
0.00164117
0.000135366
0.000158601
0.000188436
0.000221645
0.000177344
0.000154308
0.000142528
0.000143666
0.000143417
0.000160131
0.000201425
0.00398239
0.000172609
0.000145397
0.000133925
0.000155569
0.000141775
0.000140994
0.000148362
0.000174381
0.000165991
0.000301019
0.000145325
0.000144319
0.000173368
0.000143138
0.000214997
0.000173248
0.000168831
0.000212073
0.000320773
0.000167142
0.000141191
0.000134003
0.000147411
0.000142957
0.00411386
0.000175038
0.000201274
0.000136777
0.000147025
0.000155424
0.000141267
0.000913413
0.000269928
0.000134327
0.000135665
0.000142741
0.000141953
0.000140927
0.000144444
0.000237127
0.000134825
0.000148835
0.000136826
0.000137951
0.000142067
0.000145933
0.000161686
0.000137907
0.000169732
0.00013587
0.000420104
0.000238112
0.000156137
0.00105911
0.000152453
0.000148578
0.000186239
0.00249099
0.000144529
0.000140271
0.000137036
0.000182614
0.000150945
0.000167172
0.000243237
0.000146419
0.000149366
0.000144637
0.000392357
0.00187109
0.000151919
0.000139368
0.00015601
0.000167857
0.000142241
0.000186806
0.000140341
0.000133817
0.000155133
0.000375857
0.00371055
0.00328234
0.00023954
0.000134595
0.000252139
0.000199125
0.000157508
0.00014338
0.000199176
0.000156215
0.000264156
0.000696575
0.000141836
0.000134677
0.000144665
0.000148414
0.000134787
0.0009051
0.00248718
0.000134548
0.000146671
0.000149465
0.000168231
0.000143885
0.000141872
0.000199372
0.000148828
0.00014185
0.00182837
0.000197427
0.000193184
0.000142782
0.000135847
0.000134744
0.000146144
0.000163343
0.000182008
0.000140564
0.000139112
0.000153005
0.00503743
0.000137061
0.000143894
0.000184964
0.000140998
0.000139183
0.000143533
0.0014538
0.000135653
0.000144411
0.000137126
0.000154842
0.00013568
0.000157108
0.000214012
0.000143924
0.000240193
0.000160503
0.000230086
0.000180058
0.000140819
0.00015893
0.000140412
0.000139054
0.000140828
0.00378325
0.0076278
0.000209394
0.000158678
0.00570326
0.000187696
0.000150043
0.000199799
0.000235234
0.000153038
0.000135303
0.0106458
0.000149832
0.000140526
0.000137732
0.000258774
0.00807188
0.0455568
0.00013889
0.000196201
0.00552803
0.000166515
0.000171646
0.000156556
0.00015535
0.000165727
0.00153625
0.0001534
0.000149966
0.000158879
0.0467743
0.000247277
0.0001438
0.000146194
0.000143407
0.000282025
0.000155415
0.000149333
0.00638937
0.000157021
0.000176153
0.000156538
0.00601077
0.000138612
0.000391394
0.000149694
0.000135614
0.000141272
0.000135833
0.000135653
0.00014078
0.000148134
0.000256
0.000138139
0.000235647
0.000158036
0.000147333
0.000140818
0.000196211
0.000143186
0.000146544
0.000155374
0.00567677
0.000205896
0.000153722
0.000146337
0.000329206
0.000138585
0.000169075
0.000146116
0.0450731
0.000172808
0.00614661
0.000158352
0.000142965
0.000225083
0.00962088
0.000279612
0.000137743
0.000143472
0.000168208
0.0136495
0.000131017
0.000175287
0.000140957
0.000161819
0.00014041
0.000134678
0.000149042
0.000149897
0.000134977
0.00017631
0.000171658
0.000158815
0.000210294
0.00888126
0.000150228
0.00371743
0.000136023
0.000201823
0.000268646
0.000222059
0.00013444
0.000148542
0.000145904
0.00408968
0.000144569
0.000140622
0.000195202
0.000146425
0.000146104
0.000151097
0.000149501
0.000142947
0.0498321
0.00637873
0.000183914
0.000139146
0.00014525
0.0002395
0.000136065
0.000296873
0.00014712
0.000145684
0.000149004
0.000154711
0.00023666
0.000140098
0.000145002
0.0482233
0.000147158
0.000148378
0.000168319
0.000281746
0.000969096
0.000144308
0.000143665
0.0101317
0.00346458
0.0305089
0.000142429
0.000165412
0.000226441
0.00013755
0.000201886
0.000153432
0.00341964
0.000155058
0.000146036
0.000150115
0.000135482
0.000424058
0.000144879
0.000139143
0.00567579
0.000190039
0.000613615
0.000135118
0.000151978
0.000135293
0.000132056
0.000136006
0.000149328
0.000146548
0.000148991
0.000135503
0.000148378
0.000174254
0.00016349
0.000164718
0.000139971
0.000155902
0.000141872
0.00706323
0.000147365
0.000149588
0.000147475
0.000135748
0.000148726
0.000148636
0.000143968
0.000143275
0.000141296
0.000136041
0.00352414
0.00136129
0.000144593
0.000373538
0.000166392
0.000149269
0.000147573
0.000150099
0.00335533
0.000147514
0.000135995
0.000134499
0.000134476
0.0478335
0.000144304
0.000136752
0.000250257
0.000134037
0.000133324
0.000191844
0.000200794
0.000206384
0.000213773
0.0124821
0.000136053
0.00117981
0.000156578
0.000143096
0.000136836
0.000161628
0.00014312
0.000161175
0.000181335
0.000154194
0.000151365
0.0514175
0.000199892
0.0464538
0.00133623
0.00313592
0.000214505
0.000139163
0.000261698
0.00101489
0.000134967
0.00164241
0.000138876
0.000150633
0.00021038
0.00014051
0.000324614
0.000158202
0.000152579
0.000149078
0.000219873
0.000143787
2.40799e-05
0.000142842
0.000136143
0.00354124
0.000133578
0.000149144
0.000148383
0.000178288
0.000142259
0.000144016
0.000153007
0.00210784
0.000144271
0.000144242
0.000136722
0.000154132
0.000142362
0.000150622
0.000579571
0.000141457
0.000157277
0.000147978
0.000154439
0.000161092
0.000140425
0.000148713
0.000198561
0.000146954
0.000147394
0.000158855
0.00490701
0.000150224
0.000141748
0.000143928
0.000159382
0.000206909
0.00015174
0.000140957
0.000141368
0.00013778
0.000131919
0.000135328
0.000160144
0.000197738
0.000179417
0.000146676
0.0125984
0.000139657
0.000148599
0.00719595
0.000174119
0.000133993
0.000189493
0.000151715
0.000140941
0.00378274
0.000148776
0.000168673
0.000132455
0.000216988
0.000139722
0.000134538
0.00013595
0.000586974
0.00021606
0.00014676
0.000196251
0.000135755
0.000142184
0.000139015
0.000211185
0.000144904
0.000138503
0.000149178
0.000152223
0.000142942
0.000145698
0.000140495
0.000147729
0.000146654
0.0001403
0.000155617
0.000135143
0.0156657
0.000185258
0.000136435
0.000233561
0.000157238
0.000140792
0.00013987
0.000151309
0.000140765
0.000160872
0.000155445
0.000197661
0.00020016
0.000147798
0.000188571
0.000218449
0.000143003
0.000147673
0.000194211
0.000152855
0.00549942
0.000135555
0.000144385
0.000151201
0.000147723
0.000143742
0.000156955
0.000140488
0.000150936
0.000143809
0.000152393
0.000139671
0.00020422
0.000144783
0.00015426
0.000187897
0.000143198
0.00341321
0.00466734
0.000155645
0.000161217
0.000159981
0.000134349
0.00018871
0.00014548
0.000164735
0.00805717
0.014733
0.000209725
0.000152353
0.000160863
0.000142701
0.000161708
0.000138732
0.000332153
0.000189097
0.000146697
0.000140729
0.000227451
0.000172604
0.000142799
0.000143128
0.000263558
0.000147733
0.000138421
0.000450469
0.000179287
0.000134855
0.00019469
0.000136148
0.000226133
0.00018086
0.000142978
0.000144247
0.0001548
0.000281934
0.000140129
0.000157372
0.000144236
0.000142996
0.000139799
0.0154463
0.000148257
0.000145138
0.000143793
0.000235955
0.000157721
0.000140298
0.000132886
0.000201845
0.000142175
0.000136907
0.000237779
0.000333497
0.000148671
0.000247479
0.000155245
0.00017571
0.000149798
0.000181789
0.0037096
0.000148401
0.000144411
0.000136993
0.000154925
0.000142768
0.00765701
0.00211091
0.000137467
0.000150068
0.000136481
0.000135455
0.0538972
0.000142859
0.00015207
0.000151917
0.000220886
0.000144458
0.000147828
0.000155463
0.00382031
0.000146536
0.000145267
0.000137374
0.000138392
0.000154459
0.0001741
0.000146754
0.000142082
0.000144963
0.000143417
0.000137036
0.0508587
0.000148135
0.000143578
0.00014183
0.000182611
0.000136558
0.000136925
0.000165807
0.000142184
0.000188802
0.000144009
0.000144397
0.00339901
0.0187404
0.000354644
0.000258506
0.000157395
0.000148302
0.0309492
0.000139708
0.000155468
0.000135098
0.00036855
0.000130438
0.000154824
0.000144554
0.00957019
0.000175119
0.000210225
0.0075179
0.000151023
0.000190526
0.000147906
0.000149673
0.0518106
0.000165927
0.000142122
0.000136084
0.000153716
0.000161728
0.000143951
0.000144988
0.000139689
0.000135042
0.000239238
0.0070228
0.000147997
0.00015836
0.000291945
0.0139535
0.000152058
0.000149458
0.000152531
0.000154661
0.000142343
0.000150596
0.000486633
0.000140292
0.000136362
0.00014611
0.00053467
0.00032505
0.000156521
0.000146701
0.000147171
0.000158625
0.000143624
0.000159081
0.000169522
0.000252919
0.000155564
0.00126412
0.000134654
0.00014283
0.00014824
0.000135457
0.000147041
0.000140071
0.000259406
0.000140893
0.00041588
0.000145396
0.000139075
0.00013762
0.000198913
0.00015149
0.000173657
0.000177452
0.000136001
0.0404242
0.000155247
0.000138043
0.000133378
0.00557256
0.000267982
0.000133637
0.000140484
0.000140586
0.00015054
0.000223487
0.000291124
0.000149588
0.000148466
0.000212395
0.00249684
0.000149496
0.000142592
0.000291171
0.000153921
0.000491195
0.00015467
0.000142297
0.000183317
0.000182358
0.0213087
0.000190845
0.00396188
0.000136913
0.00014219
0.000148985
0.000146506
0.00015388
0.000147822
0.000146048
0.000139488
0.000147749
0.000146162
0.000148834
0.000145154
0.000152305
0.000149316
0.000143562
0.000141192
0.000179087
0.000161326
0.000140378
0.0001452
0.000237723
0.000145396
0.00014877
0.000149008
0.0174895
0.000136943
0.000169286
0.000150593
0.000135971
0.000143403
0.00033634
0.000216099
0.000148976
0.000148669
0.000154685
0.000166999
0.000140052
0.000160427
0.000179876
0.000141196
0.000201872
0.000140987
0.000143174
0.000144054
0.000147637
0.000160688
0.000226217
0.00698065
0.000183635
0.000136189
0.000144904
0.000143383
0.000212347
0.000148947
0.00205492
0.00013974
0.000143764
0.000143443
0.000189275
0.000142531
0.000146459
0.000144034
0.000213771
0.000137019
0.0129822
0.000137044
0.000172199
0.000145151
0.000161367
0.000140771
0.000153483
0.0034091
0.000221962
0.000136237
0.000180965
0.000145195
0.000145871
0.0317369
0.00501766
0.000136261
0.000142739
0.000153082
0.000135869
0.000143713
0.000148335
0.000147509
0.000157957
0.000178359
0.000150103
0.000157672
0.000220446
0.000147636
0.000140798
0.000142103
0.0001549
0.00016025
0.000144087
0.0147966
0.000140261
0.0203409
0.000168495
0.000136388
0.000140341
0.000140071
5.527e-05
0.000146538
0.000155171
0.000146322
0.000141423
0.00575566
0.000150933
0.000176458
0.000147158
0.000145484
0.000151343
0.000143197
0.000150955
0.000143394
0.00015281
0.000149281
0.000149023
0.0028762
0.000166398
0.00393162
0.000140878
0.000191387
0.00015125
0.00570681
0.000182559
0.00070919
0.000151764
0.000134804
0.000171511
0.000142244
0.00450314
0.000149561
0.000201312
0.000151459
0.000381235
0.00694625
0.000154289
0.000176993
0.000139375
0.000137494
0.000148462
0.000134694
0.000147859
0.000152624
0.00013944
0.000162071
0.000197984
0.00538893
0.000140672
0.000234414
0.00013458
0.000142413
0.000143668
0.000197197
0.000147353
0.000227025
0.000148192
0.000143291
0.0361138
0.000140226
0.000154662
0.000142272
0.000156573
0.000511952
0.000165183
0.0394786
0.000145819
0.000181483
0.000152312
0.000141716
0.000143618
0.000181854
0.000165164
0.00014307
0.000151488
0.00014313
0.00298959
0.00013909
0.000292979
0.000278802
0.000185801
0.000158173
0.000214924
0.000202656
0.000134687
0.00793278
0.000142369
0.000255181
0.0001489
0.000151705
0.00660778
0.00697841
0.000159472
0.000270086
0.00014351
0.00514613
0.000131171
0.000320001
0.00013512
0.000152205
0.000201585
0.000145091
0.000139127
0.000149476
0.000144239
0.000178496
0.00529442
0.000163989
0.00258682
0.000141379
0.014123
0.000144299
0.000146849
0.000142881
0.000144624
0.00473676
0.00014692
0.00013807
0.000168013
0.000148065
0.00676802
0.000191044
0.000142948
0.000201233
0.000165434
0.000140463
0.000144712
0.000155826
0.0001366
0.000180401
0.000160293
0.000152286
0.000152304
0.000137243
0.000146432
0.00018186
0.000149661
0.000144847
0.000150079
0.000134814
0.000135575
0.0386069
0.000161601
0.000400355
0.000158514
0.000178765
0.000162346
0.000141984
0.000165381
0.000139007
0.000140745
0.00155396
0.000165162
0.000187348
0.000174564
0.000147232
0.000246053
0.000485867
0.000143277
0.000160935
0.000199235
0.0460228
0.000136445
0.000137996
0.000147677
0.000186702
0.00415269
0.000163766
0.000153799
0.000148729
0.00014203
0.000135192
0.000363671
0.000155372
0.000152814
0.00416572
0.000146716
0.000153902
0.000157093
0.000144983
0.000142793
0.000142986
0.000179275
0.000203602
0.000149014
0.000153015
0.000250957
0.00014215
0.000149307
0.000154396
0.00014666
0.00709174
0.0047313
0.000305814
0.000191039
0.0157879
0.000152533
0.000139806
0.000261965
0.000157678
0.000161354
0.000143028
0.000135282
0.00653731
0.0020775
0.000141376
0.000139552
0.000160878
0.000308544
0.000155464
0.00013529
0.052557
0.000152132
0.000167735
0.000134894
0.000162705
0.000131154
0.000151676
0.000159809
0.000142036
0.0273458
0.000149045
0.000166594
0.000198391
0.00526818
0.000191683
0.000142203
0.000183529
0.000154875
0.000161816
0.000149957
0.000150515
0.000145286
0.000152307
0.00145916
0.000151637
0.00148011
0.000139961
0.000227928
0.000135977
0.000148742
0.000283783
0.00015518
0.000227104
0.000160177
0.000149431
0.00560868
0.0529714
0.000140048
0.0264884
0.000171836
0.000138841
0.000133986
0.0414296
0.0258439
0.000138756
0.000136141
0.000144656
0.000136743
0.030356
0.000252489
0.000130269
0.000133111
0.000139964
0.000239672
0.000175476
0.00714019
0.000135806
0.000268809
0.000146827
0.000178797
0.0402699
0.000164426
0.000139227
0.000139591
0.00710972
0.000136727
0.000141211
0.000136442
0.000164321
0.000151381
0.0279676
0.000161903
0.000148641
0.000142381
0.000157797
0.000227063
0.000184514
0.000141673
0.000141846
0.000218755
0.000177126
0.000148763
0.00355682
0.000164921
0.000153234
0.0531423
0.000151524
0.000159443
0.000148256
0.00121807
0.00014526
0.00014862
0.0511055
0.000159202
0.000141141
0.000143278
0.00013118
0.000182668
0.000206872
0.00014105
0.000136023
0.000150268
0.000185628
0.000159218
0.00013508
0.00014279
0.000139179
0.00016264
0.000172066
0.000145789
0.000142712
0.0385717
0.000141927
0.0118647
0.000161642
0.000164754
0.000154426
0.00014989
0.000144937
0.0151665
0.00019052
0.000186987
0.0286137
0.000161103
0.000140119
0.000360018
0.00013625
0.000189155
0.0166239
0.00016288
0.000141774
0.000153975
0.000188992
0.000142661
0.000142987
0.0345965
0.000142867
0.000151297
0.000141252
0.000146863
0.00013725
0.000188579
0.000206693
0.000135764
0.000141037
0.00607639
0.000142568
0.000137051
0.000140838
0.000140706
0.00028484
0.000169924
0.000153468
0.000153959
0.000149082
0.000138263
0.000182308
0.000199536
0.000157846
0.000262698
0.000151937
0.00015489
0.0286207
0.00014013
0.000136288
0.000143326
0.00014049
0.000148658
0.000132638
0.000148968
0.0160305
0.000144801
0.000141751
0.000156088
0.000140722
0.00257059
0.000147579
0.04668
0.000232442
0.000180855
0.000161411
0.00244992
0.000159572
0.000142979
0.000154705
0.000140472
0.000151944
0.000149969
0.000148342
0.000343532
0.000135895
0.000143759
0.000171211
0.000297271
0.000147748
0.000139764
0.000226215
0.000151118
0.000192627
0.000143022
0.000139898
0.000144343
0.0338668
0.000146272
0.000282533
0.000177859
0.000152971
0.000139673
0.000143051
0.000160275
0.00510146
0.000135837
0.000180039
0.000141742
0.0457585
0.000237519
0.000148976
0.000221632
0.000146045
0.000153553
0.000153828
0.000257713
0.000169113
0.000160629
0.000161909
0.00550112
0.000147723
0.000181382
0.000144494
0.000201592
0.000216631
0.00023774
0.000142738
0.000164725
0.0053477
0.00423748
0.0001545
0.000154277
0.00582898
0.005845
0.000140317
0.000180088
0.000143156
0.000156394
0.000146072
0.000152659
0.000151895
0.0179
0.000147458
0.000148042
0.000180942
0.00560464
0.0027142
0.000209115
0.00413702
0.000139846
0.00539079
0.000183502
0.000142232
0.000141743
0.00692092
0.000157162
0.000145053
0.000142586
0.000168292
0.000138644
0.00014281
0.000321723
0.000145482
0.00014819
0.000141082
0.000143798
0.000151079
0.000139142
0.0534624
0.000176544
0.000153628
0.000139111
0.000165768
0.000390312
0.000142449
0.000147598
0.00565133
0.000231399
0.000143414
0.000154445
0.000138715
0.000140405
0.000199275
0.000221712
0.000140445
0.000143066
0.00572492
0.00124127
0.00870495
0.0001871
0.000149682
0.00409851
0.000140688
0.000155459
0.000154246
0.000139497
0.0514941
0.00761219
0.000168804
0.000186507
0.000346233
0.000133993
0.000133093
0.000152688
0.000164377
0.00310577
0.000136529
0.000168196
0.00151401
0.000284528
0.000146972
0.000150909
0.000254962
0.000142589
0.00015511
0.00134485
0.000140868
0.00014252
0.000139082
0.000245882
0.000141167
0.00016474
0.000149256
0.000215697
0.000163575
0.00531387
0.000142998
0.000142138
0.000166845
0.000147651
0.00019089
0.000148921
0.000200879
0.000206789
0.000140778
0.000144393
0.00814935
0.00028575
0.0173975
0.000139051
0.000143329
0.00015584
0.000145246
0.00014311
0.000143988
0.000145332
0.000148452
0.000139653
0.000139675
0.0001786
0.000153845
0.000170235
0.017773
0.000184889
0.000176793
0.000157711
0.000204347
0.000223691
0.000161775
0.000155433
0.000160245
0.000141658
0.00716236
0.000135868
0.000135788
0.000140261
0.00414209
0.000142476
0.00389632
0.000148452
0.000134904
0.000181603
0.00014284
0.000142214
0.000142805
0.000217742
0.00244089
0.000146944
0.00013951
0.000151416
0.00066206
0.000176435
0.00642419
0.000142978
0.000176164
0.000146262
0.000145591
0.000136162
0.000138879
0.000143336
0.000166454
0.000696112
0.000151045
0.000151874
0.000207283
0.00596226
0.00020887
0.000142165
0.000199636
0.000164405
0.00169954
0.000137917
0.000142135
0.00015805
0.000773833
0.000132419
0.000144586
0.000138838
0.000136664
0.000208422
0.00015339
0.000180206
0.000145707
0.000132208
0.000177771
0.000143966
0.00822291
0.000143978
0.000167307
0.000147885
0.00015814
0.00014923
0.000182897
0.00624115
0.000142476
0.000184576
0.000374125
0.000141656
0.000146661
0.000171786
0.000131888
0.0509616
0.000191834
0.000142865
0.000181664
0.000134185
0.000147335
0.000147474
0.000141657
0.000136485
0.00014978
0.000140515
0.000138767
0.000145175
0.000148523
0.000176128
0.000136336
0.000221183
0.000138454
0.000140388
0.000159134
0.000173659
0.000149847
0.000131987
0.000142428
0.000154349
0.00017287
0.0004672
0.000164809
0.000149009
0.000148898
0.000139478
0.000161206
0.000140701
0.000152381
0.000284149
0.000241842
0.000175151
0.000141357
0.000148221
0.000149741
0.000132114
0.000196015
0.000134782
0.000216976
0.000149233
0.000242316
0.000157636
0.000281898
0.000146693
0.000183836
0.0265407
0.00731399
0.00204258
0.000156754
0.006846
0.000283711
0.000148589
0.000165963
0.000357272
0.00013987
0.000139003
0.000143875
0.000155463
0.00148286
0.000145922
0.00015806
0.00328981
0.000130289
0.000144525
0.000264986
0.00766884
0.000198637
0.002573
0.00507572
0.000149841
0.000183524
0.000153801
0.000154706
0.00322715
0.000154704
0.0219476
0.000232366
0.000153506
0.000145965
0.000152252
0.000161564
0.000139705
0.00962568
0.000132318
0.00014284
0.000143261
0.00859262
0.0285143
0.000204703
0.000144899
0.000151238
0.000138726
0.0201867
0.000142861
0.000149259
0.000153547
8.53131e-05
0.000138628
0.000189715
0.0439211
0.00548678
0.000147502
0.00157384
0.000139736
0.000970055
0.000132692
0.000230507
0.000149234
0.000184962
0.000160824
0.00739251
0.000218319
0.000152764
0.000150588
0.000201876
0.000155563
0.000141809
0.000138702
0.000158593
0.000148526
0.00411966
0.00013167
0.00014288
0.000144153
0.000143735
0.0029325
0.000139273
0.000134572
0.000146696
0.000366236
0.000161231
0.000180308
0.000152451
0.000150961
0.00019288
0.000139734
0.000143148
0.000185632
0.000173392
0.000134588
0.000167882
0.000152099
0.00498393
0.000142702
0.000253994
0.000149144
0.000143072
0.000135277
0.000134887
0.000142251
0.00014132
0.000433202
0.000182686
0.000146912
0.000143068
0.000142224
0.000153217
0.000158105
0.000667786
0.000145251
0.000199673
0.000165096
0.00592403
0.0001474
0.000172017
0.000143027
0.000142727
0.000164291
0.000142579
0.000145695
0.000140624
0.000135792
0.000352063
0.000143512
0.000139223
0.000247902
0.00426846
0.000192098
0.000147179
0.000134734
0.000154489
0.0418276
0.000152928
0.000147769
0.000146437
0.00044618
0.000148363
0.000144093