/*--------------------------------*- C++ -*----------------------------------*\
| =========                 |                                                 |
| \\      /  F ield         | OpenFOAM: The Open Source CFD Toolbox           |
|  \\    /   O peration     | Version:  v2012                                 |
|   \\  /    A nd           | Website:  www.openfoam.com                      |
|    \\/     M anipulation  |                                                 |
\*---------------------------------------------------------------------------*/
FoamFile
{
    version     2.0;
    format      ascii;
    class       volScalarField;
    location    "200";
    object      k_0;
}
// * * * * * * * * * * * * * * * * * * * * * * * * * * * * * * * * * * * * * //

dimensions      [0 2 -2 0 0 0 0];


internalField   nonuniform List<scalar> 
18355
(
0.0265065
0.000137039
0.000241382
0.000140887
0.000214823
0.000332125
0.000146659
0.000220323
0.000152273
0.00396932
0.00016036
0.000205184
0.00020691
0.0142449
0.00014291
0.000135392
0.000140876
0.000156775
0.000233828
0.000151813
0.000261223
0.000149152
0.000136932
0.000338579
0.000137006
0.000149995
0.000146957
0.00014098
0.000153049
0.000162009
0.00649025
0.00018106
0.000137546
0.000134275
0.000145716
0.00014948
0.000158487
0.000149806
0.000162936
0.000148955
0.000151164
0.000161515
0.000134426
0.000136857
0.000136955
0.000240161
0.000141141
0.000141026
0.00722834
0.000144683
0.000141696
0.023776
0.000144896
0.00022073
0.000143085
0.000151897
0.000144885
0.00811753
0.000150451
0.000321186
0.000134371
0.000193465
0.000219245
0.000145053
0.000187824
0.000139831
0.000154325
0.000158556
0.00013398
0.00408235
0.000142529
0.000143118
0.000174462
0.00015927
0.000682558
0.000134154
0.0046574
0.00013426
0.000142242
0.000538463
0.000154297
0.000369518
0.000134085
0.000156458
0.000173942
0.000148959
0.000153598
0.000166831
0.000140483
0.000167211
0.0133458
0.000257174
0.000346921
0.000144686
0.00184319
0.000146348
0.00014006
0.000144172
0.00018737
0.000148843
0.000172438
0.000141861
0.000144435
0.0001306
0.000154856
0.000135503
0.000187663
0.00207342
0.000162579
0.000135003
0.000141814
0.000146332
0.000168953
0.000156063
0.000251677
0.000161891
0.000141612
0.000614065
0.000152706
0.000153918
0.00417037
0.000241345
0.0148618
0.000170274
0.000541307
0.000245217
0.000146932
0.000141229
0.0365747
0.000147627
0.000140137
0.0187208
0.000143468
0.000190616
0.000196601
0.000140504
0.000235484
0.00284008
0.000142364
0.000257352
0.00015596
0.000233283
0.000140947
0.034493
0.000196878
0.000146529
0.000317337
0.000131457
0.0001688
0.00525173
0.000140907
0.000153735
0.000145327
0.000177822
0.000134535
0.000138268
0.000141405
0.000148843
0.000141023
0.000139296
0.000157753
0.000143579
0.000135062
0.000202493
0.000160269
0.00162523
0.000331114
0.044426
0.000486375
0.000155984
0.000145588
0.000188318
0.00014774
0.00759887
0.000145684
0.000150547
0.000145645
0.00013029
0.000151093
0.000161722
0.000149322
0.00143472
0.000148509
0.000141232
0.000229333
0.000144389
0.000150046
0.000167026
0.000143268
0.000147603
0.000241874
0.000187435
0.000137299
0.000134718
0.000143782
0.000255578
0.000139058
0.0499883
0.000137133
0.0159323
0.00014415
0.00015376
0.000163582
0.000149107
0.042352
0.000146778
0.000473537
0.0001412
0.000137038
0.000145106
0.000146925
0.000285498
0.000151658
0.000148703
0.000131648
0.00788168
0.000161879
0.000155843
0.000147018
0.000141291
0.000161872
0.000133878
0.000165386
0.000177302
0.000192237
0.000157997
0.000134082
0.00295536
0.000377533
0.000169498
0.000145037
0.000154855
0.00386809
0.000134032
0.000204567
0.000219671
0.000148961
0.000242308
0.000155019
0.000148799
0.000137363
0.000150866
0.000146757
0.000167591
0.000146796
0.000143081
0.000140937
0.000299732
0.000327521
0.000143271
0.000146653
0.000311019
0.000217897
0.000178563
0.000130314
0.000211399
0.000155024
0.000147435
0.000157324
0.000139637
0.00548386
0.00089152
0.000184382
0.00016099
0.000164633
0.000206475
0.000213369
0.000190383
0.000139586
0.000143122
0.000148654
0.000135067
0.000153747
0.0001561
0.000140655
0.000146928
0.000171375
0.000140355
0.000185896
0.00754967
0.000167376
0.00014719
0.00016323
0.000134954
0.000167003
0.000146096
0.00016318
0.000148595
0.000162395
0.0070392
0.000137284
0.000172983
0.00015223
0.000158408
0.000210431
0.000145308
0.000134523
0.00018362
0.000146927
0.00023233
0.000158554
0.000858393
0.000167894
0.00018516
0.000155172
0.000173966
0.000144161
0.000153633
0.000160461
0.000172953
0.00163201
0.000279019
0.000142147
0.000156931
0.000205854
0.000164129
0.000142078
0.000140971
0.000140939
0.000175997
0.000274554
0.00203428
0.00202637
0.000170416
0.000155503
0.000288834
0.000131314
0.000146536
0.000155484
0.00014409
0.000169524
0.000145089
0.0042323
0.000135789
0.000488923
0.000143511
0.000148701
0.000156105
0.00021157
0.047848
0.000167641
0.00173026
0.000149333
0.000140602
0.000143981
0.000162155
0.00449415
0.000140843
0.000145325
0.000347307
0.000148943
0.000140943
0.000217546
0.000159438
0.000140939
0.000144518
0.000164394
0.000151837
0.000164315
0.000135296
0.00014527
0.000148632
0.000290412
0.00034748
0.000135004
0.000140755
0.000216215
0.000141
0.000147099
0.00041272
0.000382596
0.000175532
0.000143839
0.000149166
0.000207725
0.000148896
0.000215125
0.00015377
0.000136482
0.000194782
0.000205571
0.000148136
0.00014414
0.000156866
0.000146368
0.000156564
0.00014373
0.000203793
0.000146825
0.000153201
0.000142105
0.000140991
0.000153044
0.00014998
0.000184849
0.000428348
0.000300421
0.000153582
0.000217109
0.000179488
0.000143725
0.000144745
0.000171106
0.00014328
0.000180396
0.000145925
0.00016353
0.000303257
0.000437288
0.0438292
0.000185578
0.000130754
0.0515347
0.00014883
0.000140591
0.000257305
0.000143076
0.000179039
0.000137067
0.00019303
0.000143044
0.000187141
0.00185152
0.000182193
0.000144022
0.000137539
0.000183252
0.000152673
0.000143002
0.00297057
0.000460121
0.000140535
0.000171734
0.000185014
0.000137458
0.00015032
0.000165834
0.0129919
0.00016791
0.000148964
0.000144406
0.000167574
0.000144617
0.000136006
0.000143887
0.000157451
0.000380541
0.000136275
0.000151087
0.000145146
0.000213411
0.000204707
0.000134634
0.000179829
0.000165835
0.000145126
0.000255343
0.000193433
0.000148717
0.000146088
0.000166915
0.000214842
0.00531929
0.000136066
0.0444857
0.000142864
0.000136267
0.000169285
0.000152959
0.000206448
0.000174217
0.000153498
0.000160576
0.000149166
0.000216342
0.000153158
0.000159643
0.000149181
0.000135843
0.000147786
0.000136034
0.000193136
0.000377006
0.000192787
0.000157881
0.000147147
0.000149198
0.000146334
0.000155246
0.000145324
0.00013537
0.000143664
0.000167368
0.000137472
0.000145141
0.0110556
0.0501813
0.000208531
0.000147439
0.000150578
0.00016591
0.000148981
0.00408841
0.000262052
0.000156141
0.000156887
0.000160291
0.000150383
0.000153808
0.00399325
0.000163689
0.000148747
0.00762731
0.000147061
0.0481169
0.0487114
0.000155664
0.000150012
0.00547368
0.000140715
0.000185682
0.000182098
0.00583244
0.00015322
0.000147638
0.000145006
0.00350799
0.00611825
0.00541636
0.00320185
0.000154416
0.000144871
0.000156384
0.000143133
0.000154142
0.000241102
0.0075651
0.000486761
0.000388125
0.000167896
0.00017813
0.000170995
0.000141195
0.000142189
0.000171201
0.000154981
0.000146297
0.000143083
0.000712719
0.00013996
0.0003676
0.000159299
0.00019139
0.000209845
0.000142246
0.000156125
0.0454238
0.000143624
0.00114402
0.000143485
0.000238418
0.000163741
0.000149169
0.000170735
0.000190278
0.000186174
0.000149992
0.000133963
0.000166177
0.000155989
0.000191513
0.000143452
0.000193583
0.000139899
0.000256295
0.000147152
0.000143518
0.000231469
0.00016968
0.000223195
0.000144567
0.000157681
0.000154969
0.00379074
0.00291064
0.000154684
0.000191522
0.000144788
0.000162794
0.000148378
0.000154397
0.016322
0.000136778
0.000314194
0.000146898
0.000145167
0.000154848
0.00416845
0.00015203
0.000190393
0.000148681
0.000166859
0.00158057
0.000131456
0.000140994
0.0513043
0.000166668
0.0163859
0.000174651
0.000148062
0.000143091
0.000142938
0.000159252
0.000149863
0.000136368
0.000215285
0.00866499
0.000143292
0.0115123
0.0130292
0.000158471
0.000239626
0.000136217
0.00885389
0.00537278
0.000132499
0.00172429
0.000169518
0.000269264
0.00386064
0.000143353
0.000142931
0.000147545
0.000469546
0.000175272
0.000144387
0.000148808
0.000216205
0.000148539
0.000170461
0.000143734
0.000168078
0.0336835
0.00343822
0.000246475
0.00313777
0.000168127
0.00639318
0.000156819
0.000140631
0.000160442
0.00347843
0.000177919
0.000173711
0.000144193
0.000296534
0.000145325
0.000148397
0.0534645
0.000148363
0.000161092
0.000228393
0.000186547
0.000144572
0.000142863
0.000154756
0.000158494
0.000133934
0.000146362
0.000173117
0.000228988
0.000153032
0.000145517
0.000169027
0.00183089
0.000143588
0.00295919
0.000253372
0.000145017
0.0291164
0.000134492
0.000243326
0.000143598
0.000137807
0.000230696
0.000153803
0.0129738
0.000152733
0.000142878
0.0253927
0.000143574
0.000134842
0.000145666
0.000140731
0.000161882
0.000165699
0.0443413
0.000151854
0.00117381
0.000154314
0.00298737
0.00675107
0.000150455
0.000143944
0.000157613
0.000136375
0.000202393
0.000142499
0.000134734
0.000135641
0.000144209
0.000143546
0.000248739
0.000158948
0.000174372
0.000152105
0.000156602
0.000156754
0.000163119
0.000823197
0.000137399
0.000192782
0.000170832
0.000134246
0.00766292
0.0377978
0.000141262
0.00180454
0.000145004
0.00299705
0.000166684
0.000132344
0.000166593
0.000159553
0.00245815
0.000141988
0.000154337
0.00439129
0.00019764
0.000247747
0.000143513
0.0047151
0.000189351
0.00562475
0.000143459
0.000151853
0.000142936
0.000146166
0.000141942
0.000145137
0.000136789
0.0023481
0.00017128
0.000141223
0.000134208
0.000140283
0.000148726
0.000194032
0.000188771
0.000137273
0.000158568
0.00014674
0.000146931
0.000145648
0.000140858
0.000206125
0.000134231
0.000140284
0.000149671
0.000147219
0.000152087
0.000146722
0.000247015
0.000251737
0.000154905
0.000140122
0.000213056
0.000134631
0.000134298
0.000146666
0.000250218
0.000157741
0.000145608
0.000135908
0.000137191
0.000160312
0.000133906
0.000162524
0.000142395
0.000148341
0.000141843
0.000151671
0.0171796
0.000140571
0.000148842
0.000143555
0.000243934
0.00581597
0.000158321
0.000149877
0.000179801
0.000160184
0.00020234
0.000828719
0.000149297
0.00535592
0.000148949
0.000355954
0.000149059
0.000136754
0.000135737
0.00163735
0.000135366
0.000158598
0.000188389
0.000221602
0.000177377
0.000154308
0.000142528
0.000143668
0.000143417
0.000160126
0.000201345
0.0039984
0.000172572
0.000145397
0.000133924
0.000155569
0.000141776
0.000140995
0.000148363
0.000174346
0.000165967
0.000304851
0.000145324
0.000144318
0.000173383
0.000143138
0.000214961
0.000173211
0.000168862
0.000212013
0.000320804
0.000167135
0.000141191
0.000134002
0.000147412
0.000142957
0.00408532
0.000175014
0.000201222
0.000136777
0.000147026
0.000155424
0.000141268
0.000901051
0.000269738
0.000134327
0.000135665
0.00014274
0.000141954
0.000140926
0.000144441
0.000237091
0.000134826
0.000148843
0.000136826
0.000137951
0.000142068
0.000145932
0.000161667
0.000137907
0.000169724
0.000135869
0.000416923
0.00023812
0.000156125
0.00108714
0.00015245
0.000148579
0.000186191
0.00249298
0.000144529
0.000140271
0.000137036
0.000182558
0.000150944
0.000167165
0.000243322
0.000146418
0.000149372
0.000144636
0.00039129
0.00188098
0.000151918
0.000139368
0.000155992
0.000167833
0.000142241
0.000186725
0.000140341
0.000133817
0.000155137
0.000369858
0.00368205
0.00330527
0.000239507
0.000134594
0.000252568
0.000199184
0.000157492
0.00014338
0.000199235
0.000156236
0.000264473
0.000677394
0.000141837
0.000134676
0.000144664
0.000148419
0.000134786
0.00092987
0.00250098
0.000134548
0.00014667
0.000149464
0.000168213
0.000143885
0.000141871
0.000199683
0.000148828
0.000141853
0.0018505
0.000197347
0.000193119
0.000142782
0.000135846
0.000134744
0.000146156
0.000163339
0.000182074
0.000140564
0.000139112
0.000152997
0.00503597
0.000137061
0.000143894
0.00018488
0.000140997
0.000139183
0.000143533
0.00138576
0.000135653
0.000144411
0.000137126
0.000154852
0.00013568
0.000157115
0.00021396
0.000143924
0.000240019
0.000160502
0.000230053
0.000180003
0.000140819
0.000158912
0.000140412
0.000139054
0.000140828
0.00377488
0.00762936
0.000209484
0.000158676
0.00574836
0.000187648
0.000150041
0.000199721
0.00023522
0.000153028
0.000135304
0.0105199
0.000149833
0.000140526
0.000137732
0.000258898
0.00768848
0.0454918
0.00013889
0.000196154
0.00551536
0.000166509
0.000171636
0.000156558
0.000155349
0.000165714
0.00156468
0.000153394
0.000149967
0.000158878
0.046607
0.00024728
0.000143801
0.000146195
0.000143404
0.000282232
0.000155403
0.000149329
0.00643314
0.000157027
0.000176169
0.00015654
0.00604072
0.000138612
0.000390665
0.000149695
0.000135615
0.000141273
0.000135831
0.000135653
0.000140779
0.000148134
0.000256132
0.000138139
0.000220665
0.000158035
0.000147333
0.000140817
0.000196132
0.000143186
0.000146542
0.000155366
0.00576572
0.000206365
0.000153726
0.000146337
0.000327869
0.000138585
0.000169047
0.000146116
0.0450189
0.000172802
0.00611288
0.000158369
0.000142962
0.000224968
0.00986709
0.000279337
0.000137743
0.000143472
0.000168192
0.0137453
0.000131018
0.000175243
0.000140958
0.000161805
0.00014041
0.000134678
0.000149039
0.000149899
0.000134977
0.000176327
0.000171689
0.000158829
0.000210246
0.00876707
0.00015023
0.00372252
0.000136023
0.000201774
0.000268731
0.00022201
0.000134439
0.000148537
0.000145904
0.00420794
0.000144569
0.000140622
0.000195152
0.000146424
0.000146105
0.000151097
0.000149502
0.000142947
0.0497248
0.00633873
0.000183863
0.000139146
0.000145251
0.000239118
0.000136065
0.000296431
0.000147118
0.000145684
0.000149005
0.000154729
0.00023658
0.000140095
0.000145002
0.0483597
0.000147157
0.000148379
0.000168304
0.000281937
0.000996212
0.000144308
0.000143665
0.0103549
0.0034585
0.0301148
0.000142414
0.000165399
0.000226423
0.000137551
0.000201809
0.000153425
0.00341275
0.000155061
0.000146036
0.000150123
0.000135483
0.000429794
0.000144879
0.000139141
0.00567093
0.000189966
0.000619867
0.000135118
0.000151981
0.000135293
0.000132057
0.000136006
0.000149323
0.000146548
0.00014899
0.000135503
0.000148379
0.00017421
0.000163474
0.000164697
0.000139973
0.000155893
0.000141872
0.00707237
0.000147362
0.000149594
0.000147473
0.000135748
0.000148726
0.000148685
0.000143966
0.000143274
0.000141297
0.000136042
0.00354891
0.00135401
0.000144591
0.000381551
0.000166375
0.000149268
0.000147574
0.0001501
0.00337619
0.000147511
0.000135996
0.000134499
0.000134475
0.0477419
0.000144304
0.000136752
0.000250113
0.000134037
0.000133325
0.000191746
0.000200611
0.000206459
0.000213714
0.0128263
0.000136054
0.00113561
0.000156583
0.000143095
0.000136836
0.000161644
0.00014312
0.000161201
0.000181277
0.000154187
0.000151364
0.0516884
0.000198274
0.0466163
0.00140029
0.00313104
0.000214597
0.00013916
0.000261692
0.000967043
0.000134967
0.00157794
0.000138876
0.000150635
0.000210343
0.000140509
0.000324113
0.00015821
0.000152583
0.000149077
0.000219901
0.000143787
3.36377e-05
0.000142842
0.000136143
0.0035692
0.000133578
0.00014916
0.000148384
0.000178239
0.000142259
0.000144016
0.00015301
0.00210917
0.000144269
0.000144242
0.000136721
0.000154137
0.000142362
0.000150624
0.00058803
0.000141457
0.000157275
0.000147978
0.00015446
0.000161243
0.000140425
0.000148714
0.000198513
0.000146952
0.000147397
0.000158871
0.0049494
0.00015023
0.000141748
0.000143928
0.000159371
0.000206972
0.000151737
0.000140957
0.000141368
0.00013778
0.00013192
0.000135328
0.000160143
0.000197647
0.000179365
0.000146676
0.0127754
0.000139657
0.000148569
0.00724205
0.000174099
0.000133993
0.000189403
0.000151676
0.000140941
0.00377413
0.000148773
0.000168658
0.000132455
0.000216926
0.00013972
0.000134538
0.000135949
0.000593077
0.000216143
0.000146757
0.000199846
0.000135755
0.000142184
0.000139015
0.000211153
0.000144904
0.000138503
0.000149188
0.000152226
0.000142942
0.000145698
0.000140496
0.000147728
0.000146653
0.0001403
0.000155609
0.000135143
0.0157074
0.000185204
0.000136435
0.000233561
0.000157238
0.000140792
0.00013987
0.000151308
0.000140764
0.000160865
0.000155444
0.000197701
0.000200182
0.000147795
0.000188534
0.000218387
0.000143003
0.000147671
0.000194153
0.00015284
0.00553881
0.000135554
0.000144394
0.000151204
0.000147733
0.00014375
0.000156954
0.000140488
0.000150956
0.000143809
0.000152389
0.000139667
0.00020419
0.000144783
0.00015426
0.000187809
0.000143197
0.00340728
0.00468162
0.000155634
0.000161198
0.000160003
0.000134349
0.000188754
0.00014548
0.000164721
0.00810218
0.0141866
0.0002098
0.00015235
0.00016085
0.000142702
0.000161737
0.000138732
0.00033182
0.000189018
0.000146697
0.00014073
0.000227398
0.000172639
0.000142799
0.000143127
0.000263608
0.000147733
0.000138421
0.000447149
0.000179257
0.000134855
0.000196018
0.000136148
0.000226043
0.000180825
0.000142978
0.000144247
0.000154794
0.000282017
0.00014013
0.000157381
0.000144236
0.000142996
0.000139799
0.015602
0.000148257
0.000145134
0.000143796
0.000235917
0.000157729
0.000140299
0.000132885
0.000201789
0.000142174
0.000136907
0.000237656
0.000333439
0.000148671
0.000247522
0.00015524
0.000175686
0.000149791
0.000181742
0.00370594
0.000148399
0.000144391
0.000136993
0.000154931
0.000142768
0.00772067
0.00212881
0.000137467
0.000150076
0.00013648
0.000135455
0.0539992
0.000142858
0.000152067
0.00015192
0.000220808
0.000144458
0.000147829
0.000155463
0.00382201
0.000146536
0.000145263
0.000137374
0.000138392
0.000154464
0.000174081
0.000146752
0.000142082
0.000144961
0.000143414
0.000137036
0.0508356
0.000148132
0.000143579
0.00014183
0.000182571
0.000136557
0.000136925
0.00016579
0.000142184
0.000188665
0.00014401
0.000144397
0.0034092
0.0187058
0.000352385
0.000259218
0.000157395
0.000148301
0.0317256
0.000139709
0.000155467
0.000135099
0.000362688
0.000130438
0.000154831
0.000144554
0.00956696
0.000175156
0.000210672
0.00805336
0.00015103
0.000190571
0.000147907
0.000149672
0.0517775
0.00016591
0.000142121
0.000136083
0.000153721
0.000161722
0.000143951
0.000144987
0.00013969
0.000135041
0.000239202
0.00703937
0.000147998
0.000158452
0.000292154
0.0138801
0.000152049
0.00014945
0.000152534
0.000154661
0.000142342
0.000150601
0.000486553
0.000140292
0.000136361
0.000146111
0.000534667
0.000326374
0.000156526
0.000146701
0.000147172
0.000158643
0.000143624
0.000159091
0.000169554
0.000252865
0.000155552
0.00125525
0.000134654
0.00014283
0.00014824
0.000135456
0.000147041
0.000140071
0.000259967
0.000140893
0.000413059
0.000145393
0.000139075
0.00013762
0.000198914
0.000151489
0.000173634
0.000177445
0.000136
0.0408878
0.000155253
0.000138043
0.000133378
0.00556803
0.000268503
0.000133637
0.000140485
0.000140587
0.000150546
0.000223437
0.000290831
0.000149596
0.000148472
0.000212347
0.00293201
0.000149497
0.000142592
0.000291166
0.000153924
0.00050111
0.000154664
0.000142297
0.00018327
0.000182312
0.0212606
0.000190801
0.00392194
0.000136913
0.000142189
0.000148983
0.000146506
0.000153884
0.000147823
0.000146049
0.000139488
0.000147747
0.000146164
0.000148879
0.000145148
0.000152309
0.000149316
0.000143562
0.000141194
0.000179027
0.000161351
0.000140378
0.0001452
0.000237685
0.0001454
0.000148771
0.000149007
0.0175358
0.000136943
0.000169267
0.000150598
0.000135971
0.000143406
0.00034204
0.000215983
0.000148981
0.000148684
0.000154688
0.000166984
0.000140052
0.000160447
0.000179897
0.000141196
0.00020178
0.000140988
0.000143174
0.000144064
0.00014764
0.000160682
0.000224663
0.00716761
0.000183528
0.000136189
0.000144905
0.000143382
0.000212402
0.000148948
0.00204916
0.00013974
0.000143764
0.000143443
0.000189224
0.000142529
0.000146459
0.000144034
0.000213711
0.000137019
0.0132835
0.000137044
0.000172185
0.000145149
0.000161361
0.000140771
0.000153485
0.00336466
0.000221827
0.000136237
0.000180908
0.000145194
0.00014587
0.0316128
0.0049846
0.000136261
0.000142739
0.000153072
0.000135869
0.000143715
0.000148335
0.00014751
0.000157965
0.000178328
0.000150105
0.000157671
0.000220409
0.000147637
0.000140798
0.000142103
0.000154912
0.000160248
0.000144088
0.0148608
0.000140263
0.0212193
0.000168481
0.000136388
0.00014034
0.00014007
5.67422e-05
0.000146542
0.000155162
0.00014632
0.000141427
0.00576438
0.000150934
0.000176417
0.000147159
0.000145485
0.000151344
0.000143197
0.000150955
0.000143394
0.000152816
0.000149283
0.000149021
0.00290839
0.000166387
0.00393219
0.000140878
0.000191279
0.000151257
0.00570289
0.000182483
0.00069151
0.000151758
0.000134804
0.000171491
0.000142243
0.00451452
0.000149562
0.000201153
0.000151459
0.00040294
0.00703566
0.000154293
0.000176943
0.000139376
0.000137494
0.000148462
0.000134693
0.00014786
0.000152628
0.00013944
0.000162084
0.000198304
0.00537838
0.000140672
0.000234271
0.00013458
0.000142413
0.000143666
0.000197152
0.000147357
0.000226911
0.000148192
0.000143294
0.0365488
0.000140226
0.000154655
0.000142273
0.000156575
0.000505274
0.000165199
0.0392474
0.000145832
0.000181406
0.000152315
0.000141716
0.00014362
0.000181812
0.000165165
0.00014307
0.00015149
0.00014313
0.00301799
0.000139091
0.000293044
0.00027912
0.000185721
0.000158182
0.000215034
0.000202437
0.000134687
0.00821797
0.000142369
0.000241946
0.0001489
0.000151708
0.0065765
0.00695852
0.00015949
0.000260901
0.00014351
0.00512873
0.000131171
0.000319583
0.00013512
0.000152205
0.000201365
0.000145095
0.000139128
0.000149477
0.00014424
0.000178439
0.00529092
0.000164006
0.00258148
0.00014138
0.0143007
0.000144299
0.000146847
0.000142879
0.000144625
0.00475278
0.00014692
0.00013807
0.000168
0.000148065
0.0067692
0.00019108
0.000142948
0.000201263
0.000165418
0.000140463
0.000144712
0.000155829
0.000136599
0.000180371
0.000160314
0.000152281
0.000152291
0.000137244
0.000146433
0.000181824
0.000149659
0.000144847
0.000150081
0.000134813
0.000135574
0.0388491
0.000161615
0.000402626
0.000158513
0.000178738
0.000162329
0.000141984
0.000165404
0.000139011
0.000140745
0.0015577
0.000165163
0.000187434
0.000174519
0.000147233
0.000246051
0.000486202
0.00014328
0.00016094
0.00019917
0.0464813
0.000136444
0.000138
0.000147677
0.000186888
0.00414268
0.000163778
0.000153802
0.000148727
0.00014203
0.000135193
0.000368843
0.000155363
0.000152818
0.00417716
0.000146715
0.000153909
0.000157094
0.000144983
0.000142793
0.000142989
0.000179251
0.000203459
0.000149012
0.000153
0.000250958
0.000142151
0.000149307
0.0001544
0.000146661
0.00705303
0.00472987
0.000305674
0.00019105
0.0159272
0.000152539
0.000139805
0.000262367
0.00015777
0.000161365
0.000143029
0.000135282
0.0065404
0.00210339
0.000141376
0.000139552
0.000160899
0.000307887
0.00015545
0.000135291
0.0525971
0.000152135
0.000167717
0.000134895
0.000162687
0.000131154
0.000151664
0.000159817
0.000142036
0.0273818
0.000149047
0.000166574
0.000198233
0.00525282
0.000191553
0.000142203
0.00018349
0.000154875
0.000161841
0.000149962
0.000150526
0.000145286
0.000152314
0.00146601
0.000151638
0.00148597
0.000139961
0.000227901
0.000135976
0.000148743
0.000284212
0.000155181
0.000227081
0.00016028
0.000149432
0.00566975
0.0530342
0.000140048
0.0271163
0.000171865
0.000138841
0.000133986
0.0410905
0.0263932
0.000138757
0.000136141
0.000144664
0.000136743
0.0311273
0.00025249
0.000130269
0.00013311
0.000139964
0.000239707
0.000175455
0.0071408
0.000135807
0.000268779
0.000146825
0.000178778
0.0400347
0.000164427
0.000139226
0.00013959
0.00710046
0.000136727
0.000141211
0.000136441
0.000164305
0.000151377
0.0279889
0.000161925
0.000148641
0.000142381
0.000157794
0.000227036
0.000184539
0.000141673
0.000141846
0.000218705
0.000177097
0.00014877
0.0035181
0.000164915
0.000153236
0.0533329
0.000151526
0.000159455
0.000148257
0.00123946
0.00014526
0.000148621
0.0511465
0.000159198
0.000141141
0.000143278
0.000131181
0.000182676
0.000206725
0.00014105
0.000136022
0.000150265
0.000185603
0.000159312
0.00013508
0.00014279
0.000139179
0.000162593
0.000172046
0.000145794
0.000142716
0.0384577
0.000141927
0.0120081
0.000161637
0.000164788
0.000154415
0.000149896
0.000144937
0.0156231
0.000190398
0.000186951
0.028655
0.0001611
0.000140119
0.000359676
0.00013625
0.000189121
0.0174668
0.00016284
0.000141774
0.00015398
0.000188941
0.00014266
0.000142991
0.0350031
0.000142867
0.000151302
0.000141256
0.000146859
0.00013725
0.00018864
0.000206656
0.000135763
0.000141038
0.00597128
0.000142567
0.000137051
0.000140838
0.000140707
0.000285574
0.000169851
0.000153471
0.00015396
0.000149084
0.00013826
0.000182229
0.000199508
0.000157846
0.00026271
0.00015194
0.000154894
0.0286597
0.00014013
0.000136288
0.000143327
0.000140491
0.000148659
0.000132638
0.000148969
0.0168635
0.0001448
0.000141751
0.000156088
0.000140723
0.00256469
0.00014758
0.0465063
0.000232474
0.000180811
0.000161404
0.00245331
0.000159579
0.000142979
0.000154699
0.000140472
0.000151944
0.000149976
0.000148338
0.000340578
0.000135895
0.00014376
0.000171179
0.000297771
0.00014775
0.000139764
0.000226165
0.000151119
0.000192584
0.000143022
0.000139898
0.000144345
0.034157
0.000146273
0.000283003
0.000177813
0.00015293
0.000139673
0.000143052
0.000160265
0.00510019
0.000135836
0.000180061
0.000141742
0.0455733
0.00023748
0.000148972
0.00022159
0.000146045
0.000153555
0.000153813
0.000257648
0.000169035
0.000160614
0.000161886
0.0054955
0.00014772
0.000181379
0.000144493
0.000201809
0.000216569
0.000237689
0.000142742
0.000164739
0.00533423
0.00429325
0.000154503
0.000154282
0.00581947
0.00583472
0.000140318
0.000180064
0.000143157
0.000156398
0.000146071
0.000152659
0.000151895
0.0183988
0.000147455
0.000148043
0.000180897
0.00559636
0.0028108
0.000209059
0.00413807
0.000139846
0.00537455
0.000183448
0.000142232
0.000141742
0.00693434
0.00015716
0.000145053
0.000142586
0.000168318
0.000138644
0.00014281
0.000321729
0.000145482
0.000148191
0.000141082
0.000143798
0.000151081
0.00013914
0.0535311
0.000176483
0.000153621
0.000139112
0.000165777
0.000394012
0.000142453
0.000147603
0.00564565
0.000231323
0.000143414
0.000154446
0.000138715
0.000140405
0.000199112
0.000221663
0.000140445
0.000143067
0.00572056
0.00122133
0.00860536
0.000187101
0.000149674
0.00411084
0.000140688
0.000155459
0.000154249
0.000139498
0.0515512
0.00749357
0.000168782
0.000186514
0.000346827
0.000133993
0.000133093
0.000152682
0.000164388
0.00307133
0.000136529
0.000168237
0.00146265
0.000284665
0.000146973
0.000150911
0.000255119
0.000142589
0.000155117
0.00133612
0.000140869
0.00014252
0.000139079
0.000245881
0.000141168
0.000164741
0.000149255
0.000215693
0.000163582
0.00531443
0.000142999
0.000142138
0.000166824
0.000147648
0.000190894
0.000148918
0.000200825
0.000206742
0.000140778
0.000144393
0.00838555
0.000286006
0.0174846
0.000139051
0.000143329
0.000155842
0.000145246
0.00014311
0.000143988
0.00014533
0.000148452
0.000139652
0.000139676
0.000178532
0.000153829
0.000170237
0.0178057
0.000184833
0.000176763
0.000157713
0.000204412
0.000223435
0.000161767
0.000155437
0.000160254
0.000141658
0.00723406
0.000135869
0.000135788
0.000140262
0.00415095
0.00014248
0.00389596
0.00014845
0.000134904
0.000181637
0.00014284
0.000142214
0.000142805
0.000217558
0.00243519
0.000146943
0.000139511
0.000151418
0.000634234
0.000176406
0.00642463
0.00014298
0.000176114
0.000146264
0.00014559
0.000136162
0.00013888
0.000143336
0.000166418
0.000695136
0.00015105
0.00015188
0.000207219
0.00586309
0.000208823
0.000142168
0.000199547
0.000164395
0.00169437
0.000137917
0.000142137
0.00015801
0.000762247
0.000132419
0.000144586
0.000138838
0.000136664
0.000208372
0.000153391
0.000180206
0.000145716
0.000132208
0.000177711
0.000143966
0.00812992
0.000143976
0.000167271
0.000147885
0.000158141
0.000149231
0.000182848
0.0062425
0.000142476
0.000184602
0.000373817
0.000141656
0.000146661
0.000171765
0.000131887
0.0511787
0.000191767
0.000142864
0.000181623
0.000134184
0.00014735
0.000147475
0.000141658
0.000136484
0.000149782
0.000140512
0.000138767
0.000145175
0.000148521
0.000176097
0.000136335
0.00022106
0.000138455
0.000140388
0.000159129
0.000173615
0.000149848
0.000131987
0.000142427
0.00015435
0.000172832
0.000467653
0.000164799
0.00014901
0.000148899
0.000139479
0.000161199
0.000140701
0.000152381
0.000284193
0.000241817
0.000175131
0.000141357
0.000148221
0.000149742
0.000132114
0.00019609
0.000134782
0.000217044
0.000149235
0.000242351
0.000157637
0.000281955
0.000146693
0.000183763
0.0266446
0.00728706
0.00203487
0.000156767
0.00687041
0.000283987
0.00014859
0.000165952
0.000358172
0.000139861
0.000139003
0.000143875
0.000155471
0.00148559
0.000145922
0.000158078
0.00327341
0.000130289
0.000144524
0.00026508
0.00777562
0.000198608
0.00256365
0.0050881
0.000149843
0.000183571
0.000153784
0.000154688
0.00325113
0.000154705
0.0220608
0.000232986
0.000153506
0.000145965
0.000152247
0.000161553
0.000139704
0.00991353
0.000132319
0.00014284
0.000143261
0.00861891
0.0285357
0.000204664
0.000144897
0.000151232
0.000138726
0.0211073
0.00014286
0.000149266
0.000153552
8.44702e-05
0.000138628
0.000189647
0.0437093
0.0054901
0.000147497
0.00157817
0.000139733
0.00103454
0.000132693
0.000230472
0.000149236
0.000184936
0.0001608
0.00728789
0.000218163
0.000152765
0.000150595
0.000201806
0.000155567
0.000141809
0.000138702
0.000158591
0.000148523
0.00411304
0.00013167
0.000142879
0.000144153
0.000143735
0.00293209
0.000139273
0.000134572
0.000146697
0.00037407
0.000161234
0.000180269
0.000152453
0.000150962
0.000192805
0.000139732
0.000143149
0.000185542
0.000173369
0.000134588
0.000167923
0.000152102
0.00497467
0.000142702
0.000254124
0.000149149
0.000143071
0.000135276
0.000134887
0.000142251
0.00014132
0.00043452
0.000182612
0.000146911
0.000143068
0.000142224
0.000153217
0.000158103
0.000739594
0.000145254
0.000199615
0.000165097
0.00591896
0.000147397
0.000171979
0.000143027
0.000142727
0.000164301
0.000142579
0.000145694
0.000140622
0.000135793
0.000352773
0.000143512
0.000139224
0.000248609
0.00426263
0.000191949
0.000147183
0.000134735
0.000154496
0.0416138
0.000152931
0.00014777
0.000146437
0.000446435
0.000148364
0.000144094
0.0267355