/*--------------------------------*- C++ -*----------------------------------*\
| =========                 |                                                 |
| \\      /  F ield         | OpenFOAM: The Open Source CFD Toolbox           |
|  \\    /   O peration     | Version:  v2012                                 |
|   \\  /    A nd           | Website:  www.openfoam.com                      |
|    \\/     M anipulation  |                                                 |
\*---------------------------------------------------------------------------*/
FoamFile
{
    version     2.0;
    format      ascii;
    class       volScalarField;
    location    "1000";
    object      ddt0(k);
}
// * * * * * * * * * * * * * * * * * * * * * * * * * * * * * * * * * * * * * //

dimensions      [0 2 -3 0 0 0 0];


internalField   nonuniform List<scalar> 
18758
(
-1.14226e-06
0.00109138
-1.61226e-08
-1.09621e-06
-2.66619e-07
2.41202e-08
4.98947e-08
2.446e-07
-1.98316e-07
-4.01203e-07
0.000719356
0.00103958
1.34462e-05
3.4802e-08
4.43648e-08
2.53508e-09
0.00388858
4.01063e-08
3.9327e-08
7.25053e-07
-0.000361733
0.000171586
1.40036e-08
2.60299e-08
-0.00194284
-0.00156127
-0.0102273
-7.86793e-06
-5.39003e-06
0.000406222
-0.00125211
-0.00872897
2.34418e-07
-0.0223316
-4.57336e-07
0.000764325
-1.39871e-06
-9.76e-08
-0.0110544
3.55022e-08
0.00159165
-1.04151e-06
0.00130732
-5.11528e-08
5.37983e-09
0.00203131
-8.48218e-07
-5.75722e-06
0.00250222
-3.73988e-06
0.000933172
-0.00653885
-4.16058e-06
-1.2264e-06
9.24263e-06
3.82907e-06
1.54658e-07
8.51142e-07
-5.52484e-06
1.3341e-07
-7.6656e-09
-4.88372e-08
-0.000248709
0.00475397
-3.53361e-09
-0.0147025
6.89699e-10
5.07815e-08
-8.31485e-06
4.19505e-08
-0.00706592
0.00297358
-1.33106e-08
1.07096e-06
-4.29659e-06
-0.00343231
0.0017752
0.00447296
-4.69486e-07
0.00116904
2.55807e-06
-0.00966501
0.00595262
6.08737e-07
-1.04708e-06
7.34171e-06
-2.4982e-07
1.16594e-06
0.000463679
6.60678e-06
-0.0142612
-7.36546e-09
5.19196e-07
0.00403642
-1.60562e-08
-5.4769e-09
4.06296e-08
-3.44331e-06
0.00270373
1.31974e-08
-0.0044099
1.85212e-06
4.9972e-08
-4.87289e-09
-0.0137013
-0.000792621
-5.80111e-06
-0.0122954
0.000966665
-0.00740333
8.17485e-09
0.0101799
-3.84973e-07
-3.66123e-08
1.87081e-06
8.97908e-07
-3.36187e-06
6.68167e-08
0.000169728
-9.61199e-07
-2.6285e-08
0.00147162
-1.38397e-06
5.76305e-08
-0.00151985
-1.16745e-06
-2.7661e-07
5.57899e-08
-5.0278e-06
0.00295912
-5.28014e-06
-1.58443e-08
-4.57506e-08
0.0126298
-9.66789e-08
2.29567e-08
0.00448311
-3.65859e-07
-8.00951e-06
1.52154e-06
-9.55957e-07
0.0011498
-2.00439e-06
0.000808803
-0.000563051
-6.94693e-07
-0.00985943
-5.48859e-06
0.000812249
0.0302223
0.00567698
-2.08424e-05
-2.16029e-08
-7.49073e-07
0.00169456
-0.00322591
1.06027e-07
-4.11216e-06
4.84778e-07
0.00108601
-0.0156376
8.59621e-08
0.0115667
-0.00822445
-0.00362699
1.34323e-07
8.33942e-08
-0.00631992
0.00390485
-8.83718e-06
0.00169174
-1.01637e-08
-5.78499e-06
-0.00132552
0.000345132
6.99236e-08
-8.55462e-09
-0.00248759
-0.0233554
-2.81188e-08
2.93368e-08
-2.81042e-07
9.34225e-06
-6.34408e-08
0.0156686
-6.35319e-10
0.000173534
1.31614e-06
0.00595088
-0.0203344
0.000254355
2.86258e-09
-4.29794e-06
0.00727437
-9.12602e-09
-3.88757e-08
-6.32758e-06
-2.08121e-08
0.00656102
2.45148e-08
5.83455e-07
4.09743e-07
-0.000715663
3.60037e-10
1.15548e-08
0.0124595
1.34243e-07
-6.23322e-07
0.00473482
0.00112525
-5.66927e-09
-9.29633e-07
9.3029e-07
-3.32226e-07
7.52408e-07
3.81839e-08
8.42732e-09
-9.56648e-07
8.14059e-09
0.00108538
0.00756316
-1.54608e-08
-1.9776e-06
-1.96356e-07
-0.000212023
-9.42958e-05
2.64087e-06
6.29872e-06
-0.0150317
1.23577e-07
0.000315362
-8.66397e-07
0.000683591
2.55461e-08
1.44006e-08
-9.75487e-09
-4.28221e-06
0.00069522
-2.47071e-06
1.53128e-07
1.36151e-08
-4.07318e-06
-8.49177e-06
3.23117e-08
0.0253757
0.00153178
1.2065e-08
1.9227e-08
1.54241e-07
1.52233e-08
0.00184317
-4.09911e-07
0.000443995
8.54404e-08
5.99518e-08
0.000649235
8.66956e-08
0.00545937
1.78543e-08
0.010527
3.10823e-07
6.48218e-08
9.68545e-09
-3.5871e-06
-0.000105706
-0.000157521
6.63921e-08
-8.79333e-06
-1.7732e-08
7.30807e-08
-4.64809e-05
0.00596109
4.98241e-08
9.50422e-08
1.30423e-07
6.59051e-07
-1.75289e-07
1.09227e-08
-2.94686e-07
3.89175e-08
1.84813e-08
-2.71792e-08
2.36448e-08
-0.00246873
4.76428e-08
9.00884e-08
1.82991e-08
-8.32266e-06
-2.24153e-09
-2.93626e-09
3.13545e-08
-1.00599e-08
1.32436e-07
3.10171e-08
7.46282e-09
-2.42346e-06
0.000117955
7.65064e-09
3.53788e-08
-0.00356584
-1.35596e-07
-1.25746e-08
-1.05047e-08
-0.0120861
0.000466345
2.73776e-08
-2.4115e-05
-0.00122835
-3.84128e-07
-3.38912e-06
2.3821e-08
-0.000265203
-6.87233e-06
-6.91315e-06
-5.21811e-06
-0.0235599
4.38738e-08
-0.0172019
1.52952e-06
-1.5291e-08
-6.24675e-06
7.13062e-07
0.0337879
2.19879e-08
4.59305e-08
0.00174431
-0.00290211
4.78355e-08
-0.00197948
-2.79915e-06
1.9075e-06
0.00931797
2.26411e-08
1.41974e-07
2.06365e-08
-4.68297e-08
-2.66677e-07
-5.04505e-07
2.28863e-07
1.47948e-07
-2.0262e-07
1.37208e-07
0.00389429
-0.00882614
-3.94779e-07
-0.0167055
0.000282054
4.29737e-08
-9.5863e-07
0.000499415
-9.33223e-05
0.000262194
-1.0245e-05
-1.95906e-09
-0.00105838
0.0132152
-1.47944e-06
1.34542e-07
-2.37605e-06
1.04173e-08
-1.65574e-07
-1.22427e-06
0.00390947
-0.000211812
-1.87321e-05
0.00477574
1.22164e-08
-2.9203e-07
-2.35478e-08
-3.67671e-06
0.00164613
-7.35227e-06
-0.00163409
-9.28283e-06
0.00140474
-8.74366e-06
7.8817e-08
-0.019931
-4.28491e-06
0.000561473
0.000125138
1.65332e-08
2.00382e-08
0.000469772
3.03702e-05
8.02199e-05
6.29874e-05
-0.00177667
1.51723e-07
0.000939577
-0.00714403
3.96352e-09
7.02152e-08
5.41525e-07
6.58531e-07
-3.25534e-08
1.66917e-07
-1.81727e-08
1.01626e-08
1.87495e-08
-1.03243e-06
2.64358e-07
-0.00305127
-4.34919e-07
0.0258437
0.0177429
0.0030973
0.000308932
-6.25909e-06
-1.2825e-06
1.01606e-08
0.00143015
7.89299e-08
1.80046e-07
0.00147809
-3.52919e-06
0.00552109
1.16591e-07
0.00244047
8.70752e-09
-1.44035e-07
1.06126e-08
0.01063
-0.000155425
0.000855432
1.73287e-08
0.00697755
1.28868e-06
1.61905e-08
8.04479e-07
1.92976e-08
-0.0062616
-1.52733e-08
3.26023e-08
-0.0092397
-4.76162e-07
1.73447e-07
-1.19878e-08
2.8764e-07
3.40484e-07
0.0292455
0.00393972
3.89712e-08
-0.0176865
7.61527e-09
2.48001e-07
5.37891e-06
-6.19491e-09
0.00320345
3.34961e-08
3.99569e-07
-2.18765e-08
-6.67807e-06
-2.02465e-06
-1.771e-08
-0.000580343
0.000507712
1.8878e-08
-2.94951e-07
6.78832e-07
2.48887e-09
-4.1021e-08
2.09413e-09
-8.83735e-05
-0.00847782
4.27656e-09
-1.40071e-06
0.00391774
-0.00146292
-0.000806386
0.000805465
-0.00253813
5.43782e-08
-6.55375e-06
-3.76235e-06
8.18115e-07
2.34648e-07
0.000704637
0.000284526
-1.46479e-06
-1.49276e-08
4.84176e-08
-9.5105e-10
-6.28285e-09
3.58944e-10
-5.28128e-09
7.33171e-05
-1.69969e-08
-4.99971e-09
1.31792e-06
2.67968e-09
-3.74951e-08
7.96919e-08
8.255e-07
0.000246788
-0.000314755
1.3654e-07
0.00084046
7.5723e-08
-4.84689e-07
6.14848e-06
0.000340395
-1.13766e-05
1.03451e-08
-5.41486e-09
-0.00532262
0.0116217
4.05337e-05
1.34571e-07
0.0102411
-0.00452462
1.99385e-08
7.54706e-08
0.00359941
7.73084e-07
8.02344e-07
3.14372e-05
5.40436e-07
-1.36612e-06
2.10923e-08
4.97351e-08
-2.39515e-08
4.5842e-09
1.1161e-07
2.25676e-09
-0.00302898
1.61708e-08
0.00593398
0.00285618
2.14108e-08
1.69899e-08
-1.78921e-08
-2.6302e-07
1.7309e-06
0.00670677
1.20894e-09
-0.0294842
2.10356e-07
8.18423e-07
6.39274e-08
-5.94849e-07
1.3347e-07
2.7022e-08
1.34175e-08
-0.00161639
0.00720268
1.76258e-08
1.04941e-07
-8.27313e-09
-0.0120228
1.51268e-08
3.43303e-08
-3.21239e-09
-5.0862e-10
6.97559e-08
6.30289e-08
2.67615e-07
1.11472e-09
-5.74929e-06
-2.50304e-09
1.17873e-07
-6.0623e-06
0.00239153
-1.15602e-06
-3.3431e-07
6.04123e-08
-2.6033e-08
5.9697e-09
-3.72919e-07
0.00234511
0.0010735
-2.02506e-08
-0.00295989
6.38565e-08
-1.00791e-06
-1.99607e-07
5.45939e-08
-1.29326e-06
3.88262e-08
1.32164e-08
-0.00596031
-1.07763e-08
-4.29979e-08
-2.20115e-05
-3.30045e-10
2.62073e-08
0.00975827
6.54427e-08
7.0102e-05
0.000145463
1.92768e-08
-2.83852e-08
8.79431e-07
3.76147e-07
1.72071e-06
6.37714e-08
0.0121764
-0.00340106
-0.00305825
2.40027e-08
-0.00506355
-1.0845e-08
-3.92339e-09
-2.33047e-08
4.16686e-06
-0.016646
-7.4788e-06
-6.51585e-08
-5.38766e-08
-2.36977e-06
0.006875
0.00445935
4.97482e-10
-4.51938e-05
-1.2678e-07
0.000120546
-8.63754e-08
1.75651e-06
1.81241e-08
4.8272e-06
-3.58516e-06
6.61859e-09
2.07774e-08
1.76675e-08
3.76208e-08
-1.83473e-08
0.000647392
0.00039406
-0.00785885
1.153e-05
4.62087e-07
-2.16713e-08
1.00365e-08
0.00677473
0.000330929
1.22669e-07
-2.19118e-06
2.9091e-05
-0.00222932
2.09494e-08
2.24268e-08
1.65612e-07
0.000295437
-1.34984e-08
0.000341848
4.78073e-08
5.23956e-09
-6.87813e-07
1.49151e-08
1.06177e-08
-8.58874e-07
1.3017e-08
3.13211e-07
0.0013065
-1.27638e-06
0.000178842
-5.55356e-07
7.9899e-08
-3.31007e-05
3.30563e-08
2.05315e-05
-0.0026292
6.49474e-08
0.00247144
-1.08526e-06
-3.99466e-07
0.00391295
-0.00209962
-0.00242892
-0.000114058
3.55374e-07
-0.00732444
1.42651e-08
-0.0229672
0.00059796
-1.7032e-06
1.25332e-07
-0.000199742
-1.08914e-07
3.91802e-06
-0.0141388
0.0273615
-2.36119e-08
-0.00331159
1.78749e-08
-2.48682e-06
-5.68921e-06
1.89281e-08
-6.94302e-07
0.0013699
0.000100189
1.14606e-06
3.62189e-07
-7.08554e-09
1.23491e-07
-1.93973e-06
9.11805e-08
-5.94251e-06
6.24738e-08
-2.11312e-05
4.94074e-07
9.397e-08
-3.1739e-07
1.12317e-08
-0.000486387
2.0188e-08
3.87788e-08
0.0242836
1.47971e-08
-1.90017e-08
0.00154677
8.99065e-07
1.8575e-06
-1.02124e-08
3.89956e-09
-2.64053e-06
-6.05558e-08
0.000806295
-1.25924e-07
7.37446e-07
8.44033e-08
1.58033e-07
-1.05077e-08
-0.00803913
1.15729e-08
-0.00278359
1.59961e-06
-2.71949e-08
-0.0079012
4.83604e-08
1.83763e-06
1.08303e-06
0.0204144
-1.36552e-07
0.00398557
0.001874
7.42719e-08
0.00173762
3.53369e-09
-0.0122993
-5.3782e-08
6.26586e-08
0.00563959
0.00144416
1.40544e-08
-6.57246e-08
2.72946e-07
-4.02341e-08
-9.41027e-09
0.00140678
-0.0013374
5.13356e-08
-3.86096e-08
5.36756e-09
0.0260428
-7.30442e-06
-1.09885e-05
1.63583e-08
0.000166118
6.69886e-08
2.3754e-08
-5.2224e-07
0.0051327
8.15191e-10
-2.22854e-06
0.0160434
8.80507e-07
0.000470543
2.39264e-09
-3.3783e-09
1.04364e-09
3.15765e-08
-2.91997e-07
1.28167e-07
-3.7696e-06
-4.64557e-09
0.00942374
-2.85262e-08
-1.41587e-07
-5.5481e-06
-9.65157e-06
-2.39855e-06
1.23254e-08
1.58621e-07
0.00255429
0.000267762
2.69084e-07
-1.94818e-09
3.29631e-08
1.05463e-06
0.0113622
0.0019516
4.02292e-08
8.9284e-09
2.35911e-07
-6.4676e-08
-1.18742e-06
-1.61732e-08
-4.22309e-09
-0.00125331
1.80514e-08
2.38056e-08
0.00184787
2.50055e-08
0.00422515
-5.02173e-06
0.00574549
0.0370377
0.00124167
-0.000626213
-8.20722e-09
2.81293e-08
6.36084e-07
6.59004e-09
-2.69081e-09
-2.96434e-09
-2.29308e-08
1.14096e-07
0.00695845
7.37648e-06
0.0168925
7.48926e-07
2.73944e-08
4.20668e-08
2.36715e-07
-3.09248e-06
-2.93976e-09
-7.94826e-07
1.11803e-08
-0.000803138
0.00815861
-0.00436925
1.17916e-08
-5.88477e-06
-6.20977e-06
0.000370169
0.00972094
0.0113882
2.81091e-07
1.65042e-06
-2.36097e-07
-0.0212706
1.04822e-07
-1.07249e-08
-5.33935e-06
0.00590449
-4.62777e-09
0.000526875
-0.00241965
2.56667e-08
-2.83237e-08
2.6322e-08
-1.4886e-08
4.38873e-08
4.29085e-07
-6.0249e-07
9.75169e-09
1.03854e-07
-0.00529112
-0.000669413
3.70195e-08
-0.000267062
4.54342e-05
-3.85267e-07
4.24399e-07
-1.12883e-08
5.88274e-08
4.19761e-08
-4.12905e-07
-1.95018e-08
3.32493e-08
4.77254e-07
1.00147e-07
0.00552303
-1.52934e-07
-2.14573e-08
-5.63784e-08
-0.00599874
-2.29468e-08
-1.1885e-09
0.0178093
-3.02573e-09
-1.16494e-06
-2.93969e-07
1.60382e-08
-6.76773e-09
-3.01549e-08
8.39926e-07
-7.54244e-07
-4.0645e-08
0.00132793
-3.50059e-06
-6.59957e-06
0.00610561
2.39129e-07
-2.50796e-05
1.48452e-08
0.0142729
-1.91964e-08
-5.70519e-09
7.7115e-06
0.000673675
-1.2368e-07
-0.0120096
0.00312754
3.2845e-08
-6.11546e-07
3.964e-09
1.36359e-09
-5.99351e-08
-2.53606e-07
1.34168e-08
7.61889e-05
3.15546e-09
5.0702e-08
0.00275385
1.08828e-07
-3.01366e-09
-9.29438e-09
0.00583658
-7.50064e-08
7.47763e-08
-5.2229e-07
-0.00204869
0.00233766
4.54592e-05
-0.00355303
5.6761e-08
5.89822e-09
1.24335e-08
0.0271255
-3.55919e-08
-3.85437e-08
2.54365e-08
1.01806e-08
-0.0099557
1.14648e-07
-9.53654e-09
-0.00178493
-2.09135e-08
1.83162e-06
-0.00600401
4.64457e-09
8.94563e-10
0.000659493
5.86852e-07
-0.000221479
-0.00668909
8.15542e-09
-7.21361e-09
-5.10976e-05
1.1081e-08
5.09695e-09
1.11546e-05
3.9246e-09
0.0011883
2.62067e-08
-2.33608e-08
4.19262e-08
1.20045e-07
-2.64806e-07
-0.00385843
-3.01634e-09
1.8063e-08
0.000354641
0.00186069
-7.98781e-07
2.64283e-06
5.32646e-05
0.00446602
-0.00630703
-1.22344e-08
0.00343091
-3.67402e-08
0.00107828
-0.00661952
-4.03403e-08
2.6899e-06
1.23144e-07
0.000500086
-8.27813e-09
0.0188552
1.2075e-07
-0.000508032
8.1143e-06
-2.24067e-08
-2.17212e-08
5.19148e-10
-0.00962008
-0.00865106
7.60933e-08
0.0132504
6.33516e-09
-1.39392e-10
0.000591229
3.54837e-08
-0.00372815
-3.09679e-08
6.2297e-08
2.41144e-08
-3.20945e-08
1.59969e-08
-2.15451e-09
-4.45685e-06
1.73461e-06
1.14106e-06
-8.98032e-07
1.90911e-08
3.13681e-08
-0.000628459
2.55596e-08
-0.00388922
7.64889e-09
0.00637212
-2.70567e-07
0.00118918
8.08012e-08
1.4555e-07
3.83711e-09
-0.00460205
1.03521e-08
-0.00203269
-2.59043e-06
-5.2835e-09
-2.94916e-07
2.62127e-08
1.56057e-08
1.81204e-07
1.12554e-08
-0.000418332
8.88014e-08
3.07692e-07
-6.29998e-09
1.9618e-08
0.0186374
0.0167866
-3.1789e-08
-4.90807e-09
6.90815e-07
4.27259e-08
-1.98032e-08
-2.15157e-06
-2.42436e-08
-3.25473e-09
6.32298e-08
7.77059e-08
9.49987e-06
-4.94277e-07
1.42129e-08
4.29552e-08
-1.71543e-05
7.93369e-07
-0.0277405
0.012096
9.53951e-08
0.0143131
-5.78476e-08
1.10168e-07
-4.4862e-08
3.6034e-07
-1.93182e-05
6.9326e-08
-1.06476e-06
0.000961232
2.71715e-07
-1.62278e-05
-0.0105946
-0.00170714
2.1743e-06
1.77911e-09
-1.4147e-08
-0.00027355
1.96164e-09
-1.15308e-08
-7.109e-07
0.000118821
-1.45531e-08
-1.46757e-08
-0.00151899
-1.3783e-07
-5.13881e-07
-2.55435e-07
3.48757e-08
-1.11602e-06
-8.44077e-09
-1.35073e-07
8.35613e-09
9.93075e-07
-5.92504e-07
3.60291e-08
-2.14035e-07
-0.00174679
-1.23303e-08
3.39218e-08
0.000706922
-2.62463e-08
-2.58527e-08
3.26029e-09
8.93893e-08
6.69464e-07
0.000323949
-5.54885e-06
-3.98044e-05
-2.45858e-06
0.033104
-0.00250354
-4.77266e-07
0.0136118
9.77624e-05
-7.95074e-08
1.20521e-09
2.1237e-08
-1.49077e-08
9.78447e-08
7.27666e-07
-4.15976e-06
-6.9318e-06
-8.78723e-09
-3.09454e-09
2.09688e-06
-5.78738e-07
-0.00241997
-2.4911e-08
-4.06461e-08
2.49033e-08
1.78235e-05
0.00100311
-6.27172e-07
0.00886422
-1.52364e-08
1.97244e-08
-5.74856e-06
-1.31447e-06
5.07896e-09
-6.4419e-06
-1.44592e-07
2.15009e-06
0.000232261
-4.98739e-06
2.00692e-07
-6.76768e-09
-1.29165e-08
1.7458e-07
2.37553e-08
0.000701846
-3.91115e-06
-0.00523937
0.00287451
0.0201938
-5.69615e-08
0.00963362
-0.0188478
-0.00977918
7.55602e-06
-0.0316293
-1.08147e-06
0.00105864
-7.10115e-06
1.55643e-06
3.65933e-08
-2.90202e-08
-1.90545e-08
2.6772e-06
-6.34676e-09
-1.63523e-08
5.4765e-05
0.00592788
-0.0256165
-0.000377922
-3.06667e-06
0.0032962
3.80862e-07
-1.04234e-06
3.54829e-08
-0.00699476
0.000131812
5.65989e-08
-5.41902e-07
0.00188088
-0.00076854
-6.92701e-05
-6.51012e-07
-1.28547e-06
8.20014e-09
0.00421099
-8.74173e-09
0.00127118
-0.0042735
2.27117e-06
3.3063e-06
-7.04645e-06
-9.92316e-10
-8.94164e-09
-0.00112579
0.00327998
5.14189e-06
-1.68048e-07
-1.00559e-06
2.81975e-07
0.00100601
4.61367e-08
-0.000424089
9.26646e-08
-0.00266233
0.000837834
7.7745e-07
0.00261043
-5.44115e-06
-0.00447383
8.81517e-09
-1.08248e-06
-0.0262904
-4.23346e-07
6.82562e-09
-0.00532135
-0.00100634
-3.00724e-08
2.64887e-08
0.000478652
1.41103e-06
4.95179e-07
0.00764227
0.000942539
2.53988e-07
-5.80781e-07
0.0188886
-7.28856e-07
3.89063e-07
3.54106e-07
0.00137606
8.09675e-07
-2.6515e-08
4.8095e-08
0.00273669
-9.50582e-09
0.0434588
-1.04473e-08
1.7074e-08
-0.00200349
-5.00956e-07
-1.17614e-08
8.10508e-05
-9.72529e-09
9.43607e-08
1.04419e-09
4.90761e-08
-8.92358e-09
3.34145e-06
7.44685e-08
-0.000526064
9.07271e-06
0.00419223
0.00181659
2.23277e-07
6.62756e-09
-8.06352e-09
-0.0295118
-1.26827e-07
-3.65114e-08
0.00030816
-3.28666e-07
-0.0302261
5.18098e-08
-5.01083e-09
6.63216e-09
2.86097e-09
-1.97311e-07
3.65074e-08
6.34606e-07
2.28392e-07
2.6931e-08
0.000729033
6.82422e-06
-0.00140245
4.53534e-07
9.7274e-09
-3.80031e-06
-0.02116
-0.0116034
-0.00128571
0.00666497
-0.00158683
-7.0325e-06
-0.0158687
-2.21351e-06
-9.97711e-07
-2.54699e-06
-0.00156664
4.29927e-08
-2.5568e-05
0.000613759
-7.71108e-06
-1.56301e-08
-0.0047447
8.97356e-09
2.77329e-08
4.78633e-08
-6.78871e-07
0.00867979
0.0262874
-2.3857e-08
4.05554e-08
7.60557e-08
1.15265e-09
1.81608e-06
6.15423e-09
-0.0181215
-4.60047e-06
-5.91295e-06
-7.20334e-08
-2.85062e-08
-5.92016e-09
0.00434336
7.35228e-05
6.93203e-08
4.34122e-07
-0.0147404
3.2172e-09
8.97635e-09
1.43623e-08
-1.59425e-07
-1.20721e-08
-4.8437e-08
-2.67671e-08
0.00365143
-4.04755e-08
-7.03293e-06
4.35197e-08
-1.57364e-08
-1.24078e-06
-7.48317e-08
-0.00544385
-1.46291e-08
-1.74247e-06
-0.000267221
0.000975663
3.14608e-07
-5.57736e-06
-0.000492782
4.88024e-07
1.2114e-06
4.13066e-09
-2.0513e-09
2.62251e-08
2.47903e-08
-1.59176e-05
-7.39647e-07
-8.52704e-08
2.4779e-05
2.95055e-08
8.42147e-08
-1.09242e-06
-0.00718939
-1.36341e-08
-1.75413e-06
-0.00309102
7.86242e-06
-0.00842065
8.17599e-09
6.28015e-08
0.000325715
1.71128e-06
5.30734e-09
-2.8504e-08
1.00809e-06
5.89323e-10
2.2274e-08
0.0125307
-4.48328e-06
-7.07198e-07
6.32956e-07
6.51132e-07
-0.00825982
-1.42986e-07
0.00367305
0.0275738
2.93145e-08
5.2609e-08
1.00177e-05
-3.53924e-07
1.84423e-06
8.70047e-08
4.69335e-06
-3.64425e-06
-2.5275e-09
9.43678e-07
4.21593e-06
-9.37796e-07
0.00630817
7.63621e-05
-1.26215e-06
-0.000919757
4.36865e-05
6.31852e-08
-0.00329221
0.0222356
1.10675e-06
-0.0140411
-2.55503e-08
0.000113715
-6.43003e-06
-0.0042231
3.08224e-06
-5.57449e-05
9.82907e-07
0.00193151
1.84709e-08
-6.60272e-09
-0.00101283
1.51245e-07
-2.50458e-08
1.30967e-08
1.12764e-07
-2.02388e-08
2.34228e-07
4.58873e-08
-1.11332e-08
0.0074778
0.000931759
4.59011e-08
-7.34712e-07
-1.05735e-05
0.00166986
2.21128e-10
0.000113793
-1.58274e-06
-2.66363e-06
-7.8665e-08
1.943e-08
0.00380259
1.81795e-07
-2.91372e-06
-6.57334e-06
2.66257e-08
1.19507e-06
0.0122407
1.32663e-08
0.00200472
0.00296284
-0.0184694
2.23674e-07
2.09661e-08
3.37719e-08
1.57509e-08
1.81717e-08
-0.00143941
-0.0102188
2.38718e-08
0.00357359
-0.000156036
-2.68056e-08
-6.10868e-09
1.6606e-08
-0.00129117
-0.00174777
1.05242e-06
-8.91332e-06
-4.14605e-08
0.011169
-0.000412198
-3.64224e-09
7.16133e-08
-2.79758e-07
-1.27622e-06
0.0170006
0.00211422
3.37205e-09
0.004147
-0.000905669
-2.10377e-06
8.74173e-09
-2.00763e-08
8.91029e-07
5.79266e-08
2.13064e-07
2.29707e-08
1.56893e-05
0.00111239
-1.32331e-08
5.86763e-08
-9.75422e-07
2.43066e-08
7.09976e-08
4.23675e-07
-0.00286059
1.2528e-08
5.02831e-07
-0.0021554
-1.34736e-05
-0.000273286
-2.18932e-06
4.0899e-07
-2.08118e-07
-1.14513e-06
3.38386e-08
-4.1277e-09
-1.3794e-07
0.0010456
7.19967e-06
1.64853e-07
-2.54576e-06
4.8402e-08
-0.0142811
-5.24921e-05
-4.2628e-08
0.0418779
-2.92979e-08
5.87771e-08
6.14267e-07
-0.00699605
-1.40189e-06
8.71264e-08
-1.46843e-07
9.07803e-06
-2.97981e-08
0.00956777
-0.0245115
1.68644e-08
-6.23371e-06
0.00232797
-7.04919e-08
1.75766e-07
-0.00203142
-5.78478e-06
1.04455e-07
0.000483833
-1.5933e-07
1.70101e-09
0.000830618
0.000164098
0.00136126
1.66314e-08
0.00400246
2.3012e-06
-3.12477e-08
-2.31125e-06
-4.8305e-07
4.53525e-07
1.50879e-05
0.0261625
0.000270491
-3.92496e-06
-2.59187e-06
1.39546e-08
-0.0155652
-0.00134053
1.18493e-05
0.0188961
-8.33097e-08
-0.000175077
-9.00023e-08
5.76626e-08
-2.78554e-06
2.08979e-07
0.000150022
-0.00288333
2.44131e-08
0.00167092
-0.00474346
-0.00306081
-4.90177e-07
-5.23243e-06
-1.21939e-08
2.39542e-07
4.08116e-08
-1.42652e-08
-0.0120247
0.0188733
0.00717168
0.00272666
-8.25225e-06
-0.000184066
-0.00617323
1.00379e-07
-2.46729e-06
0.0260041
-4.47058e-06
-8.93846e-08
-2.50211e-08
-9.38558e-05
-1.38483e-05
1.6735e-07
3.55959e-08
8.89691e-08
1.42852e-05
-3.15899e-08
-5.96833e-06
-0.00228929
8.0421e-08
0.00583001
8.67504e-09
-0.0298471
0.00285633
0.00707815
-8.45248e-07
-0.000236221
5.21992e-07
7.41959e-08
1.56677e-07
-0.00166163
-7.39456e-07
-0.0052231
1.09986e-08
-2.83329e-08
2.96452e-06
-0.0179821
3.2622e-08
4.88455e-06
0.0164141
-0.0249424
0.00040004
-2.07839e-08
-9.18644e-08
0.00131149
-1.32544e-08
5.83477e-09
2.47426e-07
-3.57453e-08
1.33618e-08
-2.82127e-08
-2.08726e-08
-7.62384e-08
8.37608e-09
1.12536e-06
6.33433e-06
-6.43278e-07
0.0191364
-0.00152829
5.79827e-07
4.02141e-10
3.21474e-08
-1.72278e-06
5.46447e-09
3.30488e-08
6.63639e-09
6.33184e-06
4.425e-09
-4.09552e-08
3.87297e-07
9.52619e-05
-7.39878e-05
-2.90483e-08
4.34057e-06
-3.15284e-05
2.71365e-07
-0.000151873
0.000145101
-7.94055e-08
-6.90411e-09
2.38856e-05
1.40687e-05
6.35595e-08
-0.000925578
-0.0186983
2.78993e-08
0.000541195
-1.66339e-07
-3.49432e-06
-0.00522129
1.76561e-05
0.0020425
4.25211e-07
-2.45086e-09
0.000739032
-9.84414e-07
-0.00505876
5.71394e-06
-0.000852025
-0.0211308
1.15361e-07
-1.47509e-06
1.30867e-08
9.56905e-05
-6.91052e-06
-0.00147928
5.11477e-08
-5.37267e-08
-7.57806e-06
-1.69374e-07
0.0031184
1.1574e-07
0.00124712
0.0176113
-2.62484e-06
-1.3846e-05
-0.00176169
-1.07082e-08
-2.91188e-08
6.08841e-08
0.000608342
0.0012954
1.58591e-07
1.1453e-08
6.16268e-08
2.07462e-09
-1.5332e-06
-8.17389e-09
1.83184e-08
-2.0855e-05
7.23634e-08
2.57034e-08
-1.40154e-06
-0.000710088
0.0111803
-0.0136073
-2.12919e-08
7.66563e-05
-1.81144e-07
-2.60398e-07
6.54859e-06
1.0352e-05
-0.00180668
7.64142e-07
-1.48886e-06
-2.65799e-10
-1.48513e-06
4.84051e-06
-4.03052e-06
-0.0016233
-3.78034e-08
-5.47577e-06
-3.2514e-08
0.000347793
0.00134788
2.34398e-08
2.16614e-07
-2.13502e-08
-2.20569e-08
-0.000771253
-3.19621e-08
4.47025e-08
1.97591e-09
-1.91475e-07
2.52099e-08
2.03173e-07
3.08393e-08
1.22708e-07
4.03113e-09
1.31495e-09
-0.00551667
-0.00271746
0.000634957
-7.15041e-08
-2.29422e-08
-3.49411e-08
-9.634e-09
-4.90502e-09
2.75291e-06
1.99479e-08
1.63517e-08
3.72742e-08
4.2555e-09
-7.00859e-07
2.58132e-08
-1.8833e-05
0.00471786
-1.88788e-06
0.0293376
5.84597e-09
-0.00239347
-7.33121e-06
-2.97788e-08
6.71578e-08
0.000456639
1.82233e-08
6.43054e-08
-8.35343e-08
0.000178728
-7.35438e-06
2.28543e-08
-3.39674e-05
5.78784e-07
-3.35749e-08
-4.02646e-05
-0.0027177
2.06574e-06
-2.35809e-08
-1.08107e-06
4.84285e-05
-1.42388e-06
0.0137654
2.49604e-08
3.58666e-07
5.07967e-08
1.2816e-06
-1.47877e-06
-0.00190492
2.37981e-06
2.39762e-08
0.00177083
-1.24813e-05
2.91154e-06
-1.04511e-09
7.59715e-07
-0.00404455
2.53171e-08
3.61355e-09
6.38986e-07
-0.0123152
1.06212e-10
-1.00857e-07
3.70396e-08
1.62775e-06
-4.74268e-07
-0.00182455
-9.36763e-08
-2.60767e-07
-3.43325e-07
0.00972586
1.94251e-08
6.62778e-09
1.40632e-09
-6.918e-07
-1.42955e-09
0.00488006
-0.00178567
1.58615e-06
0.00153537
2.93295e-08
0.00123725
-4.67511e-08
8.20705e-09
-2.48758e-05
-1.64365e-06
5.65947e-06
0.00150321
0.0362754
-0.00322471
4.54454e-06
-1.44572e-06
2.48647e-07
0.0059037
-6.46227e-09
1.12631e-06
-1.21255e-05
5.49833e-08
9.52116e-05
0.000281978
0.00041095
-0.000474046
0.00174943
-0.00709016
-3.0089e-06
-4.01662e-06
-1.58634e-06
8.65529e-06
6.55337e-08
2.79936e-08
1.74873e-08
-0.00170022
-0.00775906
0.000168557
5.92086e-07
3.74317e-07
0.000526361
2.61942e-08
-1.26975e-05
-1.83228e-09
-1.16746e-06
1.80757e-08
-1.28696e-08
3.06642e-07
-1.43941e-06
0.000123716
2.00228e-06
-4.65992e-07
3.95198e-08
1.7728e-06
-0.00588504
1.22697e-08
-2.89386e-06
-0.0248192
-1.54173e-08
2.71073e-07
3.76333e-09
-0.0010001
3.78329e-07
-0.00534532
5.73016e-08
5.26315e-08
-6.6924e-07
-2.70576e-05
0.0200669
-4.18753e-06
0.000242172
-5.49295e-08
-3.36113e-08
-6.80754e-08
3.08503e-09
1.81519e-08
2.81508e-08
0.0145493
0.00506226
6.83309e-07
1.76381e-07
-1.29404e-06
-1.13239e-06
-1.71692e-08
1.40578e-08
-7.033e-06
-5.13829e-05
0.00147081
-1.04159e-07
0.000473342
2.84156e-09
-2.81233e-06
-2.0317e-08
-1.87029e-06
0.0176942
0.00227451
-0.000945868
-1.23655e-08
-3.83394e-08
2.29674e-08
-2.87196e-08
5.97786e-08
-2.00402e-08
-0.0243302
6.93344e-09
-2.86191e-07
2.05632e-07
2.64141e-06
-3.85217e-10
-0.00348654
0.0132665
0.00124988
-9.66791e-08
0.0287829
1.37094e-08
0.000252318
-0.0149561
1.36706e-07
0.00171925
-1.03608e-07
-3.98269e-06
-6.90396e-08
1.12262e-06
-5.37705e-07
-4.47066e-07
-7.95595e-06
-0.00212539
-2.71437e-06
6.74907e-06
-2.16584e-06
8.12134e-08
1.88752e-08
-0.00289635
1.75638e-08
-0.00606736
-2.8607e-07
0.00328492
0.0177568
0.00112429
2.11572e-07
-0.00407131
1.91897e-07
1.6705e-08
-2.33168e-08
3.90065e-07
-4.46095e-06
3.24982e-08
0.00144949
4.18414e-06
-7.89055e-06
-1.26869e-09
-1.50124e-06
0.031386
0.00208379
-0.00289079
-1.31213e-07
-3.69657e-06
9.56006e-05
0.0107719
6.59666e-08
1.20491e-06
-0.0025086
-4.45119e-06
-1.74292e-05
3.39511e-08
3.58861e-07
0.00136879
-1.76103e-08
0.000732867
-2.34977e-06
6.16245e-08
0.000716479
0.00114593
0.0161067
2.12841e-06
-6.42105e-06
-1.48679e-06
1.96555e-09
-3.73064e-06
-5.28753e-08
-0.000117304
5.6955e-07
-0.0443474
7.83859e-05
-0.000858553
-0.00227404
6.5553e-06
0.0143627
-1.04518e-07
1.96346e-05
-0.00349463
0.00321168
-3.13917e-09
3.06012e-07
5.81954e-08
-1.84909e-06
2.35585e-08
-4.00621e-09
0.016685
1.40515e-08
1.03303e-09
9.82679e-07
2.67135e-07
1.57251e-08
-1.75689e-05
0.000842297
1.80297e-06
-3.28663e-08
1.32616e-08
-6.23956e-07
3.09021e-07
7.23121e-09
2.45414e-08
3.83333e-09
0.0116852
-1.92858e-07
-4.50787e-06
1.22682e-06
-5.14402e-08
-1.2055e-08
0.010835
-7.88556e-06
0.000770334
-2.18098e-06
4.69011e-08
-1.21196e-06
2.75365e-08
-4.04252e-07
-0.00711236
-4.08269e-05
-2.69297e-06
-1.25167e-07
-1.13208e-08
3.61714e-07
-0.00428696
-0.000199466
0.000837559
-1.29909e-07
-4.42814e-09
1.28728e-08
-9.50636e-08
-0.000441746
0.00849137
5.01186e-08
6.04717e-05
-1.25737e-08
3.11429e-08
-6.96937e-06
-2.54936e-08
0.00234993
-7.34795e-06
-0.00217997
-2.62361e-08
-2.08209e-06
-2.05298e-06
-0.00726418
-1.60384e-08
-3.24832e-07
2.28945e-05
0.000360909
0.000881032
-0.00222091
-0.0449983
8.08547e-07
-9.08294e-06
-9.02165e-08
9.70024e-06
-0.00303759
-2.478e-06
2.50286e-08
-1.67809e-08
-4.26639e-08
-0.00372645
0.00327798
4.30363e-07
-0.0239754
-3.65886e-08
2.9111e-08
1.75653e-08
-9.23787e-06
1.05095e-05
-0.0219309
-8.94779e-09
1.572e-07
-5.75656e-07
-0.021034
8.11705e-09
0.000319426
7.18972e-08
-2.14827e-06
-0.0288094
8.41591e-09
-0.0069029
-0.00017726
-2.99347e-05
-0.0236768
2.97774e-07
-1.19409e-07
5.12549e-07
-0.00104509
-1.78635e-05
-5.22577e-08
0.00683744
0.000239043
-1.37372e-08
-1.05212e-08
0.0165471
-7.33872e-09
-0.00222876
0.00413484
-6.14965e-08
4.41388e-09
4.47942e-07
-1.35005e-06
0.00694498
6.69594e-09
-1.77011e-06
-7.02164e-07
-0.0296891
-0.00710787
3.06953e-08
-8.14525e-09
3.62638e-06
9.1372e-07
-1.10207e-08
-1.03914e-07
1.50488e-08
-3.91162e-06
1.30256e-08
-0.00493443
-2.06346e-09
-4.51301e-08
1.28303e-07
3.21238e-07
1.31062e-08
-9.04977e-07
-2.7876e-05
-0.00366605
0.00126452
3.06138e-09
3.97129e-09
-0.00424425
-1.98255e-06
-3.43339e-06
0.0186144
1.34673e-06
-0.00240461
-0.00783899
1.44e-08
-0.00833455
0.00018333
1.13596e-07
-3.20878e-08
-8.2317e-09
-6.49777e-09
0.0129105
0.000241169
5.63819e-08
-0.0130966
-0.000482403
0.0102792
-2.64526e-08
-4.23995e-08
-0.0238896
1.68115e-08
9.13319e-08
8.19685e-08
6.03329e-08
-0.000242102
3.21799e-08
-0.00437499
0.00087632
1.00217e-07
-2.37291e-05
-8.03574e-05
0.0253999
0.000116444
2.92114e-08
5.56983e-07
5.47576e-07
-0.0239686
-4.60691e-05
0.000254107
7.23884e-08
-1.02702e-08
-6.77543e-06
-6.60956e-09
0.0251334
-0.0019346
2.71081e-08
-0.00830541
3.38099e-08
-0.0012195
1.8852e-07
-8.91237e-05
1.36173e-07
0.0233824
-4.983e-07
0.000142591
0.00650606
-5.26631e-08
-0.0116301
0.0141104
1.70768e-07
-0.001763
8.08713e-08
-4.61227e-09
-2.78938e-08
2.45882e-07
4.0641e-07
-2.33865e-08
3.95166e-08
-0.00035828
-2.22221e-06
-2.08608e-06
-0.0164352
-4.10175e-06
8.07126e-07
-1.31785e-07
-2.7317e-06
-2.29694e-08
6.54591e-06
-0.0135796
-5.11642e-05
-0.00370272
-8.62285e-07
-1.39104e-07
1.7831e-07
-5.45335e-06
3.19526e-07
6.0526e-10
0.000738565
-0.000195764
0.0147414
1.62713e-07
-2.41565e-08
-2.7081e-06
-3.60757e-05
1.70933e-07
4.99504e-10
-7.62874e-07
2.95725e-07
-2.18266e-06
1.77522e-08
0.00088894
-1.48911e-08
-0.010074
-4.21845e-08
0.000375227
0.00153849
0.027771
-5.89099e-08
5.03838e-06
-4.85476e-08
2.99819e-08
-5.60419e-06
0.00147872
5.28497e-08
1.25012e-08
4.38132e-05
-3.41532e-08
-4.08636e-06
-0.00248953
1.26187e-06
0.00154623
8.5719e-08
0.00161535
-5.69131e-07
0.0410991
-1.42278e-09
4.65398e-09
0.00499486
-3.11423e-08
0.00229173
5.27014e-07
2.08048e-07
-0.00901913
2.09571e-07
-1.03536e-08
6.26548e-08
1.21098e-08
-0.00180297
-0.00330386
4.00204e-08
0.00079401
-6.18102e-06
-1.7702e-05
3.60003e-08
0.00263979
0.000918147
7.23807e-08
-6.32743e-07
1.9389e-08
-0.0104435
4.1735e-09
-0.0244488
-5.67709e-09
-5.17243e-08
2.31285e-07
-2.15931e-08
1.20738e-08
1.48181e-05
9.41932e-08
5.38667e-08
-0.000472313
3.58407e-08
-7.35855e-07
-2.50669e-07
-0.00261217
-9.61678e-06
7.95809e-08
1.43536e-06
4.16987e-08
2.14086e-08
4.87472e-07
-0.0618211
0.00105362
-0.00127834
-0.0237338
7.43812e-09
-7.6681e-08
-1.21616e-07
2.02663e-08
-3.57405e-08
0.0283711
4.73792e-08
-1.06655e-06
5.51845e-06
-3.11938e-07
0.00989847
5.7816e-09
5.61329e-09
0.00974663
-4.58282e-05
-2.00678e-08
-5.27792e-07
9.24278e-08
-2.54229e-05
-5.0061e-09
3.34155e-07
-0.0014801
3.33242e-07
0.000855983
4.28008e-05
2.38828e-09
1.4531e-07
-0.022194
7.11519e-07
-3.79575e-06
-0.000902131
0.0154484
2.3151e-07
4.76491e-07
3.6311e-07
-0.0225028
4.32289e-07
-0.00597426
0.00340091
0.00422282
-0.00364709
-2.14488e-08
3.42699e-08
-1.66577e-09
0.000932005
0.000661739
-2.08273e-05
-2.73819e-05
-3.40617e-08
-0.00505746
-1.37589e-07
-0.0108915
-4.50188e-08
-8.85766e-07
-7.55773e-06
-5.84896e-07
4.15107e-07
6.56079e-06
-3.09479e-09
9.94958e-08
-8.43027e-09
-3.19219e-06
1.56878e-07
2.56137e-08
-0.00913371
1.93893e-07
7.939e-08
-8.30437e-08
0.0328801
-6.59553e-06
-0.00225727
5.07485e-07
9.77348e-08
-0.00207602
5.16588e-07
-6.19741e-06
2.29876e-08
4.47914e-09
-0.00261038
-0.0022251
0.00102543
-9.55245e-09
6.79376e-07
-0.0170626