/*--------------------------------*- C++ -*----------------------------------*\
| =========                 |                                                 |
| \\      /  F ield         | OpenFOAM: The Open Source CFD Toolbox           |
|  \\    /   O peration     | Version:  v2012                                 |
|   \\  /    A nd           | Website:  www.openfoam.com                      |
|    \\/     M anipulation  |                                                 |
\*---------------------------------------------------------------------------*/
FoamFile
{
    version     2.0;
    format      ascii;
    class       volScalarField;
    location    "1000";
    object      k;
}
// * * * * * * * * * * * * * * * * * * * * * * * * * * * * * * * * * * * * * //

dimensions      [0 2 -2 0 0 0 0];


internalField   nonuniform List<scalar> 
18758
(
0.000182866
0.00370905
0.000148278
0.000181639
0.000164854
0.000139708
0.000143393
0.000152357
0.000163167
0.000161691
0.00236136
0.00761165
0.000243396
0.000151602
0.000143178
0.000141829
0.00687037
0.000130682
0.000143049
0.000154312
0.00349634
6.50526e-05
0.000140739
0.000139858
0.000364477
0.021173
0.00274119
0.000211303
0.000182394
0.00563587
0.0187833
0.00151586
0.000151961
0.0357772
0.000166582
0.00560672
0.000248745
0.000165379
0.0130812
0.000134814
0.00582639
0.000163281
0.00336819
0.000145915
0.000144926
0.0187379
0.000161409
0.000183783
0.029924
0.00017984
0.00268449
0.0429425
0.000178665
0.000153337
0.000199239
0.000234785
0.000139771
0.000153801
0.000182777
0.000139458
0.000146891
0.0001455
0.00061336
0.00130031
0.000147249
0.0486119
0.000146939
0.000133356
0.000212301
0.000130884
0.0398721
0.04444
0.000143002
0.000160257
0.000215346
0.0185608
0.0011345
0.00382308
0.000163186
0.00301149
0.00018173
0.013421
0.00467709
0.000183222
0.000149802
0.000192073
0.000155858
0.000161402
0.000521447
0.000191895
0.0312244
0.000153162
0.000177529
0.0307797
0.000142889
0.000139029
0.000132563
0.000175785
0.00382788
0.000142373
0.018927
0.000162487
0.00013328
0.000138999
0.0496518
0.00345681
0.000183731
0.0323768
0.000760663
0.00581432
0.000142001
0.00282298
0.000164583
0.000146281
0.000162431
0.000271314
0.000175493
0.00013807
0.000257011
0.000152185
0.00014495
0.00103818
0.000149946
0.000138103
0.0241451
0.000153382
0.000143881
0.000138119
0.000193816
0.0203368
0.000182757
0.000153249
0.000161892
0.0472953
0.000135086
0.000145902
0.00164736
0.000148532
0.000213893
0.000181134
0.000171214
0.00595746
0.00017101
0.000850569
0.0226853
0.000172702
0.0520541
0.000189806
0.002634
0.0430381
0.0181796
0.0243429
0.000146356
0.000167546
0.00567731
0.000945538
0.000177265
0.000194478
0.000187346
0.00342736
0.0381003
0.000139428
0.0346061
0.0529788
0.0189615
0.000139952
0.000139314
0.0373738
0.0197123
0.00796711
0.0263354
0.00014886
0.000184615
0.00638958
0.000679223
0.00014241
0.000142812
0.00118791
0.029264
0.000149193
0.000132371
0.00015299
0.000196774
0.000150928
0.0437697
0.000143637
0.00579142
0.000165413
0.0321314
0.0150984
0.0244956
0.000143571
0.000193214
0.00430846
0.000131464
0.000150671
0.000225165
0.000146168
0.0328933
0.000141612
0.000147675
0.000201025
0.00040612
0.000141782
0.000142036
0.0359018
0.000142445
0.000168814
0.0189534
0.0218472
0.000145118
0.000177524
0.000149752
0.00014823
0.00015236
0.000132779
0.000144536
0.000177302
0.000136829
0.0060986
0.00529606
0.000141533
0.000170614
0.000202766
0.000310653
0.00411194
0.000221996
0.000192878
0.0376227
0.000142197
0.0232032
0.000172467
0.000538825
0.000148011
0.000140741
0.000141988
0.000216142
0.0287255
0.000239563
0.000149109
0.000142143
0.000210406
0.000205295
0.000146728
0.0448512
0.000554043
0.000140815
0.000138228
0.000142998
0.000142435
0.0269107
0.000144696
0.00568159
0.00014258
0.000144398
0.000321057
0.000139765
0.0505631
0.0001429
0.00618895
0.00016561
0.000138407
0.000140902
0.000191728
0.000442461
0.000477769
0.000138534
0.00020995
0.00014648
0.000146099
0.000260577
0.0593048
0.000145869
0.000141398
0.000147727
0.000151815
0.000159057
0.000135696
0.000148866
0.000151593
0.000138222
0.000153291
0.000142363
0.0547937
0.000143274
0.000141212
0.000130316
0.000202275
0.000138926
0.00013893
0.000147984
0.000149557
0.000139615
0.000142761
0.000145957
0.000150164
0.00400431
0.000157474
0.000141511
0.0235029
0.000154575
0.000142336
0.000142374
0.00811145
0.000944988
0.000132317
0.000305897
0.00348115
0.000146351
0.000230972
0.000142394
0.000554413
0.000219057
0.000193281
0.000181696
0.0323596
0.000133003
0.00357281
0.000210424
0.000146889
0.000192564
0.000184082
0.0383292
0.000140719
0.000133074
0.0212796
0.00509809
0.00013959
0.0262373
0.000200306
0.000181177
0.0405782
0.000140648
0.000140206
0.000142679
0.000145963
0.00014878
0.000153209
0.000152512
0.000142939
0.000148577
0.000149071
0.00216668
0.00845794
0.000147659
0.00559556
0.00346321
0.000139406
0.000164099
0.00104877
0.000175373
0.00532911
0.000231906
0.00014362
0.0265388
0.0105256
0.000169077
0.000149041
0.000178532
0.000148418
0.000145125
0.000232083
0.00244492
0.0050544
0.000242891
0.00270751
0.000140819
0.000157134
0.000153511
0.00017656
0.0291922
0.000264071
0.000721822
0.000240095
0.00591413
0.000237561
0.000144707
0.0421448
0.000190596
0.00156493
0.00510274
0.000142369
0.000139657
0.000107447
0.00531271
0.00710408
0.000287468
0.0251996
0.000149258
0.0078168
0.00726347
0.000141908
0.000151391
0.000151631
0.000151638
0.00014535
0.000148838
0.000144165
0.00015657
0.000146799
0.000143709
0.000167249
0.0133215
0.000159534
0.0226313
0.0217744
0.0174678
0.0119386
0.000191568
0.000147203
0.000140393
0.00377897
0.000151388
0.00014922
0.000837776
0.00017636
0.00653568
0.000139981
0.00154407
0.000144467
0.000154756
0.000131934
0.036372
0.000501257
0.00575935
0.000145508
0.0375802
0.000177408
0.000144131
0.000150525
0.000145482
0.000866167
0.000146006
0.000142343
0.0184395
0.000159834
0.000149341
0.000142695
0.000152023
0.000156238
0.0117968
0.001829
0.000148511
0.0459466
0.000131865
0.000155965
0.000191781
0.000143682
0.0178534
0.000148256
0.000156716
0.000147784
0.000252279
0.000156119
0.000144114
0.027964
0.00110546
0.00013038
0.000157137
0.00015558
0.000141799
0.000143851
0.000150917
0.000404914
0.0200946
0.000147422
0.000167464
0.00223232
0.000871434
0.00417563
0.000432093
0.00441007
0.000137414
0.000190298
0.000204137
0.000165473
0.000151799
0.00637759
0.000448576
0.000169481
0.0001401
0.000143405
0.00013899
0.000143667
0.000138953
0.000143783
0.000278832
0.000149419
0.000131516
0.000177406
0.000152297
0.000148046
0.000134807
0.000154367
0.000403353
0.00411654
0.000142689
0.00244971
0.000142157
0.000159848
0.00019221
0.018137
0.000243164
0.000142981
0.000143693
0.0199556
0.0429397
0.000268076
0.000139833
0.00445758
0.0540551
0.000130292
0.000140861
0.0365262
0.000152654
0.000181701
0.000252591
0.000152741
0.000167497
0.000138314
0.000141866
0.000152531
0.000143377
0.000141895
0.000146954
0.00615529
0.000132183
0.00503512
0.00167779
0.000130374
0.00013219
0.00015053
0.000157841
0.000159714
0.00336512
0.000142439
0.0101131
0.000164382
0.000165475
0.000141265
0.000142497
0.000143821
0.000147648
0.000147525
0.0274058
0.0444799
0.000138156
0.000141667
0.000149338
0.0370521
0.000132058
0.000133041
0.000144027
0.000131585
0.000140802
0.000141029
0.000150483
0.000141795
0.000184191
0.000142355
0.000135608
0.000219208
0.0175565
0.00016375
0.000144042
0.000142529
0.000148868
0.000142485
0.000149996
0.00256478
0.00218326
0.00014938
0.00260238
0.000142388
0.000164762
0.000144478
0.000141812
0.000172904
0.000130906
0.000143646
0.00462345
0.00014771
0.000150858
0.000243032
0.000143719
0.000143353
0.0352102
0.000137901
0.000230462
0.000464267
0.000143459
0.000148095
0.000180511
0.000153153
0.000159717
0.000142202
0.00824878
0.00332706
0.0045255
0.000138495
0.0219784
0.000131369
0.000145498
0.000142342
0.00017383
0.016811
0.000227182
0.000144451
0.000150676
0.000151848
0.00330978
0.00171982
0.00014121
0.000380567
0.000154913
0.0281934
0.00016153
0.00020724
0.000139658
0.000171204
0.00017717
0.000143291
0.000139725
0.000132109
0.000138984
0.000159276
0.000471973
0.00561128
0.00391931
0.000204569
0.000157615
0.000142448
0.00013783
0.0050968
6.674e-05
0.000135086
0.000171221
0.0237597
0.027236
0.000146773
0.000145392
0.000186406
0.0044158
0.000131282
0.000918499
0.000143877
0.000155217
0.000161574
0.00014491
0.000147548
0.000147501
0.00013853
0.000149592
0.000832829
0.000172724
0.00772185
0.000148073
0.000141021
0.000281778
0.000133281
0.000252791
0.0066937
0.000144055
0.00105677
0.000153127
0.000144579
0.00160634
0.00591362
0.00595725
0.000429181
0.00015265
0.00139496
0.000132262
0.0335925
0.0177559
0.000166991
0.000143203
0.00782689
0.000154539
0.000210001
0.0151954
0.00778813
0.0001459
0.00422785
0.000142035
0.000172278
0.00018348
0.000141016
0.000163375
0.00102269
0.000266417
0.000158433
0.000150833
0.000131535
0.000149043
0.00015361
0.000164616
0.000224551
0.000141562
0.00028199
0.000156775
0.000145983
0.000157306
0.00013185
0.000685349
0.000142273
0.000139042
0.0434922
0.00013801
0.000149249
0.00348152
0.000177533
0.000179154
0.000143808
0.000145787
0.000182842
0.000145507
0.00449846
0.000154143
0.000153156
0.000150518
0.000145689
0.000131397
0.0377906
0.000131851
0.000985716
0.000208005
0.000149434
0.0355756
0.000140148
0.000174084
0.00015777
0.0188654
0.000153768
0.00568572
0.00469831
0.000145568
0.00314725
0.000135717
0.0179931
0.000145735
0.000148296
0.0542329
0.00454948
0.000142129
0.000146677
0.000152191
0.000138011
0.000143744
0.00570527
0.0277116
0.000141098
0.000137885
0.000135812
0.0097389
0.000227443
0.000225675
0.000138465
0.000461027
0.000148278
0.000146
0.000160131
0.00460395
0.000141222
0.000171596
0.0159962
0.000143449
0.000887324
0.000144194
0.000161778
0.000141226
0.000138331
0.000157412
0.00014623
0.000177385
0.000143572
0.0527323
0.000146306
0.000154435
0.000182242
0.000285509
0.000171915
0.000141379
0.000145572
0.00543077
0.000634122
0.00020048
0.000139578
0.000142361
0.000160335
0.0323813
0.0042633
0.000140777
0.000142065
0.000149466
0.000146438
0.00014887
0.000142491
0.000144523
0.00419981
0.000142241
0.00014344
0.00518179
0.000138423
0.00128675
0.000206082
0.00278807
0.0342054
0.00654183
0.0278681
0.000142514
0.000142495
0.000151838
0.000140938
0.000141278
0.000138989
0.000140939
0.000148864
0.00176922
0.000192072
0.0102927
0.000148634
0.000141952
0.000165033
0.000166736
0.000186908
0.000146924
0.000148729
0.000138139
0.0291854
0.0124686
0.00626163
0.000147851
0.00018463
0.000191726
0.00076968
0.0306647
0.00321051
0.000150131
0.000152336
0.000136029
0.0340174
0.00014656
0.000132929
0.00018849
0.00330608
0.000142219
0.00580899
0.00821023
0.000142457
0.000142247
0.000142552
0.000143938
0.000143312
0.000154356
0.000163167
0.000143346
0.000146654
0.00402232
0.0291771
0.000142954
0.00649314
4.64328e-05
0.00014908
0.000145236
0.000141281
0.000137928
0.000150801
0.000149092
0.000144525
0.000147662
0.000153339
0.000146529
0.0559712
0.000159428
0.00014342
0.000144042
0.00907039
0.000146073
0.000132895
0.0265665
0.000141352
0.000166695
0.000157441
0.000143483
0.000139437
0.000138018
0.000154858
0.000168017
0.000144562
0.00696809
0.000188073
0.000190235
0.00174695
0.000149197
0.000223707
0.000132264
0.00686726
0.000149602
0.000143171
0.000195482
0.000320109
0.000148083
0.00343058
0.0377587
0.000138946
0.000160828
0.000132958
0.000149353
0.000159976
0.000151384
0.000142894
0.000335017
0.000141049
0.000141306
0.00526514
0.000141775
0.000141281
0.000139448
0.0585593
0.000144252
0.000144368
0.000162914
0.000467286
0.00630143
0.000252915
0.00535648
0.000142052
0.000131692
0.000143556
0.00702186
0.000149658
0.000140987
0.000153075
0.000137772
0.0194224
0.000146861
0.000145839
0.0163777
0.000142202
0.000177692
0.0185861
0.000131668
0.000143267
0.000733202
0.000151538
0.0177769
0.0087553
0.000137789
0.000144384
0.000301208
0.000138611
0.000153176
0.00733649
0.000136048
0.00326825
0.000142463
0.000143643
0.00014319
0.000166412
0.000151743
0.00452046
0.000154205
0.000140795
0.000426777
0.00465446
0.000168312
0.000165678
0.000299515
0.0286028
0.00163428
0.000131304
0.0278169
0.000147641
0.0377658
0.00358302
0.000141131
0.000162501
0.000146998
0.00430211
0.000139674
0.0211464
0.000141758
0.0167519
0.000194847
0.000140094
0.000131577
0.000142536
0.00229345
0.0205239
0.000143952
0.0130763
0.000146223
0.000141226
0.00313076
0.000143126
0.00130828
0.000139963
0.000153667
0.000140567
0.000140033
0.00014087
0.000139746
0.000201915
0.000169193
0.000168164
0.000165883
0.000148661
0.000142701
0.00738013
0.000142643
0.00413065
0.000145493
0.00602205
0.000157847
0.00456614
0.000139567
0.000140833
0.000141074
0.0316607
0.000144319
0.00723032
0.000199257
0.000143593
0.000156877
0.000142601
0.000138106
0.000151534
0.000141215
0.00738125
0.000144082
0.000150379
0.000143739
0.000151814
0.0191691
0.0111754
0.000145639
0.000139504
0.00014498
0.000148219
0.000141928
0.000157522
0.000148204
0.000142454
0.00013757
0.000139055
0.000209433
0.000181285
0.000146462
0.000137663
0.000269069
0.000149845
0.0098557
0.0105523
0.000148476
0.0387869
0.000152876
0.000139559
0.000142424
0.000153352
0.000209422
0.000138358
0.000165989
0.00608137
0.000198137
0.000267601
0.0469618
0.0272344
0.000161656
0.000145952
0.00014446
0.00792502
0.000137613
0.000146807
0.000162237
0.000405207
0.000144175
0.000140198
0.0262493
0.000153411
0.000149579
0.000150017
0.000153756
0.000198697
0.000144473
0.000154121
0.000143944
0.000161775
0.000151426
0.000147748
0.000147739
0.0056773
0.000147674
0.000142756
0.00781432
0.000131625
0.000143292
0.000146017
0.000150075
0.000146389
0.0015255
0.000189657
0.00809086
0.00553361
0.0148886
0.00494284
0.000148285
0.00326419
0.00787403
0.000145375
0.000149299
0.000147583
0.000144513
0.000150352
0.000149285
0.000224631
0.000225843
0.000147049
0.000135457
0.000182216
0.000151335
0.00419897
0.000143016
0.000148402
0.000142105
0.000249417
0.00064598
0.000162637
0.0537937
0.000142353
0.000142219
0.000189117
0.00016498
0.000141887
0.000220553
0.000148595
0.000161625
0.00420277
0.000202952
0.000161312
0.000147128
0.000147939
0.000148524
0.000138729
0.00756619
0.000200704
0.0308917
0.0033322
0.0476505
0.00014838
0.0328048
0.0326768
0.047569
0.000189048
0.0066654
0.000161169
0.00246786
0.000192309
0.000163968
0.000130651
0.000142565
0.000145882
0.000178897
0.000139509
0.000145381
0.000297883
0.0366368
0.0117205
0.00710699
0.000180212
0.0076735
0.000168856
0.000153183
0.00014281
0.0385695
0.000254322
0.000140745
0.000163613
0.0182986
0.0271424
0.0236665
0.000170007
0.000190081
0.000131756
0.016794
0.00014766
0.00693472
0.00811744
0.000161818
0.000191198
0.000192425
0.000144288
0.000143108
0.00447773
0.00326337
0.000211055
0.00014829
0.000144442
0.000151947
0.00588781
0.000163618
0.007662
0.000148353
0.00571209
0.00163141
0.000156964
0.000890796
0.00021599
0.0255747
0.000131759
0.000166684
0.0321767
0.000160848
0.000141918
0.00447394
0.00505869
0.000142349
0.000142592
0.00528313
0.000150695
0.000149761
0.0529288
0.000627784
0.000145847
0.000160565
0.0199234
0.000162758
0.000152741
0.000152468
0.00424579
0.000156742
0.000140177
0.000141352
0.00108556
0.000139218
0.0143896
0.000136948
0.00013854
0.00664717
0.000146223
0.000142454
0.000350492
0.000131387
0.000153574
0.000137811
0.000142365
0.000144693
0.000181502
0.000144364
0.00750015
0.000199432
0.00763688
0.0496369
0.000155431
0.00013775
0.000139223
0.0293981
0.000158399
0.00014358
0.00763205
0.000168123
0.0087224
0.000136554
0.000136769
0.000137771
0.000140944
0.000144308
0.000134136
0.000148672
0.000148495
0.000143168
0.00175398
0.000161239
0.00731603
0.000149162
0.000137911
0.00016563
0.0390562
0.0342442
0.0037589
0.0555816
0.00742196
0.000223926
0.0328843
0.000150593
0.000169545
0.000172676
0.0277167
0.00014115
0.000270649
0.00177367
0.000209639
0.000142605
0.00367479
0.000141763
0.000142549
0.000144594
0.000161707
0.00246746
0.0385725
0.000145742
0.000131129
0.000138792
0.00013482
0.000181908
0.000143427
0.0311371
0.00018508
0.000187385
0.000148891
0.00014236
0.000133761
0.0244306
0.000272743
0.000144699
0.000142486
0.0116488
0.000134699
0.000143527
0.000135942
0.000144088
0.00014455
0.000145803
0.000137892
0.00534721
0.000152547
0.000246649
0.000163456
0.000146763
0.000243659
0.000146717
0.00149942
0.000146859
0.000173126
0.00125173
0.00152537
0.000167275
0.000207041
0.0273968
0.000152311
0.000169273
0.000152579
0.000142302
0.00013847
0.000140488
0.000227758
0.000173324
0.000154479
0.000215636
0.000138229
0.000144685
0.000170907
0.00431144
0.000131277
0.000170168
0.00897828
0.000189101
0.00434292
0.000149532
0.00014627
0.0230513
0.000175425
0.000139803
0.000142347
0.000188944
0.000137573
0.000138404
0.0470798
0.000180596
0.000148855
0.000148579
0.00014685
0.0355091
0.000153784
0.0182029
0.0119067
0.000142692
0.000141743
0.000302676
0.00016885
0.000163332
0.000150507
0.000175372
0.000165948
0.000139582
0.000153496
0.000219592
0.000176403
0.0167177
0.00542182
0.000165798
0.00769376
0.000295205
0.000140782
0.00508357
0.0213777
0.000153918
0.0457321
0.000146656
0.000210822
0.000186705
0.000424201
0.000171131
0.000231987
0.000165574
0.00645287
0.000141859
0.000132982
0.0498114
0.000151166
0.000142261
0.000142145
0.000147999
0.000134483
0.000149054
0.00014128
0.000142429
0.0521902
0.000830321
0.0001425
0.000146739
0.000256417
0.00717037
0.000131572
0.000247377
0.000225041
0.000173001
0.000145617
0.000140794
0.0256616
0.000148165
0.00018447
0.00018792
0.000138512
0.000160608
0.0491664
0.000143002
0.00603257
0.00138999
0.0342696
0.000148766
0.000142925
0.000143221
0.000144817
0.000142239
0.00728189
0.0127483
0.000138144
0.00218383
0.00013371
0.000150154
0.000145971
0.00014219
0.00430526
0.0276063
0.000224606
0.000197284
0.000152518
0.05002
0.00662704
0.000138705
0.00014239
0.000158301
0.000166005
0.00429908
0.00735777
0.000140503
0.00138859
0.00699484
0.000153807
0.000139875
0.000146022
0.000152764
0.000141751
0.000149383
0.000138332
0.000217805
0.00178599
0.000144582
0.000146395
0.000166099
0.000138585
0.000142528
0.00014677
0.0049852
0.00013792
0.000151729
0.0175185
0.000213376
0.000203605
0.000180344
0.000147831
0.000148518
0.000147942
0.000137448
0.000141351
0.000148444
0.000605929
0.000181515
0.000150291
0.000191553
0.000138009
0.0076406
0.000245409
0.000143592
0.0213251
0.000140415
0.000151561
0.000218733
0.0434277
0.000155201
0.000154008
0.000153442
0.000209459
0.000132023
0.0507697
0.028678
0.000138152
0.000185351
0.00569662
0.000144864
0.000150964
0.00414343
0.000184171
0.000146781
0.00528648
0.000155058
0.000142389
0.00371509
0.000217093
0.00605114
0.000140919
0.00176186
0.000169826
0.000133606
0.000182429
0.000163456
0.000145716
0.000221604
0.0189961
0.0051755
0.000184805
0.000223067
0.000138012
0.0454975
0.00743877
0.000208558
0.00590069
0.000144985
0.000303061
0.000145104
0.000141764
0.000173753
0.000149505
0.000548928
0.00594411
0.00014682
0.057718
0.0186141
0.028569
0.000161097
0.000186087
0.000131294
0.000147238
0.000153342
0.000131129
0.00320047
0.0147487
0.0533679
0.00158663
0.000231258
0.00517094
0.0434736
0.000144026
0.000153361
0.0175238
0.000180638
0.000145244
0.00014218
0.000263756
0.000212468
0.000160501
0.000142768
0.000145952
0.00022959
0.000142439
0.000223082
0.00684721
0.000134373
0.0472436
0.000137335
0.00662402
0.00162204
0.05917
0.000149669
0.0041012
0.000145624
0.000142557
0.000150392
0.0279071
0.000172384
0.00200617
0.000147301
0.000142444
0.000277493
0.0423326
0.000146743
0.000190527
0.00599971
0.0231549
0.000665786
0.00014021
0.000145476
0.0063147
0.000131239
0.000138023
0.000155947
0.000143794
0.000146987
0.000139982
0.00014202
0.000154829
0.000142027
0.000166712
0.000177202
0.000142072
0.0168816
0.0273203
0.000157474
0.000135573
0.000143104
0.000210612
0.000143601
0.000142724
0.000144535
0.000189727
0.000143431
0.000155233
0.000152928
0.00034523
0.00514639
0.000140866
0.000223179
0.000219991
0.000160328
0.000236288
0.000441811
0.000140803
0.000142628
0.000231237
0.000207734
0.000158037
0.000406523
0.0116496
0.000143087
0.00101288
0.000148651
0.000198068
0.00146848
0.000298657
0.0298145
0.00015121
0.00014132
0.000466216
0.000151895
0.00603058
0.000176755
0.00372859
0.00462557
0.000140565
0.000169148
0.000141969
0.000331035
0.000196023
0.0294357
0.000141487
0.000144755
0.000227266
0.000147947
0.00196478
0.000140354
0.00530822
0.00924729
0.00017344
0.0546624
0.0266626
0.000140529
0.000140716
0.000144063
0.000455309
0.00491195
0.000148342
0.000154674
0.000148032
0.000135651
0.000169942
0.000140804
0.000136754
0.000238329
0.000147989
0.0001365
0.000154964
0.0455964
0.0180724
0.0355569
0.000145815
0.000242355
0.000155392
0.00015614
0.00019234
0.000303051
0.0274788
0.000137937
0.000191257
0.000131577
0.000167164
0.000181222
0.000179342
0.00400026
0.000149196
0.000203741
0.000137304
0.00577253
0.0042293
0.000136799
0.000151092
0.000151637
0.000152092
0.0191781
0.000144417
0.000144563
0.000149105
0.000147934
0.000139397
0.000151209
0.000143186
0.000148428
0.000143427
0.000141665
0.00622573
0.00377238
0.0569869
0.000135503
0.00013195
0.000132806
0.000135929
0.000133027
0.00017379
0.00013269
0.00013806
0.00014283
0.000139806
0.000161822
0.000142604
0.000277686
0.0383323
0.000169495
0.0167114
0.000146056
0.00855446
0.000229685
0.000239376
0.000139832
0.00140632
0.000150151
0.000144177
0.000145095
0.000298247
0.000192788
0.000140339
0.000225922
0.000159066
0.000142661
0.000229037
0.00458787
0.00016646
0.000140632
0.000151878
0.000286019
0.000156447
0.0175339
0.000140424
0.000148062
0.000144401
0.000152349
0.000169439
0.00622241
0.000169515
0.000136822
0.00127383
0.000184876
0.000204776
0.000141227
0.000156022
0.0509807
0.000140739
0.000147971
0.000163569
0.00344086
0.000134228
0.000142707
0.000138019
0.000169556
0.000145267
0.00512094
0.000145213
0.000156172
0.000162453
0.0515916
0.00013863
0.000136897
0.000131703
0.000164687
0.000135525
0.0474892
0.00311647
0.000167837
0.00551644
0.000142937
0.00110424
0.000145242
0.000137789
0.000214107
0.000193165
0.000216421
0.00729311
0.0215666
0.00211555
0.000171942
0.000166913
0.000149685
0.00388205
0.000144704
0.000150436
0.000249528
0.000147549
0.00506406
0.00551812
0.00522604
0.00768321
0.00683801
0.00265301
0.00296907
0.000180938
0.000149673
0.000202984
0.000144339
0.000136979
0.000141543
0.0380764
0.0417522
0.005212
0.000157858
0.000155047
0.00521789
0.000140496
0.000200552
0.000136691
0.000171847
0.0001422
0.000133011
0.000148506
0.000169647
0.000982065
0.000165681
0.000161627
0.000137648
0.000184995
0.012848
0.000137287
0.000206545
0.0182873
0.0001312
0.000176411
0.000137675
0.0282559
0.000145796
0.00150547
0.000148219
0.000145955
0.000161715
0.00022096
0.00849713
0.000174177
0.00584958
0.000151262
0.000144651
0.00014498
0.000145052
0.000136703
0.000143272
0.00581223
0.0481682
0.000176612
0.000143263
0.000155303
0.000152111
0.0001459
0.000147066
0.000189428
0.00535906
0.0029435
0.000144163
0.00526021
0.000137674
0.000177493
0.000151299
0.000169713
0.00476246
0.00512497
0.00380031
0.00013318
0.000144292
0.000140495
0.000142452
0.000144362
0.000142105
0.0302009
0.00014611
0.000147175
0.000148569
0.000174713
0.000141692
0.0265656
0.046772
0.00541071
0.00014535
0.0303747
0.000136562
0.00404993
0.00691136
0.000150338
0.00574401
0.000154186
0.000178
0.000140526
0.000147903
0.000160047
0.000192609
0.000196999
0.00418234
0.000216759
0.000194517
0.000176031
0.000149961
0.000143823
0.00431958
0.000153428
0.00315841
0.000148794
0.0580842
0.00730188
0.0075195
0.000150765
0.0209275
0.00015459
0.000144866
0.000136005
0.000152295
0.000179734
0.000142719
0.00445939
0.000215156
0.000197136
0.0001414
0.000155256
0.0162294
0.00683646
0.00553024
0.000156158
0.000165202
0.0542131
0.0057819
0.000147899
0.000193513
0.00477117
0.000179212
0.000276347
0.000157999
0.00016105
0.000883344
0.000133971
0.00579308
0.000173647
0.00014417
0.00153762
0.00645246
0.0236515
0.000157548
0.00019339
0.000188112
0.000136856
0.00017925
0.000149356
0.000104618
0.000138713
0.0333029
0.0291413
0.00421076
0.00661271
0.000188418
0.00940987
0.000154896
0.000219479
0.00535124
0.0354337
0.000151012
0.00014937
0.000141869
0.000156413
0.000134327
0.000141281
0.0152181
0.000141665
0.00013839
0.000166536
0.000149695
0.000132643
0.000190596
0.00068306
0.000177753
0.00014586
0.000144664
0.000161171
0.000150058
0.000141579
0.000140567
0.000136549
0.0032293
0.000157194
0.00021105
0.000159736
0.000143523
0.000132908
0.00284465
0.00020872
0.00041933
0.000173195
0.00014744
0.000170256
0.000140578
0.000158748
0.0120644
0.000335417
0.000191103
0.000152751
0.000137452
0.000162922
0.00476827
0.00692868
0.005405
0.000156634
0.000137956
0.00013792
0.00015567
0.000313474
0.0349841
0.000137995
0.00502498
0.000132895
0.000143943
0.000198925
0.000140263
0.0015011
0.0001992
0.00350144
0.000133425
0.000169574
0.000170346
0.0372007
0.000137795
0.000145907
0.000227472
0.00309486
0.000726554
0.00461695
0.032093
0.000150621
0.000220748
0.000157151
0.000166853
0.0354673
0.000159427
0.000140837
0.000145584
0.000135256
0.0229469
0.0571291
0.000156759
0.0300209
0.000135882
0.000140965
0.000145803
0.000213497
0.000214937
0.0383436
0.000143687
0.00014888
0.000169111
0.0151673
0.000136453
0.0053724
0.000140675
0.000152263
0.0372912
0.000139877
0.0154049
0.000366961
0.0031082
0.0118146
0.0001442
0.000153406
0.000151725
0.0274817
0.000205713
0.000145131
0.0169135
0.00059721
0.000131157
0.000151278
0.0124018
0.00013684
0.022898
0.0381623
0.00015651
0.000131772
0.000155436
0.000158518
0.0545052
0.000137748
0.000166807
0.000149581
0.0104491
0.0304098
0.000142661
0.00013641
0.000209188
0.000158739
0.000144623
0.000142778
0.000140039
0.000178304
0.000152424
0.0158468
0.000148766
0.000148183
0.000141449
0.000151507
0.000153434
0.000150551
0.000383794
0.00380286
0.00606131
0.000148139
0.000136326
0.0108208
0.000157781
0.000178051
0.0119775
0.000187702
0.00640022
0.0389161
0.000135957
0.00713616
0.000652417
0.000150502
0.000140038
0.00014369
0.000143618
0.00479372
0.00737747
0.000144512
0.0468769
3.11894e-05
0.0449539
0.000132674
0.000138484
0.0134521
0.000140103
0.00014579
0.000164276
0.000141871
0.00260081
0.000155438
0.0352083
0.00462931
0.000141494
0.000287338
0.000195959
0.0507544
0.000333389
0.000143011
0.000155576
0.000172882
0.0164802
0.000291917
0.000692154
0.000147688
0.000143776
0.000187893
0.000136856
0.0496399
0.00133556
0.000140507
0.0222619
0.000137108
0.0284003
0.000146081
0.0071458
0.000150193
0.00932679
0.000268257
0.0261802
0.017768
0.000135142
0.00501326
0.0400261
0.000148757
0.0297279
0.000148317
0.000133436
0.000143671
0.000161151
0.000154856
0.000145641
0.000141138
0.000398018
0.000170997
0.000180545
0.0432595
0.000181957
0.00015888
0.000147843
0.00019227
0.000136284
0.000189026
0.017313
0.000354854
0.00501255
0.000150484
0.00015309
0.000150589
0.000177494
0.00015244
0.00014127
0.0207286
0.000477623
0.0448727
0.000151118
0.000145573
0.000174323
0.000333037
0.000148129
0.000136635
0.000149547
0.000151355
0.000170783
0.000143295
0.00531225
0.000147391
0.0343541
0.000138351
0.000964623
0.000279426
0.0159928
0.00013569
0.000189065
0.000144871
0.000137312
0.000190491
0.000279187
0.000141587
0.000149487
0.0251011
0.000144081
0.000183457
0.00501987
0.000159772
0.00296216
0.000145544
0.000946031
0.000162489
0.0268343
0.000136226
0.000140877
0.0592926
0.000139969
0.00682486
0.000155781
0.00016496
0.0361128
0.000150643
0.000143779
0.000149743
0.000141486
0.01841
0.0291108
0.000137287
0.0055377
0.000190675
0.00028344
0.000144017
0.00125838
0.0023658
0.000160707
0.000160992
0.000143985
0.0491827
0.000133633
0.0277286
0.000136111
0.000140023
0.000154479
0.000145815
0.000138479
0.000228515
0.000153163
0.000141609
0.00728564
0.000137819
0.000184768
0.000157205
0.00865895
0.000196029
0.000140257
0.000170228
0.000141093
0.000140495
0.000155258
0.0256793
0.0028502
0.00706208
0.0151699
0.000136473
0.000143404
0.000144418
0.000140261
0.000135566
0.0456698
0.00013331
0.000153508
0.000224889
0.00014899
0.00333464
0.000144755
0.000136549
0.0364292
0.000351084
0.000146031
0.000172329
0.000164791
0.000297089
0.000141561
0.000151898
0.00370216
0.000146112
0.00200967
0.000242019
0.000149535
0.000150102
0.0134076
0.000155432
0.00018331
0.000199583
0.00949407
0.000154012
0.000152507
0.000174077
0.0267043
0.00014894
0.00158678
0.00248989
0.0182361
0.0269774
0.000138887
0.000144166
0.000142192
0.00261606
0.000219617
0.000291412
0.0276265
0.00013556
0.0149023
0.000139192
0.0482261
0.000143319
0.000175031
0.000194502
0.000148694
0.000149588
0.000192908
0.000157468
0.000148075
0.000148941
0.000195295
0.000153384
0.000140659
0.00470232
0.000148284
0.000148388
0.000143303
0.0109244
0.000185315
0.00606439
0.000163767
0.000152785
0.025634
0.00015727
0.000207694
0.000137123
0.000142248
0.0556916
0.0258591
0.000440048
0.000145601
0.000154789
0.0417259
0.000207964
0.000190723
0.00169646
0.00311027
0.00410969
0.000136334
0.000204075
0.000140061
0.000179187
0.0106372
0.00018876
0.000189267
0.000151484
0.0305723
0.000190371
0.00203445
0.000217618
0.000141696
0.000143359
0.00014414
0.00862607
0.000137324
0.00541298
0.000181401
0.00409955
0.000135644
0.0428195
0.0565336
0.00628758
0.00655687
0.000150248
0.000147196
0.000142214
0.00015645
0.000144292
0.000155939
0.0508032
0.000145058
0.000150668
0.0279878
0.0065087
0.00607956
0.000158491
0.000168012
0.00013972
0.028565
0.000148553
0.0513627
0.000171684
0.000985023
0.000166169
0.000189966
0.00598751
0.000142936
0.000142301
0.0184495
0.00320656
0.000250892
0.000195335
0.000174605
0.00014119
0.000228562
0.000143868
0.000555304
0.000143617
0.000151227
0.00701032
0.000149494
0.000189586
0.000137568
0.0548079
0.0123735
0.000167828
0.000164717
0.0303149
0.000157786
0.00013602
0.0289231
0.0555963
0.0282246
0.000140037
0.000147967
0.00373806
0.0413078
0.0165152
0.000145951
0.000153263
0.000146095
0.000159539
0.000148066
0.000138424
0.00192038
0.000140774
0.0394392
0.000153687
0.019741
0.000135783
0.0319426
0.02208
0.000187158
0.000682254
0.000182465
0.000138501
0.000192534
0.003195
0.000139736
0.000147786
0.000145058
0.029206
0.0196047
0.000144518
0.0244667
0.000176487
0.000142644
0.030999
0.000152203
0.000188403
0.0291959
0.0318749
0.000145418