/*--------------------------------*- C++ -*----------------------------------*\
| =========                 |                                                 |
| \\      /  F ield         | OpenFOAM: The Open Source CFD Toolbox           |
|  \\    /   O peration     | Version:  v2012                                 |
|   \\  /    A nd           | Website:  www.openfoam.com                      |
|    \\/     M anipulation  |                                                 |
\*---------------------------------------------------------------------------*/
FoamFile
{
    version     2.0;
    format      ascii;
    class       surfaceScalarField;
    location    "1000";
    object      meshPhiCN_0;
}
// * * * * * * * * * * * * * * * * * * * * * * * * * * * * * * * * * * * * * //

dimensions      [0 3 -1 0 0 0 0];
oriented        oriented;


internalField   nonuniform List<scalar> 
27882
(
2.10787e-05
4.94287e-05
-6.99648e-05
-1.10954e-05
5.54758e-05
-4.41338e-05
-5.50241e-06
1.40909e-06
6.37487e-06
7.25053e-05
-5.08524e-05
-0.000197608
1.10837e-05
0.000187346
-9.54115e-07
1.18294e-06
-1.67461e-08
-0.000182313
0.000169415
1.61802e-05
-0.000194558
7.67625e-05
0.000118583
-1.25085e-05
-0.000184311
0.000171251
-9.20592e-06
-0.000161314
4.06481e-05
1.06392e-05
-5.10121e-05
-7.33003e-06
0.000119348
-0.000111896
7.34339e-05
-0.000211295
0.000138308
8.30457e-06
0.000149551
-0.000157121
-0.000206201
4.72837e-05
0.00016352
3.1907e-05
-9.98109e-05
7.30118e-05
-0.000118026
0.000110807
4.58655e-07
-4.58655e-07
-7.34357e-05
-0.000128833
-0.000224462
0.000191845
3.34787e-05
1.62313e-06
0.00012906
-0.000130353
8.03242e-05
-1.81131e-05
-6.22038e-05
-8.39239e-07
1.40316e-07
-1.86133e-06
1.05859e-07
2.17213e-06
3.55268e-05
4.48034e-05
1.72853e-05
-8.29935e-05
6.57206e-05
-0.000119371
0.000189127
-6.9781e-05
-2.57012e-05
-8.20665e-05
0.000107834
-3.59804e-05
0.00010806
-7.20181e-05
-2.57929e-06
4.50074e-05
-4.22589e-05
-9.63398e-05
-6.0222e-05
0.000156573
-0.000192766
7.34093e-05
-4.67489e-05
-0.000146995
-6.30616e-05
-1.36166e-06
6.44291e-05
-0.000193769
6.32971e-05
0.000131112
-5.37391e-05
5.13719e-05
-0.000105708
0.000179535
-0.000181871
0.000194043
-0.000164611
-2.94456e-05
2.73486e-06
1.16656e-06
-3.80705e-06
4.99231e-06
-4.6807e-05
4.18026e-05
-0.000201477
0.000174135
2.8066e-05
-6.50671e-06
4.70916e-05
-4.04448e-05
-1.39469e-05
-8.77544e-05
0.000102777
-3.21252e-06
-2.90699e-05
3.95289e-05
9.81843e-06
-0.000145717
0.000135927
-6.37846e-05
-0.000136992
5.26793e-05
-0.000119425
6.68126e-05
-6.41164e-05
5.06571e-05
1.34596e-05
1.97112e-05
4.81549e-05
-6.73277e-05
-1.07128e-05
5.16261e-05
9.80809e-05
-1.77573e-05
-8.03192e-05
6.88731e-05
-4.86048e-05
1.62885e-05
-0.000160658
0.000145213
-7.48581e-05
3.4833e-06
7.139e-05
-4.12986e-05
-0.000169502
-1.95906e-05
-2.9499e-05
4.98735e-05
-0.000176683
-4.68531e-05
5.14102e-05
7.14126e-05
-0.000122747
3.94867e-05
-5.81927e-05
-2.14211e-05
3.57988e-05
-8.58393e-06
8.81452e-05
-0.000100998
-0.000224736
9.61535e-05
0.0001354
-9.32296e-05
-4.21523e-05
-2.5864e-05
1.14378e-05
-8.18106e-06
-4.34427e-05
5.16264e-05
2.79241e-05
-1.36248e-05
-9.80288e-06
8.04631e-07
-1.4348e-05
1.40041e-05
-0.000112434
8.68059e-05
4.43081e-08
4.42384e-07
6.25506e-05
3.55365e-05
9.67339e-05
-8.40076e-05
-1.27135e-05
-0.000202575
7.40629e-05
0.000131661
0.000184373
-5.814e-05
-0.000125819
0.000113962
4.65438e-05
-0.000160318
-0.000162295
6.59633e-05
0.000176766
-0.000150071
-2.66646e-05
-9.96881e-05
0.000114388
-1.46128e-05
0.00015941
4.00091e-05
-4.63707e-05
-5.6297e-05
-3.40906e-05
9.04221e-05
0.000149227
4.48158e-05
4.39173e-06
-0.000103971
-0.000167775
9.7507e-05
7.05001e-05
1.40991e-05
-0.000103152
8.99853e-05
-5.72676e-05
9.68679e-05
-3.95801e-05
7.00418e-05
-0.000160115
0.000161625
2.32168e-05
-0.000139723
-8.49996e-05
2.65216e-05
-8.37691e-05
-0.000110975
4.69036e-05
6.40723e-05
-2.13925e-05
1.58455e-06
2.75683e-05
-9.60285e-05
-3.66575e-06
9.97415e-05
-5.22367e-05
-1.18799e-05
-0.000147298
-5.18009e-05
-4.77363e-05
7.18411e-05
-2.07579e-05
2.67345e-06
-2.54902e-06
-5.29586e-08
-7.66992e-05
-3.88713e-05
0.000115658
-1.6416e-05
-0.000103186
0.000119666
0.000186027
-1.70073e-05
-0.00016604
0.000111257
-0.000101418
3.92248e-05
0.000105082
-0.000143899
-1.30997e-05
1.43678e-05
2.54052e-05
-6.95874e-05
4.71908e-05
-5.5369e-05
0.000102659
-0.000100782
-5.581e-05
0.00010855
-2.82896e-05
-8.26861e-05
0.000205942
-7.83573e-05
-0.000127466
-3.81708e-05
0.000173755
-0.000135255
0.000115479
-3.61281e-05
-7.36345e-05
0.000111071
2.43434e-05
0.000151451
3.29988e-06
-0.000153762
7.32508e-06
5.78512e-06
-1.02461e-05
0.000146761
-0.000107115
-8.41034e-05
0.000135875
-5.17287e-05
5.88388e-05
-0.000135435
-9.66601e-06
4.98688e-05
-3.93442e-05
-0.000135576
9.25551e-05
4.30531e-05
-9.64374e-05
-1.49334e-05
0.000112276
-1.57833e-06
-1.32405e-05
1.82939e-05
6.54881e-05
0.000111312
0.000104845
-8.98061e-05
-5.14957e-05
7.41139e-05
-2.11276e-05
3.76646e-05
-5.56873e-05
1.80225e-05
0.000156653
-0.000139565
1.04029e-05
8.71903e-05
-9.63884e-05
1.86687e-05
-6.87847e-05
0.000124923
-8.64785e-05
-3.84035e-05
5.20993e-05
-4.36471e-05
-6.79431e-05
3.59537e-06
-1.51991e-05
1.756e-05
-8.42437e-05
-7.02894e-05
0.000154863
7.31123e-05
-2.15253e-05
-5.15848e-05
3.16105e-06
-3.72614e-07
-1.59206e-05
-2.54467e-08
1.94581e-05
0.000148084
-0.00017683
2.87028e-05
-7.7535e-05
0.000115962
-3.7311e-05
-8.50756e-05
0.000127883
-4.27548e-05
5.50896e-05
-0.000111346
-2.66324e-05
0.000179082
-1.49504e-05
8.58002e-05
-7.07088e-05
-8.3562e-05
-3.5727e-05
0.000119394
3.46608e-05
0.000171336
5.43529e-05
-1.66885e-05
-6.6631e-05
-3.88129e-05
0.000105513
2.89263e-06
4.43006e-05
0.000126488
-5.39625e-05
-7.24822e-05
5.32774e-05
-4.23596e-05
0.000127657
-5.19429e-05
-7.57003e-05
-5.10972e-05
1.07629e-05
4.03341e-05
-4.64874e-05
4.93198e-05
-2.83228e-06
-0.000190564
0.000111874
7.99627e-05
8.06693e-05
-0.000199708
0.000119848
3.79608e-05
-3.29736e-05
-3.18974e-05
-0.000125285
1.45534e-05
-0.00011053
9.1302e-05
3.36548e-05
-0.000109449
0.000171135
-6.13997e-05
4.24236e-05
-7.42842e-05
-3.41429e-05
0.000108423
-6.61522e-05
7.78671e-05
-1.05046e-05
-3.62115e-05
5.61593e-05
-1.99474e-05
5.41684e-05
-5.1273e-05
3.75897e-05
-0.000155612
0.000118066
1.29067e-05
-5.34649e-05
4.13282e-05
6.73561e-06
-7.16978e-05
3.29715e-05
6.47563e-05
-9.77275e-05
4.07583e-05
1.13408e-05
-2.25313e-05
-0.000102032
0.000124524
-3.2376e-05
-1.32353e-05
4.56114e-05
-3.12173e-07
-3.43492e-06
-6.39106e-05
-4.41886e-05
0.000108149
-7.65652e-07
7.65652e-07
-0.000210863
0.000132628
-0.000145975
3.93207e-05
0.000108744
-0.00016721
2.31826e-05
-8.52048e-05
2.0159e-05
6.50591e-05
1.07016e-05
-7.37566e-05
9.23192e-05
-0.000196802
3.63199e-07
1.24851e-05
-1.23563e-05
0.000185517
-0.000159006
-2.57888e-05
-8.80814e-05
1.32412e-05
-0.000159206
0.000140291
6.41568e-05
-0.000127708
6.35601e-05
-6.30449e-05
-7.19437e-05
0.000138237
-1.57841e-05
6.09732e-05
-7.10875e-05
-9.72941e-05
0.000168886
-3.72282e-05
-1.50078e-05
-0.000139778
0.000167157
-2.73153e-05
-4.86937e-06
-4.16181e-05
9.6225e-05
-0.00015549
-0.000175525
4.96143e-05
0.000126041
-0.000182325
0.000153284
2.9122e-05
2.6141e-06
-8.53008e-06
6.31791e-06
0.000131297
3.1741e-05
-0.000162309
-8.01214e-05
0.000126331
-4.61619e-05
-5.22345e-05
-0.000136549
-5.72123e-05
1.99851e-05
-1.99287e-06
4.61623e-06
-1.85093e-06
7.97901e-05
-7.177e-05
-7.2304e-06
5.04688e-05
4.08551e-05
0.000162357
-0.000163432
1.19522e-06
8.77462e-05
-1.87946e-05
-6.33958e-05
4.14702e-05
7.94451e-05
-5.42207e-05
1.80097e-05
-0.000151051
4.9949e-05
0.000102907
0.000144571
4.41272e-05
-2.91397e-05
-9.98478e-08
-2.13846e-06
3.15594e-06
-0.000119702
2.34014e-05
9.63492e-05
1.08095e-05
6.97834e-05
0.000156415
-3.46055e-05
-0.000120612
-0.000190365
5.08885e-05
0.000140291
2.50252e-06
2.40725e-07
5.10777e-05
-2.31483e-05
-1.98745e-05
-0.000105096
1.24039e-06
1.56252e-07
5.60984e-05
-1.43325e-05
-4.16491e-05
-0.000143543
-3.86794e-05
8.59395e-05
-7.57629e-05
-9.10382e-06
4.9473e-05
-0.000132918
9.39221e-05
-4.34278e-05
0.000145724
1.67558e-05
5.6458e-06
-1.78814e-07
-5.41127e-06
-5.40151e-05
0.000168175
-8.29903e-05
1.84451e-05
6.45628e-05
-9.99187e-05
2.56334e-05
-5.92684e-05
-8.99017e-05
7.43846e-05
-5.70877e-05
5.59049e-05
-0.000122457
-8.21328e-05
-0.000128607
-1.60208e-05
3.78172e-06
2.62094e-05
-7.82204e-05
5.65587e-05
7.13816e-05
1.56209e-05
-0.000168826
5.29975e-05
0.000115966
-5.8028e-05
4.4871e-05
1.31571e-05
-7.93533e-05
0.000119743
-4.03491e-05
0.000111711
8.73133e-05
-0.000197938
-0.000136854
8.10029e-05
6.15941e-05
-0.000111789
-5.68865e-05
0.000125363
-7.71484e-05
-4.81495e-05
-3.5787e-06
4.77575e-06
2.03371e-07
7.28361e-05
5.48391e-05
-3.50792e-05
0.000108899
-7.37918e-05
4.70423e-05
4.44084e-05
-8.65186e-05
-5.88332e-05
7.95917e-05
-1.76607e-05
5.99983e-05
-1.47836e-05
-4.45174e-05
6.29548e-05
0.000125447
-4.56848e-05
1.33091e-05
-2.11047e-05
0.000106426
-8.41126e-05
-2.45963e-06
1.81198e-07
2.29986e-06
8.54208e-05
-1.3049e-05
-2.02023e-07
5.46959e-07
-2.08159e-07
7.87972e-05
-0.000120749
4.19834e-05
3.79326e-05
1.40104e-05
-5.11718e-05
3.26691e-05
6.40765e-05
3.62986e-05
-4.31633e-05
1.36381e-05
-1.34938e-05
-0.000172402
-0.000132767
0.000136925
6.41284e-05
1.14216e-05
7.71793e-05
-2.59877e-05
-0.000119127
-5.62597e-05
5.80424e-05
-0.000130021
7.20094e-05
0.000138261
-8.01864e-05
7.04928e-05
-5.04353e-06
4.03387e-05
0.000134911
-2.17815e-05
-0.000156083
-7.64828e-06
0.000165274
0.000114906
2.02957e-05
-0.000135176
5.74936e-05
-7.92582e-05
2.17704e-05
1.02157e-05
-0.000164708
-0.000139995
6.07978e-05
8.10336e-05
-7.20361e-06
5.88597e-06
1.39525e-06
-4.91705e-05
-0.000140362
9.81122e-05
-0.000174161
7.63799e-05
-8.99685e-09
1.41333e-06
4.27562e-05
0.000114782
-0.000118863
0.00012776
-7.17418e-05
1.60801e-05
-1.38631e-05
1.88602e-05
3.72343e-07
9.20009e-05
2.96409e-05
-0.000116102
-9.59084e-06
-5.05226e-05
6.0116e-05
-0.000131343
-4.41342e-05
-9.40104e-05
7.94129e-07
2.38312e-07
-9.78839e-07
4.59588e-05
-0.000123051
-8.37009e-05
3.08868e-05
5.57977e-05
-5.49258e-05
5.36364e-08
-2.36118e-06
-0.000171966
5.43519e-05
0.000118401
-5.0754e-05
2.19177e-05
7.95023e-07
-4.96998e-06
5.4298e-06
4.98708e-07
-2.73269e-06
3.41647e-06
-6.30703e-05
5.42069e-05
9.56059e-06
8.28201e-07
4.83794e-06
1.84507e-06
-1.54511e-05
4.27178e-07
-1.81384e-06
6.29844e-05
-2.35585e-05
-3.94264e-05
0.000169091
-1.25219e-05
-0.000156156
2.50608e-06
9.50113e-06
-9.88076e-06
-8.13065e-06
1.27512e-05
-0.000199911
0.000101751
9.81342e-05
3.9172e-05
8.41869e-06
-4.73309e-05
-7.15175e-06
7.82521e-06
0.000128153
-0.000115867
-1.16603e-05
-4.76318e-05
0.000150528
0.00010968
-2.04074e-05
-0.000185042
0.000144174
-2.05502e-05
0.000117758
-8.41524e-05
-6.01942e-05
0.00014437
4.78098e-05
-0.000159578
4.49389e-05
0.000114729
-9.57811e-05
5.98483e-05
5.47534e-05
-5.611e-05
-5.40184e-07
1.32846e-05
-1.23448e-05
4.83118e-05
9.03175e-05
-0.000138656
-5.44791e-05
-4.6982e-05
0.000101489
2.89178e-05
-1.29029e-05
-1.13212e-05
-0.000105546
-5.39302e-05
8.23579e-05
-0.000191511
-0.00012144
6.95134e-05
-0.000103061
3.26289e-05
7.44226e-05
-1.32481e-05
2.34272e-05
1.13526e-07
-2.91052e-06
-0.000109942
7.80872e-05
3.41111e-05
3.87411e-05
-5.56815e-05
1.69402e-05
0.000166638
-5.55656e-05
-0.00011092
-2.76402e-05
-0.000128058
0.0001565
8.06786e-05
-3.15668e-05
-4.91102e-05
-2.19116e-05
-7.70078e-05
5.15735e-05
-1.32668e-05
5.54899e-05
1.35738e-05
-4.15496e-06
-0.000175135
5.16385e-06
0.000170973
9.51486e-05
-4.05798e-05
-5.3914e-05
0.000172147
-9.46739e-05
-0.000148029
4.76065e-05
0.000102133
2.0003e-05
-0.000193998
-0.000207625
5.29144e-05
0.000155674
-0.000115788
-3.53344e-06
-7.30934e-05
-0.000126801
-0.00011352
3.68396e-05
0.000150042
9.574e-05
-0.000112096
-5.82102e-05
-4.99815e-05
0.000131665
-4.21222e-05
-8.94047e-05
-8.69848e-06
4.81172e-05
1.5929e-05
4.90676e-05
-6.49912e-05
-4.22676e-06
7.55204e-05
-7.11947e-05
7.63254e-05
3.51874e-05
-0.000111468
9.92287e-05
-0.000167148
5.43386e-05
-4.18165e-05
-1.25222e-05
0.000169583
2.69245e-06
-0.000172317
-0.000182316
5.41074e-05
0.000128687
-3.31739e-05
-0.0001734
0.000128385
-0.000155217
6.36899e-05
0.000110063
-0.000172539
-9.97012e-05
1.30613e-05
4.70205e-05
0.000175669
-2.22983e-05
-8.0715e-07
6.70184e-05
-6.61026e-05
-6.40123e-05
-9.95419e-05
0.000163717
0.000174385
1.3468e-06
7.45422e-05
-0.000100392
0.000136949
-3.62897e-05
0.000164281
2.18832e-05
-5.86661e-05
0.000117593
-7.3705e-06
-0.000132231
4.81713e-05
-0.000209514
0.000127527
7.92009e-05
7.78322e-05
-0.000156935
-5.61101e-05
9.38234e-06
0.00011807
-4.16976e-05
-1.99769e-07
1.04062e-07
8.20828e-05
-3.06316e-05
-5.1448e-05
4.00455e-05
4.02685e-05
9.087e-06
-4.90874e-05
-6.40111e-05
6.331e-05
1.92743e-05
1.29481e-05
1.83501e-06
-1.36922e-06
5.03921e-05
-6.84991e-05
6.28823e-05
0.000114475
-2.43528e-05
-8.99242e-05
1.95165e-05
9.54163e-05
-1.69464e-05
0.00016555
9.68002e-05
-0.000167325
0.000129481
-7.18285e-05
0.000108901
5.29238e-06
0.000110699
-0.000115492
5.80351e-05
-0.000202828
0.000145691
-1.15598e-05
-8.46716e-05
9.70618e-05
1.3932e-05
-1.24143e-05
-6.28529e-05
0.000127468
-0.000156034
6.31144e-06
0.000153181
7.36748e-07
-9.64225e-06
6.62366e-07
-3.49158e-06
4.27363e-06
-5.12335e-05
1.40448e-05
3.77841e-05
-6.8358e-05
-9.54612e-05
0.000164155
0.000180301
-5.67595e-05
-0.00012358
9.57053e-05
5.14527e-05
-0.000146952
-0.00017917
7.98821e-05
9.92635e-05
-0.000116159
-6.30277e-05
6.30209e-06
4.22027e-05
-4.85052e-05
1.51865e-05
-0.000113626
5.12144e-05
6.24551e-05
-4.92831e-05
-1.31261e-05
-1.10324e-06
2.138e-06
-6.88754e-07
3.09591e-06
4.41087e-05
0.00014975
-0.000143813
7.16546e-05
0.000120739
-0.000191325
2.47877e-05
-0.000175707
6.27607e-05
-0.000121335
-2.58672e-05
-0.000135817
0.000162072
-3.62689e-05
5.10321e-05
1.48034e-05
-0.000130609
-2.53724e-05
2.79839e-05
5.30097e-05
0.000116404
2.47139e-07
8.10002e-06
-8.0204e-06
4.18734e-05
1.5366e-05
-5.72384e-05
5.41282e-05
6.0699e-05
4.31635e-06
-2.61744e-06
4.82533e-05
3.24272e-05
9.41969e-05
1.72443e-05
-0.000111393
-1.68402e-05
-2.73316e-05
5.27414e-05
8.57698e-05
-9.6483e-05
-1.95438e-06
5.61101e-07
2.02219e-06
-9.26876e-05
-0.000116778
-2.34086e-06
6.80687e-07
2.663e-06
-4.74887e-06
6.84466e-06
-0.0001061
0.000143732
0.000123018
-2.71367e-05
0.000159868
-2.94214e-05
-0.000134691
4.79476e-05
0.000127811
-0.000175027
0.000161595
-0.000181755
2.06462e-05
0.000106947
-4.35856e-06
-0.000102589
0.000184776
-0.000171344
-1.31547e-05
-1.10692e-08
-1.2363e-07
3.63582e-07
3.86431e-05
-8.01806e-06
8.62176e-06
4.89999e-05
4.68036e-05
-7.59427e-05
-9.99606e-05
7.05859e-05
3.53948e-05
0.000110129
-0.000170337
3.6619e-07
-1.57258e-07
4.19846e-06
0.000157818
-3.39809e-07
7.16198e-06
-4.68653e-06
-8.48101e-05
-4.7375e-05
-6.52104e-05
2.45534e-05
4.11923e-05
-1.24471e-05
-0.00014068
-5.57435e-05
4.35187e-05
1.22249e-05
4.81624e-05
-3.94826e-05
-8.84956e-07
7.83426e-07
1.44215e-07
3.61038e-05
-0.000136242
-0.000198146
7.73327e-05
0.000121912
6.7931e-05
2.51478e-05
-4.30547e-06
1.01954e-05
-4.23033e-06
3.16299e-06
-2.27828e-05
2.68093e-05
0.000154029
-5.19577e-05
-0.000102021
2.90904e-05
4.94548e-05
-7.85467e-05
0.000158479
-0.000175722
1.85227e-05
4.7066e-06
9.92601e-05
-0.000103811
0.000118641
5.57528e-05
-1.95808e-05
-6.56114e-05
4.47876e-05
1.59355e-05
-6.07477e-05
-0.00011337
7.83233e-05
5.91738e-05
-1.44531e-05
6.46723e-06
3.69075e-05
-4.25753e-05
-4.89872e-05
-6.45952e-05
5.49926e-05
-0.000126469
0.000162756
-3.5916e-05
0.00012537
-0.000171391
1.20217e-05
4.41579e-05
-8.76405e-05
-3.09914e-05
0.000119145
-0.000155522
0.000129768
2.17853e-06
-1.09713e-05
1.0682e-05
5.01214e-05
0.000121545
-4.01189e-05
8.64033e-05
-4.33127e-05
-3.10279e-05
-6.2533e-05
-6.6018e-05
2.84156e-05
-6.48574e-05
4.42977e-05
0.000138484
4.15951e-05
-0.000179677
-6.60974e-06
8.96503e-06
1.88982e-07
3.36132e-06
5.46249e-06
-8.42207e-06
6.99368e-05
3.17246e-05
-0.000101617
2.31167e-05
-1.34222e-05
-4.80997e-06
1.19933e-06
5.18619e-06
3.58508e-06
-4.43811e-06
9.18525e-07
-9.42029e-05
-0.000103195
-0.000116859
2.96993e-05
0.000152402
-2.30259e-05
-9.64028e-05
-5.07781e-05
4.03297e-05
1.89699e-07
-1.68172e-07
3.51448e-08
7.02458e-05
-0.000137661
6.76097e-05
-1.2837e-06
-6.84002e-05
6.97049e-05
6.48335e-05
-5.27035e-06
-5.95649e-05
-5.70224e-05
0.000136309
3.48745e-05
2.37732e-05
-3.73725e-05
0.000140017
6.165e-05
-3.25607e-05
4.1547e-05
1.32604e-05
4.64694e-05
-5.93645e-05
-1.2798e-05
5.30537e-05
-0.000216813
8.13004e-05
0.000135797
4.45799e-05
-6.41207e-08
2.46268e-07
-1.84768e-08
3.74684e-05
6.43932e-05
-0.000101862
0.000206805
-0.00015506
-4.43336e-05
9.94594e-05
-5.97463e-05
7.34624e-05
-7.13753e-06
9.37012e-05
-9.83799e-05
0.000103241
1.91068e-05
6.35803e-05
0.000151959
-0.000120522
-2.90561e-05
5.85808e-06
-2.05097e-05
2.29099e-05
-2.30219e-08
-6.53364e-07
9.55504e-07
-0.000152158
9.48445e-05
-3.12191e-05
9.68241e-06
9.04022e-05
2.09083e-05
-0.000111273
1.00516e-05
3.01418e-07
-9.86326e-06
0.000147406
-0.000172862
-5.53973e-05
0.000174041
-6.28687e-08
8.71002e-07
1.04807e-05
2.23791e-08
1.09039e-07
-4.40911e-06
1.42497e-05
0.000134867
-0.000148776
1.75135e-05
0.000129206
-0.000146244
0.000179989
5.00169e-06
-0.000149713
0.000135019
-0.000120072
-1.96646e-05
0.000106434
6.53803e-05
-0.000171503
3.83618e-05
-0.000164505
-8.86876e-05
8.58477e-05
3.95416e-06
-1.16118e-05
-3.90362e-05
1.13729e-05
-0.000178736
2.6675e-05
0.00015317
-1.26076e-05
-0.000164926
-8.20931e-06
5.63586e-05
-4.81499e-05
0.000102983
-3.88206e-05
-5.52857e-05
-1.32698e-05
-8.93806e-05
-4.59965e-05
-0.000125145
-5.94901e-05
9.24616e-05
-1.90286e-06
1.03781e-05
2.56184e-06
-2.6887e-08
-2.35794e-05
-3.39822e-05
-3.84002e-06
7.53169e-06
0.000118624
-9.03676e-05
-2.6579e-05
-1.10376e-05
-7.63555e-05
0.000184123
-0.000156205
-2.70695e-05
-2.66168e-05
0.000119371
-4.78877e-05
8.40937e-06
-0.000155403
2.822e-06
3.83046e-07
9.34717e-05
5.64546e-05
-0.000149813
8.06812e-05
-1.58499e-05
2.66354e-05
0.00012717
-0.000152903
9.39305e-05
-8.23988e-05
-4.90253e-05
-0.000103015
0.000154408
-5.02971e-07
-2.81679e-06
0.000131403
-0.000154819
2.6896e-05
2.04008e-05
2.23555e-05
0.000142192
-0.000164092
1.21122e-05
-5.07007e-05
3.88215e-05
6.61963e-05
0.000101322
-0.000166744
0.000150205
2.64409e-05
-0.000176462
9.35513e-05
-0.000140356
9.04018e-05
4.13892e-05
-1.13553e-05
3.86605e-06
-1.35059e-06
-1.88545e-06
-4.80647e-05
0.000104037
1.34694e-06
-1.27508e-06
9.41751e-07
-6.99872e-07
0.000181167
-0.00014985
-3.13279e-05
8.35963e-06
-4.70116e-06
0.000169128
-3.72109e-05
-0.00015214
8.82804e-05
-2.24471e-06
1.11828e-05
-7.00558e-06
0.000151478
-4.21275e-05
-0.000105863
-1.53382e-05
-4.42703e-05
3.54059e-05
3.75496e-05
0.000142167
-0.000179338
-8.52879e-06
4.45993e-05
-3.57967e-05
1.18407e-06
-4.83586e-06
4.81908e-06
5.90768e-06
-4.31139e-06
-0.000101807
-6.57585e-05
-0.000171494
4.34435e-05
0.000128697
-0.0001144
0.000132359
-3.6852e-05
-0.000106978
0.000163631
-1.33182e-05
-4.4108e-05
-1.76534e-05
-7.80403e-05
5.87651e-05
2.21036e-05
2.41306e-05
3.88531e-05
-1.21403e-06
7.46001e-06
-5.8825e-06
2.81394e-06
-1.98973e-06
0.00013123
1.32885e-05
-0.000141903
1.43549e-05
4.63491e-05
-6.0238e-05
0.000120168
4.70554e-05
-5.27124e-05
-8.9132e-05
0.000141948
7.30722e-05
-8.50704e-05
1.29001e-05
-0.00012678
9.07766e-05
0.00011102
-0.000138775
2.77372e-05
-3.97538e-05
-0.000176758
-6.57613e-05
8.54483e-05
-1.4194e-05
0.000115136
1.36228e-05
-0.000174954
6.93558e-05
0.000105993
-1.08724e-05
-0.000149792
6.58099e-05
-2.38988e-05
-0.000129988
0.000154584
0.000125087
-3.69798e-05
-8.58311e-05
-6.15091e-05
7.64506e-05
5.34657e-05
6.95682e-05
-0.000122941
-4.06879e-06
6.37302e-06
3.90324e-05
8.81488e-05
6.8533e-06
-8.44162e-06
0.000104925
-6.70829e-05
-3.53391e-05
0.000155172
-0.000133545
-2.12978e-05
0.000201887
-0.000169222
-3.23431e-05
5.91829e-08
-2.50518e-06
2.57457e-05
0.000129465
-0.000152666
-0.000219211
0.000152467
6.77907e-05
-8.92521e-06
0.000142635
-6.05678e-05
1.69907e-05
4.6673e-05
-1.4962e-05
0.000162703
6.63264e-05
4.83466e-06
6.35089e-05
7.1201e-05
-0.000134591
2.76304e-05
2.16894e-05
-4.2518e-05
3.43083e-05
-5.32862e-08
-1.24779e-06
4.88164e-07
1.76914e-07
-4.25024e-07
0.000180118
6.01005e-05
1.93147e-06
-6.19513e-05
-6.32009e-06
5.45788e-06
-4.51595e-05
3.66983e-05
0.00015573
1.67489e-05
-0.000170374
-9.65475e-06
-0.000135815
5.67545e-05
7.92351e-05
-2.90658e-05
1.86533e-05
0.000146926
9.73655e-05
1.33556e-05
3.65526e-05
3.90398e-05
-7.25922e-05
1.12293e-05
-9.50268e-05
3.08474e-05
6.08024e-05
-0.000108798
0.000101709
-0.000116045
1.43876e-05
0.000121089
-0.0001545
7.60817e-05
-4.85445e-05
-8.6994e-05
4.70811e-07
2.17057e-06
0.000112872
-1.97146e-05
0.000110135
3.49366e-06
0.000154045
-8.94376e-05
-1.13539e-05
0.000101649
7.39374e-05
-8.66151e-05
-9.0225e-05
-7.35899e-07
-2.0068e-08
2.40373e-05
-4.06044e-05
-0.000130205
-0.000166944
-2.58038e-05
1.03863e-05
-1.10387e-05
1.22606e-06
7.38993e-05
-5.30176e-05
-2.08783e-05
-4.2025e-05
4.83266e-05
-4.51745e-05
-0.000136661
1.59643e-05
7.04311e-05
3.39507e-05
-0.000135957
-3.56209e-05
-0.000138865
-0.000123055
0.000156198
-3.29057e-05
-0.000195362
5.78895e-05
0.000137592
0.000110777
-9.74168e-05
-1.33518e-05
0.000188264
-0.000144894
-4.15098e-05
-9.35221e-05
-2.25353e-05
0.000116069
-2.64067e-06
1.29847e-06
-5.81045e-05
0.00012172
4.41953e-05
2.73483e-06
-1.15174e-05
1.07417e-05
-0.000152732
2.45008e-05
0.000128439
-0.000115365
0.000176407
-0.000215968
0.000115968
0.000100475
0.000160659
2.42541e-05
8.43856e-06
-0.000184526
0.000152277
-1.04119e-05
0.000119526
-0.000190072
-2.60106e-05
-0.000112021
0.000138171
-0.000113685
2.80887e-05
8.70653e-05
8.7372e-05
-0.000140859
0.000153487
-0.000159614
-0.00015557
9.23109e-05
6.34981e-05
9.59488e-06
-8.62571e-06
-4.84763e-07
1.97714e-06
-2.65037e-06
6.75979e-07
0.000136974
-0.000101853
5.85395e-05
4.82274e-05
-5.48593e-05
-1.58143e-05
-4.42728e-05
6.32193e-05
0.000153924
1.25024e-06
6.0907e-05
-6.20362e-05
9.05748e-05
-2.94574e-05
9.38739e-05
-0.000138124
1.6527e-05
0.000124734
0.000178638
-1.93354e-05
-0.000157769
0.00015539
-6.62149e-05
-8.90293e-05
0.000170349
4.88311e-06
-0.000173455
6.02122e-05
2.97512e-09
0.000154712
-2.87651e-06
-0.000151438
3.09231e-05
7.46888e-06
0.000156762
-0.000163458
-0.000113445
-3.40417e-05
0.00014891
-6.69846e-06
-1.47039e-06
-3.51626e-05
1.32855e-06
8.6869e-06
-7.66297e-05
3.94668e-05
0.000159258
3.83009e-05
-8.50749e-05
4.67745e-05
2.2697e-06
2.12204e-06
-0.000153761
2.6531e-05
-0.000112518
-0.000102971
-7.35454e-05
0.00012415
-5.06132e-05
0.000143594
1.12885e-05
-0.000154477
-0.000164719
2.93237e-05
5.73553e-05
-2.53879e-05
-3.19618e-05
8.91128e-07
-9.17275e-07
5.27544e-07
-6.37039e-05
6.50846e-05
5.17038e-06
1.79265e-05
-2.1239e-05
-9.48112e-05
-0.000100434
1.39623e-05
0.000157926
-7.99633e-05
-8.26602e-05
0.000163595
-5.09983e-05
7.38603e-05
-2.28588e-05
6.3408e-06
-7.02698e-05
-8.92133e-05
-0.000179205
6.16764e-05
0.000118808
0.000174039
-7.13324e-05
1.3588e-05
5.93776e-05
-5.77719e-06
-0.000128806
4.09106e-05
-5.51342e-05
2.75224e-05
-6.06105e-05
3.30876e-05
-8.02852e-05
7.62835e-06
7.36103e-05
-5.63754e-05
-1.33065e-05
2.36907e-05
-1.6711e-05
0.000132396
-2.54494e-05
-0.000144717
9.21217e-05
-2.32847e-05
-0.000128011
0.000151895
1.86476e-05
-6.26075e-05
4.66192e-05
0.000110428
1.75966e-05
-0.000127411
7.58306e-05
-0.000154827
0.000190651
0.000121871
1.12694e-05
-7.46745e-05
1.46047e-05
0.000120781
-0.000195417
5.1286e-05
0.000144283
-4.57586e-06
-2.55033e-06
-8.70933e-06
-6.15989e-05
7.06588e-05
0.000177677
-0.000124765
-5.02914e-05
-0.000181826
0.000111903
-5.36117e-05
-1.52068e-05
-8.45952e-06
-3.67047e-05
4.58958e-05
-0.000112434
0.000148809
0.000157166
-2.27703e-06
0.000116314
8.98631e-05
-2.39282e-05
-5.92214e-05
6.95468e-05
-1.71635e-05
-5.23809e-05
-2.80691e-06
-1.94575e-05
2.73908e-05
0.000142562
-0.000127758
0.000179584
-0.00013759
7.03426e-05
-0.000128332
3.97847e-07
-1.18234e-06
2.29454e-05
-0.00013506
-5.80353e-05
3.98035e-05
1.83183e-05
0.000121665
-1.07035e-05
-0.000162799
3.99975e-05
7.17292e-05
-7.39237e-05
5.977e-06
7.15944e-05
9.18172e-05
-0.000160867
-0.000146591
8.88464e-05
4.35641e-05
-3.06956e-05
6.73288e-05
-7.71831e-05
-2.00559e-06
3.3318e-05
-0.000118279
8.99549e-05
-0.000196576
6.45177e-05
0.000133118
-4.4388e-05
-0.000133498
0.000107079
-8.74573e-06
0.000159803
-0.000129195
-2.74232e-05
1.50443e-05
4.19196e-05
0.000100041
4.18364e-05
0.000113015
-1.99747e-05
1.72833e-05
-7.65081e-05
6.19016e-05
8.86917e-05
2.02283e-05
-0.000143299
6.43433e-05
7.90562e-05
-7.47671e-05
-4.66583e-05
8.71465e-05
-7.0068e-05
-1.69724e-05
6.05671e-05
-3.30453e-05
-0.000134448
-1.6861e-05
0.00015453
0.000136739
-0.000136409
0.000195314
8.40721e-05
-7.54231e-05
8.07853e-05
6.77462e-06
-8.29669e-05
-2.73063e-06
-1.07856e-05
1.54498e-05
7.59876e-06
1.86389e-06
-8.06752e-06
-5.72932e-05
-0.000126413
3.15727e-05
-0.000124785
-7.84854e-05
7.72253e-05
-8.26058e-05
-0.000112628
5.74997e-06
2.77976e-05
-3.3192e-05
0.000145511
-0.00011889
-2.39092e-05
-1.69521e-05
0.000123623
0.000101756
-0.000169791
0.000166118
-0.000111172
-5.48131e-05
5.44387e-07
-1.74599e-06
3.42483e-05
-0.000151328
0.000118218
-4.42288e-05
3.65007e-05
4.74563e-05
1.66639e-05
-6.41196e-05
-0.000144295
0.000173587
-2.91933e-05
-0.000177627
9.34284e-06
8.35418e-06
-1.39089e-05
6.44118e-05
-5.36962e-05
0.00010495
-6.18634e-05
5.34655e-05
1.51372e-05
-0.000134836
-4.18265e-05
0.000176727
0.000154464
2.81937e-05
-0.000181779
-4.17342e-07
6.36066e-06
-6.63925e-08
2.9157e-06
6.87867e-05
-5.80791e-05
0.000159948
-0.000173227
1.46199e-05
1.72888e-05
-1.6817e-05
2.14473e-07
0.000147892
-0.000100198
-4.76022e-05
-0.000172165
0.000139978
-0.000108749
-2.77959e-05
4.05259e-06
-3.85011e-06
0.000167357
-3.30167e-05
-0.000133961
-0.000104909
8.8675e-05
0.000150466
-0.000126466
-2.09453e-05
0.000102757
9.97465e-06
-0.000106979
-0.000153208
2.42885e-05
0.000130595
-0.000201357
0.000124404
8.01377e-05
-0.000171839
5.30597e-05
0.000119629
-5.90629e-05
-0.000110701
0.000170039
-9.83489e-05
-3.36162e-05
0.000134015
0.000163832
-2.67732e-06
0.000183614
-0.000154594
-2.90047e-05
-1.56132e-05
6.30701e-05
-0.000149709
7.94966e-05
5.88751e-05
-4.67714e-05
7.66844e-05
-5.91735e-05
-1.75013e-05
-0.000133252
-4.98832e-05
0.000184168
5.52568e-06
7.59713e-05
-8.06814e-05
6.55767e-06
7.84707e-05
2.64439e-07
4.21616e-08
0.000183542
-2.95795e-05
-0.000153134
-0.000175178
4.29231e-05
4.82077e-06
1.27391e-06
-4.81913e-06
0.000186741
-0.000158879
-4.02426e-05
-0.000130722
0.000174901
-2.51582e-05
-0.000148339
-7.56907e-05
2.46974e-05
0.000158923
-6.04661e-05
1.99483e-07
-5.60044e-06
6.7284e-06
0.000143854
-0.000165677
2.35687e-05
0.000175621
-0.000138569
-3.70454e-05
0.000137741
1.53541e-05
-7.29429e-07
-1.40812e-05
-5.53638e-05
-6.80181e-05
8.24903e-05
-9.33146e-05
1.61005e-05
-0.000150111
5.18959e-05
2.38401e-05
-0.00013603
4.69447e-05
0.000108898
-0.00015234
7.61239e-05
-5.6973e-06
-6.72142e-05
-7.48465e-05
1.63167e-05
6.0181e-05
4.27614e-05
0.00014975
9.55571e-05
-0.000123003
2.75299e-05
-6.19247e-06
3.38715e-06
7.43772e-05
1.2855e-05
4.71131e-05
6.5572e-05
-0.000114513
5.11041e-05
-0.000185884
-4.14709e-05
-0.000154007
3.9204e-05
0.00013989
-0.000178664
1.11892e-05
-9.76048e-05
0.000179163
0.000156388
0.000152724
-2.22589e-05
-0.00012865
-8.06783e-05
8.99167e-05
-9.21812e-06
0.00011691
-3.80825e-05
0.000110033
6.53747e-05
-0.000174167
-3.19217e-05
0.00015911
-0.000127132
-9.612e-06
2.89305e-06
-3.94252e-06
1.74738e-06
-5.7832e-05
-7.7795e-05
1.65474e-05
-6.30934e-07
-1.88009e-05
3.28466e-05
0.00012262
0.000218022
-6.72999e-05
-0.000149714
1.91582e-05
1.31968e-05
-9.16649e-06
4.30019e-05
-3.3546e-05
-7.51709e-05
1.38081e-07
7.9121e-05
-2.85503e-05
-8.37188e-05
-9.12958e-05
-1.22971e-05
4.48541e-05
4.21864e-05
9.17535e-05
-6.58098e-06
8.06197e-05
-1.15176e-06
-1.81921e-05
-3.03507e-06
0.000148347
7.23533e-05
-7.60986e-05
4.55809e-06
9.35694e-05
-0.000152386
8.02846e-05
6.55314e-05
-0.000104359
1.95114e-05
8.4976e-05
-3.74187e-05
-8.32975e-05
0.000114909
-9.39595e-05
0.000117412
-6.46732e-06
-2.88835e-06
9.80941e-06
-9.53347e-05
0.000145515
-3.15838e-07
0.000111092
-6.83407e-06
1.60723e-06
7.89492e-06
-0.00011032
-1.03919e-05
0.000122971
4.82303e-05
9.8143e-05
-0.000145934
-7.13832e-06
-3.63467e-05
6.58552e-05
-0.000160523
0.000157129
-0.000172279
1.64728e-05
0.000154098
-0.000168005
1.56257e-05
0.000170843
-0.000137897
-3.28224e-05
0.000127568
-0.000150259
2.60263e-05
8.72189e-05
-5.10155e-05
2.93938e-06
-8.95942e-06
3.63586e-05
-0.000132684
7.65836e-05
-0.00020836
0.00013181
-0.000184757
-5.084e-05
1.37188e-05
4.15809e-05
0.000134024
-4.4416e-05
-1.30212e-05
0.000207874
-6.36209e-05
-0.000141373
-0.000139462
-3.87907e-05
0.000178604
-2.03423e-05
5.9334e-05
0.000155385
-0.000106691
9.94023e-05
1.51732e-05
-2.98886e-06
2.77993e-06
6.40953e-07
0.000126659
-0.000149752
2.31831e-05
1.64776e-06
-0.000101387
-0.000127777
-2.37773e-05
-3.36287e-05
-0.000166013
7.08521e-05
6.71922e-05
0.000151815
0.000131403
-1.76083e-05
-0.000113761
-2.00903e-05
6.31331e-06
3.69704e-05
6.34266e-05
-9.65493e-05
0.00016832
-0.000140435
-2.74461e-05
3.7492e-05
-1.47068e-05
0.00011034
0.000147279
-0.000176943
3.03942e-05
3.29909e-05
-4.18684e-05
3.51048e-05
1.19262e-05
-4.70308e-05
0.000142821
-6.24267e-05
5.57994e-06
-8.85337e-07
-4.35294e-06
-1.05799e-05
-1.39381e-05
4.25487e-06
0.000101909
-6.44408e-05
3.37866e-05
-6.83352e-05
1.27345e-05
-7.36025e-05
0.000181422
-2.29712e-05
3.21031e-05
2.81499e-05
0.00012485
-3.53292e-05
-8.71585e-05
-0.000128481
5.49305e-05
-3.54343e-05
8.13316e-05
2.66475e-05
3.23147e-05
6.45758e-05
-2.59157e-06
1.15209e-05
6.46026e-06
-7.15446e-06
9.58862e-07
-1.05138e-05
0.000145066
-0.000124559
-9.8089e-05
0.000164097
0.000154957
-0.000149654
7.79489e-05
-0.000151262
-6.76714e-06
-1.82818e-05
2.9994e-05
1.70888e-05
7.36801e-05
-1.00434e-05
0.000136711
0.00014666
-0.000113074
-2.99985e-05
5.6771e-05
1.99223e-05
0.000105142
2.91873e-06
-0.000105669
4.52523e-05
-0.000162477
0.000117706
-9.32656e-05
7.53647e-05
1.08979e-05
9.61848e-05
0.000103512
-6.2681e-05
3.78668e-05
8.92263e-05
-6.96027e-05
-7.35837e-05
-1.36161e-05
0.000161513
0.000101776
-0.000174446
7.29612e-05
6.03034e-05
-0.000146837
8.67361e-05