/*--------------------------------*- C++ -*----------------------------------*\
| =========                 |                                                 |
| \\      /  F ield         | OpenFOAM: The Open Source CFD Toolbox           |
|  \\    /   O peration     | Version:  v2012                                 |
|   \\  /    A nd           | Website:  www.openfoam.com                      |
|    \\/     M anipulation  |                                                 |
\*---------------------------------------------------------------------------*/
FoamFile
{
    version     2.0;
    format      ascii;
    class       surfaceVectorField;
    location    "50";
    object      Uf;
}
// * * * * * * * * * * * * * * * * * * * * * * * * * * * * * * * * * * * * * //

dimensions      [0 1 -1 0 0 0 0];


internalField   nonuniform List<vector> 
27274
(
(1.09314 0.0871879 -2.02444e-21)
(1.09011 0.0852383 -2.02109e-22)
(1.08986 0.0891757 -1.18315e-20)
(0.180476 -0.0224567 -1.65923e-20)
(0.18594 -0.0269611 -3.39327e-21)
(0.165181 -0.0193842 -4.89493e-21)
(1.00264 0.0217931 -5.29907e-22)
(1.00243 0.0211262 1.08429e-22)
(1.00303 0.021386 -8.16243e-22)
(1.01497 0.00560561 -2.99589e-22)
(1.01537 0.00565602 3.8302e-22)
(1.01526 0.00600151 4.0646e-22)
(1.04659 -0.00131828 0)
(1.04663 -0.000477471 -4.29545e-21)
(1.04763 -0.00113942 -5.82321e-21)
(1.11292 -0.0445141 -6.66902e-22)
(1.11488 -0.0436412 -9.62246e-21)
(1.11465 -0.0462807 -2.45562e-20)
(1.00358 0.00744753 -1.45044e-21)
(1.00336 0.00722837 7.37521e-22)
(1.00355 0.00717199 -1.18258e-21)
(1.14998 0.030585 8.76883e-21)
(1.1517 0.0272216 2.22429e-20)
(1.14796 0.0278147 -1.97722e-20)
(0.940304 -0.0100525 4.21697e-22)
(0.93788 -0.0108756 -5.44237e-21)
(0.0380035 -0.0272026 -4.04309e-22)
(0.0260404 -0.0218357 3.83085e-20)
(0.0436454 -0.0251585 2.11172e-20)
(1.02321 0.00109729 2.20166e-22)
(1.02342 0.00138391 1.74867e-21)
(1.02291 0.00128911 3.86169e-22)
(-0.277478 0.00833163 -1.82388e-20)
(-0.280911 0.00758184 -3.58695e-20)
(-0.304731 0.00807333 8.85517e-20)
(1.18928 0.0201008 3.53473e-20)
(1.19099 0.0176537 -9.38489e-21)
(1.19302 0.0211578 -9.45061e-21)
(0.986745 0.00423159 1.4786e-21)
(0.986974 0.00483601 0)
(0.987384 0.00424549 0)
(1.02353 0.0373088 -1.12365e-23)
(1.02441 0.0365398 -3.82783e-22)
(1.02313 0.0360785 1.41862e-21)
(0.984963 0.0690751 -2.14619e-21)
(0.983243 0.0707398 0)
(0.982598 0.0682226 0)
(-0.245809 0.0133145 8.98958e-21)
(-0.222615 0.0148983 -1.32618e-20)
(-0.237179 0.0128128 4.71683e-20)
(1.01506 0.0109238 -5.26826e-22)
(1.01551 0.0112633 -2.09486e-22)
(1.01487 0.0112397 -3.58135e-22)
(1.00236 0.0351583 5.86908e-21)
(1.00285 0.0361696 1.04822e-21)
(1.00348 0.0351992 2.8842e-21)
(0.519212 -0.11333 7.25284e-21)
(0.53644 -0.111186 -1.14805e-21)
(0.497614 -0.113682 -1.06547e-20)
(0.96448 0.0844599 -7.48592e-22)
(0.964363 0.0873367 1.27836e-20)
(0.961468 0.0848635 -6.18171e-22)
(0.974091 0.0315096 0)
(0.973016 0.0304071 -6.40538e-21)
(0.972615 0.0320192 0)
(0.00927439 -0.0522095 1.0707e-21)
(0.0482461 -0.0566381 -3.15393e-20)
(0.0315527 -0.0554207 -3.02879e-20)
(1.04653 -0.00205371 3.41708e-21)
(1.04575 -0.00142264 4.80047e-22)
(1.05993 -0.0125557 -2.98035e-21)
(1.0607 -0.0137583 -5.39168e-22)
(0.999015 0.00231844 -1.20135e-21)
(0.999104 0.00236289 -1.21179e-21)
(0.999126 0.00212302 -3.90543e-21)
(0.99636 -0.00131634 3.87981e-21)
(0.996163 -0.00108943 -3.07911e-21)
(0.943506 0.0023512 5.03975e-21)
(0.941506 0.00249393 -1.24909e-20)
(0.942716 0.000426313 0)
(-0.0641137 -0.160395 -1.63879e-20)
(-0.0620959 -0.170106 2.77534e-20)
(-0.0498828 -0.163065 6.14578e-21)
(0.992724 0.0226358 1.74873e-21)
(0.99189 0.0227587 5.5335e-21)
(0.992458 0.0236823 5.57521e-21)
(1.03885 -0.00323165 4.90261e-22)
(1.03945 -0.00275969 2.80999e-21)
(1.0396 -0.00348222 2.90036e-21)
(1.05435 -0.00326986 5.94289e-22)
(1.05352 -0.00366194 6.66601e-21)
(1.05451 -0.00440341 -1.92153e-21)
(1.01464 0.0105785 0)
(1.01521 0.0105876 0)
(1.0095 0.000551922 1.67031e-23)
(1.00972 0.000621922 -2.54565e-22)
(1.01011 0.000755264 -7.41678e-23)
(1.12204 0.136011 0)
(1.1256 0.140642 0)
(1.12801 0.135478 0)
(1.09608 0.0860817 0)
(1.09568 0.0898718 0)
(0.956627 -0.00701417 3.50576e-25)
(0.954866 -0.00615462 9.37299e-21)
(1.16296 0.272091 0)
(1.15394 0.275695 -2.68819e-20)
(1.15631 0.265523 -1.49892e-20)
(0.945548 0.00275911 5.59872e-21)
(0.943888 0.00472222 -1.7814e-21)
(1.02364 0.00163096 7.80076e-22)
(1.0235 0.0019066 1.52933e-21)
(1.024 0.0018927 5.012e-22)
(0.986416 0.00374016 1.24162e-21)
(0.986108 0.00433353 -6.76029e-22)
(0.922685 0.30811 1.25748e-21)
(0.931099 0.316518 6.32013e-21)
(0.934703 0.303121 7.69724e-21)
(1.00285 0.0224578 1.52979e-21)
(1.00223 0.0221609 2.23567e-22)
(-0.0701943 -0.0125762 2.03186e-21)
(-0.0530636 -0.0185163 3.10406e-20)
(-0.0665604 -0.0114762 -1.29538e-20)
(1.01579 2.36333e-05 8.48476e-22)
(1.01598 2.81362e-05 1.6582e-21)
(1.01499 0.000170794 1.00587e-21)
(1.17051 0.269153 1.00046e-20)
(1.16863 0.279109 9.02793e-21)
(1.13761 0.0825718 6.19423e-21)
(1.13959 0.0798961 -3.5103e-21)
(1.1417 0.0838014 5.29609e-21)
(0.934205 0.0231674 2.46918e-21)
(0.932502 0.0212705 -5.30972e-21)
(0.935334 0.0204739 8.17371e-21)
(1.12938 0.0814392 -1.20991e-20)
(1.12687 0.0847327 -2.07225e-21)
(1.12528 0.0807726 -3.00664e-20)
(1.01427 0.0120792 -1.0174e-22)
(1.01469 0.0123916 0)
(1.0145 0.0118353 0)
(1.02036 0.00338505 1.49044e-21)
(1.02016 0.00312299 7.19267e-22)
(1.02057 0.00314989 -6.73785e-22)
(1.01579 0.0226889 -1.25679e-23)
(1.01582 0.0233507 -1.0889e-22)
(1.01516 0.022784 -1.05328e-22)
(0.999984 0.000389186 0)
(0.999971 0.000373703 1.72313e-21)
(0.999991 0.000252798 0)
(0.286962 -0.0797581 1.40581e-20)
(0.306947 -0.0848497 -6.41228e-21)
(0.326293 -0.0869789 1.9944e-20)
(0.999967 0.00513083 2.16704e-21)
(1.00005 0.00529458 2.00163e-21)
(1.00002 0.00496512 -9.25696e-22)
(1.00149 0.000302238 -8.91517e-22)
(1.00162 0.000304401 1.69982e-21)
(1.00145 0.000172393 2.05949e-22)
(1.07237 -0.0434537 8.24352e-22)
(1.07246 -0.0449186 0)
(1.07088 -0.0440852 0)
(1.02273 0.0377467 -9.93701e-22)
(1.02389 0.03807 -1.38872e-22)
(0.112131 0.416503 5.41603e-20)
(0.098365 0.46112 -5.62001e-20)
(0.14378 0.43958 3.30197e-20)
(1.21124 0.154482 -1.50534e-20)
(1.20981 0.148966 3.1851e-20)
(1.2045 0.152944 1.75893e-21)
(1.01387 0.01175 -1.08266e-22)
(1.01398 0.0123738 3.38463e-22)
(1.12999 -0.0209092 -1.37645e-20)
(1.13158 -0.0187373 1.87771e-20)
(1.1285 -0.0181957 3.78518e-21)
(1.01616 0.0102717 -2.52108e-22)
(1.01607 0.0106755 1.43106e-22)
(1.01658 0.0106498 -6.85371e-22)
(1.00396 0.196104 0)
(1.00352 0.189459 -2.63727e-24)
(1.0097 0.192165 1.54727e-21)
(-0.25462 0.00755234 -5.91994e-20)
(-0.276339 0.0080779 -1.95443e-20)
(1.08705 0.0835032 -6.42261e-21)
(1.09001 0.0817097 1.13815e-20)
(-0.0336805 -0.00161349 -6.1964e-20)
(0.00427121 -0.078115 -3.87987e-22)
(-0.0231626 0.0267046 -1.45015e-20)
(0.858193 0.0475211 -1.91643e-21)
(0.852701 0.0502775 -2.62452e-22)
(0.853302 0.0424081 5.08427e-20)
(0.9966 -0.00120049 3.28021e-21)
(0.975253 0.0325971 1.19817e-21)
(0.975558 0.0310293 -4.78085e-21)
(1.15166 0.110988 9.78761e-21)
(1.15464 0.106712 0)
(1.14974 0.107221 -1.14291e-20)
(1.00007 0.000416502 1.04051e-21)
(1.00005 0.000357872 -9.02463e-22)
(1.00005 0.000338358 8.41742e-22)
(1.21268 0.16012 -2.30277e-20)
(1.21766 0.154538 4.9046e-20)
(1.01118 0.0115436 -3.26316e-22)
(1.01079 0.0113416 -1.3618e-22)
(1.01096 0.0117881 -4.477e-22)
(1.14806 0.0340843 -1.36992e-21)
(1.1522 0.0337436 2.33966e-20)
(1.00366 0.00768198 -6.19892e-22)
(1.00382 0.00762862 -9.03986e-22)
(0.7145 -0.133702 2.69257e-20)
(0.751745 -0.13653 0)
(0.68417 -0.131911 -1.34881e-20)
(1.0541 -0.00141603 -3.68842e-21)
(1.05423 -0.000453495 -1.79143e-21)
(1.05522 -0.00144104 1.31964e-21)
(1.06914 -0.0147335 9.10015e-21)
(1.06992 -0.0155643 4.23917e-21)
(1.07036 -0.014551 7.72058e-21)
(1.01545 0.0205145 0)
(1.01529 0.0198367 0)
(1.01481 0.020075 0)
(1.00314 0.00694086 -1.86147e-22)
(1.00312 0.00721634 1.07129e-21)
(1.20924 0.350301 0)
(1.21463 0.356715 3.86697e-20)
(1.20408 0.360376 2.34272e-20)
(0.964604 0.0810322 -9.93597e-21)
(0.967816 0.0834015 0)
(1.05014 0.182339 -4.80588e-21)
(1.05285 0.187931 -1.53661e-20)
(1.05586 0.181805 -6.93811e-21)
(0.998939 0.00231 0)
(0.998931 0.00254949 3.80684e-21)
(1.18761 0.0234942 -4.03026e-20)
(1.18547 0.0197451 0)
(0.34467 -0.0970414 -2.2153e-20)
(0.347343 -0.102068 -1.29564e-20)
(0.349405 -0.088727 6.63118e-21)
(0.492123 -0.116178 0)
(0.538927 -0.113512 5.49526e-21)
(-0.0700708 -0.156775 -1.1096e-20)
(-0.0631991 -0.147783 -1.56362e-20)
(0.268115 -0.0924474 0)
(0.222616 -0.0837819 1.28848e-20)
(0.24974 -0.0899003 -1.02176e-20)
(1.16358 -0.117069 -2.34898e-20)
(1.15883 -0.115239 -4.69109e-20)
(1.16315 -0.111034 -2.66272e-20)
(1.0156 -1.23591e-06 -6.83031e-22)
(1.01616 0.000103962 0)
(0.999606 0.00439512 0)
(0.999566 0.00415064 -1.29216e-21)
(0.99965 0.00412073 1.10801e-21)
(1.01958 0.000981049 -5.29953e-22)
(1.01989 0.00106549 0)
(1.01971 0.000840279 0)
(-0.0109 -0.151591 1.72655e-20)
(-0.0104572 -0.142701 -4.4808e-21)
(-0.0113343 -0.0480375 3.46251e-20)
(-0.0250892 -0.0462938 2.82892e-20)
(1.02465 0.017611 2.54368e-21)
(1.02501 0.0171199 1.54993e-21)
(1.02535 0.0179168 -1.46078e-21)
(1.07236 0.00605199 1.96924e-21)
(1.07262 0.00734493 6.0423e-23)
(1.07388 0.00592484 1.55629e-20)
(0.268349 -0.0757248 -8.79141e-21)
(0.251096 -0.074148 -7.88161e-21)
(-0.190036 0.015098 -5.99285e-22)
(-0.181258 0.014269 1.46508e-20)
(-0.167045 0.0185669 -1.72418e-20)
(-0.0338251 -0.0871965 0)
(-0.0319629 -0.0748231 0)
(-0.0205126 -0.0652848 0)
(-0.200704 0.0128628 7.30909e-20)
(-0.210062 0.0119177 5.06759e-20)
(-0.187486 0.0154446 3.46869e-21)
(1.08561 0.144518 2.94632e-21)
(1.09188 0.143942 3.90182e-21)
(1.08707 0.139522 -3.82164e-22)
(1.14181 -0.156423 -1.24472e-20)
(1.12313 -0.15847 4.29899e-20)
(1.15501 -0.154004 -1.24543e-20)
(1.04716 -0.00620804 5.2612e-21)
(1.04719 -0.00541774 -4.3311e-21)
(1.0481 -0.0060491 4.81193e-21)
(1.15612 -0.0400429 -1.39406e-20)
(1.15436 -0.0431962 1.94518e-20)
(1.15858 -0.0429211 -4.97779e-21)
(-0.317762 0.00713979 3.45393e-20)
(-0.317421 0.00639218 0)
(-0.344333 0.00560258 0)
(1.10489 0.310125 2.94967e-20)
(1.09961 0.302374 0)
(1.11014 0.300268 0)
(1.09775 0.0319792 -7.18175e-21)
(1.09943 0.0332671 0)
(1.09986 0.0307112 3.9017e-21)
(0.495839 -0.305117 -3.30388e-20)
(0.471363 -0.330736 -3.5319e-20)
(0.996619 0.0222683 -6.17833e-21)
(0.997189 0.0226754 -3.60635e-22)
(0.996546 0.0231333 -1.20636e-21)
(0.949104 0.0136381 -4.53386e-21)
(0.951166 0.0133799 -4.72394e-21)
(0.950379 0.0155551 -9.50441e-21)
(0.998907 0.00147347 7.8718e-22)
(0.998874 0.00166967 1.6458e-21)
(0.998771 0.00161905 6.35577e-22)
(0.947636 0.0121191 0)
(0.946936 0.0143247 0)
(0.336523 -0.0682732 -5.73547e-21)
(0.306796 -0.060663 -9.62047e-21)
(0.322534 -0.0667744 -1.023e-20)
(1.00259 0.000764953 -2.39238e-22)
(1.00277 0.000841294 2.83481e-21)
(1.00261 0.000993961 8.03174e-22)
(0.0738535 -0.306268 6.84526e-20)
(0.0644462 -0.340002 2.19503e-19)
(0.0498419 -0.331689 8.06463e-20)
(0.742197 -0.134691 6.63149e-21)
(0.679336 -0.131411 1.4347e-20)
(0.0788346 0.312692 -2.04707e-20)
(0.0708542 0.339783 -2.20714e-19)
(0.0513423 0.336511 -2.73344e-20)
(1.08016 0.145666 -1.29158e-21)
(1.08491 0.150629 9.9193e-21)
(0.0513108 -0.0328542 -2.19738e-20)
(0.0325787 -0.0288043 -2.14463e-20)
(1.34437 0.150657 -3.87743e-20)
(1.32573 0.143204 3.32864e-20)
(1.33979 0.154196 -2.46412e-20)
(1.05425 -0.00239652 -4.21102e-21)
(1.05318 -0.00158235 -5.76214e-21)
(1.14909 0.113469 -8.81452e-23)
(1.15345 0.113721 9.27524e-21)
(1.024 0.0172919 8.32715e-22)
(1.02427 0.0181049 -7.21827e-22)
(1.10016 0.31895 4.2105e-21)
(1.11075 0.317049 1.81166e-21)
(1.01571 0.0218918 1.43704e-22)
(1.01651 0.0224333 -1.29261e-24)
(0.999994 0.000779754 2.16733e-21)
(0.99999 0.000804884 -2.89334e-21)
(0.99999 0.000628426 -4.39363e-22)
(1.32592 0.266904 -3.07649e-20)
(1.30708 0.263392 -2.27418e-20)
(1.26593 0.241188 -1.1192e-20)
(1.01944 0.00116422 -5.22155e-22)
(1.01926 0.000909464 2.00448e-22)
(1.02015 0.00357701 1.2693e-22)
(1.02056 0.00360425 1.56078e-21)
(1.17983 -0.111957 -5.72405e-20)
(1.19113 -0.108374 7.40809e-21)
(1.12133 -0.108408 -5.51562e-20)
(1.12392 0.00160766 -5.01983e-22)
(1.1216 0.000760553 -1.24666e-20)
(1.12216 0.00305333 -4.61287e-21)
(1.07236 0.00453752 0)
(1.07098 0.00591067 -8.62754e-21)
(0.903859 0.187473 3.94112e-21)
(0.902414 0.179139 3.03807e-20)
(0.910307 0.18226 2.55691e-21)
(1 0.000784048 2.1787e-21)
(0.999979 0.000941993 4.22296e-21)
(1.02038 0.0296815 -5.81022e-24)
(1.0208 0.0291897 -1.32522e-22)
(1.02139 0.0297085 -4.94397e-22)
(1.02307 0.000837406 -1.47349e-21)
(1.02345 0.000880902 -1.40634e-21)
(0.991598 0.0133492 8.69371e-22)
(0.990902 0.0133059 0)
(0.991103 0.0141312 4.35895e-21)
(1.15071 0.180787 1.05802e-20)
(1.14419 0.182539 3.00295e-20)
(1.14577 0.176394 3.22856e-21)
(-0.0440102 -0.104719 0)
(-0.0332063 -0.0993883 -1.59077e-20)
(-0.0648393 -0.170722 1.42695e-20)
(-0.0583557 -0.168272 -8.69552e-21)
(-0.0609076 -0.176489 -1.86591e-20)
(0.996155 0.046071 0)
(0.994859 0.0471177 -3.10335e-21)
(0.996865 0.0475939 0)
(0.996635 0.0216029 9.91195e-22)
(0.996035 0.0220087 -7.78091e-21)
(0.391916 0.0058915 6.31271e-20)
(0.364926 0.0068209 0)
(0.378654 0.0318322 -4.59508e-20)
(0.973163 0.028775 5.95243e-22)
(0.972979 0.0272223 9.38968e-21)
(0.974324 0.0279661 3.72674e-21)
(0.911423 -0.00227226 -9.96656e-21)
(0.909178 0.000523052 -1.00284e-20)
(0.907717 -0.0032137 0)
(0.310156 -0.146274 1.00427e-20)
(0.327115 -0.130747 -7.63268e-21)
(0.325668 -0.131304 3.097e-20)
(1.06103 0.01532 1.25082e-21)
(1.06172 0.0144807 0)
(1.06232 0.0157891 0)
(0.293394 -0.157882 5.6706e-21)
(0.297364 -0.164137 -2.05784e-20)
(1.04504 0.00475793 -4.35228e-21)
(1.0461 0.00486985 4.61378e-21)
(1.04552 0.00404557 -2.76718e-22)
(0.971891 0.0293704 7.6903e-21)
(1.12021 0.132867 -8.09978e-21)
(1.11831 0.136497 -7.85921e-21)
(0.131758 0.373835 5.66747e-20)
(0.0840196 0.3718 -8.22052e-20)
(1.09083 -0.0445289 -1.02051e-21)
(1.09225 -0.0450349 1.76101e-20)
(1.09083 -0.0460306 -8.27354e-22)
(1.00003 0.000394103 9.01765e-22)
(1.00003 0.000477101 -1.31226e-21)
(1.00001 0.000329229 2.61567e-21)
(1.17227 -0.115715 1.56854e-20)
(1.21422 -0.115571 -4.0682e-20)
(0.0987878 0.295394 7.114e-20)
(0.0703953 0.285242 9.48486e-20)
(1.00004 0.000454794 -1.39808e-21)
(1.00003 0.000334451 1.52491e-21)
(1.13762 -0.0187449 1.48121e-20)
(1.13462 -0.0191205 -5.98525e-21)
(1.13668 -0.0215273 4.27734e-21)
(1.00678 0.102351 0)
(1.00389 0.103492 0)
(1.00734 0.105414 0)
(1.04649 0.0666918 0)
(1.04768 0.0646188 4.28999e-21)
(1.04516 0.0647705 -1.03909e-21)
(0.905576 0.0871129 4.65701e-21)
(0.900559 0.0874392 1.12925e-20)
(0.904683 0.0922555 1.30894e-20)
(1.07238 0.00333678 4.04538e-21)
(1.07374 0.00340816 5.91138e-21)
(1.06806 -0.0747197 1.05079e-20)
(1.06726 -0.0723849 -1.30392e-20)
(1.06992 -0.0732255 -1.32701e-20)
(0.490395 0.682987 -6.97672e-21)
(0.515854 0.641414 -3.40551e-21)
(0.460619 0.632042 3.59168e-20)
(0.124695 0.0430182 1.2287e-20)
(0.167821 0.048866 8.91817e-20)
(0.222774 0.0588568 3.69581e-20)
(1.11638 0.0957379 0)
(1.11991 0.0928027 2.46149e-20)
(1.1149 0.091567 1.66085e-20)
(1.24274 0.00370425 5.2602e-20)
(1.24716 0.00661189 4.96906e-20)
(1.24121 0.00811583 8.89006e-21)
(1.01298 0.0116209 -3.98058e-23)
(1.0134 0.0116364 -5.32177e-23)
(1.01327 0.0120248 -8.13387e-23)
(-0.0172629 -0.18319 1.15042e-20)
(-0.0292828 -0.185197 8.07792e-21)
(-0.0257531 -0.189404 2.37526e-20)
(-0.0360108 -0.0447901 -1.44508e-20)
(-0.0606791 -0.040637 -1.54512e-20)
(-0.0680236 -0.0389792 2.20083e-21)
(1.02227 0.00186119 1.69851e-21)
(1.0218 0.00191381 1.15926e-21)
(1.02188 0.00158476 -3.00597e-24)
(1.02266 0.00189433 -4.26025e-23)
(1.0231 0.0018863 -1.00708e-21)
(1.02271 0.00157477 -3.33445e-21)
(0.986633 0.0674087 -1.84064e-21)
(0.987425 0.0696982 3.14677e-21)
(0.23662 -0.0157972 0)
(0.225196 -0.0112854 0)
(0.217703 -0.00992046 1.25182e-20)
(1.08273 -0.0355434 0)
(1.08344 -0.0356148 2.48015e-21)
(1.08303 -0.0348769 4.30021e-21)
(0.999897 0.00437207 -8.57876e-23)
(0.99996 0.00445515 5.41038e-23)
(0.999911 0.00469508 6.44272e-22)
(1.33256 0.257118 0)
(1.32709 0.264525 4.67358e-20)
(0.281852 0.145048 -2.54691e-20)
(0.556486 0.26298 3.64735e-20)
(0.407923 0.187794 5.4819e-20)
(0.658671 -0.126902 -3.61042e-22)
(0.673876 -0.134898 2.44649e-20)
(0.674652 -0.117903 -2.92151e-20)
(1.23944 0.000820338 -2.9202e-20)
(1.24467 -0.000643118 6.69751e-21)
(1.08241 0.0142672 -2.78536e-21)
(1.08249 0.015857 -1.14703e-20)
(1.0842 0.0143966 0)
(1.00492 0.00676336 1.60234e-22)
(1.00516 0.00691115 -1.86923e-22)
(1.00507 0.00659766 8.68131e-22)
(1.08057 -0.0885214 1.00533e-20)
(1.08323 -0.0883592 2.13558e-20)
(1.08202 -0.0913401 4.29576e-21)
(0.242601 -0.0110286 -1.79516e-21)
(0.258586 -0.0163415 -3.34071e-20)
(0.261064 -0.0198185 -7.7854e-21)
(0.15798 -0.0811591 0)
(0.188752 -0.0840413 0)
(0.206434 -0.0860006 2.44275e-21)
(1.16981 -0.0903457 6.07378e-20)
(1.16543 -0.0893159 1.43479e-20)
(1.16845 -0.0862516 -9.40943e-21)
(0.938274 -6.17583e-05 -2.91387e-21)
(0.939243 0.00240448 -3.00767e-21)
(0.936005 0.00220098 2.66965e-20)
(-0.25222 0.0122893 0)
(-0.263217 0.011564 0)
(1.07343 -0.0429831 1.02805e-21)
(1.00306 0.0232132 9.93116e-22)
(1.00257 0.0235518 -1.33347e-21)
(1.00323 0.0238858 4.2128e-22)
(1.07237 0.00205692 -9.2969e-21)
(1.07115 0.00321004 1.31334e-20)
(1.11644 -0.157908 -1.11499e-20)
(1.07989 -0.158239 1.7843e-22)
(1.09456 -0.157172 -4.57347e-20)
(0.887792 0.207468 -2.65292e-20)
(0.886804 0.19831 -5.46302e-21)
(0.877374 0.202828 -1.52755e-20)
(0.975409 0.0340182 -3.6943e-21)
(0.974076 0.035145 -4.97895e-21)
(0.975988 0.0357973 4.17441e-21)
(1.26225 -0.012974 -4.75061e-20)
(1.21469 -0.0209994 -7.58283e-20)
(1.28102 -0.0141888 2.26368e-20)
(1.08258 0.0124414 5.50363e-22)
(1.08081 0.0139164 -2.6709e-21)
(1.10557 0.000757234 -2.39515e-21)
(1.10615 0.00260079 -1.07698e-20)
(1.10766 0.00055167 -1.70943e-20)
(1.02258 0.0021723 2.6258e-21)
(1.05315 0.0209423 0)
(1.05274 0.0198477 0)
(1.05402 0.0202448 -2.50176e-21)
(0.941382 0.0410892 0)
(0.938438 0.0405565 0)
(0.939909 0.0440154 8.28401e-21)
(0.188002 0.0858919 2.6265e-21)
(0.120503 0.0621355 0)
(0.0740961 0.0494187 1.78008e-20)
(0.130231 -0.0743677 -3.1688e-20)
(0.119038 -0.0720761 0)
(-0.323811 0.0064918 -3.71501e-20)
(-0.365067 0.00591416 8.31826e-20)
(-0.312371 0.00488331 5.92366e-20)
(0.990824 0.116877 -3.3892e-21)
(0.988508 0.11357 5.19307e-21)
(0.992848 0.112307 1.56799e-21)
(0.105051 -0.295105 -1.67171e-19)
(0.0817426 -0.269699 -5.39012e-21)
(-0.0616711 0.0172696 0)
(-0.0817547 0.0162526 0)
(-0.0957495 0.0177707 0)
(-0.0663557 0.0151202 2.55409e-20)
(-0.084886 0.0124082 -5.48729e-20)
(-0.0963239 0.0121898 3.16144e-20)
(1.10501 -0.00145811 -1.36994e-21)
(1.10342 0.000536272 1.01384e-20)
(1.01967 0.0301151 0)
(1.0202 0.0308802 0)
(1.04422 0.00451285 -4.76708e-21)
(1.04462 0.00539749 -7.16309e-21)
(0.471082 -0.118797 -1.18756e-20)
(0.448749 -0.122078 5.65678e-21)
(0.487946 -0.11833 -1.21308e-20)
(0.995638 0.0446238 4.45548e-21)
(0.997388 0.0453417 0)
(1.01274 0.0111232 -4.84677e-23)
(1.01253 0.0114664 0)
(1.21398 0.340768 0)
(1.20581 0.344639 0)
(0.857965 -0.093025 3.23177e-21)
(0.905019 -0.0909606 -7.45196e-21)
(0.904925 -0.0896435 6.7772e-21)
(0.45461 -0.119337 -5.26505e-21)
(0.999016 0.00136003 0)
(0.998933 0.00132162 0)
(1.05975 0.0147738 1.00857e-20)
(1.06011 0.016318 -7.09207e-21)
(1.24906 0.258791 4.33559e-20)
(1.24432 0.256802 0)
(1.2503 0.250596 -2.09404e-20)
(0.992357 0.0146668 3.28511e-21)
(0.992919 0.0148067 3.57264e-22)
(0.992555 0.0154222 6.00928e-21)
(1.0482 0.175977 -7.45577e-22)
(1.04402 0.181841 9.20761e-21)
(1.02151 0.0286452 7.2206e-22)
(1.02031 0.0283354 -6.4475e-22)
(0.0558071 0.0381748 -1.11116e-19)
(0.0948196 0.0428101 -7.64935e-20)
(0.983721 0.0341687 1.60527e-21)
(0.983 0.0328887 0)
(0.982237 0.034384 6.55397e-21)
(-0.0932955 0.0164907 2.08327e-20)
(-0.10827 0.0150095 -8.84024e-21)
(-0.121213 0.0138785 4.23806e-20)
(0.286413 -0.0173649 0)
(0.303134 -0.0285825 9.05788e-21)
(0.304303 -0.0267453 1.43812e-20)
(0.55639 -0.0148211 4.66523e-20)
(0.53683 -0.0179926 -1.77276e-20)
(0.5467 0.00245441 4.63703e-20)
(1.01886 0.0307269 0)
(1.01888 0.0294686 -1.17008e-22)
(0.999988 0.00039593 5.41361e-22)
(0.999964 0.000503851 0)
(1.06833 -0.0139217 -3.78016e-21)
(1.06792 -0.0148818 -3.47747e-22)
(1.02503 0.0911021 -5.58275e-23)
(1.02536 0.0939684 1.92434e-21)
(1.02821 0.0920174 -1.76686e-21)
(-0.0756218 0.0166945 5.87054e-21)
(-0.0588247 0.0170104 -1.14544e-20)
(1.01207 0.0564581 -2.58603e-22)
(1.01143 0.057945 9.42223e-22)
(1.01349 0.0578345 -4.92136e-22)
(0.999138 0.00283037 -1.94314e-22)
(0.999219 0.0028516 0)
(0.999229 0.00261974 -2.54794e-21)
(0.999836 0.00434516 -1.64923e-21)
(0.999893 0.00412674 -3.93815e-21)
(1.12916 0.313284 -9.99937e-21)
(1.13449 0.320731 -9.27568e-21)
(1.13951 0.311047 2.30065e-20)
(1.1341 -0.134573 0)
(1.12826 -0.131484 -2.6604e-21)
(1.13311 -0.138146 -2.30941e-20)
(-0.326574 0.00932892 -9.2518e-20)
(1.09592 0.030023 1.07196e-20)
(1.09525 0.0325364 -1.22138e-20)
(1.25013 0.0144239 0)
(1.24873 0.0206354 0)
(1.24417 0.0173633 -4.3206e-21)
(1.04028 -0.00462514 3.60487e-21)
(1.03975 -0.00396864 3.7182e-21)
(1.01198 0.0119655 0)
(1.01227 0.0117329 0)
(1.01249 0.0122116 1.22202e-24)
(0.979184 0.0344535 -3.02074e-21)
(0.980162 0.0329502 -1.53486e-20)
(0.980721 0.0344712 2.89412e-21)
(0.269861 -0.0133659 -1.32531e-20)
(0.265215 -0.00791575 -1.4674e-20)
(1.26565 0.126115 1.3154e-20)
(1.21829 0.115787 -9.90252e-21)
(1.17762 0.115056 3.13156e-21)
(0.0623827 -0.107852 -1.81533e-20)
(0.0814855 -0.127171 -9.05781e-20)
(0.0605558 -0.140119 -6.57395e-20)
(1.08926 -0.043983 -1.70542e-21)
(1.09044 -0.0430003 -6.77798e-21)
(1.00686 0.099042 1.14707e-21)
(1.01038 0.101178 -1.39005e-22)
(1.05335 0.0219587 0)
(1.05201 0.021478 -2.27236e-21)
(0.226657 0.753139 9.42912e-21)
(0.177088 0.833233 8.0534e-21)
(0.291587 0.819877 4.28527e-22)
(1.08274 0.0109706 6.13654e-21)
(1.08437 0.011226 2.85356e-21)
(-0.0452741 0.0144176 3.9933e-20)
(-0.0282046 0.0142596 -6.93906e-21)
(0.988421 0.0331323 -1.50191e-21)
(0.987537 0.0338227 -2.6155e-21)
(0.988738 0.0344372 5.18428e-21)
(-0.194322 0.0141133 -5.29191e-20)
(-0.209325 0.0135389 -6.51059e-20)
(-0.181029 0.0148649 6.46515e-20)
(0.700643 -0.103342 -5.37289e-21)
(0.665392 -0.10451 8.68122e-21)
(0.722817 -0.100869 -4.95881e-21)
(1.13809 -0.0155213 1.72661e-20)
(1.14035 -0.0181345 9.9543e-22)
(0.998086 0.027421 1.11469e-21)
(0.997357 0.0277425 2.68682e-21)
(0.997499 0.026785 4.89905e-21)
(1.00584 0.000487539 5.04807e-22)
(1.00614 0.000492329 8.15878e-23)
(1.00532 0.000257626 4.52873e-23)
(1.08415 0.0852732 -7.4474e-21)
(1.0844 0.0816967 -8.18432e-21)
(1.15912 0.106016 0)
(1.16357 0.104963 0)
(1.16261 0.109654 0)
(0.275971 0.109953 -5.96566e-20)
(0.352501 0.12606 4.96072e-20)
(1.12561 6.80624e-05 -1.1194e-20)
(1.1262 0.00254907 -2.80044e-20)
(1.00801 0.00634838 4.34231e-22)
(1.00784 0.00652706 0)
(1.00821 0.00668937 2.2888e-22)
(1.01249 0.0107187 -7.06079e-23)
(1.01208 0.0105577 -2.18015e-23)
(1.01228 0.0103083 1.42057e-23)
(0.999974 0.000530374 -8.1957e-21)
(0.999983 0.000438714 -2.02258e-21)
(0.999966 0.000599588 2.7507e-22)
(1.25128 0.00954106 2.70807e-20)
(1.25281 0.00452985 1.31558e-20)
(1.07206 0.259674 8.71979e-21)
(1.07328 0.265532 8.39017e-22)
(1.06559 0.262464 -1.13925e-22)
(0.596445 -0.0464226 4.48484e-20)
(0.5762 -0.0519582 -2.55778e-20)
(0.590832 -0.0672756 -3.21327e-20)
(0.979303 0.0507028 -5.61166e-21)
(0.979328 0.05283 2.63756e-21)
(0.981224 0.0515539 5.23978e-21)
(0.220539 -0.184493 1.4335e-20)
(0.248769 -0.183229 1.08429e-20)
(0.198167 -0.198329 1.46287e-21)
(1.17433 -0.0919095 1.63433e-20)
(1.17023 -0.0955499 4.1896e-20)
(1.15734 -0.0370098 8.27499e-21)
(1.15401 -0.0382462 2.6034e-21)
(1.03635 0.031924 -2.96389e-21)
(1.03635 0.0308337 1.61698e-21)
(1.03753 0.0315062 3.69473e-21)
(1.23732 -0.00877088 1.44845e-21)
(1.2987 -0.00779276 7.97754e-21)
(1.01558 0.0212287 5.31691e-23)
(1.01612 0.0209772 0)
(0.995437 0.00943344 -2.00533e-21)
(0.995085 0.00958303 2.7541e-21)
(0.995405 0.00992083 -4.44935e-22)
(1.02886 0.810436 0)
(1.02131 0.763465 0)
(1.07459 0.78499 0)
(1.00854 0.000683719 0)
(1.00884 0.000865144 5.76641e-23)
(1.0086 0.000549316 -5.11861e-23)
(1.00378 0.00801066 3.62037e-22)
(1.00355 0.00780578 4.44487e-22)
(1.16389 -0.0338523 1.77157e-21)
(1.16026 -0.0349358 -5.63786e-22)
(1.1628 -0.0391109 -1.63842e-20)
(1.0023 0.0156903 0)
(1.00208 0.016031 1.91171e-21)
(1.00253 0.0161987 0)
(-0.0271454 -0.193026 -5.58809e-21)
(-0.0231238 -0.188556 -1.79208e-20)
(-0.0199822 -0.195309 -7.29616e-21)
(1.0829 0.0094329 -2.09518e-21)
(1.08135 0.0106372 2.91063e-21)
(0.926958 0.0120488 -8.65837e-21)
(0.924238 0.0134821 1.62015e-20)
(0.924932 0.00999623 -7.06405e-21)
(1.00818 0.000455238 1.07944e-22)
(1.00836 0.000907887 1.4193e-22)
(1.11356 0.0977849 0)
(1.11801 0.0987554 -1.09268e-20)
(-0.244221 0.00967862 7.44293e-21)
(-0.27244 0.00814557 0)
(-0.260506 0.00851364 2.84712e-20)
(1.05533 -0.00312525 -2.06624e-21)
(1.01472 0.00533508 2.41997e-22)
(1.01461 0.00562431 -6.80651e-22)
(0.989486 -0.000798983 -9.42092e-21)
(0.988952 -0.000566096 -2.06741e-21)
(0.989548 -0.000262163 9.44959e-22)
(1.13945 -0.0677276 0)
(1.14158 -0.0652961 0)
(1.13785 -0.0649094 -2.08625e-20)
(0.192713 -0.0508713 1.06642e-22)
(0.186086 -0.0520027 -1.37045e-20)
(0.170076 -0.0433724 -2.62813e-20)
(0.999989 0.000499238 -7.57649e-22)
(0.999967 0.000680401 -2.987e-21)
(1.00002 5.43445e-05 -2.75849e-22)
(1.00001 3.40586e-05 -4.90388e-24)
(1.00002 3.90222e-05 -2.47596e-22)
(0.816308 -0.0948826 2.85934e-21)
(0.817599 -0.0978533 0)
(1.09647 0.143719 1.0379e-20)
(1.09853 0.139603 9.08708e-21)
(1.10123 0.144075 -5.90181e-21)
(1.08801 -0.0438962 5.51192e-21)
(1.08657 -0.0439369 6.58448e-21)
(1.0874 -0.0451787 -4.17804e-21)
(0.625809 0.36716 2.92064e-20)
(0.644284 0.387236 0)
(0.612135 0.391066 0)
(0.995475 0.00893401 -1.89967e-21)
(0.995766 0.0092753 -1.93267e-21)
(1.1564 0.102574 0)
(0.961853 0.0245414 3.95091e-21)
(0.96343 0.0255811 8.64184e-21)
(0.961559 0.026903 5.80798e-21)
(1.00002 7.33978e-05 -1.85215e-21)
(1.00004 7.53773e-05 -9.62482e-22)
(0.641995 0.343863 1.56594e-20)
(0.612262 0.343672 3.0754e-20)
(1.06881 -0.0768454 1.28999e-20)
(1.06564 -0.0762413 2.30499e-20)
(1.04476 -0.0638827 -1.63648e-20)
(1.04371 -0.0650475 -1.63206e-20)
(1.04178 -0.0619084 -7.51785e-21)
(1.13758 -0.0697915 2.32996e-20)
(1.14123 -0.0706472 -1.47582e-20)
(1.01931 0.00134379 1.57343e-23)
(1.01962 0.00141729 -4.19264e-22)
(0.646459 -0.115011 -3.50703e-20)
(0.643994 -0.132491 -4.56103e-20)
(1.0463 -0.00647086 0)
(1.04531 -0.00602999 0)
(1.00114 0.034945 2.12081e-21)
(1.00196 0.0340275 -1.28864e-22)
(1.30177 0.139118 2.93256e-20)
(1.3215 0.137691 0)
(0.999367 0.020903 -4.18215e-21)
(0.998836 0.0206032 -2.98995e-21)
(0.999341 0.0201559 1.47277e-21)
(1.25589 0.0125487 0)
(0.915139 0.297137 -7.09099e-21)
(0.908466 0.310058 -1.05647e-22)
(0.999641 0.00462966 -1.69505e-21)
(0.999542 0.00466222 -1.48211e-21)
(1.01732 0.00388772 -4.74061e-22)
(1.01729 0.00362879 -8.79738e-22)
(1.01761 0.00376907 -5.40666e-22)
(1.24768 0.0251235 1.62193e-20)
(1.2528 0.0224724 0)
(0.303532 -0.0906833 -4.70417e-20)
(0.13747 -0.0237548 2.57411e-20)
(0.34856 -0.0677021 2.25175e-20)
(-0.0401253 0.0171132 -2.68155e-20)
(-0.0239985 0.0185551 3.43547e-20)
(1.01632 0.0411351 1.87783e-22)
(1.01552 0.042032 -1.25052e-22)
(1.01527 0.0406138 -5.68945e-22)
(0.911193 0.0868264 -1.11994e-20)
(0.907572 0.0818868 -2.37098e-20)
(-0.0779081 -0.0129264 -1.63037e-20)
(-0.0954573 -0.00580817 6.53825e-21)
(1.03074 0.00249958 -1.80038e-21)
(1.0311 0.00290757 -1.87053e-21)
(1.03044 0.00288694 2.73111e-22)
(1.13546 -0.131904 0)
(1.14211 -0.138857 -1.10228e-20)
(1.0665 -0.0177368 -1.17361e-21)
(1.06702 -0.0168124 4.58404e-21)
(1.06574 -0.0170068 6.43735e-21)
(0.9565 0.143679 -1.85197e-21)
(0.950878 0.142275 -9.92412e-21)
(0.954932 0.138019 0)
(1.13829 -0.129927 2.24751e-20)
(1.13173 -0.126621 -1.77261e-20)
(1.01915 0.00151956 -1.49083e-21)
(1.019 0.00127206 9.02623e-22)
(0.516147 0.736868 -2.08328e-20)
(0.447218 0.72482 1.37563e-20)
(0.999877 0.0332684 1.24852e-21)
(1.00063 0.0325974 2.94587e-21)
(0.999684 0.0321443 4.21148e-21)
(0.895631 0.193336 -9.00171e-21)
(0.90488 0.1966 -6.48333e-21)
(1.00095 0.000261095 -2.25223e-21)
(1.00086 0.000206965 -4.48186e-22)
(1.00086 0.000328745 0)
(1.08839 -0.0427735 -1.02322e-20)
(-0.221845 0.0112949 1.66132e-20)
(-0.245129 0.00997445 -8.69847e-21)
(-0.224515 0.0113482 -3.1655e-20)
(0.999958 -0.000120472 0)
(0.99995 -0.000167102 0)
(0.999926 -0.000191172 2.92795e-21)
(0.0904923 0.0910772 -2.71404e-20)
(0.177744 0.116441 7.95016e-20)
(1.10802 0.0335043 9.51465e-21)
(1.10867 0.0311714 2.23787e-21)
(1.11092 0.0332592 6.46072e-21)
(0.9951 0.00191607 2.75277e-21)
(0.994812 0.00191998 2.86429e-21)
(0.994883 0.00227774 1.3145e-23)
(1.13355 0.0818275 -9.72429e-21)
(1.13529 0.0860575 0)
(1.13075 -0.0233025 -4.32952e-20)
(1.12787 -0.0227002 -1.5498e-20)
(1.10475 -0.156194 1.86219e-22)
(1.08305 -0.154684 2.74088e-20)
(1.14094 -0.15703 3.28403e-21)
(0.324619 -0.0812902 -7.85639e-21)
(0.351376 -0.0830104 -1.37027e-20)
(0.367008 -0.0868593 5.17101e-21)
(1.13618 -0.156456 3.18278e-20)
(1.14168 -0.154041 -1.14337e-20)
(0.989319 0.0326334 -4.44802e-22)
(0.988225 0.0320224 4.50043e-21)
(1.01624 0.0100594 0)
(1.01583 0.0100679 0)
(-0.0227567 -0.0368147 4.14485e-20)
(-0.06033 -0.0310517 4.68195e-21)
(-0.04449 -0.0341028 -4.75618e-21)
(0.705915 -0.0806926 1.32903e-20)
(0.69215 -0.0827413 -4.83406e-20)
(0.703433 -0.0944474 -3.73976e-20)
(0.999366 0.0039816 -1.35108e-21)
(0.999444 0.00372964 -1.27593e-22)
(0.999367 0.00374175 -2.8488e-21)
(1.00968 0.0540918 1.83106e-22)
(1.01009 0.0527549 -3.24669e-23)
(1.00838 0.052828 5.51178e-22)
(1.04768 -0.0664662 -3.47246e-21)
(1.04547 -0.0627604 8.98732e-21)
(1.0792 -0.0867073 -1.24219e-20)
(1.07831 -0.0896949 -5.70596e-21)
(0.231548 0.666631 -4.20632e-20)
(0.307442 0.696183 0)
(0.000491846 -0.0407852 3.49959e-20)
(0.0207438 -0.0404218 4.86483e-21)
(0.997728 0.00257971 2.28433e-22)
(0.997744 0.00272933 2.28227e-21)
(0.997555 0.00284146 5.45926e-22)
(1.05879 0.0234614 -1.03395e-20)