/*--------------------------------*- C++ -*----------------------------------*\
| =========                 |                                                 |
| \\      /  F ield         | OpenFOAM: The Open Source CFD Toolbox           |
|  \\    /   O peration     | Version:  v2012                                 |
|   \\  /    A nd           | Website:  www.openfoam.com                      |
|    \\/     M anipulation  |                                                 |
\*---------------------------------------------------------------------------*/
FoamFile
{
    version     2.0;
    format      ascii;
    class       surfaceScalarField;
    location    "700";
    object      meshPhiCN_0;
}
// * * * * * * * * * * * * * * * * * * * * * * * * * * * * * * * * * * * * * //

dimensions      [0 3 -1 0 0 0 0];
oriented        oriented;


internalField   nonuniform List<scalar> 
27274
(
-0.00128959
0.00182164
-0.000533011
-9.93456e-05
0.000459628
-0.000360283
-0.00247477
-0.000565758
0.00302422
0.00211963
-9.62892e-05
-0.00210172
0.00123587
0.00115783
-0.00240426
0.000567287
0.000607766
-0.0011753
-0.00163137
-0.000742091
0.00232804
-0.000123113
-0.00103905
0.00116181
0.00158032
0.000618355
0.000401344
-0.000497767
9.64234e-05
-0.000266087
-0.00201412
0.00223381
0.000356777
0.000148797
-0.000505575
0.00113507
-0.000470006
-0.000665162
-0.00238769
0.00276289
-0.000378947
-0.00319318
0.00127109
0.00190979
0.00213652
-0.00137216
-0.000766541
-0.000426272
0.000486631
-6.03596e-05
0.00359015
-0.00185779
-0.00177573
-0.00063504
-0.00177856
0.00240501
7.82492e-05
0.000439716
-0.000517974
0.00167116
-0.000103986
-0.00156821
0.00293841
-0.00175207
-0.0011895
-0.000498823
0.000490606
8.21607e-06
-0.000886019
0.0021119
0.000735745
-0.00209283
-0.001379
0.00193706
-0.000573537
-0.00034508
0.00207928
0.0017061
0.00018565
-0.00189226
-0.00040546
-0.000142886
0.000548346
0.00272059
-0.00341586
0.000684551
0.00256344
-7.29659e-05
-0.00250559
-0.00114217
0.00262292
-0.00148884
0.00206397
0.0014737
0.000326526
-0.000131904
-0.000327184
0.00130862
-0.00117265
-0.000136229
0.000191213
-0.00148164
3.57983e-06
0.00195705
-0.000793713
-0.000227322
0.00102098
-0.000192217
0.00189789
0.0002661
0.00203613
-0.00235213
-0.00273043
0.000339782
-0.000584247
-0.000366909
0.00095109
0.000132771
-0.00262293
-0.000269187
0.000497932
-0.000228745
-0.000123636
-0.000294665
0.000295989
2.87715e-05
-0.000822523
0.000972558
0.000256749
-0.00122958
0.00213043
-0.00175698
-0.000373904
-0.000823793
-0.000618983
0.00144232
0.000110751
-0.00208998
0.00194262
-0.00113818
0.00218795
-0.00110765
0.00318908
-0.00269658
-0.000512641
0.000401557
-0.000410913
6.97012e-06
-0.000541953
0.000170047
0.000371905
-0.00230114
0.000865959
0.00141027
-0.000113765
-8.56648e-05
0.000128312
0.00107138
-2.19548e-05
-0.00104964
-0.00122796
-0.00197374
-0.000552534
0.000237156
0.000315378
-0.0011285
0.000415941
0.000712472
0.00194488
-0.00186901
-0.000859017
-0.0004535
0.00131214
0.00284458
-0.00109103
-0.00179671
-0.00140511
0.000712367
0.000692417
0.000452833
-9.60557e-05
0.00113359
0.000686782
-0.000503701
0.000264811
0.00023889
0.000997019
0.000448493
-0.00144567
0.00205268
0.0016892
0.00124593
-0.000754718
-0.000424224
0.00117875
-1.46653e-05
-0.00018815
0.000187536
-0.000440048
-0.000688515
0.000669346
0.00177911
-0.00248607
0.00112532
-0.00124881
-0.00239228
0.000726237
-0.0001647
0.000609472
-0.000444775
0.00149314
0.000709322
-0.00221014
0.00194792
-0.00140428
-0.000546686
-0.00231689
0.00278306
-0.000488444
0.00182255
-0.00261343
0.00079593
-0.000689974
-0.000105971
-0.000247759
0.00191745
0.000696597
-0.00122312
0.000526236
-0.00199017
0.000596816
0.000233427
0.000901537
-0.000553439
0.000295073
0.000258365
-0.000519736
0.000597975
-0.000582104
0.000176644
0.000463302
-0.000562601
9.92985e-05
-0.000828842
8.33902e-05
0.000745426
0.000328797
-0.000617223
0.000351676
-0.00193551
0.00156362
0.0024393
-0.00201139
-0.000495299
-0.000526898
0.000526898
-4.32856e-05
-0.000455538
0.000500118
0.00167117
-0.00219052
0.00172724
0.000214786
-0.00194554
-0.000167546
-0.000374408
-0.000403583
-6.86959e-05
0.000472279
-0.000427438
0.000489154
-6.17161e-05
-6.86287e-05
-0.000363642
0.000432271
-0.000994212
-0.000831294
0.0018249
0.000188546
-0.000753085
0.000564528
0.000762606
0.0014765
-0.00224787
0.00108175
-0.000141228
-0.00094064
0.000216279
0.000222971
-0.00043925
-0.000996037
0.000697889
0.000298092
0.00199286
-0.0012466
-0.000747676
0.000437919
0.000414107
-0.00105064
0.00292014
-0.00188023
-0.00157714
-0.000507363
0.00208395
-0.00109005
0.00183156
-0.000748989
-0.00231334
0.000735723
0.000480559
-0.00061235
0.00013179
0.000353418
5.27314e-05
-0.000492969
0.000289311
-0.000420556
0.000131245
0.000413547
-0.000578251
-0.000385128
0.000428296
-4.31685e-05
0.000464485
-0.00145921
0.000496105
-9.47616e-05
0.000688004
-0.000647057
-4.09578e-05
-0.000772391
0.00225791
0.000321552
-0.00107644
0.00221215
-0.00173156
-0.0004899
-0.000506182
0.00273214
0.000431972
0.000583464
-0.000518947
-6.05668e-05
0.000832789
-0.000339034
-0.000493764
0.000272552
0.00209474
0.00112138
-0.00231558
0.000286775
0.000408162
-0.000694944
-0.00141884
0.000406644
0.00101163
-0.000404016
0.00212809
-0.000759045
-0.000483599
0.00124245
0.000518441
5.86784e-05
-0.00182087
0.00358478
-0.00177705
0.0015547
-0.00185927
0.00241343
-0.00342051
0.000999802
-0.000907586
-0.000198875
0.00110632
-3.37908e-05
-0.000393647
0.000404536
5.67596e-05
-0.000461296
0.00226889
-0.00252824
0.000253363
0.00117691
-0.00223627
-0.000359737
-0.000339418
0.000699155
3.9521e-05
-0.00228704
0.00224433
-0.000814316
0.00186172
-0.00104749
-0.000436334
0.000554317
-0.000117983
0.00239502
-0.000522879
-0.00187757
1.66848e-06
-0.000438003
0.00266826
-0.00229514
-0.000384883
-0.00171497
0.000987753
0.000320651
-0.000236361
-0.000316173
0.00120458
4.52368e-05
-0.00125012
0.000282725
-0.000192419
-0.00010072
-0.000372238
0.000659007
-3.10026e-06
-0.000382027
0.000153266
0.000121912
-0.000321285
0.00128348
-0.000962508
0.00211736
-0.00118447
-0.000934053
-0.0022857
0.000916594
0.00136589
0.00084504
-0.00154429
0.000698893
0.00146617
-0.00187294
-0.000978499
1.85128e-05
0.000959904
3.50587e-06
0.000522098
-0.000525605
-0.000632702
0.000150458
0.000482242
-0.000999935
-0.000551503
0.00155093
-1.45268e-05
-0.000719611
0.000734103
0.00185489
0.000699698
-0.00258995
-0.000698944
0.000635389
6.35556e-05
0.000544334
-0.000211426
-0.000332909
-0.00254389
0.00153022
0.000964946
0.00220316
-0.00250581
0.000251422
0.00144736
0.000686716
0.000541639
-0.000338891
-0.000202749
-0.000929739
-0.000579641
0.00150883
-0.00148961
0.0021378
-0.000664981
0.000280384
0.000552395
-0.000622319
0.000426093
0.000196224
0.00063075
-0.00111387
0.000483127
0.000564692
-0.000579246
0.00158745
0.00022045
-0.00181057
-0.000924524
-0.00117656
0.00204963
-0.000457663
0.00100231
-0.000544705
-0.000480372
-1.09226e-05
0.000491295
-0.000610026
5.46318e-05
0.000555393
-0.000909647
9.55788e-05
0.000814023
-0.00239648
0.0018821
0.000514318
9.57762e-05
-0.000522048
0.00117685
0.00286833
-0.00248895
-0.000394491
-0.000501521
0.00196421
0.000846405
-0.000539628
-0.000306785
0.000272422
0.000911438
-0.00118401
0.000212587
-0.0021306
0.00191461
0.000109513
-0.000635983
0.000526461
-0.000405608
0.00199025
0.000956527
0.000505655
-0.00146311
-0.000390112
-0.000353355
0.0019249
-0.00157737
0.00122901
-0.0021508
0.000920828
0.000591318
-6.51284e-05
-0.000526191
-0.000157635
-0.000452392
-0.000292961
0.000512116
-0.000219156
-0.000898193
-0.000790801
0.00168783
-0.000175714
0.000465025
0.000670706
-0.000274135
-0.000396572
0.000606602
-0.000176722
-0.00042988
-0.000754374
0.00170981
7.55995e-05
-0.00190776
0.00220256
0.000456038
9.33012e-05
-0.000579345
0.000486035
-0.000172716
0.00243553
0.0027141
-0.000906722
0.000154469
0.000641444
-0.000930569
0.00032129
0.00060925
-0.000426443
0.000790329
-0.00188233
0.00212295
0.000265404
-0.000929381
0.000662311
0.000267048
-0.00328133
0.00256972
0.000700871
0.00133886
-0.00064261
0.00140591
0.00216224
-0.000560378
-7.23258e-05
0.00271782
-0.000609489
-0.00211292
0.000597429
-0.000202393
-0.000395036
-0.000486705
0.000473698
1.30062e-05
-0.000386155
-0.000432113
0.000818266
-0.00230827
0.00236975
0.000321815
7.69126e-05
0.0014053
0.000539393
0.00132164
-0.00209559
0.000771998
7.37901e-05
0.000523638
0.00229041
-0.00226477
-3.03725e-05
-0.00143731
0.00193946
-0.000514937
-0.00167746
0.000170916
0.000647188
-0.000895204
0.00024798
0.000147137
0.000545554
-0.000692708
0.000145681
0.000922657
0.00106878
-0.000664937
-0.000315665
0.000980559
-0.00232782
0.000767854
-0.000667889
0.00297392
-0.00235177
-0.00237747
-0.000389458
0.0027626
-6.87033e-05
-0.000418002
0.000796483
-0.00014984
-0.000646652
0.000456073
-0.000142202
-0.000313871
-0.000157597
0.00136186
0.00124746
0.000868595
-0.00195993
0.00160079
-0.000239594
-0.000145687
0.000385281
0.00133745
-0.00174546
8.12203e-05
0.000525381
0.00115816
-0.0023379
0.0011746
0.000113157
-0.000502903
0.000389746
1.90492e-05
-0.000742496
0.000723422
0.000922299
-0.00124387
0.00284137
-0.00242906
-0.000421245
-0.000175496
-0.000140708
0.000207506
-0.000636952
0.00176927
0.00130646
-0.000541813
-0.000764807
-1.63614e-05
0.000607677
-0.000985582
-0.000433537
0.00235268
-0.00104511
-0.00136587
-0.00194543
-0.000605073
0.00250683
0.00057421
-0.000235444
-0.000347067
-9.53478e-05
-0.000624294
0.00105052
-0.000993699
-5.69063e-05
0.000454673
0.000527977
-0.000982646
-0.00119728
-0.00102452
0.00221889
-2.2771e-05
0.000337781
-0.000315011
-0.000276721
-0.00063296
6.12781e-05
0.00102036
-0.00179895
0.00277216
-0.000982739
-0.000616007
0.000725509
-0.00307633
0.000737116
0.000648569
-0.0025327
0.00187189
-0.00070264
0.000463635
0.000239002
-1.20748e-05
-0.000350079
0.000255249
-0.000324059
-0.0020986
-0.000280213
0.00113996
-0.00085988
0.00234053
-0.00310205
0.000740739
-0.000121543
0.000465622
-0.000344079
-0.000494616
0.00182997
0.00103518
0.00089838
-0.00193394
0.000254599
-0.000378876
0.000385571
-0.00138596
0.000497123
-0.000470929
-2.61949e-05
-0.00192109
0.00232884
-0.000289684
-0.00299925
0.000542985
0.00245692
-0.0010846
0.000169513
0.000914993
0.000414083
8.13092e-05
-0.000495393
0.000390724
0.000181584
-2.90052e-05
-3.05484e-06
2.55366e-05
-0.00050237
-0.000428221
-0.000439577
0.00121013
-0.000770879
0.00146382
-0.000236774
-0.00122739
-0.000315156
0.000703908
-0.00038876
-0.00196657
0.00260194
0.000882082
-0.00272015
0.0021912
0.000526769
-5.37119e-05
1.33175e-05
0.000489704
-0.000804868
-0.000273148
-0.000705417
-0.00119278
0.00042433
0.000768383
-0.000367953
-0.000716737
0.00219251
-0.00198644
0.000913827
-0.00028307
-0.00247172
0.00217108
-0.00276019
0.00211554
5.10719e-05
0.0007454
0.00113448
-0.00316979
0.0020205
-0.000760318
0.00045903
-0.00104335
0.00182104
-0.00148703
-0.000695177
0.00210355
-0.00147748
0.000405822
-0.00072152
0.00014653
-0.000379874
0.000233344
0.000166625
0.00050408
0.00145047
-0.00236322
0.000905017
0.00172652
-0.000881917
0.000200979
-0.000470165
0.000144221
-0.00226726
0.00209688
0.000790836
-0.000643718
-0.0016956
-0.000449862
0.00214182
0.000679034
-0.00163914
0.000959613
1.58307e-05
0.000774985
1.56196e-05
0.00210197
0.000392376
-0.000388871
-0.00215689
0.00267263
-0.000524673
-0.0013759
0.000616664
1.70794e-06
0.000128204
-0.000182759
0.0013059
0.000362139
-0.000412912
5.0773e-05
0.000332086
-0.000499697
0.000168042
-0.000334043
-0.000288277
0.00111294
0.000403441
-0.00151766
-7.99135e-06
-0.00213474
0.00213881
0.00148516
-0.00051296
-0.00140104
0.000541684
-0.000179832
-0.00044893
0.000628754
-0.000600358
9.24165e-06
0.000591115
0.000222771
0.000623623
0.00235777
-0.0012049
0.00132592
0.00148518
0.000621424
-0.000450051
-0.000171374
0.000406572
0.000562608
-0.000969168
0.000498069
0.00145482
-0.00196682
-0.00199532
0.00272453
-0.000734909
-0.000651287
-0.000541555
0.000294296
-0.000752006
-0.0005255
0.000285905
8.34843e-05
0.000537939
-0.00212797
0.00220596
-8.40414e-05
0.000785696
0.00132366
-0.00211582
-0.000344553
0.00041297
-6.84173e-05
0.000443089
0.00246533
-8.0352e-05
0.00236558
0.000272547
-0.000670111
0.000397542
-0.000663712
-0.000889726
0.00155245
0.00125218
-0.00200869
0.000751362
-0.000320107
0.000466637
0.000378858
-0.00038267
2.7616e-07
-0.000554209
-0.000662176
0.00121628
-0.000522617
-0.00040678
0.000234487
0.000204155
0.00163579
0.000613187
0.000523435
0.00196341
-0.00249168
0.000739718
0.00124382
-0.00199075
-0.000122075
-0.00220375
0.00230378
-0.000262986
0.000856775
-0.000593835
0.00181223
-0.00195281
0.00147521
-0.000167163
-0.00130856
-0.00199733
0.0027272
0.00222102
-0.00137814
-0.000845352
-0.00200112
-0.000135254
0.00192176
-0.000341349
0.00336962
-0.00108549
-0.0023027
0.00313355
-0.00168351
-0.00145994
0.00185425
0.000567714
-0.00243877
-0.000897206
0.00273286
-0.0021927
0.00138382
0.000806224
0.000207914
-0.000672259
0.000464341
0.000316643
-0.00054754
0.000230898
0.00309418
-0.00170059
0.00070979
-4.72629e-05
-0.000662533
-0.00086274
0.00166057
-0.000798214
0.000562366
-0.000245723
0.00158897
-0.00157958
-1.10287e-05
-1.68731e-05
0.0010017
-0.000985016
-0.00205299
-0.000327969
0.000688348
-0.000137483
-0.000550871
0.00195007
-0.000104827
0.000377957
-0.00203574
0.000585553
0.000585444
-0.00234341
0.00170237
-0.000141815
-0.000458545
0.0024292
-0.00140707
-0.00102576
9.7581e-05
-0.000487652
-0.0014472
0.000751035
0.000695617
-0.000113199
0.00158773
0.00272477
-0.00229259
-0.00174508
0.00186751
-0.000482905
0.000488563
-5.65856e-06
0.00189871
-0.000367857
0.000448407
-0.00218433
-0.000519842
0.00268204
0.000461108
-5.03508e-06
0.000455857
-4.43252e-05
-0.000411532
-0.000521506
0.000794028
-0.00181036
0.000996005
-0.00171804
0.000441399
5.5724e-05
0.000263976
-0.000294718
0.00302154
-0.00295589
-8.41424e-05
-0.000359507
-0.000165993
0.000283808
-0.000377227
7.93166e-05
-0.000512143
0.00200678
0.000453617
-0.000357841
-0.00179658
0.00242863
0.000425612
-6.34733e-05
0.000843052
0.000639907
-0.00148376
0.000828225
0.000547191
-0.00137585
0.000480775
-2.49178e-05
-0.00283308
0.00119314
0.00163915
0.000388834
0.00261371
0.000635737
-0.000230394
-0.000405346
-0.000657198
0.00122424
-0.000473782
-0.000475146
0.000663683
-0.000222699
-0.0021822
0.00239565
0.00141145
-0.00239249
-9.63117e-05
-0.00219375
0.000974217
-0.000532654
-0.000441579
-0.0013176
0.000854482
0.000462901
-0.002646
0.000860255
0.000133835
8.11329e-05
-0.000225621
0.00225169
-0.00243047
-0.00111006
0.000555788
1.17886e-05
-0.000356342
0.000542119
0.00125082
-0.00179426
-0.00180893
0.00171025
-0.00035584
4.50228e-05
0.000308543
-0.000210763
0.00179794
0.000108699
0.000647411
-0.000756131
0.00049849
-8.4407e-05
-0.000378048
0.000491205
0.000612751
3.72239e-05
-0.00064998
-0.000602858
-0.000496908
0.00109972
-0.000709617
0.00122727
-0.000517764
0.000460915
3.70164e-05
0.00203828
-0.00265342
0.000601296
-0.00106034
-0.00150279
0.00251746
-0.000830906
0.00224051
0.000838486
-0.000287231
0.000874205
-0.000587013
-0.00019734
-0.00213054
0.00231739
0.000309873
9.23906e-05
-0.000495974
-0.000865824
-0.000244302
0.000660949
-9.6831e-05
0.000560131
0.000401146
-0.00100404
-5.59736e-05
-0.000424399
0.00229093
-0.00276966
0.000464822
0.0024527
0.00284927
-0.00234504
-0.000513343
0.00206174
-0.000284758
0.000149336
-2.19073e-05
-2.73596e-05
0.000398815
-0.00237711
1.31378e-05
0.000520288
-0.000533426
0.00291287
-0.00147142
0.000400556
0.00159226
-0.00205418
0.000634986
5.30066e-05
-0.000166137
-0.000550802
0.000716887
0.00125047
-0.00235267
-0.00245412
0.000148464
0.00229737
-0.000913644
0.00131865
-0.000405125
-0.000372131
-0.000330511
0.00247053
-0.00102584
0.00298901
-0.00208713
-0.000921766
-0.000654986
-0.000689798
0.00191773
0.000119436
0.000424129
-0.000543566
-0.00168128
-0.00021605
-0.00200757
0.000514581
-0.000310113
-0.000204468
0.00056247
-0.000728658
0.00252212
-0.00192073
-0.000649358
-0.00055344
2.17342e-05
0.000531705
-0.000378716
-2.92401e-05
0.000407956
-0.000226215
0.000596033
-0.00036982
-0.00230088
0.00206411
0.00127204
0.0016966
0.00205602
-0.000736491
0.00103026
-5.55837e-06
-0.00102481
-0.00201901
0.00199482
2.35999e-05
-0.000500103
0.000477331
0.000354277
0.00061992
0.000627807
8.19749e-05
-0.000829105
0.000257796
0.000571296
0.00225899
-0.00172941
0.00163033
-0.000788157
0.000479795
-0.000424238
-5.55573e-05
0.000501048
0.000534519
-4.80744e-05
-0.000486448
-0.00161618
-0.000880176
0.00249294
-0.00118896
0.0019
-0.000712246
-0.00224901
0.00106311
0.00031453
0.000131761
-0.00044629
0.000381854
-0.000450483
0.000137084
-0.000965949
0.00209401
0.000619479
0.00198581
0.000423028
0.000554977
-0.00194481
0.00138551
-0.000976748
-0.00034104
-0.00206581
0.00245217
0.000586902
4.88285e-05
-0.00157589
-0.000674369
0.000559161
-7.86035e-05
-0.000763906
-0.0018442
0.00260389
-0.000596077
0.00284063
0.000125322
-0.00040202
-0.000414392
0.00141121
-0.00170344
0.00103343
0.000669203
-0.000648654
0.000757333
0.00213839
0.000513237
-0.00267314
-0.000260594
0.000947662
-0.000687176
0.000564463
-9.51825e-05
-0.000469282
0.00165572
5.21419e-05
-0.00170939
0.000534749
0.00229583
0.00010921
0.00163603
-0.00174601
0.00114544
0.000545541
-0.001693
3.451e-05
-0.000295626
0.000253376
-0.00162302
-0.000102166
0.0017237
-0.00141901
-0.000388423
0.00204186
0.000938153
-0.000787424
-0.000150785
-0.00208023
0.00197932
0.000488969
0.00228501
-5.92993e-05
0.000394592
-0.00116541
0.00155048
-0.00109128
0.00233837
0.000829643
0.00258968
-0.000313186
0.00146547
-0.00236022
0.000752792
-0.00167508
0.0019798
-0.000373589
0.00155655
-0.000710512
-0.000845951
-0.00120689
-0.000666206
0.00187231
-0.000912544
0.000780445
0.000132042
-0.000713122
0.00174785
0.000330549
-0.000472364
-0.000796309
0.00241562
-0.00162736
0.000268489
0.000170152
-0.00129723
0.00193826
-0.000641779
0.00148824
0.00064159
0.000522961
-0.000503929
0.000470359
0.000549063
-0.000636375
8.73064e-05
-0.00189434
0.00194475
0.00112202
0.00130277
-0.000457376
-0.00186226
-0.00306276
0.0029748
7.46665e-05
0.00011871
0.000885295
-0.00100418
0.000512122
0.000773194
-0.00128565
-0.00157416
0.000624239
0.000949435
-0.000256063
0.00103195
-0.000775983
0.000417674
-0.000802389
-3.99112e-05
0.000842224
0.000242669
4.57898e-05
-0.000391622
-0.000543928
0.00043615
0.000107776
0.000761693
-0.000388027
-0.000373671
-0.00265084
0.00038468
0.00225697
-0.000764801
-0.00230343
0.000963033
0.000593557
-0.000291939
-0.000270663
0.00106805
-0.00170623
0.000920947
-0.000869373
-6.75087e-05
-0.000501261
0.00105809
-0.000556838
-2.70011e-05
0.000965093
-0.000204047
-0.000968855
-0.000868878
0.00139527
-0.000526568
-0.000611071
0.000369488
0.000241581
0.00203485
-0.00182345
0.00115849
-0.00118583
2.72279e-05
0.000212065
0.000211431
-0.000423496
0.000641865
-0.000626051
-0.000595994
7.6588e-05
0.000865664
-0.000942328
0.000871878
-0.000224727
-0.00192938
1.85897e-05
0.0019083
9.6114e-05
-0.000279134
-0.00194914
-0.000254449
0.00296303
-0.000810554
0.000450818
0.000292136
-0.000712612
0.000420478
0.000328588
0.000213051
0.000755238
-0.000547329
-0.000379207
-8.30062e-05
0.000462213
0.000448697
-0.000445467
-3.22973e-06
0.000629961
-0.00113122
-0.00203122
0.000657019
-0.000475958
0.000475999
-4.12323e-08
-0.000665451
0.000637812
2.7635e-05
-0.00179067
0.000904557
-0.000337909
-0.000566652
-9.3645e-05
0.000443235
-0.00034959
0.000703918
-0.00066654
-3.73841e-05
0.00151333
-0.00097225
-0.00206322
0.000702697
0.00129603
-0.000243888
0.00227487
-0.00137155
-0.000791984
0.00215981
-0.000873348
0.00201655
0.00125954
-0.0011002
-0.000159549
0.0027031
-0.00158184
0.000261321
0.000177321
-0.000912745
-0.00128249
-0.00138358
0.00203579
-0.000653645
0.000435409
-0.000120879
0.00233767
-0.00275999
0.000406027
-0.000752604
-0.000951647
-7.92676e-05
0.000613782
0.00309112
-0.00272232
-0.00256521
0.00138868
0.00117066
0.000489661
-0.000500638
1.09768e-05
-0.00155778
0.000564753
0.000901191
-0.000817038
0.000556343
-0.001718
-0.00051986
0.00030126
0.0002186
-0.000259027
-0.00163745
-0.00129705
-0.000416517
0.00171256
-0.000895593
-0.00105266
0.00217313
-0.00112268
0.000960984
6.91651e-05
-0.00139757
0.00196325
-0.000565691
0.00045036
-0.000448692
-0.00118761
-0.000222144
0.00140944
-0.00249548
8.32097e-05
0.00239809
0.000242927
0.000195714
-0.000438642
9.6211e-05
-0.00139405
-0.000218697
-2.4322e-05
0.000342689
-0.000318367
0.000735654
-0.000100681
0.000730778
0.00239396
-0.00122421
0.0024119
-0.00203888
-0.000423196
-0.000408649
2.99326e-05
0.00147776
-0.0013692
-0.00155957
-6.45308e-05
-5.52793e-05
0.000642397
-0.000610502
-0.0017116
0.000667538
-5.47914e-05
0.000645182
-0.000500845
-0.000144339
-0.00133308
0.000491265
-0.000222776
0.000579728
-0.000866995
0.00227077
-0.00034098
-0.00193263
-0.000734482
-0.00138967
0.000840126
-0.000697058
-0.000750637
0.00041272
0.000637699
0.000530747
0.0018691
-0.00242257
0.000648226
-9.91687e-05
0.000777859
-0.00167698
-0.00127128
-0.00022324
-0.000152084
0.000244634
-0.000472221
-0.000409115
-0.00162822
-0.00179536
-0.000514189
-0.000505954
0.00123613
-0.000730429
0.000647266
-2.01832e-05
-0.00250591
0.000539488
-0.000377001
-9.31217e-05
0.000470122
0.000232298
-0.000408662
-0.00204522
0.00245156
0.00285918
0.000101976
-0.00106489
-5.9857e-05
0.0011246
-0.00128141
0.000662001
-0.00197249
0.000565124
0.00102946
-0.000622874
0.00169681
0.00142693
0.000405697
7.40977e-05
-0.000771851
0.00153099
-0.000759647
0.0025189
-0.00207319
-0.0004502
0.000122755
0.000589084
-0.000711841
0.000206421
-0.000417847
-0.00191718
-0.000298939
0.00217904
0.000168206
0.000476973
-0.00161704
0.00146319
0.000277262
0.0027938
-0.000204964
-0.00181521
0.00115638
-0.00139246
0.000236078
0.000496355
-0.000444222
-5.21336e-05
0.00169654
-0.000584737
0.000425267
-0.000213203
0.00188562
-0.00126613
-0.000620355
-0.000660693
0.000244135
0.000416555
-0.000433389
-0.000395724
0.0017959
-0.00177962
7.3626e-05
0.00244003
-0.00192136
0.000790383
-0.000296677
-0.000493709
-0.00207775
-0.000348653
-0.000204786
-0.000414471
0.000315125
0.00267182
-0.00195456
-0.000723128
-0.000145938
0.000457773
-0.000311835
-0.00120944
-0.000775456
0.00198265
-0.00148192
0.000184182
-0.000702001
0.000140925
0.000561071
0.00109828
-0.00053537
-0.000562921
0.000476023
-3.46239e-05
-0.000906785
-0.00172184
0.00258611
-0.000313555
0.000644103
0.00275313
-0.000517714
-0.00224123
0.000622375
-0.000172016
0.00270058
-0.00146768
-0.00124188
-0.000435052
-0.001142
-0.00145677
0.00199988
3.48712e-05
-0.00270197
0.00263312
0.000557223
-0.000196701
-0.000484239
-0.00160578
0.000919952
0.000685592
-0.000125286
0.000676498
2.74121e-05
-0.000625612
0.00198763
6.48416e-05
-0.000476037
0.000411195
-0.000314713
0.00210784
0.00250837
-0.0025056
0.00193151
-0.00138159
0.00192508
-0.0011904
-0.000735343
-0.000899451
0.00079869
0.000100678
-0.000568119
-0.000133887
0.00180603
-0.00011041
0.00017306
5.76858e-05
-0.00161363
-0.000373321
0.00198538
-0.000375452
-0.000236899
0.00107713
-0.000842761
-0.00234038
-0.000896368
-0.00183092
-0.00164595
3.0892e-05
-0.0019772
0.00121496
0.000760857
0.00048539
-0.00022407
-0.000555638
0.0028758
0.00045632
0.000217804
-0.000674135
0.000932255
-0.000659941
0.000291635
0.000470053
0.000244305
-0.000470521
-0.000275601
-0.000228101
-0.00192175
0.00137846
0.000468375
-0.00137945
0.00052269
0.000856262
0.00298363
0.000979142
0.00144778
-0.00243346
-0.00124664
-0.000730576
0.00197477
0.000362693
-0.000456338
0.00149213
-0.00220004
0.000643487
-0.00220841
0.00173307
-0.00010416
0.000307945
-0.000324661
0.00022226
0.00198558
-0.00194184
-4.51686e-05
-0.000796553
-0.00170969
0.00157874
-0.00140127
-0.000178243
0.00169512
-0.000628215
-0.000538352
1.85594e-05
0.000519791
0.000493364
-0.000277085
0.00057548
0.00178449
-0.00238499
-0.00254757
0.00249977
4.42821e-05
-0.000483721
0.00190527
-0.000591513
0.000495564
9.59484e-05
0.000364695
9.49326e-05
-0.000617356
0.000524542
9.28124e-05
-0.000269915
0.000759608
-0.000843281
0.000642316
0.000200948
-0.000268632
0.000703115
-0.000434493
-0.00171793
-0.00114861
0.00193846
-0.002502
0.000503868
-0.00266921
-0.00193046
0.00241728
-0.000489228
0.00195937
-0.00147497
-0.00234125
-0.0006306
0.000644605
-1.40099e-05
-0.000107732
-0.000419166
0.000397471
-0.00220456
-0.00104115
0.000720128
0.000321004
0.00160912
-0.00105692
-0.000633331
0.00180114
0.000466515
0.0012878
-0.00140161
-0.00111878
-0.00120062
-0.0016326
-0.00179211
-0.00077751
-0.000610057
0.000270639
0.000374585
-0.000516787
0.000878591
8.72108e-06
-0.000887514
0.000442277
3.37455e-05
0.000354333
-0.00106404
-0.000204264
0.000469075
-0.000780153
-0.00021362
-0.000133731
-0.000445622
-0.000587132
0.000509813
7.73188e-05
0.000577451
-0.00134976
0.000568929
-4.46864e-06
4.97182e-05
-0.000852174
0.000418126
-0.000442448
-0.00213875
-0.000432055
0.00255217
-0.00222857
-0.0016513
-0.000369981
0.00197688
-0.00187641
-0.000475936
-0.000399002
0.000874923
0.000725515
0.000189019
-0.00038571
0.000199257
0.000990193
-0.00125081
0.00026047
0.00135839
-0.000314596
-0.00111372
-0.000967313
-0.000438021
0.00140609
-0.000694091
-8.63992e-05
-0.000264725
0.00033108
0.000445357
0.00014561
-0.000590977
-0.00234031
8.22351e-06
0.00232034
0.000211708
-0.000169804
-0.000895206
0.0018636
-0.00249565
0.000583286
0.000899996
-0.000165314
-0.000734723
0.000646313
-0.000354176
0.000867171
-0.00251213
0.00163897
-0.000509168
-0.00175868
0.00225792
-0.000136769
0.00261147
-0.000571503
-0.000473753
0.00104516
0.0013852
0.000907228
0.00206816
-0.00122392
-0.000847707
-0.000708753
0.000842196
-0.000133457
-0.00265355
0.00242242
0.000230253
0.000571217
-0.000366946
-0.000204272
0.00204353
-0.00284568
0.000790537
0.000528914
-0.000445431
0.00125782
-0.00203359
0.000771082
0.000930912
5.10361e-05
-0.000982126
0.00256243
-8.18928e-05
-0.0024982
-0.00135113
0.000691592
0.000659174
-0.000371688
0.00165874
0.000450901
-0.00160349
-0.00152576
0.00238708
8.7053e-05
0.000484164
-0.00207463
-0.00121578
-0.000429969
0.00042035
9.61934e-06
-0.000388715
-1.9737e-05
0.000408452
0.000994797
-0.00219449
0.000118543
-0.000163114
-0.00110193
0.0019493
0.00138087
-0.00206825
0.000635612
9.74591e-05
-0.00047446
0.00289742
-5.06654e-05
4.77704e-05
0.000481143
0.000379875
0.000147023
0.00141278
-0.000202929
0.000540414
-0.00030993
-0.000230485
0.000228213
-0.000487602
-0.00228866
0.00288269
-0.000610153
-0.000377303
-0.000405389
-0.000181743
-0.0011462
-0.000251308
0.00252012
-0.00193059
-0.00060752
0.00247046
0.000369475
0.00201809
0.00226384
-0.00058934
-0.00168303
-0.000736145
-0.000513752
0.00124976
0.000376569
-0.00059462
0.00021805
-0.000768265
-0.00140606
0.00217205
-0.000380668
0.000453712
-0.00038887
-0.000820455
0.000241457
0.00057897
0.000139773
-0.00115094
0.00101102
0.00154765
0.00054015
-0.00209664
0.00025987
-0.000421151
0.000161281
0.000294
0.00126475
0.000313331
-0.000384447
0.00292993
-0.000553127
0.00272695
-0.00217738
-0.000564231
0.000529868
3.43622e-05
-0.0022731
-0.000147143
-0.000372717
0.000611165
9.42279e-05
0.000196197
-0.000300064
0.00126284
0.000661619
0.000451208
-0.000521243
-2.54374e-05
0.00137456
0.000430299
0.000361279
0.00112068
-0.00148348
-0.000129349
0.001399
-0.0019254
0.00152353
0.000334037
0.000528774
0.00172423
-0.00026799
-0.000233416
0.000501406
-0.000560603
0.000320261
0.000225604
-0.00152728
-0.000223405
-0.000274362
-0.00242687
0.00187066
0.00278507
-0.000465978
0.000702102
-0.00136438
-0.00038371
-0.000153518
0.000537227
-0.00139646
-0.000312493
0.0017074
-0.000518194
7.84229e-05
0.000439771
3.3426e-06
0.00194672
0.00244232
-0.00129547
-0.00110048
-5.00418e-05
-0.000425916
0.000588703
-0.00046595
0.000160862
0.000377052
-0.000537914
-0.000187096
0.000281891
-0.00128344
0.00218027
0.000482752
-0.000248519
-0.000269676
-0.00101001
0.00274371
-0.00176623
-0.000301542
0.000746887
0.000491008
0.000538603
-0.000441143
-0.000772805
0.000485134
0.000264119
0.000933906
-0.00083009
-0.000185688
-0.000360435
-0.000482859
-0.00114387
0.00244228
-0.00130827
0.000187243
-0.000455232
0.00252044
-0.000493858
0.000363577
-0.000509514
0.000238041
-0.00257569
0.00192663
-0.0015291
-0.000228146
-0.00019411
0.000650417
0.000147181
-0.000526111
0.00037893
-0.00134876
-0.00074837
-0.00200646
0.00247596
-0.000478968
-0.00127551
-0.00155948
-0.00227039
-0.0017774
0.00228652
0.000268067
-7.64718e-05
-0.000192284
-0.00073427
0.00092648
-0.000308108
-0.00169461
0.00199735
-0.000646758
0.000482753
0.000164001
0.00251627
-0.0011429
-0.00137626
-0.000414701
-0.000176813
-0.00215328
0.00253777
-0.000403692
0.00183011
6.05089e-05
-0.0019441
-0.000746946
0.000176128
0.000570805
0.000548716
-0.000326209
-0.000222507
-0.000606484
9.84009e-05
0.00050808
0.0014552
-0.00255434
0.00109405
-0.000198206
0.000493278
-0.0025932
0.000422079
0.000580861
-0.000241076
-0.000339785
-0.00152799
0.000827049
-0.000918854
9.17592e-05
0.00233099
0.000429493
-0.000345914
0.000590218
0.00289438
-0.00228979
-0.000622666
-0.00114519
0.001505
0.00192801
-0.00193964
0.000466148
0.0022425
-0.00272198
-0.000396073
0.0004235
0.000474701
8.44577e-05
-0.000760257
0.000606488
0.000153756
0.000509672
-0.000303186
-0.000206487
0.00101357
-0.000873928
-0.000960127
-0.00106976
0.0020261
-0.00120484
-0.0010837
-0.000275104
0.00191647
-0.00168643
-0.000428241
0.00199044
-0.000534289
-0.00111363
0.00155486
0.000965019
-6.50796e-05
0.000742187
0.0019469
-2.44432e-05
-0.000301905
0.000326349
-0.00123425
0.000918451
0.000315697
0.000604847
0.00189669
0.000701454
-0.00190915
0.000336649
0.000244212
0.000881688
-0.000763128
0.00179953
0.000184845
-0.00127312
0.00218682
-0.000469817
-0.00119256
0.00166201
0.000533053
-0.000376879
-0.000156175
-0.00119214
-0.000413716
-0.000231968
-0.000433485
-0.00139612
0.000815989
-0.000893303
-0.000397674
0.00129069
-0.000821695
0.000551769
-0.00210983
-0.00224372
0.0027992
-0.000573114
0.000181383
0.00107802
0.00081796
-0.00130177
0.000380797
4.86185e-05
0.000639722
0.00176759
-0.00102003
-0.000748065
0.000409008
0.000117934
-0.000526942
0.0015765
-0.00188964
-0.000274691
-0.000106296
0.00126267
-0.000705364
0.00111059
-0.000405437
0.000667982
-0.00185808
0.000235674
0.00199548
-0.00223406
-0.000489162
-0.00156996
-0.00113806
0.00269416
0.000294368
-0.000318811