/*--------------------------------*- C++ -*----------------------------------*\
| =========                 |                                                 |
| \\      /  F ield         | OpenFOAM: The Open Source CFD Toolbox           |
|  \\    /   O peration     | Version:  v2012                                 |
|   \\  /    A nd           | Website:  www.openfoam.com                      |
|    \\/     M anipulation  |                                                 |
\*---------------------------------------------------------------------------*/
FoamFile
{
    version     2.0;
    format      ascii;
    class       volScalarField;
    location    "200";
    object      omega;
}
// * * * * * * * * * * * * * * * * * * * * * * * * * * * * * * * * * * * * * //

dimensions      [0 0 -1 0 0 0 0];


internalField   nonuniform List<scalar> 
18355
(
2.42987
0.0204312
0.207578
0.0210088
0.0479667
0.0733114
0.0215841
0.0542131
0.0220215
0.38814
0.0258732
0.122051
0.129535
0.928375
0.0210851
0.0201973
0.0210052
0.0240919
0.160323
0.0225389
0.19348
0.0219083
0.0204582
0.0740441
0.0204688
0.0221108
0.021623
0.0210133
0.0222132
0.0266792
0.676134
0.0426465
0.0203447
0.0200696
0.0210655
0.0221207
0.0261741
0.0221997
0.0271864
0.0218717
0.0221476
0.0264964
0.0200879
0.0204175
0.0204274
0.257966
0.0209889
0.0209785
0.728236
0.0212324
0.020832
2.07405
0.021276
0.126885
0.021284
0.0225459
0.0211104
0.851162
0.0221991
0.45807
0.0200798
0.0830598
0.124754
0.0213574
0.0506564
0.0206239
0.0235517
0.0262094
0.020025
0.597232
0.0209381
0.0212839
0.0363757
0.0250293
0.137975
0.020045
0.6638
0.0200551
0.0209102
0.106479
0.0235188
0.0607562
0.0200359
0.0244865
0.0410415
0.0217612
0.0222631
0.0341286
0.0208709
0.0341315
0.988269
0.118042
0.0561411
0.0212278
0.383882
0.0217314
0.0208591
0.0212826
0.0653416
0.0218445
0.0390645
0.0208792
0.0211845
0.0195587
0.0237436
0.020208
0.0502978
0.396546
0.0296103
0.0201527
0.0207294
0.0214146
0.0314541
0.0242864
0.281017
0.0271808
0.0208568
0.115093
0.022858
0.0233718
0.582619
0.207777
1.0124
0.0382943
0.102433
0.272918
0.0216218
0.0210381
2.47491
0.0216607
0.0208631
2.06865
0.0212681
0.0729511
0.0750335
0.02086
0.165443
0.519213
0.0211904
0.126407
0.0245447
0.0354115
0.0209539
1.96777
0.0743924
0.021646
0.439725
0.0196033
0.0312976
0.300859
0.0210068
0.0233106
0.0213467
0.0266163
0.0200984
0.020582
0.0210517
0.0217497
0.0209604
0.0206808
0.0245114
0.0212744
0.0201607
0.0300861
0.0255342
0.289006
0.473205
2.35861
0.231758
0.0245275
0.0212785
0.0676857
0.0216134
0.75863
0.0211455
0.0221096
0.021334
0.019523
0.0225438
0.0276193
0.0218135
0.263669
0.0217924
0.0210355
0.0406313
0.0211729
0.0218025
0.0334577
0.0213453
0.0217176
0.261063
0.0658027
0.0204591
0.0200542
0.0214067
0.285389
0.0205404
2.28454
0.0204401
0.959845
0.0211397
0.0230624
0.0274415
0.0217245
2.38862
0.0215756
0.217841
0.0210308
0.0202986
0.0213111
0.0215638
0.0590906
0.0223216
0.0219503
0.0196134
0.78109
0.0276783
0.024606
0.0215946
0.0209914
0.0289249
0.0199722
0.0326389
0.025111
0.0470425
0.0233967
0.0199937
0.521708
0.501488
0.0327306
0.0213643
0.0237565
0.315655
0.0199843
0.0301098
0.0348702
0.0219527
0.265085
0.0242982
0.0219544
0.0204566
0.0224581
0.0215996
0.0313682
0.0215726
0.0212894
0.0209808
0.0601861
0.0677271
0.021019
0.0216363
0.0623935
0.152489
0.0256101
0.0195284
0.0316807
0.0242779
0.0217381
0.0233076
0.0208066
0.304226
0.254523
0.059273
0.0282827
0.0280396
0.0353995
0.0322348
0.0717416
0.020799
0.0212907
0.0218892
0.0201515
0.0230528
0.0247405
0.0209754
0.0215681
0.0303617
0.0208485
0.0632363
0.764469
0.0284267
0.021592
0.0279317
0.0201414
0.034592
0.0215235
0.0285333
0.0218666
0.0279274
0.33275
0.0203229
0.0407028
0.0227222
0.0241012
0.0323722
0.0213167
0.020039
0.0584968
0.0215652
0.0358075
0.0262517
0.345948
0.0351974
0.0608773
0.0234776
0.0316124
0.0211654
0.023609
0.0278495
0.0405422
0.208107
0.280983
0.0210686
0.0239067
0.102242
0.0285319
0.0210642
0.0209704
0.0209925
0.0459723
0.280208
1.19225
0.250285
0.0300081
0.0243116
0.0409475
0.0196016
0.0215533
0.0242712
0.0213644
0.0328203
0.0209414
0.473456
0.0202281
0.0875171
0.021351
0.0218259
0.0237787
0.141151
2.26296
0.0314729
0.213294
0.0219312
0.0208804
0.0213558
0.0241974
0.400206
0.0209039
0.0214688
0.0865985
0.0218602
0.0209039
0.155863
0.0237321
0.0209869
0.021261
0.0292899
0.0222542
0.0292106
0.0200539
0.02146
0.0218061
0.408754
0.0355936
0.0200309
0.0209395
0.0350744
0.0210001
0.0215111
0.18333
0.043008
0.0323498
0.02134
0.0219976
0.130397
0.0220151
0.0333432
0.0236614
0.0202663
0.0322474
0.0326017
0.0217242
0.0213413
0.0241467
0.0214624
0.0233557
0.0214016
0.0572113
0.0216097
0.0231093
0.020869
0.0209936
0.0229
0.0221271
0.061672
0.549816
0.0370378
0.0227785
0.150927
0.0265498
0.0213694
0.0208954
0.0383528
0.0213447
0.0340301
0.0214565
0.026908
0.0460236
0.145026
2.29217
0.0627141
0.0195666
2.66943
0.0218453
0.0209654
0.163334
0.0213158
0.0276394
0.0202681
0.0551264
0.0213108
0.0655236
0.252229
0.0552204
0.0212694
0.0204618
0.0573428
0.0228635
0.021008
0.360495
0.17756
0.0209597
0.0390688
0.0618972
0.0204566
0.0221389
0.0301586
1.16201
0.0347587
0.0218602
0.0212027
0.0343359
0.0212869
0.0202014
0.0211432
0.0533163
0.500282
0.0202506
0.0221623
0.0214921
0.148369
0.0321333
0.0200357
0.0276887
0.0329622
0.021474
0.288467
0.0827133
0.0218277
0.0214454
0.0336916
0.154244
0.654144
0.0202289
2.05883
0.0212342
0.0202439
0.0370172
0.0229794
0.0596668
0.0364237
0.0232314
0.0255753
0.0219176
0.152041
0.02303
0.0272509
0.0219067
0.0202068
0.021718
0.0202213
0.0813584
0.477424
0.0547184
0.0245086
0.0215941
0.021905
0.0215
0.0235246
0.0214467
0.0200373
0.021383
0.0346966
0.020464
0.0214168
1.85054
2.2466
0.105988
0.0216379
0.0220309
0.0302759
0.0218787
0.277983
0.238312
0.0236772
0.0246275
0.0254009
0.022219
0.0234297
3.14496
0.0299171
0.0219255
0.416812
0.0215797
2.28246
2.53282
0.0246631
0.0220735
3.28754
0.0209816
0.0621449
0.0430865
0.362114
0.0230276
0.0216956
0.0214602
0.440505
0.728351
0.355451
0.440331
0.0232295
0.02145
0.0244864
0.0212972
0.0233414
0.130534
0.780857
0.611215
0.134698
0.0270407
0.0398169
0.0327863
0.0209972
0.021146
0.0279664
0.0237567
0.0215391
0.0212949
0.113972
0.0208434
0.12002
0.0246262
0.0759826
0.138393
0.0211526
0.0242846
2.43234
0.0213779
1.19425
0.0212708
0.100595
0.0299491
0.0219417
0.03252
0.0719084
0.0634346
0.0219196
0.0200105
0.0328313
0.0248556
0.0759705
0.0213717
0.0839494
0.020835
0.230985
0.0211562
0.0211649
0.193169
0.0251077
0.036246
0.0210382
0.0250003
0.023473
0.455628
1.03546
0.0239231
0.0281814
0.0211507
0.027746
0.0217597
0.0237774
3.75409
0.0204196
0.0581852
0.0215577
0.0212509
0.0239314
0.279769
0.0225103
0.0638887
0.0219848
0.033829
0.226615
0.0196087
0.0209882
2.28849
0.0335093
1.83589
0.0372255
0.021718
0.0213005
0.0209819
0.0250442
0.0220395
0.0201479
0.105105
1.81319
0.0211485
1.22576
1.18776
0.0249937
0.21357
0.0202173
2.13021
0.349043
0.0196731
0.250261
0.0364589
0.324957
0.455256
0.0210726
0.0209778
0.0215928
0.130017
0.0450494
0.0212885
0.0219369
0.106867
0.0217935
0.037694
0.0210778
0.0348205
3.21825
0.430687
0.0539307
0.416066
0.0348747
0.772384
0.0246292
0.0209188
0.0264477
0.441367
0.0266204
0.0430579
0.0212791
0.349404
0.0215092
0.0217678
2.70084
0.0217231
0.0268419
0.0377394
0.0576179
0.0214699
0.0212899
0.0238661
0.0254335
0.0199649
0.0215431
0.0340685
0.140165
0.0230634
0.0212994
0.0364202
0.2455
0.0212245
0.403379
0.285553
0.0214657
1.69882
0.0200001
0.208482
0.0213464
0.0203021
0.193301
0.0232325
1.1068
0.0229453
0.0212918
1.65085
0.0213432
0.0201347
0.021519
0.0209283
0.0273632
0.0326698
2.2712
0.0220838
1.06557
0.0228868
0.413422
0.725636
0.022169
0.0213489
0.0250005
0.020147
0.106807
0.0211922
0.0201142
0.0201455
0.0212776
0.0213678
0.235298
0.0249503
0.0426321
0.0225764
0.0238796
0.0241365
0.0240263
0.247852
0.0204654
0.0811765
0.0384512
0.0200066
0.786257
3.19745
0.0207751
0.350521
0.0211681
0.286285
0.0336804
0.0196562
0.033203
0.0259289
0.393352
0.0208474
0.0239494
0.451852
0.0669106
0.0501962
0.021364
0.343257
0.0741637
1.75302
0.0213709
0.0227349
0.0210148
0.02149
0.0210605
0.0209746
0.0204145
0.401233
0.0258937
0.0208919
0.0200615
0.0205421
0.0218162
0.0626294
0.0727896
0.0203181
0.0254366
0.0215362
0.0215621
0.0214561
0.0209486
0.0351147
0.0200584
0.0208861
0.0217818
0.0216115
0.0229071
0.0215379
0.262022
0.110193
0.0240113
0.0208677
0.148773
0.0201047
0.0200663
0.0215795
0.0508958
0.0244827
0.0214027
0.0201714
0.0204493
0.0255206
0.0200164
0.0263831
0.0211826
0.0217578
0.0210595
0.0226675
0.975646
0.0209104
0.0218564
0.0211811
0.178729
0.365006
0.0261976
0.0220385
0.0266075
0.0248824
0.0339237
2.02802
0.0217804
0.353367
0.0218745
0.123891
0.0220577
0.0202789
0.0200668
0.368623
0.0200359
0.0264097
0.0272226
0.168973
0.0388324
0.022291
0.0210204
0.0208379
0.0212116
0.0276659
0.0986172
0.465762
0.0402855
0.0215274
0.0200128
0.0225105
0.0210611
0.0208176
0.0217842
0.0425387
0.0248637
0.100627
0.0215221
0.021435
0.0343613
0.0213027
0.153864
0.0408362
0.035705
0.134039
0.455631
0.0290737
0.0209861
0.0200217
0.0216709
0.0212809
0.604669
0.0444305
0.103866
0.0203055
0.0215908
0.023115
0.0208373
1.7356
0.0688775
0.0200636
0.0200683
0.0209753
0.0210678
0.0209142
0.0212584
0.228301
0.0199793
0.021962
0.0203138
0.0205878
0.0210692
0.0214709
0.0259225
0.0205825
0.0251953
0.0201629
0.0296927
0.21241
0.0238036
0.318364
0.0226845
0.021879
0.0637851
0.346574
0.0214253
0.0207454
0.0204721
0.0258318
0.0219807
0.029039
0.0358996
0.0215095
0.0220219
0.021482
0.11669
0.245666
0.0221049
0.020596
0.0239729
0.0352156
0.0211379
0.064294
0.0208384
0.0199623
0.0241117
0.100873
0.451821
0.299706
0.233564
0.0200515
0.0322908
0.0598273
0.0245122
0.0212039
0.0602834
0.0236665
0.207657
0.178805
0.0207329
0.020062
0.0214784
0.021923
0.0200642
0.329424
0.334665
0.0201089
0.0215351
0.0219587
0.0350641
0.0212428
0.0208648
0.0316604
0.0219187
0.0209279
0.238005
0.0885295
0.0798285
0.0212679
0.0202368
0.0201249
0.0213405
0.0241178
0.027371
0.0208693
0.0206292
0.0226826
0.351514
0.0204598
0.0214147
0.0615473
0.0209128
0.0207582
0.0213461
0.675587
0.0202169
0.0214437
0.0204628
0.0225056
0.020228
0.0251916
0.142953
0.0214151
0.170739
0.0276233
0.207366
0.0513092
0.020989
0.025073
0.0208399
0.0207427
0.021001
0.42954
0.415925
0.0312747
0.0263014
0.580651
0.0671099
0.0221351
0.0942372
0.0587148
0.0231883
0.0200597
1.23552
0.0222054
0.0207409
0.0203959
0.260132
1.78056
2.19158
0.0207112
0.0890262
0.352785
0.0246275
0.031161
0.0242714
0.0230978
0.0326195
0.218867
0.0229506
0.0222446
0.0251789
2.50194
0.234348
0.0212323
0.0213526
0.0210607
0.34025
0.0235546
0.021935
0.591051
0.0251669
0.0361219
0.0242612
0.314265
0.0206763
0.104932
0.0220615
0.0200667
0.0209866
0.0199965
0.0200747
0.0208913
0.0217221
0.234105
0.0205286
0.0701797
0.0258866
0.0216702
0.0207511
0.0854958
0.0211887
0.0215141
0.0230944
0.618483
0.0494507
0.023231
0.021532
0.360145
0.0206718
0.0369218
0.0215151
2.18638
0.0319635
0.32059
0.0257033
0.0210066
0.0335141
0.936244
0.0755885
0.0205579
0.0213393
0.0354105
3.64712
0.0195689
0.0437724
0.0205672
0.0261491
0.0208609
0.0200443
0.0219755
0.0221107
0.0200237
0.036344
0.0344766
0.0242723
0.131983
1.24093
0.0221852
0.31778
0.0201101
0.106511
0.324461
0.164317
0.0200203
0.0219499
0.0214946
0.590776
0.0210309
0.0208387
0.0869415
0.0215137
0.0215198
0.0221378
0.022018
0.0212493
2.54199
0.399036
0.0587626
0.0207527
0.0214495
0.127636
0.0201088
0.066999
0.0215895
0.02148
0.02198
0.0235207
0.242941
0.0205098
0.0214705
2.17096
0.0215864
0.0217847
0.0355049
0.343527
0.163993
0.0214251
0.0210663
3.33454
0.435644
2.41919
0.0206134
0.0322865
0.192537
0.0203492
0.0337519
0.0229582
0.42068
0.0237016
0.0215293
0.0221705
0.0200189
0.410664
0.0214612
0.0204789
0.36411
0.0280537
0.203452
0.0199914
0.0226487
0.0200425
0.019639
0.0202079
0.0221112
0.021616
0.0218657
0.0200283
0.0217615
0.0426057
0.0268544
0.0244784
0.0206276
0.0237907
0.0210675
0.333134
0.0216269
0.0220764
0.0215825
0.0200714
0.0218179
0.0212331
0.0211644
0.0212303
0.0208339
0.0202151
0.491596
0.309838
0.0212335
0.418094
0.0329258
0.0217646
0.0216923
0.0221538
0.509248
0.0217746
0.020105
0.0201014
0.0200299
2.38199
0.0212752
0.0202843
0.189819
0.0200192
0.0197322
0.0234294
0.0235802
0.0660644
0.138366
1.68521
0.0200456
0.252058
0.0248741
0.0212289
0.0204223
0.0241109
0.0212825
0.0280761
0.0538082
0.0232038
0.0219472
2.78137
0.0502814
2.10576
0.484249
0.368253
0.070352
0.020475
0.236654
0.535462
0.0201322
0.321348
0.020708
0.0223141
0.138985
0.0207302
0.108845
0.0251925
0.022837
0.0219333
0.0391178
0.0213735
0.128543
0.0212395
0.0201894
0.530944
0.0197502
0.0215382
0.0218406
0.0483866
0.0212045
0.0214417
0.0229785
0.316593
0.0211956
0.0212681
0.0202351
0.0235863
0.0211815
0.022313
0.19448
0.0209706
0.0255874
0.02171
0.0233832
0.0231066
0.0209411
0.0219085
0.0961286
0.0215667
0.0216882
0.0242664
0.297648
0.0221893
0.0211267
0.0214227
0.0251372
0.0658326
0.0224871
0.0210218
0.020965
0.0205625
0.0196258
0.020051
0.0258349
0.0290562
0.050413
0.0215418
0.892499
0.0206473
0.0210137
3.31632
0.0432054
0.0199746
0.0705277
0.0211658
0.0210198
0.433662
0.0218353
0.0365886
0.0197318
0.147749
0.0205498
0.0200093
0.0202525
0.155436
0.0727505
0.0215421
0.136669
0.0202322
0.0209054
0.0207372
0.143676
0.0212192
0.0206557
0.0219252
0.0227116
0.021272
0.0214526
0.0207964
0.021736
0.0215305
0.0208395
0.0236728
0.0200019
0.980621
0.0615155
0.0202174
0.0498412
0.0253846
0.0209363
0.0206599
0.0219377
0.0207522
0.0279916
0.0244934
0.0421561
0.0417136
0.021679
0.0715791
0.149505
0.0212203
0.0217301
0.0820427
0.0230586
0.307544
0.020216
0.021168
0.0225252
0.0217177
0.0208214
0.0253767
0.0209499
0.0215116
0.0212384
0.023047
0.0205303
0.121112
0.0213438
0.0239108
0.027613
0.0210114
0.420752
0.458429
0.0230828
0.0257998
0.0271608
0.0198653
0.0477731
0.0214356
0.0313373
0.617844
2.02623
0.0367153
0.0216681
0.0256841
0.0209998
0.0285576
0.0205308
0.354615
0.027836
0.0214555
0.0208061
0.0466147
0.0353834
0.0212259
0.0212183
0.31598
0.0216108
0.0206466
0.102684
0.0512923
0.0201224
0.179828
0.0203139
0.0408071
0.0537013
0.0212663
0.0214312
0.0230501
0.125701
0.0207914
0.0253665
0.0214363
0.0212743
0.0208249
0.942695
0.0218104
0.0213622
0.0211088
0.128602
0.0255773
0.0208041
0.0197705
0.103995
0.0211498
0.0204556
0.101162
0.475425
0.0219071
0.259172
0.0230982
0.045274
0.0221366
0.0546852
0.423322
0.0216816
0.0207514
0.0203155
0.0239428
0.0212025
0.616008
0.577846
0.0205296
0.0221782
0.0203408
0.020037
2.60109
0.0212104
0.0225801
0.0226828
0.0557582
0.0214508
0.0216898
0.0245024
0.426964
0.0214714
0.0213724
0.020449
0.020571
0.0237351
0.0434319
0.0215459
0.0211206
0.0212732
0.0210788
0.0203233
2.6737
0.0217271
0.0210563
0.0210934
0.0569821
0.0203755
0.0204583
0.0324274
0.0209101
0.0384233
0.0212431
0.0214302
0.299898
4.1016
0.194169
0.0329632
0.0234419
0.0217872
3.03589
0.0206389
0.0245537
0.0200045
0.0883478
0.0195441
0.0238807
0.0214597
0.802551
0.0373921
0.0335135
2.09871
0.022367
0.0496194
0.0217163
0.0219983
2.4715
0.0325038
0.0211771
0.0203055
0.0234162
0.0259497
0.0214226
0.0212774
0.0206345
0.0199351
0.180875
0.400434
0.0217169
0.0228239
0.368883
0.973202
0.0229078
0.0220228
0.022954
0.024102
0.021216
0.0222428
0.105865
0.0209108
0.02033
0.0215103
0.107884
0.265495
0.0248735
0.0215483
0.0215905
0.0258826
0.0213423
0.0256386
0.0367136
0.0818569
0.0230834
0.29991
0.0201197
0.0212294
0.0218338
0.0199632
0.0215496
0.0208543
0.0338738
0.0210081
0.0704436
0.0213602
0.0207215
0.0204909
0.0251148
0.0224439
0.0422007
0.0486247
0.0201586
2.82294
0.0227053
0.0205069
0.0197957
0.363723
0.231931
0.0198158
0.0208104
0.0207261
0.0222382
0.169413
0.100011
0.02195
0.0219389
0.139954
1.53625
0.021977
0.0212134
0.271826
0.0235697
0.100203
0.0233743
0.0211458
0.0578476
0.0253384
4.20926
0.0268021
0.539243
0.0204034
0.0209063
0.0217684
0.0215781
0.0235073
0.021685
0.0215473
0.020789
0.021738
0.0215083
0.021204
0.0213787
0.0228049
0.0219295
0.0213381
0.0208176
0.0335484
0.0232453
0.0209196
0.0215116
0.174795
0.0213949
0.0217088
0.021926
0.991854
0.0204597
0.0363828
0.022549
0.0201939
0.0210635
0.319498
0.0793413
0.0220332
0.0214935
0.023558
0.0345083
0.0208704
0.0268036
0.0386623
0.0210557
0.0980483
0.0208231
0.0213305
0.0208616
0.0217356
0.0279032
0.0610789
3.16992
0.0256735
0.0202045
0.0214964
0.0211078
0.0524976
0.0219319
0.325713
0.0208169
0.0213694
0.0213542
0.0706638
0.0209495
0.0215694
0.0212486
0.136766
0.0204681
1.74198
0.0204293
0.0256
0.021321
0.0285996
0.0209922
0.0233876
0.539237
0.0363847
0.0202127
0.0337285
0.0215082
0.0213602
2.0563
0.578229
0.0203247
0.0212475
0.0231974
0.0202491
0.0211073
0.0218595
0.0216931
0.0241894
0.0495346
0.0221459
0.0256607
0.0348517
0.0216732
0.0209987
0.0211775
0.0224882
0.0274512
0.0214262
3.73934
0.0206734
2.94015
0.0361361
0.0201487
0.0207206
0.0206998
0.125923
0.0215614
0.0235085
0.0214916
0.0207413
0.581561
0.0226527
0.0264758
0.0216511
0.0214648
0.0226563
0.0212298
0.0226554
0.021365
0.0222431
0.0219671
0.0218721
0.445155
0.024517
0.455013
0.0209977
0.0230149
0.0223919
0.316216
0.0564251
0.163376
0.0224874
0.0199725
0.0394809
0.0209012
0.454015
0.0221223
0.0410588
0.0224448
0.380532
1.89503
0.0234352
0.0266309
0.020746
0.0205328
0.0218854
0.019902
0.021723
0.0229244
0.0207817
0.0249537
0.0427496
0.309415
0.0208904
0.0408106
0.0201062
0.0211894
0.0211335
0.0929839
0.0216482
0.0463615
0.0216762
0.0210949
2.76649
0.0208778
0.0233518
0.0210466
0.0233763
0.123795
0.0258275
2.26463
0.0213296
0.0550689
0.0228773
0.0211187
0.0211616
0.027035
0.0238202
0.0212751
0.0226776
0.0213239
0.462746
0.0207331
0.400028
0.239703
0.0627762
0.0251961
0.0859514
0.0244143
0.0198942
0.868512
0.0211879
0.0754474
0.0218505
0.022616
0.329642
0.334147
0.026258
0.107372
0.0213817
0.301747
0.0196044
0.168166
0.0201596
0.0218146
0.0412842
0.0215183
0.0207187
0.021979
0.0212552
0.0331036
0.313953
0.0311075
0.342539
0.0206346
0.968482
0.0214389
0.0216483
0.0210083
0.021104
0.455541
0.02158
0.0205655
0.0355305
0.0218033
0.359718
0.0604969
0.021267
0.040503
0.0320528
0.0208493
0.0214335
0.0240063
0.0203242
0.0535832
0.0274319
0.0226155
0.0226894
0.0204464
0.0211597
0.0558843
0.0219948
0.0214438
0.0222427
0.0198876
0.0201353
1.93328
0.0270883
0.550362
0.0261645
0.0507716
0.0262955
0.021111
0.0258112
0.0204695
0.0209813
0.234694
0.0238043
0.0241706
0.0428701
0.0216864
0.271066
0.216829
0.0210911
0.0237877
0.0294248
3.09113
0.0203144
0.0203487
0.0216753
0.0286448
0.33628
0.0245524
0.0235395
0.0218205
0.0211707
0.0199637
0.115361
0.0235753
0.0219339
0.442772
0.0216299
0.0229218
0.0244579
0.0214906
0.0212372
0.0210322
0.0523051
0.0993815
0.0218693
0.0228953
0.294672
0.0209039
0.0219318
0.0234498
0.0215862
0.41298
0.385502
0.046736
0.0662801
0.994391
0.0226391
0.0208427
0.0373932
0.0225343
0.0268489
0.0210266
0.0201895
0.35348
0.4579
0.0210781
0.0207504
0.0270812
0.0748421
0.0231011
0.0199639
2.67572
0.022819
0.0345666
0.020143
0.0264263
0.0195827
0.022564
0.0259186
0.0211706
4.4367
0.0219615
0.0332872
0.0883179
0.306027
0.0755691
0.0211952
0.0588378
0.0241328
0.0242487
0.0222436
0.0216215
0.0214455
0.0226141
0.267097
0.022764
0.293767
0.0207804
0.208208
0.0202948
0.0218901
0.267991
0.0242424
0.205132
0.0227371
0.02209
3.19657
2.67079
0.0208643
2.73537
0.0344179
0.0207199
0.0198369
2.21384
2.74975
0.0204612
0.0202785
0.0211902
0.0202417
3.01145
0.295992
0.0195227
0.0197855
0.0208613
0.231172
0.0455974
0.335169
0.0201991
0.30742
0.0215576
0.0516385
2.27222
0.0239658
0.0205941
0.0205403
0.335114
0.0203453
0.0210578
0.0202124
0.0245238
0.0227592
3.90804
0.0249819
0.0218046
0.021194
0.0259031
0.192564
0.0414878
0.0211186
0.0208609
0.152377
0.0472454
0.0219915
0.527593
0.0279497
0.0230221
2.70831
0.0226775
0.0259288
0.0218151
0.183684
0.0214196
0.0218162
2.32972
0.0267999
0.0210485
0.0213489
0.0195885
0.0374344
0.105298
0.0209737
0.020272
0.0221274
0.0662878
0.0226634
0.0202025
0.0212428
0.0207293
0.022871
0.040197
0.0214341
0.0209757
2.14925
0.0211031
1.04553
0.0286927
0.0304833
0.0232414
0.0222235
0.0214756
2.53968
0.0739541
0.067455
3.87996
0.0282088
0.0208736
0.367462
0.0202246
0.0730091
2.67391
0.0228828
0.021127
0.0235235
0.0705109
0.0211961
0.0210285
2.74932
0.0212635
0.0221779
0.0207045
0.0216292
0.020333
0.0562849
0.12732
0.0201441
0.021022
1.11087
0.0211874
0.0201241
0.0209968
0.020825
0.132508
0.0230712
0.0231203
0.022285
0.0219611
0.0202689
0.0351394
0.104912
0.0257414
0.264546
0.0222912
0.0236612
3.853
0.0208863
0.0203674
0.0210613
0.020825
0.0218218
0.0197457
0.0220769
2.72225
0.0212079
0.0210894
0.0227064
0.0208117
0.350401
0.0216687
2.40996
0.182986
0.0249693
0.0284092
0.330699
0.0238622
0.0211675
0.0233958
0.0209498
0.0225704
0.021879
0.0217661
0.362915
0.020291
0.0213236
0.0382901
0.238041
0.021694
0.0208412
0.189309
0.0223315
0.027397
0.0213096
0.0208521
0.0209303
1.80784
0.0214445
0.230472
0.0477335
0.0213667
0.0208321
0.0210553
0.0239453
0.309978
0.0201546
0.0388105
0.0210945
2.40692
0.224608
0.0220372
0.174162
0.0215432
0.023125
0.0233421
0.281576
0.0228974
0.0255602
0.025971
0.419105
0.0216696
0.036687
0.021448
0.0423077
0.14466
0.172588
0.0209733
0.028854
0.304576
0.553256
0.0229756
0.0236258
0.350403
0.348143
0.0208119
0.0536897
0.0211819
0.0242568
0.0214676
0.0223285
0.0222439
2.46561
0.0216328
0.0218042
0.0533116
0.421465
0.679575
0.12408
0.58136
0.0207798
0.346702
0.0577665
0.0210391
0.0211191
0.414762
0.0234353
0.0214852
0.0212447
0.0356437
0.0206963
0.0212556
0.444914
0.0214605
0.0217436
0.0210396
0.0213996
0.0225045
0.0204781
2.57834
0.0236218
0.0229951
0.0205032
0.0292627
0.135203
0.0209223
0.0216962
0.321115
0.178952
0.0213508
0.0239059
0.0207077
0.0209335
0.0372615
0.166083
0.0209344
0.0210585
0.319715
0.26192
1.28317
0.0275288
0.0220513
0.390752
0.0207365
0.0244438
0.0237304
0.0205596
2.33613
1.21938
0.0355992
0.0269929
0.154937
0.0198427
0.0197768
0.0227377
0.031443
0.535533
0.0203383
0.0332178
0.314215
0.360883
0.0216315
0.0224511
0.271709
0.0209755
0.0238408
0.19697
0.0209605
0.0211923
0.020463
0.272881
0.0208191
0.0238362
0.0219141
0.0369593
0.0279263
0.406649
0.0211762
0.0211285
0.0282806
0.0216858
0.0241868
0.0220333
0.101682
0.121638
0.020991
0.0213416
3.20296
0.341206
1.01024
0.0207541
0.0213555
0.022659
0.0215294
0.0212713
0.0214311
0.0208106
0.0218654
0.0206762
0.0207607
0.0501809
0.0231311
0.0269463
1.02429
0.0605832
0.0465208
0.0247663
0.0480781
0.13059
0.0286918
0.0234856
0.0262096
0.0210647
0.788106
0.0200621
0.0202801
0.020675
0.436389
0.0209201
0.423743
0.0217721
0.0201334
0.0428162
0.0211634
0.0211419
0.0211561
0.0261078
1.37173
0.0215849
0.0205589
0.0226038
0.315537
0.0462689
0.351404
0.0210271
0.0320254
0.0214753
0.0215368
0.0201963
0.020721
0.0213548
0.0223181
0.131557
0.0224915
0.0224966
0.119133
1.10675
0.129316
0.0208707
0.0937656
0.0316021
0.362796
0.0205494
0.020975
0.0219469
0.170438
0.0197952
0.0213559
0.0207128
0.0203465
0.126548
0.0221546
0.0530254
0.0210755
0.019778
0.0238414
0.021431
0.666273
0.0211389
0.0230967
0.0217788
0.0259076
0.0220406
0.0568577
0.347565
0.0212313
0.0416877
0.734333
0.0211184
0.0215359
0.0396827
0.0197253
2.69431
0.0287483
0.020969
0.0550184
0.0200138
0.021419
0.0214554
0.0206913
0.0202262
0.0221288
0.0206697
0.0207121
0.0215248
0.0218373
0.045588
0.0200399
0.136694
0.0205281
0.020896
0.0268014
0.0418994
0.0220516
0.01972
0.0211959
0.0223209
0.0403819
0.205078
0.0319886
0.0219158
0.0219479
0.0207516
0.0282128
0.0209312
0.0222678
0.379475
0.25179
0.0451177
0.0210763
0.0217786
0.0221256
0.0197275
0.0441446
0.0201223
0.0894761
0.0219647
0.180238
0.0255914
0.377517
0.0215402
0.0582885
1.86616
0.414518
0.326888
0.0247821
0.396341
0.334356
0.0218581
0.0331753
0.434155
0.0204269
0.0207454
0.0213336
0.0240001
0.413925
0.0214658
0.0239731
0.543636
0.0195266
0.0214631
0.305116
0.837208
0.102499
0.354857
0.463898
0.02212
0.0521292
0.0231187
0.02341
0.510407
0.0223701
3.72069
0.0441864
0.0235246
0.0214028
0.0226201
0.0226101
0.0205495
1.75181
0.0197892
0.0212447
0.0213089
0.629954
3.91943
0.0313233
0.0212688
0.0223519
0.0204674
2.93989
0.0209872
0.0220148
0.0233267
0.0879166
0.0206947
0.0706884
2.38258
0.317746
0.0217469
0.210225
0.0205422
0.229037
0.0198256
0.0390569
0.0215393
0.0646946
0.0255658
1.21287
0.125048
0.0228504
0.0225426
0.0304248
0.023922
0.0210975
0.0207024
0.0250087
0.0218363
0.328026
0.0196455
0.0210691
0.021428
0.0213995
0.282732
0.0207363
0.0201334
0.02151
0.0521063
0.0256491
0.0522384
0.0227653
0.0224788
0.0779386
0.0205565
0.0213085
0.0625099
0.041681
0.0201357
0.0332289
0.022823
0.351264
0.0212468
0.0940303
0.0215575
0.0212094
0.0202296
0.020176
0.0211581
0.0210706
0.184321
0.0567432
0.0215598
0.0213168
0.0211231
0.0221524
0.0260311
0.545138
0.021542
0.029521
0.0237673
0.326245
0.0216257
0.0396089
0.0212928
0.0212541
0.0284127
0.0212187
0.0214476
0.020678
0.0200646
0.435973
0.0213808
0.0207281
0.0335103
0.45788
0.0353939
0.0213685
0.0198954
0.0237154
2.2889
0.0230931
0.0216926
0.021505
0.185136
0.0218587
0.0211227
2.63611
0.0207627
0.024482
0.0227072
0.0215365
0.0201675
0.0505812
0.025903
0.0206214
0.0212804
0.0214365
0.0208954
0.296855
0.0226528
0.0213928
0.0197677
0.0220043
0.0201806
0.0212385
0.0754444
0.0206392
0.02383
0.0235856
0.306085
0.01972
0.0224964
0.0518257
0.0258866
0.18984
0.0209637
0.0214747
0.251445
0.0213999
0.0201672
0.361195
0.0214103
1.90203
1.00541
0.065446
0.342977
0.0214125
0.0265982
1.81385
0.0212382
0.0200061
0.118386
0.464495
0.0208934
0.0201407
0.0227634
0.0207276
0.206631
0.0441189
0.991913
0.0214785
0.0216436
0.0212116
0.021124
2.28705
0.0984167
3.67356
0.0242579
0.0224789
2.31315
0.0213346
0.0208925
0.0225501
0.0209264
0.0218413
0.0403806
0.0197184
0.4251
0.0218218
0.0219138
0.0213912
0.0258904
0.0207456
2.88342
0.0206833
0.0211909
0.0226847
0.0201612
3.32187
0.0241905
0.0258596
2.80821
0.0343174
0.0304327
2.19945
0.0213359
3.28127
0.0261837
0.020766
0.022366
0.0217303
0.380964
2.88935
0.0214409
0.0232182
0.400651
0.0210623
0.0205707
0.0239837
2.07397
0.629621
0.0215194
0.0219683
0.0862716
0.022786
0.0669457
0.0658535
0.0605668
0.0201469
0.3935
0.0215103
0.330893
0.0516516
0.0326121
3.82133
0.370328
3.82716
0.0203653
0.973791
0.0199489
0.0197763
0.256386
0.019755
0.0221821
0.0211416
0.0557183
0.0206076
0.142738
0.0201645
0.0258198
0.435031
0.0256147
0.0244954
0.401507
0.021808
0.0202428
0.0218496
0.0890357
0.0241732
0.13437
0.0214152
0.0253516
0.021762
1.3303
0.021415
0.0215402
0.0213658
0.654669
0.0307282
0.021507
3.73794
0.0210832
0.0214277
0.0247536
0.156568
0.0213916
3.25821
0.021439
2.59925
0.021425
0.0407728
0.0209833
0.0492807
0.021424
0.05427
0.0243553
0.0395803
0.0208932
0.0217288
0.293338
0.0203669
0.0239873
0.0269861
0.0200692
0.0558099
0.309445
0.138079
0.0220368
0.0197291
0.0211856
0.12815
0.0237593
4.54041
0.0238038
0.320194
0.0212781
0.541885
0.0205358
0.0301468
0.11975
0.02273
0.806701
0.0235825
3.64061
0.164995
0.0207695
0.320326
0.0223193
0.0211334
0.0227547
0.0770929
0.0234616
0.162525
0.0244736
0.113479
0.0414046
0.0634282
0.0466109
0.298549
0.0214535
0.0215255
3.66861
3.65197
0.0322263
0.0233585
2.05536
2.14048
0.0213033
0.0214318
0.0212008
0.663533
0.0207075
0.0209219
0.031535
0.0977862
0.0198251
0.0206132
0.0221849
1.95029
0.0205031
0.0238629
0.0198258
0.121499
0.0219593
0.742167
0.0218222
0.0206494
0.0213334
0.0202632
0.572169
0.0350953
0.199622
0.021323
0.0278275
0.0202063
0.210438
0.227124
0.0486295
0.020789
0.112071
0.0208848
0.0215797
0.376858
0.021069
0.0240075
0.321122
0.0201489
0.112047
0.0207604
0.0198365
0.0215488
0.508428
0.0207827
3.87708
0.0983424
0.234411
0.311564
0.0207078
0.601922
0.063517
4.30715
0.031924
3.57273
0.178703
0.0215619
0.032693
0.0217261
0.0285528
0.0210229
0.0227486
0.0212047
0.025222
0.324697
3.2984
0.0237878
0.0230992
0.12634
0.408038
0.0211989
0.0214553
0.884609
0.0338119
0.0204058
0.254603
0.0348508
0.0221505
0.0203609
0.0223619
0.323997
0.021617
0.0563803
0.0195886
0.133193
4.39523
0.0726468
0.022256
0.0214793
0.0211576
0.0212609
0.0214554
0.0246115
0.0224272
0.0215884
3.97484
0.0208345
0.0215551
0.0210551
0.305739
0.379536
0.0212488
0.0213244
3.04449
0.0204821
3.29811
0.0215214
0.0213539
0.0197184
0.0215898
0.0205925
0.0227155
0.0202649
0.310552
0.0217986
0.095391
0.0213506
2.21885
0.0214643
0.0242453
2.20054
0.186051
0.0212388
0.0214435
0.0325378
0.0197225
0.531878
0.413149
0.0224575
0.0207549
0.0212347
0.0203265
0.0451235
0.279792
0.0364385
0.424108
0.0361908
0.0213792
0.0211847
0.020528
1.04509
0.3096
0.0223343
0.0211254
0.0208079
0.0266832
0.0213764
3.01503
3.42714
0.0286368
0.0202744
3.5677
0.128454
0.0214415
0.0413268
0.022212
0.580232
0.0326706
0.032955
0.0272721
0.992222
0.0311199
4.7959
0.0208688
0.0205243
0.0206957
0.0203077
0.0214995
0.0275762
0.0204898
0.0250357
0.0200043
0.244176
0.0210632
0.0287661
2.17965
0.0220668
0.0198063
0.0283196
3.97303
0.0212464
0.0206031
0.181484
0.755982
1.99878
0.0215623
0.0197277
2.9893
0.126406
0.0238366
0.0510421
0.0213747
0.0332726
0.0214964
0.128532
0.0206651
0.0210394
0.417152
0.0204193
0.022715
0.363578
0.0508884
0.0206397
0.0207597
0.0207434
3.19537
0.0239461
0.0256958
0.0214247
0.0207831
0.121278
0.0302586
0.0211436
0.0212921
0.0197291
0.0228796
0.0206532
0.0226481
0.189232
3.08843
0.0231234
0.0364497
0.0208209
0.0410792
0.0212187
0.0215267
0.0207669
0.242408
0.0399592
0.0200317
0.0226777
0.863344
0.0342703
3.35387
0.0489417
0.0212936
0.0207689
0.0279703
0.0223394
3.6993
0.0205043
3.81712
3.74557
0.0209004
0.0357273
0.319152
0.0253785
1.69661
0.110704
0.0215923
3.0508
0.0252848
0.0204337
3.75187
2.95972
0.0994915
0.0217239
1.52136
1.16194
0.021337
0.174712
0.505447
0.0213775
0.0207075
0.0218144
0.0200181
0.021542
0.139485
0.619595
0.0214207
0.0250913
2.54283
3.73149
0.0341303
0.0522446
0.0210701
0.0247953
0.796282
0.0505391
3.64877
3.07015
0.0212544
0.0214442
0.021042
0.0227163
1.99741
0.326937
0.0209763
0.0333198
0.341319
0.267589
0.0484976
0.0211318
0.0214876
0.0219355
0.249501
0.0222947
0.0337148
0.0287395
0.0220097
0.402779
0.0230385
0.0514246
0.140476
0.373833
0.0212173
0.021198
0.0224911
0.0310852
0.207708
1.2753
0.0218682
2.17648
1.51776
0.0321506
0.030899
0.528145
0.347711
0.316053
3.17336
0.0213248
0.18226
1.00544
0.0291662
0.0274386
0.129178
0.0225328
0.118499
0.0231903