/*--------------------------------*- C++ -*----------------------------------*\
| =========                 |                                                 |
| \\      /  F ield         | OpenFOAM: The Open Source CFD Toolbox           |
|  \\    /   O peration     | Version:  v2012                                 |
|   \\  /    A nd           | Website:  www.openfoam.com                      |
|    \\/     M anipulation  |                                                 |
\*---------------------------------------------------------------------------*/
FoamFile
{
    version     2.0;
    format      ascii;
    class       volScalarField;
    location    "850";
    object      nut;
}
// * * * * * * * * * * * * * * * * * * * * * * * * * * * * * * * * * * * * * //

dimensions      [0 2 -1 0 0 0 0];


internalField   nonuniform List<scalar> 
18355
(
0.000541261
0.0069753
0.006521
0.00672201
0.00347512
0.000484035
0.0067203
0.000456195
0.000972719
0.00739142
0.00673641
0.00479156
0.000340918
0.00547082
0.00293878
0.000947921
0.0019908
0.0067283
0.00294485
0.00767437
0.000642135
0.00168862
0.0137409
0.00399006
0.00256578
0.00672262
0.00672236
0.00106113
0.00252025
0.00416462
0.00479998
0.00296379
0.00672689
0.00673604
0.000280647
0.000547398
0.00139846
0.000134518
0.00103753
0.00673852
0.00535237
9.409e-05
0.00606981
0.00383323
0.00679398
0.000132904
0.000439978
0.000816603
0.000433332
0.00672773
0.00672749
0.00620494
0.00672592
0.0104822
0.00672194
0.00672144
0.000507379
0.00308288
3.59163e-05
0.000254397
0.00672703
0.000530267
0.00672868
0.000249353
0.00589466
0.000602413
0.00108715
0.000264514
0.00672227
0.00179226
0.000328509
0.0067253
0.000211887
0.0067232
0.000474328
0.00672028
0.00736268
0.0026147
0.00212369
0.00639019
0.00672041
0.000283676
0.000628594
0.00026667
0.00672258
0.000318361
0.00619616
0.00771603
0.00272409
0.011089
0.000312337
0.00679332
0.00672211
0.00672277
0.000275128
0.0134213
0.00571239
0.00143086
0.0109602
0.00140818
0.00202831
0.00158851
0.000346549
0.00277287
0.00377724
0.000366892
0.00204489
0.000118726
0.000761699
3.04569e-05
0.004903
0.00115136
0.00672268
0.00119045
0.0104398
0.00671949
5.27852e-05
0.0076692
4.86426e-05
0.000316988
0.00830877
0.000225585
0.00313917
0.000367904
0.00512244
0.000113459
0.00529937
0.00672559
0.000249056
0.00672153
0.00672731
0.00474766
0.000620957
0.00171476
0.000173214
0.00672544
0.00378624
0.00673612
0.00586452
0.000217191
0.00301124
0.00646502
0.00177842
0.00491955
3.46053e-05
0.00197135
0.00058887
0.00301341
0.00203521
0.00253401
0.00381921
0.00176063
0.000335102
3.68647e-05
0.000559765
0.00672572
0.00440338
5.31577e-05
0.00672564
0.000502936
0.000593151
0.00104439
0.000338953
0.00163177
0.000420988
2.28625e-05
0.00522462
0.00042097
0.000304726
0.00672548
0.011684
0.0128894
0.0067311
0.00673414
0.00100108
0.00386893
0.000887003
0.006722
0.000153352
0.00197574
6.84336e-05
0.000293531
0.00109984
0.00671945
0.000403238
0.00428674
0.0127934
0.000322074
0.000832055
0.00135845
0.000507267
0.00596906
0.00174554
0.00336657
0.000147001
0.0016471
0.0021668
0.00128801
0.000743146
0.00673321
0.00222352
0.000765951
0.00303107
0.010983
0.000410223
0.000534175
4.97935e-05
0.0113109
0.0123945
0.000817527
0.00367441
0.00329033
0.00819807
0.00191728
0.00672496
0.000302099
0.000976773
0.00823164
0.00672282
0.0018425
0.000392441
0.0064692
0.000248991
0.00402606
0.00528988
0.00208505
0.00986393
0.00405488
5.0704e-05
0.00352741
0.0067258
0.00226679
0.000708319
0.0101313
0.00137723
0.00672256
0.00672212
0.000108214
0.000508433
0.000219955
0.000811728
0.000290741
0.004536
0.00672498
0.00188876
0.00260762
0.00158933
6.71329e-05
0.000582559
0.000581891
0.00230244
1.55795e-05
0.00120077
0.012928
0.00249037
0.00641433
0.00336538
0.000456972
0.00386099
0.00673143
0.00060097
0.00029709
0.00303676
0.00059947
0.00671882
0.00672345
0.00672573
0.000304379
0.000164669
5.56614e-05
0.001314
0.000840118
0.000308363
0.000356581
0.00262954
0.00234095
0.00622611
0.00672572
3.18943e-05
0.00672592
0.00672043
0.000332565
0.00672444
0.00365475
0.00130076
0.000751872
0.0067292
0.000464414
0.00595163
0.00285597
0.00672118
0.00658744
0.000345062
0.0105923
0.00672567
0.00672586
0.00158612
0.00033269
0.000582791
3.61722e-05
0.00672534
0.000314379
0.00141338
0.00672564
3.67361e-05
0.00040385
0.000403634
0.000371871
0.0067221
6.88025e-05
0.00405716
0.00285178
0.000692919
0.00618317
0.000307254
8.98322e-05
0.00672211
0.00672177
0.000309821
0.000297441
0.0116193
0.00234988
0.000358228
0.00294384
0.0067781
0.000728684
0.00255681
0.00030554
0.00034698
0.00672109
2.03663e-05
0.00318781
0.000160074
0.00672196
0.000719608
0.00639668
0.00672568
0.00169417
0.000754778
0.00672342
0.000412807
0.000507773
0.00460307
0.00936531
0.0021758
0.00282044
0.00672847
0.013785
8.93708e-05
0.00672225
0.00179131
0.00040758
0.000377945
1.7277e-05
0.0141692
0.00672225
0.00192944
6.08744e-05
0.00528642
0.00161916
0.000335519
0.000824048
0.00203183
0.000395186
0.00672588
0.000136262
0.000346129
0.000147203
0.00672084
0.00335162
0.00672896
0.00565025
8.75418e-05
0.00595986
0.000401398
0.00672858
0.000967978
0.00672225
0.000921674
0.0047596
0.002932
0.0062725
0.00557645
0.00112623
4.82492e-05
0.00904072
0.00376711
0.00648224
0.000260558
0.00960406
0.00104084
0.000372122
0.00196619
0.00598244
0.0014965
0.00671959
0.00672244
0.00672442
0.00848928
0.00133537
0.00677284
0.000579836
0.000469152
0.00502131
0.00677952
0.0100334
0.00199046
0.00584178
2.38417e-05
0.00672334
6.10869e-05
0.00110172
0.000308537
0.000564743
0.0037069
0.00763405
0.00672501
0.0067261
2.49141e-05
0.00672571
0.00673034
0.00142936
0.00672364
0.00719679
0.00103751
0.000767847
0.00168443
0.00159372
0.00672596
0.00547612
0.000504726
0.0118744
0.00330645
0.00672773
0.00671956
0.00180331
0.0014522
0.000183816
0.00280966
0.00672583
0.0021204
0.000110957
5.35824e-05
0.000533048
0.00214827
0.00672588
0.000931461
0.000329167
0.0107727
0.00661897
0.00845527
0.000111273
0.000133402
0.00589657
0.00420421
0.00671997
0.00672967
0.00360205
8.84585e-05
0.00672453
0.00677025
0.00103513
0.000102384
0.000436211
0.0117083
0.000101156
0.00281739
0.00459422
0.00498605
0.0048051
0.00672039
0.00672601
0.00672599
0.0067252
0.00642637
0.00247253
0.00672254
0.000231205
0.000258512
0.00672004
0.00281322
0.000121257
6.00906e-05
0.00107331
0.00565241
0.00446817
0.000798315
0.00104644
0.00246698
0.00560078
0.00112384
0.000245979
0.00672411
0.0130018
0.00418354
0.00790998
0.00544134
0.00616503
0.000742823
0.000350615
0.00181626
0.00101773
0.00106829
0.00571956
0.000135999
0.00672433
0.00101683
0.0081748
0.013426
0.00814744
0.00232812
0.000559932
0.000617885
0.00982552
0.00164588
0.000314471
0.00217559
0.00513536
0.00672242
0.000188379
0.00672492
0.00519007
0.000590616
0.0102768
0.00417313
0.00220023
0.00672744
0.000270278
0.000415951
0.000336815
0.00672323
0.000410397
6.31843e-05
0.00157882
0.00386513
0.000822462
0.00192665
0.00672583
0.000675093
0.000782082
0.00165794
0.000209781
0.00163486
0.00672359
0.00672818
0.00672586
0.000461846
0.00210396
0.000480245
0.00477684
0.00351222
0.00549122
0.00672075
0.000239034
0.00133428
0.000156397
0.000724526
0.0108919
0.00227249
0.000324738
0.000525865
0.000770539
0.00348802
0.00576455
0.00488044
0.00171436
0.00140982
0.00555103
0.00643359
0.000438834
0.000411791
0.000319205
0.000140159
0.00619017
0.00042108
0.00672115
0.0118272
0.00652391
0.00287174
0.00673094
0.000232717
0.010485
0.000597119
0.00672453
9.67638e-05
0.000207688
0.000284826
0.000302738
2.97265e-05
0.00161907
0.000338406
0.00331846
0.00045765
0.000846991
0.000128233
0.000112484
0.00118369
0.00672085
0.00290175
0.0044734
3.72995e-05
3.34301e-05
0.00573164
4.52321e-05
0.0083708
0.0018829
9.2776e-05
0.000888281
0.00424156
0.00654646
0.00673806
5.33493e-05
0.00156938
0.00658717
0.00049859
0.00672167
0.00158798
0.00175522
0.00182874
0.000398025
0.00652087
0.000308355
0.00101341
0.000718028
0.0104486
0.00538765
0.000399699
0.00734072
0.00672535
0.00180627
0.0134868
0.00671732
0.000371793
0.0067216
0.00343374
0.00158992
0.000984772
0.000300181
0.000920963
0.000371565
0.000653762
0.00299898
0.000641456
0.00464572
0.00251469
0.000922431
2.13624e-05
0.00236903
0.000218951
0.000356662
0.00565958
0.00672678
0.00449724
0.000730446
0.000788512
0.00672507
0.00119493
0.00795734
0.0105702
0.000455778
0.000626963
8.85271e-05
0.001154
0.00672231
0.00672473
0.000576006
0.000142997
0.00676191
0.00338288
0.000462874
0.000331776
0.00681236
0.0128692
0.00998513
0.00387304
0.00673693
0.00050594
0.00672517
0.00672499
0.00360495
5.0851e-05
0.00162082
0.00673007
0.000451993
0.00044814
0.00212475
8.90605e-05
0.00313368
0.00907123
0.000610232
0.00219886
3.50195e-05
0.0127138
0.00672064
0.0103755
0.00672215
0.00672533
0.0017494
0.000209723
0.00945199
0.000646918
0.0041407
0.000388672
0.00951456
4.44593e-05
0.00118434
0.00749819
0.00318895
0.00681749
0.00284892
0.00418387
0.00708471
0.00228711
2.79239e-05
0.000820021
0.000531478
0.00592741
6.39653e-05
0.0087554
0.00672093
0.0100527
0.00519498
0.00455941
0.00360306
0.000539551
0.00169911
0.00672553
0.00672455
0.000636401
0.00406731
0.00551582
0.00671953
4.47693e-05
0.0011605
0.00672525
0.00672234
0.000410253
0.000331982
0.00699419
0.000640829
0.00679608
0.000706051
0.0104663
0.000589461
0.00610321
0.00672698
0.000591312
0.000890591
0.000745864
0.00561313
9.38241e-05
0.000138378
0.00514724
0.007707
0.00110311
0.00672008
0.000809271
0.00574297
0.00211606
0.00125756
0.00204695
0.00671852
0.00545597
0.00676184
0.00672159
0.00097506
0.00551486
0.000472502
0.000611023
0.0124078
0.00295667
0.00672156
0.00574047
0.012173
0.00224919
0.0130831
0.00847739
0.01056
4.07287e-05
4.13113e-05
0.0020404
0.0014536
0.00672301
0.00672426
0.00300368
0.00191645
0.00672218
0.00181736
0.00791308
0.000978347
0.00273023
6.06047e-05
0.00671756
0.00110789
0.000413206
0.00672194
0.000686656
0.00162549
3.42026e-05
4.55654e-05
0.00035015
0.00993246
0.000120639
0.000902941
0.000124178
0.008575
0.01391
0.000612751
7.57472e-05
0.000407525
0.00256888
0.00534626
0.00672825
0.00672024
0.00164963
0.00704892
0.00672459
0.00672584
0.000344594
0.00671781
0.000221191
0.000229586
0.00672433
0.00153805
0.0049043
0.00538562
0.00040723
0.00672549
0.000263476
3.21925e-05
0.00248319
0.0033375
0.00672435
0.000115622
0.00671875
0.0013293
0.000174193
0.00624636
0.0122826
0.00285567
0.0141766
0.00222307
0.000474572
0.00672434
0.000654334
0.000442339
0.00672317
0.00244395
0.0142878
0.00589625
0.00206141
0.00260941
0.00133716
0.00672179
0.00672187
0.00672693
0.00434452
0.00672918
0.0144163
0.000815785
0.000325377
0.00468247
0.00674027
0.00673026
0.0117346
0.0133923
0.000629456
0.00672285
0.00504751
0.00672435
0.00321769
0.000146208
2.75012e-05
0.000951926
0.000865616
4.82641e-05
0.000591549
0.000240891
0.00407164
0.00235996
0.0116283
0.000464115
0.00672432
0.00232906
0.0145044
0.00672478
0.00372461
0.000103779
0.00672528
0.000454525
0.00675157
0.000862909
0.000826524
0.00671766
0.00671964
0.0033357
0.00430362
0.00672448
0.000901771
0.00564397
0.00250092
0.00672379
0.000138534
0.000796577
0.000935864
0.0127197
0.00151086
0.00672657
0.000844673
0.00276645
3.70837e-05
4.22596e-05
0.00675392
0.000280057
0.00338783
0.011825
0.00674442
0.00148825
0.000135838
0.00601521
0.00672369
0.0067185
4.18191e-05
0.00630536
0.0029398
0.00438165
2.78098e-05
0.00672537
0.00672337
0.000742695
7.94186e-05
0.00460381
0.000685369
0.00251267
0.00157753
0.00475463
0.00676284
0.00672599
0.000321033
0.00190278
0.00935212
0.00109528
0.0124989
0.00498605
0.00672731
0.000221495
0.0133689
0.00987883
0.00178288
0.00708168
0.00478829
0.000419101
0.00139621
0.000277309
0.00663232
0.00631289
0.00672933
0.000756385
0.00672319
0.00557528
0.00672556
0.00940306
0.00156943
0.0083693
0.000229483
0.001748
0.00101305
0.00672046
0.00672023
0.00671741
0.00105748
0.000257586
0.00395496
0.000551398
0.000307334
0.00672278
0.00129764
0.000486139
0.000427052
0.00104877
0.00106355
0.000281534
0.00449041
0.000694263
0.00590438
0.000844746
0.00058193
4.41815e-05
0.00647115
0.00613697
0.000351154
0.000178502
0.00522364
0.00462118
0.000395128
0.00353072
0.00180155
3.25484e-05
0.000223772
0.000359312
0.000512532
0.00672284
0.000111463
0.00404865
0.000633465
0.00334018
0.00672312
0.0125035
0.000951435
0.00208507
0.00626666
0.0052892
5.90826e-05
0.00319161
0.00673099
0.000145414
0.00445089
0.00126701
0.00580969
0.004165
0.00194176
0.00152065
0.000548455
0.00459004
0.00309012
0.000592147
0.00606444
0.00673322
0.00110091
0.00249098
0.00136621
0.000448163
0.00157367
0.00671718
0.00672364
0.00145762
0.00673665
0.00672236
0.0103969
0.00672578
0.00219333
0.00672213
9.7618e-05
0.00672297
5.00663e-05
2.77958e-05
0.00316429
0.0102167
0.00671964
0.00143163
0.00464693
0.00894593
0.00049212
0.00671804
0.00672339
0.00258628
0.00640961
0.000349297
0.0094519
0.00264206
0.00471152
0.00672372
0.00155258
0.000620297
0.00210635
0.00674474
2.3388e-05
0.00856997
0.00095727
0.00366882
0.00335696
0.00672455
0.00672364
0.00912859
0.000489183
0.00106192
0.00100095
0.00401579
0.00860343
0.00205303
0.000222459
0.00672454
0.00149118
0.00555998
0.000367957
0.000309442
0.000993394
0.00672197
0.00423505
0.00124179
0.00671803
0.00674035
0.00319471
0.00606502
0.00306216
0.0077863
0.00186448
0.0060378
0.0024472
0.00119576
0.0137747
0.00671745
6.99591e-05
0.00112118
0.00671752
0.000919637
0.000535572
0.00672332
0.00517544
0.00672231
0.00452542
0.000633324
0.00672278
0.00158118
0.000360543
0.00672192
0.000387098
0.00116085
0.00942651
0.00177875
0.00974255
0.000384468
0.000361453
0.00905797
0.00803577
0.0067933
0.00189863
0.00672243
5.0886e-05
0.00434027
0.000274707
0.000793179
0.0067267
0.00439504
0.00672288
0.00182868
0.00139869
0.00279195
0.00099398
0.00044791
0.00672204
0.00672482
0.00672293
0.00470234
0.000301026
0.00491907
4.71249e-05
0.00672245
0.000676034
0.00301873
0.000289308
0.000674933
0.000383222
0.00100545
5.30736e-05
0.00674233
0.00671831
0.000210841
0.006723
0.00672088
0.000610111
0.000332411
0.00672237
8.66897e-05
0.00672261
0.00541489
0.00672165
0.00614763
0.00728284
0.000467471
0.00118868
0.00247463
0.00961704
4.4785e-05
0.00672251
0.000250833
0.000885037
0.0038924
7.1549e-05
0.0110441
0.000274031
0.000807812
0.000369886
0.000334134
0.00014263
0.00681746
0.00672121
0.00672311
0.00606336
4.69575e-05
0.00204269
0.00227028
0.00505417
0.00236513
0.0127537
0.000429278
0.00153353
7.16231e-05
0.00672071
0.00110968
0.000284373
5.10957e-05
0.00672478
0.000319292
0.000279228
0.000555882
0.00876793
0.00672703
0.00529774
0.00672155
0.000150573
0.00671895
0.00671877
0.00731975
0.000150535
0.00117464
0.00432637
0.00926197
0.000820971
0.00654453
0.00884948
0.00672574
0.00673944
0.000644711
0.00645699
7.60836e-05
0.000895795
0.000295481
0.000337815
0.00596922
0.00238733
0.00525589
0.00389769
0.000978766
0.000109156
0.00828334
0.000438364
0.00040342
0.00579924
0.00672059
0.00673291
0.000246353
0.000110371
0.00672375
0.00672753
0.00672332
0.00671844
0.00671892
0.000374932
0.000157064
0.0111203
0.000526656
0.000351769
0.00208408
0.000401926
0.00890115
0.00285465
0.00157956
0.00671898
0.00463402
0.00879377
0.000229069
0.000388432
0.00473532
0.00263884
0.00177013
0.000672775
0.000857555
0.000122411
0.00674562
0.00054174
0.0101579
0.00672593
0.000506796
0.00269782
0.0131194
0.000370849
0.000484111
0.000571116
9.98172e-05
0.00010415
0.00747956
0.00521581
0.000312674
0.00677993
0.00672519
0.00701885
0.00340364
0.0143459
0.00672311
0.00679565
0.00493267
0.00450883
0.00432087
0.00167878
3.17079e-05
0.00190217
0.00672361
0.0140229
0.00243604
0.000585467
0.00671896
0.00559383
0.00037314
4.07531e-05
0.00672282
0.000394031
0.000203166
0.000773437
4.51772e-05
0.00672555
0.00672473
0.00672212
0.00673063
0.00173931
0.000109523
0.00672192
0.0101973
0.00672895
0.0067231
0.000319647
0.00499621
8.33498e-05
0.00130808
0.00671748
0.00400307
0.000384864
4.11769e-05
0.000118539
0.00271318
0.00190407
0.000453445
0.000399164
0.00484173
0.000296046
0.00969049
0.00671883
0.000261982
0.00565521
0.000323257
0.000389441
0.0133622
0.000479258
0.00252732
0.00264491
0.000599122
0.000911424
0.000131863
0.00481442
0.000320291
0.00674618
0.00380494
0.000625965
0.00155845
0.00026808
0.00671962
0.000360981
0.00344175
7.68937e-05
0.00493681
0.00629458
0.00703347
0.00674742
0.000156367
0.000285702
0.00535828
0.00507207
0.00493062
0.0067184
0.00266437
0.00352958
0.0140584
0.000512601
0.00672534
0.0127892
0.00672241
0.00277177
0.00674199
0.000936313
0.000122269
8.78032e-05
0.000663483
0.00459301
0.00672293
0.00672672
0.000372669
0.000113699
0.00672227
0.000778633
0.00394885
0.0141921
0.000962461
0.00854157
0.00885029
0.00459651
0.00315596
0.00671897
0.000406443
0.00672147
0.0025193
0.00413824
0.000348377
0.00481221
0.000384078
0.000279991
0.00941156
3.28927e-05
7.14801e-05
0.00873098
0.00672065
0.000216583
0.00194781
0.00672174
0.000600157
0.00807782
0.000304552
0.00655165
0.00952492
8.8135e-05
0.00124047
0.00111282
0.000938362
7.61484e-05
0.00157289
0.00458848
0.00672055
0.00553685
0.000291065
3.46313e-05
0.000295951
0.00671947
0.00327697
0.000266345
0.00671494
0.00157497
0.000483417
0.0016092
0.00672425
0.00672586
0.000217384
0.00672027
0.000271821
0.00201621
0.00671978
0.00672025
0.000815385
0.00671817
0.000155014
0.00207441
0.000140005
3.91404e-05
0.00463102
0.000815407
0.00126989
0.000120093
0.000900437
0.00103603
5.99712e-05
3.05053e-05
0.000417494
0.00621455
6.43855e-05
0.00276435
0.000307103
0.00659615
0.000528365
0.00671755
0.00672298
4.71124e-05
0.00354526
0.010395
3.06187e-05
0.000960296
0.00943469
0.00152305
0.000289901
0.0044971
0.00348299
0.00672211
0.00672195
0.00671933
0.00199553
0.000310616
0.00156126
0.000309212
0.000407704
0.000417028
0.00302454
0.00198903
0.000317627
0.00672162
0.00672054
0.0015048
0.00280537
2.51908e-05
0.0067209
0.0067205
0.00672575
0.000128086
0.000272814
0.000524541
0.00262369
0.00205726
0.0144725
0.00930389
3.98953e-05
0.000385969
0.000530349
0.00248339
0.0146275
0.000314536
0.00268928
0.000100913
0.0067308
0.000423143
0.000582125
0.00255722
0.00671766
5.75355e-05
0.000561629
0.00837184
0.000324162
0.000343344
0.00242804
0.00130808
0.0046047
0.000416736
0.00192885
0.000384186
5.47931e-05
0.00632547
0.0107369
0.00283378
0.00672023
0.000981746
0.00218222
0.000246645
0.00541701
0.000517672
0.00672035
4.31952e-05
0.000246002
0.00102517
0.00265707
0.00368366
0.00253852
0.00672466
0.000409308
5.31533e-05
0.0143993
0.000470558
0.00672574
0.0143934
9.43836e-05
0.00523155
0.000171839
0.00635703
0.00150328
0.00672048
0.000232758
0.00102305
0.000410563
0.00045878
0.00674004
0.00485996
0.00672511
0.001565
0.00157863
0.00135789
0.00671726
0.00351427
0.00092982
0.00672602
0.000959779
0.00672333
0.00120776
4.31875e-05
0.00243347
0.00147429
0.000852929
0.0127892
0.00671851
0.006723
0.000444241
0.000409061
0.00339943
0.000464832
0.00293023
0.00118633
0.0102387
0.00261468
0.00515665
0.00191049
0.000175584
0.00672069
0.00240053
0.00736394
0.00788652
0.00206399
0.00125173
0.00673726
4.3105e-05
0.000406663
2.93433e-05
0.00672509
0.00013031
0.00160757
0.000570518
0.00192469
0.00148986
0.00211815
0.00948491
0.00159097
0.00673875
0.00739075
4.24337e-05
0.00672153
0.00672229
3.09535e-05
0.00175329
0.000301082
3.93983e-05
0.00672207
0.00176618
0.00339172
0.000556009
0.00281084
0.00671443
0.00036714
0.00172914
0.000339856
0.00672761
0.00297021
0.00352886
0.00340027
0.00672225
0.000270224
0.00591624
0.000644287
0.0090404
0.00658846
0.00321037
0.00659848
0.000123441
0.000619808
0.00263071
0.000704728
0.00087925
0.00671831
0.000935808
0.00802652
0.00013722
0.00437757
0.00330967
0.00542829
0.00271749
0.0106547
0.00673969
0.00286187
0.00672032
0.000743139
0.00543839
0.000758052
0.000247765
0.00672263
0.000117694
0.00182375
0.000282122
0.000776784
0.00206873
0.000323252
0.0140654
0.000321981
0.00676661
0.000291832
0.000927817
0.000188799
0.000656547
0.00499678
0.000493142
0.000441083
3.76494e-05
0.000184582
0.00212798
0.00271489
0.00808992
0.00229393
0.00684987
0.000311401
0.000150553
0.0145367
0.00165173
0.00515735
3.63368e-05
0.000306248
3.702e-05
0.000159031
0.000938361
0.0067228
0.0028919
0.000132433
0.00477104
0.00012291
0.000483844
3.61948e-05
0.00853259
0.00672191
0.000412571
0.00171865
0.000354118
0.000269118
0.00672377
0.000336011
0.000564466
0.000917371
0.00672355
0.0017442
0.000381166
0.00488223
0.00145212
0.00890169
0.00672543
0.00672069
0.00118535
7.72719e-05
0.00339392
0.00672294
0.00150514
0.000914311
0.000749222
0.00452109
0.00672383
0.00485321
5.06243e-05
0.00672315
0.00672272
0.000371189
0.0148489
0.00500709
0.00672563
0.000720932
0.00149667
8.57465e-05
0.00264359
0.00532111
0.00671834
0.001333
0.000915438
0.0147039
0.00193617
3.97636e-05
0.000793997
0.0105839
0.00606379
0.00236934
0.00743196
0.00097883
0.00468259
0.00673544
0.000191128
0.0067301
0.00519217
0.00679804
5.07525e-05
0.00488688
0.00393177
0.000850965
0.0118171
0.0046697
0.0121227
0.00365281
0.000690244
0.00672472
0.00131357
0.000166241
0.000376649
0.00235554
0.00672137
0.000941801
0.0121417
0.00672036
0.000821527
0.0067238
0.000375835
0.00308804
3.55425e-05
6.05921e-05
0.000444779
0.000304232
0.0027932
0.00945371
0.00120058
0.0067182
0.013656
0.00936184
0.00525176
0.00673383
0.000427425
0.00071028
0.000430012
0.00671933
0.00498461
0.000231997
0.000378872
0.00674379
0.00671905
0.00185819
0.00311859
0.00212794
0.00222539
0.000530787
0.00378484
0.000189422
0.00199017
0.0037242
3.86809e-05
0.00671984
0.000656929
0.000211539
0.00105284
0.000306702
0.00516836
0.000861822
0.00833702
0.00316519
0.00671923
0.000260373
0.00672064
0.0138611
0.00672259
0.0123394
0.00481485
0.00487745
0.00597685
0.000762628
0.00695802
0.00585325
0.000681641
0.00114579
0.00018219
0.00672088
0.000268962
0.00671886
0.0109652
0.000400155
0.0104255
0.00673247
0.00672605
0.000520665
0.00232338
0.000284768
0.00616602
6.39458e-05
0.000935849
0.00435169
0.00645043
0.0028429
0.00672275
0.0025615
0.00238145
0.00953151
0.000386103
0.00671905
0.00660244
9.87441e-05
3.03811e-05
0.00679266
0.000278571
4.45728e-05
0.00445735
0.00118876
0.00244321
0.00672305
0.00671973
0.00385163
0.000655207
0.00134651
0.0112571
4.1806e-05
5.32354e-05
0.00672589
0.00672291
0.00756391
0.00137615
0.00672277
0.00256558
0.00385402
0.0139159
0.00365372
0.00968048
0.000233769
3.31906e-05
0.00672588
0.0103625
0.00671769
0.00330026
0.00672175
0.00671814
0.000917479
0.00534047
0.00672269
0.0122553
0.000282257
4.18504e-05
0.00504033
0.00672184
0.00327979
0.00530083
0.000122486
6.04897e-05
0.00672822
0.000466305
0.00221916
0.0136754
0.00689456
0.00889969
0.00672863
0.0128258
0.00337898
0.00949408
3.4745e-05
0.000519784
0.000162945
0.00539875
0.000359555
0.0131555
0.00143257
0.0096638
0.00671771
0.00672341
0.000131496
0.0049066
0.000251088
0.000451088
0.00671978
0.00697151
0.000846836
0.000116869
0.00671937
0.000386383
3.83132e-05
0.00672355
0.000812799
0.000543527
0.000411729
0.00676297
0.00672034
0.0106957
0.00776387
0.000926672
0.00685304
0.000202146
0.00672304
0.00664317
0.00311178
0.00672228
0.000358187
0.00672499
0.00673205
0.000687269
0.00989257
0.00196378
0.0037483
0.00118866
0.00527953
0.00292873
0.00299445
0.000561207
0.00671838
4.26243e-05
0.00672409
0.00314373
0.00674561
0.000101472
0.00494573
0.00040013
3.89941e-05
0.0140461
0.000115412
0.0054522
0.00139345
0.00903694
0.00893076
0.0089043
0.006721
0.00246216
0.00665025
0.00441298
0.000361826
0.00160751
0.00672153
0.00398071
0.000420338
0.00476195
0.00357456
0.000442493
0.00672491
0.00349868
0.00136453
0.00678796
0.00397839
0.00672473
0.000398552
0.00673835
0.00080732
0.00664984
0.000115805
0.000300678
0.00828319
0.00671889
0.00597617
0.0143723
0.00377737
0.00672516
0.000638447
0.000736518
0.00163884
0.00113825
0.00805263
0.013947
0.000298518
0.00581901
0.00128343
0.000393704
0.00671838
0.00671914
0.00132393
0.00672024
0.000251066
0.00377189
0.0084217
0.00672163
0.00122743
0.00280905
0.00147069
0.00977575
0.000152882
0.000139395
0.0026243
0.000145359
0.011057
0.000435186
0.00995389
0.000646594
0.00283628
0.0135263
0.0080846
0.00129372
0.006724
0.00140646
0.000430671
0.00033445
0.00673802
0.00290566
0.0067249
0.00671913
0.00672338
0.0099204
0.00100515
0.00671987
0.00242477
0.00672189
0.00642227
0.000534139
0.0066619
0.000312543
0.00671966
0.0143854
4.56056e-05
3.39364e-05
0.00131108
0.00128163
0.00672183
0.00104941
0.00270687
0.000381427
0.000239655
0.00248309
0.00672025
4.64848e-05
0.00157537
0.00672278
0.000415336
0.00672256
0.0108466
0.00671997
0.00453651
0.00290123
0.00093789
0.00671997
0.00325944
0.00672089
0.00678182
2.14878e-05
0.000862262
0.00119488
0.000279714
3.57177e-05
0.0135803
0.000346361
0.000901222
0.00205559
0.00947926
0.00793205
0.00685616
0.00129039
0.00673184
0.00509366
0.00118244
0.00675797
6.62208e-05
0.00144045
0.00302736
0.00264798
0.00672222
0.00510678
0.00477089
0.00672459
2.85628e-05
0.00714799
0.00867897
0.000177338
0.00074355
2.8901e-05
0.000955255
0.00489348
0.0062729
0.0010941
0.00672229
0.00679088
4.04137e-05
0.000800622
0.000112259
0.000247235
0.00924697
0.00672171
0.00661678
0.0100683
0.00671871
0.000434553
0.000300408
0.00283812
0.00134821
0.00770843
0.00672542
0.00112524
0.00427969
4.35006e-05
3.92319e-05
0.00209459
0.000895989
0.000377218
0.0116465
0.00671834
8.1898e-05
0.00893337
0.00671963
0.0008642
0.00653058
0.00048213
0.00259725
0.00458299
0.000252431
0.00316204
0.00221954
0.00154509
0.00755751
0.000551936
0.00236418
0.00205812
0.00359524
0.00616377
0.00221144
0.000143075
3.6352e-05
0.00163005
6.84966e-05
0.000108053
0.00672292
0.000432076
0.0034007
0.00672922
0.00187889
0.00672404
0.00212564
0.012895
0.000330623
0.00672646
0.00355875
0.00534182
5.40374e-05
0.00203033
0.000869879
0.00216019
0.00729773
0.00189156
0.000709782
0.000312039
0.000153123
0.00486176
0.00675208
0.00672192
0.000113634
0.00779408
0.0130489
0.010442
0.00671765
0.000527484
0.000284118
7.4297e-05
0.00832184
0.0067223
0.00668893
0.00192829
0.00263689
0.0067597
0.00724368
0.00124233
0.00394609
0.00461363
0.000399141
0.0105235
0.000104643
0.00671886
6.52007e-05
0.00212461
0.00370777
0.00115365
0.00163164
0.00671921
0.00245841
0.000863918
0.00672617
0.000980688
0.00672324
0.000494116
0.00672563
0.0133347
0.00672441
0.00912055
0.00673483
0.0003809
0.00542223
0.00106702
0.00146071
0.00672192
0.000714577
0.00255942
0.00672391
0.00480511
3.37573e-05
0.000101021
0.00673915
0.000710499
0.00570128
0.00864067
0.000934596
0.00023641
0.000310129
0.00488277
0.000593695
0.00317557
0.00122028
0.000120007
0.00672227
0.000221177
0.00603008
0.00672222
0.0124123
0.000512831
0.0063246
0.00672831
0.0023719
0.00672736
0.0142144
5.49762e-05
0.00672565
0.00552551
0.000317337
0.00644231
0.0018252
0.000688018
0.00672207
0.000390434
0.00562556
0.00672247
0.000336815
0.00282223
0.000492506
3.86906e-05
0.00710739
0.010087
0.00198101
0.000489403
0.00695409
0.00229641
0.00963233
0.00039904
0.00116163
0.000306537
0.00056532
0.00672919
0.000143155
0.00672609
0.00662801
0.000756183
0.00497947
0.000626215
2.31121e-05
0.000414384
0.0023012
0.00672122
0.000448372
0.00672236
0.00672396
0.000556043
0.0114827
0.00633067
0.0067131
5.86228e-05
0.00047065
0.0031387
0.00289923
0.000445047
0.00451243
0.000172828
0.00347731
3.37246e-05
0.00520786
0.00672219
0.00672497
2.42141e-05
0.00446182
0.000919705
0.00672224
0.00750205
0.00502579
0.00178936
0.00672508
0.00103456
0.0142483
0.00207686
3.18893e-05
0.000242902
0.00672698
0.00196511
0.00672569
0.00437014
0.00672044
0.00717759
0.0106565
0.0122388
0.000928302
0.00030206
0.00539824
0.00672077
0.00547268
0.00672328
0.00286287
0.00889666
0.000244971
0.00671851
0.00673981
3.21791e-05
5.38535e-05
0.000102976
0.00966829
0.000309154
0.00327781
0.00238726
0.011243
2.38747e-05
0.00171202
3.14768e-05
0.0137321
0.00262606
0.00286064
0.000847047
0.00672543
0.00122196
0.000326598
2.34383e-05
0.00672667
0.000453712
0.00672211
0.000122338
0.0088593
0.00328912
0.00129
0.00732959
0.00874791
0.00328543
0.00891221
0.00431508
0.0023911
0.00672439
0.0139839
0.00672278
0.00245634
0.00672221
0.0029508
0.00672412
0.00372947
0.00309898
0.000404025
0.00673738
0.00932769
0.00355194
0.0067158
0.00673827
0.00018881
9.55123e-05
0.000534445
0.000304468
0.00105546
0.0105157
0.0105905
0.0126578
0.000505136
0.00101801
0.000378607
0.000236109
0.00365822
0.00096839
0.00613936
0.000479088
0.000730987
0.0010485
0.00334326
9.239e-05
0.000322308
0.00672366
0.000694991
0.00440143
0.00672195
0.00051739
2.94218e-05
0.00114641
0.000608004
0.00331986
0.00162011
0.0106184
3.21579e-05
0.00674782
0.000700748
0.0029654
0.000389642
0.00206832
4.14769e-05
0.00421641
0.000456256
0.000331479
0.00870103
0.00131981
0.00798325
0.000495277
0.00500098
0.00672286
0.00671969
0.0095901
0.00572899
0.00622428
0.00986251
0.00924632
0.000230281
0.000402986
0.000852357
0.00739032
0.00432295
0.00672087
0.000670896
0.00033373
0.000184577
0.00493878
0.00116596
3.89181e-05
0.00726015
0.00439532
0.000389007
0.00684989
3.94013e-05
0.000234178
0.0006288
0.00618432
0.00764159
0.00842406
4.15357e-05
0.000753608
0.00487476
0.00279038
0.00135139
0.000313596
0.00414857
0.00652426
0.00283951
0.000118359
0.0067292
0.000359324
0.00061542
0.0114791
0.00672193
0.00141394
0.000259249
0.00561517
0.00672165
0.000831174
0.000192434
0.000596817
0.0012007
0.00672354
0.00325391
0.00595369
0.00672385
0.000321703
0.00941329
0.00266442
0.000291784
0.00300062
0.00184639
0.00672549
0.00904225
0.000489197
2.45347e-05
0.00139582
0.00741598
0.00674354
0.00671579
0.00672604
0.00672069
0.00671974
0.00930149
3.10975e-05
0.0072486
0.00672417
0.00662643
0.00922741
0.00137435
0.00931848
0.000444343
0.00678422
3.60237e-05
0.000298323
0.00094015
0.00591794
0.0017808
0.000540823
3.33187e-05
0.000410775
0.00672253
3.43515e-05
0.00671902
2.84612e-05
0.00256418
0.000330097
0.00673195
0.00380831
3.71227e-05
0.00672547
0.00574064
0.00672261
0.0058365
0.0121745
0.000468288
0.000735684
8.75153e-05
0.000638573
0.00682364
0.00676799
0.00511286
0.000260429
0.000554896
4.17644e-05
3.34215e-05
0.00196597
0.000560131
0.000203554
0.00317432
0.000372252
0.00652107
0.000611862
0.00521788
0.00219802
0.00672466
0.00180797
0.00021479
0.00712002
0.00672137
0.00667991
4.58572e-05
0.00555337
0.00354912
0.00672537
2.75599e-05
0.00975365
0.00339029
0.00672613
3.82593e-05
0.0100403
0.00099287
0.000392989