/*--------------------------------*- C++ -*----------------------------------*\
| =========                 |                                                 |
| \\      /  F ield         | OpenFOAM: The Open Source CFD Toolbox           |
|  \\    /   O peration     | Version:  v2012                                 |
|   \\  /    A nd           | Website:  www.openfoam.com                      |
|    \\/     M anipulation  |                                                 |
\*---------------------------------------------------------------------------*/
FoamFile
{
    version     2.0;
    format      ascii;
    class       volScalarField;
    location    "750";
    object      k_0;
}
// * * * * * * * * * * * * * * * * * * * * * * * * * * * * * * * * * * * * * //

dimensions      [0 2 -2 0 0 0 0];


internalField   nonuniform List<scalar> 
18758
(
0.000181491
0.00383198
0.00014852
0.000181462
0.000162692
0.000139063
0.000143505
0.000152705
0.000161003
0.000159053
0.00292921
0.00644206
0.000370485
0.000151592
0.000143289
0.000141844
0.00681743
0.000130626
0.000143151
0.000155899
0.00422037
0.000256512
0.000140009
0.000139321
0.00026947
0.000240705
0.0115974
0.000200045
0.000186249
0.00594225
0.000549328
0.0137686
0.000152313
0.000375911
0.000164868
0.00607827
0.000487541
0.000163712
0.000734115
0.000134752
0.00540318
0.000160005
0.00581157
0.000145629
0.000144876
0.000509745
0.000158233
0.000185288
0.0404141
0.00017716
0.00388814
0.0518768
0.000176511
0.000154084
0.000213082
0.000255459
0.000140076
0.000155314
0.000182163
0.000139841
0.000146813
0.000145269
0.0174414
0.0381539
0.000147166
0.00853459
0.000146858
0.000133341
0.000200277
0.000130808
0.0469811
0.000412923
0.000143065
0.000161702
0.000206081
0.000550796
0.0142852
0.007101
0.000160701
0.00560094
0.000192441
0.000660125
0.00684171
0.000182292
0.000150689
0.000205083
0.000155634
0.000162998
0.0141245
0.000204349
0.0313512
0.000153061
0.000183733
0.0403157
0.00014294
0.000139005
0.000132378
0.000175924
0.0078113
0.00014234
0.000507157
0.000165497
0.000133268
0.000138974
0.00702757
0.00436794
0.000185942
0.0326742
0.0139595
0.00223785
0.000142025
0.032813
0.000169163
0.000146362
0.000165572
0.0217955
0.000175222
0.000138441
0.0533597
0.000155824
0.000144994
0.013948
0.00015157
0.000138273
0.0299475
0.000154477
0.00014358
0.000138282
0.000209107
0.0270378
0.000182965
0.000153012
0.000160892
0.0381017
0.000135072
0.000145944
0.0132906
0.000150597
0.000223924
0.000191338
0.000176195
0.00457793
0.00017115
0.0138407
0.0294363
0.000175255
0.0130298
0.000202542
0.00299607
0.0443266
0.0266029
0.0301921
0.000146441
0.000166151
0.00566857
0.0159733
0.000183449
0.000211202
0.00018607
0.00400623
0.0119716
0.000139643
0.0357951
0.013128
0.000430302
0.00014043
0.000139532
0.019667
0.0270823
0.00571871
0.0327352
0.00014905
0.00018932
0.00392983
0.011351
0.000142536
0.000142873
0.000282771
0.000333001
0.000149179
0.000132364
0.000154966
0.000211411
0.000150846
0.0242882
0.000143618
0.00621144
0.000170959
0.0405093
0.000368099
0.0303283
0.000143555
0.000183181
0.00178267
0.000131423
0.000150615
0.000324289
0.000146252
0.041019
0.000141085
0.000148985
0.000218805
0.000274226
0.000141788
0.000142065
0.0362924
0.000142571
0.00016698
0.0265877
0.0274468
0.000144511
0.000183997
0.000151502
0.000149115
0.000153742
0.000132588
0.000144517
0.000183528
0.000136373
0.00481034
0.00202557
0.000141673
0.000170641
0.000220532
0.000273092
0.00732554
0.000211359
0.000204179
0.016246
0.000142313
5.0033e-05
0.000175107
0.0118315
0.000148037
0.000140741
0.000142137
0.000206281
0.0388385
0.00216869
0.000149438
0.000142178
0.000201909
0.000205656
0.000146663
0.0373917
0.00131561
0.000140812
0.000138253
0.000143712
0.000142404
0.0335598
0.000144586
0.00647094
0.000142636
0.00014347
0.0208785
0.000140264
0.0040146
0.00014291
0.0064547
0.000171349
0.000138599
0.000140894
0.000182488
0.00280419
0.00179212
0.000138725
0.000214335
0.000146574
0.000146066
0.052374
0.032358
0.000145824
0.000141547
0.000144922
0.000153194
0.000158246
0.000135325
0.000150144
0.000151592
0.000138242
0.000153009
0.0001424
0.019129
0.000143383
0.000141348
0.000130279
0.000201226
0.000138902
0.000138906
0.000147884
0.000149545
0.000139828
0.000142703
0.000145692
0.000149259
0.00726673
0.000157385
0.000140872
0.0294258
0.00015431
0.000142517
0.000142549
0.00268677
0.0017218
0.00013231
0.000231746
0.00474759
0.00014621
0.000238417
0.000142431
0.00219618
0.000240108
0.000185734
0.000185776
0.000510107
0.000132997
0.0054407
0.000234119
0.000146792
0.000184187
0.000183507
0.0453491
0.000140728
0.000133067
0.0271972
0.00478849
0.000139617
0.0315473
0.000194066
0.000188212
0.0444265
0.00014066
0.000140702
0.000142695
0.000146013
0.00014907
0.000154604
0.000152806
0.000143036
0.000148887
0.000149354
0.0269909
0.00216755
0.000149299
0.00390528
0.00768542
0.000139433
0.000163531
0.00215199
0.000264371
0.00520654
0.000410751
0.000143599
0.0336251
0.00237309
0.000173043
0.000149318
0.000183571
0.000149816
0.00014479
0.000571431
0.00753715
0.00560841
0.000224574
0.00660264
0.000140816
0.000156689
0.000155807
0.000175724
0.0393402
0.0150719
0.00907055
0.000224364
0.00504703
0.00068164
0.000143926
0.00322816
0.000204715
0.00247707
0.00580144
0.000142377
0.000139108
0.000257441
0.00550229
0.00294626
0.0522701
0.0306974
0.000149575
0.00634698
0.00197766
0.000141927
0.000151435
0.000153164
0.000152005
0.000145418
0.000150555
0.000144153
0.000156112
0.000146764
0.000144003
0.00016626
0.000577115
0.000159294
0.000372626
0.000468964
0.0283166
0.000505415
0.000201852
0.000147061
0.000139775
0.00585164
0.000151448
0.000149598
0.0170981
0.000175149
0.00362308
0.000140491
0.0265443
0.000144423
0.000154483
0.000131917
0.0403515
0.00332077
0.00496018
0.000145305
0.0466948
0.00018324
0.000144128
0.000151314
0.000144797
0.00951282
0.000145457
0.000142307
0.000432009
0.000159556
0.000149704
0.000142744
0.000152495
0.000156487
0.023951
0.00608765
0.000147768
0.00444947
0.000131846
0.000157075
0.000202692
0.00014366
0.000556256
0.000147552
0.000156961
0.000147973
0.00463209
0.000152804
0.000144099
0.0365313
0.00198228
0.000130333
0.000156682
0.000156254
0.00014181
0.000143962
0.000150889
0.000703902
0.0323951
0.000147496
0.00016473
0.00905435
0.000271516
0.00695569
0.000620205
0.00648237
0.000137732
0.000198864
0.000196729
0.000165919
0.000152201
0.00456667
0.00141276
0.000172561
0.000140202
0.000143529
0.00013896
0.000143642
0.000138924
0.000143761
0.000243725
0.000149533
0.000131485
0.0001828
0.000152077
0.000148173
0.000134501
0.000155257
0.00128895
0.0041845
0.000142778
0.00374712
0.000141471
0.0001595
0.000208918
0.0327462
0.000226616
0.000142979
0.00014367
0.0328294
0.0414879
0.000369989
0.000140309
0.0120782
0.0184385
0.000130257
0.000140283
0.00910572
0.000153989
0.000192598
0.000344862
0.000153764
0.000164697
0.000138339
0.00014197
0.000152448
0.000142476
0.000142039
0.000146883
0.00706166
0.000132176
0.00438136
0.0116583
0.000130327
0.000132183
0.000150602
0.000157221
0.000163464
0.00777683
0.000142394
0.000347987
0.000163616
0.00016597
0.000141273
0.00014296
0.000144696
0.000147738
0.000147603
0.0301254
0.0236192
0.000138176
0.000141796
0.000149335
0.0212366
0.000132044
0.000132869
0.000144002
0.000131564
0.000140942
0.000141051
0.000151759
0.000141804
0.000183041
0.000142311
0.00013572
0.000207038
0.0329223
0.000164457
0.000143801
0.000142571
0.000149009
0.000142549
0.000152919
0.00388096
0.00421575
0.000149364
0.00369281
0.000142436
0.000164337
0.000144142
0.000141247
0.000175401
0.000130819
0.000142826
0.0101014
0.000147964
0.000150786
0.000224542
0.000143934
0.000143369
0.0401907
0.000138264
0.000260356
0.000736163
0.000143479
0.000148276
0.000180073
0.000153764
0.000163482
0.000142318
0.0038886
0.00340375
0.00593588
0.000138516
0.0291425
0.000131331
0.00014483
0.000142295
0.000172333
0.000380813
0.000212191
0.000144323
0.00015061
0.000154328
0.026605
0.00989663
0.000141193
0.000245673
0.000154634
0.0375426
0.000160457
0.000238179
0.000139626
0.000170198
0.000174973
0.000143298
0.000139691
0.000132097
0.000139021
0.000158644
0.00111499
0.0063211
0.0121703
0.000223391
0.000157778
0.000142395
0.000137854
0.00401616
0.000262614
0.000134933
0.000170721
0.0295173
0.0299866
0.000146037
0.0001446
0.000184948
0.00760925
0.000131235
0.00191055
0.000143877
0.000154854
0.000160989
0.0001449
0.000147624
0.000147491
0.000138526
0.000149461
0.00171136
0.000175189
0.00371511
0.000148584
0.00014117
0.0446519
0.000133099
0.0541918
0.00610522
0.000144075
0.0152306
0.000153203
0.000144347
0.0137043
0.00439273
0.00428169
0.00182692
0.000153246
0.0150283
0.000132251
0.0010696
0.0284675
0.000170155
0.000143187
0.00515927
0.000154274
0.000203892
0.0117242
0.0388609
0.000145969
0.00816173
0.000141498
0.000171367
0.000188344
0.000141167
0.000161595
0.0144369
0.000259288
0.000160324
0.000152176
0.000131498
0.000149304
0.000151213
0.000169661
0.000212758
0.000141743
0.0378526
0.000157014
0.000145996
0.000156958
0.000131851
0.000284974
0.00014231
0.000139077
0.0306563
0.000138033
0.000150925
0.00501212
0.000183697
0.000185127
0.000143786
0.000145699
0.000175768
0.000145393
0.00756022
0.000153909
0.000154517
0.000150625
0.000145842
0.000131357
0.0166586
0.000131852
0.0209447
0.000230527
0.000149413
0.0396369
0.000139688
0.000177174
0.000159634
0.00301978
0.000153554
0.00396781
0.00636498
0.000144781
0.00493762
0.000135748
0.0116744
0.000145605
0.00014842
0.044114
0.00560387
0.000142163
0.000146909
0.000152612
0.000137989
0.000143721
0.00506151
0.0329
0.000141382
0.000137861
0.000135845
0.0242843
0.000212469
0.000381374
0.000138469
0.000369497
0.000148408
0.000145914
0.000159757
0.00755169
0.000141206
0.000171249
0.0116148
0.000142243
0.00153728
0.000144192
0.000160798
0.000141209
0.000138657
0.000156901
0.000146267
0.000175643
0.000143542
0.0315922
0.000146199
0.000154187
0.000184847
0.000251601
0.000170823
0.000140708
0.000145736
0.00612639
0.000720632
0.000197417
0.000139579
0.000142351
0.000161735
0.0299592
0.00561717
0.000141075
0.000142097
0.000149976
0.000146649
0.000148755
0.000142519
0.000144768
0.0064333
0.000142278
0.000143453
0.00627111
0.000138455
0.00190035
0.000194709
0.0269809
0.0519003
0.00473941
0.0325736
0.00014256
0.000142477
0.000153388
0.00014117
0.000141262
0.000139083
0.000140987
0.000149095
0.0403754
0.000208324
0.0109039
0.000147021
0.000141941
0.000163948
0.000165941
0.000178981
0.000146249
0.000148905
0.000138433
0.0385911
0.000188817
0.00906359
0.000147814
0.000188227
0.00020384
0.00144475
0.0304494
0.00914776
0.000151192
0.000148521
0.000136221
0.0002948
0.000146907
0.000132869
0.000180753
0.008848
0.000142252
0.00615987
0.00339566
0.000142493
0.000142225
0.000142579
0.000144097
0.000143436
0.000154291
0.000161395
0.000143464
0.000147023
0.00830691
0.0372818
0.000143055
0.00452276
0.000249019
0.00014918
0.00014471
0.000141493
0.000137486
0.000152169
0.000149059
0.000144544
0.000147761
0.000153449
0.000146788
0.0433366
0.000158602
0.000143483
0.000144137
0.00120059
0.000146149
0.000132834
0.000595841
0.000141338
0.000163976
0.000156915
0.000143482
0.000139425
0.000137982
0.000156615
0.000169084
0.000144684
0.00447501
0.000179537
0.000196957
0.0103665
0.000149696
0.000219074
0.000132254
0.0113984
0.000149581
0.000143283
0.000215187
0.0329797
0.000147667
0.00702443
0.000873264
0.000138566
0.000160223
0.000132897
0.00014932
0.00015918
0.000150209
0.000142894
0.000465685
0.000141036
0.00014147
0.00739051
0.000141794
0.000141263
0.000139432
0.0347138
0.00014435
0.000144273
0.00016121
0.000284013
0.00466457
0.00982941
0.00759906
0.000142164
0.000131684
0.00014355
0.0350916
0.000149764
0.000140951
0.000152994
0.000138043
0.011473
0.000147178
0.000145886
0.000379552
0.000142204
0.000183477
0.000511077
0.000131659
0.00014337
0.0127765
0.000152915
0.0276824
0.00145246
0.00013781
0.00014438
0.000339716
0.000138603
0.000153057
0.00345757
0.000135737
0.00762041
0.000142495
0.000143769
0.000143309
0.000165327
0.000150455
0.00756734
0.00015417
0.000140797
0.00671881
0.00648679
0.000169453
0.000172149
0.000400761
0.0346202
0.000292201
0.000131262
0.0338284
0.000147725
0.0111904
0.0103781
0.000141292
0.000163543
0.000147348
0.00771233
0.000139607
0.00188796
0.000141807
0.000394847
0.000208449
0.000140142
0.000131501
0.000142596
0.00963157
0.0114295
0.000144
0.00548851
0.000146178
0.00014121
0.00799287
0.000143167
0.00026003
0.000139892
0.000153603
0.000140585
0.000139953
0.000140867
0.000139676
0.000191255
0.000178791
0.000169041
0.000163308
0.000148282
0.000142781
0.0052173
0.000142663
0.0084051
0.00014547
0.00683417
0.000157219
0.00477033
0.000140054
0.000141328
0.00014106
0.0470259
0.000143374
0.00521089
0.000194552
0.000143566
0.000156536
0.000142624
0.000138126
0.00015324
0.00014135
0.00573926
0.000144147
0.000151568
0.000143678
0.000151776
0.000806952
0.00563587
0.00014553
0.000139498
0.000145256
0.000147925
0.000141911
0.000154206
0.00014872
0.000142505
0.000137897
0.000139498
0.000226203
0.000191523
0.000146436
0.000137977
0.000246949
0.000151145
0.00512633
0.000652741
0.000148663
0.035766
0.000152513
0.000140022
0.000143182
0.000153889
0.000201654
0.000138756
0.000163508
0.00251969
0.000196312
0.000244318
0.0266339
0.0301263
0.000165582
0.000146011
0.000144454
0.00379232
0.000137852
0.000146805
0.0001609
0.000620635
0.000144217
0.000140306
0.0325893
0.00015322
0.000149837
0.000148477
0.00015365
0.000197782
0.000144471
0.000153891
0.000143894
0.000166237
0.000152159
0.000147846
0.000147366
0.00407936
0.000147721
0.000142828
0.00393625
0.000131532
0.000143346
0.000145676
0.000150207
0.000147007
0.00556926
0.000200764
0.00439917
0.00680129
0.0219431
0.00512246
0.000148463
0.036453
0.00392542
0.000145272
0.000149307
0.000147518
0.000144508
0.000150489
0.00015063
0.000213682
0.000212136
0.000147043
0.000135483
0.0001838
0.000151952
0.00576123
0.000143181
0.000148948
0.000142089
0.00606495
0.00780102
0.000161011
0.0311701
0.000142304
0.000142194
0.000181962
0.000167195
0.000141852
0.000207438
0.000148071
0.000162711
0.00778702
0.000191593
0.000165265
0.000146601
0.000147793
0.000148879
0.000138801
0.0034348
0.000190662
0.0440399
0.00352776
0.0369646
0.000147965
0.0360682
0.0289375
0.0271882
0.000202274
0.00725467
0.000157798
0.00450365
0.000197699
0.000169018
0.00013059
0.000142563
0.000145761
0.000180962
0.000139501
0.000144915
0.000429457
0.00564802
0.00298529
0.00412783
0.00018884
0.00556589
0.000170521
0.000152513
0.000142873
0.00938609
0.000446715
0.000140079
0.00016178
0.000564672
0.0348814
0.0295127
0.000167108
0.000185658
0.000131753
0.0279938
0.000147711
0.00273505
0.00297377
0.000165639
0.000207578
0.000199939
0.000144286
0.000143185
0.00463837
0.00403413
0.000226374
0.000147815
0.000144693
0.000153806
0.00366045
0.000163731
0.00353751
0.000148532
0.00554238
0.00323555
0.00015817
0.0129128
0.000206697
0.0295032
0.000131756
0.000171454
0.0273537
0.000159659
0.000141939
0.00201078
0.00435214
0.000142319
0.000142612
0.0061769
0.000152179
0.000150116
0.0126192
0.00559659
0.000145235
0.000159959
0.00132986
0.000161295
0.000153496
0.000153126
0.00574581
0.000158065
0.000140253
0.000141418
0.0105409
0.000139195
0.0537179
0.000136935
0.000138541
0.00442195
0.000146281
0.000142402
0.00053689
0.000131349
0.00015356
0.00013781
0.000142383
0.000144741
0.000191639
0.000144831
0.00290765
0.000213595
0.00615892
0.033224
0.000155518
0.000137774
0.000139201
0.0284406
0.000157743
0.000143593
0.00304525
0.000165944
0.00426211
0.000136209
0.000136758
0.000137789
0.000141068
0.000144082
0.000134121
0.000149964
0.000150103
0.000143187
0.00308845
0.00017411
0.00394976
0.000149521
0.000137924
0.000160103
0.00280979
0.0311613
0.00820521
0.0276417
0.00505478
0.00021127
0.0298656
0.000150755
0.000174838
0.000170887
0.0338505
0.000141204
0.00571463
0.00276069
0.00023461
0.000142641
0.00713846
0.000141734
0.00014258
0.000143603
0.000161199
0.0318337
0.0410172
0.000145808
0.000131022
0.000139215
0.000134827
0.000178157
0.000143413
0.0302997
0.000177861
0.000194479
0.000148368
0.000142344
0.000133701
0.0333369
0.000250126
0.000143953
0.000141873
0.011892
0.000134709
0.000143517
0.000136005
0.000143912
0.000144583
0.00014584
0.00013786
0.00383272
0.000152424
0.00288616
0.000163558
0.000146852
0.000242515
0.000146503
0.000302078
0.000146952
0.00017549
0.000622951
0.00334565
0.000172804
0.000195215
0.0306137
0.00015193
0.000170167
0.00015251
0.000142345
0.000138741
0.000140511
0.000236242
0.000169932
0.000154233
0.000236243
0.00013849
0.000145286
0.000167153
0.0021724
0.00013123
0.000170585
0.000272356
0.000202957
0.000286992
0.000149735
0.000146622
0.0289211
0.000174813
0.000139819
0.000142307
0.000204724
0.000137584
0.000138426
0.0316607
0.000176922
0.000149494
0.000149921
0.000145946
0.0365172
0.000153579
0.0284305
0.021869
0.000142774
0.000141836
0.011971
0.00016658
0.000163592
0.000150621
0.000179038
0.00016125
0.000139583
0.0001551
0.000218404
0.000172431
0.0262972
0.00688333
0.000164693
0.00428028
0.00910462
0.000140834
0.00772589
0.00572409
0.00015587
0.0182159
0.000146566
0.000230779
0.000186026
0.00511839
0.000172475
0.000325711
0.000166267
0.00503454
0.000141837
0.000132918
0.0327564
0.000152698
0.000142255
0.000142182
0.000147834
0.000134363
0.000149582
0.000141334
0.000142465
0.0313742
0.0140285
0.000142509
0.000146985
0.00433469
0.00476845
0.000131555
0.000256108
0.000221239
0.000171424
0.000145494
0.000140798
0.0329898
0.000148104
0.000176755
0.000188646
0.000138541
0.000159927
0.0355776
0.000142858
0.004421
0.0139751
0.0271263
0.000149302
0.000142818
0.000143258
0.00014502
0.000142278
0.00329717
0.000345157
0.000137825
0.00545508
0.000269803
0.000150234
0.000146024
0.00014222
0.00714783
0.0303041
0.000207969
0.00021155
0.000152394
0.0362659
0.00436748
0.000138789
0.000142469
0.000157585
0.000164971
0.0387585
0.00369698
0.000140649
0.0121281
0.00416005
0.000151711
0.000139895
0.000146075
0.000154344
0.000141832
0.000149825
0.000138365
0.000309308
0.00346851
0.000144744
0.000146758
0.000163444
0.000138601
0.0001426
0.000147605
0.00631333
0.000137943
0.000152403
0.0327826
0.000244486
0.000248879
0.000189622
0.000148085
0.000146323
0.000149276
0.000137664
0.000141336
0.000148851
0.00634422
0.000186539
0.00015059
0.000191134
0.000138351
0.0111698
0.000227378
0.000143522
0.0482195
0.000140493
0.000151589
0.000226819
0.0271341
0.000152591
0.000153959
0.000153259
0.000249217
0.000131919
0.013273
0.000788067
0.00013817
0.000185442
0.00721453
0.000144904
0.000151245
0.00732463
0.000181992
0.000147051
0.00342327
0.000154755
0.000142442
0.00354253
0.000248471
0.00369489
0.000141058
0.013294
0.000172557
0.000133457
0.000175692
0.000161671
0.000146433
0.000203622
0.00233345
0.00560461
0.00017945
0.000211917
0.000138032
0.00045784
0.00383055
0.000255919
0.0180503
0.000144981
0.00635253
0.000145059
0.000141827
0.000171451
0.000149928
0.00067466
0.00520913
0.000146921
0.0162916
0.000408258
0.0342587
0.000159859
0.000179145
0.000131252
0.000147838
0.000153268
0.000131073
0.00426715
0.000262176
0.0295999
0.00604219
0.000216722
0.00618082
0.0255734
0.000144126
0.000152192
0.0126956
0.000177733
0.000145165
0.000142167
0.000328568
0.000231009
0.000160013
0.000142845
0.000146268
0.000213521
0.000142402
0.000212021
0.00439872
0.000134136
0.0343702
0.000136935
0.0226636
0.000319646
0.0507995
0.000148833
0.0040363
0.00014568
0.000142683
0.000150659
0.0322221
0.000169072
0.00469706
0.000146924
0.000142397
0.000245555
0.000631554
0.000146857
0.000206208
0.0093857
0.000699029
0.0125353
0.000140192
0.000145374
0.00294944
0.000131192
0.000137561
0.000156009
0.000143722
0.000146957
0.000139937
0.000142008
0.000154565
0.000142056
0.000167628
0.000178567
0.000142374
0.000720356
0.0339049
0.00015813
0.000135603
0.000143137
0.000207006
0.000143587
0.000142784
0.000144725
0.000200807
0.000143573
0.000154752
0.000153623
0.000653621
0.0057066
0.000140848
0.000220815
0.000256336
0.000160051
0.000237786
0.00100997
0.000140693
0.000142683
0.000257476
0.000221577
0.000157946
0.000270584
0.000285022
0.00014311
0.0214335
0.000149061
0.000189028
0.000287835
0.00915086
0.041271
0.000152691
0.000141304
0.0176592
0.000151055
0.0046525
0.000168075
0.00367764
0.0234979
0.00014107
0.000169654
0.000141939
0.000430671
0.000187009
0.0421545
0.000141553
0.00014484
0.000214825
0.000147543
0.00777314
0.000140812
0.00580779
4.67997e-05
0.000170867
0.00337115
0.0326745
0.000140629
0.00014069
0.000144191
0.00602311
0.0055066
0.000148669
0.000154645
0.000148592
0.000135683
0.00016363
0.000140911
0.000136792
0.000403959
0.000148139
0.000136571
0.000152524
0.0272554
0.000456703
0.0259708
0.000145858
0.000216638
0.000154428
0.000155872
0.000204626
0.000293991
0.0324355
0.000137939
0.0001854
0.000131556
0.000165462
0.00017293
0.000175404
0.00355519
0.000149294
0.000192052
0.000137434
0.00568814
0.00581055
0.000136853
0.000151466
0.00015139
0.000151844
0.0287532
0.000144529
0.00014479
0.00014912
0.000147526
0.000138998
0.000151543
0.000143214
0.000148221
0.00014341
0.000141647
0.00515564
0.00781547
0.00605186
0.000135382
0.000131865
0.000132668
0.000135795
0.000133003
0.000176693
0.000132651
0.000138084
0.000142901
0.000139821
0.00016069
0.000142623
0.000251284
0.00245729
0.000168857
0.0177985
0.000146124
0.00155327
0.000252712
0.000239685
0.000139768
0.0058189
0.000150183
0.000144324
0.000145109
0.000191003
0.00019443
0.000140374
0.000206355
0.000162722
0.000142651
0.000239488
0.0068062
0.000169204
0.00014062
0.000151802
0.00025591
0.000152849
0.000589234
0.000140459
0.000149576
0.00014462
0.00015437
0.000165538
0.00478855
0.000172187
0.000136995
0.0243471
0.000187044
0.000204793
0.00014121
0.000157336
0.0294458
0.000140824
0.000148014
0.000163648
0.00505825
0.000134107
0.000142517
0.000138275
0.000171207
0.000145213
0.00442377
0.000145182
0.00015592
0.000160989
0.0326729
0.000138697
0.000136908
0.00013168
0.000162561
0.000135556
0.0324726
0.000733525
0.000169555
0.00508913
0.000142963
0.0242317
0.00014538
0.000137808
0.000216381
0.00018812
0.000243355
0.00337895
0.0447357
0.000273611
0.00017428
0.000165062
0.000150632
0.00495407
0.000144882
0.000148378
0.000230971
0.000147681
0.00613271
0.00644314
0.00552772
0.00406069
0.0039931
0.000283015
0.00476066
0.000189862
0.000149462
0.000192144
0.000144535
0.000137164
0.000141525
0.0548465
0.044342
0.00577755
0.000158511
0.000155472
0.00520216
0.000140526
0.000206724
0.000136685
0.000167939
0.000142229
0.000133001
0.000149605
0.000170332
0.0211634
0.000168407
0.000160244
0.000137879
0.000198209
0.000571325
0.000137514
0.000199645
0.000292456
0.000131146
0.000181657
0.000137688
0.0307995
0.000146781
0.000310411
0.00014882
0.000146087
0.000158919
0.000214216
0.0222935
0.00018098
0.00564739
0.000151168
0.000144777
0.00014504
0.000145029
0.000136867
0.000143294
0.0248857
0.0341665
0.000181754
0.000143665
0.000156727
0.000152819
0.000145997
0.000146779
0.000189912
0.0058924
0.00557995
0.000144188
0.00415617
0.000137694
0.000183378
0.000151234
0.000169367
0.0288277
0.00700522
0.0073431
0.000133184
0.000144385
0.000140514
0.000142444
0.000144573
0.0001421
0.029262
0.00014609
0.000146896
0.000149056
0.000177058
0.000141694
0.0296676
0.0358656
0.00684129
0.000145279
0.0288727
0.000136714
0.00752328
0.000299399
0.00014996
0.00623433
0.000153949
0.000183425
0.000140421
0.000146111
0.000159418
0.00019014
0.000199126
0.0032164
0.000213583
0.000213402
0.000172152
0.000150082
0.000143785
0.00224406
0.000153316
0.00836373
0.00014898
0.0199031
0.00203137
0.00446344
0.000151134
0.0115441
0.000154673
0.000143889
0.000136128
0.000153022
0.000184133
0.00014277
0.00768569
0.000198376
0.00020225
0.000141385
0.000156223
0.0450883
0.00366115
0.00629571
0.000155733
0.000163137
0.0591346
0.0107014
0.00014804
0.000192495
0.00664354
0.000182835
0.000249383
0.00015754
0.000160882
0.000220077
0.000133891
0.00646979
0.000175671
0.000144356
0.00278714
0.00442867
0.000584513
0.000159227
0.000207436
0.000186354
0.000136859
0.000174684
0.000149196
0.000255742
0.000138899
0.002227
0.0335256
0.000265837
0.00460185
0.00020276
0.000581378
0.00015461
0.000275155
0.00549258
0.0497913
0.000150974
0.000149386
0.000141965
0.000156431
0.000134305
0.00014126
0.00053092
0.000141641
0.000138441
0.000167181
0.00014948
0.0001326
0.000192794
0.0163399
0.000183183
0.000146093
0.000144868
0.000160083
0.000151042
0.00014155
0.000140587
0.000136551
0.00829044
0.00015664
0.000287659
0.000161581
0.000143466
0.00013289
0.0286937
0.000230577
0.00955974
0.000167835
0.000147567
0.000166452
0.000140606
0.000158502
0.000303888
0.00053456
0.000184929
0.000152591
0.000137616
0.000162497
0.00734681
0.00419702
0.005466
0.000156167
0.000138159
0.000137944
0.000155314
0.000246674
0.0416958
0.000138239
0.00123424
0.000132874
0.000143854
0.000188776
0.000140234
0.00851133
0.000190193
0.00220188
0.000133301
0.000171018
0.000169515
0.0443089
0.000137959
0.000145742
0.000185099
0.00497649
0.0175992
0.00304223
0.0123276
0.000151726
0.000231181
0.000156651
0.000185888
0.0528884
0.000155271
0.000140894
0.000145665
0.000135311
0.00107285
0.0213175
0.000157117
0.00139432
0.000135983
0.000141027
0.000145874
0.000216454
0.00026917
0.00198786
0.000143662
0.000149197
0.000166417
0.00100271
0.000136595
0.00573289
0.000140232
0.000150004
0.00167439
0.000139897
0.000362441
0.00611183
0.00720591
0.000414589
0.000143929
0.00015321
0.000153477
0.0351688
0.000201386
0.000145249
0.026897
0.00102636
0.000131102
0.000151227
0.000562121
0.000136828
0.0294185
0.00416376
0.0001561
0.000131751
0.00015598
0.000155041
0.0282257
0.000137771
0.000168757
0.000148182
0.00246115
0.0382968
0.000142729
0.000136564
0.000221267
0.000160084
0.000144663
0.000142598
0.000140064
0.000175526
0.000152357
0.000179347
0.000148682
0.000147997
0.000140854
0.00015216
0.000151949
0.000149755
0.00408707
0.00493916
0.00615219
0.000148175
0.000136455
0.0025081
0.000156709
0.000184219
0.000194629
0.000202596
0.00463988
0.00568757
0.000136032
0.00171993
0.000780949
0.000150664
0.000139983
0.000143667
0.000143592
0.0260556
0.00326439
0.000144735
0.0185941
0.0152203
0.0348129
0.000132566
0.00013848
0.00173119
0.00014013
0.000146081
0.000164305
0.00014195
0.00027107
0.00015535
0.0515724
0.00544958
0.000141885
0.000255468
0.000244122
0.0599776
0.0503013
0.000143037
0.000156366
0.000172279
0.000296853
0.0479426
0.00105832
0.00014821
0.000143754
0.000190253
0.000136847
0.0592879
0.00906015
0.000140541
0.000782611
0.000137299
0.0333592
0.000146533
0.00213143
0.000150422
0.0233616
0.0145768
0.0329364
0.0270562
0.000135175
0.00320489
0.0349874
0.000149103
0.0440779
0.000148475
0.000133467
0.0001436
0.000160724
0.000155378
0.00014568
0.000141169
0.000265008
0.000169578
0.000174352
0.0126629
0.00017551
0.000162444
0.000148894
0.000184379
0.000136419
0.000200581
0.000850452
0.000329346
0.00591178
0.00014895
0.000152919
0.000150902
0.000184903
0.000152947
0.000141253
0.0289836
0.0177702
0.0365283
0.000147722
0.000145629
0.000170837
0.000379725
0.000148045
0.000136631
0.000148391
0.000152036
0.000169061
0.000143418
0.00534483
0.000147464
0.0334155
0.000138341
0.00149585
0.0165028
0.000320465
0.00013555
0.000199094
0.000144976
0.000137526
0.00018141
0.01863
0.000141666
0.000149505
0.0332983
0.000144162
0.000175944
0.00337295
0.000161682
0.0042082
0.000145819
0.0154908
0.000160891
0.0595954
0.000136344
0.000140212
0.0218556
0.00013991
0.00440305
0.000156456
0.000164173
0.0261535
0.000151048
0.000143757
0.000149829
0.000141462
0.00038194
0.0358323
0.000137493
0.00413189
0.000206288
0.000514285
0.000143995
0.00611229
0.00409678
0.000160048
0.000160221
0.000144001
0.0230983
0.000133679
0.0301655
0.000136216
0.000139714
0.000154644
0.000145892
0.000138478
0.000218392
0.000153174
0.000141673
0.00325879
0.000138057
0.00018127
0.000156678
0.000876124
0.000204666
0.000140149
0.000171447
0.000141138
0.000140512
0.000155906
0.00885778
0.00347548
0.00345523
0.000285761
0.000136483
0.000143404
0.000144437
0.000140294
0.000135577
0.0597364
0.000133305
0.000153551
0.000233266
0.000149156
0.0154191
0.000144727
0.000136558
0.0416901
0.000309611
0.00014612
0.000174971
0.00016482
0.00652503
0.000141527
0.00015257
0.00033095
0.000146286
0.00241673
0.000221204
0.000149538
0.000150361
0.000295754
0.000156651
0.000175547
0.000257005
0.000552018
0.000154208
0.000151209
0.000172986
0.000298443
0.000149264
0.00976968
0.00736837
0.000441292
0.0328468
0.000139067
0.000144213
0.000142228
0.00433237
0.00483574
0.04365
0.0308088
0.00013542
0.00028854
0.000139344
0.0227157
0.000143264
0.000171252
0.000198401
0.000147477
0.000149819
0.000204581
0.000157027
0.000148272
0.00014895
0.000186443
0.000153482
0.000140713
0.000301116
0.000148777
0.00014854
0.000143278
0.00503674
0.000181948
0.00492169
0.000163637
0.00015282
0.0330303
0.000157789
0.000195577
0.000137321
0.000142293
0.0154869
0.0304892
0.0083971
0.000146232
0.000155984
0.0127501
0.000195791
0.000193294
0.00321919
0.000311966
0.000302967
0.000136354
0.00230886
0.000140362
0.000181841
0.00189777
0.000201019
0.000201126
0.000151438
0.0422641
0.000180938
0.00416184
0.000312369
0.000141661
0.00014334
0.000144329
0.0017128
0.000137324
0.00334339
0.000183028
0.00769902
0.000135651
0.0319237
0.012503
0.00546972
0.00446548
0.00015042
0.000147289
0.000142209
0.000157051
0.000144339
0.000157971
0.0266263
0.000144372
0.000150934
0.0305307
0.00453335
0.00569266
0.000159739
0.000167198
0.000139648
0.0381218
0.000149035
0.0373595
0.000169627
0.002098
0.000167875
0.000200424
0.00452299
0.000142958
0.000142352
0.0274762
0.00335822
0.000256539
0.000215335
0.000171441
0.000141161
0.000216324
0.000143853
0.00358195
0.000143593
0.000151132
0.00418187
0.000149591
0.000200487
0.000137577
0.0141234
0.00143685
0.000161789
0.000163593
0.0465704
0.000157334
0.000136112
0.035093
0.0106683
0.0366941
0.000140062
0.000148527
0.00883555
0.00149822
0.0259798
0.000146134
0.000154484
0.00014619
0.000159345
0.000148399
0.000138427
0.0110362
0.000140831
0.0431714
0.000154746
0.0112248
0.000135641
0.000664399
0.000841474
0.000201278
0.00026914
0.00689867
0.00013856
0.000183419
0.0266623
0.000139748
0.000147981
0.000144965
0.0392455
0.0275531
0.000144555
0.0298825
0.000173277
0.000142693
0.0482441
0.000152146
0.000179843
0.0373819
0.042133