/*--------------------------------*- C++ -*----------------------------------*\
| =========                 |                                                 |
| \\      /  F ield         | OpenFOAM: The Open Source CFD Toolbox           |
|  \\    /   O peration     | Version:  v2012                                 |
|   \\  /    A nd           | Website:  www.openfoam.com                      |
|    \\/     M anipulation  |                                                 |
\*---------------------------------------------------------------------------*/
FoamFile
{
    version     2.0;
    format      ascii;
    class       volVectorField;
    location    "950";
    object      cellDisplacement;
}
// * * * * * * * * * * * * * * * * * * * * * * * * * * * * * * * * * * * * * //

dimensions      [0 1 0 0 0 0 0];


internalField   nonuniform List<vector> 
18758
(
(0 -0.00432362 0)
(0 -0.00278797 0)
(0 -0.00029821 0)
(0 -0.00428267 0)
(0 -0.0111784 0)
(0 -4.63143e-05 0)
(0 -0.00912782 0)
(0 -0.0134932 0)
(0 -0.0111739 0)
(0 -0.0112592 0)
(0 -0.00265264 0)
(0 -0.00662123 0)
(0 -0.0119779 0)
(0 -0.0137544 0)
(0 -0.0088157 0)
(0 -0.0049582 0)
(0 -0.00653758 0)
(0 -1.41925e-05 0)
(0 -0.00857749 0)
(0 -0.0130838 0)
(0 -0.00730349 0)
(0 -0.0150967 0)
(0 -4.09947e-05 0)
(0 -0.000107186 0)
(0 -0.0150979 0)
(0 -0.0150479 0)
(0 -0.0120843 0)
(0 -0.0147252 0)
(0 -0.0149354 0)
(0 -0.00287671 0)
(0 -0.0142313 0)
(0 -0.0121412 0)
(0 -0.0134181 0)
(0 -0.0150935 0)
(0 -0.0111043 0)
(0 -0.00282875 0)
(0 -0.0120557 0)
(0 -0.011085 0)
(0 -0.0131172 0)
(0 -0.000164429 0)
(0 -0.00262155 0)
(0 -0.0115068 0)
(0 -0.00240983 0)
(0 -0.00523443 0)
(0 -0.00171703 0)
(0 -0.0142059 0)
(0 -0.0114838 0)
(0 -0.0149102 0)
(0 -0.0151078 0)
(0 -0.0041198 0)
(0 -0.00263369 0)
(0 -0.0150431 0)
(0 -0.00407886 0)
(0 -0.0122371 0)
(0 -0.015069 0)
(0 -0.0119224 0)
(0 -0.00271934 0)
(0 -0.0130088 0)
(0 -0.0148846 0)
(0 -0.0026591 0)
(0 -0.00150798 0)
(0 -0.00514584 0)
(0 -0.0135345 0)
(0 -0.014768 0)
(0 -0.00131863 0)
(0 -0.0151042 0)
(0 -0.000981573 0)
(0 -0.000850022 0)
(0 -0.0147084 0)
(0 -2.85047e-05 0)
(0 -0.0150423 0)
(0 -0.0150489 0)
(0 -0.00893749 0)
(0 -0.0136228 0)
(0 -0.0140818 0)
(0 -0.0142579 0)
(0 -0.0137791 0)
(0 -0.00637342 0)
(0 -0.0112697 0)
(0 -0.0023591 0)
(0 -0.0150163 0)
(0 -0.013095 0)
(0 -0.00641091 0)
(0 -0.0140309 0)
(0 -0.0056385 0)
(0 -0.0150596 0)
(0 -0.0144582 0)
(0 -0.013647 0)
(0 -0.0135293 0)
(0 -0.0150595 0)
(0 -0.0150515 0)
(0 -0.00115136 0)
(0 -0.0149893 0)
(0 -0.0151082 0)
(0 -0.00874324 0)
(0 -0.00351216 0)
(0 -0.000114362 0)
(0 -0.0148753 0)
(0 -0.00636985 0)
(0 -0.00804426 0)
(0 -0.0142376 0)
(0 -0.0133697 0)
(0 -0.000826663 0)
(0 -0.00339366 0)
(0 -0.0151029 0)
(0 -0.00738214 0)
(0 -0.0149215 0)
(0 -0.0150524 0)
(0 -0.013684 0)
(0 -0.0101545 0)
(0 -0.0049342 0)
(0 -0.0147757 0)
(0 -0.00901522 0)
(0 -0.000581179 0)
(0 -0.0133399 0)
(0 -0.0147947 0)
(0 -0.0148616 0)
(0 -0.00232547 0)
(0 -0.0148293 0)
(0 -0.00589191 0)
(0 -0.000798398 0)
(0 -0.0137691 0)
(0 -0.00571471 0)
(0 -0.00342631 0)
(0 -0.01511 0)
(0 -0.0122938 0)
(0 -0.00510962 0)
(0 -0.00342484 0)
(0 -0.0149918 0)
(0 -0.0151144 0)
(0 -0.0148977 0)
(0 -0.000870462 0)
(0 -0.0142442 0)
(0 -0.015095 0)
(0 -0.000139943 0)
(0 -0.000890425 0)
(0 -0.0138626 0)
(0 -0.0058139 0)
(0 -0.0148613 0)
(0 -0.0150092 0)
(0 -0.00901165 0)
(0 -0.00449119 0)
(0 -0.0148494 0)
(0 -0.0137039 0)
(0 -0.0151106 0)
(0 -0.0149351 0)
(0 -0.0151028 0)
(0 -0.0149853 0)
(0 -0.00270468 0)
(0 -0.0149402 0)
(0 -0.0151142 0)
(0 -0.0151138 0)
(0 -0.0118865 0)
(0 -0.0109719 0)
(0 -0.00257812 0)
(0 -0.0145431 0)
(0 -0.0149814 0)
(0 -0.0149981 0)
(0 -0.0139446 0)
(0 -0.00273659 0)
(0 -0.0149826 0)
(0 -0.0038908 0)
(0 -0.0151119 0)
(0 -0.0151016 0)
(0 -0.0141591 0)
(0 -0.00250948 0)
(0 -0.00381151 0)
(0 -0.0149939 0)
(0 -0.0151142 0)
(0 -0.0067386 0)
(0 -0.0151136 0)
(0 -0.000206365 0)
(0 -0.0149427 0)
(0 -2.67392e-05 0)
(0 -0.0136301 0)
(0 -0.00787563 0)
(0 -0.00863991 0)
(0 -0.0150523 0)
(0 -0.015091 0)
(0 -0.0133956 0)
(0 -0.000642227 0)
(0 -0.0124669 0)
(0 -0.0150645 0)
(0 -0.0138506 0)
(0 -0.0149364 0)
(0 -0.00832692 0)
(0 -0.00291277 0)
(0 -0.0129222 0)
(0 -0.0151077 0)
(0 -0.0141445 0)
(0 -0.015114 0)
(0 -0.00823788 0)
(0 -0.0146729 0)
(0 -0.0138574 0)
(0 -0.00038499 0)
(0 -0.0137586 0)
(0 -0.0148639 0)
(0 -0.0117609 0)
(0 -0.0151068 0)
(0 -0.0001715 0)
(0 -0.00366902 0)
(0 -0.0150002 0)
(0 -0.0140613 0)
(0 -0.00408968 0)
(0 -0.00524589 0)
(0 -0.0151113 0)
(0 -0.00630281 0)
(0 -0.0110574 0)
(0 -0.0151144 0)
(0 -0.0151146 0)
(0 -0.000127317 0)
(0 -0.0149817 0)
(0 -0.00373424 0)
(0 -0.00881869 0)
(0 -0.0128515 0)
(0 -0.000133317 0)
(0 -0.00184252 0)
(0 -0.0149774 0)
(0 -6.04699e-05 0)
(0 -0.00271053 0)
(0 -0.0138335 0)
(0 -0.0037652 0)
(0 -0.0148368 0)
(0 -0.0149965 0)
(0 -0.0140893 0)
(0 -0.00025835 0)
(0 -0.0140681 0)
(0 -0.015068 0)
(0 -0.0149894 0)
(0 -0.00620188 0)
(0 -0.0150438 0)
(0 -0.0149258 0)
(0 -0.0136154 0)
(0 -0.000761239 0)
(0 -0.00416114 0)
(0 -0.00384265 0)
(0 -0.0143045 0)
(0 -0.0151083 0)
(0 -0.0148657 0)
(0 -0.0127374 0)
(0 -0.00566789 0)
(0 -0.0142823 0)
(0 -0.0148558 0)
(0 -0.000194373 0)
(0 -0.0149434 0)
(0 -0.0149624 0)
(0 -0.00407423 0)
(0 -0.00324933 0)
(0 -0.00267343 0)
(0 -0.00815472 0)
(0 -0.0151133 0)
(0 -0.00535778 0)
(0 -0.000130704 0)
(0 -0.00384859 0)
(0 -1.83886e-05 0)
(0 -0.0148968 0)
(0 -0.00255859 0)
(0 -0.0150493 0)
(0 -0.00241744 0)
(0 -0.012722 0)
(0 -0.00910322 0)
(0 -0.00351713 0)
(0 -0.00420038 0)
(0 -0.0146569 0)
(0 -0.0145107 0)
(0 -0.0144899 0)
(0 -0.00360021 0)
(0 -0.0148675 0)
(0 -0.0119616 0)
(0 -0.0099399 0)
(0 -0.014803 0)
(0 -0.0150675 0)
(0 -0.0098953 0)
(0 -0.00588254 0)
(0 -0.00031088 0)
(0 -0.0127705 0)
(0 -0.0142819 0)
(0 -6.45626e-05 0)
(0 -0.00892468 0)
(0 -0.0137374 0)
(0 -0.00314425 0)
(0 -0.000803735 0)
(0 -0.00541517 0)
(0 -0.0151001 0)
(0 -0.008918 0)
(0 -0.00578296 0)
(0 -4.76819e-05 0)
(0 -0.0148618 0)
(0 -0.00359529 0)
(0 -0.00344186 0)
(0 -0.00014051 0)
(0 -0.0134315 0)
(0 -0.00273023 0)
(0 -0.000276225 0)
(0 -0.000162544 0)
(0 -0.00276972 0)
(0 -0.000281838 0)
(0 -0.000857218 0)
(0 -9.02478e-05 0)
(0 -0.0151076 0)
(0 -0.0142363 0)
(0 -0.000514364 0)
(0 -0.000541079 0)
(0 -0.0133154 0)
(0 -0.00234048 0)
(0 -0.000624601 0)
(0 -0.00677665 0)
(0 -0.00744439 0)
(0 -0.00514553 0)
(0 -0.0118364 0)
(0 -0.00559752 0)
(0 -0.0144751 0)
(0 -0.0148711 0)
(0 -0.0148245 0)
(0 -0.0149396 0)
(0 -0.0150953 0)
(0 -0.000762508 0)
(0 -0.0134 0)
(0 -0.0149991 0)
(0 -0.00101695 0)
(0 -0.0148125 0)
(0 -0.0139626 0)
(0 -0.014928 0)
(0 -0.00515456 0)
(0 -0.000785284 0)
(0 -0.0151146 0)
(0 -0.000113001 0)
(0 -0.00502618 0)
(0 -0.0151096 0)
(0 -0.0142739 0)
(0 -0.0087908 0)
(0 -0.0150931 0)
(0 -0.00489876 0)
(0 -0.00255794 0)
(0 -0.00264129 0)
(0 -0.000640488 0)
(0 -0.0118096 0)
(0 -0.00364422 0)
(0 -0.0135374 0)
(0 -0.00650726 0)
(0 -0.0117801 0)
(0 -0.012802 0)
(0 -0.0146746 0)
(0 -0.0133117 0)
(0 -0.00583739 0)
(0 -0.0133581 0)
(0 -0.00628999 0)
(0 -0.00489844 0)
(0 -0.0147261 0)
(0 -0.00232111 0)
(0 -0.015101 0)
(0 -0.00439645 0)
(0 -0.0148007 0)
(0 -0.00815465 0)
(0 -0.015111 0)
(0 -0.0128222 0)
(0 -0.0127107 0)
(0 -0.0127506 0)
(0 -0.00869241 0)
(0 -0.00902391 0)
(0 -0.00522576 0)
(0 -0.0148725 0)
(0 -0.0138346 0)
(0 -0.00430119 0)
(0 -0.0140747 0)
(0 -0.013862 0)
(0 -0.00426986 0)
(0 -0.0144392 0)
(0 -0.0125416 0)
(0 -0.0148603 0)
(0 -0.0151087 0)
(0 -0.014805 0)
(0 -0.0135588 0)
(0 -0.0145452 0)
(0 -0.00264618 0)
(0 -0.0147937 0)
(0 -1.27978e-05 0)
(0 -0.015104 0)
(0 -0.0149917 0)
(0 -0.00249579 0)
(0 -0.00424518 0)
(0 -0.00120623 0)
(0 -0.000102561 0)
(0 -0.015098 0)
(0 -0.00433748 0)
(0 -0.00567673 0)
(0 -0.0147975 0)
(0 -0.0151102 0)
(0 -0.0127972 0)
(0 -0.00665917 0)
(0 -0.01007 0)
(0 -0.00505377 0)
(0 -0.0136409 0)
(0 -0.0126541 0)
(0 -0.00507681 0)
(0 -0.000760962 0)
(0 -0.00912232 0)
(0 -0.00931636 0)
(0 -0.000584177 0)
(0 -0.000213672 0)
(0 -0.00256403 0)
(0 -0.0141898 0)
(0 -0.0129912 0)
(0 -0.0146314 0)
(0 -0.0141222 0)
(0 -0.0141281 0)
(0 -0.0151106 0)
(0 -0.0129679 0)
(0 -0.0149653 0)
(0 -0.00272076 0)
(0 -8.79874e-05 0)
(0 -0.00243784 0)
(0 -0.0136284 0)
(0 -0.0127244 0)
(0 -0.0137823 0)
(0 -0.0148459 0)
(0 -0.00974169 0)
(0 -0.00260638 0)
(0 -0.0146633 0)
(0 -0.00166375 0)
(0 -0.0142656 0)
(0 -0.00051464 0)
(0 -0.0151058 0)
(0 -0.0144948 0)
(0 -0.0044294 0)
(0 -0.000172835 0)
(0 -0.0150935 0)
(0 -0.0149899 0)
(0 -0.00207723 0)
(0 -0.00499746 0)
(0 -0.000110671 0)
(0 -0.0135455 0)
(0 -0.000128564 0)
(0 -0.000289997 0)
(0 -0.0141938 0)
(0 -0.0146484 0)
(0 -0.0127777 0)
(0 -0.00843349 0)
(0 -0.0133558 0)
(0 -0.0138255 0)
(0 -0.0147997 0)
(0 -0.0129888 0)
(0 -1.60915e-05 0)
(0 -0.0151046 0)
(0 -0.000496077 0)
(0 -0.00367982 0)
(0 -0.0150657 0)
(0 -0.00497246 0)
(0 -0.014197 0)
(0 -1.71429e-05 0)
(0 -0.0138431 0)
(0 -0.000279198 0)
(0 -0.014796 0)
(0 -0.0028105 0)
(0 -0.00913621 0)
(0 -0.0151088 0)
(0 -0.00239189 0)
(0 -4.84878e-05 0)
(0 -0.014418 0)
(0 -0.0103734 0)
(0 -0.00441764 0)
(0 -0.000410386 0)
(0 -0.00141591 0)
(0 -0.0145043 0)
(0 -0.0150552 0)
(0 -0.0123543 0)
(0 -0.0146438 0)
(0 -0.0138601 0)
(0 -0.0150486 0)
(0 -0.00312246 0)
(0 -0.0149517 0)
(0 -0.00308614 0)
(0 -0.00217106 0)
(0 -0.0149575 0)
(0 -0.0142962 0)
(0 -0.0139711 0)
(0 -0.0133727 0)
(0 -0.00273185 0)
(0 -0.00619273 0)
(0 -0.00890879 0)
(0 -0.000582709 0)
(0 -0.00925547 0)
(0 -0.00389937 0)
(0 -0.00459532 0)
(0 -0.00379835 0)
(0 -0.00304785 0)
(0 -0.011628 0)
(0 -0.000369127 0)
(0 -0.000402337 0)
(0 -0.0149941 0)
(0 -0.000921395 0)
(0 -0.000259369 0)
(0 -0.000227398 0)
(0 -0.0103053 0)
(0 -0.0061225 0)
(0 -0.00726665 0)
(0 -0.00640614 0)
(0 -0.00258128 0)
(0 -9.99811e-06 0)
(0 -0.0146235 0)
(0 -0.015037 0)
(0 -0.0150632 0)
(0 -0.0145717 0)
(0 -0.00225796 0)
(0 -0.00827249 0)
(0 -0.0150588 0)
(0 -0.0150952 0)
(0 -0.00380013 0)
(0 -0.00265887 0)
(0 -0.0129365 0)
(0 -0.0151015 0)
(0 -3.8019e-05 0)
(0 -9.38301e-06 0)
(0 -0.0149635 0)
(0 -0.0129135 0)
(0 -0.0150089 0)
(0 -0.00374944 0)
(0 -0.00499551 0)
(0 -0.0146319 0)
(0 -0.00341539 0)
(0 -0.00745697 0)
(0 -0.0011165 0)
(0 -5.18713e-05 0)
(0 -0.00608979 0)
(0 -0.00144882 0)
(0 -0.00604325 0)
(0 -0.000552564 0)
(0 -0.00964614 0)
(0 -0.0138286 0)
(0 -3.84627e-05 0)
(0 -0.000568274 0)
(0 -0.000268947 0)
(0 -0.0143581 0)
(0 -0.0130247 0)
(0 -0.0130355 0)
(0 -0.00813897 0)
(0 -0.0141581 0)
(0 -0.0141759 0)
(0 -0.0139285 0)
(0 -0.00450636 0)
(0 -0.00251576 0)
(0 -0.00272415 0)
(0 -0.0124404 0)
(0 -0.0123736 0)
(0 -0.0150996 0)
(0 -0.0149465 0)
(0 -0.00297503 0)
(0 -0.00598883 0)
(0 -0.013351 0)
(0 -0.0150014 0)
(0 -0.000548128 0)
(0 -0.000117522 0)
(0 -0.00264207 0)
(0 -0.000423425 0)
(0 -0.00558239 0)
(0 -0.00442128 0)
(0 -0.0124727 0)
(0 -0.00464405 0)
(0 -0.0148831 0)
(0 -0.00804904 0)
(0 -0.000158813 0)
(0 -0.0144971 0)
(0 -0.0150652 0)
(0 -0.00872034 0)
(0 -0.00518968 0)
(0 -0.00808022 0)
(0 -0.00018924 0)
(0 -0.00793401 0)
(0 -0.00589844 0)
(0 -0.00973807 0)
(0 -0.00243437 0)
(0 -0.0134111 0)
(0 -0.0104654 0)
(0 -0.00798273 0)
(0 -0.0147467 0)
(0 -0.00512598 0)
(0 -0.000144442 0)
(0 -0.0149287 0)
(0 -5.62784e-05 0)
(0 -5.40469e-05 0)
(0 -0.0104936 0)
(0 -0.000323987 0)
(0 -0.0137963 0)
(0 -0.0140352 0)
(0 -0.000495226 0)
(0 -0.00825493 0)
(0 -0.0151067 0)
(0 -0.00227979 0)
(0 -0.0115212 0)
(0 -0.00222616 0)
(0 -0.000311496 0)
(0 -0.000270921 0)
(0 -0.0140019 0)
(0 -0.0134364 0)
(0 -0.0129827 0)
(0 -0.0077203 0)
(0 -0.012789 0)
(0 -0.010424 0)
(0 -0.00305872 0)
(0 -0.0036592 0)
(0 -0.0151073 0)
(0 -0.000329084 0)
(0 -0.000118754 0)
(0 -0.00806535 0)
(0 -0.00392453 0)
(0 -0.0141635 0)
(0 -0.014568 0)
(0 -0.00406575 0)
(0 -0.0137818 0)
(0 -0.00580769 0)
(0 -0.0147077 0)
(0 -0.012897 0)
(0 -0.00378915 0)
(0 -0.00685058 0)
(0 -0.0142404 0)
(0 -0.0151091 0)
(0 -0.0142475 0)
(0 -0.00873889 0)
(0 -0.00509135 0)
(0 -0.00387712 0)
(0 -0.0148298 0)
(0 -0.000332957 0)
(0 -0.00518896 0)
(0 -0.000561995 0)
(0 -0.00444815 0)
(0 -0.0141929 0)
(0 -0.0129603 0)
(0 -0.000102855 0)
(0 -0.0105247 0)
(0 -0.008641 0)
(0 -0.0105489 0)
(0 -0.00816279 0)
(0 -0.00270577 0)
(0 -0.00961345 0)
(0 -0.0151001 0)
(0 -0.000205182 0)
(0 -0.0148231 0)
(0 -0.0151139 0)
(0 -0.015101 0)
(0 -7.95999e-05 0)
(0 -3.20355e-05 0)
(0 -0.0140129 0)
(0 -0.00320073 0)
(0 -0.000310798 0)
(0 -0.00227058 0)
(0 -0.00899895 0)
(0 -0.000608324 0)
(0 -0.0146491 0)
(0 -0.00193641 0)
(0 -0.0124191 0)
(0 -0.00523693 0)
(0 -0.00334412 0)
(0 -0.00507748 0)
(0 -0.0130072 0)
(0 -0.0149186 0)
(0 -0.00570801 0)
(0 -0.00872158 0)
(0 -0.00569001 0)
(0 -0.0148214 0)
(0 -0.000134846 0)
(0 -0.014821 0)
(0 -0.00599602 0)
(0 -0.00905699 0)
(0 -0.013831 0)
(0 -0.00531889 0)
(0 -0.00528721 0)
(0 -0.013855 0)
(0 -5.30602e-05 0)
(0 -5.50727e-05 0)
(0 -0.0145168 0)
(0 -0.0133625 0)
(0 -0.0121495 0)
(0 -0.000557802 0)
(0 -0.0151046 0)
(0 -0.0151097 0)
(0 -0.0126545 0)
(0 -0.00392077 0)
(0 -0.00679131 0)
(0 -0.0141929 0)
(0 -0.013718 0)
(0 -0.0133896 0)
(0 -0.0148295 0)
(0 -0.0115645 0)
(0 -0.00622472 0)
(0 -0.000158674 0)
(0 -0.0148257 0)
(0 -0.0149446 0)
(0 -0.000654968 0)
(0 -0.0145112 0)
(0 -0.0137543 0)
(0 -0.0116017 0)
(0 -0.0134242 0)
(0 -0.0125548 0)
(0 -0.000406193 0)
(0 -0.0127934 0)
(0 -0.00276693 0)
(0 -0.0128573 0)
(0 -0.0141815 0)
(0 -0.00576583 0)
(0 -0.014803 0)
(0 -0.010481 0)
(0 -0.00984755 0)
(0 -0.0144982 0)
(0 -0.0004374 0)
(0 -0.000131669 0)
(0 -0.00549677 0)
(0 -0.00457363 0)
(0 -0.0149342 0)
(0 -0.00273778 0)
(0 -0.00901847 0)
(0 -0.0041049 0)
(0 -0.014993 0)
(0 -0.0150145 0)
(0 -0.00821631 0)
(0 -0.00995013 0)
(0 -0.0146266 0)
(0 -0.0100304 0)
(0 -0.00323393 0)
(0 -0.0142271 0)
(0 -0.0129903 0)
(0 -0.0134416 0)
(0 -0.00963783 0)
(0 -0.000359896 0)
(0 -0.0149876 0)
(0 -0.000450323 0)
(0 -0.0150202 0)
(0 -0.0150026 0)
(0 -0.0134435 0)
(0 -0.0150468 0)
(0 -0.000174975 0)
(0 -0.00880192 0)
(0 -0.0133877 0)
(0 -0.0148133 0)
(0 -0.01422 0)
(0 -0.00977393 0)
(0 -0.00249124 0)
(0 -6.04642e-05 0)
(0 -0.0040498 0)
(0 -0.00109618 0)
(0 -0.0133713 0)
(0 -0.0100852 0)
(0 -0.0126499 0)
(0 -0.0150744 0)
(0 -0.00420362 0)
(0 -0.00535567 0)
(0 -0.01125 0)
(0 -0.013403 0)
(0 -0.00364849 0)
(0 -0.00801531 0)
(0 -0.00265736 0)
(0 -0.0150826 0)
(0 -0.00388019 0)
(0 -0.00353182 0)
(0 -0.00113438 0)
(0 -0.01479 0)
(0 -0.0145426 0)
(0 -0.00867608 0)
(0 -0.0033644 0)
(0 -0.0067398 0)
(0 -0.0126021 0)
(0 -0.00999747 0)
(0 -0.0146411 0)
(0 -0.00641339 0)
(0 -0.00356457 0)
(0 -0.0148367 0)
(0 -0.0131261 0)
(0 -0.000295376 0)
(0 -0.00403922 0)
(0 -0.00979862 0)
(0 -0.0142069 0)
(0 -0.00324346 0)
(0 -0.00224916 0)
(0 -0.0144272 0)
(0 -0.00989295 0)
(0 -0.0148449 0)
(0 -0.00410064 0)
(0 -0.0150969 0)
(0 -0.00118883 0)
(0 -0.0142541 0)
(0 -0.0149231 0)
(0 -0.0117082 0)
(0 -0.0148108 0)
(0 -7.36127e-05 0)
(0 -0.00953256 0)
(0 -0.00256361 0)
(0 -0.00672 0)
(0 -0.0137281 0)
(0 -0.00377905 0)
(0 -0.00803342 0)
(0 -0.0136479 0)
(0 -0.0151146 0)
(0 -0.00414706 0)
(0 -0.00385828 0)
(0 -0.00575628 0)
(0 -0.0126994 0)
(0 -0.0111395 0)
(0 -0.00523428 0)
(0 -0.00812704 0)
(0 -0.000452062 0)
(0 -0.00309693 0)
(0 -0.00574301 0)
(0 -0.00849709 0)
(0 -0.00255076 0)
(0 -0.00367467 0)
(0 -0.0149689 0)
(0 -0.0146098 0)
(0 -0.014695 0)
(0 -0.0149243 0)
(0 -0.0044833 0)
(0 -0.0150848 0)
(0 -0.00810258 0)
(0 -0.00814932 0)
(0 -0.0127189 0)
(0 -0.00380558 0)
(0 -0.00459811 0)
(0 -0.000690646 0)
(0 -0.00047442 0)
(0 -0.0127339 0)
(0 -0.0147796 0)
(0 -0.0150405 0)
(0 -0.0131003 0)
(0 -0.00174051 0)
(0 -0.0075757 0)
(0 -0.0142149 0)
(0 -0.0141492 0)
(0 -0.0146419 0)
(0 -9.34262e-05 0)
(0 -0.00863557 0)
(0 -0.00219978 0)
(0 -0.0150968 0)
(0 -0.0138306 0)
(0 -0.0103786 0)
(0 -0.00079214 0)
(0 -0.0149319 0)
(0 -0.0149748 0)
(0 -0.00398297 0)
(0 -0.0151146 0)
(0 -0.0125747 0)
(0 -0.0124903 0)
(0 -0.000285735 0)
(0 -0.00013895 0)
(0 -0.0150889 0)
(0 -0.0115557 0)
(0 -0.000820034 0)
(0 -0.0148002 0)
(0 -0.0126162 0)
(0 -0.00737817 0)
(0 -0.000183987 0)
(0 -0.0100024 0)
(0 -0.00554821 0)
(0 -0.00784258 0)
(0 -0.00517392 0)
(0 -0.00829832 0)
(0 -0.00915438 0)
(0 -0.0105621 0)
(0 -0.0144601 0)
(0 -0.00932252 0)
(0 -0.0116099 0)
(0 -0.010518 0)
(0 -0.0150982 0)
(0 -0.00844183 0)
(0 -0.00278686 0)
(0 -0.0150707 0)
(0 -0.0117431 0)
(0 -0.00399814 0)
(0 -0.00382433 0)
(0 -1.41636e-05 0)
(0 -0.0123809 0)
(0 -0.0116588 0)
(0 -0.000306278 0)
(0 -0.0124062 0)
(0 -0.0104828 0)
(0 -0.0116337 0)
(0 -0.0150713 0)
(0 -0.0142841 0)
(0 -0.000391563 0)
(0 -0.00823112 0)
(0 -0.0117255 0)
(0 -0.0117038 0)
(0 -0.000808452 0)
(0 -0.0148548 0)
(0 -0.00448078 0)
(0 -0.0146028 0)
(0 -0.0144046 0)
(0 -0.00841397 0)
(0 -0.00389206 0)
(0 -0.00357983 0)
(0 -0.013111 0)
(0 -0.0148712 0)
(0 -0.000376482 0)
(0 -0.00451084 0)
(0 -0.014659 0)
(0 -0.0149469 0)
(0 -0.0125261 0)
(0 -0.0126038 0)
(0 -0.0117011 0)
(0 -0.00057363 0)
(0 -0.0130004 0)
(0 -0.0134625 0)
(0 -0.00798984 0)
(0 -0.0150445 0)
(0 -0.01489 0)
(0 -0.0106694 0)
(0 -0.0134598 0)
(0 -0.0150442 0)
(0 -0.000196504 0)
(0 -0.0146227 0)
(0 -0.000825168 0)
(0 -0.00143741 0)
(0 -0.014234 0)
(0 -0.0109837 0)
(0 -0.00122641 0)
(0 -0.00214692 0)
(0 -0.00447281 0)
(0 -0.00565919 0)
(0 -0.00528979 0)
(0 -0.00456695 0)
(0 -0.00480314 0)
(0 -0.00402698 0)
(0 -0.0150709 0)
(0 -0.00826226 0)
(0 -0.00379002 0)
(0 -0.0144296 0)
(0 -0.0140906 0)
(0 -0.00548593 0)
(0 -0.0148891 0)
(0 -0.00611998 0)
(0 -0.00761962 0)
(0 -0.000439707 0)
(0 -0.00849742 0)
(0 -0.0148238 0)
(0 -0.000404163 0)
(0 -0.00651736 0)
(0 -0.0139316 0)
(0 -0.00214222 0)
(0 -0.0133172 0)
(0 -0.0117583 0)
(0 -0.0114456 0)
(0 -0.0138238 0)
(0 -0.0077019 0)
(0 -0.0149969 0)
(0 -0.014259 0)
(0 -0.000416382 0)
(0 -0.00919551 0)
(0 -0.013688 0)
(0 -0.0127027 0)
(0 -0.0151105 0)
(0 -0.0117483 0)
(0 -0.00253235 0)
(0 -0.01005 0)
(0 -0.0118395 0)
(0 -0.00344273 0)
(0 -0.0139617 0)
(0 -0.00571326 0)
(0 -0.000140738 0)
(0 -0.0078044 0)
(0 -0.00532059 0)
(0 -0.00816588 0)
(0 -0.00893665 0)
(0 -0.0141955 0)
(0 -0.0110287 0)
(0 -0.00749063 0)
(0 -0.0010569 0)
(0 -0.00510444 0)
(0 -0.00906694 0)
(0 -0.00249742 0)
(0 -0.0148752 0)
(0 -0.00953688 0)
(0 -0.00209956 0)
(0 -0.0151129 0)
(0 -0.0140682 0)
(0 -0.000255107 0)
(0 -0.0151133 0)
(0 -0.000669124 0)
(0 -0.0149723 0)
(0 -0.0105513 0)
(0 -0.00375183 0)
(0 -0.00380362 0)
(0 -0.0118144 0)
(0 -0.00322468 0)
(0 -0.00511048 0)
(0 -0.0148271 0)
(0 -0.00454412 0)
(0 -0.0138506 0)
(0 -0.0150636 0)
(0 -0.000527952 0)
(0 -0.000390968 0)
(0 -0.00806361 0)
(0 -0.0135008 0)
(0 -0.0132753 0)
(0 -0.00895766 0)
(0 -0.0112592 0)
(0 -0.00132119 0)
(0 -0.00408866 0)
(0 -0.00775549 0)
(0 -0.00799467 0)
(0 -0.0150719 0)
(0 -0.00541709 0)
(0 -0.0139242 0)
(0 -0.00480409 0)
(0 -0.00549493 0)
(0 -0.00521397 0)
(0 -0.00521002 0)
(0 -0.0145951 0)
(0 -0.00951896 0)
(0 -0.0138986 0)
(0 -0.0145206 0)
(0 -0.0105507 0)
(0 -0.00777179 0)
(0 -0.00675051 0)
(0 -0.00499391 0)
(0 -0.00752479 0)
(0 -0.001844 0)
(0 -0.00649063 0)
(0 -0.0143778 0)
(0 -0.00281804 0)
(0 -0.00260715 0)
(0 -0.0027212 0)
(0 -0.00428504 0)
(0 -0.0150768 0)
(0 -4.22624e-05 0)
(0 -0.0059213 0)
(0 -0.0140615 0)
(0 -0.00449272 0)
(0 -0.0144686 0)
(0 -0.00466293 0)
(0 -0.00268331 0)
(0 -0.0124808 0)
(0 -0.00551278 0)
(0 -0.00666489 0)
(0 -0.00901945 0)
(0 -0.0125139 0)
(0 -0.00907352 0)
(0 -0.0138139 0)
(0 -0.0148139 0)
(0 -0.0112027 0)
(0 -0.0099886 0)
(0 -0.00383588 0)
(0 -0.0037274 0)
(0 -0.0104318 0)
(0 -0.00716145 0)
(0 -0.00285386 0)
(0 -0.011903 0)
(0 -0.00796904 0)
(0 -0.00221764 0)
(0 -0.00244773 0)
(0 -0.0150801 0)
(0 -0.0150015 0)
(0 -0.000224738 0)
(0 -0.00218259 0)
(0 -0.014527 0)
(0 -0.00987031 0)
(0 -0.0144397 0)
(0 -0.0138562 0)
(0 -0.0126523 0)
(0 -0.0151113 0)
(0 -0.000711803 0)
(0 -0.00245702 0)
(0 -0.00262001 0)
(0 -0.0134841 0)
(0 -0.00808495 0)
(0 -0.00238294 0)
(0 -0.0145866 0)
(0 -0.00545228 0)
(0 -0.00482069 0)
(0 -0.0144996 0)
(0 -0.0151117 0)
(0 -0.0150987 0)
(0 -0.013101 0)
(0 -0.011487 0)
(0 -0.0101288 0)
(0 -0.00691708 0)
(0 -0.00209589 0)
(0 -0.000238316 0)
(0 -0.0145448 0)
(0 -0.00217815 0)
(0 -0.000353796 0)
(0 -0.000608146 0)
(0 -0.0151108 0)
(0 -0.0142106 0)
(0 -0.00344282 0)
(0 -0.00178472 0)
(0 -0.0139544 0)
(0 -0.00475875 0)
(0 -0.0102277 0)
(0 -0.014248 0)
(0 -0.00913902 0)
(0 -0.0129026 0)
(0 -0.00355892 0)
(0 -0.0124805 0)
(0 -0.010782 0)
(0 -0.00725932 0)
(0 -0.0126354 0)
(0 -0.00770078 0)
(0 -0.00566108 0)
(0 -0.00039082 0)
(0 -0.0003981 0)
(0 -0.000147065 0)
(0 -0.013304 0)
(0 -0.00373285 0)
(0 -0.0106759 0)
(0 -0.0149765 0)
(0 -0.00687252 0)
(0 -0.00304627 0)
(0 -0.0148135 0)
(0 -0.000130708 0)
(0 -0.00340134 0)
(0 -0.0147984 0)
(0 -0.00569416 0)
(0 -0.0100705 0)
(0 -0.013322 0)
(0 -0.000148662 0)
(0 -0.0102674 0)
(0 -0.0133656 0)
(0 -0.00979246 0)
(0 -0.0141475 0)
(0 -0.0144849 0)
(0 -0.000233379 0)
(0 -0.00117244 0)
(0 -0.0136556 0)
(0 -0.00351748 0)
(0 -0.000171463 0)
(0 -0.000477419 0)
(0 -0.0119399 0)
(0 -0.00776783 0)
(0 -0.0148744 0)
(0 -0.0091271 0)
(0 -0.0144807 0)
(0 -0.0150928 0)
(0 -0.00806464 0)
(0 -0.00785805 0)
(0 -0.0148134 0)
(0 -0.00881676 0)
(0 -0.00748247 0)
(0 -0.0145251 0)
(0 -0.0107008 0)
(0 -0.00375377 0)
(0 -0.00318454 0)
(0 -0.0146428 0)
(0 -0.0128468 0)
(0 -8.57967e-05 0)
(0 -0.000845989 0)
(0 -0.0124871 0)
(0 -0.00431197 0)
(0 -0.00567031 0)
(0 -0.0145688 0)
(0 -0.0150775 0)
(0 -0.009828 0)
(0 -0.0149543 0)
(0 -0.0106147 0)
(0 -0.015112 0)
(0 -0.0150367 0)
(0 -0.0151115 0)
(0 -0.015048 0)
(0 -0.0144651 0)
(0 -0.0115341 0)
(0 -0.00248625 0)
(0 -0.014933 0)
(0 -0.0129375 0)
(0 -2.18124e-05 0)
(0 -0.00835243 0)
(0 -0.0100466 0)
(0 -0.0136688 0)
(0 -0.0039757 0)
(0 -0.000141627 0)
(0 -0.00386613 0)
(0 -0.0149558 0)
(0 -0.014411 0)
(0 -0.00279649 0)
(0 -0.0149858 0)
(0 -0.00818722 0)
(0 -0.00871284 0)
(0 -0.00854429 0)
(0 -0.00762789 0)
(0 -0.0149737 0)
(0 -0.0149446 0)
(0 -2.56314e-05 0)
(0 -0.0144336 0)
(0 -0.0141714 0)
(0 -0.0151104 0)
(0 -0.0151135 0)
(0 -0.014422 0)
(0 -0.0143129 0)
(0 -0.000430765 0)
(0 -0.0151109 0)
(0 -0.0125768 0)
(0 -0.00560047 0)
(0 -0.0100553 0)
(0 -0.0131402 0)
(0 -0.015024 0)
(0 -0.0149444 0)
(0 -0.00997724 0)
(0 -0.00904612 0)
(0 -0.00731414 0)
(0 -0.00971114 0)
(0 -0.0150818 0)
(0 -0.0107473 0)
(0 -0.00261654 0)
(0 -0.0125612 0)
(0 -0.00537602 0)
(0 -0.000565757 0)
(0 -0.00203194 0)
(0 -0.0125828 0)
(0 -0.00222564 0)
(0 -0.00240463 0)
(0 -0.0135302 0)
(0 -0.0127336 0)
(0 -0.0141197 0)
(0 -0.0151032 0)
(0 -0.00044683 0)
(0 -0.0127849 0)
(0 -0.0150263 0)
(0 -0.0144142 0)
(0 -0.00483271 0)
(0 -0.0101691 0)
(0 -0.00726324 0)
(0 -0.00805933 0)
(0 -0.0040507 0)
(0 -2.44409e-05 0)
(0 -0.00380214 0)
(0 -0.00484078 0)
(0 -0.0150451 0)
(0 -0.00922232 0)
(0 -0.0040688 0)
(0 -0.0146034 0)
(0 -0.0128607 0)
(0 -0.014551 0)
(0 -0.01329 0)
(0 -0.0133129 0)
(0 -0.00251317 0)
(0 -0.0134849 0)
(0 -0.00502927 0)
(0 -0.00696845 0)
(0 -0.0128248 0)
(0 -0.00374931 0)
(0 -0.0148856 0)
(0 -0.00253914 0)
(0 -0.00344195 0)
(0 -0.00292007 0)
(0 -0.00546066 0)
(0 -0.00815566 0)
(0 -0.00388562 0)
(0 -0.000354505 0)
(0 -0.0138617 0)
(0 -0.00340004 0)
(0 -0.00800495 0)
(0 -0.00994582 0)
(0 -0.0150175 0)
(0 -0.00612154 0)
(0 -0.00197459 0)
(0 -0.0150714 0)
(0 -0.00813658 0)
(0 -0.0151097 0)
(0 -0.0138674 0)
(0 -0.00283838 0)
(0 -0.00362039 0)
(0 -0.015032 0)
(0 -0.0142509 0)
(0 -0.00399302 0)
(0 -0.00194623 0)
(0 -0.0143599 0)
(0 -0.0144362 0)
(0 -1.28021e-05 0)
(0 -0.00220389 0)
(0 -0.00224661 0)
(0 -0.00540864 0)
(0 -0.00784687 0)
(0 -0.000835149 0)
(0 -0.00967324 0)
(0 -0.00915635 0)
(0 -0.00774799 0)
(0 -0.00247717 0)
(0 -0.000151712 0)
(0 -0.00209727 0)
(0 -0.00477678 0)
(0 -0.00343578 0)
(0 -0.00292273 0)
(0 -0.0151052 0)
(0 -0.0150401 0)
(0 -0.00627474 0)
(0 -0.0150906 0)
(0 -0.00589216 0)
(0 -0.014454 0)
(0 -0.0150415 0)
(0 -0.00532228 0)
(0 -0.0127749 0)
(0 -0.0147971 0)
(0 -0.0151081 0)
(0 -0.00668658 0)
(0 -0.0122928 0)
(0 -0.00254801 0)
(0 -0.0149898 0)
(0 -0.00833786 0)
(0 -0.00617858 0)
(0 -0.00728047 0)
(0 -0.00540061 0)
(0 -2.81695e-05 0)
(0 -0.0146668 0)
(0 -0.0147675 0)
(0 -0.0149943 0)
(0 -0.0114665 0)
(0 -6.99096e-05 0)
(0 -0.00239543 0)
(0 -0.000770583 0)
(0 -0.0102754 0)
(0 -0.00754464 0)
(0 -0.0150467 0)
(0 -0.014788 0)
(0 -0.00867551 0)
(0 -0.0106427 0)
(0 -0.00805209 0)
(0 -0.00073403 0)
(0 -0.0150816 0)
(0 -0.014018 0)
(0 -7.57322e-05 0)
(0 -0.00210894 0)
(0 -0.0134498 0)
(0 -0.000742496 0)
(0 -0.00833345 0)
(0 -0.00193997 0)
(0 -0.00782364 0)
(0 -0.0096944 0)
(0 -0.000660654 0)
(0 -0.00347673 0)
(0 -0.00988951 0)
(0 -0.0139887 0)
(0 -0.0148042 0)
(0 -0.000288601 0)
(0 -0.0120824 0)
(0 -0.0150966 0)
(0 -0.0049871 0)
(0 -0.0151036 0)
(0 -0.0121599 0)
(0 -0.0149216 0)
(0 -0.000101537 0)
(0 -0.00394276 0)
(0 -0.0128477 0)
(0 -0.014634 0)
(0 -0.0150968 0)
(0 -0.00523876 0)
(0 -0.0138835 0)
(0 -0.00120815 0)
(0 -0.0076067 0)
(0 -0.00338019 0)
(0 -0.00486188 0)
(0 -0.0137688 0)
(0 -0.0144234 0)
(0 -0.0141657 0)
(0 -0.0137206 0)
(0 -0.00328983 0)
(0 -0.00612929 0)
(0 -0.0145175 0)
(0 -0.0102011 0)
(0 -0.000286628 0)
(0 -0.0148506 0)
(0 -0.0150478 0)
(0 -0.0150461 0)
(0 -0.0138021 0)
(0 -0.00023709 0)
(0 -0.0113272 0)
(0 -0.0151135 0)
(0 -0.0102004 0)
(0 -0.00404365 0)
(0 -0.00806647 0)
(0 -0.0150185 0)
(0 -0.00234726 0)
(0 -0.00348738 0)
(0 -0.0149577 0)
(0 -0.0148274 0)
(0 -0.00873067 0)
(0 -0.00962477 0)
(0 -0.00400209 0)
(0 -0.0150428 0)
(0 -0.0142395 0)
(0 -0.015111 0)
(0 -0.0147944 0)
(0 -0.00792262 0)
(0 -0.00739132 0)
(0 -0.0123071 0)
(0 -0.0143494 0)
(0 -0.00194741 0)
(0 -0.0134234 0)
(0 -0.00202682 0)
(0 -0.00296943 0)
(0 -0.00392252 0)
(0 -0.0129464 0)
(0 -0.0149423 0)
(0 -0.0144452 0)
(0 -0.0151138 0)
(0 -0.00308149 0)
(0 -0.0147166 0)
(0 -0.00581809 0)
(0 -0.012235 0)
(0 -0.00295212 0)
(0 -0.00614781 0)
(0 -0.0148266 0)
(0 -0.00386481 0)
(0 -0.0151105 0)
(0 -0.00112641 0)
(0 -0.0150438 0)
(0 -0.0148933 0)
(0 -0.00873842 0)
(0 -0.00198272 0)
(0 -0.00858465 0)
(0 -0.0139035 0)
(0 -0.00176332 0)
(0 -0.00748127 0)
(0 -0.000837135 0)
(0 -0.01511 0)
(0 -0.0124635 0)
(0 -0.00782124 0)
(0 -0.00585942 0)
(0 -0.0103405 0)
(0 -0.000156105 0)
(0 -0.0125439 0)
(0 -0.00687919 0)
(0 -0.00800677 0)
(0 -0.0151019 0)
(0 -0.0137314 0)
(0 -0.0081051 0)
(0 -0.00554096 0)
(0 -0.0123201 0)
(0 -0.00447796 0)
(0 -0.000410026 0)
(0 -0.0150011 0)
(0 -0.0117798 0)
(0 -0.014813 0)
(0 -0.0101288 0)
(0 -0.00525895 0)
(0 -0.0150845 0)
(0 -0.0102737 0)
(0 -0.0146449 0)
(0 -0.0149043 0)
(0 -0.00375017 0)
(0 -0.0019034 0)
(0 -0.015097 0)
(0 -0.000238172 0)
(0 -0.00545152 0)
(0 -0.0138268 0)
(0 -0.0150258 0)
(0 -0.012444 0)
(0 -0.000252119 0)
(0 -0.00824163 0)
(0 -0.000559885 0)
(0 -0.00581914 0)
(0 -0.00202315 0)
(0 -0.0138148 0)
(0 -0.000220672 0)
(0 -0.00946223 0)
(0 -0.0151026 0)
(0 -0.000281944 0)
(0 -0.0115344 0)
(0 -0.0046962 0)
(0 -0.00503236 0)
(0 -0.015102 0)
(0 -0.00797733 0)
(0 -0.00875684 0)
(0 -0.013986 0)
(0 -0.0150929 0)
(0 -0.00280901 0)
(0 -0.000663227 0)
(0 -0.00795128 0)
(0 -0.0143744 0)
(0 -0.0147338 0)
(0 -0.0148073 0)
(0 -0.00189817 0)
(0 -0.000611568 0)
(0 -0.0127999 0)
(0 -0.00284898 0)
(0 -0.00154082 0)
(0 -0.00397689 0)
(0 -0.0116034 0)
(0 -0.0128666 0)
(0 -0.00741309 0)
(0 -0.0127174 0)
(0 -0.00351085 0)
(0 -0.0086985 0)
(0 -0.00399952 0)
(0 -0.0102471 0)
(0 -0.0114064 0)
(0 -0.0145467 0)
(0 -0.00373976 0)
(0 -0.0080508 0)
(0 -0.00289203 0)
(0 -0.00227399 0)
(0 -0.00266711 0)
(0 -0.00492268 0)
(0 -0.0150594 0)
(0 -0.0149774 0)
(0 -0.0136568 0)
(0 -0.0149935 0)
(0 -0.00469995 0)
(0 -0.00250127 0)
(0 -0.0057176 0)
(0 -0.00304204 0)
(0 -0.00468609 0)
(0 -0.0118306 0)
(0 -0.00919376 0)
(0 -0.00709043 0)
(0 -0.0131541 0)
(0 -0.00328124 0)
(0 -0.00224176 0)
(0 -0.0134636 0)
(0 -0.0116776 0)
(0 -0.00913264 0)
(0 -0.0148901 0)
(0 -0.00513151 0)
(0 -0.0136886 0)
(0 -0.0150423 0)
(0 -0.0149824 0)
(0 -0.0117085 0)
(0 -0.0139181 0)
(0 -0.0142294 0)
(0 -0.00862305 0)
(0 -0.000462549 0)
(0 -0.0150392 0)
(0 -0.015103 0)
(0 -0.00286232 0)
(0 -0.0148956 0)
(0 -0.00533621 0)
(0 -0.0101933 0)
(0 -0.013307 0)
(0 -0.00233828 0)
(0 -0.0148685 0)
(0 -0.0117543 0)
(0 -0.00521917 0)
(0 -0.0142668 0)
(0 -0.00770454 0)
(0 -0.0107837 0)
(0 -0.0150968 0)
(0 -0.0099758 0)
(0 -0.000684582 0)
(0 -0.0138552 0)
(0 -0.013567 0)
(0 -0.000633226 0)
(0 -0.014603 0)
(0 -0.0144053 0)
(0 -0.0036652 0)
(0 -0.0109182 0)
(0 -0.0128283 0)
(0 -0.0050422 0)
(0 -0.011562 0)
(0 -0.00807136 0)
(0 -0.0026199 0)
(0 -0.0150872 0)
(0 -0.00208001 0)
(0 -0.0150045 0)
(0 -0.0149626 0)
(0 -0.0101686 0)
(0 -0.0121322 0)
(0 -0.0101377 0)
(0 -0.00743123 0)
(0 -0.0147971 0)
(0 -0.01277 0)
(0 -0.00239445 0)
(0 -0.00220982 0)
(0 -0.0119571 0)
(0 -0.0150882 0)
(0 -0.0141426 0)
(0 -0.0150819 0)
(0 -0.0144408 0)
(0 -0.0148025 0)
(0 -0.000279357 0)
(0 -0.00463296 0)
(0 -0.0139282 0)
(0 -0.000230333 0)
(0 -0.0134395 0)
(0 -0.0140793 0)
(0 -0.0150987 0)
(0 -0.00937526 0)
(0 -0.0144408 0)
(0 -0.00493815 0)
(0 -0.0149754 0)
(0 -0.00893277 0)
(0 -0.00288615 0)
(0 -0.0148117 0)
(0 -0.014843 0)
(0 -0.0101052 0)
(0 -0.00772313 0)
(0 -0.0118664 0)
(0 -0.00548839 0)
(0 -0.0141253 0)
(0 -0.00785789 0)
(0 -0.011245 0)
(0 -0.00796265 0)
(0 -0.00816468 0)
(0 -0.0142541 0)
(0 -0.00214526 0)
(0 -0.000212371 0)
(0 -0.0151108 0)
(0 -0.000119839 0)
(0 -0.0150196 0)
(0 -0.0150028 0)
(0 -0.0150464 0)
(0 -0.00834933 0)
(0 -0.00717275 0)
(0 -0.00379492 0)
(0 -0.0079748 0)
(0 -0.0131969 0)
(0 -0.0151067 0)
(0 -0.0144305 0)
(0 -0.00870051 0)
(0 -0.000105658 0)
(0 -0.00816569 0)
(0 -0.0140103 0)
(0 -0.0150894 0)
(0 -0.0118737 0)
(0 -0.0150312 0)
(0 -0.0149686 0)
(0 -0.0151051 0)
(0 -0.0136698 0)
(0 -0.00569554 0)
(0 -0.0101654 0)
(0 -0.00549061 0)
(0 -0.000239673 0)
(0 -0.000109307 0)
(0 -0.0138863 0)
(0 -0.00920302 0)
(0 -0.000871337 0)
(0 -0.00541512 0)
(0 -0.00738169 0)
(0 -0.0141645 0)
(0 -0.00545405 0)
(0 -0.0138764 0)
(0 -0.00999265 0)
(0 -0.00246473 0)
(0 -0.0147998 0)
(0 -0.0151092 0)
(0 -0.0137437 0)
(0 -0.00113491 0)
(0 -0.00783091 0)
(0 -0.00525202 0)
(0 -0.00841891 0)
(0 -0.00736864 0)
(0 -0.010266 0)
(0 -0.0150585 0)
(0 -0.00812546 0)
(0 -0.000528975 0)
(0 -0.0133394 0)
(0 -0.00636214 0)
(0 -0.00489956 0)
(0 -0.00645152 0)
(0 -0.0052418 0)
(0 -0.00851 0)
(0 -0.0140566 0)
(0 -0.0136208 0)
(0 -0.00635062 0)
(0 -0.00464823 0)
(0 -0.00831862 0)
(0 -0.00208313 0)
(0 -0.00204993 0)
(0 -0.00075759 0)
(0 -0.0114937 0)
(0 -0.0150875 0)
(0 -0.00748165 0)
(0 -0.0145993 0)
(0 -0.01186 0)
(0 -0.0145517 0)
(0 -0.0115143 0)
(0 -0.012205 0)
(0 -0.0151065 0)
(0 -0.0125743 0)
(0 -0.00417845 0)