/*--------------------------------*- C++ -*----------------------------------*\
| =========                 |                                                 |
| \\      /  F ield         | OpenFOAM: The Open Source CFD Toolbox           |
|  \\    /   O peration     | Version:  v2012                                 |
|   \\  /    A nd           | Website:  www.openfoam.com                      |
|    \\/     M anipulation  |                                                 |
\*---------------------------------------------------------------------------*/
FoamFile
{
    version     2.0;
    format      ascii;
    class       volScalarField;
    location    "950";
    object      ddt0(omega);
}
// * * * * * * * * * * * * * * * * * * * * * * * * * * * * * * * * * * * * * //

dimensions      [0 0 -2 0 0 0 0];


internalField   nonuniform List<scalar> 
18758
(
-0.00182159
0.0124125
1.1623e-07
-0.00167959
-1.24585e-05
-3.89015e-06
3.92547e-06
3.71137e-05
-8.21874e-05
-9.30509e-05
0.0221275
-0.0316889
-0.00181286
-2.11725e-05
3.73003e-06
1.32732e-06
-0.0252076
1.96909e-06
3.6741e-06
0.000175065
-0.0590118
-0.0341085
-4.92776e-06
-1.30817e-06
-1.49693
-0.324869
-0.390581
-0.00708636
-0.00103142
0.00421836
-0.42036
0.0460029
3.4651e-05
-0.438951
-1.73572e-05
0.00514353
-0.00579196
2.36628e-05
-0.435445
-2.37709e-06
0.0163043
-0.000240516
0.00193618
1.02712e-05
5.57945e-07
-0.468579
-0.000208406
-0.00215182
0.566432
-0.00153004
0.0223307
-0.0826582
-0.00183608
-0.000149645
0.00570777
-0.0026218
-1.241e-05
0.0001491
-0.00279948
-9.62878e-06
2.5905e-08
1.85651e-05
0.0114619
2.18822
4.37224e-07
0.105029
-6.26985e-07
2.52962e-06
-0.00734985
1.74699e-06
-0.0473103
-0.0406599
4.92167e-07
0.00044508
-0.00317956
-0.589209
0.776351
0.257131
-0.000168126
0.0120024
0.00340478
-0.450946
0.0205718
3.07503e-05
-0.000205057
0.0075039
-0.000123942
0.000528008
0.0217393
0.00708912
0.101335
2.2441e-06
0.00125891
0.795502
3.42432e-07
6.51299e-08
6.15948e-08
-0.00181306
0.205555
-1.75397e-07
-0.707994
0.000663639
2.59614e-06
3.01448e-08
0.137755
-0.0523811
-0.00161477
0.0761571
0.496777
-0.201954
1.71705e-06
1.38899
-0.000175595
-1.95345e-06
0.000660398
0.0830783
-0.0016505
9.54958e-06
3.30838
0.000187742
1.42069e-06
0.830613
-4.40924e-05
3.88972e-06
-1.04738
-0.000140007
-4.5094e-05
3.41458e-06
0.00934286
-0.495176
-0.00248157
4.34e-06
-0.000213337
0.385675
-1.29668e-05
3.39253e-06
1.69831
7.46142e-05
0.0072609
0.00281019
0.000252864
-0.000469854
-0.00107738
0.506096
-1.0548
3.02387e-06
0.140514
0.00552997
0.018566
-0.405024
-0.635359
-0.0814722
-1.26258e-06
-8.26005e-05
0.0169791
0.354584
0.00108866
0.0114893
-0.000183251
0.0168355
-0.337047
6.30504e-06
0.85348
0.126698
-0.633152
3.33921e-05
6.19521e-06
0.478624
-0.567484
-0.0107346
0.573326
3.27629e-08
-0.000514029
-0.0395057
0.357404
5.94881e-06
8.71238e-07
-2.15506
-0.73582
-4.55019e-06
1.83624e-06
-6.91678e-05
0.00663666
-1.75914e-05
-0.77114
5.20875e-09
0.00624972
0.000625873
0.897414
-1.62165
0.0726165
2.50293e-07
-0.0050642
0.644348
-9.39422e-07
-1.44969e-05
0.0205187
-1.17724e-06
0.914681
-3.16591e-06
-0.000233095
0.00532419
-0.0230106
1.17652e-06
1.98027e-06
0.710201
1.05375e-05
-0.00013805
-0.558132
-0.277754
-4.81872e-06
0.000887241
-0.000330426
-3.33918e-05
8.28606e-05
-4.48261e-07
2.10416e-06
0.000924704
-3.0255e-06
-0.0106371
0.479344
1.11328e-05
-0.000977422
0.016846
-0.0111885
0.0248413
-0.00577235
0.00709899
-0.0027602
1.02605e-05
-0.261911
-7.00413e-05
0.363303
3.15474e-06
1.25241e-06
4.03459e-06
-0.00389744
0.0633565
0.0979854
1.51457e-05
2.05769e-06
-0.00347864
-0.000240143
-6.61691e-07
-0.580408
1.52565
1.13131e-06
2.0437e-06
4.78537e-05
7.1237e-07
0.635267
-3.37617e-05
0.0175198
2.07864e-05
-3.64386e-06
2.10471
2.03304e-05
-0.0217001
2.51146e-06
0.359977
-1.10492e-05
4.56348e-06
1.01902e-06
-0.00483739
-0.0252982
-0.0263115
4.58534e-06
0.00493653
-9.72697e-07
-8.12517e-07
2.67588
0.030885
-2.10734e-06
8.60497e-06
-0.000217941
6.89327e-05
-0.000239141
-2.31276e-06
-3.46028e-05
-2.00547e-05
1.86902e-06
5.41403e-06
2.54981e-06
0.0434175
3.9971e-06
8.18581e-06
1.05515e-06
-0.000578934
2.25187e-07
1.49655e-07
-1.29818e-06
-7.45186e-06
-4.13021e-06
4.78217e-07
-2.1628e-06
-0.000128975
0.0344252
6.41779e-06
-1.38697e-06
-1.57802
-9.69882e-05
6.68591e-07
7.65452e-07
-1.13963
0.0769005
1.76097e-06
-0.0101783
-0.0338158
-2.0617e-05
0.00146383
2.54095e-06
-0.0407219
0.0193455
-0.00574274
-0.000995378
-0.614955
2.50529e-06
-0.159788
0.0279776
-1.00255e-06
-0.0056081
0.000144641
-0.285269
1.73562e-06
2.53557e-06
-0.35654
-0.0379332
3.29078e-06
-0.841241
-0.00239614
0.00052961
0.762376
1.82803e-06
3.49286e-05
2.57616e-06
-2.06111e-06
-1.89891e-05
0.000358186
3.01958e-05
1.11408e-05
-1.66265e-05
1.17805e-05
1.40978
-0.936395
-1.53844e-05
-1.25755
0.194582
3.25215e-06
-0.000638194
0.0913481
-0.238731
0.00366817
0.0109422
4.579e-09
-0.381887
-0.107086
0.000187221
1.1359e-05
0.000331797
-5.71585e-06
-4.4654e-05
0.0576794
0.825378
-0.00689506
-0.00886269
0.828295
1.17864e-06
-0.000206268
-3.66959e-05
-0.00201859
0.345966
0.123523
0.187126
-0.00747113
0.0155493
0.00988982
-2.18245e-06
-0.13517
0.00655257
0.0440688
-0.0137733
9.19454e-07
-1.71865e-06
-0.112681
-0.000548286
-0.0298541
2.89524
-0.885859
1.56107e-05
-0.0166901
-0.17201
1.46937e-06
-1.27313e-05
4.38539e-05
0.000133424
1.51273e-06
4.48974e-06
-8.02513e-07
7.33796e-06
-1.93258e-06
-0.000179185
-3.54953e-05
-0.381309
-0.00027824
-0.620664
-0.650465
-1.574
-0.325444
0.00413566
-0.000124116
-2.77959e-06
0.00269079
-1.07213e-05
1.97305e-05
1.31693
-0.00200628
-0.0619037
1.70276e-05
1.53045
6.67725e-07
-0.000102556
9.4818e-07
0.884484
-0.0374533
0.00457396
-7.56335e-07
0.783458
0.00148749
2.2701e-06
0.00016952
-4.33998e-06
-0.11225
-5.90771e-06
5.56382e-07
-0.980127
-0.000283795
2.00048e-05
5.39299e-07
5.36454e-05
7.23914e-05
0.131917
0.686339
-4.00347e-06
-0.0441491
5.84395e-07
0.000651634
0.00684864
5.20231e-07
-0.399041
-3.52072e-06
0.000104472
-8.57477e-07
0.0207221
2.62737e-05
-8.55252e-07
-0.328699
0.0645906
1.22566e-06
-0.000209383
0.000140244
1.30725e-06
-2.92446e-06
6.60659e-07
-0.0189854
0.0262833
-1.55081e-06
-0.00123748
0.931191
-1.52083
0.0123181
1.18557
0.000584484
6.01428e-06
0.00259846
-0.00295016
0.000358519
4.06778e-05
-0.0142294
0.0803661
0.000167285
1.30518e-07
4.03651e-06
2.34174e-07
5.09069e-07
2.29573e-07
8.28201e-07
-0.0108086
-1.6309e-06
-4.99337e-07
0.00172192
4.93169e-06
-2.55794e-06
1.65443e-05
0.000128963
0.0777282
-0.0650359
1.02665e-05
0.0245106
-1.44866e-06
-0.000317094
0.00859208
0.0761702
-0.00563666
2.11551e-06
-2.28416e-07
0.033167
0.650995
0.0194947
1.94164e-06
0.46576
0.0750877
1.22163e-06
-5.45745e-07
0.485694
0.000100823
0.00310254
0.0154525
0.00011791
-0.00124539
2.17821e-06
4.79779e-06
-6.64093e-07
-4.61072e-06
9.49072e-06
1.22784e-07
-0.105566
1.24927e-06
-0.00150585
0.974355
1.28953e-06
1.32889e-06
-1.64407e-06
-0.000236474
0.000381051
0.561965
-6.3836e-07
-2.48044
-9.50899e-05
0.000453826
-2.46014e-06
-0.000130122
2.61813e-05
-1.73507e-06
-1.52256e-06
-0.0597756
-0.781955
1.83181e-06
8.73697e-06
-6.11872e-06
0.433437
1.14597e-06
3.13423e-07
9.35044e-07
-9.08698e-08
7.0385e-06
-1.4314e-06
2.34178e-05
1.15583e-06
-0.00301596
-9.02525e-07
3.94227e-06
-0.00555617
0.0971644
-0.000312556
-3.51574e-05
3.63162e-06
-2.48354e-06
1.49997e-06
0.000141599
0.230654
0.0324647
-6.27828e-06
-0.200442
3.85797e-06
-0.000663902
-3.76664e-05
-1.40156e-06
-5.84167e-05
1.40042e-06
-4.3258e-06
-0.68671
6.95383e-07
-1.77529e-05
-0.00885565
1.42896e-06
1.85715e-06
0.925021
8.92007e-06
0.0149646
0.0563313
-1.47299e-06
-1.87473e-06
0.000372345
9.00706e-05
0.000309135
5.58607e-06
-0.0354486
-0.342505
0.00815947
2.13443e-06
-1.72902
-8.84061e-07
-5.72707e-06
-1.64755e-06
0.000655055
-1.32994
-0.00681929
-3.08687e-05
-1.51792e-05
-3.88857e-05
1.26044
0.894502
6.3627e-07
-0.0119531
-0.000103622
-0.0550139
-0.000235199
-0.000766345
1.14854e-06
0.000917825
-0.00248678
-1.56271e-06
1.71603e-06
1.3701e-06
2.8202e-06
-0.000160243
0.272117
0.015244
-0.379216
0.000423821
0.000136461
-1.72203e-06
1.55252e-06
-0.0372242
-0.148869
1.02991e-05
-0.00126023
-0.182269
-0.253513
-4.69913e-06
-4.84933e-06
-0.000259649
0.0414487
-1.02351e-06
0.0988384
1.18117e-06
6.69318e-06
-0.000480617
2.18664e-06
-1.82668e-06
-5.10346e-05
1.436e-06
7.9232e-05
0.401956
-0.000212954
-0.0299307
-4.57734e-05
7.65707e-06
1.69899
-1.68358e-06
3.84576
-0.0972708
2.34657e-06
1.66213
-0.000337184
-4.25378e-05
1.56216
-0.0407719
-0.0452803
-0.0269944
7.96096e-05
-0.0131967
1.02694e-06
-0.485217
-1.73824
4.21357e-05
7.71705e-06
-0.01046
-9.32046e-05
-0.00249479
-0.146924
0.429002
-1.44264e-06
0.0213623
-3.49414e-06
-0.00155379
-0.00070221
2.11144e-06
-0.000660626
0.688925
0.0101538
0.000389002
2.9266e-05
-4.91908e-07
1.02176e-05
-5.71983e-05
0.000458695
-0.00454175
8.36815e-06
0.870554
0.000134678
2.42624e-06
-0.000193726
8.97704e-07
-0.0382296
2.43293e-06
2.78294e-06
-0.649693
1.61866e-06
-1.46476e-05
-0.0145236
0.00159143
0.0024644
-2.20217e-07
-4.62107e-06
-0.00334947
-7.4727e-06
0.053704
-8.39035e-05
0.000117915
-4.14362e-06
9.42759e-06
-8.85171e-07
0.512023
9.28597e-07
0.230995
0.0165402
-6.47201e-06
0.0251553
-7.20878e-07
-0.000313342
0.000336991
-0.667607
-7.2998e-05
-0.06324
0.011433
-6.73456e-07
0.0695207
8.85959e-07
-0.150321
-8.28367e-06
4.39171e-07
0.166613
-0.0207216
2.16776e-06
6.67796e-07
4.84476e-05
-1.46684e-06
-2.63732e-07
0.00516064
0.015651
1.13695e-05
-1.39225e-06
9.60105e-07
0.10287
-0.00598234
0.00484002
1.69237e-06
0.0209175
4.55304e-07
-4.44059e-06
-0.000325011
0.109917
7.24731e-07
-0.0012916
-0.138479
-0.000156914
0.108028
-2.31018e-07
-0.000172087
7.36025e-07
4.33385e-06
-0.000220938
3.40117e-06
-0.00239757
5.54638e-07
0.00184482
1.28126e-06
-9.33312e-05
-0.00171272
-0.0193268
-0.00139612
-3.10349e-06
9.49169e-06
0.0245803
0.0822734
-0.00139991
9.45972e-07
1.43496e-06
0.000441908
0.566558
-0.0175861
1.09282e-05
1.78279e-06
2.94131e-05
6.19955e-07
-0.000202427
3.26993e-08
1.33786e-06
0.0175769
2.27131e-06
1.59045e-06
0.0208778
2.38263e-06
1.37134
-0.00526203
1.27484
-0.159974
0.00819159
0.023518
6.44365e-07
1.05194e-06
6.05895e-05
1.16535e-05
4.28522e-07
1.15407e-06
-2.26105e-06
7.15458e-06
1.91055
0.00735052
-0.133332
0.000110172
1.15626e-06
-0.00019101
-3.20992e-05
-0.00410406
-5.85117e-06
-6.83544e-05
6.6161e-07
-0.299904
0.0475193
-0.603531
1.70614e-06
-0.00120505
0.00557075
0.10912
0.888796
0.672852
2.86702e-05
5.03833e-05
-1.8349e-05
-0.456152
8.03917e-06
-8.03355e-07
-0.00506322
0.625424
9.57859e-07
0.0183467
-0.0919753
2.55858e-06
-1.28602e-06
2.57242e-06
4.59213e-06
3.94528e-06
9.99094e-05
-0.000613953
2.12701e-06
8.72008e-06
-0.591389
-0.364293
3.38859e-06
-0.0185171
-0.297107
-3.45317e-05
4.94796e-05
1.14746e-05
-6.39622e-07
-1.66929e-06
-3.94889e-05
-3.48805e-06
-1.23574e-06
9.38902e-05
5.52147e-06
0.118074
-0.000246349
-3.40549e-06
2.05915e-06
-0.316361
-1.33248e-06
-3.68697e-07
0.119543
4.97809e-07
-0.00106532
-0.000227515
1.07869e-06
4.05638e-07
-1.5123e-06
0.000195075
-0.000293315
-2.73979e-06
-0.00642792
-0.00440916
0.00119939
1.31769
2.60306e-05
0.000781676
1.1862e-06
0.0748279
-7.66022e-06
3.3077e-06
0.0110771
2.8249
-1.71549e-05
-0.573049
-0.0916158
-1.09129e-06
-0.00041753
-3.69756e-07
4.64908e-07
-0.000191997
-2.4477e-05
6.6568e-07
0.0333249
5.91994e-07
7.51598e-06
0.013818
1.71961e-07
3.42565e-07
2.61569e-07
0.0573239
6.7155e-07
6.50347e-05
-0.000555253
-0.0608928
0.0414361
0.862149
-0.0854864
5.2277e-06
6.08349e-07
6.21843e-07
0.322856
-2.34973e-06
-8.24124e-07
-4.12666e-05
3.33912e-06
-0.145013
7.00904e-06
-1.48795e-06
-0.227284
-4.98176e-07
0.00165939
-0.7977
4.21983e-07
1.95015e-06
0.491662
5.39706e-05
-1.91858
-0.34198
1.37423e-06
-7.60847e-07
-0.0178751
1.09052e-06
-4.78276e-05
-0.035682
-1.09601e-06
0.152614
2.66288e-06
3.72624e-06
3.9412e-06
-0.00016132
-3.08816e-05
-0.0851111
-1.5092e-07
1.37987e-06
0.233339
0.0207548
-0.000361261
0.000309585
0.026384
0.991168
-0.318535
-8.59849e-07
0.941368
2.20869e-06
0.473028
-0.245989
5.92866e-06
0.000783812
8.43764e-06
0.0464226
-5.23047e-07
-0.672563
1.17777e-06
-0.137248
0.00641609
-1.73864e-06
-1.36388e-06
1.23321e-06
-0.263504
-0.178951
3.32388e-06
-0.0544274
2.94756e-06
6.51001e-07
0.138766
2.64269e-06
-1.62774
-1.34335e-06
-3.77207e-05
1.94149e-06
-1.69581e-06
1.26839e-06
-4.95748e-07
-0.00467005
0.000360421
0.00059418
-0.000924653
-1.35955e-06
3.13462e-06
-0.0208796
2.4145e-06
-0.0207708
6.65457e-07
-0.027611
-0.000240248
0.0062565
2.27937e-06
8.94532e-06
7.01273e-07
-0.0806415
-5.68536e-06
-0.0809921
-0.00167578
5.15504e-07
-0.000178494
2.55134e-06
1.52124e-06
3.56818e-06
5.23814e-06
-0.0329237
4.32843e-06
3.16389e-05
-2.05263e-06
-2.60598e-05
-0.408036
-0.0584602
-6.32555e-06
6.78277e-07
0.000150762
-9.2373e-07
-5.34156e-07
3.64962e-05
4.13735e-06
9.45584e-07
6.86806e-06
1.85659e-05
0.000739328
0.00264156
-2.2294e-06
5.35587e-06
-0.00772654
7.56298e-05
-2.13078
0.0220826
3.90594e-06
0.30215
9.50301e-07
2.78693e-05
2.85181e-07
8.22155e-05
-0.00250213
1.13878e-05
-0.00097499
0.0109307
-0.0014846
-0.010173
0.326467
0.227897
0.000487496
-1.05541e-06
-1.15711e-06
-0.0190443
5.5954e-06
-3.80779e-06
-0.000591277
0.0494921
-3.43142e-06
2.74356e-07
-0.571409
-6.24132e-05
-7.69268e-06
0.000114235
-4.72106e-05
-0.00223297
-9.36188e-07
-8.33689e-05
-1.43701e-06
0.000353879
0.000156117
-1.20388e-06
-2.37834e-05
-0.0762776
-7.42913e-07
3.14223e-06
-0.0161491
-1.43987e-06
-3.36237e-06
-2.85044e-06
-1.65072e-06
-5.68993e-06
0.0977873
0.00414213
-0.00619387
0.0154849
-0.144762
-0.0315678
8.49351e-06
0.841752
-0.0253042
-7.58296e-06
-5.87234e-06
-1.64475e-06
-1.15599e-06
-7.24115e-07
6.87074e-05
-0.00570366
-0.00385601
-3.88145e-06
4.94465e-07
0.000833079
9.50748e-05
-0.00401753
-4.91208e-07
2.27707e-06
8.8271e-07
0.488282
0.352469
-0.000593513
0.0497577
-1.38558e-06
4.53044e-07
-0.00513766
2.97053e-05
1.99435e-09
-0.0056921
-1.87474e-05
0.00122059
0.0375352
-0.00596357
0.000212768
-4.95421e-06
-3.45228e-07
1.35966e-05
2.85921e-06
-0.0179163
-0.00478876
-0.106475
0.0296796
-0.67275
-1.35773e-05
1.00251
0.218756
0.335171
0.00657527
-0.478381
-0.000272936
0.0143795
0.000944691
0.000514813
1.7834e-06
-1.00997e-06
-7.17645e-06
0.00106948
5.15738e-07
-4.44038e-06
0.0264066
0.458915
-2.30117
-0.0319385
0.00164338
-0.0051295
-0.000295036
-9.81303e-05
3.06043e-06
0.341151
0.529294
-2.65867e-06
-0.000607017
-0.542735
-0.331538
-0.364486
-0.000919319
-0.0014551
7.73477e-07
-1.66667
-7.62739e-07
-0.012669
-0.106111
0.000538163
0.0109446
0.00270333
-4.34744e-07
8.21417e-07
-0.0747671
0.213708
-0.00213107
-2.08168e-05
-0.000126107
9.79698e-06
0.0179242
7.78633e-06
-0.0365914
3.59549e-06
-0.0374635
0.0551273
0.000276181
0.880574
-0.00349253
-0.676016
7.38866e-07
0.000419497
0.205403
-0.000417831
1.61366e-06
-0.204178
-0.0674664
-1.57733e-06
2.62787e-06
0.00989891
-0.000281295
0.000116757
-0.031766
0.293891
6.53491e-06
-0.0004022
-0.266711
-0.000631689
9.94616e-05
8.34703e-05
0.0111975
0.000282097
1.37909e-06
4.06028e-06
0.798812
-6.225e-08
0.181182
-2.82858e-07
1.43013e-06
-0.0519775
-7.58344e-05
-1.31785e-06
0.0435204
-7.70563e-07
-2.58067e-05
-1.57051e-07
2.69093e-06
4.67114e-07
0.00346098
1.51509e-05
-0.040255
0.00564316
-0.000471163
-0.148667
1.97675e-05
1.35763e-06
1.43802e-07
0.0775766
-0.000193863
-1.98757e-05
-0.0227817
-0.000570852
-1.72607
4.07954e-08
4.93413e-08
1.28107e-06
4.19626e-06
-1.36759e-05
2.92216e-06
5.61039e-05
1.12505e-05
1.9095e-06
0.0373262
-0.000259945
-0.0441278
7.08198e-05
3.11659e-07
0.000214314
-0.272516
0.154564
0.0900086
0.0170185
-0.0746632
-0.00464926
0.17546
-0.000289154
0.000662579
-0.0017211
-0.698005
3.53375e-06
0.0263189
0.0343321
0.0248671
2.2033e-07
0.0735136
4.79682e-07
2.6901e-06
-4.58944e-06
-0.000458923
1.02667
-0.00360308
-1.26863e-06
1.31185e-06
1.64717e-05
5.64554e-08
-4.19479e-05
5.58861e-07
0.130357
-0.00441932
-0.000568838
-1.30691e-05
-1.22118e-06
1.77506e-06
0.0606485
-0.00745887
-4.17253e-07
0.000167669
-0.120134
1.58373e-07
5.76749e-07
1.62486e-06
-1.05242e-05
1.05553e-07
-1.84237e-06
-1.27853e-06
-0.0663146
-4.38825e-05
0.0385317
6.39977e-06
-1.0059e-06
-0.0245413
-3.68819e-05
-1.44843
-9.8754e-07
-0.000327019
-0.0237697
0.174328
0.000703406
-0.00554709
0.258448
-0.000113407
0.000641671
3.11484e-06
9.96202e-07
4.70229e-06
2.19021e-06
0.000686986
-0.00108346
-8.74943e-05
0.00566982
4.16157e-06
1.48775e-05
-0.00132569
-0.228779
-1.10886e-06
-0.000932267
-0.910369
0.00679691
-0.716642
8.29994e-07
7.42159e-06
-0.439399
6.17005e-05
1.49195e-06
-1.7463e-06
0.00684264
9.0473e-07
2.14821e-06
-0.741514
-0.00334725
-5.05921e-05
5.52938e-05
8.24552e-05
0.0639096
-7.33053e-05
-1.29176
-0.0143107
3.01896e-06
4.7105e-06
0.0530943
-0.000604501
0.000942813
-3.57137e-06
0.00239545
0.000346845
7.91719e-07
0.000119447
0.0671651
-0.00146483
-0.777403
0.0227251
-0.000899775
-0.0569574
0.0238564
7.52649e-06
-0.0428273
-0.701251
-0.000415003
0.176022
8.1553e-07
0.0661272
-0.00286699
-0.0705907
0.00171142
0.000481707
0.00047164
0.0227814
7.60825e-07
-8.39766e-07
-0.0686412
2.86056e-06
-8.78086e-07
2.02575e-06
5.95911e-06
-5.87064e-06
2.55557e-05
3.71393e-06
3.70441e-07
-0.0912926
0.661005
2.35072e-06
-0.000107063
0.0362137
0.0013221
1.55143e-07
0.113601
-0.00102474
-0.0017548
-8.5247e-06
1.62764e-06
0.0850224
1.60428e-05
-0.00364495
-0.00232509
2.32393e-06
0.00071173
0.206734
-5.12026e-07
0.0387571
1.37065
0.318019
2.26784e-05
-3.36748e-07
2.53245e-06
9.78592e-07
2.32967e-06
-0.05561
-0.589398
-1.41086e-06
0.441763
-0.310134
-1.80914e-06
-1.40173e-06
2.24071e-06
0.00217976
-0.613393
-0.000187402
-0.000884823
-4.20841e-05
0.258924
-0.0290667
1.04783e-06
4.86306e-06
-0.000260878
-0.00088203
0.874888
-0.00943757
1.64431e-06
0.985497
-0.0413445
4.37288e-05
1.70693e-06
-1.77785e-06
9.31124e-05
4.54934e-06
2.53478e-05
2.3044e-06
0.00453373
0.169623
1.12933e-06
7.70265e-06
-0.000969861
2.05262e-06
4.71223e-06
-0.000120443
-0.00752973
1.58859e-06
0.00010186
0.0495476
0.0280725
-0.0785536
0.00207316
6.03684e-05
9.22698e-05
1.02515e-05
3.60036e-06
3.61534e-07
-7.30591e-06
0.299648
0.000782118
1.70307e-05
0.000137795
6.81981e-06
-0.289426
-0.00576752
-3.27284e-06
0.0895053
1.99042e-06
-1.66695e-05
0.0332553
-0.336489
-0.000197323
-3.23216e-05
-6.2629e-05
0.00240155
-1.35384e-06
-0.0331209
-0.860873
1.58031e-06
-0.00277247
0.0169667
-3.27123e-06
1.75681e-05
0.00646142
-0.00335288
5.49688e-06
0.00860138
-0.000115397
1.4862e-06
0.0503549
0.03413
-0.059456
1.93373e-06
1.43315
0.00100971
-9.94777e-07
-0.00301572
-0.000549424
-0.000266486
-0.000985907
-0.191587
0.0106698
-0.000773656
-0.00135382
1.53649e-06
-0.12645
-0.0478136
-2.04928e-06
0.393123
-4.694e-06
0.0235103
-6.03061e-06
4.10536e-06
-0.00206095
2.54434e-05
0.0456585
-0.0443695
-7.48747e-07
-0.00879822
-0.755204
-0.0239484
-0.00045565
-0.00487779
-8.09833e-07
-1.80556e-05
-4.00228e-05
-1.0324e-06
-0.570346
-0.511215
-0.0521637
0.465959
-0.00756735
-0.00131666
-0.366851
5.57717e-06
-8.8256e-05
-0.468821
-0.00321988
-7.05902e-06
-9.55613e-07
0.00128328
-0.00215733
-4.47211e-05
3.3079e-06
7.31612e-06
0.00228425
-1.80985e-06
-0.00468263
-0.0491893
8.71999e-06
-0.322397
-1.41244e-06
-0.608138
-0.108568
-0.0600027
-8.55284e-05
-0.0482554
0.000191003
6.21325e-06
1.36687e-05
-0.905547
-0.00110374
-0.602303
-2.74916e-06
-1.85846e-06
-0.0149278
-0.181074
-6.53166e-07
0.00766103
0.721357
-1.19462
0.381065
3.0725e-08
-8.14752e-06
0.0192168
-8.68859e-07
-1.99022e-06
2.60671e-05
-3.38555e-06
1.42577e-06
-6.82386e-07
-5.64042e-07
-9.45426e-05
1.77177e-06
0.000619159
0.000807186
-0.000134155
-0.488201
-0.608799
0.000209765
7.05901e-07
2.35719e-06
0.000100951
3.15361e-07
3.08901e-06
2.34129e-06
0.00611406
4.09244e-06
3.38711e-06
9.71874e-05
0.041447
-0.00214501
-2.01099e-07
0.00120697
-0.00101098
1.33069e-05
-0.0360362
0.0587302
-9.22653e-06
9.22737e-07
0.0119982
0.00690786
1.24653e-05
-0.0310762
-2.70098
2.09875e-06
0.790738
-1.17047e-05
-0.00431474
-0.368198
0.0288345
0.356274
3.4937e-05
5.19875e-07
0.550901
-9.84434e-05
-0.646236
0.00135914
-0.0430295
0.134154
2.54947e-05
-0.000786528
2.42609e-07
0.0331912
-0.00623561
-0.213714
4.16246e-06
-1.94781e-06
-0.00514426
-2.05451e-05
0.44257
-4.11849e-06
0.0440348
-0.210303
-0.0020309
-0.0146025
-0.687865
2.93897e-06
-5.31671e-07
4.11298e-06
0.227827
0.00630159
1.14383e-05
3.94131e-06
1.08554e-05
8.08427e-07
0.000468981
3.40261e-06
1.48668e-06
0.00109473
1.22126e-06
2.07047e-06
-0.000209427
-0.654121
-0.436769
0.377696
-1.78429e-06
0.0492899
0.00036558
-0.000141588
0.00702064
-0.0284601
-0.854021
-6.97001e-05
-0.0016416
-1.00149e-07
-0.00113273
0.00127848
-0.00313047
-0.0372072
-2.3493e-06
-0.00581916
5.57917e-06
0.00882441
0.00430954
1.57404e-06
3.10402e-05
2.47381e-07
4.40246e-08
-1.75408
-4.81053e-07
4.55143e-06
-4.85635e-06
-2.24093e-05
-1.8801e-06
2.64362e-05
2.16485e-06
8.67057e-06
4.23813e-07
9.58782e-07
-0.686806
0.0944687
-0.0153793
-4.65696e-06
-9.52759e-07
-1.2848e-06
-1.74594e-06
-4.26386e-07
0.00106897
8.07119e-07
1.78621e-06
3.22028e-06
1.35891e-06
-0.000553276
2.52996e-06
-0.00895753
0.356382
-0.00116548
-0.233584
-9.84692e-07
-0.371185
-0.00147024
-0.019261
-2.81769e-05
0.133682
1.42727e-06
4.51826e-06
-4.50508e-06
0.0901199
-0.00107993
2.44474e-06
-0.00802885
0.000156568
-1.4031e-06
-0.0054069
-0.00296442
0.000880535
-1.11572e-08
-0.000114884
-0.0220819
0.000376841
-0.675377
2.61311e-06
2.7228e-05
4.73416e-06
0.000121949
-0.000562736
-0.0473358
0.00100769
2.66911e-06
1.31475
-0.00741325
0.00150103
4.86518e-07
0.000254971
0.0861005
-6.63516e-07
-1.91253e-06
0.000240408
-0.684474
-4.83766e-06
-7.36307e-06
4.33748e-06
0.00082599
-3.97078e-05
-0.09476
-5.68139e-06
-0.000140101
-0.000452399
-0.0501566
2.63029e-06
4.29581e-07
9.19795e-08
-0.000719777
5.97296e-07
-0.684296
-0.283878
0.000785719
0.0419675
2.40704e-06
1.14466
-5.33529e-07
1.40089e-06
-0.00296162
-0.001758
0.0441216
-0.00943508
0.139754
-1.69082
0.000492004
-0.00111642
2.84415e-05
0.261205
1.59891e-06
-2.84305e-05
-0.00805509
-5.06027e-08
0.009094
0.0131536
0.00644856
-0.0488394
0.000253176
-0.725107
0.0152522
0.00178487
-0.000101441
0.00123946
5.06883e-06
2.94711e-06
9.91211e-07
0.191922
-0.0833308
-0.00392314
0.000214878
9.21088e-05
0.0167962
2.55599e-06
-0.00463342
1.31789e-07
-0.00145517
2.24403e-06
-6.37205e-07
-0.00027864
-0.000838963
0.5877
0.000840021
-0.00046933
3.97442e-06
-0.000313349
-0.474322
4.89045e-06
-0.0025651
-1.77938
-1.10175e-06
0.000966069
1.17387e-06
-0.592878
-4.55118e-05
-2.56487
1.11641e-05
1.86418e-06
-0.000157012
-0.00435284
-0.0630174
-0.00247896
0.0109352
-2.31171e-05
-2.93526e-07
-2.60717e-06
7.61604e-07
2.33084e-06
1.97241e-06
0.396149
-0.279451
-6.9363e-06
2.70815e-05
-0.000166583
-0.000117377
-4.47607e-07
-1.71473e-06
-0.00232388
-0.0093862
0.0589098
-2.6119e-06
0.0134327
1.16156e-06
0.000280641
-2.2275e-05
-0.00108281
0.70303
0.0148094
0.0140849
-4.9582e-07
-8.5883e-07
1.97107e-06
-1.07234e-06
5.0539e-06
-5.1081e-07
0.167176
2.93548e-06
-0.000113894
1.98319e-05
0.000969202
1.05809e-06
-0.165522
-0.0200521
0.0478726
-7.07146e-06
0.0451528
2.00673e-06
0.0481331
-1.06548
-8.61274e-05
0.0495149
-8.53918e-05
-1.54983e-05
-7.95859e-06
-2.66775e-06
-0.000374018
-0.000706102
0.000864759
-0.0403799
0.0371051
0.00950226
-0.000543715
-2.27165e-06
-7.63088e-07
-0.207002
-4.80685e-05
-0.197435
-2.62417e-05
-0.00332203
-0.147572
-0.00647689
2.8181e-05
-0.173717
6.93255e-06
-6.16958e-06
8.11876e-07
8.83127e-05
-0.000570866
2.96096e-06
0.0776051
-0.00157207
0.00211476
7.45116e-07
-0.00019359
0.188481
0.00172514
-0.0250451
-0.000145256
-0.000756369
-0.179344
0.252792
3.51247e-07
-0.000260231
-0.00534721
-0.000808745
-0.00741484
-0.00011396
6.41228e-05
0.922918
1.41933e-06
0.0239502
-0.000701621
5.00966e-06
0.0506038
-0.0103779
-0.0949978
-0.000364341
0.00748561
-0.00271588
4.32246e-07
-0.00318697
1.13319e-06
-0.156433
-6.79082e-06
-3.58483
-0.199627
-0.160237
-0.0454805
0.00639123
-0.329504
-0.000103105
0.00776591
-0.0358498
0.548601
-1.8023e-05
3.59592e-05
4.88665e-06
-0.000243478
2.89702e-06
2.08048e-07
-0.371722
7.82314e-07
1.66849e-06
0.000536997
2.69381e-05
7.43351e-07
-0.00890521
0.793748
0.00183836
-8.20999e-07
2.7507e-06
-0.00049584
3.42798e-05
1.05909e-07
2.1182e-06
3.9288e-07
0.885431
-0.000194766
0.0020502
0.000463423
-3.34934e-06
-6.57576e-07
1.32237
0.0194088
0.527661
0.000148122
-4.6132e-07
-0.00139385
2.58712e-06
-0.000234689
-0.4203
-0.0136026
0.000452064
-4.7595e-05
6.53863e-06
5.86734e-05
-0.0516989
-0.0210347
-0.00721947
-0.000162823
1.03139e-05
1.60706e-06
-0.00012225
-0.0934234
0.921817
4.78671e-06
-0.0149214
-8.38763e-07
2.44809e-07
-0.00652315
-3.62905e-07
0.543923
-0.00615883
-0.184662
-2.74355e-07
-0.00035811
-0.00125311
-0.0212048
9.12528e-06
-8.22713e-05
0.141788
0.0168947
1.03091
-0.043072
-2.9777
8.47189e-05
-0.0024355
-0.000158055
-0.000418417
0.0644186
0.000343711
2.94859e-06
-3.00838e-07
-9.44397e-07
-0.349044
-0.0172575
0.000116665
-0.719992
2.67876e-07
3.24512e-06
-1.37538e-07
0.00465609
0.00629766
-0.331991
-1.51645e-08
1.38257e-05
-0.000822792
-1.70581
1.63723e-06
-0.00668365
9.18568e-05
0.000224772
-1.72121
1.60344e-06
-0.473357
-0.00360024
0.192911
-2.32338
3.96707e-05
-6.42336e-05
0.000382822
-0.444121
-0.00246312
-1.11718e-06
-0.763545
0.0727624
-9.86321e-07
-2.14807e-05
-0.398843
-1.81055e-07
-1.45363
0.342156
-0.000131991
4.63019e-07
0.000126911
-0.000264212
-0.0136906
1.40071e-06
-6.89258e-05
-7.16833e-05
-2.45784
-0.0626967
3.08429e-06
1.89359e-06
-0.0117802
0.000363151
1.04608e-07
-7.23228e-06
1.91854e-06
-0.00286163
-3.432e-05
-0.162601
2.96326e-06
-1.94046e-06
5.33205e-05
6.68064e-05
0.000304618
-9.53102e-05
-0.0459839
0.00931765
0.00880335
-2.27472e-06
1.31695e-06
-0.118007
-0.000299039
0.000540749
-0.433103
0.00459408
-0.0554168
0.100397
1.68232e-06
-0.147772
0.0449721
2.10318e-06
-1.06902e-06
5.05481e-08
5.82319e-08
0.592858
-0.0228814
5.0054e-06
0.215036
0.232632
-0.320879
-7.75021e-07
-1.32614e-06
-1.95766
2.08895e-06
6.8087e-06
1.72371e-05
4.56126e-06
-1.25485
7.35794e-06
0.0110072
-0.00288021
1.66878e-05
-0.0138257
-0.0237018
-0.326959
2.34393
2.2527e-06
0.00016889
0.000191027
-2.18554
1.1633
0.0569658
1.11766e-05
-1.46114e-07
-0.0015262
-1.97888e-07
-0.161006
0.109341
2.71812e-06
-0.390746
3.24557e-06
-0.779455
4.82745e-06
-0.0297545
8.78106e-06
-0.000363497
0.0424991
0.055524
-0.709536
-1.3617e-06
-0.765244
-0.00363328
1.52174e-05
-0.162541
1.95615e-06
1.6436e-07
-2.90431e-06
-7.09412e-06
0.000105492
-1.73188e-06
2.95297e-06
-0.162548
-0.00152576
-0.00271258
-0.015525
-0.00391126
0.000140773
-1.21563e-05
-0.00339942
1.34656e-06
0.00663736
-1.06677
-0.0143103
-0.00153039
-9.0459e-05
-5.45192e-05
2.02345e-05
-0.00300637
6.35098e-05
7.7618e-07
-1.24327
0.322228
0.0402605
0.000224678
-1.32224e-06
-0.00226815
-0.0153642
3.08068e-05
3.42424e-07
-8.48926e-05
6.64421e-05
-0.00152823
2.68182e-06
0.0343299
4.31173e-07
0.104468
-1.27424e-06
0.0585155
0.0650795
-0.40927
-5.37464e-06
0.00715289
-1.21e-06
3.19236e-06
-0.00541637
0.208324
4.47059e-06
-6.45035e-06
0.046311
-9.63447e-07
-0.00428397
-0.042469
0.000472378
0.110972
6.46892e-06
1.05899
-0.000551745
0.012885
1.00061e-06
-3.5277e-06
0.00183211
-1.08207e-06
-0.000219715
0.000159493
-6.70455e-05
0.34846
3.16634e-05
-2.29757e-07
-4.18953e-06
4.1691e-07
-0.561451
-0.0616653
3.5647e-06
0.0141039
-0.00643409
-0.00458258
2.52212e-07
0.617445
0.024358
-0.00011725
-0.000453621
8.62329e-07
0.264258
6.3154e-07
0.0630894
8.06659e-07
1.70355e-05
2.38287e-05
-1.04038e-06
9.48524e-07
-0.00341899
-2.19871e-05
4.18037e-06
-0.0328753
3.84883e-06
-0.0010324
-0.000205037
-0.266143
-0.00413793
-3.07691e-05
0.000740709
3.22994e-06
1.85696e-06
0.00013951
-7.01663
0.0124748
-0.0412134
-1.93496
8.02721e-07
-1.94405e-07
-3.81457e-06
2.35151e-06
-1.56292e-06
-0.139884
2.87505e-06
-0.000118305
0.033523
-3.02902e-05
1.11997
7.14519e-07
6.62179e-07
0.895237
-0.0172075
-9.05956e-07
5.43538e-05
2.04537e-05
0.00839945
-3.39489e-07
7.50703e-05
-0.162531
3.84276e-05
0.0212322
0.316935
-7.09353e-06
1.17721e-05
-2.63785
0.000220671
-0.00410757
-0.572685
-0.258227
2.56772e-05
9.5995e-05
4.00232e-05
-0.841219
4.41807e-05
0.0536317
0.343178
-0.373107
0.0252566
-1.28986e-05
1.68236e-06
1.0374e-06
0.0200509
0.121618
0.755164
0.236293
-5.3587e-06
-0.221272
6.35238e-06
0.270919
-2.99001e-06
-0.00136544
0.00115011
-5.97312e-05
4.95576e-05
0.00686833
-0.000122333
3.60409e-06
-3.96883e-06
-0.00388276
-2.29527e-06
2.91552e-06
-1.06679
1.7687e-05
2.10155e-06
-1.67731e-06
-0.219206
-0.00224432
-0.0468779
0.000179152
-1.71597e-05
0.0328461
0.00016884
-0.0061462
2.76548e-06
1.55397e-06
0.0295976
-1.13092
0.222806
-3.53425e-05
0.000204589
-0.00731529
-0.00712793
-0.000735995
0.0414245
-0.140514
-0.124331
1.04313e-06
0.0545302
8.67058e-06
-0.00134266
-0.145532
0.00632392
0.00632093
1.53995e-06
0.513447
-0.0058564
0.0327509
0.00883839
3.72476e-08
6.88083e-07
3.53454e-06
-0.141328
3.79106e-07
-0.0503541
-0.00180988
0.0471099
-1.74617e-06
-0.321832
0.0123993
0.0253004
-0.0420964
1.94769e-06
3.20866e-07
1.62879e-06
-0.000222262
1.36834e-06
0.000252945
0.191873
-4.20506e-06
1.44265e-05
-0.0423001
0.0148575
0.0131216
0.00033994
8.52182e-05
-8.85352e-07
-0.319189
-0.000109271
0.257835
-0.00171195
0.0486492
0.000732813
0.00643336
0.456856
2.1913e-06
1.94331e-06
-0.712374
0.00504627
-0.00114726
0.00214281
-0.00228931
-3.79409e-06
-0.00242796
1.57203e-07
0.410405
2.87698e-08
-2.26087e-05
-0.0448573
-3.24485e-06
0.00684678
8.95162e-07
0.0554207
-0.255212
0.000736515
-0.000225964
-0.0724284
-0.000268416
3.60652e-07
-0.042782
0.0297714
-0.444301
1.92954e-06
1.31008e-05
-0.765031
-0.163102
-0.937935
3.67043e-06
0.000117811
-7.08481e-07
2.04173e-05
9.85597e-06
1.17259e-06
1.18464
3.0451e-06
-0.0442931
0.000147032
-0.163559
-4.69472e-06
-0.606372
-0.295527
0.00589445
-1.35359
0.218086
1.92374e-06
-0.00605293
1.29118
1.27805e-06
2.90334e-06
-6.72108e-06
-0.224773
-0.661178
2.55197e-07
-1.21759
-0.000928963
2.91186e-06
0.0110472
-3.0151e-05
-0.00551833
-0.250353
0.811467
-1.63929e-06
0.0969165
0.000419336
4.29556e-06
-1.0505
-0.000687867
0.0237034
-0.107346
-0.000415217
0.226655
-0.000955306
0.000122932
-0.109646
0.0193259
0.0722681
-6.74864e-06
-2.06089e-06