/*--------------------------------*- C++ -*----------------------------------*\
| =========                 |                                                 |
| \\      /  F ield         | OpenFOAM: The Open Source CFD Toolbox           |
|  \\    /   O peration     | Version:  v2012                                 |
|   \\  /    A nd           | Website:  www.openfoam.com                      |
|    \\/     M anipulation  |                                                 |
\*---------------------------------------------------------------------------*/
FoamFile
{
    version     2.0;
    format      ascii;
    class       volScalarField;
    location    "950";
    object      p;
}
// * * * * * * * * * * * * * * * * * * * * * * * * * * * * * * * * * * * * * //

dimensions      [0 2 -2 0 0 0 0];


internalField   nonuniform List<scalar> 
18758
(
0.00258847
-0.00104054
0.00270205
0.00257614
0.00558786
0.000522525
-0.00611256
-0.0116118
0.00542662
0.00528954
-0.00155482
-0.0530949
0.00574826
-0.0221075
-0.00567766
-0.00434399
-0.0450556
5.21042e-05
-0.00562272
0.000330493
-0.00683619
-0.0296292
0.000588288
0.00123852
-0.0267974
0.0378162
-0.0313558
-0.0103512
-0.0189318
-0.00665442
-0.0370998
-0.0333467
-0.0115511
0.0138283
0.00583423
-0.00750912
0.00541559
0.00559855
-0.0545997
0.000570095
-0.0364052
0.00526005
-0.0125232
0.00323293
-0.00254558
-0.0245633
0.00495923
-0.0171356
-0.103708
0.00246335
-0.00234874
0.00640751
0.00228517
0.00386238
-0.031379
0.00550316
0.00300906
0.000108715
-0.0179303
0.0029968
-0.00208494
0.00326365
-0.0263892
-0.0816062
-0.00193585
-0.0165896
0.00149996
0.0020325
-0.0101451
7.85634e-05
9.12847e-05
0.0402758
-0.00305141
0.000746591
0.0128551
-0.0308026
-0.0239689
-0.0330197
0.00540394
-0.0113863
-0.0338903
-0.0526604
-0.0350102
0.00744715
0.00319143
-0.0384417
-0.0395296
0.00128191
-0.0286249
-0.0418171
-0.0521354
-0.00339401
-0.0449981
-0.0978776
-0.00307735
0.0014233
0.000353384
-0.0273859
-0.038298
-0.000202869
-0.0194627
0.00574103
0.00199706
0.00145543
-0.0116238
-0.00615065
-0.0172057
-0.0451223
-0.0121548
-0.0101851
-0.00487811
-0.0911496
0.00354679
0.00241937
0.00638157
-0.0348648
-0.026623
0.0029051
-0.0580348
0.00310549
0.00225313
-0.0287152
0.00321767
0.0028953
-0.165222
0.00381157
0.0031644
0.00288551
-0.00362125
-0.141066
-0.0182459
4.05979e-05
-0.0124485
-0.00886513
0.000474916
0.00194759
-0.0771923
0.00313355
-0.0164216
-0.0325748
0.00377269
-0.0412714
-0.0346221
-0.0207047
-0.16525
-0.0495454
-0.0106806
-0.00802217
-0.00031346
-0.0465584
-0.138274
-0.140676
-0.0153748
0.00576431
-0.0359545
-0.0044956
-0.0436068
-0.00104908
0.0100582
-0.00212251
-0.0117969
0.00300713
-0.104313
-0.00663536
-0.00713167
0.00302456
0.00299264
-0.0179724
-0.142883
-0.064068
-0.132453
0.00268994
-0.01589
-0.0011819
-0.0113872
0.00131592
-0.00328325
0.0289061
0.0142254
-0.0241482
0.00180305
0.00356803
-0.0304996
-0.0288532
-0.0495644
-0.00897157
-0.00397644
0.00794751
-0.0912048
0.0100332
-0.138583
-0.00880695
-0.0094165
0.00375861
0.00131261
-0.0270639
-0.0198153
-0.0150371
-0.0846617
0.00186228
0.00292611
0.000709685
0.017618
-0.00439225
-0.00492787
-0.0960822
0.00297902
0.00589804
-0.138256
-0.138658
0.00201787
-0.038729
0.00286201
0.00360468
-0.000300327
0.000418096
-0.00522788
-0.0403049
0.000585696
-0.0271302
0.00611897
0.00307411
-0.0336316
0.00212096
0.0160708
-0.00277346
0.0138149
-0.0539245
-0.0119468
0.00293579
0.037447
-0.0478673
-0.0070571
0.00195569
-0.00147401
0.00307943
0.00744856
-0.119974
-0.0250388
-0.0101843
-0.00513835
0.00719659
-0.0137911
0.00241749
-0.0444377
-0.00987772
-0.0016997
0.00214557
0.0031548
-7.30766e-05
-0.131294
0.00317743
0.00293465
0.00308471
0.000388913
-0.0351549
0.0030155
0.044599
-0.00582703
-0.0777618
0.0038588
0.00293466
-0.00179728
-0.00906752
-0.0052301
-0.00460226
0.00295009
-0.0152485
-0.0157185
0.00134065
-0.0543558
0.0404242
0.00114688
0.00287824
0.00170483
-0.000626691
-0.0190456
0.000566644
0.00365839
-0.0214718
0.00209471
2.35079e-05
-0.0057664
-0.00532825
-0.0059857
0.00284331
0.000177663
-0.0135837
0.00155635
0.00151449
0.00244813
-0.0232768
0.00299866
0.00243621
0.00233182
0.00327081
-0.00553602
-0.00340536
0.0012761
-0.179634
-0.0301328
0.00269189
0.00263396
-0.0335022
-1.16788e-05
0.00176552
0.0029018
-0.00305038
0.00326336
0.00622157
-0.00591414
-0.00807793
-0.0179916
-0.0125963
-0.0205461
0.0119308
0.00192431
-0.0285736
0.00671011
0.00131414
-0.0127917
0.00903856
-0.0576606
-0.000709297
0.00195582
-0.138373
-0.00347589
0.00245222
-0.15747
0.00599859
0.0037883
-0.0177944
-0.000732499
0.00302936
-0.00595916
0.00242212
4.70185e-06
0.00274511
-0.0122185
0.00302461
-0.000336631
-0.0113527
-0.017122
-0.0349543
0.0030966
-0.0303455
-0.0332922
0.00241914
-0.037237
-0.000217847
-0.0448484
-0.0384589
-0.0207608
-0.00899255
-0.141829
-0.0818274
0.00738291
-0.0114827
0.00388637
0.00368708
0.00320883
-0.022517
-0.00524057
-0.0300266
0.0153473
-0.0122068
-0.00156833
-0.0324264
0.00386537
-0.0250274
-0.113991
-0.0325532
-0.00831628
-0.00114685
-0.0337836
-0.0222031
0.000272602
-0.022821
-0.00577527
-0.00153843
-0.0280331
0.00149046
0.00122548
-0.0357028
-0.0378895
-0.0157738
-0.0578151
-0.158951
-0.0106179
-0.0597922
-0.0129086
-0.00452007
-0.0196195
0.000481752
0.00347809
0.00233993
0.0037395
-0.010552
1.93281e-05
0.00255766
0.00310471
-0.00497975
-0.0642029
-0.0410164
-0.0900178
-0.0808185
-0.173364
-0.0584526
-0.00706796
0.00321044
0.00117406
-0.0154342
-0.019084
-0.00940354
-0.0537208
-0.0243682
-0.00634349
0.00301874
-0.0173803
-0.00235129
-0.0302653
0.00157962
-0.0663083
-0.00775417
-0.0423217
0.00235239
-0.0270711
-0.0492209
-0.00614315
0.00355902
0.00186453
-0.00425294
0.00217593
0.00241855
-0.00553486
-0.0421613
-0.00981544
-0.00328664
-0.00971154
-0.0098674
-0.102294
0.000949732
0.000893658
-0.0212518
0.00154505
0.00277619
-0.0560085
-0.00858554
-0.0423226
0.000734628
-0.00918663
0.00256055
-0.0282579
0.0031524
-0.0103267
-0.13407
-0.000168612
0.00017193
-0.0315653
0.00473493
-0.00444204
0.00260081
-0.00651194
-0.00346653
-0.0801522
-0.0156092
-0.022939
-0.0146368
0.0230251
-0.0234702
-0.013275
-0.0241715
0.00285619
-0.00900665
0.00614024
-0.000489745
-0.0108896
-0.0290796
0.00263019
0.00362596
0.00265053
-0.00600522
0.00173031
-0.00847494
0.00175942
-0.00821023
0.00779
0.00245671
0.00138065
-0.0536009
-0.000204306
0.00255639
0.00077712
0.00455681
0.00290632
-0.0087907
0.00297799
-0.00315768
0.00012827
-0.0392126
-0.0119616
-0.0970077
-0.00208137
-0.0052483
-0.00918861
-0.0871295
-0.0163367
0.00270606
0.00300774
-0.00513505
-0.00905415
0.000131029
4.60572e-05
-0.0177401
-0.000759927
-0.0297385
0.00276298
0.00358969
-0.0218974
0.0021599
0.00123744
-0.00389594
0.000975548
0.00292769
-0.00264663
-0.0303446
0.0018599
-0.00721399
-0.0173602
0.000135764
0.00185391
0.00247525
-0.0257375
0.00633644
0.00290593
-0.000357095
0.011993
-0.00742091
-0.000441116
0.00307828
0.00308261
0.00323515
-0.0151723
-0.0151146
-0.177726
-0.0444888
0.00208448
0.00288443
-0.0226278
-0.0184436
0.00161521
0.000372371
-0.00815281
0.00142935
0.00280976
0.00306618
-0.000375246
-0.00430749
-0.0164721
-0.00051299
0.000596545
0.000733513
-0.102298
0.00378336
0.00315997
0.000601674
0.00260255
-0.00397872
0.00305026
-0.0016191
-0.00453744
-0.0237638
-0.0115583
0.000683985
-0.0377797
0.00318109
0.00176532
-0.0461673
0.000164012
0.000977264
-0.0365129
0.00261734
-0.027211
0.0158245
0.00263863
-0.00782486
-0.074203
0.00288768
0.00838239
0.00183297
0.00256279
0.00264718
0.00687245
-0.0079915
0.00635341
0.00123811
-0.0770631
-0.0156265
-0.0227943
0.00214578
-0.183518
0.00127008
0.00204541
-0.00112182
0.00264055
0.00458044
-0.0024198
0.00314726
-0.0277524
0.00313421
-0.0356769
-0.00188592
-0.00275073
0.00265604
-0.0282501
-0.127289
-0.0134667
0.00388894
0.00227422
0.00232245
-0.0222065
0.00254344
0.00232107
0.00165233
0.00234314
-0.0152349
0.00644043
0.00332006
-0.0345188
0.00420622
0.00490305
-0.000956735
0.00221045
-0.00947832
-0.0395481
0.000721871
-0.0309812
-0.140415
-0.179887
0.00193749
0.000921592
0.00843233
-0.019052
0.00120496
0.000425862
0.000635798
-1.17914e-05
-0.0366032
-0.00626515
-0.0156077
0.0033178
0.00191485
0.00347041
0.00561953
-0.0444554
-0.0288392
0.00354296
0.00284303
-0.0447352
0.000427981
-0.0603773
-0.0323978
0.000811881
-0.0657181
0.00340715
0.00316946
-0.0746213
-0.00151477
-0.00200661
-0.00640364
-0.00800391
-0.033247
0.00191088
-0.028828
-0.177175
0.00716876
0.00308705
-0.0638257
-0.0276782
0.0150603
-0.000307855
-0.104947
-0.01424
-0.0332939
0.00188265
-0.0292279
-0.0174533
0.00263632
-0.0221207
-0.0209865
0.00743787
0.00187795
-0.000222035
0.00136286
-0.0120751
0.00326253
0.00775073
0.0123358
0.00296331
-0.0399309
0.00468179
0.00143424
-0.0369543
0.0016608
0.00200007
-0.00561553
0.00237323
-0.0522066
0.00211188
0.0037535
-0.012309
-0.0474764
-0.0590368
-0.00959944
0.000841915
-0.0102258
0.000176979
-0.0241334
-0.0312891
-0.000531796
-0.0182256
0.00171971
0.00128313
-0.0160358
0.00165087
-0.0296495
0.0058469
-0.0242806
-0.0188721
0.00174727
0.00374451
0.00150711
-0.0469515
-0.0323826
-0.0048687
-0.0279876
0.00143649
-0.0102314
0.00265832
0.000998161
0.000384163
-0.0144387
0.0228447
-0.0210886
-0.00510786
-0.00258311
-0.0103688
0.00272011
-0.009427
-0.0288484
-0.115117
0.0031
0.00270319
0.0026537
-0.0872089
-0.000429872
0.00413481
0.00199429
0.00209116
-0.0139941
0.00102279
-0.0404736
-0.0398796
-0.00288534
-0.0320275
-0.00218117
0.00143898
5.48252e-05
-0.00961042
-0.011779
-0.00284154
0.00290698
-0.0310292
0.00161544
-0.0227889
-0.00830986
-0.00479682
0.000609422
-0.0313362
-0.0188531
0.00686203
-0.0282252
0.00113508
0.00169034
-0.0298342
0.00180247
0.0143801
0.000731285
0.000177613
6.21012e-05
-0.129845
-0.018917
0.00308795
-0.00481276
-0.00757704
-0.0026588
0.00333246
-0.00304184
0.00265133
-0.0250868
-0.00556226
-0.00796513
-0.0298182
0.00222514
-0.00300695
-0.00566307
-0.023511
-0.0583899
-0.0447644
-0.121035
-0.00343713
0.000111834
0.000213203
0.00308023
-0.00270922
0.00263104
0.0026641
-0.0121958
-0.0840868
-0.0143969
0.00150121
0.00316521
-0.000142523
-0.00779876
-0.00437009
-0.00954724
0.00203561
0.00356736
0.00288299
-0.116287
0.0129207
-0.0332195
0.00175522
-0.0158054
-0.00629688
0.000323749
-0.130958
-0.0598548
-0.00157545
0.00163544
0.00053076
0.0212784
-0.00685743
0.00216201
-0.0135362
-0.0600303
-0.00369584
0.00409862
-0.0047232
-0.00613357
-0.00212502
-0.00647861
0.00240588
-0.00551625
0.00449938
-0.0196996
-0.0038762
-0.0066234
-0.0356733
-0.122564
-0.00536264
-0.0272586
0.0132593
0.000807399
0.00308751
0.00308924
0.000138463
0.00105313
0.00082107
0.00263995
-0.014667
0.00429385
-0.00854541
0.0307684
-0.0180754
0.0026225
0.00253495
-0.0497199
-0.0146402
0.00212739
-0.0223751
-0.00301242
-0.0215749
-0.0301279
-0.00827157
0.0010418
0.00280236
0.00108087
-0.0501058
0.00261687
-0.045952
-0.00994
-0.00982
-0.0522105
-0.00755691
0.00725893
0.00190078
-0.00657144
-0.0238875
0.00214317
-0.00694934
-0.040023
0.00191196
-0.00716514
0.0343358
0.00185012
-0.0361088
0.00212671
-0.00627337
-0.0154928
0.00327192
0.00134078
0.00240058
-0.00214384
0.00292711
-0.0440031
0.00311941
-0.00260031
0.00110391
0.0367375
0.0026343
0.00299173
-0.0187446
0.0183802
-0.0194288
-0.0292854
-0.0299293
0.00130234
0.00155277
-0.00849276
-0.0968684
0.00257475
0.00184517
-0.0220939
0.00285904
-0.00218348
-0.0080778
-0.0120861
0.0167738
-0.0026384
-0.051758
-0.0255289
0.00151165
-0.00376937
-0.0252199
-0.0003527
-0.16906
-0.050591
0.00219891
-0.01006
0.00550115
0.00189395
-0.0229297
-0.0188823
0.00121704
-0.0302306
-0.00618951
0.00232753
-0.00545892
-0.0059492
0.00347326
-0.0337567
-0.00651212
-0.000950786
-0.00107254
-0.0303194
-0.0490663
0.00413455
0.00275752
-0.124457
0.0182224
0.0011724
-0.127561
0.00222498
-0.0162682
-0.0364867
0.00305974
0.00266774
-0.00784732
-0.0199571
0.00209512
-0.0490517
0.00312133
0.0164561
-0.0371757
0.00266277
0.00124434
-0.00380528
-0.00554193
-0.00392573
0.000910631
-0.0835412
-0.000283989
-0.00279407
-0.0323752
-0.00712783
0.0179431
0.00189396
-0.0196332
-0.000609286
0.00195925
-0.00105602
0.00214559
-0.00538177
0.00405836
0.00291603
-0.0187512
0.00251578
-0.00549808
-0.0497654
-0.00673267
-0.0355294
-0.00798597
-0.0425532
-0.0268111
-0.00265375
0.00300946
0.00306922
-0.00225281
-0.0465884
0.000967115
-0.034553
0.0109215
-0.00840908
-0.0362772
-0.00662512
0.00203237
0.00172674
0.00295326
-0.049534
0.00105276
-0.00113411
5.61969e-05
-0.0228875
-0.0323458
-0.0842357
0.00051576
0.000891593
0.00295078
0.0023341
-0.00244947
0.00318515
-0.00214266
-0.00359316
0.00287321
0.0029865
-0.0258787
-0.0283578
0.00252507
0.00286977
-0.000623127
0.00392204
-0.0179037
0.0117414
-0.0129349
-0.0906049
0.000966513
0.00300273
0.00312929
-0.00863621
0.00513247
0.00294459
-0.0220599
-0.00575905
0.00380978
0.00154821
-0.0677737
-0.178037
0.00710893
-0.011686
-0.0107068
-0.0593461
0.00283952
0.00255128
-0.0261463
0.00215481
0.00264266
0.00262611
-0.147658
-0.0333088
0.00294849
0.00307674
-0.0204956
0.00370565
-0.010233
-0.032431
0.000241156
0.00726361
0.00302649
-0.0147731
0.00119052
-0.0281825
-0.0186359
-0.00585316
-0.0378012
0.00122459
0.0025911
0.00222342
-0.0169378
0.00296186
-0.00174295
-0.00842921
-0.0612029
-0.00686313
-0.102538
-0.00357179
0.00289879
-0.0938805
-0.0413271
-0.000178244
-0.0220277
0.00254041
-0.0107893
-0.0171803
0.00376283
0.0132568
0.00113091
0.00258
0.00267021
0.0115991
0.00303374
-0.00519031
0.00262486
-0.00178998
-7.80302e-05
-0.0295705
-0.0034591
-0.0217064
0.00623366
-0.000812466
-0.00021373
-0.0135594
0.00380435
-0.0005901
-0.000752296
0.00216691
0.00274031
-0.0210276
-0.00731465
0.006805
0.00214812
0.00152066
-0.0095428
0.00253835
-0.0258604
-0.00411705
-0.0583061
-0.000874509
-0.0341529
0.00222524
-0.107938
-0.0391389
-0.0652245
-0.0329116
-0.0139414
0.00517515
-0.00497255
-0.00965168
0.00768345
6.40263e-05
-0.00228979
0.000708094
0.0109981
0.000960999
0.00216826
0.00138291
-0.0191303
-0.0216589
-0.029615
-0.0282604
-0.0553403
0.00385795
0.00371382
-0.0062122
-0.0110861
-0.0100636
0.00038973
-0.0178154
-0.055051
-0.138033
-0.141978
-0.0098803
0.0027103
0.00160071
-0.16798
-0.0182216
-0.0149025
-0.00676057
0.00675439
-0.00887708
-0.00857572
-0.0097952
-0.00323158
-0.0136264
-0.00238529
-0.0300639
0.00190092
0.00314596
0.00199804
-0.00426814
-0.00762906
-0.0153154
-0.0129985
-0.0205231
-0.00225964
-0.00201244
-0.00680908
0.0118041
-0.183178
0.00159525
0.00752414
-0.0337056
-0.0214043
-0.004672
-0.0202891
-0.0177579
-0.00176988
-0.00661015
0.0016762
0.00294001
0.00352052
0.0406342
-0.00114187
0.00314563
-0.0347402
-0.0595864
-0.0253016
-0.00618568
-0.00741437
-0.0196108
-0.00132647
0.0028624
0.00067156
-0.00318335
0.00128943
-0.0790008
0.00263186
0.00197096
-0.024119
0.00320534
-0.000655395
0.00134947
0.00130785
-0.0179247
0.0028161
0.000426119
-0.0122465
-0.0365266
0.00325873
-0.0065286
-0.0346454
-0.0600457
-0.0560983
-0.0127588
0.00231022
0.00122464
-0.0399138
-0.0192195
0.00313458
-0.00975145
-0.00964128
-0.0181694
0.000105214
0.00259506
0.0021563
0.0029227
0.00283764
0.0020242
0.00366933
0.00374074
-0.0075465
-0.0020204
0.0010628
-0.018159
0.00356449
0.00283494
0.00333973
-0.0294519
-0.0317301
-0.035902
0.0144369
-0.0310651
0.00282646
-0.0391597
0.00335367
0.00786961
-0.0257728
-0.148857
0.000498552
-0.000960475
-0.000882369
0.00406701
-0.00306313
-0.0247306
-0.000623525
-0.00639652
0.000548676
-0.0379873
-0.0853355
0.00536873
-0.0141746
0.000208349
0.00295108
0.00260227
0.005628
-0.00853609
-0.0480137
-0.0145303
0.00386611
0.00246835
-0.00212
0.0018608
-0.13754
0.0184807
0.00150388
0.00285834
0.00110188
0.00260306
-0.00855167
0.00271423
0.00277456
-0.0118069
0.00243874
0.00278898
-0.00245616
-0.0263474
-0.0257511
-0.00758939
-0.0159319
-0.0456383
0.00337769
-0.0462518
-0.0163154
-0.0426334
0.00131656
-0.00230618
0.00810944
-0.00700512
-0.173988
0.00348022
0.00382946
-0.00416578
-0.00372441
0.00295557
-0.000377271
0.0186504
-0.00771366
-0.0266576
0.0187746
0.00293916
0.00326967
-0.0130511
-0.0117215
0.00117764
-0.0365336
0.0354668
-0.0299453
0.0209541
0.00262681
-0.00520551
-0.143788
0.0053847
0.000485448
-0.00144222
-0.0114536
0.00228282
0.00212518
-0.0278654
-0.0185244
0.00363037
0.00372092
0.00309274
-0.0218578
-0.033409
-0.168429
-0.080188
-0.00541118
0.00111199
-0.00471153
-0.00853114
0.00303757
-0.0176041
0.00292439
0.00331717
0.000809588
0.000674945
-0.00754817
-0.00675974
-0.140157
-0.0085309
-0.0315479
-0.0327298
-0.00180609
0.00304935
-0.0330633
-0.0614607
0.00286339
-0.0621053
0.000738169
0.010132
-0.0143976
0.00113933
0.0030532
0.0046307
0.000467544
-0.00222042
-0.00030631
0.00215978
-0.05634
0.00127395
-0.00246326
-0.0049935
0.00239682
0.000546346
-0.00700694
0.000539329
-0.00321716
-0.0200274
-0.0307576
0.000347278
0.00317283
0.000403969
-0.0497328
0.00147279
0.0102508
0.0063748
-0.0267073
2.89717e-05
-0.000811047
-0.14323
0.00264531
-0.0105186
-0.0134315
0.00219755
0.00317871
-0.0103858
0.00239069
-0.0145958
-0.0592531
-0.030695
-0.00694032
0.00233471
-0.00725772
0.00257503
-0.00533106
-0.00754801
0.0199867
0.0018816
-0.00464031
-0.0484752
0.00256168
-0.0120701
-0.00551658
-0.0269274
-0.172167
0.00534676
0.00380019
-0.0268206
0.000370866
-0.0282717
0.00266034
0.00089761
-0.0252301
-0.0323688
-0.0962348
-0.00867144
0.00264911
-0.00552208
-0.0272067
0.00324585
0.000305638
-0.0132155
0.000309733
0.000907927
-0.00844694
0.00220928
0.00405999
-0.00371076
-0.00316232
-0.00503919
-0.019543
0.00211739
0.00083865
0.0033178
-0.0204569
0.00214139
0.00365235
-0.0922156
0.0012141
0.0189676
-0.029598
0.00344738
0.00307423
0.00318535
0.00288245
-0.00287772
-0.000919121
-0.00143991
0.00404194
-0.0124108
0.00344749
0.00289472
-0.000173668
0.00711813
-0.000584917
-0.0830099
0.00288868
-0.020346
0.00627367
-0.0173672
0.00416557
-0.0182892
-0.0342984
0.00405875
0.00135145
0.0372592
-0.0202352
0.0020389
-0.0155818
-0.0466455
-0.00178562
-0.0128912
-0.0200718
-0.0164251
-0.00873229
0.000474139
-0.0292903
-0.00393083
0.00422303
-0.0381459
-0.00154276
0.00259031
-0.06452
0.00878532
0.00168234
-0.00942904
-0.0168171
0.0029142
0.00767526
-0.0682803
-0.00176916
0.00655221
0.00510063
0.00206672
0.028478
-0.0155605
0.0101408
-0.0158908
-0.00135546
-0.00152539
-0.000939376
0.000688043
-0.0243975
-0.00892998
0.00110316
-0.0196853
-0.0122628
0.0253865
-0.00128621
-0.104894
-0.0224315
-0.0144084
0.00120111
0.00348165
-0.0209225
0.00103223
-0.0181189
-0.0775907
-0.00817373
-0.00501541
0.00363547
-0.00585923
-0.0221166
0.00115131
0.00349571
-0.0677696
-0.0189781
-0.000543489
-0.00228156
0.0059346
0.00403581
-0.0108924
-0.00574815
-0.00623524
0.00528469
-0.00160629
0.00967111
-0.0181632
0.000701119
-0.0741503
0.00119998
-0.0265269
0.0119016
0.0418771
0.00361013
-0.0113962
0.00299439
0.00125446
-0.013025
-0.159611
-0.00855843
0.000442995
0.00227428
-0.0012853
0.0181241
0.0235532
-0.0119419
-0.0120346
-0.00792658
-0.0353468
-0.0207986
0.00151049
-0.000334823
-0.00928696
0.00111735
0.00108404
-0.0121364
-0.00039079
0.00178575
0.00165782
-0.00244978
-0.0252252
-0.00476258
0.00188944
0.00494154
0.00303224
-0.0290868
-0.146568
-0.00568764
0.00266475
-0.0072275
0.00436477
-0.00876131
-0.00609759
-0.00362241
-0.048573
0.00221538
0.0010099
-0.0068207
0.00152713
-0.00376939
0.00175307
0.00425792
0.00459997
-0.00911708
0.0177985
0.00152666
0.00300451
-0.00347538
0.00283658
0.00286482
-0.00393309
0.0080004
0.0139619
-0.00740441
-0.0088762
-0.000582092
-0.00399939
0.00755791
-0.00381802
-0.103459
0.000237365
-0.00296936
-0.0384868
0.0036938
-0.0373886
0.00363227
-0.00841112
-0.0294636
0.00307882
-0.0392527
-0.000432071
0.00161406
-0.0122538
-0.0960518
0.000721524
-0.00222931
0.010547
0.00153925
-0.033723
0.00305797
-0.00768931
-0.0703155
-0.0235335
0.045191
-0.150672
0.0028902
0.00170349
-0.00691078
-0.000255678
-0.00487354
-0.00983894
-0.00629271
-0.00348181
0.00266316
0.00354298
0.00291882
0.00272887
0.00467289
-0.0132321
0.0027384
0.00406036
-0.0186087
-0.0144042
-0.024932
-0.0128484
0.00788382
0.00306723
-0.0382979
-0.0451854
0.006672
-0.156824
0.000934278
0.00667612
0.00147342
-0.0277804
0.00353397
-0.0189937
-0.0113817
0.00249521
-0.00798636
0.00278961
-0.00287909
-0.0196225
0.00274454
-0.0111815
0.00156061
0.00167706
-0.177079
-0.00272872
-0.00480705
-0.0213775
0.00141372
0.00188062
-0.011825
-0.00746143
0.00259565
-0.00855905
-0.00321784
-0.0359406
-0.0323493
0.0446431
0.00255603
0.00136814
0.00151717
0.0021171
0.00207564
0.00875994
0.00201545
0.00212191
-0.00609515
0.000571093
-0.0282601
-0.00670501
0.00227074
-0.0134808
-0.0326797
-0.0788705
-0.0116992
-0.0387023
0.00401578
-0.0426618
0.00297832
-0.00387403
-0.00796318
-0.00676537
-0.00154493
0.00717933
-0.0109873
0.000166535
0.00299788
0.00621097
-0.00210448
0.00503383
-0.0281407
0.0064725
0.00162316
0.00367899
0.0185454
0.00326302
-0.0738491
0.000191409
0.00368756
-0.00498205
0.00289133
0.00572312
-0.0231417
0.00809858
0.00283692
-0.0143847
0.00317832
0.00344482
-0.00266059
-0.00167834
-0.0500712
0.00306205
-0.0179522
-0.00391073
-0.0111071
0.000393635
0.00255717
0.00292629
0.00563849
0.00316737
-0.0210327
-0.00112276
-0.0394046
-0.0167757
-0.0171682
0.00251655
0.00270282
0.0014629
-0.0187307
0.00267102
-0.0174418
0.00576948
0.00508298
-0.00885976
-0.00705815
-0.00749347
-0.00261571
0.00216004
0.00481016
0.00297503
0.00472447
-0.00653918
-0.021702
0.0261645
0.00483627
-0.0268296
-0.00246502
-0.00973877
-0.00338069
0.00284126
-0.000870319
-0.0129565
-0.00490824
0.00120604
0.000555516
-0.0277136
-0.00342259
0.00877283
-0.00412468
-0.0258076
0.00334273
0.00487645
-0.00595483
0.00285067
-0.000524265
-0.0102736
0.0032618
-0.00551461
-0.00523546
-0.00880646
-0.00174485
-1.66141e-05
0.00370952
0.00260474
-0.0122639
-0.00562492
0.00224495
0.00341127
-0.0400361
-0.00951943
0.00597158
-0.020512
0.00289835
0.00374201
-0.0593555
0.00281944
0.011882
0.014308
0.00109089
-0.0487402
0.0021846
-0.163612
0.00337018
-0.0498861
-0.00312185
-0.0097237
0.00528208
0.00516018
-0.062055
0.00333904
-0.00296265
-0.0278059
-0.00269833
-0.00198356
-0.00807783
0.00283344
-0.00759623
-0.0626094
-0.0691182
0.00368166
0.003241
0.00466965
0.00373623
-0.0151125
0.00231677
-0.0125587
-0.00920976
-0.0126251
0.00265069
0.000962011
0.00233368
-0.0354505
-0.0255287
-0.0339879
-0.0261935
-0.0404494
-0.0229416
0.00231912
-0.00251268
-0.000614292
-0.00229889
-0.00546248
-0.00263334
-0.0444048
-0.000157259
0.00333088
-0.007324
0.00900853
-0.0042144
-0.181651
-0.0463047
-0.00368163
-0.000715856
0.00311189
0.00282086
-0.0307224
0.0218285
0.00339842
-0.00475208
-0.0289301
-0.031806
0.00298759
0.00289609
-0.034196
0.0109049
-0.0109763
-0.00776861
-0.0107838
-0.00845865
0.00609443
-0.0171636
0.000354785
-0.0193879
-0.0217478
-0.0336528
0.000239978
0.027927
-0.0810277
-0.0435275
-0.0109974
0.000197208
-0.0139171
0.000796909
0.00270255
-0.00623838
-0.0248716
-0.00621863
-0.033076
0.00720267
-0.00986205
-0.00326449
0.00461387
-0.027993
-0.0214209
-0.026469
-0.0239511
0.00330364
0.028523
-0.00145082
-0.0133508
0.0132727
-0.0200972
-0.0257117
0.00408989
-0.0155619
-0.00746981
0.00967036
0.0018639
0.00469234
-0.0377641
-0.00585308
-0.00187798
-0.0448416
-0.0289855
0.00288436
-0.0041615
0.0030952
0.00268534
-0.0184483
0.00054048
0.0183841
0.00088185
0.0028665
-0.137366
0.00731534
-0.0197769
-0.0252585
-0.0246695
-0.0263147
0.00274888
-0.0177771
-0.0318802
-0.0240372
0.00322511
0.00103479
0.00481308
0.00202944
-0.0022288
-0.0153886
-0.000495694
0.00256409
0.00101764
0.00319718
0.00201857
0.003381
-0.044944
-0.0560719
0.00260122
-0.00384814
-0.0278366
-0.00237054
-0.000800555
-0.00048606
0.00260665
-0.0483768
-0.0240199
0.00460753
0.0016485
-0.000927257
0.00221011
-0.0295567
-0.000557457
-0.00199005
0.00343672
-0.0131378
-0.0148422
-0.000112622
-0.0426962
0.0194419
-0.00548636
0.00350234
-0.0331431
0.00281112
-0.00691248
-0.0255107
-0.0304251
-0.01877
-0.0234418
0.0028536
0.00218279
-0.0233688
0.0191431
-0.065252
0.00292098
0.00219385
0.00220488
0.00243277
-0.0126495
0.00158621
-0.0370412
-0.0126153
0.00270585
0.00168665
0.00653419
-0.0312877
-0.0110783
0.00282693
0.00329735
-0.00752506
-0.00446258
-0.0491093
-0.00995041
-0.00367479
0.0040004
-0.00474693
-0.0206478
0.00136287
-0.0211246
0.00343115
0.000941568
-0.014535
0.00261957
-0.0309959
0.0189131
-0.00832183
-0.0346236
0.00268262
0.000983085
-0.0107898
-0.0161331
0.00295563
-0.0103301
-0.00915604
-0.0101823
-0.0104155
-0.0241843
0.00281705
-0.0116366
0.00285348
0.0032713
0.000558076
0.000398955
0.0197575
-0.0027788
-0.027706
-0.0425963
0.00308938
-0.0312718
0.00289125
-0.13961
0.00482988
-0.00239793
-0.14478
0.00141947
0.00100274
-0.0247116
-0.0261161
0.00260367
-0.1754
-0.0126527
-0.0203241
0.00151236
-0.00744565
0.00472612
0.00394537
0.00227613
0.00672523
0.00360723
-0.0203895
-0.0674246
-0.00573345
0.00274105
0.00356276
-0.000546437
-0.0120848
0.00257269
1.70937e-05
-0.0208119
-0.0227297
0.0160173
-0.000369556
0.00125665
0.00284186
-0.00677476
0.00318941
0.00362894
-0.000665215
-0.00921675
-0.0440735
-0.0184871
0.00280419
-0.0416801
0.00497774
-0.0329955
-0.0705641
-0.0143402
-0.0233222
-0.011389
0.00272388
-0.0269942
0.00135945
-0.0160434
0.00172743
-0.00911642
-0.00904777
-0.0701877
-0.00573508
-0.00527322
-0.0563837
-0.0181858
-0.0792609
0.00152699
0.00274132
-0.0238076
2.02104e-05
-0.00652613
-0.00637589
0.000825352
0.0262831
-0.00364891
-0.021303
-0.0111359
0.00313535
0.00655997
0.0175327
-0.0100828
-0.0549571
-0.00718748
-0.00539666
0.00130786
0.000987918
-0.0454792
0.00104002
-0.00419677
-0.00946312
-0.0129358
0.00262309
-0.000565286
-0.032478
0.000101604
-0.0339343
0.00285419
-0.153443
0.00337283
-0.00200222
-0.0139778
-0.0784945
-0.0301179
-0.118063
-0.142701
0.00260214
-0.020099
-0.0921259
-0.00973808
-0.0856669
-0.0133499
0.00242022
-0.000256772
-0.0092654
-0.008097
-0.0128496
0.000150976
0.0169808
-0.0284993
-0.00973065
-0.0604042
-0.0157634
0.00584598
0.00360922
-0.0045862
0.00272232
-0.0459833
-0.0291012
-0.00214661
-0.0216746
0.00366061
-0.034223
-0.0120387
0.00345255
-0.00917453
-0.00297388
-0.169675
-0.0322009
-0.0546395
0.00142374
-0.0137705
-0.0214228
-0.00265617
0.00339537
0.002598
0.00358964
-0.00622526
-0.0273702
-0.00424998
-0.00429228
-0.0189134
-0.0326784
0.00272431
6.27478e-05
-0.0162451
-0.092904
0.00256232
-0.0584143
-0.00244559
0.00287717
-0.012876
-0.0275707
0.000857539
-0.0214399
-0.115139
-0.00254223
-0.0144099
-0.0126092
0.00200792
0.00325923
-0.00643936
-0.0541501
-0.0206061
-0.053247
0.00280094
0.00103153
0.0432325
0.00177524
-0.00513013
-0.00612058
-0.00650555
-0.0205923
-0.0103808
-0.00950554
-0.0180841
-0.000674001
0.00359991
-0.101773
0.00286948
-0.000711903
0.00365811
-0.00853539
0.000523143
-0.00162519
-0.00418655
-0.0118092
-0.0325111
-0.00875628
-0.0515939
0.00247642
-0.0516518
0.0027893
0.00283833
-0.013094
-0.0145167
0.0018358
0.0168492
-0.0183911
0.000635871
-0.00868828
0.00291022
0.00140353
-0.0273232
-0.0437166
0.00341509
0.00298516
0.00489448
0.000375524
-0.0007377
-0.00676329
-0.0052738
0.000484105
-0.00930365
0.0191884
0.00264795
0.00242022
0.00273931
0.00025704
0.00276025
-0.00798874
0.00198064
0.0037374
-0.00472342
0.000537203
-0.0210722
-0.00803149
0.00265643
-0.056305
0.00024029
-0.0149359
-0.0514255
-0.00584226
-0.0178766
-0.00123369
-0.0067808
0.00665347
0.00348803
0.00163954
-0.0138039
-0.0220626
-0.0133721
0.00564643
-0.00236057
-0.0139083
-0.00874957
-0.0166758
-0.0128509
0.00316665
0.000642231
0.022268
0.00324363
-0.0340944
-0.024204
0.00465908
-0.103616
0.00278835
-0.00843907
-0.00385443
-0.00389924
0.000714288
-0.0411438
-0.165796
0.00254356
0.0171088
0.00280638
-0.0583608
-0.000969316
-0.00759566
-0.0101529
0.00354571
0.00342654
-0.0506538
-0.0170578
-0.0120219
-0.0218434
-0.00471592
-0.0154705
0.00078767
0.0215
-0.00726006
-0.0137865
0.00244133
-0.106252
0.00281299
-0.0235764
-0.0043149
-0.018016
-0.107947
-0.00646102
-0.00843269
0.00286325
-0.00420686
0.00745038
-0.16807
-0.0028766
0.00337525
-0.00256381
-0.065451
-0.00927874
-0.0116754
5.74821e-05
0.00562903
0.00629498
0.0026473
-8.13239e-05
0.00304646
-0.0247518
-0.0206671
-0.0402218
-0.0428136
-0.0060141
-0.0937135
-0.0123539
-0.0036409
0.00280481
-0.000777286
-0.0083884
-0.00426239
-0.0311336
0.00240661
-0.0144128
-0.0201941
-0.0308488
0.00276834
-0.108826
0.0181254
-3.95001e-05
-0.0254793
-0.0157952
-0.018358
8.7193e-05
0.0049769
-0.00861756
0.00200951
-0.0467956
0.00193034
-0.0132649
-0.167216
-0.000876675
0.00128665
-0.00113054
-0.00351954
0.00204253
-0.128165
0.00320362
0.0100127
-0.0260481
0.00102475
0.00419684
-0.0552352
0.0110084
-0.00714108
-0.00455616
-0.146586
0.00148822
0.00600696
-0.00251061
-0.0222394
0.0029881
0.0151726
-0.00950901
0.00288735
-0.00902452
-0.0293058
-0.0257591
-0.0175938
-0.0516289
0.00224343
0.00249004
-0.102151
0.00342858
-0.00863285
-0.0751016
0.00512894
0.00278556
-0.0855447
0.0141602
-0.135216
-8.33932e-05
-0.00417951
-0.0343431
-0.0057636
-0.139975
-0.00879059
0.004531
-0.0152399
-0.00985344
-0.00961387
0.00182237
-0.0439782
0.000828075
-0.00344766
-0.00334525
0.00196341
0.00254914
-0.0122416
-0.036139
-0.023735
-0.0215309
-2.57715e-05
0.00258337
-0.0129581
-0.0667813
0.000482522
-0.0118312
-0.000240648
-0.106571
-0.145124
-0.0116717
-0.170305
-0.00435011
-0.00612085
-0.0634838
-0.0231482
-0.0134602
-0.117233
-0.0837051
0.000230976
-0.055207
0.00328723
0.00279775
-0.167635
0.00228236
-0.0225438
0.0373588
0.00395134
0.00199717
-0.000381303
-0.00662521
-0.0699654
0.0243901
-0.15791
-0.0207797
0.00253206
-0.00261722
-0.0119812
-0.0127669
0.00478721
-0.00172199
-0.0688957
-0.038715
0.00251273
0.00219337
-0.0054896
0.00074436
-0.00554485
-0.0268693
-0.00671599
0.00265432
-0.0148938
-0.17169
-0.0142049
0.00703937
0.0390678
-0.00819459
-0.148027
-0.0219719
-0.104639
-0.0223082
-0.0057036
0.000870777
-0.00449402
-0.00581953
-0.0204736
-0.00143236
0.00135949
-0.0192304
0.00298081
-0.0114178
0.00928725
-0.0187855
-0.0426314
0.000996185
0.0269788
0.0410909
-0.00889075
-0.00201769
-0.00797895
-0.0216453
-0.0158851
0.00235758
-0.0106265
0.00284278
-0.0180566
-0.00810123
-0.164516
-0.00774409
-0.004184
-0.13949
-0.0149301
0.00277364
-0.00295249
0.00321348
-0.0158988
-0.00945764
0.0029404
0.00296501
-0.0200448
0.00660438
-0.058072
0.00229084
-0.0253043
-0.00803734