/*--------------------------------*- C++ -*----------------------------------*\
| =========                 |                                                 |
| \\      /  F ield         | OpenFOAM: The Open Source CFD Toolbox           |
|  \\    /   O peration     | Version:  v2012                                 |
|   \\  /    A nd           | Website:  www.openfoam.com                      |
|    \\/     M anipulation  |                                                 |
\*---------------------------------------------------------------------------*/
FoamFile
{
    version     2.0;
    format      ascii;
    class       surfaceScalarField;
    location    "250";
    object      meshPhiCN_0;
}
// * * * * * * * * * * * * * * * * * * * * * * * * * * * * * * * * * * * * * //

dimensions      [0 3 -1 0 0 0 0];
oriented        oriented;


internalField   nonuniform List<scalar> 
27907
(
2.16296e-07
5.07927e-07
-7.24008e-07
4.44703e-07
-5.92099e-07
1.47502e-07
-1.12353e-06
-5.15482e-07
1.39345e-06
-3.4924e-07
6.61434e-07
-3.11891e-07
-3.62547e-07
5.57111e-07
-1.94532e-07
2.7364e-07
-5.43425e-07
2.69811e-07
3.603e-07
-4.02237e-07
4.19382e-08
2.1115e-06
5.72986e-08
-2.28144e-06
1.94394e-07
4.60896e-07
-6.54753e-07
8.20385e-07
-1.42211e-06
6.05487e-07
2.37273e-06
-1.20673e-06
-1.15812e-06
-2.84941e-07
-2.19887e-07
5.04845e-07
-1.87163e-07
7.82795e-08
6.0369e-08
-6.11975e-07
-2.3582e-07
8.50431e-07
-4.28065e-07
-2.46008e-06
2.90345e-06
3.07862e-07
-6.38487e-07
3.30839e-07
-1.49333e-06
1.11234e-06
3.87401e-07
-2.80476e-06
7.97699e-07
1.95157e-06
3.47743e-06
-3.30051e-06
-1.78532e-07
-3.98971e-07
-8.7823e-07
1.27994e-06
2.3907e-07
-4.00301e-07
1.61161e-07
-2.17945e-07
-1.88288e-07
4.05866e-07
-3.26997e-07
5.30694e-07
-2.03687e-07
3.75391e-07
1.42451e-07
-5.176e-07
7.21877e-07
-4.12291e-07
-3.09457e-07
-9.35763e-08
2.08455e-06
5.86102e-07
-3.29959e-07
-2.56169e-07
-4.21774e-07
5.49323e-07
-1.27527e-07
-4.6619e-07
6.03345e-07
-1.37106e-07
4.70365e-07
-5.01854e-08
-4.20375e-07
7.70808e-07
-1.23467e-06
4.68538e-07
-4.209e-07
1.72907e-07
2.47997e-07
-3.72858e-08
-2.11715e-08
3.61152e-08
8.8507e-08
-2.39317e-06
2.31501e-06
-3.59261e-07
9.13332e-07
-5.52123e-07
-3.04952e-07
-1.05182e-06
1.35248e-06
3.43306e-09
5.01717e-08
-7.4206e-08
-5.71384e-07
2.82232e-06
-2.25056e-06
-2.63686e-06
1.08349e-07
2.53424e-06
-1.51605e-06
5.79622e-07
9.42524e-07
-1.30089e-06
-1.78133e-06
3.08193e-06
-9.89855e-07
-7.25132e-07
1.71714e-06
3.60261e-06
-8.79272e-07
-2.75659e-06
-1.45325e-06
-3.14752e-08
1.48791e-06
4.91191e-07
2.84524e-08
-5.19614e-07
1.04555e-07
6.7214e-07
-8.85896e-07
9.17566e-08
-4.18746e-07
-1.46964e-06
-4.00468e-07
1.87666e-06
-7.94907e-07
1.61935e-06
-3.24429e-06
1.51829e-07
3.0465e-06
5.66592e-07
2.13503e-07
-7.79553e-07
-4.04997e-07
-1.4304e-07
5.48099e-07
9.06192e-07
-2.31662e-06
1.27514e-06
8.21744e-07
1.55914e-06
-4.28578e-07
6.81106e-09
-6.24155e-07
3.11372e-07
3.12853e-07
6.53425e-08
-8.2293e-08
4.78127e-07
2.79322e-07
-2.22302e-06
2.72668e-06
-5.02715e-07
-1.03529e-07
8.59314e-07
-7.53324e-07
9.38726e-07
-2.9526e-07
-6.43133e-07
-7.38437e-08
4.34043e-07
6.9009e-07
1.40204e-07
-8.29094e-07
-9.63126e-07
2.13558e-06
-1.16851e-06
-9.90598e-07
1.77766e-06
-3.39356e-07
-2.39736e-06
2.7338e-06
-1.41168e-06
-8.64244e-08
1.50486e-06
1.64984e-08
-7.1216e-08
-3.1949e-06
4.08232e-07
2.78377e-06
-4.51242e-07
4.62969e-08
1.47221e-07
2.61173e-07
-4.08362e-07
-2.19711e-06
2.47981e-07
1.95283e-06
-1.83873e-07
-3.10034e-06
-7.30347e-08
4.47004e-07
-2.89812e-08
-3.20511e-06
3.05071e-07
2.84401e-06
2.10967e-06
-2.94156e-06
8.30537e-07
-1.60332e-07
7.89588e-07
-6.28577e-07
4.68562e-07
-4.43692e-07
-2.48559e-08
-5.91649e-07
8.85626e-07
-2.93845e-07
1.36873e-07
3.01185e-07
-4.38051e-07
-2.34466e-07
-2.56007e-07
4.90496e-07
3.13699e-07
2.0501e-07
-5.18662e-07
5.43547e-07
-6.45293e-07
-6.11288e-07
2.9329e-07
3.18019e-07
5.14948e-07
-6.74597e-07
-1.17193e-06
-6.18654e-07
1.79686e-06
-2.49568e-07
-2.62374e-07
5.11966e-07
-2.29497e-07
9.20763e-07
2.44836e-07
1.51892e-07
-3.9673e-07
3.02385e-06
-9.15102e-07
-3.09343e-07
-3.0193e-07
-2.81776e-06
5.94884e-07
-1.56078e-07
-3.84543e-07
5.40638e-07
6.98328e-07
-1.68607e-06
-3.77661e-07
-1.48605e-07
5.26293e-07
2.59033e-07
-4.15104e-07
-2.53057e-07
7.6876e-07
-9.45334e-07
-2.3019e-06
3.44966e-06
-1.0816e-06
-2.38621e-06
4.27693e-07
-1.88779e-07
6.01218e-07
-1.27305e-06
6.74582e-07
5.99558e-07
-2.10474e-07
-3.89072e-07
-7.52617e-07
9.58412e-07
-2.0344e-07
-1.10308e-06
2.55767e-07
8.48913e-07
-2.57386e-07
-1.63513e-07
-8.56523e-08
5.55888e-07
-2.75013e-07
-3.01516e-07
5.76743e-07
-1.0037e-07
5.68925e-07
-2.14999e-06
2.73441e-06
-5.76607e-07
2.06395e-06
-9.94513e-08
-1.96094e-06
5.04847e-07
-2.45812e-07
1.66435e-08
-2.18571e-06
1.94094e-06
1.3807e-07
-2.83438e-06
5.36601e-07
2.29829e-06
2.06552e-07
2.94535e-07
-5.01002e-07
3.30333e-07
-3.6777e-07
3.7401e-08
-2.77192e-07
-1.67749e-07
4.44954e-07
-2.96335e-06
2.55086e-06
-3.54485e-07
5.37498e-07
-1.83e-07
2.39526e-08
-4.01592e-07
-1.5924e-06
1.15025e-06
4.46279e-07
4.80622e-07
1.53691e-06
-2.01837e-06
5.37702e-07
-4.89439e-08
-4.88717e-07
-5.09459e-07
4.12627e-07
9.70427e-08
6.27057e-07
-3.44307e-07
-2.82679e-07
-1.49709e-07
6.40952e-07
-1.65725e-07
6.10535e-07
6.92714e-07
-1.04985e-07
-5.87444e-07
6.51722e-08
-4.497e-07
3.85417e-08
-7.19653e-09
-8.52782e-08
-1.01441e-06
-4.73113e-07
3.35145e-07
2.5081e-07
-5.46152e-08
-3.55432e-08
2.87125e-07
-8.85186e-07
5.98523e-07
4.13983e-08
3.40441e-07
-2.7248e-07
-1.21707e-06
1.493e-06
4.98198e-08
7.40483e-07
-8.01647e-07
-7.0909e-07
3.32732e-07
3.09419e-06
9.44825e-07
-7.29998e-07
-2.14703e-07
1.23662e-09
-5.92768e-07
6.89661e-07
-5.12566e-07
-1.77155e-07
1.64596e-06
9.23007e-07
-2.57171e-06
-2.36002e-07
-3.88099e-07
1.05885e-06
-2.35951e-06
-3.09169e-06
-4.69416e-08
3.14635e-06
3.01875e-07
9.79967e-08
-3.99853e-07
-3.06639e-07
5.15805e-07
-2.09158e-07
1.19605e-06
-4.20404e-07
6.07052e-07
-9.44606e-08
-5.12504e-07
-2.40151e-07
5.53903e-07
4.96411e-07
-5.71832e-07
7.57176e-08
-8.78655e-07
1.75917e-06
-8.74028e-07
2.96948e-07
1.67339e-08
-3.45006e-07
1.6084e-07
2.67042e-07
-4.27869e-07
-1.84855e-06
1.23935e-06
6.15614e-07
-4.53305e-07
9.88326e-08
2.85882e-07
-1.74946e-06
3.00541e-06
-1.63827e-06
-1.36123e-06
-8.89006e-10
-9.04111e-08
9.34906e-08
2.80863e-06
-6.72915e-07
-2.1747e-06
3.38052e-07
3.48263e-07
-6.8466e-07
2.30965e-07
2.54863e-07
-4.85819e-07
1.1892e-06
1.82229e-06
2.27097e-07
7.11996e-07
-6.60884e-08
-4.00062e-07
3.42893e-06
-3.40667e-06
-2.47176e-08
-2.12191e-07
5.41888e-07
-3.2966e-07
-3.88265e-07
-2.8379e-07
6.72267e-07
-5.32002e-07
2.66421e-07
2.65607e-07
-1.73243e-07
-2.66423e-07
4.39265e-07
-1.30313e-06
-1.54875e-06
4.98175e-07
-2.67203e-07
-3.0433e-07
-1.83172e-07
4.87529e-07
7.17309e-07
-3.77636e-07
6.64109e-07
-2.88437e-07
2.11253e-07
-5.64276e-07
3.53088e-07
6.66549e-07
-1.62646e-06
3.43489e-07
6.01497e-07
8.92542e-09
-2.35081e-06
2.34213e-06
-1.82194e-06
2.22618e-07
1.48775e-06
5.18732e-08
3.57075e-08
5.2089e-07
-2.42005e-08
4.30101e-06
-1.39509e-06
-2.93453e-06
2.419e-06
-6.3653e-07
-1.77187e-06
-7.79929e-07
5.49605e-07
2.30797e-07
-5.52792e-07
-2.16247e-06
2.70886e-06
-1.49993e-07
4.80388e-07
-3.33437e-06
1.54409e-07
3.1344e-06
-2.55487e-07
2.75684e-06
-2.50512e-06
7.90817e-07
-5.03329e-07
-1.69473e-08
7.09963e-07
2.29673e-06
-8.71672e-07
-1.42019e-06
8.41799e-07
3.59274e-07
1.19582e-06
-1.07201e-06
-1.22612e-07
5.75328e-07
-8.03763e-07
8.07046e-07
-1.20341e-06
3.0104e-07
-6.89084e-07
-1.8127e-07
1.11728e-06
-9.73816e-07
3.35284e-06
2.08376e-07
-8.54118e-07
3.76379e-07
4.77863e-07
-1.75671e-06
2.04974e-06
8.72362e-07
3.15635e-07
-1.1853e-06
9.03841e-07
-6.01556e-08
-8.42133e-07
-1.61905e-07
-7.57108e-08
2.4438e-07
9.52948e-07
9.01231e-07
5.00548e-08
-9.49082e-07
-1.51739e-09
2.75418e-07
1.52325e-07
-3.94532e-07
2.42041e-07
6.49717e-07
-1.44081e-06
-2.69142e-06
7.71848e-07
1.86455e-06
-8.31482e-07
-2.70179e-07
-2.65461e-06
1.81778e-06
8.42735e-07
6.09019e-07
3.5921e-07
-9.6618e-07
-5.40649e-07
-3.62994e-07
9.03821e-07
6.06404e-07
-2.95119e-07
-3.11267e-07
-6.92795e-07
1.52268e-07
-6.33751e-07
3.58415e-07
2.75514e-07
3.36838e-06
-1.57124e-06
-1.87692e-06
5.28377e-07
-2.5471e-07
-1.94777e-06
-1.08706e-07
-2.03469e-06
-8.6115e-08
-5.61732e-07
6.48677e-07
-1.50681e-07
4.52609e-07
7.06624e-07
-4.58273e-07
-2.48147e-07
-6.65152e-08
9.70188e-07
-1.16689e-06
-5.10909e-08
1.22031e-06
6.03835e-07
3.30245e-07
-9.33338e-07
2.25807e-06
1.39739e-06
-3.68165e-06
1.06607e-06
-2.39339e-07
-8.25296e-07
2.10302e-06
-2.44416e-06
9.13022e-07
-3.36414e-07
4.29007e-07
7.97835e-09
-4.36978e-07
3.95747e-07
-6.48142e-07
6.73741e-08
-2.88216e-08
2.45474e-06
-3.01432e-06
-2.03206e-06
4.25589e-06
-2.52286e-08
-8.27635e-07
7.44577e-07
5.97804e-07
-6.00508e-08
2.87483e-07
7.64795e-07
-1.04966e-06
2.60318e-06
-2.55143e-06
-9.14647e-08
7.08763e-07
-4.14263e-07
-2.94391e-07
-5.25846e-07
2.51054e-07
1.16986e-06
-2.1415e-06
9.80001e-07
3.5688e-08
5.71468e-07
-4.20848e-07
1.89238e-07
2.3102e-07
-2.61371e-07
6.578e-07
1.14614e-06
-1.45452e-06
-1.79474e-07
-3.10717e-07
4.90216e-07
7.14116e-07
-1.31328e-06
6.00197e-07
-1.25133e-06
1.69775e-06
-4.49879e-07
3.06033e-07
-5.18185e-07
-1.41573e-06
2.49283e-07
-7.16737e-07
1.43184e-06
3.65478e-06
-1.15681e-06
-2.48859e-06
-1.46533e-06
1.31007e-06
1.58418e-07
1.6969e-07
-6.20289e-07
4.50986e-07
-1.94892e-07
-4.38705e-07
-5.3623e-07
1.14746e-06
-4.61392e-07
-3.83863e-07
8.45389e-07
4.76095e-06
-4.65771e-06
3.8177e-07
-1.10515e-06
7.26571e-07
-2.20081e-06
-6.13877e-07
2.79332e-06
-1.4936e-07
1.05495e-06
-8.84254e-07
1.53797e-06
4.49518e-07
-5.34934e-07
3.40881e-07
-3.93062e-07
5.21828e-08
8.68851e-07
2.39206e-06
2.68728e-06
-7.17038e-07
-1.96327e-06
1.40186e-07
4.11832e-07
-5.52062e-07
2.00972e-06
6.83382e-07
1.65735e-06
7.737e-07
1.00777e-06
-5.14944e-07
5.96403e-07
-8.14538e-08
8.57473e-08
-3.62936e-07
-2.8236e-06
2.87784e-06
-5.8548e-08
-1.01871e-06
6.98706e-07
3.20763e-07
1.32777e-07
-7.58388e-08
4.59647e-08
-3.41217e-07
5.4628e-07
-7.83449e-07
-1.29529e-06
2.08471e-06
3.71733e-06
-3.67791e-06
-5.65611e-08
-4.45366e-08
-1.04761e-06
1.09584e-06
-8.96478e-07
1.1869e-06
-9.56842e-07
2.59953e-06
-2.84723e-07
4.17507e-07
3.25425e-07
3.83469e-07
6.81566e-07
-5.22841e-07
-1.5808e-07
3.30459e-08
5.20773e-07
2.4539e-07
-3.61287e-06
3.33423e-06
-1.53033e-06
2.30841e-07
1.03568e-06
-5.52063e-07
-4.83069e-07
2.97423e-07
3.09006e-07
-2.85004e-07
-1.30279e-06
1.58899e-06
4.24405e-07
-6.6362e-07
-1.85142e-07
8.49832e-07
1.57892e-06
-4.11048e-07
-1.16404e-06
-4.13921e-07
2.77755e-07
3.19763e-06
-1.339e-07
5.28413e-07
-3.93758e-07
-2.38694e-07
-7.74834e-07
7.62529e-07
5.2582e-07
-3.61978e-07
-1.63771e-07
7.21645e-07
3.49503e-07
-1.06998e-06
-2.53902e-06
-6.57048e-07
7.69292e-08
-1.26837e-06
1.19513e-06
-1.01366e-06
2.39652e-08
9.91016e-07
1.55496e-06
1.046e-06
-2.5875e-06
3.6306e-07
-1.62167e-06
-3.25623e-07
-1.00766e-07
4.2639e-07
1.27441e-07
5.54997e-07
5.102e-07
2.09536e-06
-2.63329e-06
3.98281e-07
-7.87173e-09
-3.90409e-07
-4.59301e-07
4.4141e-07
2.65446e-07
2.75859e-06
3.3213e-07
-3.11981e-06
-7.18737e-09
3.84888e-07
1.23916e-07
-5.08368e-07
2.49324e-06
-1.31395e-06
3.87026e-06
3.97432e-07
3.77963e-06
-1.41899e-06
-2.36752e-06
1.8114e-06
-1.7154e-07
-1.63783e-06
3.85385e-07
-6.6896e-07
-2.10882e-07
-8.01726e-07
-1.18317e-06
1.14263e-06
1.46504e-06
-6.97738e-07
4.16984e-07
-1.29242e-06
1.30736e-06
-5.16049e-07
4.12327e-06
6.11741e-07
2.71704e-07
-2.70441e-07
-6.25785e-07
5.21075e-07
1.0472e-06
-6.0771e-07
-4.38734e-07
-6.99284e-07
-3.18926e-07
1.91089e-07
-5.40081e-07
-1.38674e-06
1.10277e-06
8.50449e-07
1.45031e-06
2.78536e-08
-6.25163e-09
-5.69177e-08
3.58867e-07
-4.92049e-07
2.99058e-07
2.26862e-07
1.66531e-06
-3.72858e-06
-2.58169e-06
6.93829e-07
1.83087e-06
-1.98613e-06
3.62423e-06
1.19873e-06
-1.46779e-06
-5.42748e-07
1.14743e-06
3.1776e-07
4.04264e-07
2.81363e-06
-2.33434e-06
8.56299e-09
2.02975e-06
-2.03475e-06
7.0406e-08
-3.33198e-06
3.22002e-06
6.64138e-07
-3.56037e-07
4.99808e-07
1.89833e-07
2.88821e-07
-7.9472e-07
5.0647e-07
9.88243e-07
-5.72655e-07
-4.1534e-07
9.38915e-07
1.59156e-06
-2.51976e-06
-5.18472e-07
6.29488e-07
-1.10753e-07
8.08401e-07
-5.91846e-07
-1.41836e-06
9.54373e-07
4.67099e-07
1.22225e-06
-6.28062e-07
-5.93478e-07
2.52577e-07
-2.81605e-07
-1.54187e-07
4.35487e-07
-2.81841e-07
-4.97691e-07
1.02773e-06
-1.07022e-06
-3.39811e-08
8.71153e-07
3.62829e-07
-1.23156e-06
6.74996e-07
-3.76366e-07
-2.98554e-07
-2.83242e-08
-4.86618e-07
-1.93864e-06
1.26383e-06
6.78831e-07
3.46358e-06
-3.25022e-06
-4.16903e-07
1.04136e-06
-6.22321e-07
-1.39281e-06
-1.95152e-06
3.34616e-06
-1.58652e-06
1.22108e-06
3.71605e-07
4.24054e-07
-6.35056e-07
2.11096e-07
2.12213e-07
3.33873e-07
-5.45887e-07
8.77091e-07
-7.35534e-08
-8.01201e-07
-9.26656e-07
1.34653e-06
-1.37151e-07
4.78033e-07
-2.01802e-06
2.65616e-06
-6.34434e-07
-1.76709e-06
1.67539e-08
-2.70004e-06
2.34359e-06
3.45392e-07
2.19376e-07
-2.85064e-06
-1.06276e-06
5.16227e-07
5.48964e-07
1.26436e-06
-1.89208e-06
6.33975e-07
-3.55212e-08
4.33803e-07
1.85021e-07
4.06533e-07
-5.91604e-07
1.12729e-06
2.53583e-06
2.76716e-06
-2.28688e-06
-4.78714e-07
2.56231e-07
2.22501e-07
-1.18443e-07
9.98282e-07
5.71228e-07
-3.76418e-07
-2.61014e-06
5.96118e-07
9.32576e-07
-1.14068e-06
2.13046e-07
3.35562e-06
3.41994e-07
-7.18392e-07
1.64117e-06
-9.20806e-07
-6.86434e-07
2.22308e-06
2.73589e-06
-1.95283e-06
-3.46048e-07
-9.71843e-08
4.43235e-07
3.5045e-07
-1.98247e-07
-1.79093e-07
-2.29328e-07
4.07978e-07
2.553e-07
9.00093e-08
-1.11799e-07
-1.66628e-08
7.79649e-07
-5.72738e-07
-2.0622e-07
-5.22651e-07
2.51389e-07
2.71255e-07
-1.05607e-06
-4.06425e-07
-5.86507e-07
-1.68854e-06
7.51938e-07
-5.60527e-07
-3.19773e-06
3.1595e-06
2.59229e-08
9.75107e-08
3.04556e-06
-3.13729e-06
-2.02158e-07
-1.72409e-06
-4.72506e-07
-5.88421e-07
2.4933e-06
-2.61211e-06
1.16744e-07
2.26177e-07
-1.67621e-06
5.13963e-07
4.74567e-07
5.91295e-07
-2.94492e-07
-2.96763e-07
5.40646e-07
3.22765e-06
-4.42261e-07
7.97303e-08
-9.71162e-07
-2.15224e-07
1.19053e-06
2.83459e-06
-1.12701e-07
2.20082e-06
-1.08122e-06
-1.11016e-06
-6.13632e-07
-2.28571e-06
2.90241e-06
-1.86468e-06
3.17777e-07
1.26473e-06
-6.28779e-07
-3.41819e-07
9.73444e-07
6.50245e-07
6.57813e-07
-2.00164e-07
-2.20174e-07
-9.01711e-07
-6.87701e-07
-7.9009e-07
-1.67477e-06
2.46216e-06
4.85739e-07
-3.456e-07
2.13647e-07
3.0091e-07
-5.1443e-07
-6.42023e-07
4.43437e-07
1.99033e-07
2.82467e-07
-4.56014e-07
9.7298e-07
-3.48221e-07
-6.22227e-07
-7.83228e-07
-1.4269e-06
2.21751e-06
2.17413e-06
4.63815e-07
1.28148e-07
2.42615e-06
-2.28689e-06
-3.61563e-07
-1.0366e-06
9.65836e-07
-1.34607e-06
8.25947e-07
5.24811e-07
1.48914e-06
1.13836e-07
-1.59475e-06
-5.27245e-07
1.2502e-06
-1.49192e-06
6.74271e-07
-3.06299e-07
-3.67548e-07
-8.17059e-07
1.66343e-06
-2.27473e-06
4.42311e-07
1.0261e-06
-2.45517e-07
4.90243e-07
1.20831e-06
-1.87315e-06
6.69838e-07
6.20301e-07
-4.07861e-07
-3.84139e-09
2.31784e-08
2.65229e-06
-4.54895e-07
3.08702e-07
1.46225e-07
9.43702e-07
-1.28068e-06
3.38572e-07
-1.84715e-06
2.61419e-06
-7.59948e-07
-4.85744e-07
6.55864e-07
4.64742e-07
-8.22117e-07
5.50136e-07
4.86032e-07
4.79398e-07
-4.1421e-07
-1.05831e-06
-1.88347e-06
-7.49742e-07
2.0191e-06
-1.26422e-06
-2.79867e-07
-4.98907e-07
2.79038e-07
1.47932e-06
-1.0923e-06
-3.86506e-07
5.04295e-07
3.2501e-07
-8.28553e-07
2.71242e-07
-8.80871e-07
2.32763e-07
4.42001e-07
3.95546e-07
-5.01434e-08
-3.89945e-08
6.26056e-07
-2.2787e-06
8.4769e-08
2.49331e-07
-7.28764e-07
4.80092e-07
-1.11333e-07
-2.72229e-06
-2.5739e-07
-7.76654e-07
-2.04728e-06
1.59093e-06
4.6291e-07
-4.34781e-08
5.22895e-07
-3.06156e-07
1.24393e-06
3.93929e-07
2.81176e-07
-2.75636e-07
1.77378e-06
1.26371e-06
-7.80315e-07
-4.78892e-07
-9.07311e-07
4.91888e-07
-3.4923e-07
3.15308e-06
-3.37927e-06
1.69521e-08
-2.98648e-07
-3.71469e-07
-2.33711e-06
5.22439e-07
-1.723e-08
-5.05144e-07
-1.11871e-06
2.4877e-06
-1.39056e-06
3.53556e-07
2.20641e-07
-5.73648e-07
-1.22602e-06
-3.54192e-07
-6.38082e-08
-2.02121e-06
2.04965e-06
-3.74352e-06
2.64179e-06
-1.7828e-06
1.48696e-06
-3.43254e-07
6.35981e-07
-2.92513e-07
4.3546e-07
-3.78904e-07
-5.65517e-08
4.6627e-07
-2.59652e-07
-1.10332e-06
1.51018e-06
-4.01212e-07
-2.29971e-06
7.03121e-07
1.60731e-06
8.54051e-07
-8.28985e-07
1.52822e-07
-1.55305e-08
-1.3528e-07
-1.35011e-07
1.80754e-07
-3.60218e-08
-2.72046e-07
-2.43445e-07
5.15545e-07
-1.65226e-06
-2.10945e-06
-2.47672e-06
2.45392e-06
1.64653e-08
-9.59322e-07
2.96735e-07
8.80759e-07
5.70917e-08
1.02443e-06
-5.19227e-07
-1.70471e-07
1.02583e-06
-2.51016e-06
2.86377e-08
2.88691e-06
-3.95618e-07
-1.49261e-06
8.22454e-07
6.7151e-07
-1.04296e-06
2.25717e-06
-8.13026e-07
-1.0296e-06
-5.42953e-07
5.78743e-07
2.4227e-06
-1.07975e-06
-1.33066e-06
8.27773e-07
6.52249e-07
-1.83111e-06
6.22684e-07
1.21252e-06
1.41651e-06
-2.20996e-06
-4.54201e-07
1.70414e-08
4.37508e-07
-1.73315e-06
2.39663e-06
-6.60647e-07
2.43472e-06
-4.35256e-07
-1.9937e-06
-6.66059e-08
4.66779e-07
-4.00429e-07
3.65232e-07
-4.25174e-07
6.00181e-08
6.11639e-07
6.56768e-07
6.98677e-08
-4.69675e-07
4.00158e-07
-9.76511e-07
-9.58794e-07
2.33359e-06
4.62908e-07
-9.76259e-08
1.62636e-07
3.27052e-06
4.11539e-07
-2.29403e-07
-1.82132e-07
-1.63522e-07
6.86044e-07
1.96903e-06
-2.24302e-06
2.47464e-07
-2.46039e-08
-5.18257e-07
-5.35191e-07
-9.68002e-07
5.53088e-07
6.09329e-08
-8.63482e-08
-1.28021e-08
4.02147e-07
6.45884e-07
5.5391e-07
-3.83887e-07
-1.69948e-07
-2.35277e-06
-2.88445e-06
2.87769e-07
2.5906e-06
6.24877e-07
-3.06973e-06
-1.10605e-06
2.67158e-06
-2.83185e-06
-2.53131e-07
-1.89101e-07
-2.07122e-07
3.01256e-07
-1.35011e-07
3.06864e-07
2.84481e-07
1.62943e-06
2.09455e-07
-1.8312e-06
3.17826e-07
-3.83878e-07
3.54931e-08
2.43026e-06
-2.46527e-06
4.99191e-07
2.56072e-07
-7.54727e-07
-1.67959e-07
-2.71239e-06
4.95347e-07
-2.80841e-08
2.20341e-06
-4.88825e-07
-1.70726e-06
3.01951e-07
-1.01664e-06
6.76155e-07
1.17013e-06
-1.94773e-06
-7.7201e-07
1.53703e-06
-7.63194e-07
2.36753e-06
-2.35835e-06
-9.11776e-07
3.4608e-08
8.78675e-07
5.07525e-07
1.56767e-07
-3.43657e-06
1.70057e-07
3.16131e-06
-4.36079e-07
-7.54369e-08
5.11582e-07
1.82422e-07
2.5476e-07
-4.37172e-07
4.15249e-07
-1.09383e-06
6.79048e-07
6.81661e-07
-4.3179e-07
2.65957e-07
-4.45441e-07
-1.44175e-06
1.13019e-06
1.30774e-06
1.27383e-06
-1.76269e-06
4.95732e-07
3.077e-07
-1.60457e-07
-3.70408e-07
2.0085e-06
1.46086e-06
-9.68606e-07
-4.86188e-07
-3.19894e-07
2.51379e-06
-2.19439e-06
-2.96784e-07
5.52654e-07
-2.55845e-07
1.5424e-06
-3.87047e-07
-1.15136e-06
-2.3848e-08
5.23635e-07
5.98386e-07
-8.8986e-07
2.92767e-07
2.88384e-07
-3.62289e-07
1.84133e-06
-2.65484e-06
9.28054e-08
2.55741e-06
-9.2385e-07
1.2335e-06
-3.07382e-07
-5.18936e-07
-1.34129e-07
6.53186e-07
-2.07193e-06
3.87524e-07
2.39615e-07
9.75823e-07
-2.46075e-06
1.49231e-06
-2.88562e-07
-2.37128e-07
1.19594e-06
-2.02389e-06
8.33568e-07
3.4213e-06
-3.49653e-06
6.21889e-08
-1.71465e-06
-1.54974e-07
6.16417e-07
-7.56843e-07
5.87624e-08
1.8854e-07
2.51179e-07
-4.39696e-07
2.08627e-07
-4.97032e-07
-2.08602e-06
-5.19646e-07
6.38744e-07
2.14672e-09
-6.39903e-07
4.7262e-07
7.39499e-07
-1.21061e-06
-3.6421e-07
-2.77414e-07
3.32967e-08
4.02169e-07
6.69868e-07
-2.84439e-07
-4.51734e-07
5.75661e-07
-1.23804e-07
4.99567e-06
-2.4636e-06
-2.53436e-06
3.1779e-07
2.3156e-07
-3.43682e-07
1.19075e-06
-2.91115e-06
5.86384e-07
2.32251e-06
-3.29131e-07
-1.07781e-06
-4.1504e-07
-2.53451e-07
-2.01422e-07
-2.4191e-06
2.51865e-06
-1.721e-06
2.07817e-06
-3.55579e-07
-1.92142e-07
2.35634e-06
-2.16442e-06
-6.70797e-07
9.98205e-07
-5.15572e-07
-3.82683e-07
-7.83014e-08
4.60991e-07
-8.54397e-07
-7.93336e-08
9.35258e-07
-4.31839e-07
-2.39218e-07
-2.83475e-07
2.17582e-06
9.88478e-09
-2.18046e-06
7.58655e-07
-9.70288e-07
1.10119e-06
-8.30874e-07
-2.67367e-07
-2.69769e-07
5.34541e-08
4.08319e-07
2.35852e-06
-1.70442e-06
9.34799e-07
-2.64625e-06
-3.01175e-07
2.95542e-06
-7.70378e-07
3.19049e-07
1.22777e-06
-6.59201e-07
1.65904e-07
4.93555e-07
-3.54904e-07
-1.35241e-07
4.90128e-07
-7.4064e-07
1.06658e-06
1.2416e-06
-2.38256e-06
1.6203e-06
-6.74858e-07
-8.27057e-07
3.5529e-07
4.72276e-07
-3.58772e-07
-1.25735e-07
4.84551e-07
6.20727e-07
8.47254e-07
5.18402e-07
-3.71372e-08
-4.8122e-07
-1.27972e-06
4.46624e-07
8.35623e-07
-2.60247e-06
5.21585e-07
-1.56496e-07
7.96426e-07
4.64112e-07
1.44298e-08
-4.78293e-07
-2.23551e-06
1.36882e-06
4.96121e-06
-1.95038e-06
-3.0417e-06
2.89049e-07
-6.63207e-07
3.74276e-07
2.90234e-07
-3.57964e-07
-2.71721e-08
5.82151e-07
2.38622e-07
-3.92918e-07
4.50607e-08
4.30154e-08
4.92439e-08
-5.68067e-07
-3.10635e-06
3.213e-06
2.61004e-07
1.16879e-07
-3.78096e-07
-9.75428e-08
-3.6742e-07
4.64963e-07
2.35823e-07
-7.59662e-07
2.03053e-06
-7.70842e-08
1.14929e-06
-1.7348e-07
-3.83021e-07
5.56584e-07
1.18451e-07
-1.18451e-07
2.72847e-07
4.02662e-07
-6.74332e-07
2.01047e-07
2.10496e-07
-6.24718e-07
8.21079e-07
-1.95893e-07
4.80435e-07
-1.92256e-07
-9.22507e-07
6.80085e-07
2.44913e-07
1.79398e-07
2.13561e-07
-3.92956e-07
3.3287e-07
-9.59008e-07
8.07721e-07
1.5119e-06
-2.31443e-06
-1.96125e-06
2.42523e-07
1.93896e-07
2.1419e-07
-4.08664e-07
1.60149e-07
-6.36021e-07
4.76354e-07
-4.23166e-07
-2.60604e-07
5.94682e-07
-3.13379e-06
6.54585e-07
-3.80672e-07
1.70021e-07
-1.08524e-08
-2.59242e-07
-9.05942e-07
9.37592e-07
-3.46665e-07
-5.88239e-07
-4.02049e-07
9.69226e-07
2.25606e-06
-3.15587e-07
-1.54311e-06
-1.36573e-07
1.68265e-06
6.22824e-07
1.57569e-07
-4.53611e-07
1.75877e-08
-2.40652e-07
4.34108e-07
4.18126e-07
-2.91715e-08
-3.88954e-07
-1.01982e-06
-3.95696e-07
1.15932e-06
-5.56069e-07
3.8862e-07
-6.49319e-07
-1.88459e-06
1.89647e-06
-3.31284e-06
3.22479e-06
6.90837e-08
-2.44916e-06
2.85784e-06
-4.22784e-07
2.88662e-06
-1.26762e-06
-1.60324e-06
-6.18775e-07
-1.14901e-06
2.24515e-06
-1.09823e-06
3.39975e-07
6.00515e-07
2.94052e-06
-2.49163e-06
-4.96739e-07
3.75246e-08
-9.62263e-08
-2.41479e-06
4.27179e-07
1.93078e-06
-2.36957e-07
-2.50127e-07
4.87117e-07
2.17541e-06
-1.08345e-07
1.54701e-07
-1.8376e-07
1.49887e-08
7.86323e-07
3.17898e-07
-1.30389e-06
8.88167e-07
4.19065e-07
-1.07659e-06
-2.43246e-06
-3.55015e-09
-3.42497e-07
1.20521e-06
-2.59446e-06
3.98557e-06
-3.78379e-06
-2.13329e-07
-1.0529e-06
4.24061e-07
6.30511e-07
-1.30526e-06
5.69105e-07
7.36757e-07
-6.30813e-07
2.65743e-08
1.83041e-06
-1.85145e-06
5.3661e-07
-1.81669e-08
-6.76609e-07
3.49317e-07
6.84672e-07
-1.03142e-06
-1.44112e-07
6.08501e-07
-7.16924e-07
1.06889e-06
5.8892e-07
1.63519e-07
1.61529e-06
-8.18392e-07
-5.10117e-07
2.82468e-07
2.27679e-07
-2.39723e-08
-3.58707e-07
2.94571e-06
5.03912e-07
-2.42698e-07
2.68578e-07
-6.26145e-07
3.5786e-07
1.73525e-06
-1.82461e-06
-3.19825e-08
4.58484e-07
-2.80313e-07
-1.78116e-07
-2.81065e-06
2.69795e-06
9.39336e-08
-2.20372e-06
4.04828e-07
1.74743e-06
-8.7275e-07
1.39483e-06
-5.18121e-07
-3.9818e-07
2.2921e-06
4.97137e-07
2.63834e-07
-7.6059e-07
1.00544e-07
-4.59272e-07
3.26336e-06
-2.79676e-07
-2.3042e-07
2.22852e-06
2.76506e-06
1.40972e-06
-2.55227e-07
6.43234e-07
-4.82568e-07
-3.31694e-06
3.65715e-07
2.84855e-06
4.73694e-07
-2.95888e-07
-1.77789e-07
-1.54724e-06
-4.62091e-07
2.01439e-06
2.92132e-06
-4.45525e-07
-2.47263e-06
2.71335e-07
-2.95432e-06
2.67453e-06
-3.04026e-06
5.82499e-07
2.86595e-08
-7.38778e-07
7.10535e-07
-6.18558e-07
-2.35459e-07
4.16527e-07
-3.51942e-08
-3.81324e-07
1.22749e-07
-8.62544e-07
-1.87953e-07
-3.55457e-07
-2.3459e-07
-9.22142e-07
1.15975e-06
-2.82411e-06
-6.85666e-07
-7.14015e-08
7.57777e-07
4.21148e-09
4.13914e-07
-5.72672e-07
1.21058e-07
8.60246e-07
-4.83722e-07
7.73636e-07
-4.84259e-07
-7.76218e-07
-3.54141e-07
1.13554e-06
-1.54141e-06
-1.30858e-07
1.67757e-06
6.79154e-07
-6.50115e-07
2.4646e-06
-1.38792e-06
-1.07185e-06
2.93537e-07
-5.3364e-07
3.44852e-07
-3.77777e-07
-1.61405e-08
-1.92472e-07
4.5298e-07
-2.39732e-06
1.25025e-08
2.79268e-07
5.81128e-07
-6.48941e-07
-8.42407e-07
2.46139e-06
-5.75389e-07
-1.88056e-06
2.15928e-07
3.87492e-07
-2.72787e-06
2.4735e-06
2.07172e-07
6.49218e-07
-2.55172e-07
2.49382e-07
-1.79183e-06
-1.77636e-06
-4.82873e-07
-8.58395e-07
-6.33889e-07
-3.64012e-07
9.98984e-07
-5.76024e-07
-1.62388e-07
-5.46318e-07
4.76381e-07
3.36974e-08
-5.09775e-07
-4.24948e-07
1.69974e-07
2.54966e-07
1.01582e-06
7.49225e-07
-1.6768e-07
4.06282e-07
-3.42707e-06
2.01923e-06
1.40312e-06
4.87707e-07
1.32844e-08
-5.0091e-07
-6.53019e-07
-2.67151e-07
-1.89989e-06
6.99861e-07
-2.32093e-06
-1.93541e-07
9.24232e-07
-8.44659e-07
2.23307e-06
1.37018e-06
4.27405e-07
2.49451e-06
-7.27883e-07
1.78086e-06
-1.04512e-06
-1.46908e-07
6.34712e-07
5.81307e-07
-4.15201e-07
6.23351e-07
-3.34195e-07
-9.45954e-07
6.17412e-07
3.29388e-07
4.10481e-08
-1.1739e-06
1.12172e-06
-5.04919e-07
1.02262e-06
-5.14163e-07
5.58525e-07
-3.47203e-07
-6.1704e-07
2.6529e-06
-2.08015e-06
5.87607e-07
-9.31551e-07
2.47656e-06
-1.86076e-06
-6.07892e-07
3.7687e-07
-3.20348e-08
-3.44798e-07
-1.84069e-06
2.84813e-07
1.55839e-06
-4.01731e-07
8.69564e-08
3.14792e-07
2.88331e-07
1.01538e-08
-1.4861e-07
-4.76962e-07
1.52684e-07
-4.00005e-09
1.13816e-06
-9.10614e-07
-2.247e-07
-1.28649e-06
-1.62609e-06
1.2345e-06
1.66716e-06
-2.30189e-06
1.11195e-06
1.20315e-06
-3.2492e-06
3.84886e-07
3.5885e-06
-1.09835e-06
-2.23328e-06
3.22756e-06
-5.38662e-07
1.95602e-07
6.09122e-08
2.7006e-08
-7.52065e-07
-9.2159e-07
1.68133e-06
1.78883e-07
2.9483e-07
-2.22167e-06
-3.75478e-07
1.39843e-06
-5.67419e-07
-4.49666e-07
1.69605e-06
-2.32323e-07
6.54774e-07
-4.22024e-07
-2.70103e-07
4.06983e-07
6.9755e-07
-1.44308e-06
3.12537e-06
-3.43885e-06
2.47662e-07
4.5989e-07
-4.83756e-07
2.2751e-06
-2.39245e-06
1.76339e-07
1.76043e-06
-1.30119e-06
-4.5243e-07
-3.25211e-07
-1.53478e-07
-3.58968e-07
5.58403e-07
-1.99397e-07
-4.24808e-07
-2.20761e-07
6.45732e-07
-4.33447e-07
5.57785e-07
-5.69981e-07
-4.85062e-08
-8.22163e-08
1.89542e-06
-1.70563e-06
-1.26417e-06
2.95897e-06
-2.60769e-07
5.54355e-07
-1.82979e-06
6.2866e-07
-4.61576e-07
-1.66976e-07
-1.80621e-06
1.22081e-06
5.9237e-07
-2.81093e-08
1.30953e-06
-1.28295e-06
-5.42436e-07
2.96649e-07
2.45817e-07
-2.73671e-07
-2.45986e-07
5.1969e-07
2.14967e-06
6.63289e-09
4.09902e-07
-9.26807e-07
-9.00516e-07
6.93571e-07
1.69937e-07
-8.59687e-07
-7.89115e-07
4.05368e-07
-3.6325e-07
2.54738e-07
-3.6831e-07
6.00446e-07
-2.32065e-07
-7.48405e-10
2.1177e-07
-2.67287e-07
5.43225e-07
-1.40997e-06
6.26607e-07
-3.17835e-07
5.19756e-07
-2.01936e-07
-2.27806e-06
-5.48734e-07
2.90148e-06
-2.49582e-06
-5.25276e-07
-5.18469e-07
2.64789e-06
-2.13165e-06
3.45621e-07
1.6911e-07
-5.14512e-07
-7.28889e-07
5.39807e-07
1.90334e-07
-1.06269e-06
-1.89541e-07
-2.86892e-07
4.76452e-07
-1.33536e-06
3.68405e-07
1.70564e-07
7.44413e-07
4.58964e-07
2.02606e-06
5.27362e-07
-1.89133e-06
1.30001e-06
-2.47523e-06
1.95785e-06
3.27987e-07
1.98903e-06
-2.3865e-06
3.26801e-07
2.11283e-07
1.84268e-07
-3.84934e-07
-3.55102e-07
-4.18175e-07
7.74599e-07
8.85646e-08
-2.41245e-06
-3.14542e-07
3.36623e-06
-1.15869e-06
-2.70805e-06
2.34435e-06
3.53549e-07
-1.31838e-06
4.49194e-07
-1.3904e-06
1.61968e-06
-4.90888e-07
-5.3627e-07
2.41918e-07
2.94421e-07
9.86736e-07
-6.43758e-07
7.8543e-07
-1.80302e-07
-6.04465e-07
2.91381e-07
-6.45372e-07
-2.601e-06
-2.87668e-07
-2.85029e-08
7.08061e-07
1.03677e-06
-2.75197e-06
-1.52113e-07
7.20252e-07
-4.51372e-07
2.12256e-07
-4.72486e-07
2.60242e-07
-5.87275e-07
2.00049e-07
3.87326e-07
-2.6967e-06
5.82292e-08
9.48335e-07
-1.66889e-06
-3.50425e-07
5.02341e-07
-1.51925e-07
-2.28454e-07
-2.30215e-07
4.5868e-07
-2.86639e-07
-4.52605e-07
-5.17308e-07
9.70008e-07
-3.78844e-07
-4.47765e-07
2.72779e-07
1.90153e-07
8.35157e-07
-3.25666e-08
-2.20822e-07
6.1009e-07
-1.80321e-07
-3.28908e-07
5.62585e-07
-8.17583e-07
-2.26369e-09
2.82697e-07
-9.90704e-07
1.31394e-06
-2.44686e-07
-1.88281e-07
4.32771e-07
-3.3904e-07
-1.14998e-07
5.11331e-07
2.34687e-07
-7.4582e-07
-3.16683e-08
2.58319e-06
-2.55027e-06
-2.59948e-06
1.54184e-06
1.07043e-06
-3.91631e-07
-8.68687e-07
1.26099e-06
-1.83607e-07
3.7163e-07
1.99998e-06
4.6473e-07
4.28284e-07
-6.41244e-07
2.13064e-07
-2.81313e-06
1.32252e-07
2.64923e-06
-1.78808e-06
-6.25069e-07
-1.09533e-07
7.34973e-07
2.32611e-06
2.79769e-07
-1.81933e-07
-2.514e-06
2.66544e-06
-1.93638e-06
-1.05321e-07
5.82415e-07
-1.4631e-06
-1.83481e-06
4.26052e-07
1.34087e-06
1.38994e-06
1.07927e-06
-3.07591e-06
-8.06001e-08
5.5729e-07
4.83553e-07
1.87183e-07
-6.69352e-07
2.05671e-07
3.10153e-07
2.24549e-07
-1.05165e-06
5.8266e-07
4.69338e-07
2.47107e-07
-2.62037e-06
2.38076e-06
-6.35235e-07
7.38293e-07
-2.7687e-07
-1.01407e-06
1.22524e-06
-2.09607e-07
-3.35034e-07
-2.50837e-06
-1.50886e-06
2.45773e-06
-5.87608e-07
2.43361e-07
1.02363e-07
-6.24408e-07
5.23243e-07
-1.19396e-06
-5.61642e-07
-2.78734e-07
4.52887e-07
-1.74144e-07
-4.72426e-07
1.03792e-06
-1.1527e-06
2.26573e-06
-8.40055e-08
-4.66594e-08
3.63993e-07
-2.12176e-07
-7.91116e-07
1.03534e-06
-2.4342e-07
-1.19405e-07
2.43071e-06
-2.38648e-06
1.79479e-07
-5.23979e-07
3.45067e-07
1.19062e-06
-1.10619e-06
-9.07615e-08
1.04489e-06
3.68704e-07
1.54582e-06
1.093e-06
-2.66271e-06
-5.94994e-07
-6.94106e-08
6.64535e-07
-2.4088e-07
1.8756e-06
-1.62864e-07
-1.7577e-06
-2.86775e-06
2.82762e-06
-4.97751e-07
-1.14254e-07
6.12113e-07
1.21142e-07
-2.77922e-06
5.56269e-07
-3.35462e-07
-2.2071e-07
-2.73458e-07
4.3881e-07
-1.65207e-07
-4.20886e-07
-7.86246e-07
1.21118e-06
-1.98064e-06
-1.12183e-06
1.64756e-06
-5.28296e-07
3.05717e-06
-1.53831e-06
2.34683e-07
1.39513e-08
-4.38083e-08
-2.87331e-07
5.98773e-07
-4.85347e-07
-7.15823e-07
-1.49759e-06
2.21955e-06
2.13567e-07
2.44894e-07
4.83616e-09
5.34905e-08
2.27162e-06
-2.5305e-06
-4.07888e-07
-1.56348e-07
-3.19236e-06
3.06162e-06
1.14117e-07
2.63542e-07
2.93607e-07
-3.05303e-06
7.22702e-08
2.86184e-06
1.41242e-06
-8.34728e-07
-5.7658e-07
-3.01684e-07
-3.13795e-06
5.42618e-07
2.59014e-06
1.21151e-06
1.23735e-06
-2.45855e-06
1.17413e-06
5.82128e-09
-4.5935e-07
1.92521e-07
7.23171e-07
-2.56425e-06
1.20941e-06
-1.23935e-06
-8.27811e-07
5.13246e-07
3.14696e-07
2.53911e-07
-1.24058e-06
-2.48579e-07
-1.86824e-06
2.06635e-06
-4.3979e-07
-6.1147e-07
1.25092e-06
-3.76053e-07
-9.91613e-07
-5.32524e-08
-3.27596e-07
-1.36741e-06
-3.3575e-08
-9.79228e-07
3.70964e-07
-2.83993e-07
-8.73781e-07
1.019e-06
-1.41481e-07
-2.81567e-06