/*--------------------------------*- C++ -*----------------------------------*\
| =========                 |                                                 |
| \\      /  F ield         | OpenFOAM: The Open Source CFD Toolbox           |
|  \\    /   O peration     | Version:  v2012                                 |
|   \\  /    A nd           | Website:  www.openfoam.com                      |
|    \\/     M anipulation  |                                                 |
\*---------------------------------------------------------------------------*/
FoamFile
{
    version     2.0;
    format      ascii;
    class       surfaceScalarField;
    location    "650";
    object      meshPhi;
}
// * * * * * * * * * * * * * * * * * * * * * * * * * * * * * * * * * * * * * //

dimensions      [0 3 -1 0 0 0 0];
oriented        oriented;


internalField   nonuniform List<scalar> 
27907
(
1.61703e-05
3.79723e-05
-5.4146e-05
3.33485e-05
-4.44107e-05
1.10616e-05
-4.93787e-05
-2.32378e-05
6.24227e-05
-2.60775e-05
4.93944e-05
-2.33172e-05
-2.72415e-05
4.18594e-05
-1.46179e-05
2.05622e-05
-4.08366e-05
2.02744e-05
2.70701e-05
-3.02232e-05
3.15313e-06
0.000140745
3.76174e-06
-0.000149232
1.44777e-05
3.43248e-05
-4.88046e-05
5.78953e-05
-0.000100714
4.27553e-05
0.000149717
-7.64074e-05
-7.35205e-05
-2.14213e-05
-1.65307e-05
3.79518e-05
-2.26536e-05
1.00325e-05
7.07805e-06
-4.37989e-05
-1.68968e-05
6.06902e-05
-1.86561e-05
-0.000108499
0.000126814
2.30744e-05
-4.78734e-05
2.47987e-05
-9.84331e-05
7.28961e-05
2.54999e-05
-0.000184766
5.28685e-05
0.000129101
0.000162651
-0.000155119
-8.28288e-06
-2.86831e-05
-6.31286e-05
9.17696e-05
1.79563e-05
-3.00676e-05
1.21114e-05
-1.45131e-05
-1.26075e-05
2.67297e-05
-2.45855e-05
3.98998e-05
-1.53144e-05
2.80969e-05
1.06635e-05
-3.87612e-05
5.41566e-05
-3.09367e-05
-2.32207e-05
-6.33817e-06
0.00014186
4.37722e-05
-2.46316e-05
-1.91407e-05
-3.16979e-05
4.1282e-05
-9.58415e-06
-3.499e-05
4.52794e-05
-1.02899e-05
3.51864e-05
-3.75183e-06
-3.14348e-05
5.22459e-05
-8.41143e-05
3.18522e-05
-3.16476e-05
1.30008e-05
1.86468e-05
-5.07729e-06
-2.8846e-06
5.20891e-06
4.8043e-06
-0.000129667
0.000124505
-2.60496e-05
6.60742e-05
-4.00301e-05
-2.11007e-05
-7.15555e-05
9.23646e-05
4.1958e-07
6.49503e-06
-8.81722e-06
-3.2488e-05
0.000160637
-0.000128761
-0.000153217
6.26076e-06
0.000146476
-0.00010201
3.89088e-05
6.3066e-05
-7.30505e-05
-0.000100715
0.000173135
-7.13133e-05
-5.21566e-05
0.000123414
0.000180759
-4.4462e-05
-0.00013838
-0.000103224
-2.23698e-06
0.000105395
3.68574e-05
2.13451e-06
-3.89924e-05
8.55733e-06
5.4887e-05
-7.03687e-05
6.89877e-06
-3.14843e-05
-9.62376e-05
-2.61906e-05
0.000122264
-5.60725e-05
0.000113895
-0.000156462
7.24921e-06
0.000146771
4.22199e-05
1.59104e-05
-5.81349e-05
-3.04346e-05
-1.07491e-05
4.11837e-05
4.51223e-05
-0.000112784
6.22647e-05
5.16796e-05
9.78011e-05
-3.22099e-05
5.11866e-07
-4.68953e-05
2.3392e-05
2.35027e-05
8.38782e-06
-9.84192e-06
3.5881e-05
2.09594e-05
-0.000130493
0.000159708
-2.95882e-05
-7.4703e-06
6.17881e-05
-5.43227e-05
7.00601e-05
-2.20397e-05
-4.80248e-05
-5.54536e-06
3.26154e-05
5.06984e-05
1.02971e-05
-6.10012e-05
-6.54403e-05
0.000144502
-7.91793e-05
-5.01555e-05
9.05023e-05
-1.8651e-05
-0.000132092
0.000150501
-9.467e-05
-5.76536e-06
0.0001004
2.33501e-06
-9.71859e-06
-0.000180107
2.30727e-05
0.000156249
-3.39139e-05
3.47912e-06
1.10651e-05
1.96299e-05
-3.0695e-05
-0.00014519
1.64235e-05
0.000128634
-8.96506e-06
-0.000149808
-2.38323e-05
3.30755e-05
-9.24321e-06
-0.000174401
1.67637e-05
0.000154838
0.000123456
-0.000172369
4.84664e-05
-1.19039e-05
5.86173e-05
-4.67154e-05
3.51937e-05
-3.33266e-05
-1.86715e-06
-4.42375e-05
6.62072e-05
-2.19732e-05
1.0291e-05
2.26451e-05
-3.29361e-05
-1.76251e-05
-1.92449e-05
3.687e-05
2.3555e-05
1.53919e-05
-3.89472e-05
3.92098e-05
-4.66837e-05
-4.59418e-05
2.20413e-05
2.39003e-05
3.82251e-05
-5.0131e-05
-7.74615e-05
-4.10238e-05
0.00011841
-1.87525e-05
-1.97131e-05
3.84654e-05
-1.687e-05
6.75626e-05
1.83703e-05
1.13967e-05
-2.9767e-05
0.000176665
-5.36852e-05
-2.32497e-05
-2.26921e-05
-0.000165701
3.48132e-05
-1.17301e-05
-2.89025e-05
4.06326e-05
5.03877e-05
-0.000121752
-2.83855e-05
-1.11699e-05
3.95553e-05
1.94661e-05
-3.11963e-05
-1.87814e-05
5.70045e-05
-5.11427e-05
-0.000125657
0.000198408
-6.20268e-05
-0.000137091
3.21316e-05
-1.41753e-05
4.32754e-05
-9.18452e-05
4.85283e-05
4.50642e-05
-1.58197e-05
-2.92446e-05
-5.38973e-05
6.84314e-05
-1.45434e-05
-8.05653e-05
1.86563e-05
6.18905e-05
-1.9353e-05
-1.22946e-05
-6.41094e-06
4.15971e-05
-2.06054e-05
-2.25953e-05
4.32003e-05
-7.53809e-06
4.27317e-05
-0.00013159
0.000166455
-3.51946e-05
0.000137526
-6.60699e-06
-0.000130964
3.79372e-05
-1.84712e-05
5.43101e-06
-0.000150298
0.000135807
9.71105e-06
-0.000172231
3.26236e-05
0.000139141
1.55089e-05
2.21145e-05
-3.76237e-05
2.47959e-05
-2.76015e-05
2.80565e-06
-2.08305e-05
-1.26034e-05
3.34339e-05
-0.000128819
0.000109826
-2.66512e-05
4.04096e-05
-1.37585e-05
1.80025e-06
-3.01858e-05
-0.000111864
8.05301e-05
3.12893e-05
2.80439e-05
8.99502e-05
-0.000118173
4.04026e-05
-3.67762e-06
-3.67252e-05
-3.81525e-05
3.08895e-05
7.26286e-06
4.70402e-05
-2.58309e-05
-2.12102e-05
-1.12364e-05
4.80932e-05
-1.24274e-05
4.57752e-05
5.18363e-05
-7.85677e-06
-4.39806e-05
4.8987e-06
-3.38013e-05
5.91451e-06
-9.29826e-07
-1.18381e-05
-6.7243e-05
-3.12232e-05
2.50261e-05
1.87458e-05
-1.82318e-05
-1.18359e-05
2.13683e-05
-6.58984e-05
4.45214e-05
3.11064e-06
2.5583e-05
-1.89195e-05
-8.47967e-05
0.000103633
3.69846e-06
5.49165e-05
-5.40635e-05
-4.79769e-05
1.92001e-05
0.00017823
7.06891e-05
-5.46234e-05
-1.60679e-05
9.24602e-08
-4.43325e-05
5.16087e-05
-3.83532e-05
-1.32566e-05
9.8305e-05
5.52439e-05
-0.000154015
-1.77332e-05
-2.91624e-05
5.9196e-05
-0.000132756
-0.000142203
-2.13487e-06
0.000143705
2.26963e-05
7.36798e-06
-3.00643e-05
-2.30559e-05
3.87822e-05
-1.57263e-05
8.06307e-05
-2.84012e-05
4.55752e-05
-7.09226e-06
-3.84832e-05
-1.80345e-05
4.1589e-05
3.71188e-05
-4.27815e-05
5.66204e-06
-5.84387e-05
0.000116686
-5.83246e-05
2.09047e-05
1.17089e-06
-2.32604e-05
1.20921e-05
2.00763e-05
-3.21685e-05
-0.000124195
8.28671e-05
4.12325e-05
-3.40819e-05
7.43055e-06
1.8742e-05
-0.000115135
0.000187737
-0.000102905
-8.50986e-05
-6.8995e-08
-7.24567e-06
7.02552e-06
0.000174986
-4.17011e-05
-0.000135031
2.44518e-05
2.51475e-05
-4.96027e-05
1.73528e-05
1.91469e-05
-3.64998e-05
7.38058e-05
0.000113636
1.69461e-05
5.31093e-05
-4.96055e-06
-3.00297e-05
0.00016567
-0.000165184
-1.20817e-06
-1.59476e-05
4.07247e-05
-2.47772e-05
-2.90838e-05
-2.12563e-05
5.0338e-05
-3.99793e-05
2.00203e-05
1.99589e-05
-1.29622e-05
-1.99247e-05
3.28869e-05
-8.53632e-05
-0.000101657
3.74298e-05
-2.00772e-05
-2.28718e-05
-1.37661e-05
3.66379e-05
5.18213e-05
-2.73729e-05
4.96829e-05
-2.15868e-05
1.58625e-05
-4.23736e-05
2.65109e-05
4.53953e-05
-0.000110929
2.56911e-05
4.49952e-05
5.33319e-07
-0.000140525
0.000139486
-0.000138218
1.73542e-05
0.00011612
1.73323e-05
1.19309e-05
3.89276e-05
-1.80945e-06
0.000200287
-6.4491e-05
-0.000137516
0.000134964
-3.54857e-05
-9.9619e-05
-5.8281e-05
4.10438e-05
1.72361e-05
-3.15259e-05
-0.000123635
0.000154567
-1.12645e-05
3.60604e-05
-0.000166634
7.64944e-06
0.000156382
-1.45344e-05
0.000157035
-0.000142977
5.88439e-05
-3.74826e-05
-1.26813e-06
5.31033e-05
0.000144893
-5.52361e-05
-8.99283e-05
5.64438e-05
2.41691e-05
8.75442e-05
-7.85761e-05
-8.98796e-06
4.2319e-05
-5.91942e-05
5.80316e-05
-8.67545e-05
2.25519e-05
-5.16378e-05
-1.16723e-05
7.2558e-05
-6.3464e-05
0.000167927
1.03607e-05
-6.3916e-05
2.81659e-05
3.5748e-05
-0.000115274
0.000133833
6.30408e-05
2.28142e-05
-8.58908e-05
6.57604e-05
-4.38124e-06
-6.13874e-05
-1.91291e-05
-8.49033e-06
1.78618e-05
6.96572e-05
6.47785e-05
3.6045e-06
-6.83918e-05
-1.06383e-07
2.01496e-05
1.14379e-05
-2.9603e-05
1.81651e-05
4.5824e-05
-0.000101962
-0.000179836
5.20029e-05
0.000125166
-6.08267e-05
-1.97548e-05
-0.000167123
0.000114105
5.27384e-05
4.38162e-05
2.58489e-05
-6.96919e-05
-4.04268e-05
-2.71377e-05
6.75607e-05
4.55867e-05
-2.21865e-05
-2.34003e-05
-5.18168e-05
1.13872e-05
-4.75493e-05
2.68835e-05
2.06657e-05
0.000185535
-8.5559e-05
-0.000103504
3.97017e-05
-1.91396e-05
-0.000129582
-6.66974e-06
-0.000125174
-6.36108e-06
-4.15479e-05
4.79067e-05
-1.13273e-05
3.40236e-05
5.28897e-05
-3.43122e-05
-1.85792e-05
-4.77089e-06
6.95399e-05
-8.46903e-05
-3.70302e-06
8.83753e-05
4.47744e-05
2.44989e-05
-6.92853e-05
9.64111e-05
5.89204e-05
-0.000156942
7.77492e-05
-1.74732e-05
-6.02845e-05
0.00011553
-0.000134384
6.70727e-05
-2.476e-05
3.22552e-05
5.99859e-07
-3.28551e-05
2.93702e-05
-4.81534e-05
9.1067e-06
-3.88543e-06
0.000139557
-0.000171716
-8.83104e-05
0.000182933
-2.08568e-06
-6.91482e-05
6.45103e-05
4.49145e-05
-4.51217e-06
2.05184e-05
5.45277e-05
-7.50804e-05
0.000163461
-0.000159344
-5.72575e-06
5.31989e-05
-3.10989e-05
-2.21009e-05
-3.94149e-05
1.8809e-05
6.85838e-05
-0.000126007
5.71718e-05
2.67907e-06
4.28958e-05
-3.11563e-05
1.39848e-05
1.71714e-05
-1.9396e-05
4.87643e-05
8.10873e-05
-0.000102405
-1.34911e-05
-2.33558e-05
3.68468e-05
5.22908e-05
-9.61936e-05
4.38845e-05
-8.24331e-05
0.00011122
-2.90968e-05
2.30001e-05
-3.8948e-05
-9.3966e-05
1.64426e-05
-5.25774e-05
0.000104849
0.000161095
-5.0894e-05
-0.000110577
-0.000103835
9.26006e-05
1.12024e-05
1.26744e-05
-4.63566e-05
3.36812e-05
-1.46258e-05
-3.29236e-05
-3.85853e-05
8.23721e-05
-3.44855e-05
-2.86958e-05
6.31774e-05
0.000176503
-0.000173596
2.70793e-05
-7.85134e-05
5.14203e-05
-0.000128566
-3.5779e-05
0.000163266
-1.08553e-05
7.66057e-05
-6.23606e-05
0.000108115
3.31748e-05
-3.95378e-05
2.5631e-05
-2.95547e-05
3.92366e-06
4.87008e-05
0.000132303
0.000161836
-4.32916e-05
-0.000118885
1.04945e-05
3.08371e-05
-4.13326e-05
0.000120417
4.10676e-05
9.16521e-05
4.31476e-05
7.3358e-05
-3.86493e-05
4.47625e-05
-6.11358e-06
6.44473e-06
-2.72752e-05
-0.00016845
0.000171438
-3.48178e-06
-7.58308e-05
5.1962e-05
2.38624e-05
9.9833e-06
-2.53427e-05
1.53594e-05
-2.56143e-05
4.10057e-05
-5.05e-05
-8.34536e-05
0.000133739
0.000182847
-0.000181332
-2.76513e-06
-3.08185e-06
-7.26016e-05
7.56239e-05
-6.40621e-05
8.45421e-05
-5.70513e-05
0.000154902
-2.1407e-05
3.13903e-05
2.44214e-05
2.87763e-05
5.06048e-05
-3.88547e-05
-1.1751e-05
1.10315e-05
3.91539e-05
1.14771e-05
-0.000167345
0.000153976
-6.66421e-05
9.95659e-06
7.69498e-05
-4.10362e-05
-3.59227e-05
2.23578e-05
2.32288e-05
-2.05067e-05
-9.35628e-05
0.000114043
3.17175e-05
-4.89678e-05
-1.36533e-05
6.26151e-05
0.000109487
-2.8561e-05
-8.09916e-05
-3.11163e-05
1.30925e-05
0.000148768
-9.91829e-06
3.9123e-05
-2.92058e-05
-1.7938e-05
-6.38357e-05
6.50005e-05
3.95073e-05
-2.72013e-05
-1.23061e-05
5.31721e-05
2.57746e-05
-7.89651e-05
-0.000143871
-3.69754e-05
5.48781e-06
-9.06947e-05
8.51533e-05
-7.46304e-05
1.76311e-06
7.28583e-05
7.4321e-05
4.95923e-05
-0.000124225
2.43333e-05
-0.000107122
-2.44839e-05
-7.57668e-06
3.20606e-05
9.44777e-06
4.11558e-05
2.97828e-05
0.000122265
-0.000153063
2.99471e-05
-5.91883e-07
-2.93553e-05
-3.45258e-05
3.30266e-05
1.98612e-05
0.000155804
1.87184e-05
-0.000175447
-1.10293e-06
2.87032e-05
9.2438e-06
-3.79478e-05
0.000145813
-7.75085e-05
0.000179625
1.87033e-05
0.000189716
-7.1767e-05
-0.000118781
0.000125667
-1.19407e-05
-0.000113767
2.8864e-05
-5.01224e-05
-1.55353e-05
-5.91028e-05
-8.20763e-05
7.89299e-05
0.000104255
-4.97606e-05
2.99693e-05
-9.31411e-05
9.72426e-05
-3.84089e-05
0.000152324
2.29682e-05
2.06278e-05
-2.09806e-05
-4.68455e-05
3.89877e-05
7.75648e-05
-4.50495e-05
-3.25258e-05
-5.2087e-05
-2.3748e-05
1.42543e-05
-4.03321e-05
-9.99982e-05
7.94695e-05
5.34265e-05
9.11784e-05
7.30692e-06
-1.48145e-06
-1.40828e-05
2.65519e-05
-3.64712e-05
2.24647e-05
1.70424e-05
7.3494e-05
-0.000163404
-0.000175758
4.77293e-05
0.000125274
-8.87401e-05
0.000160579
8.29598e-05
-0.000101961
-4.02274e-05
8.49881e-05
2.38338e-05
3.03217e-05
0.000163459
-0.000135667
5.62974e-07
0.000132745
-0.000133374
3.30461e-06
-0.000155168
0.000149608
4.97556e-05
-2.66814e-05
3.74023e-05
1.4205e-05
2.14729e-05
-5.91275e-05
3.76515e-05
7.39531e-05
-4.2863e-05
-3.10933e-05
4.91166e-05
8.26043e-05
-0.000132018
-3.8795e-05
4.70811e-05
-8.28704e-06
6.04085e-05
-4.42423e-05
-0.000100682
6.75458e-05
3.30975e-05
8.97907e-05
-4.61411e-05
-4.36628e-05
1.89882e-05
-2.10861e-05
-1.15404e-05
3.26265e-05
-2.10715e-05
-3.72104e-05
7.79103e-05
-7.89324e-05
-2.53528e-06
6.29724e-05
2.62214e-05
-8.92295e-05
5.06402e-05
-2.82401e-05
-2.24007e-05
-2.12586e-06
-3.65237e-05
-0.000133477
8.67895e-05
4.65807e-05
0.000163086
-0.000153474
-2.99786e-05
7.47582e-05
-4.47943e-05
-7.05031e-05
-9.97758e-05
0.000169599
-0.000103326
7.90996e-05
2.4162e-05
3.18117e-05
-4.76488e-05
1.58366e-05
1.58252e-05
2.49222e-05
-4.07476e-05
6.23044e-05
-5.22182e-06
-5.70887e-05
-6.659e-05
9.65143e-05
-1.03125e-05
3.59435e-05
-0.000121854
0.000160026
-3.84507e-05
-0.000116546
1.10048e-06
-0.000157446
0.000136743
2.0112e-05
1.2817e-05
-0.0001665
-7.63303e-05
3.70165e-05
3.93065e-05
8.05547e-05
-0.000121148
4.04521e-05
-2.67087e-06
3.2618e-05
1.38435e-05
3.04198e-05
-4.42644e-05
4.97966e-05
0.000110913
0.000162274
-0.000133579
-3.59913e-05
1.92631e-05
1.67282e-05
-8.42117e-06
7.07182e-05
4.25189e-05
-2.80427e-05
-0.000157997
3.58701e-05
6.13987e-05
-7.5492e-05
1.40732e-05
0.000164651
1.69252e-05
-5.15955e-05
0.000117575
-6.60276e-05
-4.03399e-05
0.000130202
0.000155448
-0.000110403
-2.60196e-05
-7.30734e-06
3.33269e-05
2.63283e-05
-1.48904e-05
-1.33615e-05
-1.71158e-05
3.04772e-05
1.91846e-05
1.96509e-05
-2.3777e-05
-3.53124e-06
5.78332e-05
-4.25236e-05
-1.53118e-05
-3.92937e-05
1.88995e-05
2.03942e-05
-7.50088e-05
-2.88542e-05
-3.96617e-05
-0.000114765
5.6014e-05
-4.17601e-05
-0.000169106
0.000166679
1.35856e-06
4.38512e-06
0.000135146
-0.000140124
-1.49946e-05
-0.000127815
-3.39701e-05
-4.23656e-05
0.000144163
-0.000151164
6.72872e-06
1.60494e-05
-0.000119342
3.84451e-05
3.55043e-05
4.44213e-05
-2.21257e-05
-2.22958e-05
2.68715e-05
0.000161713
-3.3232e-05
5.99043e-06
-6.75007e-05
-1.49197e-05
8.23938e-05
0.000161113
-6.39185e-06
0.000130281
-6.4147e-05
-6.6262e-05
-3.63529e-05
-0.00013606
0.000172025
-0.000126325
2.19967e-05
8.74263e-05
-4.45448e-05
-2.41636e-05
6.86955e-05
4.83399e-05
4.88896e-05
-1.48814e-05
-1.62748e-05
-6.352e-05
-4.83744e-05
-4.47746e-05
-9.44984e-05
0.000138898
3.63621e-05
-2.58684e-05
1.60324e-05
2.25801e-05
-3.86127e-05
-4.79661e-05
3.30977e-05
1.48678e-05
2.11582e-05
-3.41204e-05
6.92635e-05
-2.48643e-05
-4.44065e-05
-5.04641e-05
-9.1892e-05
0.000142123
0.000124563
2.68124e-05
8.08937e-06
0.000153528
-0.000144457
-2.29089e-05
-7.35375e-05
6.83082e-05
-9.08017e-05
5.54346e-05
3.53352e-05
9.08012e-05
6.91517e-06
-9.77762e-05
-3.88116e-05
9.19626e-05
-9.95285e-05
5.03293e-05
-2.28778e-05
-2.74523e-05
-5.86762e-05
9.81259e-05
-0.000134772
3.13952e-05
7.28126e-05
-1.84294e-05
3.67997e-05
8.03517e-05
-0.000125141
4.46339e-05
4.62058e-05
-3.03809e-05
-1.00772e-06
1.38105e-06
0.000156829
-3.41993e-05
2.3207e-05
1.09923e-05
6.81182e-05
-9.26255e-05
2.44722e-05
-0.000109924
0.000154611
-4.50413e-05
-3.62807e-05
4.89539e-05
3.3713e-05
-5.9768e-05
4.08428e-05
3.60987e-05
3.60352e-05
-3.11366e-05
-6.19974e-05
-0.000110644
-4.9637e-05
0.00013299
-8.35127e-05
-2.099e-05
-3.75083e-05
2.09775e-05
0.000109534
-8.08932e-05
-2.86517e-05
3.73257e-05
2.40515e-05
-6.13851e-05
1.93768e-05
-6.31805e-05
1.73609e-05
3.29674e-05
2.97039e-05
-1.6706e-05
-1.29978e-05
4.4886e-05
-0.000150903
5.58329e-06
1.85231e-05
-5.41917e-05
3.56642e-05
-6.7574e-06
-0.000165926
-1.8254e-05
-5.529e-05
-0.000131839
0.000101902
2.97122e-05
-3.26828e-06
3.93034e-05
-2.00876e-05
8.14644e-05
2.9549e-05
2.10904e-05
-1.68778e-05
0.000107613
8.64994e-05
-5.35598e-05
-3.29535e-05
-7.2594e-05
3.6813e-05
-2.61502e-05
0.00015496
-0.000166356
1.27025e-06
-2.23564e-05
-2.17045e-05
-0.00013628
3.91652e-05
-1.29191e-06
-3.78743e-05
-6.66594e-05
0.000147957
-8.22125e-05
2.63384e-05
1.64428e-05
-4.27821e-05
-8.02819e-05
-2.31063e-05
-4.05498e-06
-0.000126832
0.000129531
-0.00021412
0.000151269
-0.000129084
0.000109997
-2.57399e-05
4.76739e-05
-2.19344e-05
3.27422e-05
-2.84901e-05
-4.25212e-06
3.50062e-05
-1.94976e-05
-7.33016e-05
9.9814e-05
-2.65451e-05
-0.00012612
3.8542e-05
8.74199e-05
6.28009e-05
-6.10453e-05
1.54979e-05
-1.57049e-06
-1.45952e-05
-1.046e-05
1.33496e-05
-2.71982e-06
-2.04435e-05
-1.82941e-05
3.87374e-05
-9.4311e-05
-0.000120593
-0.000143403
0.000142245
9.60221e-07
-7.0878e-05
2.19042e-05
6.91755e-05
4.41284e-06
7.57572e-05
-3.8441e-05
-1.25283e-05
7.53203e-05
-0.000145215
1.6472e-06
0.000166739
-2.29419e-05
-0.000108118
5.94619e-05
4.86257e-05
-6.91918e-05
0.000149355
-5.47809e-05
-6.94928e-05
-4.07591e-05
4.34379e-05
0.000131541
-5.91649e-05
-7.24556e-05
6.12802e-05
4.82392e-05
-0.000126878
4.30136e-05
8.37747e-05
8.06304e-05
-0.000125813
-3.41019e-05
1.27911e-06
3.28228e-05
-0.000115123
0.000159123
-4.40898e-05
0.000149827
-2.68482e-05
-0.000123247
-4.96602e-06
3.47762e-05
-2.98104e-05
2.7453e-05
-3.1964e-05
4.51091e-06
4.17574e-05
4.47263e-05
5.2194e-06
-3.51056e-05
2.98856e-05
-6.7421e-05
-6.61469e-05
0.000142866
3.47926e-05
-7.33953e-06
7.75148e-06
0.000157111
3.09434e-05
-1.72489e-05
-1.36945e-05
-1.22556e-05
5.14192e-05
0.000122099
-0.000138451
1.5179e-05
-1.847e-06
-3.89124e-05
-4.0064e-05
-6.97262e-05
3.9734e-05
2.16207e-05
-2.56677e-05
-4.12002e-06
2.9757e-05
4.7796e-05
4.16155e-05
-2.88458e-05
-1.27698e-05
-0.000133714
-0.000162059
1.62125e-05
0.000145029
2.78873e-05
-0.000136691
-5.34501e-05
0.000127485
-0.000130961
-1.17574e-05
-2.02286e-05
-2.39633e-05
3.51895e-05
-1.046e-05
2.30509e-05
2.13701e-05
0.000103928
1.33231e-05
-0.000117382
2.38561e-05
-2.88169e-05
2.06113e-06
0.000141583
-0.000143843
3.71459e-05
1.90556e-05
-5.62051e-05
-1.25996e-05
-0.000158484
2.90278e-05
-1.41662e-06
0.000141505
-3.15065e-05
-0.000110135
1.90591e-05
-6.34898e-05
4.2548e-05
7.54811e-05
-0.000126182
-5.36074e-05
0.000106714
-5.31589e-05
0.000141257
-0.000141236
-6.69045e-05
2.53649e-06
6.43618e-05
3.80149e-05
1.17405e-05
-0.000156032
7.64606e-06
0.000144003
-3.27691e-05
-5.66853e-06
3.84375e-05
1.37103e-05
1.91479e-05
-3.28583e-05
3.0746e-05
-8.09768e-05
5.0222e-05
5.06105e-05
-3.20909e-05
1.98444e-05
-3.32061e-05
-0.000103796
6.11411e-05
7.0307e-05
8.30604e-05
-0.000115579
3.24342e-05
2.3125e-05
-1.20599e-05
-2.36912e-05
0.000127477
9.39586e-05
-6.24918e-05
-3.14954e-05
-1.9268e-05
0.000151411
-0.000132605
-2.22958e-05
4.15093e-05
-1.92135e-05
0.000106706
-2.68558e-05
-7.98834e-05
-1.78471e-06
3.91856e-05
4.38874e-05
-6.53813e-05
2.14893e-05
2.16544e-05
-2.71998e-05
0.000117668
-0.000156282
5.44588e-06
0.000150329
-6.68981e-05
8.91155e-05
-2.22348e-05
-3.89396e-05
-1.00646e-05
4.90034e-05
-0.000134135
2.90681e-05
1.7971e-05
6.30071e-05
-0.000159857
9.66791e-05
-2.16351e-05
-1.77801e-05
7.72947e-05
-0.000131499
5.39913e-05
0.000184055
-0.000188561
3.3711e-06
-0.000122044
-1.0999e-05
5.43536e-05
-6.38822e-05
5.05761e-06
1.41711e-05
1.88791e-05
-3.30502e-05
1.56413e-05
-3.72767e-05
-0.000126833
-3.14855e-05
4.70309e-05
1.58024e-07
-4.71908e-05
3.44258e-05
5.37917e-05
-8.82461e-05
-2.7218e-05
-2.07486e-05
2.50356e-06
3.02386e-05
4.99081e-05
-2.12058e-05
-3.38658e-05
4.31461e-05
-9.28094e-06
0.000199525
-9.93504e-05
-0.000100851
2.38809e-05
1.7401e-05
-2.29611e-05
7.93866e-05
-0.000174955
3.52229e-05
0.000139198
-2.21547e-05
-7.25415e-05
-3.11927e-05
-1.90553e-05
-1.51441e-05
-0.000132446
0.000136869
-0.000117483
0.000141822
-2.43626e-05
-1.16099e-05
0.000141935
-0.00013074
-3.40176e-05
5.10749e-05
-2.53226e-05
-2.87739e-05
-5.88744e-06
3.46614e-05
-6.25662e-05
-5.8042e-06
6.8364e-05
-3.2456e-05
-1.79828e-05
-2.13109e-05
0.000135313
6.12955e-07
-0.000136114
4.80555e-05
-6.16977e-05
7.80463e-05
-5.90811e-05
-1.89825e-05
-1.81622e-05
3.5041e-06
2.56053e-05
0.000147606
-0.000118405
6.47307e-05
-0.000120746
-1.35994e-05
0.000134045
-5.6613e-05
2.20009e-05
8.46696e-05
-4.93698e-05
1.24208e-05
3.69465e-05
-2.66527e-05
-1.0156e-05
3.68086e-05
-5.48026e-05
7.88442e-05
7.46223e-05
-0.000142284
0.000116724
-4.86456e-05
-6.16008e-05
2.64459e-05
3.51502e-05
-2.6957e-05
-9.44694e-06
3.64038e-05
3.98075e-05
5.41161e-05
3.89444e-05
-2.78983e-06
-3.61549e-05
-9.2214e-05
3.21364e-05
6.00558e-05
-0.000158957
3.18273e-05
-1.15272e-05
5.85558e-05
3.47665e-05
1.08089e-06
-3.58477e-05
-0.000142323
8.68226e-05
0.000224271
-8.9104e-05
-0.000136787
2.16684e-05
-4.9723e-05
2.8054e-05
2.18144e-05
-2.68198e-05
-2.4204e-06
5.3257e-05
1.78724e-05
-2.94128e-05
1.49714e-05
1.42919e-05
3.69525e-06
-4.26356e-05
-0.000146978
0.000151823
1.95444e-05
8.75347e-06
-2.82979e-05
-7.33433e-06
-2.76266e-05
3.4961e-05
1.77166e-05
-4.83322e-05
0.000128743
-5.64437e-06
8.26978e-05
-1.30263e-05
-2.8761e-05
4.1787e-05
9.56978e-06
-9.56978e-06
2.00132e-05
2.95039e-05
-4.95199e-05
1.51164e-05
1.5827e-05
-4.65734e-05
6.11743e-05
-1.46034e-05
3.60951e-05
-1.44407e-05
-6.58581e-05
4.83944e-05
1.74545e-05
1.34874e-05
1.60563e-05
-2.95437e-05
2.36249e-05
-6.81819e-05
4.99244e-05
9.37281e-05
-0.000143925
-0.000134015
1.65063e-05
1.44676e-05
1.59606e-05
-3.04282e-05
1.18993e-05
-4.733e-05
3.54301e-05
-3.18182e-05
-1.94746e-05
4.43965e-05
-0.00014813
4.79692e-05
-2.79586e-05
1.65647e-05
-1.14745e-06
-1.8834e-05
-6.58704e-05
6.62214e-05
-2.45282e-05
-4.17022e-05
-2.99615e-05
7.21764e-05
0.000140595
-1.98032e-05
-0.000109109
-9.66883e-06
0.000118713
4.61546e-05
1.16761e-05
-3.40909e-05
1.32165e-06
-1.79653e-05
3.24328e-05
3.14393e-05
-2.19344e-06
-2.92458e-05
-7.25845e-05
-2.81304e-05
8.33288e-05
-4.00839e-05
2.88365e-05
-4.82343e-05
-0.000124549
0.00012505
-0.000162141
0.000157492
3.40347e-06
-0.000137231
0.000160255
-2.37024e-05
0.000145685
-6.47317e-05
-8.11092e-05
-4.23711e-05
-6.44817e-05
0.00012565
-6.14034e-05
2.39643e-05
4.22471e-05
0.00018623
-0.000156792
-3.13032e-05
4.47159e-06
-1.19964e-05
-0.000168138
3.00768e-05
0.000135046
-1.78068e-05
-1.87972e-05
3.6604e-05
0.000144718
-7.24572e-06
1.15035e-05
-1.35098e-05
1.10793e-06
5.55394e-05
2.24881e-05
-9.30412e-05
6.31744e-05
2.98424e-05
-4.93115e-05
-0.000110015
-2.66938e-07
-2.57527e-05
6.06589e-05
-0.000131715
0.000152089
-0.00014484
-8.22552e-06
-7.65009e-05
3.07658e-05
4.57197e-05
-9.6617e-05
4.20766e-05
5.45283e-05
-3.46109e-05
1.71241e-06
0.000117884
-0.000119819
4.03088e-05
-1.36483e-06
-5.01563e-05
2.50936e-05
4.91177e-05
-7.42463e-05
-1.07968e-05
4.55629e-05
-5.1575e-05
7.66328e-05
4.38526e-05
1.21608e-05
0.000116703
-6.00356e-05
-3.83051e-05
2.12077e-05
1.70973e-05
-1.80248e-06
-2.69715e-05
0.000133723
3.78713e-05
-1.82414e-05
2.01018e-05
-4.6884e-05
2.67813e-05
0.000123078
-0.0001258
-2.20636e-06
3.44237e-05
-2.10443e-05
-1.33794e-05
-0.0001605
0.000154398
5.35129e-06
-0.000156998
2.91448e-05
0.000124947
-6.05611e-05
9.63905e-05
-3.58657e-05
-2.63031e-05
0.000152377
3.71086e-05
1.96968e-05
-5.68098e-05
7.55489e-06
-3.45119e-05
0.000160077
-2.10003e-05
-1.73049e-05
8.93709e-05
0.000109418
9.83227e-05
-1.78359e-05
4.77098e-05
-3.58111e-05
-0.000147965
1.61761e-05
0.000127363
3.56068e-05
-2.22422e-05
-1.33647e-05
-0.000103773
-3.10237e-05
0.000134657
0.000153713
-2.3387e-05
-0.000130964
1.539e-05
-0.00016736
0.000151324
-0.000170394
3.26541e-05
2.13682e-06
-5.50891e-05
5.29502e-05
-4.62996e-05
-1.76183e-05
3.13182e-05
-2.64622e-06
-2.86719e-05
9.08296e-06
-6.38939e-05
-1.41244e-05
-2.67123e-05
-1.67042e-05
-6.5761e-05
8.24469e-05
-0.00015918
-5.0904e-05
-5.30131e-06
5.62031e-05
3.16665e-07
3.11226e-05
-4.29423e-05
9.07589e-06
6.43728e-05
-3.62091e-05
5.74758e-05
-3.60059e-05
-5.16768e-05
-2.34868e-05
7.51459e-05
-0.00010439
-8.84422e-06
0.00011314
5.0635e-05
-4.85001e-05
0.000157601
-8.91545e-05
-6.86572e-05
2.20457e-05
-4.00806e-05
3.63117e-05
-3.88111e-05
-1.68625e-06
-1.44231e-05
3.39675e-05
-0.000130594
6.74805e-07
2.08973e-05
4.34729e-05
-4.71012e-05
-6.10465e-05
0.000145142
-3.39798e-05
-0.000111509
1.62033e-05
2.90757e-05
-0.000171984
0.000156954
1.31557e-05
4.8689e-05
-1.91408e-05
1.6714e-05
-0.000120614
-0.000123021
-3.26336e-05
-5.81975e-05
-4.6705e-05
-2.6831e-05
7.35278e-05
-4.29803e-05
-1.21106e-05
-4.10019e-05
3.56251e-05
2.52053e-06
-3.81462e-05
-3.19344e-05
1.27749e-05
1.91594e-05
6.49028e-05
5.5388e-05
-1.25631e-05
3.04355e-05
-0.000190079
0.0001119
7.7803e-05
3.66108e-05
9.97221e-07
-3.76088e-05
-4.67644e-05
-1.9102e-05
-0.000120828
4.424e-05
-0.00013407
-1.12565e-05
6.57907e-05
-6.03413e-05
0.000127986
7.82768e-05
2.25596e-05
0.000130488
-4.50344e-05
0.000109971
-6.50122e-05
-1.10281e-05
4.76381e-05
4.35129e-05
-3.1094e-05
4.67239e-05
-2.5056e-05
-7.00141e-05
4.56476e-05
2.43565e-05
2.9571e-06
-8.59914e-05
8.14043e-05
-3.45521e-05
6.98146e-05
-3.52776e-05
4.19338e-05
-2.60716e-05
-3.93032e-05
0.0001697
-0.000132092
4.15002e-05
-6.60374e-05
0.0001509
-0.000113835
-3.7238e-05
2.83193e-05
-2.40731e-06
-2.5912e-05
-0.000127639
1.96819e-05
0.000107892
-3.02021e-05
6.53717e-06
2.36649e-05
3.07517e-05
1.05963e-06
-1.11269e-05
-3.57193e-05
1.14405e-05
-2.98841e-07
8.14421e-05
-6.53639e-05
-1.60893e-05
-7.73675e-05
-9.80068e-05
6.22355e-05
8.32743e-05
-0.000124197
5.98318e-05
6.42768e-05
-0.000144567
1.45417e-05
0.000136558
-5.36698e-05
-0.000110639
0.00015989
-4.04089e-05
1.46686e-05
2.02744e-05
8.98883e-06
-4.72819e-05
-5.82467e-05
0.00010547
1.34457e-05
2.2161e-05
-0.000136088
-2.30825e-05
9.33494e-05
-3.79481e-05
-2.99866e-05
0.000112756
-1.73072e-05
4.87518e-05
-3.14462e-05
-2.03082e-05
3.05992e-05
4.36522e-05
-9.09851e-05
0.000133669
-0.000147346
1.07322e-05
3.442e-05
-3.6206e-05
0.000145126
-0.000147106
1.07728e-05
0.000116376
-8.64849e-05
-2.99808e-05
-2.44522e-05
-1.15392e-05
-2.69614e-05
4.19365e-05
-1.49754e-05
-3.18362e-05
-1.65443e-05
4.83797e-05
-3.23595e-05
4.16026e-05
-4.2669e-05
-3.63156e-06
-5.68383e-06
0.000131313
-0.000100641
-7.44959e-05
0.000174477
-1.95866e-05
4.16319e-05
-0.000129721
4.71298e-05
-3.46104e-05
-1.25201e-05
-0.000117104
7.86927e-05
3.83182e-05
-1.99499e-06
9.13811e-05
-8.94164e-05
-4.07348e-05
2.22757e-05
1.8459e-05
-2.0562e-05
-1.84818e-05
3.90436e-05
0.000129213
4.98719e-07
3.08194e-05
-6.4398e-05
-6.25587e-05
4.71394e-05
1.15279e-05
-5.86764e-05
-5.9006e-05
3.0307e-05
-2.71407e-05
1.91396e-05
-2.76577e-05
4.50824e-05
-1.74254e-05
-8.25582e-08
2.32373e-05
-2.9015e-05
2.36933e-05
-6.02484e-05
2.67271e-05
-2.38682e-05
3.9033e-05
-1.51649e-05
-0.000136107
-3.28416e-05
0.000164312
-0.000141956
-3.41299e-05
-3.11156e-05
0.000158396
-0.000127676
2.59015e-05
1.26749e-05
-3.85767e-05
-5.3631e-05
3.96525e-05
1.3976e-05
-7.58021e-05
-1.42432e-05
-2.15597e-05
3.58028e-05
-9.31975e-05
2.56691e-05
1.23153e-05
5.37542e-05
2.78055e-05
0.000122905
3.59755e-05
-0.000127132
8.80404e-05
-0.000121899
9.79594e-05
1.66823e-05
0.000136639
-0.000162531
2.21146e-05
1.58671e-05
1.38368e-05
-2.89434e-05
-2.60848e-05
-3.07004e-05
5.67829e-05
5.08708e-06
-0.000139277
-1.32979e-05
0.000143928
-6.31386e-05
-0.000159235
0.000137661
2.07649e-05
-9.18296e-05
3.12348e-05
-9.85556e-05
0.000114539
-3.6851e-05
-4.02946e-05
1.8175e-05
2.21195e-05
6.94296e-05
-4.54756e-05
5.82963e-05
-1.33863e-05
-4.49117e-05
2.14145e-05
-4.75012e-05
-0.000146711
-1.61243e-05
-2.125e-06
5.27579e-05
6.12647e-05
-0.000162517
-1.14368e-05
5.38922e-05
-3.37915e-05
1.5958e-05
-3.55239e-05
1.95658e-05
-4.40859e-05
1.50152e-05
2.90702e-05
-0.000123689
2.6829e-06
5.83745e-05
-0.00010348
-2.62456e-05
3.76297e-05
-1.13842e-05
-1.71663e-05
-1.72975e-05
3.44637e-05
-2.15504e-05
-3.37196e-05
-3.85686e-05
7.22854e-05
-2.82326e-05
-3.33722e-05
2.05028e-05
1.42898e-05
6.79062e-05
-2.5884e-06
-1.63834e-05
4.52181e-05
-1.35122e-05
-2.46404e-05
3.98387e-05
-5.80988e-05
-1.87794e-07
1.6119e-05
-6.82066e-05
9.01739e-05
-1.83861e-05
-1.41479e-05
3.25339e-05
-2.54678e-05
-8.63411e-06
3.8201e-05
1.75368e-05
-5.57418e-05
-1.82828e-06
0.000148454
-0.000146828
-0.000130931
7.68845e-05
5.38843e-05
-2.86697e-05
-6.35106e-05
9.21686e-05
-1.35495e-05
2.75343e-05
0.000117406
2.73921e-05
3.21427e-05
-4.81353e-05
1.59915e-05
-0.000166081
7.83257e-06
0.000157081
-0.000118972
-4.66409e-05
-8.17195e-06
5.48103e-05
0.000150022
1.7987e-05
-1.04469e-05
-0.000143738
0.00015329
-0.000125207
-6.79585e-06
4.10591e-05
-0.000103487
-0.000126476
2.97534e-05
9.34624e-05
8.84778e-05
6.88961e-05
-0.000145841
-6.0264e-06
4.1651e-05
3.52057e-05
1.3612e-05
-4.882e-05
1.54634e-05
2.33188e-05
1.02929e-05
-7.84043e-05
4.34134e-05
3.49837e-05
1.38224e-05
-0.000146719
0.000132769
-4.72075e-05
5.49455e-05
-2.06227e-05
-7.41395e-05
8.94439e-05
-1.53279e-05
-1.97124e-05
-0.000147428
-7.96069e-05
0.000128444
-4.40868e-05
1.8255e-05
7.47518e-06
-4.56834e-05
3.82041e-05
-7.87437e-05
-3.69152e-05
-2.0958e-05
3.40516e-05
-1.30936e-05
-3.3398e-05
7.32293e-05
-6.77908e-05
0.000140358
-5.23873e-06
-3.47797e-06
2.73243e-05
-1.59276e-05
-5.86321e-05
7.66613e-05
-1.80391e-05
-6.24856e-06
0.000126122
-0.000123287
1.33574e-05
-3.90256e-05
2.56673e-05
8.04997e-05
-7.57703e-05
-6.23495e-06
7.26106e-05
2.56684e-05
8.02932e-05
5.7093e-05
-0.000138969
-4.46465e-05
-5.20817e-06
4.98538e-05
-1.811e-05
0.000138122
-1.19679e-05
-0.0001289
-0.000129714
0.000127011
-3.73246e-05
-8.56729e-06
4.58911e-05
7.15522e-06
-0.000163875
4.17419e-05
-2.51779e-05
-1.65643e-05
-2.05358e-05
3.29313e-05
-1.23956e-05
-2.87354e-05
-5.3543e-05
8.22611e-05
-0.000131198
-7.68869e-05
0.000112287
-3.55887e-05
0.000157876
-7.93859e-05
2.53485e-05
1.52345e-06
-1.46316e-05
-2.15862e-05
4.49778e-05
-3.61803e-05
-4.55952e-05
-9.54864e-05
0.000140833
1.60405e-05
1.83832e-05
1.09643e-06
1.2286e-05
0.000128824
-0.000143791
-3.06327e-05
-1.17411e-05
-0.000170456
0.000163114
6.13167e-06
1.98009e-05
2.20584e-05
-0.000132826
3.10495e-06
0.000125236
0.000102713
-6.07277e-05
-4.20097e-05
-2.09843e-05
-0.000177251
3.06842e-05
0.000146058
7.13729e-05
7.28394e-05
-0.000144988
7.83107e-05
3.87677e-07
-3.43164e-05
1.43916e-05
4.3183e-05
-0.000153446
8.71908e-05
-8.92178e-05
-6.20387e-05
3.84569e-05
2.35808e-05
1.74551e-05
-8.56934e-05
-1.59243e-05
-0.000119488
0.000133088
-3.2e-05
-4.45153e-05
9.01902e-05
-2.71817e-05
-6.18179e-05
-3.31099e-06
-2.45105e-05
-9.35089e-05
-2.45431e-06
-7.17043e-05
2.78878e-05
-2.13506e-05
-5.91816e-05
6.87767e-05
-9.60439e-06
-0.00016006
0.000141024
1.86039e-05