/*--------------------------------*- C++ -*----------------------------------*\
| =========                 |                                                 |
| \\      /  F ield         | OpenFOAM: The Open Source CFD Toolbox           |
|  \\    /   O peration     | Version:  v2012                                 |
|   \\  /    A nd           | Website:  www.openfoam.com                      |
|    \\/     M anipulation  |                                                 |
\*---------------------------------------------------------------------------*/
FoamFile
{
    version     2.0;
    format      ascii;
    class       volVectorField;
    location    "400";
    object      cellDisplacement;
}
// * * * * * * * * * * * * * * * * * * * * * * * * * * * * * * * * * * * * * //

dimensions      [0 1 0 0 0 0 0];


internalField   nonuniform List<vector> 
18758
(
(0 1.9216e-06 0)
(0 1.9812e-06 0)
(0 -3.15708e-06 0)
(0 1.78822e-06 0)
(0 2.0425e-06 0)
(0 2.04159e-06 0)
(0 2.05944e-06 0)
(0 6.23116e-06 0)
(0 1.69549e-06 0)
(0 4.09561e-08 0)
(0 -3.67914e-06 0)
(0 2.06008e-06 0)
(0 2.1957e-06 0)
(0 -1.0832e-07 0)
(0 -2.64574e-05 0)
(0 2.0428e-06 0)
(0 -3.72751e-06 0)
(0 8.22721e-06 0)
(0 -1.78215e-05 0)
(0 5.89157e-07 0)
(0 2.05159e-06 0)
(0 2.24547e-06 0)
(0 2.06161e-06 0)
(0 1.88789e-06 0)
(0 1.99191e-06 0)
(0 6.86999e-06 0)
(0 2.04756e-06 0)
(0 2.04414e-06 0)
(0 2.01401e-06 0)
(0 2.04753e-06 0)
(0 -2.40488e-06 0)
(0 2.07364e-06 0)
(0 1.29785e-06 0)
(0 -1.13002e-05 0)
(0 4.8829e-07 0)
(0 3.03209e-06 0)
(0 1.68524e-06 0)
(0 -6.08854e-06 0)
(0 -6.4187e-06 0)
(0 -2.77721e-06 0)
(0 -6.74471e-06 0)
(0 4.99356e-07 0)
(0 -8.19082e-06 0)
(0 1.48443e-07 0)
(0 2.04037e-06 0)
(0 5.51012e-06 0)
(0 2.06123e-06 0)
(0 -2.376e-06 0)
(0 -3.96035e-08 0)
(0 -1.03453e-05 0)
(0 1.77134e-06 0)
(0 2.03731e-06 0)
(0 -4.74935e-06 0)
(0 -3.87493e-06 0)
(0 2.0457e-06 0)
(0 2.03693e-06 0)
(0 1.8787e-06 0)
(0 2.03357e-06 0)
(0 -4.39355e-06 0)
(0 2.18994e-07 0)
(0 1.85808e-06 0)
(0 2.05722e-06 0)
(0 1.15686e-06 0)
(0 -1.39737e-06 0)
(0 -3.79713e-06 0)
(0 -4.1636e-06 0)
(0 -3.02641e-06 0)
(0 1.63767e-06 0)
(0 -6.16049e-06 0)
(0 2.04068e-06 0)
(0 2.04438e-06 0)
(0 -2.1055e-06 0)
(0 -9.96321e-06 0)
(0 2.05148e-06 0)
(0 -2.89828e-06 0)
(0 -4.23511e-06 0)
(0 1.55862e-06 0)
(0 2.04241e-06 0)
(0 1.94802e-06 0)
(0 2.06577e-06 0)
(0 2.0481e-06 0)
(0 2.0422e-06 0)
(0 3.10654e-07 0)
(0 2.04327e-06 0)
(0 1.5542e-06 0)
(0 -2.89529e-06 0)
(0 2.05027e-06 0)
(0 1.13399e-06 0)
(0 2.05174e-06 0)
(0 -4.21885e-06 0)
(0 2.04505e-06 0)
(0 -4.42098e-06 0)
(0 2.05236e-06 0)
(0 5.79771e-07 0)
(0 2.04749e-06 0)
(0 2.05216e-06 0)
(0 1.51734e-06 0)
(0 -3.24029e-06 0)
(0 -9.49884e-07 0)
(0 2.05179e-06 0)
(0 6.81219e-07 0)
(0 2.04722e-06 0)
(0 -2.30423e-08 0)
(0 1.08574e-06 0)
(0 2.07444e-06 0)
(0 2.04669e-06 0)
(0 1.92121e-06 0)
(0 2.04064e-06 0)
(0 -4.5262e-06 0)
(0 -2.10741e-06 0)
(0 2.05166e-06 0)
(0 2.05151e-06 0)
(0 8.1251e-06 0)
(0 -3.0828e-06 0)
(0 2.00768e-06 0)
(0 2.05147e-06 0)
(0 2.05144e-06 0)
(0 -2.72607e-05 0)
(0 2.06299e-06 0)
(0 2.04809e-06 0)
(0 -4.49064e-07 0)
(0 -4.84313e-06 0)
(0 2.03773e-06 0)
(0 2.0478e-06 0)
(0 2.01983e-06 0)
(0 2.03913e-06 0)
(0 1.97592e-06 0)
(0 1.87978e-06 0)
(0 2.05294e-06 0)
(0 1.39379e-06 0)
(0 -3.53465e-06 0)
(0 2.0463e-06 0)
(0 2.05151e-06 0)
(0 1.75472e-06 0)
(0 2.05131e-06 0)
(0 -5.31577e-07 0)
(0 1.52723e-06 0)
(0 -2.55575e-06 0)
(0 -6.82929e-07 0)
(0 1.94016e-06 0)
(0 1.94915e-06 0)
(0 2.01709e-06 0)
(0 -3.24431e-06 0)
(0 2.04148e-06 0)
(0 -7.04151e-06 0)
(0 -2.00268e-05 0)
(0 2.05151e-06 0)
(0 2.05086e-06 0)
(0 -2.66227e-06 0)
(0 2.00442e-06 0)
(0 2.04106e-06 0)
(0 1.84366e-06 0)
(0 -2.57205e-06 0)
(0 2.4982e-06 0)
(0 2.05038e-06 0)
(0 -2.05778e-06 0)
(0 2.06375e-06 0)
(0 -2.22723e-06 0)
(0 -3.56569e-06 0)
(0 1.05356e-06 0)
(0 5.26771e-06 0)
(0 3.85797e-07 0)
(0 2.05117e-06 0)
(0 -3.63914e-06 0)
(0 1.8413e-06 0)
(0 2.01821e-06 0)
(0 -1.59183e-05 0)
(0 2.04437e-06 0)
(0 1.94678e-06 0)
(0 2.03999e-06 0)
(0 2.05092e-06 0)
(0 8.17923e-06 0)
(0 2.05116e-06 0)
(0 2.04377e-06 0)
(0 4.01319e-07 0)
(0 1.87111e-06 0)
(0 2.01855e-06 0)
(0 -1.27544e-06 0)
(0 1.93098e-06 0)
(0 -4.23288e-06 0)
(0 1.01768e-05 0)
(0 2.05151e-06 0)
(0 1.82728e-06 0)
(0 -1.42279e-05 0)
(0 -1.12965e-05 0)
(0 1.79191e-06 0)
(0 -3.36685e-06 0)
(0 2.05145e-06 0)
(0 -8.44366e-06 0)
(0 -3.73673e-06 0)
(0 1.7648e-06 0)
(0 1.86682e-06 0)
(0 -2.76105e-06 0)
(0 -2.89561e-06 0)
(0 1.21055e-06 0)
(0 1.20673e-06 0)
(0 6.50225e-07 0)
(0 1.95584e-06 0)
(0 6.54319e-06 0)
(0 -8.40992e-06 0)
(0 1.91857e-06 0)
(0 -2.24036e-06 0)
(0 8.28644e-07 0)
(0 8.17736e-07 0)
(0 2.85008e-06 0)
(0 1.14733e-06 0)
(0 2.48276e-07 0)
(0 2.07246e-06 0)
(0 2.05305e-06 0)
(0 1.27609e-08 0)
(0 8.50172e-06 0)
(0 1.14953e-06 0)
(0 -3.40294e-06 0)
(0 6.63577e-07 0)
(0 1.9295e-06 0)
(0 2.0499e-06 0)
(0 1.9435e-06 0)
(0 2.04165e-06 0)
(0 -1.6722e-06 0)
(0 2.04069e-06 0)
(0 8.40224e-06 0)
(0 -4.31561e-06 0)
(0 1.34117e-06 0)
(0 2.05147e-06 0)
(0 1.91961e-06 0)
(0 1.25328e-07 0)
(0 7.42307e-07 0)
(0 1.65922e-06 0)
(0 -1.97717e-05 0)
(0 9.07502e-07 0)
(0 -4.5122e-06 0)
(0 1.19116e-06 0)
(0 2.05911e-06 0)
(0 1.54329e-06 0)
(0 1.89187e-06 0)
(0 -3.32065e-06 0)
(0 -1.87894e-05 0)
(0 6.37302e-06 0)
(0 2.03589e-06 0)
(0 3.53336e-07 0)
(0 5.92936e-06 0)
(0 2.01448e-06 0)
(0 1.9265e-06 0)
(0 -7.08701e-06 0)
(0 1.99769e-06 0)
(0 2.05147e-06 0)
(0 1.50992e-06 0)
(0 3.33116e-06 0)
(0 2.04778e-06 0)
(0 1.03407e-06 0)
(0 2.60735e-06 0)
(0 2.04459e-06 0)
(0 -2.89361e-06 0)
(0 1.07974e-06 0)
(0 -2.53365e-05 0)
(0 -1.11908e-07 0)
(0 1.79907e-06 0)
(0 2.04274e-06 0)
(0 6.09826e-07 0)
(0 1.93378e-06 0)
(0 -3.28759e-05 0)
(0 -3.60684e-07 0)
(0 3.65118e-06 0)
(0 7.44167e-07 0)
(0 -6.54549e-08 0)
(0 1.32212e-06 0)
(0 2.05164e-06 0)
(0 -1.12973e-06 0)
(0 -4.87257e-06 0)
(0 2.02434e-06 0)
(0 -4.97612e-06 0)
(0 -1.14982e-05 0)
(0 8.33862e-07 0)
(0 2.02769e-06 0)
(0 2.05147e-06 0)
(0 -3.3649e-06 0)
(0 1.70616e-06 0)
(0 2.05272e-06 0)
(0 2.04022e-06 0)
(0 -2.37915e-06 0)
(0 -1.21907e-05 0)
(0 -7.00234e-07 0)
(0 3.21824e-07 0)
(0 -3.18317e-06 0)
(0 2.05244e-06 0)
(0 2.00674e-06 0)
(0 1.5528e-06 0)
(0 2.05151e-06 0)
(0 2.05944e-06 0)
(0 -1.37618e-05 0)
(0 -3.91671e-06 0)
(0 1.7264e-06 0)
(0 2.04889e-06 0)
(0 3.38419e-07 0)
(0 1.93318e-06 0)
(0 1.32387e-06 0)
(0 -5.16788e-07 0)
(0 2.04855e-06 0)
(0 -1.75313e-05 0)
(0 1.4305e-06 0)
(0 2.04237e-06 0)
(0 5.73516e-06 0)
(0 2.03828e-06 0)
(0 1.43321e-06 0)
(0 -6.29561e-06 0)
(0 3.60695e-07 0)
(0 1.27556e-06 0)
(0 -1.97986e-05 0)
(0 2.71999e-06 0)
(0 2.07055e-06 0)
(0 1.4858e-06 0)
(0 1.8957e-06 0)
(0 2.07218e-06 0)
(0 2.04826e-06 0)
(0 1.90449e-06 0)
(0 7.05218e-07 0)
(0 6.76449e-07 0)
(0 1.73204e-06 0)
(0 -6.91469e-06 0)
(0 -1.37901e-05 0)
(0 -1.08392e-05 0)
(0 -8.21169e-07 0)
(0 1.95376e-06 0)
(0 1.32622e-06 0)
(0 -6.65117e-07 0)
(0 2.93923e-07 0)
(0 6.40959e-07 0)
(0 1.75238e-06 0)
(0 -3.21948e-05 0)
(0 1.95628e-06 0)
(0 1.87504e-06 0)
(0 1.62889e-06 0)
(0 1.73403e-06 0)
(0 1.75796e-06 0)
(0 4.34896e-07 0)
(0 -2.85694e-06 0)
(0 2.09664e-06 0)
(0 1.41099e-06 0)
(0 2.02923e-06 0)
(0 -1.79232e-05 0)
(0 9.00308e-06 0)
(0 -1.70191e-05 0)
(0 -6.05946e-07 0)
(0 1.62288e-06 0)
(0 1.98272e-06 0)
(0 -4.85294e-06 0)
(0 -2.54573e-06 0)
(0 -1.22238e-05 0)
(0 2.04481e-06 0)
(0 2.01079e-06 0)
(0 1.65143e-06 0)
(0 1.94401e-06 0)
(0 -1.38532e-05 0)
(0 1.86613e-06 0)
(0 1.91493e-06 0)
(0 3.49924e-08 0)
(0 1.20532e-06 0)
(0 2.06107e-06 0)
(0 2.05136e-06 0)
(0 1.82376e-06 0)
(0 6.95146e-06 0)
(0 8.24595e-07 0)
(0 2.00049e-06 0)
(0 2.0303e-06 0)
(0 -7.54735e-07 0)
(0 -1.28613e-05 0)
(0 3.66322e-07 0)
(0 -1.27639e-05 0)
(0 -3.76394e-06 0)
(0 1.99526e-06 0)
(0 1.74726e-06 0)
(0 -3.84847e-07 0)
(0 5.77845e-07 0)
(0 2.05163e-06 0)
(0 -4.33837e-06 0)
(0 -2.10945e-06 0)
(0 -2.47949e-06 0)
(0 -6.12293e-06 0)
(0 4.59474e-08 0)
(0 -3.50533e-06 0)
(0 2.07156e-06 0)
(0 2.02099e-06 0)
(0 -2.53693e-05 0)
(0 2.23802e-06 0)
(0 2.05197e-06 0)
(0 -4.43751e-07 0)
(0 1.6792e-06 0)
(0 -4.32813e-06 0)
(0 -3.749e-06 0)
(0 -1.16967e-05 0)
(0 3.88563e-07 0)
(0 -4.7791e-06 0)
(0 -2.01657e-07 0)
(0 2.05154e-06 0)
(0 2.05562e-06 0)
(0 2.04859e-06 0)
(0 2.05099e-06 0)
(0 3.90723e-06 0)
(0 1.53722e-06 0)
(0 2.05752e-06 0)
(0 3.51813e-09 0)
(0 7.66078e-06 0)
(0 1.6898e-06 0)
(0 -7.93916e-06 0)
(0 -2.18355e-05 0)
(0 9.69236e-06 0)
(0 1.55604e-07 0)
(0 -4.33821e-06 0)
(0 1.89306e-07 0)
(0 1.92991e-06 0)
(0 2.035e-06 0)
(0 -1.10284e-05 0)
(0 2.04371e-06 0)
(0 -1.19582e-06 0)
(0 1.22371e-06 0)
(0 -7.86109e-06 0)
(0 -4.41774e-06 0)
(0 8.81232e-06 0)
(0 -6.20541e-07 0)
(0 -4.8275e-07 0)
(0 1.72772e-06 0)
(0 2.05153e-06 0)
(0 -3.38699e-07 0)
(0 -1.09086e-06 0)
(0 2.02157e-06 0)
(0 1.9844e-06 0)
(0 1.77646e-06 0)
(0 2.05103e-06 0)
(0 -2.1003e-07 0)
(0 -2.39177e-06 0)
(0 4.76681e-07 0)
(0 6.30385e-06 0)
(0 -3.27262e-06 0)
(0 -5.25887e-07 0)
(0 -2.56851e-06 0)
(0 -7.3903e-06 0)
(0 1.37191e-06 0)
(0 -2.60307e-06 0)
(0 1.77589e-06 0)
(0 1.04743e-07 0)
(0 -4.43894e-06 0)
(0 1.84307e-07 0)
(0 2.05166e-06 0)
(0 -1.67533e-06 0)
(0 1.68755e-06 0)
(0 9.86014e-07 0)
(0 -4.50258e-07 0)
(0 2.04697e-06 0)
(0 6.83941e-07 0)
(0 -5.63787e-06 0)
(0 1.78326e-06 0)
(0 5.69491e-07 0)
(0 1.69934e-06 0)
(0 2.0535e-06 0)
(0 -4.31405e-06 0)
(0 -1.97979e-06 0)
(0 2.04383e-06 0)
(0 2.061e-06 0)
(0 1.51743e-06 0)
(0 1.5632e-06 0)
(0 -7.65688e-08 0)
(0 1.73643e-06 0)
(0 2.0515e-06 0)
(0 2.90943e-08 0)
(0 -2.12895e-06 0)
(0 1.64631e-06 0)
(0 -3.12373e-06 0)
(0 -4.3563e-07 0)
(0 -2.7433e-06 0)
(0 2.05361e-06 0)
(0 -4.0379e-06 0)
(0 1.99253e-06 0)
(0 -7.41034e-06 0)
(0 -1.95571e-06 0)
(0 5.95884e-06 0)
(0 1.88587e-06 0)
(0 -9.31139e-06 0)
(0 2.05143e-06 0)
(0 -2.71265e-06 0)
(0 2.01097e-06 0)
(0 4.39675e-06 0)
(0 1.68347e-06 0)
(0 -3.58783e-06 0)
(0 7.25327e-06 0)
(0 -9.17779e-07 0)
(0 9.33846e-06 0)
(0 1.94613e-06 0)
(0 2.05275e-06 0)
(0 2.00587e-06 0)
(0 -3.4326e-06 0)
(0 -1.23685e-05 0)
(0 1.27015e-06 0)
(0 3.29151e-06 0)
(0 5.97783e-07 0)
(0 2.03649e-06 0)
(0 -1.188e-06 0)
(0 -7.96621e-07 0)
(0 1.37422e-06 0)
(0 6.97134e-06 0)
(0 1.55072e-06 0)
(0 1.22265e-06 0)
(0 -1.18547e-06 0)
(0 -4.27118e-06 0)
(0 6.99413e-07 0)
(0 -1.8039e-06 0)
(0 -1.87721e-06 0)
(0 1.99569e-06 0)
(0 -1.40986e-05 0)
(0 1.4879e-06 0)
(0 -5.80665e-07 0)
(0 -7.58855e-07 0)
(0 2.05089e-06 0)
(0 -2.12831e-06 0)
(0 -4.03761e-06 0)
(0 2.04938e-06 0)
(0 2.0515e-06 0)
(0 -2.18458e-06 0)
(0 1.79153e-06 0)
(0 -6.66014e-07 0)
(0 -4.21483e-06 0)
(0 2.0515e-06 0)
(0 -1.64425e-05 0)
(0 2.05148e-06 0)
(0 2.00528e-06 0)
(0 6.10685e-06 0)
(0 2.00106e-06 0)
(0 1.87793e-06 0)
(0 3.77811e-07 0)
(0 5.11859e-06 0)
(0 1.58909e-06 0)
(0 2.0367e-06 0)
(0 -6.42165e-06 0)
(0 -5.61733e-06 0)
(0 -2.55389e-05 0)
(0 -1.93899e-05 0)
(0 -1.95013e-05 0)
(0 4.84552e-06 0)
(0 4.20298e-07 0)
(0 2.03191e-06 0)
(0 -3.92981e-06 0)
(0 2.01821e-06 0)
(0 -5.08437e-06 0)
(0 1.70758e-06 0)
(0 1.99093e-06 0)
(0 3.75112e-06 0)
(0 -8.16887e-06 0)
(0 -3.47776e-06 0)
(0 6.38467e-06 0)
(0 -2.30448e-06 0)
(0 -7.49474e-07 0)
(0 -4.07799e-06 0)
(0 1.05417e-06 0)
(0 2.04418e-06 0)
(0 -9.31622e-06 0)
(0 2.0374e-06 0)
(0 2.04816e-06 0)
(0 1.47056e-06 0)
(0 1.63232e-06 0)
(0 2.04858e-06 0)
(0 4.71527e-07 0)
(0 -1.4557e-05 0)
(0 -3.25034e-06 0)
(0 2.04295e-06 0)
(0 -3.95892e-06 0)
(0 -4.78411e-06 0)
(0 -3.25365e-06 0)
(0 2.02007e-06 0)
(0 -1.10067e-06 0)
(0 2.00541e-06 0)
(0 1.07858e-06 0)
(0 2.05331e-06 0)
(0 -3.71641e-06 0)
(0 -3.69812e-06 0)
(0 6.48632e-07 0)
(0 1.99119e-06 0)
(0 -2.32119e-06 0)
(0 2.0133e-06 0)
(0 -2.62553e-06 0)
(0 1.94715e-06 0)
(0 -2.2482e-06 0)
(0 -6.9151e-06 0)
(0 8.89532e-06 0)
(0 6.62519e-06 0)
(0 2.04773e-06 0)
(0 1.9526e-06 0)
(0 -4.25578e-06 0)
(0 1.18221e-06 0)
(0 9.64428e-07 0)
(0 1.81043e-06 0)
(0 2.05251e-06 0)
(0 1.69449e-06 0)
(0 1.95936e-06 0)
(0 -2.98814e-05 0)
(0 2.0416e-06 0)
(0 -3.17798e-06 0)
(0 -2.95062e-06 0)
(0 -2.75099e-06 0)
(0 2.03983e-06 0)
(0 2.05003e-06 0)
(0 -1.08259e-05 0)
(0 -1.32331e-06 0)
(0 -3.00221e-06 0)
(0 -1.56296e-06 0)
(0 2.0511e-06 0)
(0 9.79707e-07 0)
(0 2.04511e-06 0)
(0 2.05809e-06 0)
(0 -3.73641e-06 0)
(0 6.53174e-06 0)
(0 -2.06864e-07 0)
(0 1.66384e-06 0)
(0 5.60347e-06 0)
(0 -8.12736e-07 0)
(0 -2.41959e-05 0)
(0 1.12048e-06 0)
(0 -1.27066e-06 0)
(0 1.9349e-06 0)
(0 2.03995e-06 0)
(0 1.53186e-06 0)
(0 4.61026e-06 0)
(0 6.13665e-07 0)
(0 1.73644e-06 0)
(0 2.03645e-06 0)
(0 -5.10312e-06 0)
(0 2.04295e-06 0)
(0 4.72464e-07 0)
(0 -4.17909e-06 0)
(0 1.14903e-06 0)
(0 1.91159e-06 0)
(0 -2.70232e-06 0)
(0 -1.59362e-05 0)
(0 2.00296e-06 0)
(0 2.04581e-06 0)
(0 1.95106e-06 0)
(0 6.55029e-06 0)
(0 2.05139e-06 0)
(0 2.05151e-06 0)
(0 1.99657e-06 0)
(0 -1.10221e-05 0)
(0 2.05184e-06 0)
(0 2.07178e-06 0)
(0 2.05038e-06 0)
(0 -3.69589e-06 0)
(0 3.30764e-06 0)
(0 2.00948e-06 0)
(0 4.2669e-07 0)
(0 1.01241e-06 0)
(0 2.05142e-06 0)
(0 1.73832e-06 0)
(0 2.05305e-06 0)
(0 -1.82351e-07 0)
(0 2.05128e-06 0)
(0 -3.11475e-07 0)
(0 -3.862e-06 0)
(0 -1.37452e-06 0)
(0 2.05136e-06 0)
(0 1.59295e-06 0)
(0 2.07152e-06 0)
(0 1.77791e-06 0)
(0 -1.72632e-05 0)
(0 1.01715e-06 0)
(0 2.495e-06 0)
(0 8.25773e-07 0)
(0 -5.30664e-07 0)
(0 1.75675e-06 0)
(0 6.58448e-06 0)
(0 2.20156e-08 0)
(0 1.48348e-06 0)
(0 2.04135e-06 0)
(0 2.0513e-06 0)
(0 2.06435e-06 0)
(0 1.32019e-07 0)
(0 6.64934e-07 0)
(0 1.53812e-06 0)
(0 -2.41163e-06 0)
(0 -1.15844e-05 0)
(0 -2.01971e-06 0)
(0 -1.76991e-05 0)
(0 -2.19324e-06 0)
(0 -1.88759e-06 0)
(0 -6.98562e-07 0)
(0 6.4798e-06 0)
(0 1.33976e-06 0)
(0 9.51512e-06 0)
(0 2.04292e-06 0)
(0 -2.0703e-06 0)
(0 1.68e-06 0)
(0 -3.47862e-07 0)
(0 -4.89683e-09 0)
(0 -9.38951e-06 0)
(0 2.0516e-06 0)
(0 -1.32534e-05 0)
(0 -3.05333e-05 0)
(0 8.23097e-07 0)
(0 1.49264e-06 0)
(0 -1.21502e-05 0)
(0 -2.33964e-06 0)
(0 2.04131e-06 0)
(0 1.51016e-06 0)
(0 6.02334e-07 0)
(0 1.9003e-06 0)
(0 5.85022e-07 0)
(0 1.63825e-06 0)
(0 4.89151e-07 0)
(0 1.0444e-06 0)
(0 2.05027e-06 0)
(0 2.05138e-06 0)
(0 -1.60475e-05 0)
(0 2.04292e-06 0)
(0 1.88247e-06 0)
(0 6.61931e-06 0)
(0 2.05114e-06 0)
(0 1.02058e-06 0)
(0 9.9672e-06 0)
(0 -1.07534e-06 0)
(0 8.1314e-06 0)
(0 1.8556e-06 0)
(0 2.03856e-06 0)
(0 -9.01837e-06 0)
(0 2.05086e-06 0)
(0 -2.98905e-05 0)
(0 -5.9081e-07 0)
(0 1.51362e-06 0)
(0 -9.97383e-06 0)
(0 2.04644e-06 0)
(0 -1.40719e-06 0)
(0 -1.05567e-05 0)
(0 -3.00586e-06 0)
(0 -2.33271e-06 0)
(0 1.73968e-06 0)
(0 1.91935e-06 0)
(0 2.05219e-06 0)
(0 1.55366e-06 0)
(0 2.04367e-06 0)
(0 -6.92896e-08 0)
(0 -1.49015e-06 0)
(0 1.53083e-06 0)
(0 2.06523e-06 0)
(0 1.96589e-06 0)
(0 1.93176e-06 0)
(0 1.63362e-06 0)
(0 -3.53202e-06 0)
(0 -1.47435e-06 0)
(0 1.75294e-06 0)
(0 -2.47774e-06 0)
(0 2.04301e-06 0)
(0 4.97572e-06 0)
(0 2.05187e-06 0)
(0 -1.12918e-05 0)
(0 1.92758e-06 0)
(0 7.43662e-07 0)
(0 -5.56126e-06 0)
(0 2.00741e-06 0)
(0 -1.2988e-06 0)
(0 6.27652e-06 0)
(0 1.9878e-06 0)
(0 -1.37201e-06 0)
(0 9.3228e-06 0)
(0 -2.37151e-06 0)
(0 1.33011e-06 0)
(0 1.75923e-06 0)
(0 1.99589e-06 0)
(0 1.84621e-06 0)
(0 2.05135e-06 0)
(0 6.44357e-06 0)
(0 3.3353e-06 0)
(0 2.05135e-06 0)
(0 -2.66417e-06 0)
(0 2.01807e-06 0)
(0 -4.29754e-08 0)
(0 -3.69984e-06 0)
(0 -1.11622e-06 0)
(0 3.42992e-07 0)
(0 -4.71225e-06 0)
(0 -1.04307e-05 0)
(0 -6.16371e-06 0)
(0 2.01429e-06 0)
(0 1.9326e-06 0)
(0 2.00955e-06 0)
(0 1.54588e-06 0)
(0 1.08734e-05 0)
(0 -1.9896e-06 0)
(0 2.01612e-06 0)
(0 7.02983e-06 0)
(0 -5.37976e-07 0)
(0 -5.57509e-06 0)
(0 2.03932e-06 0)
(0 -8.52161e-07 0)
(0 2.04958e-06 0)
(0 4.59371e-06 0)
(0 1.89258e-06 0)
(0 1.30617e-06 0)
(0 4.6966e-08 0)
(0 -2.99431e-06 0)
(0 -1.81437e-05 0)
(0 -1.47259e-05 0)
(0 -1.00689e-05 0)
(0 -3.09847e-05 0)
(0 -6.25452e-06 0)
(0 1.95821e-06 0)
(0 2.05151e-06 0)
(0 -5.68117e-06 0)
(0 2.04489e-06 0)
(0 -4.06485e-06 0)
(0 -2.83404e-06 0)
(0 -2.27024e-06 0)
(0 1.68535e-06 0)
(0 2.06465e-06 0)
(0 -5.79164e-06 0)
(0 -1.39099e-05 0)
(0 2.00783e-06 0)
(0 6.9252e-06 0)
(0 -4.05111e-06 0)
(0 -2.56219e-06 0)
(0 2.05211e-06 0)
(0 2.03241e-06 0)
(0 1.94123e-06 0)
(0 1.73698e-06 0)
(0 1.93085e-06 0)
(0 -9.16374e-07 0)
(0 -2.1014e-06 0)
(0 2.04214e-06 0)
(0 9.88759e-06 0)
(0 1.97579e-06 0)
(0 -3.71722e-06 0)
(0 3.19378e-06 0)
(0 2.02898e-06 0)
(0 2.03618e-06 0)
(0 -3.24567e-08 0)
(0 2.05206e-06 0)
(0 -4.74705e-07 0)
(0 -2.44669e-06 0)
(0 1.94812e-06 0)
(0 1.78214e-06 0)
(0 2.03751e-06 0)
(0 2.02853e-06 0)
(0 3.623e-06 0)
(0 -3.04952e-06 0)
(0 2.0392e-06 0)
(0 -3.48948e-06 0)
(0 -5.7212e-06 0)
(0 -3.51802e-06 0)
(0 -3.74373e-06 0)
(0 1.93314e-06 0)
(0 1.0851e-06 0)
(0 -7.74054e-08 0)
(0 2.04735e-06 0)
(0 -9.96051e-07 0)
(0 3.6749e-07 0)
(0 -5.84243e-06 0)
(0 6.92001e-06 0)
(0 -3.34536e-06 0)
(0 8.20099e-06 0)
(0 2.0515e-06 0)
(0 2.05123e-06 0)
(0 1.0188e-06 0)
(0 -1.47354e-06 0)
(0 -1.40208e-05 0)
(0 -1.42704e-05 0)
(0 -1.2432e-06 0)
(0 -8.98129e-07 0)
(0 1.01839e-07 0)
(0 2.04141e-06 0)
(0 2.03118e-06 0)
(0 -6.84981e-07 0)
(0 1.54798e-06 0)
(0 1.09055e-06 0)
(0 -5.79987e-06 0)
(0 1.73724e-06 0)
(0 -2.23781e-06 0)
(0 2.06538e-06 0)
(0 1.878e-06 0)
(0 2.06342e-06 0)
(0 1.99946e-06 0)
(0 -2.34666e-05 0)
(0 -6.31124e-06 0)
(0 2.04704e-06 0)
(0 2.04746e-06 0)
(0 2.06291e-06 0)
(0 1.72982e-06 0)
(0 1.76518e-06 0)
(0 2.0514e-06 0)
(0 6.82802e-06 0)
(0 1.5018e-06 0)
(0 2.04824e-06 0)
(0 -4.84618e-07 0)
(0 6.83234e-06 0)
(0 -5.9831e-06 0)
(0 -1.42162e-06 0)
(0 2.05252e-06 0)
(0 2.05077e-06 0)
(0 1.9189e-06 0)
(0 -5.14693e-06 0)
(0 -1.80984e-05 0)
(0 9.89469e-07 0)
(0 2.05136e-06 0)
(0 -5.61084e-06 0)
(0 2.01493e-06 0)
(0 2.54215e-06 0)
(0 -1.83168e-06 0)
(0 1.78962e-06 0)
(0 7.39372e-06 0)
(0 2.04449e-06 0)
(0 -2.62139e-06 0)
(0 -1.48668e-08 0)
(0 7.08449e-06 0)
(0 -2.5744e-06 0)
(0 -1.148e-05 0)
(0 1.82363e-06 0)
(0 6.68336e-07 0)
(0 2.04973e-06 0)
(0 -1.43243e-05 0)
(0 1.79466e-06 0)
(0 -4.2477e-06 0)
(0 1.55737e-06 0)
(0 1.67779e-06 0)
(0 1.15584e-06 0)
(0 2.21317e-06 0)
(0 -1.34934e-05 0)
(0 2.02203e-06 0)
(0 8.78307e-07 0)
(0 -3.06607e-06 0)
(0 2.05148e-06 0)
(0 -6.37169e-07 0)
(0 -4.45981e-06 0)
(0 -3.73446e-06 0)
(0 1.65645e-06 0)
(0 2.05219e-06 0)
(0 1.60337e-06 0)
(0 -4.53581e-06 0)
(0 1.62804e-06 0)
(0 9.15923e-06 0)
(0 -7.21711e-07 0)
(0 -6.17388e-06 0)
(0 1.99082e-06 0)
(0 2.05038e-06 0)
(0 1.09173e-05 0)
(0 -2.08339e-05 0)
(0 1.97621e-06 0)
(0 -3.79809e-06 0)
(0 1.98943e-06 0)
(0 2.05148e-06 0)
(0 -2.22812e-06 0)
(0 -2.24649e-06 0)
(0 2.73112e-06 0)
(0 -6.57212e-06 0)
(0 3.95478e-06 0)
(0 2.0515e-06 0)
(0 2.03442e-06 0)
(0 1.7617e-06 0)
(0 -2.86829e-06 0)
(0 2.05081e-06 0)
(0 2.8257e-06 0)
(0 -3.64119e-06 0)
(0 2.02319e-06 0)
(0 -6.64099e-06 0)
(0 2.03913e-06 0)
(0 -1.04467e-05 0)
(0 8.69444e-07 0)
(0 -7.62962e-07 0)
(0 -3.34776e-06 0)
(0 -7.79858e-07 0)
(0 8.71022e-06 0)
(0 2.05109e-06 0)
(0 -5.35344e-06 0)
(0 3.32287e-06 0)
(0 2.00641e-06 0)
(0 -1.39055e-06 0)
(0 7.86228e-06 0)
(0 9.05203e-07 0)
(0 7.68964e-07 0)
(0 6.50658e-06 0)
(0 2.02169e-06 0)
(0 7.03599e-06 0)
(0 1.18202e-06 0)
(0 2.04972e-06 0)
(0 -2.65958e-06 0)
(0 -3.90245e-06 0)
(0 1.12013e-06 0)
(0 -1.15878e-06 0)
(0 1.37105e-06 0)
(0 -8.70632e-08 0)
(0 -1.32364e-06 0)
(0 2.00384e-06 0)
(0 -2.19307e-06 0)
(0 5.21713e-08 0)
(0 -1.88147e-06 0)
(0 -2.63462e-05 0)
(0 4.27625e-06 0)
(0 -6.94623e-06 0)
(0 6.42086e-07 0)
(0 -4.75345e-06 0)
(0 -1.63769e-05 0)
(0 -2.74689e-06 0)
(0 -3.22659e-06 0)
(0 2.06099e-06 0)
(0 1.50878e-06 0)
(0 -3.61254e-06 0)
(0 3.4826e-06 0)
(0 -2.35461e-06 0)
(0 1.82286e-06 0)
(0 5.87706e-06 0)
(0 2.05145e-06 0)
(0 -6.0918e-07 0)
(0 -3.24508e-06 0)
(0 3.01066e-06 0)
(0 2.03861e-06 0)
(0 2.04772e-06 0)
(0 6.40657e-06 0)
(0 -5.40586e-06 0)
(0 1.03445e-05 0)
(0 8.77791e-08 0)
(0 9.43689e-06 0)
(0 -4.62628e-06 0)
(0 1.7796e-06 0)
(0 1.56428e-06 0)
(0 -2.83711e-05 0)
(0 3.16612e-06 0)
(0 1.72844e-06 0)
(0 8.97473e-06 0)
(0 -4.67606e-06 0)
(0 1.89675e-06 0)
(0 2.03353e-06 0)
(0 2.0418e-06 0)
(0 1.70027e-06 0)
(0 2.04735e-06 0)
(0 1.77339e-06 0)
(0 -9.53331e-07 0)
(0 -1.26634e-06 0)
(0 2.0515e-06 0)
(0 -4.66817e-06 0)
(0 -5.04991e-07 0)
(0 -3.27976e-07 0)
(0 -7.61411e-07 0)
(0 4.48207e-07 0)
(0 -2.52821e-05 0)
(0 6.2423e-07 0)
(0 -2.07946e-06 0)
(0 -3.11698e-06 0)
(0 1.8057e-06 0)
(0 2.03717e-06 0)
(0 1.41526e-06 0)
(0 8.55639e-06 0)
(0 1.97862e-06 0)
(0 -3.148e-06 0)
(0 2.07067e-06 0)
(0 2.05446e-06 0)
(0 -2.47603e-06 0)
(0 9.9377e-06 0)
(0 3.71178e-06 0)
(0 -1.43711e-06 0)
(0 -1.99056e-06 0)
(0 9.96866e-06 0)
(0 -5.61312e-07 0)
(0 2.04455e-06 0)
(0 2.01107e-06 0)
(0 -7.27152e-06 0)
(0 -1.08467e-06 0)
(0 1.58747e-06 0)
(0 1.07293e-06 0)
(0 7.58427e-06 0)
(0 1.941e-07 0)
(0 7.93602e-07 0)
(0 1.99736e-06 0)
(0 -3.36579e-07 0)
(0 -3.02285e-06 0)
(0 -3.82479e-06 0)
(0 -1.21935e-06 0)
(0 9.92281e-06 0)
(0 1.52262e-06 0)
(0 -2.90269e-06 0)
(0 2.0494e-06 0)
(0 7.31453e-07 0)
(0 1.35241e-06 0)
(0 -7.69925e-06 0)
(0 -7.69887e-08 0)
(0 2.0472e-06 0)
(0 1.76995e-06 0)
(0 1.99098e-06 0)
(0 1.62611e-06 0)
(0 2.05147e-06 0)
(0 1.01855e-05 0)
(0 -1.49888e-06 0)
(0 -4.84013e-06 0)
(0 1.35096e-06 0)
(0 2.98338e-06 0)
(0 -5.71513e-07 0)
(0 9.88223e-07 0)
(0 -2.1965e-06 0)
(0 6.9482e-06 0)
(0 7.84115e-06 0)
(0 -1.60228e-05 0)
(0 1.22629e-06 0)
(0 6.68477e-07 0)
(0 1.82918e-06 0)
(0 1.9407e-06 0)
(0 -2.81811e-06 0)
(0 2.05157e-06 0)
(0 1.05336e-06 0)
(0 6.3184e-06 0)
(0 -6.99259e-06 0)
(0 4.14533e-06 0)
(0 1.11859e-06 0)
(0 -3.0494e-06 0)
(0 -5.14758e-06 0)
(0 2.04995e-06 0)
(0 2.05151e-06 0)
(0 2.04838e-06 0)
(0 -1.90035e-05 0)
(0 2.05152e-06 0)
(0 -5.09595e-06 0)
(0 2.06535e-06 0)
(0 2.04954e-06 0)
(0 -2.26515e-06 0)
(0 -1.52052e-06 0)
(0 1.18369e-06 0)
(0 -3.95376e-06 0)
(0 7.33423e-06 0)
(0 2.04053e-06 0)
(0 -2.51622e-05 0)
(0 4.25801e-06 0)
(0 1.78293e-06 0)
(0 1.99657e-06 0)
(0 3.50894e-06 0)
(0 -3.01353e-06 0)
(0 6.36174e-06 0)
(0 -4.81222e-06 0)
(0 8.40567e-07 0)
(0 6.10903e-06 0)
(0 2.04892e-06 0)
(0 -3.20018e-06 0)
(0 7.92078e-06 0)
(0 1.9811e-06 0)
(0 1.64819e-06 0)
(0 -5.52968e-08 0)
(0 6.17636e-07 0)
(0 1.16848e-06 0)
(0 -3.06186e-06 0)
(0 2.0419e-06 0)
(0 -5.11422e-06 0)
(0 2.25863e-07 0)
(0 2.04906e-06 0)
(0 8.63305e-06 0)
(0 2.0479e-06 0)
(0 7.70998e-06 0)
(0 5.59689e-07 0)
(0 2.00693e-06 0)
(0 2.0278e-06 0)
(0 -3.27179e-06 0)
(0 -1.9986e-06 0)
(0 2.37026e-06 0)
(0 -7.93966e-07 0)
(0 -1.3362e-06 0)
(0 6.23717e-07 0)
(0 -6.45024e-06 0)
(0 2.07226e-06 0)
(0 3.27187e-06 0)
(0 -1.16305e-05 0)
(0 1.73854e-06 0)
(0 1.99823e-06 0)
(0 1.40331e-06 0)
(0 5.64549e-06 0)
(0 2.03566e-06 0)
(0 9.27525e-07 0)
(0 -5.74357e-06 0)
(0 1.4551e-06 0)
(0 -3.12806e-06 0)
(0 -7.59833e-06 0)
(0 2.01644e-06 0)
(0 -2.54837e-06 0)
(0 9.28043e-08 0)
(0 -3.58894e-06 0)
(0 2.04676e-06 0)
(0 -1.96482e-05 0)
(0 1.61833e-07 0)
(0 2.04415e-06 0)
(0 -4.52872e-06 0)
(0 2.05135e-06 0)
(0 -6.61243e-06 0)
(0 -1.47842e-06 0)
(0 1.03796e-05 0)
(0 1.9814e-06 0)
(0 -1.63432e-05 0)
(0 -4.4017e-06 0)
(0 2.01238e-06 0)
(0 2.05117e-06 0)
(0 8.62927e-06 0)
(0 2.06854e-06 0)
(0 1.32695e-06 0)
(0 -2.29174e-05 0)
(0 -3.87346e-06 0)
(0 2.0066e-06 0)
(0 5.77236e-06 0)
(0 1.56149e-06 0)
(0 7.88167e-07 0)
(0 5.89776e-06 0)
(0 1.97746e-06 0)
(0 2.05494e-06 0)
(0 1.56041e-06 0)
(0 -2.90999e-06 0)
(0 2.05143e-06 0)
(0 5.53921e-07 0)
(0 2.03682e-06 0)
(0 1.80145e-06 0)
(0 -3.35921e-06 0)
(0 2.05145e-06 0)
(0 4.11511e-06 0)
(0 1.17421e-06 0)
(0 -1.65545e-05 0)
(0 2.04103e-06 0)
(0 7.386e-06 0)
(0 -2.44047e-05 0)
(0 1.64412e-06 0)
(0 2.1321e-06 0)
(0 1.48927e-06 0)
(0 8.82507e-06 0)
(0 -3.82913e-06 0)
(0 2.05153e-06 0)
(0 1.38102e-06 0)
(0 3.049e-08 0)
(0 -1.8891e-07 0)
(0 1.94973e-06 0)
(0 -2.20299e-06 0)
(0 -3.57697e-06 0)
(0 1.30952e-07 0)
(0 6.37729e-07 0)
(0 -8.1408e-06 0)
(0 -4.43218e-06 0)
(0 -1.12813e-06 0)
(0 9.95691e-06 0)
(0 -4.97429e-06 0)
(0 1.0422e-05 0)
(0 1.07001e-06 0)
(0 -5.2082e-07 0)
(0 1.99558e-06 0)
(0 6.87382e-06 0)
(0 2.02852e-06 0)
(0 -2.95456e-06 0)
(0 -9.75881e-06 0)
(0 7.984e-06 0)
(0 1.14013e-06 0)
(0 -3.86487e-06 0)
(0 -3.42029e-06 0)
(0 2.05196e-06 0)
(0 2.04965e-06 0)
(0 -2.35994e-06 0)
(0 5.6768e-06 0)
(0 2.0454e-06 0)
(0 -4.40513e-07 0)
(0 2.04712e-06 0)
(0 1.52012e-06 0)
(0 1.91062e-06 0)
(0 2.051e-06 0)
(0 2.07054e-06 0)
(0 2.01529e-06 0)
(0 -1.8496e-05 0)
(0 -2.2335e-05 0)
(0 9.11664e-06 0)
(0 1.849e-06 0)
(0 -3.59265e-06 0)
(0 4.1324e-06 0)
(0 1.99099e-06 0)
(0 -1.28032e-06 0)
(0 3.52014e-06 0)
(0 8.80598e-07 0)
(0 2.05163e-06 0)
(0 1.94789e-06 0)
(0 8.23451e-06 0)
(0 2.05159e-06 0)
(0 2.03626e-06 0)
(0 -6.51777e-06 0)
(0 3.91959e-06 0)
(0 -2.77892e-06 0)
(0 1.99579e-06 0)
(0 -3.22701e-05 0)
(0 -2.58343e-06 0)
(0 9.94501e-07 0)
(0 6.87749e-06 0)
(0 -2.10174e-05 0)
(0 2.22076e-06 0)
(0 -2.24816e-07 0)
(0 -1.21812e-05 0)
(0 -1.66811e-05 0)
(0 -7.12714e-06 0)
(0 3.67983e-06 0)
(0 1.14897e-06 0)
(0 -4.47431e-06 0)
(0 -7.17247e-06 0)
(0 -1.9068e-05 0)
(0 -4.49736e-06 0)
(0 1.49847e-06 0)
(0 1.63217e-06 0)
(0 1.62856e-06 0)
(0 -2.20157e-06 0)
(0 -4.01874e-06 0)
(0 3.7461e-06 0)
(0 5.77699e-06 0)
(0 2.06662e-06 0)
(0 -4.52134e-06 0)
(0 6.0642e-07 0)
(0 1.84432e-06 0)
(0 2.05056e-06 0)
(0 8.16758e-06 0)
(0 2.08092e-06 0)
(0 2.04982e-06 0)
(0 6.72597e-06 0)
(0 1.81986e-06 0)
(0 1.04914e-06 0)
(0 -5.21044e-06 0)
(0 2.04922e-06 0)
(0 2.03163e-06 0)
(0 1.16317e-06 0)
(0 2.06102e-06 0)
(0 -2.31437e-06 0)
(0 -7.48692e-07 0)
(0 -2.6376e-05 0)
(0 2.0537e-06 0)
(0 6.58045e-06 0)
(0 2.04767e-06 0)
(0 -4.2858e-07 0)
(0 3.96969e-07 0)
(0 1.91098e-06 0)
(0 2.04885e-06 0)
(0 2.01107e-06 0)
(0 2.00407e-06 0)
(0 2.06788e-06 0)
(0 2.00408e-06 0)
(0 8.70932e-06 0)
(0 2.03966e-06 0)
(0 -4.93505e-07 0)
(0 8.30852e-06 0)
(0 -2.76787e-05 0)
(0 -3.25277e-05 0)
(0 4.74204e-07 0)
(0 1.76773e-06 0)
(0 2.04485e-06 0)
(0 -4.49506e-06 0)
(0 -2.45045e-06 0)
(0 3.1666e-06 0)
(0 -2.35909e-05 0)
(0 2.05148e-06 0)
(0 1.98893e-06 0)
(0 1.00448e-06 0)
(0 1.15572e-05 0)
(0 1.75078e-06 0)
(0 -2.01136e-06 0)
(0 2.04608e-06 0)
(0 -3.19033e-05 0)
(0 7.65236e-07 0)
(0 1.91249e-06 0)
(0 -4.44335e-06 0)
(0 -6.86905e-06 0)
(0 -7.20302e-07 0)
(0 6.39356e-08 0)
(0 1.98979e-06 0)
(0 -2.17863e-06 0)
(0 1.93928e-06 0)
(0 -2.10699e-05 0)
(0 3.00866e-06 0)
(0 2.05152e-06 0)
(0 3.15778e-07 0)
(0 9.92546e-07 0)
(0 1.90487e-06 0)
(0 -7.16203e-06 0)
(0 2.05148e-06 0)
(0 2.05216e-06 0)
(0 1.81125e-06 0)
(0 2.03378e-06 0)
(0 -3.21163e-06 0)
(0 1.91182e-06 0)
(0 1.97992e-06 0)
(0 -3.63189e-07 0)
(0 1.25696e-05 0)
(0 2.03454e-06 0)
(0 8.68767e-07 0)
(0 8.20397e-06 0)
(0 -2.3998e-06 0)
(0 2.06027e-06 0)
(0 -2.35131e-06 0)
(0 7.74422e-06 0)
(0 4.87959e-07 0)
(0 1.45463e-06 0)
(0 2.05147e-06 0)
(0 9.49673e-07 0)
(0 -2.24919e-05 0)
(0 1.80723e-06 0)
(0 2.92177e-06 0)
(0 1.90451e-06 0)
(0 -1.0658e-05 0)
(0 2.05147e-06 0)
(0 -9.41861e-07 0)
(0 2.06898e-06 0)
(0 1.48187e-06 0)
(0 2.73687e-06 0)
(0 -3.24032e-06 0)
(0 2.00317e-06 0)
(0 2.04248e-06 0)
(0 -5.13918e-06 0)
(0 -2.23564e-06 0)
(0 1.69238e-06 0)
(0 -1.96485e-05 0)
(0 1.53008e-06 0)
(0 1.90571e-06 0)
(0 2.07491e-06 0)
(0 -4.55414e-06 0)
(0 -4.36054e-06 0)
(0 2.03624e-06 0)
(0 1.61522e-07 0)
(0 2.03651e-06 0)
(0 2.01037e-06 0)
(0 -1.20911e-05 0)
(0 1.97534e-06 0)
(0 4.62072e-07 0)
(0 1.94029e-06 0)
(0 -4.334e-06 0)
(0 2.05191e-06 0)
(0 6.64907e-06 0)
(0 2.05106e-06 0)
(0 -6.98417e-06 0)
(0 -1.26522e-06 0)
(0 -1.80315e-05 0)
(0 -2.10129e-06 0)
(0 2.02472e-06 0)
(0 -1.47783e-05 0)
(0 -4.38497e-06 0)
(0 -3.60217e-06 0)
(0 2.05117e-06 0)
(0 6.74233e-06 0)
(0 -5.24271e-06 0)
(0 2.05376e-06 0)
(0 -3.17364e-06 0)
(0 -2.49097e-05 0)
(0 1.07178e-05 0)
(0 -1.76992e-05 0)
(0 -2.3194e-07 0)
(0 3.17781e-06 0)
(0 2.91023e-07 0)
(0 3.10062e-06 0)
(0 5.64449e-07 0)
(0 -2.8959e-05 0)
(0 2.00034e-06 0)
(0 2.0552e-06 0)
(0 1.98254e-06 0)
(0 2.0532e-06 0)
(0 -9.98764e-06 0)
(0 4.32637e-07 0)
(0 -3.22675e-07 0)
(0 1.04072e-05 0)
(0 -9.06245e-06 0)
(0 2.07473e-06 0)
(0 2.06613e-06 0)
(0 -5.56535e-06 0)
(0 1.12784e-06 0)
(0 -1.33325e-06 0)
(0 2.04877e-06 0)
(0 -5.29201e-06 0)
(0 1.69977e-06 0)
(0 1.71466e-06 0)
(0 2.00689e-06 0)
(0 2.04805e-06 0)
(0 2.05157e-06 0)
(0 2.05128e-06 0)
(0 -3.29058e-05 0)
(0 1.72772e-06 0)
(0 2.05124e-06 0)
(0 2.04935e-06 0)
(0 -1.13302e-07 0)
(0 -2.82928e-06 0)
(0 -5.3216e-06 0)
(0 3.38145e-06 0)
(0 1.5061e-06 0)
(0 5.3535e-07 0)
(0 1.79091e-07 0)
(0 -1.78755e-06 0)
(0 2.05148e-06 0)
(0 -4.69835e-06 0)
(0 -2.83716e-06 0)
(0 1.92603e-06 0)
(0 8.35338e-07 0)
(0 -2.99311e-06 0)
(0 -4.28629e-06 0)
(0 -5.03444e-06 0)
(0 6.84395e-06 0)
(0 2.04799e-06 0)
(0 2.03192e-06 0)
(0 2.05136e-06 0)
(0 2.02535e-06 0)
(0 -6.53404e-07 0)
(0 1.9644e-06 0)
(0 -1.91432e-05 0)
(0 1.64915e-06 0)
(0 4.53172e-06 0)
(0 -4.77225e-06 0)
(0 -2.44566e-05 0)
(0 2.07072e-06 0)
(0 -4.28964e-06 0)
(0 -3.35151e-06 0)
(0 2.0315e-06 0)
(0 2.06499e-06 0)
(0 1.82392e-06 0)
(0 1.00411e-06 0)
(0 -2.87585e-06 0)
(0 2.3026e-07 0)
(0 2.0515e-06 0)
(0 2.05151e-06 0)
(0 1.9246e-06 0)
(0 2.06357e-06 0)
(0 1.97199e-06 0)
(0 2.04793e-06 0)
(0 2.00483e-06 0)
(0 1.85724e-06 0)
(0 -1.39423e-07 0)
(0 -7.35815e-06 0)
(0 -6.31753e-07 0)
(0 1.17582e-06 0)
(0 -1.10441e-05 0)
(0 -3.94254e-07 0)
(0 1.91648e-06 0)
(0 5.65694e-06 0)
(0 -2.94486e-06 0)
(0 -2.63301e-06 0)
(0 2.03774e-06 0)
(0 1.21725e-07 0)
(0 9.57557e-06 0)
(0 -1.03483e-07 0)
(0 -5.09289e-06 0)
(0 1.91751e-06 0)
(0 1.90407e-06 0)
(0 1.94164e-06 0)
(0 -1.53658e-05 0)
(0 2.05138e-06 0)
(0 -1.07333e-05 0)
(0 -3.34174e-06 0)
(0 5.59801e-07 0)
(0 1.86197e-06 0)
(0 -6.40813e-06 0)
(0 2.02665e-06 0)
(0 -4.05105e-06 0)
(0 2.04759e-06 0)
(0 7.919e-06 0)
(0 2.05462e-06 0)
(0 1.78075e-06 0)
(0 -3.10371e-06 0)
(0 -4.8039e-07 0)
(0 -4.58087e-06 0)
(0 2.0513e-06 0)
(0 2.04562e-06 0)
(0 2.05192e-06 0)
(0 3.65251e-06 0)
(0 -3.11392e-06 0)
(0 -6.94852e-06 0)
(0 2.047e-06 0)
(0 4.04615e-07 0)
(0 5.05721e-06 0)
(0 1.89747e-06 0)
(0 -4.30325e-06 0)
(0 -3.90629e-06 0)
(0 2.06285e-06 0)
(0 -2.89921e-05 0)
(0 -4.03312e-06 0)
(0 5.38006e-06 0)
(0 2.14413e-06 0)
(0 -2.53146e-05 0)
(0 -2.44422e-05 0)
(0 -2.26852e-06 0)
(0 -2.45777e-06 0)
(0 -6.44629e-07 0)
(0 -4.86769e-08 0)
(0 1.06262e-05 0)
(0 2.0515e-06 0)
(0 -5.2096e-06 0)
(0 2.04118e-06 0)
(0 2.05152e-06 0)
(0 1.56594e-06 0)
(0 2.04889e-06 0)
(0 2.04721e-06 0)
(0 -3.91349e-06 0)
(0 -4.16807e-06 0)
(0 6.74955e-06 0)
(0 1.32333e-07 0)
(0 1.98128e-06 0)
(0 -7.25667e-08 0)
(0 1.99301e-06 0)
(0 6.19213e-07 0)
(0 -8.58439e-07 0)
(0 -3.95829e-06 0)
(0 -1.02892e-06 0)
(0 5.81385e-06 0)
(0 1.98301e-06 0)
(0 1.68289e-06 0)
(0 2.06493e-06 0)
(0 -1.82515e-05 0)
(0 1.31977e-06 0)
(0 -7.45958e-06 0)
(0 1.03473e-05 0)
(0 -2.56521e-06 0)
(0 -3.03992e-06 0)