/*--------------------------------*- C++ -*----------------------------------*\
| =========                 |                                                 |
| \\      /  F ield         | OpenFOAM: The Open Source CFD Toolbox           |
|  \\    /   O peration     | Version:  v2012                                 |
|   \\  /    A nd           | Website:  www.openfoam.com                      |
|    \\/     M anipulation  |                                                 |
\*---------------------------------------------------------------------------*/
FoamFile
{
    version     2.0;
    format      ascii;
    class       volVectorField;
    location    "400";
    object      ddt0(U);
}
// * * * * * * * * * * * * * * * * * * * * * * * * * * * * * * * * * * * * * //

dimensions      [0 1 -2 0 0 0 0];


internalField   nonuniform List<vector> 
18758
(
(0.00787141 0.00033922 1.30902e-17)
(0.00313861 -0.00987354 -1.68261e-17)
(0.000235763 2.56275e-05 -5.23555e-19)
(0.12928 0.0215289 -6.46193e-18)
(-0.0163019 -0.0254593 8.5984e-18)
(0.0236785 -0.00834315 1.55426e-17)
(-0.0055267 1.1992e-05 -8.8102e-17)
(0.000280484 0.000169057 -2.67916e-19)
(0.0177946 -0.0215924 -1.21896e-17)
(0.00235082 -4.15033e-06 -5.53431e-20)
(0.00123236 0.000937743 5.11097e-18)
(0.0164282 0.000984764 3.88987e-18)
(0.000248301 1.50337e-06 5.25123e-20)
(0.0048219 0.048586 -3.20329e-17)
(-0.00154051 0.000945777 5.26284e-18)
(0.00467041 -0.00949368 -4.74578e-17)
(0.00357875 0.0065154 -1.87234e-17)
(0.000261929 -2.17609e-05 -1.50039e-18)
(-0.000116209 0.000462185 -2.34835e-18)
(0.00281857 7.63851e-05 -2.62742e-19)
(-0.0538345 0.000707241 -1.45526e-17)
(2.04689e-05 -0.000139493 1.80269e-18)
(0.00123782 0.00437606 6.17349e-18)
(0.0174129 -0.0324755 1.88109e-17)
(-0.00707546 0.0147665 -1.35441e-17)
(0.000301041 0.00016183 2.65843e-19)
(0.00845456 -0.0104258 5.09638e-18)
(-0.000792518 -0.0274342 2.94938e-17)
(0.0135944 0.00212584 -3.14686e-18)
(0.0150576 -0.00915914 1.65713e-18)
(0.00492164 0.0193229 1.36878e-17)
(-0.0404528 0.00592412 -2.25951e-17)
(0.000118487 -1.73016e-05 -1.48794e-18)
(0.000156404 0.00105034 -4.56034e-18)
(0.0230823 0.0219831 -1.61142e-17)
(7.53867e-05 -0.000649146 7.74549e-18)
(6.26882e-05 -2.90626e-05 -2.88608e-18)
(0.000491577 0.000616747 -1.82551e-19)
(0.000607073 0.000717789 -2.0001e-18)
(0.00455332 0.00576476 2.58485e-17)
(0.000465894 0.000594405 -1.08953e-18)
(0.00156099 -0.00132896 -2.25852e-17)
(0.000159924 0.000143983 -2.95785e-19)
(0.00192156 -0.000668043 7.48523e-19)
(0.0151462 -0.00320953 6.17509e-19)
(0.0002393 3.87026e-05 -7.30669e-19)
(0.000505391 0.00458306 3.10224e-19)
(0.00148698 0.000774427 4.77094e-18)
(0.00230484 -3.03531e-05 -6.73537e-19)
(0.000122813 8.05718e-05 -1.44959e-18)
(0.000503385 0.00477197 1.62551e-17)
(-0.026986 0.00559402 8.91847e-18)
(0.000191134 1.05659e-05 1.92385e-19)
(0.00117749 0.000923886 -8.38924e-19)
(0.00408005 -0.0258206 -4.29863e-18)
(0.0380933 0.0064538 1.81582e-17)
(6.97925e-05 -3.17986e-05 1.63854e-18)
(0.00276816 -0.00872454 -4.18881e-17)
(0.000575158 -0.000807249 8.28816e-19)
(0.00794764 0.0498915 -1.15149e-17)
(0.006747 0.00146595 3.99964e-17)
(-0.00492518 -5.15085e-05 6.88712e-17)
(0.0109615 -0.00674217 5.04167e-17)
(0.000990191 -0.000820378 -5.06295e-18)
(0.000194877 1.1595e-05 -6.36748e-19)
(0.000126012 -2.9153e-05 -3.39476e-18)
(0.00469904 0.00681574 2.31597e-17)
(0.000130344 -2.04451e-05 2.05739e-18)
(0.000451306 0.00055869 1.03156e-18)
(-0.0268884 0.00593288 -1.23882e-17)
(-0.0340551 -0.00274784 -5.24438e-18)
(0.000612573 -0.00108615 1.15851e-17)
(0.000128615 9.13406e-05 2.84786e-19)
(-0.00114511 0.00612724 -1.42431e-16)
(0.00024047 0.000275639 5.95871e-19)
(0.000595296 -0.000731616 -6.45563e-19)
(0.0400192 -0.00176747 2.21356e-17)
(-0.020899 -0.0229966 2.58867e-17)
(0.00602491 -0.00399451 -1.34682e-17)
(-0.00258854 0.000704923 1.25536e-17)
(0.0130301 0.0138411 5.66281e-17)
(0.0171965 -0.000596391 -2.25205e-17)
(0.00967036 0.0493231 -1.56466e-18)
(0.0266146 -0.0143617 -5.18004e-17)
(0.0416356 -7.01785e-05 3.91591e-17)
(0.00215886 0.00192435 -1.20473e-17)
(0.0180498 -0.00420783 -2.22664e-17)
(0.0101102 -0.0066353 -2.89423e-17)
(-0.00464215 -0.000220023 -4.01431e-17)
(0.000614465 -0.000703654 1.28276e-18)
(0.0318798 -0.0133036 -1.24824e-17)
(0.000530999 -0.000802852 -1.81604e-18)
(0.00676038 -0.00167431 1.34589e-17)
(0.00161674 -0.00138552 1.51843e-17)
(0.0155446 0.0150079 3.4038e-17)
(0.00446919 -0.00150866 -8.39088e-17)
(0.0408039 0.00159038 -5.20081e-17)
(0.000242707 0.000283394 -6.09932e-19)
(0.000447667 -0.000508245 -3.50226e-18)
(-0.0527184 0.000151376 -5.95595e-18)
(0.0028815 0.000212823 7.81022e-18)
(0.0376872 -0.0130544 -1.56972e-17)
(0.0150206 0.00709209 -1.38046e-17)
(0.00278679 0.00141118 2.44533e-17)
(-0.0421279 0.00416511 3.17598e-18)
(0.0152888 -0.00580696 -1.3719e-17)
(-0.0245535 0.00403568 -1.18601e-17)
(-0.0242289 -0.0236799 -1.90794e-17)
(0.000943868 0.000779329 -6.35871e-18)
(0.000284631 -0.00126826 -1.6919e-18)
(0.00704362 -0.00195429 2.59417e-17)
(0.00759988 -0.00990221 1.38154e-16)
(0.000329732 9.2625e-05 -7.78877e-19)
(0.000888083 0.000143105 -7.08738e-21)
(-0.0307285 -0.0314164 -7.37113e-17)
(0.0568949 0.00105296 7.24124e-17)
(0.0523443 -0.00188329 -5.9227e-18)
(-0.00160359 0.000870429 -3.33625e-18)
(0.00439057 0.00129285 1.07622e-17)
(0.0159109 0.0143525 -3.62841e-17)
(0.00253552 0.000989386 -4.34949e-17)
(0.000257586 -0.000827731 -1.2669e-17)
(0.0448313 0.0101734 8.62327e-17)
(0.00600565 -0.010906 -1.23214e-17)
(0.0124592 0.00128535 -2.79889e-17)
(0.0158734 0.00160255 -8.675e-18)
(-0.00126749 -0.00925079 1.45319e-17)
(0.0183557 -0.0375761 -5.91043e-17)
(0.00460853 -0.00116154 2.20795e-17)
(0.000283858 5.871e-06 2.02305e-19)
(0.00388157 0.00668868 1.44282e-17)
(0.00871142 -0.00995354 1.08685e-17)
(-0.0593838 0.000716336 -3.00602e-17)
(0.00419529 -0.00243084 2.00211e-18)
(0.0017747 -0.0128823 -1.8465e-17)
(0.00139997 -0.000699989 3.3061e-18)
(0.0378853 -0.00267651 -3.18494e-17)
(0.00492321 0.00570684 -2.26914e-18)
(0.000461624 -0.000491435 -8.03757e-19)
(0.00410813 -0.00507796 -5.6079e-17)
(0.00580016 -0.00418935 2.63437e-17)
(0.0088863 -0.00513589 1.98599e-18)
(0.000798077 -0.000158101 -9.73907e-19)
(0.0515623 0.00282883 -2.66672e-17)
(0.00046437 0.000587395 1.90193e-18)
(-0.000272137 0.000552223 2.496e-18)
(-0.0268481 -0.00401996 4.65544e-18)
(-0.00388756 -0.00336449 2.32613e-17)
(0.00388367 0.0193873 8.36199e-20)
(-0.0442231 -0.0399574 1.25535e-17)
(0.0151748 0.00256643 2.91375e-17)
(0.0568969 0.0264397 -9.30693e-18)
(0.00217475 0.00172236 -3.69493e-18)
(3.37807e-05 -0.000117434 -2.57405e-18)
(0.00909429 0.0113332 4.39925e-19)
(0.00194801 0.00124778 -1.74226e-17)
(0.00146209 0.000777489 3.2138e-17)
(0.00152518 0.000756424 -5.95316e-18)
(0.000863426 -0.000491894 -3.22379e-18)
(1.01117e-05 -5.56563e-05 2.73593e-18)
(0.000428208 1.78427e-05 -1.53762e-19)
(0.0120276 0.0473975 2.69107e-18)
(0.00641454 -0.00280506 -3.37625e-17)
(0.000851802 -0.00048392 2.28199e-19)
(0.00649755 0.00153113 -2.66198e-17)
(0.0122291 0.00331822 2.49221e-18)
(-6.90461e-05 0.000510707 1.74867e-18)
(0.0424716 0.00679072 -7.16271e-18)
(0.00713104 0.00570536 -4.92152e-18)
(0.0169302 -0.0144744 -3.21555e-17)
(0.0425677 0.00704653 4.71854e-19)
(0.000258042 -3.59643e-05 2.24687e-18)
(0.0071071 -0.00282052 -3.06035e-17)
(-0.00474277 -0.0271531 2.97949e-17)
(0.0129266 0.0463888 2.68328e-18)
(0.0359098 -0.0272808 -8.8948e-18)
(-0.00467044 -0.00647419 -2.78019e-18)
(0.00101962 -0.000819382 -2.06405e-18)
(0.00400946 -0.00505932 1.82156e-17)
(0.000767685 0.000669612 1.57413e-18)
(0.000327995 -2.97941e-06 4.45759e-22)
(0.0401886 -3.87778e-05 3.85518e-17)
(0.067856 0.026094 7.32744e-18)
(6.95563e-05 0.00014096 5.73405e-18)
(-0.000389361 0.00269764 8.04532e-18)
(0.0713617 0.0214397 2.86125e-17)
(0.000468802 -0.000665729 2.04977e-18)
(0.0562848 0.00164783 -6.34391e-17)
(0.000148173 0.000115275 4.78285e-19)
(0.000403717 -0.000667578 1.32462e-18)
(0.00442216 -0.00239093 -7.20277e-18)
(0.0203749 -0.0354972 1.91201e-17)
(0.00114696 0.0002601 -3.80227e-19)
(0.00342743 0.0184457 1.75689e-17)
(0.00312124 -0.00104425 3.37758e-18)
(0.00945319 -0.00764738 -2.62468e-17)
(0.00285112 8.65527e-05 -3.61532e-18)
(0.00717047 0.00626081 3.14399e-17)
(0.000171249 -0.000192342 -2.13107e-19)
(0.000151979 0.000131324 7.74131e-19)
(0.00296402 -0.00536843 -5.33521e-18)
(0.00150795 0.000735391 -8.19077e-18)
(0.00299658 0.000737084 -1.33831e-17)
(0.00664213 -0.00339971 1.31958e-17)
(0.000246741 2.29718e-06 -1.70825e-19)
(0.00308137 -0.00101474 -9.10649e-21)
(0.0155007 0.00466494 -2.86512e-17)
(1.94218e-05 -8.87833e-05 2.32186e-18)
(-0.0540703 -0.000417656 1.44467e-17)
(0.0023019 -8.63926e-05 -4.73948e-20)
(0.000263616 -5.91566e-05 -1.37723e-18)
(0.00281504 0.00147208 1.8044e-17)
(0.000940963 -0.000386737 -2.77818e-18)
(0.00280455 0.000848431 -6.52022e-18)
(0.00503089 -0.00425623 -1.45895e-17)
(0.0104104 0.0104845 -4.29134e-17)
(0.00521461 -0.00444916 2.67488e-17)
(0.00367036 -0.00934098 4.63381e-17)
(0.00019723 0.000133172 1.43974e-18)
(0.0213075 -0.00724369 -3.40457e-17)
(0.000263546 -5.62205e-05 2.12122e-18)
(0.00098574 0.000770034 4.85214e-18)
(0.0383698 0.0124068 1.89838e-17)
(-0.027015 -0.00579399 3.65854e-17)
(0.000917434 0.00878995 1.30973e-17)
(0.0150315 0.00542358 3.2501e-17)
(0.00223672 -5.45451e-05 1.6029e-17)
(0.00446713 -0.00130738 3.22298e-19)
(2.24558e-05 0.000152975 -1.38401e-18)
(0.00573447 -0.00369597 -3.89529e-17)
(0.000128846 -6.00309e-05 9.07588e-19)
(0.00866047 -0.00727929 1.29598e-17)
(0.00108077 0.00563744 -1.74215e-17)
(0.0427239 0.00332176 6.16679e-18)
(0.000253464 -1.23734e-06 1.57192e-18)
(0.000447649 -0.000657605 5.99847e-19)
(1.758e-05 0.000147499 1.86185e-19)
(0.000254094 5.6971e-05 -7.4339e-19)
(0.0466789 0.00928683 -7.53138e-17)
(0.00248555 0.000972469 -8.87849e-18)
(0.00042437 -0.000151952 -4.29577e-20)
(0.00887518 0.0100492 -2.92527e-18)
(-0.0263124 0.00583781 2.41879e-17)
(0.000681914 0.00105385 -5.38839e-19)
(-0.0466924 -0.0412694 1.47249e-17)
(0.00297862 -0.000317386 -4.81668e-17)
(0.0422398 0.00496757 -8.31565e-18)
(6.24394e-05 -0.000663505 3.36529e-19)
(0.0138999 0.014945 5.20238e-17)
(0.00140963 -0.00211229 3.20752e-17)
(0.00010746 -0.000607877 -2.7735e-18)
(0.0403916 0.00804731 1.4818e-20)
(0.00222297 0.00199848 1.28173e-17)
(0.00156116 -0.00213056 -1.3049e-17)
(-0.000925481 0.000819867 -3.71853e-18)
(0.00255474 0.000829625 3.4009e-17)
(0.0613052 -0.00837668 2.89944e-17)
(0.00322486 -0.0095746 3.85639e-18)
(0.00277637 0.000797749 1.36462e-17)
(0.00618918 -0.00342694 -3.19882e-18)
(-0.000199245 0.000330379 2.271e-18)
(0.0115441 0.00518713 -7.64246e-18)
(0.000244767 6.37155e-05 3.13133e-18)
(0.00703369 -0.00299326 -2.36521e-17)
(0.00223696 -0.000102958 -7.38085e-20)
(0.0383998 0.0139544 -5.16026e-17)
(0.0195842 0.00282868 -3.57087e-17)
(0.0002168 0.000131565 8.31149e-19)
(0.000865033 0.000769617 7.99957e-19)
(0.010942 -0.00423324 -1.13652e-17)
(0.000830819 0.000756414 4.97463e-18)
(-0.000379579 0.00257331 3.38279e-18)
(0.00604203 -0.0033057 3.29267e-17)
(0.026108 0.0111259 2.24142e-17)
(0.0516494 -0.00206033 4.52759e-17)
(0.000755232 -0.000279045 1.15681e-18)
(0.000187107 0.00374453 -5.64541e-18)
(-0.0463958 -0.0357442 7.18346e-18)
(0.0140384 -0.00281142 8.26941e-20)
(0.00124163 0.000196714 7.45237e-19)
(8.71662e-05 0.000248213 9.63263e-19)
(0.00213281 0.000876758 -9.34423e-18)
(0.00247434 0.000959209 1.2168e-17)
(0.000778064 -0.000196977 -2.94255e-19)
(-0.0306352 -0.0575492 2.06915e-17)
(0.00874394 0.00936854 9.48885e-18)
(0.0826343 0.0777074 2.65259e-18)
(-0.043877 0.00120394 1.98265e-17)
(0.00178034 0.00512578 -2.20042e-18)
(7.22745e-05 0.000109107 -9.56119e-19)
(0.000225049 2.77028e-05 -1.81699e-19)
(0.00485492 -0.0013465 2.59799e-19)
(0.0145282 0.0105866 -4.03797e-17)
(0.000848301 -0.00161446 -1.49501e-18)
(0.00595089 -0.00365551 5.21207e-19)
(0.0024534 -0.00593245 2.53847e-18)
(0.0021643 0.000816277 4.46389e-19)
(0.012781 0.0137109 -5.81965e-17)
(-9.93344e-05 0.000432747 1.72624e-18)
(0.0129707 0.0688822 1.83497e-17)
(0.0245528 -0.0132944 6.85967e-17)
(0.000240752 4.38446e-05 6.36419e-19)
(0.00534251 0.0275407 -1.46211e-17)
(0.00348923 -0.00140277 4.15321e-18)
(0.000469126 0.000561662 -3.55375e-19)
(0.00268575 0.000684109 3.49303e-18)
(0.000650443 -0.00126867 2.40397e-17)
(-0.000787202 0.00119111 6.0893e-18)
(8.41932e-05 -0.000630362 3.46717e-18)
(-0.00278174 0.000959238 -3.33051e-17)
(0.0544537 0.07606 -1.95309e-17)
(0.000338543 -0.000290002 7.21349e-19)
(-0.004549 0.000260737 8.99177e-17)
(0.0134855 0.0141918 -2.42899e-17)
(0.000735983 0.00803056 4.29826e-18)
(0.000223768 6.36394e-05 -5.91166e-19)
(0.000268416 -1.56397e-06 -2.06238e-19)
(0.0387266 0.06449 4.36543e-17)
(0.000690815 0.00101476 -2.96523e-19)
(7.33302e-05 0.000131775 8.97069e-19)
(0.000131757 0.000292722 -1.07756e-18)
(0.000316106 -0.00137596 -2.9795e-17)
(0.0076071 0.00554083 4.7062e-17)
(0.000304899 -0.00118549 -3.11527e-17)
(0.00212443 0.000870989 -6.93248e-18)
(0.00248908 0.000946307 -7.8542e-18)
(0.00284074 -6.32651e-05 2.54399e-19)
(0.00447884 -0.00211464 2.46943e-18)
(-0.000180765 0.000318836 6.98141e-20)
(9.91271e-06 -0.000116462 2.37575e-18)
(0.0228012 -0.0370811 2.84296e-17)
(0.00480816 0.000646738 4.91284e-18)
(-7.7563e-05 0.00401471 1.47657e-17)
(0.131905 0.0222504 -1.29692e-18)
(0.000932125 -0.00166797 4.6257e-18)
(0.0011172 0.000275033 -1.60149e-19)
(0.000351571 2.72002e-07 5.33187e-20)
(0.0119453 0.0694341 -6.95821e-18)
(0.0130068 0.0312115 1.7421e-17)
(1.5992e-05 0.000144059 2.83913e-18)
(0.0002646 -9.13016e-05 5.2472e-19)
(2.10491e-05 0.000137567 -2.25599e-19)
(0.00133652 -0.000717146 -2.24189e-18)
(0.00428138 -0.00130005 -2.03976e-18)
(-0.007955 0.014207 -2.34134e-18)
(0.000242961 -0.00078642 2.18168e-18)
(0.00025737 -0.00125213 2.1209e-18)
(0.000104921 7.47444e-05 -2.45171e-19)
(0.00490188 -0.0101093 -5.85032e-18)
(0.00862638 -0.00486806 -2.27397e-18)
(-0.00204179 -0.00909148 1.2146e-17)
(0.00847589 0.00171111 -2.97787e-18)
(-0.000199155 0.00125198 7.31908e-18)
(0.0159937 -0.0347033 3.46872e-17)
(0.00764516 6.55678e-05 1.36449e-17)
(0.00235461 0.000959656 -1.26776e-17)
(0.00165498 -0.00229556 -1.77472e-17)
(0.0120006 0.000732601 -2.52187e-17)
(-0.0420022 -0.0050075 -3.21914e-17)
(0.0730443 0.0211499 -1.58785e-17)
(0.000222397 2.41126e-05 -9.54021e-19)
(0.00302672 4.05313e-05 -1.8461e-20)
(0.0291665 0.00306168 1.78622e-17)
(0.0244373 0.0120882 -4.76454e-17)
(0.00189811 0.000208185 1.07114e-18)
(8.40452e-05 0.000110317 2.36054e-19)
(0.00374404 -0.000498755 5.86478e-18)
(8.52006e-05 0.000483918 2.67337e-18)
(0.00210337 0.00254992 -1.08712e-17)
(0.0102687 -0.00686381 -5.63921e-17)
(0.128844 0.01509 5.64224e-19)
(0.0120608 0.031676 3.11474e-18)
(0.00273983 -6.54111e-05 8.91636e-19)
(0.0192706 0.00349394 4.61238e-17)
(0.000586421 -0.000895258 -1.36096e-19)
(0.00155433 0.000716275 6.14274e-18)
(0.000620527 -0.000435936 1.89531e-18)
(0.000660684 0.000735238 -3.23089e-18)
(0.0184264 0.0206529 -1.27045e-17)
(0.00132166 0.000993773 -3.02076e-18)
(-0.00428361 0.000220876 -9.8848e-17)
(0.00828328 -0.00588262 -2.76708e-18)
(-0.000867168 0.000783859 5.07167e-18)
(0.000325958 -0.000256159 -2.81951e-18)
(0.0567918 -0.00131349 -1.68284e-17)
(0.0120818 0.0304718 -6.51336e-18)
(0.0193091 -0.0208565 -1.88049e-18)
(0.000552603 -0.000912569 -1.61148e-18)
(0.00253621 0.0143568 2.66505e-17)
(9.8644e-05 0.000234801 2.67285e-19)
(0.00140933 -0.00132055 -1.62882e-17)
(0.000266214 -0.000844509 1.18982e-17)
(0.000227409 0.000140116 8.23655e-19)
(0.0346289 -0.00411553 1.94534e-17)
(-0.054301 0.000645466 1.07993e-17)
(0.0148852 -0.0112281 7.22763e-18)
(0.0147909 -0.00329863 4.63947e-17)
(0.00029878 -4.35976e-06 -2.18817e-19)
(0.0326202 -0.00835394 1.04084e-17)
(-0.0464501 0.00120946 4.65211e-18)
(0.00251092 0.000844792 7.27609e-18)
(0.000331625 0.000106117 5.76393e-22)
(0.136992 0.0270568 -1.59333e-18)
(0.000215293 0.000342357 7.34019e-18)
(-0.000390312 0.00059769 8.67494e-18)
(0.000336496 4.15841e-06 1.03744e-19)
(0.0194672 0.0212738 -2.51076e-17)
(0.000288276 -0.000711604 9.05767e-19)
(0.00189619 -0.000724321 -4.47389e-18)
(0.0080864 0.00175686 5.3747e-18)
(0.0435682 0.011881 -3.74694e-17)
(0.000128387 0.000280707 -3.55277e-19)
(-0.0163588 -0.0238077 -2.4624e-18)
(0.00508351 0.00239024 -1.53049e-17)
(0.000219162 6.22969e-05 1.02423e-18)
(0.000547639 0.00248019 3.80201e-18)
(0.000590262 -0.000783627 -2.11382e-18)
(0.000263098 -8.43531e-05 3.37939e-19)
(0.00210188 0.000830246 -6.79491e-18)
(0.00998098 0.00409301 3.40826e-17)
(0.00439188 -0.0019809 -8.70829e-18)
(0.000288244 0.0029838 6.09865e-17)
(0.00256822 0.000969543 9.74656e-18)
(0.000149607 4.64717e-07 -4.97949e-19)
(0.0104387 -0.0043114 -9.40557e-18)
(-0.0292683 0.0157747 1.95462e-17)
(0.128017 0.050678 -1.90662e-17)
(0.0444776 0.00619651 3.32794e-20)
(0.0157993 0.0237872 -1.64943e-17)
(0.00120423 0.000128814 -9.91585e-19)
(0.000222675 0.000142004 -1.67974e-18)
(0.000408658 -0.000162876 1.75127e-19)
(0.000950268 -0.00040029 5.73498e-18)
(0.0104505 0.0327095 1.67264e-18)
(0.00436706 0.00446773 3.60551e-19)
(0.000238778 0.00592715 -2.29542e-17)
(0.00333867 -0.00135788 1.41562e-18)
(0.00223205 0.0017882 -8.24623e-18)
(0.0644292 0.0417685 2.58332e-18)
(0.0155898 0.00638272 -1.69955e-18)
(0.000565599 -0.000782428 2.71468e-18)
(0.00243095 0.000919184 2.5298e-17)
(-0.00370808 -0.000550315 6.77063e-17)
(0.00119064 -0.00028719 -1.84789e-18)
(0.131123 0.0183799 1.78943e-17)
(0.000329267 -4.18836e-06 -5.64092e-20)
(3.08509e-05 -0.000216003 -7.73641e-18)
(0.0181374 -0.0254006 -1.32034e-17)
(0.00203633 -0.00117974 2.7039e-18)
(0.000759774 0.000770277 5.12225e-18)
(0.0612459 -0.00531328 -4.39193e-17)
(0.0241332 0.0207965 -7.3016e-18)
(0.00474765 -0.00121843 -5.26738e-19)
(0.00412216 -0.00131549 3.31911e-18)
(0.000579265 -0.000739673 -5.00395e-19)
(0.00116149 -0.000372419 -9.70084e-19)
(0.00400728 -0.00982304 -2.70382e-17)
(0.0122877 0.00181283 -3.42801e-17)
(0.00215119 -0.00285441 -9.65631e-18)
(0.00309139 0.0026459 3.55551e-17)
(0.00401604 0.0502826 1.39785e-17)
(0.0587752 0.0396968 3.2567e-18)
(0.0556678 -0.000904431 7.98016e-17)
(0.00647674 0.0483702 -1.18023e-18)
(0.000569841 -0.00111427 -1.22483e-17)
(-0.00297246 -0.00102924 2.20897e-17)
(0.000895413 8.28484e-05 8.78517e-19)
(0.010426 0.0338523 -3.95305e-19)
(0.00131743 0.000694953 2.27639e-18)
(0.00740812 -0.00148247 -2.9981e-17)
(0.00185852 0.0143107 -2.65549e-17)
(0.00934078 0.00432421 -5.51858e-17)
(0.000318244 0.00572067 1.71935e-17)
(0.00566096 0.0220236 2.39214e-17)
(0.000247148 5.26966e-05 -7.85179e-19)
(0.0200044 -0.0328656 -1.93276e-17)
(0.000136077 0.000101345 -4.05012e-19)
(-0.0454149 -0.00335937 3.10075e-17)
(0.000629901 -0.000437478 9.64714e-20)
(0.0113984 9.61066e-05 -1.06865e-17)
(0.00022819 -8.04065e-06 1.7191e-18)
(0.0265725 0.0698113 -2.50433e-18)
(0.00224118 0.00260559 -3.72623e-17)
(0.000224889 -0.000142481 -3.24052e-18)
(0.000434482 -0.000501865 1.38451e-18)
(0.000334586 2.67109e-05 -3.76945e-19)
(-0.0168813 0.0283628 4.50279e-18)
(-0.0151858 -0.00497814 5.80443e-17)
(-0.0304436 -0.0306784 -7.76788e-17)
(0.00405632 0.0075057 -2.2699e-17)
(-0.000492642 0.002387 1.32909e-17)
(0.000675128 -0.00174244 -1.75097e-17)
(2.0494e-05 -7.9899e-05 -2.413e-20)
(7.79853e-06 -8.10592e-05 -1.59185e-19)
(-0.0292888 0.00208042 -2.17206e-17)
(0.000438415 -0.0005096 2.93438e-18)
(6.61708e-05 -8.03738e-05 4.39221e-18)
(0.00177781 -0.00600253 2.56826e-17)
(0.00023973 2.68962e-05 3.66643e-19)
(0.00320727 0.00250214 -5.1982e-17)
(0.00101464 -0.00182988 1.72427e-17)
(4.54033e-05 -5.3818e-05 -2.52682e-18)
(0.000312202 -0.000726451 1.75122e-18)
(0.00177239 -0.00144566 -8.42173e-18)
(0.00120443 -0.00028907 5.71473e-19)
(0.00202356 0.00126003 -1.38923e-17)
(-0.0475896 -0.041516 -7.57477e-17)
(-0.00556907 0.00571378 -7.42798e-18)
(0.00219706 -0.00276798 8.39025e-18)
(0.00208416 0.00054593 9.52133e-18)
(0.000145492 -1.88638e-05 4.82897e-18)
(0.00360319 -0.0129219 -2.54538e-17)
(0.000390363 -0.00124669 -1.64916e-18)
(0.00102541 0.000766287 -1.65487e-18)
(0.0104354 -0.0116812 -2.06725e-17)
(0.0592118 0.000483343 2.51223e-17)
(0.00493693 0.0212681 5.50173e-18)
(0.0448925 0.0647331 6.15238e-18)
(0.00194623 0.000196245 -4.9146e-19)
(0.000981759 0.000760771 3.12617e-18)
(0.058561 0.00083233 -1.36258e-17)
(-8.06718e-05 0.000486261 8.16723e-19)
(0.041438 -0.00339459 -3.33198e-17)
(0.0109713 -6.81631e-06 1.29748e-17)
(0.00022467 -0.000111667 7.23511e-19)
(-0.0464674 -0.0406285 8.99422e-17)
(0.0153668 -0.0366098 -3.93514e-17)
(0.00397318 -0.000610128 3.34483e-18)
(0.000360541 8.56606e-06 -1.95779e-20)
(0.00462182 0.000644447 2.65114e-18)
(-0.0128726 0.0179366 2.33745e-18)
(0.000492035 0.000612764 -1.84551e-18)
(0.000414078 0.000528993 3.85988e-18)
(-0.00153971 0.00103852 -1.13856e-18)
(-0.000720072 0.00116934 -4.5172e-18)
(-0.000273794 0.000579609 -4.26161e-18)
(0.00030083 2.94557e-05 -1.81074e-19)
(7.08187e-06 -3.97541e-05 -2.68127e-19)
(0.0460021 0.0106383 6.80148e-17)
(0.00141916 0.00133341 2.08706e-18)
(0.0105778 0.00252357 -6.885e-18)
(0.000214977 -0.000782619 2.54667e-18)
(-0.00381394 -0.000142379 -4.24314e-17)
(0.0111436 -0.00757479 3.94426e-17)
(0.000231325 5.77494e-05 -2.78129e-18)
(0.0001513 0.000132834 -3.25629e-19)
(0.00146893 0.00122828 7.47201e-18)
(0.000188488 -0.000137619 1.65593e-18)
(0.00127639 0.000211877 3.4357e-19)
(0.000775151 -0.00112484 -1.65946e-17)
(0.000767617 0.000661818 -5.80897e-18)
(0.0123396 -0.00558536 1.26497e-17)
(0.00559333 -0.00999701 1.22871e-17)
(0.000166498 2.33916e-05 -1.07853e-18)
(-0.0180212 0.014749 4.1677e-17)
(0.00411987 -0.0218672 6.0091e-17)
(0.00192772 -0.00285847 1.58913e-17)
(-0.00289943 -0.00150959 -4.76534e-17)
(0.0125585 -0.0112285 7.1104e-18)
(0.0014649 -0.00137074 2.73729e-17)
(-0.00538677 0.00535849 -2.88096e-18)
(0.00189214 0.00179337 -1.1874e-17)
(-0.0337281 -0.00358942 1.83774e-17)
(0.00137915 0.00129153 -1.3082e-18)
(0.00162838 0.011022 1.57802e-17)
(0.000851299 -5.48563e-05 -6.19085e-19)
(0.132096 -0.0716691 1.53531e-17)
(0.00362882 0.00162095 3.07374e-17)
(0.00879929 -0.00429641 3.37701e-18)
(0.0235382 -0.000272607 1.81487e-17)
(-0.00545046 -8.87523e-05 6.31004e-17)
(0.00139135 0.00122304 -1.67074e-17)
(0.000676719 -0.00049964 -4.81267e-19)
(0.00252176 -0.000242168 8.16017e-18)
(-0.00645209 0.0159613 1.84778e-17)
(0.00123991 0.000149603 -4.58631e-19)
(0.0118375 0.00135976 3.32857e-17)
(0.000692121 -0.00093722 -3.70989e-18)
(-0.0317298 0.0024859 1.95756e-17)
(0.0013115 0.000280124 -4.41215e-20)
(0.000272594 0.00040818 -3.909e-19)
(0.000339324 3.70221e-05 -1.55022e-19)
(0.000235115 1.9233e-05 9.73837e-19)
(-0.00419693 -0.0219988 3.88088e-17)
(-0.0319533 0.00429557 -8.7644e-18)
(0.000558467 -0.000933616 8.31753e-18)
(0.0226451 0.0537775 -2.14676e-17)
(0.00244464 -0.00123215 -1.7458e-17)
(0.125297 0.0448276 -1.22188e-17)
(-0.0144322 -0.00574392 -5.45985e-17)
(0.0358941 0.063659 -2.99553e-17)
(-0.0128051 -0.0154455 -7.20231e-18)
(-0.000427334 0.000429568 -2.9127e-18)
(-0.00482549 -0.029054 -2.00731e-17)
(0.00248947 0.0183879 -2.34783e-17)
(0.000816288 0.000347316 2.09172e-20)
(0.0051835 0.00671564 -3.18781e-17)
(-0.0289617 0.00287353 5.18225e-18)
(0.00822904 -0.0313251 -2.86685e-18)
(0.000203779 0.00102507 3.7989e-18)
(0.000214026 -0.0013488 6.30531e-18)
(0.000860867 0.000230628 -2.06232e-19)
(0.000248034 1.34149e-05 -2.73417e-19)
(-0.00631467 0.00201538 -2.10918e-17)
(0.0135618 -0.00475221 -2.77075e-17)
(-0.00117478 -0.0262068 -3.01084e-17)
(-0.049101 0.000829189 -4.96156e-17)
(0.000481192 -0.00106697 -3.357e-18)
(0.000181538 -0.000175032 4.96103e-19)
(0.00601475 0.000729708 1.54292e-17)
(1.10841e-05 -9.75539e-05 -9.69863e-19)
(0.00042305 6.24776e-06 1.83173e-19)
(0.000704873 -0.00112428 9.02876e-18)
(-0.00124223 0.00105641 -3.88941e-18)
(0.0120387 -0.00637691 -3.83827e-17)
(0.00356947 0.00172482 -4.28071e-18)
(0.006256 0.00630779 1.54103e-17)
(-0.0270461 -0.0217207 5.81995e-19)
(0.00286098 0.00257861 3.34129e-17)
(0.000221499 -3.94163e-05 -1.30529e-19)
(0.00192272 -0.00116484 -6.11024e-18)
(0.00152644 0.00424214 -4.89804e-18)
(-0.0332265 -0.00861473 1.66128e-17)
(0.00121186 0.0105932 -2.83221e-18)
(0.0208743 0.00314704 1.22046e-16)
(0.00255515 0.000196243 5.28709e-19)
(0.000562257 -0.000922665 -7.29224e-18)
(0.0231143 0.0522306 1.2104e-17)
(0.0359087 0.0631521 -5.05569e-18)
(0.00117426 0.000283249 1.13746e-19)
(4.00667e-05 0.000148235 -1.01387e-18)
(0.00328246 -0.00705108 3.48731e-17)
(0.0332125 -0.0139427 -4.24067e-17)
(0.00677936 0.00657712 -4.585e-19)
(0.000225053 2.10204e-05 -9.76679e-19)
(-0.0419741 -0.00378818 1.13473e-16)
(-0.0476052 -0.000626191 -4.17488e-17)
(-0.00291073 0.0158327 -2.01026e-17)
(0.000117392 7.47726e-05 1.40977e-19)
(-0.00498769 -0.000194698 6.0651e-18)
(-0.00336096 0.000727127 7.31034e-17)
(0.0148975 -0.00449865 3.50079e-17)
(0.00128363 0.00102019 5.69081e-18)
(5.36972e-06 -0.000682124 -7.77304e-19)
(-0.0218914 -0.0223498 -5.75054e-17)
(2.55058e-06 -3.53133e-05 1.29959e-18)
(0.0301835 0.0311741 1.75769e-18)
(0.0421949 -0.00499182 -2.00306e-17)
(-0.00409909 -0.0112023 2.65747e-17)
(-0.00488757 -0.000124047 -1.64258e-17)
(0.0151443 0.00982854 1.04448e-17)
(-0.0476374 -0.00130738 1.75901e-17)
(0.0102595 0.00348592 -2.27128e-17)
(0.000783618 -0.000598003 -9.95303e-19)
(0.000168336 -0.00134368 -3.90295e-18)
(0.0439389 0.00459392 -3.86573e-17)
(0.154845 0.0430197 2.27548e-17)
(-0.00361248 0.000746548 1.36531e-17)
(0.128796 0.0148812 -3.166e-17)
(-0.000116451 0.000487362 4.9187e-19)
(0.0306299 0.0297326 -6.17338e-18)
(4.89451e-06 -6.11446e-05 -2.09824e-18)
(0.00205419 -6.70878e-05 -4.17105e-18)
(0.0140843 0.0155472 3.34981e-18)
(0.00095917 0.00462576 -3.08011e-17)
(0.000226001 -0.000147073 -2.37671e-19)
(0.00168286 -0.000776151 1.19889e-17)
(0.0314595 -0.00669353 -5.79335e-17)
(-0.021245 0.011515 -4.43872e-17)
(0.0420297 0.00538401 5.09871e-17)
(-0.000663027 0.000648579 -7.70488e-18)
(0.00236821 0.000963951 2.41792e-19)
(0.00288778 0.000250875 1.2444e-18)
(0.0440442 0.00733077 -7.99136e-18)
(0.000269681 -0.00127622 9.24584e-19)
(8.85159e-05 0.000207522 -1.99415e-18)
(0.000315934 -0.000310841 -2.31173e-19)
(-0.00236655 0.00269815 1.2569e-18)
(0.00553895 0.0200754 9.48632e-19)
(0.00014461 1.69423e-05 -2.02585e-19)
(0.0130673 0.0149882 -1.79794e-17)
(0.000391936 -0.000227175 7.76087e-19)
(0.000277633 5.43194e-06 7.35046e-19)
(0.000276033 -0.00011499 -1.90254e-19)
(-0.0126375 -0.0262356 -1.62498e-17)
(0.000348519 -0.00127664 -6.54568e-18)
(2.71514e-05 -5.25618e-05 -6.45791e-19)
(0.00571712 0.000992623 -1.442e-17)
(0.00391285 0.000187081 6.81427e-18)
(0.00017909 2.2261e-05 3.13273e-18)
(0.0330528 -0.00296854 5.99642e-18)
(7.48856e-05 0.000486049 -1.12855e-18)
(-0.000239511 0.000339429 -1.21045e-18)
(0.00198027 0.000522294 -2.06556e-17)
(0.00241011 -0.00263443 3.16155e-18)
(-0.000509385 0.00251483 -6.90777e-18)
(0.00132961 0.000526648 -2.17375e-18)
(0.0180428 0.00681147 -1.33394e-16)
(0.00205589 -0.00290623 2.33005e-18)
(0.00281259 0.000667481 -1.59103e-17)
(0.0330272 0.0645957 1.16262e-17)
(0.00280487 0.000689729 1.0334e-17)
(0.145791 0.0330851 -5.39625e-18)
(0.00038686 -0.00185816 2.03746e-19)
(0.0133486 -0.00550974 2.10738e-17)
(0.0104902 -0.00360374 1.52941e-17)
(-0.00919892 0.00176342 2.36887e-17)
(2.15669e-05 0.000144647 -3.48943e-18)
(-0.0325997 -0.00139391 -1.07524e-17)
(0.023283 -0.0374152 -1.83045e-18)
(0.000271575 0.000143063 5.54949e-19)
(-0.027658 -0.00862056 -3.10604e-18)
(0.000181429 -5.18465e-05 3.46796e-18)
(0.000280309 -0.000132938 7.76164e-19)
(0.00312671 0.00138954 1.32355e-17)
(0.000249092 -3.49964e-06 8.41049e-19)
(0.00636689 0.002663 -1.25068e-17)
(-0.0331462 -0.00758138 -1.28635e-17)
(0.000140635 0.000101145 3.06254e-18)
(0.00404865 -0.00209717 7.03412e-17)
(-0.00040862 0.000425023 4.14123e-18)
(0.00257009 0.00102975 2.60147e-17)
(0.160365 0.0466608 1.56442e-17)
(0.000165089 2.94937e-05 8.82277e-20)
(0.0311449 -0.0177883 -1.57732e-17)
(0.00156827 0.000214291 2.5876e-20)
(0.000189192 0.000516001 -1.82787e-18)
(0.000414114 -0.000610683 -2.61694e-19)
(0.000309128 -0.000356394 -4.40338e-19)
(-0.00192639 -0.0151101 1.63147e-17)
(0.00272364 -0.0054381 -2.62773e-17)
(0.0584011 -0.000122495 -6.11282e-17)
(0.00272305 0.00268929 -2.45218e-17)
(0.0301744 -0.00779648 -3.16315e-17)
(0.00550736 0.000292655 -2.50538e-17)
(0.000133841 2.45173e-06 1.12376e-18)
(0.036155 -0.0054745 2.11076e-17)
(-0.000546806 0.000867879 -2.78753e-17)
(-0.00946312 -0.0162397 -3.0031e-18)
(0.00325143 -0.00545961 9.21571e-18)
(-0.00121978 -0.00961466 -4.50912e-17)
(0.000948318 0.0190473 3.19124e-18)
(0.00186222 0.000912074 -1.86343e-18)
(-0.0032124 -0.0138937 -2.70737e-17)
(0.00125516 0.000532092 2.79843e-18)
(0.0173034 0.00208117 -7.6186e-18)
(0.00022828 1.46652e-05 7.04582e-19)
(-0.00434252 -0.000297159 1.60508e-17)
(0.000151918 0.00110737 4.08215e-18)
(0.00344094 -0.00518679 -1.6144e-17)
(0.0017486 -0.00154058 -6.0527e-18)
(0.000737542 0.000742849 -5.45073e-19)
(0.0137871 -0.000715463 -2.84878e-17)
(0.000146245 -0.00135042 -2.01985e-18)
(0.000413029 -4.65973e-05 -1.61074e-20)
(-0.000959766 0.0066545 5.24459e-17)
(0.00156787 0.000171419 -1.08658e-19)
(0.00026456 -0.000113357 6.01029e-19)
(0.00467452 0.0045247 -7.88755e-18)
(0.00029434 -0.000465882 3.6126e-17)
(-0.0019669 -0.0161857 4.79325e-18)
(-0.00262861 0.015333 2.68222e-18)
(0.0385506 0.0624048 -2.16459e-17)
(0.0551169 -0.00307354 -3.3524e-17)
(0.000186211 -0.000156239 9.26437e-20)
(-1.10848e-05 -0.000643598 1.81896e-18)
(-0.038547 -0.00494333 -1.09372e-16)
(0.000204008 -8.15407e-05 3.38761e-18)
(0.0101674 0.00878317 -1.3861e-18)
(0.0162221 0.0101341 -8.54773e-18)
(0.00125485 0.000967236 -6.60283e-18)
(4.50906e-05 -7.01105e-05 9.23349e-18)
(0.0026603 0.000646572 -4.68766e-19)
(1.77409e-05 -0.00028979 2.17775e-18)
(0.000196468 0.000490427 -2.74309e-18)
(0.00117774 0.00339884 6.68175e-18)
(0.00966265 0.00907254 1.25236e-18)
(0.00590872 0.00647622 8.24007e-18)
(0.00355684 -0.00723812 -7.72258e-17)
(0.00377976 0.00206684 1.19122e-17)
(0.000191629 -0.000244261 1.56726e-18)
(0.00758908 0.0103947 2.92993e-17)
(-0.00734651 -0.00890929 -1.05824e-17)
(0.000379361 -0.000243449 3.67225e-20)
(0.0140793 0.0167142 -5.77519e-20)