/*--------------------------------*- C++ -*----------------------------------*\
| =========                 |                                                 |
| \\      /  F ield         | OpenFOAM: The Open Source CFD Toolbox           |
|  \\    /   O peration     | Version:  v2012                                 |
|   \\  /    A nd           | Website:  www.openfoam.com                      |
|    \\/     M anipulation  |                                                 |
\*---------------------------------------------------------------------------*/
FoamFile
{
    version     2.0;
    format      ascii;
    class       surfaceScalarField;
    location    "400";
    object      meshPhiCN_0;
}
// * * * * * * * * * * * * * * * * * * * * * * * * * * * * * * * * * * * * * //

dimensions      [0 3 -1 0 0 0 0];
oriented        oriented;


internalField   nonuniform List<scalar> 
27907
(
-4.84778e-05
-0.000113839
0.000162327
-9.99772e-05
0.000133141
-3.31621e-05
0.000148023
6.96781e-05
-0.000187057
7.81769e-05
-0.000148078
6.99021e-05
8.16689e-05
-0.000125493
4.38239e-05
-6.16445e-05
0.000122427
-6.07817e-05
-8.11548e-05
9.06078e-05
-9.45293e-06
-0.000421327
-1.12505e-05
0.000446776
-4.34026e-05
-0.000102902
0.000146311
-0.000173552
0.000301912
-0.00012817
-0.000448881
0.000229057
0.000220433
6.42201e-05
4.95583e-05
-0.000113778
6.36781e-05
-2.82354e-05
-2.00991e-05
0.000131279
5.06453e-05
-0.000181906
5.57908e-05
0.000324336
-0.000379295
-6.91761e-05
0.000143522
-7.43452e-05
0.000294972
-0.000218445
-7.64121e-05
0.00053945
-0.000154342
-0.000376469
-0.000486793
0.000464653
2.47963e-05
8.59999e-05
0.000189276
-0.000275143
-5.38321e-05
9.01415e-05
-3.63094e-05
4.20293e-05
3.65107e-05
-7.73787e-05
7.37062e-05
-0.000119618
4.59119e-05
-8.42323e-05
-3.19683e-05
0.000116203
-0.000162359
9.27468e-05
6.96148e-05
1.89958e-05
-0.000424713
-0.000131227
7.38445e-05
5.73829e-05
9.50291e-05
-0.000123762
2.87329e-05
0.000104898
-0.000135746
3.08486e-05
-0.000105487
1.12478e-05
9.42402e-05
-0.000156567
0.000252077
-9.54568e-05
9.48781e-05
-3.89758e-05
-5.59023e-05
1.32379e-05
7.45191e-06
-1.35129e-05
-1.43954e-05
0.000388567
-0.000373062
7.80845e-05
-0.000198058
0.000119992
6.21783e-05
0.000210979
-0.00027216
-1.00543e-06
-1.48436e-05
2.0378e-05
9.74962e-05
-0.000482124
0.000386505
0.000459099
-1.8757e-05
-0.000439001
0.000305687
-0.000116594
-0.000188986
0.000219067
0.000302171
-0.000519264
0.000213751
0.000156327
-0.000369908
-0.000542263
0.000133374
0.000415123
0.000309404
6.70539e-06
-0.000315922
-0.000110497
-6.39917e-06
0.000116898
-2.56499e-05
-0.000164525
0.000210929
-2.06822e-05
9.43885e-05
0.0002885
7.85236e-05
-0.000366537
0.000168077
-0.000341405
0.000469378
-2.17449e-05
-0.000440209
-0.000126576
-4.76995e-05
0.000174288
9.12416e-05
3.22254e-05
-0.000123467
-0.000134875
0.000337142
-0.000186248
-0.000154955
-0.000293204
9.65638e-05
-1.53455e-06
0.00014059
-7.01284e-05
-7.04602e-05
-2.0744e-05
2.42032e-05
-0.000107569
-6.28353e-05
0.000389204
-0.000476332
8.82773e-05
2.23916e-05
-0.000185202
0.000162828
-0.000210034
6.60732e-05
0.000143974
1.66248e-05
-9.77796e-05
-0.000151982
-3.08678e-05
0.000182865
0.000196014
-0.000432778
0.000237138
0.000149707
-0.000270296
5.53558e-05
0.000391984
-0.000446554
0.000283708
1.72778e-05
-0.000300868
-6.16746e-06
2.54867e-05
0.000540032
-6.91808e-05
-0.000468167
0.000101672
-1.04302e-05
-3.31725e-05
-5.88495e-05
9.20223e-05
0.000434599
-4.91642e-05
-0.000385023
2.6896e-05
0.000449485
7.1448e-05
-9.91587e-05
2.77107e-05
0.000522223
-5.02067e-05
-0.000463672
-0.000368343
0.000514292
-0.000144562
3.56859e-05
-0.000175725
0.000140045
-0.000105509
9.99117e-05
5.59763e-06
0.000132622
-0.000198486
6.58745e-05
-3.08521e-05
-6.78889e-05
9.87411e-05
5.28394e-05
5.76955e-05
-0.000110535
-7.06167e-05
-4.61441e-05
0.000116762
-0.000117528
0.000139932
0.000137731
-6.60789e-05
-7.16522e-05
-0.000114592
0.000150285
0.000232183
0.000122962
-0.000354956
5.62191e-05
5.90989e-05
-0.000115318
5.05733e-05
-0.00020254
-5.50734e-05
-3.41668e-05
8.92403e-05
-0.000527114
0.00016023
6.97017e-05
6.80299e-05
0.00049424
-0.000103803
3.51664e-05
8.66486e-05
-0.000121815
-0.000151034
0.000364939
8.50984e-05
3.34868e-05
-0.000118585
-5.83586e-05
9.35252e-05
5.63033e-05
-0.000170889
0.000153071
0.00037614
-0.000589941
0.000184375
0.000407733
-9.63291e-05
4.2497e-05
-0.000129745
0.000275366
-0.000145494
-0.000135101
4.74267e-05
8.7674e-05
0.000161556
-0.00020512
4.35936e-05
0.000241572
-5.5944e-05
-0.000185582
5.80194e-05
3.68587e-05
1.92197e-05
-0.000124706
6.17734e-05
6.7739e-05
-0.000129511
2.25988e-05
-0.000128108
0.000394501
-0.00049893
0.000105524
-0.0004117
1.97788e-05
0.000392132
-0.000113734
5.53758e-05
-1.62819e-05
0.000448981
-0.000405728
-2.89887e-05
0.000515519
-9.76597e-05
-0.000416463
-4.64948e-05
-6.62983e-05
0.000112794
-7.43369e-05
8.27482e-05
-8.41123e-06
6.2449e-05
3.77845e-05
-0.000100233
0.000385149
-0.000328543
7.98992e-05
-0.000121146
4.12474e-05
-5.39707e-06
9.04957e-05
0.000335378
-0.00024144
-9.38161e-05
-8.35706e-05
-0.000268103
0.000352284
-0.000121125
1.10253e-05
0.000110101
0.000114379
-9.26051e-05
-2.17737e-05
-0.000141025
7.74399e-05
6.35874e-05
3.36861e-05
-0.000144181
3.72568e-05
-0.000137232
-0.000155402
2.35541e-05
0.000131851
-1.46861e-05
0.000101335
-1.66115e-05
2.63281e-06
3.34009e-05
0.000201502
9.35675e-05
-7.5027e-05
-5.6199e-05
5.46581e-05
3.54834e-05
-6.40613e-05
0.000197563
-0.000133475
-9.32557e-06
-7.66967e-05
5.66935e-05
0.00025411
-0.000310528
-1.10874e-05
-0.00016463
0.000162014
0.000143773
-5.7109e-05
-0.00052983
-0.000211921
0.000163757
4.81706e-05
-2.77192e-07
0.000132907
-0.00015472
0.000114981
3.97426e-05
-0.00029394
-0.000165207
0.000460548
5.31635e-05
8.7428e-05
-0.000177468
0.000398141
0.000425978
6.38955e-06
-0.000430186
-6.80425e-05
-2.20889e-05
9.01314e-05
6.91207e-05
-0.000116267
4.71468e-05
-0.000241623
8.51079e-05
-0.000136632
2.12622e-05
0.000115371
5.40666e-05
-0.000124682
-0.000111278
0.000128255
-1.69742e-05
0.000175169
-0.000349767
0.00017482
-5.95829e-05
-3.35118e-06
6.7021e-05
-3.62517e-05
-6.01881e-05
9.64399e-05
0.000372275
-0.000248409
-0.000123601
0.000102176
-2.22765e-05
-5.61802e-05
0.000345149
-0.000561521
0.000307831
0.000254494
2.00068e-07
2.10102e-05
-2.03726e-05
-0.000522177
0.000124495
0.000402953
-7.3293e-05
-7.53778e-05
0.000148683
-5.20229e-05
-5.74016e-05
0.000109425
-0.000220716
-0.000339922
-5.08026e-05
-0.000159217
1.48715e-05
9.00277e-05
-0.00049645
0.000494899
3.6201e-06
4.78104e-05
-0.000122091
7.42811e-05
8.71917e-05
6.37255e-05
-0.000150911
0.000119856
-6.002e-05
-5.98358e-05
3.886e-05
5.97336e-05
-9.85936e-05
0.000249228
0.000297117
-0.000112213
6.01904e-05
6.85687e-05
4.12703e-05
-0.000109839
-0.000155331
8.20494e-05
-0.000148945
6.47155e-05
-4.7555e-05
0.000127034
-7.94784e-05
-0.000135987
0.0003323
-7.70202e-05
-0.000134893
-1.59929e-06
0.000421423
-0.000418304
0.00041123
-5.15984e-05
-0.000345488
-5.19616e-05
-3.57684e-05
-0.000116701
5.42455e-06
-0.000599756
0.000193033
0.000412451
-0.000404306
0.000106289
0.000298376
0.00017472
-0.000123044
-5.16717e-05
9.38003e-05
0.000367982
-0.000459959
3.37706e-05
-0.000108108
0.000499806
-2.29439e-05
-0.000469012
4.323e-05
-0.000467144
0.000425428
-0.000176411
0.000112371
3.80175e-06
-0.0001592
-0.000433948
0.000165438
0.000269321
-0.000169136
-7.24261e-05
-0.000262445
0.000235555
2.69439e-05
-0.000126869
0.000177456
-0.00017399
0.000260112
-6.76092e-05
0.000154808
3.30036e-05
-0.000204893
0.000179699
-0.000503735
-3.10811e-05
0.000191614
-8.44393e-05
-0.000107169
0.000345525
-0.000401155
-0.000189014
-6.84038e-05
0.000257541
-0.000197138
1.31343e-05
0.000184031
5.40613e-05
2.41279e-05
-5.35479e-05
-0.000208824
-0.000194174
-1.08045e-05
0.000205005
3.02977e-07
-5.70374e-05
-3.42902e-05
8.87486e-05
-5.44584e-05
-0.000137356
0.000305645
0.000525117
-0.000151848
-0.00036496
0.000182383
5.92307e-05
0.000500048
-0.000341383
-0.00015777
-0.000131367
-7.75003e-05
0.00020895
0.000121197
8.1357e-05
-0.000202543
-0.000136667
6.65142e-05
7.0153e-05
0.000155344
-3.41381e-05
0.000142551
-8.05954e-05
-6.19547e-05
-0.000555473
0.000256185
0.000309882
-0.000119024
5.73797e-05
0.000378817
1.99954e-05
0.000375375
1.90689e-05
0.000124551
-0.000143612
3.39589e-05
-0.000102001
-0.000158561
0.000102866
5.56993e-05
1.43006e-05
-0.000208445
0.0002539
1.11018e-05
-0.000264952
-0.000134234
-7.34472e-05
0.000207718
-0.000288191
-0.000176345
0.000469436
-0.00023308
5.23821e-05
0.000180726
-0.000342923
0.000398934
-0.000201079
7.42295e-05
-9.66996e-05
-1.79835e-06
9.84981e-05
-8.80461e-05
0.000144355
-2.55195e-05
1.07866e-05
-0.000415073
0.000510818
0.000263885
-0.000546955
6.2518e-06
0.000207254
-0.000193367
-0.000134652
1.35273e-05
-6.15209e-05
-0.000163483
0.000225122
-0.000486255
0.000474049
1.70436e-05
-0.000159488
9.32333e-05
6.62576e-05
0.000118163
-5.63877e-05
-0.000205574
0.000377684
-0.000171312
-8.03172e-06
-0.000128599
9.34051e-05
-4.1926e-05
-5.14791e-05
5.81454e-05
-0.000146185
-0.000238774
0.000301761
4.04456e-05
7.00197e-05
-0.000110465
-0.00015674
0.000288338
-0.00013154
0.000242986
-0.000327687
8.57995e-05
-6.89535e-05
0.000116765
0.000281626
-4.92864e-05
0.000157601
-0.000314278
-0.000481486
0.0001521
0.000330449
0.000311318
-0.000277611
-3.3585e-05
-3.79965e-05
0.000138973
-0.000100972
4.38476e-05
9.87033e-05
0.000115682
-0.000246959
0.000103386
8.60285e-05
-0.000189403
-0.000528321
0.000519691
-8.11657e-05
0.000235331
-0.000154123
0.000377815
0.000105181
-0.000479604
3.2542e-05
-0.000229648
0.000186924
-0.000324054
-9.94494e-05
0.000118525
-7.68407e-05
8.86037e-05
-1.1763e-05
-0.0001458
-0.000396133
-0.000485267
0.000129793
0.000356438
-3.1462e-05
-9.24483e-05
0.000123913
-0.000361149
-0.00012317
-0.000274613
-0.000129277
-0.000219914
0.000115869
-0.000134196
1.83282e-05
-1.9321e-05
8.177e-05
0.000503551
-0.000512483
1.04062e-05
0.00022734
-0.000155781
-7.15396e-05
-2.99294e-05
7.59762e-05
-4.60468e-05
7.67904e-05
-0.000122933
0.000151277
0.000249982
-0.000400601
-0.00054703
0.000542543
8.2703e-06
9.23803e-06
0.000217634
-0.000226672
0.000192085
-0.000253471
0.000170564
-0.000463139
6.4177e-05
-9.41063e-05
-7.32144e-05
-8.62703e-05
-0.000151703
0.000116479
3.52272e-05
-3.30719e-05
-0.000117382
-3.44113e-05
0.000501626
-0.00046137
0.000199613
-2.98029e-05
-0.000230691
0.000123025
0.000107695
-6.70277e-05
-6.96388e-05
6.14578e-05
0.0002804
-0.000341778
-9.50876e-05
0.0001468
4.09317e-05
-0.000187712
-0.000328221
8.56147e-05
0.000242783
9.32853e-05
-3.91917e-05
-0.000445064
2.97327e-05
-0.000117281
8.75526e-05
5.37775e-05
0.000191351
-0.000194846
-0.000118441
8.15481e-05
3.68929e-05
-0.000159399
-7.72682e-05
0.000236723
0.000431689
0.000110869
-1.64519e-05
0.000271896
-0.000255274
0.000223741
-5.28582e-06
-0.000218431
-0.000222492
-0.000148408
0.000372152
-7.17015e-05
0.000315928
7.34016e-05
2.27145e-05
-9.61161e-05
-2.83223e-05
-0.000123376
-8.81345e-05
-0.000361811
0.00045312
-8.97801e-05
1.77444e-06
8.80057e-05
0.000103507
-9.90123e-05
-5.95431e-05
-0.000460259
-5.53353e-05
0.000518372
3.09768e-06
-8.6048e-05
-2.77116e-05
0.000113762
-0.000436988
0.000232353
-0.000537762
-5.61103e-05
-0.000568206
0.000215024
0.000355814
-0.000376409
3.57682e-05
0.00034078
-8.65334e-05
0.000150265
4.65744e-05
0.000177188
0.00024605
-0.000236594
-0.000312538
0.000149177
-8.98524e-05
0.000279258
-0.00029153
0.000115148
-0.000455777
-6.87961e-05
-5.98738e-05
6.08966e-05
0.000140439
-0.000116882
-0.000232541
0.000135059
9.75123e-05
0.000156157
7.11955e-05
-4.27323e-05
0.00012091
0.000299696
-0.000238171
-0.000160005
-0.000273091
-2.10613e-05
4.2782e-06
4.06354e-05
-7.95958e-05
0.000109332
-6.73479e-05
-5.10923e-05
-0.000219628
0.000488198
0.000513749
-0.000139662
-0.000365673
0.000265418
-0.000480367
-0.000248575
0.000305537
0.000120603
-0.000254796
-7.14527e-05
-9.09031e-05
-0.000486927
0.000404206
-1.68426e-06
-0.000397049
0.000399008
-9.91039e-06
0.000465191
-0.00044847
-0.000149165
7.99896e-05
-0.00011213
-4.2586e-05
-6.43744e-05
0.00017726
-0.000112877
-0.000221707
0.000128501
9.32161e-05
-0.000147208
-0.000247578
0.000395747
0.000116305
-0.000141146
2.4844e-05
-0.000181102
0.000132636
0.000301816
-0.00020248
-9.9213e-05
-0.000269151
0.00013831
0.000130884
-5.69259e-05
6.32154e-05
3.45976e-05
-9.7813e-05
6.31702e-05
0.000111553
-0.000220457
0.000223482
7.16177e-06
-0.000188803
-7.86179e-05
0.000267532
-0.000151817
8.46628e-05
6.71564e-05
6.37324e-06
0.000109496
0.000400102
-0.000260168
-0.000139625
-0.000489215
0.000460555
8.98738e-05
-0.000224121
0.000134291
0.000211319
0.000299294
-0.000508604
0.00030973
-0.000237079
-7.24275e-05
-9.537e-05
0.000142849
-4.74773e-05
-4.74415e-05
-7.47132e-05
0.000122156
-0.00018674
1.56509e-05
0.00017111
0.000199641
-0.000289358
3.09164e-05
-0.000107757
0.000363819
-0.000477778
0.000114822
0.000349386
-3.29894e-06
0.000469877
-0.000408085
-6.00088e-05
-3.84213e-05
0.000498924
0.000228783
-0.000110947
-0.000117811
-0.000241482
0.000363191
-0.000121259
8.00715e-06
-9.77873e-05
-4.15022e-05
-9.11971e-05
0.000132703
-0.000148876
-0.000331613
-0.000479969
0.000395249
0.0001079
-5.77499e-05
-5.01505e-05
2.52403e-05
-0.000211956
-0.000127467
8.40689e-05
0.000471751
-0.00010708
-0.000183981
0.000226213
-4.21712e-05
-0.000492495
-5.06441e-05
0.000154637
-0.000352381
0.000197884
0.000120269
-0.000388041
-0.000465551
0.000330618
7.80056e-05
2.19071e-05
-9.99127e-05
-7.89311e-05
4.46408e-05
4.00573e-05
5.13124e-05
-9.13693e-05
-5.75145e-05
-5.55534e-05
6.73281e-05
1.00738e-05
-0.000173373
0.000127479
4.59022e-05
0.000117801
-5.66599e-05
-6.11409e-05
0.000224905
8.6514e-05
0.000118548
0.000342767
-0.000167921
0.00012519
0.000507192
-0.000499895
-4.07485e-06
-1.31115e-05
-0.000404084
0.000419068
4.4643e-05
0.000380294
0.00010182
0.000126984
-0.000429356
0.000450125
-2.0034e-05
-4.81069e-05
0.000357721
-0.000115256
-0.000106439
-0.000133173
6.63321e-05
6.68418e-05
-8.0443e-05
-0.000484204
9.96282e-05
-1.79591e-05
0.000202324
4.47184e-05
-0.000246964
-0.000476122
1.88786e-05
-0.000390349
0.000192177
0.000198536
0.000108478
0.000406122
-0.000513396
0.00036975
-6.5942e-05
-0.000262087
0.000133517
7.24261e-05
-0.000205902
-0.000144922
-0.000146569
4.46139e-05
4.87913e-05
0.000190434
0.000145017
0.000132501
0.000279734
-0.000411045
-0.000109012
7.75525e-05
-4.80642e-05
-6.76935e-05
0.000115759
0.000143796
-9.92224e-05
-4.45719e-05
-6.34316e-05
0.000102292
-0.000207601
7.45262e-05
0.000133102
0.000151155
0.000275228
-0.000425671
-0.000373028
-8.03189e-05
-2.40492e-05
-0.000456684
0.00043225
6.85552e-05
0.000220405
-0.00020473
0.000272119
-0.000166129
-0.000105897
-0.000272006
-2.07151e-05
0.000292913
0.000116348
-0.000275684
0.000298305
-0.00015088
6.85849e-05
8.22986e-05
0.000175882
-0.000292735
0.000402119
-9.41117e-05
-0.000218286
5.52504e-05
-0.000110324
-0.000240681
0.000374859
-0.000133703
-0.000138517
9.1077e-05
2.90463e-06
-4.10163e-06
-0.000465766
0.000102528
-6.95733e-05
-3.29542e-05
-0.000204192
0.000277661
-7.33585e-05
0.000329504
-0.000463417
0.000134976
0.000108766
-0.000146758
-0.000101056
0.000179159
-0.000122445
-0.000108221
-0.000108032
9.33462e-05
0.000184947
0.000330163
0.00014865
-0.000398256
0.000250084
6.29271e-05
0.000112448
-6.28898e-05
-0.000328361
0.000242501
8.58932e-05
-0.000111896
-7.21025e-05
0.000184022
-5.8078e-05
0.000189374
-5.20454e-05
-9.88315e-05
-8.90509e-05
5.0084e-05
3.89669e-05
-0.000134538
0.000451708
-1.67108e-05
-5.55305e-05
0.000162462
-0.000106918
2.02236e-05
0.000496657
5.47103e-05
0.000165717
0.000395337
-0.000305536
-8.90853e-05
9.79815e-06
-0.00011783
6.019e-05
-0.000244102
-8.85868e-05
-6.32283e-05
5.05571e-05
-0.000322337
-0.000259208
0.0001605
9.87535e-05
0.000217588
-0.000110362
7.83961e-05
-0.000464827
0.000499088
-3.80817e-06
6.70236e-05
6.47881e-05
0.000406717
-0.000117415
3.87308e-06
0.000113546
0.000195826
-0.000434543
0.00024169
-7.89583e-05
-4.92929e-05
0.000128254
0.00024065
6.92545e-05
1.1831e-05
0.000370451
-0.000378007
0.000636318
-0.000449412
0.00038455
-0.000327691
7.71663e-05
-0.000142922
6.57576e-05
-9.81597e-05
8.5412e-05
1.27477e-05
-0.000104947
5.84528e-05
0.000219665
-0.000299117
7.955e-05
0.000377893
-0.000115462
-0.000261848
-0.000188278
0.000183013
-4.35203e-05
4.41956e-06
4.09726e-05
3.06712e-05
-3.91552e-05
7.97638e-06
6.12885e-05
5.48448e-05
-0.000116133
0.000280229
0.000358507
0.000425616
-0.000422025
-2.84917e-06
0.000212485
-6.56652e-05
-0.000195521
-1.25019e-05
-0.000227109
0.000115241
3.75593e-05
-0.000225809
0.000431145
-4.89e-06
-0.000496578
6.83327e-05
0.000324086
-0.000178237
-0.000145757
0.000207233
-0.000447334
0.000164201
0.000208297
0.000122194
-0.000130224
-0.000393726
0.000177088
0.000216879
-0.000183708
-0.000144611
0.000380379
-0.000128953
-0.000251143
-0.000238565
0.00037236
0.000102236
-3.8347e-06
-9.84012e-05
0.000344586
-0.000476278
0.00013199
-0.000449259
8.05172e-05
0.00036965
1.48879e-05
-0.000104257
8.937e-05
-8.23031e-05
9.58266e-05
-1.35235e-05
-0.000125136
-0.000134028
-1.56471e-05
0.000105242
-8.95931e-05
0.000202108
0.000198276
-0.000428261
-0.000104307
2.20036e-05
-2.32194e-05
-0.000470673
-9.27669e-05
5.17115e-05
4.10554e-05
3.67417e-05
-0.000154153
-0.000357289
0.0004054
-4.44421e-05
5.53719e-06
0.000116657
0.000120109
0.000209031
-0.000119118
-6.44436e-05
7.63035e-05
1.22239e-05
-8.92139e-05
-0.000143295
-0.000124761
8.64783e-05
3.82833e-05
0.000401229
0.000485628
-4.85931e-05
-0.000434581
-8.33991e-05
0.00040872
0.000160069
-0.000381371
0.000392171
3.52149e-05
6.07237e-05
7.19203e-05
-0.000105555
3.06712e-05
-6.91056e-05
-6.40667e-05
-0.000311596
-3.99411e-05
0.000351921
-7.15196e-05
8.63918e-05
-6.14189e-06
-0.00042196
0.000428769
-0.000111361
-5.71273e-05
0.0001685
3.77729e-05
0.000466216
-8.53292e-05
4.24909e-06
-0.000424223
9.44525e-05
0.000330221
-5.37653e-05
0.00017935
-0.000120133
-0.00022612
0.000378016
0.000160582
-0.000319666
0.000159253
-0.000423575
0.000423512
0.000200561
-7.60358e-06
-0.000192937
-0.000113967
-3.51976e-05
0.000466398
-2.28658e-05
-0.000430257
9.82401e-05
1.69939e-05
-0.000115234
-4.1103e-05
-5.74046e-05
9.85077e-05
-9.21693e-05
0.000242748
-0.000150553
-0.000151725
9.62055e-05
-5.94927e-05
9.95505e-05
0.000311093
-0.000182993
-0.000210436
-0.000248986
0.000346482
-9.72212e-05
-6.93276e-05
3.61551e-05
7.10286e-05
-0.000382161
-0.000281501
0.000187243
9.43646e-05
5.76364e-05
-0.000452959
0.000396718
6.68415e-05
-0.000124442
5.76007e-05
-0.000319845
8.05021e-05
0.000239449
5.35047e-06
-0.000117477
-0.000131561
0.000195994
-6.44175e-05
-6.4919e-05
8.15437e-05
-0.000352727
0.000466582
-1.62552e-05
-0.000448865
0.000200568
-0.000267185
6.66644e-05
0.000116739
3.01731e-05
-0.00014691
0.0004018
-8.71448e-05
-5.38764e-05
-0.0001885
0.000478319
-0.000289264
6.48604e-05
5.33035e-05
-0.000231573
0.000393976
-0.000161763
-0.000551498
0.000564975
-1.01009e-05
0.00036362
3.27897e-05
-0.000153167
0.000180206
-1.4231e-05
-4.24843e-05
-5.65986e-05
9.90831e-05
-4.68915e-05
0.000111753
0.000378763
9.40111e-05
-0.000140984
-4.73704e-07
0.000141464
-0.000103205
-0.000161258
0.000264561
8.15962e-05
6.2202e-05
-7.50556e-06
-9.06541e-05
-0.000149616
6.35716e-05
0.000101528
-0.00012935
2.78238e-05
-0.000596441
0.000297006
0.000301434
-7.15939e-05
-5.21675e-05
6.88026e-05
-0.00023788
0.000523907
-0.000105486
-0.000416821
6.63942e-05
0.000217407
9.35141e-05
5.71267e-05
4.5401e-05
0.000396844
-0.000410057
0.000351832
-0.000424707
7.29617e-05
3.47606e-05
-0.000424914
0.0003914
0.00010216
-0.000153336
7.5987e-05
8.6263e-05
1.76503e-05
-0.000103913
0.000187552
1.7399e-05
-0.000204931
9.73017e-05
5.39116e-05
6.38893e-05
-0.000404341
-1.83142e-06
0.000406781
-0.000135577
0.000174506
-0.000233945
0.000177097
5.68985e-05
5.26109e-05
-1.01449e-05
-7.63788e-05
-0.000440486
0.000354696
-0.000193893
0.000361093
4.06634e-05
-0.000400726
0.000169709
-6.59423e-05
-0.000253784
0.000148008
-3.72372e-05
-0.000110764
7.99035e-05
3.04473e-05
-0.000110351
0.000164289
-0.000236361
-0.000219046
0.000418086
-0.000349889
0.000145821
0.000184681
-7.92866e-05
-0.000105381
8.08157e-05
2.83215e-05
-0.000109137
-0.000119257
-0.000162131
-0.000116754
8.36378e-06
0.000108391
0.000276468
-9.63475e-05
-0.000180058
0.000474777
-9.50611e-05
3.45549e-05
-0.000175531
-0.000104227
-3.24042e-06
0.000107468
0.000426306
-0.000260073
-0.000670141
0.000266305
0.000408788
-6.49607e-05
0.000149066
-8.41042e-05
-6.53987e-05
8.04045e-05
6.83214e-06
-0.000149935
-5.35807e-05
8.81783e-05
-4.48836e-05
-4.28464e-05
-1.10782e-05
0.00012782
0.000440852
-0.000455284
-5.85933e-05
-2.62425e-05
8.48359e-05
2.1988e-05
8.28234e-05
-0.000104811
-5.31137e-05
0.00014491
-0.000385961
1.67267e-05
-0.000245059
3.90522e-05
8.62241e-05
-0.000125275
-2.80894e-05
2.80894e-05
-5.99926e-05
-8.84421e-05
0.000148444
-4.53183e-05
-4.74486e-05
0.000139624
-0.000183396
4.37799e-05
-0.000108212
4.32926e-05
0.000197401
-0.000145055
-5.23184e-05
-4.04345e-05
-4.81362e-05
8.85707e-05
-7.08129e-05
0.000204368
-0.000149246
-0.000280226
0.000430319
0.000401356
-4.94308e-05
-4.33732e-05
-4.78492e-05
9.12224e-05
-3.56717e-05
0.000141887
-0.000106213
9.53896e-05
5.83825e-05
-0.000133095
0.000443839
-0.000143795
8.38107e-05
-4.65374e-05
3.20823e-06
5.64649e-05
0.000197483
-0.000198478
7.3516e-05
0.000124991
8.98244e-05
-0.000216385
-0.000410988
5.78924e-05
0.000327025
2.89808e-05
-0.000355805
-0.000138363
-3.50029e-05
0.000102203
-3.96225e-06
5.38592e-05
-9.72324e-05
-9.42535e-05
6.57582e-06
8.76777e-05
0.000217591
8.43304e-05
-0.000249832
0.000120179
-8.6446e-05
0.000144598
0.000372732
-0.000374161
0.000485209
-0.000471721
-1.01911e-05
0.000406688
-0.000474909
7.02147e-05
-0.000436002
0.000193752
0.000242728
0.00012698
0.000190929
-0.00037204
0.000181855
-7.18257e-05
-0.000126621
-0.000552598
0.000465286
9.29513e-05
-1.27072e-05
3.40211e-05
0.000492855
-8.82959e-05
-0.000395237
5.33841e-05
5.63531e-05
-0.000109737
-0.000433194
2.16933e-05
-3.1346e-05
3.71179e-05
-3.04414e-06
-0.000166478
-6.741e-05
0.000278925
-0.000189386
-8.94634e-05
0.000147315
0.000328946
8.0027e-07
7.72054e-05
-0.000181743
0.000394742
-0.000455475
0.000433065
2.46179e-05
0.000229353
-9.22383e-05
-0.000137072
0.000289643
-0.000126139
-0.000163468
0.000103687
-5.1333e-06
-0.000353406
0.000359189
-0.000120844
4.0917e-06
0.000150359
-7.52318e-05
-0.000147258
0.000222599
3.23679e-05
-0.000136593
0.000154626
-0.000229747
-0.000131463
-3.64557e-05
-0.000349764
0.000179968
0.000114837
-6.35799e-05
-5.12569e-05
5.40375e-06
8.08593e-05
-0.000399986
-0.000113536
5.4687e-05
-6.02632e-05
0.000140554
-8.02878e-05
-0.000368059
0.00037618
6.59874e-06
-0.000103201
6.309e-05
4.01109e-05
0.000472774
-0.000455024
-1.57761e-05
0.000461594
-8.58867e-05
-0.000367109
0.000181547
-0.000288954
0.000107517
7.66345e-05
-0.000443906
-0.000111249
-5.90499e-05
0.000170313
-2.26492e-05
0.000103465
-0.000480134
6.29579e-05
5.18794e-05
-0.000267267
-0.000327154
-0.0002948
5.34726e-05
-0.000143023
0.000107354
0.000443009
-4.84923e-05
-0.0003812
-0.000106748
6.66811e-05
4.00667e-05
0.000311013
9.29821e-05
-0.000403551
-0.000460716
7.00636e-05
0.000392205
-4.57549e-05
0.00049751
-0.000449747
0.000505133
-9.68387e-05
-6.40602e-06
0.000165153
-0.00015874
0.000138802
5.28178e-05
-9.38905e-05
7.93325e-06
8.59572e-05
-2.72296e-05
0.000191547
4.23444e-05
8.00823e-05
5.00731e-05
0.000197134
-0.000247153
0.000471324
0.000152602
1.58925e-05
-0.000168487
-9.49347e-07
-9.33042e-05
0.000128739
-2.72091e-05
-0.000192985
0.000108552
-0.000172309
0.000107943
0.000154846
7.0375e-05
-0.000225164
0.000312938
2.65129e-05
-0.000339205
-0.0001518
0.0001454
-0.000472412
0.000267253
0.000205786
-6.60921e-05
0.00012016
-0.000102639
0.000109518
4.74923e-06
4.324e-05
-0.000101833
0.00039136
-2.02223e-06
-6.26488e-05
-0.000130329
0.000141187
0.000182987
-0.000435256
0.000101871
0.000334415
-4.85766e-05
-8.71677e-05
0.000512752
-0.000467944
-3.92009e-05
-0.000145968
5.73834e-05
-5.00886e-05
0.000361486
0.000361059
9.77965e-05
0.00017441
0.00014002
8.04366e-05
-0.000220431
0.000128852
3.63065e-05
0.000122922
-0.0001068
-7.55627e-06
0.000114358
9.57379e-05
-3.82987e-05
-5.74392e-05
-0.000183005
-0.000164079
3.76637e-05
-9.12444e-05
0.000563141
-0.000331356
-0.000230536
-0.000109758
-2.98963e-06
0.00011275
0.000140172
5.72552e-05
0.0003622
-0.000132614
0.000398198
3.34248e-05
-0.000197234
0.000180903
-0.000381534
-0.000233305
-6.76169e-05
-0.000391248
0.000134938
-0.00032952
0.000194809
3.3062e-05
-0.000142817
-0.00013045
9.32188e-05
-0.000140076
7.51166e-05
0.000209894
-0.000136848
-7.30185e-05
-8.52034e-06
0.000247673
-0.000234247
0.000103552
-0.000209233
0.000105729
-0.000125716
7.81616e-05
0.000116541
-0.000502721
0.000391345
-0.000124383
0.000197929
-0.00045232
0.000341249
0.000111608
-8.48999e-05
7.21699e-06
7.76831e-05
0.000382341
-5.89544e-05
-0.000323197
9.05447e-05
-1.95982e-05
-7.09463e-05
-8.71162e-05
-3.00645e-06
3.33577e-05
0.000107084
-3.1181e-05
8.11503e-07
-0.000244116
0.000195927
4.82269e-05
0.000231665
0.000293501
-0.000186278
-0.000249204
0.000371713
-0.000179065
-0.000192365
0.000432995
-4.35392e-05
-0.000409273
0.000160728
0.000331366
-0.000478729
0.000121143
-4.39755e-05
-6.07818e-05
-2.69481e-05
0.000141663
0.000174522
-0.000316005
-4.03096e-05
-6.64377e-05
0.000406496
6.8958e-05
-0.000279751
0.000113721
8.98879e-05
-0.000338016
5.18847e-05
-0.000146152
9.42717e-05
6.08831e-05
-9.1735e-05
-0.000130785
0.000272606
-0.000400972
0.000441905
-3.21813e-05
-0.000103189
0.000108544
-0.000430599
0.000439449
-3.21746e-05
-0.000348844
0.000259242
8.98644e-05
7.33065e-05
3.45939e-05
8.08292e-05
-0.000125724
4.48955e-05
9.54433e-05
4.9599e-05
-0.00014504
9.70095e-05
-0.000124718
0.000127917
1.08871e-05
1.70244e-05
-0.000393321
0.000300777
0.000222595
-0.000521394
5.87199e-05
-0.000124811
0.000381938
-0.000141293
0.000103761
3.75349e-05
0.000350983
-0.00023586
-0.000114855
5.90448e-06
-0.000270476
0.000264799
0.000122121
-6.67814e-05
-5.53392e-05
6.16439e-05
5.54075e-05
-0.000117051
-0.000383638
-1.49514e-06
-9.23953e-05
0.000193063
0.000187557
-0.000141258
-3.45442e-05
0.000175834
0.000176897
-9.08591e-05
8.13644e-05
-5.73795e-05
8.29167e-05
-0.000135155
5.22408e-05
2.35925e-07
-6.63252e-05
8.28188e-05
-7.09884e-05
0.000180658
-8.01688e-05
7.15559e-05
-0.000117019
4.54635e-05
0.000406847
9.81869e-05
-0.000492509
0.000425799
0.000102304
9.30164e-05
-0.000473444
0.0003816
-7.76504e-05
-3.79982e-05
0.00011565
0.000160769
-0.000118865
-4.18951e-05
0.00022722
4.27005e-05
6.46351e-05
-0.000107335
0.000279346
-7.69418e-05
-3.69146e-05
-0.000161125
-8.33614e-05
-0.000368401
-0.000103499
0.000365681
-0.00025292
0.000364339
-0.000292801
-4.99041e-05
-0.000407281
0.000484708
-6.60077e-05
-4.75688e-05
-4.14821e-05
8.6771e-05
7.81932e-05
9.20293e-05
-0.000170214
-1.51121e-05
0.000413802
3.99046e-05
-0.000431827
0.000188973
0.000476774
-0.000412164
-6.21808e-05
0.000275287
-9.36352e-05
0.000295408
-0.00034331
0.000110478
0.000120801
-5.44877e-05
-6.63131e-05
-0.000208093
0.0001363
-0.000174761
4.01298e-05
0.000134637
-6.41934e-05
0.000142394
0.000439664
4.83096e-05
6.37059e-06
-0.000158164
-0.000183128
0.000485732
3.42871e-05
-0.000161564
0.000101304
-4.78414e-05
0.000106499
-5.86573e-05
0.000132167
-4.5015e-05
-8.71512e-05
0.000369984
-8.02361e-06
-0.000174906
0.000310063
7.86833e-05
-0.000112812
3.41294e-05
5.14638e-05
5.18572e-05
-0.000103321
6.46072e-05
0.000101083
0.00011562
-0.000216695
8.46412e-05
0.000100051
-6.14666e-05
-4.28401e-05
-0.000191768
7.29939e-06
4.91142e-05
-0.000135554
4.0509e-05
7.38706e-05
-0.000119403
0.000174134
5.31009e-07
-4.83774e-05
0.00020443
-0.000270263
5.51207e-05
4.24147e-05
-9.75354e-05
7.63514e-05
2.58847e-05
-0.000114525
-5.25746e-05
0.000167112
5.44644e-06
-0.000442102
0.000437348
0.000391922
-0.000230136
-0.000161313
8.59412e-05
0.000190381
-0.000276288
4.06207e-05
-8.25466e-05
-0.000351977
-8.21481e-05
-9.63627e-05
0.000144308
-4.7942e-05
0.000492535
-2.32386e-05
-0.000465747
0.000356319
0.000139827
2.4499e-05
-0.000164318
-0.000444418
-5.32375e-05
3.08357e-05
0.000424702
-0.000452469
0.0003754
2.03758e-05
-0.000123073
0.000310214
0.00036411
-8.5706e-05
-0.000268703
-0.000265194
-0.000206525
0.00043749
1.80665e-05
-0.000124865
-0.00010553
-4.08023e-05
0.000146341
-4.63587e-05
-6.99086e-05
-3.07957e-05
0.000235053
-0.000130151
-0.00010488
-4.11059e-05
0.000436315
-0.000394698
0.000141521
-0.00016472
6.18246e-05
0.000222281
-0.000268169
4.59555e-05
5.84351e-05
0.000437312
0.000238612
-0.00038493
0.00013217
-5.47278e-05
-2.24077e-05
0.000136945
-0.000114522
0.000236044
0.000110664
6.28312e-05
-0.000102085
3.92539e-05
0.000100099
-0.000219477
0.00020218
-0.000419371
1.56562e-05
1.04264e-05
-8.19172e-05
4.77504e-05
0.000175766
-0.000229815
5.4077e-05
1.87197e-05
-0.000377818
0.000369361
-4.00431e-05
0.000116992
-7.69459e-05
-0.00023057
0.000217282
1.78586e-05
-0.000217705
-7.6963e-05
-0.000240606
-0.000171158
0.00041656
0.000133848
1.56139e-05
-0.00014946
5.42931e-05
-0.000408733
3.53945e-05
0.000381559
0.000388121
-0.000379775
0.000111897
2.56843e-05
-0.000137579
-2.13695e-05
0.000489255
-0.00012514
7.54819e-05
4.96587e-05
6.15653e-05
-9.87268e-05
3.71615e-05
8.61192e-05
0.000160467
-0.000246528
0.000392707
0.000227193
-0.000331726
0.000105198
-0.000473306
0.000237965
-7.21761e-05
-4.31665e-06
4.3865e-05
6.47148e-05
-0.000134842
0.000108468
0.000136702
0.000286292
-0.000422211
-4.80887e-05
-5.51122e-05
-3.07284e-06
-3.47985e-05
-0.000383003
0.000427607
9.18355e-05
3.51994e-05
0.000511221
-0.00048924
-1.83873e-05
-5.93622e-05
-6.61301e-05
0.000398635
-9.32568e-06
-0.000375604
-0.000307886
0.000182031
0.000125926
6.28637e-05
0.000526673
-9.11904e-05
-0.000433892
-0.00021358
-0.000217992
0.000433919
-0.000223895
-1.10979e-06
0.000102879
-4.31455e-05
-0.000129476
0.000459986
-0.000257929
0.000264079
0.000185989
-0.000115292
-7.0694e-05
-5.23173e-05
0.000256857
4.6487e-05
0.000348715
-0.000388176
9.59374e-05
0.000133458
-0.000270401
8.14983e-05
0.000174782
9.36884e-06
7.34816e-05
0.000269514
7.35839e-06
0.000214979
-8.36064e-05
6.40084e-05
0.000177339
-0.000206087
2.87801e-05
0.000476203
-0.000419529
-5.53343e-05
0.000165426