/*--------------------------------*- C++ -*----------------------------------*\
| =========                 |                                                 |
| \\      /  F ield         | OpenFOAM: The Open Source CFD Toolbox           |
|  \\    /   O peration     | Version:  v2012                                 |
|   \\  /    A nd           | Website:  www.openfoam.com                      |
|    \\/     M anipulation  |                                                 |
\*---------------------------------------------------------------------------*/
FoamFile
{
    version     2.0;
    format      ascii;
    class       volVectorField;
    location    "800";
    object      ddtCorrDdt0(U);
}
// * * * * * * * * * * * * * * * * * * * * * * * * * * * * * * * * * * * * * //

dimensions      [0 1 -2 0 0 0 0];


internalField   nonuniform List<vector> 
18758
(
(-0.00898354 -0.000373765 1.03204e-17)
(0.0105358 0.00256211 -1.11362e-17)
(4.08064e-05 -9.3609e-06 -2.29626e-20)
(-0.0853835 0.0160116 -1.07784e-17)
(-0.00766547 0.0222024 -5.69679e-18)
(-0.0250898 0.00152664 2.57026e-17)
(0.00782361 0.000380857 -2.15126e-16)
(-8.96524e-05 -0.000175289 5.46519e-19)
(-0.00760226 0.0181332 1.67902e-17)
(-0.00247876 -0.000318913 2.33719e-20)
(-0.00100012 -0.0011949 1.91235e-18)
(-0.014689 0.000786896 -5.75019e-17)
(-0.000121278 2.64259e-07 2.11605e-19)
(-0.0157728 -0.0477366 2.0416e-19)
(0.00181026 -0.000832361 -8.65594e-19)
(-0.00482665 0.00998531 -2.50055e-17)
(-0.00305775 -0.00535861 2.94188e-17)
(-0.000146338 -4.7467e-05 7.70654e-19)
(0.00036264 -0.000401848 1.8836e-18)
(-0.00299425 -0.000427768 -6.51083e-19)
(0.0342022 0.0020775 4.52976e-18)
(-7.95111e-06 0.000115856 -2.90271e-19)
(0.00170099 -0.00237244 -3.48995e-17)
(-0.0295648 0.0306483 -7.48751e-18)
(0.00577566 -0.0199161 2.48797e-17)
(-9.35869e-05 -0.000160047 -4.9691e-19)
(-0.00882124 0.0111803 -6.81834e-19)
(-0.0176973 0.0211809 -7.3509e-18)
(-0.0474112 -0.00581699 -2.02929e-17)
(-0.0155807 0.00905713 1.53193e-17)
(-0.00682025 -0.0162135 5.72666e-18)
(0.044233 0.000407417 8.43799e-18)
(-5.12669e-05 1.69763e-05 -4.9341e-18)
(9.53192e-05 -0.00106022 -1.95559e-18)
(-0.0238231 -0.0127552 -2.22126e-18)
(-5.85222e-05 0.000689657 8.66966e-18)
(-2.03744e-05 2.628e-05 -3.2649e-18)
(-0.000314128 -0.000754489 -1.84904e-19)
(-0.000405426 -0.00087487 -6.51969e-18)
(-0.00382073 -0.00455709 -8.21017e-18)
(-0.00026562 -0.000725911 -1.09445e-18)
(-0.00167 0.00129921 -4.36725e-18)
(4.97705e-05 -0.000178551 -5.86506e-19)
(-0.00202984 0.00053056 8.58949e-18)
(-0.016115 0.000840302 -1.5945e-17)
(2.44955e-05 -4.78758e-05 2.79266e-19)
(0.00268495 -0.00262111 2.28719e-17)
(-0.00132698 -0.00109281 4.48617e-19)
(-0.00241544 -0.000279491 9.75745e-19)
(8.09089e-05 -8.71834e-05 3.63849e-19)
(-0.00142887 -0.00709976 -6.59651e-17)
(0.0138452 0.0110752 5.43173e-18)
(5.04703e-05 -9.4499e-07 -2.17139e-21)
(-0.000950058 -0.00117214 3.9041e-18)
(-0.0225428 0.0196986 -9.47512e-19)
(-0.0467112 -0.00525256 8.25056e-18)
(-2.69471e-05 2.95054e-05 1.45333e-18)
(-0.00283136 0.0090432 5.70695e-17)
(-0.000521175 0.000716005 -9.23634e-19)
(-0.0204722 -0.048134 1.44104e-17)
(-0.00780908 -0.00180003 2.63112e-17)
(0.00707319 0.000513911 2.04649e-16)
(-0.0057573 0.00618004 -1.27688e-17)
(-0.00101445 0.000814861 -4.23801e-18)
(5.15725e-05 -6.3976e-06 9.16603e-21)
(-0.000117016 -3.43179e-05 4.07551e-18)
(-0.00396537 -0.00542615 7.11209e-18)
(-5.79756e-05 2.07915e-05 5.92048e-18)
(-0.000260548 -0.00068707 -9.21937e-19)
(0.0149443 0.0101469 -1.31407e-18)
(0.0141552 0.0128514 5.17144e-18)
(-0.000615852 0.00107913 1.2342e-18)
(7.74466e-05 -0.000102341 -6.66381e-20)
(0.00716987 0.0272126 -2.25521e-17)
(-5.64349e-05 -0.000319421 -3.25213e-21)
(-0.00053412 0.000656589 -7.14269e-18)
(-0.0274091 0.0109808 -1.53428e-17)
(-0.00412978 0.0213963 -2.34968e-18)
(-0.00648791 0.00422059 -1.856e-18)
(0.00467276 0.000796241 -3.00346e-17)
(-0.0144533 -0.0129821 -2.80819e-17)
(-0.0199779 0.00057304 1.58702e-17)
(-0.0223941 -0.0465548 -5.13284e-18)
(-0.0274623 0.00664968 -4.06362e-17)
(-0.0288434 0.0103051 1.13076e-17)
(-0.00158034 -0.00201458 -2.11688e-17)
(-0.0144549 0.00345792 1.06359e-17)
(-0.00522897 0.00585967 8.75204e-18)
(0.00459897 0.000411455 8.80263e-17)
(-0.000539695 0.000640088 3.84231e-18)
(-0.0342295 0.00576906 -3.63224e-17)
(-0.000481788 0.000711094 8.60168e-19)
(-0.00367443 0.0023666 2.1966e-19)
(-0.00173279 0.00135443 9.42993e-18)
(-0.0146656 -0.0121466 -7.777e-18)
(-0.00193752 0.00204373 -1.34095e-17)
(-0.0292316 0.00893602 4.88289e-18)
(-5.73324e-05 -0.000327542 1.69773e-20)
(-0.00037358 0.000390029 -3.83604e-18)
(0.0339637 0.00262251 1.8125e-18)
(-0.00308226 -0.000622383 -3.55198e-18)
(-0.0425139 0.00587305 -1.46523e-17)
(-0.0123322 -0.00329475 1.16007e-17)
(-0.00295885 -0.00245429 3.94578e-18)
(0.046099 0.000218151 -3.13462e-18)
(-0.0149133 0.00734366 -3.30381e-18)
(0.0307304 0.00824671 2.62798e-18)
(-0.00143205 0.0221946 3.95134e-18)
(-0.000753398 -0.00099735 -4.60187e-19)
(-0.000284971 0.00126216 -3.31492e-18)
(-0.00390165 0.00230484 2.13334e-17)
(-0.00713512 0.00525016 3.4874e-17)
(-0.000132327 -8.99735e-05 -2.9766e-19)
(-0.000807577 -0.000174043 3.33e-18)
(0.00861438 0.0270967 -1.96234e-17)
(-0.0555183 -0.00202711 -5.58207e-17)
(-0.0629412 0.000831315 -1.00393e-17)
(0.00188447 -0.000764453 -2.63777e-19)
(-0.00172295 0.000382607 6.47899e-18)
(-0.016323 -0.0130778 2.2423e-17)
(-0.00188635 -0.0016188 1.82749e-17)
(-0.000229991 0.000655666 -2.71638e-18)
(-0.055268 -0.0119761 1.74982e-16)
(-0.00615627 0.0114163 -2.31571e-17)
(-0.0140002 -0.000598902 1.07425e-17)
(-0.0179623 -0.000172885 1.01849e-17)
(0.0194507 0.00163118 8.22999e-18)
(-0.00679713 0.0288427 6.98529e-17)
(-0.00211737 0.00216077 -4.67459e-17)
(-0.000118642 -6.65371e-06 2.13559e-19)
(-0.00334828 -0.00546076 -3.00607e-17)
(-0.00919943 0.0106944 6.93435e-18)
(0.0365754 0.000601382 6.78219e-18)
(-0.00458909 0.0024322 -2.91677e-18)
(-0.00166451 0.0131687 3.36164e-17)
(-0.00147309 0.000645878 1.01849e-18)
(-0.0259615 0.0106636 1.78532e-17)
(-0.00417064 -0.00456339 -2.10903e-19)
(-0.000375703 0.000378699 -1.66838e-18)
(-0.00437466 0.00529551 2.91559e-17)
(-0.00623275 0.00442197 -2.33164e-18)
(-0.0094893 0.00563809 -1.52602e-19)
(-0.000731024 0.000130858 1.66255e-18)
(-0.0570108 -0.00312424 1.12123e-17)
(-0.000259456 -0.000720832 2.42974e-18)
(0.000507642 -0.00045212 -9.3786e-19)
(-0.00206511 0.00432818 -8.90302e-18)
(0.0462019 0.010201 3.31259e-18)
(-0.00590155 -0.0165161 -1.43711e-17)
(0.0342746 0.0306421 4.53979e-18)
(-0.0177112 -0.00174499 -5.7644e-17)
(-0.0203295 0.00267038 2.36653e-17)
(-0.00160189 -0.00188798 3.02815e-17)
(3.79046e-06 9.875e-05 1.79261e-18)
(-0.00530695 -0.0100629 8.22272e-18)
(-0.00155631 -0.00145473 -5.44704e-18)
(0.000956163 0.000741911 1.41786e-17)
(-0.00137375 -0.00107985 -6.54817e-19)
(-0.000853118 0.000481983 -9.0354e-19)
(-1.1949e-06 4.50273e-05 -4.38741e-19)
(-0.000286941 -2.39448e-05 3.39307e-18)
(-0.0244941 -0.0430215 5.02624e-19)
(-0.00283248 0.00273428 -1.52047e-16)
(-0.000851344 0.000455956 1.76281e-18)
(-0.00757964 -0.00187675 -2.8191e-17)
(-0.0445186 -0.00676534 2.24124e-17)
(0.000296993 -0.000471992 3.3676e-18)
(-0.0485801 -0.00737428 6.45151e-17)
(-0.00925026 -0.00665763 -1.0597e-17)
(-0.0181263 0.00696688 1.50559e-17)
(-0.0358742 -0.00915892 -2.89839e-17)
(-0.000148664 -4.92117e-05 7.90318e-19)
(-0.00364922 0.00245398 2.44314e-17)
(-0.0152817 0.0215119 3.14215e-17)
(-0.025059 -0.0413492 -1.51679e-17)
(-0.0314835 0.0286435 2.74574e-18)
(-0.0255325 0.0043913 -2.19482e-17)
(-0.00104736 0.000813076 4.10395e-18)
(-0.00428096 0.00525615 -2.6782e-17)
(-0.00061329 -0.00083813 -5.75534e-19)
(-0.000139605 8.05455e-07 3.47111e-19)
(-0.0405356 -0.000260864 5.40477e-17)
(-0.0415661 0.00492397 -1.91414e-17)
(0.000150602 -0.000106146 -2.5056e-19)
(0.000598894 -0.00252535 -3.18544e-18)
(-0.0552696 0.0079749 -7.54879e-18)
(-0.000411381 0.000533467 -2.5041e-18)
(-0.0543556 -0.00288796 2.93892e-17)
(5.13082e-05 -0.00014354 -3.70978e-19)
(-0.000373228 0.000511499 -1.49994e-19)
(-0.00482902 0.00238571 -1.45505e-17)
(-0.00555175 0.0275154 -4.26171e-17)
(-0.00110024 -0.00037539 -3.463e-18)
(-0.00525669 -0.0157633 -5.40357e-18)
(-0.00345287 0.000896187 1.02054e-17)
(-0.00449472 0.00633737 -6.15976e-18)
(-0.00302131 -0.000451897 -1.21122e-18)
(-0.009338 -0.00724847 1.34715e-17)
(-9.79477e-05 0.000215142 -2.96008e-18)
(5.22622e-05 -0.000166928 3.18664e-19)
(-0.00318228 0.00555826 2.13111e-17)
(-0.00136477 -0.0010519 4.56438e-18)
(-0.00320837 -0.00136553 -5.42604e-18)
(-0.00347086 0.00256235 4.37472e-19)
(-0.000115473 -4.05443e-07 -2.52874e-19)
(-0.00334421 0.000836546 -8.29771e-18)
(-0.0120492 -0.00128132 -1.869e-18)
(3.86397e-06 7.34098e-05 -1.54695e-18)
(0.0383196 0.00181335 2.74864e-18)
(-0.00242692 -0.000194191 -1.29193e-18)
(-0.000149611 -2.20725e-05 1.40959e-18)
(-0.0029636 -0.00253756 -5.51988e-18)
(-0.000890587 0.000364756 5.6241e-18)
(-0.00296331 -0.00150908 -5.97014e-18)
(-0.00538881 0.00443993 6.81996e-18)
(-0.0106584 -0.00914647 2.31075e-17)
(-0.0055796 0.00465909 -4.01644e-18)
(-0.00356612 0.00962242 -7.86869e-18)
(1.04612e-05 -0.00016372 1.22285e-19)
(-0.024006 0.000907437 6.96267e-18)
(-0.000149159 -1.38601e-05 -1.52465e-18)
(-0.000798217 -0.000995299 -1.84604e-19)
(-0.0318571 0.000635889 -1.62888e-18)
(-0.00188226 0.00546159 8.99725e-18)
(-0.00290951 -0.0114468 1.56565e-17)
(-0.0118938 -0.00199731 -8.89003e-18)
(-0.00125526 -0.00128865 2.52889e-17)
(-0.00491067 0.00116558 2.16111e-18)
(0.000184219 -6.39468e-05 3.39347e-19)
(-0.00269327 0.00254529 5.25305e-18)
(-0.000118843 -3.01232e-05 -2.06046e-18)
(-0.00394585 0.00592502 -5.55713e-18)
(0.00215294 -0.0034799 -1.1678e-16)
(-0.031352 0.00815579 -5.97244e-18)
(-0.000128339 3.03818e-06 -1.12593e-19)
(-0.000393578 0.000520002 -3.85133e-19)
(0.000179481 -6.32893e-05 -5.51609e-19)
(5.99823e-06 -6.68094e-05 -1.64899e-19)
(-0.05717 -0.0114371 -1.31367e-16)
(-0.00239182 -0.00173583 -5.89059e-19)
(-0.000278397 0.000120473 4.02627e-18)
(-0.0122798 -0.0119135 1.22793e-17)
(0.0297285 0.00769437 -1.01025e-17)
(-0.000415727 -0.00116648 -4.99462e-19)
(0.0346374 0.0320011 -1.40332e-17)
(0.00701882 0.000922121 -3.2043e-17)
(-0.0317077 0.00689319 3.56319e-18)
(-5.18698e-05 0.000686795 -2.69329e-18)
(-0.0157089 -0.0142244 5.34701e-18)
(-0.00147627 0.00209278 2.21826e-17)
(-9.02422e-05 0.000670064 2.093e-18)
(-0.0466078 -0.00785688 1.2613e-17)
(-0.00161827 -0.00206457 9.75465e-18)
(-0.00166829 0.00216402 -5.44116e-19)
(0.00119223 -0.000687751 5.18007e-18)
(-0.00185907 -0.00160162 -3.5652e-17)
(-0.0357517 0.0202905 1.52713e-17)
(-0.00340338 0.00986703 6.25719e-17)
(-0.00291963 -0.00146229 2.58477e-18)
(-0.00672326 0.00362108 8.01879e-18)
(0.000391154 -0.000160248 -2.82821e-18)
(-0.00911186 -0.00272104 -2.79263e-17)
(-0.000205017 -7.0735e-05 -4.10846e-18)
(-0.00385992 0.00232084 1.31419e-18)
(-0.00234919 -0.000171229 5.28116e-19)
(-0.0325925 -0.000327599 1.45524e-17)
(-0.0101595 -0.00273658 6.00008e-18)
(1.36963e-05 -0.000158814 5.18378e-20)
(-0.00067721 -0.000974395 -3.21066e-19)
(-0.0116908 0.00489819 3.99811e-17)
(-0.000645833 -0.000955446 1.24486e-18)
(0.000594236 -0.00241476 9.52047e-18)
(-0.00302716 0.0023052 1.4666e-18)
(-0.0513348 -0.0145827 6.38958e-17)
(-0.0632062 0.000479839 2.70976e-17)
(-0.000696584 0.000248337 8.21095e-19)
(-0.000853287 -0.00610379 3.34518e-17)
(0.0625333 0.0526406 1.4154e-17)
(-0.0160904 0.00367704 2.39597e-17)
(-0.00121052 -0.000322082 -1.48657e-18)
(0.000120926 -0.000261599 1.63922e-19)
(-0.00192939 -0.00140979 6.14639e-18)
(-0.00234417 -0.0017342 -5.5964e-18)
(-0.000712034 0.000168682 -5.52263e-19)
(0.0356908 0.078673 -2.55122e-17)
(-0.0111925 -0.0100401 4.81413e-17)
(-0.0932746 -0.053941 2.36959e-17)
(0.0329261 0.000386446 -2.13865e-17)
(0.00105349 -0.00318811 1.2336e-16)
(0.000131674 -7.79313e-05 -4.24341e-19)
(4.2518e-05 -1.0878e-05 4.09817e-20)
(-0.00536526 0.00122903 1.71428e-19)
(-0.0179302 -0.00943905 -2.09592e-17)
(-0.00093527 0.00165861 2.00256e-18)
(-0.00644042 0.00385196 -2.01669e-17)
(0.000415978 0.00336487 -8.1559e-19)
(-0.00203166 -0.00134696 -3.84514e-18)
(-0.0125234 -0.0130958 -3.03744e-17)
(0.000334446 -0.00037224 -8.43742e-20)
(-0.0623431 -0.0652919 -1.12054e-17)
(-0.0248517 0.00576669 3.35059e-17)
(1.86913e-05 -5.31489e-05 -7.64651e-20)
(0.0154325 -0.00249729 -2.74073e-18)
(-0.00376406 0.0013181 -7.03606e-18)
(-0.000272343 -0.000700783 1.1445e-18)
(-0.00275632 -0.00127443 2.28457e-20)
(0.000525911 -0.000960583 1.59804e-17)
(0.0010498 -0.00108228 -2.18163e-18)
(-6.92155e-05 0.000687512 -1.43789e-18)
(0.00750404 -0.000290121 3.36763e-17)
(-0.0958154 -0.059509 -1.6757e-17)
(-0.000265777 0.00014468 6.6958e-19)
(0.00873192 4.13222e-05 -1.53226e-18)
(-0.0142535 -0.0130547 -1.79745e-17)
(-0.00256167 -0.0108419 9.77414e-18)
(-0.000188749 -9.43204e-05 1.9666e-18)
(-8.27474e-05 9.17717e-07 -5.75162e-19)
(-0.0206202 -0.0345272 -3.75827e-18)
(-0.000429635 -0.00113788 6.59375e-18)
(0.000141275 -0.000100437 1.18204e-19)
(7.83536e-05 -0.000329004 3.87443e-20)
(-0.000323167 0.00140537 3.16581e-18)
(-0.00963543 -0.00625173 -9.33682e-17)
(0.000744262 -0.00112333 -2.3033e-17)
(-0.0019423 -0.00140092 -2.89339e-18)
(-0.00240037 -0.00167141 -6.61029e-20)
(-0.0030162 -0.000299774 8.17649e-19)
(-0.00491052 0.00208499 -6.4883e-19)
(0.000368707 -0.000153938 4.81869e-19)
(-1.38706e-06 9.73079e-05 3.02312e-18)
(-0.00896068 0.0291728 7.02684e-18)
(-0.00547259 -0.00111658 -2.21031e-17)
(-0.00069867 -0.00641771 -2.47071e-17)
(-0.0950828 0.0164612 9.2568e-18)
(-0.000974045 0.0017075 4.0051e-18)
(-0.00106741 -0.000388171 -4.38798e-19)
(-0.000120846 -1.51108e-06 -8.10073e-19)
(-0.0654064 -0.0665937 2.75124e-17)
(0.0107642 -0.00308295 3.96176e-18)
(0.000178782 -6.56321e-05 2.39995e-19)
(-0.000152844 5.79227e-06 5.33695e-20)
(0.00016482 -6.80965e-05 1.04206e-19)
(-0.00139919 0.000665263 -8.36913e-20)
(-0.00469729 0.00115076 1.3012e-18)
(0.00630871 -0.0181367 -2.72817e-17)
(-0.000248939 0.000618935 -6.18564e-19)
(-0.000275072 0.00123439 4.21187e-19)
(9.91306e-05 -5.84358e-05 1.19792e-19)
(-0.00510451 0.0106339 8.4319e-18)
(-0.00923172 0.0053385 -2.88238e-18)
(0.00475893 0.00489068 -8.08113e-18)
(-0.00985959 -0.00180707 1.00479e-17)
(0.000445194 -0.0011942 -2.04525e-19)
(-0.00256058 0.026293 4.24199e-17)
(-0.00869191 -0.0001032 -1.79612e-17)
(-0.00203474 -0.00173879 3.52345e-18)
(-0.00180871 0.00232842 -6.26971e-18)
(-0.00979076 0.000882817 1.08155e-16)
(0.0124189 0.00540684 1.58234e-18)
(-0.058654 0.00889935 -1.25162e-17)
(-0.00012957 -1.48253e-05 3.07576e-18)
(-0.0032454 -0.000483109 4.12341e-18)
(-0.0239896 -0.0118088 2.6229e-17)
(-0.0495247 -0.0150583 -7.79371e-17)
(-0.00193214 -0.000497188 -1.35947e-19)
(0.000120781 -9.06388e-05 -4.27275e-19)
(-0.00209774 -0.000394675 -1.16286e-17)
(0.000136415 -0.00050473 9.89019e-20)
(-0.00152144 -0.00244193 1.19408e-17)
(-0.023201 0.00194809 -1.54776e-17)
(-0.115044 0.0459011 1.9055e-17)
(-0.017406 -0.0258983 1.13748e-17)
(-0.00292324 -0.000273938 4.51547e-19)
(-0.0100248 -0.00339469 5.0155e-17)
(-0.000560267 0.00082317 -5.66019e-18)
(-0.00141456 -0.00103789 -4.82313e-18)
(-0.000541161 0.000382465 -1.05935e-18)
(-0.000457977 -0.000895818 5.92228e-18)
(-0.019241 -0.0133414 -4.72256e-18)
(-0.00106762 -0.00126101 3.78214e-18)
(0.00816404 0.000210927 1.66113e-17)
(-0.00877993 0.00638632 -1.63604e-18)
(0.00114418 -0.000635809 -1.5999e-18)
(-0.000254871 0.000112052 1.79495e-18)
(-0.0620585 -0.000407735 1.76553e-17)
(-0.0169393 -0.0246658 -7.30064e-18)
(-0.00880123 0.0178692 -2.273e-17)
(-0.000528957 0.000835527 5.23068e-18)
(-0.00356532 -0.0122699 4.78048e-18)
(0.000108722 -0.000252732 -8.92452e-20)
(-0.0015072 0.00130087 -8.03016e-18)
(-0.000237367 0.000664482 4.01975e-18)
(1.38456e-06 -0.000170818 -3.25438e-20)
(-0.0522195 0.00295419 2.41884e-17)
(0.0387911 0.00199261 -4.60054e-18)
(-0.0142256 0.0114025 2.33583e-17)
(-0.0113429 0.0035849 3.81345e-17)
(-8.12908e-05 1.30073e-06 2.25938e-19)
(-0.020659 0.0130051 -3.31266e-17)
(0.0308978 0.00498125 9.65675e-19)
(-0.0018465 -0.00162331 3.61585e-17)
(-0.000133951 -0.000103485 1.41422e-18)
(-0.104955 0.00771317 -9.70458e-18)
(-1.6337e-05 -0.000417747 -1.48506e-18)
(0.00063158 -0.000477576 4.37005e-18)
(-0.000143338 -5.54195e-06 -1.83667e-19)
(-0.0203406 -0.0135384 5.70507e-18)
(-0.000269777 0.000524727 -7.40164e-19)
(-0.00200347 0.000600532 -5.44907e-18)
(-0.0094259 -0.00191435 3.27456e-18)
(-0.0560766 -0.0144556 7.93807e-17)
(9.17576e-05 -0.000312558 2.09096e-18)
(-0.00825562 0.0215044 -8.25826e-19)
(-0.00366342 -0.00200308 -8.64316e-18)
(-0.000202072 -9.02556e-05 -2.25924e-18)
(-0.000241267 -0.00234943 1.16188e-18)
(-0.000557723 0.000724409 -2.2857e-18)
(-0.000151721 9.64184e-06 -7.83959e-19)
(-0.00196576 -0.00134754 1.71356e-18)
(-0.00764275 -0.00222725 -2.10956e-18)
(-0.00479771 0.00193391 -2.88924e-18)
(0.000674801 -0.0101161 -7.17757e-18)
(-0.00189894 -0.0016193 6.33726e-18)
(-0.000132206 2.0305e-05 -3.99376e-18)
(-0.0111421 0.00491615 -6.69118e-18)
(0.0237204 0.00726715 -3.27215e-18)
(-0.0702046 -0.0238255 -2.82396e-17)
(-0.0380786 -0.00816413 4.21454e-17)
(-0.0180674 -0.0169934 -3.97805e-18)
(-0.00117681 -0.000234891 1.55711e-20)
(-1.30668e-07 -0.000168133 -2.41061e-20)
(-0.000271985 0.000127729 -2.47245e-18)
(-0.000917663 0.000365671 -6.11222e-18)
(-0.0161742 -0.027658 5.3184e-18)
(-0.00344239 -0.00365317 -5.31319e-18)
(-0.000202267 -0.00528874 4.24945e-18)
(-0.0036316 0.00126568 9.93863e-18)
(-0.00163624 -0.00192939 -1.47846e-17)
(-0.0469755 -0.00797719 1.34555e-17)
(-0.0125791 -0.00259167 -1.51225e-17)
(-0.000517608 0.000721775 9.31213e-18)
(-0.00233479 -0.00162539 1.23502e-17)
(0.00344226 8.19476e-05 1.73185e-17)
(-0.00123731 0.000276844 1.21556e-18)
(-0.124644 0.0375878 -4.79971e-18)
(-8.6147e-05 3.1276e-06 8.84e-20)
(-2.57966e-05 0.000319909 5.63578e-18)
(0.0338403 0.0305367 -7.25233e-18)
(-0.00216305 0.00113539 -1.04512e-17)
(-0.000553506 -0.000951505 -1.5077e-18)
(-0.0367345 0.0185436 -1.23748e-17)
(-0.0242445 -0.0113517 -4.5109e-18)
(-0.00523873 0.00107507 -1.81223e-19)
(-0.0017902 0.00242758 4.68373e-17)
(-0.000528516 0.000652969 4.22706e-18)
(-0.00115462 0.000368741 -8.76396e-18)
(-0.00417649 0.00996247 -1.95909e-17)
(-0.010325 0.000180986 5.42491e-17)
(-0.00228006 0.00290896 3.33611e-17)
(-0.00379015 -0.00392127 -1.11625e-17)
(-0.01525 -0.0503712 3.68916e-18)
(-0.0557331 -0.00849785 2.10878e-17)
(-0.064091 0.000518741 9.60109e-18)
(-0.0177705 -0.0467115 -9.31699e-20)
(-0.000578296 0.00110575 1.27783e-17)
(0.00367062 -0.00226394 2.28433e-18)
(-0.000817671 -0.000150857 -2.94313e-18)
(-0.0166083 -0.0288175 -4.65027e-18)
(-0.00117861 -0.000964069 -1.53992e-18)
(-0.00450685 0.00257986 6.27269e-19)
(-0.00295815 -0.0123533 -7.49304e-18)
(0.00164096 -0.0121058 -2.40802e-17)
(-0.000247832 -0.0051218 -3.57032e-18)
(-0.00820139 -0.0185318 1.1312e-17)
(1.37528e-05 -6.28888e-05 4.75503e-20)
(-0.0277834 0.0307184 -1.572e-17)
(6.83922e-05 -0.000120698 4.60506e-19)
(0.0158153 0.003946 -2.87692e-18)
(-0.000555769 0.000387011 1.71264e-18)
(-0.0128045 0.00044947 -6.01125e-17)
(-0.000197049 5.66043e-05 8.3353e-19)
(-0.0372984 -0.0437195 2.00272e-17)
(-0.00162834 -0.00247997 -4.05823e-18)
(-0.00017404 0.000218906 2.31604e-18)
(-0.000361426 0.000374812 4.40122e-19)
(-0.000142435 -2.58377e-05 -6.71391e-19)
(0.0222205 -0.000358284 -6.03418e-18)
(-0.0124244 0.00433812 5.15062e-18)
(0.00729993 0.027121 1.4715e-17)
(-0.00366766 -0.00609546 1.45021e-17)
(0.000722311 -0.00224473 4.26591e-19)
(0.00068123 -0.000550049 2.54496e-17)
(-2.69214e-06 6.63678e-05 -4.20669e-19)
(-1.02021e-05 6.59422e-05 -5.409e-19)
(0.0132785 0.0128714 1.61524e-18)
(-0.000364683 0.000380803 2.35468e-18)
(-6.07025e-05 0.000146414 -7.2332e-18)
(0.000964406 0.00324566 -5.83463e-18)
(-0.000129281 -2.02171e-05 -4.23965e-18)
(-0.00388306 -0.00370255 5.65936e-18)
(0.000401476 -0.000334838 -2.66893e-17)
(-5.41938e-05 0.000123441 3.92339e-18)
(-0.000283646 0.000542925 3.69398e-18)
(-0.00190269 0.00140036 -1.37651e-17)
(-0.00118461 0.000296498 -4.238e-18)
(-0.00158724 -0.00149273 -1.09552e-17)
(0.0362952 0.0311077 -1.49073e-17)
(0.00507667 -0.00584362 5.65976e-18)
(-0.00234317 0.00277402 8.18389e-18)
(-0.0020644 -0.000966128 -4.94265e-18)
(-0.000127242 5.36119e-05 1.34095e-18)
(-0.00344509 0.0133428 -1.34209e-17)
(-0.000410469 0.00125265 8.76017e-19)
(-0.000843818 -0.000990734 -3.66114e-19)
(-0.0116987 0.0113845 -1.29645e-17)
(-0.0606752 -0.00179707 1.475e-17)
(-0.00731144 -0.0180131 -3.00567e-19)
(-0.00992602 -0.0267171 -1.14024e-17)
(-0.00198692 -0.000486863 -2.55834e-19)
(-0.000801353 -0.000982772 1.59407e-18)
(-0.0601456 -0.00256752 -1.37656e-17)
(0.000315819 -0.000439832 -2.64229e-18)
(-0.0567463 0.00223618 1.59073e-17)
(-0.0122999 0.000457604 4.08405e-17)
(-0.00017887 0.000187772 -1.45053e-18)
(0.0378415 0.0299519 1.77281e-17)
(-0.00352811 0.0277369 -4.4234e-17)
(-0.00222455 -0.000236162 5.48709e-18)
(-9.32948e-05 -7.5623e-06 -2.54215e-19)
(-0.00524002 -0.00113661 -1.92506e-17)
(0.0133089 0.0052597 -7.02984e-18)
(-0.000303326 -0.000747517 -7.8153e-19)
(-0.000230534 -0.000646915 1.74268e-18)
(0.00182387 -0.000931495 2.49475e-20)
(0.000984402 -0.00106214 -7.98886e-19)
(0.000502062 -0.00049033 1.54597e-18)
(-1.13576e-05 -3.47742e-05 2.41158e-19)
(-5.59101e-06 3.2131e-05 8.30248e-19)
(-0.0604908 -0.01429 -3.14227e-17)
(-0.00107513 -0.00152747 1.28078e-18)
(-0.0429253 -0.00533501 5.89637e-17)
(-0.000193444 0.000645301 -9.59048e-18)
(0.00422548 -0.00331829 -2.49784e-17)
(-0.0124482 0.00140106 -1.34975e-17)
(-0.000193746 -5.20788e-05 3.63719e-18)
(4.97613e-05 -0.000175039 2.30169e-19)
(-0.00113721 -0.00146865 -4.64101e-18)
(-0.000116885 0.000169636 -2.40335e-18)
(-0.00124534 -0.000348218 -1.24296e-18)
(-0.000866549 0.00116564 -1.67572e-17)
(-0.000620031 -0.000826164 2.08092e-18)
(-0.00708613 0.00556466 8.41034e-18)
(-0.00567551 0.0105921 -5.27263e-18)
(6.22963e-05 1.53715e-06 1.08885e-19)
(0.0139035 0.00721223 2.25454e-17)
(-0.0256542 0.0175406 -1.58087e-17)
(-0.00201851 0.00293816 -3.69001e-18)
(0.00374146 -0.00181549 -7.9896e-18)
(-0.0118591 0.0106145 7.43012e-18)
(-0.00156796 0.00135128 9.94184e-18)
(0.0049625 -0.00549447 -6.25491e-18)
(-0.00138567 -0.0019115 6.91939e-18)
(0.0131512 0.0136523 -7.71254e-18)
(-0.0010492 -0.00149301 4.75778e-19)
(-0.00212853 -0.00950158 -3.57583e-19)
(-0.000783124 2.09933e-05 1.64111e-18)
(-0.0501584 0.0948723 4.52936e-18)
(-0.00251239 -0.0017403 -9.11083e-18)
(-0.00945336 0.004753 1.94618e-18)
(-0.0166545 0.00470526 1.19769e-17)
(0.00748995 0.000419466 -1.41191e-16)
(-0.00107185 -0.00145035 -3.14787e-18)
(-0.000623819 0.000467038 1.34409e-18)
(-0.00136251 -0.00101336 -1.07602e-17)
(0.00502976 -0.0194226 -1.82514e-17)
(-0.00121378 -0.00026699 1.71501e-18)
(-0.0135142 -0.000972477 -3.28225e-18)
(-0.000688867 0.000927135 6.12745e-18)
(0.0320148 0.00930319 8.45955e-20)
(-0.00127595 -0.000435468 -1.48731e-18)
(-8.18767e-05 -0.000499353 -9.36442e-19)
(-0.000145955 -3.53377e-05 7.84699e-19)
(-0.000125877 -1.16358e-05 -3.38326e-19)
(-0.0195786 0.0186118 -6.27553e-19)
(0.0326107 0.00880242 1.71479e-18)
(-0.000526837 0.000860943 5.66675e-18)
(-0.0411188 -0.0437801 7.00496e-18)
(-0.00266651 0.00118027 -8.66101e-18)
(-0.0620154 -0.0171585 7.40889e-18)
(-0.0129403 0.0052384 9.95946e-18)
(-0.0266294 -0.0381008 3.80727e-18)
(0.0243254 0.00668755 -2.17451e-17)
(0.000660141 -0.000253815 6.55036e-19)
(-0.0120255 0.0221909 1.48068e-17)
(-0.00438725 -0.0159139 9.60296e-18)
(-0.000723752 -0.000416317 4.1025e-19)
(-0.00432135 -0.00530232 8.66699e-18)
(0.0141753 0.011836 -1.33457e-17)
(0.0456469 0.033906 3.08956e-18)
(4.61254e-05 -0.00104452 -1.96663e-18)
(-0.000237768 0.00136354 4.78197e-18)
(-0.000757415 -0.000290578 -1.07357e-19)
(3.77896e-05 -9.32367e-07 1.27743e-20)
(0.0443286 0.00400923 1.59128e-17)
(-0.00839743 0.00507659 1.45724e-17)
(-0.018972 0.0206235 -2.77777e-17)
(0.0337144 0.0040514 2.09952e-17)
(-0.000464479 0.000997561 -4.2821e-18)
(-0.000107916 0.000202781 1.41575e-18)
(-0.00387805 -0.000576088 1.00786e-18)
(-4.32673e-06 8.00143e-05 1.77877e-18)
(-0.000277341 -1.30664e-05 -4.20673e-18)
(-0.000802279 0.00118303 -5.49557e-18)
(0.00151023 -0.000933874 3.35189e-18)
(-0.0066379 0.00612912 -8.95096e-18)
(-0.00247854 -0.0018167 7.33249e-18)
(-0.00819292 -0.00723832 -1.45232e-17)
(0.00113053 0.0218903 -1.73733e-17)
(-0.0034553 -0.00388196 2.43755e-18)
(-0.000185914 9.89075e-05 1.53879e-19)
(-0.0020577 0.0011057 1.03637e-17)
(-0.00260924 -0.00633376 1.8887e-17)
(0.00998696 0.017381 3.38389e-18)
(-0.00169644 -0.00918263 1.76932e-17)
(-0.0253836 -0.00427843 4.24871e-17)
(-0.00157824 -0.00129312 -1.54024e-17)
(-0.000534793 0.000859387 -5.73831e-18)
(-0.0399731 -0.0414057 -4.82557e-18)
(-0.0227054 -0.0189314 -7.93538e-18)
(-0.00112762 -0.000409667 1.37989e-19)
(0.000169084 -9.19509e-05 1.43305e-18)
(-0.00342315 0.00735705 -1.6353e-17)
(-0.036822 0.00668163 2.40862e-17)
(-0.00884988 -0.00746665 5.23768e-17)
(-0.000124657 -1.59877e-05 2.81969e-19)
(0.0124325 0.00439246 2.12625e-17)
(0.0340739 0.000434783 9.27776e-18)
(0.000966478 -0.018322 3.59858e-17)
(8.69416e-05 -7.17095e-05 -6.01467e-19)
(0.00571801 0.000421619 2.24682e-17)
(0.00771252 -0.000172025 -2.11949e-17)
(-0.0114838 0.00358907 -1.40639e-17)
(-0.00102435 -0.00127465 -2.54377e-18)
(3.08547e-07 0.000684994 7.5762e-19)
(-0.00599436 0.0200579 -5.78459e-17)
(-2.02013e-06 2.84345e-05 -8.6505e-18)
(-0.0342247 -0.0171498 -1.22693e-17)
(-0.0568818 0.00319267 -3.11698e-18)
(0.00684857 0.0061749 -1.81732e-17)
(0.00681358 0.000531065 1.3347e-16)
(-0.0131961 -0.00542407 1.59284e-17)
(0.0243801 0.0051769 1.47149e-17)
(-0.00771805 -0.00171177 7.09623e-18)
(-0.000770426 0.000593964 2.53492e-18)
(-0.000192128 0.00136733 -7.12213e-18)
(-0.0370441 -0.00564362 -6.83453e-17)
(-0.102387 -0.021262 -1.26931e-17)
(0.00839333 -0.000243503 -4.90037e-17)
(-0.109957 0.0441453 -4.29155e-18)
(0.00035099 -0.000435332 1.72179e-18)
(-0.0337464 -0.0158172 -2.71196e-17)
(-2.51339e-06 5.03735e-05 -2.90375e-18)
(-0.00112713 -0.00136304 -4.0033e-17)
(-0.0139297 -0.0103984 -6.62636e-18)
(-0.00186694 -0.00678326 8.02519e-17)
(-0.000179238 0.000225657 1.18591e-19)
(-0.0017737 0.000687002 1.9833e-17)
(-0.0205011 0.0114683 -1.56081e-17)
(0.0152958 0.00790259 -1.9959e-17)
(-0.0347634 -0.00651576 1.20761e-17)
(0.0068515 -0.000402179 -1.87378e-17)
(-0.00204385 -0.00177808 -2.02715e-18)
(-0.0030764 -0.000685004 -1.97783e-18)
(-0.0336567 0.0061819 6.67404e-20)
(-0.0002856 0.00123816 -8.80914e-18)
(0.000106859 -0.000221976 1.04581e-18)
(-0.000257447 0.00014361 -4.26218e-18)
(0.0024763 -0.00263848 1.46635e-18)
(-0.00757553 -0.0167459 -1.96502e-17)
(-0.000144927 -9.09006e-06 7.56689e-18)
(-0.0128981 -0.0102395 1.28797e-17)
(-0.000255658 0.000171427 1.87524e-18)
(-0.000110648 -5.81342e-06 7.31204e-19)
(-0.000147413 3.44309e-05 1.29143e-18)
(-0.0100706 0.0221078 -4.25711e-19)
(-0.000321114 0.00125101 5.8013e-18)
(-2.49643e-06 4.36754e-05 4.87881e-19)
(-0.00374633 -0.000918322 2.52516e-17)
(-0.00240811 -0.000794423 -1.09657e-17)
(6.39629e-05 1.16462e-07 2.07967e-19)
(-0.0510598 0.00222555 -4.73048e-17)
(0.000154158 -0.000500617 1.04421e-18)
(0.00041978 -0.000171062 2.03184e-18)
(-0.0013846 -0.00186735 -1.46296e-17)
(-0.00262236 0.00261114 -1.4666e-17)
(0.000721213 -0.00236129 -2.68842e-18)
(-0.00125259 -0.000753086 1.21704e-18)
(-0.023448 -0.00275533 -4.09643e-17)
(-0.00215045 0.00299711 -9.32354e-19)
(-0.00296196 -0.00125798 6.43204e-18)
(-0.0211643 -0.0198492 1.13833e-17)
(-0.00293782 -0.00130303 3.27763e-18)
(-0.105953 -0.00386866 1.54189e-17)
(-0.000451679 0.00190038 1.49455e-17)
(-0.00798622 0.0057022 -7.8028e-18)
(-0.00728066 0.00373807 5.12486e-17)
(0.0460279 0.00286117 -2.21461e-17)
(0.000167924 -8.16576e-05 -9.44896e-19)
(0.0141436 0.0127576 -8.3252e-18)
(-0.0160269 0.0307239 1.89946e-17)
(-4.90423e-05 -0.000155388 1.70885e-19)
(-0.00116998 0.00844335 3.61332e-18)
(-0.000159711 0.000124744 -7.49084e-19)
(-0.000146167 6.07626e-05 -1.22081e-18)
(-0.00217938 -0.00168416 -6.75753e-18)
(-0.000147263 -6.3278e-05 3.69179e-19)
(-0.00763666 -0.00323678 1.30813e-17)
(0.0103764 0.0165298 -3.39208e-18)
(6.46866e-05 -0.000122867 -6.40123e-19)
(-0.00122456 0.00211958 4.00849e-17)
(0.000630852 -0.000249089 1.10578e-18)
(-0.00189169 -0.00161958 -3.0665e-18)
(-0.112232 -0.0297094 1.05067e-17)
(6.07705e-05 4.95037e-06 1.20236e-19)
(-0.0378066 0.0105482 9.26611e-18)
(-0.00157615 -0.000438034 8.91075e-19)
(1.74771e-05 -0.000577632 -2.14723e-18)
(-0.000361 0.000458511 -4.81658e-18)
(-0.000264694 0.000170798 4.19206e-18)
(0.00571456 0.00977284 1.51926e-17)
(-0.00289597 0.00562049 1.40351e-17)
(-0.063419 -0.000412936 5.68108e-17)
(-0.0032796 -0.00402078 -6.04101e-18)
(-0.0308002 0.000743208 -4.41215e-17)
(-0.00352907 -0.000365855 3.96518e-18)
(-0.000130022 1.7766e-05 -3.15833e-18)
(-0.0232839 0.0118943 -1.43721e-17)
(0.00642036 -0.000438691 -3.06818e-17)
(0.0221447 0.00862604 2.46249e-17)
(-0.00346253 0.00566615 3.01437e-18)
(0.00420905 0.0055155 -8.72907e-18)
(-0.0030994 -0.0168709 5.13944e-18)
(-0.00163499 -0.00133766 1.56062e-18)
(0.00664155 0.00879722 -3.22427e-19)
(-0.00118182 -0.000734425 -1.05445e-19)
(-0.019668 -0.000780283 1.15618e-17)
(-0.000119005 -1.26024e-05 -6.15829e-19)
(0.00499056 0.00055123 3.49441e-17)
(0.000109913 -0.00110689 -8.53412e-19)
(-0.00368136 0.00538809 4.96229e-17)
(-0.00187207 0.00150282 8.8782e-18)
(-0.000542088 -0.000921489 1.05551e-18)
(-0.0472839 -0.00350738 -1.37618e-18)
(-0.000164491 0.00138365 -2.86734e-18)
(-0.000267725 3.40079e-05 -7.43335e-19)
(0.0107167 -0.0135704 2.05902e-17)
(-0.00158457 -0.00037432 -1.71531e-18)
(-0.000147392 3.20149e-05 3.96669e-20)
(-0.00369631 -0.00362329 8.19488e-18)
(0.000524637 -0.00176365 -4.94603e-17)
(0.00593518 0.0105049 1.57216e-18)
(0.000980117 -0.0204507 2.43691e-17)
(0.000218171 -0.0197004 -1.52884e-17)
(-0.0607065 0.000191575 1.43277e-17)
(-0.000111013 0.000185026 1.17374e-18)
(-2.2509e-06 0.000642621 -2.3803e-18)
(0.00910589 0.00535748 -2.31168e-17)
(-0.00018639 -2.61693e-05 -3.34551e-19)
(-0.0121861 -0.00760111 -6.70423e-18)
(-0.0141128 -0.00536242 -1.57945e-17)
(-0.00100782 -0.00122132 -2.93562e-18)
(-4.66055e-05 0.00014721 7.6566e-18)