/*--------------------------------*- C++ -*----------------------------------*\
| =========                 |                                                 |
| \\      /  F ield         | OpenFOAM: The Open Source CFD Toolbox           |
|  \\    /   O peration     | Version:  v2012                                 |
|   \\  /    A nd           | Website:  www.openfoam.com                      |
|    \\/     M anipulation  |                                                 |
\*---------------------------------------------------------------------------*/
FoamFile
{
    version     2.0;
    format      ascii;
    class       surfaceScalarField;
    location    "800";
    object      meshPhi;
}
// * * * * * * * * * * * * * * * * * * * * * * * * * * * * * * * * * * * * * //

dimensions      [0 3 -1 0 0 0 0];
oriented        oriented;


internalField   nonuniform List<scalar> 
27907
(
-9.69605e-05
-0.00022769
0.000324669
-0.000199957
0.000266285
-6.6325e-05
0.000299469
0.000140944
-0.000378573
0.000156355
-0.000296157
0.000139805
0.000163338
-0.000250985
8.76479e-05
-0.000123289
0.000244853
-0.000121563
-0.00016231
0.000181216
-1.89059e-05
-0.000852163
-2.27686e-05
0.000903527
-8.68083e-05
-0.000205812
0.000292632
-0.000347328
0.000604197
-0.000256495
-0.000899243
0.000458895
0.000441571
0.00012844
9.91167e-05
-0.000227556
0.000131815
-5.82082e-05
-4.12472e-05
0.000262579
0.000101299
-0.000363843
0.00011189
0.000650731
-0.000760598
-0.000138352
0.000287045
-0.000148691
0.000590249
-0.000437119
-0.000152911
0.00109964
-0.000314708
-0.000767805
-0.000978534
0.000933083
4.98238e-05
0.000172055
0.000378677
-0.00055049
-0.000107664
0.000180283
-7.26187e-05
8.54908e-05
7.4489e-05
-0.000157374
0.000147412
-0.000239236
9.18239e-05
-0.000168467
-6.39375e-05
0.000232409
-0.000324722
0.000185496
0.000139231
3.83869e-05
-0.000858905
-0.000262454
0.000147689
0.000114766
0.000190058
-0.000247524
5.74658e-05
0.000209798
-0.000271493
6.16974e-05
-0.000210975
2.24957e-05
0.000188481
-0.000313207
0.000504257
-0.000190951
0.000189756
-7.79517e-05
-0.000111805
2.88234e-05
1.63452e-05
-2.95526e-05
-2.8867e-05
0.000779029
-0.000748068
0.000156184
-0.000396154
0.000240004
0.000126089
0.000427673
-0.000551897
-2.34856e-06
-3.61803e-05
4.91958e-05
0.000195542
-0.000966993
0.000775019
0.00092142
-3.76518e-05
-0.000880964
0.000611703
-0.000233319
-0.00037818
0.000439671
0.000606192
-0.00104218
0.000427773
0.000312866
-0.000740319
-0.00109296
0.000268802
0.000836571
0.000619294
1.34206e-05
-0.000632332
-0.000220995
-1.27984e-05
0.000233796
-5.1962e-05
-0.000333293
0.000427379
-4.13645e-05
0.000188777
0.000577886
0.000157259
-0.000734219
0.0003364
-0.000683303
0.000945034
-4.37662e-05
-0.000886186
-0.000253163
-9.54032e-05
0.000348592
0.000182483
6.44508e-05
-0.000246933
-0.000272372
0.000680706
-0.000375859
-0.000310433
-0.000587461
0.000193128
-3.06911e-06
0.000281181
-0.000140257
-0.000140921
-4.71426e-05
5.52971e-05
-0.00021514
-0.000125671
0.000782944
-0.00095826
0.000177543
4.47864e-05
-0.000370432
0.000325677
-0.000420102
0.000132157
0.00028797
3.32495e-05
-0.000195559
-0.000303997
-6.17431e-05
0.000365772
0.00039275
-0.000867259
0.000475193
0.000302767
-0.00054642
0.000111746
0.000791362
-0.000901647
0.000567686
3.45714e-05
-0.000602046
-1.33013e-05
5.52597e-05
0.00108447
-0.000138948
-0.000940919
0.000203344
-2.08605e-05
-6.63451e-05
-0.000117699
0.000184045
0.000871388
-9.85694e-05
-0.000772042
5.41775e-05
0.000905236
0.000142896
-0.000198317
5.54215e-05
0.0010548
-0.000101389
-0.000936412
-0.00074094
0.00103443
-0.000290859
7.13743e-05
-0.000351462
0.0002801
-0.000211018
0.000199824
1.11953e-05
0.000265253
-0.000396987
0.000131753
-6.17042e-05
-0.000135778
0.000197482
0.000105679
0.000115391
-0.000221069
-0.000141234
-9.22887e-05
0.000233525
-0.000235073
0.000279882
0.000275463
-0.000132158
-0.000143304
-0.000229193
0.000300579
0.000464759
0.000246135
-0.000710448
0.000112438
0.000118198
-0.000230636
0.000101155
-0.000405118
-0.000110147
-6.83337e-05
0.00017848
-0.00106037
0.000322228
0.000139404
0.00013606
0.000994175
-0.000208859
7.03329e-05
0.000173297
-0.00024363
-0.000302246
0.00073031
0.000170197
6.69737e-05
-0.00023717
-0.000116717
0.000187051
0.000112611
-0.000341791
0.000309392
0.000760218
-0.00119069
0.000372167
0.000822733
-0.000192658
8.49939e-05
-0.000259584
0.000550916
-0.000291095
-0.000270201
9.48535e-05
0.000175348
0.00032317
-0.000410319
8.72023e-05
0.000483178
-0.00011189
-0.000371184
0.000116039
7.37175e-05
3.84395e-05
-0.000249413
0.000123548
0.000135479
-0.000259024
4.51977e-05
-0.000256216
0.00079088
-0.00100053
0.000211519
-0.000825284
3.9647e-05
0.000785883
-0.000227468
0.000110752
-3.25638e-05
0.000909113
-0.000821577
-5.87102e-05
0.00103504
-0.000196067
-0.000836253
-9.29901e-05
-0.000132597
0.000225589
-0.000148674
0.000165496
-1.68225e-05
0.000124898
7.5569e-05
-0.000200467
0.00077253
-0.000658644
0.000159799
-0.000242293
8.24949e-05
-1.07941e-05
0.000180992
0.000671063
-0.000483096
-0.000187709
-0.000168207
-0.000539578
0.00070891
-0.000242251
2.20508e-05
0.000220202
0.000228759
-0.00018521
-4.35474e-05
-0.000282053
0.000154881
0.000127176
6.73726e-05
-0.000288364
7.45145e-05
-0.000274467
-0.000310808
4.71089e-05
0.000263706
-2.93722e-05
0.00020267
-3.48976e-05
5.46865e-06
6.97229e-05
0.000403219
0.000187226
-0.000150054
-0.000112398
0.000109316
7.09668e-05
-0.000128136
0.000395163
-0.000266978
-1.86511e-05
-0.000153393
0.000113525
0.00050881
-0.000621857
-2.21756e-05
-0.000329273
0.000324193
0.000287694
-0.000115249
-0.0010696
-0.00042386
0.000327527
9.63445e-05
-5.54403e-07
0.000265822
-0.000309445
0.000229965
7.9486e-05
-0.000590682
-0.000331945
0.00092536
0.000106327
0.000174856
-0.000356283
0.00079894
0.000855162
1.28382e-05
-0.000864209
-0.000136085
-4.41778e-05
0.000180263
0.000138241
-0.000232535
9.42936e-05
-0.000483367
0.00017026
-0.000273266
4.25247e-05
0.000230742
0.000108134
-0.000249365
-0.00022256
0.000256512
-3.39488e-05
0.000350622
-0.000700121
0.000349949
-0.000124827
-6.99755e-06
0.000139207
-7.25035e-05
-0.000120376
0.00019288
0.00074528
-0.00049729
-0.000247441
0.000204352
-4.4553e-05
-0.000112543
0.000691272
-0.00112699
0.000617738
0.000510841
4.06616e-07
4.2579e-05
-4.15276e-05
-0.00105442
0.000251385
0.000813667
-0.000146596
-0.000150767
0.000297385
-0.000104046
-0.000114803
0.00021885
-0.000443072
-0.000682186
-0.000101614
-0.000318462
2.97431e-05
0.000180056
-0.000996469
0.000993395
7.26804e-06
9.56209e-05
-0.000244182
0.000148562
0.00017439
0.000127455
-0.000301833
0.000239713
-0.00012004
-0.000119672
7.772e-05
0.000119467
-0.000197187
0.000507933
0.000605408
-0.000224426
0.000120381
0.000137137
8.25406e-05
-0.000219678
-0.000310685
0.00016411
-0.000297895
0.000129433
-9.51104e-05
0.00025407
-0.000158957
-0.000272443
0.000665727
-0.000154047
-0.000269797
-3.20833e-06
0.000845312
-0.000839164
0.000833552
-0.000104604
-0.000700317
-0.000103923
-7.15367e-05
-0.000233405
1.08493e-05
-0.00120755
0.000388781
0.000829448
-0.00080984
0.000212915
0.000597735
0.000349445
-0.000246093
-0.000103345
0.000189087
0.000741619
-0.000927153
6.75412e-05
-0.000216215
0.00100726
-4.62301e-05
-0.000945032
8.71414e-05
-0.000941559
0.000857323
-0.000352863
0.000224765
7.60364e-06
-0.000318405
-0.000870342
0.000331766
0.000540132
-0.000338369
-0.00014489
-0.000525048
0.000471257
5.39049e-05
-0.000253753
0.000354939
-0.000348101
0.000520385
-0.000135223
0.000309624
6.80081e-05
-0.00042253
0.000369987
-0.00101528
-6.26382e-05
0.000383247
-0.000168886
-0.00021435
0.000692215
-0.000803759
-0.000378125
-0.000136842
0.000515172
-0.000394341
2.62729e-05
0.000368114
0.000111296
4.9533e-05
-0.000107128
-0.000417777
-0.000388419
-2.1613e-05
0.000410082
6.35042e-07
-0.000120133
-6.85804e-05
0.000177497
-0.000108917
-0.000274921
0.000611706
0.00107139
-0.000310195
-0.000745487
0.000364795
0.000118475
0.00100328
-0.000685022
-0.000316604
-0.000262821
-0.000155048
0.000418022
0.000242404
0.000162722
-0.000405106
-0.000273334
0.000133029
0.000140306
0.000310699
-6.82787e-05
0.000285102
-0.000161191
-0.00012391
-0.00112331
0.000517928
0.000625926
-0.000238048
0.00011476
0.000772505
4.00865e-05
0.000752219
3.81398e-05
0.000249114
-0.000287239
6.79178e-05
-0.000204003
-0.000317132
0.000205739
0.000111402
2.86067e-05
-0.00041697
0.000507904
2.22082e-05
-0.000530017
-0.000268504
-0.000146914
0.000415486
-0.000580604
-0.000354854
0.000945181
-0.000466233
0.00010478
0.000361502
-0.000692183
0.00080514
-0.000402183
0.000148466
-0.000193399
-3.5967e-06
0.000196996
-0.000176099
0.000288721
-5.2845e-05
2.25328e-05
-0.000836968
0.00102984
0.000531729
-0.00110148
1.26671e-05
0.00041996
-0.000391805
-0.000269304
2.70546e-05
-0.000123078
-0.000327089
0.000450358
-0.000983241
0.000958471
3.44528e-05
-0.00031898
0.000186469
0.000132517
0.000236327
-0.000112776
-0.000412102
0.000757081
-0.000343519
-1.60635e-05
-0.0002572
0.00018681
-8.38519e-05
-0.000102958
0.000116295
-0.000292383
-0.000484438
0.000611976
8.08913e-05
0.00014004
-0.00022093
-0.000313613
0.000576918
-0.0002632
0.000492561
-0.000664353
0.000173867
-0.000137907
0.000233529
0.000563785
-9.86552e-05
0.000315327
-0.00062883
-0.000966703
0.000305353
0.00066356
0.000622837
-0.000555471
-6.71963e-05
-7.59945e-05
0.00027795
-0.000201949
8.76953e-05
0.000197407
0.000231445
-0.000494097
0.000206781
0.000172063
-0.000378823
-0.00106044
0.00104318
-0.000162372
0.000470777
-0.000308323
0.000766718
0.000213451
-0.000973329
6.50948e-05
-0.000459382
0.00037414
-0.000648648
-0.000198909
0.000237061
-0.000153681
0.000177207
-2.35259e-05
-0.0002951
-0.000802531
-0.000972975
0.000260236
0.000714682
-6.29246e-05
-0.000184898
0.000247829
-0.000724007
-0.00024693
-0.000549968
-0.00025892
-0.000439905
0.000231739
-0.000268394
3.66566e-05
-3.8642e-05
0.00016354
0.00101198
-0.00103001
2.09165e-05
0.000454706
-0.000311583
-0.000143087
-5.98589e-05
0.000151953
-9.20937e-05
0.000153582
-0.000245868
0.000303241
0.000501138
-0.000803108
-0.00110332
0.00109455
1.66807e-05
1.84927e-05
0.000435646
-0.000453773
0.00038426
-0.000507124
0.000342793
-0.0009308
0.000128354
-0.000188213
-0.000146431
-0.000172543
-0.00030341
0.000232961
7.04553e-05
-6.61438e-05
-0.000234764
-6.91303e-05
0.00100737
-0.000926908
0.000404091
-6.03649e-05
-0.000461439
0.000246078
0.000215413
-0.000134056
-0.000139278
0.000123008
0.000561241
-0.000684099
-0.000190184
0.00029363
8.18706e-05
-0.000375467
-0.00065694
0.000171378
0.000485951
0.000186571
-7.87798e-05
-0.000895169
5.94666e-05
-0.000234567
0.000175108
0.000107555
0.000387701
-0.000394704
-0.000236882
0.000163096
7.3786e-05
-0.000318884
-0.000154574
0.000473564
0.000866183
0.000222602
-3.29197e-05
0.000544038
-0.000510811
0.000447526
-1.05725e-05
-0.000436901
-0.000446127
-0.000297643
0.000745622
-0.000145384
0.000640261
0.000146803
4.54291e-05
-0.000192232
-5.66455e-05
-0.000246756
-0.000178349
-0.000732253
0.000916766
-0.00017956
3.54888e-06
0.000176012
0.000207014
-0.000198031
-0.00011909
-0.00093135
-0.000111914
0.0010487
6.50764e-06
-0.000172099
-5.54239e-05
0.000227527
-0.000876215
0.000465736
-0.00108216
-0.00011274
-0.00114492
0.000432914
0.000716708
-0.000753999
7.16414e-05
0.000682605
-0.000173072
0.000300538
9.31589e-05
0.000354411
0.000492506
-0.000473617
-0.000625396
0.000298495
-0.000179772
0.000558697
-0.000583129
0.000230322
-0.000915008
-0.000138008
-0.000122025
0.000123863
0.000280883
-0.000233768
-0.000465143
0.000270152
0.00019505
0.000312329
0.0001424
-8.5465e-05
0.000241822
0.000599818
-0.000476684
-0.000320945
-0.000547736
-4.36424e-05
8.87581e-06
8.42601e-05
-0.000159195
0.000218669
-0.000134696
-0.000102185
-0.000442565
0.000984136
0.00104948
-0.000285213
-0.000747645
0.000534336
-0.000966647
-0.000497809
0.000611804
0.000241239
-0.000509664
-0.000142907
-0.000181809
-0.000980279
0.000813643
-3.37827e-06
-0.000796595
0.000800336
-1.99391e-05
0.000935925
-0.000902098
-0.00029833
0.000159979
-0.000224264
-8.51733e-05
-0.000128756
0.000354539
-0.000225766
-0.000443432
0.000257011
0.000186439
-0.000295123
-0.000496275
0.00079332
0.000232614
-0.000282297
4.96889e-05
-0.000362223
0.000265286
0.000603982
-0.000405228
-0.00019855
-0.000538503
0.000276722
0.000261856
-0.000113852
0.000126431
6.91952e-05
-0.000195626
0.000126342
0.000223109
-0.000454964
0.000461036
1.47872e-05
-0.000377722
-0.000157282
0.000535208
-0.000303638
0.000169327
0.000134314
1.27465e-05
0.000218993
0.000801014
-0.000520852
-0.00027955
-0.000982949
0.000924986
0.000179789
-0.00044835
0.000268643
0.00042433
0.000600539
-0.0010209
0.00061989
-0.000474556
-0.000144961
-0.000190742
0.0002857
-9.49555e-05
-9.48834e-05
-0.000149427
0.000244312
-0.000373528
3.13058e-05
0.000342261
0.000399443
-0.000578954
6.18327e-05
-0.000215514
0.000731234
-0.000960296
0.000230742
0.000699791
-6.60871e-06
0.000945863
-0.000821541
-0.000120819
-7.70802e-05
0.00100123
0.000457642
-0.000221934
-0.000235663
-0.000483789
0.000727549
-0.000242941
1.60143e-05
-0.000195575
-8.30053e-05
-0.000182396
0.000265408
-0.000298896
-0.000665613
-0.000971491
0.000799761
0.000215801
-0.0001155
-0.000100301
5.0487e-05
-0.00042397
-0.000254943
0.000168144
0.000948115
-0.000215246
-0.000368073
0.000452562
-8.43673e-05
-0.000993167
-0.000102154
0.000309506
-0.000705313
0.000396088
0.000242012
-0.000781001
-0.000942755
0.000668296
0.000156011
4.38142e-05
-0.000199825
-0.000157862
8.92817e-05
8.01147e-05
0.000102625
-0.000182739
-0.000115029
-0.000117115
0.000141725
2.10676e-05
-0.000346763
0.000254968
9.18087e-05
0.000235602
-0.00011332
-0.000122282
0.000449911
0.000173076
0.000239996
0.000694029
-0.000335844
0.000250382
0.00101965
-0.00100516
-8.19299e-06
-2.63594e-05
-0.000812267
0.000842102
9.04695e-05
0.000770753
0.000203669
0.000254006
-0.000864674
0.000906805
-4.0355e-05
-9.62893e-05
0.000715975
-0.000230523
-0.000212889
-0.000266347
0.000132665
0.000133684
-0.000162227
-0.000976019
0.000199256
-3.59181e-05
0.000404816
8.94754e-05
-0.000494139
-0.000963166
3.8202e-05
-0.000781849
0.000384942
0.000397646
0.000218131
0.000816449
-0.00103224
0.000754467
-0.00013198
-0.000524593
0.000267102
0.00014489
-0.000411917
-0.00028988
-0.000293176
8.92277e-05
9.75826e-05
0.000381047
0.000290182
0.00026794
0.000565566
-0.000831205
-0.000218026
0.000155106
-9.61287e-05
-0.000135388
0.000231518
0.000287594
-0.000198446
-8.91443e-05
-0.000126863
0.000204583
-0.000415261
0.000149072
0.000266235
0.000303043
0.000551832
-0.000853499
-0.00075614
-0.000162583
-4.86433e-05
-0.000923518
0.000867175
0.000137526
0.000440869
-0.000409517
0.000544528
-0.000332438
-0.000211907
-0.000544492
-4.14654e-05
0.000586302
0.000232764
-0.000551527
0.000597149
-0.000301766
0.000137172
0.0001646
0.000351823
-0.000588761
0.000808651
-0.000188337
-0.000436794
0.000110501
-0.000220648
-0.000482351
0.000751195
-0.000267925
-0.000277036
0.000182155
6.01885e-06
-8.27686e-06
-0.000939892
0.000205056
-0.000139147
-6.59087e-05
-0.000408608
0.000555599
-0.000146794
0.00066087
-0.000929617
0.000270782
0.000217535
-0.000293522
-0.000202131
0.000358348
-0.000244922
-0.000216471
-0.000216064
0.000186693
0.000372031
0.000663994
0.000297987
-0.000798388
0.000501333
0.000125854
0.000224897
-0.00012578
-0.000656862
0.000485106
0.000171819
-0.00022383
-0.000144229
0.000368103
-0.000116165
0.000378776
-0.000104093
-0.000197667
-0.000178102
0.000100168
7.79338e-05
-0.000269099
0.000905656
-3.35093e-05
-0.00011107
0.000324949
-0.000213854
4.06071e-05
0.000997075
0.000109435
0.000331475
0.000791912
-0.000612143
-0.00017848
1.95963e-05
-0.00023566
0.00012042
-0.000488362
-0.000177175
-0.000126458
0.000101213
-0.000645325
-0.000518556
0.000321086
0.000197555
0.00044088
-0.000220728
0.000156795
-0.000936405
0.0010057
-7.61634e-06
0.000134047
0.000130393
0.000818644
-0.000234834
7.74627e-06
0.000227094
0.000397514
-0.00088172
0.000490391
-0.000157919
-9.85872e-05
0.000256512
0.000481629
0.000138618
2.41336e-05
0.000754843
-0.000770866
0.00128442
-0.000907381
0.000779149
-0.000664018
0.000154334
-0.000285847
0.000131516
-0.000196319
0.000170824
2.54954e-05
-0.000209895
0.000116906
0.000439539
-0.000598515
0.00015917
0.000756817
-0.0002313
-0.000524608
-0.000376586
0.000366057
-9.06164e-05
9.17992e-06
8.55451e-05
6.25027e-05
-7.99335e-05
1.62699e-05
0.000122577
0.00010969
-0.000232266
0.000565656
0.000723487
0.000859255
-0.000852215
-5.7531e-06
0.00042501
-0.000131346
-0.000403729
-2.57918e-05
-0.000454295
0.000230519
7.51263e-05
-0.000451662
0.0008702
-9.8704e-06
-0.00100002
0.000137626
0.000648511
-0.00035667
-0.000291667
0.000415381
-0.000896621
0.000328722
0.000417008
0.000244388
-0.00026045
-0.000788309
0.000354578
0.000434208
-0.000367493
-0.000289289
0.00076135
-0.000258121
-0.00050272
-0.000482491
0.000752942
0.000204472
-7.6694e-06
-0.000196802
0.000690895
-0.000954943
0.000264593
-0.000900511
0.000161372
0.000740667
2.97758e-05
-0.000208515
0.00017874
-0.000164606
0.000191653
-2.7047e-05
-0.000250332
-0.000268128
-3.12946e-05
0.000210487
-0.000179188
0.000404589
0.000396949
-0.000858785
-0.000208613
4.40072e-05
-4.66214e-05
-0.000945246
-0.000185534
0.000103423
8.21108e-05
7.34845e-05
-0.000308311
-0.000726979
0.000824463
-9.03793e-05
1.10744e-05
0.000233315
0.000240223
0.000418161
-0.000238295
-0.000130855
0.000155464
2.49771e-05
-0.00017845
-0.000286627
-0.000249523
0.000172957
7.65666e-05
0.000804714
0.000976295
-9.7681e-05
-0.000873797
-0.000167266
0.000819824
0.000320884
-0.000765296
0.000787556
7.07067e-05
0.000123025
0.000145704
-0.000214087
6.25027e-05
-0.000138212
-0.000128134
-0.000623935
-7.99828e-05
0.000704669
-0.00014304
0.000172784
-1.23621e-05
-0.000849172
0.000862815
-0.000222737
-0.000114262
0.000337019
7.55465e-05
0.000945607
-0.000173073
8.56416e-06
-0.000849537
0.000189146
0.000661167
-0.000110946
0.000369753
-0.00024769
-0.000453226
0.000757658
0.000321643
-0.00064028
0.000318945
-0.000849827
0.000849592
0.000401169
-1.52092e-05
-0.000385924
-0.000227934
-7.03952e-05
0.000941993
-4.6148e-05
-0.000869141
0.000196481
3.39879e-05
-0.000230468
-8.2206e-05
-0.000114809
0.000197015
-0.00018438
0.000485608
-0.000301179
-0.000303476
0.000192426
-0.000118986
0.000199101
0.000622626
-0.000366423
-0.000421332
-0.000498412
0.000693525
-0.000194628
-0.000138655
7.23103e-05
0.000142238
-0.000765358
-0.000563313
0.000374658
0.00018883
0.000115769
-0.000909804
0.000796752
0.000133683
-0.000248885
0.000115202
-0.000640021
0.00016108
0.000479129
1.07011e-05
-0.000234957
-0.000263145
0.000392021
-0.000128848
-0.000129838
0.000163087
-0.000706476
0.000938496
-3.27038e-05
-0.000902844
0.000401204
-0.000534456
0.000133345
0.000233481
6.03469e-05
-0.000293824
0.00080546
-0.000174292
-0.000107754
-0.000378168
0.00095947
-0.000580263
0.000129722
0.000106608
-0.000464116
0.000789558
-0.000324196
-0.0011096
0.0011366
-2.03245e-05
0.000736605
6.64188e-05
-0.00031698
0.000372586
-2.94644e-05
-8.49687e-05
-0.000113197
0.000198166
-9.37836e-05
0.000223507
0.000761132
0.000188942
-0.000281978
-9.47443e-07
0.000282938
-0.00020648
-0.000322641
0.000529291
0.000163193
0.000124405
-1.50111e-05
-0.000181308
-0.000299237
0.000127145
0.000203059
-0.000258703
5.56484e-05
-0.00119815
0.000596654
0.000605584
-0.000143188
-0.000104335
0.000137645
-0.000475902
0.0010521
-0.000211833
-0.000837162
0.000132852
0.000434996
0.000187028
0.000114254
9.08024e-05
0.000795835
-0.000822471
0.000704995
-0.000851074
0.000146199
6.97956e-05
-0.000853306
0.000785924
0.000206097
-0.000309567
0.000153446
0.000172526
3.53006e-05
-0.000207827
0.000375154
3.48025e-05
-0.00040992
0.000194604
0.000107823
0.000127779
-0.000812071
-3.67855e-06
0.000816882
-0.000279773
0.000359571
-0.000468042
0.000354304
0.000113833
0.000107305
-2.05767e-05
-0.000154261
-0.000889634
0.000710423
-0.00038839
0.000724334
8.15787e-05
-0.000804111
0.000339459
-0.00013196
-0.000507853
0.000296027
-7.44769e-05
-0.000221536
0.000159807
6.08946e-05
-0.000220701
0.000328631
-0.000472804
-0.000444807
0.000848947
-0.000700189
0.000291806
0.000369378
-0.000158579
-0.000210773
0.000161631
5.6643e-05
-0.000218274
-0.000238663
-0.00032444
-0.000233508
1.67277e-05
0.000216783
0.000553052
-0.000192735
-0.000360188
0.000953942
-0.000191
6.91124e-05
-0.000351076
-0.000208455
-6.48087e-06
0.000214938
0.000854757
-0.000521482
-0.00135114
0.00053703
0.000824242
-0.000129923
0.000298137
-0.000168211
-0.000130797
0.000160814
1.41281e-05
-0.000310512
-0.000107161
0.000176357
-8.97672e-05
-8.56927e-05
-2.21567e-05
0.000255642
0.000887108
-0.000916018
-0.000117187
-5.2485e-05
0.000169672
4.3976e-05
0.000165647
-0.000209623
-0.000106228
0.000290271
-0.000773223
3.38219e-05
-0.000495507
7.81048e-05
0.000172449
-0.000250552
-5.71402e-05
5.71402e-05
-0.000119992
-0.000176895
0.000296905
-9.06366e-05
-9.48972e-05
0.00027926
-0.00036681
8.75636e-05
-0.000216423
8.65852e-05
0.000394871
-0.000290164
-0.000104655
-8.0869e-05
-9.62724e-05
0.000177141
-0.000141662
0.000408837
-0.000299669
-0.000562616
0.000863899
0.000804188
-9.90502e-05
-8.67463e-05
-9.56984e-05
0.000182445
-7.1344e-05
0.000283776
-0.000212428
0.000190779
0.000116765
-0.000266191
0.0008908
-0.000287607
0.000167631
-9.65873e-05
6.71162e-06
0.000112951
0.000395035
-0.000397033
0.000147058
0.000250027
0.000179658
-0.000432793
-0.000836912
0.000117895
0.000654612
5.80095e-05
-0.000712263
-0.00027674
-7.00092e-05
0.000204406
-7.9245e-06
0.000107718
-0.000194465
-0.000188507
1.31516e-05
0.000175355
0.000435414
0.000168756
-0.000499846
0.000240437
-0.000172899
0.000289205
0.000747383
-0.000750424
0.000977991
-0.000949801
-2.05316e-05
0.000821276
-0.000959132
0.00014181
-0.000873492
0.000388125
0.000486286
0.000254013
0.000385954
-0.000752099
0.000367568
-0.000143681
-0.000253295
-0.00111836
0.000941564
0.00018807
-2.61607e-05
7.03952e-05
0.00100477
-0.000179799
-0.000806884
0.000106768
0.000112706
-0.000219474
-0.000868468
4.34823e-05
-6.64032e-05
7.82111e-05
-6.39046e-06
-0.000333071
-0.000134865
0.000558009
-0.000378887
-0.000178979
0.000297603
0.000663951
1.60054e-06
0.000154411
-0.000365064
0.000792616
-0.000914156
0.000870465
4.94411e-05
0.000458789
-0.000184511
-0.000274191
0.000579407
-0.000252334
-0.000327004
0.000207678
-1.02858e-05
-0.000708093
0.00071966
-0.00024169
8.18343e-06
0.000300778
-0.000150521
-0.00029463
0.000445352
6.47361e-05
-0.000273188
0.000309362
-0.000459678
-0.000262927
-7.2912e-05
-0.000700016
0.000359978
0.000229674
-0.00012716
-0.000102514
1.08075e-05
0.000161719
-0.000805365
-0.000227073
0.000109374
-0.000120529
0.000281114
-0.000160579
-0.000745993
0.000762408
1.33715e-05
-0.000206402
0.00012618
8.02218e-05
0.000959758
-0.000922946
-3.19929e-05
0.0009387
-0.000174268
-0.000746859
0.000363263
-0.000578186
0.000215132
0.000156328
-0.000905808
-0.000222515
-0.000118108
0.000340647
-4.52984e-05
0.00020693
-0.000967065
0.000125916
0.000103759
-0.000536704
-0.000657004
-0.000589845
0.000106995
-0.00028605
0.00021471
0.000893667
-9.77716e-05
-0.000769058
-0.000213495
0.000133362
8.01333e-05
0.000622935
0.000186231
-0.000808359
-0.000925302
0.000140765
0.000788255
-9.22868e-05
0.00100353
-0.000907334
0.00101977
-0.000195496
-1.28126e-05
0.000330319
-0.000317494
0.000277616
0.000105641
-0.000187781
1.58665e-05
0.000171914
-5.4467e-05
0.000383146
8.4689e-05
0.000160165
0.000100176
0.000394377
-0.000494452
0.000952756
0.000305216
3.17862e-05
-0.000336988
-1.89869e-06
-0.000186608
0.000257481
-5.44188e-05
-0.000385986
0.000217113
-0.000344637
0.000215898
0.000309785
0.000140794
-0.00045047
0.000626485
5.3078e-05
-0.000679033
-0.000303613
0.000290811
-0.000946747
0.000535543
0.000412427
-0.000132185
0.000240321
-0.00021218
0.000226574
9.84363e-06
8.64799e-05
-0.000203666
0.000784588
-4.05394e-06
-0.000125303
-0.000260669
0.000282515
0.000366164
-0.000872809
0.000204326
0.000670519
-9.71539e-05
-0.000174337
0.00103593
-0.000945534
-7.92198e-05
-0.000291939
0.000114768
-0.000100332
0.000723999
0.000735498
0.000195697
0.000349003
0.000280071
0.000160895
-0.000440919
0.000257713
7.26158e-05
0.000245846
-0.000213603
-1.51127e-05
0.000228719
0.000191476
-7.65974e-05
-0.000114878
-0.000377686
-0.000331855
7.53275e-05
-0.000182489
0.00113775
-0.000669743
-0.000465817
-0.000219518
-5.97933e-06
0.000225502
0.000280388
0.00011453
0.000725667
-0.000265706
0.000803517
6.74595e-05
-0.000394665
0.000361965
-0.00076764
-0.000469472
-0.000135819
-0.000785609
0.000270156
-0.000659726
0.000390009
6.61247e-05
-0.000285638
-0.000260909
0.000186443
-0.000280155
0.000150235
0.000419857
-0.00027374
-0.000146061
-1.74538e-05
0.000507582
-0.000480245
0.000207172
-0.000418605
0.000211524
-0.000251432
0.000156324
0.000235915
-0.001018
0.000792391
-0.000248812
0.000395923
-0.000906271
0.000683611
0.000223646
-0.0001698
1.4434e-05
0.000155366
0.000765852
-0.000118097
-0.000647384
0.000181089
-3.91963e-05
-0.000141893
-0.000179709
-6.19198e-06
6.67164e-05
0.000214171
-6.58049e-05
1.72733e-06
-0.00048834
0.000391933
9.64737e-05
0.000465225
0.000589323
-0.000373173
-0.000499288
0.000744344
-0.000358598
-0.000385219
0.000873358
-8.73918e-05
-0.000820802
0.000324408
0.000669082
-0.000966594
0.000242287
-8.79514e-05
-0.000121564
-5.38963e-05
0.000283566
0.000349333
-0.000632557
-8.06193e-05
-0.000132876
0.000816698
0.000138525
-0.000559815
0.000227569
0.000179951
-0.000676681
0.000103773
-0.000292315
0.00018855
0.000121766
-0.00018347
-0.000261792
0.000545655
-0.000807561
0.000890012
-6.48228e-05
-0.000206382
0.000217091
-0.000871532
0.00088283
-6.465e-05
-0.000698399
0.000518999
0.000179914
0.000146613
6.91878e-05
0.000161659
-0.000251449
8.97913e-05
0.000190889
9.91995e-05
-0.000290084
0.000194022
-0.000249441
0.000255847
2.17751e-05
3.41029e-05
-0.000787838
0.000605009
0.000447803
-0.00104891
0.00011744
-0.000249623
0.000775716
-0.00028259
0.000207523
7.50706e-05
0.000702721
-0.000472234
-0.00022995
1.19483e-05
-0.000547275
0.000535607
0.000244242
-0.000133563
-0.000110679
0.000123288
0.000110815
-0.000234102
-0.000774348
-2.99027e-06
-0.000184791
0.000386416
0.000375383
-0.000282563
-6.90999e-05
0.000351722
0.000353806
-0.000181725
0.000162731
-0.000114759
0.000165835
-0.000270313
0.000104482
4.83149e-07
-0.000135842
0.000169722
-0.000143662
0.000365205
-0.00016198
0.000143112
-0.000234039
9.09271e-05
0.000817571
0.000197294
-0.000989642
0.000854898
0.000204798
0.000186886
-0.000951368
0.000766789
-0.000155302
-7.5997e-05
0.000231301
0.00032155
-0.00023774
-8.37939e-05
0.000454571
8.5401e-05
0.00012927
-0.000214671
0.00055892
-0.000153945
-7.38371e-05
-0.000322288
-0.000166989
-0.000738193
-0.000212292
0.000749885
-0.000518975
0.000735729
-0.000591613
-0.000100782
-0.00082439
0.000980593
-0.000133507
-9.51375e-05
-8.29643e-05
0.000173542
0.000156392
0.000184065
-0.000340441
-3.04887e-05
0.000834802
8.03493e-05
-0.000869614
0.000378412
0.000959161
-0.000829303
-0.000125093
0.000550811
-0.000187356
0.000591299
-0.000687208
0.000220956
0.000241603
-0.000108976
-0.000132626
-0.000416276
0.000272655
-0.000349535
8.02623e-05
0.000269283
-0.000128391
0.000284796
0.00088373
9.7126e-05
1.27417e-05
-0.000316343
-0.000368312
0.000976914
6.85742e-05
-0.000323135
0.000202612
-9.5683e-05
0.000212998
-0.000117315
0.000264336
-9.00305e-05
-0.000174304
0.000742026
-1.60954e-05
-0.000350173
0.000620743
0.000157367
-0.000225624
6.82589e-05
0.000102928
0.000103715
-0.000206642
0.000129214
0.000202197
0.000231271
-0.000433453
0.000169291
0.00020011
-0.000122933
-8.56801e-05
-0.000396218
1.50875e-05
9.8232e-05
-0.00027112
8.10181e-05
0.000147741
-0.000238837
0.000348311
1.09672e-06
-9.70475e-05
0.000409097
-0.000540864
0.000110241
8.48294e-05
-0.000195071
0.000152703
5.17693e-05
-0.000229061
-0.000105154
0.000334238
1.09665e-05
-0.000890389
0.000880715
0.000785128
-0.000461039
-0.00032314
0.000171947
0.000380912
-0.000552792
8.12414e-05
-0.000165093
-0.000706051
-0.000164729
-0.000192728
0.000288619
-9.58852e-05
0.000996177
-4.69926e-05
-0.000942157
0.000714191
0.000279667
4.90006e-05
-0.000328653
-0.000899928
-0.00010783
6.243e-05
0.00085925
-0.000916167
0.000752033
4.08193e-05
-0.00024634
0.000620869
0.000746778
-0.000175778
-0.000551498
-0.000531538
-0.000413891
0.000880519
3.61333e-05
-0.000249732
-0.000211068
-8.1608e-05
0.000292693
-9.27174e-05
-0.000139817
-6.19746e-05
0.000470148
-0.000260329
-0.000209779
-8.28598e-05
0.000879523
-0.00079583
0.000283052
-0.000329453
0.000123654
0.00044466
-0.000536458
9.19304e-05
0.000118209
0.000884337
0.00047834
-0.000771624
0.000264343
-0.000109457
-4.48204e-05
0.000273913
-0.000229068
0.000472478
0.000221494
0.000125662
-0.00020417
7.85079e-05
0.000200223
-0.000439013
0.000406716
-0.000842343
3.14403e-05
2.08529e-05
-0.000163834
9.55008e-05
0.000351601
-0.000459721
0.000108176
3.78013e-05
-0.000763039
0.000745643
-8.00874e-05
0.000233988
-0.000153894
-0.000472519
0.00044538
3.66383e-05
-0.000435601
-0.000153991
-0.000485223
-0.000345102
0.000840101
0.0002677
3.12281e-05
-0.000298923
0.000108586
-0.000828305
7.17345e-05
0.000773159
0.000779919
-0.00076368
0.000223797
5.13693e-05
-0.000275163
-4.29688e-05
0.000984013
-0.000250281
0.000150965
9.93179e-05
0.000123131
-0.000197454
7.43229e-05
0.000172293
0.00032103
-0.00049322
0.000787257
0.000460067
-0.000671817
0.000212965
-0.000954123
0.000479825
-0.000147996
-8.89435e-06
8.773e-05
0.00012943
-0.000269685
0.000216947
0.000273924
0.000573654
-0.00084615
-9.61774e-05
-0.000110224
-6.53092e-06
-7.32899e-05
-0.000772263
0.000862042
0.000183672
7.0399e-05
0.00102827
-0.000984103
-3.69933e-05
-0.000118725
-0.00013226
0.000803325
-1.87881e-05
-0.00075717
-0.000616063
0.000364237
0.000251966
0.000125906
0.0010623
-0.000183924
-0.000875328
-0.000429836
-0.000438685
0.000873122
-0.00045912
-2.27379e-06
0.000205758
-8.6291e-05
-0.00025963
0.000922449
-0.000522127
0.000534376
0.000371982
-0.000230587
-0.00014139
-0.000104693
0.000513971
9.46905e-05
0.000710233
-0.000790777
0.000191907
0.000266965
-0.000540978
0.000163038
0.00036012
1.92888e-05
0.000146964
0.000552437
1.472e-05
0.000430049
-0.000167213
0.000128017
0.000354749
-0.000412262
5.75717e-05
0.000959412
-0.000845327
-0.000111523
0.000330865
-0.000331798
0.00042854
-0.00032847
-0.000100007
0.000214059
-0.000435808