/*--------------------------------*- C++ -*----------------------------------*\
| =========                 |                                                 |
| \\      /  F ield         | OpenFOAM: The Open Source CFD Toolbox           |
|  \\    /   O peration     | Version:  v2012                                 |
|   \\  /    A nd           | Website:  www.openfoam.com                      |
|    \\/     M anipulation  |                                                 |
\*---------------------------------------------------------------------------*/
FoamFile
{
    version     2.0;
    format      ascii;
    class       volScalarField;
    location    "300";
    object      nut;
}
// * * * * * * * * * * * * * * * * * * * * * * * * * * * * * * * * * * * * * //

dimensions      [0 2 -1 0 0 0 0];


internalField   nonuniform List<scalar> 
18355
(
0.00361901
0.00670476
0.000547314
0.00670607
0.00567398
0.00356596
0.00680321
0.00538943
0.00689159
0.0112296
0.0028727
0.000426463
0.000406506
0.0160448
0.00677227
0.00670352
0.00670656
0.00448003
0.000721063
0.00670171
0.00204911
0.00680925
0.00669174
0.00269999
0.00669189
0.00679342
0.00680256
0.00670938
0.00686252
0.00268345
0.0100603
0.0013258
0.00676198
0.00669228
0.00690828
0.00676638
0.00536095
0.00675932
0.00240092
0.00681111
0.00682712
0.00271747
0.00669375
0.00670075
0.00670205
0.000379506
0.00672508
0.00672279
0.0104207
0.00681089
0.00683185
0.00278006
0.0068069
0.000678361
0.00672405
0.00670555
0.00688351
0.0109566
0.00678866
0.000426644
0.00669376
0.000506236
0.000688305
0.00681954
0.00109264
0.00680413
0.00402526
0.00440417
0.00669286
0.00588319
0.00679944
0.00672583
0.00140544
0.00365361
0.00586477
0.00669495
0.0112703
0.00669689
0.00679384
0.00565742
0.0046404
0.00561019
0.00669458
0.00392837
0.00140069
0.00686131
0.00688323
0.00253102
0.00672896
0.0022357
0.0161739
0.00173113
0.00606676
0.00681241
0.00673899
0.00678223
0.00671335
0.0067949
0.000688457
0.00681563
0.00132365
0.0067868
0.00681372
0.0066761
0.0045135
0.00670535
0.00114359
0.00735901
0.00543062
0.00670026
0.00685672
0.00687599
0.00174297
0.00400973
0.000413921
0.00249822
0.00678148
0.00620133
0.00513953
0.00478496
0.00711658
0.000553733
0.0146129
0.00177084
0.00701577
0.000326664
0.00680298
0.00671272
0.0052657
0.00681973
0.00671565
0.00253261
0.00674807
0.000605233
0.000787096
0.00673328
0.000680369
0.00561302
0.00671811
0.0019401
0.00540081
0.00649351
0.00672614
0.00816416
0.000763893
0.00677032
0.000526225
0.00670534
0.00180583
0.0198081
0.006708
0.00523667
0.00679688
0.00682841
0.00669571
0.00671663
0.00671657
0.00686149
0.00672778
0.00673399
0.00384971
0.00675156
0.00670027
0.00685182
0.00332379
0.00732615
0.000514761
0.00666986
0.00217856
0.00561026
0.00688003
0.000666232
0.0068581
0.00992823
0.00689852
0.00681063
0.00686697
0.00667248
0.00518908
0.00244228
0.00685583
0.00691123
0.00681732
0.00671461
0.00262258
0.00681481
0.00687487
0.00219703
0.00671257
0.00679995
0.000368843
0.00074526
0.00670775
0.00672211
0.00671729
0.000414835
0.00678962
0.0155436
0.0067062
0.0140972
0.00681399
0.00665082
0.0024707
0.00687054
0.00791036
0.00680863
0.00217428
0.00671457
0.00675273
0.00680329
0.00681744
0.00493653
0.00686404
0.00682312
0.00671133
0.00996435
0.00262786
0.00415766
0.00681332
0.00673134
0.00553603
0.00670778
0.00313829
0.00709952
0.00219428
0.00673091
0.00671067
0.00648588
0.000644759
0.00160122
0.00679712
0.0044976
0.0129029
0.00671167
0.00672482
0.0040236
0.00563807
0.00033053
0.00270667
0.00682058
0.0067115
0.00424364
0.00680012
0.0017569
0.00681039
0.00672209
0.00671781
0.00509276
0.0035885
0.00680862
0.00680634
0.00312706
0.000423026
0.00706727
0.00667199
0.0071273
0.00274819
0.00678226
0.00670985
0.00670998
0.0199333
0.00434158
0.000864403
0.00259453
0.00229799
0.00564338
0.00676286
0.000611682
0.00670992
0.00672372
0.0067932
0.00670433
0.00664823
0.00373348
0.00670576
0.00681661
0.00245091
0.00672993
0.000744849
0.00744249
0.00262089
0.00682039
0.00235985
0.00670213
0.00288069
0.00679361
0.0023219
0.00679776
0.00281472
0.0181723
0.00675657
0.00134683
0.00496938
0.0067779
0.00667883
0.00680841
0.00671737
0.000771953
0.00681736
0.0066248
0.00423522
0.0084781
0.00280397
0.000705171
0.00572557
0.00227289
0.00680866
0.00341165
0.0022045
0.00159758
0.00799515
0.000822655
0.00674868
0.00655725
0.000656208
0.00214175
0.0067467
0.00672255
0.00671417
0.00100905
0.000730649
0.0116329
0.00823904
0.00255425
0.0042658
0.0024694
0.00669896
0.00680463
0.00520083
0.00674773
0.00166174
0.00691277
0.00924456
0.00671273
0.00519514
0.006722
0.00681387
0.00525183
0.000390496
0.0108012
0.0017829
0.00742443
0.00681127
0.00673158
0.00674516
0.00668856
0.0120061
0.00673556
0.00676803
0.00410412
0.00681581
0.00674008
0.000368647
0.00668716
0.00671598
0.00680161
0.00193125
0.00682254
0.00207264
0.00675544
0.0067681
0.00681828
0.000398251
0.00406197
0.00674833
0.00672159
0.00654647
0.00671474
0.0068724
0.00529871
0.00598607
0.00246493
0.00674328
0.00628388
0.000401752
0.00677117
0.00705594
0.00310357
0.0067356
0.00621015
0.00657354
0.00682193
0.00675306
0.00418706
0.00681207
0.00671195
0.00671646
0.00166944
0.00679894
0.00499738
0.00684284
0.00671639
0.00665829
0.00679529
0.00069857
0.00162798
0.00468099
0.00682158
0.000387986
0.0067171
0.00672625
0.00691039
0.0018924
0.00671338
0.00224792
0.00680604
0.00281566
0.00340056
0.00287006
0.00758474
0.00077211
0.00668073
0.0187858
0.00681497
0.00670585
0.00210118
0.00671257
0.006297
0.00677483
0.00118207
0.00671266
0.000679642
0.00507097
0.000935463
0.00677514
0.00671796
0.000828963
0.00528529
0.00680206
0.00968473
0.00381151
0.00670493
0.00140812
0.000751531
0.0067159
0.00679245
0.00194348
0.00666418
0.0040186
0.0068167
0.00680812
0.00203279
0.00678806
0.00673561
0.0068047
0.00131234
0.0010362
0.00673099
0.00682794
0.00675362
0.000366749
0.00655667
0.00672494
0.00629952
0.0031378
0.00676208
0.000416808
0.00053351
0.00681532
0.00680415
0.00485243
0.000352998
0.0106853
0.00672804
0.0208563
0.00672767
0.00673304
0.00218112
0.00499638
0.00165576
0.00145161
0.00502414
0.00339441
0.0065242
0.000383005
0.00488688
0.00237635
0.00681198
0.00672481
0.00680922
0.0067294
0.000543424
0.00149572
0.00119872
0.004048
0.00681679
0.00681305
0.00679757
0.0056096
0.00680088
0.00676371
0.00671966
0.00264795
0.00671424
0.00679939
0.0141626
0.0181545
0.000597204
0.00681852
0.00685002
0.00192197
0.00681124
0.0179527
0.00071175
0.00659954
0.0036264
0.00382267
0.00618202
0.00514131
0.00172558
0.00261787
0.00679354
0.0157095
0.00680776
0.0115579
0.0173783
0.00306602
0.00679759
0.00231963
0.00670672
0.000750624
0.00124237
0.0149624
0.00485031
0.00680973
0.00676097
0.00949725
0.012145
0.0133303
0.00856256
0.00663972
0.00675772
0.00406844
0.00672208
0.00660689
0.00175126
0.00943633
0.00271603
0.00262531
0.00512022
0.00133105
0.00174554
0.00672514
0.00672511
0.00469872
0.00648181
0.00679808
0.00672032
0.00446996
0.00671351
0.00558199
0.00644684
0.000613503
0.000377937
0.00672575
0.00391499
0.0107651
0.00671941
0.00794068
0.00674488
0.00166577
0.00269671
0.00680039
0.00161651
0.000648667
0.000709944
0.00685059
0.0066976
0.00233003
0.00266672
0.000582055
0.00671283
0.000587391
0.00671326
0.000737238
0.00694068
0.00678424
0.000412786
0.00687365
0.00560437
0.00688387
0.0033502
0.00677087
0.00844922
0.0114847
0.00500961
0.00695049
0.00688281
0.00232813
0.00682158
0.00487667
0.00671529
0.00669642
0.00436248
0.00681748
0.00687066
0.00526106
0.017879
0.00679029
0.000842172
0.00678837
0.0015665
0.00807494
0.00670349
0.00671825
0.0196704
0.00236402
0.0156146
0.0013869
0.00681882
0.00671884
0.00680463
0.00369284
0.0068021
0.00677269
0.000807307
0.00216317
0.00677903
0.00543953
0.00598343
0.00328322
0.000449944
0.00674061
0.00048029
0.0126974
0.0067344
0.0100299
0.00197191
0.000439295
0.00848451
0.00680173
0.00680548
0.00686199
0.00488069
0.00101321
0.00678695
0.00556261
0.000842115
0.00681826
0.00170542
0.00681208
0.00192274
0.0187669
0.00906831
0.0059767
0.00802834
0.00196027
0.0112659
0.0037681
0.00672184
0.0027056
0.00791918
0.00685315
0.000966187
0.00678064
0.000917509
0.00675663
0.0068187
0.0221421
0.0068562
0.00256787
0.00683145
0.000830671
0.00673537
0.00671077
0.00576476
0.00316875
0.00671415
0.00680466
0.0015439
0.000744789
0.00539904
0.00682233
0.00192795
0.00524266
0.00676897
0.00707396
0.000375953
0.00675977
0.0197436
0.00673242
0.000556939
0.00672893
0.00678591
0.000402392
0.00460952
0.00766049
0.00531829
0.00671085
0.0190984
0.00672892
0.00669857
0.00676854
0.00672356
0.00243731
0.00283239
0.0061102
0.00685974
0.00647958
0.00675078
0.0067276
0.00746535
0.00678966
0.00674559
0.00343695
0.00677999
0.000437686
0.00672502
0.00670071
0.00673711
0.00678205
0.00671892
0.000513649
0.00354279
0.00168338
0.00670462
0.00654886
0.00409816
0.00675149
0.00433932
0.00671042
0.000527378
0.00154692
0.00671472
0.00937301
0.0193625
0.00682974
0.00588724
0.00687613
0.0115398
0.00160799
0.00673169
0.00213557
0.00288654
0.00615135
0.0068441
0.00287912
0.00947304
0.00093857
0.00504274
0.00671861
0.0126086
0.000572568
0.000668472
0.00671349
0.0055935
0.00679939
0.00680662
0.00674148
0.00690792
0.0066985
0.00608
0.00654794
0.00675631
0.00669169
0.00683947
0.00681947
0.000979649
0.000642386
0.00675768
0.00307575
0.00681696
0.00681717
0.00679892
0.00672356
0.00556761
0.00669412
0.00671556
0.00686376
0.00681681
0.00660851
0.00679883
0.000380605
0.00180506
0.0047774
0.00671363
0.000371604
0.0066987
0.00669481
0.00679339
0.00520746
0.00389949
0.00680177
0.00674159
0.006706
0.00330842
0.0066921
0.00324262
0.00672305
0.00682085
0.00673699
0.00494943
0.0122016
0.00672144
0.00681196
0.00677296
0.000731568
0.0150753
0.00298314
0.00680319
0.00672302
0.00635505
0.00552628
0.000698954
0.0068655
0.012554
0.00681122
0.00215056
0.00676469
0.00674525
0.00677335
0.00602023
0.00676464
0.00326945
0.00701437
0.0003775
0.00138802
0.00690008
0.00677611
0.00688808
0.00676477
0.00220532
0.000494921
0.00915935
0.00198875
0.00675691
0.00669447
0.00688757
0.00673314
0.0067664
0.00681373
0.00141708
0.00669291
0.00447695
0.00675494
0.00673476
0.0016901
0.00672046
0.000396175
0.00205005
0.00194649
0.000405502
0.000447609
0.00221059
0.00672822
0.00669537
0.00680719
0.00671766
0.00546773
0.00109274
0.000457828
0.00673511
0.00681491
0.00673429
0.00677259
0.000667796
0.00548776
0.0066974
0.00676869
0.00683164
0.00673977
0.00673627
0.00679995
0.000378625
0.00675574
0.00678601
0.00673403
0.00669837
0.00674475
0.0068019
0.00361475
0.00669796
0.00689378
0.00674257
0.00486876
0.000454648
0.00512428
0.00507387
0.00674112
0.00610316
0.000855572
0.00794512
0.00674579
0.00676171
0.00669217
0.00706
0.00686073
0.00222103
0.00341272
0.0068117
0.0067933
0.00673441
0.00298024
0.00697636
0.00685789
0.00678289
0.00645616
0.00337308
0.00673056
0.000692396
0.00673218
0.00670836
0.0050185
0.00408998
0.00891743
0.011481
0.000356107
0.00671663
0.00838482
0.00126762
0.00558224
0.00676564
0.00124976
0.00660599
0.00103133
0.00417176
0.00685258
0.00671704
0.0067371
0.00677371
0.006722
0.00444237
0.00906849
0.00669234
0.0068147
0.00680839
0.00174139
0.00677769
0.00679488
0.00676192
0.00679322
0.00679257
0.00847239
0.000543971
0.000559995
0.00671354
0.00671233
0.00669703
0.0067552
0.00684709
0.00684968
0.00673316
0.00674375
0.00682988
0.0125871
0.00669676
0.00672032
0.000753115
0.00673988
0.00670399
0.00672576
0.00195595
0.00670986
0.0067364
0.00669875
0.00690846
0.00670694
0.00585359
0.000388177
0.00672168
0.000719576
0.00576097
0.00038334
0.00105017
0.00670944
0.005041
0.00673519
0.00670284
0.00670589
0.00870012
0.0164768
0.00685271
0.00418708
0.0112491
0.000659456
0.00679254
0.000493332
0.00278857
0.00656717
0.00675384
0.0048164
0.00445692
0.00678469
0.00676825
0.000588608
0.00205053
0.0101232
0.0067048
0.000509464
0.0133996
0.00688678
0.00214829
0.00368456
0.00673617
0.00168928
0.0086066
0.00666551
0.0044948
0.00292712
0.0162959
0.000518595
0.00677716
0.0068815
0.006805
0.000593635
0.00588041
0.00680851
0.010653
0.00587613
0.00152029
0.00358344
0.020611
0.0067025
0.00159931
0.00663977
0.00676671
0.00673182
0.00678263
0.00676617
0.00673637
0.00682262
0.000689166
0.00672931
0.00443468
0.0042602
0.00680364
0.00680613
0.000510031
0.00676094
0.00681501
0.00683104
0.00998968
0.0030766
0.00469953
0.00680222
0.000204684
0.00670253
0.00237202
0.00679732
0.0084443
0.00204665
0.0163118
0.00384533
0.00680188
0.00643585
0.0105961
0.0051721
0.00669772
0.00672503
0.00142928
0.00645757
0.0066941
0.00152895
0.00683483
0.00305591
0.00672871
0.00672375
0.00679903
0.00639147
0.00674964
0.00161071
0.0015668
0.00653226
0.00039371
0.00424774
0.00586464
0.0102673
0.00677285
0.000436242
0.000462259
0.000412813
0.00672013
0.00678738
0.00679389
0.00946703
0.00688421
0.0067451
0.000514358
0.00681078
0.00679526
0.00682509
0.00666523
0.00672856
0.0181194
0.0128029
0.000856571
0.00670398
0.00677042
0.000939013
0.00677549
0.00666859
0.00681664
0.00678824
0.00546726
0.00657855
0.0003648
0.00682263
0.0067571
0.0208644
0.00682029
0.00681422
0.00127152
0.000637372
0.00756428
0.00673774
0.00681235
0.0081934
0.00785898
0.00283326
0.006821
0.00216452
0.000352543
0.00676076
0.00562141
0.00661955
0.0083794
0.00412255
0.00678015
0.00676063
0.00676999
0.00357981
0.00675415
0.00679541
0.0142784
0.00665126
0.00437627
0.00676528
0.00591463
0.0067592
0.00672368
0.00673316
0.00674482
0.00678354
0.00681602
0.00676975
0.00682085
0.00169238
0.00281836
0.0069007
0.0067958
0.00445457
0.00673581
0.0203677
0.00681573
0.0067705
0.00685983
0.00677171
0.00681899
0.0067487
0.00680169
0.00675106
0.00677491
0.00673224
0.00814376
0.00495955
0.00680945
0.00153435
0.00245287
0.00687143
0.00680776
0.00589556
0.0102039
0.00676065
0.0067731
0.00669255
0.00671822
0.0110891
0.00678776
0.00674316
0.00103441
0.00669826
0.00675605
0.00759187
0.00782973
0.00137337
0.000383551
0.0161079
0.00677915
0.00399021
0.00573017
0.00674252
0.00669828
0.00679662
0.00672635
0.00408223
0.000914431
0.00549414
0.00688472
0.0217095
0.00142973
0.0200221
0.00572691
0.00843204
0.00156279
0.0067987
0.000777613
0.00195952
0.00670658
0.00414756
0.00670507
0.00498005
0.000380331
0.00676887
0.00451151
0.00316274
0.00498761
0.0068045
0.00502436
0.00672921
0.00550327
0.00672657
0.0067471
0.0114133
0.00676245
0.00682915
0.00622488
0.00118865
0.00670874
0.00671727
0.00495213
0.00720525
0.0068063
0.0067869
0.00675949
0.00492396
0.00672173
0.00562031
0.00463694
0.0067442
0.00276589
0.00681989
0.00661075
0.0069043
0.00670559
0.00585697
0.000471396
0.0068168
0.00680147
0.00654509
0.0198685
0.00678121
0.00670954
0.00671929
0.00512964
0.00137336
0.00675263
0.00670537
0.00674169
0.00669799
0.00672058
0.00675818
0.00296553
0.00677006
0.00107473
0.00681373
0.0174584
0.00675639
0.00690849
0.0044349
0.00108203
0.00671344
0.000639042
0.00695583
0.00670525
0.00850046
0.00681469
0.00230949
0.00671384
0.000416173
0.00679946
0.00673125
0.00671152
0.00475162
0.00154152
0.00681582
0.00119133
0.00670937
0.00679696
0.00670272
0.000402959
0.00686848
0.00670345
0.00680194
0.00527839
0.00672085
0.00679695
0.0067511
0.00679738
0.00681536
0.00673014
0.0055419
0.00676407
0.00842874
0.000793905
0.0067519
0.00418449
0.00444373
0.00672409
0.00676274
0.00688374
0.00677456
0.00301108
0.00261004
0.00308975
0.00306099
0.00681904
0.000596463
0.000412033
0.00674079
0.0067998
0.000538719
0.00659289
0.0204294
0.00670481
0.00675728
0.0067707
0.00679197
0.00681651
0.00280486
0.00670584
0.00691645
0.00677539
0.00658464
0.00680328
0.000413158
0.00677859
0.00307843
0.00653506
0.00680696
0.00878121
0.0103091
0.00670747
0.00320368
0.00459899
0.00676183
0.00148111
0.00679209
0.00521568
0.0108991
0.00246491
0.00556745
0.00685979
0.00451404
0.00679328
0.00377794
0.00677113
0.000666859
0.0066199
0.00688156
0.00675849
0.00455233
0.00146355
0.00672885
0.00674773
0.000423363
0.0068266
0.00670242
0.00349851
0.00089214
0.00670428
0.00115304
0.00669947
0.00494996
0.000898109
0.00672454
0.00673243
0.00671759
0.00228388
0.0067367
0.00567131
0.00673012
0.00672283
0.00671175
0.015272
0.00679814
0.00680143
0.0068101
0.000918912
0.00603468
0.00674062
0.00672271
0.000447983
0.00672306
0.0066915
0.00158701
0.000619765
0.00584216
0.000381339
0.00673503
0.00102248
0.00679973
0.000870445
0.00912808
0.00686412
0.00683622
0.0067437
0.00508627
0.00673499
0.0134925
0.0026564
0.00669414
0.00677872
0.00670633
0.0067687
0.0222991
0.00673687
0.00665969
0.00541378
0.00277584
0.00673629
0.00681956
0.00319507
0.00963875
0.00681733
0.00680331
0.00671794
0.00672708
0.00522167
0.000933428
0.00681467
0.00672848
0.00681503
0.00680183
0.00674248
0.0182294
0.00681932
0.00681135
0.00672504
0.000884408
0.00670134
0.00669153
0.00506859
0.0067967
0.00256183
0.00678405
0.00674043
0.0105392
0.00549531
0.00211521
0.00867079
0.00682528
0.00681344
0.0188284
0.00676214
0.00312139
0.00676146
0.00510579
0.00667295
0.00474795
0.00673806
0.00957449
0.00139208
0.0068478
0.0143493
0.00676484
0.00144116
0.00681507
0.00680618
0.0211064
0.00263415
0.00671123
0.00669916
0.00520261
0.00469218
0.00672049
0.00681548
0.0067628
0.0067706
0.0006224
0.0172459
0.00681862
0.00694078
0.000724978
0.00687276
0.00661141
0.00683163
0.00507672
0.00311265
0.00670911
0.00679296
0.00322864
0.00670867
0.00670421
0.00679856
0.00335612
0.000479669
0.00561548
0.00681291
0.00682171
0.00388451
0.00673165
0.00297041
0.00165576
0.00446403
0.00670353
0.00517744
0.00669401
0.00672926
0.00599107
0.00677786
0.0068149
0.00671527
0.00875078
0.00670683
0.00395687
0.00679779
0.00671016
0.0067157
0.00694991
0.00624265
0.00114551
0.000978502
0.00675079
0.0194169
0.00691928
0.00673264
0.00673861
0.0141613
0.000971807
0.00674425
0.00674706
0.00679646
0.00679273
0.00038713
0.00393259
0.00681825
0.00677213
0.00038622
0.0131171
0.00680304
0.00672149
0.000903736
0.00452005
0.00474072
0.00521839
0.00673065
0.00083268
0.00688892
0.00581756
0.00666155
0.0055057
0.00671002
0.00679683
0.0068598
0.00678649
0.00502528
0.0068208
0.00678325
0.00670852
0.00679649
0.00680039
0.00681304
0.00681779
0.00538376
0.00681107
0.00672999
0.00679749
0.00249225
0.00700838
0.00671001
0.00675249
0.000654915
0.00679926
0.00686453
0.00680416
0.00947146
0.00669199
0.00167048
0.0066727
0.00673667
0.0068062
0.00752122
0.00315345
0.00677484
0.00671903
0.00424835
0.00307377
0.00670969
0.00336965
0.00153552
0.00670596
0.000493888
0.00676446
0.00671281
0.00682232
0.00679719
0.00289879
0.00245941
0.0068701
0.00707725
0.00674403
0.00674217
0.00679184
0.00211893
0.00608967
0.00631154
0.0067115
0.00672948
0.00671842
0.000647101
0.00679918
0.00679568
0.00678339
0.000409379
0.00669294
0.0159163
0.00670763
0.00702949
0.0068019
0.00193936
0.00670601
0.00451446
0.00534657
0.00644222
0.0067434
0.00307446
0.00675328
0.00686946
0.0158772
0.00577321
0.00670135
0.00671873
0.00656038
0.00670862
0.00680671
0.00557156
0.0068043
0.00676595
0.000948752
0.0063885
0.00436929
0.00659932
0.00681819
0.00670511
0.00671016
0.00690921
0.00578656
0.00672565
0.00616908
0.00679672
0.0171608
0.00129962
0.00677855
0.00676339
0.00675742
0.000363943
0.00679333
0.00549436
0.00681221
0.00680558
0.00712314
0.00665496
0.00668501
0.00680177
0.00678353
0.00394667
0.00674738
0.00664894
0.00671218
0.00689944
0.00669249
0.00681551
0.00791913
0.00682168
0.0100018
0.00670952
0.00764644
0.00676863
0.0157951
0.00084475
0.00326149
0.00674816
0.00675713
0.00127939
0.00683553
0.0106197
0.00485065
0.00287932
0.00618438
0.00797863
0.0119715
0.00441525
0.00668302
0.00671628
0.00669437
0.00553849
0.00676567
0.00681094
0.00535115
0.00670853
0.00646673
0.00331476
0.0138758
0.00673176
0.00648523
0.00669527
0.00672169
0.00679743
0.000488512
0.00681444
0.00463375
0.00682709
0.006794
0.0176896
0.00671535
0.00546891
0.00676028
0.00671088
0.00265089
0.0063916
0.0134848
0.0067277
0.000900032
0.00495551
0.00671067
0.00679021
0.00651974
0.0068685
0.0067263
0.00421209
0.00671283
0.00746071
0.00670749
0.000468995
0.00103809
0.000711024
0.00323694
0.0011943
0.00772112
0.00676711
0.010883
0.00671996
0.00304519
0.00681648
0.00548576
0.0164262
0.0178363
0.00335633
0.00816844
0.00671236
0.0122192
0.00668872
0.00215683
0.00670402
0.0067928
0.00293844
0.00678497
0.00671317
0.00680168
0.00679143
0.00237624
0.0133386
0.00379275
0.00735054
0.00685176
0.0170588
0.00673236
0.00677309
0.00679962
0.00688475
0.0112376
0.00681224
0.0067092
0.00123461
0.00612221
0.0173048
0.000901323
0.00672281
0.0033993
0.00512349
0.0067346
0.00675542
0.00386566
0.00671741
0.00082773
0.00480473
0.00673664
0.00668993
0.0067093
0.00691532
0.000808036
0.00680669
0.00675872
0.00438505
0.00677743
0.00673728
0.0210944
0.00255298
0.00372208
0.00504112
0.000893196
0.00303646
0.00672676
0.00641167
0.0067862
0.00670833
0.00560926
0.00692967
0.00751209
0.0016138
0.00681261
0.000357257
0.00237365
0.00679418
0.00683738
0.00642264
0.0201349
0.00671323
0.00678227
0.00681906
0.00726005
0.0100586
0.00677375
0.00455865
0.00681785
0.00670874
0.00677681
0.00600627
0.00494694
0.00687166
0.0105281
0.00678702
0.00673384
0.00403202
0.00674757
0.00672486
0.006798
0.000826455
0.000576858
0.00681575
0.00665377
0.00035904
0.00679735
0.00680847
0.00435413
0.00679972
0.013793
0.0127859
0.0051855
0.000746648
0.0148497
0.00675285
0.00670675
0.00778671
0.00695844
0.00255744
0.00680018
0.00670074
0.0174336
0.00331551
0.00670743
0.00672278
0.00279945
0.00610186
0.0066895
0.0067689
0.0197765
0.00468854
0.00182187
0.00669812
0.003534
0.00669678
0.00669899
0.00281659
0.00670907
0.00798204
0.00598072
0.00496429
0.00061613
0.0127836
0.000612681
0.00670916
0.000740261
0.00359265
0.00680154
0.00677225
0.00674429
0.00678018
0.00674983
0.00641537
0.0039179
0.00606114
0.0067323
0.000368487
0.00669753
0.00632072
0.000876809
0.00396364
0.000401568
0.00684505
0.00496824
0.00427083
0.0202816
0.00671129
0.0161479
0.00150059
0.00670003
0.00675395
0.0060538
0.015361
0.00678296
0.00671136
0.00676713
0.00675852
0.0187234
0.000340041
0.00667154
0.00672896
0.00670837
0.000391533
0.00105196
0.0189134
0.00672593
0.000495422
0.00681419
0.000892172
0.0139391
0.00686106
0.00676787
0.00679565
0.017446
0.0067164
0.00670596
0.00675366
0.00665862
0.00663405
0.00870744
0.00646455
0.00681925
0.00671853
0.00269656
0.000363517
0.00158401
0.00670852
0.00679514
0.000397114
0.00101024
0.00677152
0.00508141
0.00232527
0.00492278
0.0219485
0.00423217
0.0029016
0.00646178
0.00759412
0.00678689
0.00681486
0.0173517
0.00277929
0.00670567
0.00671185
0.00669625
0.00184599
0.000570709
0.00672533
0.00670775
0.00679358
0.000700865
0.00691389
0.0066854
0.00672287
0.00671254
0.00711827
0.00119553
0.00679821
0.00680131
0.0182396
0.00672661
0.00862512
0.00557393
0.00265352
0.00663956
0.00677024
0.00675194
0.0104306
0.000653636
0.000644813
0.00905685
0.00565457
0.00671175
0.00308925
0.00673959
0.000620476
0.016317
0.00708177
0.00671071
0.00498174
0.000588681
0.0067318
0.00679869
0.0166473
0.00671987
0.00685049
0.00680625
0.00678163
0.00675068
0.000926469
0.000390709
0.00674361
0.00670943
0.00332612
0.00673003
0.00678787
0.0067078
0.00675256
0.0022404
0.00725381
0.00474523
0.00688086
0.00620188
0.00678607
0.00212314
0.000433333
0.00477358
0.000626634
0.00684867
0.0041504
0.00912079
0.00670852
0.00669026
0.00680333
0.00674324
0.00681479
0.00671847
0.00674512
0.0161041
0.00682281
0.00672245
0.00686975
0.00675666
0.00719658
0.00681547
0.0171766
0.000480512
0.00696856
0.00336558
0.00809589
0.00682061
0.00675777
0.00502461
0.00670507
0.00596973
0.00683712
0.00681605
0.0023543
0.00669508
0.00674474
0.00218416
0.000674545
0.00681504
0.00670529
0.000362602
0.00677976
0.00652902
0.00671219
0.00670811
0.00689255
0.0204883
0.00682536
0.000832918
0.00121018
0.00698194
0.00670393
0.00679493
0.00664762
0.0134157
0.00674358
0.00157186
0.00672026
0.016437
0.000391985
0.00675228
0.000367703
0.00678435
0.00470636
0.00654672
0.000451622
0.00726257
0.00336522
0.00349029
0.0126669
0.00681859
0.00199967
0.00673908
0.00328347
0.00042383
0.000687037
0.00680245
0.0019682
0.0134917
0.0115623
0.00674386
0.00514838
0.0145475
0.0144965
0.00673926
0.000779114
0.00676191
0.00371933
0.00680815
0.00683387
0.00682653
0.0123173
0.00681813
0.00599991
0.000946398
0.0127403
0.0068318
0.000408252
0.00711623
0.00672737
0.0127289
0.000867921
0.00676039
0.00671184
0.016732
0.00682974
0.00675441
0.00671154
0.00203687
0.00669823
0.00671961
0.000597071
0.00678484
0.00681864
0.00670567
0.00672071
0.00516299
0.00679689
0.0217185
0.00717118
0.00635595
0.00678836
0.00204202
0.00655358
0.0068037
0.00681055
0.0153011
0.000508551
0.00671808
0.00358608
0.00669811
0.00670705
0.00331322
0.000378889
0.00670867
0.00679472
0.0162818
0.00540712
0.0043731
0.00696892
0.00683687
0.0117039
0.0067771
0.00428897
0.00447816
0.00679159
0.0223189
0.00366047
0.00209978
0.0070367
0.00227314
0.00675207
0.00673098
0.00672222
0.00368695
0.00458536
0.00670931
0.00178784
0.00326851
0.000562403
0.00679943
0.00464752
0.000462188
0.00679726
0.00424227
0.00961183
0.00672074
0.00672601
0.00679972
0.00031339
0.00679676
0.00690382
0.00681304
0.00638701
0.00225905
0.0137452
0.00675584
0.00672859
0.00263313
0.00680952
0.00763548
0.00675343
0.000463182
0.00040474
0.00670675
0.00676981
0.00826799
0.000718384
0.0119685
0.00669938
0.00671216
0.00684417
0.00674784
0.00672953
0.00671945
0.00692853
0.0067919
0.00674534
0.00672526
0.00106876
0.00661836
0.00607738
0.0102737
0.000815012
0.00108061
0.00326627
0.00216288
0.000711036
0.00314083
0.00677971
0.00268097
0.00672614
0.0142834
0.00677672
0.0066935
0.00679593
0.0105974
0.00680464
0.0100089
0.00682021
0.0067026
0.00129683
0.00675215
0.00672781
0.006753
0.00781991
0.000801989
0.0068111
0.00679259
0.00459646
0.00357709
0.00110085
0.0166114
0.00679769
0.00260398
0.00681662
0.00676336
0.00674564
0.00670144
0.00671277
0.00715278
0.00939414
0.00676854
0.00678961
0.000422869
0.00332405
0.000395372
0.00680417
0.000506743
0.0015507
0.00572972
0.00671023
0.00679072
0.0070259
0.00561033
0.00669296
0.00677453
0.00670198
0.00671295
0.000400188
0.00689911
0.000844053
0.00685608
0.00668737
0.00712346
0.00671832
0.0090203
0.00682578
0.00698799
0.00619445
0.00607588
0.00501826
0.00084721
0.0166586
0.00671055
0.00160265
0.000560281
0.0067077
0.0068145
0.00126066
0.00668797
0.0213829
0.00674541
0.00680429
0.000878551
0.0067086
0.00671017
0.00690927
0.00685583
0.00675118
0.00552531
0.00679393
0.00669905
0.006746
0.00680735
0.00115547
0.00678581
0.000607008
0.00673906
0.00671734
0.00251902
0.00183835
0.00679556
0.00669469
0.00672022
0.00688671
0.00190869
0.00255505
0.00151161
0.00667992
0.00563832
0.00671922
0.00380692
0.00672139
0.00684469
0.000447206
0.000359254
0.00104308
0.00670695
0.00681304
0.00676922
0.00669849
0.00216924
0.00670019
0.00112663
0.00657053
0.000690255
0.00564466
0.000390266
0.00681401
0.000811963
0.0186952
0.0145069
0.00617338
0.00428132
0.0173835
0.000665128
0.00666939
0.00149961
0.000926848
0.00679073
0.00669976
0.0067472
0.00417076
0.00234978
0.00680291
0.00660162
0.00577029
0.0066713
0.00673535
0.00048965
0.0155653
0.000451458
0.00690634
0.0112089
0.00608117
0.000882622
0.00661512
0.00656636
0.00698251
0.00688769
0.00921074
0.00540216
0.00339234
0.00682401
0.00673556
0.00706357
0.0067976
0.0144447
0.0066895
0.00672477
0.00672317
0.00994274
0.00873039
0.00675491
0.00681273
0.00676501
0.00677845
0.0172163
0.00684018
0.00679072
0.00513041
0.00138443
0.00669805
0.000663823
0.0152152
0.0152766
0.00677148
0.00617797
0.00680184
0.00812402
0.00669745
0.00679697
0.00688417
0.000626188
0.0038986
0.00381457
0.000631928
0.0051474
0.00667819
0.00625128
0.00390324
0.0067226
0.00669901
0.00332179
0.00680705
0.0104748
0.0066992
0.00678034
0.00672879
0.00671756
0.00843494
0.00671456
0.00668414
0.0068245
0.00518896
0.00468681
0.00094611
0.00519457
0.00442637
0.000574787
0.00679607
0.006719
0.000724025
0.00121334
0.0066842
0.00184894
0.00447537
0.0123165
0.00671714
0.00386197
0.00687571
0.00674798
0.00668586
0.00668499
0.00672409
0.00670716
0.0024355
0.000874632
0.00681789
0.00671212
0.00673483
0.00689419
0.00346972
0.01056
0.00678543
0.0066559
0.0069373
0.0174129
0.00681772
0.00208806
0.00671813
0.00671596
0.00217172
0.00672025
0.00679809
0.00679454
0.00677363
0.00108767
0.00671275
0.00671467
0.00811207
0.00935966
0.00360721
0.00684148
0.0067744
0.0051051
0.0154001
0.00497737
0.0068164
0.00681406
0.00267103
0.00575593
0.00681516
0.0132029
0.00679624
0.00417159
0.00685227
0.00680063
0.0067502
0.00103926
0.00282544
0.00674417
0.00673086
0.00679893
0.0067099
0.00629271
0.00684677
0.00672062
0.00667951
0.0068002
0.00668567
0.00674803
0.000610154
0.00674941
0.00691772
0.0041575
0.000371019
0.00670874
0.00548825
0.000947932
0.00606075
0.00102031
0.00679797
0.00681877
0.00658887
0.00671652
0.00678141
0.00862038
0.00678066
0.0185633
0.0124153
0.000716771
0.000379595
0.00672754
0.00317875
0.0205776
0.00675117
0.00675988
0.00725241
0.00842969
0.00670717
0.00670599
0.00530101
0.00679148
0.00045534
0.00497207
0.0119979
0.00676501
0.00681355
0.00675222
0.00681932
0.0117586
0.00284169
0.00731172
0.00414636
0.0063884
0.0224578
0.00674021
0.0067056
0.00670482
0.00670857
0.00614336
0.0125078
0.00670334
0.0096066
0.00678764
0.0067698
0.00671738
0.00229419
0.0067928
0.0159273
0.0067517
0.0067491
0.00545949
0.00668461
0.00983055
0.00470465
0.00302954
0.0188888
0.0109969
0.00232973
0.0140932
0.00682667
0.0156636
0.00318094
0.00671499
0.00598024
0.00686044
0.0136498
0.0179907
0.00681872
0.00658188
0.00777484
0.00672942
0.00671204
0.00400725
0.0107251
0.00829791
0.00681388
0.00676172
0.000636664
0.00664872
0.000653551
0.000674506
0.000771486
0.00668434
0.000406333
0.00681659
0.00702555
0.000996562
0.00275358
0.00472787
0.000702015
0.0092016
0.00668992
0.00311401
0.00677609
0.00668113
0.000386087
0.00671735
0.00641216
0.00672024
0.000852924
0.00673882
0.000611513
0.006685
0.00679902
0.00984962
0.00312508
0.0044485
0.012671
0.00630086
0.0066863
0.00645104
0.000519909
0.00383283
0.000491379
0.00671849
0.00533686
0.00682194
0.00102868
0.00673899
0.0068139
0.00671175
0.00932488
0.00161979
0.00681332
0.009822
0.00678671
0.00680089
0.0035802
0.00227734
0.00671858
0.0032133
0.00679493
0.0223351
0.00678589
0.00127697
0.00672045
0.00101562
0.00671754
0.00090408
0.00405119
0.00505905
0.00670331
0.00682123
0.0058035
0.00668988
0.00659329
0.00626362
0.00676801
0.000870986
0.000493148
0.00071455
0.00677179
0.00670779