/*--------------------------------*- C++ -*----------------------------------*\
| =========                 |                                                 |
| \\      /  F ield         | OpenFOAM: The Open Source CFD Toolbox           |
|  \\    /   O peration     | Version:  v2012                                 |
|   \\  /    A nd           | Website:  www.openfoam.com                      |
|    \\/     M anipulation  |                                                 |
\*---------------------------------------------------------------------------*/
FoamFile
{
    version     2.0;
    format      ascii;
    class       volScalarField;
    location    "300";
    object      omega;
}
// * * * * * * * * * * * * * * * * * * * * * * * * * * * * * * * * * * * * * //

dimensions      [0 0 -1 0 0 0 0];


internalField   nonuniform List<scalar> 
18355
(
1.72126
0.0204281
0.219106
0.02101
0.0378482
0.155714
0.0215741
0.0405575
0.021967
0.407167
0.0258036
0.117887
0.125879
1.05937
0.021074
0.020192
0.0210065
0.0239433
0.164972
0.0225161
0.139667
0.0219327
0.0204565
0.201643
0.0204671
0.0221112
0.0216202
0.0210155
0.0221542
0.0265723
0.825805
0.0444296
0.0203346
0.0200656
0.021165
0.022208
0.0262982
0.0222857
0.0270748
0.0218673
0.0221601
0.0264271
0.020084
0.0204148
0.0204247
0.260196
0.0209928
0.020982
0.836589
0.0212503
0.0208294
0.807503
0.0212968
0.114549
0.0212872
0.0225447
0.021192
1.29159
0.0222095
0.485517
0.0200757
0.078732
0.113105
0.0213306
0.0533457
0.0206266
0.0237011
0.0263578
0.0200194
0.538965
0.0209413
0.0212871
0.037608
0.024805
0.0588249
0.0200393
1.23607
0.0200494
0.0209124
0.0563456
0.0236632
0.0518744
0.0200301
0.0247179
0.0427894
0.0216869
0.0222588
0.0351414
0.0208719
0.0351797
1.0922
0.113806
0.0474212
0.0212453
0.508795
0.0218732
0.0208595
0.0213345
0.0615254
0.0218639
0.0407332
0.0208808
0.0211983
0.0195642
0.0239054
0.0202022
0.0530154
0.533857
0.0301043
0.0201486
0.0207981
0.0214383
0.0318783
0.0244893
0.292037
0.0275124
0.0208576
0.0621162
0.0229291
0.023502
0.594573
0.218597
1.08368
0.039369
0.0520412
0.276629
0.021618
0.0210396
2.30707
0.0216757
0.0208634
0.644972
0.0212712
0.068456
0.0731776
0.0208615
0.166978
0.531956
0.0211915
0.124178
0.0247281
0.0348937
0.0209566
2.07624
0.0729089
0.0216525
0.490927
0.0196141
0.0316524
0.318585
0.0210087
0.0234386
0.0213614
0.0264306
0.0200945
0.0205767
0.0210532
0.0216767
0.0209633
0.0206724
0.0243602
0.0212775
0.0201565
0.0290966
0.0252954
0.344956
0.548309
2.27744
0.236531
0.0247101
0.0213351
0.0638201
0.0215613
0.809907
0.021242
0.0221223
0.0213551
0.019528
0.0225814
0.028253
0.0217364
0.320187
0.0218113
0.0210382
0.168367
0.0211855
0.021736
0.0346667
0.021347
0.0217233
0.264353
0.0619686
0.020456
0.0200461
0.021408
0.300593
0.020539
2.46436
0.0204371
1.07873
0.0211511
0.0230174
0.0272799
0.0216481
2.20314
0.0215873
0.234547
0.0210335
0.0202893
0.0212576
0.0215727
0.0583022
0.0223495
0.0218883
0.0196246
0.800349
0.0283203
0.0246934
0.0216074
0.0209956
0.0294074
0.0199686
0.0335178
0.0250686
0.073143
0.0238271
0.0199889
0.549955
0.134829
0.0337835
0.0213514
0.0239209
0.359998
0.0199802
0.0297691
0.0297954
0.0219704
0.266813
0.0243253
0.021918
0.0204532
0.0224927
0.021609
0.032357
0.0215845
0.0212924
0.020984
0.0565666
0.0999772
0.0210205
0.0217276
0.0969334
0.149952
0.0255824
0.0195332
0.0332276
0.0243091
0.021746
0.0237646
0.0208071
0.317284
0.184253
0.0561894
0.0281446
0.027883
0.0364113
0.0320358
0.0672359
0.0207996
0.0212939
0.0219018
0.020147
0.02301
0.0248238
0.0209769
0.0215787
0.0296033
0.02085
0.0620071
0.446619
0.0279397
0.0216013
0.0282807
0.020137
0.0354125
0.021533
0.0292644
0.0218751
0.0285657
0.316169
0.0203132
0.0395146
0.0227919
0.0238795
0.032194
0.0212995
0.0200315
0.0582069
0.0215751
0.0340948
0.0263415
0.802247
0.0357517
0.0576157
0.0233734
0.0310264
0.0211806
0.0236433
0.0277371
0.0394014
0.281685
0.326431
0.021076
0.0241444
0.0935789
0.0289456
0.0210713
0.0209737
0.0209953
0.0443855
0.320583
3.26981
0.306524
0.029398
0.0244641
0.190772
0.0196115
0.0215642
0.0244226
0.0213704
0.0338972
0.0210617
0.452359
0.0202212
0.0774509
0.0213531
0.0218239
0.0236545
0.137343
2.36614
0.032474
0.270521
0.0219424
0.0208813
0.0213616
0.0239676
0.415927
0.0209049
0.0214746
0.161149
0.0218736
0.0209052
0.153282
0.0236131
0.0209899
0.0212482
0.0301035
0.0222714
0.0300158
0.0200529
0.021466
0.0218237
0.420521
0.0705015
0.0200301
0.0209416
0.032532
0.021003
0.0214708
0.351563
0.0522229
0.0316914
0.0213455
0.0220175
0.126466
0.0219951
0.0329174
0.0236953
0.0202578
0.0329805
0.0311506
0.0217397
0.0213459
0.0240029
0.0214544
0.0233649
0.0214029
0.0599667
0.0216248
0.0232185
0.0208745
0.0209967
0.0228764
0.0221223
0.0583605
2.76981
0.170207
0.0227059
0.149164
0.0265309
0.0213717
0.0209998
0.0374151
0.0213465
0.0328508
0.0214476
0.0265637
0.125315
0.257759
2.06335
0.0594102
0.0195734
2.32589
0.0218651
0.0209669
0.140927
0.0213174
0.028312
0.0202155
0.0578293
0.0213124
0.0618428
0.20586
0.0524584
0.0212755
0.0204576
0.0542983
0.0229358
0.0209963
0.388562
0.121853
0.020961
0.0380498
0.0584551
0.0204527
0.0221298
0.0310484
1.3092
0.0348929
0.0218732
0.0212189
0.033728
0.0212805
0.0201923
0.0211318
0.143221
2.29305
0.0202428
0.0220892
0.0214967
0.14504
0.0308654
0.0200298
0.0283964
0.0337485
0.0214798
0.302149
0.0783367
0.0218483
0.0214367
0.0338995
0.151044
0.955987
0.0202217
2.40624
0.0212362
0.0202361
0.0376337
0.0230654
0.0625445
0.0376877
0.0233523
0.0253074
0.0219424
0.149585
0.0231064
0.0271577
0.0219231
0.0202
0.021731
0.020214
0.0769398
2.85289
0.0574157
0.0243374
0.0215974
0.0219211
0.0214878
0.0234179
0.0215149
0.0200365
0.0213849
0.0354178
0.0204603
0.0214873
1.7954
2.47838
0.0960819
0.0216522
0.021945
0.0311816
0.0219007
0.302304
0.265559
0.0238651
0.0248503
0.0251728
0.0222603
0.0235557
3.37717
0.0308541
0.0219879
0.392243
0.0215788
2.35742
2.21908
0.0246753
0.0220645
3.49627
0.0209833
0.0585875
0.0448345
0.354584
0.0231023
0.0217079
0.0214663
0.457819
1.00564
0.34382
0.237773
0.0231614
0.0214559
0.0247218
0.0213002
0.0235358
0.128477
0.73758
3.21905
0.643991
0.0272909
0.0415353
0.0332194
0.0210013
0.0211478
0.0285969
0.0238373
0.0215489
0.0212977
0.0684111
0.0208437
0.866705
0.0249353
0.0715559
0.134886
0.0211544
0.0244835
2.44307
0.0213799
3.58038
0.0212746
0.101644
0.0309238
0.0219516
0.0328735
0.0674524
0.0600375
0.0218363
0.0200042
0.0323745
0.0248626
0.0715284
0.021373
0.079749
0.0208353
0.259027
0.0212716
0.0211772
0.199023
0.0250692
0.0314294
0.0211282
0.0252478
0.0231785
0.441842
3.30197
0.0240459
0.0278809
0.0212205
0.0281227
0.0217744
0.0238922
3.87249
0.0204174
0.213074
0.0215646
0.0212967
0.0241034
0.300887
0.0224094
0.0641741
0.0219488
0.0332326
0.344711
0.0196193
0.0209915
2.51481
0.0346818
1.8064
0.0387577
0.0217191
0.0213031
0.0209859
0.0248226
0.0220462
0.0201374
0.0948875
0.41213
0.0211598
1.06442
1.21792
0.0249226
0.22271
0.0202077
0.614539
0.341274
0.0196874
0.393071
0.0357379
0.354255
0.43547
0.0210612
0.0209795
0.0215429
0.242909
0.0434417
0.0212968
0.0219516
0.0954973
0.0218122
0.0367458
0.0210824
0.0342286
3.05693
0.448664
0.0422011
0.438129
0.0361934
1.26023
0.0248559
0.0209201
0.0267725
0.427831
0.02621
0.0416787
0.0212859
0.140786
0.021514
0.0217685
2.62022
0.0216866
0.0272481
0.0325268
0.0592789
0.0214714
0.0212914
0.0240363
0.0257125
0.0199628
0.0215113
0.034484
0.125532
0.0231687
0.0212737
0.0374669
0.277735
0.0212319
0.410303
0.297528
0.0214713
2.20227
0.0199978
0.221446
0.0213502
0.0202678
0.197311
0.0233092
1.34571
0.0230401
0.0212933
2.09248
0.0213471
0.0201308
0.021524
0.0209299
0.0278117
0.0335869
2.10032
0.0220097
3.5775
0.0228567
0.407385
0.454443
0.0221612
0.0213547
0.0252517
0.0201358
0.10191
0.0211936
0.0201097
0.0201328
0.0212846
0.0213699
0.254937
0.0247585
0.0412345
0.0225497
0.0241174
0.0240057
0.0246401
0.162193
0.0204621
0.0768637
0.0396528
0.0200014
0.711111
2.98817
0.0207996
0.23168
0.0212353
0.347363
0.0330619
0.0196697
0.032746
0.0262121
0.350435
0.0208754
0.023978
0.482843
0.0686851
0.0567623
0.0213661
0.352336
0.0706797
0.387205
0.0213723
0.0227937
0.0210035
0.0214982
0.0210671
0.0210883
0.020412
0.30607
0.0258446
0.0208806
0.0200574
0.0206051
0.0218269
0.064767
0.0692198
0.0203084
0.0257121
0.0215404
0.0215661
0.0214441
0.020951
0.0384048
0.0200535
0.0208867
0.021717
0.021625
0.0229713
0.0215471
0.270957
0.10967
0.0241452
0.0208682
0.145801
0.0201002
0.0200615
0.0215503
0.0546737
0.0243203
0.0213564
0.0201583
0.0204463
0.0252751
0.0200109
0.0260558
0.0211837
0.0217744
0.0210655
0.0227238
1.07851
0.0209116
0.0218784
0.0211762
0.185375
0.357914
0.0262095
0.0220447
0.0265485
0.0252207
0.0387386
2.1814
0.021701
0.34213
0.0218973
0.382524
0.0221427
0.0202701
0.0200567
0.47545
0.0200332
0.0264016
0.0271002
0.168413
0.0401975
0.0222668
0.021006
0.0209495
0.0212187
0.0275296
0.0938556
0.464005
0.0394073
0.0215301
0.0200069
0.0224992
0.0210665
0.020819
0.0218028
0.041203
0.0244786
0.309657
0.0215246
0.0214375
0.0348272
0.0213056
0.150952
0.0399712
0.0369468
0.131277
0.479315
0.0287679
0.02099
0.0200156
0.0216816
0.0212821
0.530467
0.0428524
0.0991064
0.0202951
0.0216035
0.0231013
0.0208393
1.97609
0.0503535
0.020058
0.0200664
0.0209547
0.0210743
0.0209152
0.0212446
0.233415
0.0199777
0.0220336
0.020303
0.0205859
0.0210764
0.0214788
0.0256376
0.0205806
0.0250444
0.0201496
0.0615936
0.219896
0.0236785
0.436158
0.022813
0.021894
0.0604278
0.362354
0.0214289
0.0207308
0.0204703
0.0253707
0.0219072
0.0287187
0.12831
0.0215172
0.0220695
0.0214831
0.667124
0.288664
0.0220301
0.0205865
0.0240279
0.0356806
0.0211408
0.0606767
0.0208343
0.0199594
0.0242494
0.0615781
0.229627
0.346046
0.242336
0.0200428
0.0305749
0.0624955
0.0245829
0.0212116
0.0629688
0.0238466
0.219964
0.0677571
0.0208041
0.0200528
0.0214798
0.0219907
0.0200553
0.440005
0.37306
0.0201058
0.0215429
0.021969
0.0344276
0.0212516
0.0208545
0.0338204
0.0219292
0.0209247
0.310595
0.0835099
0.075083
0.0212688
0.0202296
0.0201212
0.0217478
0.0243348
0.0270743
0.0208707
0.0206176
0.0225605
0.354913
0.0204575
0.021416
0.0584645
0.020914
0.0207589
0.0213496
0.220034
0.0202106
0.0214462
0.0204603
0.0223718
0.0202212
0.0254504
0.139579
0.0214165
0.169134
0.0279431
0.208609
0.0490481
0.020991
0.0251249
0.020842
0.0207434
0.0210026
0.431458
0.404479
0.0303642
0.0264195
0.626112
0.0633319
0.0221417
0.0892305
0.0526708
0.0232948
0.0200584
0.95411
0.0222249
0.0207193
0.0203953
0.285572
0.34715
2.194
0.0207119
0.084692
0.341954
0.0246516
0.030714
0.0243201
0.0230863
0.0321185
0.311635
0.0228877
0.0222644
0.0251242
2.17986
0.252834
0.0212414
0.0214123
0.0210489
0.378052
0.0234656
0.0219288
0.637411
0.0254238
0.0366051
0.0243
0.326214
0.0206766
0.620873
0.0220931
0.0200668
0.0209906
0.0200058
0.0200743
0.0208926
0.021737
0.260894
0.0205193
0.82802
0.0259955
0.0216789
0.0207385
0.0803759
0.0211963
0.0215185
0.0229785
0.820982
0.0522043
0.0233122
0.0215425
1.13996
0.0206721
0.0373919
0.0215252
2.19934
0.0315523
0.286718
0.0261135
0.0209949
0.0341438
1.28285
0.0550456
0.0205555
0.0213427
0.0346452
3.84483
0.0195778
0.0425527
0.0205337
0.0258511
0.0208619
0.0200375
0.0219703
0.0221462
0.020023
0.0368395
0.035641
0.0245018
0.128099
0.811891
0.0222252
0.335923
0.0201085
0.101916
0.349482
0.165114
0.0200149
0.0219165
0.0215043
0.912105
0.0211236
0.020829
0.0823366
0.0215221
0.0215296
0.0221511
0.0220482
0.0212519
2.23603
0.350985
0.0555129
0.0207534
0.0214556
0.107755
0.0201014
0.0447012
0.0215939
0.0214894
0.0219966
0.023732
0.246074
0.0204207
0.0214755
2.44899
0.0215934
0.0218034
0.0347904
0.401888
0.284179
0.0214284
0.0210684
3.72079
0.425694
1.72359
0.0206266
0.0318249
0.19271
0.0203388
0.0365351
0.0228968
0.428104
0.023785
0.0215357
0.0222204
0.0200219
2.9665
0.021466
0.020464
0.358477
0.0285012
0.269104
0.0199859
0.0227146
0.0200417
0.0196518
0.0201998
0.0221414
0.0216199
0.0218742
0.0200274
0.0217772
0.0415164
0.0265064
0.0239334
0.0206077
0.0236705
0.0210735
0.337335
0.0216305
0.022117
0.0215285
0.0200641
0.021829
0.0217708
0.0211666
0.0212335
0.0208343
0.0202074
0.589543
0.224935
0.0212355
2.65108
0.0325356
0.0216838
0.0217036
0.0221911
0.608789
0.0217733
0.0201033
0.0200982
0.0200233
2.46446
0.0212847
0.0202754
0.216603
0.0200127
0.0197448
0.0235428
0.0238004
0.0689293
0.135182
1.76275
0.0200927
0.0980666
0.0250891
0.0212313
0.0204199
0.0242622
0.0212858
0.0287401
0.0511246
0.0231225
0.0218714
2.70305
0.0455851
2.42449
0.822558
0.374334
0.0734097
0.0204711
0.267981
0.201046
0.020127
0.109507
0.0207088
0.0223586
0.135184
0.0207215
0.0735919
0.0254145
0.0229142
0.0219382
0.0478556
0.021377
0.891374
0.0212418
0.0201757
0.621963
0.0197649
0.0219732
0.0218533
0.046425
0.0212048
0.0214424
0.0230628
0.335129
0.0211979
0.0212784
0.0202205
0.0237311
0.0211827
0.022359
0.27967
0.0209729
0.025587
0.0217267
0.0235714
0.0244368
0.0209424
0.0219235
0.0915748
0.0215702
0.0217357
0.0244867
0.323055
0.0222393
0.0211272
0.0214236
0.0252423
0.0687019
0.0224668
0.021023
0.0209671
0.0205601
0.0196379
0.0200499
0.0257814
0.0287332
0.0481384
0.0215521
1.06239
0.0206404
0.0210247
3.80497
0.0418672
0.0199717
0.0662589
0.0211725
0.0210211
0.428375
0.0218338
0.0372683
0.0197371
0.145863
0.0205239
0.0200062
0.0202444
0.240774
0.0762744
0.0215458
0.129115
0.0202252
0.020895
0.0207379
0.140254
0.0212607
0.0206554
0.0220068
0.0227791
0.0212747
0.0214603
0.0207988
0.0217597
0.0215375
0.0208412
0.0235497
0.0199961
0.905667
0.0580054
0.0202036
0.0502417
0.0254995
0.0209383
0.0206526
0.0218631
0.020743
0.0279566
0.0245257
0.0403183
0.0400655
0.0216808
0.0679321
0.147181
0.0212226
0.0217344
0.0774169
0.0231002
0.32669
0.0202098
0.0214558
0.022414
0.0217512
0.0208852
0.0253917
0.0209512
0.0217732
0.0212464
0.023173
0.0205256
0.117387
0.0213429
0.0239449
0.0300813
0.0210065
0.439169
0.491832
0.0230124
0.025515
0.0277301
0.0198701
0.0497182
0.021443
0.0315365
0.654893
0.590863
0.0382382
0.0220204
0.0257716
0.0210067
0.0292946
0.0205217
0.610718
0.0290738
0.0214864
0.0208082
0.0482726
0.0368006
0.0212279
0.0212214
0.334404
0.0216018
0.0206461
0.304712
0.0491336
0.0201172
0.12597
0.0203071
0.0484447
0.0511915
0.0212692
0.0214335
0.0233301
0.127393
0.0207941
0.0256787
0.0214381
0.0212772
0.0208253
1.08547
0.0218193
0.0213504
0.0211214
0.109482
0.025888
0.0208071
0.0197744
0.0990475
0.0211512
0.020454
0.100614
0.597938
0.0219217
0.269813
0.0233437
0.0436969
0.022087
0.0519259
0.450837
0.021532
0.0207641
0.0203051
0.0241119
0.0212045
0.678124
0.566772
0.0205275
0.0222322
0.020333
0.0200297
2.58194
0.0212125
0.0225579
0.0227561
0.061041
0.021453
0.0217058
0.0245341
0.461198
0.0214627
0.0213608
0.0204412
0.0205633
0.023882
0.0421222
0.0215555
0.0211237
0.0212789
0.0210672
0.0203126
2.30734
0.0217287
0.0210617
0.0210967
0.0541286
0.0203706
0.0204567
0.0326386
0.0209001
0.0343962
0.0212537
0.0214339
0.326184
4.1246
0.169381
0.0291586
0.0233622
0.021798
3.04228
0.0206325
0.0245666
0.020001
0.428895
0.0195491
0.0240537
0.0214618
0.687053
0.0389229
0.0353937
3.22721
0.0224215
0.0515432
0.0217317
0.0220013
2.34852
0.0321291
0.0211775
0.0202986
0.0235419
0.0260669
0.0214237
0.0212853
0.0206283
0.0199332
0.186346
0.412453
0.0217338
0.0232314
0.432028
0.669531
0.0229732
0.0221134
0.0230331
0.0241361
0.0212164
0.022158
0.0991558
0.0209119
0.0203223
0.0215205
0.103051
0.542252
0.0250936
0.0215591
0.0216085
0.0262966
0.0213467
0.0258623
0.038056
0.0530537
0.0230039
0.189822
0.0201164
0.0212315
0.0218444
0.0199727
0.0215427
0.0208546
0.030874
0.0210098
0.0849827
0.021364
0.0207199
0.0204847
0.0270252
0.022459
0.0408577
0.0490568
0.0201462
2.87516
0.0227518
0.0204962
0.0198026
0.360225
0.264045
0.0198232
0.0208138
0.0207064
0.0221418
0.170651
0.0653591
0.0220049
0.0220105
0.136499
3.31738
0.0220031
0.0212147
0.280003
0.0236674
0.222252
0.0232944
0.0211485
0.0547447
0.0261465
4.191
0.028323
0.307439
0.0203969
0.0208957
0.0216942
0.0215852
0.0236328
0.0217008
0.021554
0.0207897
0.0217611
0.0214856
0.0215927
0.021358
0.0228888
0.0219413
0.0213421
0.0208014
0.0325118
0.0232812
0.0209209
0.0215141
0.180273
0.0213317
0.0215961
0.0219346
0.910077
0.0204582
0.03555
0.0226689
0.020184
0.0210741
3.17781
0.0521728
0.0219994
0.0222859
0.0236222
0.0351471
0.0208708
0.0273304
0.039226
0.0210568
0.0924765
0.0208257
0.0213324
0.0209118
0.0217847
0.0278383
0.0589559
3.75362
0.0252789
0.0201926
0.0214995
0.02111
0.0502299
0.0219526
0.322931
0.0208173
0.021373
0.0213564
0.0665784
0.0209385
0.0215779
0.0212587
0.133716
0.0204665
1.77865
0.0204238
0.0246173
0.0212726
0.0284324
0.0209938
0.0234703
0.248591
0.0341014
0.0202017
0.032782
0.0215109
0.0213876
1.95974
0.409213
0.0203178
0.0212495
0.0232984
0.0202412
0.0211199
0.0218702
0.0217031
0.0238481
0.0474025
0.0221844
0.0257719
0.0341599
0.021691
0.0209999
0.0211779
0.0224076
0.0277834
0.0214283
3.90981
0.0206535
3.15563
0.0353788
0.0201422
0.0207121
0.0206916
0.157789
0.0215184
0.0234012
0.0214964
0.0206503
0.53632
0.0227641
0.025765
0.0216591
0.021474
0.022688
0.0212325
0.0227626
0.0213664
0.0220865
0.0219936
0.0218758
0.561386
0.0248391
0.46593
0.0209998
0.0232893
0.0224379
0.305107
0.0541773
0.149032
0.0224545
0.0199688
0.0383776
0.0208887
0.479832
0.0221411
0.0367174
0.0224614
3.19161
1.82438
0.0235256
0.0257905
0.0207474
0.0205307
0.0218961
0.0199033
0.0217368
0.0230186
0.0207824
0.0252184
0.0418772
0.296346
0.0208913
0.0373903
0.0201025
0.0211906
0.0211359
0.088716
0.0216925
0.0490512
0.0216701
0.0210824
2.8735
0.0208783
0.0232614
0.021052
0.0233784
0.157237
0.026088
2.137
0.0218029
0.0529095
0.0229556
0.0211194
0.0211476
0.0300232
0.0238613
0.0212782
0.0227176
0.0213258
0.571111
0.0207324
0.430452
0.262157
0.0592914
0.0254178
0.0858481
0.0242089
0.019898
1.27137
0.021189
0.743803
0.0218674
0.0226862
0.294945
0.30519
0.026719
1.01552
0.0213828
0.297267
0.0196135
0.160425
0.020155
0.0224349
0.0374759
0.0215892
0.0207198
0.0220053
0.0212675
0.0321685
0.308286
0.0319584
0.351454
0.020715
1.09337
0.021441
0.021646
0.0209972
0.0211765
0.483402
0.0215974
0.0205612
0.034788
0.0218124
0.357211
0.0624133
0.0212698
0.0397905
0.0322126
0.0208513
0.0214396
0.024089
0.0203129
0.0511789
0.0280004
0.0225759
0.0226665
0.0204431
0.0212635
0.0530893
0.0219965
0.02145
0.022268
0.0199088
0.0201229
2.32196
0.027441
3.38007
0.0263169
0.0486438
0.0259733
0.0211141
0.0260224
0.0204328
0.0209833
0.269566
0.0238422
0.0234832
0.0419269
0.0216359
0.276054
0.241856
0.0210796
0.023985
0.0304129
2.79167
0.0203039
0.0203394
0.0216908
0.0272942
0.335891
0.0247813
0.0236316
0.0218235
0.021171
0.0199648
0.180967
0.0234564
0.0222579
0.475777
0.0216341
0.022953
0.0244898
0.0214944
0.0212393
0.0210206
0.0502259
0.0931379
0.0218719
0.0228722
0.298378
0.0208942
0.0219424
0.0235303
0.021595
0.365202
0.388597
0.0539721
0.0659336
1.08974
0.0226769
0.0208429
0.0370484
0.0231288
0.0271053
0.0210357
0.0201844
0.35533
0.543874
0.0210791
0.0207522
0.0276512
0.0499772
0.0230095
0.0200045
2.38177
0.0228858
0.0339072
0.0201391
0.026093
0.0195923
0.0225564
0.0260803
0.021171
3.85876
0.0219822
0.0334468
0.0813609
0.296364
0.0709697
0.0211956
0.0559113
0.0241959
0.0242585
0.0221807
0.0224292
0.0214543
0.0226604
0.310033
0.0227983
0.324908
0.0207828
0.20772
0.0202881
0.0219078
0.296377
0.0243314
0.204616
0.0242564
0.0221087
3.7935
2.40704
0.0208647
2.9396
0.0355527
0.0207205
0.0198421
1.82211
2.93078
0.0204491
0.0202692
0.021459
0.0202269
3.04409
0.301468
0.0195273
0.01979
0.0208616
0.239309
0.0439806
0.32455
0.0201921
0.334922
0.0215667
0.0517556
2.11824
0.0240079
0.020578
0.0205784
0.310323
0.0203341
0.021059
0.0201981
0.0243564
0.0228533
3.75076
0.0252159
0.0218193
0.0211951
0.0258919
0.193387
0.0424823
0.0211191
0.0208514
0.150081
0.0453841
0.022071
0.380463
0.0276957
0.0230688
2.66116
0.0227195
0.0262237
0.021828
0.280072
0.0214268
0.0218365
2.5176
0.0267805
0.0210497
0.0213504
0.0195979
0.0369473
0.0978448
0.0209771
0.0202632
0.0221227
0.063472
0.0237099
0.0201989
0.021245
0.0207274
0.0225266
0.0390327
0.0214599
0.0209631
2.0558
0.0211064
1.29619
0.0291252
0.0314901
0.0231701
0.0221727
0.0214795
2.85301
0.0697909
0.0640154
3.65366
0.0286285
0.0208741
2.71249
0.0202156
0.0694129
3.13541
0.0226982
0.0211277
0.0236496
0.0665376
0.0211979
0.0210176
2.87143
0.021266
0.0221825
0.0206216
0.0216224
0.0203226
0.0587015
0.123481
0.0201327
0.021024
0.628352
0.0211891
0.0201553
0.0209987
0.0208288
0.13255
0.0230144
0.0231843
0.0222335
0.0219819
0.0202838
0.0337281
0.101414
0.0258824
0.293987
0.0223352
0.0237523
3.65472
0.0208869
0.0203653
0.0210714
0.0208283
0.0218425
0.0197508
0.0221381
3.12661
0.0211782
0.0210923
0.0227232
0.0208147
0.353728
0.0216831
2.15755
0.191671
0.0256513
0.0283622
0.354352
0.0237498
0.0211753
0.0233196
0.0209511
0.0225813
0.0219578
0.0217651
2.73254
0.0202849
0.0213288
0.037713
0.363002
0.021709
0.0208414
0.189852
0.0223389
0.0291796
0.0213115
0.0208524
0.0210341
2.26571
0.0214663
0.298552
0.0457836
0.0213398
0.0208322
0.0210437
0.0238973
0.308009
0.0201421
0.0394352
0.0210969
2.15083
0.231535
0.0220761
0.1729
0.0215503
0.023184
0.0234198
0.300783
0.0228675
0.025284
0.0257325
0.413896
0.0216714
0.0362292
0.0214508
0.0418428
0.14266
0.174121
0.0209607
0.0292236
0.296644
0.622378
0.0229729
0.0237721
0.344552
0.343336
0.0208149
0.0516006
0.0211899
0.0243538
0.0214723
0.0223436
0.0222584
2.88296
0.0216354
0.0218133
0.0506383
0.41053
0.911677
0.120085
0.592092
0.020782
0.340832
0.0546093
0.0210438
0.0211199
0.423647
0.023293
0.021489
0.0212453
0.0367919
0.0206967
0.0212579
0.526107
0.0214696
0.0217613
0.0210408
0.0214012
0.0225473
0.0204579
2.45498
0.0243198
0.0229319
0.0204907
0.0294926
0.93925
0.0209075
0.0217469
0.311358
0.186123
0.0213531
0.0239713
0.0207081
0.0209348
0.0366637
0.166203
0.0209359
0.0210465
0.3083
0.0939333
0.786905
0.0273906
0.0221338
0.413205
0.0207275
0.0245025
0.0238367
0.020544
2.4665
0.736241
0.0349379
0.0269058
0.166336
0.0198487
0.0197829
0.0226923
0.032255
0.425279
0.0203293
0.0346756
0.239767
0.40953
0.0216387
0.0224933
0.289142
0.0209639
0.0239996
0.318778
0.0209634
0.0211937
0.0204595
0.277448
0.0207992
0.0238787
0.021919
0.0336041
0.0280745
0.410652
0.0211828
0.0211313
0.027835
0.0216925
0.0231396
0.0220749
0.0968778
0.117209
0.0209928
0.0213461
3.71003
0.403428
1.07903
0.0207546
0.021357
0.0226014
0.0215329
0.0212746
0.0214318
0.0207853
0.0218722
0.0206689
0.0207627
0.0487875
0.0231117
0.0272939
0.925188
0.0571455
0.044714
0.024809
0.0471629
0.115939
0.0286306
0.0232261
0.0264352
0.0210688
1.0315
0.0200599
0.0202742
0.0206559
0.475073
0.0209048
0.466767
0.0217763
0.0201289
0.0445968
0.02117
0.0211442
0.0211629
0.0250617
1.04974
0.0216012
0.0205428
0.0226545
0.560783
0.044462
0.348964
0.0210353
0.0312829
0.0215034
0.0215401
0.0201832
0.0207216
0.0213564
0.0220013
0.0677762
0.0223907
0.0223879
0.115831
0.587091
0.125566
0.0208537
0.088841
0.0311691
0.450992
0.0205451
0.0209844
0.0218776
0.0662833
0.0197966
0.0213609
0.0207134
0.0203365
0.12292
0.0221104
0.053261
0.021024
0.0197793
0.0246465
0.0214317
0.3626
0.0210969
0.0230938
0.0217868
0.0260934
0.0220571
0.0538252
0.348392
0.0212318
0.0424942
1.40404
0.0211189
0.0215447
0.038549
0.0197268
2.70331
0.0277193
0.0209643
0.0522193
0.0200072
0.0221092
0.0215344
0.0207651
0.0202131
0.0221564
0.0206534
0.0207126
0.0215279
0.0218361
0.043833
0.0200681
0.133118
0.0205229
0.0208968
0.0267636
0.0410722
0.0220788
0.0197223
0.0211971
0.0222717
0.0396951
0.230045
0.0315568
0.0219389
0.0219648
0.0207533
0.028218
0.020933
0.0222824
0.406137
0.257349
0.0436874
0.0210774
0.0217923
0.0221527
0.01973
0.0442211
0.020118
0.0888701
0.021991
0.19072
0.0257581
0.396004
0.0215552
0.0554664
1.95683
0.374508
0.304677
0.0250704
0.414419
0.381266
0.0218755
0.0326134
1.46197
0.0204364
0.0207459
0.0213392
0.0241835
0.362897
0.021473
0.0241152
0.533055
0.0195311
0.0214647
0.331844
1.05918
0.0987827
0.340653
0.485216
0.022152
0.0542364
0.0231033
0.0233982
0.574096
0.0223256
3.68351
0.0463211
0.0235669
0.0214204
0.0225799
0.0226416
0.0205304
1.77899
0.0197907
0.021247
0.0213106
0.589217
3.74711
0.0307784
0.021271
0.0223249
0.0204523
3.16495
0.0209841
0.0220681
0.0234507
0.0716376
0.020695
0.0664325
2.14175
0.319619
0.0217359
0.253083
0.0205373
0.647909
0.0198274
0.0379589
0.0215655
0.0619242
0.0253904
0.660934
0.115777
0.0228965
0.0226675
0.031634
0.0240156
0.0211002
0.0207029
0.0249276
0.0218337
0.334335
0.0196587
0.0210722
0.0214299
0.0214008
0.304364
0.0207376
0.0201311
0.0215306
0.180661
0.0258723
0.0497725
0.0228222
0.0225178
0.0732595
0.0205936
0.0213113
0.0593716
0.0403636
0.0201334
0.0346939
0.0228899
0.343811
0.0212486
0.0743343
0.0215646
0.0212128
0.0202259
0.0201728
0.0211595
0.0210717
0.217759
0.0540136
0.0215679
0.0213186
0.0211274
0.0221163
0.02606
3.19508
0.0216185
0.0298172
0.0238027
0.318673
0.0216286
0.0389627
0.0212954
0.021256
0.028642
0.0212202
0.0214545
0.0206492
0.0200621
1.57509
0.021382
0.0207294
0.0307228
0.47159
0.0352643
0.0213733
0.0199154
0.0238813
2.09733
0.0231851
0.0217078
0.0215266
0.217797
0.0218694
0.0211275
2.8351
0.0207429
0.0245851
0.0226521
0.0215469
0.0201547
0.048259
0.0260585
0.0206149
0.021284
0.0213858
0.0208962
0.406945
0.0225927
0.0213947
0.0197689
0.022029
0.0201772
0.0212413
0.0714649
0.0206324
0.0238709
0.0236446
0.315906
0.0197251
0.0225489
0.0493796
0.0260505
0.207912
0.0209531
0.0215033
0.23862
0.0214011
0.0201617
0.36818
0.0214177
1.9615
1.04285
0.062534
0.362863
0.0214147
0.0271154
2.24265
0.0212413
0.020005
0.566908
0.686706
0.0208941
0.0201357
0.0228232
0.0207952
0.213667
0.0467063
1.00887
0.0214847
0.021657
0.0212156
0.0210984
3.50594
0.189781
3.80459
0.0243578
0.0224824
2.4122
0.0213398
0.0208931
0.0225523
0.0209277
0.021854
0.0288653
0.0197229
0.459884
0.0218809
0.0219636
0.0213927
0.0258894
0.0208102
3.25645
0.0206755
0.0211953
0.0227344
0.0201584
3.64374
0.0244137
0.0256848
2.41581
0.0304786
0.0314692
3.20899
0.0212966
3.31797
0.026213
0.0207644
0.0224138
0.0216577
0.394213
3.04175
0.0214688
0.0232299
0.447804
0.0210671
0.020566
0.0239332
1.94859
0.242127
0.0215239
0.022011
0.0798005
0.0229379
0.0636431
0.0624884
0.057817
0.0201444
0.416217
0.0215385
0.345161
0.0500198
0.0322992
3.98717
2.2476
3.66527
0.0203631
0.498788
0.0199712
0.0197775
0.265879
0.0197593
0.0222219
0.0211429
0.0538122
0.0206012
0.14118
0.0201615
0.0278743
0.467737
0.0256407
0.024611
0.396217
0.0218188
0.0202389
0.0218649
0.0837511
0.0241426
0.132288
0.0214162
0.025524
0.0217738
0.152096
0.021419
0.0215601
0.0213671
0.489694
0.0303776
0.0215109
3.58438
0.0210856
0.0213671
0.0246493
0.172169
0.0213931
3.71097
0.021464
2.54858
0.0214326
0.0395357
0.0209868
0.0471582
0.0214248
0.0525103
0.0244433
0.0419169
0.0208937
0.0217332
2.95014
0.0203647
0.0241414
0.0272819
0.0200683
0.0575801
0.335796
0.127494
0.0221192
0.0197336
0.0211865
0.114419
0.023785
4.30429
0.02387
0.308753
0.021257
0.739373
0.020532
0.0312016
0.115586
0.0227467
0.143033
0.0235911
3.51746
0.16673
0.0207718
0.18863
0.0222627
0.0211377
0.022822
0.0723706
0.0234988
0.163661
0.0242978
0.10866
0.0401078
0.0605917
0.0450345
0.306534
0.0214613
0.0215276
3.48909
3.50341
0.0322669
0.0233993
1.9634
2.8936
0.0212852
0.0214403
0.0212057
1.12977
0.0207083
0.0209117
0.031293
0.0550449
0.0198267
0.0206123
0.0222243
3.00286
0.0205002
0.0239097
0.0198273
0.118972
0.0219974
0.359345
0.0218374
0.0206478
0.0213388
0.0202587
0.589567
0.0353843
0.215799
0.0213258
0.0278302
0.0202025
0.214927
0.171434
0.046729
0.0207914
0.0931174
0.0208853
0.0215897
2.24946
0.0210743
0.0241924
0.428339
0.0201463
0.108035
0.0207512
0.0198379
0.0215522
0.12929
0.0207742
4.01052
0.0914024
0.179384
0.315357
0.0207083
0.666168
0.0604845
3.90366
0.0332285
3.42605
0.186379
0.0215715
0.0341097
0.0217372
0.0287894
0.0210253
0.0227539
0.0212052
0.0253607
0.290174
3.67599
0.0238271
0.0230059
0.0836068
0.425929
0.0212029
0.0214517
0.890115
0.0334432
0.0204065
0.26753
0.0345122
0.0221603
0.0203639
0.0223978
0.336577
0.0216232
0.0535258
0.0195987
0.0716549
3.79901
0.0759601
0.0222345
0.0214794
0.0211593
0.0212725
0.0214599
0.0248018
0.0224046
0.0216088
3.84099
0.0208346
0.0215034
0.0210592
0.310538
0.549901
0.0212514
0.0214117
2.69014
0.0204804
3.59743
0.0215231
0.0213615
0.0197215
0.0216138
0.0205866
0.0227336
0.0202776
0.738081
0.0218555
0.0529403
0.021352
0.931806
0.0214665
0.0243037
1.70613
0.193267
0.0212707
0.0214452
0.0366627
0.0197243
0.181005
0.414033
0.0224762
0.0207554
0.0212367
0.0203164
0.0447733
0.243668
0.0379659
0.422142
0.0379341
0.0214028
0.0211853
0.0205262
0.555669
0.366797
0.0225532
0.0211289
0.0208101
0.0266975
0.0213776
2.93576
3.11333
0.0291505
0.0202659
3.42831
0.12545
0.0214429
0.121547
0.0219011
0.679514
0.0321562
0.0324245
0.0268763
0.289747
0.0308995
3.85072
0.0208508
0.0205225
0.020696
0.0202997
0.0215091
0.0275924
0.0205174
0.0251798
0.0199984
0.245661
0.0210103
0.0294517
2.09783
0.0220954
0.0198079
0.0288524
4.05878
0.0212514
0.020602
0.191758
1.66794
2.92114
0.0215878
0.0197313
2.94266
0.122503
0.0239932
0.0486351
0.0213827
0.0334994
0.0215017
0.124405
0.0206577
0.0210468
0.414154
0.0204177
0.0226624
1.48581
0.0496234
0.0206378
0.020802
0.020745
2.79738
0.0241426
0.0257343
0.0214253
0.0207838
0.117842
0.0295782
0.0211504
0.0212944
0.019731
0.0228474
0.0206419
0.0226609
0.195862
2.92084
0.0231096
0.0359771
0.0208024
0.0431564
0.0212191
0.0215318
0.0207671
0.242668
0.041169
0.0200238
0.0226201
0.440762
0.0339626
3.81594
0.0468331
0.0212973
0.0207711
0.0280988
0.0223257
3.93358
0.0204919
3.66778
3.95441
0.0209011
0.0351614
0.307091
0.0255265
2.23393
0.106674
0.0216053
3.66821
0.0253316
0.0204422
3.57141
2.8301
0.0949032
0.0217373
3.14613
2.92329
0.0213394
0.174147
3.15947
0.0213786
0.0207079
0.0218273
0.0200163
0.0215484
0.578418
0.926131
0.0214228
0.0238775
2.28373
3.58676
0.0342462
0.0520605
0.0210711
0.0245116
2.03252
0.0520468
3.50688
3.73287
0.0212564
0.021449
0.0210481
0.0222407
3.2775
1.0773
0.0209845
0.0329619
0.386
0.229086
0.0510739
0.0211331
0.021495
0.0219497
0.264869
0.0222813
0.0332549
0.0295424
0.022026
0.406011
0.0231705
0.0517254
0.13718
0.48065
0.0212188
0.0212013
0.022506
0.032245
0.212037
2.91389
0.0218808
2.13491
3.00761
0.0330343
0.0305693
3.14305
0.344738
0.328932
3.1918
0.0213298
0.0855432
1.0085
0.028672
0.0278578
0.125275
0.0225142
0.114635
0.0232228
0.0207609
0.0199755
0.0215677