/*--------------------------------*- C++ -*----------------------------------*\
| =========                 |                                                 |
| \\      /  F ield         | OpenFOAM: The Open Source CFD Toolbox           |
|  \\    /   O peration     | Version:  v2012                                 |
|   \\  /    A nd           | Website:  www.openfoam.com                      |
|    \\/     M anipulation  |                                                 |
\*---------------------------------------------------------------------------*/
FoamFile
{
    version     2.0;
    format      ascii;
    class       volScalarField;
    location    "50";
    object      ddt0(omega);
}
// * * * * * * * * * * * * * * * * * * * * * * * * * * * * * * * * * * * * * //

dimensions      [0 0 -2 0 0 0 0];


internalField   nonuniform List<scalar> 
18758
(
-0.000456692
-3.59006
6.76436e-07
0.206771
-0.0729375
0.64095
0.144546
6.28327e-07
-0.0273636
-2.52148e-05
-1.8038e-06
-0.376109
2.04732e-07
-0.0160613
4.05553e-05
-0.0715762
-0.000661963
-8.85706e-07
1.90295e-06
-2.30473e-05
-0.696875
-1.2754e-07
-0.0947964
-2.19945
6.65618
6.31441e-07
0.207126
0.0238645
0.100377
-6.28091
-0.00364592
-0.0592639
-2.19712e-08
1.15405e-05
-0.00860857
5.04761e-07
-1.55093e-08
-2.11032e-06
-1.19846e-07
-0.000824579
-1.93359e-06
-9.23136e-06
-1.23157e-06
-1.80816e-05
17.6559
-4.89546e-07
-0.0449548
-6.93118e-06
-7.03405e-07
-1.21965e-06
0.0133553
-0.34595
-7.15797e-07
3.21422e-07
-0.0108345
3.26143
-1.30708e-08
-0.265311
6.6535e-06
-0.0107775
0.00103758
0.134803
-0.00156198
1.16506e-05
-7.85548e-07
-1.35467e-06
-0.000995426
-1.79195e-09
-2.14426e-06
-0.344308
-0.299083
1.21756e-05
-1.26575e-06
-5.51462
-2.31e-07
7.32944e-06
-0.044169
-0.149684
-0.00707883
-0.0418416
0.0393578
-11.6621
-0.0105736
0.498191
-0.000743344
-5.88771e-05
-0.212811
0.000438728
0.0970137
7.99708e-06
0.404945
6.29392e-06
-0.466797
-7.10909e-06
0.113825
-0.438468
0.0933624
-3.23829e-07
2.18377e-06
-0.282084
-3.36713e-05
0.246907
-0.00371777
0.000161599
-0.0447642
-6.76831
0.0619146
-0.137614
-4.66171e-06
2.07677e-06
-0.485878
-5.09499
6.6458e-07
4.3653e-06
0.218527
0.164385
-0.222445
4.05707e-05
-0.276187
0.128443
-5.13226e-05
-2.45633e-07
-0.0981701
-0.0510917
0.902292
-14.5173
2.08345
-0.156219
-0.470865
2.69623e-06
-0.000768245
0.327529
-2.81953
-0.000117085
-0.0261711
8.77806e-06
-0.0242414
-0.00090598
2.55419e-06
0.000211373
0.00152989
0.0307818
8.60722e-06
-0.114708
-1.5684e-06
3.65706e-06
-0.725813
-0.0189126
-0.00351431
0.274732
13.5138
-0.0920859
-4.82869e-05
-8.55439e-08
0.0790129
-1.26932e-05
-0.199871
-8.67949e-06
1.32834e-05
-5.3161e-08
2.10707e-06
-0.0139314
-0.587533
1.12299e-05
-0.000212862
0.119166
2.04671e-06
-0.193364
0.193032
0.643984
0.0842475
-8.72272e-07
-0.57215
-0.0008296
-0.0155199
-0.926839
0.192005
1.0218e-05
0.000806012
-4.47884e-06
3.27731e-07
1.35292
-0.197616
-1.07862e-06
4.8458e-05
-1.04234
2.78744e-06
0.09649
-1.2112e-06
7.61034e-07
-0.000332098
0.0170194
-6.20142e-07
-0.00302304
7.34667e-06
0.00184106
-1.98446e-05
-0.0878574
1.91479e-07
-1.29456e-06
0.000299058
-9.68741e-06
4.43802e-05
-0.000801355
1.82428e-07
4.90306e-06
-0.00355006
-7.21258e-08
-0.401905
-1.31172e-05
-8.1774e-07
0.00018319
9.77333e-06
5.1696e-05
-0.00726675
-0.0942167
0.0289906
0.164043
-5.30238e-07
0.666664
-8.34142e-07
-5.28797e-06
0.0466376
-0.482873
-0.102967
-0.00367064
0.000127435
0.000337586
-8.15953e-07
-0.000692377
-1.34193e-06
-0.00212338
-0.0285768
0.016182
3.24472e-07
1.53427e-06
-9.12356e-07
-2.00787e-07
-0.0950222
4.16478e-05
1.97375e-06
-2.04061
0.0686797
8.50854e-06
0.243909
-1.47526
-0.142609
4.68577e-07
0.075766
-5.98516e-06
7.01084e-07
-0.192491
-6.40488e-05
-8.75435e-06
1.63471e-05
-3.96694e-05
-0.527087
0.553871
5.06976e-05
0.000805537
7.17061e-07
-0.00255203
-6.87512e-07
-0.000721356
-1.49077e-05
-0.00461593
0.368336
-4.67509e-07
-4.19208e-06
-0.0104717
-2.92632e-06
4.11317e-05
-0.000657976
0.104456
-0.225293
9.41912e-06
0.00103713
-3.54753
4.88455
-1.59583e-06
-8.64041e-07
7.67974e-06
4.29031e-05
8.72748e-06
-3.29104
-2.64891
0.311665
-1.49828
-0.0770728
-1.14708e-06
7.80674e-07
0.000698053
-0.123761
2.43954e-05
0.00104574
0.000817242
8.15228e-06
0.074452
1.4577e-06
1.20339
0.557558
-3.73699e-07
-0.431247
-8.0018e-05
-2.03224e-06
1.52802e-05
0.00114617
2.37825e-05
6.19906e-07
0.210355
0.3735
-1.66651e-06
0.194989
0.100877
0.112921
-1.41552e-06
4.73513e-06
0.202124
7.03903e-06
-1.17806e-06
-1.0296e-06
6.40136e-06
0.134596
0.00147583
7.99699e-06
2.70188e-05
-9.16313e-08
-0.00112048
6.70666e-07
-9.19395e-08
0.332336
0.00057969
-0.00378632
0.198135
2.77969e-06
1.5493e-07
6.0302e-06
1.14556
-0.438569
-9.15268e-07
-6.8831e-07
-9.99981e-07
6.22141e-06
-0.000475063
2.25909
-1.13241e-06
6.94754e-06
-1.17401e-06
-0.160711
0.0146021
0.00405449
-0.00252659
1.83799e-05
-0.371768
1.23128e-05
1.6754e-05
-7.22899e-05
-0.356904
-0.467993
-0.532729
1.81329e-07
2.06546e-06
0.0334845
0.124652
-1.43514e-05
-1.13567e-06
-0.000225331
1.68771e-06
-7.95331e-05
-0.459395
-1.94773
-0.00900303
1.16563e-05
0.296922
9.22728e-06
-1.04381e-05
7.20665e-06
-1.82343e-06
-0.00738832
1.62535e-06
0.188871
0.0338211
1.45835e-05
-1.7814e-06
-0.123247
-0.00809051
-0.150179
8.84858e-06
-0.00175889
-8.86171e-07
-2.04683e-06
-6.60937e-08
-3.29845e-07
-0.319707
-0.261181
0.151045
-0.454545
6.32544e-07
0.00217966
-0.180551
-5.22106e-05
7.15893e-07
0.230517
-1.33963e-06
4.5093e-06
4.2702e-07
-0.0075866
-1.22887e-06
-0.000101325
0.00181943
-0.0471927
-9.70427e-07
-0.104493
-0.000723894
-1.21366e-06
2.36357e-05
8.99812e-06
-7.39904e-07
1.36315e-05
-0.0021425
-0.000991854
-0.519626
-0.000107819
-4.77938e-07
-0.0313625
-0.0730414
-0.0909364
0.064977
-0.00760848
3.47195e-07
-2.55056e-07
1.62524e-06
1.07993e-05
-0.0093033
-0.000618523
-9.27505e-05
-0.000112261
-5.43636e-05
-0.185416
-0.00388763
8.18151e-06
4.2651e-05
0.12601
6.2393e-06
-1.43827
5.42895e-06
-1.42624e-07
-0.0281762
-8.52996e-06
-8.16786e-07
-0.196959
-0.00863051
0.000540295
-0.373121
8.16062e-06
1.19814e-05
-0.122731
-0.338887
5.19417e-05
0.000474368
-0.00819508
-0.981464
0.591796
-0.0133577
1.0952e-05
0.00023323
5.7485e-06
-0.00972281
-9.85509e-06
-0.436826
-0.00181676
1.89209
-0.000107751
-0.00477724
-3.09384e-07
-1.59824
-1.28025e-06
-0.561568
7.61982e-06
-0.0223684
4.8325e-08
0.29487
-9.23807e-05
5.70765e-07
1.49145e-06
4.79303e-07
0.018777
-0.728751
0.195684
-0.00096973
4.44638e-05
0.00110365
-5.21897e-08
-6.40949e-08
-0.332721
1.63268e-06
-8.72562e-08
0.00246929
1.79378e-07
0.000885611
0.00106289
-1.44203e-07
-9.27551e-07
-8.68585e-06
1.21973e-05
-1.15844e-05
0.221572
0.000319418
-5.39452e-05
-4.04846e-06
-3.76656e-07
-0.0644972
1.18761e-05
-7.1921e-06
-5.35289
0.0433508
-0.00425266
0.136711
-1.12758e-05
-6.0523e-06
-0.0608821
2.03167e-06
-0.257513
0.0175396
4.78926e-07
0.244857
-0.482644
-0.000289554
9.25849e-07
0.000372548
-0.411059
-1.91872e-06
-2.336e-06
4.10179e-05
2.25082e-05
3.58442e-06
-2.74417e-07
-3.11719e-08
-0.0421014
4.48701e-06
0.132951
-1.05825e-06
0.0115441
-0.605845
-5.05802e-07
-1.21432e-06
5.52532e-07
2.23549e-07
-3.33807e-06
1.29401e-05
-4.89384e-06
-0.00155827
-0.377525
-7.20157e-07
-0.396914
-0.0910988
3.8062e-05
0.0011467
1.29079
-5.79523e-06
0.000291232
-2.35981e-05
-0.299496
3.63406e-06
-0.000993086
7.67435e-06
-0.976725
-0.00031287
0.0169153
-0.00460001
0.135714
2.61467e-06
9.21868e-06
7.51753e-05
-5.9776
-1.41523e-06
-0.0156729
1.34451e-05
0.0720782
-5.57326e-06
-1.6949e-06
5.69649e-07
1.77537e-07
-0.114649
0.0703807
9.08844e-06
-0.00427795
-2.31603e-06
-0.151132
-0.331903
0.348211
-1.82634
2.2477e-06
0.0941031
-0.0029925
2.03664e-06
-0.000949038
-0.337653
-0.794286
1.12842e-05
5.55003e-06
3.64441e-06
1.51832e-07
-0.0489914
-0.00103547
-0.0206925
-0.155651
8.68837e-06
2.07396e-07
-0.000840279
-1.05197e-07
1.95983e-06
1.4517e-05
3.2885e-05
-0.00288325
-0.000324235
-0.00482776
-0.157842
0.000311526
1.61968e-07
-9.19751e-06
0.00479106
-0.261434
-0.000834252
-16.1258
-2.59814e-05
9.34888e-06
-0.0463388
-0.0119729
-1.89705e-06
-1.13988e-06
0.119518
0.335803
-0.238585
1.83019e-07
-0.635594
-1.85819
6.78258
-1.20708e-06
0.0861434
0.160668
-0.277333
9.5065e-07
8.56069e-08
0.185907
-1.36586e-08
-0.00241283
-0.246718
-0.0467339
0.12938
-0.00466344
-0.204656
-0.00204042
1.38609e-05
4.09531e-06
0.0682656
-0.00552944
0.169654
-1.30685
2.05085e-06
0.00133042
-3.47828e-08
0.000127195
-0.00533749
0.0172348
5.43652e-07
-1.85466e-05
-0.00935728
-0.387839
0.0684698
0.282768
2.0865e-05
2.9923e-05
-0.135
-3.33734e-07
-1.00712e-06
-2.87123e-06
0.000124293
-0.00390849
-6.86718e-07
-0.00455919
1.27872e-06
2.98134e-06
-5.85453e-07
-0.0471888
5.81267e-06
-2.25272e-08
-0.0007982
-0.000343973
-7.6803e-07
-0.358214
1.89348e-06
5.50336e-07
0.000153178
-8.01482e-05
4.29758e-05
-1.00653e-05
-10.8159
7.80862e-05
2.29254e-06
0.00202084
1.59508e-05
0.141121
0.000185792
-0.00111287
-0.262348
-0.253526
-1.02021e-06
-0.318794
-0.823034
3.79306e-07
-0.278493
-8.86686e-09
-4.26436e-07
-0.000207084
-7.51923e-07
0.00131758
-0.272373
-1.2167e-06
-0.508209
1.65427e-06
-6.03507e-05
0.0122143
-5.06798e-07
0.225673
-1.4128e-05
1.05452e-06
5.69201e-07
-2.97179e-06
0.0156553
-0.000781062
0.0197238
0.000186831
0.560917
-0.000740327
-5.42045e-07
-0.000774939
0.269002
-1.38192
0.000314324
-0.0346005
-0.00284258
4.96812e-07
0.0279054
-5.85133e-06
-0.111307
1.81045e-07
0.0750158
1.30569e-05
0.00016367
-8.5473e-06
-2.55143e-06
0.00393093
2.09801e-06
1.83301e-06
-2.03549
-1.216e-05
-6.26007e-07
-0.000762482
0.00116469
0.0429657
0.10597
0.0969193
-0.0983003
2.06297e-07
4.70842e-08
-0.461343
-2.40749e-06
-0.534385
-0.00479952
1.07674e-06
-1.22889e-07
2.03868e-05
-6.18959e-07
6.74599e-07
-3.74397e-05
2.36782
0.0396344
0.110778
0.000362562
4.55601e-07
-0.00231924
0.183124
8.07396e-07
-0.00560292
6.58207e-06
-0.297666
6.8573e-06
0.0210704
1.94865e-07
-0.394729
-1.66332e-08
-0.00323753
2.0619e-06
0.000110004
0.000252709
-5.83685e-07
4.09294e-07
-9.52815e-07
0.0141017
-0.175548
-0.000169813
0.315423
9.19725e-06
-0.000630601
-1.19828e-05
0.0335505
-0.104426
-0.000171442
-6.01522e-07
0.0186256
1.09835e-06
8.87461e-06
-1.39834e-05
-0.08169
0.0126404
-0.254658
0.223905
0.00377146
1.03916e-05
7.24193e-06
-24.0952
-4.89936e-07
0.835552
-1.02305e-05
1.90583e-07
-0.0564553
0.623873
-1.01077e-07
-0.0183181
-1.20722e-06
-0.0102024
-0.00250335
0.132784
0.668965
2.08523
1.91767e-07
1.18247e-06
-0.178937
9.78081e-06
-2.10476e-06
-2.23597e-05
1.04555e-05
0.0174245
-0.0315099
-0.000801327
0.386713
-0.000706521
-0.00842931
7.93111e-06
-1.23649e-07
-6.54235e-07
7.68984e-07
-0.145005
-0.163773
0.088716
-1.63016e-07
-5.029e-07
0.000249968
2.07532e-06
-0.000199802
-2.26551e-05
8.29883
-0.296475
-0.00466533
0.096656
0.10222
-2.1157e-06
0.0342181
7.13853e-06
-0.0869106
-0.75164
-0.211498
0.0200234
3.36406e-05
-3.53555e-05
-27.9584
0.384975
-0.273408
0.0011168
-0.0231394
-0.058659
1.79906e-07
-1.6372e-05
-0.0153181
-0.0101825
1.76333e-07
-2.27601e-06
-0.000329666
-0.17234
-0.0449643
-0.00101898
-1.44164e-06
9.16862e-05
-2.0008e-05
-0.0403229
-2.48981e-06
0.475054
5.85421e-07
5.18272e-06
0.0108751
6.18248e-07
-1.1447e-06
-9.13765e-06
-1.26705e-05
-2.03777e-07
-9.39368e-06
-1.20949e-06
0.11292
0.244538
0.0767272
-1.11429e-06
0.000959947
-3.81808e-07
-0.0281575
0.101796
-6.17669e-06
3.40301e-07
1.82487e-05
-1.21222
-0.00573469
-3.70319e-05
-0.360739
-0.0096346
8.1751e-06
8.96842e-06
0.082445
0.099583
0.00104862
-8.00805e-07
0.575437
3.89084e-07
-4.58818e-05
-1.08487e-06
-1.40877
0.0550951
2.35213e-08
3.58981e-06
-2.26061
9.60354e-06
0.173767
0.213217
-0.00228349
7.04403e-06
4.61398e-07
-1.10954e-06
1.89495e-07
1.00819
-0.882713
-0.0584965
-9.88098e-06
-0.231488
1.6671e-06
-4.90942e-08
0.227728
-1.51039e-06
-0.0225537
-2.75845e-07
-9.11968e-07
8.56546e-06
-1.04097e-06
3.11403e-06
3.82281e-07
0.0669411
-1.02322e-06
2.21405e-07
0.0313342
-0.000386348
-8.37756e-07
0.000269906
5.29445e-05
2.37299e-07
0.0495367
-2.02655e-07
3.17081e-05
-0.0106574
-0.0057886
-2.38899e-06
0.0129297
-0.00654453
0.000878564
-8.11507e-06
-0.00262423
-0.0196583
-2.85193e-06
-0.000643693
-2.96587e-06
-1.02043e-07
-1.22764e-06
-0.000593664
4.90187e-05
-0.00106887
1.02814e-06
-1.73362e-06
-0.00291798
0.202683
0.046648
8.28391e-07
1.76136e-06
-9.93768e-06
0.00141494
1.97988e-06
0.212617
-3.20545e-06
8.76106e-06
1.74789e-06
-0.0157192
0.334131
1.5969e-07
7.13213e-06
-3.42328e-07
-0.00497887
6.15273e-07
4.65217e-07
-0.422899
-1.93949e-08
2.31313e-07
7.87259e-07
-0.027696
6.7833e-07
-2.33144e-06
-0.279091
0.807485
-0.176022
0.00129846
0.268755
-0.000179163
-3.10711e-06
8.84709e-07
-0.839382
5.25185e-07
-0.00218269
-0.00445056
-0.00019278
-7.29484e-06
1.11697e-05
1.16679e-05
-6.59478e-06
-6.67294e-07
-0.0516431
-0.240172
5.54674e-05
6.48661e-07
0.125034
-0.000969068
0.174413
-0.967412
-0.00467539
6.92639e-07
2.05426e-06
1.84324e-06
-0.00236496
7.59022e-07
3.23966e-06
0.539713
0.10203
-0.000459972
6.8758e-07
0.000107089
0.00673572
6.32137e-07
7.07806e-05
2.54979e-05
0.0622098
-0.00251085
3.2347e-06
-2.50274e-06
-0.000151168
5.46698e-07
0.000174762
1.18967e-06
-76.6501
8.7357e-05
-0.00359937
-1.57353e-06
1.68546e-05
0.389617
0.141185
-0.795781
0.000476426
0.252935
6.78947e-07
-2.85878e-06
-2.98699e-06
0.00166836
3.80718e-07
2.74832e-06
2.78601e-05
-0.0023776
-8.44539e-08
-9.43042e-07
2.76358e-06
-1.28419e-08
0.100319
-2.29756
-0.392286
-2.39911e-06
0.276611
-0.000127807
1.35393e-07
-0.000118242
-4.82939e-07
0.000384764
-1.04278e-05
-1.36663e-06
0.155766
1.15645
0.315728
9.37967e-06
0.79347
-1.46758e-06
-0.139723
0.172253
1.30554e-06
-0.00232556
0.0262128
-7.89204e-07
-2.51441e-07
-1.40475
9.48712e-06
-9.36708e-07
0.0376626
-0.0181822
1.95571e-07
-8.21741e-05
1.5412e-07
8.68794e-06
-0.00541453
1.01457e-07
0.234846
-0.000806388
-8.68237e-07
4.3458
-2.09729e-05
-0.00285837
-8.52844e-08
0.0256253
4.57432e-06
-0.166391
-1.74936e-06
1.08098e-06
-0.0636484
5.25974e-07
0.328097
-9.28699e-07
3.5426e-05
0.140126
-0.392494
7.9342e-06
1.26095e-05
-9.78716e-07
4.74494e-06
-1.07903e-05
8.89429e-05
1.09192e-07
0.206613
9.1373e-07
1.53803e-06
-0.0146486
0.0091873
7.26538e-06
1.79441e-07
-2.37489
-3.45013e-05
-5.40308e-07
-5.19467e-05
1.37698e-06
-1.36625e-06
0.153026
-6.49662e-07
1.02538e-06
-1.7426e-06
0.402978
4.72302e-07
4.09937e-06
-0.0842973
8.11181e-06
-0.26362
-0.000141398
9.22188e-10
-2.86308e-07
2.00707
0.000119879
-5.35228e-07
0.20604
-0.198789
7.11567e-07
-0.147318
0.00724551
1.95794e-06
7.50199e-06
0.00557307
-3.23147e-08
0.482012
2.85418e-05
1.80247e-07
0.0600557
-0.417371
0.0299886
-1.38186e-06
-0.0676138
1.50258e-05
-0.124901
-0.428544
5.12116e-06
-0.335967
-1.14132e-06
-7.95027e-05
0.000129756
-0.401804
4.23718e-07
1.20142e-05
0.378444
-1.19964e-07
-1.91186e-05
4.78297e-07
1.26993e-05
-0.137816
0.00106124
-9.25845e-06
1.23393e-05
-1.03526
1.24804e-05
-3.99321e-06
-0.000338018
-0.00608017
2.85529e-05
-5.60792e-07
-1.30591e-06
6.53495e-07
-2.2538e-06
6.64602e-08
1.28388e-06
-2.66602e-06
0.8201
-1.66139e-08
-11.3709
4.22205e-06
3.26712e-05
-7.36222e-07
9.60186e-05
1.2936e-05
-1.32276e-06
-0.189872
0.194251
-7.1742e-06
6.74338e-07
-0.584389
-1.8012e-06
-0.0890571
-8.00964e-05
-0.00368174
-0.231273
0.179629
-0.155318
2.69595e-05
2.91596e-06
6.59797e-07
0.0948489
-1.77737e-06
-8.4389e-07
0.00539706
2.2163e-06
3.88364e-07
4.12578e-08
0.405727
1.22982
3.02601e-07
0.132286
-0.312652
1.07945e-05
-7.12858e-08
1.30911e-05
-0.428838
6.67711e-07
-0.00650015
-1.00959e-08
-1.45593e-07
4.56925e-06
1.21633e-06
-0.00285977
1.61713e-06
1.45119e-06
-1.57872e-06
-4.4897e-07
0.015577
-8.51048e-07
-1.50607e-06
4.63976e-06
5.82189e-07
-0.0613991
0.564414
8.7817e-05
-6.18379e-07
6.31939e-06
2.91253e-07
-7.48677e-08
-0.190503
3.84456e-06
-1.2517e-05
-0.000620226
-0.208168
-7.06856e-07
-1.10411e-06
0.074086
2.56653e-07
0.00416813
0.000362912
-2.61859e-06
0.224556
-0.400107
-5.82045e-05
0.256392
-1.54586e-05
-0.00846702
8.78247e-07
-1.21768
2.03134e-07
19.5048
-3.7933e-07
4.58119e-06
-1.93506
14.6867
-0.256907
0.181101
-5.93411e-07
0.250081
4.11311e-07
0.119855
-0.000828002
-3.99865e-07
1.04128e-06
2.61991e-06
2.27891e-05
0.0011379
-0.0410697
-0.000623039
5.94825e-06
-1.94055e-07
1.99321e-06
0.19649
-0.000617429
-1.79595e-05
5.07189e-07
-4.61149e-07
-3.31433e-05
-0.277254
2.86605e-06
-8.50979e-06
-0.000287235
2.97132e-06
1.45167e-05
-3.93654e-06
-0.000593702
-0.00534748
-6.59831e-06
7.78482e-05
-7.36705e-07
-1.23976e-06
-0.156339
5.14461e-05
0.000327752
-1.50655
-1.06459e-06
0.0620142
0.385474
-0.00267577
-0.107842
-2.00392e-06
-0.00517023
-0.0410292
-0.00740645
7.27843e-08
0.00222488
-0.00610171
-5.91797e-07
-0.000366258
-0.199362
-2.54309e-06
-8.22537e-07
5.70948e-05
-1.63417e-08
-0.506887
7.84358e-06
4.26491e-06
-2.03793e-08
1.26331e-06
0.000112762
0.000100594
0.115859
-0.00715577
-0.0790576
0.000767026
-1.16522e-07
-1.96321e-06
1.92791
2.36948
-1.1246e-06
7.61925e-06
0.00974208
4.6361e-06
0.00492843
-0.0589329
-0.475905
6.72898e-07
9.39606e-06
0.198108
7.7936e-07
-0.290297
0.634427
-9.6005e-07
-0.0342919
-0.000145643
0.00991842
-2.89495e-06
0.0159016
1.46758e-07
-0.0240188
-2.44554e-07
-0.000751448
2.22212e-05
-3.58981e-08
0.189779
1.61283e-05
9.09613e-06
-1.65e-06
-0.193978
4.88091e-07
-8.99022e-07
0.122623
4.50415e-06
-3.02368e-07
4.62391e-07
0.000102334
-1.78175e-07
2.76939e-07
9.58067e-06
3.7648e-07
1.46706e-06
4.50409e-07
0.000774105
-0.0973072
-0.00197714
-0.169355
4.41287e-05
-6.85971e-06
3.18293e-06
4.47395e-07
2.13229e-06
-0.184283
-0.15045
-2.34153e-06
-9.70276e-09
-7.12382e-07
2.33333
-9.33909e-07
0.0597544
-0.493792
-0.422979
0.335281
-0.527765
-0.19567
8.12372e-07
-0.0289287
-0.274604
0.225818
-9.16094e-06
9.51361e-06
-0.000680419
-3.85147e-07
0.303057
-0.00621426
-0.000553087
1.75931e-06
-0.269802
-7.42589e-07
5.58256e-07
-0.117868
-0.00481822
1.38124e-06
-5.10905e-07
-0.000825547
2.91672e-07
0.427675
-0.960412
0.0853232
-0.0490507
-0.00388973
-0.0938078
6.99446e-07
-0.0191392
7.8715e-07
-1.38236e-06
-4.95564e-07
-0.0472706
-5.32312e-06
-1.55639e-06
-10.8846
-0.0504745
-0.158348
-0.00508912
-1.16973e-05
4.34356e-05
-0.400332
0.373842
-0.0243567
-0.0975003
-0.00130529
0.337354
0.0229864
-0.249414
-0.000387852
-0.000391889
3.05376e-06
5.30781e-05
0.000102563
-2.71897e-07
0.0326881
5.32978e-08
8.14449e-07
-2.19253e-06
0.0224648
2.65459e-05
6.00826e-07
4.12958e-06
-2.13168e-06
0.00194825
0.00144836
0.39764
1.67391e-05
-0.24735
-3.72063e-07
5.2349e-07
-0.00124655
7.68255e-05
-1.49098e-07
-0.39371
-0.0006376
-0.065077
-7.06876e-07
-0.365843
0.00144664
-5.91871e-07
-1.34372e-07
1.15437e-07
0.0586978
0.00803378
0.29757
1.025e-07
9.2812e-06
-9.76437e-07
-0.0887568
0.000103702
2.25548e-07
0.684112
1.62483e-06
-7.93455e-06
-0.150297
2.54125e-07
-2.32287e-06
3.11206e-07
4.19721e-06
9.21151e-07
1.4306e-05
-3.2219e-07
1.29779e-05
-0.00408506
-6.04057e-06
4.20505e-07
0.270178
6.29851e-06
-0.182528
0.350997
9.85507e-05
0.0417172
-0.074512
-1.86713e-06
-0.000642718
1.03306e-07
4.58402e-06
-0.685839
-1.21253e-05
0.208412
-1.16086e-05
-0.0110216
1.37307e-05
2.65278e-06
-1.00377e-06
-0.410023
-0.000165717
-0.095243
3.68753e-06
-0.00142497
-1.85378e-05
2.70893e-07
-0.000297926
-0.000527068
-7.40297e-07
0.187632
-4.31445e-08
-0.000598564
-4.21488e-07
6.08817e-06
0.00019638
-0.0446952
-6.65873e-06
-0.00381344
23.6005
-3.86608e-05
-0.000287478
5.86752e-08
-0.0461835
0.000228827
-1.05434e-07
0.000801032
6.55041
-2.86812
-1.98321e-06
1.34811e-06
7.98225e-08
-7.08851e-07
8.66522e-06
-0.196314
-2.42333e-05
5.34287e-07
-0.283766
8.11468e-07
-9.45468e-07
-2.36638e-05
-0.254886
3.52354e-06
-0.745829
0.0389807
-0.0117228
-0.40951
1.15661e-05
-0.10342
-1.131
-5.25231e-07
-2.59475e-05
8.95615e-06
9.68612e-06
-0.000417263
0.238922
-0.00223567
-4.18889
0.278124
8.21443e-06
0.249867
-8.24356e-07
-0.313606
-3.02279e-08
-0.0344591
0.0566661
5.44054e-07
-1.41913e-06
-8.78835e-08
-0.000148987
-0.000907622
-5.51392e-07
-2.73152
2.60456e-05
-0.000370431
0.00108617
-9.73396e-06
3.95951e-07
-0.591469
8.55372e-07
-0.0130884
-6.43784e-05
0.22277
1.07972e-07
7.38721e-06
-0.222765
1.00323e-06
8.55647e-07
-4.38955e-06
0.000176287
-0.000765598
-0.0130216
3.35314e-07
1.39655e-06
7.48711e-06
-1.7402e-08
2.38155e-06
0.345175
7.99718e-07
0.0001668
0.249369
-0.01305
-1.63217e-06
0.000326198
3.0437e-07
4.0489e-08
-0.0148598
0.108622
6.58451e-05
-3.06915e-08
-1.84187e-06
1.17884e-05
-0.00448677
-1.66866e-06
0.000220891
7.82799e-06
-4.21613e-06
3.18164e-07
3.14917e-06
-0.418146
-8.00556e-07
0.0298714
0.069046
-1.11647e-05
-3.82676e-07
-0.0369699
-0.130092
-4.59028e-07
-2.92532e-06
-0.201066
2.468e-06
-0.00101618
-0.00533926
-0.0875507
-1.03915e-06
1.03162e-05
-7.1289e-06
-2.37184e-06
0.368543
0.0016936
-1.97473e-06
8.04922e-06
4.68164e-05
6.02818e-07
-0.0136977
5.94351e-07
-0.000348999
-1.03427e-05
1.60694e-06
-5.31791e-07
7.98242e-06
-0.000947483
4.95946e-06
0.399486
-0.00327867
6.66082e-06
5.37855e-06
-5.2919e-07
4.29869e-06
0.28372
-2.05069e-08
0.0289231
-7.52982e-07
7.37978e-07
8.19078e-05
-0.378222
8.55524e-07
-8.4497e-07
8.1921e-06
-8.13923e-06
3.19261e-06
-7.54991e-06
-0.389382
0.00019406
-2.30126e-08
0.0396742
0.213946
3.25445e-06
-8.85637e-05
-0.129759
-5.71812e-05
-5.80011e-06
-20.0652
1.0336e-06
-0.548094
-0.000489078
1.36661e-07
-0.00484824
-2.19985e-06
5.17893e-07
1.21893e-06
-0.199902
5.7802e-06
0.318208
0.181157
0.727329
0.00021359
-2.56386e-07
-0.00381138
-1.04814e-07
0.475967
-5.39442e-07
0.0839419
-1.35667e-06
-0.00502083
1.16719e-05
-2.60602
-4.21685e-05
-1.85812e-08
-0.184424
-0.327891
-8.59607e-07
0.267244
-4.15435e-07
3.85787e-06
-1.44283e-06
1.16235
-0.188589
6.06898e-06
6.8716e-06
-0.412206
0.00233234
-1.30392e-08
-1.563e-06
-6.0507e-07
2.44014e-07
4.24725e-07
5.20663e-06
0.15913
1.07223
2.27976e-06
-0.00156811
6.6558e-05
-0.00308777
-5.50572e-07
1.02517
0.0363828
0.257675
-1.30064e-06
0.438791
0.0972514
-7.03058e-06
-2.99221e-05
3.59466e-06
-0.000552325
-0.323007
3.82774e-06
4.66912e-07
1.41112e-06
-4.08967e-06
-9.37358e-07
-2.4634e-06
-0.320799
6.64566e-06
0.00651961
9.41362e-06
-1.36123e-06
4.72708e-06
1.71181e-07
-0.000655509
-0.218702
1.36271e-07
-0.000798369
-6.35207e-07
-0.0605235
-1.72455e-06
2.07476e-06
-0.318199
3.2942
0.000149687
-1.86539
0.0662185
-9.39398e-08
-0.00010516
1.38571e-05
-0.000185316
-9.39308e-09
-1.29395e-06
-0.0056649
-0.00238039
-0.220548
-0.0090967
-0.000107287
2.01558
4.74507e-05
-0.000241326
1.03683e-05
0.318103
-0.376121
-2.56252
-9.56884e-07
-2.9661e-07
-0.378114
0.0459376
7.67868e-07
-0.0239806
7.9014e-07
-6.24938e-06
-1.84537e-08
-2.45969e-06
-1.23792e-06
-1.78978e-06
0.0657915
7.36931e-05
5.70727e-05
-1.13183e-06
-2.77289e-07
-1.2027e-07
5.25602e-07
1.80561e-07
-6.0664e-08
-1.80084e-06
-0.224712
-0.176085
0.0784943
-1.23812e-05
0.0617251
-0.000407986
0.511987
0.0326291
-0.000414178
2.17213e-07
1.00684e-05
0.000259949
4.11611e-06
0.244755
-0.638696
-7.38086e-06
5.04481e-07
8.16976e-05
-0.18981
-2.18852e-06
0.2274
8.84736e-07
6.06593e-07
0.667243
-2.40726e-07
1.53583e-06
1.60318e-07
-0.131513
5.57965e-08
2.23389e-06
-0.0165822
-1.16205e-06
-2.28519e-07
5.55021e-06
5.3527e-07
0.000360968
4.62672e-06
1.23507
-2.43868e-07
3.71683e-08
1.05909e-06
0.134181
2.84442e-05
9.58745e-06
0.34732
5.56668e-07
3.8096e-07
-0.00947167
-0.0161273
1.29127e-05
0.595566
-0.144339
3.2788e-06
-0.190894
2.43583e-07
-1.61404e-06
-0.00555943
-1.2284e-06
-0.0517187
-0.21596
2.06679e-07
0.000106682
6.76481e-06
0.251286
-0.229526
-0.000804353
7.72391e-07
-0.958468
4.16803e-06
-0.000750079
1.94854e-06
2.77496e-07
9.72473e-06
5.21926e-06
1.79368e-06
0.0267241
7.74612e-07
1.63816e-06
-0.000292122
-0.299733
-0.00419592
0.397178
1.78991e-07
0.000449092
-2.03847e-06
1.07341e-06
2.71033e-06
1.32557e-06
7.40193e-07
-3.401e-07
6.90372e-07
6.18223e-08
2.4426e-05
-4.07872e-07
1.8846e-06
-2.27114e-07
0.321819
0.66334
3.59079e-06
9.7238e-06
-0.4351
-9.73477e-09
-0.010552
-0.0895416
0.795185
0.602381
1.82346
0.558027
18.6928
-0.122041
-2.22567e-07
-1.52133e-05
6.5467e-06
0.000151111
4.82292e-08
-2.11191e-08
-1.85484e-06
-0.202317
-1.19191e-06
1.20668e-05
-0.174001
-7.7485e-07
-1.32954e-06
0.000994433
5.21156e-07
7.20563e-06
1.11006e-06
5.63401e-06
-0.107618
0.296639
-3.46366e-07
2.71967e-06
-1.74551e-07
-7.93434e-06
2.32278e-05
-1.19306e-05
11.7016
0.0462252
2.90596e-07
0.191547
-0.00013476
1.43705e-06
-0.274201
-8.08495e-07
-0.000699075
8.29104e-07
-5.82978e-06
-2.06411e-06
0.0991962
6.9129e-06
-6.13477e-07
2.10548e-05
8.68231e-07
-1.80104e-05
3.25561e-06
-2.47095
-3.80641e-05
-0.000185898
4.81289
0.221886
-0.0081619
-0.000159451
0.00888273
1.02959e-05
-1.01098e-06
9.63379e-06
-0.189429
-0.00091246
0.000162662
-1.07648
-6.17458e-07
9.18143
-0.0259661
-2.01135
-4.93502e-07
6.33994e-05
4.25578e-06
0.00234329
8.32434e-05
-0.241108
0.215241
-3.65096e-07
1.03661e-05
6.69249e-05
-1.83257e-06
5.84468
-6.75057e-07
0.000101524
0.00421979
0.000839457
1.59503e-06
-2.31067e-08
-4.41414e-08
-6.76114e-06
-1.34258e-07
6.19073e-06
-1.10865e-06
3.55733e-07
-1.14808e-06
-2.1995e-06
-6.81786e-07
2.08561
-0.199567
4.20645e-07
4.51451e-07
9.35682e-08
6.28306e-05
0.000157016
7.79638e-07
-0.270123
-0.00129842
1.52219e-06
-1.06354e-07
0.235477
-0.210282
-4.06728e-07
-0.00561651
9.47594e-06
-1.76291e-06
0.186617
4.81636e-06
0.000858327
-2.91816e-08
-0.157649
0.0890676
-1.32803e-08
-0.00023977
-0.235018
2.63572e-05
-0.342296
-3.20853e-08
-1.04864e-05
-0.202787
0.244413
1.47465e-06
-1.41661e-06
-7.67639e-06
1.85179e-06
2.24764e-05
-0.272519
-0.202622
-0.22217
5.75238e-05
-1.14961e-06
-0.00192544
7.08519e-06
0.161951
-1.07747e-05
-0.702293
2.76407e-07
3.41418e-08
-8.94489e-07
1.2894e-06
2.00462e-07
-0.00393763
0.232034
-7.35158e-06
-1.05912e-06
6.33716e-07
0.390384
-1.47884e-05
-1.28629e-05
1.80869e-07
-0.000148852
-0.256845
5.65952e-07
-2.32092e-06
-0.000510115
-0.00113822
1.85969e-07
-0.000420002
8.4686e-06
-1.60688e-05
-0.00952838
-1.44168e-05
0.298649
0.618458
-0.00941783
0.0318462
6.49812e-08
5.58998e-06
-1.06151e-05
0.631167
2.0266e-06
0.0948753
-6.97351e-08
-0.217386
-0.000125261
4.3415e-06
2.3978e-06
6.5728e-06
-0.30329
-0.000147691
-4.31379e-05
-0.188607
-0.00879239
4.69221e-07
2.15268e-07
-4.04503e-08
1.31043e-05
-0.243323
-0.00160988
7.17118e-07
0.00935135
9.22724e-07
0.629256
1.94532e-06
0.462487
-4.60659e-05
0.663971
-0.483681
0.000201816
1.10768e-06
-3.53639e-07
-8.25708e-08
0.143989
2.80776e-06
-0.00157885
-1.13896
-5.76147e-07
-0.722496
7.66809e-07
-1.64516e-07
-0.00460149
-9.07706e-07
6.89073e-07
0.0361707
0.118891
-0.296604
5.36777e-06
1.29874e-06
-5.60942e-06
2.13366e-05
1.76732e-06
3.70748e-07
0.289637
-0.00443295
0.748217
4.27203e-06
7.6384e-05
-11.5842
0.120101
-2.05614e-05
5.55697e-07
0.184469
-1.03717e-05
-0.226034
6.81552e-06
-1.77569e-07
-2.12323e-06
-7.06841e-07
-4.98346e-07
9.13207e-06
5.62249e-07
5.09736e-05
0.186606
-0.000229752
-0.181438
-1.53544e-05
1.20685e-07
8.40118e-07
-0.0102629
-2.79937e-07
5.32741e-06
-1.82291e-07
0.114413
0.0635726
6.50118e-07
6.00811e-05
4.68195e-06
-1.99722e-06
-6.92875e-08
6.06883e-08
4.01134e-06
-4.33669
1.42379e-05
-2.04597e-06
0.00212042
3.44169e-06
0.0684567
-0.0046088
-0.00568324
-0.0104378
2.65618e-05
5.05635e-08
-0.435178
-4.35097e-06
-0.0040343
0.000186532
1.57528e-06
0.000156633
2.80536e-07
0.543077
-1.17074e-06
-1.02017e-06
-0.115452
-0.000265153
0.242897
6.82317e-07
-0.00344141
0.00470399
-9.22893e-06
-0.256972
-3.13984e-07
1.43906e-07
-1.16135e-06
0.00181374
1.6573e-05
-1.52377
-1.89968e-06
-0.000618204
-0.211382
-0.0156425
-1.3718e-06
-0.337429
-1.46946e-05
-0.237625
-2.35938e-07
3.27857e-05
1.91372e-05
0.0646373
-1.79519e-06
1.84538e-06
0.211939
1.469e-07
-4.38635e-06
2.71507e-06
-0.0002579
-0.323324
0.126044
-1.69142e-06
-0.00237393
-2.04343e-06
0.0275226
-2.74249e-07
-5.88029e-06
-0.00514278
1.30941
4.09976e-05
-1.4842e-06
-7.6851e-06
0.109979
0.000274642
-0.00345044
0.36619
-1.03868e-06
0.768318
2.13642e-06
-0.0288721
9.85794e-08
3.74497e-06
0.235925
2.82598e-07
-1.15475e-06
-0.498361
-0.194806
0.0141057
2.2654e-07
-0.368132
0.458774
1.58527e-07
-0.00164394
-0.570072
-1.01982e-07
2.43809e-05
0.111981
7.45888e-08
-3.05011e-06
8.50099e-08
2.35578e-06
-0.00171386
-0.000740752
5.37159e-05
-0.177974
-1.3037e-07
0.000924475
2.41471e-05
1.05072e-05
6.28876e-06
9.30027e-05
1.03434e-07
-3.26864e-08
0.174758
-0.0190514
-0.466195
-1.18773e-06
-0.000170012
5.4252e-07
-0.253867
2.11946e-07
-2.5744e-05
0.150477
0.149935
-0.000480137
-1.20895e-08
1.18978
-0.120882
0.823136
-2.13973e-06
7.60938e-07
2.14532e-06
0.463497
-0.000139121
0.0301162
0.39582
-4.55521e-06
-1.71124e-08
-0.0516843
-2.47907e-05
0.00102562
4.32804e-07
6.15426e-06
-9.97732e-07
0.981895
5.59708e-06
-0.00175105
-5.05901e-07
7.98263e-07
4.99448e-07
-0.0597376
0.0423969
-7.17976e-06
0.132892
-1.06939e-05
-1.01448
2.12879e-07
3.93516e-09
-0.00479973
7.92645e-06
4.21375e-07
3.07281e-06
0.00155975
-4.19714e-05
0.00264631
7.12674e-06
-0.00229606
0.226019
1.26222e-05
2.43426e-06
7.57773e-06
0.173705
0.000129455
-0.000598459
-0.00437787
-5.87489e-07
1.06713e-06
0.0043273
3.69701e-05
2.98535
0.0832898
3.76736e-05
-0.122818
-1.75076
-0.159329
-0.00154343
1.35984e-05
1.49433e-07
0.0750101
0.239525
1.27346e-06
3.04711e-05
-0.0361943
1.19929e-07
-0.0916979
14.5627
-0.00810544
1.75222e-06
-0.00533065
6.04593e-06
-7.29172e-08
2.09409e-07
-0.00822908
-3.96097e-06
-0.000958329
8.59016e-05
3.84045e-09
3.91758e-07
0.117183
-1.71114e-06
-1.10253e-06
-0.000978434
-2.41583
-0.000355136
-9.80245e-07
5.31116e-05
-0.341693
-0.384808
-1.91427e-05
0.0527465
-0.00520689
0.00613655
0.000324491
2.59297e-06
0.00383524
-4.64407e-05
-1.23429e-06
-1.01679e-06
4.96094e-06
2.72008e-05
-0.12152
-0.0672247
-1.38801e-08
0.27306
0.000836506
-1.75902
-0.441381
0.014458
-0.23575
-0.00651621
-0.184422
-0.000367384
-0.0714928
-0.00239405
-1.59161e-06
1.38731e-06
0.654667
-0.116056
-0.00606223
0.0522964
2.47891e-06
0.108741
-0.233759
-7.10955e-08
-1.04398e-07
6.71017e-05
-0.00139286
-0.250463
-0.184732
0.0213133
-3.72327e-07
-1.97206e-06
-1.49372e-08
0.134378
8.65784e-06
0.152235
3.82287e-05
-0.465676
0.00216189
-0.203139
-5.70776e-06
-0.441226
2.07048e-06
-4.53224e-07
-1.96991e-05
5.23612e-07
0.00594539
0.00409772
-0.2719
2.05576e-06
-0.307339
0.0234441
-6.8171e-07
6.10771e-05
-0.0556231
0.000457234
-3.98438e-07