/*--------------------------------*- C++ -*----------------------------------*\
| =========                 |                                                 |
| \\      /  F ield         | OpenFOAM: The Open Source CFD Toolbox           |
|  \\    /   O peration     | Version:  v2012                                 |
|   \\  /    A nd           | Website:  www.openfoam.com                      |
|    \\/     M anipulation  |                                                 |
\*---------------------------------------------------------------------------*/
FoamFile
{
    version     2.0;
    format      ascii;
    class       surfaceScalarField;
    location    "50";
    object      meshPhi;
}
// * * * * * * * * * * * * * * * * * * * * * * * * * * * * * * * * * * * * * //

dimensions      [0 3 -1 0 0 0 0];
oriented        oriented;


internalField   nonuniform List<scalar> 
27907
(
-2.42429e-07
-5.69262e-07
8.11477e-07
-4.98265e-07
6.63416e-07
-1.65267e-07
1.27649e-06
5.87368e-07
-1.58802e-06
3.91216e-07
-7.40935e-07
3.49388e-07
4.0621e-07
-6.24205e-07
2.1796e-07
-3.06587e-07
6.08854e-07
-3.02296e-07
-4.03679e-07
4.50624e-07
-4.69958e-08
-2.41034e-06
-6.5358e-08
2.59805e-06
-2.17776e-07
-5.16333e-07
7.33518e-07
-9.17498e-07
1.59072e-06
-6.77201e-07
-2.65411e-06
1.34988e-06
1.29545e-06
3.19244e-07
2.46358e-07
-5.65621e-07
2.26462e-07
-9.662e-08
-7.20155e-08
6.84946e-07
2.63946e-07
-9.51798e-07
4.76392e-07
2.73815e-06
-3.23164e-06
-3.45453e-07
7.16297e-07
-3.71199e-07
1.66985e-06
-1.24372e-06
-4.33202e-07
3.15066e-06
-8.9627e-07
-2.1917e-06
-3.88322e-06
3.68552e-06
1.99361e-07
4.4662e-07
9.83102e-07
-1.43268e-06
-2.68235e-07
4.49139e-07
-1.80752e-07
2.4167e-07
2.09291e-07
-4.48198e-07
3.66361e-07
-5.94578e-07
2.28207e-07
-4.20574e-07
-1.59597e-07
5.79905e-07
-8.08753e-07
4.61909e-07
3.46702e-07
1.06915e-07
-2.38616e-06
-6.58019e-07
3.70423e-07
2.87646e-07
4.72587e-07
-6.15496e-07
1.4289e-07
5.2236e-07
-6.76036e-07
1.53626e-07
-5.27544e-07
5.62937e-08
4.71479e-07
-8.62205e-07
1.38117e-06
-5.24125e-07
4.71568e-07
-1.93721e-07
-2.77851e-07
4.67521e-08
2.67241e-08
-4.60851e-08
-9.88702e-08
2.67334e-06
-2.58586e-06
4.02286e-07
-1.02268e-06
6.18237e-07
3.473e-07
1.19438e-06
-1.53766e-06
-4.27248e-09
-6.35774e-08
9.16512e-08
6.39111e-07
-3.1573e-06
2.51754e-06
2.94712e-06
-1.2109e-07
-2.83247e-06
1.69588e-06
-6.48378e-07
-1.05425e-06
1.45483e-06
1.99232e-06
-3.44708e-06
1.10807e-06
8.11729e-07
-1.92217e-06
-4.04649e-06
9.87277e-07
3.09657e-06
1.62639e-06
3.52226e-08
-1.66501e-06
-5.5054e-07
-3.18916e-08
5.82395e-07
-1.26299e-07
-8.15848e-07
1.06924e-06
-1.02802e-07
4.69155e-07
1.64349e-06
4.47876e-07
-2.0985e-06
8.88989e-07
-1.81082e-06
3.64597e-06
-1.70622e-07
-3.42344e-06
-6.34722e-07
-2.39176e-07
8.733e-07
4.53802e-07
1.60278e-07
-6.14141e-07
-1.02425e-06
2.61177e-06
-1.44046e-06
-9.19157e-07
-1.74403e-06
4.80217e-07
-7.6317e-09
6.9929e-07
-3.48853e-07
-3.50514e-07
-8.22176e-08
1.01481e-07
-5.36033e-07
-3.13145e-07
2.47056e-06
-3.03014e-06
5.58735e-07
1.1589e-07
-9.61856e-07
8.43254e-07
-1.05187e-06
3.30859e-07
7.2066e-07
8.27226e-08
-4.86363e-07
-7.72889e-07
-1.57025e-07
9.28598e-07
1.0765e-06
-2.38679e-06
1.30599e-06
1.12068e-06
-2.01585e-06
3.75593e-07
2.65451e-06
-3.02726e-06
1.579e-06
9.6658e-08
-1.68307e-06
-2.07763e-08
8.92844e-08
3.57454e-06
-4.56827e-07
-3.11484e-06
5.05624e-07
-5.18756e-08
-1.64962e-07
-2.9265e-07
4.57581e-07
2.45608e-06
-2.77237e-07
-2.18293e-06
2.06669e-07
3.48484e-06
2.23573e-07
-4.99391e-07
8.69613e-08
3.59014e-06
-3.41919e-07
-3.18697e-06
-2.34455e-06
3.26914e-06
-9.22986e-07
1.79606e-07
-8.84514e-07
7.04155e-07
-5.25004e-07
4.97139e-07
2.78499e-08
6.63531e-07
-9.93176e-07
3.29556e-07
-1.53351e-07
-3.37443e-07
4.90786e-07
2.62692e-07
2.86827e-07
-5.49544e-07
-3.51558e-07
-2.29756e-07
5.81261e-07
-6.08444e-07
7.22369e-07
6.84883e-07
-3.28601e-07
-3.56307e-07
-5.76847e-07
7.55697e-07
1.31162e-06
6.92395e-07
-2.01096e-06
2.79692e-07
2.94046e-07
-5.7375e-07
2.57038e-07
-1.03122e-06
-2.74148e-07
-1.70076e-07
4.44155e-07
-3.36048e-06
1.01702e-06
3.46586e-07
3.38281e-07
3.13153e-06
-6.61044e-07
1.74919e-07
4.30948e-07
-6.0587e-07
-7.81714e-07
1.88745e-06
4.23132e-07
1.66496e-07
-5.89659e-07
-2.90314e-07
4.65237e-07
2.83472e-07
-8.61154e-07
1.05878e-06
2.57856e-06
-3.8384e-06
1.20308e-06
2.65499e-06
-4.79673e-07
2.11806e-07
-6.73056e-07
1.42527e-06
-7.55173e-07
-6.7174e-07
2.35814e-07
4.35913e-07
8.42649e-07
-1.073e-06
2.27768e-07
1.23539e-06
-2.86444e-07
-9.50708e-07
2.8837e-07
1.83197e-07
9.605e-08
-6.23453e-07
3.08119e-07
3.37814e-07
-6.46167e-07
1.12461e-07
-6.37456e-07
2.40319e-06
-3.05628e-06
6.44546e-07
-2.30526e-06
1.11074e-07
2.19073e-06
-5.65792e-07
2.755e-07
-5.09488e-08
2.48436e-06
-2.211e-06
-1.57197e-07
3.15927e-06
-5.98213e-07
-2.5617e-06
-2.31419e-07
-3.29994e-07
5.61319e-07
-3.69996e-07
4.11918e-07
-4.18911e-08
3.10668e-07
1.87983e-07
-4.98588e-07
3.29737e-06
-2.8384e-06
3.97159e-07
-6.02205e-07
2.0503e-07
-2.68366e-08
4.49943e-07
1.78299e-06
-1.2879e-06
-4.99685e-07
-5.34189e-07
-1.70854e-06
2.24322e-06
-6.02427e-07
5.48355e-08
5.47546e-07
5.7189e-07
-4.63235e-07
-1.08954e-07
-7.02745e-07
3.85873e-07
3.16795e-07
1.67789e-07
-7.18393e-07
1.85686e-07
-6.84067e-07
-7.76086e-07
1.1762e-07
6.58149e-07
-7.30338e-08
5.03973e-07
-5.02674e-08
8.77315e-09
1.06838e-07
1.13443e-06
5.29035e-07
-3.76231e-07
-2.81619e-07
1.69685e-07
1.10325e-07
-3.21836e-07
9.92215e-07
-6.7086e-07
-4.63983e-08
-3.81565e-07
3.04742e-07
1.36132e-06
-1.66977e-06
-5.58098e-08
-8.29497e-07
8.96744e-07
7.93264e-07
-3.7037e-07
-3.44322e-06
-1.05927e-06
8.18398e-07
2.40723e-07
-1.38682e-09
6.6482e-07
-7.7374e-07
5.75115e-07
1.98756e-07
-1.83318e-06
-1.02807e-06
2.86408e-06
2.64413e-07
4.34818e-07
-1.18409e-06
2.63852e-06
3.45174e-06
5.24072e-08
-3.51297e-06
-3.38216e-07
-1.09794e-07
4.47987e-07
3.43551e-07
-5.77897e-07
2.34336e-07
-1.33777e-06
4.70224e-07
-6.80148e-07
1.05835e-07
5.74217e-07
2.69129e-07
-6.20747e-07
-5.56137e-07
6.40641e-07
-8.48274e-08
9.83414e-07
-1.96882e-06
9.78258e-07
-3.30626e-07
-1.86361e-08
3.81629e-07
-1.80202e-07
-2.99189e-07
4.79376e-07
2.06886e-06
-1.387e-06
-6.88968e-07
5.07876e-07
-1.10731e-07
-3.19672e-07
1.95654e-06
-3.34512e-06
1.82402e-06
1.51515e-06
1.03215e-09
1.06039e-07
-1.07465e-07
-3.16113e-06
7.57052e-07
2.44668e-06
-3.78437e-07
-3.89852e-07
7.66469e-07
-2.58857e-07
-2.8563e-07
5.44487e-07
-1.32321e-06
-2.02821e-06
-2.5446e-07
-7.978e-07
7.40508e-08
4.48268e-07
-3.82871e-06
3.80399e-06
2.76001e-08
2.37734e-07
-6.07117e-07
3.69343e-07
4.3502e-07
3.17968e-07
-7.53221e-07
5.96053e-07
-2.98497e-07
-2.97585e-07
1.94332e-07
2.98843e-07
-4.92599e-07
1.46311e-06
1.73969e-06
-5.5832e-07
2.99474e-07
3.40988e-07
2.05235e-07
-5.46251e-07
-8.02989e-07
4.22771e-07
-7.44037e-07
3.23154e-07
-2.3669e-07
6.32223e-07
-3.95605e-07
-7.45058e-07
1.81808e-06
-3.85083e-07
-6.7439e-07
-9.97549e-09
2.62725e-06
-2.61802e-06
2.08859e-06
-2.55994e-07
-1.71235e-06
-1.61124e-07
-1.10912e-07
-5.83551e-07
2.71121e-08
-4.82394e-06
1.56431e-06
3.2909e-06
-2.70253e-06
7.11086e-07
1.9797e-06
8.73752e-07
-6.1571e-07
-2.58557e-07
6.14197e-07
2.40304e-06
-3.00977e-06
1.68009e-07
-5.38097e-07
3.7444e-06
-1.7345e-07
-3.51941e-06
2.83827e-07
-3.06276e-06
2.78345e-06
-8.8641e-07
5.64198e-07
1.8987e-08
-7.95407e-07
-2.56096e-06
9.72063e-07
1.58382e-06
-9.41477e-07
-4.0184e-07
-1.33927e-06
1.20066e-06
1.37326e-07
-6.4438e-07
9.00246e-07
-9.03444e-07
1.34726e-06
-3.37287e-07
7.72066e-07
2.00819e-07
-1.23883e-06
1.08013e-06
-3.76549e-06
-2.34126e-07
9.57311e-07
-4.21878e-07
-5.35602e-07
1.96422e-06
-2.29171e-06
-9.76786e-07
-3.5342e-07
1.3273e-06
-1.01226e-06
6.73721e-08
9.43157e-07
1.94909e-07
8.9394e-08
-2.73681e-07
-1.0672e-06
-1.00916e-06
-5.60548e-08
1.06283e-06
1.68719e-09
-3.08867e-07
-1.70695e-07
4.42199e-07
-2.7134e-07
-7.26597e-07
1.61149e-06
3.0267e-06
-8.68794e-07
-2.09637e-06
9.31239e-07
3.02586e-07
2.95629e-06
-2.02417e-06
-9.38167e-07
-6.8181e-07
-4.02147e-07
1.08176e-06
6.06277e-07
4.07035e-07
-1.01349e-06
-6.79402e-07
3.30645e-07
3.48737e-07
7.7693e-07
-1.70763e-07
7.10697e-07
-4.02007e-07
-3.09002e-07
-3.803e-06
1.77298e-06
2.11839e-06
-5.91994e-07
2.85378e-07
2.19088e-06
1.21508e-07
2.27453e-06
9.64538e-08
6.29189e-07
-7.26558e-07
1.6882e-07
-5.07098e-07
-7.91628e-07
5.13404e-07
2.78e-07
7.44754e-08
-1.08631e-06
1.30692e-06
5.72207e-08
-1.36671e-06
-6.76684e-07
-3.70093e-07
1.046e-06
-2.52711e-06
-1.56328e-06
4.12006e-06
-1.19397e-06
2.68057e-07
9.2432e-07
-2.3274e-06
2.70474e-06
-1.02259e-06
3.76795e-07
-4.80651e-07
-8.93878e-09
4.89581e-07
-4.43309e-07
7.26051e-07
-8.43635e-08
3.62508e-08
-2.72701e-06
3.34915e-06
2.27546e-06
-4.76404e-06
3.02778e-08
9.92494e-07
-8.97596e-07
-6.69762e-07
6.72792e-08
-3.21864e-07
-8.56241e-07
1.17521e-06
-2.92641e-06
2.86646e-06
1.02828e-07
-7.94099e-07
4.64143e-07
3.29835e-07
5.89154e-07
-2.81276e-07
-1.30824e-06
2.39479e-06
-1.0958e-06
-3.99852e-08
-6.40277e-07
4.69527e-07
-2.11254e-07
-2.58437e-07
2.92781e-07
-7.36842e-07
-1.31073e-06
1.66092e-06
2.01081e-07
3.48125e-07
-5.49233e-07
-7.99625e-07
1.47058e-06
-6.72039e-07
1.41563e-06
-1.91982e-06
5.07494e-07
-3.42871e-07
5.80562e-07
1.58452e-06
-2.78994e-07
8.02615e-07
-1.60329e-06
-4.0705e-06
1.28813e-06
2.77182e-06
1.64087e-06
-1.46697e-06
-1.77394e-07
-1.90104e-07
6.94918e-07
-5.0524e-07
2.18533e-07
4.91888e-07
6.0032e-07
-1.2845e-06
5.17401e-07
4.30469e-07
-9.47961e-07
-5.3126e-06
5.19771e-06
-4.27353e-07
1.23714e-06
-8.13264e-07
2.45477e-06
6.84631e-07
-3.11438e-06
1.67276e-07
-1.18149e-06
9.88901e-07
-1.71981e-06
-5.03477e-07
5.99159e-07
-3.81916e-07
4.40379e-07
-5.84646e-08
-9.81854e-07
-2.70247e-06
-3.00354e-06
8.01491e-07
2.19431e-06
-1.57233e-07
-4.61866e-07
6.19181e-07
-2.24632e-06
-7.63765e-07
-1.85146e-06
-8.64443e-07
-1.12867e-06
5.77027e-07
-6.68297e-07
9.12735e-08
-9.61065e-08
4.06812e-07
3.14362e-06
-3.20464e-06
6.51813e-08
1.1412e-06
-7.82709e-07
-3.59327e-07
-1.4876e-07
2.3558e-07
-1.42779e-07
3.82415e-07
-6.12234e-07
8.74234e-07
1.44549e-06
-2.32604e-06
-4.16081e-06
4.11561e-06
6.32879e-08
4.98453e-08
1.17252e-06
-1.22643e-06
1.0037e-06
-1.32881e-06
1.06565e-06
-2.89551e-06
3.18997e-07
-4.67766e-07
-3.64605e-07
-4.29641e-07
-7.6339e-07
5.85621e-07
1.77064e-07
-1.02671e-07
-5.83464e-07
-2.75393e-07
4.05302e-06
-3.74079e-06
1.73809e-06
-2.62112e-07
-1.16073e-06
6.18739e-07
5.41423e-07
-3.33226e-07
-3.46204e-07
3.19035e-07
1.45831e-06
-1.77867e-06
-4.75909e-07
7.43341e-07
2.0738e-07
-9.51902e-07
-1.76706e-06
4.6005e-07
1.30278e-06
4.63752e-07
-3.10198e-07
-3.57115e-06
1.49968e-07
-5.91813e-07
4.4102e-07
2.67432e-07
9.33056e-07
-9.23505e-07
-5.89111e-07
4.05549e-07
1.83483e-07
-8.08435e-07
-3.91553e-07
1.19878e-06
2.84056e-06
7.3501e-07
-8.6096e-08
1.41962e-06
-1.33749e-06
1.13538e-06
-2.68427e-08
-1.11e-06
-1.73341e-06
-1.16585e-06
2.88431e-06
-4.11748e-07
1.83414e-06
3.64822e-07
1.12896e-07
-4.77719e-07
-1.42736e-07
-6.21613e-07
-5.68681e-07
-2.3349e-06
2.93351e-06
-4.46226e-07
8.81933e-09
4.37407e-07
5.14597e-07
-4.94507e-07
-2.97376e-07
-3.06707e-06
-3.69186e-07
3.46735e-06
9.37375e-09
-4.31145e-07
-1.38809e-07
5.69476e-07
-2.78815e-06
1.46953e-06
-4.34161e-06
-4.45895e-07
-4.23027e-06
1.58835e-06
2.64922e-06
-2.02607e-06
1.91882e-07
1.83204e-06
-4.31804e-07
7.49537e-07
2.36205e-07
8.98009e-07
1.32423e-06
-1.27878e-06
-1.64014e-06
7.81147e-07
-4.66778e-07
1.44689e-06
-1.46535e-06
5.78434e-07
-4.60638e-06
-6.86248e-07
-3.13224e-07
3.13868e-07
7.01103e-07
-5.83786e-07
-1.17329e-06
6.80912e-07
4.91568e-07
7.8337e-07
3.57276e-07
-2.14052e-07
6.04997e-07
1.55239e-06
-1.23449e-06
-9.48254e-07
-1.61703e-06
-4.26697e-08
9.0613e-09
8.44331e-08
-4.0192e-07
5.51102e-07
-3.35052e-07
-2.54168e-07
-1.86564e-06
4.17611e-06
2.91019e-06
-7.83224e-07
-2.06338e-06
2.22591e-06
-4.06085e-06
-1.34054e-06
1.64161e-06
6.08217e-07
-1.28579e-06
-3.56002e-07
-4.52913e-07
-3.1271e-06
2.59378e-06
-9.55945e-09
-2.26548e-06
2.27154e-06
-7.90972e-08
3.74226e-06
-3.61653e-06
-7.4539e-07
3.99551e-07
-5.60683e-07
-2.12973e-07
-3.23559e-07
8.90317e-07
-5.67387e-07
-1.10747e-06
6.41757e-07
4.65443e-07
-1.04855e-06
-1.77732e-06
2.81415e-06
5.80875e-07
-7.05252e-07
1.24084e-07
-9.06066e-07
6.63383e-07
1.58789e-06
-1.06843e-06
-5.22908e-07
-1.36878e-06
7.03357e-07
6.64668e-07
-2.82984e-07
3.15321e-07
1.72644e-07
-4.87814e-07
3.1575e-07
5.57571e-07
-1.16026e-06
1.20492e-06
3.82751e-08
-9.75373e-07
-4.0623e-07
1.37899e-06
-7.56297e-07
4.21699e-07
3.34517e-07
3.17393e-08
5.45296e-07
2.16749e-06
-1.41306e-06
-7.58981e-07
-3.88839e-06
3.64849e-06
4.66875e-07
-1.16615e-06
6.96926e-07
1.5556e-06
2.17999e-06
-3.73771e-06
1.77544e-06
-1.36645e-06
-4.15861e-07
-4.75132e-07
7.11552e-07
-2.36522e-07
-2.37711e-07
-3.74e-07
6.11489e-07
-9.81677e-07
8.23212e-08
8.96772e-07
1.0373e-06
-1.50717e-06
1.53661e-07
-5.35578e-07
2.24465e-06
-2.95412e-06
7.05689e-07
1.97601e-06
-1.87322e-08
3.00576e-06
-2.60965e-06
-3.84534e-07
-2.45199e-07
3.18595e-06
1.18991e-06
-5.77983e-07
-6.14619e-07
-1.41448e-06
2.11672e-06
-7.09221e-07
3.97973e-08
-4.86024e-07
-2.07619e-07
-4.56184e-07
6.6393e-07
-1.25583e-06
-2.82424e-06
-3.08618e-06
2.54979e-06
5.36342e-07
-2.87078e-07
-2.49287e-07
1.32571e-07
-1.11728e-06
-6.3993e-07
4.21696e-07
2.90371e-06
-6.63087e-07
-1.04281e-06
1.27558e-06
-2.38237e-07
-3.75695e-06
-3.82925e-07
8.042e-07
-1.83715e-06
1.03081e-06
7.63155e-07
-2.47166e-06
-3.09476e-06
2.2074e-06
3.87706e-07
1.08883e-07
-4.96591e-07
-3.92748e-07
2.22129e-07
2.00887e-07
2.57214e-07
-4.57674e-07
-2.86111e-07
-1.31117e-07
1.61358e-07
2.36813e-08
-8.73395e-07
6.4161e-07
2.31019e-07
5.85725e-07
-2.81731e-07
-3.03972e-07
1.18262e-06
4.55117e-07
6.65939e-07
1.91632e-06
-8.42272e-07
6.27869e-07
3.58131e-06
-3.53918e-06
-2.90337e-08
-1.08839e-07
-3.3991e-06
3.5012e-06
2.3119e-07
1.97023e-06
5.29038e-07
6.58841e-07
-2.77354e-06
2.90547e-06
-1.29834e-07
-2.53134e-07
1.87606e-06
-5.75966e-07
-5.31798e-07
-6.62481e-07
3.29945e-07
3.32491e-07
-6.05048e-07
-3.61332e-06
4.95524e-07
-8.93327e-08
1.08703e-06
2.40893e-07
-1.3325e-06
-3.15365e-06
1.25367e-07
-2.46089e-06
1.20895e-06
1.2414e-06
6.82155e-07
2.54128e-06
-3.22644e-06
2.10226e-06
-3.55634e-07
-1.41542e-06
7.03841e-07
3.82603e-07
-1.08954e-06
-7.28801e-07
-7.37278e-07
2.23366e-07
2.45185e-07
1.00967e-06
7.70031e-07
8.79199e-07
1.86271e-06
-2.7382e-06
-5.44811e-07
3.87659e-07
-2.39376e-07
-3.37148e-07
5.76386e-07
7.19215e-07
-4.96741e-07
-2.22964e-07
-3.16811e-07
5.11581e-07
-1.08921e-06
3.8984e-07
6.96572e-07
8.74091e-07
1.59249e-06
-2.47448e-06
-2.46213e-06
-5.25403e-07
-1.441e-07
-2.73008e-06
2.54714e-06
4.02819e-07
1.16012e-06
-1.08089e-06
1.50596e-06
-9.24033e-07
-5.87167e-07
-1.66366e-06
-1.27171e-07
1.78174e-06
5.90639e-07
-1.40044e-06
1.66987e-06
-7.55363e-07
3.43142e-07
4.11759e-07
9.14861e-07
-1.84888e-06
2.52874e-06
-4.95155e-07
-1.14872e-06
2.74953e-07
-5.49107e-07
-1.34949e-06
2.09239e-06
-7.48162e-07
-6.94814e-07
4.56851e-07
5.88472e-09
-2.5854e-08
-2.95687e-06
5.09654e-07
-3.45863e-07
-1.63827e-07
-1.05643e-06
1.4337e-06
-3.79019e-07
2.06481e-06
-2.92199e-06
8.49489e-07
5.44177e-07
-7.34753e-07
-5.20406e-07
9.206e-07
-6.16538e-07
-5.44706e-07
-5.37212e-07
4.64168e-07
1.17616e-06
2.09326e-06
8.37215e-07
-2.25424e-06
1.41161e-06
3.13936e-07
5.58967e-07
-3.12629e-07
-1.65729e-06
1.22369e-06
4.33025e-07
-5.6487e-07
-3.64045e-07
9.28095e-07
-3.03572e-07
9.85932e-07
-2.60752e-07
-4.95149e-07
-4.43005e-07
1.55418e-07
1.20901e-07
-7.00736e-07
2.5472e-06
-9.47456e-08
-2.79313e-07
8.16412e-07
-5.37818e-07
1.24078e-07
3.03449e-06
2.88056e-07
8.69249e-07
2.288e-06
-1.77782e-06
-5.17308e-07
4.87199e-08
-5.85946e-07
3.42331e-07
-1.39089e-06
-4.41372e-07
-3.15042e-07
3.07956e-07
-1.98157e-06
-1.41373e-06
8.72991e-07
5.35791e-07
1.08738e-06
-5.51092e-07
3.91267e-07
-3.54282e-06
3.7977e-06
-1.89821e-08
3.34275e-07
4.13527e-07
2.60125e-06
-5.85572e-07
1.93113e-08
5.66193e-07
1.25002e-06
-2.77853e-06
1.5527e-06
-3.96031e-07
-2.47151e-07
6.4258e-07
1.37205e-06
3.96365e-07
7.16925e-08
2.2677e-06
-2.30091e-06
4.16313e-06
-2.93804e-06
2.03332e-06
-1.70086e-06
3.8458e-07
-7.1254e-07
3.27729e-07
-4.87883e-07
4.24517e-07
6.33596e-08
-5.22405e-07
2.90912e-07
1.23388e-06
-1.68872e-06
4.48655e-07
2.5689e-06
-7.85477e-07
-1.79535e-06
-9.566e-07
9.2854e-07
-1.89485e-07
1.91729e-08
1.71505e-07
1.55525e-07
-2.04871e-07
4.11319e-08
3.04829e-07
2.7278e-07
-5.77664e-07
1.83708e-06
2.3458e-06
2.75754e-06
-2.73308e-06
-1.83477e-08
1.07459e-06
-3.32386e-07
-9.97974e-07
-6.46271e-08
-1.14747e-06
5.81608e-07
1.9094e-07
-1.14899e-06
2.79392e-06
-3.18601e-08
-3.21165e-06
4.4019e-07
1.6709e-06
-9.20683e-07
-7.51731e-07
1.16473e-06
-2.52045e-06
9.09964e-07
1.15238e-06
6.0833e-07
-6.48427e-07
-2.70063e-06
1.20376e-06
1.4833e-06
-9.27381e-07
-7.30691e-07
2.04841e-06
-6.96562e-07
-1.35643e-06
-1.57713e-06
2.46077e-06
5.0926e-07
-1.91106e-08
-4.90739e-07
1.93547e-06
-2.67656e-06
7.37965e-07
-2.72147e-06
4.8652e-07
2.22872e-06
7.47507e-08
-5.23689e-07
4.4918e-07
-4.092e-07
4.76355e-07
-6.72428e-08
-6.84223e-07
-7.34678e-07
-7.82685e-08
5.26156e-07
-4.4827e-07
1.09175e-06
1.07194e-06
-2.60816e-06
-5.18637e-07
1.09379e-07
-1.81606e-07
-3.65197e-06
-4.6108e-07
2.57019e-07
2.04057e-07
1.83292e-07
-7.6895e-07
-2.20802e-06
2.51486e-06
-2.77134e-07
2.75664e-08
5.80663e-07
5.99609e-07
1.08407e-06
-6.19375e-07
-1.14439e-07
1.45426e-07
2.27113e-08
-4.50566e-07
-7.23629e-07
-6.20611e-07
4.30117e-07
1.90412e-07
2.63131e-06
3.22911e-06
-3.2222e-07
-2.9006e-06
-6.95606e-07
3.41675e-06
1.23318e-06
-2.97828e-06
3.16153e-06
2.82622e-07
2.34983e-07
2.63389e-07
-3.82604e-07
1.55525e-07
-3.43808e-07
-3.18729e-07
-1.82292e-06
-2.3432e-07
2.04878e-06
-3.56114e-07
4.30128e-07
-3.94214e-08
-2.69961e-06
2.73842e-06
-5.59234e-07
-2.86874e-07
8.45522e-07
1.88191e-07
3.02681e-06
-5.52615e-07
3.1527e-08
-2.46534e-06
5.46975e-07
1.91031e-06
-3.3404e-07
1.12336e-06
-7.47898e-07
-1.3057e-06
2.17378e-06
8.633e-07
-1.71876e-06
8.53501e-07
-2.64613e-06
2.63539e-06
1.02115e-06
-3.87584e-08
-9.84036e-07
-5.69657e-07
-1.75976e-07
3.85784e-06
-1.90904e-07
-3.54779e-06
4.88607e-07
8.45225e-08
-5.732e-07
-2.04403e-07
-2.85452e-07
4.89847e-07
-4.65185e-07
1.22534e-06
-7.60675e-07
-7.63622e-07
4.8372e-07
-2.98371e-07
4.99634e-07
1.61399e-06
-1.25985e-06
-1.45759e-06
-1.42536e-06
1.97247e-06
-5.54699e-07
-3.44776e-07
1.79792e-07
4.14411e-07
-2.2469e-06
-1.63289e-06
1.08275e-06
5.43494e-07
3.56333e-07
-2.80028e-06
2.44463e-06
3.32508e-07
-6.19171e-07
2.86638e-07
-1.72644e-06
4.33242e-07
1.28875e-06
2.67504e-08
-5.87355e-07
-6.70238e-07
9.9674e-07
-3.2793e-07
-3.23027e-07
4.05758e-07
-2.06012e-06
2.95279e-06
-1.03217e-07
-2.84492e-06
1.03468e-06
-1.38143e-06
3.44249e-07
5.81383e-07
1.50271e-07
-7.31788e-07
2.31254e-06
-4.34291e-07
-2.68541e-07
-1.08962e-06
2.74865e-06
-1.66648e-06
3.23305e-07
2.65679e-07
-1.33461e-06
2.25906e-06
-9.30353e-07
-3.83139e-06
3.91462e-06
-6.96449e-08
1.95158e-06
1.76416e-07
-7.08823e-07
8.64902e-07
-6.73317e-08
-2.11247e-07
-2.81428e-07
4.92648e-07
-2.33745e-07
5.5688e-07
2.32106e-06
5.78218e-07
-7.1532e-07
-2.40402e-09
7.16636e-07
-5.29186e-07
-8.27942e-07
1.3555e-06
4.08e-07
3.10776e-07
-3.7305e-08
-4.50585e-07
-7.50358e-07
3.1862e-07
5.06128e-07
-6.44975e-07
1.38712e-07
-5.56216e-06
2.74328e-06
2.82115e-06
-3.56068e-07
-2.59453e-07
3.84352e-07
-1.33165e-06
3.2464e-06
-6.53995e-07
-2.5901e-06
3.68162e-07
1.20561e-06
4.65061e-07
2.83961e-07
2.25669e-07
2.70265e-06
-2.81366e-06
1.92441e-06
-2.32379e-06
3.97631e-07
2.14237e-07
-2.62704e-06
2.41311e-06
7.76582e-07
-1.16378e-06
5.92389e-07
4.2875e-07
8.77272e-08
-5.16484e-07
9.5685e-07
8.88446e-08
-1.04735e-06
4.8386e-07
2.68096e-07
3.17671e-07
-2.42445e-06
-1.10126e-08
2.4303e-06
-8.39232e-07
1.07373e-06
-1.23302e-06
9.30389e-07
2.99389e-07
3.0039e-07
-5.88886e-08
-4.59787e-07
-2.65573e-06
1.90598e-06
-1.04526e-06
2.94664e-06
3.35311e-07
-3.29068e-06
8.62817e-07
-3.57106e-07
-1.37425e-06
7.38567e-07
-1.85875e-07
-5.52974e-07
3.9766e-07
1.51534e-07
-5.49174e-07
8.29587e-07
-1.19465e-06
-1.3887e-06
2.66398e-06
-1.81383e-06
7.55475e-07
9.26496e-07
-3.98003e-07
-5.29053e-07
4.01994e-07
1.40883e-07
-5.42924e-07
-6.93769e-07
-9.46929e-07
-5.80881e-07
4.16136e-08
5.39218e-07
1.43315e-06
-5.00168e-07
-9.35784e-07
2.89639e-06
-5.80367e-07
1.75262e-07
-8.91888e-07
-5.19944e-07
-1.61657e-08
5.35839e-07
2.49335e-06
-1.52645e-06
-5.56144e-06
2.18672e-06
3.40894e-06
-3.2409e-07
7.43518e-07
-4.19621e-07
-3.25176e-07
4.01063e-07
3.12973e-08
-6.73134e-07
-2.67241e-07
4.39875e-07
-1.39549e-07
-1.33215e-07
-5.51697e-08
6.36429e-07
3.49046e-06
-3.61003e-06
-2.92018e-07
-1.30771e-07
4.22781e-07
1.09285e-07
4.1165e-07
-5.20936e-07
-2.64288e-07
8.49863e-07
-2.27156e-06
8.83825e-08
-1.31263e-06
1.94366e-07
4.29134e-07
-6.23591e-07
-1.37636e-07
1.37636e-07
-3.05556e-07
-4.50928e-07
7.55187e-07
-2.25249e-07
-2.35836e-07
6.99885e-07
-9.19867e-07
2.19463e-07
-5.38278e-07
2.15355e-07
1.03283e-06
-7.61368e-07
-2.74189e-07
-2.01033e-07
-2.39289e-07
4.40333e-07
-3.72623e-07
1.07358e-06
-8.98509e-07
-1.68209e-06
2.57518e-06
2.19312e-06
-2.71178e-07
-2.17279e-07
-2.39949e-07
4.57602e-07
-1.79378e-07
7.12414e-07
-5.33562e-07
4.74106e-07
2.91932e-07
-6.66157e-07
3.49924e-06
-7.33047e-07
4.26316e-07
-2.07485e-07
1.37141e-08
2.90354e-07
1.01467e-06
-1.04954e-06
3.88066e-07
6.58514e-07
4.50393e-07
-1.08576e-06
-2.52998e-06
3.54349e-07
1.72693e-06
1.52848e-07
-1.883e-06
-6.97705e-07
-1.76514e-07
5.08255e-07
-1.97065e-08
2.69617e-07
-4.86581e-07
-4.68459e-07
3.26832e-08
4.35776e-07
1.14173e-06
4.43009e-07
-1.29779e-06
6.2254e-07
-4.35318e-07
7.27359e-07
2.10434e-06
-2.11717e-06
3.71018e-06
-3.61261e-06
-7.73954e-08
2.72058e-06
-3.17483e-06
4.69784e-07
-3.21672e-06
1.41288e-06
1.7866e-06
6.92249e-07
1.27691e-06
-2.49422e-06
1.21979e-06
-3.80553e-07
-6.72164e-07
-3.30631e-06
2.79953e-06
5.58244e-07
-4.45831e-08
1.1596e-07
2.73089e-06
-4.83834e-07
-2.18247e-06
2.65494e-07
2.80249e-07
-5.45781e-07
-2.42947e-06
1.21033e-07
-1.73877e-07
2.05851e-07
-1.68239e-08
-8.80406e-07
-3.55936e-07
1.45993e-06
-9.94399e-07
-4.69199e-07
1.20879e-06
2.73192e-06
3.97752e-09
3.83727e-07
-1.34592e-06
2.89753e-06
-4.45783e-06
4.22562e-06
2.38602e-07
1.17925e-06
-4.74939e-07
-7.06163e-07
1.46236e-06
-6.37577e-07
-8.25456e-07
7.04605e-07
-2.96919e-08
-2.04522e-06
2.06898e-06
-6.01281e-07
2.03561e-08
7.5801e-07
-3.91045e-07
-7.66418e-07
1.15473e-06
1.61449e-07
-6.81695e-07
8.02609e-07
-1.19647e-06
-6.59663e-07
-1.83156e-07
-1.80839e-06
9.16567e-07
5.71667e-07
-3.16556e-07
-2.55154e-07
2.6858e-08
4.01888e-07
-3.30265e-06
-5.64638e-07
2.7195e-07
-3.00903e-07
7.01511e-07
-4.0093e-07
-2.0092e-06
2.10395e-06
3.69195e-08
-5.13658e-07
3.14027e-07
1.99555e-07
3.12805e-06
-3.0032e-06
-1.04535e-07
2.50058e-06
-4.60102e-07
-1.98149e-06
9.77032e-07
-1.56144e-06
5.8e-07
4.47023e-07
-2.57383e-06
-5.57014e-07
-2.95608e-07
8.52214e-07
-1.12657e-07
5.14604e-07
-3.66633e-06
3.13413e-07
2.58214e-07
-2.48183e-06
-3.07835e-06
-1.57836e-06
2.85765e-07
-7.20434e-07
5.40492e-07
3.72389e-06
-4.10718e-07
-3.19788e-06
-5.30723e-07
3.31509e-07
1.99193e-07
1.72886e-06
5.16425e-07
-2.25081e-06
-3.26569e-06
4.97988e-07
2.76441e-06
-3.01389e-07
3.28157e-06
-2.97039e-06
3.37725e-06
-6.46924e-07
-3.21075e-08
8.27656e-07
-7.96008e-07
6.93282e-07
2.6389e-07
-4.66669e-07
3.94309e-08
4.27228e-07
-1.37491e-07
9.66158e-07
2.10582e-07
3.98255e-07
2.62687e-07
1.03258e-06
-1.29859e-06
3.14025e-06
7.68111e-07
7.99874e-08
-8.48886e-07
-4.71845e-09
-4.63741e-07
6.41632e-07
-1.35634e-07
-9.64302e-07
5.42229e-07
-8.66671e-07
5.42501e-07
8.68035e-07
3.96012e-07
-1.26976e-06
1.72491e-06
1.46437e-07
-1.87724e-06
-7.60865e-07
7.28339e-07
-2.75294e-06
1.55054e-06
1.19724e-06
-3.28951e-07
5.98026e-07
-4.06263e-07
4.43979e-07
1.89983e-08
2.15399e-07
-5.07243e-07
2.6781e-06
-1.39657e-08
-3.13068e-07
-6.51426e-07
7.26465e-07
9.43017e-07
-2.75114e-06
6.43121e-07
2.102e-06
-2.4194e-07
-4.34176e-07
3.07259e-06
-2.78802e-06
-2.33473e-07
-7.27401e-07
2.85902e-07
-2.78623e-07
2.00233e-06
2.00915e-06
5.40222e-07
9.60395e-07
7.10012e-07
4.07731e-07
-1.11894e-06
6.4533e-07
1.81924e-07
6.12067e-07
-5.33681e-07
-3.77509e-08
5.711e-07
4.76107e-07
-1.90442e-07
-2.85664e-07
-1.125e-06
-8.60179e-07
1.87757e-07
-4.55005e-07
3.80516e-06
-2.24154e-06
-1.55767e-06
-5.46442e-07
-1.48844e-08
5.61235e-07
7.31142e-07
2.99106e-07
2.12532e-06
-7.82905e-07
2.58246e-06
2.15522e-07
-1.03427e-06
9.45342e-07
-2.48099e-06
-1.52201e-06
-4.77886e-07
-2.78852e-06
8.13818e-07
-1.99119e-06
1.16866e-06
1.64598e-07
-7.11146e-07
-6.5128e-07
4.65183e-07
-6.98993e-07
3.74729e-07
1.05964e-06
-6.91601e-07
-3.68971e-07
-4.66918e-08
1.33901e-06
-1.27646e-06
5.64802e-07
-1.14385e-06
5.75164e-07
-6.25775e-07
3.89008e-07
6.94199e-07
-2.98545e-06
2.339e-06
-6.57758e-07
1.04283e-06
-2.76976e-06
2.08103e-06
6.79884e-07
-4.22274e-07
3.58944e-08
3.8634e-07
2.05825e-06
-3.18464e-07
-1.74258e-06
4.50092e-07
-9.74242e-08
-3.52687e-07
-3.38812e-07
-1.19129e-08
1.66496e-07
5.34371e-07
-1.72034e-07
4.50009e-09
-1.27436e-06
1.01968e-06
2.51589e-07
1.43453e-06
1.81334e-06
-1.37573e-06
-1.85752e-06
2.56603e-06
-1.23956e-06
-1.34105e-06
3.64883e-06
-4.30543e-07
-4.02034e-06
1.2342e-06
2.51181e-06
-3.62759e-06
6.03523e-07
-2.19152e-07
-1.88722e-07
-8.36716e-08
8.40642e-07
1.03029e-06
-1.87941e-06
-2.00419e-07
-3.30326e-07
2.47318e-06
4.17994e-07
-1.56442e-06
6.34753e-07
5.0322e-07
-1.89801e-06
2.60269e-07
-7.33529e-07
4.72789e-07
3.02622e-07
-4.55981e-07
-7.7962e-07
1.61306e-06
-3.51065e-06
3.86299e-06
-2.78126e-07
-5.15815e-07
5.42636e-07
-2.56017e-06
2.66386e-06
-1.96292e-07
-1.96993e-06
1.45612e-06
5.06291e-07
3.6436e-07
1.71954e-07
4.02199e-07
-6.25654e-07
2.23413e-07
4.75951e-07
2.47338e-07
-7.23469e-07
4.85554e-07
-6.24826e-07
6.38811e-07
5.43671e-08
9.19563e-08
-2.11998e-06
1.90114e-06
1.40893e-06
-3.29879e-06
2.92224e-07
-6.21229e-07
2.07706e-06
-7.04385e-07
5.17177e-07
1.8709e-07
2.02101e-06
-1.36598e-06
-6.62791e-07
3.20228e-08
-1.48746e-06
1.45671e-06
6.07779e-07
-3.32383e-07
-2.75427e-07
3.06621e-07
2.75604e-07
-5.82262e-07
-2.40035e-06
-7.43137e-09
-4.59247e-07
1.03682e-06
1.00737e-06
-7.75543e-07
-1.90011e-07
9.61366e-07
8.84985e-07
-4.54591e-07
4.06927e-07
-2.85409e-07
4.12691e-07
-6.72801e-07
2.60033e-07
8.86329e-10
-2.50044e-07
3.15434e-07
-6.18553e-07
1.60227e-06
-7.13909e-07
3.56129e-07
-5.82374e-07
2.26266e-07
2.53562e-06
6.10917e-07
-3.2474e-06
2.79312e-06
5.87777e-07
5.76899e-07
-2.94638e-06
2.37121e-06
-3.87216e-07
-1.89463e-07
5.76439e-07
8.16296e-07
-6.04524e-07
-2.13148e-07
1.19002e-06
2.12363e-07
3.21436e-07
-5.33822e-07
1.49479e-06
-4.12379e-07
-1.90979e-07
-8.33526e-07
-5.13277e-07
-2.26594e-06
-5.90182e-07
2.11473e-06
-1.45409e-06
2.8037e-06
-2.22482e-06
-3.7276e-07
-2.25579e-06
2.70518e-06
-3.70184e-07
-2.36647e-07
-2.06387e-07
4.31272e-07
3.97626e-07
4.68244e-07
-8.67315e-07
-9.84789e-08
2.68369e-06
3.53413e-07
-3.78112e-06
1.2918e-06
3.02574e-06
-2.61952e-06
-3.95089e-07
1.47594e-06
-5.02889e-07
1.55613e-06
-1.8126e-06
5.5016e-07
6.00881e-07
-2.71064e-07
-3.2989e-07
-1.10447e-06
7.20622e-07
-8.79803e-07
2.01966e-07
6.77107e-07
-3.26278e-07
7.2269e-07
2.9114e-06
3.21983e-07
3.19323e-08
-7.93244e-07
-1.15576e-06
3.06689e-06
1.70425e-07
-8.06935e-07
5.05698e-07
-2.37807e-07
5.29365e-07
-2.91571e-07
6.57979e-07
-2.24133e-07
-4.33957e-07
3.00295e-06
-6.48478e-08
-1.06016e-06
1.86584e-06
3.92919e-07
-5.6325e-07
1.70329e-07
2.55963e-07
2.57937e-07
-5.13914e-07
3.21146e-07
5.07082e-07
5.79589e-07
-1.0868e-06
4.24397e-07
5.01606e-07
-3.05622e-07
-2.13047e-07
-9.50213e-07
3.69328e-08
2.47355e-07
-6.83387e-07
2.0237e-07
3.69155e-07
-6.29593e-07
9.15013e-07
2.58285e-09
-3.16299e-07
1.10885e-06
-1.47062e-06
2.74346e-07
2.11101e-07
-4.85093e-07
3.80043e-07
1.28933e-07
-5.73255e-07
-2.63107e-07
8.36183e-07
3.51667e-08
-2.86832e-06
2.83184e-06
2.89708e-06
-1.71812e-06
-1.1931e-06
4.38573e-07
9.72804e-07
-1.41208e-06
2.04943e-07
-4.1593e-07
-2.23552e-06
-5.19479e-07
-4.79884e-07
7.185e-07
-2.3873e-07
3.13761e-06
-1.47567e-07
-2.95602e-06
1.99707e-06
7.00292e-07
1.22714e-07
-8.23415e-07
-2.6202e-06
-3.14964e-07
2.02666e-07
2.79865e-06
-2.9694e-06
2.16423e-06
1.17709e-07
-6.51338e-07
1.63637e-06
2.05505e-06
-4.77605e-07
-1.50252e-06
-1.55237e-06
-1.2056e-06
3.45622e-06
9.0294e-08
-6.24311e-07
-5.41323e-07
-2.09539e-07
7.49355e-07
-2.30429e-07
-3.47488e-07
-2.51826e-07
1.17881e-06
-6.53091e-07
-5.26096e-07
-2.73977e-07
2.90551e-06
-2.63806e-06
7.11622e-07
-8.27086e-07
3.10174e-07
1.1357e-06
-1.37215e-06
2.34753e-07
3.73509e-07
2.79645e-06
1.68517e-06
-2.74463e-06
6.58557e-07
-2.72749e-07
-1.14643e-07
6.9934e-07
-5.86014e-07
1.33613e-06
6.28525e-07
3.1229e-07
-5.07418e-07
1.95112e-07
5.28679e-07
-1.16148e-06
1.28105e-06
-2.5239e-06
9.36187e-08
5.22656e-08
-4.0768e-07
2.37603e-07
8.86231e-07
-1.1598e-06
2.72682e-07
1.3456e-07
-2.73963e-06
2.68831e-06
-2.01039e-07
5.86929e-07
-3.86511e-07
-1.33621e-06
1.24481e-06
1.02153e-07
-1.16988e-06
-4.12812e-07
-1.73427e-06
-1.22604e-06
2.98744e-06
6.66593e-07
7.77632e-08
-7.44499e-07
2.69878e-07
-2.14468e-06
1.8621e-07
2.01113e-06
3.20132e-06
-3.15671e-06
5.57707e-07
1.28017e-07
-6.85841e-07
-1.34747e-07
3.09071e-06
-6.23247e-07
3.75854e-07
2.47285e-07
3.06338e-07
-4.91625e-07
1.85068e-07
4.70787e-07
8.79442e-07
-1.35467e-06
2.2121e-06
1.27354e-06
-1.86908e-06
5.98115e-07
-3.42986e-06
1.7262e-06
-2.75553e-07
-1.64707e-08
1.36036e-07
3.21919e-07
-6.7085e-07
5.43714e-07
7.9988e-07
1.67347e-06
-2.4801e-06
-2.39288e-07
-2.74368e-07
-7.31437e-09
-7.97418e-08
-2.52314e-06
2.81103e-06
4.57004e-07
1.75176e-07
3.57797e-06
-3.43236e-06
-1.27944e-07
-2.9528e-07
-3.28967e-07
3.43013e-06
-8.12488e-08
-3.21601e-06
-1.5812e-06
9.3447e-07
6.45508e-07
3.37364e-07
3.48468e-06
-6.02598e-07
-2.87604e-06
-1.35325e-06
-1.38211e-06
2.74653e-06
-1.31371e-06
-6.51393e-09
5.15186e-07
-2.15863e-07
-8.0834e-07
2.86647e-06
-1.38154e-06
1.4151e-06
9.28347e-07
-5.7564e-07
-3.52902e-07
-2.84186e-07
1.38856e-06
2.78455e-07
2.09239e-06
-2.31605e-06
4.92573e-07
6.84853e-07
-1.40054e-06
4.21068e-07
1.09571e-06
5.88357e-08
3.67612e-07
1.53093e-06
3.7601e-08
1.09671e-06
-4.1562e-07
3.1818e-07
9.77016e-07
-1.13932e-06
1.58208e-07
3.12928e-06
-2.75983e-06
-3.6498e-07
8.39699e-07
-8.43379e-07
1.14262e-06