/*--------------------------------*- C++ -*----------------------------------*\
| =========                 |                                                 |
| \\      /  F ield         | OpenFOAM: The Open Source CFD Toolbox           |
|  \\    /   O peration     | Version:  v2012                                 |
|   \\  /    A nd           | Website:  www.openfoam.com                      |
|    \\/     M anipulation  |                                                 |
\*---------------------------------------------------------------------------*/
FoamFile
{
    version     2.0;
    format      ascii;
    class       volScalarField;
    location    "50";
    object      omega_0;
}
// * * * * * * * * * * * * * * * * * * * * * * * * * * * * * * * * * * * * * //

dimensions      [0 0 -1 0 0 0 0];


internalField   nonuniform List<scalar> 
18758
(
0.122043
3.95563
0.0214755
5.21419
4.79705
6.22857
7.73434
0.0217128
0.245756
0.027915
0.0237719
10.2949
0.0220467
0.17233
0.0231103
0.611221
0.0426077
0.0219431
0.0219387
0.0311809
8.68062
0.0222713
5.7251
3.14834
1.59612
0.0217173
1.77677
4.81764
9.20319
4.1592
0.0717817
5.953
0.022182
0.0227356
0.127515
0.0221725
0.0222265
0.0220162
0.0222914
0.0454718
0.0220146
0.0266337
0.0216471
0.0261994
2.30972
0.0216161
5.3887
0.0240669
0.0274615
0.0216161
0.141206
4.91803
0.0215446
0.0235325
4.70731
10.1562
0.0222172
0.34627
0.0219556
0.189906
0.0994654
6.60751
0.111265
0.0228281
0.0215537
0.0220115
0.0468652
0.0221776
0.021933
4.85631
4.67864
0.0223227
0.0216223
14.3457
0.0216837
0.0219472
0.240003
4.75413
0.0890871
5.18476
6.69438
4.97757
0.189758
5.60834
0.25186
0.0306289
23.0056
0.110396
6.23918
0.0219462
5.30237
0.0219571
13.9885
0.0270611
6.61794
12.5482
0.238284
0.0216828
0.0219031
7.04961
0.0326955
4.89268
0.0846622
0.0471826
7.42021
3.40996
5.75292
4.83871
0.0226749
0.0223105
16.0129
10.5958
0.0217587
0.0220284
7.48401
9.35373
7.36046
0.0231124
7.70916
6.16596
0.0383029
0.0219721
11.4721
1.4107
0.600628
1.80401
2.58624
0.829849
11.2073
0.02205
0.044128
1.62198
17.4192
0.049741
4.85709
0.0238231
0.232943
0.0473609
0.0219011
0.0788512
0.0895164
0.248762
0.021957
14.2199
0.02202
0.0220286
9.74115
8.13248
0.0712154
6.75772
3.76854
5.22715
0.0305523
0.0222709
5.29688
0.0283663
6.71573
0.0240708
0.0221588
0.0222888
0.0218066
0.186184
18.8221
0.0221546
0.0990045
9.13163
0.0219851
11.9618
0.228546
6.22229
4.67775
0.0219382
18.399
4.80604
0.185033
2.26414
8.39853
0.0229246
0.0771452
0.0221216
0.0217975
30.66
5.12532
0.0216529
0.0254887
3.16318
0.0219291
7.73005
0.0216319
0.0219408
0.050058
0.642253
0.022388
0.0675043
0.034137
0.112733
0.031827
0.260138
0.0221487
0.0216406
0.0739466
0.0239981
0.0370317
0.0820521
0.0220352
0.0336735
0.0871729
0.0222789
8.68665
0.0274841
0.0219307
0.0497653
0.0221926
0.0367369
0.0788319
7.01136
0.0859759
0.549558
0.021631
6.45613
0.0219306
0.0226922
0.208478
7.89038
0.287941
0.0858036
0.0585675
0.0471852
0.021612
0.0834062
0.0220057
0.112307
5.31908
0.250102
0.0220635
0.0219307
0.0216134
0.0216406
11.8329
0.0369965
0.0218367
0.778722
5.74323
0.0230815
6.75748
37.3577
0.24684
0.0221791
6.6498
0.0297852
0.0221529
11.3952
0.0307221
0.0302825
0.0225464
0.0415155
0.952809
0.677026
0.0358555
0.0867204
0.0216756
0.070986
0.0220284
0.0811715
0.0270227
0.206134
9.70712
0.0216358
0.0225556
0.460807
0.0224812
0.025221
0.0818966
9.60056
9.10579
0.0219536
0.12333
12.033
2.48213
0.022577
0.0217442
0.0295129
0.0371764
0.0219504
10.4868
0.729151
4.72764
30.8677
5.6988
0.021631
0.0214686
0.0517287
7.97452
0.0255761
0.0870524
0.109722
0.029486
6.22531
0.0219032
3.74166
5.82103
0.0216282
4.87945
0.0378902
0.0219616
0.033375
0.0861192
0.0228705
0.0221572
6.7314
4.59779
0.0219329
8.62689
6.21688
0.260546
0.0220147
0.0221362
4.79648
0.0230497
0.021647
0.0217756
0.023018
0.249496
0.0876684
0.0294838
0.0359963
0.0313158
0.0499728
0.0216602
0.0222786
0.790271
0.05643
0.132349
5.21697
0.0259657
0.0223361
0.022101
3.77558
4.98315
0.0216242
0.0219186
0.0216258
0.0237153
0.0444377
1.07139
0.0219717
0.0222091
0.0216072
0.811526
0.225412
0.170329
0.161549
0.0229148
0.565963
0.114829
0.0376815
0.0315095
9.49753
7.36999
4.80359
0.0220471
0.0334016
5.7405
9.44978
0.0250142
0.0216351
0.058641
0.0219718
0.0307088
7.09008
4.84684
0.117491
0.03058
7.9519
0.0220003
0.0239814
0.0219013
0.0222983
0.109011
0.0241772
7.74905
0.286026
0.0224686
0.0219363
6.3077
0.114703
0.243554
0.022
0.0569934
0.0217334
0.0260308
0.0219724
0.021645
7.83307
7.85924
4.1204
21.1633
0.0219121
0.216529
4.8361
0.0423764
0.0217529
5.08291
0.0217723
0.0220788
0.0217931
0.112075
0.0219641
0.0260772
0.14965
10.9317
0.0217613
4.72072
0.0481551
0.0220206
0.0260457
0.0219725
0.0219205
0.0287683
0.0667492
0.0492539
25.4919
0.0398433
0.0220419
0.412945
5.62915
5.1437
4.74138
0.106982
0.0225058
0.0216456
0.0218401
0.0222111
0.118134
0.0432989
0.0333997
0.0364297
0.0306067
4.56536
0.0861099
0.0219675
0.0349924
5.69031
0.0227994
4.93329
0.0222214
0.0220822
7.61341
0.0280927
0.0224862
0.817151
0.130251
0.0511645
10.1261
0.0219523
0.0226161
0.744578
9.12329
0.0361868
0.0728756
0.178038
3.03834
21.3579
0.174555
0.0222983
0.137548
0.0220266
0.11992
0.0231711
12.4479
0.0563307
3.51803
0.0331892
0.0798798
0.0216292
2.6367
0.0216282
9.59357
0.0219055
0.379862
0.0220549
4.63863
0.0316698
0.0220872
0.0219089
0.0217848
5.60349
10.6256
7.54654
0.0465835
0.0248326
0.0863666
0.0222702
0.0222874
4.91983
0.0219093
0.0220612
0.112231
0.0220412
0.0710541
0.0857811
0.0220568
0.0219629
0.0279405
0.0227065
0.0289232
6.7088
0.0329513
0.0358787
0.0268661
0.0220461
3.71397
0.0223448
0.0226751
3.54208
9.1276
0.0766063
5.02816
0.025228
0.0226453
6.38219
0.0219636
8.39703
0.345579
0.0220805
6.64751
0.749431
0.0593351
0.0218621
0.0537011
4.99465
0.0220195
0.0218672
0.0231796
0.0228591
0.0220472
0.0217002
0.0222939
11.3496
0.0253737
9.02804
0.0219743
0.153957
6.34585
0.0220343
0.0216387
0.025312
0.0221295
0.0226486
0.0232999
0.0221075
0.10809
0.817702
0.0215438
4.97436
4.56514
0.0356262
0.135593
4.53798
0.0263972
0.0319592
0.0286709
4.71148
0.0252688
0.048295
0.0219901
3.42665
0.0422979
0.227206
0.132595
7.51293
0.0252004
0.0219375
0.0586131
1.24305
0.0225825
0.476771
0.0222341
5.81344
0.0227455
0.0217934
0.0217811
0.0220474
4.56271
5.80584
0.0220131
0.322675
0.0307177
5.14012
7.77707
4.54945
1.53263
0.0219075
4.99958
0.0670353
0.0219672
0.0477916
4.84147
9.81895
0.0227158
0.0225712
0.0219941
0.0215116
7.76331
0.106566
4.72812
5.16981
0.0220474
0.0221406
0.057837
0.0222811
0.0218092
0.0232773
0.0229824
0.110459
0.0415879
0.230437
4.85408
0.073118
0.0220618
0.0274801
0.12154
4.88904
0.0462257
8.29128
0.0523591
0.0220174
0.290817
5.26129
0.0224483
0.0216434
0.150027
5.11847
0.260024
0.022042
9.09353
30.0399
1.66535
0.0216099
6.93518
6.92089
23.3656
0.0241731
0.0221966
7.85346
0.0222945
0.188757
6.43763
0.210139
6.54703
0.0845222
5.53205
0.067749
0.0220951
0.0225547
5.64417
4.95148
8.3077
5.24497
0.0219628
0.189073
0.0222772
0.0593841
0.0873339
0.133256
0.0220855
0.0251992
0.20512
4.89061
5.26383
9.73193
0.0389077
0.0327486
0.262016
0.0222461
0.0217099
0.02196
0.0258171
0.074793
0.0220323
0.0825752
0.0218579
0.0220819
0.0219066
4.80163
0.0223331
0.0222696
0.0546893
0.0521865
0.0215483
10.0862
0.021973
0.021711
0.0551557
0.0369605
0.0250733
0.0228846
6.45858
0.0360005
0.0348383
5.26679
0.0348637
4.96693
0.0260282
0.108074
28.4999
9.86804
0.0216355
4.73115
1.23541
0.0216851
5.71423
0.0220616
0.021894
0.0397849
0.0219507
0.112297
4.82035
0.0216261
25.1223
0.0218831
0.0380977
4.90468
0.021529
4.89789
0.0235209
0.0219947
0.0219317
0.0219576
0.226922
0.0734953
10.2602
0.0751777
5.82294
0.0578218
0.0220344
0.222796
8.52107
2.3598
0.0763338
0.166274
0.066676
0.0268523
0.225969
0.0226975
6.75352
0.0220347
5.94546
0.0228082
0.0763844
0.0279778
0.0223688
8.89574
0.0225719
0.0218173
2.50143
0.0235601
0.0219092
0.0451491
0.0862872
0.233773
2.05564
5.20285
4.97457
0.0221331
0.0222051
7.42457
0.0219921
0.98059
0.08966
0.0238609
0.0220605
0.032999
0.0219891
0.0219567
0.0294501
0.83187
0.230055
0.151866
0.0633142
0.0221331
0.0609802
8.31501
0.0218668
0.0884215
0.0240221
4.80873
0.0232253
6.10079
0.0220293
1.19537
0.0222766
0.0803327
0.0219705
0.0254557
0.0309073
0.0215336
0.021694
0.0215821
5.64123
28.7141
0.0335391
5.11928
0.0220232
0.0428161
0.0283888
0.266121
5.45192
0.0337053
0.0215428
0.232963
0.0218598
0.022023
0.0284214
8.23503
10.4836
1.03798
4.74223
0.0744349
0.0229519
0.0218941
5.49665
0.0218972
1.88796
0.0279217
0.0221857
5.29058
7.26611
0.02209
8.32611
0.027218
0.11409
0.0990234
5.01069
6.99426
1.21841
0.0219981
0.0215043
4.86216
0.0219608
0.021931
0.0285933
0.0219782
5.45124
0.256287
0.0581186
5.25283
0.0488065
0.123721
0.0239315
0.02199
0.021537
0.0217833
9.06544
9.50536
0.331822
0.0220565
0.0215361
0.0316592
0.0218301
0.0403158
0.0256618
3.51499
5.03868
0.0816852
0.280405
0.365977
0.0218915
0.21896
0.0218955
5.53116
1.067
6.63542
8.01765
0.0230353
0.0295545
5.29178
5.26727
7.44071
0.0449492
0.130668
5.34774
0.0220478
0.26319
1.61821
0.123287
0.0220419
0.0219786
0.041579
5.31058
3.13088
0.0989956
0.0219749
0.0250603
0.0289167
53.2884
0.022304
0.672608
0.0218978
0.0226987
0.196601
0.0218686
0.0220195
0.0232904
0.0270672
0.0219765
0.0226742
0.0216129
5.12874
0.437458
6.39395
0.0216359
0.0500303
0.0220124
0.233161
0.234789
0.0372028
0.0219014
0.0229057
0.64667
0.119916
0.0293536
7.73126
0.120191
0.0219629
0.0220468
4.96102
6.31719
0.0631144
0.0216153
4.22511
0.022126
0.0364227
0.0216646
1.13845
5.47643
0.0218632
0.0220279
2.30188
0.0219426
6.49093
7.5645
0.0607311
0.0222657
0.0221664
0.0216606
0.0220358
22.4008
9.99684
0.139511
0.0228711
5.11684
0.0219449
0.0219417
8.38592
0.0217504
4.98239
0.0215152
0.0288382
0.0232828
0.021944
0.0218337
0.0221208
4.77115
0.0225109
0.0221944
0.157256
0.0419886
0.0219725
0.0581652
0.0370573
0.0221262
0.291659
0.0219775
0.0371911
6.2563
0.102394
0.0219639
0.308602
0.0941995
0.0863483
0.0266166
0.064746
8.73105
0.0245428
0.058243
0.0219571
0.0215958
0.0220061
0.0471818
0.0368127
0.0489075
0.0218713
0.0277408
0.0674586
6.16708
0.262234
0.0219383
0.0217808
0.0228243
0.104808
0.0218153
7.64714
0.0219622
0.0219527
0.0217795
0.434293
5.06515
0.0221553
0.0236928
0.021886
0.0911622
0.0218108
0.0219726
4.32624
0.0222705
0.0216006
0.0221311
0.141547
0.021797
0.0218757
5.14522
10.9191
0.618765
0.043661
4.92987
0.0503801
0.0219582
0.0219153
18.9681
0.0219733
0.0667448
0.0831958
0.0418547
0.0266912
0.0223443
0.0306952
0.0228246
0.021622
0.204241
4.8801
0.0436918
0.0217888
6.48475
0.0470523
6.92557
5.52585
0.111718
0.0221409
0.0219294
0.0218398
0.0612456
0.0221269
0.0218319
6.27424
0.153815
0.0455547
0.0219159
0.0676205
0.320164
0.0220955
0.0264176
0.0363839
0.148351
0.0710683
0.0220027
0.0234564
0.0381145
0.0218232
0.0496041
0.0222827
10.5827
0.0588284
0.118014
0.0217828
0.0373547
5.24467
5.08406
0.959172
0.0636862
8.64547
0.0221303
0.0219596
0.0227174
0.0879075
0.0221701
0.0234253
0.0308049
0.0612958
0.0220023
0.0219555
0.0220267
0.022277
0.373869
5.07265
1.13347
0.0219964
7.99643
0.0296667
0.0221556
0.0332582
0.0218777
0.0849422
0.0230117
0.0219751
4.97548
31.59
5.06567
0.0223751
21.604
0.0219738
5.27862
5.14959
0.0215451
0.0617705
0.281401
0.0216216
0.0219632
4.8259
0.0222793
0.0220181
0.185364
1.487
0.0220298
0.031691
0.0221512
0.0253744
0.119335
0.0221673
5.28758
0.0450777
0.0219608
1.14373
0.0605606
0.0774651
0.0222882
0.336941
0.022035
4.7684
0.0219749
0.0217666
15.6256
0.021702
5.05539
0.0219661
0.0545365
8.11703
5.1155
0.0219808
0.0223343
0.0220263
0.0232202
0.0270619
0.0266793
0.0214908
9.5247
0.0218905
0.0219813
0.141169
0.211588
0.0438123
0.0220293
5.75342
0.0827832
0.0224066
0.0352591
0.0219297
0.021761
8.70138
0.0216305
0.0217709
0.0218127
5.26593
0.0218176
0.0218349
4.71509
0.0254099
5.60947
0.0335939
0.021517
0.0218825
3.42166
0.0263071
0.022008
7.93031
5.08599
0.0217947
4.98935
0.115205
0.021934
0.0220321
0.330578
0.0222217
4.40235
0.0335143
0.0220341
1.46949
11.2711
0.228634
0.0218783
7.73337
0.0300291
0.423851
4.49162
0.0219202
9.81259
0.0220101
0.0318719
0.0263706
4.91718
0.0216893
0.0223876
4.53503
0.0222734
0.0356239
0.0216963
0.0220889
5.51578
0.0872049
0.0252028
0.0360574
1.34278
0.0223131
0.0234038
0.0551026
0.119871
0.0256589
0.0219653
0.0219319
0.0221472
0.022622
0.0218509
0.0339462
0.0276883
1.22219
0.022009
7.43469
0.021967
0.029054
0.0219845
0.036291
0.022085
0.0219464
5.69868
4.72794
0.0241488
0.022096
15.5216
0.0277365
15.4887
0.0367238
0.0716594
5.41913
10.0672
4.95911
0.0230637
0.0220026
0.021806
5.14262
0.0218186
0.0220214
0.15548
0.0218373
0.0221872
0.0220638
10.3704
1.4522
0.0221824
5.17157
4.91738
0.0241041
0.0219418
0.0221857
5.02769
0.0216917
0.104058
0.0222883
0.0219849
0.0220805
0.0217579
0.0747406
0.0219811
0.0219033
0.0217824
0.0216242
0.358968
0.0216096
0.0218111
0.0221192
0.0219662
0.282192
4.22572
0.0595351
0.0225752
0.0220183
0.0221945
0.0222256
4.74947
0.0219539
0.0316628
0.0681884
4.95195
0.0219581
0.0219253
5.58789
0.0221262
0.105209
0.0791119
0.0224606
5.12171
4.80783
0.0310092
7.86578
0.0284487
0.123087
0.0214926
5.85774
0.0220505
7.17227
0.0220501
0.0218416
3.38205
2.35467
0.451335
0.1502
0.0219162
6.97981
0.0221779
5.11467
0.0543145
0.0219351
0.0214951
0.0219085
0.0515941
0.061854
4.72209
0.0419306
0.0219041
0.0219422
0.0219274
9.53364
0.192593
0.0334243
0.0221462
0.0219167
0.030482
1.08322
0.0219348
0.0327801
0.0688746
0.0219532
0.0239773
0.0231477
0.0579779
0.156425
0.0245087
0.0786323
0.0215955
0.0220161
7.53352
0.0406138
0.0833457
2.48867
0.0216135
8.51908
15.4585
0.0510317
5.10433
0.0219491
5.30427
5.66763
0.104385
0.0218016
10.3613
0.125958
0.0219968
0.0391989
6.65521
0.0226372
0.0219779
0.0397575
0.0222713
9.17342
0.030687
0.0220636
0.0222822
0.0218886
0.0684192
0.0339882
7.85622
0.0972736
5.53694
0.076045
0.0222613
0.0219511
0.666557
12.918
0.0219788
0.0218979
0.146529
0.0221112
0.298585
5.24179
9.57555
0.0219686
0.0219909
5.35704
0.0217588
4.89048
0.549287
0.0217202
5.63221
0.0587491
0.0820194
0.0219787
16.719
0.0220355
3.78599
0.021509
0.0484069
0.022885
0.0216895
8.86431
0.0227491
0.0219849
0.023477
5.66043
0.0220817
0.021603
4.8148
0.021919
0.0216656
0.0221235
0.0253112
0.0220598
0.0221865
0.027955
0.0221807
0.0264286
0.0215683
0.278051
7.5925
0.133614
5.6748
0.0285398
0.0263704
0.0218937
0.0218356
0.0221475
7.72671
5.04656
0.021903
0.0222778
0.021929
23.2033
0.0215965
0.274328
2.66208
4.94805
5.09029
8.00038
5.26809
0.0216454
5.11313
5.57499
4.80913
0.0262214
0.0221546
0.043843
0.0216469
4.73682
0.113138
0.058908
0.0271291
7.9974
0.0219966
0.0214866
5.2705
0.122945
0.0219713
0.0215272
0.0457003
0.0221228
16.3513
3.55556
5.70536
5.05197
0.0781881
1.28037
0.0218343
0.25021
0.0221121
0.0219691
0.0216564
5.91218
0.0221537
0.02182
1.94764
5.3095
0.234094
0.12921
0.0229575
0.0393154
9.67716
9.9011
5.34824
5.67138
0.121864
5.08578
0.226241
0.740295
0.0519934
0.0425872
0.021896
0.036373
0.033245
0.0220519
5.40882
0.0218119
0.0219678
0.0220026
5.07845
0.0256151
0.0218173
0.0218352
0.0219752
0.132964
0.0895746
1.35336
0.0227488
6.92481
0.02152
0.0219352
0.0794456
0.070296
0.0215049
4.81975
0.0420833
4.59702
0.0219898
10.1146
0.06257
0.0219396
0.0220606
0.0219693
5.26396
4.72859
9.24752
0.0219858
0.0222283
0.0215781
4.6005
0.0282865
0.0220658
0.724932
0.0219524
0.0226329
5.10868
0.0216089
0.0219635
0.0220714
0.0221323
0.021485
0.0224543
0.0215191
0.0222439
0.0775122
0.0399807
0.0218403
7.9656
0.0239143
4.78631
9.56852
0.0510937
6.25338
4.60064
0.0218066
0.0423322
0.0220298
0.0218417
2.85806
0.0262472
6.58061
0.0273527
0.125789
0.0220793
0.0232472
0.0219185
5.04569
0.043555
5.59966
0.0220688
0.109936
0.0295765
0.0218053
0.0376253
0.0409717
0.021551
8.66318
0.0221016
0.0417522
0.0220094
0.0305755
0.0495684
0.197284
0.0266518
0.0769608
6.19131
0.0305207
0.0410863
0.0216051
5.39123
0.05858
0.0222717
0.0725043
3.67153
18.1241
0.0219782
0.0229526
0.0221732
0.0215901
0.0219428
4.79699
0.0288127
0.0220831
9.43844
0.0221158
0.0215906
0.0258107
4.80988
0.0221905
10.43
4.89373
0.10374
7.63921
0.0226713
4.60301
1.92018
0.0216164
0.0294593
0.022035
0.0223608
0.0390532
7.76519
0.0613836
0.889201
0.391564
0.0219027
6.58778
0.0219123
5.09285
0.0222681
29.7852
5.0888
0.022161
0.021761
0.0222788
0.0334374
0.0803892
0.0219711
16.6906
0.0230439
0.0431902
0.0750021
0.0231339
0.0219229
5.06436
0.0217617
0.203942
0.0294333
18.6432
0.0221283
0.0218969
5.0748
0.0214646
0.0217596
0.0225897
0.0593545
0.0512339
0.242355
0.0242856
0.0217617
0.0253374
0.0222914
0.0224916
5.18755
0.0219429
0.0488155
6.39705
0.182812
0.0219625
0.0838066
0.0218651
0.022209
0.421162
0.2435
0.0837964
0.0222395
0.0219621
0.0247102
0.0827085
0.0218808
0.0306681
0.0219011
0.0222579
0.0218476
0.0220372
4.99377
0.0215571
10.8291
5.56148
0.0252044
0.0216808
5.34462
6.50547
0.0217977
0.0219777
13.6433
0.0222884
0.0646849
0.227923
1.43488
0.0219241
0.0227877
0.0490277
0.0219846
5.58312
0.182437
0.0218065
0.0313666
0.0384605
0.0220894
0.302507
0.0221545
0.0507691
0.0229307
0.0250023
0.0215319
0.0218993
0.247413
0.0219545
6.49981
0.0711798
0.0220109
0.0220009
0.0219843
0.0218791
5.34879
0.0222718
0.175551
0.02191
0.0218556
0.0556048
5.17396
0.0217712
0.0215566
0.0219391
0.0225764
0.0303734
0.0305459
7.93372
0.0290563
0.0218439
0.138455
4.81376
0.0222428
0.0317083
5.21348
0.0361614
0.0224372
4.89501
0.0214851
7.8532
0.0448022
0.0220659
0.0820428
0.0218668
0.0219373
0.0219251
4.96228
0.0220299
4.33971
4.7591
1.26233
0.0299251
0.021966
5.20412
0.022278
23.7835
0.0217209
0.344969
0.025793
0.0898547
0.0226553
4.07816
0.0295067
0.0222246
5.56208
6.60103
0.0215594
4.60366
0.0219888
0.0312434
0.0217411
30.0063
0.671141
0.0222805
0.0220122
4.80861
0.294421
0.0218588
0.0234303
0.02203
0.0218105
0.0217112
0.0239996
5.3301
16.521
0.0224425
0.21462
0.0236273
0.0704653
0.0220018
29.4268
5.25721
7.98836
0.0227261
5.58551
6.99905
0.0248993
0.0307471
0.0218865
0.0545954
6.13859
0.0221927
0.0217117
0.0217664
0.027662
0.0215845
0.0219864
0.929262
0.023064
0.207301
0.0220375
0.0219723
0.0224869
0.0220436
0.165746
13.1153
0.0217919
0.0446619
0.0215442
4.72343
0.0218118
0.024221
6.28113
2.5831
0.0262559
4.60287
0.415489
0.0220671
0.0612015
0.0221105
0.0337347
0.0222351
0.0219289
0.139727
0.105289
4.67939
0.112198
0.035012
6.06619
0.0232173
0.0419143
0.0227743
5.43947
4.77353
4.39284
0.0219619
0.0215176
7.59583
4.92395
0.0221306
5.30043
0.0221394
0.0270333
0.0214947
0.0218768
0.0218176
0.02183
0.231857
0.0409507
0.0387606
0.0219788
0.0220198
0.0216421
0.0218287
0.0218179
0.0222629
0.0219372
4.60873
5.19108
4.68869
0.0236948
7.82708
0.0557486
5.72522
7.92539
0.055762
0.0221134
0.0222469
0.204595
0.0223832
4.81359
9.57066
0.0226053
0.0216997
0.0317315
4.85604
0.0219954
7.5597
0.0218535
0.0221007
6.4317
0.0219392
0.0287232
0.0221655
5.07884
0.0215849
0.0219551
0.222814
0.0216213
0.0220561
0.0218845
0.0216999
0.068475
0.0219108
21.8219
0.0220219
0.0222175
0.0214759
7.40795
0.0344015
0.0221938
5.50099
0.0220864
0.0215615
0.226835
4.63263
0.0221124
6.69753
5.01548
0.0265331
5.17299
0.0221117
0.021968
0.0985015
0.0216712
5.77722
5.04706
0.0214912
0.0263378
0.0218837
7.55419
4.56387
0.0449743
0.0221447
1.11246
0.0364561
0.0516022
0.0269934
0.0220293
0.0225727
0.0219095
0.0218128
5.78398
0.0214524
0.0218147
0.0422415
6.71011
0.077506
7.51814
0.0220149
0.0423173
0.0218925
0.0219983
0.0220936
0.0217612
0.0221534
0.0219241
0.0221009
0.0221728
0.0243947
0.0219681
0.0221631
0.021683
8.17246
7.04231
0.0222125
0.0227977
5.05304
0.0222103
0.126349
5.61343
0.729906
6.10481
0.911
6.04493
9.60958
7.77562
0.0217744
0.0304711
0.0218797
0.0500501
0.0247325
0.0222241
0.021788
9.30518
0.0216312
0.0299039
12.6543
0.0215883
0.02173
0.0762871
0.0217007
0.021891
0.0218876
0.0221883
4.82049
7.76561
0.0220351
0.0219565
0.0220563
0.0228459
0.0434661
0.0228905
12.8815
0.224987
0.0221949
5.19206
0.0326305
0.0219522
7.4029
0.0215955
0.0561827
0.021775
0.0223907
0.0223813
4.65677
0.0219497
0.0219627
0.0240179
0.0223374
0.0307555
0.0218229
5.29736
0.0400236
0.0444555
10.1912
5.4875
0.108745
0.0337196
5.16369
0.0219905
0.0220022
0.0254273
4.7736
0.0579594
0.0492657
9.28562
0.0219758
3.6005
0.247723
1.69314
0.0219993
0.036128
0.0218831
0.122555
0.0335514
0.707672
5.71201
0.0220141
0.0357956
0.0277481
0.0219201
0.967857
0.0219734
0.0310383
0.158142
0.085597
0.0219619
0.0222948
0.0222288
0.0555186
0.0219505
0.0221981
0.0219692
0.0220781
0.0216617
0.0381621
0.0215455
0.744608
4.74442
0.0225129
0.0217502
0.0215599
0.0427589
0.0347384
0.022126
6.08902
0.0501203
0.0217683
0.0218185
5.83409
4.71227
0.0219383
0.194051
0.0350185
0.0220073
5.8135
0.0226316
0.0728624
0.0222341
13.9987
5.30832
0.0222563
0.0358354
5.29874
0.0349508
7.39456
0.0222396
0.0254518
4.63425
6.88537
0.0254308
0.0253949
0.022545
0.0244308
0.0228956
7.0335
4.72834
5.15479
0.0234709
0.0219687
0.0586005
0.0218956
0.245031
0.0248668
9.52151
0.0215799
0.0221894
0.0217591
0.0219087
0.021847
0.0786121
7.79753
0.0300735
0.0216184
0.0221039
9.78924
0.0235488
0.0238461
0.0221559
0.036239
7.29536
0.0217036
0.0218554
0.0407699
0.0807452
0.0221141
0.0421019
0.0223256
0.0236988
0.128609
0.0287402
6.89917
0.881216
0.0481798
11.3997
0.0218589
0.0218891
0.0231023
6.34801
0.023236
3.07816
0.0216948
5.09658
0.0363058
0.0218717
0.0302644
0.0222819
4.80693
0.0554375
0.0306685
0.264579
0.109793
0.0221517
0.0222014
0.0222286
0.0250127
5.10159
0.0558603
0.0221033
0.188697
0.021853
6.28015
0.0219616
5.751
0.0295529
6.59432
0.963858
0.058704
0.0219751
0.0220053
0.0218706
5.4433
0.0219887
0.0538832
5.89301
0.0215336
9.01107
0.0329678
0.021966
0.0851694
0.0219164
0.0218351
5.06573
6.9369
6.87452
0.021905
0.021763
0.0227443
0.024459
0.0230031
0.0219542
10.429
0.084961
4.08732
0.0225598
0.0426074
2.40212
1.35142
0.030273
0.0217543
5.70599
0.0229301
4.91061
0.0218934
0.0220264
0.0219825
0.0217174
0.0215316
0.0222408
0.0217871
0.0370294
7.42614
0.0357287
4.83743
0.0250605
0.0222094
0.0221244
0.431969
0.0220231
0.0225359
0.0220426
4.73064
4.92371
0.0217827
0.0236389
0.0218717
0.021977
0.0222784
0.0220615
0.0219096
0.995307
0.0222335
0.0217975
0.126281
0.0218265
5.45584
0.0823271
0.0976597
0.185608
0.0241378
0.0220774
5.06834
0.0220622
0.0839773
0.0297517
0.0217834
0.0499465
0.022065
6.39197
0.0216098
0.0217983
5.0145
0.0553501
9.16729
0.0217532
0.0870312
0.153295
0.0318093
5.09651
0.0218829
0.0217415
0.0216181
0.092623
0.0227827
1.03676
0.0220035
0.0420402
6.66951
0.195306
0.0220137
0.941613
0.0253387
7.44053
0.023514
0.0235053
0.0240959
5.54543
0.0219704
0.0223698
5.58179
0.0215665
0.0261863
0.0218203
0.0469673
4.85264
7.62161
0.0218507
0.0984826
0.0220017
0.298777
0.0220153
0.0224326
0.0966141
22.6379
0.0395981
0.0219941
0.0254197
5.54967
0.0582652
0.0799414
5.24205
0.0220207
11.2097
0.0230079
0.16626
0.021795
0.0252457
6.76115
0.025466
0.0219226
0.467082
7.60319
5.60134
0.0217002
4.79151
1.2636
0.0216216
0.146338
9.91892
0.0222782
0.022874
5.13973
0.0214971
0.0223912
0.0218311
0.0220676
0.106651
0.0815403
0.0366597
5.3742
0.0222712
0.0584974
0.029775
0.0221838
0.0232658
0.0358226
0.0219761
0.0222274
8.83054
5.31966
9.01914
0.0216787
0.0377996
0.0221368
4.62689
0.022095
0.0416576
8.10823
5.63652
0.0678654
0.0219687
0.957762
5.08969
0.879301
0.0219992
0.0221256
0.0218375
5.54488
0.0378705
0.139134
6.79604
0.0220505
0.0222114
4.98641
0.0287273
0.0863339
0.0221749
0.0218915
0.0219791
1.1951
0.0220352
0.0562437
0.0217573
0.0221107
0.0217948
5.68573
4.83734
0.0237675
0.543635
0.0230179
1.17644
0.0219222
0.0219068
0.0836285
0.0220733
0.0219352
0.0254218
0.105455
0.0294969
0.129919
0.022015
0.0660797
4.8726
0.0221064
0.0220277
0.0220314
4.75287
0.0456651
0.0473999
0.0842397
0.0217693
0.0218629
0.141977
0.026071
7.97659
9.78978
0.0360679
4.66718
3.92205
5.25833
0.0554085
0.0222906
0.0220001
0.275937
5.61582
0.0218792
0.0382433
5.70732
0.0221068
0.209072
1.59376
0.125266
0.0219339
0.0972546
0.0221424
0.0221056
0.0216302
0.864193
0.0221155
0.0589696
0.0395898
0.0219842
0.0221848
5.14364
0.0217802
0.0215941
0.0477101
3.31152
0.0382613
0.0220207
0.0401074
6.81093
5.06386
0.0286166
6.44106
0.0856842
0.12171
0.0592755
0.0221133
0.154135
0.0330186
0.0216522
0.0217236
0.0223313
0.0261251
0.301582
4.83015
0.0222184
4.55985
0.076092
2.65682
12.0475
0.272506
4.62572
0.123107
4.80653
0.0490347
4.79069
0.0604312
0.0219789
0.0220995
6.64872
5.09953
0.110593
5.55602
0.0218113
6.50051
4.91552
0.0220346
0.0216448
0.0377784
0.0610993
5.6166
9.09099
0.113048
0.021873
0.0218187
0.022218
9.36366
0.0254627
4.84714
0.0247358
24.4325
0.177845
5.42306
0.028015
5.0421
0.0218034
0.0215922
0.0258369
0.0221646
6.68222
0.12933
4.62172
0.0220668
5.98095
5.35526
0.0215469
0.0425226
4.92599
0.0435674
0.0218709
0.0265393
0.0219756
4.58697
0.0214586
0.0223244
6.69443
0.0296053
0.0492266
0.0277602
0.0218151
0.022202
0.0419777
0.0220618
0.0216507
0.0218364
0.0304663
5.31055
3.48825
0.0219754
0.133274
5.64448
0.0221165
7.34712
5.91606
0.0221174
10.3552
0.0220733
0.0896417
5.20741
0.0219706
0.0221672
0.0221752
0.0920677
0.0262489
0.0218605
5.12541
0.0219608
7.98245
0.0220403
6.98436
5.10462
0.024997
0.0217393
0.148211
0.0785763
0.155682
6.3465
0.0443847
0.0221777
4.94765
0.0224713
0.0809288
0.0699744
0.0301308
0.0629639
0.021887
0.131002
5.63405
5.28193
0.118033
0.0218896
0.185063
4.59033
0.0222719
0.214516
0.102442
1.03356
0.0219676
0.0249996
0.021505
0.190864
6.29648
0.0953822
6.21376
0.0863837
0.0387784
4.9192
4.96761
5.58434
2.17589
9.82391
0.0675377
12.5305
0.0536611
5.17558
6.80398
0.0233454
0.0223304
0.0271888
0.0590946
0.0219975
0.0262028
0.0222617
0.0243791
0.0220046
0.0218752
7.88295
5.46898
0.0222038
0.0512341
0.0221061
0.0217958
0.0237204
0.0776039
0.0233998
0.0919323
0.0221659
0.0437793
2.2476
0.103214
0.0462455
0.0219756
0.101585
0.0222205
0.0219275
0.631917
0.0229055
5.09694
0.161611
0.0219385
0.0244672
5.02181
0.0220738
0.097092
0.057296
0.0598344
0.0265798
0.0372555
0.0220088
0.0221683
4.87006
8.89793
0.0360119
0.0767811
0.0220451
5.44794
0.0255529
6.85797
0.0798261
0.0221098
0.0216782
5.77629
0.166368
5.73127
0.02811
6.6987
0.0226289
5.09335
9.65038
0.0308833
0.151928
0.0218563
7.39383
0.0222028
11.3352
0.0287507
5.14843
5.2287
4.67919
5.01863
0.0362113
8.24092
0.161551
0.0486841
5.01756
5.10835
4.9252
0.0217126
0.0258397
0.0750212
8.44121
0.0218822
0.021795
0.0297963
0.0619195
11.2679
0.0593089
0.0453153
0.0219372
0.121125
0.0215505
0.171531
5.39113
0.710402
0.0217805
6.97087
0.0680238
0.0225577
5.30887
2.84865
0.0270149
4.98345
4.6616
4.73057
0.0564023
0.0218436
0.0289929
5.83378
0.0378319
0.0219802
7.46646
0.0215001
6.87318
0.0232716
0.0221742
5.02992
4.65366
0.0218425
0.0516553
0.0219563
8.1398
0.0215104
4.93004
0.156739
0.0424844
0.0219074
0.0220038
0.0221613
0.0386121
0.0554849
0.11963
0.0292948
6.75239
0.035006
0.0254158
5.41966
4.78698
0.0216429
0.157511
0.0219404
5.19296
0.0220913
0.0432191
5.63629
0.0278094
0.0219326
4.89315
0.0223092
0.022255
0.0466131
0.0222782
0.021895
5.52967
0.0671553
6.47256
0.0222787
0.116991
0.086655
0.0216441
0.0219375
0.0236378
0.0218449
4.94628
3.02412
4.71058
5.16166
4.91462
5.08508
0.0219207
0.022028
0.0219484
0.0221297
0.112603
7.68417
0.0306564
0.024823
4.78764
0.0222851
0.0217748
2.41872
0.117785
0.0214745
0.0219745
0.0218874
0.196011
0.0217576
0.0219377
0.14975
0.034364
0.108361
0.0239759
5.22468
5.11164
0.0214658
0.0217212
5.31618
0.0342032
0.0251779
5.40697
0.0361559
0.121409
2.25758
0.0235557
1.47271
4.8457
0.0215446
0.0258026
5.50807
0.0251919
0.0220109
1.66888
0.0549014
0.056954
0.0221784
0.347752
0.0239352
4.89438
0.022052
0.0219794
0.0336133
0.0630432
7.55022
0.0361457
0.0219462
25.4234
5.16589
0.0239727
0.0736966
0.0220306
0.0219111
0.0217482
5.34691
0.0218556
7.13393
0.235741
5.24797
5.67558
0.0355831
5.2068
0.0333034
7.5551
2.36287
0.106481
0.639891
0.0737362
0.0955769
5.55027
0.051139
0.0220042
0.022059
16.5593
0.0403478
0.0230194
0.0221704
5.29953
9.73025
0.0220938
5.03113
9.40894
0.0701641
0.75269
0.0407796
0.0405844
0.0434582
0.10154
4.86702
0.0277747
0.197081
0.226483
0.0217601
0.11552
0.0280229
5.18727
0.0643181
0.0219646
0.236543
0.0650086
0.0734389
0.57436
0.0225676
4.67728
0.205384
10.5173
5.91161
0.0221839
0.0220119
0.0218946
6.69268
4.7388
0.0850217
0.159821
0.0218546
0.0217361
0.0225772
0.0850708
4.87548
0.0522036
7.53736
0.07271
0.375872
0.811154
0.021763
0.0543424
8.67815
7.38348
5.37327
8.36756
4.94079
0.0222439
4.56956
5.27448
4.6518
5.18217
0.02195
5.03145
0.0226132
4.71279
0.0275863
12.6349
11.9848
5.46339
0.0221575
0.0219955
0.0717507
0.0237772
0.11049
0.0222726
0.0494089
0.048698
0.0218007
0.0220015
0.0346533
0.0219313
8.5016
0.0218873
0.023095
5.26914
0.0707676
5.89674
0.108027
8.33615
0.0219323
0.0219806
0.0222453
4.88505
7.9184
0.0220241
0.0494742
7.50429
9.57041
0.0218944
5.03637
4.70829
0.0218122
5.00046
0.0219112
0.041148
0.0220107
0.0587038
0.0220701
0.13113
5.90258
0.0218508
0.0221594
7.49525
0.0358559
0.0216951
0.0221146
9.98057
0.0218751
0.0221666
4.60659
9.36797
5.83553
0.0853021
0.0219418
4.68122
5.27234
0.792812
0.0221666
0.0970874
0.0672863
0.0219419
0.22418
0.0218174
0.0218205
0.0218251
0.0557196
7.31256
5.1389
0.0425703
0.152161
0.0218831
5.86956
0.0218148
0.028054
0.0469532
0.0234253
0.0515829
0.0363752
0.0218715
0.113606
7.25075
0.0585362
18.6143
8.03934
0.0624637
0.0219637
0.025201
0.240011
0.0295772
0.0221945
0.10443
7.59953
0.0217053
6.97073
0.0292393
0.0219547
0.820622
5.66413
5.1311
0.0219775
0.0270109
0.0248913
0.0558826
0.0490591
0.0218751
0.0219784
0.114838
1.08884
5.22994
0.0276464
0.0222872
0.0217395
0.170271
0.0220252
5.24101
0.022273
0.041202
8.17121
0.201198
5.84554
0.0220492
6.69432
4.71883
7.01745
0.0220022
0.0222354
0.0527377
3.44368
0.0218263
6.57373
0.0218774
0.0215001
6.63779
0.0221842
0.0547904
0.027942
0.0228736
0.0319777
0.0295499
0.0680061
0.0469308
0.0402463
21.0758
0.175982
6.12717
0.0474648
0.0346543
0.056847
5.46316
0.173567
0.0278243
0.0220788
5.10417
0.022713
1.13052
0.209518
0.531676
0.0216901
8.79167
0.0220542
2.12645
0.0225523
0.88852
5.16272
0.0498959
11.6438
4.71075
8.12963
5.05529
6.3826
0.0643327
0.0219469
0.021799
0.871297
0.0218061
0.0219263
0.0219982
0.0408021
0.0234057
0.0346533
10.5757
7.98178
0.115792
0.0278222
0.0274247
0.02158
0.0254662
0.233874
0.226333
4.78169