/*--------------------------------*- C++ -*----------------------------------*\
| =========                 |                                                 |
| \\      /  F ield         | OpenFOAM: The Open Source CFD Toolbox           |
|  \\    /   O peration     | Version:  v2012                                 |
|   \\  /    A nd           | Website:  www.openfoam.com                      |
|    \\/     M anipulation  |                                                 |
\*---------------------------------------------------------------------------*/
FoamFile
{
    version     2.0;
    format      ascii;
    class       surfaceScalarField;
    location    "250";
    object      meshPhiCN_0;
}
// * * * * * * * * * * * * * * * * * * * * * * * * * * * * * * * * * * * * * //

dimensions      [0 3 -1 0 0 0 0];
oriented        oriented;


internalField   nonuniform List<scalar> 
27882
(
2.10982e-05
4.94741e-05
-7.00291e-05
-1.11081e-05
5.55391e-05
-4.41841e-05
-5.50673e-06
1.41019e-06
6.37988e-06
7.25724e-05
-5.08996e-05
-0.000197643
1.10858e-05
0.000187379
-9.55276e-07
1.18439e-06
-1.67669e-08
-0.000182312
0.000169413
1.618e-05
-0.000194541
7.67552e-05
0.000118572
-1.25106e-05
-0.000184344
0.00017128
-9.20739e-06
-0.00016134
4.0695e-05
1.06514e-05
-5.10709e-05
-7.33532e-06
0.000119434
-0.000111976
7.34449e-05
-0.000211327
0.00013833
8.30353e-06
0.000149532
-0.000157101
-0.000206201
4.72834e-05
0.00016352
3.19076e-05
-9.9813e-05
7.30135e-05
-0.000118112
0.000110887
4.59235e-07
-4.59235e-07
-7.34359e-05
-0.000128833
-0.000224456
0.00019184
3.34778e-05
1.62414e-06
0.000129142
-0.000130435
8.03072e-05
-1.81093e-05
-6.21906e-05
-8.4026e-07
1.40487e-07
-1.86357e-06
1.05987e-07
2.17475e-06
3.55193e-05
4.47938e-05
1.72818e-05
-8.29767e-05
6.57073e-05
-0.000119392
0.000189161
-6.97935e-05
-2.56974e-05
-8.2054e-05
0.000107818
-3.59735e-05
0.000108039
-7.20042e-05
-2.58224e-06
4.50586e-05
-4.23069e-05
-9.63333e-05
-6.02182e-05
0.000156563
-0.000192799
7.34216e-05
-4.67448e-05
-0.000146982
-6.30482e-05
-1.36137e-06
6.44155e-05
-0.000193805
6.33094e-05
0.000131136
-5.38006e-05
5.14307e-05
-0.000105723
0.000179561
-0.000181906
0.000194057
-0.000164623
-2.94476e-05
2.73836e-06
1.16806e-06
-3.81193e-06
4.99821e-06
-4.68622e-05
4.18519e-05
-0.000201505
0.00017416
2.80702e-05
-6.51447e-06
4.71476e-05
-4.04928e-05
-1.39571e-05
-8.78181e-05
0.000102852
-3.21281e-06
-2.90724e-05
3.95324e-05
9.81779e-06
-0.000145707
0.000135919
-6.37934e-05
-0.000137012
5.26692e-05
-0.000119403
6.67999e-05
-6.41027e-05
5.06462e-05
1.34568e-05
1.97298e-05
4.82e-05
-6.73909e-05
-1.07252e-05
5.16858e-05
9.80614e-05
-1.77538e-05
-8.03032e-05
6.89381e-05
-4.86507e-05
1.62894e-05
-0.000160667
0.000145222
-7.48425e-05
3.48257e-06
7.13752e-05
-4.13053e-05
-0.000169528
-1.96109e-05
-2.95295e-05
4.99253e-05
-0.000176678
-4.68521e-05
5.14004e-05
7.13993e-05
-0.000122724
3.9528e-05
-5.82535e-05
-2.14235e-05
3.58026e-05
-8.58481e-06
8.82102e-05
-0.000101072
-0.000224741
9.61555e-05
0.00013538
-9.32157e-05
-4.21462e-05
-2.58669e-05
1.14391e-05
-8.17932e-06
-4.34334e-05
5.16154e-05
2.79351e-05
-1.36302e-05
-9.80667e-06
8.05613e-07
-1.43655e-05
1.40212e-05
-0.000112417
8.6793e-05
4.43658e-08
4.42945e-07
6.25381e-05
3.55295e-05
9.67143e-05
-8.39907e-05
-1.27109e-05
-0.000202587
7.40669e-05
0.000131668
0.000184362
-5.81364e-05
-0.000125812
0.000113954
4.65404e-05
-0.000160306
-0.000162283
6.59585e-05
0.000176765
-0.00015007
-2.66643e-05
-9.97618e-05
0.000114473
-1.46237e-05
0.000159436
4.0057e-05
-4.64262e-05
-5.62858e-05
-3.40838e-05
9.0404e-05
0.000149237
4.48192e-05
4.39496e-06
-0.000104048
-0.000167763
9.74999e-05
7.04947e-05
1.4109e-05
-0.000103224
9.00489e-05
-5.72558e-05
9.68479e-05
-3.95719e-05
7.00302e-05
-0.000160089
0.000161615
2.32155e-05
-0.000139726
-8.50019e-05
2.65161e-05
-8.37518e-05
-0.000110953
4.68942e-05
6.40594e-05
-2.13934e-05
1.58464e-06
2.75696e-05
-9.60097e-05
-3.66503e-06
9.97219e-05
-5.22256e-05
-1.18773e-05
-0.000147306
-5.18041e-05
-4.7755e-05
7.18692e-05
-2.07659e-05
2.67684e-06
-2.55224e-06
-5.30258e-08
-7.66858e-05
-3.88645e-05
0.000115638
-1.64283e-05
-0.000103263
0.000119755
0.000186059
-1.701e-05
-0.000166068
0.00011125
-0.000101411
3.92239e-05
0.000105079
-0.000143895
-1.31157e-05
1.43854e-05
2.54154e-05
-6.96147e-05
4.71808e-05
-5.53571e-05
0.000102722
-0.000100844
-5.57993e-05
0.000108529
-2.82839e-05
-8.26695e-05
0.000205942
-7.83575e-05
-0.000127466
-3.81839e-05
0.000173814
-0.0001353
0.000115479
-3.61283e-05
-7.36345e-05
0.000111054
2.43397e-05
0.000151485
3.30083e-06
-0.000153814
7.32933e-06
5.78845e-06
-1.02519e-05
0.000146758
-0.000107113
-8.40901e-05
0.000135854
-5.17206e-05
5.88285e-05
-0.000135411
-9.67643e-06
4.99224e-05
-3.93864e-05
-0.000135554
9.25402e-05
4.30461e-05
-9.65032e-05
-1.49437e-05
0.000112353
-1.57917e-06
-1.32475e-05
1.83037e-05
6.54877e-05
0.000111311
0.000104918
-8.98681e-05
-5.15362e-05
7.41725e-05
-2.11444e-05
3.76566e-05
-5.56753e-05
1.80186e-05
0.000156661
-0.000139572
1.04103e-05
8.72532e-05
-9.64576e-05
1.86833e-05
-6.88386e-05
0.000124899
-8.64616e-05
-3.83961e-05
5.20881e-05
-4.36377e-05
-6.79301e-05
3.59615e-06
-1.52024e-05
1.75639e-05
-8.42333e-05
-7.02809e-05
0.000154844
7.30969e-05
-2.15208e-05
-5.15739e-05
3.1651e-06
-3.7309e-07
-1.5928e-05
-2.54582e-08
1.94673e-05
0.000148082
-0.000176827
2.87022e-05
-7.75874e-05
0.00011604
-3.73365e-05
-8.50609e-05
0.00012786
-4.27475e-05
5.50786e-05
-0.000111324
-2.66401e-05
0.000179125
-1.49648e-05
8.58826e-05
-7.07766e-05
-8.35471e-05
-3.57206e-05
0.000119373
3.46606e-05
0.000171336
5.43413e-05
-1.66849e-05
-6.66183e-05
-3.88055e-05
0.000105493
2.89202e-06
4.42911e-05
0.000126463
-5.39521e-05
-7.24681e-05
5.33385e-05
-4.24081e-05
0.000127634
-5.19337e-05
-7.56867e-05
-5.10862e-05
1.07606e-05
4.03254e-05
-4.64774e-05
4.93092e-05
-2.83167e-06
-0.000190546
0.000111863
7.99553e-05
8.06855e-05
-0.000199748
0.000119873
3.80058e-05
-3.30127e-05
-3.1894e-05
-0.000125271
1.45505e-05
-0.000110508
9.12841e-05
3.36482e-05
-0.000109442
0.000171124
-6.1396e-05
4.24724e-05
-7.42703e-05
-3.41366e-05
0.000108403
-6.62042e-05
7.79283e-05
-1.05128e-05
-3.62038e-05
5.61472e-05
-1.99431e-05
5.41569e-05
-5.12621e-05
3.75874e-05
-0.000155603
0.000118059
1.29206e-05
-5.35226e-05
4.13729e-05
6.74094e-06
-7.17541e-05
3.29653e-05
6.47442e-05
-9.77091e-05
4.07495e-05
1.13384e-05
-2.25473e-05
-0.000102103
0.000124612
-3.23691e-05
-1.32324e-05
4.56016e-05
-3.12419e-07
-3.4376e-06
-6.38983e-05
-4.41801e-05
0.000108129
-7.66675e-07
7.66675e-07
-0.000210864
0.000132629
-0.000146012
3.93304e-05
0.000108771
-0.000167219
2.31838e-05
-8.51874e-05
2.01549e-05
6.50459e-05
1.06994e-05
-7.37411e-05
9.23074e-05
-0.000196777
3.63641e-07
1.25003e-05
-1.23714e-05
0.000185523
-0.000159012
-2.57899e-05
-8.80632e-05
1.32384e-05
-0.000159184
0.000140271
6.41454e-05
-0.000127686
6.35489e-05
-6.30407e-05
-7.19387e-05
0.000138227
-1.5802e-05
6.10425e-05
-7.10899e-05
-9.72969e-05
0.000168891
-3.72203e-05
-1.50046e-05
-0.000139769
0.000167147
-2.73137e-05
-4.86832e-06
-4.16091e-05
9.62187e-05
-0.00015548
-0.000175499
4.96068e-05
0.000126023
-0.000182321
0.000153281
2.91213e-05
2.61734e-06
-8.54065e-06
6.32574e-06
0.000131279
3.17366e-05
-0.000162287
-8.01076e-05
0.000126309
-4.6154e-05
-5.22298e-05
-0.000136537
-5.72001e-05
1.99808e-05
-1.99516e-06
4.62157e-06
-1.85307e-06
7.98666e-05
-7.18388e-05
-7.23737e-06
5.0459e-05
4.0847e-05
0.000162348
-0.000163422
1.19515e-06
8.77476e-05
-1.87949e-05
-6.33966e-05
4.14703e-05
7.94456e-05
-5.42091e-05
1.80058e-05
-0.000151129
4.99748e-05
0.00010296
0.000144599
4.41176e-05
-2.91334e-05
-9.99602e-08
-2.14085e-06
3.15948e-06
-0.000119679
2.33969e-05
9.63304e-05
1.08198e-05
6.98504e-05
0.000156494
-3.46237e-05
-0.000120671
-0.000190362
5.08875e-05
0.000140289
2.5057e-06
2.41031e-07
5.10762e-05
-2.31477e-05
-1.98739e-05
-0.000105075
1.24191e-06
1.56442e-07
5.61639e-05
-1.43493e-05
-4.16976e-05
-0.000143539
-3.86787e-05
8.60151e-05
-7.58293e-05
-9.11191e-06
4.94643e-05
-0.000132895
9.39037e-05
-4.34193e-05
0.000145715
1.67547e-05
5.65329e-06
-1.79051e-07
-5.41845e-06
-5.40116e-05
0.000168164
-8.29731e-05
1.84413e-05
6.45493e-05
-9.99001e-05
2.56286e-05
-5.92996e-05
-8.99485e-05
7.43696e-05
-5.70762e-05
5.58943e-05
-0.000122433
-8.21336e-05
-0.000128608
-1.60282e-05
3.78345e-06
2.6213e-05
-7.82315e-05
5.65669e-05
7.14445e-05
1.56345e-05
-0.00016881
5.29923e-05
0.000115955
-5.80155e-05
4.48614e-05
1.31543e-05
-7.93397e-05
0.000119723
-4.03422e-05
0.000111703
8.73073e-05
-0.000197924
-0.000136853
8.1003e-05
6.15938e-05
-0.000111778
-5.68813e-05
0.000125342
-7.71351e-05
-4.81413e-05
-3.58224e-06
4.78048e-06
2.03574e-07
7.28231e-05
5.48291e-05
-3.50727e-05
0.000108879
-7.37779e-05
4.70483e-05
4.44143e-05
-8.65297e-05
-5.8863e-05
7.96323e-05
-1.76698e-05
6.00631e-05
-1.47996e-05
-4.45653e-05
6.29657e-05
0.000125468
-4.5675e-05
1.33062e-05
-2.11195e-05
0.0001065
-8.41711e-05
-2.46287e-06
1.81436e-07
2.30289e-06
8.54965e-05
-1.30607e-05
-2.02273e-07
5.47632e-07
-2.08415e-07
7.87834e-05
-0.000120728
4.1976e-05
3.79732e-05
1.40254e-05
-5.12266e-05
3.26625e-05
6.40635e-05
3.62968e-05
-4.31611e-05
1.36374e-05
-1.34953e-05
-0.000172421
-0.000132819
0.000136963
6.41791e-05
1.14307e-05
7.71889e-05
-2.59908e-05
-0.00011911
-5.62515e-05
5.80362e-05
-0.000130007
7.20015e-05
0.000138247
-8.0178e-05
7.05486e-05
-5.04748e-06
4.03317e-05
0.000134898
-2.17794e-05
-0.000156107
-7.64948e-06
0.000165299
0.000114888
2.02925e-05
-0.000135155
5.74818e-05
-7.92419e-05
2.17659e-05
1.02172e-05
-0.000164733
-0.000140071
6.08303e-05
8.10774e-05
-7.21287e-06
5.89356e-06
1.39704e-06
-4.91699e-05
-0.00014036
9.8099e-05
-0.000174138
7.63695e-05
-9.00809e-09
1.41506e-06
4.27764e-05
0.000114841
-0.000118848
0.000127744
-7.17779e-05
1.60881e-05
-1.38662e-05
1.88646e-05
3.72432e-07
9.19986e-05
2.96403e-05
-0.000116099
-9.5888e-06
-5.05119e-05
6.01033e-05
-0.000131342
-4.41582e-05
-9.4061e-05
7.95118e-07
2.38609e-07
-9.80057e-07
4.59507e-05
-0.000123029
-8.37351e-05
3.08996e-05
5.58204e-05
-5.49483e-05
5.36888e-08
-2.36351e-06
-0.000171945
5.43451e-05
0.000118386
-5.08064e-05
2.19403e-05
7.95835e-07
-4.97506e-06
5.43537e-06
4.99229e-07
-2.73554e-06
3.42005e-06
-6.31388e-05
5.42659e-05
9.57092e-06
8.29303e-07
4.84438e-06
1.84513e-06
-1.54518e-05
4.27691e-07
-1.81601e-06
6.29709e-05
-2.35535e-05
-3.94179e-05
0.000169066
-1.252e-05
-0.000156133
2.50806e-06
9.50868e-06
-9.88858e-06
-8.13701e-06
1.27613e-05
-0.000199921
0.000101756
9.81393e-05
3.92184e-05
8.42862e-06
-4.73868e-05
-7.16047e-06
7.83475e-06
0.000128234
-0.00011594
-1.16678e-05
-4.76609e-05
0.000150621
0.000109761
-2.04226e-05
-0.000185072
0.000144198
-2.05495e-05
0.000117755
-8.41437e-05
-6.01881e-05
0.000144355
4.78014e-05
-0.000159551
4.49311e-05
0.000114709
-9.57627e-05
5.98368e-05
5.47418e-05
-5.60981e-05
-5.40845e-07
1.33009e-05
-1.23599e-05
4.83138e-05
9.03209e-05
-0.000138662
-5.44685e-05
-4.69729e-05
0.00010147
2.89287e-05
-1.29077e-05
-1.13255e-05
-0.000105528
-5.39212e-05
8.23522e-05
-0.000191498
-0.000121419
6.95012e-05
-0.000103079
3.26346e-05
7.44361e-05
-1.32643e-05
2.34221e-05
1.13678e-07
-2.91441e-06
-0.000109999
7.81278e-05
3.41286e-05
3.87328e-05
-5.56696e-05
1.69366e-05
0.000166622
-5.55604e-05
-0.000110909
-2.76506e-05
-0.000128104
0.000156557
8.06616e-05
-3.15602e-05
-4.90998e-05
-2.19155e-05
-7.70213e-05
5.16288e-05
-1.3266e-05
5.54872e-05
1.35818e-05
-4.15738e-06
-0.000175141
5.16405e-06
0.000170979
9.52415e-05
-4.06195e-05
-5.39665e-05
0.00017213
-9.46648e-05
-0.000148105
4.76306e-05
0.000102185
2.00036e-05
-0.000194005
-0.000207609
5.29105e-05
0.000155662
-0.000115773
-3.53297e-06
-7.30972e-05
-0.000126807
-0.000113597
3.68643e-05
0.000150049
9.58124e-05
-0.000112181
-5.824e-05
-5.00074e-05
0.000131642
-4.21151e-05
-8.93893e-05
-8.70881e-06
4.81743e-05
1.59256e-05
4.90571e-05
-6.49774e-05
-4.23087e-06
7.55935e-05
-7.12635e-05
7.63131e-05
3.51817e-05
-0.000111451
9.92215e-05
-0.000167136
5.43269e-05
-4.18075e-05
-1.25195e-05
0.0001696
2.69272e-06
-0.000172335
-0.000182326
5.41102e-05
0.000128694
-3.31714e-05
-0.000173387
0.000128435
-0.000155277
6.37161e-05
0.000110113
-0.000172613
-9.97732e-05
1.30707e-05
4.70124e-05
0.000175665
-2.22979e-05
-8.07943e-07
6.70839e-05
-6.61671e-05
-6.40082e-05
-9.95353e-05
0.000163706
0.000174382
1.34677e-06
7.45524e-05
-0.000100376
0.000136928
-3.6284e-05
0.000164287
2.18839e-05
-5.86556e-05
0.000117572
-7.36892e-06
-0.00013221
4.81636e-05
-0.000209517
0.000127529
7.9191e-05
7.78228e-05
-0.000156916
-5.61761e-05
9.39335e-06
0.000118051
-4.1691e-05
-2.00014e-07
1.04189e-07
8.20653e-05
-3.06251e-05
-5.1437e-05
4.00376e-05
4.03155e-05
9.09758e-06
-4.91447e-05
-6.40742e-05
6.33725e-05
1.9282e-05
1.29532e-05
1.83723e-06
-1.37087e-06
5.03814e-05
-6.84846e-05
6.29438e-05
0.000114568
-2.43729e-05
-8.99975e-05
1.95134e-05
9.54014e-05
-1.69428e-05
0.000165537
9.68696e-05
-0.000167384
0.000129526
-7.18293e-05
0.000108903
5.29176e-06
0.000110686
-0.000115479
5.80349e-05
-0.000202828
0.000145691
-1.15688e-05
-8.4737e-05
9.71373e-05
1.39395e-05
-1.2421e-05
-6.28772e-05
0.00012752
-0.000156021
6.31092e-06
0.000153168
7.36914e-07
-9.64448e-06
6.6301e-07
-3.495e-06
4.27781e-06
-5.12898e-05
1.40602e-05
3.78256e-05
-6.83508e-05
-9.54509e-05
0.000164137
0.000180317
-5.67641e-05
-0.00012359
9.56889e-05
5.1444e-05
-0.000146927
-0.000179161
7.98784e-05
9.92584e-05
-0.000116154
-6.30243e-05
6.30074e-06
4.21937e-05
-4.84948e-05
1.51879e-05
-0.000113605
5.12046e-05
6.24432e-05
-4.93363e-05
-1.31404e-05
-1.10457e-06
2.14057e-06
-6.89583e-07
3.09958e-06
4.41613e-05
0.000149732
-0.000143797
7.16499e-05
0.000120731
-0.000191313
2.47875e-05
-0.000175706
6.27495e-05
-0.000121313
-2.58767e-05
-0.000135866
0.000162131
-3.63075e-05
5.10864e-05
1.48015e-05
-0.000130592
-2.53748e-05
2.79866e-05
5.30018e-05
0.000116387
2.47445e-07
8.10995e-06
-8.03024e-06
4.18644e-05
1.53627e-05
-5.72262e-05
5.41224e-05
6.07579e-05
4.32084e-06
-2.62015e-06
4.82431e-05
3.24203e-05
9.41783e-05
1.72409e-05
-0.000111371
-1.68391e-05
-2.733e-05
5.27382e-05
8.58378e-05
-9.65589e-05
-1.95661e-06
5.61745e-07
2.0245e-06
-9.26891e-05
-0.000116779
-2.3434e-06
6.81428e-07
2.66591e-06
-4.75368e-06
6.85162e-06
-0.000106093
0.000143723
0.000122996
-2.7132e-05
0.000159857
-2.94231e-05
-0.000134698
4.79436e-05
0.000127801
-0.000175013
0.000161579
-0.000181737
2.06441e-05
0.000106931
-4.35789e-06
-0.000102573
0.000184787
-0.000171354
-1.31555e-05
-1.10825e-08
-1.2378e-07
3.64021e-07
3.86349e-05
-8.02792e-06
8.63237e-06
4.90476e-05
4.68495e-05
-7.59269e-05
-9.99481e-05
7.05773e-05
3.53904e-05
0.000110122
-0.000170327
3.66629e-07
-1.57447e-07
4.19806e-06
0.000157803
-3.4008e-07
7.16767e-06
-4.69024e-06
-8.47966e-05
-4.73676e-05
-6.52816e-05
2.45801e-05
4.12374e-05
-1.24462e-05
-0.000140669
-5.57316e-05
4.35094e-05
1.22223e-05
4.82191e-05
-3.95289e-05
-8.86059e-07
7.84405e-07
1.44394e-07
3.60982e-05
-0.000136221
-0.000198191
7.735e-05
0.00012194
6.79323e-05
2.51482e-05
-4.30905e-06
1.0204e-05
-4.23389e-06
3.16276e-06
-2.2781e-05
2.68072e-05
0.000154013
-5.19522e-05
-0.000102009
2.90845e-05
4.94448e-05
-7.85309e-05
0.000158465
-0.000175706
1.8521e-05
4.70583e-06
9.92439e-05
-0.000103794
0.000118639
5.57516e-05
-1.95768e-05
-6.5598e-05
4.48383e-05
1.59535e-05
-6.08165e-05
-0.000113349
7.83089e-05
5.9241e-05
-1.44696e-05
6.47425e-06
3.69477e-05
-4.26216e-05
-4.89779e-05
-6.45828e-05
5.49871e-05
-0.000126458
0.000162742
-3.59128e-05
0.00012536
-0.000171377
1.20356e-05
4.42095e-05
-8.77038e-05
-3.10135e-05
0.000119231
-0.00015557
0.000129809
2.18028e-06
-1.09801e-05
1.06907e-05
5.01211e-05
0.000121544
-4.01363e-05
8.64404e-05
-4.33311e-05
-3.1024e-05
-6.2525e-05
-6.60466e-05
2.84281e-05
-6.4848e-05
4.42915e-05
0.000138511
4.16028e-05
-0.000179711
-6.61388e-06
8.9707e-06
1.89103e-07
3.36547e-06
5.46924e-06
-8.43248e-06
6.9923e-05
3.17183e-05
-0.000101597
2.31216e-05
-1.3425e-05
-4.81385e-06
1.20031e-06
5.1904e-06
3.58967e-06
-4.44379e-06
9.19701e-07
-9.42247e-05
-0.000103218
-0.000116944
2.9721e-05
0.000152498
-2.30406e-05
-9.6452e-05
-5.08372e-05
4.03767e-05
1.89934e-07
-1.6838e-07
3.51881e-08
7.02339e-05
-0.000137638
6.75983e-05
-1.28344e-06
-6.83864e-05
6.96908e-05
6.48203e-05
-5.26928e-06
-5.95528e-05
-5.70151e-05
0.000136292
3.48736e-05
2.37725e-05
-3.73696e-05
0.000140007
6.16375e-05
-3.25541e-05
4.15382e-05
1.32736e-05
4.65154e-05
-5.94233e-05
-1.28115e-05
5.31095e-05
-0.000216828
8.13056e-05
0.000135807
4.45704e-05
-6.41992e-08
2.46574e-07
-1.84995e-08
3.74615e-05
6.43815e-05
-0.000101843
0.0002068
-0.000155056
-4.43248e-05
9.94396e-05
-5.9806e-05
7.35359e-05
-7.14323e-06
9.37756e-05
-9.83642e-05
0.000103224
1.91165e-05
6.3613e-05
0.000151998
-0.000120553
-2.90638e-05
5.85816e-06
-2.05101e-05
2.29103e-05
-2.30506e-08
-6.54148e-07
9.56652e-07
-0.000152239
9.48949e-05
-3.12217e-05
9.68318e-06
9.04731e-05
2.09246e-05
-0.00011136
1.00637e-05
3.01778e-07
-9.8751e-06
0.000147461
-0.000172927
-5.53965e-05
0.000174038
-6.29465e-08
8.72091e-07
1.04933e-05
2.24057e-08
1.09108e-07
-4.41187e-06
1.42476e-05
0.000134847
-0.000148754
1.75137e-05
0.000129207
-0.000146245
0.000179999
5.00195e-06
-0.000149736
0.00013504
-0.000120065
-1.96634e-05
0.000106422
6.53732e-05
-0.000171484
3.83587e-05
-0.000164492
-8.87538e-05
8.59119e-05
3.95709e-06
-1.16246e-05
-3.9079e-05
1.13851e-05
-0.00017872
2.66726e-05
0.000153156
-1.26064e-05
-0.000164912
-8.20757e-06
5.63467e-05
-4.81397e-05
0.000102965
-3.88136e-05
-5.53133e-05
-1.32765e-05
-8.94279e-05
-4.59909e-05
-0.00012513
-5.94788e-05
9.2444e-05
-1.90519e-06
1.03909e-05
2.5651e-06
-2.69217e-08
-2.3576e-05
-3.39771e-05
-3.84475e-06
7.54098e-06
0.00011869
-9.0417e-05
-2.65937e-05
-1.10459e-05
-7.64124e-05
0.000184123
-0.000156205
-2.70697e-05
-2.66174e-05
0.000119349
-4.78788e-05
8.41062e-06
-0.000155427
2.82562e-06
3.83538e-07
9.34607e-05
5.64478e-05
-0.000149795
8.06648e-05
-1.58466e-05
2.66446e-05
0.000127216
-0.00015296
9.3997e-05
-8.2457e-05
-4.90353e-05
-0.000103036
0.000154439
-5.03375e-07
-2.81907e-06
0.000131408
-0.000154825
2.6897e-05
2.04146e-05
2.23634e-05
0.000142243
-0.000164151
1.21264e-05
-5.07606e-05
3.88674e-05
6.61879e-05
0.000101309
-0.000166723
0.000150253
2.64492e-05
-0.000176518
9.35711e-05
-0.000140385
9.03861e-05
4.1382e-05
-1.13636e-05
3.87059e-06
-1.35217e-06
-1.88766e-06
-4.80556e-05
0.000104017
1.34864e-06
-1.27669e-06
9.42882e-07
-7.00712e-07
0.000181226
-0.000149899
-3.13382e-05
8.36615e-06
-4.7048e-06
0.000169105
-3.72058e-05
-0.000152131
8.82751e-05
-2.24646e-06
1.11915e-05
-7.01097e-06
0.00015147
-4.21255e-05
-0.000105857
-1.53349e-05
-4.43182e-05
3.54443e-05
3.7557e-05
0.000142196
-0.000179374
-8.53892e-06
4.46522e-05
-3.58391e-05
1.1852e-06
-4.84054e-06
4.82374e-06
5.91241e-06
-4.31484e-06
-0.0001018
-6.57539e-05
-0.000171481
4.344e-05
0.000128687
-0.000114402
0.000132361
-3.68615e-05
-0.000107005
0.000163684
-1.33225e-05
-4.41582e-05
-1.76736e-05
-7.80796e-05
5.87949e-05
2.21147e-05
2.41254e-05
3.88448e-05
-1.21554e-06
7.46926e-06
-5.88978e-06
2.81712e-06
-1.99198e-06
0.000131247
1.32901e-05
-0.000141922
1.43687e-05
4.63933e-05
-6.02955e-05
0.000120161
4.70523e-05
-5.27058e-05
-8.91205e-05
0.00014193
7.31368e-05
-8.51439e-05
1.29111e-05
-0.000126763
9.08398e-05
0.000111005
-0.000138756
2.77334e-05
-3.97568e-05
-0.00017677
-6.57664e-05
8.54551e-05
-1.41952e-05
0.000115209
1.36313e-05
-0.000174928
6.93455e-05
0.000105978
-1.08701e-05
-0.000149774
6.58016e-05
-2.39086e-05
-0.00013004
0.000154646
0.000125148
-3.69976e-05
-8.58731e-05
-6.15684e-05
7.65244e-05
5.34561e-05
6.95557e-05
-0.00012292
-4.07268e-06
6.37912e-06
3.90517e-05
8.81917e-05
6.86169e-06
-8.45194e-06
0.00010498
-6.71175e-05
-3.53576e-05
0.000155153
-0.000133529
-2.12951e-05
0.000201899
-0.000169232
-3.2345e-05
5.92588e-08
-2.50848e-06
2.57539e-05
0.000129519
-0.00015273
-0.000219259
0.000152501
6.78052e-05
-8.92643e-06
0.000142654
-6.05999e-05
1.69996e-05
4.6698e-05
-1.49677e-05
0.000162765
6.63123e-05
4.84086e-06
6.34978e-05
7.11885e-05
-0.000134567
2.76244e-05
2.16847e-05
-4.2509e-05
3.4301e-05
-5.33465e-08
-1.24921e-06
4.88751e-07
1.77127e-07
-4.25534e-07
0.000180105
6.01676e-05
1.93364e-06
-6.20204e-05
-6.32792e-06
5.46464e-06
-4.52132e-05
3.6742e-05
0.000155757
1.67517e-05
-0.000170403
-9.65684e-06
-0.000135792
5.67449e-05
7.92218e-05
-2.90638e-05
1.8652e-05
0.000146912
9.74378e-05
1.33654e-05
3.65697e-05
3.90583e-05
-7.26263e-05
1.12378e-05
-9.50997e-05
3.0849e-05
6.07909e-05
-0.000108777
0.000101793
-0.00011614
1.43993e-05
0.000121162
-0.000154589
7.61235e-05
-4.85367e-05
-8.69799e-05
4.71412e-07
2.17334e-06
0.000112854
-1.97302e-05
0.000110221
3.49428e-06
0.000154071
-8.95044e-05
-1.13625e-05
0.000101725
7.39899e-05
-8.6614e-05
-9.02234e-05
-7.36878e-07
-2.00941e-08
2.40346e-05
-4.06014e-05
-0.000130195
-0.000166973
-2.58081e-05
1.03987e-05
-1.10518e-05
1.22752e-06
7.38835e-05
-5.30063e-05
-2.08738e-05
-4.20159e-05
4.83162e-05
-4.51772e-05
-0.000136669
1.59784e-05
7.04941e-05
3.39743e-05
-0.000136052
-3.56158e-05
-0.000138845
-0.000123051
0.000156193
-3.29047e-05
-0.000195368
5.78908e-05
0.000137596
0.000110759
-9.74014e-05
-1.33496e-05
0.000188247
-0.000144881
-4.15061e-05
-9.35931e-05
-2.25526e-05
0.000116158
-2.6437e-06
1.29996e-06
-5.80944e-05
0.000121699
4.41868e-05
2.73682e-06
-1.15258e-05
1.07497e-05
-0.000152709
2.44971e-05
0.00012842
-0.000115364
0.000176441
-0.000215959
0.000115963
0.000100471
0.000160659
2.4254e-05
8.44899e-06
-0.000184512
0.000152264
-1.04233e-05
0.000119531
-0.000190079
-2.60085e-05
-0.000112012
0.00013816
-0.000113749
2.81045e-05
8.71148e-05
8.73582e-05
-0.000140889
0.000153512
-0.00015964
-0.000155545
9.22959e-05
6.34877e-05
9.60655e-06
-8.63621e-06
-4.85352e-07
1.97976e-06
-2.65387e-06
6.76874e-07
0.000136972
-0.000101852
5.85698e-05
4.82527e-05
-5.48496e-05
-1.58224e-05
-4.42951e-05
6.32515e-05
0.000153994
1.25149e-06
6.09675e-05
-6.20978e-05
9.05568e-05
-2.94515e-05
9.38549e-05
-0.000138112
1.65256e-05
0.000124724
0.000178663
-1.9338e-05
-0.000157791
0.000155367
-6.62052e-05
-8.9016e-05
0.000170369
4.88366e-06
-0.000173475
6.02794e-05
2.97883e-09
0.000154689
-2.87607e-06
-0.000151415
3.09222e-05
7.46807e-06
0.000156744
-0.00016344
-0.000113466
-3.40478e-05
0.000148937
-6.70676e-06
-1.47222e-06
-3.51561e-05
1.33018e-06
8.69746e-06
-7.66148e-05
3.9459e-05
0.000159237
3.82933e-05
-8.50579e-05
4.67651e-05
2.27236e-06
2.12454e-06
-0.000153815
2.654e-05
-0.000112514
-0.000102966
-7.3534e-05
0.000124131
-5.06055e-05
0.000143572
1.12868e-05
-0.000154453
-0.000164779
2.93341e-05
5.74237e-05
-2.54181e-05
-3.19999e-05
8.9219e-07
-9.18364e-07
5.28173e-07
-6.37678e-05
6.515e-05
5.17434e-06
1.79404e-05
-2.12553e-05
-9.4814e-05
-0.000100437
1.3964e-05
0.000157945
-7.99563e-05
-8.26529e-05
0.000163581
-5.09877e-05
7.3845e-05
-2.28541e-05
6.34708e-06
-7.0339e-05
-8.92128e-05
-0.000179209
6.16777e-05
0.000118811
0.000174024
-7.13801e-05
1.3597e-05
5.94175e-05
-5.77672e-06
-0.000128795
4.09587e-05
-5.51988e-05
2.75167e-05
-6.05979e-05
3.30807e-05
-8.0353e-05
7.63484e-06
7.36724e-05
-5.64129e-05
-1.33155e-05
2.37088e-05
-1.67237e-05
0.000132376
-2.54456e-05
-0.000144699
9.21104e-05
-2.32948e-05
-0.000128066
0.000151959
1.86565e-05
-6.26377e-05
4.66419e-05
0.0001105
1.76079e-05
-0.000127493
7.58242e-05
-0.000154814
0.000190677
0.00012185
1.12777e-05
-7.46801e-05
1.46058e-05
0.000120759
-0.000195427
5.12884e-05
0.00014429
-4.58174e-06
-2.55361e-06
-8.7179e-06
-6.16592e-05
7.07281e-05
0.000177666
-0.000124758
-5.02884e-05
-0.000181804
0.000111889
-5.36156e-05
-1.5208e-05
-8.46879e-06
-3.67447e-05
4.5946e-05
-0.000112417
0.000148786
0.000157191
-2.27741e-06
0.000116293
8.9852e-05
-2.39252e-05
-5.92139e-05
6.9532e-05
-1.71598e-05
-5.23698e-05
-2.80772e-06
-1.94629e-05
2.73986e-05
0.000142541
-0.000127734
0.000179616
-0.000137615
7.03304e-05
-0.00012831
3.98327e-07
-1.18376e-06
2.29498e-05
-0.000135085
-5.81042e-05
3.98508e-05
1.834e-05
0.000121745
-1.07105e-05
-0.000162793
3.9996e-05
7.17508e-05
-7.39457e-05
5.97875e-06
7.16072e-05
9.18342e-05
-0.000160896
-0.000146581
8.88406e-05
4.35547e-05
-3.0689e-05
6.73958e-05
-7.72484e-05
-2.00727e-06
3.33183e-05
-0.00011828
8.9956e-05
-0.000196565
6.4514e-05
0.00013311
-4.43892e-05
-0.000133501
0.000107159
-8.75228e-06
0.000159813
-0.000129203
-2.74251e-05
1.50614e-05
4.19192e-05
0.000100039
4.18343e-05
0.000113009
-1.99985e-05
1.72922e-05
-7.65478e-05
6.19339e-05
8.86751e-05
2.02245e-05
-0.000143279
6.43344e-05
7.90455e-05
-7.47538e-05
-4.66501e-05
8.72306e-05
-7.01354e-05
-1.69888e-05
6.05544e-05
-3.30384e-05
-0.000134455
-1.6862e-05
0.000154538
0.000136763
-0.000136408
0.000195313
8.41443e-05
-7.5488e-05
8.0792e-05
6.77514e-06
-8.29736e-05
-2.73277e-06
-1.0794e-05
1.54619e-05
7.60529e-06
1.86551e-06
-8.07443e-06
-5.72886e-05
-0.000126403
3.15679e-05
-0.000124766
-7.84695e-05
7.72096e-05
-8.26102e-05
-0.000112633
5.75687e-06
2.78311e-05
-3.32319e-05
0.000145537
-0.000118911
-2.39136e-05
-1.69502e-05
0.000123608
0.000101746
-0.000169773
0.000166094
-0.000111155
-5.48051e-05
5.44992e-07
-1.74793e-06
3.42672e-05
-0.00015141
0.000118271
-4.42774e-05
3.65409e-05
4.74462e-05
1.66604e-05
-6.41061e-05
-0.000144292
0.000173583
-2.91927e-05
-0.000177688
9.34694e-06
8.35781e-06
-1.39149e-05
6.43996e-05
-5.36858e-05
0.00010493
-6.19245e-05
5.35183e-05
1.5134e-05
-0.000134853
-4.18315e-05
0.000176749
0.000154463
2.81934e-05
-0.000181778
-4.17881e-07
6.36887e-06
-6.64778e-08
2.91943e-06
6.87722e-05
-5.80669e-05
0.000159943
-0.000173221
1.46194e-05
1.73091e-05
-1.68367e-05
2.14725e-07
0.000147866
-0.000100181
-4.75943e-05
-0.000172186
0.000139985
-0.000108754
-2.77973e-05
4.05794e-06
-3.85519e-06
0.000167414
-3.30282e-05
-0.000134007
-0.000104905
8.86719e-05
0.00015048
-0.000126477
-2.09473e-05
0.000102752
9.97414e-06
-0.000106974
-0.000153256
2.42958e-05
0.000130636
-0.000201357
0.000124404
8.01376e-05
-0.000171874
5.30702e-05
0.000119653
-5.90545e-05
-0.000110685
0.000170015
-9.83526e-05
-3.36173e-05
0.00013402
0.000163827
-2.67724e-06
0.000183674
-0.000154644
-2.90142e-05
-1.56099e-05
6.30567e-05
-0.00014971
7.94972e-05
5.89434e-05
-4.68256e-05
7.66685e-05
-5.91612e-05
-1.74977e-05
-0.000133259
-4.98856e-05
0.000184177
5.5307e-06
7.60413e-05
-8.07541e-05
6.56337e-06
7.85382e-05
2.64767e-07
4.22139e-08
0.000183545
-2.95802e-05
-0.000153136
-0.000175187
4.29256e-05
4.82518e-06
1.27508e-06
-4.82355e-06
0.000186725
-0.000158865
-4.02509e-05
-0.000130749
0.000174893
-2.51571e-05
-0.000148332
-7.56751e-05
2.46923e-05
0.000158902
-6.04581e-05
1.9966e-07
-5.60544e-06
6.7344e-06
0.000143902
-0.000165732
2.35763e-05
0.000175658
-0.000138598
-3.70534e-05
0.000137729
1.53722e-05
-7.30291e-07
-1.40978e-05
-5.53549e-05
-6.80071e-05
8.24962e-05
-9.33211e-05
1.61015e-05
-0.000150087
5.18877e-05
2.38365e-05
-0.000136009
4.6942e-05
0.000108892
-0.000152331
7.61494e-05
-5.69916e-06
-6.72366e-05
-7.48999e-05
1.63282e-05
6.02241e-05
4.27604e-05
0.000149746
9.55392e-05
-0.00012298
2.75247e-05
-6.19756e-06
3.38995e-06
7.4449e-05
1.28673e-05
4.7106e-05
6.55596e-05
-0.000114491
5.11108e-05
-0.000185908
-4.14688e-05
-0.000153999
3.92106e-05
0.000139915
-0.000178695
1.12026e-05
-9.76106e-05
0.000179173
0.000156368
0.000152771
-2.22659e-05
-0.000128689
-8.0662e-05
8.98984e-05
-9.21624e-06
0.000116889
-3.80759e-05
0.000110048
6.53829e-05
-0.000174189
-3.19224e-05
0.000159114
-0.000127135
-9.61007e-06
2.89642e-06
-3.94711e-06
1.74942e-06
-5.78224e-05
-7.7782e-05
1.6567e-05
-6.31683e-07
-1.87996e-05
3.28424e-05
0.000122605
0.000218053
-6.73092e-05
-0.000149736
1.91655e-05
1.32019e-05
-9.17741e-06
4.3053e-05
-3.35859e-05
-7.51787e-05
1.38096e-07
7.91294e-05
-2.85666e-05
-8.3766e-05
-9.1375e-05
-1.23079e-05
4.48878e-05
4.22178e-05
9.17612e-05
-6.58157e-06
8.06469e-05
-1.15215e-06
-1.81883e-05
-3.03611e-06
0.000148396
7.24207e-05
-7.61692e-05
4.5623e-06
9.35561e-05
-0.000152365
8.02799e-05
6.55274e-05
-0.000104447
1.95278e-05
8.50478e-05
-3.74122e-05
-8.32829e-05
0.000114998
-9.40319e-05
0.000117443
-6.47526e-06
-2.89188e-06
9.82143e-06
-9.5329e-05
0.000145506
-3.15789e-07
0.000111075
-6.83824e-06
1.6082e-06
7.89977e-06
-0.00011036
-1.03956e-05
0.000123016
4.8224e-05
9.81304e-05
-0.000145916
-7.14619e-06
-3.63867e-05
6.58575e-05
-0.000160528
0.000157122
-0.000172271
1.6472e-05
0.000154087
-0.000167993
1.56245e-05
0.000170839
-0.000137894
-3.28216e-05
0.000127579
-0.000150271
2.60283e-05
8.72015e-05
-5.10118e-05
2.943e-06
-8.97043e-06
3.63601e-05
-0.000132689
7.65836e-05
-0.00020836
0.00013181
-0.000184756
-5.08291e-05
1.37158e-05
4.15895e-05
0.000134052
-4.44393e-05
-1.30281e-05
0.00020786
-6.36169e-05
-0.000141363
-0.000139486
-3.87975e-05
0.000178635
-2.03517e-05
5.93616e-05
0.000155364
-0.000106677
9.94837e-05
1.51855e-05
-2.99247e-06
2.7833e-06
6.41728e-07
0.000126734
-0.00014984
2.31966e-05
1.64769e-06
-0.000101383
-0.000127817
-2.37849e-05
-3.36289e-05
-0.000165995
7.08441e-05
6.72021e-05
0.000151836
0.000131484
-1.76193e-05
-0.000113831
-2.00887e-05
6.31278e-06
3.69764e-05
6.34372e-05
-9.65653e-05
0.000168391
-0.000140493
-2.74578e-05
3.75367e-05
-1.4704e-05
0.00011032
0.000147337
-0.000177016
3.04062e-05
3.30303e-05
-4.19183e-05
3.50972e-05
1.19236e-05
-4.70206e-05
0.000142813
-6.24233e-05
5.58683e-06
-8.8643e-07
-4.35831e-06
-1.05776e-05
-1.39454e-05
4.2571e-06
0.00010189
-6.44289e-05
3.37974e-05
-6.83951e-05
1.27469e-05
-7.36734e-05
0.000181414
-2.29703e-05
3.2139e-05
2.81813e-05
0.000124907
-3.53449e-05
-8.71982e-05
-0.000128461
5.49219e-05
-3.54611e-05
8.13929e-05
2.66467e-05
3.2308e-05
6.45624e-05
-2.59377e-06
1.15308e-05
6.46826e-06
-7.16333e-06
9.6005e-07
-1.05143e-05
0.000145072
-0.000124561
-9.80929e-05
0.000164104
0.000154985
-0.000149681
7.79692e-05
-0.000151301
-6.76855e-06
-1.82854e-05
3.00001e-05
1.709e-05
7.36859e-05
-1.00494e-05
0.000136792
0.000146654
-0.000113069
-2.99974e-05
5.67592e-05
1.99182e-05
0.000105186
2.91991e-06
-0.000105713
4.52466e-05
-0.000162457
0.000117691
-9.32829e-05
7.53789e-05
1.09025e-05
9.62248e-05
0.000103528
-6.26908e-05
3.78843e-05
8.92667e-05
-6.95934e-05
-7.35736e-05
-1.36213e-05
0.000161573
0.000101768
-0.000174433
7.29556e-05
6.02944e-05
-0.000146815
8.67233e-05
-0.000174257