/*--------------------------------*- C++ -*----------------------------------*\
| =========                 |                                                 |
| \\      /  F ield         | OpenFOAM: The Open Source CFD Toolbox           |
|  \\    /   O peration     | Version:  v2012                                 |
|   \\  /    A nd           | Website:  www.openfoam.com                      |
|    \\/     M anipulation  |                                                 |
\*---------------------------------------------------------------------------*/
FoamFile
{
    version     2.0;
    format      ascii;
    class       volScalarField;
    location    "250";
    object      omega;
}
// * * * * * * * * * * * * * * * * * * * * * * * * * * * * * * * * * * * * * //

dimensions      [0 0 -1 0 0 0 0];


internalField   nonuniform List<scalar> 
18758
(
0.0269714
0.294478
0.0216324
0.0266115
0.0256687
0.0204898
0.0212805
0.0226431
0.0251799
0.0248456
0.195655
0.463406
0.0669589
0.022569
0.0212604
0.021142
0.484487
0.0195408
0.0212513
0.0233811
0.550728
2.13705
0.0206093
0.0205341
3.2337
1.29912
1.05272
0.10208
0.0722493
0.349374
0.520182
1.04588
0.0225331
4.09272
0.0260517
0.347979
0.0773906
0.0256661
0.444081
0.0198858
0.335265
0.025774
0.309453
0.0214834
0.0214194
0.570362
0.0251057
0.0736536
2.24695
0.0253374
0.197607
3.18729
0.0251871
0.0237617
0.127408
0.0693769
0.0205494
0.0232226
0.0672449
0.0205065
0.0216302
0.0214035
1.40356
0.365229
0.0216502
4.22035
0.0214659
0.0198582
0.103071
0.0195596
3.14756
2.77299
0.0212126
0.0253267
0.0710794
0.649722
1.09829
0.508722
0.0253541
0.333979
0.0762121
0.366753
0.498768
0.0410089
0.0222267
0.103739
0.0247997
0.0258731
1.40268
0.102494
2.60395
0.0223447
0.0593637
2.21533
0.0212025
0.0207438
0.0196804
0.0511268
0.51822
0.0210957
0.650059
0.0267505
0.019851
0.0207403
4.19814
0.544901
0.0734989
2.74
1.2759
0.552153
0.0211664
0.392902
0.02539
0.0213562
0.0267562
0.189822
0.0496972
0.0203533
0.225968
0.0227783
0.0212561
1.10631
0.0223075
0.0204759
3.0371
0.0238084
0.0211283
0.0204778
0.116752
3.96352
0.0682645
0.0222728
0.027229
3.30539
0.0199246
0.0213497
0.88273
0.0221166
0.128192
0.0747835
0.0265781
0.364153
0.0420173
1.21881
3.12566
0.0455032
4.13739
0.104374
0.221878
0.47823
4.43742
2.83223
0.0215811
0.026053
0.338341
2.07193
0.0589139
0.120436
0.043373
0.271828
2.60351
0.0205752
2.21281
4.10596
0.565564
0.020587
0.0205662
2.75407
4.03765
0.42566
2.46396
0.0217578
0.0793278
0.289953
1.33968
0.0210546
0.0212011
0.334099
3.97732
0.0219921
0.0197844
0.0237199
0.122292
0.0224526
0.950325
0.021358
0.353579
0.0299352
2.18815
1.19982
2.7478
0.0213484
0.0686771
1.15189
0.0196889
0.0223635
0.144773
0.0215703
2.18313
0.0207377
0.0218376
0.135655
1.34318
0.0211402
0.021169
2.22462
0.0209384
0.0266316
4.41633
3.43765
0.0212085
0.0607163
0.0221202
0.0221182
0.0228172
0.0196998
0.0214096
0.0597739
0.0201669
0.336031
1.23455
0.0208441
0.0410215
0.136111
1.42839
0.305322
0.079524
0.102092
2.65097
0.0209169
1.13482
0.045319
1.38281
0.0215646
0.0209848
0.0209108
0.0823111
2.3775
0.163476
0.0218621
0.0211785
0.0752808
0.111782
0.0214253
0.73519
0.193704
0.0209963
0.0206247
0.0211178
0.0210949
2.424
0.0213189
0.287527
0.0210076
0.0210213
0.19446
0.0205481
3.00071
0.0212612
0.484367
0.0255147
0.0204962
0.0210079
0.0658015
1.67463
1.68097
0.0205059
0.123576
0.0215955
0.021396
0.233134
3.59687
0.0213679
0.0208458
0.0210965
0.0226867
0.0259187
0.0200429
0.0222846
0.0225593
0.020625
0.0222932
0.021213
3.99269
0.021271
0.0208318
0.0195298
0.107954
0.0207223
0.0207278
0.0216074
0.0220576
0.0205217
0.0208926
0.021298
0.0219668
0.307922
0.0228463
0.0207242
3.14072
0.0238711
0.0208884
0.0209074
1.02748
0.0631536
0.019779
0.0349007
0.539705
0.021537
0.059481
0.0212162
1.74105
0.138134
0.0828832
0.0710189
4.1079
0.0198277
1.32351
0.155838
0.0214719
0.0792532
0.0407191
0.3981
0.0209658
0.0198345
3.66839
0.317766
0.0207257
2.86207
0.0635159
0.0284434
3.02035
0.0209602
0.0206153
0.0212455
0.0213384
0.0219655
0.0225262
0.0227028
0.0209889
0.0219089
0.0218628
1.66738
1.0906
0.0219326
1.25286
0.520532
0.0207133
0.0318141
0.0667065
2.40062
0.320878
0.142948
0.0213585
2.66825
0.226425
0.0317771
0.0218586
0.0281277
0.0221484
0.0213463
0.155001
1.10412
0.300725
0.124337
1.04172
0.0209953
0.0253742
0.0239569
0.051876
2.31506
0.181217
1.41499
0.128607
0.330473
0.149295
0.0210964
4.30202
0.108866
0.107827
0.332955
0.0210357
0.020498
1.86304
0.326025
0.39802
0.239478
2.9428
0.0218953
0.457922
0.420528
0.0211519
0.0224745
0.0227509
0.0224647
0.0212551
0.0222403
0.0214193
0.022717
0.0214231
0.0211531
0.0299691
0.263878
0.0274337
0.271494
0.29479
3.43518
0.230859
0.10552
0.0216398
0.020591
0.315832
0.0224647
0.0218826
1.06277
0.0505967
0.07193
0.0205821
1.66548
0.021367
0.0239624
0.0197412
2.26583
1.68867
0.352099
0.021264
2.78764
0.0579773
0.0213817
0.0222874
0.0212469
1.43957
0.021301
0.0208584
0.666403
0.027723
0.0219082
0.0211906
0.0225288
0.0239612
0.466833
0.0702019
0.0216642
4.27818
0.0197342
0.0227776
0.0974728
0.0214047
0.46838
0.0216994
0.0241156
0.0215714
0.169203
0.022469
0.0214135
2.53067
0.0736498
0.0195335
0.0253776
0.0229942
0.0211422
0.021058
0.022098
1.64298
2.29817
0.021656
0.0342503
1.01285
0.273141
0.408489
0.191416
0.410087
0.0202857
0.0991917
0.0681171
0.0281224
0.0224774
0.347138
0.038944
0.0261557
0.0206427
0.0212782
0.0207249
0.0214033
0.0207187
0.021421
0.427541
0.0217985
0.0196984
0.0566714
0.0221701
0.0216094
0.0198872
0.0227891
0.0393953
0.560925
0.0209647
0.168295
0.0207563
0.0276292
0.114972
2.58673
0.131578
0.0212566
0.0213695
2.37248
3.06591
0.031853
0.0205643
0.0780526
4.03244
0.0195255
0.0206075
2.53412
0.0228605
0.0776558
0.0306602
0.0227594
0.0341848
0.02063
0.0210123
0.0222599
0.0209373
0.0208874
0.0216306
0.497774
0.0197899
0.069306
1.04508
0.019531
0.0197894
0.0219923
0.0255555
0.0264272
0.0738953
0.0211052
1.36129
0.0283057
0.0280261
0.0207564
0.0209934
0.0212789
0.0216745
0.0216624
3.09603
1.25061
0.0206216
0.02087
0.022009
2.75294
0.0197513
0.0197171
0.0214365
0.0197089
0.0207984
0.0207327
0.0223987
0.0211388
0.070065
0.021103
0.0199916
0.095871
2.7254
0.0250454
0.0211798
0.0210831
0.021731
0.0211863
0.022408
0.0559609
0.108449
0.0220261
0.803653
0.0210702
0.0326175
0.0212283
0.0207535
0.0461623
0.0195654
0.0209967
0.821283
0.0215573
0.0224206
0.10248
0.0210687
0.021311
2.22279
0.0203341
0.610898
0.0429425
0.0209736
0.0216104
0.0381626
0.0228378
0.026485
0.0210392
0.330575
0.809993
0.416493
0.0206501
3.22079
0.0196833
0.0212312
0.0211187
0.0243887
1.0465
0.109166
0.0212408
0.0223792
0.022661
1.64133
0.0731803
0.0210564
0.0419929
0.0239865
2.4501
0.0270648
0.034228
0.0207482
0.0241889
0.0512048
0.0209811
0.0207497
0.0197568
0.0206807
0.0258005
0.0604938
0.285175
0.821233
0.0342435
0.0234035
0.0211224
0.0205797
0.0730858
2.83554
0.0199231
0.0416966
2.94574
3.09478
0.0214198
0.0212569
0.0436576
0.383948
0.0196712
0.0662497
0.0211915
0.0225392
0.029097
0.021459
0.0216698
0.0217316
0.0206645
0.0220016
0.0645498
0.0459063
0.391031
0.0220639
0.0208139
0.209086
0.0197393
0.231979
0.491448
0.0212027
0.967289
0.0225781
0.0212725
0.971471
0.302537
0.304175
1.66247
0.0226947
1.03045
0.0198016
4.35771
3.39431
0.0305609
0.0211032
0.394326
0.0238087
0.0539867
0.858511
0.319635
0.0215478
0.516558
0.020801
0.0434889
0.0777667
0.0207586
0.0295581
1.14042
0.561843
0.02475
0.022492
0.0196995
0.0218601
0.0222591
0.0296026
0.0866713
0.0208544
0.199774
0.0232272
0.0213762
0.0256189
0.019749
0.128854
0.0211994
0.0206848
0.657316
0.0206053
0.0223693
0.332168
0.0586933
0.0605549
0.0213894
0.0213668
0.0516973
0.0213549
0.381549
0.0236928
0.0229946
0.0222271
0.0213407
0.0196847
2.70913
0.0197486
2.32673
0.153483
0.0220473
3.06104
0.0205501
0.0268042
0.0245321
1.53372
0.0235518
0.0700035
0.362789
0.0212511
0.363021
0.0202909
0.57655
0.0213786
0.0217523
3.5447
0.314049
0.0211808
0.0215314
0.0225841
0.0205406
0.0213832
0.313673
2.42841
0.0207662
0.0205297
0.0203022
0.49483
0.107334
0.0429544
0.0206543
0.0440427
0.0217463
0.0213912
0.0279092
0.511455
0.0210595
0.0427051
0.0921057
0.0208356
0.0494453
0.021388
0.0270492
0.0210596
0.0203889
0.0254802
0.0214074
0.0527176
0.0213906
3.58806
0.0214847
0.02384
0.0705867
0.355474
0.0424178
0.0207229
0.0213297
0.351845
0.0483687
0.0482088
0.0208232
0.0210835
0.025386
2.19662
0.350972
0.020719
0.0211667
0.0219338
0.0215045
0.0219037
0.0211708
0.021141
0.415143
0.021192
0.0213182
0.352741
0.0206381
0.209778
0.0843513
1.64453
0.317894
0.374331
2.51239
0.0211791
0.0210957
0.0227772
0.0207412
0.0210617
0.020558
0.0207414
0.0218278
0.335276
0.114677
0.0847929
0.0218859
0.0210571
0.028871
0.0295881
0.0581409
0.021435
0.0221856
0.0203621
2.3806
1.37035
0.744906
0.0215594
0.079402
0.107939
0.0451677
2.20171
0.669553
0.0222264
0.0215943
0.0200591
3.975
0.0215185
0.0198737
0.0703398
0.672682
0.0211603
0.289244
0.187477
0.0212261
0.0211329
0.0212411
0.0211696
0.0212675
0.0227556
0.0291512
0.0212494
0.0215293
0.819527
2.46409
0.0212403
0.362191
0.350398
0.0220466
0.0213903
0.0207942
0.0202752
0.0226169
0.0220412
0.0211449
0.0216716
0.0225739
0.0215248
3.54463
0.0261436
0.0209776
0.0211818
0.540705
0.0215595
0.0198631
1.74642
0.0210745
0.0329698
0.0255043
0.0213283
0.0207996
0.0205147
0.0236065
0.0373838
0.0211338
0.381865
0.06047
0.0964816
0.779016
0.0218857
0.050613
0.0198009
0.0807106
0.0220768
0.0210994
0.131937
0.202388
0.0216845
1.46531
1.83096
0.0204308
0.0283587
0.0198638
0.0219208
0.026226
0.0222905
0.0210899
0.0359103
0.0210283
0.020833
0.461848
0.0208127
0.0210589
0.0207986
3.60386
0.0212135
0.0212814
0.0287698
1.51162
0.397193
0.180866
0.513931
0.0210264
0.0197263
0.0213376
0.341886
0.0218085
0.0209131
0.0230583
0.0203226
0.333875
0.0215512
0.021513
1.47663
0.0211409
0.0578741
0.677767
0.0197235
0.0212422
1.22786
0.022641
3.57949
0.655966
0.0205776
0.0214063
0.44308
0.0206769
0.0231247
0.395753
0.0201031
0.549489
0.0212275
0.0211431
0.0212578
0.0296218
0.0223697
0.570409
0.0224514
0.0209784
0.250326
0.365543
0.0380094
0.0254498
0.032667
2.303
1.51025
0.0196744
2.33684
0.0214986
2.63603
0.823445
0.0207789
0.0234379
0.0215673
0.389547
0.0207669
1.32005
0.0208105
1.43497
0.114037
0.0206406
0.0196909
0.021187
1.47237
0.250284
0.0211898
0.402698
0.0215031
0.0210585
0.560405
0.021283
1.00493
0.0208108
0.0232287
0.0209498
0.0208137
0.0209882
0.0207703
0.0774843
0.0261523
0.0293625
0.0315723
0.0217536
0.0212247
0.374199
0.0212548
0.577548
0.02154
0.493395
0.0256144
0.328972
0.0205245
0.0206992
0.0210334
2.60735
0.0210517
0.471853
0.0561319
0.0213938
0.0253384
0.0212506
0.0206196
0.0229167
0.0208203
0.42233
0.0211986
0.0223188
0.0211986
0.0226445
1.70174
0.514082
0.0213592
0.0208112
0.0213796
0.0216831
0.0211136
0.0227398
0.0217925
0.0211782
0.0203048
0.0204636
0.18685
0.0763981
0.0213817
0.0203133
0.16428
0.0220577
1.90266
1.29748
0.0217696
2.29536
0.0222317
0.0205356
0.0210369
0.0229048
0.0304533
0.0203823
0.032175
0.424146
0.0376571
0.151394
4.25673
3.20215
0.0271482
0.0215137
0.0214209
0.392513
0.0203021
0.0214231
0.0290179
0.038793
0.0210705
0.0206684
2.75839
0.0234113
0.0219777
0.0220585
0.0232948
0.0385257
0.0214136
0.0237106
0.0212104
0.02795
0.0222555
0.0216818
0.0216522
0.57285
0.0217089
0.0212348
0.385222
0.0196904
0.0209865
0.0213309
0.0221125
0.0215665
0.756581
0.102247
0.3857
0.374407
0.509033
0.320575
0.021819
0.350846
0.393831
0.0213514
0.0219921
0.0215674
0.0214228
0.0221741
0.0219789
0.083879
0.103094
0.0214062
0.0202567
0.0372202
0.0222347
0.32573
0.0209851
0.0218462
0.02107
0.175469
0.322041
0.0289186
3.63025
0.0211114
0.0210812
0.0732001
0.0253675
0.0210656
0.0985068
0.0217657
0.0233718
0.393273
0.0821
0.02779
0.0215039
0.0216258
0.0217673
0.0206408
0.38711
0.0742945
2.45102
0.0644805
1.00497
0.0217215
2.20921
2.71389
4.24298
0.0971312
2.03065
0.0251619
0.131964
0.0991651
0.0290882
0.019542
0.0211639
0.0213857
0.0353707
0.0208101
0.0212528
0.0335786
2.50236
1.69414
0.350218
0.0721987
0.423789
0.0259352
0.0230197
0.0212449
2.60443
0.17298
0.0205931
0.0292786
0.388364
2.59328
3.01346
0.0338497
0.0525713
0.0197362
3.54369
0.0217039
0.395382
0.299712
0.0271034
0.113523
0.102434
0.021396
0.0212234
0.560962
0.0554955
0.184396
0.0217245
0.0212664
0.0230741
0.428895
0.0238886
0.320995
0.0217491
0.366565
0.0898131
0.0240871
0.0756436
0.0752699
3.1668
0.0197353
0.0306922
2.62468
0.0274009
0.0211566
0.670422
0.567279
0.021135
0.0212516
0.26832
0.0221469
0.0222031
3.0582
0.0466635
0.0214344
0.0280636
0.145677
0.0293252
0.0227166
0.0226415
0.253807
0.0240156
0.0207312
0.0209853
0.0731585
0.0207683
0.276299
0.0204411
0.0206652
0.376096
0.0215965
0.0211147
0.0345511
0.0196844
0.023164
0.0204832
0.0210761
0.0214887
0.0744377
0.0212726
0.326224
0.129798
0.470287
3.45713
0.0237295
0.0205662
0.0207716
2.50854
0.025523
0.0211272
0.31727
0.0317586
1.87892
0.0201229
0.0204289
0.0205783
0.0208003
0.0212104
0.0198971
0.0219008
0.0221311
0.021295
0.108406
0.0264219
0.334328
0.0221234
0.0204864
0.0239262
4.34208
2.91808
0.520711
3.7063
0.447253
0.0997408
2.75439
0.022141
0.032099
0.0431387
2.70719
0.0209725
0.0834995
0.126296
0.152425
0.0211809
0.505664
0.0210543
0.0212392
0.0210596
0.0292797
0.379652
0.461593
0.0215394
0.0195809
0.0204339
0.0201478
0.0276025
0.0213408
2.6011
0.0626928
0.0297613
0.0218032
0.0211435
0.0198615
2.97228
0.731628
0.0211376
0.0209054
1.30685
0.0201345
0.0213385
0.02031
0.0211782
0.0214741
0.0213258
0.0205031
0.0897006
0.0229539
0.162388
0.0239157
0.021615
0.228031
0.0215347
3.83773
0.0216227
0.0467532
0.138068
0.28845
0.0309967
0.0874611
3.20831
0.0224327
0.0299669
0.0222865
0.0211678
0.0204821
0.0209372
0.115109
0.0367706
0.023741
0.0934072
0.0204634
0.0213382
0.0357496
0.686359
0.0196707
0.0406341
0.59724
0.0983242
1.09364
0.0218564
0.0214872
3.15148
0.0266106
0.0208523
0.0211274
0.105449
0.0205494
0.0206427
1.2878
0.0575974
0.0222554
0.0218962
0.0216063
3.0511
0.023586
3.41477
0.594083
0.021221
0.0210065
0.166645
0.0322268
0.0236789
0.0222211
0.0248362
0.0238878
0.0208226
0.023198
0.151516
0.0399301
4.24287
0.375772
0.0335158
0.423671
0.315013
0.0206911
0.512274
0.787024
0.0225484
4.30852
0.0215042
0.168528
0.0770804
0.497501
0.0245236
0.0392327
0.0279833
0.324349
0.0210552
0.0198732
3.7006
0.0227439
0.0211414
0.021179
0.0216431
0.0198496
0.0218614
0.0209836
0.0211699
3.55432
1.1595
0.0210882
0.0217077
0.0772354
0.377101
0.0197109
0.1803
0.0579121
0.0442175
0.0213754
0.0209758
2.99742
0.0216649
0.0542126
0.083794
0.0206482
0.023414
3.3563
0.0209169
0.408279
1.0232
2.76391
0.0218176
0.0209287
0.0212905
0.0211838
0.0211918
0.334538
1.46356
0.0203524
0.0583151
3.23009
0.0219362
0.0215202
0.0211947
0.454894
3.02392
0.0346292
0.0323086
0.0229446
3.44893
0.361758
0.0205191
0.0210644
0.0258363
0.0337493
0.329699
0.316194
0.0207049
0.0785958
0.36095
0.022252
0.020864
0.021538
0.0229982
0.0210127
0.0219135
0.0206298
0.0361111
0.245988
0.0213342
0.0214991
0.0319957
0.0206605
0.0210767
0.0217581
0.377102
0.0205937
0.0226246
2.50626
0.155396
0.114576
0.0730675
0.0218493
0.0215123
0.0220101
0.020409
0.0210712
0.0218669
0.0626067
0.0276695
0.0221178
0.0270309
0.020347
1.34072
0.111773
0.0212064
0.296874
0.0207503
0.0225331
0.162029
2.5576
0.0236821
0.0233272
0.0234544
0.0351854
0.0197212
2.60099
4.31108
0.0206231
0.0757577
0.447371
0.0213391
0.0222839
0.376075
0.0685776
0.0215461
0.431978
0.0241091
0.0211775
0.742011
0.715296
0.114115
0.0207666
0.99184
0.0299961
0.0198399
0.0500584
0.0289775
0.0215366
0.0436493
0.137056
0.429937
0.0346531
0.0369571
0.020608
3.97694
0.33053
0.173534
0.219498
0.0213421
0.654206
0.0213443
0.0210195
0.0449054
0.0219393
0.0526918
0.366084
0.0215774
3.84418
0.764438
2.30213
0.0277118
0.0662974
0.0196739
0.0217688
0.023134
0.0196494
1.42121
0.325664
3.65023
0.0486192
0.107734
0.427658
2.47006
0.0211895
0.0223788
0.8119
0.0587147
0.0213482
0.0211321
0.227264
0.0293962
0.0261312
0.021234
0.0214647
0.0578436
0.0211379
0.0889665
0.348074
0.0198437
2.85318
0.0202434
2.20689
0.202885
3.3317
0.0222626
0.559283
0.0214403
0.0210678
0.0221488
2.81578
0.0360147
0.47222
0.0215077
0.0211303
0.377683
4.00206
0.0215707
0.109704
0.219785
4.3779
1.28026
0.0208576
0.0213701
0.411479
0.0196649
0.020315
0.0239264
0.0212174
0.0214689
0.0208283
0.0211217
0.0238637
0.0211653
0.0285175
0.0268675
0.0209016
1.70841
2.69294
0.0243167
0.0202727
0.0212836
0.0306964
0.0213479
0.0212387
0.0213354
0.0923456
0.0211202
0.0225695
0.0227712
0.0359666
0.420329
0.0209082
0.0433038
0.0379658
0.025921
0.0840989
0.0388712
0.0207341
0.0211893
0.0284168
0.0270342
0.0229446
0.672165
3.53028
0.0212894
1.94941
0.0219274
0.0698858
0.714279
0.548526
2.2486
0.0226338
0.0210706
1.00116
0.0227376
1.02961
0.0263442
0.54263
2.25053
0.0206579
0.0391054
0.0210666
0.0334707
0.08569
2.2376
0.0209959
0.0213367
0.0934083
0.0216744
0.704455
0.0206254
0.432129
0.35076
0.0437608
3.60722
2.77071
0.0207629
0.0208952
0.021335
0.103758
0.336488
0.0217362
0.0225469
0.0217373
0.0202822
0.0237621
0.0207841
0.020396
0.0631942
0.0217029
0.0203653
0.0236684
2.10546
0.482808
2.81855
0.021523
0.0524193
0.0227855
0.0249289
0.102693
0.539274
2.79955
0.0202776
0.038921
0.0197081
0.034805
0.0274877
0.0545596
0.468845
0.021748
0.0845767
0.0202665
0.354992
0.280685
0.020396
0.022297
0.0220625
0.0221012
3.30688
0.0213171
0.0213482
0.0219521
0.0216817
0.0204818
0.022335
0.0212942
0.02171
0.0213438
0.0211047
0.990729
0.521708
3.69787
0.0200714
0.0197188
0.0197774
0.0201344
0.0198923
0.0322491
0.0198324
0.0206081
0.0212446
0.0208509
0.0288185
0.021253
0.206498
2.46173
0.0389375
0.574386
0.0215196
0.488647
0.0364841
0.223716
0.0205606
0.723705
0.0220355
0.02134
0.0213578
0.0559635
0.0948764
0.0209115
0.0312423
0.0265817
0.0211669
0.0353333
0.457159
0.0283281
0.0208925
0.0228305
0.989473
0.0226177
0.32754
0.0209183
0.0219551
0.0213387
0.0224572
0.0288668
0.376496
0.029818
0.0203628
1.7304
0.0348224
0.0286852
0.0210555
0.0237791
4.04532
0.020679
0.0217385
0.0272567
1.45672
0.0198223
0.0210203
0.0204505
0.0298766
0.0214219
0.567404
0.0213613
0.0249814
0.0281497
3.49384
0.0206324
0.0204184
0.0197184
0.0303293
0.0202661
1.87638
0.429936
0.0289475
0.428177
0.0212735
1.84062
0.0213842
0.0205795
0.0342804
0.0565538
0.159695
0.319733
0.2519
0.474384
0.0260691
0.0343685
0.0220933
0.0593684
0.0213471
0.021926
0.140687
0.0216506
0.429666
0.2832
0.271019
0.403862
0.323795
0.7118
0.524402
0.0747119
0.0220015
0.0320678
0.0213433
0.0203754
0.0210332
3.18241
3.09919
0.421871
0.024471
0.0234751
0.43252
0.0209297
0.0316969
0.0204167
0.0367661
0.0211978
0.0199121
0.0220774
0.0399625
1.95117
0.0279608
0.0279161
0.0204246
0.0285704
0.309682
0.0202716
0.062609
3.87033
0.0196595
0.0554104
0.0205661
2.94796
0.021616
4.04732
0.0217826
0.0214912
0.0250239
0.0326975
1.56834
0.0319317
0.361813
0.0225516
0.0213343
0.021354
0.0215122
0.0203519
0.0213009
1.61747
3.00349
0.0272747
0.021057
0.024708
0.0229464
0.0215609
0.0214968
0.0855956
0.429759
0.35874
0.0211982
0.43176
0.0205546
0.0605718
0.022525
0.039591
0.219656
0.422893
0.38547
0.0199371
0.021304
0.0209441
0.021154
0.0213404
0.0211317
2.54893
0.0214796
0.0216218
0.0217781
0.0327089
0.0211286
3.19596
2.80343
0.326798
0.0213663
0.301105
0.0203407
0.439315
1.43187
0.0221224
0.32527
0.0236786
0.0617025
0.02071
0.0215972
0.0276215
0.0480213
0.103891
0.381522
0.147421
0.127177
0.0308207
0.022089
0.0211961
0.770959
0.0231966
0.818164
0.0219646
3.79831
0.382447
0.37845
0.0222196
0.154029
0.0234421
0.0211129
0.0201555
0.022597
0.0654736
0.0212397
0.450284
0.0391466
0.107451
0.0210831
0.0246052
0.243555
0.390305
0.424773
0.0245022
0.0233022
3.19125
0.0784777
0.0216891
0.0439776
0.373887
0.0630075
0.179519
0.0250936
0.0261954
0.201492
0.0198757
0.288605
0.0477457
0.0213297
0.0910834
0.386365
1.68291
0.0229369
0.114587
0.0288938
0.0204184
0.0529991
0.0217902
0.19263
0.020395
2.24839
2.60769
0.708525
0.352286
0.0988896
0.560426
0.0239408
0.0286281
0.379057
2.73257
0.022427
0.02186
0.021018
0.0249217
0.0199105
0.0210515
0.462026
0.0210437
0.0206043
0.0285402
0.0219141
0.0198325
0.0391068
0.96929
0.0570256
0.0212827
0.0213482
0.0282339
0.0221689
0.0210439
0.0209474
0.0204001
0.120603
0.0250962
0.0502801
0.025196
0.0212109
0.019897
0.214809
0.143096
0.0714443
0.0242774
0.0216377
0.0355863
0.0209399
0.0268669
1.1385
0.868851
0.0262637
0.0231452
0.0202845
0.0271812
0.505334
0.349271
0.435868
0.0247513
0.02034
0.0205919
0.0242403
0.148493
2.23532
0.0204534
0.425835
0.0198944
0.0210499
0.0883553
0.0208588
0.744181
0.0916678
0.418136
0.0198276
0.0314626
0.040265
3.13721
0.0203181
0.0214446
0.163238
0.517154
1.1152
0.308793
2.38411
0.0221529
0.180447
0.0248941
0.0290436
3.04234
0.0227249
0.0209339
0.0215405
0.0200902
0.120592
3.82165
0.0241157
4.38569
0.0201415
0.0209445
0.0214941
0.12386
0.0282867
4.28104
0.0213895
0.0218241
0.0329434
1.18258
0.0203303
0.431636
0.0206939
0.022
2.33312
0.0208627
1.49571
0.767338
0.515499
4.33089
0.0212436
0.0233813
0.0223733
2.60553
0.0315645
0.0213702
4.06068
0.0475839
0.0196509
0.0225109
0.430574
0.0204342
3.13374
2.49439
0.0245547
0.0197264
0.0235825
0.0245527
3.69305
0.0205666
0.0303556
0.0221086
1.66089
2.40384
0.0212275
0.0201906
0.147092
0.024755
0.0214804
0.0210305
0.0208878
0.0536156
0.0228524
1.17861
0.0217736
0.0216501
0.020799
0.0223911
0.0225425
0.0224635
0.794067
0.389051
0.395774
0.0217644
0.0203197
0.133276
0.0252677
0.0628366
0.323694
0.101673
0.383769
2.558
0.0203094
0.463324
0.059363
0.0222004
0.0208297
0.0213928
0.0213772
1.50381
0.2836
0.0213488
4.28421
0.887763
2.59136
0.0197716
0.0205861
1.43461
0.0208926
0.0214512
0.0239174
0.0210239
0.28906
0.0226257
3.06005
0.423749
0.020805
0.479288
0.0741552
1.04471
0.268845
0.0212787
0.0236009
0.0333813
3.95405
0.234874
0.0577826
0.0216768
0.021394
0.0844734
0.0204342
0.811633
0.807164
0.0209285
0.140511
0.0203871
2.74022
0.0215362
0.332036
0.0221119
1.01791
0.183196
2.57549
4.11162
0.0200776
1.35339
2.32637
0.0218022
2.21001
0.0217481
0.019973
0.0212031
0.026373
0.0233857
0.0215139
0.0209817
0.0806413
0.0409067
0.0474605
4.35969
0.0570269
0.0264233
0.0220102
0.0615484
0.0201766
0.0914956
0.918802
1.46287
0.433441
0.0222946
0.0232936
0.022186
0.0345749
0.0226425
0.0210657
3.2257
1.00338
2.61981
0.0214621
0.0215261
0.0444798
1.19751
0.0217694
0.0204127
0.0221767
0.0223528
0.0401569
0.0212502
0.435331
0.0216859
2.95761
0.0205746
0.0717371
0.905595
0.301444
0.0200826
0.0877526
0.0213506
0.0203963
0.0721398
0.969518
0.0209994
0.0220248
2.55248
0.0212879
0.0582317
0.29293
0.025198
0.726563
0.0214335
1.09743
0.0286656
0.274134
0.0203095
0.0206496
3.63374
0.0208195
0.32003
0.0236835
0.0285799
2.89319
0.0221846
0.0213929
0.0220491
0.0210331
1.01258
2.26221
0.0204006
0.43487
0.0468827
0.187281
0.0212077
0.0690611
0.1383
0.0263801
0.0283362
0.0213603
4.22762
0.0199991
2.41219
0.0202991
0.0206204
0.023366
0.0215482
0.0206687
0.0700401
0.0230159
0.0210073
0.289115
0.0204354
0.0463208
0.0252195
0.386337
0.0300035
0.020611
0.030397
0.020972
0.0209466
0.0235042
2.2341
0.192433
0.298505
3.63929
0.0203863
0.0211151
0.0212349
0.0209016
0.0202239
0.599016
0.0198468
0.0231569
0.18238
0.0220258
0.21293
0.021478
0.0203917
2.31241
1.55182
0.0215639
0.0448324
0.0239564
0.214532
0.0210542
0.0224871
0.652179
0.0214206
0.15002
0.167579
0.0220439
0.0220834
3.80639
0.0235681
0.0566302
1.78096
0.741976
0.0232
0.022294
0.034562
3.80791
0.0218063
0.817325
0.62673
1.04225
2.32605
0.0204554
0.0213636
0.0211602
0.165071
0.490052
0.213037
3.11935
0.0200663
1.31074
0.0204806
4.25403
0.021195
0.0386889
0.101621
0.0219425
0.021903
0.102304
0.0249023
0.0217037
0.0219268
0.0658483
0.0230397
0.0209231
0.991886
0.0217389
0.0217598
0.0211
0.259136
0.026371
0.384255
0.0274723
0.0228871
2.41874
0.0242645
0.0919012
0.020382
0.0211705
3.97627
2.9669
0.515756
0.0214688
0.0233698
4.38449
0.0940946
0.0922888
0.117938
0.33871
0.62792
0.0203702
0.801461
0.0206277
0.0619415
0.109206
0.0928992
0.093267
0.0221787
2.20227
0.0708542
0.376755
0.033599
0.0210539
0.0213376
0.0213126
0.328465
0.0205117
0.206845
0.0666913
0.433996
0.0202258
2.69538
3.94805
0.328818
0.369994
0.0221414
0.0216682
0.0210723
0.0250497
0.0213736
0.0240712
4.15057
0.0211855
0.0222127
3.01336
0.328989
0.330194
0.0246436
0.0301978
0.0207771
2.46651
0.0219989
3.51002
0.0415201
0.0804672
0.0280647
0.0914347
1.36407
0.0212756
0.0211805
3.8846
0.21272
0.15858
0.132195
0.0456648
0.0208089
0.0858249
0.0214154
0.0639284
0.0213799
0.0225527
0.364225
0.0219953
0.0910813
0.020551
4.02083
0.279746
0.0246578
0.0287904
2.21244
0.0254172
0.0202894
2.24796
3.99259
2.54248
0.0208892
0.0217164
1.04885
4.24575
4.07385
0.02148
0.0226216
0.0215714
0.0255124
0.0216994
0.020663
0.328996
0.0209328
3.11428
0.0230232
0.101478
0.0200807
4.2878
0.113468
0.0963992
3.23702
0.517933
0.0206142
0.0774046
1.59032
0.0208471
0.0216695
0.021326
2.3006
3.80304
0.0214745
3.0451
0.0389976
0.0212347
2.27756
0.0227767
0.0691423
2.39209
2.18151
0.0211518
2.43207
0.0230169
0.0202545
2.90709
0.0443461
0.379697
3.1135
0.0300534
3.28212
0.252848
0.0259624
0.0992273
3.95488
2.92868
0.0220546
0.0200339
0.0211134
0.0224115
0.320324
0.437
3.06058
0.562513
0.0244618
0.0200221
0.0209062
0.0234064
0.332525
0.0211955
0.434628
0.288402
0.020374
0.022189
2.98122
0.0620888
0.30579
1.60942
0.0213277
3.57133
0.38549
0.265254
0.0224705
0.024014
0.132178
0.0213233
0.0226088
0.0944392
0.0233521
0.090978
2.22093
0.0213919
0.0971509
1.40219
0.0507532
0.0374703
0.331515
0.265045
3.54331
0.0213563
0.821283
3.88425
0.0428081
0.0220448
0.0205241
0.0217188
0.0214524
0.561412
0.022416
3.02114
0.0224345
0.0212366
2.72904
1.41767
0.0202798
0.0211237
0.427914
0.438153
0.0213787
0.0204698
0.0255345
0.0254003
0.183673
0.055548
0.0205513
0.0924173
0.0219623
0.424286
0.134535
0.440778
0.0212619
0.0357981
2.50164
0.431265
0.0219562
0.224991
0.427007
1.96781
0.0202379
0.0224439
2.62501
0.127674
0.0558757
3.03042
0.0214196
0.0673847
0.0226196
0.0553097
0.0713801
0.822275
0.129001
0.0229745
0.0209425
0.0310978
0.379242
0.0213422
0.03111
0.329861
0.0935499
0.0206643
3.12314
1.2934
0.059769
0.0224997
0.0215396
0.0215082
0.0245862
0.0403441
0.245761
0.0910158
0.020448
0.0212888
0.363306
0.193499
0.0214403
0.337135
0.430731
0.0224371
2.27871
3.90885
0.0202753
4.21392
3.88044
2.73573
2.24915
0.0207501
0.302131
0.121154
0.0219645
0.0240898
3.82425
0.385382
3.28176
0.0238295
0.0212895
0.0249534
3.93172
0.022105
1.12084
0.0197576
0.0216562
2.98615
0.36393
0.033725
1.24113
0.0547979
0.0226576
1.0165
0.721929
0.199535
0.427476
0.0598343
0.0646754
0.0213226
0.0213061
0.0527859
2.87433
2.25975
0.486636
0.114439
0.331851
3.14155
0.0298491
0.0209663
0.0217388
0.0621016
0.375057
0.0204641
0.0571146
0.408994
0.0895443
0.295443
0.0940988
2.57242
0.0216907
0.0225054
0.431514
0.0254581
0.0217528
0.0223467
0.248644
0.030128
0.0535607
0.0204071
0.021298
0.37654
0.436038
0.0222609
0.742274
0.289338
0.0834012
0.0222826
0.38287
0.0210437
2.28232
0.102751
3.18001
0.0215291
0.163539
0.0200647
0.0212973
0.919523
0.564018
0.679112
0.0203994
0.197443
0.408421
0.271383
0.678683
0.0385965
0.0223683
0.424688
0.16749
0.0212179
0.020942
0.0942327
0.688471
0.332578
0.0257063
2.18297
0.0203649
0.0217467
0.0690046
0.0648918
0.0211749
0.409821
0.0214213
0.0215134
0.0220761
0.0222135
0.0980903
0.492369
0.0196418
0.0873449
0.0208863
0.0330713
2.72681
0.0218288
0.322785
3.17127
0.18761
0.188318
0.0214632
2.31324
0.0222997
0.130918
0.0207375
0.12197
0.0322324
0.0248889
0.0214553
0.110412
0.0634044
0.160655
0.323613
0.0217609
0.0202703
0.359111
0.125587
0.0328056
3.30879
0.0238296
3.48312
0.0214684
0.175792
0.117999
0.430107
0.0202977
0.429953
0.0557834
0.138413
0.022429
0.0238073
0.0239941
0.0235913
0.0239494
0.0236651
0.0235189
0.0210457
0.0899196
2.20878
0.43046
0.0247827
0.0212012
2.71952
0.694015
0.0211998
0.0603628
0.0233065
0.0227422
1.41162
0.391128
0.0202391
2.35813
0.0214776
0.803169
0.175925
0.155589
0.0231536
0.0218573
0.0230112
0.0204376
0.02241
0.315674
0.293767
0.0333051
0.385807
0.136079
0.0213516
0.0438514
0.333274
0.0215007
0.0239917
0.174864
0.0234847
0.058917
0.0235467
0.0241471
0.0498101
1.42498
0.094303
2.5571
0.0251266
0.199993
0.0649391
0.600626
0.0638586
0.0267498
0.0210516
0.0244714
0.142139
0.368259
3.8655
0.0209722
2.25709
0.390984
0.325756
0.12509
0.161664
2.29815
3.7096
0.0197553
0.09725
0.0239989
0.178282
0.228229
0.334909
0.021117
0.417385
0.0520844
0.117291
0.0210392
0.16197
0.0230592
0.145575
0.0226891
0.0879538
0.155375
0.0252942
0.0208452
0.0217059
2.21862
0.0207661
0.144325
0.0655247
0.2232
0.0271938
0.431212
0.0738426
0.0212083
0.020711
2.32092
0.0233329
0.0208479
0.0211437
0.146692
4.19088
0.11066
0.0213879
0.0358735
0.313434
0.406153
0.046448
0.0209549
0.0563378
1.4342
0.0264501
0.0233786
0.0208042
4.38973
0.0206898
3.18595
0.328681
0.0459348
0.079351
0.0388301
0.0202917
0.0225306
0.461326
0.0229654
0.0247029
0.0210938
0.021268
3.58074
1.16804
0.110926
0.0205093
2.45882
0.0789008
0.333135
0.0212143
0.0267876
0.0246051
0.132522
0.0212507
0.0595343
0.406711
0.094625
0.0246913
0.0208216
0.0262074
0.0264534
0.0487099
0.0202232
0.0217277
0.0215416
0.0214993
3.03082
2.27018
0.249971
0.0341416
0.0220203
0.0196724
0.252723
0.609358
0.316501
0.0240848
0.0870552
0.0212975
0.0217114
0.0792855
0.0207259
1.44935
0.0217387
3.45734
0.0201866
2.47936
0.0214342
0.342863
0.369242
0.0950636
0.158185
0.0196703
1.50041
0.0203161
0.113677
0.384083
0.143208
0.020605
0.0867005
0.112152
0.0599758
0.10265
0.0321382
0.105123
0.0200817
0.0338073
0.0204035
0.362084
0.171423
2.74678
2.2914
0.0216939
0.349543
0.0209276
0.0210723
0.150826
0.020153
0.0210238
0.0210855
0.0210158
0.192454
0.0222662
0.023127
0.0219779
0.0212617
0.0210728
0.0223849
0.0243193
0.0214443
0.0310698
0.0350055
0.0224184
0.377397
0.0230793
0.0557122
0.152365
0.0420015
0.0499658
0.0860988
0.181261
0.060336
0.249721
0.997049
0.283301
0.0203699
0.0208949
0.023649
0.0199061
0.0935784
0.0292044
0.0202016
2.30216
3.57519
0.853124
0.0360781
0.0568111
0.042158
0.0213785
0.498103
0.100524
0.0221726
0.329966
0.342111
0.0215483
0.320595
0.110154
0.368483
0.0534614
0.0634767
0.0475437
0.0206471
0.0198591
0.588084
0.442812
0.723638
0.0229277
0.0211049
0.838626
0.0424336
0.0231095
0.0198235
0.217453
0.0202608
0.0244076
0.0254626
0.021288
0.0317524
2.30324
0.0208329