/*--------------------------------*- C++ -*----------------------------------*\
| =========                 |                                                 |
| \\      /  F ield         | OpenFOAM: The Open Source CFD Toolbox           |
|  \\    /   O peration     | Version:  v2012                                 |
|   \\  /    A nd           | Website:  www.openfoam.com                      |
|    \\/     M anipulation  |                                                 |
\*---------------------------------------------------------------------------*/
FoamFile
{
    version     2.0;
    format      ascii;
    class       surfaceVectorField;
    location    "50";
    object      ddtCorrDdt0(Uf);
}
// * * * * * * * * * * * * * * * * * * * * * * * * * * * * * * * * * * * * * //

dimensions      [0 1 -2 0 0 0 0];


internalField   nonuniform List<vector> 
27274
(
(0.000524861 -0.00025193 -5.26242e-18)
(0.000532343 -0.000265218 -4.20154e-18)
(0.000516038 -0.000268574 -3.39555e-18)
(-0.0172328 -0.00827186 7.30661e-18)
(-0.018131 -0.0092664 -4.4946e-18)
(-0.0195667 -0.00697752 3.63134e-18)
(0.000125319 0.000110681 -1.07993e-19)
(0.000120439 0.000137119 -8.37717e-19)
(0.000120374 0.000112203 1.39804e-19)
(-4.69648e-05 -4.75031e-05 -2.94003e-19)
(-5.60929e-05 -3.36978e-05 8.03623e-19)
(-5.2907e-05 -5.74954e-05 -3.7683e-19)
(-0.000639462 0.000117348 -3.05239e-19)
(-0.000623624 8.70345e-05 -1.63553e-19)
(-0.000675174 9.40456e-05 -2.17416e-18)
(0.0029197 -0.0153577 9.63529e-18)
(0.00350394 -0.0147255 2.73374e-18)
(0.00386574 -0.0157517 1.86564e-17)
(1.41605e-07 -9.6578e-06 4.36718e-19)
(1.01976e-06 -3.17771e-05 3.37708e-19)
(1.84612e-06 -1.60374e-05 4.01462e-19)
(0.00309025 0.000269238 -1.62955e-17)
(0.00361606 0.000434043 7.90472e-18)
(0.00339284 -0.00014244 -2.44232e-18)
(-5.39783e-05 0.000150485 -2.68199e-18)
(-6.62318e-05 0.000162613 6.29115e-18)
(-0.0443617 -0.00265132 3.86421e-18)
(-0.0448287 -0.00234486 9.3973e-18)
(-0.0439257 -0.00297558 2.15413e-17)
(-3.60758e-05 1.32716e-05 -2.02841e-18)
(-4.10012e-05 2.06356e-05 -3.21208e-18)
(-3.78357e-05 1.54603e-05 -4.28576e-19)
(0.0383453 -0.00181649 2.91594e-17)
(0.0379206 -0.00184351 -3.75696e-18)
(0.0389752 -0.00131939 -4.10232e-17)
(0.00520711 0.00384958 5.14116e-18)
(0.00575472 0.00406833 -6.10294e-19)
(0.00510477 0.00449146 2.09361e-17)
(2.12747e-05 0.000301657 1.08195e-18)
(5.01602e-05 0.000310527 -3.21403e-18)
(4.29084e-05 0.000266137 3.71103e-19)
(9.06213e-05 -0.0004172 3.91658e-19)
(7.65855e-05 -0.000401981 -5.95806e-19)
(8.89055e-05 -0.000409304 -1.1959e-18)
(0.000431038 -0.000313851 -1.79715e-18)
(0.000454453 -0.00030289 1.18254e-18)
(0.00043379 -0.000288487 -1.88557e-18)
(0.000655756 -0.00083146 1.42295e-17)
(0.00064618 -0.00115354 -3.76395e-17)
(0.000329389 -0.000895319 -1.36535e-17)
(-2.30358e-05 -0.000187171 2.53293e-19)
(-2.5171e-05 -0.000187257 -4.67481e-19)
(-1.86559e-05 -0.000194279 6.34768e-19)
(0.000173079 -0.000258885 7.3317e-19)
(0.000167557 -0.000251533 1.77509e-21)
(0.000200515 -0.000252016 1.6275e-20)
(0.0938818 -0.0465873 -1.91765e-17)
(0.0947487 -0.0463495 5.77276e-18)
(0.0883055 -0.0432177 -1.42296e-17)
(0.000578551 -0.000160977 1.18385e-18)
(0.000608964 -0.000162017 4.90391e-18)
(0.000607863 -0.000132169 7.20401e-18)
(0.000203393 5.18424e-05 -5.97488e-18)
(0.000204793 6.40052e-05 3.33246e-19)
(0.000211279 4.53122e-05 2.56651e-18)
(-0.0127732 0.0177301 2.3012e-17)
(-0.0127977 0.0191079 4.04636e-17)
(-0.0140442 0.0179889 2.31235e-17)
(-0.00064939 0.000144591 -7.6605e-20)
(-0.000607771 0.000135292 -3.87535e-21)
(-0.00209093 0.000494332 -5.248e-20)
(-0.0022892 0.000574249 4.30202e-18)
(6.05556e-05 8.9606e-05 -1.05175e-18)
(6.15785e-05 0.000109844 6.35302e-20)
(6.3071e-05 0.000148428 5.28018e-19)
(-7.57848e-07 -0.000294236 1.26982e-18)
(2.41267e-06 -0.000311122 1.79881e-18)
(3.80182e-05 0.000139703 -1.98759e-18)
(4.96093e-05 0.000143885 1.18012e-17)
(1.51054e-05 0.000152631 -5.47379e-18)
(0.0351315 0.0228844 -3.44176e-18)
(0.0477016 0.0125279 -8.94215e-18)
(0.0492108 0.0086451 1.5329e-17)
(0.000155169 0.0002579 2.01027e-19)
(0.000151529 0.000247379 4.63701e-18)
(0.000148481 0.000228577 2.10539e-18)
(-0.000310093 0.00017375 -4.21759e-19)
(-0.000335363 0.000167623 -1.94299e-18)
(-0.000327202 0.000190782 9.36509e-19)
(-0.00109401 2.94209e-05 4.59354e-19)
(-0.00106186 8.45318e-05 1.32611e-19)
(-0.00115479 8.63563e-05 2.79068e-18)
(-2.04066e-05 -0.000185284 1.41593e-19)
(-2.76693e-05 -0.000178848 -3.24535e-19)
(-1.13666e-05 -9.00229e-06 -3.22965e-19)
(-4.24166e-06 -1.20501e-05 -2.95553e-19)
(-6.32433e-06 -1.39648e-05 1.59403e-19)
(-2.05383e-06 -0.000442273 -9.43278e-19)
(-7.83929e-05 -0.000514078 -2.71077e-18)
(-0.000103094 -0.000414833 6.8823e-18)
(0.000544379 -0.000229593 3.18948e-18)
(0.000518538 -0.000226587 1.75208e-18)
(-3.11224e-05 0.000212116 -7.37744e-18)
(-2.89411e-05 0.000201323 -4.22018e-18)
(0.00112419 -0.00424974 -2.3601e-17)
(0.00140187 -0.00398308 3.213e-17)
(0.00105721 -0.00391314 5.18509e-18)
(3.8899e-05 0.000163267 1.03749e-17)
(1.90037e-05 0.000147897 8.7876e-18)
(-4.26875e-05 2.63984e-05 -2.29511e-18)
(-4.40618e-05 2.87692e-05 -8.00883e-19)
(-5.00418e-05 3.21958e-05 -1.98165e-18)
(2.19111e-05 0.000306406 -1.31137e-18)
(2.21592e-05 0.000334454 1.02874e-18)
(0.00308532 0.000420918 2.38668e-19)
(0.00322053 0.000303235 5.27108e-19)
(0.00305473 0.000239459 -2.7275e-18)
(0.000130493 8.41836e-05 -2.63665e-19)
(0.000130018 0.000113722 1.61828e-19)
(-0.0495892 0.000628989 6.61252e-18)
(-0.0483211 0.000664039 -1.08725e-17)
(-0.0501832 0.000603645 6.1045e-18)
(-2.94839e-06 -1.13487e-06 -7.58133e-20)
(-1.34234e-06 -1.1121e-06 -4.15985e-19)
(-8.4629e-06 -3.69948e-07 -4.37626e-19)
(0.000861625 -0.00443431 -2.68914e-17)
(0.00120854 -0.00449117 -3.08657e-17)
(0.000633658 0.000451884 3.93735e-19)
(0.000761271 0.000580243 3.31542e-19)
(0.000538924 0.000639556 1.42262e-17)
(0.000179834 0.000161914 5.29133e-18)
(0.000122853 0.000157438 -7.84952e-18)
(0.000150305 0.000142234 -1.00633e-17)
(0.000680226 0.000304032 1.83918e-18)
(0.000597557 0.000233174 -9.87179e-18)
(0.000682413 0.000190593 5.25709e-18)
(-5.01936e-06 -0.000201341 5.34072e-19)
(-2.40751e-06 -0.000210477 4.51675e-20)
(-1.56377e-05 -0.000202525 -9.47431e-20)
(-4.44206e-05 7.87611e-05 -5.88626e-19)
(-4.18839e-05 7.33375e-05 5.78487e-19)
(-4.05762e-05 7.60609e-05 3.86091e-19)
(4.52909e-05 -0.000326758 2.37912e-19)
(5.06682e-05 -0.000337784 3.27401e-19)
(5.68129e-05 -0.000320132 2.01272e-19)
(6.957e-06 0.000159433 -1.90476e-18)
(4.23684e-07 0.000160439 -3.21626e-19)
(2.01736e-06 0.000102952 -5.90394e-19)
(-0.0159544 -0.0153676 1.41006e-17)
(-0.0135779 -0.0156143 -7.27378e-18)
(-0.0100232 -0.0176353 9.02167e-18)
(6.47479e-05 -0.00017393 2.58076e-18)
(6.18369e-05 -0.000189708 1.47482e-18)
(6.57427e-05 -0.000159384 2.29867e-19)
(3.74571e-05 -5.22603e-06 -3.8e-19)
(3.36651e-05 -5.95728e-06 4.50713e-20)
(4.99153e-05 -9.34446e-07 -5.79988e-19)
(-0.0265882 -0.0268885 2.49257e-18)
(-0.0251628 -0.0280937 -1.30568e-18)
(-0.0272432 -0.0288477 -2.83092e-18)
(0.000111768 -0.000425877 1.32348e-18)
(0.000103765 -0.000422595 -7.54468e-19)
(0.000433342 0.00601918 -5.26897e-17)
(0.000453637 0.00641029 1.64019e-17)
(0.000687083 0.00599726 -1.64569e-17)
(-0.00353673 -0.000672681 1.10338e-17)
(-0.00344872 -0.000325617 -3.24565e-17)
(-0.00312946 -0.000589853 -2.02166e-17)
(-1.0647e-06 -0.000196908 2.60836e-19)
(-3.59561e-06 -0.00020174 -2.1922e-19)
(0.00506417 -0.00680734 1.89786e-18)
(0.00519547 -0.00621025 -8.48394e-18)
(0.00456269 -0.00640085 -8.22472e-18)
(-4.60611e-05 -0.000158892 4.61421e-19)
(-3.5762e-05 -0.000170102 -2.67315e-19)
(-4.13479e-05 -0.000161014 -3.46241e-19)
(0.00148691 -0.000504121 1.70818e-19)
(0.00142549 -0.000462976 -6.78125e-20)
(0.00141655 -0.000549603 1.38541e-18)
(0.0379112 -0.00220391 4.99366e-17)
(0.0387293 -0.00181019 1.68574e-17)
(0.000539301 -0.000284135 -3.91966e-19)
(0.000552674 -0.000268467 -7.46693e-18)
(0.0331352 0.14533 -1.84609e-18)
(0.0372237 0.165553 9.48255e-19)
(0.0413435 0.128569 9.31889e-18)
(0.000414806 0.000775973 -6.06718e-18)
(0.000456045 0.000836003 7.87416e-18)
(0.000365343 0.000837982 1.06654e-18)
(-1.67425e-06 -0.000269562 3.16047e-19)
(0.000214553 4.33768e-05 -3.75909e-18)
(0.000217459 7.27148e-05 -1.19908e-18)
(-0.00031606 0.000491053 -1.78655e-17)
(-0.000277575 0.000703409 -2.17164e-17)
(-0.0001838 0.000510184 -2.76514e-18)
(1.08827e-05 5.87734e-05 -2.06401e-19)
(7.75426e-06 5.26324e-05 -5.34181e-19)
(8.53761e-06 4.92039e-05 3.98341e-19)
(-0.00357899 -0.00105692 1.61692e-17)
(-0.00396164 -0.000737801 2.35442e-17)
(3.50512e-05 -0.000116384 1.54063e-20)
(3.82918e-05 -9.7703e-05 1.56519e-20)
(3.89736e-05 -0.000106687 2.14973e-20)
(0.00291344 0.00037057 1.18969e-18)
(0.00306419 0.000495315 -8.7004e-18)
(3.55313e-06 -1.52703e-06 -2.66571e-19)
(3.0411e-06 8.61696e-06 7.34798e-19)
(-0.00225233 -0.0296484 -4.79678e-18)
(-0.00442496 -0.0299913 -6.46788e-18)
(-0.00531897 -0.0262241 2.34067e-19)
(-0.00101064 -3.88407e-05 1.23324e-18)
(-0.000970364 -8.04226e-05 -6.28326e-19)
(-0.001061 -8.68387e-05 2.26781e-18)
(-0.00337186 -0.000310044 4.19209e-19)
(-0.00359325 -0.000356863 4.89781e-18)
(-0.0034573 -0.000528866 1.67245e-18)
(3.96646e-05 -0.000302901 8.59904e-20)
(3.70476e-05 -0.000294687 1.3606e-19)
(4.39485e-05 -0.00028867 9.80616e-20)
(3.119e-06 -5.72065e-05 3.00604e-19)
(9.74533e-07 -5.14348e-05 -7.01412e-19)
(0.005068 -0.0069669 1.38671e-17)
(0.0044702 -0.00774032 8.86612e-18)
(0.00549423 -0.00667812 -3.8941e-19)
(0.000569381 -0.000162514 -2.13961e-18)
(0.000580327 -0.00017063 1.80036e-18)
(0.00107378 -0.000837844 -5.07583e-18)
(0.00109235 -0.000916873 -6.31783e-18)
(0.00100488 -0.000889746 -1.14235e-18)
(5.24894e-05 7.42222e-05 -2.42246e-18)
(5.73322e-05 4.96307e-05 -3.24955e-19)
(0.00481016 0.00373449 -7.09083e-18)
(0.00524564 0.00348349 -6.95797e-18)
(0.0570911 0.00700917 -1.06307e-17)
(0.0606638 -0.00029685 -8.95877e-18)
(0.0519186 0.000275127 3.01698e-19)
(0.0919257 -0.046402 -4.82845e-18)
(0.0994441 -0.0497329 1.12066e-18)
(0.023871 0.0377944 -1.04019e-18)
(0.0231642 0.0374748 -1.19807e-17)
(-0.0233158 -0.00169576 -9.84769e-18)
(-0.0264681 -0.000684267 -7.86757e-18)
(-0.0247575 -0.000110576 -5.89343e-18)
(0.0399514 -0.0150242 -4.08217e-18)
(0.0380282 -0.0161241 -9.6965e-18)
(0.0361508 -0.0143795 1.02691e-17)
(-2.49358e-06 -8.67495e-07 7.33716e-19)
(-1.27095e-06 -1.5717e-06 8.91634e-19)
(6.68738e-05 -0.000108586 1.43285e-19)
(6.81301e-05 -7.97945e-05 -1.53332e-18)
(6.96368e-05 -7.01336e-05 1.29067e-18)
(-1.20676e-05 9.80115e-06 -9.57183e-19)
(-1.39016e-05 3.56586e-06 -1.53174e-18)
(-1.87098e-05 6.79653e-06 -8.01406e-19)
(-0.0038087 0.104178 -7.22036e-18)
(-0.00491599 0.107808 -1.96956e-18)
(-0.0115894 0.0173855 2.62716e-17)
(-0.0133483 0.0161638 7.45043e-18)
(-8.09695e-05 -0.000146738 3.41956e-18)
(-8.13051e-05 -0.000126761 1.04383e-18)
(-8.32044e-05 -0.00013273 1.64363e-18)
(-0.00104214 -0.0011602 7.2499e-19)
(-0.000937549 -0.00116767 2.15977e-18)
(-0.00101833 -0.00127627 5.23282e-18)
(-0.0180662 -0.015273 -6.48924e-18)
(-0.020825 -0.0138094 6.9357e-18)
(-0.00271464 0.000252408 7.33664e-18)
(-0.00254979 0.000241531 2.81019e-17)
(-0.00221054 0.000301286 9.60327e-18)
(-0.00321264 0.124928 -8.38572e-18)
(-0.000855389 0.127768 3.23472e-18)
(-0.000360997 0.134048 2.26299e-18)
(-0.00252326 -1.67938e-05 3.08393e-17)
(-0.00257102 -7.12619e-05 2.73457e-17)
(-0.00228381 -0.000108626 -4.75495e-17)
(0.000483475 -0.000660715 -8.87116e-18)
(0.000409518 -0.000648633 -3.08588e-18)
(0.000450855 -0.000596622 -1.90793e-17)
(0.0053098 -0.0106719 -2.6665e-17)
(-0.00151925 -0.0133659 1.06866e-17)
(0.017963 -0.01798 -3.30809e-17)
(-0.00071949 0.000348409 -4.74284e-18)
(-0.000709575 0.000292996 5.61063e-18)
(-0.000784796 0.000325504 -3.23985e-18)
(0.0127473 -0.00623687 7.76619e-19)
(0.0132401 -0.00701747 -1.26485e-17)
(0.0137157 -0.00608 9.79886e-19)
(0.0361976 -0.00149935 2.41201e-17)
(0.0356151 -0.00150664 1.35758e-18)
(0.0362049 -0.000875073 8.37638e-17)
(0.00291155 -0.0028699 -1.13385e-17)
(0.00271085 -0.0027118 -2.27829e-18)
(0.00260551 -0.00296682 6.57303e-18)
(0.00070361 -0.0011722 -2.77919e-18)
(0.00078569 -0.00112133 -1.47086e-18)
(0.000784116 -0.00125073 -4.4904e-18)
(-0.00166806 0.00415246 2.42114e-17)
(-0.0016678 0.00430843 2.04518e-17)
(0.000138895 0.00022451 4.62547e-18)
(0.000144394 0.000199665 5.47443e-19)
(0.000155179 0.000205903 1.50322e-18)
(0.000130138 0.000139681 -6.48017e-20)
(0.000128948 0.000153417 2.88902e-18)
(0.000141312 0.00013905 -2.68584e-18)
(4.8221e-05 0.000162151 1.05807e-18)
(5.07871e-05 0.000136675 1.81326e-18)
(5.19115e-05 0.000108221 2.79709e-18)
(0.000105319 0.000137717 4.59807e-18)
(0.000124532 0.00014426 -2.93396e-18)
(0.00439438 -0.0236758 3.94889e-18)
(-0.00087681 -0.0208939 -7.90457e-18)
(0.000542276 -0.0222418 -1.27124e-17)
(1.40666e-06 -1.90994e-05 3.44674e-19)
(-4.93441e-07 -1.94952e-05 -5.40331e-21)
(4.50701e-06 -2.24711e-05 -1.5712e-19)
(-0.000208036 0.00551798 9.00164e-17)
(-0.00027995 0.00569778 7.1688e-17)
(-0.00014725 0.00589141 -1.97796e-18)
(0.000775141 -0.0328792 1.04342e-17)
(-0.000462899 -0.0291644 -4.52481e-18)
(0.000276921 0.00571564 9.10687e-18)
(0.000268052 0.00582953 2.51672e-17)
(0.000205327 0.00619964 -2.38309e-17)
(0.000533044 -0.0006697 8.4974e-18)
(0.000514731 -0.000717583 -1.74973e-18)
(-0.0435706 -0.00256977 -4.85925e-18)
(-0.0443591 -0.00199255 -2.06549e-17)
(-0.0106572 -7.97766e-05 2.113e-17)
(-0.00314914 0.0017017 -1.1539e-18)
(-0.00746535 -0.00600806 -5.77896e-18)
(-0.00105669 -7.27828e-06 1.87619e-18)
(-0.000979306 3.25928e-06 3.22313e-18)
(-0.000287395 0.00036401 -1.82439e-17)
(-0.000430179 0.000451573 4.46737e-18)
(-7.64441e-05 -0.000162885 2.15208e-18)
(-8.35602e-05 -0.000168043 -1.09386e-18)
(0.00321562 -0.00280123 4.9217e-18)
(0.00310298 -0.00309677 -2.93233e-18)
(4.10608e-05 -0.000321561 -3.25929e-19)
(3.92041e-05 -0.000331 -4.82497e-19)
(9.63164e-06 0.000184482 4.76383e-19)
(9.6732e-06 0.000194342 2.03496e-19)
(5.23479e-06 0.000151923 -1.11116e-18)
(0.0104995 -0.00908355 4.14246e-18)
(0.0168096 -0.00685589 -2.22449e-19)
(0.0240996 -0.00674542 1.4118e-17)
(-2.43096e-05 1.31671e-05 -2.20118e-19)
(-1.21518e-05 -3.11349e-06 8.54698e-19)
(-4.56253e-05 8.11827e-05 -8.50657e-19)
(-4.7344e-05 8.18364e-05 -2.06201e-19)
(-0.0410748 0.0303013 -1.63546e-17)
(-0.0413979 0.0297579 3.18096e-18)
(-0.0472819 0.0315011 1.96846e-17)
(0.00285934 -0.00352287 1.04314e-17)
(0.0026094 -0.00370308 1.69319e-18)
(0.00260733 -0.00339466 -3.05811e-18)
(-0.00114613 -0.00118914 2.2094e-18)
(-0.00107994 -0.00106894 -2.34483e-18)
(0.00164806 0.000487704 -5.06135e-18)
(0.00156775 0.000486823 -1.02776e-17)
(0.00159491 0.000413381 -9.39371e-18)
(1.08121e-05 0.000180206 -6.92645e-19)
(1.1695e-05 0.000212373 1.46545e-19)
(4.89768e-05 -0.000393901 5.23201e-19)
(3.16657e-05 -0.000383274 6.84042e-19)
(3.29221e-05 -0.000388536 -3.67219e-19)
(-3.51708e-05 5.78672e-06 7.09797e-19)
(-3.76227e-05 6.87713e-06 -6.76733e-19)
(8.11761e-05 0.000289731 -3.54208e-19)
(6.86858e-05 0.000313006 4.61572e-18)
(9.28562e-05 0.000335808 -1.03921e-18)
(-0.000649689 -0.00159255 -5.8654e-18)
(-0.000456211 -0.00158148 1.82107e-17)
(-0.000557381 -0.00142952 3.99038e-20)
(-0.00633203 0.111883 -3.36952e-18)
(-0.00516587 0.123165 8.83825e-18)
(-0.0160183 0.0718539 2.12462e-18)
(-0.0165465 0.0803988 4.4921e-18)
(-0.0181283 0.0727455 7.87254e-19)
(0.000262294 -0.000321362 -3.04511e-19)
(0.000274805 -0.000300009 1.67448e-18)
(0.00028673 -0.000349134 2.71856e-18)
(0.000124874 0.000233885 -1.76732e-18)
(0.000125289 0.000248116 4.6706e-20)
(0.000212233 0.00426634 7.28036e-18)
(0.000123924 0.00433036 -4.4506e-17)
(0.000228952 0.00437722 4.33824e-17)
(0.000201406 8.68113e-05 6.80586e-19)
(0.000202284 0.000126627 -2.92072e-18)
(0.000192004 0.000120778 2.5039e-19)
(4.41913e-05 0.00030432 -1.24828e-17)
(6.63266e-05 0.000325104 2.04588e-17)
(3.34041e-05 0.000337831 -6.53426e-18)
(0.0798105 0.00416967 -9.72264e-18)
(0.0749503 -0.00103278 2.13949e-17)
(0.0709647 0.0155772 1.01571e-17)
(-0.000491679 -0.000513231 7.61175e-19)
(-0.000532326 -0.000549069 4.52786e-18)
(-0.00048121 -0.000552083 1.00065e-18)
(0.0877346 -0.00828488 -2.67538e-18)
(0.0845396 0.0127765 6.65974e-18)
(-0.000481796 9.80429e-06 3.18462e-18)
(-0.000509468 -4.44478e-06 -2.99188e-18)
(-0.000506777 1.55722e-05 -1.4709e-18)
(0.000214124 7.58876e-05 -3.87489e-18)
(4.11397e-05 -0.00039815 7.73572e-18)
(5.58386e-05 -0.00044889 -1.16817e-17)
(0.000457967 0.00584281 7.5752e-18)
(0.00029394 0.00589656 1.32136e-18)
(-0.00864106 -0.0186519 -5.66284e-19)
(-0.00736968 -0.0188253 2.88667e-18)
(-0.00831262 -0.0199565 4.84044e-18)
(6.03014e-06 6.24768e-05 6.46119e-19)
(6.34395e-06 7.57924e-05 -6.00495e-19)
(2.08301e-06 5.31471e-05 4.95669e-19)
(-0.0430603 0.0288645 -2.77031e-18)
(-0.0237429 0.0270794 4.73973e-17)
(0.000306325 0.0053865 9.25868e-17)
(1.49883e-05 0.00560464 7.12737e-18)
(6.95491e-06 7.11808e-05 -2.69859e-19)
(5.29324e-06 5.31177e-05 1.7933e-19)
(0.00627369 -0.00560064 -5.84666e-18)
(0.0057714 -0.00601502 -1.65925e-17)
(0.00642773 -0.00620949 3.41855e-18)
(0.0006341 -0.000349125 4.35052e-19)
(0.000648487 -0.000336199 8.80621e-19)
(0.000659282 -0.000347657 9.64945e-19)
(0.000339256 -0.000376595 1.42629e-18)
(0.000332263 -0.000379044 1.88049e-19)
(0.000325068 -0.00038309 -3.28372e-19)
(0.000694831 0.0003812 2.46972e-17)
(0.000679617 0.000440943 2.57667e-17)
(0.000764349 0.000385205 -5.90485e-18)
(-0.00124254 -0.00119623 -9.28914e-19)
(-0.00122272 -0.00129594 -1.3765e-18)
(-0.00787147 -0.0485979 6.18358e-18)
(-0.00974671 -0.0481758 3.27599e-18)
(-0.00818465 -0.0468017 -1.15252e-17)
(0.00374457 0.00645961 -2.91643e-17)
(0.00372461 0.00610072 -6.17509e-18)
(0.00329983 0.00629753 1.04107e-17)
(0.014193 -0.00526462 -1.29576e-17)
(0.0171827 -0.00531422 -4.14168e-17)
(0.0205793 -0.00432404 -3.57065e-18)
(0.000429678 1.00778e-05 -5.22103e-18)
(0.000477158 7.49329e-05 -8.10839e-18)
(0.000479951 -1.7105e-05 -1.27125e-17)
(0.00649252 0.0132779 -5.91786e-18)
(0.00549099 0.0138688 -1.54702e-17)
(0.00564669 0.0125941 5.40485e-18)
(1.27182e-05 -0.000179362 -3.39839e-20)
(6.25084e-06 -0.000190552 1.05168e-19)
(1.20519e-05 -0.000188252 1.47375e-19)
(-0.0302284 -0.051258 -3.11402e-18)
(-0.0289771 -0.0522985 8.69759e-18)
(-0.0296628 -0.0404326 1.99651e-19)
(-0.0104879 0.0169834 -2.04439e-18)
(-0.0096553 0.0161395 -4.34917e-18)
(-0.0115397 0.0152786 -5.18914e-19)
(-2.87796e-05 3.14567e-05 -1.17937e-18)
(-3.135e-05 3.96513e-05 -1.25266e-18)
(-3.28308e-05 2.22014e-05 -7.96991e-20)
(-3.56536e-05 4.16084e-05 3.93265e-19)
(-4.11227e-05 3.80218e-05 1.7419e-18)
(-3.80685e-05 2.86151e-05 3.187e-18)
(0.000450395 -0.000333201 9.01334e-19)
(0.000459419 -0.000306167 -5.20352e-19)
(0.00731906 -0.00709247 -2.26135e-18)
(0.00827328 -0.0052338 1.31365e-19)
(0.00544346 -0.00506151 -4.17764e-18)
(-0.0159694 -0.00891607 3.12507e-19)
(-0.0150303 -0.00950872 2.51665e-18)
(-0.0149744 -0.00830745 6.9087e-18)
(6.75319e-05 -9.84469e-05 2.46222e-20)
(6.90951e-05 -0.000110515 3.01615e-19)
(7.01281e-05 -0.00013158 -3.06705e-18)
(0.00272474 -0.00852258 1.0582e-19)
(-0.00231481 -0.0114792 -1.37166e-17)
(0.013118 0.00435036 1.74317e-17)
(0.0190966 0.00629182 1.91778e-18)
(0.0164297 0.00509755 2.53407e-18)
(-0.000818515 0.00265133 8.87014e-19)
(-0.000873309 0.00255187 -9.96095e-18)
(-0.000738912 0.00255992 -3.30033e-17)
(0.00728789 0.0127764 -3.24396e-17)
(0.00715167 0.0140698 -1.90859e-17)
(-0.000363671 -0.00149305 1.99643e-18)
(-0.000238285 -0.00144412 8.34943e-18)
(-0.000271759 -0.00162401 1.85446e-18)
(3.4084e-06 6.09517e-05 -2.84275e-19)
(5.98703e-06 7.19811e-05 -9.4844e-20)
(5.77939e-06 6.42915e-05 -1.93788e-19)
(0.0052881 -0.0469213 6.82856e-18)
(0.0060197 -0.0456331 5.0589e-19)
(0.00725527 -0.0470735 7.38976e-18)
(0.0130212 -0.00520375 6.69797e-18)
(0.0156648 -0.00629059 1.67293e-17)
(0.0133851 -0.00765233 5.29416e-18)
(-0.0255006 0.0113223 1.16302e-18)
(-0.0255249 0.0105311 2.78713e-18)
(-0.0250558 0.0116769 -4.93313e-18)
(0.0296134 -0.00972109 -4.98174e-17)
(0.028654 -0.0112605 -3.05911e-17)
(0.0279869 -0.00956119 1.16538e-17)
(1.62325e-05 0.000167312 -1.53336e-17)
(4.34617e-05 0.000160156 4.70035e-18)
(4.32662e-05 0.000175816 -2.16616e-17)
(0.000954521 -0.000694339 -4.55542e-17)
(-0.000493087 -0.000286771 5.89346e-17)
(-0.0262613 -0.0252208 -2.15481e-18)
(0.000129991 5.52348e-05 -7.61611e-19)
(0.000137018 6.20839e-05 1.32788e-19)
(0.000134573 2.50602e-05 8.88811e-19)
(-0.00134294 -0.00121185 -3.72802e-18)
(-0.00127012 -0.00109977 -2.82532e-18)
(0.0109739 -0.0236111 -3.96836e-18)
(-0.00466733 -0.0199673 4.02654e-19)
(0.00259881 -0.0278095 8.1063e-18)
(0.00188747 0.000660423 3.38625e-18)
(0.00176821 0.000657578 -1.16222e-18)
(0.00181654 0.000780816 -8.91312e-19)
(0.00023506 2.6962e-06 3.07699e-18)
(0.000245364 -2.61658e-06 5.85676e-19)
(0.000264653 -3.56112e-05 -9.23676e-19)
(-0.031231 0.0231059 -2.90433e-17)
(-0.0364376 0.0262027 -3.43908e-17)
(-0.0294242 0.02804 1.02909e-17)
(-0.00043132 -0.00158984 1.26951e-18)
(-0.0004518 -0.00144381 -2.61324e-18)
(0.000619596 -0.00367006 -4.6386e-18)
(0.00077205 -0.00348634 -4.14734e-18)
(0.000869966 -0.00379337 -7.34479e-18)
(-4.59726e-05 3.88971e-05 -1.05034e-18)
(-0.000280674 -0.000286226 -2.18259e-18)
(-0.000301884 -0.000271748 -8.85019e-19)
(-0.000305223 -0.000307828 -1.43515e-18)
(0.000279995 0.000111025 4.80485e-18)
(0.00033538 4.45751e-05 -7.58301e-19)
(0.000228273 1.9128e-05 -1.78149e-18)
(0.013549 0.00209315 2.85736e-18)
(0.0104626 0.000853005 -4.35425e-18)
(0.00788434 0.000588259 3.29961e-18)
(-0.0253364 0.011837 -7.32314e-18)
(-0.0267788 0.0103645 -4.30832e-19)
(0.0358672 0.000155218 1.85419e-17)
(0.0425341 0.000568254 1.80445e-17)
(0.0346656 4.001e-05 1.84685e-17)
(0.000778615 -0.000290941 -8.20885e-19)
(0.000781761 -0.000307004 -2.22661e-18)
(0.000790395 -0.000295537 -5.78049e-19)
(-4.29728e-05 0.00557424 -1.79686e-17)
(-0.000316196 0.00572117 -7.02379e-18)
(0.0200716 -0.00957453 1.05792e-18)
(0.0201998 -0.00923266 1.90555e-17)
(0.0215299 -0.00882 -7.16756e-18)
(0.0294545 -0.00616968 4.73187e-17)
(0.031043 -0.0055761 3.45094e-17)
(0.0311408 -0.00561538 2.06831e-17)
(0.000485343 -0.00394578 -3.03709e-18)
(0.000344951 -0.00364216 1.15475e-18)
(7.04176e-05 -0.000396251 3.44196e-19)
(8.37829e-05 -0.00040099 5.16578e-20)
(-0.000460073 1.95138e-05 1.78778e-18)
(-0.000464058 7.93982e-06 9.03799e-18)
(0.0903402 -0.0464821 -1.64117e-17)
(0.0889345 -0.0468844 3.93205e-19)
(0.0949304 -0.0498089 -1.04087e-17)
(0.000272799 -0.000304432 -2.59946e-18)
(0.000263793 -0.000309432 -6.34818e-19)
(1.32509e-05 -0.000170354 -1.74868e-19)
(1.67826e-05 -0.000165339 -6.84759e-20)
(0.00451803 -0.00717868 -8.24904e-18)
(0.00419526 -0.00676747 -1.34055e-17)
(0.108087 -0.064116 3.13317e-18)
(0.0932995 -0.0652689 3.85596e-18)
(0.0937399 -0.065367 -3.32345e-18)
(0.0856945 -0.0431967 1.14486e-18)
(4.23943e-05 0.000206195 -1.88514e-18)
(4.27278e-05 0.000187414 -1.40684e-18)
(-0.000502266 -0.000481213 -2.32126e-18)
(-0.000460531 -0.000489332 4.44178e-18)
(-0.00179611 -0.00816335 1.10621e-17)
(-0.000970117 -0.00754434 1.02913e-17)
(-0.00173196 -0.00818029 -4.6611e-17)
(6.72605e-05 0.000305838 9.99837e-19)
(8.2522e-05 0.000274209 5.52381e-19)
(0.000109006 0.00031314 -9.33269e-19)
(0.00103164 -0.000783365 3.71208e-18)
(0.00110552 -0.000782281 2.26146e-18)
(3.33096e-05 -0.000372845 -2.01963e-19)
(4.08281e-05 -0.000382479 1.92061e-19)
(0.00969638 -0.00559527 2.71988e-17)
(0.0121702 -0.00465544 1.16269e-17)
(0.000223595 8.096e-06 -1.61331e-18)
(0.000242499 3.37916e-05 -9.3156e-19)
(0.000236838 -1.38984e-05 3.04768e-18)
(0.0134063 -0.00801205 -1.93679e-18)
(0.0142213 -0.00774863 2.28764e-18)
(0.0137254 -0.0073402 -7.3571e-18)
(0.0257077 -0.00347238 2.82034e-18)
(0.0265523 -0.00601717 -9.05138e-18)
(0.0285406 -0.00391174 -4.69623e-18)
(0.000180523 0.00314885 -7.08318e-17)
(-5.99822e-05 0.00327412 2.72152e-17)
(0.00015627 0.0034336 -9.34579e-17)
(8.05403e-05 -0.00040262 2.45484e-19)
(6.84005e-05 -0.00039806 -2.08584e-19)
(9.31198e-06 0.000154865 -5.4489e-19)
(5.86199e-06 0.000200408 -2.03149e-18)
(-0.00314955 -0.000266297 -3.75812e-18)
(-0.00327266 -0.000103105 4.74345e-18)
(0.000527159 -0.000393398 1.62714e-18)
(0.000543728 -0.000391226 3.53985e-19)
(0.000530781 -0.000396247 2.74478e-18)
(0.0127701 -0.00812882 2.8975e-17)
(0.0131222 -0.00849593 1.44503e-17)
(0.000277254 -0.00044617 8.71135e-20)
(0.000294469 -0.000440285 -8.61109e-20)
(0.000287537 -0.000458336 -7.72299e-20)
(6.36509e-05 6.30514e-05 5.03946e-19)
(7.47954e-05 5.38906e-05 2.3979e-18)
(4.70845e-05 9.86348e-05 1.30024e-18)
(7.14711e-05 -9.19331e-05 1.64443e-18)
(6.50553e-05 -6.68531e-05 2.16831e-19)
(0.00287298 -0.00361469 -1.29086e-18)
(0.00308296 -0.00381724 2.40367e-18)
(0.00274707 -0.00390826 3.59574e-18)
(0.0461525 -0.0350324 -2.18385e-17)
(0.0457077 -0.036152 -8.42463e-20)
(0.0463272 -0.0362442 8.36417e-19)
(0.0358296 0.000132267 4.39381e-18)
(0.000635158 -0.00123107 -6.06738e-19)
(0.000631804 -0.00113146 -4.31923e-18)
(0.0038381 0.0136616 3.14793e-18)
(0.00288943 0.0129696 -2.24169e-17)
(0.00391374 0.0124059 9.46571e-18)
(-0.000353745 0.000238019 2.08322e-18)
(-0.000329629 0.000211978 1.43819e-18)
(2.84473e-05 -0.000151438 -1.34662e-20)
(2.1592e-05 -0.000160578 1.29277e-19)
(2.23948e-05 -0.000171344 9.21502e-20)
(0.000222294 1.21564e-05 -3.8692e-18)
(0.000222263 2.49234e-05 9.4549e-19)
(0.000233307 9.18071e-06 4.02009e-20)
(0.0231723 -0.00304065 9.12722e-18)
(0.0245332 -0.00135964 2.6009e-17)
(0.00552549 0.00329969 -8.73159e-18)
(0.00749483 0.00190634 -6.42496e-17)
(0.0116334 0.00312211 2.68305e-18)
(0.000380321 0.00489459 7.31282e-18)
(4.49313e-05 0.0047462 -1.00536e-16)
(-0.000115976 0.0050012 -2.92284e-17)
(-0.00979403 -0.0183088 2.78647e-18)
(-0.00893524 -0.0175414 -9.0686e-18)
(0.000621987 -0.000355378 1.66964e-19)
(0.000632953 -0.000360784 -4.29834e-20)
(-0.000259219 -0.000301884 2.64557e-18)
(-0.00025969 -0.000270033 1.50891e-18)
(0.00174264 0.00807185 2.29829e-18)
(0.00142522 0.00900077 1.5749e-18)
(0.00249212 0.00858269 -3.02923e-18)
(-0.000518466 -0.00166429 1.23388e-18)
(-0.000419798 -0.00175004 -3.30224e-18)
(0.0277529 -0.0067308 8.13956e-17)
(0.027136 -0.0064586 1.7567e-17)
(0.000220101 -1.44506e-05 7.47166e-20)
(0.000228709 -3.36712e-05 -7.21187e-18)
(0.000219234 -5.63132e-05 1.51651e-18)
(0.00904589 -0.00419935 3.45028e-17)
(0.00886603 -0.00367351 -1.32138e-17)
(0.00815453 -0.00438287 2.62853e-17)
(0.126633 -0.0628539 -5.37695e-18)
(0.126024 -0.0641113 -4.27446e-19)
(0.126038 -0.0633975 1.80962e-18)
(0.00600226 -0.00501799 -8.3444e-18)
(0.0065802 -0.00517628 -2.19547e-19)
(0.000163971 5.09787e-05 -5.55588e-20)
(0.000161511 4.32478e-05 2.89985e-19)
(0.000165801 7.72963e-05 -6.23524e-19)
(1.17286e-06 3.08004e-06 -6.41127e-20)
(2.27726e-06 2.50107e-06 1.34576e-19)
(1.58751e-05 4.39591e-07 2.5781e-19)
(0.000523946 -0.00029801 5.77534e-18)
(0.000529971 -0.000302344 -7.0423e-18)
(-0.000409003 0.00082634 -1.99242e-17)
(-0.000540924 0.000942936 -2.9058e-17)
(-0.000583046 0.000722324 1.84043e-17)
(0.0168991 0.00303767 -6.43349e-18)
(0.0202749 0.00349409 7.19251e-18)
(0.00311609 -0.00364573 -1.80069e-18)
(0.00309203 -0.00331497 -7.35294e-18)
(2.84088e-05 2.03602e-05 -6.42678e-20)
(2.89564e-05 3.01895e-05 -1.40719e-19)
(3.14789e-05 1.52329e-05 -7.47058e-20)
(1.35355e-05 -0.000162115 5.17476e-20)
(1.91132e-05 -0.000148645 2.85573e-20)
(1.52582e-05 -0.000153645 -4.55758e-20)
(4.21007e-06 0.000171937 -9.7086e-20)
(3.58916e-06 0.000145473 2.23594e-18)
(6.21884e-06 0.000200017 -5.58174e-19)
(0.00449729 0.0143227 -2.83707e-17)
(0.0052605 0.0151962 -1.15713e-17)
(0.00193817 -0.00184141 -2.88799e-18)
(0.0020911 -0.00191229 6.92995e-18)
(0.0020902 -0.00170947 6.21379e-18)
(-0.00015729 0.0030326 -8.04776e-17)
(-0.00010813 0.00317264 8.24378e-18)
(-0.000307722 0.00315762 2.45859e-17)
(0.000334252 -0.000203336 -2.61099e-18)
(0.000351693 -0.000215162 2.63901e-18)
(0.000341917 -0.000227669 -6.26156e-18)
(0.102397 -0.035747 -1.9989e-17)
(0.101567 -0.0222423 1.87158e-20)
(0.102443 -0.0203492 -2.72146e-17)
(0.0303977 -0.00851786 -9.93647e-18)
(0.0309984 -0.0102634 -4.55704e-17)
(0.0123618 -0.00546393 2.11942e-17)
(0.0118637 -0.00630407 2.0823e-17)
(-1.00527e-05 -0.000258743 1.40908e-18)
(-2.58296e-05 -0.000245359 5.10985e-18)
(-1.99746e-05 -0.000244474 -3.74302e-18)
(-0.0331565 0.0232328 3.54945e-18)
(-0.0247766 0.0252197 -5.75765e-18)
(4.01892e-05 -0.000311868 -2.63384e-19)
(3.30521e-05 -0.000312422 1.5407e-19)
(3.60764e-05 -9.21132e-05 3.94874e-18)
(3.49154e-05 -5.70714e-05 3.08204e-18)
(4.63552e-05 -5.65069e-05 -2.15521e-18)
(0.00998541 0.00637094 -5.41242e-17)
(0.00939236 0.003788 9.62094e-18)
(0.01261 0.00437852 -2.61967e-17)
(1.26392e-05 -5.40986e-06 4.01325e-20)
(1.68279e-05 -7.68644e-06 1.38672e-19)
(7.81322e-06 -7.76565e-06 -1.08425e-19)
(2.69281e-06 1.8623e-05 -4.30245e-19)
(3.69983e-06 -5.40809e-06 -8.83943e-19)
(0.01268 -0.00371434 3.45026e-17)
(0.0124878 -0.00451153 -6.44476e-18)
(0.0134589 -0.0044871 -1.16508e-17)
(6.60917e-05 0.000204278 -3.23815e-19)
(6.55881e-05 0.000209971 5.73878e-19)
(7.26231e-05 0.000204927 2.4632e-19)
(-0.0131004 0.0918687 6.60785e-18)
(-0.0101156 0.100786 2.55147e-19)
(-0.00919276 0.0990395 1.64914e-18)
(-0.000600863 -0.00174078 6.04189e-18)
(-0.000595101 -0.00159478 -2.30485e-18)
(0.000115938 0.000186476 -2.60682e-18)
(0.000108701 0.000198989 -9.78941e-19)
(8.833e-05 0.000178409 -5.96393e-18)
(7.57144e-06 -6.05575e-06 -1.6198e-19)
(1.64576e-05 -4.76433e-06 -3.02646e-20)
(0.000429598 -3.96485e-05 -1.57867e-17)
(0.000384657 5.15677e-06 9.30592e-18)
(0.0341331 -0.00331106 -7.38839e-17)
(0.0350503 -0.00250702 2.60241e-17)
(0.0340034 -0.00298337 6.4323e-17)
(-0.00114531 -8.69882e-06 -1.81428e-18)
(-5.07589e-05 -4.98774e-05 -4.92991e-19)
(-4.95147e-05 -5.40731e-05 2.9643e-21)
(-2.61457e-06 0.000107929 -8.82748e-20)
(8.4105e-07 0.000146691 -8.19558e-19)
(1.84436e-06 9.83897e-05 -5.09381e-18)
(0.0165052 -0.0159073 2.19287e-18)
(0.0163469 -0.0147043 -7.13415e-18)
(0.0152338 -0.0155814 -3.2111e-17)
(-0.0261943 -0.0115989 1.52057e-18)
(-0.0278129 -0.0109939 1.03841e-17)
(-0.0289235 -0.00975809 1.61056e-17)
(6.86825e-06 0.000156243 -1.31297e-18)