/*--------------------------------*- C++ -*----------------------------------*\
| =========                 |                                                 |
| \\      /  F ield         | OpenFOAM: The Open Source CFD Toolbox           |
|  \\    /   O peration     | Version:  v2012                                 |
|   \\  /    A nd           | Website:  www.openfoam.com                      |
|    \\/     M anipulation  |                                                 |
\*---------------------------------------------------------------------------*/
FoamFile
{
    version     2.0;
    format      ascii;
    class       surfaceScalarField;
    location    "50";
    object      meshPhi;
}
// * * * * * * * * * * * * * * * * * * * * * * * * * * * * * * * * * * * * * //

dimensions      [0 3 -1 0 0 0 0];
oriented        oriented;


internalField   nonuniform List<scalar> 
27274
(
8.60322e-05
-0.000121525
3.55594e-05
6.62921e-06
-3.06704e-05
2.40412e-05
0.000166175
3.79895e-05
-0.000203165
-0.000148495
6.73628e-06
0.00014694
-8.41241e-05
-7.88364e-05
0.000163577
-3.7847e-05
-4.05465e-05
7.84097e-05
0.000111795
5.08138e-05
-0.000159541
8.21022e-06
6.92934e-05
-7.74791e-05
-0.000105191
-4.11655e-05
-2.67812e-05
3.32154e-05
-6.43421e-06
1.89909e-05
0.000143776
-0.000159807
-2.38073e-05
-9.92907e-06
3.37364e-05
-7.57129e-05
3.13509e-05
4.4369e-05
0.000158667
-0.000183741
2.51873e-05
0.000214453
-8.53816e-05
-0.000128335
-0.000142567
9.15573e-05
5.11449e-05
2.84446e-05
-3.24723e-05
4.02772e-06
-0.000247004
0.000127718
0.000122128
4.24992e-05
0.000119007
-0.000160964
-5.2216e-06
-2.93424e-05
3.45644e-05
-0.000111481
6.93707e-06
0.000104611
-0.000195805
0.000116735
7.92605e-05
3.32858e-05
-3.27375e-05
-5.48247e-07
6.03248e-05
-0.000143902
-4.94749e-05
0.000140686
9.22377e-05
-0.000129461
3.83307e-05
2.27987e-05
-0.000137436
-0.000113552
-1.23566e-05
0.00012594
2.7056e-05
9.53466e-06
-3.65906e-05
-0.000181797
0.0002282
-4.57421e-05
-0.000176275
5.01237e-06
0.00017211
7.71722e-05
-0.000177256
0.00010052
-0.000142157
-0.000101457
-2.37086e-05
9.48676e-06
2.36054e-05
-8.72943e-05
7.82278e-05
9.08752e-06
-1.27558e-05
9.88442e-05
-2.38078e-07
-0.000130175
5.296e-05
1.51679e-05
-6.81234e-05
1.27945e-05
-0.000126335
-1.89493e-05
-0.00014503
0.00016677
0.00018137
-2.25826e-05
3.89841e-05
2.44821e-05
-6.34615e-05
-8.91531e-06
0.000176043
1.79625e-05
-3.32264e-05
1.52639e-05
9.38974e-06
2.22967e-05
-2.26078e-05
-1.91976e-06
5.48828e-05
-6.48591e-05
-1.71228e-05
8.20079e-05
-0.00014195
0.00011707
2.49113e-05
5.49324e-05
4.12779e-05
-9.61775e-05
-7.60149e-06
0.000143355
-0.000133413
8.06222e-05
-0.00015553
7.84485e-05
-0.000215733
0.000182308
3.46681e-05
-2.67091e-05
2.73261e-05
-4.63643e-07
3.61639e-05
-1.1347e-05
-2.48168e-05
0.000155026
-5.83749e-05
-9.50515e-05
8.22335e-06
6.1845e-06
-9.28439e-06
-7.15254e-05
1.46565e-06
7.00738e-05
8.24666e-05
0.000132499
3.68699e-05
-1.58251e-05
-2.10448e-05
7.52918e-05
-2.77508e-05
-4.75348e-05
-0.000133577
0.000128206
5.72918e-05
3.02453e-05
-8.75109e-05
-0.00019589
7.50472e-05
0.000123604
9.37514e-05
-4.75303e-05
-4.61992e-05
-3.0217e-05
6.40967e-06
-7.56302e-05
-4.58194e-05
3.36114e-05
-1.76705e-05
-1.59409e-05
-6.64953e-05
-2.99131e-05
9.64173e-05
-0.00013563
-0.000112587
-8.30348e-05
5.03439e-05
2.8296e-05
-7.86249e-05
1.00849e-06
1.29569e-05
-1.29026e-05
2.93598e-05
4.59372e-05
-4.59285e-05
-0.000122107
0.000170499
-7.50458e-05
8.32828e-05
0.000163995
-4.98244e-05
1.09902e-05
-4.0669e-05
2.96791e-05
-0.000100888
-4.79359e-05
0.000149217
-0.000130476
9.40283e-05
3.66039e-05
0.000157037
-0.000188766
3.31182e-05
-0.000124716
0.000178838
-5.31104e-05
4.60403e-05
7.07115e-06
1.65272e-05
-0.000127915
-4.6477e-05
8.16067e-05
-3.51101e-05
0.000133014
-3.98895e-05
-1.55703e-05
-6.01345e-05
3.69303e-05
-1.96899e-05
-1.72404e-05
3.46822e-05
-3.99033e-05
3.88432e-05
-1.17873e-05
-3.09155e-05
3.75416e-05
-6.62606e-06
5.53019e-05
-5.56392e-06
-4.97355e-05
-2.50865e-05
4.67236e-05
-2.36102e-05
0.000129877
-0.000105002
-0.000175984
0.00014485
3.57167e-05
3.51593e-05
-3.51593e-05
2.88839e-06
3.03974e-05
-3.39799e-05
-0.00011358
0.000148748
-0.000115782
-1.43998e-05
0.00013037
1.11801e-05
2.49838e-05
2.69306e-05
4.58399e-06
-3.15146e-05
2.85224e-05
-3.26406e-05
4.11824e-06
4.57951e-06
2.42654e-05
-2.88449e-05
6.63273e-05
5.54582e-05
-0.000121746
-1.25809e-05
5.02505e-05
-3.76687e-05
-5.18438e-05
-0.000100409
0.000152815
-7.21579e-05
9.42076e-06
6.27466e-05
-1.4432e-05
-1.48786e-05
2.93106e-05
6.64611e-05
-4.65668e-05
-1.98902e-05
-0.000132983
8.31638e-05
4.989e-05
-2.92214e-05
-2.76326e-05
7.0313e-05
-0.000195467
0.000125817
0.000105014
3.37793e-05
-0.00013876
7.25277e-05
-0.000121987
4.98212e-05
0.000154037
-4.89944e-05
-3.20671e-05
4.08614e-05
-8.79421e-06
-2.48269e-05
-3.70224e-06
3.46183e-05
-1.93054e-05
2.80632e-05
-8.75781e-06
-2.75953e-05
3.85857e-05
2.56991e-05
-2.85797e-05
2.88058e-06
-3.09881e-05
9.73505e-05
-3.31045e-05
6.32332e-06
-4.59078e-05
4.31757e-05
2.73296e-06
5.21879e-05
-0.000152707
-2.14503e-05
7.18067e-05
-0.000150396
0.000117619
3.26891e-05
3.37755e-05
-0.000184941
-2.9232e-05
-3.90929e-05
3.47601e-05
4.05797e-06
-5.55699e-05
2.26229e-05
3.29476e-05
-1.96583e-05
-0.000151303
-7.95036e-05
0.000163589
-1.91349e-05
-2.72343e-05
4.637e-05
9.46096e-05
-2.71175e-05
-6.74591e-05
2.70706e-05
-0.000142659
5.06424e-05
3.2265e-05
-8.2894e-05
-3.47307e-05
-3.93009e-06
0.0001227
-0.00024164
0.000119744
-0.000110941
0.000132392
-0.000160981
0.000228116
-6.66923e-05
6.05529e-05
1.32687e-05
-7.38117e-05
2.25482e-06
2.62676e-05
-2.69943e-05
-3.7875e-06
3.07818e-05
-0.000151535
0.000168812
-1.69202e-05
-7.87618e-05
0.000149608
2.40045e-05
2.26488e-05
-4.66533e-05
-2.63294e-06
0.000152347
-0.000149522
5.42646e-05
-0.000124074
6.9807e-05
2.91161e-05
-3.69889e-05
7.87288e-06
-0.000161387
3.52281e-05
0.000126428
-1.11336e-07
2.92275e-05
-0.00018193
0.000156362
2.62306e-05
0.000114248
-6.58899e-05
-2.13905e-05
1.57721e-05
2.10978e-05
-8.03901e-05
-3.01887e-06
8.34291e-05
-1.93519e-05
1.31178e-05
6.84291e-06
2.48374e-05
-4.39715e-05
2.06877e-07
2.54922e-05
-1.05165e-05
-8.36089e-06
2.14276e-05
-8.55995e-05
6.4194e-05
-0.000141316
7.90547e-05
6.23428e-05
0.000152654
-6.122e-05
-9.12454e-05
-5.6368e-05
0.000103014
-4.662e-05
-9.82159e-05
0.000125459
6.53e-05
-1.23547e-06
-6.40593e-05
-2.33943e-07
-3.48391e-05
3.50731e-05
4.22193e-05
-1.00399e-05
-3.21793e-05
6.66962e-05
3.67829e-05
-0.000103442
9.69161e-07
4.80094e-05
-4.89753e-05
-0.000127416
-4.80683e-05
0.000177758
4.66421e-05
-4.24009e-05
-4.24117e-06
-3.63227e-05
1.41081e-05
2.22146e-05
0.000181848
-0.000109047
-6.90628e-05
-0.000157358
0.000178697
-1.80187e-05
-9.65889e-05
-4.58298e-05
-3.61429e-05
2.26138e-05
1.35292e-05
6.20787e-05
3.86991e-05
-0.000100739
0.000100251
-0.000143959
4.47657e-05
-1.87093e-05
-3.68597e-05
4.15265e-05
-2.84326e-05
-1.30938e-05
-4.20853e-05
7.43197e-05
-3.22351e-05
-3.76733e-05
3.8645e-05
-0.000106081
-1.47303e-05
0.000120944
6.3587e-05
8.09081e-05
-0.000141065
3.05399e-05
-6.68847e-05
3.63482e-05
3.20547e-05
7.28854e-07
-3.27835e-05
4.07062e-05
-3.6455e-06
-3.70606e-05
6.06897e-05
-6.37677e-06
-5.43093e-05
0.000159537
-0.00012528
-3.4242e-05
-6.39103e-06
3.48356e-05
-7.85674e-05
-0.000192589
0.000167035
2.64845e-05
3.36018e-05
-0.000131639
-5.64777e-05
3.60076e-05
2.04708e-05
-1.81762e-05
-6.08113e-05
7.89982e-05
-1.41713e-05
0.000142018
-0.000127657
-7.30718e-06
4.24359e-05
-3.51278e-05
2.71077e-05
-0.000133054
-6.38059e-05
-3.37299e-05
9.75919e-05
2.77476e-05
2.382e-05
-0.000129829
0.000106384
-8.1923e-05
0.000143369
-6.13858e-05
-3.94579e-05
4.34593e-06
3.51121e-05
1.05187e-05
3.01875e-05
1.95489e-05
-3.41729e-05
1.4624e-05
5.99353e-05
5.2771e-05
-0.000112635
1.17252e-05
-3.10305e-05
-4.47553e-05
1.82926e-05
2.64627e-05
-4.04777e-05
1.17924e-05
2.86853e-05
5.03236e-05
-0.000114066
-5.09292e-06
0.000128475
-0.000150251
-3.1098e-05
-6.22603e-06
3.866e-05
-3.24335e-05
1.15343e-05
-0.000162678
-0.000186641
6.22919e-05
-1.03073e-05
-4.28018e-05
6.21007e-05
-2.1441e-05
-4.06581e-05
2.84566e-05
-5.25729e-05
0.000125047
-0.000143171
-1.78887e-05
6.20143e-05
-4.41935e-05
-1.78192e-05
0.000218994
-0.000171543
-4.6789e-05
-8.93278e-05
4.28752e-05
-9.48111e-05
-0.000145821
3.73932e-05
4.8262e-06
-0.000181326
4.06638e-05
0.000140949
-3.98656e-05
1.35054e-05
2.63603e-05
3.24772e-05
-3.16093e-05
-8.67889e-07
2.57664e-05
2.88332e-05
-5.45996e-05
0.000155433
-0.000159673
-2.14164e-05
-5.11676e-06
-9.41622e-05
-3.61434e-05
-8.82221e-05
0.000139873
-5.15358e-05
-4.92392e-06
-3.49416e-05
-0.000153165
0.000151426
2.03105e-06
9.61321e-05
-0.000129621
3.43869e-05
0.000112884
-1.15053e-05
-4.31841e-05
5.97335e-05
-1.65466e-05
-9.8178e-06
-3.64024e-05
4.62217e-05
-9.72111e-06
-6.15736e-05
-7.13103e-05
4.43617e-05
2.10596e-05
-6.54174e-05
0.000159671
-5.27215e-05
4.58136e-05
-0.000204128
0.000161292
0.000158556
2.59758e-05
-0.000184271
4.58449e-06
2.78927e-05
-5.31465e-05
9.99832e-06
4.31489e-05
-3.04332e-05
9.48897e-06
2.09442e-05
1.05178e-05
-9.08857e-05
-8.32529e-05
-5.79702e-05
0.000132038
-0.000107849
1.59879e-05
9.72154e-06
-2.57095e-05
-8.94129e-05
0.000116641
-5.41972e-06
-3.50579e-05
-7.73011e-05
0.000156027
-7.83896e-05
-7.55084e-06
3.35581e-05
-2.60073e-05
-1.27124e-06
4.95503e-05
-4.82778e-05
-6.15112e-05
8.29593e-05
-0.000190149
0.000162522
2.81873e-05
1.25797e-05
1.00892e-05
-1.49756e-05
4.24987e-05
-0.000118057
-8.71454e-05
3.61414e-05
5.10169e-05
1.09177e-06
-4.05495e-05
6.57278e-05
2.89111e-05
-0.000163109
7.2471e-05
9.46498e-05
0.000133912
4.16592e-05
-0.000172745
-3.82625e-05
1.56837e-05
2.31195e-05
6.36123e-06
4.1651e-05
-7.00946e-05
6.63034e-05
3.79702e-06
-3.03379e-05
-3.52294e-05
6.5567e-05
7.98717e-05
6.83474e-05
-0.000148037
1.51948e-06
-2.25398e-05
2.10203e-05
1.84624e-05
4.22302e-05
-4.08748e-06
-6.80618e-05
0.00012103
-0.00018662
6.61346e-05
4.1103e-05
-4.84092e-05
0.000208376
-4.99456e-05
-4.33376e-05
0.000169175
-0.000125149
4.68863e-05
-3.09378e-05
-1.59483e-05
8.45802e-07
2.45765e-05
-1.79933e-05
2.22403e-05
0.00014387
1.86911e-05
-7.6039e-05
5.73581e-05
-0.000157498
0.000208649
-4.98469e-05
8.11042e-06
-3.10704e-05
2.29599e-05
3.30679e-05
-0.000122357
-6.8968e-05
-5.98616e-05
0.000128844
-1.78792e-05
2.65263e-05
-2.57194e-05
9.24488e-05
-3.31724e-05
3.14245e-05
1.74795e-06
0.000129679
-0.000163472
2.03191e-05
0.00019885
-3.60108e-05
-0.000162941
7.23599e-05
-1.13091e-05
-6.10437e-05
-2.76312e-05
-5.42566e-06
3.30569e-05
-2.60498e-05
-1.21035e-05
2.01663e-06
2.12663e-07
-1.79609e-06
3.35252e-05
2.85766e-05
2.93261e-05
-8.07322e-05
5.14292e-05
-9.76977e-05
1.58029e-05
8.19158e-05
2.10297e-05
-4.69704e-05
2.59412e-05
0.000131311
-0.000173896
-5.88347e-05
0.000181175
-0.000145942
-3.50867e-05
3.69087e-06
-9.20624e-07
-3.26768e-05
5.37071e-05
1.82283e-05
4.70757e-05
7.96076e-05
-2.83201e-05
-5.12836e-05
2.45484e-05
4.78178e-05
-0.000158739
0.000143641
-6.09733e-05
1.88874e-05
0.000167947
-0.000147587
0.000184695
-0.000141594
-3.40784e-06
-4.97377e-05
-7.60112e-05
0.000212332
-0.000135382
5.07259e-05
-3.06288e-05
6.96179e-05
-0.000122274
9.97746e-05
4.94861e-05
-0.0001505
0.000105492
-2.70744e-05
4.8137e-05
-9.77777e-06
2.53486e-05
-1.55708e-05
-1.11187e-05
-3.36365e-05
-9.72567e-05
0.00015841
-6.06899e-05
-0.000115165
5.88274e-05
-1.34111e-05
3.13735e-05
-1.00357e-05
0.000157348
-0.000145941
-5.27688e-05
4.29526e-05
0.000113649
3.0145e-05
-0.000143606
-4.53015e-05
0.000109354
-6.40202e-05
-1.0563e-06
-5.17106e-05
-1.13669e-06
-0.000152578
-2.61829e-05
2.5949e-05
0.000144317
-0.000178871
3.51092e-05
9.17991e-05
-4.11434e-05
-1.22573e-07
-9.2301e-06
1.31055e-05
-8.71572e-05
-2.41651e-05
2.75531e-05
-3.38802e-06
-2.20972e-05
3.32427e-05
-1.11388e-05
2.22902e-05
1.92364e-05
-7.42224e-05
-2.69054e-05
0.000101195
5.29686e-07
0.000141498
-0.000141817
-9.90382e-05
3.42095e-05
9.34441e-05
-3.61284e-05
1.19995e-05
2.99555e-05
-4.19543e-05
4.00611e-05
-6.16684e-07
-3.94444e-05
-1.48646e-05
-4.16121e-05
-0.000157386
8.04306e-05
-9.13743e-05
-0.000102336
-4.14667e-05
3.00313e-05
1.14355e-05
-2.71259e-05
-3.75372e-05
6.46622e-05
-3.33961e-05
-9.75479e-05
0.000131895
0.000133432
-0.000182273
4.91534e-05
4.34669e-05
3.61442e-05
-1.96383e-05
5.01808e-05
3.5066e-05
-1.90782e-05
-5.57079e-06
-3.58959e-05
0.000141644
-0.000146868
5.59302e-06
-5.2863e-05
-8.90432e-05
0.000142222
2.29916e-05
-2.7557e-05
4.5654e-06
-2.96633e-05
-0.000165066
5.3736e-06
-0.000158224
-1.81843e-05
4.471e-05
-2.65239e-05
4.42752e-05
5.93499e-05
-0.000103569
-8.43453e-05
0.000135225
-5.0608e-05
2.13604e-05
-3.11381e-05
-2.53939e-05
2.56509e-05
-1.85269e-08
3.69761e-05
4.41788e-05
-8.11481e-05
3.48725e-05
2.71431e-05
-1.5647e-05
-1.3623e-05
-0.000115077
-4.30799e-05
-3.48984e-05
-0.00013091
0.000166112
-4.93469e-05
-8.29556e-05
0.000132737
8.28831e-06
0.000149541
-0.000156497
1.75475e-05
-5.71677e-05
3.96234e-05
-0.000123091
0.000132497
-9.84115e-05
1.11515e-05
8.72959e-05
0.000133306
-0.000182066
-0.000148358
9.20474e-05
5.64675e-05
0.000133121
9.00119e-06
-0.000127923
2.27187e-05
-0.000230173
7.41777e-05
0.00015715
-0.000210158
0.000112858
9.78723e-05
-0.000126485
-3.86858e-05
0.000166197
6.12532e-05
-0.000186564
0.000146367
-9.2377e-05
-5.38223e-05
-1.38733e-05
4.48574e-05
-3.09839e-05
-2.11293e-05
3.65368e-05
-1.54076e-05
-0.000208707
0.000114652
-4.73621e-05
3.15371e-06
4.42089e-05
5.75575e-05
-0.000110784
5.32527e-05
-3.75262e-05
1.63969e-05
-0.000106033
0.00010538
7.35995e-07
1.12544e-06
-6.68136e-05
6.57017e-05
0.0001369
2.18716e-05
-4.59308e-05
9.17375e-06
3.67577e-05
-0.000129674
7.38962e-06
-2.66535e-05
0.00013611
-3.91796e-05
-4.09611e-05
0.000163661
-0.000119
9.46311e-06
3.05981e-05
-0.000162488
9.41043e-05
6.86084e-05
-7.35078e-06
3.66684e-05
9.65084e-05
-5.00854e-05
-4.63869e-05
7.55167e-06
-0.000105918
-0.000182436
0.00015346
0.000121445
-0.000130343
3.22236e-05
-3.26011e-05
3.77588e-07
-0.000126586
2.49081e-05
-2.99217e-05
0.000147117
3.50101e-05
-0.000180719
-3.07692e-05
3.35984e-07
-3.04188e-05
2.95777e-06
2.7461e-05
3.4795e-05
-5.29772e-05
0.000120626
-6.63679e-05
0.000116699
-2.9454e-05
-3.71839e-06
-1.81258e-05
2.02525e-05
-0.000202439
0.000198
5.63621e-06
2.39895e-05
1.10765e-05
-1.89766e-05
2.52475e-05
-5.30889e-06
3.6487e-05
-0.000143138
-3.02693e-05
2.38783e-05
0.000123261
-0.000166751
-2.84006e-05
4.23549e-06
-5.62725e-05
-4.27117e-05
9.90311e-05
-5.52909e-05
-3.65316e-05
9.18532e-05
-3.20815e-05
1.66273e-06
0.000188662
-7.94626e-05
-0.000109157
-2.60536e-05
-0.000175128
-4.24217e-05
1.53738e-05
2.70481e-05
4.38466e-05
-8.1677e-05
3.16164e-05
3.17048e-05
-4.42849e-05
1.48619e-05
0.000145551
-0.000159923
-9.70971e-05
0.000164449
6.41468e-06
0.00014611
-6.50098e-05
3.55441e-05
2.94667e-05
8.79105e-05
-5.70122e-05
-3.08845e-05
0.000177053
-5.7567e-05
-9.08326e-06
-5.49211e-06
1.5301e-05
-0.000150362
0.000162287
7.40625e-05
-3.70821e-05
-7.86638e-07
2.37782e-05
-3.61769e-05
-8.34674e-05
0.000119728
0.000120462
-0.000113909
2.36863e-05
-2.9973e-06
-2.05459e-05
1.4063e-05
-0.000120004
-7.25271e-06
-4.31967e-05
5.04514e-05
-3.32636e-05
5.63238e-06
2.52267e-05
-3.27775e-05
-4.08861e-05
-2.48379e-06
4.33704e-05
4.02221e-05
3.31529e-05
-7.33722e-05
4.73457e-05
-8.18835e-05
3.45449e-05
-3.07563e-05
-2.47006e-06
-0.000139328
0.000181236
-4.11194e-05
7.30067e-05
0.000103424
-0.000173567
5.50722e-05
-0.000151206
-5.65712e-05
1.91651e-05
-5.83304e-05
3.91679e-05
1.31557e-05
0.000141973
-0.000154534
-2.3403e-05
-6.16511e-06
3.30957e-05
5.7767e-05
1.62999e-05
-4.40728e-05
6.4614e-06
-3.73768e-05
-2.67644e-05
6.69886e-05
3.73505e-06
2.83196e-05
-0.000154209
0.000186365
-3.1288e-05
-0.000167672
-0.000190446
0.000156714
3.43065e-05
-0.000141273
1.94989e-05
-1.01213e-05
1.4903e-06
1.82109e-06
-2.66133e-05
0.000158599
-8.76671e-07
-3.47183e-05
3.5595e-05
-0.000195355
9.86416e-05
-2.8661e-05
-0.000113991
0.000146788
-4.23698e-05
-3.5369e-06
1.10842e-05
3.67486e-05
-4.78287e-05
-8.61091e-05
0.00016172
0.00016609
-1.00502e-05
-0.000155595
6.09613e-05
-8.79845e-05
2.70313e-05
2.48318e-05
2.20546e-05
-0.000164877
6.84529e-05
-0.000203191
0.0001418
6.26264e-05
4.37049e-05
4.59771e-05
-0.000127833
-7.96984e-06
-2.83018e-05
3.62717e-05
0.000112635
1.46538e-05
0.000136097
-3.43373e-05
2.06934e-05
1.36439e-05
-3.7526e-05
4.86143e-05
-0.000174497
0.000132742
4.48971e-05
3.69303e-05
-1.4503e-06
-3.54799e-05
2.52713e-05
1.95116e-06
-2.72224e-05
1.5095e-05
-3.97725e-05
2.46776e-05
0.000155979
-0.000140064
-8.65214e-05
-0.000115402
-0.000137268
4.91635e-05
-6.87344e-05
3.70831e-07
6.83711e-05
0.000134379
-0.000132783
-1.571e-06
3.33714e-05
-3.18519e-05
-2.3641e-05
-4.13676e-05
-4.18914e-05
-5.46992e-06
5.53233e-05
-1.72018e-05
-3.81205e-05
-0.000158451
0.000121182
-0.000108833
5.26108e-05
-3.20162e-05
2.83089e-05
3.70727e-06
-3.34342e-05
-3.5668e-05
3.20796e-06
3.24602e-05
0.000107654
5.86327e-05
-0.000166085
7.93317e-05
-0.000126778
4.7523e-05
0.000150106
-7.09526e-05
-2.09882e-05
-8.79222e-06
2.97804e-05
-2.54807e-05
3.00602e-05
-9.1465e-06
6.44505e-05
-0.000139724
-4.13288e-05
-0.000132482
-2.82158e-05
-3.67851e-05
0.000128834
-9.18394e-05
6.5168e-05
2.27546e-05
0.000137779
-0.000163679
-3.9163e-05
-3.25825e-06
0.000105175
4.50086e-05
-3.73121e-05
5.24512e-06
5.08818e-05
0.000122849
-0.000173479
3.98032e-05
-0.000189712
-8.99669e-06
2.8756e-05
2.76367e-05
-9.41207e-05
0.000113666
-6.89607e-05
-4.4654e-05
4.32805e-05
-5.05313e-05
-0.000143862
-3.45309e-05
0.000179756
1.73842e-05
-6.32171e-05
4.58413e-05
-3.7666e-05
6.35142e-06
3.13147e-05
-0.00011059
-3.48398e-06
0.000114184
-3.57915e-05
-0.00015368
-7.27883e-06
-0.000109034
0.000116359
-7.65717e-05
-3.64625e-05
0.000113142
-2.31255e-06
1.98138e-05
-1.69805e-05
0.00010824
6.81492e-06
-0.000114979
9.46505e-05
2.59403e-05
-0.000136401
-6.25952e-05
5.25386e-05
1.00606e-05
0.000139082
-0.000137134
-3.38613e-05
-0.000151432
3.95737e-06
-2.61717e-05
7.77425e-05
-0.000103425
7.34791e-05
-0.000157532
-5.53304e-05
-0.000174395
2.10832e-05
-9.98519e-05
0.000160652
-5.02357e-05
0.000121812
-0.000144337
2.71403e-05
-0.000103801
4.73825e-05
5.64116e-05
8.03405e-05
4.43467e-05
-0.000124644
6.0888e-05
-5.20737e-05
-8.81028e-06
4.75065e-05
-0.000116456
-2.20571e-05
3.15203e-05
5.35905e-05
-0.000162708
0.000109553
-1.79159e-05
-1.13541e-05
8.65038e-05
-0.000129253
4.2794e-05
-9.91619e-05
-4.27535e-05
-3.48994e-05
3.36291e-05
-3.13881e-05
-3.66376e-05
4.24638e-05
-5.82575e-06
0.000126611
-0.000129969
-7.50718e-05
-8.71577e-05
3.09951e-05
0.000126144
0.000204357
-0.00019854
-4.98227e-06
-7.92207e-06
-5.90807e-05
6.70141e-05
-3.41553e-05
-5.15689e-05
8.57514e-05
0.00010502
-4.16459e-05
-6.33413e-05
1.70855e-05
-6.88553e-05
5.17768e-05
-2.78709e-05
5.355e-05
2.66365e-06
-5.6209e-05
-1.73369e-05
-3.26883e-06
2.78734e-05
3.62955e-05
-2.91037e-05
-7.19176e-06
-5.08238e-05
2.58911e-05
2.49332e-05
0.000179215
-2.60219e-05
-0.000152735
5.10307e-05
0.000153663
-6.42196e-05
-3.95833e-05
1.94807e-05
1.8061e-05
-7.12666e-05
0.000113834
-6.17374e-05
5.82541e-05
4.52637e-06
3.34432e-05
-7.05948e-05
3.71519e-05
1.80156e-06
-6.43919e-05
1.36124e-05
6.46344e-05
5.79454e-05
-9.30516e-05
3.51156e-05
4.07762e-05
-2.46556e-05
-1.61205e-05
-0.000136437
0.000122221
-7.72706e-05
7.90956e-05
-1.81607e-06
-1.41508e-05
-1.41085e-05
2.82594e-05
-4.28281e-05
4.17733e-05
3.97686e-05
-5.11012e-06
-5.77584e-05
6.28737e-05
-5.81764e-05
1.49951e-05
0.00012895
-1.24247e-06
-0.000127563
-6.94189e-06
2.01348e-05
0.000131671
1.70031e-05
-0.000198042
5.40865e-05
-3.00821e-05
-1.94936e-05
4.7551e-05
-2.80576e-05
-2.19263e-05
-1.42166e-05
-5.03938e-05
3.65208e-05
2.5304e-05
5.5389e-06
-3.08429e-05
-2.9941e-05
2.97255e-05
2.15516e-07
-4.20291e-05
7.54723e-05
0.000135519
-4.38395e-05
3.17601e-05
-3.17628e-05
2.75138e-09
4.44043e-05
-4.25599e-05
-1.84403e-06
0.000127229
-6.03578e-05
2.25473e-05
3.78107e-05
6.24882e-06
-2.95765e-05
2.33277e-05
-4.69693e-05
4.44755e-05
2.49448e-06
-0.000100992
6.48815e-05
0.000145766
-4.97604e-05
-9.17965e-05
1.63537e-05
-0.000152575
9.19027e-05
5.30683e-05
-0.000144775
5.83888e-05
-0.000134835
-8.40114e-05
7.33832e-05
1.06419e-05
-0.000181162
0.000105988
-1.74376e-05
-1.18324e-05
6.0922e-05
8.56049e-05
9.22902e-05
-0.0001358
4.35991e-05
-2.90543e-05
8.06611e-06
-0.000157404
0.000185746
-2.73373e-05
5.02196e-05
6.34985e-05
5.28946e-06
-4.09572e-05
-0.000207158
0.000182428
0.00017185
-9.30608e-05
-7.84462e-05
-3.26744e-05
3.34069e-05
-7.3247e-07
0.000109516
-3.97901e-05
-6.33246e-05
5.45054e-05
-3.71135e-05
0.000124606
3.46896e-05
-2.01027e-05
-1.45869e-05
1.73113e-05
0.000109412
8.65378e-05
2.77893e-05
-0.000114271
5.97491e-05
7.02839e-05
-0.000145084
7.49477e-05
-6.41117e-05
-4.61434e-06
9.31035e-05
-0.000130797
3.76877e-05
-3.00521e-05
2.99408e-05
7.92539e-05
1.48241e-05
-9.40567e-05
0.000171459
-5.71722e-06
-0.000164866
-1.62102e-05
-1.30598e-05
2.927e-05
-6.41932e-06
9.30036e-05
1.45934e-05
1.62298e-06
-2.28672e-05
2.12442e-05
-4.90867e-05
6.718e-06
-4.87585e-05
-0.000160232
8.19096e-05
-0.000168128
0.000142043
2.94404e-05
2.72686e-05
-1.99736e-06
-9.84995e-05
9.12601e-05
0.000104002
4.30339e-06
3.70532e-06
-4.30678e-05
4.0901e-05
0.000114351
-4.45415e-05
3.65598e-06
-4.30518e-05
3.34205e-05
9.63149e-06
8.89289e-05
-3.27815e-05
1.48656e-05
-3.86812e-05
5.78485e-05
-0.000151672
2.27758e-05
0.00012908
5.17822e-05
9.79583e-05
-5.63506e-05
4.64852e-05
5.00553e-05
-2.75381e-05
-4.25496e-05
-3.64236e-05
-0.000128244
0.000166118
-4.32544e-05
6.61728e-06
-5.19059e-05
0.000111899
8.48122e-05
1.66766e-05
1.14568e-05
-1.839e-05
3.15106e-05
2.72997e-05
0.000108747
0.000119913
3.65044e-05
3.37567e-05
-8.24745e-05
4.87347e-05
-4.34078e-05
1.35284e-06
0.00017298
-3.72636e-05
2.51568e-05
6.2139e-06
-3.13707e-05
-1.55005e-05
2.72099e-05
0.000136188
-0.000163243
-0.000190882
-6.8076e-06
7.1072e-05
3.99505e-06
-7.50578e-05
8.54551e-05
-4.41481e-05
0.000132027
-3.78409e-05
-6.86832e-05
4.15565e-05
-0.000113839
-9.57345e-05
-2.70717e-05
-4.94445e-06
5.14723e-05
-0.000102097
5.06555e-05
-0.000168052
0.000138289
3.00334e-05
-8.19121e-06
-3.93084e-05
4.74997e-05
-1.37742e-05
2.78824e-05
0.000130685
2.0368e-05
-0.000148911
-1.12241e-05
-3.18274e-05
0.000113016
-0.000102471
-1.85835e-05
-0.000187232
1.36391e-05
0.000120799
-7.71259e-05
9.28712e-05
-1.5746e-05
-3.31211e-05
2.96423e-05
3.4788e-06
-0.000113161
3.89958e-05
-2.83776e-05
1.42268e-05
-0.00012582
8.44793e-05
4.13921e-05
4.40874e-05
-1.62909e-05
-2.77963e-05
2.89187e-05
2.64054e-05
-0.000120018
0.000118911
-4.91297e-06
-0.0001627
0.0001281
-5.27408e-05
1.97967e-05
3.29443e-05
0.000140482
2.32652e-05
1.36651e-05
2.76571e-05
-2.10279e-05
-0.000178442
0.000130516
4.82897e-05
9.73826e-06
-3.05466e-05
2.08084e-05
8.07613e-05
5.17815e-05
-0.000132413
9.88161e-05
-1.22824e-05
4.6843e-05
-9.40361e-06
-3.7439e-05
-7.3281e-05
3.57214e-05
3.75602e-05
-3.17644e-05
2.31041e-06
6.2364e-05
0.000118449
-0.000177946
2.09231e-05
-4.29801e-05
-0.000183423
3.44901e-05
0.000149279
-4.15305e-05
1.14785e-05
-0.000184351
0.000100146
8.47627e-05
2.90347e-05
7.6214e-05
9.73614e-05
-0.000133699
-2.38151e-06
0.000184496
-0.000179941
-4.24877e-05
1.47394e-05
3.69795e-05
0.000107119
-6.13488e-05
-4.5734e-05
8.35989e-06
-4.51395e-05
-1.82908e-06
4.30301e-05
-0.000136801
-4.3268e-06
3.17653e-05
-2.74385e-05
2.10307e-05
-0.000140894
-0.000171301
0.000170974
-0.0001281
9.15755e-05
-0.00012841
7.94032e-05
4.90484e-05
6.00053e-05
-5.32827e-05
-6.7165e-06
3.79094e-05
8.93399e-06
-0.000120461
7.36413e-06
-1.26147e-05
-4.21486e-06
0.00010772
2.49197e-05
-0.000132535
2.50534e-05
1.5808e-05
-7.1885e-05
5.64413e-05
0.000156734
6.12031e-05
0.000124936
0.000109871
-2.06223e-06
0.000131965
-8.10761e-05
-5.07859e-05
-3.23895e-05
1.49519e-05
3.74162e-05
-0.000193739
-3.04494e-05
-1.45337e-05
4.49838e-05
-6.22012e-05
4.40325e-05
-1.94592e-05
-3.1364e-05
-1.63022e-05
3.13972e-05
1.83905e-05
1.52209e-05
0.000138043
-9.93044e-05
-3.38505e-05
9.20854e-05
-3.48898e-05
-5.71597e-05
-0.000200422
-6.55929e-05
-9.69934e-05
0.000162982
8.33262e-05
4.88215e-05
-0.000132015
-2.42021e-05
3.04509e-05
-0.000103419
0.000152469
-4.45827e-05
0.000149588
-0.000117484
7.92087e-06
-2.35051e-05
2.46108e-05
-1.4831e-05
-0.000132382
0.00012946
3.01128e-06
5.47184e-05
0.000117377
-0.000105343
9.34985e-05
1.18932e-05
-0.000113113
4.19167e-05
3.59235e-05
-1.23844e-06
-3.46849e-05
-3.29216e-05
1.84896e-05
-3.88891e-05
-0.000120616
0.000161095
0.00016953
-0.000166381
-2.94612e-06
3.22781e-05
-0.000127131
3.94708e-05
-3.30683e-05
-6.4025e-06
-2.43357e-05
-6.33474e-06
4.11953e-05
-3.5002e-05
-6.19325e-06
1.80107e-05
-5.06868e-05
5.62703e-05
-4.28602e-05
-1.34088e-05
1.79256e-05
-4.69181e-05
2.89933e-05
0.000114785
7.6383e-05
-0.000129123
0.000171519
-3.3708e-05
0.000178538
0.000128523
-0.000160945
3.25709e-05
-0.000131383
9.89145e-05
0.000155876
4.20779e-05
-4.30123e-05
9.34836e-07
7.18883e-06
2.79704e-05
-2.67374e-05
0.000148248
6.94702e-05
-4.80501e-05
-2.1419e-05
-0.000112669
7.40351e-05
4.42644e-05
-0.00012033
-3.11643e-05
-8.59086e-05
9.35002e-05
7.53471e-05
8.0843e-05
0.000108897
0.000120023
5.20751e-05
4.0708e-05
-1.80593e-05
-2.49956e-05
3.44846e-05
-5.86026e-05
-5.81704e-07
5.91994e-05
-2.95126e-05
-2.2518e-06
-2.36414e-05
7.09928e-05
1.36303e-05
-3.13009e-05
5.2055e-05
1.42535e-05
8.92397e-06
2.97364e-05
3.91785e-05
-3.4019e-05
-5.15937e-06
-3.85105e-05
9.00104e-05
-3.7964e-05
2.98187e-07
-3.31805e-06
5.68721e-05
-2.7901e-05
2.9524e-05
0.000146961
2.96806e-05
-0.000175554
0.000148615
0.000113292
2.53892e-05
-0.000135736
0.000125674
3.17612e-05
2.66267e-05
-5.83872e-05
-4.99334e-05
-1.25221e-05
2.55464e-05
-1.32002e-05
-6.60438e-05
8.3429e-05
-1.73729e-05
-9.4513e-05
2.18744e-05
7.74535e-05
6.4541e-05
2.92257e-05
-9.38162e-05
4.63108e-05
5.96736e-06
1.82764e-05
-2.28973e-05
-2.97183e-05
-9.71644e-06
3.94354e-05
0.000160828
-5.64706e-07
-0.000159403
-1.40851e-05
1.13327e-05
5.9747e-05
-0.000129184
0.000172787
-4.04114e-05
-6.00439e-05
1.10291e-05
4.90181e-05
-4.31272e-05
2.36335e-05
-5.795e-05
0.000167846
-0.000109546
3.44966e-05
0.000119153
-0.000153194
9.34027e-06
-0.000178498
3.81329e-05
3.16108e-05
-6.97371e-05
-9.60337e-05
-6.28525e-05
-0.000138352
8.18543e-05
5.6706e-05
4.72927e-05
-5.61967e-05
8.90513e-06
0.000176029
-0.000160739
-1.52779e-05
-3.81165e-05
2.44858e-05
1.36308e-05
-0.000137804
0.000191781
-5.33136e-05
-3.52937e-05
2.9723e-05
-8.45293e-05
0.000136616
-5.1825e-05
-6.21318e-05
-3.40624e-06
6.55499e-05
-0.000171764
5.48961e-06
0.000167461
9.01936e-05
-4.61654e-05
-4.40054e-05
2.47952e-05
-0.000110658
-2.99952e-05
0.000106518
0.000101951
-0.000159561
-5.80892e-06
-3.23075e-05
0.000138439
8.11248e-05
2.86913e-05
-2.80494e-05
-6.41887e-07
2.59385e-05
1.31703e-06
-2.72555e-05
-6.63636e-05
0.000146385
-8.53122e-06
1.16949e-05
7.42809e-05
-0.00013146
-9.79538e-05
0.000146171
-4.5066e-05
-6.50333e-06
3.16601e-05
-0.000193476
3.38236e-06
-3.18765e-06
-3.2106e-05
-2.53486e-05
-9.81069e-06
-9.42481e-05
1.35378e-05
-3.60611e-05
2.06812e-05
1.538e-05
-1.63297e-05
3.48344e-05
0.000153676
-0.000193655
4.09689e-05
2.51769e-05
2.7051e-05
1.21275e-05
7.63558e-05
1.67414e-05
-0.00016928
0.000129635
4.08035e-05
-0.000165158
-2.46999e-05
-0.00013867
-0.000153032
3.98086e-05
0.000113625
4.91154e-05
3.42769e-05
-8.33831e-05
-2.5128e-05
3.96782e-05
-1.45502e-05
5.12984e-05
9.38885e-05
-0.00014504
2.54016e-05
-3.02756e-05
2.59488e-05
5.47522e-05
-1.61134e-05
-3.86373e-05
-9.3231e-06
7.67666e-05
-6.74348e-05
-0.000105153
-3.67278e-05
0.000142493
-1.73408e-05
2.81029e-05
-1.07621e-05
-1.96192e-05
-8.43927e-05
-2.09073e-05
2.57715e-05
-0.000196413
3.68384e-05
-0.000181637
0.000145003
3.76503e-05
-3.53572e-05
-2.29293e-06
0.000151499
9.81867e-06
2.48709e-05
-4.07793e-05
-6.45153e-06
-1.34348e-05
2.05592e-05
-8.42361e-05
-4.41335e-05
-3.43109e-05
3.94835e-05
1.92841e-06
-9.16874e-05
-2.87034e-05
-2.41156e-05
-7.4796e-05
9.90179e-05
9.00956e-06
-9.74284e-05
0.000139736
-0.000110664
-2.43521e-05
-3.57984e-05
-0.000116794
1.78826e-05
1.55756e-05
-3.34582e-05
3.8236e-05
-2.18546e-05
-1.54075e-05
0.000101981
1.49075e-05
1.83079e-05
0.000161604
-0.000124591
-0.000187493
3.13549e-05
-4.68418e-05
9.10275e-05
2.56046e-05
1.02441e-05
-3.58486e-05
9.318e-05
2.08501e-05
-0.000113942
3.45784e-05
-5.23305e-06
-2.93454e-05
-2.22255e-07
-0.000129469
-0.000173738
8.62549e-05
7.32564e-05
3.33923e-06
2.84208e-05
-3.92831e-05
3.1092e-05
-1.07341e-05
-2.51602e-05
3.58943e-05
1.33059e-05
-2.02285e-05
8.5591e-05
-0.000145961
-3.23153e-05
1.65833e-05
1.79951e-05
6.94839e-05
-0.000189076
0.000121573
2.01216e-05
-4.98391e-05
-3.27602e-05
-3.59404e-05
2.9437e-05
5.29885e-05
-3.32864e-05
-1.8134e-05
-6.53691e-05
5.80137e-05
1.29697e-05
2.40511e-05
3.22202e-05
7.65175e-05
-0.00016343
8.75154e-05
-1.24945e-05
3.03771e-05
-0.000172245
3.37094e-05
-2.4261e-05
3.39993e-05
-1.632e-05
0.000177113
-0.000132625
0.000101883
1.52024e-05
1.29526e-05
-4.3401e-05
-9.82121e-06
3.51067e-05
-2.52855e-05
9.00286e-05
4.99499e-05
0.000135586
-0.000167455
3.23532e-05
8.49293e-05
0.000103846
0.000155931
0.000121999
-0.000157042
-1.77625e-05
5.06545e-06
1.28262e-05
4.89798e-05
-6.17995e-05
2.05979e-05
0.000113253
-0.000133539
4.31576e-05
-3.22137e-05
-1.09437e-05
-0.000168035
7.63181e-05
9.1887e-05
2.76724e-05
1.17985e-05
0.000147498
-0.000174163
2.7651e-05
-0.000129091
-4.26669e-06
0.000136238
4.9841e-05
-1.17523e-05
-3.80875e-05
-3.6615e-05
2.17675e-05
1.48475e-05
4.04694e-05
-6.56607e-06
-3.3903e-05
-9.74037e-05
0.000170952
-7.32215e-05
1.32261e-05
-3.29159e-05
0.000177381
-2.89266e-05
-3.87601e-05
1.60867e-05
2.26734e-05
0.000101769
-5.51754e-05
6.13009e-05
-6.12163e-06
-0.000158207
-2.91395e-05
2.30824e-05
-3.93844e-05
-0.000194835
0.00015406
4.18939e-05
7.64402e-05
-0.000100449
-0.000127797
0.000128522
-3.1273e-05
-0.000150451
0.00018254
2.65407e-05
-2.83768e-05
-3.16763e-05
-5.63576e-06
5.0729e-05
-4.04685e-05
-1.02595e-05
-3.40098e-05
2.02312e-05
1.37787e-05
-6.76083e-05
5.82929e-05
6.43204e-05
7.16545e-05
-0.000135794
8.04514e-05
7.23761e-05
1.88617e-05
-0.00013154
0.000115516
3.01775e-05
-0.000140405
3.7481e-05
7.83128e-05
-0.000103772
-6.43819e-05
4.34186e-06
-5.06609e-05
-0.000132932
1.63106e-06
2.01458e-05
-2.17768e-05
8.2337e-05