/*--------------------------------*- C++ -*----------------------------------*\
| =========                 |                                                 |
| \\      /  F ield         | OpenFOAM: The Open Source CFD Toolbox           |
|  \\    /   O peration     | Version:  v2012                                 |
|   \\  /    A nd           | Website:  www.openfoam.com                      |
|    \\/     M anipulation  |                                                 |
\*---------------------------------------------------------------------------*/
FoamFile
{
    version     2.0;
    format      ascii;
    class       surfaceVectorField;
    location    "50";
    object      Uf_0;
}
// * * * * * * * * * * * * * * * * * * * * * * * * * * * * * * * * * * * * * //

dimensions      [0 1 -1 0 0 0 0];


internalField   nonuniform List<vector> 
27274
(
(1.09544 0.086377 2.36379e-22)
(1.09232 0.0844246 -1.02343e-20)
(1.09212 0.0884378 -2.00661e-20)
(0.173588 -0.0306671 -1.7253e-21)
(0.178578 -0.0355681 7.58357e-21)
(0.157533 -0.0271388 -1.46739e-20)
(1.00299 0.0219148 -1.06695e-21)
(1.00277 0.0212625 -5.41639e-22)
(1.00337 0.0215024 5.7509e-22)
(1.01497 0.00549335 -1.08227e-22)
(1.01537 0.00554537 -1.31018e-21)
(1.01526 0.00587806 1.12563e-21)
(1.04603 -0.00181009 -7.85581e-22)
(1.0461 -0.000992268 -4.80642e-21)
(1.04706 -0.00167242 -6.48756e-21)
(1.11214 -0.0534663 -3.1019e-21)
(1.1144 -0.0524854 -2.66934e-21)
(1.11411 -0.055516 1.10383e-21)
(1.0037 0.00752313 -3.18942e-22)
(1.00348 0.00730334 3.9932e-22)
(1.00366 0.00724403 -9.21554e-22)
(1.15349 0.0275033 -1.94855e-21)
(1.15529 0.0239819 2.67325e-20)
(1.15136 0.0246073 -2.10883e-20)
(0.940196 -0.00927564 1.63627e-21)
(0.937762 -0.0100706 1.89068e-20)
(0.0179784 -0.0345958 0)
(0.00602277 -0.02883 0)
(0.0240994 -0.0325002 3.1725e-20)
(1.02306 0.00104252 2.98153e-21)
(1.02327 0.00132026 1.54101e-21)
(1.02276 0.00122741 1.06433e-21)
(-0.279871 0.00378916 1.77723e-20)
(-0.283167 0.00295956 3.07236e-20)
(-0.307107 0.0033718 -3.95388e-20)
(1.19475 0.0168609 7.20516e-20)
(1.19661 0.0143327 3.44535e-20)
(1.19865 0.018053 3.04171e-20)
(0.986802 0.00474109 -1.37074e-22)
(0.987049 0.00535206 -1.54936e-21)
(0.987454 0.00474605 3.65309e-21)
(1.02409 0.0369611 2.8615e-21)
(1.02496 0.036182 -2.44721e-21)
(1.02367 0.0357374 -1.72344e-21)
(0.985857 0.0694196 -6.66638e-22)
(0.984155 0.0711143 -3.81542e-21)
(0.983475 0.0685982 -9.25829e-23)
(-0.247603 0.00826754 3.72489e-20)
(-0.22463 0.00984624 -4.42028e-20)
(-0.239046 0.00777628 0)
(1.01517 0.0107355 -1.29162e-21)
(1.01562 0.0110688 -1.72155e-21)
(1.01499 0.0110511 1.31199e-21)
(1.00288 0.0351804 9.74491e-22)
(1.00339 0.0361927 0)
(1.00402 0.0352076 2.15402e-21)
(0.541674 -0.131711 9.48254e-22)
(0.559289 -0.129412 1.25508e-20)
(0.518856 -0.131446 -8.64003e-21)
(0.965452 0.0851202 0)
(0.965374 0.0880168 0)
(0.962443 0.0855673 1.51307e-20)
(0.974504 0.0319713 -2.72793e-22)
(0.973415 0.0308772 -2.59349e-21)
(0.973031 0.0324908 4.47461e-22)
(-0.010568 -0.0548652 4.85842e-21)
(0.028952 -0.0591405 -3.36965e-20)
(0.0118291 -0.0582395 0)
(1.04594 -0.00252033 -6.92744e-22)
(1.04519 -0.00187432 9.13322e-22)
(1.05852 -0.0132874 2.16367e-21)
(1.05918 -0.014489 1.50323e-21)
(0.999062 0.00257473 -3.39058e-21)
(0.999153 0.00261659 2.92424e-21)
(0.999171 0.00238056 9.94804e-22)
(0.996352 -0.00103363 3.7158e-21)
(0.996157 -0.000805509 1.03687e-21)
(0.943536 0.00310029 -1.22795e-21)
(0.941537 0.00326183 -1.244e-20)
(0.94272 0.00117939 0)
(-0.0560169 -0.164363 3.98073e-21)
(-0.0510843 -0.176627 -4.14148e-21)
(-0.0377703 -0.170267 8.95729e-21)
(0.993081 0.0229761 1.9549e-22)
(0.992241 0.0230941 5.14701e-21)
(0.992811 0.0240053 9.18091e-21)
(1.03837 -0.00343375 -2.67165e-21)
(1.03897 -0.00298991 -2.03983e-22)
(1.0391 -0.00369367 3.27908e-21)
(1.05359 -0.00401529 0)
(1.05275 -0.00435431 -7.12036e-21)
(1.05369 -0.00512342 5.43961e-21)
(1.01474 0.0103949 -8.02385e-22)
(1.01531 0.0103998 -5.51521e-23)
(1.00954 0.000543923 -4.28327e-22)
(1.00976 0.000611267 -4.15402e-22)
(1.01014 0.000742275 1.43582e-22)
(1.12523 0.13583 9.99546e-21)
(1.12888 0.140523 -1.83694e-21)
(1.1313 0.13527 1.06946e-20)
(1.09841 0.0852201 1.77827e-21)
(1.09805 0.0890814 2.33222e-20)
(0.956548 -0.00635089 -1.63519e-20)
(0.954798 -0.00548019 1.05401e-20)
(1.16712 0.273324 -3.72919e-20)
(1.15803 0.276996 2.87704e-20)
(1.16039 0.266716 1.56005e-20)
(0.945585 0.00349909 1.00245e-20)
(0.943935 0.00547463 1.05353e-20)
(1.02349 0.00155911 -1.42422e-21)
(1.02336 0.00182954 -6.80644e-22)
(1.02385 0.00180859 -3.10865e-21)
(0.98647 0.00425067 1.40419e-21)
(0.986165 0.00485526 2.43156e-21)
(0.924909 0.310592 3.61566e-21)
(0.933415 0.319026 5.03746e-21)
(0.936998 0.30552 1.07446e-20)
(1.00321 0.022566 -2.58788e-23)
(1.00258 0.0222911 1.88228e-22)
(-0.0951147 -0.0184563 -1.98568e-20)
(-0.0773881 -0.0246221 -1.72272e-20)
(-0.0912892 -0.0172734 1.46394e-20)
(1.01569 1.82904e-05 7.18925e-22)
(1.01588 2.214e-05 2.20247e-21)
(1.01488 0.000165337 -6.35987e-22)
(1.17474 0.270334 -5.30522e-20)
(1.17287 0.280402 -4.7168e-20)
(1.14088 0.0812974 -3.9854e-21)
(1.1429 0.0785508 -2.70079e-21)
(1.14507 0.0825498 1.28442e-21)
(0.934447 0.0240199 -5.5007e-21)
(0.932693 0.0221267 -6.88966e-22)
(0.935544 0.0212975 -1.13049e-22)
(1.13243 0.0801833 1.11965e-20)
(1.12988 0.0835705 0)
(1.12822 0.0795251 2.16505e-20)
(1.01441 0.0118947 3.34077e-22)
(1.01484 0.0121962 0)
(1.01463 0.0116474 -2.8308e-23)
(1.02027 0.0033015 1.91522e-21)
(1.02007 0.00304581 0)
(1.02048 0.00307072 0)
(1.01611 0.0224476 -1.22369e-22)
(1.01615 0.0231051 1.75596e-22)
(1.01549 0.0225551 5.32622e-22)
(0.999987 0.0004769 3.14952e-21)
(0.999971 0.000462158 0)
(0.999992 0.000309534 0)
(0.278782 -0.0924557 8.15251e-21)
(0.299633 -0.0978469 0)
(0.320418 -0.10055 0)
(1.00006 0.00527995 -3.36823e-21)
(1.00015 0.00543719 0)
(1.0001 0.00511124 0)
(1.00154 0.000307371 -9.69913e-23)
(1.00167 0.000309111 -5.77552e-22)
(1.0015 0.000175976 1.44546e-22)
(1.06102 -0.0527745 -2.99621e-21)
(1.06143 -0.0546886 -3.3365e-21)
(1.0592 -0.0539055 1.59112e-21)
(1.02332 0.0374105 4.41231e-22)
(1.02448 0.0377157 6.21574e-22)
(0.112174 0.420279 7.58776e-21)
(0.0984234 0.465241 6.9839e-20)
(0.143958 0.443235 -1.47297e-20)
(1.21566 0.154587 -1.47029e-20)
(1.21423 0.149015 1.06035e-20)
(1.20885 0.153007 2.0616e-20)
(1.01401 0.0115728 4.81655e-22)
(1.01413 0.0121926 -7.92192e-22)
(1.13169 -0.0272448 1.72579e-21)
(1.13346 -0.0248931 8.05207e-21)
(1.1301 -0.0242494 2.54238e-20)
(1.01624 0.0100776 8.10129e-22)
(1.01616 0.0104783 1.05324e-21)
(1.01667 0.010449 -6.89655e-22)
(1.00619 0.197324 6.81631e-22)
(1.0057 0.190623 2.60232e-23)
(1.01196 0.193304 -4.86482e-22)
(-0.257009 0.00315354 1.51868e-20)
(-0.278866 0.00358049 -4.53283e-20)
(1.08918 0.0826955 0)
(1.09217 0.0808335 -1.01367e-20)
(-0.0256036 0.0270697 -7.86168e-21)
(0.0155321 -0.0520625 2.15703e-21)
(-0.0160859 0.0504414 -1.61801e-20)
(0.858557 0.0490674 -9.98179e-21)
(0.853088 0.0518758 2.74173e-20)
(0.853614 0.0439942 -4.15707e-20)
(0.996594 -0.000918357 4.80311e-21)
(0.975686 0.0330507 3.21558e-21)
(0.975978 0.0314878 -2.5524e-21)
(1.1553 0.110319 -1.4828e-20)
(1.15834 0.105962 1.72627e-20)
(1.15333 0.106476 3.05543e-21)
(1.00007 0.000446958 8.81069e-22)
(1.00005 0.000384796 -1.01022e-21)
(1.00006 0.000363534 1.81815e-21)
(1.2171 0.160276 -1.5891e-20)
(1.22214 0.154652 2.40815e-22)
(1.01134 0.011428 5.68573e-23)
(1.01096 0.0112376 -4.83945e-23)
(1.01113 0.0116789 1.13401e-22)
(1.15148 0.0311637 -4.38903e-21)
(1.15581 0.0308024 -2.2241e-21)
(1.00379 0.00776061 5.85256e-23)
(1.00394 0.00770298 4.99459e-22)
(0.715472 -0.153091 1.53526e-20)
(0.751984 -0.15636 1.50525e-20)
(0.683993 -0.150491 -7.69104e-21)
(1.05342 -0.00219137 -2.4009e-21)
(1.05359 -0.00125462 5.66338e-21)
(1.05453 -0.00227242 7.86208e-21)
(1.06728 -0.0160807 -3.91036e-21)
(1.06796 -0.0169557 4.36277e-21)
(1.06848 -0.0160155 0)
(1.01574 0.0202832 -1.53612e-22)
(1.01556 0.0196091 -1.47198e-22)
(1.01509 0.0198573 -2.39596e-22)
(1.00325 0.00701358 -1.04305e-21)
(1.00324 0.00729335 8.91515e-22)
(1.21359 0.35174 -9.83612e-21)
(1.22016 0.358713 -2.21036e-20)
(1.20841 0.361897 -2.08977e-20)
(0.965551 0.0816746 0)
(0.968797 0.0840319 6.96168e-21)
(1.05272 0.183143 -6.32345e-21)
(1.05549 0.188767 -2.49993e-21)
(1.05848 0.182566 -6.5866e-22)
(0.998987 0.00256299 -1.47452e-21)
(0.998976 0.00279972 -7.32557e-21)
(1.19294 0.0203946 -1.80536e-20)
(1.19077 0.0164376 7.67445e-21)
(0.360881 -0.103711 0)
(0.363884 -0.110523 -1.10053e-20)
(0.364031 -0.0965322 0)
(0.513896 -0.134706 5.83406e-21)
(0.562519 -0.132489 -1.79907e-22)
(-0.064958 -0.157381 0)
(-0.0577174 -0.148367 -3.28845e-21)
(0.255513 -0.10302 -3.18625e-20)
(0.208043 -0.093668 4.38129e-21)
(0.236084 -0.100007 -5.67055e-21)
(1.173 -0.133051 -7.01341e-21)
(1.16737 -0.131272 3.51563e-20)
(1.17167 -0.126304 5.7556e-20)
(1.0155 -7.31277e-06 -5.73077e-22)
(1.01607 9.75278e-05 3.61521e-22)
(0.999685 0.00457325 1.85777e-21)
(0.999642 0.0043374 6.87551e-22)
(0.999724 0.00430223 9.89571e-22)
(1.01947 0.000952867 -9.81671e-22)
(1.01977 0.00102832 1.54978e-22)
(1.01959 0.000815708 4.16764e-21)
(-0.0118941 -0.134975 7.65649e-22)
(-0.0116687 -0.125167 3.41995e-21)
(-0.0312789 -0.0505453 7.58481e-22)
(-0.0455618 -0.0491551 4.09398e-20)
(1.02482 0.0172847 1.69175e-21)
(1.02517 0.0167936 1.98948e-21)
(1.02552 0.0175832 3.16761e-21)
(1.07202 0.0043231 2.21952e-21)
(1.07236 0.00560891 1.3458e-22)
(1.07357 0.0041049 7.50275e-21)
(0.259473 -0.0881555 -1.07362e-21)
(0.241084 -0.0862228 7.86537e-21)
(-0.191279 0.0100298 1.24425e-23)
(-0.182627 0.00923857 0)
(-0.16875 0.0134846 4.52673e-20)
(-0.0354969 -0.0662255 -1.19923e-20)
(-0.0332018 -0.0531637 1.92913e-20)
(-0.0217526 -0.0407703 0)
(-0.202044 0.00783768 0)
(-0.211307 0.00690767 -2.36732e-20)
(-0.189097 0.0104475 1.01278e-20)
(1.08834 0.144654 6.38736e-21)
(1.09468 0.144033 -5.48994e-21)
(1.08977 0.139584 -4.11213e-22)
(1.14148 -0.175325 -2.50724e-20)
(1.12095 -0.177408 6.90682e-21)
(1.15797 -0.173864 -7.03177e-20)
(1.04641 -0.00656596 -8.84765e-21)
(1.04647 -0.00580668 2.43976e-21)
(1.04733 -0.00645171 -3.0088e-21)
(1.16047 -0.0481473 -3.24949e-21)
(1.15864 -0.0516474 0)
(1.16326 -0.0512354 -9.06187e-22)
(-0.319327 0.00219481 3.63751e-20)
(-0.318896 0.00141236 -5.18657e-20)
(-0.345149 0.000564955 8.4057e-20)
(1.10865 0.311945 0)
(1.10327 0.304132 1.02949e-20)
(1.1139 0.301965 0)
(1.09911 0.0298081 -1.46467e-20)
(1.10088 0.0310984 8.53845e-21)
(1.10125 0.0284499 -1.76721e-20)
(0.495254 -0.301633 3.33046e-20)
(0.47089 -0.327298 3.56346e-20)
(0.996968 0.0225298 8.85565e-22)
(0.997547 0.0229169 9.04677e-22)
(0.996913 0.0233874 6.11927e-21)
(0.949276 0.0143444 3.81301e-23)
(0.951336 0.0140719 4.24665e-21)
(0.950572 0.016251 -2.17578e-20)
(0.998944 0.00175179 3.32744e-22)
(0.998913 0.00194252 2.69485e-21)
(0.998811 0.00189143 2.43808e-21)
(0.947781 0.0128326 1.26382e-20)
(0.947107 0.0150528 -6.23206e-21)
(0.33587 -0.0817591 -2.77916e-21)
(0.304494 -0.0732718 -7.92139e-21)
(0.320628 -0.0799667 0)
(1.00265 0.000770758 0)
(1.00283 0.000847174 0)
(1.00267 0.00100192 0)
(0.0739253 -0.302227 4.97685e-20)
(0.0644718 -0.335729 1.91031e-20)
(0.0499314 -0.326961 4.36398e-20)
(0.744193 -0.154779 8.14423e-21)
(0.680841 -0.150387 -1.36628e-20)
(0.0789832 0.316415 -5.04098e-20)
(0.0709689 0.343584 -9.95428e-20)
(0.0514549 0.340699 -1.0311e-19)
(1.08282 0.145849 -1.06109e-20)
(1.08766 0.150848 -2.09259e-20)
(0.0314097 -0.0406192 -2.52548e-20)
(0.0121211 -0.0362009 0)
(1.3462 0.151334 0)
(1.32005 0.142165 0)
(1.33876 0.153979 0)
(1.05352 -0.00315782 -7.53421e-21)
(1.0525 -0.00230982 -7.98036e-21)
(1.15269 0.112847 -2.96686e-20)
(1.15713 0.113098 -5.12216e-20)
(1.02416 0.0169689 2.49433e-21)
(1.02444 0.0177762 -6.02467e-22)
(1.10391 0.320874 0)
(1.11459 0.318906 0)
(1.01602 0.0216519 -3.17059e-22)
(1.01682 0.02218 -3.2566e-22)
(1 0.0008804 -8.21498e-22)
(0.999996 0.000911216 2.75998e-21)
(0.999993 0.000710761 -2.04605e-21)
(1.32361 0.265501 -9.42883e-21)
(1.30102 0.26092 7.48806e-21)
(1.25502 0.237774 5.87126e-20)
(1.01933 0.00112917 -4.33006e-21)
(1.01915 0.00087653 -4.34145e-21)
(1.02006 0.0034914 1.81447e-22)
(1.02047 0.00351452 2.45326e-21)
(1.16241 -0.116548 -4.30584e-20)
(1.17376 -0.112329 2.97532e-20)
(1.09991 -0.111878 3.25286e-20)
(1.12563 -0.00277504 2.05766e-20)
(1.12312 -0.00361509 2.81884e-20)
(1.12378 -0.00118699 -4.04498e-21)
(1.07194 0.00279268 -6.30126e-22)
(1.0706 0.00425058 -9.65062e-21)
(0.905363 0.189253 2.17611e-21)
(0.903862 0.180876 -6.13137e-22)
(0.911819 0.183967 7.40953e-21)
(1.00001 0.000882192 -1.14303e-21)
(0.999985 0.00105969 -1.60504e-21)
(1.0208 0.0293632 -9.92348e-24)
(1.02121 0.0288668 -1.02034e-21)
(1.02181 0.0293763 -7.95211e-22)
(1.02292 0.000791357 0)
(1.02329 0.000828402 2.12534e-21)
(0.991817 0.013781 -3.22328e-22)
(0.991105 0.0137395 -1.48187e-21)
(0.991318 0.014572 -3.47287e-21)
(1.15446 0.181135 -2.70492e-20)
(1.14785 0.182922 2.1445e-20)
(1.14944 0.176696 2.61309e-20)
(-0.0462171 -0.0869429 -1.39493e-20)
(-0.0350189 -0.0787564 5.38961e-21)
(-0.0690787 -0.163465 5.452e-21)
(-0.0626632 -0.158902 0)
(-0.065509 -0.169025 4.75284e-21)
(0.996813 0.046172 -8.46807e-22)
(0.995529 0.0472584 -3.1291e-21)
(0.997562 0.0476925 3.0049e-21)
(0.99697 0.0218684 -7.63593e-22)
(0.996372 0.0222907 -2.79571e-21)
(0.391982 0.00937787 -8.40038e-20)
(0.364931 0.0103351 1.04671e-19)
(0.37878 0.0353837 9.62975e-20)
(0.973547 0.0292511 -1.69164e-22)
(0.973349 0.0277157 0)
(0.974697 0.0284441 -3.40149e-21)
(0.91143 -0.00121446 -1.75732e-20)
(0.909202 0.00159419 3.0513e-20)
(0.907726 -0.00212121 -1.46207e-22)
(0.331346 -0.155682 -1.09583e-20)
(0.346921 -0.140576 2.60405e-20)
(0.345443 -0.137315 -4.1593e-21)
(1.06105 0.0141489 1.39038e-20)
(1.06171 0.013276 2.00812e-21)
(1.06238 0.0145778 1.19219e-21)
(0.315723 -0.170296 -7.58879e-21)
(0.320639 -0.172558 3.11041e-21)
(1.04472 0.00419764 2.73048e-22)
(1.04577 0.00428063 -8.06651e-21)
(1.04517 0.00348504 -3.11807e-21)
(0.972283 0.0298596 6.27039e-21)
(1.12336 0.132639 -1.7773e-20)
(1.12145 0.136339 0)
(0.131815 0.377585 -5.04579e-20)
(0.0840803 0.375598 2.10203e-20)
(1.0857 -0.0529621 1.07428e-21)
(1.08749 -0.0536506 -1.49295e-22)
(1.08568 -0.054865 -1.14673e-20)
(1.00004 0.000426319 -2.22096e-21)
(1.00004 0.0005163 1.61044e-21)
(1.00001 0.000356583 -2.06591e-21)
(1.15405 -0.121024 -2.04457e-20)
(1.20498 -0.121827 -7.23334e-20)
(0.0989729 0.298846 1.76894e-19)
(0.0703522 0.288865 3.88026e-20)
(1.00004 0.000491541 -2.5151e-22)
(1.00003 0.000361779 -2.69499e-21)
(1.14006 -0.0249609 -1.0568e-20)
(1.13678 -0.0253495 -1.8599e-20)
(1.13901 -0.0279945 -1.64022e-20)
(1.00821 0.102696 -1.36477e-23)
(1.00531 0.103878 -8.61807e-22)
(1.00881 0.105784 1.07236e-22)
(1.04775 0.0662187 6.24115e-21)
(1.04892 0.0641076 6.45923e-21)
(1.04637 0.0642957 -2.35775e-21)
(0.906364 0.0883728 -5.37664e-21)
(0.901328 0.0887457 8.6131e-21)
(0.905518 0.0935337 1.11447e-20)
(1.07189 0.00159188 -2.49551e-21)
(1.07328 0.00158816 -5.61496e-21)
(1.0598 -0.0919218 1.57204e-20)
(1.05856 -0.0892589 6.78481e-21)
(1.06179 -0.0899311 -7.73567e-22)
(0.490696 0.6871 -9.7533e-21)
(0.516308 0.645678 -5.19345e-21)
(0.46102 0.636137 4.05047e-21)
(0.114398 0.0371294 2.13899e-20)
(0.156037 0.0427341 4.55481e-20)
(0.209098 0.0524361 -5.78678e-20)
(1.11923 0.0948836 -6.62338e-21)
(1.12282 0.0918675 1.93716e-20)
(1.11768 0.0906354 2.19507e-20)
(1.25125 0.00163005 -9.95485e-21)
(1.25566 0.00486848 2.35436e-20)
(1.24941 0.00612354 1.94697e-20)
(1.01313 0.01146 -3.2787e-22)
(1.01355 0.0114658 1.66345e-23)
(1.01342 0.0118577 4.99904e-22)
(-0.0239178 -0.208424 1.28155e-20)
(-0.0356255 -0.210706 1.81353e-21)
(-0.0322524 -0.211686 2.09967e-20)
(-0.0561463 -0.0471743 1.57179e-20)
(-0.0810336 -0.04305 1.68228e-20)
(-0.0888498 -0.0416427 -1.45521e-20)
(1.02214 0.00179129 -9.58362e-26)
(1.02168 0.0018503 -1.02471e-23)
(1.02175 0.00152271 2.0599e-21)
(1.02253 0.00182634 -3.93938e-24)
(1.02297 0.00180905 -6.96932e-22)
(1.02256 0.0015095 -2.20687e-21)
(0.987539 0.067717 -1.65928e-21)
(0.988359 0.0700314 4.6349e-22)
(0.238281 -0.023264 0)
(0.227351 -0.0181535 -3.35106e-21)
(0.218944 -0.0167278 -8.00519e-22)
(1.07587 -0.0400235 -4.28398e-21)
(1.07688 -0.0403645 1.0116e-21)
(1.07655 -0.0392112 -4.30274e-21)
(0.999974 0.00453266 -1.1312e-22)
(1.00004 0.0046096 2.81818e-22)
(0.999995 0.00485275 4.69698e-21)
(1.33437 0.256584 2.18544e-20)
(1.33284 0.264988 -7.00271e-20)
(0.266463 0.136208 -4.45835e-20)
(0.537306 0.252934 2.53044e-20)
(0.390481 0.178297 5.62795e-20)
(0.658227 -0.124144 2.37354e-20)
(0.673402 -0.132168 2.46432e-20)
(0.674224 -0.115179 -3.34525e-20)
(1.24796 -0.00153375 -7.343e-20)
(1.25344 -0.00278149 -5.95118e-20)
(1.08267 0.0121624 8.90927e-22)
(1.08283 0.0137757 1.19167e-20)
(1.08453 0.0122034 2.06057e-20)
(1.00503 0.00681512 -1.54085e-22)
(1.00528 0.0069603 -5.3628e-22)
(1.00519 0.00664503 -1.17866e-24)
(1.07598 -0.10686 -9.47055e-21)
(1.07901 -0.106456 -7.60946e-21)
(1.07794 -0.109981 4.81346e-21)
(0.246239 -0.0178774 -8.06377e-22)
(0.262994 -0.0235619 2.11555e-20)
(0.264606 -0.0274559 7.50021e-21)
(0.139969 -0.0877684 0)
(0.171613 -0.0909592 -1.30046e-20)
(0.189628 -0.0928192 2.73554e-21)
(1.17785 -0.10313 -9.96447e-22)
(1.17294 -0.102257 3.1066e-20)
(1.17613 -0.0986555 2.08998e-20)
(0.938277 0.000738621 2.9072e-20)
(0.939271 0.00319665 5.18719e-21)
(0.936031 0.00302323 1.03817e-20)
(-0.253949 0.0072197 -1.26906e-20)
(-0.264642 0.00648516 -4.81292e-20)
(1.0623 -0.0518772 2.50145e-22)
(1.00343 0.0233076 1.19112e-21)
(1.00294 0.0236584 3.79282e-22)
(1.0036 0.0239674 3.2726e-21)
(1.07182 0.000292311 0)
(1.07062 0.00152954 1.00155e-20)
(1.11677 -0.179481 1.19583e-20)
(1.07652 -0.179094 0)
(1.09321 -0.178819 1.24954e-20)
(0.889351 0.209456 3.02143e-21)
(0.888293 0.200245 2.97176e-21)
(0.878842 0.204856 2.00423e-20)
(0.97587 0.034452 -3.5263e-21)
(0.974546 0.0355954 -4.75562e-21)
(0.976479 0.0362166 7.01724e-21)
(1.24418 -0.0115864 -6.52727e-21)
(1.19147 -0.0193098 -1.97545e-20)
(1.26579 -0.0123783 -2.27632e-20)
(1.08275 0.0102861 -1.13012e-20)
(1.08101 0.0118841 -1.15461e-20)
(1.10607 -0.00301296 -3.64614e-21)
(1.10676 -0.00109606 8.90356e-21)
(1.10828 -0.00333334 1.30006e-21)
(1.02245 0.00209377 1.3893e-21)
(1.05335 0.0200403 0)
(1.05291 0.0189565 -2.81535e-21)
(1.05421 0.0193105 2.82467e-21)
(0.941816 0.0419025 0)
(0.938896 0.0413442 -8.83187e-21)
(0.940327 0.0447847 -8.08297e-21)
(0.174847 0.0788224 2.70775e-21)
(0.109481 0.055859 0)
(0.0647176 0.0434409 1.8299e-20)
(0.111296 -0.0805317 -2.20408e-21)
(0.100048 -0.0783093 7.43417e-21)
(-0.327963 0.00173307 3.50284e-20)
(-0.370702 0.00143743 3.30514e-20)
(-0.31574 0.000131088 -7.52705e-20)
(0.992285 0.117486 -1.81306e-21)
(0.989937 0.114156 0)
(0.994311 0.112865 0)
(0.105026 -0.291502 -2.56284e-20)
(0.0818078 -0.265925 0)
(-0.0656754 0.0118863 -3.85543e-20)
(-0.0853753 0.0108993 1.50953e-22)
(-0.0990187 0.0124376 0)
(-0.0703641 0.011161 0)
(-0.088574 0.00855146 0)
(-0.0997533 0.00822742 -3.24751e-20)
(1.10537 -0.00532986 -1.00259e-21)
(1.10376 -0.00314431 0)
(1.02012 0.0298138 -1.21157e-21)
(1.02066 0.0305654 6.50024e-22)
(1.0439 0.00397567 9.72538e-21)
(1.04432 0.00483705 5.42458e-21)
(0.492323 -0.137468 -5.05829e-21)
(0.469476 -0.14101 -5.78609e-21)
(0.510053 -0.137633 -1.37898e-20)
(0.996283 0.0447385 -4.30968e-22)
(0.998024 0.0454307 1.54262e-22)
(1.01288 0.0109691 -6.3925e-22)
(1.01268 0.0113165 -2.55505e-22)
(1.21831 0.342152 1.90763e-20)
(1.21046 0.346292 0)
(0.883922 -0.113055 3.32728e-21)
(0.927602 -0.111125 9.60722e-21)
(0.92715 -0.109518 -1.23117e-20)
(0.474903 -0.137384 7.11466e-21)
(0.99905 0.00164136 -2.84912e-21)
(0.998966 0.00160485 -4.18533e-21)
(1.05976 0.0136422 -9.95926e-21)
(1.06017 0.0151763 -3.77178e-21)
(1.25354 0.259361 -5.92116e-21)
(1.24855 0.257417 1.6849e-20)
(1.25456 0.251134 -2.87748e-20)
(0.992573 0.0150695 1.19604e-21)
(0.99315 0.0151905 9.80851e-22)
(0.992803 0.0158229 -5.39056e-22)
(1.05072 0.176712 -2.02676e-21)
(1.04653 0.182677 6.01969e-23)
(1.02191 0.0283126 5.26495e-22)
(1.02071 0.0280174 -1.59828e-21)
(0.0483198 0.032509 -3.44209e-20)
(0.085707 0.0369717 0)
(0.984193 0.0345116 -4.52466e-21)
(0.983461 0.0332498 4.01559e-22)
(0.982714 0.0347401 -6.34439e-21)
(-0.0970546 0.0109381 3.13155e-20)
(-0.111731 0.00950503 2.54541e-20)
(-0.124491 0.00840655 -1.25819e-20)
(0.294275 -0.0239235 3.30675e-21)
(0.310959 -0.0359932 -9.85275e-21)
(0.31299 -0.0336161 -1.55473e-20)
(0.556501 -0.0119774 -9.60435e-20)
(0.536682 -0.0150235 6.86731e-21)
(0.546783 0.00559897 -4.10823e-20)
(1.01931 0.0304372 -7.86254e-23)
(1.01931 0.0291746 -7.83432e-22)
(0.999993 0.000480893 3.3051e-22)
(0.999967 0.000614548 2.2171e-21)
(1.06657 -0.0152249 -4.102e-21)
(1.06608 -0.0161105 -3.72275e-22)
(1.02647 0.0911467 3.29562e-22)
(1.02684 0.0940364 0)
(1.02969 0.092035 5.33451e-22)
(-0.0797438 0.0111671 -3.18515e-20)
(-0.0631859 0.0113899 0)
(1.01293 0.0563697 8.97977e-22)
(1.01231 0.0578855 -2.57206e-22)
(1.01438 0.0577427 -2.37334e-22)
(0.999193 0.0030679 -7.50074e-22)
(0.999275 0.00308687 2.36694e-21)
(0.999282 0.00285928 2.54871e-21)
(0.999913 0.00451117 -8.93575e-22)
(0.999966 0.00429135 2.59749e-22)
(1.13316 0.315034 -5.20523e-21)
(1.13857 0.322534 1.7432e-21)
(1.1436 0.312741 -2.87751e-20)
(1.14157 -0.155986 1.9631e-20)
(1.135 -0.152827 1.71191e-20)
(1.14012 -0.160417 -8.13607e-21)
(-0.331007 0.00442122 4.7782e-20)
(1.09717 0.0278342 1.4544e-21)
(1.09655 0.0304409 8.15249e-21)
(1.25835 0.0130665 1.16149e-19)
(1.25663 0.0193837 5.26453e-21)
(1.25211 0.0158229 3.58332e-20)
(1.03974 -0.00481876 1.00508e-20)
(1.03924 -0.00416789 4.7129e-21)
(1.01215 0.0118268 -3.67379e-23)
(1.01242 0.0115873 1.37626e-23)
(1.01265 0.0120592 -8.13646e-23)
(0.979645 0.0348385 -1.04456e-21)
(0.980608 0.033333 3.13887e-21)
(0.981197 0.0348354 2.47546e-22)
(0.276992 -0.0197233 2.06692e-20)
(0.273142 -0.013755 9.99473e-21)
(1.24911 0.123655 3.47992e-20)
(1.19706 0.112314 -1.01732e-20)
(1.15449 0.110581 3.22228e-21)
(0.0616314 -0.104331 -3.76764e-20)
(0.0807853 -0.123727 -4.51227e-20)
(0.0600102 -0.136402 -3.15939e-20)
(1.08374 -0.0521783 0)
(1.08531 -0.0510386 0)
(1.00826 0.0993538 -9.19311e-24)
(1.01183 0.101477 8.97511e-22)
(1.05359 0.0210475 0)
(1.05223 0.0206046 2.55399e-21)
(0.226703 0.757479 -1.73267e-20)
(0.177077 0.83769 0)
(0.291249 0.824404 0)
(1.08284 0.00877648 3.22111e-21)
(1.08454 0.00896138 -4.76081e-24)
(-0.0497213 0.0104244 4.79525e-20)
(-0.0330739 0.0103658 3.81647e-20)
(0.988899 0.0334164 4.70159e-21)
(0.988028 0.034118 -2.50706e-21)
(0.989234 0.0347002 -1.29831e-20)
(-0.196717 0.00883405 -8.36453e-20)
(-0.211589 0.00826826 -7.8733e-20)
(-0.18357 0.00955816 2.16339e-20)
(0.72965 -0.123871 -1.22723e-20)
(0.693829 -0.125523 8.69104e-21)
(0.751313 -0.121226 -7.68222e-21)
(1.14059 -0.021466 1.57627e-20)
(1.14303 -0.0243161 2.1446e-22)
(0.998504 0.0275944 0)
(0.997776 0.0279202 2.34287e-21)
(0.997911 0.0269743 2.98902e-21)
(1.00591 0.000489602 -1.59304e-22)
(1.00622 0.000493775 -1.49692e-22)
(1.00539 0.000259007 2.28395e-22)
(1.08626 0.0845318 0)
(1.08646 0.0808918 -1.74062e-20)
(1.1629 0.105255 -2.22422e-20)
(1.16745 0.10419 -1.98636e-20)
(1.16647 0.108956 6.27374e-21)
(0.260529 0.102206 5.87994e-20)
(0.335366 0.117861 -2.16748e-20)
(1.12739 -0.00445852 7.64421e-22)
(1.12807 -0.00182569 -5.69615e-21)
(1.00812 0.00632401 -8.21265e-23)
(1.00796 0.00650829 -1.28077e-22)
(1.00832 0.00666045 -2.82028e-23)
(1.01263 0.0105708 2.80252e-22)
(1.01221 0.0104199 7.9534e-22)
(1.01241 0.0101664 1.26362e-21)
(0.999976 0.000624897 2.43032e-21)
(0.999985 0.000518479 9.49445e-22)
(0.999969 0.00070989 -7.67686e-22)
(1.25972 0.00809692 5.18543e-20)
(1.26148 0.00298827 -5.57284e-20)
(1.07527 0.261121 1.7624e-20)
(1.07655 0.267034 4.8368e-21)
(1.06875 0.263975 1.70354e-20)
(0.5963 -0.043553 1.35472e-21)
(0.576106 -0.0490124 4.79538e-20)
(0.590659 -0.0643196 3.31135e-20)
(0.979965 0.0510721 -1.37758e-21)
(0.980019 0.0532045 6.61818e-21)
(0.981905 0.0518941 3.79904e-21)
(0.245867 -0.203938 0)
(0.274413 -0.199808 -7.90057e-21)
(0.224524 -0.215857 -4.33902e-20)
(1.18285 -0.104622 -7.95065e-22)
(1.17848 -0.108863 -3.95804e-20)
(1.16176 -0.0447894 -6.32646e-22)
(1.1581 -0.0462062 -3.1729e-21)
(1.03682 0.031393 -1.00306e-22)
(1.03679 0.030302 -6.2474e-21)
(1.03798 0.0309569 -3.86507e-21)
(1.21487 -0.00794956 1.75955e-20)
(1.28801 -0.00609592 6.27171e-20)
(1.01587 0.0209929 0)
(1.01641 0.0207331 0)
(0.995579 0.00974922 1.85597e-21)
(0.995228 0.00991333 2.02128e-21)
(0.995559 0.0102414 1.20418e-21)
(1.02869 0.813959 -6.10683e-20)
(1.02417 0.769233 -1.02774e-20)
(1.07493 0.789125 -2.28088e-20)
(1.0086 0.000677014 0)
(1.00889 0.000855918 9.97942e-23)
(1.00865 0.000542797 2.32615e-22)
(1.00392 0.00809379 2.82138e-22)
(1.00368 0.00788731 -3.63147e-22)
(1.16885 -0.0412056 1.84516e-20)
(1.16493 -0.0424609 2.89389e-21)
(1.16779 -0.0469365 1.03309e-21)
(1.00255 0.0158725 -4.12188e-22)
(1.00234 0.0162192 -4.57784e-22)
(1.00279 0.0163735 -3.04e-22)
(-0.0302004 -0.180315 7.51956e-21)
(-0.0255631 -0.173591 3.07184e-20)
(-0.0220786 -0.180697 1.02011e-20)
(1.08293 0.00719583 1.39553e-20)
(1.08139 0.00851492 1.02009e-20)
(0.927095 0.012943 -7.56704e-21)
(0.924381 0.014403 -1.94214e-20)
(0.925036 0.0108979 7.9413e-21)
(1.00824 0.00044973 -4.9691e-23)
(1.00842 0.000900025 0)
(1.11637 0.0969941 -2.2909e-20)
(1.12092 0.0979448 -1.49538e-20)
(-0.246046 0.00496263 -7.09958e-20)
(-0.274247 0.00335511 1.59026e-20)
(-0.262251 0.00370568 -3.33773e-20)
(1.05456 -0.00391494 -6.16233e-21)
(1.01472 0.00522572 -6.32991e-22)
(1.01462 0.00551423 -8.36881e-22)
(0.989472 -0.000337359 -4.24575e-21)
(0.988943 -9.25449e-05 -1.05196e-20)
(0.989543 0.000196981 -1.11389e-20)
(1.14277 -0.0794246 -8.77871e-21)
(1.14509 -0.0766083 -4.83779e-20)
(1.14086 -0.0762903 -2.52315e-20)
(0.18127 -0.0612388 1.00794e-21)
(0.173956 -0.0623009 9.47366e-22)
(0.157738 -0.053002 -2.01862e-20)
(0.999993 0.000584671 0)
(0.999972 0.000797524 1.29321e-21)
(1.00002 5.83473e-05 -3.49601e-24)
(1.00001 3.6581e-05 0)
(1.00002 4.1893e-05 0)
(0.844447 -0.114873 4.27147e-21)
(0.845823 -0.117741 0)
(1.09933 0.143781 3.41116e-21)
(1.1014 0.1396 9.30628e-21)
(1.10416 0.144115 -7.37078e-21)
(1.0821 -0.0520671 -7.73867e-21)
(1.08024 -0.0521245 -7.12875e-21)
(1.08134 -0.0537404 1.57382e-20)
(0.626764 0.370655 2.85843e-20)
(0.645314 0.390752 1.66859e-20)
(0.613098 0.394652 1.83967e-20)
(0.995611 0.00924509 1.77604e-21)
(0.995906 0.00958099 1.7455e-21)
(1.16014 0.101744 0)
(0.962165 0.0251362 -1.38322e-21)
(0.963753 0.0261608 6.12672e-21)
(0.961895 0.0274939 -6.26237e-21)
(1.00002 7.87834e-05 3.06102e-24)
(1.00004 8.08588e-05 2.57191e-22)
(0.642982 0.347263 1.44059e-20)
(0.61314 0.347106 3.0099e-20)
(1.06097 -0.0943779 1.1363e-21)
(1.05727 -0.0939716 -2.84949e-21)
(1.02689 -0.0834363 -4.91449e-21)
(1.02739 -0.0842814 1.68408e-20)
(1.02499 -0.0808246 -7.91964e-21)
(1.14075 -0.0818346 2.26373e-21)
(1.14489 -0.0826319 1.14772e-20)
(1.0192 0.00130685 -3.58961e-22)
(1.01951 0.00137254 -1.90051e-21)
(0.646079 -0.112207 3.62283e-20)
(0.643524 -0.129693 0)
(1.04555 -0.00678689 0)
(1.0446 -0.00633398 2.65099e-21)
(1.00166 0.0349953 2.29036e-21)
(1.00247 0.0340688 9.96629e-22)
(1.29074 0.137347 2.01538e-20)
(1.31405 0.13686 -4.2949e-20)
(0.999701 0.0211239 4.75443e-22)
(0.999162 0.0208394 1.36728e-22)
(0.999664 0.0203848 3.68039e-22)
(1.26421 0.0114226 1.33152e-20)
(0.91728 0.299573 -6.09034e-21)
(0.910596 0.312594 -5.82598e-21)
(0.999725 0.00479994 1.56078e-21)
(0.999626 0.00483808 1.37351e-21)
(1.01727 0.00381022 -8.96752e-23)
(1.01723 0.00355648 -1.39588e-21)
(1.01754 0.00369319 -6.353e-22)
(1.25536 0.023956 -3.966e-20)
(1.26068 0.0215025 -5.81031e-20)
(0.313569 -0.0880879 -6.49529e-20)
(0.139457 -0.0169549 -6.7347e-21)
(0.356813 -0.0686051 -1.16859e-20)
(-0.0445937 0.0118116 -3.58382e-20)
(-0.028828 0.0131092 -3.67899e-21)
(1.01695 0.0409103 -8.31007e-22)
(1.01617 0.041827 4.06309e-22)
(1.01589 0.0404057 3.69639e-22)
(0.911987 0.0880341 -1.38657e-20)
(0.908315 0.0831252 2.77476e-21)
(-0.103204 -0.0187145 0)
(-0.121566 -0.0113118 0)
(1.03052 0.00231277 -9.25501e-22)
(1.0309 0.00270375 2.20501e-21)
(1.03024 0.00269809 -6.59866e-22)
(1.14322 -0.152575 0)
(1.15062 -0.160428 0)
(1.06445 -0.0187012 -1.70124e-21)
(1.06503 -0.0178751 4.60357e-21)
(1.06379 -0.0179433 1.64928e-21)
(0.957992 0.144835 -1.53788e-20)
(0.952301 0.143435 -4.12236e-21)
(0.956387 0.139118 -5.82539e-21)
(1.14637 -0.149929 0)
(1.13855 -0.146413 -1.96365e-20)
(1.01905 0.00147837 3.13894e-21)
(1.01889 0.0012373 2.47121e-21)
(0.51658 0.741145 -3.25176e-22)
(0.447409 0.729124 -1.75959e-20)
(1.00038 0.0333528 1.14513e-21)
(1.00112 0.0326707 4.28334e-23)
(1.00017 0.0322382 1.16202e-21)
(0.897125 0.195194 -1.91713e-20)
(0.906443 0.19843 1.06595e-20)
(1.00099 0.000267364 -6.91777e-22)
(1.0009 0.00021276 6.23008e-22)
(1.0009 0.000337358 -6.34565e-22)
(1.08265 -0.0506104 0)
(-0.223588 0.00609726 4.61204e-21)
(-0.246719 0.00479832 7.17225e-20)
(-0.22623 0.00616113 4.5447e-21)
(0.999958 -1.85225e-05 -1.04806e-21)
(0.999949 -5.58972e-05 -5.71777e-21)
(0.999926 -5.48267e-05 2.926e-21)
(0.0799671 0.0838843 -5.64655e-20)
(0.164668 0.108547 6.72177e-20)
(1.10976 0.031111 2.75206e-21)
(1.11038 0.0286779 2.41486e-21)
(1.11276 0.0307874 3.30696e-20)
(0.995135 0.00221021 -3.02563e-22)
(0.994842 0.00222181 -3.13266e-21)
(0.994923 0.0025819 5.24033e-21)
(1.13671 0.080558 1.03555e-20)
(1.13852 0.0848805 2.91725e-21)
(1.13249 -0.0298877 2.55836e-21)
(1.12933 -0.0291827 -5.34008e-21)
(1.09808 -0.172567 0)
(1.07359 -0.169955 -9.20059e-21)
(1.13739 -0.173592 0)
(0.320193 -0.0951121 7.48208e-22)
(0.34908 -0.0973121 -4.82579e-21)
(0.36533 -0.101435 -3.91172e-21)
(1.13842 -0.17772 -3.34714e-21)
(1.14568 -0.1762 3.7489e-20)
(0.989788 0.0329104 7.29057e-21)
(0.988688 0.0323271 3.89848e-21)
(1.01631 0.00986938 -6.975e-22)
(1.01591 0.00987915 1.10001e-21)
(-0.0396045 -0.037355 3.06239e-20)
(-0.07755 -0.031958 -2.54678e-20)
(-0.0611892 -0.034683 3.12738e-20)
(0.705564 -0.0781923 -2.64199e-20)
(0.691832 -0.0801552 -3.8202e-20)
(0.703012 -0.0918962 -3.25365e-20)
(0.999439 0.00418244 -2.42957e-21)
(0.999512 0.00393185 -2.85182e-22)
(0.999435 0.00394869 -3.73889e-21)
(1.0105 0.0540293 -9.88872e-23)
(1.01088 0.0526794 1.72557e-23)