/*--------------------------------*- C++ -*----------------------------------*\
| =========                 |                                                 |
| \\      /  F ield         | OpenFOAM: The Open Source CFD Toolbox           |
|  \\    /   O peration     | Version:  v2012                                 |
|   \\  /    A nd           | Website:  www.openfoam.com                      |
|    \\/     M anipulation  |                                                 |
\*---------------------------------------------------------------------------*/
FoamFile
{
    version     2.0;
    format      ascii;
    class       volVectorField;
    location    "750";
    object      cellDisplacement;
}
// * * * * * * * * * * * * * * * * * * * * * * * * * * * * * * * * * * * * * //

dimensions      [0 1 0 0 0 0 0];


internalField   nonuniform List<vector> 
10042
(
(0 0.0234089 0)
(0 0.0171989 0)
(0 0.0265509 0)
(0 0.000780768 0)
(0 0.0299971 0)
(0 0.0156303 0)
(0 0.0299249 0)
(0 0.0299439 0)
(0 0.0254846 0)
(0 0.0131625 0)
(0 0.03 0)
(0 0.00146033 0)
(0 0.0106495 0)
(0 0.00655494 0)
(0 0.029286 0)
(0 0.0166945 0)
(0 0.017165 0)
(0 0.00157123 0)
(0 0.0231565 0)
(0 0.0299907 0)
(0 0.0136903 0)
(0 0.0298597 0)
(0 0.00349261 0)
(0 0.0139119 0)
(0 0.0167606 0)
(0 0.0292542 0)
(0 0.0131481 0)
(0 0.0288604 0)
(0 0.0258417 0)
(0 0.0285463 0)
(0 0.0192663 0)
(0 0.03 0)
(0 0.0126223 0)
(0 0.0282394 0)
(0 0.0292646 0)
(0 0.0137988 0)
(0 0.02922 0)
(0 0.0292913 0)
(0 0.0131137 0)
(0 0.0297066 0)
(0 0.0299917 0)
(0 0.0291688 0)
(0 0.0299188 0)
(0 0.0277037 0)
(0 0.0299972 0)
(0 0.0296538 0)
(0 0.0285982 0)
(0 0.0296719 0)
(0 0.0292151 0)
(0 0.0293024 0)
(0 0.00197443 0)
(0 0.0266597 0)
(0 0.0291326 0)
(0 0.0275174 0)
(0 0.0292327 0)
(0 0.0158917 0)
(0 0.025927 0)
(0 0.0285237 0)
(0 0.0281652 0)
(0 0.0290997 0)
(0 0.0180377 0)
(0 0.0199244 0)
(0 0.0293105 0)
(0 0.0264368 0)
(0 0.028494 0)
(0 0.0281418 0)
(0 0.0279 0)
(0 0.0299791 0)
(0 0.0299994 0)
(0 0.0266796 0)
(0 0.0274558 0)
(0 0.0299933 0)
(0 0.0277418 0)
(0 0.0298495 0)
(0 0.0277099 0)
(0 0.0145207 0)
(0 0.0299976 0)
(0 0.0228385 0)
(0 0.029799 0)
(0 0.0299391 0)
(0 0.0291696 0)
(0 0.0299965 0)
(0 0.0276187 0)
(0 0.0290002 0)
(0 0.0278789 0)
(0 0.00569922 0)
(0 0.0238405 0)
(0 0.0299763 0)
(0 0.0271854 0)
(0 0.0237635 0)
(0 0.0277719 0)
(0 0.0299966 0)
(0 0.0289132 0)
(0 0.0265375 0)
(0 0.0284792 0)
(0 0.0267826 0)
(0 0.0209887 0)
(0 0.0265894 0)
(0 0.0296819 0)
(0 0.0259593 0)
(0 0.000312799 0)
(0 0.029957 0)
(0 0.0299348 0)
(0 0.00605115 0)
(0 0.0288002 0)
(0 0.0299184 0)
(0 0.0240555 0)
(0 0.0212414 0)
(0 0.0131241 0)
(0 0.0188914 0)
(0 0.00459692 0)
(0 0.0253521 0)
(0 0.0293891 0)
(0 0.0299996 0)
(0 0.028425 0)
(0 0.0250423 0)
(0 0.0237938 0)
(0 0.0231087 0)
(0 0.0266816 0)
(0 0.0299997 0)
(0 0.027076 0)
(0 0.0299385 0)
(0 0.0278308 0)
(0 0.0217799 0)
(0 0.0299527 0)
(0 0.0276861 0)
(0 0.0299455 0)
(0 0.0293748 0)
(0 0.0299122 0)
(0 0.0239435 0)
(0 0.0298163 0)
(0 0.0277062 0)
(0 0.0299999 0)
(0 0.0299311 0)
(0 0.0258947 0)
(0 0.0299064 0)
(0 0.0299999 0)
(0 0.0278638 0)
(0 0.0296952 0)
(0 0.0299796 0)
(0 0.0289214 0)
(0 0.0240165 0)
(0 0.0287177 0)
(0 0.0299614 0)
(0 0.02587 0)
(0 0.0251967 0)
(0 0.0298853 0)
(0 0.0223611 0)
(0 0.0267545 0)
(0 0.0294344 0)
(0 0.0257235 0)
(0 0.00066874 0)
(0 0.0299678 0)
(0 0.0299998 0)
(0 0.00932889 0)
(0 0.00986263 0)
(0 0.0289223 0)
(0 0.0202687 0)
(0 0.0299144 0)
(0 0.0299999 0)
(0 0.03 0)
(0 0.0299131 0)
(0 0.0208359 0)
(0 0.0257218 0)
(0 0.0278375 0)
(0 0.0275799 0)
(0 0.0299566 0)
(0 0.0299998 0)
(0 0.03 0)
(0 0.0299997 0)
(0 0.0272979 0)
(0 0.0208703 0)
(0 0.0299961 0)
(0 0.0299933 0)
(0 0.0298968 0)
(0 0.029862 0)
(0 0.0299999 0)
(0 0.0277744 0)
(0 0.0299827 0)
(0 0.0296664 0)
(0 0.0289976 0)
(0 0.03 0)
(0 0.0280502 0)
(0 0.0293649 0)
(0 0.0291202 0)
(0 0.0299997 0)
(0 0.0299548 0)
(0 0.0277882 0)
(0 0.03 0)
(0 0.028839 0)
(0 0.0299996 0)
(0 0.0287452 0)
(0 0.0299641 0)
(0 0.0299952 0)
(0 0.0298502 0)
(0 0.0299922 0)
(0 0.0289708 0)
(0 0.0233224 0)
(0 0.00893865 0)
(0 0.0290015 0)
(0 0.0298939 0)
(0 0.0278541 0)
(0 0.0252291 0)
(0 0.0299935 0)
(0 0.0280379 0)
(0 0.022437 0)
(0 0.0299997 0)
(0 0.0114148 0)
(0 0.00181164 0)
(0 0.00481721 0)
(0 0.0299907 0)
(0 0.00281106 0)
(0 0.0299514 0)
(0 0.0299932 0)
(0 0.0288744 0)
(0 0.0299594 0)
(0 0.0273083 0)
(0 0.0176326 0)
(0 0.0298925 0)
(0 0.0221664 0)
(0 0.0294066 0)
(0 0.0290058 0)
(0 0.0299925 0)
(0 0.0293221 0)
(0 0.0295606 0)
(0 0.0292791 0)
(0 0.029945 0)
(0 0.0251065 0)
(0 0.0299435 0)
(0 0.027552 0)
(0 0.0255079 0)
(0 0.0299907 0)
(0 0.0206575 0)
(0 0.027502 0)
(0 0.0266917 0)
(0 0.0294582 0)
(0 0.022927 0)
(0 0.00566399 0)
(0 0.0283766 0)
(0 0.028384 0)
(0 0.0207862 0)
(0 0.0278723 0)
(0 0.0277073 0)
(0 0.0294234 0)
(0 0.0247998 0)
(0 0.0190478 0)
(0 0.00441181 0)
(0 0.0288598 0)
(0 0.0273847 0)
(0 0.00122191 0)
(0 0.00644846 0)
(0 0.026498 0)
(0 0.0293583 0)
(0 0.0299939 0)
(0 0.0299166 0)
(0 0.03 0)
(0 0.0299069 0)
(0 0.0298858 0)
(0 0.0293309 0)
(0 0.0296989 0)
(0 0.0298856 0)
(0 0.0282886 0)
(0 0.0238476 0)
(0 0.0055208 0)
(0 0.0289692 0)
(0 0.0226168 0)
(0 0.0298625 0)
(0 0.0280153 0)
(0 0.0240038 0)
(0 0.00417407 0)
(0 0.0299032 0)
(0 0.0274843 0)
(0 0.0299922 0)
(0 0.0298961 0)
(0 0.0299762 0)
(0 0.0288977 0)
(0 0.0283522 0)
(0 0.0222216 0)
(0 0.0287023 0)
(0 0.0260306 0)
(0 0.0296907 0)
(0 0.0267746 0)
(0 0.0292669 0)
(0 0.0299998 0)
(0 0.022178 0)
(0 0.0263725 0)
(0 0.0298918 0)
(0 0.0296786 0)
(0 0.0276685 0)
(0 0.0182289 0)
(0 0.029308 0)
(0 0.0298508 0)
(0 0.0297933 0)
(0 0.0299632 0)
(0 0.0016681 0)
(0 0.00816711 0)
(0 0.0252549 0)
(0 0.0256672 0)
(0 0.0299416 0)
(0 0.0256196 0)
(0 0.0182173 0)
(0 0.0217768 0)
(0 0.0272727 0)
(0 0.0292533 0)
(0 0.0293304 0)
(0 0.0299514 0)
(0 0.0299957 0)
(0 0.0290268 0)
(0 0.0299837 0)
(0 0.024386 0)
(0 0.0286509 0)
(0 0.0138733 0)
(0 0.03 0)
(0 0.0299495 0)
(0 0.0299939 0)
(0 0.0299999 0)
(0 0.0152492 0)
(0 0.0280361 0)
(0 0.0268057 0)
(0 0.0293387 0)
(0 0.0292926 0)
(0 0.00357642 0)
(0 0.0297253 0)
(0 0.00473248 0)
(0 0.00460018 0)
(0 0.0278157 0)
(0 0.0299568 0)
(0 0.0012633 0)
(0 0.0287658 0)
(0 0.0274216 0)
(0 0.0292871 0)
(0 0.0299998 0)
(0 0.0246425 0)
(0 0.0101621 0)
(0 0.00551444 0)
(0 0.0262656 0)
(0 0.0298444 0)
(0 0.0298507 0)
(0 0.0298848 0)
(0 0.0299793 0)
(0 0.0292779 0)
(0 0.029319 0)
(0 0.0275541 0)
(0 0.0066047 0)
(0 0.0278571 0)
(0 0.00131502 0)
(0 0.0299704 0)
(0 0.0268326 0)
(0 0.0282088 0)
(0 0.0295984 0)
(0 0.0253696 0)
(0 0.029403 0)
(0 0.0290566 0)
(0 0.0296229 0)
(0 0.0263024 0)
(0 0.0295278 0)
(0 0.0299013 0)
(0 0.0297169 0)
(0 0.0289287 0)
(0 0.0234852 0)
(0 0.0299814 0)
(0 0.0298899 0)
(0 0.0274361 0)
(0 0.0298321 0)
(0 0.0186912 0)
(0 0.0202652 0)
(0 0.0185636 0)
(0 0.029427 0)
(0 0.0299923 0)
(0 0.0281782 0)
(0 0.00300513 0)
(0 0.0289869 0)
(0 0.000350336 0)
(0 0.00241731 0)
(0 0.0299913 0)
(0 0.0232886 0)
(0 0.0224481 0)
(0 0.0299999 0)
(0 0.0166326 0)
(0 0.0299314 0)
(0 0.0299698 0)
(0 0.0298566 0)
(0 0.0298365 0)
(0 0.03 0)
(0 0.0296178 0)
(0 0.0299914 0)
(0 0.0114283 0)
(0 0.0293458 0)
(0 0.000762325 0)
(0 0.028437 0)
(0 0.029704 0)
(0 0.0137887 0)
(0 0.0293829 0)
(0 0.0299999 0)
(0 0.00256417 0)
(0 0.0140752 0)
(0 0.0299529 0)
(0 0.0299993 0)
(0 0.0280372 0)
(0 0.0220764 0)
(0 0.03 0)
(0 0.0299541 0)
(0 0.0212338 0)
(0 0.0299774 0)
(0 0.03 0)
(0 0.0223537 0)
(0 0.00216344 0)
(0 0.0215532 0)
(0 0.0242734 0)
(0 0.00527846 0)
(0 0.0218216 0)
(0 0.0299816 0)
(0 0.0299393 0)
(0 0.0285131 0)
(0 0.029995 0)
(0 0.00558702 0)
(0 0.025409 0)
(0 0.0299909 0)
(0 0.026915 0)
(0 0.0299365 0)
(0 0.0298075 0)
(0 0.0290075 0)
(0 0.0221637 0)
(0 0.0217893 0)
(0 0.0299832 0)
(0 0.0273913 0)
(0 0.0296338 0)
(0 0.0285783 0)
(0 0.03 0)
(0 0.0287925 0)
(0 0.0299949 0)
(0 0.0292353 0)
(0 0.016511 0)
(0 0.0251958 0)
(0 0.0299939 0)
(0 0.0163422 0)
(0 0.0296069 0)
(0 0.0259153 0)
(0 0.0261756 0)
(0 0.0299999 0)
(0 0.0290313 0)
(0 0.0241831 0)
(0 0.00307671 0)
(0 0.03 0)
(0 0.0241138 0)
(0 0.0290822 0)
(0 0.0289859 0)
(0 0.0225358 0)
(0 0.0299939 0)
(0 0.0298492 0)
(0 0.0155853 0)
(0 0.0283117 0)
(0 0.0282604 0)
(0 0.00724182 0)
(0 0.0176978 0)
(0 0.0224613 0)
(0 0.03 0)
(0 0.0212548 0)
(0 0.00337517 0)
(0 0.0297018 0)
(0 0.0299279 0)
(0 0.0298712 0)
(0 0.00141483 0)
(0 0.0296428 0)
(0 0.03 0)
(0 0.0292803 0)
(0 0.024395 0)
(0 0.0231829 0)
(0 0.0299347 0)
(0 0.0273271 0)
(0 0.0160198 0)
(0 0.0297774 0)
(0 0.0258872 0)
(0 0.0215627 0)
(0 0.0290696 0)
(0 0.0166618 0)
(0 0.0298836 0)
(0 0.0242905 0)
(0 0.0164922 0)
(0 0.03 0)
(0 0.0135717 0)
(0 0.027167 0)
(0 0.0132186 0)
(0 0.0284839 0)
(0 0.0297072 0)
(0 0.0152696 0)
(0 0.0261116 0)
(0 0.0299936 0)
(0 0.0286832 0)
(0 0.0299689 0)
(0 0.0282784 0)
(0 0.000629858 0)
(0 0.000487146 0)
(0 0.0299659 0)
(0 0.0264354 0)
(0 0.0241492 0)
(0 0.00621806 0)
(0 0.0274854 0)
(0 0.0296832 0)
(0 0.0299371 0)
(0 0.0241732 0)
(0 0.0298836 0)
(0 0.0299999 0)
(0 0.0292603 0)
(0 0.00205164 0)
(0 0.0229176 0)
(0 0.026628 0)
(0 0.0062669 0)
(0 0.0240835 0)
(0 0.0299994 0)
(0 0.0299999 0)
(0 0.0132419 0)
(0 0.0293524 0)
(0 0.0289478 0)
(0 0.0289013 0)
(0 0.0278094 0)
(0 0.00483719 0)
(0 0.0299182 0)
(0 0.0299815 0)
(0 0.0299997 0)
(0 0.0218363 0)
(0 0.0267854 0)
(0 0.0268008 0)
(0 0.0169442 0)
(0 0.0299994 0)
(0 0.0297159 0)
(0 0.0275101 0)
(0 0.0265354 0)
(0 0.00276296 0)
(0 0.0275483 0)
(0 0.0299262 0)
(0 0.0290243 0)
(0 0.0128087 0)
(0 0.03 0)
(0 0.0299991 0)
(0 0.0299951 0)
(0 0.029918 0)
(0 0.017263 0)
(0 0.026062 0)
(0 0.02929 0)
(0 0.0298635 0)
(0 0.0299987 0)
(0 0.0299997 0)
(0 0.0294881 0)
(0 0.0296295 0)
(0 0.00525269 0)
(0 0.0286974 0)
(0 0.0282755 0)
(0 0.00571525 0)
(0 0.03 0)
(0 0.00493945 0)
(0 0.024206 0)
(0 0.0295979 0)
(0 0.0059113 0)
(0 0.0298247 0)
(0 0.028185 0)
(0 0.0298555 0)
(0 0.0296613 0)
(0 0.00480936 0)
(0 0.0280771 0)
(0 0.029266 0)
(0 0.0289985 0)
(0 0.0299112 0)
(0 0.0299742 0)
(0 0.00140746 0)
(0 0.0292786 0)
(0 0.0287328 0)
(0 0.0267239 0)
(0 0.00825538 0)
(0 0.0279484 0)
(0 0.0192098 0)
(0 0.0295229 0)
(0 0.0298648 0)
(0 0.0299236 0)
(0 0.0127132 0)
(0 0.0287651 0)
(0 0.00577489 0)
(0 0.0247698 0)
(0 0.0299906 0)
(0 0.0122646 0)
(0 0.0289996 0)
(0 0.029849 0)
(0 0.0161795 0)
(0 0.0298735 0)
(0 0.0293954 0)
(0 0.018516 0)
(0 0.0299997 0)
(0 0.0295765 0)
(0 0.00637142 0)
(0 0.0299647 0)
(0 0.0268848 0)
(0 0.00151842 0)
(0 0.0272899 0)
(0 0.0218314 0)
(0 0.000617222 0)
(0 0.0289351 0)
(0 0.0276567 0)
(0 0.0299987 0)
(0 0.0289018 0)
(0 0.022683 0)
(0 0.0280072 0)
(0 0.0297186 0)
(0 0.0294599 0)
(0 0.0220147 0)
(0 0.0284457 0)
(0 0.026012 0)
(0 0.0292455 0)
(0 0.0268146 0)
(0 0.0296792 0)
(0 0.0227753 0)
(0 0.0291358 0)
(0 0.021449 0)
(0 0.0187961 0)
(0 0.0299934 0)
(0 0.0215544 0)
(0 0.0299886 0)
(0 0.0226163 0)
(0 0.0277881 0)
(0 0.0132349 0)
(0 0.0293879 0)
(0 0.0127781 0)
(0 0.0296069 0)
(0 0.0275896 0)
(0 0.0299614 0)
(0 0.00302882 0)
(0 0.0299095 0)
(0 0.0223713 0)
(0 0.0292515 0)
(0 0.00260549 0)
(0 0.0274576 0)
(0 0.0183633 0)
(0 0.0289393 0)
(0 0.0191751 0)
(0 0.0299908 0)
(0 0.0299998 0)
(0 0.0298125 0)
(0 0.0285913 0)
(0 0.0298727 0)
(0 0.0252469 0)
(0 0.0298775 0)
(0 0.0296433 0)
(0 0.0124343 0)
(0 0.0297589 0)
(0 0.0299779 0)
(0 0.0299982 0)
(0 0.0293631 0)
(0 0.0299963 0)
(0 0.0293141 0)
(0 0.0280904 0)
(0 0.00437583 0)
(0 0.0285949 0)
(0 0.0289097 0)
(0 0.0289604 0)
(0 0.0146308 0)
(0 0.0288915 0)
(0 0.0299122 0)
(0 0.000565153 0)
(0 0.0247151 0)
(0 0.0285086 0)
(0 0.0299961 0)
(0 0.0292008 0)
(0 0.0296144 0)
(0 0.0292608 0)
(0 0.00409371 0)
(0 0.0299335 0)
(0 0.0156674 0)
(0 0.021777 0)
(0 0.0285213 0)
(0 0.0260327 0)
(0 0.03 0)
(0 0.0296542 0)
(0 0.0299968 0)
(0 0.00259676 0)
(0 0.0299972 0)
(0 0.0299997 0)
(0 0.0299653 0)
(0 0.0289572 0)
(0 0.0296987 0)
(0 0.0299382 0)
(0 0.0298782 0)
(0 0.0273946 0)
(0 0.0260916 0)
(0 0.0297962 0)
(0 0.03 0)
(0 0.025252 0)
(0 0.0297263 0)
(0 0.0299844 0)
(0 0.0246332 0)
(0 0.0193212 0)
(0 0.0268418 0)
(0 0.0289913 0)
(0 0.0185403 0)
(0 0.0264544 0)
(0 0.029965 0)
(0 0.0299928 0)
(0 0.0263188 0)
(0 0.0171788 0)
(0 0.0299999 0)
(0 0.0299608 0)
(0 0.0253644 0)
(0 0.0241 0)
(0 0.00231088 0)
(0 0.0243331 0)
(0 0.0299922 0)
(0 0.0296394 0)
(0 0.0299929 0)
(0 0.0288212 0)
(0 0.0197287 0)
(0 0.0255054 0)
(0 0.0290382 0)
(0 0.0174978 0)
(0 0.0293253 0)
(0 0.0289087 0)
(0 0.0299964 0)
(0 0.0180171 0)
(0 0.00988037 0)
(0 0.0298595 0)
(0 0.0250102 0)
(0 0.0290487 0)
(0 0.0299687 0)
(0 0.0279895 0)
(0 0.0299999 0)
(0 0.0299971 0)
(0 0.0281286 0)
(0 0.0242845 0)
(0 0.0299832 0)
(0 0.03 0)
(0 0.0298407 0)
(0 0.0267609 0)
(0 0.029952 0)
(0 0.0299937 0)
(0 0.0295932 0)
(0 0.0272507 0)
(0 0.00492692 0)
(0 0.012868 0)
(0 0.029993 0)
(0 0.028562 0)
(0 0.0299855 0)
(0 0.00162414 0)
(0 0.0299998 0)
(0 0.0299912 0)
(0 0.0228001 0)
(0 0.020117 0)
(0 0.029989 0)
(0 0.0118757 0)
(0 0.0134347 0)
(0 0.0294346 0)
(0 0.0299996 0)
(0 0.0299969 0)
(0 0.0299924 0)
(0 0.0270616 0)
(0 0.0297104 0)
(0 0.0298646 0)
(0 0.012936 0)
(0 0.00193484 0)
(0 0.00892336 0)
(0 0.029992 0)
(0 0.00475409 0)
(0 0.0227918 0)
(0 0.029698 0)
(0 0.0277377 0)
(0 0.0298895 0)
(0 0.0030957 0)
(0 0.014784 0)
(0 0.00413322 0)
(0 0.011983 0)
(0 0.0299229 0)
(0 0.00520033 0)
(0 0.0263641 0)
(0 0.0296217 0)
(0 0.0299522 0)
(0 0.0299972 0)
(0 0.00615297 0)
(0 0.0299123 0)
(0 0.0299616 0)
(0 0.0299651 0)
(0 0.0290723 0)
(0 0.03 0)
(0 0.0299999 0)
(0 0.0244304 0)
(0 0.010715 0)
(0 0.0288636 0)
(0 0.0292347 0)
(0 0.0299936 0)
(0 0.0290155 0)
(0 0.00780376 0)
(0 0.00500828 0)
(0 0.029965 0)
(0 0.0298636 0)
(0 0.0269178 0)
(0 0.00681954 0)
(0 0.0243364 0)
(0 0.0298357 0)
(0 0.0137335 0)
(0 0.00216374 0)
(0 0.0292103 0)
(0 0.0289401 0)
(0 0.00800479 0)
(0 0.025558 0)
(0 0.0299991 0)
(0 0.0263491 0)
(0 0.0288892 0)
(0 0.0194773 0)
(0 0.0285181 0)
(0 0.0299636 0)
(0 0.00648117 0)
(0 0.0290813 0)
(0 0.0170056 0)
(0 0.0289174 0)
(0 0.0299988 0)
(0 0.000413245 0)
(0 0.0299964 0)
(0 0.0293754 0)
(0 0.0299953 0)
(0 0.00350759 0)
(0 0.0289843 0)
(0 0.0291614 0)
(0 0.0299148 0)
(0 0.0299559 0)
(0 0.0288729 0)
(0 0.0299965 0)
(0 0.0298972 0)
(0 0.0287991 0)
(0 0.00244869 0)
(0 0.0299641 0)
(0 0.0167265 0)
(0 0.00310346 0)
(0 0.0219491 0)
(0 0.0034708 0)
(0 0.0297772 0)
(0 5.79538e-05 0)
(0 0.000629617 0)
(0 0.0299702 0)
(0 0.0296303 0)
(0 0.00133384 0)
(0 0.0298144 0)
(0 0.0289834 0)
(0 0.0299949 0)
(0 0.0282822 0)
(0 0.0299983 0)
(0 0.0244804 0)
(0 0.0296121 0)
(0 0.0298568 0)
(0 0.0299842 0)
(0 0.0287936 0)
(0 0.0299996 0)
(0 0.00168325 0)
(0 0.0283663 0)
(0 0.00785369 0)
(0 0.0279691 0)
(0 0.0265662 0)
(0 0.0298439 0)
(0 0.0299179 0)
(0 0.0292004 0)
(0 0.03 0)
(0 0.00866181 0)
(0 0.0299998 0)
(0 0.0283354 0)
(0 0.0255041 0)
(0 0.0298319 0)
(0 0.0294205 0)
(0 0.0299968 0)
(0 0.0204609 0)
(0 0.0296945 0)
(0 0.0299462 0)
(0 0.029028 0)
(0 0.0299307 0)
(0 0.000719633 0)
(0 0.010498 0)
(0 0.000668431 0)
(0 0.0299946 0)
(0 0.0126679 0)
(0 0.0133911 0)
(0 0.021492 0)
(0 0.00378672 0)
(0 0.0189003 0)
(0 0.017722 0)
(0 0.0281177 0)
(0 0.022758 0)
(0 0.0117918 0)
(0 0.0287599 0)
(0 0.0294588 0)
(0 0.0297969 0)
(0 0.0214459 0)
(0 0.0299941 0)
(0 0.0275426 0)
(0 0.0299966 0)
(0 0.0298958 0)
(0 0.0299994 0)
(0 0.0296862 0)
(0 0.0283053 0)
(0 0.03 0)
(0 0.0294918 0)
(0 0.029994 0)
(0 0.0299681 0)
(0 0.0298225 0)
(0 0.00547614 0)
(0 0.0214198 0)
(0 0.0289138 0)
(0 0.0299649 0)
(0 0.0268539 0)
(0 0.0299996 0)
(0 0.0266019 0)
(0 0.0299997 0)
(0 0.0299031 0)
(0 0.0292108 0)
(0 0.0281781 0)
(0 0.0299998 0)
(0 0.0299998 0)
(0 0.0291974 0)
(0 0.0219353 0)
(0 0.00328972 0)
(0 0.0284589 0)
(0 0.0102349 0)
(0 0.00397268 0)
(0 0.0299127 0)
(0 0.0296865 0)
(0 0.0167012 0)
(0 0.0267594 0)
(0 0.0286723 0)
(0 0.0299935 0)
(0 0.029335 0)
(0 0.010953 0)
(0 0.0293224 0)
(0 0.0298882 0)
(0 0.0286416 0)
(0 0.0161256 0)
(0 0.0299997 0)
(0 0.0284807 0)
(0 0.0256507 0)
(0 0.0299998 0)
(0 0.0292816 0)
(0 0.0271095 0)
(0 0.03 0)
(0 0.0298732 0)
(0 0.0299996 0)
(0 0.0248887 0)
(0 0.0291298 0)
(0 0.0299671 0)
(0 0.0218504 0)
(0 0.026663 0)
(0 0.00122734 0)
(0 0.0287347 0)
(0 0.0178787 0)
(0 0.00287803 0)
(0 0.0275938 0)
(0 0.0299456 0)
(0 0.0299926 0)
(0 0.0222313 0)
(0 0.0268699 0)
(0 0.0167404 0)
(0 0.0263666 0)
(0 0.0287822 0)
(0 0.0105686 0)
(0 0.0299311 0)
(0 0.0296656 0)
(0 0.0274187 0)
(0 0.0211846 0)
(0 0.0216139 0)
(0 0.0127569 0)
(0 0.0281925 0)
(0 0.0299996 0)
(0 0.0292006 0)
(0 0.0220689 0)
(0 0.0235418 0)
(0 0.0299251 0)
(0 0.0299853 0)
(0 0.0186771 0)
(0 0.0122204 0)
(0 0.019443 0)
(0 0.0217735 0)
(0 0.029996 0)
(0 0.0292276 0)
(0 0.00269282 0)
(0 0.00248081 0)
(0 0.029389 0)
(0 0.0299801 0)
(0 0.0107699 0)
(0 0.00138833 0)
(0 0.0294296 0)
(0 0.0271625 0)
(0 0.0287973 0)
(0 0.0286132 0)
(0 0.0299068 0)
(0 0.029734 0)
(0 0.0168543 0)
(0 0.0292979 0)
(0 0.0299964 0)
(0 0.0296946 0)
(0 0.0298539 0)
(0 0.0293551 0)
(0 0.0299668 0)
(0 0.00171658 0)
(0 0.0267075 0)
(0 0.0289148 0)
(0 0.0296111 0)
(0 0.0258958 0)
(0 0.0253626 0)
(0 0.00402887 0)
(0 0.027676 0)
(0 0.0299881 0)
(0 0.0299809 0)
(0 0.0297496 0)
(0 0.028083 0)
(0 0.00596347 0)
(0 0.0296711 0)
(0 0.0275478 0)
(0 0.0275213 0)
(0 0.0299274 0)
(0 0.0292269 0)
(0 0.0274416 0)
(0 0.0216951 0)
(0 0.0299944 0)
(0 0.0299903 0)
(0 0.00296018 0)
(0 0.0279004 0)
(0 0.0298386 0)
(0 0.0257011 0)
(0 0.0151704 0)
(0 0.0245035 0)
(0 0.0298244 0)
(0 0.0286749 0)
(0 0.0288181 0)
(0 0.03 0)
(0 0.0284165 0)
(0 0.0106172 0)
(0 0.029957 0)
(0 0.0160211 0)
(0 0.029991 0)
(0 0.0019535 0)
(0 0.0289423 0)
(0 0.0298839 0)
(0 0.0275634 0)
(0 0.0101121 0)
(0 0.0268002 0)
(0 0.02864 0)
(0 0.0299964 0)
(0 0.023584 0)
(0 0.00683868 0)
(0 0.0299942 0)
(0 0.0295724 0)
(0 0.0299155 0)
(0 0.0299992 0)
(0 0.029895 0)
(0 0.00470435 0)
(0 0.0299891 0)
(0 0.0260283 0)
(0 0.0299926 0)
(0 0.0105983 0)
(0 0.0276395 0)
(0 0.00344613 0)
(0 0.03 0)
(0 0.00529701 0)
(0 0.0285975 0)
(0 0.0115582 0)
(0 0.0293772 0)
(0 0.0299573 0)
(0 0.0296343 0)
(0 0.0298496 0)
(0 0.0268401 0)
(0 0.00728285 0)
(0 0.0297069 0)
(0 0.0295568 0)
(0 0.0201 0)
(0 0.0292243 0)
(0 0.0254042 0)
(0 0.0299679 0)
(0 0.0299998 0)
(0 0.0121948 0)
(0 0.0291177 0)
(0 0.00549213 0)
(0 0.0297681 0)
(0 0.0107297 0)
(0 0.03 0)
(0 0.0220855 0)
(0 0.0261659 0)
(0 0.0032309 0)
(0 0.0282541 0)
(0 0.0287227 0)
(0 0.00068654 0)
(0 0.0208902 0)
(0 0.0275961 0)
(0 0.0299545 0)
(0 0.0298266 0)
(0 0.0266508 0)
(0 0.0288545 0)
(0 0.0283912 0)
(0 0.0298859 0)
(0 0.0262287 0)
(0 0.0296175 0)
(0 0.0287102 0)
(0 0.0273258 0)
(0 0.0292224 0)
(0 0.0289513 0)
(0 0.000526871 0)
(0 0.0155017 0)
(0 0.0296266 0)
(0 0.0253328 0)
(0 0.0299729 0)
(0 0.0288061 0)
(0 0.0299812 0)
(0 0.0281527 0)
(0 0.0184279 0)
(0 0.0255556 0)
(0 0.0293921 0)
(0 0.0298513 0)
(0 0.0212425 0)
(0 0.0288584 0)
(0 0.0297905 0)
(0 0.0286995 0)
(0 0.0218158 0)
(0 0.0292554 0)
(0 0.00105518 0)
(0 0.03 0)
(0 0.0299922 0)
(0 0.029377 0)
(0 0.03 0)
(0 0.0291858 0)
(0 0.0293572 0)
(0 0.0298984 0)
(0 0.0298574 0)
(0 0.0289988 0)
(0 0.03 0)
(0 0.0288005 0)
(0 0.0298259 0)
(0 0.0272736 0)
(0 0.0286026 0)
(0 0.0264995 0)
(0 0.0269882 0)
(0 0.0291526 0)
(0 0.0249602 0)
(0 0.0299948 0)
(0 0.0276452 0)
(0 0.0276728 0)
(0 0.0299563 0)
(0 0.0231207 0)
(0 0.0296074 0)
(0 0.02838 0)
(0 0.02946 0)
(0 0.0266064 0)
(0 0.0299251 0)
(0 0.0296406 0)
(0 0.0110417 0)
(0 0.0293118 0)
(0 0.0299994 0)
(0 0.0299325 0)
(0 0.0255133 0)
(0 0.0288225 0)
(0 0.0126235 0)
(0 0.0254716 0)
(0 0.0299945 0)
(0 0.0219403 0)
(0 0.0143622 0)
(0 0.0297352 0)
(0 0.0274505 0)
(0 0.028842 0)
(0 0.0253263 0)
(0 0.0180659 0)
(0 0.0299151 0)
(0 0.0266028 0)
(0 0.0212153 0)
(0 0.0292024 0)
(0 0.0250727 0)
(0 0.0220456 0)
(0 0.000941066 0)
(0 0.0299956 0)
(0 0.0282586 0)
(0 0.00950381 0)
(0 0.0214753 0)
(0 0.0297385 0)
(0 0.0287249 0)
(0 0.0292883 0)
(0 0.024835 0)
(0 0.0298309 0)
(0 0.0288344 0)
(0 0.0260482 0)
(0 0.0288117 0)
(0 0.0151692 0)
(0 0.0149488 0)
(0 0.029982 0)
(0 0.0298119 0)
(0 0.0295497 0)
(0 0.0292862 0)
(0 0.0298335 0)
(0 0.0298069 0)
(0 0.0297086 0)
(0 0.0297364 0)
(0 0.0290688 0)
(0 0.0299815 0)
(0 0.0267577 0)
(0 0.027488 0)
(0 0.011932 0)
(0 0.000968236 0)
(0 0.0298516 0)
(0 0.00230746 0)
(0 0.0299939 0)
(0 0.0299999 0)
(0 0.0299744 0)
(0 0.010584 0)
(0 0.0291925 0)
(0 0.0298541 0)
(0 0.0195325 0)
(0 0.0299831 0)
(0 0.0299107 0)
(0 0.029995 0)
(0 0.0295938 0)
(0 0.0299996 0)
(0 0.0298114 0)
(0 0.0298601 0)
(0 0.0299948 0)
(0 0.0296102 0)
(0 0.0281998 0)
(0 0.0293918 0)
(0 0.0251335 0)
(0 0.029996 0)
(0 0.0283774 0)
(0 0.0297617 0)
(0 0.02278 0)
(0 0.0294553 0)
(0 0.0175723 0)
(0 0.0299999 0)
(0 0.0299953 0)
(0 0.00422273 0)
(0 0.03 0)
(0 0.0299925 0)
(0 0.0297781 0)
(0 0.0297209 0)
(0 0.0298843 0)
(0 0.020903 0)
(0 0.0299995 0)
(0 0.027518 0)
(0 0.0299802 0)
(0 0.03 0)
(0 0.00450029 0)
(0 0.0267746 0)
(0 0.0127999 0)
(0 0.0292276 0)
(0 0.028586 0)
(0 0.029642 0)
(0 0.0299191 0)
(0 0.00819483 0)
(0 0.0179718 0)
(0 0.0292337 0)
(0 0.0279156 0)
(0 0.00780238 0)
(0 0.0295245 0)
(0 0.0219859 0)
(0 0.017314 0)
(0 0.029661 0)
(0 0.0298631 0)
(0 0.0176058 0)
(0 0.0299634 0)
(0 0.0278856 0)
(0 0.00259066 0)
(0 0.0292766 0)
(0 0.0299688 0)
(0 0.0240531 0)
(0 0.0212241 0)
(0 0.0299044 0)
(0 0.029978 0)
(0 0.025973 0)
(0 0.0292958 0)
(0 0.0299885 0)
(0 0.0297924 0)
(0 0.0299998 0)
(0 0.022374 0)
(0 0.0298089 0)
(0 0.0299992 0)
(0 0.0299965 0)
(0 0.013453 0)
(0 0.0268549 0)
(0 0.0296137 0)
(0 0.0295879 0)
(0 0.0298541 0)
(0 0.0285709 0)
(0 0.0299991 0)
(0 0.0297377 0)
(0 0.0299491 0)
(0 0.0279225 0)
(0 0.0119892 0)
(0 0.03 0)
(0 0.0296765 0)
(0 0.0111899 0)
(0 0.00259069 0)
(0 0.0299996 0)
(0 0.0244598 0)
(0 0.0224484 0)
(0 0.0253412 0)
(0 0.0286463 0)
(0 0.00464779 0)
(0 0.0297814 0)
(0 0.0281639 0)
(0 0.0284125 0)
(0 0.0178365 0)
(0 0.0293342 0)
(0 0.0299996 0)
(0 0.0299195 0)
(0 0.02962 0)
(0 0.0299999 0)
(0 0.0298843 0)
(0 0.0211772 0)
(0 0.0253323 0)
(0 0.0267563 0)
(0 7.47474e-05 0)
(0 0.0299558 0)
(0 0.0297816 0)
(0 0.0265461 0)
(0 0.0275931 0)
(0 0.0222065 0)
(0 0.0099006 0)
(0 0.0298186 0)
(0 0.015739 0)
(0 0.0299405 0)
(0 0.0284802 0)
(0 0.0101732 0)
(0 0.0299941 0)
(0 0.03 0)
(0 0.0108959 0)
(0 0.0299843 0)
(0 0.0298335 0)
(0 0.029693 0)
(0 0.00319933 0)
(0 0.0204828 0)
(0 0.0299998 0)
(0 0.0298733 0)
(0 0.0159441 0)
(0 0.0222856 0)
(0 0.0244576 0)
(0 0.0293154 0)
(0 0.00212045 0)
(0 0.0297927 0)
(0 0.0142751 0)
(0 0.0174226 0)
(0 0.0276237 0)
(0 0.0299765 0)
(0 0.0299995 0)
(0 0.0210855 0)
(0 0.0276751 0)
(0 0.0299808 0)
(0 0.0299957 0)
(0 0.0294838 0)
(0 0.0299215 0)
(0 0.0299989 0)
(0 0.0251334 0)
(0 0.00634976 0)
(0 0.0282418 0)
(0 0.0290956 0)
(0 0.0299925 0)
(0 0.018114 0)
(0 0.000824932 0)
(0 0.0299785 0)
(0 0.0299105 0)
(0 0.00755151 0)
(0 0.0239781 0)
(0 0.0299792 0)
(0 0.0007803 0)
(0 0.0165185 0)
(0 0.0299511 0)
(0 0.0298129 0)
(0 0.0299997 0)
(0 0.0114445 0)
(0 0.0294084 0)
(0 0.0299168 0)
(0 0.0296353 0)
(0 0.0291737 0)
(0 0.0296291 0)
(0 0.0213774 0)
(0 0.00270602 0)
(0 0.0299886 0)
(0 0.0295025 0)
(0 0.019986 0)
(0 0.0293375 0)
(0 0.03 0)
(0 0.0186382 0)
(0 0.0246161 0)
(0 0.0191081 0)
(0 0.0299598 0)
(0 0.0203249 0)
(0 0.00838452 0)
(0 0.00819545 0)
(0 0.0210345 0)
(0 0.0299923 0)
(0 0.0299972 0)
(0 0.0284269 0)
(0 0.0299731 0)
(0 0.0299995 0)
(0 0.0299998 0)
(0 0.0225133 0)
(0 0.0270229 0)
(0 0.0214243 0)
(0 0.0247755 0)
(0 0.0141156 0)
(0 0.0114722 0)
(0 0.0150848 0)
(0 0.0081539 0)
(0 0.0159194 0)
(0 0.0294465 0)
(0 0.0299999 0)
(0 0.0298413 0)
(0 0.0297856 0)
(0 0.0291247 0)
(0 0.0157184 0)
(0 0.0291574 0)
(0 0.0297254 0)
(0 0.0283429 0)
(0 0.0230373 0)
(0 0.0298607 0)
(0 0.0297322 0)
(0 0.0299895 0)
(0 0.0295642 0)
(0 0.0206807 0)
(0 0.0299949 0)
(0 0.0288374 0)
(0 0.0171438 0)
(0 0.0267155 0)
(0 0.0299435 0)
(0 0.0296434 0)
(0 0.0290299 0)
(0 0.0294172 0)
(0 0.0170399 0)
(0 0.0132123 0)
(0 0.0298304 0)
(0 0.0295324 0)
(0 0.0286911 0)
(0 0.0299739 0)
(0 0.01379 0)
(0 0.00187322 0)
(0 0.0299925 0)
(0 0.0298379 0)
(0 0.0294368 0)
(0 0.0299061 0)
(0 0.028549 0)
(0 0.0299516 0)
(0 0.0299391 0)
(0 0.0298744 0)
(0 0.03 0)
(0 0.0263131 0)
(0 0.0248705 0)
(0 0.0166666 0)
(0 0.018406 0)
(0 0.0158066 0)
(0 0.0288614 0)
(0 0.0295948 0)
(0 0.0292218 0)
(0 0.0299996 0)
(0 0.0115045 0)
(0 0.0299838 0)
(0 0.02999 0)
(0 0.0281569 0)
(0 0.0299958 0)
(0 0.0284049 0)
(0 0.0299131 0)
(0 0.0299998 0)
(0 0.0162357 0)
(0 0.0298601 0)
(0 0.0227069 0)
(0 0.0299995 0)
(0 0.00493648 0)
(0 0.0299194 0)
(0 0.0241509 0)
(0 0.0299769 0)
(0 0.0292683 0)
(0 0.03 0)
(0 0.0200826 0)
(0 0.02991 0)
(0 0.024109 0)
(0 0.0285604 0)
(0 0.0299059 0)
(0 0.0202976 0)
(0 0.03 0)
(0 0.0299993 0)
(0 0.0298011 0)
(0 0.0299914 0)
(0 0.0298188 0)
(0 0.0299997 0)
(0 0.0297942 0)
(0 0.0196952 0)
(0 0.0299006 0)
(0 0.0297411 0)
(0 0.0298745 0)
(0 0.0135707 0)
(0 0.00191933 0)
(0 0.0284632 0)
(0 0.029848 0)
(0 0.0271398 0)
(0 0.0284382 0)
(0 0.0283771 0)
(0 0.0299997 0)
(0 0.0299663 0)
(0 0.026741 0)
(0 0.0299928 0)
(0 0.0299488 0)
(0 0.0167699 0)
(0 0.029828 0)
(0 0.0296461 0)
(0 0.0299465 0)
(0 0.0296346 0)
(0 0.0251862 0)
(0 0.0299984 0)
(0 0.0170255 0)
(0 0.0158366 0)
(0 0.00960028 0)
(0 0.0299511 0)
(0 0.0297919 0)
(0 0.0259874 0)
(0 0.0296203 0)
(0 0.0148356 0)
(0 0.00195036 0)
(0 0.0141991 0)
(0 0.0299994 0)
(0 0.00128046 0)
(0 0.00649786 0)
(0 0.029885 0)
(0 0.0299233 0)
(0 0.0287897 0)
(0 0.0262326 0)
(0 0.0299956 0)
(0 0.0297158 0)
(0 0.0291873 0)
(0 0.0274161 0)
(0 0.029947 0)
(0 0.0286176 0)
(0 0.0288929 0)
(0 0.0293583 0)
(0 0.0299699 0)
(0 0.0298815 0)
(0 0.0297744 0)
(0 0.020301 0)
(0 0.0288215 0)
(0 0.0292762 0)
(0 0.0288828 0)
(0 0.0286688 0)
(0 0.0299934 0)
(0 0.000704169 0)
(0 0.0298184 0)
(0 0.0236426 0)
(0 0.00884306 0)
(0 0.0287573 0)
(0 0.0299104 0)
(0 0.0287085 0)
(0 0.0290314 0)
(0 0.0107495 0)
(0 0.0298756 0)
(0 0.0297778 0)
(0 0.0296631 0)
(0 0.0296598 0)
(0 0.000439659 0)
(0 0.0083862 0)
(0 0.0297331 0)
(0 0.0296193 0)
(0 0.0210565 0)
(0 0.0296225 0)
(0 0.0166558 0)
(0 0.0222299 0)
(0 0.0299999 0)
(0 0.0249894 0)
(0 0.0299993 0)
(0 0.0268077 0)
(0 0.0296866 0)
(0 0.029678 0)
(0 0.0272486 0)
(0 0.0291393 0)
(0 0.0295941 0)
(0 0.0299078 0)
(0 0.0273995 0)
(0 0.0295905 0)
(0 0.0279922 0)
(0 0.0027164 0)
(0 0.0264822 0)
(0 0.0299999 0)
(0 0.0299555 0)
(0 0.0235099 0)
(0 0.0246853 0)
(0 0.0238459 0)
(0 0.0253757 0)
(0 0.0298548 0)
(0 0.0299587 0)
(0 0.0272732 0)
(0 0.0299993 0)
(0 0.0208405 0)
(0 0.013601 0)
(0 0.0214057 0)
(0 0.029914 0)
(0 0.0287796 0)
(0 0.0292761 0)
(0 0.0228138 0)
(0 0.0275012 0)
(0 0.0267804 0)
(0 0.00146536 0)
(0 0.0016936 0)
(0 0.0295361 0)
(0 0.0299996 0)
(0 0.023542 0)
(0 0.027102 0)
(0 0.0299282 0)
(0 0.029877 0)
(0 0.0219451 0)
(0 0.0299755 0)
(0 0.0298405 0)
(0 0.0248622 0)
(0 0.0221072 0)
(0 0.0268317 0)
(0 0.0298189 0)
(0 0.0247947 0)
(0 0.0296275 0)
(0 0.0296036 0)
(0 0.0279766 0)
(0 0.0246061 0)
(0 0.0297189 0)
(0 0.0144881 0)
(0 0.0299895 0)
(0 0.0296651 0)
(0 0.0286729 0)
(0 0.0298954 0)
(0 0.0299675 0)
(0 0.0117657 0)
(0 0.0244197 0)
(0 0.03 0)
(0 0.0299181 0)
(0 0.0297961 0)
(0 0.0280652 0)
(0 0.0296444 0)
(0 0.022414 0)
(0 0.0299992 0)
(0 0.0293975 0)
(0 0.025098 0)
(0 0.0299992 0)
(0 0.0298619 0)
(0 0.029157 0)
(0 0.0298198 0)
(0 0.0297755 0)
(0 0.0250223 0)
(0 0.0299959 0)
(0 0.0283384 0)
(0 0.0291157 0)
(0 0.0295886 0)
(0 0.0284506 0)
(0 0.00569134 0)
(0 0.029944 0)
(0 0.0221306 0)
(0 0.0126088 0)
(0 0.0217037 0)
(0 0.0299996 0)
(0 0.0263164 0)
(0 0.00354014 0)
(0 0.0247015 0)
(0 0.0217413 0)
(0 0.0264939 0)
(0 0.00493537 0)
(0 0.0295944 0)
(0 0.0299419 0)
(0 0.0283345 0)
(0 0.00368393 0)
(0 0.0299958 0)
(0 0.028447 0)
(0 0.00255399 0)
(0 0.0237114 0)
(0 0.0237418 0)
(0 0.0159215 0)
(0 0.00876922 0)
(0 0.0291908 0)
(0 0.0298026 0)
(0 0.00654765 0)
(0 0.02943 0)
(0 0.0299478 0)
(0 0.025093 0)
(0 0.0296536 0)
(0 0.0299973 0)
(0 0.0286253 0)
(0 0.00451237 0)
(0 0.0151463 0)
(0 0.0299834 0)
(0 0.00671083 0)
(0 0.00392993 0)
(0 0.0293078 0)
(0 0.0294492 0)
(0 0.0299781 0)
(0 0.0299999 0)
(0 0.016491 0)
(0 0.00931278 0)
(0 0.0196873 0)
(0 0.0299713 0)
(0 0.0013858 0)
(0 0.0248823 0)
(0 0.0297415 0)
(0 0.029963 0)
(0 0.0283281 0)
(0 0.029657 0)
(0 0.0131552 0)
(0 0.0299444 0)
(0 0.0298083 0)
(0 0.0281024 0)
(0 0.029983 0)
(0 0.0294456 0)
(0 0.0299999 0)
(0 0.00791705 0)
(0 0.0218109 0)
(0 0.029999 0)
(0 0.0299882 0)
(0 0.0292544 0)
(0 0.0297735 0)
(0 0.029985 0)
(0 0.0299998 0)
(0 0.0299327 0)
(0 0.0299986 0)
(0 0.0290978 0)
(0 0.0285537 0)
(0 0.0299999 0)
(0 0.0296146 0)
(0 0.0296986 0)
(0 0.0288973 0)
(0 0.0299585 0)
(0 0.0299999 0)
(0 0.00066582 0)
(0 0.0282287 0)
(0 0.0202494 0)
(0 0.0299928 0)
(0 0.0089292 0)
(0 0.0299999 0)
(0 0.0294262 0)
(0 0.0299998 0)
(0 0.0291229 0)
(0 0.0299896 0)
(0 0.0299648 0)
(0 0.00344691 0)
(0 0.0283543 0)
(0 0.029981 0)
(0 0.0296646 0)
(0 0.0161257 0)
(0 0.0281218 0)
(0 0.0299759 0)
(0 0.029841 0)
(0 0.0298992 0)
(0 0.0298032 0)
(0 0.0299998 0)
(0 0.0299748 0)
(0 0.00672541 0)
(0 0.00361822 0)
(0 0.0299857 0)
(0 0.0299792 0)
(0 0.0286975 0)
(0 0.0298649 0)
(0 0.0299994 0)
(0 0.0280758 0)
(0 0.0283997 0)
(0 0.0206009 0)
(0 0.0296984 0)
(0 0.0110068 0)
(0 0.0087016 0)
(0 0.029918 0)
(0 0.0281608 0)
(0 0.00133582 0)
(0 0.03 0)
(0 0.0299999 0)
(0 0.00706966 0)
(0 0.0295815 0)
(0 0.0291187 0)
(0 0.0299804 0)
(0 0.0299056 0)
(0 0.028007 0)
(0 0.0161499 0)
(0 0.0299864 0)
(0 0.0299995 0)
(0 0.0228096 0)
(0 0.0295707 0)
(0 0.0278062 0)
(0 0.0299292 0)
(0 0.0247851 0)
(0 0.0296313 0)
(0 0.0299117 0)
(0 0.0299025 0)
(0 0.00253009 0)
(0 0.0299899 0)
(0 0.0299479 0)
(0 0.0297876 0)
(0 0.0295619 0)
(0 0.00709776 0)
(0 0.0299986 0)
(0 0.0244729 0)
(0 0.0288429 0)
(0 0.0284384 0)
(0 0.0290986 0)
(0 0.0225202 0)
(0 0.0236769 0)
(0 0.0277041 0)
(0 0.0298627 0)
(0 0.0249759 0)
(0 0.011185 0)
(0 0.0257833 0)
(0 0.0264092 0)
(0 0.0224354 0)
(0 0.0276808 0)
(0 0.0299002 0)
(0 0.0299914 0)
(0 0.02997 0)
(0 0.0290818 0)
(0 0.0178718 0)
(0 0.0298438 0)
(0 0.028719 0)
(0 0.0299995 0)
(0 0.00117273 0)
(0 0.0299933 0)
(0 0.00432944 0)
(0 0.0211278 0)
(0 0.0278896 0)
(0 0.0296883 0)
(0 0.0299543 0)
(0 0.0230162 0)
(0 0.03 0)
(0 0.0278031 0)
(0 0.0161991 0)
(0 0.0288221 0)
(0 0.0299849 0)
(0 0.0292135 0)
(0 0.0299413 0)
(0 0.0299993 0)
(0 0.0013487 0)
(0 0.0283485 0)
(0 0.03 0)
(0 0.0251969 0)
(0 0.0299942 0)
(0 0.0161058 0)
(0 0.0293563 0)
(0 0.0299999 0)
(0 0.0276578 0)
(0 0.0141784 0)
(0 0.00998016 0)
(0 0.0299999 0)
(0 0.0290639 0)
(0 0.0239977 0)
(0 0.0299984 0)
(0 0.0206696 0)
(0 0.0280108 0)