/*--------------------------------*- C++ -*----------------------------------*\
| =========                 |                                                 |
| \\      /  F ield         | OpenFOAM: The Open Source CFD Toolbox           |
|  \\    /   O peration     | Version:  v2012                                 |
|   \\  /    A nd           | Website:  www.openfoam.com                      |
|    \\/     M anipulation  |                                                 |
\*---------------------------------------------------------------------------*/
FoamFile
{
    version     2.0;
    format      ascii;
    class       volScalarField;
    location    "750";
    object      omega;
}
// * * * * * * * * * * * * * * * * * * * * * * * * * * * * * * * * * * * * * //

dimensions      [0 0 -1 0 0 0 0];


internalField   nonuniform List<scalar> 
10042
(
0.0219083
0.0220508
0.0219128
0.0231405
10.1445
0.0220718
5.74307
4.16093
0.0217633
0.0220102
5.62459
0.0230779
0.0215354
0.0215001
0.0236685
0.0220331
0.0220246
0.0222585
0.0219112
0.134752
0.021904
0.254466
0.0215878
0.0216185
0.022058
0.0295683
0.0221331
0.022802
0.0218037
0.0224511
0.0220203
5.65947
0.0220211
0.0223436
0.0265762
0.0216301
0.0287135
0.0342505
0.021632
0.0301123
0.146775
0.0232678
5.5486
0.0220067
10.335
0.0616721
0.0223534
0.0982788
0.0277748
0.0499354
0.0221671
0.0222501
0.0232778
0.0229522
0.0287575
0.0220646
0.0218055
0.0223159
0.0223344
0.0230687
0.0220458
0.0220034
0.0267871
0.0218936
0.0222474
0.0223534
0.0220378
0.0745663
4.88141
0.0218798
0.0228787
0.159352
0.0220117
0.0322724
0.022015
0.0216158
9.61587
0.0219221
0.0302671
5.46544
0.0269681
11.4213
0.0220204
0.0228605
0.0220449
0.022214
0.0218853
0.170531
0.0219354
0.0218873
0.0222422
11.6789
0.0228912
0.0221785
0.022396
0.0218853
0.0219334
0.0218667
0.0295765
0.021805
0.0222908
0.116364
5.79563
0.0222026
0.0226632
0.0529088
0.0219095
0.0219268
0.0219125
0.0214527
0.02171
0.0218254
0.0261612
5.20568
0.0222353
0.0218365
0.0219419
0.0219174
0.0218835
5.48872
0.0219277
3.77865
0.022048
0.0219834
0.115219
0.0220227
3.52622
0.0286451
0.05096
0.0218787
0.0312717
0.0220036
4.9121
0.230791
0.0218056
0.0611567
5.12592
0.0222504
0.103104
0.196474
0.0227882
0.0219389
0.0225239
0.167296
0.0218911
0.0218251
0.0607526
0.0215373
0.0218822
0.0256551
0.0217858
0.0222555
3.62578
5.13661
0.0221861
0.0215311
0.0226117
0.0219949
0.0614955
10.6857
6.75438
0.143169
0.0219867
0.0217876
0.0221039
0.021985
0.061784
24.0621
6.22359
5.32797
0.0225649
0.0218389
12.4987
0.173873
0.0387768
4.81704
12.7779
0.0220282
0.0866318
0.0325121
0.0227611
5.52139
0.0220935
0.0285324
0.0231295
5.92459
0.299806
0.0221181
6.82509
0.0240482
2.8764
0.0225208
3.52227
12.4825
0.108928
10.7203
0.0257033
0.0219227
0.0215357
0.0235839
0.0374837
0.0221594
0.0218192
0.174253
0.0220773
0.0216824
4.6712
0.0221576
0.0222603
0.0222428
6.14308
0.0218716
0.0571049
0.346574
0.0225844
0.313287
0.0219634
0.0219901
0.0692217
0.0217678
0.0262733
0.0227467
0.41914
0.035481
0.0256009
0.0305728
0.400643
0.0218308
0.18723
0.0231173
0.0217622
0.138414
0.0218475
0.0230756
0.0219533
0.0258711
0.0217091
0.0214865
0.0233357
0.0261692
0.0219939
0.0220518
0.0220501
0.0262476
0.0218369
0.0220295
0.0216199
0.0227387
0.0227285
0.0222689
0.0215372
0.0218702
0.0245219
0.551463
0.143846
8.30704
0.0393361
0.0380919
0.0238587
0.0697055
5.59076
0.0231045
0.0219134
0.0215047
0.0235037
0.0217079
0.272134
0.0233411
0.0218805
0.0222504
0.0393253
0.0227763
0.315397
0.0386962
0.208233
0.0241288
0.0261321
0.0217108
0.0252787
0.0219198
0.0337932
0.0219027
0.0296479
4.88132
0.0216832
0.0218636
5.74699
0.0634452
0.0220814
0.0220445
0.0242124
4.79204
0.0573743
0.175608
0.022182
0.0215323
0.0218316
0.0217796
0.305277
0.0218738
0.0220397
0.0218356
0.0219655
0.0353083
0.0239162
0.0808193
8.96455
0.022871
8.78681
0.0218398
0.0250282
0.0221247
8.22311
0.115551
7.71442
14.5609
0.0216016
0.0233525
0.0218869
0.0241566
0.0306562
0.0222417
0.0336341
0.0217038
0.0215038
0.0220341
0.0866218
0.0222839
0.0237116
0.0219647
0.0237588
7.26698
0.0218396
0.0221767
0.0219893
0.0218627
0.0434358
0.108892
0.0379515
7.29042
0.0357536
0.0274805
0.0219817
0.0214829
0.0223265
0.022268
1.55129
0.0219029
0.0223527
0.106537
0.0218218
0.0249085
0.0229891
0.113606
0.0219022
0.0253922
0.047964
0.0333446
0.0235069
0.0219288
8.68513
0.0617687
0.0223315
0.0430402
0.0219485
0.0218516
0.0219464
0.0248491
1.65862
0.0244494
0.0222493
0.0228214
0.0222923
0.0222708
0.132902
0.0219268
0.0216198
5.11095
0.0218377
6.64095
1.50668
0.0329333
4.26248
9.828
0.028278
0.143488
0.0221594
0.0517422
0.0222913
0.0222486
0.257693
0.0220666
0.0244313
12.5968
0.0219955
0.0219053
0.0508283
2.24055
0.0222624
0.0215379
5.76963
0.116414
0.0218348
0.0749269
14.5255
0.0217667
0.022264
0.0216406
0.0218615
0.0214839
0.0216756
8.75386
5.40359
0.0222873
9.35413
0.0215019
0.0218746
0.779483
0.0220625
6.49207
0.062248
0.0228692
0.0215916
0.021531
0.149928
0.022675
0.0282776
0.0224309
5.24374
0.0224653
12.439
0.0234561
0.021936
0.0218365
0.793357
0.0219519
0.0257994
0.0218608
0.0218809
7.00142
0.0257887
0.0219304
0.0217469
6.35936
0.0218698
0.0261793
0.0234791
0.0217123
9.61804
4.3023
0.0218839
0.0221738
0.0246339
0.0215366
0.0220099
0.021972
6.19972
0.0219956
0.0217383
0.0288962
3.71439
0.0621753
0.0222685
0.032168
20.1893
0.0373014
0.0219374
0.0219351
0.235988
0.0222466
0.0219424
0.0294671
0.0218098
0.0216765
0.0229014
0.0215669
0.0388823
0.0219061
0.021956
7.06678
0.0217608
0.0224704
0.0220684
0.0223603
0.0334921
0.0218883
0.0218398
4.76369
0.0225776
5.56604
0.0230721
0.022282
0.0222767
0.143635
0.0218979
0.0219354
0.0220136
0.0224111
0.0280244
6.04037
0.0218736
0.0386899
4.52046
0.0371621
0.0222612
0.0219582
0.0220538
0.0222034
0.0218514
1.69925
5.43085
0.0220765
0.0286683
0.0290582
0.028448
0.0220238
0.0216559
0.914378
0.140232
3.29944
0.0215875
0.0221091
0.0220221
0.0218426
5.72853
0.0355654
0.0224166
0.0218688
0.0218049
0.021992
1.45284
0.0257805
0.0221405
7.46056
1.41132
0.449009
0.0540358
0.0220175
0.0218139
0.0566079
0.0552054
2.45399
24.6823
0.0248841
0.0261065
0.0222108
0.0236459
0.0221669
0.0222001
6.17879
0.0216137
0.0218434
0.0585352
0.0222106
0.312961
0.022875
0.151855
0.0298446
0.0222448
0.023237
0.0265746
0.0389749
0.0539724
0.0855946
0.0222823
0.0498558
0.0230414
0.0218824
0.0221195
0.0223579
0.0220352
0.0251416
0.0624506
0.0415642
0.0221437
0.0226453
0.0220096
0.0219138
0.132534
0.0219306
0.0234399
0.227857
0.0215686
0.0552884
0.073816
0.0220419
5.85285
0.0431845
0.0222102
0.334072
0.0220088
0.0222686
0.021961
0.0219802
0.0222924
0.0241465
0.022
1.01392
0.022787
0.0219632
0.0222604
0.0339839
0.034227
0.0219786
0.0243535
0.0218147
0.0331317
0.0219353
0.0299615
0.0216246
0.0229869
0.0215317
0.0219323
8.998
0.0216467
0.117143
0.0219672
0.0227652
0.0217417
0.034073
0.0220768
0.0447118
0.0220801
0.282031
0.0222621
5.8063
0.0215317
0.0235714
0.0222715
0.0219798
0.0219603
0.0240885
0.0220349
0.126369
31.9863
0.268742
0.0239993
0.0370428
0.0218135
0.0392145
0.0615408
0.0220134
0.0291592
0.0899484
2.67359
0.0741339
13.5237
0.0274311
0.0221464
0.0222315
0.0249254
0.024138
0.0360108
0.0216057
0.0235599
0.128502
0.0222649
0.021915
0.0247484
5.67128
0.0234149
0.0310126
0.0563716
0.0222516
5.27308
0.0216211
0.0218238
0.0224799
0.021817
7.15722
0.0698991
4.92707
0.0220572
6.93395
8.75403
1.08129
0.0358411
0.069924
0.185574
0.0414124
0.0219657
0.0218647
0.0303154
9.11294
0.0218078
0.0295913
5.727
0.0218998
0.0219077
0.0218886
0.022981
0.021952
0.0219406
0.139449
10.6501
0.0219187
0.0220008
4.93899
2.88957
0.0218174
0.0219412
0.0221551
0.0218651
0.844302
0.0697558
0.298263
0.0226606
0.0219014
0.0217616
0.0227864
0.0220546
0.0333831
0.0226392
8.51929
0.0220079
0.0220763
0.041962
0.0218024
0.0338396
0.0673995
0.0230298
31.2889
3.96424
0.0221522
0.0218473
8.51506
6.82616
0.036103
0.0219799
5.47264
0.193578
0.025747
0.0219485
0.021996
0.0219242
0.369103
0.023964
0.0973572
0.0222686
6.77371
1.54566
0.0219613
0.0219896
0.119031
0.0221512
0.0217389
0.0253397
5.30609
2.59777
9.15772
0.0223449
0.0614234
0.0397295
0.0216433
0.021879
0.0221941
0.346373
0.0222062
0.0219576
0.061284
0.0220119
0.0680627
0.0221117
0.0221081
0.0216891
0.0221518
0.211385
0.0221993
0.0218629
0.042589
0.0572793
0.413086
0.0222103
0.096974
2.47954
5.62162
0.0229808
6.58463
8.02884
0.0219015
0.0215469
0.0227051
0.0233266
1.79353
0.0235564
0.0221233
0.0222064
2.94523
0.0380336
0.0222781
0.0221428
0.0219363
0.0435088
0.0217532
0.0218388
0.0320648
0.0228943
0.0222046
0.0217725
1.44231
0.0218645
0.0228182
0.0220293
0.0224106
0.167986
0.0222033
0.0230964
0.0220729
0.0251883
0.835087
0.0222919
0.384916
0.0262476
2.0839
0.0216619
0.0235766
0.031491
0.0968588
0.0511434
0.0226274
13.5069
5.83326
0.0225096
0.0217984
0.954176
0.02208
0.0222512
0.0217279
0.0222418
0.0527016
0.0222928
0.0222931
0.0664528
0.0288469
0.022937
0.0316151
0.0227469
9.20086
0.0232429
0.888342
0.0218575
0.0586187
0.0375319
4.58107
0.0242684
5.5252
0.0222695
0.025305
0.0220431
0.022094
0.0219038
0.142267
0.0407616
0.0475209
8.38754
0.0221204
11.4684
0.0255915
0.021776
0.031492
0.0308656
3.67686
0.0219838
0.0283028
0.0525756
0.0235082
0.0421164
0.0222838
0.021577
0.0222833
0.344299
0.0221353
0.0220052
0.021735
0.0217251
0.0219368
0.0219902
0.0223551
0.0218455
0.0221521
0.0224638
0.0255545
0.0311224
0.0219905
2.41696
0.0219805
5.31045
0.0375147
2.43529
0.0371686
0.0251168
6.13128
0.0347622
0.366191
6.69399
0.0430776
0.0221996
0.0218426
0.0229959
0.173569
0.0218898
5.21795
0.0218714
17.2575
5.64258
0.0534778
0.0228708
5.46405
5.88123
0.0232003
0.0219793
0.0222639
0.0243597
0.0215675
0.0216678
0.0602552
0.235825
0.0220792
0.0218812
0.0223593
0.773991
0.0597666
0.0221573
0.0255163
0.0962027
0.0225032
0.0220291
5.04389
0.0223072
0.0218714
11.3825
0.0241754
0.0219498
5.63725
3.90706
7.57695
0.0219099
0.0232283
0.467093
0.0217339
0.0218788
0.0222843
0.0292422
0.0220451
0.0221118
0.0233044
0.0465302
0.193711
0.0217803
0.0219317
0.02208
0.021839
0.0225905
0.0216
0.157218
0.0290273
0.0219612
0.0219845
0.0217643
0.0219767
0.0224978
5.38385
0.0291839
0.0215296
0.0219251
0.0414702
3.87275
0.0220433
0.0219836
0.0220294
0.021539
13.498
0.04752
0.0217283
0.0220673
0.030007
0.110716
0.0221698
0.0222828
0.0251623
0.0220266
0.0259675
0.022387
6.07441
0.0357646
0.0220712
0.0262262
12.8272
0.0284821
0.167457
0.0254079
0.415177
0.022271
0.0221216
0.0251571
0.066069
0.0218918
0.021773
0.0222437
0.0226743
0.109892
0.128946
1.6938
0.0226904
0.0219933
0.0286208
0.0219763
0.0219717
6.52614
0.023832
0.0220183
0.0219837
0.306747
3.52535
0.0219919
0.0221095
0.0962503
0.0217871
0.0221047
0.021934
0.0932375
0.0231532
0.0259815
10.1674
0.0223
0.022169
2.43785
0.0219076
0.176047
0.0218989
0.023555
0.0429453
0.0219873
0.0220904
0.0221938
0.0235718
13.5524
0.0219177
0.0221357
0.22986
0.0258224
0.322984
6.10762
0.0483716
0.0222124
0.516325
0.0218454
10.0232
0.0221686
0.0220438
0.0217168
6.93496
0.0222125
0.0223676
0.0221605
0.0340308
2.15736
0.0285986
0.0510712
0.0219002
0.0221358
0.0379251
0.0296092
0.0218335
0.0255531
0.0218788
4.29892
4.90335
0.02214
0.0229398
0.0222231
2.30138
0.022158
16.3966
0.0219784
0.021836
0.0217226
0.0225105
0.0239019
0.0222715
0.0219908
0.0220021
4.43658
0.111143
0.02188
0.0246623
0.0240022
0.0419124
0.0218568
0.0258585
0.0230176
0.0219605
0.0232271
0.0307356
0.0222802
0.0219143
0.0269639
0.0217567
0.1768
0.0232486
0.150837
0.0221162
0.0220391
0.0218027
0.0685111
0.0406426
0.0217667
0.0246838
0.0744576
0.022471
0.0217697
0.0258024
0.0222247
9.90058
0.237602
0.0252353
7.78954
0.0231316
0.034794
0.0986721
0.0383382
0.0333174
5.77547
0.0298188
0.137055
0.0220426
0.0230691
0.0218598
0.0219456
0.026689
0.0217657
0.203934
0.022007
0.0219941
0.0781844
0.0219401
0.0549689
0.0257275
0.0257433
0.0218756
0.0430638
0.198306
0.0214251
0.031807
5.62487
0.0425296
0.0217638
0.0298303
0.021995
0.0217867
11.9229
0.021829
0.0217824
0.0507848
0.0219641
0.0269088
0.021768
0.022003
4.71226
0.0218743
0.0216664
0.02494
0.0219082
0.0215191
0.0222518
12.6453
0.0221579
0.0220855
0.0215777
0.0856663
0.0224151
0.0247876
0.0219268
0.0351133
0.0227375
0.0218947
0.022997
0.0221016
0.0217785
0.124286
0.0430706
0.0294331
0.0235314
0.0469032
0.0768964
0.0275906
0.0283054
0.0229823
6.16472
0.0219362
0.0220127
0.0219249
0.0222384
0.0359933
0.0218953
9.7634
5.00501
7.82274
0.0220853
0.0249532
0.0397881
0.0215373
0.0911777
0.0485812
1.07053
0.0657947
5.19876
0.0771019
0.183309
1.5849
0.0288359
0.0230301
0.0254441
0.0217816
3.1162
0.0226594
0.0294276
0.0217961
0.0253684
0.0220463
5.63584
3.9094
0.0222038
5.52744
0.820349
0.196837
0.0473448
0.0687552
0.0216697
5.50176
0.0219761
8.49337
5.52318
0.0222045
0.0219
0.0220029
0.0234501
0.0249345
0.0362628
0.208485
0.0221256
0.0220408
0.0254688
0.0224283
0.0220369
0.0264591
0.0218325
0.0220606
0.209649
0.0651037
0.022043
6.87656
0.0229249
0.0222722
0.0234735
0.348724
0.0219391
0.0217301
0.120443
0.207072
0.0218137
0.0255629
1.18854
0.0563095
4.96959
0.021778
0.166785
4.57422
9.11314
0.0220845
0.0219126
0.0621732
0.0264942
0.0423522
0.022361
6.40559
0.0508486
0.210752
0.0220727
0.0219776
5.83126
0.186741
0.022151
0.0222723
5.46457
0.0219205
0.0216028
0.021773
0.0235731
0.0221971
0.0298689
0.0221261
0.0237842
0.0216222
0.0332872
23.0062
0.06147
0.0354411
13.2367
0.0810525
0.0216466
0.0217833
0.0218867
0.0222837
0.141054
0.0300074
0.022066
0.0219929
0.0219725
0.0216068
0.0327771
0.0216158
0.049345
0.0241263
0.0221248
4.4542
6.23854
0.0221034
6.9334
0.0344468
0.0340232
0.0222641
0.0216266
8.67665
0.0788456
0.021923
0.0217281
0.0219331
0.0268227
0.0222624
0.15416
0.0215265
0.0220608
0.0220544
1.90824
5.63283
0.0215211
0.0220049
0.162374
0.507037
0.0247419
4.93075
6.67532
0.0217427
0.0221424
0.0221403
0.0231119
1.76817
0.0220393
0.0222844
0.209275
0.100233
0.0222124
0.0219448
0.0739447
0.0222836
0.0220762
0.117381
0.0852844
5.19922
0.0219843
0.0712895
0.0417656
0.0570033
0.0231348
0.0279005
0.021937
0.0219828
0.125744
0.0262178
0.0219979
0.0251437
5.49116
0.0215441
0.0218089
0.0215363
0.0800346
0.0219467
0.0220872
0.0214473
0.021945
0.926545
8.51734
0.022238
8.06425
5.38406
4.92383
0.0219336
0.0219411
0.0218275
0.0218868
0.0221178
0.022151
0.0216258
0.0220832
0.0217793
0.0244536
13.0987
0.0369399
0.326571
0.0302815
0.0220327
0.0232614
0.033013
0.0221929
0.021844
0.0411766
0.0326858
0.71896
0.0430669
0.0215021
10.5234
0.0228346
0.0215
0.0218811
0.341452
0.0447494
0.02279
0.0261748
0.0220735
0.0220959
0.0326731
0.0420495
0.0282311
8.12068
0.0220853
0.022031
0.796929
0.0383493
0.0255083
0.147767
0.0232781
0.0685236
0.349519
0.0699329
8.72152
0.021845
0.0217091
0.021941
0.0220488
0.0220958
0.0232908
0.0413493
0.0503318
13.0808
0.0220747
7.92741
9.61949
0.0244652
1.90448
0.0222574
0.103435
6.74873
0.0219117
0.10124
0.0215595
1.89458
0.0221978
0.239371
0.0218553
2.10756
0.0391238
6.02014
0.0218469
0.191519
0.0216305
0.0232823
0.312989
0.0218375
8.74996
5.6086
0.394734
9.77994
0.100495
5.14587
0.0403621
0.0220179
0.0462086
0.0480377
5.53465
0.0220789
0.0220179
0.0228028
0.0503572
0.0219465
0.022255
0.0222635
14.1177
2.19536
0.0219056
9.62839
0.0606902
0.0217268
0.0392852
0.0277683
2.37775
0.0304831
0.0217791
0.72242
0.0220731
0.0219388
0.0220907
0.140539
0.0656191
0.021814
0.0269359
0.0221114
0.0222607
0.0217925
7.98364
0.0222856
0.0218145
3.90989
0.307606
0.0242586
0.0218307
1.57316
0.0287065
0.0233947
0.0219578
0.0531102
0.0233148
0.0273684
0.0251223
7.94567
0.0450062
0.0636219
0.021497
0.0321552
0.0461697
0.0279811
0.0224332
8.61779
0.0222527
0.169025
0.0218832
0.0221941
0.0314403
0.217768
0.0236559
0.0254222
0.022115
0.0379295
0.0685357
0.0902255
0.0285032
0.0222924
0.0219662
0.02836
0.0855288
0.0219369
0.0450803
0.0220163
0.0219383
5.47748
0.0218852
6.3967
0.021941
0.0273508
0.0737547
0.0219363
0.0287757
0.0997094
0.11459
0.0219611
0.0804562
0.0226542
0.0222634
0.0218921
5.12522
3.32716
0.0219025
0.0219287
0.0216148
0.0218131
0.10013
4.1087
0.0219375
1.42876
0.0217312
0.0217978
0.0218896
2.27311
0.022956
0.0240826
0.0219459
0.0219988
0.0219124
0.0222568
0.0222595
0.0330832
14.0304
0.0216288
0.0219194
0.0423244
0.0741077
0.0217943
8.22432
0.0550417
0.0217917
0.0215151
0.022195
0.121921
0.0217468
0.0796139
0.0294467
0.0236355
0.0217877
0.0473293
0.0215304
0.144115
0.0282435
0.0224239
5.50582
3.843
0.0214323
0.0218537
7.15418
0.135833
0.0813091
0.0242564
0.0796762
0.0215503
6.21702
0.0638596
0.0217385
1.55568
3.80399
0.0233462
0.0465017
0.0562117
0.0217713
9.23821
0.0222077
0.0272282
0.0307443
0.0222986
0.02205
0.0539508
0.0218662
0.0218899
0.0218657
6.4222
0.0218497
0.0219396
0.0217598
0.0218857
0.0218627
0.0222304
0.0547623
0.046256
0.0236933
0.0222499
2.0616
0.0223184
0.021838
0.0218927
0.0216144
0.0220867
0.0219729
0.0291689
0.09597
0.0222242
0.0314019
0.0512863
0.0217535
0.0281292
2.82739
0.0228228
0.0215357
0.0220819
0.0860576
0.0222033
0.0222032
0.0246284
0.0252046
8.49636
12.0482
0.0218235
0.0218641
0.0219425
0.0716199
0.0231929
0.021798
0.028683
0.0782983
0.0221944
0.0273201
0.0221341
0.119111
0.223048
0.0229628
0.13458
0.0263457
5.5892
0.0222055
0.02189
6.45816
0.122954
0.0247397
0.170862
0.0950902
28.8287
0.0472599
0.716365
0.0260934
0.0251627
5.24952
0.0271908
0.203001
0.0302646
0.141404
6.66183
0.0222933
0.0221601
0.0219769
0.398333
0.0214546
5.59143
0.0376775
19.5737
0.0230584
0.123097
0.242594
0.0219485
0.022236
0.0823666
0.0304078
0.022089
0.0249993
0.0808115
0.0821791
0.0840689
0.114831
9.71721
0.160559
0.0221157
0.0222015
4.93197
0.0788986
0.0227812
0.0390103
3.41593
0.0223625
0.0240054
0.0219401
0.0293467
0.0220403
0.0221061
0.0395048
0.0221137
0.0227101
5.52902
29.6595
0.0217268
0.0260924
0.0272593
0.214214
0.0442847
0.022455
0.0219269
0.108413
20.4438
0.0219277
0.0253313
0.0221266
6.28475
0.0218254
0.0309517
0.700197
0.495315
0.0222721
0.147706
0.0952913
0.0607023
0.0260338
0.0220218
7.13233
0.0218118
0.0265576
0.0222654
0.0293602
0.021611
0.0216266
0.0221583
0.0714453
0.0218169
0.021979
0.0217909
0.0219995
0.0218633
0.0220764
0.0982877
9.88085
2.21057
0.0258667
0.0220577
0.0326185
0.0239
6.00733
0.022285
0.192612
0.02162
0.0219959
0.0225116
0.0360516
3.89895
0.0219582
5.42514
0.0223175
0.0215262
0.0232828
8.20027
0.0235507
0.0459353
6.05331
0.0222848
0.022205
7.62807
0.0218796
10.7987
0.0220893
0.0326548
15.9921
0.0226692
0.0220986
0.0218581
8.19281
0.0269946
0.0218637
0.836314
0.0219584
0.022772
0.0901708
20.2402
0.20918
5.14152
10.6573
0.077241
0.023722
0.199093
0.290623
0.0218198
0.0218561
0.0230008
0.0271244
0.0820813
0.0219908
0.0257079
0.0219028
0.0219607
2.04366
0.0222253
7.17885
0.0215614
0.0320945
0.062275
0.0218263
0.0215201
5.44203
5.83288
0.0692993
0.0220825
0.0253915
0.0526812
0.0217643
0.0357937
0.111835
0.0412036
0.0233262
5.57559
22.8824
0.0215473
0.0221336
0.0216486
0.0221946
0.0228344
0.0274694
20.8451
0.0221208
0.0219614
0.0444258
16.9012
0.0215701
4.36387
0.021594
0.153068
0.0611615
6.76054
0.0672614
0.0555051
0.05817
0.0215122
0.0215129
0.298073
0.0260547
0.0220892
1.53866
0.0218234
0.0220859
0.021622
0.051821
0.235391
0.771222
0.15344
0.0288083
0.0302956
0.0220023
8.86451
0.217281
0.0232558
0.0219731
0.0217559
0.0920217
8.24285
0.0369703
9.30549
0.022955
0.0217757
4.93663
0.0219492
5.81182
9.92349
0.0216895
0.0306324
0.29315
0.0245123
0.0368231
0.0218295
5.05325
0.026763
0.174064
5.75869
10.1599
0.0283951
0.0282837
0.0221371
0.168581
8.99398
0.0230054
0.0241758
5.10569
0.0509828
0.0702307
0.0222636
5.09348
5.35674
0.100832
0.0219425
0.0269664
0.0218934
5.34016
0.0792299
0.0350636
9.36092
5.42334
0.0215105
0.179865
0.0221024
9.47608
0.0981149
0.0268145
0.0253704
1.53234
0.0214069
0.0632118
6.88999
4.11414
0.0232183
0.0220324
0.0217874
0.0937392
4.49384
0.20058
5.63168
0.0926263
0.0434025
0.0217676
5.40107
0.0852006
0.0290702
0.206801
5.52763
5.14371
5.18305
7.32563
7.16842
5.28304
0.0220965
0.029382
0.0341467
0.0218887
8.86282
1.43241
0.0220206
7.81391
0.0221309
0.0219916
0.0217696
0.0320708
0.0218626
5.83765
0.0632281
0.233722
0.0216797
0.748039
0.0495727
0.483598
5.33482
0.0227342
0.0282859
0.0392218
0.0693151
0.0217706
0.0216242
0.0218885
5.3002
0.0217764
0.0217734
0.181602
0.0234172
17.0881
0.0220462
5.82055
0.021949
0.0220608
0.0219676
0.0219925
0.027139
0.0248419
6.68057
0.031815
0.0376796
5.25723
0.0218247
6.78963
0.021791
6.26927
2.58724
5.58289
0.0707774
0.0219906
0.0222726
6.12399
0.0220528
0.0265704
0.0221131
0.0303189
6.11703
0.0218858
0.0218443
0.0218673
0.0222651
10.286
9.8027
0.0218355
0.0214469
5.72831
8.8942
0.0218565
5.2785
0.0222642
7.72981
5.87017
0.0703324
0.398622
1.08325
0.0897418
5.04716
0.0802441
0.0219703
0.0215447
0.0217821
6.97059
9.3859
0.0231941
0.0287169
5.03424
0.02183
5.67151
0.0218431
0.0219383
0.0216249
9.84093
0.074989
0.0217553
4.89063
0.0222527
7.87837
4.83493
0.0217389
0.0221112
0.13388
0.0219519
0.0219388
0.0218287
3.19929
0.0326767
0.0220323
0.0221311
2.99935
0.0219313
0.0425294
0.0219859
5.45082
0.0221022
0.113043
0.0235781
4.99265
7.68248
0.0322667
0.0857576
0.0593064
0.0220762
0.0814454
5.30121
0.0217558
0.0901181
0.0217621
0.725744
0.0218885
5.7426
3.08544
0.112846
5.03731
4.91058
0.0419099
0.0225921
7.07032
0.0219321
9.06709
0.0256955
1.74334
0.0218653
0.0335225
0.0502207
0.0310461
0.0221206
0.02194
0.0221957
5.35185
0.0787837
4.91082
2.22324
0.0279837
0.0216196
0.0571057
11.3311
0.0345003
0.0217931
0.0220813
11.2932
8.7951
11.3131
5.96628
0.0375475
0.0223133
0.0217737
0.0547154
0.0544498
1.31777
0.0219999
0.0220709
34.0512
0.0715224
0.0222854
0.0652824
1.43972
0.117599
0.0216104
0.0504365
0.746594
1.86829
6.61935
0.31154
0.0218644
0.0222691
0.0220936
0.0222849
0.0219517
0.0220921
0.0342928
0.242688
0.0355353
0.0279561
0.0296242
0.0221879
0.026523
0.0225881
0.0358993
0.0336238
0.0218247
0.0290798
0.0218862
0.0218407
0.022606
0.0221211
0.464786
0.0215943
0.0818147
1.0439
3.47408
6.93285
7.42655
0.022436
0.0222368
0.0218981
5.78905
0.0218489
0.0214748
0.022175
6.04971
0.0319263
0.0354281
0.473973
0.0235737
0.0220334
0.0306054
0.0218736
0.0503049
0.0222854
0.0352738
0.021789
0.0219281
0.0231221
0.0237156
0.0253857
1.08689
0.039968
0.12274
0.0646776
0.136727
0.0464736
0.0743973
0.0218395
5.31162
0.0246645
0.0270769
0.0219334
0.0227622
0.135759
0.0219833
0.0683822
7.37076
0.0297317
0.386525
0.116497
0.056674
0.0750992
0.0637122
0.0219275
0.0295961
0.0220919
0.0859505
0.0546078
5.33011
0.0217557
0.0508502
0.0267226
3.13276
1.97526
0.0487059
0.0220995
0.0556861
0.0215721
0.0726571
0.0229217
4.07621
0.0216534
0.0261316
0.0220182
0.0373786
0.138116
0.0317238
9.56373
0.0220405
0.0309416
0.0644057
0.0220171
7.60604
7.40976
0.180997
0.0548998
0.0507382
0.0218155
0.0217722
9.31568
0.113936
0.0216227
0.022535
0.0251963
0.0218937
0.502011
0.0217831
6.60245
0.166409
0.166726
0.0389814
0.0223695
0.0216621
0.0218366
0.17105
0.0854994
0.026928
5.33362
0.0221745
0.023233
0.0276563
8.28716
0.0214995
1.19931
0.0214071
5.44171
0.0219083
0.0218936
0.0389465
0.0219855
0.0222637
0.158045
0.0220901
0.0223579
0.021782
0.0468547
0.0260815
1.54657
0.021991
0.0221179
0.0218469
0.146291
0.0218004
0.0290547
0.0437999
5.7739
9.49035
11.4173
0.894347
0.491028
0.0434042
0.0657584
0.0276352
0.0222512
0.0221214
6.49919
0.06017
0.0215424
0.0219637
0.0219547
0.028287
0.0895353
0.0222518
0.0306973
0.133475
0.190637
0.126597
0.0219667
0.0222376
2.58802
0.0238871
0.0215841
3.6013
7.93533
0.0216967
0.0214344
0.0273473
0.0220563
0.038925
0.0222485
2.86977
0.0222726
1.53844
0.0220103
5.30305
0.0307909
0.0219515
0.0622041
0.0215897
0.0219795
0.0222647
0.0340424
0.671733
0.0218539
0.191121
0.0222855
0.0221998
0.119872
0.0216953
0.0221289
0.0221029
0.0214755
0.0219763
0.0215057
0.0221671
7.41168
0.0218533
0.0217578
0.0604325
0.0216299
0.0219335
0.0221683
0.022251
8.99157
0.432326
0.0220699
0.0229434
0.021936
0.0222855
0.218941
0.0220559
0.0219846
7.73566
0.0219602
0.0479558
0.0573363
0.039357
0.0218715
0.246823
0.0219074
0.290872
0.0716078
0.0218935
8.68833
1.71192
0.0286246
0.130391
0.0218427
0.0218622
0.0470151
0.270771
0.0217706
0.0218565
0.0222877
0.043035
0.0221052
0.0375875
0.0221124
0.0501599
4.31128
0.0407413
0.196757
0.0218463
0.0249367
0.0228057
0.0235922
0.0216878
0.0218891
0.0230613
0.0234423
0.0716616
0.0224194
0.0923742
0.0218957
5.56838
0.0215257
0.0217722
0.0798671
0.0222716
0.117201
0.0862242
0.0388765
0.0219423
0.0230762
0.0219649
0.0389994
0.0220877
0.0575267
0.0261173
0.0221895
0.0216772
0.0279662
7.314
0.0330347
0.0544153
4.36661
1.46122
0.0405133
0.0215738
5.76068
0.0219728
0.0238184
0.0224406
0.111154
0.0219598
0.0366506
0.0282741
0.0237828
0.022122
0.0259129
0.0222001
0.0639738
0.0219315
0.0221862
0.0219871
0.029312
6.87553
0.022035
6.99311
0.0894778
0.0214557
8.71956
0.38406
0.0218207
0.0235093
0.0859742
0.0217904
0.0218955
3.4176
0.022028
4.16978
0.0257333
0.0250636
0.0227073
0.0224636
0.0219211
0.0218392
0.0631912
0.0225717
0.0219611
0.0219144
0.022274
5.35749
0.0381402
0.0221003
0.0294568
0.168411
0.0690496
0.0218778
0.0220672
0.021951
0.0254663
0.0228575
0.02244
0.0278622
6.64794
0.021815
0.0232361
3.02101
0.0250017
0.0989153
0.166246
0.0218687
0.0222701
0.602658
0.0927142
0.175716
5.24384
4.30955
0.210598
7.60535
0.0217864
0.0234197
0.0216789
0.0221872
5.25048
0.0219909
0.0589358
0.0647099
0.0302716
0.0253294
0.945338
0.0218992
0.0221179
0.0258318
0.0219333
0.0220498
0.0217762
0.0220663
0.0740119
0.0219369
0.022161
0.0217896
0.0474003
0.0221327
7.37279
0.0219131
0.0231654
0.021814
0.0222521
0.0229193
0.0219929
0.0396613
0.0230324
0.0219275
0.0290269
0.0220898
0.0222646
0.0220094
0.0316197
0.0224309
0.0220346
0.022048
0.0220614
0.0297344
0.0220211
0.0220083
0.113854
0.0220762
0.0219294
0.0241248
3.01969
0.0545967
0.0224609
0.0545331
10.054
0.126484
0.278364
0.0242208
0.0229864
0.0275223
0.42559
0.0221404
0.247971
0.0226279
0.0218916
0.0291869
0.0220533
0.0764664
0.0838767
0.0695333
0.0231673
0.021986
0.029425
0.0278404
0.0229762
0.0247701
0.0236304
0.0458261
0.078367
0.0748001
0.0219514
0.0242437
1.51056
0.0232181
0.0222853
5.33703
0.626572
0.0219793
0.0225371
0.0233836
0.0812457
7.70633
0.0219564
0.364316
7.75066
0.0392784
0.0633705
0.0216612
0.0239174
0.0228241
0.0882621
0.0222319
0.0299966
0.0236875
0.2857
0.0221939
0.0220628
6.90284
0.0237903
0.0230799
0.0222432
0.0222127
0.0396896
5.28959
0.0286167
0.0220438
2.68678
0.0921422
0.0224068
0.0219611
0.0218236
0.0245215
0.0217178
0.215739
0.0218546
0.0247823
0.025311
0.0619103
0.0267592
0.0218511
0.0278938
0.0246444
0.02184
0.0982552
0.0219427
0.0236996
0.0216878
0.022272
23.8433
0.0294346
0.0223845
4.923
0.0229618
0.0219486
7.56318
0.0699531
4.9979
0.0219277
0.0232374
0.0218685
0.0227276
0.0232355
5.98184
0.0226175
0.0954211
0.021793
0.0221327
0.0239151
0.0220043
0.037592
9.86831
0.698189
0.0219502
0.0217176
0.293362
0.0225948
0.0222229
0.0268615
0.0278646
0.500224
0.0916504
0.0229907
6.10314
0.0862223
0.0224878
0.0217576
0.0223151
0.0289761
5.02585
0.0222839
0.0648676
0.0228972
0.0220918
0.0215746
0.02238
12.3217
0.027305
0.0217831
0.0240392
0.022096
0.0255835
0.0214427
0.0233907
0.0220076
0.0230954
0.525796
0.0220725
0.0222132
0.104391
0.0216105
0.0215675
7.17738
0.0218745
5.31229
5.73569
8.92931
0.0271244
0.0221609
0.02151
0.0221393
0.0214831
0.0239395
0.223726
0.0535077
0.522771
0.0913967
0.0244967
0.0216007
0.0231734
0.0227671
0.0222726
0.0221573
0.0215575
0.0782933
0.0226599
22.7841
0.0223462
0.022879
0.0222635
0.0221369
8.5082
0.151404
0.0289836
0.0215081
0.0553472
0.0233262
0.0219716
0.0803669
0.0214567
0.0235854
6.1711
0.0219583
0.0218889
0.0218878
7.65365
5.20667
0.0216213
0.0227813
0.0249195
0.0221231
0.0216406
0.021993
0.0220764
0.0219017
0.0218518
0.0218999
0.0246299
5.43049
0.0390523
0.0219337
0.0219311
0.0224093
0.0222169
0.0221777
0.0264007
0.0278627
12.0505
0.0264399
0.022228
0.0227508
0.0219456
0.101144
0.0216057
0.0222237
0.0233693
0.0295618
0.0270558
7.39604
0.0221764
0.0315321
0.0227893
0.0227485
0.0221053
0.0215989
0.0231687
0.122174
0.181706
0.0217559
0.0387885
0.08078
0.0222647
0.0411704
0.0400603
3.89203
0.0222495
0.0238491
0.0226534
0.0215973
0.0811425
0.0219585
0.0219989
0.0529326
0.242883
0.212741
0.0217878
0.0219121
7.5563
4.89269
0.0215881
6.5838
5.72716
0.0218206
0.0215911
0.0217149
0.0220857
0.022141
0.0215511
0.0292729
6.07169
0.0218144
0.0219592
0.0216977
0.0221585
0.0217949
0.0218603
0.0215419
7.98506
0.0220806
0.240835
0.0221988
0.0218087
0.0231878
0.0218441
0.0221761
0.0300736
0.0221559
0.0223426
6.84451
0.0219921
0.0255883
0.0220517
0.0219815
0.0221416
0.0218108
0.125818
0.0220595
0.0221079
0.0220699
0.228806
0.0335909
0.0222437
0.0221758
0.0219375
0.0233012
5.1656
0.0236128
0.023913
0.02195
0.0221243
0.021942
0.0549373
0.0234496
0.0230379
0.501976
0.0467865
0.0218201
0.0256965
0.0220844
0.0225111
0.0218479
5.57374
0.0219615
0.0220586
0.0218046
0.0301855
0.0237539
0.022919
0.0219405
0.0217954
0.0655182
7.01433
0.0218359
0.0572885
0.0237312
0.0236078
8.23477
0.0217646
0.021985
0.0219502
0.0240896
0.0235071
0.0217921
0.0247085
0.0219058
0.104904
0.0215182
0.0217182
0.0256624
0.0221433
0.101174
0.0264438
11.9056
0.0687768
0.0222122
0.118075
5.09751
0.0226198
0.0250075
0.0220688
0.0256627
0.0217847
0.0411716
0.0463468
0.0218782
0.0296452
0.0218085
5.21989
0.0223303
0.0239236
6.37252
0.0453397
0.024429
0.172048
0.0221571
0.0219965
5.43551
0.0217686
8.30202
0.0218423
0.0218597
0.0753383
11.3242
0.0219095
0.0443143
11.05
0.0218515
0.0221755
0.0220257
0.0282467
0.0261184
0.0230073
0.0220061
4.9722
0.0219635
0.0227682
0.0219374
0.0218953
0.0220382
0.0237545
0.0288453
6.64319
0.0222315
6.69129
0.0219386
0.022834
0.0250011
0.0227739
0.0607621
0.0655599
0.0225671
0.0219293
0.0218243
0.0923742
0.0217421
0.0218268
0.662321
0.13809
0.0217424
0.0220039
0.021772
0.022091
0.0251285
0.0851694
0.0219657
0.0221275
0.0217451
0.0222736
0.0219641
0.0215118
0.0278869
5.09738
0.0216993
0.022331
7.52983
0.0219032
0.0401601
0.0220706
0.0312256
0.0570337
22.7093
0.0222612
0.0220562
0.0217867
0.0222478
0.0220431
0.0214539
0.0221451
0.0221276
0.0235122
0.0568793
0.0255442
0.0238247
6.37125
0.0220295
0.161571
0.0217427
0.0218648
0.0220164
5.02765
0.0218351
0.0580835
0.02324
0.0227962
0.0219355
0.0217642
0.0218267
0.022478
0.0218492
0.0218137
0.0506646
0.301993
6.07836
0.0217894
0.0514349
0.0223547
0.0220862
0.0217936