/*--------------------------------*- C++ -*----------------------------------*\
| =========                 |                                                 |
| \\      /  F ield         | OpenFOAM: The Open Source CFD Toolbox           |
|  \\    /   O peration     | Version:  v2012                                 |
|   \\  /    A nd           | Website:  www.openfoam.com                      |
|    \\/     M anipulation  |                                                 |
\*---------------------------------------------------------------------------*/
FoamFile
{
    version     2.0;
    format      ascii;
    class       volVectorField;
    location    "750";
    object      U;
}
// * * * * * * * * * * * * * * * * * * * * * * * * * * * * * * * * * * * * * //

dimensions      [0 1 -1 0 0 0 0];


internalField   nonuniform List<vector> 
10042
(
(0.996796 0.0139544 7.70198e-21)
(0.998583 0.00661631 -7.18994e-21)
(1.0408 0.0152177 -3.82341e-21)
(1.00979 4.22964e-05 -5.55364e-22)
(0.495094 0.0856164 -5.71944e-20)
(0.999235 0.00600951 0)
(0.619405 0.00597285 5.91718e-20)
(1.30072 -0.00414137 -7.93801e-20)
(1.03339 0.0149343 -7.07901e-21)
(1.00214 0.00611305 0)
(-0.298731 -0.0245074 -5.37119e-20)
(1.01496 4.27073e-05 7.1677e-23)
(1.01727 0.00231795 -1.29546e-21)
(1.01743 0.000902994 3.50239e-22)
(0.959499 0.0583878 2.32686e-20)
(0.999835 0.00756458 0)
(0.999811 0.0079795 -6.88926e-21)
(1.00004 0.000404866 -6.80143e-21)
(0.996924 0.0135667 -6.22435e-21)
(0.675262 0.291372 0)
(1.00509 0.00645623 4.29451e-22)
(1.27219 -0.0524436 8.642e-20)
(1.01628 0.000478233 0)
(1.01584 0.00468866 0)
(0.998643 0.00623136 8.02196e-21)
(1.10633 0.0230529 2.28844e-20)
(0.998809 0.00222669 0)
(0.996296 0.0595097 9.20339e-21)
(1.02408 0.0238886 -4.88688e-22)
(1.00439 0.0529456 -3.91587e-22)
(0.996584 0.00564489 -1.02371e-20)
(-0.146282 0.00872058 -1.14524e-19)
(1.00205 0.00575098 4.18518e-21)
(1.02321 0.0479824 0)
(1.07689 0.0626293 0)
(1.01544 0.00484041 -1.05221e-21)
(1.10162 0.0271996 0)
(1.11869 -0.00516261 0)
(1.0151 0.00451779 1.96581e-21)
(1.00679 0.129622 4.56002e-21)
(0.646895 0.283929 0)
(0.9684 0.057792 -2.05813e-20)
(0.594563 0.00736771 -1.21823e-19)
(0.993772 0.0348605 0)
(0.500211 0.087266 5.79534e-20)
(1.17483 -0.0138187 0)
(0.976781 0.0396997 0)
(1.19807 -0.0750887 -8.41195e-20)
(1.09321 0.0406854 2.77185e-20)
(1.12396 -0.0679859 0)
(1.00048 0.000569688 0)
(1.04271 -0.0111016 6.48241e-23)
(0.958538 0.0461539 -5.31637e-20)
(1.05276 -0.0123963 1.15747e-20)
(1.1012 0.0303241 2.06701e-20)
(0.999293 0.00628509 0)
(1.02504 0.0239081 5.12911e-22)
(0.977385 0.0383428 -1.22775e-20)
(1.02394 0.0464465 -1.58498e-21)
(0.961018 0.0463134 0)
(0.997613 0.00583863 1.05389e-21)
(0.997182 0.00806109 -9.86249e-21)
(1.07779 0.0661944 0)
(1.03973 0.0156036 6.12488e-21)
(0.964989 0.0190362 -3.23863e-20)
(1.02706 0.0456176 0)
(0.973217 0.0144494 0)
(0.727025 0.204656 5.48085e-20)
(-0.234799 0.0129378 -8.69622e-20)
(1.002 0.0291433 4.32754e-21)
(1.05144 -0.0133446 -2.21715e-20)
(0.630204 0.294501 0)
(0.992407 0.0346377 0)
(0.860639 0.074013 9.24367e-20)
(0.974128 0.0108376 -1.07496e-20)
(1.01619 0.00496595 0)
(0.392237 0.0647673 -9.54847e-21)
(0.996721 0.0127241 2.65302e-20)
(0.899905 0.0962325 0)
(0.491546 0.0309913 -9.9178e-23)
(1.09005 0.0395846 -3.04112e-20)
(0.667388 0.116868 0)
(1.00944 0.0388703 8.04469e-21)
(0.971205 0.0506052 -4.37147e-21)
(0.972931 0.0133243 0)
(1.00009 0.00162466 0)
(0.997521 0.0156288 -7.12126e-23)
(1.16214 0.29292 0)
(0.986393 0.0231327 1.76515e-20)
(0.997992 0.0156855 -5.74564e-23)
(1.03772 0.0353081 1.32966e-21)
(0.688384 0.123335 -1.51118e-21)
(0.99738 0.0616915 1.12272e-20)
(1.04202 -0.00999673 3.9555e-21)
(1.00315 0.0512546 1.29651e-20)
(1.01822 0.0315101 -4.05661e-21)
(0.999991 0.0120263 0)
(1.01202 0.0303178 -6.13666e-21)
(1.00692 0.125539 5.05494e-21)
(1.02978 0.0215401 -6.9332e-22)
(0.999992 7.93728e-05 1.86217e-20)
(1.17916 0.226374 0)
(1.25252 -0.0182918 0)
(1.00011 0.00178426 5.23783e-22)
(0.989628 0.0547931 1.11021e-20)
(1.04523 0.221847 0)
(0.994177 0.0131739 0)
(1.0001 0.0124093 0)
(1.00491 0.00611219 0)
(1.02348 0.000216492 0)
(1.01121 0.00128948 -4.65581e-21)
(1.0059 0.0230932 1.51169e-20)
(1.04321 0.0884712 -8.09549e-22)
(-0.261205 0.0212067 -3.48132e-20)
(0.966042 0.0180213 4.4649e-20)
(1.00298 0.0214925 -1.65454e-20)
(0.991226 0.00684111 0)
(0.996578 0.0131334 0)
(1.01887 0.0306441 0)
(-0.0577767 0.0429968 7.60899e-20)
(0.986549 0.0222014 0)
(1.3358 -0.0116197 0)
(0.997428 0.0382753 1.40813e-20)
(0.993876 0.00472105 0)
(1.17959 0.21704 3.45656e-20)
(1.00851 0.0395764 0)
(1.34013 0.00419289 7.0577e-20)
(1.09299 0.0596792 1.24084e-20)
(1.03762 0.217318 -1.08429e-21)
(0.998644 0.0165064 0)
(0.897115 0.102227 4.10465e-20)
(0.979599 0.0223041 -1.69567e-20)
(-0.230527 0.013543 -8.28198e-20)
(1.28049 0.0413032 0)
(1.02884 0.0218064 4.4075e-22)
(1.11332 0.195955 -2.93715e-20)
(-0.141327 0.0307064 1.84838e-19)
(1.03783 0.0369462 1.38712e-21)
(1.2052 -0.0735416 4.59576e-20)
(1.16916 0.302204 -5.97126e-20)
(0.983124 0.0557197 -1.39763e-20)
(0.990725 0.00679675 -5.91356e-21)
(0.984269 0.0491989 0)
(1.23022 0.190398 -6.13238e-20)
(1.03904 -0.00450877 -5.40566e-21)
(1.00559 0.022562 -5.33429e-21)
(1.13932 0.162683 -2.24752e-21)
(1.02815 0.000329435 4.61665e-21)
(1.012 0.0314501 6.36382e-21)
(1.01472 0.0941124 -8.7255e-21)
(1.0358 0.0134074 -3.05832e-21)
(1.00003 0.000159389 -6.92661e-21)
(0.123003 0.101967 2.06681e-19)
(-0.0983098 0.0410659 -3.86114e-20)
(0.999525 0.00142774 0)
(1.01719 0.00202509 1.99036e-21)
(0.951849 0.0132478 0)
(0.996896 0.00820131 9.42285e-21)
(1.11084 0.203464 0)
(-0.0901223 -0.00681793 -2.68862e-19)
(-0.273138 -0.0414984 0)
(1.25131 0.0616257 1.97695e-20)
(0.995597 0.00686676 -1.39959e-20)
(1.03535 0.0143199 -5.164e-21)
(1.01351 0.0419689 9.83349e-22)
(0.980374 0.0212283 -1.51261e-20)
(0.945665 0.266186 -6.37631e-21)
(0.177941 0.118693 8.0512e-20)
(-0.167222 0.0153057 0)
(-0.0661353 0.0439908 7.00329e-20)
(1.05147 -0.00634523 -1.31111e-20)
(1.00643 0.0132177 5.62985e-21)
(0.852354 0.161394 -1.24039e-19)
(0.676978 0.344584 1.91597e-19)
(0.906087 0.16717 -5.56945e-20)
(0.61333 -0.0153679 0)
(-0.290158 0.226293 1.06082e-19)
(0.995487 0.0366692 3.08213e-21)
(0.71233 0.223687 -1.91442e-19)
(1.06914 0.116867 0)
(0.949339 0.0139691 -2.14348e-20)
(-0.127431 0.0103229 0)
(0.972093 0.0170774 -2.05581e-20)
(1.09013 0.0611217 3.36806e-20)
(0.968351 0.0547776 0)
(-0.0341619 0.0454882 -6.8794e-20)
(1.28749 0.0809401 0)
(1.0242 0.0404191 2.11749e-21)
(-0.269547 -0.0634716 0)
(1.0636 0.0459645 7.70329e-21)
(0.724348 0.748426 8.17659e-22)
(0.982138 0.0486111 0)
(0.123074 0.102182 -1.05848e-19)
(1.0383 0.191863 5.85811e-21)
(1.23083 0.0206939 1.10811e-19)
(1.20548 0.164157 0)
(1.08362 0.0295917 1.39757e-20)
(0.995066 0.0121587 -7.60553e-21)
(1.01684 0.00188731 9.27481e-23)
(1.03386 0.0669058 5.66621e-22)
(0.884171 0.14858 0)
(1.02537 0.0409415 0)
(1.00748 0.0231713 4.73598e-21)
(0.699825 0.367715 -1.71434e-19)
(0.971782 0.0157529 2.2264e-20)
(1.02041 0.0132388 2.31294e-21)
(0.796013 0.788139 -1.09088e-21)
(0.99927 0.00223203 -1.27048e-20)
(1.00003 0.000466058 7.25473e-21)
(0.999883 0.00077032 -2.10562e-20)
(1.34152 0.189278 0)
(1.01688 0.00028052 2.20894e-22)
(0.941052 0.254446 -7.95258e-21)
(1.02347 0.45456 4.34987e-20)
(0.953816 0.0150773 0)
(1.29223 0.0858089 0)
(0.977618 0.00975063 -1.74614e-20)
(1.00074 0.00893473 6.88212e-21)
(1.16847 0.146413 -2.25829e-20)
(1.01161 0.0150508 4.5169e-21)
(1.04689 0.0889037 -2.1563e-21)
(0.951188 0.0217926 5.29824e-21)
(1.12084 0.419374 0)
(1.12203 -0.0073379 3.01945e-20)
(0.943084 0.0744122 0)
(1.11047 0.0180574 0)
(1.30514 0.0261708 9.10716e-20)
(1.00428 0.0220565 1.03721e-20)
(1.26594 0.0912871 5.52034e-20)
(1.05244 -0.0157467 1.28342e-20)
(1.03411 0.0141733 4.67677e-21)
(0.809989 0.381298 -3.59983e-20)
(1.00597 0.0128996 -6.15841e-21)
(1.05126 -0.0167024 -1.25582e-20)
(1.04166 0.0160528 -8.29058e-22)
(1.01759 0.0963635 -7.24957e-21)
(1.01877 0.0151715 2.06102e-21)
(1.01786 0.000523105 5.61664e-23)
(1.06456 0.0226578 8.33905e-21)
(1.06824 -0.0303604 1.42716e-20)
(0.995507 0.00654879 3.66637e-23)
(0.99598 0.0382005 -1.85381e-20)
(1.01331 0.0403538 0)
(1.042 0.0919108 6.95617e-22)
(1.00333 0.020847 5.97502e-21)
(0.996816 0.00577167 4.86315e-21)
(1.01443 0.00104962 0)
(0.990328 0.0571994 1.1407e-20)
(1.05184 -0.00958801 1.60984e-20)
(1.00002 0.000301638 -7.23448e-22)
(1.01669 0.00118295 -4.2127e-22)
(1.00258 0.0282245 0)
(0.993619 0.0839314 -1.60952e-20)
(1.1327 0.431968 0)
(1.25058 0.0677834 -6.91352e-20)
(-0.23297 -0.0608252 0)
(0.898165 0.171364 1.24247e-20)
(0.922138 0.168931 3.80225e-20)
(0.958881 0.0614843 0)
(1.18677 -0.0130495 -2.27774e-23)
(0.793771 -0.0346496 9.51075e-20)
(1.06232 0.02244 -3.13091e-21)
(0.994305 0.0127504 -7.88905e-21)
(1.01766 0.000550252 -3.8461e-23)
(1.03162 0.0662011 -9.49091e-22)
(1.01835 0.0145682 -2.8656e-21)
(1.2771 -0.0584355 -7.64155e-20)
(1.06331 -0.000873491 -1.59255e-20)
(0.99812 0.0163903 -7.18962e-21)
(0.999925 0.000667011 2.11855e-20)
(0.873786 0.149347 0)
(1.0529 -0.0104108 -5.98608e-21)
(1.03635 0.440119 -5.92863e-20)
(0.91485 0.173094 -1.66945e-20)
(1.20143 0.267323 6.2998e-20)
(1.06433 0.0481491 -1.0223e-20)
(1.06645 -0.0323091 -2.4096e-20)
(1.01723 0.0140896 8.20325e-22)
(1.08138 0.0040704 -1.33965e-20)
(1.04015 -0.00433846 6.78028e-21)
(1.07267 0.120308 -7.48139e-21)
(0.990993 0.0236908 -7.1056e-21)
(1.10571 0.0265158 1.24553e-20)
(-0.191381 0.0199529 7.15987e-20)
(1.01983 0.0129119 -3.13263e-21)
(1.03708 0.0184686 -1.06815e-20)
(0.833392 -0.0382678 -9.3383e-20)
(1.17989 -0.0113936 -1.71028e-20)
(1.02399 0.0391329 0)
(0.997339 0.00550518 0)
(0.994558 0.0806959 1.68618e-20)
(0.619724 -0.0217135 0)
(1.17237 0.0722722 5.4431e-20)
(1.23729 0.187478 7.13768e-20)
(1.0004 0.000460957 0)
(1.01686 0.00160338 -1.20264e-21)
(1.00468 0.0226844 0)
(1.03374 0.0157738 4.16528e-21)
(1.30175 0.0191516 4.4678e-20)
(0.995289 0.0200065 1.82947e-20)
(0.997633 0.00619474 -4.58148e-21)
(1.00616 0.0145627 0)
(0.977536 0.00852711 0)
(1.11736 -0.0205399 -3.24682e-20)
(0.967492 0.0687481 -2.75788e-20)
(1.09465 0.258347 0)
(0.288149 0.0169777 0)
(0.962511 0.0435429 -2.34707e-20)
(0.872127 0.0531433 6.29438e-20)
(1.00316 0.0195115 -5.45125e-21)
(1.07942 0.00447638 2.08408e-20)
(0.998631 0.00251764 0)
(-0.287381 0.0102962 -1.21703e-19)
(1.18888 0.203284 4.24188e-20)
(1.30623 0.262256 -2.24116e-22)
(-0.243179 0.258579 -6.11535e-20)
(1.01703 0.00510706 8.13719e-22)
(1.06378 -0.00223896 0)
(1.00249 0.0301162 4.71037e-21)
(0.978406 0.0764278 -1.98648e-20)
(1.11018 0.0217984 0)
(1.00002 0.000916142 0)
(1.0583 0.132166 -8.31915e-21)
(1.01158 0.00133732 1.03514e-21)
(1.01804 0.000299966 -5.61858e-23)
(0.994157 0.0365549 1.4869e-20)
(1.09923 0.267089 0)
(0.999988 0.000205328 1.78314e-20)
(1.06075 0.0450886 6.04456e-21)
(0.980659 0.018972 9.10435e-24)
(0.96995 0.0669972 2.40389e-20)
(-0.282219 0.106621 0)
(1.00286 0.0201872 -6.06524e-21)
(0.999423 0.00166647 0)
(1.00306 0.00204874 1.78308e-22)
(1.03894 0.0144391 -2.44618e-21)
(1.07909 0.167633 -1.41008e-20)
(1.23343 0.0166226 -8.15042e-20)
(0.931113 0.173538 -9.45815e-21)
(1.26241 0.0699411 -5.02439e-20)
(1.11935 -0.0172273 0)
(1.08632 0.0595258 -4.74319e-22)
(0.979795 0.0198151 -9.58515e-24)
(1.01763 0.000839707 -2.21325e-22)
(1.04266 0.0336088 0)
(1.00003 0.000332484 6.85696e-21)
(1.34641 0.0737903 -1.34543e-19)
(0.99139 0.0243206 -4.62815e-22)
(1.026 0.0468444 2.93725e-22)
(1.18461 -0.113019 1.82755e-21)
(1.0068 0.0235898 -1.54016e-20)
(0.982737 0.0842886 3.17042e-20)
(0.970977 0.053415 4.53719e-21)
(1.19205 -0.114432 -7.13726e-20)
(1.04227 0.00613154 0)
(0.944721 0.0715653 0)
(1.03818 0.209132 0)
(1.05323 0.131231 -8.92649e-22)
(1.0372 0.0635868 0)
(0.99402 0.0112877 1.63126e-20)
(1.11562 0.0626879 0)
(1.14544 0.161772 7.93474e-20)
(1.05197 0.0104713 -7.4868e-22)
(1.08072 0.161062 7.40126e-21)
(1.00187 0.0103247 -8.4207e-21)
(1.00591 0.012427 6.06183e-21)
(1.0021 0.0102271 -9.15932e-23)
(0.979488 0.0845001 2.31812e-20)
(1.31824 0.274596 -6.86024e-20)
(1.06559 -0.0168001 -2.57982e-21)
(1.00003 0.000780643 8.03873e-21)
(0.964816 0.0437875 2.16425e-20)
(1 8.41812e-05 0)
(0.999986 0.000428522 -1.9395e-20)
(0.692134 0.310572 -5.03503e-20)
(0.994817 0.0117711 1.49757e-20)
(1.02582 0.00883878 1.40726e-21)
(-0.121774 0.0334646 -1.24508e-19)
(1.00737 0.00852619 0)
(1.0992 -0.0240405 8.61986e-21)
(1.35366 0.0664861 4.53031e-20)
(0.860763 0.0818118 -1.0695e-19)
(0.514536 0.000883582 2.21042e-22)
(-0.206375 -0.0581009 2.76836e-20)
(1.00807 0.114861 -6.3672e-21)
(0.787555 0.37719 0)
(0.999221 0.00194829 -1.24817e-20)
(1.12973 -0.0684663 0)
(0.999998 0.000116004 -7.84277e-21)
(0.976648 0.034934 -3.28439e-21)
(1.2346 -0.154305 4.63532e-20)
(1.00053 0.00595159 -5.04575e-21)
(0.975878 0.0785178 2.14986e-20)
(0.563785 0.941839 5.25797e-20)
(1.01587 0.000433522 0)
(1.00494 0.00674243 0)
(0.773212 0.126856 0)
(0.760989 0.691882 0)
(1.02634 0.0438682 -1.64971e-21)
(1.02773 0.00123141 -2.87008e-21)
(-0.152313 0.0139131 1.33458e-19)
(1.18912 0.212563 -4.45172e-20)
(1.00649 0.0137313 -6.23493e-21)
(0.722278 0.188927 -4.07737e-20)
(-0.0273363 0.0232615 0)
(1.01211 0.0152598 -5.61652e-21)
(1.00001 0.00053113 -7.9356e-21)
(1.02198 0.0102516 -2.99182e-22)
(1.00003 0.0180775 -6.72159e-21)
(1.01803 0.000387463 5.88988e-23)
(1.01967 0.0121288 -1.41186e-23)
(1.00507 0.052292 -1.66889e-19)
(1.24638 -0.0120456 0)
(0.975991 0.0364119 -1.05957e-20)
(0.463961 0.0361061 -8.1683e-20)
(1.01723 0.000776874 -1.5849e-23)
(0.995386 0.019188 -1.74658e-22)
(1.26399 0.302599 5.80608e-20)
(1.04606 0.010825 -1.29966e-20)
(1.11312 -0.0184236 -9.35695e-21)
(1.17858 0.0729067 -8.61772e-20)
(0.96912 0.0492839 -1.97905e-20)
(1.02652 0.00649038 1.64963e-21)
(1.02718 0.00148632 -1.29174e-21)
(1.0482 0.362603 0)
(1.05268 -0.0074218 1.85763e-20)
(1.00339 0.11641 -1.00045e-21)
(0.996641 0.0515017 -1.60052e-21)
(-0.288134 -0.0299211 -5.24425e-20)
(0.95605 0.0141648 0)
(1.16433 0.22972 0)
(0.962731 0.0576742 0)
(1.00351 0.00862056 -4.11484e-21)
(1.00341 0.0221487 -6.34241e-21)
(1.1966 0.394932 3.65066e-20)
(1.00299 0.00844801 -6.06045e-21)
(0.909542 0.0304656 4.69406e-20)
(0.998462 0.023365 9.7586e-21)
(1.04129 0.00643844 0)
(-0.122204 0.00666446 1.45826e-19)
(1.08374 0.0350415 -1.51087e-20)
(0.990923 0.00827701 2.30232e-20)
(1.01182 0.000833622 7.54913e-23)
(-0.199554 0.0204454 5.18124e-20)
(0.999294 0.0173002 1.26051e-20)
(1.08562 0.0367805 1.94981e-20)
(1.0269 0.0675834 -3.20385e-21)
(1.01766 0.0146171 -3.23659e-21)
(0.639938 0.0525862 8.04894e-20)
(0.497563 0.00574715 0)
(1.00577 0.00775841 -2.78476e-21)
(0.968012 0.0182153 -6.84356e-21)
(1.0678 -0.0164777 -1.28085e-20)
(1.01661 0.00139592 1.46234e-21)
(1.00002 0.0085833 1.97934e-21)
(0.992812 0.00374631 0)
(-0.200246 0.020333 6.00064e-20)
(0.994283 0.00339247 0)
(1.01725 0.000368146 4.76608e-23)
(0.971418 0.119425 -1.74566e-20)
(1.30975 -0.0239377 0)
(1.16221 0.134346 0)
(1.00002 0.000360173 -6.9167e-21)
(1.07129 0.11153 0)
(-0.0080473 0.00901878 6.61218e-20)
(1.12063 -0.0244079 2.65803e-20)
(0.989322 0.00433547 8.2571e-21)
(0.994342 0.0108277 -1.60075e-20)
(1.28082 0.0477777 -5.85593e-20)
(1.0505 0.0103742 6.11027e-21)
(1.00343 0.0082341 4.06366e-21)
(0.898368 0.0840713 -3.48137e-20)
(1.03511 0.0161755 4.28508e-21)
(1.0192 0.0119369 2.85303e-23)
(0.949154 0.0234799 -3.19647e-20)
(1.01938 0.00486484 3.24338e-22)
(0.954911 0.182678 1.68357e-20)
(0.993737 0.0134897 0)
(1.00278 0.00855669 0)
(-0.307161 -0.0221284 -5.83471e-20)
(1.01015 0.00581729 0)
(1.04968 -0.00670396 -1.00113e-20)
(1.00071 0.00572518 5.70531e-21)
(0.997806 0.0497199 -8.48292e-21)
(1.06193 0.126775 -6.41784e-21)
(1.00552 0.0075935 0)
(1.0378 0.0145346 0)
(1.3382 0.281566 2.33638e-19)
(1.00108 0.0559207 -6.59216e-21)
(0.346277 0.0605168 -8.89151e-20)
(1.06106 0.0244588 1.08204e-20)
(0.999999 0.000150223 -1.04573e-20)
(1.00001 0.000131816 -1.35734e-20)
(1.18721 0.242674 0)
(0.98998 0.0202281 -3.11451e-21)
(0.990837 0.00792801 -9.54872e-21)
(1.00256 0.00236328 0)
(1.05333 0.0083314 -1.59155e-20)
(0.948097 0.103154 0)
(0.621164 0.0134356 -1.06478e-19)
(0.998752 0.0171881 -6.89312e-21)
(0.947689 0.179119 1.54688e-20)
(0.627523 0.758176 1.38834e-21)
(1.11918 -0.0280534 9.79913e-21)
(1.00002 0.000526912 7.43073e-21)
(0.992733 0.00652168 -2.56425e-20)
(1.04515 0.00160002 9.18416e-22)
(1.00008 0.00181843 9.85504e-21)
(1.00183 0.0182913 -7.51771e-22)
(-0.112171 0.192935 0)
(-0.179998 0.0250233 -1.30013e-19)
(1.00047 0.00557129 0)
(1.09346 0.0563488 1.34705e-20)
(1.09514 -0.0167715 0)
(1.09235 -0.0159532 -2.24824e-20)
(0.972886 0.0102236 0)
(1.01323 0.00123017 -8.57267e-24)
(1.329 -0.0225411 5.27479e-20)
(1.05826 0.353866 2.0816e-22)
(0.665297 0.740055 -1.60404e-20)
(1.02579 0.00658459 -3.1446e-21)
(1.0465 0.00202942 1.97764e-21)
(1.04486 0.0113379 1.46111e-20)
(1.0072 0.00881717 0)
(-0.189361 -0.0418202 0)
(1.08229 0.122298 -1.16508e-20)
(1.05325 0.00971575 7.06218e-21)
(1.0244 0.0281655 2.89363e-21)
(1.00998 0.000624734 3.17355e-21)
(0.975067 0.00833706 -1.70813e-20)
(1.34465 -0.0203146 0)
(1.08521 0.0322222 -1.6202e-20)
(0.998875 0.00196522 7.18404e-21)
(-0.23237 0.0128426 -3.1444e-22)
(0.748041 0.648828 1.30167e-20)
(0.99334 0.490612 0)
(1.05446 0.221084 6.38865e-21)
(1 0.00817963 -1.97046e-21)
(1.02881 0.0229954 -3.02559e-22)
(1.12091 -0.0898337 1.42161e-21)
(1.13557 0.150808 3.10508e-20)
(-0.131362 0.134786 -2.41086e-20)
(0.238212 0.130218 0)
(0.943624 0.0641356 1.00704e-20)
(0.90549 0.0283495 -5.15322e-20)
(1.00011 0.00155836 4.30922e-21)
(1.06026 0.0424865 -7.56195e-21)
(0.969156 0.0187397 7.29761e-21)
(1.00013 0.00174725 -1.12699e-20)
(-0.282581 -0.0404557 -1.00555e-19)
(1.01476 0.00111534 0)
(1.00277 0.0189043 -5.3857e-21)
(1.16644 -0.0265836 2.80955e-20)
(1.00005 0.00164814 -4.42763e-21)
(1.27636 -0.0929914 7.59954e-20)
(1.05894 0.0239336 -1.03927e-20)
(1.25176 -0.0148953 5.00317e-21)
(1.02194 0.122851 0)
(0.999923 0.000672885 0)
(1.06383 0.0051095 4.79493e-21)
(1.07961 0.0604195 0)
(1.09157 -0.0682767 1.70375e-20)
(1.05926 0.216063 -2.31569e-21)
(0.942 0.316681 1.76309e-20)
(0.999983 0.000201182 0)
(1.12074 -0.0727099 0)
(1.03566 0.0570392 0)
(1.01686 0.0311672 0)
(1.00075 0.00310941 1.05384e-21)
(1.04278 0.0351045 0)
(0.996069 0.00304373 -5.15837e-21)
(0.942027 0.0674505 -9.35638e-21)
(1.16373 0.129679 0)
(0.837804 0.139267 -8.15245e-20)
(0.998853 0.00158713 1.37525e-20)
(0.999934 0.0577728 1.50595e-20)
(1.00264 0.0021882 0)
(0.990736 0.011231 -2.2663e-20)
(0.774252 0.357797 -4.71538e-20)
(1.00436 0.00557689 0)
(1.02223 0.0684813 -4.69122e-22)
(1.26756 -0.0531905 0)
(1.01896 0.00472953 -7.18512e-22)
(1.13383 0.157965 -5.95902e-20)
(1.13565 -0.11412 -4.20245e-20)
(0.997086 0.00542608 -5.18839e-21)
(-0.0423263 0.0454406 0)
(1.14588 0.0213093 7.03109e-20)
(0.999979 0.00168698 -1.0048e-20)
(1.29261 0.103816 5.99667e-20)
(1.04373 0.0151773 -7.66497e-21)
(1.00002 0.000382976 7.46659e-21)
(0.979362 0.0140788 4.32502e-21)
(0.994096 0.00583795 -1.44664e-20)
(0.999995 0.000112712 8.50488e-21)
(1.06113 0.0531987 0)
(0.973914 0.00803883 2.33287e-20)
(0.796254 0.606299 2.53499e-21)
(0.985507 0.0562904 -9.66581e-21)
(0.99319 0.00679319 -1.7884e-21)
(1.02945 0.0424304 0)
(1.0666 0.127524 1.4823e-20)
(1.12065 0.0368954 1.97048e-20)
(0.99352 0.00441884 -1.39006e-20)
(1.07358 0.00041597 -1.68824e-21)
(1.02799 0.0231551 0)
(1.11499 -0.00719759 0)
(0.980776 0.00822529 -3.78877e-21)
(1.01784 0.12609 1.37888e-21)
(1.02658 0.00901187 -1.76371e-21)
(0.943955 0.0157348 -2.34709e-20)
(1.02658 0.00229977 0)
(1.00259 0.0105593 0)
(0.380348 0.0325264 2.57036e-20)
(1.02151 0.0105521 0)
(0.778631 0.339545 1.22462e-21)
(0.992655 0.00423289 0)
(1.05829 0.00580025 0)
(1.01072 0.00551191 -2.96577e-23)
(1.12128 0.0179143 1.6542e-20)
(1.00062 0.00540188 0)
(1.14987 0.023645 -4.18492e-20)
(1.02519 0.0380286 0)
(1.28569 0.105292 5.09428e-20)
(0.999977 0.000540327 1.00776e-20)
(0.732418 -0.0156335 1.74231e-19)
(1.02805 -0.00010668 -3.25726e-23)
(0.969047 0.0639211 -1.22728e-20)
(0.999962 0.00022328 6.91436e-21)
(0.976537 0.0105068 -9.01722e-21)
(1.00163 0.00991317 1.50566e-20)
(1.05926 0.0541765 0)
(0.996173 0.00360303 -1.22434e-20)
(0.641161 0.249492 -8.49557e-20)
(0.556915 0.428201 7.33619e-20)
(1.26786 -0.100687 0)
(1.07263 0.0200875 0)
(0.936825 0.16767 9.22868e-21)
(1.00895 0.0234156 -6.5727e-21)
(0.975365 0.185133 -2.30701e-20)
(1.17443 -0.0195054 2.96895e-20)
(1.0022 0.00565726 4.65926e-21)
(0.905129 0.0847537 3.33454e-20)
(0.935826 0.331219 0)
(-0.113289 0.130863 0)
(1.12965 -0.115906 5.89512e-20)
(1.14092 0.287397 4.94363e-20)
(1.08321 0.0620069 -3.17266e-20)
(0.999618 0.0428838 -5.54212e-21)
(1.00004 0.00116432 0)
(1.07786 0.00311992 6.52537e-21)
(1.06296 0.0498817 0)
(1.09047 -0.0598274 0)
(1.01665 0.00482719 0)
(1.04134 0.0609804 -1.06877e-21)
(1.24436 0.0710845 4.78088e-22)
(1.00003 0.000139841 2.13554e-22)
(0.990595 0.0106695 5.85693e-21)
(1.0757 -0.00092525 0)
(0.0076027 0.0731977 8.70377e-20)
(0.971429 0.0623142 0)
(1.06826 0.107504 -6.15616e-21)
(1.1162 -0.0943065 0)
(0.999948 0.000540778 0)
(0.475273 0.030156 6.48324e-20)
(1.0166 0.00569064 -2.09463e-23)
(1.0071 0.0146154 7.46957e-21)
(1.0063 0.0530187 -1.94644e-21)
(1.03532 0.0170388 -5.20887e-21)
(-0.268901 0.0134736 1.37542e-19)
(1.18176 -0.0347801 1.22013e-21)
(-0.0455495 0.0861427 -9.05737e-20)
(1.00184 0.000834801 -1.90394e-23)
(1.24334 0.413249 4.96375e-20)
(-0.0108655 0.0508302 0)
(1.33681 0.0615186 0)
(1.09148 -0.0568534 0)
(1.18851 -0.0179264 4.33094e-20)
(1.26319 0.0850047 0)
(1.00543 0.191534 5.77892e-21)
(0.980219 0.0177451 -1.94266e-20)
(0.997976 0.0240065 1.33024e-21)
(0.89518 0.0897855 0)
(-0.315473 0.00624457 1.53843e-20)
(1.01047 0.0235144 1.12754e-21)
(0.968874 0.123973 0)
(0.229675 0.0774824 0)
(0.993555 0.0145356 -1.13449e-20)
(1.00345 0.0112046 1.43686e-20)
(1.01634 0.0320042 -5.20286e-21)
(0.989403 0.0618205 -1.26577e-20)
(1.00146 0.0100444 -8.81672e-21)
(1.04346 0.00445042 0)
(1.17758 0.246641 -4.90805e-20)
(1.08781 0.141135 5.74392e-20)
(1.04242 0.0047373 0)
(1.00082 0.00857623 0)
(-0.25044 0.00776579 0)
(0.0539423 0.115873 3.98244e-20)
(1.00831 0.023851 0)
(0.989987 0.00424013 -1.68767e-20)
(1.0005 0.000681896 0)
(0.999456 0.0179747 -7.05337e-21)
(1.26944 0.315159 4.0012e-20)
(1.17979 -0.0408956 -3.79078e-20)
(1.00208 0.449749 8.61915e-21)
(0.987314 0.054402 1.29369e-20)
(1.00345 0.0116195 -7.45105e-21)
(1.03555 0.0116109 -2.76812e-21)
(0.947382 0.0119213 2.52399e-20)
(0.997826 0.00548897 -1.10128e-21)
(1.11862 0.00724804 3.77773e-20)
(0.966604 0.0410753 -2.49021e-20)
(0.174982 0.0117947 0)
(0.999645 0.0086097 -8.20632e-21)
(1.00127 0.00404751 -9.15372e-21)
(1.04857 0.180243 6.86011e-21)
(1.01026 0.0225621 -1.16158e-21)
(1.10095 -0.0400957 0)
(0.872855 0.27528 0)
(1.06187 0.00582383 0)
(0.681942 0.565296 0)
(-0.0702268 0.106284 2.43332e-20)
(0.997993 0.042928 0)
(1.00213 0.0189314 -5.32685e-21)
(0.719831 0.0449566 1.51684e-19)
(-0.31817 -0.00471858 2.46043e-20)
(0.986825 0.167926 1.58783e-23)
(1.04267 0.015022 -7.30913e-21)
(1.28645 0.00808017 0)
(0.742313 0.402481 3.80191e-20)
(0.913992 0.0375382 5.51148e-20)
(0.981104 0.0168827 1.76188e-20)
(1.00289 0.00178391 7.8265e-22)
(1.00452 0.00599189 6.88989e-21)
(1.05584 0.444957 5.95382e-20)
(1.07122 0.0211282 -1.65683e-21)
(0.767714 0.29882 -7.94189e-20)
(1.00001 0.000412328 0)
(-0.282057 0.0816975 -1.89722e-21)
(1.31117 0.261966 3.08996e-20)
(0.992785 0.00604772 2.37132e-20)
(0.997663 0.00904837 1.08732e-20)
(0.654255 0.236919 7.47177e-20)
(0.999218 0.00247944 1.33012e-20)
(1.01107 0.00553423 3.17521e-21)
(1.0014 0.0922998 -9.5116e-22)
(-0.162401 -0.00863717 -4.87525e-21)
(-0.0776277 0.137551 -4.17623e-20)
(0.513572 0.035826 1.07228e-19)
(1.04871 -0.00531671 1.02147e-20)
(1.18022 0.00947756 0)
(1.00596 0.183097 0)
(1.01467 0.0045981 2.72136e-21)
(1.00946 0.000403196 -4.52492e-21)
(0.99956 0.00120378 0)
(1.06787 0.431023 -5.07729e-20)
(1.00016 0.00142096 0)
(0.993189 0.00728369 1.55999e-20)
(1.1789 0.00586216 3.86225e-20)
(0.974212 0.0121072 0)
(1.16217 0.149634 -2.37876e-20)
(1.00095 0.00098892 2.01127e-21)
(0.998452 0.00315837 -9.19941e-21)
(1.01185 0.00111044 -1.03989e-22)
(0.99901 0.00140371 1.98145e-20)
(1.27389 0.0375825 -4.77987e-20)
(1.00016 0.00159135 0)
(1.00198 0.0271322 0)
(1.14479 0.040634 7.29951e-21)
(0.927122 0.252406 -1.20738e-20)
(0.798358 0.519201 1.58998e-20)
(1.00002 0.00167428 0)
(1.2105 0.123562 0)
(0.000362078 0.128605 -3.8818e-20)
(0.378569 0.0541919 9.9897e-20)
(0.966499 0.0501791 1.96356e-20)
(-0.244813 0.0143115 1.4923e-20)
(-0.103669 -0.00317285 0)
(0.99388 0.0142263 2.05176e-20)
(1.01702 0.00243185 0)
(0.982719 0.0531976 0)
(0.946367 0.0362647 7.16186e-21)
(-0.0636923 0.143903 -1.2873e-19)
(1.02928 0.0685234 -2.37233e-21)
(1.00073 0.00288635 6.38374e-21)
(1.00013 0.00149716 -8.16099e-21)
(0.0556543 0.115445 8.53287e-20)
(0.977322 0.177328 1.82266e-20)
(1.04716 -0.00557344 1.16447e-21)
(1.00057 0.00239976 -7.97022e-21)
(0.989659 0.00541266 -1.75813e-23)
(1.08848 0.159822 -7.75996e-21)
(1.01054 0.00588427 2.99322e-21)
(1.0078 0.000618501 -4.45387e-21)
(1.11154 -0.00540636 2.90005e-20)
(0.988549 0.0593371 0)
(0.999653 0.000975519 0)
(1.03044 0.0185708 1.73205e-23)
(0.6948 0.632218 -1.3824e-20)
(1.03625 0.0191878 0)
(0.993662 0.059675 -7.12365e-22)
(0.995853 0.00287216 5.61765e-21)
(1.00096 0.0515557 -6.52666e-21)
(1.22238 0.204888 1.46992e-21)
(1.00005 0.00183819 -4.80578e-21)
(0.976331 0.0586943 0)
(0.997465 0.00326132 0)
(1.08073 0.0296633 0)
(0.623646 0.5541 0)
(0.999999 0.000100795 7.14546e-21)
(0.81202 0.49873 -1.29672e-20)
(1.04876 0.0861242 1.41429e-21)
(-0.0625342 0.143633 0)
(1.01589 0.000479286 -6.20189e-22)
(1.03635 0.0657892 5.23193e-22)
(1.10813 -0.00715568 -2.56215e-20)
(1.20871 0.128191 1.88851e-21)
(0.774612 0.140388 0)
(0.966413 0.0395279 1.56092e-20)
(1.05611 0.255505 -6.01581e-20)
(1.04592 -0.0568771 7.88604e-20)
(0.960412 0.0261906 4.76e-21)
(1.01182 0.000635951 8.3379e-23)
(1.34412 0.0537641 0)
(0.997504 0.00244855 -8.70152e-21)
(1.00002 0.000788104 -5.07433e-22)
(1.01525 0.0140995 0)
(1.00003 0.000907973 -7.97468e-21)
(1.16226 0.0781772 0)
(1 1.5357e-05 -3.49343e-21)
(0.999993 0.000105343 -8.81957e-21)
(0.859974 0.27113 2.61781e-20)
(1.02133 0.117578 -2.34197e-21)
(1.01412 4.86778e-05 1.9364e-21)
(0.920165 0.123463 3.47195e-20)
(0.951163 0.0191798 -3.66901e-20)
(0.420058 0.0313898 0)
(1.0643 0.0181175 -8.2367e-21)
(0.78516 0.578647 -6.21384e-21)
(1.00024 0.0187638 -7.01642e-21)
(1.16809 -0.0210872 -1.20268e-21)
(0.985006 0.175726 2.38324e-22)
(0.135804 0.0950662 0)
(1.07207 0.0340901 -1.08476e-20)
(-0.212285 -0.045779 0)
(1.00001 0.000421778 -7.4606e-21)
(1.06967 -0.0230658 0)
(1.00195 0.00312371 -3.58507e-21)
(1.00039 0.0413017 6.88494e-21)
(0.98904 0.0203008 0)
(1.24596 -0.0179924 -1.08962e-20)
(0.854833 0.149045 3.94218e-20)
(1.11086 -0.0755093 -3.06899e-20)
(-0.246607 -0.0337068 0)
(1.00066 0.00326042 1.96359e-21)
(0.887572 0.908955 0)
(1.0673 -0.0272198 0)
(1.02471 0.0218554 6.14415e-22)
(0.867006 0.0701462 4.64467e-20)
(1.10527 0.0520446 7.79033e-21)
(-0.063079 0.115478 2.06499e-20)
(0.99737 0.00918108 0)
(0.943604 0.102842 0)
(0.924363 0.239407 2.24548e-20)
(1.02474 0.0695276 7.68729e-21)
(0.827868 0.141633 1.07096e-19)
(1.00001 0.000173518 -2.21342e-22)
(1.01606 0.00276899 -5.11936e-22)
(1.00001 0.000159386 6.83092e-21)
(0.95153 0.480075 0)
(0.999136 0.00317475 1.71377e-20)
(1.00204 0.00625071 -6.47931e-21)
(1.01421 0.0134784 -5.17502e-23)
(1.01099 0.0010573 2.06483e-21)
(1.00235 0.0106133 0)
(1.00054 0.00891565 -1.81603e-20)
(1.03029 0.0442837 0)
(1.00435 0.0160513 1.05197e-20)
(0.999179 0.00222299 1.42234e-20)
(0.95641 0.0117859 0)
(1.00413 0.0951431 -6.77231e-21)
(0.926554 0.121499 -3.12056e-20)
(0.994117 0.00381055 0)
(-0.0458701 0.136718 -6.39439e-20)
(1.00401 0.0369774 0)
(1.2583 0.413823 -1.38262e-19)
(0.891122 0.154943 1.19701e-20)
(-0.168851 0.138983 -6.83026e-20)
(1.11018 0.098848 0)
(1.06816 -0.0214915 2.30179e-20)
(-0.171707 0.0206948 0)
(1.12329 0.0396273 -2.06396e-20)
(0.986104 0.470391 -8.91136e-22)
(0.536521 0.0387383 -4.14346e-20)
(1.09021 0.153629 0)
(1.00014 0.00166246 1.29512e-20)
(1.00607 0.0140102 0)
(1.00638 0.0640489 8.87175e-21)
(1.22999 0.201573 1.52228e-21)
(1.01518 0.0320254 5.45473e-21)
(-0.0917761 0.0350987 -7.84648e-20)
(1.00588 0.0297546 -3.83513e-21)
(0.898385 0.675012 -8.81826e-20)
(0.690308 -0.0149125 0)
(1.10945 -0.0919664 0)
(1.05774 0.0256457 -3.24304e-21)
(-0.0681034 0.0405397 -4.30618e-20)
(-0.255435 0.153741 -9.87799e-20)
(0.941098 0.016436 0)
(0.993778 0.0051581 0)
(0.999955 0.000324442 0)
(1.07357 0.00291368 1.66768e-21)
(1.01626 0.00265582 -7.60301e-22)
(1.01297 0.000994061 4.64456e-21)
(1.10096 0.206219 0)
(1.22936 -0.163545 0)
(0.997569 0.00292409 1.02059e-21)
(1.01421 0.0314959 -4.43219e-21)
(0.958562 0.0111136 1.73268e-20)
(1.20341 0.387855 -3.12208e-20)
(1.12775 -0.0916096 -3.71732e-20)
(0.999511 0.00280425 0)
(1.0469 0.0820984 -1.56197e-21)
(1.21768 0.0833112 0)
(0.997671 0.0535066 1.1416e-21)
(1.00043 0.00754792 -6.97642e-21)
(-0.124098 0.0322546 0)
(0.986607 0.0441308 0)
(0.995785 0.0204459 -2.18404e-20)
(0.798396 0.942759 0)
(0.997892 0.0798877 1.63382e-21)
(0.978677 0.00788075 -1.60747e-20)
(-0.1437 0.0129091 0)
(0.3621 0.0411251 0)
(0.024887 0.0570856 0)
(0.991091 0.0124712 2.29767e-20)
(0.976749 0.0616815 -3.52171e-20)
(1.29978 0.0754984 0)
(1.01461 0.0140581 3.99233e-21)
(1.02403 0.0293653 -1.90708e-21)
(0.999991 0.000218182 0)
(1.0819 -0.0360079 1.87662e-20)
(0.997879 0.00621508 6.62351e-21)
(1.00102 0.000937933 4.5237e-21)
(1.05195 -0.0189771 9.82118e-21)
(0.78525 0.118523 -2.97733e-20)
(0.879217 0.433896 0)
(1.01063 0.0152897 0)
(0.982157 0.0131321 0)
(0.99745 0.00196226 8.48076e-21)
(1.0234 0.0272677 -9.09205e-22)
(0.984581 0.0514926 0)
(1.01528 0.00307382 5.14801e-22)
(1.25512 0.0841956 2.79991e-20)
(1.00214 0.121625 8.34748e-21)
(0.993538 0.0316576 -1.70377e-20)
(0.995845 0.0081704 -1.48319e-20)
(1.01182 0.0141457 -4.83158e-21)
(1.00305 0.00591525 4.58911e-21)
(1.03838 0.0425472 6.74871e-24)
(-0.135058 0.000502656 -3.63498e-20)
(1.10309 0.020384 -1.03614e-21)
(1.02761 0.00061906 -3.1981e-21)
(0.994246 0.0117287 -1.63074e-20)