/*--------------------------------*- C++ -*----------------------------------*\
| =========                 |                                                 |
| \\      /  F ield         | OpenFOAM: The Open Source CFD Toolbox           |
|  \\    /   O peration     | Version:  v2012                                 |
|   \\  /    A nd           | Website:  www.openfoam.com                      |
|    \\/     M anipulation  |                                                 |
\*---------------------------------------------------------------------------*/
FoamFile
{
    version     2.0;
    format      ascii;
    class       volVectorField;
    location    "750";
    object      U_0;
}
// * * * * * * * * * * * * * * * * * * * * * * * * * * * * * * * * * * * * * //

dimensions      [0 1 -1 0 0 0 0];


internalField   nonuniform List<vector> 
10042
(
(0.996805 0.0139544 -7.67522e-21)
(0.998588 0.00662678 -7.2644e-21)
(1.04078 0.0151872 -5.90833e-21)
(1.00978 4.22139e-05 0)
(0.49639 0.0857876 -1.41869e-19)
(0.999239 0.00602011 0)
(0.623297 0.00501359 0)
(1.30262 -0.00494433 1.48706e-19)
(1.03338 0.0149136 -3.7158e-21)
(1.00214 0.00611487 -3.11811e-23)
(-0.299637 -0.024412 -8.02915e-20)
(1.01496 4.25852e-05 6.65805e-23)
(1.01727 0.00231679 -6.21932e-22)
(1.01743 0.000902434 0)
(0.95955 0.058432 -2.3241e-20)
(0.99984 0.0075719 -1.09551e-20)
(0.999817 0.00798601 -3.38283e-21)
(1.00004 0.000405761 -6.78464e-21)
(0.996934 0.0135671 0)
(0.675385 0.291651 -1.46074e-21)
(1.00509 0.00645303 -3.49625e-21)
(1.27204 -0.0531131 8.65245e-20)
(1.01627 0.000477889 3.50452e-22)
(1.01583 0.00468675 0)
(0.998647 0.00624234 -8.01143e-21)
(1.10629 0.0228834 -4.70327e-20)
(0.99881 0.00224091 5.73027e-21)
(0.996349 0.0595174 -9.74054e-21)
(1.02409 0.0238728 -4.75406e-22)
(1.00443 0.0529443 6.25776e-21)
(0.996588 0.00565663 0)
(-0.146407 0.00880249 -7.17194e-21)
(1.00206 0.00575309 -4.17394e-21)
(1.02324 0.0479611 0)
(1.07694 0.0625234 -1.63064e-21)
(1.01544 0.0048385 0)
(1.10159 0.0270418 -1.98416e-20)
(1.11857 -0.00536062 0)
(1.0151 0.00451602 -9.64597e-22)
(1.00692 0.129628 0)
(0.647011 0.284212 4.10586e-20)
(0.968451 0.0578275 -5.02707e-21)
(0.598403 0.00636614 1.83084e-19)
(0.9938 0.0348673 3.82732e-22)
(0.501455 0.0874405 1.42263e-19)
(1.17469 -0.0141785 0)
(0.976814 0.0397235 -1.60984e-20)
(1.19774 -0.0755349 -1.41385e-21)
(1.09321 0.0405453 -9.11492e-21)
(1.12365 -0.0681954 3.7204e-21)
(1.00048 0.000570593 0)
(1.04264 -0.0110971 4.31648e-21)
(0.958576 0.0461973 5.31103e-20)
(1.05267 -0.0124147 6.10293e-21)
(1.10117 0.030167 -2.07294e-20)
(0.999297 0.00629523 1.90529e-21)
(1.02505 0.0238912 -6.90806e-22)
(0.977417 0.0383659 1.26176e-20)
(1.02398 0.0464243 0)
(0.961057 0.046355 -1.11579e-20)
(0.997617 0.00585057 0)
(0.997187 0.0080693 -4.87195e-21)
(1.07785 0.0660854 0)
(1.03972 0.0155743 4.19207e-21)
(0.965005 0.0190688 4.8919e-20)
(1.02709 0.0455921 -2.74317e-21)
(0.973229 0.0144716 0)
(0.727132 0.204893 9.40182e-20)
(-0.235545 0.012926 2.94717e-20)
(1.00202 0.0291416 -1.2471e-20)
(1.05135 -0.013358 -5.27515e-22)
(0.63032 0.294794 -8.8355e-20)
(0.992434 0.034645 -1.33226e-20)
(0.860695 0.0741424 -9.2389e-20)
(0.974136 0.0108587 0)
(1.01619 0.00496387 -9.79029e-22)
(0.39341 0.0649635 1.709e-19)
(0.99673 0.0127253 1.33444e-20)
(0.899982 0.0963348 3.52697e-20)
(0.494932 0.0302149 6.75763e-20)
(1.09005 0.0394491 -9.76186e-21)
(0.668802 0.116981 -8.9933e-20)
(1.00947 0.0388641 0)
(0.971249 0.0506371 -2.20301e-20)
(0.972942 0.0133471 0)
(1.00009 0.00162921 1.99211e-21)
(0.997532 0.0156277 -8.28097e-21)
(1.1626 0.292887 2.63918e-20)
(0.986411 0.0231429 -2.62316e-20)
(0.998003 0.0156841 6.23185e-21)
(1.03774 0.0352716 0)
(0.689764 0.123459 2.1925e-19)
(0.997435 0.0616984 -6.85989e-22)
(1.04196 -0.00999353 -3.96784e-21)
(1.00319 0.0512547 0)
(1.01824 0.0314969 -2.93512e-23)
(0.999999 0.0120261 8.80923e-21)
(1.01204 0.0303094 -6.10559e-21)
(1.00705 0.125544 0)
(1.02978 0.0215198 0)
(0.999992 7.95464e-05 -1.24061e-20)
(1.17957 0.22622 0)
(1.25566 -0.0192319 0)
(1.00011 0.00178907 0)
(0.989676 0.0548071 -1.1076e-20)
(1.04548 0.221857 1.07924e-21)
(0.994187 0.0131761 -1.88174e-20)
(1.00011 0.0124084 0)
(1.00491 0.00610933 -9.98001e-23)
(1.02347 0.000216942 0)
(1.01121 0.00128866 2.83586e-21)
(1.00592 0.0230876 5.10194e-21)
(1.0433 0.0884215 -1.39025e-21)
(-0.262144 0.0212301 -1.74548e-19)
(0.966056 0.0180528 -4.46195e-20)
(1.00299 0.0214881 -5.26431e-21)
(0.99123 0.00684739 -2.22775e-20)
(0.996587 0.0131343 7.92369e-21)
(1.01888 0.0306305 -2.71907e-21)
(-0.0578983 0.0431477 7.72746e-20)
(0.986567 0.0222109 0)
(1.33729 -0.0125447 -1.42878e-19)
(0.997458 0.0382795 -1.40466e-20)
(0.993879 0.00473033 0)
(1.17998 0.216871 0)
(1.00854 0.0395709 0)
(1.34137 0.00339801 -7.06694e-20)
(1.09303 0.0595405 -3.12688e-20)
(1.03786 0.217335 1.14032e-21)
(0.998655 0.0165043 -1.29799e-20)
(0.897196 0.102333 -1.90932e-21)
(0.979617 0.0223209 -3.7002e-22)
(-0.231041 0.0137198 4.14328e-20)
(1.28055 0.0406324 -9.78815e-20)
(1.02884 0.0217867 -3.94132e-23)
(1.1136 0.19586 2.95002e-20)
(-0.141553 0.0308267 -1.63453e-19)
(1.03784 0.0369091 1.41442e-21)
(1.20488 -0.0740081 4.60151e-20)
(1.16964 0.302176 3.05265e-20)
(0.983172 0.0557402 1.39493e-20)
(0.990729 0.00680304 2.33431e-20)
(0.98431 0.0492176 0)
(1.23066 0.1901 -7.68358e-22)
(1.039 -0.0045114 -5.42682e-21)
(1.0056 0.0225564 -5.31653e-21)
(1.13958 0.162514 -2.27379e-20)
(1.02813 0.000328637 0)
(1.01202 0.0314416 7.88565e-21)
(1.01482 0.0941003 7.75538e-22)
(1.03578 0.0133848 -5.81319e-21)
(1.00003 0.000159711 6.4824e-21)
(0.124899 0.101741 0)
(-0.0985027 0.0412371 -1.93385e-19)
(0.999526 0.00143833 0)
(1.01718 0.00202405 1.29317e-21)
(0.95186 0.0132943 0)
(0.996901 0.0082092 3.1745e-21)
(1.11113 0.203379 0)
(-0.0901843 -0.00678365 1.08254e-19)
(-0.274175 -0.0414935 1.032e-19)
(1.25143 0.0610751 0)
(0.995601 0.00687591 0)
(1.03534 0.0142973 -5.48349e-21)
(1.01354 0.0419589 -9.77576e-22)
(0.980391 0.0212442 -1.51101e-20)
(0.945894 0.266317 0)
(0.177732 0.118661 -3.96879e-20)
(-0.167413 0.015386 1.40914e-20)
(-0.0662783 0.044172 7.89529e-20)
(1.0514 -0.00636932 -2.57965e-21)
(1.00644 0.0132111 0)
(0.853868 0.161499 -8.72861e-21)
(0.67712 0.34488 9.09875e-20)
(0.906223 0.167283 -2.35099e-20)
(0.617426 -0.0166903 -4.72041e-20)
(-0.291446 0.227373 1.01565e-19)
(0.995515 0.0366747 0)
(0.712441 0.223932 6.69164e-20)
(1.06927 0.116784 0)
(0.94935 0.0140184 -1.02425e-22)
(-0.127526 0.0104234 1.36549e-19)
(0.972106 0.0171024 0)
(1.09018 0.0609881 6.80165e-22)
(0.968399 0.054813 -1.46894e-20)
(-0.0342507 0.0456441 -6.87288e-20)
(1.2877 0.0802759 3.4241e-20)
(1.02422 0.0403974 -5.2954e-21)
(-0.27057 -0.0636267 -5.43035e-20)
(1.06362 0.04588 -9.7682e-21)
(0.724575 0.748874 0)
(0.982179 0.0486321 0)
(0.125009 0.101935 -7.07004e-20)
(1.04002 0.191916 5.87222e-21)
(1.23082 0.0201832 0)
(1.20772 0.163931 9.4762e-20)
(1.0836 0.0294727 -1.44795e-20)
(0.995074 0.0121612 -2.23927e-20)
(1.01684 0.00188634 7.48484e-22)
(1.03392 0.0668691 1.02167e-21)
(0.884284 0.148707 -4.94018e-20)
(1.0254 0.0409186 4.04368e-21)
(1.00749 0.0231652 0)
(0.699982 0.368012 -1.17013e-19)
(0.971795 0.0157777 0)
(1.02041 0.0132308 -3.15008e-22)
(0.796262 0.788611 0)
(0.999272 0.00224445 3.16419e-21)
(1.00003 0.000467152 7.23747e-21)
(0.999883 0.000775009 0)
(1.34294 0.18888 0)
(1.01688 0.000280298 2.01639e-22)
(0.94127 0.254573 -7.92454e-21)
(1.02386 0.454801 -6.51913e-20)
(0.953828 0.0151219 0)
(1.29248 0.085134 5.19945e-21)
(0.977625 0.00976725 -1.74505e-20)
(1.00074 0.00893785 0)
(1.16873 0.146171 -1.33865e-21)
(1.01161 0.0150435 9.27928e-21)
(1.04698 0.088848 0)
(0.951206 0.0218405 0)
(1.12132 0.419542 3.66542e-20)
(1.12191 -0.00754513 -2.0263e-20)
(0.943148 0.0744735 1.16358e-20)
(1.11042 0.017878 2.91844e-20)
(1.30493 0.0253354 -7.31101e-20)
(1.00429 0.0220515 1.04863e-20)
(1.26618 0.0907197 0)
(1.05234 -0.0157586 6.05811e-21)
(1.0341 0.0141524 2.6269e-21)
(0.810202 0.381562 0)
(1.00597 0.0128933 6.26275e-21)
(1.05116 -0.0167092 -2.46327e-20)
(1.04164 0.0160199 8.35055e-22)
(1.01768 0.0963479 0)
(1.01877 0.0151633 2.10102e-21)
(1.01785 0.00052277 -3.61633e-23)
(1.06454 0.0225811 -8.5415e-21)
(1.06808 -0.0303994 -1.08399e-20)
(0.995511 0.00655815 1.31828e-20)
(0.99601 0.0382059 1.47239e-20)
(1.01334 0.040344 9.23216e-21)
(1.04209 0.0918638 1.07669e-21)
(1.00335 0.0208422 1.194e-20)
(0.99682 0.00578338 4.85874e-21)
(1.01443 0.0010491 1.54918e-21)
(0.990378 0.0572129 -1.13784e-20)
(1.05176 -0.00960819 5.5524e-21)
(1.00002 0.000302292 5.02929e-21)
(1.01669 0.00118234 -4.52181e-22)
(1.0026 0.0282222 1.1883e-22)
(0.993697 0.0839441 0)
(1.1332 0.432149 -3.30222e-20)
(1.25072 0.0672404 -4.74651e-20)
(-0.233981 -0.0609952 0)
(0.898301 0.171486 2.43469e-20)
(0.922285 0.169031 -1.85733e-20)
(0.958934 0.0615295 -2.64629e-20)
(1.18663 -0.0134433 3.3169e-20)
(0.798175 -0.0359543 -9.52579e-20)
(1.0623 0.0223676 3.14482e-21)
(0.994314 0.0127529 -1.11592e-23)
(1.01766 0.000549918 -3.85287e-23)
(1.03168 0.0661675 -2.4836e-21)
(1.01835 0.0145603 1.37084e-21)
(1.27675 -0.0591121 -7.65066e-20)
(1.06324 -0.000930751 2.16145e-20)
(0.998131 0.0163887 -7.25334e-21)
(0.999925 0.000671077 0)
(0.873897 0.14948 -6.1397e-20)
(1.05282 -0.0104315 -6.00287e-21)
(1.03675 0.440339 4.2082e-20)
(0.914994 0.173206 1.91903e-20)
(1.20193 0.267204 0)
(1.06435 0.0480642 1.48701e-20)
(1.06628 -0.0323401 -3.1092e-21)
(1.01723 0.0140823 5.65349e-21)
(1.08131 0.0039672 2.71043e-20)
(1.0401 -0.00434363 8.53604e-21)
(1.07281 0.12022 7.53785e-21)
(0.99101 0.0236969 9.04984e-22)
(1.10568 0.0263472 1.13844e-20)
(-0.19179 0.020152 3.59079e-20)
(1.01983 0.0129043 1.22561e-22)
(1.03707 0.01844 0)
(0.83781 -0.0395053 9.35365e-20)
(1.17976 -0.0117677 1.71311e-20)
(1.02401 0.0391117 2.8776e-21)
(0.997342 0.00551754 0)
(0.994633 0.0807074 0)
(0.623834 -0.0230939 0)
(1.17246 0.0719552 -3.67565e-20)
(1.23773 0.187162 3.53647e-20)
(1.0004 0.000461732 0)
(1.01686 0.00160253 -1.85781e-21)
(1.00469 0.0226793 1.21284e-20)
(1.03373 0.0157518 0)
(1.3015 0.0183309 5.92755e-20)
(0.995303 0.0200069 -2.29437e-21)
(0.997637 0.00620618 -4.88533e-21)
(1.00617 0.0145561 0)
(0.977543 0.00854392 4.04539e-21)
(1.1172 -0.0207324 -1.52839e-20)
(0.967555 0.0687854 0)
(1.09499 0.258339 2.72346e-22)
(0.290054 0.0169393 -9.77583e-20)
(0.962548 0.0435818 1.17896e-20)
(0.875566 0.0527158 0)
(1.00317 0.0195065 -5.74383e-21)
(1.07935 0.00437623 0)
(0.998632 0.00253226 0)
(-0.287923 0.0103714 -6.07657e-20)
(1.18927 0.203079 2.10419e-20)
(1.30743 0.26212 4.00665e-20)
(-0.244069 0.259823 -1.13214e-19)
(1.01702 0.00510471 8.95607e-22)
(1.0637 -0.00229541 -1.13551e-20)
(1.00252 0.0301141 1.3851e-20)
(0.978474 0.0764553 -1.98235e-20)
(1.11014 0.0216197 2.89425e-20)
(1.00002 0.000918854 7.90931e-21)
(1.05845 0.132107 3.50169e-21)
(1.01158 0.00133653 4.96819e-21)
(1.01803 0.000299798 -8.18086e-23)
(0.994185 0.036562 0)
(1.09959 0.267086 9.76233e-23)
(0.999988 0.000206336 -8.8733e-21)
(1.06077 0.045013 0)
(0.980674 0.0189871 1.81898e-20)
(0.970009 0.0670326 0)
(-0.283474 0.107012 0)
(1.00288 0.0201825 1.14035e-20)
(0.999424 0.00167771 0)
(1.00307 0.00204875 5.78015e-21)
(1.03892 0.0144116 0)
(1.07931 0.167563 -1.41932e-20)
(1.2334 0.0161038 2.08002e-20)
(0.931264 0.173632 0)
(1.26521 0.0693199 0)
(1.1192 -0.0174262 -1.89616e-20)
(1.08636 0.0593999 3.21329e-20)
(0.979811 0.0198313 -1.00238e-20)
(1.01763 0.000839176 -1.96543e-22)
(1.04267 0.0335656 -2.40168e-21)
(1.00003 0.000333225 6.62546e-21)
(1.34636 0.0729255 0)
(0.991409 0.0243267 0)
(1.02603 0.0468201 1.52388e-21)
(1.18416 -0.11344 0)
(1.00681 0.0235841 5.08959e-21)
(0.982813 0.0843138 -1.56962e-20)
(0.971024 0.0534475 2.31123e-20)
(1.19161 -0.114879 0)
(1.04224 0.00610719 7.41539e-21)
(0.944783 0.0716248 -1.73547e-20)
(1.03842 0.209142 5.05613e-21)
(1.05339 0.131178 5.36534e-21)
(1.03725 0.0635449 -2.80117e-22)
(0.994027 0.0112912 0)
(1.11911 0.0621064 -6.88662e-20)
(1.1457 0.161591 6.61601e-20)
(1.05193 0.0104265 5.54522e-21)
(1.08093 0.160985 7.44358e-21)
(1.00188 0.010324 8.40158e-21)
(1.00592 0.0124209 0)
(1.00211 0.0102261 7.41441e-21)
(0.979565 0.0845271 -5.49777e-21)
(1.31895 0.274364 6.87654e-20)
(1.06547 -0.0168466 1.23526e-20)
(1.00003 0.000782771 -7.5224e-21)
(0.964853 0.0438251 0)
(1 8.43769e-05 0)
(0.999986 0.000430556 -9.6512e-21)
(0.692272 0.310854 -5.0311e-20)
(0.994825 0.011774 1.68216e-20)
(1.02581 0.0088297 1.27476e-21)
(-0.121975 0.0335925 1.66314e-19)
(1.00737 0.008521 7.34101e-21)
(1.10352 -0.0250294 -1.37095e-19)
(1.35361 0.065577 -4.64196e-20)
(0.860825 0.0819425 1.06894e-19)
(0.518351 -0.000500165 -7.90423e-20)
(-0.207322 -0.0583197 -1.11245e-19)
(1.00819 0.114863 -6.72396e-21)
(0.787756 0.377461 4.67643e-20)
(0.999222 0.00196096 1.87254e-20)
(1.12942 -0.0686941 0)
(0.999998 0.000116702 -7.83237e-21)
(0.976677 0.0349573 0)
(1.23398 -0.154912 1.42794e-19)
(1.00054 0.00595835 1.02135e-20)
(0.975948 0.0785483 2.1454e-20)
(0.563923 0.942385 0)
(1.01586 0.000433261 0)
(1.00494 0.00673934 8.17319e-21)
(0.773287 0.12705 9.83409e-20)
(0.76123 0.692323 0)
(1.02637 0.043844 1.29192e-21)
(1.02772 0.00122908 2.89481e-21)
(-0.15248 0.0139999 0)
(1.18952 0.212373 0)
(1.0065 0.0137247 0)
(0.722372 0.189162 -6.26991e-20)
(-0.0272758 0.0232904 1.36662e-19)
(1.01212 0.0152526 5.47864e-21)
(1.00001 0.000532627 7.42251e-21)
(1.02198 0.0102446 9.48635e-23)
(1.00004 0.0180743 1.69201e-21)
(1.01803 0.000387223 8.02631e-23)
(1.01967 0.0121217 -1.38367e-23)
(1.00872 0.0517984 5.62672e-20)
(1.2493 -0.0129351 9.43707e-20)
(0.976022 0.0364361 0)
(0.466155 0.0360975 8.18621e-20)
(1.01723 0.000776412 -2.03522e-22)
(0.9954 0.0191882 2.03226e-21)
(1.26464 0.302479 -9.09142e-20)
(1.04603 0.0107897 -2.1961e-21)
(1.1171 -0.0194023 0)
(1.17868 0.0725759 8.63732e-20)
(0.969163 0.0493176 1.90917e-20)
(1.02651 0.00648253 1.67758e-21)
(1.02717 0.00148393 -2.57941e-21)
(1.04857 0.362741 0)
(1.0526 -0.00744668 -6.37586e-21)
(1.0035 0.116417 -1.43486e-20)
(0.996685 0.0515082 -9.69262e-21)
(-0.289009 -0.0298204 1.57637e-19)
(0.956062 0.0142067 0)
(1.16595 0.229727 -4.96113e-20)
(0.962781 0.0577154 0)
(1.00352 0.00861836 -5.5339e-21)
(1.00343 0.0221442 2.16208e-22)
(1.19718 0.395038 6.36018e-20)
(1.00299 0.00844683 1.58063e-21)
(0.909566 0.0305525 0)
(0.998478 0.023364 0)
(1.04126 0.006415 -5.9405e-21)
(-0.122269 0.0067331 2.90314e-20)
(1.08373 0.0349214 5.86488e-22)
(0.990929 0.00828304 -1.1288e-20)
(1.01182 0.000833048 0)
(-0.199848 0.0205346 0)
(0.999305 0.0172976 -1.28415e-20)
(1.08561 0.0366565 -9.77797e-21)
(1.02696 0.0675562 -5.97723e-21)
(1.01767 0.0146095 -3.20049e-21)
(0.64229 0.0524957 0)
(0.501341 0.00444328 0)
(1.00577 0.00775409 2.77463e-21)
(0.968026 0.0182442 0)
(1.06768 -0.0165309 3.74257e-21)
(1.01661 0.00139522 1.54001e-21)
(1.00003 0.00858837 0)
(0.992814 0.00375491 0)
(-0.200559 0.0204251 0)
(0.994284 0.0034029 -3.72424e-22)
(1.01725 0.000367887 -9.92168e-23)
(0.971529 0.119467 -1.04724e-21)
(1.31135 -0.0247985 0)
(1.16244 0.134104 0)
(1.00002 0.000361001 -2.69603e-22)
(1.07141 0.111442 0)
(-0.00776194 0.00886657 9.15183e-21)
(1.12045 -0.0246089 0)
(0.989324 0.00434259 -1.16077e-21)
(0.994349 0.0108315 0)
(1.28091 0.0471102 0)
(1.05047 0.0103309 7.13466e-22)
(1.00343 0.00823228 0)
(0.898435 0.0841734 -3.35442e-20)
(1.03509 0.0161518 4.33393e-21)
(1.0192 0.0119303 4.0233e-22)
(0.949173 0.0235297 -1.26356e-20)
(1.01937 0.00486186 2.98739e-22)
(0.955077 0.182759 0)
(0.993746 0.0134923 1.03009e-20)
(1.00279 0.00855585 -3.17025e-21)
(-0.308138 -0.0220553 -2.89037e-20)
(1.01015 0.00581392 0)
(1.04961 -0.00672398 1.03682e-20)
(1.00071 0.00573141 -5.83522e-21)
(0.997848 0.0497251 0)
(1.06208 0.126707 -5.26947e-21)
(1.00553 0.00758949 0)
(1.03778 0.0145089 0)
(1.33913 0.281398 -1.55245e-19)
(1.00112 0.0559231 9.27764e-22)
(0.348878 0.0600834 0)
(1.06105 0.0243883 -3.75338e-21)
(0.999999 0.000150552 1.18247e-20)
(1.00001 0.000132098 0)
(1.18765 0.242533 -7.27378e-20)
(0.989995 0.0202337 -1.26796e-20)
(0.990842 0.00793396 9.54114e-21)
(1.00256 0.00236379 -9.12599e-21)
(1.05328 0.00828611 -5.17053e-21)
(0.94819 0.103217 3.9656e-20)
(0.624937 0.0125674 -7.11211e-20)
(0.998763 0.017186 2.03421e-20)
(0.947849 0.179203 2.5154e-22)
(0.62772 0.758634 2.50172e-20)
(1.119 -0.0282488 3.44594e-20)
(1.00002 0.000528249 9.2227e-22)
(0.992737 0.00652884 -1.99507e-21)
(1.04511 0.00157647 1.55332e-20)
(1.00008 0.00182357 -1.71724e-21)
(1.00184 0.0182869 -1.21979e-20)
(-0.112249 0.193772 0)
(-0.180289 0.0251294 -1.44662e-20)
(1.00047 0.00557846 0)
(1.09349 0.0562083 2.59854e-20)
(1.09499 -0.0168997 2.52388e-20)
(1.09222 -0.0160766 -4.49855e-20)
(0.972893 0.0102462 6.13946e-21)
(1.01323 0.00122953 0)
(1.32856 -0.023352 1.66924e-21)
(1.05863 0.353988 -2.09243e-22)
(0.665503 0.740505 0)
(1.02578 0.00657734 -1.39903e-21)
(1.04645 0.00200304 -7.81058e-21)
(1.04483 0.0113042 7.07606e-22)
(1.0072 0.00881182 0)
(-0.189791 -0.0417548 0)
(1.08244 0.122196 -1.17207e-20)
(1.05321 0.00966917 -7.00863e-21)
(1.02441 0.0281476 1.57688e-21)
(1.00998 0.000624148 6.20191e-21)
(0.975073 0.00835639 0)
(1.34468 -0.0211638 0)
(1.0852 0.0320994 1.62569e-20)
(0.998876 0.00197939 -6.7588e-21)
(-0.232741 0.0129146 0)
(0.74828 0.649244 0)
(0.993713 0.490891 0)
(1.05472 0.221083 0)
(1.00001 0.00818539 7.90061e-21)
(1.02881 0.0229752 3.54277e-22)
(1.12052 -0.0900287 0)
(1.1358 0.150632 3.11574e-20)
(-0.131594 0.135132 7.15826e-20)
(0.237957 0.130168 7.34319e-20)
(0.943679 0.0641954 -8.81972e-21)
(0.905513 0.0284392 0)
(1.00012 0.00156219 -7.99997e-21)
(1.06027 0.0424123 -8.76167e-22)
(0.969171 0.0187683 -4.33702e-20)
(1.00013 0.00175154 8.98375e-21)
(-0.283601 -0.0404274 0)
(1.01476 0.00111482 -1.58654e-21)
(1.00279 0.0188995 -1.66985e-20)
(1.16626 -0.0269195 2.85897e-20)
(1.00005 0.00165303 0)
(1.27573 -0.0936479 -5.71572e-20)
(1.05892 0.023867 -1.00482e-20)
(1.25163 -0.0154882 0)
(1.02207 0.122837 4.19796e-22)
(0.999923 0.000677563 0)
(1.06377 0.00504566 0)
(1.07965 0.0603052 -1.3334e-20)
(1.09127 -0.0683726 -2.57658e-20)
(1.05953 0.216055 0)
(0.942259 0.316846 -1.75227e-20)
(0.999982 0.000202442 -1.05584e-20)
(1.12041 -0.0729068 -3.31416e-20)
(1.0357 0.057 2.34753e-22)
(1.01688 0.0311551 0)
(1.00075 0.00311377 -9.45062e-21)
(1.04279 0.0350605 -5.83312e-22)
(0.996071 0.00305693 5.15552e-21)
(0.942085 0.0675122 -9.94866e-21)
(1.16395 0.12943 0)
(0.837901 0.139425 -3.88839e-20)
(0.998854 0.00160124 -1.37429e-20)
(0.999984 0.057776 -5.02125e-21)
(1.00265 0.00218861 6.45889e-21)
(0.990744 0.0112358 2.2641e-20)
(0.77444 0.358064 -4.43776e-20)
(1.00436 0.00557484 0)
(1.02229 0.0684601 -3.96458e-21)
(1.26736 -0.05383 0)
(1.01895 0.00472689 -6.68926e-22)
(1.13407 0.157795 -4.89352e-20)
(1.13518 -0.114378 6.37257e-20)
(0.997089 0.00543837 -5.18369e-21)
(-0.0424202 0.0455901 -8.59546e-20)
(1.14583 0.0210389 0)
(0.99998 0.00169259 0)
(1.29293 0.103174 0)
(1.04371 0.0151419 0)
(1.00002 0.00038389 0)
(0.979373 0.014095 4.3217e-21)
(0.9941 0.00584664 -1.45037e-20)
(0.999995 0.000113199 0)
(1.06116 0.0531217 -4.59635e-21)
(0.97392 0.00805939 0)
(0.796515 0.606686 0)
(0.985556 0.0563091 0)
(0.993194 0.00680042 0)
(1.02948 0.0424024 0)
(1.06675 0.12745 -3.7983e-21)
(1.12064 0.0366915 0)
(0.993522 0.00442788 -1.75651e-21)
(1.0735 0.000333605 0)
(1.02799 0.0231358 -2.07419e-23)
(1.11486 -0.00738458 7.8687e-21)
(0.980782 0.00823838 3.78651e-21)
(1.01797 0.126083 0)
(1.02657 0.00900217 -4.20781e-22)
(0.943968 0.0157897 -2.35331e-20)
(1.02656 0.00229634 -2.69213e-21)
(1.00259 0.0105572 0)
(0.382754 0.0323891 5.16165e-20)
(1.02151 0.0105453 5.13449e-22)
(0.778813 0.339801 3.55838e-20)
(0.992657 0.00424115 -1.65356e-20)
(1.05824 0.0057474 -3.10927e-22)
(1.01071 0.00550885 5.03568e-21)
(1.12122 0.0177081 -4.08608e-21)
(1.00063 0.00540853 0)
(1.14983 0.0233643 0)
(1.02522 0.0380067 0)
(1.286 0.10468 -4.98068e-20)
(0.999977 0.000543025 0)
(0.736652 -0.0167538 -5.91716e-20)
(1.02803 -0.00010644 -2.01007e-21)
(0.969102 0.0639566 1.22545e-20)
(0.999962 0.000225713 2.29886e-21)
(0.976544 0.0105252 9.0115e-21)
(1.00164 0.00991332 -1.50223e-20)
(1.05929 0.0541012 4.56708e-21)
(0.996175 0.00361607 -7.13742e-22)
(0.641266 0.249771 -2.57953e-21)
(0.556792 0.428253 -7.35444e-20)
(1.26723 -0.101312 -1.59379e-20)
(1.07259 0.0199965 -7.17764e-21)
(0.936973 0.167762 0)
(1.00897 0.023409 2.31628e-21)
(0.975542 0.185196 1.3091e-20)
(1.17427 -0.0198639 0)
(1.0022 0.00565895 3.56574e-21)
(0.905197 0.0848505 3.68169e-20)
(0.936088 0.331397 0)
(-0.113408 0.131174 -8.99376e-20)
(1.12916 -0.116144 -2.00135e-20)
(1.14201 0.28748 9.91037e-20)
(1.08325 0.0618882 -7.24823e-22)
(0.999652 0.0428866 5.52602e-21)
(1.00004 0.00116766 0)
(1.07778 0.00302435 0)
(1.06299 0.0498008 -1.06858e-20)
(1.09019 -0.0599205 3.38983e-20)
(1.01665 0.00482504 1.61773e-21)
(1.04139 0.0609328 -2.14073e-22)
(1.24451 0.0705678 -1.33642e-20)
(1.00003 0.000140123 1.38128e-20)
(0.990603 0.0106745 -1.20104e-20)
(1.07562 -0.00101188 -1.4071e-20)
(0.00817272 0.0731623 3.90904e-22)
(0.971482 0.062347 0)
(1.06838 0.10742 -6.20297e-21)
(1.11579 -0.0944843 3.21503e-20)
(0.999949 0.000544787 -1.5188e-21)
(0.478626 0.029351 -6.45204e-20)
(1.0166 0.00568816 0)
(1.00711 0.0146086 8.05617e-22)
(1.00634 0.0530161 -4.86992e-22)
(1.03531 0.0170146 -2.46517e-21)
(-0.269405 0.0135591 1.92817e-19)
(1.18155 -0.0351643 0)
(-0.0453212 0.0861854 0)
(1.00184 0.000835297 8.53429e-22)
(1.24406 0.413402 -1.02027e-19)
(-0.0109309 0.0509728 0)
(1.33662 0.0606419 0)
(1.09121 -0.056951 -2.77477e-20)
(1.18835 -0.0183258 0)
(1.2634 0.0844371 0)
(1.00563 0.191568 5.73086e-21)
(0.980233 0.0177605 -2.91945e-22)
(0.997993 0.0240062 0)
(0.895251 0.089891 0)
(-0.316146 0.00632719 0)
(1.01049 0.0235071 9.27717e-21)
(0.96899 0.12402 1.9071e-20)
(0.231638 0.0772565 0)
(0.993565 0.0145377 -1.13296e-20)
(1.00346 0.0112009 -1.80582e-21)
(1.01635 0.0319923 4.8793e-21)
(0.989458 0.0618357 0)
(1.00147 0.0100446 -8.7972e-21)
(1.04342 0.00442592 -1.02972e-20)
(1.17802 0.24652 -2.22641e-20)
(1.09012 0.140966 -5.75792e-20)
(1.04239 0.0047137 8.18353e-21)
(1.00083 0.00857972 0)
(-0.251018 0.00793347 0)
(0.0556318 0.11572 0)
(1.00832 0.0238447 -1.02412e-20)
(0.989989 0.00424722 1.14131e-21)
(1.0005 0.00068298 -7.03451e-21)
(0.999468 0.0179718 0)
(1.2701 0.315059 7.63727e-20)
(1.17956 -0.0412749 3.80471e-20)
(1.00245 0.44999 2.63128e-20)
(0.987361 0.0544182 0)
(1.00346 0.0116154 -7.54892e-21)
(1.03553 0.0115901 1.85171e-22)
(0.947391 0.0119725 2.52298e-20)
(0.997829 0.00550146 0)
(1.11854 0.00704923 2.93756e-20)
(0.966639 0.0411103 -4.42154e-20)
(0.176381 0.0117807 -3.03486e-22)
(0.999651 0.00861541 0)
(1.00127 0.00405121 1.02715e-20)
(1.04879 0.180222 0)
(1.01028 0.0225546 -1.01417e-20)
(1.10074 -0.0402322 1.40823e-20)
(0.873048 0.275463 0)
(1.06181 0.00576319 1.53381e-20)
(0.681971 0.56547 4.73182e-20)
(-0.0701306 0.106431 2.43789e-20)
(0.998027 0.0429322 0)
(1.00214 0.0189269 6.08726e-21)
(0.723131 0.0445626 -1.64572e-19)
(-0.319044 -0.00460824 9.78023e-20)
(0.986991 0.167967 0)
(1.04265 0.0149878 -7.35695e-21)
(1.28896 0.00732931 0)
(0.742499 0.402776 1.42285e-20)
(0.914022 0.0376223 7.88393e-20)
(0.981117 0.0168969 3.51562e-20)
(1.00289 0.00178402 0)
(1.00453 0.00598955 1.04983e-22)
(1.05626 0.445177 -5.97981e-20)
(1.07118 0.0210391 1.66292e-21)
(0.767875 0.299067 0)
(1.00001 0.000413344 -9.19595e-22)
(-0.283269 0.0819924 3.0918e-20)
(1.31181 0.2617 0)
(0.992788 0.0060552 0)
(0.997669 0.00905477 0)
(0.654352 0.237191 -1.49834e-19)
(0.999219 0.00249211 2.21548e-21)
(1.01107 0.00553129 -6.36277e-21)
(1.00149 0.0923045 9.50918e-22)
(-0.162742 -0.00841227 7.32166e-20)
(-0.0774839 0.137934 0)
(0.516196 0.0356529 0)
(1.04865 -0.00533642 -1.02471e-20)
(1.18015 0.0091076 -7.24303e-22)
(1.00616 0.183125 0)
(1.01466 0.00459634 1.33053e-21)
(1.00946 0.000402795 -7.00036e-21)
(0.999561 0.00121398 0)
(1.06829 0.431224 5.09924e-20)
(1.00016 0.00142416 -3.81106e-21)
(0.993194 0.00729055 0)
(1.17882 0.0054949 1.99882e-20)
(0.974221 0.0121283 0)
(1.16242 0.149409 2.38578e-20)
(1.00095 0.000990102 -1.19727e-20)
(0.998453 0.00317303 -7.15643e-21)
(1.01185 0.00110975 -3.38281e-21)
(0.999011 0.0014173 0)
(1.27395 0.0369329 9.84918e-20)
(1.00016 0.00159495 -4.33752e-21)
(1.002 0.02713 -8.58252e-21)
(1.14479 0.0403721 7.31658e-21)
(0.927329 0.252542 3.59167e-20)
(0.798606 0.519543 -1.58333e-20)
(1.00002 0.00167953 3.83606e-21)
(1.21075 0.123199 2.23809e-20)
(0.0018383 0.128566 -7.76762e-20)
(0.381296 0.0537092 -1.00019e-19)
(0.966542 0.0502156 0)
(-0.245234 0.0143899 0)
(-0.103755 -0.0030658 -1.11889e-19)
(0.993891 0.0142284 1.03315e-20)
(1.01701 0.00243072 1.06841e-21)
(0.982765 0.0532178 0)
(0.946397 0.0363194 0)
(-0.0632418 0.144336 -1.28921e-19)
(1.02934 0.0684931 1.95944e-21)
(1.00073 0.00289047 8.5929e-21)
(1.00013 0.00150068 -4.10496e-21)
(0.0573066 0.115314 8.54646e-20)
(0.977493 0.177384 1.80415e-20)
(1.0471 -0.00558963 0)
(1.00057 0.00240361 6.89157e-21)
(0.989662 0.00541953 -1.04177e-20)
(1.08869 0.159733 -2.56413e-20)
(1.01054 0.005881 3.01135e-21)
(1.0078 0.000618072 -6.83258e-23)
(1.11142 -0.00558482 0)
(0.988601 0.0593532 0)
(0.999654 0.000984475 -2.28544e-20)
(1.03043 0.018551 1.77002e-23)
(0.695011 0.632632 0)
(1.03624 0.0191598 -2.57738e-21)
(0.993715 0.0596854 1.02264e-20)
(0.995854 0.0028851 -8.73444e-23)
(1.001 0.0515578 9.20643e-22)
(1.22283 0.20463 -9.68952e-20)
(1.00005 0.00184364 0)
(0.976383 0.0587217 4.3509e-21)
(0.997467 0.00327605 0)
(1.08071 0.029551 1.09118e-20)
(0.623817 0.554487 0)
(0.999999 0.000101049 -7.07661e-21)
(0.812269 0.499056 5.05385e-21)
(1.04885 0.0860655 1.99321e-21)
(-0.0621826 0.144055 0)
(1.01589 0.000478961 5.73759e-22)
(1.03641 0.0657481 1.76849e-22)
(1.10801 -0.00732476 -3.60705e-21)
(1.20898 0.127838 -4.90828e-20)
(0.774695 0.140584 -6.91845e-20)
(0.966446 0.0395628 2.60263e-20)
(1.05725 0.255616 -1.21647e-19)
(1.05017 -0.0580757 -2.51595e-20)
(0.960435 0.0262302 -4.75654e-21)
(1.01182 0.000635478 -8.26434e-23)
(1.34386 0.0528603 -3.95679e-20)
(0.997505 0.00246368 7.1051e-24)
(1.00002 0.000790376 -7.03046e-23)
(1.01526 0.0140926 0)
(1.00003 0.000910493 -6.85429e-23)
(1.16237 0.0778886 0)
(1 1.53883e-05 3.48397e-21)
(0.999993 0.000105827 8.80672e-21)
(0.860159 0.271315 -2.61411e-20)
(1.02145 0.117563 -3.37908e-21)
(1.01412 4.85642e-05 3.81594e-22)
(0.920268 0.123554 5.41101e-20)
(0.951178 0.0192279 -3.6672e-20)
(0.422274 0.0313558 -8.6768e-20)
(1.06427 0.0180435 0)
(0.785409 0.579021 6.176e-21)
(1.00025 0.0187606 -1.73353e-21)
(1.16792 -0.0214268 2.90128e-20)
(0.985179 0.175773 -1.76022e-20)
(0.137374 0.09497 1.2842e-19)
(1.07207 0.0339943 2.13941e-20)
(-0.212826 -0.0457083 0)
(1.00001 0.000422867 0)
(1.06953 -0.0231153 -2.42732e-20)
(1.00195 0.00312532 3.57459e-21)
(1.00042 0.0413036 -6.86484e-21)
(0.989055 0.0203073 1.33871e-20)
(1.24581 -0.0185709 0)
(0.854939 0.149193 3.93884e-20)
(1.11052 -0.0756693 3.07194e-20)
(-0.247664 -0.033707 -1.53399e-19)
(1.00067 0.00326527 6.09825e-21)
(0.887793 0.909428 0)
(1.06715 -0.0272593 0)
(1.02471 0.0218399 1.25771e-21)
(0.867057 0.0702698 -4.64249e-20)
(1.10529 0.0518784 3.24344e-20)
(-0.0629239 0.115686 2.06848e-20)
(0.997376 0.00918723 -2.84357e-21)
(0.943693 0.102907 6.71116e-21)
(0.92456 0.239538 2.183e-21)
(1.02481 0.0695033 2.8523e-21)
(0.827963 0.141796 -3.42288e-21)
(1.00001 0.000173922 2.20813e-22)
(1.01606 0.00276783 0)
(1.00001 0.000159746 7.02754e-21)
(0.951863 0.480355 0)
(0.999138 0.0031876 1.33004e-20)
(1.00205 0.00625275 -3.264e-21)
(1.01421 0.0134719 -3.91321e-21)
(1.01099 0.00105658 -6.46555e-21)
(1.00236 0.0106116 0)
(1.00055 0.0089192 0)
(1.03032 0.0442543 0)
(1.00436 0.0160454 1.04892e-20)
(0.999181 0.00223587 -1.33188e-20)
(0.95642 0.0118273 1.85614e-20)
(1.00422 0.0951454 0)
(0.926655 0.121587 0)
(0.994119 0.00382057 0)
(-0.0454053 0.137065 6.404e-20)
(1.00403 0.0369757 0)
(1.25901 0.41397 9.18809e-20)
(0.891243 0.155067 4.88685e-20)
(-0.169347 0.13941 -6.84775e-20)
(1.1103 0.0986836 1.95414e-20)
(1.06802 -0.0215401 -6.01335e-21)
(-0.171926 0.0207834 -5.86021e-20)
(1.12329 0.0394174 -2.14948e-20)
(0.986465 0.470654 -9.71032e-21)
(0.539745 0.0382033 2.007e-19)
(1.09041 0.153533 0)
(1.00014 0.00166637 8.59185e-21)
(1.00608 0.0140038 0)
(1.00643 0.064046 -7.0888e-21)
(1.23044 0.201296 -1.1195e-19)
(1.0152 0.0320145 -2.85789e-21)
(-0.0919635 0.0353241 7.88144e-20)
(1.0059 0.0297502 5.57984e-22)
(0.898635 0.675396 2.04246e-19)
(0.69448 -0.0160644 -5.55359e-20)
(1.10905 -0.0921212 -1.29438e-21)
(1.05772 0.0255805 -3.12079e-21)
(-0.0682288 0.0406832 0)
(-0.256539 0.154391 1.99347e-19)
(0.941111 0.0164937 0)
(0.99378 0.00516694 -1.46317e-20)
(0.999955 0.000327605 0)
(1.07349 0.00282921 0)
(1.01626 0.00265474 3.93779e-22)
(1.01297 0.00099347 -1.93316e-22)
(1.10124 0.206152 2.78589e-20)
(1.22872 -0.164136 0)
(0.997571 0.00293906 0)
(1.01423 0.0314857 0)
(0.958571 0.0111526 0)
(1.204 0.387945 1.89411e-21)
(1.12735 -0.0918282 0)
(0.999513 0.00281525 0)
(1.04698 0.0820421 1.35884e-21)
(1.21784 0.0828814 -5.68953e-20)
(0.997716 0.0535123 0)
(1.00044 0.00755361 0)
(-0.124354 0.0324654 8.03022e-20)
(0.986644 0.0441463 0)
(0.9958 0.0204464 -3.11832e-21)
(0.79861 0.943297 1.02912e-20)
(0.997967 0.0798952 1.1625e-20)
(0.978682 0.00789634 1.19832e-20)
(-0.143789 0.0129517 -2.29744e-19)
(0.365401 0.0400339 0)
(0.0248618 0.0572484 0)
(0.991099 0.0124755 1.11952e-20)
(0.976803 0.0617087 -4.40603e-21)
(1.29999 0.074719 4.36504e-20)
(1.01462 0.0140513 3.96208e-21)
(1.02404 0.0293474 0)
(0.999991 0.000219157 0)
(1.08171 -0.0360862 -1.87964e-20)
(0.997883 0.0062265 -1.53576e-20)
(1.00102 0.000939008 9.03978e-21)
(1.05185 -0.018982 1.01348e-20)
(0.785324 0.118708 -1.2184e-19)
(0.879487 0.434166 0)
(1.01064 0.0152826 6.67482e-21)
(0.982167 0.0131452 -1.44345e-20)
(0.99745 0.00197754 -1.70347e-20)
(1.02342 0.0272509 -1.84168e-21)
(0.984625 0.0515109 1.32883e-20)
(1.01528 0.00307263 -1.60525e-21)
(1.25533 0.0836542 -2.80952e-20)
(1.00227 0.121636 6.81876e-21)
(0.993562 0.0316635 1.00508e-20)
(0.995851 0.00817783 8.20642e-23)
(1.01182 0.014139 -5.71219e-22)
(1.00306 0.00591508 3.42527e-21)
(1.0384 0.0425072 -2.04913e-22)
(-0.135312 0.00074387 -1.4565e-19)
(1.10304 0.0202227 2.41637e-20)
(1.02759 0.000617825 0)
(0.994254 0.0117318 9.614e-22)
(0.844659 0.149979 4.81664e-20)
(0.0798519 0.10611 -1.28119e-19)