/*--------------------------------*- C++ -*----------------------------------*\
| =========                 |                                                 |
| \\      /  F ield         | OpenFOAM: The Open Source CFD Toolbox           |
|  \\    /   O peration     | Version:  v2012                                 |
|   \\  /    A nd           | Website:  www.openfoam.com                      |
|    \\/     M anipulation  |                                                 |
\*---------------------------------------------------------------------------*/
FoamFile
{
    version     2.0;
    format      ascii;
    class       volVectorField;
    location    "750";
    object      cellDisplacement;
}
// * * * * * * * * * * * * * * * * * * * * * * * * * * * * * * * * * * * * * //

dimensions      [0 1 0 0 0 0 0];


internalField   nonuniform List<vector> 
18758
(
(0 0.000108271 0)
(0 8.51186e-05 0)
(0 6.82015e-06 0)
(0 0.000107918 0)
(0 8.9545e-05 0)
(0 1.51969e-06 0)
(0 2.9037e-05 0)
(0 2.77158e-05 0)
(0 8.84986e-05 0)
(0 8.61036e-05 0)
(0 8.17556e-05 0)
(0 0.000135397 0)
(0 9.05004e-05 0)
(0 1.85452e-05 0)
(0 2.93763e-05 0)
(0 1.60749e-05 0)
(0 0.000134991 0)
(0 4.81054e-07 0)
(0 2.85199e-05 0)
(0 4.53929e-05 0)
(0 0.000135499 0)
(0 -7.35655e-07 0)
(0 1.34151e-06 0)
(0 3.48334e-06 0)
(0 -7.86191e-07 0)
(0 2.23591e-06 0)
(0 9.77299e-05 0)
(0 1.65307e-05 0)
(0 6.05353e-06 0)
(0 8.74959e-05 0)
(0 4.07783e-05 0)
(0 9.65544e-05 0)
(0 2.80577e-05 0)
(0 -4.33754e-07 0)
(0 9.20397e-05 0)
(0 8.63989e-05 0)
(0 8.92867e-05 0)
(0 9.10805e-05 0)
(0 7.49535e-05 0)
(0 5.64967e-06 0)
(0 8.20236e-05 0)
(0 8.34168e-05 0)
(0 7.62977e-05 0)
(0 0.000110062 0)
(0 8.13564e-06 0)
(0 4.12915e-05 0)
(0 8.25621e-05 0)
(0 7.15796e-06 0)
(0 -1.23272e-06 0)
(0 0.000105569 0)
(0 8.14115e-05 0)
(0 3.0232e-06 0)
(0 0.000105164 0)
(0 6.41646e-05 0)
(0 5.30116e-07 0)
(0 9.05374e-05 0)
(0 7.73483e-05 0)
(0 4.58765e-05 0)
(0 7.99282e-06 0)
(0 7.59802e-05 0)
(0 7.92346e-06 0)
(0 0.000109285 0)
(0 6.41903e-05 0)
(0 1.77609e-05 0)
(0 7.08618e-06 0)
(0 -1.07573e-06 0)
(0 1.17881e-05 0)
(0 2.79882e-05 0)
(0 1.72209e-05 0)
(0 9.68546e-07 0)
(0 3.10074e-06 0)
(0 2.29059e-06 0)
(0 4.20142e-05 0)
(0 3.88402e-05 0)
(0 3.82667e-05 0)
(0 3.96741e-05 0)
(0 5.54635e-05 0)
(0 0.000134144 0)
(0 8.70742e-05 0)
(0 7.49369e-05 0)
(0 2.56323e-06 0)
(0 7.56526e-05 0)
(0 0.000134254 0)
(0 3.67755e-05 0)
(0 0.000115249 0)
(0 8.45211e-07 0)
(0 1.01278e-05 0)
(0 3.91059e-05 0)
(0 6.41906e-05 0)
(0 8.03186e-07 0)
(0 2.64842e-06 0)
(0 3.99419e-06 0)
(0 3.12425e-06 0)
(0 -1.26272e-06 0)
(0 4.11805e-05 0)
(0 4.29449e-05 0)
(0 3.88459e-06 0)
(0 7.29578e-06 0)
(0 0.000134257 0)
(0 5.82473e-05 0)
(0 4.01365e-05 0)
(0 4.80356e-05 0)
(0 2.72557e-05 0)
(0 4.19734e-05 0)
(0 -9.9248e-07 0)
(0 0.000135554 0)
(0 6.70437e-06 0)
(0 2.5679e-06 0)
(0 5.77811e-05 0)
(0 0.000121378 0)
(0 1.41041e-05 0)
(0 1.75053e-05 0)
(0 0.000116862 0)
(0 1.00704e-05 0)
(0 4.9016e-05 0)
(0 1.51814e-05 0)
(0 7.75719e-06 0)
(0 6.83341e-05 0)
(0 1.39178e-05 0)
(0 0.000117769 0)
(0 1.28656e-05 0)
(0 5.60021e-05 0)
(0 0.000115735 0)
(0 7.81043e-05 0)
(0 -1.3844e-06 0)
(0 6.30405e-05 0)
(0 0.000106495 0)
(0 7.75057e-05 0)
(0 4.4801e-06 0)
(0 -1.73414e-06 0)
(0 7.47942e-06 0)
(0 6.57225e-06 0)
(0 2.23714e-05 0)
(0 -3.81555e-07 0)
(0 4.80708e-06 0)
(0 1.26683e-05 0)
(0 5.41733e-05 0)
(0 0.000115667 0)
(0 1.10365e-05 0)
(0 2.84817e-06 0)
(0 0.000117969 0)
(0 0.000117255 0)
(0 7.16429e-06 0)
(0 5.7504e-05 0)
(0 -1.43305e-06 0)
(0 4.2274e-06 0)
(0 -9.77425e-07 0)
(0 4.53446e-06 0)
(0 8.30128e-05 0)
(0 8.79584e-06 0)
(0 -1.72436e-06 0)
(0 -1.68516e-06 0)
(0 1.95388e-05 0)
(0 9.41856e-05 0)
(0 8.09166e-05 0)
(0 2.87664e-05 0)
(0 3.39146e-06 0)
(0 4.232e-06 0)
(0 3.9878e-05 0)
(0 8.38948e-05 0)
(0 6.93891e-06 0)
(0 8.80215e-05 0)
(0 -1.55217e-06 0)
(0 -8.92991e-07 0)
(0 4.22248e-05 0)
(0 7.3822e-05 0)
(0 8.66023e-05 0)
(0 6.23336e-06 0)
(0 -1.71825e-06 0)
(0 0.000135925 0)
(0 -1.67736e-06 0)
(0 4.7168e-06 0)
(0 5.98023e-06 0)
(0 9.39093e-07 0)
(0 5.93198e-05 0)
(0 7.26037e-05 0)
(0 3.96482e-05 0)
(0 1.88645e-06 0)
(0 -2.92575e-07 0)
(0 1.56601e-05 0)
(0 2.11026e-05 0)
(0 5.95609e-05 0)
(0 7.25516e-07 0)
(0 1.39467e-05 0)
(0 9.21731e-06 0)
(0 1.45159e-05 0)
(0 8.8382e-05 0)
(0 6.17239e-05 0)
(0 -1.23487e-06 0)
(0 4.18958e-05 0)
(0 -1.70574e-06 0)
(0 1.4533e-05 0)
(0 1.71602e-05 0)
(0 5.15397e-05 0)
(0 1.28419e-05 0)
(0 1.48741e-05 0)
(0 1.11845e-05 0)
(0 1.94728e-05 0)
(0 -1.16989e-06 0)
(0 5.38056e-06 0)
(0 9.68592e-05 0)
(0 4.21863e-06 0)
(0 4.21029e-05 0)
(0 1.22815e-05 0)
(0 1.51855e-05 0)
(0 -1.50295e-06 0)
(0 9.90227e-05 0)
(0 9.33164e-05 0)
(0 -1.74037e-06 0)
(0 -1.7556e-06 0)
(0 3.90238e-06 0)
(0 3.55778e-06 0)
(0 9.83001e-05 0)
(0 0.000106818 0)
(0 4.65453e-05 0)
(0 4.53715e-06 0)
(0 2.63359e-06 0)
(0 3.61949e-06 0)
(0 1.98383e-06 0)
(0 8.41026e-05 0)
(0 5.1955e-05 0)
(0 9.38283e-05 0)
(0 7.58027e-06 0)
(0 4.44494e-06 0)
(0 4.14699e-05 0)
(0 9.03988e-06 0)
(0 3.91012e-05 0)
(0 3.51709e-07 0)
(0 6.53096e-06 0)
(0 9.76096e-05 0)
(0 2.4855e-06 0)
(0 4.53216e-06 0)
(0 5.94127e-05 0)
(0 1.06373e-05 0)
(0 2.62347e-05 0)
(0 9.5479e-05 0)
(0 3.15606e-05 0)
(0 -1.26601e-06 0)
(0 1.13618e-05 0)
(0 3.02867e-05 0)
(0 1.60789e-05 0)
(0 3.18979e-05 0)
(0 1.098e-05 0)
(0 5.37959e-06 0)
(0 8.70608e-06 0)
(0 6.70629e-06 0)
(0 2.43597e-05 0)
(0 5.00283e-05 0)
(0 7.85946e-05 0)
(0 5.97734e-05 0)
(0 -1.65081e-06 0)
(0 0.000109208 0)
(0 4.54135e-06 0)
(0 9.61317e-05 0)
(0 6.07504e-07 0)
(0 1.01664e-05 0)
(0 7.45277e-05 0)
(0 2.31342e-06 0)
(0 2.78805e-06 0)
(0 8.49927e-05 0)
(0 0.000116224 0)
(0 8.03659e-05 0)
(0 2.45986e-05 0)
(0 1.7568e-05 0)
(0 2.88176e-05 0)
(0 2.96989e-05 0)
(0 8.18819e-05 0)
(0 1.06309e-05 0)
(0 1.92016e-05 0)
(0 7.10446e-05 0)
(0 1.52708e-05 0)
(0 1.34577e-06 0)
(0 6.97693e-05 0)
(0 9.52528e-05 0)
(0 1.07029e-05 0)
(0 4.67551e-05 0)
(0 1.87404e-05 0)
(0 2.12451e-06 0)
(0 0.000107653 0)
(0 1.90329e-05 0)
(0 4.77178e-05 0)
(0 6.30246e-06 0)
(0 1.23687e-05 0)
(0 -7.84052e-07 0)
(0 2.85253e-05 0)
(0 9.37448e-05 0)
(0 1.59599e-06 0)
(0 1.05825e-05 0)
(0 4.58012e-05 0)
(0 4.35094e-05 0)
(0 3.87179e-06 0)
(0 1.69039e-05 0)
(0 7.73812e-05 0)
(0 7.82716e-06 0)
(0 4.68728e-06 0)
(0 8.15138e-05 0)
(0 9.88317e-06 0)
(0 2.70049e-06 0)
(0 2.92521e-06 0)
(0 -1.20372e-06 0)
(0 1.38795e-05 0)
(0 1.18369e-05 0)
(0 1.23938e-05 0)
(0 7.00099e-05 0)
(0 7.3846e-05 0)
(0 2.0548e-05 0)
(0 0.000127105 0)
(0 0.00013583 0)
(0 0.000110011 0)
(0 9.19156e-05 0)
(0 1.2463e-05 0)
(0 3.0604e-05 0)
(0 1.07359e-05 0)
(0 1.14749e-05 0)
(0 5.80436e-06 0)
(0 -5.51041e-07 0)
(0 2.51744e-05 0)
(0 6.77824e-05 0)
(0 4.47891e-06 0)
(0 1.17829e-05 0)
(0 1.18336e-05 0)
(0 3.89168e-05 0)
(0 9.42025e-06 0)
(0 3.72385e-05 0)
(0 2.58886e-05 0)
(0 -1.75127e-06 0)
(0 3.9794e-06 0)
(0 7.78043e-05 0)
(0 -1.35471e-06 0)
(0 3.14339e-05 0)
(0 0.000120887 0)
(0 -2.28928e-07 0)
(0 3.5467e-05 0)
(0 7.49873e-05 0)
(0 3.00535e-06 0)
(0 1.12732e-05 0)
(0 5.49681e-05 0)
(0 9.76505e-05 0)
(0 2.69472e-05 0)
(0 0.000100667 0)
(0 5.40742e-05 0)
(0 2.88541e-05 0)
(0 2.28709e-05 0)
(0 6.99336e-05 0)
(0 0.000115244 0)
(0 6.89415e-05 0)
(0 0.000133791 0)
(0 7.57368e-05 0)
(0 8.92783e-06 0)
(0 7.34085e-05 0)
(0 -9.93018e-07 0)
(0 0.000115706 0)
(0 1.41826e-05 0)
(0 1.36079e-05 0)
(0 -1.46976e-06 0)
(0 8.25531e-05 0)
(0 6.74731e-05 0)
(0 2.85893e-05 0)
(0 0.000121253 0)
(0 0.000105825 0)
(0 0.000109188 0)
(0 1.09233e-05 0)
(0 5.26013e-05 0)
(0 0.000114097 0)
(0 3.97892e-05 0)
(0 5.19927e-05 0)
(0 2.63249e-05 0)
(0 1.23181e-05 0)
(0 5.91898e-05 0)
(0 7.94368e-06 0)
(0 -1.29459e-06 0)
(0 1.45824e-05 0)
(0 6.09645e-05 0)
(0 2.46897e-05 0)
(0 8.25959e-05 0)
(0 1.4616e-05 0)
(0 4.22696e-07 0)
(0 -1.08396e-06 0)
(0 4.30199e-06 0)
(0 7.78583e-05 0)
(0 0.000113221 0)
(0 1.46818e-05 0)
(0 3.3314e-06 0)
(0 -8.16881e-07 0)
(0 0.000114807 0)
(0 0.000129366 0)
(0 1.5654e-05 0)
(0 -1.40611e-06 0)
(0 2.965e-05 0)
(0 0.000135586 0)
(0 0.000122111 0)
(0 1.58558e-05 0)
(0 2.03514e-05 0)
(0 5.00822e-05 0)
(0 0.000112327 0)
(0 1.23705e-05 0)
(0 0.000105498 0)
(0 1.54822e-05 0)
(0 4.49467e-06 0)
(0 5.83969e-06 0)
(0 7.6385e-05 0)
(0 2.72041e-05 0)
(0 7.8466e-05 0)
(0 9.0912e-06 0)
(0 4.52925e-05 0)
(0 4.49899e-05 0)
(0 -1.43676e-06 0)
(0 7.91078e-05 0)
(0 5.55921e-06 0)
(0 8.01618e-05 0)
(0 2.85408e-06 0)
(0 7.7079e-05 0)
(0 2.08393e-05 0)
(0 3.1707e-05 0)
(0 5.67554e-05 0)
(0 8.43825e-06 0)
(0 0.000123128 0)
(0 7.56932e-05 0)
(0 2.33672e-05 0)
(0 8.20894e-06 0)
(0 1.38113e-05 0)
(0 1.70218e-05 0)
(0 -1.09833e-06 0)
(0 2.97352e-05 0)
(0 0.000116344 0)
(0 4.96483e-06 0)
(0 -2.46205e-07 0)
(0 2.949e-06 0)
(0 1.89454e-06 0)
(0 0.000111563 0)
(0 3.4376e-06 0)
(0 6.09475e-05 0)
(0 3.82918e-06 0)
(0 8.18968e-06 0)
(0 4.10344e-05 0)
(0 8.71313e-06 0)
(0 3.09611e-05 0)
(0 3.88807e-05 0)
(0 3.01951e-05 0)
(0 2.78936e-05 0)
(0 1.66109e-05 0)
(0 7.05503e-05 0)
(0 5.23785e-07 0)
(0 -1.11703e-06 0)
(0 1.64291e-05 0)
(0 9.85775e-05 0)
(0 4.16398e-07 0)
(0 2.97417e-06 0)
(0 4.19664e-05 0)
(0 5.56038e-07 0)
(0 2.82521e-05 0)
(0 6.44139e-06 0)
(0 1.48222e-05 0)
(0 8.28915e-05 0)
(0 1.51587e-05 0)
(0 -1.2971e-06 0)
(0 7.51922e-05 0)
(0 1.62533e-06 0)
(0 1.27249e-05 0)
(0 9.53881e-05 0)
(0 1.34565e-05 0)
(0 9.87111e-06 0)
(0 9.40314e-07 0)
(0 2.87583e-05 0)
(0 2.43848e-06 0)
(0 2.15956e-05 0)
(0 1.29703e-05 0)
(0 5.24149e-05 0)
(0 2.05207e-06 0)
(0 9.39295e-05 0)
(0 7.23135e-06 0)
(0 9.31354e-05 0)
(0 6.44603e-05 0)
(0 5.79415e-06 0)
(0 3.10962e-05 0)
(0 3.29657e-05 0)
(0 2.88986e-05 0)
(0 8.4678e-05 0)
(0 0.000127938 0)
(0 0.000118469 0)
(0 1.35678e-05 0)
(0 3.00729e-05 0)
(0 5.14807e-05 0)
(0 2.4593e-06 0)
(0 5.07401e-05 0)
(0 1.12637e-06 0)
(0 9.67082e-05 0)
(0 6.98146e-06 0)
(0 1.3383e-05 0)
(0 2.67643e-06 0)
(0 6.87681e-06 0)
(0 6.08468e-06 0)
(0 7.80837e-06 0)
(0 9.49048e-05 0)
(0 0.000127284 0)
(0 0.000135763 0)
(0 9.92368e-05 0)
(0 8.01073e-05 0)
(0 3.32368e-07 0)
(0 9.58634e-06 0)
(0 2.14281e-06 0)
(0 1.91539e-06 0)
(0 2.37792e-05 0)
(0 3.51118e-06 0)
(0 1.36789e-05 0)
(0 2.20609e-06 0)
(0 -3.7925e-07 0)
(0 0.000102725 0)
(0 7.638e-05 0)
(0 7.31625e-05 0)
(0 -8.82853e-07 0)
(0 1.27266e-06 0)
(0 3.12089e-07 0)
(0 8.00283e-06 0)
(0 4.53032e-05 0)
(0 2.92475e-06 0)
(0 0.000101896 0)
(0 0.000112254 0)
(0 1.34187e-05 0)
(0 5.25729e-05 0)
(0 7.03779e-05 0)
(0 2.59903e-06 0)
(0 1.67992e-06 0)
(0 9.72216e-05 0)
(0 6.55576e-06 0)
(0 0.000132341 0)
(0 1.79213e-05 0)
(0 0.000123774 0)
(0 5.35477e-05 0)
(0 1.29021e-06 0)
(0 1.8459e-05 0)
(0 5.02541e-06 0)
(0 1.52372e-05 0)
(0 5.57307e-05 0)
(0 6.99076e-05 0)
(0 5.71981e-05 0)
(0 4.12205e-05 0)
(0 2.61302e-05 0)
(0 3.37626e-05 0)
(0 9.72998e-05 0)
(0 7.49988e-05 0)
(0 7.99875e-05 0)
(0 2.26812e-05 0)
(0 2.24263e-05 0)
(0 -6.02015e-07 0)
(0 8.7017e-06 0)
(0 4.51279e-05 0)
(0 9.56974e-05 0)
(0 1.7227e-05 0)
(0 5.79761e-06 0)
(0 1.81198e-05 0)
(0 4.00859e-06 0)
(0 8.69511e-07 0)
(0 1.40654e-05 0)
(0 9.18104e-05 0)
(0 9.58171e-05 0)
(0 4.96596e-05 0)
(0 1.49085e-05 0)
(0 8.1998e-06 0)
(0 5.56355e-05 0)
(0 5.45531e-06 0)
(0 2.5435e-05 0)
(0 1.78011e-06 0)
(0 0.000118243 0)
(0 0.000107094 0)
(0 6.56225e-05 0)
(0 4.41461e-06 0)
(0 3.30484e-05 0)
(0 0.000117076 0)
(0 0.000121328 0)
(0 7.65809e-05 0)
(0 1.63281e-05 0)
(0 0.000119402 0)
(0 6.6096e-05 0)
(0 8.57309e-06 0)
(0 0.000107502 0)
(0 4.58329e-06 0)
(0 4.57586e-06 0)
(0 1.91363e-06 0)
(0 1.75025e-06 0)
(0 0.000121191 0)
(0 7.37045e-06 0)
(0 1.49863e-05 0)
(0 4.08669e-05 0)
(0 1.12111e-05 0)
(0 1.73621e-05 0)
(0 -1.16747e-06 0)
(0 6.72883e-05 0)
(0 9.90722e-05 0)
(0 7.05704e-05 0)
(0 8.43561e-06 0)
(0 6.28044e-06 0)
(0 3.70195e-05 0)
(0 3.17245e-05 0)
(0 5.67752e-05 0)
(0 7.12515e-05 0)
(0 8.34158e-05 0)
(0 0.000120103 0)
(0 9.25714e-05 0)
(0 5.55863e-05 0)
(0 -1.17987e-06 0)
(0 1.09793e-05 0)
(0 3.65342e-06 0)
(0 5.08261e-05 0)
(0 0.000102773 0)
(0 4.15313e-05 0)
(0 2.32468e-05 0)
(0 0.0001001 0)
(0 1.4398e-05 0)
(0 0.000117197 0)
(0 2.13089e-05 0)
(0 7.33853e-05 0)
(0 1.7643e-05 0)
(0 0.000127931 0)
(0 1.46328e-05 0)
(0 -1.32326e-06 0)
(0 2.18881e-05 0)
(0 0.000123568 0)
(0 7.42569e-05 0)
(0 0.000102153 0)
(0 9.14214e-06 0)
(0 8.9743e-06 0)
(0 7.61381e-05 0)
(0 1.85477e-05 0)
(0 6.92888e-05 0)
(0 2.15156e-05 0)
(0 6.98871e-05 0)
(0 3.57157e-06 0)
(0 0.000120865 0)
(0 0.000123889 0)
(0 9.44925e-05 0)
(0 5.2417e-05 0)
(0 4.32062e-05 0)
(0 0.000124531 0)
(0 -9.34154e-07 0)
(0 7.04897e-06 0)
(0 8.17101e-06 0)
(0 -1.69525e-06 0)
(0 -7.11086e-07 0)
(0 2.46423e-06 0)
(0 1.03532e-06 0)
(0 3.76909e-05 0)
(0 9.53868e-05 0)
(0 1.03672e-05 0)
(0 7.20386e-05 0)
(0 6.7195e-05 0)
(0 4.60027e-06 0)
(0 9.8837e-06 0)
(0 1.5997e-06 0)
(0 2.18532e-05 0)
(0 0.000111552 0)
(0 4.77508e-05 0)
(0 0.000111593 0)
(0 6.93946e-05 0)
(0 4.90099e-06 0)
(0 0.000129922 0)
(0 0.000107267 0)
(0 9.33931e-05 0)
(0 1.41375e-05 0)
(0 4.60707e-06 0)
(0 1.44308e-05 0)
(0 0.000132054 0)
(0 6.86485e-05 0)
(0 5.52273e-05 0)
(0 0.00011436 0)
(0 0.000108757 0)
(0 5.41691e-05 0)
(0 1.86308e-06 0)
(0 1.93783e-06 0)
(0 2.8413e-05 0)
(0 3.2093e-05 0)
(0 9.61351e-05 0)
(0 1.80084e-05 0)
(0 -1.13895e-06 0)
(0 -1.36999e-06 0)
(0 6.76408e-05 0)
(0 9.76841e-05 0)
(0 0.000136096 0)
(0 1.50661e-05 0)
(0 4.78645e-05 0)
(0 6.39204e-05 0)
(0 1.46238e-05 0)
(0 1.99139e-05 0)
(0 0.000133484 0)
(0 4.96002e-06 0)
(0 8.31549e-06 0)
(0 5.80516e-06 0)
(0 1.412e-05 0)
(0 1.52098e-05 0)
(0 5.59787e-05 0)
(0 9.78518e-05 0)
(0 4.30163e-05 0)
(0 4.93562e-05 0)
(0 1.35345e-05 0)
(0 2.77393e-05 0)
(0 8.16736e-05 0)
(0 6.28491e-05 0)
(0 3.58513e-05 0)
(0 9.75655e-05 0)
(0 1.49623e-05 0)
(0 9.42322e-05 0)
(0 7.21168e-05 0)
(0 1.08406e-05 0)
(0 1.43508e-05 0)
(0 4.6366e-06 0)
(0 1.36125e-05 0)
(0 7.13919e-05 0)
(0 9.27414e-06 0)
(0 4.20168e-05 0)
(0 0.000107162 0)
(0 0.000110644 0)
(0 2.9231e-06 0)
(0 1.97197e-06 0)
(0 1.25202e-05 0)
(0 6.73518e-05 0)
(0 1.73843e-05 0)
(0 6.2677e-05 0)
(0 9.61262e-05 0)
(0 1.33406e-05 0)
(0 4.49141e-05 0)
(0 2.15937e-05 0)
(0 7.53397e-05 0)
(0 1.2009e-05 0)
(0 6.6179e-06 0)
(0 1.47935e-05 0)
(0 4.66081e-06 0)
(0 4.24416e-06 0)
(0 1.58736e-05 0)
(0 2.86162e-06 0)
(0 5.56481e-06 0)
(0 0.000119902 0)
(0 4.29707e-05 0)
(0 1.6168e-05 0)
(0 1.28225e-05 0)
(0 0.000122333 0)
(0 7.86748e-05 0)
(0 1.93784e-06 0)
(0 0.000109737 0)
(0 2.46119e-05 0)
(0 6.39265e-05 0)
(0 6.39031e-05 0)
(0 2.41874e-05 0)
(0 9.5609e-07 0)
(0 0.000112395 0)
(0 1.49655e-05 0)
(0 4.78133e-05 0)
(0 2.93586e-05 0)
(0 7.16882e-05 0)
(0 1.20519e-05 0)
(0 8.2772e-05 0)
(0 5.98194e-07 0)
(0 9.40531e-05 0)
(0 6.94768e-05 0)
(0 2.52699e-05 0)
(0 1.71406e-05 0)
(0 2.41712e-05 0)
(0 0.000126062 0)
(0 4.92099e-05 0)
(0 0.000128256 0)
(0 2.46194e-05 0)
(0 6.85922e-05 0)
(0 9.18149e-06 0)
(0 0.00013443 0)
(0 1.59737e-05 0)
(0 7.71345e-06 0)
(0 6.91173e-05 0)
(0 1.01568e-05 0)
(0 0.000107792 0)
(0 2.02891e-05 0)
(0 2.32294e-05 0)
(0 1.45927e-05 0)
(0 6.70231e-05 0)
(0 1.29204e-05 0)
(0 7.33187e-05 0)
(0 8.61309e-06 0)
(0 1.87061e-06 0)
(0 -5.32487e-07 0)
(0 1.10465e-05 0)
(0 1.3345e-05 0)
(0 6.51197e-06 0)
(0 9.55186e-05 0)
(0 8.80251e-06 0)
(0 2.38527e-06 0)
(0 7.55007e-05 0)
(0 8.05705e-05 0)
(0 0.000128787 0)
(0 4.70807e-05 0)
(0 3.73853e-05 0)
(0 6.14511e-05 0)
(0 3.79293e-05 0)
(0 -1.76199e-06 0)
(0 0.000111482 0)
(0 9.30827e-05 0)
(0 1.79351e-05 0)
(0 3.4567e-05 0)
(0 4.76036e-05 0)
(0 0.000112213 0)
(0 3.86812e-05 0)
(0 1.0282e-05 0)
(0 9.34181e-05 0)
(0 1.48847e-05 0)
(0 1.81304e-05 0)
(0 8.023e-05 0)
(0 5.72946e-05 0)
(0 6.46111e-06 0)
(0 2.06357e-05 0)
(0 2.19227e-05 0)
(0 9.52471e-06 0)
(0 0.000117425 0)
(0 4.44476e-07 0)
(0 3.6621e-05 0)
(0 6.116e-05 0)
(0 4.88803e-05 0)
(0 9.30736e-05 0)
(0 2.16399e-05 0)
(0 1.57385e-05 0)
(0 1.1689e-05 0)
(0 2.7542e-05 0)
(0 1.71214e-05 0)
(0 1.94856e-06 0)
(0 6.90953e-05 0)
(0 5.6107e-05 0)
(0 5.69773e-05 0)
(0 2.53655e-05 0)
(0 2.8172e-05 0)
(0 1.74614e-05 0)
(0 2.83839e-06 0)
(0 0.000109057 0)
(0 6.58094e-05 0)
(0 -4.1189e-07 0)
(0 5.12886e-05 0)
(0 0.000122438 0)
(0 1.03687e-05 0)
(0 6.41703e-06 0)
(0 5.13772e-06 0)
(0 0.000106921 0)
(0 -1.75863e-06 0)
(0 8.67359e-05 0)
(0 4.67796e-05 0)
(0 9.84253e-06 0)
(0 4.76921e-06 0)
(0 -1.54713e-07 0)
(0 3.51646e-05 0)
(0 2.61218e-05 0)
(0 1.18248e-05 0)
(0 8.74936e-05 0)
(0 3.15319e-05 0)
(0 6.40789e-06 0)
(0 0.000121058 0)
(0 1.14907e-05 0)
(0 4.28609e-05 0)
(0 8.74289e-06 0)
(0 8.73765e-05 0)
(0 3.15311e-05 0)
(0 9.04642e-05 0)
(0 1.66745e-05 0)
(0 3.95893e-05 0)
(0 3.58596e-05 0)
(0 0.000120742 0)
(0 -5.09799e-07 0)
(0 2.89776e-05 0)
(0 8.60058e-05 0)
(0 7.73698e-07 0)
(0 5.83366e-05 0)
(0 9.98519e-05 0)
(0 9.39555e-05 0)
(0 4.71785e-07 0)
(0 5.38998e-05 0)
(0 5.8964e-05 0)
(0 7.97408e-06 0)
(0 2.32572e-05 0)
(0 9.01737e-05 0)
(0 3.13301e-05 0)
(0 1.14341e-06 0)
(0 1.91332e-05 0)
(0 9.91128e-06 0)
(0 8.95844e-05 0)
(0 0.000104021 0)
(0 1.99546e-05 0)
(0 2.58824e-05 0)
(0 1.40543e-05 0)
(0 1.96217e-05 0)
(0 1.40666e-05 0)
(0 1.33545e-05 0)
(0 1.67247e-05 0)
(0 4.18988e-05 0)
(0 7.45144e-05 0)
(0 4.60421e-05 0)
(0 5.37578e-06 0)
(0 8.96344e-06 0)
(0 0.000117879 0)
(0 1.7042e-05 0)
(0 6.25354e-06 0)
(0 8.76262e-05 0)
(0 3.47741e-05 0)
(0 9.32933e-05 0)
(0 1.85573e-05 0)
(0 7.17718e-05 0)
(0 1.64442e-05 0)
(0 8.38125e-05 0)
(0 1.8744e-06 0)
(0 1.05955e-05 0)
(0 7.11552e-05 0)
(0 6.32523e-05 0)
(0 2.52049e-06 0)
(0 6.21343e-06 0)
(0 1.02366e-05 0)
(0 2.64755e-05 0)
(0 1.0785e-06 0)
(0 2.09875e-05 0)
(0 7.72338e-05 0)
(0 1.44142e-05 0)
(0 6.82829e-05 0)
(0 2.43598e-05 0)
(0 9.59477e-05 0)
(0 0.000126676 0)
(0 9.88961e-05 0)
(0 2.32613e-05 0)
(0 4.39726e-05 0)
(0 1.14768e-06 0)
(0 9.10381e-05 0)
(0 9.7101e-05 0)
(0 1.74393e-05 0)
(0 4.18167e-05 0)
(0 0.000127962 0)
(0 1.04085e-05 0)
(0 0.000132835 0)
(0 7.17191e-05 0)
(0 1.45274e-05 0)
(0 1.64975e-05 0)
(0 1.49769e-05 0)
(0 7.40718e-06 0)
(0 7.52877e-05 0)
(0 1.85712e-05 0)
(0 6.41794e-05 0)
(0 6.50742e-05 0)
(0 3.27176e-05 0)
(0 2.36396e-05 0)
(0 5.07176e-05 0)
(0 3.89098e-05 0)
(0 2.67344e-06 0)
(0 3.94916e-05 0)
(0 1.37839e-05 0)
(0 3.96316e-05 0)
(0 5.85442e-05 0)
(0 4.78804e-05 0)
(0 -1.43617e-06 0)
(0 0.000103813 0)
(0 4.03945e-05 0)
(0 2.05695e-05 0)
(0 9.4232e-05 0)
(0 4.86498e-05 0)
(0 1.80254e-05 0)
(0 0.000129761 0)
(0 4.59046e-06 0)
(0 0.000137033 0)
(0 1.03929e-05 0)
(0 8.64171e-05 0)
(0 3.08189e-05 0)
(0 2.66042e-05 0)
(0 7.79918e-05 0)
(0 0.000137216 0)
(0 5.86849e-07 0)
(0 3.53072e-05 0)
(0 0.000128117 0)
(0 7.88424e-05 0)
(0 5.40211e-06 0)
(0 0.000112572 0)
(0 6.69396e-05 0)
(0 -1.62218e-06 0)
(0 4.27134e-05 0)
(0 8.48049e-06 0)
(0 -1.65091e-06 0)
(0 1.06263e-05 0)
(0 7.50747e-06 0)
(0 0.000120461 0)
(0 9.29965e-05 0)
(0 0.000100647 0)
(0 3.33937e-05 0)
(0 9.60126e-05 0)
(0 7.07383e-05 0)
(0 1.54506e-05 0)
(0 9.91064e-05 0)
(0 5.02879e-05 0)
(0 6.97636e-07 0)
(0 1.29526e-05 0)
(0 1.30352e-05 0)
(0 3.45288e-05 0)
(0 6.20191e-05 0)
(0 6.63362e-05 0)
(0 6.95555e-05 0)
(0 0.000111631 0)
(0 9.79052e-06 0)
(0 1.88772e-05 0)
(0 0.000137104 0)
(0 1.84832e-05 0)
(0 7.40792e-07 0)
(0 6.944e-05 0)
(0 2.01681e-05 0)
(0 3.54692e-05 0)
(0 7.11354e-05 0)
(0 3.53512e-05 0)
(0 7.26373e-05 0)
(0 2.08599e-05 0)
(0 0.000113592 0)
(0 3.63192e-05 0)
(0 1.62151e-05 0)
(0 7.57609e-05 0)
(0 2.50355e-05 0)
(0 0.000135802 0)
(0 7.15626e-06 0)
(0 0.000137208 0)
(0 3.4846e-07 0)
(0 0.000134656 0)
(0 1.46503e-05 0)
(0 8.59309e-05 0)
(0 7.51529e-05 0)
(0 7.84727e-05 0)
(0 2.27506e-05 0)
(0 9.3537e-07 0)
(0 1.36759e-06 0)
(0 0.000131538 0)
(0 3.78628e-05 0)
(0 2.40034e-06 0)
(0 1.11484e-05 0)
(0 6.42331e-06 0)
(0 4.00827e-05 0)
(0 5.46193e-05 0)
(0 9.67633e-05 0)
(0 0.000135431 0)
(0 7.08697e-05 0)
(0 4.76224e-05 0)
(0 6.23825e-05 0)
(0 1.8072e-05 0)
(0 1.61549e-05 0)
(0 0.000112442 0)
(0 6.50024e-05 0)
(0 3.96339e-05 0)
(0 9.67439e-05 0)
(0 7.5459e-05 0)
(0 3.73112e-05 0)
(0 8.38369e-05 0)
(0 4.79513e-05 0)
(0 3.51118e-05 0)
(0 6.55431e-05 0)
(0 7.18745e-05 0)
(0 7.46287e-08 0)
(0 3.22785e-06 0)
(0 6.10898e-06 0)
(0 6.49708e-05 0)
(0 2.61187e-05 0)
(0 9.51387e-05 0)
(0 3.31073e-05 0)
(0 5.08544e-05 0)
(0 2.63806e-05 0)
(0 -1.50674e-06 0)
(0 7.32296e-06 0)
(0 7.23265e-05 0)
(0 7.74012e-05 0)
(0 3.0829e-05 0)
(0 0.000125632 0)
(0 6.99029e-05 0)
(0 1.42264e-05 0)
(0 0.000127107 0)
(0 0.000114537 0)
(0 2.70657e-05 0)
(0 -1.57857e-06 0)
(0 -5.42984e-07 0)
(0 5.50061e-05 0)
(0 2.4692e-05 0)
(0 1.96719e-05 0)
(0 0.000136455 0)
(0 6.3036e-05 0)
(0 6.31396e-06 0)
(0 1.35499e-05 0)
(0 6.9227e-05 0)
(0 9.13186e-06 0)
(0 1.41038e-05 0)
(0 -1.44864e-06 0)
(0 1.23516e-05 0)
(0 9.39301e-05 0)
(0 5.73932e-05 0)
(0 1.95334e-05 0)
(0 0.000113749 0)
(0 2.10547e-05 0)
(0 1.28323e-05 0)
(0 6.38462e-05 0)
(0 6.0426e-05 0)
(0 9.59708e-05 0)
(0 2.34155e-05 0)
(0 6.62427e-05 0)
(0 0.000136731 0)
(0 1.77555e-05 0)
(0 2.2842e-05 0)
(0 0.000129638 0)
(0 1.30273e-05 0)
(0 9.9691e-06 0)
(0 4.27004e-06 0)
(0 2.27841e-05 0)
(0 9.73156e-05 0)
(0 0.000115673 0)
(0 4.94591e-06 0)
(0 0.000136325 0)
(0 9.15954e-05 0)
(0 1.5924e-05 0)
(0 4.60276e-06 0)
(0 9.28779e-05 0)
(0 1.62528e-05 0)
(0 0.000129929 0)
(0 6.03075e-05 0)
(0 1.76878e-05 0)
(0 4.06908e-06 0)
(0 2.01977e-05 0)
(0 2.26114e-05 0)
(0 9.46008e-05 0)
(0 3.68699e-05 0)
(0 2.61373e-05 0)
(0 6.22225e-06 0)
(0 2.72162e-05 0)
(0 4.70421e-05 0)
(0 9.5398e-05 0)
(0 6.0475e-06 0)
(0 1.10914e-05 0)
(0 4.88188e-05 0)
(0 5.8234e-05 0)
(0 1.10906e-05 0)
(0 0.000128265 0)
(0 1.56821e-05 0)
(0 -2.58792e-07 0)
(0 5.32061e-05 0)
(0 5.74392e-05 0)
(0 1.14468e-05 0)
(0 0.000117828 0)
(0 5.27267e-05 0)
(0 2.44649e-05 0)
(0 7.24925e-05 0)
(0 9.99637e-05 0)
(0 9.51856e-05 0)
(0 1.91955e-05 0)
(0 6.09678e-05 0)
(0 2.54908e-06 0)
(0 1.02672e-05 0)
(0 3.14692e-05 0)
(0 7.2986e-05 0)
(0 0.000129541 0)
(0 2.17598e-05 0)
(0 9.00572e-07 0)
(0 0.000120626 0)
(0 8.11861e-06 0)
(0 7.34355e-05 0)
(0 -1.55628e-06 0)
(0 3.59768e-06 0)
(0 -1.56287e-06 0)
(0 1.37941e-06 0)
(0 3.20666e-05 0)
(0 8.13089e-05 0)
(0 7.79192e-05 0)
(0 6.97543e-06 0)
(0 6.07174e-05 0)
(0 7.37477e-07 0)
(0 4.38731e-05 0)
(0 6.62156e-05 0)
(0 4.61925e-05 0)
(0 4.16984e-05 0)
(0 4.20074e-06 0)
(0 0.000103999 0)
(0 8.45172e-06 0)
(0 3.42156e-05 0)
(0 8.63745e-05 0)
(0 3.79095e-06 0)
(0 0.000136427 0)
(0 0.000119273 0)
(0 0.000114449 0)
(0 2.06912e-05 0)
(0 7.44208e-06 0)
(0 7.46573e-06 0)
(0 8.50397e-07 0)
(0 1.77399e-05 0)
(0 4.30231e-05 0)
(0 -1.42392e-06 0)
(0 -1.66e-06 0)
(0 2.12804e-05 0)
(0 2.91261e-05 0)
(0 1.41889e-05 0)
(0 -1.46688e-06 0)
(0 1.80728e-05 0)
(0 0.00012875 0)
(0 0.000121149 0)
(0 5.39333e-05 0)
(0 2.78277e-06 0)
(0 6.48183e-06 0)
(0 2.08396e-05 0)
(0 4.15017e-05 0)
(0 0.000136166 0)
(0 0.000122167 0)
(0 -3.09297e-08 0)
(0 7.04179e-05 0)
(0 7.75874e-05 0)
(0 5.43261e-05 0)
(0 0.000126399 0)
(0 3.69383e-08 0)
(0 6.60666e-05 0)
(0 2.61914e-05 0)
(0 7.15043e-05 0)
(0 7.57063e-05 0)
(0 3.75124e-05 0)
(0 7.75231e-05 0)
(0 3.72081e-05 0)
(0 -8.7176e-07 0)
(0 1.47265e-05 0)
(0 6.52005e-05 0)
(0 4.28324e-06 0)
(0 1.65515e-05 0)
(0 1.42976e-05 0)
(0 0.000122111 0)
(0 0.000136332 0)
(0 4.60846e-05 0)
(0 4.58612e-06 0)
(0 8.4721e-07 0)
(0 9.92788e-05 0)
(0 0.000110092 0)
(0 2.58217e-06 0)
(0 0.000126084 0)
(0 0.000100724 0)
(0 1.071e-05 0)
(0 7.91602e-05 0)
(0 1.37197e-05 0)
(0 3.45607e-05 0)
(0 3.30167e-05 0)
(0 7.8993e-05 0)
(0 3.85976e-05 0)
(0 9.09094e-05 0)
(0 6.14818e-05 0)
(0 7.49528e-05 0)
(0 4.36838e-05 0)
(0 1.14689e-05 0)
(0 5.11676e-05 0)
(0 4.98012e-05 0)
(0 8.93487e-05 0)
(0 0.000111675 0)
(0 5.479e-05 0)
(0 0.000104588 0)
(0 1.18223e-05 0)
(0 2.15078e-05 0)
(0 7.30215e-05 0)
(0 6.375e-05 0)
(0 1.32234e-05 0)
(0 2.4629e-06 0)
(0 0.000110766 0)
(0 6.43459e-05 0)
(0 4.01065e-07 0)
(0 0.000136525 0)
(0 -1.4132e-06 0)
(0 2.53674e-05 0)
(0 4.70977e-05 0)
(0 4.15338e-05 0)
(0 3.92632e-06 0)
(0 1.89574e-05 0)
(0 9.85743e-05 0)
(0 6.35429e-05 0)
(0 2.23884e-05 0)
(0 3.32146e-05 0)
(0 4.2661e-07 0)
(0 4.3917e-05 0)
(0 3.52683e-05 0)
(0 9.50678e-05 0)
(0 9.60132e-05 0)
(0 2.77283e-05 0)
(0 9.50311e-05 0)
(0 0.000104526 0)
(0 1.57478e-05 0)
(0 7.74852e-05 0)
(0 5.25133e-06 0)
(0 6.79435e-05 0)
(0 0.000109449 0)
(0 7.43584e-05 0)
(0 8.5449e-05 0)
(0 -1.16517e-06 0)
(0 3.35498e-06 0)
(0 0.000133758 0)
(0 -1.21375e-07 0)
(0 0.00013129 0)
(0 2.7138e-05 0)
(0 3.28695e-06 0)
(0 0.000113689 0)
(0 6.62687e-05 0)
(0 9.47122e-06 0)
(0 -1.24477e-06 0)
(0 5.80059e-05 0)
(0 8.66839e-05 0)
(0 7.91652e-05 0)
(0 4.91128e-06 0)
(0 3.95494e-05 0)
(0 0.000133019 0)
(0 5.14619e-05 0)
(0 9.88783e-06 0)
(0 9.21149e-07 0)
(0 9.42951e-06 0)
(0 1.79699e-05 0)
(0 5.41231e-06 0)
(0 1.93885e-05 0)
(0 2.38032e-06 0)
(0 7.04286e-05 0)
(0 2.03199e-05 0)
(0 0.00010645 0)
(0 1.20876e-05 0)
(0 2.96349e-06 0)
(0 1.18551e-05 0)
(0 0.000122139 0)
(0 7.4761e-05 0)
(0 4.37289e-05 0)
(0 2.44577e-05 0)
(0 6.67947e-07 0)
(0 4.27801e-05 0)
(0 2.43731e-06 0)
(0 6.53383e-05 0)
(0 6.23926e-05 0)
(0 1.97111e-05 0)
(0 1.55577e-05 0)
(0 4.45038e-05 0)
(0 9.4794e-05 0)
(0 1.31887e-05 0)
(0 1.1426e-05 0)
(0 7.24836e-05 0)
(0 0.000120779 0)
(0 1.59285e-05 0)
(0 1.43189e-05 0)
(0 3.23971e-08 0)
(0 1.93941e-05 0)
(0 -7.85245e-07 0)
(0 0.000109388 0)
(0 -1.13334e-06 0)
(0 1.91441e-05 0)
(0 4.9419e-06 0)
(0 3.57622e-06 0)
(0 0.000107374 0)
(0 6.40076e-05 0)
(0 1.97726e-05 0)
(0 -4.07315e-07 0)
(0 0.000113668 0)
(0 3.7155e-05 0)
(0 2.71572e-06 0)
(0 3.26048e-05 0)
(0 8.15497e-05 0)
(0 3.72738e-05 0)
(0 4.86101e-05 0)
(0 2.22361e-05 0)
(0 1.56703e-05 0)
(0 4.98684e-05 0)
(0 7.95252e-05 0)
(0 0.000111681 0)
(0 1.83999e-05 0)
(0 0.000121297 0)
(0 9.55113e-06 0)
(0 6.99143e-06 0)
(0 2.20377e-06 0)
(0 1.49429e-06 0)
(0 4.96247e-05 0)
(0 5.26323e-06 0)
(0 3.95301e-05 0)
(0 -1.66566e-06 0)
(0 0.000106304 0)
(0 3.72215e-05 0)
(0 4.8425e-05 0)
(0 2.97331e-06 0)
(0 3.89308e-05 0)
(0 5.29456e-05 0)
(0 7.99115e-06 0)
(0 9.79196e-06 0)
(0 0.000108596 0)
(0 9.60466e-05 0)
(0 0.00010047 0)
(0 3.1211e-06 0)
(0 1.23591e-05 0)
(0 -1.47218e-06 0)
(0 1.69718e-05 0)
(0 2.62905e-05 0)
(0 6.85608e-05 0)
(0 8.76652e-05 0)
(0 2.29968e-05 0)
(0 6.21865e-05 0)
(0 2.21133e-05 0)
(0 6.45055e-05 0)
(0 8.65487e-05 0)
(0 3.94672e-05 0)
(0 4.72448e-05 0)
(0 7.35914e-06 0)
(0 2.23389e-05 0)
(0 -1.69212e-06 0)
(0 9.24304e-05 0)
(0 1.00362e-05 0)
(0 0.000130766 0)
(0 8.89417e-05 0)
(0 8.22111e-05 0)
(0 0.000133016 0)
(0 1.54534e-05 0)
(0 0.000100658 0)
(0 -1.50488e-06 0)
(0 1.0672e-05 0)
(0 2.13292e-06 0)
(0 8.10286e-06 0)
(0 0.0001318 0)
(0 6.3257e-05 0)
(0 0.000126402 0)
(0 3.47524e-05 0)
(0 5.80586e-05 0)
(0 5.51459e-05 0)
(0 2.67266e-05 0)
(0 -1.43951e-06 0)
(0 5.36519e-05 0)
(0 4.05219e-05 0)
(0 1.75877e-05 0)
(0 7.64634e-05 0)
(0 5.35835e-06 0)
(0 3.57059e-05 0)
(0 5.95674e-05 0)
(0 3.71944e-05 0)
(0 -8.72545e-07 0)
(0 5.7288e-05 0)
(0 6.32822e-05 0)
(0 0.000112915 0)
(0 8.55447e-05 0)
(0 0.000117485 0)
(0 1.36032e-05 0)
(0 4.53118e-06 0)
(0 9.20151e-05 0)
(0 8.95598e-06 0)
(0 6.1559e-05 0)
(0 3.72453e-05 0)
(0 4.63806e-07 0)
(0 7.8775e-05 0)
(0 1.69922e-05 0)
(0 7.79668e-06 0)
(0 5.77239e-05 0)
(0 6.09323e-05 0)
(0 -5.23511e-07 0)
(0 6.86229e-06 0)
(0 0.000127496 0)
(0 5.48381e-05 0)
(0 4.29529e-06 0)
(0 3.59005e-05 0)
(0 7.2265e-06 0)
(0 1.92799e-05 0)
(0 1.14657e-05 0)
(0 1.60391e-05 0)
(0 6.5752e-05 0)
(0 5.01412e-05 0)
(0 6.97048e-06 0)
(0 0.00012506 0)
(0 -1.08514e-06 0)
(0 5.18669e-06 0)
(0 2.41322e-05 0)
(0 1.06161e-05 0)
(0 0.000124096 0)
(0 -7.79871e-07 0)
(0 0.000126599 0)
(0 0.000122672 0)
(0 1.56294e-05 0)
(0 -2.4406e-07 0)
(0 8.65906e-05 0)
(0 1.52161e-05 0)
(0 6.82061e-05 0)
(0 1.53478e-05 0)
(0 9.61557e-06 0)
(0 1.57513e-05 0)
(0 6.21333e-05 0)
(0 1.38372e-05 0)
(0 7.61043e-05 0)
(0 8.76326e-05 0)
(0 5.0282e-05 0)
(0 3.50824e-05 0)
(0 2.21742e-05 0)
(0 4.75069e-05 0)
(0 6.62685e-05 0)
(0 3.31075e-05 0)
(0 5.47669e-05 0)
(0 0.000125241 0)
(0 0.000108328 0)
(0 4.50295e-05 0)
(0 4.00926e-05 0)
(0 1.55075e-05 0)
(0 5.60975e-05 0)
(0 6.78371e-05 0)
(0 8.37779e-05 0)
(0 7.2831e-05 0)
(0 4.14466e-05 0)
(0 0.000111541 0)
(0 2.1653e-06 0)
(0 5.59586e-06 0)
(0 5.20691e-05 0)
(0 3.47581e-06 0)
(0 0.000108004 0)
(0 7.53785e-05 0)
(0 0.000114834 0)
(0 7.28192e-05 0)
(0 2.12111e-05 0)
(0 5.18971e-05 0)
(0 0.000126822 0)
(0 0.000124932 0)
(0 2.74312e-05 0)
(0 9.31203e-05 0)
(0 6.6624e-05 0)
(0 6.24491e-05 0)
(0 9.44318e-05 0)
(0 5.76146e-05 0)
(0 1.13411e-05 0)
(0 9.26185e-05 0)
(0 1.99172e-05 0)
(0 2.15415e-06 0)
(0 6.70869e-06 0)
(0 7.37867e-05 0)
(0 2.109e-05 0)
(0 1.19232e-05 0)
(0 0.000124734 0)
(0 1.5414e-05 0)
(0 2.90344e-06 0)
(0 -1.03961e-06 0)
(0 4.28491e-05 0)
(0 7.86163e-06 0)
(0 0.000127089 0)
(0 5.12374e-05 0)
(0 2.68173e-05 0)
(0 7.45633e-05 0)
(0 8.76627e-06 0)
(0 3.12985e-05 0)
(0 0.000124327 0)
(0 1.41233e-05 0)
(0 3.20662e-05 0)
(0 0.000112664 0)
(0 -7.67736e-07 0)
(0 0.000120009 0)
(0 1.46216e-05 0)
(0 5.38474e-05 0)
(0 4.65659e-05 0)
(0 2.11776e-05 0)
(0 1.82002e-05 0)
(0 1.84627e-05 0)
(0 9.6342e-05 0)
(0 0.000102679 0)
(0 8.02354e-05 0)
(0 0.000122663 0)
(0 9.01759e-05 0)
(0 0.000126416 0)
(0 3.96075e-05 0)
(0 -1.78511e-08 0)
(0 6.744e-05 0)
(0 4.29339e-06 0)
(0 6.92697e-06 0)
(0 5.34076e-05 0)
(0 9.13217e-05 0)
(0 5.5685e-05 0)
(0 6.40268e-05 0)
(0 9.6457e-06 0)
(0 3.23482e-05 0)
(0 7.49745e-05 0)
(0 7.10803e-05 0)
(0 2.54515e-05 0)
(0 7.28803e-09 0)
(0 4.25036e-05 0)
(0 6.39765e-07 0)
(0 1.58884e-05 0)
(0 1.14865e-05 0)
(0 9.29932e-06 0)
(0 0.000107302 0)
(0 1.93133e-05 0)
(0 7.64859e-06 0)
(0 6.48848e-05 0)
(0 4.63495e-05 0)
(0 -6.58183e-07 0)
(0 0.000125657 0)
(0 2.78666e-05 0)
(0 0.00012175 0)
(0 7.11423e-06 0)
(0 7.18103e-05 0)
(0 8.4227e-05 0)
(0 1.61852e-05 0)
(0 9.21568e-06 0)
(0 5.79948e-05 0)
(0 4.11932e-05 0)
(0 9.3038e-05 0)
(0 0.000120854 0)
(0 2.46728e-05 0)
(0 2.42564e-05 0)
(0 3.61528e-05 0)
(0 0.000127364 0)
(0 4.7647e-05 0)
(0 3.35514e-05 0)
(0 6.92925e-05 0)
(0 7.28621e-06 0)
(0 -1.48461e-06 0)
(0 3.89906e-06 0)
(0 4.71961e-06 0)
(0 4.58981e-06 0)
(0 2.65871e-06 0)
(0 0.000111528 0)
(0 0.000135559 0)
(0 9.76798e-05 0)
(0 7.21575e-05 0)
(0 2.67183e-05 0)
(0 -1.13046e-06 0)
(0 2.17299e-05 0)
(0 0.000132359 0)
(0 3.05062e-06 0)
(0 5.00086e-05 0)
(0 4.26339e-05 0)
(0 -1.64597e-07 0)
(0 2.56779e-05 0)
(0 2.39631e-06 0)
(0 6.56458e-06 0)
(0 -1.18074e-06 0)
(0 5.87826e-05 0)
(0 6.51326e-05 0)
(0 5.92328e-05 0)
(0 0.000127638 0)
(0 7.95881e-06 0)
(0 3.55328e-06 0)
(0 2.57053e-05 0)
(0 5.90797e-05 0)
(0 1.16144e-05 0)
(0 6.54579e-05 0)
(0 3.84698e-05 0)
(0 1.63542e-05 0)