/*--------------------------------*- C++ -*----------------------------------*\
| =========                 |                                                 |
| \\      /  F ield         | OpenFOAM: The Open Source CFD Toolbox           |
|  \\    /   O peration     | Version:  v2012                                 |
|   \\  /    A nd           | Website:  www.openfoam.com                      |
|    \\/     M anipulation  |                                                 |
\*---------------------------------------------------------------------------*/
FoamFile
{
    version     2.0;
    format      ascii;
    class       volVectorField;
    location    "700";
    object      U;
}
// * * * * * * * * * * * * * * * * * * * * * * * * * * * * * * * * * * * * * //

dimensions      [0 1 -1 0 0 0 0];


internalField   nonuniform List<vector> 
18355
(
(1.09743 0.0799726 -1.07271e-20)
(0.10821 -0.0289623 -1.47933e-20)
(1.00395 0.0217753 -3.78496e-21)
(1.01473 0.00485341 0)
(1.04252 -0.00425932 6.39131e-21)
(1.13583 -0.0775151 7.88605e-21)
(1.00386 0.00699468 0)
(1.15659 0.0210516 -2.84359e-20)
(0.939436 -0.00756598 0)
(-0.0119162 -0.018246 -8.45861e-20)
(1.02165 0.000595809 5.3639e-21)
(-0.223369 -0.00646953 0)
(1.19565 0.0169624 7.45709e-20)
(0.987437 0.00557475 -1.96922e-21)
(1.02542 0.0337051 1.4707e-21)
(0.98802 0.0690941 -7.55806e-21)
(-0.258691 0.011882 -1.02183e-19)
(1.01518 0.00981878 2.87615e-21)
(1.00507 0.0349048 1.09571e-21)
(0.723875 -0.17683 2.51085e-20)
(0.968954 0.0863924 -5.73251e-21)
(0.975412 0.0334478 1.39665e-20)
(0.102382 -0.0191282 0)
(1.04183 -0.00460018 0)
(1.04976 -0.0191203 0)
(0.999347 0.0037448 0)
(0.996245 -0.000519339 -4.70912e-21)
(0.943283 0.00526037 2.60188e-20)
(0.0489619 0.166152 0)
(0.993868 0.024225 -1.01359e-20)
(1.03544 -0.00499568 0)
(1.04835 -0.00838913 1.69048e-20)
(1.01497 0.00940126 0)
(1.00976 0.000532357 -2.24271e-21)
(1.13516 0.126982 -2.79709e-20)
(1.10138 0.0799447 6.64094e-21)
(0.955667 -0.00394934 6.40609e-23)
(1.18333 0.260334 -1.69962e-20)
(0.944993 0.00647761 -3.52847e-20)
(1.02219 0.00111374 0)
(0.986822 0.00543846 -1.2911e-21)
(0.947189 0.318391 0)
(1.00388 0.0223959 4.35703e-21)
(-0.09469 -0.00880325 0)
(1.01469 -1.19789e-05 -2.51271e-21)
(1.19355 0.259389 -6.91783e-21)
(1.14563 0.0726147 6.5807e-20)
(0.935701 0.0249684 1.30097e-20)
(1.13332 0.0738364 2.11004e-20)
(1.0147 0.0108088 -1.22469e-21)
(1.01925 0.00269152 0)
(1.01656 0.0212105 9.37944e-22)
(0.999994 0.000653353 7.63096e-21)
(0.292259 -0.0746592 8.1395e-20)
(1.00047 0.00559351 -1.80096e-21)
(1.00181 0.000284253 -8.85988e-23)
(1.05739 -0.140413 0)
(1.02526 0.0345848 -1.6209e-21)
(0.116493 0.462772 3.35111e-20)
(1.21694 0.13176 0)
(1.0143 0.0108897 -1.74231e-22)
(1.1442 -0.0350823 -2.41646e-20)
(1.01614 0.00911515 -2.5267e-21)
(1.01872 0.192383 0)
(-0.20702 -0.00886902 0)
(1.09517 0.0764187 2.01966e-20)
(0.061592 0.169838 0)
(0.857784 0.0539862 4.10487e-20)
(0.996529 -0.000451627 0)
(0.977027 0.0336664 -4.16412e-21)
(1.15862 0.0982101 -1.89022e-20)
(1.00008 0.000500162 1.55153e-22)
(1.22236 0.13535 0)
(1.01136 0.0109274 -2.15032e-21)
(1.15628 0.0247704 0)
(1.00402 0.00724616 -3.45133e-22)
(0.688613 -0.118969 2.27571e-20)
(1.04932 -0.00600862 0)
(1.0584 -0.0258622 -9.81215e-21)
(1.01595 0.0185466 -7.70952e-22)
(1.00357 0.00682227 -1.0961e-21)
(1.24978 0.345707 -2.13872e-20)
(0.970892 0.0840887 0)
(1.06619 0.180009 0)
(0.999224 0.00382842 0)
(1.19237 0.0177675 3.45664e-20)
(0.350078 -0.0267758 -1.11264e-20)
(0.737894 -0.18254 6.82425e-20)
(0.0324752 0.181268 0)
(0.250163 -0.0535875 -2.8395e-20)
(1.2381 -0.0965774 -1.0927e-20)
(1.01485 -4.19774e-05 2.89132e-21)
(1.00001 0.00507815 0)
(1.01848 0.0005345 0)
(-0.00600523 0.177069 0)
(0.0685718 -0.0166476 0)
(1.02497 0.0151902 7.32582e-21)
(1.07022 -0.00274797 3.80549e-20)
(0.248956 -0.0689044 -2.76426e-20)
(-0.194761 0.0149963 1.69341e-19)
(0.000197589 0.261396 0)
(-0.217242 0.011763 -8.36029e-20)
(1.0987 0.13555 -1.18817e-20)
(1.13538 -0.108267 -6.5527e-20)
(1.0418 -0.00870273 6.50503e-21)
(1.18313 -0.0485288 -6.45824e-20)
(-0.278624 -0.00277916 0)
(1.13053 0.300584 6.20043e-20)
(1.10241 0.0227482 -4.0771e-20)
(0.483827 -0.30598 -1.29538e-19)
(0.998303 0.0235105 -4.17636e-21)
(0.951458 0.0171387 -8.81139e-21)
(0.999082 0.00317643 -1.4184e-21)
(0.949203 0.0164672 0)
(0.304023 -0.0794748 2.16744e-20)
(1.00288 0.000797506 2.28928e-22)
(0.068767 -0.296889 9.83262e-20)
(0.686012 -0.123076 -2.33079e-20)
(0.0756737 0.354235 2.19882e-19)
(1.09458 0.140256 1.28201e-20)
(-0.00424038 -0.0205244 8.08643e-20)
(1.34522 0.102673 0)
(1.04848 -0.00647142 -4.67401e-21)
(1.15835 0.101504 4.25669e-20)
(1.02433 0.0152917 -6.95936e-21)
(1.13168 0.311851 0)
(1.01691 0.0206241 -1.55503e-21)
(1.00002 0.00115692 -3.68552e-21)
(1.38681 0.23033 -6.34679e-20)
(1.01824 0.000613726 1.75538e-21)
(1.01924 0.00293443 2.4606e-21)
(1.1455 -0.0414808 3.90778e-20)
(1.13031 -0.0112436 1.21893e-20)
(1.06882 -0.00349133 -4.32645e-20)
(0.91613 0.188279 0)
(1.00003 0.00131044 2.90906e-21)
(1.02201 0.0267804 4.35843e-21)
(1.02169 0.000358581 3.26005e-21)
(0.99201 0.0146382 0)
(1.16093 0.167441 -4.7136e-20)
(-0.00205451 0.252625 0)
(-0.0354943 0.199207 1.14801e-20)
(0.998902 0.0463359 5.83546e-22)
(0.997873 0.0227927 -5.14917e-21)
(0.379528 0.0331362 0)
(0.97544 0.0300444 -1.4712e-20)
(0.910162 0.00284286 2.13237e-20)
(0.334226 -0.00164921 -4.06464e-20)
(1.06032 0.00883843 7.61115e-21)
(0.312058 0.0109446 6.09263e-20)
(1.04249 0.00117854 -6.38348e-21)
(0.97483 0.031137 -1.06591e-20)
(1.13027 0.12519 2.03236e-20)
(0.109642 0.415504 -2.57266e-19)
(1.09689 -0.100524 -5.45257e-21)
(1.00004 0.000543249 2.81462e-21)
(1.16621 -0.0435112 4.24193e-20)
(0.0842527 0.321943 -1.89585e-19)
(1.00005 0.000552708 0)
(1.15182 -0.0337492 0)
(1.01258 0.102177 9.41138e-22)
(1.05048 0.0606805 0)
(0.908924 0.0932728 -1.34713e-20)
(1.06964 -0.00570705 2.15019e-20)
(1.11318 -0.182386 2.34206e-20)
(0.506823 0.681227 1.99902e-20)
(0.204438 0.0479821 0)
(1.12378 0.0852974 0)
(1.2359 0.0139004 0)
(1.01344 0.0106746 6.59669e-22)
(-0.0798924 0.0167699 0)
(0.0303096 -0.0132282 0)
(1.02062 0.00119624 0)
(1.02139 0.00117098 5.76364e-21)
(0.990733 0.0683763 -2.92002e-21)
(0.168971 -0.0207632 0)
(1.06114 -0.082208 -1.13806e-20)
(1.00036 0.00519658 4.65973e-22)
(1.37175 0.227277 0)
(0.436593 0.205762 -1.09205e-19)
(0.665726 -0.112684 -7.65947e-22)
(1.23549 0.0111742 -1.16334e-19)
(1.08305 0.00495489 0)
(1.00533 0.00662935 -5.72359e-22)
(1.15345 -0.174345 -3.42887e-20)
(0.203262 -0.0249536 0)
(0.21121 -0.0386966 1.30913e-20)
(1.22251 -0.0783492 7.85204e-20)
(0.938666 0.005157 2.24216e-20)
(-0.277941 0.00981653 0)
(1.05433 -0.137203 0)
(1.00437 0.0237216 -1.44215e-21)
(1.06841 -0.0064011 -2.05644e-20)
(1.08409 -0.124521 3.23788e-22)
(0.895352 0.210279 0)
(0.97751 0.0364416 7.1515e-21)
(1.27198 0.00745843 1.52472e-23)
(1.08161 0.00377718 -6.81363e-21)
(1.11028 -0.0131254 2.22682e-20)
(1.02113 0.00135709 -5.09007e-21)
(1.05275 0.0155028 5.50722e-21)
(0.942667 0.0446339 1.15833e-20)
(0.13963 0.0674027 0)
(0.170821 -0.0337223 3.37615e-20)
(-0.276364 -0.000200244 0)
(0.998085 0.113735 0)
(0.0851337 -0.265001 8.56588e-20)
(-0.0610741 -0.0112645 0)
(-0.0266471 -0.0227248 4.93865e-20)
(1.10806 -0.014882 -2.57714e-20)
(1.02144 0.0276612 0)
(1.04178 0.00162779 7.34437e-21)
(0.694606 -0.171098 2.49764e-20)
(0.999203 0.0447267 0)
(1.01302 0.0104624 0)
(1.249 0.334426 7.62741e-20)
(1.08117 -0.26137 1.7763e-20)
(0.681826 -0.16478 -2.73382e-20)
(0.999142 0.00304359 -4.01495e-21)
(1.05909 0.00933371 -9.87939e-21)
(1.27899 0.22861 1.12732e-19)
(0.993566 0.0158623 -2.37808e-21)
(1.06036 0.177198 7.85298e-21)
(1.02197 0.0261147 -2.64394e-23)
(0.107074 0.0404661 0)
(0.985273 0.0349825 2.6514e-21)
(-0.10752 -0.00353674 1.82086e-19)
(0.256568 -0.0253539 0)
(0.547898 0.00795975 1.11569e-19)
(1.02055 0.0276573 0)
(1.00001 0.000818437 -4.02349e-21)
(1.05725 -0.0246575 -9.05092e-21)
(1.0323 0.0893204 5.11712e-21)
(-0.0775085 -0.00210172 -2.00605e-19)
(1.01581 0.0549542 0)
(0.999499 0.00412396 -4.78919e-21)
(1.00029 0.00503915 5.44825e-22)
(1.16305 0.309109 3.385e-20)
(1.25627 -0.144657 -5.08544e-20)
(-0.201637 0.00451629 -6.67043e-20)
(1.09969 0.0223986 -1.98892e-20)
(1.23714 0.021577 4.13444e-20)
(1.03567 -0.0060793 -2.6563e-21)
(1.01258 0.0110646 1.5393e-21)
(0.982314 0.0354135 -2.71606e-21)
(0.229143 -0.0149839 -8.14674e-21)
(1.31623 0.0833717 -2.5454e-20)
(0.0664585 -0.100565 0)
(1.09292 -0.0993403 4.91155e-21)
(1.01447 0.0989101 -2.74572e-22)
(1.05239 0.0165301 -5.58125e-21)
(0.211393 0.83246 -1.25977e-20)
(1.08301 0.00123816 -2.40779e-22)
(0.00306834 -0.022931 0)
(0.990443 0.0344512 0)
(-0.212354 0.00628988 -1.22441e-19)
(1.00596 -0.263902 0)
(1.15355 -0.0302432 0)
(0.999365 0.0279509 -1.18017e-21)
(1.00594 0.000405204 0)
(1.09123 0.0767805 2.01425e-20)
(1.16798 0.0946865 -4.67712e-20)
(0.271556 0.107185 -6.40635e-21)
(1.13351 -0.0112712 -1.27436e-20)
(1.00822 0.00635565 -6.46946e-22)
(1.01251 0.00964746 1.01591e-21)
(0.99999 0.000937812 4.11854e-21)
(1.24002 0.0152827 5.31014e-20)
(1.09052 0.259209 -2.39953e-21)
(0.587189 -0.0386674 -3.33025e-19)
(0.983274 0.0521025 0)
(0.224864 0.0602362 -2.68387e-20)
(1.22713 -0.0787195 9.74997e-20)
(1.18091 -0.0453515 6.28809e-20)
(1.03765 0.0276591 -1.01861e-20)
(1.27655 0.00934851 -3.67239e-20)
(1.01652 0.0192573 -8.8145e-22)
(0.995937 0.00967746 3.72235e-21)
(1.09432 0.835586 0)
(1.00872 0.000639015 0)
(1.00403 0.00754987 3.66622e-22)
(1.18516 -0.0392008 -6.92613e-20)
(1.00316 0.0162374 4.43884e-21)
(-0.0225194 0.205118 -2.59837e-20)
(1.08182 0.000104619 0)
(0.926637 0.0155839 0)
(1.00839 0.000631258 0)
(1.12282 0.0890162 9.79204e-21)
(-0.215063 -0.00746634 0)
(1.04906 -0.00772158 -5.49766e-21)
(1.01432 0.00466199 0)
(0.989445 0.000199913 -1.17573e-20)
(1.18235 -0.0824149 1.39938e-20)
(0.139984 -0.0468572 -5.7041e-20)
(0.999989 0.000995153 -6.25039e-21)
(1.00002 5.16073e-05 -2.50777e-21)
(1.05827 -0.260395 4.65749e-20)
(1.10881 0.135224 2.31957e-20)
(1.08765 -0.10366 4.04736e-20)
(0.638653 0.402271 0)
(0.996156 0.00922726 1.08287e-20)
(1.16337 0.0935864 -2.19083e-20)
(0.964231 0.0280899 0)
(1.00003 9.04338e-05 2.50154e-21)
(0.637521 0.371945 3.11245e-20)
(1.11649 -0.186593 2.81054e-20)
(1.06709 -0.224003 4.28956e-20)
(1.18504 -0.0856734 0)
(1.01828 0.000919505 0)
(0.647033 -0.111036 -5.7788e-20)
(1.04017 -0.00883075 0)
(1.00395 0.0343976 1.17776e-21)
(1.34681 0.0922284 0)
(1.00043 0.0212464 1.60707e-22)
(1.24081 0.0185688 1.01455e-19)
(0.932707 0.314361 -5.09426e-21)
(1.00003 0.00528626 0)
(1.01655 0.00321792 1.80352e-21)
(1.23826 0.0250461 -2.73852e-20)
(0.155292 0.0166579 -4.01286e-22)
(-0.0223831 -0.014261 -1.2898e-19)
(1.01815 0.0388939 4.60397e-21)
(0.913173 0.0894547 0)
(-0.110139 -0.0068861 0)
(1.02871 0.00148369 5.58589e-21)
(1.25685 -0.139235 0)
(1.05341 -0.0260998 1.17257e-20)
(0.962807 0.1437 0)
(1.25266 -0.133607 0)
(1.018 0.000995302 5.41765e-23)
(0.504653 0.737954 0)
(1.0021 0.0325631 0)
(0.91246 0.19933 0)
(1.00113 0.000292158 0)
(1.08914 -0.101095 -3.84318e-20)
(-0.2174 -0.00491647 0)
(0.999944 0.000320601 0)
(0.155887 0.110727 1.3927e-19)
(1.11376 0.0229747 -6.83305e-21)
(0.995163 0.00236414 1.01194e-20)
(1.14165 0.0743114 -4.77269e-20)
(1.14476 -0.0387975 -1.32043e-20)
(1.07812 -0.095368 -3.72354e-20)
(0.339294 -0.0874434 -4.19086e-20)
(1.14386 -0.12432 -3.27113e-20)
(0.990746 0.0335842 -2.33308e-21)
(1.01593 0.00879242 -1.25719e-21)
(0.0614251 -0.0130729 6.44067e-20)
(0.69907 -0.072193 0)
(0.999775 0.00483718 9.42814e-21)
(1.01267 0.0512679 -7.59005e-22)
(1.06618 -0.229555 2.61255e-20)
(1.14976 -0.176675 -2.0381e-20)
(0.267416 0.73303 0)
(0.0941491 -0.0169488 -7.40428e-20)
(0.998014 0.00368901 8.84012e-21)
(1.05887 0.0185606 -3.35563e-21)
(0.0464044 -0.154387 2.09917e-21)
(0.999 0.0235556 3.66854e-21)
(1.0153 0.0532386 6.64786e-22)
(1.23863 -0.0617913 6.67391e-20)
(1.10674 -0.0197628 -3.74603e-20)
(1.05975 -0.00227981 1.38639e-20)
(0.196127 0.0233904 -2.37664e-20)
(1.00001 0.000723258 9.18912e-24)
(0.830381 0.167585 -7.01267e-20)
(1.28282 0.233901 -4.40641e-20)
(-0.209587 -0.000500548 8.33521e-20)
(1.01421 0.00436374 -1.29985e-21)
(0.986049 0.0220922 2.67885e-21)
(0.993473 0.0121921 1.03786e-20)
(1.02284 0.0164891 8.83899e-23)
(0.83512 0.257694 2.51785e-20)
(1.02339 0.0163576 9.15047e-21)
(1.11364 0.0960573 1.80136e-20)
(0.99381 0.0118342 -2.59381e-21)
(1.03547 0.069963 -6.93594e-21)
(0.998037 0.00352992 -1.06574e-20)
(0.941129 -0.00557522 0)
(1.03191 0.00978464 0)
(1.01004 0.0351773 -8.11499e-22)
(1.03048 0.0109245 5.48298e-21)
(1.03047 0.0105458 -7.58229e-22)
(0.998209 0.0650893 -5.76518e-21)
(0.563999 0.118865 9.38277e-20)
(-0.0615976 0.123075 0)
(1.02308 0.0259199 0)
(0.948993 -0.102696 8.05636e-20)
(0.948891 0.156196 -3.63188e-21)
(-0.0676638 0.121824 -3.38602e-21)
(1.09799 -0.00390316 4.85955e-20)
(1.17872 0.0529838 -1.40906e-21)
(0.980828 0.0361533 -7.96232e-21)
(1.01772 -0.0867812 -3.64554e-20)
(0.95765 -0.00383532 -6.41439e-23)
(1.00273 0.000656923 2.69463e-22)
(0.99939 0.00422178 5.62225e-21)
(1.01659 0.00480625 3.87452e-21)
(0.291083 -0.077493 -2.77586e-20)
(1.05948 0.0422682 -1.49635e-20)
(1.01507 -4.66234e-05 1.40077e-23)
(1.13031 0.0181485 -9.25662e-20)
(1.10948 0.0955152 0)
(0.999289 0.0243553 0)
(1.02862 0.0010315 -6.62193e-21)
(-0.0428652 0.000358067 0)
(0.977919 0.0348642 0)
(1.01627 0.0197681 0)
(0.13668 -0.655588 0)
(1.00356 0.0149941 2.99881e-21)
(0.0547121 -0.0724345 0)
(-0.264271 0.00735724 0)
(1.23738 -0.0651982 5.91044e-20)
(0.913691 0.00121601 -4.56943e-20)
(1.04109 -0.00917901 6.01015e-21)
(-0.186123 -0.00982404 1.137e-19)
(1.00012 0.000617372 -1.3019e-21)
(0.998813 0.0161629 0)
(0.20288 0.667599 0)
(1.00003 0.000759532 -4.56198e-21)
(1.02037 0.00142304 3.14246e-21)
(-0.274513 0.00968156 -9.60979e-20)
(1.01174 0.0108053 7.61171e-22)
(-0.203435 -0.00591895 0)
(1.08472 -0.0534398 0)
(1.06892 -0.089257 -3.1258e-20)
(-0.246692 0.0114996 -8.69642e-20)
(0.9641 0.0240806 2.22679e-20)
(0.999132 0.0157619 0)
(0.765548 -0.139423 -1.04098e-19)
(1.13181 -0.0784808 4.24062e-20)
(-0.0801345 0.0130912 0)
(1.13584 -0.104813 0)
(0.994006 0.0106949 -1.38445e-21)
(1.00504 0.00656115 6.77194e-22)
(0.974307 0.0282271 -1.61119e-20)
(1.06726 -0.233273 0)
(0.954034 0.203053 3.47124e-21)
(1.00512 0.0361097 -2.60165e-21)
(1 0.000509776 4.80275e-22)
(0.997751 0.0436316 3.92649e-22)
(0.822795 0.176502 4.52588e-20)
(0.0650625 -0.173361 0)
(0.991187 0.104686 8.23795e-21)
(0.975156 0.0268807 2.79166e-22)
(1.00002 0.000743174 -4.65673e-21)
(1.09672 -0.00188183 -2.97558e-20)
(1.24334 -0.106164 -5.01622e-20)
(0.15942 -0.0512043 5.37703e-20)
(-0.208208 0.00584977 5.97347e-20)
(0.93819 -0.0556009 0)
(0.771925 0.139314 6.02644e-20)
(0.845854 0.184588 -3.6363e-20)
(-0.0679016 -0.01208 6.2285e-21)
(1.03822 0.00119097 0)
(1.00847 0.00896557 1.30179e-22)
(0.989669 -0.000330475 8.56345e-21)
(1.02306 0.0249743 2.06915e-21)
(0.819977 0.243995 2.93588e-20)
(0.996354 0.00743774 4.27867e-21)
(1.01501 -7.05788e-05 1.78634e-21)
(-0.213015 0.011781 -1.25967e-19)
(0.811611 0.174947 0)
(1.1376 0.0715262 2.24144e-20)
(0.293404 -0.0601965 9.91286e-20)
(0.759798 0.142438 0)
(0.176978 -0.0153874 0)
(1.01217 0.0257233 3.79262e-22)
(1.03112 0.00974859 -6.01815e-21)
(0.995045 0.0219031 -2.2713e-22)
(1.00343 0.00641615 1.77452e-21)
(1.00001 0.000353182 -1.00366e-21)
(1.00002 0.000607211 -6.51734e-23)
(0.995992 0.00868512 -6.19251e-21)
(-0.0383188 0.181545 0)
(1.0194 0.0387402 -2.85578e-21)
(1.01793 0.00197511 -7.48685e-21)
(1.32358 0.0994179 0)
(1.2199 0.117202 4.52035e-20)
(1.00816 0.0089943 -4.06675e-22)
(1.04902 -0.00211962 -1.14365e-21)
(0.929801 0.255219 0)
(1.03387 0.846259 7.90038e-20)
(0.990987 0.0657012 6.04816e-21)
(1.02614 0.0140484 0)
(1.06764 -0.0982344 0)
(0.945505 0.0432651 1.03703e-20)
(0.233355 0.0815922 -4.40838e-20)
(1.05276 -0.027282 -1.29691e-20)
(1.02294 0.0173624 -3.6587e-21)
(-0.185518 0.00187119 9.36752e-20)
(1.22188 0.113787 0)
(1.01412 0.00798135 0)
(0.0384091 -0.024245 5.30173e-21)
(-0.019371 0.229699 5.44971e-20)
(-0.00731263 0.0232814 1.1148e-19)
(1.02233 0.0175139 0)
(1.02572 0.0135622 -5.3223e-21)
(1.02978 0.0868554 -1.06397e-21)
(1.17446 -0.0896181 0)
(0.964332 0.0167739 1.35853e-20)
(0.253684 0.0557911 -2.69808e-21)
(1.10281 -0.236399 0)
(1.00166 -0.101701 -7.38844e-20)
(1.33227 0.163556 0)
(1.0168 0.00460025 0)
(1.08209 -0.053509 0)
(0.22413 -0.0449934 0)
(0.0652636 -0.0157395 0)
(0.527986 -0.128633 0)
(0.978337 0.0250188 0)
(0.983614 0.099577 5.07923e-21)
(1.00794 0.101479 -4.90754e-22)
(-0.035517 -0.0130975 0)
(-0.216691 0.0106919 0)
(1.24557 -0.0956094 2.52666e-20)
(0.986644 0.0356271 2.66797e-21)
(0.992535 0.0142811 1.21708e-21)
(0.998189 0.00211485 1.97941e-21)
(0.949583 0.207549 -4.43725e-21)
(0.996218 0.00827814 -1.98665e-21)
(0.834431 -0.149415 4.17478e-22)
(1.00637 0.104205 7.82295e-22)
(0.345075 -0.0892717 -1.00827e-20)
(0.985835 0.0148792 0)
(0.998118 0.0423141 1.06817e-21)
(1.00592 0.000554214 0)
(0.86426 0.0546261 -4.33338e-20)
(1.02995 0.129313 7.91601e-21)
(1.23906 -0.110773 -4.88673e-20)
(1.00248 0.0142691 -2.73695e-21)
(1.16948 -0.0644452 -2.69525e-20)
(0.978258 0.861421 8.48706e-20)
(1.07062 -0.0278532 -3.69616e-21)
(1.00032 0.0279274 3.53168e-21)
(0.941389 0.0374021 -2.1851e-20)
(1.0635 -0.0337491 0)
(1.00003 0.000765765 5.13566e-21)
(1.10378 0.0426115 0)
(1.10909 -0.0180823 3.17186e-20)
(1.07095 -0.0262358 0)
(1.2181 0.156423 0)
(1.01331 0.0527023 1.08661e-21)
(1.01402 0.00756933 -2.47247e-21)
(0.99032 -0.000429134 -3.86322e-21)
(0.999971 0.000257462 0)
(1.11785 0.090121 0)
(1.05879 -0.00324162 -6.53345e-21)
(1.14727 -0.03278 2.62775e-20)
(1.01189 0.024912 -3.25552e-22)
(1.04193 -0.00542248 0)
(-0.0187797 0.0291676 0)
(1.01769 0.00131657 -9.62419e-22)
(0.84888 -0.0266833 1.43391e-20)
(0.960005 0.0176878 0)
(1.19608 0.221364 0)
(0.929572 0.0161293 1.32901e-20)
(0.271637 -0.0741156 2.4767e-20)
(1.04587 0.0233825 0)
(-0.132521 0.00211439 -5.84275e-20)
(0.928413 0.0579196 1.55476e-20)
(0.936246 0.0278589 -3.75551e-22)
(0.99744 -0.258236 0)
(-0.0352079 0.0270031 -3.42788e-22)
(1.06701 0.0689327 5.10514e-20)
(1.06841 -0.0288419 0)
(1.05806 0.0408308 0)
(1.02247 0.0184102 -3.67942e-21)
(0.993664 0.0140244 4.37194e-21)
(1.11331 -0.123743 -1.5371e-20)
(1.13649 0.0848559 2.43356e-20)
(0.973663 0.145227 6.63205e-21)
(1.07611 0.26731 0)
(-0.0331511 0.195739 0)
(1.09605 -0.188675 -2.42542e-20)
(1.00487 0.000524935 -5.43146e-23)
(0.0314314 -0.0163987 9.97599e-20)
(1.07724 -0.0395363 -4.08876e-20)
(1.04901 -0.00407918 -1.86482e-20)
(0.993168 0.0142699 0)
(0.847158 -0.0203703 -1.78637e-20)
(0.207028 -0.0491736 -4.55501e-23)
(1.08931 0.0802315 -2.11623e-20)
(1.00011 0.00213538 -5.35926e-21)
(0.70115 0.0362589 7.23922e-20)
(1.21172 0.157061 0)
(1.13624 0.134403 4.41089e-20)
(0.873609 0.0493289 0)
(0.62745 0.794521 1.93667e-21)
(1.0708 -0.000552648 -2.0073e-20)
(1.18348 -0.0309286 -2.60736e-20)
(0.0204418 -0.0112837 0)
(1.25567 -0.127369 0)
(1.34385 0.0982496 0)
(0.833581 0.214229 -1.95472e-20)
(1.15211 0.306402 -4.68753e-20)
(1.08179 0.00854847 6.78549e-21)
(1.00171 0.000349903 -1.86745e-22)
(1.04967 -0.00470074 1.85972e-20)
(0.99452 0.0234346 9.73428e-21)
(0.407419 0.0203505 9.80994e-20)
(0.472114 -0.247122 0)
(0.191344 -0.0287436 0)
(0.584 0.116376 0)
(-0.164253 -0.0119648 -2.68302e-20)
(-0.0179401 0.122932 -4.44082e-20)
(0.713624 0.0277283 -1.24411e-19)
(0.987442 0.0719442 1.16468e-20)
(0.116674 -0.0203016 0)
(0.726954 0.0455911 -1.57784e-19)
(1.02209 0.000810509 0)
(0.547552 0.0840994 2.71144e-21)
(0.0390617 0.243722 0)
(1.102 -0.00281155 -9.374e-20)
(0.995223 0.106552 -3.05379e-21)
(1.01591 0.00360485 0)
(1.06985 0.00049761 1.89613e-20)
(1.06753 -0.00932226 -4.80454e-21)
(1.06181 -0.0336147 0)
(1.18412 0.00915767 8.4194e-22)
(1.00083 0.0218187 1.52402e-21)
(-0.109234 0.00104313 0)
(0.99596 0.0662117 4.5333e-22)
(0.9703 0.0779454 1.49899e-20)
(-0.0224443 -0.0146143 0)
(1.00996 0.0237627 0)
(1.02786 0.13449 -2.04597e-22)
(0.587256 -0.143431 0)
(0.998903 0.0149977 7.63959e-21)
(1.04294 0.0413163 0)
(0.0142113 -0.0156011 6.41135e-23)
(1.00974 0.00279382 6.2458e-22)
(1.16773 -0.0669519 2.93279e-20)
(1.01799 0.00125609 -6.85942e-23)
(-0.0258861 0.169188 0)
(1.06832 -0.0302889 0)
(1.09468 -0.0418839 -1.98517e-20)
(0.968123 0.147761 -7.89482e-21)
(1.05464 0.0669009 1.5347e-20)
(1.17366 -0.0858665 0)
(0.920443 -0.00137369 -3.09154e-21)
(0.331737 0.0172095 0)
(1.10279 -0.0947894 4.36984e-20)
(1.03563 -0.00245933 0)
(-0.175992 -0.00242138 -5.90499e-20)
(1.09433 -0.0442056 0)
(0.557391 0.80387 4.04417e-21)
(-0.291755 0.00467565 2.03665e-19)
(1.30252 0.101719 -4.52303e-20)
(1.23523 -0.101222 1.19663e-20)
(0.997987 0.0221979 9.11797e-21)
(1.01744 0.0054712 2.10001e-21)
(-0.0193807 0.232759 -7.80894e-20)
(0.939253 0.0391006 0)
(1.10635 0.0415214 6.72263e-21)
(1.00006 0.00163618 0)
(1.08325 0.00754474 7.12471e-21)
(0.97811 -0.0521924 0)
(0.527507 -0.0597032 5.1115e-20)
(1.11717 0.0937825 0)
(-0.167949 -0.00207302 1.10955e-19)
(0.820334 0.230665 2.27585e-21)
(1.01581 0.0673596 -2.11318e-21)
(1.01614 0.00383684 0)
(1.00012 0.00195596 2.56267e-21)
(1.13363 0.0182788 9.98812e-20)
(1.09352 0.252442 -2.03338e-20)
(1.02667 0.00748632 -5.32832e-21)
(1.19 0.0905129 -3.25725e-20)
(0.99894 0.118208 0)
(1.10506 0.137684 1.86151e-20)
(1.0139 7.37253e-05 -2.59133e-21)
(0.00370945 -0.0231927 -8.99159e-20)
(-0.0769521 -0.000816383 6.27856e-20)
(0.99304 0.0240003 -3.41103e-21)
(1.02188 0.00130946 0)
(1.12713 -0.083862 -2.95372e-20)
(1.00006 0.00147571 1.46712e-22)
(1.01456 0.00819554 0)
(-0.0267371 0.105499 0)
(0.548735 0.100803 -5.22213e-20)
(0.96854 0.02581 0)
(0.994124 0.014687 -4.21737e-21)
(1.08982 -0.158462 -3.87801e-21)
(1.13285 0.0777815 -2.42458e-20)
(1.05782 -0.0273999 2.98632e-20)
(0.709846 -0.0620205 0)
(1.01054 0.0342572 3.07479e-22)
(0.240157 -0.0523863 1.18785e-20)
(1.12808 -0.0311984 3.55905e-20)
(0.983825 0.0327438 -2.94142e-21)
(0.433767 0.16267 -1.22155e-19)
(0.0205141 -0.012881 4.35685e-20)
(1.00373 0.00799239 1.60097e-21)
(0.58886 -0.063651 -1.27463e-19)
(1.01499 0.004755 3.15968e-21)
(0.999181 0.0146879 -7.43925e-21)
(0.964278 0.0151732 -9.52695e-21)
(0.826797 0.00055578 6.18729e-20)
(-0.0613542 0.00489968 1.65543e-19)
(1.11182 0.0249196 1.53044e-20)
(0.0357514 -0.0151789 0)
(1.01825 0.138778 -4.1271e-21)
(0.474659 -0.0968885 0)
(1.36364 0.166498 0)
(1.08268 0.0112196 -3.78587e-21)
(-0.177991 -0.0106754 0)
(0.985762 0.0231761 8.51257e-21)
(0.56326 0.0206793 7.48749e-20)
(1.04967 -0.00284015 5.19436e-21)
(0.321611 -0.0142767 1.25412e-20)
(0.114702 -0.0288606 8.14211e-20)
(0.997496 0.0394187 0)
(0.128697 0.575332 1.77481e-19)
(1.02901 0.0813808 -8.75384e-22)
(0.924888 0.0594945 6.01156e-21)
(0.936869 0.0586293 0)
(0.657157 0.0949297 7.50029e-20)
(-0.164275 -0.0114731 -5.58587e-20)
(1.00987 0.00954947 -4.21813e-22)
(0.283159 -0.0748994 -2.39187e-20)
(0.988875 0.0133295 0)
(0.386274 -0.00913023 0)
(1.04037 0.00220996 7.44705e-21)
(1.00231 0.105474 -6.74184e-22)
(1.06443 -0.0318049 2.42417e-20)
(1.01181 0.0130795 0)
(1.01374 0.000613387 0)
(1.11332 -0.0518514 3.82196e-20)
(1.07856 -0.108057 7.51925e-20)
(1.15807 -0.000872661 8.58867e-20)
(1.00482 0.00617282 0)
(0.143633 0.164215 3.95679e-20)
(1.08116 0.01244 3.12534e-21)
(1.01131 0.013019 6.44206e-22)
(0.998027 0.00220574 0)
(0.943729 0.0982201 1.56732e-20)
(1.18951 -0.0696495 0)
(0.803742 0.0435091 -3.48251e-20)
(1.10834 0.0249872 -5.00978e-20)
(1.00909 0.000450407 2.41011e-21)
(1.037 0.0941587 -1.02611e-20)
(0.268361 -0.072406 7.5659e-20)
(0.999314 0.103772 0)
(0.999735 0.021342 -2.9423e-21)
(1.01208 0.0133881 8.95301e-22)
(1.03921 0.0964881 1.36325e-20)
(1.0961 0.0188733 -4.9946e-21)
(-0.131441 -0.00266761 6.77908e-20)
(1.00973 0.0229578 0)
(1.17622 0.457024 -3.37662e-20)
(0.902164 0.217846 -1.2602e-20)
(1.14457 -0.0361081 -1.31555e-20)
(-0.0160446 0.0230627 -1.33917e-19)
(0.0568749 0.189005 2.44019e-20)
(1.01579 0.0027411 -1.71658e-21)
(1.071 -0.0825536 0)
(1.0045 0.023069 1.80851e-21)
(1.02092 0.0427691 2.16018e-21)
(1.08142 -0.00366026 -6.81533e-21)
(0.0448122 0.224722 2.78322e-20)
(1.00785 0.00549916 -4.54385e-22)
(1.02192 0.0185629 -3.46751e-21)
(1.01233 0.000437035 0)
(0.678368 0.0262842 -1.18265e-21)
(0.96045 0.0484466 -1.9083e-20)
(1.03615 -0.0028182 -6.24102e-21)
(1.04999 0.12549 0)
(1.08558 0.080075 0)
(0.255986 -0.0440319 -5.50421e-20)
(-0.262 -0.00400231 7.01423e-20)
(1.00382 0.0112004 1.34546e-21)
(0.987942 0.00671955 8.38886e-21)
(0.214249 -0.0393951 4.39938e-20)
(0.985218 0.0333393 -2.81829e-21)
(-0.00690416 -0.0227473 0)
(0.130586 -0.0363881 0)
(-0.0617283 -0.00625604 9.39937e-20)
(0.666724 0.356398 2.72033e-20)
(0.828219 0.449911 -2.82619e-20)
(1.06875 -0.201791 -5.84988e-20)
(1.06644 -0.0319603 -2.56977e-20)
(0.999271 0.0029934 5.04166e-21)
(1.01214 0.0111805 -5.62962e-23)
(1.0018 0.0337304 8.65688e-22)
(0.970945 0.0240916 -2.07576e-20)
(0.999756 0.00505837 -2.45422e-21)
(0.969374 0.0238895 2.0641e-20)
(0.926393 0.00537433 -1.13683e-19)
(-0.00712086 0.236083 3.77227e-20)
(1.03715 0.0286108 1.26223e-20)
(0.666476 0.186748 -6.71929e-21)
(1.00951 0.00347601 1.22127e-21)
(1.01763 0.0667587 1.99276e-21)
(1.10685 0.1002 -4.1968e-21)
(1.00039 0.00563561 1.89133e-21)
(0.968817 0.0801776 -1.71189e-20)
(1.04391 0.0423415 1.04038e-20)
(0.354179 0.0262574 0)
(0.095355 -0.107302 -6.90962e-20)
(1.1638 0.0869472 8.53304e-20)
(-0.136113 -0.0138718 -4.05408e-20)
(0.838728 0.19264 -1.99994e-20)
(0.0976415 0.15507 -2.11072e-20)
(1.0978 0.264274 0)
(0.648902 -0.155212 2.64357e-20)
(0.0353992 -0.0236781 5.42513e-20)
(1.13059 -0.0290938 -5.05821e-20)
(0.926368 0.791402 -5.28974e-20)
(1.10003 -0.192872 0)
(-0.292062 0.00362298 6.7899e-20)
(1.03343 0.00270942 -3.75188e-21)
(0.993671 0.011126 1.50656e-21)
(1.00342 0.00594773 -4.09168e-23)
(1.06883 -0.0084742 0)
(0.827987 -0.235041 -4.29416e-20)
(1.01294 0.00993748 0)
(0.99995 0.000483267 2.63379e-21)
(1.18216 0.0185788 -5.09854e-20)
(1.00731 0.00307416 3.51255e-22)
(1.01626 0.198416 3.22412e-21)
(1.01405 0.18612 -2.30824e-21)
(1.00025 0.000758329 -1.29196e-21)
(1.09593 -0.211796 0)
(1.03549 -0.00120939 -4.56428e-21)
(0.987361 0.00643575 0)
(1.09327 -0.162419 1.83701e-20)
(1.01572 0.0070137 -1.6643e-21)
(1.23549 0.0740126 5.92923e-20)
(0.4427 -0.250587 0)
(1.00067 0.0374018 -4.28421e-23)
(1.04513 -0.00740259 1.73538e-20)
(1.011 0.0126632 -1.18331e-21)
(0.941015 0.273148 1.05516e-20)
(1.00818 0.00601597 5.93632e-22)
(1.04795 0.0496337 -1.21693e-20)
(1.32793 0.181192 7.15777e-20)
(0.988503 0.000891073 -1.68937e-20)
(0.0701122 -0.0182025 4.68764e-20)
(1.03696 0.024517 0)
(0.0968254 -0.0165639 8.52691e-20)
(1.05552 -0.0130119 -1.01599e-20)
(1.087 -0.13487 2.8271e-20)
(0.999123 0.0128542 -2.05024e-22)
(1.07117 -0.101937 -1.92875e-20)
(1.10241 0.0996518 0)
(0.999339 0.00283469 1.53511e-21)
(1.00149 0.0382484 -2.29199e-21)
(0.0960618 -0.0174111 -3.38249e-20)
(0.993069 0.0154387 0)
(-0.30135 0.0032725 8.73857e-20)
(-0.292829 0.00331788 0)
(0.982165 0.0506433 1.2249e-20)
(1.00125 0.000303074 8.64609e-24)
(1.00056 0.00577571 1.04257e-21)
(1.01885 0.00330503 -4.09637e-21)
(-0.0304433 0.102582 -1.09107e-21)
(0.994728 0.0144148 -4.07317e-21)
(0.133587 -0.0188875 8.01946e-21)
(-0.0115431 0.253607 -3.0641e-20)
(1.10891 0.129558 -2.51489e-20)
(-0.0136819 0.0385311 7.98579e-20)
(1.00952 0.000583138 -5.45037e-22)
(1.00345 0.0205176 -8.41149e-23)
(-0.0148292 -0.0157438 5.24516e-20)
(0.00111599 -0.0198549 -7.86965e-20)
(0.922519 -0.00365079 0)
(1.00037 0.00923462 0)
(0.99574 0.0222702 -5.62475e-21)
(1.01258 0.0106118 -7.93887e-22)
(1.0459 -0.0104799 -4.64647e-21)
(0.865174 0.178309 -3.23467e-21)
(0.352333 0.392489 4.51008e-20)
(1.04996 0.0675778 0)
(0.219092 0.0879032 7.19715e-20)
(0.117988 0.171045 4.19991e-20)
(1.1009 -0.257779 -3.87478e-20)
(0.857137 0.0682157 0)
(1.03331 0.0153207 7.69165e-21)
(-0.199492 -0.00240835 0)
(-0.0739158 0.00651773 -1.52955e-20)
(1.05253 0.12373 4.10634e-21)
(0.999339 0.0125456 1.4562e-21)
(0.97783 0.0226721 0)
(0.0899492 -0.023637 -7.5965e-20)
(0.996111 0.00781253 4.54643e-21)
(-0.0263052 0.160756 -4.12648e-20)
(0.83407 0.246795 -4.75309e-20)
(1.00007 0.000772101 -1.95154e-23)
(0.947672 0.0997293 -1.76548e-20)
(1.01499 5.65773e-05 0)
(1.10646 0.023739 6.67696e-20)
(1.06876 0.0652833 -1.33966e-20)
(1.0071 0.00291742 0)
(1.01716 0.00146939 -1.97585e-21)
(1.04488 -0.0100675 -4.10182e-21)
(-0.12162 -0.00580607 4.92295e-20)
(1.00022 0.00121339 -2.73712e-21)
(1.05817 -0.0844593 -1.21247e-20)
(-0.0352753 -0.0155944 5.95457e-20)
(0.978478 0.0212053 6.97899e-21)
(1.00313 0.0156535 -2.77251e-21)
(0.828447 0.156209 3.12594e-20)
(0.130558 0.144665 2.69138e-20)
(1.09677 0.00260757 0)
(-0.015912 -0.0128917 -5.9382e-20)
(0.958365 -0.0019291 0)
(1.01884 0.00307073 -2.22788e-21)
(0.938984 0.0019257 2.53536e-20)
(0.0937989 -0.0127936 0)
(0.411024 0.177426 -7.77605e-20)
(0.180181 0.113848 1.01059e-19)
(1.00891 0.000418929 0)
(0.867641 0.047732 0)
(1.0032 0.0323013 0)
(-0.0431683 -0.0117634 0)
(1.02304 0.00743611 -1.85692e-23)
(1.10583 -0.210843 0)
(0.857751 0.187703 -2.92308e-20)
(-0.0378783 0.108238 -1.60906e-20)
(1.00041 0.00158893 1.68236e-21)
(1.00467 0.00199591 1.47507e-22)
(0.804261 0.45627 -2.46403e-20)
(0.997683 0.0209897 -4.73001e-21)
(-0.141052 -0.00434881 0)
(1.03769 0.00186383 -2.70908e-21)
(0.184592 0.527334 -1.6376e-19)
(1.00005 0.00066164 1.81239e-21)
(1.01212 0.00979196 9.06623e-22)
(0.932885 0.0248673 0)
(1.15437 0.449123 0)
(-0.205607 0.0143777 -2.09061e-19)
(1.0308 0.0924983 -2.72102e-22)
(1.04683 0.017535 4.0806e-21)
(0.962905 0.0228281 0)
(1.03598 -0.00165455 0)
(1.0268 0.00703081 0)
(0.999978 0.000366123 8.31431e-21)
(1.20202 0.00845389 0)
(1.00505 0.0463582 0)
(0.509615 -0.115144 1.89775e-22)
(1.0116 0.0717479 5.07982e-23)
(-0.0418547 -0.0198655 0)
(1.03486 0.00249859 2.02895e-21)
(1.01873 0.00400277 0)
(1.30768 0.14961 -4.86141e-20)
(0.00150125 -0.0226807 -4.8188e-20)
(0.657733 -0.0654476 -2.5819e-20)
(1.01666 0.0488862 -3.47243e-22)
(0.378173 -0.0343485 -2.19104e-20)
(1.03542 0.00196156 -2.21846e-21)
(0.00777524 0.253643 0)
(0.963293 0.0263315 0)
(1.23303 0.0289286 -1.01405e-19)
(1.01612 0.0179483 0)
(0.0313259 0.0264206 -1.18209e-19)
(1.00509 0.019855 0)
(1.06653 0.0661765 0)