/*--------------------------------*- C++ -*----------------------------------*\
| =========                 |                                                 |
| \\      /  F ield         | OpenFOAM: The Open Source CFD Toolbox           |
|  \\    /   O peration     | Version:  v2012                                 |
|   \\  /    A nd           | Website:  www.openfoam.com                      |
|    \\/     M anipulation  |                                                 |
\*---------------------------------------------------------------------------*/
FoamFile
{
    version     2.0;
    format      ascii;
    class       volScalarField;
    location    "600";
    object      p;
}
// * * * * * * * * * * * * * * * * * * * * * * * * * * * * * * * * * * * * * //

dimensions      [0 2 -2 0 0 0 0];


internalField   nonuniform List<scalar> 
18355
(
0.000609157
0.00419772
-0.0294967
0.00242118
0.00738713
0.00106995
0.00476798
0.00713593
0.0042328
-0.00457803
0.00843451
-0.0377961
-0.036945
0.00412704
0.00410984
0.00379894
0.00248563
0.00774922
-0.0288059
0.00580188
0.0206735
-0.00373088
0.00420244
0.000547764
0.00420286
0.00621024
0.00483628
0.00261173
0.00414361
0.00921659
-0.0299609
0.0156068
0.00389232
0.00353919
0.0002696
0.00674053
-0.0193615
0.00681321
0.00967674
0.0031111
-0.00107611
0.00891188
0.0035806
0.00418065
0.00419408
-0.0266976
0.00366478
0.00364374
-0.0344015
0.00517078
0.00320405
-0.00696706
0.0052262
-0.0110755
-0.00100468
0.005745
0.00176803
-0.025571
0.00638275
-0.00905294
0.00356058
-0.0337838
-0.00875229
0.00395332
0.0161144
0.0031259
-0.00430085
-0.0188625
0.00340879
-0.00789527
0.00483723
-0.0010453
0.0131005
0.0084932
0.00620651
0.00346476
-0.023382
0.00348555
0.00479571
0.00625421
-0.00374724
0.0039175
0.00343568
-0.00167725
0.00182734
0.00388541
0.00324833
-0.00449734
0.00444191
-0.00357684
-0.0377846
0.0236478
0.00272776
0.00516174
-0.0149439
0.00405109
0.00405877
0.00400977
-0.0185887
-0.00257614
0.00146585
0.00477682
0.0051097
0.00024362
-0.00299301
0.00381458
0.0164136
-0.0167911
-0.0106029
0.00371741
0.00179435
0.00303068
0.0112859
-0.00150587
-0.00662949
0.00625176
0.00474285
0.00498814
-0.00172576
-0.00517669
-0.00792061
-0.0272272
-0.0427512
-0.0033673
0.00474347
-0.0197235
0.00477867
0.00242011
-0.00201566
-0.00336442
0.00410769
-0.015572
0.000846373
-0.0254668
0.00770122
0.00454006
-0.0296823
-0.00714872
0.000905322
0.0239723
-0.0135716
0.00607371
0.00397945
-0.0109862
0.00840971
-0.000892102
-0.000164266
0.000321977
0.0114505
-0.000625051
0.00261741
-0.00523453
0.00416978
0.00484391
0.00360524
0.00415897
0.00246276
0.00378168
0.00398791
0.00415541
0.00783487
0.000916165
0.00373408
0.0052723
0.00878608
-0.00123178
0.0024047
0.0026189
-0.0270727
-0.013032
0.00265366
-0.0252317
0.00374952
-0.0347767
0.00133008
-0.00086315
0.00296982
0.000198852
-0.0164425
0.0018664
0.00400987
-0.000374217
-0.00356958
0.00267501
0.00175763
0.00509195
0.00418797
-0.00197675
-0.00162009
0.00490138
-0.022322
-0.0193984
0.0042365
0.0034181
-0.00126208
-0.0095948
0.00325162
-0.00219404
0.00420959
0.0030055
0.00504628
0.00709425
0.00992491
0.00411377
0.00147795
-0.00396787
-0.0222009
0.00274712
0.00384264
0.00430531
-0.00012894
0.00346213
0.00398015
0.00399289
0.000302571
-0.0402503
0.00248189
-0.0203207
-0.00362494
0.00391175
-0.0106508
0.00321746
-0.00580895
0.00450331
0.0038716
0.00433599
0.00327875
-0.0036408
0.00335094
0.00978735
0.00455027
-0.00349569
-0.00283213
0.00325602
0.00524459
0.00376309
-0.0121097
-0.0242003
-0.0261686
0.00405584
0.00423302
-0.0161583
0.0040987
0.00834056
-0.00365171
-0.00114871
0.00341746
0.00367531
0.00122516
0.00485559
0.00397657
0.000350695
-0.0240529
0.00437951
0.000232966
0.00424541
-0.025423
-0.000326725
0.00426463
0.00416192
-0.00226321
0.00543912
-0.019703
-0.0317593
0.0103645
0.00618736
0.00612151
-0.018842
0.0041911
-0.00117034
0.00495922
0.00370454
0.00716049
-0.020984
0.0028279
-0.000969703
0.00909323
0.00450689
1.99304e-05
-0.0766816
0.0090549
-0.000218656
0.00744096
0.00368576
-0.00624423
-0.00404833
0.00330851
-0.00102733
0.00300063
-0.0048055
0.00387198
-0.0265528
-0.00300292
0.00448992
0.00605185
0.0041064
0.00338876
-0.000143961
-0.000705754
0.00593858
-0.0209482
-0.0358001
-0.00852505
-0.0201213
0.0073708
0.00920157
0.00516736
-0.0238581
-0.0310847
-0.0256603
0.00113221
-0.0314004
0.00400707
0.00800079
-0.00745507
0.00808228
0.00394037
0.00370821
0.00313459
-0.0387884
-0.031295
-0.0701411
0.000241917
0.00928861
-0.0143078
0.000878656
0.000477275
-0.00399663
-0.0136386
-0.00199563
0.00916699
0.000164142
-0.012699
0.00384307
0.00593079
-0.000898243
0.00287547
0.00774802
-0.0302128
0.00291117
0.00769059
0.00161597
0.000158644
0.0044746
-0.00184297
0.00574949
-0.00666875
0.00448436
0.00140274
0.00151928
-0.000761504
0.0045739
-0.0236546
0.00563665
0.00327303
0.00462133
0.0046717
0.000115646
0.00535953
0.00332477
0.00143267
-0.00239164
-0.0099392
0.00248929
0.00327156
0.00387967
0.00524841
0.00307661
0.00372385
-0.000321446
0.00306648
0.00904299
-0.00151546
-0.0123682
-0.0351479
0.00468652
0.00415668
-0.0245873
0.00384326
0.00511934
0.0062195
-0.00236314
0.00160024
0.00765734
0.00385027
0.0065004
-0.00128555
0.0215833
0.00414835
-0.00606893
0.00312323
0.00321647
0.00702404
0.00493584
-0.031603
0.00541622
0.00171618
0.0044556
-0.0251074
0.00612619
-0.000900333
-2.88067e-05
-0.0268568
-0.00167787
0.00907902
0.00478798
0.00937937
0.00108586
0.00205435
0.00470735
-0.0163134
0.000179267
-0.0974055
-0.00297017
0.00291903
0.0202947
-0.00094767
0.00615628
0.000650562
0.017405
-0.000935447
-0.0259933
0.00296097
-0.0202488
0.00291859
0.00422812
-0.0206109
-0.00220752
0.00461759
-0.00504279
0.00541203
0.00293534
-0.0272341
-0.0307306
0.0042257
0.00310384
0.00667777
-0.038248
-0.0137449
-0.000406991
0.00521236
-0.0275699
0.00391252
0.00370631
0.00458693
0.00237728
0.00546724
0.00382331
0.00396618
-0.000493716
-0.0289514
0.00625784
0.00336554
0.00615796
-0.00673602
-0.00480045
-0.00871823
-0.032669
-0.00380374
0.00383848
-0.0137319
-0.0297002
-0.0258103
0.00378821
-0.00808304
0.000944827
0.00380836
-0.00756697
-0.00292787
0.0225327
0.0123395
-0.00596282
0.00881967
-0.00412338
-0.0242867
-0.00141807
-0.0312697
-0.00126984
0.00375594
-0.00811601
0.00377232
-0.03127
0.0019139
0.0184364
0.0081279
0.00300732
-0.000899948
0.00427416
0.00733903
0.00399052
0.00313666
-0.00251333
-0.00719886
0.00423762
0.00397003
-0.037113
-0.00449519
-0.00897479
-0.00347323
0.00396835
0.00604297
-0.00361946
-5.79994e-05
-0.034739
0.00773731
0.000230358
0.00853327
-0.00758449
-0.0104743
-0.0134228
-0.00160675
0.00637375
-0.0288539
0.0032848
0.00170718
-0.0931873
-0.027169
0.00302804
-0.0126637
0.00281368
-0.0257572
0.0163752
0.00157434
-0.000879873
-0.00791411
-0.00439055
0.0035426
-0.0260022
0.00254083
0.0050557
0.00725009
-0.00414406
-0.00231508
-0.0012937
0.00772046
0.021852
-0.0410766
0.00140065
0.00330089
0.00893243
0.0144631
0.0123843
0.00359855
0.00183158
0.00910146
0.0079744
-0.0043156
-0.00127127
0.0046693
0.00412715
0.00108228
0.0083181
-0.0286167
-0.0341154
0.00172954
-0.00088488
-0.00274476
-0.00243883
-0.00459711
0.0017429
0.0248627
-0.000866868
-0.00107746
0.0126805
-0.019433
-0.0158177
0.00405991
0.00335684
-0.0265451
-0.027709
-0.0279544
-0.0017528
-0.0341969
0.00416278
-0.0356186
1.71396e-05
0.00455482
-0.0213849
0.00428764
0.0049588
0.00148098
0.00137721
0.00459236
-0.0106505
-0.0680613
-0.0155543
0.00435251
0.00249444
0.00685145
-0.00149288
-0.0154785
0.00558698
0.00418236
0.00107286
0.000706866
0.00258641
-0.010785
-6.07163e-05
0.00468029
0.00748918
0.00450042
-0.0341667
-0.000455554
0.000445483
0.00335114
-0.00935401
-0.00296934
-0.0387005
0.0118922
0.00258318
-0.00137045
0.00485238
0.0084874
0.000981168
0.000666018
0.00934223
-0.0284386
0.00444834
-0.0474561
-0.040611
0.00723827
-0.020893
0.0037228
0.00151568
0.00413074
0.000357752
-0.00415153
-0.0276063
0.00162713
-0.0128042
0.00456183
0.00484288
0.00365398
0.00117102
-0.0377664
0.00330622
-0.0130913
0.00811533
-0.00314851
-0.0278719
0.004915
-0.0284953
-0.067282
0.00489288
0.00547826
0.00436964
-0.00145927
-0.0225201
-0.000411383
0.00403087
0.00435452
-0.00942441
0.004726
-0.0407588
0.00303815
0.00317556
-0.000523901
0.00229398
-0.0847415
0.00364632
0.00439457
0.00478434
0.0072137
-0.00462283
-0.000991917
-0.00955468
0.00189873
0.00318794
0.00405602
0.0136964
-0.0133977
-0.00675111
0.00414006
-0.00381419
0.000299786
0.0032423
0.00496852
-0.00410668
-0.00452881
-0.00822432
0.00324776
-0.0317237
-0.00220043
0.000488792
-0.020959
8.25821e-06
-0.032387
-0.00689818
-0.00104589
-0.00990341
-0.00206049
0.0036812
0.000216492
0.00405402
0.00503712
-0.00492246
0.00548855
0.00414966
-0.00353128
0.00621479
0.00582268
-0.0755639
0.00290811
-0.00164437
0.000731216
0.00330464
-0.0290702
0.000929927
0.00363016
0.00356897
0.00319073
-0.00227735
-0.0217796
0.00843233
-0.0255798
0.00575523
0.0079069
0.00746748
0.00416639
0.00585924
0.00424082
-0.0322125
-0.00226122
0.00331394
-0.0474215
-0.0733205
0.00272443
0.00674148
0.00219812
-0.00180373
-0.0333229
0.00024726
-0.0274832
0.00376284
0.00610737
0.00275074
-0.0256858
0.00431794
0.0130199
0.00536787
-0.0022388
0.00077425
-0.0393083
0.00281087
-0.00182227
-0.0140017
0.00456377
-0.000353252
0.00375557
0.000395256
0.00417715
0.00677418
0.00547171
0.00418194
0.00351275
0.00158869
6.57287e-05
0.012964
-0.0387211
0.00386174
0.00255553
0.00239572
0.00281498
0.00452605
0.00390006
0.00576392
0.00349858
0.00398486
0.00412468
-0.00321259
0.00738277
0.00391445
-0.0103319
0.0247627
-0.0148075
0.00401781
-0.0315472
0.00360794
0.00351557
0.00388203
0.00478179
0.00795886
0.00384571
0.00360935
0.00422064
0.00880843
0.00338477
0.00901807
0.00100457
-0.00255539
0.00357286
-0.0137699
-0.00158405
0.00407849
-0.00459054
0.00398958
-0.0323269
0.000851984
-0.0268618
0.00128446
0.00576877
0.00853198
0.00552828
-0.0118412
0.00404785
0.0031412
-0.00460239
-0.000103994
0.00664016
0.00383638
0.00312282
-0.0137304
0.00310973
-0.0273861
0.00439795
-0.022469
0.0140079
0.00371575
0.00417604
0.00062245
0.00325208
-0.0317658
-0.0258169
-0.0101492
-0.019028
-0.00658788
0.00337104
0.00325786
0.00338679
0.00470824
-0.00625852
-0.0249873
0.00543964
8.29512e-05
-0.00634814
-0.00406255
0.0135149
-0.00139152
-0.0287943
-0.0200552
-0.00195447
-0.0259572
-0.00198812
0.0106927
0.00382389
0.00339212
-0.00803213
-0.000362544
-0.0126164
-0.0356889
-0.0291201
0.00390946
-0.00326524
0.006407
0.0047317
-0.0133526
0.00576587
0.00349991
0.00320551
0.00356228
0.00365533
0.00447398
0.00455769
-0.0144639
0.00295177
0.00645442
0.00391919
0.00428635
0.00383699
-0.000217317
0.00874274
0.00428342
0.00445257
0.00359026
0.00215648
-0.0201411
0.00769878
0.00160588
0.00444054
-0.0116705
-0.0299927
-0.00014622
-0.000341035
0.00408655
0.00422117
0.00464233
0.00410563
0.0106915
0.00215094
8.47932e-05
0.00648647
-0.00469222
0.000687791
0.00132271
0.00414412
0.00354136
0.00804315
-0.00948213
0.00228223
-0.0175101
0.00414546
0.00319359
-0.0150328
0.0112173
0.00234617
-0.00103357
-0.0132269
0.00342249
0.00369794
0.0204337
0.00824777
0.00339091
0.0195186
0.00776183
-0.0322526
0.0103219
0.00154962
0.00344006
-0.00487237
0.00638004
0.00343354
0.0028773
-0.00249608
0.00363927
0.000249549
0.000328239
-0.0303148
0.00353669
0.00452262
0.004001
0.00499398
0.0040482
-0.000167612
-0.0250318
-0.026906
-0.000365409
0.00385451
0.00366249
0.00376227
0.00428826
0.00517546
0.00452103
0.0040473
0.00430539
0.000992815
0.00422622
-0.00281822
-0.0146141
0.00455201
0.00414501
-0.00221864
-0.0182184
0.0038231
-0.00430277
0.00423296
0.0040244
0.0038601
-0.0112536
-0.0252384
-0.00294461
-0.0299537
-0.0140523
-0.0197527
-0.0209185
0.00288012
0.00847031
0.00458501
0.00416547
0.00256082
-0.0167079
-0.0282235
0.00586774
-0.0202632
0.0056423
-0.0299924
0.00495439
-0.0256804
0.00817182
0.00768661
0.00333973
-0.0507145
-0.0168852
0.00384534
0.0031816
-0.0223451
-0.0196268
0.00423965
0.00425915
-0.0311254
0.0033981
0.00434306
0.0106901
0.00435264
0.00629808
-0.0329141
-0.000784243
0.00597445
-0.0174729
0.00737692
-0.0898261
-0.0204698
0.00357339
0.00241858
0.00463082
-0.00271425
0.0075548
0.00314449
0.00623426
-0.0119664
0.0147439
0.00457981
0.000122669
0.00426376
0.00103055
-0.0080132
0.00326904
0.00397595
0.00255402
0.00328894
0.00453714
-0.00200945
-0.032483
0.00401885
-0.00177655
-0.0207749
-0.00878524
0.00359779
-0.0253523
0.0033507
0.00200446
0.00436756
-0.0299473
0.00827106
-0.000532235
-0.00339744
-0.0360923
0.00427703
-0.00836838
-0.0031638
0.00466576
0.0111242
-0.00107448
-0.00290767
0.00458975
0.00556688
-0.0223916
0.00538163
0.00428282
-0.00207056
-0.0346052
0.00781385
0.000222505
-0.0186884
0.000402063
0.00909891
0.00446364
0.00338411
0.00488238
-0.00794195
0.00325299
0.0145983
0.0107166
0.00787012
-0.0271024
-0.0591705
-0.00727599
0.000936131
0.00330217
-0.0299591
-0.00179327
-0.0229554
0.00332986
0.00447891
-0.00267637
-0.0297244
0.00125283
0.00416797
-0.0308416
-0.000204288
-0.00376604
-0.000294388
-0.0076219
-6.74999e-05
-0.103157
-0.0352374
-0.0264366
0.00416598
0.00156
0.0107987
0.00324321
0.00594854
0.00324257
-0.00274196
-0.0133448
0.00790707
-0.0279464
0.000451604
-0.00491186
-0.0103963
0.000629179
-0.00604164
-0.0355813
-0.000153557
0.000116414
-0.00396058
0.00488736
0.00742647
-0.0118548
0.00183057
0.00268801
-0.0331255
-0.0214835
0.00390214
0.00602319
0.00594908
-0.0113289
0.00186799
0.00226652
0.00542008
0.00292957
-0.0420378
-0.0046626
0.00369106
0.00125355
0.0059461
0.000949113
0.00292067
-0.00338503
0.00325938
0.000289782
0.0037299
0.00628516
-0.0088211
0.000268436
0.00297222
-0.00184896
-0.0181292
0.0093025
0.00460672
0.00398157
0.00733129
0.00346922
-0.00359771
0.00342838
0.00539503
0.00383473
0.00314982
-0.000273415
0.00353179
0.00518605
0.00196229
0.00472508
0.00374784
-0.00692442
0.00606717
0.00532774
-0.0376736
-0.0257361
0.00392851
-0.0081976
-0.00811757
0.00185386
0.00559023
0.00328221
0.00361928
0.00336793
-0.00123859
0.00362285
0.00384833
-0.0313774
0.00338105
0.000189517
0.00385457
0.00371665
0.0216338
-0.0253262
-0.0210549
0.00024133
-0.00784835
-0.0121586
0.00137952
0.00418693
0.00470359
-0.000911991
-0.00450614
-0.0211595
0.00662067
0.00409123
-0.0867648
0.0072446
-0.00474979
0.0026213
0.00164509
0.023657
0.00369943
-0.038467
-0.010547
0.0036526
-0.00450777
0.00427792
-0.00984533
-0.0320669
0.0045135
0.00567717
0.00318747
-0.00327552
0.00618036
0.00609767
-0.00279132
-0.00277793
4.94748e-05
0.00363409
0.00238806
0.000188857
0.00371425
-0.0114766
-0.02166
3.38482e-05
-0.00122198
-0.00239981
0.00131032
0.00525451
0.00366767
0.0036645
-0.01039
0.000922853
-0.00944028
0.000517858
0.00443789
-0.0279741
-0.0042369
0.00775827
0.00355058
0.0031492
-0.0122286
-0.0305523
0.00256537
0.00584683
0.00791516
-2.92982e-05
0.006618
0.00115118
-0.00272341
0.00848179
0.0223557
0.00381259
0.0021716
0.00440238
0.0042866
0.000215304
0.00328016
0.00782695
0.00490057
-0.0217772
-0.00111872
0.000884451
0.00442502
0.00302413
0.00560195
-0.0398312
0.00321179
-0.0178424
0.00330049
0.00225694
-0.0151213
0.00257448
-0.00691722
0.00172057
-0.0255626
0.00369092
0.00326772
0.00388821
0.00147144
0.0243369
0.00216168
0.011982
0.00386272
0.00452888
0.00418271
-0.0346483
0.00275486
0.00430665
0.00406579
-0.00253844
-0.00084029
-0.000355304
0.00467002
0.00538292
0.000537722
0.00452386
0.00710487
0.00295725
0.00614856
-0.0265107
0.00366666
0.0107707
-0.0198054
0.00401137
0.00443002
0.00411706
0.00451962
-0.0255082
-0.0255222
0.0103005
0.0104187
0.00255968
-0.0369411
-0.0258548
0.00145141
0.00493932
-0.0272467
0.00749051
-0.000926232
0.00383168
0.00376677
0.00466079
0.00400171
0.00349021
-0.0274027
0.00307577
0.000511627
0.00338607
0.0075656
0.00370865
-0.0394741
0.00356031
-0.0248699
0.00436311
0.00476358
-0.0120928
0.00322534
0.00594056
0.00892429
-0.00534084
0.00206946
0.0187283
-0.000234022
-0.0155496
0.00276859
-0.0300664
0.00667321
0.000995752
0.008638
0.00501478
-0.00404395
0.00350611
-0.0321207
0.00454505
0.00296511
0.00469197
0.0101599
0.0110096
0.000554651
0.00197629
0.000370424
0.0037194
0.00429347
-0.00575472
-0.0364188
0.00363351
0.0109532
0.00401885
0.00646229
-0.0333032
-0.00064473
-0.00393508
0.00431788
0.0249702
0.00460457
-0.0097842
-0.00388202
-0.000815487
0.0041467
0.000132594
-0.000617444
0.00464061
0.00512917
0.00969272
-0.0102961
0.00463516
0.00198313
-0.028368
0.00162655
0.00418954
0.023764
0.00148531
-0.012525
-0.0101931
0.00441855
-0.036653
0.00441492
-0.0272923
-0.0146787
0.00372146
0.00293756
0.00389743
-0.0101067
0.00139982
0.000134338
0.00555235
0.0042535
0.00660598
0.00404953
0.00306185
-0.0663125
0.00132973
0.00398964
-0.00834551
0.00964313
-0.00440025
-0.00402627
-0.0249361
-0.0140153
0.0039333
0.00462451
0.00398133
0.00411082
-0.0109564
-0.0420162
0.00405915
0.00242445
0.0053732
0.0045932
0.003914
-0.0919502
0.00230211
0.00492898
0.00258106
-0.0321928
0.00400188
0.00418464
-0.0146571
0.00451028
0.00909841
0.00382972
-0.00407097
0.00135672
-0.0111245
0.00694289
0.0011158
0.00448855
0.0061097
-0.0816933
0.00441072
-0.0271368
0.00302001
-0.00680018
0.000234247
-0.00903198
-0.0046443
-0.0674961
0.012741
0.00383978
-0.0705825
0.00671395
0.0191584
-0.00646176
0.00135237
-0.0919601
-0.0248185
0.000467562
0.00400618
-0.0110892
0.00871165
-0.00284971
0.00535824
0.00439893
0.00238249
-0.0332581
-0.0191404
-0.00463364
0.0036567
0.00506504
0.00807218
0.00741524
0.00386976
-0.0125563
-0.026369
-5.73253e-05
0.0046179
0.00448454
0.00353278
0.00403541
-0.00287266
0.0043947
-0.0349451
-0.0128353
-0.00137454
0.00590637
-0.00327895
-0.00208978
0.00371279
-0.0017033
0.0069075
0.00592439
0.00667823
0.00365924
0.00044914
-0.0125411
0.00242999
0.00367664
0.00414509
0.00379292
0.00254783
0.00502903
0.00420236
0.00413404
0.00407534
0.00403329
0.00117692
-0.0356538
-0.00280455
0.00354878
-0.0679119
0.00437913
0.00395202
0.00196345
0.00100108
-0.0410387
0.00207439
0.00467174
0.0040112
0.0046492
-0.0228088
0.00661421
0.00409262
0.00644767
-0.0261248
-0.058554
-0.00323343
0.000796751
-0.0449867
-0.0160935
0.00121345
0.00630399
0.00215671
-0.0272677
0.00429566
-0.0152775
0.00436735
0.00934152
0.0039759
0.00455264
0.00397424
0.00223205
-0.0123018
-0.00360405
-0.00619067
0.00417829
0.00528554
0.00412327
0.00357508
0.00399739
-0.00766173
-0.000206158
-0.00205941
0.0040478
0.00906787
0.00429284
0.00353453
-0.006078
-0.0325604
0.00379236
0.00379207
0.00617691
0.00208463
0.00417713
-0.0304675
0.00715495
0.00368365
0.00509637
-0.0665567
0.0108036
0.00465007
0.00364282
0.00196285
-0.00817985
0.00386222
0.000434041
0.0156608
0.00186575
-0.024785
0.00471507
-0.0015026
0.00354307
0.00592703
-0.0262522
0.00741178
0.0104392
0.00472499
0.00367444
-0.00119274
0.00505375
0.00990292
-0.0104294
0.00373885
0.00417698
-0.00269112
-0.00209479
-0.0288119
0.00455486
-0.00597431
0.00374988
-0.0258376
0.00417283
-0.026059
0.00403875
0.00453269
0.0043211
-0.0313801
0.00265132
-0.0165929
0.00954501
0.00660684
0.00369382
0.00909889
-0.00602836
0.00292605
-0.085758
0.00630857
0.00403354
-0.000455625
0.00764867
0.00388513
0.00513512
-0.0133163
-0.00895919
0.0044891
-0.0335875
-0.00646032
-0.0198776
0.00680873
0.00600265
0.0024217
0.000416713
0.00403149
-0.0133611
-0.00121028
0.00931701
0.00400376
-0.0741241
-0.0408633
0.00331899
0.00451862
0.00449951
0.00648673
0.00445843
0.00701956
0.00159715
0.00351312
0.00502284
0.00728211
0.00619617
-0.00837126
-0.00253234
-0.0193044
0.00170147
0.00722114
-0.00164976
0.00395799
-0.007653
0.00129012
-0.0146878
0.00419266
0.00307794
0.0027916
0.00381226
0.00671872
0.00512796
-0.0144242
-0.00996728
0.00533946
0.00291137
-0.0354706
0.00347903
-0.0077134
-0.0156621
0.0103424
0.000785605
-0.0645805
-0.0479339
0.000376403
0.0061448
0.00441412
0.00425983
-0.0138603
0.00226293
-0.00788144
-0.00753836
0.00420372
0.008006
0.0106288
0.0058107
0.00444309
0.00460037
0.00362206
0.000770454
0.00511239
-0.032218
0.00594986
0.0100444
0.00351153
0.00450032
-0.0538653
0.00403051
0.00671738
0.00452614
0.00656747
-0.00530916
0.00804703
-0.098486
0.00372802
-0.0132814
-0.0120423
0.00132558
0.00451365
0.00413035
0.00120035
-0.00074691
-0.0174746
-0.00146235
-0.0083934
0.00409262
0.000832396
-0.0432874
-0.018167
0.00257176
0.018593
0.00378732
0.00219647
-0.0223659
0.000706999
-0.00112274
-0.00146917
-0.00791258
-0.00335206
-0.00281499
-0.00088056
-0.00469507
-0.00170368
0.00696154
0.000215804
0.0115112
0.00371837
0.00363633
0.0100673
0.00409212
0.00438493
-0.00359233
0.00405279
0.00880573
0.00379346
-0.0057496
0.00287706
0.000906331
-0.0234123
-0.00402314
0.00553452
0.00453859
0.00219605
-0.00964621
0.00477917
0.00434797
-0.0399252
-0.0122617
-0.0126883
0.0118708
-0.000663737
0.0106176
-0.015589
0.00457234
-0.00370705
0.00285244
0.0039874
-0.0363167
-0.00584191
0.00548794
0.00675455
0.0042115
0.000483248
-0.0333188
0.00160611
-0.00394542
-0.0154131
0.00089258
0.00354951
-0.0104206
0.00565744
-0.00882065
-0.0180536
-0.037569
0.00894379
0.00244361
0.00800674
0.00340595
0.00289023
0.00209097
0.00131728
0.00370364
-0.0173999
0.00410292
-0.0136511
-0.0213255
0.00450211
0.00428804
0.00465765
-0.0688485
0.0039843
0.00335272
0.00601471
0.004025
0.00254814
0.00481769
-0.0166906
0.00165495
0.000451032
0.000118458
0.0010309
0.007234
0.00372489
-0.00926953
-0.00921816
0.0068454
0.00522352
-0.00105808
-6.96704e-06
0.00447854
-0.0417656
-0.0155268
0.00161759
0.00708163
-0.0191553
0.00449941
-0.000740488
0.000922611
-0.0062977
-0.0331817
-0.0226233
0.00326275
0.00744253
-0.0297294
0.00679086
0.00389809
0.00462174
0.00367718
0.00615846
0.005057
0.00378729
-0.0104501
0.00582966
0.00171545
0.00448746
0.000802647
0.00580682
0.00595983
0.000177255
-0.102193
-0.0130022
-0.0293625
0.00370138
0.00925178
0.000276634
0.00663127
0.00540995
0.000492725
-0.0516719
-0.011296
-0.0145998
-0.00705651
0.00652803
-0.00790606
0.000123999
-0.0323055
-0.0214445
0.0046056
0.00467566
0.00364871
-0.00207739
0.00679302
0.000766594
-0.0196375
0.00035853
0.00457143
-0.0287011
0.00399296
-0.0103304
-0.0428387
-0.0196035
-0.0298136
0.00362857
-0.0150865
0.0121915
-0.107176
0.00396212
-0.0580058
0.0114517
0.00415015
0.00203544
0.00651215
-0.0528412
0.00396409
0.00393031
0.00377278
0.0036758
-0.0861673
-0.0161945
0.000178377
0.00200789
0.00385733
-0.0134098
-0.0398693
-0.00375677
0.00374055
-0.00500563
0.0039936
-0.00264472
-0.105128
-0.000964574
0.0038112
0.00374778
-0.00369637
0.00402752
0.00183367
0.00364579
0.00608035
0.00735236
-0.0207171
0.00798346
-0.00131834
0.000510153
-0.0268651
-0.0197279
0.0162241
0.00122005
0.00449982
-0.0248746
-0.0336986
0.00655663
-0.0328401
0.010233
0.000778271
-0.0798231
-0.0171388
0.00307354
-0.0109695
0.000576355
-0.000355813
-0.00495444
-0.0063465
-0.0264391
0.00195915
-0.00151018
0.000394353
0.0107338
-0.0172428
0.00380006
0.00392581
0.00264459
-0.0455096
0.00366161
0.00384702
-0.000209099
0.00413973
0.0038611
-0.036543
0.00533307
0.00445138
-0.0799911
0.00256404
-0.0276121
-0.0115362
-0.000505052
0.0071695
0.00470744
-0.00516785
-0.0366662
-0.00636291
-0.037345
-0.0370973
-0.0116096
0.00391777
-0.0609003
0.00373647
-0.0375364
-0.0815937
0.0038466
0.00120228
-0.0116754
-0.0296895
0.00130371
0.00448129
-0.045842
-0.000707575
0.00409438
0.00346777
0.00557044
0.00390092
0.011282
-0.0347062
0.00354755
0.002532
-0.0674663
0.00135547
0.00257978
0.00270759
0.00470254
0.0232532
0.0039451
0.000145531
0.00410367
-0.0109109
0.00265833
0.00926753
-0.0425525
-0.0191047
-0.0220447
0.00417405
0.00131887
-0.0331748
0.00370446
0.0041122
0.00509933
0.00466053
-0.00419137
0.0018101
0.00648696
-0.0841704
0.00419402
0.00249007
0.000924847
0.0046953
0.0032899
-0.00549171
-0.111747
-0.0277575
0.00444802
-0.024111
0.000126092
0.00447412
0.00345175
0.00610387
0.00301425
0.00190523
0.00382027
0.00284358
-0.0629103
0.00399214
-0.000941857
-0.0190431
-0.031364
-0.00612573
0.00385029
-0.0204256
0.00649397
0.00424871
-0.00127764
0.00390381
0.000655992
-0.00505477
0.00564408
-0.0350578
-0.0225097
0.00303899
0.00384661
0.00450032
0.00615255
0.00347214
0.00356386
0.0155618
0.0022866
-0.107324
-0.0147468
0.00617806
-0.0234121
-0.00599405
0.000670912
0.00774222
-0.00722183
0.00400029
0.00882368
0.00857969
-0.0131047
0.00279613
0.0106165
-0.0044354
0.0110921
-0.0264251
-0.0334938
0.00445229
0.00858115
0.00663762
0.00422645
0.00654325
-0.00964301
0.0016041
0.000660327
0.00462961
-0.0427064
0.00347321
0.00327525
0.00165696
0.00122748
0.000977508
-0.0424741
0.00277654
-0.012467
-0.0264947
-0.0180483
0.00103588
-0.0263852
-0.00344175
0.00452953
0.00291452
-0.0249447
0.00456015
0.0013798
-0.02208
0.00437586
-0.0054002
-0.000248562
-0.00298849
0.00415861
-0.000569382
0.00472399
-0.0022674
-0.00478771
0.00201677
-0.0027394
-0.014571
0.00368324
-0.0951352
0.00415528
0.00634096
0.00396797
0.00977492
-0.00497848
0.00441754
0.0060547
0.00390445
-0.0287476
-0.00208075
-0.0213247
0.00408934
0.00328271
0.0105527
-0.0226596
0.00334371
0.00450586
0.00439409
0.00656018
-0.067365
0.00456291
0.00393747
-0.00807668
0.0044817
-0.0226264
-0.0161796
0.00397508
-0.0323973
-0.0601576
-0.0250255
0.00472478
0.0123797
0.00210917
0.00193552
0.0053706
-0.00630941
-0.0166386
0.00403759
0.00343693
-0.0478083
0.00292562
-0.00820443
-0.0140096
-0.0096622
0.00449499
-0.00179948
-0.000962786
0.00368683
0.000979317
0.00370132
-0.0179605
0.00403146
0.000918333
0.00116006
0.00717297
0.00877324
-0.00846617
0.00321333
0.0022989
0.00902529
0.00431537
0.00361973
0.00625266
-0.0283717
-0.0289642
0.00271924
0.000677725
0.00790047
-0.00352717
-0.0256459
0.00401867
-0.00161629
0.00405749
-0.0012056
-0.000498888
-0.00272168
0.000644142
-0.00117506
0.0044926
0.00451197
-0.0120715
0.0073469
0.00797201
-0.0312517
-0.0249789
-0.0317644
0.00553088
0.0099343
-0.00872608
-0.024985
0.004594
0.00554212
0.00301251
-0.0245243
0.000448041
0.00397745
0.00399945
-0.0148593
0.00441574
-0.0167009
0.00141632
0.00366461
0.0160136
0.00320862
0.00205238
0.00332644
0.00370463
-0.0141217
0.00470272
0.00397534
-0.0137924
-0.0356549
-0.0327222
-0.00790579
0.00505853
0.00907252
0.00509893
-0.00672767
0.00365054
0.00417819
-0.00167377
0.00370449
0.00474982
0.00469691
0.00472922
-0.0267193
-0.0766636
-0.0280748
0.00437976
-0.0238977
-0.0379826
-0.0195093
0.00415478
0.00406397
0.00300061
0.00695692
0.00244503
0.000602933
0.00419854
0.00404148
-0.0274117
0.00409506
-0.00155623
0.0036063
0.0023773
0.00407149
-0.00258626
-0.00691777
0.00381342
0.00304244
-0.0121602
-0.0168378
-0.0148241
-0.0257256
-0.00536616
-0.000265925
0.0162495
0.0047915
0.00116599
-0.000305157
-0.0345725
0.00199228
-0.0586739
0.00643857
0.00476063
-0.029707
0.00333934
0.00369558
0.0022977
0.00145403
0.00368408
-0.0124132
0.00404062
0.00414443
-0.00120405
0.00604826
-0.0308675
0.00262376
-0.0252224
0.00429261
0.00399965
-0.0272538
-0.0164407
-0.00261932
0.00188221
0.000564837
0.00406867
-0.0182656
-0.0123834
-0.0390929
-0.00805416
-0.0124686
0.00444644
-0.0225329
0.00393534
-0.000952358
0.00127064
-0.0158224
-0.0427422
0.0016858
0.00610131
-0.0125294
0.00189646
0.00974804
0.00364417
0.0181509
-0.00807027
-0.0344671
-0.0176044
-0.00397237
0.00449323
-0.0180664
-0.0315977
-0.0310025
0.00509342
-0.00416989
-0.0193675
-0.00754879
-0.00982979
-0.0386301
-0.0101352
0.00261667
0.004077
-0.00107566
-0.00193048
0.00658423
5.27462e-05
0.0076133
-0.00527556
0.000215343
-0.00456058
-0.00594944
-0.024988
-0.0416798
0.00490114
-0.00785663
-0.0102537
0.00717349
0.00738006
0.00764526
-0.000400887
0.00402438
-0.00171632
0.00516488
-0.0226205
0.00554774
0.00525364
0.00426245
0.00370638
-0.0302347
0.00243465
-0.000162585
-0.000463376
0.00291887
-0.0246492
0.00477734
0.00539318
0.00503505
0.00398606
-0.0687309
0.00324166
0.00646753
-0.00992061
0.00795457
0.00410646
-0.0235095
-0.0893034
0.002012
0.00562178
0.00241036
0.00371535
-0.00787758
0.00260678
0.00471533
0.00393392
-0.044431
0.00852281
-0.0761531
-0.0173894
0.000429698
0.00720357
0.00448743
0.00227251
0.00237266
0.00416492
0.0076536
0.00604068
0.00236656
0.000152654
0.00488671
-0.00366095
-0.00239385
0.0021572
0.00439289
0.00369609
0.00578673
0.00206752
0.00887404
-0.0297634
-0.00105331
-0.0150607
-0.0234466
0.00373668
-0.00148379
-0.0138264
-0.033683
0.00369689
0.00267752
-0.0136101
0.00241896
-0.000481545
0.00492455
0.00397589
0.00214044
0.00389454
0.00379822
0.00153767
0.00181124
-0.0019502
-0.0169716
0.000153426
-0.0013393
0.00275444
0.00402894
-0.024552
-0.0696573
0.00408581
0.00615895
0.00149082
0.00248964
0.00301517
-0.0173232
-0.00122932
-0.000625315
0.00911665
0.000137078
0.000157606
0.00408232
0.000167895
-0.00587649
-0.0017749
0.00440445
0.00171649
0.000160776
0.0103018
0.00384735
0.000162
-0.0082383
-0.11046
-0.0118775
-0.00577818
0.00475781
-0.00350599
-0.0130686
0.00497751
-0.0360662
0.00401504
-0.0189844
0.00401433
-0.00371339
0.00356428
-0.0264589
0.00596844
0.00441127
-0.000582967
0.00438915
0.00370818
-0.00196591
0.00405628
-0.0026919
0.00235823
-0.00241914
0.00381292
0.0015753
-0.0335904
0.00442988
0.00107368
0.00249194
-0.0109981
0.00170928
-0.00305416
-0.0306782
-0.0175881
-0.029161
0.00453976
0.00518796
0.00483025
-0.00229552
0.00310541
0.00141277
-0.000700238
-0.0366296
-0.00423893
-0.0431018
-0.00674316
-0.00338465
-0.00040983
-0.00727205
0.00182545
0.003048
-0.00622576
-0.00674776
0.00359233
0.00366893
-0.00156453
0.00381128
-0.0226745
0.00933042
-0.00633627
-0.00495238
-0.00550279
0.00241569
0.00414095
-0.0196526
0.00121138
0.00630097
-0.0189578
0.00191488
-0.038803
-0.00156441
0.00353808
0.00573813
0.00340947
-0.0117611
0.00291943
0.00177177
-0.00854314
0.00614939
0.00614463
-0.00236265
-0.0276179
0.00379027
-0.054641
0.00449054
0.00256959
-0.000861701
0.00376567
0.0040875
-0.00625073
0.00873588
-0.0768673
0.00264495
0.00162447
-0.0742247
0.0041276
-0.0247396
-0.0255427
0.00408264
-0.00382803
0.00403278
-0.0204587
-0.0872094
0.00511394
0.00753039
-0.00532717
0.00320135
0.00435815
0.00579578
-0.0916022
-0.00385319
0.00177329
0.0061561
-0.00544198
0.00743484
-0.038521
-0.0364372
-0.0125658
0.00373145
-0.00804411
0.00516966
0.00138989
-0.0132182
-0.023991
-0.00380519
-0.0561104
-0.0239044
0.00410023
-0.0835836
0.00050795
0.0024121
-0.0112878
0.00188577
-0.00511904
0.00155666
-0.0124557
0.00440377
-0.0269309
0.00378028
0.00400043
-0.00770581
-0.0247756
-0.0183082
-0.0201337
-0.011537
0.00390983