/*--------------------------------*- C++ -*----------------------------------*\
| =========                 |                                                 |
| \\      /  F ield         | OpenFOAM: The Open Source CFD Toolbox           |
|  \\    /   O peration     | Version:  v2012                                 |
|   \\  /    A nd           | Website:  www.openfoam.com                      |
|    \\/     M anipulation  |                                                 |
\*---------------------------------------------------------------------------*/
FoamFile
{
    version     2.0;
    format      ascii;
    class       volVectorField;
    location    "600";
    object      U_0;
}
// * * * * * * * * * * * * * * * * * * * * * * * * * * * * * * * * * * * * * //

dimensions      [0 1 -1 0 0 0 0];


internalField   nonuniform List<vector> 
18355
(
(0.951508 0.196375 0)
(1.00952 -4.75315e-05 2.1454e-22)
(1.15878 0.04626 0)
(1.0105 0.00104404 7.62948e-22)
(0.992311 0.0107888 1.92921e-21)
(0.956255 -0.111916 0)
(1.01498 -0.00167374 -6.41139e-22)
(0.99381 0.0147374 -2.01614e-21)
(1.00546 6.64532e-05 -2.29731e-21)
(1.07612 0.0265361 -5.27387e-22)
(1.01079 0.00729002 2.18371e-21)
(1.08989 0.0343422 -7.0378e-21)
(1.08965 0.033459 -6.92198e-21)
(0.915632 0.1295 0)
(1.00752 0.000113738 4.02466e-22)
(1.00998 -0.00013897 8.77686e-22)
(1.01042 0.000983807 -1.19229e-21)
(1.01705 0.00767457 0)
(1.11732 0.133258 -2.26622e-22)
(1.01143 0.00332906 9.37294e-22)
(0.818077 0.0630663 -7.35977e-21)
(1.02227 0.0131686 0)
(1.00848 -5.7712e-05 0)
(0.966698 -0.108919 2.18252e-22)
(1.00844 -4.86879e-05 2.34445e-22)
(1.01212 -0.000286991 1.89993e-21)
(1.01436 -0.00201139 0)
(1.01081 0.00192124 0)
(1.00426 -1.70355e-05 1.90783e-21)
(1.01142 0.00522662 4.45829e-21)
(0.927132 -0.276057 0)
(0.970264 0.0172459 3.4567e-21)
(1.01172 -0.000122189 -1.83106e-21)
(1.00939 2.10134e-05 0)
(1.00593 -8.7225e-05 0)
(1.00891 0.00442641 0)
(1.04774 0.0333066 1.67605e-21)
(1.00864 0.00416057 0)
(1.01109 0.00415003 -1.60144e-21)
(1.01551 0.00960019 -3.3962e-23)
(1.01337 0.000189833 0)
(1.01025 0.00632519 0)
(1.00946 2.82297e-05 0)
(1.00928 -2.81691e-05 0)
(1.00937 -4.93773e-05 0)
(1.07257 0.0207629 0)
(1.01045 0.00238206 -7.48791e-22)
(1.01035 0.00226981 1.00725e-21)
(0.932004 -0.290664 0)
(1.0114 0.000425555 2.99892e-21)
(1.0064 -6.06593e-06 -6.7541e-22)
(0.727224 0.213781 1.03406e-21)
(1.0114 0.000506823 -1.83463e-21)
(1.04035 0.151284 0)
(1.01593 0.00351394 0)
(1.01086 0.00338732 -8.78249e-22)
(1.00535 -4.94438e-05 6.6612e-22)
(0.880497 -0.287125 0)
(1.01179 -0.000478445 -2.43626e-21)
(0.851114 0.0271993 9.28575e-22)
(1.0095 2.72941e-05 3.56652e-22)
(1.09326 0.0432604 -4.01031e-21)
(1.03359 0.149519 0)
(1.01647 0.00142932 0)
(0.956231 0.0390083 -3.59024e-21)
(1.00697 -6.27224e-05 0)
(1.02282 0.0242452 0)
(1.04715 0.0341923 -2.45123e-21)
(1.00952 -9.82221e-05 -1.40787e-21)
(1.10415 0.034761 1.70963e-21)
(1.01149 3.73765e-06 1.17934e-21)
(1.01605 0.00366481 0)
(0.982423 0.0172528 3.9661e-21)
(1.01948 0.00787584 0)
(0.959097 -0.0324159 -3.8705e-21)
(1.0096 -4.59399e-05 0)
(0.878414 -0.281331 9.24418e-21)
(1.00971 -2.9944e-05 0)
(1.01145 1.65001e-05 -1.17384e-21)
(0.965302 -0.0386536 1.452e-21)
(1.02194 0.0238882 -7.39586e-22)
(0.983181 -0.0626877 6.71439e-22)
(1.00963 -7.692e-05 1.43553e-21)
(1.01788 0.026527 -3.40463e-22)
(1.00256 0.0723895 1.06896e-21)
(1.00405 3.41166e-05 -1.93216e-22)
(1.00688 0.000243681 6.09832e-22)
(1.02215 0.0629561 7.87977e-22)
(1.00996 0.00100791 0)
(1.01925 0.0630793 1.06612e-21)
(0.851733 0.281123 0)
(0.85023 0.0354113 -2.45902e-21)
(0.993667 -0.0602098 0)
(1.01141 0.000209198 -1.26962e-21)
(1.04318 0.179216 9.11466e-22)
(1.01455 0.00264808 -1.92436e-21)
(1.0095 0.00115551 0)
(1.01442 0.00209569 9.27172e-22)
(1.07511 0.0892076 2.01706e-21)
(1.02076 0.0124066 -2.76266e-22)
(1.00403 0.0695764 -6.50466e-22)
(1.01129 0.0001075 1.38855e-21)
(1.01142 0.000173608 6.26492e-22)
(1.01054 -0.000596275 0)
(1.02048 0.0243699 0)
(1.01008 -0.000152868 0)
(0.95508 0.0339146 0)
(1.02762 0.202594 0)
(1.03549 0.0502967 -1.91759e-21)
(1.00983 -4.37131e-05 6.48493e-22)
(1.00644 -0.000105161 4.56718e-23)
(1.0042 -2.7522e-05 -1.25355e-21)
(0.996789 0.00797565 0)
(1.01783 0.0253239 -3.8574e-22)
(1.08644 -0.0063983 -7.12992e-22)
(1.00441 0.0196213 -6.4712e-22)
(1.01123 0.000114036 -5.44281e-22)
(0.956582 -0.0518119 -2.92273e-21)
(1.01942 0.0186793 -1.83108e-22)
(1.02381 0.0236939 -5.48422e-22)
(1.10205 0.0346474 -3.30617e-22)
(1.15917 0.0390775 -5.52413e-21)
(0.838532 0.273465 1.78025e-20)
(1.01939 0.0719129 -5.99524e-22)
(0.963281 -0.0585364 0)
(1.07565 0.0127669 -7.19151e-21)
(1.01491 -0.00198479 1.48064e-21)
(1.01045 0.000859567 -9.93525e-22)
(0.957414 0.207154 -5.01824e-22)
(1.0214 0.010379 0)
(1.00957 0.00117321 0)
(0.702616 0.222927 0)
(1.01478 0.00537122 -1.5143e-22)
(1.09181 0.06704 1.67199e-20)
(0.969124 0.106574 -3.09399e-21)
(1.01008 0.000857366 0)
(1.12382 0.129927 -4.80883e-21)
(1.08625 0.099559 7.44603e-22)
(1.0123 0.000945619 3.72487e-22)
(0.834942 0.0383957 -2.61506e-21)
(1.0378 0.0298872 0)
(1.00477 -0.0264781 6.94228e-22)
(1.01014 0.00201951 1.89658e-21)
(0.768333 0.245023 -3.40948e-22)
(0.963986 0.104609 3.87139e-24)
(1.01419 0.000350841 0)
(0.799802 0.0135212 6.38133e-23)
(1.01248 -0.00174992 0)
(0.997896 0.00632008 -1.97755e-21)
(1.01504 -0.0957849 4.90525e-23)
(1.01071 0.00181068 -5.70766e-22)
(1.02404 0.0230938 -6.53421e-22)
(1.01602 -0.00142826 0)
(1.0172 -0.0118942 6.04446e-22)
(1.00958 2.91696e-05 0)
(1.00796 1.16731e-05 5.94518e-23)
(1.01034 0.000790719 1.24233e-21)
(1.00456 1.33266e-05 0)
(1.01022 0.00210388 -1.59368e-21)
(1.00777 7.66985e-06 -4.99014e-23)
(1.01582 0.00699807 1.05565e-21)
(1.01482 0.00554303 2.14196e-22)
(1.00981 -6.5876e-05 -8.20062e-22)
(1.01158 -0.0174983 0)
(1.01841 0.0059627 1.17472e-21)
(1.06177 0.000187919 2.09592e-22)
(0.77793 0.0191612 -6.71611e-23)
(0.919793 0.205989 7.19517e-22)
(0.746129 -0.262885 -8.75383e-21)
(1.03689 0.0302918 1.90876e-21)
(1.00449 -4.52509e-05 4.90492e-22)
(1.08905 0.0663759 -8.2458e-22)
(1.00419 -2.6257e-05 0)
(0.954706 -0.285045 0)
(1.00518 -7.47924e-05 5.39656e-22)
(1.01356 0.000274384 0)
(1.00488 -4.56099e-05 6.5358e-22)
(1.01118 -0.00102541 0)
(1.03937 0.0135418 -3.83863e-21)
(1.00925 0.0344289 5.01239e-22)
(1.00402 2.58383e-06 1.28898e-23)
(1.05816 0.00741128 -1.92935e-22)
(1.02187 0.0118889 -5.2187e-22)
(1.0111 0.00235573 -3.48661e-22)
(1.0465 -0.00460582 0)
(1.0115 -1.04013e-05 -1.22194e-21)
(1.00532 3.34212e-05 8.5402e-22)
(1.01487 0.0601088 -5.05413e-22)
(1.01598 0.00103412 -4.37225e-22)
(1.01435 -0.0024065 -6.10073e-22)
(1.07495 0.0159381 5.5536e-21)
(1.07726 0.0861497 -2.16438e-21)
(1.00968 -0.000114241 8.58466e-22)
(1.01076 -0.000283293 0)
(1.01531 0.000204664 0)
(1.08468 -0.010859 2.15321e-21)
(1.00713 -3.82081e-05 0)
(0.930174 0.230809 -2.81392e-22)
(1.00962 -6.9745e-05 0)
(0.898518 0.1259 -8.90175e-22)
(1.01152 -2.0168e-05 -2.80535e-22)
(1.01646 0.00950572 -1.31408e-21)
(1.01255 0.00317494 -3.23278e-21)
(1.00501 3.26335e-06 -4.18546e-22)
(0.932053 0.207556 -3.35871e-22)
(1.02189 0.00881433 5.38564e-22)
(0.759732 -0.276944 1.49657e-20)
(1.011 0.00232033 -8.36291e-22)
(1.01151 -9.74935e-05 -1.61502e-21)
(1.01473 -0.00178327 0)
(1.0176 0.00934262 -3.65298e-25)
(1.0147 -0.0699716 -1.26568e-21)
(1.01945 -0.00102983 0)
(1.01838 -0.000954442 0)
(1.01268 -0.0018501 6.52883e-23)
(0.962107 -0.29125 -6.91726e-21)
(1.0083 0.0331933 -4.65925e-22)
(1.04707 0.0257784 0)
(1.02153 0.00932811 0)
(1.01044 0.00239979 -1.55024e-21)
(1.03526 0.0484964 1.75408e-21)
(1.01037 -0.000492439 -6.77011e-22)
(1.02573 0.0593499 2.51202e-21)
(1.01065 -0.00704126 -2.60954e-22)
(1.04266 0.0182751 0)
(1.02056 0.00182563 -5.21502e-22)
(1.01044 -0.000451328 6.69771e-22)
(1.07441 0.0987687 -2.41322e-21)
(0.957297 0.166351 0)
(0.990198 0.0253776 4.95546e-21)
(1.01518 2.03543e-05 -3.06156e-22)
(1.02129 0.0247538 9.12995e-22)
(1.06871 4.58522e-05 0)
(1.01048 -0.000482835 3.43976e-22)
(1.01496 -0.0187804 -6.94089e-22)
(1.03983 0.0135489 -1.01462e-21)
(1.03293 0.00931929 1.07858e-21)
(1.07272 0.0183728 9.77191e-22)
(1.05315 0.0183751 -5.11608e-21)
(1.01795 -0.00156177 9.74862e-22)
(1.00988 -9.40532e-05 0)
(1.03873 0.0131137 0)
(1.01711 -0.001315 0)
(0.993935 0.0283171 1.81548e-21)
(1.0215 0.00895498 4.14714e-22)
(1.016 0.00319644 0)
(1.01039 0.00220719 0)
(1.02398 -0.0638692 1.395e-21)
(0.995142 -0.0877453 0)
(1.01195 -0.000319715 -1.31526e-21)
(1.01711 0.00185188 -1.00421e-21)
(1.00627 -0.0833362 2.58426e-24)
(1.1204 0.0334997 1.32665e-21)
(1.00923 -0.00597441 2.45441e-22)
(1.01107 -0.000970462 1.15836e-23)
(1.01523 -0.0142431 9.45212e-22)
(1.05239 0.0189038 0)
(1.01326 0.000504395 -2.12121e-22)
(1.02006 0.00276619 1.45761e-21)
(1.00928 0.000766424 -5.56548e-22)
(1.02754 -0.0789599 2.74575e-22)
(0.990836 0.0185437 0)
(1.07379 0.0810185 2.59501e-22)
(1.06348 0.0286166 -8.81476e-21)
(1.0125 0.00186276 -1.82843e-21)
(1.02764 -0.0222599 0)
(1.00225 -0.0180902 1.52239e-21)
(1.07658 0.0972118 4.18534e-21)
(1.00928 0.000723534 2.26824e-21)
(1.01611 0.00337611 0)
(1.01374 -0.00282795 0)
(1.01002 -1.47208e-05 0)
(1.01637 0.00983455 -1.36629e-21)
(1.04808 0.0260417 -1.15051e-21)
(1.01031 0.00157052 0)
(1.01848 0.00948848 0)
(1.02677 0.0182248 1.08485e-21)
(1.00998 0.000810516 -2.89957e-22)
(1.00292 0.108165 2.74311e-22)
(0.979193 -0.0947713 -2.40823e-20)
(1.02558 0.0145473 -1.99944e-21)
(1.01777 0.00963705 0)
(1.00239 0.0176031 1.51825e-21)
(1.0099 -1.92243e-06 -1.02134e-21)
(1.02706 0.0641763 0)
(1.02173 0.00768115 0)
(1.00492 0.0333618 0)
(1.01408 0.000238923 2.48794e-22)
(1.00632 0.032606 0)
(0.907693 -0.134127 2.10657e-22)
(1.01159 -0.000120459 7.09135e-22)
(1.07044 0.0503446 0)
(1.02125 0.0187512 -1.30568e-22)
(1.01649 0.00457081 0)
(0.999476 -0.01516 0)
(1.00699 0.000106442 8.5517e-22)
(1.01061 -0.000318664 0)
(1.00408 0.103157 0)
(1.0182 0.00944813 0)
(1.00067 -0.0230414 2.41362e-21)
(1.04987 0.032423 -1.86454e-21)
(0.922309 0.293971 9.92678e-21)
(1.03406 0.0660585 -1.51647e-21)
(1.07612 0.082313 -4.96411e-21)
(1.01713 0.00889172 3.56315e-21)
(1.02869 0.0195793 -3.37729e-21)
(1.01142 0.000629564 1.32573e-21)
(1.04961 0.0159599 2.8487e-21)
(1.06247 0.0281174 0)
(1.06959 0.0515582 -3.31356e-21)
(1.05176 0.00930415 -5.38265e-22)
(1.16297 0.0214029 -4.23422e-21)
(1.01099 0.00310544 0)
(1.00394 0.00276764 1.58003e-21)
(1.02716 0.138283 0)
(1.00086 0.0173645 0)
(1.01098 0.0030669 -5.76184e-22)
(1.01028 0.00220052 0)
(1.01052 0.00214731 0)
(1.08044 0.0393207 -1.49452e-20)
(1.15786 0.0166598 0)
(0.960918 -0.000282516 -1.53391e-21)
(1.05039 0.0177109 7.47315e-23)
(1.02769 0.0154024 0)
(1.03883 0.0282515 -4.46721e-21)
(1.03429 -0.0455839 0)
(1.01214 -0.00166008 1.12694e-22)
(1.02183 0.00845184 9.74696e-22)
(1.03779 0.0285067 0)
(1.01816 0.0053175 -5.25629e-23)
(0.990912 0.0281559 -4.88204e-21)
(1.00668 -6.34042e-05 0)
(1.08255 -0.0926792 1.45556e-21)
(1.01039 -0.000159527 7.28749e-22)
(0.962071 -0.0722038 0)
(1.0147 0.000614581 0)
(1.01561 0.00959503 -5.47651e-22)
(1.01791 0.00940048 1.83767e-21)
(1.09449 0.029821 0)
(0.898809 0.21548 1.4046e-21)
(0.994832 0.0306185 0)
(1.04395 0.0191644 0)
(1.01783 0.0120259 -6.7381e-24)
(1.01005 0.00106937 0)
(1.01788 0.00516434 0)
(1.01859 0.00544985 0)
(1.08389 0.01827 -1.39313e-21)
(1.01016 0.00122649 1.11942e-21)
(1.01103 0.000596392 0)
(1.03993 -0.0323363 -3.50958e-22)
(1.01872 0.0119975 0)
(1.01026 0.00111089 -2.88925e-22)
(1.10938 0.0266218 0)
(1.01816 0.00436215 0)
(1.01046 0.00218327 -9.44476e-22)
(1.01471 -0.000357187 -4.99655e-22)
(1.00243 0.0334228 0)
(1.01188 0.000549103 3.88511e-23)
(1.00138 0.0316837 1.16387e-21)
(1.0114 -0.000703778 0)
(1.01121 0.00064826 -2.08978e-22)
(1.0205 0.0120038 3.67588e-22)
(0.910877 0.0208803 -6.56059e-21)
(1.03554 -0.0221135 0)
(1.0113 -0.00070008 -6.83407e-22)
(1.01002 0.00189676 -4.81052e-22)
(1.02854 0.011194 0)
(1.01062 0.00219141 -9.5329e-22)
(1.0049 -8.5487e-07 0)
(1.0451 -0.0463204 -7.04352e-24)
(1.02993 -0.0263156 0)
(1.02701 0.0229451 2.65254e-21)
(1.0174 0.0051021 -6.62148e-22)
(1.03333 0.0098165 0)
(1.09071 0.0325786 -4.57607e-21)
(1.01172 -0.000707521 1.13754e-21)
(1.01248 -0.013716 -9.95758e-23)
(1.05052 0.0159045 0)
(1.01112 -0.000120686 4.00409e-22)
(1.02725 0.00876328 0)
(0.995067 -0.0020691 0)
(1.02035 0.0111993 3.34641e-22)
(1.0111 0.000686314 -3.89435e-22)
(1.01658 0.00749305 -1.92268e-21)
(1.00714 0.000183728 0)
(1.01512 -0.0035096 8.33023e-22)
(1.01533 0.000249473 0)
(0.968667 -0.0322853 3.05589e-22)
(1.01667 -0.00172095 0)
(1.02537 0.0222816 -2.5272e-21)
(1.00621 -3.42467e-05 5.91562e-22)
(1.01054 0.00222496 0)
(1.01593 0.00982927 0)
(1.0149 -0.00347321 0)
(1.0868 0.049052 5.05937e-21)
(0.626367 -0.0790954 3.86986e-22)
(1.04054 -0.0274565 -1.3817e-22)
(1.01942 0.000304645 1.53679e-21)
(1.12165 0.0372388 -4.85753e-21)
(1.00567 -0.0089982 7.46691e-22)
(1.01466 0.000536566 1.08884e-22)
(1.00682 -0.000163812 5.7586e-24)
(1.06864 0.0482376 1.34038e-20)
(1.01611 0.00113434 6.87419e-22)
(1.02831 0.024576 1.92003e-21)
(1.0146 -0.00142248 0)
(1.0223 0.00635703 0)
(1.02677 -0.0498855 0)
(1.05581 0.0243401 7.065e-22)
(0.895095 0.202109 -1.25364e-21)
(1.06555 0.0933166 0)
(1.01053 -0.000559125 -3.1846e-23)
(0.658372 -0.0724802 -1.47063e-20)
(1.02122 0.0124106 3.45467e-22)
(1.0102 0.00155804 7.42871e-22)
(0.803045 0.0541245 1.26705e-20)
(1.01485 0.000694751 3.0397e-23)
(1.02406 0.00763836 0)
(1.01642 -0.0044605 0)
(0.947865 0.0333254 5.26097e-21)
(1.01482 0.000765451 0)
(1.08841 0.063173 0)
(0.926928 -0.103572 -6.41282e-22)
(1.07272 0.0752836 5.84046e-22)
(1.01332 0.00545678 8.8486e-22)
(1.01024 -7.77038e-05 -1.5555e-21)
(1.07494 0.0767827 -1.15216e-20)
(1.02006 0.0190006 6.52543e-22)
(1.01339 -0.000408974 -1.76914e-21)
(1.07004 0.0173423 6.86755e-22)
(0.996232 0.0164034 -6.81423e-22)
(1.01011 0.00146036 -5.37926e-22)
(1.06986 0.048854 -3.57214e-21)
(1.08654 0.0503556 4.59875e-21)
(1.0101 -7.05465e-05 1.3636e-21)
(1.01565 0.0105955 -7.9863e-22)
(0.997861 0.0303493 -1.3678e-21)
(0.913199 -0.313024 7.13042e-21)
(1.04573 0.0611297 0)
(1.01836 0.0118906 -1.05126e-22)
(1.01149 0.000743087 -1.71904e-21)
(1.06578 0.0431661 -3.64582e-21)
(1.00763 0.000202606 -1.02436e-21)
(1.01113 4.8338e-05 -1.59005e-21)
(1.01422 -0.00040481 4.56282e-22)
(1.05253 0.0178481 -6.63443e-22)
(0.65326 -0.0685562 0)
(1.01098 -0.000105826 0)
(1.00192 1.85234e-05 0)
(1.01383 0.000607108 0)
(1.09486 0.0279075 0)
(0.996103 -0.00440337 0)
(1.01083 -0.00041026 0)
(1.02269 0.00833822 2.23669e-23)
(1.02765 0.0610607 -2.15715e-21)
(1.0221 0.00489681 -2.53019e-21)
(1.06538 -0.0123172 -3.14285e-21)
(1.09433 0.044099 5.40604e-21)
(1.02222 0.0122918 5.48239e-22)
(1.0075 0.000184948 0)
(1.04495 0.059127 6.34578e-21)
(1.09146 0.0268994 0)
(0.912646 0.262935 -1.70163e-21)
(1.0109 -6.53387e-05 -9.6194e-23)
(0.93582 0.265602 7.75784e-22)
(1.01213 0.000827344 -3.83653e-22)
(1.01104 -8.2723e-05 0)
(1.03142 0.0705191 0)
(1.02097 0.0201621 0)
(0.96169 -0.0333171 0)
(0.982724 0.0208884 -1.32617e-21)
(1.0252 0.0230207 1.28684e-21)
(1.02045 0.0077205 0)
(1.02277 0.0131666 0)
(1.11112 0.029467 0)
(1.01886 0.0192104 0)
(1.06192 0.026132 0)
(1.01929 0.0125604 -3.92959e-22)
(1.0108 -2.2666e-05 -6.12445e-22)
(1.0273 0.00851189 -4.74946e-21)
(1.01094 -4.15847e-05 1.03805e-22)
(1.09499 0.0467485 8.91865e-21)
(0.666398 -0.0809568 -6.89652e-22)
(0.946674 0.0275987 3.44131e-21)
(1.01762 0.00725167 0)
(1.01497 0.00823357 1.10459e-21)
(1.0189 0.012441 0)
(1.01512 -0.00220445 0)
(1.01702 0.00858936 0)
(1.01594 0.00210069 0)
(1.012 -0.000903837 1.01569e-21)
(1.0176 0.00132264 7.9841e-22)
(1.02927 0.0656979 -1.81296e-23)
(1.01003 -9.83662e-05 -8.71857e-22)
(1.0155 0.00233071 -1.98348e-21)
(0.950552 0.395398 0)
(0.936487 0.241075 0)
(1.0331 0.141153 0)
(1.0215 0.0100154 2.85143e-22)
(1.00341 -3.65327e-06 0)
(0.998844 0.0322884 -1.41905e-21)
(1.02202 0.0127036 5.19523e-22)
(1.03244 -0.0754511 0)
(1.18863 0.0580268 6.50701e-21)
(1.00495 0.00218638 1.42604e-21)
(1.0149 0.0246469 0)
(1.02049 0.0121658 3.5294e-21)
(1.02748 0.0158622 -1.0513e-21)
(1.03222 0.0244707 5.89434e-23)
(0.585797 0.050094 -2.34673e-21)
(1.01538 0.0488147 0)
(1.00949 0.00409352 0)
(0.951783 -0.161199 0)
(1.00803 0.000312673 7.10923e-22)
(0.911462 0.21771 -4.37516e-22)
(0.652869 -0.0629805 -1.5485e-20)
(1.05454 0.0196352 0)
(1.01569 0.0104464 1.74692e-21)
(0.548306 0.0493401 -8.00827e-22)
(1.0104 0.00167381 0)
(1.08591 0.0626944 -7.54627e-21)
(0.968966 0.0134332 0)
(0.994273 0.0781378 4.73442e-22)
(1.01819 0.0188393 4.29565e-22)
(1.02702 0.00818676 0)
(1.02154 0.00509619 0)
(0.964104 0.0742663 0)
(0.904084 0.26336 1.92469e-20)
(0.990624 0.0653625 0)
(0.89994 -0.0357623 1.23723e-21)
(1.01684 0.00940818 4.1611e-22)
(1.02115 0.00499412 -5.63673e-23)
(1.01892 0.0270656 5.79681e-22)
(1.01618 0.00308631 4.33589e-22)
(1.00552 0.0055559 -1.5913e-21)
(0.83138 0.0576059 1.47133e-21)
(0.989899 -0.274536 8.11363e-21)
(0.63183 -0.0912103 1.71389e-22)
(0.946618 -0.179816 9.71587e-22)
(0.996594 -3.88524e-05 0)
(0.974758 0.0182784 0)
(0.996138 0.00344989 0)
(1.01053 0.00244578 -2.53225e-22)
(1.01271 0.00356788 5.73189e-22)
(0.994513 -0.00119088 1.92901e-21)
(1.01154 0.0134156 -9.75182e-22)
(1.02213 0.00786717 0)
(1.01606 0.00289621 0)
(0.950199 -0.0795497 0)
(1.00946 0.0010158 -5.28494e-22)
(0.951059 -0.190668 -5.95256e-22)
(1.00184 0.00471448 1.80494e-21)
(1.09401 0.0545204 -7.94223e-21)
(1.0903 0.0312144 0)
(1.01283 0.00361541 3.16138e-22)
(1.01688 0.024754 -1.79519e-22)
(0.951727 0.218026 0)
(1.01752 0.0014654 -4.23944e-22)
(0.565331 -0.125821 0)
(1.01106 0.000683541 7.67607e-22)
(0.871724 0.0231868 1.01378e-22)
(1.01378 0.0479105 -1.04851e-22)
(1.01395 0.000259227 1.07827e-22)
(0.997558 0.00176146 2.35668e-21)
(1.0783 0.0933531 -4.81631e-21)
(1.06332 0.097317 0)
(1.00395 -3.57158e-05 8.32165e-22)
(1.00985 -0.000227305 -3.53371e-22)
(1.06335 0.0421842 0)
(1.0555 0.019958 6.25176e-21)
(1.09499 0.0565026 2.57363e-21)
(1.01615 0.000678123 3.89532e-22)
(1.0934 0.0421158 -7.28701e-21)
(1.00945 0.000952054 -1.10701e-21)
(1.18222 0.0666672 -3.33343e-21)
(1.00579 -7.58045e-05 1.84075e-24)
(1.01114 0.00354376 0)
(1.13351 0.0222645 -2.17905e-21)
(1.02326 -0.00611125 -1.10549e-21)
(1.03437 0.0143547 1.16881e-21)
(1.0057 -8.03289e-05 -3.41093e-22)
(1.01286 0.0243328 -1.07667e-22)
(1.01371 0.00393667 1.09853e-21)
(1.08499 -0.0707715 -2.51273e-21)
(0.917036 -0.0243939 0)
(1.04002 0.0254613 5.23154e-23)
(1.01002 -0.00933903 1.00062e-21)
(1.00532 -2.74389e-05 -1.65974e-23)
(1.00286 0.0195333 1.70035e-21)
(1.01944 0.0114659 -4.06819e-22)
(1.03975 0.0246452 2.06976e-21)
(0.277661 -0.0275725 0)
(1.00901 -4.39069e-05 -1.93587e-21)
(1.0464 -0.0207406 1.37927e-22)
(1.01677 0.00907154 1.57968e-22)
(1.0051 -6.1906e-05 0)
(1.03297 0.0272339 1.38698e-21)
(1.0413 -0.0610469 0)
(1.01121 -0.000922983 0)
(0.972209 0.0945139 -2.31806e-21)
(1.01578 0.00209368 1.18007e-21)
(1.07062 0.0355688 0)
(0.938943 -0.141888 -3.0144e-22)
(1.01233 -0.00173875 -9.69497e-23)
(1.01047 0.00225272 9.59769e-22)
(0.959745 0.251178 1.92971e-21)
(1.01775 0.0604307 -1.02836e-21)
(0.970455 0.382766 5.13935e-21)
(0.980853 0.0273441 6.76582e-21)
(1.01563 0.00926477 -6.51159e-22)
(1.0161 0.00260363 0)
(1.01163 -0.000101812 0)
(1.01898 0.00725483 -8.74016e-23)
(1.0171 0.0121234 -3.81183e-22)
(1.01596 -0.00417095 -2.25309e-22)
(0.947912 0.122679 0)
(0.657456 0.215884 9.23065e-21)
(1.01115 0.00351178 0)
(0.942473 -0.28951 0)
(0.931798 -0.301713 0)
(1.01164 0.00906389 -1.95664e-21)
(1.14441 0.0186101 2.28564e-21)
(1.01128 3.24262e-05 1.66446e-21)
(0.957771 0.185389 7.01332e-22)
(0.954197 0.0645488 0)
(1.0134 -0.00226024 1.90133e-22)
(0.933651 -0.162697 -1.20341e-21)
(1.06784 0.0455748 -3.41886e-21)
(0.969072 -0.0139804 0)
(1.09536 -0.048735 -2.10402e-21)
(1.01395 -0.000167221 2.84696e-22)
(1.01176 -0.000186229 0)
(1.00481 -2.09696e-05 -6.82349e-22)
(1.05105 -0.00387903 1.02381e-22)
(1.07939 0.0397034 1.17974e-20)
(1.01315 0.00556716 -3.59165e-22)
(1.03406 0.00764664 -2.49256e-21)
(0.955494 0.124746 0)
(1.02139 0.011947 -4.25833e-22)
(1.06897 0.0462563 -8.17519e-21)
(1.01183 -0.00030244 -3.33334e-22)
(1.06718 0.0428135 0)
(0.660915 -0.118382 -6.78193e-21)
(0.962546 0.0591328 6.30905e-22)
(0.997272 -0.00253748 0)
(0.974651 0.0519538 -8.28151e-22)
(1.01324 0.06271 4.85247e-22)
(0.884167 -0.280045 -9.48031e-21)
(1.01584 0.0253781 0)
(1.0099 0.00167742 0)
(1.00725 0.0226637 -8.41549e-22)
(1.09179 -0.0301555 1.43042e-21)
(1.0194 -0.0117189 -6.50183e-22)
(1.07954 0.0364298 1.611e-21)
(1.01332 0.00555554 -6.6369e-22)
(0.967064 0.165555 0)
(1.01377 0.0005518 -2.89899e-23)
(1.01593 0.00972911 -9.5588e-23)
(1.14664 0.267518 0)
(1.00386 -4.40126e-05 0)
(1.00651 0.0241515 3.91162e-22)
(1.0326 0.0109666 0)
(0.976395 0.0904002 -1.18189e-21)
(1.0211 0.00115964 -1.49931e-23)
(1.015 0.00126342 0)
(1.03099 0.0269084 -3.73244e-21)
(1.01163 0.0248003 3.59879e-22)
(1.01058 -0.000550991 -6.9437e-22)
(1.01295 -0.0019446 0)
(0.997973 -0.00340552 0)
(1.04281 0.156513 5.39893e-22)
(1.02646 0.0221758 3.05163e-21)
(1.00671 6.34345e-05 -9.53964e-22)
(1.0202 0.0687681 -1.68747e-21)
(0.919967 -0.121601 7.05671e-24)
(1.01272 0.00489353 -8.1787e-22)
(0.975079 0.0410928 0)
(1.07457 -0.00771138 0)
(1.02173 0.004849 2.21355e-21)
(0.886833 0.283157 0)
(1.01099 -0.000611638 0)
(1.16537 0.0523736 2.69863e-21)
(1.01774 0.00335656 0)
(1.01698 -0.00439543 0)
(1.12843 0.0208474 4.65733e-21)
(1.0169 0.0188184 -2.73553e-23)
(0.908246 -0.306504 -5.56305e-21)
(1.02666 0.0214743 -4.02264e-23)
(1.01506 0.00118974 0)
(0.882186 0.291113 0)
(1.01756 0.00341243 0)
(1.00974 -1.04333e-05 2.21089e-21)
(1.01269 0.000610429 0)
(1.00999 0.0017768 0)
(1.00491 0.0243097 -7.75855e-23)
(1.0231 0.0599727 -7.71056e-22)
(0.882363 0.199896 0)
(1.00407 -1.65383e-05 0)
(0.569821 -0.115179 0)
(1.01586 -0.00168261 -2.07635e-21)
(0.965281 0.0331637 0)
(1.0168 -0.109869 -1.39708e-20)
(1.01571 0.0109461 4.23681e-22)
(1.01766 0.00526392 1.02526e-21)
(1.01378 0.0252013 -9.27054e-23)
(1.01242 -0.00111621 -1.31332e-21)
(1.10258 0.0418523 6.33876e-21)
(1.01368 0.00380307 1.00126e-23)
(1.00983 3.13381e-05 3.58257e-22)
(1.01121 -6.55182e-06 7.90169e-22)
(1.01316 0.0054644 -3.34848e-22)
(1.01725 0.00147569 -3.74856e-22)
(1.15915 0.0150131 2.96522e-21)
(1.01766 0.00656868 0)
(1.07099 0.053381 1.88346e-21)
(1.0118 0.00381959 1.12588e-21)
(1.00408 0.00411887 1.56641e-21)
(1.01548 0.00760215 -2.5513e-21)
(1.02311 -0.000626458 -5.21411e-22)
(0.986675 0.0129377 0)
(1.00983 -0.000117043 2.17986e-24)
(1.09387 0.0456001 0)
(1.01615 0.0727952 3.18753e-22)
(1.01055 -0.000431637 0)
(0.994894 -0.264744 -9.89063e-21)
(0.682004 -0.106892 -6.74915e-21)
(1.0065 -6.85762e-05 1.83747e-22)
(0.966703 0.00626761 2.66311e-21)
(1.00513 -1.33712e-05 4.4225e-22)
(1.06573 -0.0141019 -3.11606e-22)
(1.06974 0.0360531 -5.05679e-21)
(1.01336 -0.00217571 -1.34558e-22)
(1.0648 0.0419897 0)
(1.00868 0.0227376 8.49354e-22)
(0.968046 0.0230835 0)
(1.00603 -2.91993e-05 0)
(1.05213 0.0168668 -4.51251e-21)
(0.91745 0.0488761 -1.41438e-21)
(0.94692 0.0776175 2.22441e-21)
(1.02851 -0.0541055 -1.47175e-21)
(1.01721 0.00158957 4.5974e-22)
(1.03752 0.0489146 2.07555e-22)
(1.08914 0.0404986 1.70945e-20)
(0.951988 0.17556 -6.93439e-22)
(1.0163 0.000774445 -1.20447e-21)
(1.03657 0.0178185 0)
(1.01362 -0.000137652 2.25888e-21)
(1.01758 0.0085731 0)
(1.01104 0.00306788 5.45186e-22)
(1.00645 -8.18388e-05 1.09653e-22)
(1.00916 -2.83236e-05 -4.63553e-22)
(0.961044 0.0142892 -9.09743e-22)
(1.02074 0.00697023 -8.34533e-22)
(1.00747 7.5196e-05 0)
(1.0094 1.33391e-05 7.76097e-22)
(1.00715 -0.000127483 4.56438e-22)
(1.01786 0.0113429 0)
(0.950575 0.0742718 -3.67731e-21)
(1.08895 0.0410723 -1.49215e-20)
(1.01163 -0.000113033 2.34066e-21)
(1.01076 0.0237948 -5.56741e-23)
(1.01526 0.0081964 -2.80298e-22)
(1.01502 0.00814115 0)
(1.01562 -8.13146e-05 0)
(1.01011 0.00199364 -5.29938e-22)
(1.03211 -0.0201698 0)
(1.00954 -2.79807e-06 0)
(1.00964 0.00139008 0)
(1.00514 2.366e-05 -1.01875e-21)
(1.0211 0.0097457 4.4394e-22)
(1.01235 0.0110697 -1.72856e-21)
(1.01539 -0.00218 8.99537e-22)
(1.09567 -0.00351473 1.32618e-21)
(0.857233 0.0216368 5.65619e-21)
(1.03903 0.0263624 1.7068e-21)
(1.00953 0.00122599 -9.75903e-22)
(1.09089 0.0286154 -2.08658e-21)
(1.00972 3.35264e-05 1.75626e-22)
(1.00954 1.03852e-05 0)
(1.01605 -0.0019928 8.68796e-22)
(1.03449 -0.0472875 1.64238e-21)
(1.01645 0.00698752 1.08286e-21)
(1.01591 -0.00147573 -1.69323e-21)
(1.01135 4.00089e-05 0)
(1.00957 -9.29296e-05 -9.06486e-22)
(1.01918 0.00642768 3.60389e-21)
(1.00953 -0.000129572 0)
(1.02241 0.00855536 -1.15669e-21)
(1.01351 0.00364863 0)
(1.02064 0.0115729 -4.3207e-22)
(1.01111 0.00306537 -5.22333e-22)
(1.03613 0.0174474 3.79478e-21)
(0.856525 0.136742 -7.10706e-22)
(1.00987 0.00159973 1.12966e-21)
(1.02318 0.0124641 7.93971e-22)
(1.00774 0.000203102 0)
(1.13042 0.132501 2.73712e-21)
(1.00705 0.0801918 -1.42796e-22)
(1.05643 0.026948 0)
(1.01684 0.0119771 3.88659e-22)
(1.00459 -0.00683569 -1.72724e-21)
(1.00095 0.00591119 -1.82741e-21)
(1.03453 -0.0129842 0)
(0.648729 0.0448637 3.72809e-22)
(1.00461 5.66386e-06 -1.08315e-21)
(0.979181 0.0602747 0)
(1.02318 0.0127925 0)
(1.00824 -0.142373 0)
(1.00934 0.00567485 3.55611e-21)
(1.01134 -9.64287e-05 -4.06902e-22)
(1.01243 -0.000958729 0)
(1.06449 0.165975 1.67162e-21)
(1.0121 -0.000910446 3.22717e-22)
(1.0574 0.0272797 0)
(1.01203 -0.0100953 0)
(1.11062 0.0236308 0)
(0.978228 0.0156409 -1.13837e-21)
(1.00586 0.000128019 8.79801e-22)
(1.00735 7.73762e-05 4.25997e-24)
(1.00672 -6.68092e-05 0)
(1.01258 0.00471641 1.18657e-21)
(1.06277 0.0267482 0)
(1.10804 0.0781994 8.30743e-23)
(1.06537 -0.10959 4.11995e-21)
(1.06026 0.0621616 0)
(1.02426 0.00201614 2.06824e-21)
(1.00969 -0.000178568 0)
(1.006 0.000192292 0)
(1.0112 0.00305674 -4.72482e-22)
(1.01087 0.000273532 0)
(1.02521 0.0109792 -7.91024e-22)
(1.07022 0.0545613 1.97974e-21)
(1.02043 0.00563253 0)
(1.03705 -0.0528575 1.1822e-23)
(1.02385 0.00197688 -2.17823e-22)
(1.02034 0.00215958 0)
(0.996016 -0.00159769 -2.44569e-21)
(1.01621 0.00278249 0)
(1.09317 0.0265118 3.96147e-21)
(1.0626 0.0617849 4.83918e-21)
(1.01476 0.0658103 -5.08e-22)
(1.11823 0.0440714 0)
(0.839299 0.0250654 -9.15432e-22)
(1.01908 0.00010124 4.39469e-21)
(1.0104 0.00235906 6.63178e-22)
(1.00967 -0.000143245 0)
(1.02707 0.00735905 -1.36192e-21)
(1.01399 0.000795964 0)
(1.10408 0.0108597 0)
(1.07824 0.0412959 2.74464e-21)
(1.10244 0.0440165 -1.18658e-20)
(1.01115 -0.000166681 -7.22063e-22)
(1.0211 0.00940658 0)
(1.01513 -0.00269348 -1.10346e-21)
(1.01099 0.000232662 0)
(0.682164 0.0456002 0)
(0.994683 -0.000289292 9.30616e-23)
(1.00969 -7.69649e-06 0)
(1.0121 -0.000950336 -6.73904e-22)
(1.00625 -1.71327e-05 0)
(1.01113 0.0031402 -1.10547e-21)
(1.01018 0.00131654 0)
(1.01475 -0.00014265 -1.80272e-21)
(1.10518 0.00442909 -4.33933e-21)
(1.01194 -0.000876489 -3.00375e-22)
(1.00934 0.0043931 0)
(1.01113 -0.000167241 -1.21879e-21)
(1.00867 0.000224941 -5.68803e-22)
(1.01106 0.00313873 -1.12592e-21)
(1.01734 0.00832288 -6.03716e-24)
(1.02154 0.0119617 -4.29948e-21)
(1.00865 0.000202091 0)
(1.02178 -0.00721075 -1.71806e-21)
(1.01138 2.34012e-05 -8.11085e-22)
(1.03631 -0.0275269 -2.31131e-22)
(1.1381 0.0166388 1.99152e-21)
(1.01776 0.00892913 -1.90361e-21)
(1.07717 0.0246578 7.02098e-22)
(1.01625 0.00351401 -5.52365e-22)
(1.03219 0.00811104 6.40469e-21)
(1.08836 0.0519057 -4.9122e-21)
(1.04385 0.0449634 3.81872e-23)
(1.01374 0.000613614 2.47361e-22)
(1.0076 2.45566e-05 0)
(1.00847 -5.02389e-05 0)
(1.01334 0.00747267 0)
(1.00403 -6.65739e-05 -4.01498e-22)
(1.02051 0.000608151 -1.19355e-22)
(1.04418 -0.000259602 0)
(1.01722 0.00875064 3.04391e-23)
(1.00964 0.00212737 0)
(1.0212 0.000653374 1.13051e-22)
(1.02198 -0.139486 0)
(1.04027 0.0251136 0)
(1.00403 1.30345e-05 -9.45219e-22)
(1.00723 -1.8585e-06 -1.42068e-21)
(1.0123 0.014193 9.40531e-22)
(1.03649 0.0652249 2.36302e-21)
(1.01245 0.00368729 9.02357e-23)
(1.06949 0.0933016 -2.82142e-22)
(1.00791 0.00015876 4.44723e-24)
(1.0104 -0.000515128 6.8115e-22)
(1.03935 0.0271248 5.25052e-21)
(0.924955 -0.0082375 0)
(0.885951 -0.0461187 -5.53043e-22)
(1.0641 0.00846497 -2.49329e-22)
(1.10181 0.00237223 4.42915e-21)
(1.01058 -0.000237255 0)
(1.02525 -0.010051 1.85095e-21)
(0.937669 0.0192207 4.95341e-21)
(1.01052 0.0153949 0)
(1.01243 0.00463633 2.75143e-22)
(0.938744 0.0260609 -4.89978e-21)
(1.00518 0.000976301 -2.80507e-21)
(1.1176 0.159205 8.45031e-21)
(0.914627 -0.00579714 0)
(1.00653 -0.000160451 0)
(1.01057 -0.000196631 0)
(1.02149 0.00112322 0)
(1.01059 0.00680754 0)
(1.01075 -0.000240233 0)
(1.06883 0.0288809 -5.05586e-22)
(1.06991 0.00146236 0)
(1.00938 2.67848e-06 0)
(1.01713 0.00897404 0)
(1.01762 0.0121116 0)
(1.06888 0.0409674 0)
(1.01261 0.00500656 0)
(1.01281 -0.000146448 2.67407e-22)
(1.02928 -0.0101999 0)
(1.01322 -0.00279997 -8.37384e-22)
(1.01254 0.000223553 0)
(1.05692 0.00439954 2.70919e-22)
(1.10098 0.0790654 0)
(1.09713 0.060753 5.32665e-21)
(1.01402 0.000917164 -1.14175e-22)
(1.01037 -0.000171701 6.90099e-23)
(1.00963 2.84848e-07 -1.08706e-21)
(1.01536 0.0023671 4.12899e-22)
(1.02265 -0.00197981 1.67576e-21)
(1.01594 -0.0136336 7.18991e-22)
(1.01008 0.000917494 1.17624e-21)
(1.00779 3.20219e-05 0)
(1.01928 0.00111311 -5.49098e-22)
(1.02826 0.0530802 -6.15137e-22)
(1.00895 -0.000102996 4.93886e-22)
(1.01806 0.000803847 -9.19385e-22)
(1.05904 0.096812 3.26655e-21)
(1.01026 0.00119302 -3.18907e-22)
(1.00897 0.000546484 -1.11138e-21)
(1.01758 0.00293627 0)
(0.635645 0.107584 1.77581e-21)
(1.01027 -0.000150302 -1.48191e-21)
(1.02072 0.00214403 0)
(1.00907 -0.000113857 -4.99521e-22)
(1.01583 -0.00422116 -1.73336e-21)
(1.01012 -0.000181142 0)
(1.0344 0.0338739 0)
(1.10955 0.0320389 0)
(1.0183 0.000932596 1.28426e-21)
(1.11506 0.142379 -7.17736e-21)
(1.04099 0.0427642 0)
(1.09292 0.0135992 0)
(1.07149 0.0700875 -5.6331e-21)
(1.0105 0.00186327 0)
(1.0099 0.0166304 -1.01495e-21)
(1.01012 0.00070169 3.07199e-22)
(1.00891 0.000498476 0)
(1.01061 0.0016016 0)
(1.09998 0.0319975 1.28281e-21)
(0.935532 -0.185608 0)
(1.00879 -0.0191639 8.16704e-22)
(1.04917 0.0334237 4.11658e-21)
(0.938312 0.0694885 0)
(1.08978 0.0515932 1.0604e-20)
(1.0142 -0.0034721 0)
(1.10503 0.0775063 0)