/*--------------------------------*- C++ -*----------------------------------*\
| =========                 |                                                 |
| \\      /  F ield         | OpenFOAM: The Open Source CFD Toolbox           |
|  \\    /   O peration     | Version:  v2012                                 |
|   \\  /    A nd           | Website:  www.openfoam.com                      |
|    \\/     M anipulation  |                                                 |
\*---------------------------------------------------------------------------*/
FoamFile
{
    version     2.0;
    format      ascii;
    class       volScalarField;
    location    "150";
    object      omega_0;
}
// * * * * * * * * * * * * * * * * * * * * * * * * * * * * * * * * * * * * * //

dimensions      [0 0 -1 0 0 0 0];


internalField   nonuniform List<scalar> 
9793
(
0.134801
0.213701
0.11705
0.0210205
1.80709
0.0230584
0.0220357
0.0207958
0.021611
1.73915
0.0459147
0.0676342
0.0210733
0.0207737
0.0231956
0.0205663
0.0233406
0.0237674
1.58441
0.0207508
0.0656516
0.0235044
0.0731666
0.0195838
0.0219409
0.0211846
0.0208682
0.0210954
0.0382005
0.0216023
0.0331735
0.0575871
0.40767
0.0219415
0.0426884
0.0884202
0.0226773
0.0234813
0.0208866
0.0211289
0.0324892
0.0232257
0.0222754
0.0221681
0.0222949
0.0213948
0.0409165
0.275241
0.420464
0.0209903
0.0439382
0.0504444
0.0233971
0.0216724
0.45941
0.0898931
0.021445
0.0755618
0.762674
0.0208728
0.021824
0.0233896
0.760419
0.0219581
1.94611
0.375148
0.753081
0.719933
0.0638559
0.0455095
0.585202
0.0209739
0.0211565
0.202243
0.048967
0.687458
0.0214398
0.0202865
0.0222535
0.0212754
0.399834
0.0219103
0.225457
0.0128795
0.0299595
0.227735
0.0216027
0.0214366
0.0227819
0.0222175
0.203353
2.05209
0.0206482
0.0437309
0.0230651
0.0202277
0.084654
0.215255
0.0205723
0.020354
0.0203265
0.0218623
0.020494
0.0204675
0.0202738
0.0295367
0.0225982
0.0219064
0.023017
0.273643
0.0211639
0.0631564
0.0214231
0.112386
0.0500737
0.0214491
0.31979
0.0475268
0.0224985
0.0392975
0.279666
0.0227874
0.0213487
0.0233695
0.0220172
0.0647355
0.0332915
0.199227
0.0227356
0.0211755
0.0215704
0.0214462
0.0211774
0.0220294
0.0215716
0.0214356
0.0223245
0.0219766
0.0214145
0.019987
0.0213371
0.0218155
0.021235
0.0203703
0.0210426
0.0221622
0.21419
0.0203803
0.0205311
2.11489
1.10455
0.0215583
1.16304
1.67605
0.020486
0.022255
0.0207371
0.021719
0.0203414
0.0211803
0.020799
0.0210794
0.0202916
1.60121
0.208068
0.0720456
0.265931
0.0259033
0.0206518
0.021326
0.0212328
0.190399
0.209467
0.231843
0.0219405
1.60729
0.0214443
0.0195865
0.0212006
0.0261416
0.807052
0.022309
0.0203677
0.0218352
0.482504
0.0211391
0.0846095
0.0211938
0.0213248
0.020305
0.0219459
0.0213351
0.546911
0.0640836
0.730207
0.0259006
1.60094
0.0212024
1.59663
0.0200639
0.0215648
1.45103
0.0965491
0.0211808
0.0214465
0.0200738
0.0779625
0.0203476
0.0272762
0.0225684
0.0289877
0.466122
0.460049
0.0217028
1.72247
0.0206348
0.0214642
0.415095
0.0200759
0.700449
0.0643192
0.0213833
0.0220237
0.0213373
0.0604123
1.6085
0.0230969
0.0204573
0.0634752
0.0395789
0.0196187
0.0195873
0.0223571
0.0202214
0.0370921
0.704619
0.0213959
0.021141
0.0785924
0.0216359
0.0269957
0.0205872
0.0210883
0.390474
0.0210991
0.0205265
0.0207815
0.0216995
0.0205802
0.0217958
0.0218582
0.0238832
0.0472982
0.035116
0.0210368
0.024331
0.0212128
0.0241384
0.0230566
0.0202846
0.348204
0.0211183
0.0470965
0.0215881
0.0261965
0.0197337
0.0197092
0.0289153
1.43057
0.0223035
0.0203179
0.0200513
0.0272044
0.0214035
0.197415
0.203419
0.0211849
0.0692777
0.0213784
0.0351948
0.021625
0.0196528
0.0223755
0.0209962
0.0332409
0.0213792
0.0218548
0.0252228
0.0211305
0.0214378
0.0214038
0.341805
0.0224927
0.0228037
0.0216293
0.0220165
0.0222195
0.0256287
0.0212523
1.50035
0.020491
0.465409
0.31557
0.0223721
0.0221534
0.0203422
0.0280075
0.024659
0.0215412
0.47948
0.0217834
0.0203221
0.0248661
0.0220339
0.0216104
0.0219007
0.110641
0.0211042
0.0261853
0.0226214
0.0210114
0.201309
1.69381
0.202906
0.0198883
0.470448
0.0223694
0.839823
0.0549482
0.0201256
0.0229265
0.0547542
0.0216426
0.0255199
0.0534902
0.0207544
0.0221407
0.0215412
0.0211205
0.0211781
0.869813
0.0211957
0.0209971
1.52279
0.0216573
0.0205252
0.0198519
0.0226621
0.0207703
1.45121
0.0221092
0.0214033
0.0218011
0.0218419
0.0649745
0.0216404
0.0337937
0.0195963
0.032285
1.4878
0.0854516
0.0337833
0.0225841
0.0226658
1.71121
0.0218707
0.344836
0.0216732
0.0202781
0.28794
0.0252204
1.66982
0.021407
0.0393309
0.0977381
0.0229839
0.0211147
0.373401
0.0247937
0.209476
0.0243609
0.0216034
0.246736
0.0212823
0.0225433
0.021795
0.0214058
0.0209009
0.0216381
0.0238526
0.0898291
0.0218195
2.22623
0.155423
1.71458
0.0397811
0.203902
0.0210465
0.0215392
1.86951
0.205712
0.020656
0.0218808
1.28912
0.0200411
0.12631
0.0211637
0.0238856
0.0200211
0.0303641
0.0211879
0.0251981
0.0702877
0.0203698
0.101644
0.0252038
0.0222247
0.0254683
0.0214751
0.022382
0.0221634
0.64504
0.0213522
0.0216383
0.0529223
0.0215765
0.0230134
0.0223641
0.0202351
0.0268016
0.0211944
0.0216524
0.0199633
0.37233
0.0217034
0.397929
0.0213436
0.665401
0.0232005
0.0214812
0.0225738
0.0218229
0.58852
0.0211785
1.6878
0.020384
0.0212501
0.022518
1.09211
0.034773
0.444182
0.552684
0.0233964
0.0212702
0.0385621
0.0266956
0.029697
0.222848
0.399148
0.0216699
0.0234508
0.0394698
0.0213572
0.022171
0.021335
0.0204934
0.0222094
0.113402
0.0252788
0.340906
0.0205297
0.0284944
0.0195714
0.021779
0.0216574
0.0219578
0.0388214
0.0214522
0.0228387
0.0200224
0.0214355
0.0234219
0.286432
0.0212525
0.0212676
0.365451
0.0242321
0.022115
0.769804
0.648063
0.0215604
0.0219307
0.022696
0.0234842
0.0216739
0.022555
0.0221889
0.0213004
0.0212369
0.0210534
0.216735
0.0526099
0.0207469
0.58177
0.0331145
0.0204542
0.0225192
0.0222227
0.0592282
0.0216112
0.0928364
0.0201558
0.0211022
0.0435302
0.0213133
0.0297852
0.280369
0.0269995
0.0204381
2.34266
0.0239741
0.0205548
0.0212339
0.0446335
0.0209381
0.0205399
0.0212742
0.0209302
0.362526
0.0371262
0.0321863
0.0227641
0.0211936
0.0210516
0.0215304
0.0210298
0.0212909
0.0521371
0.0938444
0.0200735
0.0230659
1.88237
0.0214147
0.206402
0.0349331
0.0208941
0.0488709
0.297412
0.0213973
0.110974
0.0196681
0.100529
0.0249116
0.223058
0.0211311
0.0210694
0.0229454
0.177214
0.0227556
0.763659
0.41914
1.85812
0.0305028
0.0945698
0.0296277
0.0232241
0.0277389
0.0228509
0.300677
0.0216401
0.681629
0.0199361
0.254133
0.0222043
0.021998
0.0210315
0.124619
0.019981
0.0208223
0.0223673
0.0228679
0.0257054
0.0211701
0.0212753
0.0213829
0.021354
1.56993
0.0209864
0.39772
0.296861
0.0209987
0.0220127
0.0292623
0.0218812
0.0213275
0.0219336
0.0230548
0.024892
0.0222291
0.0228672
0.0204995
0.0225815
0.0223686
0.0243
0.0219607
0.0228139
0.468225
0.0213839
1.03509
0.0244011
0.0221615
0.0212863
0.0207325
0.0228447
0.0232105
0.0210844
0.0217041
0.0195462
0.0210765
0.0216769
0.0211801
0.0240485
0.0198756
0.0220003
0.0221604
0.0216036
0.0238291
0.0222875
0.0285959
0.0225605
0.0210267
0.0212963
0.0205372
0.0200328
0.0210538
0.020081
0.020979
0.0213926
0.0199692
0.031256
0.0211439
0.0224401
0.0213648
0.66773
0.0210439
0.0200106
0.0450752
0.0196618
0.0216708
0.135314
0.0219666
0.0225986
0.0215622
0.0755749
0.0207442
0.0421174
1.84238
0.294048
0.411886
0.0215998
0.0213754
0.390518
0.0235133
0.0199809
0.206337
0.688159
1.92973
0.0213071
0.0482486
0.0213777
0.0213576
0.121302
0.0211945
0.108565
0.0238817
0.0526544
0.0210116
0.0236562
0.0222914
0.122916
0.652314
0.0212011
0.0233079
0.025466
0.02097
0.0233507
0.0423944
0.243288
0.0211022
0.225325
0.0234645
0.329254
0.19164
0.338364
0.257527
0.0214119
0.0282051
0.441428
0.0210448
0.0211672
0.0223793
0.0222292
0.0199598
0.103397
0.019952
0.403532
0.0228457
0.18526
0.0453082
0.0215508
0.11125
0.58648
0.0219659
0.21404
0.0277046
0.0595851
0.0199709
0.019651
0.343201
0.0214142
0.602397
0.0209869
0.266799
0.0205264
0.286298
0.318438
0.0213956
2.74648
0.0214289
0.0224287
0.0314554
0.250107
0.33808
0.0200308
0.0205484
0.0200325
0.275047
1.48492
0.0228989
0.0249384
0.230946
0.0200013
0.0210021
0.0221609
0.137057
0.0248899
0.02151
0.0209669
0.0208344
0.419894
1.91947
0.227095
0.0205433
0.0209367
0.66256
0.0211801
0.240493
0.0374241
0.40581
0.26245
0.262223
0.0208819
0.0215547
0.0232687
0.022211
0.024511
0.0212246
0.0479536
0.386989
0.0204765
0.510382
0.0208227
0.119326
0.0216961
0.250135
0.0252895
0.0248408
0.0211207
0.0206791
0.146947
0.377182
0.411594
0.0214948
0.031419
0.0219114
0.0229728
0.0239452
0.432728
0.0245429
0.0594975
0.0208696
0.0257536
0.0211789
0.0199014
0.0219923
0.0209653
1.94548
0.0211548
0.0230469
0.0226144
0.0219933
0.0199483
0.0501768
0.0216054
0.0221012
0.0208983
0.0210136
0.276908
0.021056
0.0598995
0.0204969
0.209412
0.0209576
0.0974543
0.0211181
0.0613099
0.0217221
0.0214577
0.0208932
0.318617
0.265945
0.189132
0.551452
0.644311
0.0213956
0.0231686
0.172968
0.0200146
0.310794
0.318977
0.0500969
0.0887799
0.022919
0.295171
0.0239647
0.417208
0.193814
0.0228322
0.0216786
0.28667
1.44903
0.0242335
0.0240673
0.0212092
0.022368
0.0302033
0.021045
0.0200117
0.0222613
0.238883
0.0314598
0.0233544
0.308729
0.0209121
0.0200994
0.254888
0.397419
0.0309045
0.0220659
0.201981
0.0205584
0.019998
0.309696
0.0199564
0.0227461
0.30358
0.309114
0.0216154
0.311671
0.870295
0.0553692
0.381136
0.381713
0.0225192
0.671076
0.0218629
0.0208579
0.0213837
0.0216483
0.0222966
2.66317
0.0225913
0.328404
0.0207542
0.0388646
0.0220367
0.0307806
0.0264322
0.0215858
0.0373783
0.0207886
0.0200384
0.0667632
0.0253704
0.0276008
0.021698
0.0201099
0.280368
0.177561
0.0243399
0.0195635
0.0195532
0.0208668
0.0225837
1.63005
0.0647983
0.374612
0.0304289
0.3378
0.0215764
0.0289122
0.0256524
0.0235485
0.0829656
0.0211347
0.0210242
0.0740501
0.0315953
0.999296
0.0210811
0.322313
0.235351
0.0243492
0.033901
0.0231297
1.62341
0.0215526
0.0242081
0.239747
0.0234748
0.0210951
0.190848
0.0217991
0.020512
0.021004
0.252528
0.0218904
0.0245829
0.049293
0.0329475
0.0256706
0.0313449
0.0244645
0.441651
0.0134938
0.0200502
0.0215745
0.0221264
0.0262667
0.0213592
0.648182
0.251138
0.0231432
0.0923242
0.232855
0.378959
0.0216086
0.264109
0.0212648
0.316207
0.0564073
0.0206432
0.228712
0.395816
0.0208652
0.0215105
0.0214349
0.2104
0.204718
0.0265757
0.0443174
0.188089
0.121402
1.02122
0.243403
0.0214912
0.0213966
2.66762
0.639379
0.0211087
0.0213574
0.0200585
0.021936
0.0216711
0.0240653
0.205653
0.0213276
0.0240098
0.627918
0.0217398
0.0219043
0.0249441
0.644347
0.0215776
0.0236276
0.105058
0.021963
0.0200923
0.0220483
0.0209257
0.0227956
0.311793
0.409572
0.0217366
0.228414
0.0250898
0.221464
0.0213597
0.0228036
0.0225863
0.0218923
0.274764
0.0219487
0.0223406
0.0266096
0.0221811
0.0208823
0.0244161
0.0212341
0.0779265
0.0215464
0.0210564
0.177619
0.0211087
0.521311
0.0264901
0.0209855
0.273379
0.0232542
0.0286709
0.0814004
0.0202826
0.0598754
0.0209903
0.0213858
1.52932
0.777536
0.0203078
0.0215256
0.0207122
0.0217165
0.0619763
0.0224756
0.0215912
0.0221727
0.0222235
0.0220817
0.0213401
0.0203124
0.0209687
0.0211944
0.409366
0.0246304
0.0200409
0.0339614
0.0222925
0.640166
0.215869
0.0291899
0.0215061
0.0212542
0.0565597
0.0238115
0.0214446
0.0218142
0.252295
0.121544
0.0213698
0.0198344
0.0521685
0.0477461
0.0196252
0.418534
0.0343153
0.0215321
0.0219988
0.041364
0.0216657
0.0296182
0.380629
0.0219602
0.0533726
0.0544236
0.114628
0.019836
0.0213678
0.0198544
0.0198365
0.115661
0.0211039
0.0461468
0.0449895
0.0198434
0.0220521
0.0329734
0.02172
0.0217101
0.0213885
0.0227368
0.0428383
0.0198488
0.0215263
0.337642
0.0224329
0.021657
0.0264978
0.0211239
0.0216819
0.0212092
0.0215133
0.024215
0.0218763
0.0909215
0.116669
0.0198502
0.0214308
0.0198479
0.0846828
0.021024
0.0249679
0.0213139
0.0202502
0.0286622
0.0204501
0.0269676
0.0214159
0.0204651
0.251689
0.363652
0.0217717
0.0216281
0.0209677
0.380236
0.0898168
0.0213904
0.113012
0.53107
0.0218618
0.151816
0.238228
0.0240864
0.287553
0.0401132
0.135859
0.0212157
0.0301953
0.0771444
0.0204277
0.24842
1.83105
0.021389
2.35251
2.96865
0.0239379
0.261736
0.0198428
0.0257368
0.040953
0.0212524
0.275557
0.0198502
0.0347958
0.061904
0.0198382
0.0724919
0.0219881
0.0219674
0.0293781
0.0233563
0.21346
2.62612
0.0201406
0.0238176
1.53107
0.0207363
0.0239255
0.0208337
0.281645
0.627427
0.0215209
0.0216246
0.0240793
0.609386
2.4766
0.0266269
0.019853
0.0209124
2.50721
0.0651209
0.384842
0.0232265
0.0233875
0.0247632
0.0200832
0.0223863
0.0244708
0.0235836
0.0209272
0.024325
0.406075
0.0670906
0.0209805
0.150777
0.024648
0.0658447
1.52811
0.0416313
0.467917
0.0809055
0.0198572
0.0905888
0.0957439
0.490237
0.255486
0.021304
0.0988967
0.2412
0.0391822
0.0254242
0.259743
0.245573
0.0210959
0.024377
0.0237748
0.0212326
0.0556237
0.0213
0.0221119
0.0206449
0.0198562
0.0219043
0.0213839
0.0230519
0.0244055
0.38589
0.0244754
0.257057
0.0208469
0.0249953
0.0216012
2.18863
0.184378
0.0212055
0.0408819
0.0218439
0.0202605
0.0213003
0.0202247
0.0210905
0.089536
0.0216567
0.182925
0.0216262
0.0209562
0.404234
0.0225041
0.0218549
0.0211426
0.0213135
0.0453167
0.0552087
0.283094
0.165956
0.641512
0.0215576
0.0217857
0.0217217
0.0236217
0.0399988
0.0628099
2.28362
0.0209906
0.0391148
0.0222189
0.163772
2.28822
0.0239306
2.62389
1.30687
0.0227037
0.037659
0.0209428
0.0382469
0.0230583
0.0710317
0.0370121
0.0198657
3.06234
0.460218
0.0217171
0.0226835
0.0219698
0.163233
0.0221599
0.0217884
0.0355065
0.0208284
0.188658
0.0265
0.0239414
0.0221684
0.0218728
0.426967
0.0211644
0.40326
0.0237675
0.0213274
0.0207475
0.0439207
0.0229165
2.51764
0.0226767
0.0245147
0.0251961
0.0586827
0.0228384
0.021369
0.264453
0.0217268
0.0204355
0.0798991
0.26901
0.0244216
0.0205307
0.0223988
1.27668
0.0603451
0.0211669
0.155025
0.0209016
0.0853233
0.056324
0.0220063
0.0211366
0.0724314
0.0209732
0.0207611
0.0213772
0.064789
2.59775
0.0336579
0.0242741
0.0218278
0.0220829
0.226191
0.0327291
0.0216098
0.0217605
0.021055
0.0594317
1.19302
1.19347
0.021244
0.109241
0.020263
0.0202014
0.0226496
0.0220442
0.0369278
0.0213584
0.0651217
0.0220672
2.65738
0.0236167
0.0215385
0.0215794
0.0356319
0.0206293
0.0213219
0.0344361
0.0215464
0.0212866
0.0224753
0.0243084
0.0200308
1.65214
0.0358726
0.023997
0.0232334
0.0424229
0.0230155
1.63522
0.0213789
0.0212718
0.0215205
0.0210683
0.0214988
0.0209272
0.347192
0.088363
0.0216298
0.022114
0.021292
0.0239468
0.023398
0.0545767
0.0221781
0.577394
0.0213135
0.0219983
0.0218623
0.0638823
0.0215181
2.03436
0.0215085
0.0215748
0.0195626
2.51374
0.023183
0.0709059
2.42937
0.0221464
0.0215105
0.021151
0.021417
0.0311232
0.0220408
0.0242457
0.67756
0.0216266
0.0563927
1.61408
0.0234383
0.0850068
0.0216177
0.023237
0.0209998
0.02041
0.0202794
0.0213638
0.207133
0.0713373
0.0208517
0.550588
0.0517195
0.0212609
0.0996472
0.020385
0.0342792
0.022215
0.0210352
0.324359
0.0215428
0.0226348
0.024582
0.0569997
0.0613383
0.0221468
0.0209855
0.0227899
2.84035
0.103162
0.0323342
0.0252779
0.0214932
0.0214239
0.0625198
0.0218981
0.027664
0.0478911
0.0572598
0.0215181
0.0313581
0.0215715
0.0219498
0.0334592
0.0282865
0.0321553
0.0221655
0.021969
0.0251112
0.358949
0.0430235
0.0204369
0.0242333
0.0722541
0.0234611
0.0367667
0.0216891
0.0218478
0.0213502
0.037341
0.650014
0.0566243
0.0215388
0.542916
0.0239878
0.0257334
0.0215432
0.0213525
0.0213678
0.0200549
0.0562527
0.0234855
0.0225853
0.0221735
0.0213779
0.0215003
0.152779
0.0214162
0.0214062
0.0218893
0.504239
1.29195
0.0214772
0.0211983
0.0215021
0.270849
0.0222856
1.38546
0.0215232
0.0524304
0.0214871
0.0218097
0.040709
0.0217896
0.0294144
0.0217869
0.0214567
0.020402
0.0229344
0.135394
0.0219914
0.022086
0.282935
0.0216669
0.0226749
0.0221213
0.0217131
0.0213003
0.0221535
0.0568323
0.0207751
0.0208385
0.0209557
0.406038
0.0242039
0.212574
0.0215764
0.0218659
0.535514
0.244838
0.252275
0.0247891
0.0313353
0.271524
0.0215757
0.406746
0.0222854
0.0897479
0.0209856
0.0950346
0.0409676
0.0195719
0.0240862
0.0258585
0.0226781
0.0199764
0.416356
0.0209082
0.269665
0.0217525
0.0214029
0.0219178
0.0199782
0.0219497
0.105969
0.0213699
0.0211504
0.0211528
0.0217311
0.0213837
0.0449669
0.516711
0.468588
0.0215746
0.0206283
0.023479
0.0215061
0.0213467
0.0833779
0.0346909
0.0227308
0.0213247
0.0704945
0.0229766
0.213158
0.355461
0.0231999
0.0203587
0.0212902
0.0289264
0.596607
0.0216151
0.021237
0.0438343
0.0982142
0.038104
0.338717
0.0213236
0.0240402
0.0238146
0.0199546
0.0218366
0.398992
0.349177
0.0947121
0.0212816
0.630125
0.0218484
0.0215745
0.0244704
0.0220062
0.0244429
0.0319844
0.021255
0.0214984
0.0213683
0.0208963
0.0199908
0.0211708
0.025176
0.264897
0.0296998
0.019565
0.0200128
0.0212774
0.0219336
0.0213602
0.0821568
0.0220437
0.0220815
0.0220383
0.259705
0.0212624
0.0236061
0.0374621
0.0213125
0.0213007
1.13863
0.0212656
0.0213679
0.021233
2.02169
0.0296307
0.0375385
0.0219184
0.0810227
0.020481
0.020185
0.0204463
0.0212759
0.0358549
0.0212801
0.0217031
0.0369347
0.0213853
0.419236
0.0237162
0.0282571
0.0218212
0.0407936
0.0282794
0.021543
0.0211427
0.0220171
0.0216039
0.0213511
0.417254
0.0209766
0.0429603
0.021187
0.0217594
1.97745
0.0210883
0.271855
0.0644443
0.0213253
0.0539457
0.0211684
0.021896
0.0212616
0.021891
0.0207502
0.0213644
0.0213515
0.0214475
0.349156
0.0215504
0.0209721
0.0219053
0.0208152
0.0212238
0.0212264
0.0214273
0.0205235
0.0213119
0.0213089
0.0213781
0.021278
0.0220939
1.04813
0.0213711
0.0219594
0.0312321
0.290788
0.0200214
0.0276251
0.0209909
0.0215769
0.0213109
0.0215664
0.112922
0.285167
0.021123
0.023205
0.255589
0.021665
0.0236519
0.667318
0.0199808
0.0971182
0.021516
0.0515194
0.0245654
0.237199
1.18286
0.0628257
0.0210017
0.0211256
0.020111
0.0251825
0.0609385
0.0229103
0.0540943
0.0791578
0.0213831
2.34716
0.045701
0.0215765
0.0204223
0.0334498
0.0321158
0.0213379
0.0210428
0.0203749
0.024266
0.024168
0.0246122
0.0240823
0.0244239
0.543431
0.0211004
0.0213091
0.0211727
0.193878
0.0244258
0.0244734
0.326043
0.457392
0.167432
0.0210623
0.0242505
0.0212422
0.030135
0.0213598
0.0222853
0.0425939
0.0247689
0.0553687
0.0198736
0.260372
0.033882
0.0703616
0.277108
0.651522
0.0211401
0.0213493
0.0213405
0.0616372
0.0214216
0.0208919
0.0213461
0.0302142
0.181311
0.215479
0.0241062
0.0229756
0.377582
0.0354606
0.249635
0.0425654
0.0434323
0.0328558
0.507278
0.191821
0.0211229
0.0211364
0.0211637
0.0546256
0.0222274
0.0459424
0.0209614
0.0212621
0.0212854
0.170888
0.0211945
0.0212349
0.0210761
0.0334003
0.0209618
0.0211759
0.0203758
0.0257419
0.294424
0.0288922
0.0239614
0.0215328
1.97486
0.026432
0.0200722
0.0213292
0.0192157
0.25955
0.0216628
0.0217359
1.81292
0.02119
0.021018
0.0209787
0.0215421
0.03617
0.0210128
0.0216073
0.0211335
0.021782
0.0212896
0.0211665
0.0210695
0.0212785
0.0214282
0.0229567
0.0212516
0.0207017
0.0342518
0.0523988
0.0302704
0.0510649
0.0209939
0.03974
0.0212918
0.0294956
0.0211017
0.176274
0.0211511
0.021242
0.0201641
0.112168
0.0245297
0.02122
0.145569
0.021266
0.0201624
0.0212746
0.0220397
0.0264313
0.0209742
0.587342
0.0214838
0.0385534
0.0377547
0.0214453
0.0292103
0.0210126
0.0206326
0.021203
0.149876
0.0266247
0.0245988
0.0371312
0.267279
0.0250197
0.0449999
0.0245923
0.0213473
0.0198083
1.70199
0.210492
0.0209895
0.0339652
0.0209411
0.0210359
0.291978
0.0205388
0.0213298
0.0373551
0.0440071
0.539924
0.0213736
0.0210511
0.0270798
0.0209544
0.0201929
0.0795871
0.0212541
0.0207505
0.168967
1.37169
0.0213409
0.0225543
0.0211416
0.019914
0.027111
0.0216277
0.0214073
0.0336723
0.0207074
0.083098
0.0214423
0.0227681
0.0238177
0.236713
0.0243528
0.0218986
0.143057
0.296869
0.0213042
0.136338
0.0218129
0.0213175
0.0214247
0.0209976
0.024024
0.0461989
0.201976
0.0212083
0.0241324
0.0220132
0.0197587
0.0210575
0.0213586
0.0243022
0.020824
0.0211891
0.0221507
0.0215594
0.580898
0.021371
0.0223117
0.047274
0.0225074
0.0202594
0.277701
0.642596
0.646846
1.36952
0.05228
0.0205754
0.0223697
0.596311
0.363212
0.257921
0.32045
0.300978
0.0215049
0.262534
0.515026
0.0216144
0.139824
0.0220909
0.575272
0.313019
0.152955
0.0222116
0.021025
0.049758
0.0213377
0.0214598
0.0830846
0.0769519
0.0213569
0.0214259
0.0211428
0.195368
0.021116
0.0210844
0.0212426
0.0210127
0.0210299
0.173274
0.0219061
0.0209707
0.0214824
0.030443
0.417476
0.601194
0.0213406
0.0211669
0.0230597
0.021321
0.0210055
0.0211361
1.28176
0.021282
0.0330673
0.0211509
0.021596
0.0203437
0.0213767
0.727562
0.370344
0.0205458
0.0218715
0.182018
0.684373
0.0600286
0.538162
0.0213906
0.0305043
0.0211283
0.0197463
0.0211306
0.0201837
0.021084
0.0212593
0.0217244
0.581993
0.0199689
0.387428
0.57737
0.0198828
0.0321205
0.0412596
0.0220847
0.0211446
0.0212144
0.0213671
0.0210569
0.292221
0.0198276
0.0211022
0.451186
0.0211209
0.0213115
0.0209901
0.0564197
0.0213867
0.0213723
0.602501
0.0206928
0.0206164
0.0211161
0.0230025
0.0212654
0.0196257
0.0211166
0.019996
0.59531
0.0948752
0.0210482
0.0796102
0.0197891
0.0212914
0.0222485
0.310319
0.602518
0.0200217
0.0236378
0.0213341
0.0211726
0.0211302
0.021113
0.202793
0.288154
0.0213554
0.0220383
0.0305322
0.0209675
0.0210868
0.0244154
0.0281986
0.61756
0.0213709
0.0243217
0.258269
0.0211468
0.0239624
0.0383185
0.455738
0.0207601
0.0209598
0.0212925
0.0211559
0.0209821
0.256527
0.0210704
0.151277
0.380235
0.0219089
0.0239666
0.182894
0.0204067
0.289012
0.392847
0.226794
0.025784
0.0211982
0.02244
0.210932
0.0208273
0.0251619
0.0209658
0.0200365
0.0200861
0.0201515
0.0211532
0.56583
0.0217385
0.285812
0.294827
0.0611713
0.710174
0.0197743
0.0213778
0.0226209
0.388903
0.0211836
0.201081
0.0317989
0.0200223
0.0209389
0.242096
0.0209355
0.0275337
0.29701
0.021063
0.271322
0.0219833
0.0401319
0.06359
0.0213921
0.020608
0.0364257
0.0651298
0.021247
0.023001
0.0202004
0.0216336
0.0208788
0.420656
0.0210096
0.0199869
0.0372622
0.0201268
0.26724
0.0214113
0.0211845
0.0211549
0.565008
0.0209828
0.020902
0.0750153
0.0606234
0.299013
0.0214377
0.0201464
0.0323931
0.451898
0.37047
0.137512
0.0238783
0.0242371
0.0216713
0.0212887
0.0244913
0.0218971
0.0211148
0.0203994
0.0341796
0.0244387
0.0209311
0.0196234
0.0216176
0.0205932
0.0214485
0.0199966
0.273999
0.0272887
0.0266717
1.54867
0.177097
0.0206602
0.0209502
0.022214
0.0335116
0.0202482
0.0215196
0.020916
0.0210105
0.0211622
0.0432758
0.0213398
0.0850929
0.0212711
0.0208895
0.382367
0.0371068
0.0215404
0.020906
0.020862
0.638781
0.110531
0.0215712
0.0202761
0.0245597
0.0209423
0.0212475
0.0210223
0.0919785
0.0210018
0.0208563
0.0313451
0.0204832
0.0585246
0.0239742
0.0210427
0.0213384
0.205337
0.12161
0.388561
0.0465378
0.023829
0.0223322
0.0217321
0.0212482
0.0279594
0.0208504
0.656222
0.141596
0.0230293
0.0427906
0.202747
0.0208774
0.311303
0.0241586
2.18123
0.0254528
0.0208
0.0208214
0.0218723
0.0210927
0.139954
0.383182
0.0513336
0.0212164
0.0209313
0.020863
0.168607
0.0242642
0.382956
0.0208854
0.0213472
0.0438552
0.0210418
0.262742
0.155748
0.0208857
0.0214742
0.0197325
0.0212209
0.283061
1.65682
0.0208672
0.0210671
0.0206934
0.186383
0.0211614
0.0233615
0.122714
0.118654
1.4787
0.233554
0.61155
0.0212514
0.0264038
0.02158
0.0210973
0.022763
0.0475331
0.0204706
0.0211335
0.0794334
0.0213202
0.0203556
0.302871
0.0199571
0.021081
0.0627983
0.0381291
0.0200411
0.0202406
0.0414349
0.325418
0.0379658
0.549783
0.0227776
0.635938
0.0209807
0.117036
0.0730255
0.123302
0.299656
0.0292549
0.618844
0.0607427
0.182768
0.0206214
0.0210179
0.0203018
0.0212984
0.0656985
0.0207812
0.0453502
0.0200801
0.0219888
0.0214077
0.397395
0.0213213
0.200612
0.0241705
0.0255816
0.0510346
0.0794725
0.135195
0.0197201
0.0373433
0.0212829
0.080291
0.021527
0.0322912
0.0358505
0.0512981
0.61715
0.020805
0.394768
0.0239192
0.0407241
0.021418
0.56196
0.0216789
0.0208933
0.0212135
0.0947404
0.021532
0.029844
0.0396356
0.0256413
0.0602652
0.0208412
0.020025
0.676982
0.0362287
0.306646
0.153885
0.0208914
0.0514085
0.4021
0.043469
0.0207024
0.0500747
0.286513
0.0207862
0.0229153
0.0197936
0.372402
0.380786
0.243659
0.0589391
0.0208105
0.0206803
0.0218059
0.0202076
0.0237351
0.024098
0.0221256
0.0204471
0.0776868
0.0223254
0.0213434
0.0237925
0.392266
0.0966342
0.0216544
0.0262515
0.0269266
0.305054
0.0208044
0.28564
0.0213039
0.0320291
1.15612
0.0218507
0.585405
0.0204138
0.0198521
0.0208284
0.0208402
0.0206748
0.0208653
0.0197718
0.431961
0.0239199
0.0210103
0.0565954
0.0208915
0.0214681
0.0206579
0.135734
0.0211877
0.0232155
0.0427845
0.0351143
0.0209062
0.0197819
0.464459
0.0212454
0.299045
1.07345
0.0214622
0.0217498
0.0308201
0.0339943
0.110226
0.0202287
0.0206522
0.0226559
0.0304465
0.0229281
0.0601242
0.0362883
0.0231342
0.021761
0.0252966
0.02221
0.0331077
0.096731
0.0205576
0.314832
0.0337763
0.0212829
0.0209271
0.0209103
0.0208844
0.0206594
0.0210161
0.0207568
0.0223492
0.0354601
0.0231718
0.0214108
0.023023
0.0240538
0.0206004
0.0207249
0.546356
0.0227506
0.0241094
0.0205806
0.0218514
0.0205538
0.0199974
0.0352782
0.0213436
0.0210667
0.0479208
0.302921
0.0413455
0.0208898
0.135422
0.0215372
0.0874757
0.0603455
0.0219655
0.230154
0.0206988
0.0203283
0.680673
0.0208431
0.045151
0.810777
0.0470466
0.0240113
0.382556
0.0215036
0.0208579
0.0221718
0.020665
0.0468469
0.0400875
0.0208739
0.0484384
0.349187
0.0197285
0.0206868
0.0349473
0.0364226
0.0384088
0.0264624
0.200631
0.294385
0.0212737
0.58072
0.336403
0.034185
0.317028
0.0237438
0.0522795
0.019766
0.34336
0.0204088
0.019822
0.496176
0.397859
0.0530497
0.0196385
0.0379983
0.0204125
0.0206861
1.73048
0.53623
0.0206936
0.0216801
0.190584
0.0197958
0.0472025
0.02081
0.0885627
0.37598
0.0222276
0.0215167
0.246337
0.0446592
0.639858
0.164478
0.0211442
0.266846
0.0210293
0.221008
0.0256506
0.0202642
0.337898
0.0214768
0.0329712
0.0213606
1.5858
0.0211184
0.0214446
0.0202607
0.0214032
0.0205059
0.0216998
0.746123
0.649031
0.0206015
1.43211
0.364313
0.0203416
0.0205625
0.299669
0.0416381
0.159358
0.321003
0.637356
0.0205659
0.0212384
0.380347
0.0251223
0.345763
0.0315192
0.0206331
0.021268
0.0213028
0.0198063
0.0206066
0.0354414
0.0205852
0.314443
0.0209043
0.021359
0.0576295
0.0197704
0.036039
0.575537
0.0208678
0.0207915
0.0209591
0.0301133
0.019638
0.020203
0.0368582
0.40333
0.0520981
0.0216229
0.032318
0.0205311
0.0212459
0.0212524
0.624816
0.345525
0.291224
0.394887
0.0323667
0.0211935
0.0845566
0.0210249
0.0237128
0.0196491
0.0196395
0.0277305
0.0208213
0.292711
0.200876
0.0237751
0.718817
0.0275954
0.192258
0.062528
0.0200342
0.367452
0.023128
0.387198
0.0213356
0.0204599
0.0201338
0.0302265
0.369187
0.357789
0.401273
0.0209681
2.03162
0.0205889
0.390867
0.149912
0.0204813
0.0234589
0.0211686
0.456541
0.286705
0.0216741
0.0196289
0.0472946
0.0237617
0.305914
0.0215088
0.0214775
0.291492
0.202208
0.0205289
0.0316631
0.0207156
0.0237832
0.0216546
0.332784
0.0207118
0.0221171
0.103068
0.0213398
0.0208511
0.320141
0.369776
0.0214966
0.0213659
0.0217029
0.0205979
0.0205046
0.387636
0.394215
0.0209016
0.0253796
0.0208335
0.0213602
0.0213494
0.0211433
0.308371
0.39586
0.0414094
0.374495
0.0207595
0.0315335
0.0208416
0.0217148
0.229058
0.0217113
0.371929
0.0207361
0.382787
0.0215072
0.394759
0.397331
0.0203401
0.0208362
0.0473426
0.0345068
0.101717
0.231875
0.31516
0.301385
0.0241347
0.0211908
0.253626
0.0207675
0.281048
0.0199463
0.205216
0.0295921
0.0208459
0.022718
0.0208816
0.0313508
0.271778
0.0212882
0.361047
0.0222408
0.0395252
0.0204753
0.0237527
0.377577
0.0204471
0.455441
0.123943
0.0202254
0.107003
0.106532
0.482963
0.0204641
0.30726
0.02132
0.0202875
0.0399789
0.0204685
0.659085
0.0199813
0.0208237
0.0205155
0.0237966
0.282559
0.0207517
0.309266
0.0197432
0.0248686
0.0408034
0.0216521
0.390552
0.366483
0.0323436
0.0837661
0.0215215
0.0205378
0.784228
0.0204923
0.0203907
0.0211496
1.89237
0.314096
0.133414
2.09433
0.0201147
0.0210385
0.0208424
0.0469624
0.0206721
0.150352
0.0649409
0.0212398
0.255208
0.0741729
0.298559
0.0204181
0.0202861
0.0201116
0.0213406
0.0412916
0.0587294
0.0203543
0.0241135
0.0207053
0.400406
0.372261
0.0214433
0.0464016
0.0209791
0.0213795
0.0197663
0.0202536
0.0711123
0.165877
0.020441
0.383996
0.331482
0.0198289
0.402318
0.0206139
0.0208881
0.23149
0.0203842
0.0435789
0.0198176
0.0542918
0.535484
0.0197656
0.0200942
0.0209743
1.55124
0.0253923
1.96945
0.378046
0.042368
0.0236777
0.391106
0.0205018
0.52722
0.0330975
0.0206455
0.189525
0.626553
0.371772
2.22245
0.381635
0.0204034
0.404518
0.086967
0.189996
0.283021
0.0204712
0.0203998
0.0207445
0.430038
0.0203558
0.0201666
0.297029
0.0925241
0.0213166
0.0203766
0.0208565
0.0203198
0.0204381
0.0271063
0.0208245
0.176885
0.246338
0.0247003
0.0235999
0.0206316
0.0204342
0.357426
0.223229
0.398358
0.286774
0.0205036
0.0206759
0.0363662
0.470761
0.311894
0.0204415
0.223446
0.324791
0.0199306
0.0348193
0.0296792
0.0201565
0.0209305
0.0212672
0.0221166
0.0200978
0.368777
0.421672
0.021128
0.25145
0.0213944
0.034631
0.0209045
0.0213378
0.0289857
0.328709
0.0252117
0.0203524
0.0198187
0.0203366
0.0203442
0.274466
0.0365284
0.381829
0.0595117
0.229182
0.0553122
0.0203767
0.0542489
0.25032
0.021264
0.242895
0.0223566
0.0197656
0.18989
0.634392
0.0238677
0.102721
0.301668
0.78752
0.0310606
0.0203028
0.0238957
0.0207095
0.312993
0.0206811
0.300755
0.0670651
0.0338897
0.391906
0.0362435
0.0518834
0.0886354
0.0209705
0.0204704
0.0213909
0.0208195
0.309616
0.0206244
0.0206366
0.0263434
0.0226517
0.0202245
0.337366
0.313964
0.243779
0.0202678
0.528031
0.30112
0.231673
0.0217156
0.0205257
0.0245313
0.020189
0.397438
0.0246124
0.020325
0.0299116
0.0205749
0.305966
0.0558259
0.0206104
0.625926
0.142502
0.020366
0.297345
0.0982766
0.112577
0.0215748
0.206181
0.398507
0.0196447
0.0205022
0.289241
0.0338992
0.0210335
0.397348
0.0210895
0.0204657
0.0205154
0.0203697
0.312762
0.0202028
0.0204338
0.265672
0.051634
0.0204916
0.0208258
0.190528
0.0453269
0.0223067
0.0539856
0.0203914
0.626943
0.0609398
0.021583
0.0202421
0.614321
0.508693
0.0247268
0.0201121
0.139524
0.0218176
0.0202426
0.489955
0.0209192
0.133999
0.020467
0.404146
0.279488
0.396649
0.183567
0.020419
0.112339
0.0214835
0.0361248
0.287041
0.020171
0.225756
0.019893
0.108959
0.0206934
0.0203664
0.0199723
0.0204518
0.0202912
0.0201196
0.0591787
0.0214818
0.0569345
0.022498
0.0197219
0.023035
0.255663
0.0205498
0.0381529
0.02029
0.0210979
0.488391
0.0213753
0.359104
0.0238068
0.0357014
0.0200806