/*--------------------------------*- C++ -*----------------------------------*\
| =========                 |                                                 |
| \\      /  F ield         | OpenFOAM: The Open Source CFD Toolbox           |
|  \\    /   O peration     | Version:  v2012                                 |
|   \\  /    A nd           | Website:  www.openfoam.com                      |
|    \\/     M anipulation  |                                                 |
\*---------------------------------------------------------------------------*/
FoamFile
{
    version     2.0;
    format      ascii;
    class       volVectorField;
    location    "850";
    object      U_0;
}
// * * * * * * * * * * * * * * * * * * * * * * * * * * * * * * * * * * * * * //

dimensions      [0 1 -1 0 0 0 0];


internalField   nonuniform List<vector> 
9793
(
(1.07111 0.0844242 -2.96323e-21)
(0.959969 0.114689 1.2712e-22)
(1.0865 0.0843404 -2.16936e-21)
(1.01481 -0.00113203 0)
(0.531504 0.229782 -3.04786e-21)
(1.01451 -0.02383 0)
(1.01059 -0.000277211 2.79485e-21)
(1.01413 -0.00100011 1.87704e-22)
(1.0304 6.0527e-05 -9.01076e-22)
(0.516625 0.20505 0)
(0.998022 -0.0408167 8.37812e-22)
(0.945218 -0.119874 2.41754e-23)
(1.01467 -0.00104624 0)
(1.01519 0.00653113 0)
(1.00283 -3.13683e-05 -1.58911e-21)
(1.01633 0.00576048 -6.65089e-23)
(1.02017 0.00862158 0)
(1.02156 0.0101278 1.86961e-21)
(0.917518 0.170342 1.5218e-20)
(1.01626 0.0065375 0)
(1.05893 -0.128904 3.72925e-22)
(1.03976 -0.00770705 -1.35261e-21)
(0.993547 -0.107104 -1.17913e-22)
(1.0197 0.00203449 1.43456e-22)
(1.01266 0.0079122 0)
(1.01467 -0.000826954 0)
(1.01907 0.00566713 -4.29738e-21)
(1.01458 0.00462347 1.14372e-21)
(1.00741 0.008641 1.51593e-21)
(1.02997 -0.000124556 0)
(0.98758 -0.0507574 -4.7857e-22)
(0.992841 -0.0955677 0)
(0.810051 0.103511 0)
(1.00701 1.12009e-05 -3.75033e-21)
(1.00571 0.0178372 -5.52887e-22)
(1.07562 -0.171645 -1.59722e-21)
(1.00848 1.06934e-05 -1.48066e-21)
(1.03982 -0.00866099 -3.80519e-22)
(1.01561 -0.00117732 9.16814e-22)
(1.01052 -0.000109017 0)
(0.985604 -0.0461529 -1.03569e-21)
(1.00479 -5.97089e-05 3.82272e-22)
(1.01332 -0.000558726 5.16253e-23)
(1.01025 -0.000212779 -1.32953e-21)
(1.01272 -0.000508823 -1.17922e-22)
(1.01423 -0.000677585 0)
(1.00303 0.0101153 -6.76805e-22)
(0.92549 0.0187904 5.29254e-21)
(0.896753 -0.00202829 -9.1494e-22)
(1.01474 -0.00122678 -5.26682e-23)
(1.00203 0.0205218 5.70378e-22)
(0.985839 -0.0304945 8.96233e-21)
(1.02052 -0.0258887 0)
(1.03033 -0.00354245 -4.77974e-21)
(0.902863 0.0491806 0)
(0.983041 -0.191899 2.13046e-21)
(1.02368 0.00102191 -3.57592e-21)
(0.989377 -0.0966473 -8.66611e-21)
(0.788327 0.0078959 0)
(1.01535 -0.00118522 -1.05699e-21)
(1.0089 -0.000110718 0)
(1.02651 -0.0244246 0)
(0.773014 -0.0565711 0)
(1.01669 -0.000488698 -1.35962e-21)
(0.441849 0.119239 1.48325e-21)
(0.83914 0.0607405 -9.93814e-22)
(0.771812 -0.0298165 0)
(0.813384 -0.00551857 1.16875e-21)
(0.945557 -0.109762 0)
(0.998043 -0.0356059 0)
(0.909214 0.0644789 -1.46924e-20)
(1.01352 0.00026166 0)
(1.01655 -0.00568466 2.58277e-22)
(1.05093 0.0785759 -8.98144e-22)
(1.00073 0.0287743 1.65566e-21)
(0.766196 0.0455606 -9.00818e-22)
(1.02412 0.000576938 -7.6592e-22)
(1.0278 0.00586369 -7.01474e-22)
(1.0057 -0.00129768 -1.50106e-21)
(1.012 0.00472929 2.05846e-21)
(0.83284 0.0306065 -1.82023e-23)
(1.00745 -0.0056079 2.71706e-21)
(0.909423 0.102699 7.02683e-23)
(0.972578 -0.0118009 2.48939e-21)
(0.991268 -0.0423567 0)
(0.941961 0.00522246 -2.8439e-21)
(1.01186 0.00585898 0)
(1.02456 0.00011223 -3.33324e-21)
(1.02482 -0.0212054 1.69588e-24)
(1.00959 -0.00931694 0)
(0.954315 0.148642 -2.42422e-21)
(0.477125 -0.055889 -1.24208e-20)
(1.01388 -0.00327776 0)
(0.97846 -0.088387 0)
(1.02648 -0.0226199 -2.444e-23)
(0.974344 -0.0186188 8.25748e-23)
(0.997047 -0.181977 -2.22791e-21)
(0.921202 0.122401 0)
(1.01383 -0.00280954 0)
(1.01167 -0.00112172 -1.21421e-21)
(1.01156 -0.00087756 1.10034e-21)
(1.01626 -0.00925617 0)
(1.01513 -0.000218675 0)
(1.01473 -0.000170092 -2.37413e-21)
(1.02663 0.00604214 7.03212e-22)
(0.990242 -0.0381562 0)
(1.02528 -0.0198177 3.37039e-23)
(1.00924 -0.000139961 0)
(1.02093 -0.0238176 0)
(0.90098 0.0620019 2.41713e-22)
(1.01261 0.000165838 0)
(1.00883 -0.135162 -1.11502e-21)
(1.02205 0.000942364 0)
(1.00285 -0.230485 -7.75007e-21)
(0.983536 -0.0238968 2.57386e-22)
(1.02413 0.000872853 7.95046e-22)
(0.852547 0.160494 0)
(1.00546 0.0320806 0)
(1.00586 -0.00600398 -2.77806e-21)
(0.978147 -0.0770994 -1.31863e-21)
(0.891652 0.052586 1.45618e-21)
(1.00652 8.95187e-05 0)
(1.02303 -0.0022457 -2.41647e-21)
(1.01298 -0.0253602 0)
(1.03355 -0.00415403 6.81797e-21)
(1.04624 -0.131705 -3.73228e-22)
(1.03862 -0.0400689 0)
(0.943471 -0.00403961 2.94925e-21)
(1.00403 -0.000822628 1.49949e-21)
(1.01844 -0.0043691 0)
(1.0117 0.00017578 -1.63207e-22)
(1.02461 0.000400708 3.74383e-21)
(1.01852 -0.00456324 -8.88368e-22)
(1.02214 -0.00723128 1.23e-21)
(1.02944 0.000220477 -6.69604e-21)
(1.02494 -0.000362937 0)
(1.01598 -0.000369886 1.38498e-21)
(1.01044 -0.000204774 2.16678e-21)
(1.02172 0.000814191 0)
(1.01303 0.00057682 -1.60343e-21)
(1.02264 -0.00222471 4.86563e-21)
(1.01526 0.00744297 1.37121e-21)
(1.01303 -0.000560509 1.03495e-22)
(1.01086 -1.08927e-05 2.51353e-21)
(1.01491 0.00738107 2.38968e-21)
(1.01515 0.00974405 -2.42812e-21)
(1.0752 0.0292172 -1.45992e-22)
(1.01087 -0.000377507 2.20794e-21)
(1.01452 -0.00215628 -2.19945e-21)
(0.484496 -0.0874576 1.96646e-20)
(0.729087 0.294385 6.24278e-22)
(1.01125 0.000150541 0)
(0.716287 0.293991 -6.99004e-22)
(0.543235 0.21194 0)
(1.01432 -0.00182995 1.11726e-21)
(1.0095 0.000208017 2.94698e-22)
(1.01177 0.000295111 0)
(1.01591 0.00651089 -2.23138e-21)
(1.01121 -0.000539673 0)
(1.01303 -0.000539187 -1.20634e-22)
(1.01432 -0.00104747 -1.86124e-21)
(1.01541 0.00478204 -1.40502e-22)
(1.01776 0.00348021 1.85422e-21)
(1.03369 0.0769213 0)
(1.06298 0.0649808 -5.41192e-23)
(1.07005 -0.139739 0)
(0.925473 0.00772911 5.76493e-21)
(1.03833 0.00175217 -1.94332e-21)
(1.0187 0.00482779 2.1433e-21)
(1.01578 -0.00617214 0)
(1.01193 -0.00473075 1.2906e-21)
(0.982687 -0.260189 0)
(1.06036 0.0685961 -1.14287e-22)
(0.99584 -0.262241 -8.20709e-21)
(1.03321 -0.0036775 -6.84705e-21)
(0.988562 0.125649 -2.81735e-20)
(1.02501 -7.26493e-05 0)
(1.01847 0.00223308 0)
(1.01854 -0.00549149 -2.95371e-22)
(1.02993 -0.00735551 0)
(0.951352 -0.291521 3.55123e-20)
(1.03752 -0.00322493 8.35744e-21)
(1.0113 -0.000866666 0)
(1.01361 0.00695759 -1.51039e-21)
(0.823379 0.234975 0)
(1.01637 -0.00530006 -2.32749e-22)
(0.980839 -0.103474 6.56271e-21)
(1.01819 -0.00547223 3.062e-22)
(1.02261 -0.00295698 -1.34756e-22)
(1.01726 0.00387934 -1.93545e-21)
(1.03339 -0.00347796 0)
(1.01932 -0.000154838 -5.64822e-23)
(0.887539 0.0122376 -2.74904e-21)
(1.02077 -0.135288 0)
(0.803953 -0.0256566 0)
(1.03101 -0.00750208 0)
(1.03769 0.129364 0)
(1.01271 -0.00523139 0)
(0.576835 0.249018 0)
(1.0129 0.000539922 2.88623e-21)
(1.02907 5.00629e-05 7.63855e-21)
(1.15812 -0.0317408 2.50066e-20)
(0.984594 -0.206049 0)
(1.01866 -0.00398854 1.80662e-21)
(1.02539 -0.000574745 5.03078e-22)
(1.0256 0.00479775 0)
(1.06489 -0.156326 2.6108e-22)
(1.0124 0.00365024 0)
(0.995075 -0.0354379 0)
(1.03548 -0.00428322 0)
(1.02528 0.000383052 4.86038e-21)
(0.903184 0.0224956 3.88917e-21)
(0.885869 -0.0152405 3.14516e-21)
(1.03076 -0.00353849 -2.77845e-21)
(0.976991 0.137575 -5.07344e-21)
(1.01203 0.000317917 0)
(1.0183 -0.00606929 3.759e-21)
(0.812512 0.246508 -8.85032e-21)
(1.0246 0.0049703 9.66063e-23)
(0.837438 -0.145935 2.28192e-21)
(1.01425 0.0626717 -1.10818e-21)
(1.02354 -0.00118794 9.27807e-23)
(1.03363 -0.00392963 7.10582e-21)
(1.01918 -0.000102615 0)
(0.961018 -0.0121935 0)
(1.10473 0.0310648 0)
(1.0166 -0.024171 4.92089e-22)
(1.01436 -0.00138965 3.40166e-21)
(1.00632 0.0573886 0)
(1.00307 -0.0247952 1.75027e-21)
(1.02001 0.00246215 -7.82562e-23)
(1.01921 0.00215303 -2.03126e-22)
(1.03798 -0.003471 -4.88074e-21)
(1.01263 0.000452871 1.79129e-21)
(1.02528 -0.0431922 -2.76528e-20)
(0.835399 -0.128299 -2.12345e-21)
(1.02145 0.000425098 2.51036e-21)
(1.01288 -0.00403201 1.22055e-21)
(0.99356 -0.168902 2.67113e-21)
(1.01289 -0.00796733 -2.29483e-21)
(0.994405 -0.0318616 0)
(1.01329 0.00609347 3.24859e-22)
(1.01309 -0.00268722 1.06056e-23)
(0.812106 0.0783479 0)
(1.01343 -0.00383826 0)
(1.01414 -0.00231509 0)
(1.01394 -0.000989419 0)
(1.01742 0.00655579 -3.43095e-21)
(1.01427 -0.00270971 0)
(1.00803 -2.3695e-06 1.15389e-21)
(1.03034 -0.00797082 2.77137e-21)
(1.03522 -0.00443721 6.45829e-21)
(0.988571 -0.0187102 0)
(1.03268 -0.0422497 -8.69324e-21)
(1.01362 -0.0025127 -6.92831e-22)
(1.04316 -0.0122699 -8.45343e-22)
(1.01273 -0.00555863 -2.50743e-22)
(1.03477 -0.00411532 0)
(1.00416 -0.0189513 -1.13461e-21)
(1.01191 0.00269971 0)
(0.834167 0.0484893 -6.13325e-21)
(1.01328 -0.00418096 6.63833e-23)
(0.987065 -0.0121647 1.73995e-21)
(1.00837 6.91161e-05 1.28963e-21)
(1.03723 0.0025749 2.629e-21)
(1.02239 0.00340263 -3.35367e-23)
(1.02176 0.00353631 7.36004e-23)
(1.02604 0.00255614 0)
(1.16731 -0.0619536 -3.88854e-20)
(1.0234 -0.0181767 1.04546e-22)
(1.01154 0.00239673 0)
(1.0148 0.00221915 0)
(1.05093 -0.00292994 7.23864e-22)
(1.02397 -0.000838152 -3.09152e-21)
(0.987319 0.146268 -2.52681e-21)
(1.00131 0.123 1.18841e-21)
(1.01873 -0.00422573 2.12299e-23)
(1.02662 -0.146993 -1.70734e-22)
(1.01867 -0.000342467 0)
(1.03647 -0.0434185 -8.93137e-21)
(1.01775 0.00555365 2.36333e-21)
(1.02043 0.0030695 -4.16884e-22)
(1.00773 -8.61137e-05 2.56061e-23)
(1.01064 -0.000118881 0)
(1.04202 -0.0402835 0)
(1.02351 -0.00135874 0)
(1.03004 -0.00840931 8.13379e-22)
(1.03599 3.10447e-05 3.73498e-21)
(1.01225 -0.000354511 0)
(1.02534 -0.000860156 -5.03069e-22)
(1.02177 0.000554333 -2.51872e-21)
(0.836594 0.140484 0)
(1.02 -0.0204485 3.27703e-23)
(1.00851 -0.000146441 -4.64867e-23)
(1.01107 0.000157719 5.13858e-22)
(1.02124 -0.00826934 0)
(1.03436 -0.00497747 -8.14812e-22)
(1.03548 0.000729605 -7.56266e-21)
(1.01828 -0.000674208 1.10172e-21)
(0.904959 0.0872833 -6.85932e-20)
(1.0146 -0.00163523 -3.57644e-24)
(0.863787 -0.201961 0)
(0.87905 0.25815 -1.88718e-21)
(1.00761 2.96407e-06 4.83823e-22)
(1.00952 -0.000210127 0)
(1.0109 0.00105854 -1.43491e-21)
(1.05307 -0.00208943 -4.41275e-22)
(1.0401 -0.00169348 -1.43925e-21)
(1.01898 0.00437291 -1.40345e-21)
(0.854675 -0.190415 -4.42587e-21)
(1.01831 -0.000309568 0)
(1.01109 0.001347 -1.43133e-21)
(1.04082 -0.00126954 -1.40739e-22)
(1.03038 -0.0109383 0)
(1.02835 -0.00588384 -3.5611e-21)
(1.01076 -0.00833794 6.68886e-22)
(0.958681 -0.00462431 -2.95025e-21)
(1.01382 -4.74667e-05 0)
(1.04711 -0.00213232 0)
(1.03568 -0.00426079 1.42416e-21)
(1.01408 -0.000951488 8.60271e-22)
(1.05243 0.0847918 1.7837e-21)
(0.957106 0.156705 -8.95228e-22)
(1.05837 0.0630172 4.09968e-23)
(1.02345 0.00442095 -6.00853e-22)
(0.950031 -0.271488 -2.17199e-20)
(1.03493 -0.00536642 -2.79359e-21)
(0.782676 -0.0754095 2.78543e-21)
(1.00247 0.0418692 2.77997e-21)
(1.01632 0.00256709 -2.24623e-21)
(1.04163 -0.00586774 3.25891e-21)
(1.00834 0.0463078 -2.34627e-21)
(1.01644 -0.00796575 -2.49396e-21)
(0.998452 -0.0297156 0)
(0.984691 -0.0416795 0)
(1.01367 -0.000997859 4.12161e-22)
(1.01318 -0.000541974 0)
(1.02855 0.000176318 3.29427e-21)
(1.00943 3.24914e-05 -2.22226e-21)
(1.01399 0.00518855 -6.05962e-22)
(1.07752 0.115727 0)
(1.01809 -0.00583395 4.45848e-23)
(1.01402 -0.00123255 0)
(0.908442 0.0347193 4.62767e-20)
(1.01406 -0.00812926 -3.49725e-23)
(1.01714 0.00551829 7.03746e-23)
(1.02345 0.00384523 4.07402e-22)
(1.03626 -0.00756106 -1.01348e-21)
(1.01388 -0.00103875 0)
(1.03174 0.127358 0)
(1.03391 -0.00458015 0)
(1.02497 -0.00312271 3.90186e-21)
(1.02817 -0.00993635 0)
(1.01488 -0.00937344 2.56091e-21)
(0.981685 -0.198504 0)
(1.0299 -0.00326743 1.21636e-22)
(1.05838 -0.0425499 0)
(1.01898 0.00238731 7.5639e-23)
(1.01528 -0.0100134 0)
(0.842158 0.0553555 1.19165e-20)
(0.971384 -0.0963984 -7.21803e-21)
(1.01225 -0.00991397 6.86039e-22)
(1.03565 -0.00796296 7.39999e-22)
(1.02492 -0.00911885 6.60952e-22)
(0.946803 0.154742 9.46271e-22)
(1.00864 -0.000106859 -2.28935e-21)
(0.824991 0.020194 4.47354e-21)
(1.01056 -0.00694836 6.79721e-22)
(1.0125 0.000455488 9.09047e-22)
(0.881536 0.251499 0)
(0.998134 -0.0266981 7.18572e-22)
(0.892756 0.174548 3.73806e-22)
(1.02497 -0.00300208 -4.80214e-21)
(1.0219 -0.045984 1.50896e-20)
(1.09363 -0.171416 2.06776e-21)
(0.999626 0.00364539 -2.09948e-21)
(1.01632 -0.00468426 1.55108e-22)
(0.82303 0.138824 0)
(1.03473 -0.00970794 -1.82386e-20)
(1.07046 0.0469821 0)
(1.04312 -0.0107524 2.25064e-21)
(1.02959 -0.00266551 -5.20181e-21)
(0.874772 0.286729 -1.55203e-20)
(1.01819 -0.000613688 5.40778e-22)
(1.03566 -0.00582624 3.1625e-21)
(1.00752 9.28999e-05 -4.81202e-23)
(1.00972 -0.000113387 0)
(1.01824 0.00617002 3.47205e-23)
(1.03002 -0.00297169 0)
(1.04139 -0.0102432 -1.9677e-21)
(0.978222 -0.211259 0)
(1.03249 -0.00312652 -8.42231e-21)
(0.320567 -0.317067 8.50116e-21)
(0.927616 -0.0818715 -1.19205e-21)
(0.980748 0.142511 8.9378e-22)
(1.00593 -0.0291951 -1.80066e-21)
(1.06421 0.0363889 -6.81299e-22)
(1.01034 -0.000102884 2.21673e-22)
(1.02835 0.000349625 0)
(0.753434 0.12985 8.04479e-22)
(0.914246 -0.074975 1.80103e-21)
(1.0124 0.00581352 -2.84836e-21)
(1.03481 -0.00090935 0)
(1.09089 -0.221106 2.47669e-20)
(1.01504 0.00211189 0)
(1.01991 -0.24523 0)
(1.01268 -0.00441515 -6.46534e-22)
(1.0413 -0.00901499 -2.31231e-21)
(1.01484 0.00192572 2.03572e-21)
(1.02587 0.00744577 0)
(1.01777 -0.00576118 8.22712e-22)
(1.03364 -0.0100183 6.81342e-21)
(1.04015 -0.146419 1.68252e-22)
(1.01194 0.00336552 2.54771e-21)
(1.00566 -0.116858 2.53037e-22)
(1.03404 0.0140766 -1.63268e-21)
(1.03435 -0.00471301 8.49095e-22)
(1.03155 0.016511 0)
(1.01145 -0.00632556 0)
(1.02462 -0.0187147 -3.28388e-23)
(1.01365 0.00950882 -2.55224e-21)
(1.20562 -0.0426753 0)
(1.01865 -0.000365731 0)
(1.02872 -0.00611704 0)
(0.981243 -0.0359013 -9.67315e-21)
(1.02928 -0.00206059 5.29512e-21)
(1.00245 -0.0171765 1.41266e-21)
(1.03484 -0.00505338 0)
(1.01737 0.00301406 -2.13306e-21)
(1.02834 -0.00623066 0)
(1.0127 -0.000408417 -8.61961e-22)
(1.02859 -0.00662325 2.37442e-21)
(1.01463 0.00148517 1.93063e-21)
(1.0672 -0.132147 -2.58463e-21)
(1.01568 0.0086178 -2.44747e-21)
(1.07336 -0.120266 0)
(1.01662 -0.00599686 0)
(0.872387 0.0582015 3.21681e-21)
(1.01093 -0.000200449 0)
(1.01556 -0.00713754 2.47698e-21)
(1.00825 -0.000133547 -1.48453e-21)
(1.03216 -0.00328526 9.79041e-21)
(0.775438 0.124375 -1.4507e-20)
(1.01199 -0.0048304 2.60482e-21)
(0.832242 0.0675954 4.04138e-21)
(1.01757 0.00445652 2.47351e-21)
(1.01148 -0.00463115 0)
(1.03551 -0.00542039 2.19939e-21)
(1.09266 -0.271099 -3.94707e-20)
(0.983868 -0.0546546 0)
(0.881536 0.0273815 0)
(0.900688 0.036888 -3.7606e-21)
(1.01808 -0.026165 -5.19524e-22)
(1.01982 -0.00126033 -4.58251e-22)
(1.06477 -0.0534238 -1.27311e-22)
(1.02836 -0.00467321 0)
(1.02861 0.00695489 0)
(0.943663 0.0973055 0)
(1.04269 0.15345 0)
(1.01855 -0.000315745 -1.3867e-21)
(1.02798 0.0119015 0)
(1.01732 -0.0432081 0)
(1.02336 -0.00253512 2.74774e-22)
(1.00824 -0.00838555 0)
(1.02278 -0.00273394 2.34092e-21)
(1.01517 -0.000479869 1.08148e-21)
(1.00723 1.20594e-05 9.54925e-22)
(0.970453 -0.229135 6.03577e-21)
(1.03287 -0.00884868 1.66689e-20)
(0.831247 0.270608 6.92115e-21)
(1.01562 -0.000613138 -1.15187e-21)
(1.05556 -0.00416738 -1.0795e-22)
(1.01831 0.00201896 1.99943e-22)
(1.00808 -1.5359e-06 1.81276e-21)
(1.00992 0.000144227 -7.66687e-22)
(1.00836 -0.00674613 0)
(1.06107 -0.0557543 -7.13586e-23)
(1.01748 -0.00654447 -1.30764e-21)
(1.02543 0.010617 0)
(1.01551 0.00167423 -2.27673e-21)
(1.0172 -0.000660607 7.12251e-22)
(0.998557 -0.0155383 1.79434e-21)
(0.898241 0.0396169 -2.16037e-21)
(1.01217 -0.00035685 1.27099e-21)
(1.01961 -0.00122089 5.1025e-22)
(0.868919 0.239903 9.59286e-21)
(1.0016 -0.0250132 -3.57059e-21)
(1.03398 -0.00435103 0)
(0.753277 -0.0705865 0)
(0.872956 0.0419543 5.60935e-21)
(1.00871 0.000121184 -3.58973e-21)
(1.00685 0.000130246 9.80807e-22)
(1.03632 -0.00583165 -3.76276e-21)
(0.999894 -0.0177937 -1.54932e-21)
(1.02902 -0.00683036 2.93103e-21)
(1.01316 -0.00042314 -3.85456e-22)
(1.01709 -0.000493037 4.92526e-22)
(1.013 -0.00598142 0)
(1.01219 -0.0055612 0)
(1.01349 -0.00271845 1.35126e-21)
(1.0762 0.00974493 1.61237e-23)
(0.979626 -0.0101843 -3.30686e-21)
(1.01157 0.000266165 -8.72565e-22)
(0.810782 0.174119 -2.79258e-21)
(1.05829 0.0131318 -9.61443e-22)
(1.01272 -0.00206632 2.62957e-21)
(1.02173 -0.0202729 -3.10008e-23)
(1.00599 -0.00284458 0)
(1.004 -0.125116 1.16945e-21)
(1.01902 0.00530738 3.94638e-22)
(0.94733 -0.17679 0)
(1.01658 0.00290231 2.21636e-21)
(1.01307 -0.00317819 -1.09188e-23)
(0.996882 -0.0252471 0)
(1.02219 -0.00289656 1.23783e-22)
(1.02323 -0.0169375 -3.71206e-21)
(0.894279 0.256106 9.86854e-21)
(1.04906 -0.00119495 -8.21798e-22)
(1.01243 -0.0019469 1.28609e-21)
(0.342734 -0.330801 1.10662e-21)
(1.00137 -0.0224904 2.79703e-21)
(1.0127 2.53069e-06 -1.72234e-21)
(1.0117 -0.00105591 1.21195e-21)
(1.03584 -0.0642897 -2.2337e-20)
(1.01519 -0.000459222 -6.02578e-22)
(1.01271 1.5679e-05 -1.68983e-21)
(1.01855 -0.00060004 7.45469e-22)
(1.01501 -0.000583468 1.7406e-23)
(0.829953 0.0876745 1.18675e-21)
(1.02973 -0.04529 -5.15805e-22)
(1.05739 0.0109282 -5.58518e-23)
(1.01951 -0.0222253 0)
(1.01222 -0.000965066 -1.1538e-21)
(1.01399 -0.000569462 0)
(1.02817 -0.00254895 4.75495e-21)
(1.01261 0.00025002 -5.57381e-22)
(1.01852 -0.000514209 6.98629e-22)
(1.00581 -0.107468 3.62656e-22)
(0.961557 -0.102252 -1.37146e-20)
(1.01494 0.00245107 -8.26204e-22)
(1.03088 -0.00393708 -1.76516e-21)
(0.687517 0.123769 0)
(1.02103 -0.00920548 -7.33196e-22)
(0.988562 0.0353066 -1.48184e-21)
(1.06323 -0.0422384 -1.34424e-22)
(1.013 0.000320189 -6.41228e-23)
(0.99249 -0.0422901 -1.18327e-21)
(0.860629 0.292994 0)
(1.02395 -0.00107387 -3.27911e-21)
(1.02596 -0.158016 5.27939e-21)
(1.0203 0.00339328 2.18129e-22)
(1.00159 -0.212631 0)
(1.03497 -0.00164268 -4.73316e-21)
(0.861888 0.234112 -5.4339e-21)
(1.01653 -0.00504082 -2.18306e-22)
(1.01331 -0.00248202 9.06152e-23)
(1.01824 0.0085747 0)
(0.929559 0.195656 3.60154e-21)
(1.02643 -0.00885389 0)
(0.740588 -0.0571779 0)
(0.815365 0.0184797 -2.03285e-22)
(0.364443 -0.0254968 6.12797e-21)
(1.02093 -0.0171196 0)
(0.936849 -0.172719 0)
(1.03046 0.00891829 2.00621e-21)
(1.00457 -3.64289e-05 3.9502e-21)
(1.03153 -0.0191487 -9.81206e-21)
(1.02921 -0.00474995 -4.90379e-24)
(0.848412 0.114805 4.38386e-21)
(1.02954 -0.00434595 -7.29341e-21)
(0.853993 0.0871667 0)
(1.01483 0.00111405 1.92222e-21)
(0.962728 0.0669063 0)
(1.00865 -8.66599e-05 1.56611e-21)
(1.03665 -0.000847372 8.23868e-21)
(1.01392 -0.000935768 -8.52613e-22)
(1.00345 -0.165195 0)
(1.01525 0.00118106 1.60458e-21)
(1.01055 0.000173074 0)
(1.03646 -0.00385029 1.84677e-22)
(1.03572 -0.00430385 4.629e-21)
(1.03167 -0.00916571 -5.84016e-21)
(1.01693 -0.00579535 0)
(1.02101 -0.00268638 -1.73067e-21)
(1.02109 -0.00857124 7.90996e-22)
(1.02056 -0.00820945 -6.86853e-22)
(0.882407 0.198742 1.7789e-21)
(1.0149 -0.00145965 -1.54438e-22)
(1.01829 0.18406 9.05111e-21)
(1.06814 -0.285441 -6.01823e-21)
(1.0149 -0.00136679 3.6191e-23)
(1.009 -0.000139468 -2.16143e-21)
(1.05767 -0.00330377 1.3129e-22)
(1.03469 -0.00126891 1.35197e-20)
(1.0225 -0.00244396 -2.294e-21)
(1.03024 -0.00955978 0)
(0.998506 0.00128601 2.00571e-21)
(1.03468 -0.00188121 2.1085e-21)
(1.03829 -0.00242397 0)
(1.03586 -0.00416137 -2.6569e-21)
(1.01245 -0.000213707 -1.86206e-21)
(1.00507 -0.00433831 0)
(1.03472 -0.00766179 -4.80786e-22)
(1.03504 -0.0032099 -2.7632e-21)
(1.02947 -0.0108213 0)
(1.03709 -0.00740548 0)
(0.96099 0.229799 5.39416e-22)
(1.02285 -0.00714786 0)
(1.20058 -0.021142 7.02498e-21)
(1.03659 -0.00995251 1.31056e-20)
(1.01041 -0.00023852 8.55122e-22)
(1.02138 -0.00275024 3.62215e-21)
(1.01369 -0.00132211 1.01169e-21)
(1.02061 -0.013008 -3.8461e-21)
(1.02258 -0.0141267 3.09004e-21)
(1.01335 -0.00339861 1.2363e-21)
(1.01827 -0.00717648 -1.45195e-21)
(1.0183 0.00161778 0)
(1.01374 -0.000528287 0)
(1.01733 -0.00772259 2.72398e-21)
(1.01792 -0.00133042 1.02328e-21)
(1.0414 -0.0145457 2.34965e-23)
(1.01336 0.000769947 1.60121e-23)
(1.03647 -0.00126781 0)
(1.00677 -5.14695e-05 -2.23612e-21)
(1.02969 -0.00231489 0)
(1.03977 -0.0150374 7.42431e-22)
(1.03874 -0.00276273 0)
(1.02946 -0.0201612 -1.04291e-20)
(1.00772 2.01814e-05 0)
(1.01394 -0.00309296 4.0153e-22)
(1.02155 -0.00256353 2.06206e-21)
(1.01247 -0.000349148 1.6474e-21)
(1.01425 0.000741418 2.07569e-21)
(1.01064 0.000312668 1.43596e-23)
(1.01435 0.000350498 -2.62056e-21)
(1.01409 -0.00121785 0)
(1.02314 -0.00695435 -1.04104e-21)
(1.01518 0.00110108 5.20871e-22)
(1.02049 0.00210949 4.57185e-22)
(1.01022 -9.86523e-05 -2.46199e-22)
(1.00805 -5.42371e-05 1.30912e-21)
(1.02341 -0.00201476 -2.11267e-22)
(0.879451 0.0881871 5.56632e-22)
(1.01575 -0.00227431 -2.75142e-22)
(1.015 0.0018134 0)
(1.00429 -0.0445117 2.05044e-20)
(1.01969 0.00338956 6.84428e-22)
(1.00913 -0.00973827 -5.25937e-23)
(0.996104 -0.173857 -4.31229e-20)
(1.01128 0.00721074 -1.25559e-22)
(1.01108 -0.000343139 0)
(1.01036 0.000183245 -2.46435e-22)
(0.998266 -0.100632 1.20378e-20)
(1.01378 -0.00127335 -2.05578e-21)
(1.01328 -0.0460634 7.60579e-21)
(0.380826 0.0347285 -5.36785e-22)
(0.911384 0.26655 -8.93999e-21)
(0.872351 0.0266738 -1.0317e-21)
(1.01007 -0.00968005 -8.23717e-22)
(1.02394 -0.00232247 -4.62309e-21)
(1.05635 0.144274 2.15556e-21)
(1.02776 0.00258181 1.40166e-21)
(1.01486 0.00157656 0)
(1.06965 0.0356928 9.77328e-22)
(0.847424 0.0700044 0)
(0.633291 0.0934901 0)
(1.02194 -0.00261751 -1.9648e-21)
(1.03213 -0.0694696 -2.46375e-20)
(1.02388 -0.0021809 3.26903e-21)
(1.02307 -0.0020336 1.62387e-22)
(0.984882 -0.238991 8.14918e-21)
(1.01806 -0.00128744 2.05643e-21)
(1.09993 -0.0601215 0)
(1.0048 -0.0104663 0)
(0.979044 -0.00253273 0)
(1.01396 -0.00286156 -1.28452e-22)
(1.03799 -0.00324498 1.8784e-21)
(1.03401 -0.00796401 0)
(1.01845 -0.167627 0)
(0.874128 -0.213903 0)
(1.01215 -0.0042162 -2.13232e-21)
(1.00656 -0.00997676 2.03019e-22)
(1.04064 -0.0162259 4.38596e-22)
(1.01402 -0.00142646 1.85383e-22)
(1.00404 -0.0211597 3.24787e-22)
(1.00875 -0.0422475 -5.33055e-21)
(0.901961 -0.208867 1.60868e-20)
(1.01601 -0.00458525 7.17014e-23)
(0.992294 0.0389407 1.34828e-21)
(1.02723 0.00398863 -1.71975e-21)
(0.931994 0.236485 -3.78661e-21)
(1.00087 0.0365307 0)
(0.842522 0.191502 1.02534e-20)
(1.01393 0.10286 0)
(1.0097 0.00292969 -2.73287e-21)
(1.01407 -0.0454724 1.51749e-21)
(0.882912 -0.223647 -1.30183e-20)
(1.01575 -0.00246117 0)
(1.0178 -0.00155602 4.71199e-22)
(1.00728 -6.54552e-05 0)
(1.00615 0.00347903 0)
(1.01498 0.00128664 2.23355e-21)
(0.970073 -0.213426 -6.47652e-21)
(1.01468 0.00141268 -1.98866e-21)
(1.00812 0.134422 -3.36546e-20)
(1.04088 -0.00528483 0)
(0.937583 -0.0224335 2.62188e-21)
(0.993427 -0.0306216 0)
(1.02865 -0.00249417 0)
(0.895575 0.0192713 9.81371e-23)
(1.05202 -0.157156 0)
(1.03307 -0.00419223 -6.87785e-21)
(0.873536 0.265583 7.70167e-21)
(1.01627 -0.0432465 -1.12666e-21)
(1.01752 -0.083699 2.28482e-20)
(1.01499 0.00137014 1.7449e-21)
(1.01936 0.00319312 -6.6097e-22)
(0.874581 0.153422 0)
(1.01811 -0.0102067 1.67523e-22)
(0.879112 -0.202847 -2.10956e-21)
(1.01307 -0.000531205 0)
(1.0131 0.144785 0)
(1.01436 0.000841513 -3.86798e-21)
(0.911511 0.0241208 -2.78794e-21)
(0.884149 0.181883 -8.18098e-21)
(1.01022 0.00381953 0)
(0.424731 -0.352253 -1.22612e-20)
(1.01863 -0.000297 0)
(1.03684 -0.00401771 -8.77289e-21)
(1.01718 -0.0133954 -1.12404e-20)
(0.992929 -0.310922 -7.46361e-21)
(1.01292 -0.330883 -2.13057e-20)
(1.01341 0.00138381 4.22012e-21)
(1.01474 0.00104777 0)
(1.01542 0.00183919 2.56513e-22)
(0.904197 0.266858 2.9606e-21)
(0.977845 -0.0938926 4.37255e-20)
(1.01593 -0.000346556 0)
(1.01672 -0.0338961 -7.30204e-22)
(0.979092 0.0360383 0)
(1.01524 0.00155637 2.07116e-21)
(1.01477 -0.00278711 0)
(1.02353 -0.00739514 3.73667e-22)
(1.1059 -0.0507107 -2.1576e-22)
(0.994387 0.0117531 2.55589e-21)
(1.0182 -0.0115404 1.09048e-22)
(1.00992 2.5953e-05 1.97709e-21)
(1.01483 -0.00120118 -3.16767e-22)
(0.862252 0.0124172 9.16542e-22)
(0.695169 0.105011 0)
(1.0349 0.030587 -1.72838e-21)
(1.01253 -0.000254058 -5.63403e-22)
(1.01374 -0.000843995 -1.23886e-21)
(0.886433 0.099836 1.51925e-21)
(1.01796 -0.00150736 -5.0329e-22)
(0.854406 0.255363 5.66843e-21)
(1.00739 0.00270477 -2.33524e-21)
(0.983679 0.119798 5.48865e-21)
(0.899217 0.078209 0)
(1.0092 0.13248 9.96633e-22)
(1.01453 -0.000819148 -1.78194e-21)
(1.02875 -0.00215788 -5.44652e-21)
(1.03619 -0.00552566 -1.47675e-22)
(1.03594 -0.00335163 -7.58013e-21)
(1.03473 -0.00288117 9.59237e-21)
(1.01819 -0.00088841 1.56049e-21)
(1.02638 -0.067586 -2.15783e-20)
(1.03988 0.16757 -1.89709e-21)
(1.01442 0.000289056 2.38711e-21)
(1.04628 -0.195901 2.03557e-20)
(1.01466 -0.00122271 7.07919e-22)
(1.07661 -0.129043 6.0659e-21)
(1.03187 -0.000916726 -4.57453e-21)
(0.902114 0.109922 3.25769e-22)
(1.04444 -0.0190981 -8.9287e-22)
(1.0028 0.0139399 3.94106e-22)
(1.01547 -0.00522405 0)
(1.00847 0.00241168 -7.61322e-22)
(1.02257 0.0305786 1.16136e-21)
(0.950591 0.254493 -1.40752e-20)
(0.894016 -0.223024 7.28347e-21)
(1.02272 -0.00971565 -3.53081e-23)
(1.0298 0.0121932 -1.11549e-21)
(1.02365 0.00154459 0)
(1.03769 -0.00781007 1.78982e-21)
(1.0381 -0.00282888 -5.78529e-21)
(0.934143 -0.251348 0)
(1.01075 -0.000224069 0)
(1.01068 -0.0809474 1.42465e-21)
(1.01432 -0.000896712 5.05645e-23)
(1.04133 -0.0176912 1.23921e-20)
(1.01291 -0.00503291 0)
(1.01329 0.000687854 3.54638e-21)
(1.00764 -3.07598e-05 1.24897e-21)
(1.01383 -0.000885539 9.2375e-24)
(0.419235 -0.0432634 -5.27014e-21)
(1.01769 -0.00180171 0)
(1.03743 -0.00527802 2.50995e-21)
(1.00862 -6.52122e-05 -2.25418e-21)
(1.0092 0.000270762 -6.91706e-22)
(1.01491 0.00113821 0)
(1.02963 0.0438367 5.01282e-21)
(1.00835 -1.70896e-05 5.27123e-22)
(1.03759 -0.00134274 1.14358e-21)
(1.01466 -0.000763119 1.35752e-21)
(1.01487 -0.00300147 -1.2917e-22)
(0.995797 0.185624 0)
(1.01598 -0.00211074 -7.94373e-22)
(1.03819 -0.122227 8.1161e-22)
(1.01481 0.000353431 -2.4895e-21)
(1.00547 0.038163 2.50535e-21)
(1.00997 9.40893e-06 5.14296e-21)
(1.0996 -0.0376259 1.92864e-22)
(1.00966 0.000206422 -1.14636e-21)
(0.955135 -0.124106 -2.40152e-23)
(1.02776 -0.00924449 0)
(1.01855 -0.0108455 -1.74957e-22)
(1.01354 -0.000880725 2.30586e-23)
(0.97611 0.0639447 1.33896e-20)
(0.984395 0.199684 -1.21952e-20)
(1.08892 -0.139115 -7.48046e-21)
(0.846368 -0.0526701 1.36341e-20)
(0.886139 0.124304 7.67335e-22)
(1.01736 -0.0100981 -3.33318e-23)
(1.03611 -0.00516243 -1.04272e-20)
(0.940134 0.197267 0)
(1.01537 0.000646302 -1.96223e-21)
(0.857041 0.138373 0)
(0.837643 0.0853683 4.18653e-21)
(1.03726 0.0469428 2.69429e-22)
(0.93293 0.0368879 -8.05111e-21)
(1.03736 -0.0063651 2.25625e-21)
(0.997441 0.164303 0)
(0.994544 -0.0129354 -1.53274e-21)
(1.06878 -0.110589 3.64236e-21)
(0.932597 0.16926 -3.88018e-21)
(1.03674 -0.00537284 0)
(1.02995 -0.00461991 3.81891e-21)
(0.989462 0.18961 0)
(0.842532 0.180148 4.64172e-20)
(1.01439 -0.000190438 0)
(1.04157 -0.0128969 -2.47823e-23)
(1.01824 -0.000946755 1.31419e-21)
(1.02693 0.00422497 1.79514e-21)
(1.03836 -0.0313029 -1.58235e-20)
(1.01072 0.000223147 -9.06451e-22)
(1.01399 0.00104637 4.11276e-21)
(1.03638 -0.00349602 1.74361e-20)
(1.00547 0.0444208 0)
(1.01802 -0.0156309 5.54884e-21)
(1.02456 -0.0249919 0)
(0.91758 0.247432 0)
(1.01364 -0.000919206 5.7091e-22)
(1.01472 0.000140816 5.37532e-22)
(0.950227 0.0714712 0)
(1.18862 -0.159095 1.03256e-21)
(1.04268 -0.0346039 1.4671e-21)
(1.01721 -0.000286755 5.10312e-23)
(1.03116 0.030646 0)
(1.01383 0.000991788 1.26613e-21)
(1.01514 0.00065085 0)
(0.855877 0.18564 0)
(1.01497 0.000986504 -2.09308e-21)
(1.03657 -0.00642861 -9.8066e-22)
(0.985602 0.160181 -1.05336e-20)
(0.990211 0.122632 -1.14322e-20)
(1.0082 0.0016219 -4.07034e-21)
(1.087 -0.163195 0)
(0.876295 0.0435235 9.43719e-21)
(1.01077 -0.115383 -3.55668e-22)
(1.03992 0.112914 -1.02836e-21)
(0.917761 -0.242826 0)
(1.01417 -0.000454825 0)
(0.845261 -0.00409703 -4.48526e-22)
(1.02898 -0.0100625 -2.66023e-22)
(1.0142 -0.000906673 1.98866e-22)
(1.02401 -0.00501641 -1.28754e-21)
(1.00811 -2.92831e-05 5.88011e-22)
(1.02479 0.00180918 -1.50904e-21)
(0.629659 -0.29105 -9.54033e-22)
(1.01036 0.00767854 -2.14545e-21)
(0.853083 0.217358 -1.0037e-20)
(1.01016 0.000812475 0)
(1.07579 0.0101378 -2.33975e-22)
(1.03079 -0.0102663 0)
(1.03946 -0.0341144 1.41679e-20)
(1.00241 0.00870994 4.0779e-22)
(1.01937 -0.00646505 -2.5571e-21)
(1.0063 -0.000482393 2.18809e-21)
(1.01071 -0.000330461 2.45598e-21)
(1.01486 0.000452929 0)
(0.965687 0.0254521 3.82664e-21)
(1.03469 0.00143617 -1.32729e-21)
(1.02714 -0.0014479 5.95145e-21)
(1.01057 0.00606291 9.84372e-22)
(1.01474 0.00280479 -2.24001e-21)
(1.02935 0.138655 -9.19375e-21)
(1.06569 -0.26376 -1.37943e-20)
(1.00274 0.00446849 2.18836e-21)
(1.01848 0.00187523 6.536e-23)
(1.01789 0.00162598 0)
(1.02102 0.00349556 -2.34169e-21)
(1.00409 0.00107916 3.07997e-21)
(0.917935 0.173056 6.99389e-21)
(0.963957 0.0148375 1.96406e-21)
(1.02949 0.12933 0)
(1.02425 0.00507195 0)
(0.838026 0.0795068 -2.62776e-21)
(1.00834 -0.00605447 0)
(1.05122 -0.0308006 1.19436e-22)
(1.01719 -0.0366325 -5.80635e-23)
(1.03563 -0.00512993 -7.48551e-21)
(0.936108 0.0527897 2.92771e-21)
(1.01582 -0.00540862 -6.55351e-24)
(1.01375 -0.00267605 -1.78222e-21)
(1.0835 -0.134421 0)
(1.01827 0.00137154 7.4979e-22)
(0.888269 -0.26163 0)
(1.01541 -0.00434458 -2.16553e-23)
(0.919714 0.258561 0)
(0.920209 0.226756 -6.29435e-21)
(1.01285 -0.000163133 1.17987e-22)
(1.02772 -0.0367662 -1.32179e-20)
(1.04073 -0.0069151 -2.80464e-20)
(0.880383 0.189967 0)
(1.01152 -0.000238506 7.45721e-22)
(1.03638 -0.00902717 -1.63298e-20)
(0.969275 0.148428 -2.39918e-21)
(1.01598 -0.0161252 1.43332e-21)
(1.01553 -0.00466618 -5.58157e-23)
(1.02606 0.0332449 0)
(1.02769 -0.0105144 -2.62476e-21)
(1.01249 -0.000225201 1.29682e-21)
(1.01408 -0.00289918 0)
(0.859215 -0.0679373 0)
(1.02752 -0.0119194 -1.4071e-21)
(1.04379 -0.0134484 -1.10128e-20)
(1.0406 -0.0922896 -5.48633e-23)
(1.02732 -0.0331933 2.64721e-20)
(1.04671 -0.0184862 9.04266e-22)
(1.0326 0.0140653 -2.88389e-22)
(0.975126 -0.0320955 -3.13107e-21)
(0.816771 -0.0147081 2.80039e-22)