/*--------------------------------*- C++ -*----------------------------------*\
| =========                 |                                                 |
| \\      /  F ield         | OpenFOAM: The Open Source CFD Toolbox           |
|  \\    /   O peration     | Version:  v2012                                 |
|   \\  /    A nd           | Website:  www.openfoam.com                      |
|    \\/     M anipulation  |                                                 |
\*---------------------------------------------------------------------------*/
FoamFile
{
    version     2.0;
    format      ascii;
    class       volScalarField;
    location    "300";
    object      ddt0(omega);
}
// * * * * * * * * * * * * * * * * * * * * * * * * * * * * * * * * * * * * * //

dimensions      [0 0 -2 0 0 0 0];


internalField   nonuniform List<scalar> 
9793
(
4.95841e-06
2.10716
-1.31178e-05
0.00824012
-1.60181e-05
0.0424719
0.00529986
-0.0102372
2.5664e-05
2.36417
-7.09125e-06
-7.30131e-06
-1.83764e-06
0.0676679
-1.87128e-05
0.00030183
0.0015432
1.04473e-05
-0.127693
-2.83303e-05
-1.12608e-05
-1.64039e-08
0.0284288
-0.0880496
0.090711
8.03453e-05
-3.36247e-06
2.88495e-06
-2.90318e-05
0.00322704
0.473585
0.0115198
-2.15158e-05
-1.0789e-05
-3.67706e-05
0.000600095
0.00016001
-1.30348e-06
-0.0673118
0.000658304
0.00221154
1.44786
-0.40343
-5.31721e-06
-1.56322e-06
-9.88579e-07
0.444227
-4.92435e-06
-2.76805e-06
4.84199e-06
0.00057456
-3.42234e-05
0.00119399
-5.00285e-06
0.000247718
-0.00215026
4.50317e-07
0.00846144
-2.67292e-06
-1.36243e-08
1.78885e-05
0.00485091
-1.01974e-05
0.00132233
-1.44415e-06
2.17083e-05
1.04502
0.000166681
0.000188467
-0.30279
-7.2651e-06
-0.0014169
0.225875
-0.112821
-0.388757
-5.91747e-06
0.00262055
-0.120128
-6.99003e-06
-4.4209e-06
-0.00527307
-0.14574
0.00167137
9.36982e-05
0.000199802
0.0287054
-1.32809e-05
0.00306888
-0.0682981
0.00505959
0.00562047
3.57407
-3.62747
0.000687805
-0.347286
-4.37534e-06
-0.338853
0.00136775
0.000208809
-1.02237e-05
-0.000548473
0.00108024
0.161
-2.47062e-06
-0.343587
-0.496082
-0.123271
-1.41844e-05
-6.58285e-06
-9.06912e-06
-8.36278e-06
0.013749
-0.0301491
0.363243
-7.41035e-06
-2.24859e-05
4.81435e-05
8.90705e-06
-0.0113487
-3.11402e-06
-0.283014
0.00345001
-0.0902633
0.00146359
0.000170961
-1.28812e-06
0.00226462
0.390075
0.00835855
0.0058394
0.000140642
-1.48005e-05
5.30291e-06
9.83372e-05
0.00047964
-0.0153754
0.706246
5.98435e-05
-2.70809e-06
0.00239809
-0.186855
0.000505833
8.05913e-06
0.00248909
0.663618
-0.0886632
-1.85381e-06
-0.344196
-1.12919e-05
-5.23724e-08
-1.26665e-05
-1.2408
0.000162654
-5.01919e-06
-7.83494e-06
-12.1235
0.00192335
-1.53894e-06
0.215827
-9.48959e-06
0.0027658
0.00014336
-1.05526e-05
0.0802993
1.05605e-05
0.977928
0.164124
2.39735e-05
-3.92298e-06
1.58519e-06
9.55121e-07
0.103211
-0.871628
-0.113925
-2.04555e-06
0.0323868
0.00335561
-0.0476232
-6.58601e-06
0.000163394
-0.337208
0.460162
0.00370169
2.00299e-07
2.54121e-06
-9.33614e-06
0.0524568
0.262125
0.165326
0.123402
1.67331e-05
-2.24457
0.0921226
3.23331e-05
-1.67634e-05
5.66463e-05
0.000709701
-9.38523e-06
8.90481e-06
1.34999e-06
-4.05266e-06
-1.23719e-05
0.000715368
0.00023515
-0.0331007
3.17863e-06
0.000497509
2.21544e-05
7.35759e-06
0.0297442
0.0020382
-0.223338
-1.75113e-05
-0.283439
6.9428e-05
0.00160245
-1.36698e-05
0.0383557
-1.76627e-05
-0.000245469
0.00171081
-1.19668e-05
0.0108784
-0.100467
0.000615036
-3.11771e-06
0.00184759
-0.050357
0.000525473
9.59404e-05
-0.025715
0.00833774
0.00145131
0.00140329
0.0596917
-7.60155e-06
-0.15694
0.342619
-2.23792e-06
-8.7259e-06
1.83743
-5.73891e-06
-6.12026e-06
0.00396807
0.0103905
2.14118e-05
0.000166689
0.000594543
0.000279361
0.000180251
-6.8327e-06
0.000749434
-0.0190898
-1.05005e-05
-0.107025
-6.1178e-06
1.61363e-05
-4.02551e-05
-0.00762767
-2.33618e-06
13.0365
-0.347144
-1.7185e-05
-7.42953e-06
7.31913
-2.51201e-05
-8.72259e-06
-2.39103e-05
-0.31506
-0.0255881
6.9328e-05
0.0836791
0.00447944
0.154088
0.0152185
2.59122e-05
0.415571
1.65204e-05
-0.0389394
-0.111853
-0.0643645
-0.311542
0.00549521
0.000140044
0.00143778
0.000228613
-2.79266e-05
1.68925e-05
-0.0666309
7.99049e-05
-4.56483e-06
6.35345e-07
-8.6746e-06
-3.95835e-05
-1.16476e-05
0.0193216
-3.56395e-06
-2.0335e-05
-4.36086e-05
-4.57073e-06
-0.0955325
-0.269847
4.49687e-05
6.20713e-06
0.00242786
-5.65736e-05
-0.00869149
-0.898671
-2.83211e-06
-0.376686
0.00113111
-6.61395e-06
2.98694
-0.0260715
-2.25332e-05
0.000846589
-0.121859
-1.48043e-06
4.97321e-05
-1.94129e-05
1.55116e-06
-0.0247099
0.000388843
-9.84121e-06
-1.44593e-06
4.93569e-07
0.00548342
-0.0307897
-1.1294e-05
-1.98954e-05
4.18412e-06
0.0974697
0.0129709
-0.702603
-6.37205e-06
0.000323529
-0.000232849
-0.222733
0.00307137
-5.93278e-06
-3.30197e-06
4.34593e-06
0.00120264
1.22363e-05
-0.877244
-1.59572e-05
-7.30189e-06
-0.0355305
0.0266579
-0.2671
-4.21513e-05
-0.00613865
0.00013443
-0.0310458
-0.700608
-0.0251488
8.70002e-05
0.000531654
0.310502
0.0139983
0.00707102
-1.47177e-05
8.77944e-06
7.10694e-05
-1.77301e-06
-2.58437e-05
9.60585e-06
8.04495e-06
1.14679e-09
-1.21652
1.18446e-06
0.00226799
0.000706174
1.22639
-6.5117e-06
0.000101215
-0.00827859
0.0222608
0.0444096
0.00288216
1.02102e-06
8.91798e-05
-1.02387e-05
-0.597629
-1.58154e-05
-0.261692
0.00303897
0.00583121
-0.302864
-0.0237406
-3.41248e-05
-9.08044e-06
-0.136324
0.891193
8.92551e-06
-0.368659
-4.05387e-05
1.87985e-05
-0.0900041
-8.63665e-06
-0.00158389
-7.00692e-06
0.130994
-7.03024e-06
9.58122e-06
-0.0804925
-0.0002111
0.00228842
3.443e-05
-1.67556e-06
1.17873e-06
-0.204472
0.00153634
1.51805e-06
-1.46147e-05
0.000199766
0.000756576
0.0022183
0.794666
3.20666e-06
-1.61787e-05
-0.631409
-2.95191e-06
-0.0163311
-0.0270539
2.50051e-06
-2.1059e-05
1.47984e-05
-4.00336e-05
6.24686e-06
-0.00566462
9.12152e-05
0.176236
-1.87315e-05
3.59107e-05
0.00145868
-4.39538e-06
-0.0108291
3.32663e-05
-1.38567e-05
0.00016837
-0.0517554
-2.33588e-06
-8.05633e-06
-2.73691e-06
-1.36911e-05
-6.69212e-08
-4.97076e-06
4.88123e-06
-2.01212e-05
5.38111e-05
0.00020535
0.00745503
-1.08349e-05
-0.00497607
6.39223e-05
0.0259604
-0.0551087
-2.56582e-05
-0.0155118
0.00210595
-1.45672e-05
-3.28789e-05
1.1848e-05
-0.248521
0.00583707
-3.00002e-05
-2.21133e-05
1.64095e-05
-0.000382815
0.00233437
-0.179852
-5.47601e-07
-3.25655e-06
2.42506e-05
0.320327
-0.0548832
2.54317e-05
6.49112e-05
-0.114275
1.63216
0.0591776
1.23724e-05
-1.52979e-05
-0.0377412
6.29896e-06
0.00259897
1.20832
-6.49798e-06
-0.0460074
0.00040518
0.00935513
1.9642e-06
-0.0757699
-0.0309312
0.000274426
-4.32644
1.48035e-06
-0.0709748
-4.49579e-06
-5.26409e-06
-1.35834e-05
5.60004e-06
-0.396484
-2.82561e-06
-2.04155e-06
1.82221e-05
-5.98316e-06
-1.92556e-05
0.000803476
3.56222e-05
0.00124635
-2.10275e-05
-1.55269e-05
0.00249909
-0.000686272
2.53828e-05
-0.121705
0.000184885
1.16042e-05
-7.08516e-06
4.10627e-06
-0.972851
-1.94619e-06
3.21642e-06
0.268228
1.59412
0.00123677
1.20601e-05
-6.9367e-06
2.07631e-05
1.95279e-06
-0.0849028
5.91171e-06
0.150482
0.000147996
0.0254339
-6.14327e-06
0.790794
-9.89744e-06
0.0026477
5.25217e-06
0.00383211
-0.0197108
-7.33882e-06
0.305928
-2.07177e-05
-3.12257e-06
-1.07702e-05
-0.266941
-0.0285701
6.93499e-06
0.000484423
-1.74337e-06
-0.097683
-2.49575e-06
0.000809637
-0.0826806
-7.05576e-06
1.37158e-05
-0.00142966
-1.03249e-06
2.53513e-05
3.61007e-06
0.00566391
1.05576e-05
-0.113096
-3.64419e-06
1.00039e-05
0.00171359
-0.00631619
0.165235
-2.37511e-05
0.14688
-8.72893e-06
0.00667339
-1.26227e-05
1.83408e-05
-9.3554e-07
2.09023e-06
-5.99314e-06
0.00161164
0.00154946
0.275918
0.00637496
0.000103796
5.25038e-05
0.0475549
0.000124266
-0.0744428
-0.0698883
0.0115068
1.21649
0.910617
0.00389921
2.30374e-05
-0.0348385
0.00168311
1.67412e-05
-0.0251556
-4.40415e-06
0.0250848
0.000209666
0.0425003
-2.25012e-05
0.0377227
0.346566
0.00148814
-0.0092797
-6.08266e-06
-0.0841512
2.43852e-07
7.51134e-06
1.46273e-05
-1.73338e-05
0.00123941
-0.0293706
-0.0844932
0.640324
9.94728e-05
3.98154e-05
0.0134315
-0.00891967
4.13679e-05
0.00252822
7.16145e-06
-0.0558185
-0.0604533
8.97011e-06
-0.000107391
0.234878
0.221497
-8.41148e-06
7.59041e-05
-0.169928
0.000624702
0.177059
0.0041931
0.964705
0.000123594
0.000131818
9.66214e-06
-1.20578e-05
0.0174915
9.19015e-07
0.0187622
0.00857952
-0.000421583
-1.56795e-06
8.59184e-06
3.76385e-05
-3.72576e-05
-3.88755e-05
-1.06423e-06
0.00611353
-0.215086
0.105554
5.44147e-06
0.0976095
1.49547e-05
-0.191678
0.00200428
8.52709e-05
-0.00140122
-0.02876
-2.14284e-05
-1.28913e-05
0.00100548
2.02443e-06
2.24347e-05
0.00239493
0.0492832
-1.49186e-05
0.00710706
-0.0854005
0.000198673
-0.0351696
-0.102528
2.09828e-06
0.00163567
0.000365646
1.56383e-05
-1.00109e-05
0.00160409
-0.0790572
0.220148
-2.94224e-06
-9.47726e-07
-2.42395e-05
5.11728e-05
3.81251e-05
5.07896e-05
-0.113566
0.00203894
-3.49975e-05
2.98921
0.000707206
7.95843e-05
1.38133e-05
0.629073
0.000120736
1.19378e-05
-0.0103701
-0.00554322
-2.56523e-06
6.00964e-06
-9.3606e-06
0.000228799
-2.51454e-05
0.00158714
0.135856
1.20628e-05
0.00532452
2.915e-05
1.32553e-05
0.25248
-0.111815
0.0132367
-1.50013e-05
-8.79584e-06
0.863679
2.23702e-05
0.0809568
-1.3565e-05
-1.03374e-05
0.442779
0.159417
0.000609815
0.0119483
0.000341642
-7.49563e-06
1.0024e-06
1.26607e-05
-0.219437
4.6174e-06
-4.52266e-10
0.0167132
-5.82305e-06
0.167901
0.000250477
7.47703e-07
-0.0639029
2.73255e-05
-5.7853e-06
1.19923e-05
0.000184933
0.0164068
1.52682e-05
-2.0074e-06
-7.36154e-08
-3.03929e-06
1.48577e-05
6.40418e-06
0.190256
0.000348976
1.79256e-05
7.40461e-06
0.000176543
0.00232259
0.000294266
-1.14249e-05
-4.22626e-06
-2.05993e-05
7.2574e-05
-0.0230505
0.0336078
1.87434e-05
0.283508
-9.87106e-06
8.76966e-05
1.63567
-0.00963718
-6.03597e-06
1.51715e-05
0.0022657
0.00182349
1.18778e-05
-5.98568e-06
-0.132871
-2.92922e-06
0.00224106
-1.84511e-05
0.00678924
-3.75491e-06
-8.5251e-07
-1.21163e-05
0.000415699
-3.28504e-05
6.0274e-05
-1.40495e-05
-8.01387e-05
4.99929e-06
4.79856e-06
-9.18206e-07
-2.35612e-06
2.01962e-05
-5.05379e-06
0.000678918
-2.21522e-05
0.00222485
0.0610654
0.00102951
0.00258484
-5.94117e-06
3.98037e-06
0.284237
0.272807
-1.26802e-06
-0.0456273
0.471118
-1.19917e-05
1.74319e-06
-1.43764e-05
0.000478865
0.00235151
-0.0423727
-1.37097e-06
0.000184175
-4.21597e-06
3.52885e-06
-6.22198e-07
0.00140631
2.0005e-05
0.0248805
-1.18739e-06
0.000430283
-3.56745e-06
3.69678e-05
-9.43037e-06
0.00130413
-0.000632187
0.244481
-0.343957
-0.0556379
0.0016369
-1.05491e-05
-0.0795729
-0.0294746
0.00257248
8.91388e-06
2.23497e-06
0.0050785
-1.44047e-05
0.0208004
-7.40559e-06
0.000711768
2.4583e-05
1.09524e-05
-1.56897e-05
1.02477
-0.247571
0.0141577
0.000455364
0.263976
-5.2465e-06
-0.223811
-0.656517
-2.98146e-06
7.75967e-06
-2.99398e-05
0.401302
-6.35642e-06
0.0400426
5.90207e-05
0.0147412
2.61608e-05
-1.41525
2.41071
0.00688283
0.000130221
0.000808367
1.36248e-05
-0.802312
-2.20277e-05
0.00220855
0.0307759
0.00273901
-0.210714
-0.330435
0.00014415
8.66413e-05
1.20512e-05
0.00464614
0.0469988
0.0554564
-2.8395e-05
0.00454478
0.000251991
-0.0110453
0.000157647
0.0454244
0.0595293
-4.42615e-06
6.81254e-05
0.00083381
0.00014773
3.13781e-05
0.0350869
1.49403e-05
-0.642599
5.28453e-06
-4.13876e-06
0.00130658
0.0209597
0.258751
4.42569e-05
-0.989816
0.304106
-3.87368
-1.89956e-05
3.05202e-06
4.49746e-05
5.75863e-07
-1.01724e-05
1.85915
0.0613093
2.85112e-05
-1.23148e-05
0.000964689
-0.00611877
0.000226929
3.35741e-06
-0.00492983
-1.73911e-06
8.0239e-07
-1.45598e-05
0.00262152
-1.44524e-06
0.000211156
0.0744032
0.00227192
-2.10683e-05
0.0327905
0.00202572
1.23309e-06
1.5485e-05
0.000907824
-3.8896e-06
1.4222e-05
-1.3426e-05
-0.319171
0.0147288
1.42091e-05
0.00101527
-0.000105874
-0.0969414
-8.14645e-06
-0.284809
-1.99391e-05
-3.41107e-05
-0.0228899
0.0408425
0.00280036
1.19051e-05
-1.16114e-05
1.02065
-0.0227572
-0.0019272
-0.0153618
1.08279e-05
-1.7698e-06
-2.24041e-05
0.415187
6.1614e-05
0.133308
-9.08612e-07
1.32871e-05
4.77963e-05
-2.04823e-05
4.75175e-06
0.0026317
-5.45088e-06
-0.241885
-2.29722e-05
-1.8745e-06
-5.95371e-06
0.000196243
0.0466182
0.0244034
0.0023757
0.364257
3.52224e-06
0.000242998
6.38128e-05
0.550334
-3.27025e-05
-1.04486e-05
0.0824516
0.000231679
6.45427e-05
-9.51915e-07
0.0370454
1.32364
-0.283509
1.23196e-05
5.65964e-05
0.00839638
0.000926229
3.68603
0.0085296
0.00115079
4.45607e-06
1.40049e-06
0.00256718
0.00570951
1.2968e-05
0.00526919
-3.39532e-05
1.79488e-05
2.10082e-05
-1.79789e-05
-1.26716e-06
-7.08886e-06
0.0686466
0.000230796
5.74863e-05
0.000803839
-1.95286e-05
-1.31278e-05
0.000785581
-0.340212
-0.000539249
0.00167262
0.0847711
8.59656e-06
-1.40479
0.000248476
-0.016534
0.00108529
-9.03135e-06
1.96907e-05
0.000108892
-1.10541
0.00340773
0.00101016
0.00238389
-1.59097e-05
-9.43005e-06
-4.22252e-06
-9.83161e-06
0.393671
0.000296035
3.84466e-06
0.0157186
0.000846109
-0.101188
4.76409e-05
0.0860285
5.83118e-05
0.00127677
0.00102913
0.00697809
-0.0181634
1.90489e-05
0.0522177
-0.0477915
0.000110801
-0.240811
0.00162945
2.45e-05
-4.72151e-06
-9.52802e-06
2.07799e-05
1.985e-05
-1.1299
0.00199492
-3.46013e-05
-0.171208
-1.82684e-05
-0.0684042
0.0193666
1.39883e-05
-0.949736
-3.0371e-05
1.10747e-05
-8.55284e-06
0.0981234
-0.0911582
0.00201079
6.08846e-05
-1.32772e-06
-0.193802
-1.15404e-06
0.00037194
1.06675e-05
2.39792e-06
3.93262e-06
-0.197597
2.66657e-05
0.000195723
0.000254546
-1.54845e-06
-0.134591
0.00546988
0.00120423
0.000130776
0.000133691
-0.078379
-0.052135
-3.72148e-05
-1.80089e-05
-3.83965e-05
2.11292e-05
1.05198
-0.0756163
0.0352123
0.00014142
-1.32867e-05
-0.241085
0.621271
1.3368e-05
-0.431632
-3.27403e-06
0.004158
-0.721058
-1.05111e-05
1.80283
-1.11765
0.00481241
0.379453
0.0287178
-1.22132e-05
2.21025e-05
-0.00959959
-0.0288635
2.17248e-05
0.231009
0.000205652
-9.76002e-06
-1.11094e-05
6.61395e-05
0.00128893
0.000241438
-0.0407889
0.350235
-0.0414
5.40187e-05
1.62811e-06
0.000796152
0.00908254
-1.67973e-05
-0.0299666
0.00103822
-8.0881e-06
0.000118952
3.29366e-06
9.92685e-06
7.49064e-06
0.010261
1.41797e-05
-6.27402e-06
-0.0200515
0.00555783
0.0034278
-2.49774e-06
0.00176635
-1.48673e-05
-1.01577e-05
-0.207669
2.45157
2.0933e-06
-2.1124e-05
-0.204641
-0.0527046
0.00107439
6.74795e-06
-0.433006
2.42416e-05
-1.18944e-05
-3.38077e-05
2.53417e-06
-1.37431e-05
-5.52791e-06
-0.228268
0.0155614
0.000160773
-0.0275804
0.00183354
-0.0170321
-0.00968219
-0.163445
0.00656987
-7.92497e-06
-1.36689e-05
2.79308e-05
5.34762e-06
-0.00224649
1.97235e-06
-0.00038096
0.000595378
0.34692
-1.43682e-05
0.0251086
0.000783498
-0.18765
-2.19118e-05
0.0046196
0.000800464
0.0194151
0.157406
0.000384378
-3.99689e-06
-0.136219
0.00203581
1.66889
2.11092e-06
-0.0111572
-2.05975e-05
0.295596
0.0417742
-0.00186348
-5.58922e-06
1.77109e-05
-0.0957194
1.47912
0.000974064
-5.11761e-06
0.0767523
-0.000582807
0.00142049
0.182175
0.00123622
-5.31496e-06
0.158495
-5.5872e-06
0.00111343
-1.35188e-05
1.24099
-1.31542e-05
-1.77966e-05
-0.0150181
0.0020214
2.05747e-06
0.00226603
0.000172379
-0.00398411
-2.65598e-06
-0.0356367
-9.25059e-07
0.00256465
5.49445e-06
4.93126e-06
-0.0233482
0.000617956
0.235584
0.240183
-0.032256
-9.61589e-07
-1.57185e-05
-9.42405e-06
0.000295695
0.0012404
0.000820082
0.355691
0.000107926
0.0209888
0.000281477
-9.27319e-06
1.30135e-05
0.00280097
-0.0441607
0.513522
-2.72693e-06
-0.0107492
-1.05121e-06
-0.229508
-0.00853456
0.00180844
-6.67565e-06
4.79187e-06
0.000994903
-1.78106
0.000151062
8.94732e-07
1.7745e-06
0.00141198
6.45228e-06
-0.00655993
-0.0928102
0.0211094
-2.74322e-05
0.00035859
-0.660951
1.53432e-05
0.000109939
-1.36739e-05
0.656124
0.000369971
-6.75532e-06
0.000225273
0.00333891
-3.11149e-05
-0.00257325
-6.18098e-06
0.0133555
-0.00641888
0.0639677
-0.0193053
1.96029e-05
1.42448e-07
-2.5853
1.59948e-05
0.000530097
0.00556118
0.000108787
-2.14759e-05
-0.241863
-1.3252e-05
-0.000409563
-2.51093e-05
0.00245152
2.76766e-05
0.028521
6.16605e-05
0.000194422
-0.00692113
0.248299
-1.18513e-05
-2.33509e-06
0.0043607
-0.189714
0.0022894
0.266752
0.000710328
3.93729e-06
-1.12357e-05
-0.114096
-1.18548e-05
-0.134285
0.000559276
-0.0174125
7.71114e-06
-2.44431e-06
-1.09505e-05
0.00102888
0.00186254
0.00633425
-0.00110142
5.1752
0.163959
-3.24173e-05
-0.0271145
5.97021e-05
0.0029654
3.00414e-05
0.000900883
-0.000234405
-1.05766e-05
-2.97953e-05
0.00275197
-6.71445e-06
0.000714609
-0.000293059
-0.0800244
-0.335046
0.00142741
-0.105929
2.23134e-06
-1.97839e-05
3.20444e-06
-0.00658305
0.000810772
0.00122452
0.00630758
0.403882
0.000414534
0.00660498
-1.35681e-05
-3.04803e-05
-1.26712
4.20998e-06
-0.00732169
-1.46319e-05
-1.43626e-05
0.0840244
-0.00282915
-1.44903e-05
0.00322238
0.0615692
-0.384845
0.124708
0.000167861
0.00317069
0.00219439
8.17709
7.01646e-06
-0.237555
-0.216543
-1.54019e-06
0.000233128
1.1922e-06
0.0114074
-1.71743e-06
-1.05497e-05
0.0797749
1.56456e-05
-1.64572e-06
0.00495497
0.00281182
-0.0159352
-0.00312203
-0.0016678
0.0472773
-5.12215e-06
-3.88445e-06
-2.20967e-05
6.25662e-06
1.20714
1.40617e-05
-0.00746274
5.8027e-05
0.296313
3.53989e-06
1.29253e-08
-3.34585e-05
3.74429e-06
-3.91022e-05
9.46633e-06
-2.37573e-05
0.33102
-1.7894e-05
0.00236614
1.61058e-05
0.466496
-1.01199e-05
1.73971e-05
-3.15202e-05
0.00191521
-1.28893e-05
-2.19686e-05
-1.69073e-05
-1.01308e-05
8.91573e-06
-2.41701e-05
7.8474e-05
3.77555e-06
0.12458
-0.229106
0.502635
-0.044829
-9.62138e-06
4.5804e-06
-4.161e-06
-4.41885e-05
-1.45175e-05
-9.46539e-06
0.0114617
-8.01373e-06
-3.05189e-07
3.97348e-06
-2.1213e-05
1.4242e-05
-0.823188
2.56274e-06
3.18536e-06
-1.04432
0.00186218
-4.60738e-05
-0.84251
0.219644
-1.22167e-05
-0.0370021
0.136192
2.82706e-06
0.000164509
1.59702e-05
-1.83459e-05
0.000205931
-5.90545e-06
0.00160287
4.14825e-06
1.66544e-05
-1.99856e-05
-0.305595
0.000484914
-0.000567864
6.87412e-06
7.68504e-07
0.131407
1.91197e-05
-3.21676e-07
0.000120844
0.000155634
-1.11963e-06
0.0826629
-0.774007
2.48633
0.113749
-0.0215172
0.000260993
1.10086e-05
-1.46888
0.0090472
4.59632e-05
0.00237083
-1.22156e-08
-1.67563e-05
2.54793e-05
-0.015763
0.000989181
1.33431e-05
-1.46536e-05
0.00825658
-4.91592e-06
0.141588
1.71984e-05
-0.000304065
0.0100708
0.501168
1.42121e-06
2.65743e-05
-3.3633e-05
5.08741e-05
2.07118e-05
0.000234619
0.00652456
0.755281
-2.86762e-05
0.159809
-0.443285
-6.00043e-06
-0.126785
0.000140616
0.000467248
0.00591498
-5.5299e-06
0.000200357
0.00154601
-3.71358e-05
0.000242281
-5.57364e-06
0.225785
-6.6064
-0.000305225
-1.09714e-05
0.00513698
-0.00229371
0.00851649
-0.0311387
7.38794e-05
0.00057853
-5.92336e-06
8.14389e-06
0.00153416
0.000207713
-0.937716
-7.56568e-06
0.00705079
-3.13687e-06
0.210672
0.00394248
-0.14425
-2.46651e-05
6.65412e-06
0.00649692
0.0138534
0.00118176
0.060329
4.87579e-06
0.0963587
-2.13029e-05
-1.49492e-05
-0.00320749
0.0360088
6.67758e-05
-8.97289e-06
-0.000934712
0.0096208
0.00748388
0.00187117
-3.9313e-06
1.49948e-06
-4.05461e-05
0.013747
0.713651
-1.44946e-05
0.00184337
0.0126748
0.00315604
-0.014711
-0.00315533
-0.0702207
-0.0366417
-2.41218e-05
-7.03198e-06
-0.038564
-8.3668e-06
0.0015562
-0.00253026
-1.07968
9.58103e-06
7.79465e-05
0.0227264
0.013711
-0.00628714
-0.209582
-0.0942557
0.00285688
7.35019e-06
-1.33399e-05
-1.06117e-05
1.8319e-05
1.65561
-2.26563e-05
0.00913977
-0.0910526
-0.00227113
1.16813e-05
0.0153781
-1.52143e-06
0.000834124
-6.80292e-06
0.000704882
-0.59517
3.04027
2.37328e-06
-2.37934e-06
0.0013963
0.208653
-0.00363294
-0.794495
0.000505454
4.71542e-06
-0.000631381
7.3684e-06
0.00274843
9.46709e-05
-6.78722e-06
0.112516
0.0366471
-0.677236
0.00131384
1.82246e-05
-3.68122e-06
-1.28875
5.78699e-06
-6.59586e-06
-2.76465e-05
-1.22251e-05
-1.18378e-05
0.0380364
1.37391
-0.0438113
-0.0119487
-0.379608
1.23912e-05
-7.52774e-06
-0.021399
0.000180291
0.00332825
0.434893
-5.93499e-06
-0.0827996
-0.101324
0.00165079
0.000148017
-0.000691132
6.02307e-05
0.0234997
0.000607728
0.0248977
-1.66605e-05
4.6212e-05
0.00034546
-0.0204256
0.00671149
0.00142667
0.17768
-0.0205927
0.00175454
-0.000778172
-0.0170235
0.000158195
0.0170577
-0.00623085
0.000506987
0.00159936
-0.207485
0.00104394
0.000462199
1.28257e-05
0.00127575
0.0015699
0.0015706
-4.39324e-06
0.263579
0.00322297
0.0355421
0.338209
-0.0451626
0.000294436
0.00624153
0.236786
-3.14316e-06
0.0131929
0.198988
1.46794
0.000205916
-9.87456e-06
0.126581
1.77992
2.83959e-06
-0.0281041
-3.22943e-05
-4.60671e-06
0.0287541
-1.05015e-05
-0.00915637
0.0324472
-0.111305
0.860703
-1.45726e-05
0.00124791
-3.30745e-06
-9.69566e-06
-0.00455342
0.00227676
0.000396038
0.0238695
-0.0137343
1.26972e-06
0.000363915
0.00183195
9.61477e-05
0.0880374
-0.000113105
-0.0310746
-0.0335079
0.0870574
0.0445194
0.491005
-0.000304609
-0.0342649
-0.0499841
0.000605598
3.55074e-05
0.000399965
-0.000992329
0.0209948
0.927669
-1.58279e-05
-4.3522e-06
-0.234591
0.00756688
0.000188837
0.161751
-7.74457e-06
0.00247933
-0.235433
0.302112
-1.34688e-05
0.0408917
-0.00335262
0.000242709
0.000258029
-0.0181972
-0.0653419
0.643434
-0.29499
-4.52904e-07
3.9975
-0.0142947
-0.000266169
0.00581471
0.00093561
-2.19395e-05
0.000374841
0.00268386
-0.239933
0.000193534
6.47621e-06
0.11635
0.000634335
-0.048456
0.00224204
-0.0805004
-0.0350271
-4.63126e-06
-0.132705
-2.87742e-06
0.000805811
1.36281e-05
2.01656e-06
1.91158e-05
0.000857106
-0.0798485
-1.26394e-05
-1.87766
0.00328054
3.07938
-1.00896
-0.00123193
-1.53807e-05
-0.270837
-0.00330697
-0.0121642
0.000212638
-1.49935e-05
5.20691
-0.851763
-0.174321
-0.000202919
4.12797e-06
4.4469e-06
-3.43802
-0.00337129
0.000139866
1.47883
-0.000174668
1.90011e-05
0.0220047
-8.46075e-05
0.841973
6.37174e-06
0.000494487
0.00212634
0.510607
-0.0316377
0.025433
-0.0346541
-0.0153232
2.52936
-4.06706e-06
-0.317047
0.00021858
1.45005e-06
-7.02062e-06
-5.01062e-07
0.118954
-0.000220993
-0.0370736
-0.0339431
0.00128849
0.0450293
0.00361556
-0.0326262
0.000281163
-0.175296
0.124618
0.0179203
-0.00144334
-4.86797e-06
0.0390024
-0.00154667
0.00394844
0.0124108
-0.309526
0.00954271
1.57487e-05
0.00015692
0.00869954
1.80512e-06
7.48064e-06
0.000389065
-0.0390472
0.000403279
6.56444e-05
0.0322788
0.00347087
0.106706
7.77561
-0.0366789
0.728043
-0.136135
0.229415
-0.0341412
0.00359769
0.000824088
4.66819e-07
-0.0110789
0.00592764
-0.00491178
1.70263e-05
0.000317661
-3.2416e-05
0.0107203
0.373103
0.000245744
-3.08518e-06
3.98757e-05
6.311
-1.56013e-05
-2.39543e-05
0.00177346
-0.0158846
0.000482582
0.00428415
0.0169686
7.02711e-05
0.00226543
-2.48537e-05
8.47856e-06
0.000743282
-2.38863e-05
1.59018e-05
0.000297563
-9.06252e-05
0.650487
8.40779e-07
-0.782145
-5.6653e-06
-0.0417052
1.01572e-05
2.19516e-05
-7.14524e-06
0.00981905
0.00116828
-0.0416464
-1.20612
0.00037016
-1.03681e-05
2.14196e-06
-0.230875
-0.251758
-1.81591e-05
0.0187739
-0.0332332
0.00146439
-0.00557794
-2.6611e-05
4.02542e-05
-1.15153e-05
0.0172223
0.00104523
7.692e-06
-0.6888
1.92177e-05
-0.00155962
0.0149862
-2.03964e-05
0.00230098
0.00170951
-0.772173
3.96394e-06
1.18141e-05
4.17627e-06
0.00143317
-2.80169e-05
-4.05735e-06
0.348772
-0.0517199
0.00307111
-5.52308e-05
-0.132834
2.02553e-05
1.91212e-05
1.44841e-05
2.04242
-0.548491
0.000128412
-0.541519
0.298396
0.00159965
0.00524437
2.98849
-0.0285549
2.22883
0.00234064
0.00291335
0.0563586
0.00126126
9.41939e-06
0.000134078
0.000750685
-1.1667
-1.75538e-05
-0.3834
-2.85535e-06
0.000427897
0.00355679
5.81411e-05
-5.59009e-05
6.99566
-1.29166
0.0621477
0.00979722
-1.4677e-05
0.00317289
0.235726
0.000332055
0.741002
0.000371807
-9.82154e-05
-0.0793106
0.000827228
-1.7837e-05
0.00471563
0.00478464
-1.47701e-05
-0.01338
-1.0523
-1.91616e-05
1.78905e-05
7.95633e-06
-1.18635e-05
-0.64004
-1.93039e-05
0.00125904
-7.04364e-08
4.38548e-06
0.000599858
-8.96595e-07
0.0272124
0.00415721
1.27457e-05
-4.30173e-06
0.00722569
9.06349e-05
3.87665e-05
-0.247645
0.192899
0.00114636
-0.0422935
2.71758e-06
-9.08472e-06
0.00981945
-1.40662
0.00046726
-0.0216425
1.37617
0.00171823
0.000684695
0.000330269
0.00229704
0.000314456
-0.0490429
-3.03418e-05
2.52287e-05
-2.2017e-05
-0.267562
1.5729
0.00014537
0.00454691
-3.37873e-08
0.000280246
0.00494237
-0.0295048
8.89041e-07
0.000603751
-0.133707
-0.000718965
-2.63229e-06
-5.81818e-06
-0.463343
0.415542
-1.7369e-05
-2.49904
0.000817489
0.0218368
0.0160872
5.9107e-06
0.0227546
0.000685039
3.32604e-06
0.0110932
0.0290822
-1.69206e-05
-2.05213e-05
0.125144
-8.60311e-06
-6.94182e-06
0.00667053
0.000458934
-0.00246079
0.227251
0.000242453
0.00182178
-0.116583
2.92928e-06
0.353957
0.196508
0.000242329
0.00286065
0.0048315
-3.02098e-06
0.0145704
-3.33941e-05
-0.0208399
-0.00213951
1.07607e-06
0.87996
0.0683666
-5.27342e-06
4.54727e-06
0.000744205
0.00144725
0.05652
0.033739
9.22418e-08
0.000957897
0.28626
7.11485e-06
0.0019262
0.00306568
0.000394615
-0.00400662
0.00418256
3.61634e-06
-0.00144668
-4.65885
9.34949e-05
-0.490649
-1.3092e-05
-8.43887e-06
-3.15492e-06
0.000104218
-0.209308
1.17349e-05
0.00104528
15.7834
-0.119456
1.35842e-06
0.00034412
-0.00185123
-0.0151776
-9.37558e-06
0.294131
0.000810711
0.00417069
0.0010936
5.98567e-05
0.000301968
-5.10266e-06
-1.89535e-05
0.528193
9.66267e-06
-0.000189505
-1.51202e-05
-0.486663
-1.04183e-05
-2.8611e-05
-8.95101e-06
0.000125296
-3.17129e-06
0.000988048
0.0594013
0.0310088
0.000819824
0.00021121
1.11436e-05
6.8486e-05
0.00176474
0.00861451
-0.0976727
-6.97815e-06
7.09359
-1.58909e-05
0.0167929
0.0280259
0.0581101
-3.18109e-05
0.0038007
0.00342265
-0.435022
-0.000258513
-1.26835e-05
0.00264511
-0.0158697
-0.000147928
0.0521852
2.68843e-05
1.15077e-06
9.4688e-05
-0.201213
-1.01778e-05
1.30468
0.000207004
-1.41798
-0.000819916
-7.16683e-07
0.00715331
0.000184523
8.92581e-06
-0.0912075
1.38039e-05
0.0171238
-0.152593
0.00217461
3.44135e-05
0.00577389
-8.56806e-06
0.00480616
0.000978052
0.663558
1.27611e-06
-1.60524e-05
0.000262655
0.000339717
0.00170952
-0.0731378
-0.370921
-0.000307412
-0.00147944
-1.24662e-05
-0.324761
1.72492
0.00690492
-8.89524e-06
2.64414e-05
-2.51311e-05
-0.0184044
-4.49104e-06
0.000363717
-0.00666175
0.00281362
-7.51453e-07
-0.0243249
0.00225354
-1.8951e-05
0.00018035
0.00483413
-0.00597337
0.00186156
0.000789184
-0.14325
0.0214771
0.0109222
0.000171456
-8.31573e-06
0.000143627
-1.61896e-05
0.00667062
0.00195152
0.000479217
0.00358704
-0.466911
-9.27278e-06
-1.08383e-07
0.20204
-0.181862
0.0630628
0.00895136
0.000185371
-6.51075e-06
7.33763e-05
-1.56735e-05
-1.6387e-05
0.00169262
-1.04537e-05
1.24088e-06
1.88581e-06
4.95354e-05
8.00408e-05
-1.2836e-05
0.000440846
0.00128773
1.43364e-05
-1.58371e-05
-1.67042e-05
3.19629e-06
-2.85123e-06
0.000125698
1.90349e-06
-2.45845e-06
0.00281813
-3.56821e-06
6.26262e-05
-5.90491e-06
0.000443198
0.250023
-1.33917
-0.00991708
-0.190822
0.0423951
-0.0283662
3.49567e-06
0.00172182
9.53582e-06
0.0106187
-2.57135e-07
0.000321487
-6.47755e-06
0.00192405
3.54223e-06
0.000793701
1.6068e-06
0.00511759
0.0108234
-6.73933e-07
-0.388497
-0.0008584
2.05281e-05
0.00346204
9.99435e-07
-3.93561e-06
0.136558
1.74043e-05
0.00228805
0.0190893
1.57802e-07
-2.57988e-06
0.00311579
-0.0438706
-9.76691e-06
9.50258e-05
0.0462313
-1.09257e-05
0.170735
0.00152654
5.37296
-9.03578e-06
-0.00684569
6.54845e-07
1.52704e-05
0.12846
0.00220878
-0.132873
-0.0280898
0.440404
0.000933261
0.0092015
0.0098221
-3.74432e-05
0.00581926
2.59551e-06
-1.42812e-05
-0.000337336
-6.2998e-06
-2.48809e-06
-9.53435e-06
-2.22058e-05
0.00259863
0.190085
0.00421983
0.00346501
-0.316106
0.000109375
0.000105773
1.91137e-05
2.93334e-05
0.00335666
2.12109e-06
-3.03193e-06
-2.72569e-06
0.000117526
-4.15476e-07
0.0185856
0.00386843
0.00126855
1.36792e-06
-9.60381e-05
-1.23e-05
-0.143863
0.190462
0.000194933
0.00137419
1.57717e-06
0.111252
0.118067
-1.27317e-05
-1.9658e-05
0.000157129
5.15683e-06
0.0169805
-0.0926773
0.197374
2.29508e-06
-0.490607
5.86926e-06
-0.00532883
0.00155383
-7.73555e-06
0.00032663
0.157022
3.55918e-05
0.000366918
0.000749966
0.00405717
-0.213508
-1.29269e-05
-2.08697e-05
0.000145446
0.00741345
-2.65439e-05
-0.0365087
-0.354908
-6.00538e-06
-3.19965e-05
0.151058
0.0030486
-1.00899e-05
1.44762
-0.258042
-0.00838998
-0.1972
0.000503955
0.0127199
9.61814e-07
0.336416
-0.0123295
0.250604
0.00304002
0.000115782
-0.0201125
0.000163482
-1.07377e-05
-1.72967e-05
0.0052582
5.62475e-06
1.40464
-1.89101e-06
1.47118e-05
5.87547e-05
-0.0231014
0.000126805
5.50903e-05
1.03127e-05
0.0676023
0.0472094
0.220029
-0.0443411
0.00186215
-8.7176e-06
-6.5142e-06
0.0152507
-0.00846922
-1.34702e-05
0.00222339
9.17633e-05
0.0105048
9.28933e-06
-0.0328988
0.18362
0.00147816
-1.09271e-05
0.000128172
-1.87579e-05
-3.19229e-06
-1.59694e-05
-2.16702e-05
-3.91908e-05
-0.000472856
-1.37322e-05
0.00591723
2.28139e-07
4.00083e-05
0.205336
0.00324945
-5.32979e-05
4.90432e-05
-0.0131638
-6.3778e-06
-1.51433e-05
0.000221937
-1.04052e-05
0.0736211
0.000879411
4.31868e-05
0.000106231
1.40731e-05
0.000436179
-4.15026e-05
0.0186867
-8.7374e-06
7.59589e-07
0.571535
1.30794e-05
0.0110385
0.000973563
7.68505e-06
0.00365079
-3.39293e-05
-1.89181e-05
3.70873e-05
0.081568
0.000119384
-8.59048e-06
0.00412852
-2.10265e-06
-1.00091e-06
-1.64e-05
-1.03315
8.34787e-05
0.00655729
8.32882e-05
7.83253e-05
-0.000105392
0.000124703
0.000214125
-6.75711e-05
-0.0276166
1.02032e-05
0.000299056
-5.05217e-06
-0.00718814
0.044175
-2.51898e-05
0.000441116
0.0214226
4.34577e-05
-7.2229e-06
-0.998704
0.000152537
-0.000986499
0.0147916
0.00058136
-1.11078e-05
0.000421026
-5.84698e-06
-2.93597e-07
-3.29313e-06
6.92861e-05
0.000177331
1.58162e-05
2.19299e-05
-6.96041e-05
4.84171e-06
0.00503399
4.77938e-06
8.13065e-06
-1.44777e-06
0.000499523
-0.00202863
9.47898e-06
1.41108e-05
-1.62834e-05
2.12464e-06
1.44287e-05
0.0253861
-0.308672
0.041102
4.67622e-07
0.000149414
0.00117908
-1.54197e-05
7.76973e-06
0.00108804
0.0256012
-1.79577e-05
0.00371294
1.50248e-06
-1.6841e-05
4.50437e-06
1.82885e-05
2.10144e-05
0.00110504
0.00108256
0.000403479
-0.0570472
0.000157442
0.000223931
-6.68959e-06
0.0633007
-0.00259827
-0.0158376
-2.43149e-06
0.00111419
0.000350677
1.52203e-05
4.15763e-07
0.000465386
-0.038446
-0.00603813
-1.52641e-05
0.000480988
-0.232611
1.38359e-06
0.0120586
1.27043
-0.0504543
0.000679718
3.68162e-07
0.000754983