/*--------------------------------*- C++ -*----------------------------------*\
| =========                 |                                                 |
| \\      /  F ield         | OpenFOAM: The Open Source CFD Toolbox           |
|  \\    /   O peration     | Version:  v2012                                 |
|   \\  /    A nd           | Website:  www.openfoam.com                      |
|    \\/     M anipulation  |                                                 |
\*---------------------------------------------------------------------------*/
FoamFile
{
    version     2.0;
    format      ascii;
    class       surfaceScalarField;
    location    "300";
    object      meshPhiCN_0;
}
// * * * * * * * * * * * * * * * * * * * * * * * * * * * * * * * * * * * * * //

dimensions      [0 3 -1 0 0 0 0];
oriented        oriented;


internalField   nonuniform List<scalar> 
14470
(
0.00212286
-0.000670623
-0.00145565
0.000298077
0.000196348
-0.0021164
0.00206195
6.39728e-06
0.000146134
0.000195137
-0.000341272
0.000319093
-0.000474545
2.16572e-05
0.000927948
-0.000930299
2.54545e-06
-0.000647515
0.00128021
-0.000633136
0.000129422
0.000351284
-0.000480694
0.0023847
-0.000402261
-0.00197934
-3.4482e-05
-0.000397408
0.000379104
-0.000390302
0.000309655
1.33529e-05
0.00156564
-0.00158718
-0.000948293
0.000435971
0.000512402
-0.00340207
0.00240876
0.000896881
0.00163825
-0.00202347
0.00035855
0.00138583
-0.00138586
-2.71738e-06
-0.00205273
0.000665247
0.0014352
0.000526916
-0.000443335
-8.35681e-05
-0.00108454
0.00214721
-0.00121592
-0.00139519
-0.00153049
0.00288167
-2.66937e-05
2.66937e-05
8.32718e-05
-0.000413078
0.000329804
0.000420651
-0.00029122
-0.00061215
-0.000335969
-0.000427529
0.00171347
-0.00128693
-0.000130486
4.341e-06
0.000101345
0.000346555
-0.000410938
9.08137e-05
0.00088078
-0.00209451
0.00110874
-0.00027709
-0.00083173
0.00026721
0.000110496
-0.000377706
-0.000901354
0.000813701
8.8112e-05
0.00166903
-0.00174611
-2.24588e-05
-0.000352973
-0.00151104
0.00181901
-0.00028472
-0.000292569
0.000290843
0.000837202
0.00065622
-0.00150114
-0.00150685
-0.00020464
0.00171296
-0.00021593
-0.0011724
0.001384
-0.000272311
-0.000355184
0.000627591
-0.0018447
0.00128923
0.000552342
1.10621e-05
0.00109797
0.000456617
0.000249629
-0.000706226
-0.000163275
0.000430205
-0.000266915
-1.11142e-05
0.000315916
0.000281091
0.0018258
-0.0021126
0.000277225
0.00159404
-0.00187508
-0.000235041
-0.000195112
0.000430155
-7.50311e-06
2.41558e-05
-5.39983e-05
-0.000575287
0.00216199
-0.00156727
-0.000113536
-0.00191058
-0.00108991
0.0019157
-0.000710715
0.000187297
0.0019034
-0.00132795
-0.000578909
-0.000153277
0.000107086
-0.0016104
0.00109792
0.000512168
0.000520329
-0.000374198
-0.00172869
-4.27096e-05
0.00177548
-9.22216e-05
-0.00109082
0.00118444
0.00139069
-0.00195167
2.41558e-05
0.00158646
-0.000293204
-0.00129614
-0.000447015
0.000860034
-0.000412897
0.00192584
-0.00197953
1.51387e-05
-0.00195897
0.000345898
0.00160699
-0.00011171
0.000713908
-0.000615866
6.8059e-05
0.0023206
0.000194966
0.00019773
-2.43868e-05
0.00166188
-0.00165044
-0.000134656
-0.00156695
0.00169978
-0.000688886
0.000206253
0.000482722
0.00262581
-0.00115899
-0.00147779
-8.47556e-05
-0.000567297
0.00065218
-0.000287853
0.000515791
-0.000227928
0.00166439
-0.00160872
-6.02367e-05
0.000554883
-0.000852082
0.00029754
8.99186e-05
-0.000148505
1.59691e-05
-0.000980632
0.0011889
-0.000208887
0.000773665
-0.000312177
-0.000461461
-0.00218285
0.000555544
0.00160169
9.68914e-06
-4.3789e-05
3.38208e-06
-6.54103e-05
-0.000915263
0.00040869
0.000118237
0.00122794
0.000156221
-0.00185029
0.000409216
0.00143453
-0.0016438
-0.000721748
-7.13704e-05
0.000793067
-0.000101003
1.63376e-05
-0.00161088
0.00133224
0.000268524
0.000341741
-0.000613948
0.000257716
-0.000704643
-0.00036123
-0.000115403
0.000476624
-2.88915e-05
0.00051546
-0.000486585
-0.000651217
0.000622303
0.000812827
-0.00137499
0.000560268
-0.000503201
0.000339943
-0.00222009
0.000418749
0.00179354
-0.000237251
0.000792376
-0.00122421
3.1537e-05
0.00119104
0.00181252
-0.000320222
-0.00150098
1.36349e-05
0.000219861
0.000335574
0.000308907
-0.000644447
0.0003902
0.00150707
0.00143557
-0.00161387
0.000174637
-0.00190124
0.00217269
0.00101282
-0.000786997
-0.000225756
0.000619398
-0.000292677
-0.000326709
0.00153781
0.00012139
0.00158464
-0.001533
-0.00013075
-0.00181569
-0.000391448
-8.61391e-05
-3.99282e-05
-1.39529e-05
1.94964e-08
0.000432941
-0.000349672
0.000128632
0.000337987
-0.000466618
0.000307147
8.09965e-05
-0.000388143
0.000652312
0.00196357
-0.00031139
0.000846488
-0.000671341
-0.000748658
0.00207742
-0.00134704
-0.00171092
3.27017e-05
0.00171842
-0.000139949
-0.00034437
0.000484322
-0.00157141
0.00186141
-0.00030055
0.000374385
0.00048295
-0.000857402
-0.00156941
-4.91235e-05
0.000834917
-0.000768778
-6.60964e-05
-0.00016344
-0.00125199
0.00141297
0.00179674
-0.00199961
-0.00180592
0.000230546
0.00139939
-0.000482582
-0.00091844
-0.000209056
0.000476266
-0.000961081
0.00136791
-0.000406896
-0.00148751
0.000525878
-0.00182925
-3.90186e-06
0.00184267
-0.00272661
0.000856907
0.0018111
0.000164284
0.00195719
-0.00174442
-0.000133181
0.00186294
-0.00192489
0.0016723
0.000246234
0.000395752
0.000408335
-0.000804325
2.14273e-05
-0.000799147
0.000778232
-0.00171648
0.000952187
7.91622e-05
-1.06377e-05
0.00131923
-0.000496105
-0.000823843
0.000617226
-0.000449573
-0.000167634
-0.00127638
-0.00277271
0.000861031
0.00194198
-0.000186543
-0.00129988
0.00147774
-0.000183385
-0.000262368
0.000445755
0.00023705
0.000369585
-0.000606702
0.00187574
-6.96362e-05
0.000198595
-0.000435727
-0.00139758
-0.00136388
7.10555e-05
-0.000158301
0.000455182
-0.000384417
-0.000459728
0.000602242
-0.000142518
-6.73352e-05
0.0018722
-0.000110794
-4.99098e-05
-0.00230935
0.00215045
0.000140575
-0.000503156
0.000726755
-0.000223626
-5.8935e-05
-0.00132858
0.00188257
4.2518e-05
-0.000188348
-0.000712601
-0.00164596
-0.000365704
0.00199632
0.00146303
-0.000139394
-0.00162561
-0.000205792
-0.00235633
0.000929006
-9.02854e-05
0.000453718
-0.000363437
0.000555879
-0.0024063
0.00185911
0.000336553
0.000437115
0.00155048
-0.00137795
-0.000179104
0.000240309
-0.00212719
0.00189891
-0.00145753
0.0016467
-0.000211595
-3.26092e-05
0.000437817
-0.000393655
-0.00148632
-0.0012795
-0.000325387
0.000506777
-0.000181389
0.000558924
-0.00034987
-0.000209048
0.000322636
-0.000909409
0.000586027
-0.00152082
0.00152675
0.000882919
4.49132e-05
-0.000915306
0.000403098
0.000512118
0.000647645
-0.000153206
-0.000494448
-0.00239883
0.0017803
0.000591341
-0.000420404
-0.00139614
0.0018057
0.000701745
0.000311112
-0.000418424
-0.000309102
-0.00126672
0.00169664
-0.00141751
-9.46646e-06
-0.0016919
0.00171261
7.46818e-05
0.000588457
0.000246591
0.000189212
-0.000477056
0.000283783
0.000275144
0.00151326
-8.16534e-05
-0.00236188
0.00050074
0.00186065
-8.92163e-05
0.000330512
-0.000241297
-0.000547164
9.11292e-05
0.000456053
0.00162942
-0.001584
-4.80187e-05
-0.00171218
-0.000292938
0.00199778
-0.000160778
0.00193277
-0.0017738
-0.000409798
-4.85541e-05
0.000458349
0.0027496
-0.00113397
-0.0016576
-0.000875759
0.00157391
-0.000153229
0.000177638
-1.65552e-05
-0.000873574
-0.00128461
0.00215485
-0.000758632
-0.00106077
0.0017922
0.0015586
-0.000337195
-0.00123277
0.0019523
-0.00151985
-0.000438371
0.000177244
-0.00053068
0.000353443
-0.00240596
0.000514074
0.00190076
-0.00146688
0.00162927
-0.000167103
0.00198428
-0.00173457
-0.000482834
-0.00162182
0.00209865
0.000733998
-0.000543254
-0.000190742
0.0012587
0.000466508
0.000150726
-0.00263703
0.00269698
-0.000142299
-0.000534384
-0.000154432
-0.000394279
-0.00146293
0.00169649
-0.0019383
0.000233366
-0.00176997
-0.00169025
-0.000535882
0.000931406
0.000607866
-0.00103236
0.00108189
-0.000212792
-0.000868559
-0.00017248
-0.00105375
0.00152135
-0.00231514
0.000415146
3.00615e-05
-0.000445189
-0.000465649
0.00113238
-0.000668677
-0.000468472
0.00128007
0.00235022
-0.000552949
-0.00179496
-0.000248798
0.00147996
-0.00123417
-0.00124884
-3.06069e-06
0.00125144
0.000909249
-0.000935324
2.67632e-05
8.29233e-06
0.000901201
0.000330669
0.000205693
-0.000536347
0.000853833
0.000430925
-0.00128463
-0.000157297
0.00184162
-0.000734624
-0.00123072
-0.000104441
-0.000442702
-0.000151947
-0.00217332
0.00232831
0.000295142
0.000485554
-0.000178407
0.000874972
0.00186782
0.000357786
-0.000409137
-9.50283e-06
-0.000387068
0.000843737
-0.00265067
0.00233078
0.000312994
-2.05299e-05
-5.14813e-05
-0.000227442
-0.000904973
0.00113258
-8.16739e-05
0.0011101
-0.00102849
-0.00229031
0.00102336
-0.00145273
-0.00154576
7.59159e-05
0.00128463
2.49994e-05
-0.00131196
-0.00172098
0.00148701
0.000229958
-0.00187034
-0.00142807
0.000819033
0.000608369
-0.00040474
-3.90053e-05
0.000443745
-0.000809305
0.0022966
0.000496854
0.000603619
-0.00110188
-4.14435e-05
-0.000150547
0.000420896
-3.44195e-05
-0.000274681
0.000225892
-0.000240892
-0.000220116
0.000380383
-0.00195497
3.72345e-05
0.00190957
0.000117973
-0.000621147
-0.000506946
0.000766574
-0.00025949
0.000462412
-0.000523392
-6.80768e-05
-0.000231105
0.000793155
-0.000747706
0.000323455
0.0004243
2.66348e-05
2.55266e-05
-5.20286e-05
-8.3619e-06
-3.85418e-07
-0.000219934
-0.000107739
0.000193238
-1.35538e-05
-0.000493277
0.000496725
-0.000587023
-0.00160715
-0.000110249
0.00172119
-0.000716163
0.000389731
0.000326492
-0.00100534
-0.000138796
0.0011452
-6.80072e-05
-0.000412872
0.000348271
6.4601e-05
-0.000514582
-0.00161008
0.000128688
-0.000340085
0.0002114
-3.65841e-05
1.04873e-05
0.000157172
-0.00131994
7.14179e-05
0.000121952
-0.000328307
0.000206354
-0.000388625
0.000862085
-0.000473191
-0.000412571
0.00129242
-0.000438429
0.00182558
-0.00181996
0.00130742
-8.14146e-05
0.000194396
0.00175396
-0.000180644
-0.00184117
0.00198718
0.00128991
-0.00200236
0.000718122
0.000382025
0.000352022
0.000832982
-0.00126112
-0.000669274
0.00041286
-1.13152e-05
9.19711e-05
-7.57802e-05
-0.000713854
-0.00195326
-9.369e-05
0.000486043
-0.000644917
-0.00238092
-0.00047293
0.000186886
0.000286043
-0.00203921
0.000561173
0.00146164
0.00015822
0.00235743
-0.00260804
0.000558377
0.00011451
-0.000899583
-0.00179995
4.89644e-05
0.000415403
-0.000432783
1.73804e-05
0.000595252
-0.000358256
-0.000942676
0.000533097
0.000409851
0.000274199
0.00132928
-0.00161152
-0.00137649
0.00118184
0.000545004
-0.00154725
0.00137533
0.000168189
-0.000510692
5.09617e-05
-0.00191945
8.72895e-06
0.000403918
0.000362897
-0.00178469
0.00011912
0.00166056
0.00241063
-0.000607809
-9.46193e-05
-1.38082e-05
0.00148216
8.45869e-05
-0.000580764
-0.000848529
0.000196346
0.000332166
-0.0019551
0.0022204
-0.000275831
-0.00094994
-0.000165169
0.00111666
0.00247092
8.46209e-05
0.00177344
-0.00186569
0.000131927
0.00102437
-0.00115535
-9.95427e-05
0.00110984
-0.00101024
0.0015171
-0.00191527
-0.00172288
-1.32532e-05
0.00173112
-0.00148456
0.00174934
-0.000468838
-0.000370866
0.000839704
-0.000354421
6.14278e-06
0.000348279
-0.00162591
-0.000525486
0.000101996
-0.00174112
0.000301229
0.00158138
-0.00187158
-0.000398893
7.35073e-05
-0.000295132
0.000423824
-0.00046386
0.000578956
-0.000115097
-0.00208811
-8.70425e-05
0.00217456
0.000894902
-0.000994413
-0.00114934
0.0002013
0.000631511
-0.000361898
-0.000269621
0.00139343
-0.000586291
-0.000806553
-0.000176969
-0.00198431
0.0021856
9.48488e-05
0.00207881
-0.00214375
-0.00184366
0.00215742
0.00122704
7.96522e-05
-0.000345896
0.00233978
-0.00198585
0.000424809
-5.6279e-05
-0.000368536
0.00101134
-0.00148195
0.000392456
0.00182069
-0.00222518
0.000378016
0.00118739
-0.000319481
-0.000869464
-0.000225634
-0.000247296
-0.000254072
-0.000280245
0.000652184
-0.00104211
0.000639949
-0.000304359
-0.00136065
-0.000429035
0.00179042
0.000406537
-0.000138146
-0.000268392
-0.000567019
0.000331625
0.000235397
-0.000193947
0.000524626
0.000102215
0.00160452
-0.00171991
-0.000926164
-0.000919979
0.000766167
-0.000744246
0.000143522
-0.000504769
0.000317531
0.00023219
0.000841632
-0.00107417
8.52289e-05
-8.06369e-05
7.41462e-05
-0.000117857
-0.00148727
-0.000386602
-0.00174822
0.00215754
-0.00212955
0.00176931
0.000210937
-0.00231055
0.00197097
-1.05312e-05
5.04316e-05
5.77199e-06
-6.4725e-05
6.4725e-05
-0.000130003
0.000554802
-0.000422603
-1.7784e-05
0.00108581
-0.00106895
-0.00171389
0.00153345
0.000176931
0.000270023
0.000740034
-0.00100996
0.0016366
-0.00179316
-0.00125704
0.0016603
0.000414909
1.27611e-05
-0.00042767
-0.000627125
0.000231364
0.000395764
-0.00073608
-0.000114362
0.000851121
0.000168773
0.00122489
0.00198196
-0.000147243
0.00157344
-0.00148324
0.000236121
0.00178867
0.000477709
0.000285853
-0.000763543
0.000507318
-0.000779808
0.000165582
0.000333761
-0.000587743
-0.000626178
0.000959475
-0.000333214
-0.000871482
0.000223689
-7.70408e-05
-0.000386819
-0.00108531
0.0012183
-0.000266956
2.28072e-05
2.04728e-05
0.00227141
-0.00214431
-0.000148877
-0.000845131
4.64903e-05
0.000804579
-0.000326881
-0.00199589
-0.000386117
-0.000325893
-0.000241123
-3.18084e-05
-0.000502491
-0.000397631
0.000386416
0.000125961
0.000428826
-0.000306876
0.000698718
0.00196449
-0.00109634
-0.00223752
-0.00134759
-3.49302e-05
0.00133929
-0.000365853
0.00200865
-0.00144441
0.000639417
-0.00101266
0.000372406
-0.000634311
0.000549669
0.000360156
-0.00152833
0.00116608
0.00131508
0.000311289
0.000250341
-0.000128369
-0.00013565
0.00213985
-5.60244e-05
-0.00207151
-0.000312245
-0.000456394
0.00121243
-0.0011825
0.00263717
-0.00262056
4.78309e-06
-0.000378625
0.000284093
1.93983e-06
-0.000860206
-0.000751064
0.00102301
1.6576e-05
-0.00103841
-0.00134805
0.00170609
0.000123261
-0.000385627
-0.000138404
4.08144e-06
-0.00202623
0.000463149
0.000390948
-0.000704007
0.000313067
0.000109604
0.000119212
4.83117e-05
-0.000453051
0.000250314
0.000397319
0.00160456
-0.00160323
-0.00143054
6.2242e-05
0.00126875
-0.000606683
0.00190145
0.000134567
-0.000864913
0.00247045
0.000753844
-0.000444922
0.000146955
-0.000167872
-0.000579795
0.00148069
0.00204546
-0.00209077
2.77238e-05
0.00114884
-0.00131448
0.00114096
-0.0013608
0.00017337
-0.000517739
0.000184393
0.00139824
-0.000455579
-0.000135423
-0.00143158
-1.80203e-05
0.000613278
0.000256193
0.0017842
-0.00204027
-0.00218621
0.000530806
-0.00203562
0.000676685
-0.000262216
0.00175972
-0.00043335
-0.00132655
-0.00245314
-0.000117242
0.00254316
-0.00168897
-5.36769e-07
-0.000122229
-2.21571e-05
-9.42719e-07
-0.000239561
-0.00173644
0.00197523
0.0017413
-0.00154993
0.000758269
-0.000985491
-0.000201436
0.000309165
-0.000134906
-0.000527838
0.000118039
7.29488e-05
0.00140026
-0.00147308
-0.000726905
0.000100718
-0.000445531
3.26595e-05
-0.00192508
0.00011777
0.00106611
0.00038455
0.000894917
-0.0019629
0.00166564
0.0008007
-0.00114807
0.000163457
-0.00241995
0.00186664
0.000590124
0.000407154
-0.00105305
0.000645641
0.000878471
-0.00101648
-0.000168445
0.000737165
-6.02534e-05
-0.000794458
2.36735e-05
0.000255408
-0.000606245
0.000884829
-0.000278447
-0.000466362
-0.000448936
0.000307229
0.000394886
-0.000513558
-0.00104372
-0.00127067
0.000193229
-0.00126041
0.00106659
-0.000398955
0.000203845
-0.000711521
0.000323047
0.000397945
0.000828985
-0.0012268
6.69711e-05
0.0016897
-0.00177647
-0.000574436
0.00107022
0.00075713
-0.000420576
0.000460075
0.000565922
-0.00102648
0.00167404
-0.00230114
0.00063439
-0.00241316
0.000782296
0.0015739
-0.000352942
0.000530198
0.00211737
-0.0019721
-0.000108268
-0.000507582
0.000910631
0.000907642
-0.00027547
-0.000632106
0.00225642
0.000364189
-0.000254868
0.000751561
-0.00147237
0.00162031
-0.000154501
-0.000340332
-0.000175566
0.000515889
0.00219647
-3.93786e-05
0.000251527
0.000245391
-0.000496906
0.000401262
-0.000767229
0.000366135
0.00176231
-0.000149066
-0.000421215
0.000744724
-0.00194919
-0.000254226
0.000295513
0.00033599
0.000223929
-0.00151022
0.00125802
-0.00200025
0.00187634
0.000116654
-2.15661e-06
0.00034451
-0.00181146
0.00172625
-0.000447964
-0.00152424
0.0019436
0.000848767
-0.00230516
0.00146879
-0.000282596
-0.0014649
0.00174147
-0.0022561
0.00216819
-0.00162779
0.00136289
-0.00083028
-0.000534139
0.00269094
-0.00107618
-0.00162721
-0.00144332
6.67182e-05
8.11478e-05
-0.000251886
-0.000182157
0.000153399
8.61709e-05
0.000328739
-0.00062464
0.000821353
-0.000196526
-0.00124096
0.00163873
0.000925449
-2.9649e-05
0.00176953
-7.14476e-05
0.0021364
-0.00206638
-0.000134767
0.0012161
-0.00206577
0.000225299
0.00035365
0.00225521
-6.40576e-05
-1.09774e-05
9.81322e-05
0.000237897
0.0001548
-0.000392696
-0.000354295
0.000603937
0.00131443
-3.02296e-05
-0.00016674
-5.46484e-08
-2.61482e-05
-0.000682054
0.0024396
-0.00175524
0.00021566
-0.000203272
1.57996e-06
-0.000530622
-0.00057246
-0.00196025
3.45248e-06
-0.00128971
0.00164433
-0.000359014
-7.31697e-05
-0.00155668
0.00163758
-3.2975e-06
0.000418452
-3.48284e-07
-8.5407e-05
0.000393086
-0.000198119
0.000136354
-0.000320107
2.9665e-05
-0.00080505
0.000336245
0.000403078
0.00123157
-0.00161074
-0.000589457
-0.00100327
0.00158635
-0.000399839
0.000360834
-0.000992912
0.00117056
-0.000353489
0.000758654
-0.0004051
-0.00224162
0.00214595
3.8147e-05
7.17718e-06
-2.97579e-05
-7.86979e-07
0.0023963
0.000445865
0.000622092
-0.000983908
0.000362452
-2.31714e-05
-0.000507506
-0.00153927
0.000151018
0.00179476
-0.00104168
3.52772e-05
-0.000214843
-0.000240877
0.00105998
-0.000318379
0.000569928
0.000264396
-0.0014397
-0.00010994
0.000274465
-7.06426e-05
0.000952059
0.000236378
-0.000129912
-2.74916e-05
0.000151298
0.00112758
-0.00180501
2.06806e-05
0.00215031
-0.00216344
-0.000492248
0.0012501
-0.000319883
-8.05693e-06
0.000388564
0.000768341
0.00036258
-0.000397734
0.000189398
-0.000315157
-0.00191736
0.00223013
0.000404196
0.00095857
-0.00137198
0.000845736
-0.00081854
-2.74885e-05
-0.000362487
-0.000631594
0.000994369
0.0024454
-0.000185379
-0.000201225
0.000253153
-0.000898682
0.000432273
-0.00013448
0.00213822
-0.00203312
0.00208594
-8.68822e-05
0.000178087
-0.000171982
-0.00021507
-0.000146245
-0.000568313
-0.000330428
0.00171089
-0.00188035
0.000381448
-0.00073493
0.000965045
-7.7873e-05
-0.000887148
0.00106275
0.000267868
-0.00133137
-0.00151124
0.00132407
0.000185835
0.000149338
0.000279486
-0.0017869
3.01538e-05
0.000332729
-0.000864297
-0.000462146
0.000286646
0.000175507
-0.000502123
-0.000302961
-0.000447229
-4.23133e-06
0.000451448
0.000291589
0.000616187
-0.000878492
0.00216662
-0.00103923
-0.000417508
6.30873e-05
0.00159332
-0.00120119
-0.000299001
0.000130442
-0.000632579
-0.000198005
4.10227e-05
-0.000334118
0.00122153
9.19589e-05
0.000921514
-0.000860356
-6.15435e-05
-0.000698571
-0.000452844
0.00115215
0.000165378
-0.000391015
-0.000325026
0.000566076
-0.000241039
-0.000690768
0.00164085
0.000950577
-3.00645e-05
1.95372e-05
0.000297108
0.000756865
-0.000218672
-0.000538178
0.00153293
0.00157735
-0.00114554
-0.000359395
-0.00193405
-0.002005
0.000255744
0.0017287
-4.62845e-05
0.00125777
-0.000355239
0.000560952
0.000741456
-0.000351649
0.000462442
-0.00015852
-0.000303915
-0.00179441
0.0016471
0.00123615
-0.00139828
0.000187791
-0.000528141
0.000398978
-0.000705283
0.000306353
0.00180887
-0.00184949
4.66375e-06
-0.00117611
8.15523e-06
0.00116769
0.00106654
-0.0015553
0.000409832
-3.29411e-06
-0.000751655
0.00138867
0.00167553
-0.000677884
-0.000264617
-0.00035131
0.000742258
0.000117129
-0.000442145
0.000607156
5.2613e-05
0.001598
0.000696442
-0.000346976
-0.000349392
0.000257986
0.00128957
0.000817993
-0.00022947
-0.00141021
0.000813927
0.00100162
-0.00073147
-0.000420112
-0.00124349
0.00166332
-0.000136257
-0.00275184
0.00199481
0.000751746
-6.01364e-05
0.0021773
-0.00145335
0.000310543
0.00114212
4.11911e-06
2.73071e-05
-0.000814892
-0.000639875
0.00106068
-0.000699093
-0.000361331
0.000192994
-0.000843212
0.000650141
-0.000181616
-3.60453e-05
0.000206644
-1.89123e-06
3.19836e-05
2.83514e-05
-0.00221756
0.000376382
0.00182781
0.00184197
-9.41989e-05
-0.00176623
-0.000787775
-0.000182271
-0.0016947
-0.000948243
0.00106348
-9.87933e-05
0.00105018
-0.000643042
-5.06479e-05
0.000156398
-3.76167e-05
0.000939622
-0.000653744
-1.30365e-05
-0.0013489
0.00144874
-0.000308337
-0.000153802
3.98615e-05
-0.00135078
0.00129984
0.00102976
-0.00104369
1.40388e-05
-0.000124826
0.000864864
-0.000463346
0.000617759
-0.000235513
-0.000480153
-0.000642356
0.000415053
-0.000181173
0.00113228
-0.000723195
0.00234598
0.000104512
-0.00141722
0.00123321
0.000182896
0.000138658
0.000475176
-0.000613793
0.000838447
-0.00192491
-0.00117724
0.000803667
-0.000556058
-0.000247383
-0.0013489
-0.000378755
-0.000294735
0.000283513
0.00052043
8.32622e-05
-0.00254592
0.00122446
-0.000777745
-0.00126696
0.00181954
-0.00131965
0.00254202
-0.000183239
0.000712539
8.94959e-06
-0.000721323
0.000306174
-0.000306959
0.000525198
-0.000218228
-0.00171023
0.00196455
4.60997e-05
-0.00177136
0.00233893
-0.000205115
-0.00222891
0.00187935
-0.000363534
-0.00153343
0.00193511
0.000742378
-0.00187581
0.00147496
0.000296191
0.000239474
-0.000535642
-0.0013992
0.00142728
-0.00032675
0.000318798
0.000438266
-0.00143732
0.00123178
-0.00017031
0.00218096
0.000161829
0.000459586
-0.000200843
-0.000258743
0.000116402
0.00171896
2.72076e-05
0.000696533
-0.000661093
-0.000518908
0.000711828
-0.000375876
0.000327321
-0.00065704
-0.00195708
-6.82384e-05
-0.00177733
0.000187029
0.000150499
0.000354566
-0.00143343
0.000796174
3.16767e-05
-0.000827639
3.67573e-05
0.00200341
-0.00205248
0.000566043
-0.0010586
-7.99404e-05
0.00184908
0.00230722
-0.000119791
-0.000943689
0.000581545
-0.000436653
-0.000115493
0.000552158
-0.0011439
0.00101515
0.000129259
3.12556e-05
0.000335708
-0.00161522
0.00198024
-0.000379534
0.000721947
-0.00111191
0.00038913
-0.00140338
0.000861606
0.000220843
-0.00108332
0.000488864
-0.00268061
0.00215009
-9.0285e-05
-0.00217144
-0.000373925
0.000454921
0.000219326
-0.000259044
-0.00112565
3.63029e-05
-0.000145153
0.000969339
-0.000824097
0.000191746
-0.000185943
0.000494029
0.00130068
-0.00179465
0.000341457
9.94049e-05
-0.000440849
0.000117461
-0.000148103
9.19711e-05
-0.000369359
0.000512861
0.000595343
-0.00129345
-0.000825648
0.00010402
0.00100533
-0.00116881
-0.00153141
0.00149301
4.08743e-05
-0.000477519
8.80345e-05
2.71209e-05
-0.00212806
9.61871e-05
0.00202181
-0.00186407
0.00235863
-0.0012899
0.00145693
-0.000169788
-0.000403074
0.000373635
2.94389e-05
-1.52115e-05
0.000529526
0.00193894
-0.00190877
0.00101626
-0.00172987
-0.00207607
-0.00145932
-0.00138202
-0.0013822
7.28312e-05
-0.000520075
-0.00143794
0.000145111
-0.00195339
0.00171456
-0.000192498
0.000231737
4.62784e-06
-0.000341219
0.00049613
-0.0009799
0.00180029
-0.00146371
0.00102852
-3.09549e-06
0.00214331
0.000118496
0.000740215
-0.002261
0.00150106
-0.000408399
0.000456711
-0.000641977
-0.000373389
0.00101577
0.00176001
0.000272144
0.000155493
-1.84324e-05
-0.000455137
0.00124324
-0.00166303
0.0007038
-0.000352321
-0.000351535
-0.000475045
0.000118373
0.000356675
-0.00278228
0.000375198
0.0023734
-0.000332957
-0.000316644
0.000478084
-0.000161405
0.000851194
-0.0011022
-0.000623506
0.00071326
-9.37415e-05
0.00120669
-0.000439336
0.00011731
-1.46075e-06
-0.000137606
0.00104072
-0.00102938
-3.37336e-05
-9.96028e-05
-0.000527522
-9.33433e-06
-2.35031e-05
2.78021e-06
-3.18052e-06
-2.07359e-05
1.50716e-05
0.00065594
-0.00161321
0.00140207
0.000211924
6.9239e-05
0.00176798
0.00154963
-0.00165608
-0.000869893
0.00110159
-0.00035461
-0.000320532
0.000675207
-0.000953768
-0.00106408
0.00018877
0.00159556
0.000183658
-0.00022578
0.00211498
-0.000234923
0.00128182
0.000188083
-0.00146874
-0.00176527
0.00176792
-9.83676e-07
-0.00116303
-0.00116348
-0.00072419
0.00136112
-0.000642398
-0.000996081
0.000260667
-8.94074e-05
0.00131658
-0.000956964
-0.000461169
-0.000157768
-0.00181655
0.000417086
-0.000248967
-0.000168119
0.000432017
0.000716369
-0.00115108
0.00234001
0.000203205
0.00141353
-0.000620027
-0.00079266
0.000196822
-0.000405878
0.000350126
-0.00198625
2.47762e-05
0.000108656
0.00185942
-0.00201832
0.000720506
-0.000970328
0.00024926
-0.00115312
0.000421602
-0.000346413
-0.00157118
-0.00145426
-0.00036816
0.00180231
-0.00167978
0.00132559
0.000330636
-0.00154348
-3.14601e-05
1.13606e-05
0.000390165
0.000504077
-0.000894038
0.00207252
-0.000785227
0.000633652
-0.000705074
-0.00013276
0.00011742
3.87574e-06
-5.48501e-05
0.000953875
-0.000898976
-0.00169483
-0.00011916
0.00179427
0.00217181
-0.000240631
0.000113078
0.00183861
-0.00197018
6.66159e-05
0.00163196
-3.1636e-05
-0.000574483
0.000462949
-0.000225052
-0.00157466
0.00150985
0.000862995
0.000550013
0.00158367
-0.00010635
0.00221921
0.000468295
-0.000318961
-7.95205e-05
0.000159412
0.00117884
-0.00134598
-0.00180066
-0.000411866
0.00220979
1.93534e-06
-0.000311716
0.000462748
-0.000151032
-0.0018179
0.0018783
-0.000207938
-0.00225131
8.74354e-05
-0.0016299
0.000166376
0.0014589
-0.000870567
-0.00122629
0.00210679
0.000333523
0.000237731
-0.00051496
-0.00194981
0.000342116
0.000416535
0.000551626
-0.000210148
-0.000456089
0.000114817
8.64254e-05
-0.000710863
0.000197988
0.000219097
5.413e-05
0.000707549
-0.00103355
0.000325528
-0.000564546
0.000271885
-7.80893e-05
6.25209e-05
-5.05327e-06
0.00202035
-0.00033243
0.00139781
-0.00121574
0.00038479
0.00061711
-0.000184102
0.00242342
0.00022678
0.000298423
-0.00105273
0.00124523
-0.0010076
0.000129422
0.00087771
-0.00254529
0.00217018
0.000373317
0.000342157
-0.000706437
0.000364246
0.000307563
-0.000381692
7.41312e-05
-0.00014473
0.000489597
-0.00034487
-0.00127134
0.00150117
-0.000234201
0.0015905
-0.00148448
-0.000109954
4.39799e-05
-7.43301e-05
0.00024963
0.000352608
-0.00239466
0.000311084
0.0020098
0.000117873
-0.000474924
0.00035708
-0.000380849
-0.000549118
-0.000771143
-7.06281e-05
0.000841403
3.28166e-05
0.000494973
-0.000527789
-0.000493252
0.000699624
0.00187271
-0.000390459
-0.00220347
0.00175509
0.000434354
2.70794e-05
-0.00027679
-0.000394948
0.00161795
-0.00122915
0.00024741
0.000268392
0.000289454
0.000217323
-0.000301606
-0.000811356
0.000979583
0.000384191
-1.15285e-05
-0.000372658
0.000219073
0.00156782
-0.000986752
0.000326745
-0.000681254
-0.000564113
0.000702832
0.000251049
-0.000815281
0.00200404
-0.00188203
-0.00121391
-0.00134388
-0.00018839
0.00152241
0.00173237
-0.00171301
-0.000523813
0.000236635
2.73515e-05
-0.000299325
0.000369724
-0.000384449
-0.000198511
0.000582989
-7.88217e-05
3.12722e-05
0.000116821
-4.63663e-05
0.00207985
-0.00110441
0.000803891
0.000300159
-1.51415e-05
-0.000660375
0.00104554
1.72844e-06
-0.00147507
0.00146428
0.000554986
-0.000271202
-0.000430572
0.000645492
-0.000214958
-0.000344151
0.000808032
-0.000463949
0.00143693
0.000147864
1.89325e-05
-0.00015048
0.00158984
-0.00159789
0.00015423
-3.74717e-06
-0.00224729
0.00186122
0.00035959
0.000987847
-0.000127426
0.00111458
-0.00151324
0.00194231
-0.0021035
-9.33683e-05
-0.00142479
0.00151165
-0.000336709
0.000455083
0.00180932
-0.00160909
-0.000216176
-0.000192933
0.00198511
-0.00178513
-0.000200175
0.000599172
0.0019583
-0.00191663
0.000444864
-0.000106826
-0.00194619
0.000154497
0.00167824
0.000548849
0.00113643
-0.00169094
0.000349232
-0.000350403
1.17105e-06
-0.000937024
-0.000114573
0.000390746
-6.55346e-06
-0.000770018
0.000202844
6.24455e-05
0.0019018
-0.00015939
-0.0016668
0.000229282
0.00143298
1.30168e-05
8.02849e-05
-0.00117078
0.0011702
-0.00228273
-0.000227115
0.00245319
-0.000313069
-0.000269905
0.000582977
0.00153233
-0.000159635
0.00175476
-0.00172859
-0.00128134
0.00107333
-0.000870236
0.000281437
0.000475384
0.0024067
-0.00176556
-0.00053585
0.00101889
0.00176083
-0.00109287
0.00064459
-0.000521607
0.000584756
-6.31459e-05
0.000990829
-2.68002e-05
-0.000963843
-0.00100712
0.00192495
-0.00226863
-0.00197843
0.00192118
1.91453e-05
-0.000335807
0.00045907
-0.000232033
-0.000464004
0.000696062
0.000549121
0.000390548
0.000224775
-0.000362922
-0.000129216
-9.43773e-07
-0.000370619
-0.00166495
-0.000386893
-0.00144117
-2.53683e-05
-0.000348557
-0.000157661
0.00170925
0.000736245
0.000345508
-0.00108047
0.000120528
-0.00161198
-0.000521401
0.00246244
-0.00193581
-0.00172679
0.000415525
-0.000503745
-1.43097e-05
0.000446279
0.00122799
0.000864388
-0.000919178
0.000283633
0.00168258
-0.000345458
0.000228214
-0.000548135
-0.000197519
-0.00132537
-0.00135785
-0.00145932
-0.000640945
0.000527039
-0.000237104
-0.000218988
0.000199529
0.0012699
0.000456757
-0.000200343
-0.000256415
0.000964892
9.24951e-05
-0.0010398
0.00144367
-0.000221546
-0.00152148
0.00157083
0.00053046
0.000287563
0.000249548
-0.00212817
-0.000173081
-0.00139875
-0.000114534
0.00150869
-0.000999804
-0.000191531
-0.00105026
0.00123977
-3.76861e-05
0.00114145
-0.00068162
0.000357501
-0.000744573
-0.000684753
0.000589524
9.5417e-05
-0.000467316
0.00214577
-5.23456e-05
0.000671114
-0.000618612
-0.000409055
0.000439136
-0.00172293
0.00154965
0.000171624
0.000207349
0.000519381
0.00089511
0.000165521
0.00215202
-0.00249248
0.000345159
0.00163993
-0.00152704
-0.00122505
7.44735e-05
-0.000119215
0.00115205
-0.00140414
-0.0013046
-0.000259574
-0.00190311
0.00183021
0.000219976
0.00230443
-0.00259485
0.0022453
-0.00174195
-0.000497645
0.00188913
0.00053779
-0.000241567
0.000300146
-0.00176817
0.00169823
2.90084e-05
-0.001745
0.000780159
0.00176535
-0.000330479
-0.00150712
0.00208559
-0.00207035
-4.9876e-05
-0.001286
-0.000107145
0.00139208
-0.00046153
0.00079189
-0.000330168
-9.92051e-05
0.000811911
0.00107162
-3.03751e-05
0.000959103
8.58328e-07
4.95245e-05
-0.000345486
0.000529627
-0.000184152
-0.00103691
-0.000580267
0.00161918
0.000275508
0.000194685
-0.000470192
-0.00123842
0.000604376
0.000633822
-4.23563e-05
-0.00039126
0.000290946
-0.00165425
0.00183933
-0.000192669
-0.000261077
-0.000274682
0.000535751
-0.000433478
0.000121766
-0.0011864
0.000354525
0.000510537
0.00225457
-0.000175246
-0.00233084
0.00241183
-0.000101537
0.000147918
0.000204299
0.00025839
-0.000392696
0.000134306
-0.000241624
-0.00140654
0.00164129
0.00216009
0.000133673
-0.00012504
-0.000606598
0.000289978
-0.000909658
0.000560618
0.000349724
0.00174406
-6.33222e-05
-0.00148441
0.000736029
-0.000881179
0.000312889
-0.00130041
0.000986
-0.00149367
-0.000229811
-0.000376112
0.000494014
-0.00029269
0.00084187
0.000827217