/*--------------------------------*- C++ -*----------------------------------*\
| =========                 |                                                 |
| \\      /  F ield         | OpenFOAM: The Open Source CFD Toolbox           |
|  \\    /   O peration     | Version:  v2012                                 |
|   \\  /    A nd           | Website:  www.openfoam.com                      |
|    \\/     M anipulation  |                                                 |
\*---------------------------------------------------------------------------*/
FoamFile
{
    version     2.0;
    format      ascii;
    class       volVectorField;
    location    "300";
    object      U;
}
// * * * * * * * * * * * * * * * * * * * * * * * * * * * * * * * * * * * * * //

dimensions      [0 1 -1 0 0 0 0];


internalField   nonuniform List<vector> 
9793
(
(0.961436 -0.0211492 -1.4095e-20)
(-0.131885 -0.0121797 9.92806e-20)
(0.992496 -0.00810385 2.16523e-20)
(-0.039584 -0.101832 -4.11405e-20)
(0.999947 -0.00082511 0)
(1.27912 -0.0191383 -1.39102e-19)
(1.14394 -0.253475 5.75689e-20)
(-0.178501 0.0209339 0)
(1.0264 -0.0399264 1.74871e-21)
(-0.0844415 -0.00789813 9.20786e-20)
(1.00012 -0.00269516 -8.80183e-22)
(1.00012 -0.00296018 -7.17068e-21)
(1.00327 -0.00977268 -9.06502e-21)
(-0.167077 -0.0713278 0)
(1.02283 -0.02345 0)
(1.06361 0.0168073 -6.73176e-21)
(1.16959 -0.0671603 3.55111e-20)
(0.995111 -0.0102927 0)
(-0.0613261 -0.210386 7.01016e-20)
(1.01896 -0.00514514 0)
(1.02479 -0.0095121 0)
(0.999992 -0.000182538 0)
(-0.0456068 -0.0467324 -5.42922e-20)
(-0.161304 0.0142916 -1.12294e-19)
(-0.159641 -0.0677011 0)
(0.922368 -0.0690945 -4.72693e-20)
(1.00036 -0.00537994 8.17377e-21)
(1.00003 -0.00060796 7.94696e-21)
(1.01882 -0.00544518 0)
(1.1971 -0.151971 -4.03919e-20)
(-0.384105 -0.0179264 0)
(1.32539 -0.0405896 0)
(0.996709 -0.00600803 -8.21035e-21)
(0.998107 -0.0104567 3.59297e-21)
(1.00621 -0.000555965 3.57454e-21)
(1.09583 -0.0206694 6.09159e-20)
(1.06019 0.00615399 -5.88505e-21)
(0.911197 -0.00665859 -4.97074e-20)
(-0.087858 -0.135587 6.13632e-20)
(1.09702 -0.0727503 -3.20769e-20)
(1.1854 -0.148616 6.03275e-20)
(1.16029 0.0554 7.15876e-20)
(-0.198374 -0.0326902 8.42536e-20)
(1.00002 -0.000431042 -1.01111e-20)
(0.991815 -0.00195249 -3.14808e-21)
(0.996449 -0.00263897 -7.8605e-21)
(-0.363454 0.0356258 -1.31067e-19)
(1.00002 -0.000392172 0)
(1.03209 -0.00624021 9.12572e-21)
(0.994799 -0.00982998 1.10859e-21)
(1.0951 -0.0169366 -4.81206e-20)
(1.00658 -0.000680412 -2.86227e-21)
(1.128 -0.0386506 -2.30517e-20)
(1.00001 -0.000815886 -7.52658e-21)
(0.906967 -0.13479 4.56571e-20)
(-0.0473177 -0.104412 -2.61802e-20)
(1.00355 -0.00887712 -2.85244e-21)
(1.19529 0.0401321 0)
(1.03209 -0.00690593 0)
(1.00001 -0.000213289 0)
(0.897483 -0.0276755 0)
(0.841575 -0.357645 0)
(0.99429 -0.00810113 0)
(1.10319 0.0222539 -1.52696e-20)
(1.00362 -0.00141508 1.47131e-21)
(1.02531 -0.0383018 0)
(-0.279015 0.00568331 0)
(1.06368 -0.0439588 1.10157e-20)
(1.05983 0.0102084 1.16734e-20)
(0.0710049 -0.0894909 8.04883e-20)
(0.978379 -0.0131712 0)
(0.579131 0.00372382 -7.46617e-20)
(-0.24981 0.0409385 -1.56982e-21)
(1.15113 0.298459 6.9757e-21)
(0.275366 -0.0398228 -5.73897e-20)
(0.999985 -0.000960192 1.70773e-21)
(0.802224 -0.15195 9.62525e-20)
(0.906406 0.00979038 2.14228e-19)
(0.994766 -0.00555613 0)
(0.999981 -0.000712676 1.78901e-20)
(0.786254 -0.154801 -9.88963e-20)
(-0.0607214 -0.200317 6.1606e-20)
(1.16345 -0.060539 -4.02486e-20)
(0.986232 -0.0781962 -1.92223e-20)
(1.06145 0.00863554 0)
(1.30342 -0.174743 1.844e-19)
(0.99997 -0.000906949 -1.78524e-20)
(1.14645 0.0716032 0)
(-0.0922348 -0.132036 -6.14676e-20)
(0.826322 -0.33832 0)
(-0.0641058 -0.0676554 -3.77622e-22)
(1.41555 -0.217604 3.72094e-19)
(1.40884 -0.231919 -1.57703e-19)
(1.11172 -0.128712 3.67467e-22)
(-0.179397 -0.0554775 0)
(0.997055 -0.0134684 -4.10272e-21)
(0.332089 -0.0254094 0)
(1.15943 -0.0916297 0)
(1.05307 -0.0687431 9.80551e-21)
(0.999965 -0.000667907 0)
(-0.131967 -0.0990197 2.88161e-20)
(1.12299 -0.0396003 6.59522e-20)
(0.267774 0.212852 -1.56821e-20)
(0.992404 -0.00206518 -8.53741e-21)
(0.221114 -0.046246 0)
(0.577584 0.0245275 1.41065e-19)
(1.1324 0.288821 -1.0297e-20)
(1.00569 -0.00728462 -1.96878e-21)
(0.994714 -0.00519244 0)
(0.999983 -0.000328995 0)
(1.00013 -0.0012736 0)
(-0.0542754 -0.051303 0)
(0.0916267 -0.142662 6.80373e-20)
(-0.336894 -0.021888 2.88906e-19)
(0.979406 -0.0137213 0)
(0.999273 -0.00476001 -5.63598e-21)
(1.04633 0.0131603 1.47681e-20)
(0.996888 -0.00354627 0)
(-0.0589513 -0.116515 -1.05749e-19)
(0.995776 -0.00200105 2.78909e-21)
(0.144674 -0.0595374 -1.10871e-20)
(1.15531 0.0727795 -6.86409e-20)
(0.582721 0.0165553 1.77019e-20)
(1.14003 -0.0113434 9.91053e-20)
(1.06179 0.0041436 -3.5911e-20)
(0.995971 -0.00189394 -4.88813e-21)
(1.18008 -0.0835973 0)
(-0.36229 -0.0196692 1.2934e-19)
(1.18687 0.13907 -1.46176e-19)
(1.18415 0.145986 1.96639e-19)
(1.06364 -0.014829 -1.00889e-22)
(1.00852 -0.0152697 0)
(0.963391 -0.022078 0)
(1.05667 -0.0392941 0)
(1.09004 -0.0244251 -6.47948e-20)
(1.22757 -0.259609 -6.52303e-20)
(1.28569 0.0371373 0)
(1.04803 0.0126313 3.09695e-22)
(1.00001 -0.000706518 -1.54335e-21)
(1.18575 -0.0522748 -3.70301e-20)
(-0.0643707 -0.175468 -6.50702e-20)
(1.0938 -0.0235344 -1.08223e-21)
(0.985429 -0.0222373 0)
(1.13534 0.0545099 -4.41767e-20)
(-0.349591 0.0452776 0)
(1.15438 -0.488326 9.38504e-20)
(0.995941 -0.00123094 -5.99915e-21)
(0.291589 -0.0284312 5.75067e-20)
(1.00826 -0.0156723 -2.88637e-21)
(0.995771 -0.00140422 2.76696e-21)
(0.999551 -0.00616788 -1.38869e-20)
(0.100699 -0.0833069 1.96991e-19)
(1.05026 -0.0659782 1.55562e-20)
(1.00027 -0.00541422 0)
(0.984715 -0.00432767 2.25529e-20)
(1.40728 -0.271461 1.83033e-19)
(1.17735 -0.0641172 0)
(0.994386 -0.0086209 -5.84399e-22)
(1.33634 -0.0332463 0)
(0.984629 -0.0131947 -1.52095e-20)
(1.14462 0.0627592 -3.23467e-20)
(1.06565 -0.0164878 6.69269e-21)
(1.02455 -0.010015 -2.51373e-21)
(0.58513 -0.453789 0)
(1.04115 -0.0140141 1.22078e-20)
(1.13775 -0.00346956 5.81861e-21)
(0.0693125 0.182338 1.55008e-19)
(1.0445 -0.0173949 -2.05454e-20)
(1.00569 -0.00666561 9.32765e-22)
(1.00004 -0.00216379 -1.37865e-20)
(0.984301 -0.0217377 0)
(-0.233188 -0.0296875 0)
(0.289019 -0.194518 8.8905e-20)
(-0.108745 -0.0899821 0)
(1.00356 -0.0101067 0)
(1.26931 -0.0169356 1.22029e-19)
(1.03551 -0.391365 -1.36652e-21)
(0.550592 -0.553808 -5.20845e-20)
(0.994363 -0.00629024 -4.6576e-21)
(1.06455 -0.0382258 -2.41768e-20)
(0.310579 -0.0204001 0)
(-0.361327 0.0348579 0)
(1.15767 0.0799408 5.87815e-20)
(0.996122 -0.00266046 0)
(0.997497 -0.00313181 1.31882e-22)
(1.0059 -0.00705164 2.15139e-21)
(0.741134 0.0324034 0)
(-0.279411 0.0359973 0)
(0.803882 -0.421434 2.15675e-20)
(0.354324 0.215129 0)
(1.02282 -0.0364938 1.13825e-21)
(-0.0713255 0.0557898 1.73107e-19)
(0.395515 -0.179227 1.86493e-19)
(0.911179 -0.0307568 1.85402e-20)
(1.03332 -0.00383405 -2.72217e-21)
(0.963942 -0.0585817 1.24874e-20)
(0.175759 0.0640666 2.7472e-19)
(1.01654 -0.00547836 -1.76181e-21)
(0.994913 -0.0106456 0)
(0.999793 -0.00239443 -1.20401e-21)
(0.975851 -0.0139808 -1.50536e-20)
(1.02672 -0.00832125 0)
(1.09835 -0.00998225 0)
(1.07234 -0.00624082 3.3133e-20)
(-0.0551589 -0.175092 -1.45334e-19)
(0.981104 -0.00349992 0)
(1.08537 -0.0667727 -1.30195e-20)
(1.04532 -0.0159613 0)
(0.970494 -0.0340109 2.90133e-20)
(0.805677 -0.592803 1.66386e-20)
(1.17863 -0.053929 -5.0628e-20)
(-0.0743708 -0.16424 -6.69751e-20)
(1.0147 -0.00521932 -2.26889e-21)
(0.0342283 -0.108285 0)
(0.981557 -0.0786937 0)
(1.05252 0.0701242 0)
(1.02298 -0.0244699 0)
(1.23308 -0.246036 3.56199e-20)
(0.999348 -0.00450721 -1.05261e-20)
(0.738158 -0.072473 0)
(1.16721 -0.0917963 -3.99917e-20)
(1.02669 -0.00879716 0)
(0.358282 0.417387 -5.67142e-20)
(-0.106602 -0.0558896 -6.74823e-20)
(1.10369 -0.127921 -2.60885e-20)
(0.996365 -0.0154264 0)
(1.15733 -0.00411046 0)
(-0.129271 -0.00342299 0)
(0.75439 -0.100483 -1.24737e-19)
(0.752256 -0.111495 1.30679e-19)
(-0.0724189 -0.144055 -1.66714e-19)
(1.17881 0.116404 1.20495e-19)
(1.05553 0.0648888 1.91144e-20)
(1.10639 0.0253363 8.70444e-22)
(0.40148 -0.154711 -2.49839e-19)
(1.02835 -0.00343125 -2.4849e-21)
(-0.0701941 0.0191476 0)
(-0.31121 -0.0253699 -1.96104e-22)
(1.01619 -0.00532664 0)
(0.999831 -0.00175415 2.98579e-22)
(1.24382 0.0564657 0)
(0.988661 -0.0159563 -1.05038e-20)
(1.0001 -0.00118151 3.96108e-21)
(1.19943 0.0591495 0)
(1.21205 0.0522313 0)
(1.02345 -0.0383569 -1.03696e-22)
(1.06662 -0.0367061 -4.35964e-22)
(1.08993 -0.0673314 -1.33804e-20)
(0.956979 -0.189247 -2.31649e-20)
(1.068 -0.0282851 0)
(0.994289 -0.00585271 0)
(1.08577 -0.178496 0)
(-0.0287127 -0.19815 1.51349e-19)
(1.02588 -0.00898186 0)
(-0.118772 -0.0800917 1.30384e-19)
(1.00004 -0.000984655 4.45986e-21)
(1.00012 -0.00352255 0)
(1.01284 -0.000965325 -1.18652e-21)
(-0.049438 -0.114625 2.57298e-20)
(0.99312 -0.000709531 -1.29476e-20)
(1.42069 -0.266799 -9.90838e-20)
(0.0846412 -0.0910279 -1.80741e-22)
(1.00097 -0.00388831 2.74015e-21)
(0.999474 -0.00437634 0)
(1.43574 -0.134031 0)
(1.01278 -0.000589068 -8.56786e-22)
(0.999942 -0.00150811 0)
(1.01344 -0.000561573 -2.73746e-21)
(0.0529703 -0.105492 -1.00532e-19)
(0.587646 -0.417286 1.93393e-20)
(0.935706 -0.0634296 -5.30695e-20)
(0.90811 -0.54927 0)
(1.19536 0.0274955 -3.31359e-20)
(0.142972 0.183649 -1.32211e-19)
(-0.0432928 -0.010304 7.0256e-20)
(1.04576 -0.0188513 1.03504e-20)
(-0.128903 -0.428705 2.91922e-19)
(1.00002 -0.000914324 7.03616e-21)
(-0.153648 -0.0008322 -1.04735e-20)
(0.38055 -1.20697 0)
(-0.12199 -0.116857 -1.28204e-19)
(0.15725 -0.0581889 0)
(1.18035 0.110163 -1.57548e-19)
(1.06379 -0.0120792 2.67572e-20)
(1.156 -0.0629801 0)
(1.07011 -0.00770903 -3.60246e-20)
(1.0337 -0.00264717 -1.03753e-20)
(1.04675 -0.0100877 6.98448e-21)
(0.835374 -0.561769 -1.01284e-20)
(0.918902 -0.0724914 -8.95075e-22)
(0.999518 -0.00411106 6.45212e-21)
(1 -0.000135899 -4.28021e-23)
(1.01507 -0.00540514 0)
(1.01806 -0.000145475 3.36907e-21)
(1.02568 -0.00948023 -5.04404e-21)
(-0.058198 -0.016062 0)
(1.00586 -0.00838902 -4.20307e-21)
(1.02071 -0.0232259 -3.38487e-22)
(1.01787 -0.000232209 0)
(1.00354 -0.00926005 2.10995e-22)
(-0.0196632 -0.244331 0)
(1.17104 -0.476385 0)
(0.678361 0.047758 5.07452e-20)
(0.945751 -0.0207062 0)
(1.14013 0.0495169 -1.63218e-20)
(1.01711 -0.000144994 -1.89852e-21)
(1.11792 0.253655 0)
(0.0067773 -0.0586566 -2.27732e-19)
(0.992656 -0.0015089 -1.35428e-20)
(0.130029 -0.0765032 1.21038e-19)
(1.10343 0.0129187 3.76701e-21)
(0.991512 -0.00235219 -2.04817e-20)
(-0.0936374 -0.00814308 -1.16754e-19)
(1.1364 0.2632 0)
(0.997049 -0.00612262 1.02269e-21)
(1.08617 -0.187076 -4.66556e-20)
(0.360468 0.976821 -6.59292e-20)
(0.975797 -0.0309189 0)
(0.826926 0.00451124 -7.96564e-20)
(1.02182 -0.0228288 1.80182e-21)
(0.970358 -0.0293055 1.73375e-20)
(-0.200507 -0.00640057 -6.47081e-20)
(0.904375 -0.192451 0)
(0.998144 -0.00999901 3.25787e-21)
(0.99573 -0.00312841 -1.58313e-22)
(0.948483 -0.0196936 0)
(1.1037 -0.396613 0)
(0.0912157 -0.23014 0)
(0.992361 -0.00747379 -1.28746e-20)
(1.00586 -0.0076666 0)
(1.03054 -0.01415 2.49585e-21)
(-0.241028 -0.0274996 -8.11713e-20)
(-0.18309 -0.273656 9.95636e-20)
(-0.0577799 -0.0579683 0)
(1.02778 -0.00419661 -6.34852e-21)
(0.906214 -0.20552 0)
(0.821561 0.0133596 3.06408e-20)
(0.847405 -0.771675 0)
(1.18672 0.00915954 6.59599e-20)
(1.02858 -0.00169179 -8.65344e-22)
(1.03014 -0.00303023 4.23823e-21)
(1.02995 -0.0146712 2.03897e-21)
(1.15101 -0.0574549 -4.61157e-21)
(0.992737 -0.0396543 7.4154e-21)
(-0.0202433 -0.048397 0)
(0.998415 -0.00463494 5.57483e-21)
(1.01048 -0.0149908 -1.24352e-21)
(0.178515 0.0728446 -6.42967e-20)
(-0.0652413 -0.0123254 0)
(0.0155547 -0.119883 -9.81223e-20)
(1.01777 -0.000134846 -2.91353e-21)
(-0.124858 -0.103907 -6.41783e-20)
(0.988827 -0.0892473 -7.02883e-21)
(0.231932 -0.686082 -4.62847e-20)
(-0.0495536 -0.0397444 0)
(-0.0656343 -0.150761 2.09851e-19)
(0.999117 -0.0753045 5.69404e-22)
(1.10008 -0.0762547 4.4079e-20)
(1.29216 0.0332748 1.66354e-19)
(-0.0724939 -0.061561 -2.34883e-20)
(-0.0555549 -0.0638388 -5.51004e-20)
(0.896176 0.00968888 0)
(1.00004 -0.000686793 -1.79394e-23)
(0.930754 -0.0634557 1.88318e-20)
(1.0312 -0.00520232 1.39612e-20)
(1.00648 -0.00829732 3.5916e-21)
(0.992022 -0.0376414 0)
(1.00057 -0.0057585 2.09608e-21)
(1 -5.38569e-05 0)
(0.0469244 -0.0559679 0)
(1.00007 -0.00253039 -7.59056e-21)
(1.18058 -0.100877 0)
(1.09763 -0.0629842 7.77548e-21)
(1.27324 0.088048 -7.02389e-20)
(1.02849 -0.00137254 1.01262e-21)
(0.988474 -0.0814747 -4.30215e-21)
(-0.0179143 -0.156945 0)
(0.355329 -0.0545248 0)
(-0.187249 -0.072452 0)
(1.18135 0.00605733 0)
(1.0101 -0.0142035 2.79229e-21)
(1.00166 -0.0776767 1.29151e-20)
(0.993137 -0.00829692 -1.0483e-20)
(1.24991 -0.367668 0)
(1.01539 -0.00165138 1.56895e-21)
(0.0183984 -0.12107 1.02308e-20)
(0.977454 -0.436698 -2.03419e-20)
(1.13219 -0.261885 -7.89605e-20)
(-0.112259 -0.049838 0)
(-0.192199 0.00769912 2.10934e-20)
(1.00074 -0.0031812 -3.03436e-21)
(0.997618 -0.0153612 0)
(1.29144 0.0429437 1.13404e-20)
(1.26037 -0.352281 9.0053e-20)
(0.981407 -0.00255265 6.24277e-21)
(-0.12781 -0.036242 -2.37333e-19)
(1.00078 -0.00338574 -7.67456e-22)
(0.999747 -0.00317869 0)
(0.499672 -0.896888 2.81292e-21)
(1.01472 -0.00498714 3.72919e-21)
(1.19947 0.0336499 9.93768e-20)
(1.0284 -0.00395964 6.00023e-21)
(-0.020423 0.15333 4.50371e-21)
(0.99861 -0.00459101 -4.36121e-21)
(1.0414 -0.0128526 4.82411e-21)
(0.155887 0.0328657 8.98675e-20)
(0.603398 0.00452219 0)
(1.06799 0.0891709 -3.5206e-20)
(0.911311 -0.0353392 2.13661e-20)
(1.00125 -0.00426251 -1.53842e-21)
(1.00318 -0.0208682 2.34359e-22)
(0.495947 0.00479907 0)
(1.1553 -0.100134 -4.21192e-20)
(1.02512 -0.00567827 0)
(0.999636 -0.00228483 2.15888e-20)
(0.897025 -0.133489 3.4453e-20)
(0.825086 0.0322356 -3.06963e-20)
(1.06124 0.0893485 3.08838e-20)
(-0.341612 0.0425137 0)
(0.999726 -0.00254268 -6.41899e-22)
(0.997711 -0.0107163 -4.72001e-21)
(0.660163 -0.499114 -5.17657e-20)
(1.00131 -0.00417699 -4.39465e-21)
(-0.0337311 -0.188983 -1.67891e-19)
(0.59795 -0.54923 -1.2839e-19)
(0.997238 -0.00318186 -9.078e-21)
(0.997383 -0.00656766 -9.55986e-22)
(1.04582 -0.0111217 -1.39844e-20)
(1.00093 -0.00366536 6.87837e-22)
(1.03006 -0.0129962 0)
(-0.136928 -0.101385 5.19132e-20)
(0.736222 -0.0874799 -1.91119e-21)
(1.40021 -0.130968 0)
(0.87788 0.0218954 0)
(1.05076 0.00347672 -1.619e-20)
(1.14083 -0.0169257 -1.50712e-20)
(0.915272 -0.00551537 -2.93252e-20)
(-0.0670833 -0.109089 1.71698e-19)
(0.901738 -0.0313143 -1.28948e-20)
(0.999981 -0.000667074 0)
(1.06563 -0.0419733 2.83685e-20)
(1.17842 -0.444187 0)
(0.981038 -0.0162833 3.17819e-21)
(0.983539 -0.0133479 -4.31649e-22)
(0.976827 -0.012928 1.52239e-20)
(1.01511 -0.00159655 -2.0961e-21)
(0.999719 -0.00856887 5.53495e-21)
(1.01858 -0.0254388 1.72446e-21)
(0.996652 -0.0033013 0)
(1.00056 -0.00272822 -2.68005e-21)
(0.974181 -0.056258 -9.2901e-21)
(1.07043 -0.0110851 2.21366e-20)
(1.19681 0.0646925 0)
(1.01631 -0.000345223 0)
(0.212002 0.087679 -1.74632e-19)
(0.922788 -0.0577834 -4.89932e-20)
(0.988342 -0.464714 2.32325e-20)
(-0.0447753 0.00278154 0)
(1.03401 -0.00325085 0)
(0.270141 0.0951132 1.82673e-19)
(1.1421 -0.239063 2.75481e-20)
(1.0335 -0.00451899 2.82578e-21)
(1.01529 -0.00224862 2.61334e-21)
(0.986333 -0.0246424 -1.02448e-20)
(0.295196 -0.00331322 7.98596e-20)
(1.19919 0.0211449 0)
(1.01547 -0.00211589 -1.73898e-21)
(0.998767 -0.00356086 -6.79195e-21)
(0.999807 -0.00259202 0)
(0.697876 0.103842 0)
(1.02576 -0.417884 1.32058e-21)
(0.791907 0.0198067 0)
(1.00337 -0.00140375 4.76998e-21)
(0.984784 -0.00350236 0)
(0.858366 -0.0545355 4.48307e-20)
(-0.378051 0.0268712 1.38402e-19)
(-0.1232 -0.117505 2.90966e-20)
(0.936216 -0.0347348 -1.79663e-20)
(1.0576 -0.0109569 4.28584e-20)
(-0.10219 -0.0713507 -1.38431e-19)
(1.21195 0.00530355 -4.75594e-20)
(1.2401 0.0823886 -1.01203e-19)
(0.978836 -0.0360898 0)
(1.00948 -0.0151808 -3.7166e-21)
(-0.0600207 -0.171528 -4.56869e-20)
(0.995395 -0.0129898 1.8726e-20)
(1.06043 -0.386679 0)
(1.26214 0.0769076 -4.82731e-22)
(1.02466 -0.00530007 0)
(0.620853 -0.404902 0)
(1.07988 -0.0613533 -2.16213e-20)
(-0.110446 -0.093988 8.09036e-20)
(1.00342 -0.020182 0)
(-0.052688 -0.202055 6.84842e-21)
(1.32023 -0.0924967 0)
(1.06336 0.0139444 0)
(1.44497 -0.119423 -1.58697e-19)
(0.996523 -0.0131389 1.92108e-21)
(0.878813 -0.723495 -2.4675e-20)
(0.99838 -0.00417004 6.34316e-21)
(0.998772 -0.0152161 3.00035e-21)
(1.00004 -0.00199021 1.47337e-20)
(0.995169 -0.00921546 -1.20188e-21)
(0.183142 -0.062024 0)
(0.996994 -0.0141683 4.30541e-21)
(1.03127 -0.00788756 -8.21584e-21)
(0.949117 -0.0268781 0)
(1.02776 -0.00472445 -6.57031e-21)
(1.0092 -0.0156083 4.05982e-21)
(1.07189 -0.202674 0)
(0.988214 -0.0611365 5.45048e-21)
(1.10625 0.0161749 1.75086e-20)
(1.00222 -0.00447538 3.47563e-21)
(1.00205 -0.0043671 5.81328e-21)
(-0.0220377 -0.161474 -4.31591e-20)
(0.640631 0.0111022 -8.31834e-21)
(0.938897 -0.0337682 -4.02432e-20)
(-0.0996114 -0.0838867 0)
(1.06808 -0.0123281 0)
(0.987321 -0.0426129 -1.9611e-20)
(0.993348 -0.000336395 -6.88848e-21)
(1.03065 -0.0125585 4.50856e-21)
(0.0234846 -0.0653909 -1.13502e-19)
(1.03122 -0.0072322 8.58403e-21)
(1.00179 -0.000663313 0)
(-0.419759 -0.000386894 0)
(1.21173 0.0494352 -2.76434e-19)
(0.969798 -0.190834 2.44217e-20)
(1.00325 -0.00941452 7.10267e-21)
(0.999991 -0.00035227 0)
(1.03864 -0.0270998 -9.08646e-21)
(0.999994 -0.00154617 8.00635e-21)
(-0.149164 -0.0814513 -1.35352e-19)
(0.973799 -0.0312276 -9.24963e-21)
(0.609799 0.253506 0)
(1.06117 -9.89897e-05 -1.50639e-21)
(0.301446 0.405425 0)
(0.999973 -0.000902941 -1.80359e-20)
(-0.413648 0.0105919 -2.18683e-19)
(1.00919 -0.000325394 1.62415e-23)
(1.12325 -0.410755 1.92131e-21)
(0.994319 -0.0121372 -1.28769e-20)
(1.11929 0.119848 0)
(-0.0199787 -0.204472 -2.07359e-20)
(0.99856 -0.00401491 0)
(0.933566 0.0578799 -1.88549e-20)
(0.990987 -0.014618 -6.54025e-21)
(1.00019 -0.000157016 -4.69049e-21)
(1.02421 -0.00887617 -2.17003e-21)
(0.499329 0.016474 0)
(-0.0538754 -0.171913 9.79144e-20)
(0.985222 -0.023948 0)
(1.08404 -0.0622504 1.23844e-20)
(1.03118 -0.00583948 0)
(-0.123823 -0.066081 7.21397e-20)
(1.01686 -0.000431302 -8.52016e-22)
(1.093 -0.174987 -2.32751e-22)
(-0.0496908 -0.189209 0)
(0.908373 -0.00343728 5.44246e-20)
(1.00236 -0.0011107 3.97244e-21)
(0.814133 -0.16552 3.30522e-20)
(1.00013 -0.000729969 6.14366e-21)
(1.04016 -0.0267082 -1.37847e-21)
(1.02988 -0.0163903 -4.04714e-21)
(1.18842 0.0667147 0)
(1.00381 -0.00384679 -1.84091e-21)
(-0.0612056 -0.0479378 -7.26639e-20)
(1.00186 -0.00439168 -2.63542e-22)
(0.995858 -0.041736 -6.29411e-21)
(1.10335 0.039161 -1.92296e-20)
(0.776149 -0.273715 5.42264e-20)
(1.27646 0.0771916 0)
(1.0199 -0.0221773 2.45886e-22)
(-0.382934 0.012965 0)
(0.998159 -0.0157416 -4.13943e-21)
(1.04518 -0.43876 0)
(0.986864 -0.00888514 0)
(1.0442 -0.0146716 0)
(0.995828 -0.0134214 -2.58051e-22)
(1.00179 -0.00445538 2.70127e-22)
(0.999974 -0.000734806 8.43253e-21)
(1.03967 -0.46008 7.59443e-20)
(1.06126 0.0645024 -4.24791e-20)
(0.851348 0.0556913 9.58041e-21)
(1.24216 -0.106407 -1.51345e-20)
(0.836111 -0.0775257 1.3553e-19)
(0.919503 -0.150128 -1.84601e-20)
(0.568705 -0.86887 1.54058e-20)
(1.05945 -0.0399205 0)
(-0.15805 -0.0855796 1.58753e-19)
(-0.207654 -0.159167 1.15456e-19)
(1.12065 -0.434589 -7.27415e-20)
(1.16987 -0.194922 8.31202e-20)
(1.29326 0.0771231 -4.49178e-20)
(1.07898 -0.405956 5.10076e-21)
(1.04077 -0.0258178 5.15876e-21)
(0.0613409 -0.203136 -4.93941e-20)
(1.09973 0.0422497 0)
(1.04243 -0.0150346 -8.02053e-21)
(1.14068 -0.447459 9.20507e-20)
(1.00008 -0.000648543 -6.34101e-21)
(0.880591 -0.574989 0)
(0.975548 -0.17652 0)
(1.25474 0.0424273 6.45703e-20)
(0.882963 0.0129977 8.43385e-20)
(-0.0709808 -0.0161228 0)
(-0.309755 -0.0586365 1.71514e-19)
(1.10158 0.0332019 1.31279e-21)
(1.24801 0.0425875 0)
(0.999814 -0.00196463 -9.81263e-21)
(1.06586 -0.558935 -1.01607e-19)
(0.943579 0.00477909 0)
(0.994593 -0.0116891 6.71433e-21)
(0.990045 -0.0372254 0)
(1.04417 0.00924649 -4.8271e-22)
(1.14701 -0.0991992 4.04123e-20)
(-0.0776133 -0.144107 2.13101e-20)
(0.899775 -0.507324 7.141e-23)
(-0.323686 0.0499728 0)
(1.0549 -0.0417275 0)
(0.963278 -0.0614205 -1.79411e-20)
(-0.116332 -0.0899292 -1.11325e-19)
(0.413479 0.0796482 1.16967e-19)
(1.05565 -0.0139566 -7.58548e-23)
(1.17701 -0.00603759 5.3072e-20)
(0.969213 -0.0354703 4.20801e-22)
(0.248944 -0.797515 0)
(0.207644 0.0536222 -2.26355e-19)
(0.99718 -0.00346668 9.01917e-21)
(0.681728 0.0609673 -1.15763e-19)
(0.683636 -0.458923 -8.06636e-20)
(-0.29276 -0.115252 -2.36549e-19)
(1.00373 -0.00124955 -3.3057e-21)
(0.92863 -0.0699371 2.72409e-20)
(0.39808 0.0306025 -2.49683e-20)
(1.0939 -0.008748 0)
(0.857225 0.0448484 -3.05967e-20)
(1.12767 0.117645 0)
(1.29133 0.0972618 3.46029e-20)
(0.956845 -0.0886792 -1.12482e-20)
(1.06057 -0.0431691 -2.29937e-20)
(1.02436 -0.0313648 1.13737e-21)
(0.985474 -0.00483972 -2.73645e-20)
(1.18327 0.168657 0)
(1.00001 -0.000392266 -9.95452e-22)
(1.1876 0.175982 1.73558e-21)
(1.25926 -0.075112 5.76448e-20)
(1.10041 -0.28038 0)
(1.00004 -0.000311811 -6.16955e-21)
(1.00019 -0.0013706 0)
(1.05014 0.00651162 1.77163e-20)
(1.03739 0.000539646 9.86964e-21)
(1.00665 -0.00102105 -1.01233e-21)
(0.988033 -0.0150492 8.01812e-21)
(1.23187 -0.10827 5.38952e-20)
(0.347905 0.0143936 1.55234e-19)
(-0.148733 -0.0639974 1.2975e-20)
(1.00002 -0.000412665 6.57396e-21)
(1.22797 -0.37263 -2.42382e-20)
(1.0028 -0.00844008 -3.23885e-21)
(-0.224918 -0.197135 5.98875e-20)
(1.13155 0.0300623 5.07882e-21)
(0.784807 -0.117626 7.6375e-20)
(0.828571 0.022895 5.87374e-20)
(1.31611 -0.0815537 0)
(1.01005 -0.00540044 2.88893e-22)
(0.999527 -0.00642279 5.96464e-21)
(0.829547 -0.161728 0)
(0.994665 -0.0129456 2.63524e-22)
(1.03711 -0.0266884 1.25437e-20)
(1.18054 -0.0364728 8.61002e-20)
(-0.140174 -0.0757362 8.71483e-20)
(1.02719 -0.00808861 -5.29348e-21)
(1.19018 0.153995 1.41278e-19)
(-0.0961205 -0.123042 4.98138e-20)
(1.07 -0.0304413 9.05308e-21)
(-0.187621 -0.0125423 -4.51491e-20)
(-0.0785208 -0.122817 1.14571e-19)
(1.01923 -0.0265965 -1.75843e-21)
(1.17088 -0.0824325 1.13854e-20)
(1.06626 0.018391 0)
(1.02131 -0.0363231 1.05162e-21)
(1.02347 -0.00893587 -4.46246e-21)
(0.622164 -0.15832 0)
(-0.108056 -0.118974 -2.52996e-20)
(-0.268094 0.0534782 -4.60811e-20)
(0.98007 -0.0175156 -1.67447e-20)
(0.995439 -0.00281375 7.23206e-22)
(1.02142 -0.0123177 -4.21941e-21)
(1.04444 0.0160022 8.69005e-21)
(0.99139 -0.0606412 -4.84089e-22)
(0.979767 -0.0746885 0)
(0.498863 0.390752 1.18649e-19)
(1.12829 0.0348667 4.04645e-20)
(1.00061 -0.00292902 0)
(1.34814 -0.00182698 2.23595e-19)
(1.09908 -0.0139041 -3.18225e-20)
(0.846556 -0.0791485 -1.03416e-19)
(1.03693 -0.0251811 -9.9354e-21)
(-0.415863 -0.0128765 0)
(1.06165 -0.0109171 0)
(1.00468 -0.00279084 -1.96051e-21)
(1.11296 -0.27763 -3.52339e-20)
(0.147736 0.0722251 -1.93183e-19)
(1.02585 -0.00566469 -2.57434e-21)
(0.996717 -0.00297276 0)
(0.993697 -0.00786906 -1.02142e-20)
(1.06051 0.0128762 0)
(1.01009 -0.00510652 6.15803e-22)
(1.10552 0.0306198 5.82551e-20)
(1.30412 0.0208447 -1.97234e-19)
(0.998708 -0.0453645 -5.78172e-21)
(1.18682 0.0718124 0)
(1.05378 -0.0147068 0)
(1.03522 -0.0243785 -7.36756e-22)
(1.28432 0.072531 7.46525e-20)
(-0.126362 -0.209406 0)
(1.23543 0.117608 -2.25429e-20)
(0.999686 -0.00613813 1.59817e-20)
(1.02682 -0.00540872 0)
(1.23197 0.188374 7.15216e-21)
(0.906944 -0.028055 -3.61245e-20)
(1.21784 0.189357 0)
(1.02544 -0.00457968 4.65509e-21)
(0.990087 -0.0146811 0)
(-0.326912 -0.0248814 -8.41087e-20)
(0.522182 0.252721 -3.06945e-20)
(1.09182 -0.0733452 4.80258e-20)
(1.19899 0.0465378 0)
(0.686824 0.000857956 3.70532e-20)
(0.996965 -0.0158892 0)
(1.00003 -0.000265088 0)
(1.01766 -0.0358465 0)
(-0.157299 -0.104658 -4.72127e-20)
(1.00194 -0.000803346 -3.74851e-21)
(0.999996 -6.51519e-05 -3.80691e-23)
(-0.0809233 -0.0673954 6.77851e-20)
(0.888133 0.0137061 -4.0817e-20)
(1.31581 -0.168487 -2.39547e-19)
(0.836614 0.00551451 -1.46151e-20)
(1.00331 -0.00860922 0)
(-0.0948952 -0.223688 -1.91552e-20)
(1.00003 -0.000785856 -1.49738e-20)
(0.988718 -0.0106767 -7.79149e-21)
(1.01635 -0.035314 2.39623e-22)
(0.930479 -0.126283 1.61953e-20)
(-0.0289907 -0.116108 1.12306e-20)
(1.00022 -0.00370772 0)
(0.992578 -0.000579146 -2.76977e-20)
(0.994327 -0.013366 -1.56017e-23)
(0.996357 -0.0145598 0)
(1.00302 -0.00870154 0)
(1.02429 -0.0325037 -1.54336e-21)
(1.05959 -0.184519 -1.61597e-19)
(0.923525 -0.131742 1.1047e-20)
(0.973746 -0.052906 -8.9327e-21)
(1.00051 -0.00496903 0)
(0.914235 -0.127249 -7.62746e-20)
(1.1846 -0.0780236 0)
(1.0609 0.0182872 7.75752e-21)
(0.878276 0.0173023 -4.05881e-20)
(1.00001 -0.000118757 -4.84365e-21)
(1.02133 -0.0117178 6.55045e-21)
(1.01227 -0.0706648 -9.34316e-22)
(-0.041292 -0.184967 -1.24938e-19)
(-0.199058 -0.0476421 0)
(1.04885 0.00342524 0)
(-0.293417 0.047449 0)
(0.999774 -0.00186982 0)
(0.956068 -0.0832335 -1.06409e-20)
(1.35879 -0.357521 0)
(0.153225 -0.195016 0)
(1.02407 -0.0218381 0)
(1.0001 -0.00318142 8.54725e-21)
(0.422859 0.17575 1.92741e-19)
(1.15646 0.00073842 0)
(1.00493 -0.00283762 5.50365e-21)
(0.999952 -0.00128479 -9.02603e-21)
(-0.0389875 -0.0518381 0)
(1.00003 -0.000193489 -1.43835e-22)
(1.17702 -0.158871 -6.2385e-20)
(0.99707 -0.00647164 0)
(0.346892 -0.017045 0)
(0.999962 -0.00135025 0)
(1.01001 -0.000188482 -3.77986e-22)
(0.99891 -0.00362121 6.75196e-21)
(1.07202 -0.103837 0)
(1.03653 0.000539051 0)
(0.937504 -0.0576355 0)
(0.90017 0.00747727 3.7004e-20)
(0.531638 0.0717613 0)
(1.00575 -0.00862201 -1.20351e-22)
(0.999948 -0.00843939 -1.09653e-20)
(1.00008 -0.000435595 1.30353e-21)
(0.999227 -0.0155964 1.19627e-21)
(1.041 -0.0231745 1.71236e-21)
(1.03831 -0.00730978 0)
(1.09981 -0.06778 0)
(0.9986 -0.00370869 0)
(1.14349 0.0334661 4.291e-20)
(-0.184537 -0.0680707 0)
(1.14422 -0.0591772 0)
(1.18757 -0.0396862 -5.77452e-20)
(0.99974 -0.00232071 1.04413e-20)
(1.03046 -0.0157642 -4.94931e-21)
(-0.302339 -0.0245779 1.85836e-19)
(1.0204 0.223109 5.07703e-20)
(1.02312 -0.00831624 4.1201e-21)
(-0.191701 -0.0320257 -5.48725e-20)
(-0.393906 -0.016615 5.26789e-21)
(1.0271 -0.00568736 0)
(0.992338 -0.000983458 2.78267e-20)
(1.00282 -0.0135407 8.4632e-22)
(1.17101 -0.238475 -4.0221e-20)
(1.14346 0.0384362 -9.75916e-21)
(0.134125 -0.154437 2.66231e-19)
(1.00629 -0.00858188 -2.1282e-21)
(1.0328 -0.087282 0)
(1.00636 -0.00630076 -3.08298e-21)
(0.969377 -0.0311165 -2.05558e-20)
(1.00917 -0.000273984 -3.05358e-22)
(1.08157 -0.304231 -2.21784e-21)
(1.04108 -0.0219456 3.07684e-22)
(1.29858 -0.187817 -9.50727e-20)
(0.999845 -0.00562986 -4.85652e-21)
(0.935289 -0.275505 1.29906e-20)
(1.00505 -0.00798739 -2.15015e-21)
(0.967421 -0.0571925 -2.35886e-20)
(0.98703 -0.0109333 0)
(1.06307 0.0581676 -3.04096e-21)
(0.712667 0.105256 0)
(-0.403998 -0.00391266 0)
(0.922454 0.35562 -8.75211e-20)
(-0.173928 -0.03224 -1.16898e-19)
(1.15181 -0.00835298 0)
(0.989757 -0.0158022 -7.05286e-21)
(0.5855 -0.809502 -3.71403e-21)
(0.0729944 -0.167391 0)
(1.1535 0.0457051 3.98146e-20)
(1.03841 -0.0209323 -3.95839e-21)
(1.00045 -0.00571964 -4.72319e-21)
(0.164491 0.190151 0)
(1.00313 -0.0140397 -6.60782e-22)
(-0.0329544 -0.108198 -5.5631e-20)
(1.02889 -0.00311887 0)
(1.08577 0.0139369 2.4727e-20)
(1.04346 -0.0206847 1.97683e-20)
(0.999952 -0.000503335 0)
(1.02405 -0.0229651 0)
(1.13183 0.0597626 -1.1146e-19)
(-0.125479 -0.0949043 -8.55994e-20)
(-0.0360502 -0.0941752 9.02472e-20)
(0.657479 0.0185771 3.32821e-20)
(-0.256298 -0.0326958 -1.64039e-19)
(0.994979 -0.00877813 -5.98857e-22)
(0.162928 -0.0339509 0)
(0.48957 0.0168421 1.8184e-19)
(1.00003 -0.000135889 0)
(0.994892 -0.0398889 -1.36402e-20)
(1.01154 -0.00717483 3.18722e-23)
(1.28602 0.0985625 3.36606e-20)
(1.02402 -0.00541111 -5.5815e-22)
(-0.209242 0.0531383 3.1319e-19)
(0.850776 -0.0612121 0)
(1.25271 -0.0235978 8.03193e-20)
(1.01159 -0.0481937 0)
(1.30031 -0.392499 -7.56231e-20)
(-0.30654 0.0382657 -2.01337e-19)
(0.167128 -0.0110285 -1.35833e-19)
(0.945742 -0.12325 0)
(1.10875 -0.0526109 3.435e-20)
(1.00217 -0.00116497 -6.99312e-21)
(0.415996 -0.170719 0)
(1.02497 -0.00381357 4.86309e-21)
(0.391799 0.267156 0)
(1.28608 -0.0140307 -1.72631e-21)
(0.818916 -0.273968 -5.02078e-20)
(0.695475 0.0507136 -5.59682e-20)
(0.102763 -0.0801161 1.10513e-19)
(1.06509 -0.0289906 -2.63256e-20)
(1.01851 -0.0696076 -2.52575e-22)
(1.00395 -0.00413838 0)
(1.10969 0.134335 8.04983e-20)
(-0.175921 0.0367352 -1.85996e-19)
(-0.191582 -0.036217 0)
(1.01076 -0.00674889 2.21822e-22)
(0.204027 0.561053 -1.14028e-19)
(1.05831 0.0170276 2.64246e-20)
(1.20808 0.0587542 0)
(0.557216 0.0762416 8.56678e-20)
(-0.146327 -0.0778189 7.56556e-20)
(-0.148602 -0.0736067 -4.64491e-20)
(1.03002 -0.00251972 0)
(0.919942 -0.0617867 -3.9943e-20)
(1.10064 -0.00284337 4.02551e-20)
(1.06044 0.00184343 2.37615e-20)
(1.05078 0.00816466 4.03523e-22)
(-0.19081 -0.0432506 0)
(0.999841 -0.00263725 0)
(0.71279 -0.0158462 0)
(1.01673 -0.000340409 7.39809e-22)
(1.02935 -0.00232778 2.37182e-22)
(1.1544 -0.219636 0)
(1.20751 0.0461469 0)
(1.28043 0.10526 0)
(1.04626 -0.0340462 -7.47491e-21)
(0.841533 -0.41402 0)
(1.09158 -0.247591 -1.86093e-20)
(1.32804 -0.316578 -7.20818e-20)
(0.89206 0.00755191 0)
(1.00015 -0.000664138 3.20038e-21)
(1.045 -0.0354498 2.67166e-23)
(1.00018 -0.000683853 -7.56527e-21)
(0.98535 -0.012291 4.59996e-21)
(1.32547 -0.33631 8.14572e-20)
(1.20591 0.187336 0)
(1.02823 -0.0400268 -2.58305e-21)
(0.986017 -0.00948682 9.62121e-21)
(1.10229 0.00476661 3.45688e-20)
(0.19304 -0.199982 0)
(1.02511 -0.0952832 -1.30187e-21)
(0.986217 -0.00154172 5.82013e-21)
(0.378847 0.0711865 -8.04788e-20)
(0.993867 -0.00912282 -8.76503e-21)
(0.999992 -0.000388155 6.02662e-21)
(1.02546 -0.00408954 0)
(1.13733 0.061377 3.28758e-20)
(0.996078 -0.00307827 1.53365e-22)
(1.06641 0.00220365 0)
(-0.0312866 -0.0325612 6.74487e-22)
(1.18412 -0.0943812 -6.07088e-20)
(1.00589 -0.000183251 0)
(0.131647 0.535669 5.40858e-20)
(0.565734 0.0261683 0)
(0.994078 -0.00974898 8.53394e-21)
(1.04825 0.00168706 0)
(1.11613 -0.0465066 4.42632e-20)
(1.00005 -0.000208433 0)
(1.00233 -0.0082435 -3.74543e-21)
(1.01937 -0.0203236 0)
(0.943289 -0.113455 0)
(1.11996 0.235268 7.73766e-20)
(0.999985 -0.0471148 7.31509e-21)
(1.12135 -0.046911 -4.72195e-20)