/*--------------------------------*- C++ -*----------------------------------*\
| =========                 |                                                 |
| \\      /  F ield         | OpenFOAM: The Open Source CFD Toolbox           |
|  \\    /   O peration     | Version:  v2012                                 |
|   \\  /    A nd           | Website:  www.openfoam.com                      |
|    \\/     M anipulation  |                                                 |
\*---------------------------------------------------------------------------*/
FoamFile
{
    version     2.0;
    format      ascii;
    class       volScalarField;
    location    "550";
    object      ddt0(k);
}
// * * * * * * * * * * * * * * * * * * * * * * * * * * * * * * * * * * * * * //

dimensions      [0 2 -3 0 0 0 0];


internalField   nonuniform List<scalar> 
10042
(
-0.000197339
0.00517238
2.20443e-05
1.42986e-07
6.6523e-08
0.00128421
-1.51961e-05
0.00127917
3.41198e-08
-1.137e-05
-0.00098332
0.0038678
1.1322e-06
3.88281e-07
2.42717e-07
4.25183e-07
0.000397488
-0.00146308
5.58972e-07
-9.5322e-07
1.1351e-06
-0.000165664
1.12586e-07
-0.00269667
1.25538e-07
1.34871e-07
-3.10327e-06
3.60153e-08
0.000982196
-0.00363744
4.06743e-08
1.29101e-06
3.11591e-08
2.20306e-08
0.00342184
0.00353918
1.5333e-07
3.39936e-08
4.79594e-08
-4.26063e-06
-0.00286747
3.2081e-08
1.60018e-06
-0.00627595
7.59671e-08
1.83196e-07
-3.43148e-09
2.40278e-07
2.1732e-06
1.11269e-05
2.18732e-06
9.97069e-08
0.000495036
5.34494e-07
0.0293155
0.0113971
1.12754e-06
0.000618856
1.73906e-07
2.7359e-08
-6.56104e-06
0.00482489
1.08076e-06
0.000446175
0.000202862
5.86509e-07
-1.08356e-06
-0.000135661
-1.668e-08
-0.000102827
2.01963e-06
-1.16781e-07
9.08477e-08
1.44048e-07
5.48646e-07
3.70038e-06
0.000290106
-6.92245e-09
0.000325783
5.44226e-07
-0.0128308
-0.00258819
6.298e-08
1.15674e-07
-1.28468e-06
-1.47641e-06
-1.13778e-06
3.58268e-06
-1.66689e-07
0.000132286
9.03888e-07
2.58456e-07
9.71591e-07
8.98852e-06
4.44227e-05
-8.474e-08
-0.000575803
-1.05118e-06
-0.00236849
1.62517e-07
8.79418e-07
6.91653e-05
-2.09677e-07
1.18618e-06
6.89476e-07
-1.08432e-07
0.00261189
4.91183e-07
-2.39345e-05
-1.26192e-07
8.1204e-08
-8.64723e-06
1.98954e-05
0.00218027
8.558e-05
-3.66475e-08
1.56754e-05
6.29505e-08
0.00087501
-4.80387e-08
2.8329e-08
0.0228281
0.0221279
8.47454e-08
0.000213548
-2.40972e-07
-2.6411e-07
0.0297199
4.58087e-06
1.6236e-05
-2.87734e-08
3.7716e-07
-4.41853e-07
3.39149e-07
1.59376e-05
8.29798e-07
-1.14774e-06
-0.0165132
4.07915e-07
-0.00402671
1.2246e-06
-2.55993e-08
0.00147911
3.47082e-08
9.06257e-07
2.91908e-08
1.72284e-06
-1.96087e-08
-7.31507e-07
0.00581298
4.507e-07
-9.1191e-08
5.11305e-07
1.30563e-06
1.43307e-05
9.67609e-07
3.45516e-06
0.0087484
-3.95415e-07
1.44146e-07
1.15703e-07
9.72714e-07
1.19761e-06
-1.67167e-07
3.15518e-07
0.0052899
6.98226e-08
1.24392e-06
0.00356573
1.95784e-08
1.95177e-05
-0.00422956
0.0174504
1.75989e-08
5.40551e-07
0.0238373
1.02042e-07
2.78961e-08
3.32549e-07
-1.81995e-08
3.74906e-07
7.32846e-07
1.73445e-07
-1.76625e-08
-0.000555266
8.7026e-07
1.11495e-08
2.93784e-08
0.000131781
1.08332e-07
0.000381841
1.13824e-06
-4.27301e-08
7.14298e-07
0.0403863
2.40797e-07
0.000854103
-6.06495e-05
0.00319472
9.84617e-08
1.23866e-05
1.74103e-06
0.000122374
7.0793e-08
-0.00412861
-4.47654e-07
-0.00171851
1.25193e-06
9.00065e-08
3.47566e-07
1.36638e-06
5.79124e-08
8.85553e-05
-1.78016e-05
1.60019e-07
-0.000518253
4.93852e-08
0.0011209
1.32233e-07
8.7401e-06
0.0138816
1.13181e-05
0.0233224
-0.00036279
1.37209e-07
1.42336e-06
-6.46247e-07
-1.11862e-06
1.56287e-06
-1.70167e-07
7.73967e-09
-2.74759e-07
8.71399e-07
5.55631e-08
1.06252e-07
0.00182423
-1.05045e-06
-0.000935378
8.31926e-07
-0.00248365
8.85315e-05
0.00105701
2.56511e-08
3.63701e-06
0.0147048
6.74478e-08
0.000860865
8.08917e-07
5.31681e-07
8.81284e-08
6.60489e-07
-5.97611e-08
0.000385841
0.0212131
-7.68346e-07
-9.78447e-07
1.50454e-07
-9.48364e-07
0.00139405
1.28374e-07
0.000282834
3.87061e-08
1.03537e-07
8.40594e-10
1.1398e-06
0.0185862
0.000186493
-0.000474225
8.1563e-08
-2.898e-07
1.69583e-07
8.30089e-06
-1.70311e-08
7.94598e-06
-8.88993e-07
0.000395962
3.56813e-07
5.6185e-08
8.65724e-08
0.0404067
3.47354e-08
0.00214518
0.00131182
3.05845e-07
-3.32389e-10
0.029964
9.34678e-05
-1.48712e-09
-0.000135002
-1.22129e-07
1.07893e-06
1.03479e-05
1.81676e-07
0.00288578
0.000308372
6.62981e-07
-0.000290124
-1.11192e-06
1.6684e-07
5.45413e-08
4.74512e-07
0.000146337
3.1886e-08
0.000155666
7.01159e-05
0.00645708
-1.85656e-08
8.06737e-06
-0.00311487
0.00345237
2.09842e-07
3.20429e-07
-7.61786e-08
6.28925e-07
1.23783e-05
-8.74904e-05
5.04172e-09
-0.000605409
-0.00183798
-3.28502e-08
2.25518e-08
1.77064e-05
0.00025542
-0.000695518
-0.000865201
1.47762e-07
-2.51025e-05
2.76656e-07
-1.06682e-06
1.04284e-06
-4.58797e-07
2.09476e-08
-0.000305747
3.13083e-09
-0.00202406
-0.000204403
0.00145506
-0.000765219
-8.36572e-08
0.00409619
1.35159e-06
1.19731e-06
2.81948e-08
1.25068e-05
7.29888e-08
7.43861e-09
1.1507e-09
6.47188e-08
-6.04642e-07
-0.000217762
2.64255e-07
9.05069e-05
-2.53325e-06
4.56523e-07
0.00577261
-2.90567e-05
-6.31901e-07
8.86543e-08
0.000113348
-3.75356e-08
-8.85176e-08
1.32685e-07
3.04338e-07
-0.00391475
0.0034799
3.5045e-07
8.94339e-08
-1.10625e-06
-1.15345e-06
0.00947622
2.95175e-08
5.93617e-08
-7.05526e-08
7.0979e-08
-8.81785e-06
-2.43871e-07
0.000531227
-2.01159e-05
0.0039077
-8.9897e-06
-5.64267e-08
-7.36993e-05
2.14662e-06
2.40921e-07
1.48338e-06
-5.40782e-08
7.62328e-08
-3.16358e-08
2.83951e-07
1.08906e-08
-9.1043e-07
0.0298262
2.58681e-07
3.34402e-05
0.00281069
0.0167571
1.01384e-07
0.00278055
-6.81283e-08
1.3487e-06
1.23732e-07
0.0446156
-1.85216e-06
0.0133095
0.00300542
5.19508e-07
1.50769e-06
1.52148e-06
3.35124e-05
-8.01664e-07
-0.00333486
9.84701e-07
0.00155047
2.88146e-07
-0.00395575
7.21498e-07
1.04078e-06
0.0121824
2.28722e-08
7.31174e-07
-7.12158e-08
0.00237003
-1.93614e-08
-1.81632e-08
8.17216e-07
3.01644e-07
-3.50594e-06
-0.00313897
1.31057e-07
1.19068e-06
3.3806e-07
-1.27495e-08
1.03288e-06
0.00263318
1.49565e-06
3.06957e-07
0.000447103
0.000743774
3.82236e-08
0.0152454
2.81511e-08
8.58377e-06
3.24172e-09
8.27742e-05
-4.44199e-07
4.40913e-06
-0.00354752
3.286e-06
0.00104408
-2.10823e-08
0.000181538
0.00808434
0.0108234
1.43993e-06
8.67934e-08
-2.6536e-08
5.65315e-05
0.0154698
-1.80967e-08
2.1012e-07
1.4247e-07
7.53639e-08
3.01688e-07
6.9076e-07
2.15463e-07
2.05147e-07
-0.000105515
3.02984e-07
5.65059e-06
1.20774e-05
2.10923e-06
1.64166e-07
0.0523415
0.000545245
0.00624291
3.59724e-08
6.64065e-07
2.96008e-08
0.0169745
1.50191e-07
-4.93857e-05
3.40605e-07
-0.00166106
-3.61313e-08
6.44252e-07
-5.16595e-08
0.000112538
-0.00610873
8.27252e-08
9.97112e-08
3.23137e-07
-0.00884773
3.18758e-08
-1.86595e-05
1.70813e-06
1.82177e-06
2.97685e-07
1.78824e-07
0.0032711
-5.2837e-05
5.65358e-08
1.09802e-07
0.00158773
-0.00499238
1.12714e-06
0.00267357
5.76586e-08
-0.000597997
1.44131e-06
1.143e-06
7.04702e-07
-0.00181835
1.41482e-07
1.03075e-07
-4.8511e-08
0.00423007
1.20154e-07
-2.09095e-06
1.69463e-07
8.53828e-08
1.68455e-07
1.07648e-06
0.00314713
-1.23531e-07
3.17728e-07
0.00359466
-7.4117e-07
1.6198e-06
-1.04896e-07
4.70633e-07
-0.000656265
-9.35052e-05
-5.75867e-08
2.78284e-08
1.4578e-06
-1.0432e-07
-2.74661e-08
0.000945919
-1.78745e-08
0.0204922
8.99853e-08
2.69311e-06
-3.15976e-07
0.0445304
1.2428e-07
7.35987e-07
1.40093e-07
6.94718e-08
0.00416799
2.4863e-08
-0.00988366
1.11236e-06
1.26786e-08
-1.19018e-05
0.000559455
0.00036853
2.54399e-06
-5.60511e-08
2.26478e-08
-1.64039e-08
-3.21254e-07
4.63274e-05
-8.18835e-08
0.0213465
-6.92879e-08
7.38739e-08
-0.0146152
7.04879e-07
7.55312e-05
-8.16485e-09
7.55453e-08
-0.0136313
-0.00353401
-6.03333e-07
-0.000978996
1.67606e-07
8.0183e-07
5.90003e-08
1.48714e-08
3.8581e-07
3.40672e-07
-4.1403e-08
1.3828e-07
0.0342622
3.70064e-07
-0.00260133
1.0909e-07
-4.45141e-07
7.78268e-09
2.60574e-06
0.000565693
8.24082e-09
7.31024e-08
-0.000813718
2.467e-05
2.03889e-08
0.00667504
9.14002e-08
-0.000135022
4.23125e-08
-2.12434e-10
4.58802e-08
0.000257127
1.56973e-08
-4.21234e-07
-2.48621e-07
0.00921103
1.07561e-07
3.85387e-07
1.47124e-07
0.000266229
7.97995e-08
4.28918e-08
-1.73173e-08
5.24934e-08
7.53504e-07
9.48457e-08
-1.09006e-06
1.06738e-07
0.00319111
-0.00559124
-0.00675428
-8.06308e-07
5.58579e-07
1.3486e-07
0.00180481
-1.43773e-08
-0.00223003
-0.00756821
-0.00643399
-5.08184e-05
0.000491003
1.85116e-07
-1.08491e-08
0.00193537
0.000139654
-1.78749e-05
1.6376e-06
2.40962e-07
-0.0043056
5.60918e-08
4.16534e-08
1.50799e-07
3.88475e-08
1.04829e-07
0.00234818
3.11305e-07
1.10533e-07
0.0367418
-6.12567e-08
0.00127493
-4.12917e-06
2.70488e-07
1.77992e-05
5.15608e-08
-0.00159546
1.80807e-07
2.63462e-07
-0.000214998
8.83458e-08
4.55035e-08
2.74231e-08
4.17821e-08
1.21056e-07
-0.00238593
0.00141809
-0.000650797
2.09518e-07
-1.31871e-07
9.14229e-08
-0.00443309
6.28281e-09
5.55667e-07
5.13545e-08
6.28249e-09
-0.00181539
3.33175e-05
-0.000145152
-7.69574e-07
2.52138e-07
0.0066145
7.74197e-07
-4.49492e-06
-2.9862e-06
0.00119537
0.0100889
-0.00452434
4.97046e-08
9.85783e-08
2.33367e-07
-0.000396233
1.91814e-08
6.13233e-07
4.94523e-08
2.86522e-08
-7.2708e-07
-2.84939e-07
0.000510056
0.00494007
-2.3052e-08
7.73966e-08
-1.80471e-08
-0.0002685
3.48411e-08
-0.00249541
-7.13778e-07
7.70796e-05
-7.29463e-08
5.17553e-07
8.5491e-09
1.10597e-07
6.15529e-09
9.56708e-08
1.54149e-07
3.54964e-07
7.80796e-06
6.08365e-07
-0.0070226
1.72047e-07
4.15565e-05
4.2956e-05
1.94815e-08
0.00975275
1.27849e-07
-5.12059e-07
-1.38604e-06
-1.19341e-07
-0.00059938
1.51814e-07
-6.74532e-07
2.28054e-07
0.0248536
4.55577e-07
-0.000795963
1.12491e-06
-5.90243e-08
0.000337066
0.00162874
-2.54741e-06
1.07339e-07
1.62603e-06
5.26962e-08
0.000635624
2.62529e-05
0.000224108
-2.91296e-05
2.00815e-07
7.91148e-08
5.02789e-07
6.46623e-07
2.99848e-06
0.000362493
1.13237e-06
2.3812e-08
-1.19833e-07
-2.52163e-08
5.30847e-08
1.0349e-08
-0.00173022
2.91891e-07
-6.93365e-08
-0.00538227
-2.55023e-08
1.33206e-06
1.24399e-06
2.60146e-07
-0.00298304
-5.97161e-07
-3.17798e-07
-5.27233e-07
1.61113e-06
-1.1098e-07
0.0137702
3.81968e-07
2.49285e-06
6.14713e-07
0.0199808
-6.22986e-07
1.05475e-06
-1.00074e-05
2.91463e-07
1.16616e-06
3.15762e-08
1.65474e-06
-4.85614e-07
2.71068e-07
7.24002e-07
1.09315e-07
4.62715e-07
1.06966e-06
7.26348e-08
2.13622e-07
0.000210237
3.31352e-08
-5.46448e-08
1.02789e-07
-2.40456e-08
-0.000146437
3.69507e-06
-1.20676e-06
-5.34268e-05
0.0004228
-3.81917e-09
0.000283359
0.000360503
4.60288e-09
-4.62897e-07
-2.14621e-08
0.00342131
0.000229584
6.73475e-07
1.00077e-07
1.68811e-06
3.7696e-06
0.0524513
-3.92329e-07
0.00388939
3.22952e-06
-0.00648022
-4.35396e-07
2.90906e-07
-5.17001e-07
-0.00354804
-0.000190998
3.67209e-07
0.0504245
0.000459841
-0.00289741
0.000731156
-4.8473e-07
0.000115717
-0.00135892
3.5957e-06
0.0164881
7.18712e-07
0.0362711
-1.11731e-06
-0.00467498
6.68008e-08
-3.09484e-05
1.07031e-07
-7.66959e-06
2.83745e-08
5.84685e-08
6.297e-08
0.00205375
-1.92674e-07
3.42878e-08
-0.0157095
7.38525e-08
8.50725e-07
-2.60764e-07
0.000216208
1.3192e-07
3.41392e-07
-3.73392e-07
-5.74631e-07
-4.49312e-08
6.61756e-07
1.10888e-07
-0.0239935
0.000445924
6.72882e-06
-1.34812e-07
0.00147604
8.60993e-08
1.41167e-06
-0.000534782
3.52825e-06
-5.038e-08
-2.45231e-08
-5.85947e-07
1.82683e-07
0.00112328
5.03968e-06
7.56352e-08
0.0123278
3.85811e-08
6.50282e-08
-0.00255981
-1.95589e-08
2.03925e-07
0.00825768
1.15965e-07
0.00457626
4.03508e-07
7.98253e-06
8.63108e-07
2.64996e-06
-4.62066e-06
-8.4909e-08
0.00492705
0.00613044
7.57063e-08
1.63826e-06
0.00026289
-0.00712999
3.55465e-05
1.2796e-07
2.2649e-07
-2.32624e-05
-5.51172e-08
7.01108e-08
-0.00209313
5.60893e-07
-1.50202e-08
1.07328e-06
0.00900049
-5.24865e-05
-1.44411e-08
-1.96535e-08
9.41457e-08
2.63638e-07
0.000734107
-0.00371641
1.75976e-07
6.55011e-07
0.00580642
4.37017e-07
2.38795e-08
0.0241679
-3.1587e-08
-1.09534e-05
-1.51391e-07
1.40678e-07
2.19398e-07
2.81939e-06
-9.15471e-05
3.44537e-06
4.73631e-07
-0.0019315
0.00268399
0.0240266
6.6791e-07
1.57658e-07
0.0354236
1.23357e-06
0.00348421
9.40947e-07
-2.93514e-08
2.28392e-07
0.025056
0.00018968
6.4853e-07
6.44049e-07
1.39451e-06
-5.19855e-07
1.68893e-06
6.50541e-07
-4.5204e-07
5.74416e-08
1.13992e-06
-3.2442e-07
5.51092e-08
0.0145513
2.59956e-08
1.9191e-07
-4.55901e-06
7.40797e-07
-0.0025971
1.11973e-07
-6.74932e-07
0.025895
-1.82441e-07
-7.50879e-09
1.1315e-06
-0.00457431
1.46709e-07
5.48211e-08
6.97438e-07
0.00136187
9.71867e-08
-3.00959e-07
1.69334e-07
-2.92668e-06
5.80654e-07
0.0398802
5.39984e-07
-0.00101729
3.76906e-08
2.78967e-07
-8.13892e-08
2.95864e-07
-8.02117e-06
-0.00396588
1.28114e-05
-5.70192e-08
1.70741e-07
0.00320654
-5.71464e-05
5.3655e-06
2.71617e-07
-0.00446618
1.53617e-07
4.22063e-06
1.44807e-06
-3.25359e-07
5.01939e-07
8.66701e-08
1.02417e-06
-0.00046222
-0.000744845
-1.07473e-06
-1.21677e-07
7.70145e-07
-2.77387e-05
3.9154e-08
1.42052e-07
1.35165e-06
2.73374e-08
3.49407e-08
-0.000300796
-6.26536e-07
0.0030101
-4.82429e-08
1.84597e-07
1.30569e-07
9.30766e-07
-5.42148e-07
9.00613e-08
0.000197647
4.32587e-08
-4.25235e-07
0.0021783
-4.52924e-07
1.50488e-06
-1.59459e-08
0.00555833
-0.00256633
2.07898e-07
-0.000384264
-8.90321e-07
-3.67161e-08
0.000893476
2.43765e-07
-3.29034e-07
-1.47774e-08
1.01403e-07
2.31082e-08
0.025833
-4.40513e-06
0.00139476
0.00193266
-0.000836787
-3.26082e-05
-0.00269093
5.87374e-07
-0.000101627
3.16444e-08
8.17063e-07
1.9487e-07
1.11713e-07
-2.0068e-07
0.0103529
0.00112597
-6.21308e-08
-0.00529284
1.52094e-07
9.75467e-06
1.59784e-07
6.43418e-07
-1.15888e-06
-3.70938e-05
-0.0059245
1.31325e-07
2.49058e-08
1.52773e-06
2.03143e-06
2.28103e-05
3.79841e-06
-0.00330637
-9.60532e-07
0.00297189
0.00184403
7.09072e-08
6.28717e-08
1.84649e-08
8.09141e-07
1.30956e-07
3.56694e-07
4.77737e-08
-1.40047e-06
-9.04749e-07
-5.35541e-07
-5.84004e-07
-0.00160954
-0.000983872
-9.43305e-09
-0.00901445
5.07804e-07
1.39501e-06
5.34915e-08
0.000198967
9.4459e-08
1.22665e-06
9.75836e-06
3.13874e-08
-3.81615e-07
-0.00255631
2.62651e-07
6.72779e-08
1.10558e-07
-0.000929313
0.00424302
1.30889e-07
0.00377021
1.09122e-07
7.87998e-08
-7.42353e-07
4.57429e-07
-2.2722e-07
1.54759e-07
-5.36159e-07
2.6446e-08
-0.000349578
-4.73066e-08
4.16966e-08
1.18114e-07
-4.57889e-07
8.93641e-08
0.0020049
-2.95832e-09
1.10226e-07
0.00920545
-0.00146927
5.53593e-09
-0.00335319
3.70226e-08
-0.0112357
7.2226e-07
1.30047e-06
4.39138e-08
-0.00712696
0.000113894
0.000485737
7.5552e-08
0.000372143
-0.000372556
-0.00108388
8.69999e-08
-0.000558806
-4.83005e-07
-0.000288332
-0.0006491
2.38042e-06
3.39737e-05
0.000179053
0.00254441
0.0476461
3.10008e-06
-0.000483642
1.40455e-07
1.87871e-07
-0.00077841
5.16801e-07
1.09895e-07
-0.00259942
2.58002e-07
1.20271e-08
3.71665e-07
0.00026448
1.04234e-06
3.31241e-06
0.00141852
1.07535e-06
-0.00153824
3.55531e-07
1.26691e-07
-2.55952e-07
0.00391395
-0.00139939
1.07323e-06
-0.00102942
-2.47634e-07
-9.49191e-07
1.08443e-06
-0.00250418
-2.73146e-07
-7.52386e-08
0.00206507
0.00400212
-2.67761e-07
5.16651e-07
-1.84621e-08
1.05449e-06
5.22346e-05
4.49683e-07
-0.000124532
-0.000264882
9.84415e-08
3.50677e-07
1.19405e-07
0.00171009
1.24852e-07
2.6467e-06
8.33776e-05
1.41678e-07
-1.14159e-08
4.4161e-08
1.13911e-06
6.78088e-08
1.62026e-05
-3.773e-07
1.31943e-05
-1.73963e-06
-1.37446e-07
8.95136e-07
-0.000199145
-5.06351e-07
-5.90229e-07
9.51532e-09
9.36609e-08
0.0308568
-0.000289469
-6.32886e-07
1.74805e-05
-2.91967e-06
-0.00131028
-7.93818e-08
5.4094e-07
5.8593e-06
1.51171e-07
2.53564e-06
0.000330108
-8.55671e-07
-2.01767e-07
-0.00236282
-7.60134e-07
6.54143e-07
0.000458563
3.39345e-06
-0.00069396
1.15742e-07
-5.40413e-09
0.000695763
-1.30275e-09
0.00206722
-0.000772094
6.07753e-06
0.000821796
-1.66591e-07
-9.45097e-07
1.15136e-06
-9.08232e-05
-4.13711e-07
1.51278e-06
5.10181e-08
1.0379e-07
1.21647e-06
3.45629e-07
-3.81468e-07
1.38596e-06
7.14081e-07
4.98649e-07
5.51522e-07
1.35661e-07
1.29718e-07
-0.00317248
9.35955e-07
-0.0008115
-3.44859e-08
8.30976e-07
1.06509e-07
1.22278e-07
-0.0013955
1.58786e-07
-5.53291e-05
-0.00093046
5.11814e-07
-0.000759224
1.07213e-06
-0.00204832
-1.94043e-08
0.0023147
3.03489e-06
-0.000104031
5.81931e-07
1.8021e-07
-1.92535e-08
-0.0130764
6.65112e-07
0.000365873
1.15347e-06
-1.03555e-07
0.00144391
-1.50431e-08
0.00592515
1.2593e-07
-0.00422475
-5.93089e-07
1.04071e-07
5.32381e-08
0.00320315
1.23231e-07
2.75978e-07
3.96674e-08
1.08506e-07
2.04675e-07
1.51949e-06
0.00244227
-7.6323e-07
7.50292e-07
2.50551e-07
1.29401e-07
2.67438e-08
0.00202269
0.0363883
6.5164e-07
-1.28258e-07
3.90015e-08
1.16276e-07
7.67626e-07
6.5018e-07
5.09286e-08
0.00169732
0.0398095
-0.000698498
-5.73649e-07
7.49931e-08
1.11474e-07
5.10006e-07
1.17507e-07
5.08633e-07
1.71442e-07
-6.81091e-08
1.02272e-05
-1.07307e-07
-1.58084e-05
0.00268451
0.00499558
-2.13602e-06
1.37823e-07
-5.17139e-07
0.0333401
5.65433e-07
1.00102e-06
6.25779e-09
1.53654e-07
-8.76628e-08
6.11524e-08
0.00934298
3.661e-07
-0.00100351
0.00260835
1.29608e-06
-2.24133e-08
6.97474e-07
-0.001376
6.41593e-07
1.16859e-06
-5.94496e-08
1.24999e-06
4.72358e-08
6.99194e-07
-0.0352176
0.0006236
3.98029e-07
1.45893e-07
0.0155733
6.13363e-07
1.21821e-06
-7.61323e-08
-0.000768553
2.03907e-08
6.90836e-07
-0.00102356
0.00115222
1.4573e-06
-1.34702e-07
-2.50889e-07
5.17053e-08
2.3061e-07
7.96142e-05
0.000841618
0.00524418
8.80484e-08
0.00686136
1.07446e-07
-0.00560094
-0.000809983
1.00928e-07
0.00165565
0.000378496
-3.916e-08
1.06792e-05
1.08349e-06
-4.96586e-07
0.00122595
1.25317e-07
0.0312716
-3.97263e-06
0.0295962
-4.54586e-07
1.36107e-06
-1.15762e-07
6.56275e-07
5.3392e-07
1.23505e-07
-3.93639e-08
1.32895e-07
-2.25892e-05
2.37833e-07
1.18957e-06
-0.0019872
0.00706627
1.15278e-06
-8.85354e-06
1.77056e-07
0.0495532
4.07449e-08
-0.000614612
7.26029e-05
0.00516375
1.24832e-05
0.00314979
-0.0179034
3.8947e-08
-4.53217e-07
3.34174e-08
2.48179e-06
1.49372e-07
0.00389943
6.10415e-07
0.0277063
8.17919e-07
2.13724e-07
-5.91137e-07
1.90436e-07
2.01059e-08
-0.000648031
0.00141678
0.00255857
4.33504e-07
-5.62286e-08
6.52947e-07
1.2026e-08
1.33431e-06
1.51022e-07
0.000978898
0.0019467
4.21975e-07
-1.65047e-06
-0.00183832
8.11263e-07
-0.000522286
0.00336243
8.5558e-08
0.000793373
1.23527e-07
0.0113769
1.25848e-07
7.71911e-05
1.26038e-08
-0.000389957
2.21535e-05
0.00229348
-0.00020325
0.0214453
1.97995e-06
2.48077e-06
-7.06851e-07
-1.08499e-06
0.004603
-0.00101142
-8.56874e-07
7.74392e-07
0.0388456
0.000203415
-0.00125223
1.32838e-06
0.0178618
-5.84434e-07
1.14759e-06
0.000321537
-8.40602e-07
-5.23289e-07
5.60116e-08
4.2845e-08
1.4743e-07
1.31988e-07
3.29698e-07
6.64238e-05
2.31927e-07
-0.000950129
2.60905e-06
1.6854e-06
-0.000953313
0.000663638
-4.69178e-07
3.08607e-07
-0.000758023
0.000314172
-1.0455e-07
0.00180845
0.0497468
0.000853393
-1.80348e-08
1.08629e-06
7.24991e-07
2.7097e-06
-5.08018e-05
-0.000972066
-0.00141428
1.31823e-06
-3.92207e-07
1.16195e-07
-0.00376323
0.000205533
1.3911e-06
-0.000132386
1.52226e-07
5.89981e-08
4.63545e-07
0.0145476
5.52149e-07
6.46551e-09
1.26883e-07
4.77325e-07
0.0108575
0.000506425
3.1727e-07
1.41147e-06
0.00346949
4.27271e-07
0.000443408
-2.89479e-09
1.04678e-06
1.80816e-07
1.09139e-06
-3.22632e-06
4.1221e-08
4.64085e-07
1.87644e-07
-2.33963e-05
2.56803e-06
1.1209e-06
2.90093e-07
4.75244e-07
3.25913e-07
-0.0010752
1.11899e-06
5.65164e-07
2.89086e-07
-0.000507395
-5.89124e-08
-0.000421516
4.47778e-07
1.02229e-06
1.78912e-07
1.50748e-06
-7.98189e-06
1.26562e-06
4.08472e-05
-2.47655e-07
1.31679e-07
0.00106761
1.15562e-07
-0.00128313
-5.45287e-06
2.27782e-07
4.26684e-07
3.48525e-06
1.47843e-07
0.00786178
1.87214e-07
0.00124565
0.00143259
2.53064e-05
5.05242e-07
1.107e-07
1.42747e-07
-8.11074e-09
7.24799e-07
-1.75636e-08
-5.43715e-07
1.48386e-07
-2.85645e-08
5.99404e-07
-1.73735e-08
7.33309e-07
8.48784e-08
7.88226e-07
1.58661e-07
-0.00200755
2.37149e-07
1.49673e-07
-6.83066e-05
4.21071e-08
-0.0123148
-0.00262453
-3.46202e-07
4.7709e-07
1.31784e-06
-0.000675832
6.20372e-08
-3.54837e-05
1.00502e-06
-7.09253e-07
0.0170796
3.6168e-07
0.0290011
1.75876e-07
-0.000146259
4.2837e-08
0.00567984
0.05431
-0.00187103
2.57429e-07
5.8121e-07
1.15396e-07
4.85737e-07
0.000844726
-2.80193e-07
1.6493e-07
1.42017e-06
1.60308e-07
0.0144562
-0.00116547
2.46416e-07
1.81165e-06
1.22861e-07
7.79164e-07
3.90624e-07
1.44725e-07
2.60368e-07
9.5155e-06
0.0358565
3.21434e-05
5.32005e-07
2.9986e-07
4.422e-07
1.72947e-06
0.0218667
-5.68632e-06
-0.0102645
-9.21345e-05
4.68718e-07
5.87966e-07
1.86476e-06
-1.58528e-09
6.00278e-07
-2.07152e-05
4.43858e-07
-0.000599935
4.27671e-07
0.001506
-7.96084e-07
4.75147e-07
1.25563e-06
4.59112e-07
5.17321e-07
6.51124e-08
9.17709e-07
0.000555793
-5.29739e-07
-1.016e-06
-4.44622e-07
0.00453123
0.000292608
7.01142e-07
-6.05839e-07
2.23578e-08
4.19234e-08
5.24625e-07
9.79025e-05
1.20363e-07
1.20438e-06
1.88013e-07
1.75418e-06
9.04539e-07
-4.5452e-07
0.000141419
2.36771e-07
4.06653e-07
-0.0143585
5.40384e-07
7.13299e-07
0.000424209
3.39925e-07
0.0158244
-2.55297e-08
2.65561e-08
2.63403e-07
-1.05254e-05
1.4039e-07
0.00183787
2.9633e-07
1.61087e-07
-0.0154967
-0.00128161
0.010058
-0.000370026
-0.00243305
8.67044e-07
1.07204e-07
5.00535e-07
-0.00133762
9.44803e-07
-0.0112501
4.19237e-07
9.96373e-07
2.67204e-05
5.05746e-05
4.61877e-08
0.0173417
0.000785685
1.3658e-07
8.49223e-07
2.1036e-07
3.4161e-07
0.0013817
7.68832e-05
1.42673e-07
-8.30094e-08
3.1458e-08
0.00313851
3.29464e-07
0.000477402
1.13138e-06
3.18784e-07
1.29858e-07
1.68916e-07
-0.0269
3.43992e-05
1.18428e-07
-0.0136225
0.000177318
5.02258e-07
0.002599
2.56311e-07
1.26119e-07
1.90185e-08
4.36327e-09
-4.6825e-07
6.36097e-07
7.03461e-08
4.49329e-07
8.98697e-09
1.66913e-06
4.86805e-07
-0.00257696
1.04634e-06
1.43145e-08
-0.0343246
4.30902e-08
-1.33892e-06
-4.16111e-07
1.55052e-07
0.000921474
1.22708e-07
2.60222e-06
0.0282407
3.37536e-08
0.000430017
-0.0013633
1.13143e-08
1.07353e-07
4.20902e-07
-0.0083848
2.05025e-07
-0.000144674
0.00167683
1.52534e-07
8.85509e-07
9.41921e-07
-0.000557997
-2.79083e-08
-0.00175941
3.36166e-07
3.07572e-05
-3.73263e-05
-1.17019e-05
-0.00339138
-2.46479e-07
5.35331e-07
6.30712e-05
1.72999e-06
1.24662e-07
1.28167e-06
4.67429e-07
1.44019e-06
1.35367e-07
8.15262e-08
0.00139157
8.21772e-07
0.000449362
3.05814e-06
-4.62347e-08
-0.000357373
2.10986e-08
7.43716e-06
2.07534e-07
7.68682e-07
4.38883e-06
0.00267324
0.0143875
1.14744e-06
7.13286e-07
0.0108746
-8.27515e-08
1.44303e-07
5.65548e-08
3.33346e-07
-1.31857e-07
6.69048e-07
8.1802e-08
0.0166429
7.14456e-07
1.47677e-08
-3.76261e-07
9.70287e-08
1.8742e-07
0.000294995
3.89859e-07
2.08129e-06
-4.25154e-07
0.011504
-3.84643e-07
1.19364e-07
1.69037e-07
9.65707e-07
5.72333e-07
3.91999e-05
0.000560818
0.00139997
8.13073e-07
2.59875e-07
7.54912e-08
1.49542e-07
-1.82427e-07
0.0012176
-2.88073e-07
4.07713e-07
-0.0100324
1.74109e-08
3.95e-07
0.000468925
-0.0271442
0.0278431
-1.15443e-06
0.00504303
-0.0150147
7.17681e-08
3.59732e-07
-7.31441e-07
0.00743433
9.89949e-07
0.00146399
-1.23085e-06
-6.88689e-08
-2.57678e-08
0.000445162
9.86421e-07
2.67112e-07
-7.61685e-06
1.24122e-07
5.06737e-07
-0.0012576
-0.0160443
1.91399e-08
7.67224e-07
-5.15303e-07
-9.33618e-07
0.010332
1.47522e-07
1.52907e-07
1.52516e-07
0.00034223
1.20141e-07
6.18775e-07
0.0197749
0.000822916
1.71157e-07
-2.14413e-07
1.78574e-07
4.90864e-08
-5.03243e-08
-3.95622e-07
9.66892e-06
3.40315e-07
-6.36655e-07
0.000446871
-0.0103671
1.43412e-07
-2.62956e-07
-8.94652e-08
1.70805e-07
-6.41761e-08
-3.08675e-07
-1.52743e-07
-0.0113186
-0.00398263
-7.86291e-07
3.23019e-08
-3.58762e-07
-5.49618e-07
0.00565439
-1.0254e-06
0.0189991
0.00113395
-3.15975e-05
2.21706e-06
5.93895e-08
3.62321e-07
7.35553e-08
-4.45769e-07
0.00109965
-5.50783e-08
5.7822e-07
-0.014392
0.00702482
0.000171646
-0.00180537
2.50191e-08
0.0019973
1.84631e-07
-3.95539e-07
0.0126014
0.000414508
-1.12162e-07
-1.55992e-08
1.89306e-06
-1.59565e-07
-1.48582e-07
0.000396478
2.41669e-07
4.62356e-08
-0.00792753
5.33201e-07
0.0133859
9.63112e-08
2.55268e-08
-2.93283e-07
-0.0237845
3.07364e-05
0.00433829
8.06774e-07
0.0147285
1.19942e-06
1.35982e-07
0.00739301
9.68119e-08
4.95357e-07
5.85538e-08
2.95488e-07
0.0380024
0.00361807
0.00401315
5.5443e-06
0.000100924
-0.00125828
-0.00973405
-5.9018e-08
-4.14769e-07
-0.0251368
1.40879e-07
1.1122e-07
5.87875e-07
-1.21894e-07
0.0082543
1.72837e-07
0.006462
7.53796e-05
2.52036e-08
0.0176667
-8.56122e-07
1.40732e-07
5.899e-08
4.60672e-07
1.42347e-07
1.27243e-07
1.3001e-07
0.00132345
-3.86002e-07
1.26664e-07
4.48964e-07
1.38919e-06
9.50853e-05
1.2665e-07
-7.7628e-07
-3.61532e-05
0.00375703
6.97135e-08
-4.06646e-08
-3.76587e-08
-1.35823e-07
-8.55932e-08
-3.91358e-08
0.00524936
2.89108e-05
-3.2281e-08
3.91022e-07
1.55232e-07
-7.83467e-07
0.00344394
-3.51704e-07
0.00236344
-0.00509318
1.73779e-07
-3.9648e-07
0.000838134
0.000723258
1.24755e-06
-1.41937e-09
-3.71684e-08
0.00273239
-3.27788e-05
0.00656171
8.82285e-07
0.00150661
-2.039e-06
0.00738378
0.000223337
0.00539224
7.34836e-05
0.024169
-0.000702402
0.000842353
-4.19182e-08
0.000137624
6.86554e-08
-0.00765102
4.57315e-07
4.55171e-07
7.40331e-08
-0.00113697
-0.0012871
-3.23472e-08
-3.11413e-07
0.00106164
-0.00109149
-0.0013965
1.03742e-07
-3.81157e-07
-4.74799e-08
8.15971e-07
-8.85023e-07
1.2903e-06
0.0145996
0.00194694
7.77118e-07
8.08421e-08
8.96121e-07
1.562e-07
3.05546e-08
6.51963e-05
2.87603e-07
6.53177e-07
-3.71052e-07
0.000475543
1.27093e-06
-0.00108975
2.17343e-07
0.000707579
-0.0147536
1.00052e-06
0.00040685
0.0421929
-0.0167295
-0.00143258
7.70503e-08
-6.00585e-09
1.09702e-06
3.60143e-08
-4.93889e-07
3.1819e-07
-3.12339e-07
-8.48704e-07
9.05413e-07
1.27317e-07
0.00184306
-3.25044e-07
-0.000203981
-8.22738e-07
-0.00865974
-0.00118229
1.83251e-06
-4.00418e-05
0.0273318
-2.0587e-05
-0.0152566
0.0339658
2.3574e-07
2.02298e-07
-1.18989e-05
-9.97986e-07
0.00798425
1.37083e-07
8.58719e-07
0.0110223
1.25038e-07
-2.93502e-08
-7.33285e-07
9.5069e-07
-0.00235775
-1.87467e-08
1.09494e-06
2.3575e-08
0.00904648
8.5984e-08
0.0153132
0.000851318
0.00164799
0.0205129
4.78962e-08
5.03067e-08
-3.96076e-07
-7.34743e-08
0.000372566
0.000254983
1.42007e-05
0.000776057
-2.63101e-07
-1.90839e-07
7.47352e-07
3.55585e-09
0.000926148
1.33276e-07
1.02718e-06
0.00320623
0.00107654
1.33248e-06
6.47291e-08
-5.13922e-07
0.0252318
1.85057e-06
-9.30751e-06
-0.000754459
0.00173675
0.0192795
1.1177e-07
-2.68653e-07
1.23581e-07
-6.17984e-07
0.000610976
1.21463e-07
6.37502e-05
1.45891e-07
-3.78876e-07
9.35358e-05
-5.65215e-08
-3.36207e-05
1.29043e-07
-3.51193e-07
8.8336e-08
-0.00273147
7.48316e-08
-1.73181e-07
-0.00184857
-1.56722e-07
-1.23956e-07
1.37116e-06
0.049605
7.39661e-07
2.69814e-06
1.5485e-07
0.00253974
-0.00502553
-2.77326e-06
-2.60599e-07
6.05328e-08
-2.36828e-07
-3.13639e-07
0.00539534
0.00200767
0.0014049
0.0124627
-2.9591e-09
-5.60188e-05
1.23795e-07
-0.0014222
-9.52248e-08
-0.00477402
-0.00122568
-1.45516e-07
4.90545e-05
1.25416e-07
0.00251716
1.22166e-06
1.30372e-07
1.78318e-05
-1.21785e-07
1.35796e-07
3.29838e-07
-6.27762e-10
-3.95359e-06
0.0149065
-3.32638e-07
3.49266e-09
1.88596e-06
9.64845e-09
-7.05625e-07
3.41381e-07
1.9741e-07
3.67124e-08
0.00108997
4.61407e-08
-1.57406e-07
4.3627e-07
4.05692e-07
-9.73733e-08
0.019952
0.00482633
-1.0868e-07
1.48379e-07
8.48576e-07
4.13611e-05
1.51595e-08
-3.44725e-07
4.39286e-07
3.24827e-06
-2.0357e-07
6.25731e-07
-0.00133869
-3.60525e-07
0.000359916
8.70161e-08
9.34512e-08
8.44817e-08
1.47601e-07
-4.45791e-09
-7.15134e-08
0.0282499
0.00197585
1.91397e-08
6.15976e-07
5.55856e-07
-0.0023503
-2.35984e-07
-1.2904e-07
-5.99046e-08
3.68909e-07
-4.83055e-05
-1.14721e-06
0.00222225
1.00768e-05
9.77162e-08
1.3634e-07
0.00581931
2.41436e-07
0.0168238
0.000165725
6.81721e-08
0.00118343
0.00821169
-0.00139538
4.98607e-05
0.000129442
-2.61865e-07
1.04909e-07
0.00206865
-2.76205e-07
-7.13733e-07
4.33357e-06
-2.65532e-07
1.68253e-07
-0.0348623
9.50189e-08
1.93553e-06
0.00101825
2.74825e-07
-1.61182e-07
0.00982705
2.21941e-07
9.49844e-06
1.04774e-07
0.000196511
-0.00601172
0.000272195
2.24753e-07
1.13833e-07
2.97436e-07
0.00242285
-0.0107003
0.000594461
-0.00846263
1.7934e-06
-4.57439e-08
2.8776e-05
-0.000152322
1.85252e-07
8.40199e-07
6.20048e-08
7.49395e-08
0.020591
2.7884e-05
-7.8442e-08
-0.0011158
9.64426e-08
-1.05386e-07
8.85337e-08
-4.75091e-08
8.1958e-08
-0.0204483
1.08452e-07
0.000793891
1.10506e-07
3.5526e-07
-4.9992e-07
-6.11062e-07
1.51623e-07
-3.40713e-08
1.52212e-06
-1.56509e-09
0.000160184
0.000492949
2.94598e-06
1.93829e-07
3.39633e-06
-7.50189e-07
4.08335e-07
1.87678e-08
1.10869e-07
-6.01758e-09
0.000862037
-0.00113347
1.19465e-07
4.71826e-07
-0.00858699
-2.09186e-07
0.001027
-9.09457e-07
7.15442e-08
-3.65813e-07
2.52899e-06
0.000263618
0.0143323
0.00869082
-5.67975e-08
-1.42196e-06
2.63814e-06
4.03476e-07
9.95716e-08
8.38993e-08
1.00605e-06
1.04162e-06
-0.00200482
0.00468872
1.09358e-06
1.32095e-07
1.43134e-08
1.99775e-07
3.9935e-06
-5.21905e-07
0.000109362
2.87591e-07
-0.00173011
1.02332e-06
2.44416e-07
-2.83808e-08
-2.8623e-05
-8.56896e-07
0.0143303
5.53275e-08
-2.75282e-08
-8.93063e-08
-5.82726e-08
-0.00275452
2.62642e-07
-4.77598e-07
-1.00721e-06
-2.08627e-07
0.0152364
-0.0131403
1.11649e-06
1.48065e-07
-3.96055e-07
-0.00299902
-0.000822325
6.80647e-08
1.13469e-07
-0.0067565
8.3057e-08
-6.49957e-08
3.63343e-05
7.50912e-08
-3.84548e-06
-0.00130971
0.00026546
1.15848e-06
1.98544e-07
1.03044e-07
9.91844e-07
6.86716e-08
1.59524e-07
-0.0109845
0.00655141
-1.82596e-06
2.96805e-07
1.49755e-07
3.30984e-07
0.00871854
2.75794e-07
3.47553e-07
6.39784e-08
1.06825e-07
8.69871e-08
-4.23774e-05
-2.88541e-08
1.14807e-07
-1.23229e-06
2.50776e-07
7.76524e-08
1.97691e-07
0.000499061
1.54701e-05
1.47529e-07
3.685e-07
9.96045e-08
2.31993e-07
0.000914825
1.5391e-07
0.000514592
-0.00120729
5.43292e-08
-1.56539e-08
0.00559066
5.04633e-08
-1.81785e-07
1.29549e-07
0.000497147
6.19565e-08
-6.42617e-06
1.43078e-07
-1.36623e-07
-8.29135e-08
0.00123837
2.02592e-07
-2.27349e-07
1.17572e-06
0.00117445
-1.71327e-05
3.00098e-08
-0.000944785
2.67632e-08
-0.000865798
1.5058e-07
-3.37044e-07
-2.56095e-08