/*--------------------------------*- C++ -*----------------------------------*\
| =========                 |                                                 |
| \\      /  F ield         | OpenFOAM: The Open Source CFD Toolbox           |
|  \\    /   O peration     | Version:  v2012                                 |
|   \\  /    A nd           | Website:  www.openfoam.com                      |
|    \\/     M anipulation  |                                                 |
\*---------------------------------------------------------------------------*/
FoamFile
{
    version     2.0;
    format      ascii;
    class       volScalarField;
    location    "400";
    object      omega;
}
// * * * * * * * * * * * * * * * * * * * * * * * * * * * * * * * * * * * * * //

dimensions      [0 0 -1 0 0 0 0];


internalField   nonuniform List<scalar> 
18758
(
0.0253823
0.153635
0.0216134
0.0252878
0.0252351
0.0204659
0.0212828
0.0225939
0.0247882
0.0245084
0.0858605
0.527206
0.472405
0.0225134
0.0212633
0.0211436
0.51728
0.0195399
0.0212543
0.0235936
0.323633
0.747156
0.0205823
0.0205146
1.66581
0.279844
0.302978
0.107581
0.0766201
0.263073
0.934076
0.415558
0.0224934
3.65787
0.0256346
0.226475
0.406722
0.0252397
0.471383
0.0198968
0.391657
0.0254205
0.383065
0.0214553
0.0214211
1.08372
0.0247565
0.0772001
2.30186
0.0247034
0.0865108
2.74823
0.0246643
0.0238062
0.136568
0.261435
0.0205425
0.0234177
0.0696357
0.0205006
0.0216338
0.0213771
0.537123
1.94625
0.0216539
4.4062
0.0214693
0.0198572
0.106501
0.0195578
2.70993
0.373381
0.021217
0.0254493
0.0650826
0.791158
1.5449
0.470696
0.0249554
0.382627
0.0844225
0.611786
0.473964
0.038323
0.0221412
0.113567
0.0247245
0.0259417
0.543295
0.112049
2.94855
0.0223595
0.0639867
2.35973
0.0212066
0.0207444
0.0196755
0.0524284
0.488891
0.0210947
1.02261
0.0273931
0.0198503
0.0207409
4.36619
0.398589
0.0772864
3.01283
1.07609
0.0703891
0.021168
1.93263
0.0255244
0.0213548
0.0274306
0.225984
0.0508387
0.0203584
0.262694
0.0226581
0.0212624
1.53064
0.0222275
0.0204793
2.86646
0.0238878
0.0211151
0.0204807
0.127857
3.33579
0.0710365
0.0222931
0.0265295
3.8432
0.0199227
0.021356
1.53049
0.0221235
0.13632
0.0827555
0.026772
0.420493
0.0427309
1.33433
2.99534
0.047496
4.35586
0.114247
0.102944
0.365701
3.4758
2.54801
0.0215806
0.0257013
0.397196
0.493222
0.0635331
0.131645
0.0402769
0.127586
2.37783
0.0205788
2.32874
4.30264
1.26037
0.0205918
0.0205702
2.17387
3.36598
0.53433
2.15917
0.0217392
0.0845103
0.272455
0.695694
0.021062
0.0212053
0.227823
3.00044
0.0219824
0.0197846
0.0238709
0.132564
0.0224257
0.471668
0.0213563
0.296582
0.030993
2.52743
1.50611
2.45342
0.0213467
0.0675085
1.63211
0.0196887
0.0223382
0.155746
0.0215701
2.65926
0.0207075
0.0218104
0.145986
1.05192
0.0211413
0.0211708
2.42031
0.0209458
0.0262022
3.46687
3.06668
0.0211753
0.0654782
0.0220474
0.0221689
0.0229634
0.0196934
0.0214108
0.0644043
0.0201516
0.348789
1.64956
0.0208825
0.0416496
0.147116
1.26848
0.293524
0.0699215
0.109816
2.39362
0.0209245
0.272166
0.0472325
0.454071
0.0215704
0.0209848
0.0209536
0.0795159
2.17172
0.177636
0.0218586
0.0211804
0.0719903
0.117433
0.0213931
0.392842
0.199412
0.0209961
0.020627
0.0210382
0.0210943
2.12223
0.0213076
0.270675
0.0210464
0.02099
0.208141
0.0205668
0.515355
0.0212623
1.0875
0.0257702
0.0205001
0.0210076
0.0644919
1.51961
1.27087
0.0205096
0.129643
0.0215955
0.0213869
0.279649
2.93664
0.0213596
0.0208556
0.0216333
0.0228168
0.0254854
0.0200303
0.0223471
0.0225026
0.0206271
0.0223182
0.0212145
4.22751
0.0212734
0.0208414
0.0195288
0.113056
0.020723
0.0207284
0.0215735
0.0220418
0.0205165
0.0208718
0.0212646
0.0219113
0.301681
0.0228725
0.0207003
3.01677
0.023753
0.0208854
0.0209036
0.213919
0.156418
0.0197792
0.0300254
0.476895
0.0215144
0.246352
0.0212177
0.844787
0.146697
0.0843861
0.0755568
3.62481
0.0198278
0.290608
0.164582
0.0214769
0.0804406
0.0382243
0.358095
0.0209664
0.0198343
3.20436
0.270078
0.0207293
2.55569
0.0597551
0.0295025
3.71316
0.020961
0.0206273
0.0212466
0.0213369
0.0219911
0.0227104
0.0226421
0.0209941
0.0219334
0.0218558
2.19107
0.213856
0.0219898
0.272288
0.459784
0.0207168
0.0317556
0.225522
1.50261
0.426893
0.156959
0.0213569
2.29717
0.997037
0.0326785
0.0218515
0.0293232
0.022231
0.0213251
0.16697
1.61894
0.427847
0.0947882
1.58913
0.0209951
0.0251959
0.0241579
0.0528843
2.19951
0.211131
0.260061
0.147201
0.385824
0.168025
0.021069
4.38313
0.119891
0.0612972
0.432781
0.0210386
0.0204786
0.908309
0.435544
0.438854
0.309594
2.7092
0.0218901
0.536765
0.0416852
0.0211535
0.0224205
0.022891
0.0223961
0.0212618
0.0223405
0.0214184
0.0227523
0.0213898
0.0211709
0.0288193
0.785557
0.0273765
1.154
1.16732
3.31958
0.830226
0.113433
0.0215386
0.0205697
0.38797
0.0224115
0.0218832
1.50625
0.0514532
0.0654869
0.0205962
2.18847
0.0213681
0.0238407
0.0197422
3.04461
1.04201
0.432561
0.0212376
3.67742
0.0623357
0.0213823
0.0222176
0.0212102
0.18702
0.0212617
0.0208393
1.2056
0.0276803
0.0219072
0.0211945
0.0225076
0.0237777
1.88206
0.0729348
0.0216339
4.4171
0.0197353
0.0233261
0.10556
0.0214046
1.0495
0.021671
0.0239373
0.0215528
0.192967
0.0227298
0.0214125
2.15925
0.113432
0.0195322
0.0251983
0.0230066
0.0211435
0.0210443
0.0220993
1.63281
2.43076
0.0216524
0.0334984
1.57214
0.220165
0.373164
0.198009
0.361689
0.020291
0.106814
0.0646568
0.0275058
0.0224497
0.355717
0.0911238
0.0262788
0.0206432
0.0212809
0.0207253
0.0214031
0.0207191
0.0214212
0.652709
0.0217864
0.0196986
0.0608499
0.0221898
0.021587
0.019888
0.0228171
0.10262
0.248463
0.0209702
0.0738734
0.0207311
0.0275355
0.126809
2.21328
0.181707
0.0212579
0.0213679
2.36349
3.78151
0.0394076
0.0205631
0.0914118
4.28297
0.0195247
0.020586
2.00453
0.023005
0.0859531
0.0374693
0.0225758
0.0334042
0.0206326
0.0210196
0.0222675
0.0209079
0.0208964
0.0216335
0.393935
0.0197892
0.113004
1.57902
0.0195298
0.0197889
0.0219786
0.0252721
0.0271473
0.0769246
0.0211038
1.55176
0.0274028
0.0274721
0.020753
0.0210022
0.0211742
0.0216689
0.0216576
2.66258
0.50133
0.0206237
0.0208786
0.0219957
2.45443
0.0197522
0.0197124
0.0214366
0.0197094
0.0208093
0.0207301
0.0224926
0.0211401
0.0724397
0.0211018
0.0199994
0.100299
2.17346
0.025037
0.0211653
0.0210851
0.0217073
0.0211899
0.0223716
0.0545982
0.27161
0.0220133
0.354006
0.0210727
0.0326429
0.0212122
0.0207233
0.0481447
0.0195631
0.0209671
0.324555
0.0215404
0.0223903
0.0836036
0.0210624
0.0213101
2.82939
0.0203397
0.731118
0.0985733
0.0209517
0.0215883
0.03605
0.0228231
0.0272307
0.0210467
1.04029
0.278714
0.348112
0.0206525
3.12334
0.0196829
0.0211919
0.021118
0.02456
1.40175
0.121323
0.0212995
0.0223536
0.0225119
2.28748
0.0854227
0.021056
0.0319669
0.0238498
2.143
0.0263952
0.0339922
0.0207494
0.0247663
0.0517384
0.0209595
0.0207515
0.0197577
0.0206837
0.0253297
0.0641347
0.246057
0.356881
0.0325853
0.0233431
0.0211213
0.0205822
0.26611
1.3974
0.0199288
0.042147
2.68237
2.70491
0.0213814
0.0212258
0.0403335
0.37721
0.0196705
0.25886
0.0211898
0.0225689
0.0289479
0.0214594
0.0216652
0.0217124
0.0206657
0.0220312
0.0679114
0.0477961
0.438683
0.0220918
0.0208246
0.249029
0.0197325
0.295942
0.389729
0.0212015
1.53483
0.0226866
0.0212585
1.54293
0.268811
0.270391
1.6432
0.0226868
0.441189
0.0198006
4.34381
3.30822
0.0312988
0.0211392
0.529006
0.0236808
0.0486053
0.112313
1.51002
0.0215471
0.471099
0.0207712
0.0438762
0.0831513
0.0207594
0.028886
1.53878
0.709395
0.0250271
0.0225976
0.0196998
0.0218509
0.022389
0.0305572
0.0820292
0.0208716
0.238538
0.0231834
0.0213685
0.0255054
0.0197494
0.0885071
0.0212011
0.0206878
0.428722
0.0206076
0.0224603
0.420009
0.0632692
0.0652099
0.0213884
0.0213584
0.0497825
0.0213489
0.382289
0.0236014
0.0231532
0.022192
0.0213396
0.0196845
2.24277
0.019749
2.13956
0.162568
0.0220345
2.99439
0.0205267
0.027525
0.0248044
2.01632
0.0234734
0.0467436
0.39694
0.021218
0.420661
0.0202924
0.106688
0.0213705
0.0217432
3.50116
0.424898
0.0211826
0.0215449
0.0225516
0.0205433
0.0213821
0.366431
2.43379
0.020791
0.020532
0.0203037
1.86695
0.116306
0.108854
0.0206559
0.034278
0.0217369
0.0213811
0.0278299
0.495334
0.0210592
0.0432869
0.0882916
0.0211206
0.115236
0.0213855
0.0263658
0.0210592
0.0203933
0.0252661
0.0214003
0.0534593
0.0213901
3.98312
0.021495
0.0237311
0.0744806
0.62309
0.0426916
0.0206994
0.0213292
0.396763
0.0378432
0.0448782
0.0208253
0.0210835
0.0254506
2.1294
0.427477
0.0207398
0.0211686
0.0219469
0.0215169
0.021936
0.0211738
0.0211332
0.360144
0.0211938
0.021317
0.398021
0.0206411
0.216174
0.0863235
2.29048
0.339131
0.438135
2.35123
0.0211826
0.0210953
0.0229235
0.020767
0.0210616
0.0205597
0.0207327
0.0218182
1.95698
0.12637
0.0855058
0.0217984
0.0210571
0.0278733
0.028448
0.0564071
0.0213935
0.0221918
0.0203702
2.4489
1.33364
0.289851
0.0215648
0.0842892
0.117306
0.13876
2.10083
1.00525
0.0222999
0.0230598
0.0200432
3.04423
0.0215233
0.0198708
0.070885
1.13613
0.0211631
0.282937
0.0658596
0.0212273
0.0211337
0.0212419
0.0211902
0.0212706
0.0227106
0.0283888
0.0212548
0.0215355
0.389077
2.33542
0.0212435
0.338444
0.228209
0.0220596
0.0214004
0.0208253
0.0202578
0.0227197
0.0220438
0.0211222
0.0216655
0.0225402
0.0215249
3.36327
0.0256558
0.0209606
0.0212028
0.405344
0.021559
0.0198601
1.95617
0.0210746
0.0321648
0.025279
0.0213267
0.0208015
0.0205149
0.0238514
0.0382483
0.0211179
0.435284
0.058907
0.103495
0.977653
0.0218974
0.132765
0.0198
0.0860787
0.0220614
0.0211151
0.143057
0.220619
0.0216548
0.142331
0.305404
0.0204111
0.0281807
0.0198607
0.0219212
0.025697
0.0222106
0.0210929
0.080295
0.0210279
0.0208491
0.490541
0.020809
0.0210588
0.0208005
3.30012
0.0212364
0.0213238
0.0280251
1.62302
0.454942
0.196053
0.407935
0.021034
0.0197269
0.0213359
1.7951
0.0217995
0.0209192
0.022957
0.0203305
0.101681
0.0215528
0.0215093
0.771546
0.0211429
0.0622642
0.925783
0.0197241
0.0212474
1.21602
0.0227672
3.40879
0.307177
0.02058
0.0214036
0.724771
0.0206779
0.0230205
0.432768
0.0200936
0.592505
0.0212286
0.0211622
0.0212611
0.028457
0.0222802
0.478735
0.0224533
0.0209785
0.480707
0.39604
0.0388911
0.0257893
0.0769753
2.09768
1.64021
0.0196736
2.09785
0.0215057
2.12167
0.438772
0.0208124
0.0238369
0.0215706
0.385713
0.0207675
1.90476
0.0208074
1.28678
0.123844
0.0206356
0.0196903
0.0211908
0.152092
0.102903
0.0211896
0.867377
0.0215098
0.0210583
0.595507
0.0212831
0.258936
0.0208125
0.0231005
0.0209507
0.0208149
0.0209883
0.0207708
0.0778593
0.0265104
0.0287974
0.0306306
0.0217206
0.0212273
0.518034
0.0212552
0.497664
0.0215388
0.495739
0.0253344
0.189961
0.0205326
0.0207097
0.021033
3.26425
0.0210186
0.391078
0.0508914
0.0213934
0.0252186
0.0212512
0.0206216
0.0230539
0.0208388
0.516124
0.021199
0.0224041
0.0211957
0.0225837
2.12517
0.885488
0.0213518
0.0208132
0.0214782
0.0216558
0.0211146
0.0229895
0.0218228
0.0211817
0.0203095
0.0204741
0.180031
0.0844876
0.0213498
0.0203192
1.06391
0.0221342
0.321562
1.65261
0.0217608
2.51772
0.0222531
0.02054
0.020952
0.0228716
0.0353212
0.0203889
0.0313765
0.445822
0.0338321
1.14546
4.7334
2.82813
0.0280453
0.0215095
0.0214186
0.512497
0.0203116
0.0213922
0.0285485
0.108901
0.0210495
0.0206677
2.41268
0.0233457
0.0221826
0.0219895
0.0231634
0.0330108
0.0214108
0.0236218
0.0212074
0.0288033
0.0224377
0.0216753
0.0216294
0.30409
0.0217074
0.0212369
0.456789
0.0196897
0.0209704
0.0212991
0.0220839
0.0216641
0.61919
0.110805
0.526589
0.369505
1.91261
0.271539
0.0219124
1.95073
0.450487
0.0213474
0.0219785
0.021535
0.0214202
0.0221423
0.0220522
0.078426
0.109186
0.021374
0.0202582
0.0365674
0.0224408
0.277713
0.0209771
0.0218806
0.0210697
0.189626
0.500782
0.0282493
3.89844
0.0211103
0.0210805
0.0740448
0.0254378
0.0210649
0.105277
0.0217292
0.0239487
0.384185
0.0833409
0.0285243
0.0214681
0.0216328
0.0217673
0.0206468
0.444756
0.0739743
3.20675
0.0572574
0.408819
0.0216889
2.24655
2.8741
4.70635
0.107797
0.339095
0.0248292
0.233097
0.105625
0.0300829
0.0195409
0.021166
0.021376
0.0350066
0.0208122
0.0212224
0.0400392
2.13041
0.33878
0.357493
0.0789143
0.59257
0.0262742
0.0230055
0.0212464
2.30021
0.182507
0.0205672
0.0284384
1.10523
2.20481
2.76363
0.0322582
0.0491366
0.0197367
3.37512
0.0217024
0.444228
0.0681294
0.0279504
0.125532
0.109631
0.0213933
0.0212281
0.328315
0.0517129
0.179058
0.021692
0.021213
0.0232321
0.444384
0.0238878
0.328229
0.021741
0.323423
0.232649
0.0241539
0.0832226
0.0678654
2.90499
0.0197359
0.0316018
2.75982
0.026866
0.0211583
0.0657508
0.258692
0.0211355
0.0212523
0.187126
0.0221769
0.0220947
0.481879
0.331718
0.0214581
0.0278816
0.806872
0.0287776
0.0227396
0.0226473
0.372801
0.0241132
0.0207442
0.0209896
0.0875555
0.0207694
0.325891
0.0204413
0.0206664
0.339315
0.0215747
0.0211133
0.04405
0.0196842
0.0230397
0.0204833
0.0210771
0.0214906
0.0823101
0.0213285
0.329061
0.13825
0.601576
4.10619
0.0235517
0.0205692
0.0207727
2.77424
0.0251241
0.0211791
0.336096
0.0303654
0.35048
0.0201097
0.0204292
0.0205804
0.0208174
0.0212156
0.0198992
0.0219796
0.0222327
0.0212945
0.114424
0.0262305
0.318666
0.0220008
0.0204867
0.0247345
4.41294
2.95448
0.479394
3.87897
0.392394
0.102351
2.92311
0.0222412
0.0331243
0.0432195
2.28929
0.0209761
0.655149
0.0639462
0.160937
0.0211844
0.415407
0.0210537
0.0212401
0.021028
0.0291682
1.89623
0.27674
0.0215394
0.0195782
0.0204425
0.0201478
0.0274718
0.0213394
2.91786
0.0627024
0.0306943
0.0217646
0.0211447
0.0198645
2.26091
0.22337
0.0211057
0.0209711
0.115652
0.0201345
0.0213368
0.0203125
0.0211868
0.0214756
0.0213261
0.0205032
0.0608529
0.0228815
0.182984
0.0239103
0.0216145
0.242789
0.0215299
3.11139
0.0216221
0.0487129
0.0922572
0.384993
0.0320427
0.0901648
2.78825
0.022518
0.0293489
0.0222977
0.021171
0.0204926
0.0209385
0.0690313
0.0347795
0.0236066
0.0661204
0.0204735
0.0214025
0.0341795
0.0749922
0.0196697
0.0413701
0.245702
0.109132
0.131653
0.0218383
0.0214962
2.90786
0.0266123
0.0208548
0.0211272
0.117358
0.0205516
0.0206448
0.461401
0.0581229
0.0222851
0.021978
0.0215888
2.97936
0.0235127
3.28837
1.86288
0.0212238
0.0210126
0.825085
0.0307333
0.0233778
0.0221859
0.0242237
0.0247844
0.0208248
0.0234014
0.161424
0.0375894
3.47566
0.368746
0.0333779
0.412355
0.827078
0.0206775
0.438976
1.87619
0.0225031
4.72867
0.0215125
0.179589
0.080143
0.391675
0.0239251
0.101301
0.0275278
0.334399
0.0210549
0.0198701
4.2813
0.0228624
0.0211431
0.021181
0.0216219
0.019849
0.0218768
0.0209871
0.0211731
4.10683
1.47652
0.0210888
0.0216807
0.489146
0.44233
0.0197115
0.187027
0.153324
0.0444028
0.0213693
0.0209763
2.2925
0.0216473
0.0523573
0.0878487
0.0206509
0.023123
3.91192
0.0208949
0.452142
1.5594
2.77417
0.0218314
0.0209075
0.0212905
0.0211772
0.0211937
0.325728
0.310609
0.0203355
0.27439
2.15616
0.0219264
0.0215162
0.0211964
0.457013
2.59779
0.0485054
0.0323736
0.0228744
3.83373
0.343879
0.0205212
0.0210683
0.0254975
0.0335703
1.88835
0.337771
0.0207059
0.0902989
0.345021
0.0232316
0.0208662
0.0215352
0.0231732
0.0210174
0.0219203
0.0206327
0.0470457
0.375494
0.0213415
0.0215089
0.0310505
0.0206626
0.0210802
0.0216406
0.328923
0.0205959
0.0224217
2.23084
0.164128
0.0690346
0.0800563
0.0217635
0.0215954
0.0219782
0.0204159
0.0210713
0.0218961
0.420217
0.0261377
0.0220992
0.0321408
0.0203528
0.121073
0.309183
0.0212046
0.346835
0.0207644
0.0224752
0.170361
0.744449
0.0235156
0.0231852
0.0233942
0.0404079
0.0197208
0.407969
4.16451
0.0206248
0.0788556
0.491336
0.0213436
0.0222534
0.343685
0.0704963
0.0215458
0.432107
0.0239715
0.0211809
0.625731
0.377068
0.0609504
0.0207666
1.54766
0.030448
0.0198411
0.0479211
0.028142
0.0215762
0.0431357
0.920558
0.44608
0.0355931
0.0538708
0.0206098
3.37781
0.320376
0.18172
0.232527
0.0213447
0.816079
0.0213448
0.021023
0.0448755
0.0219431
0.036484
0.318485
0.0215723
3.83335
1.36205
2.64805
0.0271718
0.0664757
0.0196732
0.0216485
0.02302
0.019648
0.16787
1.21588
4.05198
0.352929
0.12113
0.446055
0.740532
0.0211912
0.0223752
1.87395
0.0597854
0.0213463
0.0211334
0.665054
0.038967
0.0255978
0.0212364
0.0214703
0.0739821
0.021138
0.0837699
0.315731
0.0198374
3.34555
0.0202303
2.28162
0.211979
1.44673
0.0222222
0.17129
0.0215171
0.0210748
0.0221252
2.40446
0.0341238
0.381911
0.0214738
0.0211297
0.13826
3.3519
0.0215657
0.121868
0.22752
4.25023
1.17148
0.0208619
0.0213663
0.448858
0.019664
0.0202998
0.0237247
0.0212148
0.0214741
0.0208311
0.0211228
0.0237073
0.0211672
0.0280911
0.0270263
0.0209656
2.24296
2.28841
0.0242012
0.0202742
0.0212836
0.0399146
0.0213461
0.0212404
0.0213427
0.101197
0.0211372
0.022598
0.0227779
0.0344305
0.420399
0.0209146
0.0591657
0.0698794
0.0254303
0.0630308
0.0379
0.0207327
0.0211931
0.0319939
0.0292477
0.022971
0.755615
1.56483
0.0212891
1.11871
0.0219589
0.0686926
0.770327
0.817133
2.36887
0.0227579
0.0210705
0.741407
0.0227067
0.223203
0.0315706
0.11876
2.20664
0.0206783
0.0398224
0.021066
0.0346477
0.0873394
2.79717
0.0210001
0.0213426
0.093698
0.0216471
0.869495
0.0206279
0.445217
1.31008
0.0436064
1.72164
2.41279
0.0207781
0.020901
0.0213362
0.45051
0.184656
0.0217351
0.0225522
0.0217638
0.0202838
0.0269891
0.0208006
0.0203969
0.222602
0.0216952
0.0203672
0.0235149
0.616771
1.24372
2.63393
0.0215201
0.0555317
0.0226469
0.024836
0.111902
0.746588
2.40583
0.0203211
0.0376624
0.0197086
0.0344029
0.0344193
0.054691
0.092241
0.0217406
0.0863362
0.0202826
0.325225
0.385033
0.020397
0.0222774
0.0220737
0.022112
3.23927
0.0213234
0.0213546
0.0219405
0.0216553
0.0204606
0.0223075
0.0212938
0.0216849
0.0213425
0.0211049
0.203293
0.448661
2.40888
0.020067
0.0197187
0.0197777
0.0201283
0.0198913
0.0326657
0.0198303
0.0206103
0.0212465
0.0208535
0.0284313
0.0212535
1.45312
2.22368
0.039176
1.86697
0.0215153
0.397724
0.0597596
0.228272
0.0205487
0.7728
0.0220351
0.0213418
0.0213613
0.0593094
0.0999041
0.0209143
0.0288796
0.0271984
0.0211687
0.0634672
0.434599
0.028799
0.0208984
0.0228136
0.434932
0.0233697
1.17624
0.0209211
0.0220579
0.0213444
0.0224522
0.0284521
0.339537
0.0302255
0.0203681
1.80889
0.030219
0.0389796
0.0210552
0.0238885
4.48192
0.0206704
0.0217341
0.0266419
0.148725
0.0198213
0.0210225
0.0204591
0.0296621
0.0214133
0.329375
0.0213627
0.0249035
0.0273917
4.05163
0.0206381
0.0204184
0.0197193
0.0294837
0.0202677
0.50901
0.481357
0.0288655
0.445926
0.0212737
1.49921
0.0213922
0.0205815
0.0486299
0.0530316
0.16846
0.336637
0.259969
0.235056
0.0262875
0.0339953
0.0221513
0.360491
0.0213547
0.0217953
0.313577
0.0216441
0.452624
0.2231
0.19873
0.421746
0.336186
0.786703
0.536668
0.0817316
0.0219369
0.0314037
0.021347
0.020381
0.0210328
3.37911
2.20342
0.364252
0.0243416
0.0233748
0.444531
0.0209319
0.0284804
0.0204169
0.0350932
0.0211993
0.0199115
0.021898
0.040796
0.986181
0.0284566
0.0272885
0.0204316
0.0267052
0.712718
0.02028
0.0558573
2.33614
0.0196583
0.0594203
0.0205681
2.45717
0.0214942
3.59537
0.0218129
0.0214883
0.0246755
0.0448649
2.12606
0.0289405
0.349163
0.0225159
0.0213411
0.0213594
0.0215117
0.0203572
0.0213003
2.17384
3.60053
0.0279905
0.0210588
0.0248717
0.0229592
0.021562
0.0214661
0.0894085
0.328021
0.38074
0.0212181
0.436409
0.0205577
0.0651209
0.0224817
0.0400501
0.233112
0.444838
0.346978
0.019937
0.0213098
0.0209451
0.0211557
0.0213451
0.0211334
2.8262
0.0214853
0.021621
0.0217892
0.0327833
0.0211295
2.91305
3.7439
0.328886
0.021365
0.265281
0.0203459
0.407196
0.234997
0.0221647
0.332609
0.0235701
0.066113
0.0207087
0.021526
0.0274289
0.0438923
0.109343
0.0682879
0.157198
0.138487
0.0310186
0.0220629
0.0211935
0.0884655
0.02308
0.549987
0.0219828
3.78244
1.35388
0.435547
0.0222035
0.0982776
0.0232915
0.0210776
0.0201622
0.0226203
0.0696697
0.0212411
0.463729
0.0374192
0.113684
0.021083
0.0247024
0.251014
0.452419
0.372511
0.0242752
0.0247083
1.52619
0.0798598
0.0216815
0.0417825
0.336213
0.066787
1.55102
0.0247216
0.0256787
0.210043
0.0198793
0.286763
0.0495765
0.0213335
0.165286
0.421934
1.96599
0.0229042
0.125323
0.0261883
0.0204187
0.0529072
0.0218029
0.202318
0.0204964
2.08688
2.24015
0.490134
0.316982
0.110059
1.38684
0.0237897
0.0334578
0.319203
3.57289
0.0223877
0.0218423
0.0210238
0.0249582
0.0199138
0.0210512
1.30925
0.0210434
0.0206102
0.027977
0.0218846
0.0198303
0.0328669
0.797747
0.0611914
0.0212675
0.0213557
0.0278419
0.0222341
0.0210431
0.0209486
0.0204004
0.98066
0.0248153
0.0574177
0.0254164
0.0212102
0.0198959
0.225731
0.153351
0.0823231
0.0280618
0.0216319
0.0341709
0.020942
0.0268188
0.106999
1.83431
0.0344849
0.0230944
0.0202995
0.0264976
0.402744
0.359186
0.241347
0.0244883
0.0203548
0.0205945
0.0240357
0.0714566
3.09096
0.0204604
0.422024
0.0198929
0.0210264
0.0903112
0.020863
0.874309
0.0942119
0.422015
0.0198294
0.0319891
0.0405813
3.01467
0.0203371
0.0214217
0.171807
0.573002
1.49496
0.10564
2.36103
0.0222092
0.18743
0.0245879
0.028738
3.32361
0.0244037
0.0209393
0.0215418
0.0200935
0.0814872
3.91154
0.023954
4.34472
0.0201474
0.0209502
0.0214902
0.131279
0.0330808
4.23808
0.0213888
0.021821
0.0313956
0.380589
0.0203353
0.259384
0.0207244
0.0227569
2.08831
0.0208651
0.65821
0.733088
0.43602
4.1035
0.021269
0.023308
0.0223796
2.20619
0.0378389
0.0213772
3.42909
0.136956
0.0196496
0.0224673
1.31349
0.0204345
3.01448
2.2441
0.0242825
0.0197274
0.0235014
0.0242984
3.97066
0.0205694
0.0309232
0.0220582
0.364001
3.07743
0.0212296
0.0201988
0.15701
0.0248231
0.0214819
0.021033
0.0208898
0.0540526
0.0227719
0.103455
0.0217817
0.0216578
0.0208349
0.0224105
0.022392
0.0224237
0.738064
0.332563
0.452322
0.021759
0.0203244
0.600067
0.0252421
0.0676306
1.24512
0.113555
0.338333
2.28757
0.020312
0.309296
0.0412133
0.0221669
0.0208323
0.0213923
0.0213762
2.08269
0.300558
0.0213543
4.69009
0.369901
2.90331
0.0197725
0.020591
0.363463
0.0208946
0.0214555
0.0239272
0.0210283
0.228491
0.0226473
3.28521
0.167807
0.0208219
1.71535
0.0610921
0.342941
1.77671
0.0212787
0.023578
0.0317721
2.78195
1.10621
0.0555149
0.0216976
0.0213934
0.0889831
0.0204344
0.316309
0.818321
0.0209311
0.0838684
0.0203927
2.28315
0.0214577
0.335121
0.0220873
1.93335
0.214735
2.28357
3.41801
0.0200801
0.156042
2.51725
0.0218024
2.98722
0.021739
0.0199738
0.0212005
0.0258044
0.0233146
0.0215115
0.0209838
0.0643708
0.0410551
0.045276
4.72158
0.0565929
0.0270239
0.0220789
0.0593764
0.0201844
0.10104
0.351459
1.758
0.361462
0.022245
0.0232387
0.022165
0.0312265
0.0226222
0.0210654
3.13217
0.599282
3.49446
0.0227813
0.0215258
0.0440813
1.82041
0.0217766
0.020413
0.0221274
0.0223815
0.04009
0.0212552
0.441618
0.0216861
2.98627
0.0205789
0.0602804
0.437941
1.23012
0.0200774
0.0955011
0.0213573
0.0204032
0.0726288
0.482197
0.0210043
0.0220079
2.28378
0.0212932
0.0575387
0.244983
0.0254475
0.808151
0.0214379
1.55089
0.0280118
0.299498
0.0203139
0.0206269
2.69529
0.0208217
0.33664
0.0236274
0.0276541
2.58509
0.0221748
0.0213922
0.0220258
0.0210327
1.51917
2.73857
0.0204064
0.436271
0.0424714
1.53283
0.0212052
0.0729227
0.158644
0.0257893
0.0280902
0.0213583
4.6279
0.0200003
2.78916
0.0203031
0.0206323
0.0232336
0.0215484
0.0206694
0.0578112
0.0229088
0.021011
0.294038
0.0204437
0.0431342
0.0249816
0.511027
0.0281455
0.0205947
0.0299047
0.0209747
0.0209474
0.0234532
2.23802
0.104991
0.286508
1.31793
0.0203868
0.0211311
0.0212562
0.0209045
0.0202239
0.306184
0.0198472
0.023158
0.195764
0.022041
0.223246
0.0214771
0.020392
3.33578
1.74122
0.0215644
0.0467325
0.0239724
1.61773
0.0210534
0.0225066
0.226085
0.0214261
0.0841767
0.177204
0.0220273
0.0220629
2.35302
0.023662
0.0555677
0.458396
1.4668
0.0230844
0.0223352
0.0326414
2.1845
0.0218037
0.715646
0.853387
1.56186
2.54672
0.0204639
0.021362
0.021163
0.115035
0.449597
0.273455
2.59559
0.0200607
0.11464
0.0204987
4.67205
0.0211942
0.0365443
0.107524
0.0218936
0.0218958
0.110893
0.0245642
0.0216969
0.0219177
0.0638288
0.0229303
0.0209275
0.109146
0.021749
0.0217508
0.021114
1.26674
0.0251978
0.343097
0.0267789
0.0227928
2.40934
0.0241167
0.0946774
0.0203886
0.0211734
4.1152
2.71628
0.452704
0.0214156
0.0234635
4.74413
0.0971879
0.0979764
0.0646006
0.0747414
0.16801
0.020371
0.580388
0.0206463
0.0651873
0.445706
0.103061
0.102917
0.0221794
2.53756
0.0703895
0.355351
0.0370224
0.0210532
0.0213364
0.0213189
0.437056
0.0205137
0.317711
0.0698517
0.412387
0.0202254
2.59656
3.99421
0.330701
0.338427
0.0221119
0.0216688
0.0210725
0.0251606
0.0213717
0.0244006
4.54264
0.0211487
0.0221854
2.48345
0.334638
0.312655
0.0246892
0.0290223
0.0207777
2.17299
0.0219445
3.7563
0.041469
0.0493677
0.0280621
0.0996159
0.981729
0.0212756
0.0211833
3.36311
0.121145
0.46978
0.143132
0.0453891
0.0208221
0.0715006
0.0214154
0.0681517
0.021379
0.0225197
0.343399
0.0219748
0.0998199
0.0205531
4.17955
1.25867
0.0277661
0.0278079
3.16146
0.0254659
0.0202931
2.84652
4.04673
2.16846
0.020891
0.0217398
0.323791
4.2236
3.47854
0.0214787
0.0226923
0.021572
0.0250921
0.0216986
0.020664
0.977847
0.0209374
2.70214
0.0230997
0.092087
0.0200746
4.16474
0.180304
0.108047
1.68672
0.430565
0.0206204
0.0778809
2.13983
0.0208493
0.0216635
0.021322
2.63263
3.31624
0.021476
2.87121
0.0366258
0.0212363
3.31301
0.0227066
0.0689041
2.45873
2.67257
0.0211234
2.8292
0.024158
0.0202646
2.54618
0.0412514
0.351659
0.58083
0.027371
3.37892
0.0889612
0.025512
0.977658
3.87691
2.30978
0.0220347
0.0200346
0.0211144
0.02238
0.330234
1.67482
2.1684
1.86808
0.0243924
0.0200221
0.0208796
0.023398
0.32908
0.0211971
0.384574
0.295458
0.0203746
0.0221579
2.71561
0.0616656
1.3215
0.297858
0.0213263
3.23231
0.335597
1.32193
0.0224226
0.0240328
0.0742814
0.0213296
0.0226149
0.104845
0.0234032
0.0571595
2.13915
0.021434
0.101645
0.677394
0.0505046
0.0381345
0.324
0.231971
2.87407
0.0213548
0.585171
4.17981
0.0423249
0.0220212
0.0205262
0.021715
0.0214761
1.13399
0.0224164
2.45154
0.0224339
0.0212413
2.40926
0.176613
0.0202832
0.0211252
0.422668
0.246751
0.0213762
0.0204641
0.0240363
0.0250387
0.189952
0.0594792
0.0205537
0.102962
0.0219714
0.361316
0.0761023
0.393043
0.0212673
0.0358008
2.26377
0.406617
0.0219352
0.546844
0.274522
0.37261
0.0202452
0.0224039
2.50114
0.138988
0.0590047
2.77095
0.0214199
0.0595997
0.0226279
0.0545283
0.0733043
0.280269
0.138698
0.0240302
0.02091
0.0296448
0.322052
0.0213405
0.0308324
0.328248
0.0656562
0.0206654
1.85291
1.63133
0.0624209
0.022456
0.0215403
0.021505
0.0243592
0.0378491
0.678777
0.101413
0.0204426
0.0212903
0.353901
0.220763
0.0214412
0.331504
0.0946016
0.0224516
2.67139
3.83757
0.0202737
4.26213
2.64129
3.20996
2.83986
0.0207521
0.240524
0.128421
0.0220107
0.0231763
2.03791
0.337226
3.32179
0.0263808
0.0212911
0.0245963
3.53718
0.0222093
0.319506
0.019758
0.0216586
2.43168
0.316581
0.033399
0.124955
0.0585127
0.0227049
1.55843
0.705345
0.208422
0.19913
0.0605469
0.0661231
0.0213227
0.0213061
0.0562231
0.875412
2.69509
0.35323
0.120671
0.325249
0.745837
0.0290582
0.0209719
0.0217333
0.0670173
1.15356
0.0204726
0.0609931
0.524854
0.0994519
0.287895
0.0656093
3.13138
0.021709
0.0226146
0.433015
0.0322051
0.0217498
0.0223144
0.261393
0.0295715
0.0571858
0.0204076
0.021299
0.349568
0.368033
0.0221826
0.15382
0.291523
0.0845864
0.0222955
0.130283
0.021043
2.1242
0.107106
3.29507
0.0215302
0.172015
0.0200587
0.021298
0.403687
0.316577
0.0897404
0.0203997
0.207286
0.481762
1.23643
0.854213
0.0380743
0.0223271
0.293047
0.177639
0.0212202
0.020943
0.330141
0.771743
0.284821
0.0252746
2.95745
0.0203669
0.0217492
0.0762098
0.0684779
0.0211776
0.451565
0.0214221
0.0215103
0.0220563
0.0222203
0.573381
0.312374
0.0196403
0.0906684
0.0208881
0.0330034
1.95494
0.0218594
0.321364
3.62681
0.191848
0.203791
0.0214623
2.28501
0.0223815
0.141381
0.0207399
0.132513
0.0332123
0.0246471
0.0214615
0.116373
0.064349
0.178736
0.105336
0.0217699
0.0202733
0.350678
0.135707
0.0314907
1.27257
0.023724
3.69032
0.0214698
0.185268
0.125531
0.433796
0.0202875
0.0786513
0.0556156
0.148202
0.0224137
0.0238042
0.0240223
0.0235851
0.0239876
0.0237128
0.0235708
0.0210449
0.0961974
2.58879
0.493812
0.0244536
0.0212039
2.21272
0.850342
0.0212018
0.0638004
0.0233577
0.0227653
0.196736
0.34112
0.0202521
2.65985
0.0214826
0.305415
0.187197
0.166095
0.0232033
0.0218139
0.0230536
0.0204445
0.0224227
0.383559
0.288097
0.0316616
0.354281
0.147232
0.021356
0.0426709
1.30805
0.0214982
0.0240044
0.17089
0.0236377
0.0591196
0.0235772
0.0239438
0.0498596
0.433221
0.0994887
3.49888
0.0247461
0.209657
0.0676309
0.310416
0.0670443
0.0263693
0.0210513
0.0242014
0.151821
0.336561
2.58906
0.0209742
2.61384
0.359268
0.333176
0.13326
0.116442
3.29629
3.76835
0.0197561
0.10075
0.0238203
0.183916
0.241413
0.375555
0.0211182
0.356093
0.0523055
0.123458
0.0210409
0.500059
0.0231059
0.159097
0.0226449
0.0973656
0.164018
0.0248882
0.0208471
0.0217009
2.99326
0.020767
0.588816
0.0649505
0.23819
0.0269777
0.438664
0.0741787
0.0212111
0.0207115
2.32558
0.0232531
0.02085
0.021146
0.274702
4.59574
0.116319
0.0213855
0.0365901
0.376724
0.446843
0.0459212
0.0209605
0.0725124
0.495328
0.0259259
0.0232688
0.0208055
4.24671
0.0206676
3.69794
0.335391
0.043659
0.0976344
0.0400847
0.0202922
0.0225384
0.466743
0.0230605
0.0251408
0.0210937
0.0213552
1.42224
0.125237
0.0662049
0.020511
3.52922
0.0668081
0.320842
0.0212112
0.0273627
0.0243077
0.14185
0.0212556
0.0575472
0.339992
0.0978275
0.0244278
0.0208235
0.0257766
0.025877
0.0484079
0.0202227
0.021748
0.0215422
0.0214961
2.42479
2.0185
0.272841
0.0372387
0.0219979
0.0196716
0.283955
0.852999
1.92403
0.0239095
0.0960289
0.0212977
0.0217135
0.0795965
0.020727
1.70227
0.0217186
3.36076
0.0201931
2.18888
0.0214401
0.337769
0.351023
0.0608104
0.172123
0.0196693
0.412664
0.0203158
0.119874
1.24577
0.152771
0.02061
0.0559999
0.0996912
0.0646135
0.106724
0.0346407
0.111825
0.0200754
0.0341532
0.0204038
0.351159
0.203516
2.20054
3.37937
0.0216934
0.349164
0.0209288
0.0210723
0.170277
0.0201463
0.0210234
0.0210853
0.0210164
0.19884
0.0222931
0.0230291
0.0219674
0.0212416
0.0210846
0.0223794
0.0240824
0.0214542
0.0312776
0.0356656
0.022537
0.362815
0.023082
0.0589991
0.481213
0.0362525
0.0453016
0.0944218
0.182447
0.0532552
1.5303
0.353208
0.279443
0.0203669
0.0208976
0.0235327
0.019905
0.102066
0.0288845
0.0202145
2.95111
2.05707
1.88773
0.034779
0.0599974
0.0419071
0.0213779
0.742756
0.112307
0.0222207
1.9389
1.86326
0.0215449
0.272703
1.03048
0.335222
0.0609861
0.0653049
0.0471466
0.0206637
0.0198591
0.24954
0.306387
0.776377
0.0229686
0.0211043
1.90109
0.0374359
0.0230544
0.0198225
0.490524
0.0202635
0.0241661