/*--------------------------------*- C++ -*----------------------------------*\
| =========                 |                                                 |
| \\      /  F ield         | OpenFOAM: The Open Source CFD Toolbox           |
|  \\    /   O peration     | Version:  v2012                                 |
|   \\  /    A nd           | Website:  www.openfoam.com                      |
|    \\/     M anipulation  |                                                 |
\*---------------------------------------------------------------------------*/
FoamFile
{
    version     2.0;
    format      ascii;
    class       surfaceScalarField;
    location    "700";
    object      meshPhiCN_0;
}
// * * * * * * * * * * * * * * * * * * * * * * * * * * * * * * * * * * * * * //

dimensions      [0 3 -1 0 0 0 0];
oriented        oriented;


internalField   nonuniform List<scalar> 
14470
(
-0.00123395
0.000384708
0.000850006
-0.00015018
-9.89261e-05
0.00195261
-0.00196949
-6.01166e-06
-7.36346e-05
-9.83223e-05
0.000171957
-0.000449987
0.000374186
-1.87242e-05
-0.000469601
0.000470353
-1.28652e-06
0.000329153
-0.000651352
0.00032163
-6.5201e-05
-0.000176972
0.00024217
-0.00146888
0.000250793
0.00122646
6.35629e-05
0.000583248
-0.000608951
0.000774046
-0.000675964
-1.21346e-05
-0.00144556
0.00155264
0.000480258
-0.000220856
-0.000259057
0.0019928
-0.00145834
-0.00058016
-0.00126138
0.00151422
-0.000274466
-0.000731474
0.00072612
1.42829e-06
0.00194349
-0.000610201
-0.00128196
-0.000265466
0.000223358
4.21037e-05
0.000509381
-0.00114609
0.000637057
0.000833783
0.000978628
-0.001788
0.000208815
-0.000208815
-4.19567e-05
0.000208124
-0.00016617
-0.000211916
0.000146714
0.000310546
0.000170099
0.00021567
-0.000865249
0.00064983
0.00217359
-0.000692415
-0.00148075
0.000107578
-0.000108271
1.27876e-05
-0.000377347
0.000888646
-0.000567868
0.000141733
0.000425518
-0.000134628
-5.56709e-05
0.000190298
0.000454988
-0.000410659
-4.44747e-05
-0.0018666
0.00177191
2.32634e-05
0.00034005
0.00137883
-0.00173277
3.47784e-05
-1.77999e-06
-0.000104851
-0.000518309
-0.000405219
0.000915973
0.00119928
0.000160847
-0.00136279
0.000107527
0.000580372
-0.000689466
0.000137455
0.000179257
-0.000316646
0.000999026
-0.000701317
-0.000301373
-5.67086e-06
-0.00056275
-0.000230455
-0.000125971
0.000356318
8.22638e-05
-0.000216751
0.000134478
-4.52107e-06
7.41519e-05
-0.000194307
-0.00122314
0.00142818
-0.000227836
-0.00125989
0.0015325
0.000118419
9.83016e-05
-0.000216721
-3.81904e-05
0.000209988
-0.000195634
0.000487279
-0.0018199
0.00138705
0.000108245
0.00186921
0.000679386
-0.0012084
0.000103379
-0.000111293
-0.00104265
0.000721468
0.000316812
-0.000660623
0.000597724
0.00081451
-0.000555874
-0.000258837
-0.000262208
0.000188572
0.00136073
3.08307e-05
-0.00132417
4.8501e-05
0.000571893
-0.000621779
-0.00111532
0.00164703
0.000209988
-0.000791112
0.000145629
0.000644153
0.000225554
-0.000433726
0.000208228
-0.00188851
0.00188685
-1.42784e-05
0.0012829
-0.000226903
-0.00106173
5.98858e-05
-0.000228422
0.000292499
-4.12575e-05
-0.00141556
-9.8229e-05
-9.96217e-05
1.50437e-05
-0.0010322
0.0010062
0.00010798
0.0012574
-0.00137016
0.000346903
-0.000103838
-0.000243112
-0.00167926
0.000731532
0.000942394
4.28915e-05
0.000287069
-0.000329879
0.00014502
-0.000259851
0.00011483
-0.000841898
0.000808221
3.04741e-05
-0.000279083
0.00042877
-0.000149728
-0.000239752
0.0002919
-5.77432e-05
0.00049334
-0.000598548
0.000104873
-0.000389963
0.000157354
0.000232551
0.00176416
-0.000461369
-0.00131469
0.000530082
-0.000562903
1.72979e-05
3.29889e-05
0.000460329
-0.000205904
-5.95685e-05
-0.000652112
-8.27015e-05
0.000923232
-0.000205344
-0.000722033
0.00130233
0.000365096
3.61547e-05
-0.000401554
0.000542376
-7.71224e-05
0.000876537
-0.000739185
-0.000148632
-0.000172547
0.000310075
-0.000130086
0.000355676
0.000182062
5.81554e-05
-0.000240221
1.45888e-05
-0.000260279
0.000245618
0.000328799
-0.000314304
-0.000423242
0.000712688
-0.000291848
0.00025353
-0.000171278
0.00178502
-0.000343925
-0.00143397
0.000119293
-0.000398433
0.000637922
-1.64291e-05
-0.000624099
-0.00107845
0.000188282
0.000883346
-3.96536e-05
-0.000456976
-0.00016951
-0.000156133
0.000325728
-0.000214357
-0.000833922
-0.00068391
0.000764399
-8.30044e-05
0.00139493
-0.00157995
-0.000510462
0.000396495
0.000113767
-0.000312173
0.000147486
0.00016465
-0.000784582
-6.15038e-05
-0.00156574
0.00142494
0.000124948
0.00145005
0.000308733
0.000133812
0.000235313
-0.000296453
5.26399e-06
-0.000218158
0.000176196
-6.48115e-05
-0.000170292
0.000235105
-0.000154749
-4.08083e-05
0.000195557
-0.000422473
-0.00125859
0.000406384
-0.00134014
0.000912729
0.000632211
-0.00180784
0.00115716
0.00121052
-2.10062e-05
-0.00113211
7.05279e-05
0.000173571
-0.000244098
0.00131501
-0.00152663
0.000243529
-0.000188607
-0.000243225
0.000431731
0.000840861
2.63816e-05
-0.00041995
0.000386573
3.32469e-05
8.97406e-05
0.000688596
-0.00078213
-0.00139388
0.00155182
0.00156339
-0.000202466
-0.000727123
0.00025027
0.000474346
0.000105328
-0.000239957
0.000487091
-0.000693823
0.000205663
0.000752811
-0.000267069
0.00127683
2.74051e-06
-0.00127636
0.0019184
-0.000630598
-0.00127708
-9.70323e-05
-0.0011356
0.00111815
8.58169e-05
-0.00121533
0.00119059
-0.00104494
-0.000151896
-0.000200644
-0.000206932
0.000407277
-1.08314e-05
0.000403998
-0.000393518
0.00140851
-0.000791563
-0.000246445
1.3412e-05
-0.000688027
0.000258246
0.000427838
-0.000310985
0.000226506
8.44587e-05
0.000778087
0.00166313
-0.000498416
-0.00114055
0.000106818
0.000744344
-0.000859188
9.23936e-05
0.000132187
-0.00022458
-0.00011957
-0.000186398
0.000305908
-0.00165341
6.42993e-05
-9.98471e-05
0.000219124
0.00096239
0.000979333
-5.97951e-05
0.000528744
-0.00217017
0.00164981
0.000231631
-0.000303442
7.18058e-05
4.04846e-05
-0.00112458
0.000995276
0.00114298
0.00136927
-0.00129256
-8.32654e-05
0.000254065
-0.000367079
0.000112936
3.08365e-05
0.000692225
-0.0018414
-4.2006e-05
9.50923e-05
0.000359826
0.00113602
0.000257938
-0.00139894
-0.000825332
7.73099e-05
0.00113182
0.000141296
0.00139065
-0.000531125
4.55268e-05
-0.000228754
0.000183225
-0.000437191
0.00185631
-0.0013984
-0.000169693
-0.000220351
-0.000730346
0.000644377
8.40276e-05
-0.000191687
0.00169596
-0.00148465
0.00147032
-0.00164558
0.000213292
4.65884e-05
-0.000458475
0.000494826
0.000905537
0.000768258
0.000163938
-0.000255327
9.13887e-05
-0.000281576
0.000176261
0.000105317
-0.00016061
0.000453489
-0.000293137
0.00137858
-0.00130486
-0.000447645
-2.27791e-05
0.000461207
-0.000203242
-0.000258072
-0.00032642
7.72089e-05
0.000249207
0.00203609
-0.0015309
-0.000511481
0.000269059
0.000877947
-0.00115497
-0.000353861
-0.00015684
0.000210813
0.000165081
0.000667622
-0.00132956
0.00114729
5.47383e-06
0.000944655
-0.000908601
-7.31597e-05
-0.000296119
-0.000124047
-9.53252e-05
0.000240345
-0.000142965
-0.000138612
-0.000724745
3.89709e-05
0.00142678
-0.00030176
-0.00111417
4.49506e-05
-0.000166522
0.000121574
0.000275997
-4.59588e-05
-0.000230026
-0.000823484
0.000798135
2.42706e-05
0.00169063
0.000280424
-0.00193946
8.04494e-05
-0.000971064
0.000891644
0.000206511
2.44656e-05
-0.000230977
-0.000895083
0.000415787
0.000555971
0.000822461
-0.00139566
0.00133423
-0.00140473
9.20258e-05
0.000552615
0.000815114
-0.00136814
0.000536791
0.000765786
-0.00128918
-0.000992219
0.000210571
0.000771693
-0.00141496
0.00108963
0.00031831
-8.93185e-05
0.000267421
-0.0001781
0.00148616
-0.000320967
-0.00115624
0.000806297
-0.000901866
9.17773e-05
-0.0016106
0.00143521
0.000282214
0.000958563
-0.00124125
-0.000369896
0.000273773
9.61231e-05
-0.000660132
-0.000235055
-7.59446e-05
0.00047302
-0.000460967
2.47626e-05
0.000269073
7.77877e-05
0.000195849
0.000724488
-0.00107204
0.00121102
-0.000146792
0.000975283
0.000996138
0.00027174
-0.00047269
-0.000913775
0.00132742
-0.000546573
0.000107422
0.000439614
8.98265e-05
0.000545583
-0.00105222
0.00160803
-0.000209255
-1.51559e-05
0.000224424
0.000225797
-0.000548016
0.000321702
0.000243336
-0.00066821
-0.0018532
0.000445655
0.00142098
0.0001343
-0.000800996
0.000662502
0.00058538
1.43925e-06
-0.000586571
-0.000457968
0.000471916
-1.34622e-05
-4.18686e-06
-0.000453637
-0.000166666
-0.000103689
0.000270366
-0.000434446
-0.00021967
0.000651834
0.000100473
-0.0011842
0.000479434
0.000797446
5.26915e-05
0.000223321
0.000115139
0.00163437
-0.00171178
-0.000148706
-0.000244636
8.98866e-05
-0.000238417
-0.000563311
-0.0010359
0.000987433
1.49014e-05
0.000195372
-0.000425954
0.00185005
-0.00162564
-0.000217144
4.73599e-05
0.000143997
0.000118052
0.000470891
-0.000590441
4.25627e-05
-0.000580336
0.000536126
0.0013972
-0.000660939
0.000922497
0.000845091
-4.18306e-05
-0.00065677
-1.27825e-05
0.000668102
0.00111408
-0.000968473
-0.000149366
0.00156346
0.000736089
-0.000423143
-0.000313982
0.000203924
1.96521e-05
-0.000223577
0.000543461
-0.00157143
-0.000244587
-0.000299128
0.000543198
-0.000165827
-0.000527003
-0.00132469
0.000115089
0.0013206
-0.000626795
0.000312673
0.000288786
-0.000191676
0.00151892
-2.89254e-05
-0.00148088
-5.95614e-05
0.000313557
0.000255036
-0.000385698
0.000130563
-0.00122977
0.000952047
0.000253692
0.000354648
-0.00123902
0.000377103
-0.000163132
-0.000214038
-0.000295371
-0.000266157
0.000818073
-0.000857413
3.5793e-06
0.00012893
0.000198105
-0.000232609
6.81928e-06
0.000248183
-0.000250509
0.00029603
0.000809415
5.5449e-05
-0.00086127
0.000360859
-0.000196335
-0.000164497
0.000529334
7.32045e-05
-0.000604091
3.21077e-05
0.000208018
-0.000175469
-3.25481e-05
0.000407962
0.00130213
-6.48369e-05
0.000171345
-0.000106509
-0.000528516
6.43942e-05
0.000591714
0.000619368
-3.34043e-05
-6.14442e-05
0.000165412
-0.000103968
0.000196754
-0.000436328
0.000239709
0.000207819
-0.000659147
0.00022257
-0.00129033
0.00129627
-0.000698659
4.33786e-05
-0.000140028
-0.0012796
0.000178566
0.00182638
-0.00199713
-0.00115195
0.00182298
-0.000659901
-0.000192494
-0.000177378
-0.000420247
0.000636223
0.00110137
-0.000711496
-3.31195e-06
3.09048e-05
-1.84562e-05
0.000142393
0.000394748
1.88049e-05
-0.000164936
0.000142551
0.00154084
0.000238285
-9.41598e-05
-0.000144122
0.0017344
-0.000453436
-0.00125116
-9.16837e-05
-0.00134983
0.00140968
3.66263e-05
-4.21546e-05
-1.44745e-05
0.00145528
-4.08513e-05
-0.000209292
0.000218049
-8.75673e-06
-0.000300338
0.000180713
0.000478734
-0.000270593
-0.000207933
-0.000144112
-0.000698618
0.000840475
0.000775235
-0.000675911
3.68867e-05
0.000795316
-0.000713028
-8.66826e-05
0.000257304
-2.56771e-05
0.00141114
-6.75683e-06
-0.000203202
-0.00018254
0.00116464
-7.72697e-05
-0.00109246
-0.001627
0.000401334
4.7672e-05
7.08653e-06
-0.00183908
-0.00010308
0.000298389
0.000436412
-9.89266e-05
-0.000167362
0.00117733
-0.00134647
0.000169166
0.000478882
8.30631e-05
-0.000560873
-0.00158477
-5.03233e-05
-0.00106069
0.00110952
-6.18694e-05
-0.000481321
0.00054372
5.04829e-05
-0.00056248
0.000512027
-0.0015903
0.00191852
0.00130322
1.01053e-05
-0.00129201
0.000784382
-0.000931426
0.000236536
0.000187092
-0.000423677
0.00017857
-3.09497e-06
-0.000175474
0.00145979
0.000479224
-8.99265e-05
0.00148754
-0.000205595
-0.00109193
0.00132473
0.000200973
-3.70349e-05
0.000148698
-0.000213536
0.000233713
-0.000291709
5.79912e-05
0.00158436
6.61383e-05
-0.00161279
-0.000453893
0.000504388
0.000582003
-0.000101809
-0.000318232
0.000182365
0.000135862
-0.000737758
0.000310388
0.000425785
0.000140135
0.00156719
-0.00165652
-7.66672e-05
-0.00163631
0.0017693
0.00123909
-0.00141362
-0.000658355
-4.25967e-05
0.000183241
-0.00123307
0.00106072
-0.00021408
2.83604e-05
0.000185709
-0.000862956
0.0011117
-0.000315518
-0.00163554
0.00202126
-0.000360874
-0.000557491
0.000149852
0.000406696
0.000113689
0.000124601
0.000127916
0.000141129
-2.13202e-05
2.64763e-05
-0.000323148
0.00015369
0.000688396
0.000216489
-0.000904276
-0.000204831
6.96041e-05
0.000135226
0.000285689
-0.000167092
-0.000118604
9.77457e-05
-0.000264406
-5.37065e-05
-0.000847933
0.000891238
0.00049927
0.000497444
-0.000387274
0.000376104
-7.23466e-05
0.000254409
-0.000160003
-0.000114616
-0.000416736
0.000532618
1.8217e-05
8.88581e-05
-5.076e-05
5.93133e-05
0.000752304
0.000325596
0.001509
-0.00178225
0.00156629
-0.00146116
-0.000157586
0.00121672
-0.0010239
0.00221794
-0.00184927
-0.000313246
-1.42318e-05
1.42318e-05
6.55183e-05
-0.000279615
0.000706167
9.16619e-06
-0.000560185
0.000549304
0.000937161
-0.000843539
-9.71056e-05
-0.000135899
-0.000372429
0.000507982
-0.00130102
0.00148455
0.000629259
-0.000838365
-0.000209044
-6.4294e-06
0.000215474
0.000316335
-0.000116722
-0.000199608
0.000368796
5.74508e-05
-0.000425679
-8.94155e-05
-0.000650783
-0.00170623
0.000120575
-0.000836485
0.000773259
-0.000227514
-0.00175536
-0.000241134
-0.000144273
0.000385374
-0.000535739
0.00085067
-0.000235424
-0.000167998
0.000295881
0.000315355
-0.000483046
0.000167712
0.000442503
-0.000113757
3.88166e-05
0.000194893
0.000508234
-0.000569618
0.000955797
-9.75073e-05
-0.000999815
-0.00182214
0.00170064
0.00012091
0.000427217
-2.35086e-05
-0.000406232
0.000165044
0.00126603
0.000238638
0.0001642
0.000121486
8.92583e-05
0.000738322
0.00149857
-0.00106051
-0.000331364
-0.000216064
0.000154619
-0.000101576
-0.000273525
0.0005765
0.00173613
0.000626756
1.63106e-05
-0.00121017
0.000308557
-0.00159008
0.00117212
-0.000302136
0.000478582
-0.000176988
0.000321088
-0.000278121
-0.00022087
0.000932481
-0.000714794
-0.000667329
-0.000157471
-0.0019336
0.000916864
0.00104063
-0.00148055
3.99638e-05
0.00146811
0.000156983
0.000229464
-0.000631693
0.000612675
-0.00177681
0.00188117
-3.24978e-06
0.00123771
-0.00130205
-1.07225e-05
0.000435083
0.00037919
-0.000519867
-8.44515e-06
0.000529202
0.000824567
-0.00104842
-6.21016e-05
0.000194288
0.00142953
-6.78966e-05
0.00174884
-0.000395654
-0.00019712
0.00035494
-0.000157816
-0.00095667
-0.000972483
-2.4342e-05
0.000228268
-0.000126174
-0.000200252
-0.000994661
0.00103948
0.00194235
-9.41994e-05
-0.00191629
0.000526403
-0.00166538
-0.00128063
0.000598616
-0.00164797
-0.000381137
0.000225084
-7.43401e-05
8.46711e-05
0.000292373
-0.000747525
-0.00172217
0.00172662
-2.29448e-05
-0.000630646
0.000716941
-0.000573034
0.000679132
-8.73973e-05
0.000260973
-9.2451e-05
-0.000700637
0.00019583
7.97242e-05
0.00088372
9.09343e-06
-0.000309463
-0.000160971
-0.00113197
0.00129879
0.00149512
-0.000360712
0.00128406
-0.000657232
0.000200919
-0.00198384
0.000477326
0.00154229
0.00116726
5.60987e-05
-0.00121756
0.00125502
4.07401e-07
0.000895783
-0.00100785
5.97854e-06
0.000120519
0.000871859
-0.000989641
-0.00124326
0.00109933
-0.000392943
0.000509722
0.000246133
-0.000162439
8.84128e-05
0.000266002
-5.94911e-05
-3.69112e-05
-0.00071072
0.000748461
0.000366062
-5.07337e-05
0.000224474
-1.64548e-05
0.00187659
-5.55387e-05
-0.000504165
-0.000195911
-0.000456223
0.00188219
-0.0015698
-0.000657508
0.000750885
-0.000107516
0.00138019
-0.00102364
-0.000325728
-0.000204063
0.000528243
-0.000324515
-0.000462918
0.000534646
0.000174749
-0.00135045
7.40328e-05
0.00118402
-0.000155255
-0.00115739
0.000308573
-0.000450136
0.000141687
0.000235023
0.000226121
-0.000154873
-0.000296481
0.00048372
0.00062235
0.000746688
-9.47451e-05
0.000618127
-0.000523352
0.000201004
-0.000102702
0.000360272
-0.000163427
-0.000205052
-0.000425542
0.000631994
-4.86046e-05
-0.00121787
0.00124689
0.000280756
-0.000525797
-0.000381881
0.000212106
-0.000233818
-0.000287612
0.000519821
-0.000970167
0.00134256
-0.000364478
0.001928
-0.00067226
-0.00124936
0.000177866
-0.000267183
-0.00178288
0.00173211
9.30353e-05
0.00025599
-0.000459305
-0.000456674
0.000138573
0.000317851
-0.00144242
-0.000246763
0.000128566
-0.000379088
0.000822957
-0.000914316
8.62747e-05
0.000171812
8.86131e-05
-0.000260388
-0.00147586
2.62796e-05
-0.000126721
-0.000123631
0.00025035
-0.0002028
0.000387579
-0.000185026
-0.00139729
0.000115544
0.000212393
-0.000375596
0.00160721
0.000204066
-0.000148922
-0.000169315
-0.000173582
0.00101801
-0.000870561
0.00162315
-0.00151346
-9.52809e-05
2.60943e-06
-0.000491477
0.00178968
-0.00164909
0.000225478
0.00124097
-0.00157377
-0.000642476
0.0017298
-0.00104259
0.000150646
0.000773763
-0.000925825
0.00174457
-0.00163896
0.001295
-0.000695605
0.000423136
0.000271005
-0.00135922
0.000536717
0.000816982
0.000933543
-0.000597114
-0.000795022
0.00134546
0.000981972
-0.00160936
-4.34158e-05
-0.000165628
0.000316442
-0.000415899
9.95124e-05
0.000643983
-0.000847389
-0.00046003
2.09142e-05
-0.00126767
3.89628e-05
-0.00117086
0.00113643
0.00010307
-0.000832754
0.0014636
-0.000113523
-0.000178196
-0.00171288
0.000155038
0.000147912
-0.000204312
-0.000119859
-7.79924e-05
0.000197851
0.000178751
-0.000304799
-0.000673014
1.54154e-05
0.000145833
-2.42832e-05
-0.00021707
0.000475041
-0.00169315
0.00122468
0.000991111
-0.000965391
1.00217e-05
0.000262084
0.000280876
0.00118305
-2.06029e-06
0.000621049
-0.000796981
0.00017339
5.57843e-05
0.00117874
-0.00123431
1.66186e-06
-0.000210912
-1.83562e-05
-0.000568975
-0.000198047
9.98178e-05
-2.3304e-05
0.00019886
-7.27049e-05
0.00040618
-0.000169676
-0.00037676
-0.00111721
0.00152274
0.000328086
0.00056164
-0.000897403
0.000201451
-0.000181799
0.00102964
-0.00124437
0.000178279
-0.000382654
0.000204261
0.00158353
-0.00158509
-2.77983e-05
-6.28086e-05
7.42865e-05
3.21313e-06
-0.00145614
-0.000290377
-0.00031355
0.000496172
-0.00018272
1.1676e-05
0.000255748
0.000896583
-8.44751e-05
-0.0014451
0.000506107
-0.000143362
0.000570985
0.00012436
-0.000547954
0.000160399
-0.000287126
-0.000130508
0.000710369
0.000322337
-0.000319374
0.000165489
-0.000479669
-0.000119336
9.79876e-05
2.61493e-05
-0.00011947
-0.000790889
0.00127274
-1.3703e-05
-0.00137774
0.00142379
0.000255118
-0.000650155
0.00147466
6.45958e-05
-0.00143604
-0.000373477
-0.000174859
0.0020854
-0.00107977
0.000167481
0.00101493
-0.0011806
-0.000258936
-0.000619244
0.000871433
-0.000427266
0.000413199
1.3883e-05
0.000182621
0.000318166
-0.000501142
-0.00149255
0.000105429
0.000101382
-0.000200613
0.000452846
-0.000217909
8.8203e-05
-0.00143882
0.00133618
-0.00165669
7.15788e-05
-0.000150155
0.000982828
0.00116417
0.000492449
0.000286283
0.0001665
-0.0011083
0.00119689
-0.000192398
0.000370573
-0.000489542
3.94821e-05
0.00044966
-0.000523428
-0.000132204
0.000655357
0.000764309
-0.000670799
-9.41219e-05
-7.52456e-05
-0.00014082
0.00112711
-1.9257e-05
-0.000165218
0.000427136
0.000232843
-0.000144421
-8.84269e-05
0.000253318
0.00015281
0.000225597
2.13448e-06
-0.000227774
-0.000146745
-0.000310223
0.000443017
-0.00152876
0.00074232
0.000210356
-3.17852e-05
-0.00103344
0.000766088
0.00022715
-6.58199e-05
0.000319099
9.51956e-05
-1.17891e-05
0.000168375
-0.000626865
-4.73127e-05
-0.000468764
0.000436555
3.12513e-05
0.000349588
0.00022761
-0.000575658
-8.33332e-05
0.000197032
0.000163756
-0.000285201
0.00012144
0.000448982
-0.00107564
-0.000485619
1.53475e-05
-0.000100976
-0.000959713
-0.000381225
0.000110136
0.00027109
-0.000796016
-0.00142323
0.00107785
0.000190306
0.0010442
0.00182922
-0.000239389
-0.00160655
2.40751e-05
-0.000657799
0.000179103
-0.000282785
-0.000373414
0.000177114
-0.000232982
7.98646e-05
0.000153117
0.00113395
-0.00105943
-0.000616305
0.000697498
-9.4833e-05
0.000266704
-0.000201376
0.00035613
-0.000154715
-0.00133043
0.00130339
-3.3924e-06
0.000623071
-4.32455e-06
-0.00062139
-0.000614832
0.00089599
-0.000206491
1.6597e-06
0.000353542
-0.000656815
-0.000960777
0.000344517
0.000134419
0.000177184
-0.000374304
-5.90125e-05
0.000222763
-0.000151022
-1.20634e-05
-0.000803436
-0.000351033
0.000174886
0.000176092
-0.000167337
-0.000834476
-0.00041186
0.000115524
0.000768824
-0.000448463
-0.000504567
0.00036827
0.000210062
0.000628597
-0.000837163
8.49435e-05
0.001644
-0.0011759
-0.000456831
3.72771e-05
-0.00134795
0.000736455
-0.00015732
-0.00057935
3.24365e-05
0.000196779
0.000411803
0.000323782
-0.000538307
0.000354595
0.000183245
-9.77701e-05
0.000426364
-0.000328884
-3.69805e-05
-3.87983e-06
4.31853e-05
4.33769e-05
0.000396173
-0.00041421
0.0018337
-0.00031101
-0.0015366
-0.00178169
8.86427e-05
0.00169404
2.99113e-05
4.21893e-05
0.00119285
0.000671071
-0.000540449
5.01913e-05
-0.000525499
0.000321138
2.57299e-05
5.46281e-05
-1.89921e-05
-0.000474192
0.000329885
1.07209e-05
0.00131618
-0.0011926
0.00015535
7.74895e-05
-2.36789e-05
0.000787628
-0.000773812
-0.000514801
0.000521997
-7.04635e-06
6.32279e-05
-0.000437112
0.000234095
-0.00218731
0.000633932
0.00155216
0.00170106
-0.00116969
9.12244e-05
-0.00057172
0.00064272
-0.0016037
-7.15674e-05
0.000740736
-0.000648003
-9.60871e-05
-7.02765e-05
-0.000240601
0.000311028
-0.000615674
0.00139063
0.000595161
-0.000406235
0.000281274
0.000125046
0.000864569
0.000243413
0.000138788
-0.000143286
-0.000262835
-4.00399e-05
0.00122361
-0.000640319
0.000571569
0.000925823
-0.00109465
0.000800941
-0.00151596
0.000103988
-0.000359423
-4.51394e-06
0.000364035
-0.000154965
0.000154646
-0.000264591
0.000109943
0.00108183
-0.00123853
-3.46982e-05
0.00136127
-0.00170198
0.000152278
0.0015277
-0.00166781
0.000315784
0.00133551
-0.000987546
-0.000381374
0.00092972
-0.000736568
-0.000149445
-0.000120868
0.000270335
0.000827654
-0.000861869
0.000656103
-0.00016088
-0.00022112
0.000880918
-0.00060775
8.38091e-05
-0.00148839
-0.000111931
-0.000231552
0.00010119
0.000130362
-8.28469e-05
-0.00120653
-2.83911e-05
-0.000597789
0.000780958
0.000263177
-0.00036118
0.00018939
-0.000164925
0.000487396
0.00146352
5.03244e-05
0.00164809
-0.00014907
-0.000774196
-0.00142582
0.000921843
-0.000402378
-1.60062e-05
0.000418152
-1.93935e-05
-0.00106252
0.00107671
-0.000293108
0.000546187
5.95634e-05
-0.00142184
-0.00154942
7.9487e-05
0.000475453
-0.00029313
0.000220003
5.81896e-05
-0.000278199
0.000576412
-0.000512209
-6.52838e-05
-0.00028945
-0.00190043
0.00124469
-0.00150853
0.000288714
-0.000361585
0.000555454
-0.000195151
0.00070371
-0.000434064
-0.000111467
0.000544866
-0.000356044
0.00193812
-0.00154203
6.39968e-05
0.00151847
0.000188394
-0.000229203
-0.000105417
0.000140569
0.000589761
-1.89856e-05
7.36475e-05
-0.000491411
0.000417836
-0.000149397
-2.97829e-05
-0.000292807
-0.000778474
0.00108028
-0.000172042
-5.0084e-05
0.000222119
-0.000131329
0.00040178
3.09048e-05
0.000186233
-0.000258585
-0.000296132
0.000647227
0.000417481
-5.25708e-05
-0.000504682
0.000588899
0.00111292
-0.00102457
-2.05938e-05
0.000240588
-0.000298753
-9.13708e-05
0.00145844
-6.55259e-05
-0.00138985
0.00108947
-0.00137046
0.000657368
-0.00074479
8.67413e-05
0.000203092
-0.000188259
-1.48325e-05
4.9479e-05
-0.0012717
-0.00144497
0.00142538
-0.000874266
0.00153625
0.00169676
0.00125505
0.000810736
0.000835771
-3.67395e-05
0.000262302
0.000729884
-7.37039e-05
0.00100035
-0.000876202
0.00170619
-0.0016205
-2.62222e-05
0.00017334
-0.000257789
0.000506089
-0.00139593
0.00110327
-0.000518428
-8.93377e-07
-0.00162713
-8.2936e-05
-0.000431561
0.00128534
-0.000867837
0.000205782
-0.000230123
0.000310107
0.000181124
-0.000490482
-0.00150017
-0.000231455
-7.83375e-05
6.31546e-05
0.000885172
-0.000616766
0.000828647
-0.000355321
0.000177818
0.000177427
0.000239362
-5.96465e-05
-0.000179713
0.00189224
-0.000261742
-0.00162914
0.000975937
0.00015991
-0.000241366
8.14752e-05
-0.000461395
0.00059258
0.000780734
-0.000654839
0.000776026
-0.000589016
0.000215208
-4.29179e-06
-2.61484e-07
-4.86025e-06
-0.000533432
0.000527246
4.19248e-05
5.02306e-05
0.000266106
-9.18989e-05
-0.00076789
-1.98464e-05
-0.000105587
0.000292867
-4.12673e-05
-0.00136707
0.000855659
-0.000744097
-0.000112213
-6.79013e-05
-0.001701
-0.000780324
0.000839324
0.000428676
-0.000542095
0.000179487
0.000162183
-0.000341614
0.000864039
0.000909722
-0.000215518
-0.00172376
-1.49659e-05
1.75066e-05
-0.00167773
0.000185212
-0.000939626
-0.000134708
0.00108012
0.00158821
-0.0015714
8.72024e-07
0.00063313
0.00101749
0.000413559
-0.000781815
0.000362121
0.000499559
-0.000130155
4.80443e-05
-0.000708008
0.000497955
0.000240013
0.0013057
0.00125321
-0.00021014
0.000125437
8.47029e-05
-0.000213589
-0.000354924
0.000566053
-0.00131924
-0.000122958
-0.000667866
0.000292619
0.000375867
-9.91643e-05
0.000204492
-0.00026994
0.00152898
-1.75209e-05
-7.99267e-05
-0.00134756
0.00142006
-0.000366791
0.000493029
-0.000126806
0.000647422
-0.000241197
0.00017455
0.00115134
0.000804196
0.000205789
-0.00102366
0.00167228
-0.00124225
-0.000360184
0.000907099
0.000257621
-0.000118433
-0.000197054
-0.000254481
0.000451476
-0.00152282
0.000592372
-0.000321371
0.000357255
0.00200873
-0.0019294
-7.79373e-05
2.76572e-05
-0.000481507
0.000453805
0.00156713
0.000114355
-0.00167795
-0.00109053
0.000121384
-7.70487e-05
-0.00128339
0.00135523
-4.37387e-05
-0.00107509
1.61093e-05
0.000292603
-0.000233246
0.000113387
0.00075792
-0.000731236
-0.000406965
-0.000260602
-0.000862925
5.76292e-05
-0.00156339
-0.000235966
0.000160718
4.00652e-05
-8.82459e-05
-0.000652316
0.000732943
0.00128389
0.000292735
-0.00156871
0.00152576
0.00015707
-0.000233169
7.60992e-05
0.00134915
-0.0014361
0.000104768
0.00173956
-6.55867e-05
0.00109445
-0.000112656
-0.000986249
0.000673024
0.000963637
-0.00161952
-9.78949e-06
-3.51318e-05
7.43379e-05
0.0012827
-0.000172606
-0.000210201
-0.000277941
0.000105886
0.000229809
-5.78498e-05
-4.38037e-05
0.000360292
-9.97527e-05
-0.000110388
-5.30746e-05
-0.00035455
0.00051667
-0.000162443
0.00028446
-0.000137004
8.85014e-06
-1.88376e-05
-3.19911e-08
-0.00106482
0.000397492
-0.00155551
0.00110665
-0.000193962
-0.000310959
0.000110545
-0.00146268
-0.000114252
-0.000150345
0.000516516
-0.00061129
0.000511923
-6.59228e-05
-0.000447022
0.00148821
-0.00126734
-0.000220834
-0.000172675
0.000356436
-0.000183823
-0.000154958
0.000192306
-3.7349e-05
7.29256e-05
-0.000246713
0.000173786
0.000654559
-0.00077704
0.000120665
-0.00087597
0.000811632
5.99714e-05
-0.000138004
0.000595922
-0.000125783
-0.000177669
0.00178082
-0.000240253
-0.0015084
-5.94764e-05
0.00023959
-0.000180096
0.000192641
0.0002774
0.000389724
3.57334e-05
-0.000425643
-1.65462e-05
-0.000249564
0.000266054
0.000248225
-0.00035212
-0.00122821
0.000255223
0.00131189
-0.00105888
-0.000263133
-8.73327e-05
0.00166753
0.000222208
-0.000922683
0.000693225
-0.000124642
-0.000135213
-0.000145834
-0.000109493
0.000466434
0.00113068
-0.00163853
-0.000193579
5.80914e-06
0.000187772
-0.000170335
-0.00123808
0.000511968
-0.000165471
0.000345031
0.000286197
-0.000356301
-0.000127474
0.000413878
-0.00160273
0.00157777
0.000613602
0.000848952
0.000118445
-0.000976106
-0.00133772
0.00138492
0.000430873
-0.000113991
-7.8948e-05
0.00113294
-0.000961217
0.0001937
0.000100022
-0.000293747
-0.000581619
0.000100437
0.000718526
3.67368e-05
-0.00158762
0.000563341
-0.000410719
-0.000153241
7.93539e-06
0.000332913
-0.000527238
-1.20158e-06
0.00102544
-0.00103268
-0.000279597
0.000136629
0.000217119
-0.000325553
0.00010839
0.000173809
-0.000408237
0.000234324
-0.000711562
-0.000104423
-7.46399e-06
0.000135301
-0.00110192
0.00109161
-9.31326e-05
4.45093e-06
0.00157204
-0.00132216
-0.0001816
-0.000498953
6.41369e-05
-0.000703768
0.000961121
-0.00129829
0.00137365
5.95333e-05
0.000915375
-0.000981168
0.000169677
-0.000229323
-0.000969281
0.000842996
0.000115055
0.00011729
-0.00121661
0.00110841
0.000100998
-0.000302356
-0.00195676
0.00191979
-9.88004e-06
-2.01896e-06
0.0014579
-8.84984e-05
-0.00129741
-0.000417517
-0.000859171
0.00126966
-0.000175953
0.000176543
-5.9001e-07
0.000482031
1.95814e-05
-0.000196881
3.30188e-06
0.000389781
-0.000102628
-6.1941e-05
-0.00164823
0.00013675
0.000914385
-0.000125456
-0.000793159
-2.57934e-06
-9.10936e-05
0.00159306
-0.0013773
0.00142151
0.000141452
-0.00156922
0.000157872
0.000136096
-0.000294004
-0.000799614
8.3086e-05
-0.000934257
0.000910349
0.000695837
-0.000542013
0.000441427
-0.000141792
-0.000239477
-0.00158646
0.00116117
0.000269653
-0.000512977
-0.00157918
0.00140267
-0.00098863
0.000263137
-0.000294975
3.18421e-05
-0.000502248
1.35789e-05
0.000487985
0.000531685
-0.000992654
0.00119973
0.00135691
-0.00134553
-1.32732e-05
0.000169187
-0.000231289
0.000117368
0.000234936
-0.000352275
-0.000277108
-0.000197125
-0.000113253
0.000182856
0.00175347
2.00407e-05
0.000326226
0.00147636
0.000385693
0.00133427
1.27813e-05
0.000175613
7.97099e-05
-0.000857543
-0.000371552
-0.000174373
0.000545544
-6.41199e-05
0.000846501
0.00030677
-0.00143492
0.00114539
0.00140253
-0.000204251
0.000312486
3.20527e-06
-0.000414392
-0.00113851
-0.00043555
0.000463168
-0.000262824
-0.00141917
0.000173603
-4.16937e-05
0.000251772
0.000119207
0.000970194
0.00100873
0.00112484
0.000322815
-0.000264975
0.000119471
0.000110337
-0.000117647
-0.000748801
-0.00023013
0.00010094
0.00012919
-0.00155677
-0.000138139
0.00176208
-0.000740166
0.000113039
0.00110331
-0.00116948
-0.000267279
-0.000144827
-0.000246988
0.00207238
0.000136621
0.00066772
5.47653e-05
-0.000725107
0.000505136
9.47152e-05
0.000519808
-0.000615529
0.00027438
-0.000581161
0.000345812
-0.000180429
0.000375677
0.000344635
-0.000296643
-4.80137e-05
0.000273809
-0.00123798
2.57486e-05
-0.000330281
0.000304859
0.000206273
-0.000221417
0.00114805
-0.00103673
-0.000114972
-0.000104746
-0.000262415
-0.000454864
-8.41257e-05
-0.00146616
0.00172703
-0.00023142
-0.000892759
0.000826199
0.00067904
-3.76194e-05
0.000195254
-0.00165639
0.000777292
0.00146005
0.00144895
0.00102772
-0.000984882
-0.000120237
-0.00124845
0.00135496
-0.00155613
0.0012142
0.000351201
-0.00144684
-0.000271262
0.00012184
-0.000165663
0.000960403
-0.00109213
-1.85622e-05
0.00109631
-0.000399059
-0.00167826
0.000319458
0.00135081
-0.00146613
0.00141164
3.47803e-05
0.000667043
5.57695e-05
-0.000724172
0.000232352
-0.000398638
0.000166157
5.00493e-05
-0.000409366
-0.000549271
1.55557e-05
-0.000476508
0.000260265
-0.0001923
0.000174119
-0.000266947
9.28107e-05
0.000537
0.000299478
-0.00083553
-0.000138807
-9.80867e-05
0.000236894
0.000624312
-0.000304895
-0.000319684
9.77675e-05
0.00108451
-0.000213534
0.00109184
-0.00122547
0.000128021
0.000131557
0.000138415
-0.000269983
0.000218433
-6.1361e-05
0.000602831
-0.000181213
-0.000256994
-0.00175812
0.000142346
0.00109464
-0.00115002
4.8881e-05
0.000802641
-0.00127647
-0.000130184
0.000197851
-6.76672e-05
0.000140466