/*--------------------------------*- C++ -*----------------------------------*\
| =========                 |                                                 |
| \\      /  F ield         | OpenFOAM: The Open Source CFD Toolbox           |
|  \\    /   O peration     | Version:  v2012                                 |
|   \\  /    A nd           | Website:  www.openfoam.com                      |
|    \\/     M anipulation  |                                                 |
\*---------------------------------------------------------------------------*/
FoamFile
{
    version     2.0;
    format      ascii;
    class       volVectorField;
    location    "700";
    object      U;
}
// * * * * * * * * * * * * * * * * * * * * * * * * * * * * * * * * * * * * * //

dimensions      [0 1 -1 0 0 0 0];


internalField   nonuniform List<vector> 
9793
(
(0.960534 -0.0190643 -1.42135e-20)
(-0.102514 -0.0140488 0)
(0.991988 -0.00652599 1.9392e-22)
(-0.04071 0.00717585 4.1969e-20)
(0.999949 -0.000831361 -8.70253e-21)
(1.24564 -0.0216702 0)
(1.13209 -0.239686 0)
(-0.11774 0.0357652 9.106e-20)
(1.02296 -0.0407973 0)
(-0.0655767 0.00498412 9.63782e-20)
(1.00011 -0.00248481 8.80961e-22)
(1.00011 -0.00269164 7.16915e-21)
(1.00252 -0.00927873 8.92156e-23)
(-0.159649 0.0580139 0)
(1.02112 -0.0248307 0)
(1.0612 0.000901861 0)
(1.14978 -0.0674711 -3.69193e-20)
(0.994434 -0.00890344 -9.85417e-21)
(-0.0503841 -0.127119 3.52031e-20)
(1.01941 -0.00578832 3.46801e-21)
(1.025 -0.0110419 0)
(0.999992 -0.00019315 0)
(-0.0489207 0.0644757 -2.73281e-20)
(-0.106083 0.0326567 -1.09812e-19)
(-0.147643 0.0605076 4.54428e-20)
(0.9204 -0.0645697 1.44989e-20)
(1.00021 -0.00453694 -6.15641e-21)
(1.00003 -0.000605322 7.81727e-21)
(1.01923 -0.00611497 -6.84292e-22)
(1.17739 -0.142939 4.20326e-20)
(-0.326461 0.000475085 1.74245e-19)
(1.2848 -0.0387492 7.26977e-20)
(0.99642 -0.00419719 -1.65674e-20)
(0.997399 -0.00919207 -1.03657e-20)
(1.00588 -0.000564335 -5.14261e-23)
(1.08498 -0.0281948 0)
(1.05828 -0.00594354 -2.25663e-20)
(0.911017 -0.00245641 3.09271e-20)
(-0.112511 -0.0325585 1.31558e-22)
(1.08533 -0.0733076 4.24607e-20)
(1.16661 -0.140331 0)
(1.11139 0.0454125 -7.28737e-20)
(-0.122562 0.00824183 1.43677e-21)
(1.00002 -0.000432527 -1.02475e-20)
(0.99173 -4.99189e-05 -2.90243e-20)
(0.99639 -0.000791897 4.0206e-21)
(-0.272892 0.0320695 -1.29859e-19)
(1.00003 -0.000409332 1.5353e-20)
(1.0332 -0.00918775 -9.33205e-21)
(0.994162 -0.00837904 0)
(1.08448 -0.0251486 -2.5818e-20)
(1.00627 -0.000699025 0)
(1.11244 -0.0432248 -2.57215e-20)
(1.00001 -0.000823548 -7.48517e-21)
(0.904104 -0.128423 -5.91475e-21)
(-0.0488707 0.004388 -2.59886e-20)
(1.00286 -0.00842483 2.74964e-21)
(1.16756 0.0294847 0)
(1.03302 -0.0098424 5.20935e-21)
(1.00001 -0.000221671 -7.33411e-21)
(0.896779 -0.0229727 0)
(0.840654 -0.347266 1.64533e-20)
(0.993786 -0.00646577 0)
(1.08996 0.00634676 1.55929e-20)
(1.00331 -0.00132893 1.4767e-21)
(1.02206 -0.0392119 0)
(-0.23673 0.0111908 3.32071e-19)
(1.05662 -0.0468424 3.75153e-20)
(1.05843 -0.00325433 2.984e-21)
(0.0795437 -0.0311793 0)
(0.977688 -0.0118225 -1.54471e-20)
(0.578683 0.0113345 0)
(-0.167923 0.0450432 -1.98712e-19)
(0.878516 0.271729 5.42136e-21)
(0.232256 0.00941935 -3.15363e-20)
(0.999986 -0.00096144 1.7063e-21)
(0.800825 -0.144511 -9.44926e-20)
(0.905396 0.0218489 1.03858e-19)
(0.994471 -0.00368124 0)
(0.999982 -0.000728286 9.15084e-21)
(0.784741 -0.147266 8.52632e-20)
(-0.0492745 -0.119356 6.1525e-20)
(1.14412 -0.0617357 -3.84872e-20)
(0.982486 -0.0753503 -1.38301e-20)
(1.05934 -0.00437365 -3.10805e-21)
(1.27523 -0.157191 7.14507e-20)
(0.999973 -0.00091396 -1.12997e-20)
(1.12 0.0524521 0)
(-0.118657 -0.0267921 -2.92313e-22)
(0.825259 -0.328349 3.70748e-20)
(-0.0670777 0.0439757 4.80175e-20)
(1.37969 -0.187304 7.5214e-20)
(1.37574 -0.200435 9.66037e-21)
(1.09872 -0.123987 2.61407e-20)
(-0.109512 -0.0126681 7.13459e-20)
(0.99613 -0.0125308 0)
(0.282489 0.0177365 -3.36215e-20)
(1.14135 -0.089569 0)
(1.04583 -0.0687138 0)
(0.999966 -0.000681687 0)
(-0.142471 0.0164922 0)
(1.10809 -0.0441391 2.24068e-20)
(-0.00564868 0.316794 0)
(0.992317 -0.000132031 2.99345e-21)
(0.15934 0.0192447 -2.3544e-19)
(0.582828 0.040538 -1.71814e-20)
(0.937423 0.256699 -3.98641e-20)
(1.00508 -0.00730826 6.10448e-21)
(0.994449 -0.00329575 -1.09446e-20)
(0.999984 -0.00035192 0)
(1.00013 -0.00123476 -6.30553e-21)
(-0.0575516 0.0600491 -7.54371e-20)
(0.0910555 -0.136049 -2.72152e-19)
(-0.305322 -0.00585994 -2.26256e-19)
(0.978687 -0.0124247 2.68709e-20)
(0.999179 -0.003707 0)
(1.05051 -0.000228339 0)
(0.996788 -0.00176492 0)
(-0.0620383 -0.00885449 -5.48775e-20)
(0.995743 -6.73029e-05 0)
(0.079426 0.0194142 -9.50656e-20)
(1.12775 0.054514 -6.79582e-20)
(0.511422 0.0430882 -1.98218e-20)
(1.12201 -0.0195592 -1.02242e-19)
(1.05918 -0.00743678 -9.2584e-22)
(0.995943 1.30744e-05 0)
(1.15958 -0.081762 0)
(-0.305276 0.0003962 -3.007e-19)
(1.14525 0.12393 1.79312e-19)
(1.1397 0.129705 -1.90854e-19)
(1.05872 -0.0219796 0)
(1.00746 -0.015828 -1.92366e-21)
(0.962442 -0.0200416 -2.54326e-20)
(1.05071 -0.0422961 0)
(1.08002 -0.0311722 0)
(1.2115 -0.241171 9.20508e-21)
(1.25477 0.0277 5.21432e-21)
(1.05137 -0.000728676 8.96473e-21)
(1.00001 -0.000712779 0)
(1.16379 -0.0536864 -1.15701e-19)
(-0.0448753 -0.102995 1.26781e-19)
(1.08337 -0.0304853 0)
(0.984174 -0.0212281 4.8108e-21)
(1.11279 0.035791 6.0954e-20)
(-0.258455 0.037482 0)
(1.15335 -0.467737 -1.09218e-19)
(0.99595 0.000673579 -2.04104e-20)
(0.25317 0.0160824 0)
(1.00716 -0.0162132 -2.57593e-21)
(0.995772 0.000527286 2.29188e-20)
(0.99933 -0.00492687 -1.39665e-20)
(0.116108 -0.0711115 1.0457e-19)
(1.04338 -0.0661004 0)
(1.00012 -0.00455465 7.59292e-21)
(0.984464 -0.00285573 2.16459e-20)
(1.3778 -0.238227 0)
(1.15665 -0.0645059 6.4637e-21)
(0.993839 -0.00704259 5.89258e-22)
(1.2936 -0.0324257 -1.20401e-19)
(0.983873 -0.0119894 -1.01825e-20)
(1.11957 0.0441194 0)
(1.06026 -0.0235147 0)
(1.02466 -0.0115547 -2.66172e-21)
(0.586398 -0.445318 -8.27407e-20)
(1.03988 -0.0182264 8.27436e-21)
(1.12741 0.00384242 0)
(-0.0883081 0.298881 -9.14859e-20)
(1.04227 -0.0217543 -3.23948e-20)
(1.00512 -0.00669551 2.51666e-21)
(1.00004 -0.0020425 -5.98098e-21)
(0.983104 -0.0206832 -1.77626e-20)
(-0.223442 -0.0152498 -2.91696e-19)
(0.318973 -0.190281 -3.12613e-20)
(-0.169757 0.0435755 8.16669e-20)
(1.00278 -0.00969634 3.05629e-21)
(1.23695 -0.019915 0)
(1.03218 -0.376706 2.28539e-20)
(0.552521 -0.545751 -1.27283e-19)
(0.994005 -0.00448013 0)
(1.0577 -0.0418258 -3.88402e-20)
(0.23144 0.0347487 9.36805e-20)
(-0.278161 0.0298215 1.35841e-19)
(1.12872 0.061341 7.76899e-20)
(0.996057 -0.000763197 -4.74487e-21)
(0.997433 -0.00152427 -8.63716e-21)
(1.00531 -0.00711753 -1.58897e-21)
(0.652958 0.0526951 -1.21075e-19)
(-0.195099 0.0402424 2.03916e-19)
(0.830999 -0.413482 2.28002e-20)
(0.0420663 0.316551 6.84621e-21)
(1.01985 -0.0373432 6.52492e-23)
(-0.0907918 0.200384 -5.8796e-20)
(0.395709 -0.172082 -9.51202e-20)
(0.9104 -0.0263873 2.50291e-21)
(1.03521 -0.00723517 1.39772e-20)
(0.961495 -0.0557203 0)
(0.175482 0.0707463 -1.23201e-19)
(1.01678 -0.00605506 -1.80961e-21)
(0.994206 -0.00931035 6.23346e-21)
(0.999786 -0.00213512 -1.32551e-22)
(0.975152 -0.012558 -4.18684e-22)
(1.02722 -0.0101156 -3.94914e-21)
(1.08704 -0.019493 3.01458e-20)
(1.06645 -0.0158517 1.63946e-20)
(-0.0626778 -0.0773264 -4.95312e-20)
(0.980926 -0.00207484 0)
(1.075 -0.0678509 1.51579e-20)
(1.04327 -0.0206133 1.21803e-20)
(0.968931 -0.0321437 3.75594e-20)
(0.808364 -0.581661 0)
(1.15741 -0.0552629 4.62017e-20)
(-0.0469174 -0.0964049 0)
(1.01483 -0.0057348 1.39868e-21)
(0.0447603 -0.045467 5.25104e-20)
(0.977945 -0.075669 4.64735e-21)
(1.04732 0.0318502 -1.91137e-20)
(1.02116 -0.0258464 0)
(1.21571 -0.228065 -3.31473e-20)
(0.999264 -0.00354819 -2.11661e-20)
(0.73755 -0.0652815 0)
(1.14838 -0.0895409 -4.22694e-20)
(1.02708 -0.0106095 -7.11822e-23)
(0.356218 0.423528 0)
(-0.18366 0.0975675 -3.33005e-20)
(1.09128 -0.123374 0)
(0.995328 -0.0146455 0)
(1.13669 -0.0124311 0)
(-0.19883 0.168052 0)
(0.753595 -0.0931161 0)
(0.751456 -0.103953 0)
(-0.0814851 -0.0409381 4.29421e-20)
(1.14206 0.0994343 -1.52401e-20)
(1.05053 0.029405 -4.45597e-21)
(1.0925 0.00885561 -3.72571e-20)
(0.401367 -0.1474 1.67821e-19)
(1.03012 -0.00538264 0)
(-0.106368 0.122571 4.6616e-20)
(-0.283467 -0.00825299 3.44993e-19)
(1.01643 -0.00587148 2.32079e-23)
(0.99983 -0.00161111 3.04619e-22)
(1.19126 0.042852 0)
(0.987705 -0.0149138 0)
(1.0001 -0.00114998 1.16249e-20)
(1.16975 0.0474573 -9.4668e-20)
(1.18241 0.0419844 -1.3649e-19)
(1.02031 -0.039146 2.4624e-21)
(1.05966 -0.0406594 3.17844e-20)
(1.07904 -0.0684277 -3.16077e-20)
(0.95241 -0.181594 7.79122e-22)
(1.06132 -0.0334916 -8.38734e-21)
(0.993966 -0.00401052 0)
(1.07518 -0.170588 3.04364e-20)
(-0.0317262 -0.0974682 -1.72314e-20)
(1.02622 -0.0106569 5.07074e-21)
(-0.183118 0.0631215 -1.29622e-19)
(1.00004 -0.000990509 1.1401e-20)
(1.00009 -0.00313011 1.11038e-20)
(1.01304 -0.00109028 -1.49576e-21)
(-0.0513613 -0.00651038 -7.92031e-20)
(0.993127 0.00126919 1.38296e-20)
(1.3981 -0.233032 5.5072e-20)
(0.0707984 -0.0236531 0)
(1.00086 -0.00342761 0)
(0.999396 -0.00351408 5.79542e-21)
(1.39703 -0.111102 -3.25374e-19)
(1.01295 -0.000681361 -9.76911e-22)
(0.999945 -0.00145801 0)
(1.01371 -0.000641432 6.01989e-24)
(0.0431673 -0.0344185 0)
(0.588589 -0.408813 1.37871e-19)
(0.933693 -0.0594354 0)
(0.909816 -0.536199 0)
(1.16853 0.017931 -4.83193e-20)
(-0.0621887 0.303534 0)
(-0.0524059 0.102829 0)
(1.0432 -0.0232295 1.01826e-20)
(-0.0988457 -0.295767 -1.03375e-20)
(1.00002 -0.000923216 7.083e-21)
(-0.204128 0.171919 -9.3211e-21)
(0.384739 -1.20455 -1.53411e-20)
(-0.15373 -0.00103157 0)
(0.0954988 0.0167793 2.35905e-22)
(1.14487 0.0937678 0)
(1.05911 -0.0197872 0)
(1.13756 -0.0640908 7.81551e-20)
(1.06456 -0.0168568 -1.70142e-20)
(1.03604 -0.00627076 1.17688e-20)
(1.04553 -0.0158572 -7.26843e-21)
(0.837514 -0.550114 0)
(0.916908 -0.0677522 -2.10417e-20)
(0.999454 -0.00333693 0)
(1 -0.000138089 -4.47276e-21)
(1.0152 -0.00594484 1.67841e-21)
(1.0188 -0.000203423 2.62688e-21)
(1.02593 -0.0111529 0)
(-0.0664496 0.0935911 0)
(1.00519 -0.00845234 -1.00349e-21)
(1.01906 -0.0244968 4.05124e-22)
(1.01865 -0.000282124 0)
(1.00281 -0.00882686 -2.03309e-22)
(-0.0187195 -0.143185 1.01716e-19)
(1.16942 -0.45499 1.37801e-19)
(0.678052 0.0553178 -4.80364e-20)
(0.94497 -0.0178496 6.81082e-20)
(1.1175 0.0322764 -3.10915e-20)
(1.01791 -0.000183196 -1.572e-21)
(1.03473 0.215115 8.2729e-21)
(0.0174007 -0.0438651 0)
(0.992607 0.000443839 1.07328e-22)
(0.114461 -0.0152943 1.30615e-19)
(1.09056 -0.00108091 0)
(0.991398 -0.000485824 2.79221e-20)
(-0.046088 -0.00761455 -6.02089e-20)
(1.03138 0.230883 3.89713e-20)
(0.996763 -0.00434405 9.45233e-21)
(1.07577 -0.178609 1.79688e-20)
(0.35321 0.976265 -7.53171e-20)
(0.974304 -0.0293735 -7.68442e-21)
(0.82679 0.0108061 0)
(1.02018 -0.0241988 -3.92118e-22)
(0.968998 -0.0275209 0)
(-0.198079 0.164312 0)
(0.901266 -0.184566 -2.31997e-20)
(0.997482 -0.00867075 3.24776e-21)
(0.995628 -0.00118902 1.6244e-22)
(0.947737 -0.0170093 -2.57443e-20)
(1.09889 -0.37944 1.12664e-19)
(0.0911898 -0.223579 -7.47298e-20)
(0.991901 -0.00584708 -1.3033e-20)
(1.00523 -0.0077248 -3.71695e-21)
(1.02995 -0.0165337 -2.0262e-21)
(-0.231465 -0.0134427 2.58905e-19)
(-0.125939 -0.172259 1.01265e-19)
(-0.051381 -0.0355379 2.43414e-19)
(1.02928 -0.00606121 6.92015e-21)
(0.903088 -0.197311 2.33628e-20)
(0.821512 0.0197703 3.23999e-20)
(0.853244 -0.760327 6.75478e-20)
(1.16214 0.000824001 6.60424e-20)
(1.03102 -0.00355105 -7.2463e-21)
(1.03222 -0.00546481 7.75785e-21)
(1.02927 -0.0169551 2.1527e-21)
(1.13295 -0.0593069 -4.83256e-21)
(0.990472 -0.0387462 -7.51623e-21)
(-0.000661445 -0.0118765 -7.0141e-20)
(0.998297 -0.00325492 -3.77552e-21)
(1.00949 -0.0157321 2.06445e-21)
(-0.0240871 0.213216 -1.13391e-19)
(-0.0751972 0.0968556 6.70727e-20)
(0.0209191 -0.052653 5.19985e-20)
(1.01849 -0.000195968 -2.25613e-21)
(-0.135935 0.00983774 0)
(0.984594 -0.0859541 -1.13723e-20)
(0.23353 -0.680698 -1.89911e-20)
(-0.0260525 -0.00201106 0)
(-0.0739387 -0.0485399 -4.74242e-20)
(0.99498 -0.0730087 3.18582e-21)
(1.08801 -0.0764916 5.23536e-21)
(1.26025 0.0236128 -9.31653e-20)
(-0.0757587 0.0504285 0)
(-0.0582609 0.0473872 0)
(0.896324 0.0144992 7.93039e-20)
(1.00004 -0.000685443 -4.49733e-21)
(0.92881 -0.0592906 -1.59491e-20)
(1.03259 -0.00793439 0)
(1.00582 -0.00847302 3.91942e-22)
(0.989877 -0.0367745 0)
(1.00037 -0.00485712 1.01025e-20)
(1 -5.46999e-05 4.33374e-21)
(0.0635903 -0.0219427 0)
(1.00006 -0.00234586 6.66873e-21)
(1.16059 -0.0973007 -1.69075e-21)
(1.08592 -0.0646406 -2.31451e-20)
(1.17142 0.0864641 -7.55838e-20)
(1.03106 -0.00315438 0)
(0.984525 -0.0785465 -7.60119e-21)
(-0.0192937 -0.0489843 4.81638e-20)
(0.355247 -0.0474387 0)
(-0.179072 0.0667466 5.67161e-20)
(1.15745 -0.00205942 -2.12461e-21)
(1.00915 -0.014908 -2.09781e-21)
(0.997312 -0.0753441 0)
(0.992614 -0.00671288 1.06008e-20)
(1.24068 -0.342992 -9.1869e-20)
(1.01577 -0.00184657 0)
(0.0203892 -0.0513839 1.08375e-20)
(0.976166 -0.422723 -1.95848e-20)
(1.12132 -0.248098 1.23063e-20)
(-0.107612 -0.0267991 -5.09076e-19)
(-0.191933 0.17755 7.63019e-20)
(1.00067 -0.00284708 0)
(0.996559 -0.0146617 -1.01379e-21)
(1.2632 0.0328233 1.19761e-20)
(1.24992 -0.327434 2.17215e-19)
(0.981267 -0.00112117 0)
(-0.0975089 -0.000381433 -2.39282e-19)
(1.0007 -0.00301584 0)
(0.999726 -0.00273612 -1.02039e-20)
(0.506167 -0.890818 0)
(1.01487 -0.00547741 -2.87497e-21)
(1.17189 0.0238472 0)
(1.03002 -0.00596512 2.87884e-22)
(-0.117408 0.281106 5.38268e-20)
(0.998513 -0.00329119 0)
(1.04032 -0.0172649 9.84007e-21)
(-0.0194296 0.169396 1.67662e-20)
(0.603015 0.0120616 7.43354e-20)
(1.05259 0.0493748 0)
(0.910318 -0.0308864 0)
(1.00108 -0.00374319 -6.09593e-21)
(1.00174 -0.0209597 -7.12558e-21)
(0.429458 0.0353553 0)
(1.13782 -0.0973412 0)
(1.02602 -0.00710443 0)
(0.999631 -0.00194529 -1.11732e-20)
(0.894371 -0.127016 -2.58329e-20)
(0.82522 0.0386952 -6.21523e-20)
(1.04766 0.0473743 0)
(-0.261154 0.0343407 0)
(0.999717 -0.00222264 1.0357e-20)
(0.996983 -0.00946725 0)
(0.661606 -0.489908 -3.89208e-20)
(1.00115 -0.00367514 -8.04077e-23)
(-0.0376536 -0.0882695 1.73281e-20)
(0.599974 -0.540708 0)
(0.997166 -0.0014951 -9.16856e-21)
(0.997069 -0.00483882 0)
(1.0445 -0.0165576 7.02787e-21)
(1.00083 -0.00324519 0)
(1.02966 -0.0153302 1.65166e-20)
(-0.148966 0.0152875 0)
(0.735779 -0.0803527 0)
(1.38206 -0.106867 0)
(0.878215 0.0272174 -1.91881e-20)
(1.05136 -0.00652152 0)
(1.12285 -0.0242392 1.55787e-20)
(0.915115 -0.00147403 1.03328e-20)
(-0.070892 -0.000350345 0)
(0.90091 -0.0267767 2.54127e-20)
(0.999984 -0.0006806 8.11346e-21)
(1.05845 -0.04522 3.02204e-20)
(1.1753 -0.422908 -5.39039e-20)
(0.98017 -0.0150357 0)
(0.982777 -0.012119 6.93115e-21)
(0.976166 -0.0115343 2.26011e-20)
(1.01547 -0.00178179 0)
(0.999205 -0.00724909 -1.41203e-20)
(1.01675 -0.0265266 -1.22511e-22)
(0.996561 -0.00147926 4.60337e-24)
(1.00052 -0.00247642 8.66314e-23)
(0.971624 -0.0538853 -4.67056e-21)
(1.06452 -0.0195401 3.4977e-20)
(1.16664 0.0523784 3.33603e-20)
(1.01697 -0.000408637 0)
(0.211561 0.0942204 2.94294e-19)
(0.921099 -0.0534934 -1.25338e-20)
(0.987615 -0.450261 2.408e-20)
(-0.0577814 0.115284 0)
(1.03608 -0.0069334 -1.23845e-20)
(0.0375141 0.223564 1.89938e-19)
(1.12976 -0.226056 3.0925e-20)
(1.03513 -0.00794372 -2.87017e-21)
(1.01565 -0.00249241 8.90601e-23)
(0.984957 -0.0236929 1.0093e-20)
(0.18564 0.0666584 8.53798e-20)
(1.17238 0.0123997 -5.44963e-20)
(1.01586 -0.00233999 0)
(0.998714 -0.00247565 -8.76885e-22)
(0.999798 -0.00229434 -1.54862e-20)
(0.697464 0.111718 6.05856e-20)
(1.0232 -0.403097 -2.93286e-20)
(0.79067 0.0311942 -1.05349e-19)
(1.00308 -0.00130462 4.77491e-23)
(0.984589 -0.00201015 0)
(0.857392 -0.0488462 4.51029e-20)
(-0.290755 0.025895 0)
(-0.151453 -0.00249518 0)
(0.935049 -0.0313118 0)
(1.05424 -0.0182281 2.31267e-20)
(-0.17522 0.0738973 6.92964e-20)
(1.19216 0.00699174 -9.38032e-20)
(1.20684 0.0733088 0)
(0.977038 -0.034566 0)
(1.00845 -0.0158362 0)
(-0.0689584 -0.0743195 -9.49065e-20)
(0.994536 -0.0119217 0)
(1.0564 -0.371115 0)
(1.1488 0.0736465 -3.00064e-22)
(1.02562 -0.00662903 2.06802e-21)
(0.621555 -0.396264 -5.52819e-20)
(1.07025 -0.0628995 2.42212e-20)
(-0.117315 0.0182839 -4.0388e-20)
(1.00203 -0.020277 6.57626e-21)
(-0.0474076 -0.116702 0)
(1.2837 -0.0832671 0)
(1.06089 -0.000962364 0)
(1.39952 -0.0994768 1.55493e-19)
(0.995646 -0.0121422 -8.91484e-21)
(0.884019 -0.711262 0)
(0.998285 -0.00281768 -1.9275e-20)
(0.997714 -0.0145995 4.85963e-21)
(1.00004 -0.00189558 1.35705e-22)
(0.994577 -0.00769804 -9.69369e-21)
(0.156445 -0.00478988 3.39517e-20)
(0.996009 -0.0133095 0)
(1.03193 -0.0105809 0)
(0.948148 -0.0241176 2.77163e-20)
(1.0291 -0.00661235 0)
(1.00813 -0.0162404 -1.73007e-21)
(1.06253 -0.193671 2.57179e-20)
(0.985045 -0.0591438 0)
(1.0927 0.00165816 1.75192e-20)
(1.00194 -0.00397145 0)
(1.0018 -0.00387432 -2.76917e-21)
(-0.0242 -0.0550082 0)
(0.640224 0.0187437 1.33384e-19)
(0.937763 -0.030506 -2.65461e-20)
(-0.166565 0.0522827 -1.12893e-19)
(1.06256 -0.0203767 -3.25083e-20)
(0.98503 -0.0413367 0)
(0.99338 0.00164831 -1.59293e-20)
(1.03032 -0.0150001 -1.47024e-22)
(0.0373041 -0.041984 -3.5376e-22)
(1.03206 -0.00992182 8.82657e-21)
(1.00165 -0.000596138 9.17756e-22)
(-0.332132 0.0113555 1.63383e-19)
(1.16668 0.0380417 -8.57684e-22)
(0.964863 -0.183179 8.37871e-21)
(1.00253 -0.00890906 0)
(0.999991 -0.00037389 -1.07077e-21)
(1.03571 -0.0297524 5.07173e-21)
(0.999994 -0.00150145 0)
(-0.200133 0.0651697 -6.77125e-20)
(0.972316 -0.0295769 9.16582e-21)
(0.200771 0.318621 1.43189e-20)
(1.05824 -0.0103981 0)
(0.299865 0.411339 1.1575e-19)
(0.999975 -0.000913439 0)
(-0.339639 0.0158027 -1.29789e-19)
(1.00902 -0.000355781 3.11133e-23)
(1.1187 -0.392395 -5.95414e-20)
(0.993511 -0.0109566 0)
(1.08516 0.0886218 5.11698e-20)
(-0.0220608 -0.102347 1.06239e-19)
(0.99848 -0.00276676 0)
(0.870379 0.0574708 -8.1443e-20)
(0.990071 -0.0135787 0)
(1.00019 -0.000151941 0)
(1.02449 -0.0103174 0)
(0.399673 0.0550225 5.21816e-20)
(-0.0609274 -0.0728322 1.07866e-19)
(0.983869 -0.0229218 1.2178e-20)
(1.07392 -0.0638029 -1.23194e-20)
(1.03238 -0.00857234 9.22029e-21)
(-0.191677 0.0857825 7.09403e-20)
(1.01749 -0.000510181 0)
(1.08187 -0.167317 0)
(-0.0460761 -0.106812 -1.0743e-19)
(0.908225 0.000842359 -4.00758e-20)
(1.00215 -0.00100691 1.86125e-21)
(0.812591 -0.157952 3.3475e-20)
(1.00013 -0.000715454 5.83893e-21)
(1.03713 -0.0295811 -5.59746e-21)
(1.02893 -0.0186192 8.26053e-21)
(1.15866 0.0533209 -2.52156e-21)
(1.00343 -0.00362741 -2.61061e-22)
(-0.155668 0.100581 3.47018e-20)
(1.00162 -0.00388514 0)
(0.993403 -0.0409157 1.59129e-20)
(1.08857 0.0194076 -2.06034e-20)
(0.775126 -0.264929 3.38121e-21)
(1.25473 0.0700295 0)
(1.01836 -0.023429 0)
(-0.319181 0.0151871 -3.32791e-19)
(0.997092 -0.0151251 -4.0587e-21)
(1.04286 -0.423175 2.26834e-20)
(0.98633 -0.00752001 -8.88113e-21)
(1.04251 -0.0192991 -1.89707e-20)
(0.994925 -0.0124355 8.33786e-21)
(1.00156 -0.00392824 5.63433e-21)
(0.999974 -0.000745813 -7.61476e-21)
(1.03809 -0.444202 1.42979e-20)
(1.05445 0.0306487 4.40537e-21)
(0.799112 0.0563348 1.63718e-19)
(1.21599 -0.0998775 -6.08265e-20)
(0.834804 -0.0711082 -2.80161e-20)
(0.916197 -0.143458 0)
(0.57482 -0.861324 -8.40956e-23)
(1.05314 -0.043032 0)
(-0.202493 0.0593181 2.36173e-19)
(-0.130256 -0.0900521 1.19542e-19)
(1.11732 -0.416131 4.11749e-20)
(1.20577 -0.16844 2.37357e-19)
(1.22792 0.0720928 -1.44682e-19)
(1.07504 -0.389429 -4.33998e-20)
(1.03781 -0.0288415 1.14715e-20)
(0.0613218 -0.196374 -4.96015e-20)
(1.08546 0.0212748 0)
(1.04086 -0.0193355 2.17287e-20)
(1.13773 -0.428012 -7.30872e-20)
(1.00008 -0.000640513 -6.21932e-21)
(0.882948 -0.562365 0)
(0.970481 -0.169269 3.48447e-21)
(1.22328 0.0344182 0)
(0.883213 0.0182388 -5.4807e-20)
(-0.081022 0.092584 -1.24261e-19)
(-0.195592 -0.00441812 -8.20255e-20)
(1.08779 0.0146306 0)
(1.21707 0.034413 0)
(0.99981 -0.0017855 -1.25953e-21)
(1.06758 -0.541368 6.07463e-21)
(0.943794 0.00764459 0)
(0.993812 -0.0104642 0)
(0.987964 -0.0362586 0)
(1.04861 -0.00179647 4.26122e-22)
(1.13034 -0.0966714 0)
(-0.0880818 -0.0408201 -2.14104e-20)
(0.900739 -0.494593 4.77116e-22)
(-0.215857 0.0493835 1.08217e-19)
(1.04897 -0.0443519 -1.93776e-20)
(0.960774 -0.05843 1.72921e-20)
(-0.122585 0.023182 3.74426e-20)
(0.412457 0.0869777 -3.35387e-19)
(1.05228 -0.0204073 0)
(1.15403 -0.0132226 -2.04579e-21)
(0.967606 -0.0334882 2.52358e-20)
(0.251259 -0.792929 -1.93293e-20)
(0.0125842 0.184222 -5.33462e-20)
(0.997093 -0.00175052 9.25097e-21)
(0.681289 0.0684293 1.74575e-19)
(0.684817 -0.449582 0)
(-0.186885 -0.0415205 1.91488e-19)
(1.00341 -0.00118022 -2.20329e-21)
(0.926561 -0.0655829 -1.62744e-21)
(0.375194 0.0477697 1.34362e-19)
(1.0834 -0.0184163 0)
(0.763088 0.0583198 3.57346e-20)
(1.09353 0.0890806 0)
(1.19826 0.0928064 3.74042e-20)
(0.953682 -0.084553 0)
(1.05392 -0.04598 -2.46592e-20)
(1.02179 -0.0325754 0)
(0.985195 -0.0033547 -9.45907e-21)
(1.13373 0.154971 3.41871e-20)
(1.00001 -0.00041016 1.00755e-21)
(1.13895 0.162704 8.09771e-20)
(1.22975 -0.0713103 -5.94801e-20)
(1.09155 -0.266923 1.00741e-20)
(1.00004 -0.000310884 -3.65441e-21)
(1.00019 -0.00131203 0)
(1.05157 -0.00448858 0)
(1.04086 -0.00492794 9.83622e-21)
(1.00634 -0.00105732 0)
(0.987158 -0.0139848 8.28607e-21)
(1.20689 -0.101943 5.82442e-20)
(0.222102 0.0818829 0)
(-0.135383 0.0615999 -1.30378e-20)
(1.00002 -0.000417285 0)
(1.21937 -0.349641 2.58005e-20)
(1.00217 -0.00778025 0)
(-0.138977 -0.119595 -5.94311e-20)
(1.11215 0.0151606 8.04824e-22)
(0.783662 -0.11042 -7.38985e-20)
(0.828646 0.0292266 2.99757e-20)
(1.27952 -0.0741459 9.87695e-20)
(1.0098 -0.00585016 0)
(0.999275 -0.00511858 1.32822e-22)
(0.827796 -0.154231 -2.9145e-20)
(0.993808 -0.0118516 -1.12691e-20)
(1.03432 -0.0292239 0)
(1.1585 -0.0398787 0)
(-0.141276 0.042051 0)
(1.02775 -0.00995273 1.46998e-22)
(1.14337 0.14109 -3.34368e-20)
(-0.130638 -0.0143305 5.17956e-20)
(1.06288 -0.0354812 9.51795e-21)
(-0.207622 0.160687 0)
(-0.116154 -0.0176013 5.98424e-20)
(1.01728 -0.0276848 0)
(1.15134 -0.080952 -1.19863e-20)
(1.06296 0.00191129 -1.73303e-20)
(1.01843 -0.0371112 -2.22498e-21)
(1.02371 -0.0102885 0)
(0.621701 -0.150577 0)
(-0.143704 -0.00584712 -5.23911e-20)
(-0.170612 0.0562001 0)
(0.979142 -0.0162504 0)
(0.99535 -0.000854934 -5.16142e-21)
(1.02109 -0.0136192 0)
(1.05007 0.00139086 7.94223e-21)
(0.98815 -0.0587824 0)
(0.976364 -0.0717816 -2.27733e-20)
(0.496507 0.398007 -1.24211e-19)
(1.10886 0.0186412 -4.59318e-20)
(1.00056 -0.00264306 0)
(1.30888 -0.00364791 -8.60015e-20)
(1.08767 -0.0226752 6.39688e-20)
(0.845218 -0.0727609 -1.10665e-20)
(1.03435 -0.0277928 0)
(-0.366584 0.00153825 -9.66356e-22)
(1.05751 -0.0186542 0)
(1.0043 -0.00273005 0)
(1.10341 -0.264001 1.61523e-20)
(0.147499 0.0791625 3.13956e-19)
(1.02683 -0.00721186 0)
(0.996644 -0.00117389 0)
(0.993211 -0.00622819 0)
(1.05905 -0.00152344 0)
(1.00987 -0.00553795 3.65009e-22)
(1.09115 0.0129789 -1.96461e-20)
(1.26868 0.0122533 1.97962e-19)
(0.995985 -0.0445355 6.32966e-21)
(1.1565 0.0577485 6.71099e-20)
(1.05064 -0.0207894 0)
(1.03285 -0.0268759 6.53279e-21)
(1.25882 0.0649958 -7.98391e-20)
(-0.0852983 -0.126602 3.6283e-20)
(1.19937 0.109384 0)
(0.999474 -0.00495351 1.07764e-20)
(1.02795 -0.0071424 -1.78851e-21)
(1.0195 0.19019 0)
(0.90623 -0.0237189 0)
(1.17593 0.184536 -1.05012e-19)
(1.02662 -0.00598653 2.36137e-21)
(0.989189 -0.0136384 0)
(-0.294346 -0.00736936 0)
(0.133125 0.325819 0)
(1.08064 -0.0738465 -2.30214e-20)
(1.17048 0.0357032 0)
(0.686359 0.00820234 1.56671e-19)
(0.99591 -0.0151833 1.13518e-21)
(1.00003 -0.000265733 9.85205e-21)
(1.01494 -0.0364159 1.0102e-21)
(-0.0970368 -0.056968 4.79405e-20)
(1.00178 -0.000721953 -3.60537e-21)
(0.999996 -6.61942e-05 4.52265e-21)
(-0.0841113 0.0449321 6.817e-20)
(0.888433 0.0187257 4.07404e-20)
(1.28604 -0.15017 -1.93064e-19)
(0.836512 0.0116566 -5.78782e-20)
(1.00264 -0.00807644 0)
(-0.0684422 -0.134252 1.82754e-20)
(1.00003 -0.000796593 -1.50687e-20)
(0.988064 -0.00937779 -7.86281e-21)
(1.01369 -0.0358653 0)
(0.927203 -0.120406 -4.09682e-20)
(-0.029363 -0.00779542 1.14644e-20)
(1.00019 -0.00328173 -8.2936e-21)
(0.992587 0.0013747 -4.40847e-22)
(0.993446 -0.0123112 6.08307e-21)
(0.995361 -0.0137139 9.05341e-21)
(1.00236 -0.0081021 -6.6399e-21)
(1.02159 -0.033662 0)
(1.10974 -0.160014 -3.98962e-19)
(0.920331 -0.125617 3.40673e-20)
(0.971343 -0.0506357 -3.85673e-21)
(1.00038 -0.00425489 7.73897e-21)
(0.911351 -0.121145 0)
(1.16356 -0.0767457 0)
(1.05955 0.00183301 0)
(0.878528 0.0226329 4.09849e-20)
(1.00001 -0.000120688 0)
(1.02108 -0.0129931 0)
(1.00772 -0.0690717 0)
(-0.0461267 -0.0856399 1.12264e-19)
(-0.156949 0.105337 1.12789e-19)
(1.05001 -0.0062083 -1.60505e-20)
(-0.188658 0.052506 1.02786e-19)
(0.999775 -0.00168517 0)
(0.953039 -0.0792678 0)
(1.34064 -0.324941 9.23351e-20)
(0.153263 -0.188574 0)
(1.02254 -0.0233828 0)
(1.00008 -0.00286783 0)
(0.422086 0.183126 0)
(1.13565 -0.00845149 -4.44747e-20)
(1.00454 -0.00280276 -1.74025e-21)
(0.999954 -0.00125702 0)
(-0.135548 0.0891396 1.07165e-19)
(1.00003 -0.000193569 0)
(1.15931 -0.150082 0)
(0.996752 -0.00470954 5.0785e-22)
(0.346693 -0.0101521 9.93577e-20)
(0.999965 -0.00131977 0)
(1.01 -0.000231875 0)
(0.998859 -0.00260121 4.26916e-22)
(1.06229 -0.101301 -2.29645e-20)
(1.04013 -0.00459418 -9.21293e-21)
(0.935627 -0.0538236 0)
(0.900285 0.012095 -3.8309e-20)
(0.530985 0.0792718 1.00565e-19)
(1.00505 -0.00866735 4.77711e-21)
(0.999461 -0.00714048 1.09154e-20)
(1.00008 -0.000428702 1.28241e-21)
(0.998139 -0.0150593 -1.16738e-21)
(1.03836 -0.0264466 -1.406e-20)
(1.0388 -0.0117524 9.2746e-21)
(1.08784 -0.0689269 -1.88857e-20)
(0.998536 -0.00250999 9.33077e-22)
(1.12228 0.0187049 4.34335e-20)
(-0.169214 0.0714257 0)
(1.12699 -0.0609841 -3.56982e-20)
(1.16488 -0.0424927 0)
(0.999733 -0.00204268 -9.3248e-21)
(1.0296 -0.0181011 0)
(-0.278209 -0.00839482 1.94566e-19)
(0.684881 0.239539 1.39968e-19)
(1.02343 -0.00959537 4.16779e-21)
(-0.215922 0.137662 1.05663e-21)
(-0.329665 0.00137206 7.47043e-22)
(1.02816 -0.00749558 0)
(0.992317 0.000957585 -4.50033e-22)
(1.00181 -0.0132587 0)
(1.15702 -0.224255 9.00576e-20)
(1.12157 0.0230097 9.81385e-21)
(0.134101 -0.148254 0)
(1.00561 -0.00872295 -1.96945e-21)
(1.02641 -0.0852978 -3.13318e-21)
(1.00582 -0.00644429 -2.84195e-21)
(0.967953 -0.0292395 8.42317e-22)
(1.00913 -0.000317193 0)
(1.07408 -0.290414 -3.45936e-21)
(1.03863 -0.0253148 1.26099e-20)
(1.27191 -0.169191 2.53423e-20)
(0.999682 -0.00458763 -9.93867e-21)
(0.931718 -0.265463 1.63195e-20)
(1.00439 -0.00787891 1.24326e-22)
(0.964981 -0.0545335 0)
(0.986379 -0.00965518 0)
(1.05692 0.0267006 0)
(0.712271 0.11311 0)
(-0.318556 0.0098998 -1.46266e-19)
(0.353861 0.329862 6.34832e-20)
(-0.215872 0.138627 5.61936e-20)
(1.1321 -0.0162856 0)
(0.988809 -0.0147912 -7.02325e-21)
(0.590112 -0.802257 -2.96974e-20)
(0.0728124 -0.160641 2.71539e-19)
(1.12956 0.030526 0)
(1.03627 -0.0240624 -1.09763e-20)
(1.00026 -0.00481213 4.77656e-21)
(0.164112 0.196235 1.56423e-19)
(1.00208 -0.0138443 0)
(-0.033638 0.000443487 -5.7029e-20)
(1.03082 -0.00520123 0)
(1.07693 -0.000906286 0)
(1.04095 -0.0245098 2.0861e-20)
(0.999947 -0.000520242 1.37715e-20)
(1.0224 -0.0244701 0)
(1.06272 0.0521759 0)
(-0.0709108 -0.0500543 -9.91701e-21)
(-0.0371365 0.0150084 4.65901e-20)
(0.65694 0.026172 -1.74815e-19)
(-0.239519 -0.0141436 -1.71189e-19)
(0.994423 -0.00720127 9.63812e-21)
(0.0628737 0.0594081 9.94517e-20)
(0.500741 0.0370368 1.56255e-19)
(1.00003 -0.000136207 2.14362e-23)
(0.992558 -0.0390874 3.06477e-21)
(1.01126 -0.00778569 1.8688e-22)
(1.24493 0.0912776 -3.46275e-20)
(1.02489 -0.00663391 -4.59807e-21)
(-0.123453 0.0587678 0)
(0.849889 -0.0551267 4.84381e-20)
(1.22234 -0.0260843 1.36625e-19)
(1.00824 -0.0478422 4.10251e-22)
(1.28891 -0.362763 7.95836e-20)
(-0.231429 0.0341013 1.52774e-19)
(0.167237 -0.00361143 0)
(0.942132 -0.117705 2.05103e-20)
(1.0958 -0.0555817 3.45102e-20)
(1.00198 -0.00105211 2.27529e-21)
(0.45153 -0.160425 1.95182e-19)
(1.02627 -0.00507562 0)
(0.390412 0.274042 -1.67875e-19)
(1.25161 -0.0171113 1.48821e-21)
(0.817375 -0.264852 6.91833e-20)
(0.683401 0.0561883 5.55155e-20)
(0.103417 -0.022042 -3.96022e-20)
(1.05882 -0.033903 -1.38059e-20)
(1.01367 -0.0682986 1.90498e-21)
(1.00354 -0.0039206 -2.06007e-21)
(1.07284 0.0981531 4.7654e-20)
(-0.10849 0.0456648 1.84313e-19)
(-0.186779 -0.0208614 -1.49324e-19)
(1.01046 -0.00730667 4.42859e-23)
(0.202445 0.565487 1.19445e-19)
(1.05785 0.00113592 0)
(1.17801 0.047934 7.33826e-20)
(0.556552 0.0837884 1.09382e-19)
(-0.147687 0.0419237 -7.57883e-20)
(-0.147457 0.0471321 1.3923e-19)
(1.03229 -0.00490434 -8.2624e-21)
(0.918203 -0.0573167 -4.44006e-20)
(1.08884 -0.0136443 2.56563e-20)
(1.05798 -0.00894866 -2.23514e-20)
(1.05236 -0.00350839 3.54262e-22)
(-0.138574 0.107692 -1.13171e-19)
(0.999834 -0.00235909 9.50481e-21)
(0.73052 0.0108084 0)
(1.01731 -0.000423287 3.21876e-21)
(1.03162 -0.00449293 3.17033e-22)
(1.14055 -0.207301 3.55927e-20)
(1.17846 0.0359785 1.40884e-19)
(1.25267 0.0984547 6.77827e-20)
(1.04188 -0.0368213 0)
(0.874738 -0.407001 0)
(1.14212 -0.226455 0)
(1.30893 -0.286604 0)
(0.892188 0.0124626 -5.96096e-20)
(1.00015 -0.000643772 -2.33247e-21)
(1.04061 -0.0379871 -1.4003e-20)
(1.00018 -0.00065964 7.39096e-21)
(0.984637 -0.0110701 -9.0273e-21)
(1.30841 -0.305957 8.19599e-20)
(1.16143 0.180096 1.13572e-19)
(1.02471 -0.040995 3.37349e-21)
(0.985457 -0.00815509 0)
(1.09003 -0.00751395 0)
(0.193027 -0.193273 0)
(1.01891 -0.0925567 0)
(0.986129 2.82009e-05 -8.7544e-21)
(0.378298 0.0776923 2.41235e-19)
(0.993281 -0.00760823 8.82566e-21)
(0.999992 -0.000412383 -1.32124e-20)
(1.02676 -0.00546196 8.40063e-21)
(1.11349 0.0419321 -6.26084e-20)
(0.995989 -0.00117128 -1.57366e-22)
(1.06244 -0.00917627 -3.55625e-20)
(-0.0352063 0.07955 -6.75324e-22)
(1.16351 -0.09142 6.55645e-20)
(1.00574 -0.000198407 0)
(0.130709 0.540157 -1.2498e-19)
(0.565164 0.0336747 -8.43515e-20)
(0.993446 -0.00829901 -8.59358e-21)
(1.04925 -0.00728969 3.2276e-20)
(1.10221 -0.0502177 -2.23739e-20)
(1.00005 -0.000207814 -6.1173e-21)
(1.00175 -0.00746547 2.77668e-21)
(1.01803 -0.0215765 0)
(0.984725 -0.0855812 1.42322e-19)