/*--------------------------------*- C++ -*----------------------------------*\
| =========                 |                                                 |
| \\      /  F ield         | OpenFOAM: The Open Source CFD Toolbox           |
|  \\    /   O peration     | Version:  v2012                                 |
|   \\  /    A nd           | Website:  www.openfoam.com                      |
|    \\/     M anipulation  |                                                 |
\*---------------------------------------------------------------------------*/
FoamFile
{
    version     2.0;
    format      ascii;
    class       surfaceVectorField;
    location    "350";
    object      Uf;
}
// * * * * * * * * * * * * * * * * * * * * * * * * * * * * * * * * * * * * * //

dimensions      [0 1 -1 0 0 0 0];


internalField   nonuniform List<vector> 
27284
(
(1.22188 0.0922296 2.58934e-21)
(1.19804 0.094359 5.66529e-21)
(1.21094 0.111432 -1.46347e-21)
(1.0093 -3.8823e-05 3.81091e-23)
(1.00942 -4.08781e-05 4.72407e-23)
(1.00939 -4.69549e-05 -7.62058e-22)
(0.934842 0.0104212 2.59091e-21)
(0.936453 0.00159618 -2.66038e-21)
(0.943304 0.00756715 1.05754e-22)
(1.01079 0.000962826 0)
(1.01084 0.00104547 -3.49031e-22)
(1.01087 0.000962502 -5.25155e-22)
(1.03163 0.0183692 -4.33603e-22)
(1.02968 0.0226538 -3.34676e-22)
(1.02761 0.0185268 6.66091e-22)
(0.900591 0.0268405 4.66338e-21)
(0.909659 0.0389164 -9.72451e-22)
(0.886571 0.0357002 6.52257e-23)
(1.01205 -0.000640487 0)
(1.01219 -0.000574934 -5.17708e-22)
(1.01225 -0.000889104 -3.5038e-22)
(1.03605 0.0180815 4.09806e-22)
(1.03217 0.0143161 2.26438e-22)
(1.00505 1.38507e-06 -6.28126e-22)
(1.00626 0.000119097 6.40497e-22)
(1.00545 7.47448e-05 -3.61884e-23)
(0.999802 -0.0900857 3.24139e-24)
(1.00655 -0.0758946 -4.74678e-24)
(1.01773 -0.0827517 -1.17931e-21)
(1.00452 0.0185995 -1.35353e-22)
(1.00601 0.0190865 2.65375e-23)
(1.00555 0.0174729 -8.17006e-23)
(1.01971 0.0934574 -1.33778e-20)
(1.0232 0.092339 1.95652e-21)
(1.02043 0.0896134 1.92938e-21)
(1.01604 0.0941907 -1.84077e-20)
(1.01906 0.0970088 2.89308e-22)
(1.13177 0.140048 0)
(1.13449 0.108516 0)
(1.1365 0.115939 0)
(1.00745 0.000127889 -1.12173e-22)
(1.00795 0.000126606 -1.27411e-22)
(1.00775 0.000118053 -3.48375e-22)
(1.00981 -0.000185469 -3.52455e-22)
(1.00967 -0.000196335 -5.46761e-22)
(1.0098 -0.000212467 -2.69024e-22)
(1.01075 0.000871717 -7.79469e-22)
(1.0107 0.000935534 -1.52817e-22)
(1.00792 0.00757666 9.91376e-22)
(1.00768 0.00668054 1.45754e-22)
(1.0086 0.00681165 -5.22409e-22)
(1.0256 -0.0530985 0)
(1.03369 -0.0561968 0)
(1.03163 -0.0470856 0)
(1.01759 0.00192026 -1.86985e-22)
(1.01776 0.00143029 -1.14372e-21)
(1.01704 0.00153427 -4.69121e-22)
(0.983757 0.188166 -5.50166e-22)
(0.991448 0.181477 -1.69673e-21)
(0.994478 0.192329 4.37403e-22)
(1.02398 0.0119488 -1.27293e-21)
(1.02348 0.0117774 -2.1381e-25)
(1.02364 0.0123677 0)
(1.00842 0.00014256 3.10996e-22)
(1.00849 0.000132989 0)
(1.00841 0.000122035 -4.89535e-22)
(0.892754 0.0125278 2.00178e-21)
(0.909724 0.0176904 -4.89241e-22)
(1.00843 0.000162807 -3.29384e-22)
(1.00835 0.00014767 9.70879e-23)
(1.01013 0.00286619 0)
(1.0104 0.00273604 0)
(1.0102 0.00240303 0)
(1.01184 -0.000384057 0)
(1.01169 -0.000103416 2.2032e-22)
(1.01184 -6.65254e-05 0)
(1.01113 0.00174869 8.78198e-23)
(1.01125 0.00183368 2.0801e-22)
(1.01118 0.00185111 -3.91986e-22)
(1.0033 -1.44379e-05 -2.15267e-22)
(1.00477 -1.14142e-05 -3.06053e-22)
(1.00214 0.017203 -4.54122e-23)
(1.00332 0.0178349 -4.4068e-24)
(1.00321 0.0162535 4.71724e-22)
(0.765811 -0.0225702 -7.36237e-21)
(0.765012 0.0340454 3.03229e-21)
(0.758812 0.0055991 -3.97463e-21)
(1.00203 0.0596939 5.79304e-22)
(1.00494 0.0578424 0)
(1.00538 0.0614491 0)
(1.01152 -0.000132416 -2.47867e-22)
(1.0116 -9.75081e-05 -3.29996e-22)
(1.01169 -9.58003e-05 -3.16675e-22)
(1.00936 -0.000213211 -1.75993e-22)
(1.00932 -0.000199392 1.51959e-22)
(1.00923 -0.000201865 4.49636e-22)
(1.00632 -7.89172e-05 -4.07713e-24)
(1.00628 -9.26193e-05 -4.47492e-23)
(1.0048 -7.76439e-05 0)
(1.01324 0.00611123 9.2613e-23)
(1.01322 0.00585672 0)
(1.01348 0.00608089 0)
(1.04293 0.0227221 -2.84554e-21)
(1.04331 0.0226823 1.96784e-21)
(1.0429 0.022394 -5.08196e-21)
(1.01301 0.00615383 1.04849e-23)
(1.01331 0.00645017 9.31701e-23)
(1.00089 0.0162775 -2.41844e-23)
(1.0011 0.0182939 -2.69703e-22)
(1.01503 0.00985207 -3.01899e-22)
(1.01485 0.0100707 2.90607e-22)
(1.01478 0.00970139 4.70828e-22)
(1.01374 0.000195238 -8.26699e-22)
(1.01363 0.0002122 8.2716e-22)
(1.01204 0.000135424 -1.15625e-21)
(1.00364 0.019689 1.86403e-22)
(1.00938 -0.000226589 -7.34378e-22)
(1.00941 -0.000239203 8.98699e-24)
(1.00929 -0.000225525 6.23251e-22)
(1.00919 -3.478e-05 4.36703e-23)
(1.00908 -3.25509e-05 -4.74508e-22)
(1.00916 -4.00457e-05 -4.76483e-22)
(1.00922 -2.53238e-05 5.05929e-22)
(0.995807 0.149204 -1.81241e-21)
(0.999079 0.145929 -9.10009e-21)
(1.00056 0.151093 -1.63608e-21)
(1.01094 0.00213732 2.03033e-23)
(1.01103 0.00220876 -2.66628e-23)
(1.01101 0.00221408 1.3056e-22)
(1.01085 0.00207196 -3.29047e-22)
(1.01086 0.00206317 -9.44302e-23)
(0.769661 -0.0785388 6.65573e-21)
(1.01304 0.00118051 -3.16299e-22)
(1.01286 0.00114693 -1.53414e-22)
(1.01283 0.00107431 2.76705e-22)
(1.00675 -4.70679e-05 6.84974e-22)
(1.00608 -2.00251e-05 -5.77309e-22)
(1.0061 -5.30603e-06 1.51116e-22)
(0.968362 0.314164 -6.21759e-21)
(0.98163 0.304324 -5.57127e-21)
(0.983971 0.328295 -9.60329e-21)
(1.01327 0.00130625 0)
(1.01323 0.00117583 0)
(1.1051 -0.00514632 0)
(1.10603 -0.0109653 -4.61155e-22)
(1.09814 -0.00862179 0)
(1.01619 0.00311336 0)
(1.01619 0.00294891 0)
(1.01598 0.00298969 -1.09538e-21)
(1.01738 0.00241927 4.0439e-22)
(1.01824 0.00234815 7.825e-22)
(1.006 -9.32408e-05 5.08202e-22)
(1.00501 -3.89704e-05 -1.14216e-22)
(1.00505 -4.24348e-05 1.16712e-22)
(0.717965 0.0676564 -6.69155e-21)
(1.00987 0.0030107 -4.80103e-22)
(1.01016 0.00328004 0)
(0.967357 0.18385 -1.04241e-21)
(0.962336 0.186599 -5.25664e-21)
(0.970059 0.191657 -5.96969e-22)
(1.00948 -0.000225462 -5.98614e-22)
(1.01931 0.054957 1.09274e-20)
(1.02074 0.0576442 -1.48886e-20)
(1.02253 0.0545323 7.84715e-21)
(1.1022 0.00280174 2.59184e-22)
(1.11045 0.00151262 1.20606e-22)
(1.01588 -0.00189897 3.97409e-22)
(1.01533 -0.00177769 5.90989e-22)
(1.01552 -0.00148342 -3.62037e-22)
(1.01669 0.075044 -3.43474e-24)
(1.0203 0.0777979 -1.32153e-21)
(1.01965 0.0721538 1.01811e-21)
(1.00656 -4.65138e-05 -2.0832e-22)
(1.00725 -5.99491e-05 3.23439e-23)
(1.00704 -7.12449e-05 -2.64547e-22)
(1.02819 0.0210433 1.70381e-21)
(1.02865 0.0206228 -7.39639e-23)
(1.02885 0.0215221 -2.4897e-21)
(1.04254 0.0228202 4.292e-21)
(1.0429 0.0231888 -1.35539e-21)
(1.00956 -0.000170225 2.63674e-22)
(1.00952 -0.00016891 4.1095e-22)
(1.00944 -0.000164522 9.01971e-22)
(0.984452 -0.091939 0)
(0.974751 -0.101378 0)
(0.98669 -0.103001 -3.78862e-22)
(1.01162 0.000594179 -1.57638e-22)
(1.01173 0.000627068 1.61147e-22)
(1.01168 0.000631751 1.94048e-22)
(1.0162 0.00321265 -8.53632e-22)
(1.01638 0.00319148 5.88265e-22)
(1.00824 0.0495925 2.01613e-22)
(1.00548 0.0507715 3.46926e-22)
(1.00608 0.0476186 1.58211e-22)
(1.00743 0.00234763 2.39047e-22)
(1.00727 0.0035834 1.20735e-21)
(1.00842 0.00295312 -7.73356e-22)
(0.984403 0.0477605 -3.8621e-23)
(0.987298 0.0565523 -8.38827e-22)
(0.992212 0.0481226 1.99483e-21)
(1.00962 -0.000183061 -1.65614e-22)
(1.00959 -0.000175362 -4.04789e-22)
(1.00949 -0.0001736 5.07974e-22)
(0.703293 0.0651001 -5.52964e-21)
(0.703982 0.12164 -5.86069e-21)
(1.00965 -0.000196428 -1.97995e-22)
(1.00976 -0.000195751 -1.28406e-22)
(1.01151 0.000570609 -2.121e-22)
(1.01158 0.000556698 0)
(0.975883 0.0470573 -2.60924e-21)
(0.98272 0.0389648 6.9737e-22)
(1.02776 0.0216342 -5.68853e-22)
(1.02752 0.0207477 -6.55434e-22)
(0.960072 0.0178468 7.33933e-22)
(0.953081 0.024577 9.45868e-22)
(0.964936 0.0262518 -7.60781e-22)
(1.00969 -0.000181093 -1.01627e-21)
(1.0264 0.0244039 -1.94692e-22)
(1.0272 0.0246433 -1.22965e-21)
(1.0267 0.0252138 -1.36363e-21)
(1.05041 0.0446454 5.01267e-22)
(1.05249 0.0439448 4.94034e-22)
(1.05139 0.0462518 4.10853e-22)
(1.00436 7.6976e-05 5.16159e-23)
(1.00426 1.05363e-05 5.2956e-23)
(1.00296 1.80722e-05 -6.05024e-24)
(1.00793 0.00027501 -9.08801e-23)
(1.00682 0.000229109 -2.36948e-23)
(1.00661 0.00020973 -2.31133e-23)
(1.04617 0.0339554 -3.83983e-21)
(1.04545 0.0329348 -3.36324e-21)
(1.0467 0.0328274 -1.0304e-22)
(1.01041 0.00147491 -1.2339e-22)
(1.01036 0.00140043 -1.33409e-22)
(1.01031 0.00143915 2.1242e-22)
(1.04534 0.0350024 -6.75473e-22)
(1.04688 0.035014 3.83242e-22)
(0.946624 0.303556 -2.85661e-20)
(0.964815 0.266075 -7.55698e-21)
(0.985291 0.159686 0)
(0.983733 0.150051 9.86135e-23)
(0.994499 0.154221 0)
(0.956339 0.00721888 4.97336e-21)
(0.965778 0.0111799 6.36028e-22)
(1.0127 0.00113141 1.71341e-22)
(1.01288 0.00123771 6.17392e-22)
(1.06944 -0.145558 -2.28237e-21)
(1.05468 -0.143919 -2.20661e-21)
(1.07197 -0.121454 1.89585e-21)
(1.017 0.00011412 7.47303e-23)
(1.01749 0.000456331 -3.24537e-22)
(1.01771 -8.77775e-05 -6.85696e-22)
(1.00998 0.00145644 -1.00676e-23)
(1.00996 0.00145419 3.23788e-23)
(1.00989 0.00139251 -4.31441e-24)
(1.0165 -0.000126446 3.17464e-22)
(1.0163 0.000251922 3.17474e-22)
(1.03904 0.00714813 -3.60485e-22)
(1.03998 0.0043063 -5.0564e-22)
(1.04176 0.00749462 5.06088e-24)
(1.0218 0.0113795 -1.13076e-21)
(1.02221 0.011514 1.71551e-21)
(1.02195 0.0118079 1.75788e-21)
(1.04819 0.0446537 -3.98604e-22)
(1.04947 0.0425675 -9.01463e-22)
(1.01141 0.000552916 2.03421e-22)
(1.01145 0.000578103 -6.09995e-22)
(1.01254 0.00107336 3.37525e-22)
(1.01254 0.00102939 -5.05522e-22)
(1.01065 -0.000615192 -4.0433e-24)
(1.01071 -0.000668584 -3.60095e-23)
(1.01061 -0.000626433 2.01113e-23)
(1.02746 0.022071 0)
(1.02703 0.0225444 0)
(1.02678 0.0217937 1.33033e-21)
(1.00997 -0.000179785 2.41095e-22)
(1.00984 -0.00015496 6.28362e-22)
(1.01322 0.0783475 0)
(1.01301 0.0726653 1.53302e-22)
(1.08161 -0.138869 0)
(1.06254 -0.169814 1.57544e-21)
(1.04192 0.0273294 1.55417e-21)
(1.04222 0.0276407 2.34069e-21)
(1.04239 0.0271947 9.2e-22)
(1.00962 -0.000259627 -1.14799e-22)
(1.00973 -0.000274244 1.90715e-22)
(1.00957 -0.00026252 2.13372e-22)
(1.00678 -9.89147e-05 9.85688e-23)
(1.00676 -0.000107743 2.9833e-23)
(1.00454 -2.74887e-05 -1.93737e-22)
(1.00323 -2.16809e-05 1.51753e-22)
(1.00451 -3.54154e-05 -6.89322e-24)
(1.00104 0.0335851 -2.18569e-22)
(1.00121 0.0358703 2.64262e-22)
(1.003 0.0337997 2.75039e-23)
(1.02562 0.0241161 2.18609e-21)
(1.02611 0.0235838 -2.28372e-22)
(0.938491 0.126576 -2.03199e-21)
(0.944148 0.123894 -4.00175e-21)
(0.944482 0.131385 4.13685e-21)
(1.01466 0.031518 -1.42636e-23)
(1.01584 0.0309232 1.15852e-21)
(1.01468 0.0301656 2.5336e-22)
(1.0113 0.00053619 4.04011e-22)
(1.01137 0.000525768 2.40366e-22)
(0.966214 0.0454834 1.33519e-22)
(0.968407 0.0562588 -1.25352e-21)
(1.02379 0.0182605 -1.8314e-21)
(1.02336 0.0186487 -1.87833e-21)
(1.02316 0.017961 -1.27513e-21)
(1.02889 0.0201455 -1.37612e-21)
(1.02945 0.0205583 7.37614e-22)
(0.994824 -0.0840556 -6.01101e-23)
(0.983952 -0.0828117 -1.2056e-22)
(0.935008 0.017593 2.14199e-21)
(0.92753 0.0124662 -1.93957e-21)
(0.955325 0.325305 -1.61658e-20)
(1.05008 0.0345896 -6.0444e-22)
(1.05125 0.0355954 7.49108e-22)
(1.05176 0.0337367 -3.69456e-22)
(0.956824 0.041428 -1.1092e-22)
(0.967283 0.0354563 -5.34712e-21)
(0.985156 0.147623 6.53912e-21)
(0.982656 0.15311 4.47516e-22)
(0.979575 0.147753 1.65257e-20)
(1.01186 -0.000764623 1.27016e-22)
(1.01072 0.000786066 -3.05354e-22)
(1.01081 0.000807173 -5.71367e-22)
(1.22253 0.0860692 3.95457e-21)
(1.22402 0.0725113 -1.21168e-21)
(1.02216 0.00920523 2.62983e-21)
(1.02235 0.00951376 -3.59009e-21)
(1.02193 0.00943204 -1.7641e-21)
(1.00999 0.0014503 -4.11693e-23)
(1.01006 0.00151631 -3.09723e-24)
(0.950992 0.31864 8.54877e-23)
(0.955293 0.300079 3.95994e-21)
(1.01518 0.00520311 -6.5127e-22)
(1.01506 0.00502728 -5.75371e-22)
(1.01526 0.00511222 -6.97774e-22)
(1.02293 0.0208917 -1.76014e-21)
(1.02036 0.0218522 2.58869e-21)
(1.02131 0.0188123 -2.32548e-21)
(1.07807 0.0760844 -4.70379e-22)
(1.07678 0.0716671 -1.13364e-21)
(1.08232 0.0730909 -9.38585e-22)
(1.0104 0.00124771 -5.18423e-25)
(1.01046 0.00131764 -1.17558e-23)
(1.01052 0.0012712 -1.13049e-22)
(1.01934 -0.0575009 -3.25619e-21)
(1.01828 -0.0485292 0)
(1.0238 -0.09772 5.49935e-22)
(1.01125 -0.101046 2.88907e-21)
(1.01996 -0.112313 -3.94173e-22)
(1.01251 0.000854767 -4.09209e-22)
(1.01266 0.000905127 8.07306e-22)
(1.01258 0.00101105 -1.62098e-22)
(0.988706 0.170859 0)
(0.977344 0.166121 -3.5475e-23)
(1.03824 0.021287 2.8533e-21)
(1.03831 0.0208795 1.32203e-21)
(1.03873 0.0213292 5.07911e-21)
(0.995153 0.0143918 2.90537e-22)
(0.994598 0.0105596 -1.34685e-21)
(0.990723 0.0135733 1.26154e-21)
(1.01073 0.00206109 4.6784e-24)
(1.01067 0.00199349 5.83755e-24)
(1.01066 0.00200646 3.98627e-24)
(1.00481 0.384276 -1.6662e-20)
(1.00096 0.380095 -1.29077e-20)
(1.07328 0.079275 9.30426e-22)
(1.0794 0.0813051 1.283e-22)
(1.01391 0.000294992 0)
(1.01438 0.000325313 -1.21329e-21)
(1.01426 0.000348825 0)
(0.944614 0.182628 0)
(0.93681 0.181067 2.6563e-22)
(0.941044 0.175488 0)
(1.0127 -0.00192968 1.15224e-23)
(1.01252 -0.00187161 -4.97174e-24)
(1.01258 -0.00184249 -2.4303e-23)
(0.998865 0.0335701 -2.17966e-22)
(1.0007 0.0313728 2.46858e-22)
(0.930038 -0.0633153 -3.8574e-21)
(0.921562 -0.0629391 3.37524e-22)
(0.923528 -0.0428895 1.96444e-22)
(1.01107 0.0016641 3.00311e-22)
(1.01103 0.00167755 0)
(1.02917 0.0196329 7.59518e-22)
(1.02836 0.0197663 1.52441e-21)
(1.01239 -0.00137822 -3.97149e-22)
(1.01231 -0.00106368 0)
(1.01256 -0.00123674 -1.92733e-22)
(1.00468 -0.0011698 -1.92095e-22)
(1.0042 0.000488273 -5.46495e-22)
(1.00574 0.000205067 -8.22489e-22)
(1.00952 -0.000249754 1.71136e-23)
(1.00943 -0.000247873 1.29308e-22)
(1.00783 8.22201e-05 6.16838e-22)
(1.00795 8.26589e-05 1.41724e-22)
(1.00796 9.10925e-05 -7.54153e-23)
(1.01062 0.000759316 5.50875e-22)
(1.01064 0.000676797 1.73629e-22)
(1.00445 4.3134e-05 7.42313e-22)
(1.00521 -7.4854e-05 4.31688e-22)
(1.01078 0.0020896 -3.93686e-23)
(1.0108 0.002106 -1.92123e-23)
(1.0076 7.43981e-05 3.58309e-22)
(1.00757 5.87415e-05 -1.32497e-22)
(1.00724 0.0102053 0)
(1.00673 0.00935302 -3.80143e-22)
(1.00624 0.0103401 2.16182e-22)
(1.01511 0.00528235 8.08236e-23)
(1.01531 0.00536866 1.21571e-22)
(1.00969 -0.000258291 -2.55763e-22)
(1.00954 -0.000245243 1.84381e-22)
(0.999924 0.00404608 6.14529e-22)
(1.00017 0.00670215 -4.51959e-24)
(1.00218 0.00532514 6.16951e-22)
(1.00555 0.00635924 -2.72927e-22)
(1.00525 0.00514617 -7.2672e-22)
(1.00424 0.00614825 -6.33749e-22)
(1.00342 -0.0491221 5.13667e-21)
(0.995479 -0.0562484 2.95037e-21)
(0.99325 -0.0486056 -5.4737e-22)
(0.951478 0.185686 1.24141e-20)
(0.9465 0.191158 0)
(1.21837 0.147511 0)
(1.21226 0.164693 0)
(1.21147 0.164444 0)
(0.843648 0.233509 1.56827e-21)
(0.85428 0.236354 -3.21255e-21)
(0.844425 0.243971 -6.26882e-21)
(1.03812 0.0217552 2.49029e-22)
(1.03774 0.0212635 -2.06661e-21)
(1.0048 -5.49396e-05 1.69543e-22)
(1.00485 -5.69795e-05 2.33165e-22)
(1.00341 -3.67732e-05 -7.398e-23)
(1.02455 0.0230781 -1.21904e-21)
(1.02559 0.0204916 -1.99044e-21)
(1.00443 -5.68131e-06 -1.40614e-22)
(1.00448 -1.85548e-05 2.43299e-22)
(1.00299 -1.79122e-05 3.69787e-22)
(0.774901 -0.12749 2.95642e-21)
(0.763785 -0.0907721 -3.68813e-22)
(1.00555 -8.19247e-05 3.88371e-22)
(1.00558 -8.01467e-05 1.1446e-22)
(1.00416 -4.24432e-05 1.76619e-22)
(1.01328 0.000224708 0)
(1.01312 0.000228091 0)
(1.00445 -1.86262e-05 -4.69861e-22)
(1.00546 -7.48268e-05 -2.55369e-22)
(1.01126 -0.00107098 -1.65386e-25)
(1.01136 -0.00107976 6.26927e-25)
(1.01137 -0.00113552 3.03432e-23)
(1.03763 0.0109294 3.29284e-21)
(1.03828 0.0110801 -3.32469e-21)
(1.03782 0.0113947 5.25853e-21)
(1.0271 0.0336271 0)
(1.0279 0.0327462 0)
(1.02822 0.0344016 1.62232e-22)
(1.00435 -2.60186e-07 3.23493e-22)
(1.00437 1.26214e-05 2.10247e-22)
(1.00295 -1.38907e-05 4.66851e-22)
(1.00957 -0.0416671 1.91738e-21)
(1.01213 -0.0469586 2.95973e-22)
(1.02315 0.0110088 -2.48666e-22)
(1.02269 0.0108966 9.42117e-22)
(1.02292 0.0105637 1.63276e-21)
(1.01145 0.00221574 3.35558e-22)
(1.01156 0.00230352 2.33044e-22)
(1.0115 0.00220072 7.25542e-23)
(1.00563 -0.0310407 2.34358e-22)
(1.00935 -0.0269139 -2.60559e-22)
(1.00402 -0.0263461 9.41571e-22)
(1.01239 0.0010218 3.54253e-22)
(1.01251 0.00112155 -4.8666e-23)
(1.00515 3.67555e-05 5.70439e-22)
(1.00467 -2.62354e-05 1.04654e-22)
(1.00588 6.70538e-05 2.59677e-22)
(1.0444 0.0360353 2.30436e-22)
(1.04479 0.0373866 -1.2123e-21)
(1.04323 0.0370167 4.84295e-22)
(1.016 0.000968891 5.5339e-22)
(1.01596 0.00087732 1.28576e-21)
(1.01583 0.000920765 1.30337e-21)
(1.01148 -0.0001659 -9.01848e-23)
(1.01155 0.000167546 2.09351e-22)
(0.990755 0.148003 -5.67595e-21)
(0.987925 0.143274 -2.75118e-20)
(1.03787 0.00942097 6.38041e-22)
(1.03657 0.00643489 1.74531e-22)
(1.00961 -1.56728e-05 -1.16637e-22)
(1.00948 -1.75408e-05 1.45327e-22)
(1.00952 3.93271e-06 -5.6134e-22)
(1.0108 -0.000312619 -5.08078e-22)
(1.01086 -0.000298723 3.74035e-23)
(1.01099 -0.000317272 -1.16891e-22)
(1.01526 0.000224914 5.46303e-23)
(1.01516 0.00019537 1.14891e-21)
(1.01528 0.000181215 -8.21115e-22)
(0.92781 0.120297 -2.95109e-22)
(0.931857 0.112728 -3.40576e-21)
(0.922714 0.112835 -3.42426e-22)
(1.00727 -2.67835e-05 4.51865e-22)
(1.00724 -5.05286e-05 -3.17506e-22)
(1.15442 0.0717091 0)
(1.19615 0.105311 -3.84304e-21)
(1.17379 0.111919 0)
(1.00945 -3.0834e-05 7.76743e-22)
(1.00955 -4.53805e-05 3.78822e-22)
(1.11824 0.169117 1.46938e-21)
(1.11687 0.160687 9.80881e-22)
(1.01224 0.000939193 3.68028e-22)
(1.01227 0.000929956 -3.8486e-22)
(1.0126 0.00438911 -4.49382e-22)
(1.01211 0.00459737 -2.00124e-22)
(1.0124 0.00499249 -2.19727e-22)
(0.999631 0.0153619 -6.43067e-22)
(1.00087 0.0145451 -2.61804e-22)
(1.00447 -3.43815e-05 4.06853e-22)
(1.00486 -7.9709e-06 -1.00884e-23)
(1.00564 3.08618e-05 -2.77146e-22)
(1.21569 0.129905 -2.71969e-21)
(1.22076 0.120974 -4.05126e-21)
(1.0222 0.00792562 -1.70526e-21)
(1.02231 0.00769801 -9.48251e-22)
(1.02259 0.00795504 -1.92074e-21)
(0.833246 0.2298 1.53769e-21)
(0.844592 0.219822 2.62316e-21)
(1.01139 0.00220024 -1.92072e-22)
(1.01136 0.00209979 -1.87539e-22)
(1.01137 -0.000202455 -2.08726e-22)
(1.01122 -0.000229521 -5.64653e-22)
(1.01131 -0.000240565 -1.00772e-21)
(1.01202 -0.000254681 0)
(1.01212 -6.52342e-05 0)
(1.01217 -0.000318641 1.79991e-22)
(1.01819 0.00902675 -1.07985e-21)
(1.01813 0.00873707 -1.12134e-21)
(1.01792 0.0088714 -3.73378e-22)
(0.953863 -0.00950049 6.94814e-23)
(0.943592 -0.0084845 -2.45223e-21)
(0.953595 -0.00163672 -1.59379e-21)
(1.01331 -0.00321136 0)
(1.01378 -0.00382421 4.57464e-22)
(1.01299 -0.0038167 0)
(1.0129 -0.0026836 0)
(1.01351 -0.00275903 3.75396e-22)
(1.01281 -0.00203681 2.6151e-23)
(1.01288 -0.00200063 -1.27892e-23)
(0.784368 -0.16669 0)
(0.791893 -0.165431 0)
(1.02605 0.0345136 0)
(1.02615 0.0328251 0)
(1.04331 0.0193408 2.75906e-21)
(1.04298 0.0189402 -7.29546e-22)
(1.04282 0.0194019 0)
(1.02206 0.00818529 -2.51461e-21)
(1.02189 0.00840685 -1.66675e-21)
(1.02233 0.00846424 7.35094e-22)
(1.01099 0.00223534 -6.6407e-24)
(1.01099 0.00224644 -8.0321e-23)
(1.01107 0.00230951 1.09954e-23)
(1.0416 0.0268598 0)
(1.0413 0.0273313 -6.73683e-22)
(1.01054 -0.000501044 2.10173e-23)
(1.01049 -0.000540474 -4.84069e-22)
(1.01038 -0.000503472 -3.63615e-22)
(1.04505 0.0310953 0)
(1.0447 0.0320704 -1.73626e-21)
(1.044 0.031219 2.25286e-21)
(1.00902 0.00677285 4.3395e-22)
(1.00739 0.00669295 -1.01631e-21)
(1.00862 0.00517196 8.08024e-22)
(1.02486 -0.028815 -6.11135e-22)
(1.02561 -0.0342681 8.96895e-22)
(1.03044 -0.0293959 6.83439e-22)
(1.01748 -0.00486316 3.30341e-22)
(1.01654 -0.00445009 0)
(1.01688 -0.00566893 -2.45135e-22)
(1.01058 -0.000465077 1.36896e-22)
(1.01062 -0.000427069 -2.41059e-22)
(1.01046 -0.000429879 9.34071e-24)
(1.03441 -0.0916018 -2.21778e-21)
(1.02749 -0.0849889 2.17346e-22)
(1.14822 0.0799567 -1.80498e-21)
(1.15542 0.0899961 -3.30729e-22)
(1.14181 0.0919771 2.3959e-21)
(1.01642 0.0450699 4.42157e-22)
(1.01451 0.0462031 -3.35624e-23)
(1.01453 0.0438017 -3.28335e-23)
(1.01394 -0.00122784 2.21491e-22)
(1.01379 -0.000950486 0)
(1.01411 -0.00106014 0)
(1.02811 0.0223385 1.27077e-21)
(0.976485 -0.0614712 2.11944e-21)
(0.989115 -0.0634259 -3.40411e-21)
(0.981128 -0.0747849 1.3643e-22)
(1.01069 -0.000500288 5.04546e-22)
(1.00018 0.00157349 3.26245e-22)
(0.997267 0.0025629 -1.50161e-21)
(1.02343 -0.0240476 -2.63339e-22)
(1.01985 -0.0272663 -4.89501e-22)
(1.0326 0.00821497 -6.7592e-23)
(1.03253 0.00772479 0)
(1.03203 0.00797439 0)
(0.992745 0.153991 0)
(1.04742 0.0156744 -3.7899e-21)
(1.04807 0.0159153 0)
(1.04777 0.0151675 0)
(1.01268 -0.00219403 7.38886e-22)
(1.01237 -0.00252941 -2.3624e-22)
(1.0098 -4.29467e-05 2.17756e-23)
(1.0097 -3.13424e-05 -1.13021e-22)
(1.00968 -4.88841e-05 -2.56142e-22)
(1.03699 0.0108629 4.39531e-21)
(1.03741 0.0104817 3.98655e-22)
(1.01249 -0.00177388 1.10138e-22)
(1.0129 -0.00192644 5.28767e-22)
(1.01791 0.0440122 3.86003e-22)
(1.01949 0.0427006 -2.23389e-22)
(1.01778 0.0415945 -3.46886e-22)
(1.02177 0.00791995 1.02108e-21)
(1.01621 0.00281195 6.63627e-22)
(1.01623 0.00267589 -8.30872e-23)
(1.01601 0.00269609 -4.0016e-23)
(1.01092 0.00202418 -2.25961e-22)
(1.0109 0.00203562 1.29026e-22)
(1.01083 0.0019516 0)
(0.9607 -0.00960949 1.0733e-21)
(0.954864 -0.0174076 -2.16358e-22)
(0.932954 -0.00482599 -7.31248e-22)
(0.924044 -0.000922877 1.20199e-21)
(0.937045 0.00369896 2.51624e-21)
(1.0118 0.00060152 -2.85506e-22)
(1.01188 0.000631696 7.27342e-22)
(1.01182 0.000548086 -1.50317e-22)
(1.01645 -0.00194748 -3.40519e-22)
(1.01621 -0.0024283 0)
(0.933032 -0.0161618 -3.06072e-21)
(0.968069 0.0482555 1.58341e-23)
(0.964328 0.0513472 -1.24385e-21)
(0.969839 0.052835 -7.89258e-22)
(1.00995 0.00845062 9.39439e-23)
(1.0105 0.00678337 1.33845e-23)
(1.01117 -0.000997518 -3.47952e-25)
(1.01117 -0.00104761 -2.40827e-23)
(1.00095 0.00456687 -7.46035e-22)
(0.998674 0.00289582 8.77283e-22)
(1.00188 0.0017998 7.16944e-22)
(1.04714 0.0163973 -9.22638e-23)
(1.04676 0.0156255 -3.98913e-21)
(1.0137 0.000461941 -6.88499e-22)
(1.01304 0.000376046 2.06218e-22)
(1.01339 0.00046984 -1.81737e-21)
(1.01794 -0.00406493 -6.45019e-23)
(1.01871 -0.00521973 3.17582e-22)
(1.00962 0.00105893 1.25629e-22)
(1.00967 0.00112192 5.51986e-23)
(1.00959 0.00107053 9.08352e-23)
(0.938203 -0.0594249 -2.61363e-22)
(0.937807 -0.0798047 1.82995e-21)
(1.0395 0.0217686 0)
(1.03869 0.027408 -1.94113e-22)
(1.04471 0.025278 0)
(1.03834 0.0115643 -9.6925e-22)
(1.03791 0.0135232 -5.85188e-23)
(1.04022 0.0124195 -1.41405e-21)
(1.05115 0.0243842 0)
(1.05106 0.0248074 0)
(1.05169 0.024693 8.81845e-21)
(0.998418 0.0162737 -3.69211e-22)
(0.998351 0.0141824 6.22066e-22)
(0.990917 -0.0106077 6.62774e-22)
(0.988522 -0.00780935 -1.05868e-22)
(0.992287 -0.0069788 1.45857e-21)
(1.00258 0.0150581 1.56784e-23)
(0.999003 0.0150076 8.71525e-22)
(1.00166 0.0120519 -6.96533e-23)
(1.04107 0.00158565 0)
(1.0442 0.0015335 5.85836e-23)
(1.04256 -0.00205943 -6.33532e-22)
(1.00957 0.000998795 -4.47288e-23)
(1.00965 0.0010466 -5.80981e-23)
(1.01641 0.00293032 0)
(1.0114 0.000837539 3.71024e-22)
(1.01121 0.000512318 4.02437e-22)
(1.01147 0.000488656 3.92625e-22)
(1.00977 -0.000285886 7.15281e-23)
(1.00981 -0.000284877 1.96199e-24)
(1.00991 -0.000293918 2.92448e-22)
(1.0131 0.00421416 -5.4856e-22)
(1.01293 0.00376778 -5.04077e-22)
(1.04362 0.0197511 2.73846e-21)
(1.04381 0.0192799 -3.20337e-21)
(1.01065 0.00142273 -2.51617e-22)
(1.01075 0.0014811 2.90714e-22)
(1.01069 0.00139178 -3.99225e-22)
(1.0189 0.0088632 2.86401e-21)
(1.01909 0.00870224 2.18092e-22)
(1.01917 0.0090122 -1.13463e-22)
(1.01728 -0.0123116 1.04684e-22)
(1.01508 -0.0108806 1.02806e-21)
(1.01789 -0.0101482 -8.07162e-22)
(1.01035 0.00117741 1.61636e-22)
(1.0103 0.00121934 1.58555e-22)
(1.07659 0.0424973 3.43323e-22)
(1.07979 0.0404947 -3.8346e-22)
(1.07955 0.0450313 -3.91666e-22)
(0.874803 -0.266396 4.92707e-21)
(0.89076 -0.278228 5.11612e-21)
(1.01341 -0.00927429 1.37744e-21)
(1.01191 -0.00764877 3.50635e-22)
(1.01436 -0.0075098 -9.04914e-23)
(1.01847 0.00918881 4.12733e-22)
(1.01823 0.00934041 1.01569e-21)
(1.01203 0.0326566 3.94629e-22)
(1.0135 0.0320556 -3.53553e-23)
(1.01207 0.0312243 -1.54262e-22)
(1.00964 -0.000278588 7.40424e-23)
(1.00974 -0.000284277 -3.30813e-24)
(1.04613 0.030884 0)
(1.04718 0.0305652 -9.77962e-22)
(1.04708 0.0317577 1.69206e-21)
(1.02226 0.00689829 -2.16028e-21)
(1.02191 0.00688569 -1.74148e-21)
(1.02199 0.006637 -5.30716e-23)
(1.02555 0.0355551 -8.20812e-23)
(1.02516 0.036735 -6.17641e-22)
(1.02691 0.0364294 2.69796e-22)
(1.01436 0.000266846 -2.33326e-21)
(1.01361 0.000185502 -6.07849e-22)
(1.02459 0.034819 0)
(0.886082 -0.114246 -6.90157e-24)
(0.882951 -0.0822201 -6.19144e-22)
(1.01144 -0.000168953 2.53853e-22)
(1.01135 -0.000163266 -8.14861e-23)
(1.04056 0.0294445 -3.87967e-21)
(1.04121 0.0299042 6.26053e-21)
(1.04034 0.030418 1.63108e-21)
(1.02508 0.0172058 1.62239e-22)
(1.0252 0.0178855 -1.59649e-21)
(1.0246 0.0175125 -3.51262e-21)
(1.01968 -0.00158176 3.5775e-22)
(1.02061 -0.00118111 3.43474e-22)
(1.02067 -0.00221733 -4.21045e-24)
(1.00409 0.0182903 -4.46214e-22)
(1.00568 0.0151128 -2.99194e-22)
(1.00705 0.000108999 -1.33357e-22)
(1.00671 8.7467e-05 2.25392e-22)
(1.01076 -0.000334745 -2.56784e-22)
(1.01064 -0.000310875 2.38762e-23)
(1.07339 0.0404104 4.49063e-22)
(1.07324 0.0441079 4.57521e-22)
(1.01869 0.00903851 9.68921e-22)
(1.01863 0.00872089 -5.06918e-22)
(0.996285 0.0185446 -1.82981e-23)
(1.04376 0.022643 3.1482e-21)
(1.04387 0.0222814 0)
(1.04423 0.0226466 1.75443e-21)
(0.945368 -0.280312 7.32646e-21)
(1.04704 0.0277111 3.19551e-21)
(1.04802 0.0281666 2.5519e-22)
(1.04702 0.0285706 1.1872e-21)
(1.03559 0.0111681 1.0977e-21)
(1.01037 0.00559879 -2.01282e-23)
(1.01051 0.00472132 -5.03445e-22)
(1.01099 0.00524733 1.82342e-23)
(1.01979 -0.0137675 -8.36851e-22)
(1.0163 -0.0150061 8.56617e-22)
(1.01289 0.00100481 5.23674e-23)
(1.01267 0.000950699 -3.19504e-22)
(1.01277 0.00101108 1.93559e-22)
(1.04583 0.0134508 3.59257e-22)
(1.04528 0.0137399 4.73761e-21)
(1.04533 0.0130502 2.97447e-22)
(1.05127 0.0236704 -1.707e-21)
(1.0505 0.0239213 0)
(1.0399 0.0290385 -5.50055e-21)
(1.04071 0.0286364 -9.44198e-22)
(1.012 -0.0428751 -4.78674e-23)
(1.00348 -0.0450773 -1.62843e-22)
(1.00946 -0.036919 -3.17994e-21)
(0.896156 0.00680182 4.38141e-21)
(0.900161 -0.00189878 0)
(0.889709 0.00041798 -5.21965e-21)
(1.01167 0.00285002 1.17467e-22)
(1.01174 0.00292518 -1.05955e-23)
(1.01166 0.00284841 8.40738e-24)
(1.01273 0.0101235 2.54006e-22)
(1.01361 0.0104546 4.38112e-22)
(1.01287 0.01109 -6.02152e-22)
(1.09896 0.00826584 -5.88909e-22)
(1.09557 0.0136911 -2.2447e-22)
(1.10211 0.0145895 -2.14108e-22)
(1.01075 0.0331841 -2.16582e-22)
(1.0122 0.0340786 2.65779e-22)
(1.01167 0.00283348 -2.92879e-23)
(1.01158 0.00276476 4.96716e-23)
(1.01083 0.00207683 -1.18976e-22)
(1.01076 0.00200359 -1.26288e-22)
(1.01103 0.00197302 -1.79924e-22)
(1.01098 0.00198413 -3.32378e-22)
(1.01093 0.00188772 -1.09943e-22)
(1.04761 0.0418683 2.06187e-21)
(1.04874 0.0427065 -6.58176e-21)
(1.0473 0.0432217 -8.40046e-21)
(0.901636 0.013015 3.18577e-22)
(0.893058 0.0156613 -1.73824e-21)
(0.578014 0.0174018 1.88176e-21)
(0.568457 0.00253775 -7.67681e-22)
(0.625694 -0.000870289 9.34273e-22)
(1.02028 -0.0398859 -2.23595e-21)
(1.01721 -0.0489182 2.84768e-22)
(1.01215 -0.0113385 3.91882e-22)
(1.03851 0.0203777 7.07378e-22)
(1.03878 0.0199533 -4.71458e-22)
(1.03903 0.020607 2.5333e-21)
(0.970751 -0.0179041 6.63999e-22)
(0.967647 -0.0252212 9.28921e-22)
(0.976988 -0.0223351 -5.63886e-22)
(1.01236 -0.00181579 -2.89666e-23)
(1.01223 -0.00174064 9.63377e-23)
(1.0122 -0.00176123 -3.20606e-23)
(1.02204 0.00743285 0)
(1.02242 0.00743108 -2.01231e-21)
(1.03798 0.0202592 -3.34213e-21)
(1.01823 0.00456066 -1.05303e-21)
(1.01847 0.00457505 2.2887e-21)
(1.0184 0.00475904 9.62344e-22)
(1.01827 0.046257 4.2721e-22)
(1.00612 -5.98557e-05 -1.90034e-24)
(1.00731 -0.000120913 -2.56318e-23)
(0.915099 -0.0854325 -9.11003e-23)
(0.89808 -0.076728 -8.83656e-23)
(0.899325 -0.0959944 2.94972e-21)
(1.01017 -0.000139902 0)
(1.01012 -0.000170296 -1.2249e-22)
(1.01027 -0.000167649 0)
(0.943761 0.043417 -3.97586e-23)
(0.946727 0.0342859 -1.01509e-20)
(1.01469 0.000504612 5.18064e-22)
(1.01479 0.000566931 8.47362e-23)
(1.01466 0.000541412 -6.16717e-22)
(1.0153 0.00994063 -4.90457e-22)
(1.01515 0.0095824 -5.21056e-22)
(1.01065 0.00386879 -2.48469e-22)
(1.01137 0.00355942 3.8352e-22)
(1.01091 0.00290782 5.29666e-22)
(0.998052 0.0907479 5.31499e-21)
(1.00244 0.0902693 5.64223e-21)
(1.00013 0.0862917 -1.88468e-21)
(1.20204 0.201644 -9.30132e-21)
(1.20125 0.178073 -5.82967e-21)
(1.18625 0.19376 -6.77123e-21)
(1.0207 0.041459 2.78717e-22)
(1.02109 0.04374 3.2528e-22)
(1.02723 -0.0345914 -9.30573e-22)
(1.02304 -0.0317935 -3.81729e-22)
(1.01861 0.0122528 -8.62252e-22)
(1.01857 0.0118138 -1.13869e-21)
(1.01895 0.0121285 1.31214e-21)
(1.01052 0.00150116 -2.45025e-22)
(1.01046 0.00154547 -2.42313e-22)
(1.01798 0.00454283 -9.40939e-22)
(1.01805 0.00435603 -2.03323e-21)
(1.01752 -0.00456105 -4.35084e-23)
(1.01819 -0.00562765 0)
(1.0186 -0.00445774 -5.34839e-22)
(0.982283 -0.0937746 -6.02352e-22)
(0.993695 -0.107867 7.01112e-24)
(1.0106 0.00169639 -1.0648e-22)
(1.01063 0.00164955 3.82575e-23)
(1.01052 0.00162071 -1.52309e-22)
(1.01143 0.000645231 3.7068e-22)
(1.01078 0.00050062 -5.97663e-22)
(1.01155 0.000622321 -9.23012e-22)
(0.989897 -0.0237091 1.55074e-21)
(0.987227 -0.0299447 1.87511e-22)
(0.98231 -0.0242195 2.02568e-22)
(1.01953 0.011684 8.61354e-23)
(1.0199 0.0119054 1.00456e-21)
(1.01981 0.0114666 9.05092e-22)
(1.01067 0.00160849 1.60208e-22)
(1.01062 0.00153282 -3.4432e-23)
(1.01073 0.0015608 -3.29404e-23)
(0.97388 0.0684638 -4.07543e-21)
(0.970815 0.0724473 -2.12027e-22)
(0.975799 0.0732388 -1.53513e-21)
(1.0168 -0.00376743 -4.24583e-23)
(1.01654 -0.00452574 1.63819e-24)
(1.01097 0.00199745 1.40127e-22)
(1.01094 0.00200737 1.97443e-22)
(1.01088 0.00191873 3.11535e-22)
(1.01315 -0.000677141 4.77826e-22)
(1.01348 -0.000810129 2.90074e-22)
(1.0133 -0.000913761 -1.5886e-22)
(1.02405 0.0377186 4.33655e-22)
(1.02551 0.0388475 -8.70788e-23)
(1.01257 0.000505735 -1.57518e-21)
(1.01158 0.000457403 1.38148e-22)