/*--------------------------------*- C++ -*----------------------------------*\
| =========                 |                                                 |
| \\      /  F ield         | OpenFOAM: The Open Source CFD Toolbox           |
|  \\    /   O peration     | Version:  v2012                                 |
|   \\  /    A nd           | Website:  www.openfoam.com                      |
|    \\/     M anipulation  |                                                 |
\*---------------------------------------------------------------------------*/
FoamFile
{
    version     2.0;
    format      ascii;
    class       volScalarField;
    location    "350";
    object      ddt0(k);
}
// * * * * * * * * * * * * * * * * * * * * * * * * * * * * * * * * * * * * * //

dimensions      [0 2 -3 0 0 0 0];


internalField   nonuniform List<scalar> 
18355
(
-2.20311e-07
0.00114773
2.37035e-08
-1.25149e-07
-2.32299e-08
-1.56575e-06
-9.30647e-08
-8.8456e-07
-1.52803e-08
-0.000901511
-1.3432e-07
0.000819826
-1.82442e-06
-1.84136e-08
-1.07163e-07
-7.68344e-08
0.000465603
-9.57424e-08
-8.8391e-09
0.0253635
-1.01655e-07
7.09225e-09
-0.00542033
-2.61287e-08
3.15269e-07
-2.02761e-08
3.91792e-09
-2.76644e-08
0.000547537
4.28857e-08
-9.79598e-08
6.99954e-08
-9.82824e-08
-2.0907e-07
-3.77766e-07
-1.76371e-07
-2.11952e-08
1.66574e-06
-1.77996e-08
-1.41577e-07
-1.71517e-08
-4.08038e-07
2.05535e-08
-0.00204282
-1.5714e-07
9.99023e-07
-2.81477e-07
-1.49481e-08
-1.04891e-07
-7.9606e-08
-1.51529e-07
-6.27305e-08
-3.57031e-09
0.00408739
-4.98729e-08
-8.97116e-08
9.49276e-07
-1.06412e-07
4.11801e-07
-3.23355e-07
-7.70169e-08
-1.15902e-06
-1.01674e-07
-3.93488e-08
0.000655734
-2.19732e-07
-0.00176219
-4.29832e-08
3.3265e-09
1.64718e-08
-2.25686e-07
-2.04688e-08
-3.27223e-07
-7.20925e-08
-7.88981e-07
-9.15333e-08
0.0113573
6.52139e-08
5.22208e-07
-5.93421e-08
-9.24036e-08
8.25664e-05
-9.20148e-08
-1.5566e-07
-2.48123e-08
-1.8042e-06
0.00306081
0.026056
-0.000515574
-0.00134013
-0.000286393
-1.66838e-07
-3.18352e-08
-1.36961e-07
-0.00150756
-0.00512802
-1.1536e-07
1.64638e-07
0.00335667
0.000183833
-0.00278094
0.000260898
-3.06974e-07
0.00334365
-6.70097e-09
-3.31488e-06
0.0012044
-7.37521e-07
-1.11609e-07
2.30757e-05
4.11557e-08
-4.81408e-09
-8.52309e-09
-7.25333e-09
0.00715162
-1.0993e-07
2.29995e-06
0.0121457
1.06717e-06
-9.53188e-08
-0.000814628
0.00676702
5.62626e-08
-2.69229e-07
-1.14827e-07
-7.39952e-07
-7.19107e-08
6.19063e-09
-0.0325182
-1.38091e-07
-1.49226e-07
-0.0157517
-4.95662e-07
1.53376e-07
-1.30334e-08
-8.18161e-09
-1.00599e-07
-1.3557e-07
-4.98214e-09
-7.0999e-07
-0.00320127
-0.0035962
-4.20245e-08
3.8154e-08
1.08367e-05
2.12587e-08
-6.42452e-08
-0.000389772
3.401e-08
-0.00192346
-3.59054e-08
1.9149e-08
-1.72609e-07
-1.83819e-06
-1.0074e-07
-1.29257e-08
-0.014829
9.73589e-07
-1.17794e-08
-1.39522e-06
-8.70697e-08
-1.14985e-07
1.02115e-08
1.93659e-07
-7.76652e-06
3.33988e-05
0.00356709
-4.06342e-07
-4.99536e-06
-8.08569e-08
-0.00314556
-0.00476915
-1.25195e-07
-1.35627e-07
-7.87853e-08
0.00148404
1.3513e-06
-3.1025e-08
-0.000997711
0.00196565
4.24134e-06
-4.91087e-06
7.80282e-08
-1.0029e-07
8.95752e-06
0.00179127
-0.00425276
-1.47971e-05
-1.95511e-08
0.000402367
8.42923e-07
2.60672e-08
1.8106e-07
0.00824753
3.81912e-07
1.36294e-08
-0.00540518
7.94758e-08
-1.33598e-07
-1.31531e-07
-1.75145e-08
-3.14786e-08
0.00144424
-0.00409843
0.000557474
-9.64422e-08
3.96637e-06
0.00229739
0.000822675
-1.00341e-07
-8.76501e-08
-4.0868e-08
0.0234624
-3.34481e-08
-8.14965e-08
1.48109e-05
0.00479297
0.0231325
2.92994e-09
2.78536e-08
3.30268e-05
-1.18336e-08
-1.5152e-07
-1.0349e-07
0.00319314
2.28349e-08
0.00201552
0.00175013
5.15637e-06
-8.55789e-08
-4.31381e-09
5.12793e-07
-1.34893e-07
0.00234064
-1.02854e-07
-1.72394e-08
-3.42497e-08
-1.57197e-07
-0.00649752
0.000136869
-9.1853e-08
-4.38682e-06
-9.98593e-08
-7.29373e-08
2.29385e-08
0.00099151
0.00319643
3.3428e-06
-2.49217e-07
-7.54219e-08
-1.76904e-08
-6.55908e-06
1.11631e-07
0.00118499
2.74733e-08
0.00122934
0.00973054
-1.40812e-06
3.84534e-08
-1.52751e-07
-2.11844e-07
-4.10141e-07
0.00155761
-5.78753e-07
-1.01672e-07
-8.84643e-08
-1.38466e-08
-8.6468e-06
5.01162e-07
-1.27177e-06
-3.14779e-08
-0.00336087
-2.11096e-05
-3.07951e-06
-1.0656e-07
-0.0107779
-6.26932e-08
-7.40422e-08
-0.00886307
-1.85546e-07
-8.74435e-08
-3.05334e-06
-2.84429e-08
-0.00306107
1.1436e-07
-1.92708e-08
-1.88939e-07
-2.91208e-07
0.000951446
7.04652e-08
-1.38002e-07
-6.32737e-09
-5.10552e-06
0.00159827
-2.1035e-09
-9.99122e-09
0.0114718
-2.66413e-07
1.9064e-07
-1.92539e-06
-7.63121e-08
-3.85188e-07
2.44054e-09
-1.73432e-08
1.53565e-05
-9.959e-06
-2.4927e-05
-5.7397e-06
-1.39936e-07
-1.66143e-06
-3.59779e-08
-5.03668e-09
-0.013813
2.69662e-08
-8.40676e-06
2.54321e-07
-3.38116e-08
-1.53759e-07
-3.00101e-06
-0.00415709
0.00274469
-9.16361e-08
1.41362e-09
-0.00204933
-1.49216e-07
0.00396591
5.64609e-07
6.00093e-08
0.00716392
-1.43572e-07
1.22951e-05
1.26234e-08
-3.6212e-08
-7.49123e-08
1.45061e-07
0.00122036
7.8889e-10
0.000948994
-2.24635e-07
-2.01333e-08
-1.20106e-07
-1.23356e-06
-0.000327908
0.00718217
0.00783749
2.94849e-08
-1.14327e-07
-0.0051693
-1.06004e-06
-2.49751e-08
-8.91242e-08
-4.39154e-06
9.00846e-06
-9.49383e-06
-0.00553156
-1.98194e-08
-1.3642e-08
3.85958e-06
4.05678e-08
-9.91495e-08
2.84609e-06
-1.02207e-07
1.11579e-07
-0.00372781
-4.62904e-09
7.62007e-07
8.32233e-05
0.00038321
-1.4802e-07
4.03188e-08
-4.77936e-08
-1.0921e-07
8.49252e-07
-1.10732e-07
-8.30578e-09
-5.20881e-08
-1.26489e-07
-2.11026e-08
-1.69944e-08
-9.95627e-08
-3.85402e-08
-1.06277e-07
-1.0036e-07
-8.72291e-08
9.88871e-08
-0.0015035
-1.06149e-07
0.00266222
-4.24976e-07
-0.0019969
2.32749e-08
-8.48617e-07
9.09031e-09
-0.00190306
-1.93529e-08
-1.08452e-07
-2.10491e-08
-1.38701e-07
0.00539068
-8.34691e-08
-1.54793e-07
-4.62952e-07
-1.98344e-07
3.96895e-08
-1.51814e-07
0.00292302
1.37411e-08
-6.69963e-08
-1.55757e-06
-3.8646e-08
6.39606e-06
0.000277545
-3.02203e-05
4.99234e-09
-8.75874e-09
0.000799279
-2.01081e-08
-3.10824e-08
-4.0916e-06
-1.75094e-08
-1.22591e-07
0.000452447
-7.17665e-08
0.00125695
5.51328e-07
1.03324e-06
0.000351363
1.36752e-08
-4.61455e-08
0.015945
-1.59448e-06
-0.00277753
0.00269294
-6.13719e-08
-9.95851e-08
2.37936e-08
0.0249762
-4.18951e-07
-1.23998e-08
-1.7751e-08
-2.59379e-08
-4.41302e-07
4.60659e-06
-1.53478e-07
2.61424e-08
-4.38851e-09
1.62138e-08
-0.0010437
0.00215817
0.00126946
-0.00834862
2.23733e-08
-2.73377e-07
-0.00187887
-6.43859e-08
-8.59307e-08
2.28989e-10
-1.02502e-07
1.89615e-06
-6.69142e-08
-1.55713e-07
0.000163099
-3.12046e-07
-1.09509e-07
-0.000638441
-1.60822e-08
0.00117469
-2.79429e-08
-9.80526e-08
4.02456e-08
-9.1993e-08
-1.10083e-08
1.02427e-08
-7.40541e-08
-0.00338726
-9.48628e-08
-1.46351e-07
-0.000916903
-2.15247e-07
-8.42602e-08
3.01569e-08
1.17605e-07
0.00476319
-7.45871e-08
-1.16323e-07
0.000362454
-3.08915e-08
0.00029648
6.16778e-07
-1.02089e-07
3.00948e-06
-2.26224e-07
-1.0422e-07
0.00183841
-0.00352119
0.00263599
-1.00587e-07
-1.20924e-07
-1.3606e-07
-4.58033e-06
6.57982e-09
-0.00228547
0.0211982
0.00257694
-0.000297918
-1.40102e-07
6.46548e-07
0.00345399
-0.00514262
0.0184599
3.34715e-08
-1.20348e-07
-1.14629e-07
-0.00270837
0.000254756
0.000316951
2.0336e-08
-2.1259e-08
-1.09376e-08
-1.06754e-07
-7.3547e-08
0.017747
-9.2927e-08
0.00906672
2.15122e-08
-1.54795e-08
-1.39502e-07
-3.86979e-08
-1.61526e-07
-0.00152171
-5.28492e-08
-3.02321e-06
-0.00228392
5.46198e-07
3.69032e-08
-2.56546e-08
7.19381e-07
-1.16433e-08
-1.76661e-07
-1.05133e-07
4.77311e-07
-6.55664e-07
-9.68466e-08
-1.06713e-07
1.78599e-09
4.7111e-09
-1.17619e-07
1.19691e-07
-1.18264e-06
-2.18114e-08
-2.91558e-08
0.00557003
-1.45901e-07
3.5569e-08
2.66097e-09
-6.3192e-07
-2.26785e-08
0.00468024
-7.23019e-08
-0.00155747
-4.7127e-08
-1.15774e-08
0.0128998
0.00381466
-0.00323821
5.85369e-07
-8.12787e-08
-9.95221e-08
-3.77218e-08
-1.93116e-06
-3.30008e-07
-2.12615e-07
-7.79819e-07
-0.00341169
-1.2828e-06
-1.50665e-07
0.00332641
-0.0156941
3.54406e-08
-2.05959e-08
-2.49307e-07
-0.0013713
-1.57766e-07
-2.19144e-08
2.42603e-07
-5.0783e-07
-2.34589e-07
-5.84136e-08
1.46294e-05
1.35649e-07
-2.76115e-06
-0.00138261
-0.00859246
-0.00908666
7.3792e-07
-7.14238e-07
6.19732e-08
-9.0367e-08
4.97967e-08
4.06549e-08
-8.03583e-06
2.89217e-05
0.00204103
9.51794e-07
0.000446186
0.000667214
1.97208e-06
-8.27086e-08
0.000959701
-0.00287576
-1.41566e-07
-3.49832e-06
-0.00205379
-0.0254566
-1.06931e-07
-1.48079e-07
1.33434e-07
2.19278e-07
7.11311e-07
-1.61611e-06
2.996e-08
-0.00128684
-8.31469e-08
-7.04931e-08
-0.00278812
-1.05232e-08
6.05457e-08
0.0214527
-5.69463e-08
-1.11494e-07
-0.00404672
-1.43287e-07
-3.12132e-06
-1.44176e-07
-0.00205849
5.86136e-07
2.64209e-07
-6.4432e-07
-1.14778e-07
-4.44925e-06
5.90828e-09
-0.00535271
-3.18454e-07
-8.40264e-08
-0.00187296
3.48208e-07
-0.000120851
0.000871604
0.000395629
-9.32923e-05
3.73118e-08
-1.30996e-07
-0.00357453
-2.7411e-08
-1.85139e-07
-3.67242e-08
6.20717e-08
-0.00948408
-0.00313503
-2.95791e-08
-0.00106619
9.75902e-07
-1.10143e-07
-1.49074e-07
-3.47843e-08
-4.94274e-07
-1.71741e-07
-1.28179e-07
-0.0291236
-1.33107e-07
-3.19773e-07
-1.58842e-07
0.00133894
0.00253503
4.49143e-08
-1.43697e-07
-1.40433e-06
-2.01317e-08
-1.05269e-07
0.00167339
-8.89024e-06
9.8299e-09
-3.3114e-08
-1.05384e-06
-1.69493e-07
6.02762e-07
-1.4206e-07
-3.81186e-08
0.00424797
-7.17566e-07
2.89372e-08
1.03793e-05
-0.00466887
-9.34589e-08
-0.00257598
-1.26276e-07
-6.14436e-08
2.31174e-09
-5.89983e-07
0.00262568
-2.02784e-07
-0.000917037
-8.84824e-08
0.0131522
0.000312053
4.29253e-08
0.00045809
4.11954e-08
0.00021422
3.23912e-08
0.000749736
0.00112298
-9.99501e-10
-3.15581e-06
-1.18469e-07
-5.0391e-08
-0.0115599
3.89572e-07
0.000809369
-7.65396e-08
0.00470172
1.93484e-09
-0.00191351
-4.31393e-08
-9.0559e-08
6.48005e-07
-6.3882e-08
-1.69143e-07
-2.7213e-07
0.00297863
-0.0219709
-9.77509e-08
-1.15582e-06
4.19543e-08
-6.2122e-08
-1.4005e-08
-5.34662e-08
-4.91859e-06
-0.00512616
-1.72559e-07
-2.75815e-07
4.20687e-09
0.00599149
-9.85331e-08
2.95499e-08
-5.82939e-08
-9.55035e-08
-6.1656e-08
-0.00111947
-5.66557e-09
7.8754e-06
-5.13086e-07
-0.0168449
0.00245302
-0.00173706
-1.63055e-07
9.85123e-07
1.91094e-08
-1.04002e-07
1.4209e-07
-0.00211971
-1.13517e-07
-9.71716e-08
-1.6843e-07
-0.00275128
-2.98386e-08
-8.68567e-08
-1.85697e-07
-1.03527e-07
-0.0040615
0.00119225
-7.98831e-08
-2.1097e-08
-0.004086
3.01366e-08
0.000285967
0.00169416
0.00256895
-2.40323e-06
1.67076e-06
0.0259337
6.50122e-07
6.629e-09
-7.07163e-08
9.56226e-09
1.54324e-08
-2.75261e-08
1.15965e-08
-0.0145729
-0.00205769
-1.07016e-07
-3.04388e-07
-1.3125e-07
-1.09597e-07
-3.13467e-07
-3.86825e-08
-6.79975e-08
-1.08774e-07
9.72513e-06
1.98058e-06
-5.70368e-07
0.000801849
-4.27852e-07
-0.00220538
-7.97784e-07
0.020831
-0.00156498
-7.18687e-07
0.000290895
-1.43376e-07
0.000891832
-9.27239e-08
-5.8471e-08
-8.88589e-08
2.13186e-07
0.0205037
-8.89852e-08
4.63268e-09
-1.56458e-06
-1.35811e-07
-3.61092e-07
1.87507e-07
-2.93614e-08
0.0233722
-7.23793e-08
-1.80429e-08
-1.82681e-06
-1.17606e-07
-7.7995e-07
1.06378e-05
2.44239e-09
9.09561e-09
-6.10541e-08
-2.15482e-07
-1.0794e-07
-1.11847e-07
-0.000576141
-1.1466e-08
-0.00510972
-9.9803e-08
-0.00559277
2.18189e-07
-4.64159e-07
-8.14338e-08
7.90877e-07
-3.30153e-07
-8.67745e-10
-4.22403e-09
-0.0054851
-1.42749e-08
0.000955181
0.00113276
-2.93862e-08
-7.45372e-08
-4.72404e-08
-1.58368e-07
0.00212392
-3.20904e-08
-0.00593988
-0.00163672
-1.93573e-07
0.00163078
-2.14295e-07
1.78396e-08
0.00276611
-0.00149928
-1.57331e-08
-8.05957e-08
3.96054e-08
-8.00063e-08
5.35341e-08
2.2043e-07
1.43446e-05
-1.18659e-07
-0.000587823
-8.34628e-07
0.00270581
-2.72057e-08
-8.60501e-08
-0.000983933
-0.00356591
-1.85637e-07
-7.63205e-08
3.2836e-08
-0.00280093
-6.8903e-08
-0.00178469
1.038e-06
-1.70695e-08
-1.42475e-07
-1.62543e-07
-1.60247e-07
-1.17418e-07
-1.40769e-07
-1.52571e-07
2.76051e-08
-0.0024489
-2.46343e-08
1.47369e-06
-0.00122291
3.47383e-08
-3.65496e-08
1.33283e-07
0.000171567
-1.39947e-08
-0.00388201
-1.70022e-08
-1.4921e-07
-1.36183e-08
0.000420394
3.2742e-05
-1.91669e-07
-2.32044e-07
-6.20573e-08
8.44044e-09
-0.00360493
-1.28298e-07
0.0232945
1.87169e-09
0.00174133
-3.78854e-08
-1.28009e-07
2.21886e-06
2.81343e-08
-0.00227891
-6.19601e-08
-1.23692e-05
-1.55027e-08
-8.81995e-08
-1.81524e-08
8.6522e-07
0.000803661
-1.80222e-07
-5.55102e-08
5.17609e-09
-7.75702e-08
-1.30041e-07
4.63095e-09
-2.33056e-06
-5.89025e-08
0.0161432
-1.07197e-07
0.000136125
-9.52678e-08
-1.58788e-07
-2.27504e-05
-0.00118525
-0.00267741
-9.3704e-08
0.00396907
-9.39913e-08
-0.00163362
5.53579e-09
-2.41743e-06
-6.52066e-08
0.00282244
1.10712e-08
-1.16599e-07
-1.7674e-08
3.43674e-08
-1.10721e-08
0.0110142
0.00481919
0.00521043
-2.65895e-08
2.56017e-07
-1.18991e-07
-8.84491e-08
-1.39293e-07
-1.35277e-07
-8.49581e-08
-8.36338e-07
-4.63913e-08
-0.00177429
-1.06637e-06
-8.34002e-08
-2.84965e-09
-0.00156735
-2.18102e-06
-2.93824e-08
-1.13641e-07
6.47163e-08
0.000860477
-4.07342e-07
-0.000875621
1.1591e-06
-6.58622e-07
-7.21726e-06
-4.70024e-09
4.14681e-09
-1.5651e-06
-1.39035e-07
-9.06028e-08
-0.00295143
-2.01978e-07
0.000542985
-5.89002e-08
2.58819e-05
-3.44895e-07
-4.62241e-07
-7.38717e-08
-1.36727e-08
-0.000290233
-8.61302e-08
-0.0013874
1.07343e-09
-1.38407e-08
0.000543908
5.51514e-09
4.1156e-07
-0.00952909
-2.57051e-08
-6.54101e-06
-0.00148683
-2.02734e-08
-2.83579e-07
-0.00117998
-6.18629e-08
4.14282e-09
-8.26965e-08
7.30254e-08
-2.6611e-08
-3.78283e-07
0.0145518
6.01523e-08
-1.26763e-07
0.00223183
-1.55179e-07
0.000210514
2.11173e-07
-1.09371e-07
-0.00109708
2.59559e-05
-1.47026e-07
-3.3039e-08
-3.96877e-08
-1.10158e-07
-1.19344e-07
-0.010275
-6.768e-09
4.71092e-07
-1.53247e-07
1.14223e-06
-1.06666e-07
7.70313e-06
-1.11625e-05
1.64826e-08
-0.000467802
-9.75275e-08
-7.11909e-08
-3.78886e-09
-0.00167643
-7.9754e-08
-1.3977e-07
-8.10007e-08
-1.12532e-07
1.6244e-08
-3.05892e-06
0.00315611
0.00122932
0.00203685
-2.68552e-08
2.19718e-09
6.02098e-07
3.30025e-08
-1.242e-07
7.73809e-06
-0.0030073
-1.114e-07
-8.61428e-08
-0.00130096
-2.83592e-08
-1.9554e-08
0.0069238
-1.43489e-06
0.00694465
-1.87464e-08
-9.9393e-08
0.0013574
1.31932e-08
-9.27991e-09
-2.79454e-08
4.15113e-07
-6.60196e-09
-8.88639e-07
-2.81029e-06
3.89325e-07
-4.8531e-08
0.00197353
-4.30735e-09
-1.33731e-07
-3.22394e-08
1.76692e-09
2.24259e-08
-1.0457e-07
0.0147977
-9.0018e-08
-0.000763301
-1.01061e-07
1.42069e-07
-0.00103203
-1.37156e-07
2.54727e-06
-3.99788e-08
-1.31554e-07
-2.2994e-08
-8.61646e-07
-5.96643e-08
-9.27868e-08
-3.77772e-08
1.79484e-08
-1.63231e-07
-1.22212e-07
4.44348e-09
-3.37987e-08
-4.52756e-08
-2.968e-07
0.000797153
0.0101325
0.0266904
-0.0118528
-3.06895e-06
-5.30042e-07
-0.0113631
0.0228404
-1.46191e-07
2.24039e-08
-1.37718e-07
9.50277e-06
0.0277012
-1.19179e-07
-1.23053e-07
-1.49961e-07
-3.84957e-09
-4.45153e-08
-1.04846e-08
-0.00217308
0.00125134
0.000310233
-1.38498e-06
-3.52996e-08
-3.16737e-08
-2.71823e-08
0.00102619
0.00160137
-8.5123e-08
-2.60443e-06
-1.21441e-07
-1.79338e-07
5.21275e-08
-1.47585e-07
-1.62657e-07
0.00110694
-4.05456e-08
4.12072e-06
-1.39926e-07
-1.38243e-07
-2.57377e-08
-5.90991e-08
-9.37174e-08
-2.69547e-07
3.80414e-06
-3.51338e-08
-1.16609e-06
-6.41593e-08
-1.23077e-08
-7.90415e-08
-1.22329e-08
0.00614277
-1.31467e-07
-7.99053e-08
1.55782e-08
-0.000662187
-1.45945e-05
-1.5839e-08
-5.81334e-09
-8.08527e-08
0.000591448
4.8142e-06
0.003356
-3.23734e-06
1.55323e-06
-3.87147e-06
-5.8939e-06
-1.53193e-07
0.00126817
-1.53587e-07
-4.35967e-08
2.7815e-08
-1.74347e-05
3.03843e-08
0.000833676
-1.12929e-07
-9.3304e-09
0.000526688
-5.33961e-07
3.92532e-09
4.02287e-06
-9.71607e-08
-1.20916e-08
-4.09382e-05
-2.7278e-06
-6.95299e-08
0.000138672
-4.69505e-07
-0.000371431
0.0131484
-3.75622e-08
0.000687681
-7.63546e-08
-1.86642e-07
-1.06839e-07
-1.01696e-07
0.000822652
1.27314e-07
-1.24352e-07
2.28602e-08
0.00149099
-1.20723e-07
-0.00503702
-0.00714922
-1.09805e-08
-1.30842e-07
1.50079e-08
0.0145973
3.30629e-06
1.29937e-07
-7.92959e-08
2.92186e-06
-7.15882e-09
-7.3264e-08
-9.03789e-08
-8.08378e-08
-1.50002e-08
-5.63748e-08
-0.0115448
-1.29236e-06
-3.81082e-06
0.00118489
-1.16236e-07
0.000722614
-2.93494e-07
-1.12627e-07
-3.20942e-08
-5.49046e-08
-4.46117e-08
-1.35274e-07
-1.17431e-07
0.000711826
-1.40066e-06
0.00229349
-1.27756e-06
-2.67615e-06
-7.98398e-09
-2.73516e-06
0.00361824
-2.61565e-07
9.85147e-08
-1.64183e-07
0.00293262
0.00681481
-8.42923e-09
-3.54849e-06
-4.41217e-09
-0.002994
-1.01773e-07
-2.25072e-08
3.99411e-08
-2.39737e-07
-1.33061e-07
-1.02232e-06
0.00214171
-1.64505e-08
-0.000638622
0.00111874
-0.00282963
0.000749861
-1.18702e-07
0.00501842
5.26933e-07
-1.21538e-06
-0.00168353
-9.50423e-08
-2.49288e-07
-1.37032e-07
-2.2701e-08
0.00249446
1.89212e-08
-0.00546665
-1.18791e-07
-1.51989e-07
0.0292177
4.10206e-08
0.00198984
-1.125e-07
1.55981e-05
-2.47718e-08
1.09729e-09
-0.00575994
2.46385e-07
-7.4962e-07
-1.04136e-07
-1.14194e-07
-9.40307e-06
3.17532e-06
-3.28081e-08
-1.7919e-08
9.16182e-07
9.73628e-07
2.41157e-06
-6.07815e-09
-7.55215e-08
-1.49235e-07
1.45887e-08
2.35023e-07
2.52675e-07
-1.55517e-07
0.00353012
8.49311e-09
-5.61456e-08
-6.10663e-07
-0.00230892
2.89674e-06
2.20152e-07
-1.34688e-07
-1.2127e-08
-1.64343e-06
-5.72247e-07
-1.66742e-05
-0.0183183
3.32576e-07
-9.27756e-08
-4.057e-06
-7.68766e-08
-3.35929e-07
-6.32972e-05
-1.20791e-07
-7.53305e-06
-0.00441156
0.000169128
0.00729203
0.000668913
-1.59876e-06
3.51034e-08
0.00712646
-8.74248e-08
3.88334e-07
7.35449e-07
-4.79757e-08
-2.34124e-06
-2.20543e-07
2.52617e-08
-5.94345e-07
0.000368612
-5.06023e-08
-9.53924e-08
-1.49666e-07
-0.00200024
-8.82532e-07
-0.00325832
1.82952e-08
0.00408864
-1.30506e-07
-4.13316e-07
-1.26408e-06
2.39877e-08
0.00110961
-8.43388e-08
-1.11561e-07
3.2213e-08
-7.47209e-08
-0.00435031
-1.13622e-06
-1.31326e-08
-0.00385352
-1.40075e-08
0.000641244
-1.21909e-07
-0.000377292
5.96159e-08
5.27402e-07
-3.52731e-09
1.13542e-08
-1.24772e-07
-8.62267e-08
1.29716e-05
-2.84202e-07
-6.87995e-08
-8.26778e-08
-0.00310537
-0.00129792
4.53255e-07
0.0209441
-0.00640482
1.56091e-08
0.000678277
-1.10216e-07
-1.49558e-06
-1.15808e-07
1.36696e-08
-5.16038e-08
-8.21186e-07
-0.0239772
-1.19118e-05
-1.00951e-06
0.00226035
2.42236e-05
-7.36488e-07
-0.000292565
-6.95978e-08
-1.02743e-06
0.000734682
-1.5343e-07
-5.52618e-07
-0.00647714
-3.85262e-06
2.27338e-08
0.0137469
-8.74372e-07
0.00115746
0.00276955
-8.5076e-08
-1.79691e-06
7.57643e-08
-5.14534e-08
-1.55467e-07
0.000975438
-2.82002e-06
2.6286e-06
-3.08222e-06
-1.00941e-07
0.00521684
-5.36106e-07
-1.70775e-07
-2.47282e-09
-1.19304e-06
-2.73428e-08
-3.81946e-09
-6.90156e-09
-0.000297853
-7.79475e-08
-2.28682e-07
0.000950862
-1.30246e-07
-7.65559e-08
0.0108677
-1.59666e-07
3.15871e-08
4.62656e-07
-8.90083e-08
1.18296e-06
4.10854e-08
1.22411e-06
1.78339e-07
-1.16293e-06
-9.70017e-08
-1.07973e-07
-4.23727e-06
9.74525e-06
-3.65819e-07
-0.00187728
7.88347e-07
-1.1295e-07
-8.13195e-06
0.027485
-1.08417e-06
-1.33107e-07
-5.09207e-08
9.74287e-06
3.33396e-08
-0.00283594
-4.73053e-06
-4.23859e-08
-0.00289394
-7.35681e-08
-2.71703e-06
0.0149176
1.95328e-08
-5.46048e-08
-4.55552e-08
-1.11662e-07
-0.00623211
-0.000339304
9.45829e-08
-3.39056e-06
2.77785e-06
-1.71412e-07
-1.06791e-07
7.33274e-08
6.72622e-08
-1.47373e-07
-8.0978e-08
0.0162624
2.31068e-08
4.07273e-06
-7.2345e-08
-8.79834e-08
-1.48858e-08
-3.05308e-09
-1.88335e-07
-2.84052e-07
-1.11377e-07
-1.28883e-08
-0.00479503
-0.00316751
-1.95032e-07
-0.0359398
-1.92232e-09
-5.69212e-08
-0.0056889
-1.7018e-06
1.93255e-05
4.34997e-07
1.53688e-08
-4.8087e-07
-1.08149e-07
-5.84058e-08
-1.3058e-07
-3.26084e-08
-4.78047e-07
-0.00346416
-1.63529e-06
-0.00214785
-1.06556e-07
-1.03997e-07
-6.70993e-08
-2.64887e-06
0.00121183
-7.56891e-06
4.99151e-06
-5.83452e-11
0.00096314
2.80389e-08
-9.21972e-08
-1.31408e-07
2.85392e-08
0.000451201
-4.53867e-09
-1.058e-06
-1.38283e-07
-1.06098e-06
-3.03592e-08
-0.00393049
-5.56724e-08
-5.56925e-08
2.54576e-07
-1.06449e-07
-2.38304e-06
2.49938e-06
-0.00598185
-5.13836e-07
-1.36429e-07
-0.00628088
-2.50271e-07
3.03614e-08
-7.01949e-08
-1.22186e-07
-1.61653e-08
-1.59882e-07
1.96095e-05
-1.02467e-07
-9.39918e-07
-5.43836e-07
-8.53921e-08
0.002539
-1.35953e-07
1.20608e-07
-1.62897e-08
-6.61505e-08
-1.41971e-07
-8.23932e-08
-2.19579e-08
7.54114e-09
-1.15647e-07
-1.21201e-07
-1.13277e-07
-1.34904e-07
0.00413475
-3.24889e-10
4.57904e-07
0.00261228
-1.37141e-07
-3.0691e-08
-1.74317e-07
-2.58814e-06
-8.10243e-08
-8.33534e-07
-0.0190097
-7.21817e-08
0.00318047
-0.00122006
3.16964e-08
-1.1448e-07
-1.4197e-07
-1.48862e-07
0.0168693
0.0200531
-0.00204023
-1.78591e-08
1.72635e-07
-1.30796e-07
1.69919e-06
-1.23037e-07
1.26025e-05
-1.71108e-08
-1.34737e-06
0.000627356
2.94468e-07
4.81834e-08
0.00491238
0.00067478
-0.00367692
1.02871e-09
-8.64476e-08
0.00341671
4.60504e-07
-7.89402e-08
1.30081e-09
3.03065e-05
-1.16762e-07
-2.42445e-05
1.7796e-06
-1.04315e-07
-1.15036e-07
-0.0226686
-9.32154e-07
1.07763e-08
-1.72078e-07
-1.82992e-07
-1.3426e-08
9.03978e-07
1.83144e-09
-9.97716e-08
1.15691e-08
4.28123e-08
-4.61569e-08
-1.22174e-06
-1.21925e-07
-1.01086e-07
0.0191136
0.00117612
-0.00210892
-4.6695e-08
-2.99411e-07
3.21601e-07
2.95656e-08
-6.90625e-08
6.63146e-08
-1.35185e-07
-9.41839e-08
-0.00478663
-1.54639e-08
3.85048e-08
3.90956e-08
-9.23419e-08
0.000410075
0.00286368
-1.17036e-07
-4.66741e-08
-8.72997e-08
9.44222e-07
0.00110887
-2.52446e-08
-5.79382e-08
-1.96072e-08
-7.91077e-08
4.17289e-07
0.000973859
0.000335671
-1.05398e-07
2.46979e-05
-0.00449138
-1.63299e-07
-1.74565e-07
-1.10791e-07
-5.75474e-08
-2.25159e-07
-1.2503e-07
-8.31107e-08
8.92004e-08
-3.78479e-09
-1.31556e-06
-4.05351e-07
-7.47984e-09
-8.15575e-08
0.0229145
2.54911e-08
-2.51912e-07
-6.41469e-06
-4.50285e-07
-0.00602024
0.0015195
-8.9222e-08
-2.51378e-05
-0.000137562
7.20642e-07
-1.26233e-07
-9.34631e-08
-3.11173e-08
-0.0142351
9.08148e-08
-7.58291e-08
-2.07745e-09
-1.49514e-06
5.75827e-08
0.00245247
-4.76597e-08
-3.86118e-08
2.43553e-08
-3.55511e-06
-9.38243e-05
-5.25059e-08
-5.84068e-07
-8.56883e-08
-2.35682e-08
-4.84958e-08
0.00106973
-1.05541e-06
3.65449e-08
-4.185e-08
-0.00563116
-1.62639e-08
-8.50131e-08
1.87492e-08
1.61632e-06
5.07112e-08
-4.45839e-08
-5.21423e-08
-0.0341051
-1.30233e-07
-9.69473e-08
-4.84757e-08
-6.35626e-08
3.80937e-06
-8.10707e-08
-7.42919e-08
-0.000675722
-0.00576262
-3.27819e-08
-1.88919e-08
2.09885e-07
4.63432e-07
-6.86406e-08
-9.51651e-08
-0.0036327
-1.43659e-07
-7.94041e-08
-4.99917e-08
-0.00289558
0.00073279
3.18108e-06
-6.49926e-08
0.00302354
-0.00286303
0.0293497
0.00668265
-1.23853e-07
3.77043e-08
-1.14714e-07
4.75738e-08
1.62531e-08
2.15561e-08
-1.64069e-07
1.4736e-06
-7.95161e-09
-0.00212269
-1.26025e-07
-0.000127332
-8.13997e-08
-0.0029034
4.65508e-08
-1.44478e-07
-1.14926e-07
-1.0952e-07
-3.39304e-07
-6.58291e-05
-1.03287e-07
-7.12213e-08
-1.1561e-07
-0.00108792
-7.92402e-08
-3.33987e-09
1.80776e-09
-2.67254e-07
-0.00321535
-5.49378e-07
6.11846e-07
-1.21267e-07
-8.58803e-06
-1.05522e-07
-0.00207638
0.000616902
-1.35099e-07
-0.00537717
-0.0033378
3.56615e-08
-1.34662e-07
-4.80009e-07
-1.48918e-07
-4.33507e-07
-1.30215e-07
0.000946947
1.71659e-07
-4.58013e-07
-1.57849e-07
-1.19918e-07
3.12299e-07
0.00045688
-0.0201832
0.000324248
-3.56051e-07
0.000814073
-2.5765e-07
-0.0290336
-7.96609e-08
6.20394e-07
-9.43878e-08
-1.56985e-07
-0.00170653
-2.11272e-08
-3.93893e-06
-9.72067e-10
-1.17483e-07
0.00299522
-0.0260492
-1.13966e-07
0.00197275
-8.79144e-08
-0.00562518
-7.50358e-08
-0.00328654
0.000849776
-8.16162e-08
0.000226184
-1.35488e-07
-0.00273031
-1.63688e-08
-1.11215e-07
-3.69024e-08
-4.07872e-07
-7.77769e-08
-4.82005e-05
-1.05887e-07
0.00400383
-2.19924e-06
0.00100583
-5.23173e-08
-1.17446e-07
0.00141014
4.18418e-08
-8.84295e-08
2.0392e-08
-2.82265e-06
-1.1853e-07
4.79663e-08
-0.0032568
3.60961e-08
-7.01224e-08
-7.64882e-08
3.53317e-09
0.00727865
-2.92586e-07
-1.16828e-07
-0.00248449
-5.32734e-05
-1.88484e-05
-1.40827e-07
-7.1224e-07
-1.94999e-07
-9.75419e-08
-2.31953e-09
-7.62192e-08
-5.19038e-08
-9.36049e-08
2.57391e-08
-1.24529e-07
2.61689e-07
0.00271814
-2.44234e-06
-5.08636e-06
-7.57387e-09
-7.94839e-08
0.0222156
8.19324e-07
-5.7546e-08
-5.95836e-08
-0.004488
-0.00338016
4.59706e-08
0.00462579
8.11011e-08
-9.94708e-06
-2.9222e-09
0.00288705
-1.3272e-07
2.40005e-08
-4.99162e-08
-1.41915e-07
-2.67616e-08
-0.00242189
-1.04817e-07
-0.00435737
-3.59813e-06
-0.000252064
-0.00503385
-4.86628e-08
2.95314e-08
0.0278378
-2.65678e-07
-5.1193e-06
-5.32885e-08
9.19252e-07
-9.72876e-08
-0.000816408
-0.0026678
0.00938349
-8.06307e-08
0.00201811
0.00208692
0.00750764
-3.18041e-05
4.4446e-07
-3.22545e-07
-2.20029e-08
-0.00347947
-0.0041147
3.6243e-07
0.00583034
-1.38311e-07
-1.70227e-08
7.49066e-08
-0.0139385
-7.45436e-08
0.000919134
-9.70411e-08
-0.019825
6.78424e-08
-4.30219e-07
-1.74732e-07
-4.82187e-08
-1.87702e-05
-2.08818e-08
-5.92422e-08
-3.31981e-07
-5.55047e-06
-1.55378e-07
-7.8274e-08
-0.00232497
-0.00114558
-9.4691e-08
0.0012993
-1.50003e-07
-7.8298e-08
0.00407353
-0.00140346
-1.57666e-08
9.88825e-06
-1.09766e-07
-6.07678e-08
-3.83319e-07
-0.00325919
-7.67497e-08
0.0296792
-1.22854e-07
3.37927e-08
0.000429434
-5.10474e-08
-6.3269e-07
-1.16522e-07
-2.94528e-07
-5.41351e-08
0.000456839
-8.57546e-08
-2.66793e-07
-9.38712e-08
-4.02303e-08
-2.51908e-06
-0.00298134
8.03536e-08
-0.0170141
3.10176e-07
0.00953635
-0.0146455
0.00557823
-6.45814e-08
0.00121486
-0.00533712
-0.00356409
-5.10649e-05
5.37964e-09
-6.20746e-08
-7.9009e-08
-0.129545
3.33407e-08
-5.11753e-08
0.00575192
-2.41012e-08
-0.00225868
-1.18265e-07
0.0123967
3.11505e-08
-2.32935e-08
-3.67267e-06
-1.75793e-07
-8.09722e-08
-1.87772e-09
4.45499e-08
-9.22691e-07
-0.00369584
-1.03203e-07
2.96975e-08
-0.00357301
0.00251041
-1.29307e-08
-1.51123e-07
-2.22787e-07
-1.16458e-07
0.000189193
-0.00231204
-0.000529118
-2.41478e-06
0.00103136
0.0195505
-7.94309e-06
-1.4365e-07
-1.04873e-07
-6.40844e-08
-8.6678e-08
1.02984e-07
0.00122276
0.00431117
-5.22344e-08
-1.10454e-07
2.22617e-08
-0.0078836
-0.0100094
0.052256
0.00712908
3.64768e-08
0.000177027
0.00282763
-3.93337e-08
-0.000393856
-4.08983e-07
-1.05997e-07
-0.00504517
0.005547
-0.00174782
-5.07737e-09
-1.16395e-07
-3.61111e-07
-0.000370421
-4.65504e-08
3.40457e-08
-2.58304e-08
-1.6887e-07
-1.76269e-09
0.00434073
-9.85716e-08
-1.29977e-07
0.00123734
-4.32404e-08
-0.00192105
-2.95577e-07
-0.000979048
0.000115847
-9.6866e-08
-0.00123352
-9.27698e-06
1.43599e-05
-3.82196e-08
2.10367e-07
-8.08044e-08
-1.05195e-08
0.000715841
-4.8461e-06
1.97907e-08
-4.0576e-08
-9.79452e-08
8.14347e-06
-7.41469e-08
-1.71511e-08
-7.02864e-08
-6.85954e-08
-0.00321025
-8.23679e-08
0.0294894
0.00029711
-1.58135e-08
-9.29364e-08
-0.00163076
-6.52345e-08
-1.4198e-07
8.52528e-06
-1.1789e-07
-1.19121e-07
-6.04206e-07
-1.90083e-06
0.000938555
-1.48602e-07
-1.97025e-08
-8.44833e-08
-0.00250357
-0.00371907
-2.6316e-07
7.16438e-07
1.55682e-08
-8.32894e-08
-1.121e-07
-1.20091e-07
4.5542e-07
3.92714e-07
4.23479e-08
-9.91721e-08
-1.95994e-08
2.54441e-08
-7.81679e-08
-2.99615e-08
-1.22555e-06
0.00238232
-0.0153764
9.9214e-06
0.015881
1.22393e-05
-1.16505e-07
0.000976384
-0.0057035
0.0189607
2.22172e-09
-1.457e-07
-4.20094e-07
0.00764283
-1.95188e-06
2.5831e-07
-0.0120523
-5.08763e-08
1.13702e-08
0.00888259
-1.18283e-07
-3.06032e-06
-2.64387e-06
-1.74012e-09
0.000773776
0.0219598
-1.55256e-08
2.4643e-05
-0.00143267
-5.822e-06
-5.16991e-06
2.5052e-08
0.0054956
2.58397e-05
-0.00299199
-1.19111e-07
3.17277e-07
-0.00290477
-1.53837e-07
1.43143e-07
-1.1547e-07
-6.57143e-07
8.63724e-09
0.00122222
8.8635e-05
3.94911e-08
3.96409e-08
9.64103e-09
0.00133474
-5.50848e-07
2.56546e-08
2.55152e-08
0.0249381
2.65617e-08
3.93386e-08
-5.1318e-08
-2.34818e-06
-9.20845e-08
3.52269e-06
-1.11738e-06
-7.56723e-08
-6.363e-08
-8.66554e-08
-4.5483e-08
3.65537e-07
-8.18419e-08
8.77311e-07
-0.00471308
-1.32572e-05
-3.71037e-08
0.00223001
-0.00204645
-4.43385e-06
0.000609301
2.15274e-07
7.90753e-08
-0.000246921
3.50628e-07
-1.07643e-08
-4.48922e-08
7.2789e-08
-7.33598e-08
-1.4843e-07
-4.83782e-08
-6.59737e-06
0.000109726
0.00223146
0.00374416
-1.33911e-07
-4.70474e-08
-1.07282e-07
4.80461e-06
-0.000351531
-6.49491e-08
0.0274772
-8.85089e-08
0.00113751
-1.51706e-07
-0.00239998
-1.20108e-08
0.00211815
-0.00089293
-2.59366e-06
-0.00350601
1.9733e-07
-9.79528e-08
-4.25856e-07
0.000310882
9.04303e-05
7.50373e-09
-1.62076e-08
-1.08016e-07
3.55492e-08
-9.02125e-08
7.17096e-09
-9.22987e-08
-6.28183e-08
-1.04507e-06
-3.82989e-08
-0.00464745
-3.22262e-08
-0.00182589
-1.19974e-07
-6.11238e-06
0.00362618
-2.58315e-08
0.0201341
-7.24642e-08
-1.30617e-07
-1.15645e-07
-2.2542e-10
4.25098e-08
2.59228e-05
3.65091e-06
-6.27216e-08
-4.45547e-09
-1.398e-08
0.0216968
-1.85207e-08
9.0473e-06
-1.30481e-05
-3.35769e-09
-7.26846e-07
9.65696e-09
-4.12423e-08
-7.91066e-08
-7.40169e-09
-8.44242e-07
0.0042156
-7.11974e-08
-0.00311497
-1.40907e-08
1.97495e-08
-9.91799e-08
-0.000341483
-3.26144e-08
-0.0031647
9.27313e-07
-3.62586e-10
-0.00159949
-2.52897e-06
-0.00389661
2.835e-07
-1.00685e-07
-3.74625e-08
-5.63404e-07
0.0157097
-1.86863e-08
-6.30179e-08
7.65621e-09
1.2476e-06
3.09948e-06
-0.00346616
0.00463864
-0.00176061
-8.77709e-08
-0.00347529
-1.15834e-07
-0.00220485
4.98522e-05
2.10064e-08
-4.09028e-05
-1.03438e-06
-1.51855e-07
-6.58597e-07
-4.07116e-08
-9.33964e-08
-7.34202e-08
2.67832e-08
-0.00564229
-4.30708e-05
-8.30209e-07
-0.0468066
-6.40082e-08
-0.00426445
-4.73464e-08
-8.15639e-08
-5.42917e-07
-0.00355694
-1.22223e-07
0.00107154
-5.48408e-07
-6.06226e-07
0.00051971
-3.99902e-08
-2.2516e-07
-0.00137385
-9.74963e-08
-1.11006e-07
1.41845e-05
-1.70147e-09
-5.31635e-08
-2.11402e-08
-8.31095e-06
0.00312604
-1.06276e-07
-4.60334e-09
0.0021016
0.00311568
-1.46894e-08
-1.96857e-08
0.00385443
-0.00648419
-6.76026e-08
1.33945e-06
-4.86998e-07
-7.53726e-11
8.07876e-07
-1.14607e-07
0.0275819
-9.17256e-08
-0.000395862
0.00472037
0.00309659
-1.18249e-07
-1.00619e-07
-9.42715e-08
-8.79413e-08
-0.0030972
-4.55953e-08
-0.00214036
0.0136207
2.71935e-08
-1.12973e-07
-1.1588e-07
-8.36844e-06
-5.68018e-06
-2.03351e-06
-0.0067219