/*--------------------------------*- C++ -*----------------------------------*\
| =========                 |                                                 |
| \\      /  F ield         | OpenFOAM: The Open Source CFD Toolbox           |
|  \\    /   O peration     | Version:  v2012                                 |
|   \\  /    A nd           | Website:  www.openfoam.com                      |
|    \\/     M anipulation  |                                                 |
\*---------------------------------------------------------------------------*/
FoamFile
{
    version     2.0;
    format      ascii;
    class       surfaceScalarField;
    location    "900";
    object      meshPhi;
}
// * * * * * * * * * * * * * * * * * * * * * * * * * * * * * * * * * * * * * //

dimensions      [0 3 -1 0 0 0 0];
oriented        oriented;


internalField   nonuniform List<scalar> 
27274
(
-0.0012897
0.00182178
-0.000533061
-9.93469e-05
0.000459634
-0.000360288
-0.00249261
-0.00056987
0.00304724
0.00219062
-9.94004e-05
-0.00216782
0.00125117
0.00117256
-0.00243361
0.000567128
0.000607588
-0.00117497
-0.0016694
-0.000759241
0.00238358
-0.000123069
-0.00103868
0.00116139
0.00157905
0.000617893
0.000401349
-0.000497774
9.64247e-05
-0.000278976
-0.00211278
0.00234754
0.000356782
0.000148799
-0.000505582
0.00113482
-0.0004699
-0.000665019
-0.00238662
0.00276374
-0.000378888
-0.00321159
0.00127854
0.0019217
0.00213799
-0.00137299
-0.000767007
-0.000426277
0.000486638
-6.03605e-05
0.00366872
-0.00189751
-0.00181489
-0.000637475
-0.00178499
0.00241408
7.82507e-05
0.000439725
-0.000517984
0.00167157
-0.000104013
-0.00156857
0.00293937
-0.00175246
-0.00118982
-0.000498829
0.000490612
8.21617e-06
-0.000897165
0.00213954
0.000738591
-0.00210051
-0.00138812
0.00194913
-0.000577031
-0.000343632
0.00207127
0.00170458
0.000185476
-0.0018906
-0.000405466
-0.000142888
0.000548354
0.00272894
-0.00342553
0.000686637
0.00261359
-7.43367e-05
-0.00255265
-0.00115031
0.00264177
-0.00149832
0.00211086
0.00150616
0.000348201
-0.000139409
-0.00034688
0.00130844
-0.00117253
-0.00013621
0.000191219
-0.00148172
3.57624e-06
0.00195521
-0.000793704
-0.00022732
0.00102096
-0.000192082
0.00189644
0.000278557
0.00213225
-0.00245271
-0.00272821
0.000339663
-0.000584251
-0.000366911
0.000951094
0.000133721
-0.00264081
-0.00026919
0.000497939
-0.000228749
-0.000136767
-0.000324366
0.00032852
2.87712e-05
-0.000822517
0.000972231
0.000256668
-0.00122927
0.00212976
-0.00175648
-0.000373787
-0.000823447
-0.000618764
0.00144173
0.000113112
-0.0021335
0.00198439
-0.00118565
0.00228627
-0.00115349
0.00322732
-0.00272769
-0.000518709
0.000402971
-0.000412324
6.99648e-06
-0.00054196
0.000170049
0.00037191
-0.00232953
0.000877066
0.00142837
-0.000121939
-9.17039e-05
0.000137583
0.00107145
-2.1956e-05
-0.00104972
-0.00123511
-0.00198449
-0.000552542
0.000237159
0.000315382
-0.00112843
0.000415914
0.000712428
0.00198741
-0.0019086
-0.000858634
-0.000453293
0.00131153
0.00290623
-0.00111383
-0.00183461
-0.00140518
0.00071241
0.000692457
0.000452839
-9.6057e-05
0.00113376
0.000686879
-0.000503708
0.000264815
0.000238893
0.000996828
0.000448414
-0.00144537
0.00204434
0.00169003
0.00124649
-0.000754597
-0.000424125
0.0011785
-1.51397e-05
-0.000194396
0.000193824
-0.000440024
-0.000688476
0.000684238
0.00181902
-0.00254071
0.00112491
-0.00124838
-0.00244868
0.000743881
-0.000164701
0.000609474
-0.000444778
0.00150425
0.000714775
-0.00222532
0.00195057
-0.00140586
-0.000547292
-0.00234804
0.00282187
-0.000495172
0.00186489
-0.00267273
0.000795936
-0.000689979
-0.000105971
-0.000247822
0.001918
0.000696622
-0.00122315
0.000526248
-0.00200202
0.00060045
0.000233376
0.000901329
-0.000553447
0.000295077
0.000258369
-0.000519747
0.000597988
-0.000582113
0.000176647
0.000463307
-0.000562608
9.92997e-05
-0.000828781
8.33836e-05
0.000745362
0.000366767
-0.000682638
0.000355263
-0.00195452
0.00157984
0.00258147
-0.00212434
-0.000523808
-0.000526905
0.000526905
-4.32861e-05
-0.000455544
0.000506694
0.00169328
-0.00221831
0.00173244
0.000215475
-0.00195104
-0.000167548
-0.000374413
-0.000403589
-6.86969e-05
0.000472286
-0.000427444
0.000489161
-6.1717e-05
-6.86297e-05
-0.000363647
0.000432277
-0.000994206
-0.000831283
0.00182491
0.000188542
-0.00075307
0.000564515
0.000771453
0.00149401
-0.00227436
0.00108145
-0.00014119
-0.000940396
0.000216282
0.000222974
-0.000439256
-0.000996041
0.000697891
0.000298092
0.00199327
-0.00124655
-0.000747823
0.000437923
0.000414111
-0.00105546
0.00293395
-0.00188851
-0.00157637
-0.000507091
0.00208293
-0.00109329
0.00183857
-0.000750644
-0.00231223
0.000735404
0.000480565
-0.000612359
0.000131792
0.000368894
5.49635e-05
-0.000514406
0.000289315
-0.000420562
0.000131247
0.00041355
-0.000578255
-0.000385133
0.000428302
-4.31691e-05
0.000464493
-0.00145921
0.000496112
-9.47629e-05
0.000687999
-0.000647053
-4.09575e-05
-0.000778016
0.0022762
0.000321516
-0.00107629
0.0022425
-0.00175437
-0.000489904
-0.000506185
0.00276628
0.000437236
0.000588706
-0.000523424
-6.11202e-05
0.000832792
-0.000339035
-0.000493766
0.00028821
0.00221822
0.00116983
-0.00240766
0.000286765
0.000408148
-0.000694924
-0.00141803
0.00040644
0.0010111
-0.000405032
0.00213426
-0.000759038
-0.000483599
0.00124244
0.000523174
5.91882e-05
-0.00183585
0.00361555
-0.00179186
0.00162945
-0.00194519
0.0024185
-0.00342709
0.00100197
-0.000907549
-0.000198868
0.00110628
-3.37913e-05
-0.000393653
0.000404542
5.67604e-05
-0.000461303
0.00227343
-0.0025327
0.000253836
0.00118233
-0.00224583
-0.00035974
-0.000339422
0.000699161
3.95291e-05
-0.00228739
0.00224486
-0.000814
0.0018611
-0.00104711
-0.00043634
0.000554325
-0.000117985
0.00241054
-0.0005262
-0.00188889
1.66851e-06
-0.000438009
0.00270516
-0.0023256
-0.000390062
-0.00171521
0.000987615
0.000320619
-0.000236364
-0.000316177
0.00120435
4.52279e-05
-0.0012499
0.000290618
-0.000196975
-0.000102827
-0.000372226
0.000658981
-3.1003e-06
-0.000382033
0.000157661
0.000125345
-0.000321146
0.00128291
-0.000962098
0.00211864
-0.00118518
-0.00093464
-0.00228832
0.00091769
0.00136778
0.000845038
-0.0015443
0.000698885
0.00146927
-0.00187711
-0.000978486
1.85126e-05
0.000959887
3.50592e-06
0.000522105
-0.000525612
-0.00063271
0.00015046
0.000482247
-0.000999789
-0.000551393
0.00155061
-1.45251e-05
-0.00071953
0.000734009
0.00189663
0.000715317
-0.00264667
-0.00069897
0.000635412
6.35577e-05
0.000544341
-0.000211428
-0.000332913
-0.00267133
0.00160171
0.00101421
0.00231218
-0.0026264
0.000264712
0.00144853
0.000687266
0.000541647
-0.000338896
-0.000202751
-0.00092966
-0.000579567
0.00150864
-0.00150747
0.00216406
-0.000672993
0.000280385
0.000552396
-0.000622327
0.000426099
0.000196227
0.000630735
-0.00111384
0.000483113
0.000564622
-0.000579183
0.00158905
0.000220664
-0.00181176
-0.000948165
-0.00120618
0.00210252
-0.000457647
0.00100228
-0.00054469
-0.000480379
-1.09228e-05
0.000491302
-0.000610034
5.46324e-05
0.0005554
-0.000909537
9.55664e-05
0.000813917
-0.00239459
0.00188037
0.000513915
9.57775e-05
-0.000522055
0.00117692
0.00288852
-0.00250547
-0.000397214
-0.000502616
0.00196906
0.00084639
-0.00053962
-0.000306781
0.000272419
0.00091143
-0.001184
0.000212718
-0.00213167
0.00191605
0.00010951
-0.000635968
0.000526446
-0.000406044
0.00199301
0.000956134
0.000505457
-0.00146246
-0.000407794
-0.000355545
0.00193734
-0.0015877
0.00122892
-0.00215063
0.000920783
0.000591326
-6.51293e-05
-0.000526198
-0.000157636
-0.000452398
-0.000292965
0.000512123
-0.000219159
-0.000898477
-0.000791082
0.00168849
-0.000175716
0.000465031
0.000670714
-0.000274138
-0.000396577
0.000606609
-0.000176725
-0.000429885
-0.000754077
0.00170923
7.62101e-05
-0.0019227
0.00223367
0.000462394
9.33031e-05
-0.000579357
0.000486046
-0.00017305
0.00244048
0.0027775
-0.000927499
0.00015447
0.000641448
-0.0009306
0.0003213
0.000609271
-0.000426451
0.000792798
-0.00188501
0.00213786
0.000267182
-0.00092938
0.00066231
0.000267048
-0.00329044
0.00257755
0.000702991
0.00133891
-0.000642638
0.00141875
0.00218176
-0.000560385
-7.23267e-05
0.00272162
-0.000610385
-0.0021156
0.000597436
-0.000202395
-0.000395041
-0.000486712
0.000473705
1.30064e-05
-0.000386152
-0.00043211
0.000818261
-0.00232635
0.00238926
0.000323021
7.7181e-05
0.00140752
0.000540253
0.00132259
-0.0020969
0.000772583
7.37911e-05
0.000523644
0.00229627
-0.00227026
-3.04488e-05
-0.00144725
0.00195089
-0.000517893
-0.00169785
0.000173037
0.000647188
-0.000895206
0.00024798
0.000147132
0.000545534
-0.000692688
0.000145683
0.000922916
0.00106884
-0.00066486
-0.000315627
0.000980435
-0.0023691
0.000781997
-0.000682544
0.0030402
-0.0024029
-0.00237996
-0.000389918
0.00276593
-6.87043e-05
-0.000418008
0.000796479
-0.00014984
-0.00064665
0.000456079
-0.000142204
-0.000313875
-0.000157565
0.00136156
0.00124815
0.000869105
-0.00197135
0.00160997
-0.000239598
-0.000145689
0.000385287
0.00133915
-0.00174701
8.12213e-05
0.000525387
0.00116026
-0.00234187
0.00117654
0.000113159
-0.00050291
0.000389751
1.90499e-05
-0.000742525
0.000723452
0.000921906
-0.00124336
0.00285329
-0.00243878
-0.00042299
-0.000185789
-0.000148993
0.000221019
-0.000637093
0.00176978
0.0013062
-0.000541714
-0.000764675
-1.63616e-05
0.000607685
-0.000985138
-0.000433333
0.00242175
-0.00107589
-0.00140559
-0.00199223
-0.000619854
0.00256878
0.000576384
-0.000236387
-0.000348344
-9.53372e-05
-0.000624231
0.00105053
-0.000993704
-5.69069e-05
0.000454667
0.000527972
-0.000982636
-0.00119828
-0.00102533
0.00222087
-2.27713e-05
0.000337786
-0.000315015
-0.00027669
-0.000632888
6.12604e-05
0.00102006
-0.00181095
0.0027921
-0.00098951
-0.000615992
0.000725489
-0.00311625
0.000746807
0.000650973
-0.0025415
0.00187934
-0.00070265
0.000463642
0.000239006
-1.24235e-05
-0.00036091
0.000264466
-0.00033204
-0.00214829
-0.000280132
0.00113963
-0.000859647
0.00236291
-0.00313052
0.000747775
-0.000121545
0.000465628
-0.000344083
-0.000495205
0.00183249
0.00103475
0.000898076
-0.00193301
0.000263193
-0.000389961
0.000385527
-0.00138582
0.00049713
-0.000470935
-2.61952e-05
-0.00193351
0.00241151
-0.000299685
-0.00299393
0.000542137
0.00245311
-0.0010844
0.000169481
0.000914814
0.000414089
8.13103e-05
-0.000495399
0.00039234
0.000182272
-3.02877e-05
-3.19058e-06
2.6947e-05
-0.000502387
-0.000428233
-0.000439578
0.00121013
-0.000770886
0.00146356
-0.000236731
-0.00122716
-0.000315159
0.000703914
-0.000388764
-0.0019729
0.00261167
0.000881867
-0.00271955
0.00219084
0.00052669
-5.53784e-05
1.38132e-05
0.000489708
-0.000804874
-0.000273143
-0.00070541
-0.00119285
0.000424353
0.00076843
-0.000367887
-0.000716611
0.00232635
-0.00210625
0.000913807
-0.000283064
-0.00249856
0.00219543
-0.00277062
0.00212387
5.10716e-05
0.000745395
0.00114083
-0.00318709
0.00203202
-0.000760238
0.000459032
-0.00104335
0.00183956
-0.00150137
-0.000726747
0.00221026
-0.0015488
0.000405773
-0.00072144
0.000146532
-0.00037988
0.000233348
0.000166627
0.000504086
0.00145738
-0.002374
0.00090945
0.00172652
-0.000881931
0.000200981
-0.000470172
0.000148546
-0.00232917
0.00216037
0.000790806
-0.000643699
-0.00169834
-0.00045053
0.00214577
0.000679065
-0.00163921
0.000959669
1.583e-05
0.000774949
1.66546e-05
0.00223516
0.000392381
-0.000388876
-0.00216504
0.00268331
-0.000526715
-0.00137589
0.000616656
1.81935e-06
0.00013701
-0.000194571
0.00130563
0.000362144
-0.000412918
5.07736e-05
0.000333737
-0.000501948
0.000168053
-0.000334047
-0.000288281
0.00111258
0.000403304
-0.00151689
-7.97904e-06
-0.00213138
0.00213606
0.00148459
-0.000512798
-0.00140045
0.00054145
-0.000179829
-0.000448923
0.000628743
-0.000600366
9.24177e-06
0.000591122
0.000222766
0.000623611
0.00236235
-0.0012073
0.0013555
0.00151801
0.000621431
-0.000450056
-0.000171376
0.000406552
0.000562586
-0.000969127
0.00050258
0.00146819
-0.00198458
-0.00200063
0.00273279
-0.000737013
-0.000651322
-0.000541588
0.000294284
-0.000751974
-0.000525507
0.000285909
8.34853e-05
0.000537945
-0.00213304
0.00221158
-8.42248e-05
0.000790175
0.00133106
-0.00212652
-0.000344558
0.000412976
-6.84182e-05
0.000445207
0.00247757
-8.05648e-05
0.00237206
0.000272523
-0.000670056
0.000397506
-0.000663447
-0.000889325
0.00155187
0.00125961
-0.00201995
0.000755796
-0.000320111
0.000466643
0.000381997
-0.000385895
2.78773e-07
-0.000554188
-0.000662147
0.00121624
-0.000522617
-0.00040678
0.00023449
0.000204158
0.00169746
0.000635602
0.000524106
0.0019661
-0.0024948
0.000741752
0.00124681
-0.00199495
-0.00012364
-0.00223078
0.00233419
-0.000262984
0.000856769
-0.000593831
0.00183606
-0.00197666
0.00147512
-0.00016715
-0.00130851
-0.0020033
0.00273615
0.00222377
-0.00137977
-0.000846422
-0.00200484
-0.000135555
0.00192022
-0.000341052
0.00342077
-0.00110257
-0.00233638
0.00315
-0.00169169
-0.00146702
0.00187974
0.0005748
-0.00247
-0.000910315
0.00277193
-0.00219505
0.0013854
0.000807152
0.000207913
-0.000672258
0.000464341
0.000316648
-0.000547549
0.000230901
0.00312331
-0.00171584
0.000709782
-4.72623e-05
-0.000662528
-0.000862756
0.0016606
-0.00079822
0.000562375
-0.000245727
0.00158861
-0.00157897
-1.10265e-05
-1.68692e-05
0.00100147
-0.000984798
-0.00205493
-0.000328288
0.000688337
-0.000137481
-0.000550865
0.00194797
-0.000109818
0.000395636
-0.00204887
0.000589406
0.000604025
-0.00241319
0.00175562
-0.000141816
-0.000458551
0.00243439
-0.00141001
-0.00102785
0.000106708
-0.000533271
-0.00144664
0.000750772
0.000695326
-0.000113198
0.00158765
0.00273794
-0.00230314
-0.00179887
0.00193073
-0.000482911
0.000488569
-5.65864e-06
0.00190012
-0.000372559
0.000448413
-0.00220688
-0.000525233
0.00271076
0.000461114
-5.03515e-06
0.000455863
-4.43259e-05
-0.000411537
-0.000521461
0.000793954
-0.00180958
0.000995607
-0.00173658
0.000441405
5.57248e-05
0.000272222
-0.000303886
0.00303999
-0.00297305
-8.46401e-05
-0.000359512
-0.000165995
0.000285292
-0.000379926
7.98464e-05
-0.000536074
0.00210236
0.000453623
-0.000357846
-0.00183637
0.00248352
0.000425618
-6.34741e-05
0.00084271
0.00063968
-0.00148318
0.000828104
0.000547128
-0.00137572
0.000480781
-2.49181e-05
-0.00283205
0.00119281
0.00163863
0.000391277
0.00263042
0.00063574
-0.000230396
-0.000405349
-0.000657021
0.00122389
-0.000473799
-0.000475138
0.000663669
-0.000223267
-0.0021863
0.0024025
0.00144801
-0.00245297
-9.63198e-05
-0.00219387
0.000974227
-0.00053266
-0.000441584
-0.00131761
0.000854509
0.000462905
-0.00265582
0.000863397
0.000136409
8.27441e-05
-0.000230584
0.00225594
-0.00243497
-0.00111002
0.000555772
1.17888e-05
-0.000356347
0.000542348
0.00125133
-0.00179492
-0.0018089
0.00171039
-0.000357194
4.51916e-05
0.000309756
-0.000210708
0.00179783
0.000108692
0.000647365
-0.000756086
0.000498496
-8.44082e-05
-0.000378053
0.000491212
0.000612736
3.72231e-05
-0.000649967
-0.000602825
-0.00049688
0.00109966
-0.000709602
0.00122725
-0.000517753
0.000460922
3.70169e-05
0.0020697
-0.00269262
0.000610787
-0.00108794
-0.00154088
0.00258547
-0.000829231
0.00226249
0.000846568
-0.000287229
0.000874198
-0.000587007
-0.000197943
-0.00213687
0.0023254
0.000339382
9.23919e-05
-0.000495981
-0.000865789
-0.000244294
0.000660657
-9.68321e-05
0.000560138
0.000401126
-0.00100398
-5.59744e-05
-0.000424405
0.00231048
-0.00279243
0.000468754
0.0024913
0.00285912
-0.00235273
-0.000515063
0.00211333
-0.000291755
0.000152029
-2.2372e-05
-2.74693e-05
0.000400012
-0.00238418
1.3138e-05
0.000520296
-0.000533434
0.00292712
-0.00147813
0.000420434
0.00167241
-0.00215439
0.000634979
5.3006e-05
-0.000166124
-0.000550768
0.000716836
0.00128333
-0.00241058
-0.00247594
0.000149808
0.0023188
-0.000913648
0.00131866
-0.000405126
-0.000372136
-0.000330516
0.00247273
-0.00102663
0.00302718
-0.00211301
-0.000933316
-0.000654976
-0.00068974
0.00191762
0.000119438
0.000424136
-0.000543574
-0.00168347
-0.000218646
-0.00203095
0.000514588
-0.000310117
-0.000204471
0.000562421
-0.000728602
0.00258592
-0.00196797
-0.00066564
-0.000553447
2.17345e-05
0.000531712
-0.000378721
-2.92405e-05
0.000407962
-0.000226218
0.000596041
-0.000369824
-0.00232809
0.00208982
0.0012886
0.00171891
0.00205786
-0.000737052
0.00103006
-5.55729e-06
-0.00102462
-0.00201804
0.00199394
2.35909e-05
-0.00050011
0.000477339
0.00035428
0.000619926
0.000627797
8.19739e-05
-0.000829103
0.000257795
0.000571293
0.00233586
-0.00178552
0.00162969
-0.000787822
0.000479802
-0.000424244
-5.55581e-05
0.000501054
0.000534527
-4.80751e-05
-0.000486455
-0.00161657
-0.000880461
0.00249382
-0.00118935
0.00190072
-0.000712496
-0.00225032
0.00106371
0.000314534
0.000131762
-0.000446297
0.00038186
-0.000450489
0.000137074
-0.000965885
0.00209719
0.000620291
0.00199047
0.000423918
0.000554321
-0.00194175
0.00138396
-0.00097674
-0.000341045
-0.0020723
0.00246049
0.000586905
4.88287e-05
-0.0015767
-0.000674742
0.000559168
-7.86045e-05
-0.000764626
-0.00184604
0.00260674
-0.000597207
0.00284625
0.000132906
-0.000424897
-0.000414312
0.00141098
-0.00170387
0.00103374
0.000669374
-0.000648617
0.000757282
0.00215919
0.000518216
-0.00269809
-0.000260528
0.000947408
-0.000687006
0.000564471
-9.51838e-05
-0.000469288
0.00165512
5.21392e-05
-0.00170893
0.000537036
0.00230597
0.000109195
0.00163578
-0.00174569
0.00114551
0.000545563
-0.0016928
3.47934e-05
-0.000298092
0.000255519
-0.00162252
-0.000102158
0.00172352
-0.00141834
-0.000388231
0.00204129
0.000938132
-0.000787407
-0.000150781
-0.00208539
0.00203113
0.00050152
0.00228024
-5.98116e-05
0.000394982
-0.0011653
0.00155028
-0.00109735
0.00235207
0.000829259
0.00261276
-0.000315902
0.00148475
-0.00238961
0.000752821
-0.00178486
0.00211407
-0.0003977
0.00155623
-0.000710378
-0.000845773
-0.00120629
-0.000665894
0.00187152
-0.00091253
0.000780433
0.00013204
-0.000712791
0.00174729
0.000330553
-0.00047237
-0.000801252
0.00243212
-0.00163778
0.000268493
0.000170155
-0.00129717
0.00193825
-0.000641749
0.00148781
0.000641424
0.00052298
-0.000503946
0.000470376
0.000549066
-0.000636379
8.73069e-05
-0.00189469
0.00194492
0.00112457
0.00130579
-0.000462934
-0.00188408
-0.00307065
0.00298338
7.48651e-05
0.0001187
0.000885216
-0.0010041
0.000511988
0.000773019
-0.0012854
-0.00157423
0.000624269
0.000949492
-0.000256064
0.00103195
-0.000775987
0.00041768
-0.000802397
-3.99118e-05
0.00084223
0.000256698
4.83799e-05
-0.000412796
-0.000543934
0.000436156
0.000107778
0.000761671
-0.000388017
-0.000373661
-0.00267203
0.000387927
0.00227664
-0.00076677
-0.00230885
0.000962813
0.000593434
-0.000291943
-0.000270666
0.00106835
-0.00170647
0.000928693
-0.000876171
-6.80945e-05
-0.00050123
0.00105804
-0.000556809
-2.70006e-05
0.000965066
-0.00020403
-0.000968774
-0.000868707
0.00139503
-0.000526462
-0.00061108
0.000369493
0.000241585
0.00204141
-0.00182899
0.00115811
-0.00118546
2.72188e-05
0.000212068
0.000211434
-0.000423502
0.000641835
-0.000626027
-0.000595992
7.65867e-05
0.000865647
-0.000942308
0.000871877
-0.000224728
-0.00193183
1.86139e-05
0.00191089
0.000102955
-0.000298698
-0.0019636
-0.000255241
0.0029729
-0.000810559
0.000450821
0.000292139
-0.000712618
0.000420482
0.000328593
0.000213054
0.000755232
-0.000547324
-0.000379212
-8.30074e-05
0.000462219
0.000448703
-0.000445473
-3.22977e-06
0.000629918
-0.00113115
-0.0020322
0.000657387
-0.000475964
0.000476005
-4.12329e-08
-0.000665457
0.000637817
2.76352e-05
-0.00187028
0.000904555
-0.000337907
-0.000566651
-9.36463e-05
0.000443241
-0.000349594
0.000703906
-0.000666531
-3.73836e-05
0.00151399
-0.000972646
-0.00214713
0.000732554
0.00135266
-0.000244667
0.00228254
-0.00137462
-0.000793704
0.00216517
-0.000873391
0.00201696
0.00125922
-0.00109991
-0.000159507
0.00271879
-0.00159065
0.000261324
0.000177323
-0.000913653
-0.00128377
-0.00138392
0.00203639
-0.000653804
0.000435415
-0.000120881
0.00235881
-0.00278372
0.00040965
-0.000752798
-0.000951846
-7.92687e-05
0.000613791
0.00311109
-0.00273912
-0.00257448
0.001394
0.00117512
0.000489667
-0.000500645
1.0977e-05
-0.00161693
0.000587137
0.000935019
-0.000816841
0.000556196
-0.0018265
-0.000519867
0.000301264
0.000218603
-0.000259062
-0.00163745
-0.00129637
-0.000416319
0.00171181
-0.000895622
-0.00105359
0.00217486
-0.00112352
0.000960781
6.9151e-05
-0.00139693
0.00196238
-0.000565432
0.000450367
-0.000448699
-0.00118738
-0.000222098
0.00140914
-0.00254326
8.48074e-05
0.00244473
0.000242931
0.000195717
-0.000438648
9.61611e-05
-0.00139328
-0.0002187
-2.43224e-05
0.000342694
-0.000318371
0.000735644
-0.00010068
0.000730718
0.00240531
-0.00122963
0.0024789
-0.00209457
-0.000434345
-0.000408654
2.9933e-05
0.0014776
-0.001369
-0.00155904
-6.45074e-05
-5.57412e-05
0.000648021
-0.000615183
-0.00171317
0.000667519
-5.479e-05
0.000645186
-0.000500849
-0.00014434
-0.00133299
0.000491272
-0.000222779
0.00057972
-0.000866982
0.00227398
-0.000341486
-0.00193533
-0.000763525
-0.0014431
0.000847918
-0.000696807
-0.000750317
0.000412722
0.000637707
0.000540558
0.00190334
-0.00246618
0.000648228
-9.91692e-05
0.000778104
-0.00167745
-0.00127126
-0.000241616
-0.00016596
0.000266687
-0.000472227
-0.000409121
-0.00163245
-0.00180005
-0.00053679
-0.000505821
0.0012358
-0.000730244
0.000653218
-2.03544e-05
-0.00256549
0.000552423
-0.000377006
-9.3123e-05
0.000470129
0.000232298
-0.000408555
-0.00204478
0.00245125
0.00286845
0.000102298
-0.00106488
-5.98569e-05
0.00112458
-0.00128099
0.000661791
-0.00197417
0.000565747
0.0010294
-0.000622838
0.00170625
0.00143485
0.000405703
7.40988e-05
-0.000771398
0.00153006
-0.000759143
0.00252269
-0.00207589
-0.00045086
0.000122756
0.000589089
-0.000711846
0.000206424
-0.000417852
-0.00195741
-0.000305132
0.00222834
0.000168207
0.000476975
-0.00166722
0.00151154
0.0002791
0.00281264
-0.000204836
-0.00181418
0.00115619
-0.00139223
0.000236041
0.000496361
-0.000444228
-5.21342e-05
0.00169626
-0.000584543
0.000425273
-0.000213206
0.00188606
-0.00126635
-0.000620474
-0.000660703
0.000244139
0.000416561
-0.000433389
-0.000395724
0.00179805
-0.0017816
7.3627e-05
0.00244329
-0.00192371
0.00079039
-0.00029668
-0.000493714
-0.00209472
-0.000348658
-0.000204789
-0.000414476
0.000315129
0.00267737
-0.00195834
-0.000724589
-0.00014594
0.000457779
-0.000311839
-0.00121074
-0.000776295
0.00198505
-0.0014818
0.000184175
-0.000702006
0.000140926
0.000561074
0.00109825
-0.000535354
-0.000562908
0.000476029
-3.46244e-05
-0.00092861
-0.00176348
0.00264872
-0.000313559
0.000644111
0.00275649
-0.000518322
-0.00224351
0.000622384
-0.000172019
0.00273979
-0.00148854
-0.00125992
-0.000435262
-0.00114252
-0.00145691
0.00200043
3.55439e-05
-0.00275359
0.00268483
0.000624587
-0.000216545
-0.000544075
-0.00160505
0.000919266
0.000685265
-0.000125284
0.000676484
2.74116e-05
-0.000641835
0.0020398
6.48425e-05
-0.000476043
0.000411201
-0.000315065
0.0021106
0.00255681
-0.00255264
0.00192993
-0.00137986
0.00192517
-0.00119042
-0.000735358
-0.000899282
0.000798533
0.000100659
-0.000568124
-0.000133888
0.00180566
-0.000110386
0.000185284
6.19133e-05
-0.00161481
-0.000373573
0.00198681
-0.000375457
-0.000236902
0.00107767
-0.000847249
-0.00235263
-0.000913424
-0.00186515
-0.00164706
3.09142e-05
-0.00197792
0.00121515
0.000761156
0.000485397
-0.000224073
-0.000560726
0.00290308
0.000456325
0.000217807
-0.000674143
0.00093225
-0.000659938
0.000291625
0.000470038
0.000244308
-0.000470527
-0.000275604
-0.000228104
-0.00202919
0.00146031
0.000497375
-0.00137919
0.000522566
0.000856082
0.00300579
0.000983041
0.00145363
-0.00244272
-0.00124771
-0.000730943
0.00197663
0.000362698
-0.000456344
0.00153576
-0.00226444
0.00066208
-0.00223576
0.00175473
-0.000116326
0.000345405
-0.000361391
0.000222262
0.00198601
-0.00194216
-4.51779e-05
-0.000811634
-0.00174163
0.00157915
-0.00140157
-0.000178284
0.00169567
-0.000628369
-0.000538358
1.85596e-05
0.000519797
0.000493371
-0.000277089
0.000583497
0.00181006
-0.00241807
-0.00254978
0.00250206
4.43113e-05
-0.000483727
0.00190839
-0.00059152
0.00049557
9.59495e-05
0.0003647
9.4934e-05
-0.000617364
0.000524549
9.28136e-05
-0.000269916
0.000759613
-0.000843288
0.000642321
0.00020095
-0.000268633
0.000703117
-0.000434495
-0.00171776
-0.00115222
0.00194772
-0.00255605
0.000505675
-0.00267851
-0.00192993
0.00241691
-0.000489107
0.00197729
-0.00148824
-0.00234041
-0.000630596
0.0006446
-1.40098e-05
-0.000107734
-0.000419172
0.000400095
-0.00221846
-0.00104113
0.000720115
0.000321
0.00166566
-0.00109449
-0.000654817
0.00180402
0.000467219
0.00128778
-0.00140156
-0.00113233
-0.00121514
-0.00163292
-0.00179819
-0.000780172
-0.000610063
0.000270642
0.00037459
-0.000516795
0.000878399
8.71917e-06
-0.000887332
0.000442283
3.3746e-05
0.000354327
-0.00106401
-0.000204267
0.000469082
-0.000780157
-0.00021362
-0.000133734
-0.00044563
-0.000587139
0.000509818
7.73197e-05
0.000577149
-0.00134897
0.000568937
-4.4687e-06
4.97184e-05
-0.000852185
0.000418132
-0.000442454
-0.00218112
-0.00044057
0.00260492
-0.00223307
-0.00169495
-0.000379886
0.0020298
-0.00187993
-0.000475954
-0.000399016
0.000874956
0.000742656
0.00018914
-0.000385502
0.000199343
0.000989919
-0.00125049
0.000260399
0.00139922
-0.000323932
-0.00114679
-0.000967358
-0.000438041
0.00140619
-0.000694136
-8.93347e-05
-0.000273694
0.000342524
0.000445359
0.000145611
-0.00059098
-0.00238587
8.37835e-06
0.00236411
0.000211828
-0.0001698
-0.000895201
0.00191028
-0.00255613
0.000597437
0.000899901
-0.000165297
-0.000734651
0.000646319
-0.00035418
0.000869361
-0.00251815
0.00164345
-0.000513719
-0.0017745
0.00228078
-0.000139417
0.00266341
-0.000571505
-0.000473755
0.00104517
0.00142585
0.000933503
0.00207339
-0.00122681
-0.000849842
-0.000708751
0.000842192
-0.000133457
-0.00264987
0.00241951
0.000229965
0.000571224
-0.00036695
-0.000204274
0.00206076
-0.00286842
0.000797212
0.000528921
-0.000445436
0.00126226
-0.00204035
0.000773948
0.000930841
5.10322e-05
-0.000982067
0.00258007
-8.24521e-05
-0.00251479
-0.00135094
0.000691476
0.000659103
-0.000371689
0.00165878
0.000452582
-0.00160669
-0.00152943
0.00239363
8.7054e-05
0.000484169
-0.00207992
-0.0012189
-0.000429975
0.000420356
9.61947e-06
-0.00038872
-1.97373e-05
0.000408458
0.000995678
-0.00219621
0.00012659
-0.000173582
-0.00111599
0.00197511
0.00144208
-0.00215343
0.000663765
9.74605e-05
-0.000474466
0.00290741
-5.08261e-05
4.7771e-05
0.000481149
0.00037988
0.000147025
0.00141274
-0.000202925
0.000540421
-0.000309934
-0.000230488
0.000240025
-0.000512163
-0.00230539
0.00290494
-0.000614639
-0.000377308
-0.000405394
-0.000181746
-0.00114568
-0.000251197
0.00254322
-0.00194766
-0.000613052
0.00247947
0.000370795
0.00206477
0.0022802
-0.000593285
-0.00169358
-0.000736139
-0.000513746
0.00124975
0.000376574
-0.000594627
0.000218053
-0.000768982
-0.00140741
0.00217416
-0.000380673
0.000453718
-0.000388876
-0.000820479
0.000241464
0.000578988
0.000139754
-0.00115076
0.00101088
0.00156866
0.000547674
-0.00212624
0.000259874
-0.000421157
0.000161283
0.00029401
0.0012651
0.00031341
-0.00038711
0.00295079
-0.000553293
0.00272779
-0.00217782
-0.000564237
0.000529873
3.43626e-05
-0.00227916
-0.000147145
-0.000372722
0.000611161
9.69815e-05
0.000202222
-0.000309081
0.00126292
0.000661658
0.000501022
-0.000576417
-2.80551e-05
0.00137435
0.000430256
0.000361501
0.00112122
-0.00148434
-0.000133377
0.00144259
-0.00204723
0.00162086
0.000356602
0.000533273
0.00173964
-0.000267993
-0.000233419
0.000501413
-0.000575726
0.000329193
0.00023184
-0.00152722
-0.000223408
-0.000274366
-0.00242747
0.00187133
0.00281274
-0.000470456
0.000702068
-0.00136431
-0.000383715
-0.00015352
0.000537235
-0.00139619
-0.000312432
0.00170723
-0.000518201
7.84239e-05
0.000439777
3.3389e-06
0.00194479
0.00255573
-0.00129464
-0.00109961
-5.00425e-05
-0.000425922
0.000588709
-0.000465954
0.000160864
0.000377057
-0.000537921
-0.00019565
0.000297197
-0.00128315
0.00218947
0.000484733
-0.000248522
-0.00026968
-0.00102961
0.0028003
-0.0018014
-0.000301543
0.000746889
0.000491003
0.00053861
-0.00044115
-0.000795098
0.000499554
0.000271928
0.000970952
-0.000862083
-0.000192719
-0.000360438
-0.000482863
-0.00114874
0.00245349
-0.00131381
0.000187245
-0.000455239
0.00255835
-0.000500786
0.000363582
-0.000509521
0.000245086
-0.00263629
0.00197321
-0.00152868
-0.000228083
-0.000194112
0.000650424
0.000147183
-0.000526118
0.000378935
-0.00134966
-0.000748839
-0.00202411
0.00249937
-0.000483042
-0.00127501
-0.00155893
-0.0023139
-0.00181048
0.00232982
0.000268508
-7.64988e-05
-0.00019224
-0.000734109
0.000926256
-0.000308926
-0.00169869
0.00200281
-0.000646767
0.00048276
0.000164004
0.00251951
-0.00114433
-0.00137772
-0.000414706
-0.000176815
-0.00218982
0.00258536
-0.000410585
0.00190349
6.2938e-05
-0.00200936
-0.000746943
0.000176127
0.000570802
0.000548722
-0.000326213
-0.000222509
-0.000606486
9.84012e-05
0.000508081
0.00146016
-0.00256275
0.00109762
-0.000198209
0.000493285
-0.00263389
0.000429401
0.000580869
-0.00024108
-0.00033979
-0.00152759
0.000826939
-0.000918739
9.17476e-05
0.00236458
0.000435537
-0.000345919
0.000590226
0.00292139
-0.0023102
-0.000628249
-0.00114589
0.00150576
0.00192515
-0.0019362
0.000469131
0.00225705
-0.00273862
-0.000399265
0.000426938
0.000474707
8.44588e-05
-0.000760239
0.000606473
0.000153752
0.00050968
-0.00030319
-0.00020649
0.00101344
-0.0008738
-0.00096191
-0.00107149
0.00203051
-0.00120598
-0.00108494
-0.000282529
0.00196989
-0.00172956
-0.00044508
0.00207112
-0.00055373
-0.00115627
0.00155636
0.000964921
-6.50732e-05
0.000752805
0.00197537
-2.44435e-05
-0.00030191
0.000326353
-0.00123407
0.000918303
0.000315649
0.000610432
0.00191472
0.000701073
-0.00190803
0.000336653
0.000244216
0.000881611
-0.000763064
0.00179993
0.000184879
-0.00127426
0.0021893
-0.000469828
-0.00119259
0.00166206
0.00053306
-0.000376884
-0.000156177
-0.00119197
-0.000413548
-0.00023197
-0.000433489
-0.00139595
0.000815854
-0.000893103
-0.000397574
0.00129037
-0.000821698
0.000551771
-0.00210644
-0.00226457
0.00282644
-0.000578509
0.000181332
0.00107771
0.000817962
-0.00130176
0.000388298
4.86176e-05
0.000639709
0.00176759
-0.00102001
-0.000748045
0.000409014
0.000117935
-0.000526949
0.00158112
-0.00189458
-0.000274693
-0.000106278
0.00126246
-0.00070523
0.0011104
-0.000405373
0.000668184
-0.0018586
0.000235351
0.00199302
-0.00223052
-0.000489161
-0.00159025
-0.00115411
0.00273442
0.000294372
-0.000318815
-0.00173749
-0.00062275
0.00235994