/*--------------------------------*- C++ -*----------------------------------*\
| =========                 |                                                 |
| \\      /  F ield         | OpenFOAM: The Open Source CFD Toolbox           |
|  \\    /   O peration     | Version:  v2012                                 |
|   \\  /    A nd           | Website:  www.openfoam.com                      |
|    \\/     M anipulation  |                                                 |
\*---------------------------------------------------------------------------*/
FoamFile
{
    version     2.0;
    format      ascii;
    class       volScalarField;
    location    "100";
    object      k;
}
// * * * * * * * * * * * * * * * * * * * * * * * * * * * * * * * * * * * * * //

dimensions      [0 2 -2 0 0 0 0];


internalField   nonuniform List<scalar> 
18758
(
0.000174538
0.00265165
0.00014425
0.0464759
0.0711135
0.0761335
0.00872585
0.000145866
0.000208073
0.0001565
0.000152761
0.0569035
0.000148174
0.000214649
0.000152234
0.00019515
0.000171144
0.000147456
0.000148477
0.000158786
0.0287187
0.000149793
0.043424
0.00316428
0.000507748
0.000145892
0.000246618
0.0698239
0.0511992
0.000586775
0.000185669
0.0371469
0.000149142
0.000151041
0.000198258
0.000149073
0.000149462
0.000148601
0.000149604
0.000172418
0.000148615
0.00015472
0.000145847
0.000154586
0.000390783
0.000145174
0.0418001
0.000153045
0.000156152
0.00014559
0.00018536
0.0733079
0.000144721
0.000152392
0.0672023
0.0116651
0.000149395
0.000183224
0.000147936
0.000217676
0.000172964
0.0102129
0.000188347
0.00015034
0.000144779
0.000148007
0.000173245
0.000149109
0.000148228
0.0720682
0.068015
0.000149277
0.000145656
0.000966028
0.000145851
0.000147871
0.000210024
0.0706067
0.000168466
0.0302735
0.0638974
0.00124901
0.00021726
0.073033
0.000212076
0.00016106
0.0533507
0.000188074
0.00101671
0.000147862
0.0700204
0.000147941
0.0369948
0.000155099
0.0655973
0.0302291
0.000210098
0.000145876
0.00014741
0.0334834
0.000159765
0.0648878
0.000186008
0.00016696
0.0309173
0.000238386
0.0488286
0.0725818
0.000150572
0.0001493
0.0387232
0.000939429
0.000146176
0.000148244
0.0652748
0.0211983
0.0272391
0.000152286
0.0430304
0.0625238
0.000165883
0.000148044
0.0771205
0.000230076
0.000214141
0.00029418
0.00128702
0.000432622
0.0301543
0.000148458
0.000171816
0.000243862
0.0154452
0.000163328
0.000460742
0.000151952
0.000209034
0.000173354
0.000147389
0.000166834
0.000168451
0.000180959
0.000147899
0.0254146
0.000148653
0.000148901
0.0242748
0.0307788
0.000185494
0.0742271
0.000750561
0.0207886
0.000160861
0.00014979
0.0512412
0.000158591
0.0377007
0.000153032
0.00014873
0.00014992
0.000146624
0.000215751
0.0381008
0.000148698
0.000173306
0.0585309
0.000148673
0.0796005
0.000190613
0.0771323
0.0422581
0.000147426
0.0423432
0.070136
0.000215246
0.00198936
0.0671054
0.000150524
0.000166628
0.000148892
0.000146437
0.00818042
0.0148063
0.000146318
0.000156095
0.00365223
0.000147694
0.0249371
0.000145656
0.000147767
0.00016344
0.000313866
0.000149436
0.000184258
0.000159441
0.000188241
0.000159192
0.000194064
0.000148899
0.000145778
0.000165694
0.000152879
0.000162385
0.000181964
0.000148082
0.000159252
0.000186315
0.000149847
0.028454
0.000156065
0.000147372
0.000167579
0.000148821
0.000162595
0.000166926
0.0615602
0.000167632
0.000195502
0.000145387
0.0772443
0.000147374
0.000150609
0.000208174
0.0288966
0.000201355
0.000185883
0.000173358
0.000163347
0.000145987
0.000181972
0.000147975
0.000188064
0.0429291
0.000212891
0.000148293
0.000147693
0.000145994
0.000145335
0.0735202
0.000163557
0.000146808
0.00026882
0.0514901
0.000151709
0.0706886
0.019965
0.000212345
0.00014912
0.0647103
0.000156669
0.000148929
0.0795785
0.000161167
0.000156896
0.000150734
0.000167437
0.000546251
0.000203202
0.000162179
0.000168294
0.000147143
0.000181926
0.000148051
0.000181708
0.000155705
0.000208138
0.0166433
0.000145394
0.000150299
0.000195004
0.00015011
0.000155735
0.000181557
0.0713259
0.0224211
0.000147878
0.000182984
0.00454302
0.000383651
0.000149896
0.000147253
0.000158934
0.000163615
0.00014787
0.00400667
0.000246633
0.0243371
0.00850863
0.045255
0.000145983
0.000144191
0.000164303
0.0673785
0.000153825
0.000168176
0.000186098
0.000158749
0.0610253
0.00014832
0.00310126
0.074413
0.000145254
0.0670424
0.000160626
0.000148356
0.00016083
0.000179894
0.000151523
0.000148962
0.0156673
0.0189476
0.000147499
0.0103863
0.061992
0.000198954
0.000147975
0.00014932
0.0154522
0.000151624
0.000146206
0.000147442
0.000150753
0.000191445
0.000180038
0.000158876
0.000162873
0.000158784
0.000164171
0.000146996
0.000149846
0.00039743
0.000166665
0.000184533
0.0442072
0.000154093
0.000149293
0.000149811
0.00273971
0.0688659
0.000146079
0.00014729
0.000146082
0.000151785
0.000162718
0.000381013
0.000148029
0.000149034
0.000145592
0.000204589
0.00017993
0.000195283
0.000179328
0.000151533
0.000280623
0.000173714
0.000164634
0.000157521
0.051097
0.0306867
0.00867713
0.000148161
0.000159993
0.00400595
0.0748183
0.000153816
0.000146005
0.000174611
0.000148564
0.000161471
0.0131418
0.023889
0.000199373
0.000158329
0.0200967
0.000148191
0.000152846
0.000147535
0.000149641
0.000194504
0.00015349
0.0123769
0.000182189
0.000150513
0.000147511
0.0302949
0.000198332
0.000207404
0.000148183
0.000179691
0.000147158
0.000154204
0.000148049
0.000145447
0.0261158
0.0306395
0.000234283
0.0515436
0.000147344
0.000205273
0.0497843
0.000167662
0.000146143
0.0443469
0.000147324
0.000149138
0.000146411
0.000195239
0.000147957
0.000154486
0.000178693
0.0772172
0.000147345
0.0693926
0.000172556
0.00014801
0.000156695
0.000148033
0.000147305
0.000158183
0.000180169
0.000163529
0.0121126
0.000166632
0.000148165
0.000191536
0.0725017
0.0493213
0.0404366
0.000195001
0.000149714
0.000145444
0.000146823
0.00014888
0.000199876
0.000170967
0.00016475
0.000160131
0.000160999
0.00806072
0.000186451
0.000148009
0.000162595
0.00088066
0.000150318
0.0252641
0.000150836
0.000148444
0.0361455
0.000155989
0.000150167
0.000467283
0.000198462
0.000164341
0.0293133
0.000147906
0.000149923
0.000203872
0.0531559
0.000159706
0.000172443
0.000216121
0.00300893
0.00999058
0.000214817
0.000149214
0.000188361
0.000148234
0.000200356
0.000151468
0.0377076
0.000179356
0.00163435
0.000164533
0.000188572
0.000145256
0.00314109
0.000145686
0.0250174
0.000147568
0.000195474
0.00014823
0.0159932
0.000162187
0.000148453
0.000147435
0.000146354
0.0619937
0.0222047
0.062433
0.000173328
0.000155167
0.000180205
0.000149786
0.000149909
0.0736294
0.000147449
0.0001483
0.000186352
0.000148118
0.0001719
0.00018021
0.000148272
0.000147951
0.000155729
0.000150126
0.000159103
0.0696178
0.000165202
0.000159248
0.000156112
0.000148191
0.000342887
0.000149375
0.000150533
0.000342755
0.0230661
0.000187551
0.0267381
0.000154059
0.000150463
0.028458
0.000148575
0.0248155
0.000193096
0.000148403
0.0723848
0.000364256
0.000175162
0.000147372
0.000166188
0.0724727
0.000148631
0.00014785
0.000152415
0.000151473
0.000148983
0.000146007
0.000149956
0.0698147
0.000155336
0.0597726
0.000148046
0.000190419
0.00674385
0.00014809
0.000145718
0.00015522
0.000148758
0.000150072
0.000151141
0.000148803
0.000188028
0.000203077
0.000144796
0.072792
0.0616885
0.000159057
0.000188295
0.000442536
0.000154561
0.000164256
0.000159237
0.0692322
0.000155212
0.000175368
0.000148061
0.0115995
0.000169157
0.000179976
0.000194483
0.00818324
0.000155072
0.00014779
0.000173665
0.000434605
0.000149897
0.000205712
0.000149002
0.0597588
0.000150302
0.000147438
0.000146333
0.000148163
0.0627048
0.0622655
0.00014825
0.000239487
0.000157604
0.0520862
0.0280131
0.0114758
0.000677213
0.000148499
0.0729571
0.000184067
0.000148006
0.000173885
0.0720376
0.0286371
0.000150945
0.000149927
0.0001481
0.000144529
0.0308838
0.000188113
0.0681467
0.0449443
0.000148425
0.00014884
0.000175753
0.000149864
0.000146631
0.000151099
0.000151874
0.000188559
0.000168813
0.000191637
0.0730288
0.000172848
0.000148274
0.000155535
0.000181554
0.0739361
0.000174146
0.00423402
0.00017171
0.000148273
0.000232521
0.0545023
0.000149601
0.000146278
0.000172184
0.0682814
0.000193797
0.000148123
0.026023
0.00886212
0.000574813
0.000145554
0.00478147
0.0143057
0.0498512
0.000153479
0.000149249
0.0622099
0.00014996
0.000209882
0.0310758
0.000200514
0.00924586
0.000186856
0.0411508
0.000180435
0.00014852
0.000149865
0.0312225
0.0477049
0.0125904
0.0276325
0.000148595
0.000209617
0.000149835
0.000173746
0.00018867
0.000183966
0.000148442
0.000153597
0.000204018
0.071582
0.0338111
0.0114114
0.000165164
0.00015983
0.000215288
0.000149122
0.000146919
0.000147737
0.000156968
0.000186589
0.000148104
0.000187488
0.000146941
0.000148749
0.000147208
0.0708678
0.000149356
0.000149778
0.000174728
0.000172848
0.000144849
0.0207558
0.000148582
0.000147405
0.000171749
0.000159505
0.000155504
0.000150719
0.0025463
0.000159222
0.000161422
0.0531255
0.000161548
0.0463891
0.000154073
0.000188486
0.0478041
0.0255706
0.000146172
0.0696687
0.000726664
0.000145662
0.0392567
0.000148278
0.000147122
0.00016743
0.000147504
0.000175805
0.0725208
0.000145626
0.0418783
0.000148386
0.000165727
0.0458905
0.000144689
0.0665044
0.000151778
0.000148634
0.000147669
0.000147735
0.00020356
0.00016554
0.0185982
0.000173157
0.0731199
0.000175462
0.000148117
0.000207053
0.0140218
0.00118168
0.0001662
0.000194674
0.000184227
0.000156596
0.000203276
0.000150315
0.00265243
0.000148068
0.00534932
0.000151196
0.000166365
0.00015576
0.000149819
0.0347915
0.000149936
0.00014667
0.00104298
0.000151791
0.000147228
0.000171765
0.000179402
0.000204874
0.000668262
0.0372951
0.0403857
0.000148785
0.000149309
0.0302877
0.000147888
0.000264921
0.000187913
0.000152949
0.000148299
0.000160555
0.000147951
0.000148467
0.000160556
0.000255821
0.000191635
0.000172465
0.000169754
0.000148786
0.000180006
0.0645719
0.000146992
0.000189297
0.000153421
0.0719602
0.000150998
0.0576899
0.000148031
0.000793526
0.00014983
0.0001842
0.000148049
0.000156425
0.000163177
0.000144737
0.000147272
0.000145063
0.0652056
0.00811115
0.000164487
0.0697046
0.000148311
0.000170533
0.000158626
0.000210031
0.030686
0.00016467
0.000144932
0.000180592
0.000146946
0.000148313
0.000158717
0.0239216
0.074925
0.000432313
0.0151021
0.000165816
0.000150604
0.000147513
0.00145083
0.000147146
0.000757891
0.00015853
0.000149167
0.0786535
0.0804378
0.000148496
0.0233811
0.000156415
0.00020244
0.000169625
0.0259721
0.0798492
0.000329565
0.000147813
0.000144717
0.0733406
0.000147921
0.00014818
0.000159133
0.000148006
0.0586162
0.000225149
0.000175824
0.0653079
0.000172688
0.000197711
0.000153276
0.000147758
0.000144649
0.000146362
0.0225148
0.0269527
0.00024227
0.000148274
0.000144873
0.000163821
0.000147184
0.00016758
0.000154088
0.000643396
0.0757751
0.000186911
0.000220394
0.000247803
0.000147978
0.000201789
0.000147529
0.0333097
0.000650348
0.0432088
0.0433889
0.000152014
0.00016073
0.000781889
0.0648676
0.0453646
0.000161421
0.000182944
0.0346851
0.000148166
0.000215787
0.000239724
0.000201507
0.000148123
0.000148435
0.00016893
0.0435337
0.000343809
0.000170763
0.000148002
0.000155784
0.000156146
0.0185189
0.000149628
0.000234475
0.000147273
0.000150102
0.000196258
0.000146998
0.000148
0.000151679
0.000155654
0.000147664
0.000150276
0.000145623
0.0325649
0.000258901
0.0371209
0.000146099
0.000162954
0.000148023
0.000208887
0.000206439
0.000161471
0.000147303
0.000151485
0.000219272
0.000192954
0.000159857
0.0272552
0.000201048
0.000147981
0.000148422
0.0486943
0.00146122
0.000168851
0.000145309
0.00629653
0.000148735
0.000164907
0.000145902
0.000351974
0.0525754
0.000146915
0.000148919
0.00105561
0.000147823
0.0693358
0.0237044
0.000180257
0.000149195
0.000149026
0.000145879
0.000148076
0.00952535
0.00827653
0.000185308
0.000150816
0.0446776
0.000147656
0.000147762
0.0732712
0.000147081
0.0744184
0.000144579
0.000156283
0.000151132
0.00014774
0.000147143
0.000148697
0.0393321
0.000150224
0.00014923
0.000172485
0.000169174
0.000147657
0.000172543
0.000162482
0.000148735
0.000182581
0.000147672
0.000161401
0.0580785
0.000198497
0.000147875
0.000236503
0.000192848
0.000178958
0.000155262
0.000180755
0.029928
0.000153828
0.00017557
0.00014772
0.000146015
0.000147904
0.000175229
0.000162706
0.000175635
0.000148143
0.000158109
0.000184532
0.0202017
0.000215612
0.000147755
0.000146494
0.000150588
0.000175117
0.000146669
0.0242637
0.000147717
0.000147873
0.000146491
0.000187964
0.0642199
0.000148946
0.000152837
0.000147068
0.000188232
0.000146554
0.000148063
0.00654761
0.000149784
0.00014614
0.000148771
0.000186707
0.000146459
0.000147828
0.0565227
0.0103232
0.000195742
0.000161124
0.0646807
0.000163098
0.000147703
0.000147475
0.0116168
0.000148064
0.000180481
0.000186463
0.000168415
0.000154817
0.000150113
0.000158337
0.000150458
0.000145337
0.000197068
0.0738193
0.000163584
0.000146395
0.0624869
0.000173689
0.012635
0.00775307
0.000201454
0.000148844
0.000148155
0.000148112
0.000180215
0.000148741
0.000147122
0.0724676
0.000172544
0.000174426
0.000147475
0.000170412
0.000239216
0.000148512
0.000154853
0.000162008
0.000171743
0.000181613
0.00014816
0.000152203
0.00016649
0.000146642
0.000165295
0.000149137
0.00237101
0.000173855
0.000188218
0.000147396
0.000164506
0.06587
0.0493557
0.000316024
0.000168863
0.0209265
0.000148768
0.000147723
0.00015071
0.00017981
0.000149055
0.000151372
0.00015769
0.000180461
0.000147847
0.000147545
0.000148852
0.000149832
0.000251258
0.0230001
0.000512027
0.000147916
0.0213184
0.00015649
0.000148948
0.000164534
0.000148085
0.000180763
0.000151175
0.000148025
0.0516748
0.00706266
0.0613581
0.000150145
0.0106857
0.000148025
0.0434834
0.0545149
0.000145196
0.000179889
0.000229811
0.000145345
0.000147571
0.00835036
0.000149906
0.00014798
0.000194084
0.000445148
0.000148037
0.000162141
0.000148917
0.000155417
0.00019295
0.000149035
0.0583973
0.000172426
0.000147578
0.000385323
0.000167765
0.000183531
0.000149915
0.00024279
0.000148275
0.0710892
0.000147991
0.000146558
0.0564899
0.000145766
0.063707
0.000147616
0.000172264
0.0550765
0.0737757
0.000148015
0.000149306
0.000148042
0.000151042
0.000156849
0.000154657
0.000144326
0.011395
0.000147216
0.000148597
0.000186577
0.000179977
0.000163632
0.000148031
0.00986003
0.00018143
0.000149953
0.000158879
0.000147669
0.000147221
0.0605496
0.000145386
0.000146605
0.000147359
0.0669243
0.00014789
0.00014708
0.0690492
0.000155527
0.0377912
0.000164806
0.000144545
0.000147042
0.00192971
0.000157571
0.000148005
0.0647751
0.0404207
0.000146445
0.0465319
0.000187482
0.000148525
0.000148373
0.00019089
0.000149435
0.00803482
0.000160041
0.000148066
0.000545523
0.0383715
0.000207663
0.000147662
0.0305575
0.000157874
0.000184569
0.0106158
0.000147655
0.0259905
0.00014793
0.00015759
0.000157714
0.0715711
0.000145685
0.00015025
0.0131816
0.000149808
0.000159031
0.000145724
0.000148477
0.0352651
0.000179329
0.000153549
0.000164014
0.000578403
0.000149283
0.000152066
0.000173802
0.000194707
0.000156175
0.000147978
0.000147564
0.000148891
0.00015049
0.000146823
0.000159835
0.000156887
0.000386815
0.000147893
0.00490076
0.000147986
0.000160552
0.000147738
0.000160964
0.000148464
0.000147759
0.0404029
0.0554389
0.000153193
0.000148516
0.0302758
0.000156929
0.0563161
0.000159467
0.000165348
0.041331
0.00953868
0.0541763
0.000151989
0.000148827
0.000146524
0.0505514
0.000147404
0.000148002
0.000174194
0.000147232
0.000149181
0.000148294
0.0165938
0.000677886
0.00014915
0.000409276
0.073798
0.000153632
0.000147413
0.000148871
0.0623007
0.000147283
0.000198969
0.000149915
0.000147726
0.000149128
0.000146347
0.000182874
0.000148606
0.000148296
0.000147364
0.00014546
0.000246366
0.000145258
0.000147571
0.000149263
0.000148013
0.000221894
0.00689817
0.000167526
0.000149864
0.000148322
0.000149234
0.000149464
0.0511822
0.000147931
0.000159215
0.000166939
0.0467677
0.000147553
0.000147449
0.0546771
0.000148736
0.000175389
0.000179555
0.000150065
0.0566337
0.0622253
0.000157332
0.0156561
0.000158751
0.000202375
0.000144711
0.00695016
0.000148188
0.00170934
0.000148219
0.000147105
0.00369584
0.00027814
0.000203382
0.00017198
0.000147395
0.0707961
0.000149116
0.0746867
0.000174634
0.000147377
0.000144777
0.000148528
0.000171153
0.00016675
0.0684782
0.000170718
0.000147526
0.000147405
0.000148494
0.0203916
0.000178919
0.000159446
0.000148883
0.000147403
0.00016057
0.000214052
0.000148642
0.000159568
0.000165487
0.000147922
0.000153405
0.000150902
0.000175238
0.000174814
0.000153703
0.000166681
0.00014582
0.000147975
0.0264006
0.000165808
0.000181157
0.00236247
0.000145379
0.0238133
0.00210252
0.000163022
0.076926
0.000147753
0.0548508
0.0715355
0.000194398
0.000146446
0.0778707
0.000194933
0.000147821
0.00016778
0.0487324
0.000150069
0.000147695
0.000164871
0.000149791
0.0247138
0.000157725
0.000149066
0.000149871
0.000147213
0.000165013
0.000165852
0.0240272
0.000193662
0.0400356
0.000174223
0.000149719
0.000147771
0.00023482
0.0195796
0.000148059
0.00014753
0.000189203
0.000149224
0.00022508
0.0545244
0.0258436
0.000148036
0.000148138
0.077134
0.000146513
0.0737911
0.000217322
0.000147029
0.0698517
0.000174345
0.000167485
0.000147894
0.00618045
0.000148081
0.000368484
0.000144473
0.000172731
0.000151508
0.000145878
0.0708556
0.000151135
0.000148106
0.000152245
0.0390804
0.000148413
0.00014522
0.0298926
0.000147635
0.000146896
0.000148717
0.000156136
0.000148286
0.000149172
0.000156256
0.000149129
0.000154491
0.000145732
0.000187305
0.0309473
0.000172678
0.04049
0.000160059
0.000154553
0.000147348
0.000146727
0.000149204
0.0303302
0.0460729
0.000148046
0.000149838
0.00014756
0.023975
0.000145164
0.000210637
0.00189713
0.0619792
0.0629016
0.0279996
0.043473
0.000146835
0.0462408
0.0378746
0.056977
0.000154827
0.000148863
0.000172635
0.000145733
0.0263128
0.000193365
0.000175486
0.000157037
0.0260505
0.000147972
0.000144328
0.0579283
0.000194069
0.000148056
0.000144593
0.000173555
0.00014871
0.0281886
0.0114382
0.030968
0.0513763
0.000185611
0.000474153
0.000147981
0.000209022
0.000148631
0.000147981
0.000146758
0.0374822
0.000148997
0.000147375
0.000495701
0.0373132
0.000201462
0.000194118
0.000151022
0.000165303
0.0227512
0.0193125
0.0571073
0.0408639
0.000171734
0.0634709
0.000180541
0.000377672
0.000172815
0.000172107
0.000147371
0.00016097
0.000165146
0.00014822
0.0547503
0.000146956
0.000148028
0.00014794
0.0755021
0.000154001
0.000146603
0.000147091
0.000147973
0.000176373
0.000169717
0.000616677
0.000151116
0.0326274
0.000144631
0.000147712
0.000182031
0.000167081
0.000144436
0.061523
0.000170639
0.0632088
0.000147775
0.0325643
0.000166739
0.000147702
0.000148293
0.000148037
0.0339115
0.0672056
0.0149052
0.000147723
0.000148931
0.000145036
0.0645158
0.000156485
0.000148308
0.000351958
0.000147904
0.000150396
0.0456166
0.000146267
0.000147889
0.000148342
0.00014987
0.000144592
0.000150449
0.000144511
0.00014904
0.000185046
0.000166347
0.000146762
0.0211844
0.000153202
0.0716346
0.0180068
0.000165459
0.060113
0.0640888
0.000147346
0.000171155
0.00014804
0.000147116
0.00143643
0.000154815
0.0700469
0.000155285
0.00020357
0.000148464
0.00015107
0.00014734
0.0612712
0.000161904
0.0382104
0.000149056
0.000186274
0.000160908
0.000146492
0.000166952
0.000169725
0.000145037
0.0686427
0.000148573
0.000170723
0.000147906
0.000157632
0.000167036
0.000207549
0.000155238
0.000185272
0.00339144
0.000160723
0.000171283
0.000146156
0.0792455
0.00017315
0.000149794
0.000175326
0.00148349
0.0155071
0.000147983
0.000151322
0.000149077
0.000145714
0.000147834
0.0496004
0.000159865
0.00014842
0.0224596
0.000148659
0.000145129
0.00015437
0.0723994
0.00014896
0.022837
0.0429072
0.000170068
0.028331
0.000150847
0.065056
0.00112318
0.000145183
0.000160742
0.000148367
0.000150081
0.000168341
0.0139072
0.00017951
0.000330508
0.000199533
0.000147561
0.0732579
0.0001473
0.0574544
0.000149772
0.0399117
0.0508384
0.000148992
0.000147185
0.000149847
0.000164544
0.000181906
0.000147638
0.016289
0.000151896
0.000172836
0.000173577
0.000151401
0.000147338
0.0319331
0.00014654
0.000213625
0.000157402
0.0110353
0.00014876
0.000147501
0.0554882
0.000144221
0.000146204
0.000150366
0.00017334
0.00017359
0.000208096
0.000152557
0.000146378
0.000155315
0.000149641
0.000149661
0.0626394
0.000147514
0.000166979
0.0674927
0.000205351
0.00014792
0.000181397
0.000147784
0.000149336
0.000187427
0.000203734
0.00018171
0.00014956
0.000147902
0.000152931
0.000186761
0.000147713
0.000162778
0.000147545
0.000149428
0.000146811
0.000148921
0.0614093
0.00014481
0.0639574
0.000424344
0.000154415
0.000145867
0.0586384
0.0547285
0.000147146
0.000147902
0.0720616
0.000149142
0.000164693
0.000182656
0.000469787
0.000147445
0.000150255
0.000170473
0.000147917
0.0772077
0.000197031
0.000147378
0.000159455
0.000164479
0.000148469
0.000185331
0.000148944
0.000163403
0.000150976
0.000154564
0.000144613
0.000147544
0.000208565
0.000147931
0.0712064
0.000186385
0.000148278
0.000148236
0.000147731
0.000147257
0.060658
0.000149796
0.00019294
0.000147266
0.000147144
0.000172529
0.0735927
0.000146286
0.000144901
0.000147811
0.000150004
0.000160082
0.000160398
0.0332816
0.000161108
0.000146761
0.000192876
0.0629869
0.000148999
0.000162108
0.0438229
0.000164617
0.000149848
0.00189247
0.000144634
0.0280393
0.000173654
0.000148306
0.000189485
0.000147811
0.000147722
0.000148354
0.0549819
0.000148378
0.00618378
0.0626062
0.000781394
0.0001621
0.000147591
0.051857
0.000149841
0.011755
0.000146356
0.000245338
0.000154016
0.000193581
0.000149998
0.015607
0.000159999
0.000149451
0.0356856
0.0323904
0.000144921
0.0086085
0.00014776
0.000159359
0.000146993
0.0069811
0.000308531
0.000149094
0.000148161
0.0658139
0.000185135
0.000146877
0.000151372
0.000148058
0.000146529
0.00014602
0.000152176
0.0254554
0.021326
0.000149535
0.000178301
0.000153404
0.000186172
0.000147856
0.00726812
0.0343658
0.0220693
0.00015021
0.0670654
0.0252835
0.000153274
0.000160879
0.000147302
0.000180162
0.0343454
0.000149394
0.000146003
0.00014636
0.000157961
0.000145059
0.000147919
0.000350118
0.000150769
0.000179828
0.000148375
0.000147672
0.00015361
0.000148139
0.000196854
0.0755254
0.000146378
0.000172416
0.000144975
0.0689167
0.000147386
0.000152447
0.035494
0.000203959
0.000154266
0.0112187
0.000186744
0.000148345
0.000168168
0.000148571
0.000164499
0.000149525
0.000147407
0.000195622
0.000188238
0.0535272
0.00019721
0.000158734
0.00306047
0.000152519
0.0001687
0.000151118
0.0623461
0.0607528
0.0142372
0.000147936
0.000144507
0.0297977
0.0378248
0.000148767
0.0564096
0.000148831
0.000156939
0.00014436
0.000147872
0.000147695
0.000147445
0.000210619
0.000161163
0.000164232
0.000148064
0.000148059
0.00014534
0.000146682
0.000146579
0.000149729
0.000147502
0.0562697
0.0436513
0.0425062
0.000152304
0.0443302
0.000174259
0.075469
0.04046
0.00017408
0.000148645
0.000149083
0.00018068
0.000149376
0.0301523
0.0247617
0.000150331
0.000145743
0.000163563
0.0448628
0.000147866
0.0747229
0.000148048
0.00014855
0.0784666
0.00014772
0.000156238
0.000149022
0.0447527
0.000145884
0.000147929
0.000201875
0.000145808
0.000148261
0.000147485
0.000145765
0.00016564
0.00014756
0.00910749
0.000147992
0.000149397
0.000144502
0.0246097
0.000162095
0.00014882
0.063652
0.000148447
0.000145608
0.000227574
0.000453544
0.000148613
0.0755688
0.0758937
0.000156481
0.044191
0.000148631
0.000148416
0.000196846
0.00014633
0.0498711
0.0418903
0.000144417
0.000157554
0.000147402
0.0178726
0.0118472
0.000171874
0.00014887
0.000645128
0.000159636
0.00017369
0.000156819
0.000148043
0.000150619
0.000147559
0.000146637
0.0700698
0.000144056
0.000146643
0.000168905
0.00667093
0.000185764
0.0774216
0.000147938
0.00016199
0.000148021
0.000148669
0.000148663
0.000146318
0.000148933
0.000147522
0.000148551
0.000149074
0.000154262
0.000148049
0.000149289
0.000145811
0.0184098
0.0797172
0.000149491
0.000151152
0.0689078
0.000149346
0.000202758
0.0398268
0.00029228
0.0779176
0.000251412
0.0784961
0.00514695
0.0305593
0.000147609
0.000160349
0.000147364
0.000169142
0.000154251
0.00014945
0.000147283
0.0267751
0.000145919
0.000156745
0.0771483
0.000145625
0.000146926
0.000174247
0.000145792
0.0001475
0.000147459
0.000149511
0.0433592
0.0195964
0.000148089
0.000147943
0.000148266
0.0001505
0.000161799
0.000150846
0.00402041
0.000194361
0.000149237
0.0557703
0.000163628
0.000147892
0.0482974
0.000145741
0.000181017
0.000146318
0.000149673
0.000149439
0.0440868
0.000147896
0.000147582
0.000153548
0.000149804
0.000160758
0.00014681
0.0220067
0.000166543
0.000162612
0.00621469
0.0783309
0.000195052
0.000164784
0.0491253
0.000148064
0.00014787
0.00015555
0.0477178
0.000181759
0.000168496
0.0258603
0.000147674
0.00092271
0.000200674
0.000844728
0.000147979
0.000159904
0.000147293
0.000187286
0.000158209
0.000351307
0.0800765
0.000147939
0.000163751
0.000155999
0.000148157
0.000313625
0.000148045
0.000162977
0.000175758
0.000180558
0.000147985
0.000149963
0.000149484
0.00017287
0.000147474
0.000149551
0.000148004
0.000148387
0.000146334
0.000160747
0.000144702
0.000280246
0.0520544
0.00014972
0.00014647
0.000145518
0.000163417
0.00015935
0.000148733
0.0326532
0.000162707
0.00014641
0.000146562
0.0628915
0.0529789
0.000147401
0.000212377
0.000159059
0.000147944
0.0229795
0.000154677
0.000175372
0.00014952
0.0287881
0.0778346
0.000149681
0.000165733
0.0406319
0.000162594
0.0295337
0.000149561
0.000153952
0.0543074
0.0709428
0.000155503
0.000153687
0.000149926
0.000152625
0.000151567
0.0334382
0.0523424
0.0545419
0.000153125
0.000148074
0.000178582
0.000147538
0.000203307
0.000154033
0.0250269
0.000145859
0.000149195
0.000147361
0.000148283
0.0001468
0.000185376
0.0666914
0.000157878
0.000145425
0.000148574
0.0156312
0.00015183
0.000152558
0.000148952
0.000165381
0.0506747
0.000145792
0.000147713
0.000169204
0.0001823
0.000148656
0.000169434
0.000149321
0.000152084
0.000203876
0.000156458
0.0733933
0.000331201
0.00016342
0.0528255
0.000146883
0.000147523
0.000151291
0.0753276
0.000151061
0.0025775
0.000145857
0.0427991
0.000165285
0.000147194
0.000159978
0.000149092
0.0718901
0.000173456
0.000160952
0.000197657
0.000196146
0.000148923
0.000149286
0.000149487
0.000155021
0.0445587
0.000179613
0.000148569
0.000201009
0.000148062
0.0753576
0.000147986
0.0682708
0.000160139
0.0770749
0.000513014
0.000166012
0.000148084
0.000147998
0.000146965
0.0786853
0.000148767
0.000177906
0.0134782
0.000144615
0.0274224
0.000158828
0.000147999
0.000192055
0.00014731
0.00014797
0.0356557
0.00775959
0.0328987
0.000147525
0.000146317
0.00015028
0.000154351
0.000151464
0.000148434
0.0288778
0.000191953
0.00631538
0.000150451
0.000163857
0.000541732
0.000234392
0.000157479
0.000146509
0.0239992
0.000150872
0.0474328
0.000147465
0.000148024
0.000147949
0.000146353
0.000144603
0.000149766
0.000146376
0.00015977
0.0616333
0.000165419
0.0486353
0.000153523
0.000149343
0.000148721
0.000200198
0.000148079
0.000150406
0.00014814
0.0324922
0.00897274
0.00014635
0.000153361
0.000147214
0.000147986
0.000149843
0.000148275
0.000147534
0.000273847
0.000148974
0.000147349
0.000188198
0.000146841
0.0431747
0.000187779
0.000196382
0.00020108
0.000153885
0.000148399
0.0679141
0.000148641
0.000191956
0.000161798
0.0001467
0.000168976
0.000148292
0.072891
0.000145651
0.000147585
0.0757203
0.000173715
0.0209449
0.000146135
0.000185775
0.000189509
0.00015846
0.055881
0.000147038
0.000146422
0.000145745
0.000171815
0.000150312
0.000538602
0.000147929
0.000171102
0.0461511
0.000202773
0.000148018
0.000237677
0.000153514
0.0312465
0.000151486
0.000152829
0.000153706
0.0514815
0.000147987
0.000149887
0.0601038
0.000145634
0.000154451
0.000147042
0.000162049
0.0725428
0.0520075
0.000147551
0.000169736
0.000147952
0.00023731
0.000148037
0.000149811
0.000196577
0.0082501
0.000162627
0.00014783
0.000153939
0.010543
0.000172028
0.000185
0.0707989
0.000148006
0.0160488
0.000157614
0.000191453
0.000147756
0.000155053
0.0696512
0.000153642
0.000147368
0.000211572
0.0308969
0.0798491
0.000145948
0.0601461
0.000596573
0.000146421
0.000190559
0.0226667
0.000149843
0.000151529
0.0341106
0.000144475
0.000149474
0.000146672
0.000148566
0.000188569
0.000182173
0.000168038
0.0415155
0.000149792
0.000163999
0.000156564
0.000148801
0.000151104
0.000167574
0.000148091
0.000149473
0.0678153
0.0439776
0.0265581
0.000146448
0.000166256
0.000148814
0.0572675
0.000148522
0.00016714
0.0591501
0.0184953
0.000165387
0.00014848
0.00031714
0.0447694
0.000421164
0.000147888
0.00014873
0.000146822
0.0737646
0.000166135
0.000192484
0.072928
0.000148556
0.00014935
0.0380847
0.000156145
0.000180574
0.000149095
0.000147428
0.000148056
0.000446818
0.000148407
0.000179566
0.000147083
0.000148622
0.000146429
0.0475919
0.0395414
0.00015197
0.000223703
0.000151082
0.000679836
0.000147521
0.000147334
0.000187406
0.000148543
0.000147695
0.000153586
0.00017485
0.000160508
0.000186287
0.000148175
0.00018061
0.0653793
0.000148603
0.000149255
0.00014837
0.0628541
0.000165884
0.000162346
0.000187177
0.000146859
0.000148139
0.000173796
0.000156869
0.00329963
0.078523
0.000162141
0.0470389
0.012893
0.037905
0.000177203
0.000149126
0.000147828
0.000222255
0.061222
0.000147125
0.000162113
0.0395754
0.000148606
0.000211257
0.000299301
0.000197226
0.00014772
0.00019689
0.000148806
0.000148602
0.00014655
0.000210308
0.000148904
0.000182211
0.000170554
0.000147713
0.000149162
0.015712
0.000147257
0.000145273
0.00017357
0.00369602
0.000168431
0.000148003
0.000163182
0.03049
0.0601177
0.000159641
0.0507835
0.000190631
0.000178498
0.000168346
0.000149112
0.000172847
0.000158047
0.000145872
0.000147016
0.000149238
0.00015683
0.000228945
0.0422837
0.000149405
0.011921
0.000173745
0.000708212
0.0504452
0.000218944
0.0564503
0.000195116
0.0502753
0.000171805
0.0433651
0.00018027
0.000148006
0.000148553
0.0769229
0.0504517
0.000193064
0.0550834
0.00014695
0.0589023
0.0468967
0.00014808
0.000145373
0.000163811
0.000177841
0.0398601
0.0226053
0.000179452
0.000146936
0.00014748
0.000149403
0.0723835
0.000153617
0.0367083
0.000154953
0.0502074
0.000198309
0.041873
0.000159073
0.06613
0.000146614
0.000145202
0.000154377
0.000149018
0.0624696
0.000187833
0.0576278
0.000148563
0.0353811