/*--------------------------------*- C++ -*----------------------------------*\
| =========                 |                                                 |
| \\      /  F ield         | OpenFOAM: The Open Source CFD Toolbox           |
|  \\    /   O peration     | Version:  v2012                                 |
|   \\  /    A nd           | Website:  www.openfoam.com                      |
|    \\/     M anipulation  |                                                 |
\*---------------------------------------------------------------------------*/
FoamFile
{
    version     2.0;
    format      ascii;
    class       surfaceScalarField;
    location    "100";
    object      phi;
}
// * * * * * * * * * * * * * * * * * * * * * * * * * * * * * * * * * * * * * //

dimensions      [0 3 -1 0 0 0 0];
oriented        oriented;


internalField   nonuniform List<scalar> 
27907
(
-0.0842617
0.0650869
0.0191748
-0.0623283
-0.0103451
0.0726734
0.416156
-0.466514
0.0503688
0.032693
-0.00955359
-0.0231394
0.0124511
-0.00289443
-0.00955667
-0.0140629
0.00523173
0.00883118
0.0105454
-0.000307221
-0.0102382
-0.333937
0.422954
-0.0890126
0.0929895
-0.0786458
-0.0143437
-0.170011
0.0232897
0.146721
-0.0237851
0.184582
-0.160796
-0.00882284
0.00640426
0.00241858
0.0806525
-0.437007
0.35636
0.0991626
-0.108028
0.00886574
0.25925
-0.175932
-0.0833181
0.0504212
-0.0307612
-0.01966
0.0361939
0.092526
-0.12872
-0.0878472
0.369212
-0.281362
-0.121356
-0.135919
0.257276
0.146433
-0.121972
-0.024461
-0.000235376
0.000185495
4.98812e-05
-0.430725
0.448715
-0.0179899
-0.00342402
0.00142939
0.00199462
0.0683639
-0.0836974
0.0153335
0.0228876
-0.0884556
0.0655681
-0.420626
0.0866943
0.0388343
0.00607857
-0.0449129
-0.0058988
-0.00305606
0.00895486
0.0367533
0.0149647
-0.051718
0.0787775
-0.0617726
-0.0170049
0.0912464
0.0152726
-0.106519
0.000711413
-0.00363078
0.00291937
0.47448
-0.462046
-0.0124314
-0.24429
0.126121
0.118169
-0.103638
0.0279979
0.0756397
-0.484552
0.293498
0.191055
0.557214
-0.334976
-0.222237
0.281278
-0.13646
-0.144818
-0.152734
0.243479
-0.0907445
0.0281353
-0.126619
0.0984837
0.274596
-0.189597
-0.0849985
0.160313
-0.139848
-0.0204646
0.174022
-0.340163
0.166143
-0.118921
0.159768
-0.040847
0.0996065
-0.0763523
-0.0232542
-0.496517
0.261004
0.235521
-0.00225967
-0.00116434
-0.152759
0.193316
-0.0405571
-0.148728
-0.0212831
-0.203807
0.399357
-0.195547
-0.0906172
0.114112
-0.0234945
0.020151
-0.0158054
-0.00434554
-0.47578
0.0937707
0.382014
-0.194923
0.171138
0.00324358
-0.00914238
-0.0246037
0.0846996
-0.0600959
0.299493
0.257723
0.0448829
-0.0228941
-0.217215
-0.0164824
0.233698
-0.104817
0.026618
0.0781986
0.055917
-0.0870224
0.0311054
0.00892882
0.00161662
-0.115512
0.110217
0.00529485
0.189219
-0.0333925
-0.155826
-0.385806
-0.0899685
0.345157
-0.190256
-0.1549
-0.0734197
0.135258
-0.0618378
0.364594
0.109889
0.147585
-0.278166
0.130582
0.00305285
0.0170981
-0.0144486
0.0127166
0.00173203
-0.122605
0.224922
-0.102317
-0.379808
0.176003
-0.017031
0.0111215
0.00590946
0.150539
-0.377321
0.226785
0.2096
-0.00959552
-0.200004
0.0929816
-0.0682794
-0.0247021
0.00983076
0.00161575
-0.0114465
-0.0823587
0.0238367
0.0585219
0.00373233
-0.00177309
-0.00195924
0.00200331
-0.00152702
-0.000476292
0.0801161
-0.0593751
-0.020741
-0.0670734
-0.0377432
0.00259566
-0.0100501
0.00745449
0.0938966
-0.000915
0.169789
-0.150442
-0.0193469
0.0205126
-0.0313272
0.0108146
-0.09729
-0.0182218
0.00360733
-0.00283279
-0.000774536
-0.0469933
0.256594
0.0066476
-0.00405194
0.00155949
-0.218774
-0.00587198
0.0021069
0.00376508
0.141367
0.0189465
0.002343
-0.00196238
-0.000380618
-0.00370905
-0.00216293
0.0823426
0.011554
0.349464
-0.198924
0.122238
-0.261055
0.138817
-0.000520978
0.000285602
0.149165
-0.0213262
-0.127839
-0.0013659
-0.00332366
0.00468957
-0.0815201
-0.0262669
0.107787
0.019474
-0.111716
0.0922417
-0.0014834
0.00219481
0.0519509
0.0268266
0.0631216
-0.0422449
-0.0208767
0.0119241
-0.0020933
-0.162622
-0.0345492
0.197171
0.143061
-0.242183
0.0991212
0.00340127
-0.00711032
-0.017031
0.197589
0.216399
-0.413983
-0.152745
0.261233
-0.108488
-0.0463367
0.0407895
0.00554724
0.00882986
0.000365069
-0.00919493
-0.0055494
0.0059211
-0.000371703
0.128063
0.131188
-0.00186239
0.00194277
-8.0388e-05
0.00177653
0.00056647
0.0208258
0.111621
-0.132447
-0.270374
0.239592
0.0307819
-0.0265842
0.0333873
-0.00680309
-0.0410452
0.000577439
0.0404677
0.019219
-0.0774268
0.0582078
0.0656889
0.0339175
-0.0740912
0.011763
-0.0591878
0.0779493
-0.0187616
0.00416028
-0.00205338
0.440656
-0.625045
0.184396
-0.0769904
0.113184
0.0629646
-0.0241303
0.00225207
-0.00206657
0.132026
-0.0540509
-0.0779751
-0.00961201
0.031519
-0.200031
0.119749
0.0802813
-0.087273
0.0189935
0.127858
-0.0997231
0.276342
-0.154103
0.00356682
-0.0482198
0.044653
-0.0762291
-0.00612955
-0.00623478
-0.0470279
0.0532627
-0.262645
0.237919
0.0247262
-0.0645726
0.0399689
0.225029
0.0495671
-0.185604
0.276914
-0.0913093
-0.00222556
0.00232852
-0.00010296
-0.00559288
0.000109628
0.00548325
-0.0190193
0.110266
0.0247908
-0.0359904
0.0111996
0.0591683
0.0209478
-0.0532642
-0.00865456
0.0619188
0.187331
-0.0495589
-0.137772
-0.458728
0.45747
0.00125889
0.00278674
-0.00234056
-0.000446175
-6.84471e-05
0.154739
-0.154671
-0.00204333
0.00018094
-0.199205
0.0464462
0.00369512
0.166488
-0.170183
0.486257
-0.300032
-0.186225
-0.193483
0.356039
-0.162554
-0.103677
0.0721131
0.0315642
0.0117491
-0.00689638
-0.00485276
-0.184252
0.187947
0.0855881
-0.0296711
0.052118
-0.0153648
0.161352
0.0909148
-0.252266
0.0290053
-0.00719913
-0.0218062
0.0703129
-0.0892839
0.018971
0.00328034
0.0102487
-0.0135291
-0.00754219
0.00787135
-0.000329159
-0.322392
0.234547
0.00751917
0.00422998
-0.00818578
0.00994772
-0.00176194
-0.0430995
-0.0605778
-5.04751e-05
0.0684144
0.0439479
-0.0103408
-0.0336072
0.17085
0.0183692
-0.0613144
0.0648812
-0.266238
0.146535
0.119704
0.263656
-0.460614
0.196963
0.00857231
-0.00857231
0.0162826
-0.0695468
-0.182626
0.347172
-0.164545
-0.0774504
0.15801
-0.0805594
-0.0134034
-0.0595372
0.0729406
-0.317476
0.235325
0.0821518
0.00820277
0.000627097
-0.217176
0.387214
-0.170036
-0.313488
0.183161
0.130328
0.0676588
0.0643672
-0.076074
0.0168863
-0.0312337
0.209921
-0.178687
0.0957547
-0.114774
-0.0480018
-0.0540849
0.102087
-0.116515
0.0192253
0.127448
0.0189851
0.106486
-0.0361736
0.535199
-0.301116
-0.234081
-0.185823
0.359847
-0.0285169
0.0753652
-0.0468483
-0.177614
-0.0215904
0.136826
-0.151452
0.0146259
0.085115
-0.10422
0.0191048
-0.301348
0.382006
-0.121777
0.0737752
0.0791335
-0.108946
0.0298125
-0.529759
0.0710322
0.000247118
0.000310707
-0.000557824
-0.172125
0.0233976
-0.162429
0.38141
-0.218978
-0.0886075
0.108082
0.0619191
0.148691
-0.21061
-0.120054
0.136545
-0.0164902
0.0532246
-0.0748612
0.0216366
0.000595902
-0.0020574
0.0014615
-0.0255297
0.0787543
-0.0230586
0.0428749
-0.0198163
-0.0910513
0.326742
-0.235687
-0.00409802
-0.00996489
0.206785
-0.200989
0.0383682
0.10137
-0.0412064
-0.0601631
-0.00189776
-0.000327797
0.0176307
0.0596982
-0.0773289
0.107548
-0.0284141
-0.0793287
0.122353
-0.0430247
-0.0847062
0.111904
-0.0271982
-0.358002
0.293652
0.0643512
0.071965
-0.108905
0.0369403
0.245431
0.0997255
-0.021111
-0.0954043
0.00341036
-0.00310547
-0.000304891
0.0973621
-0.0150195
-0.00538772
-0.431615
-0.187959
-0.129516
-0.262958
-0.0950423
0.475777
-0.28186
-0.193911
0.0115851
-0.0381693
0.166244
-0.105113
-0.061131
-0.210303
-0.0743189
0.284623
0.0237827
-0.0855672
0.0617845
0.0103244
0.0527972
-0.221089
0.0445496
0.17654
0.0393376
-0.0145468
0.00192372
-0.000643888
-0.00127983
0.0846214
0.0127406
-0.277438
-0.207114
-0.00170989
0.00243616
-0.000726263
0.127134
-0.00482555
-0.122308
-0.365305
0.0426856
0.322619
0.0288388
0.000166461
0.024623
0.145166
0.0906521
0.0364818
-0.0782985
0.201424
-0.123125
-0.0548525
-0.0638233
0.118676
0.0871937
-0.0268897
-0.060304
0.0147786
-0.0378371
-0.114933
-0.00512098
-0.0899125
0.0611669
0.0287456
-0.119265
-0.163049
-0.136825
0.0512207
0.0856048
-0.307518
0.335628
-0.0281095
0.104393
-0.0192781
-0.142323
-0.0298019
0.0489204
0.0524492
0.0133322
-0.000465527
-0.0128667
-0.340266
0.249219
-0.0395792
0.203398
-0.163819
-0.0722798
0.0739084
-0.00162865
0.162211
-0.20179
0.106993
-0.184443
-0.0322548
0.0312241
0.00898214
-0.0402063
-0.00623204
0.000682643
0.140276
0.0978248
-0.238101
0.0289762
0.0779844
-0.106961
0.00381722
-0.00228431
-0.00153291
-0.0812302
0.0218551
0.212251
-0.180159
-0.0320914
-0.19037
-0.10721
0.297581
-0.177617
0.103759
0.0738581
0.0962171
0.0700273
-0.222121
-0.0405235
-0.000328684
0.00414591
0.0846923
-0.0609096
0.0223986
0.0296148
-0.0520134
0.00225207
0.00115069
-0.373243
0.193493
0.179752
0.0148937
0.401269
0.0320694
-0.0973862
0.0653168
0.00675514
-0.00615924
0.152388
-0.112864
-0.0395236
-0.0660758
-0.0850216
0.106366
-0.0213441
-0.0560737
0.154438
-0.0983641
0.000293414
-0.268395
0.14704
0.0938849
-0.0483095
-0.0455753
-0.0067698
-0.325437
-0.171073
-0.00651215
-0.0112278
0.01774
-0.0906754
0.120712
-0.0300366
-0.121582
0.269167
-0.17946
0.0719828
0.107477
-0.0798089
0.106837
-0.0270278
-0.220294
0.202228
0.0180668
-0.367847
0.00254233
0.0106852
-0.0124475
0.0017623
0.0713171
-0.0489186
-0.367558
0.216969
0.150591
0.00904033
-0.0111301
0.00208974
0.000473774
-0.0622769
0.0799076
-0.291929
0.305515
-0.0135857
0.440663
0.0580716
-0.0780036
0.019932
-0.0534863
-0.167603
0.135392
-0.318016
0.108732
-0.23746
0.128729
-0.120276
0.21347
-0.0931943
-0.069535
-0.0197489
-0.112028
0.0322189
-0.0900652
-0.087552
-0.0028206
-0.102293
-0.141075
0.0191027
0.00579598
0.0618628
0.17385
-0.293113
0.324932
0.161326
0.0242873
0.053662
0.00569908
-0.0915769
0.0858778
-0.0549636
0.0839399
0.0321981
0.000494896
0.0596293
0.0927584
-0.219146
0.187913
0.428349
-0.589823
0.161483
0.0528062
0.0410786
0.0178237
-0.0243358
-0.385083
0.122126
-0.191038
0.398917
-0.207876
-0.283267
-0.101814
-0.11779
-0.0822402
-0.0997821
0.0150759
0.082147
-0.0592594
-0.0975848
-0.172789
0.256647
-0.137671
-0.118976
-0.38307
0.210488
0.172584
0.0468294
0.00359177
0.0521287
-0.0583635
0.0920511
-0.0282838
-0.0637674
0.0307278
-0.0886522
0.0579244
-0.252485
0.196358
0.0561277
0.0617715
0.0138651
-0.0756366
0.00372496
-0.0879867
0.041788
0.0995764
-0.141364
0.0170929
-0.110301
0.0932081
-0.00688007
-0.00138256
0.00167802
-0.00029546
-0.0676554
0.054252
0.353479
0.0871688
-0.440644
0.13204
-0.144249
0.0122088
0.00127429
-0.064395
0.0631207
0.0352062
-0.00398211
0.00637451
0.140591
-0.146965
-0.216163
-0.157078
0.110701
-0.00818903
-0.102512
0.269502
-0.192226
-0.0772749
0.0352081
0.108759
-0.143967
-0.0609744
-0.00353262
0.064507
0.0352664
-0.0259977
-0.0092687
-0.0841947
0.0967031
-0.0125084
-0.117652
-0.0234233
0.011978
0.00135421
-0.264406
0.0304812
0.233925
0.0309144
-0.208528
0.125596
0.136314
-0.261909
-0.240308
0.0875747
0.0256713
-0.0979308
0.0722595
0.171553
0.0026258
-0.174179
0.0100189
-0.000978576
0.0736134
-0.0420722
-0.0315412
-0.189562
0.111264
-0.202358
-0.1652
-0.000593744
-0.00488772
0.00548146
-0.0938366
0.00964188
0.0389789
0.0540106
-0.0164075
-0.247999
0.0875941
0.0255413
-0.113135
0.117498
-0.307867
0.160866
-0.0274057
-0.13346
0.163848
0.0757444
-0.167282
-0.172981
-0.00354881
0.00448524
-0.000936437
9.4202e-05
0.000152915
-0.0658311
0.0274661
0.038365
0.0239139
-0.260537
-0.232745
0.49329
0.0113207
0.0690729
-0.0803935
0.000965204
-0.00499969
0.00403448
0.058705
-0.113557
0.398614
-0.201021
0.00922882
0.0229693
-0.140406
-0.132822
0.273229
-0.278622
0.180778
0.0978446
0.430543
-0.166882
0.0787882
-0.0531169
0.153517
0.113124
-0.266641
-0.155479
0.0365579
-0.0562362
0.0869641
0.00538645
-0.0278325
0.0224461
0.251434
-0.142701
0.00174768
0.0107034
-0.0964932
0.132409
-0.0359153
0.0962075
-0.388135
-0.0312577
0.16588
-0.134622
-0.268189
0.139959
0.12823
0.190374
-0.140237
0.0841631
-0.0854767
0.120471
-0.0349941
0.0836311
-0.0778351
0.00300782
-0.0010841
-0.075141
0.0959669
-0.365812
0.200059
0.165753
-0.00571103
-0.0665687
-0.0330444
0.0276044
0.00543994
0.010457
0.0310043
-0.0414613
-0.00591643
-0.00162576
0.0228677
-0.100335
0.0774671
0.217893
-0.177262
-0.0406305
0.191476
-0.358754
-0.361063
0.150763
-0.12142
0.183339
0.0741482
0.0225549
0.0257283
0.101411
-0.127139
-0.145257
0.145406
-0.000148262
-0.118203
0.0275277
0.0368888
0.0104041
-0.0716401
0.0612359
0.0260276
-0.172947
-0.0952419
-0.137209
0.134388
0.00125979
0.00234754
-0.216489
0.0299572
0.186532
0.0157207
0.0195457
0.428357
-0.414511
0.230269
-0.00386292
-0.00662339
0.0104863
-0.120607
-0.0147062
0.135313
-0.163751
-0.046937
0.210688
0.0724393
0.0147544
-0.0950764
-0.00856124
-0.0531368
0.0852063
0.00642578
-0.0022655
-0.161732
0.152137
0.19355
-0.0315418
-0.162008
0.0121137
-0.00153786
0.00794212
-0.0198625
-0.0654005
0.0852631
-0.105911
0.10068
0.00523158
0.0825027
0.0166599
0.0744633
-0.0640592
-0.000230151
-0.00640339
0.00663355
-0.0814103
0.0897183
-0.212323
0.114982
-0.031143
-0.0838393
-0.23047
0.0777259
0.103435
-0.0292868
0.0769431
0.137185
-0.214127
0.00382313
0.00260265
0.110938
-0.0233443
-0.0737277
0.075002
-0.141774
-0.00348333
-0.000479357
0.0942026
-0.0937233
0.150347
-0.0384304
-0.045267
-0.177541
-0.202265
-0.00199175
0.000609188
0.256224
-0.130628
-0.0413316
0.0764923
-0.0351607
-0.44687
0.143307
0.303563
0.0656945
-0.0785869
0.0128924
-0.110695
0.145903
-0.445359
0.280999
0.164361
-0.0732629
-0.187791
0.223469
0.207078
-0.0399006
-0.000878032
0.0407787
-0.00211297
-0.000953833
0.0030668
-0.0206547
-0.025682
-0.103721
-0.0190358
0.122756
0.0436376
-0.163619
0.119981
0.0905836
0.0162531
-0.280498
0.515546
-0.235048
-0.418282
0.0314627
0.386819
0.0161417
-0.0138238
-0.00231796
-0.255897
0.182634
0.22788
0.117174
-0.345054
0.00754678
-0.0925684
-0.11407
0.467554
-0.0162735
-0.0896377
0.103587
-0.0130037
-0.0786172
0.306497
-0.119789
0.273306
-0.00326521
-0.108458
0.111724
-0.170057
-0.0464317
0.126524
-0.126593
0.0349735
0.00436406
-0.00688412
-0.114072
0.120956
0.0789351
-0.0987976
0.00959974
-0.139773
0.130173
-0.260518
-0.105293
-0.0419821
0.0164007
0.0255814
-0.174199
-0.0221388
0.196338
0.139819
-0.190656
0.0508376
-0.0487535
0.0635665
-0.014813
-0.00789427
-0.00119145
0.00908573
-0.0969373
0.096458
0.0713238
-0.0322335
-0.0390902
0.124101
-0.117726
-0.0611707
0.000659279
-0.00855355
0.276538
-0.115185
0.000235978
-0.00434289
0.00410691
-0.0828324
0.0415009
-0.330246
-0.0332996
0.363547
0.0378878
-0.00291424
-0.0143025
0.016506
0.0941955
-0.251806
-0.228849
0.480664
-0.0903756
0.0960747
-0.00352799
-0.0153638
0.0188918
0.0916819
0.138234
-0.287154
0.148921
-0.206819
0.0308873
-0.167805
-0.0524894
0.0360118
-0.221615
0.466189
-0.446358
-0.0198217
0.0579087
0.0407226
-0.0353362
-0.172044
0.178758
-0.00671419
0.0369526
0.0151655
-0.27797
0.162799
0.115171
-0.0925635
0.104309
-0.0117456
-0.0713195
-0.0087386
-0.298778
-0.402996
0.108634
-0.170548
0.0619142
-0.520079
0.245452
0.274629
0.178117
0.0341343
-0.187298
0.0505095
0.136789
-0.103292
-0.162945
-0.0765918
0.10209
-0.0254982
0.00715531
0.0396741
-0.171699
0.373401
-0.201697
-0.0142096
0.0187321
-0.00452255
-0.00685015
0.00573226
0.00111789
0.133304
-0.0445071
-0.0887969
0.0526952
0.0622872
-0.0142667
-0.0515645
0.0210175
-0.132945
0.126061
0.119904
0.0317848
-0.151689
-0.00690251
-0.00754613
-0.177253
0.0052092
-0.0117828
0.10871
-0.0969271
-0.268431
0.109219
0.159212
-0.0121365
0.00736319
0.00477333
0.0679782
-0.127881
0.0599024
0.0814553
-0.0293265
0.0722553
0.0182813
-0.0905366
0.00899778
-6.89579e-05
-0.068619
0.155777
-0.267586
0.11181
-0.10062
-0.0127856
0.113405
-0.0875948
0.0772275
0.0103673
0.0377335
0.0836689
-0.0644499
-0.220579
0.0522171
0.168362
0.0460685
-0.0357441
-0.192226
-0.00586663
0.198092
0.156549
0.12109
-0.277638
-0.185619
0.409092
0.381644
0.105642
-0.487282
-0.00696923
0.00578483
0.0011844
0.0400816
0.00598696
0.233467
-0.249874
-0.0701495
0.0795729
-0.00942336
0.142173
-0.108685
-0.0334879
0.0410275
-0.0305704
-0.00242818
0.000315211
-0.00856452
0.0666361
0.0575605
0.0171797
-0.0747402
0.0240607
-0.191972
0.167912
0.00959708
-0.0126531
0.117071
-0.0213163
-0.0877195
0.238624
-0.150904
-0.123501
0.0500809
0.00033629
0.00359571
-0.00745863
-0.149849
-0.09444
-0.160096
0.0059024
0.154194
0.236057
-0.0903053
-0.145752
-0.443718
0.0145565
0.42917
-0.00440344
0.0057882
-0.00138476
-0.0829436
0.102014
-0.0190707
0.000769079
-0.00194839
0.00291359
0.147047
-0.243103
0.0960564
0.251053
0.284148
-0.0193653
-0.103419
0.122784
-0.0709193
-0.359805
-0.326296
0.132815
-0.0280629
-0.159235
-0.147348
0.202907
-0.0555588
0.0336251
0.128141
-0.0601632
-0.0433038
0.104543
-0.0612388
-0.00978541
0.0124494
-0.00266396
0.0977816
0.00289807
-0.327037
-0.119832
-0.0126404
-0.107967
0.000539184
-0.0863462
0.085807
0.0159523
-0.0134665
-0.00248583
-0.125359
0.113576
0.0770204
-0.0725309
-0.00448955
0.0291067
-0.127119
0.0980126
-0.00230309
0.235771
-0.0769185
0.00676902
-0.042888
0.0428904
-2.3972e-06
0.0325938
0.177328
0.0647353
-0.264282
0.199548
0.0656134
-0.0298936
-0.0357198
0.0052817
0.0631826
0.424718
-0.0430713
0.00163971
3.83138e-05
-0.00178528
0.00178528
-0.0859492
-0.0016456
0.203467
0.195892
0.00662866
-0.00651941
-0.00010925
-0.0113221
0.00888656
0.00243551
-0.0238081
0.141895
0.0296585
-0.447465
0.272116
-0.0455275
0.0414511
0.00407638
0.318555
0.157636
-0.100987
0.0689637
0.032023
0.00336507
-0.00312909
0.0639736
0.017902
-0.0818756
0.00207162
0.00692616
0.024118
0.0870508
-0.111169
0.00152222
-0.00172753
0.000205316
-0.117599
0.032122
-0.233546
0.199021
0.0345245
0.0487032
-0.208799
0.00801613
-0.0085302
0.000514065
0.0448526
-0.0103439
-0.0345087
-0.000636866
-0.0271921
0.00119439
0.140619
-0.0429357
-0.058051
0.153031
-0.433528
-0.118853
0.0395245
-0.0225162
0.106376
-0.0838602
-0.0910479
0.000430685
0.0894993
-0.419744
-0.11923
0.1506
-0.0313697
-0.0677247
0.0790453
0.00313353
-0.0173431
0.00847045
-0.000454319
0.00825546
-0.0107766
0.00252116
-0.0765474
0.118335
0.0601082
0.0890568
0.097362
-0.0127406
0.124293
0.132354
0.162198
0.134214
-0.296411
0.231212
0.0885014
-0.319712
-0.00769799
-0.132876
0.140575
-0.0816647
-0.343382
0.0666199
0.276763
-0.113222
0.0907053
-0.168536
-0.158291
0.326829
-0.448818
-0.17622
-0.195271
0.401993
-0.206719
0.0102185
-0.00854157
-0.00167698
-0.0670228
0.210084
-0.411727
-0.0691721
0.4809
0.100929
-0.120295
0.00605802
0.1155
-0.121558
-0.308296
0.1366
-0.00474928
0.00120048
0.223884
0.0456188
0.158694
0.117054
-0.275747
0.00700988
-0.105686
0.0986761
-0.00140987
-0.0861823
0.0875922
0.150631
-0.228837
0.147988
0.0808495
0.00911588
0.0679045
0.0679036
0.170907
-0.107234
-0.0636736
-0.0402588
-0.00262916
0.10706
0.0638474
-0.0331891
0.0424179
0.0203939
0.0191464
-0.00876217
-0.015953
0.0247152
-0.00528171
0.000878271
-0.21853
-6.48111e-05
0.0127814
-0.0855531
0.0098672
0.0756859
-0.205223
-0.173543
0.378771
-0.000374888
-8.4815e-05
0.000459703
-0.151609
-0.181536
0.333146
-0.197342
0.403429
-0.206084
-0.102
-0.0317904
0.13379
-0.465778
0.184419
-0.0860151
0.108684
-0.0226686
0.0138445
0.00210783
0.209676
-0.0110026
0.0022404
-0.177833
0.201895
-0.0297515
0.141373
0.00717509
0.0376775
-0.224197
0.397588
-0.173387
-0.00276005
-0.00318065
0.0059407
-0.132347
0.161359
-0.0290119
-0.114484
0.266126
-0.151641
0.328762
-0.188919
-0.139843
-0.00459382
0.235806
-0.0783654
0.0450524
0.033313
0.0246011
-0.053118
0.00496034
-0.00681312
0.00185278
0.1097
-0.0119182
0.00839322
-0.00316149
0.122126
-0.10075
-0.0213756
-0.143323
0.0701117
-0.084736
0.0146243
0.00970086
-0.0014454
-0.0113514
0.0689119
0.0303827
0.0449825
0.025499
0.0665521
-0.0893562
0.11682
-0.0274639
-0.108235
0.161373
-0.0531378
-0.0624615
-0.0159039
0.0611722
0.113052
-0.174224
0.0818315
-0.0226632
0.34691
0.122662
-0.469568
0.00509191
0.00153675
-0.0447294
0.170851
0.0804197
-0.0500369
0.114691
-0.117956
-0.0525819
0.204619
-0.152037
0.0663824
-0.0514177
0.181134
0.146371
-0.327504
0.0143568
-0.0880845
-0.168022
0.0356755
0.203648
0.125455
-0.0997265
0.107769
-0.102841
-0.00492853
-0.0306421
0.0756946
-0.0112282
0.0452583
-0.0585998
0.0133415
0.000255873
0.00310403
-0.0033599
-0.269023
-0.232428
0.00177528
-0.000135576
-0.0858561
-0.202652
0.288508
0.0814446
-0.0747157
-0.00672898
-0.0811289
0.105247
0.0128507
0.171731
0.249256
-0.327873
-0.0702627
-0.109197
0.163339
-0.236935
-0.266742
0.152258
0.144969
-0.0320585
-0.11291
0.0686099
0.0128347
0.0676869
0.0368558
0.0415713
0.0240421
0.00513891
0.0923463
-0.0974852
0.432442
-0.237043
-0.195397
0.115036
-0.0220459
-0.0929902
0.00416273
0.0397852
0.306842
-0.14265
-0.16419
0.0832525
0.023124
0.0851043
0.0779243
-0.163028
-0.0132098
0.0150047
-0.00179493
0.0888601
-0.189424
0.100564
-0.000389701
-0.000652952
0.00104265
-0.118201
0.465115
0.0677668
-0.0434795
0.0959817
-0.507709
-0.0541741
-0.0553815
0.109556
-0.218421
0.130702
-0.151202
0.143504
0.0205124
-0.138919
0.118407
0.149208
0.279575
-0.12088
0.4297
-0.270822
-0.158873
0.00680698
-0.0467076
0.00521423
-0.00521423
0.152366
-0.109225
-0.0431418
-0.00808977
0.00532971
-0.216423
0.21412
-0.0287098
0.130121
0.183114
-0.0283742
-0.0871805
0.041013
0.0461675
0.00178695
0.00194538
0.124287
0.0280794
0.23515
0.132073
-0.36722
0.0578736
0.0235817
0.138308
0.0502528
-0.266675
-0.0311548
-0.127953
0.159108
0.00564851
-0.00624226
-0.0302609
-0.00173881
0.0319998
-0.0700389
0.0699104
0.000128562
-0.025429
-0.0525746
-0.0284312
0.0530323
-0.176616
0.0563404
0.296045
-0.212544
-0.0834996
0.0558412
0.0259903
0.204653
0.0129257
0.065709
-0.0786347
0.0340035
0.126156
-0.160159
-0.424031
0.295171
0.12886
0.00281571
0.0162339
-0.0190496
0.0189356
-0.0140414
-0.00489414
-0.221859
0.00663912
-0.00167877
0.132138
-0.122538
-0.0992103
0.109707
-0.0104963
-0.0212408
0.0824077
0.0458948
0.0148375
0.053199
0.0252611
-0.0784601
0.530576
-0.326395
-0.204175
-0.454061
0.0535393
0.400531
-0.0104299
-0.00202117
0.0124511
-0.126322
0.266599
-0.140469
-0.137696
0.153908
0.229385
-0.0938808
-0.135503
0.0380519
-0.046867
0.00881509
-0.00658024
-0.0772572
0.0838374
0.0187067
-0.00173236
0.00415004
-0.00241768
0.0327685
-0.129262
0.0795278
-0.0515298
0.165178
-0.080074
0.378058
-0.0878956
-0.290159
0.17164
0.270942
-0.442574
-0.2999
-0.0914459
0.39135
0.00577457
-0.00600472
0.00019532
-0.0835757
0.0727058
0.01087
0.345229
-0.095973
0.361772
-0.126619
-0.112433
-0.129524
-0.148693
0.278218
0.0267307
-0.12873
-0.128995
-0.0264832
-0.0155412
0.00578633
0.0154475
-0.0212338
-0.0339014
-0.0793201
-0.0459595
0.076634
-0.0306745
-0.0778713
-0.0057044
-0.139083
0.277318
-0.0793859
0.0169244
0.231598
0.0644475
-0.00381642
-0.0264276
-0.0591255
7.13471e-05
-0.00165885
0.0015875
-0.0120763
0.0588962
-0.04682
0.0443403
-0.191688
0.120132
0.0248372
-0.0728777
0.0270403
0.0458373
0.00335899
-0.00124273
-0.00211626
-0.00146651
-0.099506
0.0622542
0.0372518
0.0835749
-0.0830357
-0.00540854
0.00606782
0.343776
-0.457843
0.0905519
0.00681011
-0.0375267
-0.00351847
0.10018
0.00325448
0.449422
-0.258041
0.126173
0.00196835
-0.00156543
0.00244129
-0.000875858
-0.0179754
-0.0240067
-0.0616017
0.0941694
-0.0325676
0.312147
-0.141274
-0.170873
0.0230664
0.136475
-0.159541
0.122427
-0.105847
-0.0165802
-0.0124471
0.0118032
0.147515
-0.200096
-0.0544581
-0.027287
0.0817451
-0.1395
0.305554
-0.166053
0.0234929
0.0546188
-0.0843271
0.0297082
0.161555
-0.304204
-0.345805
0.206007
0.139799
-0.0752732
0.152217
-0.166152
0.0238287
-0.167117
0.398833
-0.231713
-0.124327
0.185499
-0.1796
0.053678
-0.00841964
-0.0858475
0.0891739
-0.00332632
-0.00696503
0.00707466
0.328887
-0.0111045
-0.069873
0.0809775
0.317066
-0.162869
-0.154197
-0.0171613
0.000692764
-0.0793385
-0.102899
-0.00283429
0.105734
-0.304577
0.165078
-0.167745
-0.08474
-0.0208466
-0.0565802
0.106096
-0.0296988
-0.0763973
-0.109343
0.141128
0.00411977
-0.000397107
-0.00372266
0.0867378
0.0134427
-0.171387
-0.0852248
0.232272
-0.043533
0.000132288
-0.00296508
-0.0933087
0.00216782
0.0911409
-0.437091
0.24711
0.189984
-0.0855051
0.0291006
0.0564044
0.243474
0.19401
-0.437483
0.107957
-0.137709
0.3418
-0.265169
-0.0766295
0.0568441
-0.0813166
0.0244725
0.00239704
0.197161
-0.397582
0.200424
0.123927
0.152987
0.0667732
-0.079196
0.0124228
0.22143
-0.065653
-0.00613533
-0.0307903
0.0369256
0.010059
2.81162e-05
-0.0100871
-0.0921953
0.108085
-0.0158896
-0.11789
-0.357499
0.0574127
0.300086
0.0936239
0.248178
0.248913
-0.36711
0.00738086
0.0652416
0.019458
0.0591481
0.210154
-0.171263
-0.038891
-0.00156541
0.00119052
-0.396826
0.136294
-0.177796
-0.135692
0.0160542
-0.026395
0.136252
0.159737
-0.295988
-0.0141705
0.011276
-0.22391
0.402899
-0.178985
8.8522e-05
-0.107666
0.107578
0.13937
-0.142761
0.294134
-0.151372
-0.289951
0.254999
0.0349526
-0.182594
0.42607
0.00117379
0.00669756
-0.204483
0.0407325
-0.195516
-0.228515
-0.00897773
0.0496466
-0.0406688
0.126084
8.88506e-05
0.471581
-0.253082
-0.218497
0.111088
-0.104078
0.00787322
0.128953
-0.100663
0.346116
0.0265855
0.210944
-0.110719
0.0078194
-0.000912027
0.000259075
0.0779474
0.00855065
-0.086498
0.148406
0.136086
-0.284491
0.0625039
0.017069
-0.0233682
-0.0795654
0.102934
0.115547
-0.0228169
-0.0927303
-0.136558
-0.0295941
-0.0229821
0.112735
-0.0897525
0.0628498
-0.201504
0.104305
0.0971992
-0.122038
0.0212873
-0.203707
0.292209
0.142001
0.179433
-0.321433
-0.158687
0.336751
-0.178063
-0.0139851
-0.0990723
0.113058
0.0782622
0.0582825
0.119381
-0.010671
0.121957
0.148893
-0.270849
0.12892
-0.160075
0.0277148
-0.0022757
-0.00796489
0.0102406
0.0445924
-0.0884912
0.271652
0.360913
-0.0908451
-0.270067
-0.115785
0.111327
-0.0456554
-0.0656716
-0.14516
0.0110678
-0.000486154
-0.0105816
0.317434
-0.18017
-0.137264
-0.124296
0.274307
0.0866078
0.0329946
0.0226735
-0.0556681
-0.00316797
0.000876138
0.00229183
0.176506
-0.477619
0.0235817
0.149408
-0.17299
0.190414
0.213017
0.0227984
-0.103927
0.462953
-0.251749
-0.2112
-0.186956
-0.0778174
0.264774
-0.0663083
0.0660834
0.000224877
-0.365142
0.461124
0.161619
-0.308543
0.146926
-0.409303
0.221141
0.188162
-0.105361
0.05112
0.0542412
0.436456
-0.280546
-0.155907
0.28547
-0.137985
-0.147484
0.00404269
0.0289942
-0.0330369
0.0160314
-0.0693951
0.0533637
0.0401499
-0.0237436
-0.0757624
0.00493734
-0.00268111
-0.00225623
0.113582
-0.082327
-0.0312554
0.180444
0.136991
-0.356072
0.100176
0.000391463
0.00482277
0.0366463
-0.223602
0.0353142
0.0851566
-0.0181986
0.105249
0.126987
-0.100256
-0.123288
-0.0303582
0.153646
-0.0852739
-0.126426
0.211701
-0.137001
0.0193494
0.177429
-0.206191
0.0287615
0.240324
-0.439623
0.199302
0.0817941
-0.0271752
0.0155898
-0.00338879
-0.012201
0.128242
-0.0226701
-0.105572
0.1555
-0.455397
-0.0436916
0.0375562
0.0315369
0.00639232
0.00362659
0.00669977
-0.0014883
-0.0160425
-0.0831677
0.262705
-0.460559
0.197856
-0.387113
0.135314
-0.00520315
0.41954
-0.414327
0.0228409
-0.45519
0.342197
0.112994
-0.243088
-0.046862
0.00470229
0.00362911
-0.0083314
0.0325936
-0.106767
0.0927822
-0.196968
-0.159102
0.0967419
-0.091603
-0.0766143
-0.001257
-0.227787
-0.21757
0.0879233
0.0718446
-0.10158
-0.0498721
0.0588582
-0.0391505
-0.0197077
-0.101511
0.0846615
0.151396
-0.156779
-0.0381437
0.104878
-0.136668
0.42553
-0.210815
-0.214712
-0.00172809
0.0911518
-0.0894237
-0.171917
-0.0472291
-0.032526
0.0599921
0.0217338
-0.0796557
-0.0203923
0.100048
-0.288236
0.147831
-0.0269291
0.126506
0.00462979
-0.00218514
-0.00244466
-0.0288076
0.019254
0.0669929
0.0161498
-0.0831427
-0.0985732
0.00526454
0.00113257
0.0099352
-0.192484
0.11922
-0.322926
-0.0355486
-0.164466
0.200015
-0.00425861
-0.0520635
-0.305435
-0.125883
0.116666
0.0553647
0.0868083
0.109073
-0.000988222
-0.452561
0.175336
0.277228
-0.476071
0.204866
0.271207
-0.143724
0.234639
0.110944
-0.476085
-0.0119262
-0.0739213
-0.0214789
-0.00571321
-0.0805044
0.0693428
0.0111617
-0.285123
0.199268
-0.00862738
0.0101827
-0.0015553
0.096203
0.0262239
0.273761
-0.459769
0.18601
-0.074901
-0.0668727
0.449067
0.0178018
-0.466859
-0.0175499
-0.08735
0.1049
0.0476349
-0.202568
0.154934
0.159696
0.152451
-0.0031118
0.000109152
0.00300265
-0.00640339
0.0017327
-0.00230757
0.00057487
0.157943
-0.219661
0.0617181
-0.00337099
-0.00520132
-0.118274
0.00260499
-0.00322191
0.000616913
-0.000534203
-0.0025776
-0.459254
-0.115544
0.0925617
0.0702314
-0.0768117
-0.196763
-0.190818
-0.219311
0.410132
0.0080694
-0.00554997
-0.00251943
0.133197
-0.218471
0.323789
-0.126478
-0.19731
0.0272727
0.0569804
-0.0842531
-0.029105
0.345561
-0.0966452
0.129714
0.0289875
-0.158701
0.450269
-0.138397
0.164672
-0.0262748
0.0471937
0.0589024
-0.270743
-0.189024
-0.000862823
-0.00134034
0.00220316
-0.138828
-0.261558
-0.214511
-0.0850136
0.016599
0.0684146
-0.0865923
0.100292
-0.0136993
0.0551188
-0.109293
0.376464
0.0844875
-0.0219836
0.162089
0.0991447
0.00213865
-0.288831
0.147558
-0.119299
0.313257
-0.193956
0.0533282
-0.00212084
-0.0512074
0.189052
0.217213
-0.40626
0.00146183
0.210025
-0.0766832
0.10579
0.0308093
-0.0428856
0.0184356
-0.0219636
-0.136814
-0.131616
0.141503
0.0834192
-0.197979
-0.147825
0.174283
0.00211449
-0.176398
-0.158563
0.0503277
-0.0796189
-0.0349164
0.114535
-0.234958
-0.187061
0.422025
-0.00224351
0.163846
-0.310461
0.146616
0.296933
-0.170976
-0.125956
-0.0799738
-0.0253874
-0.0273062
0.0748843
-0.0475781
0.0401699
0.0880718
-0.349167
0.471834
0.0115057
-0.00343626
-0.0984405
0.108214
-0.00977389
0.157682
0.123686
-0.1003
-0.0233862
0.140804
-0.289263
0.156442
-0.00157067
0.041261
-0.0396903
-0.112878
-0.259857
0.14056
-0.129204
0.266996
-0.137791
-0.00336931
0.00424545
-0.153918
-0.119554
0.273473
0.319803
-0.200435
-0.119367
0.000661877
-0.17197
0.0335735
0.000350961
0.00103161
-0.00138257
-0.13922
0.0643195
-0.342822
-0.10089
-0.218426
0.408843
-0.00731798
0.172122
-0.144393
-0.0277288
0.155558
0.161508
-0.035902
-0.00962553
0.00147922
-0.0018639
0.000384681
0.323933
0.112526
-0.00137257
-0.00299466
0.00436723
-0.0858605
0.00620474
0.208709
0.0560806
-0.264789
-0.253832
0.143582
0.11025
-0.04914
-0.0336924
-0.0380944
0.327757
-0.289662
0.0580613
0.0213017
-0.079363
0.110714
0.0196132
-0.368777
0.0804183
-0.0660615
-0.00588716
0.00353173
0.00235543
-0.0156631
0.264224
-0.103107
-0.161117
0.00483155
-0.00438774
-0.000443804
-0.117545
-0.0194563