/*--------------------------------*- C++ -*----------------------------------*\
| =========                 |                                                 |
| \\      /  F ield         | OpenFOAM: The Open Source CFD Toolbox           |
|  \\    /   O peration     | Version:  v2012                                 |
|   \\  /    A nd           | Website:  www.openfoam.com                      |
|    \\/     M anipulation  |                                                 |
\*---------------------------------------------------------------------------*/
FoamFile
{
    version     2.0;
    format      ascii;
    class       volVectorField;
    location    "100";
    object      U_0;
}
// * * * * * * * * * * * * * * * * * * * * * * * * * * * * * * * * * * * * * //

dimensions      [0 1 -1 0 0 0 0];


internalField   nonuniform List<vector> 
18758
(
(1.10163 -0.30587 3.09663e-20)
(1.27268 -0.00310413 0)
(1.01515 -0.000134346 0)
(0.540144 0.0462828 -1.25095e-20)
(0.230372 0.0270464 -2.05904e-20)
(0.235412 0.0499636 0)
(-0.228632 -0.0119318 1.79406e-19)
(1.0122 -0.00481413 0)
(1.2163 0.0214184 -2.53331e-20)
(1.01885 -0.104847 0)
(1.0571 -0.0389281 0)
(0.185671 -0.0530943 1.30741e-19)
(1.00218 -0.000333316 -1.40955e-21)
(1.13609 0.157225 -2.02246e-20)
(1.04489 0.0119669 -8.38817e-21)
(0.593605 -0.508366 -4.1928e-20)
(1.11438 0.0236591 1.84538e-20)
(1.00423 -0.0072504 -1.05486e-21)
(1.03717 -0.00431318 0)
(1.02876 -0.124217 2.71112e-21)
(-0.011279 0.00737459 -3.47883e-20)
(1.00004 -0.00076168 4.00157e-22)
(-0.0441399 -0.0221792 0)
(1.21783 0.0384892 0)
(1.32783 -0.113675 -4.8893e-20)
(1.01189 -0.00465992 3.02949e-22)
(0.792999 -0.69051 0)
(0.200522 0.0257775 -5.99334e-20)
(0.953559 0.0234469 -5.50522e-20)
(1.08587 -0.710053 -1.0731e-19)
(1.1232 0.0775636 5.87382e-20)
(0.0865488 0.0136774 -3.66494e-20)
(1.00046 -0.000156583 3.41686e-21)
(1.05188 -0.010302 -9.71849e-21)
(1.17347 0.0859923 4.32821e-22)
(0.999334 -0.00285075 -1.28275e-20)
(1.00018 -0.000224952 0)
(1.03491 -0.0210984 0)
(1.04143 -0.023903 -7.51539e-22)
(1.12243 0.0195834 -2.54077e-22)
(1.03565 -0.0195295 0)
(0.940051 -0.0805372 -3.06179e-20)
(1.02173 -0.00675303 0)
(0.977889 -0.0929999 -1.15064e-21)
(1.21209 -0.508037 0)
(1.01313 -0.00132335 0)
(-0.0662745 -0.0200018 0)
(1.05138 -0.0527384 0)
(1.01661 -0.102412 0)
(1.02126 -0.00510905 -1.83673e-21)
(1.22088 -0.131676 1.02946e-20)
(0.349506 0.0470811 -8.44347e-20)
(1.01554 -0.00170261 1.84272e-21)
(1.05552 -0.0376361 0)
(0.169933 0.0229839 4.8772e-20)
(1.2822 -0.218172 0)
(1.00024 -0.000256099 0)
(0.520552 -0.346398 -2.43697e-20)
(0.994219 -0.0242442 -7.12564e-21)
(1.145 0.159023 4.38224e-20)
(1.11896 -0.260601 -1.3107e-21)
(-0.213451 -0.0154192 -9.84056e-20)
(1.19233 0.00862199 -7.31002e-20)
(0.97104 -0.0468718 -6.91656e-21)
(1.01536 -0.00176511 -2.10432e-21)
(0.994275 -0.00510809 -6.34352e-21)
(1.12064 0.0259417 3.55642e-20)
(1.00052 -0.000202231 -4.35228e-21)
(1.03288 -0.0191614 0)
(0.331909 0.0472926 7.42311e-20)
(0.249559 0.0326719 0)
(0.972139 -0.0286831 0)
(1.02161 -0.00543515 1.94334e-21)
(-0.0229372 -0.0843212 2.00734e-19)
(1.01723 -0.00779533 -1.20168e-21)
(0.995913 -0.0248737 -2.29503e-21)
(1.21366 0.0529032 -6.60451e-20)
(0.230835 0.0231825 -5.82484e-21)
(0.909883 -0.331031 6.72671e-21)
(-0.0876441 -0.0319467 -2.26881e-19)
(0.0565726 0.00439362 -2.10447e-19)
(1.27765 -0.476355 -1.68594e-21)
(1.14922 0.156689 2.90781e-20)
(0.200059 0.0431216 0)
(1.21368 0.056035 -2.72715e-20)
(1.09822 -0.0242144 0)
(0.556152 -0.200347 1.23215e-20)
(1.19156 0.00683224 5.7912e-20)
(-0.0665185 -0.0329188 -7.92174e-20)
(0.996485 -0.0254488 -5.402e-21)
(0.160276 0.0395155 5.98118e-20)
(0.993742 -0.0237441 1.21567e-20)
(0.126737 -0.074499 -5.67869e-20)
(0.937716 -0.0841785 3.09847e-20)
(0.063358 0.00946614 0)
(0.0795983 -0.0608583 -5.4938e-20)
(1.21203 0.0582497 -2.0691e-20)
(1.01768 -0.0080479 2.86233e-21)
(1.0025 -0.0184739 0)
(0.00905146 0.0092553 1.43326e-22)
(1.04011 -0.127564 8.51535e-21)
(0.105524 0.0331129 -5.37594e-20)
(1.16315 0.0435665 0)
(1.12054 -0.124072 -4.20132e-20)
(0.0612366 0.00917059 4.54461e-21)
(1.10213 -0.679956 1.20291e-19)
(0.942529 0.0759426 3.23727e-20)
(0.254998 0.02702 -2.53494e-21)
(1.04412 -0.0339318 7.41225e-21)
(0.964906 -0.0147563 -1.10198e-20)
(0.155463 -0.0762717 3.6168e-22)
(0.468534 -0.661647 -3.15534e-19)
(1.01056 -0.00535415 0)
(1.01032 -0.0361133 1.18355e-21)
(0.770437 0.0467754 4.44011e-20)
(-0.222944 0.00603186 1.26913e-19)
(-0.137699 0.00646991 -4.71291e-20)
(1.04437 0.0126544 0)
(0.0331274 -0.0385051 0)
(0.0318426 0.0119397 0)
(1.11889 -0.0514556 0)
(0.987886 -0.0119705 -5.28095e-21)
(0.653798 -0.0325416 -2.17028e-20)
(0.644828 -0.654266 3.4191e-20)
(1.19614 -0.390703 -1.03599e-20)
(1.21035 -0.487003 -2.25025e-20)
(1.28402 -0.00739132 4.96743e-20)
(1.23141 0.0240381 8.30334e-20)
(0.069727 -0.0580361 3.14548e-20)
(1.00347 -0.000116361 7.48364e-22)
(1.11633 0.0250222 2.19358e-20)
(0.822753 -0.670089 1.25858e-20)
(-0.05096 0.00408249 -5.37176e-21)
(0.934954 -0.221815 2.0947e-20)
(0.210102 -0.709799 0)
(0.971082 -0.0658558 4.63421e-21)
(1.21188 0.051672 8.02323e-20)
(1.12508 0.0205058 -2.11577e-20)
(1.00292 -0.0184333 -8.28636e-22)
(0.787673 -0.269074 2.02092e-20)
(0.894686 -0.326991 0)
(0.957682 -0.462499 0)
(1.00518 -0.0319548 -2.18473e-21)
(1.16354 -0.194103 -7.6072e-20)
(1.03644 -0.0192472 -5.2359e-21)
(1.03877 -0.00189627 -1.49992e-20)
(-0.0689612 0.00391029 0)
(0.167324 0.00191285 2.68619e-21)
(1.11982 0.0781609 -2.08071e-20)
(0.675934 0.0448868 6.31083e-20)
(1.2871 -0.460685 -1.89419e-21)
(1.13196 0.0864481 1.81254e-20)
(1.09814 -0.0289064 -1.86088e-20)
(0.999954 -0.000700522 0)
(-0.0646596 0.00103048 -2.76462e-20)
(1.08823 -0.0435465 -1.89047e-20)
(-0.00540121 -0.0387121 -6.00241e-20)
(1.05072 -0.0546123 6.6952e-21)
(0.992151 -0.0384892 -6.29919e-21)
(1 -0.000279483 3.85016e-21)
(1.01126 -0.0132822 0)
(1.15404 0.150316 1.5345e-20)
(0.171971 -0.105898 -1.27282e-19)
(0.993382 -0.0382273 -5.40858e-21)
(1.11992 -0.25569 -7.34528e-22)
(0.865951 0.0329711 0)
(1.03857 -0.00598985 -9.39711e-21)
(0.560661 -0.0556928 8.91833e-20)
(1.22203 -0.244008 0)
(0.268306 0.0484843 -5.85978e-20)
(-0.148551 0.0179592 1.10756e-20)
(1.00417 -0.00742752 4.1054e-21)
(0.185562 -0.0971437 0)
(0.207434 0.0252485 -4.85248e-20)
(1.15599 0.147419 -3.11629e-20)
(1.23393 0.039573 0)
(0.761518 0.0456236 -3.92222e-24)
(0.97007 -0.0484595 0)
(0.802445 -0.266599 0)
(1.03216 -0.0300713 0)
(1.00899 -0.00518571 1.76839e-22)
(-0.182987 -0.000713297 6.41299e-20)
(1.1687 0.0860198 -4.49336e-21)
(1.02618 -0.00485507 -6.72714e-21)
(1.06901 0.00577045 0)
(1.22808 0.0822975 -2.78935e-20)
(0.997831 -0.0197234 0)
(-0.210015 0.00852175 -1.06895e-19)
(1.02053 -0.00595164 0)
(0.995742 -0.0176201 8.22634e-22)
(0.941451 -0.226016 -1.26085e-20)
(1.22854 0.0234149 -9.28552e-20)
(1.01287 -0.0479308 2.15364e-21)
(1.11799 0.0752348 -6.40722e-21)
(0.977608 -0.152435 -1.34083e-20)
(1.19399 0.00415472 6.50146e-20)
(1.03205 -0.126802 -7.41971e-21)
(1.23153 -0.242711 0)
(1.00074 -0.00251603 -6.36917e-21)
(1.02141 -0.00639036 0)
(0.754049 -0.219122 -3.68963e-20)
(1.0486 -0.0546582 0)
(1.07523 -0.128455 5.50588e-21)
(1.17828 -0.00658698 7.05762e-21)
(1.00218 -0.000504175 1.54219e-21)
(0.979515 -0.148558 1.45291e-20)
(1.16848 0.0381511 0)
(0.999959 -0.000543652 0)
(0.00181991 0.00722467 -5.66438e-20)
(1.01253 -0.103433 -6.15426e-22)
(1.00464 -0.00731878 2.1083e-21)
(1.12471 -0.127054 -1.57098e-20)
(0.994675 -0.0404834 8.35754e-23)
(1.08316 -0.117543 -1.55346e-20)
(0.867611 -0.297292 -1.96117e-20)
(0.0640291 -0.0101741 1.10666e-19)
(0.865228 -0.31001 0)
(0.536459 -0.452851 4.72418e-20)
(1.01558 -0.00439155 -2.08659e-21)
(0.255571 0.0508297 0)
(1.00452 -0.00749243 1.156e-21)
(1.04385 -0.0353095 -1.08696e-20)
(1.20528 0.0716208 -1.02959e-20)
(-0.051376 0.00462499 0)
(1.26339 -0.153665 -1.03315e-20)
(1.16578 0.0392072 -5.5145e-21)
(1.15814 -0.0561139 -3.57644e-20)
(0.988702 -0.212778 0)
(1.02541 -0.00240143 1.82523e-21)
(1.18074 -0.0115119 7.83654e-20)
(0.993974 -0.00531445 0)
(1.19337 0.00227298 -8.80402e-20)
(-0.0683415 -0.0175323 3.75053e-21)
(1.21441 0.0613882 6.9091e-20)
(1.00202 -0.000257624 0)
(0.997624 -0.0190561 5.57279e-21)
(1.02522 -0.00267133 -1.56353e-21)
(1.01264 -0.0015655 -9.33894e-22)
(0.737908 -0.0503146 0)
(1.09918 -0.0953128 -6.32526e-22)
(1.00915 -0.0132174 5.68656e-23)
(1.29308 -0.258014 -5.01115e-20)
(0.920288 0.0770812 0)
(1.05559 -0.0210534 0)
(0.724993 0.050078 -7.87048e-20)
(0.000632663 -0.0336709 -1.16932e-19)
(1.21296 0.0634148 -4.50422e-20)
(0.999422 -0.0026923 0)
(0.0579536 0.00765031 1.44318e-19)
(0.8977 -0.0808094 2.14311e-21)
(0.999197 -0.00337243 7.74052e-21)
(0.501818 -0.0435684 -2.14911e-20)
(1.09951 -0.0227375 6.331e-21)
(0.897803 -0.0867084 -8.4517e-21)
(1.04306 0.00651196 0)
(1.12577 -0.0554335 -2.60652e-20)
(1.23553 0.0517488 0)
(0.497727 -0.44516 -6.25902e-20)
(1.07919 -0.116522 -1.80044e-20)
(0.937039 -0.323575 0)
(1.02843 0.00283717 4.73829e-21)
(1.15617 0.0314945 -6.49072e-20)
(0.999656 -0.00772928 0)
(1.17617 -0.00517228 0)
(1.01046 -0.100557 9.17445e-22)
(1.20464 0.0739522 -3.60472e-20)
(-0.309975 -0.00209881 -1.89003e-20)
(1.0153 -0.00425965 2.64799e-21)
(1.04331 -0.0316518 -3.48888e-21)
(1.0498 -0.483876 -2.22615e-20)
(1.04218 -0.0307544 3.68857e-21)
(1.0679 0.00487486 -1.03893e-20)
(1.17782 -0.0101946 -5.4782e-20)
(0.744389 0.02128 -1.50953e-20)
(-0.153056 0.00443727 0)
(1.00328 -0.0310928 -2.26432e-21)
(1.21155 -0.120478 -9.26907e-22)
(0.0455607 -0.0464448 0)
(1.25262 -0.475419 -6.26905e-20)
(1.01069 -0.0526521 0)
(1.02992 -0.00790402 2.37221e-21)
(1.08047 -0.0724772 -9.44758e-21)
(1.10156 -0.093352 -6.47792e-23)
(1.00495 -0.0313067 0)
(0.0658787 -0.0708782 0)
(1.28333 -0.252011 1.81868e-19)
(1.00532 0.197461 1.35373e-20)
(-0.0589138 0.00341133 -4.69607e-20)
(-0.0424972 -0.0215242 -3.47908e-21)
(1.02457 -0.00467144 -2.83516e-21)
(1.01523 -0.000104691 1.08534e-22)
(0.993687 -0.229962 -1.65065e-21)
(0.134823 -0.0123924 1.01024e-21)
(0.92283 -0.046584 1.99716e-20)
(0.921989 -0.320256 1.00509e-20)
(1.19792 -0.0217428 3.32989e-20)
(1.07515 -0.0786834 8.44304e-21)
(0.0225173 0.00620471 5.80496e-20)
(1.0364 -0.00464926 1.06206e-21)
(1.17104 0.208203 6.86392e-20)
(0.218558 0.0449921 0)
(1.01293 -0.00136081 -1.04259e-23)
(0.379655 0.0630368 -9.62702e-21)
(0.96583 -0.171252 9.69046e-21)
(1.03379 -0.0195347 -3.54357e-21)
(1.07131 -0.10963 -1.60216e-20)
(1.18803 -0.0555511 5.34202e-20)
(1.04899 0.00428698 -1.10031e-20)
(0.999227 -0.00325117 -7.21547e-21)
(-0.266668 -0.010301 0)
(1.05084 0.209331 0)
(1.0021 -0.0134625 0)
(-0.273686 -0.00669094 -1.35187e-19)
(0.0276537 0.00887608 -7.72275e-20)
(1.25735 -0.150652 9.94938e-21)
(0.998255 -0.00808652 0)
(1.00221 -7.52524e-05 5.22405e-22)
(1.13497 0.153957 -5.90362e-20)
(1.05465 -0.0219188 1.14529e-20)
(1.02558 -0.00488999 1.66065e-21)
(1.03056 -0.00934748 0)
(0.946985 -0.0175065 1.79328e-20)
(1.21967 -0.253108 0)
(1.19104 -0.0578845 -5.76657e-20)
(1.07851 -0.0737691 -1.18707e-21)
(1.09541 -0.0941868 -4.20219e-20)
(1.02459 -0.126406 2.04373e-21)
(0.950657 -0.226425 -3.9139e-21)
(1.02807 0.0023998 0)
(0.999991 -0.00056503 -7.85999e-21)
(1.23105 0.0253659 -1.69783e-20)
(1.07727 -0.205253 0)
(1.21756 -0.1201 4.45426e-20)
(0.543466 0.0462111 0)
(0.919581 -0.0488257 0)
(1.01348 -0.0464691 0)
(1.00548 -0.000152662 0)
(1.17068 0.210874 -4.71987e-20)
(0.42815 0.0695437 8.96215e-21)
(1.02568 -0.00315058 0)
(1.00505 -0.00738014 0)
(1.02546 -0.0034401 1.64493e-21)
(0.970487 -0.0637871 4.56594e-21)
(0.985684 -0.205158 -4.38392e-21)
(1.31327 -0.113281 9.71767e-20)
(0.988427 -0.0116487 7.8239e-21)
(0.968964 -0.0144194 1.10106e-20)
(1.02213 -0.0045053 0)
(0.606882 -0.556368 3.57866e-20)
(0.958751 -0.450494 -1.10215e-20)
(1.21998 -0.0211438 2.52831e-20)
(1.14526 -0.305083 0)
(1.05308 -0.00378519 5.30974e-21)
(1.2276 0.0210928 0)
(1.08987 -0.305049 -2.21419e-20)
(1.11047 -0.0759446 0)
(0.891445 -0.0958321 -2.54763e-20)
(0.130418 -0.0483656 1.08014e-19)
(-0.0309331 0.0033647 9.8566e-21)
(1.19717 0.0804423 -1.96357e-22)
(1.00211 -0.00237289 1.13585e-22)
(1.0351 -0.135131 0)
(1.30164 -0.037785 4.24096e-21)
(0.676579 0.0304123 0)
(1.02271 -0.0824519 1.8764e-21)
(1.02447 -0.00507079 0)
(1.15734 -0.030724 3.05104e-20)
(1.03778 -0.00962443 6.98652e-24)
(1.09845 -0.0125664 -1.27184e-20)
(1.20164 0.00758762 5.16266e-20)
(0.452144 -0.0114476 2.75918e-20)
(1.14706 0.110571 0)
(1.02114 -0.123426 1.47418e-21)
(-0.295583 -0.00122371 -8.21682e-20)
(0.989419 -0.0255506 1.1138e-20)
(1.04796 -0.0564092 0)
(1.0034 -0.0245586 2.3565e-21)
(1.0416 -0.0249919 5.71073e-21)
(1.16262 0.0819073 0)
(1.06193 -0.0396151 -9.05289e-21)
(-0.258422 -0.0108161 1.27547e-19)
(0.914932 -0.472679 -4.89943e-23)
(1.04252 0.0059622 -4.43311e-21)
(1.00191 -0.0130112 -3.13043e-21)
(-0.147753 0.0100911 -4.83289e-20)
(1.14679 0.107565 5.3565e-21)
(1.21531 0.0228305 6.09133e-20)
(0.98908 -0.0248828 -1.08543e-20)
(1.11265 0.061315 0)
(1.02923 -0.00799753 -1.13521e-21)
(0.939945 -0.0731063 0)
(0.987834 -0.012448 0)
(1.01499 -0.0043756 -2.10746e-21)
(-0.113959 0.00417339 9.76941e-20)
(0.010679 0.00741912 0)
(1.04462 -0.774888 1.67148e-20)
(0.395511 -0.146095 0)
(1.00557 -0.000441074 -1.07454e-21)
(1.21057 0.0423384 1.16539e-20)
(0.104437 0.020573 5.00963e-20)
(1.12763 -0.0574007 -2.45811e-20)
(1.01082 -0.00559186 1.70621e-22)
(0.573378 0.0638521 4.73674e-20)
(1.02899 -0.0117538 0)
(1.03948 0.000106985 0)
(1.00921 -0.0054896 0)
(1.16517 0.083706 0)
(0.990826 -0.0133045 -6.18078e-22)
(0.974305 -0.0919255 6.09843e-21)
(1.14114 -0.295042 0)
(0.668987 -0.0202706 0)
(1.0301 -0.00900609 0)
(0.214366 0.0267049 0)
(1.13546 -0.00232835 0)
(0.99847 -0.00791378 -4.33194e-22)
(1.07603 -0.00395331 2.00096e-20)
(0.992617 -0.0252628 0)
(1.00495 -0.00756713 0)
(1.07299 -0.0764389 -1.78518e-20)
(1.15316 0.0241816 -3.93005e-20)
(0.9571 -0.222287 -2.61778e-21)
(0.109011 0.0431523 1.39633e-19)
(1.12199 -0.0516023 -2.51314e-20)
(0.996515 -0.00501144 -1.17033e-20)
(1.02996 -0.475588 0)
(0.659436 0.0731725 -4.29639e-20)
(0.747437 0.132151 -7.71474e-20)
(-0.156867 0.0166248 9.09219e-20)
(1.15545 0.0897224 0)
(1.00804 -0.051385 -4.88628e-21)
(1.01472 -0.00422442 2.20722e-21)
(1.00897 -0.0128368 -8.4545e-22)
(0.99376 -0.0414069 -6.19153e-21)
(1.14315 0.11379 -4.04807e-20)
(1.12223 0.0105975 0)
(1.09083 0.0238195 0)
(0.965893 -0.164628 -8.21165e-21)
(1.09955 -0.0272767 -1.11191e-20)
(1.19878 0.107987 -2.99382e-20)
(1.16578 0.042521 6.37155e-21)
(0.992499 -0.0243519 0)
(1.09283 -0.092176 6.24191e-21)
(-0.0673494 -0.0367781 -9.858e-21)
(0.990191 -0.0558031 -1.84476e-21)
(0.484123 0.0115918 -5.34633e-20)
(1.00344 -0.00010592 -1.07322e-22)
(0.99676 -0.00120308 1.16702e-22)
(0.224805 -0.0175908 1.90456e-20)
(0.950895 -0.101663 0)
(1.04407 -0.0277063 3.78543e-21)
(1.23571 0.0546427 -2.6631e-20)
(1.17603 0.0833924 1.40221e-20)
(0.997801 -0.224775 -1.05354e-21)
(0.0621835 -0.0637879 -3.21734e-20)
(0.995191 -0.0250128 0)
(0.988368 -0.0513311 -1.41661e-20)
(0.544616 -0.501226 8.64975e-21)
(0.124988 -0.0439715 -8.97023e-20)
(0.869959 -0.126945 1.08986e-21)
(1.15852 -0.154632 -2.70189e-20)
(1.13479 0.161966 4.64806e-20)
(1.22638 0.10913 0)
(-0.201495 0.00259018 1.25341e-19)
(1.14036 0.15575 -2.10278e-20)
(0.971492 -0.0273183 0)
(1.21928 -0.0608704 0)
(1.00933 -0.0364868 1.6427e-21)
(1.14362 0.116709 -1.68961e-22)
(1.04106 -0.0494224 0)
(0.123181 -0.0679483 0)
(1.10999 0.0615253 5.98709e-21)
(1.31249 -0.042443 4.63123e-20)
(1.09073 0.0224501 -5.46503e-21)
(1.1264 0.0858025 -1.48272e-20)
(1.01286 -0.00155714 1.03269e-21)
(1.22498 0.0372073 -3.82988e-20)
(1.02137 -0.00574179 -1.77949e-21)
(-0.049961 0.0027718 6.59443e-21)
(1.00312 -0.0251638 2.65214e-21)
(1.15591 -0.393744 5.13379e-20)
(0.999593 -0.00666861 0)
(1.11212 0.176043 -7.40793e-20)
(1.1007 -0.0118507 2.61665e-20)
(1.00017 -0.00581754 4.7002e-21)
(1.00216 -0.0178508 0)
(1.00956 -0.005457 0)
(0.804399 0.0888188 0)
(-0.0865421 0.0023799 0)
(0.799623 0.0456578 -1.06116e-19)
(1.11769 0.0299512 1.91397e-20)
(1.06529 0.00487031 5.74215e-21)
(1.18982 -0.0513096 6.18013e-20)
(1.00001 -0.00054477 0)
(1.00003 -0.000262021 1.09841e-21)
(0.343425 0.0443198 -4.34726e-20)
(1.00176 -0.0179686 4.14381e-21)
(0.996138 -0.00233273 5.3511e-21)
(1.20046 -0.02387 8.76617e-21)
(1.00222 -0.00231269 0)
(1.15293 -0.156197 0)
(1.18748 -0.0486633 -5.44529e-20)
(0.995929 -0.00214778 -3.0017e-21)
(0.991048 -0.013993 -2.28421e-21)
(0.937041 -0.0927551 2.33635e-20)
(0.99003 -0.0540212 3.55356e-21)
(1.09069 -0.0443714 4.51606e-20)
(0.73108 0.0465573 0)
(1.0638 0.0424335 0)
(0.87782 -0.126902 -4.32964e-20)
(1.04865 -0.0847017 3.4944e-21)
(0.996678 -0.0048479 3.0028e-21)
(0.395121 -0.750848 -2.41431e-21)
(0.965943 -0.0193854 0)
(1.04201 -0.0366533 -2.11698e-21)
(0.856595 -0.775304 0)
(-0.204588 0.00452714 -2.52421e-20)
(1.12394 0.0836613 2.87522e-20)
(1.0768 0.140261 0)
(1.02187 -0.0845558 -1.28622e-21)
(1.04222 -0.0356159 -4.82483e-22)
(-0.181038 0.00846843 -2.24253e-22)
(1.03784 -0.00553452 8.15205e-21)
(-0.130143 0.0052463 0)
(1.14254 -0.387006 -4.25932e-20)
(0.999905 -0.00600179 0)
(0.691325 0.0501371 0)
(1.23018 0.0218196 2.16738e-20)
(1.15867 -0.0277722 1.11881e-20)
(1.00854 -0.000450184 0)
(1.07622 -0.198511 -1.23699e-20)
(0.394158 0.0562988 3.77501e-20)
(1.03572 -0.0207472 -4.87234e-21)
(1.03023 -0.0179937 -5.61306e-21)
(1.04595 0.012124 1.46625e-20)
(1.04893 0.00344081 1.74967e-20)
(1.03935 -0.00211677 1.36036e-20)
(1.01187 -0.000759068 1.3878e-21)
(1.00002 -0.000124687 0)
(0.796269 -0.0305781 0)
(1.07427 -0.0317183 0)
(0.855385 0.0325528 0)
(0.987668 -0.00989203 -1.14361e-20)
(1.22671 -0.0655987 5.76522e-21)
(1.24651 0.000967602 -1.01944e-19)
(0.999558 -0.00752263 2.39422e-22)
(1.02083 -0.00632756 5.47739e-23)
(1.07213 -0.0358783 2.2979e-20)
(1.00099 -0.00270018 2.95766e-21)
(1.01155 -0.0540302 1.32251e-21)
(0.952535 -0.0401684 -1.37752e-20)
(1.03103 -0.0303985 3.22016e-21)
(1.18782 0.0131052 0)
(0.6425 -0.569398 3.17084e-20)
(1.01718 -0.00216187 2.3944e-21)
(0.379856 0.0536786 0)
(0.121796 0.0181913 -2.62998e-20)
(0.866547 -0.111617 0)
(1.21816 -0.0579734 0)
(0.988375 -0.774534 0)
(0.937521 -0.0759478 9.34806e-21)
(1.0629 0.0408168 2.69459e-20)
(1.09186 -0.0260943 9.73455e-21)
(0.259445 0.0349181 0)
(1.07253 -0.0323283 0)
(1.10647 0.0483888 2.61327e-21)
(1.00673 -0.0342278 3.93717e-21)
(0.184668 -0.129214 -3.93338e-21)
(1.1282 -0.0205759 2.15768e-20)
(0.982434 -0.434764 1.91455e-20)
(1.19137 0.0417953 3.40464e-20)
(-0.220602 -0.0122553 -4.877e-20)
(1.07132 -0.0347776 -2.12153e-20)
(1.00027 -0.027658 -6.16014e-21)
(1.15835 -0.049267 3.43699e-20)
(1.32282 -0.126789 3.09015e-21)
(1.0089 -0.0529088 2.39026e-21)
(1.18859 -0.378754 9.53937e-21)
(0.978578 -0.0317288 4.84471e-21)
(0.844481 0.0742188 0)
(1.01443 -0.0552706 0)
(1.02908 -0.0134723 0)
(1.00979 -0.0057346 4.25166e-23)
(1.00211 -0.00176138 0)
(0.136068 0.0190141 6.98556e-21)
(0.818078 0.0747051 0)
(0.98772 -0.0246114 0)
(1.1849 0.159242 0)
(0.956476 -0.124652 1.75729e-20)
(0.692087 0.117019 4.87346e-20)
(-0.0668081 0.00506094 0)
(1.16328 0.15975 5.6797e-20)
(1.27018 -0.00222645 -2.40019e-20)
(1.03426 0.00369802 4.57404e-21)
(0.240253 0.0282614 5.69921e-20)
(1.11481 0.0755029 -6.15535e-21)
(1.01607 -0.0324615 0)
(1.12348 0.025407 -1.07893e-20)
(0.319493 0.042673 7.25469e-20)
(0.184668 -0.0255285 2.17061e-20)
(1.05153 -0.0114318 0)
(0.955622 -0.01152 -2.1418e-20)
(1.01296 -0.0343333 0)
(1.01491 -0.000334438 1.11597e-22)
(0.156795 0.00893936 0)
(1.18625 0.017635 -2.09402e-20)
(0.184526 0.0238728 5.60522e-20)
(0.0764614 0.0169683 2.83343e-20)
(0.982317 -0.0221591 8.16397e-21)
(1.00085 -0.00263568 5.56309e-21)
(1.15155 -0.00575493 2.51022e-20)
(1.00002 -0.000531452 1.12336e-21)
(1.01105 -0.012889 0)
(0.952877 -0.0385901 1.17056e-20)
(1.04625 0.00928143 -4.00748e-21)
(1.19064 0.0121103 1.50133e-20)
(1.12592 -0.0195485 1.99996e-20)
(1.22805 -0.22604 -3.34992e-22)
(0.266464 0.027978 0)
(1.15975 -0.146776 1.14848e-20)
(0.999564 -0.00646754 -2.97541e-21)
(0.952085 -0.0980267 -8.97926e-21)
(1.20581 -0.144242 0)
(0.315063 0.0356989 -2.74989e-21)
(1.10416 0.0467119 -2.19204e-21)
(1.30571 -0.369074 0)
(1.14927 -0.0528525 2.91341e-20)
(0.986982 -0.0251084 -3.13892e-21)
(1.18447 0.155221 1.87742e-20)
(0.797128 0.125281 0)
(1.0138 -0.0491763 -4.77522e-22)
(1.02616 -0.00393151 -3.66536e-23)
(0.652722 -0.296895 -3.19146e-20)
(0.142209 0.037314 -5.65127e-20)
(1.23422 -0.235472 3.13233e-20)
(1.00222 -0.00170791 -4.55033e-22)
(-0.049401 0.00251149 0)
(-0.0495819 0.000821224 4.4206e-20)
(1.33088 -0.132175 0)
(1.02144 -0.00480567 -2.38034e-21)
(-0.163954 -0.0192665 -4.9335e-20)
(-0.263612 -0.00812713 3.84776e-20)
(0.496249 -0.193536 0)
(1.06226 -0.0379072 -1.01204e-20)
(0.999374 -0.00100603 6.70779e-21)
(0.805607 0.0474788 8.7407e-20)
(1.00001 -0.000102787 -1.3102e-20)
(1.18938 0.105439 1.87931e-20)
(-0.104514 0.00797271 -5.38387e-20)
(1.22771 -0.0168075 0)
(-0.206114 -0.0148082 -4.13137e-20)
(1.16 0.051303 -2.20354e-20)
(0.0333962 0.0121256 -1.80634e-20)
(1.15596 0.0228359 2.08934e-20)
(0.990978 -0.034935 9.81226e-23)
(0.956526 -0.0105096 1.30906e-20)
(-0.213642 0.0105939 5.84928e-22)
(0.693419 0.121751 2.34822e-20)
(-0.28127 -0.00741338 -5.16502e-20)
(0.468009 -0.004976 3.54868e-21)
(1.03792 -0.00477892 5.67834e-22)
(1.19023 0.102498 5.32979e-22)
(1.00002 -0.000427318 2.57563e-21)
(1.16063 -0.0589131 1.9077e-20)
(1.15256 0.0669139 0)
(1.2157 -0.13524 -3.94695e-20)
(0.999995 -0.00588462 0)
(0.9709 -0.0822067 0)
(1.20811 0.042847 -3.48527e-20)
(0.348278 0.0475735 -5.23343e-21)
(-0.202621 0.0120797 -6.23555e-20)
(-0.300786 -0.00404396 0)
(1.11347 -0.0773044 2.06211e-20)
(1.04405 -0.127091 0)
(1.21483 0.0665745 -4.50317e-20)
(0.967683 -0.0151264 -2.41788e-20)
(1.02812 -0.00754221 -4.67269e-21)
(0.997102 -0.0127091 -1.32344e-21)
(1.05895 0.0200074 1.05646e-20)
(1.12538 0.0797865 -3.56251e-20)
(0.996059 -0.00510272 -3.39199e-21)
(1.14969 0.0647486 -3.96644e-20)
(1.00775 -0.0125733 2.15896e-21)
(1.0031 -0.00018943 2.70504e-22)
(1.00547 -0.00740412 -3.46781e-21)
(0.224321 0.0254345 -5.01528e-20)
(0.964835 -0.0165336 1.36275e-20)
(1.00002 -0.000384621 -3.84474e-21)
(1.14844 -0.00696452 5.73956e-20)
(1.14813 -0.0274607 -3.41859e-20)
(1.01737 -0.00231626 -1.77683e-21)
(-0.130522 0.00315553 -1.21023e-19)
(1.03823 -0.00918437 -5.82087e-21)
(1.02964 0.00221206 3.45848e-21)
(1.153 -0.0715196 0)
(0.888543 -0.136788 2.38142e-20)
(1.06639 0.00569806 6.51625e-21)
(1.02877 -0.0526914 -4.02509e-21)
(1.32957 -0.366608 4.6824e-21)
(0.865082 -0.117234 -2.53964e-20)
(1.06972 -0.119579 1.05739e-20)
(0.823452 0.126112 -7.64802e-21)
(1.07319 -0.118302 0)
(0.617213 0.0865188 2.03836e-20)
(0.90799 -0.0230816 0)
(1.18837 0.016582 0)
(0.499886 -0.24203 -6.41222e-20)
(0.133038 0.00603005 -3.61999e-21)
(1.02564 -0.00383498 0)
(0.27365 0.0348492 0)
(1.23301 0.0295755 -3.04306e-20)
(1.01247 -0.00366787 0)
(-0.00238979 0.0071259 0)
(0.998274 -0.0058223 3.82442e-21)
(1.00591 -0.0074146 2.04614e-21)
(1.12321 -0.0293643 6.5529e-23)
(1.00409 -0.00687095 0)
(1.15176 -0.242978 5.92169e-20)
(0.295167 0.0345616 0)
(1.0208 -0.0056684 5.90139e-21)
(0.193461 -0.122148 7.32973e-20)
(1.03369 0.00354139 0)
(1.11785 -0.0484854 8.20295e-21)
(0.721097 0.136717 4.81302e-20)
(1.01715 -0.00179495 -5.87929e-22)
(0.132942 0.0332371 1.60382e-20)
(1.01618 -0.0678295 -3.05135e-22)
(1.038 -0.0126423 7.44198e-21)
(0.998012 -0.0178058 -1.26812e-21)
(0.99682 -0.0130296 -1.71045e-21)
(1.22542 -0.0061997 5.96541e-20)
(0.739205 -0.210764 -2.7274e-20)
(-0.194377 0.0039157 9.76486e-20)
(1.16485 -0.1456 0)
(0.187221 0.0474041 3.31944e-20)
(1.15292 -0.011022 0)
(0.996233 -0.0049426 1.15198e-20)
(1.211 0.0468741 3.33994e-20)
(-0.286071 -0.00743751 4.86852e-20)
(1.26956 0.00131752 4.31273e-22)
(0.754891 -0.234621 0)
(1.21831 -0.0183793 1.01034e-19)
(1.11011 0.0785435 2.57477e-20)
(1.07198 -0.0599531 -1.73094e-21)
(1.22746 -0.00937988 0)
(1.02609 -0.0506209 -1.71641e-21)
(1.29038 -0.451447 1.3511e-19)
(1.0023 -0.00107335 -6.00745e-22)
(-0.151383 -0.0255949 0)
(1.05293 -0.00978637 -1.10653e-22)
(0.772373 -0.242348 0)
(0.932435 -0.091932 0)
(1.0417 -0.0275217 0)
(1.0684 0.0175672 4.35239e-22)
(0.95522 -0.00851921 0)
(1.01035 -0.012452 8.5012e-22)
(1.31543 -0.0499455 0)
(1.01414 -0.0684598 8.59338e-22)
(1.00536 -0.00760328 1.86134e-21)
(1.12467 0.011685 0)
(1.1892 -0.065367 6.69517e-21)
(1.22671 -0.00444622 -6.78361e-20)
(1.33306 -0.1201 1.15186e-19)
(1.00769 0.125308 6.80342e-20)
(-0.0916077 0.0163343 5.90159e-20)
(1.00091 -0.00261176 -2.67545e-21)
(0.999476 -0.000941619 0)
(-0.0350234 0.00319945 0)
(0.995663 -0.00835949 -5.92055e-21)
(1.28425 -0.281983 -1.3588e-19)
(1.16273 0.0533241 2.38284e-20)
(1.0588 -0.0383848 0)
(0.996009 -0.00184658 2.85147e-21)
(1.06729 -0.110014 -2.13624e-22)
(0.990563 -0.00115841 9.22725e-21)
(1.03701 -0.0125415 2.32789e-21)
(1.08944 0.00129557 2.20523e-20)
(1.28108 -0.272871 1.04915e-19)
(1.23162 -0.221139 -3.45501e-20)
(0.653385 -0.31502 3.54149e-20)
(1.13301 -0.169135 0)
(1.00076 -0.00381408 -3.53072e-21)
(1.13308 0.0455051 0)
(0.787337 0.0469593 -1.21737e-19)
(1.00725 -0.0119638 1.34652e-21)
(1.15216 0.0702039 -4.33408e-20)
(1.06429 -0.0250059 9.79397e-21)
(0.29269 0.0365169 3.15311e-20)
(0.956281 -0.0426487 2.10599e-20)
(0.00679977 -0.00135778 1.13396e-19)
(1.00239 -0.000950386 0)
(1.23392 0.0260801 0)
(1.00002 -0.000285534 3.98507e-21)
(1.164 0.0334514 0)
(1.01558 -0.0331511 2.03786e-22)
(1.05802 0.0189748 -5.68439e-22)
(1.06356 0.037415 1.4011e-20)
(1.01733 -0.00194784 0)
(1.02911 0.0022502 0)
(1.01669 -0.00316913 0)
(0.767549 0.0824457 3.37737e-20)
(-0.112999 -0.00326389 9.85154e-20)
(1.09782 0.0129831 0)
(0.169415 0.0366856 4.70876e-20)
(0.986052 -0.0246209 -1.43044e-20)
(1.11998 0.0122437 0)
(1.08792 -0.041232 4.75819e-20)
(1.21589 0.0297721 2.96123e-20)
(-0.0710285 -0.0336902 8.26074e-20)
(1.09775 0.0149267 -7.11123e-21)
(1.01945 -0.00219789 4.69727e-22)
(1.00125 -0.438633 -1.14382e-20)
(1.00764 -0.0121955 -2.37651e-21)
(0.985668 -0.0239223 1.10084e-20)
(1.08901 -0.0367058 9.36004e-21)
(-0.172582 0.00763588 1.09303e-19)
(0.718065 -0.0032452 8.35432e-20)
(1.25499 0.00374435 -6.62495e-22)
(1.1392 0.151942 0)
(0.725567 -0.212051 -4.22557e-20)
(0.949061 -0.0189201 -3.43832e-20)
(1.00692 -0.0265993 1.63007e-21)
(1.3083 -0.440149 -6.77765e-20)
(1.0058 -0.00760791 -1.71586e-21)
(1.29236 -0.0213583 -7.13939e-20)
(1.08853 -0.0238314 0)
(0.999237 -0.00143176 -1.01267e-20)
(0.386313 0.0367398 0)
(0.36205 0.0543976 1.47702e-20)
(0.997039 -0.00124582 -4.43166e-21)
(-0.181844 0.00444029 -1.17573e-19)
(1.04922 -0.087181 -4.44277e-21)
(1.09423 0.139392 -7.45055e-21)
(0.940821 -0.33948 0)
(1.08052 0.144233 0)
(0.328485 0.0538282 5.68214e-20)
(1.27926 -0.33555 5.7759e-20)
(1.00296 -0.000704141 -1.29696e-21)
(1.01508 1.31213e-05 0)
(0.277027 0.0285873 7.2157e-20)
(1.00295 -0.0318329 0)
(1.03213 -0.0197979 -3.1078e-21)
(1.09083 -0.0239565 -9.74354e-21)
(1.00146 -0.0325609 0)
(0.816097 0.103195 0)
(1.18424 0.14521 0)
(1.15385 -0.00767128 -2.54284e-20)
(0.0732179 0.0403412 0)
(1.13781 -0.00420314 0)
(1.17027 0.085489 1.65173e-20)
(1.06345 -0.0242294 0)
(1.00316 -0.00422001 0)
(1.01521 -0.00136434 0)
(1.01018 -0.0069131 3.96665e-23)
(-0.163864 0.00591155 5.71242e-20)
(0.146052 0.00437435 -1.71144e-21)
(1.16845 0.179167 3.48237e-20)
(0.995792 -0.00161401 0)
(1.01921 -0.00199738 1.83527e-21)
(1.06447 0.0388805 -1.51791e-20)
(1.01692 -0.0220939 7.92843e-22)
(1.12483 -0.0319623 -1.11256e-20)
(0.97392 -0.0873989 -1.66629e-20)
(1.24938 -0.493266 2.99552e-20)
(0.379446 0.0448634 -6.11485e-20)
(1.15026 0.0615644 -6.02101e-20)
(1.21703 0.0736473 0)
(1.17268 0.177651 -3.9487e-20)
(1.03109 -0.0184245 0)
(1.22641 -0.0114492 0)
(1.00736 -0.0270241 1.59441e-21)
(-0.0636855 -0.0328768 1.40646e-19)
(1.23344 0.0284885 2.88669e-20)
(-0.00353461 -0.0307116 3.04081e-20)
(0.976121 0.0382201 -2.2364e-20)
(1.04716 0.00920273 1.15587e-20)
(1.08969 0.00331998 -2.293e-20)
(1.18438 -0.677062 1.67162e-20)
(0.064973 0.0400486 7.4541e-20)
(0.0297194 -0.0347541 -2.82729e-20)
(0.791857 -0.109338 0)
(1.21161 -0.146824 -9.68062e-20)
(-0.151416 0.0127464 7.09246e-20)
(1.0021 -0.00206676 -3.20559e-21)
(1.21348 0.0683454 4.61055e-20)
(0.586263 -0.648911 3.80918e-20)
(1.14108 0.120625 2.20001e-20)
(1.0022 -0.00199259 3.3719e-21)
(1.03397 -0.0206282 3.90352e-21)
(1.12587 -0.0163238 0)
(0.0572587 0.0150249 -3.98601e-21)
(0.346753 -0.683919 0)
(1.03002 -0.316291 2.12518e-20)
(0.988693 -0.00820631 9.17753e-21)
(1.0577 0.0165982 -2.42895e-21)
(0.89141 -0.0603403 9.4998e-21)
(0.166686 -0.194755 -6.21857e-20)
(1.04065 -0.0268163 0)
(1.26229 -0.302578 1.06239e-19)
(1.00453 -0.0151346 0)
(0.988239 -0.0530106 5.11357e-21)
(1.23947 -0.0629033 0)
(1.00714 -0.0116223 -1.61172e-21)
(0.998857 -0.00800176 0)
(1.04222 -0.0504327 0)
(1.00653 -0.101361 0)
(1.00346 -0.00420784 -2.89027e-21)
(1.02647 -0.0498033 -1.94197e-21)
(1.02199 -0.00483199 -4.88194e-21)
(1.04196 0.133278 -6.31112e-20)
(1.13732 0.215591 -3.17927e-20)
(0.196674 0.00868287 -4.38859e-20)
(1.02513 -0.00451838 3.19509e-21)
(0.877853 -0.211253 0)
(0.993231 -0.00243084 1.89297e-21)
(1.21285 0.048251 -1.79975e-20)
(1.21565 0.0196938 -3.25527e-21)
(1.03433 -0.156879 7.80162e-21)
(1.00419 -0.015201 0)
(1.05283 -0.00482727 0)
(1.18876 -0.403904 5.73052e-21)
(1.1855 0.0457277 0)
(1.09407 -0.0259882 2.25001e-20)
(-0.0999146 0.00590211 0)
(1.13718 0.121692 0)
(0.992996 -0.0238396 0)
(0.982819 -0.0230918 -8.37309e-21)
(0.638898 0.0965491 2.15494e-20)
(-0.0832679 -0.038145 2.27957e-19)
(1.11734 -0.188663 -3.59361e-20)
(1.01669 -0.0042856 -1.49798e-22)
(1.17287 0.177373 1.34398e-20)
(1.0009 -0.00360581 -4.32616e-22)
(1.11472 -0.0482045 -1.75239e-20)
(1.02057 -0.00779876 0)
(1.3172 -0.143102 2.47125e-20)
(-0.0491026 0.000105154 -6.31165e-20)
(1.00713 -0.00796275 1.55422e-21)
(1.03887 -0.00115886 0)
(1.28884 -0.0145317 0)
(0.999921 -0.0284214 5.24861e-21)
(0.743516 0.0497869 -1.86716e-22)
(-0.262368 0.00702532 -7.75024e-20)
(1.13032 0.0494601 0)
(0.966299 -0.0140691 1.09732e-20)
(0.999068 -0.00229661 -8.02943e-21)
(1.02071 -0.00760194 0)
(1.00229 -0.000781181 0)
(-0.246833 0.00186626 0)
(1.31047 -0.214942 -6.46072e-20)
(1.22088 -0.127165 -4.85444e-20)