/*--------------------------------*- C++ -*----------------------------------*\
| =========                 |                                                 |
| \\      /  F ield         | OpenFOAM: The Open Source CFD Toolbox           |
|  \\    /   O peration     | Version:  v2012                                 |
|   \\  /    A nd           | Website:  www.openfoam.com                      |
|    \\/     M anipulation  |                                                 |
\*---------------------------------------------------------------------------*/
FoamFile
{
    version     2.0;
    format      ascii;
    class       volScalarField;
    location    "500";
    object      k_0;
}
// * * * * * * * * * * * * * * * * * * * * * * * * * * * * * * * * * * * * * //

dimensions      [0 2 -2 0 0 0 0];


internalField   nonuniform List<scalar> 
18355
(
0.000162363
0.0410461
0.000147512
0.00014558
0.000150365
0.000185258
0.000147557
0.000173998
0.000151256
0.039464
0.000145062
0.0323487
0.000182306
0.000148035
0.000148622
0.000151647
0.0142464
0.000146206
0.000148203
0.0639669
0.000153976
0.000149367
0.0671357
0.000150387
0.000155793
0.000148889
0.000148378
0.000150891
0.016335
0.000148041
0.000149
0.000152315
0.000146186
0.000146824
0.000168757
0.000163046
0.000149894
0.00018243
0.000150701
0.00014522
0.000148045
0.000168408
0.000147532
0.0285342
0.000147907
0.000183561
0.000170044
0.00015188
0.000167933
0.000146336
0.000145044
0.000147177
0.000149835
0.0713219
0.000148439
0.000148374
0.000203272
0.000148738
0.000457992
0.000184196
0.000146368
0.000178385
0.000146094
0.000162822
0.0358422
0.00016176
0.006075
0.000157674
0.000148419
0.000149239
0.000172053
0.000149684
0.0001854
0.000146579
0.000173917
0.000147533
0.0775471
0.000152166
0.000159735
0.000146966
0.000147634
0.000266263
0.00015367
0.000164492
0.000148831
0.000181999
0.0366787
0.0633161
0.0160306
0.0734615
0.0002125
0.000148315
0.000148613
0.000144456
0.00572159
0.0638311
0.000147127
0.000156365
0.0682001
0.00874086
0.00893597
0.0104301
0.00016456
0.0235218
0.000151062
0.000187114
0.0214797
0.000177225
0.000161911
0.00018315
0.000147838
0.000150334
0.000148901
0.000150548
0.0652331
0.000147848
0.000479916
0.0776744
0.000472484
0.000164464
0.042532
0.000285218
0.000152048
0.000171856
0.000147117
0.000177887
0.000147155
0.000149726
0.00149002
0.000144475
0.000145082
0.0106259
0.000172204
0.000156096
0.000161386
0.000149697
0.00014791
0.000145044
0.000147954
0.000172908
0.0109496
0.0164131
0.000149252
0.000147832
0.0001903
0.00014914
0.000153834
0.0197087
0.00015283
0.0123894
0.000149763
0.000149197
0.000167736
0.000430488
0.000188465
0.000149782
0.0103501
0.000468887
0.000149764
0.000179298
0.00015558
0.000153632
0.000156777
0.000156622
0.000218294
0.00027318
0.0666973
0.000166505
0.000197787
0.0001464
0.0243782
0.0598401
0.000144958
0.000145059
0.000151626
0.0314188
0.000183935
0.000148555
0.00103183
0.0505708
0.000166056
0.000197562
0.000158512
0.000147252
0.000218308
0.0332282
0.0733086
0.000203309
0.000151322
0.0113009
0.000202705
0.000147562
0.000156438
0.0348139
0.000162633
0.000149318
0.00109302
0.000158228
0.000167769
0.000145057
0.00015122
0.000152157
0.0491796
0.0704825
0.0102884
0.000156638
0.000476292
0.0586149
0.0631727
0.000167592
0.00014786
0.000149547
0.0618995
0.000149095
0.000146405
0.000253594
0.0285746
0.0623985
0.000148955
0.000152676
0.000244326
0.000147913
0.000163894
0.000147778
0.059195
0.000148852
0.0500446
0.0323805
0.000170027
0.000147843
0.000149812
0.000159067
0.00015519
0.0536645
0.000150295
0.000148839
0.000148621
0.000184034
0.00083743
0.00941715
0.00016125
0.000197245
0.00014923
0.000146484
0.000149016
0.0261365
0.00479841
0.00047786
0.000188382
0.000155484
0.000151224
0.000531105
0.000158848
0.0670242
0.000148596
0.0324406
0.0418187
0.000179147
0.000147924
0.0001475
0.000161087
0.000173821
0.0578932
0.00017288
0.000146693
0.000146381
0.000149739
0.00019993
0.000170437
0.000168799
0.000150176
0.00873223
0.000206512
0.000186244
0.000149291
0.00145644
0.000147036
0.000147878
0.000809479
0.0001467
0.000147527
0.000186024
0.000147449
0.0126823
0.000158665
0.000152456
0.000146895
0.000166437
0.0353712
0.000152378
0.000145611
0.000147959
0.000192758
0.0556992
0.000149764
0.000149847
0.0345688
0.000165604
0.000189503
0.000178749
0.000147892
0.000172672
0.000149776
0.000149773
0.000177613
0.000219151
0.000281321
0.0001941
0.000144551
0.000167029
0.000150763
0.000148195
0.00102231
0.000147677
0.000200351
0.000168023
0.000148557
0.000145103
0.00019819
0.00311918
0.0634368
0.000148711
0.000156439
0.025147
0.000146952
0.00148827
0.000159179
0.000158781
0.000332194
0.000144545
0.000317927
0.000148081
0.000161929
0.000148712
0.000189005
0.0355091
0.000149786
0.0423659
0.000164596
0.000148174
0.000169407
0.000178941
0.0310647
0.071655
0.0247349
0.000148548
0.000146049
0.065065
0.000163989
0.000148675
0.000149767
0.0004652
0.000218489
0.000422138
0.068479
0.000148512
0.000152362
0.000525001
0.000147799
0.000150069
0.000211974
0.000168102
0.000153844
0.0034183
0.000149824
0.000162013
0.000257578
0.00778398
0.00014557
0.00014831
0.00014788
0.000147093
0.00016523
0.000147101
0.000165111
0.000147882
0.00015301
0.000148537
0.000151047
0.000147667
0.000148153
0.000147533
0.000147517
0.000151168
0.00017038
0.0179543
0.000147788
0.0512095
0.000159345
0.0189114
0.000163075
0.000176769
0.000149154
0.0381901
0.000149736
0.000147884
0.000148787
0.000145446
0.0689556
0.000153292
0.000146731
0.000169132
0.000164858
0.000147799
0.000146955
0.0569025
0.00014922
0.000147071
0.000523271
0.000147425
0.000470639
0.00935572
0.000212584
0.000153504
0.000151043
0.0406219
0.000149601
0.000147678
0.000438676
0.000149778
0.000144954
0.0125584
0.000146534
0.0381236
0.000173465
0.00018565
0.0121034
0.000149584
0.000147664
0.0743038
0.000185153
0.0249279
0.0229841
0.000147876
0.000147315
0.000149111
0.0423455
0.000162229
0.000148305
0.000149817
0.000149043
0.000162332
0.000478536
0.000155674
0.000149018
0.000149823
0.000162543
0.000214934
0.0579382
0.0334875
0.043518
0.000162863
0.000162204
0.0350309
0.00014891
0.000146784
0.000147947
0.000147769
0.000164813
0.000147989
0.000146329
0.00706758
0.000162571
0.000168662
0.0756081
0.000163246
0.0272837
0.000147485
0.000147591
0.000147939
0.000147666
0.000149879
0.000149864
0.000147918
0.017436
0.000148714
0.0001448
0.000247944
0.000185286
0.000146846
0.000151467
0.000164481
0.000779831
0.000151258
0.0001472
0.0334571
0.000151841
0.012827
0.000159605
0.000147147
0.0072583
0.000185282
0.000146086
0.0712119
0.0137728
0.0527006
0.000147136
0.000147087
0.000154629
0.000193031
0.000149451
0.00985308
0.0365675
0.0445892
0.000230648
0.000145393
0.000173243
0.0456072
0.0637198
0.0699784
0.000148779
0.000155136
0.000155547
0.0474154
0.0100574
0.000211211
0.000148862
0.000147913
0.000148725
0.000162458
0.000147937
0.0695521
0.000156171
0.067581
0.000148188
0.000148909
0.000147417
0.000157311
0.000159175
0.000215224
0.000147503
0.000187378
0.000415284
0.000162257
0.000147908
0.000151973
0.000163327
0.000149798
0.000161938
0.000168311
0.000161844
0.000184635
0.000149974
0.000146048
0.000147947
0.000149843
0.000165621
0.000153833
0.000178373
0.000147429
0.000150399
0.0374345
0.000144607
0.000157565
0.000149711
0.000182681
0.000152173
0.0682547
0.000150209
0.00831237
0.000153937
0.000152002
0.0432731
0.0360738
0.0411183
0.00016235
0.000152972
0.0001472
0.000147901
0.000195803
0.00016851
0.000158985
0.000169813
0.0166626
0.000221751
0.000147359
0.0694318
0.0193957
0.000151789
0.0001479
0.000157596
0.0705273
0.000161045
0.000149402
0.000163597
0.00018308
0.000168897
0.000156728
0.000333181
0.000155989
0.000184692
0.0279112
0.000454464
0.0017174
0.000163844
0.000180766
0.000157918
0.000148386
0.00015188
0.000148007
0.000183419
0.000184313
0.0372981
0.000169748
0.0435132
0.0108366
0.000163265
0.000152052
0.032889
0.080735
0.000145184
0.000171144
0.00781769
0.0156906
0.0001559
0.000145242
0.000155875
0.00015674
0.000163036
0.000180828
0.00014767
0.00827477
0.000151267
0.000153096
0.0499028
0.000147383
0.000159385
0.0709554
0.000147673
0.000150907
0.0625943
0.000146169
0.000187563
0.000144618
0.0127213
0.000162597
0.000171201
0.000159037
0.00015453
0.000192199
0.000153148
0.0100619
0.000187393
0.00014869
0.0237847
0.000171853
0.000348317
0.0186509
0.000197686
0.000211896
0.000147807
0.00014553
0.0131451
0.000152103
0.000162503
0.000149566
0.000158059
0.0387501
0.0819062
0.000165718
0.0131609
0.000164523
0.000151564
0.000145267
0.000149494
0.000169771
0.000170447
0.000146691
0.0231204
0.00015698
0.000165472
0.00014987
0.0672417
0.0532726
0.000148066
0.000145189
0.000185898
0.000149616
0.000146077
0.0126876
0.000172433
0.000149401
0.000147886
0.000207963
0.000167921
0.000160282
0.000163736
0.00014812
0.0493223
0.000174849
0.000148811
0.000184746
0.058664
0.000147565
0.0803968
0.000145563
0.000147672
0.000149382
0.000158653
0.0528319
0.000164081
0.0310844
0.00015932
0.0588149
0.000193063
0.000157784
0.0407783
0.000148355
0.0866079
0.000151706
0.0279936
0.0406958
0.000148688
0.000458644
0.000153899
0.000154325
0.0589732
0.000166008
0.0443853
0.000146645
0.0696899
0.000148062
0.0174847
0.000149269
0.000155885
0.000162659
0.000146665
0.000145337
0.000176949
0.0328255
0.0111203
0.000147352
0.000339428
0.000157388
0.000146711
0.000148674
0.000155773
0.000191854
0.074298
0.000163232
0.000149771
0.000156069
0.0618419
0.000155758
0.00014771
0.000146666
0.000156552
0.000160494
0.0139034
0.000147338
0.000229434
0.000162861
0.0113781
0.050778
0.00639045
0.000145052
0.000183363
0.000147532
0.000149216
0.000159058
0.0105968
0.000146717
0.000147185
0.000147346
0.0819767
0.000151078
0.000148813
0.000160067
0.000160372
0.0757618
0.0253408
0.000147462
0.000148037
0.0733518
0.00014879
0.0655581
0.0457699
0.0565271
0.000174733
0.000177985
0.0441566
0.000163044
0.000149023
0.000146528
0.00014818
0.00014919
0.000148615
0.000149271
0.0512018
0.00711181
0.000149313
0.000167489
0.000146251
0.000151684
0.000164404
0.000148441
0.000153337
0.000151106
0.00019253
0.000377297
0.000172627
0.0487765
0.000162733
0.00729627
0.000170948
0.0597375
0.0684246
0.000174942
0.000443106
0.0002232
0.0187677
0.000147928
0.000147879
0.000147678
0.000156913
0.0553266
0.00014637
0.000149828
0.000179512
0.000146703
0.000162948
0.000162199
0.000149398
0.0390506
0.000148548
0.000148043
0.00020856
0.000145851
0.000191558
0.000185721
0.000148486
0.000151466
0.000146708
0.000165539
0.000146687
0.000152208
0.000201524
0.000147981
0.06638
0.00014906
0.0686453
0.000155009
0.000199338
0.000147703
0.000189691
0.000163985
0.000149075
0.000148507
0.069328
0.000147918
0.0187774
0.0213903
0.000150125
0.000148639
0.000148387
0.000145138
0.0130224
0.000147859
0.0717925
0.00553952
0.000165628
0.0403989
0.000147118
0.000147497
0.064392
0.0643435
0.000152719
0.000147873
0.00014792
0.000146454
0.000152334
0.000161567
0.000227325
0.000154057
0.0116436
0.000349532
0.0208684
0.000158069
0.000148064
0.0238681
0.0241999
0.000160195
0.000147712
0.000148735
0.0727463
0.000147964
0.0127932
0.000164955
0.000149658
0.000155856
0.000145996
0.000162983
0.000156283
0.000146718
0.000144635
0.000152025
0.0300392
0.000149438
0.000184717
0.0341226
0.000148649
0.000147446
0.000161612
0.014689
0.000161985
0.0585796
0.000149678
0.000145084
0.000151385
0.0275017
0.000189317
0.000293465
0.000147743
0.000157075
0.000148065
0.0547036
0.000146084
0.0383748
0.000162226
0.0143605
0.000149213
0.000147276
0.000177847
0.000147807
0.0254988
0.000148758
0.000393099
0.000149682
0.000146428
0.000152179
0.000214
0.0236128
0.000155439
0.000150223
0.000149608
0.000148674
0.000146669
0.000149862
0.000185045
0.000149236
0.0629611
0.000151995
0.0610839
0.000148202
0.000145256
0.000202046
0.06465
0.0768789
0.00014967
0.0396295
0.000148323
0.00525105
0.000149746
0.000194944
0.000146925
0.0549174
0.00014739
0.000156216
0.000148206
0.000147608
0.000149725
0.0706896
0.0134576
0.0465685
0.000158204
0.000157008
0.000153803
0.000147764
0.000145596
0.000146173
0.000151212
0.000190372
0.000149091
0.012037
0.000182641
0.000147856
0.000149821
0.00490007
0.000195695
0.000151212
0.00015367
0.000158581
0.0240234
0.000177729
0.0854088
0.000184008
0.000186389
0.00017328
0.000147973
0.000147307
0.000179766
0.000161133
0.000148051
0.0285562
0.000156209
0.0183929
0.000149282
0.00018251
0.000158326
0.000173461
0.00015558
0.00014827
0.000174505
0.000148458
0.0120576
0.000148322
0.000148232
0.0617437
0.000162542
0.000158259
0.0605209
0.000147329
0.000168287
0.0256233
0.000147903
0.000168578
0.0302142
0.000150457
0.000147345
0.0001485
0.000153874
0.000153479
0.000187933
0.0451053
0.00015238
0.000155025
0.0325551
0.000145513
0.00824249
0.000154886
0.000152021
0.000218415
0.0107056
0.000146089
0.000147422
0.00015312
0.000146135
0.000145694
0.0644975
0.00014979
0.000158556
0.000145171
0.000163446
0.000146062
0.000169838
0.000214572
0.000151501
0.0506518
0.00014741
0.000152721
0.000147558
0.0445914
0.000156401
0.000146916
0.000147849
0.000148836
0.000147423
0.000186018
0.0580159
0.0241674
0.0464207
0.000149171
0.000149543
0.000190924
0.00014884
0.000146127
0.000250846
0.0425296
0.00015198
0.000148372
0.0276921
0.000149462
0.000149185
0.0509285
0.000186047
0.0275458
0.00015108
0.000148017
0.0430587
0.000148949
0.000157796
0.000149438
0.000161457
0.000148015
0.000176863
0.000193858
0.000172081
0.000148553
0.0475531
0.000150195
0.000146944
0.000149375
0.00014834
0.000147814
0.000148892
0.0750536
0.000149415
0.0414656
0.000149484
0.000159232
0.0681669
0.000146506
0.000187695
0.000150955
0.000146443
0.000151609
0.000185707
0.000148097
0.000147241
0.000148753
0.00014816
0.000178486
0.000145786
0.000149531
0.000156328
0.000148493
0.000159086
0.013736
0.0553906
0.0448916
0.0562782
0.000185942
0.000173306
0.0662197
0.0600263
0.000148623
0.00014917
0.000145416
0.000170556
0.0585322
0.000161437
0.000154422
0.000145257
0.000147594
0.00014898
0.000152375
0.0414576
0.0564956
0.00986244
0.000178196
0.000148574
0.000149534
0.000148969
0.0313495
0.000607772
0.000147849
0.000338996
0.000145648
0.000161848
0.000152072
0.000162914
0.000161301
0.000219892
0.000150975
0.000170273
0.000145985
0.000147153
0.000173794
0.000147511
0.000148296
0.000178643
0.000206961
0.000148766
0.000166693
0.000147497
0.000148053
0.000146576
0.000147976
0.0660288
0.000157795
0.000150846
0.000148839
0.0477065
0.000172871
0.000148381
0.000157629
0.000161059
0.0204865
0.00022321
0.0644843
0.000195888
0.000186305
0.000191013
0.000193316
0.000170517
0.0354767
0.000145074
0.000147452
0.000147714
0.000172845
0.000148903
0.023411
0.000147463
0.000148682
0.0635545
0.000172714
0.000149512
0.000165751
0.00014754
0.000150751
0.000275682
0.000185489
0.000147685
0.000240526
0.000185036
0.0114464
0.072385
0.000147975
0.034341
0.000147424
0.000167775
0.000146962
0.000146785
0.0413943
0.000161955
0.000152024
0.000147688
0.0458253
0.000153883
0.0366841
0.0534465
0.000149737
0.000145886
0.000152844
0.074518
0.000182519
0.000170606
0.000158793
0.000210726
0.000147994
0.00015019
0.000147949
0.000148286
0.000151002
0.000163129
0.0625849
0.000177742
0.000190204
0.0307359
0.000147864
0.0151159
0.000184926
0.000162362
0.000149224
0.000147913
0.000147477
0.000147252
0.000147433
0.00995041
0.000183293
0.0699
0.000177708
0.000184218
0.000148862
0.000184938
0.0622141
0.00016146
0.000155458
0.000146876
0.0717855
0.0489702
0.000175949
0.00019216
0.000148069
0.00967044
0.000150761
0.000152784
0.000169277
0.000169216
0.000146048
0.000184824
0.0518664
0.000149838
0.0122002
0.0590599
0.0691098
0.00992708
0.000162813
0.000918292
0.000163938
0.000163032
0.0397114
0.000147259
0.000159123
0.000147126
0.000149645
0.0515428
0.000151978
0.0697235
0.000145874
0.000148819
0.0627167
0.000147834
0.0723069
0.000150892
0.000186317
0.000152147
0.000149166
0.070598
0.000155303
0.000183074
0.000146999
0.000147409
0.00021554
0.000176795
0.000148255
0.000155905
0.000253068
0.000184894
0.000356025
0.000149728
0.000147686
0.000144734
0.000147774
0.000157201
0.000164427
0.000145403
0.0634717
0.000147352
0.00014813
0.000171318
0.0323944
0.00017775
0.00015989
0.000146254
0.000150866
0.000179547
0.000306065
0.000265808
0.0273007
0.000157631
0.000163147
0.000225518
0.000148423
0.000168688
0.0484868
0.00014741
0.000198847
0.0134353
0.00033936
0.000246325
0.0694426
0.00018446
0.000148706
0.0228537
0.000154978
0.000172326
0.000181232
0.000147406
0.000185101
0.000147521
0.000148215
0.00017399
0.0120135
0.000159165
0.000147449
0.000164442
0.0276972
0.000166695
0.0145207
0.000147777
0.0374229
0.000146133
0.000170329
0.000183431
0.000147669
0.0280918
0.00014786
0.000146761
0.000148607
0.000147871
0.0662907
0.000186718
0.000149663
0.0588665
0.000148421
0.0174314
0.000146058
0.0144034
0.000161954
0.000185275
0.000152915
0.000147636
0.000145735
0.000148541
0.000212517
0.000174974
0.000148764
0.000170625
0.0126993
0.0721781
0.000172608
0.0593374
0.0616349
0.000147664
0.0272088
0.000146428
0.000224362
0.000147908
0.000148646
0.00014907
0.000175675
0.00628147
0.000214884
0.000181085
0.0494001
0.000189866
0.000184353
0.0443992
0.000147065
0.000172458
0.0163624
0.000144799
0.000173705
0.0454609
0.000198984
0.000147524
0.0599995
0.000165411
0.0155395
0.000545361
0.000157029
0.000182132
0.000155158
0.000147406
0.000145082
0.0278033
0.000193864
0.000179829
0.000192308
0.000147225
0.00333922
0.000159352
0.000144442
0.000149648
0.000177402
0.000153533
0.000149396
0.00014978
0.000271728
0.000147198
0.00016361
0.022301
0.000145687
0.000147171
0.000431877
0.000146809
0.000161396
0.000158785
0.000178146
0.000319341
0.000147785
0.000185548
0.000159484
0.000169301
0.000157443
0.000154196
0.000167846
0.000213641
0.000170116
0.0370726
0.000166667
0.000148841
0.000207176
0.0632613
0.000184896
0.000146349
0.000148196
0.000170931
0.000152239
0.0799525
0.000203179
0.000158891
0.0213635
0.00015239
0.000196232
0.0461276
0.000147972
0.00014875
0.000148326
0.000147766
0.00839981
0.000218742
0.000155488
0.000196275
0.000236407
0.000168659
0.000148986
0.000153595
0.000170995
0.00014744
0.000147039
0.0294463
0.00015122
0.000499031
0.000146699
0.000147823
0.000149801
0.000168131
0.000161339
0.000166585
0.000148645
0.00015181
0.0698257
0.0184502
0.000354747
0.000180936
0.000153897
0.00015044
0.0728113
0.00018136
0.0118361
0.000162969
0.000147412
0.000172148
0.000155217
0.00015006
0.000146429
0.000167772
0.000187219
0.0423459
0.000180276
0.000179871
0.000148885
0.000150729
0.000148602
0.000195982
0.0206017
0.000212646
0.00042455
0.000147266
0.0524257
0.00015145
0.000147639
0.000152847
0.000148839
0.000227892
0.000148036
0.000187733
0.000145659
0.000379141
0.000157903
0.00787503
0.000150316
0.000148939
0.000155241
0.000145985
0.000184327
0.00043634
0.0718422
0.000172096
0.000145484
0.0747337
0.000163805
0.000147871
0.000167891
0.000146991
0.000153429
0.00014468
0.000223832
0.000154149
0.000177043
0.000172118
0.000146635
0.074591
0.000145482
0.000155786
0.000149526
0.000152984
0.000146101
0.000147849
0.00016143
0.000149868
0.000154531
0.000145821
0.000152768
0.000306256
0.0333396
0.000149737
0.000172905
0.0747597
0.000147242
0.000148974
0.00015855
0.000195976
0.000147904
0.000174752
0.00181125
0.000150782
0.0759444
0.0127977
0.000147995
0.000150064
0.000166817
0.000144312
0.0376117
0.0546398
0.0406177
0.000151789
0.000159613
0.000144888
0.000311854
0.000156147
0.000190839
0.000149585
0.000179469
0.0141368
0.00019025
0.000152966
0.00112139
0.0162273
0.0458261
0.00014959
0.000146569
0.060217
0.000350639
0.000146628
0.000148578
0.000188755
0.000149974
0.000204081
0.000297758
0.00014613
0.000150058
0.00317885
0.000183155
0.000150975
0.000144369
0.000164973
0.000149324
0.000208643
0.00014733
0.000149184
0.000147927
0.000152305
0.000148296
0.0001822
0.000147073
0.000154463
0.064555
0.032839
0.0263116
0.000147014
0.000168986
0.000190128
0.000148674
0.00015297
0.000169943
0.000147178
0.000152057
0.0471221
0.000164378
0.000148013
0.000148357
0.000147809
0.0147243
0.0728912
0.000146887
0.000149899
0.000147738
0.000182847
0.033086
0.000151733
0.000173959
0.000148866
0.00016548
0.000159223
0.000215908
0.00877662
0.000149212
0.000250486
0.066322
0.000163429
0.000147758
0.000163664
0.000159385
0.000162312
0.000155482
0.000147966
0.000199349
0.000155344
0.000264532
0.000161779
0.000148874
0.000149816
0.0591071
0.000148696
0.000160488
0.00020435
0.00016109
0.0786141
0.0156334
0.000147733
0.000180156
0.000219826
0.000184129
0.000162406
0.00015203
0.000148294
0.00384882
0.000161518
0.000148106
0.000167802
0.000180082
0.000312431
0.0503182
0.000148279
0.000155669
0.000149086
0.000211357
0.000232486
0.000149186
0.000172351
0.000154291
0.00015118
0.00014919
0.0172487
0.000177126
0.00014801
0.000153067
0.0548652
0.000149718
0.000147904
0.000156974
0.000165315
0.000148124
0.000148993
0.000152773
0.00426985
0.000160088
0.000147783
0.000146851
0.000148552
0.000170071
0.000147859
0.000147582
0.000660686
0.0759321
0.000147388
0.000149746
0.000180436
0.000161917
0.000169155
0.000149272
0.0155634
0.000147162
0.000150374
0.000159932
0.076173
0.0232434
0.000191902
0.000170503
0.0601978
0.0175111
0.0129483
0.0672721
0.000153407
0.000147983
0.000146073
0.000161412
0.000147461
0.000147994
0.000148996
0.00017676
0.00014747
0.0286413
0.000162096
0.0752627
0.000148467
0.0593595
0.000148199
0.000157212
0.000145858
0.000150806
0.000160743
0.000255754
0.000148931
0.00014691
0.000154311
0.0688004
0.000147272
0.000169436
0.000149227
0.000162901
0.0120125
0.000178096
0.00047565
0.000158405
0.000201781
0.000149151
0.046093
0.0124857
0.000147018
0.0670454
0.0211837
0.000147613
0.000145005
0.000167983
0.000160651
0.000167188
0.000145774
0.0326991
0.000158022
0.000172481
0.000145806
0.000147517
0.000157824
0.0179813
0.00105464
0.0124921
0.000168445
0.0217238
0.000160621
0.0172949
0.000148606
0.000344975
0.000147649
0.000155924
0.000289692
0.000150994
0.000198141
0.000147424
0.000153321
0.0558045
0.00257901
0.000147584
0.000202317
0.000147847
0.070116
0.000146588
0.0756639
0.0247156
0.000147983
0.0370787
0.000156911
0.0376075
0.000148033
0.000155304
0.000150401
0.000173091
0.000147987
0.000226583
0.000146533
0.069907
0.000183086
0.0774198
0.000149106
0.00014588
0.00161669
0.000152233
0.000157492
0.000147462
0.000166849
0.000153534
0.000148123
0.0159955
0.000148334
0.000147549
0.000149792
0.000148514
0.0535543
0.000162931
0.000147501
0.0371017
0.000499586
0.000197092
0.000147408
0.000178296
0.000451905
0.000147879
0.000156573
0.000150066
0.000148154
0.000147504
0.000148291
0.000156811
0.000160258
0.0613294
0.000185975
0.000181424
0.000149837
0.000147631
0.0583785
0.000167855
0.000147489
0.000150034
0.0116749
0.0658878
0.000148179
0.0775862
0.000160967
0.000197045
0.000149843
0.0588668
0.00014615
0.00015177
0.000148555
0.000147038
0.000151399
0.0329237
0.000146116
0.0561678
0.000194005
0.000364565
0.0283158
0.000148568
0.000148334
0.0612468
0.0001668
0.000168383
0.000147914
0.000202913
0.000148984
0.068244
0.0374839
0.0498038
0.000148556
0.0705763
0.0522406
0.0712713
0.000195592
0.000153842
0.000179702
0.000147334
0.000215733
0.0696789
0.000161078
0.0535527
0.0001466
0.000148181
0.000167923
0.0121964
0.000162065
0.000883202
0.000147746
0.0357412
0.000170069
0.000163106
0.000146644
0.000164228
0.000180046
0.00014816
0.000168868
0.000167611
0.000219028
0.000146088
0.000147235
0.0512646
0.0419105
0.000152108
0.0352019
0.000160819
0.000147843
0.0672801
0.0256803
0.000148533
0.000246765
0.000145946
0.00014867
0.000173382
0.0468945
0.000149178
0.0601381
0.000151933
0.000147867
0.0158337
0.000149531
0.000183963
0.000146861
0.000327159
0.000148053
0.0169421
0.000146807
0.000163295
0.000148304
0.000155323
0.000176587
0.0674569
0.000162215
0.0202121
0.000160675
0.0733295
0.0545199
0.0492264
0.000147064
0.0269309
0.0716168
0.0133923
0.0001947
0.000149502
0.000146929
0.000148609
9.04285e-05
0.000147987
0.000149093
0.000978454
0.000149571
0.0268576
0.000151067
0.0747961
0.000147878
0.000149492
0.000191885
0.000145265
0.000178987
0.000147233
0.000167846
0.000180231
0.0186602
0.000146592
0.000147582
0.0696502
0.0648276
0.000149605
0.000159769
0.000164611
0.000150142
0.00811221
0.0420823
0.0718093
0.000190494
0.0291489
0.0370169
0.000216498
0.000147126
0.000146443
0.000150408
0.000147458
0.000158484
0.0270593
0.0685707
0.000148474
0.000152797
0.000151215
0.000618337
0.067547
0.000355704
0.000310559
0.000148497
0.000349598
0.0604187
0.000154604
0.049436
0.000174168
0.000149121
0.0719435
0.0395008
0.00678195
0.000149332
0.000151008
0.00016712
0.000219615
0.000146967
0.000148332
0.00014958
0.000146692
0.00014818
0.0694239
0.00015214
0.000145748
0.0228584
0.00014859
0.0371993
0.000168065
0.0384816
0.000222472
0.000147688
0.0761118
0.000172979
0.000223848
0.000150149
0.000160029
0.000147944
0.000150745
0.0182396
0.000199869
0.000174025
0.000150461
0.000147403
0.000171791
0.000152122
0.000148304
0.000155125
0.000147531
0.0508665
0.000147826
0.0642067
0.026304
0.000151227
0.000147706
0.0266122
0.000147045
0.000147128
0.000225891
0.00015332
0.000152505
0.000176932
0.000285095
0.0739012
0.0001599
0.000151423
0.000149143
0.0464272
0.0180209
0.000160822
0.000168182
0.000147398
0.000147956
0.00015295
0.000146772
0.000186415
0.000161544
0.000148272
0.000149485
0.000148506
0.000147571
0.000148111
0.000147471
0.000323938
0.0324613
0.0415512
0.000205187
0.0287425
0.000189003
0.000153945
0.0259864
0.0136135
0.0353653
0.000148528
0.000147291
0.00045729
0.00217911
0.000205068
0.000197769
0.0600833
0.000148523
0.000147799
0.0604933
0.000146797
0.000203599
0.000189441
0.000150741
0.0144158
0.057511
0.000149715
0.0156886
0.0294434
0.000173487
0.000207391
0.000148929
0.0216321
0.000247141
0.0778337
0.000146835
0.000164619
0.0178424
0.000147247
0.000170693
0.000147686
0.000171672
0.000148485
0.0299069
0.000205825
0.000148397
0.000152488
0.00014948
0.0381263
0.000169091
0.000148722
0.000149035
0.0534222
0.000147746
0.000152486
0.000175842
0.000190533
0.000149724
0.000166163
0.0001621
0.000147601
0.000210358
0.000147887
0.000147881
0.000158723
0.000147737
0.000163819
0.0599489
0.00021291
0.000147985
0.0633602
0.0145285
0.000185785
0.0150596
0.000171315
0.00015312
0.0405853
0.000158121
0.000152345
0.000166687
0.000169662
0.00014843
0.000146744
0.000148627
0.000209466
0.0418618
0.0759295
0.0718725
0.000146624
0.000154099
0.000175487
0.000176676
0.0438033
0.000148823
0.0643143
0.000149342
0.0212256
0.00014594
0.0392051
0.000150219
0.0674755
0.0313036
0.000183319
0.0496858
0.000164247
0.000146752
0.000166947
0.011757
0.0639378
0.000157004
0.000149476
0.00014752
0.000148647
0.000159987
0.000149905
0.000151671
0.000146754
0.0001768
0.000148011
0.0687102
0.000149445
0.0451383
0.000145981
0.000202023
0.0676947
0.000150594
0.034944
0.000147963
0.000156941
0.000149053
0.000149275
0.000147778
0.000185415
0.000184922
0.000146859
0.000152505
0.000148039
0.0664741
0.000162031
0.000220356
0.000202843
0.000148039
0.000174262
0.00015122
0.00015044
0.000161651
0.000148608
0.000167127
0.0756644
0.000148048
0.0616131
0.000155485
0.000147474
0.000146139
0.0249584
0.000147968
0.0688748
0.000177305
0.000149775
0.0146534
0.00018621
0.0383955
0.000157298
0.000153773
0.000148565
0.000174095
0.0488837
0.000148818
0.000166388
0.000148584
0.00020035
0.000370105
0.0179324
0.0743629
0.0482501
0.000157673
0.016634
0.000149014
0.0466397
0.000240465
0.000157393
0.000230992
0.000182381
0.000145211
0.000162892
0.000147994
0.000146741
0.000152618
0.000148011
0.00037398
0.000263986
0.000211082
0.00154191
0.000148376
0.000433446
0.000148255
0.000147747
0.000169213
0.0532301
0.000146981
0.0371319
0.000168249
0.000199133
0.0221085
0.000149726
0.00016877
0.0303365
0.000162228
0.000148133
0.000189395
0.000148074
0.000148769
0.000149575
0.000271374
0.0633973
0.000155398
0.00014857
0.0423862
0.0748968
0.000149282
0.000149543
0.000793904
0.0774967
0.000148957
0.000183474
0.000182198
0.000147356
0.000163467
0.000145931
0.0582952
0.000147728
0.0860002
0.0772549
0.0719508
0.000154096
0.000157774
0.000147765
0.000146557
0.0149081
0.000146944
0.0258208
0.071714
0.000173853
0.000146818
0.000146171
0.000207119
0.000187188
0.000162614
0.0775557
0.000180557
0.0172963
0.000151939
0.0553622
0.000316318
0.00015859
0.00018751
0.0786406
0.0162536
0.000148409
0.00591886
0.000146194
0.024341
0.000213095
0.000227141
0.000145514
0.000166803
0.000148594
0.000255917
0.0552561
0.000151215
0.000150462
0.0791232
0.0463522
0.000147986
0.0430264
0.0130364
0.00964078
0.0001494
0.0753455
0.000148937
0.0110447
0.000148642
0.000151225
0.000149317
0.000148246
0.0264124
0.000312135
0.000146299
0.0529874
0.0200446
0.00014466
0.000146132
0.000161576
0.000165751
0.000198201
0.000167538
0.0329212
0.0528616
0.051724
0.0796261
0.000196262
0.000150761
0.000206307
0.000181376
0.0193257
0.0370218
0.0373905
0.000193171
0.000179633
0.000153803
0.0190262
0.000169169
0.000226288
0.000149164
0.000154346
0.041981
0.000148513
0.000157698
0.000195013
0.000153202
0.000169735
0.000148222
0.000151804
0.0781804
0.000184636
0.000146053
0.000154231
0.0233948
0.000235073
0.000164115
0.00028715
0.0139228
0.000168204
0.000203498
0.0427261
0.000149974
0.0409974
0.000195666
0.0149384
0.000148882
0.000144329
0.0187029
0.0286206
0.0327477
0.0824456
0.0436217
0.000161719
0.000182806
0.000152106
0.0366139
0.000148195
0.000148031
0.000172739
0.000178517
0.000177036
0.0310428
0.000150353
0.000483952
0.0390944
0.000150253
0.000185603
0.000159488
0.00017787
0.000184362
0.000168964
0.0355726
0.0398905
0.0468578
0.000300978
0.000162595
0.000148077
0.000150976
0.000159327
0.000244936
0.0305178
0.0362897
0.0254365
0.000163418
0.000146709
0.000213091
0.0001679
0.053749
0.000148527
0.0170275
0.000168998
0.035161
0.000148504
0.0292446
0.000174672
0.000186346
0.000459981
0.00014688
0.017036
0.0379669
0.000146754
0.000179249
0.0454538
0.000150282
0.00020117
0.000152676
0.000151851
0.000149703
0.0701389
0.00016964
0.000251859
0.000161171
0.076463
0.000146612
0.000144545
0.000147341
0.000148293
0.000147546
0.0722522
0.000188207
0.0377949
0.000149355
0.00014681
0.0801115
0.000160797
0.0379195
0.000192251
0.000148645
0.000232538
0.000157044
0.000169604
0.0366573
0.000158397
0.0229783
0.000207132
0.000155389
0.000145331
0.000179489
0.000144723