/*--------------------------------*- C++ -*----------------------------------*\
| =========                 |                                                 |
| \\      /  F ield         | OpenFOAM: The Open Source CFD Toolbox           |
|  \\    /   O peration     | Version:  v2012                                 |
|   \\  /    A nd           | Website:  www.openfoam.com                      |
|    \\/     M anipulation  |                                                 |
\*---------------------------------------------------------------------------*/
FoamFile
{
    version     2.0;
    format      ascii;
    class       surfaceVectorField;
    location    "500";
    object      Uf;
}
// * * * * * * * * * * * * * * * * * * * * * * * * * * * * * * * * * * * * * //

dimensions      [0 1 -1 0 0 0 0];


internalField   nonuniform List<vector> 
27274
(
(1.1007 0.0808616 9.75436e-22)
(1.09751 0.0790825 -8.25525e-21)
(1.09754 0.0830328 -1.22918e-20)
(0.0890621 -0.00789115 -3.83473e-20)
(0.100896 -0.0100173 1.16398e-20)
(0.0751364 -0.00739638 -1.16417e-20)
(1.00424 0.022801 -4.53189e-22)
(1.00397 0.0221155 -6.94364e-22)
(1.00459 0.022344 1.39312e-21)
(1.01491 0.00473863 0)
(1.01527 0.00476148 -8.18771e-22)
(1.01521 0.0050701 0)
(1.04367 -0.0053294 -6.90801e-22)
(1.04394 -0.00450695 -4.25701e-21)
(1.04474 -0.00538398 -5.75802e-21)
(1.14718 -0.0579399 -5.10125e-23)
(1.14809 -0.0552818 2.14872e-20)
(1.15035 -0.057937 -1.21781e-22)
(1.0041 0.00715397 -3.64852e-22)
(1.00389 0.00693569 -1.48552e-21)
(1.00406 0.00688025 -5.5374e-22)
(1.15445 0.0262394 -2.65687e-20)
(1.15618 0.0234402 2.65603e-20)
(1.15286 0.0236794 -2.23675e-20)
(0.940265 -0.00465191 -1.61821e-21)
(0.937808 -0.00538031 -1.86839e-20)
(0.0447912 -0.00480018 -3.74421e-21)
(0.0266545 -0.00456923 -2.37655e-20)
(0.0442107 -0.00420809 -6.70789e-20)
(1.02205 0.000301768 -5.63224e-22)
(1.02228 0.000567046 -2.31625e-21)
(1.0218 0.000516076 3.20156e-22)
(-0.243041 -0.00755939 -4.9256e-21)
(-0.250101 -0.00694017 6.18005e-21)
(-0.269108 -0.00363697 4.07729e-20)
(1.18654 0.0195122 1.78482e-22)
(1.1878 0.0178209 -2.65045e-22)
(1.18918 0.0203036 9.85316e-23)
(0.987178 0.0056078 -8.82635e-23)
(0.98746 0.00618891 4.71529e-21)
(0.98783 0.00547978 7.97435e-21)
(1.02628 0.0350836 3.93278e-22)
(1.02706 0.0342164 -2.91799e-21)
(1.02576 0.0339173 -8.07383e-22)
(0.99002 0.0704489 4.77888e-21)
(0.988415 0.0722225 -3.11196e-22)
(0.987594 0.0698106 3.65783e-21)
(-0.27488 0.0157206 -3.98312e-20)
(-0.249667 0.0180279 1.11677e-20)
(-0.264933 0.0154582 -3.40444e-20)
(1.01557 0.00991678 -7.8111e-22)
(1.01603 0.0101804 -2.08025e-22)
(1.01542 0.0102753 3.20234e-23)
(1.00505 0.0359819 0)
(1.00561 0.0369053 0)
(1.00619 0.0358869 0)
(0.554443 -0.0595647 9.62791e-21)
(0.567098 -0.0652612 -6.83127e-21)
(0.514883 -0.0487016 -5.26361e-21)
(0.970415 0.0871893 6.72578e-22)
(0.970502 0.0900883 7.91439e-21)
(0.96745 0.0878201 1.51213e-20)
(0.976556 0.0348825 4.44994e-21)
(0.9754 0.0338439 -3.28216e-21)
(0.975108 0.0354453 -3.07405e-22)
(0.138654 -0.024303 -4.42917e-21)
(0.169483 -0.0269973 4.37872e-20)
(0.155511 -0.0249046 2.2814e-20)
(1.04345 -0.00603811 -6.09165e-22)
(1.0428 -0.00523705 7.88805e-22)
(1.05319 -0.0213613 4.5345e-21)
(1.05343 -0.023066 3.39043e-21)
(0.999275 0.00425499 1.20819e-21)
(0.999364 0.00427229 1.21869e-21)
(0.999366 0.00403602 4.52229e-23)
(0.996364 0.000361581 3.07906e-21)
(0.996182 0.000493893 1.76383e-21)
(0.944192 0.00758175 6.75524e-21)
(0.942214 0.00779229 -8.98319e-21)
(0.943279 0.00569103 1.535e-21)
(0.0332448 0.222851 1.06713e-20)
(0.039649 0.219505 3.53137e-21)
(0.0479289 0.217174 6.31318e-21)
(0.994473 0.0245661 -1.52979e-21)
(0.993657 0.0247529 -3.09465e-21)
(0.994278 0.0256686 -9.35355e-21)
(1.0359 -0.00577035 1.16058e-21)
(1.03657 -0.00539244 -2.45817e-21)
(1.03656 -0.00612818 -2.9812e-21)
(1.05095 -0.0092154 -3.86321e-22)
(1.04995 -0.00939112 -3.41573e-21)
(1.05076 -0.0104638 -6.25934e-22)
(1.01513 0.00963433 -5.90132e-22)
(1.01567 0.00954604 5.57443e-22)
(1.00961 0.000506762 -8.01383e-23)
(1.00983 0.000571136 -2.80733e-22)
(1.0102 0.000689988 1.40099e-22)
(1.13378 0.126898 -1.16884e-21)
(1.13789 0.13117 -1.85617e-21)
(1.13963 0.125806 1.0495e-20)
(1.10352 0.0796117 7.20648e-21)
(1.1034 0.0833746 2.6139e-21)
(0.956648 -0.00217696 -7.92679e-21)
(0.954955 -0.00125038 4.34215e-23)
(1.19372 0.264271 3.67993e-20)
(1.18422 0.269291 -5.71172e-20)
(1.18575 0.257801 -4.72515e-20)
(0.946244 0.00793649 -4.43623e-21)
(0.944684 0.00993136 1.33092e-20)
(1.02252 0.000792311 -1.10296e-21)
(1.02241 0.00107884 5.29555e-22)
(1.02288 0.0010246 0)
(0.986825 0.00515009 2.60127e-21)
(0.98656 0.0058453 -5.29244e-21)
(0.940497 0.319378 -4.82986e-21)
(0.9496 0.327753 -4.43213e-22)
(0.952844 0.313691 -1.62957e-21)
(1.00451 0.0234705 1.33089e-21)
(1.00387 0.0232213 2.0469e-22)
(-0.0263268 0.000334581 4.17183e-20)
(-0.00868429 -0.00203569 2.28334e-20)
(-0.0295861 0.000373753 2.2371e-21)
(1.0149 -4.78527e-05 1.34044e-21)
(1.01508 -5.65413e-05 7.6721e-22)
(1.01405 0.000107917 1.49983e-21)
(1.20152 0.260347 4.21257e-20)
(1.2005 0.271525 5.25006e-20)
(1.14389 0.0738332 -1.18164e-20)
(1.1456 0.0712382 1.25351e-21)
(1.14779 0.0747835 -2.60814e-20)
(0.936169 0.0285483 0)
(0.934306 0.0267192 0)
(0.93714 0.0258043 -1.42823e-20)
(1.13597 0.0731941 -9.22898e-21)
(1.13375 0.0764932 0)
(1.13198 0.0728028 -3.07546e-20)
(1.01494 0.0112679 1.11308e-23)
(1.01536 0.0114818 2.74002e-22)
(1.01513 0.0109553 1.54101e-23)
(1.01961 0.00267374 7.70987e-22)
(1.01939 0.00245703 -2.82773e-21)
(1.01978 0.00246157 -1.11531e-21)
(1.01737 0.0217044 1.57735e-22)
(1.01745 0.0223459 -9.50617e-23)
(1.01676 0.0219258 -3.4253e-23)
(0.999989 0.000575586 1.22055e-21)
(0.999974 0.000561871 -1.64054e-21)
(0.999991 0.000354682 -3.80722e-23)
(0.268866 -0.0264839 -2.02034e-20)
(0.290035 -0.0282586 1.86969e-20)
(0.304902 -0.0302039 -6.96487e-21)
(1.00049 0.00616723 0)
(1.00059 0.00625087 7.17009e-22)
(1.00053 0.00601793 0)
(1.00183 0.000338316 -6.73679e-23)
(1.00196 0.000334998 4.19322e-22)
(1.00178 0.000195236 1.98142e-22)
(1.11007 -0.137956 9.39102e-21)
(1.11414 -0.137181 5.34408e-21)
(1.11244 -0.142067 -2.2542e-21)
(1.02555 0.0356157 -2.0088e-22)
(1.02674 0.0357863 3.69973e-22)
(0.113629 0.444724 0)
(0.0997975 0.490878 -5.29589e-20)
(0.146066 0.467668 0)
(1.2251 0.131005 -2.76375e-20)
(1.22216 0.125952 -3.25093e-20)
(1.21793 0.130929 1.54924e-20)
(1.01453 0.0110194 -1.02765e-22)
(1.01468 0.0116272 -1.91358e-23)
(1.14734 -0.0243885 0)
(1.14793 -0.0216369 0)
(1.1448 -0.0225021 0)
(1.01653 0.00906914 -5.82955e-23)
(1.01649 0.00948257 -4.23382e-22)
(1.01696 0.00938348 -1.30932e-21)
(1.01848 0.198293 1.53274e-21)
(1.01746 0.191405 -3.48735e-22)
(1.02406 0.19372 -5.48488e-23)
(-0.221407 -0.0115246 -4.74437e-20)
(-0.238833 -0.0083759 -9.07025e-20)
(1.0943 0.0775181 1.18782e-20)
(1.09716 0.0755681 3.68059e-21)
(0.0434916 0.20426 -1.11784e-20)
(0.0590896 0.194731 1.20333e-20)
(0.0388196 0.176682 -6.46421e-21)
(0.861407 0.056096 -1.10106e-20)
(0.85607 0.0591392 -8.97283e-21)
(0.856249 0.0512328 -9.09584e-21)
(0.996609 0.000585847 2.32008e-21)
(0.97781 0.0358923 -7.95649e-21)
(0.978001 0.0343483 1.13431e-20)
(1.15991 0.0993464 5.55217e-21)
(1.16233 0.0948581 -4.13646e-21)
(1.15763 0.0960467 1.50904e-20)
(1.00008 0.000512016 0)
(1.00006 0.000429272 3.9559e-22)
(1.00006 0.000406595 -4.70546e-24)
(1.22781 0.136514 -9.28875e-22)
(1.23175 0.129686 -1.10007e-20)
(1.01191 0.0113478 4.6155e-24)
(1.0115 0.0112091 -8.56284e-23)
(1.0117 0.011641 -1.6853e-22)
(1.1526 0.0292365 1.03128e-20)
(1.15628 0.0291219 -1.27905e-20)
(1.0042 0.00738977 -7.16566e-22)
(1.00434 0.00734346 -2.47623e-22)
(0.62431 -0.0526219 2.38404e-21)
(0.657383 -0.0530078 -1.63812e-20)
(0.599426 -0.0499089 5.35649e-22)
(1.05119 -0.00717704 3.44542e-21)
(1.05157 -0.00618301 6.88539e-21)
(1.05244 -0.00749612 -5.75648e-22)
(1.06321 -0.0282224 -3.66198e-21)
(1.06379 -0.0297575 -4.11467e-21)
(1.06493 -0.0285072 0)
(1.01684 0.0196049 -4.93576e-23)
(1.01663 0.0189525 -4.72951e-23)
(1.01618 0.0192919 -3.66935e-23)
(1.00366 0.00665813 -3.23643e-22)
(1.00366 0.00692851 -9.77754e-22)
(1.25386 0.34849 -2.78488e-20)
(1.26093 0.355605 -4.37543e-20)
(1.24853 0.36031 -5.6717e-20)
(0.970338 0.0837754 1.03798e-20)
(0.973707 0.0859444 0)
(1.065 0.180585 -5.16143e-22)
(1.06823 0.186101 -2.8496e-21)
(1.07072 0.179573 2.02317e-21)
(0.999206 0.00426692 3.12638e-21)
(0.999218 0.00447919 0)
(1.18515 0.0219504 -3.7328e-20)
(1.18372 0.0191281 1.03179e-20)
(0.147639 0.0394387 -7.48548e-21)
(0.18486 0.0352757 -6.85591e-21)
(0.180352 0.0265502 2.70592e-21)
(0.532575 -0.0488797 9.93591e-21)
(0.595611 -0.069614 9.18823e-21)
(0.0216042 0.227869 -1.14369e-20)
(0.0295489 0.226379 0)
(0.291462 -0.0258287 -3.03602e-20)
(0.255486 -0.021811 2.92694e-20)
(0.279757 -0.0244608 -8.06191e-21)
(1.21002 -0.0450054 9.51884e-21)
(1.20917 -0.046781 0)
(1.20777 -0.0448909 2.21773e-20)
(1.01473 -6.64749e-05 -3.88451e-22)
(1.0153 1.59706e-05 2.45406e-22)
(1.00006 0.00576694 0)
(0.999999 0.00559957 -1.29943e-21)
(1.00008 0.00554587 1.37133e-23)
(1.01862 0.000495404 -8.15803e-23)
(1.01891 0.000547364 -9.05218e-22)
(1.01872 0.000342189 1.73786e-21)
(-0.00876376 0.192162 -5.86616e-21)
(-0.00905851 0.19958 1.42671e-20)
(0.12309 -0.0230872 -4.40091e-21)
(0.11063 -0.0206564 -2.46572e-20)
(1.02542 0.0152952 2.72162e-21)
(1.02572 0.0147839 0)
(1.02612 0.0155302 -5.31573e-22)
(1.07331 -0.00245986 1.99832e-21)
(1.0738 -0.000996124 8.89701e-23)
(1.07514 -0.0028246 -5.45518e-21)
(0.248172 -0.0257632 -2.26492e-20)
(0.235243 -0.0244864 -8.05719e-21)
(-0.20408 0.0173931 0)
(-0.194281 0.0168823 -6.60837e-20)
(-0.179847 0.0216669 -4.86807e-20)
(0.000753724 0.253426 0)
(0.00303495 0.252013 3.07311e-20)
(-0.000341178 0.252132 1.07538e-20)
(-0.217907 0.0151128 -3.86703e-20)
(-0.228403 0.0139233 -6.81751e-21)
(-0.204312 0.0183519 1.17673e-19)
(1.09797 0.138858 2.08911e-20)
(1.10426 0.137713 -5.30127e-21)
(1.09892 0.133678 2.13558e-20)
(1.11049 -0.0468075 4.88934e-20)
(1.07995 -0.0483202 -1.00272e-20)
(1.14039 -0.0463518 -2.69142e-21)
(1.04284 -0.0103699 -3.72881e-22)
(1.04311 -0.00958716 -1.54936e-21)
(1.04381 -0.0104587 -5.43504e-21)
(1.17576 -0.0274561 6.49746e-21)
(1.17602 -0.0297966 5.54085e-21)
(1.1781 -0.0280805 3.95727e-20)
(-0.302327 -0.000955995 2.18669e-21)
(-0.305175 -0.0011382 4.33647e-20)
(-0.335206 0.00104158 4.83598e-20)
(1.13377 0.311143 -1.12964e-20)
(1.12742 0.303074 -7.72567e-21)
(1.13871 0.300014 -3.18385e-20)
(1.10312 0.0251822 2.01001e-20)
(1.1049 0.0265228 6.41913e-22)
(1.10535 0.0238671 1.01714e-20)
(0.491267 -0.28279 5.2582e-20)
(0.466901 -0.307952 9.73448e-21)
(0.998294 0.0237882 0)
(0.998902 0.0241712 -2.29596e-21)
(0.998298 0.0247171 -1.60882e-21)
(0.950503 0.018562 1.25371e-21)
(0.952532 0.0182321 8.30002e-21)
(0.951876 0.0204024 -1.05278e-20)
(0.999098 0.00352716 -4.21221e-22)
(0.999083 0.00371307 3.05716e-21)
(0.998978 0.00369292 -5.61928e-22)
(0.948918 0.0171085 -5.43113e-22)
(0.948375 0.0193296 1.13936e-21)
(0.277188 -0.0308026 1.23598e-21)
(0.244035 -0.0256987 -1.74273e-20)
(0.265654 -0.0285747 1.52547e-20)
(1.00292 0.000747424 -3.83337e-22)
(1.0031 0.000812434 -7.50258e-22)
(1.00295 0.00096701 -1.30932e-22)
(0.0738653 -0.279816 -1.98525e-20)
(0.0642473 -0.312554 4.52301e-20)
(0.0501125 -0.302915 -8.80639e-20)
(0.648406 -0.0559491 2.6595e-20)
(0.594576 -0.052018 9.76866e-21)
(0.0800896 0.33983 -5.97146e-21)
(0.0719437 0.367397 1.7226e-20)
(0.0522165 0.365006 1.3324e-19)
(1.0925 0.140466 -9.3759e-22)
(1.09779 0.1451 4.61186e-21)
(0.0638013 -0.00557445 2.13952e-20)
(0.0452482 -0.00501968 2.62187e-20)
(1.3481 0.0861808 -3.96679e-20)
(1.36263 0.0835101 6.86258e-21)
(1.35878 0.0919447 -2.56985e-20)
(1.05108 -0.0082528 -1.02516e-21)
(1.05016 -0.00710473 -9.21282e-21)
(1.15775 0.102018 -3.7996e-20)
(1.16204 0.101688 -9.68118e-21)
(1.02476 0.0150355 2.83448e-21)
(1.02509 0.0158089 5.2301e-22)
(1.12943 0.321027 -9.62404e-21)
(1.14076 0.318132 2.68011e-20)
(1.01722 0.0209255 8.6297e-23)
(1.01806 0.0213192 2.02034e-23)
(1.00001 0.00106232 0)
(1 0.00110602 0)
(0.999997 0.000827667 -2.0621e-21)
(1.39366 0.23891 -2.1966e-20)
(1.38438 0.240117 4.6997e-20)
(1.35734 0.218433 -3.50837e-20)
(1.0185 0.000689478 -6.79962e-22)
(1.01832 0.000431928 -2.14102e-22)
(1.01942 0.00285058 1.58077e-21)
(1.01982 0.0028526 2.95606e-21)
(1.18201 -0.0335062 1.74422e-21)
(1.19442 -0.0335651 -1.27092e-20)
(1.1344 -0.0352427 -4.65227e-21)
(1.13389 -0.00418053 -3.28655e-20)
(1.1317 -0.00558256 -9.3078e-22)
(1.13175 -0.00306634 -1.49078e-20)
(1.07308 -0.00425084 0)
(1.07163 -0.00242635 -4.37278e-21)
(0.914995 0.195466 3.46295e-21)
(0.913087 0.186978 -8.69029e-21)
(0.921342 0.189748 9.27289e-21)
(1.00001 0.00105501 0)
(0.999994 0.0013206 2.17748e-21)
(1.0225 0.0278772 0)
(1.02284 0.0273219 0)
(1.02349 0.0277619 0)
(1.02189 5.00546e-05 -4.21673e-22)
(1.02226 5.17946e-05 4.46673e-22)
(0.992625 0.0144202 0)
(0.991912 0.0144716 0)
(0.992188 0.0153782 0)
(1.16854 0.168532 5.07082e-21)
(1.162 0.171222 0)
(1.16279 0.164613 0)
(-0.000477086 0.250348 0)
(-0.00212558 0.253844 1.32978e-20)
(-0.0292479 0.233472 7.53567e-22)
(-0.0288597 0.233518 0)
(-0.0357672 0.230643 0)
(0.999668 0.0470738 -9.4393e-22)
(0.998444 0.0482361 5.506e-21)
(1.00051 0.0484868 8.66866e-21)
(0.998256 0.0230683 0)
(0.99768 0.0235676 4.17587e-21)
(0.392576 0.0283036 0)
(0.36539 0.029693 3.96719e-22)
(0.379762 0.0546189 0)
(0.975453 0.0322572 -2.64159e-21)
(0.975166 0.0307626 -8.01171e-21)
(0.976547 0.0314086 2.71811e-21)
(0.912023 0.00413063 1.08248e-20)
(0.909937 0.00702402 2.76521e-20)
(0.908249 0.0033512 9.20023e-21)
(0.116933 0.0821712 6.52705e-21)
(0.155996 0.0657174 2.21885e-20)
(0.108041 0.0663325 1.19213e-21)
(1.06199 0.00945816 3.22495e-21)
(1.06261 0.0084674 -8.04058e-21)
(1.06345 0.00983334 2.71507e-21)
(0.128425 0.0984504 -1.35851e-20)
(0.0887244 0.10094 -1.7362e-20)
(1.0435 0.00109962 0)
(1.04457 0.00104765 0)
(1.04382 0.00030689 -4.15395e-21)
(0.974226 0.0329212 7.65332e-21)
(1.13164 0.123845 -2.50494e-22)
(1.13015 0.127673 -9.02722e-21)
(0.133377 0.401409 0)
(0.0851452 0.399732 3.15969e-20)
(1.12397 -0.0877724 -8.50245e-22)
(1.12658 -0.0858742 7.84683e-21)
(1.12678 -0.0901359 -2.33899e-21)
(1.00004 0.000465644 -8.81865e-22)
(1.00004 0.000572253 -9.50972e-22)
(1.00001 0.000381691 -7.8872e-22)
(1.17419 -0.0335947 4.00451e-21)
(1.20578 -0.0322246 5.09774e-20)
(0.100355 0.32175 -5.75427e-23)
(0.071287 0.311887 -5.81252e-20)
(1.00004 0.000543254 -2.71992e-21)
(1.00004 0.000389628 7.49185e-22)
(1.15331 -0.0193444 -3.44886e-20)
(1.15075 -0.0208418 -2.97572e-20)
(1.15361 -0.0221365 6.08402e-21)
(1.01443 0.102015 -1.26345e-22)
(1.01156 0.103384 -2.02475e-21)
(1.01523 0.105103 -5.6746e-22)
(1.05191 0.0628974 0)
(1.05295 0.060719 4.61653e-21)
(1.0504 0.0610297 -2.20832e-21)
(0.91119 0.093463 2.43822e-21)
(0.906132 0.09408 6.63107e-21)
(0.910597 0.0986814 1.71495e-20)
(1.07291 -0.00569588 0)
(1.0746 -0.0058226 0)
(1.17809 -0.140338 1.76035e-20)
(1.17466 -0.142932 -1.00831e-20)
(1.17514 -0.137904 -4.02991e-20)
(0.49966 0.714107 5.94859e-21)
(0.525634 0.671987 -1.3573e-20)
(0.469317 0.66241 -3.11305e-20)
(0.14091 0.0526153 4.72426e-20)
(0.193391 0.0581492 -3.56307e-21)
(0.254635 0.0683012 1.83609e-20)
(1.12431 0.0878046 -4.95088e-21)
(1.12757 0.0847462 1.53544e-20)
(1.12257 0.0838741 1.33504e-20)
(1.21849 0.00670886 0)
(1.22124 0.00761363 2.34132e-20)
(1.21842 0.00923529 0)
(1.01366 0.011056 -2.6899e-23)
(1.01407 0.0109826 -7.84192e-23)
(1.01397 0.0114199 -1.26424e-22)
(-0.0901108 0.225737 1.499e-20)
(-0.0867144 0.223931 1.29666e-20)
(-0.0909589 0.227642 5.80907e-21)
(0.103809 -0.022403 8.09844e-21)
(0.0841591 -0.0204974 4.43097e-21)
(0.0768397 -0.0182305 2.84259e-20)
(1.02126 0.00113565 3.15671e-22)
(1.02081 0.0012251 1.17871e-21)
(1.02085 0.000892605 -1.77028e-22)
(1.02163 0.00114854 -1.92578e-22)
(1.02204 0.00110232 7.25213e-22)
(1.02163 0.000821719 1.6545e-21)
(0.991648 0.0686575 -2.95359e-21)
(0.992595 0.0708925 7.39052e-22)
(0.100969 -0.00449638 0)
(0.082435 -0.00194047 0)
(0.0784968 -0.00188183 -1.62344e-20)
(1.08626 -0.0886332 -5.00149e-21)
(1.08911 -0.0867146 -1.88626e-21)
(1.08595 -0.0849219 -5.02338e-21)
(1.00034 0.00562834 1.42358e-21)
(1.00042 0.00566258 -2.32594e-21)
(1.00039 0.00587543 -1.86493e-21)
(1.38858 0.225257 4.59041e-20)
(1.37459 0.234441 -5.00667e-20)
(0.270952 0.147258 2.81495e-20)
(0.550202 0.265683 -4.16782e-20)
(0.400426 0.190462 -6.10162e-20)
(0.656033 -0.110209 -2.26138e-20)
(0.67096 -0.118542 2.35531e-20)
(0.672199 -0.101665 -4.51972e-22)
(1.21653 0.00556173 -3.55566e-20)
(1.21905 0.00420017 6.35596e-21)
(1.08582 0.00616596 0)
(1.08604 0.00796204 -1.16179e-20)
(1.08792 0.00617283 0)
(1.00534 0.00657253 1.06852e-21)
(1.00559 0.00675335 -4.67313e-22)
(1.00549 0.00642628 1.61966e-21)
(1.19517 -0.115601 -2.64572e-21)
(1.19458 -0.11276 6.19719e-21)
(1.19762 -0.11263 6.06094e-21)
(0.0943328 -0.00261307 -2.29431e-21)
(0.107997 -0.0038401 -8.90893e-21)
(0.119474 -0.00660944 1.17143e-20)
(0.231868 -0.0254739 -1.09772e-22)
(0.253263 -0.0253351 -1.03748e-20)
(0.269073 -0.0270661 0)
(1.20313 -0.0406266 6.71484e-20)
(1.20163 -0.0424511 4.51676e-20)
(1.20063 -0.0404151 3.03648e-21)
(0.93884 0.00537731 -7.63055e-21)
(0.939952 0.00779576 -9.33286e-21)
(0.936719 0.00770048 2.60043e-20)
(-0.282477 0.0144125 5.07143e-20)
(-0.293858 0.0132537 0)
(1.10729 -0.134488 -9.47825e-22)
(1.00479 0.0242273 1.15222e-21)
(1.00433 0.0246281 -1.97347e-21)
(1.00502 0.0248995 0)
(1.07266 -0.00722849 0)
(1.07139 -0.00561688 0)
(1.07349 -0.0533872 -1.35523e-20)
(1.0162 -0.0547817 -1.15122e-20)
(1.03735 -0.0547001 1.46683e-20)
(0.899627 0.216837 2.93634e-21)
(0.8981 0.207428 2.82612e-21)
(0.888646 0.212594 1.88054e-20)
(0.978086 0.0372291 -9.46892e-21)
(0.976829 0.038409 8.24007e-21)
(0.978777 0.038917 -2.75503e-22)
(1.27053 -0.0177996 1.12382e-20)
(1.25583 -0.0228247 -1.65009e-20)
(1.27238 -0.0170269 -1.36221e-20)
(1.08594 0.00406267 -3.46148e-21)
(1.08395 0.00583128 6.07872e-21)
(1.11386 -0.00879142 3.72867e-21)
(1.11423 -0.00653901 -9.63344e-21)
(1.11631 -0.00867829 -2.51343e-21)
(1.02157 0.0014143 -9.25757e-22)
(1.05443 0.0161857 -8.8412e-21)
(1.05387 0.0151195 -4.14083e-21)
(1.05525 0.0153697 3.65542e-21)
(0.944446 0.0458767 -1.79135e-21)
(0.941509 0.0454239 -1.02493e-20)
(0.9431 0.0487606 -2.62598e-21)
(0.187502 0.0930283 -2.92693e-21)
(0.118488 0.0694545 0)
(0.068731 0.056377 0)
(0.213242 -0.0224103 -4.08735e-20)
(0.201455 -0.0208694 1.19731e-20)
(-0.242096 0.00230539 -5.87377e-20)
(-0.264004 -0.00123848 5.988e-20)
(-0.239982 0.000754227 2.37084e-20)
(0.999286 0.117867 0)
(0.99675 0.114665 0)
(1.00112 0.113089 -9.44026e-22)
(0.105006 -0.2698 7.90037e-20)
(0.0815531 -0.243726 1.14718e-20)
(-0.0665049 -0.00593646 3.30891e-20)
(-0.0914424 -0.00487061 6.80589e-20)
(-0.105127 -0.00397894 9.63805e-21)
(-0.0380126 -0.0254241 -2.9245e-20)
(-0.0554745 -0.0274812 -4.86108e-20)
(-0.070715 -0.0261076 7.95079e-21)
(1.11355 -0.0115261 2.27097e-21)
(1.11134 -0.00941097 2.14154e-20)
(1.02184 0.0284558 -4.28438e-22)
(1.02243 0.0290966 0)
(1.04269 0.000983741 0)
(1.04323 0.00179736 1.12395e-21)
(0.515058 -0.0407013 -1.71884e-20)
(0.500004 -0.0312136 -1.25433e-20)
(0.55494 -0.0516766 -2.32436e-20)
(0.999066 0.0457452 -3.74388e-21)
(1.00083 0.0462692 -3.56523e-21)
(1.01339 0.0106 -2.88592e-23)
(1.01322 0.0109998 2.84504e-23)
(1.25868 0.337236 1.6896e-20)
(1.24882 0.34216 3.40099e-20)
(0.986698 -0.163674 1.52151e-20)
(1.02317 -0.169439 5.46623e-21)
(1.04066 -0.176562 -1.45136e-22)
(0.47852 -0.0305174 4.75332e-21)
(0.999185 0.00336329 -2.97718e-21)
(0.99911 0.00337576 -2.80551e-21)
(1.06058 0.00904482 8.96596e-21)
(1.06117 0.0106189 -5.41661e-21)
(1.29168 0.237148 -2.64977e-20)
(1.28517 0.2356 -2.2918e-20)
(1.2918 0.227295 -7.24828e-20)
(0.993456 0.0157689 -7.20373e-21)
(0.994038 0.015832 1.62329e-21)
(0.993726 0.0165941 -1.18904e-21)
(1.06251 0.174073 2.04956e-21)
(1.05855 0.18056 -1.0413e-22)
(1.02348 0.0266795 0)
(1.02229 0.0265437 3.85485e-22)
(0.0573557 0.047413 -3.85043e-20)
(0.103902 0.0525753 0)
(0.986356 0.0368187 -1.58467e-21)
(0.985571 0.0356261 3.18833e-21)
(0.984897 0.0371093 1.65612e-21)
(-0.11568 0.00929655 -5.9433e-20)
(-0.132399 0.0068872 -1.20049e-19)
(-0.147407 0.00705627 -2.00673e-20)
(0.109647 0.00130423 -7.33012e-21)
(0.136738 -0.00212166 -2.19392e-20)
(0.123811 0.00195057 -1.60741e-20)
(0.557201 0.00393994 4.03674e-20)
(0.537094 0.00127427 -4.34677e-20)
(0.547725 0.0219391 -4.9491e-20)
(1.02109 0.0291852 -4.25406e-22)
(1.02101 0.0279232 3.29608e-22)
(0.999995 0.000571101 -1.78022e-21)
(0.999967 0.00078094 7.85911e-23)
(1.06259 -0.0267392 -5.63887e-21)
(1.06152 -0.0278364 -3.49177e-22)
(1.03209 0.08923 1.02867e-21)
(1.03264 0.0921031 -2.52732e-21)
(1.03537 0.0899202 -2.37359e-21)
(-0.0958125 0.0103535 -2.60876e-20)
(-0.0753395 0.00896502 3.46266e-21)
(1.01637 0.0554782 -7.88472e-22)
(1.01583 0.0570373 1.08604e-21)
(1.01789 0.0567208 6.17678e-22)
(0.999449 0.00467366 1.35074e-21)
(0.99953 0.00466297 -1.54832e-21)
(0.999512 0.00445305 0)
(1.00028 0.00564221 1.32999e-22)
(1.00031 0.00544277 5.55073e-21)
(1.16054 0.312688 -2.16838e-20)
(1.16698 0.320451 3.68843e-21)
(1.17173 0.309434 5.98542e-22)
(1.2356 -0.0603793 -3.35155e-22)
(1.2387 -0.0630463 -2.39728e-20)
(1.22784 -0.0635192 -5.33557e-21)
(-0.241422 0.00633097 -7.83923e-20)
(1.10116 0.0231316 1.72895e-20)
(1.10047 0.0257729 3.6301e-22)
(1.22403 0.0112977 5.58502e-20)
(1.22437 0.0151401 2.993e-20)
(1.22116 0.0140552 7.17734e-21)
(1.03692 -0.00736772 -1.38564e-21)
(1.03656 -0.00664169 0)
(1.01273 0.0116249 9.61518e-24)
(1.01298 0.0113238 7.50665e-23)
(1.01324 0.0117735 8.99446e-24)
(0.981847 0.0374126 -6.06815e-22)
(0.982691 0.0358771 2.86114e-21)
(0.983394 0.0372997 5.24935e-21)
(0.0963993 0.00248421 -6.07236e-21)
(0.0775068 0.00454868 3.08818e-21)
(1.35494 0.0680259 3.08917e-22)
(1.33915 0.0620557 -5.01604e-20)
(1.32143 0.0667255 -3.341e-20)
(0.0601479 -0.0827907 1.10805e-19)
(0.0800107 -0.10256 1.01328e-19)
(0.0596783 -0.114644 -5.59052e-20)
(1.12117 -0.0899892 -2.18323e-22)
(1.12079 -0.0856453 -1.75684e-21)
(1.0143 0.0986436 -8.42381e-22)
(1.01801 0.100565 9.58017e-22)
(1.05476 0.017182 6.28488e-22)
(1.05331 0.0168299 -6.56614e-21)
(0.230728 0.787647 0)
(0.180208 0.869529 0)
(0.296221 0.855911 1.50578e-20)
(1.08604 0.00233755 -3.32014e-21)
(1.08798 0.00254316 1.02889e-21)
(-0.0175847 -0.0265793 2.32711e-20)
(0.00428168 -0.0293618 4.74776e-22)
(0.991 0.0354292 -3.15344e-21)
(0.990184 0.0361806 3.21037e-21)
(0.9914 0.0366533 -3.67089e-21)
(-0.227748 0.0146281 5.99275e-22)
(-0.243226 0.0142581 2.81483e-20)
(-0.213617 0.0160393 2.78083e-20)
(0.878875 -0.148371 1.20177e-20)
(0.859971 -0.144684 1.05919e-20)
(0.920953 -0.163719 6.99331e-21)
(1.15256 -0.0162827 1.18795e-20)
(1.15533 -0.0177429 4.90815e-21)
(1.00017 0.0289635 -1.28079e-21)
(0.999472 0.0293349 -1.90942e-21)
(0.999543 0.0283732 -6.00553e-21)
(1.00605 0.00048055 -8.13152e-23)
(1.00634 0.000486492 -7.55044e-23)
(1.00559 0.000255486 -4.47908e-22)
(1.09151 0.0794534 7.54104e-21)
(1.09151 0.0758686 2.5439e-20)
(1.16647 0.093807 1.4947e-21)
(1.17056 0.0923945 2.05945e-20)
(1.17024 0.0969495 -6.13197e-21)
(0.277136 0.116749 -3.1217e-20)
(0.358527 0.132978 -2.93901e-20)
(1.13595 -0.00534356 1.40741e-20)
(1.13598 -0.00273171 -1.58278e-20)
(1.00839 0.00636529 4.91578e-23)
(1.00823 0.00655155 -3.07944e-23)
(1.00861 0.00670653 -4.58082e-23)
(1.01311 0.0102308 -1.84399e-23)
(1.0127 0.0101541 4.97353e-23)
(1.01287 0.00985089 -1.85941e-23)
(0.999979 0.000760721 3.0846e-21)
(0.999986 0.000613379 1.2367e-21)
(0.999971 0.000886057 0)
(1.22386 0.00849253 4.43094e-20)
(1.22398 0.00569685 1.12138e-20)
(1.09454 0.25938 -1.08e-21)
(1.09647 0.26558 -1.26919e-20)
(1.08797 0.262974 1.2827e-22)
(0.596337 -0.0285411 3.83233e-20)
(0.576248 -0.0334929 -3.6045e-20)
(0.590303 -0.0489247 3.35928e-20)
(0.983109 0.053029 3.81451e-21)
(0.983279 0.055076 1.2772e-21)
(0.985088 0.0536866 8.51264e-21)
(0.13076 0.153024 1.42083e-21)
(0.125117 0.144506 9.49461e-21)
(0.114554 0.162897 -1.79922e-20)
(1.20441 -0.0395086 -1.27433e-20)
(1.20478 -0.0416215 1.30963e-20)
(1.17529 -0.0250759 -3.06509e-20)
(1.17334 -0.0271015 -1.95227e-20)
(1.03854 0.0284408 1.44597e-21)
(1.03842 0.0273602 -3.65259e-21)
(1.03967 0.0279376 -7.88828e-21)
(1.27162 -0.0173525 -3.47019e-20)
(1.27286 -0.015471 2.88709e-20)
(1.01703 0.0202849 -2.2656e-23)
(1.01754 0.0199303 0)
(0.996182 0.00968204 1.77248e-22)
(0.995835 0.00985464 2.58911e-21)
(0.996181 0.0101613 2.15482e-21)
(1.0534 0.842941 -4.21782e-20)
(1.05117 0.798004 0)
(1.10216 0.817552 4.78061e-20)
(1.0087 0.000659071 1.10547e-22)
(1.00899 0.000835106 5.75554e-24)
(1.00876 0.000522407 5.06901e-23)
(1.00433 0.00772907 -3.22478e-22)
(1.0041 0.00750946 5.53886e-22)
(1.17811 -0.0206724 3.23021e-20)
(1.17638 -0.0224612 -2.33008e-20)
(1.1789 -0.0241188 1.50002e-20)
(1.00337 0.0160979 6.23914e-22)
(1.00318 0.0164886 5.77208e-22)
(1.00364 0.0166791 -2.30531e-21)
(-0.0312474 0.206717 5.67693e-21)
(-0.0229156 0.211648 -6.04791e-21)
(-0.0225944 0.20179 7.32582e-21)
(1.08615 0.000515461 1.73352e-21)
(1.08437 0.0020265 0)
(0.928295 0.0177761 1.68178e-20)
(0.925658 0.0193068 3.98552e-21)
(0.926155 0.0157992 1.97172e-20)
(1.00835 0.000438243 3.38732e-22)
(1.00852 0.000881376 1.60319e-22)
(1.12169 0.0900017 -1.71971e-20)
(1.12617 0.0906177 -4.37211e-21)
(-0.232675 -0.00756837 6.15918e-20)
(-0.258123 -0.00532958 2.78934e-21)
(-0.250578 -0.00611002 -5.13042e-22)
(1.05203 -0.00931397 -6.06458e-21)
(1.01465 0.0045024 0)
(1.01459 0.0047937 0)
(0.989562 7.16175e-05 0)
(0.989052 0.000379342 -5.0144e-21)
(0.989661 0.000587349 4.26422e-21)
(1.18216 -0.0505902 -3.38334e-21)
(1.1813 -0.0481202 -2.20912e-20)
(1.17941 -0.0504377 -3.82144e-20)
(0.159028 -0.0164674 -3.86196e-21)
(0.156944 -0.016986 1.66578e-21)
(0.133754 -0.0132596 2.03598e-20)
(1 0.000693376 3.96269e-22)
(0.999982 0.00100442 2.99716e-21)
(1.00002 6.19262e-05 2.67021e-22)
(1.00001 3.77586e-05 2.68502e-22)
(1.00002 4.42367e-05 -1.20687e-22)
(0.953054 -0.159552 -1.99234e-20)
(0.937663 -0.154997 3.39804e-21)
(1.10884 0.137083 -3.57543e-20)
(1.11057 0.132794 -1.27368e-20)
(1.11368 0.136932 -1.78608e-20)
(1.11954 -0.0930011 2.07536e-21)
(1.11751 -0.0962755 0)
(1.12183 -0.0952457 -1.35184e-20)
(0.635998 0.389394 -1.46892e-20)
(0.655155 0.409486 3.11388e-20)
(0.622613 0.414171 0)
(0.996195 0.00920266 -6.70386e-22)
(0.996503 0.00951444 -1.90441e-21)
(1.16348 0.0907982 1.71569e-20)
(0.963892 0.0287418 -7.85371e-21)
(0.965516 0.0296849 -1.72095e-21)
(0.963744 0.0310552 2.01122e-20)
(1.00002 8.4453e-05 0)
(1.00004 8.81612e-05 -1.5548e-21)
(0.652129 0.365221 -1.56481e-20)
(0.621602 0.365637 1.61558e-21)
(1.18117 -0.138836 4.74554e-20)
(1.1803 -0.14407 2.15731e-20)
(1.17998 -0.201981 4.34786e-20)
(1.17806 -0.195252 1.50166e-20)
(1.1693 -0.198858 1.21427e-21)
(1.18309 -0.0524136 1.86366e-20)
(1.18481 -0.0502801 1.10146e-20)
(1.01841 0.000882062 -3.20449e-22)
(1.01871 0.00091691 -1.39218e-21)
(0.644224 -0.0979807 -2.98011e-20)
(0.64122 -0.115322 7.46952e-20)
(1.04193 -0.0104153 2.44703e-21)
(1.04116 -0.0097699 0)
(1.00382 0.035922 0)
(1.00457 0.0349547 -1.05973e-21)
(1.36277 0.0789562 4.19452e-20)
(1.35807 0.0736506 3.89362e-20)
(1.00091 0.0220949 0)
(1.00035 0.0218007 0)
(1.00082 0.0212764 0)
(1.22697 0.00929352 -6.56109e-21)
(0.932186 0.3083 -8.28418e-21)
(0.92588 0.321966 5.21471e-21)
(1.00012 0.0059204 1.46253e-21)
(1.00002 0.00597811 -1.46525e-21)
(1.01683 0.0031778 -4.31105e-22)
(1.01677 0.00296346 -4.42759e-22)
(1.01707 0.0030772 1.05443e-21)
(1.22471 0.0178505 -1.44342e-20)
(1.22701 0.0151871 0)
(0.0232851 0.0702636 -1.49348e-20)
(0.0137992 0.0557995 -1.10964e-20)
(0.0261111 0.0422009 -1.30329e-20)
(-0.0396153 -0.00814158 -5.68386e-20)
(-0.0217064 -0.00510948 -1.24415e-19)
(1.01943 0.0398442 -9.01832e-23)
(1.01871 0.0408521 1.78274e-23)
(1.01834 0.0394879 -2.20612e-24)
(0.916793 0.0928261 -1.33671e-20)
(0.912859 0.0881314 -9.12027e-21)
(-0.0286008 -0.000495896 1.82423e-20)
(-0.05328 0.00194926 -1.47013e-22)
(1.02933 0.000954377 -1.85364e-21)
(1.02974 0.00130386 -1.59763e-21)
(1.02911 0.00136502 7.80627e-22)
(1.23532 -0.0596134 0)
(1.23289 -0.057014 -1.20525e-20)
(1.05786 -0.0309023 -2.14953e-21)
(1.05919 -0.0299578 5.65022e-21)
(1.05746 -0.0294759 6.35064e-21)
(0.966235 0.147603 -1.53634e-21)
(0.960342 0.146437 0)
(0.9643 0.141828 -5.52335e-21)
(1.23264 -0.0563041 -4.71275e-20)
(1.22914 -0.059436 0)
(1.01827 0.00105933 -4.9838e-22)
(1.01811 0.000828791 -1.62941e-22)
(0.527101 0.769473 1.41275e-20)
(0.455613 0.758203 -5.67787e-21)
(1.00244 0.0344677 1.44482e-21)
(1.00313 0.0337385 -2.59225e-21)
(1.00216 0.033403 -2.56002e-21)
(0.906848 0.201876 -2.61296e-20)
(0.916533 0.204782 -1.36584e-20)
(1.00121 0.000319424 2.56577e-21)
(1.0011 0.000256992 1.12508e-21)
(1.0011 0.000405957 1.27057e-21)
(1.11726 -0.0909972 1.29001e-20)
(-0.24236 0.000372976 -4.67512e-21)
(-0.264753 0.000704178 -9.08574e-20)
(-0.243419 0.000175617 -4.60685e-21)
(0.99996 0.00010873 0)
(0.999952 0.000100655 -3.97326e-21)
(0.99993 0.00017434 -6.10267e-21)
(0.0798304 0.0944719 -1.72335e-20)
(0.165585 0.119635 7.00871e-20)
(1.11387 0.0269068 4.25844e-21)
(1.11459 0.0245335 2.92887e-20)
(1.11685 0.0267328 -6.63081e-21)
(0.995359 0.00296927 5.58709e-21)
(0.995061 0.00289399 2.84205e-24)
(0.995165 0.00324911 0)
(1.14005 0.0732802 1.13063e-20)
(1.14185 0.0771844 2.80295e-20)
(1.14926 -0.0261244 -1.43924e-20)
(1.14616 -0.0269674 0)
(1.05662 -0.0465263 -2.48964e-20)
(1.03209 -0.0469288 1.22733e-20)
(1.10462 -0.0456077 1.20081e-20)
(0.289594 -0.0313662 -9.79087e-21)
(0.312275 -0.0327005 9.90688e-21)
(0.33003 -0.033807 2.12285e-20)
(1.11067 -0.0516417 0)
(1.13126 -0.0532496 0)
(0.991833 0.0348655 4.82628e-21)
(0.990722 0.0343849 1.80408e-21)
(1.01657 0.00884916 2.29779e-22)
(1.0162 0.00891155 6.75449e-22)
(0.115566 -0.0328887 -1.24398e-20)
(0.085651 -0.0272368 8.90603e-21)
(0.0979227 -0.0324233 1.20086e-20)
(0.704271 -0.0657731 2.1737e-20)
(0.690619 -0.0672949 -1.00129e-20)
(0.701387 -0.0792801 -4.47906e-20)
(0.999787 0.00553095 2.64703e-21)
(0.999832 0.00531696 1.45348e-21)
(0.999757 0.0053525 5.611e-21)
(1.01382 0.0533997 -3.53984e-23)
(1.01411 0.0520385 0)
(1.01242 0.0523051 0)
(1.18921 -0.203351 -5.97495e-21)