/*--------------------------------*- C++ -*----------------------------------*\
| =========                 |                                                 |
| \\      /  F ield         | OpenFOAM: The Open Source CFD Toolbox           |
|  \\    /   O peration     | Version:  v2012                                 |
|   \\  /    A nd           | Website:  www.openfoam.com                      |
|    \\/     M anipulation  |                                                 |
\*---------------------------------------------------------------------------*/
FoamFile
{
    version     2.0;
    format      ascii;
    class       volVectorField;
    location    "300";
    object      U;
}
// * * * * * * * * * * * * * * * * * * * * * * * * * * * * * * * * * * * * * //

dimensions      [0 1 -1 0 0 0 0];


internalField   nonuniform List<vector> 
10042
(
(1.04926 -0.00191534 -1.66401e-21)
(0.892847 0.264619 9.94565e-21)
(0.990581 0.0644467 0)
(1.01725 0.00156869 3.21499e-21)
(1.01298 0.000577604 -1.28968e-22)
(1.05229 -0.0614692 9.45049e-21)
(0.685515 -0.0645193 9.09011e-21)
(0.860271 0.0368422 0)
(1.01219 0.000124225 8.59536e-24)
(1.08363 -0.0276438 1.60028e-21)
(1.00179 0.0823447 3.27206e-22)
(0.891891 0.260468 -2.10855e-20)
(1.01093 0.0198725 8.011e-21)
(1.01059 -0.00290589 0)
(1.02731 0.000602793 8.47998e-21)
(1.01093 -0.00352105 0)
(1.0297 0.0522342 -1.55134e-20)
(1.01167 0.088249 0)
(1.03329 0.00855359 -3.45105e-21)
(1.03473 0.0307993 0)
(1.00931 0.0161189 -3.46671e-22)
(1.04949 0.00514261 0)
(1.01706 0.00153016 -1.70269e-21)
(0.923909 -0.267345 1.45981e-20)
(1.0145 0.00302856 -3.18118e-22)
(1.00999 -0.000166146 -4.06272e-22)
(1.0815 -0.0218285 0)
(1.01189 -0.00013757 -2.76156e-21)
(1.0436 -0.0439631 -5.49366e-21)
(0.903297 -0.252073 -5.54679e-21)
(1.00916 0.000178079 -1.23728e-21)
(1.03534 0.0574013 -2.78894e-20)
(1.01212 -7.90935e-06 0)
(1.01207 -2.64012e-05 -3.46989e-24)
(0.848168 0.0714562 0)
(0.899284 0.140914 -1.62102e-20)
(1.0181 0.000402139 0)
(1.0125 -2.08767e-05 0)
(1.01067 0.000329478 0)
(1.02761 -0.0113265 0)
(0.902814 -0.261998 2.68264e-20)
(1.01212 9.4289e-05 1.61688e-21)
(0.896406 0.0716453 0)
(0.946667 0.205063 0)
(1.01632 0.00280885 3.74343e-23)
(1.01446 0.00304109 0)
(1.01276 -0.000787588 2.89597e-21)
(1.02683 0.000570668 -5.69452e-21)
(1.02085 -0.0613562 0)
(0.687708 0.114154 -2.6927e-21)
(0.883429 0.0662034 6.37307e-23)
(1.01487 0.00132779 -1.55477e-22)
(1.04917 0.0237341 6.98172e-21)
(1.03305 0.00769432 0)
(0.798281 -0.266532 -2.86857e-21)
(0.249738 0.314773 -3.37341e-20)
(1.01221 0.0134518 1.25147e-20)
(1.01494 0.0487936 0)
(1.02708 0.00348723 4.02158e-21)
(1.01679 -0.00131671 1.21451e-22)
(1.03043 -0.0628294 -6.98167e-21)
(0.800667 -0.265516 -4.90338e-21)
(0.914122 0.0650185 0)
(0.831357 -0.0158876 0)
(0.968058 0.0306471 7.27138e-22)
(1.0132 0.000991565 1.47772e-21)
(1.02905 0.0300763 0)
(1.03408 -0.0376783 0)
(1.01301 -0.00102195 1.09508e-21)
(1.03956 -0.0302009 1.44919e-22)
(0.858743 0.0779452 1.15901e-21)
(1.03144 0.0109382 8.77997e-22)
(1.01475 -0.000763534 0)
(1.02676 0.00327225 -1.89729e-21)
(1.01358 0.00107261 0)
(0.869985 0.0840893 -1.04678e-21)
(1.01077 0.0449958 -5.90693e-22)
(1.01282 -0.000842516 -2.78011e-21)
(1.01518 0.0479325 -1.25544e-21)
(1.03427 0.00898435 1.17366e-20)
(0.950261 0.219614 -1.26771e-21)
(0.921066 -0.27012 -1.7138e-20)
(1.006 0.00013253 -1.38418e-22)
(1.01356 0.00101224 2.01459e-22)
(1.07124 0.0165553 0)
(0.994494 -0.123307 0)
(1.02733 0.0281738 -2.57779e-22)
(0.984189 0.0610481 -4.15105e-21)
(1.01548 0.00240868 -1.05759e-22)
(0.992914 0.0381973 1.34933e-21)
(1.02373 0.0155481 0)
(1.02764 0.000305228 -3.53484e-21)
(0.915564 0.054589 0)
(0.960841 -0.129819 1.34611e-21)
(0.958716 0.00611058 -3.51019e-21)
(1.02025 0.00603638 2.12173e-21)
(0.169164 0.285558 9.75896e-20)
(1.03225 0.029078 2.73415e-22)
(0.925922 0.212376 -2.26201e-21)
(1.02658 0.00292147 -8.227e-21)
(1.02477 0.0140392 -1.25852e-20)
(1.11723 -0.0563883 0)
(1.0269 0.0072802 0)
(1.04064 0.0449456 -3.68411e-20)
(1.0291 0.00810973 0)
(1.02519 0.00583841 0)
(0.560728 0.0693513 -2.0218e-20)
(1.01355 0.00180739 -5.63191e-22)
(0.666339 -0.0830024 0)
(1.02579 0.00584784 0)
(1.02619 0.00362437 -2.6619e-21)
(0.744199 -0.100593 -9.56366e-21)
(1.11543 -0.0449671 0)
(0.829658 0.0128233 0)
(0.972109 0.0238769 0)
(1.0133 -0.00125626 -1.66083e-23)
(1.03179 -0.0413091 -1.34694e-21)
(1.00993 0.00026129 -8.51232e-22)
(1.01342 0.0421349 -9.11895e-22)
(1.01349 -0.00149357 1.24516e-21)
(1.01677 -0.00149696 -1.45188e-22)
(0.8712 0.254779 1.77315e-20)
(0.868841 0.246659 -1.20489e-20)
(1.01648 0.00302702 8.63715e-22)
(0.996753 0.0426527 -1.72049e-21)
(1.01632 0.00276981 1.52299e-21)
(1.01682 0.00275089 -7.714e-22)
(0.813416 -0.250705 -2.81855e-21)
(0.954186 0.138272 3.11769e-20)
(1.03731 -0.0410341 0)
(1.01293 0.000431313 0)
(1.01462 0.0011936 -7.14707e-22)
(1.01804 0.00453283 0)
(1.01374 0.00348004 -4.45573e-22)
(0.738392 -0.116248 2.04421e-20)
(0.830411 0.0260922 -8.78997e-21)
(1.01978 0.0310513 0)
(0.910327 -0.226734 -6.62001e-20)
(1.03074 0.00419009 -1.10393e-20)
(0.936558 0.199438 -1.23428e-21)
(0.954821 0.0393642 5.30434e-21)
(1.01152 7.64347e-05 1.62994e-21)
(0.584304 0.0251352 1.3022e-20)
(1.01186 -9.07568e-05 2.83314e-21)
(1.03301 -0.00348475 8.91346e-22)
(1.01269 1.36807e-05 4.8099e-22)
(1.06658 0.0162513 -2.34394e-22)
(1.01305 -0.00105189 -6.78837e-22)
(1.02667 0.0140167 0)
(0.951496 -0.245104 4.47896e-21)
(1.01389 0.00182893 6.70836e-22)
(1.01038 4.90964e-05 -4.0978e-22)
(1.03078 0.0045748 -1.33923e-20)
(1.00329 0.0268664 1.35808e-21)
(0.965735 0.00151284 3.46384e-21)
(1.03401 -0.00440644 -7.07092e-22)
(0.953895 0.127295 -2.66677e-20)
(0.2477 0.289995 9.70432e-22)
(1.0186 0.00404836 -8.90348e-22)
(1.00809 -0.000283291 1.12204e-21)
(1.01219 0.000408762 -2.08991e-22)
(1.02982 -0.011629 -2.45751e-23)
(0.809773 0.0151308 -9.32947e-21)
(1.01592 0.00242969 -1.65847e-21)
(1.03028 0.00365724 -1.60344e-21)
(0.958683 -0.245133 -4.84221e-21)
(1.01486 -0.000568493 3.01759e-21)
(1.0369 0.0483485 2.17162e-20)
(0.880659 0.118917 2.24768e-20)
(1.01201 -9.9854e-05 0)
(0.958626 -0.0203319 3.2891e-21)
(0.891454 -0.232858 -1.25919e-20)
(0.83836 0.22724 1.25064e-20)
(1.01207 -0.00010044 -1.74875e-21)
(1.03237 0.007292 0)
(0.851825 0.235675 -1.55989e-20)
(1.01515 0.00358253 0)
(1.01265 7.39435e-05 -2.03718e-21)
(1.01463 0.0013547 6.38587e-22)
(1.01293 -0.000965781 9.63741e-22)
(1.03055 0.0039861 6.98626e-21)
(1.02797 0.00480385 -5.69327e-21)
(1.02689 0.00308816 6.8134e-21)
(1.01336 -0.00129474 -2.92336e-22)
(1.02278 -0.0782381 4.95608e-22)
(1.03072 0.0225972 0)
(1.03211 0.0100182 0)
(1.01656 -0.00106417 1.02939e-22)
(0.743267 0.142368 2.15402e-21)
(1.01047 0.00011718 -7.87954e-22)
(0.897286 0.25858 -1.64381e-20)
(1.01167 0.00986677 7.3406e-21)
(1.01315 0.000474337 0)
(1.0287 0.00500365 1.46902e-20)
(0.824586 -0.231361 3.70468e-22)
(1.02751 -5.1765e-06 3.37179e-21)
(0.966347 0.241598 5.28698e-20)
(0.969124 -0.0429721 2.61417e-21)
(0.524238 0.351273 0)
(1.01369 0.000936295 0)
(0.941557 0.160142 3.16506e-20)
(0.935801 0.0462461 2.18091e-21)
(0.923581 -0.0906503 -2.48172e-21)
(1.01171 -0.000194 2.04135e-21)
(0.92825 0.223993 2.54493e-21)
(1.01722 0.00428788 0)
(0.937067 -0.238797 -1.09081e-20)
(1.00377 0.0231915 0)
(1.0257 0.00367665 3.84779e-23)
(1.01367 0.00379565 1.043e-21)
(1.03878 0.0537244 2.45392e-20)
(1.01198 -0.00022937 -1.85611e-21)
(0.913703 -0.100871 2.73087e-21)
(0.929487 -0.074822 2.44073e-21)
(1.01743 0.000347927 0)
(1.03738 -0.0252113 -9.47641e-22)
(1.01202 -0.000291873 0)
(0.798801 0.11523 -2.03341e-21)
(1.0165 0.000864583 7.50123e-23)
(0.93811 0.147561 -2.37397e-20)
(0.93773 0.273823 -6.11053e-20)
(0.96855 -0.022065 -3.30725e-21)
(0.915811 0.279952 3.41159e-20)
(1.04062 -0.0240225 1.04785e-21)
(1.01736 0.00166767 -5.62162e-22)
(0.932646 0.0550007 3.76093e-22)
(1.02352 0.011995 1.2446e-22)
(1.01879 0.0288942 -1.26606e-21)
(1.06987 -0.0143102 -1.77746e-21)
(1.02741 0.00691485 -2.42915e-21)
(1.01281 0.000134541 -5.08628e-24)
(1.01729 0.00294072 2.58319e-21)
(1.02895 0.0212781 0)
(1.00811 0.000232189 -1.40351e-22)
(1.01498 0.00353431 -4.81326e-23)
(0.878367 0.061362 3.08482e-21)
(1.01261 0.0245718 -1.1551e-21)
(0.259831 0.316157 -7.94575e-20)
(1.03284 -0.00196213 -9.11332e-22)
(0.919129 -0.257611 -1.24485e-20)
(0.780576 0.0347323 0)
(0.798113 -0.0669178 0)
(1.01701 -0.00163353 -1.49496e-22)
(1.03057 -0.0140114 -4.50945e-22)
(0.771319 -0.288023 1.69641e-20)
(1.013 0.000601213 -1.1213e-22)
(0.803585 -0.0775119 0)
(1.03361 -0.00107793 -3.41315e-22)
(1.03078 0.00458267 5.84661e-21)
(1.01231 0.000404579 0)
(1.03011 0.00811015 5.66095e-21)
(1.01327 0.000615249 0)
(1.05117 -0.0714171 0)
(0.778377 -0.285794 -8.74213e-21)
(1.02556 0.0134757 0)
(1.01259 0.0227236 0)
(1.00955 0.000103729 -2.35227e-22)
(1.02267 0.0153729 0)
(0.0952784 0.271896 0)
(1.01604 0.00110699 -4.88326e-22)
(0.985143 0.0413714 0)
(1.01286 -0.000264041 0)
(1.01471 0.0013029 -1.96628e-23)
(1.0127 -0.000776757 -1.67934e-22)
(1.00926 0.0226432 -9.71474e-21)
(0.793557 -0.272755 -9.62495e-21)
(0.980845 0.0360286 0)
(1.06186 -0.0612884 1.90138e-21)
(1.00477 -0.000111108 1.36088e-21)
(1.01735 0.00333704 -2.32623e-21)
(1.02134 0.0006726 -2.78095e-21)
(0.71432 0.0836954 4.03049e-21)
(1.0107 0.000379111 -2.00853e-21)
(0.848954 0.0931692 3.18765e-21)
(1.02186 0.0144605 0)
(1.00149 0.0305235 0)
(1.03325 0.00306192 -1.67933e-20)
(1.01551 0.00303707 7.85761e-22)
(1.00469 -3.57051e-05 1.28823e-21)
(0.823807 -0.221771 2.94069e-21)
(1.01193 -0.000143066 0)
(0.803298 0.0510068 4.0911e-21)
(0.982447 0.241698 -6.07233e-20)
(1.03269 0.00271332 4.96983e-21)
(1.01465 0.000105864 0)
(0.706308 0.35758 2.63332e-20)
(1.05363 -0.0266849 -7.94025e-22)
(1.01302 -0.000923498 2.03626e-22)
(1.04581 0.0180781 1.87398e-22)
(1.00944 5.25369e-05 9.77852e-22)
(1.01416 0.00495898 -4.53828e-21)
(1.04077 -0.0144092 0)
(1.01354 0.000203254 2.22439e-21)
(0.807544 0.0499137 1.15625e-20)
(0.972049 0.0378341 -2.23019e-21)
(1.01308 -0.00483789 0)
(1.07109 0.140405 6.81836e-21)
(1.01575 0.0279253 3.93738e-22)
(1.02145 0.000522269 0)
(1.01191 -0.000269305 -1.54337e-21)
(1.03056 0.00429065 1.22343e-20)
(0.91468 -0.0835598 9.76859e-22)
(1.01665 -0.00102931 4.72589e-23)
(0.789955 0.0636548 0)
(1.04897 -0.029866 9.18538e-22)
(0.777904 -0.27329 0)
(1.01003 0.000337543 -1.94291e-21)
(1.03345 -0.0143238 2.29733e-22)
(1.06375 0.154055 -5.06811e-21)
(0.804605 0.0830173 -1.51532e-20)
(1.01659 0.000150537 1.77563e-22)
(1.014 0.00302638 1.17564e-21)
(1.0203 0.00567984 -2.65985e-21)
(1.01257 -0.00439768 0)
(1.04285 -0.0111337 0)
(1.04186 0.0227964 0)
(1.01263 -0.000715556 0)
(1.02775 -0.0688358 5.09222e-22)
(0.90642 -0.236717 -9.26717e-21)
(1.01334 -0.00131705 0)
(1.00694 -7.90252e-05 0)
(0.832366 0.089621 -2.16249e-21)
(1.00215 0.0261604 0)
(0.96556 -0.0891364 9.56923e-22)
(0.999829 -0.0988483 1.21025e-21)
(1.01642 0.000241566 0)
(1.01223 -0.0303178 -1.10019e-23)
(1.01485 0.00122085 -2.17747e-21)
(1.01528 0.0258817 -8.38062e-22)
(1.01666 0.00387439 -5.28705e-21)
(1.01673 0.00463726 2.64423e-23)
(1.02327 0.00393249 1.91671e-21)
(1.04639 -0.0053551 1.20977e-21)
(1.00999 -1.96424e-05 1.74677e-21)
(0.92794 -0.240466 0)
(1.05062 0.017949 -8.76491e-23)
(0.420449 0.156377 1.59796e-20)
(0.975524 -0.0801482 0)
(1.01353 0.000688792 0)
(0.979579 -0.228847 8.83012e-21)
(0.950781 0.0296464 0)
(1.00799 0.00405924 -1.1421e-21)
(1.01703 -0.00181543 2.59467e-23)
(0.998553 -0.0243688 6.48352e-22)
(1.01147 0.000351724 0)
(1.01275 0.000198356 0)
(1.01136 0.000904569 -2.18695e-21)
(1.01369 0.000665455 -1.56604e-22)
(1.03298 0.000156015 -1.08721e-21)
(0.385109 0.324698 -2.9526e-21)
(1.03015 0.00150661 8.11096e-21)
(0.960156 0.0148574 0)
(1.03298 0.00272806 0)
(1.01511 -0.00332517 -2.20068e-21)
(0.807095 -0.260395 4.35319e-21)
(1.00925 -0.0343606 2.47513e-21)
(1.02446 0.0116568 4.86823e-22)
(1.00352 9.87527e-05 -3.07903e-22)
(0.90722 0.193317 1.32115e-20)
(1.00392 1.88256e-05 1.47985e-21)
(1.02487 0.0054294 1.78888e-21)
(1.01799 0.000377627 -2.70802e-21)
(1.03013 0.0036267 1.65277e-21)
(0.860326 -0.201202 -1.73987e-20)
(0.991869 -0.212363 0)
(1.03056 0.00378021 0)
(1.01403 0.000885726 0)
(1.03012 0.00577871 1.84284e-21)
(1.03063 0.00360591 -8.10961e-22)
(0.834155 -0.242053 2.6395e-21)
(1.0166 -0.00121003 1.46634e-23)
(1.00736 0.000189989 0)
(1.01046 0.000676098 0)
(1.01208 -0.000313579 0)
(1.03725 -0.111054 -6.75012e-21)
(1.00958 0.00198358 2.36839e-21)
(1.00675 0.0339459 -1.94223e-21)
(0.793091 -0.0692761 -1.02121e-21)
(0.825976 -0.203973 -1.84415e-20)
(1.03945 -0.1012 2.00783e-20)
(1.02354 0.00485702 0)
(0.781592 -0.036788 0)
(1.07304 -0.00814922 3.05011e-22)
(1.01482 0.001321 1.33159e-21)
(0.99699 0.0470741 -2.77952e-20)
(1.01344 -0.00140849 0)
(1.01322 0.000578947 0)
(1.01346 -0.00146294 -1.29369e-21)
(1.01863 0.000308995 -1.18481e-21)
(1.01287 -0.000866117 0)
(1.02053 0.0145132 0)
(0.335729 0.359061 -2.70437e-20)
(1.02986 0.00173596 7.8349e-21)
(1.02617 -0.0347702 0)
(1.01436 -0.182296 0)
(0.774515 -0.280827 -5.77634e-21)
(1.01846 0.00170787 -2.0885e-21)
(0.837591 0.0495905 0)
(1.0174 0.000116086 3.53035e-21)
(1.03041 0.0561793 -1.6082e-20)
(1.01503 0.00120595 0)
(0.865072 0.322259 5.44533e-20)
(1.00776 -0.00213614 -1.41205e-22)
(0.79547 -0.270891 0)
(0.0775381 0.300221 4.08434e-20)
(1.01486 -0.00360108 2.22032e-21)
(0.958721 0.0225995 3.21418e-21)
(1.01524 -0.00584233 0)
(0.79916 0.0145728 1.46779e-21)
(1.01993 0.0135347 0)
(1.04116 0.222218 1.10508e-20)
(1.02777 -0.00336055 -1.31723e-21)
(0.796121 -0.0192304 -1.60041e-20)
(1.02931 0.00166304 0)
(0.85437 -0.075043 2.6646e-21)
(1.01521 -0.00523633 0)
(1.03486 -0.00819419 -7.23902e-23)
(0.825691 -0.244417 1.94893e-21)
(1.01243 -0.000623346 -8.58272e-22)
(1.01479 -0.00427694 0)
(1.01056 5.61107e-05 4.52651e-22)
(1.02442 -0.154928 -1.37714e-20)
(1.01289 0.000277292 0)
(1.01345 -0.00135568 -8.95979e-22)
(0.950237 0.0461835 -2.25604e-21)
(1.00653 -0.00441316 -4.2894e-22)
(1.07696 0.00539807 5.42856e-23)
(1.05577 0.214841 0)
(1.01589 0.00111041 -1.4536e-21)
(1.00792 0.00811094 1.16561e-21)
(1.00772 -0.00485112 8.49721e-22)
(1.01287 -0.000932413 -1.66201e-21)
(1.02841 -0.00473255 0)
(0.918253 0.122833 1.30042e-20)
(1.01452 -0.00511496 0)
(1.02986 0.00352138 -7.624e-22)
(0.536862 -0.166579 4.56872e-21)
(1.00689 0.0391462 -2.83875e-21)
(1.00708 -4.77953e-05 0)
(0.241328 0.340155 4.67538e-20)
(1.01184 -1.56623e-05 -2.60479e-23)
(1.0405 -0.00721856 -5.74962e-22)
(1.00144 0.0438267 -3.21437e-21)
(0.80868 0.11505 -5.61153e-21)
(0.8082 0.0476561 -4.47989e-21)
(1.02456 -0.105199 -7.96936e-22)
(0.866889 -0.0768345 0)
(0.845564 -0.00895529 1.12193e-20)
(0.836194 0.000561247 0)
(1.01365 -0.00156898 8.53932e-22)
(0.998288 0.0223909 -2.24975e-21)
(1.02673 0.147782 0)
(1.01747 0.140634 8.10427e-22)
(0.999339 0.0437256 2.36148e-20)
(1.017 0.0013709 1.07641e-21)
(1.0113 0.00116921 4.02106e-21)
(0.969336 0.016667 0)
(0.27229 0.361903 2.54477e-20)
(1.01336 -0.0013465 3.23238e-22)
(1.02317 -0.00733173 -2.36634e-22)
(1.01004 0.000332037 -1.19047e-21)
(1.01816 0.00186035 0)
(1.0146 0.00663003 -1.93452e-21)
(1.01533 0.00763915 1.93391e-21)
(1.01824 0.000680994 0)
(1.00867 0.000108801 -2.2805e-21)
(1.05226 0.0106215 2.6378e-22)
(1.03375 0.00205429 0)
(1.04199 -0.00436351 1.42957e-21)
(0.956667 -0.0115296 -3.34016e-21)
(0.829565 -0.0201417 1.16654e-20)
(1.01303 -0.00103057 2.6398e-22)
(0.763915 0.292684 0)
(0.471996 -0.0880235 3.2362e-21)
(0.881791 0.193201 -9.08961e-21)
(1.01055 -2.95039e-05 -2.15082e-21)
(1.04159 0.0180321 0)
(1.008 -8.26621e-05 0)
(0.77636 -0.275481 7.52053e-21)
(1.02212 0.00118697 -5.76447e-21)
(0.979906 -0.0417514 -2.76503e-21)
(1.02907 0.00187219 6.58555e-21)
(0.933593 0.184507 3.06635e-21)
(1.01115 7.5404e-05 -3.03404e-23)
(1.0308 0.00908149 -2.1567e-20)
(1.02381 -0.006848 1.61782e-22)
(0.999684 0.0188725 2.27002e-21)
(0.987022 0.23217 0)
(1.00834 -4.98374e-05 1.50416e-21)
(1.01234 0.00049266 1.2521e-21)
(1.01394 0.00342407 8.45784e-22)
(0.923556 0.225063 8.76449e-21)
(1.01289 -0.000202683 -1.90901e-21)
(0.992466 -0.0326021 -2.69891e-21)
(0.9673 0.0467674 2.50616e-21)
(0.957797 0.013115 -8.30874e-22)
(1.01473 -0.00277284 3.40825e-21)
(0.985823 -0.0339908 2.33245e-21)
(0.82514 0.0502117 0)
(0.531637 -0.0538451 -5.52152e-21)
(1.02489 0.00336841 -2.70359e-21)
(1.01108 0.000330836 2.22045e-22)
(0.796486 0.00773643 1.72772e-21)
(0.915437 0.215939 -8.48959e-21)
(1.01721 -0.0271909 2.17754e-21)
(1.01054 -0.133939 -4.33911e-22)
(1.01021 0.000203055 -7.06103e-22)
(1.03664 -0.0448113 9.31449e-22)
(1.05986 0.000137043 3.27901e-22)
(1.04724 -0.00580148 0)
(1.0332 0.000856422 -6.72429e-21)
(0.938912 -0.245348 1.05526e-20)
(1.01432 -0.00256049 -1.01284e-21)
(1.01674 0.00135561 -2.3841e-21)
(1.02666 0.00547812 2.23746e-21)
(0.844772 0.0880714 -7.02135e-22)
(1.01675 0.00283065 1.21387e-21)
(0.798025 -0.0133909 -1.46352e-21)
(1.01799 0.00178929 1.15458e-21)
(1.02444 0.00266234 -5.82556e-21)
(1.01261 -0.000693875 9.82195e-22)
(1.03697 -0.00762495 2.48186e-22)
(0.996009 -0.14399 3.58387e-21)
(1.02734 0.00642126 4.68855e-21)
(1.02974 0.00354324 7.61662e-22)
(0.955956 -0.176697 4.18739e-21)
(0.964132 -0.0363092 0)
(1.06389 0.0379538 5.74746e-23)
(1.02694 0.00619673 -1.77492e-21)
(1.01423 0.0008595 1.36108e-21)
(1.03228 -0.051582 -1.21244e-21)
(0.566586 -0.0362134 1.84661e-22)
(1.02406 0.00494279 0)
(1.01324 -0.000977471 -9.3229e-22)
(0.970784 0.0398071 -4.94106e-21)
(1.02062 0.00637091 -5.47962e-22)
(1.0221 0.00392349 -1.03193e-24)
(1.09373 0.092147 3.54818e-21)
(1.01281 0.000331358 -1.84186e-21)
(0.776118 -0.289326 -2.58201e-20)
(1.01417 0.00095366 0)
(1.07278 -0.0209991 1.46374e-21)
(1.00143 -9.27861e-05 0)
(0.909421 0.315672 -4.27496e-20)
(1.01697 0.0028304 -6.21505e-22)
(1.03835 0.019594 -1.29285e-20)
(1.01643 0.000740913 -3.23339e-22)
(1.01412 -0.000463819 -1.06974e-21)
(0.958122 -0.170248 2.59119e-21)
(1.01736 -0.00195829 3.07861e-22)
(0.802594 -0.217314 0)
(1.01314 -0.0267137 -8.09071e-22)
(1.01216 0.000246314 -9.55621e-22)
(1.02363 -0.0227875 0)
(0.39655 0.16954 0)
(0.83602 0.0772473 -1.50414e-21)
(0.966465 -0.00642869 3.35068e-21)
(1.01001 2.0158e-05 1.67811e-23)
(1.01334 -0.00100219 -9.53307e-24)
(1.01313 -0.00103347 -1.31227e-21)
(1.01322 0.000783259 1.86637e-21)
(0.998883 0.0123454 -3.96693e-21)
(1.02607 0.00548566 -2.22436e-21)
(0.968704 0.156905 -8.16571e-22)
(1.02069 0.0050967 0)
(1.01557 -0.000639562 0)
(0.846257 -0.308393 2.17381e-21)
(1.02855 0.0070581 1.13574e-20)
(0.997215 0.0152224 5.01684e-21)
(1.00644 -7.58783e-05 0)
(1.01267 0.000678801 1.13254e-21)
(0.834122 -0.304356 0)
(0.871143 -0.187052 1.27399e-20)
(1.00331 -0.000908781 0)
(0.944729 -0.246458 1.11971e-20)
(1.0208 0.000231859 1.47999e-21)
(1.03452 0.0207101 -5.2404e-22)
(1.01374 -0.00131977 0)
(1.01221 0.000266123 1.97939e-21)
(1.01369 0.00290295 -7.78569e-22)
(1.01394 0.00274885 -1.18786e-21)
(1.02484 0.00471036 0)
(1.00996 5.58163e-05 -1.57517e-21)
(0.806743 0.348981 -3.0325e-20)
(1.02835 0.00200804 -5.65179e-21)
(1.14537 0.0205725 -3.49144e-22)
(1.01505 0.00258591 0)
(1.00672 -0.00485373 0)
(1.0126 -0.000711713 0)
(1.07107 0.0391532 0)
(0.778731 0.09323 3.37454e-22)
(1.01216 0.000284229 9.80548e-22)
(1.01537 0.00284128 -4.35805e-22)
(1.00846 -0.0876972 -1.84271e-21)
(0.972415 -0.028841 -3.18336e-21)
(1.01248 -0.000651205 0)
(0.80145 -0.250049 -3.33084e-20)
(1.01381 0.000765399 1.23116e-22)
(1.04586 0.0071439 0)
(1.01251 -7.19395e-05 0)
(1.01452 0.000492695 0)
(1.01388 -0.000377304 -1.25416e-22)
(0.920176 0.205593 0)
(1.01253 -0.000646904 0)
(1.01349 0.00382032 -1.9823e-21)
(1.00896 0.00181677 -2.60188e-21)
(0.775847 -0.274018 3.42014e-20)
(1.01031 -0.000175456 0)
(1.01379 0.00266473 5.05911e-24)
(1.00995 -3.61658e-06 1.08805e-22)
(0.983619 0.0857772 1.70732e-21)
(1.01856 0.00184624 1.31504e-21)
(1.01621 0.00404815 6.43841e-22)
(1.01157 6.45707e-05 -9.06357e-24)
(1.01642 0.00414374 -8.54514e-22)
(1.03291 0.000153466 3.50375e-21)
(1.01532 0.00379444 -5.19816e-23)
(1.00811 -0.00478531 2.42814e-21)
(1.0139 -0.0014037 1.10193e-21)
(0.0524929 0.280107 -7.43727e-20)
(0.96253 0.195174 0)
(0.962664 0.223757 6.04484e-21)
(1.0187 0.0133916 0)
(1.03975 0.0107276 1.26504e-20)
(1.01641 0.000875125 -8.6308e-23)
(1.06089 0.0970543 0)
(1.01781 -0.000104934 -3.71604e-21)
(0.905137 -0.252497 9.80254e-21)
(0.958707 -0.103477 0)
(0.95087 0.216645 0)
(1.04365 0.0121549 -1.31399e-21)
(0.813442 -0.108973 -2.70009e-21)
(1.02054 0.000239188 -1.56086e-21)
(1.02353 0.00424809 -2.91576e-23)
(0.908063 -0.0551538 -5.20437e-20)
(0.982533 0.078161 -3.68017e-21)
(1.0174 -0.0305446 -2.35324e-21)
(0.99322 0.0972701 0)
(1.02704 0.00231403 -4.902e-21)
(0.878918 -0.152662 0)
(1.01397 0.00147027 0)
(1.02502 0.00388415 2.15883e-21)
(1.01321 -0.00120236 -1.07966e-21)
(1.0127 -0.000160323 1.91539e-21)
(1.01255 0.000429419 0)
(0.897261 -0.00670243 3.40497e-20)
(1.03226 0.00289378 0)
(1.00994 -0.000195547 1.41827e-23)
(0.41893 0.355606 1.58637e-21)
(1.01947 0.00472187 0)
(1.07157 0.0931454 -1.91393e-21)
(1.02703 -0.00983476 1.38983e-22)
(1.03294 0.00189441 0)
(0.994335 -0.0259299 0)
(1.01074 0.000187416 -9.11513e-22)
(0.919984 -0.232937 -1.1778e-21)
(1.0165 0.000783641 0)
(1.01415 0.00294104 -1.74241e-22)
(1.12967 0.0104021 5.57201e-22)
(1.02473 0.00290122 2.97512e-21)
(1.01609 -0.000764002 -1.67318e-22)
(1.00781 3.4216e-05 1.23741e-21)
(1.01463 0.00152939 0)
(1.01308 0.00120249 0)
(1.06046 0.10947 -1.66058e-21)
(1.10664 0.0968185 -7.98028e-21)
(0.959204 0.180731 0)
(1.02648 0.000246494 0)
(1.01522 0.00218497 0)
(1.0144 0.00149477 -2.70285e-21)
(0.86347 -0.164759 -5.15974e-21)
(1.03223 0.0119603 0)
(1.01399 0.000729288 -1.6264e-21)
(1.01163 -0.000288553 7.40909e-22)
(1.01176 0.00123876 0)
(0.818403 -0.14042 2.18707e-21)
(0.601265 0.150266 1.01513e-20)
(1.03661 -0.0285823 1.27892e-21)
(1.02342 0.0131088 0)
(1.01324 -4.04455e-05 -1.57334e-21)
(-0.0385178 0.236185 -4.07703e-20)
(1.03696 0.0210524 0)
(1.03537 -0.00159052 1.69206e-21)
(1.0737 0.0223373 0)
(0.939455 -0.194101 1.65244e-21)
(0.769479 -0.279253 0)
(0.832196 -0.162106 -2.14197e-21)
(1.01392 0.00148665 3.20804e-23)
(1.00996 4.73869e-06 0)
(1.01673 0.000522884 0)
(0.836427 -0.0368774 1.61948e-21)
(1.01371 0.00143902 1.46742e-21)
(1.04017 0.0134278 -3.37142e-21)
(1.01888 0.00217847 -2.20205e-21)
(1.01743 -0.0021594 -1.35052e-22)
(1.00298 -0.0267833 -6.75097e-22)
(1.02214 0.00418578 -2.07805e-21)
(0.889987 0.199893 -1.0152e-20)
(0.962064 0.257677 -8.72309e-22)
(1.01318 -0.000998904 0)
(1.01609 0.00279127 -7.5573e-22)
(1.01359 -0.00135466 1.25699e-21)
(1.02043 -0.098831 8.83321e-22)
(1.0127 -0.000104074 1.82717e-21)
(1.03873 0.195309 -2.70849e-20)
(1.02795 0.00625925 -2.04058e-21)
(0.703741 0.143826 3.20319e-22)
(1.01508 0.00187128 0)
(1.01602 -0.0044787 0)
(1.01221 0.000327988 -2.23656e-21)
(1.0167 0.00145581 2.1714e-21)
(1.02279 0.00384846 -3.91125e-21)
(1.02086 -0.00433907 2.34102e-22)
(1.02224 0.00103339 0)
(1.02909 0.00237162 0)
(1.01999 -0.0357978 0)
(1.03169 0.00869109 1.49999e-20)
(0.994496 0.192513 0)
(1.01988 -0.000130698 0)
(0.991108 0.0716552 1.51844e-21)
(0.910674 -0.219159 5.02919e-22)
(1.0168 -6.7444e-05 0)
(0.311498 0.247327 -2.98728e-20)
(1.01452 0.00236164 -5.63164e-23)
(1.0108 0.0039266 -1.17972e-21)
(1.00683 -0.000966756 2.34821e-21)
(1.00951 -5.62652e-05 0)
(0.93972 -0.251024 -1.19973e-20)
(1.01874 0.00176962 0)
(1.01829 0.0124441 3.2051e-23)
(1.01272 -0.000875852 -1.12989e-21)
(0.805825 -0.227792 -3.78683e-21)
(1.016 -0.00406233 2.395e-21)
(0.844064 -0.0452124 -3.62717e-21)
(1.01238 -0.0163371 9.97424e-22)
(1.01536 0.0020115 1.69655e-21)
(1.13619 -0.065695 0)
(0.832871 -0.0013253 0)
(1.02775 -0.00842124 -1.3217e-22)
(1.01497 -0.000941001 -4.03584e-23)
(0.987163 0.0912422 1.16589e-20)
(1.00441 0.000104897 3.74242e-23)
(0.77899 -0.146638 0)
(1.02756 -0.0299479 0)
(1.02021 0.0443656 1.35315e-21)
(1.00342 -0.0329305 7.44748e-23)
(1.02595 0.000304153 1.15216e-21)
(1.02534 0.00336515 0)
(1.0129 0.00220915 0)
(1.05359 0.0182771 -3.70514e-24)
(1.00488 -0.00376652 0)
(1.00888 -0.0820904 -2.1656e-22)
(0.851727 -0.0919345 0)
(1.01783 -0.00230295 0)
(1.01195 0.000453731 2.08191e-21)
(1.018 -1.91412e-05 0)
(0.99733 0.0414487 -1.87088e-21)
(1.00465 8.97292e-05 0)
(1.04617 0.150614 -2.34616e-20)
(1.02847 0.000644251 -1.76381e-21)
(1.02435 0.00535187 -2.00006e-21)
(0.946648 -0.106924 1.94354e-22)
(1.01487 0.00165558 -1.84674e-22)
(0.989894 0.0824113 0)
(1.04781 -0.00895191 0)
(1.01384 0.000173135 -2.69397e-21)
(0.880568 -0.094628 -2.93715e-23)
(1.0215 0.00353147 -1.88569e-21)
(1.01444 0.00341224 -1.916e-21)
(1.02143 0.00727598 1.08736e-21)
(1.06903 -0.00319476 1.9045e-22)
(1.00973 0.000688241 3.2373e-21)
(0.769633 -0.285042 2.51228e-22)
(1.02862 0.00230689 3.69665e-22)
(1.07009 0.00344008 -1.66023e-22)
(1.04128 0.0146748 0)
(0.902703 0.152556 1.08235e-21)
(1.02006 0.00690479 -1.33394e-21)
(1.0441 -0.00462208 0)
(1.01397 -0.0187371 -3.36491e-21)
(1.0293 0.00264305 0)
(1.0165 -0.0155501 -1.81071e-23)
(1.01185 -4.61153e-05 -9.65514e-23)
(1.06255 -0.00367312 0)
(1.01275 0.00406525 -4.28796e-21)
(1.02929 0.00101507 0)
(1.01554 -0.00513326 0)
(1.01576 0.000836168 -1.52318e-21)
(1.03123 0.00466113 4.84637e-21)
(1.022 -0.0344012 3.63533e-21)
(1.01019 0.000259403 -5.00422e-22)
(1.02678 0.00138988 0)
(1.03689 -0.0915711 -3.11871e-22)
(1.01188 -2.42961e-05 -2.15155e-22)
(1.01515 0.00173515 0)
(1.0153 0.00249931 -4.98338e-22)
(1.01354 -0.00149428 1.49958e-21)
(1.03353 -0.0328807 -9.18259e-23)
(1.01318 -0.00770345 2.80863e-21)
(1.02323 0.0179647 -8.84672e-23)
(1.03032 0.00997678 2.3541e-21)
(1.04325 -0.0836923 0)
(1.02254 0.00404873 1.7912e-21)
(1.01633 0.0320313 0)
(0.773817 -0.105184 0)
(1.01174 0.00104824 0)
(1.01545 0.00456888 9.99107e-22)
(1.01367 -0.00149822 0)
(0.984214 -0.163728 0)
(0.934081 -0.208819 -1.96968e-23)
(1.02894 0.00614256 -1.23237e-20)
(1.01236 0.000442743 -1.00027e-21)
(1.03677 -0.0403278 4.70065e-22)
(0.636091 -0.0449063 -1.73655e-22)
(0.499964 0.334574 -9.33704e-21)
(1.02468 0.00511392 -2.67504e-22)
(0.970499 -0.162514 0)
(0.864441 -0.0374985 -8.97756e-22)
(0.975304 0.22024 0)
(1.02041 0.00434227 0)
(1.02115 -0.00484177 -2.38534e-22)
(1.0111 0.000667526 -1.9813e-21)
(0.999202 0.144478 -6.65939e-23)
(1.08118 0.0747794 0)
(1.02857 0.00181002 -1.81261e-22)
(0.655684 0.31455 -1.30834e-20)
(1.03142 0.048223 0)
(0.893932 -0.0893387 1.67619e-22)
(0.943041 -0.247073 1.35282e-20)
(1.01017 0.00412958 -1.23284e-21)
(1.00231 0.0407266 0)
(0.783655 -0.190017 0)
(0.945126 0.0135486 3.11024e-21)
(0.791718 -0.275951 2.69041e-20)
(1.05471 0.0160046 0)
(0.693355 0.344164 2.29601e-20)
(1.02217 0.0167463 8.77045e-23)
(0.843466 -0.190018 2.31753e-21)
(1.02456 0.00311238 2.7622e-21)
(1.02727 0.00911899 2.49865e-21)
(1.01024 0.000240476 0)
(1.01652 -0.0284693 0)
(1.01633 -0.00109545 0)
(1.02552 0.00391261 -2.26469e-21)
(1.01579 0.0029338 5.53119e-22)
(0.909179 -0.0798012 3.09698e-20)
(1.01778 0.00265807 -2.0951e-21)
(1.01795 -0.00254524 0)
(0.855702 -0.290665 -1.72516e-21)
(1.02338 0.00279324 2.66651e-21)
(1.02495 0.0104775 0)
(1.02634 0.00477522 0)
(1.01414 -0.0709646 2.14084e-22)
(1.01231 -0.000374004 -3.16819e-22)
(1.02994 0.00360828 0)
(1.01662 0.00956456 0)
(1.01694 0.005453 -1.71168e-21)
(1.01946 0.00439348 0)
(1.04037 0.0164626 -2.03064e-21)
(1.01321 0.00127649 0)
(0.723972 -0.332315 -1.61099e-20)
(1.02639 0.0498123 0)
(0.972158 0.0527105 2.4117e-21)
(1.01833 0.0026418 1.12683e-21)
(0.971757 0.171602 1.85683e-21)
(1.01287 0.00109715 0)
(0.983368 0.0763906 0)
(1.00506 -0.108527 0)
(1.00301 -0.00497565 7.92673e-23)
(1.01987 0.00497335 0)
(1.0132 -0.00118255 -1.48698e-21)
(1.01622 0.00572271 -2.48313e-22)
(1.01756 0.000313473 -6.93843e-22)
(0.827334 0.0990114 1.00281e-23)
(1.0558 0.0536152 0)
(1.01463 0.00148609 -3.7243e-23)
(0.903714 0.135031 6.03272e-22)
(1.0104 7.20583e-06 1.85846e-21)
(1.01535 0.000725192 8.94275e-23)
(0.925378 -0.251669 0)
(1.01347 -0.000977686 -1.62585e-22)
(1.01808 0.00046285 0)
(0.887916 0.12638 -1.48326e-22)
(1.01343 0.00097023 5.09642e-22)
(1.0035 0.107666 2.50591e-22)
(1.03099 0.00437988 0)
(1.10143 0.0314151 5.98258e-22)
(1.02664 0.0142826 8.36151e-21)
(1.04995 0.0506922 2.6829e-22)
(1.02333 -0.0262026 0)
(1.02076 0.00556459 3.89855e-22)
(-0.0211297 0.201495 -2.33309e-20)
(-0.0432028 0.209141 0)
(1.01517 0.00277728 -1.235e-22)
(1.06068 0.00429226 3.09781e-22)
(0.876263 0.184307 5.23478e-21)
(0.679999 -0.280339 0)
(0.781033 -0.126018 -1.08517e-20)
(1.0079 -4.45604e-05 3.82479e-22)
(1.01566 -0.00216763 0)
(1.01511 -0.0213819 2.23584e-21)
(1.02515 0.00509603 0)
(1.01897 0.00366253 1.97719e-21)
(0.911467 -0.0985015 0)
(1.03842 0.0107622 -2.4448e-20)
(1.01319 -0.00113268 2.79537e-21)
(1.02722 0.0365613 -1.9885e-20)
(0.87533 0.174456 -1.65009e-21)
(0.913857 -0.221294 -5.31007e-21)
(1.01305 -0.000993493 0)
(1.01367 -0.00128292 -1.45568e-23)
(1.00916 -0.000149084 -7.62127e-22)
(1.02734 0.00254261 3.14036e-22)
(1.01062 0.0144131 3.20927e-20)
(1.02755 0.136193 7.15939e-23)
(1.01249 -0.00103229 -2.3128e-21)
(1.03607 0.0144062 3.27611e-21)
(0.97646 0.0966871 4.89203e-23)
(1.01265 0.00266086 7.41148e-22)
(1.01391 0.00041072 1.0064e-21)
(0.649594 0.268482 0)
(1.03464 0.0126957 -5.60819e-22)
(0.933898 -0.0634314 -1.07034e-21)
(1.01585 0.00321282 -3.21068e-23)
(1.01042 4.93608e-05 1.46664e-21)
(1.02664 0.000835122 -3.61749e-21)
(1.01383 -0.00689141 2.49603e-21)
(1.07214 0.0805121 0)
(0.952354 0.00800484 -7.6107e-22)
(1.01325 0.00231704 6.64557e-22)
(0.955102 0.215365 -4.41483e-22)
(0.805191 0.140538 2.42112e-21)
(0.955433 0.150583 7.57378e-22)
(1.0297 0.0059857 8.32418e-21)
(1.03377 0.0118281 9.57523e-22)
(0.690285 0.272354 0)
(1.02359 0.042743 1.6022e-20)
(0.933955 -0.227087 1.69058e-20)
(1.03937 0.0339201 -5.86313e-21)
(1.02327 0.00447735 -1.73955e-21)
(1.0153 0.00101529 1.11899e-21)
(0.929757 0.152462 4.79088e-22)
(0.819656 0.0601108 0)
(1.01378 -0.00344575 2.64597e-21)
(1.03547 0.013038 1.17605e-20)
(1.02006 0.0497358 -1.42986e-20)
(1.01242 0.00446327 2.19236e-21)
(0.985059 0.0540108 2.0452e-21)
(1.01305 -0.00344901 -2.46073e-21)
(1.0149 0.00421555 3.06442e-23)
(1.00787 -6.89558e-05 0)
(1.02755 0.040142 -2.62074e-22)
(1.01403 0.00344602 1.97249e-21)
(1.01573 0.00309766 -1.07491e-22)
(0.924512 0.364083 -6.88433e-20)