/*--------------------------------*- C++ -*----------------------------------*\
| =========                 |                                                 |
| \\      /  F ield         | OpenFOAM: The Open Source CFD Toolbox           |
|  \\    /   O peration     | Version:  v2012                                 |
|   \\  /    A nd           | Website:  www.openfoam.com                      |
|    \\/     M anipulation  |                                                 |
\*---------------------------------------------------------------------------*/
FoamFile
{
    version     2.0;
    format      ascii;
    class       surfaceScalarField;
    location    "1000";
    object      phi;
}
// * * * * * * * * * * * * * * * * * * * * * * * * * * * * * * * * * * * * * //

dimensions      [0 3 -1 0 0 0 0];
oriented        oriented;


internalField   nonuniform List<scalar> 
27882
(
0.514886
-0.369023
-0.145862
0.505671
-0.24797
-0.257701
0.271728
-0.532804
0.26108
0.162759
0.352127
-0.22665
0.347794
-0.121142
-0.425988
-0.102087
0.528075
0.185599
0.18799
-0.373584
0.119105
-0.330942
0.211839
-0.340013
0.113364
0.250764
-0.373614
0.122852
0.376952
-0.555159
0.178207
0.546829
-0.167161
-0.379668
-0.373643
0.0893714
0.284272
0.332922
-0.165803
-0.167118
0.105101
-0.430707
0.325613
-0.428678
0.148129
0.280557
0.120083
0.426747
-0.313304
-0.168231
0.382009
-0.276902
0.175253
0.137418
-0.312669
-0.447369
0.239225
0.208145
0.0290423
-0.0975222
0.0684799
0.086786
-0.512773
-0.333686
0.540153
-0.206467
0.0919187
-0.0628764
0.139526
-0.060693
-0.0788333
-0.332846
0.110442
0.222404
0.258234
-0.160534
-0.0976996
-0.18589
0.0296767
0.156213
0.494878
-0.39462
-0.100257
-0.205132
0.164047
0.0410847
-0.144492
-0.188354
0.307368
-0.188261
0.0584461
-0.091848
0.0334019
-0.170704
0.336204
-0.165499
0.257943
0.236935
-0.289822
-0.0838196
0.177092
0.0396462
0.184678
-0.224324
0.39469
-0.476367
0.0816767
0.511462
-0.329728
-0.181734
-0.189874
-0.162986
0.352862
0.503004
-0.203933
-0.29907
0.469289
-0.336157
-0.133131
0.520764
-0.36184
-0.158914
-0.170649
0.0222262
0.148423
-0.33706
0.147187
-0.19616
0.0354423
0.160718
-0.0107341
0.011043
-0.000308864
0.511519
-0.360701
-0.150817
0.569672
-0.192719
-0.0202749
-0.0241666
0.0444415
0.18727
0.324249
-0.394232
0.171058
0.223174
0.0650961
-0.121428
0.0563316
0.370164
-0.280791
0.484647
-0.462067
-0.0225789
-0.155527
0.330781
-0.194399
0.167743
0.0266563
0.365867
0.118782
0.489222
-0.0789328
-0.41028
0.334556
0.134735
0.135857
-0.233515
0.032518
-0.210001
0.177483
0.0242278
0.465005
0.0646006
-0.0484694
-0.0161312
-0.0180361
0.401973
-0.383931
0.625364
-0.299004
-0.326359
0.0657017
0.192532
-0.544658
0.231354
-0.0377135
0.0174387
0.0221172
0.0715815
-0.0936987
0.144921
-0.399026
0.254111
0.165347
-0.281536
0.116189
0.234849
-0.265206
0.0303576
-0.08711
-0.118022
-0.0073732
0.174903
-0.16753
-0.38183
-0.0304483
0.412279
-0.0892477
0.395665
0.107339
0.140948
-0.142963
0.00201505
-0.16545
0.205096
-0.348183
-0.0336471
0.00130265
0.210377
-0.21168
-0.54341
0.261605
0.281806
-0.120234
0.0190295
0.101205
0.196439
0.0546676
-0.136295
0.301643
-0.107633
0.24349
-0.128385
0.00815043
0.0335349
0.0170559
-0.0505908
-0.350063
0.509199
-0.159124
0.141896
-0.155105
0.0132096
-0.0112554
0.000521297
-0.248929
0.393856
0.523189
-0.101368
-0.421816
-0.339257
-0.134681
0.473938
0.183499
-0.168527
-0.0149722
0.397936
-0.407711
0.0097751
0.178725
-0.380615
0.201894
-0.0627034
-0.107946
0.32226
-0.223456
-0.0988034
0.315955
0.30941
0.428763
0.0944312
0.0355593
0.0290413
-0.33072
-0.116648
-0.154141
-0.0420194
-0.0144656
0.0480005
-0.161133
0.250355
-0.0892228
0.456928
-0.26637
-0.190557
-0.138371
0.441786
-0.303406
0.183788
-0.15127
0.283811
-0.473925
0.190115
0.476717
-0.473148
-0.00356441
0.116981
0.205279
-0.188999
0.0252339
0.163765
0.179989
0.00351081
0.554988
-0.263936
-0.291051
-0.0225708
0.189996
-0.167425
-0.345427
0.494644
-0.149216
0.550894
-0.387092
-0.163797
0.144548
-0.151921
-0.209975
-0.333434
-0.508091
0.0743727
0.43372
-0.00334273
-0.00708424
0.010427
-0.224144
-0.170087
-0.504131
0.342582
0.161551
-0.421911
-0.0861771
-0.0778956
-0.0885381
0.166434
0.0164337
-0.0108995
-0.158957
-0.526604
0.274686
0.251927
-0.234388
0.243617
-0.00922883
0.0068943
-0.0163917
0.00949739
-0.141728
0.536418
-0.352301
0.481507
-0.1292
0.121722
0.115886
-0.237607
-0.404729
-0.0639459
0.468676
-0.197929
0.0197084
0.178221
0.131548
0.00940077
0.437904
-0.154092
0.543227
-0.256999
-0.286228
0.201164
-0.184725
-0.0164384
-0.246166
0.0850332
0.00558893
-0.00893166
0.171544
-0.160612
-0.0109319
0.0532278
-0.0176685
-0.0454463
0.161326
-0.11588
-0.232232
-0.322926
-0.0309718
0.123769
-0.0927969
-0.0164017
0.0125992
0.00380251
-0.0117778
0.0145425
-0.0027647
0.053933
-0.258645
0.204714
-0.371811
0.0974676
0.274344
0.23329
0.278172
0.134735
-0.140793
0.155291
-0.0133953
0.0592308
-0.137126
-0.232568
-0.0267909
0.259359
0.273439
-0.0151803
0.0766367
-0.0614565
0.355255
0.0305012
-0.385754
-0.0126418
0.0169048
-0.00426305
0.0273224
0.0259054
-0.145579
0.0298974
0.115681
-0.547416
0.247417
0.3
0.414042
-0.0587848
-0.0660666
0.00882638
0.0572403
0.00777731
0.00865641
0.478168
-0.423137
-0.0550313
-0.0153898
0.000514725
0.0148751
0.408099
-0.136369
-0.168164
0.178416
-0.010252
-0.130568
-0.291345
0.153509
0.0968466
0.135512
-0.392012
0.256504
0.142162
-0.391086
0.0784185
-0.12804
0.049621
0.0867913
-0.0283452
0.229433
0.0471893
0.520185
-0.244857
-0.275327
-0.132971
-0.175209
0.308181
-0.0542284
0.119325
0.142114
0.164842
-0.115293
0.0401727
0.0751205
0.421521
-0.31678
-0.104736
-0.301812
-0.0928073
0.354208
-0.288882
-0.0653253
-0.0101616
-0.00109375
-0.125268
-0.0366403
0.161909
0.00197005
-0.0137479
0.277801
0.143726
0.0625412
-0.18097
0.118429
0.17489
0.0119211
-0.186811
-0.539066
0.219467
0.3196
0.235736
-0.314823
0.0790887
-0.175212
0.00840362
0.166809
0.317339
-0.263403
-0.0117036
0.00154195
-0.493993
0.0769067
0.417087
-0.193256
-0.256306
0.449564
0.191585
-0.132354
-0.12794
-0.0606791
0.188619
-0.147934
0.427578
-0.279635
-0.401707
0.263344
-0.0155276
0.0028858
0.0934886
-0.364274
0.270789
-0.0356053
0.0125191
-0.00856841
0.554537
-0.375514
-0.179022
-0.104951
0.148171
-0.0432194
-0.466581
0.273326
-0.13654
0.426403
-0.289861
0.106892
-0.325681
0.218791
0.163924
-0.503181
0.00237905
0.390227
-0.392594
0.0503399
0.341784
-0.44387
-0.154475
0.463071
-0.308597
-0.0588185
0.233709
-0.171845
-0.280553
0.4524
0.179305
0.0218587
0.0443257
0.147259
0.056711
-0.184651
-0.367689
0.404896
-0.0372065
0.241775
-0.00692545
-0.0655682
0.123846
-0.0582773
0.063103
-0.0782833
0.345424
-0.251933
0.0409337
0.0985927
0.154654
0.0168904
0.251297
-0.0977881
0.061979
-0.414275
-0.483089
0.147682
0.335414
0.275906
-0.447749
0.0435014
-0.200215
0.156714
-0.00967377
0.00922057
0.000453203
-0.173343
-0.0047407
0.178083
-0.34289
0.262431
0.0804593
0.102189
0.322926
-0.425107
-0.14902
0.192521
0.0159413
-0.216554
0.200612
-0.342129
-0.170008
0.512139
0.078483
-0.109455
0.202116
-0.0714902
-0.130626
-0.477654
0.342037
0.135624
-0.261905
-0.199574
0.461484
-0.204469
0.49571
-0.291241
0.370791
-0.192063
-0.0144514
-0.000938429
0.516059
-0.252641
-0.263416
0.364078
-0.539936
0.175858
-0.171668
0.447575
0.463043
-0.0731647
-0.389878
0.165301
0.00515022
-0.170451
0.379805
-0.572941
0.193137
0.0903776
-0.0682604
-0.396583
-0.027759
0.424352
-0.23304
0.00532094
-0.234212
-0.239711
-0.363051
0.437426
-0.102295
-0.375353
-0.124462
0.187004
0.201901
-0.112924
-0.0889764
0.0634837
0.138417
0.0287728
-0.391822
-0.181988
0.0672315
-0.325874
-0.226852
0.357238
-0.130383
0.17748
-0.182172
0.00469135
-0.0404587
-0.00166475
0.0421235
-0.354126
0.127276
0.0879421
-0.332113
0.244173
0.122313
0.349598
-0.471911
0.316018
-0.209124
0.218084
-0.0298642
-0.188219
0.492611
-0.150826
-0.421025
0.284487
0.16144
0.171484
0.200236
-0.462136
-0.311695
-0.176164
0.487868
-0.4343
0.379445
0.0548632
-0.0393115
0.0196913
0.0196202
-0.245102
0.355979
-0.268035
0.397273
-0.43563
0.0383579
-0.165729
-0.0508244
-0.152037
0.378763
-0.226721
0.276731
-0.439008
0.0968816
0.0950157
-0.292993
0.197979
-0.121897
-0.340169
-0.534333
0.258766
0.275569
-0.558364
0.262956
0.29541
0.207847
0.250209
-0.458055
-0.465016
0.0973267
-0.438063
0.088012
-0.454181
0.120496
0.000852588
-0.0147888
0.0139362
0.115078
-0.23381
0.118732
-0.597657
0.338413
0.259247
-0.392895
-0.204759
0.100988
-0.216083
0.115095
0.309316
-0.487545
0.17823
0.280482
0.239704
-0.163954
-0.240226
0.404181
-0.274961
-0.0557585
-0.0936404
0.428198
0.117963
0.252201
-0.405422
-0.0288704
-0.197443
0.136189
0.0612537
-0.155504
0.0638479
-0.167568
0.103721
-0.0797957
-0.106094
-0.0409328
-0.0509152
-0.616252
0.299828
0.316425
0.242618
-0.220825
-0.0217939
-0.17806
0.166226
0.0118344
0.0403935
-0.424738
0.384352
-0.117142
0.18099
-0.208719
-0.0238477
0.0163597
0.107409
0.161102
-0.458979
0.297883
-0.300297
0.00767325
0.437303
-0.0890657
0.0625229
0.340586
-0.403106
0.00109399
-0.00801473
0.00692074
-0.0253079
0.188117
-0.162809
0.420736
-0.293208
-0.127527
0.00202173
-0.00937281
0.00735108
0.448422
-0.287314
-0.167609
-0.365904
-0.0306697
0.12089
0.355831
-0.197817
0.316703
-0.118884
0.0452105
0.327916
-0.373125
-0.0844725
-0.246468
0.155697
-0.41083
0.255135
-0.298644
0.100829
-0.17273
0.269712
-0.0969807
0.0475857
-0.130651
0.222527
-0.121539
-0.0794284
-0.325299
0.026535
0.372716
0.0252208
-0.267348
0.329874
-0.0298903
0.175284
-0.145393
0.488455
-0.179139
0.0998033
-0.0687131
-0.0310903
0.564668
-0.227599
-0.337069
0.186643
-0.169691
-0.0169521
-0.417396
0.100622
0.0103798
-0.00931157
-0.00106822
0.211981
-0.234727
0.0227464
0.111194
-0.332038
0.220845
-0.273364
0.100636
0.299291
0.121446
-0.410012
0.300486
0.109528
0.139385
-0.47554
-0.164939
-0.213459
0.22538
0.578999
-0.256108
-0.322891
0.213279
-0.187733
-0.0255455
-0.0282501
-0.185209
-0.141046
0.230139
-0.0213993
-0.208739
0.152239
-0.285209
0.190453
-0.0104644
0.00136918
-0.0318222
-0.157177
0.0943269
0.156971
-0.192953
0.201467
-0.00851441
0.156428
-0.486156
0.0183895
0.168254
-0.014572
0.477615
0.0181006
-0.0528492
0.0347486
-0.133984
0.352803
-0.514219
0.161416
0.246262
0.332738
0.378115
-0.396145
0.223177
0.316977
-0.0623474
-0.0351748
0.30856
-0.148403
0.380508
-0.232104
0.19993
-0.0224491
-0.00599025
-0.0731775
0.311007
0.228374
0.228554
-0.281804
-0.146866
0.301606
-0.197832
-0.103773
-0.355173
0.158843
0.196332
0.460965
-0.297165
-0.163798
0.28497
0.265929
-0.374113
-0.0358986
0.267053
-0.407652
0.140605
-0.421282
0.109594
-0.534198
0.294702
0.239499
0.158624
-0.487668
0.329044
0.260257
-0.254152
-0.0061046
0.0932244
-0.201065
0.107841
-0.212261
0.187554
0.0247078
-0.0290871
0.147313
-0.118226
0.120966
-0.150053
0.0230689
-0.00977738
-0.0132916
0.21706
0.0259698
-0.16503
0.13906
-0.267137
0.474985
0.430549
-0.0356546
-0.394894
-0.408902
0.204969
0.158772
0.142834
-0.345202
0.212249
0.132953
-0.279856
0.19044
0.176213
0.01424
0.424429
-0.286942
-0.137486
-0.373199
-0.199741
0.141349
-0.0937631
0.284726
0.236047
0.211897
-0.0968175
0.558747
-0.288281
-0.270466
0.00880933
0.00280954
-0.0116189
-0.133959
0.315628
-0.206289
-0.352073
0.00456737
-0.00254564
0.129156
-0.145786
0.0166303
-0.504326
0.402473
0.101865
0.317149
0.143817
-0.252197
0.469453
-0.217255
0.20893
-0.114603
0.221672
-0.513106
0.291435
-0.356622
-0.177709
-0.131913
-0.0136655
-0.0145991
-0.197662
-0.0827703
0.384292
-0.242126
-0.310085
0.209213
0.100874
0.16522
0.0764943
-0.241714
0.164841
-0.153606
-0.0112347
-0.2098
-0.162291
0.372091
-0.6081
0.359979
0.248121
-0.0303688
0.225788
0.33296
-0.314443
0.359655
0.041238
0.121817
0.294203
-0.416011
0.1538
0.0102466
-0.24198
-0.36612
0.258179
-0.0929581
0.52657
-0.229013
-0.297553
-0.201389
0.169567
0.197917
-0.495531
0.297615
0.353579
-0.0865219
-0.008926
0.00732287
0.00160313
-0.15172
-0.335825
0.127449
0.373315
-0.500763
0.192298
0.0378407
-0.00554083
-0.29297
0.298513
0.285725
-0.433651
-0.465066
0.0823006
0.382768
0.503402
-0.324199
-0.179192
-0.0172108
0.175705
-0.158494
-0.0742575
0.0227755
0.051482
0.214024
0.0752622
-0.289284
0.239922
-0.117245
-0.122677
0.17431
-0.20256
0.130102
-0.0516832
0.330158
-0.375601
0.0454432
0.0298212
0.172295
-0.0910558
0.421213
-0.509719
0.331033
0.178687
0.163765
-0.137795
-0.174327
0.242736
0.0152715
-0.258007
0.220424
0.0869449
-0.473317
0.318842
0.393753
-0.380017
-0.0137355
0.139338
0.298568
-0.514409
0.217984
0.296428
0.310399
-0.122405
0.457568
-0.12065
-0.336913
0.431038
-0.309212
0.0801054
0.377467
0.0110659
0.334308
0.255926
-0.360504
0.104578
-0.317293
-0.158453
0.47575
-0.543781
0.365062
0.17872
0.12407
-0.140034
0.0159648
-0.152379
-0.374215
-0.259465
0.45548
-0.196013
0.358043
0.126017
-0.48406
0.239081
-0.24462
0.0259021
0.367852
-0.223867
0.463092
-0.208575
0.17749
0.392182
0.347026
0.0352343
-0.38226
-0.200445
0.0253064
0.175139
-0.148686
0.10433
0.044356
-0.0774589
0.0706684
0.00679054
-0.230171
0.0372184
0.385886
-0.383495
-0.3564
-0.0609914
-0.0478178
-0.0264397
-0.0024785
0.512325
-0.315689
-0.196635
0.508159
-0.14229
0.117651
-0.364239
0.246588
-0.0119891
0.524721
-0.137064
0.48409
-0.0736604
0.0182202
0.0554402
-0.14
-0.18568
0.142292
-0.0107444
0.195154
0.317172
0.490788
-0.173638
0.111061
0.128861
-0.457621
0.258051
-0.133085
-0.255652
0.38874
-0.504953
0.217018
0.287947
-0.530367
0.309392
0.220976
0.0462203
0.299207
0.0805337
-0.442362
0.328266
-0.369312
0.0410459
0.266467
-0.439245
0.172778
0.331929
0.0925009
0.211368
-0.0370578
0.492883
-0.119568
-0.163731
0.430199
-0.423707
0.106418
-0.251464
0.185668
0.0657962
0.339812
-0.143266
-0.196545
0.0591487
-0.268948
-0.248528
-0.132083
8.75071e-07
-0.125269
-0.181577
0.228801
-0.0472238
0.233951
0.00878608
0.296216
0.100722
-0.396935
0.469204
-0.310579
-0.471604
-0.187887
0.272812
-0.0849237
-0.291014
0.103129
-0.0326479
0.000733037
0.0319149
-0.0328852
-0.082408
-0.247091
0.447332
-0.28589
0.285771
-0.190754
-0.00668136
-0.0593853
-0.533
0.24472
-0.284344
0.448268
0.357086
-0.346009
-0.429667
-0.114113
-0.13527
-0.254688
0.389961
0.451954
-0.155736
-0.124453
-0.187341
0.311795
0.433862
-0.00642741
0.174171
-0.376681
0.128158
0.335552
-0.47728
0.203661
-0.210266
0.00660582
-0.0239255
-0.0535334
-0.427404
0.293811
0.133594
-0.217228
-0.286901
0.428149
-0.269709
-0.158436
-0.393911
0.134448
0.270261
0.119609
-0.389865
-0.409371
-0.444203
0.301248
0.142956
-0.501236
0.162788
0.338448
-0.30736
0.220628
0.0867328
0.143205
-0.306744
0.163539
0.293099
0.135053
0.138549
-0.16844
0.481969
0.057118
-0.401474
0.344357
0.15937
-0.00471597
-0.209958
-0.3347
-0.232839
-0.297527
-0.229223
-0.114928
0.344151
-0.110379
-0.422422
-0.0138259
0.249563
0.0324737
0.180806
0.50327
-0.133478
-0.369789
-0.12551
0.389835
-0.26432
-0.00289424
0.222895
0.332094
-0.349017
0.230622
0.118394
0.483301
-0.187634
-0.295666
-0.518944
0.165724
0.353222
0.249603
0.27697
-0.193668
0.194971
0.0823457
-0.29345
0.211105
0.212282
0.127531
0.388319
-0.252804
-0.170558
0.313764
-0.333339
0.460192
0.159652
0.302564
-0.462212
0.0185688
-0.0177162
0.490515
-0.216637
-0.273877
0.275956
0.278583
0.245918
-0.382909
0.136994
0.502409
-0.352479
-0.149929
0.131589
-0.168229
0.236963
-0.176228
-0.0607356
0.284561
0.162621
-0.44718
-0.172708
0.284671
0.158333
-0.0385898
-0.119743
0.354673
-0.237022
-0.27228
-0.160776
0.433064
0.251845
-0.415798
0.0560596
-0.228162
0.172103
0.000294567
-0.0707364
-0.163651
0.43793
-0.314254
-0.123675
0.0828523
-0.350197
0.267348
0.250212
0.252198
-0.178145
0.166505
0.0116407
-0.337813
-0.181129
0.340164
-0.257308
-0.360125
-0.172875
-0.0460767
-0.340849
0.38693
-0.0727889
-0.155681
0.228471
-0.15773
-0.170166
0.327896
0.499836
-0.135758
-0.334982
0.305966
0.131965
0.121781
0.217722
-0.339502
0.385253
-0.13933
0.183985
-0.482924
0.298944
0.462342
-0.130412
0.037456
-0.118324
0.172146
-0.195601
0.0234554
0.00673049
0.00781204
-0.0074579
-0.02519
-0.390539
0.138343
-0.434354
0.484061
-0.0497074
0.00165822
-0.371323
0.358173
0.0131499
0.195148
0.295367
0.16337
0.325086
0.241239
-0.367234
0.125998
-0.146589
0.0191315
-0.187271
0.16814
-0.130899
-0.373417
-0.0769891
0.368125
-0.461763
-0.445369
0.315677
0.129697
-0.464956
0.167792
-0.32002
0.15124
0.00813007
0.200553
0.181051
-0.381604
0.270588
0.155817
0.220712
0.166449
-0.18902
-0.469838
0.185494
0.00782422
0.382396
-0.0541292
0.368425
-0.127183
-0.331173
0.48494
-0.153766
0.298833
0.246262
-0.130376
0.273784
-0.404352
-0.130135
0.299642
-0.217296
0.106349
-0.250841
0.289247
0.159382
-0.448629
0.0219264
0.0433669
-0.0652934
0.0150872
0.00798176
0.322844
-0.211649
-0.444875
0.273209
-0.272798
-0.150338
0.255239
-0.199179
-0.189158
-0.0761476
0.265306
0.0882428
-0.216826
0.128583
0.181375
0.00667907
-0.188054
-0.106289
-0.225349
0.33164
-0.360152
0.372158
-0.0120058
-0.0879547
-0.406037
0.187069
-0.0149228
-0.138487
-0.49486
0.204804
0.290059
0.0770747
-0.19469
0.117616
-0.0712627
-0.0930915
-0.0730907
-0.16345
0.236542
0.141135
-0.265586
-0.174003
-0.134963
-0.138399
0.448127
0.23497
0.119239
0.262312
-0.188639
-0.0736724
0.153036
-0.402745
0.249712
0.191683
-0.171187
0.216609
0.140631
0.0250216
0.161933
-0.186954
0.29849
0.135381
-0.43387
0.354164
0.102617
-0.456781
0.149955
0.229499
-0.316336
0.270262
0.118656
0.487032
-0.311025
-0.176003
-0.120538
0.545395
-0.249703
-0.295692
-0.0259489
0.146337
-0.0114507
0.208666
-0.326816
0.118156
0.233821
-0.356899
0.123081
-0.0420524
0.210203
-0.16815
0.238506
-0.362199
0.123696
-0.00127902
-0.370043
0.165647
-0.243694
0.0780475
-0.295526
0.291717
-0.124508
-0.167208
0.338209
-0.346001
0.00779516
-0.262856
0.482324
0.0719294
0.433451
-0.13496
0.020876
-0.133735
-0.0779257
0.0114989
0.0225487
-0.0340476
-0.290085
0.347204
0.134663
-0.427869
0.165341
-0.238431
-0.0880884
0.00488601
0.0832023
0.17018
-0.24335
0.0731706
0.131968
-0.41891
0.10336
-0.380201
0.276841
-0.445491
0.00097988
0.444512
0.203668
0.341728
-0.473611
0.312029
0.161585
0.235517
-0.147275
0.354953
-0.116444
0.319655
-0.233036
-0.0866167
0.0367508
-0.0124591
-0.0242917
0.578683
-0.332421
-0.299509
0.148329
-0.335834
0.187507
-0.0896591
0.13088
-0.409144
0.278266
0.374401
-0.165729
0.351173
0.111899
-0.0413539
0.0216964
0.0196575
-0.292217
0.458247
-0.166028
-0.271586
0.402469
-0.161192
-0.312416
0.050327
0.114514
0.0374396
0.199524
0.415789
-0.287694
-0.128094
-0.458574
0.140755
0.317823
0.252926
-0.404671
0.151745
0.232069
0.0875871
-0.120302
-0.0128912
-0.438159
0.1627
-0.434971
-0.0162954
0.0246512
-0.263206
0.238555
-0.328649
0.450962
0.475248
-0.299681
-0.175566
-0.102435
-0.23361
0.336049
0.046914
0.196704
-0.284891
0.4476
0.49682
-0.331434
-0.165385
0.21235
-0.0200508
-0.132677
0.349289
-0.00193159
-0.130612
0.431711
-0.301089
0.0111753
-0.0244595
0.0132842
0.507841
-0.356061
-0.151773
-0.0681624
0.00207222
-0.0978852
-0.26262
0.168079
0.01899
0.482676
-0.0521264
0.349915
-0.0117046
0.0584153
0.310325
-0.36874
-0.151627
0.404554
0.0608449
-0.250003
0.286638
0.152421
-0.439053
-0.431153
0.291592
0.139565
-0.0110508
-0.270484
0.0140668
-0.0119513
0.328981
0.176934
-0.469149
-0.449944
0.173204
0.276747
0.10521
-0.315324
0.210115
0.318648
-0.170318
-0.0868332
0.454959
-0.134906
-0.25713
0.39204
-0.424395
0.374053
-0.224091
-0.390721
0.265216
0.291706
-0.464941
0.181509
0.283436
0.0751652
-0.146655
0.00262856
-0.189016
0.186388
-0.119679
0.136038
-0.235744
-0.212048
0.447793
-0.0260334
-0.0153205
-0.250311
0.394084
-0.143768
-0.0603586
-0.240148
-0.115023
0.290952
0.167296
0.265203
-0.440162
0.174966
0.502252
-0.323652
-0.178597
-0.415054
0.453859
-0.0388028
-0.262205
0.127243
-0.153222
-0.0567785
-0.078871
-0.0698147
0.207304
-0.182653
-0.477788
0.310685
0.167104
-0.152955
-0.253323
0.406283
-0.231425
0.0498487
0.204454
0.0558039
-0.0602745
-0.136735
0.19701
-0.444997
0.0694847
-0.418011
0.145558
0.272455
0.180643
0.316178
-0.0135699
0.0106735
0.00289639
-0.0708862
-0.137554
0.208441
0.212638
0.444292
-0.458475
0.0141889
0.136397
-0.138316
-0.026714
0.197713
0.277535
0.00161743
0.22189
-0.283518
0.061628
0.189719
-0.296089
0.106371
0.523542
-0.173944
0.497986
-0.162434
0.029488
0.0573033
0.196742
0.0973753
-0.294115
0.324429
0.157574
-0.482002
-0.0531113
-0.135013
0.188124
0.0325719
-0.133908
-0.261901
0.395814
-0.261727
-0.278209
-0.205664
0.430035
-0.224371
-0.241997
-0.163419
-0.13633
-0.254813
0.391147
0.236651
-0.398542
0.1619
0.159506
-0.387697
0.228193
0.0961983
0.251327
-0.34752
0.143057
-0.340838
0.197782
0.21211
-0.201204
-0.010906
0.338613
-0.355035
0.0164252
-0.0876674
0.284411
-0.223602
-0.123005
0.346607
-0.00680354
-0.00676635
0.0123339
0.36968
-0.233799
-0.239517
0.0302056
0.0749711
-0.105177
0.32169
-0.295781
-0.0259072
-0.447837
0.269111
0.178727
0.451597
-0.160643
0.322071
-0.459135
-0.123296
0.307151
-0.183854
0.0214295
0.300262
-0.417901
0.453476
-0.0355731
0.124202
0.148611
0.33677
-0.193712
-0.110123
0.294642
-0.184517
0.00359678
0.0331541
-0.0222634
0.240348
-0.521622
0.299339
0.222285
0.234306
0.132348
-0.366651
-0.0317735
-0.2269
0.258673
0.211053
0.284991
-0.461757
0.176767
0.0812918
-0.0468532
0.285409
0.14357
-0.428972
-0.0857183
0.19678
0.19793
0.01442
-0.398633
0.258348
0.14029
0.270937
-0.429134
0.158201
0.214958
-0.431262
0.216307
0.309869
-0.17245
0.141662
0.00931385
-0.150975
-0.0458945
-0.419169
0.124815
-0.360559
-0.184737
0.139425
0.0243398
0.275387
-0.0534963
0.308254
-0.203042
-0.335038
0.229713
0.105326
-0.149997
-0.266453
-0.0977852
-0.0723636
-0.160661
0.38084
-0.220176
0.0814846
0.0503056
-0.13179
-0.00622193
0.171523
0.266607
-0.394681
0.128076
-0.230316
0.0915869
0.138729
0.112515
-0.425348
-0.0337261
0.459075
0.196356
-0.177224
-0.16304
0.448032
0.372513
-0.223778
0.150989
0.0985086
-0.293341
0.194834
-0.28277
0.323169
0.478586
-0.183303
-0.295283
-0.319726
0.455101
-0.135367
0.386057
-0.23302
-0.213005
0.393122
0.491905
-0.391182
-0.153155
0.418364
-0.159441
0.430384
-0.0368619
0.367859
-0.133551
0.283777
0.153849
-0.437625
0.19022
0.0218905
0.207006
-0.150295
0.176045
-0.372137
0.196093
0.176799
-0.171649
-0.00953603
-0.359776
0.255237
0.497042
-0.428671
-0.0683704
-0.2884
-0.110227
0.158273
0.0231016
0.277883
-0.518223
0.240344
-0.315176
0.440409
-0.12523
-0.256539
0.196532
0.060007
0.500954
-0.32031
0.317911
-0.0823938
0.20731
0.106003
-0.313312
0.212612
0.11107
-0.323679
-0.119089
-0.0995604
0.218649
0.269018
0.124846
-0.39386
-0.0217168
-0.149813
0.412025
0.0850173
0.341111
-0.00249553
-0.245072
0.154199
0.0908737
0.0758712
-0.0117901
0.0302669
-0.250604
0.218831
-0.291668
0.475657
-0.0894934
0.324739
-0.235241
-0.261561
0.345987
-0.084425
-0.405882
-0.0394834
-0.0680193
-0.188519
0.173508
-0.321911
0.198678
0.274691
-0.473369
0.13084
0.167421
-0.298261
-0.381441
0.139452
-0.211361
0.370871
0.421818
-0.0358875
-0.218264
0.287713
-0.189203
-0.248731
0.35265
-0.103919
0.108978
-0.433163
-0.468449
0.329799
0.138656
-0.0950705
-0.286599
0.38167
0.395066
0.142745
-0.001083
0.233571
0.0759525
-0.309522
0.309748
0.168839
0.0156225
-0.00148448
-0.014138
0.00731596
0.19969
-0.195785
0.491166
-0.29538
0.00117109
0.0766196
-0.463706
-0.0583099
-0.0153505
-0.33853
0.171045
0.497576
-0.247363
-0.0841713
0.291483
0.367712
-0.368991
0.11536
-0.352988
0.237632
-0.00690208
-0.0811863
0.360709
0.131198
-0.189975
0.128678
-0.109648
-0.384282
-0.0307703
0.306598
0.13875
-0.445347
0.405144
-0.134878
-0.0213854
0.232908
0.0850036
0.230864
0.137563
0.295508
-0.0262583
0.454335
-0.311695
-0.142632
-0.419119
0.25835
0.316183
-0.185342
-0.122618
-0.268624
0.391248
-0.0725496
0.102755
0.205894
-0.388848
0.182957
-0.257036
0.0798676
0.177169
0.157993
0.290435
0.35497
-0.149073
-0.141132
-0.327311
0.348988
-0.233625
0.188246
-0.185617
0.338046
-0.104474
0.241679
-0.0679496
-0.173728
-0.209047
0.0278029
0.181244
0.136728
-0.39177
0.255043
0.221681
-0.376106
0.154431
0.480561
-0.295461
-0.185099
0.179061
0.246017
-0.42507
-0.354836
0.106105
-0.0254152
-0.426592
0.45202
-0.2281
-0.124855
-0.126609
0.25724
-0.505209
0.134961
0.499547
-0.340135
-0.159411
-0.411216
0.0914959
-0.0229069
0.0205978
0.00230911
-0.383499
-0.0508538
0.0681109
0.314285
0.202342
0.0204614
-0.222803
0.300436
-0.150663
0.175685
-0.248606
0.427675
-0.201457
0.488239
-0.286777
-0.145237
-0.172014
0.317252
0.126417
0.263651
-0.390066
0.100893
0.34558
-0.114714
0.296509
-0.106789
0.240618
-0.369691
0.129076
0.0581682
-0.22397
0.085956
-0.0810699
0.303741
0.218364
0.136591
0.271628
-0.437111
0.16549
0.27157
-0.441053
0.169484
0.384943
-0.248213
-0.139718
-0.262028
0.401752
-0.315176
-0.180354
0.199959
-0.311487
0.11153
0.154838
-0.286823
0.19014
0.289309
-0.479448
-0.10945
0.0602061
0.0492437
0.0123138
0.129979
-0.368473
-0.150971
0.482006
0.170833
-0.190939
0.0201054
0.0240718
-0.287824
0.263753
-0.157642
-0.0160749
0.173717
-0.196372
-0.123047
-0.141826
0.264875
-0.00598545
-0.00954212
-0.338323
-0.157053
0.495383
0.437558
0.321602
0.17411
-0.0912172
-0.202232
0.280066
-0.423415
0.143349
0.167715
-0.431649
0.104504
-0.190222
0.378
-0.163899
-0.214101
0.43494
-0.285861
-0.149078
0.189771
-0.0189375
0.0340805
-0.0082704
-0.0258101
0.0397125
-0.0389795
-0.322073
0.178808
-0.316603
0.172385
0.144221
0.0900048
0.193484
-0.283485
0.248195
0.0906436
-0.338838
0.206027
0.294928
0.529344
-0.219426
-0.309916
0.175758
-0.191234
0.0154766
0.299998
-0.376107
-0.0417923
-0.175993
0.00338215
0.00699764
0.164089
-0.238604
0.0745158
0.0373731
-0.332757
0.295385
-0.163201
-0.314587
-0.180383
-0.0766527
0.347573
0.0873682
0.248156
-0.337645
-0.0735135
0.372869
-0.132248
0.260526
0.0363507
-0.296876
0.531765
-0.203849
0.259097
-0.134894
0.231279
0.106841
-0.338118
-0.241703
0.441909
-0.200206
0.257045
-0.246669
-0.010375
0.251746
-0.4001
0.148359
-0.15762
0.358173
0.417363
-0.110765
-0.217321
-0.304299
-0.285756
-0.202591
0.488349
0.000310439
-0.221565
0.221256
0.434833
-0.163262
-0.169342
0.31824
-0.148898
0.0230103
-0.0246038
-0.371624
0.386779
-0.0151538
-0.105165
-0.048441
-0.362199
0.273133
-0.303358
0.340732
-0.200786
0.0475635
-0.362439
0.204819
0.236999
-0.36326
0.126264
0.0951411
0.190631
-0.144305
-0.197189
0.287197
-0.17304
0.173351
0.271598
-0.247525
0.0829291
0.179383
0.194643
0.0090175
0.295012
0.234334
-0.510128
0.186005
0.324125
-0.247442
0.298349
-0.0509063
0.199009
-0.415368
0.0531686
-0.291321
0.509307
0.315189
-0.115228
-0.422581
0.26963
0.172059
0.291595
-0.386665
0.234733
-0.157658
0.0180375
0.00853701
-0.0265745
0.249002
0.136255
-0.220682
-0.170253
-0.288065
0.146599
0.252473
-0.399067
-0.172826
0.414242
-0.147634
0.183134
0.0182244
0.349487
0.190448
-0.199799
0.00935143
-0.0701598
0.330687
-0.156164
0.377837
0.447302
-0.0453235
-0.21054
-0.0970999
0.307643
0.157668
0.249267
-0.406931
0.354559
0.00508156
0.183164
-0.0192716
-0.00363532
-0.197419
-0.246783
-0.0468935
-0.0625612
0.270307
0.143937
0.00777114
0.00913369
-0.00788194
-0.0485704
0.0564523
0.00586281
0.0282177
0.136409
-0.0659675
-0.0704417
-0.171747
-0.014373
-0.322686
-0.367103
-0.134132
-0.157618
0.145331
0.0122867
-0.252531
-0.415428
0.247198
0.250385
0.136512
-0.386892
-0.138533
-0.0273715
-0.22007
-0.157501
-0.137036
-0.376068
0.0566398
-0.372328
-0.055947
0.0741672
-0.154717
-0.021487
0.176204
-0.453574
0.217299
0.236276
-0.147073
0.126832
0.0202416
0.158574
0.132883
-0.291456
0.428475
0.147907
-0.413296
0.26539
0.12741
0.267639
-0.395043
0.0183269
-0.13583
0.165651
0.374239
-0.447404
0.222741
-0.0325204
0.162856
-0.00905541
0.00123467
-0.0105462
0.0127293
-0.00599879
-0.0525598
-0.146006
0.198566
-0.0179941
0.198607
-0.180613
0.201303
0.232149
-0.0215675
0.255122
0.00192497
0.231567
0.148942
0.19482
-0.400484
-0.221651
-0.100422
0.0144995
0.115974
-0.130473
-0.0181922
0.222307
-0.0642516
-0.334771
0.263766
-0.487632
0.433217
-0.0616903
-0.0477594
-0.278133
-0.116547
-0.166065
-0.313831
0.168595
0.191245
0.186755
0.434731
-0.418727
-0.0159884
-0.401579
0.10548
0.2961
-0.283135
0.16009
-0.413485
0.055017
0.358468
-0.356577
0.519365
0.300998
-0.155159
-0.145838
-0.346308
0.0975682
0.24874
-0.182277
0.0232047
0.00763553
-0.0308402
-0.227367
0.2353
-0.336858
0.101559
-0.066191
0.05253
0.013661
-0.212355
0.181432
0.0309233
0.159991
-0.100362
-0.319037
0.419399
-0.180758
0.444523
0.250833
0.135912
-0.38674
-0.160146
0.425984
-0.265828
-0.294586
-0.196665
-0.187362
-0.279218
0.503042
-0.206157
-0.296884
0.10176
-0.0113827
0.286357
0.123378
-0.409734
-0.163275
0.02706
0.169297
0.225841
-0.288895
0.0630539
0.197746
-0.0219875
-0.303795
0.0993232
0.204472
0.195459
0.104184
0.354049
0.100283
-0.454333
0.106463
0.194536
-0.140029
-0.250751
0.390783
-0.258606
-0.151282
0.409892
0.239152
0.115521
-0.332018
0.481484
-0.149461
-0.00750053
0.155207
-0.147707
0.18002
0.278604
-0.458621
-0.142893
-0.257429
-0.190164
0.447593
-0.253996
-0.175614
0.429612
-0.127676
0.323203
-0.266563
-0.479493
-0.0809481
-0.175943
0.256892
0.256244
0.126836
-0.383078
-0.411943
0.142238
0.329148
-0.0603135
-0.0826499
0.269782
0.100634
-0.370414
0.279066
-0.406658
0.127592
-0.03739
-0.0840377
-0.132601
0.291174
-0.0256698
0.0083428
0.0173271
0.165597
0.079717
-0.245313
0.452444
-0.291458
-0.160982
-0.427969
0.0959559
-0.013915
-0.052276
-0.172503
0.142639
-0.282252
0.411045
-0.131979
0.238146
-0.167749
-0.0703971
-0.170792
0.485364
-0.163294
0.472701
-0.185516
-0.287182
-0.168856
0.461439
-0.292579
0.383197
-0.256778
-0.276214
0.360947
-0.0847301
0.314523
0.132051
-0.446574
0.419036
-0.147436
-0.203061
-0.17105
0.131739
0.267344
-0.399077
0.508296
-0.155492
-0.21888
0.461452
-0.242572
0.0822856
-0.409168
0.326882
0.239257
0.263786
0.403349
-0.147103
-0.426991
-0.00751126
0.434503
-0.0309228
-0.0404562
-0.00212772
0.0425839
0.0192683
-0.37942
-0.0123864
0.0304239
0.384445
-0.316334
0.193176
0.00146749
-0.0483381
-0.418004
-0.096737
-0.185205
0.168329
0.0168756
-0.00392496
0.00569784
-0.00177289
-0.146231
-0.264569
0.410805
-0.240434
-0.0630801
0.303515
-0.336728
0.139005
0.0272206
0.249391
0.335373
-0.38893
0.0535575
0.407075
-0.260472
-0.144782
0.448089
-0.361303
-0.0181029
-0.169168
0.0157065
0.168082
0.0156557
0.0989312
-0.114587
0.110328
-0.335674
-0.487175
0.277217
0.457025
0.49696
-0.34485
-0.152107
0.1073
-0.328052
0.220754
-0.276867
0.394136
-0.117262
-0.0312822
-0.038193
0.190471
-0.152278
-0.0915499