/*--------------------------------*- C++ -*----------------------------------*\
| =========                 |                                                 |
| \\      /  F ield         | OpenFOAM: The Open Source CFD Toolbox           |
|  \\    /   O peration     | Version:  v2012                                 |
|   \\  /    A nd           | Website:  www.openfoam.com                      |
|    \\/     M anipulation  |                                                 |
\*---------------------------------------------------------------------------*/
FoamFile
{
    version     2.0;
    format      ascii;
    class       volScalarField::Internal;
    location    "1000";
    object      V0;
}
// * * * * * * * * * * * * * * * * * * * * * * * * * * * * * * * * * * * * * //

dimensions      [0 3 0 0 0 0 0];


value           nonuniform List<scalar> 
18758
(
0.079983
0.0925196
0.113654
0.0826228
0.0616463
0.124492
0.0737639
0.0415589
0.0597774
0.0567145
0.102468
0.103846
0.0639078
0.0371076
0.0989742
0.0818379
0.105346
0.113364
0.0836223
0.0506381
0.0827337
0.00494015
0.133427
0.106297
0.00433128
0.00755002
0.0484713
0.0169088
0.0122108
0.0761811
0.0291719
0.044839
0.0407883
0.00525826
0.051121
0.0956797
0.0528854
0.0614668
0.0392351
0.11802
0.0939679
0.0590936
0.0978864
0.0922382
0.10687
0.0265306
0.0500542
0.0138172
0.00342834
0.0801846
0.104952
0.00729305
0.080731
0.0508382
0.00581915
0.0659521
0.0916051
0.0518859
0.014486
0.104863
0.0942106
0.0938834
0.0340051
0.017464
0.112704
0.00397118
0.104431
0.110916
0.0182974
0.124686
0.00683222
0.00730053
0.0815167
0.031972
0.0321909
0.02584
0.0271256
0.0818278
0.0507584
0.102585
0.0082985
0.0358989
0.0616426
0.0269089
0.098013
0.00686669
0.0239753
0.0392441
0.0376029
0.00686791
0.00832927
0.107359
0.00995318
0.00268067
0.0837043
0.0933298
0.107629
0.0130668
0.0858609
0.0862329
0.0196357
0.0329447
0.112225
0.101935
0.00419119
0.0635489
0.0122293
0.00744849
0.0343027
0.0672422
0.0922849
0.0149378
0.0828733
0.104916
0.0330708
0.0151338
0.0160232
0.1133
0.0143119
0.0937104
0.11388
0.0229599
0.0979347
0.102331
0.00271442
0.0481621
0.0974556
0.0955975
0.0111698
0.00174241
0.013774
0.105612
0.0261593
0.00421093
0.116059
0.0978349
0.0311765
0.092628
0.014773
0.0097922
0.0843166
0.0990976
0.0148084
0.0403798
0.0024935
0.0112427
0.003501
0.0113578
0.101868
0.0114231
0.00211865
0.00177057
0.0369369
0.0634939
0.0793907
0.0189471
0.0109622
0.00913454
0.0326575
0.0917648
0.00999327
0.0799094
0.00227744
0.00405688
0.023264
0.112004
0.0815991
0.008367
0.00202858
0.0949818
0.00196095
0.0930367
0.012034
0.09951
0.0359283
0.0689836
0.0747811
0.0060701
0.00526622
0.0370193
0.106823
0.0439752
0.00640903
0.0331563
0.0125189
0.0620541
0.0721896
0.0432976
0.00272257
0.0260674
0.00177361
0.0711871
0.0192896
0.028745
0.117128
0.0352672
0.0132871
0.0492163
0.00345212
0.116255
0.0982357
0.00904809
0.0260094
0.083569
0.0823377
0.00264935
0.0842196
0.0478826
0.00178868
0.00175242
0.120156
0.00986684
0.100163
0.0722242
0.0452978
0.110569
0.100311
0.0110201
0.102278
0.0927056
0.0334128
0.103465
0.016326
0.00981452
0.0236164
0.0979292
0.0315377
0.0059036
0.00986644
0.0777265
0.00687114
0.0128921
0.0349955
0.101445
0.0878861
0.0994545
0.0239216
0.00279801
0.012943
0.0470939
0.0967464
0.0226922
0.0163605
0.115537
0.0111704
0.0113731
0.0926465
0.103868
0.105
0.0735051
0.00219176
0.0960821
0.119556
0.0976221
0.115282
0.011807
0.112276
0.00748409
0.0843891
0.0412873
0.0719545
0.095663
0.0750887
0.0199027
0.0163028
0.0201274
0.079852
0.014557
0.0356544
0.0597643
0.0153398
0.00525784
0.0598397
0.0738207
0.115862
0.0438884
0.0245238
0.104205
0.0700355
0.0298626
0.102801
0.102328
0.0888935
0.00368966
0.0788373
0.0821466
0.102965
0.0142668
0.0802449
0.0946252
0.103837
0.0337765
0.0780371
0.109873
0.116779
0.104405
0.105762
0.104032
0.108506
0.00277672
0.026459
0.123747
0.123249
0.030292
0.0968128
0.0672812
0.075301
0.0630296
0.0911404
0.0572093
0.0858771
0.0199201
0.0127742
0.0153479
0.00958803
0.00455763
0.111962
0.0293752
0.0107528
0.107092
0.016517
0.0321208
0.0109312
0.0867956
0.10977
0.00126439
0.121767
0.08914
0.00266901
0.0224114
0.0729047
0.00441795
0.0874915
0.106873
0.0748688
0.0802148
0.04731
0.0953965
0.0375786
0.0865308
0.0488783
0.0371779
0.0139448
0.0333649
0.0717064
0.0317398
0.0810793
0.0698126
0.0144678
0.0987941
0.00405172
0.0966977
0.0124188
0.0761005
0.00235021
0.0405121
0.0433253
0.0404481
0.0741224
0.0735713
0.0925709
0.0128663
0.0321531
0.0914685
0.0264544
0.0314571
0.075093
0.0200296
0.0409607
0.0141919
0.00246621
0.0140796
0.0389796
0.022615
0.106934
0.0132825
0.109262
0.00380248
0.00957034
0.0982995
0.0893687
0.103645
0.0916861
0.00409351
0.0871051
0.08987
0.0125872
0.00243659
0.0383082
0.087701
0.0664009
0.0824252
0.0252528
0.0511042
0.0882246
0.101459
0.056365
0.0683098
0.0936627
0.105558
0.095423
0.0304085
0.0315986
0.0192824
0.0209043
0.0219104
0.00246001
0.0388567
0.0109339
0.105194
0.0960308
0.0805916
0.0325567
0.0453152
0.0362662
0.0145341
0.0642511
0.106329
0.0151638
0.0860464
0.020654
0.0930775
0.00302579
0.0185513
0.088614
0.117383
0.00357025
0.0102979
0.108195
0.0911535
0.0907135
0.0299159
0.113436
0.113753
0.0215471
0.0164701
0.0389538
0.072207
0.0376702
0.0310942
0.0130004
0.0471059
0.0993473
0.00377506
0.10127
0.0924941
0.00545401
0.0797989
0.0292588
0.095743
0.0301024
0.116918
0.0153593
0.104978
0.057179
0.0026243
0.0959898
0.106706
0.0188869
0.0588164
0.0833431
0.0997555
0.0881875
0.0212338
0.00578187
0.0405779
0.0163648
0.0320312
0.00606822
0.0848686
0.0126765
0.0914234
0.102444
0.0109369
0.020792
0.0305484
0.0369433
0.0984706
0.0761853
0.0747823
0.104718
0.048038
0.0902921
0.0832943
0.0764721
0.0790159
0.0571014
0.104934
0.110701
0.00885058
0.108611
0.0926617
0.0998037
0.0481074
0.074448
0.090042
0.0744222
0.107046
0.0866246
0.0172965
0.00666198
0.00492955
0.0210994
0.0984613
0.0632448
0.00433541
0.00357223
0.0773351
0.0991572
0.0487614
0.00321834
0.11235
0.106451
0.00932763
0.0476293
0.00881363
0.094256
0.0937242
0.0162498
0.102802
0.0757382
0.107024
0.0890271
0.0862125
0.108362
0.0810486
0.0859199
0.0707394
0.0320146
0.104144
0.0825287
0.0964116
0.025214
0.0364416
0.0349175
0.0672061
0.0143214
0.0259617
0.0288435
0.0801708
0.0927429
0.102529
0.0356082
0.0403886
0.00346355
0.0108445
0.100329
0.0824266
0.0334639
0.00771439
0.0978826
0.0964173
0.0816729
0.0907063
0.0789737
0.086561
0.0442186
0.0838524
0.013187
0.0744915
0.104211
0.0226459
0.00538218
0.0735941
0.0903044
0.0736816
0.0844269
0.0750628
0.0822609
0.0699893
0.0993388
0.0340375
0.0511962
0.07014
0.0138602
0.0942862
0.0980309
0.0105978
0.1227
0.0845817
0.0616329
0.113747
0.0300264
0.0244047
0.100787
0.0654293
0.0026114
0.10642
0.0563308
0.0943906
0.0918801
0.106069
0.0246035
0.0354756
0.033719
0.0684924
0.036964
0.0487543
0.102243
0.0955579
0.00258644
0.106287
0.12102
0.0679546
0.0753708
0.0268657
0.0217893
0.094127
0.0328527
0.0883649
0.0164724
0.0517312
0.0905223
0.077086
0.025112
0.00254078
0.0205911
0.0765895
0.0826781
0.0941688
0.0139022
0.0873746
0.0798363
0.0808804
0.0898668
0.0239514
0.0448361
0.115049
0.0613022
0.0770491
0.0655331
0.0669948
0.10505
0.0730355
0.00406787
0.108065
0.0161773
0.00158052
0.00250111
0.0855959
0.0919955
0.0286246
0.0828535
0.103697
0.0965251
0.0699384
0.0906873
0.0162871
0.0777931
0.0353856
0.0999946
0.0890669
0.088563
0.0434083
0.0110019
0.0948845
0.0723099
0.0673984
0.0148583
0.0924569
0.0129001
0.0833534
0.0645914
0.0362681
0.0932768
0.0880627
0.0283878
0.0943516
0.107489
0.0158766
0.0364509
0.0427841
0.0948791
0.00387143
0.00250756
0.0428881
0.0958573
0.0665065
0.0297846
0.0302732
0.0310895
0.0120768
0.0504166
0.0818736
0.0914826
0.0143602
0.0104071
0.092552
0.0190079
0.0275949
0.0553041
0.0336849
0.0375854
0.104026
0.036489
0.103252
0.0465909
0.0267346
0.0760776
0.0150917
0.0540495
0.059002
0.0186487
0.096988
0.0995367
0.0864459
0.0705284
0.0116238
0.103409
0.0679449
0.0854631
0.00912482
0.00862137
0.052279
0.0612006
0.0203089
0.0643181
0.0841875
0.0258588
0.0449876
0.0347907
0.0546047
0.108815
0.0089311
0.0907
0.00601477
0.00885942
0.0324458
0.00578609
0.0825347
0.0732779
0.0337629
0.0126345
0.0256051
0.0646787
0.0867467
0.100259
0.0913439
0.0944167
0.0304912
0.0584651
0.0360717
0.00456184
0.0945937
0.0938674
0.0467482
0.0374531
0.0803788
0.0632641
0.09489
0.00432871
0.094251
0.0788333
0.09166
0.0134143
0.0233127
0.0724937
0.0836414
0.0745852
0.0342685
0.0678406
0.0157059
0.0868282
0.0915707
0.0147096
0.0367407
0.103562
0.0819151
0.0561325
0.029123
0.0932459
0.0998784
0.0200575
0.0565302
0.0134491
0.084139
0.00409359
0.104208
0.0237001
0.0127108
0.0563838
0.015047
0.0947336
0.0511781
0.0906922
0.0717194
0.029961
0.0895467
0.0772694
0.0307464
0.00146906
0.092413
0.101211
0.0871355
0.0444321
0.0461707
0.0954688
0.0735116
0.1068
0.0912081
0.0821585
0.0658556
0.0705115
0.0947269
0.00846124
0.0186753
0.0126877
0.0110222
0.0856234
0.00415568
0.0731075
0.0683243
0.0503225
0.100494
0.0819405
0.102169
0.0894285
0.0322476
0.0140155
0.00747718
0.0276612
0.0927836
0.074578
0.0197897
0.0292479
0.0199904
0.115007
0.0703585
0.100419
0.00418457
0.0301473
0.0707149
0.098603
0.0111791
0.0100377
0.0726296
0.0014192
0.0394749
0.0418246
0.117058
0.102703
0.00485159
0.0439264
0.108531
0.0165019
0.0421452
0.0707207
0.119539
0.0638331
0.0707935
0.0724507
0.0839848
0.0699708
0.0704622
0.0503028
0.0243265
0.051222
0.040514
0.0618303
0.00346469
0.069332
0.0980774
0.0049848
0.0485552
0.0935299
0.0996818
0.101034
0.0434761
0.0472311
0.0877243
0.0386504
0.0512774
0.042429
0.00568736
0.0257414
0.0873307
0.0731733
0.046554
0.0471101
0.0901802
0.0123163
0.0898723
0.0169663
0.0187247
0.0667678
0.0817157
0.086067
0.0420367
0.0119278
0.0891263
0.0703484
0.0187788
0.0110562
0.0414717
0.045231
0.0509031
0.087999
0.0405829
0.0310103
0.0701326
0.00737924
0.0116499
0.0586066
0.0287108
0.00673112
0.107328
0.0171291
0.0924907
0.0857621
0.022797
0.0536853
0.0812246
0.0932151
0.0802191
0.0722182
0.0845777
0.0877619
0.077893
0.0868664
0.00471965
0.0673702
0.0915948
0.0214166
0.0223749
0.084275
0.0126619
0.0830973
0.0744287
0.104574
0.0624035
0.0115789
0.102239
0.0830616
0.0248159
0.102175
0.0361585
0.0454779
0.0469606
0.030457
0.0758464
0.00795578
0.0204187
0.104363
0.0508722
0.0345177
0.0442613
0.00234123
0.0435704
0.10522
0.0619611
0.0537962
0.0734274
0.0261021
0.0789006
0.108849
0.0645031
0.076029
0.0666961
0.092229
0.027877
0.0525632
0.0648422
0.101212
0.0836785
0.0706408
0.0845634
0.0102447
0.0567415
0.0950297
0.00214476
0.0252172
0.102769
0.00179767
0.11333
0.00935404
0.0603367
0.0909656
0.0927888
0.0437057
0.0839055
0.0807439
0.0129477
0.0782423
0.0281643
0.00774746
0.0841149
0.0867027
0.071953
0.0238222
0.0367722
0.0646016
0.0427743
0.0879303
0.0868282
0.0632679
0.067519
0.00484544
0.079168
0.0274816
0.0851471
0.0669343
0.0833149
0.0792101
0.0186292
0.0570102
0.0264579
0.0198369
0.0617598
0.0689757
0.0851383
0.0812135
0.0659322
0.0998917
0.0674931
0.0234925
0.0919229
0.0945209
0.099357
0.0746564
0.00436084
0.0869626
0.0836651
0.0284679
0.0827507
0.0174903
0.0812442
0.102232
0.0446266
0.0741615
0.0975533
0.0570689
0.041199
0.0649327
0.0228549
0.0132034
0.0443915
0.0625947
0.0949687
0.0883799
0.0611114
0.0724485
0.0505756
0.0447727
0.0729778
0.0999132
0.103564
0.00463411
0.00890173
0.095931
0.0986579
0.0196318
0.0559965
0.0206381
0.0297521
0.0356515
0.00246647
0.100874
0.0934357
0.0994683
0.035479
0.0769987
0.0905176
0.0165663
0.0839207
0.0766212
0.0198284
0.00198889
0.00333523
0.0370985
0.0493595
0.050698
0.0500445
0.0990285
0.0865157
0.0190187
0.0945921
0.0853946
0.104973
0.00250879
0.0232014
0.0757687
0.0942426
0.027047
0.0688251
0.0630072
0.0239784
0.0624404
0.0348356
0.0952838
0.0328861
0.0544279
0.0806126
0.0316714
0.0762402
0.0885693
0.0818803
0.0857368
0.106437
0.0310563
0.0889115
0.0518355
0.0101745
0.0499316
0.0760702
0.00912503
0.0926265
0.079713
0.0147675
0.0886735
0.059639
0.0339729
0.0937002
0.0509324
0.02428
0.0518715
0.0256913
0.0222265
0.0839626
0.0998941
0.0342159
0.0939026
0.0764941
0.105064
0.0443553
0.0756118
0.0125526
0.0704352
0.0219847
0.00433618
0.0698644
0.0814512
0.0148346
0.073045
0.0724113
0.0204301
0.0563406
0.0802471
0.0769262
0.0179813
0.0373404
0.0846636
0.086456
0.0454209
0.0843007
0.0862442
0.0203456
0.00440026
0.0651844
0.0097571
0.0654729
0.00175142
0.00761175
0.00209202
0.00539428
0.0209749
0.0431755
0.0968346
0.0108266
0.0311738
0.0826636
0.0671831
0.0617484
0.0279436
0.0899881
0.110742
0.0838911
0.0094402
0.0213186
0.0960398
0.00856052
0.0593859
0.0736856
0.0729899
0.0747708
0.00932198
0.0104225
0.114081
0.0222629
0.0239447
0.00247706
0.00163201
0.0217606
0.0224699
0.101957
0.00223188
0.0300408
0.0869911
0.0604869
0.0306211
0.00738311
0.0105518
0.0527783
0.057695
0.0921611
0.0681272
0.00434046
0.0398765
0.0975377
0.0445156
0.0846533
0.11066
0.0953919
0.0380692
0.0968255
0.106315
0.0358552
0.0424065
0.0243828
0.0025016
0.0930523
0.0415239
0.00710963
0.0211601
0.0873303
0.0589572
0.079608
0.0690595
0.0819446
0.0941027
0.0944232
0.0901077
0.00755079
0.0675297
0.0888632
0.0181088
0.0387178
0.0168461
0.0381705
0.0377596
0.0906504
0.037326
0.0745991
0.0776767
0.0433071
0.0882181
0.0112165
0.0942285
0.0732139
0.0974369
0.0807859
0.0682243
0.0723507
0.105238
0.0278801
0.0817899
0.0711503
0.0520102
0.00612917
0.0752956
0.0963617
0.00408451
0.0572889
0.00230992
0.029024
0.0897262
0.082018
0.00703601
0.0198115
0.0921049
0.0971754
0.024209
0.0206231
0.0992626
0.0971095
0.0962918
0.0728941
0.0615985
0.0912551
0.0595597
0.0515294
0.0707445
0.0960297
0.0901736
0.0963573
0.0845651
0.0811688
0.0687337
0.00328149
0.00668986
0.0815189
0.00450802
0.0860181
0.0218647
0.00690539
0.0859209
0.0406596
0.0147849
0.00271631
0.0770597
0.0419391
0.0978916
0.0102344
0.0717875
0.0809841
0.073777
0.0766963
0.10954
0.015646
0.0110571
0.0088158
0.0490269
0.1038
0.0976388
0.0924333
0.0533717
0.0746903
0.00661885
0.0165328
0.070005
0.0605754
0.0720614
0.0910597
0.00430715
0.0223963
0.106339
0.0962196
0.0312227
0.0903201
0.0657047
0.0996642
0.0563361
0.0592106
0.107057
0.0860458
0.062194
0.0246741
0.0140473
0.103178
0.0330091
0.00397368
0.0866145
0.00336182
0.0293939
0.0115254
0.10979
0.0772597
0.0421389
0.0179933
0.00368029
0.0918988
0.0333611
0.10055
0.0673649
0.0886606
0.0824331
0.0306632
0.0203732
0.0258746
0.0309544
0.089232
0.0686878
0.020634
0.0556573
0.104351
0.0132751
0.00674624
0.0068673
0.0300634
0.0936338
0.0471839
0.00175534
0.0532692
0.0839599
0.0692027
0.00756878
0.0917272
0.0952554
0.00783277
0.013606
0.0710867
0.0585713
0.0912855
0.00568626
0.0224124
0.00185591
0.0142623
0.0542097
0.0739883
0.0471517
0.0236272
0.0963208
0.0234649
0.0936891
0.0781838
0.0836214
0.0482189
0.0115901
0.0218373
0.00200076
0.0710084
0.0140184
0.0830467
0.04683
0.0845379
0.0828173
0.0125611
0.0894144
0.00262858
0.0938054
0.00707827
0.0130695
0.0643444
0.0893313
0.070291
0.0261909
0.0998327
0.074316
0.100022
0.00240116
0.0416085
0.0735981
0.0838041
0.0613099
0.0888576
0.0426397
0.0755115
0.0703898
0.00351986
0.0240001
0.0663795
0.0791176
0.0391149
0.0773263
0.100909
0.00906165
0.0516084
0.0145169
0.0604304
0.0794352
0.00414864
0.0594883
0.0175178
0.012115
0.091836
0.0978225
0.00389314
0.103073
0.0852546
0.0241731
0.00744063
0.0431863
0.102496
0.0664448
0.0998912
0.0730055
0.095867
0.0305852
0.0892895
0.0623919
0.00325676
0.0921114
0.0424317
0.0871563
0.0718219
0.00275313
0.072987
0.0725708
0.0235308
0.00425666
0.0967831
0.103382
0.0655709
0.0234753
0.0138672
0.0107861
0.0963858
0.092517
0.0424629
0.0917742
0.0979438
0.085958
0.045493
0.0469543
0.0730353
0.0371763
0.092337
0.0692961
0.0751652
0.0572996
0.0469546
0.0208119
0.0884703
0.0646743
0.0937779
0.0945725
0.0922212
0.0879493
0.00483668
0.00956469
0.0331393
0.00923624
0.0824502
0.0937969
0.0995066
0.0946666
0.0858089
0.0459703
0.0660092
0.0754891
0.035504
0.085325
0.097749
0.0262716
0.0479112
0.0627356
0.0103808
0.0705356
0.0200054
0.0060031
0.00789394
0.0415426
0.0280734
0.0227944
0.0732435
0.0795262
0.00855875
0.00377405
0.0964289
0.0135189
0.0839632
0.0583953
0.030017
0.0954723
0.013362
0.0441801
0.0866546
0.0186167
0.0723106
0.0535895
0.00425289
0.0650159
0.0941532
0.0183165
0.034722
0.087724
0.0199902
0.0219672
0.0897429
0.0540849
0.0379936
0.0851013
0.0491653
0.0752541
0.0990882
0.00458174
0.0947243
0.00833503
0.0097254
0.0618272
0.047565
0.0621854
0.0750692
0.0144346
0.0399497
0.0927723
0.0951631
0.0352314
0.00448027
0.0255919
0.00443055
0.0203045
0.0150896
0.103554
0.0914807
0.0283551
0.100213
0.0337207
0.0243237
0.00366644
0.0664997
0.0215184
0.0854213
0.00809005
0.062269
0.108075
0.0132663
0.0133282
0.0592368
0.0725767
0.0553732
0.0701699
0.0259635
0.0714004
0.0530841
0.0727403
0.0655347
0.0219855
0.0962564
0.0897149
0.00223387
0.0904113
0.0063868
0.00845315
0.00655951
0.0721035
0.0812094
0.0867383
0.0685747
0.0331596
0.00284351
0.018359
0.062334
0.0884422
0.0714147
0.0213064
0.00460958
0.0349774
0.0069296
0.00800123
0.0032967
0.0385836
0.0712047
0.0598236
0.0851276
0.101492
0.0964084
0.0282466
0.0615122
0.0757751
0.0727718
0.0693589
0.0243529
0.0833703
0.0265152
0.0517043
0.0929651
0.0130886
0.00272199
0.0299513
0.0950629
0.0699671
0.0677351
0.0659377
0.0733131
0.0535377
0.00727507
0.0676264
0.0973287
0.0381659
0.0765541
0.0862245
0.0801573
0.0686732
0.0745958
0.0258708
0.0335712
0.0788115
0.0703847
0.0705426
0.0931467
0.0917349
0.0826134
0.053764
0.00465828
0.0714254
0.0167219
0.0456722
0.0203457
0.0516897
0.0469278
0.00345007
0.0440645
0.0868476
0.0386543
0.0727014
0.0478433
0.0997629
0.0792103
0.00605344
0.0959887
0.0102204
0.0741355
0.0826339
0.0148994
0.003678
0.0757459
0.0591851
0.0158405
0.0581068
0.0529923
0.096315
0.0844358
0.0247822
0.0149111
0.00542295
0.00257408
0.0756036
0.0756093
0.0516806
0.0691441
0.0905953
0.043738
0.104081
0.0448439
0.0984841
0.100688
0.0778399
0.0904011
0.0350549
0.0349241
0.0918221
0.039196
0.00550715
0.0249242
0.00753332
0.0462584
0.0407019
0.0949643
0.018421
0.00538337
0.0545021
0.0028009
0.0870896
0.0490522
0.102859
0.0117505
0.0987666
0.0142751
0.0772115
0.108732
0.0138293
0.0962985
0.067385
0.0800108
0.0892862
0.0358233
0.0842609
0.080893
0.00258869
0.0577092
0.0525148
0.0343774
0.0485705
0.0896022
0.0354072
0.0712045
0.0593757
0.0728617
0.088298
0.048214
0.0844931
0.00527124
0.0919446
0.0810542
0.0934609
0.0976263
0.100147
0.0345502
0.0963331
0.0965716
0.0696237
0.0837878
0.0186243
0.0790713
0.0205174
0.00930449
0.0146806
0.0143949
0.0384269
0.0497855
0.0679816
0.00404468
0.0852909
0.0526378
0.0872223
0.0498767
0.0569365
0.0394757
0.011768
0.081456
0.0777266
0.0343805
0.0654723
0.0729471
0.0715265
0.0270232
0.0700261
0.0697246
0.0220294
0.0946989
0.0223078
0.0804918
0.0531623
0.0504544
0.103654
0.0490843
0.0947727
0.0332421
0.0955195
0.0160632
0.0970866
0.0802019
0.0813112
0.0355839
0.00287607
0.0808373
0.0370505
0.0274668
0.0382828
0.0860893
0.0643999
0.0935043
0.0331595
0.0812546
0.0801912
0.0587329
0.0179442
0.0226836
0.00369098
0.0830366
0.0916328
0.0746825
0.0207529
0.0962648
0.00672311
0.0707933
0.0354598
0.0862439
0.0720977
0.0165697
0.0571467
0.0971927
0.072779
0.0215878
0.0092301
0.0976638
0.00962216
0.00438872
0.0514354
0.0155989
0.0406318
0.0674417
0.0547298
0.0900048
0.0208133
0.0419202
0.0843205
0.0998686
0.092423
0.0840328
0.0992786
0.0519999
0.0607843
0.0085997
0.096513
0.0722833
0.0542996
0.0950288
0.0763133
0.00443922
0.00772948
0.0861036
0.0295472
0.030782
0.083614
0.0814242
0.07472
0.0964612
0.0173667
0.0860464
0.0986221
0.0931531
0.0110438
0.0159003
0.0284126
0.022108
0.0935557
0.0723901
0.02504
0.0987212
0.0278423
0.00488016
0.101438
0.0098574
0.0942199
0.00273153
0.0990728
0.00207647
0.0442375
0.0446407
0.0448551
0.0728523
0.0134221
0.0953797
0.0657042
0.026084
0.0557141
0.0568095
0.0889976
0.0953755
0.0688067
0.0134813
0.00207239
0.0734845
0.0800305
0.0502336
0.0705223
0.0475066
0.0895066
0.0121411
0.0868659
0.104597
0.0674461
0.0853767
0.089969
0.00995981
0.0273647
0.0154083
0.01027
0.0843264
0.0958057
0.0955875
0.0597951
0.0859106
0.068529
0.057769
0.0731556
0.00700429
0.0908411
0.0819269
0.0433267
0.0326799
0.0832045
0.00269652
0.00288672
0.0967094
0.0601667
0.00813903
0.0956119
0.0860248
0.0286476
0.0878717
0.0965335
0.0290832
0.0101536
0.0737057
0.0901288
0.0182854
0.030467
0.0118993
0.0771329
0.0115581
0.00596413
0.0481582
0.0376466
0.0637051
0.0485078
0.0257638
0.0577222
0.0529017
0.00456003
0.0248832
0.0663981
0.0365699
0.0318076
0.0269883
0.0878223
0.0939376
0.0371464
0.00941683
0.071965
0.072178
0.0554391
0.0116682
0.0880091
0.0511522
0.00956155
0.0816279
0.0872388
0.023969
0.0951142
0.00577442
0.0297853
0.0422274
0.0319351
0.0921149
0.0102038
0.0210801
0.025217
0.0300011
0.00857935
0.0894518
0.100772
0.0101137
0.0555475
0.0996985
0.0855447
0.0131111
0.090704
0.0103002
0.0663599
0.0907061
0.0146795
0.105182
0.00705479
0.0804201
0.00853431
0.00363728
0.0551105
0.0950925
0.00621116
0.0253801
0.0248492
0.0899601
0.0960734
0.00470169
0.0298439
0.0594284
0.07305
0.0478185
0.0904773
0.0732791
0.0260684
0.0765683
0.0795845
0.025384
0.0586503
0.0909065
0.096311
0.0419874
0.00783002
0.109277
0.0523499
0.0181977
0.0415155
0.0740899
0.0834733
0.0959189
0.0411601
0.0227428
0.0406348
0.0321157
0.0631814
0.0963817
0.0109708
0.00959455
0.0428042
0.0987319
0.0384047
0.0187293
0.081033
0.0178055
0.0320544
0.0170789
0.0956151
0.0246627
0.0961695
0.0232805
0.0803039
0.0931273
0.0868779
0.0228651
0.0974617
0.0928121
0.0247148
0.0321331
0.00311775
0.0929883
0.0846181
0.098106
0.0862542
0.0151728
0.0683245
0.0528395
0.0139605
0.0809661
0.0821257
0.0422755
0.0155512
0.00577518
0.0974401
0.0820894
0.0110778
0.0515636
0.0320903
0.0769955
0.00831024
0.0563124
0.00536616
0.0250574
0.0848732
0.00442479
0.0971796
0.0753448
0.0478965
0.0951431
0.0370593
0.00434153
0.0340989
0.00309818
0.0968492
0.0749492
0.0546609
0.014383
0.0726937
0.00369685
0.0692743
0.0407176
0.0231687
0.0203747
0.0941506
0.085923
0.0912788
0.0967513
0.00885724
0.0849439
0.0298599
0.0481916
0.0797723
0.00361196
0.0924764
0.0250287
0.0863657
0.00255741
0.071142
0.0582441
0.00186744
0.097778
0.101295
0.027056
0.0250417
0.0946744
0.00249921
0.00931762
0.0240885
0.068474
0.0313168
0.0421711
0.00410932
0.0921058
0.0430651
0.0716935
0.0202733
0.00567013
0.0727166
0.101252
0.0082898
0.0294494
0.0537653
0.055964
0.0861988
0.0138957
0.0298582
0.0327537
0.0866374
0.104372
0.0953186
0.0381423
0.0989493
0.0723788
0.0493305
0.0930931
0.0856556
0.0365097
0.0943706
0.0627827
0.0483152
0.00947278
0.024855
0.00813732
0.0888333
0.00961898
0.0986841
0.07127
0.0911738
0.0274018
0.0734029
0.0700491
0.0675612
0.0140656
0.0987105
0.0559392
0.0028454
0.0465591
0.00216718
0.0902663
0.0816405
0.0216933
0.0833319
0.0476325
0.118014
0.072713
0.00855252
0.0886897
0.00523739
0.0845631
0.0860922
0.0209612
0.0337843
0.00869473
0.0135033
0.0722748
0.0316229
0.0253595
0.003392
0.0159389
0.0949189
0.0442416
0.0605634
0.011272
0.093154
0.0081497
0.0556553
0.0794646
0.0360838
0.0950029
0.00283138
0.0841808
0.0967424
0.0328201
0.0136856
0.0149207
0.00494612
0.00198122
0.0944593
0.0333535
0.00224566
0.039625
0.00383931
0.0347658
0.0954202
0.0639886
0.0252539
0.0304951
0.048531
0.0776483
0.0345364
0.0149031
0.0189332
0.00253037
0.0150809
0.0325962
0.0833879
0.0195744
0.0981214
0.0064246
0.0204812
0.0193962
0.0869547
0.0722372
0.0231683
0.036802
0.0955746
0.0363152
0.0907099
0.00268077
0.0334625
0.00276559
0.109724
0.0486605
0.0149199
0.0180576
0.0879135
0.0976317
0.0711305
0.0382266
0.0150632
0.0629681
0.0834853
0.0358806
0.00509591
0.0827626
0.0970436
0.0456194
0.0280751
0.0871585
0.00505505
0.0572088
0.0939216
0.0155302
0.043143
0.073024
0.0336986
0.00465217
0.0601821
0.0157713
0.0767422
0.0291692
0.0536191
0.0518944
0.0243834
0.0244861
0.0103121
0.0950631
0.0888602
0.00545663
0.0756496
0.097798
0.0314976
0.0255846
0.0075017
0.0366549
0.0575717
0.0336944
0.0753661
0.0262729
0.00410935
0.0938436
0.0851689
0.0954173
0.0173986
0.0651848
0.049466
0.0960064
0.0305765
0.0175519
0.0557425
0.00250512
0.0964894
0.00634564
0.0950964
0.0912715
0.0284489
0.0492306
0.106522
0.0302529
0.0291792
0.0741946
0.0975322
0.0923404
0.0230787
0.0195971
0.047424
0.074656
0.0856958
0.0315644
0.0744203
0.0861778
0.0318841
0.00735703
0.0961296
0.0981592
0.00465278
0.0955972
0.0720308
0.0692323
0.0816145
0.0889127
0.00836572
0.1009
0.0684697
0.00523138
0.0434365
0.0117471
0.0977988
0.0937062
0.0032378
0.0196219
0.0536611
0.00770631
0.102336
0.0163322
0.0738317
0.0379033
0.0574722
0.0740374
0.096986
0.0107233
0.0342065
0.0342355
0.00410474
0.0353902
0.0160268
0.00415848
0.0254992
0.0306571
0.0924081
0.0249436
0.0048393
0.0606562
0.0554367
0.0521412
0.0260273
0.00466254
0.088567
0.0529636
0.0696305
0.099728
0.0660368
0.0170457
0.00361349
0.0933547
0.0317087
0.0880649
0.00275554
0.062143
0.0200265
0.0113519
0.0719316
0.0602099
0.00495007
0.0237901
0.0458987
0.0344311
0.019286
0.0287569
0.0787497
0.0298332
0.0438548
0.0362478
0.0719289
0.024242
0.0651017
0.094108
0.0228822
0.0298564
0.00457058
0.0295901
0.0147432
0.0945575
0.0725616
0.00397134
0.00273929
0.068788
0.0832438
0.0367783
0.00249993
0.0137987
0.0117646
0.0970011
0.0587892
0.058257
0.0957915
0.048293
0.0883549
0.0112537
0.0634074
0.00618614
0.00613714
0.0954946
0.00334401
0.0154816
0.0931424
0.064449
0.0733142
0.0716289
0.0494996
0.0622571
0.0921454
0.0765823
0.0145085
0.0854178
0.0858741
0.00175629
0.00415094
0.0968593
0.092246
0.0290151
0.0374364
0.0771034
0.0463936
0.0513966
0.0311602
0.00256095
0.0928422
0.0284344
0.0036496
0.0962171
0.0950598
0.0251242
0.0249946
0.0764563
0.00290024
0.078845
0.00459257
0.0146897
0.0975178
0.0340593
0.00553867
0.0301046
0.0711937
0.0728298
0.00194221
0.0961109
0.0542768
0.00746808
0.0146645
0.0701115
0.0270919
0.0606478
0.0435404
0.0680504
0.0237183
0.0918193
0.0336295
0.00713512
0.096517
0.00380881
0.0296238
0.0959005
0.0206127
0.00372962
0.046484
0.0943254
0.00500597
0.00400071
0.00267133
0.0869272
0.0449198
0.0357186
0.00377483
0.00214596
0.0475914
0.050611
0.0540902
0.0264649
0.0426168
0.0919515
0.0406065
0.0775663
0.006653
0.0367145
0.036807
0.0915201
0.00366071
0.0386404
0.00674118
0.00331461
0.0680629
0.0787416
0.0151243
0.0143659
0.0855174
0.0413159
0.0572098
0.0039001
0.00195259
0.0600073
0.00266844
0.0218733
0.0717948
0.00392077
0.0214998
0.0154532
0.0041201
0.00355165
0.0805937
0.00542665
0.0943083
0.0973568
0.00284923
0.0234844
0.0949318
0.00771821
0.0733036
0.00511154
0.0845607
0.0304585
0.0392051
0.00434374
0.00338037
0.0317482
0.0928847
0.0720514
0.0378679
0.0962991
0.0205847
0.00755652
0.0156641
0.022383
0.0925308
0.0970628
0.0337211
0.0956676
0.0844904
0.0867182
0.0983365
0.0951611
0.0280902
0.00282617
0.015987
0.0211821
0.00858275
0.0640346
0.00200595
0.0948225
0.0249728
0.0359813
0.100131
0.096899
0.0519206
0.0976048
0.00786803
0.100282
0.0970272
0.00686912
0.091843
0.012191
0.0299928
0.0147931
0.01488
0.0957247
0.00825757
0.00536918
0.0708115
0.048197
0.00333895
0.0150417
0.0330809
0.0916806
0.0416537
0.0941732
0.0244752
0.0995042
0.00344665
0.0861137
0.0689996
0.0021231
0.040352
0.0945931
0.0719608
0.0834357
0.0845167
0.0595563
0.0902515
0.0865243
0.0202751
0.00919202
0.00817416
0.0930429
0.00756141
0.038682
0.086352
0.0969144
0.0861344
0.0607872
0.0765058
0.0091637
0.0858309
0.0598139
0.0622001
0.00442893
0.00408583
0.0889027
0.0318703
0.00810039
0.00722068
0.0421451
0.00692798
0.0661901
0.0343689
0.0889775
0.0151248
0.0131319
0.061978
0.0102878
0.0938535
0.10072
0.0770965
0.0963733
0.0597337
0.0784009
0.0948181
0.033768
0.1079
0.00840154
0.0255033
0.0419374
0.0257292
0.0491429
0.0439903
0.0233479
0.0212829
0.0118488
0.00844722
0.0927619
0.062662
0.0945701
0.0042554
0.071781
0.0941885
0.0584737
0.095832
0.00603324
0.00448889
0.0941459
0.00391799
0.00472266
0.00548424
0.00479337
0.0677955
0.0948833
0.0114285
0.0757399
0.0862059
0.00489826
0.0919894
0.00560293
0.093586
0.0608933
0.0254011
0.00469312
0.0975688
0.0205649
0.0925224
0.0784637
0.00747006
0.0956866
0.0144209
0.0313634
0.00961172
0.0394797
0.0234349
0.0538791
0.00821082
0.0856986
0.0140775
0.013496
0.0599828
0.0615889
0.00918738
0.00426324
0.00472743
0.0489217
0.0145866
0.0955794
0.00448372
0.0227995
0.074397
0.0384934
0.00853613
0.0235736
0.0935144
0.0103199
0.0676642
0.00710012
0.00990099
0.0751966
0.00584172
0.070044
0.0382021
0.0840317
0.0952958
0.0405387
0.0292155
0.0103268
0.0481111
0.00884285
0.0942818
0.0608777
0.0941995
0.0860427
0.0487386
0.0634534
0.0970539
0.0150549
0.079537
0.0850949
0.0737637
0.00182977
0.0145261
0.00560267
0.0475939
0.00956605
0.0842503
0.0620574
0.043791
0.00920979
0.0326738
0.095343
0.00729955
0.0635372
0.0276018
0.0437621
0.0336715
0.036013
0.0215819
0.00826931
0.0714178
0.0862492
0.0783971
0.0550015
0.00880267
0.0268929
0.00317385
0.0909593
0.0424536
0.0432278
0.0130555
0.0731624
0.0825083
0.0855854
0.0482121
0.0314169
0.0796061
0.0626635
0.00432053
0.100837
0.0123845
0.0867939
0.0158236
0.00312283
0.0459007
0.0104709
0.00514167
0.00503714
0.00564184
0.0494908
0.00307762
0.0417168
0.00949778
0.0892786
0.010263
0.050002
0.0234204
0.0513572
0.0117511
0.0136934
0.0129961
0.0843345
0.061412
0.0947249
0.0950164
0.00979679
0.0197828
0.00586864
0.0331688
0.00521473
0.0602698
0.0070221
0.0109132
0.0795737
0.0967155
0.0584505
0.0146365
0.0100507
0.0366604
0.0984765
0.0926511
0.106682
0.110242
0.108049
0.0943786
0.0738117
0.0118532
0.00311186
0.0662245
0.0253944
0.0711664
0.00315902
0.0412356
0.0502928
0.0103867
0.0930828
0.0838288
0.0328454
0.0883825
0.0925763
0.00250709
0.0989984
0.0206799
0.0109893
0.0112787
0.0935852
0.0451462
0.0512767
0.092367
0.10228
0.106204
0.0966374
0.0216557
0.0869187
0.00757114
0.0539226
0.0323351
0.0252178
0.0485423
0.102883
0.00524818
0.0415814
0.0145041
0.0364163
0.0249786
0.0144341
0.0046203
0.0119928
0.00404042
0.0261672
0.0108215
0.0129575
0.0701159
0.014046
0.0324752
0.0905671
0.0231829
0.0104879
0.0894959
0.00487615
0.0771849
0.00674531
0.0869837
0.0985187
0.0104953
0.0351802
0.00424016
0.00464766
0.0896453
0.00863385
0.0249084
0.00941065
0.00774307
0.0939919
0.0723319
0.0867731
0.014507
0.0116628
0.0690264
0.0531244
0.113787
0.0134867
0.0730556
0.00622738
0.00866211
0.0265133
0.0877327
0.0406357
0.00396774
0.0872957
0.020763
0.0156504
0.0109496
0.0292293
0.0782809