/*--------------------------------*- C++ -*----------------------------------*\
| =========                 |                                                 |
| \\      /  F ield         | OpenFOAM: The Open Source CFD Toolbox           |
|  \\    /   O peration     | Version:  v2012                                 |
|   \\  /    A nd           | Website:  www.openfoam.com                      |
|    \\/     M anipulation  |                                                 |
\*---------------------------------------------------------------------------*/
FoamFile
{
    version     2.0;
    format      ascii;
    class       volScalarField;
    location    "200";
    object      k;
}
// * * * * * * * * * * * * * * * * * * * * * * * * * * * * * * * * * * * * * //

dimensions      [0 2 -2 0 0 0 0];


internalField   nonuniform List<scalar> 
18355
(
0.0285058
0.000136963
0.000241325
0.000140891
0.000202381
0.000336519
0.000147349
0.000203488
0.00015134
0.00467353
0.00016015
0.000204894
0.000206578
0.0147039
0.000142709
0.00013543
0.000140877
0.000156525
0.000235987
0.000149665
0.000257789
0.000149135
0.0001369
0.000340315
0.000136975
0.000150333
0.000147565
0.000141005
0.000152054
0.000161774
0.00663759
0.000181078
0.000137715
0.000134347
0.000145575
0.000150048
0.000158309
0.000150416
0.000162695
0.000148858
0.000151321
0.000161297
0.000134497
0.000136793
0.000136887
0.000239606
0.000141225
0.000141103
0.00732412
0.000144756
0.00014222
0.022553
0.000144961
0.000222815
0.000143134
0.000149839
0.000145092
0.00990542
0.000150862
0.000316248
0.000134449
0.000193194
0.000221191
0.000146118
0.000188041
0.000140231
0.000154255
0.000158381
0.000134071
0.00429492
0.000142473
0.000143171
0.000174419
0.000158976
0.000438672
0.00013425
0.00685038
0.000134364
0.000142154
0.000371705
0.000154229
0.000329572
0.000134182
0.000156371
0.000174111
0.000148908
0.000153561
0.000166796
0.000140553
0.000167201
0.0143667
0.000258524
0.00032229
0.000144762
0.00191849
0.000149939
0.000140103
0.000146017
0.000187221
0.000148827
0.000172584
0.000141765
0.000144508
0.000130586
0.000154782
0.000135544
0.000187937
0.00213347
0.00016232
0.000135063
0.000141933
0.000147064
0.00016879
0.000155978
0.000251226
0.000161767
0.000141492
0.000426567
0.000152651
0.000153851
0.00400962
0.000242432
0.0158361
0.000170296
0.000405674
0.000244433
0.000147617
0.000141234
0.0385682
0.000147633
0.000140186
0.0176153
0.000143567
0.000190398
0.000197483
0.000140564
0.000237533
0.00363634
0.000142391
0.000257794
0.00015584
0.000229035
0.000141039
0.0341326
0.000197736
0.000146629
0.000314002
0.000131414
0.000168634
0.00547441
0.000140929
0.000153666
0.000145008
0.000181654
0.000134611
0.000138228
0.00014141
0.000148844
0.000141121
0.000139229
0.000157502
0.000143684
0.000135116
0.000203303
0.000159976
0.00226731
0.000325682
0.0447185
0.000492601
0.000155862
0.000146179
0.000188105
0.000147989
0.00755952
0.000145755
0.000150704
0.000146335
0.000130274
0.00015106
0.000161641
0.000149071
0.00200792
0.000148501
0.000141275
0.000269424
0.000144459
0.000149333
0.000167036
0.000143299
0.00014817
0.000241175
0.000187281
0.000137209
0.000134873
0.000143814
0.000254995
0.000139404
0.0496954
0.000137052
0.0163253
0.000144214
0.000153472
0.000163322
0.000148737
0.0430085
0.000146803
0.000479472
0.000141242
0.000137237
0.000144504
0.000146951
0.000272149
0.000154178
0.000149727
0.000131601
0.00768044
0.000161797
0.000155725
0.000147039
0.000141399
0.000161633
0.000133974
0.00016529
0.000181476
0.000213098
0.000162524
0.000134192
0.00376384
0.000325526
0.000169441
0.00014573
0.000154779
0.00248914
0.000134137
0.00020354
0.000235547
0.000148963
0.000241573
0.000154924
0.00014979
0.000137264
0.000150838
0.000146808
0.000167527
0.000146822
0.000143128
0.000140995
0.000283713
0.000321898
0.000143259
0.000148974
0.000319174
0.000217846
0.000184377
0.000130299
0.00021608
0.000154929
0.00014757
0.000161554
0.000139665
0.00571805
0.00119024
0.00018415
0.000160808
0.000164368
0.000203762
0.000212852
0.000190305
0.00013961
0.00014317
0.000149103
0.000135151
0.000153451
0.000155978
0.000140669
0.000146954
0.000171077
0.000140408
0.00018632
0.00635836
0.000167045
0.000147203
0.000163097
0.000135032
0.000166886
0.000146134
0.00016311
0.000148709
0.000162308
0.00693
0.000137469
0.000172672
0.000152183
0.00016582
0.000207291
0.000144985
0.000134666
0.000183995
0.000146952
0.000228771
0.000158378
0.00182841
0.000167652
0.000184954
0.000154943
0.000173748
0.000144254
0.000153558
0.000160286
0.000172639
0.000925367
0.000281934
0.000142313
0.00015815
0.000207003
0.000163998
0.000142237
0.000141048
0.000140982
0.00017572
0.00027591
0.00399634
0.00102969
0.000170142
0.000155393
0.000263398
0.00013128
0.000146566
0.000155377
0.000144153
0.000169469
0.000144903
0.0046029
0.000135837
0.000399869
0.000143554
0.000148617
0.000155858
0.000211226
0.0475416
0.000167583
0.000921237
0.000149291
0.000140678
0.000144044
0.000158247
0.00505955
0.000140939
0.000145409
0.000324746
0.000148914
0.000141041
0.000217321
0.000155813
0.000140989
0.000145005
0.000164326
0.000152071
0.000164246
0.000135415
0.00014535
0.000148617
0.000287602
0.000376088
0.000135116
0.000140829
0.000195854
0.000141045
0.000147639
0.000999246
0.000399694
0.000175408
0.000143903
0.000149163
0.000207407
0.000149181
0.000223969
0.000153695
0.000136614
0.00017959
0.000198809
0.000148127
0.000144195
0.000156616
0.000146161
0.000156242
0.000143762
0.00020408
0.000146933
0.00015314
0.000142659
0.000141043
0.00015274
0.000150816
0.000184566
0.00046174
0.000371187
0.000157107
0.000216899
0.000175401
0.000143772
0.000144545
0.0001708
0.000143312
0.000180114
0.000146515
0.000163192
0.000292863
0.000255224
0.0436456
0.00018545
0.000130736
0.050419
0.000148815
0.000140604
0.000254198
0.000143108
0.000170533
0.000137363
0.000193308
0.000143077
0.000186881
0.00176973
0.000181928
0.00014419
0.000137422
0.000182981
0.000152619
0.000143057
0.00373373
0.000655445
0.000140545
0.000171435
0.000184714
0.000137347
0.000150219
0.000165765
0.0127774
0.000167619
0.000148934
0.000144509
0.000167293
0.000144449
0.000136213
0.000144169
0.000196612
0.00039288
0.000136407
0.000150885
0.00014523
0.000213072
0.000197283
0.00013477
0.00017058
0.000165694
0.00014516
0.000254835
0.000193167
0.000148707
0.000145881
0.000166616
0.000214494
0.00600721
0.000136204
0.0437806
0.000142901
0.000136416
0.00016909
0.000152904
0.00020664
0.000174177
0.000153432
0.000160269
0.000149151
0.000216074
0.000153097
0.000159479
0.000149156
0.000135985
0.000147793
0.000136188
0.000192872
0.000389753
0.000192993
0.000157612
0.000147151
0.00014917
0.000145964
0.000155009
0.000147396
0.000135485
0.000143697
0.000167205
0.000137364
0.000147199
0.0110586
0.0498363
0.000209928
0.000147449
0.000150396
0.000165847
0.000148967
0.00442307
0.000261733
0.000157261
0.000156798
0.000160039
0.000150364
0.000153734
0.003252
0.000163644
0.000149247
0.0072489
0.000146985
0.047875
0.0466727
0.000155558
0.000149898
0.00466158
0.000140732
0.000185409
0.00018214
0.00508561
0.000153156
0.000147643
0.000145047
0.00399478
0.00669729
0.00434011
0.00344252
0.000154162
0.000144913
0.000156296
0.000143178
0.000155254
0.00024232
0.00728182
0.000560571
0.00035842
0.000168971
0.000178128
0.000170819
0.000141279
0.000142258
0.000172796
0.000155172
0.000146329
0.000143126
0.000491942
0.000140001
0.000326256
0.000160559
0.000191136
0.000209515
0.000142317
0.000156041
0.0463073
0.000143657
0.00169678
0.000143526
0.000239415
0.000163695
0.000149297
0.00017055
0.000190198
0.000186075
0.0001496
0.000134067
0.000165906
0.000155879
0.000191268
0.00014348
0.00019331
0.000139937
0.000256202
0.000146959
0.000143796
0.000231559
0.000174318
0.00022334
0.000144653
0.000157588
0.00016018
0.00410845
0.00572161
0.000154589
0.000198156
0.000145283
0.000162671
0.000148362
0.000154307
0.0162462
0.000136725
0.000313969
0.000146923
0.000145713
0.000154748
0.0045205
0.000152921
0.000191051
0.000150325
0.000166612
0.00164398
0.000131416
0.000141053
0.0509468
0.000166672
0.0161815
0.000174645
0.000148011
0.000143132
0.000142904
0.000158961
0.000149804
0.000136553
0.000215959
0.00807631
0.00014355
0.0106234
0.0123688
0.000158273
0.000239865
0.000136434
0.0111258
0.00446957
0.00013244
0.00190187
0.000169228
0.000269133
0.00413945
0.000143553
0.00014289
0.000147945
0.000860709
0.00017499
0.000144567
0.000148808
0.000217258
0.00014853
0.000170159
0.000143757
0.000167799
0.0391608
0.00390237
0.000276289
0.00358709
0.000168169
0.00853291
0.000156729
0.000140706
0.000160333
0.00374815
0.000181823
0.000173446
0.000144369
0.000386309
0.000145412
0.000148336
0.0543518
0.000148762
0.000160989
0.000214129
0.000187047
0.000144593
0.000142894
0.000154659
0.000158394
0.000134027
0.000148108
0.000172925
0.000231503
0.000152971
0.000145084
0.000169033
0.00174534
0.000143766
0.00341636
0.000252906
0.000145056
0.0293578
0.000134596
0.000245599
0.000143644
0.000138234
0.000230717
0.00015373
0.0131029
0.000152677
0.000142908
0.0258211
0.000143622
0.000134908
0.000145768
0.000140813
0.000161779
0.00016563
0.0439642
0.000150899
0.00166029
0.000153743
0.0034642
0.00584588
0.000150358
0.000144009
0.000157519
0.000136519
0.00020213
0.000142562
0.000134826
0.000135869
0.000144389
0.00014358
0.000249776
0.000158671
0.000174064
0.000149922
0.0001578
0.000156528
0.000168304
0.00110192
0.000137301
0.0001925
0.000170898
0.000134366
0.00727832
0.0428981
0.000141678
0.00217598
0.000145355
0.00185588
0.000166434
0.000132285
0.000166325
0.000159447
0.00290898
0.000142449
0.000154253
0.0048282
0.000198233
0.000241113
0.000143548
0.00336786
0.000189095
0.00695898
0.000143488
0.000151811
0.000143044
0.000146227
0.000142081
0.000144986
0.000136731
0.00278087
0.000164469
0.00014108
0.000134284
0.000140333
0.000148693
0.000194638
0.000188497
0.000137462
0.000158469
0.000146775
0.000146951
0.000146478
0.000140941
0.000204361
0.000134321
0.000140337
0.00014898
0.000147234
0.000152199
0.00014687
0.000246726
0.000253374
0.000154804
0.000140169
0.000212713
0.000134717
0.000134386
0.000146774
0.000237321
0.000157487
0.000145376
0.000136148
0.00013711
0.000160012
0.000133995
0.000162204
0.000142453
0.000148332
0.000141965
0.000151633
0.0176101
0.000140644
0.000148834
0.000143422
0.000246636
0.00502187
0.000158165
0.000149817
0.000175329
0.000161472
0.000199026
0.000653532
0.000149031
0.00420522
0.000148939
0.000365078
0.00014954
0.000136926
0.000135868
0.00174994
0.000135479
0.00015844
0.000193661
0.000221349
0.000177334
0.000153932
0.000142331
0.000143556
0.000143587
0.000159956
0.000201314
0.00448501
0.000172245
0.000145408
0.00013402
0.000155645
0.000141882
0.000140886
0.000148363
0.000174028
0.00016186
0.000555457
0.000145336
0.000144349
0.000173205
0.000143181
0.000214612
0.000172896
0.000168905
0.000211809
0.000315911
0.000166815
0.000141289
0.000134101
0.000147416
0.000142993
0.00441418
0.00017473
0.000200953
0.000136841
0.000147046
0.000154983
0.000141161
0.000712534
0.000316584
0.000134427
0.000135791
0.000143204
0.000142083
0.000141031
0.000144977
0.000236894
0.000134913
0.000149339
0.000136867
0.000137908
0.000142217
0.000146003
0.000161385
0.000137865
0.000174402
0.000136112
0.000369144
0.000238554
0.000155876
0.000434541
0.000155552
0.000148584
0.00018593
0.00317892
0.000144601
0.000140201
0.000137003
0.000186743
0.000150225
0.000166835
0.000305566
0.000146469
0.000149925
0.000144654
0.00034975
0.000919965
0.000150998
0.000139674
0.000156109
0.000167564
0.000142328
0.000186605
0.000140272
0.000133908
0.000155035
0.000356929
0.00376081
0.00206633
0.000239219
0.000134748
0.000229433
0.000199573
0.000157833
0.000143558
0.000199679
0.000157324
0.000272394
0.000630913
0.000141912
0.000134838
0.000144684
0.000148706
0.000134949
0.000350262
0.00319433
0.0001346
0.000146708
0.000149414
0.000167939
0.000144075
0.000141772
0.000221512
0.000149222
0.00014291
0.000904466
0.000197258
0.000192856
0.000142815
0.000135885
0.000134808
0.000143095
0.000168527
0.000186099
0.000140633
0.000139078
0.000156425
0.00350059
0.000137004
0.000143921
0.000184761
0.000141104
0.000139195
0.000143577
0.00132616
0.0001357
0.00014444
0.000137061
0.000155341
0.00013571
0.000156958
0.000213721
0.000143951
0.000243328
0.000160279
0.000229617
0.000179708
0.000140845
0.000159361
0.000140453
0.000139062
0.00014084
0.00413726
0.00730642
0.000210518
0.000158501
0.00615264
0.000187374
0.000150838
0.000199661
0.000235028
0.000153378
0.000135426
0.00945558
0.000149816
0.000140673
0.000137995
0.000260573
0.00717057
0.0449498
0.000138884
0.000195926
0.00466294
0.000171564
0.000171292
0.000156434
0.000154907
0.000165471
0.000722199
0.000153223
0.000149948
0.000158686
0.0444798
0.000248084
0.000143998
0.000146632
0.000143525
0.000283743
0.000155148
0.000149215
0.0066547
0.00015687
0.000175981
0.000156412
0.00618831
0.000138595
0.000346912
0.000149687
0.000135738
0.000141383
0.000135884
0.000135774
0.000140866
0.000148125
0.000258798
0.000138125
7.28833e-05
0.000157873
0.000147334
0.000141195
0.000196029
0.000143354
0.000146589
0.000159395
0.00589563
0.000210587
0.000153656
0.000146374
0.000322506
0.000138564
0.000168806
0.000146162
0.0444623
0.000172454
0.00603766
0.000158267
0.000143036
0.000220264
0.0113198
0.000333868
0.000137693
0.000143516
0.000167933
0.013861
0.000130984
0.000174931
0.000141956
0.000161479
0.000140472
0.000134821
0.000150004
0.000149888
0.000135086
0.000176154
0.000171645
0.000159948
0.000209989
0.00777002
0.000150212
0.00220221
0.000136153
0.000201477
0.000268491
0.000221917
0.000134566
0.000150009
0.000145959
0.00509374
0.000144627
0.000140502
0.000194873
0.000146474
0.000146144
0.000151309
0.000149496
0.000143008
0.0478245
0.00583761
0.000183574
0.000139156
0.000145326
0.000246183
0.000136206
0.000341805
0.000147122
0.000145742
0.000149002
0.000155921
0.000236187
0.00014089
0.000145036
0.0475441
0.000147169
0.000148378
0.000168049
0.000283226
0.000557633
0.000144344
0.000143686
0.0113904
0.00374721
0.0318491
0.000142861
0.000165159
0.000226128
0.000137717
0.000199731
0.000153259
0.00375603
0.00015497
0.000146096
0.000149606
0.000135606
0.000414703
0.000144915
0.000138905
0.00456858
0.000184573
0.00103995
0.000135213
0.000151936
0.000135407
0.000132002
0.000136195
0.000149277
0.000146541
0.000148946
0.000135625
0.000148363
0.000173887
0.000163133
0.000172234
0.000140464
0.000155665
0.000141986
0.00697472
0.000147348
0.000149294
0.000147808
0.00013588
0.000148694
0.000149222
0.000144306
0.000143397
0.000141178
0.000136216
0.00315827
0.00170384
0.000144963
0.000438127
0.000166102
0.000149061
0.000147578
0.000150087
0.00392292
0.000147042
0.000136128
0.00013456
0.000134611
0.0480461
0.000144501
0.000136907
0.000255487
0.000134145
0.000133252
0.00019205
0.000200007
0.00020701
0.000213646
0.0135936
0.000135961
0.00103991
0.000156442
0.000143195
0.000136778
0.000164791
0.000143174
0.000161096
0.000180992
0.000153981
0.000150457
0.0536249
0.000191294
0.0460145
0.00181258
0.00380613
0.000215271
0.000138855
0.000266331
0.000935663
0.00013508
0.00143926
0.000138867
0.000150617
0.000210002
0.000140282
0.000417792
0.000158104
0.000152532
0.000149471
0.000219281
0.000143829
0.000143521
0.000142901
0.000136395
0.00476648
0.000133507
0.000145562
0.000148395
0.000177925
0.000142282
0.000144044
0.000152953
0.00269285
0.000144629
0.000144438
0.00013699
0.000154056
0.000142417
0.000150606
0.00107798
0.000141606
0.000157141
0.000147979
0.000155589
0.000153082
0.000140442
0.000148719
0.000198257
0.000146971
0.000147633
0.000159952
0.00513296
0.000150811
0.000141773
0.000143953
0.000159994
0.000207517
0.000151632
0.000140963
0.000141508
0.000137729
0.000131865
0.000135444
0.00015994
0.000197739
0.000179057
0.000146712
0.0133196
0.000139427
0.00014947
0.00712162
0.000173834
0.000134091
0.000189322
0.000152561
0.000140947
0.00410577
0.000148694
0.000168497
0.000132434
0.000216783
0.000139406
0.000134648
0.000135972
0.000992262
0.000217002
0.000146788
0.000165062
0.000135791
0.000142133
0.000139022
0.000210818
0.000145463
0.000138472
0.000150777
0.00015218
0.000142988
0.000145777
0.000140426
0.000147757
0.000146693
0.000140344
0.000155391
0.000135245
0.0158911
0.000184919
0.000136693
0.000233764
0.000157093
0.000140875
0.000139642
0.000150383
0.000140551
0.000160668
0.00015534
0.000199235
0.000201819
0.000147759
0.000188257
0.000218431
0.0001431
0.000148227
0.000193938
0.000152856
0.0057093
0.000135581
0.000141926
0.000153264
0.000148397
0.000144059
0.000156825
0.000140504
0.000153921
0.000143997
0.000152806
0.000139276
0.000203869
0.000144716
0.000154175
0.000190956
0.000143179
0.00389158
0.0051221
0.000152971
0.000160909
0.00015987
0.000134332
0.000188812
0.000145565
0.000164451
0.00807834
0.013308
0.000207317
0.00015515
0.000161576
0.00014283
0.00016166
0.000139001
0.000327541
0.000191438
0.000147439
0.000140643
0.000228711
0.000172617
0.000142866
0.000143245
0.000263399
0.000147518
0.000138388
0.000441339
0.000178971
0.00013496
0.000163318
0.000136101
0.000224988
0.000180532
0.00014303
0.000144277
0.000158818
0.000282266
0.000140112
0.000157223
0.000144264
0.000143045
0.000139833
0.0161315
0.000148397
0.000145794
0.000143914
0.000241326
0.000157561
0.000140286
0.000132871
0.000201555
0.000142236
0.000136879
0.000238806
0.000328428
0.000148674
0.000247475
0.000159364
0.000175404
0.000151812
0.000181434
0.004115
0.000147033
0.000144841
0.000137104
0.000154831
0.000142855
0.00830209
0.00221652
0.000137432
0.000150687
0.00013642
0.000135574
0.0541175
0.000142949
0.000151964
0.00015188
0.00021962
0.000144485
0.000147831
0.000155357
0.00427695
0.000146305
0.000145883
0.000137367
0.000138359
0.000154375
0.000173823
0.000146797
0.000142165
0.000145359
0.000143599
0.000137123
0.0495819
0.000148083
0.000143593
0.000141903
0.000182271
0.000136541
0.000136898
0.000165507
0.00014214
0.000190141
0.000144221
0.000144432
0.00215295
0.017746
0.000355959
0.000283035
0.000161508
0.00014874
0.0379418
0.00013948
0.000155364
0.000135198
0.000376064
0.000130426
0.000154736
0.00014458
0.00858596
0.000175144
0.000234642
0.0149592
0.000151661
0.000190795
0.000147911
0.000149605
0.0500305
0.000165637
0.00014215
0.00013604
0.000153647
0.000162553
0.000143977
0.000145379
0.000139461
0.000135057
0.00024236
0.0065081
0.000147999
0.000149338
0.000293565
0.0137381
0.000152208
0.000152102
0.00015248
0.000154574
0.000142367
0.000150842
0.000480348
0.000140323
0.000136306
0.000146157
0.000529445
0.000366026
0.000156385
0.000146736
0.000147615
0.000158536
0.000143675
0.000158977
0.000169627
0.000205762
0.000152816
0.00157034
0.00013471
0.000142898
0.000148245
0.000135487
0.000146868
0.000140117
0.000237854
0.000140909
0.000379021
0.00014509
0.00013905
0.0001376
0.00020068
0.000151433
0.000173353
0.000177575
0.000136197
0.0456653
0.000160024
0.00013805
0.000133353
0.00442662
0.000274567
0.00013362
0.000140459
0.000141152
0.000150706
0.00022339
0.000212653
0.000151294
0.000148809
0.000212072
0.00878038
0.000149476
0.000142623
0.000291883
0.000153843
0.000324797
0.00015448
0.000142383
0.000182975
0.000167658
0.0201628
0.000173006
0.00230272
0.000136902
0.000142141
0.000148918
0.000146574
0.000153806
0.000147824
0.000146071
0.00013951
0.00014776
0.000147829
0.000149332
0.000146231
0.000152261
0.000149278
0.000143612
0.000141997
0.000179136
0.000165332
0.000140412
0.000145215
0.000240488
0.000145179
0.000147557
0.000149437
0.0178171
0.000136918
0.000168981
0.000151085
0.000136188
0.00014353
0.000369008
0.000216324
0.000149379
0.000145135
0.000154596
0.000166776
0.000140087
0.000160357
0.000179736
0.000141206
0.000201878
0.000140891
0.000143206
0.00014434
0.00014786
0.000160489
0.000199933
0.00804389
0.000186818
0.000136427
0.000144959
0.000143688
0.000212972
0.000148951
0.00251965
0.00013977
0.000143807
0.000143479
0.000188952
0.000142535
0.000146479
0.000144238
0.00021372
0.000136994
0.0138166
0.000137027
0.000183013
0.000144574
0.000161174
0.000140784
0.000153413
0.00184762
0.000210398
0.000136468
0.000182272
0.00014521
0.000146549
0.0292311
0.00314552
0.00013621
0.000142782
0.000153305
0.000135882
0.000143831
0.000148337
0.000147513
0.000165536
0.000178024
0.000150086
0.000157515
0.000216355
0.000148091
0.000140803
0.000142129
0.000155542
0.000160016
0.000144128
0.0147292
0.000140789
0.0285577
0.000168245
0.000136529
0.000140108
0.000139843
0.000102487
0.000146033
0.000154941
0.000146382
0.000141663
0.00476768
0.000151385
0.00016605
0.00014716
0.000145549
0.000151307
0.000143309
0.000151322
0.000143422
0.000152546
0.000149276
0.000148962
0.00279724
0.000171353
0.00438316
0.000140905
0.000191624
0.000151856
0.00568434
0.000182292
0.000655101
0.000151555
0.000134884
0.000171215
0.000142784
0.00497355
0.00014955
0.000202292
0.000151402
0.000896609
0.00671281
0.000154215
0.000165871
0.000139367
0.000137458
0.000148462
0.000134691
0.000147866
0.000152574
0.000139458
0.000162959
0.000200991
0.00525484
0.000140756
0.0002561
0.000134648
0.000142467
0.000143993
0.000196904
0.000147738
0.000229707
0.000148039
0.000143237
0.0417752
0.000140276
0.000154453
0.00014249
0.00015631
0.000489847
0.000166043
0.0367566
0.000142856
0.000181185
0.000152264
0.000141744
0.000143712
0.00018882
0.000165845
0.000143125
0.000151449
0.000143162
0.00278956
0.000139076
0.000291297
0.000285348
0.000185548
0.000158077
0.000215453
0.000200489
0.00013468
0.0100179
0.000142419
0.000143385
0.000148878
0.00015167
0.00650075
0.0068601
0.000159396
0.000285197
0.000143537
0.00489446
0.000131149
0.000322559
0.000135194
0.000148964
0.000202338
0.000147956
0.000139108
0.000149458
0.000144466
0.000178645
0.00531425
0.000163911
0.003143
0.000141331
0.0151571
0.000144327
0.000146591
0.000142991
0.000144988
0.00516564
0.000146986
0.000137963
0.000167762
0.000148073
0.00646386
0.000191646
0.000142997
0.000203633
0.000165137
0.000140513
0.000144759
0.000155725
0.000136559
0.000180091
0.000160171
0.000152111
0.000151978
0.000137153
0.000146333
0.000181518
0.000149588
0.000144893
0.000150065
0.000134805
0.0001358
0.0382282
0.000161498
0.00044842
0.000158333
0.000178452
0.000162009
0.000142062
0.000166071
0.000139266
0.000140769
0.000757244
0.000165825
0.000187314
0.000174212
0.00014964
0.000245178
0.000491203
0.000143207
0.000166283
0.0001801
0.0495049
0.000136406
0.000138239
0.000148129
0.000206076
0.00263588
0.00016714
0.000153723
0.00014867
0.000142052
0.000135238
0.000500055
0.000155145
0.000149764
0.00462893
0.000146705
0.000154413
0.000156958
0.000145048
0.000142849
0.000142812
0.000178984
0.000204275
0.00014895
0.000152687
0.000250061
0.000142091
0.000149465
0.000154318
0.000146676
0.00652355
0.00458612
0.000300993
0.000191736
0.0167298
0.000153084
0.000139834
0.000256279
0.000149552
0.000161233
0.000143156
0.000135313
0.00621428
0.00222419
0.000141393
0.000139531
0.000160809
0.000361478
0.000152191
0.000135205
0.0518785
0.000152087
0.00016744
0.000134951
0.000162373
0.00013112
0.000151371
0.000159684
0.000142059
0.0270544
0.000149048
0.000166284
0.00019893
0.00507596
0.000191849
0.000142226
0.000183207
0.000154777
0.000165914
0.000151023
0.000146907
0.000145355
0.000152908
0.0020316
0.000151594
0.00203127
0.000139942
0.000227396
0.000135936
0.000148746
0.000288035
0.000155076
0.000226611
0.000153719
0.000149422
0.00569346
0.0524496
0.000140087
0.0341225
0.000171811
0.000138845
0.000133966
0.040431
0.0331598
0.000138905
0.000136135
0.000142107
0.000137009
0.0376104
0.000251554
0.000130254
0.000133096
0.000139996
0.000239652
0.000175182
0.00704034
0.000135964
0.00026849
0.000146863
0.000178938
0.0373606
0.000164706
0.000139367
0.000139151
0.0070005
0.000136664
0.000141219
0.000136703
0.000158395
0.000151684
0.0275194
0.000162802
0.00014862
0.000142427
0.000157649
0.000226875
0.000184369
0.000141694
0.000141741
0.000218759
0.000176796
0.000149192
0.00326796
0.000164613
0.000153163
0.0543321
0.000151486
0.000159351
0.000148267
0.000691212
0.000145351
0.000148613
0.0508943
0.000159029
0.000141151
0.000143308
0.000131147
0.000182414
0.000207722
0.000141137
0.000136012
0.000150177
0.000185368
0.000151753
0.00013506
0.000142842
0.00013915
0.000152253
0.00017177
0.000145796
0.000142446
0.0359164
0.000142005
0.012653
0.000161381
0.000164756
0.000154161
0.000150824
0.000144965
0.0234825
0.000190699
0.00018668
0.0283468
0.000160858
0.000140161
0.000371427
0.000136457
0.000188863
0.025189
0.000152509
0.000141802
0.000153902
0.000188656
0.000142741
0.000142789
0.0404537
0.000142912
0.000154241
0.000141514
0.00014677
0.000137373
0.000189058
0.000206324
0.000135981
0.000141063
0.00509453
0.000142644
0.000137198
0.000140858
0.000140677
0.000286242
0.000157927
0.0001534
0.000153055
0.000149086
0.000138438
0.000181985
0.000199248
0.000157687
0.000264379
0.000155745
0.000154807
0.0283354
0.000140162
0.00013626
0.000143463
0.000140499
0.000148651
0.000132617
0.000149127
0.0249563
0.000144463
0.000141817
0.000156436
0.000140653
0.00311757
0.000147588
0.0440164
0.00023366
0.000166841
0.000161192
0.0030853
0.000163988
0.000143145
0.000154518
0.000140483
0.000151881
0.000144642
0.000148271
0.000323199
0.000135858
0.000143831
0.000170867
0.00030556
0.000147755
0.000139788
0.000225645
0.000151506
0.000173984
0.000143054
0.000139928
0.000144258
0.0339948
0.000146674
0.000300839
0.000177495
0.0001546
0.000139695
0.000143085
0.000155765
0.00515108
0.000136067
0.000179908
0.000141801
0.0430832
0.000237289
0.000148966
0.000221176
0.000146068
0.000153482
0.000153951
0.000256946
0.000157193
0.000160301
0.00016164
0.00546161
0.000147685
0.000181008
0.000144523
0.000205123
0.000216641
0.000240551
0.000142437
0.000164604
0.00515363
0.00534107
0.000154602
0.000154197
0.00523469
0.00525282
0.00014032
0.000179814
0.000143332
0.000156289
0.000146144
0.000152923
0.000152144
0.0260334
0.000147437
0.000148047
0.000180583
0.00549867
0.00336779
0.000208954
0.00401136
0.00013984
0.00462426
0.000183164
0.000142449
0.000141774
0.00726584
0.000161465
0.000145079
0.000142614
0.000168336
0.000138646
0.000142854
0.000318217
0.000145548
0.000148189
0.00014109
0.000143828
0.00015105
0.000138886
0.0529826
0.000162879
0.000153445
0.000139339
0.000165601
0.000466636
0.000142104
0.000147978
0.0056597
0.000231545
0.00014345
0.000154356
0.000138719
0.000140428
0.000200112
0.000221516
0.000140474
0.000143112
0.00572783
0.000669587
0.00763673
0.000196317
0.00015222
0.00478868
0.000140473
0.00015535
0.000154161
0.000139826
0.050469
0.00652373
0.000168485
0.000194276
0.000351203
0.000133976
0.000133072
0.00015254
0.000164261
0.00347255
0.000136468
0.000168254
0.0013621
0.00028499
0.000146974
0.000150883
0.000255564
0.000142586
0.00015504
0.00148463
0.000140938
0.000142584
0.000138758
0.000245192
0.000141983
0.00016535
0.000149198
0.000208087
0.000163408
0.00530762
0.000143155
0.00014222
0.00016652
0.000147614
0.000190597
0.000148952
0.000200572
0.000206474
0.000140795
0.000144505
0.00958806
0.00028748
0.0181282
0.000139063
0.000143358
0.000155065
0.000145304
0.00014317
0.000144012
0.000146968
0.000148533
0.000139434
0.000139655
0.00017828
0.00015353
0.000170543
0.018343
0.000184551
0.000176456
0.000157567
0.000204787
0.000225801
0.000161555
0.000160756
0.00016013
0.000141739
0.00778023
0.00013599
0.000135753
0.00014079
0.0044933
0.0001421
0.00420751
0.000148401
0.000134992
0.000181637
0.000142989
0.000142292
0.000142959
0.000213602
0.00456756
0.000146995
0.000139852
0.000151382
0.000478004
0.000176107
0.00608941
0.00014312
0.000176493
0.000146455
0.0001456
0.000136409
0.000138883
0.000143366
0.000166964
0.000764787
0.000152938
0.000152678
0.000207077
0.00493725
0.000208545
0.000141765
0.000199581
0.000164187
0.00169801
0.000137882
0.000143303
0.000160948
0.000458607
0.000132437
0.0001447
0.000138836
0.000136597
0.000208117
0.000152563
0.000180473
0.000145763
0.000132223
0.000163774
0.00014399
0.00624608
0.000144128
0.000171621
0.000147892
0.00015797
0.000149223
0.000182558
0.005913
0.000142502
0.000184451
0.000366516
0.000141673
0.000146699
0.000171482
0.000131889
0.0530144
0.000181509
0.000142804
0.00018131
0.000134307
0.000143964
0.000147929
0.000141702
0.000136736
0.000149772
0.000140416
0.00013877
0.000145227
0.00014888
0.00017579
0.000136433
0.000222321
0.000138273
0.000140447
0.000158961
0.000173304
0.000149822
0.000131981
0.000142477
0.000153481
0.000172511
0.000473295
0.000164591
0.000149007
0.000148899
0.000139469
0.000160986
0.000140775
0.00015257
0.000282866
0.000241172
0.000174868
0.000141366
0.000148675
0.000149732
0.000132107
0.000196463
0.000134864
0.0002176
0.00014923
0.000245567
0.000157481
0.000280167
0.000146759
0.000183547
0.0256461
0.00684346
0.0024801
0.000156665
0.0064279
0.000287172
0.000148595
0.000165731
0.000367792
0.0001401
0.000139013
0.000143948
0.000155391
0.00150489
0.000145996
0.000158895
0.00387404
0.000130275
0.000144548
0.000265192
0.008466
0.000198329
0.00306752
0.00549234
0.000149834
0.000183946
0.000153491
0.000154423
0.00230611
0.000154009
0.0222087
0.00021691
0.000153433
0.000146366
0.000152089
0.000155501
0.000139426
0.0102983
0.000132335
0.000142895
0.000143304
0.00799095
0.0280693
0.00021436
0.000145284
0.000151038
0.000138802
0.0284458
0.000143451
0.000149827
0.00015348
8.0424e-05
0.00013863
0.000189428
0.041234
0.00560685
0.000147263
0.000790739
0.000139376
0.000719401
0.000132719
0.000249936
0.000146513
0.000184687
0.000160613
0.00626126
0.000220056
0.000152701
0.000151141
0.000181391
0.000155471
0.000141874
0.000138703
0.000158388
0.00014886
0.00267408
0.00013164
0.00014315
0.000144182
0.000143763
0.00166119
0.000139263
0.000134573
0.00014712
0.000319622
0.000162276
0.000179968
0.0001524
0.000150933
0.000192644
0.000139226
0.000143189
0.000185458
0.000173083
0.000134588
0.00016795
0.000152053
0.0036221
0.000142743
0.000339495
0.000146715
0.000143192
0.000135251
0.000134875
0.000142315
0.000141337
0.000442818
0.000182372
0.000146936
0.0001431
0.000142326
0.000152518
0.000157945
0.00213308
0.000148206
0.000193283
0.000165807
0.00596498
0.00014738
0.000171658
0.000143067
0.000142766
0.00016414
0.000142627
0.000145777
0.000140361
0.000135908
0.000359808
0.000143539
0.000139205
0.000269065
0.00473652
0.000193611
0.000145716
0.000134718
0.000154409
0.0388728
0.000152871
0.000147775
0.000146555
0.000450012
0.000148368
0.00014414
0.0332594