/*--------------------------------*- C++ -*----------------------------------*\
| =========                 |                                                 |
| \\      /  F ield         | OpenFOAM: The Open Source CFD Toolbox           |
|  \\    /   O peration     | Version:  v2012                                 |
|   \\  /    A nd           | Website:  www.openfoam.com                      |
|    \\/     M anipulation  |                                                 |
\*---------------------------------------------------------------------------*/
FoamFile
{
    version     2.0;
    format      ascii;
    class       volScalarField;
    location    "200";
    object      omega_0;
}
// * * * * * * * * * * * * * * * * * * * * * * * * * * * * * * * * * * * * * //

dimensions      [0 0 -1 0 0 0 0];


internalField   nonuniform List<scalar> 
18355
(
2.41596
0.020428
0.210827
0.02101
0.0355891
0.0736321
0.0216151
0.0376098
0.0219491
0.407572
0.025733
0.120513
0.12784
0.956603
0.0210707
0.0201969
0.0210064
0.0239982
0.165748
0.0224053
0.163454
0.0218959
0.0204571
0.07475
0.0204678
0.0221658
0.0216566
0.0210159
0.022147
0.0265168
0.722411
0.0427472
0.0203495
0.0200698
0.0211159
0.022218
0.0260008
0.0223023
0.0270142
0.021861
0.0221575
0.0263436
0.0200882
0.0204148
0.0204247
0.255713
0.0209962
0.0209853
0.762518
0.0212481
0.0208281
2.04487
0.021292
0.12922
0.0212871
0.0224309
0.0211221
1.0253
0.0222659
0.442135
0.02008
0.081647
0.126882
0.0214149
0.0509365
0.0206202
0.0235029
0.0260405
0.0200245
0.596538
0.0209438
0.021287
0.0363393
0.0249293
0.0777179
0.0200449
0.939984
0.0200552
0.0209146
0.0640979
0.023471
0.0517521
0.0200355
0.0244259
0.0409971
0.0217067
0.0222994
0.0339419
0.020879
0.0339472
1.01355
0.117007
0.0492829
0.0212438
0.407822
0.0220605
0.0208639
0.0214115
0.0645248
0.0218341
0.0389988
0.0208825
0.0211989
0.0195619
0.0236925
0.0202074
0.0505545
0.419265
0.0293993
0.020153
0.0207401
0.021407
0.0313244
0.0242274
0.28072
0.027081
0.020859
0.0736994
0.0228204
0.0233261
0.572003
0.211205
1.0302
0.0380681
0.0694077
0.270342
0.0216574
0.0210402
2.47417
0.021656
0.0208684
1.99852
0.0212731
0.0718099
0.0749693
0.020868
0.170178
0.565952
0.0211933
0.126655
0.0244553
0.0339749
0.0209622
2.02281
0.0743411
0.0216533
0.432671
0.0196073
0.0311544
0.305576
0.0210088
0.0232653
0.0213387
0.0266983
0.0200988
0.020578
0.0210543
0.0216984
0.020969
0.0206736
0.0243991
0.0212794
0.0201609
0.0296888
0.0254081
0.330496
0.462194
2.35884
0.229448
0.0244399
0.0212748
0.0666261
0.0215846
0.776829
0.0211727
0.0221208
0.0213264
0.0195259
0.022506
0.0275539
0.0217477
0.306655
0.0217836
0.0210391
0.106488
0.0211868
0.0217254
0.03333
0.0213473
0.0217531
0.258649
0.0649738
0.0204556
0.0200529
0.0214086
0.286395
0.0205382
2.29638
0.0204368
0.983762
0.0211529
0.0230478
0.027256
0.0216524
2.38746
0.0215733
0.220023
0.0210345
0.0203033
0.0212693
0.0215629
0.058424
0.0223946
0.0220131
0.0196173
0.7921
0.027613
0.0244896
0.0215919
0.0210009
0.0287402
0.0199696
0.0324508
0.0257435
0.0380976
0.0237822
0.0199913
0.564214
0.501956
0.0326961
0.0213816
0.023705
0.298553
0.0199817
0.0295279
0.0365776
0.0219362
0.261718
0.0241889
0.0220179
0.0204526
0.022424
0.0216356
0.0313228
0.0215706
0.0212923
0.020986
0.0597538
0.0680101
0.0210255
0.021794
0.0636174
0.151917
0.0265523
0.0195311
0.0332566
0.024171
0.0217512
0.0237166
0.0208104
0.309163
0.258934
0.0583308
0.0280036
0.0278495
0.0347872
0.0318664
0.0710033
0.0208027
0.0212937
0.0219224
0.0201524
0.0230399
0.0246196
0.0209772
0.0215668
0.0303484
0.0208559
0.0630556
0.667216
0.0283836
0.0215903
0.0278238
0.0201423
0.0343612
0.0215226
0.0284755
0.0218721
0.0278625
0.331452
0.020327
0.039946
0.0226887
0.0244976
0.0316537
0.0212936
0.0200375
0.0583125
0.0215641
0.034315
0.0260684
0.503509
0.0348782
0.0600065
0.0234188
0.0317318
0.0211812
0.0235267
0.0275877
0.0397846
0.183589
0.299622
0.0210813
0.024139
0.103258
0.0284253
0.0210764
0.0209772
0.0209966
0.0451122
0.289688
2.59469
0.221981
0.0300119
0.0242238
0.0723303
0.019605
0.0215517
0.024187
0.0213672
0.0327893
0.0210046
0.475391
0.0202278
0.0662411
0.021354
0.0218172
0.0237209
0.139622
2.28467
0.031432
0.186953
0.0219169
0.0208889
0.0213587
0.0238346
0.415163
0.0209137
0.0214826
0.112806
0.0218487
0.0209142
0.154783
0.0234418
0.0209915
0.0212742
0.0292352
0.0222811
0.0291555
0.020048
0.021474
0.0217968
0.398955
0.0373318
0.0200255
0.0209464
0.0323075
0.0210043
0.0214923
0.272179
0.0439598
0.0325517
0.0213432
0.0219795
0.128826
0.022002
0.0355886
0.0235789
0.0202686
0.0291457
0.0304519
0.0217176
0.0213514
0.0240476
0.0214565
0.0233748
0.0214035
0.0567721
0.0216431
0.0230676
0.020864
0.0209983
0.022903
0.0221753
0.0604555
0.655461
0.0390451
0.0228715
0.150301
0.0261881
0.0213727
0.0209558
0.0376644
0.0213468
0.034092
0.0214818
0.0267728
0.0517908
0.0986774
2.29947
0.0619781
0.019571
2.53678
0.0218349
0.0209674
0.149052
0.0213183
0.0263473
0.020264
0.0554262
0.0213134
0.064326
0.207403
0.0542551
0.0212787
0.020457
0.0563194
0.0228257
0.0210075
0.385756
0.185516
0.0209614
0.0383635
0.06066
0.020452
0.0221164
0.030104
1.24566
0.0343362
0.0218487
0.0212191
0.0337883
0.0212805
0.020206
0.0211511
0.0386413
0.559038
0.0202527
0.0221008
0.0214994
0.14675
0.0302367
0.0200331
0.0264061
0.032738
0.0214739
0.288387
0.081299
0.0218178
0.0214403
0.0333167
0.152612
0.731373
0.0202315
2.07194
0.0212389
0.0202468
0.0366968
0.0229397
0.059553
0.0364053
0.0231872
0.02547
0.021905
0.151127
0.0229877
0.0270132
0.0218937
0.0202096
0.0217102
0.0202245
0.0799812
0.532516
0.0549831
0.0244066
0.0215962
0.021892
0.0214806
0.0234649
0.0215927
0.0200294
0.0213847
0.0344305
0.0204595
0.0215613
1.82188
2.25919
0.107126
0.021634
0.021963
0.0302257
0.0218673
0.285312
0.246191
0.0238772
0.024564
0.0253796
0.0221977
0.0233758
2.84254
0.0298193
0.0220057
0.411525
0.0215922
2.29892
2.40223
0.0245363
0.0220542
3.00249
0.0209837
0.0609756
0.0431191
0.353731
0.0229853
0.0216885
0.0214606
0.456563
0.79502
0.342008
0.399248
0.0231963
0.0214506
0.0244261
0.0213
0.0235312
0.130306
0.769532
0.781191
0.103765
0.027439
0.0398942
0.0326432
0.0210044
0.0211503
0.028476
0.02389
0.0215376
0.0212976
0.0702029
0.0208482
0.123411
0.0249324
0.0746983
0.136706
0.0211569
0.0242254
2.43174
0.0213797
2.12854
0.0212783
0.100392
0.0298584
0.0219491
0.0323642
0.0711728
0.0627492
0.0218417
0.0200094
0.0323436
0.024721
0.0746984
0.0213735
0.0825323
0.0208396
0.241794
0.0212188
0.0211848
0.194293
0.0251675
0.0356642
0.0210603
0.0249329
0.0236743
0.457707
2.37731
0.0238437
0.0296811
0.0211491
0.0276471
0.0217518
0.0237035
3.74706
0.0204175
0.0514928
0.0215574
0.0212458
0.0238643
0.286981
0.0224827
0.0639912
0.022004
0.0333155
0.231597
0.0196121
0.0209935
2.28761
0.0333707
1.81456
0.0372608
0.0217138
0.0213032
0.0209888
0.0249426
0.0220208
0.0201647
0.103675
1.50816
0.0211673
1.28465
1.26306
0.0248714
0.215375
0.0202223
2.14237
0.340597
0.0196764
0.283227
0.0358525
0.327114
0.452772
0.0210748
0.0209834
0.0215654
0.204626
0.0441895
0.0212996
0.0219207
0.105596
0.0217846
0.0370248
0.0210872
0.0342739
3.2117
0.446806
0.0552481
0.434402
0.034756
0.997429
0.0245659
0.0209259
0.0263629
0.44035
0.0265764
0.0422731
0.021289
0.40219
0.0215167
0.0217607
2.62462
0.0217033
0.0267601
0.0353931
0.0577066
0.0214697
0.0212922
0.0238031
0.0253608
0.0199616
0.0216582
0.0339111
0.143224
0.0230219
0.0212662
0.0362036
0.219177
0.0212352
0.419919
0.285126
0.0214658
1.73784
0.0199957
0.214463
0.0213489
0.0203133
0.193965
0.0231841
1.20007
0.0229062
0.0212941
1.6782
0.0213458
0.0201352
0.0215299
0.0209358
0.0272835
0.0324837
2.27501
0.021998
1.6891
0.022871
0.429271
0.637625
0.0221454
0.021352
0.0249332
0.0201318
0.105392
0.0211959
0.020115
0.0201479
0.0212876
0.0213697
0.239948
0.0248334
0.0418455
0.0224406
0.0241146
0.0240323
0.0243065
0.245102
0.0204615
0.0797689
0.0382659
0.0200042
0.764958
3.15418
0.0207692
0.348267
0.0211711
0.267911
0.0331609
0.0196602
0.0327083
0.0258473
0.403742
0.0208412
0.023854
0.462432
0.0671906
0.0481649
0.0213659
0.320647
0.0729025
1.75918
0.0213726
0.0226939
0.0210126
0.021491
0.0210712
0.0210318
0.0204121
0.404142
0.0251008
0.0208793
0.0200615
0.0205545
0.0218062
0.0630165
0.0714551
0.0203232
0.0253646
0.0215389
0.0215651
0.0214804
0.0209558
0.0345107
0.0200585
0.0208915
0.0217079
0.0216084
0.0229875
0.0215711
0.262612
0.109936
0.0239314
0.0208727
0.147334
0.0201055
0.0200665
0.0215831
0.0486104
0.0243721
0.0213995
0.020175
0.020446
0.0253972
0.0200157
0.0262803
0.021186
0.02175
0.0210688
0.0226291
0.998513
0.0209174
0.0218457
0.0211761
0.18552
0.355109
0.0260121
0.0220196
0.0262272
0.0252163
0.0329284
1.55832
0.0217117
0.341186
0.0218632
0.119056
0.0221439
0.0202829
0.0200541
0.393908
0.0200277
0.0262106
0.0286057
0.168366
0.0388555
0.0222942
0.0210033
0.020888
0.021222
0.0274051
0.098079
0.47626
0.0396035
0.0215255
0.0200119
0.0225666
0.0210693
0.0208196
0.0217753
0.0417359
0.0244074
0.20372
0.0215204
0.0214356
0.0342264
0.0213054
0.152273
0.0401446
0.0355453
0.133068
0.440393
0.0288802
0.0209944
0.020021
0.0216645
0.0212838
0.605667
0.0435806
0.102535
0.0203054
0.0215884
0.0231152
0.0208402
1.36176
0.0705205
0.0200639
0.0200597
0.0209693
0.0210779
0.0209244
0.0212711
0.22859
0.0199721
0.0220452
0.020313
0.020587
0.0210807
0.0214723
0.0258694
0.0205816
0.0253089
0.0201659
0.0337803
0.215469
0.0237459
0.232605
0.0229042
0.0218652
0.0626594
0.370309
0.0214316
0.0207338
0.020471
0.0257524
0.0218994
0.0288413
0.0787422
0.0215102
0.0221057
0.0214816
0.0973218
0.213379
0.0220191
0.0205945
0.0240928
0.03489
0.0211435
0.0635431
0.020834
0.0199595
0.0240309
0.087442
0.398362
0.277425
0.234223
0.0200506
0.0317117
0.060193
0.0246914
0.021215
0.0606551
0.0238641
0.222855
0.14349
0.0207477
0.0200615
0.021478
0.0219868
0.0200633
0.200713
0.365811
0.020109
0.0215351
0.0219432
0.0345104
0.0212547
0.0208575
0.0337406
0.0219504
0.0209932
0.212317
0.087731
0.0785044
0.0212705
0.0202362
0.0201254
0.0211763
0.0242721
0.0274773
0.0208778
0.0206215
0.0227371
0.33146
0.0204578
0.0214159
0.0608491
0.0209235
0.0207607
0.0213486
0.486495
0.0202168
0.0214442
0.0204605
0.0225319
0.0202269
0.0250934
0.141928
0.0214162
0.176697
0.027444
0.205958
0.0503862
0.0209916
0.0252911
0.0208472
0.0207449
0.0210026
0.438005
0.412173
0.0309257
0.0261234
0.591091
0.0658665
0.022185
0.0935157
0.0570348
0.023305
0.0200545
1.2685
0.0221793
0.0207336
0.0203936
0.267271
1.42432
2.21964
0.0207129
0.0876844
0.342754
0.024766
0.0310252
0.0241898
0.0230977
0.0321476
0.199389
0.022897
0.0222171
0.0250548
2.3669
0.238142
0.0212446
0.0213529
0.0210632
0.34743
0.0235216
0.0219216
0.60293
0.0250654
0.035982
0.0241762
0.317651
0.0206772
0.073994
0.0220435
0.0200589
0.0209961
0.0200048
0.0200667
0.0209009
0.0217155
0.24286
0.0205237
0.199199
0.0257244
0.0216635
0.0207488
0.0846448
0.0211995
0.0215167
0.0231894
0.678894
0.0524557
0.0231834
0.021531
0.397431
0.0206726
0.0365701
0.0215146
2.21284
0.0318224
0.31947
0.0256332
0.0210056
0.0323798
1.08828
0.0788493
0.0205566
0.0213418
0.0348313
3.66116
0.019573
0.0430368
0.0206072
0.0260063
0.0208685
0.0200422
0.0220226
0.0220916
0.0200177
0.0362219
0.0344482
0.0245001
0.130798
1.20441
0.0221648
0.290832
0.0201001
0.105112
0.326468
0.164533
0.0200178
0.0219602
0.0214946
0.684173
0.0210563
0.020828
0.0854982
0.0215141
0.021519
0.0221589
0.0220016
0.0212529
2.41386
0.380596
0.0576034
0.0207551
0.0214632
0.128671
0.0200963
0.0654753
0.0215931
0.0214804
0.0219621
0.0237229
0.242216
0.0205035
0.0214704
2.17013
0.0215852
0.0217758
0.0349433
0.350336
0.146054
0.0214261
0.0210744
3.45651
0.436893
2.4106
0.020748
0.0318309
0.191432
0.0203529
0.0332388
0.0229045
0.431804
0.0236407
0.0215492
0.0221682
0.0200227
0.337247
0.0214613
0.0204702
0.350739
0.0276654
0.255868
0.0199825
0.022617
0.0200352
0.0196425
0.0202121
0.0221416
0.0216114
0.0218538
0.0200259
0.0217536
0.0418912
0.0267207
0.0244701
0.020652
0.023703
0.0210764
0.332649
0.0216295
0.0220883
0.021552
0.0200602
0.0218078
0.0218989
0.0211918
0.0212369
0.0208353
0.020219
0.501707
0.308768
0.0212648
0.423838
0.0324469
0.0216976
0.0216851
0.0221336
0.552011
0.0217577
0.0200954
0.0201015
0.020028
2.38602
0.0212875
0.0202873
0.199272
0.0200184
0.0197342
0.0240686
0.0240669
0.0664679
0.137901
1.71551
0.0200726
0.195585
0.0247794
0.0212342
0.0204199
0.0243937
0.0212857
0.0279737
0.0528211
0.0231423
0.021858
2.71152
0.0495818
2.12383
0.649736
0.385679
0.070552
0.0204587
0.248917
0.384372
0.0201336
0.242717
0.0207096
0.0222893
0.137267
0.0207222
0.112894
0.0251177
0.0228008
0.021991
0.0383171
0.0213756
0.414873
0.021243
0.0201936
0.573681
0.0197542
0.0214463
0.0218281
0.0474769
0.0212064
0.021443
0.0229387
0.343024
0.0212249
0.0212812
0.0202404
0.0235282
0.0211849
0.0222876
0.254334
0.0209834
0.0254221
0.0217036
0.0235717
0.0226089
0.0209433
0.0218934
0.0948075
0.0215686
0.0217342
0.0244897
0.301433
0.0222807
0.0211285
0.0214237
0.0253939
0.0662227
0.0224513
0.021023
0.0209772
0.0205612
0.0196299
0.0200441
0.025698
0.0286389
0.0494444
0.0215412
0.92712
0.020639
0.0212142
3.29555
0.0424227
0.0199714
0.0698097
0.0214102
0.021021
0.43886
0.0218253
0.0362922
0.0197313
0.147265
0.0205435
0.0200053
0.0202509
0.217966
0.0734231
0.0215437
0.121442
0.0202312
0.0208985
0.0207393
0.14201
0.0212129
0.0206559
0.0220092
0.0226783
0.021275
0.0214543
0.0207994
0.0217574
0.0215309
0.0208465
0.023589
0.0199925
0.993084
0.0603252
0.0202229
0.0501606
0.0252431
0.020944
0.0206513
0.0218492
0.0207444
0.0277302
0.0243757
0.0425996
0.0424051
0.0216763
0.0702413
0.149549
0.0212255
0.0217641
0.0808284
0.0231277
0.311149
0.0202151
0.0210069
0.0225638
0.0217508
0.0209143
0.0252225
0.0209518
0.0218743
0.0212496
0.0231759
0.0205119
0.119543
0.0213508
0.0238171
0.0283931
0.021015
0.434284
0.466842
0.0228778
0.0257343
0.0270626
0.0198701
0.0478995
0.0214377
0.0310031
0.633247
1.85936
0.0364002
0.0221538
0.0259812
0.0210151
0.0284572
0.0205299
0.380565
0.0279962
0.0214476
0.0208087
0.0470029
0.0353851
0.0212296
0.0212247
0.316462
0.0216087
0.0206467
0.0949423
0.050304
0.0201237
0.15918
0.0203106
0.0402093
0.052643
0.0212695
0.021432
0.0233756
0.126225
0.0207959
0.0252715
0.0214369
0.0212773
0.0208293
0.970714
0.0218223
0.0213835
0.0211244
0.128347
0.0254749
0.0208091
0.0197691
0.102658
0.0211537
0.0204547
0.100738
0.467939
0.021892
0.260633
0.0234123
0.0444225
0.0221606
0.0535997
0.436398
0.0216749
0.0209092
0.0203166
0.0238768
0.0212074
0.631864
0.642461
0.0205286
0.0222706
0.0203369
0.0200263
2.53054
0.0212154
0.0225406
0.0226488
0.0559204
0.0214511
0.021684
0.0243834
0.447802
0.0214619
0.0213935
0.0204455
0.0205657
0.0236724
0.0426635
0.021556
0.0211261
0.0213077
0.0210813
0.0203237
2.5383
0.0217218
0.0210655
0.0210987
0.0558438
0.0203733
0.0204574
0.0320721
0.0209021
0.0385737
0.0212568
0.0214311
0.27156
4.03542
0.178847
0.0332521
0.0235874
0.0218461
3.09375
0.0206302
0.0244314
0.0199962
0.0834517
0.0195471
0.0238192
0.0214597
0.782625
0.0374182
0.0355767
2.91952
0.0224661
0.0499012
0.0217092
0.0219809
2.37782
0.0320379
0.0211791
0.0203023
0.0233608
0.026284
0.0214236
0.0213122
0.0206256
0.0199406
0.18705
0.397621
0.0217102
0.0223818
0.375497
0.977743
0.0229908
0.0221421
0.022908
0.024004
0.021218
0.0222037
0.148185
0.0209141
0.0203262
0.02151
0.148029
0.355032
0.0247758
0.0215474
0.0216443
0.0258084
0.0213451
0.0255538
0.0365723
0.0459553
0.0228697
0.291389
0.0201198
0.0212332
0.0218214
0.0199718
0.0215507
0.0208595
0.0334329
0.0210099
0.0573994
0.0213514
0.0207207
0.0204874
0.029997
0.0224129
0.0414077
0.0483405
0.0201582
2.83155
0.0228899
0.0205022
0.0197971
0.348225
0.242054
0.0198183
0.0208154
0.0207542
0.022193
0.169708
0.0531033
0.0220518
0.0220064
0.138604
2.81642
0.0219625
0.0212169
0.286078
0.0235012
0.0833114
0.0233009
0.0211512
0.0567031
0.0240722
4.13953
0.0249375
0.405545
0.0204006
0.0209001
0.0217134
0.0215995
0.0234468
0.0216795
0.0215451
0.0207925
0.0217591
0.021628
0.0216225
0.0214402
0.0227684
0.0219153
0.0213408
0.0208575
0.0338056
0.0234754
0.0209231
0.0215102
0.180339
0.0213831
0.0217028
0.0219857
1.00991
0.0204589
0.0357546
0.0226622
0.0201984
0.0210786
1.17524
0.0752035
0.0220182
0.0214022
0.023498
0.0342341
0.0208743
0.0267333
0.0386125
0.021057
0.0977073
0.0208263
0.0213327
0.0209433
0.0217823
0.0276367
0.0612703
3.33725
0.0256237
0.0202095
0.0214992
0.0211318
0.0522409
0.0219169
0.34444
0.020821
0.0213715
0.0213563
0.069385
0.0209458
0.0215668
0.0212617
0.136623
0.0204673
1.75121
0.0204266
0.0254072
0.0212829
0.0283043
0.0209939
0.023324
0.350412
0.0330819
0.020218
0.0343944
0.0215068
0.0213529
2.00351
0.500683
0.0203213
0.0212504
0.0233114
0.0202474
0.021123
0.0218462
0.0216856
0.02459
0.0485418
0.0221266
0.0255056
0.0333703
0.0217309
0.0209998
0.0211794
0.0225437
0.0272779
0.0214286
3.73349
0.0206997
3.11361
0.0355777
0.0201354
0.0207131
0.0206924
0.174873
0.0215242
0.0234357
0.0214941
0.0207403
0.566545
0.0227618
0.0253251
0.0216451
0.0214657
0.0226132
0.0212357
0.0227623
0.0213668
0.0222657
0.0219522
0.0218598
0.455977
0.0246474
0.46647
0.0210003
0.023674
0.022487
0.314403
0.0556834
0.136736
0.0224586
0.0199642
0.0387713
0.0208983
0.470992
0.0220994
0.0407975
0.0224138
1.0446
1.83869
0.0233828
0.0253497
0.0207488
0.0205318
0.0218712
0.0199077
0.0217152
0.0228852
0.020785
0.0251916
0.0436367
0.309491
0.0208993
0.0455356
0.0201066
0.0211927
0.0211592
0.0915993
0.0217049
0.046694
0.0216833
0.0210776
2.7859
0.020883
0.0232811
0.0210637
0.0233952
0.111185
0.0260417
2.17544
0.0211495
0.0543157
0.0228347
0.0211207
0.0211488
0.0285477
0.0239649
0.0212783
0.0226344
0.0213261
0.47644
0.0207332
0.397181
0.252412
0.0619194
0.0251207
0.0857406
0.024768
0.0198993
1.05362
0.021191
0.136624
0.0218396
0.0225838
0.328234
0.33395
0.0261861
0.290706
0.0213833
0.300714
0.0196101
0.161287
0.0201603
0.0217754
0.0411338
0.0217687
0.0207205
0.0219645
0.0212706
0.0333633
0.321594
0.0309438
0.361973
0.0206651
0.993221
0.0214395
0.0216435
0.0210058
0.0211063
0.471012
0.021597
0.020562
0.0349744
0.0217919
0.359319
0.0606232
0.0212701
0.0413193
0.031691
0.020857
0.0214346
0.0239364
0.0203202
0.0525415
0.0273255
0.0225779
0.0226865
0.0204426
0.0212066
0.054733
0.0219774
0.0214446
0.0222158
0.0198923
0.0201371
1.94731
0.0269965
0.711587
0.0259975
0.0497832
0.0261915
0.0211164
0.0260121
0.0204811
0.0209838
0.202427
0.023951
0.024293
0.0421922
0.0218337
0.268965
0.220742
0.0210736
0.0240329
0.0267225
2.99262
0.0203105
0.020356
0.0217328
0.0286326
0.31269
0.0248961
0.0234694
0.0218104
0.0211725
0.0199652
0.140654
0.0235012
0.0219415
0.463604
0.0216248
0.0230116
0.0243682
0.0214945
0.0212405
0.0210118
0.0513341
0.100444
0.0218572
0.0228999
0.291232
0.0208949
0.0219453
0.023396
0.021583
0.396799
0.380239
0.0452731
0.0662956
1.01276
0.0227342
0.020846
0.0379339
0.0221806
0.0267446
0.021042
0.0201891
0.353554
0.528938
0.0210797
0.0207532
0.0270109
0.0741618
0.0228677
0.019988
2.55349
0.0227758
0.0340087
0.0201434
0.0263349
0.0195867
0.0225722
0.0258178
0.0211724
4.26258
0.0219452
0.0329049
0.0885993
0.305669
0.0754315
0.0211971
0.0577012
0.0240324
0.0244982
0.0222482
0.0215642
0.021447
0.0227134
0.305599
0.0227161
0.326321
0.0207845
0.206278
0.0202918
0.0218763
0.27706
0.0241423
0.203284
0.0224242
0.022068
3.22862
2.55467
0.0208686
2.83447
0.0343855
0.0207216
0.0198415
2.22058
2.81483
0.0204695
0.0202758
0.0210322
0.0202478
3.06726
0.293045
0.0195254
0.0197847
0.020865
0.231883
0.0447487
0.334683
0.0202023
0.309855
0.021567
0.0513772
2.1779
0.0239888
0.0205893
0.0205065
0.334138
0.0203405
0.021059
0.0202171
0.0240149
0.0228582
3.87111
0.0252128
0.0217952
0.021197
0.0257219
0.191661
0.0413978
0.0211203
0.0208521
0.152435
0.0463126
0.0220712
0.500772
0.0277603
0.0229753
2.63986
0.022635
0.025849
0.0218037
0.161686
0.0214221
0.0218066
2.33175
0.0265826
0.0210498
0.0213509
0.019592
0.0375544
0.10634
0.0209814
0.0202693
0.0221052
0.065167
0.0223017
0.0202006
0.021246
0.0207281
0.0225316
0.0394662
0.0214481
0.0209535
2.07328
0.0211086
1.1518
0.0284997
0.0303979
0.0232065
0.0222273
0.0214753
2.71458
0.0738458
0.0661679
3.82965
0.0280313
0.0208781
0.299236
0.0202295
0.0717183
3.01295
0.0225454
0.0211291
0.023465
0.0692006
0.0212006
0.021008
2.76818
0.0212665
0.0223418
0.0207002
0.0216356
0.0203349
0.0566165
0.125594
0.020145
0.0210244
0.96208
0.0211919
0.0201834
0.0209991
0.0208306
0.13263
0.0227257
0.0230731
0.0222317
0.0219448
0.0203557
0.035156
0.10355
0.0255911
0.270554
0.0224701
0.0236026
3.81043
0.0208898
0.020366
0.0210767
0.0208314
0.0218121
0.019745
0.0221332
2.99674
0.0211739
0.0210941
0.0227681
0.0208154
0.368212
0.0216632
2.29186
0.187728
0.0238606
0.0281252
0.356567
0.0240326
0.0211786
0.0233208
0.0209517
0.022534
0.0215742
0.0217598
0.252353
0.0202882
0.0213271
0.0376799
0.271762
0.0216876
0.0208441
0.188287
0.0223973
0.0252831
0.0213119
0.0208557
0.0209748
1.84078
0.0214897
0.254672
0.046827
0.0216374
0.0208347
0.0210432
0.0236029
0.320967
0.0201565
0.0387455
0.0210986
2.28693
0.225732
0.0220742
0.17284
0.0215412
0.023077
0.0234406
0.282898
0.0225381
0.0254534
0.0260006
0.415144
0.021668
0.0366399
0.0214483
0.0432936
0.144351
0.178447
0.0209509
0.0287365
0.303647
0.58255
0.0230317
0.0235689
0.346302
0.344683
0.0208176
0.0527384
0.0211934
0.0241832
0.0214706
0.0223746
0.022282
2.72173
0.0216326
0.0217928
0.0522201
0.415581
0.788065
0.123424
0.573667
0.0207841
0.339474
0.0566575
0.0210563
0.0211213
0.421044
0.0235603
0.0214845
0.021247
0.0354677
0.0206976
0.0212586
0.440643
0.0214615
0.0217361
0.0210409
0.021401
0.0224699
0.0204692
2.48771
0.0229716
0.0229448
0.0205168
0.0291154
0.202
0.0208992
0.0217555
0.323684
0.181478
0.021353
0.0238164
0.0207091
0.020936
0.0379567
0.165899
0.0209374
0.0210471
0.318088
0.139011
1.20096
0.0293947
0.0221648
0.410302
0.0207279
0.0243326
0.0236548
0.0205789
2.2891
1.11474
0.0350144
0.0284969
0.157104
0.0198473
0.0197766
0.0226917
0.0312568
0.556298
0.020334
0.0331878
0.245423
0.365581
0.0216263
0.0224181
0.276573
0.0209649
0.0237872
0.202542
0.0209669
0.0211961
0.0204442
0.270837
0.0208593
0.0239618
0.0219001
0.032818
0.027787
0.403919
0.0211863
0.0211338
0.0282279
0.0216919
0.0237724
0.0220725
0.100401
0.120281
0.020993
0.021346
3.3941
0.350277
1.02673
0.020756
0.0213574
0.0226239
0.0215322
0.0212747
0.021432
0.0209095
0.021867
0.0206695
0.0207641
0.0495141
0.0231445
0.027133
1.03736
0.0594302
0.0456038
0.0246691
0.0483921
0.132831
0.0283997
0.0236969
0.0261148
0.0210708
0.842266
0.0200718
0.0202773
0.0207016
0.457112
0.0208968
0.444634
0.0217641
0.0201343
0.0428471
0.0211732
0.0211468
0.0211663
0.0258432
1.75472
0.0216008
0.0205784
0.0225656
0.274085
0.0453548
0.351419
0.0210429
0.0323863
0.0215051
0.0215345
0.020201
0.0207228
0.0213567
0.0224174
0.134839
0.0225302
0.0224646
0.11823
0.941801
0.127777
0.0208477
0.0933986
0.031186
0.368173
0.0205463
0.0210507
0.0224086
0.0891268
0.0197923
0.0213602
0.0207144
0.0203418
0.125132
0.0221017
0.0528059
0.0210303
0.0197757
0.0231142
0.0214319
0.589218
0.0211162
0.0240146
0.0217682
0.0257591
0.0220206
0.055751
0.348305
0.0212335
0.0415932
0.675069
0.02112
0.0215357
0.0389585
0.0197234
2.63758
0.0273811
0.020971
0.0538775
0.0200121
0.0212806
0.0214588
0.020709
0.0202321
0.0221069
0.0206702
0.0207137
0.0215271
0.0218865
0.0446886
0.0200702
0.139604
0.020521
0.0209018
0.0265802
0.0412433
0.0220346
0.0197183
0.021199
0.0222728
0.0397287
0.212426
0.0315685
0.0219023
0.0219314
0.0207546
0.0279435
0.020938
0.0222812
0.376914
0.250929
0.044306
0.0210776
0.0218381
0.0221035
0.0197257
0.045224
0.0201232
0.0893304
0.0219497
0.186617
0.0254519
0.374084
0.0215555
0.0574291
1.83338
0.403076
0.340015
0.0247179
0.396409
0.344417
0.0218457
0.0327037
0.46473
0.0205351
0.0207473
0.0213371
0.0239452
0.469628
0.0214674
0.0241475
0.575625
0.0195292
0.021463
0.306657
0.887953
0.10107
0.366014
0.47584
0.0220996
0.0522369
0.0231344
0.0234429
0.458487
0.0223346
3.71157
0.0410349
0.0234461
0.0214454
0.0225819
0.022322
0.0205427
1.76489
0.0197867
0.021248
0.0213124
0.64717
3.87968
0.0338081
0.0213022
0.0223256
0.020469
3.14288
0.0209828
0.0220995
0.0232754
0.0992108
0.0206959
0.0696173
2.26361
0.328341
0.0217376
0.181351
0.0205299
0.262346
0.0198223
0.0425832
0.0214395
0.063571
0.0256304
1.06916
0.127538
0.0228093
0.0226585
0.0273051
0.0238571
0.0211022
0.0207038
0.0248842
0.0218846
0.301935
0.0196539
0.0210903
0.0214288
0.0214009
0.252063
0.0207388
0.0201322
0.0215598
0.0479319
0.0260095
0.0511953
0.0227292
0.0224444
0.0769645
0.020521
0.0213112
0.0618772
0.0408946
0.0201345
0.0332004
0.0227795
0.332635
0.0212495
0.107409
0.0215
0.0212162
0.0202276
0.0201743
0.0211621
0.0210722
0.188537
0.0558613
0.0215592
0.0213191
0.02113
0.0221157
0.025848
2.06723
0.0218002
0.0288402
0.0239193
0.322095
0.0216267
0.0389815
0.0212955
0.0212568
0.028278
0.0212217
0.0214496
0.0206639
0.0200735
0.45749
0.0213824
0.0207303
0.0346574
0.472113
0.0360659
0.0213236
0.0198978
0.0236593
2.18975
0.0230447
0.0216863
0.0215268
0.191082
0.0218455
0.0211333
2.71758
0.0207998
0.0243742
0.0226847
0.0215353
0.0201683
0.0495769
0.0258019
0.0206139
0.0212839
0.021397
0.0208992
0.359003
0.0226124
0.0213944
0.0197665
0.0219888
0.0201789
0.0212443
0.0740585
0.0206313
0.0239696
0.0235238
0.304286
0.0197196
0.0224684
0.0507705
0.0257339
0.201898
0.0209578
0.021505
0.275556
0.0214013
0.0201746
0.379653
0.0214129
1.8621
1.01009
0.0642919
0.341518
0.0214137
0.0265284
1.83911
0.0212445
0.0199987
0.127898
0.467292
0.0208964
0.0201421
0.0227274
0.020659
0.209526
0.0442899
0.980132
0.0214783
0.021639
0.0212192
0.0210959
3.037
0.0690704
3.68315
0.0241596
0.0224449
2.25668
0.0213378
0.020895
0.0224376
0.0209294
0.0218288
0.0385536
0.0197176
0.449813
0.0218782
0.0219591
0.0213927
0.0257146
0.020673
3.20104
0.020676
0.0211987
0.0226497
0.0201597
3.48048
0.0241298
0.0257115
2.67122
0.0334328
0.0303666
2.92583
0.0212908
3.38718
0.0260004
0.020765
0.0223415
0.0216604
0.377849
2.99721
0.021472
0.0232654
0.432948
0.0210694
0.0205666
0.0238913
2.08335
0.480031
0.0215213
0.0220082
0.0865661
0.0229284
0.065681
0.0645808
0.0599769
0.0201456
0.389918
0.021539
0.353475
0.0509526
0.032153
3.75273
0.317385
3.79266
0.020364
0.797784
0.0199562
0.0197749
0.255586
0.019754
0.0221621
0.0211452
0.0550611
0.0206005
0.146643
0.020163
0.0313962
0.458495
0.0254488
0.0243902
0.392191
0.0217965
0.0202408
0.0218372
0.0883371
0.0240785
0.136172
0.0214164
0.0252225
0.021754
0.991806
0.0214163
0.0215599
0.0213676
0.656996
0.0303516
0.0215103
3.70694
0.0211057
0.0213841
0.0246329
0.160318
0.0213931
3.11874
0.0214523
2.52339
0.0214272
0.0400072
0.0209894
0.0482964
0.021425
0.0536483
0.0242513
0.0569523
0.0208951
0.0217225
0.527789
0.0203656
0.024165
0.027163
0.0200604
0.0560139
0.31144
0.14201
0.0221236
0.0197284
0.0211884
0.130273
0.0236869
4.46983
0.0237174
0.32061
0.0210967
0.567927
0.0205327
0.0300917
0.118262
0.0228007
0.598425
0.0235119
3.6194
0.166615
0.0207731
0.254756
0.0222587
0.0211405
0.0227147
0.0766747
0.0233999
0.163457
0.0243731
0.1124
0.0406242
0.0622715
0.0457535
0.29577
0.0214544
0.0215237
3.63559
3.62441
0.0329385
0.0232886
2.06324
2.66251
0.0211208
0.0214336
0.0212091
0.893413
0.0207087
0.0209091
0.0311182
0.0917271
0.0198212
0.0206134
0.0221646
1.74717
0.0205008
0.0239914
0.0198214
0.122077
0.0217598
0.594369
0.0218109
0.0206481
0.0213367
0.0202514
0.574855
0.0349352
0.21501
0.0213255
0.0275765
0.0202043
0.209976
0.271224
0.0476775
0.0207936
0.136092
0.0208878
0.0215769
0.359639
0.0210767
0.0239524
0.381722
0.0201476
0.110849
0.0207513
0.0198316
0.0215461
0.383762
0.0207726
3.7839
0.0973533
0.248994
0.314062
0.0207093
0.617626
0.0623238
4.18995
0.0318741
3.54632
0.180714
0.0215597
0.0326861
0.0217194
0.0284945
0.0208917
0.0228247
0.0212066
0.0250918
0.336684
3.10818
0.0239397
0.0228658
0.106535
0.417141
0.0212063
0.0214606
0.906997
0.0333149
0.0203866
0.257423
0.0343407
0.0221514
0.0203426
0.0223323
0.321691
0.0216123
0.0552507
0.0195927
0.110302
4.22597
0.0731213
0.0222361
0.0214605
0.0211844
0.0212754
0.0214599
0.0247887
0.0223938
0.0216427
3.93727
0.0208364
0.021516
0.021061
0.308471
0.393741
0.0212527
0.0213381
2.92478
0.0204813
3.05851
0.0215197
0.0213639
0.019717
0.0216127
0.0205858
0.0227706
0.0203486
0.548699
0.0218676
0.0936852
0.0213526
2.16994
0.0214664
0.0241399
2.20499
0.189181
0.0212319
0.021444
0.031629
0.0197207
0.366175
0.415507
0.0224854
0.0207569
0.0212378
0.0203292
0.0456445
0.245123
0.0363622
0.427591
0.0362329
0.0213947
0.021187
0.0205273
1.05172
0.340361
0.0229858
0.0211315
0.0208136
0.0264742
0.0213781
3.00915
3.35937
0.028465
0.0202715
3.54639
0.129335
0.021442
0.059487
0.0223152
0.570117
0.0322171
0.0325018
0.026521
0.746523
0.0307172
4.56495
0.0208453
0.0205237
0.020697
0.0202944
0.0214994
0.0273318
0.0204592
0.024913
0.0200024
0.241353
0.021057
0.0287007
2.12373
0.0220478
0.0198031
0.0284654
3.8645
0.0212547
0.0206031
0.187411
0.727126
2.62572
0.0213471
0.0197264
2.99041
0.125533
0.023783
0.0500037
0.0213849
0.0330958
0.0215022
0.127014
0.0206571
0.0209042
0.413476
0.0204181
0.0226983
0.380269
0.0502685
0.0206382
0.0208797
0.020746
3.07608
0.0238873
0.025529
0.0214257
0.020784
0.120167
0.0305157
0.0211536
0.0212947
0.0197271
0.0228632
0.0206449
0.0227321
0.191827
3.04594
0.0232317
0.0358818
0.0207985
0.0411661
0.0212208
0.0215319
0.0207672
0.239446
0.0399757
0.0200209
0.0226459
0.697663
0.0337732
3.37489
0.0479557
0.0212968
0.0207727
0.0278243
0.0222402
3.64181
0.0205177
3.78445
3.66314
0.0209026
0.0351597
0.328128
0.0255067
1.7832
0.109177
0.0213741
2.95896
0.0251371
0.0205431
3.71662
2.8975
0.0980416
0.0217172
2.66946
2.25975
0.0213393
0.173715
2.22284
0.0213792
0.0207089
0.0218031
0.0200136
0.0215569
0.152749
0.569741
0.0214217
0.0249685
2.42472
3.70235
0.0339546
0.0523909
0.0210713
0.0248497
0.807513
0.0508423
3.62221
3.04257
0.0212572
0.0214476
0.0210526
0.0226518
1.87429
0.339554
0.0210513
0.0328333
0.344917
0.227245
0.0487899
0.0211352
0.0214888
0.0219192
0.252975
0.022338
0.033202
0.0286523
0.0219906
0.396559
0.0231724
0.0514351
0.139668
0.391339
0.0212203
0.0212047
0.0225523
0.0310079
0.206675
2.39068
0.0218546
2.13032
1.42621
0.0320894
0.0304935
0.615585
0.347306
0.323262
3.25107
0.0213281
0.183826
0.991729
0.0294497
0.0273487
0.128126
0.0225577
0.116897
0.0231257
0.0208877
0.0199741
0.0215552