/*--------------------------------*- C++ -*----------------------------------*\
| =========                 |                                                 |
| \\      /  F ield         | OpenFOAM: The Open Source CFD Toolbox           |
|  \\    /   O peration     | Version:  v2012                                 |
|   \\  /    A nd           | Website:  www.openfoam.com                      |
|    \\/     M anipulation  |                                                 |
\*---------------------------------------------------------------------------*/
FoamFile
{
    version     2.0;
    format      ascii;
    class       volVectorField;
    location    "900";
    object      cellDisplacement;
}
// * * * * * * * * * * * * * * * * * * * * * * * * * * * * * * * * * * * * * //

dimensions      [0 1 0 0 0 0 0];


internalField   nonuniform List<vector> 
18758
(
(0 8.92009e-06 0)
(0 9.07315e-06 0)
(0 -6.91104e-06 0)
(0 8.67582e-06 0)
(0 9.21165e-06 0)
(0 9.20958e-06 0)
(0 9.23846e-06 0)
(0 1.21571e-05 0)
(0 8.45019e-06 0)
(0 4.49909e-06 0)
(0 -4.29845e-06 0)
(0 9.23175e-06 0)
(0 4.74013e-06 0)
(0 4.64919e-06 0)
(0 -5.2498e-05 0)
(0 9.21143e-06 0)
(0 -3.31939e-06 0)
(0 1.78666e-05 0)
(0 -3.58337e-05 0)
(0 5.779e-06 0)
(0 9.23163e-06 0)
(0 4.86522e-06 0)
(0 9.23652e-06 0)
(0 8.8743e-06 0)
(0 9.09178e-06 0)
(0 1.35242e-05 0)
(0 9.22238e-06 0)
(0 9.21531e-06 0)
(0 9.14704e-06 0)
(0 9.22207e-06 0)
(0 -3.10529e-07 0)
(0 9.24549e-06 0)
(0 2.79473e-06 0)
(0 -2.10262e-05 0)
(0 5.87593e-06 0)
(0 7.05533e-06 0)
(0 3.61421e-06 0)
(0 -1.09731e-05 0)
(0 -1.11148e-05 0)
(0 -1.28427e-06 0)
(0 -1.23921e-05 0)
(0 5.55484e-06 0)
(0 -1.76231e-05 0)
(0 4.70215e-06 0)
(0 9.20318e-06 0)
(0 1.10108e-05 0)
(0 9.23668e-06 0)
(0 -1.34214e-06 0)
(0 4.30678e-06 0)
(0 -2.2201e-05 0)
(0 8.58365e-06 0)
(0 9.18961e-06 0)
(0 -1.07214e-05 0)
(0 -4.77746e-06 0)
(0 9.21873e-06 0)
(0 9.18497e-06 0)
(0 4.039e-06 0)
(0 9.19067e-06 0)
(0 -6.71696e-06 0)
(0 5.34171e-06 0)
(0 8.7708e-06 0)
(0 9.23658e-06 0)
(0 7.26738e-06 0)
(0 9.92414e-07 0)
(0 -8.7222e-06 0)
(0 -6.90514e-06 0)
(0 -1.78947e-06 0)
(0 3.52943e-06 0)
(0 -1.13894e-05 0)
(0 9.19565e-06 0)
(0 9.21047e-06 0)
(0 -7.85978e-07 0)
(0 -2.13961e-05 0)
(0 9.2317e-06 0)
(0 -6.83684e-06 0)
(0 -6.47077e-06 0)
(0 8.16279e-06 0)
(0 9.21141e-06 0)
(0 8.98655e-06 0)
(0 9.24135e-06 0)
(0 9.22233e-06 0)
(0 9.2061e-06 0)
(0 5.5345e-06 0)
(0 9.21338e-06 0)
(0 8.15423e-06 0)
(0 -1.91366e-06 0)
(0 9.22572e-06 0)
(0 7.21549e-06 0)
(0 9.2322e-06 0)
(0 -6.43743e-06 0)
(0 9.21735e-06 0)
(0 -6.77487e-06 0)
(0 9.22972e-06 0)
(0 5.75245e-06 0)
(0 9.22161e-06 0)
(0 9.23022e-06 0)
(0 8.07518e-06 0)
(0 -7.51642e-06 0)
(0 -5.98529e-07 0)
(0 9.23161e-06 0)
(0 5.99746e-06 0)
(0 9.2222e-06 0)
(0 4.74201e-06 0)
(0 6.97814e-06 0)
(0 9.24648e-06 0)
(0 9.22001e-06 0)
(0 8.94643e-06 0)
(0 9.20747e-06 0)
(0 -6.59872e-06 0)
(0 -6.41692e-07 0)
(0 9.22928e-06 0)
(0 9.23177e-06 0)
(0 1.62768e-05 0)
(0 -3.90479e-06 0)
(0 9.13457e-06 0)
(0 9.23169e-06 0)
(0 9.23162e-06 0)
(0 -5.41604e-05 0)
(0 9.23678e-06 0)
(0 9.22318e-06 0)
(0 3.54391e-06 0)
(0 -7.57426e-06 0)
(0 9.1964e-06 0)
(0 9.22305e-06 0)
(0 9.15221e-06 0)
(0 9.19981e-06 0)
(0 9.06101e-06 0)
(0 8.85391e-06 0)
(0 9.23079e-06 0)
(0 2.98641e-06 0)
(0 -2.89287e-06 0)
(0 9.21933e-06 0)
(0 9.23169e-06 0)
(0 8.52101e-06 0)
(0 9.23132e-06 0)
(0 3.05592e-06 0)
(0 8.09431e-06 0)
(0 -8.0056e-07 0)
(0 -8.4223e-08 0)
(0 8.9714e-06 0)
(0 8.9895e-06 0)
(0 9.15037e-06 0)
(0 -4.39258e-06 0)
(0 9.1948e-06 0)
(0 -1.29706e-05 0)
(0 -4.0233e-05 0)
(0 9.23175e-06 0)
(0 9.23007e-06 0)
(0 -8.57865e-07 0)
(0 9.12825e-06 0)
(0 9.20286e-06 0)
(0 8.77976e-06 0)
(0 -1.21858e-06 0)
(0 5.40439e-06 0)
(0 9.22772e-06 0)
(0 -2.09307e-07 0)
(0 9.23823e-06 0)
(0 -9.95777e-07 0)
(0 -4.25278e-06 0)
(0 2.26317e-06 0)
(0 1.09801e-05 0)
(0 5.69102e-06 0)
(0 9.2294e-06 0)
(0 -4.45606e-06 0)
(0 8.73132e-06 0)
(0 9.15658e-06 0)
(0 -3.17353e-05 0)
(0 9.20763e-06 0)
(0 8.97788e-06 0)
(0 9.20607e-06 0)
(0 9.23043e-06 0)
(0 1.77677e-05 0)
(0 9.22894e-06 0)
(0 9.21447e-06 0)
(0 5.72241e-06 0)
(0 8.83801e-06 0)
(0 9.15794e-06 0)
(0 1.28994e-06 0)
(0 8.94885e-06 0)
(0 -6.61339e-06 0)
(0 2.08018e-05 0)
(0 9.23177e-06 0)
(0 8.74481e-06 0)
(0 -2.97397e-05 0)
(0 -2.00861e-05 0)
(0 8.66921e-06 0)
(0 -5.1193e-06 0)
(0 9.23165e-06 0)
(0 -1.83225e-05 0)
(0 -5.813e-06 0)
(0 8.54518e-06 0)
(0 8.82524e-06 0)
(0 -2.57005e-06 0)
(0 -1.36138e-06 0)
(0 7.23892e-06 0)
(0 7.37367e-06 0)
(0 5.92301e-06 0)
(0 8.99911e-06 0)
(0 1.45071e-05 0)
(0 -1.81433e-05 0)
(0 8.92323e-06 0)
(0 -1.05721e-06 0)
(0 6.35219e-06 0)
(0 6.50829e-06 0)
(0 6.16316e-06 0)
(0 7.08971e-06 0)
(0 5.32062e-06 0)
(0 4.47419e-06 0)
(0 9.23259e-06 0)
(0 4.4294e-06 0)
(0 1.83316e-05 0)
(0 7.12751e-06 0)
(0 -3.90342e-06 0)
(0 5.97716e-06 0)
(0 8.94282e-06 0)
(0 9.22381e-06 0)
(0 8.97648e-06 0)
(0 9.20892e-06 0)
(0 -4.48227e-06 0)
(0 9.20756e-06 0)
(0 1.8139e-05 0)
(0 -6.11684e-06 0)
(0 7.69978e-06 0)
(0 9.23164e-06 0)
(0 8.92274e-06 0)
(0 5.05711e-06 0)
(0 6.27274e-06 0)
(0 8.29295e-06 0)
(0 -4.13503e-05 0)
(0 6.70203e-06 0)
(0 -7.58349e-06 0)
(0 7.33781e-06 0)
(0 9.23504e-06 0)
(0 8.13207e-06 0)
(0 4.08284e-06 0)
(0 -5.0451e-06 0)
(0 -3.9341e-05 0)
(0 1.27929e-05 0)
(0 9.1918e-06 0)
(0 5.27643e-06 0)
(0 1.25486e-05 0)
(0 9.13421e-06 0)
(0 8.95751e-06 0)
(0 -1.18843e-05 0)
(0 9.11351e-06 0)
(0 9.23163e-06 0)
(0 8.06059e-06 0)
(0 7.63815e-06 0)
(0 9.22197e-06 0)
(0 6.85039e-06 0)
(0 6.24937e-06 0)
(0 9.20907e-06 0)
(0 -1.87422e-06 0)
(0 6.95656e-06 0)
(0 -5.05856e-05 0)
(0 4.30622e-06 0)
(0 8.68337e-06 0)
(0 9.21152e-06 0)
(0 5.85046e-06 0)
(0 8.95239e-06 0)
(0 -6.79361e-05 0)
(0 3.99504e-06 0)
(0 8.711e-06 0)
(0 6.34835e-06 0)
(0 4.24068e-06 0)
(0 7.65976e-06 0)
(0 9.23196e-06 0)
(0 -3.34596e-06 0)
(0 -7.44638e-06 0)
(0 9.16693e-06 0)
(0 -7.74822e-06 0)
(0 -2.05581e-05 0)
(0 6.54098e-06 0)
(0 9.17724e-06 0)
(0 9.23167e-06 0)
(0 -4.65232e-06 0)
(0 8.43535e-06 0)
(0 9.23163e-06 0)
(0 9.20168e-06 0)
(0 -1.56416e-06 0)
(0 -2.49438e-05 0)
(0 2.7941e-06 0)
(0 5.20804e-06 0)
(0 -4.32141e-06 0)
(0 9.23079e-06 0)
(0 9.11662e-06 0)
(0 8.17598e-06 0)
(0 9.23177e-06 0)
(0 9.2347e-06 0)
(0 -2.89677e-05 0)
(0 -8.52572e-06 0)
(0 8.45277e-06 0)
(0 9.22107e-06 0)
(0 5.20037e-06 0)
(0 8.9511e-06 0)
(0 7.61469e-06 0)
(0 3.19431e-06 0)
(0 9.22367e-06 0)
(0 -3.53133e-05 0)
(0 7.91309e-06 0)
(0 9.21136e-06 0)
(0 1.14914e-05 0)
(0 9.18338e-06 0)
(0 7.76074e-06 0)
(0 -1.15785e-05 0)
(0 5.26827e-06 0)
(0 7.48263e-06 0)
(0 -3.87482e-05 0)
(0 6.46236e-06 0)
(0 9.24632e-06 0)
(0 8.0347e-06 0)
(0 5.05426e-06 0)
(0 9.24779e-06 0)
(0 9.22331e-06 0)
(0 8.88825e-06 0)
(0 2.7392e-06 0)
(0 1.44289e-06 0)
(0 8.54136e-06 0)
(0 -1.15558e-05 0)
(0 -2.88992e-05 0)
(0 -2.19647e-05 0)
(0 2.44857e-06 0)
(0 8.99385e-06 0)
(0 7.59551e-06 0)
(0 2.86937e-06 0)
(0 5.1328e-06 0)
(0 5.89951e-06 0)
(0 8.51563e-06 0)
(0 -6.65979e-05 0)
(0 4.20865e-06 0)
(0 8.84396e-06 0)
(0 8.22441e-06 0)
(0 8.49949e-06 0)
(0 8.61258e-06 0)
(0 5.42962e-06 0)
(0 -2.84494e-06 0)
(0 4.38308e-06 0)
(0 7.87248e-06 0)
(0 9.16484e-06 0)
(0 -3.74893e-05 0)
(0 1.93136e-05 0)
(0 -3.56403e-05 0)
(0 2.87962e-06 0)
(0 8.20657e-06 0)
(0 9.07079e-06 0)
(0 -7.65128e-06 0)
(0 -1.69807e-06 0)
(0 -2.60352e-05 0)
(0 9.21606e-06 0)
(0 9.13547e-06 0)
(0 8.33871e-06 0)
(0 8.97313e-06 0)
(0 -2.62351e-05 0)
(0 8.82291e-06 0)
(0 8.90417e-06 0)
(0 4.58696e-06 0)
(0 7.24978e-06 0)
(0 9.23363e-06 0)
(0 9.23138e-06 0)
(0 8.73752e-06 0)
(0 1.53437e-05 0)
(0 6.33161e-06 0)
(0 9.11448e-06 0)
(0 9.18327e-06 0)
(0 2.5409e-06 0)
(0 -2.71015e-05 0)
(0 5.4695e-06 0)
(0 -2.51949e-05 0)
(0 -3.73126e-06 0)
(0 9.10493e-06 0)
(0 8.59123e-06 0)
(0 4.03363e-06 0)
(0 5.7505e-06 0)
(0 9.23193e-06 0)
(0 -6.24561e-06 0)
(0 -7.53381e-07 0)
(0 -3.33395e-06 0)
(0 -1.04296e-05 0)
(0 4.92547e-06 0)
(0 -3.79923e-06 0)
(0 9.24737e-06 0)
(0 9.15958e-06 0)
(0 -5.07095e-05 0)
(0 5.76555e-06 0)
(0 9.23254e-06 0)
(0 3.9052e-06 0)
(0 8.41519e-06 0)
(0 -6.23309e-06 0)
(0 -3.2205e-06 0)
(0 -2.39836e-05 0)
(0 5.28461e-06 0)
(0 -7.43418e-06 0)
(0 -1.40799e-06 0)
(0 9.23182e-06 0)
(0 9.2341e-06 0)
(0 9.22467e-06 0)
(0 9.22723e-06 0)
(0 8.22268e-06 0)
(0 8.11271e-06 0)
(0 9.23256e-06 0)
(0 4.5645e-06 0)
(0 1.52815e-05 0)
(0 8.46972e-06 0)
(0 -1.59714e-05 0)
(0 -4.38693e-05 0)
(0 1.97532e-05 0)
(0 5.16229e-06 0)
(0 -6.76811e-06 0)
(0 4.795e-06 0)
(0 8.93978e-06 0)
(0 9.19183e-06 0)
(0 -2.24225e-05 0)
(0 9.21432e-06 0)
(0 2.08221e-06 0)
(0 3.78907e-06 0)
(0 -1.27846e-05 0)
(0 -6.6173e-06 0)
(0 1.89375e-05 0)
(0 2.9463e-06 0)
(0 3.71676e-06 0)
(0 8.45645e-06 0)
(0 9.23179e-06 0)
(0 3.79941e-06 0)
(0 -8.47135e-07 0)
(0 9.16046e-06 0)
(0 9.07796e-06 0)
(0 8.64859e-06 0)
(0 9.23069e-06 0)
(0 4.38539e-06 0)
(0 -1.61546e-06 0)
(0 1.58211e-08 0)
(0 1.33125e-05 0)
(0 -3.57099e-06 0)
(0 3.73624e-06 0)
(0 -8.72166e-07 0)
(0 -1.12414e-05 0)
(0 7.61711e-06 0)
(0 -1.26859e-06 0)
(0 8.63389e-06 0)
(0 5.01541e-06 0)
(0 -6.69882e-06 0)
(0 4.87715e-06 0)
(0 9.23202e-06 0)
(0 2.56703e-07 0)
(0 8.46621e-06 0)
(0 2.06056e-06 0)
(0 5.57295e-07 0)
(0 9.21961e-06 0)
(0 5.99559e-06 0)
(0 -9.18539e-06 0)
(0 8.6495e-06 0)
(0 6.04843e-06 0)
(0 8.38814e-06 0)
(0 9.23104e-06 0)
(0 -6.58583e-06 0)
(0 -4.59589e-07 0)
(0 9.21388e-06 0)
(0 9.2333e-06 0)
(0 7.97568e-06 0)
(0 8.0926e-06 0)
(0 4.71863e-06 0)
(0 8.54982e-06 0)
(0 9.23176e-06 0)
(0 4.93888e-06 0)
(0 -8.29937e-07 0)
(0 8.31431e-06 0)
(0 -3.93942e-06 0)
(0 3.93089e-06 0)
(0 -2.35568e-06 0)
(0 9.23028e-06 0)
(0 -3.83581e-06 0)
(0 9.0963e-06 0)
(0 -1.12963e-05 0)
(0 6.59023e-07 0)
(0 1.1912e-05 0)
(0 8.86972e-06 0)
(0 -2.00406e-05 0)
(0 9.23154e-06 0)
(0 -3.74839e-06 0)
(0 9.13208e-06 0)
(0 1.02065e-05 0)
(0 8.44298e-06 0)
(0 -3.32433e-06 0)
(0 1.6052e-05 0)
(0 -5.43392e-07 0)
(0 1.89574e-05 0)
(0 8.99545e-06 0)
(0 9.23368e-06 0)
(0 9.13052e-06 0)
(0 -2.64906e-06 0)
(0 -2.24679e-05 0)
(0 7.47211e-06 0)
(0 7.0603e-06 0)
(0 1.32656e-06 0)
(0 9.19045e-06 0)
(0 -1.06063e-06 0)
(0 -1.14129e-07 0)
(0 7.72463e-06 0)
(0 1.53526e-05 0)
(0 8.06179e-06 0)
(0 7.36616e-06 0)
(0 -8.809e-07 0)
(0 -6.6293e-06 0)
(0 6.04095e-06 0)
(0 -5.35855e-08 0)
(0 2.11489e-07 0)
(0 9.10918e-06 0)
(0 -2.53357e-05 0)
(0 7.90454e-06 0)
(0 2.98875e-06 0)
(0 -1.82269e-07 0)
(0 9.23031e-06 0)
(0 -7.08515e-07 0)
(0 -5.52139e-06 0)
(0 9.22667e-06 0)
(0 9.23174e-06 0)
(0 1.67354e-07 0)
(0 8.66632e-06 0)
(0 2.7689e-06 0)
(0 -5.9381e-06 0)
(0 9.23173e-06 0)
(0 -3.28964e-05 0)
(0 9.2317e-06 0)
(0 9.11853e-06 0)
(0 1.36888e-05 0)
(0 9.12098e-06 0)
(0 8.84916e-06 0)
(0 5.49977e-06 0)
(0 1.06205e-05 0)
(0 8.1302e-06 0)
(0 9.18009e-06 0)
(0 -1.16446e-05 0)
(0 -1.05426e-05 0)
(0 -5.05369e-05 0)
(0 -3.79296e-05 0)
(0 -3.90803e-05 0)
(0 9.88106e-06 0)
(0 9.16289e-07 0)
(0 9.18461e-06 0)
(0 -4.51072e-06 0)
(0 9.1567e-06 0)
(0 -8.07521e-06 0)
(0 8.45068e-06 0)
(0 9.09501e-06 0)
(0 8.91788e-06 0)
(0 -1.76839e-05 0)
(0 -3.55443e-06 0)
(0 1.42535e-05 0)
(0 -1.36223e-06 0)
(0 2.597e-06 0)
(0 -6.30648e-06 0)
(0 7.04583e-06 0)
(0 9.21454e-06 0)
(0 -2.03381e-05 0)
(0 9.18364e-06 0)
(0 9.22407e-06 0)
(0 7.86946e-06 0)
(0 8.28397e-06 0)
(0 9.22468e-06 0)
(0 5.48761e-06 0)
(0 -2.63293e-05 0)
(0 -2.74753e-06 0)
(0 9.20791e-06 0)
(0 -4.60599e-06 0)
(0 -5.47479e-06 0)
(0 -4.30187e-06 0)
(0 9.16203e-06 0)
(0 2.21321e-06 0)
(0 9.12262e-06 0)
(0 7.11828e-06 0)
(0 9.23331e-06 0)
(0 -4.0938e-06 0)
(0 -5.43626e-06 0)
(0 6.06901e-06 0)
(0 9.08936e-06 0)
(0 -1.41986e-06 0)
(0 9.13659e-06 0)
(0 -2.0379e-06 0)
(0 9.00187e-06 0)
(0 -1.21493e-06 0)
(0 -1.37056e-05 0)
(0 1.8002e-05 0)
(0 1.45108e-05 0)
(0 9.22308e-06 0)
(0 9.01323e-06 0)
(0 -6.02816e-06 0)
(0 7.37843e-06 0)
(0 6.66377e-06 0)
(0 8.72043e-06 0)
(0 9.23327e-06 0)
(0 8.4623e-06 0)
(0 9.02465e-06 0)
(0 -6.09742e-05 0)
(0 9.20977e-06 0)
(0 -1.96224e-06 0)
(0 -3.98092e-06 0)
(0 -1.19393e-06 0)
(0 9.1966e-06 0)
(0 9.22609e-06 0)
(0 -2.00465e-05 0)
(0 1.23542e-06 0)
(0 -3.90509e-06 0)
(0 -3.59582e-06 0)
(0 9.23067e-06 0)
(0 6.88612e-06 0)
(0 9.21741e-06 0)
(0 9.23421e-06 0)
(0 -4.70802e-06 0)
(0 1.4524e-05 0)
(0 4.24661e-06 0)
(0 3.60054e-06 0)
(0 1.16413e-05 0)
(0 2.44633e-06 0)
(0 -4.7919e-05 0)
(0 7.19007e-06 0)
(0 1.83678e-06 0)
(0 8.95112e-06 0)
(0 9.20581e-06 0)
(0 8.02176e-06 0)
(0 1.0637e-05 0)
(0 5.82409e-06 0)
(0 8.50051e-06 0)
(0 9.19584e-06 0)
(0 -6.16491e-06 0)
(0 9.20261e-06 0)
(0 5.66624e-06 0)
(0 -5.81316e-06 0)
(0 7.30712e-06 0)
(0 8.92193e-06 0)
(0 -2.39857e-06 0)
(0 -3.32971e-05 0)
(0 9.11997e-06 0)
(0 9.21906e-06 0)
(0 8.98838e-06 0)
(0 1.43183e-05 0)
(0 9.23147e-06 0)
(0 9.23177e-06 0)
(0 9.10127e-06 0)
(0 -2.35954e-05 0)
(0 9.23226e-06 0)
(0 9.24737e-06 0)
(0 9.22669e-06 0)
(0 -4.21799e-06 0)
(0 7.64581e-06 0)
(0 9.13823e-06 0)
(0 9.29257e-07 0)
(0 7.00537e-06 0)
(0 9.23157e-06 0)
(0 8.53211e-06 0)
(0 9.23313e-06 0)
(0 4.40573e-06 0)
(0 9.23076e-06 0)
(0 4.08474e-06 0)
(0 -4.9524e-06 0)
(0 1.11208e-06 0)
(0 9.23143e-06 0)
(0 8.26562e-06 0)
(0 9.24712e-06 0)
(0 8.65514e-06 0)
(0 -3.45942e-05 0)
(0 7.0145e-06 0)
(0 5.36479e-06 0)
(0 6.45696e-06 0)
(0 3.67562e-06 0)
(0 8.54931e-06 0)
(0 1.46707e-05 0)
(0 4.38154e-06 0)
(0 7.99629e-06 0)
(0 9.19259e-06 0)
(0 9.23129e-06 0)
(0 9.24168e-06 0)
(0 4.81266e-06 0)
(0 5.96053e-06 0)
(0 8.12209e-06 0)
(0 -1.3718e-06 0)
(0 -2.39151e-05 0)
(0 -2.60469e-06 0)
(0 -3.34351e-05 0)
(0 1.4599e-07 0)
(0 -2.42153e-06 0)
(0 3.31389e-06 0)
(0 1.38153e-05 0)
(0 2.87959e-06 0)
(0 2.02923e-05 0)
(0 9.21258e-06 0)
(0 -5.60096e-07 0)
(0 3.69341e-06 0)
(0 3.93414e-06 0)
(0 4.64774e-06 0)
(0 -2.04968e-05 0)
(0 9.23194e-06 0)
(0 -2.61766e-05 0)
(0 -6.29588e-05 0)
(0 6.42939e-06 0)
(0 7.91098e-06 0)
(0 -2.19587e-05 0)
(0 -1.51777e-06 0)
(0 9.1983e-06 0)
(0 7.96115e-06 0)
(0 5.8258e-06 0)
(0 8.89765e-06 0)
(0 5.78786e-06 0)
(0 8.36137e-06 0)
(0 5.58467e-06 0)
(0 7.02598e-06 0)
(0 9.22793e-06 0)
(0 9.23141e-06 0)
(0 -3.35896e-05 0)
(0 9.20604e-06 0)
(0 8.86109e-06 0)
(0 1.30035e-05 0)
(0 9.23088e-06 0)
(0 3.27716e-06 0)
(0 2.11321e-05 0)
(0 2.22095e-06 0)
(0 1.76957e-05 0)
(0 8.7647e-06 0)
(0 9.20019e-06 0)
(0 -1.94924e-05 0)
(0 9.22946e-06 0)
(0 -6.10981e-05 0)
(0 3.22649e-06 0)
(0 8.09934e-06 0)
(0 -2.16791e-05 0)
(0 9.2205e-06 0)
(0 8.94914e-07 0)
(0 -2.04899e-05 0)
(0 -4.49248e-06 0)
(0 -3.21161e-06 0)
(0 8.53848e-06 0)
(0 8.92617e-06 0)
(0 9.23298e-06 0)
(0 8.07327e-06 0)
(0 9.2142e-06 0)
(0 4.54126e-06 0)
(0 -1.6197e-06 0)
(0 8.10044e-06 0)
(0 9.2423e-06 0)
(0 9.03947e-06 0)
(0 8.95361e-06 0)
(0 8.30047e-06 0)
(0 -2.7081e-06 0)
(0 9.56206e-07 0)
(0 8.56682e-06 0)
(0 -1.88769e-06 0)
(0 9.20713e-06 0)
(0 1.08258e-05 0)
(0 9.2323e-06 0)
(0 -2.0945e-05 0)
(0 8.94278e-06 0)
(0 6.15006e-06 0)
(0 -9.13324e-06 0)
(0 9.13216e-06 0)
(0 1.30645e-06 0)
(0 1.30572e-05 0)
(0 9.08525e-06 0)
(0 9.87791e-07 0)
(0 1.99204e-05 0)
(0 -4.35488e-07 0)
(0 7.59876e-06 0)
(0 8.58219e-06 0)
(0 9.10053e-06 0)
(0 8.78155e-06 0)
(0 9.23132e-06 0)
(0 1.43466e-05 0)
(0 7.64856e-06 0)
(0 9.23136e-06 0)
(0 -3.92924e-06 0)
(0 9.14262e-06 0)
(0 4.7079e-06 0)
(0 -4.30824e-06 0)
(0 -7.3692e-07 0)
(0 5.22423e-06 0)
(0 -7.48761e-06 0)
(0 -2.03208e-05 0)
(0 -8.87303e-06 0)
(0 9.13387e-06 0)
(0 8.94628e-06 0)
(0 9.13502e-06 0)
(0 8.04296e-06 0)
(0 2.35885e-05 0)
(0 5.16936e-07 0)
(0 9.1526e-06 0)
(0 1.49932e-05 0)
(0 3.66322e-06 0)
(0 -8.30836e-06 0)
(0 9.20083e-06 0)
(0 2.34096e-06 0)
(0 9.22505e-06 0)
(0 9.9854e-06 0)
(0 8.88247e-06 0)
(0 2.86855e-06 0)
(0 4.87911e-06 0)
(0 -4.00221e-06 0)
(0 -3.44149e-05 0)
(0 -2.67353e-05 0)
(0 -2.18884e-05 0)
(0 -6.39591e-05 0)
(0 -1.40148e-05 0)
(0 9.02173e-06 0)
(0 9.23177e-06 0)
(0 -7.65103e-06 0)
(0 9.21706e-06 0)
(0 -5.5308e-06 0)
(0 -1.44397e-06 0)
(0 -6.7933e-07 0)
(0 8.43127e-06 0)
(0 9.2403e-06 0)
(0 -7.86835e-06 0)
(0 -2.98105e-05 0)
(0 9.12809e-06 0)
(0 1.47332e-05 0)
(0 -5.50455e-06 0)
(0 -1.30305e-06 0)
(0 9.23282e-06 0)
(0 9.18681e-06 0)
(0 8.98504e-06 0)
(0 8.55145e-06 0)
(0 8.95355e-06 0)
(0 2.21646e-06 0)
(0 -2.56263e-06 0)
(0 9.20439e-06 0)
(0 2.10008e-05 0)
(0 9.05947e-06 0)
(0 -3.79723e-06 0)
(0 7.45578e-06 0)
(0 9.18156e-06 0)
(0 9.19748e-06 0)
(0 1.37257e-06 0)
(0 9.23273e-06 0)
(0 3.25029e-06 0)
(0 -2.99879e-07 0)
(0 8.98661e-06 0)
(0 8.6467e-06 0)
(0 9.20046e-06 0)
(0 9.16834e-06 0)
(0 7.84456e-06 0)
(0 -6.60972e-06 0)
(0 9.20398e-06 0)
(0 -4.83356e-06 0)
(0 -1.04829e-05 0)
(0 -3.33515e-06 0)
(0 -5.25119e-06 0)
(0 8.96469e-06 0)
(0 7.16943e-06 0)
(0 4.52723e-06 0)
(0 9.22238e-06 0)
(0 2.51472e-06 0)
(0 5.61683e-06 0)
(0 -8.91542e-06 0)
(0 1.53103e-05 0)
(0 -7.70272e-06 0)
(0 1.65448e-05 0)
(0 9.23174e-06 0)
(0 9.23105e-06 0)
(0 7.03883e-06 0)
(0 -1.43652e-06 0)
(0 -3.00489e-05 0)
(0 -2.57461e-05 0)
(0 -1.53016e-06 0)
(0 2.60881e-06 0)
(0 4.57878e-06 0)
(0 9.205e-06 0)
(0 9.18104e-06 0)
(0 3.33894e-06 0)
(0 8.14439e-06 0)
(0 7.1904e-06 0)
(0 -1.08262e-05 0)
(0 8.53141e-06 0)
(0 -2.80207e-06 0)
(0 9.24053e-06 0)
(0 8.85104e-06 0)
(0 9.23741e-06 0)
(0 9.11572e-06 0)
(0 -4.63363e-05 0)
(0 -9.164e-06 0)
(0 9.22071e-06 0)
(0 9.22263e-06 0)
(0 9.23649e-06 0)
(0 8.48711e-06 0)
(0 8.56666e-06 0)
(0 9.2315e-06 0)
(0 1.5016e-05 0)
(0 8.04433e-06 0)
(0 9.22409e-06 0)
(0 3.8299e-06 0)
(0 1.49883e-05 0)
(0 -1.08454e-05 0)
(0 1.5157e-06 0)
(0 9.23111e-06 0)
(0 9.23005e-06 0)
(0 8.91443e-06 0)
(0 -8.3101e-06 0)
(0 -3.44012e-05 0)
(0 6.74417e-06 0)
(0 9.23138e-06 0)
(0 -9.33153e-06 0)
(0 9.13605e-06 0)
(0 6.21455e-06 0)
(0 -1.07131e-07 0)
(0 8.63565e-06 0)
(0 1.57454e-05 0)
(0 5.46187e-06 0)
(0 -2.04232e-06 0)
(0 4.35932e-06 0)
(0 1.55821e-05 0)
(0 -2.14608e-06 0)
(0 -2.44874e-05 0)
(0 8.73391e-06 0)
(0 6.30676e-06 0)
(0 9.22745e-06 0)
(0 -3.00661e-05 0)
(0 8.61923e-06 0)
(0 -6.88287e-06 0)
(0 8.15863e-06 0)
(0 8.41088e-06 0)
(0 7.11112e-06 0)
(0 5.57333e-06 0)
(0 -2.54965e-05 0)
(0 9.15788e-06 0)
(0 6.68889e-06 0)
(0 -2.3222e-06 0)
(0 9.23169e-06 0)
(0 3.50698e-06 0)
(0 -6.80455e-06 0)
(0 -4.70994e-06 0)
(0 8.39914e-06 0)
(0 9.23301e-06 0)
(0 8.17391e-06 0)
(0 -1.04425e-05 0)
(0 8.32432e-06 0)
(0 2.00631e-05 0)
(0 2.92215e-06 0)
(0 -1.3465e-05 0)
(0 9.08701e-06 0)
(0 9.22726e-06 0)
(0 2.28979e-05 0)
(0 -4.18925e-05 0)
(0 9.06102e-06 0)
(0 -5.57184e-06 0)
(0 9.09565e-06 0)
(0 9.23171e-06 0)
(0 1.10781e-08 0)
(0 -9.80079e-07 0)
(0 6.53244e-06 0)
(0 -1.4305e-05 0)
(0 8.59752e-06 0)
(0 9.23177e-06 0)
(0 9.1799e-06 0)
(0 8.56226e-06 0)
(0 -2.75998e-06 0)
(0 9.23014e-06 0)
(0 5.94861e-06 0)
(0 -5.64971e-06 0)
(0 9.1683e-06 0)
(0 -1.34625e-05 0)
(0 9.20426e-06 0)
(0 -2.26307e-05 0)
(0 6.45422e-06 0)
(0 2.5596e-06 0)
(0 -5.13608e-06 0)
(0 -5.47731e-07 0)
(0 1.91447e-05 0)
(0 9.23082e-06 0)
(0 -8.54531e-06 0)
(0 7.66347e-06 0)
(0 9.12722e-06 0)
(0 1.59596e-06 0)
(0 1.72658e-05 0)
(0 6.6172e-06 0)
(0 6.21585e-06 0)
(0 1.4526e-05 0)
(0 9.16121e-06 0)
(0 1.55032e-05 0)
(0 7.17333e-06 0)
(0 9.22494e-06 0)
(0 -7.66483e-07 0)
(0 -6.11548e-06 0)
(0 7.24784e-06 0)
(0 2.36882e-06 0)
(0 7.68547e-06 0)
(0 4.18158e-06 0)
(0 1.93865e-06 0)
(0 9.12426e-06 0)
(0 -8.52265e-07 0)
(0 4.80487e-06 0)
(0 -2.34065e-06 0)
(0 -5.49208e-05 0)
(0 9.97204e-06 0)
(0 -1.00305e-05 0)
(0 5.92972e-06 0)
(0 -5.40035e-06 0)
(0 -3.30089e-05 0)
(0 -1.73515e-06 0)
(0 -2.05824e-06 0)
(0 9.23903e-06 0)
(0 8.06e-06 0)
(0 -5.57731e-06 0)
(0 7.10179e-06 0)
(0 -1.56339e-06 0)
(0 8.68844e-06 0)
(0 1.22474e-05 0)
(0 9.23164e-06 0)
(0 1.75269e-07 0)
(0 -4.45159e-06 0)
(0 6.12477e-06 0)
(0 9.20151e-06 0)
(0 9.22319e-06 0)
(0 1.41919e-05 0)
(0 -8.03614e-06 0)
(0 2.18571e-05 0)
(0 4.98759e-06 0)
(0 1.93437e-05 0)
(0 -7.08406e-06 0)
(0 8.64223e-06 0)
(0 3.43244e-06 0)
(0 -5.90503e-05 0)
(0 7.44828e-06 0)
(0 8.4901e-06 0)
(0 1.82553e-05 0)
(0 -8.53145e-06 0)
(0 8.90173e-06 0)
(0 9.179e-06 0)
(0 9.20894e-06 0)
(0 8.41985e-06 0)
(0 9.22247e-06 0)
(0 8.56628e-06 0)
(0 -5.19925e-07 0)
(0 -1.20938e-06 0)
(0 9.23177e-06 0)
(0 -7.17428e-06 0)
(0 3.67432e-06 0)
(0 4.09465e-06 0)
(0 2.92068e-06 0)
(0 5.42569e-06 0)
(0 -5.06764e-05 0)
(0 5.8581e-06 0)
(0 -7.80109e-07 0)
(0 -7.49493e-06 0)
(0 8.67235e-06 0)
(0 9.19826e-06 0)
(0 7.71835e-06 0)
(0 1.73175e-05 0)
(0 9.07206e-06 0)
(0 -2.03855e-06 0)
(0 9.24686e-06 0)
(0 9.23292e-06 0)
(0 -3.66091e-07 0)
(0 2.1531e-05 0)
(0 7.70646e-06 0)
(0 -3.15811e-06 0)
(0 5.17675e-07 0)
(0 2.16444e-05 0)
(0 -1.33772e-07 0)
(0 9.21607e-06 0)
(0 9.13821e-06 0)
(0 -1.07287e-05 0)
(0 -8.56824e-07 0)
(0 8.1407e-06 0)
(0 7.14968e-06 0)
(0 1.6727e-05 0)
(0 4.8203e-06 0)
(0 6.26826e-06 0)
(0 9.10839e-06 0)
(0 4.04095e-06 0)
(0 -3.91356e-06 0)
(0 -4.70417e-06 0)
(0 1.89137e-06 0)
(0 2.04693e-05 0)
(0 7.97195e-06 0)
(0 -2.99005e-06 0)
(0 9.22658e-06 0)
(0 6.25106e-06 0)
(0 7.68493e-06 0)
(0 -1.53927e-05 0)
(0 4.34212e-06 0)
(0 9.22203e-06 0)
(0 8.63726e-06 0)
(0 9.08608e-06 0)
(0 8.22658e-06 0)
(0 9.23169e-06 0)
(0 2.20785e-05 0)
(0 -1.58886e-06 0)
(0 -7.26143e-06 0)
(0 7.64819e-06 0)
(0 7.0316e-06 0)
(0 3.06836e-06 0)
(0 6.71813e-06 0)
(0 8.4804e-08 0)
(0 1.54436e-05 0)
(0 1.71284e-05 0)
(0 -3.18747e-05 0)
(0 2.68616e-06 0)
(0 6.30669e-06 0)
(0 8.76258e-06 0)
(0 8.98429e-06 0)
(0 -4.23122e-06 0)
(0 9.23188e-06 0)
(0 6.89689e-06 0)
(0 1.39797e-05 0)
(0 -1.04171e-05 0)
(0 8.53862e-06 0)
(0 7.1476e-06 0)
(0 -3.10684e-06 0)
(0 -8.2581e-06 0)
(0 9.22795e-06 0)
(0 9.23177e-06 0)
(0 9.2247e-06 0)
(0 -3.75191e-05 0)
(0 9.23179e-06 0)
(0 -8.15233e-06 0)
(0 9.23901e-06 0)
(0 9.227e-06 0)
(0 -4.95025e-06 0)
(0 1.51182e-06 0)
(0 7.37869e-06 0)
(0 -9.23185e-06 0)
(0 1.59923e-05 0)
(0 9.20468e-06 0)
(0 -5.05011e-05 0)
(0 9.92901e-06 0)
(0 8.61926e-06 0)
(0 9.10041e-06 0)
(0 7.63668e-06 0)
(0 -2.09204e-06 0)
(0 1.41058e-05 0)
(0 -6.4162e-06 0)
(0 6.60867e-06 0)
(0 1.34978e-05 0)
(0 9.22573e-06 0)
(0 -2.17645e-06 0)
(0 1.73324e-05 0)
(0 9.06803e-06 0)
(0 8.27433e-06 0)
(0 4.65502e-06 0)
(0 1.36552e-06 0)
(0 7.35104e-06 0)
(0 -3.83789e-06 0)
(0 9.21019e-06 0)
(0 -8.29796e-06 0)
(0 5.42754e-07 0)
(0 9.21036e-06 0)
(0 1.73126e-05 0)
(0 9.22358e-06 0)
(0 1.69114e-05 0)
(0 5.86481e-06 0)
(0 9.13233e-06 0)
(0 9.16218e-06 0)
(0 -4.36257e-06 0)
(0 -5.23534e-07 0)
(0 6.11915e-06 0)
(0 2.49932e-06 0)
(0 1.27527e-06 0)
(0 5.88765e-06 0)
(0 -1.41133e-05 0)
(0 9.2478e-06 0)
(0 7.64549e-06 0)
(0 -2.27831e-05 0)
(0 8.51226e-06 0)
(0 9.10472e-06 0)
(0 7.68974e-06 0)
(0 1.2278e-05 0)
(0 9.19464e-06 0)
(0 6.73841e-06 0)
(0 -9.48633e-06 0)
(0 7.83721e-06 0)
(0 -4.71367e-06 0)
(0 -1.53488e-05 0)
(0 9.15301e-06 0)
(0 -6.30832e-06 0)
(0 3.36231e-07 0)
(0 -6.63268e-06 0)
(0 9.22105e-06 0)
(0 -4.00167e-05 0)
(0 1.35877e-06 0)
(0 9.21527e-06 0)
(0 -5.78826e-06 0)
(0 9.23134e-06 0)
(0 -9.59507e-06 0)
(0 -3.4477e-06 0)
(0 2.18952e-05 0)
(0 9.07305e-06 0)
(0 -3.05257e-05 0)
(0 -7.15403e-06 0)
(0 9.14463e-06 0)
(0 9.23101e-06 0)
(0 1.75002e-05 0)
(0 9.24021e-06 0)
(0 7.62727e-06 0)
(0 -4.6443e-05 0)
(0 -5.04004e-06 0)
(0 9.12202e-06 0)
(0 1.24813e-05 0)
(0 8.18895e-06 0)
(0 6.24719e-06 0)
(0 1.28399e-05 0)
(0 9.06167e-06 0)
(0 9.23101e-06 0)
(0 8.16374e-06 0)
(0 -4.63643e-06 0)
(0 9.23114e-06 0)
(0 5.6931e-06 0)
(0 9.19801e-06 0)
(0 8.68903e-06 0)
(0 -5.07021e-06 0)
(0 9.23149e-06 0)
(0 9.64506e-06 0)
(0 7.17586e-06 0)
(0 -3.09429e-05 0)
(0 9.18962e-06 0)
(0 1.46451e-05 0)
(0 -4.87902e-05 0)
(0 8.36024e-06 0)
(0 4.60684e-06 0)
(0 7.91654e-06 0)
(0 1.77389e-05 0)
(0 -4.97271e-06 0)
(0 9.23171e-06 0)
(0 7.71093e-06 0)
(0 4.40277e-06 0)
(0 4.07971e-06 0)
(0 9.00384e-06 0)
(0 -8.79116e-07 0)
(0 -4.17573e-06 0)
(0 4.9511e-06 0)
(0 6.1841e-06 0)
(0 -1.34229e-05 0)
(0 -6.90706e-06 0)
(0 -9.22653e-07 0)
(0 2.15503e-05 0)
(0 -7.6218e-06 0)
(0 2.17196e-05 0)
(0 6.90851e-06 0)
(0 3.14689e-06 0)
(0 9.09704e-06 0)
(0 1.53088e-05 0)
(0 9.16786e-06 0)
(0 -3.89337e-06 0)
(0 -1.64481e-05 0)
(0 1.7569e-05 0)
(0 7.07464e-06 0)
(0 -5.04387e-06 0)
(0 -5.26028e-06 0)
(0 9.2312e-06 0)
(0 9.22755e-06 0)
(0 -1.28149e-06 0)
(0 1.27637e-05 0)
(0 9.20265e-06 0)
(0 3.34226e-06 0)
(0 9.20647e-06 0)
(0 7.97759e-06 0)
(0 8.90769e-06 0)
(0 9.23056e-06 0)
(0 9.24688e-06 0)
(0 9.15249e-06 0)
(0 -3.58999e-05 0)
(0 -4.50695e-05 0)
(0 1.86356e-05 0)
(0 8.80296e-06 0)
(0 -6.55687e-06 0)
(0 9.67582e-06 0)
(0 9.08876e-06 0)
(0 -1.53347e-06 0)
(0 7.99259e-06 0)
(0 2.98618e-06 0)
(0 9.232e-06 0)
(0 9.00014e-06 0)
(0 1.78066e-05 0)
(0 9.23191e-06 0)
(0 9.19222e-06 0)
(0 -1.02999e-05 0)
(0 8.39874e-06 0)
(0 -2.40925e-06 0)
(0 9.10889e-06 0)
(0 -6.66156e-05 0)
(0 -6.01039e-07 0)
(0 2.13984e-06 0)
(0 1.52367e-05 0)
(0 -4.21803e-05 0)
(0 4.28955e-06 0)
(0 4.29167e-06 0)
(0 -2.3907e-05 0)
(0 -3.35541e-05 0)
(0 -1.42175e-05 0)
(0 7.3398e-06 0)
(0 7.31059e-06 0)
(0 -1.03167e-05 0)
(0 -1.4154e-05 0)
(0 -3.80239e-05 0)
(0 -6.93646e-06 0)
(0 8.04065e-06 0)
(0 8.33242e-06 0)
(0 8.22663e-06 0)
(0 -1.11924e-06 0)
(0 -5.39395e-06 0)
(0 8.41865e-06 0)
(0 1.24874e-05 0)
(0 9.23731e-06 0)
(0 -7.06643e-06 0)
(0 5.82099e-06 0)
(0 8.73627e-06 0)
(0 9.22955e-06 0)
(0 1.78264e-05 0)
(0 5.40684e-06 0)
(0 9.22647e-06 0)
(0 1.49802e-05 0)
(0 8.6817e-06 0)
(0 6.99089e-06 0)
(0 -8.28494e-06 0)
(0 9.22645e-06 0)
(0 9.18011e-06 0)
(0 7.15197e-06 0)
(0 9.23912e-06 0)
(0 -7.53467e-07 0)
(0 3.27533e-06 0)
(0 -5.55096e-05 0)
(0 9.23146e-06 0)
(0 1.47829e-05 0)
(0 9.22231e-06 0)
(0 4.56064e-07 0)
(0 1.89934e-06 0)
(0 8.92358e-06 0)
(0 9.22542e-06 0)
(0 9.13074e-06 0)
(0 9.12361e-06 0)
(0 5.32741e-06 0)
(0 9.12733e-06 0)
(0 1.88269e-05 0)
(0 9.20552e-06 0)
(0 3.61945e-06 0)
(0 1.78884e-05 0)
(0 -5.81717e-05 0)
(0 -6.64944e-05 0)
(0 5.65178e-06 0)
(0 8.55363e-06 0)
(0 9.21681e-06 0)
(0 -4.94998e-06 0)
(0 -3.35388e-06 0)
(0 6.78751e-06 0)
(0 -4.78942e-05 0)
(0 9.23172e-06 0)
(0 9.08189e-06 0)
(0 6.75298e-06 0)
(0 2.49358e-05 0)
(0 4.70504e-06 0)
(0 -2.22105e-08 0)
(0 9.21898e-06 0)
(0 -6.51258e-05 0)
(0 6.19162e-06 0)
(0 8.9048e-06 0)
(0 -6.93912e-06 0)
(0 -1.10765e-05 0)
(0 2.6972e-06 0)
(0 4.82742e-06 0)
(0 9.08592e-06 0)
(0 -8.37141e-07 0)
(0 8.97003e-06 0)
(0 -4.41233e-05 0)
(0 7.42468e-06 0)
(0 9.23177e-06 0)
(0 5.23415e-06 0)
(0 6.87714e-06 0)
(0 8.91004e-06 0)
(0 -1.58403e-05 0)
(0 9.2317e-06 0)
(0 9.23304e-06 0)
(0 8.65964e-06 0)
(0 9.1921e-06 0)
(0 -4.86887e-06 0)
(0 8.92078e-06 0)
(0 9.06915e-06 0)
(0 4.05735e-06 0)
(0 2.60817e-05 0)
(0 9.19162e-06 0)
(0 6.67406e-06 0)
(0 1.8068e-05 0)
(0 -5.9119e-07 0)
(0 9.23425e-06 0)
(0 -1.47898e-06 0)
(0 1.70356e-05 0)
(0 5.59845e-06 0)
(0 3.18398e-06 0)
(0 9.23168e-06 0)
(0 6.62645e-06 0)
(0 -4.5302e-05 0)
(0 3.896e-06 0)
(0 6.95341e-06 0)
(0 8.89436e-06 0)
(0 -1.80764e-05 0)
(0 9.23168e-06 0)
(0 2.83334e-06 0)
(0 9.24225e-06 0)
(0 7.91383e-06 0)
(0 5.96752e-06 0)
(0 -4.9068e-06 0)
(0 9.10855e-06 0)
(0 9.19642e-06 0)
(0 -8.07395e-06 0)
(0 -2.81822e-06 0)
(0 8.41564e-06 0)
(0 -3.92727e-05 0)
(0 8.10807e-06 0)
(0 8.91205e-06 0)
(0 9.24663e-06 0)
(0 -6.99675e-06 0)
(0 -6.33793e-06 0)
(0 9.19803e-06 0)
(0 3.26447e-07 0)
(0 9.19488e-06 0)
(0 9.12568e-06 0)
(0 -2.48952e-05 0)
(0 9.05799e-06 0)
(0 5.6737e-06 0)
(0 8.9683e-06 0)
(0 -7.06708e-06 0)
(0 9.23254e-06 0)
(0 1.49033e-05 0)
(0 9.23072e-06 0)
(0 -1.53165e-05 0)
(0 1.93979e-06 0)
(0 -3.50652e-05 0)
(0 -5.16762e-06 0)
(0 9.17143e-06 0)
(0 -2.83209e-05 0)
(0 -6.44988e-06 0)
(0 -4.19803e-06 0)
(0 9.23091e-06 0)
(0 1.49974e-05 0)
(0 -1.19129e-05 0)
(0 9.23311e-06 0)
(0 -4.74126e-06 0)
(0 -5.15541e-05 0)
(0 2.3297e-05 0)
(0 -3.35132e-05 0)
(0 9.78206e-07 0)
(0 7.39995e-06 0)
(0 5.08078e-06 0)
(0 7.26105e-06 0)
(0 5.74668e-06 0)
(0 -6.04429e-05 0)
(0 9.1072e-06 0)
(0 9.23382e-06 0)
(0 9.06867e-06 0)
(0 9.23196e-06 0)
(0 -1.69673e-05 0)
(0 5.39094e-06 0)
(0 6.35488e-07 0)
(0 2.15874e-05 0)
(0 -1.69969e-05 0)
(0 9.24648e-06 0)
(0 9.23884e-06 0)
(0 -1.02538e-05 0)
(0 2.46375e-06 0)
(0 -1.32968e-06 0)
(0 9.22426e-06 0)
(0 -1.20159e-05 0)
(0 8.46194e-06 0)
(0 8.50329e-06 0)
(0 9.13231e-06 0)
(0 9.22395e-06 0)
(0 9.23182e-06 0)
(0 9.23043e-06 0)
(0 -6.81354e-05 0)
(0 8.54601e-06 0)
(0 9.23117e-06 0)
(0 9.22689e-06 0)
(0 4.10943e-06 0)
(0 -2.38491e-06 0)
(0 -6.65416e-06 0)
(0 6.76523e-06 0)
(0 8.07933e-06 0)
(0 5.96214e-06 0)
(0 5.07827e-06 0)
(0 2.75048e-07 0)
(0 9.23171e-06 0)
(0 -7.57981e-06 0)
(0 -6.27763e-06 0)
(0 8.95454e-06 0)
(0 6.60024e-06 0)
(0 -4.05211e-06 0)
(0 -9.6963e-06 0)
(0 -6.02951e-06 0)
(0 1.5248e-05 0)
(0 9.21185e-06 0)
(0 9.18672e-06 0)
(0 9.23144e-06 0)
(0 9.17387e-06 0)
(0 3.39784e-06 0)
(0 9.03371e-06 0)
(0 -3.8891e-05 0)
(0 8.35312e-06 0)
(0 1.03402e-05 0)
(0 -7.59906e-06 0)
(0 -5.06859e-05 0)
(0 9.24386e-06 0)
(0 -6.65693e-06 0)
(0 -6.05555e-06 0)
(0 9.17484e-06 0)
(0 9.24002e-06 0)
(0 8.71502e-06 0)
(0 6.95836e-06 0)
(0 -2.73831e-06 0)
(0 5.03459e-06 0)
(0 9.23176e-06 0)
(0 9.23178e-06 0)
(0 8.94679e-06 0)
(0 9.23833e-06 0)
(0 9.0436e-06 0)
(0 9.22367e-06 0)
(0 9.1206e-06 0)
(0 8.8053e-06 0)
(0 4.35427e-06 0)
(0 -1.09632e-05 0)
(0 3.95176e-08 0)
(0 7.1587e-06 0)
(0 -1.89147e-05 0)
(0 5.02803e-07 0)
(0 8.9295e-06 0)
(0 1.17183e-05 0)
(0 -4.01829e-06 0)
(0 -3.88263e-06 0)
(0 9.20124e-06 0)
(0 4.62495e-06 0)
(0 1.96947e-05 0)
(0 8.3198e-07 0)
(0 -8.30467e-06 0)
(0 8.91075e-06 0)
(0 8.8793e-06 0)
(0 8.98679e-06 0)
(0 -2.95717e-05 0)
(0 9.23139e-06 0)
(0 -2.32434e-05 0)
(0 -5.09739e-06 0)
(0 5.95179e-06 0)
(0 8.77917e-06 0)
(0 -1.40764e-05 0)
(0 9.17203e-06 0)
(0 -4.01277e-06 0)
(0 9.22285e-06 0)
(0 1.74455e-05 0)
(0 9.23149e-06 0)
(0 8.58417e-06 0)
(0 -4.67971e-06 0)
(0 5.02835e-07 0)
(0 -7.05245e-06 0)
(0 9.23129e-06 0)
(0 9.21864e-06 0)
(0 9.23208e-06 0)
(0 7.89567e-06 0)
(0 -3.27711e-06 0)
(0 -1.54534e-05 0)
(0 9.22149e-06 0)
(0 5.34718e-06 0)
(0 1.15421e-05 0)
(0 8.8907e-06 0)
(0 -6.72263e-06 0)
(0 -5.24986e-06 0)
(0 9.23696e-06 0)
(0 -6.02765e-05 0)
(0 -6.33695e-06 0)
(0 1.22028e-05 0)
(0 4.48868e-06 0)
(0 -5.33667e-05 0)
(0 -4.87958e-05 0)
(0 -5.30327e-06 0)
(0 -1.63846e-06 0)
(0 3.41429e-06 0)
(0 4.42589e-06 0)
(0 2.21208e-05 0)
(0 9.23175e-06 0)
(0 -7.56303e-06 0)
(0 9.20847e-06 0)
(0 9.23179e-06 0)
(0 8.07454e-06 0)
(0 9.22404e-06 0)
(0 9.22199e-06 0)
(0 -7.38787e-06 0)
(0 -4.24881e-06 0)
(0 1.50981e-05 0)
(0 1.36511e-06 0)
(0 9.07222e-06 0)
(0 4.20351e-06 0)
(0 9.10344e-06 0)
(0 5.84524e-06 0)
(0 3.04742e-06 0)
(0 -5.20759e-06 0)
(0 1.84229e-06 0)
(0 1.2807e-05 0)
(0 9.0822e-06 0)
(0 8.34897e-06 0)
(0 9.23968e-06 0)
(0 -3.64298e-05 0)
(0 7.60795e-06 0)
(0 -1.15748e-05 0)
(0 2.12138e-05 0)
(0 -9.66184e-07 0)
(0 -1.90111e-06 0)
(0 -3.09102e-05 0)
(0 9.16462e-06 0)
(0 2.63786e-06 0)
(0 -5.87251e-06 0)
(0 1.90465e-05 0)