/*--------------------------------*- C++ -*----------------------------------*\
| =========                 |                                                 |
| \\      /  F ield         | OpenFOAM: The Open Source CFD Toolbox           |
|  \\    /   O peration     | Version:  v2012                                 |
|   \\  /    A nd           | Website:  www.openfoam.com                      |
|    \\/     M anipulation  |                                                 |
\*---------------------------------------------------------------------------*/
FoamFile
{
    version     2.0;
    format      ascii;
    class       pointVectorField;
    location    "900";
    object      pointDisplacement;
}
// * * * * * * * * * * * * * * * * * * * * * * * * * * * * * * * * * * * * * //

dimensions      [0 1 0 0 0 0 0];


internalField   nonuniform List<vector> 
19220
(
(0 0 0)
(0 9.23177e-06 0)
(0 9.23177e-06 0)
(0 0 0)
(0 9.23177e-06 0)
(0 9.23177e-06 0)
(0 0 0)
(0 0 0)
(0 0 0)
(0 0 0)
(0 0 0)
(0 0 0)
(0 0 0)
(0 0 0)
(0 0 0)
(0 0 0)
(0 0 0)
(0 0 0)
(0 0 0)
(0 0 0)
(0 0 0)
(0 0 0)
(0 0 0)
(0 0 0)
(0 0 0)
(0 0 0)
(0 0 0)
(0 0 0)
(0 0 0)
(0 0 0)
(0 0 0)
(0 0 0)
(0 0 0)
(0 0 0)
(0 0 0)
(0 0 0)
(0 0 0)
(0 0 0)
(0 0 0)
(0 0 0)
(0 0 0)
(0 0 0)
(0 0 0)
(0 0 0)
(0 0 0)
(0 0 0)
(0 0 0)
(0 0 0)
(0 0 0)
(0 0 0)
(0 0 0)
(0 0 0)
(0 0 0)
(0 0 0)
(0 0 0)
(0 0 0)
(0 0 0)
(0 0 0)
(0 0 0)
(0 0 0)
(0 0 0)
(0 0 0)
(0 0 0)
(0 0 0)
(0 0 0)
(0 0 0)
(0 0 0)
(0 0 0)
(0 0 0)
(0 0 0)
(0 0 0)
(0 0 0)
(0 0 0)
(0 0 0)
(0 0 0)
(0 0 0)
(0 0 0)
(0 0 0)
(0 0 0)
(0 0 0)
(0 0 0)
(0 0 0)
(0 0 0)
(0 0 0)
(0 0 0)
(0 0 0)
(0 0 0)
(0 0 0)
(0 0 0)
(0 0 0)
(0 0 0)
(0 0 0)
(0 0 0)
(0 0 0)
(0 0 0)
(0 9.23177e-06 0)
(0 9.23177e-06 0)
(0 9.23177e-06 0)
(0 9.23177e-06 0)
(0 9.23177e-06 0)
(0 9.23177e-06 0)
(0 9.23177e-06 0)
(0 9.23177e-06 0)
(0 9.23177e-06 0)
(0 9.23177e-06 0)
(0 9.23177e-06 0)
(0 9.23177e-06 0)
(0 9.23177e-06 0)
(0 9.23177e-06 0)
(0 9.23177e-06 0)
(0 9.23177e-06 0)
(0 9.23177e-06 0)
(0 9.23177e-06 0)
(0 9.23177e-06 0)
(0 9.23177e-06 0)
(0 9.23177e-06 0)
(0 9.23177e-06 0)
(0 9.23177e-06 0)
(0 9.23177e-06 0)
(0 9.23177e-06 0)
(0 9.23177e-06 0)
(0 9.23177e-06 0)
(0 9.23177e-06 0)
(0 9.23177e-06 0)
(0 9.23177e-06 0)
(0 9.23177e-06 0)
(0 9.23177e-06 0)
(0 9.23177e-06 0)
(0 9.23177e-06 0)
(0 9.23177e-06 0)
(0 9.23177e-06 0)
(0 9.23177e-06 0)
(0 9.23177e-06 0)
(0 9.23177e-06 0)
(0 9.23177e-06 0)
(0 9.23177e-06 0)
(0 9.23177e-06 0)
(0 9.23177e-06 0)
(0 9.23177e-06 0)
(0 9.23177e-06 0)
(0 9.23177e-06 0)
(0 9.23177e-06 0)
(0 9.23177e-06 0)
(0 9.23177e-06 0)
(0 9.23177e-06 0)
(0 9.23177e-06 0)
(0 9.23177e-06 0)
(0 9.23177e-06 0)
(0 9.23177e-06 0)
(0 9.23177e-06 0)
(0 9.23177e-06 0)
(0 9.23177e-06 0)
(0 9.23177e-06 0)
(0 9.23177e-06 0)
(0 9.23177e-06 0)
(0 9.23177e-06 0)
(0 9.23177e-06 0)
(0 9.23177e-06 0)
(0 9.23177e-06 0)
(0 9.23177e-06 0)
(0 9.23177e-06 0)
(0 9.23177e-06 0)
(0 9.23177e-06 0)
(0 9.23177e-06 0)
(0 9.23177e-06 0)
(0 9.23177e-06 0)
(0 9.23177e-06 0)
(0 9.23177e-06 0)
(0 9.23177e-06 0)
(0 9.23177e-06 0)
(0 9.23177e-06 0)
(0 9.23177e-06 0)
(0 9.23177e-06 0)
(0 9.23177e-06 0)
(0 9.23177e-06 0)
(0 9.23177e-06 0)
(0 9.23177e-06 0)
(0 9.23177e-06 0)
(0 9.23177e-06 0)
(0 9.23177e-06 0)
(0 9.23177e-06 0)
(0 9.23177e-06 0)
(0 9.23177e-06 0)
(0 9.23177e-06 0)
(0 9.23177e-06 0)
(0 9.23177e-06 0)
(0 9.23177e-06 0)
(0 9.23177e-06 0)
(0 9.23177e-06 0)
(0 9.23177e-06 0)
(0 9.23177e-06 0)
(0 9.23177e-06 0)
(0 9.23177e-06 0)
(0 9.23177e-06 0)
(0 9.23177e-06 0)
(0 9.23177e-06 0)
(0 9.23177e-06 0)
(0 9.23177e-06 0)
(0 9.23177e-06 0)
(0 9.23177e-06 0)
(0 9.23177e-06 0)
(0 9.23177e-06 0)
(0 9.23177e-06 0)
(0 9.23177e-06 0)
(0 9.23177e-06 0)
(0 9.23177e-06 0)
(0 9.23177e-06 0)
(0 9.23177e-06 0)
(0 9.23177e-06 0)
(0 9.23177e-06 0)
(0 9.23177e-06 0)
(0 9.23177e-06 0)
(0 9.23177e-06 0)
(0 9.23177e-06 0)
(0 9.23177e-06 0)
(0 9.23177e-06 0)
(0 9.23177e-06 0)
(0 9.23177e-06 0)
(0 9.23177e-06 0)
(0 9.23177e-06 0)
(0 9.23177e-06 0)
(0 9.23177e-06 0)
(0 9.23177e-06 0)
(0 0 0)
(0 0 0)
(0 0 0)
(0 0 0)
(0 0 0)
(0 0 0)
(0 0 0)
(0 0 0)
(0 0 0)
(0 0 0)
(0 0 0)
(0 0 0)
(0 0 0)
(0 0 0)
(0 0 0)
(0 0 0)
(0 0 0)
(0 0 0)
(0 0 0)
(0 0 0)
(0 0 0)
(0 0 0)
(0 0 0)
(0 0 0)
(0 0 0)
(0 0 0)
(0 0 0)
(0 0 0)
(0 0 0)
(0 0 0)
(0 0 0)
(0 0 0)
(0 0 0)
(0 0 0)
(0 0 0)
(0 0 0)
(0 0 0)
(0 0 0)
(0 0 0)
(0 0 0)
(0 0 0)
(0 0 0)
(0 0 0)
(0 0 0)
(0 0 0)
(0 0 0)
(0 0 0)
(0 0 0)
(0 0 0)
(0 0 0)
(0 0 0)
(0 0 0)
(0 0 0)
(0 0 0)
(0 0 0)
(0 0 0)
(0 0 0)
(0 0 0)
(0 0 0)
(0 0 0)
(0 0 0)
(0 0 0)
(0 0 0)
(0 0 0)
(0 0 0)
(0 0 0)
(0 0 0)
(0 0 0)
(0 0 0)
(0 0 0)
(0 0 0)
(0 0 0)
(0 0 0)
(0 0 0)
(0 0 0)
(0 0 0)
(0 0 0)
(0 0 0)
(0 0 0)
(0 0 0)
(0 0 0)
(0 0 0)
(0 0 0)
(0 0 0)
(0 0 0)
(0 0 0)
(0 0 0)
(0 0 0)
(0 0 0)
(0 9.23177e-06 0)
(0 9.23177e-06 0)
(0 9.23177e-06 0)
(0 9.23177e-06 0)
(0 9.23177e-06 0)
(0 9.23177e-06 0)
(0 9.23177e-06 0)
(0 9.23177e-06 0)
(0 9.23177e-06 0)
(0 9.23177e-06 0)
(0 9.23177e-06 0)
(0 9.23177e-06 0)
(0 9.23177e-06 0)
(0 9.23177e-06 0)
(0 9.23177e-06 0)
(0 9.23177e-06 0)
(0 9.23177e-06 0)
(0 9.23177e-06 0)
(0 9.23177e-06 0)
(0 9.23177e-06 0)
(0 9.23177e-06 0)
(0 9.23177e-06 0)
(0 9.23177e-06 0)
(0 9.23177e-06 0)
(0 9.23177e-06 0)
(0 9.23177e-06 0)
(0 9.23177e-06 0)
(0 9.23177e-06 0)
(0 9.23177e-06 0)
(0 9.23177e-06 0)
(0 9.23177e-06 0)
(0 9.23177e-06 0)
(0 9.23177e-06 0)
(0 9.23177e-06 0)
(0 9.23177e-06 0)
(0 9.23177e-06 0)
(0 9.23177e-06 0)
(0 9.23177e-06 0)
(0 9.23177e-06 0)
(0 9.23177e-06 0)
(0 9.23177e-06 0)
(0 9.23177e-06 0)
(0 9.23177e-06 0)
(0 9.23177e-06 0)
(0 9.23177e-06 0)
(0 9.23177e-06 0)
(0 9.23177e-06 0)
(0 9.23177e-06 0)
(0 9.23177e-06 0)
(0 9.23177e-06 0)
(0 9.23177e-06 0)
(0 9.23177e-06 0)
(0 9.23177e-06 0)
(0 9.23177e-06 0)
(0 9.23177e-06 0)
(0 9.23177e-06 0)
(0 9.23177e-06 0)
(0 9.23177e-06 0)
(0 9.23177e-06 0)
(0 9.23177e-06 0)
(0 9.23177e-06 0)
(0 9.23177e-06 0)
(0 9.23177e-06 0)
(0 9.23177e-06 0)
(0 9.23177e-06 0)
(0 9.23177e-06 0)
(0 9.23177e-06 0)
(0 9.23177e-06 0)
(0 9.23177e-06 0)
(0 9.23177e-06 0)
(0 9.23177e-06 0)
(0 9.23177e-06 0)
(0 9.23177e-06 0)
(0 9.23177e-06 0)
(0 9.23177e-06 0)
(0 9.23177e-06 0)
(0 9.23177e-06 0)
(0 9.23177e-06 0)
(0 9.23177e-06 0)
(0 9.23177e-06 0)
(0 9.23177e-06 0)
(0 9.23177e-06 0)
(0 9.23177e-06 0)
(0 9.23177e-06 0)
(0 9.23177e-06 0)
(0 9.23177e-06 0)
(0 9.23177e-06 0)
(0 9.23177e-06 0)
(0 9.23177e-06 0)
(0 9.23177e-06 0)
(0 9.23177e-06 0)
(0 9.23177e-06 0)
(0 9.23177e-06 0)
(0 9.23177e-06 0)
(0 9.23177e-06 0)
(0 9.23177e-06 0)
(0 9.23177e-06 0)
(0 9.23177e-06 0)
(0 9.23177e-06 0)
(0 9.23177e-06 0)
(0 9.23177e-06 0)
(0 9.23177e-06 0)
(0 9.23177e-06 0)
(0 9.23177e-06 0)
(0 9.23177e-06 0)
(0 9.23177e-06 0)
(0 9.23177e-06 0)
(0 9.23177e-06 0)
(0 9.23177e-06 0)
(0 9.23177e-06 0)
(0 9.23177e-06 0)
(0 9.23177e-06 0)
(0 9.23177e-06 0)
(0 9.23177e-06 0)
(0 9.23177e-06 0)
(0 9.23177e-06 0)
(0 9.23177e-06 0)
(0 9.23177e-06 0)
(0 9.23177e-06 0)
(0 9.23177e-06 0)
(0 9.23177e-06 0)
(0 9.23177e-06 0)
(0 9.23177e-06 0)
(0 9.23177e-06 0)
(0 9.23177e-06 0)
(0 9.23177e-06 0)
(0 9.23177e-06 0)
(0 9.23177e-06 0)
(0 9.23918e-06 0)
(0 9.23174e-06 0)
(0 9.2317e-06 0)
(0 9.23176e-06 0)
(0 9.23182e-06 0)
(0 9.23187e-06 0)
(0 9.24136e-06 0)
(0 9.2324e-06 0)
(0 9.23172e-06 0)
(0 9.23171e-06 0)
(0 9.23181e-06 0)
(0 9.24336e-06 0)
(0 9.23779e-06 0)
(0 9.23203e-06 0)
(0 3.04131e-06 0)
(0 5.74503e-06 0)
(0 7.68486e-06 0)
(0 3.80608e-06 0)
(0 -3.93231e-07 0)
(0 3.51899e-06 0)
(0 2.49052e-06 0)
(0 3.48179e-06 0)
(0 4.58556e-06 0)
(0 9.23188e-06 0)
(0 9.24315e-06 0)
(0 9.23156e-06 0)
(0 9.23184e-06 0)
(0 9.24491e-06 0)
(0 9.23366e-06 0)
(0 9.23312e-06 0)
(0 9.23271e-06 0)
(0 9.23218e-06 0)
(0 9.23174e-06 0)
(0 3.09759e-06 0)
(0 2.613e-06 0)
(0 1.6574e-06 0)
(0 9.23284e-06 0)
(0 9.2329e-06 0)
(0 9.23165e-06 0)
(0 3.03712e-06 0)
(0 1.93593e-06 0)
(0 2.74302e-06 0)
(0 3.0754e-06 0)
(0 1.90868e-06 0)
(0 4.90724e-06 0)
(0 6.38628e-06 0)
(0 6.50337e-06 0)
(0 1.90436e-06 0)
(0 3.44223e-06 0)
(0 9.23139e-06 0)
(0 1.53268e-06 0)
(0 1.36852e-06 0)
(0 6.49189e-07 0)
(0 3.34392e-06 0)
(0 -1.72688e-06 0)
(0 2.98716e-06 0)
(0 4.29555e-06 0)
(0 1.29685e-06 0)
(0 3.55693e-06 0)
(0 2.26936e-06 0)
(0 1.13763e-06 0)
(0 7.037e-07 0)
(0 2.12356e-06 0)
(0 4.38081e-06 0)
(0 5.07848e-06 0)
(0 6.19823e-06 0)
(0 6.85398e-06 0)
(0 7.60643e-06 0)
(0 8.08297e-06 0)
(0 8.42333e-06 0)
(0 8.56504e-06 0)
(0 8.55603e-06 0)
(0 8.24095e-06 0)
(0 8.04743e-06 0)
(0 8.10518e-06 0)
(0 7.14649e-06 0)
(0 7.08307e-06 0)
(0 6.26669e-06 0)
(0 6.13976e-06 0)
(0 5.60523e-06 0)
(0 5.53495e-06 0)
(0 5.18037e-06 0)
(0 5.04399e-06 0)
(0 4.70347e-06 0)
(0 4.44031e-06 0)
(0 4.01749e-06 0)
(0 3.74261e-06 0)
(0 3.23027e-06 0)
(0 3.63762e-06 0)
(0 2.85776e-06 0)
(0 3.25721e-06 0)
(0 2.36294e-06 0)
(0 2.64647e-06 0)
(0 1.55858e-06 0)
(0 1.66838e-06 0)
(0 3.61634e-07 0)
(0 2.06783e-07 0)
(0 -1.17384e-06 0)
(0 -1.52016e-06 0)
(0 -2.91451e-06 0)
(0 -3.36385e-06 0)
(0 -2.54235e-06 0)
(0 -4.27155e-06 0)
(0 -3.96603e-06 0)
(0 -5.45273e-06 0)
(0 -4.87906e-06 0)
(0 -6.24982e-06 0)
(0 -5.38939e-06 0)
(0 -6.52801e-06 0)
(0 -5.57089e-06 0)
(0 -6.46948e-06 0)
(0 -5.48e-06 0)
(0 -6.24525e-06 0)
(0 -7.04653e-06 0)
(0 -5.40891e-06 0)
(0 -6.06615e-06 0)
(0 -5.45346e-06 0)
(0 -6.0231e-06 0)
(0 -5.47169e-06 0)
(0 -5.94423e-06 0)
(0 -5.38206e-06 0)
(0 -5.83125e-06 0)
(0 -5.31923e-06 0)
(0 -5.76869e-06 0)
(0 -5.36358e-06 0)
(0 -5.8039e-06 0)
(0 -6.07699e-06 0)
(0 -5.552e-06 0)
(0 -5.98517e-06 0)
(0 -5.79989e-06 0)
(0 -6.20941e-06 0)
(0 -5.92032e-06 0)
(0 -6.32795e-06 0)
(0 -5.90087e-06 0)
(0 -6.32455e-06 0)
(0 -5.86608e-06 0)
(0 -6.29493e-06 0)
(0 -5.85638e-06 0)
(0 -6.21344e-06 0)
(0 -5.81961e-06 0)
(0 -6.13176e-06 0)
(0 -5.72314e-06 0)
(0 -6.00619e-06 0)
(0 -5.56526e-06 0)
(0 -5.80553e-06 0)
(0 -5.31769e-06 0)
(0 -5.53433e-06 0)
(0 -4.99618e-06 0)
(0 -5.20635e-06 0)
(0 -4.67133e-06 0)
(0 -4.84241e-06 0)
(0 -6.6101e-06 0)
(0 -4.35315e-06 0)
(0 -4.49077e-06 0)
(0 -5.28719e-06 0)
(0 -4.03642e-06 0)
(0 -4.15957e-06 0)
(0 -3.71576e-06 0)
(0 -3.92601e-06 0)
(0 -3.47363e-06 0)
(0 -3.78659e-06 0)
(0 -3.34967e-06 0)
(0 -3.70227e-06 0)
(0 -3.28426e-06 0)
(0 -3.64432e-06 0)
(0 -3.07182e-06 0)
(0 -3.28919e-06 0)
(0 -3.631e-06 0)
(0 -3.3316e-06 0)
(0 -3.63252e-06 0)
(0 -3.34217e-06 0)
(0 -3.67332e-06 0)
(0 -3.37235e-06 0)
(0 -3.7512e-06 0)
(0 -5.45284e-06 0)
(0 -3.45267e-06 0)
(0 -3.85466e-06 0)
(0 -2.90465e-06 0)
(0 -5.69353e-06 0)
(0 -3.57169e-06 0)
(0 -3.97329e-06 0)
(0 -3.74352e-06 0)
(0 -4.1853e-06 0)
(0 -4.01388e-06 0)
(0 -4.52064e-06 0)
(0 -4.64734e-06 0)
(0 -5.02201e-06 0)
(0 -5.08832e-06 0)
(0 -5.43155e-06 0)
(0 -5.40563e-06 0)
(0 -5.8111e-06 0)
(0 -5.75651e-06 0)
(0 -6.17222e-06 0)
(0 -6.26236e-06 0)
(0 -6.70189e-06 0)
(0 -6.55141e-06 0)
(0 -7.17576e-06 0)
(0 -7.35049e-06 0)
(0 -7.89751e-06 0)
(0 -8.12784e-06 0)
(0 -8.7485e-06 0)
(0 -8.42576e-06 0)
(0 -9.35061e-06 0)
(0 -8.95842e-06 0)
(0 -9.93677e-06 0)
(0 -1.0445e-05 0)
(0 -1.11064e-05 0)
(0 -1.16788e-05 0)
(0 -1.23892e-05 0)
(0 -1.17361e-05 0)
(0 -1.2989e-05 0)
(0 -1.36482e-05 0)
(0 -1.42646e-05 0)
(0 -1.33498e-05 0)
(0 -1.48609e-05 0)
(0 -1.561e-05 0)
(0 -1.63362e-05 0)
(0 -1.54671e-05 0)
(0 -1.70352e-05 0)
(0 -1.79365e-05 0)
(0 -1.87652e-05 0)
(0 -1.77482e-05 0)
(0 -1.96196e-05 0)
(0 -2.06767e-05 0)
(0 -2.16079e-05 0)
(0 -2.26964e-05 0)
(0 -2.36559e-05 0)
(0 -2.25151e-05 0)
(0 -2.46349e-05 0)
(0 -2.57724e-05 0)
(0 -2.68473e-05 0)
(0 -2.56117e-05 0)
(0 -2.7939e-05 0)
(0 -2.92305e-05 0)
(0 -3.04818e-05 0)
(0 -3.18401e-05 0)
(0 -3.32284e-05 0)
(0 -3.18514e-05 0)
(0 -3.46101e-05 0)
(0 -3.60753e-05 0)
(0 -3.74882e-05 0)
(0 -3.586e-05 0)
(0 -3.88232e-05 0)
(0 -4.04346e-05 0)
(0 -4.18795e-05 0)
(0 -3.99093e-05 0)
(0 -4.33827e-05 0)
(0 -4.51515e-05 0)
(0 -4.67468e-05 0)
(0 -4.46578e-05 0)
(0 -4.82843e-05 0)
(0 -5.03582e-05 0)
(0 -5.17804e-05 0)
(0 -4.9722e-05 0)
(0 -5.31724e-05 0)
(0 -5.52188e-05 0)
(0 -5.67242e-05 0)
(0 -5.45366e-05 0)
(0 -5.8235e-05 0)
(0 -6.0345e-05 0)
(0 -5.97167e-05 0)
(0 -4.19177e-06 0)
(0 -4.8548e-06 0)
(0 -1.90834e-06 0)
(0 -3.83762e-06 0)
(0 -2.35934e-06 0)
(0 -4.2221e-06 0)
(0 -2.78214e-06 0)
(0 -4.38368e-06 0)
(0 -3.08429e-06 0)
(0 -4.28699e-06 0)
(0 -3.18276e-06 0)
(0 -4.16477e-06 0)
(0 -3.22775e-06 0)
(0 -3.88565e-06 0)
(0 4.11103e-06 0)
(0 3.72187e-06 0)
(0 4.11638e-06 0)
(0 3.73019e-06 0)
(0 4.14512e-06 0)
(0 3.74018e-06 0)
(0 4.18044e-06 0)
(0 4.56742e-06 0)
(0 4.59805e-06 0)
(0 4.20164e-06 0)
(0 4.59792e-06 0)
(0 4.19597e-06 0)
(0 4.57342e-06 0)
(0 4.16081e-06 0)
(0 4.53245e-06 0)
(0 4.95658e-06 0)
(0 4.09875e-06 0)
(0 4.47718e-06 0)
(0 4.88664e-06 0)
(0 4.83182e-06 0)
(0 4.40293e-06 0)
(0 4.75045e-06 0)
(0 5.21397e-06 0)
(0 4.30149e-06 0)
(0 4.62737e-06 0)
(0 4.15535e-06 0)
(0 4.46744e-06 0)
(0 3.97847e-06 0)
(0 4.29851e-06 0)
(0 4.76691e-06 0)
(0 4.60305e-06 0)
(0 5.04664e-06 0)
(0 4.87185e-06 0)
(0 5.28769e-06 0)
(0 5.09848e-06 0)
(0 5.49556e-06 0)
(0 5.28112e-06 0)
(0 5.67208e-06 0)
(0 5.4473e-06 0)
(0 5.82735e-06 0)
(0 5.61089e-06 0)
(0 5.98239e-06 0)
(0 5.74471e-06 0)
(0 6.12353e-06 0)
(0 5.87283e-06 0)
(0 6.25882e-06 0)
(0 6.01271e-06 0)
(0 6.38841e-06 0)
(0 6.14272e-06 0)
(0 6.49761e-06 0)
(0 6.25065e-06 0)
(0 6.58229e-06 0)
(0 6.33015e-06 0)
(0 6.65802e-06 0)
(0 6.38727e-06 0)
(0 6.71669e-06 0)
(0 6.4277e-06 0)
(0 6.76109e-06 0)
(0 6.47448e-06 0)
(0 6.80449e-06 0)
(0 6.52314e-06 0)
(0 6.82812e-06 0)
(0 6.54413e-06 0)
(0 6.83184e-06 0)
(0 6.5391e-06 0)
(0 6.81928e-06 0)
(0 6.49866e-06 0)
(0 6.79347e-06 0)
(0 6.4587e-06 0)
(0 6.76154e-06 0)
(0 6.4346e-06 0)
(0 6.71296e-06 0)
(0 6.33954e-06 0)
(0 6.65213e-06 0)
(0 6.32549e-06 0)
(0 6.58614e-06 0)
(0 6.25181e-06 0)
(0 6.4981e-06 0)
(0 6.16189e-06 0)
(0 6.39906e-06 0)
(0 6.06873e-06 0)
(0 6.2887e-06 0)
(0 5.95321e-06 0)
(0 6.16929e-06 0)
(0 5.81656e-06 0)
(0 6.04691e-06 0)
(0 5.66657e-06 0)
(0 5.91204e-06 0)
(0 5.51122e-06 0)
(0 5.76169e-06 0)
(0 5.34957e-06 0)
(0 5.59821e-06 0)
(0 5.1768e-06 0)
(0 5.40766e-06 0)
(0 4.96042e-06 0)
(0 5.18734e-06 0)
(0 4.70467e-06 0)
(0 4.94559e-06 0)
(0 4.43758e-06 0)
(0 4.6814e-06 0)
(0 4.14605e-06 0)
(0 4.39405e-06 0)
(0 3.82953e-06 0)
(0 4.08478e-06 0)
(0 3.4902e-06 0)
(0 3.75195e-06 0)
(0 3.13882e-06 0)
(0 3.39492e-06 0)
(0 2.74554e-06 0)
(0 3.01205e-06 0)
(0 2.32411e-06 0)
(0 2.60494e-06 0)
(0 1.87078e-06 0)
(0 2.1546e-06 0)
(0 1.36794e-06 0)
(0 1.62581e-06 0)
(0 8.35864e-07 0)
(0 1.08973e-06 0)
(0 2.6548e-07 0)
(0 5.5996e-07 0)
(0 1.42315e-06 0)
(0 8.44625e-07 0)
(0 -2.54465e-08 0)
(0 3.01491e-07 0)
(0 1.1303e-06 0)
(0 6.3377e-07 0)
(0 -2.77903e-07 0)
(0 9.5846e-08 0)
(0 9.59258e-07 0)
(0 4.05949e-07 0)
(0 -4.97368e-07 0)
(0 -1.83053e-07 0)
(0 -1.14944e-06 0)
(0 -8.02357e-07 0)
(0 1.5996e-07 0)
(0 -4.34531e-07 0)
(0 -1.4499e-06 0)
(0 -1.04876e-06 0)
(0 -2.1309e-06 0)
(0 -1.70564e-06 0)
(0 -5.18464e-07 0)
(0 -1.29891e-06 0)
(0 -2.37856e-06 0)
(0 -1.96459e-06 0)
(0 3.66517e-06 0)
(0 -9.3187e-07 0)
(0 -1.57999e-06 0)
(0 -2.63659e-06 0)
(0 -2.26512e-06 0)
(0 -1.18897e-06 0)
(0 -1.87199e-06 0)
(0 -3.0088e-06 0)
(0 -2.60149e-06 0)
(0 -3.81081e-06 0)
(0 -3.38942e-06 0)
(0 -7.89272e-07 0)
(0 5.18642e-06 0)
(0 6.0963e-06 0)
(0 6.17632e-06 0)
(0 5.84956e-06 0)
(0 5.2415e-06 0)
(0 5.81983e-06 0)
(0 5.09332e-06 0)
(0 3.90243e-06 0)
(0 1.99609e-06 0)
(0 -4.67179e-06 0)
(0 -4.23966e-06 0)
(0 -5.59667e-06 0)
(0 -5.14928e-06 0)
(0 6.14453e-06 0)
(0 -6.58302e-06 0)
(0 -6.13436e-06 0)
(0 -4.70489e-06 0)
(0 -5.69084e-06 0)
(0 -4.28952e-06 0)
(0 -5.26743e-06 0)
(0 -3.88879e-06 0)
(0 -4.85688e-06 0)
(0 -3.50274e-06 0)
(0 -4.46266e-06 0)
(0 -3.12636e-06 0)
(0 -4.08926e-06 0)
(0 -5.48178e-06 0)
(0 -5.12394e-06 0)
(0 -3.72072e-06 0)
(0 -3.37025e-06 0)
(0 -7.66545e-06 0)
(0 -8.09321e-06 0)
(0 6.71572e-06 0)
(0 6.18303e-06 0)
(0 -9.28149e-06 0)
(0 -9.69311e-06 0)
(0 7.00084e-06 0)
(0 -1.09721e-05 0)
(0 -1.13968e-05 0)
(0 -1.27637e-05 0)
(0 -1.32042e-05 0)
(0 7.0919e-06 0)
(0 6.7135e-06 0)
(0 4.12372e-06 0)
(0 -1.46744e-05 0)
(0 -1.50915e-05 0)
(0 -1.66421e-05 0)
(0 -1.70581e-05 0)
(0 -6.26008e-05 0)
(0 -6.44254e-05 0)
(0 -5.93165e-05 0)
(0 -5.76062e-05 0)
(0 -5.42677e-05 0)
(0 -5.01814e-06 0)
(0 -4.58313e-06 0)
(0 -5.28044e-05 0)
(0 -4.94182e-05 0)
(0 -5.06775e-05 0)
(0 -4.59995e-05 0)
(0 -4.72193e-05 0)
(0 -4.27941e-05 0)
(0 -4.16267e-05 0)
(0 -3.8619e-05 0)
(0 -1.86395e-05 0)
(0 -1.91239e-05 0)
(0 -3.98825e-05 0)
(0 -3.59044e-05 0)
(0 -3.47613e-05 0)
(0 -3.23334e-05 0)
(0 -3.33316e-05 0)
(0 -3.00483e-05 0)
(0 -2.91525e-05 0)
(0 -2.71e-05 0)
(0 -3.53036e-06 0)
(0 -2.61926e-05 0)
(0 -2.43748e-05 0)
(0 -2.50705e-05 0)
(0 -2.26111e-05 0)
(0 -1.40605e-08 0)
(0 3.6358e-06 0)
(0 -2.18737e-05 0)
(0 -2.03146e-05 0)
(0 -2.07228e-05 0)
(0 -1.8728e-05 0)
(0 -1.8157e-05 0)
(0 -1.67288e-05 0)
(0 -1.70934e-05 0)
(0 -1.52528e-05 0)
(0 -1.46362e-05 0)
(0 -1.32969e-05 0)
(0 -1.36919e-05 0)
(0 -1.19988e-05 0)
(0 -1.12918e-05 0)
(0 -1.01108e-05 0)
(0 3.69586e-06 0)
(0 3.32415e-06 0)
(0 -8.97984e-06 0)
(0 -7.50971e-06 0)
(0 -8.43535e-06 0)
(0 -5.62386e-06 0)
(0 -4.49829e-06 0)
(0 -2.65711e-06 0)
(0 -3.48522e-06 0)
(0 -5.68025e-07 0)
(0 5.29777e-07 0)
(0 2.55188e-06 0)
(0 1.60926e-06 0)
(0 4.58073e-06 0)
(0 5.57753e-06 0)
(0 7.33849e-06 0)
(0 6.31672e-06 0)
(0 8.69258e-06 0)
(0 7.52131e-06 0)
(0 9.50074e-06 0)
(0 8.24028e-06 0)
(0 1.00516e-05 0)
(0 1.10967e-05 0)
(0 1.18237e-05 0)
(0 1.07879e-05 0)
(0 1.28137e-05 0)
(0 1.17415e-05 0)
(0 1.38647e-05 0)
(0 1.27917e-05 0)
(0 1.49591e-05 0)
(0 1.5976e-05 0)
(0 1.7205e-05 0)
(0 1.61006e-05 0)
(0 1.84001e-05 0)
(0 1.70436e-05 0)
(0 1.9209e-05 0)
(0 1.75059e-05 0)
(0 1.94964e-05 0)
(0 2.1117e-05 0)
(0 2.10435e-05 0)
(0 1.91646e-05 0)
(0 2.0288e-05 0)
(0 1.83075e-05 0)
(0 1.90795e-05 0)
(0 2.08956e-05 0)
(0 1.94544e-05 0)
(0 1.77498e-05 0)
(0 1.80555e-05 0)
(0 1.65132e-05 0)
(0 1.6864e-05 0)
(0 1.81574e-05 0)
(0 1.72125e-05 0)
(0 1.59815e-05 0)
(0 1.65435e-05 0)
(0 1.53693e-05 0)
(0 1.60419e-05 0)
(0 1.70179e-05 0)
(0 1.4962e-05 0)
(0 1.57867e-05 0)
(0 1.47374e-05 0)
(0 1.5824e-05 0)
(0 1.47947e-05 0)
(0 1.61544e-05 0)
(0 1.51532e-05 0)
(0 1.67696e-05 0)
(0 1.56934e-05 0)
(0 1.75076e-05 0)
(0 1.76057e-05 0)
(0 1.65088e-05 0)
(0 -2.07104e-05 0)
(0 -2.02988e-05 0)
(0 -2.15022e-05 0)
(0 -1.96466e-05 0)
(0 -2.16631e-05 0)
(0 -2.00718e-05 0)
(0 -2.21249e-05 0)
(0 -2.05408e-05 0)
(0 -2.25977e-05 0)
(0 -2.09374e-05 0)
(0 -2.29931e-05 0)
(0 -2.12673e-05 0)
(0 1.86399e-05 0)
(0 1.76212e-05 0)
(0 1.39057e-05 0)
(0 -2.33611e-05 0)
(0 -2.16644e-05 0)
(0 1.96909e-05 0)
(0 1.86088e-05 0)
(0 3.05387e-06 0)
(0 1.4329e-05 0)
(0 -2.48406e-05 0)
(0 -2.37081e-05 0)
(0 -2.19863e-05 0)
(0 2.0505e-05 0)
(0 2.14086e-05 0)
(0 1.92351e-05 0)
(0 3.8578e-06 0)
(0 -2.40082e-05 0)
(0 -2.22431e-05 0)
(0 3.4505e-06 0)
(0 4.58447e-06 0)
(0 -6.62876e-06 0)
(0 8.56173e-06 0)
(0 8.68506e-06 0)
(0 8.61872e-06 0)
(0 8.72854e-06 0)
(0 8.66744e-06 0)
(0 8.76875e-06 0)
(0 8.70753e-06 0)
(0 8.80281e-06 0)
(0 8.73837e-06 0)
(0 8.82824e-06 0)
(0 8.63999e-06 0)
(0 8.76134e-06 0)
(0 8.84697e-06 0)
(0 2.19668e-05 0)
(0 2.26099e-05 0)
(0 8.42484e-06 0)
(0 -2.42814e-05 0)
(0 -2.24335e-05 0)
(0 -6.14681e-06 0)
(0 8.77822e-06 0)
(0 8.85539e-06 0)
(0 7.6523e-06 0)
(0 4.47929e-06 0)
(0 5.77629e-06 0)
(0 -2.05913e-05 0)
(0 -2.07251e-05 0)
(0 -2.26376e-05 0)
(0 -2.08802e-05 0)
(0 2.29965e-05 0)
(0 2.32749e-05 0)
(0 8.7831e-06 0)
(0 -2.20904e-06 0)
(0 8.78282e-06 0)
(0 8.85279e-06 0)
(0 -5.53399e-06 0)
(0 -5.59486e-06 0)
(0 -6.24427e-06 0)
(0 -5.66272e-06 0)
(0 -1.91058e-05 0)
(0 -1.92116e-05 0)
(0 -4.97568e-06 0)
(0 -4.99741e-06 0)
(0 -2.10865e-05 0)
(0 -1.93292e-05 0)
(0 -2.62751e-05 0)
(0 8.77397e-06 0)
(0 8.84254e-06 0)
(0 8.6986e-06 0)
(0 -1.75411e-05 0)
(0 -1.76085e-05 0)
(0 -6.37988e-06 0)
(0 -4.28929e-06 0)
(0 -4.34262e-06 0)
(0 -1.94685e-05 0)
(0 -1.77382e-05 0)
(0 -1.59474e-05 0)
(0 -1.60855e-05 0)
(0 -1.43788e-05 0)
(0 -1.45046e-05 0)
(0 5.83997e-06 0)
(0 7.23705e-06 0)
(0 2.37498e-05 0)
(0 2.37018e-05 0)
(0 -1.29133e-05 0)
(0 -1.30746e-05 0)
(0 -1.15515e-05 0)
(0 -1.17708e-05 0)
(0 -1.02634e-05 0)
(0 -1.0494e-05 0)
(0 -9.03503e-06 0)
(0 -9.27827e-06 0)
(0 -7.89875e-06 0)
(0 -8.15694e-06 0)
(0 -6.85329e-06 0)
(0 -7.13069e-06 0)
(0 -8.43349e-06 0)
(0 -7.41478e-06 0)
(0 -6.20157e-06 0)
(0 -6.48952e-06 0)
(0 -5.356e-06 0)
(0 -5.65178e-06 0)
(0 -4.57355e-06 0)
(0 -4.88214e-06 0)
(0 -3.83877e-06 0)
(0 -4.14321e-06 0)
(0 -3.14044e-06 0)
(0 -3.46e-06 0)
(0 -2.48271e-06 0)
(0 -2.81246e-06 0)
(0 -1.87505e-06 0)
(0 -2.22616e-06 0)
(0 -1.33753e-06 0)
(0 -1.72508e-06 0)
(0 -8.88293e-07 0)
(0 -1.2854e-06 0)
(0 -5.02909e-07 0)
(0 -8.98916e-07 0)
(0 -1.46574e-07 0)
(0 -5.16392e-07 0)
(0 2.10261e-07 0)
(0 -1.4203e-07 0)
(0 5.32948e-07 0)
(0 1.39504e-07 0)
(0 7.79488e-07 0)
(0 3.40875e-07 0)
(0 -4.17888e-07 0)
(0 -1.48445e-07 0)
(0 5.17473e-07 0)
(0 4.64275e-08 0)
(0 6.58158e-07 0)
(0 2.12768e-07 0)
(0 7.88547e-07 0)
(0 3.52739e-07 0)
(0 8.90409e-07 0)
(0 4.55126e-07 0)
(0 9.5337e-07 0)
(0 5.17268e-07 0)
(0 9.91571e-07 0)
(0 5.55611e-07 0)
(0 -1.62573e-06 0)
(0 7.7504e-08 0)
(0 1.14844e-07 0)
(0 5.69676e-07 0)
(0 1.07162e-07 0)
(0 5.31065e-07 0)
(0 2.55868e-08 0)
(0 4.20963e-07 0)
(0 -1.21575e-07 0)
(0 2.60592e-07 0)
(0 -3.06427e-07 0)
(0 -6.52072e-07 0)
(0 8.40666e-08 0)
(0 -5.04366e-07 0)
(0 -8.09243e-08 0)
(0 -6.45328e-07 0)
(0 -2.11822e-07 0)
(0 -7.39624e-07 0)
(0 -3.30909e-07 0)
(0 -3.89397e-06 0)
(0 -8.73087e-07 0)
(0 -4.91668e-07 0)
(0 -1.06229e-06 0)
(0 -7.04963e-07 0)
(0 -4.93534e-07 0)
(0 -1.31546e-06 0)
(0 -9.84042e-07 0)
(0 -1.34176e-05 0)
(0 8.75864e-06 0)
(0 8.82528e-06 0)
(0 -6.78189e-06 0)
(0 8.90151e-06 0)
(0 8.88405e-06 0)
(0 8.80092e-06 0)
(0 8.85985e-06 0)
(0 8.94754e-06 0)
(0 8.91163e-06 0)
(0 8.8277e-06 0)
(0 8.87571e-06 0)
(0 8.95106e-06 0)
(0 8.91656e-06 0)
(0 8.98287e-06 0)
(0 8.95146e-06 0)
(0 9.01132e-06 0)
(0 8.98207e-06 0)
(0 9.03705e-06 0)
(0 9.00849e-06 0)
(0 9.05827e-06 0)
(0 9.0296e-06 0)
(0 9.0754e-06 0)
(0 9.04664e-06 0)
(0 8.99475e-06 0)
(0 9.01212e-06 0)
(0 9.06062e-06 0)
(0 9.02881e-06 0)
(0 9.07288e-06 0)
(0 9.04127e-06 0)
(0 9.08321e-06 0)
(0 9.05208e-06 0)
(0 9.09237e-06 0)
(0 9.06353e-06 0)
(0 9.10112e-06 0)
(0 9.0732e-06 0)
(0 9.10823e-06 0)
(0 9.08051e-06 0)
(0 9.04059e-06 0)
(0 9.04784e-06 0)
(0 9.08613e-06 0)
(0 9.05271e-06 0)
(0 9.09085e-06 0)
(0 9.05729e-06 0)
(0 9.09414e-06 0)
(0 9.06158e-06 0)
(0 9.09658e-06 0)
(0 9.06524e-06 0)
(0 9.02566e-06 0)
(0 9.03118e-06 0)
(0 9.06891e-06 0)
(0 9.03508e-06 0)
(0 9.07153e-06 0)
(0 9.03629e-06 0)
(0 9.07279e-06 0)
(0 9.03669e-06 0)
(0 8.99697e-06 0)
(0 8.99717e-06 0)
(0 9.03743e-06 0)
(0 8.99806e-06 0)
(0 9.0387e-06 0)
(0 9.00074e-06 0)
(0 9.04115e-06 0)
(0 9.0042e-06 0)
(0 9.04411e-06 0)
(0 9.00752e-06 0)
(0 9.0477e-06 0)
(0 9.01152e-06 0)
(0 8.96604e-06 0)
(0 8.97087e-06 0)
(0 8.95415e-06 0)
(0 9.01699e-06 0)
(0 8.97715e-06 0)
(0 9.02289e-06 0)
(0 8.98294e-06 0)
(0 9.02812e-06 0)
(0 8.98817e-06 0)
(0 8.93667e-06 0)
(0 8.94213e-06 0)
(0 8.99279e-06 0)
(0 8.94725e-06 0)
(0 8.99696e-06 0)
(0 8.95164e-06 0)
(0 9.00061e-06 0)
(0 8.95517e-06 0)
(0 8.89946e-06 0)
(0 8.90303e-06 0)
(0 8.95775e-06 0)
(0 8.90531e-06 0)
(0 8.95925e-06 0)
(0 8.90619e-06 0)
(0 8.96001e-06 0)
(0 8.90654e-06 0)
(0 8.84446e-06 0)
(0 8.84468e-06 0)
(0 8.90718e-06 0)
(0 8.84522e-06 0)
(0 8.90935e-06 0)
(0 8.84626e-06 0)
(0 8.77379e-06 0)
(0 8.77479e-06 0)
(0 8.84819e-06 0)
(0 8.77719e-06 0)
(0 8.85078e-06 0)
(0 8.78017e-06 0)
(0 8.85404e-06 0)
(0 8.78303e-06 0)
(0 8.85774e-06 0)
(0 8.78575e-06 0)
(0 8.70098e-06 0)
(0 8.70263e-06 0)
(0 8.78871e-06 0)
(0 8.70547e-06 0)
(0 8.60798e-06 0)
(0 8.61055e-06 0)
(0 8.70792e-06 0)
(0 8.61095e-06 0)
(0 8.70846e-06 0)
(0 8.60994e-06 0)
(0 8.70797e-06 0)
(0 8.6096e-06 0)
(0 8.70337e-06 0)
(0 8.60961e-06 0)
(0 8.70392e-06 0)
(0 8.61035e-06 0)
(0 8.49718e-06 0)
(0 8.70913e-06 0)
(0 8.61091e-06 0)
(0 8.70973e-06 0)
(0 8.61006e-06 0)
(0 8.69233e-06 0)
(0 8.71316e-06 0)
(0 8.60916e-06 0)
(0 8.49555e-06 0)
(0 8.49234e-06 0)
(0 8.60722e-06 0)
(0 8.48903e-06 0)
(0 8.60493e-06 0)
(0 8.48555e-06 0)
(0 8.35887e-06 0)
(0 8.35237e-06 0)
(0 8.48235e-06 0)
(0 8.34434e-06 0)
(0 8.47761e-06 0)
(0 8.33929e-06 0)
(0 8.47281e-06 0)
(0 8.33867e-06 0)
(0 8.4691e-06 0)
(0 8.33447e-06 0)
(0 8.4661e-06 0)
(0 8.32445e-06 0)
(0 8.19529e-06 0)
(0 8.46449e-06 0)
(0 8.31856e-06 0)
(0 8.17719e-06 0)
(0 8.46424e-06 0)
(0 8.3125e-06 0)
(0 8.46127e-06 0)
(0 8.30603e-06 0)
(0 8.45562e-06 0)
(0 8.29919e-06 0)
(0 8.13168e-06 0)
(0 8.12152e-06 0)
(0 8.29186e-06 0)
(0 8.11008e-06 0)
(0 8.28328e-06 0)
(0 8.0953e-06 0)
(0 8.27224e-06 0)
(0 8.07753e-06 0)
(0 7.87759e-06 0)
(0 7.85311e-06 0)
(0 8.05692e-06 0)
(0 7.82524e-06 0)
(0 8.03157e-06 0)
(0 7.79055e-06 0)
(0 8.00097e-06 0)
(0 7.7494e-06 0)
(0 7.9696e-06 0)
(0 7.63056e-06 0)
(0 7.70927e-06 0)
(0 7.92745e-06 0)
(0 7.65561e-06 0)
(0 7.87394e-06 0)
(0 8.79937e-06 0)
(0 7.58555e-06 0)
(0 7.81985e-06 0)
(0 8.58222e-06 0)
(0 8.79938e-06 0)
(0 8.91938e-06 0)
(0 9.00168e-06 0)
(0 7.51211e-06 0)
(0 7.75557e-06 0)
(0 7.45778e-06 0)
(0 8.61373e-06 0)
(0 7.43247e-06 0)
(0 7.71442e-06 0)
(0 7.16216e-06 0)
(0 8.97966e-06 0)
(0 8.1918e-06 0)
(0 9.08088e-06 0)
(0 7.33008e-06 0)
(0 7.56567e-06 0)
(0 8.05587e-06 0)
(0 7.19678e-06 0)
(0 7.44026e-06 0)
(0 8.88295e-06 0)
(0 7.79173e-06 0)
(0 7.65034e-06 0)
(0 7.29127e-06 0)
(0 7.51481e-06 0)
(0 9.12595e-06 0)
(0 7.1117e-06 0)
(0 7.33789e-06 0)
(0 7.72508e-06 0)
(0 7.54382e-06 0)
(0 7.11958e-06 0)
(0 7.32683e-06 0)
(0 7.72689e-06 0)
(0 7.51103e-06 0)
(0 7.88619e-06 0)
(0 7.66903e-06 0)
(0 7.25688e-06 0)
(0 7.80095e-06 0)
(0 7.90797e-06 0)
(0 7.99024e-06 0)
(0 8.88597e-06 0)
(0 -3.64531e-06 0)
(0 -3.80089e-06 0)
(0 9.13185e-06 0)
(0 -1.66338e-06 0)
(0 -1.37351e-06 0)
(0 -1.96102e-05 0)
(0 9.11536e-06 0)
(0 -1.97372e-05 0)
(0 -1.2728e-05 0)
(0 2.42936e-05 0)
(0 2.3999e-05 0)
(0 2.39774e-05 0)
(0 2.30259e-05 0)
(0 2.311e-05 0)
(0 2.19425e-05 0)
(0 2.18251e-05 0)
(0 2.0606e-05 0)
(0 2.03295e-05 0)
(0 1.9135e-05 0)
(0 1.8746e-05 0)
(0 1.75068e-05 0)
(0 1.71159e-05 0)
(0 1.5967e-05 0)
(0 1.57782e-05 0)
(0 1.49407e-05 0)
(0 1.49263e-05 0)
(0 1.45512e-05 0)
(0 1.45599e-05 0)
(0 1.46246e-05 0)
(0 1.44863e-05 0)
(0 1.45867e-05 0)
(0 1.47917e-05 0)
(0 1.4591e-05 0)
(0 1.49764e-05 0)
(0 1.48817e-05 0)
(0 1.52584e-05 0)
(0 1.52664e-05 0)
(0 -6.42812e-06 0)
(0 -6.57952e-06 0)
(0 9.03854e-06 0)
(0 7.60073e-06 0)
(0 9.11024e-06 0)
(0 -3.11204e-06 0)
(0 -3.38525e-06 0)
(0 -4.04766e-06 0)
(0 -3.66226e-06 0)
(0 -2.93186e-06 0)
(0 -4.29595e-06 0)
(0 -3.85183e-06 0)
(0 -3.20959e-06 0)
(0 -3.34876e-06 0)
(0 -2.69784e-06 0)
(0 -2.85337e-06 0)
(0 -3.52277e-06 0)
(0 -3.08723e-06 0)
(0 -2.36613e-06 0)
(0 -2.67342e-06 0)
(0 8.43983e-06 0)
(0 -1.20939e-06 0)
(0 9.10401e-06 0)
(0 9.0627e-06 0)
(0 9.00625e-06 0)
(0 8.98915e-06 0)
(0 8.8839e-06 0)
(0 -2.11327e-06 0)
(0 -1.85041e-06 0)
(0 8.83919e-06 0)
(0 8.50136e-06 0)
(0 -1.92056e-06 0)
(0 1.55238e-05 0)
(0 1.71314e-05 0)
(0 1.06983e-05 0)
(0 -3.89316e-06 0)
(0 -3.35512e-06 0)
(0 -3.77753e-06 0)
(0 -3.10495e-06 0)
(0 -3.55794e-06 0)
(0 -2.74098e-06 0)
(0 -3.21638e-06 0)
(0 -2.31867e-06 0)
(0 -2.77964e-06 0)
(0 -1.87039e-06 0)
(0 6.286e-06 0)
(0 -1.46586e-06 0)
(0 -1.10798e-06 0)
(0 1.55439e-05 0)
(0 1.55308e-05 0)
(0 8.22186e-06 0)
(0 1.27456e-05 0)
(0 1.81147e-05 0)
(0 1.53745e-05 0)
(0 1.38505e-06 0)
(0 -3.73188e-07 0)
(0 -3.45139e-06 0)
(0 -3.10937e-06 0)
(0 8.72325e-06 0)
(0 1.0727e-05 0)
(0 -1.6762e-06 0)
(0 -5.38144e-06 0)
(0 6.98315e-06 0)
(0 -4.07857e-06 0)
(0 -2.8089e-06 0)
(0 -2.63182e-06 0)
(0 2.46001e-05 0)
(0 2.40836e-05 0)
(0 2.29514e-05 0)
(0 1.57606e-05 0)
(0 1.56558e-05 0)
(0 8.18888e-07 0)
(0 9.09914e-06 0)
(0 -7.27701e-07 0)
(0 -3.5012e-07 0)
(0 -1.18163e-05 0)
(0 9.65184e-06 0)
(0 8.16776e-06 0)
(0 -3.5229e-06 0)
(0 2.54333e-07 0)
(0 -9.86293e-07 0)
(0 8.22596e-06 0)
(0 1.19448e-06 0)
(0 1.88295e-07 0)
(0 1.81711e-05 0)
(0 5.63789e-06 0)
(0 1.59742e-05 0)
(0 1.58381e-05 0)
(0 -6.90557e-05 0)
(0 -1.23772e-05 0)
(0 1.55516e-05 0)
(0 1.58622e-05 0)
(0 1.61651e-05 0)
(0 1.65199e-05 0)
(0 -6.93883e-05 0)
(0 -6.54761e-05 0)
(0 -6.51013e-05 0)
(0 -6.16864e-05 0)
(0 2.45805e-05 0)
(0 2.38724e-05 0)
(0 -2.34463e-06 0)
(0 -3.13796e-06 0)
(0 -3.92945e-06 0)
(0 1.4512e-07 0)
(0 6.84592e-07 0)
(0 -3.04941e-07 0)
(0 -6.1832e-05 0)
(0 -5.82672e-05 0)
(0 -5.79207e-05 0)
(0 -5.46867e-05 0)
(0 1.48294e-05 0)
(0 -1.5731e-06 0)
(0 1.03537e-05 0)
(0 1.24685e-05 0)
(0 1.63121e-05 0)
(0 1.73469e-05 0)
(0 1.76566e-05 0)
(0 1.8788e-05 0)
(0 1.59321e-05 0)
(0 -3.71815e-06 0)
(0 -3.2527e-06 0)
(0 -4.32525e-06 0)
(0 -3.79096e-06 0)
(0 -4.95425e-06 0)
(0 -4.39811e-06 0)
(0 -5.55886e-06 0)
(0 -5.00229e-06 0)
(0 -6.22511e-06 0)
(0 -5.67066e-06 0)
(0 -7.07359e-06 0)
(0 -6.54305e-06 0)
(0 -8.14051e-06 0)
(0 -5.14896e-06 0)
(0 -7.72949e-06 0)
(0 -9.48668e-06 0)
(0 -9.24675e-06 0)
(0 -1.10831e-05 0)
(0 5.83916e-06 0)
(0 -5.49837e-05 0)
(0 -5.14836e-05 0)
(0 -5.10886e-05 0)
(0 -4.79484e-05 0)
(0 1.4936e-05 0)
(0 9.99299e-06 0)
(0 8.47554e-06 0)
(0 1.84464e-05 0)
(0 2.00751e-05 0)
(0 2.05344e-05 0)
(0 2.18621e-05 0)
(0 2.23481e-05 0)
(0 2.34341e-05 0)
(0 2.26579e-05 0)
(0 2.37349e-05 0)
(0 2.45653e-05 0)
(0 2.43427e-05 0)
(0 -4.82466e-05 0)
(0 -4.47627e-05 0)
(0 -4.45266e-05 0)
(0 -4.1482e-05 0)
(0 -4.12248e-05 0)
(0 -3.83616e-05 0)
(0 -3.85758e-05 0)
(0 -3.56821e-05 0)
(0 -3.58056e-05 0)
(0 -3.31437e-05 0)
(0 -3.30262e-05 0)
(0 -3.31502e-05 0)
(0 -1.12676e-05 0)
(0 -8.79414e-06 0)
(0 2.53606e-05 0)
(0 2.47488e-05 0)
(0 -1.09393e-05 0)
(0 -2.00983e-06 0)
(0 -3.65856e-06 0)
(0 -3.64387e-07 0)
(0 2.41186e-05 0)
(0 2.32757e-05 0)
(0 1.41313e-06 0)
(0 2.12986e-06 0)
(0 -9.08595e-06 0)
(0 -3.06957e-05 0)
(0 -3.05557e-05 0)
(0 -1.24141e-06 0)
(0 -2.91344e-06 0)
(0 7.0194e-06 0)
(0 -4.46567e-06 0)
(0 -4.74605e-06 0)
(0 2.25429e-05 0)
(0 9.90696e-06 0)
(0 8.36092e-06 0)
(0 9.03974e-06 0)
(0 -2.41377e-06 0)
(0 -2.19092e-06 0)
(0 -1.70339e-06 0)
(0 -1.43613e-06 0)
(0 1.1879e-06 0)
(0 1.20758e-05 0)
(0 1.40598e-05 0)
(0 2.27346e-05 0)
(0 -4.2759e-06 0)
(0 -7.0352e-06 0)
(0 -3.46163e-05 0)
(0 1.79279e-05 0)
(0 2.5832e-05 0)
(0 2.50864e-05 0)
(0 2.36867e-05 0)
(0 2.40753e-05 0)
(0 -2.86893e-05 0)
(0 -3.28957e-05 0)
(0 -2.76229e-05 0)
(0 -3.1417e-05 0)
(0 -2.6603e-05 0)
(0 -2.33994e-05 0)
(0 -2.28688e-05 0)
(0 -2.5876e-05 0)
(0 -2.24814e-05 0)
(0 -1.96807e-05 0)
(0 -1.93572e-05 0)
(0 8.91897e-06 0)
(0 -9.72633e-07 0)