/*--------------------------------*- C++ -*----------------------------------*\
| =========                 |                                                 |
| \\      /  F ield         | OpenFOAM: The Open Source CFD Toolbox           |
|  \\    /   O peration     | Version:  v2012                                 |
|   \\  /    A nd           | Website:  www.openfoam.com                      |
|    \\/     M anipulation  |                                                 |
\*---------------------------------------------------------------------------*/
FoamFile
{
    version     2.0;
    format      ascii;
    class       volVectorField;
    location    "550";
    object      cellDisplacement;
}
// * * * * * * * * * * * * * * * * * * * * * * * * * * * * * * * * * * * * * //

dimensions      [0 1 0 0 0 0 0];


internalField   nonuniform List<vector> 
18355
(
(0 -0.000205445 0)
(0 -0.000615547 0)
(0 -3.87326e-05 0)
(0 -0.000211523 0)
(0 -0.00123179 0)
(0 -0.0011039 0)
(0 -0.00112797 0)
(0 -0.00122844 0)
(0 -8.5202e-05 0)
(0 -0.00113256 0)
(0 -0.000525395 0)
(0 -1.29502e-05 0)
(0 -1.1686e-05 0)
(0 -0.000924251 0)
(0 -0.00014673 0)
(0 -0.000529344 0)
(0 -0.000202002 0)
(0 -0.000633006 0)
(0 -9.00503e-05 0)
(0 -0.00114037 0)
(0 -0.000353844 0)
(0 -0.000357933 0)
(0 -0.00041677 0)
(0 -0.00110974 0)
(0 -0.000404002 0)
(0 -0.000999561 0)
(0 -0.0011312 0)
(0 -0.000371922 0)
(0 -6.54714e-05 0)
(0 -0.000540304 0)
(0 -0.00113489 0)
(0 -0.000397514 0)
(0 -0.000702824 0)
(0 -0.000384477 0)
(0 -2.86952e-06 0)
(0 -0.000896352 0)
(0 -0.000164938 0)
(0 -0.000905556 0)
(0 -0.000541458 0)
(0 -0.000553525 0)
(0 -2.17587e-05 0)
(0 -0.000526664 0)
(0 -0.000404443 0)
(0 -0.000572644 0)
(0 -0.00059281 0)
(0 2.38113e-06 0)
(0 -0.000572685 0)
(0 -0.000560496 0)
(0 -0.00114242 0)
(0 -0.00106103 0)
(0 -7.21358e-05 0)
(0 -0.000318134 0)
(0 -0.00106967 0)
(0 -0.000150941 0)
(0 -0.000288546 0)
(0 -0.00114824 0)
(0 -2.0245e-05 0)
(0 -0.000568544 0)
(0 -0.000999625 0)
(0 5.64942e-06 0)
(0 -0.000402609 0)
(0 -3.60805e-05 0)
(0 -0.000157482 0)
(0 -0.000967037 0)
(0 -0.000350663 0)
(0 -8.08021e-05 0)
(0 -0.00031409 0)
(0 -0.000166713 0)
(0 -0.000370569 0)
(0 -0.00120225 0)
(0 -0.000992058 0)
(0 -0.000297816 0)
(0 -0.000405041 0)
(0 -0.000667062 0)
(0 -0.00127926 0)
(0 -0.000389107 0)
(0 -0.00056353 0)
(0 -0.000406036 0)
(0 -0.000979357 0)
(0 -0.00128067 0)
(0 -0.000321025 0)
(0 -0.00128876 0)
(0 -0.000387262 0)
(0 -0.000331384 0)
(0 -0.000244656 0)
(0 -5.34434e-05 0)
(0 -7.39775e-05 0)
(0 -0.000219484 0)
(0 -0.000717352 0)
(0 -0.00022582 0)
(0 -0.000943246 0)
(0 -0.000366969 0)
(0 -0.00128707 0)
(0 -0.00106472 0)
(0 -0.00124308 0)
(0 -0.000939913 0)
(0 -0.000573615 0)
(0 -0.00093052 0)
(0 -0.000106536 0)
(0 -0.00038437 0)
(0 -0.00024682 0)
(0 -0.000960207 0)
(0 -0.00105554 0)
(0 -1.24496e-05 0)
(0 -0.000329266 0)
(0 -0.000548502 0)
(0 -0.00036016 0)
(0 -0.00124668 0)
(0 -0.000198969 0)
(0 -0.000485985 0)
(0 -2.80139e-05 0)
(0 -3.35569e-05 0)
(0 -0.000457765 0)
(0 -0.000338517 0)
(0 -4.70681e-06 0)
(0 -0.00041136 0)
(0 -0.000946956 0)
(0 -0.00128697 0)
(0 -0.000370597 0)
(0 -0.000309621 0)
(0 -0.00119841 0)
(0 -3.55776e-05 0)
(0 -0.000954085 0)
(0 -0.000213534 0)
(0 -0.00128845 0)
(0 1.53287e-06 0)
(0 -0.00113516 0)
(0 -0.000173242 0)
(0 -0.000197065 0)
(0 -0.000365092 0)
(0 -0.000595663 0)
(0 -0.000327269 0)
(0 -0.000449669 0)
(0 -7.1101e-05 0)
(0 -0.000246762 0)
(0 -0.000753416 0)
(0 -8.50082e-05 0)
(0 -0.00122052 0)
(0 -9.30284e-05 0)
(0 -0.000366912 0)
(0 -0.000213064 0)
(0 -0.00125941 0)
(0 -0.000615948 0)
(0 -0.000284407 0)
(0 -0.000253224 0)
(0 -3.90732e-05 0)
(0 3.10675e-06 0)
(0 -2.73936e-05 0)
(0 -0.000467278 0)
(0 -5.01662e-05 0)
(0 -0.00035906 0)
(0 -0.000311314 0)
(0 -0.00101201 0)
(0 -0.00122651 0)
(0 -0.000422205 0)
(0 -0.000205138 0)
(0 -0.000159059 0)
(0 -6.73676e-05 0)
(0 -0.000624793 0)
(0 -0.000177077 0)
(0 -0.000599002 0)
(0 -0.000458324 0)
(0 -0.000490463 0)
(0 -0.00124268 0)
(0 -0.000631239 0)
(0 -0.0011334 0)
(0 4.14496e-06 0)
(0 -0.000219018 0)
(0 -0.000442603 0)
(0 -0.000217538 0)
(0 -2.87819e-05 0)
(0 -7.3533e-05 0)
(0 -5.1305e-05 0)
(0 -0.00114962 0)
(0 -1.32001e-05 0)
(0 -2.90466e-05 0)
(0 -4.09584e-05 0)
(0 -1.39675e-05 0)
(0 -0.000196833 0)
(0 -0.000324543 0)
(0 -5.70132e-05 0)
(0 -0.0011228 0)
(0 -0.000364924 0)
(0 -0.000422514 0)
(0 -0.00112085 0)
(0 -0.00105767 0)
(0 -8.73592e-05 0)
(0 -0.000241386 0)
(0 -0.000127398 0)
(0 -0.00114147 0)
(0 1.31969e-06 0)
(0 -0.000102508 0)
(0 -0.000652294 0)
(0 -0.000452492 0)
(0 -3.37312e-05 0)
(0 -7.6465e-06 0)
(0 -8.93039e-05 0)
(0 -0.000202957 0)
(0 -0.000634561 0)
(0 -0.000935809 0)
(0 -0.00104652 0)
(0 -0.000695399 0)
(0 -0.000555023 0)
(0 -7.86464e-05 0)
(0 -0.00021178 0)
(0 -0.000340867 0)
(0 -0.000452169 0)
(0 -0.000425948 0)
(0 -0.0006631 0)
(0 -0.00102279 0)
(0 -0.000448796 0)
(0 -0.00111658 0)
(0 -0.00103178 0)
(0 -0.00102269 0)
(0 -2.61869e-05 0)
(0 -0.00115778 0)
(0 -0.000332478 0)
(0 -0.000168627 0)
(0 -0.000353235 0)
(0 -0.000622691 0)
(0 -0.000201793 0)
(0 -0.000379967 0)
(0 -0.00021585 0)
(0 -0.000883986 0)
(0 -0.00117987 0)
(0 -0.0011836 0)
(0 -0.000398751 0)
(0 -0.00122245 0)
(0 -0.000215436 0)
(0 -0.000381827 0)
(0 -0.00110805 0)
(0 -0.000322306 0)
(0 -0.000824129 0)
(0 -0.000394455 0)
(0 -0.00124517 0)
(0 -0.00117365 0)
(0 -0.00022338 0)
(0 2.39536e-06 0)
(0 -0.000136679 0)
(0 -0.00102745 0)
(0 -0.00067634 0)
(0 -0.000198895 0)
(0 -0.00101772 0)
(0 -0.000370494 0)
(0 -0.000349276 0)
(0 -0.000268982 0)
(0 -0.000512434 0)
(0 -0.00112079 0)
(0 -0.00111641 0)
(0 -0.00103012 0)
(0 -0.000976622 0)
(0 -0.00112169 0)
(0 -2.83999e-05 0)
(0 -0.00089356 0)
(0 -1.65478e-05 0)
(0 -0.000872241 0)
(0 -0.000140017 0)
(0 -4.16157e-05 0)
(0 -0.00118269 0)
(0 -0.000572558 0)
(0 -3.78036e-05 0)
(0 -0.00123185 0)
(0 -0.00010481 0)
(0 -0.000104268 0)
(0 -0.000556649 0)
(0 -0.00111262 0)
(0 -0.00124909 0)
(0 -0.000108207 0)
(0 -0.000579811 0)
(0 -0.000279482 0)
(0 -0.00115058 0)
(0 -0.000498472 0)
(0 -0.000707797 0)
(0 -0.000163912 0)
(0 -0.000345414 0)
(0 -0.000423659 0)
(0 -0.000754987 0)
(0 -0.000738508 0)
(0 -0.000207621 0)
(0 -0.00120205 0)
(0 -0.000737539 0)
(0 -0.000446201 0)
(0 -0.000422079 0)
(0 -0.00047986 0)
(0 -0.000205933 0)
(0 -0.000326161 0)
(0 -0.00033626 0)
(0 -2.38815e-05 0)
(0 -0.000338738 0)
(0 -4.79206e-05 0)
(0 -0.000685506 0)
(0 -9.20699e-05 0)
(0 -0.000352855 0)
(0 -0.00117011 0)
(0 -0.00124629 0)
(0 -0.000119503 0)
(0 -0.000437011 0)
(0 -0.000209503 0)
(0 -0.000431647 0)
(0 -0.00125662 0)
(0 -0.00015605 0)
(0 -0.000841348 0)
(0 -0.000186461 0)
(0 -0.000101741 0)
(0 -0.000670119 0)
(0 -0.000757372 0)
(0 -0.00103792 0)
(0 -0.000148673 0)
(0 -0.000107196 0)
(0 -9.47889e-05 0)
(0 -0.000799873 0)
(0 -3.31966e-05 0)
(0 -0.000674029 0)
(0 -0.000953041 0)
(0 -0.000166555 0)
(0 -0.000421634 0)
(0 -0.000659832 0)
(0 -0.000567908 0)
(0 -0.00046005 0)
(0 -5.62542e-05 0)
(0 -3.11338e-05 0)
(0 -4.39932e-05 0)
(0 -0.000789023 0)
(0 -0.000739661 0)
(0 -0.000207962 0)
(0 -0.00128425 0)
(0 -3.99639e-05 0)
(0 -0.000336386 0)
(0 -0.000212793 0)
(0 -0.000330365 0)
(0 -0.000372004 0)
(0 -2.58473e-06 0)
(0 -0.00131178 0)
(0 -0.000585696 0)
(0 -0.00129421 0)
(0 -6.41252e-05 0)
(0 -0.000547058 0)
(0 -0.000689831 0)
(0 -1.43793e-05 0)
(0 -0.00022593 0)
(0 -0.000361606 0)
(0 -0.000776545 0)
(0 -0.000447069 0)
(0 -0.000730717 0)
(0 -0.000330449 0)
(0 -0.00113593 0)
(0 -0.00114214 0)
(0 -0.000737732 0)
(0 -6.84108e-05 0)
(0 -4.00894e-05 0)
(0 -0.000425701 0)
(0 -0.000765153 0)
(0 -2.05622e-05 0)
(0 -0.00112724 0)
(0 -0.000485997 0)
(0 -0.00109696 0)
(0 -0.000341379 0)
(0 -3.31975e-05 0)
(0 -0.000349505 0)
(0 -0.000421625 0)
(0 -8.05309e-05 0)
(0 -0.000389376 0)
(0 5.29111e-06 0)
(0 -0.00085289 0)
(0 -0.000408027 0)
(0 -0.000582744 0)
(0 -0.00116523 0)
(0 -0.000456342 0)
(0 -5.91671e-05 0)
(0 -0.00128964 0)
(0 -0.000862674 0)
(0 -0.00077252 0)
(0 -0.000338077 0)
(0 -0.000223785 0)
(0 -1.24129e-05 0)
(0 -0.00110385 0)
(0 -0.000882231 0)
(0 -0.000144429 0)
(0 -0.000640977 0)
(0 -0.0011576 0)
(0 -0.00123477 0)
(0 -0.000390518 0)
(0 -9.10611e-05 0)
(0 -0.000620168 0)
(0 -0.000108167 0)
(0 -0.001058 0)
(0 -3.83144e-05 0)
(0 -0.000479156 0)
(0 -0.00102213 0)
(0 -0.000304786 0)
(0 -6.48768e-05 0)
(0 -0.000480331 0)
(0 -0.00071361 0)
(0 -0.00116391 0)
(0 -5.52704e-05 0)
(0 -1.17029e-05 0)
(0 -0.000853362 0)
(0 -0.0011734 0)
(0 -3.11589e-05 0)
(0 -0.00122616 0)
(0 -5.5429e-05 0)
(0 -5.187e-07 0)
(0 -9.53272e-05 0)
(0 -0.000138511 0)
(0 -0.000774165 0)
(0 -0.00111627 0)
(0 -0.000665178 0)
(0 -0.00128446 0)
(0 -0.00118728 0)
(0 -0.000234484 0)
(0 -0.000121174 0)
(0 -9.02649e-06 0)
(0 -5.68954e-05 0)
(0 -0.000376191 0)
(0 -0.000352484 0)
(0 -0.000363259 0)
(0 -7.42183e-05 0)
(0 -0.0011524 0)
(0 -3.73787e-05 0)
(0 -0.000362599 0)
(0 -8.39566e-05 0)
(0 -7.12431e-05 0)
(0 -0.00122926 0)
(0 -0.000103896 0)
(0 -0.000595105 0)
(0 -0.000719394 0)
(0 -0.000101394 0)
(0 -0.000362745 0)
(0 -0.00105342 0)
(0 -0.00113037 0)
(0 -0.00122603 0)
(0 -0.000337337 0)
(0 -9.22659e-05 0)
(0 -5.74779e-05 0)
(0 -0.000700047 0)
(0 -0.000528858 0)
(0 -0.000359811 0)
(0 -0.00062591 0)
(0 -0.000159664 0)
(0 -0.000434408 0)
(0 -0.00104514 0)
(0 -0.000100822 0)
(0 -0.000132127 0)
(0 -0.00057236 0)
(0 -0.00108337 0)
(0 -0.00118066 0)
(0 -1.06779e-05 0)
(0 -0.000622916 0)
(0 -2.43668e-05 0)
(0 -5.2011e-05 0)
(0 -1.32861e-05 0)
(0 -0.00123456 0)
(0 -0.000437393 0)
(0 -0.00115436 0)
(0 -0.000208286 0)
(0 -0.000269957 0)
(0 -6.07548e-06 0)
(0 -3.70827e-05 0)
(0 -0.0003595 0)
(0 -0.000122914 0)
(0 -0.000162631 0)
(0 -1.01055e-05 0)
(0 -0.000876648 0)
(0 -0.000600536 0)
(0 -0.000187151 0)
(0 -8.23345e-05 0)
(0 -0.000618858 0)
(0 -0.000189231 0)
(0 -0.000348234 0)
(0 -0.000471608 0)
(0 -0.000394363 0)
(0 -0.0003037 0)
(0 -0.000671096 0)
(0 -0.000350493 0)
(0 -2.30894e-05 0)
(0 -0.000371802 0)
(0 -0.00010831 0)
(0 -0.000411527 0)
(0 -0.000577705 0)
(0 -0.000265917 0)
(0 -0.000596087 0)
(0 -4.16422e-05 0)
(0 -1.40117e-05 0)
(0 -0.000372111 0)
(0 -0.000636947 0)
(0 -0.000580412 0)
(0 -0.000419927 0)
(0 -0.00103346 0)
(0 -0.000658576 0)
(0 -0.000956483 0)
(0 -0.000361473 0)
(0 -0.000168237 0)
(0 -0.000198645 0)
(0 -0.000696472 0)
(0 -0.000950824 0)
(0 -0.000149096 0)
(0 -0.00019568 0)
(0 -0.000159394 0)
(0 -0.000360701 0)
(0 -4.71513e-05 0)
(0 -0.000351583 0)
(0 -0.000362472 0)
(0 -4.41845e-05 0)
(0 -4.2633e-05 0)
(0 -0.000955535 0)
(0 -0.000355863 0)
(0 -0.000733021 0)
(0 -0.000297334 0)
(0 -0.000251307 0)
(0 8.49115e-06 0)
(0 -0.000262818 0)
(0 -0.000891615 0)
(0 -0.00089027 0)
(0 -0.000101354 0)
(0 -0.000218548 0)
(0 -6.05389e-05 0)
(0 -0.000132033 0)
(0 -0.00053199 0)
(0 8.36206e-06 0)
(0 -0.00035964 0)
(0 -7.36662e-05 0)
(0 -0.00040624 0)
(0 -0.000720398 0)
(0 -0.000380105 0)
(0 -0.000264756 0)
(0 -0.000280557 0)
(0 -0.00127525 0)
(0 -0.000886841 0)
(0 -0.000708778 0)
(0 -0.00124318 0)
(0 -0.00068925 0)
(0 -0.000281799 0)
(0 -0.000323731 0)
(0 -0.000261314 0)
(0 -0.000921791 0)
(0 -0.000354622 0)
(0 -0.00116488 0)
(0 -1.48043e-05 0)
(0 -0.000594829 0)
(0 -0.000979519 0)
(0 -0.000396747 0)
(0 -0.000471177 0)
(0 -0.000564983 0)
(0 -0.000444611 0)
(0 -0.000985929 0)
(0 -0.000825189 0)
(0 -0.000323321 0)
(0 -0.000250844 0)
(0 -0.00129778 0)
(0 -0.00058896 0)
(0 -0.000601319 0)
(0 -0.000945697 0)
(0 -5.44514e-05 0)
(0 -1.12321e-05 0)
(0 -0.000438672 0)
(0 -0.000346539 0)
(0 -0.000196406 0)
(0 -0.000175779 0)
(0 -1.8334e-05 0)
(0 -9.43515e-05 0)
(0 -0.000376042 0)
(0 -0.000269738 0)
(0 -2.82576e-05 0)
(0 -0.00048121 0)
(0 -0.000104677 0)
(0 -0.000124929 0)
(0 -5.85085e-05 0)
(0 -0.000387805 0)
(0 -0.000108064 0)
(0 -0.000128547 0)
(0 -5.60801e-05 0)
(0 -0.000104894 0)
(0 -3.34642e-05 0)
(0 -0.00059655 0)
(0 -4.6088e-05 0)
(0 -6.83102e-07 0)
(0 -0.000750009 0)
(0 -2.52829e-05 0)
(0 -0.00121609 0)
(0 -0.00117309 0)
(0 -1.63746e-05 0)
(0 -0.00036571 0)
(0 -0.00115701 0)
(0 -0.00130788 0)
(0 -4.07675e-05 0)
(0 -0.000203765 0)
(0 -0.00088796 0)
(0 -3.16631e-05 0)
(0 -0.000411794 0)
(0 -0.00041033 0)
(0 -0.000205252 0)
(0 2.71439e-06 0)
(0 -0.000524833 0)
(0 -0.000843697 0)
(0 -0.00047837 0)
(0 -3.44637e-05 0)
(0 -0.000242709 0)
(0 -3.36176e-05 0)
(0 -0.00111364 0)
(0 -0.000254431 0)
(0 -0.00114048 0)
(0 -8.265e-05 0)
(0 -0.00122665 0)
(0 -3.78943e-05 0)
(0 -0.00050586 0)
(0 -0.000180783 0)
(0 -0.000234188 0)
(0 -0.000147666 0)
(0 -0.000374828 0)
(0 -0.000545204 0)
(0 -0.000232747 0)
(0 -0.00100994 0)
(0 -0.00065369 0)
(0 -0.0004624 0)
(0 -3.91301e-05 0)
(0 -0.000250624 0)
(0 -0.000348266 0)
(0 -0.000737063 0)
(0 -0.000648438 0)
(0 -0.000635668 0)
(0 -0.000522017 0)
(0 -2.59391e-05 0)
(0 -0.000589899 0)
(0 -0.000205715 0)
(0 -0.000684319 0)
(0 -2.8963e-05 0)
(0 -0.00122847 0)
(0 -9.59585e-05 0)
(0 -5.61944e-06 0)
(0 -0.00130778 0)
(0 -0.00106961 0)
(0 -0.0010141 0)
(0 -6.17485e-05 0)
(0 -0.00112521 0)
(0 -5.95243e-05 0)
(0 -0.000624563 0)
(0 -0.000203599 0)
(0 -0.000243641 0)
(0 -0.000373071 0)
(0 -9.34181e-05 0)
(0 -0.00104374 0)
(0 -9.64548e-05 0)
(0 -3.86475e-05 0)
(0 -0.00126869 0)
(0 -0.00119327 0)
(0 -0.0012646 0)
(0 -0.000240732 0)
(0 -0.000572392 0)
(0 -0.000347379 0)
(0 -0.000607311 0)
(0 -0.000390326 0)
(0 -0.00130351 0)
(0 -0.00122771 0)
(0 -5.64831e-05 0)
(0 -0.000604636 0)
(0 -0.000208638 0)
(0 -4.4657e-05 0)
(0 -0.000528084 0)
(0 -9.00458e-05 0)
(0 -4.37506e-05 0)
(0 -0.000381227 0)
(0 -0.00116615 0)
(0 -0.000255148 0)
(0 -0.000171887 0)
(0 -0.000134863 0)
(0 -0.000255455 0)
(0 -0.000366798 0)
(0 -0.000378569 0)
(0 -0.000831679 0)
(0 -0.000495837 0)
(0 -0.000147846 0)
(0 -0.0002972 0)
(0 -0.000120291 0)
(0 -0.00021591 0)
(0 -0.00123155 0)
(0 -0.000616238 0)
(0 -0.00125749 0)
(0 -4.90448e-06 0)
(0 -0.000272225 0)
(0 -0.000201525 0)
(0 -0.000401258 0)
(0 -4.09641e-05 0)
(0 -0.000265074 0)
(0 -2.73047e-05 0)
(0 -2.35897e-05 0)
(0 -0.000390355 0)
(0 -0.000613894 0)
(0 -0.000297687 0)
(0 -0.000128387 0)
(0 -0.000198663 0)
(0 -0.00026882 0)
(0 -0.000463286 0)
(0 -4.68959e-05 0)
(0 -0.00061971 0)
(0 -0.000382415 0)
(0 -0.000221406 0)
(0 -0.00024217 0)
(0 -6.57599e-05 0)
(0 -1.6698e-05 0)
(0 -0.00106208 0)
(0 -0.0012545 0)
(0 -0.00119908 0)
(0 -0.000516951 0)
(0 -0.000338514 0)
(0 -0.000356896 0)
(0 -0.000390853 0)
(0 -3.23389e-05 0)
(0 -0.0003897 0)
(0 -0.000455431 0)
(0 -0.000521916 0)
(0 -0.000615432 0)
(0 -0.000174595 0)
(0 -2.67823e-05 0)
(0 -0.000627434 0)
(0 -9.26825e-05 0)
(0 -0.00114012 0)
(0 -0.000941532 0)
(0 -0.000594519 0)
(0 -0.00120076 0)
(0 -0.00122863 0)
(0 -0.000672987 0)
(0 -4.03562e-05 0)
(0 -0.000218948 0)
(0 -0.000413277 0)
(0 -0.00117246 0)
(0 -4.15055e-05 0)
(0 -5.60799e-05 0)
(0 -0.00123577 0)
(0 -2.67963e-05 0)
(0 -0.000834473 0)
(0 -8.57583e-05 0)
(0 -2.13663e-05 0)
(0 -0.000103418 0)
(0 -0.000387819 0)
(0 -0.00124683 0)
(0 -4.93276e-05 0)
(0 -0.000138615 0)
(0 -0.00126565 0)
(0 -0.0002955 0)
(0 -0.00111481 0)
(0 -0.000181742 0)
(0 -0.000756144 0)
(0 -3.18069e-05 0)
(0 -0.000214158 0)
(0 -0.000115308 0)
(0 -0.00022345 0)
(0 -0.00105595 0)
(0 -0.000438588 0)
(0 -0.000631487 0)
(0 -4.20756e-06 0)
(0 -0.000550312 0)
(0 -0.00124358 0)
(0 -0.00114822 0)
(0 -0.000157525 0)
(0 -0.000381627 0)
(0 -2.87771e-05 0)
(0 -0.000449475 0)
(0 -0.000297975 0)
(0 -3.41203e-05 0)
(0 -0.000680545 0)
(0 -0.000375977 0)
(0 -0.000553472 0)
(0 -0.000573096 0)
(0 -0.00111943 0)
(0 -0.000595191 0)
(0 -0.00112066 0)
(0 -0.000393847 0)
(0 -0.000570335 0)
(0 -8.59347e-05 0)
(0 -0.000365446 0)
(0 -0.000802398 0)
(0 -0.000784417 0)
(0 -5.84604e-06 0)
(0 -0.000377727 0)
(0 -0.000208428 0)
(0 -0.000565456 0)
(0 -1.01876e-05 0)
(0 -0.000437948 0)
(0 -0.000397624 0)
(0 -0.000776091 0)
(0 -0.0011186 0)
(0 -0.000611065 0)
(0 -0.000761296 0)
(0 -0.000543016 0)
(0 -0.000633168 0)
(0 -0.000644112 0)
(0 -0.000367381 0)
(0 -0.000687934 0)
(0 -0.000385224 0)
(0 -0.000386028 0)
(0 -0.000603614 0)
(0 -0.000225777 0)
(0 -0.000952375 0)
(0 -0.000616146 0)
(0 -0.000345051 0)
(0 -0.000135506 0)
(0 -8.27915e-05 0)
(0 -0.000732196 0)
(0 -0.000129128 0)
(0 -0.000469662 0)
(0 -0.0012222 0)
(0 -0.000941481 0)
(0 -0.00113001 0)
(0 7.91966e-06 0)
(0 -6.82717e-05 0)
(0 -0.000697051 0)
(0 -0.000344971 0)
(0 -0.00060853 0)
(0 -0.00086983 0)
(0 -0.000650402 0)
(0 -0.000349176 0)
(0 -0.00123634 0)
(0 -0.000353391 0)
(0 -0.000125729 0)
(0 -0.000878126 0)
(0 -1.93818e-05 0)
(0 -0.000406468 0)
(0 -7.47258e-05 0)
(0 -0.000146305 0)
(0 -7.97307e-06 0)
(0 -0.000613319 0)
(0 -0.00010559 0)
(0 -6.7947e-05 0)
(0 -0.00131148 0)
(0 -0.000123079 0)
(0 -0.000190659 0)
(0 -0.000377956 0)
(0 -5.93737e-05 0)
(0 -0.000575754 0)
(0 -0.000903341 0)
(0 -0.000310768 0)
(0 -9.56679e-05 0)
(0 -0.0011397 0)
(0 -0.00128965 0)
(0 -0.000190535 0)
(0 -0.000203388 0)
(0 -0.000484968 0)
(0 -0.000243637 0)
(0 -1.1392e-05 0)
(0 -0.000117326 0)
(0 -0.000232279 0)
(0 -3.56821e-05 0)
(0 5.16118e-06 0)
(0 -0.000605387 0)
(0 -0.000602048 0)
(0 -0.000381371 0)
(0 -0.000255145 0)
(0 -7.16807e-05 0)
(0 -0.0011985 0)
(0 -6.41023e-05 0)
(0 -3.52468e-05 0)
(0 -0.000675971 0)
(0 -0.00036177 0)
(0 -0.00105565 0)
(0 -0.000922038 0)
(0 8.0779e-06 0)
(0 -0.00120234 0)
(0 -0.000409212 0)
(0 -0.0003739 0)
(0 -8.03542e-05 0)
(0 -0.000619677 0)
(0 -0.000734451 0)
(0 -0.00109583 0)
(0 -1.02485e-05 0)
(0 -0.000321322 0)
(0 -0.000889356 0)
(0 -0.000679748 0)
(0 -0.000495741 0)
(0 -0.000647193 0)
(0 -0.00044139 0)
(0 -0.000726864 0)
(0 -0.000490002 0)
(0 -0.0012149 0)
(0 -0.000537892 0)
(0 -4.45346e-05 0)
(0 -2.41288e-05 0)
(0 -0.000676969 0)
(0 -0.00118679 0)
(0 -0.00116037 0)
(0 -0.000220074 0)
(0 -5.70792e-05 0)
(0 -0.00109311 0)
(0 -5.08792e-05 0)
(0 -0.000161689 0)
(0 -0.000416212 0)
(0 -0.00118487 0)
(0 -6.36523e-05 0)
(0 -0.000616487 0)
(0 -0.00110986 0)
(0 -0.000454948 0)
(0 -0.000936261 0)
(0 -0.00015951 0)
(0 -0.000620247 0)
(0 -0.000765733 0)
(0 -6.33711e-05 0)
(0 -0.000104225 0)
(0 -0.000819272 0)
(0 -0.000181214 0)
(0 -0.000489772 0)
(0 -0.000115665 0)
(0 -0.000170354 0)
(0 -0.000375075 0)
(0 -0.000205862 0)
(0 -0.00100711 0)
(0 -0.00124586 0)
(0 -0.000812744 0)
(0 -8.4957e-06 0)
(0 -0.0004471 0)
(0 -0.000830468 0)
(0 -0.000384546 0)
(0 -0.000839764 0)
(0 -0.000624075 0)
(0 -0.000374476 0)
(0 -0.000966199 0)
(0 -9.68888e-05 0)
(0 -0.00100631 0)
(0 -2.32046e-05 0)
(0 -0.0004527 0)
(0 -0.000171832 0)
(0 -0.000824047 0)
(0 -0.000458056 0)
(0 -0.00118988 0)
(0 -0.00113759 0)
(0 -0.000409759 0)
(0 -0.00046151 0)
(0 -0.000450967 0)
(0 -9.04582e-05 0)
(0 -0.000640411 0)
(0 -0.00101377 0)
(0 -0.00123844 0)
(0 -0.00115073 0)
(0 -0.000849361 0)
(0 -0.000811887 0)
(0 -7.33649e-05 0)
(0 -5.94355e-05 0)
(0 -8.53222e-05 0)
(0 -0.000590683 0)
(0 -0.000444659 0)
(0 -0.000661489 0)
(0 -0.00120038 0)
(0 -0.00123238 0)
(0 -0.000747021 0)
(0 -0.000173699 0)
(0 -0.00117304 0)
(0 -0.000744702 0)
(0 -0.000530656 0)
(0 -0.000145358 0)
(0 -0.00013096 0)
(0 -0.000757997 0)
(0 -0.000511056 0)
(0 -0.000247154 0)
(0 -0.000381842 0)
(0 -0.000567119 0)
(0 -0.0002022 0)
(0 -0.000555339 0)
(0 -0.000818995 0)
(0 -0.00056645 0)
(0 -0.000224972 0)
(0 -2.43227e-05 0)
(0 -0.000153637 0)
(0 -9.37525e-05 0)
(0 -0.000186567 0)
(0 -7.5349e-06 0)
(0 -0.000103093 0)
(0 -0.00039424 0)
(0 -0.000846099 0)
(0 -0.000773737 0)
(0 -0.000500185 0)
(0 -0.000324224 0)
(0 -0.001307 0)
(0 -0.000898818 0)
(0 -0.00124733 0)
(0 -0.000158622 0)
(0 -0.00126939 0)
(0 -5.45222e-05 0)
(0 -0.001162 0)
(0 -6.89976e-05 0)
(0 -0.000777585 0)
(0 -0.000834764 0)
(0 -0.00042874 0)
(0 -0.000658475 0)
(0 -0.000176989 0)
(0 -0.000122507 0)
(0 -9.51277e-05 0)
(0 -2.57532e-05 0)
(0 -0.000348385 0)
(0 -0.000241354 0)
(0 -0.000541606 0)
(0 -3.67454e-05 0)
(0 -0.000696403 0)
(0 -0.00120816 0)
(0 -0.000658007 0)
(0 -0.000452461 0)
(0 -0.00106409 0)
(0 -8.96557e-05 0)
(0 -0.000834459 0)
(0 -0.000603951 0)
(0 -0.000172444 0)
(0 -0.000513169 0)
(0 -5.35137e-05 0)
(0 -2.49313e-05 0)
(0 -0.0006446 0)
(0 -2.27451e-05 0)
(0 -0.00106602 0)
(0 -1.18805e-05 0)
(0 -0.00069585 0)
(0 -0.000549938 0)
(0 -0.00127264 0)
(0 -0.000220069 0)
(0 -0.000510997 0)
(0 -0.000460745 0)
(0 -4.84953e-05 0)
(0 -0.000516512 0)
(0 -0.00063121 0)
(0 -0.000289972 0)
(0 -0.000397495 0)
(0 -0.000632753 0)
(0 -0.000214773 0)
(0 -0.000405423 0)
(0 -0.000752569 0)
(0 -0.000398457 0)
(0 -3.99648e-05 0)
(0 -0.00018428 0)
(0 -0.000643213 0)
(0 -0.000158869 0)
(0 -0.000233945 0)
(0 -9.87441e-05 0)
(0 -7.32906e-05 0)
(0 -0.000618815 0)
(0 -0.000535396 0)
(0 -0.00118265 0)
(0 -0.00112706 0)
(0 -0.000774438 0)
(0 -0.000381395 0)
(0 -0.000348558 0)
(0 -3.14025e-05 0)
(0 -0.000528178 0)
(0 -0.000184548 0)
(0 -0.000351353 0)
(0 -0.000249358 0)
(0 -0.000650841 0)
(0 -9.08756e-06 0)
(0 -0.000296504 0)
(0 -0.0010551 0)
(0 -0.0012546 0)
(0 -0.000598929 0)
(0 -0.00120522 0)
(0 -0.000499228 0)
(0 -0.000246377 0)
(0 -7.93262e-05 0)
(0 1.47192e-06 0)
(0 -1.84715e-05 0)
(0 -0.000118293 0)
(0 -2.36513e-05 0)
(0 -0.000661174 0)
(0 -0.000725238 0)
(0 -0.00044241 0)
(0 -0.00115444 0)
(0 -0.000292008 0)
(0 -0.000400856 0)
(0 -0.000499554 0)
(0 -0.000382974 0)
(0 -0.000974697 0)
(0 -2.42363e-05 0)
(0 -0.00067132 0)
(0 -0.00030184 0)
(0 -0.000756542 0)
(0 -0.000402899 0)
(0 -3.08661e-05 0)
(0 -6.97467e-06 0)
(0 -2.66871e-05 0)
(0 -0.000423014 0)
(0 -0.00113935 0)
(0 -0.000362111 0)
(0 -0.000863652 0)
(0 -1.54266e-05 0)
(0 -0.000173179 0)
(0 -3.99117e-05 0)
(0 -0.000445013 0)
(0 -0.000334314 0)
(0 -2.92364e-05 0)
(0 -0.000295716 0)
(0 -0.000353041 0)
(0 -6.44286e-05 0)
(0 -0.000864583 0)
(0 -7.38646e-05 0)
(0 -0.000517136 0)
(0 -7.43209e-05 0)
(0 -0.000257289 0)
(0 -0.000378293 0)
(0 -0.00119178 0)
(0 -0.000592969 0)
(0 -0.000355765 0)
(0 -0.000205041 0)
(0 -0.00091881 0)
(0 1.53992e-06 0)
(0 -3.13542e-05 0)
(0 -0.000255747 0)
(0 -0.000180169 0)
(0 -0.000474645 0)
(0 -0.000315507 0)
(0 -7.65004e-05 0)
(0 -9.95424e-06 0)
(0 -0.00084424 0)
(0 -0.000227259 0)
(0 -0.00104336 0)
(0 -5.96432e-06 0)
(0 -0.00130333 0)
(0 -0.000212825 0)
(0 -0.000165525 0)
(0 -9.05319e-05 0)
(0 -8.77615e-06 0)
(0 -0.000707929 0)
(0 -0.00112197 0)
(0 -0.000594905 0)
(0 -0.00130261 0)
(0 -0.000413126 0)
(0 -0.000100754 0)
(0 -0.00115759 0)
(0 -0.000301876 0)
(0 -3.31376e-05 0)
(0 -0.000256895 0)
(0 -0.000600212 0)
(0 -0.000732796 0)
(0 -0.00123381 0)
(0 -0.00110118 0)
(0 -0.000307974 0)
(0 -0.000349606 0)
(0 -0.000399652 0)
(0 -2.38395e-05 0)
(0 -0.000581648 0)
(0 -0.000750908 0)
(0 -0.000186478 0)
(0 -0.000453475 0)
(0 -0.000311214 0)
(0 -0.000402082 0)
(0 -0.000123883 0)
(0 -0.000677625 0)
(0 -0.00116624 0)
(0 -0.000799716 0)
(0 -0.000614469 0)
(0 -0.000592521 0)
(0 -6.28711e-05 0)
(0 -0.000599943 0)
(0 -0.00114942 0)
(0 -6.3696e-05 0)
(0 -0.000357483 0)
(0 -0.000439979 0)
(0 -0.000359295 0)
(0 -0.00089244 0)
(0 -0.000518596 0)
(0 -0.000927834 0)
(0 -0.00058664 0)
(0 -0.00125979 0)
(0 -0.00123377 0)
(0 -0.000914586 0)
(0 -3.09117e-05 0)
(0 -0.000110091 0)
(0 -6.91465e-05 0)
(0 -0.000257284 0)
(0 -0.000288023 0)
(0 -0.00125877 0)
(0 -0.00108844 0)
(0 -0.000394671 0)
(0 -0.000408021 0)
(0 -0.000432472 0)
(0 -0.000203707 0)
(0 -0.0006468 0)
(0 -0.000654868 0)
(0 -9.24409e-05 0)
(0 -0.000391851 0)
(0 -1.40403e-05 0)
(0 -0.000336254 0)
(0 -0.000347898 0)
(0 -0.000386788 0)
(0 -3.26751e-05 0)
(0 -0.000170387 0)
(0 -6.50237e-06 0)
(0 -0.00105996 0)
(0 -0.000221017 0)
(0 -0.00047145 0)
(0 -0.000547495 0)
(0 -0.00120507 0)
(0 -0.000306343 0)
(0 -0.000254574 0)
(0 -0.000100534 0)
(0 -0.000617414 0)
(0 -7.71959e-05 0)
(0 -8.54402e-05 0)
(0 -0.000783784 0)
(0 -0.000194713 0)
(0 -0.000741049 0)
(0 -0.00106914 0)
(0 -0.000418387 0)
(0 -0.000575413 0)
(0 -4.87114e-05 0)
(0 -0.000381495 0)
(0 -0.000487886 0)
(0 -0.00105273 0)
(0 -0.00055305 0)
(0 -0.000266035 0)
(0 -1.3589e-05 0)
(0 -0.000936441 0)
(0 -0.00121411 0)
(0 -0.00039432 0)
(0 -0.000346834 0)
(0 -0.000987998 0)
(0 -0.00111593 0)
(0 -0.000238369 0)
(0 -0.000665043 0)
(0 -0.000350455 0)
(0 -0.000558624 0)
(0 -0.00126321 0)
(0 -1.4213e-05 0)
(0 -0.0007079 0)
(0 -0.000217888 0)
(0 -0.000102515 0)
(0 -0.000135192 0)
(0 -2.73396e-05 0)
(0 -0.000355748 0)
(0 -0.00108259 0)
(0 -0.000898993 0)
(0 -0.00064963 0)
(0 -0.000585456 0)
(0 -0.000250662 0)
(0 -0.000369922 0)
(0 -0.000271057 0)
(0 -0.00111862 0)
(0 -0.000730221 0)
(0 -0.000126339 0)
(0 -0.000349076 0)
(0 -0.000932974 0)
(0 -0.00074072 0)
(0 -0.000371874 0)
(0 -0.000215055 0)
(0 -3.51469e-05 0)
(0 -0.000560367 0)
(0 -0.000801173 0)
(0 -0.000985327 0)
(0 -7.57874e-05 0)
(0 -0.000956654 0)
(0 -0.000265935 0)
(0 -0.000130064 0)
(0 -0.000859102 0)
(0 -0.000397024 0)
(0 -0.000527575 0)
(0 -0.000243463 0)
(0 -0.000717775 0)
(0 -0.000507301 0)
(0 -1.71533e-05 0)
(0 -0.000407235 0)
(0 -0.000513605 0)
(0 -0.00123994 0)
(0 -0.000100057 0)
(0 -0.00041694 0)
(0 -0.000914919 0)
(0 -0.000893808 0)
(0 -0.000174533 0)
(0 2.52922e-06 0)
(0 -5.72952e-05 0)
(0 -0.000384356 0)
(0 -0.000113668 0)
(0 -0.000185403 0)
(0 -0.000252845 0)
(0 -0.00130729 0)
(0 -0.000534605 0)
(0 -0.000196304 0)
(0 -0.000150601 0)
(0 -3.62017e-05 0)
(0 -0.00061504 0)
(0 -0.000408118 0)
(0 -0.000597743 0)
(0 -0.0011078 0)
(0 -0.000409718 0)
(0 -0.000541707 0)
(0 -0.000264245 0)
(0 -0.000582619 0)
(0 -0.00102761 0)
(0 -0.000510458 0)
(0 -9.46574e-06 0)
(0 -3.64996e-05 0)
(0 -0.000543478 0)
(0 -0.000821982 0)
(0 -0.000360799 0)
(0 -0.000274172 0)
(0 -0.000434175 0)
(0 -0.000852568 0)
(0 -0.000723078 0)
(0 -0.000471856 0)
(0 -0.000745807 0)
(0 -0.000619125 0)
(0 -0.000316683 0)
(0 -0.000940908 0)
(0 -7.14973e-05 0)
(0 -0.000580594 0)
(0 -0.00104021 0)
(0 -0.000167059 0)
(0 -0.000612068 0)
(0 -0.000909087 0)
(0 -8.13058e-05 0)
(0 -0.000951832 0)
(0 -0.000126961 0)
(0 -0.000139793 0)
(0 -0.000924812 0)
(0 -0.000934612 0)
(0 -0.000548441 0)
(0 -3.77511e-05 0)
(0 -3.81835e-05 0)
(0 -0.000470075 0)
(0 -0.00113958 0)
(0 -5.59575e-05 0)
(0 -0.000797574 0)
(0 -6.19964e-05 0)
(0 -0.000548039 0)
(0 -0.000628963 0)
(0 -0.00113299 0)
(0 -0.000798791 0)
(0 -0.000369389 0)
(0 -0.000129129 0)
(0 -0.000365453 0)
(0 -2.99903e-05 0)
(0 -0.000628531 0)
(0 -0.000838613 0)
(0 -0.000589679 0)
(0 -1.25091e-05 0)
(0 -0.000117117 0)
(0 -0.000142988 0)
(0 -0.00123683 0)
(0 -0.00103788 0)
(0 -0.00130183 0)
(0 -0.00126846 0)
(0 -0.00112068 0)
(0 -0.000713445 0)
(0 -0.000255472 0)
(0 -0.000173281 0)
(0 -0.000440346 0)
(0 -0.000436229 0)
(0 -0.000160814 0)
(0 -0.0012851 0)
(0 -0.000337821 0)
(0 -0.00110976 0)
(0 -4.03115e-05 0)
(0 -0.000863856 0)
(0 -0.000950082 0)
(0 -0.000253794 0)
(0 -0.00011356 0)
(0 -2.92014e-05 0)
(0 -0.00123572 0)
(0 -3.11876e-05 0)
(0 -0.000877879 0)
(0 -0.00104465 0)
(0 -0.00037383 0)
(0 -0.000382933 0)
(0 -0.000515123 0)
(0 -5.29175e-06 0)
(0 -0.000102614 0)
(0 -0.000526039 0)
(0 -0.00108528 0)
(0 -5.47224e-05 0)
(0 -0.000470405 0)
(0 -0.000256775 0)
(0 -0.000537655 0)
(0 -0.00111236 0)
(0 -5.85646e-05 0)
(0 -0.000307005 0)
(0 -0.000196312 0)
(0 -0.00117215 0)
(0 -0.000408049 0)
(0 -0.000794522 0)
(0 -0.00023519 0)
(0 -0.000181314 0)
(0 -0.000286649 0)
(0 -0.000581242 0)
(0 -0.000939438 0)
(0 -3.47995e-05 0)
(0 -0.00110906 0)
(0 -0.00102165 0)
(0 -0.00025012 0)
(0 -0.000228741 0)
(0 -0.000809005 0)
(0 -0.000178154 0)
(0 -3.67983e-05 0)
(0 -0.000423278 0)
(0 -0.000372566 0)
(0 -0.000364948 0)
(0 2.75501e-06 0)
(0 -0.000208407 0)
(0 -8.47636e-06 0)
(0 -0.00117225 0)
(0 -6.06729e-05 0)
(0 -0.00115162 0)
(0 -7.41352e-05 0)
(0 -0.00130536 0)
(0 -0.00074952 0)
(0 -0.000176406 0)
(0 -0.000686364 0)
(0 -0.000248002 0)
(0 -0.000453948 0)
(0 -0.00128515 0)
(0 -0.000816159 0)
(0 -0.000443378 0)
(0 -0.000945741 0)
(0 -0.00059928 0)
(0 -0.000337054 0)
(0 -0.000105288 0)
(0 -0.00045645 0)
(0 -0.000526711 0)
(0 -0.000283498 0)
(0 -0.000700601 0)
(0 -0.000193859 0)
(0 -0.000352308 0)
(0 -0.000143236 0)
(0 -0.00130416 0)
(0 -0.000110242 0)
(0 -0.00111216 0)
(0 -0.000194314 0)
(0 -0.000185572 0)
(0 -0.000243539 0)
(0 -5.38511e-05 0)
(0 -0.000650509 0)
(0 -0.000490045 0)
(0 -0.000896135 0)
(0 -0.00106937 0)
(0 -0.000690688 0)
(0 -5.37343e-05 0)
(0 -0.000532975 0)
(0 -0.00103288 0)
(0 -0.000482627 0)
(0 -5.78555e-05 0)
(0 -0.000216625 0)
(0 -0.000351559 0)
(0 -0.000161776 0)
(0 -0.00102791 0)
(0 -0.000898402 0)
(0 -0.000663483 0)
(0 -0.000233661 0)
(0 -0.000767337 0)
(0 8.32306e-06 0)
(0 -0.000403839 0)
(0 -3.85319e-05 0)
(0 -0.00119081 0)
(0 -0.00096632 0)
(0 -5.03039e-05 0)
(0 -0.000902183 0)
(0 -0.000132385 0)
(0 -0.000333257 0)
(0 -0.00109323 0)
(0 -1.26804e-05 0)
(0 -0.000259361 0)
(0 -0.000192832 0)
(0 -0.00118729 0)
(0 -0.000384821 0)
(0 -0.00124514 0)
(0 -4.70405e-05 0)
(0 -0.000965625 0)
(0 -0.000438267 0)
(0 -0.000301009 0)
(0 -0.000478393 0)
(0 -9.51232e-05 0)
(0 -0.000115065 0)
(0 -0.000234759 0)
(0 -0.000537256 0)
(0 -0.000245222 0)
(0 -0.000876166 0)
(0 -0.000138267 0)
(0 -0.000887793 0)
(0 -0.000893597 0)
(0 -0.000203809 0)
(0 -6.86446e-05 0)
(0 -0.0008968 0)
(0 -0.000341027 0)
(0 -0.00069331 0)
(0 -9.03744e-06 0)
(0 -0.000948387 0)
(0 -0.000814399 0)
(0 -0.00100885 0)
(0 -0.000235762 0)
(0 -0.000136072 0)
(0 -0.000132384 0)
(0 -0.00109796 0)
(0 -0.000307189 0)
(0 -0.00044674 0)
(0 -0.000578882 0)
(0 -0.000359853 0)
(0 -0.000320238 0)
(0 -0.000100163 0)
(0 -0.000216207 0)
(0 -0.000409875 0)
(0 -0.000922592 0)
(0 -0.00028969 0)
(0 -0.000285425 0)
(0 -0.000396237 0)
(0 -0.000232867 0)
(0 -0.0012319 0)
(0 -0.00112253 0)
(0 -0.00123063 0)
(0 -0.000428026 0)
(0 -0.000379567 0)
(0 -0.000191084 0)
(0 -0.000204147 0)
(0 -0.000103967 0)
(0 -0.000603238 0)
(0 -0.000841744 0)
(0 -0.000337744 0)
(0 -0.00129417 0)
(0 -0.00101574 0)
(0 -0.000214584 0)
(0 -0.000197228 0)
(0 -0.000311508 0)
(0 -0.000446903 0)
(0 -6.63633e-05 0)
(0 -0.000201331 0)
(0 -0.000523504 0)
(0 -9.08975e-05 0)
(0 -0.000871715 0)
(0 -0.000175917 0)
(0 -0.000171823 0)
(0 -0.00074439 0)
(0 -6.50781e-05 0)
(0 -0.000182158 0)
(0 -0.0008353 0)
(0 -0.000838346 0)
(0 -0.00109494 0)
(0 -2.68715e-05 0)
(0 -0.00122675 0)
(0 -0.00083042 0)
(0 -0.000833911 0)
(0 -2.29858e-05 0)
(0 -3.95071e-05 0)
(0 -0.000368324 0)
(0 -8.7306e-05 0)
(0 -5.07196e-05 0)
(0 -0.000201697 0)
(0 -0.000821123 0)
(0 -0.0005778 0)
(0 -0.000482265 0)
(0 -7.18305e-05 0)
(0 -0.000607322 0)
(0 8.99625e-06 0)
(0 -0.000620121 0)
(0 -0.00126552 0)
(0 -0.000197944 0)
(0 -0.00102732 0)
(0 -6.24647e-05 0)
(0 -8.6763e-05 0)
(0 -0.000233086 0)
(0 -0.000361017 0)
(0 -0.000261503 0)
(0 -0.000564277 0)
(0 -0.000713967 0)
(0 -0.000823636 0)
(0 -0.00037031 0)
(0 -0.000971692 0)
(0 -0.000290201 0)
(0 -0.000437456 0)
(0 -0.000278823 0)