/*--------------------------------*- C++ -*----------------------------------*\
| =========                 |                                                 |
| \\      /  F ield         | OpenFOAM: The Open Source CFD Toolbox           |
|  \\    /   O peration     | Version:  v2012                                 |
|   \\  /    A nd           | Website:  www.openfoam.com                      |
|    \\/     M anipulation  |                                                 |
\*---------------------------------------------------------------------------*/
FoamFile
{
    version     2.0;
    format      ascii;
    class       pointVectorField;
    location    "350";
    object      pointDisplacement;
}
// * * * * * * * * * * * * * * * * * * * * * * * * * * * * * * * * * * * * * //

dimensions      [0 1 0 0 0 0 0];


internalField   nonuniform List<vector> 
18874
(
(0 0 0)
(0 1.79507e-06 0)
(0 1.79507e-06 0)
(0 0 0)
(0 1.79507e-06 0)
(0 1.79507e-06 0)
(0 0 0)
(0 0 0)
(0 0 0)
(0 0 0)
(0 0 0)
(0 0 0)
(0 0 0)
(0 0 0)
(0 0 0)
(0 0 0)
(0 0 0)
(0 0 0)
(0 0 0)
(0 0 0)
(0 0 0)
(0 0 0)
(0 0 0)
(0 0 0)
(0 0 0)
(0 0 0)
(0 0 0)
(0 0 0)
(0 0 0)
(0 0 0)
(0 0 0)
(0 0 0)
(0 0 0)
(0 0 0)
(0 0 0)
(0 0 0)
(0 0 0)
(0 0 0)
(0 0 0)
(0 0 0)
(0 0 0)
(0 0 0)
(0 0 0)
(0 0 0)
(0 0 0)
(0 0 0)
(0 0 0)
(0 0 0)
(0 0 0)
(0 0 0)
(0 0 0)
(0 0 0)
(0 0 0)
(0 0 0)
(0 0 0)
(0 0 0)
(0 0 0)
(0 0 0)
(0 0 0)
(0 0 0)
(0 0 0)
(0 0 0)
(0 0 0)
(0 0 0)
(0 0 0)
(0 0 0)
(0 0 0)
(0 0 0)
(0 0 0)
(0 0 0)
(0 0 0)
(0 0 0)
(0 0 0)
(0 0 0)
(0 0 0)
(0 0 0)
(0 0 0)
(0 0 0)
(0 0 0)
(0 0 0)
(0 0 0)
(0 0 0)
(0 0 0)
(0 0 0)
(0 0 0)
(0 0 0)
(0 0 0)
(0 0 0)
(0 0 0)
(0 0 0)
(0 0 0)
(0 0 0)
(0 0 0)
(0 0 0)
(0 0 0)
(0 0 0)
(0 0 0)
(0 1.79507e-06 0)
(0 1.79507e-06 0)
(0 1.79507e-06 0)
(0 1.79507e-06 0)
(0 1.79507e-06 0)
(0 1.79507e-06 0)
(0 1.79507e-06 0)
(0 1.79507e-06 0)
(0 1.79507e-06 0)
(0 1.79507e-06 0)
(0 1.79507e-06 0)
(0 1.79507e-06 0)
(0 1.79507e-06 0)
(0 1.79507e-06 0)
(0 1.79507e-06 0)
(0 1.79507e-06 0)
(0 1.79507e-06 0)
(0 1.79507e-06 0)
(0 1.79507e-06 0)
(0 1.79507e-06 0)
(0 1.79507e-06 0)
(0 1.79507e-06 0)
(0 1.79507e-06 0)
(0 1.79507e-06 0)
(0 1.79507e-06 0)
(0 1.79507e-06 0)
(0 1.79507e-06 0)
(0 1.79507e-06 0)
(0 1.79507e-06 0)
(0 1.79507e-06 0)
(0 1.79507e-06 0)
(0 1.79507e-06 0)
(0 1.79507e-06 0)
(0 1.79507e-06 0)
(0 1.79507e-06 0)
(0 1.79507e-06 0)
(0 1.79507e-06 0)
(0 1.79507e-06 0)
(0 1.79507e-06 0)
(0 1.79507e-06 0)
(0 1.79507e-06 0)
(0 1.79507e-06 0)
(0 1.79507e-06 0)
(0 1.79507e-06 0)
(0 1.79507e-06 0)
(0 1.79507e-06 0)
(0 1.79507e-06 0)
(0 1.79507e-06 0)
(0 1.79507e-06 0)
(0 1.79507e-06 0)
(0 1.79507e-06 0)
(0 1.79507e-06 0)
(0 1.79507e-06 0)
(0 1.79507e-06 0)
(0 1.79507e-06 0)
(0 1.79507e-06 0)
(0 1.79507e-06 0)
(0 1.79507e-06 0)
(0 1.79507e-06 0)
(0 1.79507e-06 0)
(0 1.79507e-06 0)
(0 1.79507e-06 0)
(0 1.79507e-06 0)
(0 1.79507e-06 0)
(0 1.79507e-06 0)
(0 1.79507e-06 0)
(0 1.79507e-06 0)
(0 1.79507e-06 0)
(0 1.79507e-06 0)
(0 1.79507e-06 0)
(0 1.79507e-06 0)
(0 1.79507e-06 0)
(0 1.79507e-06 0)
(0 1.79507e-06 0)
(0 1.79507e-06 0)
(0 1.79507e-06 0)
(0 1.79507e-06 0)
(0 1.79507e-06 0)
(0 1.79507e-06 0)
(0 1.79507e-06 0)
(0 1.79507e-06 0)
(0 1.79507e-06 0)
(0 1.79507e-06 0)
(0 1.79507e-06 0)
(0 1.79507e-06 0)
(0 1.79507e-06 0)
(0 1.79507e-06 0)
(0 1.79507e-06 0)
(0 1.79507e-06 0)
(0 1.79507e-06 0)
(0 1.79507e-06 0)
(0 1.79507e-06 0)
(0 1.79507e-06 0)
(0 1.79507e-06 0)
(0 1.79507e-06 0)
(0 1.79507e-06 0)
(0 1.79507e-06 0)
(0 1.79507e-06 0)
(0 1.79507e-06 0)
(0 1.79507e-06 0)
(0 1.79507e-06 0)
(0 1.79507e-06 0)
(0 1.79507e-06 0)
(0 1.79507e-06 0)
(0 1.79507e-06 0)
(0 1.79507e-06 0)
(0 1.79507e-06 0)
(0 1.79507e-06 0)
(0 1.79507e-06 0)
(0 1.79507e-06 0)
(0 1.79507e-06 0)
(0 1.79507e-06 0)
(0 1.79507e-06 0)
(0 1.79507e-06 0)
(0 1.79507e-06 0)
(0 1.79507e-06 0)
(0 1.79507e-06 0)
(0 1.79507e-06 0)
(0 1.79507e-06 0)
(0 1.79507e-06 0)
(0 1.79507e-06 0)
(0 1.79507e-06 0)
(0 1.79507e-06 0)
(0 1.79507e-06 0)
(0 1.79507e-06 0)
(0 1.79507e-06 0)
(0 1.79507e-06 0)
(0 1.79507e-06 0)
(0 1.79507e-06 0)
(0 1.79507e-06 0)
(0 1.79507e-06 0)
(0 1.79507e-06 0)
(0 1.79507e-06 0)
(0 1.79507e-06 0)
(0 1.79507e-06 0)
(0 1.79507e-06 0)
(0 1.79507e-06 0)
(0 1.79507e-06 0)
(0 1.79507e-06 0)
(0 1.79507e-06 0)
(0 1.79507e-06 0)
(0 1.79507e-06 0)
(0 1.79507e-06 0)
(0 1.79507e-06 0)
(0 1.79507e-06 0)
(0 1.79507e-06 0)
(0 1.79507e-06 0)
(0 1.79507e-06 0)
(0 1.79507e-06 0)
(0 1.79507e-06 0)
(0 1.79507e-06 0)
(0 1.79507e-06 0)
(0 1.79507e-06 0)
(0 1.79507e-06 0)
(0 1.79507e-06 0)
(0 1.79507e-06 0)
(0 1.79507e-06 0)
(0 1.79507e-06 0)
(0 1.79507e-06 0)
(0 1.79507e-06 0)
(0 1.79507e-06 0)
(0 1.79507e-06 0)
(0 1.79507e-06 0)
(0 1.79507e-06 0)
(0 1.79507e-06 0)
(0 1.79507e-06 0)
(0 1.79507e-06 0)
(0 1.79507e-06 0)
(0 1.79507e-06 0)
(0 1.79507e-06 0)
(0 0 0)
(0 0 0)
(0 0 0)
(0 0 0)
(0 0 0)
(0 0 0)
(0 0 0)
(0 0 0)
(0 0 0)
(0 0 0)
(0 0 0)
(0 0 0)
(0 0 0)
(0 0 0)
(0 0 0)
(0 0 0)
(0 0 0)
(0 0 0)
(0 0 0)
(0 0 0)
(0 0 0)
(0 0 0)
(0 0 0)
(0 0 0)
(0 0 0)
(0 0 0)
(0 0 0)
(0 0 0)
(0 0 0)
(0 0 0)
(0 0 0)
(0 0 0)
(0 0 0)
(0 0 0)
(0 0 0)
(0 0 0)
(0 0 0)
(0 0 0)
(0 0 0)
(0 0 0)
(0 0 0)
(0 0 0)
(0 0 0)
(0 0 0)
(0 0 0)
(0 0 0)
(0 0 0)
(0 0 0)
(0 0 0)
(0 0 0)
(0 0 0)
(0 0 0)
(0 0 0)
(0 0 0)
(0 0 0)
(0 0 0)
(0 0 0)
(0 0 0)
(0 0 0)
(0 0 0)
(0 0 0)
(0 0 0)
(0 0 0)
(0 0 0)
(0 0 0)
(0 0 0)
(0 0 0)
(0 0 0)
(0 0 0)
(0 0 0)
(0 0 0)
(0 0 0)
(0 0 0)
(0 0 0)
(0 0 0)
(0 0 0)
(0 0 0)
(0 0 0)
(0 0 0)
(0 0 0)
(0 0 0)
(0 0 0)
(0 0 0)
(0 0 0)
(0 0 0)
(0 0 0)
(0 0 0)
(0 0 0)
(0 0 0)
(0 0 0)
(0 0 0)
(0 1.79507e-06 0)
(0 1.79507e-06 0)
(0 1.79507e-06 0)
(0 1.79507e-06 0)
(0 1.79507e-06 0)
(0 1.79507e-06 0)
(0 1.79507e-06 0)
(0 1.79507e-06 0)
(0 1.79507e-06 0)
(0 1.79507e-06 0)
(0 1.79507e-06 0)
(0 1.79507e-06 0)
(0 1.79507e-06 0)
(0 1.79507e-06 0)
(0 1.79507e-06 0)
(0 1.79507e-06 0)
(0 1.79507e-06 0)
(0 1.79507e-06 0)
(0 1.79507e-06 0)
(0 1.79507e-06 0)
(0 1.79507e-06 0)
(0 1.79507e-06 0)
(0 1.79507e-06 0)
(0 1.79507e-06 0)
(0 1.79507e-06 0)
(0 1.79507e-06 0)
(0 1.79507e-06 0)
(0 1.79507e-06 0)
(0 1.79507e-06 0)
(0 1.79507e-06 0)
(0 1.79507e-06 0)
(0 1.79507e-06 0)
(0 1.79507e-06 0)
(0 1.79507e-06 0)
(0 1.79507e-06 0)
(0 1.79507e-06 0)
(0 1.79507e-06 0)
(0 1.79507e-06 0)
(0 1.79507e-06 0)
(0 1.79507e-06 0)
(0 1.79507e-06 0)
(0 1.79507e-06 0)
(0 1.79507e-06 0)
(0 1.79507e-06 0)
(0 1.79507e-06 0)
(0 1.79507e-06 0)
(0 1.79507e-06 0)
(0 1.79507e-06 0)
(0 1.79507e-06 0)
(0 1.79507e-06 0)
(0 1.79507e-06 0)
(0 1.79507e-06 0)
(0 1.79507e-06 0)
(0 1.79507e-06 0)
(0 1.79507e-06 0)
(0 1.79507e-06 0)
(0 1.79507e-06 0)
(0 1.79507e-06 0)
(0 1.79507e-06 0)
(0 1.79507e-06 0)
(0 1.79507e-06 0)
(0 1.79507e-06 0)
(0 1.79507e-06 0)
(0 1.79507e-06 0)
(0 1.79507e-06 0)
(0 1.79507e-06 0)
(0 1.79507e-06 0)
(0 1.79507e-06 0)
(0 1.79507e-06 0)
(0 1.79507e-06 0)
(0 1.79507e-06 0)
(0 1.79507e-06 0)
(0 1.79507e-06 0)
(0 1.79507e-06 0)
(0 1.79507e-06 0)
(0 1.79507e-06 0)
(0 1.79507e-06 0)
(0 1.79507e-06 0)
(0 1.79507e-06 0)
(0 1.79507e-06 0)
(0 1.79507e-06 0)
(0 1.79507e-06 0)
(0 1.79507e-06 0)
(0 1.79507e-06 0)
(0 1.79507e-06 0)
(0 1.79507e-06 0)
(0 1.79507e-06 0)
(0 1.79507e-06 0)
(0 1.79507e-06 0)
(0 1.79507e-06 0)
(0 1.79507e-06 0)
(0 1.79507e-06 0)
(0 1.79507e-06 0)
(0 1.79507e-06 0)
(0 1.79507e-06 0)
(0 1.79507e-06 0)
(0 1.79507e-06 0)
(0 1.79507e-06 0)
(0 1.79507e-06 0)
(0 1.79507e-06 0)
(0 1.79507e-06 0)
(0 1.79507e-06 0)
(0 1.79507e-06 0)
(0 1.79507e-06 0)
(0 1.79507e-06 0)
(0 1.79507e-06 0)
(0 1.79507e-06 0)
(0 1.79507e-06 0)
(0 1.79507e-06 0)
(0 1.79507e-06 0)
(0 1.79507e-06 0)
(0 1.79507e-06 0)
(0 1.79507e-06 0)
(0 1.79507e-06 0)
(0 1.79507e-06 0)
(0 1.79507e-06 0)
(0 1.79507e-06 0)
(0 1.79507e-06 0)
(0 1.79507e-06 0)
(0 1.79507e-06 0)
(0 1.79507e-06 0)
(0 1.79507e-06 0)
(0 1.79507e-06 0)
(0 1.79507e-06 0)
(0 1.79507e-06 0)
(0 1.79507e-06 0)
(0 1.79507e-06 0)
(0 1.79507e-06 0)
(0 1.79507e-06 0)
(0 1.79507e-06 0)
(0 1.79507e-06 0)
(0 1.79507e-06 0)
(0 1.79507e-06 0)
(0 1.79507e-06 0)
(0 1.79507e-06 0)
(0 1.79507e-06 0)
(0 1.79507e-06 0)
(0 1.79507e-06 0)
(0 1.79507e-06 0)
(0 1.79507e-06 0)
(0 1.79507e-06 0)
(0 1.79507e-06 0)
(0 1.79507e-06 0)
(0 1.79507e-06 0)
(0 1.79507e-06 0)
(0 1.79507e-06 0)
(0 1.79507e-06 0)
(0 1.79507e-06 0)
(0 1.79507e-06 0)
(0 1.79507e-06 0)
(0 1.79507e-06 0)
(0 1.79507e-06 0)
(0 1.79507e-06 0)
(0 1.79507e-06 0)
(0 1.79507e-06 0)
(0 1.79507e-06 0)
(0 1.79507e-06 0)
(0 1.79507e-06 0)
(0 1.79507e-06 0)
(0 1.79507e-06 0)
(0 1.79507e-06 0)
(0 1.79507e-06 0)
(0 1.79507e-06 0)
(0 1.79507e-06 0)
(0 1.79507e-06 0)
(0 1.79507e-06 0)
(0 1.79507e-06 0)
(0 1.79507e-06 0)
(0 1.79507e-06 0)
(0 1.79507e-06 0)
(0 1.79448e-06 0)
(0 1.80088e-06 0)
(0 1.79602e-06 0)
(0 1.79531e-06 0)
(0 1.79516e-06 0)
(0 1.7961e-06 0)
(0 1.79488e-06 0)
(0 1.79921e-06 0)
(0 1.7953e-06 0)
(0 1.79504e-06 0)
(0 1.79509e-06 0)
(0 1.79631e-06 0)
(0 1.79507e-06 0)
(0 1.79607e-06 0)
(0 1.80665e-06 0)
(0 1.79522e-06 0)
(0 1.79587e-06 0)
(0 1.79536e-06 0)
(0 1.79572e-06 0)
(0 3.6032e-07 0)
(0 1.49505e-06 0)
(0 1.63452e-06 0)
(0 2.45795e-06 0)
(0 4.74148e-07 0)
(0 5.45309e-07 0)
(0 -1.58304e-07 0)
(0 2.71013e-07 0)
(0 1.28836e-06 0)
(0 -8.67502e-08 0)
(0 1.7942e-06 0)
(0 1.79475e-06 0)
(0 1.79549e-06 0)
(0 1.79505e-06 0)
(0 1.79508e-06 0)
(0 1.7981e-06 0)
(0 1.79509e-06 0)
(0 1.79525e-06 0)
(0 1.80106e-06 0)
(0 1.79506e-06 0)
(0 1.79577e-06 0)
(0 1.79514e-06 0)
(0 1.59575e-06 0)
(0 4.02268e-07 0)
(0 1.33133e-06 0)
(0 -3.41201e-07 0)
(0 1.79532e-06 0)
(0 1.79513e-06 0)
(0 1.79502e-06 0)
(0 1.79505e-06 0)
(0 1.79518e-06 0)
(0 1.15436e-06 0)
(0 6.30783e-07 0)
(0 -1.18617e-07 0)
(0 3.54886e-07 0)
(0 5.59233e-07 0)
(0 1.68805e-06 0)
(0 8.6986e-07 0)
(0 2.41456e-06 0)
(0 7.6584e-07 0)
(0 -8.88375e-08 0)
(0 1.79471e-06 0)
(0 4.41059e-07 0)
(0 2.41315e-06 0)
(0 6.60789e-07 0)
(0 2.90571e-08 0)
(0 1.31339e-06 0)
(0 2.06787e-07 0)
(0 4.06657e-07 0)
(0 1.47116e-06 0)
(0 4.79761e-07 0)
(0 2.2786e-07 0)
(0 1.33616e-07 0)
(0 -2.71216e-05 0)
(0 -2.78429e-05 0)
(0 -2.62425e-05 0)
(0 -2.70337e-05 0)
(0 -2.54229e-05 0)
(0 -2.6151e-05 0)
(0 -2.45771e-05 0)
(0 -2.52796e-05 0)
(0 -2.37172e-05 0)
(0 -2.45584e-05 0)
(0 -2.28429e-05 0)
(0 -2.33608e-05 0)
(0 -2.19367e-05 0)
(0 -2.24021e-05 0)
(0 -2.10576e-05 0)
(0 -2.15341e-05 0)
(0 -2.01983e-05 0)
(0 -2.07193e-05 0)
(0 -1.93424e-05 0)
(0 -1.88855e-05 0)
(0 -1.80967e-05 0)
(0 -1.84604e-05 0)
(0 -1.73499e-05 0)
(0 -1.76444e-05 0)
(0 -1.66691e-05 0)
(0 -1.63736e-05 0)
(0 -1.5771e-05 0)
(0 -1.60162e-05 0)
(0 -1.51514e-05 0)
(0 -1.53515e-05 0)
(0 -1.44886e-05 0)
(0 -1.46843e-05 0)
(0 -1.38203e-05 0)
(0 -1.54536e-05 0)
(0 -1.4036e-05 0)
(0 -1.31567e-05 0)
(0 -1.33951e-05 0)
(0 -1.24832e-05 0)
(0 -1.27171e-05 0)
(0 -1.17949e-05 0)
(0 -1.15454e-05 0)
(0 -1.09005e-05 0)
(0 -1.36382e-05 0)
(0 -1.11188e-05 0)
(0 -1.02954e-05 0)
(0 -2.86105e-05 0)
(0 -2.27797e-05 0)
(0 -1.05264e-05 0)
(0 -2.38475e-05 0)
(0 -1.04706e-05 0)
(0 -9.66554e-06 0)
(0 -9.82818e-06 0)
(0 -9.02093e-06 0)
(0 -9.18488e-06 0)
(0 -8.3937e-06 0)
(0 -8.54054e-06 0)
(0 -7.80239e-06 0)
(0 -7.66217e-06 0)
(0 -7.14325e-06 0)
(0 -7.01155e-06 0)
(0 -6.58358e-06 0)
(0 -6.71033e-06 0)
(0 -6.27538e-06 0)
(0 -6.46999e-06 0)
(0 -6.41391e-06 0)
(0 -6.07926e-06 0)
(0 -6.20184e-06 0)
(0 -5.91231e-06 0)
(0 -5.99662e-06 0)
(0 -5.72324e-06 0)
(0 -5.7707e-06 0)
(0 -5.47737e-06 0)
(0 -5.4965e-06 0)
(0 -5.16614e-06 0)
(0 -5.13548e-06 0)
(0 -4.79819e-06 0)
(0 -4.76417e-06 0)
(0 -4.43094e-06 0)
(0 -4.41882e-06 0)
(0 -4.11934e-06 0)
(0 -4.13418e-06 0)
(0 -3.88199e-06 0)
(0 -3.91276e-06 0)
(0 -3.69383e-06 0)
(0 -3.72938e-06 0)
(0 -3.52425e-06 0)
(0 -3.52689e-06 0)
(0 -3.48381e-06 0)
(0 -3.35932e-06 0)
(0 -3.30888e-06 0)
(0 -3.19165e-06 0)
(0 -3.08492e-06 0)
(0 -3.02853e-06 0)
(0 -2.8857e-06 0)
(0 -2.87197e-06 0)
(0 -2.70528e-06 0)
(0 -2.72036e-06 0)
(0 -2.55653e-06 0)
(0 -2.59146e-06 0)
(0 -2.78365e-06 0)
(0 -5.16168e-06 0)
(0 -3.2034e-06 0)
(0 -2.6633e-06 0)
(0 -2.8219e-06 0)
(0 -2.4615e-06 0)
(0 -5.49235e-06 0)
(0 -5.1514e-06 0)
(0 -2.75704e-06 0)
(0 -2.88288e-06 0)
(0 -2.83758e-06 0)
(0 -2.89658e-06 0)
(0 -2.83767e-06 0)
(0 -2.83524e-06 0)
(0 -2.78899e-06 0)
(0 -2.78594e-06 0)
(0 -2.75876e-06 0)
(0 -2.76043e-06 0)
(0 -2.78807e-06 0)
(0 -5.5059e-06 0)
(0 -5.15064e-06 0)
(0 -2.74623e-06 0)
(0 -2.81081e-06 0)
(0 -5.52416e-06 0)
(0 -5.11967e-06 0)
(0 -2.76548e-06 0)
(0 -2.86661e-06 0)
(0 -2.84355e-06 0)
(0 -5.49758e-06 0)
(0 -5.06699e-06 0)
(0 -2.96954e-06 0)
(0 -2.96137e-06 0)
(0 -5.41287e-06 0)
(0 -4.96142e-06 0)
(0 -3.08757e-06 0)
(0 -3.07098e-06 0)
(0 -2.9263e-06 0)
(0 -5.21648e-06 0)
(0 -4.77635e-06 0)
(0 -3.08641e-06 0)
(0 -2.86924e-06 0)
(0 -3.19748e-06 0)
(0 -4.91014e-06 0)
(0 -4.50905e-06 0)
(0 -3.07776e-06 0)
(0 -2.73154e-06 0)
(0 -4.52632e-06 0)
(0 -4.16848e-06 0)
(0 -2.90928e-06 0)
(0 -2.45959e-06 0)
(0 -4.09532e-06 0)
(0 -3.77714e-06 0)
(0 -4.50474e-06 0)
(0 -2.62236e-06 0)
(0 -2.10972e-06 0)
(0 -3.86214e-06 0)
(0 -3.43387e-06 0)
(0 -3.47102e-06 0)
(0 -3.00253e-06 0)
(0 -3.05468e-06 0)
(0 -2.6551e-06 0)
(0 -2.70949e-06 0)
(0 -2.45286e-06 0)
(0 -2.48151e-06 0)
(0 -2.40366e-06 0)
(0 -2.44023e-06 0)
(0 -2.52627e-06 0)
(0 -2.62663e-06 0)
(0 -4.01212e-06 0)
(0 -4.42599e-06 0)
(0 -2.86223e-06 0)
(0 -3.07025e-06 0)
(0 -2.30271e-06 0)
(0 -1.74951e-06 0)
(0 -3.3701e-06 0)
(0 -3.6544e-06 0)
(0 -3.9167e-06 0)
(0 -4.36995e-06 0)
(0 -3.89329e-06 0)
(0 -4.11872e-06 0)
(0 -3.82399e-06 0)
(0 -4.44602e-06 0)
(0 -2.31124e-06 0)
(0 -1.94844e-06 0)
(0 -1.34367e-06 0)
(0 -4.21216e-06 0)
(0 -4.2877e-06 0)
(0 -3.11975e-06 0)
(0 -2.63473e-06 0)
(0 -4.19176e-06 0)
(0 -4.16785e-06 0)
(0 -3.73815e-06 0)
(0 -4.63336e-06 0)
(0 -2.42138e-06 0)
(0 -2.35035e-06 0)
(0 -2.27074e-06 0)
(0 -2.1985e-06 0)
(0 -2.06934e-06 0)
(0 -1.99709e-06 0)
(0 -1.83566e-06 0)
(0 -1.79348e-06 0)
(0 -1.64024e-06 0)
(0 -1.64493e-06 0)
(0 -1.51701e-06 0)
(0 -1.5632e-06 0)
(0 -1.44656e-06 0)
(0 -1.5092e-06 0)
(0 -1.3811e-06 0)
(0 -1.44179e-06 0)
(0 -1.30009e-06 0)
(0 -1.34547e-06 0)
(0 -1.20344e-06 0)
(0 -1.22206e-06 0)
(0 -1.08512e-06 0)
(0 -1.09219e-06 0)
(0 -1.09353e-06 0)
(0 -9.64504e-07 0)
(0 -9.9077e-07 0)
(0 -8.74367e-07 0)
(0 -9.20492e-07 0)
(0 -8.18231e-07 0)
(0 -8.74195e-07 0)
(0 -7.78411e-07 0)
(0 -8.35402e-07 0)
(0 -9.61817e-07 0)
(0 -9.1907e-07 0)
(0 -7.89255e-07 0)
(0 -8.67754e-07 0)
(0 -7.34044e-07 0)
(0 -8.00651e-07 0)
(0 -6.60065e-07 0)
(0 -7.23301e-07 0)
(0 -8.89915e-07 0)
(0 -8.0814e-07 0)
(0 -6.49067e-07 0)
(0 -7.36784e-07 0)
(0 -5.84612e-07 0)
(0 -6.80287e-07 0)
(0 -5.36126e-07 0)
(0 -8.38273e-07 0)
(0 -6.43214e-07 0)
(0 -5.028e-07 0)
(0 -6.27161e-07 0)
(0 -4.74155e-07 0)
(0 -6.19628e-07 0)
(0 -4.45764e-07 0)
(0 -5.99022e-07 0)
(0 -4.18032e-07 0)
(0 -5.7787e-07 0)
(0 -4.06822e-07 0)
(0 -7.45679e-07 0)
(0 -5.75321e-07 0)
(0 -4.11693e-07 0)
(0 -3.94497e-07 0)
(0 -5.74095e-07 0)
(0 -2.25617e-07 0)
(0 -3.79077e-06 0)
(0 -3.15818e-06 0)
(0 -3.44654e-06 0)
(0 -2.84024e-06 0)
(0 -3.13446e-06 0)
(0 -2.57418e-06 0)
(0 -2.85358e-06 0)
(0 -2.32152e-06 0)
(0 -2.60297e-06 0)
(0 -2.10196e-06 0)
(0 -2.38841e-06 0)
(0 -1.91419e-06 0)
(0 -2.1844e-06 0)
(0 -1.71792e-06 0)
(0 -1.98909e-06 0)
(0 -1.53319e-06 0)
(0 -1.82173e-06 0)
(0 -1.3791e-06 0)
(0 -1.66477e-06 0)
(0 -1.24026e-06 0)
(0 -1.51689e-06 0)
(0 -1.10905e-06 0)
(0 -1.3831e-06 0)
(0 -9.91423e-07 0)
(0 -1.26514e-06 0)
(0 -8.89804e-07 0)
(0 -1.14671e-06 0)
(0 -7.8446e-07 0)
(0 -1.02634e-06 0)
(0 -6.88162e-07 0)
(0 -9.68098e-07 0)
(0 -5.96124e-07 0)
(0 -8.15149e-07 0)
(0 -5.08213e-07 0)
(0 -7.23955e-07 0)
(0 -4.39196e-07 0)
(0 -6.85602e-07 0)
(0 -3.68724e-07 0)
(0 -5.72801e-07 0)
(0 -2.94255e-07 0)
(0 -4.86269e-07 0)
(0 -2.27064e-07 0)
(0 -4.10919e-07 0)
(0 -1.63945e-07 0)
(0 -3.58023e-07 0)
(0 -1.06783e-07 0)
(0 -3.01674e-07 0)
(0 -5.63462e-08 0)
(0 -2.78324e-07 0)
(0 6.1958e-11 0)
(0 -1.70067e-07 0)
(0 6.10682e-08 0)
(0 -1.12858e-07 0)
(0 9.87288e-08 0)
(0 -9.77737e-08 0)
(0 1.38566e-07 0)
(0 -1.97932e-08 0)
(0 1.91745e-07 0)
(0 4.23262e-08 0)
(0 2.66285e-07 0)
(0 9.20758e-08 0)
(0 2.79059e-07 0)
(0 1.18667e-07 0)
(0 3.16683e-07 0)
(0 1.49567e-07 0)
(0 3.46368e-07 0)
(0 1.48454e-07 0)
(0 3.70864e-07 0)
(0 2.14895e-07 0)
(0 3.99979e-07 0)
(0 2.43773e-07 0)
(0 4.2005e-07 0)
(0 2.53197e-07 0)
(0 4.41238e-07 0)
(0 2.67233e-07 0)
(0 4.6283e-07 0)
(0 2.92362e-07 0)
(0 4.79456e-07 0)
(0 3.18582e-07 0)
(0 4.98052e-07 0)
(0 3.46595e-07 0)
(0 5.17149e-07 0)
(0 3.70337e-07 0)
(0 5.30501e-07 0)
(0 3.85474e-07 0)
(0 5.32462e-07 0)
(0 3.92185e-07 0)
(0 5.36376e-07 0)
(0 -8.03976e-07 0)
(0 -1.3846e-06 0)
(0 -3.30206e-07 0)
(0 -4.37466e-08 0)
(0 7.17082e-08 0)
(0 4.00159e-07 0)
(0 5.5057e-07 0)
(0 4.03141e-07 0)
(0 5.51316e-07 0)
(0 -2.31195e-06 0)
(0 3.94245e-07 0)
(0 -3.42307e-06 0)
(0 2.19292e-07 0)
(0 5.26105e-07 0)
(0 3.73663e-07 0)
(0 5.84866e-07 0)
(0 5.00008e-07 0)
(0 3.42313e-07 0)
(0 2.0038e-07 0)
(0 1.61327e-07 0)
(0 4.61862e-07 0)
(0 2.19512e-07 0)
(0 1.46611e-08 0)
(0 4.58148e-09 0)
(0 -4.12154e-08 0)
(0 6.51765e-07 0)
(0 -2.28139e-07 0)
(0 4.73494e-07 0)
(0 -5.64577e-07 0)
(0 -2.14873e-07 0)
(0 -2.58057e-07 0)
(0 6.68229e-07 0)
(0 -9.893e-07 0)
(0 -4.48569e-07 0)
(0 -4.816e-07 0)
(0 6.38013e-07 0)
(0 6.00305e-07 0)
(0 -1.65692e-06 0)
(0 7.43479e-07 0)
(0 7.16682e-07 0)
(0 -2.52534e-06 0)
(0 -6.87145e-07 0)
(0 -7.01159e-07 0)
(0 8.41766e-07 0)
(0 8.13067e-07 0)
(0 9.31949e-07 0)
(0 8.95872e-07 0)
(0 -1.41319e-06 0)
(0 1.00934e-06 0)
(0 9.69232e-07 0)
(0 -9.19373e-07 0)
(0 -9.15723e-07 0)
(0 -3.94539e-06 0)
(0 -3.90697e-06 0)
(0 -1.45458e-06 0)
(0 -8.25973e-07 0)
(0 1.07374e-06 0)
(0 1.03114e-06 0)
(0 1.11076e-06 0)
(0 9.19872e-07 0)
(0 9.79753e-07 0)
(0 8.60088e-07 0)
(0 9.19933e-07 0)
(0 1.03276e-06 0)
(0 9.74336e-07 0)
(0 1.07908e-06 0)
(0 7.91396e-07 0)
(0 1.01882e-06 0)
(0 1.11794e-06 0)
(0 1.05096e-06 0)
(0 1.14845e-06 0)
(0 -9.34433e-06 0)
(0 -1.23119e-06 0)
(0 -3.67853e-06 0)
(0 -3.19731e-06 0)
(0 -2.73626e-06 0)
(0 -3.58824e-06 0)
(0 -3.67645e-06 0)
(0 -4.89855e-06 0)
(0 -3.60567e-06 0)
(0 -3.47734e-06 0)
(0 1.07218e-06 0)
(0 1.1725e-06 0)
(0 -3.14041e-06 0)
(0 -2.86129e-06 0)
(0 -1.14858e-06 0)
(0 -1.17328e-06 0)
(0 -1.13807e-06 0)
(0 -3.71654e-06 0)
(0 -4.0069e-06 0)
(0 -8.13772e-07 0)
(0 -2.10083e-07 0)
(0 -3.96511e-06 0)
(0 -5.11668e-06 0)
(0 9.55203e-07 0)
(0 -2.51866e-06 0)
(0 -2.04099e-06 0)
(0 1.09258e-06 0)
(0 1.19267e-06 0)
(0 -1.41481e-06 0)
(0 -1.4428e-06 0)
(0 -1.76148e-06 0)
(0 -1.129e-06 0)
(0 -4.14393e-06 0)
(0 -4.39219e-06 0)
(0 -3.97028e-06 0)
(0 -5.084e-06 0)
(0 -2.99283e-06 0)
(0 -1.53513e-06 0)
(0 1.11175e-06 0)
(0 1.20592e-06 0)
(0 -8.28451e-08 0)
(0 4.89863e-07 0)
(0 -7.26985e-07 0)
(0 -4.10641e-06 0)
(0 -9.27209e-07 0)
(0 -2.61617e-07 0)
(0 -1.69973e-06 0)
(0 -1.7264e-06 0)
(0 -4.50563e-06 0)
(0 -4.73931e-06 0)
(0 1.2326e-06 0)
(0 -1.40212e-06 0)
(0 -5.72607e-08 0)
(0 5.9867e-07 0)
(0 -3.77322e-06 0)
(0 -4.87056e-06 0)
(0 -6.23453e-06 0)
(0 -6.0126e-06 0)
(0 1.11822e-06 0)
(0 1.20733e-06 0)
(0 -7.42583e-06 0)
(0 -7.20688e-06 0)
(0 -5.70724e-06 0)
(0 -6.89575e-06 0)
(0 -8.4606e-06 0)
(0 -8.13066e-06 0)
(0 -9.76396e-06 0)
(0 -9.49459e-06 0)
(0 -1.12055e-05 0)
(0 -1.11028e-05 0)
(0 -1.28534e-05 0)
(0 -1.29125e-05 0)
(0 -1.10196e-05 0)
(0 -1.30134e-05 0)
(0 -1.48428e-05 0)
(0 -1.51272e-05 0)
(0 -1.6839e-05 0)
(0 -1.7306e-05 0)
(0 -1.88598e-05 0)
(0 -1.95111e-05 0)
(0 -1.78358e-05 0)
(0 -2.01022e-05 0)
(0 -2.16317e-05 0)
(0 -2.2226e-05 0)
(0 -2.36979e-05 0)
(0 -2.42863e-05 0)
(0 -2.57085e-05 0)
(0 -2.62632e-05 0)
(0 -2.7604e-05 0)
(0 -2.81336e-05 0)
(0 -2.94377e-05 0)
(0 -2.9978e-05 0)
(0 -3.12859e-05 0)
(0 -3.18732e-05 0)
(0 -3.31748e-05 0)
(0 -2.484e-05 0)
(0 9.79371e-08 0)
(0 -5.46338e-07 0)
(0 -1.98613e-06 0)
(0 -2.02286e-06 0)
(0 8.65383e-07 0)
(0 1.55128e-06 0)
(0 -4.85458e-06 0)
(0 -5.06077e-06 0)
(0 -3.75446e-06 0)
(0 -4.59666e-06 0)
(0 -5.37659e-06 0)
(0 1.11251e-06 0)
(0 1.19742e-06 0)
(0 1.01703e-06 0)
(0 1.8107e-06 0)
(0 -2.29069e-06 0)
(0 -2.35587e-06 0)
(0 -2.2508e-06 0)
(0 -2.80488e-06 0)
(0 -2.64343e-06 0)
(0 -2.74441e-06 0)
(0 -5.2061e-06 0)
(0 -5.37996e-06 0)
(0 2.84164e-07 0)
(0 -3.33589e-07 0)
(0 -4.08876e-06 0)
(0 -9.25444e-07 0)
(0 -1.15042e-06 0)
(0 -9.5075e-07 0)
(0 -1.18316e-06 0)
(0 -9.76402e-07 0)
(0 -1.21623e-06 0)
(0 1.28415e-06 0)
(0 1.27068e-06 0)
(0 1.17839e-06 0)
(0 1.24902e-06 0)
(0 1.15404e-06 0)
(0 1.22264e-06 0)
(0 1.12398e-06 0)
(0 1.19191e-06 0)
(0 1.28458e-06 0)
(0 1.25471e-06 0)
(0 1.34175e-06 0)
(0 1.31297e-06 0)
(0 1.39326e-06 0)
(0 1.36589e-06 0)
(0 1.28119e-06 0)
(0 1.33545e-06 0)
(0 1.41466e-06 0)
(0 1.38586e-06 0)
(0 1.30307e-06 0)
(0 1.35677e-06 0)
(0 1.43158e-06 0)
(0 1.40574e-06 0)
(0 -2.76525e-06 0)
(0 2.45146e-06 0)
(0 2.2392e-06 0)
(0 2.61387e-06 0)
(0 -5.52749e-06 0)
(0 -5.62666e-06 0)
(0 -7.31152e-07 0)
(0 1.47398e-06 0)
(0 1.44952e-06 0)
(0 -2.6983e-05 0)
(0 -2.79869e-06 0)
(0 -2.74134e-06 0)
(0 4.47161e-07 0)
(0 -1.30834e-07 0)
(0 1.37755e-06 0)
(0 1.42339e-06 0)
(0 1.4889e-06 0)
(0 1.46401e-06 0)
(0 -3.05263e-06 0)
(0 -3.03942e-06 0)
(0 -3.16998e-06 0)
(0 -5.72961e-06 0)
(0 -5.71025e-06 0)
(0 -5.54879e-06 0)
(0 -5.56631e-06 0)
(0 -5.40724e-06 0)
(0 -5.43473e-06 0)
(0 -5.31741e-06 0)
(0 -5.50324e-06 0)
(0 -5.35201e-06 0)
(0 -5.28632e-06 0)
(0 -5.27645e-06 0)
(0 -5.23504e-06 0)
(0 -5.12259e-06 0)
(0 -5.11076e-06 0)
(0 -4.90876e-06 0)
(0 -4.93829e-06 0)
(0 -4.91295e-06 0)
(0 -1.59229e-06 0)
(0 -9.96116e-07 0)
(0 -1.2316e-06 0)
(0 1.52426e-06 0)
(0 1.49935e-06 0)
(0 1.43779e-06 0)
(0 1.47119e-06 0)
(0 1.52973e-06 0)
(0 1.50047e-06 0)
(0 1.5543e-06 0)
(0 3.06473e-06 0)
(0 3.02282e-06 0)
(0 1.44115e-06 0)
(0 5.89613e-07 0)
(0 1.16457e-06 0)
(0 2.70324e-08 0)
(0 -4.70665e-06 0)
(0 -4.73605e-06 0)
(0 3.67884e-06 0)
(0 3.76538e-06 0)
(0 -2.74735e-06 0)
(0 -2.66116e-06 0)
(0 -2.88884e-06 0)
(0 -3.39314e-06 0)
(0 -3.0454e-06 0)
(0 -3.5003e-06 0)
(0 -3.18766e-06 0)
(0 -3.65076e-06 0)
(0 -3.3395e-06 0)
(0 -3.81232e-06 0)
(0 -3.50108e-06 0)
(0 -3.98448e-06 0)
(0 -3.6651e-06 0)
(0 -4.16905e-06 0)
(0 -3.83736e-06 0)
(0 -4.36473e-06 0)
(0 -4.72193e-06 0)
(0 -4.93636e-06 0)
(0 -4.56715e-06 0)
(0 -5.15744e-06 0)
(0 -4.7806e-06 0)
(0 -5.39212e-06 0)
(0 -5.00078e-06 0)
(0 -5.63699e-06 0)
(0 -5.23018e-06 0)
(0 -5.90174e-06 0)
(0 -5.48028e-06 0)
(0 -6.17827e-06 0)
(0 -5.75518e-06 0)
(0 -6.48013e-06 0)
(0 -6.04658e-06 0)
(0 -6.80881e-06 0)
(0 -6.35562e-06 0)
(0 -7.13367e-06 0)
(0 -6.68269e-06 0)
(0 -7.44718e-06 0)
(0 -6.99969e-06 0)
(0 -7.75538e-06 0)
(0 -7.30465e-06 0)
(0 -8.0775e-06 0)
(0 -7.62787e-06 0)
(0 -8.42747e-06 0)
(0 -7.97716e-06 0)
(0 -8.80967e-06 0)
(0 -8.36086e-06 0)
(0 -9.23285e-06 0)
(0 -8.80882e-06 0)
(0 -9.69192e-06 0)
(0 -8.57742e-06 0)
(0 -9.24366e-06 0)
(0 -1.01589e-05 0)
(0 -9.67819e-06 0)
(0 -1.06231e-05 0)
(0 -1.01804e-05 0)
(0 -1.11345e-05 0)
(0 -1.0694e-05 0)
(0 -1.16934e-05 0)
(0 -1.12151e-05 0)
(0 -1.22629e-05 0)
(0 -1.17686e-05 0)
(0 -1.28809e-05 0)
(0 -1.23784e-05 0)
(0 -1.35484e-05 0)
(0 -7.22337e-06 0)
(0 -5.31771e-06 0)
(0 -1.01986e-05 0)
(0 -1.21423e-05 0)
(0 -1.73116e-06 0)
(0 -3.45914e-06 0)
(0 -1.01523e-06 0)
(0 -1.23922e-06 0)
(0 -1.46377e-06 0)
(0 -1.47913e-06 0)
(0 -1.70421e-06 0)
(0 1.59718e-06 0)
(0 6.2702e-07 0)
(0 5.11175e-08 0)
(0 -4.49147e-06 0)
(0 -4.8108e-06 0)
(0 -1.27217e-05 0)
(0 1.94489e-06 0)
(0 2.68693e-06 0)
(0 4.15714e-06 0)
(0 4.22388e-06 0)
(0 -1.72927e-06 0)
(0 -1.95506e-06 0)
(0 -8.1879e-07 0)
(0 -2.65025e-06 0)
(0 -2.48913e-06 0)
(0 5.03869e-07 0)
(0 -1.09356e-07 0)
(0 -5.43865e-06 0)
(0 -1.0318e-06 0)
(0 -2.67518e-06 0)
(0 4.41544e-06 0)
(0 4.37225e-06 0)
(0 4.50769e-06 0)
(0 4.29417e-06 0)
(0 4.26442e-06 0)
(0 4.19911e-06 0)
(0 4.03876e-06 0)
(0 3.96869e-06 0)
(0 3.74717e-06 0)
(0 3.61465e-06 0)
(0 3.78365e-06 0)
(0 -2.1186e-06 0)
(0 -2.15307e-06 0)
(0 3.49137e-06 0)
(0 -5.85465e-06 0)
(0 -7.23363e-06 0)
(0 -4.83127e-06 0)
(0 1.96683e-06 0)
(0 2.73581e-06 0)
(0 -8.71977e-06 0)
(0 3.87728e-07 0)
(0 -1.65308e-07 0)
(0 -5.221e-06 0)
(0 8.99206e-07 0)
(0 9.45725e-07 0)
(0 7.767e-07 0)
(0 9.81841e-07 0)
(0 8.04541e-07 0)
(0 1.00157e-06 0)
(0 8.17171e-07 0)
(0 1.00081e-06 0)
(0 6.26513e-07 0)
(0 8.15155e-07 0)
(0 9.87602e-07 0)
(0 8.02786e-07 0)
(0 9.6799e-07 0)
(0 1.13451e-06 0)
(0 1.10885e-06 0)
(0 9.42186e-07 0)
(0 1.07817e-06 0)
(0 1.22597e-06 0)
(0 1.19313e-06 0)
(0 1.3227e-06 0)
(0 1.29007e-06 0)
(0 1.15825e-06 0)
(0 1.2554e-06 0)
(0 1.37084e-06 0)
(0 1.33594e-06 0)
(0 1.21889e-06 0)
(0 1.30225e-06 0)
(0 1.40501e-06 0)
(0 1.3765e-06 0)
(0 1.26736e-06 0)
(0 1.3449e-06 0)
(0 1.44381e-06 0)
(0 1.41379e-06 0)
(0 1.50947e-06 0)
(0 1.47054e-06 0)
(0 1.38043e-06 0)
(0 1.43958e-06 0)
(0 1.34624e-06 0)
(0 1.40765e-06 0)
(0 1.49075e-06 0)
(0 1.46098e-06 0)
(0 1.53495e-06 0)
(0 1.50846e-06 0)
(0 1.42974e-06 0)
(0 1.47911e-06 0)
(0 1.55733e-06 0)
(0 1.52196e-06 0)
(0 1.44187e-06 0)
(0 1.49571e-06 0)
(0 1.55724e-06 0)
(0 1.53383e-06 0)
(0 1.46599e-06 0)
(0 1.50631e-06 0)
(0 1.56938e-06 0)
(0 1.54757e-06 0)
(0 1.47581e-06 0)
(0 1.52206e-06 0)
(0 1.58225e-06 0)
(0 1.56015e-06 0)
(0 1.49832e-06 0)
(0 1.53821e-06 0)
(0 1.59352e-06 0)
(0 1.57152e-06 0)
(0 1.51844e-06 0)
(0 1.55185e-06 0)
(0 1.60107e-06 0)
(0 1.58312e-06 0)
(0 1.53327e-06 0)
(0 1.56489e-06 0)
(0 1.61123e-06 0)
(0 1.59354e-06 0)
(0 1.54616e-06 0)
(0 1.5763e-06 0)
(0 1.61975e-06 0)
(0 1.60471e-06 0)
(0 1.55929e-06 0)
(0 1.5896e-06 0)
(0 1.54229e-06 0)
(0 1.57443e-06 0)
(0 1.61608e-06 0)
(0 1.60334e-06 0)
(0 1.55956e-06 0)
(0 1.58972e-06 0)
(0 1.62803e-06 0)
(0 1.61692e-06 0)
(0 1.57673e-06 0)
(0 1.60528e-06 0)
(0 1.64173e-06 0)
(0 1.63077e-06 0)
(0 1.59259e-06 0)
(0 1.61909e-06 0)
(0 1.5789e-06 0)
(0 1.60712e-06 0)
(0 1.56533e-06 0)
(0 1.59528e-06 0)
(0 1.63199e-06 0)
(0 1.62101e-06 0)
(0 1.65148e-06 0)
(0 1.6433e-06 0)
(0 1.61065e-06 0)
(0 1.63575e-06 0)
(0 1.66909e-06 0)
(0 1.65854e-06 0)
(0 1.62603e-06 0)
(0 1.64914e-06 0)
(0 1.61578e-06 0)
(0 1.63973e-06 0)
(0 1.66931e-06 0)
(0 1.66079e-06 0)
(0 1.63003e-06 0)
(0 1.65215e-06 0)
(0 1.61974e-06 0)
(0 1.64317e-06 0)
(0 1.60915e-06 0)
(0 1.63385e-06 0)
(0 1.66397e-06 0)
(0 1.65547e-06 0)
(0 1.68136e-06 0)
(0 1.67489e-06 0)
(0 1.64739e-06 0)
(0 1.66822e-06 0)
(0 1.63906e-06 0)
(0 1.66067e-06 0)
(0 1.68644e-06 0)
(0 1.67925e-06 0)
(0 1.65202e-06 0)
(0 1.67135e-06 0)
(0 1.64238e-06 0)
(0 1.66291e-06 0)
(0 1.68885e-06 0)
(0 1.68157e-06 0)
(0 1.65406e-06 0)
(0 1.67368e-06 0)
(0 1.6984e-06 0)
(0 1.69127e-06 0)
(0 1.66509e-06 0)
(0 1.68363e-06 0)
(0 1.65593e-06 0)
(0 1.67547e-06 0)
(0 1.69991e-06 0)
(0 1.69273e-06 0)
(0 1.66707e-06 0)
(0 1.68545e-06 0)
(0 1.65858e-06 0)
(0 1.67786e-06 0)
(0 1.70162e-06 0)
(0 1.69454e-06 0)
(0 1.66946e-06 0)
(0 1.6866e-06 0)
(0 1.66e-06 0)
(0 1.67763e-06 0)
(0 1.70125e-06 0)
(0 1.69291e-06 0)
(0 1.66763e-06 0)
(0 1.68355e-06 0)
(0 1.70622e-06 0)
(0 1.69724e-06 0)
(0 1.65662e-06 0)
(0 1.71764e-06 0)
(0 1.70924e-06 0)
(0 1.72745e-06 0)
(0 1.71962e-06 0)
(0 1.73577e-06 0)
(0 1.72816e-06 0)
(0 1.71119e-06 0)
(0 1.72023e-06 0)
(0 1.74275e-06 0)
(0 1.7022e-06 0)
(0 1.71271e-06 0)
(0 1.72888e-06 0)
(0 1.72298e-06 0)
(0 1.70632e-06 0)
(0 1.71635e-06 0)
(0 3.49685e-07 0)
(0 1.7498e-06 0)
(0 1.75569e-06 0)
(0 3.63558e-06 0)
(0 3.35339e-06 0)
(0 1.73266e-06 0)
(0 1.72531e-06 0)
(0 1.70435e-06 0)
(0 1.71564e-06 0)
(0 -1.98292e-06 0)
(0 -2.21026e-06 0)
(0 -1.56242e-06 0)
(0 1.6947e-06 0)
(0 1.70488e-06 0)
(0 -2.48917e-06 0)
(0 -2.27755e-06 0)
(0 1.0879e-06 0)
(0 1.01357e-06 0)
(0 9.74635e-07 0)
(0 8.94273e-07 0)
(0 8.5712e-07 0)
(0 7.73446e-07 0)
(0 -7.75653e-07 0)
(0 -7.22441e-07 0)
(0 -3.20578e-06 0)
(0 -3.3712e-06 0)
(0 -3.3339e-06 0)
(0 -3.56166e-06 0)
(0 -3.44286e-06 0)
(0 -3.7285e-06 0)
(0 -3.54918e-06 0)
(0 1.74092e-06 0)
(0 -1.02654e-05 0)
(0 4.12234e-08 0)
(0 -5.02968e-07 0)
(0 3.62555e-06 0)
(0 3.34555e-06 0)
(0 4.68874e-06 0)
(0 4.89329e-06 0)
(0 1.68126e-06 0)
(0 1.69251e-06 0)
(0 1.71681e-06 0)
(0 1.70297e-06 0)
(0 -1.08571e-06 0)
(0 1.67732e-06 0)
(0 1.68865e-06 0)
(0 1.71214e-06 0)
(0 1.69853e-06 0)
(0 1.76159e-06 0)
(0 1.7664e-06 0)
(0 -3.24575e-05 0)
(0 -1.10773e-05 0)
(0 -1.84458e-05 0)
(0 -2.13616e-05 0)
(0 7.42135e-07 0)
(0 6.55899e-07 0)
(0 2.07787e-06 0)
(0 2.91907e-06 0)
(0 1.71994e-06 0)
(0 1.70614e-06 0)
(0 1.03952e-06 0)
(0 -3.8644e-06 0)
(0 -3.6792e-06 0)
(0 -3.98356e-06 0)
(0 2.65737e-07 0)
(0 -2.22145e-06 0)
(0 -2.45527e-06 0)
(0 -1.74858e-06 0)
(0 -2.26681e-06 0)
(0 -2.03482e-06 0)
(0 -2.4241e-06 0)
(0 1.72596e-06 0)
(0 1.71158e-06 0)
(0 1.73051e-06 0)
(0 1.71518e-06 0)
(0 1.73327e-06 0)
(0 1.71671e-06 0)
(0 1.734e-06 0)
(0 -3.9497e-06 0)
(0 9.1759e-07 0)
(0 -5.52866e-06 0)
(0 -6.07442e-06 0)
(0 -1.55201e-05 0)
(0 4.53332e-07 0)
(0 1.83926e-07 0)
(0 1.53188e-06 0)
(0 1.51687e-06 0)
(0 1.47682e-06 0)
(0 1.4607e-06 0)
(0 1.41388e-06 0)
(0 1.39641e-06 0)
(0 1.58141e-06 0)
(0 -2.62002e-05 0)
(0 3.64904e-06 0)
(0 3.38415e-06 0)
(0 -1.33335e-06 0)
(0 1.18228e-06 0)
(0 -3.35125e-06 0)
(0 -3.78738e-06 0)
(0 -3.68856e-06 0)
(0 -4.1565e-06 0)
(0 -4.042e-06 0)
(0 -4.50853e-06 0)
(0 -4.37455e-06 0)
(0 -3.35251e-06 0)
(0 -5.9956e-06 0)
(0 -3.2573e-06 0)
(0 -1.82732e-06 0)
(0 -1.00427e-06 0)
(0 -2.07242e-07 0)
(0 1.66969e-06 0)
(0 -5.48966e-07 0)
(0 1.71611e-06 0)
(0 1.73351e-06 0)
(0 1.34358e-06 0)
(0 5.05137e-06 0)
(0 5.28657e-06 0)
(0 1.77107e-06 0)
(0 1.77503e-06 0)
(0 -8.25241e-07 0)
(0 -8.54321e-07 0)
(0 -6.71344e-07 0)
(0 -7.13372e-07 0)
(0 -5.46229e-07 0)
(0 -6.05827e-07 0)
(0 -4.46511e-07 0)
(0 -5.16129e-07 0)
(0 -6.77538e-07 0)
(0 -3.68862e-07 0)
(0 -3.99724e-06 0)
(0 -3.808e-06 0)
(0 6.39136e-08 0)
(0 9.33901e-07 0)
(0 7.80283e-07 0)
(0 -2.83685e-06 0)
(0 -1.95821e-06 0)
(0 -1.74289e-06 0)
(0 -2.21247e-06 0)
(0 -2.36882e-06 0)
(0 1.66066e-06 0)
(0 1.68897e-06 0)
(0 1.69624e-06 0)
(0 2.41099e-06 0)
(0 3.236e-06 0)
(0 1.73701e-06 0)
(0 1.32544e-06 0)
(0 1.38099e-06 0)
(0 -2.44422e-06 0)
(0 -2.68281e-06 0)
(0 -1.58144e-06 0)
(0 -1.43239e-06 0)
(0 -1.21702e-06 0)
(0 -1.14391e-06 0)
(0 6.32591e-07 0)
(0 5.41595e-07 0)
(0 7.11425e-07 0)
(0 3.586e-06 0)
(0 3.43357e-06 0)
(0 -4.37671e-07 0)
(0 -3.02763e-07 0)
(0 3.69493e-06 0)
(0 -4.82726e-06 0)
(0 -4.99685e-06 0)
(0 -4.62494e-06 0)
(0 6.07662e-07 0)
(0 6.77587e-07 0)
(0 -5.64497e-06 0)
(0 -5.37769e-06 0)
(0 -9.30424e-07 0)
(0 -5.3065e-06 0)
(0 -5.50843e-06 0)
(0 1.71355e-06 0)
(0 1.73145e-06 0)
(0 -4.64191e-06 0)
(0 1.77871e-06 0)
(0 1.78176e-06 0)
(0 1.77855e-06 0)
(0 1.78448e-06 0)
(0 1.78181e-06 0)