/*--------------------------------*- C++ -*----------------------------------*\
| =========                 |                                                 |
| \\      /  F ield         | OpenFOAM: The Open Source CFD Toolbox           |
|  \\    /   O peration     | Version:  v2012                                 |
|   \\  /    A nd           | Website:  www.openfoam.com                      |
|    \\/     M anipulation  |                                                 |
\*---------------------------------------------------------------------------*/
FoamFile
{
    version     2.0;
    format      ascii;
    class       volVectorField;
    location    "200";
    object      ddt0(U);
}
// * * * * * * * * * * * * * * * * * * * * * * * * * * * * * * * * * * * * * //

dimensions      [0 1 -2 0 0 0 0];


internalField   nonuniform List<vector> 
18355
(
(-0.00222682 0.00142563 -6.26671e-18)
(0.0265905 -0.00899183 2.66867e-18)
(-0.000455396 -0.000435482 -1.25221e-18)
(-9.86288e-05 0.000220288 -1.73875e-19)
(0.000247553 0.00115853 -1.01009e-18)
(-0.0110237 -0.00608486 2.0122e-17)
(-0.000172462 4.97439e-05 8.6324e-20)
(0.00029447 0.000368818 1.61219e-18)
(0.000161346 -0.00191165 8.41034e-18)
(-0.0185514 -0.00854828 -1.19631e-17)
(0.000164976 0.000155627 1.21621e-20)
(0.0124265 0.00401131 9.62918e-18)
(0.00442643 0.000819713 -2.32988e-17)
(-8.81758e-05 -0.000291883 8.65698e-19)
(-0.000924052 0.000284366 8.03236e-20)
(-0.0013676 -0.000953494 -3.25805e-18)
(0.00994433 -0.00127791 2.14922e-18)
(-0.000263936 0.00011874 1.3073e-19)
(-0.000796503 -0.0006637 -5.28838e-19)
(0.0426872 -0.0599179 8.75657e-18)
(-0.00154871 -0.00129689 -1.81652e-17)
(-0.000627928 -0.00135286 -3.12559e-18)
(-0.0445703 -0.00238515 -3.50107e-17)
(0.000289315 0.00114128 4.34736e-19)
(0.000669537 0.00309225 1.79102e-19)
(-3.27781e-05 -0.000639548 5.78994e-19)
(1.49204e-05 -0.000794554 1.29421e-18)
(-4.88165e-05 -0.00187457 9.42163e-18)
(-0.0182538 -0.12087 5.06435e-19)
(-0.000474988 -0.000693055 5.06099e-19)
(0.000490715 0.000759254 2.96644e-19)
(0.000171606 0.00172318 -6.49293e-19)
(-0.000253174 0.000114696 -2.22093e-19)
(-6.02906e-05 1.43603e-06 -8.63591e-19)
(-0.00390805 0.00240701 -9.42571e-18)
(-0.00222353 0.00149541 5.24461e-18)
(0.00010674 -0.00169212 -1.31245e-18)
(-0.00934614 -0.000543558 -7.77493e-17)
(-7.06248e-05 -0.00185576 -1.44736e-17)
(0.000151288 0.000175988 -4.45349e-19)
(-8.54711e-05 -0.000324598 -8.28386e-19)
(-0.00393068 -0.00386033 1.40577e-19)
(-0.000469858 -0.000467388 -7.65146e-19)
(-0.0373841 -0.00606967 1.24547e-17)
(0.000176581 1.29729e-05 3.37268e-20)
(-0.00976263 -0.000457113 9.62489e-17)
(-0.00157831 0.00255963 2.23718e-17)
(-0.000359 -0.0019472 -5.90862e-18)
(-0.0018582 0.0022111 2.82506e-17)
(-0.000298202 3.69283e-05 -1.27697e-19)
(8.95553e-05 0.000183596 -1.53777e-20)
(-0.000574997 -7.65039e-05 -1.11884e-18)
(2.52455e-06 3.2778e-05 -2.29028e-18)
(0.00875571 -0.0262202 1.11369e-17)
(-0.000126988 -0.000524646 -1.01668e-18)
(-6.51046e-05 -1.60802e-05 -2.09957e-19)
(-0.0344538 0.0160394 4.08574e-18)
(-0.00095275 0.000271953 -5.31087e-20)
(-0.000164157 -0.00583802 2.40813e-17)
(-0.00622815 0.00713174 4.70488e-17)
(-0.000300669 5.90827e-06 2.41849e-19)
(-0.00360174 -0.00377587 -2.15179e-17)
(-0.000246035 0.000213189 -4.23055e-19)
(-0.00374001 -0.00129716 -7.0936e-20)
(0.0120745 0.00482268 -8.65063e-18)
(-0.00213877 0.00139531 -5.31715e-18)
(-0.0378715 -0.0535936 -1.29751e-18)
(-0.000599541 -0.00265271 -1.64731e-17)
(1.46443e-05 -0.000824706 2.0588e-18)
(-0.000633549 -0.00133204 3.17997e-18)
(-0.00267492 0.00358636 3.71352e-18)
(1.19534e-05 3.61751e-06 1.51776e-18)
(-0.0068178 0.00726058 3.20597e-17)
(-0.000268378 -0.000147086 -1.53618e-18)
(0.000234147 0.000652838 -3.84249e-18)
(-0.000173819 5.55653e-05 1.08511e-19)
(0.0555336 -0.0384321 7.21661e-18)
(-2.51727e-05 0.00161408 3.05319e-18)
(-0.000627146 0.00417111 2.96183e-18)
(-0.000503218 -7.69772e-05 4.22402e-19)
(-0.000175122 3.41709e-05 8.07817e-19)
(-0.0120987 -0.00439469 1.44042e-17)
(-0.00150424 -0.00126356 1.19695e-17)
(-0.00426338 -0.00030175 -7.19421e-18)
(-4.52332e-05 -0.000677422 -3.95295e-19)
(0.00385311 0.000919902 6.76857e-18)
(0.0991367 -0.0615876 -2.29737e-17)
(0.0397328 -0.0620966 3.7008e-18)
(-0.0175765 -0.112902 4.71965e-19)
(-0.00892072 -0.0241182 5.29766e-19)
(0.00229813 -0.0329751 -1.8813e-17)
(0.000174664 1.42397e-05 -2.02198e-20)
(-9.68e-05 -0.000608087 4.89569e-18)
(0.000156783 8.75172e-05 -5.85765e-19)
(0.0033475 -0.0350954 3.24118e-17)
(-0.0481117 -0.00155574 3.85439e-17)
(-0.000420377 0.000570043 4.96982e-20)
(-0.00138522 0.00172576 1.62497e-17)
(0.00541945 -0.0243925 -1.62164e-17)
(0.00280917 -0.000803309 -9.18346e-17)
(-0.00545455 -0.0692115 -8.57965e-19)
(0.00468697 -0.000949621 -2.15943e-17)
(-0.00370954 0.00115578 2.17893e-18)
(0.00598856 -0.0529998 4.13024e-17)
(0.000630028 0.00136428 4.82162e-18)
(-0.000105612 -0.0100652 -2.60971e-18)
(0.0178617 0.00154064 -2.46445e-17)
(-0.00770806 -0.00244377 3.68031e-18)
(-0.00165358 0.000953028 1.25924e-17)
(0.000820373 -0.00533761 -4.5871e-17)
(-0.000467818 -0.000561774 4.37944e-18)
(-0.000266016 -0.0017694 -2.15691e-18)
(-2.69236e-05 -0.000674639 1.61987e-18)
(-0.000256931 -0.0018037 1.69359e-17)
(0.0256802 -0.0233945 4.83589e-18)
(-8.92878e-05 -1.10526e-05 1.6443e-18)
(-5.75624e-05 -0.00624097 1.65696e-16)
(0.0577151 -0.0375588 9.83204e-18)
(-0.000119561 -0.00579555 -1.50738e-16)
(-0.00377418 0.000987037 -6.81096e-18)
(-0.0205814 -0.0100014 1.04986e-17)
(-0.0178643 0.0188686 -1.35471e-17)
(5.52107e-05 0.00160064 -2.91919e-18)
(-0.00285173 0.00360427 1.09084e-17)
(-0.000431286 0.000540725 -2.02323e-19)
(-0.00779785 -0.0027709 -9.94685e-18)
(-0.000563507 -4.74579e-05 3.00452e-19)
(-1.01971e-06 1.59457e-05 4.9436e-18)
(-0.0178102 0.00106033 -1.33379e-17)
(0.000153204 8.34504e-05 6.53177e-19)
(8.04331e-05 0.000199093 3.14998e-21)
(0.00588311 -0.0197298 3.88717e-17)
(-0.00233878 -0.00103749 9.41777e-18)
(-0.00131961 0.00176129 -1.52344e-17)
(-0.00248115 -0.00260676 7.63274e-18)
(7.10938e-06 9.46883e-06 -1.68954e-18)
(-0.000761007 0.000192023 2.98519e-20)
(0.00017431 0.000157174 -3.54936e-19)
(-0.000261763 -0.000270283 1.30745e-18)
(-0.00609944 0.00259835 6.12944e-18)
(-0.00525625 -0.0764853 6.23391e-18)
(0.00951691 -0.0945254 -2.78529e-17)
(-0.00101736 -0.000810848 3.72691e-18)
(-0.000454297 -0.000533598 -2.51487e-18)
(8.46397e-05 -0.00523568 -8.78753e-18)
(-0.000555087 -0.00134271 1.1633e-17)
(-3.70286e-06 -0.00218273 4.18148e-17)
(0.108983 -0.0843172 -4.28441e-18)
(-0.000918849 0.00130352 -5.75808e-19)
(0.11655 -0.088391 4.96223e-18)
(-4.76077e-05 0.000979732 3.02265e-18)
(-0.000577035 -0.00137011 4.75791e-18)
(-0.00381548 0.00230142 1.82353e-17)
(-0.000122108 -0.0058632 1.3679e-18)
(-0.0186116 0.00240473 -3.49721e-18)
(6.27069e-06 1.22945e-05 1.68056e-20)
(0.0120603 -0.0235929 -3.95326e-17)
(-0.00020287 -0.00570498 1.62567e-16)
(6.45677e-06 1.18526e-05 -8.53876e-20)
(-0.00272144 -0.00450262 -1.00708e-17)
(-0.00213181 -0.00042152 2.12938e-18)
(-0.00163717 0.000728888 2.25872e-18)
(-0.00128589 -0.00217258 -3.85602e-18)
(-0.00137595 0.00188004 -7.76351e-18)
(-0.0443238 -0.0118716 -1.82249e-18)
(-0.000597739 -0.00660914 -2.46342e-17)
(0.00574129 -0.00615455 -5.77661e-17)
(-0.00227546 0.00208876 -9.70874e-18)
(0.0130561 0.00494127 -2.05169e-17)
(-0.000287064 -4.29071e-05 1.54539e-18)
(0.00837485 -0.232302 6.82778e-18)
(-0.0517541 -3.95903e-06 -1.80474e-17)
(0.000146396 0.000137174 -4.64855e-20)
(0.000150222 0.000155722 -1.41822e-19)
(-0.00136763 -0.000895362 -6.68654e-18)
(0.0589669 -0.00712739 -1.37531e-18)
(-0.0119644 0.0125216 9.14117e-18)
(-0.000106627 -0.000551621 4.95308e-18)
(-0.0195469 0.0021433 1.70671e-17)
(0.0149486 0.00329268 -1.04539e-16)
(0.000724737 -0.00418087 4.05606e-17)
(0.0136311 0.00402076 -1.30581e-17)
(-0.00176833 0.00127663 -4.54188e-18)
(-0.000139271 5.27057e-05 -8.89042e-19)
(-0.0336889 -0.0234368 6.00488e-18)
(0.0663105 -0.00779703 1.22682e-17)
(-0.0237363 -0.0193085 -6.785e-18)
(0.00295895 -0.023679 -2.35522e-17)
(-4.13235e-05 -0.00192719 2.32921e-17)
(0.0105166 -0.00090834 -7.38008e-18)
(-0.0331022 0.0172404 -1.0362e-18)
(-0.00051426 -0.000518179 4.35198e-18)
(-0.00133238 0.00193199 9.78193e-18)
(0.00786053 -0.0491895 2.26268e-19)
(-0.00251454 -0.00300827 2.48076e-17)
(-0.000691409 -0.00133821 -1.16935e-18)
(-0.0108308 0.0211477 1.75658e-17)
(-0.00175702 0.00133472 4.20006e-18)
(-0.00299421 0.000209903 -1.00816e-17)
(0.000144759 0.000152433 3.69179e-19)
(-0.000822246 0.00112876 -5.79194e-18)
(-0.000722273 -0.00181839 -1.3219e-18)
(0.0090404 -0.00190702 -3.92947e-17)
(-0.03045 -0.0170384 4.83408e-18)
(-0.00678438 0.00205512 -9.28558e-18)
(-0.00221398 -0.000806723 -9.20722e-21)
(0.000472538 -0.00552909 -1.04573e-16)
(0.016755 0.00166325 1.47025e-18)
(0.0108798 0.00995973 5.11503e-17)
(-0.0031241 0.000355972 1.85108e-17)
(-0.000759449 0.000132548 -7.49369e-20)
(-5.57185e-05 0.00094561 -2.22262e-18)
(0.038729 -0.0704113 -1.82794e-18)
(-0.000985441 -0.000812141 -3.01419e-18)
(-0.00027876 -6.10486e-05 -1.36725e-18)
(-0.0118103 -0.0038488 -1.43576e-17)
(0.024516 -0.032915 -3.19248e-18)
(0.0415249 -0.0678139 -1.93943e-18)
(-3.18709e-05 -0.000633896 -8.63052e-18)
(-0.000900679 0.00128177 -3.41092e-18)
(-0.0151986 0.00178288 -1.77883e-17)
(-0.000299059 -0.000272022 -1.65913e-18)
(-0.00409488 -0.000354361 8.32209e-18)
(-0.000728985 0.000196686 1.90631e-19)
(0.00678314 -0.00584097 3.45055e-17)
(-0.000692324 -0.00116391 -1.59733e-18)
(0.0180651 -0.00225095 -4.01251e-17)
(0.0870746 -0.0136572 -1.23069e-17)
(4.39508e-05 -0.00467012 -3.84582e-17)
(-0.000759152 7.75367e-05 4.52289e-19)
(5.53347e-06 3.46853e-05 1.01504e-18)
(-0.000415274 0.00400866 -2.04962e-18)
(-0.00204551 0.000107496 7.61038e-19)
(0.0166223 -0.00260603 -8.98122e-17)
(-0.00129337 -0.000201348 9.80328e-19)
(-5.28988e-05 -0.000641179 1.60798e-18)
(-9.49465e-05 -0.000559635 -6.06916e-18)
(-0.00884807 -0.00260718 -2.66561e-17)
(-0.0136381 -0.0424108 -1.31299e-17)
(-0.00473579 0.000907704 3.82102e-17)
(-0.00166145 0.00097173 1.54778e-17)
(0.0117654 0.00695948 -1.33095e-17)
(0.000583011 0.000817694 -1.85484e-18)
(-0.000289569 -0.000101999 -1.88374e-19)
(-0.000685806 -0.00122594 -6.92748e-18)
(0.0867844 -0.00915921 1.15087e-17)
(-0.0439303 0.0117139 8.43782e-19)
(0.000730078 -0.00571543 1.08e-17)
(-0.0184798 0.00330273 4.94487e-18)
(-0.00209554 -0.0003671 -1.53042e-18)
(-0.000839742 0.00111166 1.3391e-18)
(-9.1311e-05 -0.0064126 -2.61391e-17)
(-0.00184823 0.00136506 3.27319e-18)
(0.00915031 0.0102807 3.73137e-17)
(-0.000692516 -0.00104724 1.10561e-17)
(0.0168619 -0.00281597 -8.30792e-17)
(0.00754061 -0.0520448 -2.31525e-18)
(-0.00220659 -0.00433193 -1.21776e-17)
(-0.000584412 -0.000713096 -1.88721e-18)
(-5.94856e-05 -2.31472e-06 -1.02728e-18)
(-0.00213484 0.00131761 -3.67044e-18)
(-0.00251127 0.00399896 -4.52604e-18)
(0.0112739 -0.00114979 2.95287e-17)
(-0.0021937 -0.00122906 4.25756e-18)
(-0.00013232 -6.8421e-05 -5.05844e-19)
(-0.000252338 -6.72295e-05 -1.26548e-18)
(8.04177e-06 2.63315e-05 2.06091e-18)
(0.0139404 0.00633255 1.39736e-17)
(-0.00622793 -0.00157947 -2.17251e-18)
(0.000185979 -0.00451673 5.54684e-17)
(-0.00102595 -0.00115961 -3.2949e-18)
(0.113479 -0.106233 -8.56588e-18)
(0.00411033 -0.0248713 8.21321e-18)
(-0.000163955 -0.00923933 -7.18868e-18)
(-0.000858257 0.000812877 2.0096e-18)
(-0.00950452 0.0212178 2.20255e-17)
(-0.000525612 -4.89861e-05 1.93347e-19)
(-0.000212076 -0.000168301 4.71793e-18)
(-0.0104386 0.00563116 1.50162e-17)
(-5.15808e-05 -4.28176e-06 -4.63809e-19)
(-0.000180195 6.02053e-05 -3.21406e-18)
(0.00126295 -0.0087602 3.54181e-17)
(-0.000321814 -0.000131786 -1.20176e-18)
(0.0101871 -0.064591 -1.32831e-17)
(-0.00183965 0.00142786 2.71419e-18)
(-0.000213966 -0.00203996 -1.64467e-19)
(-5.23639e-05 -5.51097e-06 -4.10364e-19)
(-0.00240127 0.00210652 2.27428e-18)
(0.0174065 0.00318798 -9.81136e-18)
(8.46778e-05 0.00170924 -5.62146e-18)
(-9.30202e-05 0.000199847 9.70679e-20)
(6.05099e-06 -0.000228125 6.25202e-18)
(-0.00591766 -0.0159483 1.18931e-18)
(0.00367106 -0.0168153 4.64135e-18)
(1.08415e-06 2.65523e-05 5.15501e-18)
(5.09479e-06 1.67531e-06 -9.89446e-20)
(0.0262921 -0.0372668 1.95569e-18)
(-0.00379432 0.0014595 -2.56792e-18)
(-0.02005 0.00535407 1.62991e-17)
(-0.001496 -0.00550307 3.57972e-18)
(-0.000207325 -0.000192696 4.53948e-18)
(-0.00245173 0.00384438 -1.69426e-17)
(-0.0004875 -0.00157166 8.80745e-18)
(8.70378e-06 2.13202e-06 5.30466e-19)
(-0.00144248 -0.00534684 -1.14108e-16)
(-0.0445308 -0.0140966 5.59618e-18)
(-0.0729799 -0.00366805 -8.06762e-18)
(-0.0062518 -0.0170898 4.48807e-18)
(0.000145056 8.75874e-05 1.24222e-19)
(0.000683804 -0.00427774 -3.04711e-18)
(0.000715331 0.00125591 -9.88993e-19)
(-0.000778305 -0.000696052 -2.60089e-18)
(-0.035099 0.0205761 -2.30026e-17)
(-0.000424891 -0.000409007 1.14279e-18)
(0.0132078 0.0073476 1.10979e-17)
(-0.00372073 -0.003893 -6.01815e-18)
(-0.00010926 -0.00060553 2.77829e-18)
(3.81168e-05 0.000210745 1.90117e-20)
(0.0116954 0.00785396 5.64465e-17)
(0.165108 -0.0205539 -2.64341e-17)
(0.0145283 0.00208849 -8.22744e-17)
(-0.000977425 -0.000112194 2.21651e-19)
(-0.00124728 -0.00211322 4.72865e-18)
(-0.032911 -0.006151 -7.23289e-18)
(0.000149019 0.000377309 5.61459e-19)
(-0.0111289 -0.0428705 8.90684e-18)
(0.000246196 0.00437758 2.73256e-18)
(-0.00235313 -0.00162685 -4.28223e-18)
(-0.00846902 -0.0399275 -3.29798e-18)
(0.000137653 8.6483e-05 -2.05078e-19)
(-0.000540803 -0.00650143 -1.47717e-17)
(-0.000722941 -0.000741967 1.82612e-18)
(-0.00254738 -0.00273264 1.34041e-17)
(-2.64149e-05 -2.39181e-05 -2.33185e-18)
(-0.0190667 0.00498182 -2.01397e-17)
(0.0216454 0.000722931 2.7771e-17)
(-2.24656e-06 3.67897e-05 -2.62374e-20)
(0.0113818 0.0010793 2.56538e-17)
(-0.0015281 0.000787633 -1.35509e-18)
(-5.78542e-05 -0.000589619 4.64225e-19)
(-0.00176071 0.0024764 -2.31302e-17)
(-0.00398314 -0.00416762 3.48231e-17)
(0.00814768 -0.0499359 7.08993e-18)
(0.0189467 -0.0272547 -2.97325e-18)
(0.000894191 -0.0491784 -5.33256e-18)
(-0.000676246 -0.00102268 -3.87952e-18)
(-0.000230113 0.000211505 4.84958e-19)
(-0.043421 0.00893039 1.95456e-17)
(0.000522846 -0.00393387 3.13849e-17)
(-8.13666e-05 -0.000636937 -2.00161e-18)
(-0.0012011 -0.000309136 3.11835e-18)
(-0.0547525 -0.00309117 1.39841e-19)
(-0.0348372 -0.0225208 6.88942e-21)
(-2.39579e-05 -0.00643543 -1.46149e-17)
(-0.0416654 0.00839644 5.06702e-17)
(-7.45448e-05 -0.000806528 3.98287e-18)
(-0.00102391 0.00116713 5.08466e-18)
(0.000249719 -0.00606835 5.59322e-18)
(-0.000472317 -0.000551623 -3.99935e-18)
(-0.00126041 -0.000222414 -1.2671e-18)
(0.0115657 -0.0232267 -4.77504e-18)
(-0.00347768 0.000451933 1.68066e-17)
(-0.000792963 0.00169159 -1.26157e-17)
(0.16852 -0.068171 2.79505e-17)
(3.07324e-06 2.34378e-05 -1.04012e-18)
(-0.00160427 -0.00327968 6.60873e-18)
(-0.0160495 0.00149307 4.09188e-17)
(0.00607056 0.000868198 -4.51214e-17)
(-7.79796e-05 0.000195783 1.75867e-19)
(-0.000405042 -0.000865459 -2.60433e-18)
(-0.000237561 -0.000160436 -4.72214e-19)
(-0.000473077 0.00043895 -1.90015e-19)
(-0.00231714 -0.0038911 -2.47885e-17)
(-0.000466474 0.000475189 -4.49482e-19)
(-0.00266322 0.00180984 -4.08923e-18)
(-0.000232558 -0.00014404 -1.10744e-18)
(-0.00170581 0.000321827 -2.97269e-19)
(-7.12465e-05 -0.000815986 -4.16231e-18)
(0.00013204 -0.00189734 -1.41802e-17)
(-0.000226107 0.000692399 -9.29561e-19)
(-0.000841567 -0.000474742 4.30848e-18)
(-0.000266151 0.000698333 -3.97921e-19)
(-0.000249951 0.000689929 3.39586e-19)
(-0.00136408 -0.000717442 6.34138e-19)
(-0.000412612 -0.00467202 -6.3236e-17)
(0.0359302 -0.068403 5.77489e-19)
(-0.000724312 0.000266222 -7.33702e-20)
(0.0147522 -0.0523827 -1.08433e-17)
(-0.00240888 -0.00191448 2.13526e-18)
(0.0415525 -0.0832309 -1.03321e-17)
(-0.00237633 0.000932738 -3.76585e-18)
(0.000595658 0.00344945 2.05718e-17)
(-0.0006977 -0.0012529 -7.45357e-18)
(0.00640179 -0.0467187 -3.08757e-17)
(0.000105252 -0.00165157 -1.61282e-18)
(-8.96753e-05 -1.33731e-05 -2.10545e-18)
(-6.13357e-05 -0.000673618 -3.28118e-18)
(-4.64294e-05 0.00028587 9.86097e-20)
(0.0139613 -0.0253838 -2.75155e-18)
(-0.0013993 0.00100527 4.23782e-18)
(0.000169882 1.62604e-05 -1.83686e-20)
(-0.00118744 0.000378822 1.71433e-19)
(-0.00265336 0.00172575 -3.92364e-18)
(-0.000495059 -0.00058667 -1.92697e-18)
(0.000167887 0.000369734 -2.18914e-18)
(0.0148923 -0.00349884 -4.34885e-17)
(-0.000666715 -0.00132084 1.57096e-18)
(-0.000537538 -7.5764e-05 4.76909e-19)
(6.23753e-05 -0.006365 -2.15602e-17)
(-0.000299608 -7.57458e-05 -1.81988e-18)
(0.00100598 -0.00572495 7.78629e-17)
(0.00821098 -0.000596784 -2.40487e-17)
(0.0103293 -0.0237812 -4.14083e-17)
(1.26572e-05 -0.00214527 -4.91872e-17)
(0.000710985 0.00134838 2.61977e-18)
(0.0174389 0.00413872 -2.96633e-17)
(1.12938e-05 -4.13633e-06 -8.30888e-19)
(-0.000313566 -0.000126663 2.34799e-18)
(-0.000240031 -0.00624748 -2.43082e-17)
(9.49467e-06 1.78682e-05 -2.22298e-18)
(0.000132727 0.000142693 -1.49362e-19)
(0.0110575 -0.00104404 -1.70965e-17)
(-0.000272604 -0.000131776 -8.02294e-19)
(0.0215445 0.000605975 -1.18985e-17)
(-0.00697822 0.00423243 7.84938e-18)
(-0.0147623 0.0106354 4.23293e-18)
(0.00781938 -0.000987135 6.51084e-17)
(-0.000421964 -0.00156728 -2.5475e-19)
(-0.000294943 -0.000113875 7.08212e-19)
(0.0623876 -0.0385026 9.92242e-18)
(-0.0115497 -0.00529358 -1.16e-17)
(-5.07514e-05 -0.241082 -3.75234e-17)
(0.00647096 -0.0459218 -2.19275e-17)
(-0.000216205 -0.000143248 7.98566e-20)
(-0.000143369 5.92106e-05 2.26175e-18)
(-0.000512874 -0.0013582 5.49736e-18)
(0.0587076 -0.0290553 -1.16045e-17)
(-0.00303222 -0.00229861 -1.19581e-18)
(-0.000827949 -0.000661726 3.85848e-18)
(8.31003e-06 1.41846e-05 4.38251e-19)
(-0.000948981 -0.000863326 2.68006e-18)
(-0.00164625 -0.00339859 -2.03529e-17)
(6.31104e-05 -0.00593352 2.89536e-17)
(-0.00199557 -0.000903459 4.27422e-18)
(-0.000488363 -0.00132485 -3.31325e-18)
(6.19229e-06 3.04582e-05 4.38833e-18)
(-0.00228054 0.000983624 4.83043e-18)
(-0.000206696 -0.0354843 2.89453e-17)
(0.00519211 -0.0181957 -3.61511e-18)
(0.0172862 -0.00277768 -6.79244e-17)
(-0.0153314 -0.0264383 1.34502e-17)
(-0.00112181 -0.00361027 1.0316e-17)
(-0.00186182 -0.00323671 1.88105e-17)
(-0.0376362 -0.00730259 -2.84062e-17)
(6.20224e-05 0.000788714 1.07899e-18)
(-0.000185103 -0.000101455 1.14646e-20)
(1.38448e-05 -0.000228074 -7.95577e-18)
(-0.000706957 0.000277557 -8.45294e-22)
(-0.00209137 -0.00386976 -2.88864e-17)
(-0.000177131 -0.00032916 3.89158e-18)
(0.000172231 1.58487e-05 9.28173e-21)
(0.0029625 -0.000538875 1.06948e-16)
(-0.00157914 -0.00345942 -2.19186e-17)
(-0.0017042 0.00232734 -2.47592e-17)
(-0.0012498 -0.0256265 4.39952e-18)
(-0.00109606 -0.00372606 2.60586e-17)
(0.0661528 -0.00513269 -2.05899e-17)
(-0.00064099 -0.000365907 -2.48726e-18)
(-0.000226183 0.000683562 -3.09302e-19)
(-0.000425479 -0.000543026 7.78011e-18)
(-0.000170314 1.68588e-05 -2.85788e-19)
(5.85721e-06 1.24287e-05 -8.42645e-19)
(-5.80395e-07 3.01927e-05 -1.98387e-18)
(-0.000196696 -0.000223003 -1.68805e-18)
(0.00963525 -0.107298 -8.51634e-18)
(-0.00098483 -4.60939e-05 -1.97397e-19)
(0.000109897 0.000129336 2.00334e-20)
(-0.00989548 0.0203286 1.10222e-17)
(-0.00502247 0.00799788 -2.51896e-17)
(-0.000183938 -8.94973e-05 -2.83354e-18)
(-0.000175047 0.00137401 2.20718e-18)
(-0.00327507 -0.00315936 1.22402e-17)
(-0.00272304 -0.00989809 -7.6841e-17)
(-0.00132534 -0.000891484 2.03672e-18)
(-0.000385771 0.000627233 -4.04614e-19)
(0.00800244 -0.0461118 1.77033e-17)
(-0.000699384 -0.00178433 -6.51768e-18)
(0.0578406 -0.120298 1.2911e-18)
(0.000372209 0.00465138 -5.12146e-18)
(-0.000501455 0.000427916 1.32047e-19)
(0.000685484 -0.000469833 -2.11583e-17)
(-0.0046267 0.00828241 3.73633e-17)
(-0.000217483 0.000100748 1.05379e-19)
(0.00718032 0.00952537 1.39908e-17)
(0.00215757 -0.0832106 4.47878e-18)
(0.00964091 -0.00671849 1.48336e-16)
(-0.000507577 0.000387395 -4.50843e-20)
(-0.000360282 0.000618611 -7.73491e-21)
(-0.00198277 6.32457e-05 -4.50846e-19)
(-0.00888929 -0.0155095 4.08038e-18)
(-0.000283107 -0.00152334 -1.87708e-17)
(0.103885 -0.106199 -1.76173e-17)
(0.050764 -0.0284744 3.32588e-18)
(0.0114252 -0.0515085 3.11301e-18)
(-0.0189091 0.0134766 1.65415e-17)
(-3.17702e-05 0.00028256 3.98664e-20)
(-0.00683857 0.00469356 -1.18792e-17)
(0.0503622 -0.013756 -1.54322e-17)
(-0.0484813 -0.000328324 3.7739e-17)
(0.0458285 -0.0321925 -5.44967e-18)
(-0.000455421 -0.00121279 3.63554e-18)
(-0.00185775 -0.00103561 8.89607e-19)
(-0.00208173 -0.000526427 2.9305e-18)
(-0.0521471 -0.00697327 1.60478e-17)
(0.00435856 -0.000813843 2.98557e-17)
(0.00414695 -0.0340717 9.32925e-18)
(-0.00070752 -0.00113071 -4.83562e-18)
(-0.000260163 -0.000239925 -1.3251e-18)
(-2.44132e-05 -0.000820187 -1.10276e-18)
(-0.00308513 -0.00239813 -2.71716e-19)
(-0.000192251 -0.000256703 1.56554e-18)
(0.0592016 -0.0399681 -1.72067e-18)
(-0.00214648 -0.000573655 -4.73622e-18)
(0.0284645 -0.0251416 -2.77144e-18)
(-0.000258013 -0.000597313 1.84535e-18)
(-0.000916523 -0.000851067 -2.04018e-18)
(-5.62936e-05 -1.25531e-06 1.28132e-18)
(-0.000610727 -0.0025998 9.55821e-18)
(-0.00279049 -0.000286702 -3.44092e-19)
(-0.00211699 -0.0353447 -1.76918e-17)
(-0.00028712 -2.8685e-05 1.73713e-18)
(-0.0047724 -0.0107445 -1.12343e-17)
(-0.000513088 -0.0159325 2.08067e-17)
(-0.00236168 0.00371717 -3.7509e-18)
(-0.000588155 -0.000700969 -1.00818e-18)
(-0.000590756 -0.00184886 -8.25168e-19)
(-0.00185075 0.00506083 5.54724e-18)
(6.89471e-06 2.20754e-05 -9.55482e-19)
(-0.00161869 0.00117102 -3.62461e-18)
(-0.00333946 0.00027026 -1.56098e-17)
(-0.00225155 0.00350977 3.32361e-18)
(-0.00801711 0.00579434 -6.07596e-18)
(-0.00123362 -0.000294812 -3.16625e-18)
(-0.000206218 0.000108211 5.30365e-19)
(1.43801e-05 -0.000232579 6.02516e-18)
(-1.28107e-06 3.66176e-05 2.11729e-18)
(-0.00243875 0.00195245 2.21211e-17)
(-0.000727074 0.00172839 4.87213e-18)
(-0.00309351 -0.00394503 7.46365e-18)
(-0.000618092 -0.000373643 2.0093e-18)
(0.000350236 0.00117379 -1.17661e-18)
(-0.0116345 -0.257062 2.5899e-17)
(0.000129387 9.24809e-05 -2.02721e-19)
(0.000346437 -0.00270762 -1.75707e-17)
(-0.000289838 -0.00161686 7.11554e-18)
(-0.00929403 0.00146846 7.98732e-18)
(-0.00021578 -0.00200246 -6.83128e-18)
(0.0110885 -0.0249548 3.12502e-18)
(-0.000859067 0.000997753 3.14664e-18)
(-0.0332323 -0.000651701 1.47438e-17)
(-0.000866545 -0.00194663 7.46807e-18)
(-0.000410954 -0.00193599 -3.48875e-18)
(0.0134869 -0.0513142 -2.77313e-18)
(-0.00783387 -0.278945 3.72275e-17)
(-0.0435858 0.00898156 1.48662e-17)
(-0.00216812 0.00402228 -1.77896e-18)
(-0.00135518 0.00100334 2.55263e-18)
(-0.000530981 0.000376016 8.93879e-20)
(-0.000259407 -0.000186735 -1.08909e-17)
(-0.0248848 -0.00393156 -2.29005e-18)
(-0.0021795 0.00246372 -1.57489e-17)
(-0.0024769 -0.00146868 -6.0889e-18)
(-0.00589286 -0.00196912 1.13521e-18)
(0.00761954 -0.0992707 3.23072e-17)
(-0.049566 -0.00678318 4.78741e-18)
(-6.18077e-05 4.08939e-06 -9.54496e-19)
(0.010721 0.00311038 1.45321e-17)
(-0.0212157 -0.0123249 9.63981e-18)
(-8.68888e-05 0.00146899 -2.78096e-18)
(-0.000278416 -0.000208133 1.0565e-17)
(0.000286124 -0.00272188 -1.92106e-17)
(-0.0149276 -0.0224376 8.86449e-18)
(-0.00220978 0.0012925 7.26849e-18)
(6.61726e-06 -7.95358e-05 -3.66434e-18)
(-0.000177974 -0.00385302 -8.19463e-19)
(-0.00770234 0.0054274 6.6549e-18)
(-0.00416193 0.00237599 -3.82745e-18)
(-0.000583383 -0.00250631 2.05585e-17)
(-0.000882336 -0.00740293 5.25614e-18)
(-0.00134893 0.00163426 -6.65325e-18)
(0.00187599 -0.00710084 -5.73967e-18)
(0.0156021 -0.0047808 -3.17645e-18)
(-0.00624999 -0.0397052 -2.55627e-17)
(-0.0326954 0.0222485 -1.02091e-17)
(-0.00201799 -0.00354131 -8.32031e-19)
(-0.00845729 -0.00253456 2.6295e-17)
(-0.00166377 0.00125942 -1.14735e-17)
(-6.27872e-05 -2.19984e-05 1.23325e-19)
(-7.04263e-05 0.00152787 9.10158e-18)
(-0.000455762 -0.000639544 -1.87548e-18)
(0.000123322 -0.00516541 -7.17663e-17)
(0.000616339 -0.00517904 -3.04477e-18)
(0.0565107 -0.00942508 8.14221e-19)
(-0.000364153 -0.00458195 -6.21076e-17)
(0.01396 0.00612645 1.46152e-17)
(0.00862992 -0.0184887 4.79538e-17)
(-0.000138611 -0.00376249 -1.1327e-17)
(-0.00141287 -0.000960749 2.10624e-18)
(0.0417457 -0.00586775 -1.12309e-17)
(-0.025797 0.00311027 5.82378e-17)
(0.000160535 0.000171683 9.38885e-19)
(-0.000326959 -0.00472858 -7.38766e-17)
(-0.033545 -0.0536446 -1.02897e-17)
(-0.0693988 0.0256005 -2.33282e-17)
(-0.00205288 -0.00084072 6.42987e-20)
(1.20359e-06 0.000228888 1.0211e-19)
(-0.00132431 0.0015906 1.95303e-18)
(-0.00130681 0.00213091 8.70748e-18)
(-0.00159462 0.00519665 -9.16683e-18)
(0.00322294 -0.00063722 -2.23793e-17)
(-0.000436905 -0.000441431 -3.95124e-18)
(-0.0239414 -0.00210218 1.20475e-18)
(-0.00136577 -0.000777448 -5.83011e-18)
(-0.00140234 -0.00128115 1.24662e-17)
(-0.0506637 -0.00809524 -2.75446e-17)
(-0.000567608 -0.000430767 2.62111e-21)
(-0.00285022 -0.000377838 -6.32599e-19)
(0.0477573 -0.0336983 4.61626e-18)
(-0.000288313 -8.14794e-05 1.10633e-19)
(-0.00121218 0.000769193 -1.23973e-18)
(-0.0306703 0.0160125 -1.10049e-17)
(-8.70733e-05 -1.92104e-05 4.90072e-19)
(-0.00553713 -0.0108725 1.96144e-18)
(0.00013068 9.3884e-05 2.56491e-19)
(0.0113946 -0.0468805 2.427e-18)
(-0.00225301 0.00421204 4.41785e-18)
(-0.00564137 0.00217893 -1.67495e-18)
(-0.0024741 -0.00157509 -6.87178e-18)
(-0.00178871 0.000758181 -7.33915e-19)
(-0.00817361 -0.0147179 -2.75006e-18)
(6.9587e-05 -0.00209072 3.50014e-18)
(0.109741 -0.0913954 2.33211e-18)
(-0.0169997 0.00108899 9.32713e-18)
(0.000313558 0.000703109 2.30059e-19)
(-0.0659713 0.000225827 3.73717e-17)
(-0.00600335 0.00229238 6.99014e-18)
(-0.000771106 -0.00717214 1.57962e-17)
(0.0184212 -0.0013091 4.35993e-17)
(-0.00450565 0.0203051 -2.52193e-19)
(0.000416912 -0.0334363 -1.14405e-17)
(-0.000443086 -0.000495169 -1.84249e-18)
(-6.47286e-05 0.000322917 -3.3865e-20)
(0.0034186 -0.0797594 2.97002e-18)
(-0.000616458 -0.00187037 2.90206e-18)
(-0.00161082 0.0011678 -5.2964e-18)
(1.95673e-05 -2.41428e-05 1.04743e-18)
(-0.00169017 0.00125647 1.59544e-17)
(-0.0139064 -0.0266711 -1.50588e-17)
(0.00366768 -0.0278191 1.18066e-17)
(-0.002576 0.00194579 -2.37152e-17)
(-0.0498668 -0.0012647 -4.8527e-18)
(-0.00201672 -0.00376802 -9.19829e-18)
(-0.00152596 -0.000202297 4.98891e-19)
(-4.95546e-06 0.000242362 1.39931e-19)
(1.87088e-05 -6.02318e-05 3.8781e-18)
(-0.00105204 0.000343377 -1.64831e-17)
(-0.00616568 -0.00137149 1.0202e-17)
(-0.000100787 0.000529198 -5.60747e-19)
(-0.0472732 0.00950635 3.70992e-17)
(-0.00230315 -0.000809276 1.67307e-18)
(-0.00385974 0.00130352 -1.26096e-17)
(0.000162271 1.1871e-05 -5.58299e-20)
(0.00967738 0.00940558 1.40135e-17)
(0.0164176 -0.00306603 5.12549e-17)
(-0.00047142 -0.000699519 -3.85979e-18)
(0.000151951 0.00016952 -1.16094e-19)
(-0.0130847 -0.00459849 4.63044e-18)
(1.11187e-05 -1.19341e-05 7.54181e-19)
(-0.000222636 0.000128536 2.36167e-19)
(0.0103758 -0.0228181 2.02019e-17)
(-0.000392662 -0.00475175 5.92003e-17)
(-0.000448792 -0.00147451 -1.82588e-18)
(-0.000276212 -0.000197552 4.32526e-19)
(-0.0395216 0.00058982 -8.85848e-19)
(-0.00198092 0.00228083 -1.35248e-17)
(-0.00057614 0.00445657 2.15127e-18)
(0.00047946 -0.00383954 3.23951e-17)
(-0.000828088 -0.000458869 2.59064e-19)
(0.0472928 -0.0156411 1.04875e-17)
(-0.00413454 -0.0017866 -2.30096e-17)
(-0.000634459 -0.0011733 -7.84185e-19)
(-0.000443783 -0.00516949 -1.29977e-16)
(-0.0522724 0.000642021 -1.46529e-17)
(-0.000192877 5.04654e-05 -3.13234e-18)
(0.00279467 -0.030159 1.68141e-18)
(-8.69392e-05 0.000233179 6.32085e-19)
(-0.000290908 -6.29918e-05 -3.33778e-20)
(-0.000247385 -0.0015211 -3.75385e-19)
(8.96819e-05 -0.00291567 2.23956e-17)
(0.0144295 -0.00438428 -8.25814e-18)
(-0.00154558 0.000855565 -3.63715e-19)
(0.01703 -0.00605994 1.5969e-17)
(-0.00285965 -0.000601634 2.20682e-19)
(0.0650371 -0.0507306 -7.97629e-19)
(-0.0215252 0.0123253 1.46125e-17)
(-0.00164244 0.00121695 2.23838e-18)
(0.012933 0.00566095 1.11746e-17)
(-0.0004277 -0.000913447 -6.08428e-18)
(-0.0259096 0.00278451 1.81937e-17)
(-0.000175926 0.00143582 -2.2346e-18)
(0.110942 -0.0638087 -3.00426e-18)
(0.028955 -0.00916249 -4.14894e-18)
(-0.000852491 -0.000879588 4.86982e-18)
(-0.000107598 -0.00616033 -1.39507e-17)
(-0.0018812 7.54223e-05 2.32811e-19)
(-0.000892428 -0.00198549 -1.19609e-17)
(-0.036319 0.00746434 4.33091e-17)
(-0.000411794 -0.00423606 1.78899e-17)
(0.0179223 0.00440517 -9.30704e-18)
(-0.000215327 -0.000136492 1.09549e-18)
(0.0108475 -0.0255578 -2.63592e-18)
(-0.000239298 -0.000373005 3.81566e-18)
(0.095891 -0.0885142 -1.48513e-18)
(-4.11446e-05 0.000872181 1.10651e-18)
(-0.00210132 -0.000691811 1.14619e-18)
(-0.00185464 0.0046522 1.05785e-17)
(-0.00032245 -0.000180194 1.52889e-18)
(6.89165e-05 4.49957e-05 4.6085e-20)
(-0.00733378 -0.000604578 -1.06302e-17)
(0.00929622 -0.0556964 -3.51228e-17)
(-0.0573659 0.0253148 1.17546e-17)
(-0.000141547 6.03894e-05 -2.18048e-18)
(-0.000535576 -0.00558345 -3.41095e-17)
(-0.00159129 0.00122185 -4.40278e-18)
(-0.000313283 -0.000195207 -5.32143e-19)
(-2.51813e-05 -0.000845216 -2.56001e-18)
(-0.0015433 -0.0017211 1.98763e-18)
(-0.00236431 -0.0150579 8.30414e-18)
(-0.0313855 0.00534692 -5.12044e-17)
(-0.00159913 0.00088987 -2.59079e-17)
(-6.89471e-05 2.12589e-06 2.34993e-19)
(-0.00218717 0.000174628 1.54656e-18)
(0.0258335 -0.0214 7.4977e-19)
(-0.00205114 -0.000738907 3.18461e-18)
(-0.000426383 -0.00041874 4.68462e-19)
(-0.000336504 -0.000182344 -2.58725e-18)
(-0.00225818 0.000188091 -1.90421e-18)
(-0.00170963 0.000990161 -8.34436e-18)
(-0.0289681 -0.00238453 1.29389e-17)
(-0.000543287 -0.000422942 4.09936e-20)
(-0.00852573 -0.00694355 1.48735e-17)
(-0.0026493 -0.00302916 2.77079e-17)
(-0.00211435 -0.0138363 4.88112e-18)
(0.00929843 -0.00628699 -2.12454e-17)
(-0.0465367 -0.0450447 2.36047e-17)
(4.75841e-05 0.000180125 4.60582e-20)
(-0.0129203 0.00952812 1.60281e-18)
(-0.000491873 -0.000489301 -2.25073e-18)
(-0.00108147 1.18462e-05 -5.63736e-19)
(-0.0019263 0.00154604 -1.33737e-18)
(-0.0334895 -0.0715905 -1.45224e-17)
(-0.000111472 -5.33278e-05 -1.74168e-18)
(-0.000535738 0.000336793 -6.09088e-21)
(1.87212e-05 2.50189e-05 5.42882e-19)
(-0.0306211 0.00414581 3.67339e-17)
(-0.000839636 -0.00157632 5.67212e-18)
(0.000341771 0.000737208 -2.2773e-18)