/*--------------------------------*- C++ -*----------------------------------*\
| =========                 |                                                 |
| \\      /  F ield         | OpenFOAM: The Open Source CFD Toolbox           |
|  \\    /   O peration     | Version:  v2012                                 |
|   \\  /    A nd           | Website:  www.openfoam.com                      |
|    \\/     M anipulation  |                                                 |
\*---------------------------------------------------------------------------*/
FoamFile
{
    version     2.0;
    format      ascii;
    class       pointVectorField;
    location    "500";
    object      pointDisplacement;
}
// * * * * * * * * * * * * * * * * * * * * * * * * * * * * * * * * * * * * * //

dimensions      [0 1 0 0 0 0 0];


internalField   nonuniform List<vector> 
19220
(
(0 0 0)
(0 1.28219e-05 0)
(0 1.28219e-05 0)
(0 0 0)
(0 1.28219e-05 0)
(0 1.28219e-05 0)
(0 0 0)
(0 0 0)
(0 0 0)
(0 0 0)
(0 0 0)
(0 0 0)
(0 0 0)
(0 0 0)
(0 0 0)
(0 0 0)
(0 0 0)
(0 0 0)
(0 0 0)
(0 0 0)
(0 0 0)
(0 0 0)
(0 0 0)
(0 0 0)
(0 0 0)
(0 0 0)
(0 0 0)
(0 0 0)
(0 0 0)
(0 0 0)
(0 0 0)
(0 0 0)
(0 0 0)
(0 0 0)
(0 0 0)
(0 0 0)
(0 0 0)
(0 0 0)
(0 0 0)
(0 0 0)
(0 0 0)
(0 0 0)
(0 0 0)
(0 0 0)
(0 0 0)
(0 0 0)
(0 0 0)
(0 0 0)
(0 0 0)
(0 0 0)
(0 0 0)
(0 0 0)
(0 0 0)
(0 0 0)
(0 0 0)
(0 0 0)
(0 0 0)
(0 0 0)
(0 0 0)
(0 0 0)
(0 0 0)
(0 0 0)
(0 0 0)
(0 0 0)
(0 0 0)
(0 0 0)
(0 0 0)
(0 0 0)
(0 0 0)
(0 0 0)
(0 0 0)
(0 0 0)
(0 0 0)
(0 0 0)
(0 0 0)
(0 0 0)
(0 0 0)
(0 0 0)
(0 0 0)
(0 0 0)
(0 0 0)
(0 0 0)
(0 0 0)
(0 0 0)
(0 0 0)
(0 0 0)
(0 0 0)
(0 0 0)
(0 0 0)
(0 0 0)
(0 0 0)
(0 0 0)
(0 0 0)
(0 0 0)
(0 0 0)
(0 1.28219e-05 0)
(0 1.28219e-05 0)
(0 1.28219e-05 0)
(0 1.28219e-05 0)
(0 1.28219e-05 0)
(0 1.28219e-05 0)
(0 1.28219e-05 0)
(0 1.28219e-05 0)
(0 1.28219e-05 0)
(0 1.28219e-05 0)
(0 1.28219e-05 0)
(0 1.28219e-05 0)
(0 1.28219e-05 0)
(0 1.28219e-05 0)
(0 1.28219e-05 0)
(0 1.28219e-05 0)
(0 1.28219e-05 0)
(0 1.28219e-05 0)
(0 1.28219e-05 0)
(0 1.28219e-05 0)
(0 1.28219e-05 0)
(0 1.28219e-05 0)
(0 1.28219e-05 0)
(0 1.28219e-05 0)
(0 1.28219e-05 0)
(0 1.28219e-05 0)
(0 1.28219e-05 0)
(0 1.28219e-05 0)
(0 1.28219e-05 0)
(0 1.28219e-05 0)
(0 1.28219e-05 0)
(0 1.28219e-05 0)
(0 1.28219e-05 0)
(0 1.28219e-05 0)
(0 1.28219e-05 0)
(0 1.28219e-05 0)
(0 1.28219e-05 0)
(0 1.28219e-05 0)
(0 1.28219e-05 0)
(0 1.28219e-05 0)
(0 1.28219e-05 0)
(0 1.28219e-05 0)
(0 1.28219e-05 0)
(0 1.28219e-05 0)
(0 1.28219e-05 0)
(0 1.28219e-05 0)
(0 1.28219e-05 0)
(0 1.28219e-05 0)
(0 1.28219e-05 0)
(0 1.28219e-05 0)
(0 1.28219e-05 0)
(0 1.28219e-05 0)
(0 1.28219e-05 0)
(0 1.28219e-05 0)
(0 1.28219e-05 0)
(0 1.28219e-05 0)
(0 1.28219e-05 0)
(0 1.28219e-05 0)
(0 1.28219e-05 0)
(0 1.28219e-05 0)
(0 1.28219e-05 0)
(0 1.28219e-05 0)
(0 1.28219e-05 0)
(0 1.28219e-05 0)
(0 1.28219e-05 0)
(0 1.28219e-05 0)
(0 1.28219e-05 0)
(0 1.28219e-05 0)
(0 1.28219e-05 0)
(0 1.28219e-05 0)
(0 1.28219e-05 0)
(0 1.28219e-05 0)
(0 1.28219e-05 0)
(0 1.28219e-05 0)
(0 1.28219e-05 0)
(0 1.28219e-05 0)
(0 1.28219e-05 0)
(0 1.28219e-05 0)
(0 1.28219e-05 0)
(0 1.28219e-05 0)
(0 1.28219e-05 0)
(0 1.28219e-05 0)
(0 1.28219e-05 0)
(0 1.28219e-05 0)
(0 1.28219e-05 0)
(0 1.28219e-05 0)
(0 1.28219e-05 0)
(0 1.28219e-05 0)
(0 1.28219e-05 0)
(0 1.28219e-05 0)
(0 1.28219e-05 0)
(0 1.28219e-05 0)
(0 1.28219e-05 0)
(0 1.28219e-05 0)
(0 1.28219e-05 0)
(0 1.28219e-05 0)
(0 1.28219e-05 0)
(0 1.28219e-05 0)
(0 1.28219e-05 0)
(0 1.28219e-05 0)
(0 1.28219e-05 0)
(0 1.28219e-05 0)
(0 1.28219e-05 0)
(0 1.28219e-05 0)
(0 1.28219e-05 0)
(0 1.28219e-05 0)
(0 1.28219e-05 0)
(0 1.28219e-05 0)
(0 1.28219e-05 0)
(0 1.28219e-05 0)
(0 1.28219e-05 0)
(0 1.28219e-05 0)
(0 1.28219e-05 0)
(0 1.28219e-05 0)
(0 1.28219e-05 0)
(0 1.28219e-05 0)
(0 1.28219e-05 0)
(0 1.28219e-05 0)
(0 1.28219e-05 0)
(0 1.28219e-05 0)
(0 1.28219e-05 0)
(0 1.28219e-05 0)
(0 1.28219e-05 0)
(0 1.28219e-05 0)
(0 1.28219e-05 0)
(0 1.28219e-05 0)
(0 1.28219e-05 0)
(0 1.28219e-05 0)
(0 0 0)
(0 0 0)
(0 0 0)
(0 0 0)
(0 0 0)
(0 0 0)
(0 0 0)
(0 0 0)
(0 0 0)
(0 0 0)
(0 0 0)
(0 0 0)
(0 0 0)
(0 0 0)
(0 0 0)
(0 0 0)
(0 0 0)
(0 0 0)
(0 0 0)
(0 0 0)
(0 0 0)
(0 0 0)
(0 0 0)
(0 0 0)
(0 0 0)
(0 0 0)
(0 0 0)
(0 0 0)
(0 0 0)
(0 0 0)
(0 0 0)
(0 0 0)
(0 0 0)
(0 0 0)
(0 0 0)
(0 0 0)
(0 0 0)
(0 0 0)
(0 0 0)
(0 0 0)
(0 0 0)
(0 0 0)
(0 0 0)
(0 0 0)
(0 0 0)
(0 0 0)
(0 0 0)
(0 0 0)
(0 0 0)
(0 0 0)
(0 0 0)
(0 0 0)
(0 0 0)
(0 0 0)
(0 0 0)
(0 0 0)
(0 0 0)
(0 0 0)
(0 0 0)
(0 0 0)
(0 0 0)
(0 0 0)
(0 0 0)
(0 0 0)
(0 0 0)
(0 0 0)
(0 0 0)
(0 0 0)
(0 0 0)
(0 0 0)
(0 0 0)
(0 0 0)
(0 0 0)
(0 0 0)
(0 0 0)
(0 0 0)
(0 0 0)
(0 0 0)
(0 0 0)
(0 0 0)
(0 0 0)
(0 0 0)
(0 0 0)
(0 0 0)
(0 0 0)
(0 0 0)
(0 0 0)
(0 0 0)
(0 0 0)
(0 1.28219e-05 0)
(0 1.28219e-05 0)
(0 1.28219e-05 0)
(0 1.28219e-05 0)
(0 1.28219e-05 0)
(0 1.28219e-05 0)
(0 1.28219e-05 0)
(0 1.28219e-05 0)
(0 1.28219e-05 0)
(0 1.28219e-05 0)
(0 1.28219e-05 0)
(0 1.28219e-05 0)
(0 1.28219e-05 0)
(0 1.28219e-05 0)
(0 1.28219e-05 0)
(0 1.28219e-05 0)
(0 1.28219e-05 0)
(0 1.28219e-05 0)
(0 1.28219e-05 0)
(0 1.28219e-05 0)
(0 1.28219e-05 0)
(0 1.28219e-05 0)
(0 1.28219e-05 0)
(0 1.28219e-05 0)
(0 1.28219e-05 0)
(0 1.28219e-05 0)
(0 1.28219e-05 0)
(0 1.28219e-05 0)
(0 1.28219e-05 0)
(0 1.28219e-05 0)
(0 1.28219e-05 0)
(0 1.28219e-05 0)
(0 1.28219e-05 0)
(0 1.28219e-05 0)
(0 1.28219e-05 0)
(0 1.28219e-05 0)
(0 1.28219e-05 0)
(0 1.28219e-05 0)
(0 1.28219e-05 0)
(0 1.28219e-05 0)
(0 1.28219e-05 0)
(0 1.28219e-05 0)
(0 1.28219e-05 0)
(0 1.28219e-05 0)
(0 1.28219e-05 0)
(0 1.28219e-05 0)
(0 1.28219e-05 0)
(0 1.28219e-05 0)
(0 1.28219e-05 0)
(0 1.28219e-05 0)
(0 1.28219e-05 0)
(0 1.28219e-05 0)
(0 1.28219e-05 0)
(0 1.28219e-05 0)
(0 1.28219e-05 0)
(0 1.28219e-05 0)
(0 1.28219e-05 0)
(0 1.28219e-05 0)
(0 1.28219e-05 0)
(0 1.28219e-05 0)
(0 1.28219e-05 0)
(0 1.28219e-05 0)
(0 1.28219e-05 0)
(0 1.28219e-05 0)
(0 1.28219e-05 0)
(0 1.28219e-05 0)
(0 1.28219e-05 0)
(0 1.28219e-05 0)
(0 1.28219e-05 0)
(0 1.28219e-05 0)
(0 1.28219e-05 0)
(0 1.28219e-05 0)
(0 1.28219e-05 0)
(0 1.28219e-05 0)
(0 1.28219e-05 0)
(0 1.28219e-05 0)
(0 1.28219e-05 0)
(0 1.28219e-05 0)
(0 1.28219e-05 0)
(0 1.28219e-05 0)
(0 1.28219e-05 0)
(0 1.28219e-05 0)
(0 1.28219e-05 0)
(0 1.28219e-05 0)
(0 1.28219e-05 0)
(0 1.28219e-05 0)
(0 1.28219e-05 0)
(0 1.28219e-05 0)
(0 1.28219e-05 0)
(0 1.28219e-05 0)
(0 1.28219e-05 0)
(0 1.28219e-05 0)
(0 1.28219e-05 0)
(0 1.28219e-05 0)
(0 1.28219e-05 0)
(0 1.28219e-05 0)
(0 1.28219e-05 0)
(0 1.28219e-05 0)
(0 1.28219e-05 0)
(0 1.28219e-05 0)
(0 1.28219e-05 0)
(0 1.28219e-05 0)
(0 1.28219e-05 0)
(0 1.28219e-05 0)
(0 1.28219e-05 0)
(0 1.28219e-05 0)
(0 1.28219e-05 0)
(0 1.28219e-05 0)
(0 1.28219e-05 0)
(0 1.28219e-05 0)
(0 1.28219e-05 0)
(0 1.28219e-05 0)
(0 1.28219e-05 0)
(0 1.28219e-05 0)
(0 1.28219e-05 0)
(0 1.28219e-05 0)
(0 1.28219e-05 0)
(0 1.28219e-05 0)
(0 1.28219e-05 0)
(0 1.28219e-05 0)
(0 1.28219e-05 0)
(0 1.28219e-05 0)
(0 1.28219e-05 0)
(0 1.28219e-05 0)
(0 1.28219e-05 0)
(0 1.28219e-05 0)
(0 1.28219e-05 0)
(0 1.28219e-05 0)
(0 1.2821e-05 0)
(0 1.28218e-05 0)
(0 1.28217e-05 0)
(0 1.28218e-05 0)
(0 1.28213e-05 0)
(0 1.2822e-05 0)
(0 1.28272e-05 0)
(0 1.28231e-05 0)
(0 1.28218e-05 0)
(0 1.28217e-05 0)
(0 1.28218e-05 0)
(0 1.28252e-05 0)
(0 1.2825e-05 0)
(0 1.28222e-05 0)
(0 6.24533e-06 0)
(0 1.28173e-05 0)
(0 1.70541e-05 0)
(0 7.52134e-06 0)
(0 -2.48236e-06 0)
(0 7.34228e-06 0)
(0 4.70115e-06 0)
(0 7.89493e-06 0)
(0 1.04991e-05 0)
(0 1.28221e-05 0)
(0 1.28254e-05 0)
(0 1.28213e-05 0)
(0 1.2822e-05 0)
(0 1.28282e-05 0)
(0 1.28221e-05 0)
(0 1.2823e-05 0)
(0 1.28229e-05 0)
(0 1.28224e-05 0)
(0 1.28218e-05 0)
(0 7.29858e-06 0)
(0 5.96364e-06 0)
(0 2.39126e-06 0)
(0 1.28235e-05 0)
(0 1.28232e-05 0)
(0 1.28216e-05 0)
(0 7.27984e-06 0)
(0 4.49963e-06 0)
(0 5.4029e-06 0)
(0 6.33882e-06 0)
(0 3.20686e-06 0)
(0 1.11576e-05 0)
(0 1.41254e-05 0)
(0 1.41713e-05 0)
(0 4.57765e-06 0)
(0 7.51014e-06 0)
(0 1.28209e-05 0)
(0 3.63364e-06 0)
(0 2.13757e-06 0)
(0 -4.16337e-08 0)
(0 6.48049e-06 0)
(0 -5.67746e-06 0)
(0 6.86464e-06 0)
(0 9.89539e-06 0)
(0 3.11469e-06 0)
(0 8.47101e-06 0)
(0 5.19675e-06 0)
(0 2.71939e-06 0)
(0 1.68946e-06 0)
(0 3.91906e-06 0)
(0 8.02774e-06 0)
(0 9.85974e-06 0)
(0 1.14123e-05 0)
(0 1.30478e-05 0)
(0 1.3823e-05 0)
(0 1.49527e-05 0)
(0 1.47956e-05 0)
(0 1.50807e-05 0)
(0 1.41355e-05 0)
(0 1.34281e-05 0)
(0 1.20366e-05 0)
(0 1.20832e-05 0)
(0 8.84215e-06 0)
(0 8.66709e-06 0)
(0 5.91116e-06 0)
(0 5.52509e-06 0)
(0 3.55597e-06 0)
(0 3.31024e-06 0)
(0 1.81959e-06 0)
(0 1.42423e-06 0)
(0 8.84239e-09 0)
(0 -7.03784e-07 0)
(0 -2.26713e-06 0)
(0 -3.00574e-06 0)
(0 -4.74072e-06 0)
(0 -3.66024e-06 0)
(0 -6.05723e-06 0)
(0 -4.98689e-06 0)
(0 -7.62379e-06 0)
(0 -6.82386e-06 0)
(0 -9.89248e-06 0)
(0 -9.50686e-06 0)
(0 -1.30678e-05 0)
(0 -1.33252e-05 0)
(0 -1.70403e-05 0)
(0 -1.77504e-05 0)
(0 -2.14694e-05 0)
(0 -2.24227e-05 0)
(0 -2.06953e-05 0)
(0 -2.50603e-05 0)
(0 -2.44546e-05 0)
(0 -2.81951e-05 0)
(0 -2.69302e-05 0)
(0 -3.03751e-05 0)
(0 -2.83962e-05 0)
(0 -3.12506e-05 0)
(0 -2.90225e-05 0)
(0 -3.12728e-05 0)
(0 -2.89818e-05 0)
(0 -3.08849e-05 0)
(0 -3.26996e-05 0)
(0 -2.89672e-05 0)
(0 -3.05812e-05 0)
(0 -2.92212e-05 0)
(0 -3.05843e-05 0)
(0 -2.9386e-05 0)
(0 -3.04948e-05 0)
(0 -2.92586e-05 0)
(0 -3.03034e-05 0)
(0 -2.91788e-05 0)
(0 -3.02061e-05 0)
(0 -2.93494e-05 0)
(0 -3.03395e-05 0)
(0 -3.08678e-05 0)
(0 -2.98668e-05 0)
(0 -3.08228e-05 0)
(0 -3.05217e-05 0)
(0 -3.14021e-05 0)
(0 -3.08707e-05 0)
(0 -3.17246e-05 0)
(0 -3.08731e-05 0)
(0 -3.17433e-05 0)
(0 -3.08189e-05 0)
(0 -3.16911e-05 0)
(0 -3.0812e-05 0)
(0 -3.15083e-05 0)
(0 -3.07423e-05 0)
(0 -3.13264e-05 0)
(0 -3.05442e-05 0)
(0 -3.10487e-05 0)
(0 -3.01925e-05 0)
(0 -3.05837e-05 0)
(0 -2.96203e-05 0)
(0 -2.99337e-05 0)
(0 -2.88702e-05 0)
(0 -2.91521e-05 0)
(0 -2.81117e-05 0)
(0 -2.82994e-05 0)
(0 -3.22664e-05 0)
(0 -2.73727e-05 0)
(0 -2.74766e-05 0)
(0 -2.96855e-05 0)
(0 -2.66373e-05 0)
(0 -2.67069e-05 0)
(0 -2.59044e-05 0)
(0 -2.61588e-05 0)
(0 -2.53539e-05 0)
(0 -2.58334e-05 0)
(0 -2.50767e-05 0)
(0 -2.56546e-05 0)
(0 -2.49516e-05 0)
(0 -2.5536e-05 0)
(0 -2.46598e-05 0)
(0 -2.49916e-05 0)
(0 -2.55269e-05 0)
(0 -2.51234e-05 0)
(0 -2.55514e-05 0)
(0 -2.51856e-05 0)
(0 -2.5681e-05 0)
(0 -2.52966e-05 0)
(0 -2.59061e-05 0)
(0 -2.98358e-05 0)
(0 -2.5527e-05 0)
(0 -2.61894e-05 0)
(0 -2.44591e-05 0)
(0 -3.00543e-05 0)
(0 -2.58487e-05 0)
(0 -2.65077e-05 0)
(0 -2.6294e-05 0)
(0 -2.70444e-05 0)
(0 -2.69702e-05 0)
(0 -2.78645e-05 0)
(0 -2.78309e-05 0)
(0 -2.87441e-05 0)
(0 -2.85597e-05 0)
(0 -2.94107e-05 0)
(0 -2.96768e-05 0)
(0 -3.03343e-05 0)
(0 -2.98768e-05 0)
(0 -3.08796e-05 0)
(0 -3.14272e-05 0)
(0 -3.21613e-05 0)
(0 -3.1459e-05 0)
(0 -3.29772e-05 0)
(0 -3.37258e-05 0)
(0 -3.47199e-05 0)
(0 -3.55972e-05 0)
(0 -3.67678e-05 0)
(0 -3.56671e-05 0)
(0 -3.78969e-05 0)
(0 -3.66481e-05 0)
(0 -3.90011e-05 0)
(0 -4.05214e-05 0)
(0 -4.18023e-05 0)
(0 -4.34746e-05 0)
(0 -4.48701e-05 0)
(0 -4.30167e-05 0)
(0 -4.60206e-05 0)
(0 -4.78766e-05 0)
(0 -4.90653e-05 0)
(0 -4.65651e-05 0)
(0 -5.01986e-05 0)
(0 -5.22865e-05 0)
(0 -5.3736e-05 0)
(0 -5.13583e-05 0)
(0 -5.512e-05 0)
(0 -5.75652e-05 0)
(0 -5.92589e-05 0)
(0 -5.65479e-05 0)
(0 -6.10231e-05 0)
(0 -6.38141e-05 0)
(0 -6.5763e-05 0)
(0 -6.86228e-05 0)
(0 -7.06404e-05 0)
(0 -6.76597e-05 0)
(0 -7.27113e-05 0)
(0 -7.56783e-05 0)
(0 -7.79804e-05 0)
(0 -7.47849e-05 0)
(0 -8.03263e-05 0)
(0 -8.36554e-05 0)
(0 -8.6383e-05 0)
(0 -8.98669e-05 0)
(0 -9.29317e-05 0)
(0 -8.93976e-05 0)
(0 -9.59453e-05 0)
(0 -9.97076e-05 0)
(0 -0.000102764 0)
(0 -9.86615e-05 0)
(0 -0.000105698 0)
(0 -0.000109766 0)
(0 -0.000112963 0)
(0 -0.000108062 0)
(0 -0.000116351 0)
(0 -0.000120748 0)
(0 -0.000124321 0)
(0 -0.000119172 0)
(0 -0.000127724 0)
(0 -0.000132865 0)
(0 -0.000136011 0)
(0 -0.000130931 0)
(0 -0.000139114 0)
(0 -0.000144165 0)
(0 -0.000147541 0)
(0 -0.000142137 0)
(0 -0.000150915 0)
(0 -0.000156118 0)
(0 -0.000154224 0)
(0 -2.64646e-05 0)
(0 -2.80041e-05 0)
(0 -1.85577e-05 0)
(0 -2.34317e-05 0)
(0 -1.95137e-05 0)
(0 -2.42179e-05 0)
(0 -2.03947e-05 0)
(0 -2.44527e-05 0)
(0 -2.09732e-05 0)
(0 -2.4047e-05 0)
(0 -2.10417e-05 0)
(0 -2.35632e-05 0)
(0 -2.09593e-05 0)
(0 -2.57978e-05 0)
(0 -1.04912e-06 0)
(0 -2.1293e-06 0)
(0 -1.05075e-06 0)
(0 -2.12712e-06 0)
(0 -1.00081e-06 0)
(0 -2.12627e-06 0)
(0 -9.38407e-07 0)
(0 1.37655e-07 0)
(0 1.89475e-07 0)
(0 -9.12084e-07 0)
(0 1.64575e-07 0)
(0 -9.5397e-07 0)
(0 7.66026e-08 0)
(0 -1.07184e-06 0)
(0 -5.64537e-08 0)
(0 1.19028e-06 0)
(0 -1.2592e-06 0)
(0 -2.28123e-07 0)
(0 9.12144e-07 0)
(0 7.40617e-07 0)
(0 -4.4985e-07 0)
(0 5.01742e-07 0)
(0 1.81146e-06 0)
(0 -7.41853e-07 0)
(0 1.58295e-07 0)
(0 -1.14843e-06 0)
(0 -2.82059e-07 0)
(0 -1.63807e-06 0)
(0 -7.53578e-07 0)
(0 5.50168e-07 0)
(0 8.95905e-08 0)
(0 1.32588e-06 0)
(0 8.3621e-07 0)
(0 1.99805e-06 0)
(0 1.47424e-06 0)
(0 2.58789e-06 0)
(0 2.00171e-06 0)
(0 3.09633e-06 0)
(0 2.48778e-06 0)
(0 3.54141e-06 0)
(0 2.96328e-06 0)
(0 3.98301e-06 0)
(0 3.35064e-06 0)
(0 4.38239e-06 0)
(0 3.71229e-06 0)
(0 4.75654e-06 0)
(0 4.09593e-06 0)
(0 5.11112e-06 0)
(0 4.45051e-06 0)
(0 5.41067e-06 0)
(0 4.74781e-06 0)
(0 5.64753e-06 0)
(0 4.97364e-06 0)
(0 5.8633e-06 0)
(0 5.14149e-06 0)
(0 6.03246e-06 0)
(0 5.26273e-06 0)
(0 6.16159e-06 0)
(0 5.40066e-06 0)
(0 6.28801e-06 0)
(0 5.54417e-06 0)
(0 6.36281e-06 0)
(0 5.61446e-06 0)
(0 6.38591e-06 0)
(0 5.6159e-06 0)
(0 6.36704e-06 0)
(0 5.5255e-06 0)
(0 6.31558e-06 0)
(0 5.44011e-06 0)
(0 6.24965e-06 0)
(0 5.39733e-06 0)
(0 6.14074e-06 0)
(0 5.16853e-06 0)
(0 6.00103e-06 0)
(0 5.15293e-06 0)
(0 5.84999e-06 0)
(0 4.98297e-06 0)
(0 5.64383e-06 0)
(0 4.77408e-06 0)
(0 5.41093e-06 0)
(0 4.55903e-06 0)
(0 5.14932e-06 0)
(0 4.2856e-06 0)
(0 4.86413e-06 0)
(0 3.95782e-06 0)
(0 4.57258e-06 0)
(0 3.59694e-06 0)
(0 4.25022e-06 0)
(0 3.22484e-06 0)
(0 3.89007e-06 0)
(0 2.83953e-06 0)
(0 3.49949e-06 0)
(0 2.43181e-06 0)
(0 3.04387e-06 0)
(0 1.91333e-06 0)
(0 2.51807e-06 0)
(0 1.30035e-06 0)
(0 1.94112e-06 0)
(0 6.64579e-07 0)
(0 1.3091e-06 0)
(0 -3.3911e-08 0)
(0 6.22166e-07 0)
(0 -7.89935e-07 0)
(0 -1.15984e-07 0)
(0 -1.59979e-06 0)
(0 -9.11796e-07 0)
(0 -2.43957e-06 0)
(0 -1.76713e-06 0)
(0 -3.3818e-06 0)
(0 -2.68477e-06 0)
(0 -4.39093e-06 0)
(0 -3.66018e-06 0)
(0 -5.47739e-06 0)
(0 -4.74019e-06 0)
(0 -6.68413e-06 0)
(0 -6.01115e-06 0)
(0 -7.95718e-06 0)
(0 -7.29268e-06 0)
(0 -9.31889e-06 0)
(0 -8.55387e-06 0)
(0 -6.43543e-06 0)
(0 -7.81814e-06 0)
(0 -9.95014e-06 0)
(0 -9.11448e-06 0)
(0 -7.08627e-06 0)
(0 -8.27308e-06 0)
(0 -1.0498e-05 0)
(0 -9.55752e-06 0)
(0 -7.4487e-06 0)
(0 -8.76938e-06 0)
(0 -1.09739e-05 0)
(0 -1.01758e-05 0)
(0 -1.25315e-05 0)
(0 -1.16545e-05 0)
(0 -9.31168e-06 0)
(0 -1.07318e-05 0)
(0 -1.32011e-05 0)
(0 -1.21997e-05 0)
(0 -1.48275e-05 0)
(0 -1.37699e-05 0)
(0 -1.08892e-05 0)
(0 -1.27622e-05 0)
(0 -1.538e-05 0)
(0 -1.43582e-05 0)
(0 -1.06346e-06 0)
(0 -1.1856e-05 0)
(0 -1.34089e-05 0)
(0 -1.59692e-05 0)
(0 -1.50473e-05 0)
(0 -1.24434e-05 0)
(0 -1.40744e-05 0)
(0 -1.68225e-05 0)
(0 -1.5816e-05 0)
(0 -1.87371e-05 0)
(0 -1.76983e-05 0)
(0 -1.14569e-05 0)
(0 2.57408e-06 0)
(0 4.49819e-06 0)
(0 4.61385e-06 0)
(0 3.66648e-06 0)
(0 1.94725e-06 0)
(0 3.8946e-06 0)
(0 2.15756e-06 0)
(0 -6.80717e-07 0)
(0 -5.24633e-06 0)
(0 -2.0793e-05 0)
(0 -1.97292e-05 0)
(0 -2.30008e-05 0)
(0 -2.19006e-05 0)
(0 4.86796e-06 0)
(0 -2.53541e-05 0)
(0 -2.42502e-05 0)
(0 -2.08091e-05 0)
(0 -2.31603e-05 0)
(0 -1.97874e-05 0)
(0 -2.21202e-05 0)
(0 -1.88022e-05 0)
(0 -2.11122e-05 0)
(0 -1.78547e-05 0)
(0 -2.01458e-05 0)
(0 -1.69335e-05 0)
(0 -1.92323e-05 0)
(0 -2.25773e-05 0)
(0 -2.17025e-05 0)
(0 -1.83334e-05 0)
(0 -1.74804e-05 0)
(0 -2.7935e-05 0)
(0 -2.89919e-05 0)
(0 6.23003e-06 0)
(0 4.52099e-06 0)
(0 -3.18244e-05 0)
(0 -3.28442e-05 0)
(0 6.89184e-06 0)
(0 -3.58918e-05 0)
(0 -3.69441e-05 0)
(0 -4.01988e-05 0)
(0 -4.1292e-05 0)
(0 7.07096e-06 0)
(0 5.99099e-06 0)
(0 -1.24605e-06 0)
(0 -4.47911e-05 0)
(0 -4.58329e-05 0)
(0 -4.95217e-05 0)
(0 -5.0565e-05 0)
(0 -0.000165386 0)
(0 -0.000169772 0)
(0 -0.000157781 0)
(0 -0.00015365 0)
(0 -0.000145903 0)
(0 -2.5732e-05 0)
(0 -2.66945e-05 0)
(0 -0.000142338 0)
(0 -0.000134454 0)
(0 -0.000137516 0)
(0 -0.000126483 0)
(0 -0.000129443 0)
(0 -0.000119045 0)
(0 -0.000116171 0)
(0 -0.000109221 0)
(0 -5.43261e-05 0)
(0 -5.55357e-05 0)
(0 -0.000112281 0)
(0 -0.000102935 0)
(0 -0.000100117 0)
(0 -9.45256e-05 0)
(0 -9.69809e-05 0)
(0 -8.92792e-05 0)
(0 -8.70331e-05 0)
(0 -8.2366e-05 0)
(0 -2.61168e-05 0)
(0 -8.00549e-05 0)
(0 -7.59764e-05 0)
(0 -7.77805e-05 0)
(0 -7.20452e-05 0)
(0 -1.00519e-05 0)
(0 -2.57958e-06 0)
(0 -7.01035e-05 0)
(0 -6.66541e-05 0)
(0 -6.77583e-05 0)
(0 -6.31034e-05 0)
(0 -6.15735e-05 0)
(0 -5.84257e-05 0)
(0 -5.9447e-05 0)
(0 -5.51503e-05 0)
(0 -5.3487e-05 0)
(0 -5.05585e-05 0)
(0 -5.16892e-05 0)
(0 -4.773e-05 0)
(0 -4.58038e-05 0)
(0 -4.32741e-05 0)
(0 -2.35394e-06 0)
(0 -3.26124e-06 0)
(0 -4.02606e-05 0)
(0 -3.70355e-05 0)
(0 -3.95534e-05 0)
(0 -3.27977e-05 0)
(0 -2.97476e-05 0)
(0 -2.55953e-05 0)
(0 -2.78635e-05 0)
(0 -2.08033e-05 0)
(0 -1.78173e-05 0)
(0 -1.31759e-05 0)
(0 -1.57393e-05 0)
(0 -8.46991e-06 0)
(0 -5.71531e-06 0)
(0 -1.65208e-06 0)
(0 -4.44155e-06 0)
(0 1.46921e-06 0)
(0 -1.65759e-06 0)
(0 3.30487e-06 0)
(0 -1.39402e-08 0)
(0 4.55838e-06 0)
(0 7.40591e-06 0)
(0 9.11973e-06 0)
(0 6.32165e-06 0)
(0 1.15326e-05 0)
(0 8.66127e-06 0)
(0 1.41382e-05 0)
(0 1.12785e-05 0)
(0 1.68905e-05 0)
(0 1.96617e-05 0)
(0 2.27866e-05 0)
(0 1.98078e-05 0)
(0 2.58842e-05 0)
(0 2.22908e-05 0)
(0 2.80742e-05 0)
(0 2.36371e-05 0)
(0 2.90172e-05 0)
(0 3.33053e-05 0)
(0 3.33951e-05 0)
(0 2.84808e-05 0)
(0 3.18383e-05 0)
(0 2.66968e-05 0)
(0 2.91733e-05 0)
(0 3.39825e-05 0)
(0 3.0749e-05 0)
(0 2.61899e-05 0)
(0 2.76157e-05 0)
(0 2.34541e-05 0)
(0 2.50019e-05 0)
(0 2.85927e-05 0)
(0 2.66033e-05 0)
(0 2.31646e-05 0)
(0 2.52905e-05 0)
(0 2.19906e-05 0)
(0 2.43744e-05 0)
(0 2.7212e-05 0)
(0 2.13106e-05 0)
(0 2.40534e-05 0)
(0 2.10676e-05 0)
(0 2.44426e-05 0)
(0 2.15083e-05 0)
(0 2.55411e-05 0)
(0 2.26857e-05 0)
(0 2.73336e-05 0)
(0 2.42891e-05 0)
(0 2.95876e-05 0)
(0 2.96641e-05 0)
(0 2.65635e-05 0)
(0 -5.93067e-05 0)
(0 -5.82733e-05 0)
(0 -6.12558e-05 0)
(0 -5.68392e-05 0)
(0 -6.16964e-05 0)
(0 -5.79122e-05 0)
(0 -6.28573e-05 0)
(0 -5.90958e-05 0)
(0 -6.40555e-05 0)
(0 -6.01137e-05 0)
(0 -6.50765e-05 0)
(0 -6.09822e-05 0)
(0 3.24808e-05 0)
(0 2.95832e-05 0)
(0 1.83576e-05 0)
(0 -6.60408e-05 0)
(0 -6.20202e-05 0)
(0 3.53499e-05 0)
(0 3.22969e-05 0)
(0 -5.23515e-06 0)
(0 2.05231e-05 0)
(0 -6.94622e-05 0)
(0 -6.6964e-05 0)
(0 -6.28847e-05 0)
(0 3.76411e-05 0)
(0 4.0278e-05 0)
(0 3.41347e-05 0)
(0 -2.7659e-06 0)
(0 -6.7783e-05 0)
(0 -6.36011e-05 0)
(0 -4.30604e-06 0)
(0 -1.00569e-06 0)
(0 -2.98068e-05 0)
(0 1.10335e-05 0)
(0 1.13646e-05 0)
(0 1.11795e-05 0)
(0 1.14763e-05 0)
(0 1.13048e-05 0)
(0 1.15798e-05 0)
(0 1.14074e-05 0)
(0 1.16665e-05 0)
(0 1.14858e-05 0)
(0 1.17307e-05 0)
(0 1.12182e-05 0)
(0 1.15435e-05 0)
(0 1.17775e-05 0)
(0 4.19411e-05 0)
(0 4.39548e-05 0)
(0 1.06643e-05 0)
(0 -6.85443e-05 0)
(0 -6.41651e-05 0)
(0 -2.86088e-05 0)
(0 1.15855e-05 0)
(0 1.17971e-05 0)
(0 1.10452e-05 0)
(0 -1.78797e-06 0)
(0 1.93476e-06 0)
(0 -5.96881e-05 0)
(0 -6.01153e-05 0)
(0 -6.47666e-05 0)
(0 -6.06007e-05 0)
(0 4.51992e-05 0)
(0 4.63298e-05 0)
(0 1.16275e-05 0)
(0 -1.47434e-05 0)
(0 1.15952e-05 0)
(0 1.17878e-05 0)
(0 -2.69283e-05 0)
(0 -2.72318e-05 0)
(0 -2.90024e-05 0)
(0 -2.75505e-05 0)
(0 -5.62773e-05 0)
(0 -5.66461e-05 0)
(0 -2.56803e-05 0)
(0 -2.58843e-05 0)
(0 -6.12171e-05 0)
(0 -5.70527e-05 0)
(0 -7.32671e-05 0)
(0 1.15694e-05 0)
(0 1.17587e-05 0)
(0 1.13619e-05 0)
(0 -5.26868e-05 0)
(0 -5.29727e-05 0)
(0 -2.94903e-05 0)
(0 -2.39556e-05 0)
(0 -2.42309e-05 0)
(0 -5.75212e-05 0)
(0 -5.34189e-05 0)
(0 -4.9031e-05 0)
(0 -4.94991e-05 0)
(0 -4.53067e-05 0)
(0 -4.5743e-05 0)
(0 1.57895e-06 0)
(0 5.57775e-06 0)
(0 4.78025e-05 0)
(0 4.81441e-05 0)
(0 -4.18282e-05 0)
(0 -4.23486e-05 0)
(0 -3.85989e-05 0)
(0 -3.92625e-05 0)
(0 -3.5544e-05 0)
(0 -3.6238e-05 0)
(0 -3.26318e-05 0)
(0 -3.33574e-05 0)
(0 -2.99388e-05 0)
(0 -3.07007e-05 0)
(0 -2.74596e-05 0)
(0 -2.82692e-05 0)
(0 -3.15157e-05 0)
(0 -2.91042e-05 0)
(0 -2.60664e-05 0)
(0 -2.69124e-05 0)
(0 -2.40616e-05 0)
(0 -2.4928e-05 0)
(0 -2.22078e-05 0)
(0 -2.31067e-05 0)
(0 -2.04696e-05 0)
(0 -2.1357e-05 0)
(0 -1.88205e-05 0)
(0 -1.97471e-05 0)
(0 -1.72701e-05 0)
(0 -1.8223e-05 0)
(0 -1.58404e-05 0)
(0 -1.68453e-05 0)
(0 -1.45785e-05 0)
(0 -1.56694e-05 0)
(0 -1.35214e-05 0)
(0 -1.46328e-05 0)
(0 -1.26121e-05 0)
(0 -1.37364e-05 0)
(0 -1.17853e-05 0)
(0 -1.28518e-05 0)
(0 -1.0955e-05 0)
(0 -1.19821e-05 0)
(0 -1.02188e-05 0)
(0 -1.13523e-05 0)
(0 -9.67342e-06 0)
(0 -1.09163e-05 0)
(0 -1.29016e-05 0)
(0 -1.22951e-05 0)
(0 -1.05315e-05 0)
(0 -1.18679e-05 0)
(0 -1.02322e-05 0)
(0 -1.15073e-05 0)
(0 -9.95685e-06 0)
(0 -1.12157e-05 0)
(0 -9.7563e-06 0)
(0 -1.10202e-05 0)
(0 -9.65567e-06 0)
(0 -1.09263e-05 0)
(0 -9.61612e-06 0)
(0 -1.08941e-05 0)
(0 -1.56165e-05 0)
(0 -1.22205e-05 0)
(0 -1.21945e-05 0)
(0 -1.09237e-05 0)
(0 -1.22781e-05 0)
(0 -1.1083e-05 0)
(0 -1.25442e-05 0)
(0 -1.14182e-05 0)
(0 -1.29726e-05 0)
(0 -1.18796e-05 0)
(0 -1.3497e-05 0)
(0 -1.37357e-05 0)
(0 -1.23829e-05 0)
(0 -1.40664e-05 0)
(0 -1.28671e-05 0)
(0 -1.45041e-05 0)
(0 -1.32826e-05 0)
(0 -1.48314e-05 0)
(0 -1.36754e-05 0)
(0 -2.09757e-05 0)
(0 -1.52694e-05 0)
(0 -1.41782e-05 0)
(0 -1.58421e-05 0)
(0 -1.48093e-05 0)
(0 -1.40357e-05 0)
(0 -1.65645e-05 0)
(0 -1.55978e-05 0)
(0 -4.3308e-05 0)
(0 1.15269e-05 0)
(0 1.17112e-05 0)
(0 -2.77778e-05 0)
(0 1.19215e-05 0)
(0 1.18739e-05 0)
(0 1.16452e-05 0)
(0 1.18081e-05 0)
(0 1.20487e-05 0)
(0 1.19509e-05 0)
(0 1.17205e-05 0)
(0 1.18532e-05 0)
(0 1.20596e-05 0)
(0 1.19657e-05 0)
(0 1.21469e-05 0)
(0 1.20607e-05 0)
(0 1.2224e-05 0)
(0 1.21432e-05 0)
(0 1.2293e-05 0)
(0 1.22141e-05 0)
(0 1.23495e-05 0)
(0 1.22711e-05 0)
(0 1.23956e-05 0)
(0 1.23174e-05 0)
(0 1.21768e-05 0)
(0 1.22247e-05 0)
(0 1.23556e-05 0)
(0 1.22707e-05 0)
(0 1.23891e-05 0)
(0 1.23047e-05 0)
(0 1.24169e-05 0)
(0 1.23335e-05 0)
(0 1.2441e-05 0)
(0 1.23635e-05 0)
(0 1.24637e-05 0)
(0 1.23888e-05 0)
(0 1.24822e-05 0)
(0 1.24082e-05 0)
(0 1.23019e-05 0)
(0 1.23217e-05 0)
(0 1.24236e-05 0)
(0 1.23357e-05 0)
(0 1.24368e-05 0)
(0 1.2349e-05 0)
(0 1.24464e-05 0)
(0 1.23616e-05 0)
(0 1.24537e-05 0)
(0 1.23724e-05 0)
(0 1.22684e-05 0)
(0 1.22844e-05 0)
(0 1.23834e-05 0)
(0 1.22964e-05 0)
(0 1.23919e-05 0)
(0 1.23017e-05 0)
(0 1.23971e-05 0)
(0 1.23051e-05 0)
(0 1.22012e-05 0)
(0 1.22044e-05 0)
(0 1.23095e-05 0)
(0 1.22092e-05 0)
(0 1.23151e-05 0)
(0 1.22183e-05 0)
(0 1.23235e-05 0)
(0 1.22291e-05 0)
(0 1.23329e-05 0)
(0 1.22394e-05 0)
(0 1.23436e-05 0)
(0 1.22512e-05 0)
(0 1.21335e-05 0)
(0 1.21473e-05 0)
(0 1.20946e-05 0)
(0 1.22663e-05 0)
(0 1.21645e-05 0)
(0 1.22823e-05 0)
(0 1.21803e-05 0)
(0 1.22965e-05 0)
(0 1.21947e-05 0)
(0 1.20625e-05 0)
(0 1.20776e-05 0)
(0 1.22077e-05 0)
(0 1.2092e-05 0)
(0 1.22194e-05 0)
(0 1.21044e-05 0)
(0 1.22299e-05 0)
(0 1.21148e-05 0)
(0 1.19723e-05 0)
(0 1.19831e-05 0)
(0 1.21229e-05 0)
(0 1.19907e-05 0)
(0 1.21285e-05 0)
(0 1.19951e-05 0)
(0 1.21323e-05 0)
(0 1.19981e-05 0)
(0 1.18403e-05 0)
(0 1.18433e-05 0)
(0 1.20017e-05 0)
(0 1.18469e-05 0)
(0 1.2009e-05 0)
(0 1.18516e-05 0)
(0 1.16688e-05 0)
(0 1.16736e-05 0)
(0 1.18581e-05 0)
(0 1.16816e-05 0)
(0 1.18661e-05 0)
(0 1.16907e-05 0)
(0 1.18755e-05 0)
(0 1.16993e-05 0)
(0 1.18858e-05 0)
(0 1.17073e-05 0)
(0 1.14961e-05 0)
(0 1.15018e-05 0)
(0 1.17161e-05 0)
(0 1.15104e-05 0)
(0 1.12681e-05 0)
(0 1.12764e-05 0)
(0 1.15183e-05 0)
(0 1.12796e-05 0)
(0 1.15218e-05 0)
(0 1.12795e-05 0)
(0 1.15227e-05 0)
(0 1.12808e-05 0)
(0 1.15133e-05 0)
(0 1.1283e-05 0)
(0 1.15163e-05 0)
(0 1.12867e-05 0)
(0 1.10022e-05 0)
(0 1.15306e-05 0)
(0 1.12897e-05 0)
(0 1.15335e-05 0)
(0 1.12893e-05 0)
(0 1.14663e-05 0)
(0 1.15434e-05 0)
(0 1.1289e-05 0)
(0 1.10092e-05 0)
(0 1.10036e-05 0)
(0 1.12861e-05 0)
(0 1.09977e-05 0)
(0 1.12825e-05 0)
(0 1.09914e-05 0)
(0 1.06803e-05 0)
(0 1.06669e-05 0)
(0 1.09857e-05 0)
(0 1.06497e-05 0)
(0 1.09761e-05 0)
(0 1.06396e-05 0)
(0 1.09662e-05 0)
(0 1.06401e-05 0)
(0 1.09588e-05 0)
(0 1.06321e-05 0)
(0 1.0953e-05 0)
(0 1.06094e-05 0)
(0 1.02842e-05 0)
(0 1.09502e-05 0)
(0 1.05963e-05 0)
(0 1.02507e-05 0)
(0 1.09504e-05 0)
(0 1.05826e-05 0)
(0 1.09438e-05 0)
(0 1.05676e-05 0)
(0 1.09304e-05 0)
(0 1.05516e-05 0)
(0 1.01454e-05 0)
(0 1.01216e-05 0)
(0 1.05345e-05 0)
(0 1.00948e-05 0)
(0 1.05144e-05 0)
(0 1.00602e-05 0)
(0 1.04887e-05 0)
(0 1.00185e-05 0)
(0 9.53445e-06 0)
(0 9.47695e-06 0)
(0 9.97026e-06 0)
(0 9.41152e-06 0)
(0 9.91077e-06 0)
(0 9.32997e-06 0)
(0 9.83883e-06 0)
(0 9.23305e-06 0)
(0 9.76516e-06 0)
(0 8.93835e-06 0)
(0 9.13855e-06 0)
(0 9.66563e-06 0)
(0 9.01146e-06 0)
(0 9.53871e-06 0)
(0 1.17494e-05 0)
(0 8.84492e-06 0)
(0 9.41016e-06 0)
(0 1.12336e-05 0)
(0 1.17546e-05 0)
(0 1.2039e-05 0)
(0 1.2199e-05 0)
(0 8.66963e-06 0)
(0 9.25676e-06 0)
(0 8.53121e-06 0)
(0 1.13133e-05 0)
(0 8.47918e-06 0)
(0 9.15899e-06 0)
(0 7.82746e-06 0)
(0 1.21386e-05 0)
(0 1.03e-05 0)
(0 1.24267e-05 0)
(0 8.23406e-06 0)
(0 8.80225e-06 0)
(0 9.97966e-06 0)
(0 7.91482e-06 0)
(0 8.50204e-06 0)
(0 1.18738e-05 0)
(0 9.34743e-06 0)
(0 9.00866e-06 0)
(0 8.14557e-06 0)
(0 8.68427e-06 0)
(0 1.25296e-05 0)
(0 7.71609e-06 0)
(0 8.26069e-06 0)
(0 9.19092e-06 0)
(0 8.75652e-06 0)
(0 7.73772e-06 0)
(0 8.23629e-06 0)
(0 9.19707e-06 0)
(0 8.67938e-06 0)
(0 9.58041e-06 0)
(0 9.05937e-06 0)
(0 8.06983e-06 0)
(0 9.37659e-06 0)
(0 9.6339e-06 0)
(0 9.83171e-06 0)
(0 1.18918e-05 0)
(0 -2.23232e-05 0)
(0 -2.28392e-05 0)
(0 1.25458e-05 0)
(0 -1.75196e-05 0)
(0 -1.66553e-05 0)
(0 -5.80044e-05 0)
(0 1.25035e-05 0)
(0 -5.73626e-05 0)
(0 -4.12534e-05 0)
(0 4.99153e-05 0)
(0 4.96559e-05 0)
(0 4.86953e-05 0)
(0 4.69659e-05 0)
(0 4.79518e-05 0)
(0 4.48054e-05 0)
(0 4.52874e-05 0)
(0 4.20438e-05 0)
(0 4.21288e-05 0)
(0 3.89661e-05 0)
(0 3.87587e-05 0)
(0 3.55079e-05 0)
(0 3.52824e-05 0)
(0 3.22796e-05 0)
(0 3.25276e-05 0)
(0 3.03249e-05 0)
(0 3.0963e-05 0)
(0 2.99318e-05 0)
(0 3.05721e-05 0)
(0 3.06575e-05 0)
(0 2.96545e-05 0)
(0 3.1186e-05 0)
(0 3.09539e-05 0)
(0 2.98038e-05 0)
(0 3.13443e-05 0)
(0 3.04289e-05 0)
(0 3.20102e-05 0)
(0 3.12908e-05 0)
(0 -3.15179e-05 0)
(0 -3.21624e-05 0)
(0 1.22987e-05 0)
(0 5.92103e-06 0)
(0 1.02e-05 0)
(0 -2.09477e-05 0)
(0 -2.17465e-05 0)
(0 -2.35765e-05 0)
(0 -2.25593e-05 0)
(0 -2.03732e-05 0)
(0 -2.43232e-05 0)
(0 -2.31667e-05 0)
(0 -2.13755e-05 0)
(0 -2.18632e-05 0)
(0 -2.0047e-05 0)
(0 -2.05781e-05 0)
(0 -2.2443e-05 0)
(0 -2.1302e-05 0)
(0 -1.93089e-05 0)
(0 -2.02111e-05 0)
(0 1.08935e-05 0)
(0 -1.6158e-05 0)
(0 1.24769e-05 0)
(0 1.23848e-05 0)
(0 1.22485e-05 0)
(0 1.2174e-05 0)
(0 1.19284e-05 0)
(0 -1.87196e-05 0)
(0 -1.79224e-05 0)
(0 1.18202e-05 0)
(0 1.10052e-05 0)
(0 -1.81371e-05 0)
(0 1.83655e-05 0)
(0 2.83089e-05 0)
(0 5.92822e-06 0)
(0 -2.70086e-05 0)
(0 -2.60206e-05 0)
(0 -2.70509e-05 0)
(0 -2.57338e-05 0)
(0 -2.68418e-05 0)
(0 -2.51655e-05 0)
(0 -2.63256e-05 0)
(0 -2.44345e-05 0)
(0 -2.55495e-05 0)
(0 -2.33426e-05 0)
(0 -4.85515e-06 0)
(0 -2.26321e-05 0)
(0 -2.17461e-05 0)
(0 3.27424e-05 0)
(0 3.18241e-05 0)
(0 8.76221e-07 0)
(0 1.17109e-05 0)
(0 2.53449e-05 0)
(0 3.29714e-05 0)
(0 -8.34518e-06 0)
(0 -1.35504e-05 0)
(0 -2.23423e-05 0)
(0 -2.1429e-05 0)
(0 9.83047e-06 0)
(0 1.48068e-05 0)
(0 -1.76182e-05 0)
(0 -2.98456e-05 0)
(0 6.74581e-06 0)
(0 -2.69191e-05 0)
(0 -2.41085e-05 0)
(0 -2.00835e-05 0)
(0 5.1016e-05 0)
(0 4.93292e-05 0)
(0 4.83306e-05 0)
(0 3.3039e-05 0)
(0 3.19645e-05 0)
(0 -1.02912e-05 0)
(0 1.24609e-05 0)
(0 -2.10771e-05 0)
(0 -2.01316e-05 0)
(0 -3.79851e-05 0)
(0 1.0991e-05 0)
(0 6.8155e-06 0)
(0 -1.95592e-05 0)
(0 -1.06514e-05 0)
(0 -1.35749e-05 0)
(0 1.03976e-05 0)
(0 -8.49109e-06 0)
(0 -1.21649e-05 0)
(0 3.81036e-05 0)
(0 2.98085e-06 0)
(0 3.34294e-05 0)
(0 3.22244e-05 0)
(0 -0.000179139 0)
(0 -3.92399e-05 0)
(0 3.08119e-05 0)
(0 3.13573e-05 0)
(0 3.28248e-05 0)
(0 3.27291e-05 0)
(0 -0.000180135 0)
(0 -0.00017094 0)
(0 -0.000169839 0)
(0 -0.000162021 0)
(0 5.13547e-05 0)
(0 4.92119e-05 0)
(0 -1.92317e-05 0)
(0 -2.14165e-05 0)
(0 -2.36605e-05 0)
(0 -1.91654e-05 0)
(0 -1.78223e-05 0)
(0 -2.02801e-05 0)
(0 -0.000162579 0)
(0 -0.000154179 0)
(0 -0.000153149 0)
(0 -0.000145742 0)
(0 3.12642e-05 0)
(0 -1.71011e-05 0)
(0 1.4517e-05 0)
(0 1.97874e-05 0)
(0 3.14621e-05 0)
(0 3.3761e-05 0)
(0 3.52962e-05 0)
(0 3.7084e-05 0)
(0 3.41e-05 0)
(0 -2.75358e-05 0)
(0 -2.66807e-05 0)
(0 -2.89779e-05 0)
(0 -2.79558e-05 0)
(0 -3.04675e-05 0)
(0 -2.93827e-05 0)
(0 -3.18956e-05 0)
(0 -3.07945e-05 0)
(0 -3.34548e-05 0)
(0 -3.23528e-05 0)
(0 -3.54305e-05 0)
(0 -3.43881e-05 0)
(0 -3.7933e-05 0)
(0 -3.13155e-05 0)
(0 -3.71688e-05 0)
(0 -4.10985e-05 0)
(0 -4.07169e-05 0)
(0 -4.48253e-05 0)
(0 4.18262e-06 0)
(0 -0.000146648 0)
(0 -0.000138394 0)
(0 -0.000137253 0)
(0 -0.000130047 0)
(0 2.97796e-05 0)
(0 1.13392e-05 0)
(0 7.10797e-06 0)
(0 3.54496e-05 0)
(0 3.92182e-05 0)
(0 4.11747e-05 0)
(0 4.33983e-05 0)
(0 4.54871e-05 0)
(0 4.71161e-05 0)
(0 4.42889e-05 0)
(0 4.67841e-05 0)
(0 4.9829e-05 0)
(0 4.81944e-05 0)
(0 -0.000130956 0)
(0 -0.000122727 0)
(0 -0.000121963 0)
(0 -0.000114977 0)
(0 -0.000114162 0)
(0 -0.000107611 0)
(0 -0.000108314 0)
(0 -0.000101491 0)
(0 -0.000101971 0)
(0 -9.57002e-05 0)
(0 -9.5224e-05 0)
(0 -9.58945e-05 0)
(0 -4.5055e-05 0)
(0 -3.19221e-05 0)
(0 5.17778e-05 0)
(0 4.91661e-05 0)
(0 -4.46735e-05 0)
(0 -1.82826e-05 0)
(0 -2.29214e-05 0)
(0 -1.38251e-05 0)
(0 5.06495e-05 0)
(0 4.82026e-05 0)
(0 -1.62727e-05 0)
(0 -1.44895e-05 0)
(0 -4.05124e-05 0)
(0 -8.99325e-05 0)
(0 -8.93896e-05 0)
(0 -1.61647e-05 0)
(0 -2.09375e-05 0)
(0 8.33968e-06 0)
(0 -2.51188e-05 0)
(0 -2.58943e-05 0)
(0 4.5509e-05 0)
(0 1.06697e-05 0)
(0 6.38512e-06 0)
(0 1.23293e-05 0)
(0 -1.90297e-05 0)
(0 -1.83572e-05 0)
(0 -1.70833e-05 0)
(0 -1.63114e-05 0)
(0 -1.09355e-05 0)
(0 1.94965e-05 0)
(0 2.44566e-05 0)
(0 4.34037e-05 0)
(0 -2.45816e-05 0)
(0 -3.21435e-05 0)
(0 -9.47824e-05 0)
(0 3.57996e-05 0)
(0 5.29763e-05 0)
(0 5.00383e-05 0)
(0 4.54735e-05 0)
(0 4.65005e-05 0)
(0 -8.01654e-05 0)
(0 -9.11474e-05 0)
(0 -7.81459e-05 0)
(0 -8.80993e-05 0)
(0 -7.62431e-05 0)