/*--------------------------------*- C++ -*----------------------------------*\
| =========                 |                                                 |
| \\      /  F ield         | OpenFOAM: The Open Source CFD Toolbox           |
|  \\    /   O peration     | Version:  v2012                                 |
|   \\  /    A nd           | Website:  www.openfoam.com                      |
|    \\/     M anipulation  |                                                 |
\*---------------------------------------------------------------------------*/
FoamFile
{
    version     2.0;
    format      ascii;
    class       volVectorField;
    location    "100";
    object      ddt0(U);
}
// * * * * * * * * * * * * * * * * * * * * * * * * * * * * * * * * * * * * * //

dimensions      [0 1 -2 0 0 0 0];


internalField   nonuniform List<vector> 
18758
(
(-0.00897045 -8.57496e-05 2.55549e-18)
(-0.0183539 -0.0154022 5.61892e-18)
(0.00153198 -7.57284e-05 -1.70727e-19)
(0.0439406 0.095796 1.74808e-18)
(-0.0113902 0.0263874 -2.65539e-18)
(-0.0483894 -0.0134307 -3.76674e-17)
(0.0130129 0.000999401 3.08987e-17)
(0.000646134 -6.74667e-05 4.94389e-19)
(0.0143866 0.0294241 4.61879e-18)
(-0.00218304 0.00043979 2.36291e-18)
(-0.00123699 -0.00035558 1.53452e-18)
(-0.00851831 0.00571715 3.70897e-17)
(0.000677906 1.68488e-05 -4.22823e-19)
(-0.0473944 0.00321485 7.07669e-19)
(7.07689e-05 -0.00292974 1.23459e-18)
(-0.00429257 0.00976699 -2.16076e-17)
(-0.00649351 0.00184876 -3.61167e-17)
(0.000256905 3.08102e-05 -2.34714e-18)
(-0.000112476 -0.00118974 -9.00647e-19)
(-0.00269 0.000166528 -4.12583e-19)
(0.0155343 0.00467179 -3.32445e-18)
(5.70643e-05 2.39101e-05 2.77063e-18)
(0.00890148 0.00266869 1.11105e-16)
(-0.000989712 0.0559308 -3.27741e-17)
(-0.00331622 -0.0292833 -1.11019e-17)
(0.000717646 -6.16559e-05 -1.40061e-19)
(-0.00686371 0.0113982 -4.38414e-19)
(-0.0271675 0.0222083 2.29803e-17)
(-0.0902654 -0.0233587 3.27088e-17)
(-0.010991 0.0114553 1.74455e-17)
(-0.0192714 0.00206514 -1.65498e-18)
(0.0510947 0.00653093 9.53318e-19)
(0.000368847 1.07622e-05 -1.26671e-18)
(-0.000997495 -0.00119825 1.88493e-18)
(-0.0231839 0.0177738 -8.53121e-18)
(2.52657e-05 0.00051697 -8.34578e-18)
(0.000270142 1.2053e-05 -2.01846e-18)
(-0.000607853 -0.000441234 5.48771e-19)
(-0.000795716 -0.000506792 -2.45211e-18)
(-0.0057987 0.00313932 3.77939e-18)
(-0.000576602 -0.000502093 1.17874e-18)
(-0.00149014 0.00200385 3.80498e-18)
(0.000369208 -0.00040898 -2.59128e-19)
(-0.0018432 0.00128455 -5.60301e-18)
(-0.0149386 0.00788728 7.59209e-18)
(0.0011621 -6.56605e-05 1.74645e-19)
(0.0104065 0.00219958 -7.23792e-17)
(-0.00129978 -0.000205117 -1.09146e-18)
(-0.00213371 0.000481713 -7.83237e-19)
(0.000481174 -0.000430918 -1.91181e-19)
(-0.000427402 -0.0104808 -2.54329e-17)
(0.0320561 0.0240089 5.07185e-18)
(0.00104431 -0.000178319 4.21589e-20)
(-0.00120814 -0.000367891 1.35692e-18)
(-0.0353557 0.0205833 -2.58382e-17)
(-0.0573494 0.000819991 -6.83227e-17)
(0.000266562 1.52254e-05 -1.60351e-18)
(-0.00259176 0.00898801 -6.35825e-17)
(-0.000348403 0.000492272 -6.3014e-18)
(-0.047946 0.00677158 -1.23044e-18)
(-0.00791055 -0.00178426 -2.21208e-17)
(0.0120155 0.00127174 -2.36808e-17)
(0.00622629 0.0147145 -1.53807e-17)
(-0.000856176 0.00125702 5.29156e-18)
(0.00105656 -0.000168916 -2.2678e-20)
(-5.61842e-05 0.000524518 -1.26591e-18)
(-0.00690914 0.00293349 -1.02424e-17)
(0.000400875 1.48701e-05 2.69406e-19)
(-0.000461243 -0.000444375 -5.51758e-19)
(0.030948 0.0234803 -5.43029e-18)
(0.018403 0.0215684 -3.56731e-18)
(-0.000481486 0.00112397 2.30952e-18)
(0.00045236 -0.000439113 4.41805e-19)
(-0.00222617 -0.0289447 7.50135e-17)
(0.000383379 -0.000196238 2.61633e-20)
(-0.000319703 0.000460259 -1.15524e-18)
(-0.00997302 0.0357219 -4.37516e-18)
(-0.00632022 0.0256549 1.57288e-17)
(-0.00612427 0.00462107 -7.94914e-18)
(0.00918416 0.0039513 1.82693e-17)
(-0.00334347 -0.01001 1.06641e-16)
(-0.0200193 0.00334386 -2.37301e-18)
(-0.0468487 0.00833207 -2.69286e-18)
(-0.0471031 -0.00480352 -3.10032e-17)
(-0.0117802 0.0359069 -1.68566e-17)
(-0.00179142 0.000298685 -6.48656e-18)
(-0.00931106 0.00483636 6.18777e-17)
(0.00644219 0.0138602 1.73599e-17)
(0.00687048 0.000223845 -2.46406e-17)
(-0.00037126 0.000462883 5.53681e-18)
(-0.0500043 -0.00520231 6.41791e-18)
(-0.000316778 0.000489137 5.50631e-18)
(0.000364886 0.00394474 -1.1167e-17)
(-0.00155826 0.00206542 5.93154e-18)
(-0.00674563 -0.0130355 6.61553e-18)
(0.00113782 0.00337909 7.68683e-17)
(-0.0131687 0.0351059 6.44706e-18)
(0.000368071 -0.00020696 -2.25485e-19)
(-0.000182048 0.000194589 -2.75259e-18)
(0.0165414 0.00598999 1.49909e-18)
(-0.00269758 -5.90873e-05 -1.46235e-18)
(-0.0551309 -0.00358064 2.09084e-17)
(-0.00923949 0.0134276 -4.80094e-18)
(-0.00186519 -0.00266402 -8.52106e-18)
(0.0537565 0.00444218 8.84518e-19)
(-0.0141902 0.0120716 -5.51843e-18)
(0.0600418 0.0369382 -1.42363e-17)
(-0.000422483 0.0271723 -1.52356e-17)
(-0.00104584 -0.000324942 -1.38341e-18)
(-0.000237891 0.00122409 3.50613e-19)
(-6.16109e-05 0.00330287 -6.43534e-17)
(-0.00406152 0.0130006 -3.03486e-17)
(0.000666215 -3.72994e-05 -1.53387e-18)
(-0.000668163 0.000352143 2.70797e-18)
(-0.0337015 0.0222376 -1.8221e-17)
(-0.0477637 -0.00355922 9.40415e-17)
(-0.0801346 -0.00284919 -3.72502e-17)
(0.000179864 -0.00300256 -1.71107e-18)
(0.0025109 0.00463315 -2.1447e-17)
(-0.00407508 -0.0131885 -3.33517e-17)
(-0.000356269 8.66502e-05 -6.09479e-18)
(-0.000137545 0.000499341 -3.84616e-19)
(-0.0666787 -0.00994155 2.1807e-17)
(-0.00549504 0.0109579 2.75521e-18)
(-0.0142847 0.000260702 -1.5752e-17)
(-0.0167201 0.00191245 -3.50638e-18)
(0.0062879 -0.0158521 2.15885e-17)
(0.0248904 0.0414546 1.8333e-17)
(0.00150142 0.00379008 2.5934e-17)
(0.000794547 -8.18077e-07 -3.03971e-20)
(-0.00675645 0.00212695 1.16312e-17)
(-0.0076718 0.0108784 1.99736e-18)
(0.0180312 0.0021987 2.17528e-18)
(-0.00433284 0.00293117 1.35417e-18)
(-0.0016123 0.0126667 -9.72495e-18)
(-0.00127678 0.00133758 -9.42703e-18)
(-0.00900936 0.0348332 2.22042e-17)
(-0.00591908 0.00352852 -7.63701e-18)
(-0.000135943 0.000186271 4.42608e-19)
(-0.00398822 0.00564314 -4.50292e-17)
(-0.00587029 0.00482724 1.42126e-18)
(-0.00888738 0.0061486 -2.79363e-18)
(-0.000540162 0.000403654 -7.34287e-19)
(-0.0642343 0.00320649 6.74638e-17)
(-0.000571434 -0.000531382 -1.77378e-18)
(-8.64591e-05 -0.00139669 1.0054e-18)
(-0.0330634 0.00504231 -9.04832e-18)
(0.107966 0.0211005 4.35441e-18)
(-0.0192653 0.000962904 1.81901e-17)
(0.0104888 0.0469965 -9.97906e-18)
(-0.0174167 0.0013368 2.0153e-17)
(-0.0144954 0.0405195 -1.3582e-17)
(-0.00158249 0.000236611 -7.19152e-18)
(0.000165771 2.04393e-05 -3.10561e-18)
(0.00826255 -0.00702848 -3.83689e-17)
(-0.00132331 -0.000151717 -1.88533e-17)
(0.00509111 0.0045619 6.83866e-17)
(-0.00133146 -0.000188726 -5.0533e-19)
(-0.000683885 0.000734866 1.01041e-18)
(4.6819e-05 2.2237e-06 -9.26748e-19)
(0.000109561 2.00977e-05 5.78097e-19)
(-0.0447868 0.00987522 1.93112e-18)
(0.000477228 0.00375298 -1.10994e-17)
(-0.000676912 0.000710352 1.27144e-18)
(-0.0076519 -0.00194699 2.04214e-17)
(-0.0861326 -0.0242141 8.72539e-18)
(-0.000238941 -0.00114893 -3.31193e-18)
(-0.0532953 -0.00197389 -5.56019e-17)
(-0.010287 -0.00719359 1.37259e-17)
(-0.045883 -0.00572571 -3.69408e-17)
(-0.0205272 -0.0125418 -7.715e-18)
(0.000244759 3.43616e-05 -2.23212e-19)
(0.000394781 0.00361441 5.82115e-17)
(-0.0235442 0.0239144 2.41519e-17)
(-0.0437551 0.0105089 -2.68254e-18)
(-0.00315895 0.0541183 -1.26461e-18)
(-0.0696626 -0.0147923 4.02186e-17)
(-0.000887517 0.00128855 -1.85652e-18)
(-0.00394396 0.00560722 3.34317e-19)
(-0.000731978 -0.000183731 -1.93457e-19)
(0.000630571 -2.51238e-05 2.1194e-20)
(-0.0388751 -0.00155281 -1.84922e-18)
(-0.0332097 0.0420986 1.42043e-17)
(0.0003787 -0.000667763 -9.33687e-19)
(-0.00237964 -0.00203714 -3.47131e-18)
(-0.0327931 0.0423596 4.24151e-19)
(-0.000228486 0.000315585 9.39163e-19)
(-0.0468167 -0.00518061 -6.51459e-17)
(0.000447949 -0.000376389 3.133e-19)
(-0.000224315 0.00033437 4.80652e-18)
(-0.00453706 0.00288741 -2.26083e-18)
(0.0245313 0.0392291 -5.35516e-19)
(-0.000969456 0.000398379 -1.6833e-18)
(-0.0181799 0.000578745 -2.04537e-18)
(-0.0031718 0.00146814 1.06866e-17)
(0.00774488 0.0134569 1.10889e-17)
(-0.00270527 0.000121737 1.25721e-18)
(-0.0106346 -0.00784932 -2.90122e-17)
(0.000296801 0.000204466 2.58436e-18)
(0.000394725 -0.00040387 1.54255e-20)
(-0.00290755 0.00588227 3.12518e-17)
(-0.00132178 -0.000161851 -1.74175e-18)
(-0.00257744 -0.00100772 -2.04981e-19)
(0.00442654 0.00830699 1.34577e-18)
(0.000706652 2.33829e-05 -2.08897e-18)
(-0.00304876 0.00142615 -7.75581e-18)
(-0.00707964 0.0145866 9.20796e-18)
(0.000103615 1.27137e-05 2.79271e-18)
(0.0237454 0.00469773 7.21947e-18)
(-0.0021475 0.000574704 -3.23618e-18)
(0.000266762 1.24921e-05 -8.00622e-19)
(-0.00178357 -0.00272489 6.73707e-18)
(-0.000723802 0.000709185 7.42275e-18)
(-0.00220194 -0.00112209 -3.63498e-18)
(-0.00507253 0.0048346 -7.19158e-18)
(-0.000698932 -0.00395137 -1.18649e-17)
(-0.00524032 0.0050547 1.24031e-17)
(-0.00339834 0.00958113 -6.91407e-19)
(0.000668625 -0.000180379 -3.71917e-20)
(-0.0487193 -0.0138941 6.29844e-18)
(0.000272494 1.78139e-05 2.53562e-18)
(-0.00107212 -0.000300175 1.83845e-18)
(-0.0190741 0.0302928 1.37593e-17)
(-0.0311488 0.0063451 5.70383e-18)
(-0.00440238 -0.0156906 -2.28547e-17)
(-0.00777951 0.0138637 4.6495e-18)
(0.00250227 -0.000299919 1.5266e-18)
(-0.00464939 0.00162277 -2.29489e-18)
(0.000539599 -0.00069955 5.98118e-19)
(0.00492961 0.0070254 -6.94806e-18)
(-6.3862e-05 0.000508373 -1.12559e-18)
(0.00794977 0.0125725 -1.23065e-17)
(0.0109775 0.00124485 -2.86354e-17)
(-0.0149202 0.0359756 1.61578e-18)
(0.000679836 1.46726e-05 2.60185e-19)
(-0.000217806 0.000306711 -2.36534e-18)
(0.000500443 -0.000681827 2.43412e-19)
(0.00113019 -6.0362e-05 -8.01617e-19)
(-0.0689207 -0.010901 -3.15503e-17)
(-0.00137142 -0.00120717 9.67975e-18)
(0.00017659 3.12356e-05 8.9982e-19)
(-0.0133379 -0.0110644 -9.42357e-17)
(0.0629131 0.0356887 -8.19342e-18)
(-0.00118581 -0.000739534 1.24931e-18)
(0.0145164 0.0503245 3.1999e-18)
(-0.00167152 -0.00328855 8.56931e-17)
(-0.0159815 0.0348741 -1.00051e-17)
(4.35452e-06 0.000474145 -2.18922e-18)
(-0.00474796 -0.0115689 -2.90284e-17)
(-0.0014109 0.00284606 1.6463e-18)
(2.35381e-05 0.000599267 -8.50678e-18)
(-0.049962 -0.00271872 6.39127e-19)
(-0.00182867 0.000362103 5.03782e-18)
(-0.0015089 0.00286092 2.23638e-17)
(3.89461e-05 -0.00223458 -2.34096e-18)
(8.02966e-06 -7.5194e-05 -8.08411e-18)
(-0.0134469 0.0478666 -2.14091e-17)
(-0.002982 0.00975505 8.36694e-18)
(-0.00222937 -0.00102043 4.65523e-18)
(-0.00636976 0.00403605 1.40053e-17)
(0.000766963 -0.000975781 -2.35645e-18)
(-0.00652223 0.0104805 1.135e-17)
(3.41893e-05 0.000435458 -3.81716e-18)
(0.00378816 0.00841636 5.46728e-19)
(-0.00208435 0.000609673 2.90023e-18)
(-0.0201034 0.0297646 -3.41854e-18)
(0.0104773 -0.00198541 -1.40249e-17)
(0.000798509 -0.000173145 1.47531e-20)
(-0.000975578 -0.000356336 5.73878e-19)
(-0.0111317 0.00561639 -1.52049e-17)
(-0.000897345 -0.000357818 1.54328e-18)
(-0.00228163 -0.00199908 1.25741e-18)
(0.00442999 0.00749242 -1.07076e-18)
(-0.0835295 -0.0256644 3.94741e-17)
(-0.0814965 -0.00216723 5.91141e-17)
(-0.000503075 0.00042057 3.72964e-19)
(0.000898986 -0.00931446 -3.54945e-17)
(0.16242 0.0566314 1.07704e-17)
(-0.0166975 0.00491817 6.52615e-19)
(-0.00107095 0.000469541 -3.94062e-19)
(0.000129132 -0.00072977 -1.59242e-19)
(-0.00132964 -0.000511959 -6.04156e-18)
(-0.00124042 -0.00119537 1.2554e-17)
(-0.000519223 0.00039522 -9.06731e-19)
(0.139446 0.0860138 6.26147e-19)
(-0.0135524 -0.0102841 -1.5791e-17)
(0.0322254 0.0406891 -5.57756e-19)
(0.0143675 0.00111589 1.16825e-17)
(0.00915522 0.00196214 2.25468e-17)
(0.000355693 -0.000599268 -3.5303e-19)
(0.00152615 -8.40461e-05 2.50098e-19)
(-0.00511988 0.0016515 -2.12951e-18)
(-0.0094405 -0.00439782 -3.1341e-17)
(-0.000804488 0.00227059 7.61712e-18)
(-0.00608623 0.00425742 -2.42686e-17)
(0.0103833 0.00498082 -3.22099e-17)
(-0.00148262 -0.000522047 -6.80665e-18)
(-0.000292251 -0.0103375 3.10964e-17)
(-3.42907e-05 -0.00114168 -3.44299e-19)
(0.0312962 0.0172489 -6.62097e-18)
(-0.046676 -0.00661126 6.12067e-17)
(0.00113778 -6.12932e-05 -7.40622e-20)
(0.0473639 0.0222186 -6.81556e-19)
(-0.00354191 0.00184045 8.87038e-18)
(-0.000495565 -0.000457936 1.53655e-19)
(-0.00213327 -0.000742517 -1.52598e-17)
(0.00639621 -0.00155929 -2.49038e-17)
(-0.000653271 -0.00221319 -3.61778e-18)
(2.92774e-05 0.000577713 7.72756e-18)
(0.0176155 0.00123244 -5.9054e-18)
(0.0267852 0.0369823 2.89094e-19)
(-6.0313e-05 0.000130193 7.25553e-19)
(0.0174798 0.000827027 -2.1169e-16)
(-0.00203662 -0.0117421 2.84772e-17)
(-0.00364698 -0.0148658 4.33535e-18)
(5.37267e-05 0.000440854 -2.94072e-18)
(0.001017 4.46024e-07 1.27525e-18)
(0.0499461 0.0182017 -5.37704e-18)
(-0.00116325 -0.000711085 -1.24974e-18)
(0.00037926 -0.000640934 -5.42342e-20)
(-2.92931e-05 -0.000699315 1.2703e-18)
(-0.000249946 0.00168224 -7.77086e-18)
(-0.0106804 -0.00665792 -9.73336e-18)
(0.0063674 -0.00196809 3.76616e-17)
(-0.00137067 -0.000518863 7.21279e-18)
(-0.00145011 -0.00108651 1.81817e-19)
(-0.00272495 0.000335903 4.54755e-19)
(-0.0046504 0.00255912 8.27996e-18)
(0.000753851 -0.00094224 1.99312e-18)
(4.66669e-05 1.55538e-05 -5.19252e-18)
(0.0219802 0.0428449 1.12963e-17)
(-0.00518426 -0.00102056 -1.125e-17)
(0.00105475 -0.00987029 9.98916e-17)
(0.041298 0.0999568 -3.4718e-18)
(-0.000844875 0.00233948 -7.11563e-18)
(-0.000939715 0.000376157 -1.40336e-18)
(0.00104387 -9.66541e-07 -4.91101e-21)
(0.029989 0.0182443 6.08726e-18)
(0.0477767 0.0234041 2.72483e-18)
(0.00042994 -0.000694628 -2.13597e-19)
(0.000274336 -1.04477e-06 1.15587e-18)
(0.000381755 -0.000674285 -6.27695e-19)
(-0.0012226 0.00133929 6.1664e-18)
(-0.00443298 0.00160727 5.82779e-18)
(0.00343371 -0.0272519 -2.25465e-17)
(-0.000129461 0.000480719 2.23106e-18)
(-0.000223734 0.00110324 2.41083e-19)
(0.000495929 -0.000487018 -3.11137e-19)
(-0.00447458 0.0103086 -2.48651e-17)
(-0.0086646 0.00583961 2.33341e-18)
(0.0176805 0.00301123 -4.48009e-17)
(-0.0100882 -0.00158557 -9.56326e-18)
(-0.000973887 -0.00160308 8.77747e-18)
(0.0269028 0.0352696 1.94157e-17)
(-0.00863927 0.000194907 2.61676e-17)
(-0.000755496 -0.000876882 1.72563e-17)
(-0.00166209 0.00300714 -2.09691e-18)
(-0.00464824 0.00531434 4.84022e-17)
(-0.0135373 0.00648845 1.14252e-18)
(-0.0381989 0.0432966 1.93223e-18)
(0.000438473 0.000109539 -1.07017e-19)
(-0.0028784 9.61235e-05 2.69169e-19)
(-0.0785353 -0.0239472 9.04672e-17)
(-0.0814145 -0.0261235 -6.14048e-17)
(-0.00169728 0.000326148 -5.2016e-19)
(0.000333929 -0.000582056 -4.30146e-19)
(0.00231056 0.00270258 1.73435e-17)
(-0.000339797 -0.000939983 -1.41253e-18)
(-0.00243628 0.000353558 3.35491e-18)
(-0.0825612 -0.0175489 3.397e-17)
(0.0296528 0.128711 4.02018e-18)
(-0.0309223 0.00807373 5.44808e-18)
(-0.00261777 0.000366574 -7.97717e-19)
(0.0101574 -0.00233776 -1.2735e-17)
(-0.000407852 0.000639541 -7.65908e-18)
(-0.0013117 -0.000145462 1.49342e-18)
(-0.000305284 0.000309345 9.95363e-19)
(-0.000837312 -0.000478469 6.14499e-19)
(-0.0215184 0.0141199 1.85658e-18)
(-0.001281 -0.000366247 5.45461e-18)
(0.016366 0.0013211 2.09026e-16)
(-0.00812458 0.00679704 8.20151e-19)
(0.000107975 -0.00214896 4.79256e-18)
(-4.9024e-05 0.000133574 -2.70786e-18)
(-0.0676331 -0.00422061 3.68998e-17)
(-0.0297757 0.00785752 1.65214e-18)
(0.0128115 0.0299097 6.40122e-18)
(-0.00039959 0.000634466 9.21276e-18)
(-0.0142139 0.000130516 2.1214e-18)
(0.000165001 -0.000697855 -5.08645e-20)
(-0.00134007 0.00198566 7.05714e-18)
(-0.000181465 0.000504246 -7.06799e-18)
(0.000795958 -0.000158536 5.3464e-19)
(-0.0782394 0.00132787 4.52292e-18)
(0.0252367 0.00538274 4.06515e-18)
(-0.013651 0.0140202 1.91711e-17)
(-0.00629197 0.00425624 -5.11818e-17)
(0.00105387 1.10503e-06 -7.18635e-19)
(-0.00288314 0.03365 3.43678e-18)
(0.0223584 0.0121508 -7.71117e-18)
(0.000134766 -0.000170473 1.35853e-17)
(0.000651211 -3.9596e-05 -1.92538e-20)
(0.036386 0.103385 -4.52395e-18)
(-9.56922e-05 -0.000552004 2.07737e-19)
(-2.37569e-05 -0.00155091 -4.01276e-19)
(0.000639945 -2.58015e-05 3.58826e-19)
(-0.0220738 0.0148717 2.53862e-19)
(-0.000176725 0.00042886 -1.5595e-18)
(-0.00182923 0.00136337 1.0925e-17)
(-0.00963337 -0.00174204 4.45258e-18)
(-0.0731385 -0.0144618 2.89658e-17)
(0.00013576 -0.000696814 -3.29111e-19)
(-0.01306 0.0258747 4.38567e-18)
(-0.00221014 0.00400962 -9.19793e-18)
(4.14432e-05 0.000451413 2.90902e-18)
(-0.00236426 -0.00110116 -5.74747e-18)
(-0.00037402 0.000544547 -2.13429e-18)
(0.000274126 3.51608e-06 -2.3773e-19)
(-0.00148279 -0.000505099 -4.28677e-19)
(-0.00509885 0.00917865 6.40298e-18)
(-0.00455297 0.00240865 1.536e-18)
(0.000379947 0.00659715 2.41118e-18)
(-0.000208687 0.000111055 2.13436e-18)
(-1.39169e-05 0.000623364 6.34786e-19)
(-0.010598 0.00558759 1.25571e-17)
(0.0761361 0.0256926 -5.3945e-19)
(0.0391542 0.055372 -6.31798e-18)
(-0.0231251 -0.0116727 -1.1371e-16)
(-0.0240571 0.0116453 2.15123e-18)
(-0.0010346 0.000516061 1.12581e-18)
(0.000786772 -0.00015011 -5.06144e-19)
(0.000139055 2.79715e-05 3.12456e-19)
(-0.000753328 0.000732997 -1.14481e-17)
(-0.0315639 0.00667151 -7.50171e-18)
(-0.00450538 0.00293189 2.75921e-18)
(-0.00563364 -0.00165096 5.19181e-19)
(-0.00336172 0.00181041 -8.93885e-18)
(-0.00163917 0.000316414 1.22341e-17)
(-0.0349772 0.0368272 -4.05149e-18)
(-0.00872931 0.0141782 6.94857e-18)
(-0.000361289 0.000531165 -3.27824e-18)
(-0.00144256 -0.00102157 7.77937e-18)
(0.00505529 -0.000737099 5.76992e-17)
(-0.00107936 0.000913612 -8.40621e-18)
(0.0242533 0.13158 2.36023e-18)
(0.00119811 1.22545e-06 1.84549e-19)
(-9.44609e-06 0.000761674 4.68878e-18)
(0.10396 0.0543935 4.27629e-18)
(-0.00197135 0.00186499 2.80285e-18)
(-0.000932737 -0.000451115 -2.15628e-18)
(-0.0151421 0.046552 8.3676e-18)
(-0.0223404 0.0187071 1.07384e-18)
(-0.00499301 0.00148682 1.30777e-18)
(0.00146691 0.00395469 4.65207e-17)
(-0.000370447 0.000475443 2.50509e-18)
(-0.000983496 0.000909882 -4.51085e-18)
(-0.0036736 0.0100312 3.06794e-17)
(-0.0044051 0.00524656 -6.26813e-17)
(-0.00215701 0.00348261 -2.48871e-18)
(-0.00287277 -0.00487726 6.51676e-18)
(-0.0490821 0.00270529 -8.48145e-18)
(-0.0382992 0.0363077 -4.21747e-18)
(-0.0764612 -0.000273077 -7.27454e-18)
(-0.0468022 0.00508783 4.53296e-18)
(-0.000451395 0.00112979 -2.74403e-18)
(0.0102454 -0.0061554 3.31506e-18)
(-0.000670578 0.000372305 2.97691e-19)
(-0.0326832 0.00658726 3.91345e-18)
(-0.00117237 -9.61961e-05 -2.16436e-18)
(-0.000650332 0.00406379 -2.57117e-17)
(-0.0140891 -0.000510335 -3.44663e-18)
(-0.0336889 -0.0261903 -1.95839e-17)
(-0.00546853 -0.00158256 -8.42565e-19)
(-0.0218108 0.00254847 1.06001e-17)
(0.00113504 -6.58775e-05 1.8011e-20)
(0.00165636 0.0551514 2.57617e-17)
(0.00043629 -0.00042013 -2.81128e-19)
(-0.0107933 0.00493472 3.86268e-18)
(-0.000339527 0.000326837 2.00649e-18)
(-0.0128431 0.00123659 1.70838e-17)
(2.60337e-05 0.000525633 1.8128e-18)
(0.0535187 0.0174682 2.60318e-18)
(-0.00245853 0.000496093 -1.32112e-17)
(0.000108253 0.000523115 -2.13364e-18)
(-0.000173541 0.000188571 1.27532e-18)
(0.000635335 -2.75416e-05 1.48384e-18)
(0.0747517 0.0259573 -1.92604e-18)
(-0.0450873 0.00490103 6.68187e-18)
(-0.0366536 0.020845 -5.10446e-18)
(-0.00765373 0.00234871 3.07551e-18)
(-0.00198661 -0.00211703 4.06684e-18)
(0.00726596 -0.00108289 -1.9308e-18)
(0.000105624 1.35198e-05 -1.08243e-19)
(-2.37057e-05 5.63081e-06 -2.69317e-18)
(0.0302458 0.0242394 -2.14522e-18)
(-0.00016191 0.000197093 5.91405e-19)
(-8.44747e-06 0.000711584 1.36845e-18)
(0.0109892 0.00416997 -1.01422e-17)
(0.000529749 0.000100067 -4.82517e-19)
(-0.0030265 -0.00454016 -1.75419e-17)
(0.00676153 -0.000283565 1.53886e-18)
(-1.28718e-05 0.00070396 9.87203e-19)
(-0.00015937 0.000425819 -5.79052e-18)
(-0.00173025 0.00211333 -2.23522e-18)
(-0.00104614 0.000900072 1.05498e-17)
(-0.00126058 -0.000120193 5.80426e-18)
(0.0204001 0.0524388 -6.21468e-18)
(-0.00481387 -0.00737928 -7.64213e-18)
(-0.00212866 0.00342025 1.99907e-17)
(-0.00172429 -0.000165149 -2.39542e-18)
(8.07191e-06 0.000640898 1.71378e-18)
(-0.00328285 0.0128356 6.70195e-19)
(-0.000297809 0.00121797 -9.35161e-18)
(-0.0010179 -0.000252081 1.8836e-18)
(-0.00620411 0.0156983 -1.15856e-17)
(-0.0579592 -0.00435692 2.52781e-17)
(-0.0210159 0.00200103 -1.3904e-17)
(0.0623065 0.0199797 1.86395e-18)
(-0.00174457 0.000343827 -3.04689e-19)
(-0.0010534 -0.000272066 -1.33206e-18)
(-0.0585378 -0.00571734 5.12881e-18)
(-0.000185021 -0.00114925 3.9391e-18)
(-0.0800429 0.000461074 -2.03617e-18)
(-0.0123267 0.00118973 -6.30426e-18)
(9.46022e-05 0.000544221 -1.50621e-18)
(0.0225442 0.0483284 5.29633e-18)
(0.0275791 0.0375709 -2.12398e-17)
(0.00237281 0.00316022 6.35695e-18)
(0.00120432 -6.85466e-06 2.69826e-20)
(-0.00493274 -0.00103806 1.06511e-17)
(0.0398014 0.0235406 2.01105e-19)
(-0.000617275 -0.00047169 -8.47374e-19)
(-0.000373914 -0.00040015 -7.54098e-19)
(-5.95341e-05 -0.00299214 4.00578e-19)
(-0.00067291 -0.00212893 1.73352e-18)
(-4.53172e-05 -0.00140454 -4.92713e-19)
(0.00129219 -2.61916e-05 8.45313e-19)
(4.37757e-08 1.73824e-06 3.45697e-18)
(-0.0772636 -0.0148511 -7.04802e-17)
(-0.00149301 -0.000375643 -3.78041e-18)
(-0.0845451 -0.0229567 4.86694e-17)
(-0.000121671 0.000493542 2.93825e-18)
(0.0104144 -0.00816748 -4.46851e-18)
(-0.0681621 -0.0166496 1.65539e-17)
(4.09159e-05 0.000457468 4.59356e-18)
(0.000402249 -0.000380513 -1.51497e-19)
(-0.0014292 -0.000345854 -3.45494e-18)
(0.000285745 0.000214016 -2.10127e-18)
(-0.00110313 0.000460567 -1.76785e-18)
(-0.00070937 0.00162823 8.38856e-18)
(-0.000723556 -0.00015526 -5.5274e-20)
(0.00393202 0.0153645 -1.448e-17)
(-0.00502583 0.0102346 -1.21395e-17)
(0.000937223 -0.000272255 -1.02361e-19)
(0.0375757 0.0237707 -1.24453e-18)
(-0.041089 0.0180035 1.76375e-17)
(-0.00189494 0.00349988 3.14843e-18)
(0.0107516 -0.00556363 -9.88566e-18)
(-0.0124931 0.0151834 -2.5662e-18)
(-0.0013973 0.00204696 -1.70766e-17)
(-0.00441085 -0.00719631 -6.99414e-18)
(-0.00174001 4.1582e-05 4.94284e-18)
(0.0184654 0.0225092 6.41477e-18)
(-0.00147912 -0.000389698 3.7708e-18)
(-0.0107899 -0.00056231 -5.64737e-18)
(-0.000601878 0.000402529 2.81038e-18)
(0.0557563 0.106468 -3.20186e-18)
(-0.00099226 0.00212616 8.80249e-19)
(-0.00895542 0.00527824 -1.17773e-18)
(-0.00525891 0.023388 -2.16243e-18)
(0.0121944 0.000998582 5.58187e-17)
(-0.00146232 -0.000375324 6.61336e-18)
(-0.000408918 0.000424509 6.07198e-18)
(0.00262661 0.000440043 1.91008e-17)
(-0.0011819 -0.0279889 4.84296e-17)
(-0.00107069 0.000506997 -2.03831e-18)
(-0.0137764 8.68752e-05 2.02784e-17)
(-0.000535198 0.000982233 6.63631e-18)
(0.0634461 0.0345726 -4.63102e-18)
(-0.00113844 0.000411323 -7.27752e-19)
(-0.000161566 -0.000499413 1.84604e-19)
(0.000630466 -2.86027e-05 -8.81444e-19)
(0.000524193 8.20777e-05 -3.4008e-18)
(-0.0331158 0.0204007 7.49612e-18)
(0.0655465 0.0331193 -2.18762e-18)
(-0.000357274 0.000659888 -5.39434e-18)
(-0.0482718 0.0200045 -2.26247e-19)
(-0.00247503 0.00185507 -1.58979e-17)
(0.0418494 0.0583433 -6.94589e-18)
(-0.0440486 0.00571301 -1.01512e-17)
(0.0400436 0.017427 5.29458e-18)
(0.0391607 -0.00694059 -1.58399e-17)
(0.000584448 -0.00144656 -5.12278e-19)
(-0.0194967 0.0237947 8.45142e-20)
(-0.0181537 -0.000230551 2.20062e-19)
(-0.00060705 0.000197217 -1.30813e-18)
(-0.00676914 0.00336101 1.78588e-17)
(0.0279987 0.0233986 1.38114e-18)
(0.115279 0.057519 -5.09358e-18)
(-0.000993953 -0.00113134 -1.59737e-18)
(-0.000153446 0.00145615 -1.77586e-18)
(-0.000639596 0.000281743 2.32963e-18)
(0.00144791 -7.17546e-05 -5.82669e-21)
(0.0977817 0.0123819 2.63253e-17)
(0.00221138 0.0161654 1.37097e-17)
(-0.0291659 0.0223098 -2.56698e-17)
(0.0233068 0.0102377 7.73273e-18)
(-0.000343983 0.000780892 6.14125e-18)
(0.000296451 0.00021378 -6.47847e-19)
(-0.000290981 0.00548182 -9.35263e-18)
(3.38135e-05 1.11655e-05 -1.19177e-18)
(0.000137218 1.65664e-05 8.91852e-20)
(-0.000665708 0.00161497 -7.15599e-18)
(-0.000184708 -0.00264533 2.06926e-18)
(0.0050568 0.0156795 5.69899e-18)
(-0.00124579 0.00206675 5.28668e-18)
(-0.00950149 -0.00829252 1.22592e-17)
(0.00466278 0.0273092 1.33673e-17)
(-0.00245369 -0.00495847 -3.39724e-18)
(5.00069e-05 0.00054391 5.03847e-19)
(-0.00188342 0.00181646 -3.50574e-18)
(-0.00191555 -0.00888969 5.38729e-18)
(0.0220119 0.0255673 1.26854e-18)
(-0.0102975 -0.000846629 -3.10628e-18)
(-0.0273068 0.000960226 2.61097e-17)
(0.0017259 0.000164117 -5.6363e-18)
(-0.000375178 0.000686212 5.17061e-18)
(-0.0456707 0.0196999 1.77639e-18)
(0.0661131 0.0247303 8.27717e-18)
(-0.00099995 0.000385743 1.85345e-18)
(0.000400255 -0.000693557 -1.16103e-18)
(-0.0031032 0.0074878 1.01618e-17)
(-0.0512466 -0.00341422 -4.90022e-17)
(-0.0102657 -0.00833334 -2.18884e-17)
(0.000474679 7.37206e-05 3.87774e-18)
(-0.0151643 0.00518963 1.9379e-17)
(0.0195587 0.00215251 2.54777e-18)
(-0.0106504 -0.027459 -4.84829e-17)
(0.000498554 -0.000446762 -2.87137e-19)
(0.00863359 0.00061908 4.07636e-17)
(0.0170584 0.00107629 -3.13968e-17)
(-0.00655647 0.00492955 -6.91039e-17)
(-0.00128234 -0.00038537 -2.82255e-18)
(-3.21121e-06 0.000396561 -1.53324e-18)
(-0.0516714 0.00604349 3.51443e-18)
(3.58589e-08 1.06602e-06 -1.46623e-18)
(-0.0305462 0.0225375 6.25392e-18)
(-0.0783773 0.000699003 8.24736e-19)
(0.0214965 0.00306223 3.1005e-17)
(0.011235 0.00118725 -2.37658e-18)
(-0.0118443 0.0129057 4.7033e-18)
(0.00628092 0.0089411 3.38372e-18)
(-0.00450178 0.00963206 -5.77076e-18)
(-0.000599876 0.000724388 1.01095e-18)
(-0.000126489 0.00142907 -1.33943e-18)
(-0.0205193 -0.00775003 -3.68998e-18)
(0.0210029 0.0872198 -2.60438e-18)
(0.0185406 0.00090139 -3.24621e-17)
(0.0432905 0.119363 -2.24157e-18)
(-0.000151387 -0.0011963 9.99815e-19)
(-0.0295039 0.0228872 3.08555e-18)
(2.77209e-05 8.39334e-06 -1.39503e-18)
(0.00268741 -0.000601487 -4.48387e-18)
(-0.0167403 0.0110315 5.57458e-18)
(-0.000833849 -0.00983551 3.54667e-17)
(7.81513e-05 0.000543524 9.47221e-19)
(-0.00159409 0.00140525 6.64564e-18)
(-0.00364051 0.0320262 6.79802e-18)
(0.0344107 0.0228771 6.86249e-19)
(-0.0177143 -0.00871322 3.64372e-17)
(0.0200664 0.000449143 -4.43252e-17)
(-0.000657047 -0.000949424 8.92791e-18)
(-0.00266474 -0.000139967 4.18431e-18)
(-0.017663 0.0355759 -2.14874e-18)
(-0.000234313 0.00114439 -4.52313e-18)
(0.000139758 -0.000666707 3.05842e-19)
(-6.941e-05 0.000282136 4.10039e-18)
(-0.00194056 -0.00406038 8.94238e-18)
(-0.0199923 0.0025354 1.65126e-18)
(-5.30123e-05 0.000594146 1.39145e-18)
(-0.0161808 0.0101955 2.73721e-19)
(0.000152472 2.72699e-05 3.68895e-18)
(0.000824143 3.86839e-06 1.40381e-18)
(0.000316043 -1.05379e-05 -9.79303e-19)
(-0.0149662 0.0256952 -2.28749e-17)
(-0.000261345 0.00123743 1.43004e-18)
(0.000124649 9.40831e-06 -2.50475e-18)
(-0.000542644 0.00502923 -1.04371e-18)
(0.00111135 0.00273608 1.72976e-17)
(0.00100539 -0.000281198 1.8793e-19)
(-0.078556 0.00115132 2.36148e-17)
(-0.000336287 -0.000979595 -9.66198e-19)
(0.000648042 -0.00105808 3.06548e-19)
(0.00162381 -0.00151417 1.79299e-17)
(-0.00240259 0.00324585 2.45212e-18)
(-0.00219006 -0.00212887 1.59952e-18)
(-0.00118024 0.00013119 -2.23625e-19)
(-0.0254214 -0.000450862 -2.13119e-17)
(-0.00203251 0.00356088 9.44851e-18)
(-0.00237454 -0.000794803 1.54255e-18)
(0.0690233 0.0235928 -8.24646e-18)
(-0.00229745 -0.000849997 -3.20038e-18)
(0.0270108 0.0999001 -8.59539e-19)
(-0.000326301 0.00250977 -5.16636e-18)
(0.00325236 0.0164441 -1.4422e-17)
(-0.00271538 0.00341818 -9.89119e-17)
(0.0978626 0.00823922 -2.6779e-17)
(0.000348435 -0.000678642 1.61997e-19)
(0.0215714 0.0222125 6.82735e-18)
(0.0152908 0.0493991 -3.05579e-18)
(0.000837955 -7.6546e-05 3.27986e-19)
(-0.0261311 0.00975923 2.02791e-17)
(1.91563e-05 0.000625012 -7.6133e-18)
(0.000334719 -1.69902e-05 -2.42736e-18)
(-0.000771877 0.0013198 6.82896e-18)
(0.000263778 3.87338e-05 1.91293e-18)
(-0.00784229 -0.00348755 1.22858e-17)
(0.0197436 0.0247321 -3.6049e-18)
(0.000462192 -0.000395476 -8.94623e-19)
(0.00253132 0.00179035 -7.78765e-17)
(0.000627737 -0.00141004 -2.03488e-19)
(-0.000437692 0.000195795 -4.05321e-18)
(0.0143477 0.0888658 -5.63711e-18)
(0.000997007 -0.000270077 2.22512e-19)
(-0.0531226 0.00298683 2.04705e-17)
(-0.00140717 0.000430478 -1.38912e-18)
(-0.000388184 -0.00081821 1.16165e-18)
(-0.000200006 0.000278486 -7.92987e-18)
(-0.000116292 0.000284425 2.62898e-19)
(0.0235462 0.00845849 -2.37398e-17)
(-0.00269404 0.00594943 -3.85945e-17)
(-0.0685285 -0.00168771 1.32747e-18)
(-0.00230196 -0.00522071 1.33896e-17)
(-0.0488507 -0.0137453 1.11846e-17)
(0.000452928 0.00494332 4.82505e-18)
(-7.50335e-05 0.000612789 -4.98516e-18)
(-0.00600293 0.0342609 -4.82877e-18)
(0.0189127 0.000769607 9.66534e-17)
(0.0265399 -0.00681265 6.28164e-17)
(-0.00316097 0.00598435 -1.1191e-17)
(0.0175328 0.00429816 2.92436e-17)
(-0.0186994 -0.00181032 4.35416e-18)
(-0.00135847 -0.000341999 -1.20526e-17)
(0.0237004 0.00691666 -1.32059e-17)
(-0.00111746 0.000155108 -1.59368e-19)
(-0.019509 0.00245727 -1.61686e-17)
(0.000554202 4.31347e-05 -2.27131e-19)
(0.00758852 0.000897484 -2.3161e-17)
(-0.0010339 -0.00123066 -2.77016e-18)
(-0.00335878 0.00573267 -1.04452e-17)
(-0.00171127 0.00220945 -6.22406e-18)
(-0.000865721 -0.000418162 -4.17888e-18)
(-0.0952265 -0.0220764 -6.9758e-18)
(-9.37979e-05 0.00146238 -7.16663e-19)
(0.000164572 1.65862e-05 -2.16623e-18)
(-0.0114648 -0.0276992 1.72662e-17)
(-0.00141184 0.000471306 2.82217e-20)
(0.000274293 -6.52362e-06 1.80588e-18)
(-0.00457616 0.00331638 -6.71865e-18)
(0.00553062 -0.00289807 1.72479e-17)
(0.0242947 0.00902541 2.94664e-17)
(-0.0129921 -0.028399 2.7842e-17)
(0.0707175 0.0224988 -4.98197e-18)
(-0.067654 -0.00623036 6.28087e-19)
(0.000310041 0.000208895 1.45727e-18)
(-6.24155e-06 0.000346061 -2.5384e-18)
(-0.017616 0.00639188 -1.74882e-17)
(-0.000130212 0.000424258 1.42573e-18)
(-0.0137395 -0.00733043 -3.1567e-17)
(-0.0123292 0.0138387 -6.74596e-18)
(-0.00123381 -0.000365942 1.94881e-18)
(-1.47397e-05 0.000714669 -4.56623e-18)
(-0.00216998 -0.000656719 4.40048e-19)
(-5.98858e-05 0.000490751 2.82609e-18)
(-0.000383886 -0.000792913 -8.2734e-20)
(-0.00322068 -0.000502848 1.0062e-17)
(-0.0138799 -0.00828191 9.7997e-18)
(-0.00925571 -0.00876601 3.63638e-17)
(-0.00333827 0.00768709 2.22358e-17)
(-0.00389443 -0.00356088 3.61258e-18)