/*--------------------------------*- C++ -*----------------------------------*\
| =========                 |                                                 |
| \\      /  F ield         | OpenFOAM: The Open Source CFD Toolbox           |
|  \\    /   O peration     | Version:  v2012                                 |
|   \\  /    A nd           | Website:  www.openfoam.com                      |
|    \\/     M anipulation  |                                                 |
\*---------------------------------------------------------------------------*/
FoamFile
{
    version     2.0;
    format      ascii;
    class       surfaceScalarField;
    location    "100";
    object      meshPhiCN_0;
}
// * * * * * * * * * * * * * * * * * * * * * * * * * * * * * * * * * * * * * //

dimensions      [0 3 -1 0 0 0 0];
oriented        oriented;


internalField   nonuniform List<scalar> 
27907
(
-0.000242415
-0.000569257
0.000811712
-0.000499892
0.000665712
-0.000165813
0.000788004
0.000371238
-0.000997292
0.000390885
-0.00074039
0.00034951
0.000408335
-0.000627449
0.000219115
-0.000308216
0.000612119
-0.000303902
-0.000405764
0.000453027
-4.72635e-05
-0.00221755
-5.9165e-05
0.00234903
-0.00021704
-0.000514575
0.000731635
-0.000869626
0.00151267
-0.000642169
-0.00225605
0.00115104
0.00110778
0.000321093
0.000247786
-0.000568877
0.000371013
-0.000166532
-0.000113758
0.000656653
0.000253325
-0.000909913
0.000282858
0.00164499
-0.00192328
-0.000345874
0.000717597
-0.00037172
0.00147802
-0.00109466
-0.000382898
0.00292548
-0.000837496
-0.00204731
-0.00248244
0.00236536
0.000126355
0.000430537
0.000947594
-0.00137763
-0.000269153
0.000450696
-0.000181542
0.000227102
0.000197641
-0.000418532
0.000368522
-0.000598075
0.000229554
-0.000421177
-0.000159847
0.000581031
-0.000811812
0.000463742
0.000348079
0.0001001
-0.00223868
-0.00065612
0.000369214
0.000286908
0.000475134
-0.000618795
0.000143661
0.000524488
-0.000678726
0.000154242
-0.000527425
5.62379e-05
0.00047119
-0.000783796
0.00126185
-0.000477852
0.000474378
-0.000194874
-0.000279504
8.40806e-05
4.80104e-05
-8.69355e-05
-7.26786e-05
0.00196147
-0.00188409
0.000390588
-0.000990731
0.00060021
0.000324147
0.00109869
-0.00141925
-7.13135e-06
-0.000112002
0.000151192
0.000493559
-0.00244118
0.00195546
0.00232024
-9.48375e-05
-0.00221892
0.00153133
-0.00058412
-0.00094678
0.00110999
0.00153038
-0.00263198
0.0010707
0.000783179
-0.00185312
-0.00278955
0.000685363
0.00213376
0.00155075
3.36051e-05
-0.00158348
-0.000552477
-3.19954e-05
0.000584479
-0.00013652
-0.000876585
0.00112265
-0.000103409
0.000471931
0.00144897
0.00039429
-0.00184124
0.000842337
-0.00171099
0.00242737
-0.000112593
-0.0022789
-0.000632978
-0.000238534
0.000871567
0.000456199
0.000161124
-0.000617322
-0.0007128
0.00178012
-0.000984479
-0.000778977
-0.00147387
0.000482807
-7.67258e-06
0.000702943
-0.000350639
-0.000352298
-0.000141603
0.000166023
-0.000537841
-0.000314175
0.00198312
-0.00242771
0.000449522
0.000111997
-0.00092635
0.000814412
-0.00105036
0.000330424
0.000719988
8.31216e-05
-0.000488885
-0.000760203
-0.000154401
0.000914659
0.000985401
-0.00217623
0.00119245
0.000791416
-0.00143064
0.000284411
0.00201453
-0.00229597
0.00142111
8.65499e-05
-0.00150725
-3.88213e-05
0.000161401
0.00274018
-0.0003511
-0.00237766
0.00050835
-5.21502e-05
-0.000165859
-0.000294241
0.000460101
0.0021896
-0.000247651
-0.00194026
0.000138899
0.00232178
0.000357231
-0.000495781
0.00013855
0.00270029
-0.000259874
-0.00239967
-0.00187716
0.00262023
-0.000737135
0.000178457
-0.00087876
0.000700324
-0.000527534
0.000499547
2.79875e-05
0.000663164
-0.00099252
0.000329397
-0.000154256
-0.000339436
0.000493693
0.000264191
0.00028847
-0.00055266
-0.000353079
-0.000230717
0.000583801
-0.000587848
0.000699888
0.000688641
-0.000330387
-0.000358253
-0.000573051
0.000751529
0.00116399
0.000616377
-0.00177949
0.000281089
0.000295488
-0.000576575
0.000252958
-0.0010131
-0.00027536
-0.00017083
0.00044619
-0.00268704
0.000816117
0.0003485
0.000340142
0.00251773
-0.000529257
0.000175828
0.000433232
-0.000609059
-0.000756471
0.00182792
0.000425482
0.00016743
-0.000592911
-0.000291786
0.000467614
0.000281561
-0.00085459
0.000790795
0.00194349
-0.00304384
0.000951688
0.00210173
-0.000481633
0.000212479
-0.000649533
0.00137841
-0.000728394
-0.000675487
0.000237128
0.000438359
0.000808362
-0.00102639
0.00021813
0.0012085
-0.000279881
-0.000928424
0.000290089
0.000184289
9.60965e-05
-0.000623519
0.000308873
0.0003387
-0.000647568
0.000112992
-0.000640524
0.00198812
-0.00251605
0.000531608
-0.0020728
9.95872e-05
0.00197326
-0.000568657
0.000276872
-8.14074e-05
0.00237223
-0.00214564
-0.000153405
0.00261087
-0.000494519
-0.00211015
-0.000232472
-0.000331489
0.000563965
-0.000371675
0.00041373
-4.2055e-05
0.000312237
0.000188917
-0.000501154
0.00195243
-0.00166509
0.000399486
-0.000605717
0.000206232
-2.69847e-05
0.000452468
0.0016793
-0.001209
-0.000469765
-0.000425827
-0.00136561
0.00179391
-0.000605618
5.5126e-05
0.000550495
0.000571883
-0.000463015
-0.000108866
-0.000705128
0.000387201
0.000317938
0.000168428
-0.000720899
0.000186287
-0.000686171
-0.000777044
0.000117776
0.000659279
-7.34286e-05
0.000506662
-9.97313e-05
1.50889e-05
0.000195398
0.00100957
0.000468811
-0.000375127
-0.000280989
0.000273283
0.000177412
-0.000320396
0.000988086
-0.000667577
-4.66266e-05
-0.000383474
0.000284568
0.00127515
-0.00155864
-5.54454e-05
-0.000823289
0.000811523
0.00072016
-0.000294494
-0.00273591
-0.00105972
0.00081887
0.000240874
-1.38608e-06
0.000664583
-0.000773612
0.000574911
0.000198715
-0.00149291
-0.000838806
0.00233791
0.000265814
0.000437134
-0.000899454
0.00201627
0.00216798
3.25726e-05
-0.00219225
-0.000340204
-0.000110442
0.000450645
0.000345594
-0.000581322
0.000235728
-0.00120967
0.000426076
-0.000683156
0.00010631
0.000576848
0.000270329
-0.000623403
-0.000556418
0.000641299
-8.48749e-05
0.000878064
-0.00175347
0.000876395
-0.000326801
-1.83758e-05
0.000362749
-0.000181254
-0.000300933
0.000482188
0.00186625
-0.00124535
-0.000619689
0.000510867
-0.00011138
-0.000282178
0.00173289
-0.00283909
0.00155562
0.00128685
1.08195e-06
0.00011365
-0.000110145
-0.00270822
0.000645082
0.00208793
-0.000366593
-0.000377025
0.000743656
-0.000260108
-0.000287001
0.00054711
-0.00111662
-0.00171867
-0.000254062
-0.000796247
7.4357e-05
0.000450134
-0.00252436
0.00251536
1.84048e-05
0.000239048
-0.000610444
0.000371399
0.000435984
0.000318646
-0.000754606
0.000599268
-0.000300094
-0.000299173
0.000194295
0.00029866
-0.000492955
0.00135097
0.0016072
-0.000561052
0.000300945
0.000342835
0.000206347
-0.000549182
-0.000776939
0.000410384
-0.000744758
0.000323589
-0.000237773
0.000635164
-0.000397388
-0.000683496
0.0016702
-0.000385146
-0.000674535
-8.08333e-06
0.00212935
-0.00211446
0.00218948
-0.000275149
-0.00184105
-0.000259801
-0.000178837
-0.000583536
2.71241e-05
-0.00308169
0.000991741
0.00211616
-0.00203376
0.000534684
0.00150068
0.000873649
-0.000615264
-0.000258376
0.000481388
0.00188689
-0.00236024
0.000168849
-0.000540523
0.00257738
-0.000118438
-0.002421
0.000221855
-0.00239675
0.00218116
-0.00088232
0.000562007
1.90096e-05
-0.000796041
-0.00218869
0.000834118
0.00135808
-0.000846831
-0.00036261
-0.00131348
0.00117888
0.000134843
-0.000634555
0.000887568
-0.000871049
0.00130207
-0.000338065
0.000774075
0.000186783
-0.00116191
0.00101429
-0.00259418
-0.000160105
0.000958192
-0.000422245
-0.000535922
0.00173554
-0.00201565
-0.000945972
-0.000342337
0.00128872
-0.000986235
6.57067e-05
0.000920618
0.000318408
0.000138556
-0.000268014
-0.00104517
-0.00097153
-5.40586e-05
0.00102569
1.6537e-06
-0.000316339
-0.000171447
0.000443731
-0.000272285
-0.000688439
0.00153164
0.00284882
-0.000823771
-0.00198585
0.000912378
0.000296297
0.00252601
-0.00172492
-0.000797417
-0.000657557
-0.000387893
0.00104579
0.000606046
0.000406831
-0.00101283
-0.000683319
0.000332563
0.000350757
0.000776788
-0.000170706
0.000712741
-0.00040297
-0.000309769
-0.00290307
0.00133829
0.00161854
-0.000595107
0.000286892
0.00204963
0.000100775
0.00188995
9.53661e-05
0.000622884
-0.000718225
0.00016979
-0.000509994
-0.000792861
0.000514365
0.000278516
7.15536e-05
-0.00104298
0.00127036
5.55481e-05
-0.00132571
-0.000671434
-0.00036737
0.00103895
-0.00149469
-0.000914702
0.00243211
-0.00116601
0.000262044
0.000904059
-0.00176145
0.00204828
-0.00100575
0.000371265
-0.000483487
-8.99153e-06
0.000492479
-0.000440301
0.000721882
-0.000150177
6.51282e-05
-0.00213244
0.00262239
0.00136681
-0.00283633
3.32226e-05
0.00110097
-0.00102824
-0.000673251
6.76356e-05
-0.000307976
-0.000818459
0.0011269
-0.002535
0.00246954
8.87281e-05
-0.00079745
0.00046617
0.00033129
0.000590821
-0.000281944
-0.00103553
0.00190199
-0.000863335
-4.01584e-05
-0.000642994
0.000467013
-0.000209624
-0.000257389
0.000290774
-0.000731056
-0.0012465
0.00157292
0.000202223
0.000350091
-0.000552313
-0.000784686
0.0014435
-0.000658593
0.00126641
-0.00170923
0.000446801
-0.000344761
0.000583811
0.00141179
-0.000247097
0.000788921
-0.00157338
-0.00244769
0.000773068
0.00167965
0.00155839
-0.00138992
-0.00016814
-0.000189996
0.000694905
-0.000504898
0.000219234
0.000493509
0.00057908
-0.00123625
0.000516981
0.000430181
-0.000947116
-0.00272224
0.0026746
-0.000406209
0.00117772
-0.000771364
0.00198621
0.000552873
-0.00252439
0.000162802
-0.00114893
0.000936956
-0.00162447
-0.000497365
0.000592751
-0.000384194
0.000443007
-5.88133e-05
-0.000762468
-0.00207195
-0.00244786
0.000654404
0.00179771
-0.00015731
-0.000462242
0.000619565
-0.0018212
-0.000621324
-0.00138182
-0.00065038
-0.0011002
0.000579337
-0.000670974
9.16401e-05
-9.66025e-05
0.000408839
0.00255773
-0.00260392
5.28882e-05
0.00113691
-0.000779068
-0.000357767
-0.000149643
0.000379872
-0.000230228
0.000383947
-0.000614659
0.000761917
0.00125924
-0.00201831
-0.00279461
0.0027737
4.22493e-05
4.62942e-05
0.00109061
-0.00113598
0.000961501
-0.00126894
0.000866535
-0.00235337
0.000320877
-0.000470521
-0.000366078
-0.000431358
-0.000758551
0.000582419
0.000176143
-0.000165355
-0.000586894
-0.000177299
0.0025838
-0.00238107
0.00106348
-0.000158872
-0.00115381
0.000615303
0.00053862
-0.000335131
-0.000348187
0.000307994
0.00140536
-0.00171304
-0.000475489
0.000734253
0.000204728
-0.000938925
-0.00164467
0.00042903
0.0012165
0.000466415
-0.000199793
-0.00227116
0.000148675
-0.000586455
0.000437794
0.000268881
0.00101774
-0.00103735
-0.000592193
0.000407733
0.000184461
-0.000797606
-0.000386617
0.00118444
0.00218801
0.000562327
-8.23818e-05
0.00136132
-0.00127836
0.00111913
-2.64382e-05
-0.00109257
-0.00112619
-0.000751844
0.00188126
-0.000373933
0.00164479
0.000366999
0.00011357
-0.000480569
-0.00014162
-0.000616914
-0.00045972
-0.00188793
0.00236128
-0.000448889
8.87196e-06
0.000440017
0.000517521
-0.000495101
-0.000297739
-0.00240026
-0.000288226
0.00270314
1.85977e-05
-0.000430265
-0.000138566
0.000568838
-0.00220154
0.00116976
-0.00276622
-0.000288228
-0.0029065
0.00109907
0.00181974
-0.00189073
0.000179617
0.00171145
-0.000432692
0.000751363
0.000232965
0.000886259
0.00123299
-0.0011857
-0.00156484
0.000746871
-0.000449878
0.00139801
-0.00145811
0.000575918
-0.00235097
-0.00035456
-0.000322815
0.000328397
0.000702225
-0.000584439
-0.0011631
0.000675509
0.000487721
0.000780914
0.000356043
-0.000213662
0.000604552
0.00150172
-0.00119347
-0.000807268
-0.00137762
-0.000118099
2.39572e-05
0.000227685
-0.000398012
0.000546701
-0.000336734
-0.000255457
-0.001135
0.00252338
0.00278347
-0.000755828
-0.00198736
0.00136934
-0.00248346
-0.00124812
0.00153376
0.000603267
-0.00127452
-0.000357273
-0.000454528
-0.00248306
0.00206067
-8.49446e-06
-0.00200347
0.00201243
-5.13344e-05
0.0024099
-0.00232566
-0.00074581
0.000399939
-0.000560662
-0.000212934
-0.000321929
0.000886449
-0.000564487
-0.00110863
0.000642551
0.000466114
-0.000743454
-0.00125013
0.00199902
0.000581552
-0.000705766
0.000124226
-0.000905619
0.000663254
0.00151129
-0.00101401
-0.000496866
-0.00134721
0.000692296
0.000655067
-0.000284623
0.000316069
0.000172984
-0.000489052
0.000315867
0.000557791
-0.00126766
0.00128337
4.12373e-05
-0.000945035
-0.000393517
0.00133899
-0.000759092
0.000423315
0.000335783
3.18657e-05
0.000547474
0.00200701
-0.00130506
-0.00070049
-0.00252121
0.00236895
0.00044973
-0.00112157
0.000671993
0.00107341
0.00151766
-0.00258188
0.00155291
-0.00118896
-0.000363205
-0.000476852
0.000714246
-0.000237388
-0.000237207
-0.000373565
0.000610776
-0.00093427
7.83023e-05
0.00085604
0.000999629
-0.00144893
0.000154578
-0.000538771
0.00184743
-0.00242651
0.000582773
0.00175438
-1.65713e-05
0.00240068
-0.00208571
-0.000306788
-0.000194037
0.00252052
0.00114455
-0.000555072
-0.000589409
-0.00121344
0.00182495
-0.00060925
4.00348e-05
-0.000488924
-0.000207512
-0.000455988
0.000663513
-0.000756701
-0.0016854
-0.0025061
0.00206099
0.000539488
-0.000288742
-0.000250746
0.000126278
-0.00106046
-0.000637417
0.000420394
0.00239488
-0.000543955
-0.000921376
0.00113281
-0.000211189
-0.00251368
-0.000258684
0.000774895
-0.00176601
0.000991847
0.000612236
-0.00197657
-0.00243606
0.0017286
0.000390018
0.000109533
-0.000499551
-0.000394645
0.000223198
0.000200282
0.000256556
-0.000456836
-0.000287566
-0.000333084
0.000403468
5.92128e-05
-0.000867016
0.000637494
0.000229548
0.000588989
-0.000283292
-0.000305697
0.00112573
0.000433061
0.000625422
0.00180951
-0.000839612
0.000625955
0.0025854
-0.00254959
-2.07748e-05
-6.68735e-05
-0.00206081
0.00213557
0.00023726
0.00202249
0.000509362
0.000635252
-0.00219278
0.00229845
-0.000102362
-0.000241128
0.00179281
-0.000576337
-0.000532249
-0.000665858
0.000331656
0.000334204
-0.000411495
-0.00247546
0.000498129
-8.97932e-05
0.00101302
0.000223912
-0.00123662
-0.00248255
9.85511e-05
-0.00196146
0.00096557
0.000997486
0.000551947
0.00206476
-0.00261153
0.00199765
-0.000330424
-0.00131341
0.000668254
0.000362502
-0.00103062
-0.000724864
-0.0007331
0.000223063
0.00024395
0.000953542
0.000726153
0.000685181
0.00144563
-0.00212603
-0.000545063
0.000387763
-0.00024032
-0.000338467
0.000578789
0.000718985
-0.000496117
-0.000222861
-0.00031715
0.000511445
-0.00103866
0.000372851
0.000665897
0.000761506
0.00138673
-0.0021452
-0.00195356
-0.000420529
-0.000125555
-0.00238262
0.00218301
0.000346121
0.0011027
-0.00102431
0.00136312
-0.000832249
-0.000530481
-0.00136492
-0.000103948
0.00146961
0.000582219
-0.00137958
0.0014953
-0.000754452
0.000342945
0.000411516
0.000880006
-0.0014905
0.00204635
-0.000471262
-0.00109301
0.000276245
-0.000551605
-0.00121092
0.00188543
-0.000672545
-0.00069259
0.000455386
1.62874e-05
-2.10238e-05
-0.00238772
0.000512627
-0.000347859
-0.000164768
-0.0010228
0.00139065
-0.00036743
0.00166189
-0.00233837
0.000680966
0.000543866
-0.00073385
-0.000505495
0.000896151
-0.000612429
-0.00054128
-0.000540147
0.00046672
0.000942413
0.00168144
0.00074811
-0.00200493
0.00125878
0.000314629
0.000562229
-0.000314442
-0.00164286
0.00121329
0.000429715
-0.000559696
-0.000360649
0.000920454
-0.000290505
0.000947216
-0.000260246
-0.000494196
-0.000445243
0.000250414
0.000194829
-0.00067296
0.00227546
-8.42156e-05
-0.000277721
0.000812489
-0.000534723
0.000102447
0.00251436
0.000273718
0.00082906
0.00198768
-0.00153662
-0.000447984
4.89896e-05
-0.000589136
0.000301443
-0.00122255
-0.000442939
-0.000316145
0.000253693
-0.00161771
-0.00129746
0.000803339
0.000494279
0.00115612
-0.000551833
0.000391993
-0.00240019
0.00257414
-1.90404e-05
0.000335109
0.000330793
0.00207717
-0.000587087
1.93657e-05
0.000567734
0.00103217
-0.00229051
0.00127189
-0.000394813
-0.000246477
0.0006413
0.00120643
0.000347206
6.32929e-05
0.00197924
-0.00202288
0.00328489
-0.00232226
0.00204048
-0.00174058
0.000385835
-0.000714621
0.00032879
-0.000490786
0.000427049
6.37367e-05
-0.000524731
0.000292261
0.00110044
-0.00149862
0.000398534
0.00190226
-0.000581283
-0.0013186
-0.00094171
0.00091537
-0.000259096
2.61124e-05
0.000244451
0.000161725
-0.000206086
4.20178e-05
0.000306436
0.000274219
-0.000580654
0.00144673
0.00184886
0.00218612
-0.00216962
-1.46429e-05
0.00106277
-0.000328448
-0.00112673
-7.18409e-05
-0.00113597
0.000576411
0.000187866
-0.00112948
0.00221251
-2.51025e-05
-0.00253695
0.000348888
0.00162305
-0.000892695
-0.00072998
0.00104283
-0.00225126
0.000823128
0.00104425
0.000610964
-0.000651119
-0.00197864
0.000889814
0.00108974
-0.000919117
-0.000723557
0.00190658
-0.000646413
-0.0012589
-0.00123424
0.00192476
0.000511167
-1.9173e-05
-0.000491994
0.00173571
-0.00239925
0.000664555
-0.00226357
0.00040567
0.00186121
7.44377e-05
-0.000521275
0.000446839
-0.000411505
0.00047912
-6.76159e-05
-0.000626393
-0.000670912
-7.82387e-05
0.000526231
-0.000447986
0.00101366
0.000994585
-0.0021598
-0.00052152
0.000110015
-0.000118161
-0.0023959
-0.000463822
0.000258551
0.000205272
0.000183712
-0.000770781
-0.00189902
0.00215088
-0.000235964
2.76858e-05
0.000583281
0.000600571
0.00104596
-0.000596082
-0.000355424
0.000420929
6.75319e-05
-0.000446221
-0.000716728
-0.000623794
0.000432383
0.000191413
0.00203045
0.0024669
-0.000246898
-0.00220854
-0.000422767
0.0020716
0.000809436
-0.00193271
0.00199676
0.000179237
0.000322617
0.000382928
-0.000562724
0.000161725
-0.000345524
-0.00032033
-0.00156438
-0.000200544
0.00176648
-0.000357595
0.000431955
-3.12914e-05
-0.00214927
0.00218282
-0.000556915
-0.000285692
0.000842644
0.000188866
0.00244753
-0.000448558
2.18812e-05
-0.00212959
0.000474085
0.00165719
-0.000305917
0.00101783
-0.00068437
-0.00113865
0.00190321
0.000806441
-0.00160529
0.000799581
-0.00214175
0.00214054
0.00100322
-3.80346e-05
-0.000965122
-0.000569824
-0.000175984
0.00244921
-0.000120118
-0.00226225
0.000491191
8.49681e-05
-0.000576158
-0.00020551
-0.000287016
0.000492526
-0.000461151
0.00121455
-0.000753299
-0.000758823
0.000481139
-0.000297457
0.000497741
0.00155873
-0.000919785
-0.00105771
-0.00124877
0.00173744
-0.000487607
-0.000346631
0.000180772
0.00035662
-0.0019193
-0.00141085
0.000938194
0.000472895
0.000292334
-0.00229741
0.00201111
0.000334201
-0.000622198
0.000287998
-0.00160182
0.000403113
0.00119904
2.67529e-05
-0.000587397
-0.000658046
0.000980294
-0.000322201
-0.000324586
0.000407708
-0.00177127
0.00237576
-8.28242e-05
-0.00228617
0.00100352
-0.00133684
0.000333529
0.000583707
0.000150868
-0.000734566
0.00202357
-0.00043573
-0.000269385
-0.000951238
0.00241284
-0.00145922
0.000324305
0.00026652
-0.00116582
0.00198282
-0.000814228
-0.00281085
0.00287886
-5.14918e-05
0.00192732
0.000173701
-0.000889319
0.00104313
-8.26783e-05
-0.000212417
-0.000282986
0.000495403
-0.000234459
0.000558767
0.00192192
0.000477219
-0.000705043
-2.36894e-06
0.000707433
-0.000516626
-0.000807319
0.00132428
0.000407982
0.00031101
-3.75268e-05
-0.000453259
-0.000748131
0.000317876
0.00050765
-0.000646765
0.000139122
-0.00305153
0.00151911
0.00154186
-0.000357962
-0.000260832
0.000344493
-0.0011911
0.00265634
-0.000534836
-0.00211443
0.000332551
0.00108886
0.000467561
0.000285627
0.000227
0.00200329
-0.00207097
0.00176863
-0.00213515
0.000366712
0.000176129
-0.00215415
0.00198344
0.000545304
-0.000821484
0.000404814
0.000431304
8.82492e-05
-0.000519553
0.000938185
8.70344e-05
-0.00102515
0.000486497
0.000269551
0.000319438
-0.00204774
-9.27761e-06
0.00205929
-0.000769589
0.000986275
-0.001171
0.000886397
0.000284793
0.000284452
-5.47472e-05
-0.000396558
-0.00228702
0.00178135
-0.000973951
0.00183096
0.000206247
-0.00203312
0.000848872
-0.000330281
-0.00127111
0.000740086
-0.000186198
-0.00055386
0.000399508
0.000152233
-0.000551741
0.000821764
-0.00118228
-0.00115596
0.0022026
-0.00175275
0.000730444
0.000923548
-0.000396491
-0.000526999
0.00040407
0.000141605
-0.000545674
-0.000597825
-0.000812622
-0.000583761
4.18184e-05
0.000541947
0.00138347
-0.000482146
-0.000901032
0.00240803
-0.000482177
0.000172804
-0.000877821
-0.000521137
-1.62022e-05
0.000537343
0.00214847
-0.00131097
-0.0034521
0.00136989
0.00210524
-0.00032481
0.000745351
-0.000420534
-0.000326986
0.000402042
3.96186e-05
-0.000872959
-0.000267896
0.00044088
-0.000224412
-0.000214226
-5.5392e-05
0.000639108
0.00228309
-0.00236034
-0.000292959
-0.000131209
0.000424168
0.000109937
0.000414107
-0.000524044
-0.000265562
0.000728233
-0.00193945
8.61391e-05
-0.00126216
0.00019526
0.000431117
-0.000626373
-0.000147792
0.000147792
-0.000300048
-0.000442338
0.000742417
-0.000226586
-0.000237237
0.000698203
-0.000917103
0.000218926
-0.000541044
0.000216457
0.000987722
-0.000725835
-0.000261794
-0.000202167
-0.000240675
0.000442842
-0.000354414
0.00102279
-0.000755506
-0.00141813
0.00217718
0.00201738
-0.000248522
-0.00021686
-0.00023924
0.0004561
-0.000178362
0.000709446
-0.000531076
0.000476936
0.000291911
-0.000665472
0.00225694
-0.000719186
0.000419167
-0.000275525
1.93146e-05
0.000282505
0.000988027
-0.000993185
0.000367861
0.000625424
0.000449197
-0.00108212
-0.00219039
0.000308326
0.00163962
0.000145283
-0.00178404
-0.000691942
-0.000175047
0.000511003
-1.98108e-05
0.000269289
-0.000486149
-0.000471255
3.28783e-05
0.000438377
0.00108945
0.000422217
-0.00125076
0.000601591
-0.0004323
0.000723093
0.00187834
-0.00188641
0.00247526
-0.00240553
-5.19869e-05
0.00210282
-0.00245584
0.000363267
-0.00219714
0.000976015
0.001223
0.000635601
0.000986112
-0.00192206
0.000938767
-0.000359432
-0.000633651
-0.00289265
0.00243373
0.000485915
-7.00424e-05
0.000191755
0.00266178
-0.000476049
-0.0021418
0.000266914
0.000281759
-0.000548673
-0.0021816
0.000109186
-0.000182405
0.000214199
-1.76442e-05
-0.00083335
-0.00033743
0.00139602
-0.000947938
-0.000447783
0.000773657
0.00172607
4.00124e-06
0.000386017
-0.000923965
0.00200462
-0.00234084
0.00222621
0.000126558
0.00114751
-0.000461513
-0.000685827
0.00144912
-0.000631119
-0.000817845
0.000521878
-2.58304e-05
-0.00177822
0.00180669
-0.000604214
2.04582e-05
0.000752243
-0.000376607
-0.000737159
0.0011142
0.00016184
-0.000682973
0.000774029
-0.00115018
-0.000657322
-0.000182281
-0.00175239
0.000900208
0.000574172
-0.000317892
-0.000256278
2.7018e-05
0.000404286
-0.00206122
-0.00056767
0.000273429
-0.00030133
0.000702798
-0.000401457
-0.00194556
0.00198599
3.48458e-05
-0.000515991
0.000315442
0.000200549
0.00246809
-0.00237619
-8.2337e-05
0.00248398
-0.000461003
-0.00198072
0.00090917
-0.00144712
0.000538444
0.000417607
-0.00242047
-0.000556346
-0.000295299
0.000851695
-0.000113244
0.000517315
-0.00248175
0.000314782
0.000259391
-0.00136705
-0.00167349
-0.00147623
0.000267762
-0.000715138
0.000536784
0.00232972
-0.000255098
-0.00200576
-0.000533725
0.000333397
0.000200328
0.00156233
0.000467025
-0.00202751
-0.002339
0.000355868
0.00199304
-0.000235282
0.00255912
-0.00231482
0.00260967
-0.000500065
-3.20338e-05
0.000825859
-0.000793802
0.00069409
0.000264126
-0.00046944
3.96652e-05
0.000429775
-0.000136197
0.000958056
0.000211717
0.000400402
0.000250616
0.000986626
-0.00123704
0.00243375
0.000763128
7.94747e-05
-0.000842578
-4.74661e-06
-0.000466509
0.000643705
-0.000136048
-0.000965032
0.000542815
-0.000861707
0.000539809
0.000775326
0.000352385
-0.00112751
0.00156919
0.000132947
-0.00170105
-0.00075909
0.000727077
-0.00237845
0.00134511
0.00103596
-0.000330455
0.000600789
-0.000598507
0.000638382
2.77694e-05
0.000216194
-0.000509153
0.00197502
-1.02085e-05
-0.000313277
-0.000651724
0.000707042
0.000916419
-0.00219652
0.000514078
0.00168699
-0.000242883
-0.000435838
0.00266622
-0.00243542
-0.000204104
-0.00072985
0.00028692
-0.000251657
0.00181568
0.00194433
0.000489877
0.000873604
0.000700385
0.000402357
-0.00110265
0.000644324
0.000181553
0.000614618
-0.000534019
-3.77826e-05
0.000571806
0.000478677
-0.000191488
-0.000287188
-0.00104306
-0.000845709
0.000188314
-0.00045621
0.00290462
-0.00171182
-0.00118949
-0.000548793
-1.49483e-05
0.00056375
0.000701334
0.00028647
0.00181992
-0.000666396
0.00204186
0.00017149
-0.00098773
0.000905769
-0.00193892
-0.00118609
-0.000343434
-0.00198624
0.00067723
-0.00165381
0.000977597
0.000165311
-0.000714094
-0.000652297
0.000466121
-0.000700392
0.000375588
0.00104988
-0.000684516
-0.000365246
-4.728e-05
0.0013758
-0.00130441
0.00051849
-0.00104769
0.000529373
-0.000628574
0.000390804
0.000610897
-0.00264
0.0020534
-0.000622401
0.000990362
-0.00227377
0.00171509
0.000561053
-0.000424491
3.60842e-05
0.000388407
0.00192017
-0.000296142
-0.00162324
0.000452712
-9.79885e-05
-0.000354723
-0.000505852
-1.74088e-05
0.000166795
0.000535438
-0.00018176
4.70798e-06
-0.00122152
0.000980334
0.000241317
0.00117458
0.00148737
-0.000938803
-0.00125621
0.00186858
-0.000900283
-0.0009672
0.0022742
-0.00022395
-0.00210528
0.000842166
0.00173482
-0.00250991
0.000605716
-0.000219879
-0.000303901
-0.000134737
0.000710573
0.000875318
-0.0015852
-0.000201544
-0.000332181
0.00206129
0.000349548
-0.00140157
0.000569736
0.000450658
-0.00169485
0.000259455
-0.000730852
0.000471413
0.000304408
-0.000458664
-0.000656071
0.00136727
-0.00210036
0.00231308
-0.000168455
-0.000515958
0.000542727
-0.00225584
0.00222773
-0.000163199
-0.00174935
0.00129983
0.000450609
0.000366523
0.000172965
0.00040414
-0.000628612
0.000224474
0.000477229
0.000248002
-0.000725222
0.000485071
-0.000623629
0.000639662
5.44411e-05
8.55339e-05
-0.00197593
0.00153363
0.00113517
-0.00265999
0.000293595
-0.000624046
0.00204884
-0.000706477
0.000518809
0.000187677
0.00176076
-0.00118337
-0.000576224
3.05003e-05
-0.00139691
0.00136596
0.000610593
-0.000333901
-0.000276691
0.000308214
0.000277032
-0.000585244
-0.0019679
-7.47549e-06
-0.000461965
0.00096756
0.000939983
-0.00070689
-0.000172868
0.000879864
0.000884553
-0.000454333
0.000406838
-0.000286892
0.000414582
-0.000675777
0.000261203
1.35772e-06
-0.000379358
0.000478359
-0.00037828
0.000960788
-0.000426417
0.000357771
-0.000585083
0.000227313
0.00206601
0.00049847
-0.00250084
0.00216017
0.000513129
0.000472037
-0.00240376
0.00193719
-0.000388255
-0.000189993
0.000578252
0.000803992
-0.000594446
-0.000209519
0.0011372
0.000213497
0.000323168
-0.000536664
0.00139859
-0.000385231
-0.000184658
-0.000806006
-0.000419069
-0.0018524
-0.000579729
0.00204685
-0.00141984
0.00192975
-0.00155262
-0.000264332
-0.00215085
0.00255661
-0.000348094
-0.000237838
-0.000207405
0.000433844
0.000391035
0.000460226
-0.000851235
-7.74431e-05
0.00212008
0.000209162
-0.00226359
0.000949801
0.00243475
-0.00210615
-0.000317513
0.0013785
-0.000468892
0.00148081
-0.00172103
0.00055238
0.000603995
-0.000272434
-0.00033156
-0.00104138
0.000682059
-0.000873941
0.000200679
0.000673281
-0.000321024
0.00071208
0.00223315
0.000245426
3.18568e-05
-0.000790922
-0.000933582
0.00247531
0.000171431
-0.000807859
0.00050654
-0.000239202
0.000532482
-0.000293279
0.000660835
-0.000225075
-0.000435756
0.00187463
-4.06662e-05
-0.000877858
0.00155603
0.000393408
-0.000564049
0.000170643
0.000257313
0.00025928
-0.000516592
0.000323028
0.000505611
0.0005783
-0.00108387
0.000423274
0.000500321
-0.000307325
-0.000214195
-0.00110727
4.21795e-05
0.000245611
-0.000677892
0.00020254
0.000369344
-0.000597379
0.000871168
3.06453e-06
-0.000245054
0.00102394
-0.00135382
0.000275596
0.000212068
-0.000487664
0.000381747
0.00012942
-0.000572688
-0.0002629
0.000835637
2.77591e-05
-0.00225498
0.0022294
0.0019754
-0.00116029
-0.000813127
0.00043025
0.000953171
-0.00138328
0.000203098
-0.000412722
-0.00177746
-0.000414695
-0.000481819
0.000721544
-0.000239713
0.00256349
-0.000120869
-0.00242609
0.00179275
0.000699224
0.000122512
-0.000821708
-0.00233552
-0.000280056
0.00016115
0.00221562
-0.00236349
0.0018872
0.000102444
-0.000616917
0.0015547
0.0020388
-0.000479893
-0.00150955
-0.00133554
-0.00103986
0.0022634
9.03353e-05
-0.000624349
-0.000527749
-0.000204051
0.000731829
-0.000231788
-0.000349534
-0.000158668
0.00117556
-0.00065094
-0.000524534
-0.000210154
0.00223067
-0.00201955
0.000707704
-0.000823715
0.000309161
0.00111226
-0.00134191
0.000229945
0.000304343
0.00227422
0.00120516
-0.00194347
0.000660852
-0.000273641
-0.000112089
0.000684999
-0.000572871
0.00118345
0.000554831
0.000314148
-0.000510412
0.000196265
0.000500798
-0.00109809
0.0010301
-0.00212481
7.92712e-05
5.21325e-05
-0.000409575
0.000238746
0.000879185
-0.00114956
0.000270495
9.75844e-05
-0.00197098
0.00192457
-0.000200228
0.000584995
-0.000384756
-0.00128852
0.0012126
9.99655e-05
-0.00109026
-0.000385428
-0.00123652
-0.000879493
0.00213868
0.000669254
7.80708e-05
-0.000747314
0.000271459
-0.00217408
0.000188378
0.00202514
0.00197854
-0.00193853
0.000559494
0.000128423
-0.000687909
-0.000108732
0.00249039
-0.000625697
0.000377408
0.000248292
0.000307819
-0.000493621
0.000185802
0.00043121
0.000803474
-0.00123447
0.00197797
0.00117754
-0.00172035
0.000544829
-0.00243378
0.00122259
-0.00041728
-2.51812e-05
0.000219319
0.000323571
-0.000674204
0.000542423
0.000687808
0.00144046
-0.00212499
-0.000240437
-0.000275554
-1.89108e-05
-0.000208442
-0.00196753
0.00219507
0.000459171
0.000175995
0.00260796
-0.00249687
-9.38396e-05
-0.000296805
-0.000330643
0.00209731
-4.90879e-05
-0.00197798
-0.00154171
0.000911515
0.00063051
0.000315638
0.00270893
-0.000468919
-0.00223333
-0.00109258
-0.00111485
0.002218
-0.00125388
-6.19631e-06
0.000514382
-0.000215722
-0.000653023
0.00231959
-0.00133386
0.00136385
0.00092996
-0.00057647
-0.000353479
-0.000262039
0.00128634
0.000251214
0.00188459
-0.00210146
0.000479969
0.000667692
-0.00135348
0.000407881
0.00098888
5.30721e-05
0.000367409
0.00150493
3.68211e-05
0.00107568
-0.000418022
0.000320034
0.000887533
-0.00103146
0.000144035
0.0024398
-0.00215017
-0.000283653
0.000827277
-0.000829621
0.001072
-0.000821704
-0.000250177
0.000535305
-0.00108985
0.000554645
0.00104685
-0.00166285
-0.00111431
0.000476924
0.000637537
0.000471369
-0.000251617
-0.00143419
0.00168776
-0.00014687
0.00113368
-0.00238083
-6.52716e-05
0.0028534
-0.0025788
-0.000243118
0.00268226
-0.000180515
-0.00248296
-0.001592
0.000896499
0.000695922
-0.00111535
0.000727751
-8.04382e-05
0.00101881
0.00250812
-0.00231052
-0.000185369
-0.00121024
-0.000537895
0.00112002
0.000601884
-0.000354096
-0.000247788
-0.000628311
-0.00240112
1.14551e-05
0.00149886
-0.00257586
0.00110084
0.00132125
-0.000209144
0.000748474
-0.000539276
0.0022942
0.000274154
-0.000478876
0.000204722
-1.2013e-05
-0.00230003
0.00232148
-0.00173201
-0.00108671