/*--------------------------------*- C++ -*----------------------------------*\
| =========                 |                                                 |
| \\      /  F ield         | OpenFOAM: The Open Source CFD Toolbox           |
|  \\    /   O peration     | Version:  v2012                                 |
|   \\  /    A nd           | Website:  www.openfoam.com                      |
|    \\/     M anipulation  |                                                 |
\*---------------------------------------------------------------------------*/
FoamFile
{
    version     2.0;
    format      ascii;
    class       volScalarField;
    location    "100";
    object      omega_0;
}
// * * * * * * * * * * * * * * * * * * * * * * * * * * * * * * * * * * * * * //

dimensions      [0 0 -1 0 0 0 0];


internalField   nonuniform List<scalar> 
18758
(
0.124854
5.53498
0.0214778
3.6675
5.52924
7.55197
7.93281
0.0217152
0.274777
0.0280082
0.0237402
8.69461
0.0220472
0.171948
0.0232291
0.635934
0.0398284
0.021943
0.0219662
0.0313141
7.21868
0.022271
5.27705
0.821078
2.78324
0.0217194
1.75232
5.79479
9.08986
4.45071
0.0623215
5.43502
0.0221819
0.0227531
0.123949
0.0221723
0.0222265
0.0220328
0.0223059
0.0425866
0.0220305
0.0267724
0.0216548
0.0263181
2.64954
0.0216195
5.11827
0.0240511
0.0275656
0.0216229
0.151009
4.66112
0.0215474
0.023513
5.53042
12.2641
0.0222172
0.361398
0.0219501
0.194513
0.101763
6.82483
0.118904
0.0228916
0.0215566
0.0220126
0.0433926
0.0221776
0.0219491
4.53074
4.37358
0.0223489
0.0216293
14.1777
0.0216897
0.0219441
0.249124
5.23713
0.0916511
4.98935
6.11107
5.19396
0.194808
7.08391
0.25712
0.0300812
21.9235
0.117974
6.33491
0.021944
6.69885
0.0219512
12.2844
0.0272169
6.17728
11.0119
0.24743
0.0216889
0.0218965
6.00717
0.0328479
6.0587
0.0811509
0.0477428
7.16966
3.28825
5.48281
5.41218
0.0226837
0.0223326
14.2517
10.5978
0.0217596
0.022058
7.66279
10.5025
7.65708
0.0232278
6.53452
5.89523
0.0379535
0.0219662
10.4718
1.37388
0.599739
1.80209
4.03301
0.627464
9.62101
0.0220533
0.041009
1.61092
15.2642
0.0501387
4.79776
0.0239249
0.243579
0.0443213
0.0218943
0.0795654
0.0920415
0.252715
0.0219742
14.5016
0.022036
0.0220631
8.55564
6.57363
0.0612037
7.09478
4.0232
2.12753
0.0300597
0.0222707
5.22948
0.0280893
5.91355
0.0240572
0.0221915
0.0222888
0.0218083
0.189368
16.8694
0.0221843
0.101443
8.99053
0.022011
10.6749
0.244402
7.61695
5.13941
0.0219381
16.4721
5.71974
0.187098
0.781789
8.45225
0.0229915
0.0778307
0.0221429
0.0217976
33.8104
1.1619
0.0216633
0.0253162
0.658635
0.0219201
8.65594
0.0216388
0.0219316
0.0504366
0.559157
0.0224342
0.0585097
0.0343569
0.121235
0.0319744
0.276516
0.0221488
0.021648
0.0742272
0.0239908
0.0372434
0.0846727
0.0220357
0.0338872
0.0853165
0.0222787
7.78275
0.0275848
0.0219304
0.0504332
0.0222271
0.0369286
0.0788227
6.1573
0.0848332
0.568741
0.0216357
7.67925
0.0219302
0.022703
0.216409
6.87444
0.315801
0.0831916
0.0596528
0.0475438
0.0216217
0.0866846
0.0220064
0.120693
5.09474
0.259299
0.0220637
0.0219212
0.0216229
0.0216439
10.9038
0.0371092
0.021836
1.01985
5.5375
0.023072
6.99709
34.9095
0.25414
0.0221788
6.13325
0.0299619
0.0221533
10.0454
0.0301308
0.0304498
0.0226221
0.0413173
0.49299
0.708236
0.0360263
0.0880593
0.021693
0.0678407
0.0220313
0.0837166
0.0271246
0.214546
10.8278
0.0216402
0.0225666
0.470616
0.0224952
0.0250766
0.0847985
9.25985
9.56862
0.0219679
0.132436
19.7477
3.1233
0.0226313
0.0217584
0.0293843
0.0372942
0.0219672
13.1619
0.854578
4.48531
29.4098
5.28397
0.0216402
0.0214707
0.0525034
6.82372
0.0256929
0.0884103
0.119299
0.0293969
5.83773
0.0219286
4.57728
7.28596
0.0216316
3.97793
0.0381538
0.0219778
0.0335034
0.0913443
0.0229286
0.0221574
7.22447
4.54243
0.0219278
8.9689
5.87709
0.283646
0.0220169
0.0221424
4.53565
0.0230395
0.0216572
0.02179
0.023066
0.260864
0.0930774
0.0293635
0.0360957
0.0314614
0.0503394
0.0216762
0.0222785
0.608535
0.0570815
0.142396
3.5917
0.0260799
0.0223808
0.0221292
4.5733
4.11176
0.0216344
0.0219181
0.0216357
0.0238096
0.0448149
1.7768
0.0219656
0.0222248
0.0216142
0.830099
0.227667
0.193095
0.166802
0.0229417
0.532112
0.117326
0.0376371
0.0316906
8.00631
6.1069
0.779926
0.0220477
0.0335834
8.55632
9.13361
0.0250675
0.0216442
0.0590875
0.0219937
0.0300052
8.12561
2.69629
0.106634
0.0307145
8.93154
0.0219997
0.0239751
0.021902
0.0223116
0.102535
0.0241279
8.10928
0.287263
0.0225391
0.0219319
6.62449
0.104147
0.268692
0.0219984
0.0502447
0.0217472
0.0261629
0.0219665
0.0216493
7.75169
7.06306
4.17544
19.3902
0.0219172
0.229963
4.17838
0.0421998
0.021754
3.60228
0.0217854
0.0221171
0.0217932
0.106032
0.0219568
0.0262017
0.154398
10.0713
0.0217754
5.32271
0.0462934
0.0220231
0.0257899
0.0219702
0.0219198
0.0286847
0.0637693
0.0497011
24.1202
0.0393679
0.0220444
0.4212
5.85484
3.92757
5.20651
0.098359
0.0225589
0.0216499
0.021839
0.0222466
0.106607
0.0409863
0.0319371
0.0366649
0.0300738
1.16747
0.0832897
0.0219641
0.0350284
5.89776
0.0228669
2.70221
0.0222349
0.0220829
4.91731
0.0282621
0.0224968
0.492454
0.12744
0.0517722
8.83258
0.0219491
0.0226778
0.770934
7.67822
0.0364197
0.0749869
0.179024
0.788037
25.1466
0.176101
0.0223209
0.151907
0.0220564
0.108707
0.0231891
10.8202
0.0494613
6.00646
0.03178
0.0690392
0.0216325
0.854728
0.0216353
7.89707
0.0219065
0.389282
0.0220581
4.80426
0.0308536
0.0220895
0.0219015
0.0217851
5.6937
9.72667
7.68291
0.0429414
0.0247418
0.0916396
0.0222702
0.0222873
4.74781
0.0219023
0.0220627
0.122457
0.0220419
0.0729775
0.0909056
0.0220582
0.0219552
0.028102
0.0227723
0.028658
6.89445
0.031929
0.0361036
0.0268693
0.0220486
3.65127
0.0223668
0.0226864
3.64935
9.85967
0.0662618
4.94983
0.025294
0.0226569
6.88207
0.0219904
8.44003
0.354928
0.0220832
6.91488
0.604639
0.05967
0.0218727
0.0543731
4.45911
0.0220362
0.0218822
0.0232885
0.0229122
0.0220802
0.0217034
0.0222939
10.5495
0.0252371
8.90123
0.0219695
0.171711
7.78831
0.0220372
0.0216457
0.0251914
0.0221297
0.0227027
0.02337
0.0221288
0.114322
0.837465
0.0215472
4.51757
5.02121
0.035861
0.149474
4.55218
0.0265399
0.0311245
0.0282581
4.47349
0.0251395
0.0436245
0.0220131
3.02315
0.0412433
0.229463
0.138852
7.69385
0.025085
0.0219405
0.059561
2.13362
0.022637
0.497195
0.0222575
5.80513
0.0227992
0.0218068
0.0217815
0.0220479
4.95453
5.83908
0.0220126
0.343893
0.0309102
3.84334
7.01437
4.45116
2.21529
0.0219452
6.18455
0.0575123
0.021993
0.0444356
4.56654
6.1141
0.0227305
0.0226005
0.0220209
0.0215139
6.68482
0.111908
5.54425
4.47028
0.0220493
0.0221407
0.0567982
0.022281
0.0218105
0.0233453
0.0230732
0.117489
0.0404158
0.243627
5.36298
0.0752893
0.0220649
0.0276359
0.12932
5.00108
0.0420589
10.2095
0.0527907
0.0220176
0.296752
4.99129
0.0224955
0.0216535
0.152711
6.44668
0.272435
0.0220425
7.49841
27.6752
3.04635
0.0216167
7.01432
7.31979
22.0298
0.024119
0.0221964
7.97803
0.0222945
0.191186
6.38054
0.240324
6.74482
0.0799353
4.70569
0.0652555
0.0221152
0.0225803
6.23046
3.77907
8.70832
3.01206
0.0219897
0.191571
0.0222771
0.060554
0.0801324
0.142605
0.022088
0.0253033
0.218641
4.41163
5.79822
10.3256
0.038896
0.0328903
0.261637
0.0222617
0.0217222
0.0219551
0.0257908
0.0647895
0.0220347
0.0754031
0.0218558
0.0220845
0.0219059
5.60342
0.0223535
0.0222696
0.0534146
0.0518631
0.0215519
10.1445
0.0219959
0.0217309
0.0560875
0.0371761
0.0249455
0.0229183
8.41827
0.0362387
0.035004
5.08077
0.0350129
3.67699
0.0261497
0.114025
27.1524
8.64561
0.0216456
4.43473
0.682458
0.021688
5.01
0.0220647
0.0218933
0.038941
0.021951
0.116116
4.83014
0.0216329
22.9999
0.0219164
0.0376935
3.78851
0.021532
6.11165
0.023578
0.0220147
0.0219226
0.0219521
0.257796
0.0736432
11.2358
0.0774368
7.21053
0.0571486
0.0220367
0.235502
9.12897
3.09043
0.0768018
0.187127
0.0569359
0.0267534
0.256992
0.0227398
8.59957
0.0220352
6.02729
0.0228232
0.0769491
0.0281388
0.0223816
9.0405
0.0226005
0.0218178
4.50827
0.0236237
0.0219086
0.0426385
0.0912967
0.266777
3.54884
5.22725
5.23615
0.0221332
0.0222049
6.27359
0.0219921
1.07261
0.0851445
0.0238241
0.0220616
0.033115
0.0219902
0.0219758
0.0287449
0.927554
0.243683
0.159895
0.0647579
0.0221335
0.0552494
8.36731
0.0218644
0.0808463
0.0239633
4.70698
0.0232937
5.67172
0.0220298
0.767786
0.0222766
0.0777784
0.0219972
0.0254369
0.0302144
0.0215369
0.0217124
0.0215864
5.7579
30.9252
0.0321809
6.49509
0.0220237
0.0403934
0.0281061
0.283908
5.10663
0.0322783
0.0215472
0.235403
0.0218577
0.022023
0.028103
8.77736
9.82336
1.26348
4.45023
0.0745789
0.0229935
0.0219021
6.51658
0.0218965
3.10082
0.027571
0.0221855
6.16886
8.06142
0.0220907
9.39752
0.027224
0.0975149
0.100517
4.98646
7.96297
1.60859
0.0219991
0.0215093
5.29405
0.0219766
0.0219473
0.0281687
0.0219944
5.4926
0.26359
0.0572882
6.25518
0.0470785
0.119433
0.0238799
0.0219911
0.0215394
0.0217839
9.53451
7.85539
0.437784
0.0220575
0.0215404
0.0307241
0.0218438
0.0395144
0.0257821
4.16593
5.08682
0.0747958
0.276339
0.538377
0.0219068
0.2487
0.0219052
5.17664
0.678656
5.75554
8.05586
0.0231208
0.0288263
5.97008
6.21292
6.28415
0.0454503
0.138255
5.72553
0.0220483
0.261823
1.58542
0.111977
0.0220425
0.0219952
0.0403817
4.55873
3.09479
0.100617
0.0219712
0.0250523
0.0290584
53.8514
0.0223175
0.749499
0.0218923
0.0227605
0.221107
0.0218662
0.022022
0.0233018
0.0271689
0.0219775
0.0227198
0.02162
5.10445
2.95085
5.14663
0.0216456
0.050359
0.0220136
0.244627
0.261041
0.0374459
0.0218958
0.0229299
0.675448
0.122995
0.0288891
7.50624
0.108179
0.021959
0.022049
3.73731
6.39982
0.0641255
0.0216201
4.40524
0.0221265
0.036005
0.0216719
1.66946
5.30626
0.0218623
0.0220628
3.72945
0.0219487
6.63826
8.53398
0.0547296
0.0222821
0.0221664
0.0216679
0.0220362
26.1335
12.3456
0.149816
0.022896
4.57687
0.0219522
0.0219327
8.46748
0.0217621
5.91897
0.021518
0.02901
0.0233536
0.0219356
0.0218451
0.0221213
5.22755
0.0225231
0.0221942
0.159426
0.0406222
0.0219732
0.0593656
0.037266
0.0221265
0.296951
0.0219784
0.0374418
5.72525
0.086099
0.0219574
0.347154
0.0826812
0.0912582
0.0267182
0.0593576
8.87421
0.0245122
0.0577767
0.0219518
0.0216059
0.0220079
0.042341
0.0370012
0.0440109
0.0218935
0.0274744
0.0580697
6.74975
0.2635
0.0219292
0.0217848
0.0228614
0.108561
0.0218162
8.66126
0.0219583
0.021968
0.0217837
0.447047
6.14393
0.0221553
0.0236587
0.0218853
0.0875155
0.0218107
0.0219653
0.895975
0.0222704
0.0216114
0.0221323
0.154406
0.0217972
0.021891
3.80666
12.8669
0.6282
0.0437414
6.07385
0.0507758
0.0219535
0.0219075
20.3401
0.0219666
0.0636717
0.0779628
0.041167
0.0268207
0.0224052
0.0308441
0.0228828
0.0216268
0.229127
5.07193
0.0441162
0.0217892
6.4351
0.0435395
7.27853
4.30208
0.0950033
0.0221415
0.0219462
0.021859
0.0553084
0.022128
0.021843
7.05683
0.163786
0.041299
0.0219085
0.0690595
0.377813
0.0220977
0.0265247
0.0365861
0.14271
0.0679819
0.0220316
0.0234401
0.037354
0.0218229
0.0501601
0.0223259
11.3525
0.0598491
0.129404
0.021796
0.0372493
6.30979
3.72276
1.36495
0.0647706
9.7741
0.0221311
0.0219548
0.0227232
0.0932862
0.0221699
0.0234851
0.0309982
0.0549143
0.0220035
0.0219557
0.0220551
0.022277
2.37514
2.92281
1.35726
0.0219965
9.13495
0.0298135
0.0221555
0.0318349
0.0218902
0.0896771
0.0230281
0.0219711
5.20274
35.2777
5.86376
0.0224203
25.0119
0.0219696
4.59432
5.32927
0.0215519
0.0566884
0.291344
0.0216265
0.0219642
4.34319
0.0223359
0.0220204
0.205438
2.25285
0.0220304
0.030979
0.0221512
0.0252184
0.122232
0.0221672
5.56915
0.0420397
0.0219612
1.94946
0.0614522
0.0749579
0.0222881
0.373836
0.0220645
5.18986
0.0219712
0.021775
14.7713
0.0217042
6.06785
0.0219665
0.0551399
8.17351
4.68791
0.022002
0.0223621
0.0220292
0.0232885
0.0269449
0.0267904
0.0214927
9.87365
0.0218855
0.0220026
0.153762
0.215926
0.0442208
0.0220299
4.33283
0.0861939
0.0224201
0.0354933
0.0219208
0.0217734
8.66141
0.0216352
0.0217789
0.0218265
6.44511
0.0218401
0.0218438
5.36094
0.0252592
5.24729
0.0321677
0.0215191
0.0218818
5.13583
0.0261582
0.0220091
8.0698
5.08441
0.021795
4.32696
0.125521
0.0219664
0.0220318
0.339028
0.0222211
4.722
0.0336901
0.0220347
2.53618
9.70972
0.24202
0.0218964
6.881
0.0301567
0.384219
1.19851
0.021914
8.95875
0.0220121
0.0320364
0.0262557
4.37616
0.021692
0.0224481
4.77003
0.0222732
0.0358566
0.0216987
0.0221126
5.71903
0.0923465
0.0253149
0.0359186
1.68855
0.0223309
0.0233927
0.0549695
0.1193
0.0254496
0.0219579
0.0219245
0.0221476
0.0226316
0.0218503
0.034148
0.027678
1.77658
0.0220102
9.67146
0.0219929
0.0283665
0.0219856
0.0365296
0.0221068
0.021938
4.86028
5.42073
0.0241274
0.0220984
15.5636
0.0277246
14.6896
0.0369424
0.0720208
4.71331
10.3055
3.71208
0.0231176
0.0220376
0.0218061
3.72292
0.0218328
0.0220238
0.157826
0.0218509
0.0221866
0.0220667
11.8591
1.67606
0.0221819
5.37475
4.83915
0.0240378
0.0219429
0.0222044
3.79836
0.0217104
0.0877014
0.0222883
0.021986
0.0221184
0.0217629
0.0714578
0.0220029
0.0219282
0.0217956
0.0216272
0.443797
0.0216143
0.0218247
0.0221544
0.0219583
0.279571
4.38203
0.0603606
0.0226318
0.0220159
0.0221939
0.0222249
4.07877
0.0219451
0.0317956
0.0687939
4.4089
0.0219586
0.0219203
5.40732
0.0221264
0.108718
0.0828478
0.0224723
5.46234
3.7777
0.0312
8.47914
0.028141
0.110549
0.0214976
5.44987
0.0220516
7.66081
0.0220525
0.0218491
1.04879
2.17048
0.466128
0.150058
0.0219106
7.23556
0.0221776
6.37322
0.0528491
0.0219357
0.0215005
0.0219471
0.0519926
0.0627013
5.48476
0.038927
0.0219
0.0219433
0.0219599
10.7778
0.197461
0.0336302
0.0221465
0.0219112
0.0300811
1.08385
0.021975
0.0329547
0.0694187
0.0219441
0.0239192
0.0231873
0.0576453
0.160326
0.0244787
0.0792365
0.0216044
0.0220185
7.85831
0.0407286
0.0872611
1.05708
0.021619
9.39042
16.073
0.0515683
5.85019
0.0219412
5.17135
5.90668
0.0954107
0.0218015
9.63784
0.128043
0.0219982
0.0376184
5.79112
0.0226931
0.0219788
0.0399497
0.0222713
8.85062
0.0308759
0.0221025
0.0222821
0.0218835
0.06881
0.0324213
8.81889
0.0861289
4.97781
0.0786377
0.022261
0.0219437
0.737927
14.3568
0.0219778
0.0219047
0.160866
0.0221472
0.293976
4.73861
9.22496
0.0219607
0.0219905
6.74541
0.0217672
4.89952
0.571597
0.0217331
5.81344
0.0593718
0.0832592
0.0219762
16.4328
0.0220366
3.72364
0.0215113
0.0464453
0.0229313
0.0216953
8.78241
0.0227812
0.0219836
0.0234631
4.8424
0.0220843
0.0216077
5.25267
0.021912
0.0216804
0.0221241
0.0252771
0.0220619
0.0221862
0.0280763
0.0221805
0.0265324
0.0215775
0.284564
6.9647
0.136524
4.88617
0.0279698
0.0265066
0.0218881
0.021835
0.0221664
7.34341
4.37498
0.0219189
0.0222777
0.0219211
23.6212
0.021601
0.29115
0.649654
3.758
6.01346
7.02928
4.50598
0.0216602
3.97429
5.34784
5.51365
0.0263203
0.0221672
0.0402434
0.0216499
4.32067
0.111594
0.0587793
0.0269819
7.90981
0.0219977
0.0214888
4.68607
0.125291
0.021998
0.0215296
0.0415585
0.0221231
17.0458
3.04454
6.3206
3.78493
0.0722571
1.94312
0.0218568
0.267583
0.0221141
0.0219633
0.0216697
5.39966
0.0221737
0.0218343
2.54832
5.0509
0.272184
0.134045
0.0229798
0.0393924
9.60357
11.2644
5.25255
5.23359
0.122846
6.05795
0.229701
0.568722
0.0514121
0.0389108
0.0218902
0.0366102
0.0318541
0.0220547
5.44652
0.02182
0.0219937
0.0220033
6.14204
0.0257318
0.0218171
0.0218443
0.0219719
0.136716
0.0909324
1.43343
0.0227815
5.8021
0.021523
0.0219257
0.080785
0.0709471
0.0215069
3.75259
0.0392012
5.17258
0.0219911
8.7642
0.0634198
0.0219309
0.0220624
0.0219615
5.78808
5.60952
9.97239
0.0219867
0.0222679
0.0215822
5.12807
0.0284252
0.0220688
0.689179
0.0219429
0.0226461
4.42973
0.0216202
0.0219568
0.0220743
0.0221434
0.0214894
0.0225207
0.0215211
0.0222667
0.0717481
0.0398396
0.0218396
9.05508
0.0238655
5.1555
10.8747
0.0517119
5.81355
5.16741
0.0218201
0.0394447
0.022031
0.0218495
4.72841
0.0263461
6.76081
0.0274965
0.113062
0.0220982
0.0233236
0.0219157
3.7745
0.0438699
5.18743
0.0221016
0.119475
0.0288144
0.0218053
0.0362262
0.0388094
0.0215558
8.63526
0.0221024
0.0386239
0.0220111
0.0307632
0.0501932
0.203277
0.0267518
0.0704567
8.59101
0.0300771
0.0379173
0.0216158
6.26114
0.0597635
0.0222715
0.0753724
5.94409
16.7778
0.0219761
0.0229468
0.0221731
0.0215984
0.021943
4.3206
0.0282277
0.0220859
9.38863
0.0221175
0.021595
0.0259094
4.88764
0.0222025
9.27394
3.83633
0.105101
7.28929
0.0226898
5.09153
0.542378
0.0216197
0.028723
0.0220358
0.0224063
0.0372176
8.29153
0.0564651
1.33559
0.403133
0.0219077
6.88076
0.0219094
3.73797
0.022268
28.9748
3.72858
0.0221611
0.0217732
0.0222786
0.0320717
0.0823572
0.021972
15.3294
0.0230914
0.0395357
0.0774137
0.0231467
0.0219256
3.03155
0.0217702
0.206005
0.0295651
21.0734
0.0221283
0.0218981
3.73237
0.0214674
0.021761
0.0226012
0.0605885
0.0495467
0.259654
0.0243955
0.021767
0.0251942
0.0223061
0.0225476
5.98079
0.0219461
0.049426
6.30255
0.187632
0.0219551
0.0878895
0.0218774
0.0222087
0.440395
0.282795
0.0875202
0.0222394
0.0219549
0.0247928
0.0766534
0.0218989
0.0299087
0.0219048
0.0222739
0.0218468
0.0220696
3.75286
0.0215601
10.2432
5.61511
0.0252021
0.0216871
5.1644
5.78068
0.0218057
0.021975
12.4782
0.0223324
0.065249
0.23444
2.45918
0.0219186
0.0228469
0.0492588
0.0219834
7.12516
0.208145
0.0218201
0.0314631
0.038594
0.022092
0.309805
0.0221546
0.0511632
0.0229495
0.0249265
0.0215343
0.0219063
0.267308
0.0219786
6.73795
0.0605135
0.0220081
0.0219965
0.0219854
0.0218761
5.74951
0.0222717
0.193979
0.0219079
0.0218639
0.0563966
4.75807
0.0217723
0.0215604
0.0219376
0.0226151
0.0301223
0.0302317
4.56776
0.0286169
0.0218435
0.152928
5.8695
0.0222849
0.0309393
4.54729
0.0356907
0.0224584
7.81095
0.0214899
7.02751
0.040565
0.022069
0.0707843
0.0218815
0.0219282
0.0219452
3.69563
0.0220283
2.69646
5.78424
0.562827
0.029359
0.021967
4.67526
0.0222778
26.0308
0.0217296
0.595519
0.0259206
0.0757696
0.0227088
2.74874
0.02904
0.0222245
5.58098
6.12079
0.0215633
3.82182
0.02199
0.0313449
0.0217525
32.1271
0.656363
0.0223257
0.0220391
3.92543
0.301189
0.0218582
0.0235114
0.0220327
0.0218104
0.0217166
0.0241009
5.88316
17.1692
0.0224942
0.217023
0.0237794
0.0595393
0.0220034
31.0914
5.76525
9.04482
0.0227679
6.42722
7.77362
0.0250139
0.0303339
0.021882
0.0477765
5.87557
0.0222139
0.021717
0.0217702
0.0273687
0.0215885
0.0219856
1.36081
0.023138
0.211957
0.0220385
0.0219726
0.0225413
0.0220447
0.184418
11.8744
0.0217918
0.0414776
0.0215488
5.43748
0.0218255
0.0243307
5.45125
2.59274
0.0263687
3.52033
0.423396
0.0220678
0.0620556
0.0221359
0.0323828
0.0222351
0.0219265
0.147088
0.109584
4.00005
0.102074
0.035241
9.42083
0.0233555
0.0410649
0.0227871
5.90241
3.75305
3.03288
0.0219542
0.0215196
6.60514
5.3996
0.0221318
5.08355
0.0221403
0.0269138
0.0214967
0.0218923
0.0218314
0.0218444
0.234791
0.0412812
0.0389464
0.0219776
0.0220209
0.0216453
0.0218283
0.0218177
0.0222628
0.0219334
4.12357
4.49834
5.16197
0.0237063
7.82881
0.0554661
7.27519
7.92976
0.0555955
0.0221137
0.0222649
0.21054
0.0224333
4.29467
8.13695
0.0226211
0.0217018
0.0305515
4.9052
0.0219962
7.10826
0.0218759
0.0221024
7.73601
0.0219302
0.0288949
0.0221654
4.3958
0.0215945
0.0219456
0.251798
0.0216295
0.022058
0.0218991
0.0217025
0.0692239
0.0219047
25.1909
0.0220238
0.0222172
0.0214802
8.33035
0.0344584
0.0222317
6.0259
0.022089
0.0215698
0.273871
4.48018
0.0221268
7.46791
5.62687
0.0264014
4.45535
0.0221121
0.0219841
0.0827404
0.0216812
5.36884
5.01295
0.0214938
0.0261512
0.0218871
8.23902
1.534
0.0422244
0.0221453
0.506299
0.0367014
0.0500649
0.026873
0.0220299
0.0225939
0.0219039
0.0218136
5.99364
0.0214544
0.0218152
0.0412381
8.93529
0.0708413
7.48558
0.0220155
0.0426797
0.0219079
0.0220185
0.0221012
0.021765
0.0221538
0.0219164
0.0221028
0.0221727
0.0243086
0.0219935
0.0221815
0.021686
9.17805
7.96525
0.0222331
0.0228083
4.17478
0.0222103
0.114744
4.98021
4.16017
7.57047
0.924491
7.51042
10.7553
7.1145
0.0217928
0.0301398
0.0218819
0.0506808
0.0246701
0.0222237
0.021801
8.63959
0.0216398
0.030068
11.5279
0.0215961
0.0217413
0.0790446
0.0217036
0.0219024
0.0218975
0.0222255
5.04533
8.74787
0.0220378
0.0219471
0.022058
0.0229012
0.0437994
0.0229196
14.1723
0.243371
0.0221944
5.40043
0.0314472
0.0219427
6.23659
0.0216039
0.0488657
0.0217759
0.0224163
0.0224261
5.13133
0.0219447
0.0219634
0.0239581
0.0223514
0.0303917
0.0218257
3.12092
0.0397779
0.0448525
12.8545
6.87313
0.100795
0.0322419
4.61187
0.0220087
0.0220038
0.0252599
4.62985
0.0500608
0.0498999
7.28252
0.0219767
4.36657
0.277111
1.79618
0.0220005
0.0363765
0.0218795
0.134658
0.0337716
0.517805
6.92838
0.022016
0.0356281
0.0278542
0.0219358
1.26208
0.0219688
0.030089
0.161846
0.0906276
0.021953
0.0222948
0.0222285
0.0561482
0.0219515
0.0222385
0.0219628
0.0220795
0.0216721
0.0384367
0.021548
0.943191
4.11087
0.0225662
0.0217586
0.0215677
0.0431236
0.0349718
0.0221274
5.91561
0.0507246
0.021773
0.0218184
5.89409
4.05673
0.0219389
0.195552
0.0352244
0.0220088
6.44915
0.0226931
0.0757891
0.022234
14.4977
6.51424
0.0222563
0.034527
4.91352
0.0349856
7.11715
0.0222394
0.0255524
4.28629
7.13613
0.0252812
0.0255187
0.0225843
0.0245098
0.0229468
6.08112
4.0856
3.84258
0.0236197
0.0219932
0.0539753
0.0219061
0.271778
0.0248606
8.22778
0.0215894
0.0221893
0.0217736
0.0219299
0.0218463
0.0734796
7.96886
0.0302181
0.0216241
0.0221055
10.9306
0.0236035
0.0238558
0.0221558
0.0354177
6.18085
0.0217061
0.0218704
0.038661
0.0823252
0.022115
0.0406396
0.0223512
0.0237517
0.116818
0.0289102
7.24336
1.32067
0.0480409
10.9222
0.0218581
0.0219033
0.0231203
7.46817
0.0233138
1.68479
0.0216977
4.79482
0.0355995
0.02187
0.0300233
0.022327
4.67736
0.0557277
0.0302021
0.289509
0.100292
0.0221518
0.0222007
0.0222284
0.0248767
4.5991
0.0487538
0.0221055
0.205191
0.0218755
7.47044
0.0219527
6.55854
0.0290418
7.68286
0.601405
0.0593157
0.0219691
0.0220065
0.0218697
6.71248
0.0220251
0.048094
5.07502
0.0215359
7.2342
0.0331756
0.0219579
0.0719304
0.0219143
0.0218576
5.52709
7.09062
5.68568
0.0219003
0.0217663
0.0227993
0.02437
0.0229968
0.0219725
10.9083
0.0710137
4.64646
0.0225694
0.042968
2.87233
1.35242
0.0304539
0.0217628
6.3444
0.022961
4.47921
0.0218939
0.0220285
0.0219812
0.0217262
0.0215337
0.0222972
0.0217874
0.0372265
7.55498
0.0344514
4.27055
0.0251632
0.0222087
0.0221258
0.445365
0.0220241
0.0225475
0.0220455
5.1153
5.00911
0.0217831
0.0237536
0.0218704
0.0219741
0.0222784
0.0220647
0.0219028
1.10878
0.0222642
0.021811
0.139359
0.0218294
5.27753
0.0743951
0.0823251
0.200561
0.0240899
0.0220795
4.13025
0.0220833
0.0698555
0.0291461
0.0217921
0.050594
0.0220662
7.11361
0.0216172
0.021812
5.72054
0.0554231
10.2805
0.0217542
0.0853694
0.168551
0.031998
3.74426
0.0218824
0.0217497
0.0216258
0.0944913
0.0228313
0.829042
0.0220048
0.039068
5.78107
0.209443
0.022015
0.958027
0.0254406
6.74327
0.0235943
0.0235187
0.0240376
5.5503
0.0219654
0.0223833
5.68004
0.021575
0.0263272
0.0218314
0.0472534
4.67009
7.66775
0.021867
0.099894
0.0220024
0.442844
0.0220164
0.0224552
0.080618
26.0425
0.0398805
0.0219954
0.0255199
5.73925
0.0595355
0.0764265
6.67483
0.0220235
12.8357
0.0231003
0.183976
0.0218154
0.025136
6.52126
0.0255804
0.02192
0.508991
7.08544
6.46372
0.0217058
3.73211
0.640254
0.0216335
0.163131
9.00389
0.022278
0.0229324
5.1846
0.0214999
0.0224352
0.0218308
0.0220737
0.11178
0.0837156
0.0345477
4.66651
0.0222709
0.0586774
0.0299234
0.0222196
0.0233347
0.0340627
0.0220021
0.0222271
8.75297
5.1115
7.27271
0.021689
0.0369296
0.0221372
3.98547
0.0220951
0.041553
8.17327
6.03285
0.0684328
0.0219864
4.15427
4.37154
0.785815
0.0220002
0.022127
0.0218369
7.07093
0.0371229
0.153089
6.92362
0.022072
0.0222113
5.34071
0.0288967
0.0915632
0.0221747
0.0218899
0.021979
1.98454
0.0220345
0.0491807
0.0217642
0.0221127
0.021795
5.30051
5.2937
0.0238545
0.602047
0.0230444
0.57309
0.0219142
0.0219012
0.0772763
0.0220763
0.0219259
0.0255298
0.108242
0.028811
0.142264
0.0220425
0.0624428
6.05063
0.0221193
0.0220511
0.0220307
5.79578
0.0461527
0.047514
0.0787519
0.0217805
0.0218884
0.144349
0.0258183
9.99333
9.29584
0.0362489
4.90775
3.0288
5.34925
0.0512477
0.0223268
0.0220008
0.269316
5.76752
0.0218754
0.0385233
4.90053
0.0221079
0.21215
1.58656
0.122528
0.0219247
0.0815072
0.0221507
0.0221062
0.0216429
0.891158
0.022135
0.0507713
0.0369044
0.0219853
0.0221843
5.39397
0.0217927
0.0215994
0.0444006
0.800404
0.0359729
0.0220233
0.0404189
5.0794
3.7542
0.0280288
5.81465
0.0746993
0.126395
0.0602532
0.0221342
0.155958
0.0331648
0.0216598
0.0217361
0.0223789
0.0258577
0.289976
5.15542
0.0222183
3.6329
0.078592
3.67568
10.3021
0.273798
4.03134
0.123336
4.14403
0.0483079
5.11678
0.0536912
0.0219777
0.0221335
7.66431
3.82493
0.107955
5.58564
0.0218212
6.32048
4.51265
0.0220367
0.0216481
0.0379633
0.0591206
4.89655
9.56095
0.119415
0.0218735
0.0218321
0.0222178
9.11039
0.0255803
3.93219
0.0246384
22.355
0.199086
4.61326
0.0275343
3.99913
0.0218055
0.0215951
0.0259376
0.0221645
6.05324
0.142711
3.93239
0.0220735
5.67087
5.35445
0.0215494
0.0428853
5.27504
0.043878
0.0218713
0.0262898
0.021976
4.91095
0.0214608
0.0223718
6.31767
0.0289528
0.0496007
0.0278826
0.021815
0.0222173
0.0423442
0.0220816
0.0216616
0.0218361
0.0297127
5.86886
3.48784
0.0219731
0.135482
5.88669
0.0221183
6.92271
6.09759
0.0221504
8.75389
0.0220762
0.0889402
4.56492
0.0219657
0.0221672
0.0222077
0.077567
0.0261597
0.0218603
5.19126
0.0219808
7.48693
0.022041
6.05658
5.53324
0.0251057
0.0217509
0.162184
0.0822555
0.15713
4.06372
0.0447416
0.0222106
4.18225
0.0224917
0.0727049
0.0660696
0.0299818
0.0642718
0.0218862
0.141298
5.56055
4.98614
0.124138
0.0218847
0.194135
4.12156
0.0222719
0.221296
0.0967764
1.36933
0.021982
0.0251094
0.0215092
0.198717
7.65436
0.0794296
7.56499
0.0889043
0.036812
4.99939
5.40856
4.99003
0.854937
9.09756
0.0651417
11.904
0.0476479
6.47406
6.73584
0.02334
0.0223552
0.0270469
0.0596054
0.0219988
0.0262891
0.0222616
0.0242922
0.0220053
0.0218784
7.82737
5.52046
0.0222037
0.051806
0.022107
0.0217961
0.0237915
0.0807601
0.0234611
0.0950633
0.022202
0.0442121
1.81442
0.108435
0.046584
0.0219765
0.106321
0.0222203
0.0219257
0.63953
0.0229311
5.46806
0.178193
0.0219325
0.0244126
4.1611
0.0220769
0.10111
0.0584942
0.0606639
0.026657
0.0372175
0.0220101
0.0221682
5.20227
7.47492
0.0351365
0.0791876
0.0220506
4.65239
0.025671
7.17824
0.0817645
0.0221115
0.0216829
7.09237
0.174271
6.30018
0.0282403
7.62707
0.0226831
5.58321
9.36308
0.0310493
0.155929
0.0218561
7.06313
0.022243
10.5836
0.0289198
4.32348
5.47349
4.98755
5.11592
0.0364316
8.27762
0.158118
0.0487739
5.54754
3.80589
4.54768
0.0217143
0.0259722
0.0764976
7.08287
0.0218872
0.0218152
0.0299737
0.063378
10.8931
0.0605283
0.0458101
0.0219305
0.131592
0.0215579
0.186292
5.33496
0.928979
0.0217805
6.7059
0.0684683
0.022616
5.04053
3.08911
0.0266588
4.65131
4.59552
4.76661
0.0574003
0.0218424
0.0291281
6.93408
0.0374984
0.0219787
7.21819
0.0215051
7.90761
0.0232724
0.0221969
4.21323
4.8931
0.0218683
0.0517255
0.0219508
6.84507
0.0215144
4.2003
0.158911
0.0426117
0.0219095
0.0220047
0.0221613
0.036538
0.0483639
0.130578
0.0289522
4.99941
0.0332065
0.0254395
6.54574
4.21487
0.0216462
0.161049
0.021963
5.81256
0.0221211
0.0435028
6.71501
0.0274304
0.0219285
4.97037
0.0223608
0.0222547
0.0471431
0.0222782
0.0218964
7.00774
0.0575124
6.53353
0.0222785
0.127874
0.0755682
0.0216511
0.021929
0.0236501
0.0218592
5.46644
3.77892
4.22726
4.2907
3.87211
5.66844
0.0219187
0.0220263
0.0219429
0.0221625
0.116062
6.72591
0.0307033
0.0249203
3.79933
0.0223599
0.0217862
3.73549
0.121948
0.0214785
0.0219686
0.0219009
0.204988
0.0217584
0.0219521
0.166495
0.0341635
0.103189
0.0239203
5.25784
6.40766
0.0214675
0.0217321
5.66936
0.0343475
0.0252127
6.02716
0.0354922
0.126419
0.578817
0.0235772
0.537453
5.32314
0.0215515
0.0259007
4.95041
0.0253152
0.0220122
1.58833
0.0552246
0.0499637
0.0221935
0.366116
0.0239949
4.43072
0.0220529
0.0219778
0.0335935
0.0639227
6.8284
0.0357624
0.0219699
24.4671
4.74643
0.0240577
0.0768106
0.0220336
0.0219039
0.0217532
5.08225
0.0218596
7.17614
0.262335
4.97134
6.25054
0.0354718
4.98589
0.0333187
6.91573
0.610341
0.115001
0.68136
0.0768141
0.0974269
5.86668
0.0500421
0.0220052
0.0220612
15.8737
0.0405007
0.0230441
0.0222295
6.352
9.42029
0.0220946
4.10031
9.12291
0.059081
0.437873
0.0409725
0.0409539
0.0397149
0.103748
5.27695
0.0274239
0.205362
0.274772
0.0217631
0.105541
0.02818
5.51708
0.0624323
0.0219613
0.260953
0.0660212
0.0762535
0.583588
0.022577
5.10311
0.220369
10.5843
7.35166
0.0221837
0.0220139
0.0218936
5.48759
5.14999
0.0869569
0.155729
0.0218575
0.0217492
0.0226344
0.0714009
3.68097
0.0523148
7.29038
0.0750442
0.397241
0.863831
0.0217643
0.0532097
7.43038
7.33387
6.80515
4.90768
3.89073
0.0222929
4.43147
5.26193
5.08989
5.10882
0.0219404
5.37559
0.0226204
4.95065
0.0273229
12.1646
11.3632
3.1781
0.0221577
0.0219901
0.0733504
0.02385
0.113346
0.0222724
0.0499959
0.0491207
0.0218008
0.0220025
0.0341715
0.02193
7.33386
0.0218868
0.023195
5.45394
0.0598774
5.07127
0.108583
8.37037
0.0219494
0.0219788
0.0222874
4.77999
7.96011
0.0220257
0.0474843
7.68434
9.47559
0.0218897
4.29281
4.5343
0.0218387
4.92066
0.0219087
0.0396942
0.0220122
0.0594895
0.0220722
0.142976
6.38852
0.0218671
0.0221593
7.86907
0.0357697
0.0217011
0.022136
9.47857
0.0218746
0.0222042
4.21446
10.5747
4.99389
0.0816071
0.0219338
4.4625
5.66685
1.02025
0.0221665
0.0810123
0.0590546
0.0219649
0.231776
0.0218463
0.021832
0.021837
0.0525804
7.89425
4.47476
0.0428044
0.14731
0.0219085
5.20535
0.0218256
0.0282055
0.0472986
0.0234167
0.0503365
0.0360423
0.0218999
0.119938
7.97409
0.0580818
16.6506
8.09665
0.0634527
0.0219841
0.0250349
0.246441
0.0297498
0.0221945
0.101144
7.04648
0.0217082
7.96575
0.0285082
0.0219755
1.22263
6.75263
5.30848
0.0219746
0.0267734
0.0250067
0.0566498
0.0489596
0.0218944
0.0220042
0.117322
1.34886
5.68641
0.0274072
0.0223043
0.0217472
0.168646
0.022026
4.62476
0.0222728
0.0415288
7.3687
0.207584
7.24145
0.0220524
7.76924
5.05733
7.04197
0.0220036
0.0223017
0.0499703
2.44843
0.0218263
7.64392
0.0218733
0.0215045
6.12909
0.0221841
0.0531851
0.0280915
0.0229304
0.0320734
0.0292305
0.069787
0.047185
0.0377319
21.9263
0.178558
4.42887
0.0478869
0.0339932
0.0571294
5.50569
0.173834
0.0277975
0.0220815
5.56524
0.02278
1.08406
0.218729
0.540002
0.0216929
10.6406
0.0220575
2.15047
0.0226069
0.88866
4.87526
0.0503725
11.5938
3.93932
6.90257
4.42189
7.41971
0.0646948
0.0219408
0.0218055
1.07173
0.0218104
0.0219448
0.0220332
0.0411003
0.0234176
0.0342524
12.6222
4.53098
0.117023
0.0277374
0.0275758
0.0215878