/*--------------------------------*- C++ -*----------------------------------*\
| =========                 |                                                 |
| \\      /  F ield         | OpenFOAM: The Open Source CFD Toolbox           |
|  \\    /   O peration     | Version:  v2012                                 |
|   \\  /    A nd           | Website:  www.openfoam.com                      |
|    \\/     M anipulation  |                                                 |
\*---------------------------------------------------------------------------*/
FoamFile
{
    version     2.0;
    format      ascii;
    class       pointVectorField;
    location    "100";
    object      pointDisplacement;
}
// * * * * * * * * * * * * * * * * * * * * * * * * * * * * * * * * * * * * * //

dimensions      [0 1 0 0 0 0 0];


internalField   nonuniform List<vector> 
19220
(
(0 0 0)
(0 2.56438e-06 0)
(0 2.56438e-06 0)
(0 0 0)
(0 2.56438e-06 0)
(0 2.56438e-06 0)
(0 0 0)
(0 0 0)
(0 0 0)
(0 0 0)
(0 0 0)
(0 0 0)
(0 0 0)
(0 0 0)
(0 0 0)
(0 0 0)
(0 0 0)
(0 0 0)
(0 0 0)
(0 0 0)
(0 0 0)
(0 0 0)
(0 0 0)
(0 0 0)
(0 0 0)
(0 0 0)
(0 0 0)
(0 0 0)
(0 0 0)
(0 0 0)
(0 0 0)
(0 0 0)
(0 0 0)
(0 0 0)
(0 0 0)
(0 0 0)
(0 0 0)
(0 0 0)
(0 0 0)
(0 0 0)
(0 0 0)
(0 0 0)
(0 0 0)
(0 0 0)
(0 0 0)
(0 0 0)
(0 0 0)
(0 0 0)
(0 0 0)
(0 0 0)
(0 0 0)
(0 0 0)
(0 0 0)
(0 0 0)
(0 0 0)
(0 0 0)
(0 0 0)
(0 0 0)
(0 0 0)
(0 0 0)
(0 0 0)
(0 0 0)
(0 0 0)
(0 0 0)
(0 0 0)
(0 0 0)
(0 0 0)
(0 0 0)
(0 0 0)
(0 0 0)
(0 0 0)
(0 0 0)
(0 0 0)
(0 0 0)
(0 0 0)
(0 0 0)
(0 0 0)
(0 0 0)
(0 0 0)
(0 0 0)
(0 0 0)
(0 0 0)
(0 0 0)
(0 0 0)
(0 0 0)
(0 0 0)
(0 0 0)
(0 0 0)
(0 0 0)
(0 0 0)
(0 0 0)
(0 0 0)
(0 0 0)
(0 0 0)
(0 0 0)
(0 2.56438e-06 0)
(0 2.56438e-06 0)
(0 2.56438e-06 0)
(0 2.56438e-06 0)
(0 2.56438e-06 0)
(0 2.56438e-06 0)
(0 2.56438e-06 0)
(0 2.56438e-06 0)
(0 2.56438e-06 0)
(0 2.56438e-06 0)
(0 2.56438e-06 0)
(0 2.56438e-06 0)
(0 2.56438e-06 0)
(0 2.56438e-06 0)
(0 2.56438e-06 0)
(0 2.56438e-06 0)
(0 2.56438e-06 0)
(0 2.56438e-06 0)
(0 2.56438e-06 0)
(0 2.56438e-06 0)
(0 2.56438e-06 0)
(0 2.56438e-06 0)
(0 2.56438e-06 0)
(0 2.56438e-06 0)
(0 2.56438e-06 0)
(0 2.56438e-06 0)
(0 2.56438e-06 0)
(0 2.56438e-06 0)
(0 2.56438e-06 0)
(0 2.56438e-06 0)
(0 2.56438e-06 0)
(0 2.56438e-06 0)
(0 2.56438e-06 0)
(0 2.56438e-06 0)
(0 2.56438e-06 0)
(0 2.56438e-06 0)
(0 2.56438e-06 0)
(0 2.56438e-06 0)
(0 2.56438e-06 0)
(0 2.56438e-06 0)
(0 2.56438e-06 0)
(0 2.56438e-06 0)
(0 2.56438e-06 0)
(0 2.56438e-06 0)
(0 2.56438e-06 0)
(0 2.56438e-06 0)
(0 2.56438e-06 0)
(0 2.56438e-06 0)
(0 2.56438e-06 0)
(0 2.56438e-06 0)
(0 2.56438e-06 0)
(0 2.56438e-06 0)
(0 2.56438e-06 0)
(0 2.56438e-06 0)
(0 2.56438e-06 0)
(0 2.56438e-06 0)
(0 2.56438e-06 0)
(0 2.56438e-06 0)
(0 2.56438e-06 0)
(0 2.56438e-06 0)
(0 2.56438e-06 0)
(0 2.56438e-06 0)
(0 2.56438e-06 0)
(0 2.56438e-06 0)
(0 2.56438e-06 0)
(0 2.56438e-06 0)
(0 2.56438e-06 0)
(0 2.56438e-06 0)
(0 2.56438e-06 0)
(0 2.56438e-06 0)
(0 2.56438e-06 0)
(0 2.56438e-06 0)
(0 2.56438e-06 0)
(0 2.56438e-06 0)
(0 2.56438e-06 0)
(0 2.56438e-06 0)
(0 2.56438e-06 0)
(0 2.56438e-06 0)
(0 2.56438e-06 0)
(0 2.56438e-06 0)
(0 2.56438e-06 0)
(0 2.56438e-06 0)
(0 2.56438e-06 0)
(0 2.56438e-06 0)
(0 2.56438e-06 0)
(0 2.56438e-06 0)
(0 2.56438e-06 0)
(0 2.56438e-06 0)
(0 2.56438e-06 0)
(0 2.56438e-06 0)
(0 2.56438e-06 0)
(0 2.56438e-06 0)
(0 2.56438e-06 0)
(0 2.56438e-06 0)
(0 2.56438e-06 0)
(0 2.56438e-06 0)
(0 2.56438e-06 0)
(0 2.56438e-06 0)
(0 2.56438e-06 0)
(0 2.56438e-06 0)
(0 2.56438e-06 0)
(0 2.56438e-06 0)
(0 2.56438e-06 0)
(0 2.56438e-06 0)
(0 2.56438e-06 0)
(0 2.56438e-06 0)
(0 2.56438e-06 0)
(0 2.56438e-06 0)
(0 2.56438e-06 0)
(0 2.56438e-06 0)
(0 2.56438e-06 0)
(0 2.56438e-06 0)
(0 2.56438e-06 0)
(0 2.56438e-06 0)
(0 2.56438e-06 0)
(0 2.56438e-06 0)
(0 2.56438e-06 0)
(0 2.56438e-06 0)
(0 2.56438e-06 0)
(0 2.56438e-06 0)
(0 2.56438e-06 0)
(0 2.56438e-06 0)
(0 2.56438e-06 0)
(0 2.56438e-06 0)
(0 2.56438e-06 0)
(0 2.56438e-06 0)
(0 2.56438e-06 0)
(0 2.56438e-06 0)
(0 0 0)
(0 0 0)
(0 0 0)
(0 0 0)
(0 0 0)
(0 0 0)
(0 0 0)
(0 0 0)
(0 0 0)
(0 0 0)
(0 0 0)
(0 0 0)
(0 0 0)
(0 0 0)
(0 0 0)
(0 0 0)
(0 0 0)
(0 0 0)
(0 0 0)
(0 0 0)
(0 0 0)
(0 0 0)
(0 0 0)
(0 0 0)
(0 0 0)
(0 0 0)
(0 0 0)
(0 0 0)
(0 0 0)
(0 0 0)
(0 0 0)
(0 0 0)
(0 0 0)
(0 0 0)
(0 0 0)
(0 0 0)
(0 0 0)
(0 0 0)
(0 0 0)
(0 0 0)
(0 0 0)
(0 0 0)
(0 0 0)
(0 0 0)
(0 0 0)
(0 0 0)
(0 0 0)
(0 0 0)
(0 0 0)
(0 0 0)
(0 0 0)
(0 0 0)
(0 0 0)
(0 0 0)
(0 0 0)
(0 0 0)
(0 0 0)
(0 0 0)
(0 0 0)
(0 0 0)
(0 0 0)
(0 0 0)
(0 0 0)
(0 0 0)
(0 0 0)
(0 0 0)
(0 0 0)
(0 0 0)
(0 0 0)
(0 0 0)
(0 0 0)
(0 0 0)
(0 0 0)
(0 0 0)
(0 0 0)
(0 0 0)
(0 0 0)
(0 0 0)
(0 0 0)
(0 0 0)
(0 0 0)
(0 0 0)
(0 0 0)
(0 0 0)
(0 0 0)
(0 0 0)
(0 0 0)
(0 0 0)
(0 0 0)
(0 2.56438e-06 0)
(0 2.56438e-06 0)
(0 2.56438e-06 0)
(0 2.56438e-06 0)
(0 2.56438e-06 0)
(0 2.56438e-06 0)
(0 2.56438e-06 0)
(0 2.56438e-06 0)
(0 2.56438e-06 0)
(0 2.56438e-06 0)
(0 2.56438e-06 0)
(0 2.56438e-06 0)
(0 2.56438e-06 0)
(0 2.56438e-06 0)
(0 2.56438e-06 0)
(0 2.56438e-06 0)
(0 2.56438e-06 0)
(0 2.56438e-06 0)
(0 2.56438e-06 0)
(0 2.56438e-06 0)
(0 2.56438e-06 0)
(0 2.56438e-06 0)
(0 2.56438e-06 0)
(0 2.56438e-06 0)
(0 2.56438e-06 0)
(0 2.56438e-06 0)
(0 2.56438e-06 0)
(0 2.56438e-06 0)
(0 2.56438e-06 0)
(0 2.56438e-06 0)
(0 2.56438e-06 0)
(0 2.56438e-06 0)
(0 2.56438e-06 0)
(0 2.56438e-06 0)
(0 2.56438e-06 0)
(0 2.56438e-06 0)
(0 2.56438e-06 0)
(0 2.56438e-06 0)
(0 2.56438e-06 0)
(0 2.56438e-06 0)
(0 2.56438e-06 0)
(0 2.56438e-06 0)
(0 2.56438e-06 0)
(0 2.56438e-06 0)
(0 2.56438e-06 0)
(0 2.56438e-06 0)
(0 2.56438e-06 0)
(0 2.56438e-06 0)
(0 2.56438e-06 0)
(0 2.56438e-06 0)
(0 2.56438e-06 0)
(0 2.56438e-06 0)
(0 2.56438e-06 0)
(0 2.56438e-06 0)
(0 2.56438e-06 0)
(0 2.56438e-06 0)
(0 2.56438e-06 0)
(0 2.56438e-06 0)
(0 2.56438e-06 0)
(0 2.56438e-06 0)
(0 2.56438e-06 0)
(0 2.56438e-06 0)
(0 2.56438e-06 0)
(0 2.56438e-06 0)
(0 2.56438e-06 0)
(0 2.56438e-06 0)
(0 2.56438e-06 0)
(0 2.56438e-06 0)
(0 2.56438e-06 0)
(0 2.56438e-06 0)
(0 2.56438e-06 0)
(0 2.56438e-06 0)
(0 2.56438e-06 0)
(0 2.56438e-06 0)
(0 2.56438e-06 0)
(0 2.56438e-06 0)
(0 2.56438e-06 0)
(0 2.56438e-06 0)
(0 2.56438e-06 0)
(0 2.56438e-06 0)
(0 2.56438e-06 0)
(0 2.56438e-06 0)
(0 2.56438e-06 0)
(0 2.56438e-06 0)
(0 2.56438e-06 0)
(0 2.56438e-06 0)
(0 2.56438e-06 0)
(0 2.56438e-06 0)
(0 2.56438e-06 0)
(0 2.56438e-06 0)
(0 2.56438e-06 0)
(0 2.56438e-06 0)
(0 2.56438e-06 0)
(0 2.56438e-06 0)
(0 2.56438e-06 0)
(0 2.56438e-06 0)
(0 2.56438e-06 0)
(0 2.56438e-06 0)
(0 2.56438e-06 0)
(0 2.56438e-06 0)
(0 2.56438e-06 0)
(0 2.56438e-06 0)
(0 2.56438e-06 0)
(0 2.56438e-06 0)
(0 2.56438e-06 0)
(0 2.56438e-06 0)
(0 2.56438e-06 0)
(0 2.56438e-06 0)
(0 2.56438e-06 0)
(0 2.56438e-06 0)
(0 2.56438e-06 0)
(0 2.56438e-06 0)
(0 2.56438e-06 0)
(0 2.56438e-06 0)
(0 2.56438e-06 0)
(0 2.56438e-06 0)
(0 2.56438e-06 0)
(0 2.56438e-06 0)
(0 2.56438e-06 0)
(0 2.56438e-06 0)
(0 2.56438e-06 0)
(0 2.56438e-06 0)
(0 2.56438e-06 0)
(0 2.56438e-06 0)
(0 2.56438e-06 0)
(0 2.56438e-06 0)
(0 2.56438e-06 0)
(0 2.56438e-06 0)
(0 2.56334e-06 0)
(0 2.56426e-06 0)
(0 2.56418e-06 0)
(0 2.56422e-06 0)
(0 2.56378e-06 0)
(0 2.5645e-06 0)
(0 2.56965e-06 0)
(0 2.56555e-06 0)
(0 2.56422e-06 0)
(0 2.56419e-06 0)
(0 2.56432e-06 0)
(0 2.56761e-06 0)
(0 2.56745e-06 0)
(0 2.56468e-06 0)
(0 5.68941e-06 0)
(0 1.22562e-05 0)
(0 1.64718e-05 0)
(0 6.80898e-06 0)
(0 -3.32881e-06 0)
(0 6.86541e-06 0)
(0 4.06612e-06 0)
(0 7.42157e-06 0)
(0 1.014e-05 0)
(0 2.56456e-06 0)
(0 2.56775e-06 0)
(0 2.56379e-06 0)
(0 2.56448e-06 0)
(0 2.57058e-06 0)
(0 2.56451e-06 0)
(0 2.56542e-06 0)
(0 2.56541e-06 0)
(0 2.56491e-06 0)
(0 2.5643e-06 0)
(0 7.00109e-06 0)
(0 5.66239e-06 0)
(0 1.57392e-06 0)
(0 2.56596e-06 0)
(0 2.56566e-06 0)
(0 2.56405e-06 0)
(0 7.07967e-06 0)
(0 4.2763e-06 0)
(0 4.79157e-06 0)
(0 5.8588e-06 0)
(0 2.47632e-06 0)
(0 1.0688e-05 0)
(0 1.35926e-05 0)
(0 1.35596e-05 0)
(0 4.43899e-06 0)
(0 7.07459e-06 0)
(0 2.56338e-06 0)
(0 3.49774e-06 0)
(0 1.53387e-06 0)
(0 -8.1945e-07 0)
(0 5.72684e-06 0)
(0 -6.57704e-06 0)
(0 6.48428e-06 0)
(0 9.5532e-06 0)
(0 3.0268e-06 0)
(0 8.24072e-06 0)
(0 4.90728e-06 0)
(0 2.63594e-06 0)
(0 1.64897e-06 0)
(0 3.30316e-06 0)
(0 6.73582e-06 0)
(0 8.66204e-06 0)
(0 9.6252e-06 0)
(0 1.13088e-05 0)
(0 1.15464e-05 0)
(0 1.26916e-05 0)
(0 1.20249e-05 0)
(0 1.23116e-05 0)
(0 1.08809e-05 0)
(0 1.01632e-05 0)
(0 8.31283e-06 0)
(0 8.35092e-06 0)
(0 4.60192e-06 0)
(0 4.46325e-06 0)
(0 1.27378e-06 0)
(0 8.90643e-07 0)
(0 -1.45953e-06 0)
(0 -1.70162e-06 0)
(0 -3.55485e-06 0)
(0 -3.93997e-06 0)
(0 -5.70498e-06 0)
(0 -6.4133e-06 0)
(0 -8.30675e-06 0)
(0 -9.03899e-06 0)
(0 -1.10869e-05 0)
(0 -1.00095e-05 0)
(0 -1.26899e-05 0)
(0 -1.16243e-05 0)
(0 -1.45331e-05 0)
(0 -1.37367e-05 0)
(0 -1.70666e-05 0)
(0 -1.66854e-05 0)
(0 -2.04945e-05 0)
(0 -2.07657e-05 0)
(0 -2.47198e-05 0)
(0 -2.54456e-05 0)
(0 -2.9396e-05 0)
(0 -3.03611e-05 0)
(0 -2.86005e-05 0)
(0 -3.32068e-05 0)
(0 -3.2601e-05 0)
(0 -3.65493e-05 0)
(0 -3.52712e-05 0)
(0 -3.89153e-05 0)
(0 -3.69222e-05 0)
(0 -3.99548e-05 0)
(0 -3.76895e-05 0)
(0 -4.01028e-05 0)
(0 -3.77698e-05 0)
(0 -3.98385e-05 0)
(0 -4.16829e-05 0)
(0 -3.7886e-05 0)
(0 -3.96534e-05 0)
(0 -3.82653e-05 0)
(0 -3.9767e-05 0)
(0 -3.85546e-05 0)
(0 -3.97892e-05 0)
(0 -3.85352e-05 0)
(0 -3.96976e-05 0)
(0 -3.855e-05 0)
(0 -3.96912e-05 0)
(0 -3.88133e-05 0)
(0 -3.99231e-05 0)
(0 -4.04713e-05 0)
(0 -3.94296e-05 0)
(0 -4.04934e-05 0)
(0 -4.01696e-05 0)
(0 -4.1153e-05 0)
(0 -4.05951e-05 0)
(0 -4.15501e-05 0)
(0 -4.06691e-05 0)
(0 -4.16362e-05 0)
(0 -4.06845e-05 0)
(0 -4.16441e-05 0)
(0 -4.07431e-05 0)
(0 -4.15178e-05 0)
(0 -4.073e-05 0)
(0 -4.13888e-05 0)
(0 -4.05796e-05 0)
(0 -4.11552e-05 0)
(0 -4.02731e-05 0)
(0 -4.07294e-05 0)
(0 -3.97421e-05 0)
(0 -4.01195e-05 0)
(0 -3.9029e-05 0)
(0 -3.93751e-05 0)
(0 -3.83053e-05 0)
(0 -3.85519e-05 0)
(0 -4.22964e-05 0)
(0 -3.75981e-05 0)
(0 -3.77569e-05 0)
(0 -3.96921e-05 0)
(0 -3.68924e-05 0)
(0 -3.70124e-05 0)
(0 -3.61863e-05 0)
(0 -3.6491e-05 0)
(0 -3.56628e-05 0)
(0 -3.61942e-05 0)
(0 -3.54117e-05 0)
(0 -3.60417e-05 0)
(0 -3.5313e-05 0)
(0 -3.59485e-05 0)
(0 -3.49083e-05 0)
(0 -3.53803e-05 0)
(0 -3.59648e-05 0)
(0 -3.5539e-05 0)
(0 -3.60149e-05 0)
(0 -3.56265e-05 0)
(0 -3.61697e-05 0)
(0 -3.57627e-05 0)
(0 -3.64193e-05 0)
(0 -3.94478e-05 0)
(0 -3.60187e-05 0)
(0 -3.67278e-05 0)
(0 -3.48725e-05 0)
(0 -4.03034e-05 0)
(0 -3.63662e-05 0)
(0 -3.70715e-05 0)
(0 -3.68379e-05 0)
(0 -3.76347e-05 0)
(0 -3.7542e-05 0)
(0 -3.84836e-05 0)
(0 -3.84638e-05 0)
(0 -3.94059e-05 0)
(0 -3.92308e-05 0)
(0 -4.01103e-05 0)
(0 -4.03682e-05 0)
(0 -4.10634e-05 0)
(0 -4.06089e-05 0)
(0 -4.16417e-05 0)
(0 -4.21875e-05 0)
(0 -4.29561e-05 0)
(0 -4.22509e-05 0)
(0 -4.38042e-05 0)
(0 -4.45568e-05 0)
(0 -4.55852e-05 0)
(0 -4.64679e-05 0)
(0 -4.76746e-05 0)
(0 -4.65638e-05 0)
(0 -4.88364e-05 0)
(0 -4.75744e-05 0)
(0 -4.99706e-05 0)
(0 -5.15076e-05 0)
(0 -5.28203e-05 0)
(0 -5.45109e-05 0)
(0 -5.59402e-05 0)
(0 -5.40646e-05 0)
(0 -5.71204e-05 0)
(0 -5.89986e-05 0)
(0 -6.02187e-05 0)
(0 -5.76858e-05 0)
(0 -6.13817e-05 0)
(0 -6.34945e-05 0)
(0 -6.49782e-05 0)
(0 -6.25696e-05 0)
(0 -6.63928e-05 0)
(0 -6.88691e-05 0)
(0 -7.05963e-05 0)
(0 -6.78485e-05 0)
(0 -7.23914e-05 0)
(0 -7.52197e-05 0)
(0 -7.72018e-05 0)
(0 -8.00996e-05 0)
(0 -8.21517e-05 0)
(0 -7.91289e-05 0)
(0 -8.42555e-05 0)
(0 -8.7264e-05 0)
(0 -8.9602e-05 0)
(0 -8.63609e-05 0)
(0 -9.19825e-05 0)
(0 -9.5358e-05 0)
(0 -9.8124e-05 0)
(0 -0.000101655 0)
(0 -0.000104761 0)
(0 -0.000101178 0)
(0 -0.000107812 0)
(0 -0.000111626 0)
(0 -0.000114719 0)
(0 -0.000110561 0)
(0 -0.000117688 0)
(0 -0.000121812 0)
(0 -0.000125047 0)
(0 -0.00012008 0)
(0 -0.000128475 0)
(0 -0.000132931 0)
(0 -0.000136544 0)
(0 -0.000131326 0)
(0 -0.000139984 0)
(0 -0.000145193 0)
(0 -0.000148371 0)
(0 -0.000143223 0)
(0 -0.000151504 0)
(0 -0.000156622 0)
(0 -0.00016003 0)
(0 -0.000154555 0)
(0 -0.000163435 0)
(0 -0.000168706 0)
(0 -0.000166774 0)
(0 -3.68476e-05 0)
(0 -3.71617e-05 0)
(0 -2.62624e-05 0)
(0 -3.13796e-05 0)
(0 -2.72269e-05 0)
(0 -3.21711e-05 0)
(0 -2.8112e-05 0)
(0 -3.24031e-05 0)
(0 -2.86894e-05 0)
(0 -3.19848e-05 0)
(0 -2.87469e-05 0)
(0 -3.1483e-05 0)
(0 -2.86457e-05 0)
(0 -3.63083e-05 0)
(0 -1.1325e-05 0)
(0 -1.24062e-05 0)
(0 -1.13344e-05 0)
(0 -1.24118e-05 0)
(0 -1.1291e-05 0)
(0 -1.24182e-05 0)
(0 -1.12346e-05 0)
(0 -1.01563e-05 0)
(0 -1.01098e-05 0)
(0 -1.12141e-05 0)
(0 -1.01402e-05 0)
(0 -1.1262e-05 0)
(0 -1.02338e-05 0)
(0 -1.1386e-05 0)
(0 -1.03726e-05 0)
(0 -9.10644e-06 0)
(0 -1.15798e-05 0)
(0 -1.055e-05 0)
(0 -9.40506e-06 0)
(0 -9.58188e-06 0)
(0 -1.07778e-05 0)
(0 -9.8266e-06 0)
(0 -8.5061e-06 0)
(0 -1.10763e-05 0)
(0 -1.01767e-05 0)
(0 -1.14901e-05 0)
(0 -1.06244e-05 0)
(0 -1.19877e-05 0)
(0 -1.11036e-05 0)
(0 -9.79222e-06 0)
(0 -1.02599e-05 0)
(0 -9.01581e-06 0)
(0 -9.51259e-06 0)
(0 -8.34279e-06 0)
(0 -8.87423e-06 0)
(0 -7.75264e-06 0)
(0 -8.34692e-06 0)
(0 -7.24407e-06 0)
(0 -7.86068e-06 0)
(0 -6.79856e-06 0)
(0 -7.38444e-06 0)
(0 -6.35625e-06 0)
(0 -6.99663e-06 0)
(0 -5.95611e-06 0)
(0 -6.63459e-06 0)
(0 -5.58117e-06 0)
(0 -6.25025e-06 0)
(0 -5.22578e-06 0)
(0 -5.89505e-06 0)
(0 -4.92576e-06 0)
(0 -5.59743e-06 0)
(0 -4.68884e-06 0)
(0 -5.37173e-06 0)
(0 -4.47304e-06 0)
(0 -5.20447e-06 0)
(0 -4.30422e-06 0)
(0 -5.08426e-06 0)
(0 -4.17581e-06 0)
(0 -4.94702e-06 0)
(0 -4.05002e-06 0)
(0 -4.80396e-06 0)
(0 -3.97635e-06 0)
(0 -4.73495e-06 0)
(0 -3.95496e-06 0)
(0 -4.73568e-06 0)
(0 -3.97601e-06 0)
(0 -4.82936e-06 0)
(0 -4.03e-06 0)
(0 -4.91784e-06 0)
(0 -4.09858e-06 0)
(0 -4.96303e-06 0)
(0 -4.21065e-06 0)
(0 -5.19678e-06 0)
(0 -4.35388e-06 0)
(0 -5.21436e-06 0)
(0 -4.50855e-06 0)
(0 -5.38837e-06 0)
(0 -4.71904e-06 0)
(0 -5.60192e-06 0)
(0 -4.95663e-06 0)
(0 -5.82158e-06 0)
(0 -5.22325e-06 0)
(0 -6.10024e-06 0)
(0 -5.51381e-06 0)
(0 -6.43395e-06 0)
(0 -5.81092e-06 0)
(0 -6.80163e-06 0)
(0 -6.13948e-06 0)
(0 -7.1808e-06 0)
(0 -6.50648e-06 0)
(0 -7.57342e-06 0)
(0 -6.90425e-06 0)
(0 -7.98859e-06 0)
(0 -7.36775e-06 0)
(0 -8.51591e-06 0)
(0 -7.90227e-06 0)
(0 -9.13903e-06 0)
(0 -8.48853e-06 0)
(0 -9.78502e-06 0)
(0 -9.13052e-06 0)
(0 -1.04945e-05 0)
(0 -9.82807e-06 0)
(0 -1.12621e-05 0)
(0 -1.05774e-05 0)
(0 -1.20841e-05 0)
(0 -1.13853e-05 0)
(0 -1.29365e-05 0)
(0 -1.22536e-05 0)
(0 -1.38931e-05 0)
(0 -1.31851e-05 0)
(0 -1.49173e-05 0)
(0 -1.4175e-05 0)
(0 -1.60198e-05 0)
(0 -1.52709e-05 0)
(0 -1.72442e-05 0)
(0 -1.65603e-05 0)
(0 -1.85355e-05 0)
(0 -1.78598e-05 0)
(0 -1.99164e-05 0)
(0 -1.91383e-05 0)
(0 -1.69883e-05 0)
(0 -1.83901e-05 0)
(0 -2.05539e-05 0)
(0 -1.97044e-05 0)
(0 -1.7646e-05 0)
(0 -1.88491e-05 0)
(0 -2.11067e-05 0)
(0 -2.01508e-05 0)
(0 -1.8011e-05 0)
(0 -1.93493e-05 0)
(0 -2.15862e-05 0)
(0 -2.07744e-05 0)
(0 -2.31646e-05 0)
(0 -2.22727e-05 0)
(0 -1.98957e-05 0)
(0 -2.13345e-05 0)
(0 -2.38396e-05 0)
(0 -2.28217e-05 0)
(0 -2.54873e-05 0)
(0 -2.44125e-05 0)
(0 -2.14905e-05 0)
(0 -2.33886e-05 0)
(0 -2.60438e-05 0)
(0 -2.50057e-05 0)
(0 -1.1539e-05 0)
(0 -2.2468e-05 0)
(0 -2.40413e-05 0)
(0 -2.66378e-05 0)
(0 -2.57005e-05 0)
(0 -2.30602e-05 0)
(0 -2.47113e-05 0)
(0 -2.74977e-05 0)
(0 -2.64745e-05 0)
(0 -2.9436e-05 0)
(0 -2.83799e-05 0)
(0 -2.20574e-05 0)
(0 -7.8459e-06 0)
(0 -5.87309e-06 0)
(0 -5.74454e-06 0)
(0 -6.68906e-06 0)
(0 -8.40921e-06 0)
(0 -6.49494e-06 0)
(0 -8.26458e-06 0)
(0 -1.11512e-05 0)
(0 -1.57862e-05 0)
(0 -3.15172e-05 0)
(0 -3.04358e-05 0)
(0 -3.3752e-05 0)
(0 -3.26336e-05 0)
(0 -5.51328e-06 0)
(0 -3.61338e-05 0)
(0 -3.50112e-05 0)
(0 -3.1524e-05 0)
(0 -3.39029e-05 0)
(0 -3.04848e-05 0)
(0 -3.2845e-05 0)
(0 -2.94826e-05 0)
(0 -3.18197e-05 0)
(0 -2.85188e-05 0)
(0 -3.08366e-05 0)
(0 -2.75821e-05 0)
(0 -2.99077e-05 0)
(0 -3.32964e-05 0)
(0 -3.24065e-05 0)
(0 -2.89938e-05 0)
(0 -2.81269e-05 0)
(0 -3.87454e-05 0)
(0 -3.98209e-05 0)
(0 -4.12512e-06 0)
(0 -5.81099e-06 0)
(0 -4.2687e-05 0)
(0 -4.37253e-05 0)
(0 -3.4486e-06 0)
(0 -4.68088e-05 0)
(0 -4.788e-05 0)
(0 -5.11728e-05 0)
(0 -5.22858e-05 0)
(0 -3.26038e-06 0)
(0 -4.33765e-06 0)
(0 -1.16036e-05 0)
(0 -5.58256e-05 0)
(0 -5.68873e-05 0)
(0 -6.06189e-05 0)
(0 -6.16827e-05 0)
(0 -0.000176855 0)
(0 -0.000181481 0)
(0 -0.000169279 0)
(0 -0.000164902 0)
(0 -0.000157181 0)
(0 -3.38552e-05 0)
(0 -3.52851e-05 0)
(0 -0.00015337 0)
(0 -0.000145501 0)
(0 -0.000148796 0)
(0 -0.000137546 0)
(0 -0.000140711 0)
(0 -0.0001301 0)
(0 -0.000127014 0)
(0 -0.000120043 0)
(0 -6.54874e-05 0)
(0 -6.67198e-05 0)
(0 -0.000123298 0)
(0 -0.00011373 0)
(0 -0.00011068 0)
(0 -0.000105094 0)
(0 -0.000107766 0)
(0 -9.98505e-05 0)
(0 -9.7379e-05 0)
(0 -9.2726e-05 0)
(0 -3.66373e-05 0)
(0 -9.01776e-05 0)
(0 -8.61266e-05 0)
(0 -8.81737e-05 0)
(0 -8.22297e-05 0)
(0 -2.06619e-05 0)
(0 -1.29283e-05 0)
(0 -8.00352e-05 0)
(0 -7.66107e-05 0)
(0 -7.79348e-05 0)
(0 -7.30687e-05 0)
(0 -7.1312e-05 0)
(0 -6.81862e-05 0)
(0 -6.94304e-05 0)
(0 -6.49267e-05 0)
(0 -6.30359e-05 0)
(0 -6.01296e-05 0)
(0 -6.14766e-05 0)
(0 -5.73235e-05 0)
(0 -5.51639e-05 0)
(0 -5.26715e-05 0)
(0 -1.26724e-05 0)
(0 -1.35466e-05 0)
(0 -4.93963e-05 0)
(0 -4.62105e-05 0)
(0 -4.90014e-05 0)
(0 -4.20011e-05 0)
(0 -3.86796e-05 0)
(0 -3.45525e-05 0)
(0 -3.70531e-05 0)
(0 -2.97698e-05 0)
(0 -2.65242e-05 0)
(0 -2.18962e-05 0)
(0 -2.46952e-05 0)
(0 -1.71929e-05 0)
(0 -1.41837e-05 0)
(0 -1.01367e-05 0)
(0 -1.31718e-05 0)
(0 -7.03427e-06 0)
(0 -1.04007e-05 0)
(0 -5.2225e-06 0)
(0 -8.77472e-06 0)
(0 -3.99184e-06 0)
(0 -9.04352e-07 0)
(0 7.89968e-07 0)
(0 -2.23894e-06 0)
(0 3.19756e-06 0)
(0 1.02872e-07 0)
(0 5.80754e-06 0)
(0 2.73155e-06 0)
(0 8.57307e-06 0)
(0 1.15683e-05 0)
(0 1.47102e-05 0)
(0 1.15133e-05 0)
(0 1.78326e-05 0)
(0 1.40229e-05 0)
(0 2.00468e-05 0)
(0 1.53914e-05 0)
(0 2.10091e-05 0)
(0 2.55224e-05 0)
(0 2.56248e-05 0)
(0 2.04854e-05 0)
(0 2.40725e-05 0)
(0 1.87147e-05 0)
(0 2.14077e-05 0)
(0 2.64429e-05 0)
(0 2.3203e-05 0)
(0 1.84229e-05 0)
(0 2.00687e-05 0)
(0 1.56982e-05 0)
(0 1.74729e-05 0)
(0 2.12715e-05 0)
(0 1.93141e-05 0)
(0 1.56727e-05 0)
(0 1.80472e-05 0)
(0 1.45516e-05 0)
(0 1.71909e-05 0)
(0 2.02207e-05 0)
(0 1.39401e-05 0)
(0 1.69464e-05 0)
(0 1.37807e-05 0)
(0 1.74307e-05 0)
(0 1.43241e-05 0)
(0 1.86439e-05 0)
(0 1.56257e-05 0)
(0 2.05719e-05 0)
(0 1.73639e-05 0)
(0 2.29895e-05 0)
(0 2.30525e-05 0)
(0 1.97891e-05 0)
(0 -7.05345e-05 0)
(0 -6.94802e-05 0)
(0 -7.25162e-05 0)
(0 -6.80471e-05 0)
(0 -7.29697e-05 0)
(0 -6.91404e-05 0)
(0 -7.41518e-05 0)
(0 -7.03461e-05 0)
(0 -7.53728e-05 0)
(0 -7.13842e-05 0)
(0 -7.64147e-05 0)
(0 -7.22719e-05 0)
(0 2.60346e-05 0)
(0 2.29818e-05 0)
(0 1.08135e-05 0)
(0 -7.73999e-05 0)
(0 -7.33318e-05 0)
(0 2.9084e-05 0)
(0 2.58776e-05 0)
(0 -1.15681e-05 0)
(0 1.34184e-05 0)
(0 -8.08527e-05 0)
(0 -7.8344e-05 0)
(0 -7.42161e-05 0)
(0 3.15633e-05 0)
(0 3.43532e-05 0)
(0 2.79021e-05 0)
(0 -8.77677e-06 0)
(0 -7.91828e-05 0)
(0 -7.49503e-05 0)
(0 -1.06098e-05 0)
(0 -6.97119e-06 0)
(0 -3.96064e-05 0)
(0 7.64197e-07 0)
(0 1.0971e-06 0)
(0 9.1069e-07 0)
(0 1.20915e-06 0)
(0 1.03634e-06 0)
(0 1.31307e-06 0)
(0 1.13925e-06 0)
(0 1.40005e-06 0)
(0 1.21786e-06 0)
(0 1.46439e-06 0)
(0 9.48493e-07 0)
(0 1.27559e-06 0)
(0 1.51131e-06 0)
(0 3.62076e-05 0)
(0 3.83709e-05 0)
(0 3.93151e-07 0)
(0 -7.99629e-05 0)
(0 -7.553e-05 0)
(0 -3.84763e-05 0)
(0 1.31758e-06 0)
(0 1.53069e-06 0)
(0 7.25641e-06 0)
(0 -8.05106e-06 0)
(0 -3.98266e-06 0)
(0 -7.0989e-05 0)
(0 -7.14292e-05 0)
(0 -7.61468e-05 0)
(0 -7.19279e-05 0)
(0 3.98135e-05 0)
(0 4.10868e-05 0)
(0 1.36159e-06 0)
(0 -2.53663e-05 0)
(0 1.32687e-06 0)
(0 1.52091e-06 0)
(0 -3.68437e-05 0)
(0 -3.71603e-05 0)
(0 -3.88843e-05 0)
(0 -3.74904e-05 0)
(0 -6.75421e-05 0)
(0 -6.79225e-05 0)
(0 -3.56608e-05 0)
(0 -3.58747e-05 0)
(0 -7.25594e-05 0)
(0 -6.83411e-05 0)
(0 -8.47424e-05 0)
(0 1.30047e-06 0)
(0 1.49122e-06 0)
(0 1.0915e-06 0)
(0 -6.39117e-05 0)
(0 -6.42077e-05 0)
(0 -3.93858e-05 0)
(0 -3.39813e-05 0)
(0 -3.42665e-05 0)
(0 -6.88225e-05 0)
(0 -6.46662e-05 0)
(0 -6.02137e-05 0)
(0 -6.0694e-05 0)
(0 -5.64391e-05 0)
(0 -5.68865e-05 0)
(0 -4.62565e-06 0)
(0 -2.82211e-07 0)
(0 4.27723e-05 0)
(0 4.32483e-05 0)
(0 -5.2913e-05 0)
(0 -5.34451e-05 0)
(0 -4.96392e-05 0)
(0 -5.03159e-05 0)
(0 -4.65416e-05 0)
(0 -4.72488e-05 0)
(0 -4.35884e-05 0)
(0 -4.43273e-05 0)
(0 -4.08571e-05 0)
(0 -4.16321e-05 0)
(0 -3.83417e-05 0)
(0 -3.91644e-05 0)
(0 -4.24604e-05 0)
(0 -4.00125e-05 0)
(0 -3.69275e-05 0)
(0 -3.77864e-05 0)
(0 -3.48909e-05 0)
(0 -3.57698e-05 0)
(0 -3.30069e-05 0)
(0 -3.39185e-05 0)
(0 -3.12403e-05 0)
(0 -3.21401e-05 0)
(0 -2.95645e-05 0)
(0 -3.05039e-05 0)
(0 -2.79889e-05 0)
(0 -2.89548e-05 0)
(0 -2.65357e-05 0)
(0 -2.75541e-05 0)
(0 -2.52524e-05 0)
(0 -2.63572e-05 0)
(0 -2.4176e-05 0)
(0 -2.53008e-05 0)
(0 -2.32487e-05 0)
(0 -2.43855e-05 0)
(0 -2.24047e-05 0)
(0 -2.34827e-05 0)
(0 -2.15572e-05 0)
(0 -2.25956e-05 0)
(0 -2.08058e-05 0)
(0 -2.19524e-05 0)
(0 -2.02477e-05 0)
(0 -2.15041e-05 0)
(0 -2.35199e-05 0)
(0 -2.28972e-05 0)
(0 -2.11071e-05 0)
(0 -2.24564e-05 0)
(0 -2.07965e-05 0)
(0 -2.20839e-05 0)
(0 -2.05105e-05 0)
(0 -2.17817e-05 0)
(0 -2.03002e-05 0)
(0 -2.15763e-05 0)
(0 -2.0191e-05 0)
(0 -2.14734e-05 0)
(0 -2.01435e-05 0)
(0 -2.14328e-05 0)
(0 -2.62947e-05 0)
(0 -2.27792e-05 0)
(0 -2.27442e-05 0)
(0 -2.14545e-05 0)
(0 -2.28195e-05 0)
(0 -2.16068e-05 0)
(0 -2.30787e-05 0)
(0 -2.19361e-05 0)
(0 -2.35011e-05 0)
(0 -2.23923e-05 0)
(0 -2.402e-05 0)
(0 -2.4351e-05 0)
(0 -2.289e-05 0)
(0 -2.45839e-05 0)
(0 -2.33679e-05 0)
(0 -2.50142e-05 0)
(0 -2.37763e-05 0)
(0 -2.53325e-05 0)
(0 -2.41612e-05 0)
(0 -3.17491e-05 0)
(0 -2.57621e-05 0)
(0 -2.46564e-05 0)
(0 -2.63261e-05 0)
(0 -2.52795e-05 0)
(0 -2.458e-05 0)
(0 -2.70396e-05 0)
(0 -2.606e-05 0)
(0 -5.4422e-05 0)
(0 1.25715e-06 0)
(0 1.44297e-06 0)
(0 -3.86639e-05 0)
(0 1.65532e-06 0)
(0 1.607e-06 0)
(0 1.37594e-06 0)
(0 1.54024e-06 0)
(0 1.7833e-06 0)
(0 1.68426e-06 0)
(0 1.4514e-06 0)
(0 1.58525e-06 0)
(0 1.79386e-06 0)
(0 1.69867e-06 0)
(0 1.88192e-06 0)
(0 1.79455e-06 0)
(0 1.95969e-06 0)
(0 1.87772e-06 0)
(0 2.0292e-06 0)
(0 1.94926e-06 0)
(0 2.08626e-06 0)
(0 2.00678e-06 0)
(0 2.13275e-06 0)
(0 2.05346e-06 0)
(0 1.91109e-06 0)
(0 1.95948e-06 0)
(0 2.09207e-06 0)
(0 2.00593e-06 0)
(0 2.12585e-06 0)
(0 2.04019e-06 0)
(0 2.15389e-06 0)
(0 2.06923e-06 0)
(0 2.17814e-06 0)
(0 2.09944e-06 0)
(0 2.20106e-06 0)
(0 2.12495e-06 0)
(0 2.21972e-06 0)
(0 2.14455e-06 0)
(0 2.03671e-06 0)
(0 2.05672e-06 0)
(0 2.16005e-06 0)
(0 2.07078e-06 0)
(0 2.17339e-06 0)
(0 2.08422e-06 0)
(0 2.18301e-06 0)
(0 2.09692e-06 0)
(0 2.19042e-06 0)
(0 2.10785e-06 0)
(0 2.00223e-06 0)
(0 2.01845e-06 0)
(0 2.11895e-06 0)
(0 2.03058e-06 0)
(0 2.1275e-06 0)
(0 2.03589e-06 0)
(0 2.13283e-06 0)
(0 2.03936e-06 0)
(0 1.93384e-06 0)
(0 1.93707e-06 0)
(0 2.04388e-06 0)
(0 1.94196e-06 0)
(0 2.04954e-06 0)
(0 1.95112e-06 0)
(0 2.05799e-06 0)
(0 1.96208e-06 0)
(0 2.06749e-06 0)
(0 1.9725e-06 0)
(0 2.0783e-06 0)
(0 1.98438e-06 0)
(0 1.8648e-06 0)
(0 1.87875e-06 0)
(0 1.82557e-06 0)
(0 1.99961e-06 0)
(0 1.89606e-06 0)
(0 2.01573e-06 0)
(0 1.91203e-06 0)
(0 2.03014e-06 0)
(0 1.92658e-06 0)
(0 1.79221e-06 0)
(0 1.80751e-06 0)
(0 1.93966e-06 0)
(0 1.82198e-06 0)
(0 1.95157e-06 0)
(0 1.83457e-06 0)
(0 1.96213e-06 0)
(0 1.84502e-06 0)
(0 1.7002e-06 0)
(0 1.71109e-06 0)
(0 1.85326e-06 0)
(0 1.7189e-06 0)
(0 1.85901e-06 0)
(0 1.72335e-06 0)
(0 1.86292e-06 0)
(0 1.7265e-06 0)
(0 1.56603e-06 0)
(0 1.56912e-06 0)
(0 1.73026e-06 0)
(0 1.57288e-06 0)
(0 1.7377e-06 0)
(0 1.57768e-06 0)
(0 1.39191e-06 0)
(0 1.39683e-06 0)
(0 1.58442e-06 0)
(0 1.40494e-06 0)
(0 1.59252e-06 0)
(0 1.41424e-06 0)
(0 1.60206e-06 0)
(0 1.42299e-06 0)
(0 1.61251e-06 0)
(0 1.43116e-06 0)
(0 1.21655e-06 0)
(0 1.22234e-06 0)
(0 1.44003e-06 0)
(0 1.23112e-06 0)
(0 9.84939e-07 0)
(0 9.93376e-07 0)
(0 1.2392e-06 0)
(0 9.96739e-07 0)
(0 1.24284e-06 0)
(0 9.96749e-07 0)
(0 1.24392e-06 0)
(0 9.9832e-07 0)
(0 1.2345e-06 0)
(0 1.00063e-06 0)
(0 1.23766e-06 0)
(0 1.00453e-06 0)
(0 7.15146e-07 0)
(0 1.25232e-06 0)
(0 1.00773e-06 0)
(0 1.25538e-06 0)
(0 1.00746e-06 0)
(0 1.18608e-06 0)
(0 1.26552e-06 0)
(0 1.00722e-06 0)
(0 7.23105e-07 0)
(0 7.17528e-07 0)
(0 1.00455e-06 0)
(0 7.11815e-07 0)
(0 1.00106e-06 0)
(0 7.05697e-07 0)
(0 3.89663e-07 0)
(0 3.76449e-07 0)
(0 7.00191e-07 0)
(0 3.59276e-07 0)
(0 6.90714e-07 0)
(0 3.49267e-07 0)
(0 6.80911e-07 0)
(0 3.50113e-07 0)
(0 6.73615e-07 0)
(0 3.42206e-07 0)
(0 6.67885e-07 0)
(0 3.19402e-07 0)
(0 -1.19758e-08 0)
(0 6.65299e-07 0)
(0 3.06423e-07 0)
(0 -4.47726e-08 0)
(0 6.65718e-07 0)
(0 2.92678e-07 0)
(0 6.59131e-07 0)
(0 2.77687e-07 0)
(0 6.45729e-07 0)
(0 2.61691e-07 0)
(0 -1.50449e-07 0)
(0 -1.74298e-07 0)
(0 2.44502e-07 0)
(0 -2.01249e-07 0)
(0 2.24365e-07 0)
(0 -2.36114e-07 0)
(0 1.98535e-07 0)
(0 -2.78015e-07 0)
(0 -7.68981e-07 0)
(0 -8.2689e-07 0)
(0 -3.26573e-07 0)
(0 -8.92795e-07 0)
(0 -3.86478e-07 0)
(0 -9.74967e-07 0)
(0 -4.5897e-07 0)
(0 -1.07267e-06 0)
(0 -5.33194e-07 0)
(0 -1.37313e-06 0)
(0 -1.16793e-06 0)
(0 -6.33606e-07 0)
(0 -1.29619e-06 0)
(0 -7.61741e-07 0)
(0 1.47436e-06 0)
(0 -1.46439e-06 0)
(0 -8.91573e-07 0)
(0 9.52353e-07 0)
(0 1.48001e-06 0)
(0 1.76829e-06 0)
(0 1.93227e-06 0)
(0 -1.64156e-06 0)
(0 -1.04662e-06 0)
(0 -1.78359e-06 0)
(0 1.03392e-06 0)
(0 -1.8341e-06 0)
(0 -1.1453e-06 0)
(0 -2.49449e-06 0)
(0 1.87212e-06 0)
(0 8.64832e-09 0)
(0 2.16287e-06 0)
(0 -2.08196e-06 0)
(0 -1.50621e-06 0)
(0 -3.14471e-07 0)
(0 -2.40474e-06 0)
(0 -1.80974e-06 0)
(0 1.60555e-06 0)
(0 -9.53825e-07 0)
(0 -1.29645e-06 0)
(0 -2.17016e-06 0)
(0 -1.62445e-06 0)
(0 2.26749e-06 0)
(0 -2.60443e-06 0)
(0 -2.05278e-06 0)
(0 -1.11123e-06 0)
(0 -1.55056e-06 0)
(0 -2.58165e-06 0)
(0 -2.07669e-06 0)
(0 -1.1044e-06 0)
(0 -1.62798e-06 0)
(0 -7.16184e-07 0)
(0 -1.24318e-06 0)
(0 -2.24444e-06 0)
(0 -9.21927e-07 0)
(0 -6.61339e-07 0)
(0 -4.60977e-07 0)
(0 1.62689e-06 0)
(0 -3.23903e-05 0)
(0 -3.29175e-05 0)
(0 2.28425e-06 0)
(0 -2.79864e-05 0)
(0 -2.71102e-05 0)
(0 -6.93186e-05 0)
(0 2.2417e-06 0)
(0 -6.861e-05 0)
(0 -5.23252e-05 0)
(0 4.52477e-05 0)
(0 4.51137e-05 0)
(0 4.38873e-05 0)
(0 4.21942e-05 0)
(0 4.35278e-05 0)
(0 4.01553e-05 0)
(0 4.09784e-05 0)
(0 3.75184e-05 0)
(0 3.79426e-05 0)
(0 3.457e-05 0)
(0 3.46947e-05 0)
(0 3.12421e-05 0)
(0 3.13451e-05 0)
(0 2.81587e-05 0)
(0 2.87373e-05 0)
(0 2.63782e-05 0)
(0 2.73508e-05 0)
(0 2.61888e-05 0)
(0 2.7151e-05 0)
(0 2.71342e-05 0)
(0 2.57988e-05 0)
(0 2.79963e-05 0)
(0 2.73239e-05 0)
(0 2.58576e-05 0)
(0 2.76474e-05 0)
(0 2.64203e-05 0)
(0 2.82853e-05 0)
(0 2.72499e-05 0)
(0 -4.08287e-05 0)
(0 -4.20064e-05 0)
(0 2.0354e-06 0)
(0 -2.05193e-07 0)
(0 4.42816e-06 0)
(0 -3.10544e-05 0)
(0 -3.18655e-05 0)
(0 -3.36665e-05 0)
(0 -3.26894e-05 0)
(0 -3.04677e-05 0)
(0 -3.44238e-05 0)
(0 -3.33058e-05 0)
(0 -3.15403e-05 0)
(0 -3.20359e-05 0)
(0 -3.02422e-05 0)
(0 -3.07812e-05 0)
(0 -3.26241e-05 0)
(0 -3.15138e-05 0)
(0 -2.95393e-05 0)
(0 -3.04509e-05 0)
(0 6.08918e-07 0)
(0 -2.66764e-05 0)
(0 2.21381e-06 0)
(0 2.11997e-06 0)
(0 1.98113e-06 0)
(0 1.90643e-06 0)
(0 1.65581e-06 0)
(0 -2.91786e-05 0)
(0 -2.83695e-05 0)
(0 1.54549e-06 0)
(0 7.17842e-07 0)
(0 -2.83923e-05 0)
(0 9.89497e-06 0)
(0 2.1734e-05 0)
(0 -2.83556e-06 0)
(0 -3.75585e-05 0)
(0 -3.65135e-05 0)
(0 -3.75742e-05 0)
(0 -3.61921e-05 0)
(0 -3.73314e-05 0)
(0 -3.55814e-05 0)
(0 -3.67726e-05 0)
(0 -3.48003e-05 0)
(0 -3.59448e-05 0)
(0 -3.36785e-05 0)
(0 -1.38186e-05 0)
(0 -3.29127e-05 0)
(0 -3.19974e-05 0)
(0 2.90449e-05 0)
(0 2.77628e-05 0)
(0 -7.34304e-06 0)
(0 3.62824e-06 0)
(0 1.74999e-05 0)
(0 2.95622e-05 0)
(0 -1.88746e-05 0)
(0 -2.41201e-05 0)
(0 -3.2564e-05 0)
(0 -3.168e-05 0)
(0 4.34892e-06 0)
(0 9.41627e-06 0)
(0 -2.8107e-05 0)
(0 -3.96871e-05 0)
(0 -3.58138e-06 0)
(0 -3.70846e-05 0)
(0 -3.44397e-05 0)
(0 -3.05333e-05 0)
(0 4.65835e-05 0)
(0 4.47591e-05 0)
(0 4.42524e-05 0)
(0 2.92885e-05 0)
(0 2.78887e-05 0)
(0 -2.07932e-05 0)
(0 2.19903e-06 0)
(0 -3.1268e-05 0)
(0 -3.02921e-05 0)
(0 -4.89396e-05 0)
(0 4.95067e-06 0)
(0 4.43341e-07 0)
(0 -3.03169e-05 0)
(0 -2.12575e-05 0)
(0 -2.42352e-05 0)
(0 1.11354e-07 0)
(0 -1.90518e-05 0)
(0 -2.26437e-05 0)
(0 3.4373e-05 0)
(0 -7.35286e-06 0)
(0 2.96909e-05 0)
(0 2.81593e-05 0)
(0 -0.000191883 0)
(0 -5.01963e-05 0)
(0 2.6412e-05 0)
(0 2.6972e-05 0)
(0 2.87899e-05 0)
(0 2.83838e-05 0)
(0 -0.000192846 0)
(0 -0.000183574 0)
(0 -0.000182502 0)
(0 -0.000174575 0)
(0 4.71704e-05 0)
(0 4.4891e-05 0)
(0 -2.96691e-05 0)
(0 -3.18559e-05 0)
(0 -3.38936e-05 0)
(0 -2.92567e-05 0)
(0 -2.78798e-05 0)
(0 -3.04006e-05 0)
(0 -0.000175096 0)
(0 -0.00016662 0)
(0 -0.000165619 0)
(0 -0.000158101 0)
(0 2.79488e-05 0)
(0 -2.75356e-05 0)
(0 9.4386e-06 0)
(0 1.48028e-05 0)
(0 2.67666e-05 0)
(0 2.91267e-05 0)
(0 3.10319e-05 0)
(0 3.25377e-05 0)
(0 3.0675e-05 0)
(0 -3.80136e-05 0)
(0 -3.71044e-05 0)
(0 -3.94882e-05 0)
(0 -3.8408e-05 0)
(0 -4.10091e-05 0)
(0 -3.98647e-05 0)
(0 -4.2466e-05 0)
(0 -4.13039e-05 0)
(0 -4.40544e-05 0)
(0 -4.28872e-05 0)
(0 -4.60618e-05 0)
(0 -4.49502e-05 0)
(0 -4.85978e-05 0)
(0 -4.17748e-05 0)
(0 -4.77621e-05 0)
(0 -5.17996e-05 0)
(0 -5.13491e-05 0)
(0 -5.55723e-05 0)
(0 -8.46696e-07 0)
(0 -0.000158972 0)
(0 -0.000150636 0)
(0 -0.000149524 0)
(0 -0.000142203 0)
(0 2.54456e-05 0)
(0 5.0469e-06 0)
(0 5.00325e-07 0)
(0 3.05346e-05 0)
(0 3.43907e-05 0)
(0 3.67359e-05 0)
(0 3.86806e-05 0)
(0 4.11765e-05 0)
(0 4.25188e-05 0)
(0 3.92823e-05 0)
(0 4.1883e-05 0)
(0 4.53598e-05 0)
(0 4.34058e-05 0)
(0 -0.000143075 0)
(0 -0.00013476 0)
(0 -0.00013403 0)
(0 -0.000126925 0)
(0 -0.000126139 0)
(0 -0.000119473 0)
(0 -0.000120139 0)
(0 -0.000113237 0)
(0 -0.000113671 0)
(0 -0.000107328 0)
(0 -0.000106896 0)
(0 -0.000107466 0)
(0 -5.5865e-05 0)
(0 -4.28656e-05 0)
(0 4.74468e-05 0)
(0 4.45019e-05 0)
(0 -5.53478e-05 0)
(0 -2.87078e-05 0)
(0 -3.3185e-05 0)
(0 -2.4282e-05 0)
(0 4.67245e-05 0)
(0 4.4145e-05 0)
(0 -2.62504e-05 0)
(0 -2.44281e-05 0)
(0 -5.10669e-05 0)
(0 -0.000101492 0)
(0 -0.000100989 0)
(0 -2.65848e-05 0)
(0 -3.13995e-05 0)
(0 4.09282e-06 0)
(0 -3.53637e-05 0)
(0 -3.61059e-05 0)
(0 4.10169e-05 0)
(0 4.14177e-06 0)
(0 -4.5947e-07 0)
(0 2.0633e-06 0)
(0 -2.91608e-05 0)
(0 -2.84746e-05 0)
(0 -2.72344e-05 0)
(0 -2.64475e-05 0)
(0 -1.81253e-05 0)
(0 1.48422e-05 0)
(0 1.98926e-05 0)
(0 3.80937e-05 0)
(0 -3.48579e-05 0)
(0 -4.07192e-05 0)
(0 -0.000102393 0)
(0 3.12127e-05 0)
(0 4.87927e-05 0)
(0 4.55144e-05 0)