/*--------------------------------*- C++ -*----------------------------------*\
| =========                 |                                                 |
| \\      /  F ield         | OpenFOAM: The Open Source CFD Toolbox           |
|  \\    /   O peration     | Version:  v2012                                 |
|   \\  /    A nd           | Website:  www.openfoam.com                      |
|    \\/     M anipulation  |                                                 |
\*---------------------------------------------------------------------------*/
FoamFile
{
    version     2.0;
    format      ascii;
    class       volVectorField;
    location    "300";
    object      cellDisplacement;
}
// * * * * * * * * * * * * * * * * * * * * * * * * * * * * * * * * * * * * * //

dimensions      [0 1 0 0 0 0 0];


internalField   nonuniform List<vector> 
18758
(
(0 -0.000433163 0)
(0 -0.00034024 0)
(0 -2.72063e-05 0)
(0 -0.000431747 0)
(0 -0.000359495 0)
(0 -6.07493e-06 0)
(0 -0.000115676 0)
(0 -0.00011281 0)
(0 -0.000355281 0)
(0 -0.000345666 0)
(0 -0.000326775 0)
(0 -0.000542632 0)
(0 -0.000363844 0)
(0 -7.64968e-05 0)
(0 -0.000117009 0)
(0 -6.39269e-05 0)
(0 -0.000540974 0)
(0 -1.92254e-06 0)
(0 -0.000113564 0)
(0 -0.000183275 0)
(0 -0.000543211 0)
(0 -1.64616e-06 0)
(0 -5.36273e-06 0)
(0 -1.39248e-05 0)
(0 -1.44585e-06 0)
(0 -1.34643e-05 0)
(0 -0.000393494 0)
(0 -7.01095e-05 0)
(0 -2.8511e-05 0)
(0 -0.000349745 0)
(0 -0.000166968 0)
(0 -0.000388784 0)
(0 -0.000114078 0)
(0 -2.85063e-06 0)
(0 -0.000369519 0)
(0 -0.000345347 0)
(0 -0.000358995 0)
(0 -0.000365646 0)
(0 -0.000302911 0)
(0 -2.25733e-05 0)
(0 -0.000327739 0)
(0 -0.000334949 0)
(0 -0.000304856 0)
(0 -0.000440268 0)
(0 -3.25135e-05 0)
(0 -0.00016893 0)
(0 -0.000331497 0)
(0 -3.28812e-05 0)
(0 3.1803e-07 0)
(0 -0.000422314 0)
(0 -0.000325389 0)
(0 -1.66437e-05 0)
(0 -0.00042069 0)
(0 -0.000257882 0)
(0 -6.66395e-06 0)
(0 -0.000363916 0)
(0 -0.000309216 0)
(0 -0.00018513 0)
(0 -3.61723e-05 0)
(0 -0.000303743 0)
(0 -3.16846e-05 0)
(0 -0.00043714 0)
(0 -0.000260235 0)
(0 -7.53102e-05 0)
(0 -2.83461e-05 0)
(0 -2.98415e-07 0)
(0 -4.71989e-05 0)
(0 -0.000111862 0)
(0 -7.28447e-05 0)
(0 -3.87075e-06 0)
(0 -1.6957e-05 0)
(0 -1.3689e-05 0)
(0 -0.000167778 0)
(0 -0.000157642 0)
(0 -0.000156181 0)
(0 -0.00016256 0)
(0 -0.000225247 0)
(0 -0.000537522 0)
(0 -0.000349577 0)
(0 -0.000299408 0)
(0 -1.47054e-05 0)
(0 -0.000305727 0)
(0 -0.000537969 0)
(0 -0.000150049 0)
(0 -0.000461204 0)
(0 -7.90899e-06 0)
(0 -4.39997e-05 0)
(0 -0.000158748 0)
(0 -0.000260213 0)
(0 -7.74161e-06 0)
(0 -1.51786e-05 0)
(0 -1.59343e-05 0)
(0 -1.6907e-05 0)
(0 4.38412e-07 0)
(0 -0.000164426 0)
(0 -0.000172472 0)
(0 -1.55232e-05 0)
(0 -3.33642e-05 0)
(0 -0.000537987 0)
(0 -0.000233258 0)
(0 -0.00016434 0)
(0 -0.000194264 0)
(0 -0.000108934 0)
(0 -0.00016851 0)
(0 -6.29956e-07 0)
(0 -0.000543455 0)
(0 -3.10886e-05 0)
(0 -1.4852e-05 0)
(0 -0.000234365 0)
(0 -0.000487296 0)
(0 -5.5997e-05 0)
(0 -7.4311e-05 0)
(0 -0.000468922 0)
(0 -3.99889e-05 0)
(0 -0.000198169 0)
(0 -6.48889e-05 0)
(0 -3.51828e-05 0)
(0 -0.000273159 0)
(0 -5.99092e-05 0)
(0 -0.000471387 0)
(0 -5.10244e-05 0)
(0 -0.000227424 0)
(0 -0.000463167 0)
(0 -0.000311867 0)
(0 9.17797e-07 0)
(0 -0.000253421 0)
(0 -0.000425868 0)
(0 -0.000309448 0)
(0 -2.23256e-05 0)
(0 2.3171e-06 0)
(0 -3.41436e-05 0)
(0 -2.64615e-05 0)
(0 -9.25429e-05 0)
(0 -3.06968e-06 0)
(0 -1.92065e-05 0)
(0 -5.03195e-05 0)
(0 -0.000220377 0)
(0 -0.000462892 0)
(0 -4.83525e-05 0)
(0 -1.58318e-05 0)
(0 -0.000473356 0)
(0 -0.00046925 0)
(0 -3.27956e-05 0)
(0 -0.000233314 0)
(0 1.11202e-06 0)
(0 -2.12318e-05 0)
(0 -6.90338e-07 0)
(0 -2.25315e-05 0)
(0 -0.000331811 0)
(0 -3.96082e-05 0)
(0 2.27676e-06 0)
(0 2.12301e-06 0)
(0 -7.88828e-05 0)
(0 -0.000378114 0)
(0 -0.000323303 0)
(0 -0.000119351 0)
(0 -1.79606e-05 0)
(0 -2.13465e-05 0)
(0 -0.00016238 0)
(0 -0.000335336 0)
(0 -3.23167e-05 0)
(0 -0.000351639 0)
(0 1.5951e-06 0)
(0 -1.02707e-06 0)
(0 -0.000172524 0)
(0 -0.000295119 0)
(0 -0.000345952 0)
(0 -2.94799e-05 0)
(0 2.25311e-06 0)
(0 -0.000544798 0)
(0 2.09284e-06 0)
(0 -1.88165e-05 0)
(0 -2.82324e-05 0)
(0 -3.74926e-06 0)
(0 -0.000240465 0)
(0 -0.000291288 0)
(0 -0.000158261 0)
(0 -1.2069e-05 0)
(0 -3.4118e-06 0)
(0 -6.47118e-05 0)
(0 -8.43467e-05 0)
(0 -0.0002396 0)
(0 -7.43778e-06 0)
(0 -5.83709e-05 0)
(0 -4.13142e-05 0)
(0 -5.75738e-05 0)
(0 -0.000353292 0)
(0 -0.000248814 0)
(0 3.28054e-07 0)
(0 -0.0001711 0)
(0 2.20562e-06 0)
(0 -5.76391e-05 0)
(0 -7.25045e-05 0)
(0 -0.000209449 0)
(0 -5.13276e-05 0)
(0 -6.19338e-05 0)
(0 -4.89589e-05 0)
(0 -7.85468e-05 0)
(0 6.91229e-08 0)
(0 -2.15098e-05 0)
(0 -0.000387359 0)
(0 -2.12993e-05 0)
(0 -0.000171655 0)
(0 -4.88145e-05 0)
(0 -6.02999e-05 0)
(0 1.39884e-06 0)
(0 -0.000396405 0)
(0 -0.000374644 0)
(0 2.34132e-06 0)
(0 2.40402e-06 0)
(0 -1.56007e-05 0)
(0 -1.86231e-05 0)
(0 -0.000393139 0)
(0 -0.0004287 0)
(0 -0.000187654 0)
(0 -1.81306e-05 0)
(0 -1.04128e-05 0)
(0 -1.8863e-05 0)
(0 -7.93027e-06 0)
(0 -0.000336095 0)
(0 -0.00021106 0)
(0 -0.000375141 0)
(0 -3.44317e-05 0)
(0 -2.21994e-05 0)
(0 -0.00016917 0)
(0 -3.60944e-05 0)
(0 -0.000159519 0)
(0 -5.95212e-06 0)
(0 -3.06818e-05 0)
(0 -0.00039067 0)
(0 -1.44571e-05 0)
(0 -2.24295e-05 0)
(0 -0.000240811 0)
(0 -4.226e-05 0)
(0 -0.000104994 0)
(0 -0.000381765 0)
(0 -0.000129636 0)
(0 4.49659e-07 0)
(0 -4.96824e-05 0)
(0 -0.000122347 0)
(0 -6.38274e-05 0)
(0 -0.000130941 0)
(0 -4.81075e-05 0)
(0 -2.14957e-05 0)
(0 -3.92627e-05 0)
(0 -3.12108e-05 0)
(0 -9.74389e-05 0)
(0 -0.000199077 0)
(0 -0.000314217 0)
(0 -0.000239398 0)
(0 1.98673e-06 0)
(0 -0.000436807 0)
(0 -1.81356e-05 0)
(0 -0.000384393 0)
(0 -2.42842e-06 0)
(0 -4.49624e-05 0)
(0 -0.00029794 0)
(0 -1.37835e-05 0)
(0 -1.09729e-05 0)
(0 -0.000342938 0)
(0 -0.00046638 0)
(0 -0.000320943 0)
(0 -9.83705e-05 0)
(0 -7.41019e-05 0)
(0 -0.000119238 0)
(0 -0.000122757 0)
(0 -0.000327012 0)
(0 -4.67354e-05 0)
(0 -7.76023e-05 0)
(0 -0.000284741 0)
(0 -6.52973e-05 0)
(0 -9.94713e-06 0)
(0 -0.000279599 0)
(0 -0.00038098 0)
(0 -4.27566e-05 0)
(0 -0.000188428 0)
(0 -7.80572e-05 0)
(0 -8.49253e-06 0)
(0 -0.000432046 0)
(0 -7.84177e-05 0)
(0 -0.000189929 0)
(0 -2.53912e-05 0)
(0 -4.89948e-05 0)
(0 -1.46181e-06 0)
(0 -0.000113607 0)
(0 -0.000374863 0)
(0 -6.3791e-06 0)
(0 -4.65231e-05 0)
(0 -0.000183778 0)
(0 -0.00017457 0)
(0 -1.54706e-05 0)
(0 -6.96503e-05 0)
(0 -0.000309346 0)
(0 -3.12843e-05 0)
(0 -1.87368e-05 0)
(0 -0.000325896 0)
(0 -3.94602e-05 0)
(0 -1.07755e-05 0)
(0 -1.16937e-05 0)
(0 1.93482e-07 0)
(0 -5.85648e-05 0)
(0 -4.72224e-05 0)
(0 -4.94381e-05 0)
(0 -0.000283301 0)
(0 -0.000295106 0)
(0 -8.21296e-05 0)
(0 -0.000509225 0)
(0 -0.000544588 0)
(0 -0.000440071 0)
(0 -0.000369412 0)
(0 -4.93581e-05 0)
(0 -0.000126403 0)
(0 -4.71711e-05 0)
(0 -5.0015e-05 0)
(0 -2.75223e-05 0)
(0 -2.38405e-06 0)
(0 -0.000100617 0)
(0 -0.000274476 0)
(0 -2.23444e-05 0)
(0 -4.72535e-05 0)
(0 -5.14239e-05 0)
(0 -0.000158541 0)
(0 -4.20888e-05 0)
(0 -0.000149259 0)
(0 -0.000103471 0)
(0 2.38634e-06 0)
(0 -1.58862e-05 0)
(0 -0.000310854 0)
(0 8.00291e-07 0)
(0 -0.000129047 0)
(0 -0.000485 0)
(0 -3.68024e-06 0)
(0 -0.00014218 0)
(0 -0.000299781 0)
(0 -1.18184e-05 0)
(0 -4.47765e-05 0)
(0 -0.000220592 0)
(0 -0.000390543 0)
(0 -0.000109794 0)
(0 -0.00040314 0)
(0 -0.00021699 0)
(0 -0.000116638 0)
(0 -9.58654e-05 0)
(0 -0.000282976 0)
(0 -0.000461186 0)
(0 -0.000279089 0)
(0 -0.000536092 0)
(0 -0.000302513 0)
(0 -3.96151e-05 0)
(0 -0.000293348 0)
(0 -6.22931e-07 0)
(0 -0.000463019 0)
(0 -6.08636e-05 0)
(0 -5.39469e-05 0)
(0 1.26192e-06 0)
(0 -0.000333211 0)
(0 -0.000271733 0)
(0 -0.000115524 0)
(0 -0.000486442 0)
(0 -0.000424722 0)
(0 -0.000436739 0)
(0 -4.79333e-05 0)
(0 -0.000213712 0)
(0 -0.000456547 0)
(0 -0.000162312 0)
(0 -0.000211327 0)
(0 -0.000105322 0)
(0 -5.26549e-05 0)
(0 -0.00023818 0)
(0 -3.5928e-05 0)
(0 5.64471e-07 0)
(0 -6.24997e-05 0)
(0 -0.000246953 0)
(0 -0.000102543 0)
(0 -0.000330042 0)
(0 -6.25928e-05 0)
(0 -1.68967e-06 0)
(0 -2.64663e-07 0)
(0 -2.16151e-05 0)
(0 -0.000311168 0)
(0 -0.000453023 0)
(0 -5.87825e-05 0)
(0 -1.33174e-05 0)
(0 -1.323e-06 0)
(0 -0.000459399 0)
(0 -0.000518134 0)
(0 -6.68391e-05 0)
(0 1.00543e-06 0)
(0 -0.000119862 0)
(0 -0.000543411 0)
(0 -0.00049022 0)
(0 -6.30164e-05 0)
(0 -8.35519e-05 0)
(0 -0.000201675 0)
(0 -0.000449432 0)
(0 -4.90645e-05 0)
(0 -0.000423411 0)
(0 -6.16677e-05 0)
(0 -1.81077e-05 0)
(0 -2.33325e-05 0)
(0 -0.000305376 0)
(0 -0.000111844 0)
(0 -0.000316978 0)
(0 -4.01292e-05 0)
(0 -0.000185066 0)
(0 -0.000183834 0)
(0 1.12451e-06 0)
(0 -0.000319567 0)
(0 -2.65943e-05 0)
(0 -0.000320487 0)
(0 -1.14095e-05 0)
(0 -0.000307977 0)
(0 -8.54834e-05 0)
(0 -0.000127972 0)
(0 -0.000230672 0)
(0 -3.78776e-05 0)
(0 -0.000494208 0)
(0 -0.000302602 0)
(0 -9.78274e-05 0)
(0 -3.2802e-05 0)
(0 -5.83363e-05 0)
(0 -6.80357e-05 0)
(0 -2.15338e-07 0)
(0 -0.000122924 0)
(0 -0.000465581 0)
(0 -1.98458e-05 0)
(0 -3.61277e-06 0)
(0 -1.62108e-05 0)
(0 -7.42249e-06 0)
(0 -0.000446355 0)
(0 -1.37426e-05 0)
(0 -0.000246856 0)
(0 -1.53083e-05 0)
(0 -3.27322e-05 0)
(0 -0.000167799 0)
(0 -3.86499e-05 0)
(0 -0.000125071 0)
(0 -0.000155181 0)
(0 -0.000122563 0)
(0 -0.000113998 0)
(0 -7.08108e-05 0)
(0 -0.000284536 0)
(0 -2.09389e-06 0)
(0 -1.33508e-07 0)
(0 -6.56664e-05 0)
(0 -0.000394261 0)
(0 -6.20773e-06 0)
(0 -1.16508e-05 0)
(0 -0.000171681 0)
(0 -2.22285e-06 0)
(0 -0.000115464 0)
(0 -2.57016e-05 0)
(0 -6.34364e-05 0)
(0 -0.000331408 0)
(0 -6.0334e-05 0)
(0 5.72587e-07 0)
(0 -0.000300495 0)
(0 -6.49622e-06 0)
(0 -5.4238e-05 0)
(0 -0.000382819 0)
(0 -5.34903e-05 0)
(0 -3.94086e-05 0)
(0 -3.65529e-06 0)
(0 -0.000118939 0)
(0 -1.43596e-05 0)
(0 -8.73752e-05 0)
(0 -5.56147e-05 0)
(0 -0.000213053 0)
(0 -1.27242e-05 0)
(0 -0.000375465 0)
(0 -3.32938e-05 0)
(0 -0.000372277 0)
(0 -0.000257668 0)
(0 -2.75184e-05 0)
(0 -0.00012774 0)
(0 -0.000134599 0)
(0 -0.00011739 0)
(0 -0.000338392 0)
(0 -0.000512452 0)
(0 -0.000475342 0)
(0 -5.41393e-05 0)
(0 -0.000119847 0)
(0 -0.000206444 0)
(0 -9.60332e-06 0)
(0 -0.000203365 0)
(0 -4.36142e-06 0)
(0 -0.000388648 0)
(0 -2.77638e-05 0)
(0 -5.34918e-05 0)
(0 -1.51314e-05 0)
(0 -2.76762e-05 0)
(0 -2.42867e-05 0)
(0 -3.11988e-05 0)
(0 -0.000380866 0)
(0 -0.000509802 0)
(0 -0.000544267 0)
(0 -0.000397346 0)
(0 -0.000320166 0)
(0 -1.32856e-06 0)
(0 -4.20718e-05 0)
(0 -1.30575e-05 0)
(0 -1.22755e-05 0)
(0 -9.89415e-05 0)
(0 -1.38897e-05 0)
(0 -5.4254e-05 0)
(0 -1.34334e-05 0)
(0 -3.08019e-06 0)
(0 -0.000410898 0)
(0 -0.000305346 0)
(0 -0.000295023 0)
(0 -1.06806e-06 0)
(0 -5.08671e-06 0)
(0 -1.2475e-06 0)
(0 -3.65414e-05 0)
(0 -0.000182726 0)
(0 -1.61364e-05 0)
(0 -0.000407572 0)
(0 -0.000449144 0)
(0 -5.73862e-05 0)
(0 -0.000209275 0)
(0 -0.000282436 0)
(0 -1.03466e-05 0)
(0 -6.71576e-06 0)
(0 -0.000389027 0)
(0 -2.61913e-05 0)
(0 -0.000530206 0)
(0 -7.16354e-05 0)
(0 -0.000496777 0)
(0 -0.000217575 0)
(0 -5.15674e-06 0)
(0 -7.37844e-05 0)
(0 -1.99826e-05 0)
(0 -6.41712e-05 0)
(0 -0.000224779 0)
(0 -0.000282022 0)
(0 -0.000229009 0)
(0 -0.000168389 0)
(0 -0.000107505 0)
(0 -0.000137728 0)
(0 -0.000388843 0)
(0 -0.000299829 0)
(0 -0.00031979 0)
(0 -9.17096e-05 0)
(0 -9.06513e-05 0)
(0 -2.21373e-06 0)
(0 -3.92682e-05 0)
(0 -0.000179564 0)
(0 -0.000382848 0)
(0 -7.0855e-05 0)
(0 -2.77445e-05 0)
(0 -7.24239e-05 0)
(0 -1.60181e-05 0)
(0 -3.35233e-06 0)
(0 -5.62193e-05 0)
(0 -0.000366982 0)
(0 -0.000382883 0)
(0 -0.000199803 0)
(0 -5.92831e-05 0)
(0 -3.69992e-05 0)
(0 -0.000222721 0)
(0 -2.17962e-05 0)
(0 -0.000105413 0)
(0 -1.17382e-05 0)
(0 -0.0004744 0)
(0 -0.000428282 0)
(0 -0.000263037 0)
(0 -1.76196e-05 0)
(0 -0.000131748 0)
(0 -0.000468589 0)
(0 -0.000486968 0)
(0 -0.00030603 0)
(0 -6.73618e-05 0)
(0 -0.000479487 0)
(0 -0.000264975 0)
(0 -3.82356e-05 0)
(0 -0.000429938 0)
(0 -1.83224e-05 0)
(0 -2.26069e-05 0)
(0 -7.64771e-06 0)
(0 -6.99687e-06 0)
(0 -0.000486879 0)
(0 -2.93976e-05 0)
(0 -6.24139e-05 0)
(0 -0.000166574 0)
(0 -4.47098e-05 0)
(0 -6.88929e-05 0)
(0 5.99898e-08 0)
(0 -0.000268978 0)
(0 -0.000398094 0)
(0 -0.000282012 0)
(0 -3.3703e-05 0)
(0 -2.50627e-05 0)
(0 -0.000150974 0)
(0 -0.0001288 0)
(0 -0.000228934 0)
(0 -0.000285878 0)
(0 -0.000336676 0)
(0 -0.000482298 0)
(0 -0.000369991 0)
(0 -0.000221455 0)
(0 9.71903e-08 0)
(0 -4.38842e-05 0)
(0 -1.46054e-05 0)
(0 -0.000203322 0)
(0 -0.000411091 0)
(0 -0.000169693 0)
(0 -9.67751e-05 0)
(0 -0.000400316 0)
(0 -6.00813e-05 0)
(0 -0.000469075 0)
(0 -8.96262e-05 0)
(0 -0.000295854 0)
(0 -7.04272e-05 0)
(0 -0.000512576 0)
(0 -6.15701e-05 0)
(0 6.77785e-07 0)
(0 -9.0611e-05 0)
(0 -0.000495726 0)
(0 -0.000297193 0)
(0 -0.000408605 0)
(0 -4.06639e-05 0)
(0 -3.58537e-05 0)
(0 -0.000304722 0)
(0 -7.41346e-05 0)
(0 -0.000276415 0)
(0 -8.90223e-05 0)
(0 -0.000281799 0)
(0 -1.42673e-05 0)
(0 -0.000485609 0)
(0 -0.000496986 0)
(0 -0.000379244 0)
(0 -0.000209725 0)
(0 -0.00017171 0)
(0 -0.000499813 0)
(0 -8.57088e-07 0)
(0 -2.81642e-05 0)
(0 -3.67688e-05 0)
(0 2.16303e-06 0)
(0 -1.77735e-06 0)
(0 -9.85142e-06 0)
(0 -4.13891e-06 0)
(0 -0.000153703 0)
(0 -0.000381338 0)
(0 -4.14376e-05 0)
(0 -0.000287866 0)
(0 -0.000269228 0)
(0 -1.85257e-05 0)
(0 -4.32977e-05 0)
(0 -6.25245e-06 0)
(0 -8.84291e-05 0)
(0 -0.00044629 0)
(0 -0.000190683 0)
(0 -0.000446466 0)
(0 -0.000279889 0)
(0 -2.38868e-05 0)
(0 -0.00052039 0)
(0 -0.000430496 0)
(0 -0.000373397 0)
(0 -6.07649e-05 0)
(0 -1.84092e-05 0)
(0 -6.19612e-05 0)
(0 -0.000529045 0)
(0 -0.000275087 0)
(0 -0.000224601 0)
(0 -0.00045762 0)
(0 -0.000434989 0)
(0 -0.000220331 0)
(0 -7.43851e-06 0)
(0 -7.73611e-06 0)
(0 -0.000117597 0)
(0 -0.000130182 0)
(0 -0.000387059 0)
(0 -7.19845e-05 0)
(0 -4.51288e-08 0)
(0 8.57142e-07 0)
(0 -0.00027228 0)
(0 -0.000390625 0)
(0 -0.000545498 0)
(0 -6.3229e-05 0)
(0 -0.000194148 0)
(0 -0.000258495 0)
(0 -6.28002e-05 0)
(0 -8.01727e-05 0)
(0 -0.000534857 0)
(0 -1.98286e-05 0)
(0 -3.73499e-05 0)
(0 -2.75355e-05 0)
(0 -5.62709e-05 0)
(0 -6.43384e-05 0)
(0 -0.000227256 0)
(0 -0.000393249 0)
(0 -0.000174141 0)
(0 -0.000198653 0)
(0 -5.40958e-05 0)
(0 -0.000112155 0)
(0 -0.000326535 0)
(0 -0.000253278 0)
(0 -0.000146654 0)
(0 -0.000390073 0)
(0 -6.40358e-05 0)
(0 -0.000378184 0)
(0 -0.000289055 0)
(0 -4.68751e-05 0)
(0 -5.73626e-05 0)
(0 -1.8518e-05 0)
(0 -5.39692e-05 0)
(0 -0.000284885 0)
(0 -4.15333e-05 0)
(0 -0.000167081 0)
(0 -0.000430079 0)
(0 -0.000442668 0)
(0 -1.61108e-05 0)
(0 -1.23509e-05 0)
(0 -4.96771e-05 0)
(0 -0.000269864 0)
(0 -7.32942e-05 0)
(0 -0.000251041 0)
(0 -0.000384301 0)
(0 -5.64046e-05 0)
(0 -0.000181246 0)
(0 -8.8277e-05 0)
(0 -0.000302042 0)
(0 -4.79992e-05 0)
(0 -3.10192e-05 0)
(0 -5.91316e-05 0)
(0 -2.3264e-05 0)
(0 -2.14097e-05 0)
(0 -6.55969e-05 0)
(0 -1.60107e-05 0)
(0 -2.2246e-05 0)
(0 -0.000481058 0)
(0 -0.000173923 0)
(0 -6.9144e-05 0)
(0 -5.43324e-05 0)
(0 -0.000491016 0)
(0 -0.000314322 0)
(0 -7.74685e-06 0)
(0 -0.000439022 0)
(0 -9.814e-05 0)
(0 -0.000258495 0)
(0 -0.000255987 0)
(0 -9.79333e-05 0)
(0 -8.39783e-06 0)
(0 -0.000449706 0)
(0 -5.93961e-05 0)
(0 -0.000191563 0)
(0 -0.000119272 0)
(0 -0.000285778 0)
(0 -4.77878e-05 0)
(0 -0.000330766 0)
(0 -7.00253e-06 0)
(0 -0.000375999 0)
(0 -0.000276918 0)
(0 -0.000100752 0)
(0 -7.29353e-05 0)
(0 -0.000100437 0)
(0 -0.000505711 0)
(0 -0.000196266 0)
(0 -0.000513857 0)
(0 -9.96115e-05 0)
(0 -0.000274867 0)
(0 -4.0486e-05 0)
(0 -0.00053869 0)
(0 -6.37431e-05 0)
(0 -3.4968e-05 0)
(0 -0.000278966 0)
(0 -4.05761e-05 0)
(0 -0.000431234 0)
(0 -8.08319e-05 0)
(0 -9.59187e-05 0)
(0 -5.82397e-05 0)
(0 -0.000267922 0)
(0 -5.50372e-05 0)
(0 -0.000293902 0)
(0 -3.85775e-05 0)
(0 -7.2553e-06 0)
(0 -2.46636e-06 0)
(0 -4.44793e-05 0)
(0 -5.64627e-05 0)
(0 -3.0321e-05 0)
(0 -0.00038393 0)
(0 -3.92675e-05 0)
(0 -9.5354e-06 0)
(0 -0.000302686 0)
(0 -0.0003219 0)
(0 -0.000515993 0)
(0 -0.000191004 0)
(0 -0.000150383 0)
(0 -0.000246198 0)
(0 -0.00015402 0)
(0 2.43267e-06 0)
(0 -0.000446033 0)
(0 -0.000372094 0)
(0 -7.12661e-05 0)
(0 -0.000139388 0)
(0 -0.000190672 0)
(0 -0.000448959 0)
(0 -0.000154396 0)
(0 -4.101e-05 0)
(0 -0.000373389 0)
(0 -5.90403e-05 0)
(0 -7.19836e-05 0)
(0 -0.000320544 0)
(0 -0.000228125 0)
(0 -3.02442e-05 0)
(0 -8.63474e-05 0)
(0 -9.20871e-05 0)
(0 -4.24922e-05 0)
(0 -0.00046993 0)
(0 -6.38951e-06 0)
(0 -0.000146105 0)
(0 -0.000244998 0)
(0 -0.000196917 0)
(0 -0.000372082 0)
(0 -8.63888e-05 0)
(0 -6.27714e-05 0)
(0 -4.6674e-05 0)
(0 -0.000111312 0)
(0 -7.27523e-05 0)
(0 -1.22861e-05 0)
(0 -0.00027886 0)
(0 -0.000224214 0)
(0 -0.000228241 0)
(0 -0.000104506 0)
(0 -0.000115657 0)
(0 -7.36403e-05 0)
(0 -1.13473e-05 0)
(0 -0.000437649 0)
(0 -0.000263069 0)
(0 -2.96382e-06 0)
(0 -0.000208327 0)
(0 -0.000491884 0)
(0 -4.12953e-05 0)
(0 -2.99591e-05 0)
(0 -2.49257e-05 0)
(0 -0.000427736 0)
(0 2.4191e-06 0)
(0 -0.000349553 0)
(0 -0.000188236 0)
(0 -3.93189e-05 0)
(0 -1.90547e-05 0)
(0 -3.96094e-06 0)
(0 -0.00014095 0)
(0 -0.000104415 0)
(0 -5.1362e-05 0)
(0 -0.000352915 0)
(0 -0.000125703 0)
(0 -2.55889e-05 0)
(0 -0.000485959 0)
(0 -4.54737e-05 0)
(0 -0.00017125 0)
(0 -3.45196e-05 0)
(0 -0.000350728 0)
(0 -0.000125677 0)
(0 -0.00036303 0)
(0 -7.01061e-05 0)
(0 -0.000158041 0)
(0 -0.000143783 0)
(0 -0.000485044 0)
(0 -2.57385e-06 0)
(0 -0.000115393 0)
(0 -0.000343713 0)
(0 -7.64366e-06 0)
(0 -0.000234126 0)
(0 -0.000399335 0)
(0 -0.000375631 0)
(0 -1.88583e-06 0)
(0 -0.000216767 0)
(0 -0.000236598 0)
(0 -3.18499e-05 0)
(0 -9.3956e-05 0)
(0 -0.000361847 0)
(0 -0.000125659 0)
(0 -9.14289e-06 0)
(0 -7.96342e-05 0)
(0 -3.9582e-05 0)
(0 -0.000359623 0)
(0 -0.000418494 0)
(0 -8.04173e-05 0)
(0 -0.000103457 0)
(0 -6.07445e-05 0)
(0 -7.82791e-05 0)
(0 -5.99248e-05 0)
(0 -5.67311e-05 0)
(0 -6.63673e-05 0)
(0 -0.000168518 0)
(0 -0.000297242 0)
(0 -0.000185916 0)
(0 -2.57029e-05 0)
(0 -3.57818e-05 0)
(0 -0.000471758 0)
(0 -7.19988e-05 0)
(0 -2.93367e-05 0)
(0 -0.000353071 0)
(0 -0.00014014 0)
(0 -0.000374926 0)
(0 -7.4178e-05 0)
(0 -0.000289505 0)
(0 -6.78637e-05 0)
(0 -0.000336451 0)
(0 -1.1998e-05 0)
(0 -4.66755e-05 0)
(0 -0.000285291 0)
(0 -0.000255986 0)
(0 -1.46003e-05 0)
(0 -2.4839e-05 0)
(0 -4.4661e-05 0)
(0 -0.000105827 0)
(0 -4.20689e-06 0)
(0 -8.69767e-05 0)
(0 -0.000309845 0)
(0 -5.78015e-05 0)
(0 -0.000272867 0)
(0 -9.73816e-05 0)
(0 -0.000383538 0)
(0 -0.000507265 0)
(0 -0.000395276 0)
(0 -9.28846e-05 0)
(0 -0.000176836 0)
(0 -9.15853e-06 0)
(0 -0.00036546 0)
(0 -0.00038831 0)
(0 -7.31126e-05 0)
(0 -0.000170585 0)
(0 -0.000512449 0)
(0 -4.59121e-05 0)
(0 -0.00053221 0)
(0 -0.000287798 0)
(0 -5.80668e-05 0)
(0 -6.54755e-05 0)
(0 -6.42202e-05 0)
(0 -2.94456e-05 0)
(0 -0.000302439 0)
(0 -7.68295e-05 0)
(0 -0.000256549 0)
(0 -0.000263017 0)
(0 -0.000131264 0)
(0 -9.48801e-05 0)
(0 -0.000205977 0)
(0 -0.000155359 0)
(0 -1.51225e-05 0)
(0 -0.000161802 0)
(0 -5.50951e-05 0)
(0 -0.000158201 0)
(0 -0.000237537 0)
(0 -0.000192906 0)
(0 1.12075e-06 0)
(0 -0.000417706 0)
(0 -0.000160497 0)
(0 -8.20576e-05 0)
(0 -0.00037878 0)
(0 -0.00019441 0)
(0 -7.46968e-05 0)
(0 -0.000519736 0)
(0 -1.83502e-05 0)
(0 -0.000549579 0)
(0 -4.11024e-05 0)
(0 -0.000346895 0)
(0 -0.000122804 0)
(0 -0.000109446 0)
(0 -0.000312912 0)
(0 -0.000550234 0)
(0 -2.26978e-06 0)
(0 -0.000141441 0)
(0 -0.000514069 0)
(0 -0.000314986 0)
(0 -2.58214e-05 0)
(0 -0.00045179 0)
(0 -0.000267493 0)
(0 1.87344e-06 0)
(0 -0.000174159 0)
(0 -3.38974e-05 0)
(0 1.9882e-06 0)
(0 -4.21381e-05 0)
(0 -3.45701e-05 0)
(0 -0.000483952 0)
(0 -0.000371794 0)
(0 -0.000402559 0)
(0 -0.00013403 0)
(0 -0.000383837 0)
(0 -0.000283633 0)
(0 -6.62751e-05 0)
(0 -0.000396135 0)
(0 -0.000204312 0)
(0 -7.3255e-06 0)
(0 -5.17169e-05 0)
(0 -5.20997e-05 0)
(0 -0.000137693 0)
(0 -0.000251083 0)
(0 -0.000268041 0)
(0 -0.000278754 0)
(0 -0.000448883 0)
(0 -3.93764e-05 0)
(0 -7.53464e-05 0)
(0 -0.000549858 0)
(0 -7.33554e-05 0)
(0 -7.51489e-06 0)
(0 -0.000278919 0)
(0 -8.3192e-05 0)
(0 -0.000142194 0)
(0 -0.000285685 0)
(0 -0.000141575 0)
(0 -0.000291201 0)
(0 -8.72118e-05 0)
(0 -0.000455879 0)
(0 -0.000147957 0)
(0 -6.83759e-05 0)
(0 -0.000303813 0)
(0 -9.95836e-05 0)
(0 -0.000544292 0)
(0 -2.81976e-05 0)
(0 -0.000550223 0)
(0 -1.28555e-06 0)
(0 -0.00053961 0)
(0 -6.18579e-05 0)
(0 -0.000343487 0)
(0 -0.000300437 0)
(0 -0.000313725 0)
(0 -9.09305e-05 0)
(0 -8.33314e-06 0)
(0 -5.46719e-06 0)
(0 -0.00052695 0)
(0 -0.000154501 0)
(0 -9.35814e-06 0)
(0 -4.80525e-05 0)
(0 -2.52966e-05 0)
(0 -0.000159492 0)
(0 -0.000219748 0)
(0 -0.000386697 0)
(0 -0.000542775 0)
(0 -0.000284049 0)
(0 -0.000191645 0)
(0 -0.000249819 0)
(0 -7.46884e-05 0)
(0 -6.91109e-05 0)
(0 -0.000452122 0)
(0 -0.000260404 0)
(0 -0.000159408 0)
(0 -0.000386886 0)
(0 -0.000302579 0)
(0 -0.000149001 0)
(0 -0.000335194 0)
(0 -0.000192461 0)
(0 -0.000140045 0)
(0 -0.000261997 0)
(0 -0.000287325 0)
(0 -4.86039e-06 0)
(0 -1.73346e-05 0)
(0 -2.44074e-05 0)
(0 -0.000259712 0)
(0 -0.000108274 0)
(0 -0.00038178 0)
(0 -0.000136587 0)
(0 -0.000206643 0)
(0 -0.000106607 0)
(0 1.41443e-06 0)
(0 -2.94516e-05 0)
(0 -0.000289135 0)
(0 -0.000309441 0)
(0 -0.000125272 0)
(0 -0.000503782 0)
(0 -0.000279435 0)
(0 -6.05339e-05 0)
(0 -0.000508999 0)
(0 -0.000458358 0)
(0 -0.000112021 0)
(0 1.70357e-06 0)
(0 -2.45147e-06 0)
(0 -0.000221956 0)
(0 -9.90879e-05 0)
(0 -7.85239e-05 0)
(0 -0.000546978 0)
(0 -0.000251978 0)
(0 -2.5221e-05 0)
(0 -5.77555e-05 0)
(0 -0.000276638 0)
(0 -3.6473e-05 0)
(0 -5.6272e-05 0)
(0 1.17684e-06 0)
(0 -5.24496e-05 0)
(0 -0.000375628 0)
(0 -0.000229357 0)
(0 -8.07002e-05 0)
(0 -0.000455186 0)
(0 -8.40357e-05 0)
(0 -5.44134e-05 0)
(0 -0.000255718 0)
(0 -0.000243547 0)
(0 -0.000383807 0)
(0 -9.46436e-05 0)
(0 -0.000265551 0)
(0 -0.000548179 0)
(0 -7.23197e-05 0)
(0 -9.07963e-05 0)
(0 -0.000519242 0)
(0 -5.20678e-05 0)
(0 -3.98105e-05 0)
(0 -1.70698e-05 0)
(0 -9.28726e-05 0)
(0 -0.000389183 0)
(0 -0.000464569 0)
(0 -2.41608e-05 0)
(0 -0.000546445 0)
(0 -0.00036616 0)
(0 -6.80785e-05 0)
(0 -1.83754e-05 0)
(0 -0.00037141 0)
(0 -6.93029e-05 0)
(0 -0.000520423 0)
(0 -0.000241503 0)
(0 -7.26474e-05 0)
(0 -1.62583e-05 0)
(0 -8.06694e-05 0)
(0 -9.2251e-05 0)
(0 -0.000379617 0)
(0 -0.000150682 0)
(0 -0.000108217 0)
(0 -2.48559e-05 0)
(0 -0.000108576 0)
(0 -0.000190711 0)
(0 -0.000381512 0)
(0 -2.41426e-05 0)
(0 -4.42584e-05 0)
(0 -0.000195961 0)
(0 -0.000233267 0)
(0 -4.86175e-05 0)
(0 -0.000514684 0)
(0 -6.61728e-05 0)
(0 -3.55676e-06 0)
(0 -0.00021292 0)
(0 -0.000230037 0)
(0 -4.9878e-05 0)
(0 -0.000472758 0)
(0 -0.000211095 0)
(0 -0.000101573 0)
(0 -0.000290682 0)
(0 -0.000399821 0)
(0 -0.000380515 0)
(0 -8.06288e-05 0)
(0 -0.000245657 0)
(0 -1.01909e-05 0)
(0 -4.10816e-05 0)
(0 -0.000126817 0)
(0 -0.000290913 0)
(0 -0.000518846 0)
(0 -9.07713e-05 0)
(0 -8.1967e-06 0)
(0 -0.000484169 0)
(0 -3.69266e-05 0)
(0 -0.000294461 0)
(0 1.61119e-06 0)
(0 -1.89627e-05 0)
(0 1.64091e-06 0)
(0 -1.00249e-05 0)
(0 -0.000132459 0)
(0 -0.000326477 0)
(0 -0.000311388 0)
(0 -3.22009e-05 0)
(0 -0.000244769 0)
(0 -2.9474e-06 0)
(0 -0.000175281 0)
(0 -0.000265298 0)
(0 -0.000187309 0)
(0 -0.000167701 0)
(0 -1.67935e-05 0)
(0 -0.000416011 0)
(0 -3.83384e-05 0)
(0 -0.000140966 0)
(0 -0.000345166 0)
(0 -1.95578e-05 0)
(0 -0.000547287 0)
(0 -0.00047852 0)
(0 -0.000459189 0)
(0 -8.21858e-05 0)
(0 -3.43199e-05 0)
(0 -3.42144e-05 0)
(0 -3.39929e-06 0)
(0 -7.43226e-05 0)
(0 -0.000175911 0)
(0 1.07909e-06 0)
(0 2.02171e-06 0)
(0 -8.85019e-05 0)
(0 -0.000119833 0)
(0 -5.67148e-05 0)
(0 1.24446e-06 0)
(0 -7.3529e-05 0)
(0 -0.000515642 0)
(0 -0.000486344 0)
(0 -0.000217689 0)
(0 -1.55947e-05 0)
(0 -3.0247e-05 0)
(0 -8.30698e-05 0)
(0 -0.000165719 0)
(0 -0.000545906 0)
(0 -0.000490336 0)
(0 -4.44119e-06 0)
(0 -0.000282341 0)
(0 -0.000310186 0)
(0 -0.000218645 0)
(0 -0.000506139 0)
(0 -1.10411e-07 0)
(0 -0.000263853 0)
(0 -0.000105792 0)
(0 -0.000285577 0)
(0 -0.000302537 0)
(0 -0.000152177 0)
(0 -0.000312336 0)
(0 -0.000152 0)
(0 -1.13509e-06 0)
(0 -5.88634e-05 0)
(0 -0.000262666 0)
(0 -2.17091e-05 0)
(0 -6.95305e-05 0)
(0 -5.67979e-05 0)
(0 -0.000490288 0)
(0 -0.000546562 0)
(0 -0.000184213 0)
(0 -1.80127e-05 0)
(0 -3.38636e-06 0)
(0 -0.000397063 0)
(0 -0.000440437 0)
(0 -1.48547e-05 0)
(0 -0.000505946 0)
(0 -0.000402832 0)
(0 -4.65152e-05 0)
(0 -0.000319289 0)
(0 -5.84465e-05 0)
(0 -0.000139993 0)
(0 -0.000133826 0)
(0 -0.000315649 0)
(0 -0.000156475 0)
(0 -0.00036301 0)
(0 -0.00024667 0)
(0 -0.000302078 0)
(0 -0.000175588 0)
(0 -5.02136e-05 0)
(0 -0.00020378 0)
(0 -0.000198765 0)
(0 -0.000357082 0)
(0 -0.00044677 0)
(0 -0.000219296 0)
(0 -0.000418376 0)
(0 -4.72534e-05 0)
(0 -8.84592e-05 0)
(0 -0.000291339 0)
(0 -0.000255494 0)
(0 -5.30106e-05 0)
(0 -1.43074e-05 0)
(0 -0.000443183 0)
(0 -0.000256998 0)
(0 -6.15206e-06 0)
(0 -0.000547672 0)
(0 1.04307e-06 0)
(0 -0.000103931 0)
(0 -0.000187204 0)
(0 -0.00016696 0)
(0 -2.02905e-05 0)
(0 -7.88721e-05 0)
(0 -0.000394191 0)
(0 -0.00025378 0)
(0 -9.28271e-05 0)
(0 -0.000136997 0)
(0 -1.70525e-06 0)
(0 -0.000174826 0)
(0 -0.000140087 0)
(0 -0.000379849 0)
(0 -0.000385439 0)
(0 -0.000110815 0)
(0 -0.00038135 0)
(0 -0.000419511 0)
(0 -6.24195e-05 0)
(0 -0.000309667 0)
(0 -2.09769e-05 0)
(0 -0.00027135 0)
(0 -0.000437854 0)
(0 -0.000296718 0)
(0 -0.000341648 0)
(0 5.87638e-08 0)
(0 -1.79871e-05 0)
(0 -0.000535967 0)
(0 -4.10331e-06 0)
(0 -0.000525939 0)
(0 -0.000112173 0)
(0 -1.77235e-05 0)
(0 -0.000454913 0)
(0 -0.000266953 0)
(0 -4.19132e-05 0)
(0 3.61801e-07 0)
(0 -0.000232721 0)
(0 -0.000348788 0)
(0 -0.000316401 0)
(0 -2.40576e-05 0)
(0 -0.000157877 0)
(0 -0.000532951 0)
(0 -0.000206041 0)
(0 -3.90788e-05 0)
(0 -3.68233e-06 0)
(0 -4.15169e-05 0)
(0 -7.61709e-05 0)
(0 -2.61032e-05 0)
(0 -7.80398e-05 0)
(0 -9.51269e-06 0)
(0 -0.00028154 0)
(0 -8.1168e-05 0)
(0 -0.000427301 0)
(0 -4.78347e-05 0)
(0 -1.64383e-05 0)
(0 -5.14534e-05 0)
(0 -0.000489987 0)
(0 -0.000299804 0)
(0 -0.000174725 0)
(0 -9.77438e-05 0)
(0 -7.29279e-06 0)
(0 -0.000174279 0)
(0 -9.74337e-06 0)
(0 -0.000261166 0)
(0 -0.000252454 0)
(0 -7.87401e-05 0)
(0 -6.17119e-05 0)
(0 -0.000177521 0)
(0 -0.000380562 0)
(0 -5.27672e-05 0)
(0 -4.53667e-05 0)
(0 -0.000289107 0)
(0 -0.000484802 0)
(0 -6.63792e-05 0)
(0 -6.14281e-05 0)
(0 -1.09846e-07 0)
(0 -7.84464e-05 0)
(0 -1.44752e-06 0)
(0 -0.000437572 0)
(0 -6.55529e-08 0)
(0 -7.7504e-05 0)
(0 -2.40494e-05 0)
(0 -1.4283e-05 0)
(0 -0.000429539 0)
(0 -0.000257929 0)
(0 -8.29318e-05 0)
(0 -2.9945e-06 0)
(0 -0.000454833 0)
(0 -0.000151294 0)
(0 -1.08029e-05 0)
(0 -0.000129993 0)
(0 -0.00032582 0)
(0 -0.000149515 0)
(0 -0.000197271 0)
(0 -9.23457e-05 0)
(0 -6.55979e-05 0)
(0 -0.000202254 0)
(0 -0.000317709 0)
(0 -0.000446871 0)
(0 -7.71288e-05 0)
(0 -0.000487024 0)
(0 -3.81762e-05 0)
(0 -3.21062e-05 0)
(0 -1.33332e-05 0)
(0 -1.04807e-05 0)
(0 -0.000201468 0)
(0 -2.09845e-05 0)
(0 -0.000158349 0)
(0 2.04401e-06 0)
(0 -0.000426702 0)
(0 -0.000149662 0)
(0 -0.000193643 0)
(0 -1.63467e-05 0)
(0 -0.000154634 0)
(0 -0.000210876 0)
(0 -3.64279e-05 0)
(0 -4.32623e-05 0)
(0 -0.000435811 0)
(0 -0.000385436 0)
(0 -0.00040182 0)
(0 -1.70468e-05 0)
(0 -5.25208e-05 0)
(0 1.26691e-06 0)
(0 -7.22784e-05 0)
(0 -0.000104613 0)
(0 -0.00027512 0)
(0 -0.000352783 0)
(0 -9.52503e-05 0)
(0 -0.000248517 0)
(0 -9.03283e-05 0)
(0 -0.000257787 0)
(0 -0.000346051 0)
(0 -0.000158741 0)
(0 -0.00019056 0)
(0 -3.37752e-05 0)
(0 -9.28067e-05 0)
(0 2.14652e-06 0)
(0 -0.000369505 0)
(0 -4.40302e-05 0)
(0 -0.000523816 0)
(0 -0.000357856 0)
(0 -0.000328675 0)
(0 -0.000532952 0)
(0 -6.62536e-05 0)
(0 -0.000402598 0)
(0 1.41044e-06 0)
(0 -4.29664e-05 0)
(0 -1.30345e-05 0)
(0 -3.66326e-05 0)
(0 -0.00052878 0)
(0 -0.000252793 0)
(0 -0.000507049 0)
(0 -0.000141664 0)
(0 -0.000231874 0)
(0 -0.000220868 0)
(0 -0.000106831 0)
(0 1.14824e-06 0)
(0 -0.000215845 0)
(0 -0.000161836 0)
(0 -6.98619e-05 0)
(0 -0.000306613 0)
(0 -2.14098e-05 0)
(0 -0.000143817 0)
(0 -0.000238962 0)
(0 -0.000148422 0)
(0 -1.11118e-06 0)
(0 -0.00023256 0)
(0 -0.000253579 0)
(0 -0.000451773 0)
(0 -0.000344212 0)
(0 -0.000470171 0)
(0 -5.43723e-05 0)
(0 -2.25624e-05 0)
(0 -0.000369831 0)
(0 -3.98841e-05 0)
(0 -0.000246553 0)
(0 -0.000149236 0)
(0 -6.47629e-06 0)
(0 -0.000315917 0)
(0 -7.17634e-05 0)
(0 -3.54293e-05 0)
(0 -0.000229942 0)
(0 -0.000243501 0)
(0 -2.50328e-06 0)
(0 -2.74299e-05 0)
(0 -0.000510567 0)
(0 -0.000222912 0)
(0 -2.17495e-05 0)
(0 -0.00014451 0)
(0 -2.8885e-05 0)
(0 -7.65532e-05 0)
(0 -4.56591e-05 0)
(0 -6.36572e-05 0)
(0 -0.00026262 0)
(0 -0.000203603 0)
(0 -2.78653e-05 0)
(0 -0.000501897 0)
(0 -2.56891e-07 0)
(0 -2.06195e-05 0)
(0 -9.68889e-05 0)
(0 -4.2061e-05 0)
(0 -0.000496826 0)
(0 -1.50116e-06 0)
(0 -0.00050762 0)
(0 -0.000492142 0)
(0 -6.51846e-05 0)
(0 -3.61691e-06 0)
(0 -0.000346048 0)
(0 -6.06959e-05 0)
(0 -0.000273506 0)
(0 -6.46427e-05 0)
(0 -4.23849e-05 0)
(0 -6.72962e-05 0)
(0 -0.000248144 0)
(0 -5.51823e-05 0)
(0 -0.000306703 0)
(0 -0.000350209 0)
(0 -0.000200918 0)
(0 -0.000141006 0)
(0 -8.91455e-05 0)
(0 -0.000191533 0)
(0 -0.000265853 0)
(0 -0.000133549 0)
(0 -0.000217997 0)
(0 -0.000502423 0)
(0 -0.000433372 0)
(0 -0.000180046 0)
(0 -0.000160641 0)
(0 -6.55895e-05 0)
(0 -0.000223641 0)
(0 -0.000271989 0)
(0 -0.000334963 0)
(0 -0.000290886 0)
(0 -0.00016476 0)
(0 -0.000446276 0)
(0 -1.32735e-05 0)
(0 -2.67777e-05 0)
(0 -0.00021102 0)
(0 -1.83123e-05 0)
(0 -0.00043204 0)
(0 -0.000301333 0)
(0 -0.000459527 0)
(0 -0.000290819 0)
(0 -8.46458e-05 0)
(0 -0.000208297 0)
(0 -0.000508904 0)
(0 -0.000500565 0)
(0 -0.000111262 0)
(0 -0.00037238 0)
(0 -0.000266324 0)
(0 -0.000252705 0)
(0 -0.000379507 0)
(0 -0.0002306 0)
(0 -4.97182e-05 0)
(0 -0.000369906 0)
(0 -8.18798e-05 0)
(0 -1.31157e-05 0)
(0 -3.13351e-05 0)
(0 -0.000296264 0)
(0 -8.68716e-05 0)
(0 -5.07784e-05 0)
(0 -0.000500371 0)
(0 -6.1606e-05 0)
(0 -1.61302e-05 0)
(0 -4.40212e-07 0)
(0 -0.000170554 0)
(0 -3.56709e-05 0)
(0 -0.000508932 0)
(0 -0.000205005 0)
(0 -0.000108972 0)
(0 -0.00029781 0)
(0 -3.92386e-05 0)
(0 -0.0001256 0)
(0 -0.000497777 0)
(0 -5.95783e-05 0)
(0 -0.000127819 0)
(0 -0.000452484 0)
(0 -1.51779e-06 0)
(0 -0.000481728 0)
(0 -5.82618e-05 0)
(0 -0.000218957 0)
(0 -0.000188641 0)
(0 -8.4634e-05 0)
(0 -7.65195e-05 0)
(0 -7.71649e-05 0)
(0 -0.000385282 0)
(0 -0.000412307 0)
(0 -0.000323603 0)
(0 -0.000491063 0)
(0 -0.00036222 0)
(0 -0.000506925 0)
(0 -0.000157527 0)