/*--------------------------------*- C++ -*----------------------------------*\
| =========                 |                                                 |
| \\      /  F ield         | OpenFOAM: The Open Source CFD Toolbox           |
|  \\    /   O peration     | Version:  v2012                                 |
|   \\  /    A nd           | Website:  www.openfoam.com                      |
|    \\/     M anipulation  |                                                 |
\*---------------------------------------------------------------------------*/
FoamFile
{
    version     2.0;
    format      ascii;
    class       volScalarField;
    location    "300";
    object      p;
}
// * * * * * * * * * * * * * * * * * * * * * * * * * * * * * * * * * * * * * //

dimensions      [0 2 -2 0 0 0 0];


internalField   nonuniform List<scalar> 
18758
(
0.00396258
-0.00130575
0.00349522
0.00385944
0.00832194
0.000526753
0.000878953
-0.00229543
0.00830494
0.00843883
0.0016799
-0.0213288
0.0118394
-0.0108403
0.00114065
0.00181143
-0.0228924
4.88538e-05
0.0011598
0.00619906
-0.0141176
-0.084992
0.000592817
0.00126271
-0.0895722
-0.0881572
-0.0593534
0.0150504
-0.0289756
-0.00597901
-0.0182264
-0.0648971
-0.00228259
-0.113792
0.00821093
-0.00540455
0.0118345
0.00813945
-0.0297891
0.000477385
-0.0163284
0.00891275
-0.00328536
0.00413828
0.00261322
-0.0148903
0.00899418
-0.0239004
-0.106532
0.00433375
0.00102187
-0.126669
0.00429406
0.00798638
-0.0666148
0.012073
0.00321524
0.00598713
-0.0207053
0.00321406
0.00286322
0.00412457
-0.0551467
0.00618298
0.00294414
-0.100862
0.00402671
0.00200417
0.0175469
7.67605e-05
-0.123853
-0.0994644
0.00270218
0.00783913
0.0206808
-0.0152077
-0.0874815
-0.0191462
0.00852865
-0.000297953
-0.0493694
-0.0306977
-0.0136513
0.0165341
0.0043197
-0.0626431
-0.025388
0.00836537
-0.0652948
-0.0620906
-0.105109
0.00219803
-0.0461687
-0.104132
0.00266537
0.00409997
0.000314696
-0.0262171
-0.0336051
0.00409514
-0.0117975
0.00943418
0.00196016
0.00409471
-0.10342
-0.0150397
-0.0262227
-0.113703
-0.0731222
-0.0064726
0.00153297
2.93732e-05
0.00625958
0.00379014
0.00951441
0.0171706
-0.0248126
0.00307281
0.012806
0.00433288
0.00391057
-0.0896806
0.00427026
0.00377892
-0.124148
0.00791081
0.00411587
0.0037938
-0.0407257
-0.167279
-0.0230152
0.00371313
-0.00154883
-0.130628
0.000404845
0.0039744
-0.0610779
0.00428268
-0.00101986
-0.0478702
0.00598778
-0.0103739
-0.0291132
-0.0930038
-0.128463
-0.0424051
-0.0988213
-0.0391408
0.000541948
-0.0170311
-0.168104
-0.139111
-0.00539378
0.00765915
-0.0164991
-0.0663413
-0.0448699
-0.0435463
0.016249
-0.000405113
-0.0310278
0.00385912
-0.0924499
-0.103612
-0.00739664
0.00304871
0.00384316
-0.0549231
-0.166281
-0.0255027
-0.121364
0.00347328
-0.0296043
-0.00141144
-0.0670734
0.00468874
0.00253926
-0.0816522
-0.114013
-0.012207
0.00179829
0.00769396
-0.0653799
-0.0161373
-0.0137565
-0.000783692
-0.00940463
0.00997999
-0.105878
0.00323479
-0.137267
-0.000685725
0.00899869
-0.0495326
0.0012978
-0.0146834
0.000706952
-0.00514305
-0.105948
0.0019635
0.00384445
-0.0432396
0.0140921
0.0017792
0.00150736
-0.0908874
0.00450937
0.00781688
-0.172923
-0.161571
0.00216047
-0.0449522
0.00396361
0.00557681
0.00550667
0.000371589
0.001378
-0.0449398
0.000588106
-0.011375
-0.0442059
0.00372854
-0.0278622
-0.0420837
0.0161874
-0.0108707
0.0216873
-0.0644244
-0.0428088
0.00449785
-0.0844763
-0.0410635
-0.0601808
0.00401724
0.00317138
0.00374541
0.0262436
-0.109723
0.002399
-0.00158681
0.00140917
0.0248875
-0.00183027
0.00281328
-0.0178861
-0.0273564
0.003069
0.00410199
0.00299765
0.00417396
-0.11831
0.00415924
-0.00174098
0.00374914
0.000390967
-0.0029958
0.00308912
-0.106823
0.00107718
-0.060581
0.00612088
0.0038027
0.00303496
0.00879274
0.012636
0.0113555
0.00381989
-0.00275229
-0.0056318
0.00533214
0.0162352
-0.144765
0.00522215
0.00440644
0.00113486
0.00527368
-0.0081837
0.000568488
0.00566091
-0.0103237
0.00409765
0.00354893
0.00108168
-0.110968
0.000953397
0.00439123
0.000175888
-0.00413916
0.00410913
0.0040929
0.0028539
-0.0116366
0.00323865
0.0027478
0.00258888
0.00292477
-0.0115832
0.00223125
0.00130282
-0.113151
-0.0177377
0.0034741
0.00343534
-0.0367252
0.00450014
0.0017565
0.0036115
-0.0211157
0.00411111
0.0116889
0.00100448
0.000380362
-0.0016247
-0.00474745
-0.0307752
-0.107762
0.00188926
-0.0437237
-0.0448854
0.00394332
-0.0041001
0.0161932
-0.0112777
0.0035494
0.00192581
-0.164035
-0.00501597
0.0042997
-0.121024
0.0226598
0.00617233
-0.137133
0.00352251
0.0030713
0.0010084
0.00376749
0.00522083
0.00400694
-0.00274533
0.00457126
0.00497918
-0.00245937
-0.0993735
-0.0343001
0.00428185
-0.0380412
-0.0309844
0.00428878
-0.0267932
0.00412417
-0.0824308
-0.00574136
0.0125892
-0.000752311
-0.122534
-0.0486396
0.0102494
-0.00257313
0.00626057
0.00568982
0.00414815
0.000193622
-0.0585353
-0.00213625
0.0216771
-0.0530886
0.00313381
-0.0200282
0.00783657
-0.0239646
-0.108251
0.0153063
-0.0462963
0.0315234
-0.0149244
0.0140937
0.000277224
-0.0925418
-0.0418358
0.00315369
-0.00203729
0.00401082
0.00124674
-0.0843368
-0.00604509
-0.0161671
0.0164488
-0.125013
-0.00189531
-0.0278871
-0.00342831
0.00172401
-0.00881729
0.00588297
0.00404569
0.00396727
0.00575685
-0.00177757
0.00358589
0.00298596
0.0028931
0.0064969
-0.0358571
-0.0277556
-0.0243149
-0.0249462
-0.130124
-0.0354377
-0.0325772
0.00294252
0.00119166
-0.00755399
-0.00837901
-0.00100497
-0.0670521
-0.0222003
0.00367866
0.00313539
-0.093386
0.00272799
-0.0179243
0.00156894
-0.103586
0.00247671
-0.0102236
0.00262157
-0.131958
-0.048357
0.000916293
0.00397013
0.00198049
-0.0399803
0.00235405
0.0027432
-0.00513362
-0.0286556
-0.00129076
0.00252107
-0.000856908
-0.000204781
-0.0107926
0.00904994
0.000892792
-0.0878309
0.0015297
0.00397962
-0.0639923
-0.00011794
-0.0189906
0.000745045
0.000394524
0.00329952
0.0157229
0.00296588
-0.00162751
-0.113101
0.00377804
0.000168884
-0.0193129
0.00665539
0.00175689
0.00324145
0.00070628
0.019686
-0.062563
-0.00568007
-0.0132214
-0.0808054
-0.0776228
-0.0365111
-0.0219312
-0.0310978
0.00300883
-0.0309888
0.0240136
0.00881175
-0.0017895
-0.0143944
0.00481726
0.00618355
0.00339432
0.00094422
0.00416309
-4.22001e-05
0.00415807
0.000237343
0.00806259
0.00362905
0.00137481
-0.0501234
0.00354239
0.00323402
0.000656323
0.00666257
0.00496162
-0.0166659
0.00455736
0.00227452
0.000131604
-0.0265777
-0.0573695
-0.0475865
0.0314988
0.00136046
-0.000866613
-0.0621849
-0.130727
0.00473592
0.00320118
0.00803117
-0.104169
0.000129292
5.06949e-05
-0.0268318
0.00532603
-0.0478318
0.00506898
0.00394812
-0.0120029
0.00411714
0.00457223
0.0020369
0.000989192
0.0044532
0.00257538
-0.0317592
0.00190448
0.00525952
-0.0813025
0.000131253
0.00189175
0.00366948
-0.0143421
0.00921251
0.00714934
0.00403985
0.00708881
0.00362254
0.00870385
0.00399167
0.00292769
0.00292551
-0.00538021
-0.00532259
-0.0826536
-0.0162639
0.00408392
0.00443805
-0.01112
-0.0603969
0.00160153
0.000333042
0.000274125
0.00142454
0.00434805
0.00397778
0.00524717
0.00182656
-0.019714
0.00394729
0.000481876
0.0277133
-0.0405491
0.00600338
0.00412419
0.00445846
0.00329146
0.00209206
0.00433624
0.00571746
0.00349498
-0.0119666
-0.0307871
0.00447157
-0.0276189
0.00410649
0.00184185
-0.0407519
0.000158345
0.000992237
-0.0511528
0.00342697
-0.0148649
0.0197941
0.00347698
-0.000132408
-0.102257
0.00303068
0.00571967
0.0041739
0.00300885
0.00336955
0.0157127
0.00066133
0.00923403
0.00462813
-0.0516978
-0.0316752
-0.0219358
0.00414198
-0.110092
0.00126677
0.00217914
0.00364989
0.00436048
0.000209714
0.027441
0.00376192
-0.0152105
0.00435907
-0.0784395
0.00880991
0.00257599
0.00339859
-0.0162131
-0.112317
-0.00249282
0.00639533
0.00433112
0.00449916
-0.019322
0.00300176
0.00434231
0.00164337
0.00422153
-0.00453474
0.00950281
-0.000964523
-0.0470576
0.00634518
0.00695655
0.00374624
0.00404661
0.00526684
-0.0800099
0.000605839
-0.0256679
-0.144133
-0.0870921
0.00205625
0.000930161
0.0171363
-0.0351615
0.00119959
0.00494965
0.00469061
0.00364105
-0.0250293
0.000861625
-0.00568951
0.00416031
0.00411964
0.00405342
0.008757
-0.0392238
-0.0261987
0.00557155
0.00436259
0.013647
0.000378901
0.0141054
-0.0327082
0.00479018
-0.0591738
0.00418683
0.00416408
-0.0726937
-0.00356328
-0.00324631
0.0153699
0.000555642
-0.0638088
0.00196781
-0.0903184
-0.123177
0.00999953
0.00376202
-0.0229764
-0.0156939
0.0132156
-0.0109325
0.0103072
-0.00455085
-0.0456166
0.00199166
-0.0245962
-0.0305682
0.00358297
-0.0116335
-0.0849826
0.00660553
0.00795183
0.00535678
0.00135022
-0.00302215
0.00293742
0.00982313
0.023239
0.0043329
0.0164116
0.00694051
0.00534607
-0.0238895
0.00168815
0.00051722
0.001141
0.00423502
-0.0129588
0.00406109
0.00568542
0.00197228
-0.0482845
-0.0542431
-0.00108128
0.00509323
0.00438801
0.00474974
-0.0324494
-0.0185965
0.00551254
-0.00772723
0.00536747
0.00127121
-0.0459056
0.00167285
-0.0100745
-0.0461921
-0.0123554
-0.124035
0.00182243
0.00625338
0.00755551
-0.0289302
-0.0194046
0.00443909
-0.0203653
0.00147908
0.00293314
0.00354371
-0.00880655
0.00488164
-0.00482975
-0.155083
0.000817571
0.00142423
0.00337096
-0.00134456
0.00398207
-0.000969092
-0.010099
-0.0897528
0.0037594
0.00396989
0.00355986
-0.0202226
0.0291197
0.00647843
0.00412126
0.00378341
-0.00449617
0.00519331
-0.0276203
-0.0261083
0.00250689
-0.0271955
0.0039696
0.001083
0.00551624
-0.00131276
-0.000995706
0.00252222
0.00299933
-0.0190439
0.00544743
-0.0210782
3.07259e-05
-0.123197
0.00380328
-0.0187108
-0.0274711
0.00870678
-0.0230796
0.00115188
0.00531747
-0.0241112
0.00376892
0.01335
0.00396113
0.00425835
0.0073056
-0.0933367
0.0011054
0.003757
0.00157615
0.000355766
0.00329377
0.00415144
0.00262747
0.00346986
-0.0248854
0.00116438
-0.000225251
-0.0232235
0.00413703
-0.0314044
0.0200652
-0.090679
-0.00978413
-0.0194712
-0.0882759
0.00240353
0.00425532
0.00576693
0.00374584
0.00261989
0.0034587
0.00327407
-0.00312319
0.0094637
-0.0583988
0.00429308
0.00300551
0.0040497
0.00335923
0.00683659
0.00654439
0.00218389
0.00556741
0.00297327
-0.107297
-0.0297927
-0.0359953
0.0039653
-0.0274359
-0.0351857
0.00590532
-0.0982071
-0.040895
0.00445822
0.00109274
0.000436095
-0.115404
0.000562869
0.00223785
-0.0055102
-0.0762417
0.00222132
-0.00226231
0.000890692
0.000877916
0.00310449
0.000709411
0.0051325
0.00124291
0.00695032
-0.00894894
0.00224908
0.000733549
-0.0589865
-0.104875
0.00131539
-0.0167007
-0.0882211
0.00573068
0.00377875
0.00374827
0.000141402
0.00610118
0.00570886
0.00317082
-0.00500581
0.00684314
-0.000604169
-0.154108
-0.00728741
0.00319087
0.00514132
-0.0362483
-0.00485448
0.00218715
-0.0139813
0.00246776
-0.0117902
-0.0181999
-0.000397752
0.00404788
0.00391987
0.00664976
-0.0392183
0.00327626
-0.0223721
0.00680829
-0.0278002
-0.0364153
0.000333491
0.0106063
0.00195092
0.00794568
-0.0121149
0.00497432
-0.0620957
-0.000906019
0.00591715
-0.02507
-0.0905449
0.00193848
-0.0243604
0.00217878
0.000877992
-0.00470681
0.0070689
0.00396727
0.00407398
0.00288311
0.00432398
-0.0431135
0.00397854
0.00267799
0.00407163
-0.149066
0.00517875
0.00379036
-0.00789371
0.0121682
-0.0280582
-0.00186981
-0.0353419
0.00462532
0.00156032
-0.0005325
0.00732368
0.00381935
0.00455342
-0.0109145
0.00296773
5.35765e-05
-0.000257384
-0.00308249
-0.0150778
0.00281525
-0.0499537
-0.0119174
0.00151831
0.00230001
-0.0889087
0.00538188
-0.128068
-0.0375431
0.00403587
-0.00160661
0.00909392
0.00413001
-0.0116192
-0.0180048
0.00123585
-0.0675033
0.000853419
0.00507452
0.00127404
0.00546818
0.00715837
-0.0569009
0.000751018
0.00344535
0.00621901
-0.0208941
-0.0389201
0.0058246
0.00448122
-0.109506
0.00820595
0.00117586
-0.112436
0.00391112
-0.0301682
-0.0582511
0.00373673
0.00415028
-8.99281e-05
-0.0424795
0.00433134
-0.0235689
0.00396652
-0.0220915
-0.0635415
0.00328392
0.0012161
0.00219876
-0.0263114
0.000366045
0.0048087
-0.0395266
0.00354888
0.00256137
-0.0703119
0.000280494
-0.092237
0.00436602
-0.00883016
0.00356809
0.00438636
0.0034066
0.00434656
0.0187153
0.00590196
0.0110888
-0.0080802
0.00624087
0.00121676
-0.0152382
0.000589315
-0.0591649
0.000220478
-0.0180545
-0.0153313
-0.0021177
0.00314613
0.00316948
0.00282464
-0.132562
0.00097544
-0.0309433
0.0195662
-3.46543e-05
-0.0232224
0.000652334
0.00406654
0.00656196
0.00426571
-0.0146971
0.00488776
0.00477526
0.0044265
-0.0115122
-0.0322888
-0.0408261
0.00492645
0.00400809
0.00382847
0.006074
0.002874
0.00298528
0.00384272
0.00231177
0.00303837
0.00307338
-0.0745184
-0.0459652
0.0029666
0.00299791
0.036045
0.00616638
-0.0342174
-0.0356144
-0.00371296
-0.0866425
0.0038929
0.00305705
0.002925
0.000194319
0.00479522
0.00307999
-0.0120678
-0.0146104
0.00347417
0.0365323
-0.0660128
-0.0754426
0.00924485
-0.00281496
-0.00204291
-0.0246034
0.00295051
0.00305798
-0.015582
0.00469651
0.00318364
0.00339032
-0.123894
-0.0200541
0.00377973
0.00307298
-0.0095839
0.00335116
-0.00171705
-0.0195164
0.00453432
0.00966011
0.00390527
-0.00509414
0.0056122
-0.0279806
-0.00784754
0.00101886
-0.0293126
0.00119353
0.00317498
0.00245595
-0.00674542
0.0038227
-0.0272136
-0.0359212
-0.0273452
-0.0192508
-0.00719496
-0.0111091
0.00377053
0.00734427
-0.0304745
0.00455893
-0.0106546
0.00296127
-0.00210647
-0.00694242
0.00611958
0.0224039
0.0293917
0.00307368
0.00348046
0.0126011
0.00392478
-0.0106411
0.00336236
0.00409505
0.00411018
0.0016491
0.00670085
-0.0110961
-0.133922
0.00380497
0.00405951
-0.00611648
0.00591348
0.0038318
0.0271473
0.00611937
0.00409619
-0.0392825
0.0170695
0.00953664
0.00232314
0.00400701
-0.00117557
0.00416235
-0.0235267
0.0195794
-0.125877
0.00456738
-0.0254799
0.00613278
-0.0949655
-0.096582
-0.0656557
-0.0587666
-0.0419768
0.00874306
0.00253745
-0.0234501
0.00980335
7.16869e-05
0.00306717
0.00504612
0.0124931
0.00403542
0.00235636
0.00517897
-0.0188607
-0.0272579
-0.0215795
-0.0423724
-0.0509378
0.00595733
0.00567212
0.000810879
-0.0280158
-0.0210757
0.000392313
-0.00691334
-0.0221965
-0.118111
-0.140552
0.00244364
0.0193293
0.00161893
-0.132447
-0.00754365
-0.0188259
-0.000559773
0.00937217
-0.0524468
-0.0265517
-0.00144197
0.0026173
-0.0186399
0.00502817
-0.0740033
0.00594064
0.00291857
0.00673626
-0.017319
0.000289176
-0.0184261
-0.00376785
-0.0268459
0.00369367
0.00546771
0.0106148
0.0219913
-0.0900402
0.00160783
0.01007
-0.0789859
-0.0105544
0.00164362
-0.0107522
-0.0210328
0.00331385
0.000674016
-0.000612213
0.00388034
0.00388922
-0.101823
0.00792521
0.00377372
-0.0231159
-0.00925852
-0.0148525
0.00188433
0.000963423
-0.00355966
0.00579715
0.00419393
0.00428448
0.00976878
0.00408963
0.00157735
0.00385142
0.00412901
-0.0250435
0.00418316
0.00389442
0.00501186
0.00129993
-0.00739425
0.00386001
0.00437054
-0.00279537
-0.0503383
0.00424088
-0.0142038
-0.0671558
-0.0544791
-0.0738321
-0.00277106
0.00403663
0.00406552
-0.0792418
-0.00839368
0.00376334
-0.0168443
0.00263754
-0.0334848
0.000107049
0.00383509
0.00402368
0.00425804
0.00507752
0.001924
0.00594301
0.00570625
5.21928e-05
0.00287581
0.000641321
-0.020234
0.00382623
0.00385712
0.00295255
-0.0899777
-0.109814
-0.043245
-0.137567
-0.0269672
0.0292267
-0.105636
0.00420867
0.0101329
-0.0203739
-0.114975
0.00417839
0.0127181
0.00202814
-0.0406112
0.00263571
-0.0208691
0.00378845
0.000746535
0.000552781
-0.0262601
-0.00403155
-0.0485065
-0.0044792
0.000197728
0.00307744
0.00311604
0.00576552
-0.000472371
-0.106535
-0.006921
0.0061768
0.0062679
0.00312626
0.00176441
-0.0510526
0.0185335
0.00154959
0.00298416
-0.0155621
0.00310178
-0.000549804
0.00360546
0.00506306
-0.0025003
0.0038409
0.00390714
0.00398412
-0.0143675
0.014238
0.000265733
-0.00581169
-0.0770518
0.00403612
-0.0854852
-0.00609797
-0.0386167
0.000621589
0.00551566
0.00995823
0.0190627
-0.0704457
0.00414158
0.0115293
0.0018555
0.00221688
0.00370225
0.00366271
0.0114561
0.00570798
-0.0148385
0.010109
0.00368776
0.00423412
-0.000982214
-0.0102334
0.00117516
-0.030476
-0.085652
-0.057931
0.00477594
0.00349935
0.00164185
-0.145501
0.00595033
0.00390875
0.00348659
-0.0502986
0.00400442
0.00412644
-0.0281298
-0.015423
0.00556817
0.0058974
0.00378823
-0.122895
-0.0202051
-0.133925
-0.0228679
0.00126554
0.00451593
0.0104166
0.00380117
0.00331453
-0.00722241
0.00344874
0.00302363
0.00399266
0.00617295
-0.0213008
0.00776899
-0.163977
-0.0200944
-0.0224361
-0.0268985
0.0114066
0.00336745
-0.0419691
-0.0195354
0.00396504
-0.0755932
0.003874
-0.068134
-0.0190823
0.00121524
0.00351051
0.00636907
0.00962734
-0.0197797
0.00396121
0.00222713
-0.0716786
0.00625746
0.00292248
0.00148319
0.00605639
0.000462075
0.000708325
0.00422239
0.00252409
-0.107232
-0.0893226
0.00435228
0.0042199
0.0140199
-0.0245017
0.00147311
-0.0470184
0.0109309
-0.0221169
0.00468855
0.00351386
-0.0543711
0.00612985
0.00476835
-0.0199887
0.00414867
0.0033255
-0.124654
0.00266407
-0.0238977
-0.0783888
-0.086649
0.000720601
0.00262023
0.000199083
0.0036216
0.00130756
-0.0127129
-0.00336274
0.0019737
0.00635635
-0.0800709
0.00379035
-0.00308112
0.00120532
-0.0427311
-0.0917205
0.0042598
0.00651479
-0.014701
-0.13597
-0.0196043
0.00346655
0.00455159
-0.0140229
-0.0234245
0.00808609
-0.0190267
0.00349301
0.00946634
-0.0228023
0.00270139
0.00384793
-0.0038721
0.0059279
0.00444971
-0.000290234
0.00412317
0.0067026
0.00469302
0.00280112
0.00176553
-0.00897957
0.00415241
0.00454945
0.00301675
-0.0280881
0.00405222
0.00387215
-0.0498411
-0.0350774
0.00811916
-0.0443695
0.00386947
0.00284322
0.00424883
0.0036689
0.00254111
0.00462251
0.00688638
0.00350448
-0.00315449
0.0037272
0.00300537
-0.0212795
0.00994471
0.00410717
0.000529391
0.00420559
-0.00946744
-0.0661175
-0.0455999
0.00828428
-0.00766714
-0.02082
0.0062806
0.00130556
-0.0943157
-0.092956
0.00408019
-0.0204488
-0.0433441
0.00363608
-0.00347098
-0.0301888
-0.0173528
-0.000722529
-0.00982937
-0.0170618
0.00210791
-0.0131717
-0.0799981
0.00283741
0.00355908
-0.0765654
0.0110492
0.0015822
0.00598766
-0.00584889
0.00385539
0.00592184
-0.0124172
-0.0128917
0.00986701
0.0047112
0.00405733
-0.123673
-0.0180204
-0.0486489
-0.0258781
0.00389094
0.00891596
0.00413131
0.00436913
-0.0193256
-0.000618606
0.00366377
-0.0247014
-0.00322552
-0.137253
-0.00630035
-0.0991748
-0.0116493
-0.00737806
0.00120193
0.00379287
-0.00993644
0.00102925
-0.0384413
-0.0329684
-0.118937
0.00758939
0.0304741
-0.0132473
-0.0392995
0.00490282
0.00264357
-0.0238304
-0.01739
0.00435793
0.00301212
0.0106434
0.00429835
-0.000278097
0.0010751
0.000945188
0.0040952
0.00341273
0.0265857
-0.020833
0.000608048
-0.0778327
0.00121952
-0.0261937
-0.0499759
-0.121365
0.00543904
-0.0107715
0.00380895
0.00469217
-0.00363294
-0.111378
0.00471568
-0.000913138
0.00251398
0.00357941
0.0189115
-0.120309
-0.00299906
-0.0556141
-0.0292266
-0.0854432
-0.093529
0.00434387
0.00449044
-0.0180746
0.00111862
0.00110111
-0.00219472
0.00422299
0.00396217
0.00433144
0.002892
-0.0136445
0.00160032
0.0103609
0.0056858
0.0029102
-0.0382457
-0.117105
0.0034308
0.00351155
0.00022939
0.00376876
-0.000674946
0.000877886
0.0025172
-0.0616333
0.00503071
0.00397384
0.00146427
0.00488449
-0.00895987
0.00452014
0.00377187
0.00591146
0.00120509
0.00936348
0.00481611
0.00404725
0.00240562
0.00401339
0.00366535
0.0019698
0.0040829
-0.105681
0.000142803
-0.103159
0.0048511
0.0183479
0.00107423
0.00882193
-0.109437
0.0056835
0.00248119
-0.0632904
0.00554397
-0.0524939
0.00248708
-0.00685699
-0.020057
0.00311949
-0.0318161
0.003916
0.00459384
0.00104912
-0.114698
0.00433198
0.00337126
0.0271701
0.00580586
-0.0728129
0.00318555
-0.0240183
-0.0406592
-0.0176833
-0.129253
-0.121303
0.00422549
0.00447674
0.000401627
0.00775042
-0.00294992
-0.00140629
0.000792453
0.00297075
0.0035306
0.00271824
0.00423595
0.003757
0.0134091
-0.00394814
0.00369962
0.00824559
-0.0371533
-0.0141245
-0.0840577
-0.00360169
0.0101508
0.00318634
-0.024601
-0.0626767
0.00855338
-0.11396
0.000718596
0.0097242
0.00146963
-0.019317
0.00278964
-0.0149371
-0.00337199
0.00376151
0.0160838
0.00289908
-0.00650867
-0.00622458
0.00375132
-0.00211234
0.00397287
0.00404841
-0.119489
0.00303871
0.0017744
-0.010133
0.00576775
0.0019792
-0.00259751
9.1078e-05
0.00616765
-0.000463174
0.00233399
-0.0481647
-0.0355385
-0.134469
0.00259169
0.00132614
0.00143934
0.0022685
0.00220528
0.0120095
0.00204952
0.00407378
0.000879512
0.00394339
-0.0175615
0.000618511
0.0362834
-0.010858
-0.0260907
-0.0183132
-0.00283274
-0.0325808
0.00427301
-0.0766712
0.00341159
-0.0340258
0.000243062
0.000497941
0.00379413
0.00970322
-0.0178562
0.00388268
0.00361854
0.00925993
0.00317875
0.00574973
-0.0414925
0.0109323
0.0044503
0.00568242
0.0185141
0.00245423
-0.02837
0.00391219
0.00571145
0.00165869
0.00395299
0.00985114
-0.0266608
0.0108812
0.00362719
-0.0895997
0.00228357
0.00367184
0.00263349
0.00549427
-0.0824645
0.00333576
-0.00743095
0.00599009
-0.0317043
0.000358599
0.00481632
0.00369183
0.0118136
0.00419235
-0.0280303
0.00404228
-0.0254974
-0.00591593
-0.113459
0.00414999
0.00380013
0.00145086
-0.0080723
0.00350104
-0.0329199
-0.000973237
0.0112348
-0.0220614
0.000347932
-0.0954056
0.00319281
0.00403405
0.00546021
0.0206036
-0.0393624
-0.0175052
-0.0276337
-0.0831172
0.00579462
-0.0179976
0.00385475
0.00625774
0.0026785
0.00297603
0.033167
-0.00373569
-0.0149497
-0.000383597
0.00036256
-0.0235639
-0.0177701
5.27428e-05
-0.0145324
-0.0420737
0.00290941
0.00348352
0.00102845
0.00364106
0.00379546
-0.149083
-0.113252
-0.00678689
0.00388652
0.000401574
-0.0131619
0.00383335
0.00348881
0.00381744
0.000122496
0.00115638
0.00241882
0.00295513
-0.0327408
-0.0966361
0.0105301
-0.00975207
0.00368376
0.00346739
-0.0340595
0.00293986
0.019919
-0.104682
0.00108946
-0.0467618
0.00401184
-0.0926907
0.00289708
-0.0826566
0.00323295
-0.00144307
0.00843598
0.00521499
-0.044182
0.00227078
-0.00865263
-0.0153296
0.00308357
0.00353191
0.000281623
0.00360653
4.15496e-06
-0.0497862
-0.0790675
0.00616833
0.00382904
0.00853731
0.00566401
-0.00511714
0.00257035
-0.0183714
-0.00798626
-0.00413709
0.00514898
-0.0107984
0.00402472
-0.0406044
-0.0135887
-0.0276109
-0.0201468
-0.0305555
-0.0298426
0.00252415
0.00315754
0.00354918
0.00303975
0.00134785
0.00280349
-0.0868503
0.00360902
0.00407222
0.000424033
0.0126248
0.00186674
-0.0881344
-0.0959288
-0.0236791
0.00427596
-0.0451741
0.0035932
-0.0391726
0.000650132
0.004096
-0.0222127
-0.0166412
-0.0389153
0.00403238
0.00294282
-0.0224384
0.0172771
-0.0142113
-0.0018323
-0.016972
-0.0590263
0.00975884
-0.00690034
0.00456872
-0.0175089
-0.0106372
-0.0653905
0.00533826
-0.141356
-0.0459614
-0.0273477
-0.00201875
-0.00179944
-0.00389399
0.000802526
0.00283127
0.00176266
-0.0338638
0.000813553
-0.0484967
0.00641007
-0.0172247
0.00231758
0.00844683
-0.0223362
-0.0245877
-0.0362435
-0.0126416
0.00311205
-0.11161
0.00709729
-0.00402688
0.0132141
-0.0290379
-0.0326186
0.0369991
-0.00501891
0.00265521
-0.044502
0.00175758
-0.0040683
-0.035278
0.00108347
0.00397483
-0.0148261
-0.0204491
0.00393342
-0.037112
0.00368709
0.00380542
-0.0130527
0.00378537
-0.066398
0.00068982
-0.00309241
-0.0953613
-0.00338329
-0.023187
-0.0565609
-0.0289837
-0.0145892
0.00447266
-0.0214032
-0.140557
-0.0123906
0.00640774
0.00450855
0.00867996
0.00191895
0.00287715
-0.0176444
0.0038357
0.00410692
0.0102705
0.00647349
0.00205957
0.00231165
-0.0716646
-0.0514175
0.00335284
0.00238563
-0.0169973
0.00395629
0.00366931
0.0036262
0.00379043
-0.00501285
-0.0128012
0.0125404
0.00799436
0.00392869
0.00236583
-0.015218
-0.0326802
0.0111482
0.00294342
-0.0038775
-0.0033784
0.00380515
-0.0288703
-0.000658592
0.0299301
0.00313319
-0.0197807
0.00291009
0.00372293
-0.0252049
-0.0194949
-0.00402602
-0.0122395
0.00293959
0.00405476
-0.0121116
0.0091573
-0.107548
0.00371984
-0.00606138
0.00235327
0.00273992
0.00487382
0.00437004
-0.078422
0.00237175
0.000571516
0.00159426
0.0104408
-0.0252114
-0.126434
0.00292497
0.00408567
-0.0229389
-0.0165611
-0.0811572
0.000897133
-0.0266601
0.00628763
-0.0766716
-0.00965993
0.000684735
-0.146448
0.00260904
0.00428978
-0.00465998
0.00274235
-0.00327629
-0.13524
0.00109917
-0.0862902
0.00281113
0.00433133
-0.00218207
0.00177426
0.00432709
-0.0966876
-0.00068717
-0.00163832
0.00203806
-0.0163942
0.00357159
-0.0051912
0.0029368
0.00253889
-0.00337742
0.00388738
-0.00884167
0.0064802
-0.0244109
-0.0838582
0.00377172
-0.0184354
0.00400561
-0.116597
0.00509325
0.0033129
-0.158836
0.00477805
0.00100233
-0.0129396
-0.0246791
0.00384563
-0.117997
-0.0173376
-0.00942436
0.00150202
0.00150744
0.00889842
-0.128288
0.00403585
0.0101556
0.00528501
-0.0265237
-0.12429
0.00108527
0.00287096
-0.0584075
0.00679978
-0.0027038
0.00484737
0.00375271
-0.0181073
-0.0114077
-0.00339603
0.0035185
0.00393607
0.00298121
0.00123609
0.0031468
0.00555743
0.00600254
-0.0101826
-0.0255624
-0.00784762
0.00355724
-0.0109323
0.00892888
-0.0404125
-0.0347829
-0.050847
-0.025164
-0.0204012
0.00359766
-0.0128233
0.00307453
-0.0059976
0.0043544
-0.000632319
-0.000667879
-0.0419935
-0.00797642
0.00147766
-0.0744779
-0.0190259
-0.0803235
0.00145543
0.00403834
-0.0217835
0.00376908
0.000737486
0.000710744
0.00443709
-0.0721589
0.00208925
-0.142034
-0.00121006
0.00380568
0.0362239
0.00844261
-0.0401506
0.0185002
0.000267125
0.00303374
0.0124318
-0.108343
0.0188853
0.00349004
0.00246564
-0.000924065
-0.0228411
0.00384029
-0.047643
-0.0758303
0.00388813
-0.00661184
0.0036614
-0.108549
0.00383662
-0.0123276
-0.0043961
-0.0303979
0.0195162
-0.0723443
-0.160462
0.00271978
-0.029656
-0.0828939
-0.00130004
-0.118835
-0.00402478
0.00267079
0.00427481
0.00133515
0.000931734
-0.00358603
0.00403343
0.00717883
-0.0224717
0.00514659
-0.0749058
-0.00828461
0.00928999
0.0055801
0.0154117
0.00285365
-0.06035
-0.018095
0.0281869
-0.0253559
0.00538701
-0.0206982
-0.00284562
0.00237841
-0.000380478
0.00245556
-0.126446
-0.0534049
-0.0937493
0.000900217
-0.00417735
-0.0148242
0.03118
0.00402517
0.00380818
0.00542969
0.00160228
-0.0208276
0.0020131
-0.0184487
-0.00800713
-0.114563
0.00402946
0.00386519
-0.0130511
-0.0308768
0.00258585
-0.0623121
0.00325192
0.00364816
-0.00111647
-0.0336159
0.0043975
-0.01022
-0.0706453
0.00311197
-0.00480311
-5.47151e-05
0.0081037
-0.0186248
0.000779789
-0.0937993
-0.00976886
-0.0110972
0.00353607
0.00104519
-0.140451
0.00434863
-0.0199684
0.00254632
0.00458061
-0.0882465
-0.00155546
-0.000976056
-0.00762572
0.00371696
-0.00868916
-0.104985
0.00367577
-0.0149504
0.00236615
0.0341809
0.00466226
0.0101508
0.00292444
-0.00105429
-0.0212921
-0.0007587
-0.0765659
0.00276379
-0.0851297
0.00352277
0.00295424
-0.00318441
-0.00471995
0.00409647
0.0128689
-0.00778899
0.00431611
-0.00858832
0.00367668
0.0169698
-0.0156987
-0.0323732
0.00347098
0.0034459
0.0120826
0.0041206
0.00349047
0.00196532
-0.0162085
0.0016314
-0.00825844
-0.107472
0.00375987
0.00501133
0.00518104
0.00390682
0.0033305
-0.0400187
0.0019193
0.00566686
-0.0796048
0.00554482
-0.0227081
0.000230011
0.00377064
-0.110391
0.0300349
-0.00503156
-0.0434625
0.00107751
0.0302079
0.00345434
0.00131021
-0.000889287
0.00461481
0.00180415
-0.0169232
-0.0107065
-0.00392097
-0.108992
0.00494695
-0.0030609
-0.0917655
-0.0290514
-0.00306763
0.00303014
0.0125529
-0.115989
0.00627471
-0.0728595
-0.0555187
-0.013421
-0.089395
0.00251277
-0.000574456
0.00212821
0.00152532
0.00411807
0.017759
-0.0713176
0.00255371
-0.00373311
0.0025747
-0.074322
0.00387158
0.00648006
-0.0188755
0.00529899
0.00641005
-0.0635094
-0.00637921
-0.00302428
-0.0104549
0.0165803
-0.00533156
0.00420007
0.0027358
0.000440365
-0.00435107
0.00498847
-0.0292137
0.0039484
-0.0279155
0.00575911
-0.0075058
-0.077724
0.0025612
0.0173039
0.00363443
0.00193431
-0.119751
-0.115875
0.00338392
0.00379519
0.00469187
-0.0715588
0.015796
-0.0193209
0.00327574
0.000745989
-0.00176106
0.00373154
0.00245596
0.00375123
-0.0305296
-0.00104324
-0.059189
-0.0603444
0.000982308
-0.10857
0.000473162
-0.00359708
0.00679493
0.00370509
-0.000349019
0.0020866
-0.00998091
0.0039644
0.00242651
-0.026652
-0.0432964
0.00332359
-0.0693358
-0.128674
-0.0180523
-0.0243106
-0.00581331
-0.00757754
0.00419317
0.00861421
-0.000693867
0.00729517
-0.079129
0.0020403
-0.00378704
-0.0832577
-0.016782
-0.0106192
0.00634012
0.00788486
0.00433745
-0.110222
0.00423057
-0.143306
-0.0199209
0.00364669
0.0106687
-0.0621868
-0.0403803
0.00031047
0.00173819
-0.155628
0.000634784
0.0105606
-0.0589918
-0.0165483
0.00416472
0.0194423
-0.000843294
0.0100919
-0.000625589
-0.0165403
-0.0238581
-0.00725066
-0.0613819
0.00399591
-0.114747
-0.0333583
0.00267598
0.00279554
-0.123771
0.00888449
0.00350029
-0.105325
-0.123475
-0.112353
0.00370892
0.00250774
-0.0695891
-0.102621
-0.159215
-0.000796619
0.00633014
-0.00523462
0.00046515
-0.00127147
0.00407994
-0.0047119
0.0042398
-0.122849
0.00397683
9.43784e-05
0.00254828
-0.0946853
-0.00179155
-0.0547749
-0.0906052
0.00359771
0.00411819
-0.000714099
-0.0461022
0.00389229
-0.00291065
0.00447768
-0.108904
-0.15697
-0.00237061
-0.120203
0.0102622
0.000868855
-0.127812
-0.0117152
-0.00267162
-0.105022
-0.106607
0.0002294
-0.0919192
0.00259052
0.00292069
-0.108755
0.0169221
-0.0307614
-0.100304
0.00350432
-0.150164
0.0026855
0.00343425
-0.0142504
-0.130435
-0.0794595
-0.00972532
0.00264341
0.00277876
-0.00264725
-0.016814
0.0356166
-0.106546
-0.00823043
-0.0247177
0.00261621
0.0023835
0.00283504
-0.0144651
0.00119833
-0.0386652
-0.00690946
0.00374193
-0.00509628
-0.111732
-0.00459287
0.0346375
-0.0873549
-0.000363512
-0.151753
-0.0286957
-0.0351201
-0.0110187
0.00113698
0.00258122
0.00194783
0.00109903
-0.051036
0.00308473
0.0030033
-0.00700362
0.00288375
-0.0133193
-0.0410965
-0.0127417
-0.0337642
-0.0147526
-0.0740655
-0.141112
-0.000691303
0.00378574
-0.111105
-0.0145051
-0.00592311
0.00397811
-0.00199942
0.00307237
-0.0122255
0.00025283
-0.0786229
0.00030103
0.00204325
-0.1304
-0.0386054
0.00348639
0.00260197
-0.00783726
-0.00671331
-0.00118139
0.00343356
0.00272872
-0.00922175
-0.0411932
-0.051882
0.00401368
-0.0529284
4.12651e-05
-0.0314664
0.00240979
-0.0373321
0.00293121
0.00460858
-0.0156959
-0.044631
0.00649007
-0.0114707
-0.0817578
-0.0923266
0.00246203
-0.00320256
-0.0478552
-0.055803
0.0105996
-0.111897
-0.000767486
0.00820844
0.00135641
-0.00635611
-0.0159074
-0.0447589
-0.0267406
0.00291724
0.0021337
0.00508744
-0.0247178
-0.000482573
0.00486562
-0.025232
0.00750744
0.00410517
-0.108626
-0.00112858
0.010357
-0.00350369