/*--------------------------------*- C++ -*----------------------------------*\
| =========                 |                                                 |
| \\      /  F ield         | OpenFOAM: The Open Source CFD Toolbox           |
|  \\    /   O peration     | Version:  v2012                                 |
|   \\  /    A nd           | Website:  www.openfoam.com                      |
|    \\/     M anipulation  |                                                 |
\*---------------------------------------------------------------------------*/
FoamFile
{
    version     2.0;
    format      ascii;
    class       volScalarField;
    location    "550";
    object      ddt0(omega);
}
// * * * * * * * * * * * * * * * * * * * * * * * * * * * * * * * * * * * * * //

dimensions      [0 0 -2 0 0 0 0];


internalField   nonuniform List<scalar> 
18758
(
7.99251e-05
-0.0796711
1.88771e-06
0.000336856
0.000180657
-4.42763e-05
-1.73314e-05
-0.000100268
-9.00027e-05
0.000101133
-0.0498136
0.187611
-0.0923254
-1.80948e-05
-1.56678e-05
-2.03656e-05
0.141209
-4.95328e-08
-1.66671e-05
-0.000204785
0.187298
-0.0148793
-5.22299e-05
-4.23692e-05
0.000595815
-0.012963
-0.641859
-0.0063882
0.00320853
-0.0676326
-0.660881
0.00969178
-9.08326e-05
-0.182491
0.00058379
-0.0480123
-0.111658
0.000236462
-0.352569
2.73289e-05
0.0428052
0.000110306
0.001641
1.10418e-05
-1.93551e-05
-0.573702
0.000216805
0.00393331
-0.513454
-0.00025103
-0.0373572
-1.64058
9.55794e-06
0.000110387
0.000291196
-0.158188
-5.10746e-05
-0.000172146
0.00399803
-5.11728e-05
-1.75466e-05
2.60941e-05
0.114229
1.64994
-1.75845e-05
2.4377
-7.00062e-06
-8.60712e-06
0.0128387
-7.39795e-07
-1.50756
-0.0189871
-1.32313e-05
-0.000707847
0.00630082
-0.680145
0.500863
0.0552507
9.59115e-05
-0.00585826
0.00224274
-0.324857
0.0621441
-0.00106855
-3.96661e-05
0.000128389
0.000185121
-0.000852041
0.121308
0.000119732
0.0249852
-2.11127e-05
0.00215031
-0.520611
-1.36042e-05
-1.19104e-05
-2.0169e-06
0.00300143
0.0782588
-1.45375e-05
-0.689471
-0.000830111
-8.55747e-06
-1.1212e-05
2.42676
0.0365882
0.00334949
-0.0981871
0.0265088
-0.00162415
-1.94224e-05
2.08709
0.000225613
1.10562e-05
-0.000837671
-0.682487
0.00301189
-7.89291e-06
-0.222787
-3.22708e-05
9.342e-06
0.419672
-3.59646e-05
7.51379e-06
-0.316173
9.81408e-05
-1.17081e-06
7.14567e-06
0.0010824
0.259936
0.00364584
1.64287e-06
-2.9285e-05
0.755576
4.00899e-05
8.82287e-07
1.01229
-2.67935e-05
-0.0108734
0.00259904
0.000318418
0.0327834
0.0021608
0.152815
-0.247702
0.00160547
1.08485
0.00120018
-0.0670417
-0.862965
0.808836
-0.739893
-1.69081e-05
0.000886958
0.0526306
-0.0499814
0.00233972
0.00124218
-0.00120075
-0.0596478
-0.186597
1.62183e-05
-2.882
1.68821
-0.284021
-6.57922e-05
1.59869e-05
0.365517
0.385208
0.300622
-1.29229
2.15238e-07
0.00269831
0.011787
-0.0292649
-1.75427e-05
-1.50417e-05
-0.0034385
-0.134409
-1.40576e-05
-6.54339e-06
4.46694e-05
0.00106518
2.79743e-06
0.271531
-1.73669e-05
-0.0685929
-0.000704647
0.507992
-0.169279
-0.817252
-1.68103e-05
0.00306117
1.11357
-1.92124e-06
-4.49268e-06
-0.0342531
-1.70087e-05
1.09597
-3.11362e-05
0.000184131
-0.000164903
0.79664
-2.17777e-05
-2.24808e-05
-2.48592
-2.37573e-05
0.00103213
0.646374
-0.142707
-3.00828e-05
0.00273536
0.000223724
8.19022e-05
-9.20841e-05
-2.22835e-06
-2.28031e-05
0.002694
-2.63051e-05
0.0249882
0.377749
3.96736e-05
0.00209333
-0.0049681
1.74508
-0.00234985
0.0075185
-0.0012866
0.095343
-2.30663e-05
-0.0111757
0.00185747
-0.0209149
6.4711e-06
-1.59698e-05
5.08391e-05
0.0156498
-0.862989
-0.0532204
-4.1032e-05
-1.97296e-05
0.0100283
-0.0105883
-1.73207e-05
-0.400967
-0.0242106
-1.58329e-05
-1.07378e-05
-0.000116547
-1.72709e-05
-1.43797
-1.09185e-05
-0.0251235
4.00702e-05
-5.86741e-05
-0.037432
-1.79178e-05
-0.0435101
-2.37905e-05
-0.0373607
0.000226806
9.6414e-06
-1.79818e-05
0.00302378
-0.792777
-0.647504
9.8246e-06
-0.0137844
-1.70501e-05
-2.53582e-05
0.033546
-0.0719408
-2.25515e-05
-2.60246e-05
0.00157186
-7.8256e-05
0.000112565
-1.88192e-05
8.91913e-05
-2.55293e-05
-1.09073e-05
1.42458e-05
-2.03156e-05
1.77222
-1.58239e-05
-2.31359e-05
1.90757e-06
-0.0039988
-1.1968e-05
-1.13177e-05
-1.58071e-05
-1.71653e-05
-3.91789e-05
-1.75104e-05
-2.57316e-05
1.13195e-05
-0.00468545
-2.44019e-05
-5.2753e-05
-0.0906289
7.85118e-05
1.35513e-06
1.15595e-06
-0.649567
-0.00537671
-6.38038e-06
0.00190834
-0.0211531
9.80144e-06
-0.133144
-1.9896e-05
-0.809663
-0.0487033
0.00155205
0.0038014
0.467718
-8.11628e-06
-1.17521
-0.00879961
-6.3368e-06
0.00192884
-0.00143257
-0.434735
-1.53799e-05
-8.1986e-06
0.00301163
0.0216779
-1.33285e-05
-0.473497
0.00426329
-0.000337938
0.477147
-1.52444e-05
-5.75329e-05
-2.34796e-05
1.09315e-05
2.45856e-05
-6.0139e-05
-9.76343e-05
-1.88895e-05
1.81555e-05
-3.99448e-05
0.079147
-0.713876
-4.45276e-05
-0.972766
0.0410873
-1.18346e-05
0.00104413
-0.000231289
0.0949482
0.00920735
-0.257705
-1.72379e-05
-0.995394
-0.0701834
-0.00136154
-3.84771e-05
-0.000311972
6.09308e-05
-4.48477e-06
0.0106599
0.79083
-0.0203545
0.0205409
1.67128
-1.60167e-05
0.000229186
3.37626e-05
0.00305898
-1.06819
-1.36322
-0.0564627
-0.339899
0.0424933
-0.881371
-5.29675e-05
1.25727
0.000957245
-0.0199602
-0.0998619
-1.16328e-05
-4.14387e-05
-0.0111257
-0.00790168
-0.281458
0.0670022
-0.437801
-4.35704e-05
0.256436
0.00620344
-2.03904e-05
-3.25749e-05
-3.76846e-05
7.33566e-05
7.51771e-06
5.70731e-05
-1.6875e-05
1.55838e-05
-1.65014e-05
3.24828e-05
-0.000393764
-0.266336
0.000467469
-0.166241
-0.235975
0.376895
-0.209677
-0.000733216
-4.0645e-05
-4.82636e-05
0.00887429
-3.48877e-05
-4.5735e-05
0.689732
0.00306729
0.0119864
-7.58331e-06
0.0636781
-1.93383e-05
8.78876e-05
-4.54162e-06
1.24118
-1.14062
0.0146684
-1.93692e-05
0.377969
0.0018693
-2.23282e-05
-2.71691e-05
-4.01879e-05
-0.0336392
-3.22616e-05
-1.54506e-05
-0.429604
0.000491093
-4.71706e-05
-1.4399e-05
-0.000103816
-0.000224865
2.04561
-0.00780888
-7.38671e-05
1.28224
-4.26314e-06
-0.000236139
-0.000770917
-2.25071e-05
-0.53663
-7.21441e-05
-0.00024168
3.88256e-07
-2.33252
-0.00022972
-1.79535e-05
-0.841256
-0.00667846
1.52634e-06
0.000232693
-0.000115179
-2.17449e-05
1.98614e-07
-2.25097e-05
-0.423077
0.259338
-1.89361e-05
0.00136537
1.7146
-0.00290003
-0.0750234
-0.0196918
-0.0670421
-3.65896e-06
0.00141973
0.00485079
-0.000929833
-9.20023e-05
0.0153943
0.00176435
0.000268992
2.74626e-07
-1.65891e-05
-1.13741e-05
-2.27464e-05
-1.22237e-05
-2.53202e-05
-0.0874368
1.46265e-05
-2.34361e-06
0.00165985
-1.66156e-07
-1.02908e-06
2.72013e-05
-0.000107835
0.00104153
0.243121
-1.99178e-05
-0.0272523
-4.74173e-05
0.000501681
0.00205563
0.176959
-0.405531
-2.18434e-05
-1.75233e-05
0.254173
0.562434
0.0289452
-3.46691e-05
-0.499604
1.6732
1.86001e-06
-3.90544e-05
-0.113654
-0.000117443
0.00293562
0.0271381
-0.000157731
0.00136818
-1.11379e-05
-1.3419e-05
-1.7681e-05
-7.95199e-05
-2.47691e-05
-1.92412e-05
0.0548206
-5.90122e-06
0.0157812
1.51131
1.48279e-06
-5.87329e-06
1.81274e-05
0.000218891
-0.000359906
0.00543869
-1.41961e-05
-0.146089
-0.000318787
-0.000966415
1.31144e-05
2.12141e-05
-0.00011036
-2.26686e-05
-2.10471e-05
0.0854972
0.200091
-1.10765e-05
-2.44816e-05
-1.72183e-05
0.359151
-5.21104e-06
-3.53529e-06
-2.59163e-05
-2.74335e-06
-2.24991e-05
1.3091e-05
-2.10295e-05
-2.14747e-05
0.00351066
-1.56335e-05
4.96128e-05
-0.0165052
0.122753
0.000249949
-3.06618e-06
-1.86944e-05
-1.48742e-06
-1.43787e-05
-2.22298e-05
-0.0182104
-0.00476234
-1.363e-05
0.566793
-1.8643e-05
0.00113235
-1.54265e-06
-3.82775e-05
0.00198795
-5.94328e-07
-7.26021e-05
0.154083
1.4141e-06
-2.28928e-06
0.0132902
7.23564e-07
-1.82203e-05
1.21521
-6.44294e-06
-0.0890825
-0.00608797
-1.08466e-05
3.76755e-07
-0.00149764
-0.000157412
-0.000333743
-1.68403e-05
-0.0776958
0.289997
-0.0641836
-1.14348e-05
0.0107313
-1.09317e-06
-3.88823e-05
-1.67254e-05
-0.000587396
-0.212288
-0.23879
0.00011342
-2.3614e-06
-4.62427e-05
0.317443
-0.191929
-1.84699e-05
0.00329533
8.20395e-05
-1.14032
3.08233e-05
0.000207986
-1.21083e-05
-0.000468488
0.00310706
-1.04652e-05
-1.21013e-05
-5.45674e-06
-1.27452e-05
-1.75774e-05
-0.0170951
-0.0267335
0.154201
0.000317185
-8.50103e-05
-1.49553e-05
-9.71491e-06
-0.0245924
-0.0382256
3.31723e-05
0.00223247
-0.588725
0.0620974
-4.20636e-05
-6.81703e-05
-0.000934571
-0.12403
-5.73169e-07
0.000858702
-2.04461e-05
1.00741e-05
0.000705742
-2.31376e-05
-2.07523e-05
-6.95456e-06
-1.17186e-05
0.00011452
-0.0207617
0.00210217
-0.24777
8.60593e-05
-2.40856e-05
-0.455987
-3.20752e-06
-0.0804002
0.0611029
-2.23041e-05
0.881307
-3.82581e-05
-6.54248e-06
1.08284
0.0282932
0.0138465
-0.549473
-0.000135611
0.0132191
-5.93635e-06
2.07167
0.315299
-0.000871652
4.63603e-05
0.308364
6.7841e-05
-0.00180905
-0.048305
-0.298323
-1.61518e-05
0.0526105
-3.30278e-05
0.00241379
0.00387249
-1.20204e-06
0.000642767
0.401166
-0.091738
-0.000537734
-2.70209e-05
-2.30715e-06
-3.77295e-05
-0.00023891
-0.000583152
0.0187444
-3.04956e-05
-0.295456
-9.98429e-05
-2.82125e-05
0.000271337
-4.47219e-06
0.0250175
-2.07054e-05
-1.2157e-05
-0.0103406
-1.05543e-05
8.7258e-05
-0.114992
0.00174855
0.000823373
-1.67198e-05
-1.75248e-05
0.00284032
-1.30918e-05
-0.14039
7.5406e-05
-0.000138206
-3.83153e-05
-3.35136e-05
-1.33988e-06
0.265609
-4.41357e-06
-0.55267
-0.00105808
-1.31253e-05
-1.79135
-3.1698e-05
7.23294e-05
-0.000492405
2.8425
7.0206e-05
-0.00326227
0.0312434
-7.19051e-05
-0.106347
-3.7931e-06
-0.0345129
-1.33699e-05
-2.51934e-05
0.25748
-0.124625
-2.19777e-05
-4.40313e-06
-0.000104679
-2.15354e-06
-1.67556e-05
0.0347666
0.477172
4.46436e-05
-2.24066e-06
-3.76521e-06
2.35374
-0.131521
-0.0115098
-1.12741e-05
0.00310023
-2.49682e-05
-2.02715e-05
0.000522745
0.0973142
-1.94286e-05
0.00229711
0.0237697
0.000898688
-0.0190676
-1.73647e-05
-6.1667e-05
-1.90515e-05
-1.55953e-05
0.000230289
-3.04569e-05
0.00315012
-2.34541e-05
1.07243
-6.55757e-06
8.12052e-05
0.00415416
-0.0846496
0.00235687
-5.53669e-05
-3.50215e-05
0.0536336
0.00392568
-0.00113159
-1.32086e-05
-1.62778e-05
-0.000722434
-1.37729
-0.125022
3.80015e-05
-1.78738e-05
-4.83421e-05
-6.0699e-06
-3.79223e-05
-1.62147e-05
1.47191e-06
-0.0675476
-2.00591e-05
-1.72099e-05
0.056753
-1.09581e-05
-0.040045
0.00989864
0.154662
-0.996297
0.021443
0.497052
-1.58224e-05
-1.62463e-05
-6.29629e-05
4.25075e-05
-1.7386e-05
-1.2429e-06
-1.37076e-06
-3.32014e-05
0.431846
0.00219057
0.00723285
0.000734697
-1.61775e-05
-0.000197268
-0.000469988
0.00305755
-3.71438e-05
0.000105088
-1.29831e-05
0.843631
0.157036
-0.529014
5.51256e-06
0.00350754
0.000954424
-0.0207083
-1.33425
0.495768
-3.1291e-05
0.00240825
8.62468e-05
-0.0226618
-1.46311e-05
-5.2102e-06
0.00306324
0.23412
-1.68197e-05
-0.0366193
-0.0203316
-1.97055e-05
-1.6368e-05
-2.35659e-05
-1.24886e-05
-1.33036e-05
-0.000100687
0.000507506
-1.52575e-05
-1.29445e-05
0.417573
0.836832
-1.59194e-05
-0.00929246
-0.00105783
3.56569e-05
-5.29428e-05
4.41566e-05
-3.14075e-05
1.35381e-05
3.85646e-05
-6.5836e-06
-2.28724e-05
-0.000103182
-1.72547e-05
0.0423494
0.000119485
-3.51625e-06
-4.93303e-06
-0.267455
-1.67035e-05
-5.65837e-06
0.882297
-1.8314e-05
0.00113569
0.000230055
-1.61333e-05
-1.19981e-05
8.05594e-07
-0.000246021
0.00134769
-7.01736e-07
0.0479832
0.00311992
0.00157657
0.492082
-4.21333e-05
-0.105508
-5.95541e-06
-0.106459
-1.46311e-05
-1.10567e-05
0.00150479
-1.28743
-9.58102e-06
-0.0478695
-0.0180828
-2.57617e-05
0.000592894
-6.0062e-06
-2.16971e-05
2.55051e-05
-7.14876e-06
-1.14578e-05
0.00027412
-1.19361e-05
-2.81925e-05
-0.113919
1.86142e-05
-2.23762e-05
-1.213e-05
0.204957
-3.33978e-06
4.35269e-05
0.000455868
2.2586
-0.187502
-0.0771175
0.0380934
-1.52377e-05
-3.54368e-06
-1.55442e-05
-0.5608
1.75461e-05
-7.886e-06
-1.46949e-05
-7.59464e-06
-0.0295737
-1.66201e-05
-1.56876e-05
0.0473091
-1.64664e-05
0.00164679
-0.709773
-3.35359e-06
-1.47991e-05
0.0855259
-5.66062e-05
0.819103
-0.319538
-9.87836e-06
-1.74199e-05
-0.0681896
-1.20136e-05
-3.33474e-06
-0.27046
-1.7771e-05
-0.0757018
-2.21599e-05
-9.25145e-06
-1.59184e-05
-0.000289989
-4.62184e-06
-0.107232
-2.42858e-05
-1.52102e-05
-0.261601
0.0365852
0.00139808
0.000390038
0.00913678
-1.81869
2.30285
-2.33914e-07
-1.54569
1.58553e-05
-0.0283671
0.395298
3.66686e-05
-0.000226269
-1.74233e-05
-0.109427
-1.09393e-05
2.22636
1.99421e-05
0.203717
0.000459303
-9.30797e-07
-1.82527e-06
-1.50632e-05
-0.0646444
-0.0096645
-2.28106e-05
0.114973
-1.21616e-05
-1.98726e-05
-0.077792
-1.78475e-05
-0.00154862
-1.14899e-05
-3.58837e-05
-1.52687e-05
-8.8253e-06
-1.57173e-05
-1.06874e-05
0.00520296
0.000486345
-0.00128406
0.000846096
-2.67242e-05
-1.59967e-05
0.263428
-2.26331e-05
-0.0873118
-2.46244e-05
0.0871087
0.000211428
-0.0759909
-7.73341e-06
-9.90578e-06
-1.63354e-05
0.0749532
-7.74601e-05
0.0320006
0.00148981
-2.26949e-05
0.000229277
-2.34641e-05
-1.07818e-05
3.74867e-06
-2.75613e-05
0.193727
-2.55414e-05
-3.4548e-05
-1.74096e-05
-1.56214e-05
3.04571
0.142218
-1.55244e-05
-1.36436e-05
1.56834e-05
-2.71351e-05
-1.65592e-05
-0.00012882
6.21933e-07
-1.51057e-05
-5.73473e-06
-2.08732e-05
0.000207388
0.00310865
-1.34379e-05
-6.27646e-06
-0.221934
-8.34969e-05
-2.66357
0.625459
-2.7859e-05
-1.57161
2.30614e-05
-4.6885e-05
-2.9614e-05
-0.000158089
0.000839252
-8.42747e-06
0.00101867
-0.224139
-0.000739968
-0.222849
0.8631
0.0613734
-0.000512438
-1.53752e-05
-1.62024e-05
0.273273
-4.35209e-06
-9.6258e-06
0.000663667
-0.000242192
-6.05511e-06
5.77012e-08
-0.766382
5.99423e-05
-0.000158497
0.00102156
-2.17813e-05
-0.000457524
-1.55124e-05
7.87059e-05
-1.96478e-05
-0.000357889
-0.000134784
-2.2266e-05
-1.10424e-06
-0.0306692
-1.90934e-05
-1.73077e-05
-0.221065
-1.70553e-06
-2.61231e-06
-2.38383e-05
-3.63581e-05
2.88271e-05
0.798176
0.00113142
0.332095
-0.105483
1.66279
0.0313537
-0.000206368
-0.0089949
-0.230924
-9.62058e-06
-1.88987e-05
-1.43051e-05
-1.53037e-05
-3.91164e-05
-8.0754e-05
0.0113173
0.0429428
-1.02364e-05
-3.17685e-06
-0.00162054
-0.000128321
0.0351194
1.07583e-06
2.04088e-06
-1.81329e-05
0.015103
-0.192627
0.000537382
1.22869
-1.49224e-05
-1.80109e-05
0.00279852
0.000222106
-1.6942e-05
-0.0209444
-1.222e-05
-0.000263381
-0.106229
0.00272436
-0.000279039
-2.87849e-05
7.90715e-06
-2.90568e-05
-1.1021e-05
-0.26486
0.00538849
0.139403
-0.00282048
-0.693264
-1.70089e-05
-2.97645
-0.0158104
0.870116
0.00126678
-1.00024
0.000180589
-0.00745808
-0.000169169
-0.000515589
-5.27375e-08
-1.42743e-05
-1.44803e-05
-0.00188543
-1.22689e-05
-2.41372e-05
0.0359229
-0.563135
-1.40597
-0.00936083
0.00309505
-0.236294
0.00015998
0.000167462
-1.7014e-05
-0.210475
-0.0169463
-4.98577e-05
0.000451363
-0.389808
-1.10605
-0.533644
0.000641451
0.0022999
-3.91797e-06
0.646332
-1.84332e-05
-0.26811
-0.0138441
-0.000573581
0.00189396
-0.000170975
-1.79713e-05
-1.32326e-05
0.0170234
-0.00891939
0.000140686
-5.7252e-06
1.68524e-05
-6.77221e-06
-0.182614
-7.06391e-05
-0.00703309
-2.51505e-05
-0.0637554
-0.0051603
-0.000401996
-0.640764
0.00739267
0.0207011
-3.9141e-06
-0.000733447
0.305403
0.000346621
-2.02483e-05
0.0449763
0.0139568
-1.48427e-05
-2.21433e-05
-0.0159784
0.000128007
-0.00010538
-0.0320394
-0.100423
3.00205e-06
0.000575238
0.272172
0.000661183
-0.000150491
-0.000133095
0.0197007
-0.000387521
-1.58854e-05
-1.49287e-05
-0.727594
-1.11493e-05
-0.224884
-3.27537e-06
-1.14576e-05
-0.0375592
-1.83743e-05
-1.55071e-05
0.0512018
-1.3978e-06
-5.4987e-05
1.89887e-06
-1.80218e-05
-1.85844e-05
0.00234047
-7.80411e-05
0.00447814
0.000142907
-0.263949
0.87554
-0.000140721
-9.05475e-06
-1.18312e-05
0.317612
6.37e-05
8.68936e-05
0.00697435
0.000270885
-2.34491
-2.37504e-05
-3.98278e-06
-1.02312e-05
-2.52015e-05
1.82642e-05
-2.8315e-05
-6.58926e-05
3.67643e-05
-1.76699e-05
-0.00984172
0.00431054
-0.0262676
-4.29633e-05
3.3036e-06
-9.89504e-05
0.757577
-0.873445
0.0559181
1.5586
0.0196091
0.0252129
-0.286745
-6.49809e-05
-0.00134083
0.00242976
-0.43825
-1.51445e-05
-0.0145412
-0.0337526
-0.00826378
-1.44405e-05
-0.003459
-1.62199e-05
-2.21562e-05
-6.87415e-05
0.000707076
2.14525
-0.119483
-1.59498e-05
-2.32073e-06
-1.76596e-05
-3.33145e-06
0.000877952
-1.85534e-05
-0.0557006
0.00357211
-0.000369394
-1.73197e-05
-1.37209e-05
-1.08444e-05
0.134074
0.111157
-6.40513e-05
-9.34847e-05
-0.0389299
-3.51797e-06
-1.71051e-05
-2.38462e-06
1.26994e-05
-1.74595e-05
1.1025e-05
1.04465e-06
-0.0101806
1.29998e-05
-2.82983
-7.28844e-05
-1.58643e-05
-0.00980602
2.32554e-05
0.23678
-1.79202e-05
0.00216634
-0.00739464
-0.0576086
-0.000838049
0.00277327
0.0693239
5.32271e-05
-0.00138097
-2.36349e-05
-1.6296e-05
1.04749e-05
-1.52218e-05
0.00274674
0.00078629
5.36123e-05
-0.000489234
8.49956e-06
-7.94345e-05
0.00115089
0.017918
-3.10026e-07
0.00200475
-0.0106228
0.00117101
0.00671916
1.88504e-06
-1.22053e-05
-0.381946
0.000699376
-1.40963e-05
-1.52199e-05
0.0024475
-9.09522e-06
-1.13041e-05
-0.290298
0.00366483
0.000103686
-6.51408e-05
-4.95516e-05
-2.11802
7.41405e-05
0.243068
2.31778
-1.62261e-05
-1.28809e-05
0.0918206
0.000226309
-0.00367024
-3.90359e-05
-0.0039134
-2.91756e-05
-1.3656e-05
-0.000135331
-0.015747
0.00108505
1.10532
-0.123903
0.0013008
-0.124691
0.0849224
-6.95922e-06
0.0549969
1.99043
0.0002637
1.30909
-7.47223e-06
-0.00123676
0.00250371
-0.0180182
-0.00503599
-0.00778214
-0.00103609
0.0400056
-1.66527e-05
-5.47327e-06
0.823915
8.79057e-06
-1.42933e-05
-1.75123e-05
-3.53354e-05
1.61763e-05
-3.8825e-05
-1.45325e-05
-1.57253e-05
1.00618
0.22892
-1.87851e-05
-2.0896e-05
-0.0720995
0.0210646
-2.80946e-06
-0.0164141
-0.13571
0.00248216
-1.14959e-05
-1.5297e-05
0.146638
-4.59983e-05
0.00303055
0.0037698
-1.11846e-05
-0.00125009
0.824453
-1.89479e-05
-0.183013
1.18667
0.217131
-3.40682e-05
-1.80088e-05
-1.67963e-05
3.02928e-06
-2.00745e-05
-0.00349196
0.0171073
-2.05156e-05
-0.05474
0.122866
2.01209e-05
-1.53867e-05
-2.05315e-05
-0.0255912
0.0750338
-0.00384563
-0.00159312
1.30514e-05
0.967476
-0.0124193
-1.14467e-06
-1.93967e-05
0.000214225
0.00127886
-0.508754
0.00895062
-7.09559e-07
-0.858641
-0.0177974
0.000984434
-1.48654e-05
-1.60695e-05
-0.000109853
-1.61435e-05
-4.8591e-05
-1.09098e-05
0.00420084
-0.0569622
-1.08035e-05
-1.25146e-05
0.000933317
-1.15245e-05
-2.0245e-05
-0.000142522
-0.0715721
-1.03172e-05
-0.000158661
0.177514
-0.0121383
0.00159253
0.0031183
-2.25052e-05
-0.000291537
-2.52584e-05
4.00134e-06
-1.72038e-05
1.15157e-05
-0.30309
0.000667936
-5.62202e-05
0.00159829
-9.24469e-06
-0.0578053
-0.0948006
-1.58778e-05
-0.0172828
-1.77462e-05
-3.02998e-05
-0.00113446
-0.448489
0.000140782
-5.63131e-05
6.57293e-05
0.00183899
-3.19382e-06
-0.00893601
1.47402
-1.09908e-05
0.00354251
-0.119029
-1.06319e-05
-6.42383e-05
-0.0588917
0.00376938
-1.76193e-05
-0.141634
9.78843e-05
-1.57221e-05
0.768796
-0.00616018
0.00440229
-1.30161e-06
1.34508
-0.0014112
-1.20999e-05
0.00257726
0.000413728
-2.56657e-05
0.0536114
0.362096
-0.0330643
0.00132784
-0.00476056
-1.04903e-05
0.0253556
-0.0165083
-0.00681865
-0.0692849
-8.18523e-06
0.087492
-1.0011e-05
-1.60963e-05
0.00259963
-5.15254e-05
-0.0236631
-0.0587696
-1.86539e-05
1.09677
-0.192297
0.50247
0.000405769
0.00352346
-3.12748e-07
7.24655e-05
-2.26554e-05
6.96438e-07
0.165144
-0.155444
1.13691
-0.118785
0.200515
0.0506668
-0.238742
-2.61975e-05
-3.54082e-05
2.39536
0.00362463
-9.0789e-06
-1.42908e-05
-0.0684804
-0.000887552
-0.000209651
-1.59762e-05
-1.42997e-05
-0.0110042
-1.50762e-05
0.021833
-0.0408281
1.59479e-05
1.04583
-2.62408e-05
-0.0920976
-0.0295743
-0.0702539
0.000122169
0.315855
4.70068e-05
-1.7793e-05
-5.49905e-05
-0.153496
0.000789219
-0.00150564
-2.32022e-05
-1.68456e-05
0.018973
0.331578
-1.67797e-05
0.00260866
-0.0320499
1.09149
0.0317356
-1.0068e-05
-8.24149e-06
-0.224182
1.96856e-07
-3.12404e-05
-0.000159814
-1.58077e-05
2.06078e-06
-1.04613e-05
-1.62271e-05
4.6417e-05
-1.9483e-05
-0.00114593
0.000775542
2.47008e-05
2.6106
-0.649036
-0.00038302
-3.39582e-06
-1.77957e-05
0.000189597
-1.69032e-05
-1.84781e-05
-1.1855e-05
-0.000264471
-1.15254e-05
3.58446e-05
-0.000155561
0.000937325
0.031817
-4.88507e-06
-0.00155078
-0.00305347
-0.000280503
0.000688259
0.000465396
1.01437e-06
-1.35619e-05
-0.000934966
-0.00386775
-4.16513e-05
-0.0996508
-0.00644651
-1.78724e-05
-0.00614547
1.48852e-05
0.00453323
-0.138031
0.100326
0.420535
-3.03573e-05
-1.9589e-05
0.368613
0.000152312
-0.971176
0.00518033
0.338921
-0.167991
-1.16567e-06
0.00177428
-1.6868e-05
0.00149101
0.000480627
0.690489
-1.4582e-05
-9.95637e-06
0.0648688
-4.63442e-06
-0.0495304
-2.76711e-05
-0.100777
0.310274
0.00252467
-0.00215586
-0.632679
-2.03339e-05
-1.01667e-05
-1.47741e-05
-0.416692
-0.0516069
-2.72238e-05
-3.07703e-05
-1.12357e-05
-3.43245e-06
0.00394102
-2.26355e-05
-1.77202e-06
-0.164858
-2.19567e-05
-1.72823e-06
0.000145807
-0.232495
-0.20753
0.222326
-1.49233e-05
-0.0161912
0.000711118
0.000194164
-0.000554356
-0.079517
-0.310058
0.000184412
-0.0119801
-2.78481e-06
0.00144879
0.00639354
0.00330289
0.296129
1.77934e-05
-0.000616202
3.52713e-06
-0.107165
0.0195187
-1.17632e-06
-7.51696e-05
2.70166e-05
2.64514e-05
0.115676
-1.11004e-05
-1.46803e-05
-1.75764e-05
1.2256e-06
-2.5662e-05
-7.44734e-05
-1.73701e-05
-3.92286e-05
-1.78439e-05
-2.05567e-05
-0.699132
0.0236735
0.00890505
-9.5725e-07
-3.27255e-06
-5.7232e-06
-8.24789e-06
-4.42059e-06
-0.00157166
-6.34809e-06
-1.07771e-05
-1.73332e-05
-1.40608e-05
0.000650101
-2.30279e-05
-0.223123
-1.33808
0.00196371
2.33525
-1.57475e-05
-0.247695
-0.000140986
-0.00338012
-4.60587e-05
0.661859
-3.21694e-05
-1.28715e-05
-7.69831e-06
-0.0227106
-0.000171839
-1.43135e-05
0.000957652
-0.000206746
-1.46071e-05
-0.00100147
-0.0214911
-0.00117284
-8.28513e-06
0.000168743
0.306268
0.00109752
-0.188519
-1.43978e-05
-3.69864e-06
-1.38499e-05
0.000372189
-0.000639593
-0.0397171
-0.00140338
1.07122e-06
0.0217681
0.00358846
0.00452474
-1.68806e-05
-0.000348306
0.863494
-1.64144e-05
-1.95115e-05
-0.000597762
0.0574306
1.26452e-05
3.24415e-06
7.42554e-06
-0.0015487
-1.40605e-05
-0.0273245
-9.00434e-06
0.000193635
0.000268116
0.874513
-1.02414e-05
-2.09999e-06
-3.5121e-06
0.000646393
-3.08873e-06
-0.622623
-0.033076
-0.00137656
-0.138186
-1.8616e-05
0.0141732
-8.0745e-06
-1.02779e-05
0.000161439
0.00313973
-0.00590302
0.00919478
-0.0935641
-0.00268141
0.000580262
0.00146958
-3.14315e-05
-0.0810488
-1.04082e-05
1.58207e-05
-0.22175
-1.97534e-05
-0.019245
-0.0135401
-0.041892
-0.212752
0.0314252
-0.133217
-0.0305358
0.00314174
-5.58103e-05
-0.00193521
-1.51584e-05
1.75965e-06
-1.57826e-05
-0.398524
-3.57094
0.0822505
-0.000400868
-0.000211512
-0.0622918
-1.46646e-05
0.00136663
-3.83001e-06
0.00132499
-2.05515e-05
-3.69275e-06
-0.000144572
0.0018428
-0.0308627
-0.00111896
0.00037802
5.29119e-06
0.000668637
-0.336283
-2.19162e-06
0.00284165
0.0402352
3.06804e-07
0.00191889
-1.00449e-05
0.150369
-9.68264e-05
0.576692
-1.05757e-05
-1.61461e-05
0.000122308
0.000143232
1.84249
-0.000759941
-0.13027
4.36166e-06
-1.05246e-05
-1.00224e-05
-2.55427e-05
6.78551e-07
-1.82509e-05
1.48528
1.06178
7.11578e-05
5.67391e-05
8.71602e-05
0.000164919
-1.71552e-05
-2.11356e-05
0.00193496
0.103959
-0.019958
1.90518e-06
-0.10263
-8.60176e-06
0.00320378
-5.78289e-06
0.00199406
-0.0787923
-0.154842
-0.0283366
-3.22487e-06
-1.13047e-05
-1.53967e-05
-1.41502e-05
-1.38332e-05
-1.5491e-05
0.302011
-1.25477e-05
-1.62565e-05
-3.03433e-05
-0.00165721
-2.12181e-05
0.0408111
0.989516
0.00713282
-7.72905e-06
-0.0826968
2.0465e-07
-0.101852
0.0150487
2.06306e-05
0.0358895
6.68652e-05
0.00349071
2.15902e-06
-6.98311e-05
0.000528864
-0.000608701
-0.00357492
0.224003
-0.0230073
0.00174695
0.0019701
-3.36217e-05
-2.03033e-05
0.0708864
-1.03363e-05
0.51829
2.70631e-05
0.59198
1.04033
0.0572614
-6.90199e-05
0.0298032
-0.000113692
-8.24613e-05
-8.57376e-07
-0.000132855
0.00376589
-1.83799e-05
-0.0917427
0.023219
-0.003186
-2.0375e-05
0.000119231
-0.0744307
-0.225389
-0.0579528
8.95684e-05
0.0039083
-0.175574
0.0406893
-2.02175e-05
-0.00145563
-0.0714473
0.00364425
-0.227073
-5.45355e-05
-0.000362899
-0.00763258
-9.26796e-06
-0.0277124
0.00247173
-1.65954e-05
-0.00840021
0.0608524
1.78337
0.000270679
0.00130888
0.000190882
-2.35911e-06
0.00320976
-1.98402e-06
-0.00503851
0.000251937
-1.35683
0.621153
0.72599
-0.047043
0.00130203
0.0968223
6.68175e-05
0.0168198
-0.0561349
0.281852
-1.34801e-05
-6.41994e-05
-1.35222e-05
0.000138706
-2.89148e-05
-1.88453e-05
-0.120107
-1.60585e-05
-8.22683e-06
-0.00109781
-5.5516e-05
-6.22434e-06
0.00243739
0.432739
0.00141868
2.04819e-06
-1.18553e-05
0.000564827
-3.94469e-05
-1.54017e-05
-1.53028e-05
-3.93702e-06
0.440468
0.0001463
-0.157158
-0.000654405
-1.46928e-05
-4.02747e-06
-0.035406
-0.00319583
-0.74321
0.00529939
-2.10095e-05
0.0012149
-1.48105e-05
0.000410569
-0.00142362
-0.0955192
0.011283
4.27703e-05
2.16097e-06
-0.000408796
0.00416674
-0.00805121
0.0909243
9.53992e-05
4.16299e-07
-1.00922e-05
6.1402e-05
5.34245e-05
1.14727
7.61613e-06
-0.237445
-4.18938e-06
-1.82082e-05
-3.94157e-05
-1.01894e-05
0.165596
-0.00118259
0.0428474
-8.86078e-06
-0.00043907
0.00210365
-2.00324
4.78643e-06
-4.61289e-06
-0.0170357
-0.0577115
0.564929
0.170738
-0.489979
-9.66053e-05
0.000409117
5.14691e-05
0.00599141
-0.556626
0.00170482
-1.29559e-05
-1.62311e-05
-1.93886e-06
-0.463911
0.414131
-0.000271373
1.58203
-1.01432e-06
-1.34276e-05
-1.54009e-05
-0.0287248
0.0150364
-0.638074
-1.93086e-05
-3.68589e-05
0.000485724
-0.394656
-1.05492e-07
0.10371
-0.000118255
0.000811877
-1.33836
-1.40415e-05
0.0530611
-0.0916472
0.0101572
-1.37387
-1.23957e-05
5.55037e-05
0.000255954
-0.882874
0.000740606
-8.30913e-06
0.920594
-0.0032105
7.84767e-07
-7.47121e-06
-0.123527
-3.88926e-06
-0.118289
-1.07452
3.54808e-05
-3.86947e-06
-0.000247699
0.000143747
1.30068
-9.25201e-06
-0.000774717
9.98089e-05
-0.921323
0.11729
-1.84286e-05
-1.45914e-08
-0.000743295
-0.000567527
-1.83494e-05
3.1732e-07
-1.49761e-05
0.0032398
-1.0996e-05
0.00677545
-1.0909e-05
7.10878e-06
-0.000144159
-0.000103005
0.00122555
0.000139686
-0.128972
-0.0413381
-0.134434
-1.8916e-05
-4.94265e-07
-0.407562
0.000156681
0.00323178
-0.17401
0.0031443
-0.0445281
-0.845655
-2.09946e-06
-0.0581387
-0.0431424
-4.38701e-05
-1.04578e-05
-1.91966e-05
-1.96977e-05
1.47583
-0.00871946
-1.38829e-05
1.27279
-0.25921
0.0816892
-6.07337e-06
-3.72565e-06
-0.60849
-1.49422e-05
-1.48757e-05
-7.0448e-05
-1.6671e-05
-0.0105688
-3.03663e-05
-0.659313
0.0892182
4.83434e-05
-0.235514
-0.000933419
-0.109844
-0.0376556
-1.82295e-05
-0.000291851
-0.00095187
0.11598
0.0569355
-0.0135056
-1.38892e-05
-1.6977e-05
0.00281022
-3.59448e-06
-0.0602069
0.548278
-1.45258e-05
-0.466054
2.29062e-06
-0.0521564
6.20717e-05
-0.000373079
-4.78126e-05
2.23199
-0.438425
0.373676
0.716833
-2.17134e-06
-0.647394
-2.2178
-3.48993e-05
0.564268
-2.46215e-05
-3.06359e-06
-1.63377e-05
-0.000273006
-0.000218284
-1.58865e-05
-1.44871e-05
-0.00314775
0.00224033
0.00240134
1.55756
0.00347402
-0.000203268
5.58364e-05
0.00345228
-2.66852e-07
0.000285529
-0.440024
-0.291436
-0.061336
0.000115319
5.33395e-05
-6.23002e-05
-0.000989854
-0.000120019
-1.93489e-05
-0.0660299
0.186357
1.16964
0.00183564
-1.59455e-05
0.00259595
-0.183301
7.96229e-05
-3.93529e-06
0.000112931
-9.67113e-05
0.00217996
-1.37945e-05
-0.0984656
-1.62109e-05
-1.17253
-3.28373e-06
-0.0135825
-0.00226209
-0.010051
-2.06862e-06
-0.00125142
-9.70141e-06
3.23847e-06
0.00302677
0.0496242
-1.52281e-05
-2.12553e-05
0.339231
-1.18548e-05
0.00346729
0.165866
-0.000661846
0.475143
-1.38561e-05
0.805644
0.000504366
-4.43536
-6.76049e-07
-5.2328e-05
0.0448078
-1.09223e-05
0.0205763
-0.000289055
-0.000340382
-0.247939
-6.87235e-05
-1.76096e-05
-2.94295e-05
-1.52733e-05
-0.0382033
0.506853
3.19175e-06
-0.139259
0.00324991
-0.0827402
-1.97176e-05
0.0545561
-0.0133852
-0.000126895
0.000605491
-1.5923e-05
1.06014
-3.23969e-06
0.32397
-8.7928e-07
-3.24956e-05
-0.000129066
-1.62892e-05
-1.19188e-05
0.000259358
-4.95781e-05
-1.50458e-05
0.0140098
5.82865e-06
0.0012397
0.000193461
-0.188747
0.000846427
-6.16644e-05
-0.00150916
-1.47276e-05
-1.59342e-05
-0.00025647
-0.941414
-0.0819186
0.0309144
-0.0214685
-3.35823e-06
-2.08178e-06
8.23438e-06
-1.42009e-05
-2.39131e-06
0.00343081
-9.41472e-06
0.000179894
0.00042478
3.2607e-05
-0.0762602
-2.49643e-05
-3.20487e-06
0.962861
-0.353045
-1.67969e-05
0.00161198
-7.07815e-05
0.0423187
-1.57269e-05
-0.000114548
0.576431
-3.44532e-05
-0.093787
-0.0290062
-1.95198e-05
-4.92962e-05
0.0541633
-0.000307274
0.0034418
-0.00110306
0.357349
-0.000122721
0.00117632
-0.00077775
0.0712228
-7.35647e-05
0.531191
-0.0581876
0.801233
0.459876
-1.34455e-05
-1.62766e-05
-1.81221e-05
-0.0197061
-0.0458557
-0.129254
0.107802
-3.45286e-06
0.00191902
5.07612e-05
1.10831
-1.55502e-05
0.00106285
-0.000274978
8.71547e-05
-7.76627e-05
-0.00117024
-1.07193e-05
-2.31931e-05
-1.64803e-05
0.00362426
-8.11934e-05
-1.35074e-05
0.00808342
-2.77856e-05
-2.68186e-05
-1.17745e-07
0.913843
-0.000184475
-0.0479846
-0.000552433
-5.18284e-05
0.393977
-0.000339151
0.00654826
2.29532e-06
-1.76989e-05
2.1028
-0.247364
-0.0391449
9.2679e-05
-0.000268383
1.5581
0.00356992
0.00266007
-0.0326162
0.146771
0.43937
-3.47109e-06
-0.239768
2.7356e-05
0.00375366
-0.362624
0.000963463
0.000464262
-2.51856e-05
1.2446
0.00227514
-0.0210131
-0.00312469
-1.58828e-05
-1.93397e-05
-1.11844e-05
-0.554212
-7.16255e-06
0.120745
0.00385216
-0.112035
-2.44038e-06
-1.21193
0.826637
0.0431877
-0.0277409
-4.31395e-05
-1.79079e-05
-1.77907e-05
0.000104306
-1.60326e-05
-0.000284739
0.867364
-3.91032e-05
-5.86727e-05
0.158076
0.0787186
-0.145981
-0.000535162
-0.000541805
-1.02402e-05
-0.117297
-3.22451e-05
0.669032
0.00232606
-0.0274942
-0.00120007
-0.000690786
0.0484024
-1.92925e-05
-1.78517e-05
0.455717
-0.108477
-0.0967056
0.0015126
0.00269308
-1.67166e-05
0.00682698
-1.97264e-05
0.0286935
-1.9379e-05
6.16306e-06
-0.024617
-2.85462e-05
-0.000528058
-9.39818e-06
0.374538
0.46544
0.00315911
-0.000149869
0.445893
0.000121875
-1.10146e-06
0.4164
1.33637
-0.449093
-1.52981e-05
-1.48466e-05
-0.298265
1.52092
1.13751
-1.56315e-05
-9.73032e-05
-1.69633e-05
-0.000270993
-2.60283e-05
-1.2018e-05
0.399027
-1.35792e-05
-2.08549
-0.000202056
0.00687619
-1.0925e-06
-0.0335197
-0.30371
0.00271094
-0.0147056
-0.0296244
-8.68298e-06
0.00204809
1.15462
-1.42134e-05
-2.33895e-05
-1.14925e-05
0.715642
0.239949
-1.74754e-05