/*--------------------------------*- C++ -*----------------------------------*\
| =========                 |                                                 |
| \\      /  F ield         | OpenFOAM: The Open Source CFD Toolbox           |
|  \\    /   O peration     | Version:  v2012                                 |
|   \\  /    A nd           | Website:  www.openfoam.com                      |
|    \\/     M anipulation  |                                                 |
\*---------------------------------------------------------------------------*/
FoamFile
{
    version     2.0;
    format      ascii;
    class       surfaceVectorField;
    location    "550";
    object      Uf_0;
}
// * * * * * * * * * * * * * * * * * * * * * * * * * * * * * * * * * * * * * //

dimensions      [0 1 -1 0 0 0 0];


internalField   nonuniform List<vector> 
27882
(
(0.99388 0.00787885 8.51949e-23)
(0.992431 0.00701932 -7.56856e-23)
(0.993987 0.00582327 -5.59942e-22)
(0.933745 -0.0134295 9.66991e-23)
(0.932443 -0.0234459 -6.09316e-22)
(0.943485 -0.0193468 3.92265e-22)
(1.00011 -6.28604e-05 -7.2273e-23)
(1.00046 -8.34939e-05 2.14052e-22)
(1.00073 -0.000113318 0)
(0.994408 0.0103338 1.00951e-21)
(0.995605 0.00869297 -1.89122e-22)
(1.02729 0.0174872 6.53074e-22)
(1.03009 0.0175361 -5.68605e-22)
(1.02807 0.0199796 -2.86344e-22)
(1.01151 0.000501044 0)
(1.01246 0.000788196 0)
(1.01195 0.000590094 1.4037e-22)
(1.01764 -0.00307565 2.5663e-22)
(1.01776 -0.00318904 1.12513e-22)
(1.01782 -0.00314513 4.31252e-22)
(1.0249 -0.0104588 -2.62597e-22)
(1.02503 -0.010713 -8.49607e-22)
(1.0248 -0.0106413 -8.30421e-22)
(1.02471 0.0172336 -1.78567e-21)
(1.02643 0.0152747 1.27258e-21)
(1.02263 0.0168086 -7.08475e-23)
(1.02056 0.0159326 2.39081e-21)
(1.02227 0.0144626 2.96277e-21)
(0.938036 0.0130446 -3.46285e-21)
(0.942037 0.00437212 -4.37774e-22)
(0.949 0.0119311 1.08808e-21)
(1.01077 -0.120891 -1.06073e-21)
(1.00654 -0.120596 -1.29936e-21)
(1.01451 -0.120204 -3.75259e-21)
(0.954625 0.0981704 -1.54868e-21)
(0.971508 0.0966995 9.52114e-22)
(0.95781 0.107501 -5.56351e-22)
(1.0308 -0.0120191 1.71983e-21)
(1.03144 -0.012402 3.58831e-22)
(1.03124 -0.0116535 -7.40774e-22)
(1.01723 -0.00286241 2.89489e-22)
(1.01744 -0.00298688 -5.54465e-22)
(1.01731 -0.00299675 -3.07901e-22)
(1.01506 -0.00130772 3.18067e-23)
(1.01495 -0.00124959 1.31348e-22)
(1.015 -0.00133043 1.45625e-22)
(1.00806 -0.114793 5.64777e-23)
(1.00653 -0.120068 6.71774e-23)
(1.01978 0.00399723 -7.87224e-24)
(1.01946 0.00380743 2.26471e-22)
(1.01703 -0.00277349 1.2053e-22)
(1.01714 -0.00274866 1.08526e-22)
(1.02227 -0.0134755 3.62973e-22)
(1.02266 -0.0140787 -6.59395e-22)
(1.02302 -0.0134372 0)
(1.01784 -0.00200029 -3.61009e-21)
(1.02168 -0.0171646 -1.39251e-21)
(1.04122 -0.0296835 -3.87783e-22)
(1.06519 -0.258494 -8.6764e-21)
(1.06989 -0.253239 9.29426e-21)
(1.06296 -0.252937 -1.79624e-23)
(1.00995 0.000335082 0)
(1.01107 0.000502113 0)
(1.00868 0.00064318 1.51952e-22)
(1.00925 0.000765848 5.1251e-22)
(1.00958 0.000944758 1.35977e-22)
(1.06132 -0.262972 -6.99821e-21)
(1.06802 -0.263569 -2.77202e-20)
(0.907496 -0.238817 1.82504e-22)
(0.917044 -0.236472 -5.88099e-22)
(0.913306 -0.247987 -5.90155e-21)
(0.848897 0.299851 -2.80936e-21)
(0.850705 0.301982 2.31038e-22)
(0.849783 0.303282 -8.97845e-21)
(0.91912 0.0478541 8.62251e-21)
(0.920916 0.0379956 -1.57736e-21)
(0.910236 0.0451774 5.90695e-21)
(0.97983 -0.0977433 2.43459e-21)
(0.973938 -0.0996167 4.56621e-21)
(0.975887 -0.0934031 1.30074e-21)
(0.912632 -0.0473284 1.19438e-22)
(0.917415 -0.0597641 4.5492e-21)
(0.925211 -0.0503236 -5.6397e-22)
(0.823957 0.281902 -1.57256e-20)
(0.833459 0.216167 1.65364e-21)
(0.798502 0.270178 -2.3099e-20)
(0.84622 0.296794 -1.04524e-21)
(0.8439 0.302832 1.41018e-20)
(1.02481 -0.0102902 8.68818e-22)
(1.02495 -0.01035 8.80093e-22)
(1.02054 -0.298222 6.08998e-21)
(1.03022 -0.301573 0)
(1.024 -0.30978 -1.72955e-20)
(1.03299 0.0176599 4.52425e-22)
(1.03574 0.0182304 -2.92216e-23)
(1.0338 0.0205752 2.29656e-21)
(0.911578 -0.0320606 -6.25094e-21)
(0.903045 -0.0381055 -7.04113e-21)
(0.953367 0.0906714 -2.53174e-21)
(0.939597 0.100181 -8.59778e-22)
(1.03174 0.0154078 -1.72457e-21)
(0.811229 -0.332678 -1.05661e-20)
(0.784801 -0.319437 1.75442e-20)
(0.807965 -0.34477 9.20726e-22)
(1.02444 0.0103158 1.15082e-22)
(1.02396 0.0103286 -1.19594e-23)
(1.02404 0.00995363 -1.28249e-22)
(0.935983 0.15533 -2.88798e-21)
(0.925413 0.127737 0)
(0.939225 0.132251 0)
(1.0155 0.0162902 -3.62422e-22)
(1.01417 0.0185276 -3.93078e-22)
(1.01713 0.0179623 -9.05237e-22)
(0.962198 0.158699 -1.77299e-22)
(0.949438 0.163049 4.5117e-22)
(0.949677 0.146205 5.65155e-23)
(1.00753 -0.0152226 4.5734e-22)
(1.0084 -0.0151962 2.26702e-22)
(1.00829 -0.0161363 -5.06502e-22)
(1.01339 -0.000508009 -1.65209e-23)
(1.01332 -0.000509857 -2.45792e-23)
(1.01366 -0.000542864 1.6429e-22)
(0.899717 0.2146 5.33746e-22)
(0.934263 0.140872 4.44865e-21)
(0.901158 0.152757 -7.43601e-21)
(1.01406 0.0148537 6.91774e-23)
(1.01615 0.0146511 -1.19189e-21)
(0.966742 -0.0878 1.71885e-21)
(0.968047 -0.0820136 -2.00977e-22)
(0.961916 -0.0843878 1.98805e-21)
(0.355156 -0.148717 -3.43518e-22)
(0.268203 -0.115154 8.30487e-21)
(0.342324 -0.168075 1.87296e-20)
(1.00018 0.0104536 1.44194e-21)
(0.998653 0.0104903 3.92e-22)
(0.999618 0.00870906 6.61888e-22)
(0.934187 0.0228503 -1.38763e-21)
(0.925823 0.0153654 -3.55904e-21)
(0.783402 -0.334175 5.24258e-22)
(0.797572 -0.33633 0)
(0.789479 -0.321938 -3.95907e-21)
(1.00153 0.0123014 7.15366e-22)
(1.00165 0.010271 -1.28718e-22)
(1.00911 -0.00791931 0)
(1.0094 -0.0067032 0)
(1.00822 -0.00715647 0)
(1.04099 -0.18779 -7.67994e-21)
(1.04674 -0.190833 -2.18282e-20)
(1.04129 -0.194287 -1.73858e-20)
(0.988956 0.0943745 1.91152e-21)
(0.985962 0.0878528 3.32553e-21)
(1.00441 0.000644397 -6.75838e-22)
(1.00449 0.000543762 -6.01246e-22)
(1.00462 0.000475881 4.7976e-22)
(1.02199 -0.0127934 -6.57792e-22)
(1.02151 -0.0133056 3.53986e-22)
(0.969392 -0.0768139 -3.15263e-21)
(0.96539 -0.0730909 7.21808e-23)
(0.970955 -0.07142 -2.29092e-21)
(1.00431 0.000738569 2.99971e-22)
(1.00423 0.000826669 1.2703e-21)
(1.01272 -0.000404501 5.99752e-24)
(1.01321 -0.000509725 3.72669e-23)
(1.01275 -0.000362458 -1.67286e-22)
(1.00666 -0.015166 2.27662e-22)
(1.0069 -0.0142956 -5.51033e-22)
(0.871767 -0.31704 1.0299e-20)
(0.869987 -0.313761 -6.49509e-21)
(0.670312 0.288311 -2.57167e-22)
(0.633555 0.23131 3.46263e-21)
(0.679537 0.28787 1.88586e-21)
(1.01178 -0.000332763 0)
(1.01268 -0.000445799 3.67843e-23)
(1.06561 -0.326781 2.23208e-20)
(1.07232 -0.320833 2.45432e-21)
(1.05515 -0.321985 2.16915e-20)
(1.00925 -0.00058155 7.90644e-24)
(1.00851 -0.000442567 -2.58141e-22)
(1.00867 -0.000452431 -3.90399e-23)
(1.01048 0.00708953 3.59814e-22)
(1.01021 0.0067999 1.58624e-22)
(1.01029 0.00718814 8.40466e-22)
(0.929366 0.0497615 6.42773e-21)
(0.920357 0.058805 2.29478e-21)
(1.01965 0.0043356 -5.17961e-23)
(1.02012 0.00429959 1.9605e-24)
(0.771496 -0.346968 -3.26511e-21)
(0.76795 -0.33427 3.10411e-21)
(0.889495 -0.259966 0)
(0.893421 -0.251228 -8.10549e-22)
(0.900843 -0.25964 5.19486e-21)
(1.01631 -0.00285792 -1.02481e-22)
(1.01645 -0.00296877 2.38485e-22)
(1.01636 -0.00293607 -9.22719e-23)
(1.03036 -0.0126786 7.87826e-22)
(1.02988 -0.0121606 3.11481e-23)
(1.0292 -0.0128942 7.8834e-22)
(1.10266 -0.0136585 4.93341e-22)
(1.10082 -0.0041028 2.70888e-21)
(1.09296 -0.0114492 1.91152e-21)
(0.843161 0.295367 1.08057e-20)
(0.813499 0.329696 -6.32688e-21)
(0.932592 -0.358424 9.87393e-21)
(0.947877 -0.348326 5.97294e-21)
(0.949638 -0.374223 4.40424e-21)
(1.00055 -0.107273 -8.65744e-23)
(0.999791 -0.111481 -1.03736e-22)
(0.996525 -0.105357 -4.91686e-23)
(1.02284 0.0190855 -1.57921e-21)
(0.975156 0.166373 -2.29519e-22)
(0.975826 0.149879 2.72329e-21)
(1.02418 -0.132202 1.08771e-21)
(1.02893 -0.133285 -1.19679e-22)
(1.0252 -0.137673 -1.36799e-20)
(0.838763 -0.340913 8.55454e-21)
(0.824913 -0.306224 -2.41746e-20)
(1.0041 -0.109545 0)
(1.00219 -0.103894 -2.09854e-22)
(1.05708 -0.00552716 -1.16277e-22)
(1.06115 -0.00621636 2.2983e-21)
(1.05964 -0.00176511 1.61819e-21)
(1.01296 -0.0196133 3.98962e-22)
(1.01184 -0.0189056 -6.87528e-22)
(1.012 -0.0204235 2.61764e-23)
(1.05079 -0.169456 2.11756e-21)
(1.04745 -0.173677 -3.46935e-20)
(1.04499 -0.168565 -2.33862e-20)
(1.04618 -0.0225886 4.02675e-21)
(1.04605 -0.0208959 4.07452e-21)
(1.03167 -0.0125757 -6.11681e-22)
(1.03095 -0.0135772 9.52285e-22)
(0.870581 -0.318098 1.52272e-21)
(0.872614 -0.318526 8.68688e-21)
(1.05603 -0.168476 -9.22635e-21)
(1.05227 -0.163709 1.39714e-20)
(0.582126 -0.384021 1.04753e-20)
(0.540407 -0.390469 -2.53304e-22)
(0.518497 -0.386249 5.1511e-21)
(1.01201 -0.00040557 -5.6775e-23)
(1.01244 -0.00035476 -1.63478e-23)
(1.01325 -0.000356434 4.93189e-22)
(1.04054 -0.107259 -1.59098e-21)
(1.04462 -0.108075 9.40143e-21)
(1.0413 -0.11153 -5.88511e-21)
(0.428792 -0.17288 4.91379e-20)
(0.354466 -0.124747 1.43852e-20)
(1.01626 -0.00280126 5.31921e-23)
(1.01619 -0.00275029 4.07622e-23)
(1.01117 -0.00183709 -1.89176e-22)
(1.01131 -0.00193344 5.37728e-23)
(1.01125 -0.00180125 1.03732e-22)
(1.0221 0.00748643 -1.08753e-22)
(1.02178 0.00714475 9.61696e-23)
(1.02235 0.0072289 4.11724e-23)
(1.00259 -0.0709577 2.82515e-21)
(1.00594 -0.0731157 -2.00388e-21)
(1.00161 -0.074798 3.18261e-21)
(0.995257 -0.113248 -1.38273e-22)
(0.999307 -0.115836 -3.50181e-22)
(0.997773 -0.119584 -1.56297e-21)
(1.01578 -0.00203841 -1.2671e-22)
(1.01572 -0.00204419 -2.28395e-22)
(1.01565 -0.00203162 3.40846e-22)
(0.874486 0.269836 1.47191e-20)
(0.900951 0.251063 1.07322e-20)
(1.02595 -0.0243634 2.65842e-22)
(1.02741 -0.0240381 -5.77972e-22)
(1.02617 -0.0225708 -1.36799e-21)
(1.01065 0.00696851 7.13179e-22)
(1.01078 0.00736813 -2.13646e-22)
(1.01109 -0.00186995 -3.83818e-22)
(1.01102 -0.00173576 0)
(1.05688 -0.333701 -1.68511e-20)
(1.06641 -0.326641 -1.55623e-20)
(0.998555 0.0218116 7.90128e-21)
(1.02169 0.00489181 3.50136e-21)
(0.971167 -0.0902929 -2.35654e-21)
(0.965661 -0.0928563 1.834e-21)
(0.612483 -0.381519 -9.11666e-21)
(0.634343 -0.380976 6.23074e-21)
(0.939619 -0.305756 -4.7597e-21)
(0.93534 -0.291634 8.5962e-22)
(0.952512 -0.298126 -1.4492e-21)
(0.951488 -0.136234 -1.52575e-21)
(0.954123 -0.149647 5.53347e-22)
(0.967099 -0.139597 -7.13569e-23)
(1.0153 -0.00131624 3.42819e-22)
(1.01517 -0.00125808 -5.35129e-22)
(1.01524 -0.00122543 1.7817e-22)
(0.700889 0.329526 1.24989e-21)
(0.656847 0.274308 -2.53425e-22)
(1.00954 -0.0139671 6.63751e-22)
(1.01118 -0.0148905 -7.5772e-22)
(1.01127 -0.0127822 -8.15662e-23)
(1.00389 -0.000453423 -4.76092e-23)
(1.00403 -0.000460073 -4.18852e-23)
(1.00314 -0.000313149 -9.11741e-22)
(1.02528 -0.0263191 6.56556e-22)
(1.02426 -0.0245118 -2.2544e-22)
(0.746238 0.0380276 -6.31374e-22)
(0.70354 0.0295977 -6.47549e-22)
(0.728994 0.0462732 -6.46875e-21)
(0.998949 -0.0687971 -1.07348e-21)
(1.00278 -0.0668553 1.97336e-21)
(1.00368 0.00219738 1.09427e-21)
(1.00372 0.00197453 5.14062e-22)
(1.00374 0.00198764 1.14045e-21)
(0.657216 -0.00843258 -3.22334e-21)
(0.617694 -0.0175238 -8.10442e-22)
(0.63842 -0.0299773 -8.19065e-22)
(1.01646 -0.0202928 -8.64433e-23)
(1.01544 -0.0211101 -4.0163e-22)
(1.01697 -0.0218315 -9.14174e-23)
(1.00569 -0.000587315 -2.4814e-22)
(1.00559 -0.000538194 -6.73462e-23)
(1.00631 -0.000687215 -2.0588e-22)
(0.919441 -0.349656 9.88844e-21)
(0.920553 -0.370929 -1.94302e-21)
(1.01417 -0.0204373 -3.18748e-22)
(1.01386 -0.0189207 0)
(1.00451 -0.00411414 3.13784e-23)
(1.0044 -0.00419714 8.12415e-22)
(1.00438 -0.00389201 8.56944e-22)
(-0.0468043 0.116093 4.45107e-21)
(-0.0357107 0.101176 8.7696e-22)
(-0.037853 0.0931406 3.02037e-21)
(1.00918 -0.00909263 3.5841e-22)
(1.01013 -0.00846123 -2.54621e-22)
(1.00921 -0.013271 9.11418e-22)
(1.00855 -0.0134436 -1.80479e-22)
(1.00856 -0.01262 -2.46157e-22)
(1.00467 -0.00434287 8.38555e-22)
(1.0046 -0.00400989 -9.14329e-22)
(0.938303 -0.145255 -2.57375e-21)
(0.945465 -0.140617 -2.94524e-22)
(0.935749 -0.137763 4.76546e-21)
(-0.0820947 0.231704 -5.13617e-21)
(-0.0807805 0.229658 -1.84496e-20)
(0.973815 -0.0798105 4.14106e-22)
(1.00998 -0.000400076 5.97457e-23)
(1.00897 -0.000210196 -2.71655e-23)
(1.01059 -0.000507574 9.00649e-23)
(1.01909 -0.012079 2.42179e-22)
(1.01929 -0.0110415 1.23398e-22)
(1.01819 -0.0113287 -4.08706e-22)
(0.882574 -0.377803 -1.26604e-20)
(0.908805 -0.376065 0)
(0.92087 -0.383695 8.98506e-21)
(1.02477 0.0107817 1.49958e-22)
(1.02492 0.0104114 5.45333e-23)
(1.00719 -0.000541797 1.56116e-23)
(1.00729 -0.000571724 -1.04097e-22)
(1.00783 -0.0006211 -7.63631e-23)
(0.80895 -0.379864 -3.01201e-21)
(0.82095 -0.396481 -1.45044e-20)
(0.792372 -0.38439 -7.91333e-21)
(1.0159 -0.0178307 -8.77695e-23)
(1.01618 -0.0191117 -1.48372e-23)
(1.01492 -0.0183113 -1.04174e-22)
(0.87206 -0.0360999 7.65668e-22)
(0.861151 -0.0344505 4.21192e-21)
(0.870051 -0.0255311 1.03312e-20)
(1.01861 -0.13181 5.0553e-21)
(1.02185 -0.12743 1.4908e-20)
(1.00778 -0.0124142 1.02779e-24)
(1.00739 -0.0147517 3.04439e-22)
(0.973638 0.149037 -4.61399e-22)
(0.968794 0.155559 -4.52822e-22)
(0.964542 0.145823 -5.29543e-22)
(1.02196 -0.0643204 8.2907e-22)
(1.02489 -0.0653071 -3.3131e-21)
(1.02183 -0.0676186 4.32468e-21)
(0.945651 -0.328425 -5.6719e-24)
(0.927387 -0.315946 -2.51625e-21)
(-0.0546466 0.130153 -3.95124e-21)
(-0.0552506 0.137557 3.06368e-21)
(1.0481 -0.0802205 -2.27502e-21)
(1.05139 -0.0800793 -5.30576e-21)
(1.04952 -0.083644 -1.47895e-20)
(1.04694 -0.339111 -4.35443e-21)
(1.03434 -0.331709 2.37882e-20)
(0.951862 -0.13732 -3.43484e-21)
(0.950283 -0.130599 6.57704e-22)
(0.958178 -0.133414 0)
(0.937242 -0.00382299 2.23748e-21)
(0.949037 -0.00233907 -9.52106e-23)
(0.59894 -0.215275 4.59233e-22)
(0.605293 -0.195402 5.18346e-22)
(0.643085 -0.189718 -7.19351e-22)
(-0.074826 0.236698 -5.15089e-21)
(-0.0710223 0.229813 8.20902e-21)
(-0.063841 0.236458 -1.37747e-20)
(-0.0249983 0.199601 0)
(-0.037223 0.200401 0)
(-0.0272913 0.186358 3.38384e-20)
(1.02548 -0.00267468 1.5069e-21)
(1.02583 -0.00270146 6.9111e-22)
(1.02569 -0.00297347 2.52785e-21)
(1.0378 0.0167829 -1.13325e-21)
(1.03769 0.0136872 3.66913e-22)
(1.04076 0.015101 5.00964e-22)
(0.944058 0.181609 1.31687e-21)
(0.938403 0.176799 -2.55801e-22)
(0.833875 0.297954 8.0689e-22)
(0.840609 0.304701 -2.30361e-22)
(1.03604 -0.10608 -3.2418e-21)
(1.03929 -0.102915 8.01358e-21)
(0.932918 -0.149342 -3.50956e-21)
(0.942284 -0.150981 -1.61977e-21)
(1.06246 -0.0159932 -9.41572e-22)
(1.06784 -0.0179902 -4.41243e-21)
(1.06296 -0.0210276 -3.28731e-22)
(0.926167 -0.00520607 2.97395e-21)
(0.403077 -0.402563 -1.60758e-21)
(0.410297 -0.388269 4.72828e-21)
(0.40659 -0.391771 2.65809e-21)
(1.00445 -0.00541446 -1.47164e-22)
(1.00443 -0.00567164 -1.31728e-22)
(1.00469 -0.00572804 9.78293e-23)
(0.422392 -0.00795371 -1.99923e-20)
(0.353967 0.0314848 -2.68932e-20)
(0.390273 0.0288657 -3.74164e-20)
(1.03539 -0.345554 2.17003e-20)
(1.05034 -0.341197 -1.27861e-20)
(1.02092 0.0673518 2.39504e-20)
(1.05363 0.00358103 1.9e-20)
(1.02841 0.00477298 1.42869e-20)
(1.00361 0.00136573 5.93387e-22)
(1.00351 0.00172646 0)
(1.00338 0.00156901 0)
(1.00422 -0.00508523 4.96811e-22)
(1.00445 -0.00515233 1.37917e-22)
(0.438262 -0.412334 8.62768e-21)
(0.428977 -0.407807 -2.7997e-21)
(0.452833 -0.4036 3.61845e-21)
(-0.0796441 0.234671 1.13783e-20)
(-0.0803027 0.224833 1.70841e-20)
(1.00047 -0.111165 2.85411e-21)
(0.994675 -0.10024 9.0238e-22)
(0.984008 -0.0916839 6.88377e-22)
(0.0577684 0.166974 1.97711e-21)
(0.056592 0.181004 -6.056e-21)
(0.0342483 0.17858 -6.17987e-21)
(0.999894 -1.51916e-05 3.25372e-23)
(0.999686 2.40822e-06 -6.04621e-22)
(0.969259 -0.101926 8.65667e-22)
(0.964726 -0.0985823 1.99747e-22)
(0.963437 -0.105029 -2.21499e-21)
(0.808646 0.0484016 0)
(0.817113 0.0458808 0)
(0.931997 -0.278861 2.51358e-21)
(0.91901 -0.286324 -3.39485e-22)
(1.01635 -0.00251146 2.57939e-22)
(1.01652 -0.00246175 0)
(1.01658 -0.0025551 -2.72046e-22)
(1.01619 -0.00271476 2.52425e-23)
(1.01633 -0.00282967 7.51682e-23)
(0.939461 -0.227231 9.60887e-21)
(0.944822 -0.233744 4.07393e-21)
(0.934428 -0.235263 -1.46637e-21)
(1.01145 -0.295329 -8.79499e-22)
(1.01829 -0.288742 -1.36799e-20)
(1.03411 -0.00569237 -3.81415e-21)
(1.03378 -0.00499314 0)
(1.01061 0.00543402 3.40357e-22)
(1.01044 0.00555911 1.19232e-22)
(1.0103 0.00525445 -3.29341e-22)
(1.01162 -0.0120596 -1.07817e-21)
(1.01225 -0.0114151 -4.43918e-22)
(1.01125 -0.0109525 -1.03267e-21)
(1.03979 -0.182359 4.07883e-21)
(1.03502 -0.185546 1.56898e-20)
(1.03757 -0.00879645 1.01653e-21)
(1.03822 -0.0094675 -1.72037e-21)
(0.508335 -0.274883 1.15831e-21)
(0.51825 -0.254418 1.81171e-21)
(0.484636 -0.263054 -4.27161e-21)
(1.01857 -0.00159337 -7.06528e-22)
(1.0186 -0.0014954 1.77399e-22)
(1.01876 -0.00162009 4.83239e-22)
(0.927847 -0.0670053 -6.83738e-22)
(0.916823 -0.0687019 2.39002e-22)
(0.998425 -0.0256779 5.30139e-23)
(1.00103 -0.0269081 -1.09178e-21)
(0.998343 -0.029086 0)
(0.503438 -0.208421 2.39145e-20)
(0.493834 -0.181473 3.18267e-20)
(1.12043 -0.0143096 0)
(1.1022 -0.00583386 0)
(1.13327 -0.0709827 0)
(-0.0212409 0.208266 0)
(-0.009577 0.195867 1.51277e-20)
(1.01854 -0.00171348 -1.34733e-21)
(1.01839 -0.00157315 9.92165e-23)
(0.963007 0.0184261 -1.33083e-21)
(0.957611 0.0142635 0)
(0.958193 0.0228447 1.53804e-21)
(1.05764 -0.301244 -2.22604e-21)
(1.04534 -0.323056 3.89514e-21)
(1.07969 -0.326356 1.83951e-22)
(1.01266 0.00457289 1.72923e-22)
(1.01278 0.00437588 -1.58113e-23)
(1.01299 0.00467352 -7.84453e-23)
(1.03635 -0.00918551 -1.91551e-21)
(1.03676 -0.00865562 3.77068e-21)
(1.03595 -0.00845429 3.67886e-21)
(0.851086 -0.0324318 2.25237e-23)
(0.839666 -0.0297503 0)
(0.848398 -0.0206909 0)
(1.02507 -0.00271527 -3.37175e-21)
(1.02518 -0.00244843 -3.41733e-22)
(0.574319 -0.235381 -3.39423e-20)
(0.517803 -0.237559 -4.10237e-20)
(1.00509 0.000590865 -6.90264e-22)
(1.00581 0.00076843 2.64891e-22)
(1.00519 0.000562971 7.62161e-22)
(1.00537 0.00409485 -3.26388e-22)
(1.00504 0.00339197 5.74015e-22)
(1.0059 0.00350764 1.25078e-21)
(0.92593 -0.152302 4.60457e-22)
(0.929239 -0.159211 7.31279e-21)
(1.19519 -0.0896644 1.86514e-23)
(1.17428 -0.0782208 1.79728e-23)
(1.17595 -0.0988825 -5.2554e-22)
(1.01485 -0.00108966 5.63513e-24)
(1.01476 -0.00103516 9.22321e-24)
(1.01482 -0.00101143 1.18077e-22)
(1.01541 -0.00136595 3.51955e-22)
(1.01535 -0.00138929 4.63123e-22)
(0.498284 -0.0535486 2.79224e-20)
(0.466561 -0.0572748 3.86192e-20)
(1.01531 -0.00484275 -1.72514e-21)
(1.01551 -0.00473531 -5.06908e-22)
(1.01559 -0.00488791 -1.27123e-22)
(1.03865 0.0198159 -4.63885e-22)
(-0.0759827 0.233603 -2.892e-20)
(-0.0690974 0.228011 -8.58522e-22)
(1.00321 0.000289911 3.26487e-22)
(1.00278 0.000226514 -4.18338e-23)
(1.00364 0.000415491 -3.93224e-23)
(1.03194 -0.107137 2.40502e-21)
(1.02749 -0.108263 4.3762e-21)
(1.03148 -0.111298 -2.23019e-21)
(1.0048 0.00473722 -5.72006e-22)
(1.00597 0.00505573 -3.05708e-23)
(1.01939 -0.00948002 -2.847e-23)
(1.01883 -0.00889433 1.2891e-22)
(1.01941 -0.00879917 7.3386e-22)
(1.02064 -0.0118022 -6.00942e-23)
(1.02117 -0.0120702 3.97715e-22)
(1.02071 -0.0123912 -3.78731e-22)
(1.02248 0.00783865 -1.09895e-22)
(1.0219 0.00775239 4.16242e-23)
(1.01505 -0.00052098 -3.0015e-22)
(1.01471 -0.000423936 1.98228e-22)
(1.01484 -0.000426224 2.61186e-23)
(1.03258 -0.103437 -5.56425e-21)
(1.01323 0.000960359 0)
(1.01287 0.000911289 -1.50135e-22)
(0.898415 0.0409433 -1.28222e-21)
(0.895925 0.0640576 -1.22846e-21)
(0.891079 0.0292823 7.90859e-22)
(1.06677 -0.275799 0)
(1.03684 -0.277748 -1.99174e-21)
(1.00171 -0.00143338 8.34448e-22)
(1.00197 -0.00167233 0)
(1.00208 -0.00120281 -6.00977e-22)
(1.01874 -0.0635003 5.76723e-21)
(1.02153 -0.0610844 0)
(0.918495 -0.15666 2.26128e-21)
(0.920945 -0.1458 -1.0611e-21)
(1.21143 -0.0985602 0)
(1.20718 -0.0744293 0)
(0.822125 -0.0989941 6.61051e-21)
(0.819015 -0.0770244 -2.7506e-22)
(0.828121 -0.0949924 -5.25719e-22)
(1.10311 -0.0230322 -2.94197e-21)
(1.1133 -0.0168794 -6.95914e-22)
(1.0744 -0.163105 1.10165e-20)
(1.07052 -0.166508 -1.78838e-20)
(1.07619 -0.168406 0)
(0.411728 -0.409416 -1.40794e-20)
(0.401038 -0.414107 -3.26062e-21)
(1.0151 -0.0049095 -6.23886e-22)
(1.01508 -0.00475457 -4.34695e-22)
(0.897684 -0.242556 -3.83812e-21)
(0.902134 -0.230839 -4.07307e-21)
(1.04452 -0.0807177 5.19194e-21)
(1.04615 -0.0772158 5.6948e-21)
(0.928598 -0.265886 -3.0491e-21)
(0.946156 -0.270986 4.37339e-21)
(1.00627 -0.000374467 -5.39096e-22)
(1.00725 -0.000486164 1.009e-21)
(1.01358 -0.00117499 0)
(1.01348 -0.00111795 3.99916e-23)
(1.01354 -0.00119283 0)
(1.00148 -0.0011231 5.39309e-22)
(1.00135 -0.00173964 4.74933e-22)
(1.08222 0.0478258 3.81076e-21)
(1.08064 0.0579669 5.98862e-22)
(1.09108 0.0531567 2.25684e-21)
(0.207613 -0.0864362 7.58954e-21)
(0.152644 -0.0540394 0)
(0.196476 -0.100728 0)
(0.828017 -0.0275435 -3.581e-21)
(0.81531 -0.0249941 -7.39281e-21)
(0.824372 -0.0149539 5.74078e-21)
(1.0238 -0.00831904 1.27924e-21)
(1.02355 -0.00841737 -9.99478e-22)
(1.02353 -0.00809488 -5.14938e-23)
(1.01553 -0.00142235 5.93897e-22)
(1.01558 -0.00152589 2.17155e-22)
(1.01567 -0.00148749 -4.07047e-23)
(1.07438 0.0437004 5.71471e-22)
(1.08348 0.0392905 -2.76179e-21)
(0.882035 -0.0372348 -4.87048e-21)
(0.893047 -0.0385769 0)
(0.890887 -0.0292031 4.25682e-21)
(1.00034 0.000112903 2.65069e-22)
(1.00086 0.000170309 -1.54411e-21)
(1.00056 0.000143524 -1.35372e-21)
(0.558436 -0.237179 4.50599e-22)
(0.593661 -0.235795 -8.7442e-22)
(0.836817 -0.124724 -7.04698e-22)
(0.835316 -0.13586 5.80338e-22)
(0.847092 -0.131265 0)
(1.01365 -0.00112762 -6.53046e-23)
(1.0136 -0.00115761 -3.07237e-23)
(1.01355 -0.00107729 6.06286e-24)
(1.00964 -0.00244664 -3.73125e-22)
(1.00974 -0.00259609 -3.82932e-22)
(1.00954 -0.00254259 -3.71401e-22)
(1.00326 -0.000196449 7.90729e-22)
(1.00295 0.000392266 -6.17592e-22)
(1.00345 0.000174454 -9.8261e-22)
(1.01585 -0.00201854 -3.79831e-22)
(1.0159 -0.0020339 -4.11431e-22)
(0.0899454 0.15682 -4.10185e-20)
(0.0592352 0.149763 -1.16875e-20)
(1.01054 -0.0144359 7.68229e-23)
(1.01136 -0.0149737 5.79896e-22)
(1.01118 -0.0140056 4.57614e-22)
(0.923869 0.00520862 8.61828e-21)
(0.919733 -0.011186 -1.85104e-22)
(0.909395 0.00379313 -1.00052e-21)
(1.00121 -0.000757912 -2.73243e-22)
(1.00168 -0.00057226 -1.75006e-21)
(1.00945 0.000267169 2.63753e-22)
(1.01083 0.000355276 -1.0333e-23)
(1.00905 0.000227597 -3.04353e-22)
(0.785481 -0.0477689 -6.59695e-22)
(0.79881 -0.048599 6.68112e-21)
(0.791797 -0.060814 1.82712e-21)
(1.00381 0.00119162 1.19216e-22)
(1.00397 0.0010568 5.15255e-23)
(1.00384 0.00135347 -1.73088e-22)
(0.877874 -0.263107 0)
(0.886216 -0.271855 -2.61338e-21)
(1.01554 -0.000594927 2.8569e-22)
(1.01541 -0.000513507 -4.40196e-22)
(1.01545 -0.000588988 -4.62497e-23)
(0.864731 0.119161 5.04353e-21)
(0.839521 0.196978 -2.63918e-20)
(1.01292 -0.0153953 -2.64959e-22)
(1.01163 -0.0169812 5.04601e-22)
(1.00444 -0.00443676 -3.9111e-22)
(1.00423 -0.00415141 1.56302e-21)
(1.01374 -0.00118385 -2.99817e-23)
(1.01369 -0.00111167 -3.33862e-24)
(0.967323 0.0136786 -1.38645e-22)
(0.96875 0.0207214 -1.93071e-22)
(0.82935 0.321585 7.78095e-22)
(0.824396 0.313968 9.38856e-22)
(0.828178 0.313219 6.12227e-22)
(0.830245 0.329703 -3.40114e-21)
(0.830996 0.332674 0)
(1.00444 -0.00462166 -1.05266e-21)
(1.00462 -0.00468002 -2.20414e-21)
(0.874341 -0.0462455 -3.74123e-21)
(1.02612 -0.00289045 -1.28754e-21)
(1.02605 -0.00255702 -9.83891e-22)
(1.01725 -0.0012286 -3.27533e-22)
(1.01743 -0.00110704 0)
(1.01731 -0.00106184 -4.55788e-23)
(0.585689 0.0152584 6.71912e-21)
(0.600809 -0.00443906 7.81683e-21)
(0.619014 0.0173663 8.34333e-21)
(0.89594 -0.330947 2.36406e-21)
(0.895791 -0.319269 1.02686e-20)
(0.885692 -0.323321 0)
(1.01708 -0.00137087 -3.48277e-22)
(1.01716 -0.00137465 -1.66542e-23)
(1.01438 -0.00513829 -1.82752e-22)
(1.01461 -0.00507181 -1.96243e-22)
(1.01461 -0.00525557 -4.30086e-23)
(1.02498 0.0120882 -2.72623e-22)
(1.02486 0.0118313 6.74367e-22)
(1.02518 0.011783 -2.70374e-22)
(1.02013 -0.0114731 6.70775e-22)
(1.02054 -0.0113152 2.44478e-22)
(1.02204 -0.0178767 -2.84685e-21)
(1.02291 -0.017961 -1.28127e-21)
(1.02243 -0.018883 4.46436e-22)
(1.01359 0.00100513 0)
(1.01384 0.00116257 3.36652e-23)
(1.01995 -0.0101241 5.35092e-22)
(1.01923 -0.0102732 -4.06992e-24)
(1.03034 -0.0116556 -1.29161e-21)
(1.03045 -0.012363 2.36966e-21)
(1.00955 -0.00230369 6.01973e-22)
(1.00973 -0.00235274 2.15611e-24)
(1.00846 -0.000275891 5.23189e-22)
(1.01016 -0.000316932 3.97914e-22)
(1.00904 -0.000280484 3.65546e-22)
(1.01589 -0.00136464 -1.8558e-23)
(1.01579 -0.00139156 -4.26384e-22)
(1.01576 -0.00127449 -8.95384e-22)
(1.02429 -0.350521 -7.14518e-21)
(1.02914 -0.354868 2.76535e-21)
(1.0101 -0.356637 -2.19513e-20)
(1.01752 -0.0029287 8.48434e-22)
(1.01413 -0.00520644 -1.28579e-22)
(1.01417 -0.00500777 -3.70505e-22)
(1.01739 0.00270525 3.8055e-24)
(1.01717 0.00278572 0)
(1.01715 0.00254616 -5.7504e-23)
(0.893578 -0.0476069 -2.53652e-22)
(0.901473 -0.039871 0)
(1.01108 -0.00195149 1.36602e-22)
(1.01107 -0.00200707 5.48497e-22)
(1.01122 -0.00203166 -5.14627e-23)
(1.01094 -0.00186628 4.24065e-22)
(1.00018 8.78246e-05 8.90852e-22)
(0.99997 3.71266e-05 8.70336e-22)
(1.03272 -0.00683202 -4.89342e-21)
(1.03332 -0.0069583 -8.79573e-22)
(1.03301 -0.007408 -3.15591e-21)
(1.00443 0.000570804 -7.5701e-22)
(1.00459 0.00046864 0)
(1.00203 0.000349558 -4.45614e-22)
(1.00182 0.000298563 -2.68838e-22)
(1.00239 0.000403238 6.72678e-23)
(1.00158 0.00021653 0)
(1.00134 0.000159736 -2.94465e-22)
(1.00197 0.000276394 -1.25106e-22)
(1.00271 -0.00121589 -8.27643e-22)
(1.00232 -0.00188023 1.02448e-22)
(1.00324 -0.00198544 -1.23779e-21)
(0.824216 -0.119473 -3.38824e-22)
(0.817689 -0.100744 -2.28902e-21)
(1.01171 -0.000305793 1.24818e-22)
(1.0098 -0.000264853 -1.51827e-22)
(1.00818 0.000593278 -1.99147e-22)
(1.00761 0.000442786 -1.24743e-22)
(-0.0326804 0.0723101 4.77219e-22)
(-0.0367696 0.0799734 -2.43509e-20)
(-0.0241736 0.0539149 4.70515e-21)
(1.03637 -0.0190929 -2.73957e-22)
(1.03713 -0.0185548 5.97813e-21)
(1.0361 -0.018252 -2.74305e-21)
(1.00188 -0.000215944 -3.95021e-22)
(1.0021 -0.000245692 1.04957e-21)
(1.00144 -0.00015533 -3.70593e-22)
(1.00171 -0.000201569 -2.44323e-22)
(1.00233 -0.000261217 -7.69539e-22)
(0.85116 -0.350469 -1.08765e-20)
(0.86256 -0.348939 4.37251e-21)
(0.857471 -0.358705 -9.64342e-21)
(0.982188 0.0562584 4.14102e-22)
(0.976609 0.0498699 7.72389e-22)
(0.985146 0.0479022 3.73558e-23)
(1.01073 0.00534507 4.78818e-22)
(1.0108 0.00562978 2.22018e-22)
(1.04168 -0.0255514 2.53089e-22)
(1.03931 -0.0236598 -4.22798e-22)
(1.03859 -0.0264738 1.37081e-22)
(0.980824 0.0396483 5.75719e-22)
(0.972878 0.0392485 1.41073e-21)
(1.00638 -0.0159649 9.9933e-23)
(1.00571 -0.0149446 2.80056e-22)
(1.00388 0.0915271 -3.58861e-22)
(0.991733 0.101365 -2.10633e-22)
(1.01597 -0.00133686 1.08065e-21)
(1.016 -0.00144797 2.41027e-23)
(0.830656 0.335672 -2.05178e-21)
(0.831535 0.34884 3.00907e-21)
(0.828914 0.34186 2.90388e-21)
(0.853837 -0.0438032 2.75034e-21)
(0.933608 -0.0318409 0)
(0.931418 -0.0384119 -6.27021e-22)
(0.927082 -0.0304969 0)
(0.984042 -0.0964714 2.76851e-21)
(0.982274 -0.102198 -2.67223e-21)
(1.03978 -0.306792 1.50869e-20)
(1.03538 -0.295174 0)
(1.01081 0.00683442 3.58775e-22)
(1.0111 0.00710498 -4.05575e-23)
(1.01098 0.00672876 -2.96458e-22)
(0.869587 -0.338639 5.06756e-21)
(0.872923 -0.32988 -1.38735e-20)
(0.867589 -0.330604 -7.21184e-21)
(0.911733 -0.160764 5.76642e-22)
(0.905587 -0.154614 -2.44435e-21)
(0.902981 -0.165107 -3.05972e-21)
(1.00957 -0.000569869 -2.64953e-22)
(1.00901 -0.000482831 -4.46343e-23)
(1.00881 -0.0004668 -2.82388e-22)
(0.940329 -0.0335151 0)
(0.936471 -0.0264006 0)
(1.06239 -0.0108289 1.36013e-21)
(1.05849 -0.0140684 7.57352e-22)
(0.613 -0.174724 -2.45101e-21)
(0.573924 -0.195103 1.01272e-21)
(1.01365 -0.00147591 8.00572e-23)
(1.01376 -0.00151473 0)
(1.01373 -0.0015415 0)
(1.01052 0.00658793 1.15089e-23)
(-0.0788787 0.231272 0)
(0.823783 0.00638301 0)
(0.819183 -0.0224833 -4.06642e-22)
(1.0121 -0.00391168 0)
(1.01227 -0.00403498 0)
(1.01236 -0.00394205 0)
(-0.0223191 0.0847101 4.54739e-21)
(-0.00489488 0.0664108 -2.05786e-20)
(-0.00822322 0.0575749 0)
(1.06795 0.0395875 -3.1326e-21)
(1.06917 0.0325701 1.22428e-21)
(1.0621 0.035938 -1.00441e-21)
(1.00379 -0.00441339 -3.10533e-22)
(1.00455 -0.00669495 2.14308e-22)
(1.00198 -0.00622918 -4.75544e-22)
(0.826365 -0.375908 4.68421e-20)
(0.857346 -0.377665 -4.39149e-21)
(0.865858 -0.385608 2.4662e-20)
(1.01354 -0.0014381 3.72431e-22)
(1.01357 -0.00140756 -6.28591e-24)
(1.00376 0.0010107 1.25024e-21)
(1.0156 -0.000581456 1.47024e-22)
(1.01558 -0.000652229 7.69906e-22)
(1.0043 -0.000529407 2.80794e-22)
(1.00365 -0.000428283 -5.14849e-22)
(1.01646 -0.00669478 1.5799e-22)
(1.01616 -0.00648695 -2.88538e-22)
(1.01633 -0.00696434 2.16801e-23)
(1.00898 0.00530288 -5.85755e-23)
(1.00892 0.0043593 -1.19278e-21)
(1.00802 0.00497031 2.4336e-22)
(1.02505 -0.0109364 -1.23432e-21)
(1.02521 -0.0108153 0)
(1.01566 -0.00466203 0)
(1.01581 -0.0045744 1.07768e-21)
(1.01595 -0.00467232 -3.16049e-22)
(1.0168 -0.00689447 -6.56846e-22)
(1.01662 -0.00647195 4.04627e-22)
(1.0242 -0.00818496 -1.12714e-21)
(1.02399 -0.00828657 -6.36282e-23)
(1.02431 -0.0084159 6.70095e-22)
(0.874219 0.346013 -1.24815e-21)
(0.881317 0.35378 -7.17582e-21)
(0.838662 -0.350883 -8.86965e-21)
(0.848647 -0.339353 1.11438e-21)
(1.01587 -0.0169367 0)
(1.01692 -0.017468 3.93061e-22)
(0.876596 -0.348193 7.23238e-21)
(0.991659 -0.110909 1.10878e-22)
(0.992416 -0.107303 1.07755e-22)
(1.01197 -0.00379193 -6.3086e-22)
(1.01188 -0.00387437 -3.97637e-22)
(1.03419 -0.0463765 -3.52372e-21)
(1.03312 -0.0445118 -1.72384e-21)
(1.03526 -0.0446976 -1.66741e-21)
(0.988951 0.0608179 -7.85609e-22)
(0.978934 0.0657921 -6.2882e-22)
(1.08122 -0.254286 9.01545e-21)
(1.0864 -0.254779 8.01886e-21)
(1.08474 -0.249492 -5.75453e-22)
(0.985279 0.134427 2.12116e-22)
(0.978995 0.141816 -2.36625e-22)
(0.977296 0.130978 6.46681e-22)
(0.845594 0.0402882 -2.43992e-22)
(0.844438 0.0281487 -8.16804e-21)
(0.856573 0.034854 2.13881e-21)
(1.01865 -0.00134121 -9.82741e-23)
(1.01844 -0.00131791 -7.12094e-24)
(0.00516482 0.0902079 -1.97842e-20)
(0.0280329 0.0737762 4.74381e-22)
(0.011887 0.104232 1.38057e-20)
(0.856796 0.0509429 -4.10468e-22)
(0.846622 -0.02547 -3.7418e-21)
(0.818162 0.052018 -1.56759e-20)
(0.987938 -0.0155832 -1.09278e-21)