/*--------------------------------*- C++ -*----------------------------------*\
| =========                 |                                                 |
| \\      /  F ield         | OpenFOAM: The Open Source CFD Toolbox           |
|  \\    /   O peration     | Version:  v2012                                 |
|   \\  /    A nd           | Website:  www.openfoam.com                      |
|    \\/     M anipulation  |                                                 |
\*---------------------------------------------------------------------------*/
FoamFile
{
    version     2.0;
    format      ascii;
    class       volScalarField;
    location    "50";
    object      ddt0(k);
}
// * * * * * * * * * * * * * * * * * * * * * * * * * * * * * * * * * * * * * //

dimensions      [0 2 -3 0 0 0 0];


internalField   nonuniform List<scalar> 
9793
(
0.00010156
-3.10939e-07
2.85242e-05
-1.19419e-08
-0.0192536
-6.18436e-07
3.54717e-07
-1.10528e-07
2.91531e-08
-0.0158762
4.39024e-07
0.00110896
-1.21401e-07
4.06694e-07
-3.89537e-07
1.95827e-07
-1.8541e-06
4.56276e-06
0.00654003
3.00825e-07
0.0161626
3.37171e-07
0.00263997
-3.65166e-07
-1.0734e-06
-1.75316e-07
4.98328e-07
-5.21126e-07
-5.71054e-07
-6.13217e-09
3.48276e-06
0.00338684
0.000227057
5.15878e-07
1.5679e-06
-0.00216306
1.60864e-07
2.04102e-07
-1.0971e-07
1.94491e-06
2.7413e-06
-3.366e-07
-2.45493e-07
3.4711e-07
-2.86778e-07
-2.11503e-07
1.20134e-06
0.000188015
-1.9251e-05
4.46353e-08
-1.61281e-06
9.68373e-09
-9.52937e-07
4.35812e-08
-6.72136e-06
0.0199799
-1.86189e-08
-1.11135e-06
0.00214909
-2.39546e-07
9.56777e-07
-1.22391e-06
-8.2547e-05
9.37747e-08
-0.00130413
0.000398174
-7.07237e-05
-1.90159e-05
0.000475566
7.45252e-07
-5.84956e-06
2.82914e-07
-2.40066e-07
-6.31871e-08
-1.52219e-06
0.000954767
-9.25067e-08
1.27198e-08
1.90561e-06
-1.04208e-06
0.000683882
3.13614e-06
-2.8752e-07
0.00030761
2.26764e-06
0.000220154
-2.60163e-06
-1.20219e-07
-1.05904e-06
5.87474e-06
-3.23209e-07
-3.43447e-06
1.43787e-06
0.00314673
-1.12506e-06
0.000418208
0.0226449
-3.1949e-07
9.53437e-07
5.62069e-07
7.18327e-07
6.85352e-07
-1.14752e-07
-2.68551e-07
3.27463e-08
1.57082e-06
-1.14647e-06
-7.57089e-07
-9.14777e-07
0.000150876
1.54603e-07
0.0160935
3.374e-07
0.00206746
-1.03156e-07
-7.72527e-08
-4.88101e-05
-2.27695e-06
2.30157e-06
0.00312118
0.000177651
-8.29489e-08
3.9016e-08
-8.48392e-07
4.04974e-07
0.0297398
1.15584e-06
0.000285152
2.53439e-06
-1.88348e-07
-4.12428e-07
-1.20479e-07
-2.13415e-07
-7.37839e-07
1.83348e-08
-8.4503e-08
3.74018e-08
3.64625e-07
2.30896e-07
-3.73859e-07
-3.70546e-08
-8.49732e-07
4.57672e-08
5.65207e-07
6.1765e-07
1.60832e-06
-2.4105e-07
6.51534e-07
2.00079e-07
-1.84128e-05
0.0189589
-3.30468e-07
0.0288972
-0.0381642
3.04773e-08
-2.14477e-07
7.50052e-07
-7.20267e-07
7.71606e-07
4.96715e-08
-1.34758e-07
-2.33915e-07
1.97172e-07
-0.00504093
-1.36277e-07
0.00745369
0.000231899
7.37736e-07
3.59219e-07
-3.59456e-07
1.7507e-07
-0.00038884
-1.38596e-07
-0.000292501
3.66861e-07
8.4265e-05
-8.3887e-08
-1.19104e-07
-1.2146e-07
7.37626e-07
0.00190839
3.17023e-07
7.11996e-07
-8.74005e-07
0.000467444
-1.91014e-07
5.38581e-07
-1.1844e-07
4.17775e-08
1.13889e-08
3.23638e-07
-2.15534e-07
-6.93445e-06
0.020523
-3.69084e-05
7.4463e-07
-0.0184677
5.3566e-08
-0.0454717
-7.42165e-07
-4.07043e-08
-0.0108552
0.0141401
-1.45922e-07
-2.56123e-08
5.75545e-08
0.00279787
3.00553e-07
5.60896e-07
2.73003e-07
7.55657e-07
-2.26591e-06
-2.66366e-05
2.15686e-08
-0.0353692
7.95701e-07
-5.9694e-07
0.000289069
4.84651e-08
0.000195055
3.28012e-06
-8.10222e-08
3.65502e-07
-2.20217e-07
0.000346333
-0.00826724
-7.74705e-07
2.10282e-07
-5.26923e-06
6.17021e-07
-2.78907e-07
-2.52124e-07
2.70529e-07
-5.4913e-07
9.19752e-07
8.20299e-05
2.6265e-08
1.96244e-07
0.0225681
-2.23775e-08
3.50813e-07
6.70283e-07
2.20932e-07
0.000403503
1.19521e-07
3.86716e-07
-1.2092e-07
-7.48152e-07
7.47238e-07
1.77136e-07
-2.70063e-07
6.76123e-07
2.35611e-06
8.8508e-07
2.91613e-07
-1.0572e-07
1.04437e-07
7.23877e-07
-3.4509e-07
1.84533e-07
0.000405377
1.02199e-07
-7.95698e-07
3.22528e-07
8.76911e-07
-8.92031e-08
-8.06762e-08
7.41526e-07
-0.0115244
-9.43078e-07
3.02423e-07
-2.59887e-07
1.21784e-06
-1.10724e-07
-2.53878e-07
-2.56734e-07
-2.36625e-07
0.0271511
-2.17072e-07
9.05579e-07
-6.00727e-07
-1.60582e-07
-1.28393e-06
1.34713e-06
9.99646e-07
-8.45681e-08
-3.20571e-07
7.75307e-07
1.21997e-07
-3.17576e-08
2.13635e-07
3.36317e-05
-8.39187e-07
4.51927e-07
-3.16196e-08
-8.0646e-07
4.40815e-07
7.39139e-07
-1.9606e-07
0.00146332
8.21119e-08
0.00450947
-5.32794e-05
-5.98415e-07
-2.18608e-06
4.18495e-07
6.88415e-07
7.54962e-07
-5.43156e-07
0.00430448
-2.65512e-07
4.23094e-07
6.80587e-07
-5.58308e-07
-2.70938e-07
4.32451e-06
0.000259333
1.6834e-07
7.48433e-07
3.42469e-07
7.17339e-08
-7.0982e-08
-0.00106129
-8.24417e-08
4.57893e-08
0.000299532
4.2558e-07
0.00318959
6.44223e-07
-1.4169e-07
4.10635e-07
1.41395e-07
-6.70105e-07
-2.77155e-07
-5.45932e-07
-1.59487e-07
-2.68379e-07
1.44046e-07
2.10169e-07
-1.04953e-06
-0.0018727
-1.9076e-07
8.67243e-08
-0.000331804
4.38109e-07
1.91165e-07
6.39298e-08
2.68436e-07
-1.3828e-07
-0.0211444
4.46056e-07
-3.21319e-08
-4.88584e-07
7.89916e-07
-0.000366648
-3.99183e-08
2.72422e-06
-1.57059e-07
8.56413e-07
-1.8625e-05
-6.59425e-07
1.00517e-06
1.02501e-07
-7.5642e-07
-0.0257489
1.22084e-06
0.000419657
2.14149e-06
-4.28644e-07
-6.54373e-05
-3.08802e-07
0.0114427
-5.47693e-08
8.23006e-07
-0.00522108
-5.58251e-07
-1.96007e-07
8.4197e-05
7.94418e-07
-1.65357e-07
-1.67373e-08
-1.28709e-07
-0.00686728
-3.03548e-07
4.03099e-07
8.41794e-07
2.34681e-06
4.14158e-07
-1.29967e-08
8.83727e-08
-0.000227805
2.08199e-07
0.00286827
0.00168103
-0.0155616
5.15775e-07
-1.74438e-07
5.20907e-08
1.24443e-07
-0.000451685
0.00145583
9.68101e-07
2.28576e-07
-0.014978
-2.66898e-07
-0.00327383
2.47179e-07
8.08394e-08
-2.78106e-07
7.15301e-07
-2.09556e-07
6.73029e-07
0.0274135
4.03096e-07
0.000941558
-2.44437e-05
3.99503e-07
-1.35834e-05
4.62079e-07
-1.05866e-06
1.81489e-06
-0.00536084
-2.27996e-07
-2.79869e-07
-3.2133e-07
-1.5288e-07
-3.53112e-07
4.37347e-07
9.45772e-08
8.46996e-07
8.46283e-08
-3.25238e-07
-1.81162e-07
0.000303808
1.06257e-06
0.000532613
-4.60698e-07
-5.19046e-05
-3.20782e-07
-2.94863e-07
6.26816e-08
1.89823e-07
0.000621263
5.63414e-08
1.7965e-06
1.19381e-07
3.35511e-08
3.66786e-07
-0.0120322
4.27509e-06
-4.51395e-06
4.28434e-06
-9.33889e-07
7.31243e-08
-3.5767e-05
8.6434e-07
7.41688e-07
-2.99065e-07
0.000631813
-2.52357e-07
-2.51873e-08
9.67538e-07
4.33451e-08
6.1276e-06
4.51333e-08
3.60746e-07
1.23333e-06
0.00724342
7.31225e-07
-0.000464938
4.21013e-07
9.22132e-07
-7.87737e-08
4.6974e-07
-5.25861e-08
3.10152e-06
-1.7829e-05
-6.29851e-07
5.29512e-07
-1.7097e-07
1.61225e-08
-2.689e-07
0.000180352
1.3783e-07
1.66147e-07
3.0729e-05
-1.8067e-07
4.01569e-07
-0.000101164
-5.88476e-06
6.59414e-07
5.88779e-07
3.42445e-07
-3.21458e-07
-2.72608e-07
-5.53146e-08
-1.98074e-07
-2.02973e-08
9.83374e-08
2.39145e-07
-3.4836e-07
-6.66625e-07
1.60005e-07
0.00107208
2.42173e-06
2.49581e-08
-8.96413e-07
1.40032e-06
0.00905296
-6.17727e-07
0.00902707
-1.00654e-07
2.04862e-07
-4.64218e-07
1.97469e-09
9.24433e-07
-0.00252949
1.02447e-06
-1.63356e-07
0.00478834
-3.57612e-07
-1.60764e-06
1.45266e-07
6.10503e-07
-3.79182e-08
-1.57082e-06
-1.11484e-07
-4.72027e-09
0.000176535
1.026e-06
8.95426e-07
-8.04351e-07
1.49341e-07
1.40316e-07
-1.78788e-07
-1.01577e-07
-1.81383e-07
0.0029287
-5.15206e-06
-2.15793e-07
-4.83761e-06
-0.00191781
-4.0909e-07
3.15823e-05
4.17983e-06
-2.4882e-07
-5.71069e-07
-3.41272e-06
-1.22308e-07
1.67056e-06
-9.54417e-08
0.00968856
8.05417e-07
-0.0131239
-2.25483e-07
2.58409e-07
-6.74023e-06
-2.59388e-07
-9.68616e-07
-5.02051e-05
0.00112896
-0.000100955
7.79793e-07
0.00668096
6.88283e-07
-4.85536e-07
8.06573e-07
-6.42495e-06
0.000391275
-6.82191e-08
9.30551e-06
-1.30658e-07
3.98612e-05
-1.71881e-06
1.76432e-07
1.77355e-07
5.07881e-06
-4.0934e-08
2.53329e-07
3.45394e-07
3.7983e-07
6.93599e-07
-2.4578e-07
-1.44081e-07
-4.19226e-07
-3.93724e-07
0.00933087
4.57857e-09
-0.000436513
-0.00447977
3.96757e-08
-1.3867e-06
8.85347e-07
2.31228e-07
-3.87945e-08
-4.12106e-07
-1.51324e-06
8.05539e-07
2.1602e-07
3.64423e-07
-2.02378e-07
2.67243e-06
1.65977e-07
7.32336e-07
-5.76508e-07
2.42684e-07
0.00371985
-2.99001e-07
-0.0035334
7.11987e-07
3.28717e-07
-1.32024e-07
-1.86744e-07
4.20096e-06
5.1027e-06
1.43755e-07
6.2314e-06
-1.91325e-07
1.58398e-07
6.49747e-06
2.22495e-08
-4.62957e-07
-4.25742e-07
1.72524e-07
1.14132e-06
-8.34332e-08
-6.50022e-07
2.08777e-07
1.0125e-06
-1.46673e-06
1.7489e-08
-1.31287e-07
-1.80302e-06
-3.26754e-07
3.59011e-07
-2.91529e-07
-1.99886e-08
-3.09042e-07
-6.93649e-08
7.54726e-07
1.39084e-07
-1.69478e-06
-1.03406e-09
-1.84974e-05
-8.61555e-08
-2.47369e-07
4.60386e-07
-8.48775e-08
-4.18437e-07
3.30442e-06
-1.05998e-06
-3.3299e-08
-1.25522e-07
-5.3345e-07
-2.14658e-07
8.09322e-07
0.000314924
-0.0045008
0.000433594
-3.85959e-07
-3.74608e-08
0.00157569
-1.71828e-05
-2.34151e-07
-1.99884e-07
-3.45019e-05
0.000481278
-1.04779e-07
5.05198e-07
-6.12684e-08
3.87175e-08
0.00464071
3.66742e-08
-0.000339122
1.66366e-05
1.28145e-07
4.19928e-08
5.38948e-07
1.84848e-08
6.5111e-06
-0.00117686
2.51096e-07
1.4926e-05
7.71537e-07
-1.54077e-08
-1.77195e-07
7.12033e-07
-2.27989e-05
-1.93452e-07
2.572e-05
-1.14075e-05
-0.00582219
1.92274e-05
-6.77112e-05
1.80391e-05
5.35855e-07
8.25922e-07
0.00398471
2.44678e-08
-4.29113e-08
2.16742e-06
4.11465e-06
-4.17961e-08
0.0120377
-7.80397e-08
-0.000221493
3.66193e-07
0.000557708
1.72399e-07
-1.65592e-07
-4.50497e-06
-0.000496309
3.76155e-07
-0.014397
7.19251e-08
2.3461e-07
-2.65147e-08
-5.75944e-08
0.000464339
-3.12678e-07
-0.000596474
5.55495e-09
3.69473e-05
-5.49093e-07
0.000191296
0.000465619
3.99827e-07
0.0292326
-1.74115e-07
3.20232e-07
8.6046e-07
-0.00263127
-0.00506302
-2.72136e-07
-3.82638e-07
-2.33675e-07
-0.00412311
-0.0168355
-6.73301e-08
-7.3752e-07
4.21007e-05
-1.76122e-07
2.17317e-08
-1.09961e-06
-0.000778789
-4.14879e-06
-3.91551e-07
4.42025e-07
-2.13563e-07
0.000836833
0.000134436
4.69562e-06
-1.55671e-06
-9.04126e-08
0.000291395
-7.06528e-08
-0.010114
4.86089e-08
-0.000566326
0.000136173
3.56832e-05
-1.06541e-07
-1.40836e-07
5.66686e-07
3.23172e-07
7.71209e-07
-2.02108e-07
1.78641e-07
-3.38285e-05
-5.61783e-07
-0.000554266
-2.36676e-07
-0.000601779
1.41601e-07
0.000145349
-8.75091e-07
-5.7456e-06
-1.15405e-07
-2.36756e-07
7.2305e-06
-0.00268641
0.00399239
-4.5845e-07
1.0028e-06
1.75279e-06
2.28437e-07
6.22251e-07
0.000193433
-1.0847e-07
-8.32245e-08
-1.21118e-07
8.20976e-07
1.93643e-07
-5.42672e-07
8.42476e-07
-9.76572e-08
-8.88716e-06
-6.26676e-08
4.24146e-07
5.42625e-07
-5.80467e-08
-9.05637e-08
-6.63019e-06
1.1071e-06
2.14725e-07
-3.33613e-08
-9.89597e-08
5.65873e-05
-1.00292e-07
0.0212176
-3.8615e-07
1.56688e-05
-2.56212e-07
-0.00131668
1.02321e-06
0.00175063
-3.99151e-07
-3.28968e-07
-4.42538e-08
2.88115e-05
8.04607e-05
-0.000982293
-4.27661e-07
-0.00247339
-2.74217e-07
5.12179e-07
-2.57494e-07
-1.4618e-07
0.000422144
0.000386805
-8.02044e-06
-8.88286e-06
3.98801e-07
3.89883e-05
-3.80785e-07
0.000948496
-3.03835e-07
3.69427e-07
-6.84074e-08
5.22876e-05
0.00485513
-5.95778e-09
-3.70031e-07
-8.84239e-08
5.08175e-07
8.87493e-07
6.70922e-07
-3.1051e-07
3.48937e-07
1.44508e-05
8.67859e-07
-1.04431e-06
-0.00609593
-4.9296e-08
-2.7906e-07
5.26053e-05
-0.0129836
1.00984e-06
-2.62428e-07
5.37224e-06
-9.29989e-07
-1.9238e-07
-3.94586e-05
-1.52943e-07
3.39638e-07
4.2877e-05
3.47344e-05
1.42944e-06
-0.00166882
-5.08025e-06
0.00602226
-0.000698914
-1.15461e-05
-5.37157e-08
-8.42631e-06
-4.78228e-07
-1.52237e-07
-2.85097e-07
1.35609e-06
-1.90677e-06
0.00417218
-1.94354e-07
-8.94956e-07
-2.32082e-07
5.81036e-07
-4.78669e-07
1.00653e-06
7.48001e-07
-5.69488e-07
2.15271e-07
-2.13997e-07
-2.76977e-07
-4.19789e-07
0.000124001
7.85634e-07
-3.52456e-06
-1.19488e-07
2.70375e-05
-0.00686176
-1.07495e-07
-1.55734e-07
-2.90484e-08
7.22727e-07
3.92714e-06
0.0190885
-1.67451e-06
-0.00183963
7.36417e-07
0.000432019
-2.69426e-07
-5.73664e-07
-6.03431e-07
6.20596e-07
-7.74171e-06
-1.23721e-07
2.0661e-07
0.00620039
7.52176e-07
0.00135378
-1.97607e-07
-0.00511076
0.000352552
1.68902e-07
9.52195e-07
4.0167e-07
0.0261053
2.59185e-07
6.62712e-07
8.13265e-05
-9.26039e-07
-1.67552e-07
6.47014e-06
-5.30208e-07
-9.27363e-07
-3.61505e-08
4.25888e-08
-6.81428e-07
7.02882e-07
0.000456632
8.34508e-07
-6.20846e-07
5.45993e-07
0.000955472
0.00167373
0.000723
-2.30102e-07
-1.34618e-07
2.6675e-07
-6.66527e-07
2.9847e-08
7.46858e-05
2.4381e-05
4.02247e-07
-0.000546992
1.78571e-05
7.93461e-05
-1.22686e-07
2.21152e-05
-1.44089e-07
3.7057e-05
-9.06309e-07
-1.01988e-08
-0.00276677
0.00082599
-4.89723e-08
-1.46045e-07
1.36086e-07
2.16478e-06
-0.00143225
7.70605e-07
3.00286e-07
9.56354e-06
-3.99732e-07
0.000646505
5.03685e-05
4.46136e-07
1.0832e-07
0.00228532
0.000297029
-1.85601e-07
-2.80266e-07
-2.82869e-07
-3.38878e-07
-4.54174e-07
6.91215e-07
-0.0128152
-3.29344e-07
-2.47555e-07
0.00130528
2.84532e-07
-5.00594e-07
-3.61116e-07
-0.00341742
-1.0458e-07
7.47697e-06
0.000560082
3.89249e-07
-1.94261e-07
4.56841e-07
-6.53496e-08
-3.2145e-08
0.000485828
0.000899876
-4.52793e-07
0.000429759
-3.87116e-06
5.6117e-06
1.57549e-08
3.40142e-06
7.70977e-08
-6.33752e-07
2.8097e-05
3.66021e-06
-3.97902e-07
1.02634e-06
-3.76048e-07
-2.39971e-07
7.18799e-07
-1.30509e-07
-1.51175e-06
-1.64587e-07
-6.09701e-08
-0.0105128
-1.72256e-07
0.00388814
-7.7656e-07
-8.6624e-10
-0.000344668
3.99459e-06
7.52976e-07
0.0152103
-1.16734e-07
-1.14535e-06
-1.45209e-08
2.87558e-08
-0.0180596
0.000479742
-2.44494e-07
-1.94902e-07
-1.50617e-07
1.56175e-07
-1.50067e-07
-2.59555e-08
-3.18412e-07
-1.73098e-06
-1.28176e-06
2.27995e-07
-3.88375e-07
-3.03695e-07
-5.65512e-08
-1.40903e-08
0.000229557
-7.27604e-07
-6.20387e-07
9.34584e-07
3.66106e-06
0.000431513
1.07376e-05
8.8504e-07
-1.66903e-07
-8.91151e-08
-1.18223e-07
-8.28462e-07
1.02745e-07
-6.54144e-07
0.000401411
-7.74516e-06
-4.19984e-08
-1.17813e-07
6.94081e-07
-1.02214e-05
-2.31576e-07
0.00106442
4.68201e-07
-5.02845e-07
2.91443e-07
-0.000211383
-2.04108e-08
-3.17693e-07
0.000244001
-9.59445e-07
0.000832172
-0.000544789
2.06314e-05
-1.6182e-07
-6.70661e-08
-9.93557e-08
-7.28712e-08
-1.95914e-07
-8.17582e-08
1.05694e-05
-2.03151e-05
-9.63936e-08
4.2454e-07
2.69737e-06
4.01449e-07
2.12388e-07
-5.44713e-07
-1.04398e-06
-0.000161848
-7.55017e-08
-2.24544e-08
0.000463875
-4.49675e-07
-3.19883e-09
-1.28629e-06
-1.8038e-07
4.80087e-08
-1.87983e-07
1.04401e-07
-7.97731e-08
1.63315e-07
-3.50111e-06
4.99973e-06
-1.54045e-07
-5.5253e-08
-9.29413e-08
-5.75981e-07
-1.39769e-08
-2.43546e-07
-1.61699e-07
4.73998e-07
7.9013e-05
-6.53964e-07
7.416e-07
-8.89332e-08
-6.0489e-07
4.73213e-06
-0.00366124
-2.08177e-07
-1.06583e-07
8.96915e-09
-0.00273211
-6.58608e-05
-3.67376e-07
0.00122072
0.00350651
6.11756e-07
5.92815e-06
0.000423805
5.67612e-07
0.000425933
2.01225e-06
-0.00161674
-1.30105e-07
1.54066e-06
-1.66328e-06
-2.88819e-07
6.12941e-06
0.00266874
1.78847e-07
0.0139284
0.0448891
7.95889e-08
0.000396863
-2.85292e-07
7.97283e-07
7.6949e-07
1.05658e-08
4.03119e-05
-2.68156e-07
8.1572e-07
2.21567e-06
-2.08468e-07
-2.80919e-06
-7.91979e-07
-1.7651e-07
7.55095e-07
4.59528e-07
1.09196e-05
0.00555822
-8.77506e-08
6.6603e-07
0.000417098
-1.66486e-07
5.7117e-07
-1.39818e-07
0.000449395
-5.61344e-05
9.5486e-07
-7.83743e-07
5.93294e-07
0.000176018
0.000684581
7.00877e-07
-2.08881e-07
-2.91167e-08
0.000968984
-9.47333e-05
-0.00173735
-4.18909e-08
-5.93753e-07
7.83856e-07
-1.93958e-07
7.78309e-08
-1.75786e-07
-9.25528e-07
-5.04228e-08
-3.36433e-07
3.89849e-05
0.00955935
-8.46316e-09
5.58309e-06
-5.86843e-07
0.0135234
0.00724808
9.35796e-06
0.00399952
0.011359
-2.75743e-07
4.83578e-07
1.14488e-06
0.00365407
4.36739e-06
-3.50259e-07
-2.03916e-07
0.000154246
-4.82461e-07
7.68195e-07
3.48238e-06
4.53339e-05
-1.29784e-07
7.30836e-07
5.78121e-07
-2.13446e-07
-2.30256e-08
4.76359e-09
1.40831e-07
-1.78355e-07
-2.42802e-07
-7.09665e-07
-8.49303e-08
-3.40921e-07
7.22938e-07
0.000924578
1.71333e-07
0.000118
-1.59779e-07
7.69381e-07
-1.11444e-07
-1.15614e-05
-0.0083354
-1.2482e-07
-3.66579e-06
-5.54523e-07
-4.1031e-07
-2.64623e-07
5.39391e-07
-7.46625e-08
1.03563e-07
-1.59823e-08
5.99861e-07
3.04523e-07
-2.2869e-08
0.000374379
1.31845e-07
1.55731e-07
-2.06273e-08
-3.88611e-07
0.000311487
9.51785e-07
-0.00565224
8.6288e-06
-0.00797021
-1.13957e-07
1.65268e-07
-9.04726e-07
5.66718e-07
-1.43451e-05
2.11103e-07
0.000859369
-1.0322e-08
-3.74112e-06
3.27216e-07
7.30887e-07
0.00143385
5.71061e-07
0.00815307
0.0326862
2.27518e-07
-3.58202e-06
-4.68874e-08
8.39582e-07
-2.07362e-07
-7.2559e-07
7.20861e-07
-2.9036e-07
0.0342847
0.00233356
1.54561e-07
3.53951e-07
1.79501e-07
1.11008e-05
9.34303e-06
3.29105e-07
-0.000593854
-7.53874e-08
-0.00115024
1.48603e-06
-4.23551e-07
2.73736e-07
2.78331e-07
6.96842e-07
-2.64083e-08
0.000118896
5.88559e-07
-1.68945e-07
-1.74321e-07
6.4072e-06
-4.03906e-07
0.00370454
-4.42848e-07
1.8133e-07
6.33999e-07
-1.84309e-08
3.63419e-07
-3.64565e-07
3.23381e-06
1.26042e-07
-2.23979e-07
1.19762e-06
2.62164e-06
-2.24616e-07
-1.38806e-06
-2.98601e-07
-0.0284405
1.30104e-06
-6.22201e-08
2.71803e-05
7.8125e-07
-1.18968e-06
1.3768e-06
1.54153e-07
-9.83116e-08
-1.74033e-06
-1.00048e-08
-1.33827e-07
-6.59256e-08
-3.0668e-07
0.0189516
1.54126e-06
1.49365e-07
2.0668e-07
1.99944e-07
0.00035851
-2.20313e-06
9.12027e-07
1.83377e-07
-2.19321e-07
0.0158773
0.0104522
0.00869263
-9.04042e-08
-2.28855e-07
-1.95967e-07
3.61403e-07
1.00443e-06
1.89214e-07
-1.03515e-06
4.11943e-08
1.49717e-06
0.00231719
0.0212185
5.62262e-07
-1.12891e-07
-1.20215e-07
4.69704e-07
-1.07624e-07
-1.92713e-07
-1.4811e-07
-1.78348e-07
-5.90768e-08
-6.21435e-08
-9.80697e-08
-2.75695e-07
0.00394135
8.43465e-07
-1.18557e-07
4.2195e-07
1.44355e-06
3.51375e-07
-0.0388103
-1.43503e-07
-2.79369e-07
-3.14976e-08
-1.95479e-07
-4.25322e-08
-5.90757e-08
-3.2076e-06
-1.85638e-06
-2.77689e-08
-1.3237e-07
-2.519e-07
1.00667e-07
-4.65556e-07
0.000106517
2.6856e-07
7.56262e-05
-2.95626e-07
1.86879e-07
7.28115e-06
-5.30214e-07
6.17349e-08
0.000204089
2.32796e-08
-1.28591e-07
-1.05466e-09
0.000361696
5.1026e-07
1.28514e-06
0.000574361
-1.49659e-08
5.39883e-08
-1.2313e-07
-9.77451e-08
1.44264e-06
-1.96877e-07
6.75796e-07
-8.43591e-05
-6.80313e-08
-0.00374287
-2.39576e-05
6.14178e-07
-1.45198e-06
-3.51827e-07
4.25115e-07
5.39928e-08
-2.77038e-07
-3.64463e-07
-9.70543e-08
-1.44581e-07
1.64394e-07
-5.50987e-08
0.00620077
3.81847e-05
-3.88645e-08
-0.0126426
7.52687e-07
4.90404e-06
-1.91214e-08
-1.51429e-08
-0.00342687
-1.91297e-07
4.92736e-08
6.15573e-07
0.000163293
-5.75597e-07
4.54798e-07
2.70461e-08
-6.77265e-08
0.0126581
-5.35703e-05
1.03597e-06
7.69608e-07
-1.17508e-07
-8.44682e-08
0.00196792
-7.35621e-07
8.00121e-07
1.53875e-06
0.00020838
-1.97568e-07
8.74446e-07
-3.57782e-07
-4.81338e-10
2.30642e-06
7.21988e-07
1.06178e-06
2.75044e-07
1.73071e-07
7.87913e-07
9.34929e-05
9.02172e-05
-6.51459e-07
7.21836e-07
2.90456e-07
6.02834e-07
9.35835e-07
5.92026e-08
1.6122e-07
1.11217e-08
-0.00020463
-2.51428e-05
-0.00132936
-2.16465e-07
-0.00672252
-8.08692e-08
8.2523e-07
-1.77308e-09
-1.29478e-07
6.09291e-08
-2.09223e-07
0.000121594
-3.59907e-08
2.71699e-07
2.69824e-07
-8.64259e-08
-1.78321e-07
5.60046e-06
2.26419e-07
-1.24851e-07
3.01709e-07
0.000427346
-3.25515e-05
-3.73203e-08
1.39011e-08
2.37735e-08
1.8924e-06
-1.26986e-09
-1.03092e-06
-1.74063e-07
8.39898e-05
-1.30811e-07
-6.82474e-07
3.12737e-05
1.19765e-07
8.76966e-07
2.55786e-07
-2.67438e-07
4.52236e-07
1.97796e-07
2.91412e-06
-7.52904e-07
2.26574e-07
1.32379e-05
-4.6737e-07
-2.96034e-07
2.63988e-07
-3.23452e-07
-2.73743e-07
4.38258e-07
3.23361e-05
-1.08309e-07
-6.86089e-08
5.04476e-08
0.00196663
7.22723e-07
0.000740158
-1.13448e-07
-4.24994e-07
2.23706e-07
0.000128399
3.97145e-07
7.72935e-07
-6.4563e-07
3.64707e-07
-2.09461e-07
0.000120911
-9.79726e-07
2.01435e-07
1.16394e-08
1.29055e-06
0.000443357
-6.20541e-09
5.74939e-07
4.35839e-05
-1.31988e-07
-2.33965e-07
0.000516642
-4.97602e-08
3.98035e-07
1.69601e-07
-2.95304e-08
1.85278e-07
-2.53289e-07
8.45545e-08
-2.96502e-06
-5.5543e-08
-1.34155e-10
2.33211e-08
-5.86753e-07
-7.54593e-08
0.000533781
-0.00154499
0.00316685
-2.37339e-07
6.44741e-07
5.60133e-07
1.07077e-07
2.49405e-08
6.99417e-07
8.13056e-07
-8.19239e-07
-7.93123e-08
0.000233257
3.52642e-07
-0.000140598
8.24132e-05
-1.10001e-07
7.65131e-07
3.56518e-08
4.57396e-06
0.00650024
-5.24792e-07
-8.3873e-08
3.42073e-06
-6.14692e-07
7.46202e-07
-0.00854259
8.28007e-08
-2.3853e-07
-1.24153e-07
-2.63852e-07
2.22302e-07
0.00171575
-0.00461749
-0.00475331
-2.77965e-07
0.000285609
2.15206e-07
-3.27649e-07
-2.23598e-07
1.59052e-07
-2.20428e-07
-1.83349e-06
-1.11383e-07
-1.43998e-07
-3.38442e-07
-5.82316e-08
-2.60855e-07
4.74745e-08
8.09471e-07
2.15699e-06
5.50628e-05
1.48834e-07
-3.3927e-07
3.22115e-08
2.34196e-07
-2.08649e-08
1.38359e-06
1.89517e-07
1.97375e-07
2.25189e-07
4.56356e-07
-2.0533e-07
5.3618e-07
4.4147e-05
-1.12601e-07
4.03541e-08
0.010994
-1.93848e-07
4.11067e-08
-1.79038e-07
-6.32882e-07
7.05586e-05
-3.85295e-06
2.65435e-07
-0.00285461
5.2293e-07
4.1775e-07
-5.76516e-07
-5.88282e-08
-1.27069e-05
-2.52243e-07
1.19966e-07
8.2236e-07
-2.42977e-07
0.000424725
9.37783e-06
8.26398e-07
3.38267e-07
0.00115815
7.68704e-07
-1.81238e-07
-2.64141e-08
1.3029e-07
-8.9245e-08
-2.55122e-08
0.00102782
-2.17411e-08
0.000214609
-1.31922e-07
-4.88776e-07
-9.17061e-05
-1.7562e-07
-0.00331672
-1.80991e-07
3.00651e-08
8.88945e-05
-5.33435e-08
-2.41255e-07
-1.65266e-07
2.88618e-07
-1.3842e-07
-2.19161e-07
-3.42428e-07
-4.55391e-07
-9.695e-06
-1.55431e-07
9.84243e-09
2.04933e-07
-7.93168e-08
-1.29519e-07
-1.26631e-07
4.37763e-09
-1.35353e-06
-2.23838e-07
-2.59965e-07
1.80558e-07
-3.60205e-08
3.21515e-07
-0.0169127
-7.0053e-07
-7.75999e-09
-1.05697e-05
1.553e-06
-1.49945e-07
0.000128975
2.34853e-08
1.8488e-06
1.31911e-08
-4.76222e-07
-0.00644308
2.06581e-06
-1.52982e-07
-8.22273e-07
8.31495e-05
-3.38123e-07
1.30792e-08
-3.9024e-05
-1.29504e-07
0.00479328
-1.22136e-07
0.000163916
6.24276e-07
4.66624e-06
-0.00834713
0.000179996
8.26312e-08
-9.72167e-08
-2.57286e-07
6.83144e-07
2.61966e-06
-5.57002e-07
0.000521046
0.00115445
-2.61758e-07
0.000100023
5.51008e-06
-2.08908e-07
-3.49252e-07
3.31983e-06
1.02122e-06
-3.48791e-07
-2.12024e-07
-2.21742e-07
9.55667e-08
-2.7703e-07
1.53607e-07
-2.34588e-07
1.63951e-07
0.000332776
-2.42644e-08
-2.72237e-07
-9.95049e-08
-4.79274e-06
-2.20413e-07
-1.25347e-07
-1.72443e-06
-7.50037e-05
1.17141e-05
-1.08315e-07
-3.63034e-07
-1.76428e-07
9.52244e-07
1.28106e-07
4.10821e-07
4.9379e-06
-9.38912e-07
-0.00313871
-2.55699e-07
3.76849e-07
1.88462e-06
-8.11297e-07
1.75455e-05
0.000366132
-2.08528e-07
1.24349e-07
-2.14427e-08
6.1601e-05
-5.70621e-08
-5.72292e-08
-1.8659e-07
5.85137e-07
-0.00176688
-2.33076e-07
-6.56676e-08
1.30797e-05
-5.52971e-05
7.73986e-07
3.43903e-07
4.40287e-06
5.04182e-06
7.98354e-07
-2.64838e-05
-2.47957e-08
-6.01099e-08
-6.86519e-08
-1.67817e-07
1.76889e-05
1.68034e-05
6.50131e-06
-2.49877e-07
-1.18769e-07
-2.94309e-07
2.24426e-05
-1.37617e-07
-2.18976e-07
-1.75226e-07
2.78054e-07
2.97737e-09
-2.84888e-08
7.73875e-07
-1.03115e-06
-0.00734798
-5.83982e-07
-5.41795e-07
8.58028e-08
-7.08611e-05
8.40534e-07
-2.21857e-07
-2.324e-07
8.22575e-08
3.73176e-05
-3.77842e-07
-5.5922e-07
-4.48385e-06
-9.60914e-08
-1.64914e-07
5.34475e-10
-4.5421e-07
-6.20028e-06
1.17476e-07
-7.50765e-08
-5.33089e-09
-3.25641e-07
-3.40184e-07
-1.33849e-07
-8.92156e-08
-1.82301e-07
-3.42662e-07
0.00387544
7.71824e-08
9.91972e-08
-1.38445e-05
0.000131198
-1.4139e-05
1.01192e-07
-5.04311e-08
0.000800569
-2.08698e-07
6.03716e-06
-6.97306e-08
-1.91413e-05
-1.83445e-08
-1.65352e-07
1.94208e-07
-1.5361e-05
2.1737e-07
-1.80023e-07
-0.0134676
-2.81698e-07
-5.47534e-08
-2.19102e-07
-3.207e-07
8.44397e-07
1.71649e-08
8.12279e-05
-1.80721e-08
9.08381e-07
-1.05746e-05
-4.07644e-07
8.70614e-07
2.94432e-08
-2.17625e-07
-1.83939e-07
0.00146601
0.000107099
-6.32633e-08
1.84007e-06
-0.0142507
7.76143e-07
-4.15951e-06
-1.82689e-07
-3.51074e-07
-2.52873e-07
-2.65851e-06
-5.82499e-06
6.01791e-08
5.41998e-06
-4.78356e-08
-1.12895e-07
-0.00736837
-7.33367e-07
-2.85964e-07
0.00195689
2.49606e-06
0.000180101
-2.45287e-07
-1.93632e-07
8.76152e-05
-2.16642e-08
-2.40055e-07
-0.009885
-2.4932e-07
-7.72142e-09
-0.00731424
-0.0206085
-1.03388e-07
-4.13413e-07
3.54039e-08
-2.31325e-07
8.07636e-07
-6.06468e-08
1.08911e-07
4.26629e-06
-1.1992e-07
7.99048e-06
-3.37536e-07
-6.37873e-07
-3.73873e-08
-0.0101989
1.23696e-07
-6.87457e-07
8.07785e-06
6.76553e-06
-3.11303e-07
-5.45468e-06
-5.93198e-07
-2.87365e-07
-3.79244e-07
1.72673e-07
-1.86996e-07
0.00042921
-4.42211e-06
-1.27788e-07
1.03997e-08
-8.23911e-07
-2.4033e-07
-3.21315e-08
-3.35027e-07
-4.11413e-06
-1.33454e-07
3.01881e-07
-8.31418e-07
-4.7754e-07
6.26507e-06
1.71192e-07
-7.67452e-07
-2.82819e-06
-7.99575e-07
-2.47416e-07
1.73802e-06
1.41971e-05
4.00984e-05
-0.0281477
7.88076e-07
-1.05571e-06
-1.99001e-07
0.000411686
-0.000876865
3.97285e-05
0.000404294
-1.52838e-06
-2.224e-08
-3.04587e-06
9.01647e-05
-3.98695e-07
-1.46561e-06
2.53299e-07
0.000462781
-6.76261e-05
0.00323186
-1.3326e-07
2.84071e-07
-2.75284e-05
-2.62034e-07
-4.40976e-07
1.05507e-06
0.0174587
2.22892e-08
-9.88945e-08
2.71891e-07
-0.00227623
2.19668e-08
2.59254e-08
-2.12965e-07
8.24852e-08
-1.6901e-07
6.75974e-06
1.97231e-07
-8.02379e-09
-4.61923e-07
-5.68892e-07
0.00020071
-0.00871571
-3.30613e-07
-5.25782e-08
-2.42553e-07
-2.58647e-07
-5.20158e-08
-2.83123e-08
0.0230978
-3.06321e-07
3.21304e-07
-2.65185e-08
-4.64921e-07
6.93464e-07
-3.63944e-07
-7.05809e-05
-2.7369e-05
-2.60669e-06
-5.41618e-07
-9.68788e-08
0.000260948
0.000343761
-3.72814e-06
-2.59285e-07
-4.1284e-07
-1.87785e-07
-2.6532e-07
-4.28949e-08
1.66905e-07
-1.26774e-07
-7.13999e-08
-3.75202e-07
-1.43023e-05
-2.15269e-07
1.93538e-05
-0.00710007
-2.44766e-07
-0.00018596
-5.25262e-06
-1.37518e-07
-1.64386e-08
-1.63791e-07
-7.23382e-07
2.55482e-07
1.1678e-05
-2.73353e-07
2.16305e-07
-0.000645346
-1.87664e-07
4.68855e-08
5.06908e-08
1.83609e-05
-1.29396e-07
-8.67479e-08
-0.00936289
-1.46236e-07
-1.23036e-07
-1.59673e-08
6.8859e-05
-1.10704e-07
2.77497e-07
-1.92005e-07
-3.47411e-07
-0.00279965
0.00206501
-1.27535e-07
1.11183e-06
-2.48473e-07
-1.84706e-07
-1.56657e-06
0.000359078
0.000579664
-2.36608e-07
5.48094e-07
8.46257e-08
-1.71982e-07
-1.01765e-08
-6.30648e-08
-1.59312e-07
1.07618e-05
-3.16584e-07
2.11113e-08
9.47853e-07
3.93578e-08
-5.08435e-09
1.92756e-07
5.57164e-07
-0.00904055
-3.27163e-07
-9.24461e-07
0.00357763
-2.44665e-07
4.10883e-08
4.41747e-05
-0.00688002
4.55226e-09
-3.22485e-08
1.02726e-08
8.98447e-08
-1.73459e-08
3.50175e-07
-4.75239e-08
0.00132122
1.92251e-05
1.87431e-07
-1.52394e-07
6.69196e-08
-1.15992e-07
-0.000305766
0.00099682
8.69728e-06
-9.9951e-07
-1.19766e-07
-4.57013e-08
4.87653e-07
-7.46068e-08
-2.43884e-08
-3.01658e-08
-2.05181e-07
-5.02468e-07
2.29113e-07
-2.11348e-07
0.00707859
-5.84104e-07
-0.003079
0.00027788
-1.93164e-07
-4.71102e-05
-2.19544e-07
6.11339e-08
3.14825e-07
5.43866e-05
-9.10227e-08
2.15576e-05
-9.00097e-05
-2.20055e-07
-9.93432e-08
2.9847e-07
-3.62853e-08
9.35009e-05
-1.11412e-06
-1.93262e-07
2.94066e-07
-9.12204e-08
3.8891e-06
-0.00537664
-7.16543e-08
-1.01328e-07
5.03902e-06
0.000153711
-1.61124e-07
4.00674e-07
2.73381e-07
1.02037e-06
-6.10551e-08
0.00077008
1.73658e-07
-1.60933e-07
-1.31568e-05
-3.29097e-07
4.58811e-07
-3.60305e-08
-6.74847e-08
2.42518e-07
-6.56656e-06
2.99895e-08
-3.93307e-08
0.00130485
-0.0144484
0.00141183
-3.38696e-08
-1.85091e-07
-1.93038e-06
1.49078e-05
-0.00917405
7.18079e-07
4.21869e-08
-1.87227e-07
-5.38169e-07
-3.04964e-08
-1.88347e-07
-1.03344e-07
2.10595e-07
-7.07069e-07
-4.24782e-05
-2.58081e-07
-6.30134e-08
4.16372e-07
-4.75629e-07
-1.87397e-07
-7.25425e-07
-4.64162e-06
-0.00243771
0.000229344
4.53058e-05
-1.42467e-05
0.000870444
1.73578e-10
-1.02824e-07
3.6364e-07
6.62107e-07
-6.44299e-07
-1.17724e-07
-9.43682e-08
1.6774e-07
-1.56721e-07
-7.06742e-07
-2.02872e-07
-0.00276245
-1.65961e-07
-4.96166e-08
-0.00382101
-2.12665e-05
-3.05784e-07
-2.59996e-08
-5.76982e-08
-0.00752298
5.28718e-07
-4.03317e-07
-5.03501e-07
8.71413e-06
-5.14653e-08
-8.48929e-08
-4.42075e-08
-1.2539e-06
6.64365e-08
-5.60708e-08
2.7963e-06
1.55124e-07
-4.10417e-07
1.67296e-08
-7.4351e-08
-1.63438e-07
6.15673e-07
-0.00434006
0.000942946
0.00309055
1.14465e-08
8.11709e-08
2.08412e-07
-3.32509e-07
0.000216594
-1.26062e-07
-1.24044e-06
-0.00911339
-8.65292e-07
-5.67853e-06
-1.95131e-07
-8.14896e-08
0.000187786
-1.44151e-05
0.000524442
1.12691e-05
-1.0166e-07
-1.41049e-07
8.53727e-08
-1.26077e-07
-0.00313641
-0.00211966
-0.00210723
-3.9354e-08
1.49176e-08
-6.80052e-08
-0.00109321
-1.91365e-05
-0.0044436
-5.81226e-08
-2.61188e-07
-0.00338016
2.48563e-07
4.57805e-05
-0.0043889
-6.93633e-08
-3.45231e-07
-3.70343e-07
1.64711e-07
3.71367e-06
0.00431708
-5.6087e-08
-9.10011e-09
-6.03999e-08
1.54263e-07
-2.84472e-08
4.55672e-07
9.36232e-07
7.5978e-06
-0.00882656
-8.44631e-06
-0.0067828
-1.62218e-07
8.38655e-07
-6.97173e-08
3.75321e-08
3.41516e-07
1.05301e-06
4.83898e-07
6.21053e-08
-0.00391805
-2.789e-07
5.1063e-08
9.14639e-06
-1.91279e-07
2.43856e-07
-0.00383888
0.00415611
-2.50764e-07
-2.63164e-07
3.42255e-06
0.000713148
-1.00569e-05
2.46964e-05
6.2384e-07
-0.00727598
3.69232e-08
1.04172e-05
0.000197853
-0.00736743
0.00595061
-4.04031e-05
-0.00728128
1.05309e-06
7.42031e-07
-6.25614e-08
-9.91599e-08
7.08029e-07
-3.77964e-07
0.00221564
-1.49378e-07
-6.21586e-06
-2.05604e-07
-4.60671e-07
-3.7379e-07
0.00215736
-2.30245e-07
-2.1418e-07
-1.59597e-06
-2.70878e-05
1.7605e-05
6.53933e-06
0.00012989
-4.66699e-07
1.33007e-06
-2.4216e-07
0.000167345
-4.77499e-07
-1.09015e-05
0.00342569
1.19084e-05
0.00098893
-9.0131e-08
3.1111e-05
-2.36451e-08
1.18229e-05
-5.8107e-08
2.12373e-06
-5.06761e-07
-3.54914e-08
-1.776e-07
1.14132e-06
-3.46346e-07
0.0009121
-0.000236192
1.36923e-07
0.0207722
-1.50761e-07
-2.33013e-07
1.8266e-05
-6.30192e-07
7.74107e-06
-0.00119871
-1.44841e-08
5.00742e-07
-0.00079014
1.12643e-06
-1.62659e-07
-0.00216292
2.90532e-06
-1.03089e-07