/*--------------------------------*- C++ -*----------------------------------*\
| =========                 |                                                 |
| \\      /  F ield         | OpenFOAM: The Open Source CFD Toolbox           |
|  \\    /   O peration     | Version:  v2012                                 |
|   \\  /    A nd           | Website:  www.openfoam.com                      |
|    \\/     M anipulation  |                                                 |
\*---------------------------------------------------------------------------*/
FoamFile
{
    version     2.0;
    format      ascii;
    class       surfaceScalarField;
    location    "50";
    object      meshPhi;
}
// * * * * * * * * * * * * * * * * * * * * * * * * * * * * * * * * * * * * * //

dimensions      [0 3 -1 0 0 0 0];
oriented        oriented;


internalField   nonuniform List<scalar> 
14516
(
-0.000412997
-0.00123835
0.00164655
-8.84939e-07
-3.38741e-05
3.43666e-05
0.00138812
-0.00180634
0.000545219
-0.000747923
0.000125512
0.0024569
-0.00171771
-0.00074177
-0.00219232
0.00027314
0.00189996
0.000161219
-1.44461e-05
-0.000217174
-0.00140057
0.00123245
0.000123397
0.0018504
0.000184084
-0.00205302
0.00101914
0.00143459
0.00142957
-0.00178774
0.00035523
0.00187862
-0.000139483
-0.00174393
0.000547515
-9.08675e-05
-2.85849e-05
-0.000440261
0.000459948
-4.08358e-05
-2.8487e-05
-0.000428334
-9.23473e-06
0.000427597
-0.00149104
0.000503916
0.000970284
-0.000518994
-0.000991781
0.00215042
-0.000215454
-0.00193879
-0.000466106
-0.00016863
-0.00191793
0.00208149
0.000208256
-0.00173895
0.00152367
0.00107178
-0.000363338
-0.000713334
-1.21518e-05
1.21518e-05
0.00197019
-0.000266634
-0.00172625
0.000351032
0.000106187
0.000399553
3.43541e-06
-0.000412802
-3.30606e-05
-0.00104906
0.00106318
-0.00206678
0.000690903
0.00137125
0.00197702
-0.000147028
0.0018845
-0.00225113
0.000356687
0.000209118
0.000854006
0.00155788
-0.000329251
-0.00123265
-3.74626e-05
-3.58266e-05
4.80669e-05
0.000762539
-0.00234496
0.00157853
0.00220581
-0.000245429
-0.00196479
2.23686e-06
0.000104514
-0.00156818
0.00176918
0.00162917
-0.00125105
-0.000418373
-3.03477e-05
0.000150366
-0.000152928
0.00241179
-0.000539885
-0.000139719
2.94841e-05
0.000217028
-0.000373526
6.93382e-05
-1.87888e-05
0.000159241
-0.000205471
0.000219566
-0.000109928
-9.39544e-05
-0.0013072
6.53667e-05
-0.00070223
0.000631957
-0.000285676
-0.00188281
0.00216315
-0.000203834
-0.000613912
-0.00107776
-0.00127058
2.74901e-05
-0.00144821
0.00141822
0.00219712
-0.000527834
-0.00168267
-0.00219055
0.00225571
-8.72799e-05
0.00020933
-0.00131337
0.00110192
0.00210946
-0.00217931
6.46287e-05
-0.00147023
0.00154536
-0.00166267
0.000425478
0.00123543
0.0019206
6.78998e-05
-0.00199316
0.0010756
0.00052362
2.76897e-06
8.16281e-05
-0.000115793
0.00207549
-0.000331446
-0.00175648
0.00179743
-0.00205236
0.000251418
0.000212926
-0.000531171
0.000189385
0.00135522
0.000722422
-0.000190395
-0.00141263
0.00159636
0.00224577
-0.00045339
-0.00194991
0.00216948
-0.000224275
0.000253105
0.00161997
-0.000114216
0.00154096
-0.00131406
0.001521
3.20231e-06
-8.36395e-14
-3.61178e-06
0.00191356
-0.000350575
-0.00159809
-6.47295e-05
5.56225e-05
8.76431e-06
0.000493578
-0.00157566
-4.16647e-05
0.00195727
-0.000207266
-0.00155584
0.00172196
3.00931e-05
-1.76552e-09
-3.05362e-05
-0.00129718
0.000315175
0.00096848
-0.00159704
0.000494524
0.00108211
-0.00130754
0.00111147
-0.00145098
0.000333757
0.00109804
3.67876e-05
3.15244e-07
-3.68148e-05
-8.5512e-06
-0.00069908
0.000699533
0.00221701
0.000181686
5.09952e-05
-0.00068411
0.000626175
-0.00112174
-0.00049284
3.80458e-06
-0.00166788
0.00162721
-0.00187542
0.00194352
-8.56515e-05
0.00156219
-0.00035759
-0.00122565
-4.9939e-05
4.87047e-05
-0.000181005
-0.00154766
0.00172729
0.000672272
-0.000547182
-0.000139452
0.00107455
-0.000873682
0.000187329
-0.000726043
0.000709406
0.00215152
-4.61022e-05
3.42923e-05
2.24667e-06
0.000191074
0.00046602
0.00010307
-0.000456883
0.000339463
-0.000388669
0.000475897
0.0015434
-0.000281219
-0.0012844
0.000754206
-0.000160783
-0.000614554
0.000572778
0.000159546
2.68981e-05
1.52463e-06
0.00236653
-0.000162068
0.00223998
-0.000310044
0.000110217
-1.90629e-06
-0.000149596
0.00182158
0.000358051
-0.00011902
-0.000545814
0.000661349
1.3501e-08
2.14354e-06
7.76558e-05
0.00197204
-0.00205334
0.00193142
-0.00161518
-0.000502462
0.00249422
-0.00199769
0.00139634
-0.00137127
-0.00171761
0.000221776
-0.00137962
0.0011527
-0.00105953
0.00154849
-0.000256361
-0.00121345
0.000891733
0.00017323
0.000470351
-0.00059229
-1.6417e-06
3.42886e-07
4.24542e-07
0.00162488
-0.00172879
5.43202e-05
-7.60607e-05
-0.0021321
-8.96413e-05
-0.00166413
0.00173953
-0.00207539
0.00190175
-0.0015305
0.000363617
0.00116396
0.000685747
-0.000641559
-0.000209441
-0.00110207
-0.0019874
0.000488816
0.00145393
8.45759e-07
3.87463e-06
-7.36708e-06
-0.00158688
-0.00098858
-0.00103108
-0.000156168
-0.00137765
0.00151462
0.0015419
0.000412345
7.03982e-05
-0.00172762
0.00162155
0.000245272
-0.000155689
0.000140426
-0.000222396
0.000195622
0.00165671
8.02707e-05
-8.99038e-05
-1.27255e-06
9.63765e-06
0.00157167
0.00201555
-0.000197661
-0.00184043
1.78717e-05
-0.000389842
0.000298848
-9.80917e-05
0.000436328
-0.000349151
-0.00046747
1.82779e-05
3.50084e-05
0.000455623
-0.000499706
6.18825e-07
1.00594e-05
-1.17855e-05
0.000418128
-0.000529001
0.000803899
-0.000231368
-0.000591587
0.0013689
-0.00155113
0.00150753
0.000346267
-0.00185572
-8.77376e-06
6.7839e-06
0.00195005
-0.000444944
-0.000751708
0.0017675
0.000213685
0.00056994
-1.3612e-06
-9.42859e-07
-3.3058e-06
2.9716e-05
-3.63782e-05
0.000273232
0.00171964
-0.000111449
0.000513265
-0.00031754
0.0002733
-0.00103742
-0.000400995
0.000901826
-0.000951862
2.77149e-05
0.000363235
-0.000400023
-0.000410766
0.00250811
-0.00210121
-4.91912e-05
1.55943e-05
3.33858e-05
-0.00229032
0.0003648
-0.000623351
-0.00198003
0.00181417
0.000159282
0.000418303
-2.795e-05
0.000240502
-0.0015127
0.00124823
-0.00255717
0.000731221
0.00178879
0.000918478
-0.00182204
0.000902827
-3.55528e-05
-1.54425e-05
-0.000715386
0.00163117
-0.000185694
-0.00148658
0.00165781
0.00173648
-0.00163238
-2.55678e-05
2.01567e-05
3.75623e-06
0.000325446
-0.00156243
0.0012017
0.00217724
-0.000997397
-0.0011834
0.00151149
-0.0011383
-0.000373892
-0.00191789
0.00177763
0.00013212
-0.000515601
0.00175127
0.00191194
4.05074e-05
-0.00195709
0.00187039
1.17866e-06
-0.00036542
-0.00129917
-0.00115115
0.00144252
-3.93786e-05
0.00166217
-0.00166944
-0.000374998
0.000393907
-0.00174097
0.00153997
0.00104454
-1.57816e-05
-0.00109054
0.00190691
-0.00219793
-0.00194307
0.00201713
0.000292961
0.000530862
0.00164236
-0.00252561
0.000633032
0.00188805
-0.000135896
-0.00121932
0.00133259
-0.00194583
0.00119083
5.7413e-06
6.58118e-05
0.00181673
-0.000291724
-0.000775988
-0.00143794
0.00221026
-3.68295e-06
-0.00218114
-0.00168872
0.00127783
0.000369257
-0.000120656
-0.00164067
2.58292e-05
4.75819e-07
-8.89596e-05
1.53267e-05
0.000402175
-0.000427614
0.00212993
0.000226459
-0.00175883
-4.1883e-05
0.00179353
9.26251e-05
0.00143673
-0.0015342
-0.000137818
0.00203986
0.000213612
-0.00210251
-0.00163367
-0.0005734
-0.00113063
-0.00139771
2.53195e-05
-3.88329e-05
-0.000189466
-0.00127867
0.00144792
-0.000112163
0.00201992
2.67741e-05
-1.69537e-06
0.00206057
-0.00195398
-0.000111135
-0.000105184
0.00165161
-0.00155317
-0.000680389
-0.00133393
0.00197163
-0.00158911
3.67296e-06
0.000953403
-2.76647e-05
-0.000678589
0.00172936
-0.00197565
0.00222895
-0.000740456
0.00053641
0.000184774
0.00136008
-0.00147127
0.000150971
-0.00145159
0.00129824
-6.07191e-06
-6.99282e-06
4.32645e-06
7.22608e-06
-0.000497602
-0.00142672
3.22461e-05
-6.95029e-05
2.75455e-05
-0.00160825
0.000310945
0.001295
0.00188129
0.000175594
-0.00156701
0.00148894
1.58718e-05
0.00183321
-0.00182701
-4.40718e-05
6.67696e-05
0.00208052
0.000342822
0.00116248
-0.00152926
0.00229107
-0.000170321
2.72075e-05
-0.000460358
0.000423715
1.10584e-05
0.001665
-0.00171307
0.00143162
0.000121615
-0.00172402
-3.5341e-06
0.00169031
-0.000732881
0.000484252
2.81777e-06
0.00118248
0.00204079
-0.00179172
-0.000558621
-8.94739e-05
3.11819e-05
0.000226474
0.0014017
-0.00164324
-0.00195625
0.000227627
0.00172225
-0.000122205
0.00151596
0.000239463
-0.0014953
0.00125348
-0.00154178
0.00165417
-0.000156894
-8.21123e-05
0.00183103
-0.00175666
-0.0023289
0.00192255
0.000369045
-0.0005401
-0.00142142
-0.000142742
-0.00190714
0.00203103
-7.40164e-05
-0.000404639
0.000467627
0.000483158
0.000157031
-0.00064192
7.41457e-05
-0.00145635
0.00133171
3.6892e-05
-4.84378e-05
-2.5258e-06
-0.000445107
-0.00154133
1.66406e-05
-1.89376e-05
2.00231e-06
-2.41928e-06
1.89365e-05
-0.00134794
0.00143601
0.000732615
-0.00217389
-0.00185872
-0.000399365
0.00223262
-0.000392864
0.000310015
-3.98814e-05
-0.000306576
0.000334213
-0.0022888
0.000626153
0.00165522
-0.000236692
-0.00153256
0.00173138
3.29803e-05
2.21909e-05
-5.5276e-05
-1.37982e-05
4.67313e-05
-0.00123409
8.91625e-05
-0.00203571
-3.016e-05
0.000452435
-0.000515694
-0.00129351
0.00015617
0.00185947
-8.07889e-06
2.5214e-05
-1.76884e-05
-8.46808e-05
9.68803e-05
-5.89046e-05
-0.000174641
0.000112966
0.00083337
-0.00154733
-0.00151218
0.0017225
-0.00235606
0.000994223
0.00135559
1.34019e-05
0.000275868
-0.000359422
0.00159527
-0.00174952
-0.00143652
-0.000984813
0.00120262
0.000284194
-0.00216714
0.00185954
0.000105846
-1.10993e-05
7.87918e-06
-7.05837e-07
0.00131463
-0.00148991
0.000121809
-0.00184995
0.0017161
-0.00110529
-0.00125589
0.000599468
-0.000714447
2.41287e-05
-0.00143304
-0.000719343
0.00214817
-0.00054459
-0.000737244
-0.000905905
0.00164398
0.00123784
8.99491e-05
-0.0013258
8.8353e-05
-1.61441e-05
0.000135221
-6.11794e-06
-0.000180668
0.000138703
0.000279008
-0.000426297
-0.000742978
-0.00155269
-0.00103924
-0.000583352
0.00161706
-0.00166261
0.00161617
2.41352e-05
0.000597364
-0.00133472
-7.07067e-06
0.000275519
-0.000380712
-0.000283094
0.000413064
0.000520498
-0.00156539
0.00189152
-9.11356e-05
-0.00181686
-0.00209274
0.0016705
0.000403535
0.00130759
0.000230684
0.000650886
0.00179194
-0.00166261
-0.000158469
-0.00207347
0.00176521
0.000300969
-0.00195405
0.000188108
0.00157217
-0.00148626
-0.000117621
-4.93287e-05
-0.00262836
0.00118179
0.00144405
-1.51878e-06
5.63546e-05
1.52121e-05
1.07954e-05
0.000589173
0.000921594
0.000185562
-0.00190511
0.00170846
-0.00190077
0.00196414
0.000351438
-0.00141649
-0.000325221
0.000362413
-4.68024e-05
0.00159825
-0.00139254
0.00170488
0.00136808
0.000152956
0.00209913
0.000181747
0.000240268
0.000865396
-0.00110764
-0.00124761
0.00102788
0.000178102
0.000237942
-0.000241067
0.00125141
0.000540431
-3.71808e-05
-4.80962e-05
6.52297e-05
-0.00119128
0.000123099
-0.00225459
0.00138041
0.000869075
0.000486564
-0.00167042
0.00144312
9.35848e-05
0.000841712
-0.00116355
0.00148343
-0.000400297
0.000381658
-4.26378e-06
0.00169662
-0.00196325
0.000257074
-0.001295
-0.00162531
-0.00177883
5.86491e-05
0.00170672
0.00138403
-0.00177802
0.000365768
0.00191951
-0.00192161
-1.82896e-05
-0.00146627
-0.00200167
0.000415444
0.0015841
0.000500167
0.00173441
-0.00196672
0.002068
-0.00010942
-2.18947e-05
-0.00192628
0.000832356
0.00108999
0.000159933
-0.0014763
-0.0015396
0.0011725
-0.000900823
-0.00102952
0.00200432
-0.000320186
-0.00116216
0.00155749
-0.000414886
0.000778309
-0.00191121
6.55929e-05
-8.84296e-05
-0.000198469
0.000679385
0.00150217
-0.000216412
4.40878e-05
-2.09655e-05
-9.56222e-05
0.00133482
0.00223607
-0.000148036
-0.00122916
-0.00140183
0.00165401
-0.000297398
-0.000404784
-0.00120578
0.00141203
-0.00166093
8.75134e-05
-0.00185203
0.00174912
-0.00156327
-0.000101158
0.0016255
-0.00131749
-0.00172129
0.000228018
0.00148875
3.28561e-05
0.00157397
-0.00166303
-0.00219234
0.000404401
0.00176976
0.000103741
0.00188905
-8.24714e-05
0.000593155
0.000214117
-0.00194981
0.00172595
-1.89335e-05
-1.54026e-05
2.11179e-05
0.000114842
8.5553e-06
-0.000406271
-0.00171271
-0.000216651
0.00178315
-0.000840205
-0.00116422
0.00106259
-0.00171801
0.000644333
9.91751e-05
0.00138798
2.49394e-05
0.000714683
-0.000744901
0.0019576
0.00140466
-0.00125593
-3.06464e-05
2.84389e-05
2.60247e-06
6.92595e-06
0.000132362
-0.000171068
0.00159313
-0.000362246
-0.00160067
0.00167682
-7.78077e-05
-0.000686176
0.000705945
0.000453465
-0.000435431
-0.000229037
0.00166622
-0.00144844
-0.00107218
-0.000868265
0.00193784
0.000285099
-0.000337261
-0.00221272
0.00170504
-0.00185415
-1.07732e-05
-0.00179209
-3.01671e-05
0.000303066
0.00148587
7.70325e-05
-0.00156835
-0.00090154
0.00136094
-0.000458663
-0.00126599
-0.00198983
-0.000398752
-0.000776363
0.000408392
0.000138389
0.00162012
-0.0017739
-0.00166859
-0.00171153
0.00183399
0.000259354
0.00121888
0.000364691
-0.000461451
0.000487824
-0.00177709
0.00206079
-0.000287874
0.00036174
-0.000474283
-0.00068725
-0.00142118
-0.00121044
-0.00209617
0.00190147
0.000175858
-0.00202283
0.00186153
-0.001675
0.000385754
-3.19484e-05
0.000429626
-0.00143073
0.00021405
-0.000468471
0.000180952
-0.00231418
0.00160796
-0.000236645
-2.0746e-05
0.000247447
-0.000464321
0.000953996
-0.000494377
-2.0561e-05
0.000440628
-0.000908787
-0.00120355
0.00142192
0.000113764
-0.00198571
0.00186593
1.49347e-05
0.000150698
-0.000169031
-9.09628e-05
0.000103034
-6.98852e-05
-0.000549835
0.00160209
-0.00192587
0.00187924
0.0011955
-0.0013545
0.00157585
-0.00141847
3.39198e-05
-0.00149815
-0.0010834
-0.00170038
-0.0024625
0.00138748
-0.00158574
-0.000672636
0.00162782
-0.00016967
-0.00146013
-0.00200717
0.00186453
-0.00251929
0.00163314
-0.000882528
-0.000814256
0.00119626
-0.0020847
0.000881607
-0.00127137
0.00169662
-5.99278e-05
0.00153994
9.08955e-08
-0.00105288
0.00122564
-0.000175915
0.000247671
-0.000356644
0.00175678
-0.00160052
-0.000175688
-0.00160506
0.001198
-0.0018723
9.59715e-05
0.00104198
-0.00141832
0.00162444
-0.00171055
-0.000834139
0.000649686
7.01431e-05
-2.03045e-05
4.7611e-06
0.00205411
-0.0020651
-0.00185309
0.00139087
-0.00200066
0.00188435
-0.000633836
-0.000221801
-0.00228346
0.00153321
-3.61252e-07
1.95144e-05
-9.98399e-05
3.8843e-05
-2.43228e-06
1.40037e-05
-1.76243e-05
0.0013583
0.00210797
-0.000917506
-0.00141251
0.00016124
0.00157532
2.74873e-05
0.000257389
-0.000296108
-0.000438779
-0.000201289
0.00020846
-0.00197456
0.00175064
0.000714651
-0.0002469
-0.0003111
0.000259433
0.000696446
0.000865661
-0.00124573
0.00133768
0.00201724
0.000203748
-0.00161811
-0.00168982
-0.000366666
-0.00189935
1.48772e-05
-4.58982e-05
-5.79495e-06
2.93014e-05
-0.00169629
-0.00026167
-0.0018304
-0.00115318
-0.0011769
0.000202688
-0.000157187
-0.000150027
0.000289223
-0.00032483
-6.03195e-05
-0.00139946
0.000156353
-0.00162891
-0.0016966
0.000114343
1.00594e-05
-0.000121656
-0.00133758
3.26267e-05
-8.07353e-06
-3.32141e-05
-0.00188987
0.00232146
-0.00122033
-0.00110649
-0.000148953
0.000551738
-0.000416402
-0.00201972
0.00227936
-0.00112586
0.00142562
0.00206511
-9.67658e-05
-0.00152758
3.44772e-06
0.00181734
-0.00182374
5.12935e-05
0.00163868
-0.00166353
-0.0013014
-0.000152564
0.00158499
3.1253e-05
-0.00174535
0.00145077
0.000290943
-0.00130103
0.00120667
-0.00145384
0.000399361
-0.000562346
0.00142634
0.00216497
-0.000164038
0.000777349
0.000164341
-0.000968049
0.00171655
5.03134e-05
-0.00178899
-0.00126752
0.00117115
0.00169017
-0.000699398
-0.00101844
0.000904721
-0.000154049
0.000780575
-0.000249408
-0.000607843
0.00035711
0.00129586
1.25316e-05
-0.00118653
0.000959305
0.00135654
-0.000366549
0.00169438
-2.14591e-07
0.00169951
-0.00161721
-0.000114095
-0.00183901
0.00189942
-8.08956e-05
-7.76619e-07
-1.34128e-05
0.000422873
0.000276522
-0.00197396
-0.000170589
0.00213887
-0.00129887
-0.000242601
2.94535e-05
-0.000348663
0.00150271
-0.00155527
4.06152e-05
7.96376e-05
-0.0016819
0.00192592
-0.00189348
-5.70117e-05
-8.93807e-05
-0.000572393
0.000654016
0.00032875
-0.00230425
-1.29402e-05
-0.000924289
-0.00189948
-0.00160469
-0.00142419
0.00129914
2.10943e-05
-2.95807e-05
0.00248431
-0.000825406
0.00181388
-0.00186479
-0.000144305
0.00200749
0.000265989
-7.14608e-05
-0.00059983
0.00109026
7.57058e-05
-7.00496e-06
-6.90535e-05
-0.00163531
0.000459844
0.00022929
-0.00192511
0.000115089
-0.00142497
0.000258383
0.00150023
-0.00175971
-0.000740354
-0.00100781
0.00179167
-0.00179116
-0.00162177
0.00155567
-0.000105553
2.32755e-05
-0.00148251
0.00132914
0.000150274
0.00161844
-0.000126113
-0.000668788
3.29652e-05
0.000634354
-0.00188277
0.00168098
0.000182904
0.00183222
0.000148507
-0.00198635
2.80355e-05
-0.00022668
0.000191057
-0.000570241
0.000671418
-0.000106013
4.66698e-05
-0.000169882
-0.000144866
0.000178192
-0.00142769
0.000256568
0.00117005
-2.33506e-05
0.000232119
-0.000217121
5.16206e-05
-6.3735e-05
-1.63577e-06
-0.00160076
0.00156253
3.14165e-05
-0.00111732
-0.00081377
0.00192502
-0.00132514
-0.00146834
0.00109111
-0.00157185
2.29214e-05
0.00150368
0.00178431
0.000118904
0.00185609
-9.59713e-05
0.00163472
-0.00185354
0.00084875
-0.000497974
-0.000404666
-0.00123255
0.000177253
0.00233051
-0.00143097
-0.000901997
0.000582187
9.46465e-05
-0.000131449
-0.00129987
-0.000988902
0.00144265
-0.00168314
0.00159004
-0.00176626
-0.000256098
0.00200375
-0.00174938
0.0018218
0.000882944
-0.00171408
-0.00207958
0.00153298
-0.00180702
0.00068374
-0.000732396
0.000770299
-7.05989e-05
-0.00140033
0.00181442
0.000176574
-0.00208496
0.00153883
0.00182982
4.46309e-05
-0.00117802
-0.000790653
0.00199084
-0.000274779
-0.00171865
-0.000164137
0.00159297
-0.00145176
-0.002045
0.00026425
0.00144821
-0.00172161
0.000268953
0.00012323
-0.000192034
1.23973e-05
-0.00162879
-5.3936e-06
-0.00098614
0.000960277
-0.00135885
-0.000126245
0.0014639
0.000174918
-0.00155668
0.00159944
-0.000440716
-0.000314052
0.000743572
-5.89461e-06
5.89461e-06
0.000144293
-0.000840648
0.000387616
-0.000167203
-0.000753821
0.000844185
0.00191769
2.12791e-05
-0.00194741
9.89828e-05
-1.53817e-05
-9.22169e-05
-0.00159161
0.00143899
-5.53122e-05
5.52164e-05
-2.74324e-05
-0.00170958
-7.67485e-05
0.00198485
-0.000978363
-0.00110588
-0.00024788
-0.00123787
9.65386e-05
-7.9964e-06
0.00140942
0.000185807
-0.00163308
-0.00156474
0.00153398
-0.000901291
0.000770455
9.85331e-05
-0.000199018
-2.3588e-05
0.00021642
1.23353e-07
2.5165e-05
2.38088e-05
-0.000229601
0.0015153
-0.000103831
0.00109972
-0.00128174
0.000201161
-0.000233041
-0.00138736
0.00148385
-0.000101061
-0.000144588
0.000123052
-0.000136718
-5.64071e-05
-0.0015899
0.00149658
6.19656e-05
-0.000163173
0.00198873
-0.0011653
0.00027937
0.000829074
-0.00029682
0.000254856
0.00160329
-0.00125037
4.63239e-05
-2.62431e-05
0.00209747
-0.00172456
-0.00039132
-0.000386656
-0.00104211
0.00124931
-0.00153325
0.00018919
-0.000145236
-0.000133414
-2.12492e-05
1.28439e-05
-0.000680603
0.00110497
0.000941422
-0.000976826
-0.000368745
-0.00123865
0.00161257
0.000108769
0.00116429
-0.00116878
-0.000317488
0.00147878
0.0017496
0.000327595
0.00112589
0.000384527
-0.00154135
-0.00108873
0.001223
-0.000139224
0.000216323
-0.000884603
0.000656485
-0.000275925
2.76399e-05
-3.06054e-05
-2.76963e-07
-0.00184276
0.0016286
-0.00154857
-8.17846e-05
-2.26556e-05
-8.17424e-05
-0.00118742
-0.000496312
0.00150672
-0.00199893
0.000734484
-0.000985591
-9.21432e-05
0.00149866
-0.00141387
0.000648741
-5.22964e-05
-0.000604417
-0.00150441
0.0013798
0.00153919
-0.000169614
-0.0022501
0.000979468
0.00126368
0.00194847
-0.000148673
0.00136283
0.000450162
-0.000104136
0.000675711
-3.44305e-05
-0.00130178
0.0013458
-4.72534e-05
0.000118197
0.00136348
0.000239297
0.00123216
0.00110696
-0.00120624
9.84658e-05
-0.00164204
0.00150222
0.000558972
-0.000656076
-0.0004997
0.000706462
-0.00118793
-8.86502e-05
0.00127478
-6.84372e-05
0.00061964
0.00120441
-0.00131365
0.000105006
4.29487e-05
-0.000541304
0.000494782
-0.000394543
-0.000817152
0.00119687
0.00168122
-0.00178853
9.99064e-05
0.000839713
-0.00174623
-0.00106895
-0.000157772
-0.000123833
-0.000882459
0.000932248
-5.13598e-05
6.4983e-05
-4.67259e-05
0.000248927
-0.00116204
0.000900576
1.92211e-05
0.000203977
-0.000132924
-0.000237862
0.00020756
-0.0011787
0.000131903
0.00104489
0.00159917
-5.64331e-06
0.000759549
-8.11879e-05
-0.00068436
1.66089e-05
-0.00187515
-1.07084e-05
0.0016372
5.89568e-05
-0.00149756
0.0014355
-3.60931e-05
0.00176133
0.00202935
-0.000142066
-0.000134043
0.00180609
-4.44925e-05
-0.00120898
0.00125195
-0.000227684
1.48714e-05
3.01361e-05
-7.91166e-05
0.000684789
-0.000606353
-0.00177189
-0.000127317
0.00187199
-0.000411738
0.00177353
-0.000143135
-0.000280753
0.000367223
0.000558092
-7.11781e-05
-0.000488899
-0.000862439
0.000646242
0.000195677
-0.000568706
-0.000135443
-0.000701118
0.000621147
0.000645324
-0.00105217
-3.33452e-05
0.00141374
-4.21264e-06
0.000372495
-0.00156758
-3.9118e-05
-0.000767727
0.00159625
0.000159826
-0.00206686
0.00190277
-0.00190819
0.0020638
2.67439e-05
-0.00021095
0.0001785
-0.000129817
-0.000753571
-0.000280513
0.00263733
-0.00179952
3.74801e-06
0.000195601
-0.00238762
0.0011051
0.00127442
8.44229e-05
-0.000665662
-2.92856e-05
-0.00125123
-4.40509e-05
0.00124176
0.000161481
0.00118267
-0.00128098
0.000133578
0.00178506
-0.00193194
0.00189771
-0.00173593
-0.000186762
-0.000108896
5.10945e-05
0.000739719
0.000274271
-0.00103489
-0.00156964
0.000394538
0.00170663
6.28082e-05
-0.000517905
0.000448895
-0.000100825
-0.000829871
-1.66042e-05
-0.000498954
0.000454385
-0.00201227
0.0018423
-0.00094541
0.000161702
-0.000672323
0.00136
-0.00101813
-0.000162336
-0.000754355
0.000205055
0.000464065
9.1523e-05
0.00120885
-0.00117585
-6.62526e-05
0.00189826
0.00149656
0.0001787
-0.00168085
-0.00164024
0.00178234
-0.000150686
-0.00120738
-0.000990552
0.000719242
0.0001787
-0.00128212
0.00119871
-0.00129042
0.000197471
-0.00077066
0.000134575
0.000612904
-0.00141213
0.00146802
0.000945273
-0.00022417
-0.00155202
-0.000173817
0.00172085
-0.00214508
0.00123068
0.000901691
-0.000355414
-0.00031659
0.000669394
-0.00179754
0.00191114
-0.000120252
0.000110657
0.00110199
-0.00122699
7.43742e-05
0.00154533
-0.00165498
2.66712e-05
-0.000220001
0.000189347
-0.000515429
-4.37119e-05
0.000551249
0.000101549
0.00109542
-0.00119996
-0.000462591
0.00130198
-0.000107468
-0.00176483
0.00184971
-0.000109104
-0.00151803
-0.00110454
0.000387038
0.000704543
0.00046477
-0.00165021
-0.00116101
-0.00109521
-0.000486363
0.00107485
-0.000193065
4.24199e-05
5.42148e-05
0.00121641
-0.00126243
0.00119278
-1.89998e-05
-0.00136236
5.72258e-05
0.00187312
9.3928e-06
8.05135e-05
2.42277e-05
-0.000101958
-0.00054663
0.000465351
1.24661e-05
-0.00156128
-1.64581e-05
0.000952149
-0.00100665
0.00198647
-0.00170714
-0.000287147
0.000128025
-4.47591e-05
-1.38131e-07
5.40785e-06
0.000221803
-0.000145992
0.00174154
-0.00160207
4.94322e-06
3.69788e-05
-5.87895e-05
-9.72884e-05
-0.00137691
0.000165817
6.06458e-05
-0.00135921
6.00443e-05
-0.000564486
0.000504057
-0.00126309
0.00101465
0.00017778
-0.000120943
0.00201792
-0.000613498
-0.000177409
-0.000605202
0.000529165
3.51168e-05
-9.9839e-05
-0.000609017
0.00178281
-1.47416e-06
4.19238e-05
-0.00191537
0.00177113
0.00183375
6.39503e-05
9.89037e-05
-2.95308e-05
0.000544429
-0.000578769
6.35909e-05
0.000452104
-0.000514524
0.000574236
-0.00163777
7.88317e-05
7.73817e-05
0.00138065
-0.00145946
0.00018192
0.00181872
-0.00200768
0.00173835
-0.00189307
-0.000198563
0.00168988
9.46281e-06
6.60357e-05
-1.92155e-05
0.000238206
-0.000226269
-0.0005857
-8.4207e-05
-0.000692047
0.000723531
0.00158988
-0.00174234
-0.000188191
0.00158112
-0.0013951
0.00205686
-0.00148121
-0.000582893
6.71672e-05
-0.00054866
0.000481226
0.000175256
-0.00194452
0.00175588
0.00101941
-0.000166378
-0.000856846
-5.73329e-05
0.000282943
-0.00165718
-0.000242554
-0.000497451
0.00158375
-0.000276702
6.23465e-05
7.63426e-05
0.00184434
-0.000494434
-0.000566071
0.0015506
-0.00155991
-1.00383e-05
-0.00128047
0.00142084
-0.000143482
2.23389e-05
-0.000211204
0.000181457
-8.5755e-05
7.11478e-05
0.000515015
-0.000593661
-0.00151161
-0.00212795
0.00178343
-0.00131543
0.00012745
-0.000589606
0.000231128
-0.000214032
7.59955e-05
-0.0006502
0.00226298
-0.00218448
-8.18372e-05
-6.35405e-05
-0.000151529
-0.000238057
5.85112e-05
-0.000522224
0.000456601
0.000909559
-0.000758225
-0.000173311
-0.000229399
0.000203074
-0.000179347
-0.000209226
-2.44039e-05
0.00178634
-6.67378e-05
-0.00048223
-0.000531827
0.000464813
-0.000276638
0.00121236
-0.000950976
0.00146831
-0.00165483
0.000180566
-0.00148489
8.62589e-05
-0.0010875
0.00122032
-0.000138949
-0.00138721
0.000899856
-0.00016714
-0.000124154
0.00197846
0.000185818
-0.000111249
-0.000105498
0.00126289
-0.0010468
0.00189528
-0.000872318
3.71989e-05
-4.71764e-05
-0.000709716
-0.000407739
-6.85994e-05
0.00135669
-0.00128878
0.00125822
-0.00103539
-0.000237208
-0.000101559
-0.00121315
2.5228e-05
-0.000226837
0.000196832
-0.0018769
0.00166588
0.000204356
-0.00187357
-0.00134713
0.000108095
-0.00122149
0.00109896
-0.00147934
0.000181815
-0.00168576
0.00101009
-0.000213791
0.000234211
2.02094e-05
0.000203891
0.000177606
-0.0016114
0.00142976
0.000110903
0.000852076
-0.000976375
-9.15387e-05
0.00152397
0.000117166
-0.000381704
0.000325293
4.55351e-05
0.000572531
-0.000506726
-6.72575e-05
0.000584491
0.00174302
2.74042e-05
-0.000221163
0.000190306
-7.22608e-06
4.4993e-07
4.93848e-06
4.40945e-05
0.000343837
-0.000396116
0.00104458
-0.00126821
-0.000479205
0.00211101
0.00154925
-0.00137547
-0.00126248
0.00016863
-0.00127555
-0.00053634
-0.00107419
-0.000721406
0.00177843
-0.00178064
-0.00023111
0.00200462
-0.00161775
-0.000778916
-0.00187486
0.00155885
0.000310218
0.00148657
-0.00167717
0.00166296
-0.00162452
0.00149779
0.0001118
0.00210378
-0.00174591
-0.00151048
0.000119188
-0.000148768
-0.00123944
-0.00152267
-6.1198e-05
0.00154761
-0.000151986
9.46003e-05
-0.000675828
0.000579323
6.07332e-05
6.19034e-05
0.00128069
0.000177538
-0.00146075
-7.10364e-07
-0.00144213
0.00143918
-0.00171073
0.00024881
-3.42142e-05
-0.000194365
0.00163819
-0.000290746
-0.00022675
0.000516565
0.000140575
0.00135026
-0.00151156
5.29279e-05
-0.00161252
0.00051999
-0.000468329
-0.00188995
0.00185172
4.32861e-05
-0.000809527
0.00135972
0.00013976
0.00139782
-0.00132178
6.33107e-05
0.0017982
-0.00187919
0.00134446
-0.00130506
-0.00157349
-0.000171026
0.00174024
0.00140458
-0.000126138
-0.00191503
0.000110515
-0.00168767
0.00157296
-4.84758e-05
-0.000714349
0.000756993
-0.000956937
0.00107028
-0.000780722
-0.000216085
-0.00191864
0.00177826
0.000119466
0.00165
0.000123353
-0.00114645
0.00123999
0.000135998
-3.72736e-05
-0.00183718
0.000529537
-0.000489981
-0.00139677
0.00157046
-0.00174935
-0.000541443
-0.00132249
0.0014606
-0.000143673
-0.000256926
-8.02011e-05
0.00153044
-0.00155296
-9.38085e-05
0.00130857
-0.000936434
0.000975111
-7.03342e-05
-0.000129187
0.00102036
0.000201567
0.000608023
4.04286e-06
-0.000674467
0.00176485
0.000112427
-0.000133989
0.000274294
0.00114533
-3.90703e-05
-0.000175804
-0.000900467
-0.000657243
0.00155162
0.000187795
0.0017277
-0.00192167
-0.000592831
6.91021e-05
3.30358e-07
8.59148e-06
-8.99823e-06
-0.001312
0.00116228
0.00072
-0.000317519
-0.00040391
0.00144007
-2.02195e-05
-0.0013846
0.00131531
0.00184528
-0.00173766
-0.000111536
0.00146674
0.000118473
0.00183218
-0.000119699
-0.000190025
-0.00178477
-0.000146224
0.00195818
-0.00156234
0.000165588
0.00139218
0.00069059
0.00156937
0.00171294
0.000116873
-0.00181278
0.00194677
-0.000352611
-0.0015964
0.00192304
-0.00175432
-0.000186066
3.51782e-06
-1.29849e-06
9.55553e-06
0.00185779
-0.00187537
-0.000194209
0.00200517
-0.000124446
0.00163908
-5.86508e-05
-0.00160585
7.48871e-05
-0.00179062
0.00174007
0.000311315
3.99298e-05
0.0017518
9.75206e-05
-0.00186344
0.00121802
0.000168374
-0.00142431
0.00221817
-9.49298e-05
-0.00213534
-8.20475e-05
-0.000619523
-0.000464776
-0.000667729
0.001898
-0.000728694
-0.00179603
0.00191658
-0.00046549
-0.00149495
0.00153189
-9.06927e-05
-0.00149975
0.00135179
0.00188424
-0.00184452
0.000499329
-0.00132223
5.31052e-05
-0.000190096
-0.00193847
0.00103135
-0.00196534
0.000391535
0.00155926
-0.000204121
0.00143568
-9.5286e-05
0.00145914
-0.00144117
-6.68551e-05
1.96151e-05
0.00115241
-0.00117467
-0.000114306
0.00187122
-0.00104965
0.00183611
-0.00198203
-0.00162721
0.0019578
-0.00178433
-0.000176499
0.000164794
0.00181298
-0.00198811
-0.000174109
-0.000349123
-3.45594e-05
-0.00143219
0.00146609
0.00178744
-0.00157708
0.00132575
6.34936e-05
0.00185977
-0.001927
-0.000438511
0.000498449
-7.56646e-05
-0.00173425
0.000158822
0.0014477
-0.000129259
0.00144054
-0.00148373
0.00176591
-8.32161e-05
0.00190614
-0.00182763
7.18795e-05
-0.000525777
0.00177827
-0.00187952
0.000980173
-0.000988095
-2.14705e-05
0.00199342
-8.67979e-05
-0.00128111
7.0662e-05
-0.000118404
0.00198815
-0.00169386
0.000603889
0.000105571
-0.000155124
0.0015996
-6.67329e-05
0.00173989
-9.91344e-05
0.00172504
-0.00184514
-1.2334e-05
5.15516e-05
-4.90889e-05
0.00121989
-0.0011882
-8.04256e-05
-0.000231826
0.000878836
-0.000208705
-0.00125183
0.00145298
9.77476e-05
0.00180539
-7.29707e-05
0.00142854
0.00127965
8.25278e-05
0.00175644
-8.51774e-05
0.000187628
0.00123055
-0.000100973
0.00185699
-3.02471e-05
0.00151088
-0.00132436
0.00122891
0.00184573
-0.00193183
0.000304642
-0.000191074
-0.000154437
0.00193358
0.000683035
-0.000590405
5.67022e-05
0.00131282
-0.00137102
-0.00162318
7.8399e-05
-0.000171434
1.42911e-05
0.000149431
-0.00119042
-9.32649e-05
-0.000156081
0.00174035
1.82272e-05
0.00011506
0.000899434
-0.000414203
-0.00109993
0.00180132
-5.28984e-05
-0.00177044
-0.000100548
0.00183979
-0.000886989
-0.000110325
0.00098609
0.000297306
-0.00202654
-0.00201787
0.000229632
-0.00164857
0.0016442
-0.000161712
-0.00150235
-0.000219749
0.00181106
-0.00159651
0.000107363
-0.00100581
-0.000565504
0.000631099
-7.27961e-05
1.54774e-05
-0.000170977
0.00014824
-0.0015207
-1.4604e-05
-0.000162121
0.000168791
1.39217e-05
-0.00016994
0.000148142
-0.00130439
0.00135962
-0.000104854
0.00180363
-0.00194629
0.000135439
-0.00169514
-0.000168755
0.000146219
0.000136124
0.00182336
-0.00197092
1.30196e-05
-1.80027e-05
-4.95684e-07
-0.00101836
-0.00113956
0.00109395
-0.00111065
-3.92896e-05
-0.00212477
-0.00168546
0.00158726
9.7086e-05