/*--------------------------------*- C++ -*----------------------------------*\
| =========                 |                                                 |
| \\      /  F ield         | OpenFOAM: The Open Source CFD Toolbox           |
|  \\    /   O peration     | Version:  v2012                                 |
|   \\  /    A nd           | Website:  www.openfoam.com                      |
|    \\/     M anipulation  |                                                 |
\*---------------------------------------------------------------------------*/
FoamFile
{
    version     2.0;
    format      ascii;
    class       surfaceScalarField;
    location    "300";
    object      meshPhiCN_0;
}
// * * * * * * * * * * * * * * * * * * * * * * * * * * * * * * * * * * * * * //

dimensions      [0 3 -1 0 0 0 0];
oriented        oriented;


internalField   nonuniform List<scalar> 
27907
(
-3.23184e-05
-7.58929e-05
0.000108218
-6.66513e-05
8.87606e-05
-2.2108e-05
9.8573e-05
4.63875e-05
-0.000124534
5.21179e-05
-9.87185e-05
4.66014e-05
5.4446e-05
-8.36618e-05
2.9216e-05
-4.10963e-05
8.16177e-05
-4.05211e-05
-5.41032e-05
6.04052e-05
-6.30196e-06
-0.000280347
-7.48475e-06
0.000297273
-2.89348e-05
-6.86007e-05
9.75398e-05
-0.00011567
0.000201227
-8.54191e-05
-0.000299119
0.000152637
0.000146894
4.28134e-05
3.30389e-05
-7.5852e-05
4.34685e-05
-1.93014e-05
-1.37359e-05
8.75192e-05
3.37634e-05
-0.00012127
3.71869e-05
0.000216199
-0.000252803
-4.61174e-05
9.56813e-05
-4.95635e-05
0.000196634
-0.000145617
-5.09429e-05
0.000361583
-0.000103435
-0.000252424
-0.000324138
0.000309368
1.6514e-05
5.73177e-05
0.000126151
-0.000183386
-3.58881e-05
6.00944e-05
-2.42063e-05
2.81573e-05
2.44607e-05
-5.18424e-05
4.91374e-05
-7.97453e-05
3.06079e-05
-5.61547e-05
-2.13121e-05
7.74684e-05
-0.000108239
6.18311e-05
4.64098e-05
1.26429e-05
-0.000282634
-8.74845e-05
4.92297e-05
3.82553e-05
6.33527e-05
-8.25078e-05
1.91553e-05
6.99322e-05
-9.04971e-05
2.05657e-05
-7.03249e-05
7.49855e-06
6.28268e-05
-0.000104371
0.000168039
-6.36314e-05
6.3252e-05
-2.59839e-05
-3.72682e-05
9.05317e-06
5.09973e-06
-9.2485e-06
-9.59372e-06
0.000258978
-0.000248633
5.20562e-05
-0.000132037
7.99929e-05
4.14858e-05
0.000140757
-0.000181595
-6.8982e-07
-1.02066e-05
1.39942e-05
6.49518e-05
-0.000321135
0.000257503
0.000305848
-1.24977e-05
-0.000292431
0.000203814
-7.77381e-05
-0.000126002
0.000145908
0.000201294
-0.000345792
0.00014249
0.000104211
-0.000246601
-0.000360852
8.87486e-05
0.000276256
0.000206247
4.46958e-06
-0.000210579
-7.36648e-05
-4.26613e-06
7.79319e-05
-1.70794e-05
-0.000109553
0.00014038
-1.37881e-05
6.29257e-05
0.000192238
5.23225e-05
-0.000244232
0.000112031
-0.000227544
0.000312403
-1.44733e-05
-0.000292984
-8.43811e-05
-3.17985e-05
0.000116189
6.08277e-05
2.14836e-05
-8.2311e-05
-8.97763e-05
0.00022441
-0.000123982
-0.000103252
-0.000195368
6.43759e-05
-1.02303e-06
9.37266e-05
-4.67522e-05
-4.69734e-05
-1.42204e-05
1.65842e-05
-7.17129e-05
-4.18901e-05
0.000259379
-0.000317446
5.88304e-05
1.49277e-05
-0.000123468
0.000108551
-0.000140024
4.40493e-05
9.5985e-05
1.10832e-05
-6.51864e-05
-0.00010132
-2.05784e-05
0.000121909
0.000130652
-0.000288477
0.000158069
9.96423e-05
-0.000179921
3.6906e-05
0.000261337
-0.000297728
0.000189138
1.15176e-05
-0.000200582
-4.21648e-06
1.74276e-05
0.000359612
-4.60707e-05
-0.000311754
6.77814e-05
-6.95349e-06
-2.2115e-05
-3.92331e-05
6.13482e-05
0.000289672
-3.27693e-05
-0.000256628
1.79003e-05
0.000299168
4.7632e-05
-6.61059e-05
1.84738e-05
0.000347411
-3.33994e-05
-0.000308452
-0.000245472
0.00034274
-9.63426e-05
2.37902e-05
-0.000117148
9.33622e-05
-7.03394e-05
6.66078e-05
3.73175e-06
8.84138e-05
-0.000132323
4.3916e-05
-2.0568e-05
-4.52593e-05
6.58274e-05
3.52263e-05
3.84636e-05
-7.36897e-05
-4.70779e-05
-3.07628e-05
7.78415e-05
-7.83518e-05
9.32878e-05
9.1821e-05
-4.40526e-05
-4.77681e-05
-7.63937e-05
0.000100188
0.000154745
8.19642e-05
-0.000236545
3.74794e-05
3.93993e-05
-7.68784e-05
3.37143e-05
-0.000135022
-3.67156e-05
-2.27779e-05
5.94935e-05
-0.000351238
0.000106766
4.64678e-05
4.53533e-05
0.000329375
-6.9178e-05
2.34443e-05
5.77657e-05
-8.12099e-05
-0.000100683
0.000243265
5.67323e-05
2.23245e-05
-7.90567e-05
-3.89058e-05
6.23502e-05
3.75351e-05
-0.000113924
0.000101833
0.000250233
-0.000393288
0.000122919
0.000271802
-6.42194e-05
2.83313e-05
-8.64901e-05
0.000183554
-9.6985e-05
-9.00671e-05
3.16178e-05
5.84494e-05
0.000107701
-0.000136742
2.90614e-05
0.000161035
-3.72903e-05
-0.00012371
3.86796e-05
2.45725e-05
1.28131e-05
-8.31375e-05
4.11823e-05
4.51593e-05
-8.63405e-05
1.50659e-05
-8.54052e-05
0.000262892
-0.000332515
7.03126e-05
-0.000274409
1.31827e-05
0.000261351
-7.58228e-05
3.69172e-05
-1.08546e-05
0.000298883
-0.0002701
-1.93004e-05
0.000343454
-6.50619e-05
-0.000277449
-3.09965e-05
-4.41988e-05
7.5196e-05
-4.9558e-05
5.51655e-05
-5.60749e-06
4.16327e-05
2.51897e-05
-6.68224e-05
0.000256717
-0.000218961
5.32661e-05
-8.07642e-05
2.74983e-05
-3.59805e-06
6.03305e-05
0.000223575
-0.000160941
-6.25363e-05
-5.57069e-05
-0.00017871
0.000234822
-8.07502e-05
7.35023e-06
7.34005e-05
7.62528e-05
-6.17367e-05
-1.45158e-05
-9.40164e-05
5.16266e-05
4.23916e-05
2.24575e-05
-9.61212e-05
2.48378e-05
-9.14878e-05
-0.0001036
1.57025e-05
8.78998e-05
-9.79072e-06
6.75566e-05
-1.13345e-05
1.79071e-06
2.27495e-05
0.000134334
6.23707e-05
-5.0018e-05
-3.7466e-05
3.64387e-05
2.36556e-05
-4.27064e-05
0.000131704
-8.89809e-05
-6.21705e-06
-5.11312e-05
3.77896e-05
0.000169379
-0.000206988
-7.39146e-06
-0.000109751
0.00010802
9.586e-05
-3.80701e-05
-0.000353227
-0.00014128
0.000109171
3.21135e-05
-1.84793e-07
8.8604e-05
-0.000103147
7.6654e-05
2.6495e-05
-0.000195837
-0.000110068
0.000306843
3.54422e-05
5.82851e-05
-0.000118178
0.000265219
0.000283732
4.25595e-06
-0.000286505
-4.53617e-05
-1.47259e-05
6.00876e-05
4.60805e-05
-7.75116e-05
3.14312e-05
-0.000161071
5.67363e-05
-9.1088e-05
1.41748e-05
7.69138e-05
3.60444e-05
-8.31215e-05
-7.41855e-05
8.55031e-05
-1.13161e-05
0.000116766
-0.00023315
0.000116547
-4.01171e-05
-2.25298e-06
4.47849e-05
-2.41678e-05
-4.01254e-05
6.42933e-05
0.000248227
-0.000165635
-8.24071e-05
6.81172e-05
-1.4851e-05
-3.74384e-05
0.000230008
-0.000374198
0.000205143
0.000169612
1.3394e-07
1.4065e-05
-1.36396e-05
-0.00034764
8.28727e-05
0.00026826
-4.88619e-05
-5.02518e-05
9.91216e-05
-3.4682e-05
-3.82677e-05
7.29499e-05
-0.000147089
-0.000226511
-3.3869e-05
-0.000106145
9.91433e-06
6.00184e-05
-0.000330444
0.000329515
2.4101e-06
3.18736e-05
-8.13939e-05
4.95207e-05
5.8128e-05
4.24835e-05
-0.000100607
7.99041e-05
-4.00134e-05
-3.98905e-05
2.59067e-05
3.98224e-05
-6.57291e-05
0.000167066
0.000199072
-7.48087e-05
4.0127e-05
4.57125e-05
2.75135e-05
-7.32259e-05
-0.000103554
5.46995e-05
-9.92963e-05
4.31435e-05
-3.17033e-05
8.46894e-05
-5.29855e-05
-9.06404e-05
0.000221491
-5.13465e-05
-8.99281e-05
-1.065e-06
0.000280639
-0.000278572
0.000274015
-3.43888e-05
-0.000230217
-3.46411e-05
-2.38456e-05
-7.78004e-05
3.61637e-06
-0.000399308
0.000128528
0.000274548
-0.000269396
7.08437e-05
0.000198849
0.00011648
-8.20295e-05
-3.44478e-05
6.25349e-05
0.000245319
-0.000306623
2.25137e-05
-7.20717e-05
0.000332589
-1.52683e-05
-0.000312088
2.88156e-05
-0.000311351
0.000283547
-0.000117605
7.49119e-05
2.53448e-06
-0.000106132
-0.000289178
0.000110239
0.000179499
-0.000112751
-4.828e-05
-0.000174947
0.000157024
1.79611e-05
-8.45739e-05
0.000118299
-0.00011597
0.000173368
-4.5073e-05
0.000103205
2.23063e-05
-0.000138509
0.000121362
-0.000335203
-2.06845e-05
0.000127742
-5.62924e-05
-7.14455e-05
0.000230253
-0.000267296
-0.000125998
-4.55977e-05
0.00017167
-0.00013142
8.75591e-06
0.00012268
3.68287e-05
1.64342e-05
-3.56957e-05
-0.000139204
-0.000129449
-7.20304e-06
0.00013667
2.03995e-07
-3.86506e-05
-2.28602e-05
5.91657e-05
-3.63056e-05
-9.15574e-05
0.000203731
0.000351878
-0.000101738
-0.00024463
0.000121582
3.94873e-05
0.000333232
-0.000227525
-0.000105142
-8.75632e-05
-5.16568e-05
0.000139284
8.07978e-05
5.42379e-05
-0.000135028
-9.11113e-05
4.43428e-05
4.67687e-05
0.000103562
-2.27586e-05
9.50337e-05
-5.37302e-05
-4.13031e-05
-0.000369557
0.000170444
0.000206161
-7.93492e-05
3.82531e-05
0.000253764
1.33245e-05
0.000250091
1.27125e-05
8.30335e-05
-9.57407e-05
2.26393e-05
-6.8001e-05
-0.000105708
6.85778e-05
3.71333e-05
9.53361e-06
-0.000138961
0.000169254
7.40055e-06
-0.000176617
-8.94868e-05
-4.8963e-05
0.000138474
-0.000191992
-0.000117463
0.000312728
-0.000155383
3.49207e-05
0.000120479
-0.000228627
0.000265962
-0.000134043
4.94825e-05
-6.44665e-05
-1.1989e-06
6.56655e-05
-5.86969e-05
9.62361e-05
-1.74741e-05
7.36978e-06
-0.000276734
0.000340583
0.000175811
-0.000364361
4.16187e-06
0.000137963
-0.000128742
-8.97677e-05
9.01819e-06
-4.10092e-05
-0.000108982
0.000150066
-0.000324007
0.000315873
1.13547e-05
-0.000106325
6.21554e-05
4.41716e-05
7.87752e-05
-3.75918e-05
-0.000136981
0.000251694
-0.000114174
-5.35448e-06
-8.57328e-05
6.22701e-05
-2.79507e-05
-3.43194e-05
3.87633e-05
-9.7456e-05
-0.000159328
0.000201331
2.69638e-05
4.66798e-05
-7.36434e-05
-0.000104489
0.000192213
-8.76888e-05
0.000162124
-0.000218648
5.72433e-05
-4.5969e-05
7.7843e-05
0.000187745
-3.28477e-05
0.000105064
-0.000209515
-0.00032084
0.000101355
0.000220226
0.000207508
-0.000185059
-2.23857e-05
-2.53309e-05
9.26478e-05
-6.73145e-05
2.92317e-05
6.58022e-05
7.71147e-05
-0.000164613
6.89232e-05
5.73519e-05
-0.000126267
-0.000351967
0.000346221
-5.41094e-05
0.000156885
-0.000102745
0.000252488
7.02545e-05
-0.000320443
2.16935e-05
-0.000153095
0.000124604
-0.000216011
-6.62992e-05
7.90161e-05
-5.12272e-05
5.90692e-05
-7.84198e-06
-9.6998e-05
-0.000263552
-0.000323403
8.64872e-05
0.000237558
-2.09747e-05
-6.16322e-05
8.26088e-05
-0.000240609
-8.20756e-05
-0.000182972
-8.61253e-05
-0.000146608
7.72458e-05
-8.94641e-05
1.22188e-05
-1.28807e-05
5.45134e-05
0.000335509
-0.000341454
6.93364e-06
0.000151554
-0.00010385
-4.76912e-05
-1.99529e-05
5.06508e-05
-3.06978e-05
5.11937e-05
-8.19556e-05
0.0001008
0.000166569
-0.000266936
-0.000364176
0.000361112
5.5064e-06
6.15785e-06
0.00014507
-0.000151106
0.000128039
-0.000168964
0.00011364
-0.000308563
4.27847e-05
-6.27375e-05
-4.88094e-05
-5.75134e-05
-0.000101135
7.76523e-05
2.34847e-05
-2.20479e-05
-7.82545e-05
-2.29129e-05
0.000334051
-0.000307252
0.000132931
-1.98482e-05
-0.000153789
8.2014e-05
7.17939e-05
-4.46851e-05
-4.64259e-05
4.09697e-05
0.000186922
-0.000227837
-6.33909e-05
9.78646e-05
2.72872e-05
-0.000125142
-0.000218764
5.7066e-05
0.000161828
6.21901e-05
-2.60987e-05
-0.000296461
1.98218e-05
-7.81874e-05
5.83684e-05
3.58517e-05
0.000127378
-0.000129776
-7.89605e-05
5.43654e-05
2.45953e-05
-0.000106264
-5.15105e-05
0.000157813
0.000287505
7.3834e-05
-1.09675e-05
0.000181251
-0.000170168
0.00014915
-3.52363e-06
-0.000145608
-0.000148174
-9.87884e-05
0.000247764
-4.78424e-05
0.000210777
4.89344e-05
1.5143e-05
-6.40774e-05
-1.88815e-05
-8.22507e-05
-5.88116e-05
-0.000241442
0.000302337
-5.98534e-05
1.18296e-06
5.86705e-05
6.90045e-05
-6.60085e-05
-3.96953e-05
-0.000307077
-3.69176e-05
0.000345682
2.11364e-06
-5.73653e-05
-1.84744e-05
7.58415e-05
-0.000291103
0.000154771
-0.000358099
-3.73535e-05
-0.000378057
0.000143077
0.000236744
-0.00025091
2.3842e-05
0.00022715
-5.76883e-05
0.000100176
3.10476e-05
0.000118119
0.000163996
-0.000157706
-0.000208349
9.94482e-05
-5.98903e-05
0.00018613
-0.000194349
7.67637e-05
-0.000303637
-4.58343e-05
-4.00783e-05
4.07615e-05
9.36256e-05
-7.79208e-05
-0.000155021
9.00368e-05
6.5006e-05
0.000104101
4.74624e-05
-2.84882e-05
8.06069e-05
0.000199787
-0.000158771
-0.000106625
-0.000181945
-1.41677e-05
2.88013e-06
2.73468e-05
-5.30639e-05
7.28883e-05
-4.48986e-05
-3.40615e-05
-0.000146302
0.000325224
0.000344207
-9.35689e-05
-0.000245062
0.000176788
-0.000319995
-0.000165691
0.000203656
8.04002e-05
-0.000169858
-4.76351e-05
-6.0602e-05
-0.000324589
0.000269447
-1.12276e-06
-0.000264692
0.000265982
-6.59734e-06
0.0003097
-0.000298557
-9.94433e-05
5.33264e-05
-7.47534e-05
-2.83906e-05
-4.29156e-05
0.000118172
-7.52495e-05
-0.000147806
8.56678e-05
6.21443e-05
-9.81016e-05
-0.000164935
0.000263851
7.7536e-05
-9.40963e-05
1.65625e-05
-0.000120734
8.84236e-05
0.000201182
-0.000134967
-6.6135e-05
-0.000179432
9.22047e-05
8.72538e-05
-3.79506e-05
4.21436e-05
2.30651e-05
-6.52087e-05
4.21134e-05
7.43685e-05
-0.000149639
0.000151644
4.86275e-06
-0.00012585
-5.24017e-05
0.000178324
-0.000101211
5.64417e-05
4.47708e-05
4.24882e-06
7.29975e-05
0.000266652
-0.00017338
-9.3052e-05
-0.000325715
0.000306626
5.9909e-05
-0.000149394
8.95165e-05
0.000140694
0.000199336
-0.000338648
0.000206411
-0.000157989
-4.82587e-05
-6.35798e-05
9.52325e-05
-3.16515e-05
-3.16277e-05
-4.98088e-05
8.14372e-05
-0.000124493
1.04339e-05
0.000114072
0.00013307
-0.000192864
2.06109e-05
-7.18381e-05
0.000242475
-0.000318415
7.6524e-05
0.00023284
-2.19823e-06
0.000313126
-0.000271942
-3.99901e-05
-2.55915e-05
0.000332406
0.000152537
-7.39707e-05
-7.85469e-05
-0.000160923
0.000242059
-8.07985e-05
5.3381e-06
-6.51915e-05
-2.76681e-05
-6.0798e-05
8.84684e-05
-9.92091e-05
-0.000220958
-0.000320319
0.000263746
7.19336e-05
-3.84999e-05
-3.34337e-05
1.68268e-05
-0.000141304
-8.49771e-05
5.60455e-05
0.000314412
-7.13658e-05
-0.000122643
0.000150799
-2.81108e-05
-0.000327968
-3.37146e-05
0.000103086
-0.000234912
0.000131913
8.0167e-05
-0.00025866
-0.000309718
0.000219948
5.20038e-05
1.46047e-05
-6.66085e-05
-5.26207e-05
2.97606e-05
2.67049e-05
3.42082e-05
-6.09128e-05
-3.8343e-05
-3.7855e-05
4.58947e-05
6.84639e-06
-0.000115581
8.49847e-05
3.06013e-05
7.85339e-05
-3.77732e-05
-4.07606e-05
0.00014989
5.76644e-05
7.89055e-05
0.00022817
-0.000111947
8.34601e-05
0.000337753
-0.000332835
-2.71327e-06
-8.73493e-06
-0.000269192
0.000279265
2.97407e-05
0.000253391
6.78845e-05
8.46621e-05
-0.000286218
0.000300063
-1.33554e-05
-3.20673e-05
0.000238455
-7.68384e-05
-7.09605e-05
-8.87821e-05
4.42214e-05
4.45612e-05
-5.3528e-05
-0.000322217
6.64188e-05
-1.19727e-05
0.000134879
2.98113e-05
-0.000164632
-0.000317711
1.25917e-05
-0.000260135
0.000128082
0.000132332
7.22926e-05
0.000270647
-0.000342134
0.00024766
-4.39529e-05
-0.000174689
8.90089e-05
4.82824e-05
-0.000137263
-9.66132e-05
-9.77118e-05
2.97426e-05
3.25276e-05
0.000126947
9.6672e-05
8.83605e-05
0.000186539
-0.000274122
-7.26746e-05
5.17016e-05
-3.20428e-05
-4.5129e-05
7.71723e-05
9.58641e-05
-6.61482e-05
-2.97145e-05
-4.22877e-05
6.81945e-05
-0.000138399
4.96828e-05
8.87307e-05
0.000100728
0.000183429
-0.000283672
-0.000248173
-5.34339e-05
-1.60273e-05
-0.0003043
0.000288055
4.56894e-05
0.000146936
-0.000136486
0.000181421
-0.000110755
-7.05984e-05
-0.000181305
-1.38091e-05
0.000195265
7.75637e-05
-0.000183782
0.000198869
-0.000100587
4.57232e-05
5.48657e-05
0.000117253
-0.000195089
0.000267988
-6.27391e-05
-0.000145514
3.68336e-05
-7.35492e-05
-0.000160409
0.000249843
-8.91076e-05
-9.2345e-05
6.07181e-05
1.95391e-06
-2.73389e-06
-0.000310455
6.83518e-05
-4.63822e-05
-2.19695e-05
-0.000136118
0.000185099
-4.89025e-05
0.000219513
-0.000308712
8.99345e-05
7.251e-05
-9.78382e-05
-6.73709e-05
0.000119438
-8.16266e-05
-7.21447e-05
-7.20214e-05
6.22308e-05
0.000123256
0.000220027
9.9082e-05
-0.000265453
0.000166698
4.19514e-05
7.49656e-05
-4.19265e-05
-0.000218905
0.000161666
5.72612e-05
-7.46018e-05
-4.80695e-05
0.000122683
-3.87184e-05
0.000126249
-3.46969e-05
-6.58877e-05
-5.93673e-05
3.33894e-05
2.59779e-05
-8.9692e-05
0.000301074
-1.11382e-05
-3.70205e-05
0.000108309
-7.1279e-05
1.34739e-05
0.000330898
3.64733e-05
0.000110477
0.000263406
-0.000203579
-5.93507e-05
6.5321e-06
-7.85534e-05
4.01228e-05
-0.00016271
-5.90577e-05
-4.21521e-05
3.37003e-05
-0.000214859
-0.000172806
0.000107001
6.5835e-05
0.000144821
-7.35746e-05
5.22639e-05
-0.000309345
0.000332151
-2.53878e-06
4.46824e-05
4.31738e-05
0.000271038
-7.82771e-05
2.58206e-06
7.56972e-05
0.000130837
-0.000290277
0.000161446
-5.26389e-05
-3.28619e-05
8.55028e-05
0.000160388
4.61628e-05
7.91773e-06
0.000247873
-0.0002529
0.000424217
-0.000299629
0.000256143
-0.000218277
5.14442e-05
-9.52817e-05
4.38384e-05
-6.54398e-05
5.69414e-05
8.49846e-06
-6.99645e-05
3.89685e-05
0.000146433
-0.000199383
5.30249e-05
0.000251776
-7.6937e-05
-0.000174501
-0.000125508
0.000122
-2.95058e-05
2.99408e-06
2.77721e-05
2.04803e-05
-2.61442e-05
5.32599e-06
4.0859e-05
3.65632e-05
-7.74219e-05
0.000186823
0.000238997
0.000283726
-0.000281344
-1.89936e-06
0.000141655
-4.37776e-05
-0.000132773
-8.484e-06
-0.000151419
7.68326e-05
2.50377e-05
-0.000150528
0.0002874
-3.25974e-06
-0.000331033
4.55514e-05
0.000216039
-0.000118815
-9.71656e-05
0.000138124
-0.000298139
0.000109482
0.00013887
8.14623e-05
-8.68161e-05
-0.000262485
0.00011807
0.00014458
-0.00012247
-9.64059e-05
0.000253546
-8.59566e-05
-0.000167404
-0.000159096
0.000248304
6.81573e-05
-2.55647e-06
-6.56008e-05
0.000229684
-0.000317464
8.79755e-05
-0.000299303
5.36327e-05
0.000246232
9.92526e-06
-6.9505e-05
5.958e-05
-5.48687e-05
6.38844e-05
-9.01569e-06
-8.34214e-05
-8.93513e-05
-1.04314e-05
7.01615e-05
-5.97287e-05
0.000134696
0.000132147
-0.000285377
-6.95378e-05
1.46691e-05
-1.54568e-05
-0.000313286
-6.18446e-05
3.44744e-05
2.73703e-05
2.44945e-05
-0.000102769
-0.00023889
0.000271032
-2.97084e-05
3.69146e-06
7.77715e-05
8.00723e-05
0.000139343
-7.94047e-05
-4.30985e-05
5.11246e-05
8.17588e-06
-5.9473e-05
-9.55252e-05
-8.31741e-05
5.76522e-05
2.55222e-05
0.000267343
0.000323453
-3.23625e-05
-0.000289462
-5.55962e-05
0.000272478
0.000106628
-0.000254004
0.00026126
2.34571e-05
4.04637e-05
4.79122e-05
-7.03746e-05
2.04803e-05
-4.60704e-05
-4.27111e-05
-0.000207638
-2.66177e-05
0.000234527
-4.76797e-05
5.75945e-05
-4.0942e-06
-0.000281276
0.000285812
-7.42404e-05
-3.80849e-05
0.000112332
2.51819e-05
0.000311379
-5.70072e-05
2.8273e-06
-0.000282753
6.29607e-05
0.00022007
-3.63942e-05
0.000121341
-8.13279e-05
-0.000150673
0.000251882
0.000107045
-0.000213093
0.000106156
-0.000282086
0.000282035
0.000133707
-5.06908e-06
-0.000128625
-7.59779e-05
-2.3465e-05
0.00031051
-1.52261e-05
-0.000286449
6.54934e-05
1.13293e-05
-7.68225e-05
-2.7402e-05
-3.82697e-05
6.56718e-05
-6.14456e-05
0.00016183
-0.000100367
-0.000101151
6.41375e-05
-3.96618e-05
6.6367e-05
0.000207374
-0.000122007
-0.000140284
-0.000165938
0.000230913
-6.4805e-05
-4.62184e-05
2.41034e-05
4.73358e-05
-0.000254686
-0.000187674
0.000124808
6.29102e-05
3.84004e-05
-0.000301785
0.000264318
4.4561e-05
-8.29614e-05
3.84005e-05
-0.000213228
5.36658e-05
0.000159626
3.56697e-06
-7.83175e-05
-8.7706e-05
0.000130661
-4.29451e-05
-4.32793e-05
5.43625e-05
-0.000235123
0.000310971
-1.08344e-05
-0.000299138
0.000133699
-0.000178099
4.44376e-05
7.78261e-05
2.01154e-05
-9.79398e-05
0.000267751
-5.80965e-05
-3.59176e-05
-0.000125654
0.00031884
-0.000192822
4.32403e-05
3.55357e-05
-0.000154299
0.000262543
-0.000107793
-0.000367345
0.000376335
-6.72773e-06
0.000242185
2.18365e-05
-0.000104134
0.000122471
-9.67789e-06
-2.83229e-05
-3.77324e-05
6.60554e-05
-3.1261e-05
7.4502e-05
0.000252438
6.26568e-05
-9.39892e-05
-3.15802e-07
9.43094e-05
-6.87936e-05
-0.000107491
0.00017635
5.43974e-05
4.1468e-05
-5.00371e-06
-6.04361e-05
-9.97442e-05
4.23811e-05
6.76852e-05
-8.62329e-05
1.85492e-05
-0.000397412
0.000197874
0.000200843
-4.77293e-05
-3.47783e-05
4.58666e-05
-0.000158578
0.000348949
-7.02567e-05
-0.000277616
4.42639e-05
0.000144928
6.23427e-05
3.80845e-05
3.02674e-05
0.000264501
-0.000273296
0.000234519
-0.000283098
4.86351e-05
2.31549e-05
-0.000283044
0.000260728
6.75413e-05
-0.000101236
5.04735e-05
5.75087e-05
1.17669e-05
-6.92755e-05
0.000125037
1.15996e-05
-0.000136623
6.48678e-05
3.59411e-05
4.25928e-05
-0.000269497
-1.22066e-06
0.000271125
-9.17179e-05
0.000117947
-0.000155953
0.000118057
3.79315e-05
3.5245e-05
-6.79647e-06
-5.08518e-05
-0.000293241
0.000236437
-0.000129251
0.000240615
2.70987e-05
-0.000266986
0.000113139
-4.39626e-05
-0.000169193
9.86722e-05
-2.48246e-05
-7.38424e-05
5.3269e-05
2.02982e-05
-7.3567e-05
0.000109525
-0.00015758
-0.00014638
0.000279381
-0.000233237
9.72068e-05
0.000123118
-5.28552e-05
-7.02521e-05
5.38771e-05
1.8881e-05
-7.27579e-05
-7.95169e-05
-0.000108086
-7.78356e-05
5.57586e-06
7.22606e-05
0.000184281
-6.42213e-05
-0.000120014
0.000316425
-6.33552e-05
2.30365e-05
-0.00011702
-6.94844e-05
-2.16028e-06
7.16456e-05
0.000284063
-0.00017327
-0.000446328
0.000177352
0.00027226
-4.33068e-05
9.93773e-05
-5.60692e-05
-4.35991e-05
5.36029e-05
4.64354e-06
-0.000101976
-3.57205e-05
5.87856e-05
-2.99224e-05
-2.85643e-05
-7.38546e-06
8.52131e-05
0.000293449
-0.000303051
-3.90622e-05
-1.7495e-05
5.65573e-05
1.46587e-05
5.52156e-05
-6.98743e-05
-3.54091e-05
9.65644e-05
-0.000257135
1.11505e-05
-0.000163365
2.60348e-05
5.74827e-05
-8.35168e-05
-1.87512e-05
1.87512e-05
-3.99949e-05
-5.89611e-05
9.89624e-05
-3.02122e-05
-3.16324e-05
9.30821e-05
-0.000122263
2.91864e-05
-7.21411e-05
2.88617e-05
0.0001316
-9.67024e-05
-3.48781e-05
-2.69563e-05
-3.20908e-05
5.90472e-05
-4.72078e-05
0.000136243
-9.9466e-05
-0.000186761
0.000286793
0.000267531
-3.29484e-05
-2.89155e-05
-3.18995e-05
6.0815e-05
-2.37811e-05
9.45914e-05
-7.08087e-05
6.35931e-05
3.89217e-05
-8.87298e-05
0.00029551
-9.58628e-05
5.58737e-05
-3.15473e-05
2.17741e-06
3.76382e-05
0.000131639
-0.000132315
4.90086e-05
8.33253e-05
5.98822e-05
-0.000144253
-0.000274914
3.87302e-05
0.000217973
1.93174e-05
-0.000237161
-9.2241e-05
-2.33349e-05
6.81351e-05
-2.6415e-06
3.59062e-05
-6.48216e-05
-6.28357e-05
4.38388e-06
5.84518e-05
0.000145041
5.62099e-05
-0.000166543
8.01126e-05
-5.76303e-05
9.63979e-05
0.000248451
-0.000249417
0.000323141
-0.000314159
-6.78642e-06
0.000271125
-0.000316621
4.68075e-05
-0.000290643
0.000129169
0.000161805
8.46479e-05
0.000127317
-0.000248097
0.000121264
-4.78834e-05
-8.44122e-05
-0.000368467
0.000310248
6.19682e-05
-8.62648e-06
2.31206e-05
0.000330151
-5.91554e-05
-0.000264901
3.55894e-05
3.75688e-05
-7.3158e-05
-0.000288741
1.4459e-05
-2.12794e-05
2.51593e-05
-2.0649e-06
-0.00011098
-4.49356e-05
0.000185931
-0.000126245
-5.96363e-05
9.80615e-05
0.000219007
5.33513e-07
5.14703e-05
-0.000120988
0.000262856
-0.00030354
0.000288562
1.64045e-05
0.000152895
-6.14854e-05
-9.13752e-05
0.000193091
-8.40906e-05
-0.000108976
6.90943e-05
-3.41997e-06
-0.000235457
0.000239306
-8.05626e-05
2.72779e-06
0.000100238
-5.01524e-05
-9.81711e-05
0.000148396
2.15786e-05
-9.1062e-05
0.000103077
-0.000153156
-8.76418e-05
-2.43038e-05
-0.00023316
0.00011998
7.65581e-05
-4.23866e-05
-3.41713e-05
3.6025e-06
5.39062e-05
-0.000266403
-7.56909e-05
3.6458e-05
-4.01756e-05
9.3703e-05
-5.35253e-05
-0.000244854
0.000250236
4.39013e-06
-6.88006e-05
4.206e-05
2.67406e-05
0.000315498
-0.000303665
-1.05276e-05
0.000309133
-5.74847e-05
-0.000245933
0.000121019
-0.000192618
7.16697e-05
5.14134e-05
-0.000297763
-7.41657e-05
-3.9366e-05
0.000113541
-1.50995e-05
6.89768e-05
-0.000319522
4.1972e-05
3.45863e-05
-0.000178082
-0.000218007
-0.000196494
3.56442e-05
-9.5349e-05
7.15695e-05
0.000294974
-3.22848e-05
-0.000253812
-7.11651e-05
4.44541e-05
2.67111e-05
0.000207256
6.19639e-05
-0.000268944
-0.000306966
4.6681e-05
0.000261302
-3.05066e-05
0.000331717
-0.000299856
0.000336719
-6.45584e-05
-4.27065e-06
0.000110101
-0.000105826
9.25344e-05
3.52116e-05
-6.25937e-05
5.28884e-06
5.73048e-05
-1.81527e-05
0.000127693
2.82296e-05
5.33882e-05
3.33786e-05
0.000131409
-0.00016475
0.000314281
0.000101733
1.05948e-05
-0.000112323
-6.32898e-07
-6.22028e-05
8.58259e-05
-1.81393e-05
-0.000128656
7.23679e-05
-0.00011487
7.19609e-05
0.000103227
4.69156e-05
-0.000150105
0.000208575
1.76714e-05
-0.00022606
-0.000101199
9.69326e-05
-0.000314725
0.000178048
0.000137092
-4.40614e-05
8.01066e-05
-6.97915e-05
7.44702e-05
3.23039e-06
2.88267e-05
-6.78889e-05
0.000260845
-1.34788e-06
-4.17656e-05
-8.6885e-05
9.41173e-05
0.000121979
-0.000289922
6.78559e-05
0.00022274
-3.23844e-05
-5.81116e-05
0.000341428
-0.000311581
-2.61068e-05
-9.73114e-05
3.82555e-05
-3.33808e-05
0.000240895
0.000241805
6.52038e-05
0.000116284
9.33407e-05
5.36231e-05
-0.000146947
8.59003e-05
2.42041e-05
8.19479e-05
-7.12001e-05
-5.03751e-06
7.62389e-05
6.38253e-05
-2.55325e-05
-3.82928e-05
-0.000123885
-0.000109384
2.51092e-05
-6.08296e-05
0.000375558
-0.00022099
-0.000153745
-7.31718e-05
-1.99308e-06
7.51663e-05
9.34466e-05
3.81702e-05
0.000241341
-8.83605e-05
0.000265429
2.22805e-05
-0.000131479
0.000120595
-0.000254287
-0.000155494
-4.50496e-05
-0.000260679
8.9935e-05
-0.000219635
0.000129842
2.20413e-05
-9.52113e-05
-8.69659e-05
6.21454e-05
-9.33832e-05
5.00775e-05
0.000139935
-9.12341e-05
-4.8679e-05
-5.7242e-06
0.000166399
-0.000157418
6.90301e-05
-0.000139477
7.04804e-05
-8.38103e-05
5.21077e-05
7.77234e-05
-0.000335349
0.000261049
-8.29181e-05
0.000131946
-0.000301365
0.000227387
7.43565e-05
-5.65999e-05
4.81133e-06
5.17887e-05
0.000254876
-3.92997e-05
-0.000215444
6.03631e-05
-1.30654e-05
-4.72975e-05
-5.92244e-05
-2.04329e-06
2.22384e-05
7.13888e-05
-2.1177e-05
5.50775e-07
-0.000162743
0.000130618
3.2151e-05
0.000154304
0.000195491
-0.000124166
-0.000166095
0.000247837
-0.000119399
-0.000128258
0.000288305
-2.90107e-05
-0.00027272
0.000106959
0.000220507
-0.000318577
8.0762e-05
-2.9317e-05
-4.05212e-05
-1.79654e-05
9.44351e-05
0.000116336
-0.000210648
-2.68731e-05
-4.42918e-05
0.000270919
4.59579e-05
-0.000186501
7.58172e-05
5.99361e-05
-0.000225363
3.45898e-05
-9.74343e-05
6.28476e-05
4.05887e-05
-6.11567e-05
-8.7181e-05
0.000181719
-0.000266964
0.00029422
-2.14255e-05
-6.87928e-05
7.23625e-05
-0.000287124
0.000292883
-2.1444e-05
-0.000232586
0.000172852
5.99188e-05
4.8871e-05
2.30626e-05
5.38861e-05
-8.38159e-05
2.99303e-05
6.36287e-05
3.30659e-05
-9.66929e-05
6.4673e-05
-8.31456e-05
8.52782e-05
7.25805e-06
1.1348e-05
-0.00026218
0.000200365
0.000148285
-0.000347331
3.91466e-05
-8.32072e-05
0.000255658
-9.4195e-05
6.91735e-05
2.50231e-05
0.000233953
-0.000157211
-7.65572e-05
3.93677e-06
-0.000180337
0.00017654
8.1414e-05
-4.45209e-05
-3.68928e-05
4.10959e-05
3.69383e-05
-7.8034e-05
-0.000255715
-9.96759e-07
-6.15969e-05
0.000128684
0.000125015
-9.41725e-05
-2.30299e-05
0.000117224
0.000117931
-6.05723e-05
5.42429e-05
-3.8253e-05
5.52776e-05
-9.01034e-05
3.48271e-05
1.6025e-07
-4.50658e-05
5.62681e-05
-4.72781e-05
0.000120315
-5.33936e-05
4.77039e-05
-7.80128e-05
3.0309e-05
0.000271083
6.54201e-05
-0.000327973
0.000283552
6.81797e-05
6.19786e-05
-0.000315466
0.000254277
-5.17669e-05
-2.53322e-05
7.71e-05
0.000107179
-7.92429e-05
-2.793e-05
0.000151471
2.8467e-05
4.30901e-05
-7.1557e-05
0.000186229
-5.12922e-05
-2.46099e-05
-0.00010742
-5.55447e-05
-0.00024543
-6.98077e-05
0.000246662
-0.000170696
0.000242581
-0.000194957
-3.32212e-05
-0.000271212
0.00032272
-4.39386e-05
-3.17125e-05
-2.76548e-05
5.78474e-05
5.21287e-05
6.13527e-05
-0.000113476
-1.00731e-05
0.000275821
2.65689e-05
-0.000287503
0.000126003
0.000317391
-0.000274369
-4.13937e-05
0.000183501
-6.24167e-05
0.000196913
-0.000228843
7.3652e-05
8.05342e-05
-3.63252e-05
-4.42087e-05
-0.000138728
9.08657e-05
-0.000116507
2.67532e-05
8.97579e-05
-4.27955e-05
9.49289e-05
0.000292797
3.21759e-05
4.24704e-06
-0.000105442
-0.000121993
0.000323581
2.28581e-05
-0.000107709
6.75359e-05
-3.18943e-05
7.09993e-05
-3.91049e-05
8.81115e-05
-3.00099e-05
-5.81007e-05
0.000246571
-5.34596e-06
-0.000116578
0.000206657
5.24555e-05
-7.5208e-05
2.27529e-05
3.43092e-05
3.45715e-05
-6.88806e-05
4.30714e-05
6.73897e-05
7.70815e-05
-0.000144466
5.64265e-05
6.66984e-05
-4.09777e-05
-2.85601e-05
-0.000130271
4.9599e-06
3.27426e-05
-9.03689e-05
2.7006e-05
4.9247e-05
-7.96015e-05
0.000116089
3.60641e-07
-3.22212e-05
0.000136293
-0.000180189
3.67472e-05
2.82765e-05
-6.50236e-05
5.09009e-05
1.72565e-05
-7.63497e-05
-3.50496e-05
0.000111407
3.63064e-06
-0.000294711
0.000291539
0.000261231
-0.000153371
-0.000107518
5.72889e-05
0.000126911
-0.000184173
2.70805e-05
-5.50311e-05
-0.000234441
-5.47132e-05
-6.42416e-05
9.62049e-05
-3.19613e-05
0.000328534
-1.54992e-05
-0.000310681
0.000237502
9.32175e-05
1.63326e-05
-0.000109545
-0.000296464
-3.55213e-05
2.05839e-05
0.000283442
-0.000302176
0.000250126
1.35778e-05
-8.20399e-05
0.00020678
0.000245529
-5.77807e-05
-0.000181293
-0.000176662
-0.000137586
0.000291222
1.20443e-05
-8.32432e-05
-7.03531e-05
-2.72015e-05
9.75606e-05
-3.09058e-05
-4.66057e-05
-2.05101e-05
0.000156699
-8.67661e-05
-6.99187e-05
-2.73998e-05
0.00029083
-0.000263097
9.43458e-05
-0.000109812
4.1216e-05
0.000148177
-0.000178761
3.0635e-05
3.89814e-05
0.000291682
0.000159087
-0.000256439
8.81137e-05
-3.64853e-05
-1.49383e-05
9.12936e-05
-7.63459e-05
0.000157333
7.37489e-05
4.18875e-05
-6.80568e-05
2.61693e-05
6.67323e-05
-0.000146317
0.00013474
-0.000279511
1.04349e-05
6.95093e-06
-5.46115e-05
3.18336e-05
0.000117182
-0.000153214
3.60527e-05
1.24549e-05
-0.000251384
0.000245755
-2.66954e-05
7.79949e-05
-5.12972e-05
-0.000155078
0.000146158
1.20166e-05
-0.0001451
-5.12958e-05
-0.000160098
-0.000113883
0.000277172
8.92322e-05
1.04092e-05
-9.96396e-05
3.61954e-05
-0.000272875
2.36357e-05
0.00025469
0.000258515
-0.000252929
7.45981e-05
1.71229e-05
-9.17195e-05
-1.42408e-05
0.000326086
-8.34264e-05
5.03212e-05
3.31058e-05
4.10436e-05
-6.58179e-05
2.47743e-05
5.74083e-05
0.000106967
-0.000164337
0.000261749
0.000151513
-0.000221235
7.01525e-05
-0.000314923
0.000158338
-4.90634e-05
-2.93618e-06
2.92433e-05
4.3143e-05
-8.98941e-05
7.23102e-05
9.10659e-05
0.000190721
-0.000281273
-3.20592e-05
-3.67415e-05
-2.1014e-06
-2.36894e-05
-0.000255316
0.000285049
6.12236e-05
2.34662e-05
0.000340349
-0.000325687
-1.22415e-05
-3.95748e-05
-4.40867e-05
0.000265374
-6.20807e-06
-0.000250054
-0.000205242
0.000121346
8.3946e-05
4.19051e-05
0.000351133
-6.07952e-05
-0.000289283
-0.000142173
-0.000145111
0.000288855
-0.000150549
-7.46026e-07
6.85861e-05
-2.87637e-05
-8.62552e-05
0.000306499
-0.000171982
0.00017607
0.000123992
-7.68609e-05
-4.7129e-05
-3.488e-05
0.000171237
3.11623e-05
0.000233782
-0.000260311
6.39576e-05
8.89673e-05
-0.000180254
5.43267e-05
0.000118195
6.33635e-06
4.89876e-05
0.000181648
4.90507e-06
0.00014331
-5.57376e-05
4.26722e-05
0.000118227
-0.000137393
1.91869e-05
0.000317495
-0.000279716
-3.68949e-05
0.000110284