/*--------------------------------*- C++ -*----------------------------------*\
| =========                 |                                                 |
| \\      /  F ield         | OpenFOAM: The Open Source CFD Toolbox           |
|  \\    /   O peration     | Version:  v2012                                 |
|   \\  /    A nd           | Website:  www.openfoam.com                      |
|    \\/     M anipulation  |                                                 |
\*---------------------------------------------------------------------------*/
FoamFile
{
    version     2.0;
    format      ascii;
    class       volScalarField;
    location    "350";
    object      ddt0(omega);
}
// * * * * * * * * * * * * * * * * * * * * * * * * * * * * * * * * * * * * * //

dimensions      [0 0 -2 0 0 0 0];


internalField   nonuniform List<scalar> 
18355
(
0.548375
6.07371e-07
-0.0271282
7.00566e-06
-0.000304638
-0.425313
3.90615e-05
0.00067128
9.9432e-06
0.00221596
0.000343603
0.0067689
0.00690502
1.20128
5.51146e-06
-2.14414e-06
7.81085e-06
0.000139762
0.0146
-0.00011118
-0.00704463
6.40722e-06
2.49515e-06
-0.338878
2.60188e-06
7.27413e-05
4.70726e-05
5.34304e-06
1.15932e-05
0.000425457
0.202557
-0.00121043
-5.91469e-06
2.84101e-06
-5.45429e-06
7.08259e-07
-0.0003218
9.62015e-06
0.000461182
1.49782e-05
7.02856e-06
0.000390912
2.28871e-06
1.0564e-06
1.06399e-06
-0.0238244
5.2388e-06
5.72799e-06
0.312569
-6.58297e-07
8.84609e-06
0.084778
-9.4109e-06
0.0107034
6.50653e-06
-0.000115356
3.18193e-06
0.874016
8.16337e-05
-0.932468
2.67874e-06
0.00586958
0.00973119
-8.16228e-05
-0.00258744
7.03358e-06
-4.55768e-05
-0.000336601
3.79192e-06
-0.0465243
1.15669e-05
6.3963e-06
-0.000324394
0.000186682
0.0115629
4.08177e-06
0.704293
4.11503e-06
1.0885e-05
0.024446
-3.48564e-05
-0.289631
4.06367e-06
-4.98499e-05
-0.00290911
-2.60943e-06
1.7913e-05
-0.00191665
4.92808e-06
-0.00194975
1.12615
-0.00623937
-0.275444
2.05537e-06
-0.14145
0.00015994
6.2196e-06
-7.82114e-06
0.00108136
1.06442e-05
-0.00258712
9.93928e-06
3.06454e-06
6.68444e-09
-3.63133e-05
-1.96341e-06
-0.00221518
-0.132024
-0.00102225
-7.31572e-07
2.06774e-06
9.51251e-06
0.000286396
-1.47938e-05
-0.0447046
0.000160991
9.61268e-06
-0.191496
2.7558e-05
-3.78299e-05
-0.0234009
0.00378969
1.01555
-0.00257551
-0.293889
-0.0139418
4.78297e-05
7.34753e-06
1.18061
3.47965e-06
6.44271e-06
0.0226789
7.09898e-06
0.00404398
-0.00471932
3.86538e-06
0.00845598
-0.0644568
9.09614e-06
-0.011275
-0.000214979
-0.00128357
7.21643e-06
1.24525
-0.0051515
8.84996e-06
-1.86983
-1.97401e-06
0.00035606
0.017251
5.72561e-06
-3.3414e-05
2.76226e-07
-0.00173721
2.0521e-06
2.24041e-06
7.06748e-06
-2.62369e-06
7.3301e-06
1.96712e-06
0.000210436
6.16736e-06
-1.07065e-06
-0.00613105
0.000270994
-0.00453085
-2.51135
1.13119
-1.9622
-0.000210754
4.30818e-06
0.00318876
-2.70502e-06
0.374005
-1.52583e-06
7.19079e-06
8.89264e-06
1.56038e-07
-2.89596e-05
-0.000278284
-4.39867e-06
-0.00246037
6.33523e-06
4.27705e-06
-0.0370787
7.24334e-06
-7.34349e-06
-0.00176878
7.74934e-06
5.60728e-05
-0.00739042
0.00125547
2.47678e-07
3.06881e-06
1.00119e-05
-0.0550393
6.27524e-06
2.93746
6.65163e-07
1.11246
7.01613e-06
-2.72886e-05
0.00050351
-6.79174e-06
1.53005
1.8293e-06
-1.51155
4.28795e-06
-3.74444e-06
-4.96634e-05
9.77151e-06
-0.189788
-0.000882324
-0.000100191
-3.01573e-06
0.431516
-0.000268506
-0.000171244
2.45631e-06
6.11518e-06
-0.000858328
2.53776e-07
-0.00165991
0.00177782
0.00159494
0.000308575
9.27206e-07
-0.0614307
0.0514649
-0.000320429
1.65291e-05
-4.22699e-05
-0.00905641
4.12666e-07
-0.00404497
-0.00463772
-4.65232e-06
-0.0180205
-7.99595e-05
-0.000109298
5.55193e-08
-2.39191e-05
3.70627e-05
-0.000323236
2.41571e-06
6.32939e-06
5.21135e-06
-0.105565
-0.452736
1.64815e-05
-7.86586e-05
-0.407012
0.00407331
0.00152354
4.75359e-08
0.000632318
-8.24788e-05
8.94018e-06
0.000398393
4.69575e-06
0.0216519
0.0984637
0.000427546
-0.000117413
0.000524948
-0.00487072
-0.00716536
0.00170069
4.492e-06
6.07838e-06
5.11495e-05
-1.69129e-07
-3.29642e-05
-0.000170293
6.15138e-06
7.75953e-06
0.000424556
3.66388e-06
-0.0044939
-0.227645
0.000454874
9.47871e-06
0.000200366
4.355e-07
-0.001954
1.34394e-06
-0.000270414
8.47503e-06
-0.000236783
0.0326367
-5.30543e-06
-2.68642e-05
1.38122e-05
0.000357042
-0.00235396
6.64128e-06
2.8005e-06
-0.00432563
8.55944e-06
-0.00658693
-0.000300088
-0.270946
-0.00186441
0.000814933
3.71357e-05
0.000756028
-4.76118e-06
-6.54682e-05
-0.0001198
-4.54465e-05
-0.0161793
-4.24635
3.20224e-06
8.74477e-06
0.00418351
0.000168296
3.03487e-06
6.0629e-06
4.85818e-06
0.00137724
-1.92847
0.0244274
-0.0111338
0.000544727
-0.000180845
-0.126668
-2.20202e-06
2.28401e-06
-0.000176421
3.59051e-06
-0.000338536
-7.5578e-06
0.00855169
-2.37581e-06
-0.295786
1.09366e-05
1.60573e-05
2.66663e-05
0.0068608
1.98847
-0.000336832
-0.00624951
2.43038e-05
5.45967e-06
3.99822e-06
3.55168e-05
-0.00184143
6.07205e-06
8.08936e-06
-0.0388081
1.77192e-05
5.44868e-06
0.00247006
4.72799e-05
4.96583e-06
1.8272e-05
-0.000359156
8.7163e-06
-0.000316019
-2.13809e-06
7.7186e-06
1.01994e-05
-0.19451
-0.0942799
-1.90746e-06
7.09633e-06
0.0014064
4.62181e-06
-2.62992e-06
-0.0377979
-0.0834359
0.00100627
4.65212e-06
-6.27765e-06
0.00848851
2.37315e-05
-0.00095042
-5.98676e-05
-3.89325e-06
0.00118087
-0.000808094
7.14872e-06
8.18329e-06
0.000162311
8.12503e-06
0.000153123
9.77805e-06
-0.00717969
2.27913e-05
-3.25111e-05
9.10897e-06
4.70929e-06
-3.94033e-05
1.12995e-05
0.00308286
-0.0354997
-0.0847005
-1.54585e-05
0.00437726
-0.000425208
9.51405e-06
-4.82439e-06
-0.000161414
7.13187e-06
0.000944807
3.3448e-05
0.000341883
-0.162778
0.013407
1.13469
-7.00567e-05
-1.22697e-09
0.0409279
9.93375e-06
6.35936e-06
-0.0104156
1.05596e-05
0.000290074
-1.90765e-05
-0.00307749
9.33852e-06
0.00298153
-0.113016
0.000246159
1.37852e-07
2.85831e-07
0.000356288
2.74103e-05
9.97264e-06
-0.000999883
0.0487989
6.4125e-06
-0.000143978
0.00310814
-9.72517e-09
3.8106e-05
-0.000307128
0.715513
-0.00136667
1.82006e-05
-1.07183e-05
-0.000216515
6.82045e-06
3.61049e-06
1.65835e-05
0.00803126
-0.130853
-3.67368e-06
-1.99034e-06
1.03249e-05
0.0070899
-0.000950499
1.42267e-06
0.000309543
-0.00166103
1.55388e-06
-0.0529019
0.00582245
6.35426e-06
8.13816e-06
-0.00128275
0.00482265
-0.133011
-2.66112e-06
0.517068
8.80491e-06
-2.84202e-06
-0.00217337
1.54962e-05
-0.00843259
-0.000428318
-3.99496e-05
0.000207454
5.65381e-06
0.00518281
3.88191e-05
-0.000106258
1.67702e-05
-1.346e-06
-1.07513e-06
-1.60224e-06
0.00575619
-0.0797911
-0.00292864
0.000161763
2.28503e-06
1.80982e-05
-3.21454e-05
5.14919e-05
-8.46667e-06
6.36103e-06
5.54676e-06
-0.0019261
-2.30821e-07
-8.36246e-06
-0.842216
3.07481
0.00496297
3.07909e-06
-3.80883e-06
-0.000322808
8.16107e-06
0.0040887
-0.0435819
4.97111e-05
5.48814e-06
5.20359e-05
-9.85168e-06
-9.32541e-05
-0.860067
-0.00100572
1.32198e-05
0.0409213
1.18215e-05
2.46383
0.0110834
-8.66973e-05
3.14187e-05
-0.729406
5.94759e-06
0.00220463
-0.000956083
0.0160643
3.95559e-05
-8.70385e-07
1.47663e-06
0.0682124
-0.105861
0.0349758
-0.306885
-2.66355e-06
1.61084e-06
-5.3809e-05
5.94684e-06
-4.45155e-05
-0.0104796
0.393573
0.0293109
-0.163097
-0.000101665
-0.000946758
0.000290251
4.74305e-06
4.97491e-06
0.000322548
-0.000203773
1.01466e-06
6.41974e-06
-0.253648
5.83361e-06
-0.0975655
-6.33944e-05
0.00506153
0.010301
5.1246e-06
-1.06302e-05
2.5287
5.37123e-06
0.169669
8.27569e-06
-0.00961874
-0.00100664
7.44375e-06
0.000372917
0.00198617
-0.000462104
-5.69059e-06
3.42236e-06
-0.000287797
-8.85653e-05
0.005066
7.75303e-06
0.00577054
5.53794e-06
0.0155224
-5.29793e-06
1.52227e-06
-0.00767602
-0.00180313
-0.00191722
-1.49096e-06
2.37184e-05
0.000134953
0.00384863
0.0405636
-0.000142156
0.000829082
4.4697e-06
0.000167107
1.15348e-05
-0.000127854
0.223481
1.43659e-06
-0.0713613
1.07198e-05
4.13337e-06
-0.000145639
0.000382966
1.84654e-05
-0.00444552
-7.77176e-06
0.000152627
-0.0413876
-2.43084e-06
4.94142e-06
1.16835
-0.00179187
-0.842728
-0.000822898
1.08094e-05
6.65956e-06
1.29937e-05
0.000187367
3.30805e-05
-1.47663e-05
-0.00235102
-0.00216963
2.29558e-06
0.397445
0.515539
0.000284513
-0.0120987
3.31999e-06
-0.0352426
0.0721949
-1.49766e-06
-0.022521
-0.000155561
-0.574702
-0.0110699
9.55798e-06
1.5713e-05
-3.36742e-06
-0.0167003
0.00133797
-3.17113e-06
-3.48348e-06
-0.00215401
6.96357e-06
-5.52474e-05
1.50287e-05
-0.000162563
0.234283
0.20184
0.00642878
0.242917
-0.00195516
0.883299
4.9475e-07
7.72875e-06
9.26718e-05
-0.0237212
-0.00333042
0.00125511
-2.02897e-06
0.0331559
9.91623e-06
1.53452e-05
-0.314383
-1.71825e-06
3.49989e-05
0.00036898
-0.00481365
5.03484e-06
9.08671e-06
-0.000136757
3.38959e-05
-6.50232e-07
3.29549e-05
0.000264236
0.0131262
-3.68958e-05
6.35407e-06
-0.00227787
-0.0735078
-8.12708e-07
0.236549
-0.0419244
1.64389e-06
0.26648
-1.70097e-06
-0.00263751
4.34563e-06
-6.42818e-05
-0.00895821
5.71907e-05
0.896685
-3.19387e-05
9.01307e-06
0.124159
4.22357e-06
2.80245e-07
1.01174e-05
7.56828e-06
3.46007e-05
-0.00165738
0.783106
-4.37958e-07
0.170518
0.000109614
0.210854
-0.13334
4.07974e-05
4.34826e-06
1.80286e-05
-2.08728e-06
0.00740754
7.45854e-06
1.89839e-06
7.77268e-06
-2.40017e-06
5.30253e-06
-0.00026963
0.000237017
-5.66596e-06
-0.000112448
-1.43841e-05
0.000189682
-0.00104931
0.0756457
-8.49762e-08
0.00578451
-0.00258053
1.12724e-06
0.352092
0.214051
3.81541e-06
0.105894
4.57244e-06
-0.0164793
0.000139391
-2.37646e-06
-0.000242639
8.97727e-05
0.166835
4.36806e-06
-7.0729e-05
0.307667
-0.00492808
0.00942894
5.32895e-06
0.0274335
0.00498486
-0.0211
7.40164e-06
-4.28705e-05
4.24463e-06
7.82848e-06
2.30352e-06
-7.65629e-06
1.58731e-06
0.139834
0.00016438
3.88978e-06
3.06395e-06
-1.363e-08
1.79902e-05
-0.00404824
0.00490773
-4.23248e-06
3.66101e-05
4.9399e-06
2.89119e-06
2.15324e-05
6.99169e-06
-0.00114917
3.55973e-06
7.01188e-06
-6.11833e-06
3.45545e-06
-0.000146611
0.000170592
-0.0253258
-0.0118862
-0.000150239
6.41221e-06
0.00658157
2.34545e-06
3.4631e-06
0.000261041
-0.00229524
0.000204182
0.000175305
8.81212e-06
5.05648e-07
0.000268083
3.6562e-06
0.00023513
7.86545e-06
8.59829e-06
2.14458e-06
-4.00714e-05
0.90263
7.68956e-06
4.23487e-06
6.43605e-06
0.0259651
0.0177339
-0.0001679
3.31916e-05
-0.000690311
-0.000107361
0.00206548
-2.37025
-5.2892e-06
0.0477627
5.07794e-06
-0.248899
-2.19296e-05
-3.44885e-06
-3.10526e-06
-0.162379
8.94844e-06
-0.000171239
-0.0022588
-0.000929533
-0.000768396
1.74181e-05
4.42972e-06
-8.91318e-06
-8.47926e-07
-9.72061e-05
0.00702635
0.0164748
-0.000922705
4.11216e-06
3.56453e-06
2.39066e-05
2.00122e-06
6.91041e-06
1.8264e-07
-6.21787e-05
5.31899e-05
-0.0575706
3.99893e-06
4.10094e-06
0.000239766
6.1529e-06
0.00442877
-0.000712314
-0.00222711
0.00588319
-0.842682
0.000611555
5.65802e-06
3.80454e-06
-2.78761e-07
1.04158e-05
-0.0399943
0.00118554
0.00737434
-3.79084e-06
3.03546e-06
0.000133197
7.68266e-06
-2.53959
0.0126747
4.06129e-06
8.71816e-06
4.2541e-07
1.63658e-06
6.53905e-06
1.81614e-05
-0.0125013
7.30173e-06
1.55941e-06
-3.08899e-06
4.98072e-06
1.83918e-06
7.29713e-06
0.000108853
4.89199e-06
-0.00169701
8.1293e-06
-0.0653111
-0.0174662
3.5422e-05
0.019809
0.000185713
-3.14414e-06
0.00312943
0.00439621
1.09745e-05
1.21821e-07
2.65833e-06
0.000249495
-6.92346e-06
0.000630387
-0.0380012
9.81665e-06
4.41765e-05
5.34042e-06
-0.147241
0.0129615
-2.44718e-06
2.32841e-06
-0.000211284
-0.00183324
3.87867e-06
0.000238456
5.04913e-06
-9.6602e-08
-0.000151962
-0.000424175
-0.311441
-0.00775862
-0.0109077
3.90523e-06
0.00340458
-0.00373442
-0.000255761
-1.42788e-06
-0.00361637
5.50134e-05
0.0678044
0.0060687
-4.76091e-08
4.47692e-06
5.06592e-06
-4.93862e-05
3.79564e-06
-0.0110877
-0.0063706
9.05128e-07
1.02401e-05
2.59759e-05
-1.57729e-05
-2.93919e-06
-1.373e-06
0.00581829
2.73072e-05
1.5078e-05
-0.0165766
0.00580368
0.00540549
1.10253e-05
-2.27904e-06
6.58323e-07
2.01896e-05
-0.00103812
-0.00317175
4.23394e-06
1.16283e-06
-6.72452e-05
0.0310488
1.64147e-06
6.28345e-06
-0.000825417
6.09263e-06
3.87204e-06
4.84887e-06
-0.0415462
-2.25959e-06
4.09437e-06
1.39327e-06
0.000555643
-1.59868e-06
-0.000296067
0.00542773
5.93691e-06
0.0170781
-0.000594711
-0.0084814
-7.08812e-05
5.71837e-06
-0.000272609
2.79735e-06
3.80224e-06
6.05589e-06
-0.0375975
0.0550634
-0.00731525
-0.000310658
0.457646
0.00385406
2.78313e-05
0.00693956
-0.000824068
-0.0001717
-2.23501e-06
0.392811
-1.01315e-05
5.40648e-07
5.33521e-06
-0.160723
-0.0224699
1.61665
3.59254e-06
0.00636493
0.0332688
-0.00136921
0.000812606
0.000172858
0.000140231
5.8114e-05
-0.0311698
6.42892e-05
-1.06569e-05
0.000292025
0.0147487
-0.0573443
-3.26273e-06
3.56151e-06
1.46581e-05
-3.1919
-1.59134e-05
2.28062e-05
0.41902
-0.000310326
0.000170717
0.000179952
0.0398789
4.15548e-06
-0.182627
-6.45571e-06
-1.83564e-06
6.4184e-06
-9.02311e-06
-3.66514e-06
5.27443e-06
8.55026e-06
0.00812954
1.88419e-06
-0.110304
-0.000267167
9.06977e-07
1.68983e-06
0.00546313
-9.01093e-07
6.29735e-06
-2.74874e-05
0.163218
0.00338857
5.49149e-05
3.01805e-06
-0.472141
4.07187e-06
-0.00215179
2.12491e-06
1.17355
0.000914921
-0.00233144
-0.000245137
8.91411e-06
-0.0018929
0.914218
0.0158138
4.22299e-06
4.77796e-06
0.00029901
0.217097
-6.73198e-07
-0.000800775
-0.000470636
0.000309525
4.60869e-06
2.16809e-06
1.83547e-05
-7.66007e-06
-1.56528e-06
0.000189062
-0.000359876
7.49083e-05
0.00810711
0.394213
-6.36265e-06
0.0277157
2.95842e-06
0.007425
-0.508544
0.00166525
1.14744e-06
-1.44462e-05
2.63263e-06
-0.166307
-3.06331e-06
3.95037e-06
0.00637731
9.40195e-06
1.6436e-06
8.43602e-06
-4.24461e-06
7.37823e-06
-0.00562013
-0.00263127
0.00204469
3.74188e-06
7.62503e-06
-0.00371463
-2.79171e-06
-0.00374083
-4.58203e-07
2.10395e-06
-4.53648e-06
-7.79798e-05
0.0167229
-0.000745328
5.83724e-07
0.660665
1.0988e-05
4.51731e-07
0.000281032
-3.1698
-0.0443784
3.60071e-06
1.77669e-05
0.173459
-0.0314607
0.265016
-4.52923e-05
4.24169e-05
-0.0108193
-6.46581e-06
-0.00121669
6.78434e-05
-0.0308855
0.000102268
8.32947e-06
-4.89976e-06
1.16033e-06
-0.0750259
1.74677e-06
1.27698e-05
0.0232584
0.000341719
-0.00899273
1.28535e-06
1.23378e-05
-3.36498e-06
-4.50936e-06
1.31308e-06
-6.59374e-05
3.85542e-06
2.12698e-05
1.27116e-06
1.01571e-05
-0.000963441
0.00032223
0.000205228
-2.18168e-06
0.000141256
1.65836e-06
0.0539454
-1.69162e-07
4.52309e-06
-3.37248e-06
-1.58381e-06
1.68156e-05
0.000250449
1.33221e-05
4.48792e-06
9.20712e-06
-6.37631e-08
-0.0845727
0.0959555
1.67462e-05
-0.140202
-0.000331748
-4.64067e-06
-4.84724e-07
-9.74658e-06
0.0338626
-4.9804e-05
6.99964e-06
1.32114e-06
2.05089e-06
2.5679
-3.90622e-06
-4.43375e-06
0.0630295
3.70787e-06
-1.10495e-05
-0.000483724
-0.0012258
-0.00405426
0.0071703
-0.731655
-3.74269e-06
-0.756453
-0.00025496
6.60782e-06
1.31845e-06
-4.3215e-05
7.06697e-06
-0.00070107
0.00037385
7.28484e-05
-6.0443e-06
-0.25832
-0.00348895
1.35351
-0.0259346
0.0212194
-0.00237975
-1.76225e-05
-0.338849
-0.0415065
1.89979e-06
-0.92388
3.52503e-06
-1.79397e-05
0.00529868
4.41025e-06
0.0265499
8.82701e-05
1.20373e-05
6.18479e-05
0.00447672
3.77772e-06
-0.102728
7.04617e-06
9.07386e-06
0.0662863
-1.58913e-05
-0.000271996
-1.45302e-06
-0.000160575
9.97539e-06
1.08584e-05
1.74794e-05
0.0104564
1.46353e-05
-4.42476e-06
8.93547e-06
-0.000109487
7.70581e-06
-1.83142e-05
-0.0064979
8.62742e-06
-0.000124889
3.71098e-06
-2.64965e-05
0.00038583
6.60624e-06
-3.55043e-06
0.00700567
5.32089e-06
-3.25187e-05
7.62752e-05
0.00641139
6.11694e-05
7.7619e-06
6.67353e-06
-0.000318263
-0.00449022
6.13198e-05
6.98991e-06
8.36882e-06
4.34695e-06
-3.36793e-06
-3.15514e-06
0.000333028
-0.00394548
0.000114914
7.38971e-06
1.24312
2.57332e-07
4.38164e-05
0.092438
0.00109752
-2.94535e-07
0.00155957
4.7045e-05
6.89632e-06
-0.0408466
1.78485e-05
-0.00221881
-1.42465e-06
0.00497983
1.88496e-05
-1.29221e-06
-1.41711e-06
-0.014737
-0.00214395
6.7643e-06
-0.00457013
-1.82904e-06
9.2922e-07
4.04812e-06
0.00643852
4.57111e-06
4.5695e-06
0.000139759
1.85287e-05
7.26228e-06
6.83905e-06
4.48741e-06
-3.41533e-05
1.05726e-05
3.37132e-06
0.000110356
2.77709e-06
0.602707
0.00238886
8.9429e-06
0.00073313
-0.000246308
7.46219e-06
-1.23073e-06
-4.10467e-06
5.17185e-06
-0.000276105
-0.000100272
0.000949786
0.000468436
1.1022e-05
0.00474423
0.00560509
6.18091e-06
4.74246e-05
0.00573019
-0.000154814
0.0227736
-1.80313e-06
2.69875e-05
-9.14124e-06
0.000230459
-0.000381616
-0.000123059
6.38672e-06
0.000733558
-2.18119e-06
-0.000157755
-1.96408e-05
0.00728548
9.76648e-06
-7.19812e-05
0.000923208
2.00374e-05
-0.0247078
0.332745
-7.80552e-06
0.000141097
-0.000591624
-3.7735e-06
-0.00153016
6.75687e-06
-0.00094099
0.40049
0.0208283
-0.00552163
0.0010511
-0.000260545
-3.46414e-06
-0.000832791
2.03109e-06
-0.81634
-0.00152728
8.46746e-06
5.04492e-06
-0.00148154
-0.000572569
7.68793e-06
4.51671e-06
-0.143141
1.00519e-05
4.73755e-06
-0.308163
0.00198302
2.47445e-06
0.00458975
3.2942e-06
0.00422532
0.00214803
7.24568e-06
4.42784e-06
0.000351098
-0.0349846
2.40043e-06
-0.000336312
4.86754e-06
7.11061e-06
5.07739e-06
1.14929
7.96971e-06
2.75228e-05
-5.08791e-06
-0.00321434
-0.000351237
2.17823e-06
-3.23044e-07
0.00736739
6.09162e-06
2.42342e-06
-0.00543193
-3.30933
-3.44941e-06
-0.0245715
0.000316942
0.0012168
-1.95679e-05
0.00160848
-0.024682
-9.82748e-05
-2.43123e-05
-4.84298e-06
-0.000140404
6.18941e-06
0.493175
0.50267
3.87869e-06
5.67824e-05
3.43326e-06
-3.63459e-07
-0.318702
6.61187e-06
6.71958e-05
-2.97573e-05
0.0118692
4.28425e-06
1.27633e-06
-0.000102156
-0.0183384
7.25926e-06
2.55467e-05
2.30102e-06
1.60366e-06
-0.000124032
0.00118551
-8.85444e-06
3.58119e-06
1.93043e-05
1.0001e-05
-4.65201e-06
0.0443025
1.39061e-05
1.31282e-05
3.25027e-06
0.00246082
2.74207e-06
2.62208e-06
-0.00106853
-3.72672e-06
-4.23334e-05
-4.29517e-06
3.32364e-06
0.0070735
0.0994107
-0.0399559
-0.0437303
-1.76798e-05
5.29344e-05
0.0579164
-2.90586e-06
-8.18753e-05
8.23149e-06
-0.1982
6.69026e-08
-0.000130308
4.28336e-06
0.189459
-0.000770017
0.00912114
0.0269076
7.18765e-05
-0.00161879
-8.12895e-07
3.0453e-05
-0.423458
-0.000390529
8.89738e-06
3.15565e-06
-9.56628e-05
-0.000306201
6.46156e-06
1.91802e-05
-3.12154e-06
-4.58986e-06
0.00215738
0.0520489
2.77375e-06
0.000497547
-5.43987
0.331366
-0.000158519
-0.000626793
-5.74054e-05
-7.5316e-05
1.00388e-05
-4.74158e-05
0.0276281
6.80583e-06
3.35973e-06
2.59374e-06
0.0250994
0.630644
-0.000260191
7.01762e-06
3.27171e-05
-0.000272086
4.5368e-06
0.000134542
-0.00237375
0.00350232
-1.49829e-05
0.0675861
5.78501e-07
7.4438e-06
-2.35177e-07
-5.36735e-06
1.01193e-05
6.18542e-06
0.00409841
5.91216e-06
-0.237163
-8.9218e-06
4.94722e-06
2.24306e-06
0.000497478
5.51409e-05
0.000843445
-0.00385478
7.24798e-06
-0.167403
5.89692e-05
1.93346e-06
1.17861e-06
0.0244028
-0.525995
2.70882e-06
2.42875e-06
-9.32684e-06
-0.000138973
-0.0003752
0.0076704
0.000129154
-4.54417e-05
0.00589963
0.0694867
1.09714e-05
9.11263e-06
-3.26943
-0.000105665
-0.0498062
0.000117193
4.13694e-06
0.00220108
0.000172275
0.165343
0.000301322
0.0916642
2.4601e-06
1.34057e-06
-2.71036e-06
8.12826e-06
-0.000107809
2.404e-06
7.90177e-07
4.13207e-06
-3.36744e-05
1.67903e-05
9.16472e-05
-7.41938e-05
-3.24883e-05
2.38151e-05
4.30492e-06
-1.84542e-05
0.000528952
6.15982e-05
6.73826e-06
4.12966e-06
0.0114502
0.000160155
-5.56403e-05
6.02956e-05
0.561644
2.42648e-06
0.000116026
-9.92866e-05
5.15731e-06
-5.42868e-06
-0.038176
0.0026479
5.8395e-06
-0.000143721
0.000105225
-0.00184406
6.66717e-06
-0.000248063
0.000316201
6.80104e-06
0.00738573
5.2266e-06
7.1311e-06
-0.000414696
-3.8636e-05
-0.000266786
0.0151701
0.192607
0.000239346
7.07983e-06
9.82899e-06
1.15207e-05
-0.000654402
-4.96185e-06
0.0648267
4.88736e-06
3.7709e-06
5.73419e-06
0.00444214
4.49382e-06
6.23895e-07
-4.14817e-06
0.00779789
2.61922e-06
-0.768163
2.58263e-06
0.000342562
-3.75984e-05
-0.000103425
6.2271e-06
-8.67617e-05
0.0590604
0.00126331
5.88444e-06
0.000189762
3.98033e-06
7.67848e-06
-0.568268
0.146565
3.48813e-06
8.08254e-06
-0.000170456
-1.01822e-06
-6.33065e-06
-2.34044e-07
-3.2447e-07
0.000338493
0.0016591
-3.72176e-06
-0.00027169
-0.00128511
4.02172e-05
7.38009e-06
9.09301e-06
0.000440124
-0.000639396
9.89214e-06
0.203709
-5.92655e-06
0.0643617
0.000525848
2.4387e-06
5.11865e-06
4.20043e-06
0.145778
-1.80928e-05
7.88859e-05
8.32878e-06
-0.000152463
0.242954
-0.00012706
-0.000236741
1.09114e-06
2.07482e-06
-2.79654e-05
5.55035e-06
-0.000125152
7.80147e-06
0.000376826
-3.40402e-06
2.3878e-05
-0.118834
-0.00119891
0.0210711
5.54454e-06
-0.00044848
8.11374e-05
0.00787084
-0.00145431
-0.484413
3.1597e-05
7.89276e-06
0.000698711
5.16008e-06
-0.0102032
-7.83223e-06
0.00173224
5.4656e-05
0.00177394
-0.774434
7.35918e-05
-0.000188466
2.84808e-06
4.03077e-06
-3.35021e-07
-2.17488e-06
-1.25339e-06
-3.48336e-05
3.98605e-06
0.000163361
0.00227977
0.0378427
5.94851e-06
0.00149436
1.55128e-06
7.90378e-06
1.23972e-05
0.00700889
2.78921e-06
-0.00585659
1.18987e-05
-1.34765e-05
-0.107686
6.84937e-06
8.54554e-05
9.04927e-06
0.000147207
-0.465354
9.49759e-05
0.0589776
1.79683e-05
-0.00173802
-5.20652e-05
7.26067e-06
-1.56318e-05
0.00199305
7.86331e-06
7.49535e-06
-3.4854e-05
7.35814e-06
-0.090542
5.22113e-06
-0.974407
-0.924572
0.000522504
8.65663e-05
-0.00598698
-0.0012748
-6.68968e-06
0.94092
7.94811e-06
-0.153629
1.45043e-05
-2.32998e-05
0.00428221
0.016626
-0.000230459
-0.061286
8.23808e-06
0.0876911
-3.34582e-07
-0.0393444
-6.83842e-07
-0.000746509
0.00105337
9.81459e-05
3.17277e-06
1.08857e-05
-5.48574e-06
0.000342128
0.0164392
-0.00140046
0.031056
-6.3896e-06
1.22085
4.6052e-06
-3.73334e-05
3.90193e-06
4.98045e-06
-0.0115617
-1.90948e-05
3.87511e-06
0.000504459
7.59358e-07
0.00745092
-0.00375061
7.39926e-06
-0.0023102
-0.00102076
3.13315e-06
1.73065e-06
0.000126913
1.37563e-06
0.00239632
-0.000612823
4.72478e-05
-3.0944e-05
3.63719e-07
-6.17484e-06
0.00250182
2.99498e-05
1.55924e-06
-1.42021e-05
-1.54916e-05
6.64386e-06
0.355152
0.000122753
0.175337
-0.000336606
0.00201836
0.000216068
3.44893e-06
3.75078e-05
1.19e-05
5.91547e-06
0.0349692
1.03267e-05
-0.000152863
-0.00110256
2.64621e-05
-0.0189989
-0.953321
-1.29245e-05
-0.000802611
0.000576015
0.20372
1.64766e-06
3.79663e-05
4.18326e-05
0.000813132
0.0544256
7.41334e-05
-0.000105191
2.0469e-05
9.22983e-06
1.82312e-06
-0.0323135
8.13307e-05
-0.000494757
-0.00914083
3.68035e-06
0.000124084
0.000199054
9.59309e-06
7.73455e-06
-9.80682e-06
0.00233881
0.00634655
2.34096e-05
-5.64932e-05
-0.0300336
-4.96972e-06
7.45947e-06
7.76737e-05
1.8716e-06
0.0104249
-0.0160042
-0.209606
-0.00507778
1.11052
0.000102512
6.07801e-06
0.00518719
0.000388893
0.000203548
-5.43958e-06
-1.10116e-06
0.00239449
0.397134
6.75441e-06
2.79126e-06
-0.000295877
-0.00117674
-9.66637e-05
-3.40842e-06
-0.0266378
-4.90722e-05
-8.9677e-05
-2.12061e-07
0.000207416
-1.13018e-06
-5.18203e-05
0.000215198
9.01092e-06
0.27006
-5.7858e-06
-0.00115915
0.000191313
0.0577045
-0.00141633
9.6077e-06
0.00281253
-0.000119819
-1.97201e-05
-5.92204e-06
-0.000516373
2.71052e-06
9.59655e-05
-0.000939153
-3.39136e-05
-0.00198776
2.37489e-06
0.00584905
2.9855e-06
-3.75495e-06
-3.34761
-0.000144749
0.00603538
6.09356e-05
-7.864e-06
0.130079
-0.0915206
6.40173e-06
-0.105335
-0.000354073
4.08957e-06
-5.23334e-07
0.577629
-0.0419187
-8.10114e-06
-1.77551e-07
1.86147e-05
9.21276e-06
0.011358
-0.0319054
3.13186e-07
-4.51257e-07
6.47972e-06
-0.0232863
0.00146834
0.0386097
-1.55379e-07
-1.09096
-8.13493e-06
-0.00376967
0.0417121
5.43657e-07
8.90934e-07
-2.89072e-05
0.0218304
2.71896e-06
7.67162e-06
9.03259e-06
-0.000174439
-0.000148185
0.190202
0.000126843
1.3352e-05
8.28164e-06
-0.000142818
0.00215697
-0.00113475
7.61101e-06
-1.76942e-06
0.00440387
0.00128776
-2.7559e-05
-0.176318
0.000530431
7.58463e-05
-0.291227
-3.52276e-05
7.279e-05
-1.35431e-06
-0.0319195
6.81105e-06
2.54067e-06
2.19117
-0.00019845
6.81106e-06
7.99306e-06
-1.79091e-06
0.000917534
0.00734908
6.07259e-06
3.21711e-07
3.88085e-05
0.00408831
7.471e-05
1.28022e-06
7.84139e-06
4.85782e-06
8.46416e-05
0.000696178
-2.00585e-05
-6.03995e-06
-0.608717
3.31018e-06
0.812842
-0.00085251
-0.00100157
1.20319e-06
2.50265e-06
1.66199e-06
0.526022
-0.00214524
0.00411212
0.130469
-0.000734771
6.52786e-06
-0.138889
1.66604e-06
0.00486393
-0.0126217
0.000280104
7.48188e-06
-0.00010492
0.00441242
6.6813e-06
-8.84252e-06
-0.0176751
7.67224e-06
-1.2623e-05
-0.000171033
-1.34422e-05
-5.56514e-06
-0.00408126
0.00814144
5.88216e-06
5.31094e-06
0.205606
6.27116e-06
2.11159e-05
5.85479e-06
2.12952e-06
-0.0236729
-1.68053e-05
6.68948e-05
1.2157e-05
-5.6647e-06
1.56326e-05
0.000599479
0.00771315
-0.000284415
-0.183634
7.18433e-06
8.60373e-05
0.126541
6.80704e-06
2.63212e-06
-7.05778e-06
1.70393e-06
5.03817e-06
-1.37575e-06
-7.63588e-05
-0.0417581
3.97854e-07
3.73398e-06
1.13562e-05
4.11419e-06
0.0500884
2.39867e-07
-0.0457657
-0.00315582
0.000144787
-0.000355938
0.00624417
-1.09852e-05
-1.21101e-06
0.000123033
6.60209e-06
6.71591e-05
0.000182363
1.22554e-05
-0.143754
2.90747e-06
5.63536e-06
-0.000879355
0.0920543
-1.78875e-07
6.162e-06
0.00123477
8.93407e-05
0.000378967
7.93091e-06
6.32237e-06
-7.57123e-06
0.329129
1.53096e-05
-0.301658
-8.65841e-06
0.000126869
5.92646e-06
-1.26576e-05
-0.000144975
0.0202946
6.76192e-06
0.000120721
4.30631e-06
-0.0115604
-0.0300387
-6.46272e-05
0.000241325
7.67919e-07
6.8668e-05
-0.000174465
-0.058633
-2.81628e-05
0.000201705
-7.46147e-06
-0.00815825
8.48491e-06
0.000406547
3.84514e-06
-0.00142072
0.00563948
0.00956735
-5.45525e-06
0.000230343
0.0690786
0.378327
0.000123713
-0.000107224
0.0198821
0.0401204
1.78771e-06
0.00250249
-1.31102e-06
0.000134877
8.65815e-06
8.63093e-06
8.59681e-06
0.127981
5.79149e-06
7.99073e-07
0.00138878
-0.0152808
-0.0377323
0.00843214
-0.0203219
2.31683e-06
0.0916839
0.00161082
9.34045e-06
6.9241e-06
0.00432283
1.74352e-05
2.7797e-06
1.10293e-05
-0.00218385
4.10088e-06
7.86618e-06
-4.5419
2.73534e-06
2.59982e-06
6.76333e-06
5.84154e-06
-2.80301e-05
7.11121e-06
-0.35783
-5.49025e-05
5.8391e-05
-4.76925e-06
0.000385374
-0.0834886
-3.30674e-06
-3.71197e-06
0.01438
0.000137629
6.20255e-06
-0.000102642
4.47729e-06
6.4889e-06
0.000902349
0.0026332
6.52645e-06
-1.10906e-05
0.00759263
-0.00110273
0.345982
0.00131603
-0.00061742
-0.00138167
3.50747e-07
-0.000124022
-0.000123311
-3.04229e-06
-0.169387
0.349858
-0.000318121
0.00231053
0.00575625
3.55766e-06
-5.81294e-07
6.36021e-05
-0.00142319
-0.110961
3.31885e-06
-0.00134814
-0.405037
-2.48065
1.82808e-06
-2.67507e-05
0.00518846
-6.50201e-06
3.28177e-06
-0.0608863
6.38966e-06
7.35621e-06
-2.12344e-05
-0.0208252
-1.77259e-05
1.11121e-05
2.50459e-05
-0.00104197
0.00036079
0.00303757
-1.60551e-07
3.78705e-06
0.000436463
-8.9477e-06
-0.000164159
-6.80002e-05
0.00730483
0.00753446
5.77493e-06
7.4106e-06
0.171953
-3.88006
0.844011
4.62054e-06
7.84994e-06
1.65771e-05
9.78708e-06
6.92369e-06
6.88863e-06
-0.000940041
9.40318e-06
5.29722e-06
2.68482e-06
-0.00211104
-6.7679e-05
0.000365932
0.557856
0.00187114
0.00105869
0.000223677
-0.00088439
0.00799703
-0.000309309
0.000165953
0.000179307
2.58761e-06
-0.0430053
-1.00728e-05
2.78564e-06
-5.70275e-06
-0.0118072
-3.4012e-06
-0.0168063
1.81409e-05
9.10946e-07
-0.000780476
5.98285e-08
4.71814e-06
-2.80716e-07
-0.00280558
0.392983
-1.8887e-05
-3.0084e-06
-3.63779e-05
-0.412599
0.00125123
-0.00259652
-4.78979e-06
0.000304886
-1.81409e-05
3.40712e-06
8.88028e-06
3.41629e-06
7.64281e-06
0.000157707
0.0208052
-1.26245e-05
-1.88489e-07
0.00714027
0.169183
0.00680053
-1.44623e-06
0.00648426
0.00017091
-0.185234
2.31431e-06
5.092e-06
-0.000320492
-0.00298125
2.80392e-06
7.31575e-06
3.58578e-06
3.09231e-06
0.00695641
1.04989e-05
-0.00407584
-0.000576349
2.52534e-06
-3.4968e-05
7.28135e-06
-0.530583
-1.02688e-06
-0.00320166
1.59396e-06
-0.000339589
-5.33767e-06
0.00164628
-0.00367947
1.08336e-05
-0.000951555
-2.68017
7.85463e-06
9.95212e-06
0.000566695
1.66529e-06
-0.225141
-8.72144e-05
1.74524e-05
0.00217523
2.39088e-06
-9.60353e-06
4.87267e-06
-1.46094e-06
8.08387e-06
-1.21808e-05
-1.20535e-05
4.02775e-06
9.72601e-06
5.22478e-05
0.00103264
2.73831e-06
0.0139069
-1.56746e-06
7.20338e-06
-0.00018852
-0.00131183
1.56415e-05
7.39654e-07
8.04936e-06
1.25256e-05
-0.000919069
-0.702201
0.000193403
-3.40717e-06
-4.35824e-06
2.68441e-06
-0.000408784
7.23703e-06
5.88109e-06
-0.675467
-0.024995
0.00143352
7.71081e-06
4.9034e-05
-1.1781e-05
5.37259e-07
0.000222208
1.37083e-06
-0.00573057
-4.37112e-06
0.0208395
-0.00029531
-0.27247
-1.45411e-05
-0.000271616
-0.635418
0.0218181
0.120043
-0.000156092
0.0543522
-4.58034
-3.0476e-06
0.00029401
-0.332954
-6.13775e-05
4.36484e-06
5.31172e-06
-2.78129e-05
0.302762
7.71079e-06
0.000119733
-0.0423499
2.55227e-07
4.8308e-06
-0.26395
-0.026333
0.00763871
0.103513
-0.0344357
-1.15228e-05
-0.00410965
-8.80973e-05
-0.000114395
-0.00262248
1.29185e-05
0.136602
0.0174539
-6.9398e-05
1.54116e-05
4.88649e-05
0.000266562
2.36113e-05
-0.897758
2.51315e-06
7.54231e-06
1.02919e-05
0.349005
0.191353
-0.000315731
1.91207e-05
2.87281e-05
-8.07664e-06
0.11147
9.3477e-06
4.11674e-05
-8.09427e-05
0.0349901
4.47485e-06
0.00320424
0.0260498
0.0194391
-2.55492e-05
0.0284158
-1.51868e-05
0.0418518
2.34529e-06
0.00347831
9.47551e-05
0.0039499
-8.14188e-05
0.323701
0.0129108
6.1432e-05
-9.6012e-05
0.00069843
0.000108148
3.88394e-06
4.10088e-06
0.000287091
5.22409e-05
0.0397806
-6.19707e-07
1.09212e-05
4.87922e-06
6.62284e-06
0.0334067
2.91495e-06
6.81824e-07
2.31526e-05
-0.0643102
-0.000321258
0.0016145
3.79407e-05
-2.61852e-05
0.00428894
-2.58476e-05
6.4428e-06
-0.00123001
0.000688243
8.28394e-07
-0.00135885
-4.94273e-05
0.046082
8.21887e-06
0.0224955
0.000343419
4.23549e-06
1.98774e-06
6.54396e-07
6.32359e-06
6.6992e-06
-0.982672
-0.000533572
1.02856e-05
7.79979e-06
2.11897e-06
1.03817e-05
-0.000207205
-0.0157043
9.89747e-05
0.00120444
9.75251e-06
0.0151881
3.18125e-06
-0.00115977
6.87564e-06
8.19559e-06
0.000346546
8.31156e-06
6.89151e-06
-5.58756e-06
2.77783e-05
-0.440471
7.77006e-06
3.05546e-06
-0.0409003
-0.0587705
-0.000498665
0.000295995
8.32424e-07
-0.000105023
-0.0405874
-6.80288e-05
1.56372e-08
-1.95445e-05
-0.597172
-2.62831e-07
1.4263e-05
0.29838
-9.13293e-06
-0.000173383
1.8544e-05
2.49756e-06
7.4787e-06
0.000930789
0.00021974
2.22403e-07
6.18342e-06