/*--------------------------------*- C++ -*----------------------------------*\
| =========                 |                                                 |
| \\      /  F ield         | OpenFOAM: The Open Source CFD Toolbox           |
|  \\    /   O peration     | Version:  v2012                                 |
|   \\  /    A nd           | Website:  www.openfoam.com                      |
|    \\/     M anipulation  |                                                 |
\*---------------------------------------------------------------------------*/
FoamFile
{
    version     2.0;
    format      ascii;
    class       volScalarField;
    location    "100";
    object      k;
}
// * * * * * * * * * * * * * * * * * * * * * * * * * * * * * * * * * * * * * //

dimensions      [0 2 -2 0 0 0 0];


internalField   nonuniform List<scalar> 
18355
(
0.0319785
0.000136994
0.000241249
0.000140868
0.000196507
0.000389305
0.000146741
0.000204828
0.000152183
0.00313996
0.00016024
0.000206037
0.000207677
0.00341386
0.000142862
0.000135469
0.000140856
0.000157342
0.000234791
0.000152438
0.0137041
0.00014905
0.000136918
0.000346087
0.000136994
0.000149978
0.000146928
0.00014096
0.000152957
0.000161872
0.000655205
0.000177827
0.000137659
0.000134333
0.000146721
0.000148836
0.000158861
0.000149102
0.000162732
0.000149225
0.000151178
0.000161286
0.000134478
0.000136815
0.000136913
0.000238792
0.000141088
0.000140975
0.000927988
0.000144293
0.000142926
0.0276861
0.000144552
0.000232108
0.000143065
0.000152398
0.000146559
0.000563451
0.000150279
0.000448286
0.000134429
0.000195753
0.000229441
0.000145431
0.00018432
0.00014082
0.000153811
0.000158913
0.000134095
0.00438545
0.00014228
0.000143099
0.000171687
0.000160016
0.00220094
0.000134254
0.00054306
0.00013436
0.000142021
0.00166554
0.000153789
0.000906447
0.0001342
0.000155557
0.000174067
0.000150244
0.000153413
0.000168242
0.000140465
0.000168225
0.00574747
0.000158605
0.000696545
0.000144277
0.00237482
0.000147458
0.000140049
0.000145042
0.000192616
0.000148771
0.00017237
0.000141634
0.000144032
0.000130557
0.000154246
0.000135587
0.000184144
0.0023515
0.000163681
0.000135061
0.000143018
0.000148619
0.000167483
0.000155209
0.000250952
0.000160584
0.000141395
0.00210043
0.00015239
0.000153475
0.00304542
0.00024097
0.00638863
0.000172603
0.0018635
0.000244045
0.000146953
0.000141207
0.0359971
0.000147584
0.000140126
0.0290085
0.000143502
0.000194621
0.000204374
0.000140469
0.000238466
0.00422265
0.000142366
0.00190884
0.000155906
0.000241298
0.000140899
0.0166713
0.000203863
0.000146523
0.000392077
0.000131347
0.000167342
0.00187616
0.000140886
0.000153299
0.000145306
0.000177235
0.000134587
0.000138274
0.00014138
0.000150138
0.000140972
0.000139318
0.000158194
0.00014362
0.000135123
0.000198737
0.000160836
0.000434849
0.000435807
0.0442813
0.00536441
0.000155895
0.000147747
0.000192067
0.000149243
0.00149881
0.00014729
0.000150552
0.000147749
0.000130225
0.000151061
0.000159762
0.000150347
0.000457116
0.00014844
0.000141213
0.000328199
0.000143989
0.000150561
0.00016707
0.000143262
0.000147413
0.00024052
0.000192524
0.000137255
0.000134997
0.000143785
0.0002543
0.000139819
0.0434475
0.000137086
0.00391914
0.000143769
0.000154562
0.000163487
0.00014996
0.0439386
0.000146756
0.0032134
0.00014118
0.000137148
0.00014485
0.000146994
0.00025643
0.000152394
0.000148747
0.000131526
0.00303338
0.000159881
0.000155991
0.000146991
0.000141231
0.000162687
0.0001341
0.000166778
0.000179895
0.000262537
0.000160382
0.000134324
0.0041637
0.00195283
0.000167048
0.000145405
0.000154228
0.000827708
0.000134272
0.000202103
0.000253709
0.000148931
0.000240775
0.000155181
0.000148857
0.000137308
0.000150828
0.000146605
0.000165228
0.000146773
0.000143062
0.000140895
0.000253919
0.000275325
0.000143035
0.000147595
0.000268741
0.000220376
0.000182257
0.000130255
0.000218496
0.000155173
0.000147432
0.000159973
0.000139624
0.00178757
0.00148412
0.000188979
0.000161581
0.000164451
0.000199051
0.000212411
0.000196234
0.000139568
0.000143102
0.00014822
0.00013513
0.000154577
0.000156265
0.000140631
0.000146955
0.000172637
0.000140322
0.000193081
0.00869211
0.000168609
0.000147245
0.000161853
0.000135012
0.000169114
0.000146091
0.000161081
0.000148606
0.000160496
0.0053996
0.000137396
0.000175076
0.000151934
0.000160539
0.000214896
0.000145237
0.000134787
0.000189647
0.000146963
0.000248823
0.00015896
0.00151295
0.000170355
0.000189728
0.000155849
0.000175505
0.000143883
0.000153728
0.000161011
0.000175068
0.000337636
0.000268702
0.000142077
0.000155444
0.000217619
0.000162713
0.000142009
0.000140921
0.000140906
0.000177435
0.000266541
0.000363662
0.000468984
0.000171511
0.000155461
0.000321801
0.000131233
0.000146522
0.000155408
0.000144073
0.000166958
0.000146107
0.00221845
0.000135889
0.00172052
0.000143496
0.000148959
0.000156878
0.000212801
0.0405876
0.000165211
0.000531458
0.000149325
0.000140583
0.000143963
0.000162934
0.00348806
0.000140825
0.000145299
0.000581742
0.000148926
0.000140923
0.000219466
0.000159816
0.000140901
0.00014475
0.000162187
0.000151828
0.000162142
0.00013554
0.000145239
0.000148577
0.000324855
0.000446551
0.00013524
0.000140714
0.000196278
0.000140967
0.000148881
0.000338769
0.000449082
0.000177393
0.000143819
0.000149132
0.00020858
0.000149259
0.000225785
0.000153873
0.000136594
0.0001887
0.00020201
0.0001481
0.000144111
0.000157424
0.000146267
0.000156267
0.000143732
0.000198224
0.000146753
0.000152843
0.000143523
0.000140954
0.000153949
0.000149707
0.000187347
0.000368602
0.000586883
0.000154954
0.000220195
0.00018163
0.000143711
0.000145591
0.000172955
0.000143273
0.000179402
0.00014601
0.000164313
0.000326086
0.000235354
0.0424134
0.00019105
0.000130707
0.0172635
0.000148754
0.000140568
0.0108842
0.000143059
0.000179757
0.000137513
0.000189262
0.000143027
0.000190783
0.00415772
0.000186365
0.000144108
0.00013747
0.000187694
0.000152335
0.000143063
0.00195205
0.000756943
0.000140514
0.00017359
0.00018762
0.000137391
0.000150495
0.000163577
0.000534472
0.00017012
0.000148956
0.000144147
0.000168996
0.000144537
0.000136118
0.00014403
0.000276397
0.000357261
0.000136379
0.000152212
0.00014514
0.00021466
0.000203376
0.000134925
0.000179985
0.000167432
0.000145155
0.000254386
0.000195814
0.000148637
0.000145984
0.000168971
0.000215658
0.000686361
0.000136161
0.0357308
0.000142861
0.000136368
0.000172096
0.000152576
0.000200284
0.000171482
0.000153116
0.00016139
0.000149062
0.000218785
0.00015278
0.000160129
0.000149132
0.000135931
0.000147759
0.000136128
0.000195753
0.000349101
0.000189107
0.000158533
0.000147422
0.000149158
0.000146256
0.000155921
0.00014624
0.000135597
0.000143674
0.000169527
0.000137414
0.000146101
0.0171843
0.0426218
0.000220188
0.0001474
0.000151772
0.000163596
0.000148889
0.00128104
0.000256062
0.000154661
0.000155954
0.000161492
0.000150243
0.000153579
0.0156279
0.000162641
0.000148195
0.00676463
0.000146971
0.0424715
0.0262842
0.000155875
0.000150223
0.0177501
0.000140692
0.000189309
0.000178706
0.00590915
0.000152866
0.000147617
0.000145025
0.00398064
0.000382772
0.00553596
0.00452312
0.000155142
0.000144888
0.000155475
0.000143113
0.000153063
0.00462639
0.0048942
0.000368293
0.000320609
0.000166346
0.000175129
0.000169548
0.000141142
0.000142219
0.000169808
0.000156433
0.000146293
0.000143063
0.00272362
0.000139951
0.000328102
0.000157908
0.000194565
0.000210766
0.000142278
0.0001553
0.0430109
0.000143631
0.000402369
0.000143457
0.000228317
0.000162527
0.000149177
0.000169375
0.000195791
0.000192126
0.000150838
0.000134132
0.000167474
0.000156219
0.000194774
0.000143455
0.00019573
0.000139888
0.000251996
0.000148281
0.000143418
0.000233063
0.000170827
0.000237964
0.000146098
0.00015666
0.000157197
0.00227961
0.000361666
0.000154648
0.000197334
0.00014681
0.000161394
0.000148357
0.000154337
0.0211012
0.000136747
0.00052567
0.000147006
0.000147187
0.000154626
0.00107116
0.000153425
0.000193689
0.000150082
0.000167892
0.00412632
0.000131364
0.000140952
0.0445198
0.00016712
0.0218152
0.000171665
0.000148305
0.000143073
0.000142691
0.000159952
0.000149886
0.000136699
0.000238719
0.0305197
0.000143196
0.00358593
0.000550217
0.000158402
0.000239831
0.000136333
0.0161828
0.00567008
0.0001324
0.00422024
0.000171121
0.000266457
0.00313695
0.000143496
0.000142698
0.000149222
0.000267901
0.000176723
0.000144464
0.000148801
0.000239771
0.000148473
0.000172165
0.00014343
0.000169479
0.000466597
0.00361338
0.000285673
0.00291709
0.0001683
0.00055109
0.000155838
0.0001406
0.000159152
0.0030596
0.000176501
0.000174869
0.000144274
0.000391522
0.000145319
0.000148603
0.0111023
0.000150016
0.00015965
0.000205968
0.000188077
0.000144618
0.000142845
0.000154484
0.00015731
0.000134157
0.00014733
0.000171712
0.000239368
0.000152712
0.000145501
0.000170899
0.00459353
0.000143629
0.00263362
0.000252479
0.000145043
0.0108665
0.000134734
0.000242945
0.000143587
0.000138186
0.000232154
0.000153411
0.00035899
0.000152436
0.000142861
0.00737583
0.00014356
0.000134897
0.000145666
0.000140696
0.000160338
0.000166831
0.0410416
0.000152291
0.000406273
0.000154562
0.00274779
0.00792927
0.000150608
0.000143925
0.000156521
0.000136652
0.000205046
0.000142521
0.000134793
0.000135861
0.000144284
0.000143548
0.000247698
0.000159504
0.000176721
0.000152855
0.000155149
0.00015715
0.000165883
0.00148766
0.000137351
0.00019532
0.000172618
0.000134506
0.00589279
0.000316307
0.000142604
0.00261174
0.000146724
0.000386746
0.000167728
0.000132224
0.000167888
0.000158418
0.00265972
0.000143481
0.000154467
0.00423108
0.000197878
0.000237404
0.000143514
0.00350483
0.000190908
0.011307
0.000143462
0.000151755
0.000143046
0.000146209
0.000141883
0.00014618
0.000136752
0.00293551
0.000171696
0.000141234
0.000134274
0.000141208
0.000148755
0.000193805
0.000190518
0.000137384
0.000157484
0.000146962
0.000147184
0.000146059
0.000140813
0.000200972
0.000134312
0.000140266
0.000150125
0.000147192
0.000153204
0.000146602
0.000246031
0.00017704
0.00015484
0.00014011
0.00021369
0.000134688
0.000134369
0.000146439
0.000238265
0.000158225
0.00014534
0.000136106
0.000137149
0.000160925
0.000134031
0.0001635
0.000142417
0.000148293
0.000141794
0.000151569
0.00455917
0.000140545
0.000148754
0.000143488
0.000244709
0.00590493
0.000158691
0.0001499
0.000181922
0.00015893
0.000203431
0.00824735
0.000150282
0.005597
0.000148854
0.000299534
0.000148587
0.000136865
0.000136004
0.00281199
0.000135598
0.000159005
0.000193548
0.000223186
0.000174554
0.000154088
0.000142537
0.000144728
0.000143454
0.000160654
0.000205893
0.00104473
0.000175354
0.00014546
0.000134068
0.000155274
0.000141737
0.000140781
0.000148291
0.000176745
0.000167109
0.000351098
0.000145387
0.000144352
0.000171871
0.000143119
0.000215778
0.000175925
0.00016973
0.000215087
0.000433795
0.00016727
0.000141134
0.000134138
0.000147409
0.000142947
0.00429074
0.00017658
0.000203766
0.00013692
0.000146999
0.000155423
0.000141051
0.00753718
0.000337188
0.000134413
0.000135898
0.000143854
0.000141903
0.000140912
0.000144731
0.000238107
0.000135027
0.000148309
0.000136968
0.00013792
0.000142004
0.000145979
0.000162859
0.000137877
0.000169943
0.000136094
0.000437256
0.000238512
0.000156898
0.000236294
0.000154584
0.000148561
0.000189063
0.00226852
0.000144523
0.000140367
0.000137024
0.000192839
0.000151559
0.000167379
0.000311924
0.000146492
0.00014883
0.000144682
0.000303101
0.000652748
0.000152409
0.000139974
0.000157515
0.000170333
0.000142268
0.000192298
0.000140314
0.000134032
0.000155076
0.00243388
0.00488625
0.00074373
0.000238959
0.000134837
0.000216883
0.000194916
0.000159066
0.000143403
0.00019524
0.00015473
0.000259859
0.00504822
0.000142999
0.000134905
0.000144713
0.00014826
0.000135051
0.000161768
0.00118703
0.000134589
0.000146753
0.000149482
0.000169534
0.00014392
0.000141871
0.000197887
0.000148311
0.000142199
0.000314763
0.000201999
0.000196888
0.000142772
0.00013595
0.000134793
0.000145022
0.000165258
0.000181279
0.000140538
0.000139197
0.00015445
0.00401524
0.00013704
0.000143916
0.000190601
0.000140982
0.00013916
0.000143524
0.0323687
0.000135746
0.000144449
0.000137102
0.000154732
0.000135773
0.000157012
0.000216043
0.000143947
0.000242571
0.000161047
0.00023064
0.000183797
0.000140792
0.000160642
0.000140352
0.000139028
0.000140809
0.00456528
0.00632855
0.000206186
0.000159059
0.00308102
0.000190422
0.000149763
0.000204286
0.000215108
0.000154091
0.000135556
0.00583179
0.000149843
0.000141063
0.000138317
0.000255271
0.0333644
0.0342279
0.000138844
0.000198649
0.00570114
0.000167571
0.000171894
0.000156192
0.000155435
0.000166711
0.000382631
0.000153824
0.000149982
0.000158738
0.0294969
0.000246391
0.000143825
0.000148209
0.000143474
0.00027589
0.000156229
0.000149597
0.0032641
0.00015698
0.000174569
0.000156189
0.00246369
0.000138562
0.000295127
0.00014959
0.000135859
0.000141213
0.000135894
0.000135899
0.00014076
0.000148107
0.000253034
0.000138211
0.000294653
0.000158353
0.000147351
0.000141608
0.000200773
0.000143204
0.000146736
0.000156525
0.000901474
0.000209103
0.000153305
0.000146324
0.000298815
0.000138533
0.000172027
0.000146106
0.0317615
0.000172786
0.00631233
0.000157198
0.000143053
0.000228641
0.000494044
0.000363381
0.000137721
0.00014346
0.000169319
0.0172486
0.000130905
0.000178483
0.000141513
0.000162538
0.000140387
0.000134966
0.000148988
0.000149782
0.000135205
0.000174669
0.00016899
0.000157209
0.000212434
0.00885543
0.000150092
0.00214516
0.00013627
0.000204097
0.000266436
0.000223713
0.000134715
0.000150006
0.000145896
0.00078475
0.000146059
0.000140627
0.000197846
0.000146486
0.000146099
0.000151095
0.000149399
0.000142941
0.0267132
0.00766863
0.000187064
0.00013912
0.000145215
0.000230158
0.000136336
0.000409097
0.000147401
0.000145675
0.000148992
0.00015376
0.00023549
0.000140615
0.000145037
0.0423412
0.000147266
0.000148305
0.00016939
0.000275881
0.000505808
0.000144334
0.000143413
0.00627975
0.00351328
0.0374753
0.000142046
0.000166371
0.000227109
0.000137664
0.000199424
0.000153834
0.00409601
0.000154622
0.000145975
0.000149177
0.000135698
0.000325432
0.000144911
0.000139227
0.00544578
0.000191379
0.000261125
0.000135352
0.000151709
0.000135532
0.000131943
0.000136106
0.000149936
0.000146613
0.000149015
0.000135733
0.00014835
0.000177392
0.000164294
0.000169072
0.000140148
0.000156371
0.000141832
0.00443433
0.000147667
0.000148687
0.000149065
0.000136011
0.000148741
0.000145342
0.000144055
0.000143339
0.00014108
0.000136137
0.00203749
0.00205983
0.000144714
0.000320418
0.000167734
0.00015036
0.000147564
0.000149982
0.00209213
0.000147971
0.000136233
0.000134545
0.000134749
0.0441141
0.00014435
0.000136862
0.000250532
0.0001342
0.00013327
0.000186771
0.000197412
0.000203033
0.000216221
0.00871431
0.000136189
0.0130217
0.000156489
0.000143143
0.000136801
0.000161972
0.000143101
0.000160692
0.000185125
0.00015469
0.000151883
0.00361037
0.000254926
0.0370643
0.000336178
0.00350745
0.000209291
0.000139368
0.000255971
0.0320803
0.000135036
0.0144061
0.000138825
0.000150508
0.000211483
0.000140462
0.000471358
0.00015731
0.000152257
0.000149079
0.000215922
0.000143789
0.000307808
0.00014284
0.000136344
0.00223448
0.000133552
0.000148038
0.000148374
0.000181642
0.000142258
0.000144027
0.000152639
0.00198831
0.000144371
0.000144282
0.00013692
0.000153902
0.000142381
0.000150495
0.000239802
0.00014142
0.000157586
0.000147916
0.00015321
0.000156706
0.000140403
0.000148698
0.00020094
0.000147198
0.000147287
0.000157431
0.00217614
0.000149626
0.00014176
0.000143952
0.000160876
0.000202975
0.000151922
0.000140942
0.000141332
0.000137757
0.000131784
0.000135567
0.000159913
0.000195526
0.000182877
0.000146694
0.00162229
0.000139592
0.000148142
0.0127885
0.000175326
0.000134225
0.000195195
0.000150939
0.000140925
0.00439172
0.00014899
0.000171468
0.000132579
0.000220108
0.000139716
0.000134795
0.000136055
0.000265227
0.00021115
0.000146972
0.0014368
0.000135854
0.000142213
0.000138986
0.000211673
0.000146911
0.000138447
0.000149999
0.000151949
0.000142924
0.000145728
0.000140312
0.00014801
0.000146753
0.000140256
0.000156129
0.000135373
0.00889562
0.000188511
0.000136612
0.000275476
0.000157472
0.000140752
0.000139793
0.000151761
0.000140724
0.000161514
0.000155625
0.000197432
0.000204801
0.000148038
0.000190499
0.000221301
0.000143049
0.000147461
0.000197651
0.000154145
0.00229735
0.00013564
0.000143518
0.00015263
0.000147834
0.000142753
0.000157232
0.000140464
0.000151633
0.00014385
0.000153105
0.000139888
0.000204837
0.000144717
0.00015439
0.000194863
0.000143046
0.00417834
0.00470031
0.000156501
0.000162303
0.000159548
0.000134411
0.000185316
0.000145507
0.000166195
0.00407278
0.0274381
0.000202582
0.000153965
0.000162425
0.000142572
0.000161263
0.00013924
0.000298291
0.000192647
0.0001491
0.000140528
0.000241753
0.000169703
0.00014281
0.000143187
0.000262376
0.000147617
0.000138368
0.00368476
0.000181051
0.00013492
0.0015476
0.000136157
0.000216381
0.000182952
0.000142961
0.00014428
0.000157404
0.00052109
0.00014001
0.000157227
0.000144271
0.000142978
0.000139788
0.00335311
0.000148256
0.000145426
0.000143525
0.00028383
0.000157625
0.000140175
0.000133043
0.000204707
0.000142203
0.000136893
0.000191276
0.00041261
0.000148662
0.000246547
0.000157666
0.000177231
0.000151376
0.000184713
0.004568
0.000148144
0.000143678
0.000137132
0.000154664
0.000142808
0.00422971
6.38632e-05
0.000137456
0.000149419
0.000136471
0.0001357
0.0250128
0.0001429
0.000152253
0.000151714
0.000210065
0.000144499
0.000147775
0.000155644
0.00455712
0.000146434
0.00014549
0.000137441
0.000138422
0.000154239
0.000175201
0.000146993
0.000142101
0.000145005
0.000143539
0.000137179
0.0169817
0.000148342
0.000143281
0.000141833
0.000184978
0.000136583
0.000136911
0.000167538
0.000142203
0.000190819
0.000144017
0.000144423
0.00178934
0.0304063
0.0105908
0.000202066
0.000157884
0.000148247
0.000467024
0.000139615
0.000155668
0.000135316
0.0026741
0.000130393
0.000154515
0.000144598
0.00763549
0.000172181
0.000206683
0.000390627
0.000150336
0.000187284
0.000147853
0.000149737
0.0334943
0.000167251
0.000142127
0.000136102
0.000153519
0.000163166
0.000143976
0.000145001
0.000139591
0.000135087
0.000239892
0.00408215
0.000147934
0.000151408
0.000282741
0.0100318
0.000153144
0.000150444
0.000152394
0.000154793
0.000142339
0.000151112
0.000276158
0.000140269
0.000136359
0.000146101
0.00029585
0.00028149
0.000156482
0.000146711
0.000147035
0.00015752
0.000143609
0.000158044
0.000170455
0.000237347
0.000156458
0.00212105
0.000134701
0.00014284
0.000148255
0.000135515
0.000146937
0.00014006
0.000225283
0.000140874
0.00114369
0.000145362
0.000139053
0.000137644
0.000202544
0.000151421
0.000175081
0.000182114
0.000136309
0.000152442
0.000158935
0.000138169
0.000133497
0.00510366
0.000258806
0.000133755
0.000140334
0.000140844
0.000150909
0.000225347
0.000290873
0.000150614
0.00014827
0.000214622
0.000378009
0.000149387
0.000142593
0.00027259
0.000153872
0.000389259
0.000155011
0.000142329
0.000186234
0.000181774
0.0333501
0.000188485
0.00444045
0.000136963
0.000142221
0.000150209
0.000146443
0.000153723
0.000147771
0.000146091
0.00013947
0.000148065
0.000147096
0.000145646
0.000145514
0.000152063
0.000149298
0.000143547
0.000141574
0.000182412
0.00016398
0.000140351
0.00014526
0.000238229
0.000145081
0.000148449
0.000148928
0.00670994
0.00013693
0.000170703
0.000150603
0.000136096
0.000143198
0.000324468
0.000260437
0.000149449
0.000147671
0.000154309
0.000169318
0.000140039
0.00015872
0.000178143
0.00014119
0.000207071
0.000140776
0.000143162
0.000142985
0.000147558
0.000161322
0.000243035
0.00532935
0.000192426
0.00013634
0.000144906
0.000143435
0.000204883
0.000148895
0.00257819
0.000139727
0.000143763
0.00014344
0.000192243
0.000142599
0.000146473
0.000144052
0.000216485
0.000137006
0.0117737
0.000137069
0.000176422
0.000144878
0.00016198
0.000140749
0.000153438
0.00476575
0.000232284
0.000136372
0.000184378
0.000145255
0.000148026
0.0442882
0.00446984
0.000136262
0.000142726
0.000154153
0.000135968
0.000143489
0.000148357
0.000147519
0.000160251
0.000180298
0.000149964
0.000157967
0.000225341
0.000147478
0.00014078
0.000142107
0.000155018
0.000160787
0.000144087
0.020522
0.000140469
0.000413676
0.000169385
0.000136659
0.000140281
0.000140017
0.000272068
0.000146188
0.000155727
0.000146484
0.00014096
0.00422031
0.000151232
0.00017918
0.000147184
0.000145475
0.000151352
0.000143253
0.000151351
0.000143394
0.000152645
0.000149187
0.000149124
0.00218747
0.00016838
0.00454196
0.000140853
0.000189863
0.000150643
0.00554331
0.000188084
0.00795711
0.000152166
0.000135009
0.000172818
0.000143407
0.00434045
0.000149561
0.000215262
0.000151366
0.000328869
0.0179539
0.00015384
0.000179976
0.000139307
0.000137482
0.000148484
0.000134751
0.000147824
0.000152361
0.000139417
0.000160364
0.000163143
0.00521536
0.000140656
0.000260987
0.000134628
0.00014243
0.000143731
0.000199393
0.00014702
0.000232733
0.000148078
0.000143292
0.00118527
0.00014021
0.00015514
0.000142203
0.000156282
0.00583895
0.000163809
0.0402258
0.000144757
0.000186909
0.000152167
0.000141729
0.000143738
0.000188905
0.00016494
0.000143053
0.000151469
0.000143118
0.00201422
0.000139066
0.00030145
0.000263657
0.000190908
0.000157164
0.000221342
0.00019178
0.000134749
0.000516449
0.000142382
0.000288131
0.000148856
0.000151501
0.00621522
0.00608225
0.000157987
0.000341062
0.000143516
0.00512254
0.000131127
0.00733149
0.000135185
0.000152037
0.000216264
0.000145974
0.000139056
0.000149362
0.000144224
0.000182557
0.00407871
0.000164849
0.00300203
0.000142251
0.00528238
0.000144335
0.000147199
0.00014299
0.000146509
0.00425286
0.000147109
0.000138043
0.000168905
0.000148086
0.00579161
0.000191056
0.00014293
0.00018509
0.000167073
0.000140415
0.000144721
0.000155373
0.000136674
0.000182156
0.000160026
0.000152672
0.000153142
0.000137192
0.000147647
0.000183942
0.000149742
0.000144858
0.000150057
0.000134936
0.00013582
0.0301592
0.000160262
0.000369586
0.000158863
0.00018038
0.000163324
0.000141997
0.000164186
0.000138909
0.000140719
0.00075968
0.000164938
0.000161902
0.000177863
0.000148716
0.00024509
0.00228286
0.000143259
0.000162738
0.000196909
0.00120069
0.000136516
0.000138135
0.00014758
0.000181013
0.00367076
0.000164447
0.00015377
0.000148875
0.000142035
0.000135394
0.000582499
0.000155965
0.000152457
0.00435213
0.00014678
0.000153292
0.000156786
0.000144977
0.000142789
0.000142874
0.000180606
0.000212048
0.000149133
0.000153961
0.000249364
0.000142148
0.000149306
0.000153981
0.000146676
0.00757
0.00584031
0.000297652
0.000196128
0.00616116
0.000151914
0.000139799
0.000261967
0.000151844
0.000160218
0.000142869
0.000135352
0.0055348
0.000164937
0.000141378
0.00013946
0.000159085
0.000446082
0.000156607
0.000135307
0.0153656
0.00015202
0.000169063
0.000134948
0.000163763
0.000131048
0.000152514
0.000158914
0.000142041
0.0239531
0.000149001
0.00016848
0.000209626
0.00519669
0.00020105
0.000142202
0.000185916
0.000154985
0.000161665
0.000150884
0.00014983
0.000145274
0.000151598
0.000836461
0.000151653
0.000977385
0.000139851
0.000227336
0.000136002
0.0001487
0.00026948
0.000155271
0.000226538
0.000157364
0.000149428
0.0102459
0.0165596
0.000140036
0.000487907
0.000169237
0.000138812
0.000134045
0.0359843
0.000364154
0.000138874
0.000136242
0.000143756
0.00013693
0.000480039
0.000251405
0.000130209
0.000133277
0.000139954
0.000239277
0.000176764
0.00521801
0.000135895
0.000264855
0.00014708
0.000184112
0.0404689
0.000164439
0.000139573
0.00013986
0.00574967
0.000136757
0.000141202
0.000136664
0.000165637
0.000152102
0.0298154
0.000160267
0.00014862
0.000142389
0.000158148
0.000227865
0.000182711
0.000141683
0.000141838
0.000221314
0.000178962
0.000148378
0.00602857
0.000165049
0.000152962
0.0122595
0.000151492
0.000158211
0.000148247
0.000321347
0.000145279
0.000148538
0.0445587
0.00015967
0.000141133
0.000143272
0.000131091
0.00018199
0.000215098
0.000140995
0.000136114
0.000150392
0.000186727
0.000154494
0.00013511
0.000142782
0.000139157
0.000158802
0.000173363
0.000145415
0.000142514
0.0451272
0.000141935
0.000454317
0.000162469
0.000163201
0.000155142
0.000150704
0.000144982
0.000374462
0.000199674
0.000188849
0.0260132
0.000161764
0.000140105
0.000313974
0.000136358
0.000190949
0.000381451
0.000157945
0.000141787
0.00015379
0.000191913
0.000142697
0.000142847
0.000597549
0.00014285
0.00015347
0.000140832
0.000147305
0.000137381
0.000186966
0.000207772
0.000136049
0.00014102
0.0113663
0.000142602
0.000136738
0.000140815
0.000140537
0.00120187
0.000172137
0.000153122
0.000153721
0.000149033
0.000137716
0.000185013
0.000200376
0.000158119
0.000257433
0.000154997
0.000154421
0.0270088
0.000140113
0.00013627
0.000143162
0.000140379
0.000148576
0.000132775
0.00014918
0.000374768
0.000144915
0.000141755
0.000156054
0.000140527
0.00306359
0.000147533
0.0353317
0.00023392
0.000180407
0.000162146
0.00201036
0.00015947
0.000142979
0.000155022
0.00014045
0.000151904
0.000146973
0.000148598
0.000311852
0.000135916
0.000143743
0.000173636
0.000277813
0.000147699
0.000139757
0.000227423
0.000150953
0.00018996
0.000143007
0.000139888
0.000145474
0.020216
0.00014613
0.000269801
0.000180967
0.000153048
0.000139667
0.000143136
0.000161141
0.00361214
0.000136096
0.00017827
0.000141751
0.0345018
0.000238387
0.000149488
0.000222731
0.000146082
0.000153243
0.000155111
0.000256107
0.000172428
0.000161483
0.000163287
0.00595382
0.000147989
0.000180715
0.000144532
0.000168114
0.000220014
0.000239414
0.000142499
0.000163286
0.00521885
0.00256678
0.000154351
0.000154006
0.00567605
0.00563827
0.000140209
0.000181414
0.000143161
0.000155874
0.000146224
0.000152641
0.000151884
0.000497447
0.00014772
0.000148069
0.00018382
0.00618816
0.000219476
0.000212118
0.00318495
0.000139756
0.00564574
0.000186874
0.00014217
0.000141756
0.00543009
0.000157779
0.000145102
0.000142578
0.000169679
0.000138616
0.000142795
0.000380571
0.000145472
0.000148122
0.000141071
0.000143815
0.000151011
0.000139222
0.0254711
0.000179239
0.000154086
0.000139227
0.000164643
0.00034322
0.000142187
0.000147254
0.004932
0.000232496
0.00014341
0.000154522
0.000138691
0.000140379
0.000203356
0.000223431
0.000140417
0.000143154
0.00556802
0.003572
0.010729
0.000193211
0.000150549
0.00279257
0.000140629
0.000155615
0.000154216
0.000139645
0.0444504
0.0103192
0.000170507
0.00019157
0.00127262
0.000134063
0.00013324
0.000153031
0.000165526
0.00503799
0.000136537
0.000165859
0.0127212
0.000279698
0.000147008
0.000150838
0.00025357
0.000142632
0.000154438
0.00284765
0.000140821
0.000142543
0.000139342
0.000244588
0.000141551
0.000164603
0.000149323
0.000212474
0.000162651
0.00574052
0.000143016
0.000142162
0.00016791
0.000148006
0.000163456
0.000149367
0.000203607
0.00020893
0.000140755
0.000144434
0.00398263
0.000277595
0.00664639
0.000139037
0.000143325
0.000155451
0.00014525
0.000143095
0.000144014
0.000146072
0.000148481
0.000139574
0.000139578
0.000183523
0.000154835
0.000168489
0.00799192
0.00018839
0.000178759
0.000157312
0.000200718
0.000239115
0.000162528
0.000157719
0.000159269
0.000141638
0.000609501
0.000136153
0.000135813
0.000140481
0.00448482
0.000142181
0.00463579
0.000148578
0.000134964
0.000178386
0.000142853
0.000142244
0.000142805
0.000194693
0.000531639
0.000147157
0.000139643
0.000151336
0.00295443
0.000178313
0.00571085
0.000142853
0.000179749
0.000146214
0.000145658
0.000136347
0.000138848
0.000143333
0.000157241
0.00112181
0.000152329
0.000153064
0.000210541
0.0117429
0.000210908
0.000141877
0.000204809
0.000165131
0.00332633
0.000137918
0.000142551
0.000158759
0.00248254
0.000132485
0.000144631
0.0001388
0.000136672
0.000210777
0.000153152
0.000185446
0.000144738
0.000132268
0.000180633
0.000143991
0.00759578
0.000144896
0.000167173
0.000147917
0.000158408
0.00014923
0.000186042
0.00551765
0.00014247
0.000182361
0.0010208
0.000141664
0.000146714
0.00017318
0.000131981
0.0110716
0.000199066
0.000142704
0.000184175
0.000134417
0.000146184
0.000149799
0.000142753
0.000136646
0.000149719
0.000140676
0.000138739
0.000145183
0.000148623
0.000178131
0.000136295
0.000226477
0.000138348
0.000140366
0.000159606
0.000176917
0.000149731
0.000132095
0.000142439
0.000154083
0.000175687
0.00123737
0.000165538
0.00014893
0.000148877
0.000139401
0.000161935
0.000140663
0.000152394
0.000293336
0.000241216
0.000176328
0.000141352
0.00014811
0.000149688
0.00013223
0.000195083
0.000134836
0.000224918
0.000149145
0.000242303
0.000157862
0.000295808
0.000146883
0.000188806
0.0327824
0.00725972
0.00281615
0.000155921
0.00389856
0.000276191
0.000148549
0.000166775
0.000316409
0.000139373
0.000138984
0.000143859
0.000154752
0.00017494
0.000145977
0.000156803
0.00430329
0.000130233
0.000144569
0.000263287
0.00166303
0.000199468
0.00346527
0.00429111
0.000149754
0.000183022
0.000154839
0.000155851
0.000635995
0.000154389
0.0230905
0.00021975
0.00015358
0.000145859
0.000152611
0.000161397
0.000139719
0.013764
0.00013238
0.000142833
0.00014325
0.00472322
0.0296813
0.000213786
0.000145028
0.000151628
0.000138865
0.00043403
0.000144324
0.000148669
0.00015331
0.000199064
0.000138602
0.000193828
0.0356158
0.00359935
0.000148027
0.000707676
0.000139899
0.00051723
0.000132765
0.000253354
0.00014912
0.000186188
0.000162287
0.0114618
0.000225667
0.000152537
0.000150533
0.000199236
0.000155076
0.000141819
0.000138673
0.000158597
0.000148681
0.00334995
0.000131628
0.00014287
0.000144185
0.000143751
0.0018077
0.000139205
0.000134598
0.00014656
0.000443742
0.000161901
0.000182732
0.000152188
0.000150908
0.00019738
0.000139963
0.000143131
0.000191859
0.000174923
0.000134614
0.000165721
0.000151998
0.00471822
0.000142689
0.000296832
0.0001488
0.000143129
0.000135301
0.000134918
0.000142281
0.00014132
0.000664662
0.000187646
0.000146992
0.000143053
0.000142235
0.000152978
0.000158478
0.000339195
0.000146192
0.000199585
0.000164786
0.00583812
0.00014768
0.00017487
0.000143008
0.000142712
0.000163144
0.000142579
0.000145744
0.000140681
0.00013611
0.000315409
0.000143518
0.000139149
0.000205695
0.00434052
0.00019856
0.000146754
0.000134884
0.000154147
0.0405351
0.000152765
0.000147718
0.000146531
0.000530471