/*--------------------------------*- C++ -*----------------------------------*\
| =========                 |                                                 |
| \\      /  F ield         | OpenFOAM: The Open Source CFD Toolbox           |
|  \\    /   O peration     | Version:  v2012                                 |
|   \\  /    A nd           | Website:  www.openfoam.com                      |
|    \\/     M anipulation  |                                                 |
\*---------------------------------------------------------------------------*/
FoamFile
{
    version     2.0;
    format      ascii;
    class       volScalarField;
    location    "100";
    object      k_0;
}
// * * * * * * * * * * * * * * * * * * * * * * * * * * * * * * * * * * * * * //

dimensions      [0 2 -2 0 0 0 0];


internalField   nonuniform List<scalar> 
18355
(
0.032133
0.000136994
0.000241237
0.000140868
0.000197066
0.000384335
0.000146741
0.000205434
0.000152185
0.00316248
0.000160247
0.000206048
0.00020769
0.00350321
0.000142862
0.000135469
0.000140856
0.000157338
0.000234772
0.000152424
0.0131938
0.000149052
0.000136918
0.000343412
0.000136994
0.000149983
0.00014693
0.00014096
0.000152959
0.000161879
0.00064447
0.000177866
0.000137659
0.000134333
0.000146721
0.000148843
0.000158854
0.000149109
0.000162741
0.000149223
0.000151178
0.000161295
0.000134478
0.000136815
0.000136913
0.000238812
0.000141088
0.000140975
0.00095642
0.000144295
0.000142926
0.0280186
0.000144553
0.000232033
0.000143065
0.000152383
0.000146558
0.000563924
0.000150286
0.000441246
0.00013443
0.000195738
0.000229412
0.000145432
0.000184359
0.000140819
0.000153817
0.000158906
0.000134095
0.00439819
0.000142282
0.0001431
0.000171727
0.00016001
0.00216948
0.000134254
0.000544868
0.00013436
0.000142022
0.00164037
0.000153796
0.000892331
0.0001342
0.000155569
0.000174014
0.000150244
0.000153413
0.000168207
0.000140465
0.00016819
0.00581328
0.000150553
0.000685585
0.00014428
0.00235329
0.000147459
0.000140048
0.00014504
0.000192561
0.000148773
0.000172325
0.000141635
0.000144034
0.000130557
0.000154255
0.000135587
0.000184183
0.0023308
0.000163663
0.000135062
0.000143017
0.000148618
0.00016751
0.000155222
0.000250969
0.000160607
0.000141396
0.00206809
0.000152397
0.00015348
0.00307933
0.000241009
0.0064429
0.000172554
0.00183452
0.00024409
0.000146954
0.000141207
0.0361989
0.000147585
0.000140125
0.029329
0.000143502
0.000194582
0.000204191
0.000140468
0.000238452
0.00421691
0.000142366
0.00178793
0.000155905
0.000241028
0.000140899
0.0169573
0.000203682
0.000146523
0.000388206
0.000131347
0.000167369
0.00188539
0.000140886
0.000153305
0.000145303
0.000177223
0.000134588
0.000138274
0.000141381
0.000150138
0.000140973
0.000139318
0.000158193
0.00014362
0.000135123
0.000198729
0.000160833
0.000451289
0.000430301
0.0443728
0.0051123
0.000155893
0.000147746
0.000192029
0.000149243
0.00159897
0.000147289
0.000150552
0.000147748
0.000130225
0.000151061
0.000159786
0.000150347
0.000473157
0.000148442
0.000141213
0.000327239
0.000143992
0.000150561
0.00016704
0.000143262
0.000147416
0.000240584
0.000192471
0.000137255
0.000134997
0.000143785
0.000254357
0.000139818
0.0435244
0.000137087
0.00404794
0.000143771
0.000154553
0.000163495
0.000149961
0.0440443
0.000146757
0.00306121
0.00014118
0.000137149
0.000144852
0.000146994
0.000256578
0.000152398
0.000148749
0.000131526
0.00315658
0.000159907
0.000155987
0.000146992
0.000141232
0.000162672
0.0001341
0.000166752
0.000179872
0.000261954
0.000160388
0.000134324
0.00415995
0.00196156
0.000167085
0.000145403
0.000154237
0.000863307
0.000134272
0.000202152
0.000253969
0.000148931
0.000240805
0.000155178
0.000148858
0.000137308
0.000150828
0.000146603
0.000165263
0.000146774
0.000143062
0.000140895
0.000253802
0.000275066
0.000143036
0.000147595
0.000268625
0.000220359
0.000182229
0.000130255
0.000218409
0.00015517
0.000147432
0.000159974
0.000139623
0.00181103
0.00148194
0.000188928
0.000161574
0.000164459
0.000199085
0.000212405
0.000196173
0.000139568
0.000143103
0.000148226
0.000135131
0.000154568
0.000156261
0.000140632
0.000146956
0.000172625
0.000140321
0.000192971
0.00871974
0.000168598
0.000147245
0.000161877
0.000135012
0.000169079
0.000146092
0.000161111
0.000148606
0.000160524
0.00542533
0.000137396
0.000175053
0.00015194
0.000160555
0.000214856
0.000145237
0.000134787
0.00018954
0.000146964
0.000248363
0.000158953
0.00146758
0.000170319
0.000189676
0.000155842
0.0001755
0.000143884
0.000153726
0.000161004
0.000175044
0.000343085
0.000268574
0.000142077
0.000155459
0.000217522
0.000162738
0.00014201
0.000140921
0.000140906
0.000177422
0.000266658
0.000366058
0.000479405
0.000171497
0.00015546
0.000321668
0.000131233
0.000146522
0.000155407
0.000144073
0.000166996
0.000146107
0.00227781
0.000135888
0.00169089
0.000143497
0.000148957
0.00015687
0.000212808
0.0407158
0.000165247
0.000541751
0.000149326
0.000140582
0.000143963
0.00016294
0.00351614
0.000140825
0.000145299
0.000581282
0.000148928
0.000140923
0.000219457
0.000159819
0.000140901
0.000144748
0.000162219
0.000151828
0.000162173
0.00013554
0.000145239
0.000148579
0.000323084
0.00044722
0.00013524
0.000140714
0.000196393
0.000140968
0.000148881
0.000337597
0.000449086
0.000177377
0.000143819
0.000149132
0.00020859
0.000149259
0.000225653
0.000153871
0.000136594
0.00018865
0.000202114
0.000148101
0.000144111
0.00015742
0.000146267
0.000156278
0.000143732
0.000198306
0.00014675
0.000152848
0.000143522
0.000140954
0.000153939
0.000149711
0.000187324
0.000368344
0.000583825
0.000154964
0.000220178
0.00018157
0.000143711
0.000145591
0.000172934
0.000143273
0.000179371
0.00014601
0.000164307
0.000325507
0.000233938
0.0425299
0.000190991
0.000130707
0.0182125
0.000148756
0.000140568
0.0103652
0.00014306
0.00017973
0.000137513
0.000189304
0.000143028
0.000190746
0.00413478
0.00018632
0.000144107
0.00013747
0.000187646
0.000152341
0.000143061
0.00197711
0.000755505
0.000140514
0.00017357
0.000187596
0.000137391
0.000150495
0.00016361
0.000579756
0.00017009
0.000148957
0.000144147
0.000168979
0.000144537
0.000136118
0.000144028
0.000275381
0.000357021
0.000136379
0.000152213
0.00014514
0.000214667
0.000203449
0.000134924
0.000179958
0.000167402
0.000145155
0.000254414
0.000195797
0.000148639
0.000145984
0.000168943
0.00021567
0.000670468
0.000136161
0.0357033
0.00014286
0.000136368
0.000172054
0.000152583
0.000200319
0.00017152
0.000153121
0.000161382
0.000149064
0.000218782
0.000152787
0.000160122
0.000149134
0.000135931
0.00014776
0.000136128
0.000195731
0.000349204
0.000189156
0.000158528
0.00014742
0.00014916
0.000146255
0.000155914
0.000146239
0.000135598
0.000143674
0.000169492
0.000137415
0.000146099
0.0169329
0.0426836
0.000220081
0.000147401
0.000151773
0.000163629
0.000148891
0.00127762
0.000255828
0.000154678
0.000155969
0.000161478
0.000150245
0.00015358
0.0153679
0.00016263
0.000148202
0.00679827
0.000146971
0.042561
0.027148
0.000155871
0.000150223
0.0174779
0.000140692
0.000189273
0.000178738
0.00590462
0.000152873
0.000147617
0.000145025
0.00397895
0.000371068
0.00553151
0.00452569
0.000155134
0.000144888
0.000155487
0.000143114
0.000153068
0.00433559
0.0049897
0.000368504
0.000321069
0.000166357
0.000175179
0.000169575
0.000141143
0.000142219
0.00016981
0.000156411
0.000146294
0.000143064
0.00268003
0.00013995
0.000328211
0.000157919
0.000194536
0.000210777
0.000142278
0.000155313
0.0431621
0.000143631
0.000402776
0.000143457
0.000232436
0.000162516
0.000149177
0.0001694
0.000195734
0.000192062
0.00015084
0.000134132
0.000167459
0.000156215
0.000194744
0.000143455
0.000195716
0.000139888
0.000251818
0.000148281
0.000143419
0.000233051
0.000170877
0.000238348
0.000146097
0.000156679
0.000157205
0.00233065
0.000363005
0.000154647
0.000197293
0.000146809
0.000161418
0.000148358
0.000154336
0.0209292
0.000136747
0.000521709
0.000147006
0.000147187
0.000154627
0.00106935
0.000153415
0.000193558
0.00015008
0.00016788
0.00409222
0.000131365
0.000140952
0.0446007
0.00016709
0.0215493
0.000171709
0.000148304
0.000143073
0.000142693
0.000159946
0.000149888
0.0001367
0.000238369
0.0307449
0.000143197
0.0038586
0.000676717
0.000158408
0.000239841
0.000136333
0.016333
0.00566536
0.000132401
0.00417854
0.000171103
0.000266482
0.00317527
0.000143494
0.000142699
0.000149222
0.000265732
0.000176709
0.000144463
0.000148801
0.000239394
0.000148475
0.000172145
0.000143432
0.000169463
0.000471128
0.00360872
0.000285399
0.00291575
0.000168265
0.00055229
0.000155854
0.0001406
0.000159175
0.00308873
0.000176505
0.000174859
0.000144273
0.00040533
0.000145319
0.000148601
0.0120211
0.000150016
0.000159675
0.000206352
0.000187977
0.000144618
0.000142845
0.000154486
0.000157332
0.000134157
0.000147323
0.000171739
0.000239297
0.000152716
0.000145501
0.000170857
0.00456703
0.000143629
0.00263302
0.000252505
0.000145043
0.0109195
0.000134734
0.000242925
0.000143587
0.000138187
0.000232159
0.00015342
0.000346198
0.000152439
0.000142861
0.00742751
0.00014356
0.000134897
0.000145666
0.000140697
0.000160364
0.000166801
0.0412137
0.000152291
0.000406413
0.000154567
0.00275307
0.00794967
0.000150609
0.000143925
0.000156539
0.000136652
0.000205027
0.000142521
0.000134793
0.000135861
0.000144283
0.000143548
0.000247697
0.0001595
0.000176695
0.00015284
0.00015516
0.000157148
0.000165888
0.00148244
0.000137352
0.000195302
0.000172571
0.000134505
0.0059641
0.000292682
0.000142603
0.00260843
0.000146724
0.000388989
0.000167716
0.000132224
0.000167872
0.000158439
0.00266957
0.00014348
0.000154465
0.00422262
0.000197812
0.000237709
0.000143514
0.00352084
0.000190901
0.0114235
0.000143462
0.000151756
0.000143044
0.000146209
0.000141883
0.000146179
0.000136752
0.00294236
0.000171694
0.000141234
0.000134274
0.000141207
0.000148756
0.000193744
0.000190507
0.000137384
0.000157504
0.00014696
0.000147182
0.000146057
0.000140813
0.000201125
0.000134313
0.000140266
0.000150126
0.000147193
0.000153187
0.000146599
0.000246097
0.000176312
0.000154839
0.00014011
0.000213704
0.000134688
0.000134369
0.000146437
0.000238494
0.000158222
0.000145339
0.000136106
0.000137149
0.000160921
0.000134031
0.000163491
0.000142417
0.000148295
0.000141795
0.00015157
0.00468777
0.000140545
0.000148756
0.000143488
0.000244722
0.00590171
0.000158685
0.000149902
0.000181866
0.000158937
0.000203569
0.00801882
0.000150284
0.00559191
0.000148855
0.000300133
0.00014859
0.000136865
0.000136004
0.00278121
0.000135599
0.000158999
0.000193519
0.00022318
0.0001746
0.000154088
0.000142537
0.000144727
0.000143453
0.000160647
0.000205853
0.00110176
0.000175321
0.000145459
0.000134068
0.000155275
0.000141737
0.000140782
0.000148292
0.000176719
0.000167122
0.00035034
0.000145387
0.000144352
0.000171899
0.000143119
0.00021579
0.000175893
0.00016969
0.00021506
0.000427687
0.000167275
0.000141135
0.000134138
0.000147409
0.000142947
0.00431487
0.000176564
0.000203747
0.000136919
0.000147
0.000155432
0.000141052
0.00733508
0.000336668
0.000134413
0.000135898
0.000143854
0.000141903
0.000140912
0.000144729
0.000238097
0.000135027
0.000148316
0.000136967
0.00013792
0.000142004
0.000145979
0.000162846
0.000137877
0.000169983
0.000136095
0.000438435
0.000238534
0.00015689
0.000235711
0.000154574
0.000148562
0.000189036
0.00228051
0.000144523
0.000140367
0.000137024
0.000192772
0.000151559
0.000167382
0.000311138
0.000146493
0.000148839
0.000144682
0.000303172
0.00066344
0.00015241
0.000139974
0.000157493
0.000170297
0.000142268
0.000192237
0.000140314
0.000134032
0.000155075
0.00237849
0.00489315
0.000774238
0.000239001
0.000134837
0.000216922
0.000194936
0.000159041
0.000143402
0.000195244
0.000154749
0.000260026
0.00496521
0.000142998
0.000134905
0.000144712
0.00014826
0.000135051
0.000159704
0.00121717
0.00013459
0.000146753
0.000149484
0.000169519
0.00014392
0.00014187
0.00019772
0.000148317
0.000142199
0.000316126
0.000201956
0.000196853
0.000142772
0.00013595
0.000134793
0.000145021
0.000165288
0.000181212
0.000140537
0.000139198
0.00015446
0.00402785
0.00013704
0.000143916
0.000190539
0.000140982
0.00013916
0.000143524
0.0319882
0.000135745
0.000144448
0.000137102
0.000154731
0.000135772
0.00015701
0.000216028
0.000143947
0.000242587
0.000161035
0.000230654
0.000183755
0.000140792
0.000160614
0.000140352
0.000139028
0.000140809
0.00456428
0.0063665
0.000206176
0.000159053
0.00310013
0.000190398
0.000149767
0.000204244
0.000215017
0.000154071
0.000135556
0.00613014
0.000149843
0.000141063
0.000138317
0.000255321
0.0335539
0.0344277
0.000138844
0.000198632
0.00569619
0.00016761
0.000171895
0.000156201
0.000155443
0.000166699
0.000376987
0.000153821
0.000149982
0.000158745
0.0302626
0.000246402
0.000143824
0.000148209
0.000143473
0.000275933
0.000156219
0.000149595
0.00328846
0.000156978
0.000174596
0.000156198
0.00249238
0.000138563
0.000295011
0.000149591
0.000135859
0.000141213
0.000135893
0.000135899
0.000140759
0.000148108
0.000253174
0.000138211
0.000294827
0.000158347
0.000147351
0.000141607
0.00020073
0.000143203
0.000146734
0.000156543
0.000879411
0.000209058
0.000153313
0.000146325
0.000298742
0.000138533
0.000171984
0.000146107
0.032013
0.000172792
0.0063183
0.000157206
0.000143052
0.000228464
0.000490332
0.000362734
0.000137721
0.00014346
0.000169306
0.017084
0.000130905
0.000178446
0.000141512
0.000162533
0.000140386
0.000134966
0.000148991
0.000149784
0.000135205
0.000174696
0.000169028
0.00015723
0.000212428
0.00906186
0.000150094
0.00216437
0.00013627
0.000204083
0.000266479
0.000223703
0.000134714
0.000150002
0.000145897
0.000770933
0.000146058
0.000140627
0.000197827
0.000146486
0.000146099
0.000151095
0.0001494
0.000142941
0.0275645
0.00767087
0.000187032
0.00013912
0.000145215
0.000230086
0.000136337
0.000407737
0.000147398
0.000145676
0.000148992
0.000153761
0.00023551
0.000140614
0.000145036
0.0423324
0.000147266
0.000148306
0.000169378
0.000275903
0.000499178
0.000144333
0.000143415
0.00619821
0.00353123
0.0376014
0.000142039
0.00016636
0.000227124
0.000137665
0.000199618
0.000153831
0.00409392
0.000154632
0.000145976
0.00014918
0.000135698
0.000325689
0.000144911
0.000139227
0.00544786
0.000191393
0.000264123
0.000135352
0.000151714
0.000135532
0.000131943
0.000136106
0.000149927
0.000146613
0.000149016
0.000135733
0.000148351
0.000177355
0.000164288
0.000169135
0.000140149
0.000156367
0.000141832
0.00447214
0.000147663
0.000148692
0.000149065
0.000136011
0.000148743
0.00014534
0.000144054
0.000143338
0.000141081
0.000136137
0.00203595
0.0020596
0.000144713
0.000321122
0.000167717
0.000150361
0.000147564
0.000149984
0.00209768
0.000147964
0.000136234
0.000134546
0.000134748
0.0442254
0.000144349
0.000136862
0.000250607
0.0001342
0.00013327
0.000186904
0.000197598
0.000203013
0.00021621
0.00853457
0.000136189
0.0127629
0.000156487
0.000143142
0.000136801
0.000161972
0.000143101
0.000160681
0.000185084
0.000154686
0.000151884
0.00403494
0.000255551
0.0370649
0.00033407
0.00350974
0.000209363
0.000139367
0.000256112
0.0315227
0.000135036
0.0141772
0.000138826
0.00015051
0.00021149
0.000140461
0.000470308
0.000157327
0.000152263
0.000149083
0.000216226
0.000143789
0.000310226
0.00014284
0.000136344
0.00224908
0.000133552
0.000148032
0.000148374
0.000181604
0.000142258
0.000144027
0.000152646
0.00199769
0.00014437
0.000144281
0.00013692
0.000153904
0.000142381
0.000150497
0.0002393
0.00014142
0.000157581
0.000147918
0.000153219
0.00015668
0.000140403
0.000148699
0.000200923
0.000147196
0.000147287
0.000157456
0.0021744
0.000149636
0.000141759
0.000143952
0.000160848
0.000202958
0.000151922
0.000140942
0.000141332
0.000137757
0.000131784
0.000135567
0.000159921
0.000195622
0.000182839
0.000146694
0.00167809
0.000139591
0.000148121
0.0125918
0.000175314
0.000134225
0.000195136
0.000150912
0.000140925
0.00439736
0.000148989
0.000171428
0.000132579
0.000220095
0.000139717
0.000134795
0.000136054
0.000266041
0.000211196
0.00014697
0.00137812
0.000135854
0.000142211
0.000138986
0.000211691
0.00014691
0.000138447
0.000149983
0.000151955
0.000142924
0.000145729
0.000140313
0.000148006
0.000146752
0.000140255
0.000156125
0.000135373
0.00899208
0.000188478
0.000136612
0.000273503
0.000157467
0.000140752
0.000139793
0.000151762
0.000140723
0.000161505
0.000155622
0.000197299
0.00020464
0.000148037
0.000190487
0.000221276
0.000143049
0.000147465
0.000197619
0.000154127
0.00230976
0.00013564
0.000143518
0.000152631
0.000147827
0.00014275
0.000157227
0.000140464
0.000151617
0.000143849
0.000153085
0.000139887
0.000204848
0.000144717
0.000154388
0.000194898
0.000143046
0.00417365
0.00469175
0.000156495
0.000162292
0.000159539
0.00013441
0.000185364
0.000145507
0.000166174
0.0041009
0.0277167
0.000202568
0.000153949
0.000162396
0.000142572
0.00016125
0.00013924
0.000298186
0.000192734
0.000149098
0.000140529
0.000240945
0.000169743
0.00014281
0.000143186
0.000262395
0.000147618
0.000138368
0.00356317
0.000181034
0.00013492
0.00150592
0.000136157
0.000216569
0.000182932
0.000142962
0.00014428
0.000157394
0.000491014
0.000140011
0.000157225
0.000144271
0.000142978
0.000139788
0.00343806
0.000148256
0.000145424
0.000143526
0.000282554
0.000157621
0.000140175
0.000133043
0.000204687
0.000142203
0.000136893
0.000195133
0.000408352
0.000148662
0.000246552
0.000157664
0.000177216
0.000151377
0.000184683
0.0045578
0.000148145
0.000143671
0.000137131
0.000154666
0.000142808
0.00424182
7.01311e-05
0.000137456
0.00014943
0.000136472
0.0001357
0.0257606
0.0001429
0.000152253
0.000151716
0.000210132
0.000144498
0.000147777
0.000155641
0.00454685
0.000146434
0.000145489
0.000137442
0.000138422
0.00015424
0.000175191
0.00014699
0.0001421
0.000145005
0.000143537
0.000137178
0.0179091
0.000148341
0.000143283
0.000141832
0.000184955
0.000136583
0.000136911
0.000167513
0.000142202
0.000190775
0.000144017
0.000144422
0.00180793
0.0301738
0.0100661
0.000202147
0.000157898
0.000148251
0.000472941
0.000139615
0.000155664
0.000135316
0.00257357
0.000130393
0.000154517
0.000144597
0.00767748
0.000172224
0.000206458
0.000391789
0.000150349
0.000187323
0.000147854
0.000149738
0.0341537
0.000167234
0.000142127
0.000136102
0.000153521
0.000163132
0.000143976
0.000145002
0.000139591
0.000135087
0.000239895
0.00413571
0.000147936
0.000151416
0.00028277
0.0101172
0.000153125
0.000150445
0.000152395
0.000154791
0.000142339
0.000151108
0.00027708
0.000140269
0.000136359
0.000146102
0.000296888
0.000281805
0.000156479
0.000146712
0.000147039
0.000157526
0.00014361
0.000158063
0.000170412
0.00023836
0.000156452
0.00211563
0.000134701
0.00014284
0.000148255
0.000135514
0.000146937
0.00014006
0.000225381
0.000140874
0.00112431
0.000145361
0.000139053
0.000137644
0.000202209
0.000151424
0.000175066
0.000182038
0.000136308
0.000188476
0.000158896
0.000138169
0.000133496
0.00511016
0.000258606
0.000133754
0.000140334
0.000140844
0.000150906
0.00022534
0.000291661
0.000150599
0.00014827
0.000214612
0.000379665
0.00014939
0.000142592
0.000272347
0.000153872
0.000386367
0.000155009
0.000142329
0.000186204
0.000181729
0.0331262
0.000188445
0.00445542
0.000136963
0.00014222
0.00015021
0.000146444
0.000153724
0.000147773
0.000146091
0.000139469
0.00014806
0.000147089
0.000145644
0.000145515
0.000152066
0.000149299
0.000143547
0.000141574
0.000182409
0.000163947
0.000140351
0.000145259
0.000238289
0.000145081
0.000148449
0.000148933
0.00687742
0.00013693
0.000170686
0.000150596
0.000136097
0.000143198
0.000324812
0.000259051
0.000149448
0.000147664
0.000154318
0.000169283
0.000140039
0.000158739
0.000178168
0.000141189
0.000207023
0.000140777
0.000143162
0.000142983
0.000147557
0.000161313
0.00024361
0.00523645
0.000192334
0.000136341
0.000144906
0.000143434
0.000204827
0.000148896
0.00257676
0.000139726
0.000143763
0.00014344
0.000192216
0.000142597
0.000146473
0.000144052
0.000216464
0.000137006
0.0115683
0.00013707
0.000176554
0.00014488
0.000161972
0.00014075
0.000153438
0.00478214
0.000232171
0.000136373
0.000184322
0.000145255
0.000148025
0.0442432
0.00448747
0.000136262
0.000142726
0.000154134
0.000135967
0.000143489
0.000148356
0.000147519
0.000160267
0.000180278
0.000149966
0.000157961
0.000225297
0.000147483
0.00014078
0.000142107
0.000155012
0.000160776
0.000144087
0.0203355
0.000140469
0.000413581
0.000169376
0.00013666
0.00014028
0.000140016
0.0002694
0.00014619
0.000155722
0.000146483
0.000140961
0.00424083
0.00015122
0.000179145
0.000147184
0.000145475
0.000151352
0.000143252
0.000151336
0.000143394
0.000152646
0.000149188
0.000149124
0.00217451
0.000168413
0.00454655
0.000140853
0.000189916
0.000150655
0.00553798
0.000188018
0.00775311
0.000152162
0.000135009
0.000172805
0.000143407
0.00433683
0.000149561
0.000215104
0.00015137
0.000328865
0.017703
0.000153849
0.000179946
0.000139307
0.000137482
0.000148483
0.00013475
0.000147825
0.000152364
0.000139417
0.000160385
0.000163873
0.00520909
0.000140656
0.00026072
0.000134628
0.00014243
0.00014373
0.00019938
0.000147025
0.000232294
0.000148078
0.000143293
0.00124484
0.00014021
0.000155136
0.000142203
0.000156291
0.00566378
0.000163838
0.0406453
0.000144755
0.000186846
0.000152169
0.000141728
0.000143738
0.000188853
0.000164942
0.000143053
0.000151469
0.000143118
0.00200742
0.000139066
0.000300963
0.00026381
0.000190854
0.000157184
0.00022107
0.000192039
0.000134748
0.000516034
0.000142382
0.000288334
0.000148858
0.000151504
0.00622673
0.00610306
0.000158002
0.000341365
0.000143516
0.0051146
0.000131127
0.00693469
0.000135185
0.000152029
0.00021613
0.000145974
0.000139056
0.000149365
0.000144224
0.000182539
0.0040885
0.000164825
0.00300294
0.000142251
0.00534599
0.000144335
0.000147193
0.000142988
0.000146509
0.0042491
0.000147106
0.000138042
0.000168896
0.000148086
0.00581105
0.000191001
0.000142931
0.000185428
0.000167049
0.000140414
0.000144721
0.000155384
0.000136674
0.000182139
0.000160017
0.000152669
0.000153133
0.000137192
0.000147646
0.000183923
0.000149743
0.000144858
0.000150057
0.000134936
0.00013582
0.0300963
0.000160285
0.000369932
0.000158857
0.000180366
0.000163315
0.000141997
0.000164213
0.000138911
0.000140719
0.000768175
0.00016494
0.000162032
0.000177823
0.000148706
0.000245141
0.00217421
0.00014326
0.000162747
0.000196889
0.0013262
0.000136516
0.000138135
0.000147584
0.00018117
0.00367759
0.000164437
0.000153769
0.000148875
0.000142035
0.000135395
0.000582334
0.00015596
0.000152449
0.00434439
0.00014678
0.000153306
0.000156795
0.000144978
0.000142789
0.000142875
0.000180595
0.000211967
0.000149133
0.00015395
0.000249391
0.000142147
0.000149307
0.00015399
0.000146676
0.00758166
0.00581545
0.000297344
0.000195984
0.00622125
0.000151928
0.000139799
0.00026163
0.000151852
0.000160239
0.000142869
0.000135352
0.00555232
0.000159905
0.000141378
0.00013946
0.000159105
0.000444434
0.000156594
0.000135307
0.0163141
0.000152021
0.000169047
0.000134948
0.000163753
0.000131048
0.000152505
0.000158932
0.000142041
0.0240271
0.000149001
0.000168453
0.000209512
0.00518911
0.000200948
0.000142202
0.000185892
0.000154982
0.000161664
0.000150884
0.000149821
0.000145275
0.000151612
0.000850018
0.000151652
0.000990903
0.000139851
0.000227372
0.000136002
0.000148701
0.000269516
0.000155269
0.000226574
0.000157342
0.000149428
0.0100736
0.0175684
0.000140036
0.000508138
0.000169278
0.000138813
0.000134045
0.0362169
0.000370354
0.000138874
0.000136241
0.000143756
0.00013693
0.000483333
0.000251447
0.000130209
0.000133276
0.000139954
0.000239314
0.000176752
0.00524984
0.000135895
0.000264859
0.000147077
0.00018403
0.0408944
0.000164439
0.000139573
0.000139858
0.00577374
0.000136757
0.000141202
0.000136664
0.00016561
0.000152085
0.0297814
0.000160285
0.000148621
0.000142389
0.000158142
0.000227875
0.00018274
0.000141683
0.000141837
0.00022129
0.000178943
0.000148381
0.00602444
0.000165053
0.000152969
0.0131344
0.000151492
0.000158234
0.000148247
0.00031887
0.00014528
0.00014854
0.0446485
0.000159663
0.000141133
0.000143272
0.000131091
0.000182025
0.000215029
0.000140996
0.000136113
0.000150392
0.000186723
0.00015449
0.000135109
0.000142782
0.000139158
0.000158898
0.00017335
0.000145416
0.000142515
0.0452441
0.000141935
0.000451618
0.000162454
0.000163195
0.000155134
0.000150704
0.000144982
0.000388029
0.000199566
0.000188835
0.0260657
0.000161751
0.000140105
0.000314011
0.000136359
0.000190937
0.000381548
0.000158025
0.000141787
0.000153791
0.000191887
0.000142696
0.000142848
0.00064286
0.000142851
0.000153445
0.000140833
0.000147299
0.000137381
0.000186931
0.000207779
0.000136049
0.00014102
0.0114268
0.000142601
0.000136737
0.000140816
0.000140538
0.00111333
0.00017212
0.00015313
0.000153723
0.000149033
0.000137717
0.000185066
0.000200382
0.000158114
0.000257474
0.000154965
0.000154431
0.0270413
0.000140113
0.00013627
0.000143162
0.000140379
0.000148578
0.000132774
0.000149174
0.000375685
0.000144916
0.000141755
0.000156054
0.000140528
0.00306248
0.000147534
0.0359758
0.000233925
0.000180362
0.000162135
0.00202558
0.000159479
0.000142979
0.000155021
0.000140451
0.000151907
0.000146992
0.000148596
0.000312348
0.000135916
0.000143743
0.000173605
0.000278173
0.0001477
0.000139757
0.000227433
0.000150961
0.000189918
0.000143007
0.000139888
0.000145473
0.0202104
0.000146133
0.000270067
0.000180932
0.000153021
0.000139667
0.000143135
0.000161117
0.00362567
0.000136096
0.000178299
0.000141751
0.0351701
0.00023835
0.000149479
0.00022274
0.000146082
0.00015325
0.000155092
0.000256141
0.000172384
0.000161475
0.00016327
0.00595452
0.000147987
0.000180722
0.000144531
0.000168812
0.000219979
0.00023942
0.000142501
0.000163312
0.00521096
0.00258145
0.000154361
0.000154008
0.00567577
0.00564013
0.000140209
0.000181404
0.00014316
0.000155886
0.000146223
0.000152641
0.000151883
0.000520859
0.000147718
0.000148069
0.000183789
0.00618776
0.000207957
0.000212095
0.00321605
0.000139756
0.00564229
0.000186839
0.00014217
0.000141756
0.00546063
0.000157798
0.000145102
0.000142578
0.000169639
0.000138616
0.000142795
0.000377431
0.000145473
0.000148123
0.000141071
0.000143815
0.000151012
0.000139222
0.0262772
0.000179133
0.000154082
0.000139228
0.000164666
0.000343678
0.000142189
0.000147258
0.00493591
0.000232531
0.00014341
0.00015452
0.000138691
0.00014038
0.000203196
0.000223422
0.000140417
0.000143154
0.00556381
0.00352735
0.0108476
0.00019318
0.000150551
0.00282549
0.000140629
0.000155612
0.000154215
0.000139645
0.0446651
0.0104665
0.000170487
0.000191545
0.00120487
0.000134062
0.000133239
0.000153029
0.000165502
0.00503741
0.000136538
0.00016587
0.0125329
0.000279689
0.000147008
0.000150839
0.00025361
0.000142631
0.000154449
0.00282863
0.000140822
0.000142543
0.000139341
0.000244626
0.000141551
0.000164604
0.000149324
0.000212606
0.00016267
0.00573096
0.000143015
0.000142161
0.0001679
0.000148002
0.000163688
0.000149359
0.000203584
0.000208922
0.000140755
0.000144434
0.00391465
0.000277655
0.0067294
0.000139037
0.000143325
0.000155454
0.00014525
0.000143095
0.000144014
0.000146066
0.000148481
0.000139574
0.000139579
0.000183465
0.000154824
0.0001685
0.0081073
0.000188354
0.000178738
0.000157322
0.00020072
0.00023897
0.000162518
0.000157728
0.000159288
0.000141638
0.000666997
0.000136154
0.000135813
0.000140481
0.00447535
0.000142183
0.00462278
0.000148578
0.000134964
0.000178425
0.000142852
0.000142244
0.000142805
0.000195105
0.000545248
0.000147154
0.000139644
0.000151337
0.00290307
0.000178294
0.00572318
0.000142853
0.000179708
0.000146214
0.000145658
0.000136347
0.000138848
0.000143333
0.000157332
0.00111598
0.000152331
0.000153056
0.000210517
0.0117639
0.000210901
0.000141879
0.000204759
0.000165123
0.00329135
0.000137918
0.000142551
0.000158732
0.0024483
0.000132485
0.000144631
0.0001388
0.000136673
0.000210764
0.000153154
0.000185358
0.000144736
0.000132268
0.000180524
0.000143991
0.00765588
0.000144896
0.000167144
0.000147916
0.000158402
0.00014923
0.000186009
0.00552888
0.00014247
0.000182417
0.000983983
0.000141664
0.000146715
0.000173165
0.000131981
0.0117994
0.000198942
0.000142704
0.000184149
0.000134417
0.000146181
0.000149799
0.000142752
0.000136647
0.000149719
0.000140674
0.000138739
0.000145183
0.000148626
0.00017811
0.000136294
0.000226452
0.000138349
0.000140366
0.000159599
0.000176877
0.000149734
0.000132094
0.000142439
0.000154085
0.000175653
0.00118013
0.00016553
0.000148931
0.000148877
0.000139401
0.000161924
0.000140663
0.000152394
0.000292888
0.00024124
0.000176318
0.000141351
0.000148115
0.000149688
0.00013223
0.000195154
0.000134837
0.000224515
0.000149146
0.000242323
0.000157857
0.000295228
0.000146881
0.000188749
0.0325592
0.00728079
0.00280868
0.000155927
0.00394305
0.000276284
0.000148549
0.000166766
0.000316484
0.000139375
0.000138984
0.000143859
0.000154763
0.000185953
0.000145978
0.000156824
0.00430331
0.000130233
0.000144569
0.000263281
0.00177163
0.000199472
0.00345667
0.00429155
0.000149755
0.000182968
0.000154827
0.000155838
0.000677279
0.00015439
0.0229809
0.000219669
0.000153578
0.000145861
0.000152608
0.000161368
0.000139719
0.0135417
0.000132381
0.000142833
0.000143251
0.00477199
0.0296649
0.00021373
0.000145027
0.000151625
0.000138865
0.000434123
0.000144324
0.000148678
0.000153312
0.000195332
0.000138602
0.000193786
0.0362223
0.00361963
0.000148022
0.000717285
0.000139898
0.00050931
0.000132765
0.000253131
0.000149106
0.000186181
0.000162269
0.011511
0.000225614
0.000152543
0.000150528
0.000199217
0.000155087
0.000141818
0.000138673
0.000158601
0.000148683
0.0033609
0.000131628
0.000142869
0.000144184
0.00014375
0.00182196
0.000139205
0.000134598
0.000146563
0.000440669
0.000161874
0.000182707
0.000152193
0.000150909
0.000197334
0.000139961
0.000143131
0.000191791
0.000174907
0.000134614
0.000165725
0.000151999
0.00472092
0.000142689
0.000297362
0.000148787
0.000143129
0.0001353
0.000134918
0.000142281
0.00014132
0.000640377
0.000187592
0.000146992
0.000143053
0.000142234
0.000152979
0.000158472
0.000340332
0.000146193
0.000199603
0.000164788
0.0058362
0.000147678
0.000174835
0.000143008
0.000142712
0.000163165
0.000142579
0.000145744
0.00014068
0.000136111
0.000315496
0.000143517
0.000139149
0.000205742
0.00434597
0.000198382
0.000146747
0.000134885
0.00015415
0.0409775
0.000152766
0.000147719
0.000146529
0.000517278