/*--------------------------------*- C++ -*----------------------------------*\
| =========                 |                                                 |
| \\      /  F ield         | OpenFOAM: The Open Source CFD Toolbox           |
|  \\    /   O peration     | Version:  v2012                                 |
|   \\  /    A nd           | Website:  www.openfoam.com                      |
|    \\/     M anipulation  |                                                 |
\*---------------------------------------------------------------------------*/
FoamFile
{
    version     2.0;
    format      ascii;
    class       volScalarField;
    location    "650";
    object      ddt0(k);
}
// * * * * * * * * * * * * * * * * * * * * * * * * * * * * * * * * * * * * * //

dimensions      [0 2 -3 0 0 0 0];


internalField   nonuniform List<scalar> 
18758
(
-5.95579e-06
-0.0025154
1.68075e-08
-5.44417e-06
-1.54859e-06
-2.62521e-08
-1.22287e-08
-3.4716e-07
-1.47384e-06
-1.11415e-06
-0.0017911
-0.000160888
0.00250217
-1.36467e-07
-4.6505e-09
2.84569e-08
-0.00161826
-3.09255e-08
2.91564e-09
1.47888e-08
-0.00109985
-3.67324e-06
-1.74225e-08
1.34514e-08
-1.50823e-05
-1.35633e-05
-0.0098338
1.83321e-05
4.07116e-06
-0.00300392
0.0210009
-0.00832235
-3.10882e-07
0.000565863
-1.82926e-06
-0.00228569
0.00361812
-1.78727e-06
0.0162106
8.02196e-08
0.000528878
-1.04118e-07
-0.000360854
2.68717e-07
1.41409e-08
0.0135923
2.20935e-07
4.06777e-06
-0.00556147
-9.54038e-07
-0.00153471
-0.0557816
-5.46414e-07
9.36084e-07
9.02337e-07
0.00114505
-2.78525e-08
4.19733e-08
4.37556e-06
-2.3238e-08
2.31118e-08
1.81492e-07
-0.0111697
-0.0239058
1.90316e-08
0.00355327
-2.42779e-08
-4.53679e-08
1.80157e-05
-4.12979e-08
-0.0466567
-0.000106326
5.74032e-08
-9.28714e-07
-4.35849e-06
0.0287986
0.000234805
-0.00232544
-1.23633e-06
-0.000388759
2.22843e-06
0.0201597
-0.00220538
-3.35366e-06
5.47107e-07
1.34646e-06
1.53969e-07
-1.13462e-06
-0.00961669
1.53563e-06
-0.00310479
4.86674e-08
1.82706e-06
-0.00559898
5.75124e-08
1.03281e-08
-7.10515e-08
2.79118e-06
-0.00283407
-2.84277e-08
0.0194133
-3.25779e-07
-3.99629e-08
8.2716e-09
0.00383666
-0.00200194
4.90914e-06
-0.0120704
-0.00286858
0.00163031
2.50929e-08
-0.00731884
-1.16296e-06
4.19457e-09
-2.56826e-07
-0.0147439
2.71734e-06
-8.73225e-08
-0.00987658
1.30686e-07
3.20889e-08
0.00110981
4.17095e-07
-5.68617e-08
-0.00162247
8.78544e-07
2.57184e-08
-5.86875e-08
3.98594e-06
-0.000763734
4.40541e-06
5.6587e-08
-8.19877e-07
-0.00167971
1.17532e-07
-1.59682e-09
0.00124063
4.3644e-09
3.20132e-06
2.66759e-06
3.31054e-06
0.00162025
1.84042e-06
-0.0021151
-0.001172
1.32204e-06
0.0078085
4.1619e-06
-0.00195748
-0.00131257
0.000543593
-0.00268314
3.47188e-08
-1.98377e-06
0.000208436
-0.0304704
1.92489e-06
3.74706e-06
-3.31604e-06
-0.00242923
0.00973262
-8.40657e-08
-0.0117188
0.00632363
0.00211986
-7.48661e-08
-8.04863e-08
0.0101309
-0.000526448
0.000853824
-0.00435621
5.40979e-09
4.49348e-06
0.00190737
-0.0199258
-1.60284e-08
5.38195e-08
-2.72943e-06
7.73856e-05
-6.8904e-09
-1.15044e-08
7.67142e-07
1.3982e-06
-1.52451e-08
0.0216516
2.86353e-11
-0.00329566
5.74487e-07
-0.00534383
2.08998e-05
-0.00298122
-2.71556e-09
7.2584e-06
-8.60787e-05
2.02057e-08
-3.46038e-08
7.96591e-05
3.89775e-08
-0.00489215
-4.25094e-08
-1.21173e-06
3.5756e-06
-1.7981e-05
2.89087e-08
2.53845e-08
-0.0102355
-1.13402e-07
-1.89469e-06
-0.000123506
-0.00171854
-1.73779e-08
2.17435e-06
-1.7547e-06
6.64716e-07
1.45708e-07
-7.06272e-08
2.21782e-08
2.17824e-06
-1.29695e-08
0.00213486
-8.83712e-05
1.83124e-07
1.75254e-06
2.75048e-06
-1.33483e-05
-0.00303877
-4.95733e-06
5.15566e-07
0.00667931
-1.01709e-07
-8.12271e-06
1.34663e-06
-0.0101451
-2.21796e-08
-6.40171e-10
1.62307e-07
-3.70897e-06
-0.00489556
-0.00167506
-1.32037e-07
2.25051e-08
-3.96781e-06
8.24335e-06
-4.40348e-08
0.00990938
9.47412e-06
5.54118e-10
-2.82571e-09
-6.37515e-07
-3.06412e-08
-0.00472252
2.2406e-07
-0.00360755
1.92492e-07
-4.87404e-08
-0.0131167
-1.88844e-07
-3.01604e-05
1.8951e-08
0.000799395
-8.66834e-07
-5.68782e-08
2.96068e-09
6.93844e-06
-0.00486052
-0.00139924
-5.82415e-08
-1.00911e-05
3.67689e-08
-1.57151e-07
-0.00650093
-0.00104414
-1.33297e-07
-4.27672e-08
2.13447e-06
1.58086e-07
-1.57896e-07
-1.78324e-08
6.86448e-07
-1.41211e-07
-3.30566e-09
6.53299e-08
1.07436e-08
0.00571325
-8.92457e-09
-4.39454e-08
-1.69771e-08
7.30968e-06
5.63462e-09
5.54569e-09
-5.37137e-08
-3.98883e-08
-4.22961e-08
-8.86634e-09
1.21574e-08
-8.67231e-07
-0.00307477
6.63979e-08
1.1649e-08
-0.000995179
-3.57824e-09
1.97815e-08
1.8247e-08
-0.00608319
6.38632e-05
-6.5397e-09
1.04551e-05
-0.00244963
3.69309e-07
0.000715529
9.21174e-09
-0.00367606
3.47675e-05
7.76996e-06
4.04467e-06
0.00100016
-2.16428e-08
-0.0119647
1.41756e-06
-8.43883e-09
7.33901e-06
-3.16067e-06
0.00114624
-6.26514e-09
-2.78198e-08
-0.00145037
-4.04281e-06
-4.02446e-08
-0.00275949
-4.07399e-06
2.10092e-06
-0.00406637
-5.43655e-09
-1.74345e-07
1.6069e-08
8.84654e-09
4.16393e-07
1.4786e-06
-3.55456e-07
-1.51146e-07
3.71914e-07
-1.32965e-07
-0.000163265
-0.00178142
1.1699e-07
-0.0101634
-0.00235921
-3.04976e-08
8.806e-07
0.000517515
2.63864e-05
0.000843945
-0.000757273
2.96801e-09
-0.00353081
0.00285741
2.96092e-06
-1.32765e-07
2.0193e-06
5.88643e-07
1.71874e-07
0.000233483
-0.000280991
0.000245278
-6.37887e-06
-0.000191615
1.0627e-11
1.35391e-07
8.07512e-07
3.07365e-06
-0.00499854
-0.0184084
-0.019922
0.000245036
0.00105916
-0.00196879
-5.55547e-08
0.0051849
4.33619e-06
-0.000835072
4.76521e-06
-5.47282e-09
1.73221e-08
-3.33361e-06
0.000315952
-0.00049663
-0.00418342
-0.00226741
-1.419e-07
6.48477e-05
0.00220965
2.85581e-08
-1.62254e-07
2.87045e-07
2.93295e-07
3.26469e-08
5.56366e-07
2.56351e-08
3.65105e-08
-4.8277e-08
3.16321e-08
-2.60808e-06
0.0121983
3.65912e-07
0.00403753
0.00475333
0.000814425
0.010376
5.11318e-06
-9.25996e-07
2.29527e-08
-0.000291921
-1.66824e-07
-1.2705e-07
-0.00594997
2.97384e-06
0.00039256
-2.67654e-07
0.00242775
1.09842e-08
4.16428e-10
1.22345e-08
-0.00295004
-0.00996835
0.0011163
3.7737e-09
-0.00511995
1.58038e-06
1.80481e-08
-4.50153e-07
-4.16726e-08
-0.0184754
5.62575e-09
-1.58342e-08
0.00447071
4.08366e-07
-1.40744e-07
5.21034e-08
-3.28702e-07
-8.73927e-07
0.0017595
-0.00272072
-1.42987e-08
0.00560716
1.4515e-08
2.18851e-06
3.21174e-07
2.75146e-08
0.0127817
-1.09543e-08
-9.60048e-07
1.88033e-08
-0.0109662
6.3594e-08
2.33356e-08
-0.00442467
-0.00036817
-1.9746e-08
1.44678e-07
-1.23816e-06
2.80892e-08
1.96797e-08
3.5149e-08
0.00902874
0.0040081
-2.3316e-08
1.37564e-06
-0.000276552
-2.95832e-06
-0.00193483
6.53705e-05
-0.00137715
-1.84211e-10
4.74628e-06
-3.71533e-06
-2.01566e-06
-2.97879e-07
0.00236056
-0.00014693
4.52131e-06
1.89096e-08
-1.17126e-08
-1.97535e-10
2.69109e-08
-9.84562e-10
3.16774e-08
0.00131333
-2.24985e-08
1.8269e-08
1.40674e-06
3.39914e-08
1.54742e-08
-9.29307e-08
-1.16884e-06
-0.000122366
-1.385e-05
-1.35422e-07
-0.00120994
-5.1424e-08
3.96298e-07
3.65416e-06
0.00114092
0.000485719
2.32693e-08
6.05385e-09
0.00322888
-0.00242743
-2.35975e-05
-1.19101e-07
-0.00645812
0.00669595
-1.72877e-08
-4.64178e-08
0.0110252
6.34656e-08
2.47216e-06
-1.91183e-05
8.05902e-08
1.40364e-06
-4.88932e-09
2.56223e-09
6.0711e-08
2.41689e-08
-7.61778e-08
1.83938e-08
-0.000320966
-1.32476e-08
0.000112187
-0.000211905
-2.12251e-08
-1.39958e-08
-1.9311e-08
5.82311e-08
4.57618e-07
-0.00361034
-2.10304e-08
3.99377e-05
-2.40519e-06
-2.00764e-06
-1.0147e-07
4.49169e-08
-8.50476e-07
-4.99679e-08
-3.64722e-08
-0.00140105
0.0208388
-1.25433e-09
-7.06089e-08
-3.46862e-08
0.00950813
9.00459e-09
-6.05913e-08
2.7355e-08
1.60494e-08
-1.55583e-08
-9.62459e-08
2.68032e-07
2.9534e-08
4.95254e-06
-1.55281e-08
1.88764e-07
4.66572e-06
-0.000187477
2.92577e-06
9.23696e-08
-5.21266e-08
1.03947e-08
3.64899e-08
-4.07086e-07
-0.00159071
0.00012025
-2.31982e-08
-0.000550054
-5.13327e-08
9.2202e-07
5.83018e-08
-5.12446e-08
1.47807e-06
-3.66166e-08
2.04798e-08
-0.00572018
1.39669e-08
-3.28873e-08
-6.26782e-06
1.12892e-08
-1.51532e-08
-0.00421133
-3.38588e-08
0.00145932
9.77655e-06
-4.4415e-08
2.01555e-08
-3.2517e-06
-4.21008e-07
5.74891e-07
-1.72862e-08
0.00153941
0.00112679
-0.000762865
-1.0125e-08
-0.0004425
1.77641e-08
-2.26133e-08
1.06535e-08
1.28272e-06
0.000436946
2.14371e-05
2.66424e-07
-1.89046e-08
6.33617e-07
-1.0557e-05
-0.00749335
1.28987e-08
1.91715e-05
-2.64628e-08
-0.0045655
-6.41004e-07
7.80773e-06
-2.82391e-08
3.00707e-06
3.15521e-06
-3.74195e-08
-3.01463e-08
5.31654e-09
-2.36905e-08
-4.91527e-07
-0.000106412
-0.00342583
-0.00642901
1.24667e-05
-1.484e-06
2.73502e-09
9.36449e-09
0.000603201
1.39851e-05
8.75512e-09
1.90684e-06
-0.00235131
-0.00143538
-4.26801e-08
4.03342e-10
-3.49209e-06
-0.0039625
1.61524e-08
0.000687636
-7.25458e-08
4.07437e-08
5.64277e-07
1.92692e-08
-3.17613e-08
6.35517e-07
-5.10365e-09
3.02881e-07
-9.80287e-06
1.61339e-06
0.000425302
7.00342e-07
-2.37366e-08
-0.0152591
-5.39884e-08
-0.00668005
-7.52154e-05
-8.74587e-08
0.00101684
1.93641e-06
1.343e-07
0.000457093
0.000936064
0.00130108
-0.000125001
-3.66555e-07
-0.00918322
-1.44643e-08
-0.00090302
0.000757359
2.1897e-06
1.70159e-07
0.00149701
-4.3195e-08
-4.34685e-06
-0.0194911
0.00482587
3.79475e-08
-0.00210629
-3.7457e-08
2.22324e-06
4.18678e-06
-7.21374e-09
5.851e-07
0.00151905
0.00219895
-4.43348e-07
2.70449e-07
2.05766e-08
-1.35372e-07
-1.96146e-07
5.42578e-07
-4.73356e-06
2.7366e-08
-0.0124945
-1.43997e-06
-1.64364e-07
1.95793e-07
1.49161e-09
-1.76255e-05
1.58009e-08
-2.51631e-08
0.0178461
3.17555e-09
6.41395e-07
-0.000191092
1.57901e-06
9.19059e-07
1.69555e-08
-9.62924e-08
4.67056e-06
-1.84087e-08
-0.00403874
-1.08927e-09
3.96124e-08
-1.48802e-07
-1.76019e-07
1.92806e-08
0.00759039
1.82452e-09
0.0094671
4.93996e-06
-1.60085e-08
-0.0303583
-3.98752e-08
6.43988e-06
-3.5593e-07
0.00098888
2.5728e-08
-3.57563e-05
-0.00124058
-2.21769e-08
-0.000316721
9.66951e-09
-0.0117347
-4.394e-08
-9.43514e-08
-0.00686308
4.88139e-05
2.34464e-08
1.64853e-07
-3.42816e-07
3.1186e-08
1.44179e-08
0.00157334
-0.00580655
1.11285e-07
2.755e-08
8.11413e-09
0.00166824
1.02061e-05
0.000271418
-6.84946e-09
-1.02773e-05
-9.82315e-08
-1.2237e-07
4.36836e-07
-0.00296425
1.38883e-08
2.01777e-06
-0.0116755
1.52791e-06
-1.83328e-05
-9.98796e-09
-1.0427e-06
1.30347e-08
5.2976e-08
1.23086e-07
-1.9219e-07
3.35105e-06
2.35857e-08
0.00125243
4.20818e-08
1.21311e-08
4.17396e-06
0.00203499
2.11208e-06
2.12529e-08
-1.64296e-07
-0.000156923
-0.000152384
-3.65783e-06
2.27914e-08
-4.01776e-08
-1.06122e-06
-0.00397932
-0.00033142
8.52961e-08
2.53985e-08
-1.08974e-07
1.56834e-07
8.84999e-07
5.03414e-08
1.49767e-08
-0.00138406
1.8607e-08
-1.63584e-08
-0.000229562
-7.58913e-09
7.26485e-05
8.47561e-06
-4.04604e-05
-0.00704209
0.00144232
-0.00536784
4.8689e-08
-4.06e-08
2.36407e-07
1.4502e-07
1.52419e-08
1.48231e-08
3.1911e-09
-1.30838e-07
-0.0166709
2.57893e-06
-0.00886936
4.38745e-06
-3.12927e-08
-2.25184e-06
-2.47349e-06
5.65775e-06
-1.76781e-08
7.89368e-07
7.89067e-08
-0.00950934
4.04378e-06
-0.0053378
-1.56649e-08
4.75191e-06
4.73091e-06
8.98179e-05
-0.00482761
-0.000645827
1.74269e-07
2.66264e-06
2.51407e-07
-0.000232841
-2.43373e-08
-1.02386e-08
6.28686e-06
0.000216842
4.06869e-08
-0.00290831
-0.000370449
6.29557e-09
3.72204e-08
5.27235e-09
1.34977e-07
-1.8498e-09
-1.426e-06
3.66704e-07
4.85123e-08
-1.38969e-08
-0.00402674
-0.00847514
4.7179e-09
0.00276834
4.13034e-06
4.80849e-07
3.4224e-07
1.81502e-07
-4.28319e-08
4.28189e-07
4.7052e-07
-1.95704e-08
-5.52639e-08
-1.21725e-06
-5.76265e-08
-0.00566759
-1.81128e-07
-1.09976e-08
1.69054e-07
0.0107705
3.6479e-08
-1.76297e-08
0.00360087
1.86437e-08
1.21497e-06
1.30151e-07
-1.30636e-08
2.25998e-08
-2.69058e-09
7.32745e-09
9.54545e-07
1.94123e-08
0.00183026
6.03741e-06
4.82451e-06
-0.0029867
-9.76163e-08
0.000206211
-1.51013e-08
-0.00813344
-3.12133e-08
1.05312e-07
2.89443e-07
-0.0288355
-1.21084e-07
-0.0174827
-3.08271e-05
-3.39973e-08
4.96082e-07
-2.2149e-08
3.23776e-08
-4.68489e-07
-2.41999e-07
-5.84827e-09
3.46828e-05
4.21198e-09
3.99701e-08
-0.00314268
-1.06544e-07
1.59677e-08
2.31574e-08
-0.00180495
1.95647e-07
4.444e-07
3.02173e-07
-1.11642e-05
0.00500379
-0.00634481
-0.00098035
-6.77205e-09
8.80217e-09
-1.19742e-08
0.00434395
-1.13185e-08
6.60481e-08
-1.69566e-07
6.35435e-08
-0.0132271
-5.27723e-08
-8.15723e-09
-1.73924e-05
4.38177e-08
1.47619e-06
0.0279711
1.01526e-08
5.43138e-08
-0.0200152
2.23375e-07
0.00262827
0.00927468
1.08388e-08
-2.6215e-09
0.00609255
-5.60042e-09
-1.53317e-07
-0.000382764
1.61265e-08
-0.00498476
7.40697e-09
1.31393e-07
2.33458e-09
-2.45981e-06
-2.31408e-07
-0.00172108
4.68252e-08
-5.23801e-09
-0.00283831
-0.00175691
1.06884e-06
5.30611e-07
9.4163e-05
-0.00647515
-1.25133e-05
1.34472e-08
-0.00564861
3.8072e-08
0.00958278
-0.0052583
1.80475e-07
2.11858e-06
-4.6199e-08
-0.00336018
-8.36146e-09
0.00205603
-1.22039e-07
-2.80907e-05
9.83747e-07
7.58177e-09
2.79676e-08
4.20753e-08
-0.0204419
-0.0141529
-8.58347e-08
0.00246702
6.72245e-09
1.52533e-08
-0.00406078
-1.55074e-08
-3.36362e-07
2.08955e-08
-2.42851e-07
-4.18714e-09
1.57006e-08
-5.0738e-09
-1.31625e-08
5.86229e-06
-2.95455e-06
-2.11229e-06
8.14565e-07
-2.98987e-07
6.71228e-09
0.000693745
2.26071e-09
-0.00234928
1.70052e-08
-0.00273626
7.83641e-08
-0.0030835
-2.04536e-07
-2.10144e-07
6.93252e-09
-0.0273791
1.18751e-08
0.000797174
-4.24364e-06
2.45043e-08
1.70728e-07
4.4269e-09
6.18081e-10
4.81657e-07
9.07367e-08
7.77922e-05
-9.26582e-08
1.96822e-07
-3.44157e-08
-1.25868e-07
0.000760101
0.00162913
-5.66262e-08
2.3807e-08
-1.98979e-07
-2.73968e-07
3.23704e-08
-3.03631e-07
2.203e-07
4.38769e-08
-4.43742e-08
-7.9485e-08
1.07961e-06
2.7979e-06
-4.68648e-08
2.96933e-08
0.00642767
-4.20951e-07
0.00381058
1.08152e-05
-1.12367e-07
-0.00988819
4.86512e-08
-5.61468e-08
-4.75945e-07
-4.6358e-07
9.59356e-06
-8.93454e-08
1.04099e-06
0.00412818
2.27062e-06
0.0039172
0.0154771
-0.000403971
4.00007e-07
-2.12342e-08
4.68237e-09
0.00317954
7.42769e-08
-3.08744e-08
6.03104e-07
0.00013344
-2.36216e-08
1.92472e-08
-0.00300135
2.89176e-08
1.75404e-06
9.21331e-07
-2.22817e-07
-7.34755e-07
-3.51003e-09
1.75999e-08
-5.11486e-08
7.84185e-07
1.66707e-06
-6.24492e-08
1.80733e-08
0.00151999
7.24156e-09
5.10127e-10
0.0030239
2.79655e-08
-6.55827e-09
1.23894e-08
-1.41469e-07
-1.64903e-06
-0.00765911
4.5398e-06
0.00283647
-0.00413855
0.00293726
-0.000225278
1.46306e-06
-0.00960163
0.00300152
1.44799e-08
-4.37468e-08
-4.93775e-08
4.78512e-09
-1.52887e-07
-3.53005e-07
-5.18138e-06
6.0086e-06
-3.97706e-08
1.41981e-08
-2.21644e-06
1.86981e-06
-0.000717202
2.5237e-08
2.59252e-07
-2.98029e-08
-0.00380112
-0.00301971
4.53139e-07
-0.00104019
-2.45144e-09
-2.72694e-08
6.50514e-06
2.59975e-06
-1.47228e-08
6.40495e-06
-1.62897e-07
2.70246e-06
-0.00351288
1.05995e-05
9.9218e-07
-2.44425e-09
-9.15167e-09
-1.08696e-07
1.11369e-08
0.000394306
4.02973e-06
-0.0250767
-0.0020942
0.00533036
-1.8643e-07
-0.010564
0.00854313
0.0150338
1.91006e-06
-0.00345053
8.86016e-07
6.00008e-05
5.60298e-06
9.10831e-07
-3.56382e-08
4.69351e-08
-8.29809e-08
-1.97773e-06
2.4174e-08
1.02098e-08
-4.48853e-05
0.0147228
-0.000496958
0.00274463
2.8682e-06
0.00566285
4.54415e-06
1.33139e-06
-4.08191e-09
0.0119449
4.10417e-05
-4.72614e-08
3.81651e-07
0.00857364
-0.00387796
-0.00203675
-1.95649e-07
-3.85257e-06
5.48056e-09
0.0016104
1.78493e-09
0.000844545
0.000209666
2.11752e-07
3.53246e-06
5.40108e-06
-7.75343e-09
5.71195e-08
-8.00549e-05
-0.000747192
5.21407e-07
-9.07361e-08
-2.80795e-07
5.05118e-07
0.00420391
1.51092e-08
0.00226386
-1.11918e-07
-0.000405224
0.000134725
-6.25052e-07
-0.00275912
-4.81302e-06
-0.000934475
5.44465e-09
9.01411e-07
0.01122
1.74662e-07
2.59534e-08
0.00280954
0.000727691
3.07751e-08
4.2909e-09
-0.00291614
-2.54198e-06
-1.05257e-06
4.5844e-05
-0.00166008
3.72778e-07
4.64202e-07
0.00199138
5.50222e-07
-3.02937e-07
-3.29728e-07
0.000477916
-6.00881e-07
9.18982e-08
-1.65618e-08
-0.00592018
1.59142e-08
-0.00134709
1.8737e-09
-7.27697e-09
0.00206812
3.22754e-07
-9.83367e-09
-4.86453e-05
1.79647e-08
-2.84662e-07
-2.25045e-08
-4.69094e-08
4.47825e-08
2.23031e-06
2.903e-07
0.00145576
6.18159e-07
0.00279539
0.00561425
-6.24931e-07
1.33108e-08
1.6677e-08
0.00977363
-1.90722e-07
1.80383e-07
0.00161513
-1.20854e-06
-0.000222133
-3.52397e-08
1.24565e-09
1.144e-08
8.90327e-08
1.45159e-07
2.28717e-08
-1.63773e-07
4.94123e-07
-1.25834e-08
-0.00054856
5.2998e-06
0.00210942
-8.48796e-07
-3.30371e-08
7.23638e-07
0.00865322
-0.00589488
-0.00253649
-0.000841897
0.000563595
3.47272e-06
0.00270891
1.37928e-06
1.74652e-06
2.25773e-06
-0.0039225
-1.59428e-08
-0.00355926
-0.00103692
1.73184e-06
5.17097e-08
-0.00142908
-1.6125e-08
4.67657e-09
-3.40037e-08
5.94909e-07
-0.00573413
0.000759909
4.10062e-08
-4.88083e-08
-6.67958e-08
-4.22544e-09
-2.82815e-06
-1.6586e-09
0.00437957
5.55621e-06
-7.86476e-06
-2.54593e-07
3.83297e-08
3.99461e-08
-4.0769e-05
-7.62154e-06
-2.47027e-08
6.31038e-08
-0.0103794
-5.27442e-09
-7.64949e-09
2.89238e-10
1.42797e-07
4.23295e-08
1.86626e-08
-8.04372e-09
-0.00173161
-8.08736e-08
-0.00758722
1.60263e-08
2.76182e-08
-2.72561e-06
-6.27701e-08
0.000319649
2.56212e-08
1.68422e-06
4.43379e-05
0.00117184
5.1719e-07
1.19798e-05
-0.000326197
1.45655e-06
-2.1177e-06
3.79217e-08
4.09274e-08
3.59453e-08
-2.92137e-09
-9.43735e-06
-1.35963e-06
-7.94636e-08
-7.55593e-06
3.12268e-08
2.76497e-07
1.35354e-06
0.00255328
1.54076e-08
1.60714e-06
-2.54994e-05
1.56112e-06
-1.60635e-05
-1.06689e-08
4.04414e-08
-0.00171117
-2.25705e-06
2.02221e-08
2.14518e-08
3.29596e-06
1.70417e-08
-7.44628e-09
0.0126746
4.16071e-06
8.31825e-07
-1.32553e-07
4.12805e-07
-0.0217058
3.18698e-08
0.000338747
0.0012935
1.03431e-08
-9.48777e-09
-0.0070636
-1.63425e-06
-5.58771e-06
-1.50298e-07
-9.48664e-06
1.14744e-07
2.37201e-08
1.33288e-07
-2.38229e-05
-1.44302e-06
0.00298023
-0.00438579
1.16358e-06
0.000598994
-0.00597551
-3.80807e-08
-0.00138526
0.00245214
-2.52665e-06
0.0160221
2.59608e-08
3.59394e-06
5.13234e-06
-0.00416983
-1.08211e-05
0.000200687
-1.88285e-06
0.0013987
-2.34418e-08
-1.54077e-08
0.0069277
4.36818e-07
4.15249e-08
2.21767e-08
-3.0749e-07
3.22251e-08
-7.29569e-08
-2.01063e-08
4.81536e-08
0.00469971
-0.00315416
-4.78719e-08
3.30418e-07
-0.00139034
0.00159294
1.33829e-08
-2.58575e-06
0.000329122
2.45502e-06
-4.41587e-09
-6.8467e-09
-0.000288503
-3.91711e-07
5.08313e-06
6.45852e-06
-1.07987e-08
-1.30506e-05
-0.000906634
1.06245e-08
0.00516243
0.000865676
0.0134433
-6.50336e-08
1.61173e-09
-1.73516e-08
-2.80853e-08
1.87961e-08
0.00151001
-4.07681e-05
-3.28134e-08
5.73787e-06
1.18762e-05
-1.48964e-08
-1.30375e-08
1.94416e-08
-0.00194756
-0.00205754
2.31913e-05
-2.37052e-05
-7.6944e-08
-0.00360682
0.00275736
1.64145e-08
-4.58088e-08
6.31965e-08
1.1347e-06
-0.00553095
0.00182623
1.14563e-08
-0.00313344
0.0029076
2.43396e-06
1.74097e-08
1.14524e-08
1.5302e-07
-2.37122e-08
-1.23308e-07
-4.39657e-09
9.2273e-05
0.000943454
8.45863e-08
4.92126e-08
9.99147e-07
-1.21376e-08
-4.96273e-08
4.37742e-07
-0.00103546
6.10576e-09
-7.62663e-07
0.00105585
4.48284e-07
-1.78686e-05
2.78978e-06
-9.52842e-07
1.86923e-07
1.29268e-07
1.22836e-08
1.78881e-08
3.2531e-07
-0.00211643
7.7317e-07
-1.89906e-07
1.45264e-05
3.12399e-08
-0.0181308
0.000429997
8.38225e-09
0.00702661
9.69972e-08
-1.6117e-07
-9.4476e-07
0.0128331
1.44092e-06
-2.8914e-07
4.29806e-08
5.64005e-05
3.90728e-08
6.11023e-05
0.00452585
-6.5327e-10
5.01476e-06
-0.00213813
9.93502e-08
-2.26096e-07
-0.00239503
4.94414e-06
-6.01746e-08
0.00184701
1.21422e-09
3.96239e-08
0.000287419
-2.78762e-06
-0.00243773
-8.85827e-09
0.00014836
-1.19289e-06
4.89895e-08
3.74682e-06
3.94518e-07
-1.49596e-06
-2.91859e-06
0.00164113
-0.00497391
1.67486e-06
3.6462e-05
3.28872e-09
0.000537535
0.0021725
-7.06983e-06
-0.000480079
8.72563e-08
-0.00636222
6.90487e-08
-3.28821e-08
2.64283e-06
-1.3912e-07
-0.000384813
-0.000166599
-4.48863e-08
-0.00124637
0.000240791
-0.0110831
2.68023e-07
5.75079e-06
1.41189e-08
-2.11031e-07
-2.01045e-07
8.42977e-09
-0.00310036
0.00219511
0.00283452
-0.000738221
5.2196e-06
-0.00344113
0.0166704
-9.00367e-08
-9.63983e-07
0.00166757
4.39848e-06
4.30559e-08
3.75352e-08
0.00359963
5.22359e-05
-1.30331e-06
-4.77221e-10
-1.12594e-08
2.24453e-05
2.70407e-08
-4.56116e-06
0.000901104
-1.03561e-07
-0.000115364
1.67767e-08
0.00539828
1.24278e-05
-0.00250432
8.11746e-07
0.0005202
3.95809e-07
-2.60238e-08
-1.90868e-07
-0.00357115
-7.78995e-07
-0.00465221
6.70565e-09
1.67948e-08
-8.34769e-06
0.000478364
-4.97251e-08
3.38405e-06
0.000162467
0.0015633
-0.0193592
4.59657e-08
2.81583e-08
0.00385664
1.18971e-08
2.00026e-08
-7.02958e-07
-5.42262e-09
-1.69024e-08
3.66764e-08
3.63496e-08
-1.03479e-07
2.6547e-08
-1.87547e-06
1.10491e-06
4.92681e-08
0.000337543
-0.00370861
-1.00515e-06
1.24466e-08
-1.33493e-08
1.37521e-05
-5.66454e-09
4.47399e-10
6.88178e-08
1.06716e-06
1.05324e-07
3.77882e-08
-3.62869e-07
-0.000181197
-0.00339707
6.03375e-08
1.58215e-05
0.00011271
-1.53873e-06
-1.20376e-05
-0.000290274
4.22624e-09
4.83936e-08
-5.85446e-05
-3.5184e-05
-3.5448e-09
0.00178755
-3.19528e-07
-1.09328e-08
-0.0375575
3.69343e-07
2.35386e-06
0.00424111
-0.00837753
-0.00549988
2.87851e-07
1.85258e-08
-0.00691935
1.14387e-06
-0.00613905
6.7301e-06
0.000321336
0.00540358
-2.29713e-07
1.40477e-06
-2.15924e-08
-6.06301e-05
8.70828e-06
-0.0120628
-2.1798e-08
1.01796e-07
-4.04642e-06
-5.04206e-08
-0.00899661
-1.41977e-07
0.000795978
0.000600201
2.52653e-06
-9.54886e-05
-0.00317068
9.30352e-08
5.89584e-08
-3.2676e-08
-0.00206967
-0.00247252
-1.06038e-07
3.45606e-08
1.26315e-07
1.16131e-08
4.44244e-06
9.6578e-08
-1.93678e-08
0.00181032
-9.23059e-08
-1.73313e-08
1.4604e-06
0.0160685
0.00128673
0.0148876
1.05655e-08
6.22177e-05
-7.7444e-06
1.51637e-07
9.67482e-07
0.00433426
-0.0034371
4.91037e-07
3.82701e-06
1.49257e-08
1.32995e-06
8.6847e-06
3.93028e-06
0.000540148
-7.7677e-09
1.25153e-05
6.50029e-08
-0.00423759
4.05088e-06
-2.26901e-08
-2.436e-07
-9.02063e-09
-9.87091e-09
0.00020521
9.07976e-08
2.70025e-08
-3.95977e-08
1.26195e-08
-3.35762e-08
-2.47362e-07
-1.49364e-08
-3.63172e-07
-3.96248e-10
1.77954e-08
-0.00643231
-0.00218744
-0.000120516
1.37771e-08
3.70777e-08
5.0175e-08
-1.26611e-09
-2.88352e-09
-1.33515e-06
-2.68483e-08
1.72291e-09
-4.5112e-09
2.1857e-08
5.50958e-07
4.36906e-09
0.00568221
0.0206712
1.63256e-06
0.00204789
-2.5652e-08
0.0028336
7.4002e-05
-2.27012e-06
-2.87827e-08
-0.0076405
2.30643e-08
-3.33228e-08
9.66794e-08
0.00013978
6.39109e-06
4.77293e-09
1.78171e-06
8.51852e-07
4.59802e-08
8.1802e-05
-0.00131233
-9.21633e-07
5.52584e-08
1.38049e-06
-6.42532e-06
1.44162e-06
0.00360143
1.69665e-09
2.94747e-07
1.38776e-08
2.2878e-07
3.18779e-06
0.000897547
-1.22408e-06
1.24585e-08
-0.0135862
-1.78843e-05
2.77067e-05
1.2273e-08
-5.10576e-07
0.00954422
-3.67711e-08
-2.16632e-08
-2.01055e-06
-0.0100705
-4.20091e-08
5.19249e-08
1.97774e-08
-1.87491e-06
2.76855e-07
0.00100949
8.15436e-08
1.57575e-07
2.08537e-07
0.00296593
1.53808e-08
-1.39656e-08
1.80824e-08
5.66802e-07
1.47315e-08
0.00997676
0.00477807
-1.46783e-06
0.00280242
-7.71721e-09
-0.0223364
1.10149e-07
1.08223e-08
4.32843e-05
-3.83589e-06
-1.1702e-06
0.00167618
-0.0206815
-2.9083e-06
1.50947e-07
1.38333e-06
1.10824e-07
0.000362416
8.04147e-08
-1.88857e-06
0.000612841
-7.28986e-08
-0.00425939
-0.00350517
-0.00283288
-6.89222e-05
0.00172033
0.00284142
-0.00428366
3.23457e-06
-1.25415e-06
8.9385e-07
-1.98749e-08
9.48738e-09
-1.85577e-08
-0.0304322
-0.0387685
-0.00267247
-9.76854e-07
-6.8817e-07
-0.00304066
-2.72508e-09
-1.21564e-05
-1.45572e-09
1.72249e-06
1.75334e-08
6.87499e-09
9.60218e-07
1.47914e-06
-0.0410079
-8.47865e-07
1.75293e-07
9.61829e-09
-1.15626e-05
0.0188226
6.54253e-08
-4.31306e-06
3.97231e-06
1.13621e-08
1.52107e-06
1.41357e-08
-0.00293238
-3.72951e-07
0.000434403
1.50404e-07
-5.21954e-08
-9.61556e-07
2.92386e-05
0.000263735
-2.83689e-07
-0.00408378
-2.47362e-08
9.6449e-08
1.04909e-07
2.41268e-08
1.81896e-08
-1.51142e-08
9.80321e-05
0.0017367
6.39466e-06
8.16949e-08
1.11473e-06
1.2163e-06
4.96706e-08
2.10979e-09
5.99518e-06
-0.00167087
-0.00050278
1.85164e-07
0.00092135
1.66338e-08
2.4555e-06
-6.80155e-08
1.69853e-06
-0.00666495
-0.0021212
-0.00227663
1.26062e-08
9.11124e-08
-2.50326e-09
4.33499e-08
-4.23097e-09
3.89547e-08
0.0101578
1.12873e-09
3.21773e-07
-6.35807e-08
-1.6077e-06
2.7578e-08
-0.000711249
0.00184987
-0.0018543
5.70719e-08
-0.00011909
2.14468e-08
-0.00251344
-1.76138e-05
8.81737e-07
0.000329848
-2.79997e-08
2.85357e-06
-5.29186e-09
-9.73032e-07
4.23929e-07
-3.68501e-06
7.50881e-06
0.000360477
-2.73621e-05
2.06586e-06
6.379e-07
-1.32611e-07
-5.48371e-08
0.00271443
-1.84943e-07
-0.00327313
4.23005e-07
-0.0014409
0.000325924
0.00192795
-2.23487e-07
-0.0146768
-4.95454e-07
1.82223e-09
5.49767e-08
-2.67587e-07
3.29134e-06
-1.25507e-09
-0.00343605
-2.84087e-06
6.11902e-06
1.97311e-08
1.13226e-06
-0.0151849
0.00353228
-0.000707493
-8.25014e-08
7.95272e-06
-0.0715745
-0.00994854
-8.80628e-08
-3.05412e-06
-0.00157864
3.30243e-06
0.00317393
-4.98471e-07
-1.75266e-06
-2.28173e-05
3.80555e-08
-0.00338741
1.91224e-06
-1.65781e-08
-0.000125697
0.00192474
0.00247339
-1.38148e-06
4.91762e-06
-8.5459e-06
-9.83888e-09
3.75488e-06
5.01226e-08
-2.02597e-06
6.3566e-07
0.0225556
-0.0070317
-0.000104374
0.000433394
1.92127e-06
-1.26028e-05
-6.63777e-08
-3.87344e-06
-0.000279788
-0.00822939
-8.18415e-08
-6.21174e-07
-1.75914e-08
1.29293e-06
2.97213e-08
1.25693e-08
0.000564431
-1.80794e-08
3.45726e-08
-1.9534e-06
-6.13238e-07
-2.47887e-08
-1.67605e-05
-0.00804525
1.27173e-06
3.12051e-08
6.33454e-08
4.58288e-07
1.06865e-07
-1.1925e-08
-4.85732e-09
-4.32014e-09
0.000376427
-2.97608e-08
-0.000183163
-7.49936e-07
2.80305e-08
2.64421e-09
-0.00676941
2.00816e-06
-0.0036732
5.18235e-06
-6.40925e-08
1.6495e-06
-5.45588e-09
3.28057e-07
1.85336e-06
0.0185487
1.2762e-05
2.33173e-08
7.84058e-08
-2.15841e-06
-0.000880406
0.00272382
0.000440377
-1.07659e-07
7.8359e-08
6.03141e-09
-1.24442e-07
-5.75001e-06
-0.0032463
-4.1875e-09
0.0023652
2.26399e-09
-9.79037e-09
9.25169e-06
4.69672e-08
-0.00826465
9.80182e-06
0.00153487
4.82655e-08
2.43226e-06
1.8702e-06
-0.0404233
8.60145e-08
1.77537e-07
-3.89052e-05
-0.00488939
-0.0114152
0.000591321
0.0116989
-6.46781e-07
-1.53691e-06
-1.9562e-07
7.71242e-06
-0.0346568
3.09605e-06
1.68989e-08
4.8458e-08
5.86325e-08
0.00674847
-0.00105942
-9.69083e-07
0.00152404
5.93342e-08
1.22373e-08
-3.3572e-08
1.43422e-05
-4.27561e-07
0.00111638
2.01416e-08
-1.24773e-07
-4.35546e-07
0.0266416
2.61701e-08
-0.000955254
2.03349e-07
2.25444e-06
0.0236514
1.73983e-08
-4.84375e-05
-0.00843531
-0.00200978
-0.000637445
2.82884e-07
7.20456e-09
2.95728e-07
-0.00401602
1.15182e-05
1.10415e-07
0.00154687
0.000171551
7.65106e-09
-8.42267e-08
0.000216747
2.23361e-09
-0.000991653
0.0168568
-2.16446e-07
1.56157e-08
-7.13699e-07
1.54548e-06
0.00128375
1.28585e-08
2.41769e-06
4.95822e-07
-0.00178434
-0.0214079
5.68356e-09
5.86158e-08
2.64139e-06
-8.62883e-07
4.44107e-08
6.47208e-08
1.09648e-08
3.76397e-06
-1.43604e-07
-9.19502e-05
9.49523e-09
1.24453e-08
2.94922e-07
-2.20059e-07
-1.59761e-06
9.92753e-07
-0.00614947
-0.00016078
-3.44532e-05
-2.47461e-08
2.88816e-08
0.00219391
1.49878e-06
2.56628e-06
0.0011202
3.59982e-06
0.00148884
0.0161564
2.49953e-09
0.00278428
-0.000423749
-1.6276e-07
3.51051e-08
2.15105e-08
1.54421e-08
0.000333355
0.00229578
5.91089e-09
0.0155588
-0.0135655
-0.00438837
5.05477e-08
5.20195e-08
0.00344766
9.4116e-09
-2.44428e-08
-4.14178e-08
-2.87947e-08
-1.37936e-05
4.666e-08
-0.0385293
-0.000645586
3.76622e-09
0.00177942
-1.69609e-05
-0.0561816
-0.0100328
-9.59595e-09
-6.55475e-07
-2.99517e-06
-5.9549e-05
-0.00617226
-0.000491402
9.95923e-08
1.92129e-08
4.68778e-06
4.35164e-10
-0.0532336
-0.00274495
-1.53958e-09
0.00644221
3.03951e-09
-0.00430771
-3.3088e-08
0.00143899
-1.74894e-07
0.000479451
-0.00958775
-0.00135524
0.000625002
5.9757e-08
0.00155176
-0.0108658
-1.11898e-07
-0.0133088
-1.06887e-07
1.59621e-08
-1.25115e-08
-1.60223e-06
-6.47795e-07
1.74361e-08
-2.3294e-08
2.32928e-06
2.05545e-06
3.05585e-06
0.015809
4.55409e-06
8.44139e-07
5.97901e-07
4.73414e-07
5.96654e-08
9.58829e-07
0.0327178
0.0367367
-0.000366182
6.43318e-07
3.49139e-08
-2.06831e-07
5.46684e-06
-3.68403e-07
1.53672e-08
-0.000586636
-0.00638921
0.000205532
1.52985e-06
3.92806e-08
2.68305e-06
0.0371001
2.92809e-08
-2.32658e-09
6.72981e-07
-1.85303e-07
2.00996e-06
3.63553e-08
0.000555907
2.42502e-08
-0.0125007
4.71179e-08
-0.000657068
-0.0124757
0.0024596
-1.3938e-09
3.04636e-07
1.03524e-07
1.90586e-08
7.33685e-06
-0.00880844
-1.69124e-08
-6.17115e-08
0.00019234
8.44986e-08
5.21815e-06
0.000571657
-6.95082e-07
0.00062023
-2.2524e-08
-0.000369569
3.61022e-07
-0.030259
3.2086e-08
2.36401e-08
-0.000366344
3.02463e-08
0.00182588
-6.82572e-07
-2.34813e-06
0.0136857
-2.15046e-07
1.87727e-08
-1.12807e-07
-1.43026e-08
-2.64609e-06
-0.0132939
-1.72889e-09
0.00222772
1.36564e-05
0.0301288
-7.13281e-08
-0.00380056
-0.000256298
-1.19535e-06
5.16787e-07
-2.1131e-08
0.0138558
9.75147e-09
0.00906496
3.37358e-08
1.6291e-07
-5.1413e-07
4.4701e-08
-3.61147e-09
-5.93341e-06
-2.52528e-07
-2.77437e-08
0.00245227
1.71638e-08
-3.76804e-06
3.97921e-08
0.0155919
-1.1757e-05
1.76632e-09
-1.87852e-06
-2.0405e-08
-1.60239e-09
-6.82121e-07
0.0167301
-0.00215519
0.00228952
-8.41226e-06
-7.18953e-09
1.47247e-07
2.09012e-07
7.90396e-09
2.02894e-08
-0.0741774
-1.66985e-08
1.40453e-06
-2.50004e-06
4.55044e-07
0.000714822
1.81821e-08
-7.0738e-09
-0.00220567
0.0499828
4.49507e-08
1.22194e-06
-4.4995e-08
0.000269064
1.17832e-10
-2.44423e-07
-9.66024e-05
-4.83536e-07
-0.00114447
3.6473e-05
-5.22457e-08
-1.7511e-07
-1.36868e-05
-4.53749e-07
4.60498e-06
-1.95055e-06
-7.35563e-05
-4.8639e-07
5.55778e-06
-3.19004e-06
-3.34138e-05
-6.09294e-07
-0.00283621
0.000721937
-1.07715e-05
-0.00350155
-1.52274e-07
-2.85756e-08
3.83926e-08
-0.000576561
-0.00329319
-0.00839346
-0.000948266
-2.5442e-08
-5.60936e-06
1.629e-08
0.0148088
2.23818e-08
-9.08126e-07
5.99877e-06
3.35011e-07
-7.05769e-07
4.7907e-07
-3.56196e-07
-1.0472e-07
-2.55252e-08
1.33356e-06
-3.40726e-07
1.1878e-08
-3.30571e-05
-5.25774e-08
-1.06114e-07
1.39527e-07
0.00131615
-1.66788e-06
0.000478083
-2.03841e-06
-2.44042e-07
-0.000348025
-9.53958e-07
1.31403e-05
2.2405e-08