/*--------------------------------*- C++ -*----------------------------------*\
| =========                 |                                                 |
| \\      /  F ield         | OpenFOAM: The Open Source CFD Toolbox           |
|  \\    /   O peration     | Version:  v2012                                 |
|   \\  /    A nd           | Website:  www.openfoam.com                      |
|    \\/     M anipulation  |                                                 |
\*---------------------------------------------------------------------------*/
FoamFile
{
    version     2.0;
    format      ascii;
    class       volScalarField;
    location    "650";
    object      ddt0(omega);
}
// * * * * * * * * * * * * * * * * * * * * * * * * * * * * * * * * * * * * * //

dimensions      [0 0 -2 0 0 0 0];


internalField   nonuniform List<scalar> 
18758
(
-9.8563e-05
-0.10949
8.94658e-07
1.36411e-05
-0.000246176
-1.4801e-06
1.81537e-08
-7.21782e-05
-0.000220923
-0.000188866
-0.0755916
-0.0292228
0.412618
-1.95044e-05
7.13766e-07
3.02777e-06
-0.0800151
-1.71786e-06
9.03761e-07
2.45366e-05
-0.0363899
-0.0146161
-7.46735e-07
8.05723e-07
-0.00173338
-0.0109813
-0.223908
0.0112802
0.00541098
-0.0745099
2.14974
-0.281652
-6.27033e-05
-0.0137356
-0.000330358
-0.0502594
0.417972
-0.000324369
0.852332
9.35266e-06
0.0170787
4.12815e-06
-0.00360668
2.26314e-05
2.71404e-06
2.01418
-7.90226e-05
0.0057006
0.356166
0.000215513
-0.049772
-0.0758924
0.000419393
0.000198109
0.00123374
0.249014
-1.97678e-05
3.01667e-05
0.00507969
-1.28096e-05
2.69487e-06
3.74174e-05
-0.544538
0.0681053
2.19347e-06
0.836992
1.57072e-07
-2.29595e-06
0.00852494
-2.20981e-06
0.276307
-0.0396881
4.32889e-06
-0.000350429
-0.00209392
2.07811
0.0244075
-0.0653697
-0.000168305
-0.00552367
0.00399425
1.01511
-0.0698818
-0.00220085
6.9179e-05
0.00197907
9.55799e-05
-0.000438508
-0.53857
0.00214741
0.46211
7.52805e-06
0.00314048
0.428443
4.34416e-06
1.35707e-06
-4.72237e-06
0.00319736
-0.0726453
-1.07745e-06
2.34266
-8.067e-05
-2.05135e-06
1.21779e-06
0.900116
-0.0857796
0.00534511
0.446804
-1.55173
0.0846597
2.71455e-06
0.0651354
0.00011921
2.11718e-06
-3.98189e-05
-0.267363
0.00304544
-1.07298e-05
-0.0589083
0.000117549
2.87658e-06
-0.766283
6.72343e-05
-2.92804e-06
-0.0933325
0.000214343
-6.09323e-06
-3.04335e-06
0.00276949
-0.0837047
0.00527032
3.63318e-06
-0.000352172
0.00202029
2.62245e-05
-9.39824e-07
0.110706
3.35515e-05
-0.011864
0.00415811
0.000676362
0.0474857
0.00204241
-1.40245
-0.0898471
0.00188367
0.592925
0.00465651
-0.0974619
0.260491
0.148517
-0.269198
3.07038e-06
-0.000361702
0.00682447
-0.53935
0.00328313
0.0020403
-0.00218031
-0.0798208
-0.537936
-6.54691e-06
0.861062
0.562755
0.77038
1.92771e-06
-6.01214e-06
-0.551281
-0.0368385
0.0284711
-0.263427
5.94577e-07
0.00548919
0.0265246
-1.25047
-6.83716e-07
4.38111e-06
-0.012347
0.321744
1.55526e-06
-5.97182e-07
0.000214098
0.00239176
3.20727e-06
0.144638
9.66614e-07
-0.0800479
0.000321728
0.396626
0.0410199
-0.326456
7.18934e-07
0.00478426
-0.0600699
1.64619e-06
9.51928e-07
-0.0479224
3.30709e-06
0.349465
-2.75784e-06
0.000104774
-0.00153328
-0.00191298
3.09725e-06
2.91671e-06
0.794954
-8.86844e-06
-0.000367077
0.0566763
-0.232304
-4.79425e-07
0.00360076
0.000162743
6.55885e-05
5.07418e-05
-5.17971e-06
2.71225e-06
0.00361917
-5.40277e-07
0.0531013
-0.0641081
1.65204e-05
0.00187374
0.00195839
-0.00194773
-0.044049
-0.00244531
0.000547904
-0.739843
-7.68815e-06
-0.0486802
0.00198667
-1.42123
-2.04084e-06
8.88644e-07
1.43428e-05
3.62085e-05
0.221893
-0.852363
-1.52262e-05
2.49429e-06
-0.000557006
0.00348718
-3.35086e-06
0.301617
-0.00884359
1.00336e-06
1.96959e-07
-6.47233e-05
-1.61427e-06
-0.148427
1.05354e-05
-0.0951306
3.37161e-05
-2.78968e-06
-3.0722
-1.33247e-05
-0.0246521
2.49087e-06
0.106548
4.6427e-05
-3.46138e-06
1.21355e-06
0.00428507
-0.501259
-0.439713
-3.71222e-06
-0.000424722
3.47837e-06
-1.08204e-05
-0.0698885
-0.800893
-8.27167e-06
-3.62013e-06
-7.54016e-06
4.75803e-05
-0.000123124
-8.93952e-07
7.52312e-05
-2.0232e-05
2.49508e-07
3.46501e-06
1.80841e-06
0.287036
7.98006e-08
-3.36873e-06
-1.08989e-06
0.00528573
9.57727e-07
9.75063e-07
-3.48435e-06
-6.75813e-07
-1.59606e-05
-1.18133e-06
7.14031e-07
-8.1958e-05
-0.0431018
9.55497e-06
6.59861e-07
-0.0491902
1.54864e-05
1.66209e-06
1.3979e-06
-0.20052
0.00093878
-4.87534e-07
0.000334397
-0.0998437
4.28154e-05
0.172042
1.68779e-06
-0.528187
0.00708034
0.00721615
0.00505768
-0.402395
-1.25596e-06
-0.411019
-0.00706614
1.59364e-06
0.00665814
-0.00210737
0.238158
3.38002e-07
-1.55333e-06
-0.18813
-0.00372458
-1.79424e-06
-0.0812475
-0.00138571
-0.00170073
-0.000224227
4.80482e-07
7.66598e-07
2.31067e-06
2.09897e-06
4.26404e-05
0.000194365
-7.50013e-05
-1.20768e-05
3.84985e-05
-1.48017e-05
0.211712
-0.171373
-8.13312e-06
-0.336189
-0.0552751
-1.71864e-06
0.000717678
0.00762091
-0.048042
0.0263264
-0.312633
1.10537e-06
-0.038568
0.482459
0.000786682
-1.46204e-05
-0.00110325
7.18373e-05
-1.57634e-05
-0.0809074
-0.0584201
0.0061602
-0.00234369
-0.0698971
9.03637e-07
8.70325e-05
0.00022924
0.00332301
0.307877
-0.389501
-1.00403
0.148358
0.0306552
-0.557355
-3.16474e-06
1.12151
0.0049127
-0.0239722
-0.00308845
6.84706e-07
1.13528e-06
-0.0149142
0.0129306
-0.0300455
-0.0470455
-0.0991146
-1.70799e-05
-0.00662129
0.153568
2.99386e-06
-2.57938e-05
8.0808e-05
0.000298006
2.97961e-06
7.75274e-05
2.49365e-06
3.75134e-06
-3.439e-06
3.62301e-07
-0.00089517
1.28669
0.000297209
0.905765
1.0369
0.0479305
1.27673
0.00477863
-0.000115641
1.65694e-06
-0.00316885
-2.71293e-05
-1.60272e-05
-1.40012
0.00307402
0.0120317
-2.2293e-05
-0.611332
2.41873e-06
1.86576e-05
8.979e-07
0.255319
-0.570537
0.0334894
9.87548e-08
0.017124
0.00274381
2.25651e-06
0.000113927
-2.2554e-06
-1.08375
9.37178e-07
-1.44753e-06
1.32308
0.000318281
-1.76707e-05
4.15319e-06
-6.44459e-05
-0.000216636
1.02787
-0.561582
-1.54642e-08
1.04647
1.27626e-06
0.000257087
0.00107576
3.18136e-06
1.87588
-3.51164e-07
-0.000238909
1.56493e-06
-0.641568
0.000144359
2.51366e-06
0.0849046
-0.00100344
-1.46724e-06
9.11155e-05
-0.000130637
3.06871e-06
2.13851e-06
4.47784e-06
-0.284701
-0.0244798
1.08962e-06
0.000706322
-0.0562775
-0.0116615
-0.0393779
0.0242895
-0.0313694
-3.06816e-06
0.0046558
-0.000852929
-0.000878438
-5.85914e-05
0.0570899
-0.00997436
0.000591049
1.89836e-06
2.15002e-07
4.91256e-07
3.15841e-06
4.70234e-07
3.63502e-06
0.259602
-1.00418e-06
1.55673e-06
0.00241485
2.11125e-06
1.85101e-06
-5.44304e-05
-0.000102054
-0.00605979
0.0123747
-1.07489e-05
-0.0365264
-3.4779e-06
0.000305616
0.00377791
-0.194578
0.247663
2.76844e-06
1.37889e-06
-0.0252053
-0.0137804
-0.00568761
-1.37425e-05
-0.262369
0.339431
-1.12508e-06
-3.30333e-06
-0.557146
2.73008e-05
0.00456736
-0.00594208
0.000146701
0.000654206
2.27196e-07
4.73426e-07
8.52459e-06
1.63929e-06
-5.98428e-06
3.4933e-06
0.00303856
-8.82016e-07
-0.0028724
-0.00203205
-1.46637e-06
-8.44857e-07
-1.10982e-06
2.6117e-05
0.000281848
-0.864369
-7.52744e-07
0.0530293
-0.000649728
-0.000889349
-6.82159e-06
-1.40509e-05
-8.87708e-05
8.41874e-08
2.72641e-07
-0.000463824
0.211862
4.52907e-07
-5.30864e-06
-5.06496e-08
-0.489087
6.60977e-07
-6.06519e-06
3.77316e-06
1.44113e-06
-1.04944e-06
-6.64319e-06
6.20774e-05
3.11862e-06
0.00541678
-3.42192e-07
5.06926e-05
0.0103325
-0.365402
0.000302194
4.22249e-06
-2.70412e-06
1.73584e-06
3.27673e-06
-2.17393e-07
-0.152581
0.00332391
6.87764e-07
-0.0700431
-2.46331e-06
0.000804179
-1.017e-05
-3.54531e-06
0.00219064
-2.33546e-06
1.65763e-06
-0.0870688
5.17354e-07
3.22386e-07
-0.00246136
5.13782e-07
-2.66368e-09
0.334283
-5.78001e-06
0.274232
0.00178376
-2.72271e-06
1.99737e-06
-0.00204991
-9.51566e-05
0.000324983
-1.67418e-07
0.256335
0.0219185
-0.0187078
-1.28191e-07
-0.0323015
1.26089e-06
-1.26597e-06
1.57172e-06
0.000106161
0.321654
0.0257677
6.2162e-05
1.70271e-06
0.000134512
0.0615151
-0.385675
1.98507e-06
2.38714e-05
6.17679e-06
0.159671
-0.000305855
0.00970333
-1.43305e-06
0.00029002
0.00316133
-2.53792e-06
-1.68145e-06
4.16944e-07
-9.0582e-07
-0.000222721
-0.141364
-0.0913246
-0.118647
0.00720551
-0.000185948
9.37805e-07
1.1008e-06
0.0279672
-0.0392844
-1.12473e-05
0.00193836
-0.273568
-0.00932138
-2.13218e-06
7.95689e-07
-0.00236067
-0.0746734
1.1168e-06
0.00965835
-4.12684e-06
2.11687e-06
0.000425429
2.35026e-06
9.09301e-07
9.91749e-05
8.40814e-08
-1.53858e-05
-0.158495
0.00221976
-0.0243065
5.89853e-05
-1.84981e-06
-0.14612
-8.49254e-06
-0.0323459
0.00887063
-5.25083e-06
-0.8485
-0.000134507
3.22553e-06
0.0565234
0.00756451
0.0178972
-0.428771
-8.04495e-05
-0.312544
-9.75706e-07
1.55505
0.038036
0.000667971
4.29346e-05
0.0604268
2.78422e-06
-0.0024182
-0.943907
0.227095
3.04541e-06
-0.0458825
-2.34928e-06
0.00217702
0.00610269
-5.11573e-07
0.000139408
0.0254542
0.378272
-0.000134548
6.6638e-05
1.64331e-06
-1.45371e-05
4.40387e-05
0.000396684
-0.00164019
2.28968e-06
-0.187765
-0.000170619
-1.13848e-05
0.000138183
2.63937e-07
0.0126575
2.15574e-06
-1.02957e-06
0.263455
8.18039e-07
8.25513e-05
-0.0043654
0.00279268
0.00199469
2.06923e-06
-5.74339e-06
0.00198737
9.45723e-07
-0.0714413
2.38299e-05
2.42529e-05
-2.02334e-05
-1.30656e-05
1.53931e-06
-0.710505
3.46853e-07
-0.518607
0.000215431
1.13645e-06
0.390918
-3.04978e-06
0.000387889
-7.87555e-05
0.478847
2.50069e-05
-0.0205263
-0.0145475
-1.52293e-06
-0.00333509
7.99548e-07
-1.12308
-6.48529e-07
-5.52405e-06
-1.49826
-0.00529374
2.72862e-06
1.22713e-05
-6.95466e-05
2.37622e-06
1.90188e-06
0.0426097
0.196034
-2.30222e-06
2.32581e-06
7.07067e-07
0.84775
0.0114449
0.0757163
-3.83704e-08
-0.017553
-5.79234e-06
-7.06905e-06
0.000328528
-0.0908273
2.06416e-06
0.00208619
-0.546863
-2.98975e-05
-0.00572431
2.5288e-07
-0.000365073
1.97067e-06
4.57082e-06
7.22597e-05
-1.36647e-05
0.00342309
2.99563e-06
0.03496
4.15724e-06
2.07559e-05
0.00508743
0.361741
0.0020495
1.59676e-06
-1.24028e-05
-0.0024333
-0.068913
-0.00237163
2.25835e-06
-1.9611e-06
-0.000385098
-1.87281
-0.00744719
1.32655e-06
2.60806e-06
-1.47762e-05
1.11001e-05
2.99154e-05
4.16863e-06
8.06934e-07
-0.0314378
2.28069e-06
-2.1588e-07
-0.00435821
9.92977e-08
0.00843212
0.00880023
0.183387
0.184123
0.047274
0.172291
4.07978e-06
-1.98962e-06
6.90062e-05
7.46878e-06
2.04605e-06
1.15633e-06
1.28775e-06
-1.26729e-05
0.34951
0.0041683
-0.70885
0.00018459
-1.36417e-06
-0.000649799
-0.00090853
0.00286039
-7.58894e-07
5.9263e-05
2.43432e-06
0.0685891
-0.00108125
-0.0721873
-1.2125e-06
0.00634778
0.00435277
-0.00421318
-1.51539
-0.51095
3.85557e-05
0.000342403
4.67283e-05
-0.0246875
-2.61279e-06
-7.82694e-07
0.0055885
0.00869726
3.54094e-06
-0.110384
-0.0466043
1.47901e-06
3.12057e-06
1.65794e-06
9.63846e-06
4.89382e-07
-0.000142069
5.98211e-06
4.07747e-06
-2.06466e-06
-0.0844526
0.0535249
1.32108e-06
0.0622152
0.000929179
4.52195e-05
8.03959e-05
1.40628e-05
-3.17628e-06
9.61954e-05
4.08224e-05
-7.21658e-07
-8.60045e-07
-0.000123185
-4.03087e-06
-1.4061
-0.000141757
1.63293e-07
1.30638e-05
0.0487463
3.09281e-06
-1.21566e-06
1.37042
2.27578e-06
0.000494528
8.3959e-05
-8.722e-08
2.27088e-06
2.28452e-07
2.90725e-05
0.00123232
1.87435e-06
0.056218
0.00328966
0.00481353
-0.679224
-1.28061e-05
0.0564649
-1.07192e-06
-0.367666
2.63958e-08
7.55285e-06
0.00161544
-1.85814
-1.2944e-05
-0.787822
-0.0480561
-2.46662e-06
0.000343039
-1.34237e-06
4.1339e-06
-0.000235298
-4.97654e-05
8.88723e-07
0.00592648
1.15453e-06
2.93536e-06
-0.0848323
-8.88953e-06
2.21457e-06
2.23328e-06
-1.05076
1.54048e-05
-5.18545e-05
-6.34002e-05
0.00307811
0.211121
-1.32093
-0.0197126
2.69184e-07
8.10307e-07
8.26006e-08
0.378451
5.04813e-07
4.76122e-06
-3.45526e-05
2.60334e-06
-0.988747
-4.33788e-06
2.44794e-07
-0.00487868
3.63025e-06
0.00255777
2.33526
9.65275e-07
4.23248e-06
-1.28753
6.01949e-05
0.254057
0.0731607
1.24677e-06
5.96756e-07
0.601247
1.28526e-07
-3.03616e-05
-0.0363178
1.12375e-06
-0.208018
1.71979e-06
9.40397e-06
7.10732e-07
-0.000744646
-5.27309e-05
-0.0361042
6.32096e-06
4.30007e-07
-0.0720063
-0.0240638
0.00131894
0.00011107
0.0185962
0.0510212
0.000243927
9.04008e-07
-0.147699
2.85599e-06
-0.604264
-0.115611
1.44323e-05
0.00014394
-4.09463e-06
-0.058105
1.59369e-07
0.842153
-1.07933e-05
-0.002716
0.00197607
1.37719e-06
1.8866e-06
3.66e-06
-1.03525
-0.784592
-5.31094e-06
0.202428
1.03895e-06
2.22176e-06
-0.150102
-1.11071e-07
-0.0128593
1.87235e-06
-6.03058e-05
4.76254e-07
1.7046e-06
4.87454e-07
-2.99753e-07
0.00682971
-0.000304746
-0.00106849
0.000165782
-3.15547e-05
1.25743e-06
0.0213522
1.40744e-06
-0.0467264
3.19211e-06
-0.0980784
2.72885e-05
-0.0974899
-1.64738e-05
-1.69457e-05
1.43275e-06
0.173716
1.28956e-06
0.00308095
-0.00275615
3.00577e-06
0.000114762
1.60577e-06
6.7582e-07
0.000126756
6.65586e-06
-0.00686462
-5.60331e-06
4.63483e-05
-1.56582e-06
-1.74327e-05
0.385307
0.0720222
-2.05079e-06
2.37311e-06
-0.000101659
-2.709e-05
3.06782e-06
0.000137293
2.58093e-05
3.73089e-06
-5.69398e-06
-5.922e-06
-0.000204632
0.00459378
-3.19098e-06
9.72849e-07
1.49211
-1.89648e-05
-0.46404
0.00241113
-8.99356e-06
0.792829
5.45242e-06
2.64268e-07
-9.80157e-05
-0.000104091
0.00312308
-1.22662e-05
0.000339538
0.386059
2.17599e-05
1.05488
0.407003
-0.014346
0.000294516
-5.64627e-07
1.15596e-06
0.136412
2.38089e-06
-1.6802e-06
0.000264466
0.0129808
-7.76461e-07
1.76946e-06
-0.0731876
2.50914e-05
0.000184065
-0.000143194
-5.29914e-05
-0.000587519
5.58063e-07
2.72246e-05
-2.74615e-06
0.000420208
0.000170221
-1.67975e-06
7.67292e-07
0.0540304
2.61527e-06
9.07584e-07
0.0710129
1.95527e-06
6.90843e-07
1.1168e-06
-1.74568e-05
-2.07064e-05
-0.6605
0.00484296
0.122134
-0.0983893
1.0345
-0.00862704
0.00014594
0.447058
0.0609233
2.70617e-06
-7.63659e-07
-3.26641e-06
9.29535e-07
-2.08759e-05
-1.12753e-05
-0.00171977
0.0139491
-2.07113e-06
1.09052e-06
-0.00127232
0.000183538
-0.0162574
2.08808e-06
3.04891e-05
-1.05548e-06
-1.99791
-0.0861354
7.19007e-05
-0.134743
5.76281e-07
-9.42016e-07
0.00586305
0.000343247
-3.08714e-07
0.012122
-1.74693e-05
0.000226231
-0.0606689
0.00864881
0.00046078
5.19887e-07
1.18392e-06
-1.11595e-05
1.06471e-06
-0.0273401
0.00556502
0.213383
-0.204158
0.321198
-1.99886e-05
0.744076
0.466901
0.379641
0.00309498
-0.278719
-4.84577e-05
0.00125553
0.00490184
0.000409875
-1.77531e-06
3.79615e-06
-4.06938e-06
-0.00112979
2.36016e-06
1.4143e-06
-0.00868948
-0.34741
-0.676387
0.0577434
0.00470347
0.316698
0.000320164
5.84647e-05
6.26539e-07
-0.459864
-0.0131518
-2.94696e-06
-0.000110713
1.57384
0.0246522
-0.224978
-0.000460436
-0.00161636
5.69492e-07
0.138467
2.72036e-06
-0.00301208
-0.00814343
0.000240896
0.00421964
0.00502173
3.70185e-07
4.33341e-06
0.0295771
-0.0789878
-0.000170132
-1.15141e-05
-8.08271e-05
0.000142421
0.300613
-3.24421e-08
0.0230984
-8.08477e-06
-0.0140745
0.00444574
-0.000213816
-0.0917369
-0.00233187
-0.0214744
6.92679e-07
0.000490052
0.0189689
-1.05216e-05
2.842e-06
0.211541
0.0418265
2.84376e-06
1.58691e-06
-0.0662358
0.000101381
-5.52474e-05
-0.0327609
-0.0562616
8.11699e-05
0.000311369
0.349004
0.000216329
-7.10999e-05
-7.12109e-05
0.017382
-0.00017719
6.33746e-06
-4.62271e-07
-0.257856
1.70724e-06
0.137222
3.48946e-07
4.04914e-09
0.0298559
1.01321e-05
8.60757e-08
-0.00755234
1.38348e-06
-6.90729e-05
-1.18278e-06
-2.25242e-06
3.8982e-06
0.00385272
3.07721e-05
0.00153293
0.000998752
0.129204
0.25372
-0.000157881
1.56029e-06
1.82273e-06
0.033262
-0.00012329
3.68887e-05
0.0157838
-0.000562066
-0.669961
-2.67044e-06
3.63819e-07
1.26785e-06
6.26934e-06
1.24153e-05
5.31463e-07
6.65367e-06
7.1263e-05
1.10158e-07
-0.00530608
0.000800836
0.0215446
-1.65577e-05
-1.74867e-06
0.000557363
1.09892
0.491378
-0.0590755
-0.429993
-0.00536087
0.0112298
0.499835
0.00022002
0.00053957
0.00205626
-0.0226806
-2.31834e-07
-0.0957987
-0.0476365
-0.00837618
4.11569e-06
-0.0336864
-4.34349e-07
1.50629e-06
-1.48246e-06
0.000451018
-0.590119
-0.521796
3.3852e-06
-2.49457e-06
-6.15865e-06
1.70778e-07
-0.000459914
9.19057e-07
0.468629
0.00457991
0.0014541
-2.7399e-05
3.13927e-06
2.15578e-06
-0.0219362
-0.00336116
-1.98072e-06
1.08802e-05
-1.31915
1.08978e-07
3.78376e-07
5.11596e-07
1.2343e-05
3.74315e-06
2.85404e-06
-1.95284e-09
-0.153938
-5.53605e-06
-1.14707
-4.43129e-06
3.14213e-06
0.00159181
-8.21884e-05
-0.0718857
3.17312e-06
0.00238527
0.0145546
0.0127652
0.000420411
0.00920525
-0.0228371
-0.000629636
-0.00118151
5.76255e-06
3.63643e-06
1.83623e-06
5.42842e-07
-0.00471964
-0.000501073
-9.46392e-06
-0.00349576
2.15908e-06
3.34294e-05
6.35757e-05
0.132203
9.93563e-07
0.00180124
-0.0303388
0.00304086
-0.00664247
-8.23485e-07
1.64764e-06
-0.209634
-0.00038085
2.05927e-06
2.22527e-06
0.00422285
1.57357e-06
-9.49763e-08
0.351308
0.00414153
6.85616e-05
1.01075e-05
8.92491e-05
0.430979
3.05945e-05
0.0043635
0.574893
1.44162e-06
-3.53532e-07
-0.125363
-0.00066786
-0.00102973
-2.0645e-05
-0.00234824
0.000653312
2.35777e-06
5.70567e-05
-0.0101486
-0.000523192
0.485283
-0.107582
0.000922557
-0.0142483
-0.135668
2.97172e-05
-0.0294619
1.10373
0.000118848
0.56094
3.65548e-06
-0.00209024
0.00588909
-0.105917
-0.00184727
0.06034
-0.000856562
0.0531284
-8.78599e-07
-9.06109e-07
0.272072
0.000107288
3.27928e-06
2.35676e-06
-2.85814e-05
2.99022e-07
-9.28186e-06
-6.48664e-07
4.07179e-06
0.126048
-1.69107
-2.31965e-06
8.929e-06
-0.0839966
0.0545842
1.09711e-06
-0.00508341
0.0865573
0.00225298
1.7953e-06
3.46289e-07
0.00492279
-3.46566e-05
0.00237756
0.00680534
-1.23831e-07
-0.00119344
0.0232784
3.17449e-07
0.293243
0.124567
0.319687
-8.12201e-06
8.87038e-08
-2.67822e-07
-1.93043e-06
2.2651e-06
0.000911054
-0.0119058
-2.17507e-06
-0.00838719
-0.0768013
-1.09158e-07
-4.16751e-08
2.442e-06
-0.0459154
-0.0175862
0.00522258
0.000614837
-5.23056e-06
-0.138996
0.0587314
1.26168e-06
-2.24511e-06
5.29636e-06
0.000855403
0.380024
0.0296111
8.849e-07
-0.13422
0.0538291
0.000730453
1.88321e-06
1.54934e-06
5.7098e-05
-9.6383e-07
-1.63529e-05
2.64009e-07
0.0339433
0.00556772
6.07195e-06
2.15892e-06
0.000244241
-4.07119e-07
-2.43297e-06
0.000219299
-0.0258499
8.49785e-07
2.43789e-05
-0.260218
-0.0106663
-0.0075512
0.00458817
-2.93826e-05
-4.5448e-05
1.8302e-06
7.12397e-07
2.15988e-06
3.46849e-05
-0.0638671
-0.00102494
-2.88672e-05
0.0052358
4.26992e-06
-0.973128
0.103389
1.11248e-06
0.183144
6.57765e-06
-2.49853e-05
-0.000177977
0.409226
5.51754e-05
-7.64679e-05
3.05262e-05
0.0195459
2.31514e-06
-0.00845308
1.29074
4.84066e-07
0.00609666
-0.0497609
7.54257e-06
-3.90023e-05
-0.046614
0.00525407
-4.35511e-06
0.0583814
2.01817e-05
3.34101e-06
0.105782
-0.0218753
-0.23045
-5.81513e-07
0.22089
-0.000589461
3.5081e-06
0.00137416
-0.000163333
3.5796e-05
-0.000497659
0.285233
-0.205479
0.00138906
0.00792852
6.3067e-07
0.446886
0.0181868
-0.000280239
-0.742467
6.8748e-06
-0.160728
5.95888e-06
-1.50845e-06
0.00230167
-1.89319e-05
-0.0399769
-0.00975944
-1.91547e-06
-0.117783
0.176213
0.205484
4.30115e-05
0.00505675
9.37433e-07
5.1131e-05
-4.58835e-05
5.91204e-07
-0.425633
0.61295
0.0732935
-0.0334455
0.0125058
-0.100501
0.38712
-5.69022e-06
-2.27512e-05
0.832687
0.00430538
4.40171e-06
2.93792e-06
0.508102
0.0146026
-0.000369884
9.25449e-07
-1.01479e-06
0.00500206
2.61322e-06
7.5424e-05
0.0168686
-2.0471e-05
0.47396
1.16151e-06
-0.7809
-0.00339112
-2.74768
4.50427e-05
0.033831
-0.000191271
-1.35334e-06
-2.95948e-05
-0.0464748
-0.000493209
-0.110445
8.67803e-07
1.95439e-06
-0.00256661
-0.271549
-2.03759e-06
0.00441311
0.0315265
-0.254568
-1.34743
3.41711e-06
3.7794e-06
0.197957
7.63836e-07
1.4534e-06
-0.000187305
2.51935e-07
-1.09875e-06
2.91452e-06
3.16453e-06
-2.22321e-05
2.79513e-06
-0.00095453
0.000142287
9.42747e-06
0.171331
-0.0217262
-0.000287982
9.66717e-07
-1.99835e-08
0.00473613
5.17305e-07
9.47381e-07
4.96664e-06
0.00142188
7.67042e-06
4.31543e-06
-8.34641e-05
-0.0572578
-0.111862
4.22477e-06
0.00736314
0.0348256
-0.000406185
-0.00598083
-0.0555783
1.69946e-06
3.84525e-06
-0.00236487
-0.00241245
9.20224e-08
0.315406
0.000117957
2.32387e-07
-1.91263
4.05757e-05
0.00414661
0.604875
-0.160712
0.285249
7.6251e-05
2.38093e-06
-0.408566
5.58754e-05
-0.106194
0.0024072
0.0255503
-0.745679
-7.68236e-06
0.0016191
-7.04499e-07
-0.0327418
0.00728964
0.111044
-8.92067e-07
7.5021e-06
-0.000193319
-6.76716e-06
-0.680224
-1.94298e-05
-0.0218304
0.235573
0.00213052
-0.0821922
-0.0611341
6.44174e-06
4.59393e-06
-1.35603e-06
-0.0651619
-0.0625384
-1.00371e-05
3.39388e-06
1.38022e-05
8.98144e-07
0.00192326
6.85147e-06
-1.06337e-06
0.397792
-5.21789e-06
-7.33659e-07
6.65377e-05
0.381979
0.525121
0.302189
1.35618e-06
0.00785241
-0.000660128
9.80455e-05
0.00129843
0.57066
-0.0505146
0.00014903
0.00229989
1.38338e-06
0.000924041
0.00333716
0.00357503
0.0352708
9.82856e-07
0.00852526
3.66186e-06
-0.122789
0.00774236
-1.1449e-06
-4.34369e-05
9.07259e-07
8.7597e-07
-0.01463
6.647e-06
2.57718e-06
-3.57051e-07
-1.47374e-06
-2.22789e-06
-4.52452e-05
-6.71447e-08
-3.52594e-05
1.15027e-06
2.47609e-06
-0.100136
-0.0437012
-0.270743
1.24552e-06
2.14385e-06
3.17604e-06
6.0479e-07
1.56156e-07
-0.000686335
-1.67474e-06
6.73802e-07
6.98268e-07
2.22262e-06
0.000293719
1.60435e-06
1.57176
-0.000516361
0.00155101
0.646011
-8.23287e-07
-0.0813047
0.0201936
-0.00255136
-1.77681e-05
-0.65541
5.05791e-06
-1.5807e-06
7.49183e-06
0.0168898
0.00579634
1.14916e-06
0.00192763
0.000402542
3.84036e-06
0.0260381
-0.0330973
-0.000449007
4.04902e-06
8.48494e-05
-0.00105795
0.000393492
0.895574
9.71904e-07
5.45796e-05
1.5312e-06
0.000201802
0.000751053
0.00267048
-0.000598002
8.92172e-07
-3.2225
0.000478347
0.0103711
1.81085e-06
-0.000149507
0.268097
5.74663e-06
1.32888e-06
-0.000733308
-0.541096
-1.37656e-07
4.40169e-06
8.95194e-07
-0.00092352
1.09065e-05
0.0386731
6.88614e-06
0.000109951
-0.000188568
0.0972094
1.20618e-06
-8.02691e-07
1.60797e-06
3.43346e-05
1.09628e-06
0.369807
0.400375
-0.000808083
0.106884
4.89881e-07
-3.08593
8.10727e-06
1.09165e-06
0.0137899
-0.00140164
-0.00875708
0.0470162
-3.89196
-0.0125601
5.98215e-05
0.000909064
2.47489e-05
0.00550865
5.85852e-06
-6.41215e-05
0.290453
-3.35143e-06
-0.142049
-0.0749375
-0.113886
-0.0221537
0.0859686
0.420406
-0.221033
0.00502702
-0.000110018
0.000780006
-3.87457e-07
6.53564e-07
-4.42203e-07
-0.239429
0.293609
-0.0780154
-0.00030582
-0.000166847
-0.246875
6.30267e-07
-0.000932309
2.88394e-07
6.07099e-05
2.30193e-06
6.20799e-07
0.000320337
0.00169514
-1.19574
-0.000379449
-2.68681e-05
2.83751e-07
-0.0017493
1.433
3.14385e-06
-0.00246428
-0.0166589
7.46774e-07
0.00266318
1.32019e-06
-0.0136246
6.90717e-05
-0.340439
1.6626e-05
-2.8434e-06
-0.000161582
0.00970008
0.011973
-0.000726098
-0.149181
1.99455e-06
6.95513e-06
7.94819e-06
3.78371e-06
1.33651e-06
-9.09198e-08
0.161092
0.367035
0.00030839
4.07244e-05
0.000312495
0.000101689
3.87902e-06
3.24094e-07
0.006053
-0.0430316
-0.00913141
1.47748e-05
-0.125366
1.6843e-06
0.00394916
-5.76924e-06
0.00173665
-2.15813
-0.0499086
-0.0439492
9.41975e-07
6.46267e-06
6.46693e-07
3.51881e-06
4.86105e-07
3.45277e-06
0.312803
8.23106e-07
-0.000134928
-7.74942e-06
-0.000866991
2.98651e-06
-0.0165688
0.171099
-0.0295042
5.49964e-06
-0.404071
1.76026e-06
-0.0566064
-0.00853438
-0.000314762
0.00429194
1.11936e-05
0.00409373
8.85936e-07
-5.98286e-05
0.000272828
-0.0023429
0.00475642
0.021185
-0.0248427
0.00212074
0.000245549
-1.54567e-05
-2.90514e-06
0.209486
-4.01694e-05
-0.111173
4.13906e-05
-0.525228
0.101183
0.0543527
-3.79513e-05
-0.536847
-0.000122833
8.66032e-07
3.98729e-06
-6.01472e-05
0.00453445
8.60234e-07
-0.0858512
-0.000475333
0.00372435
2.50597e-06
0.000296137
-5.14699
0.13836
-0.0206147
-2.90831e-05
0.00131152
-1.58001
-0.57391
-4.54217e-06
-0.001898
-0.0341152
0.004493
1.15349
-0.000189133
-0.000482736
-0.0328716
2.61456e-06
-0.0945557
0.00251193
-1.54245e-07
-0.00108097
0.0567161
1.02423
0.000291784
0.00407704
-0.000140748
-6.26159e-07
0.00331338
4.8133e-06
-0.00269134
0.000148713
0.0830576
0.0498534
-0.0250534
0.00487916
0.00369419
0.0259342
-8.15915e-06
-0.00139372
-0.0107122
0.0218519
-7.91089e-06
-5.73637e-05
-8.10001e-07
0.000307678
1.27829e-06
1.86195e-06
0.262938
-5.30271e-07
2.47476e-06
-0.000950597
-5.90443e-05
-1.51327e-06
0.000215975
-0.466465
0.002235
2.07771e-06
4.70165e-06
0.000224072
2.5989e-05
6.35093e-09
5.02528e-07
1.77622e-07
-0.0258251
-1.60259e-05
-0.0329399
-0.000300817
2.39795e-06
3.84786e-07
-3.30016
-0.00547865
-0.166307
0.00233394
-2.33481e-06
0.000253564
4.26877e-07
0.000246107
0.0030628
-0.248001
0.00509117
2.01107e-05
1.43925e-06
-0.000604958
-0.020224
0.0642268
0.00899235
-3.93735e-05
-2.27338e-06
1.00671e-06
-3.4964e-05
-0.00448354
0.221514
-8.08296e-07
0.323717
2.25768e-07
-1.17149e-06
0.00784091
3.50643e-06
-0.550036
0.00783943
-0.03138
3.23637e-06
0.00065915
0.00181815
0.3159
6.5854e-08
-2.94513e-05
-0.0422179
-0.290807
-1.40462
0.0282744
-0.424354
-3.83422e-05
-0.0016381
-8.38752e-05
0.00131262
-0.0917623
0.000993581
1.79562e-06
3.90246e-06
3.73745e-06
0.523216
-0.337944
-0.000248083
2.1665
4.03354e-06
1.54623e-06
-1.57692e-06
0.010787
-0.00137305
-0.417354
2.44864e-06
-1.36115e-05
-0.00050797
-0.246994
2.00337e-06
-0.0238259
6.23767e-05
0.000536427
0.0954362
1.93664e-06
-0.0161054
-0.186437
-0.0439785
1.893
6.77236e-05
1.88147e-05
0.000122372
0.0276181
0.00463904
7.95186e-06
0.262864
0.00305231
5.49938e-07
-6.35038e-06
0.101195
5.75242e-07
-0.060917
-0.185445
-8.46335e-05
1.35189e-06
-0.000186328
4.48357e-05
-0.0981854
1.44337e-06
0.000674317
9.03985e-06
-0.596836
0.272331
1.2495e-06
3.75721e-06
-0.00151972
-0.000300672
3.90338e-06
5.15847e-06
1.52372e-06
0.00352924
-2.33274e-05
-0.048208
6.60627e-07
3.52638e-06
8.41686e-05
-4.37693e-05
-0.000295441
5.8132e-05
-0.177538
-0.00753896
-0.00163525
1.06062e-06
2.05541e-06
0.146181
0.000310155
0.00410931
0.406335
0.00560261
0.0152234
-0.265694
5.16278e-07
0.213874
-0.0520082
-2.51039e-05
2.79557e-06
2.60286e-06
2.12918e-06
0.506101
0.0305931
1.0924e-06
0.498426
-0.281368
0.625566
3.0155e-06
3.51949e-06
-0.440621
1.34474e-06
-1.6837e-06
-1.23879e-05
-1.33829e-06
-0.0278564
4.52863e-06
-0.0364078
-0.016252
9.94044e-06
0.725944
-0.00692525
-0.220277
-0.0826361
3.32664e-07
-0.000181285
-0.0015389
0.0502274
-0.110358
-0.0201747
9.38847e-06
2.31074e-06
0.00588912
3.82526e-07
-4.16102
-0.202298
6.81777e-07
0.567701
2.46096e-07
-0.0255958
5.49275e-05
0.0172424
-2.52302e-05
0.320262
-0.202427
0.206281
0.134944
3.66857e-06
-0.299407
0.90805
-1.21672e-05
0.130988
-7.2233e-06
1.13953e-06
-2.11907e-07
-0.000444124
-0.000155421
1.81322e-06
-7.35047e-07
-0.00182722
0.00189772
0.000891158
0.684345
0.0038061
0.00038538
6.37813e-05
0.00197669
3.98266e-06
0.0021561
-0.163138
-0.237436
-0.0136354
1.2906e-05
2.49594e-05
-3.40248e-05
0.000725392
-7.66505e-05
2.14509e-06
-0.0630464
-0.361279
0.214649
0.00038911
3.26941e-06
0.00216093
-0.15152
8.09288e-05
1.5478e-07
3.02212e-05
-3.52521e-05
0.00169371
2.93957e-06
-0.0668277
2.78458e-06
0.463555
3.18057e-06
-0.00980883
-0.31344
0.681031
6.6515e-07
0.00062456
7.60785e-06
1.21052e-06
0.00613357
-0.336966
-6.22422e-07
-2.90572e-06
0.212995
6.10393e-06
0.00397083
0.025902
-0.000272368
0.111371
-1.34915e-06
-1.64052
3.31114e-05
-0.0702656
2.21859e-06
1.79122e-06
-0.21314
2.53888e-06
0.0517064
-0.000198934
-0.000662494
0.453186
-3.5818e-05
2.22545e-06
-1.10669e-05
-1.80985e-07
0.0192943
0.187117
-6.20145e-08
0.0826082
0.00365811
-0.0766434
-4.14589e-06
-0.656253
-0.00652724
-0.000369157
0.000311207
-5.49536e-07
0.387944
8.81358e-07
0.286172
2.21069e-06
5.09688e-05
-0.0001269
3.47962e-06
3.6419e-07
-0.0030035
-5.95628e-05
-1.29845e-06
0.0338626
1.26463e-06
-0.00178022
3.19345e-05
0.0315493
-0.000775757
-2.49831e-05
-0.00111319
-4.56762e-07
7.0422e-07
-0.000176592
-0.212238
-0.104723
0.0255634
0.00455293
-2.82659e-07
1.04714e-05
1.66422e-05
1.29277e-06
1.42491e-06
-2.11377
-1.32879e-06
8.21043e-05
-0.00277431
4.36776e-05
-0.1899
3.34937e-06
-3.97298e-07
0.171164
-0.0770432
3.5853e-06
0.0017785
-1.26377e-05
-0.248499
7.0607e-07
-5.15165e-05
-0.0154218
-2.82304e-05
-0.121457
0.0338145
-1.85951e-06
-2.51537e-05
0.00804622
-0.000132305
0.00350335
-0.0059789
-0.0225815
-0.000113919
0.000469322
-0.00162787
-0.0778878
-5.21363e-05
-0.152159
-0.620744
0.00958662
0.279834
7.27372e-05
-1.10835e-06
3.57161e-06
-0.0171531
-0.0980555
-0.133989
0.00518546
-2.52525e-07
-0.0156234
5.3837e-05
0.438023
2.10886e-06
-0.000433415
0.00441521
7.07306e-06
-6.15123e-05
0.000692539
-0.000150423
-7.09027e-06
7.42116e-07
0.00288566
-8.18654e-05
1.20504e-06
-0.0118102
-6.60008e-06
-7.07401e-06
1.05111e-05
0.268351
0.000344151
8.32777e-05
-0.000714969
-5.40834e-05
0.262269
-0.000275398
0.00880512
1.4694e-06
3.14392e-06
0.286565
-0.0741045
-0.103487
8.8479e-06
-0.000106261
0.740941
0.0114957
0.00588739
-0.0520265
0.0102905
-0.00112531
-2.27289e-07
-0.18092
3.10731e-06
0.00458062
0.12276
0.00287917
0.00236258
3.31435e-06
0.25959
0.00571806
-0.00506275
-0.0216608
1.80942e-08
1.12377e-06
3.17555e-06
0.183532
1.79291e-06
0.0217672
0.00505738
-0.0670664
1.25302e-06
1.36051
0.246245
0.00495413
0.0447982
-2.19784e-05
2.91168e-06
-1.59737e-06
0.000335911
-1.08705e-06
6.73912e-05
0.299659
-2.57339e-06
-3.34443e-05
0.0105248
0.0554022
-0.153885
-0.000292783
-0.00105024
5.82658e-07
0.111185
4.33702e-05
-0.446218
0.00186675
-0.0304245
-0.000725797
0.00111363
-0.0651771
5.74173e-07
2.85581e-06
0.0232747
-0.135392
0.326873
0.00238524
0.00237534
9.54995e-06
-0.00272864
3.09523e-06
-0.396721
2.27967e-06
4.05964e-06
0.0437992
-9.94218e-06
0.0013146
1.52709e-06
0.353163
0.458671
0.00140739
-0.000614201
0.139491
0.000349448
2.46682e-06
0.242886
0.212486
0.0678215
1.46601e-06
8.49923e-06
-0.218763
0.673162
0.742957
-3.32875e-06
-5.72632e-05
3.55971e-06
-0.000360153
-8.62547e-06
4.69538e-07
-0.420876
1.15107e-06
0.331733
-7.18638e-05
-0.796091
-1.05401e-06
0.599817
0.512455
0.00483576
-0.011742
-0.100124
2.21216e-06
0.00650615
0.258179
2.12102e-06
-5.82625e-06
2.01524e-06
0.0950388
-0.0511728
3.62319e-06
-0.0774837
-0.00101679
1.09938e-06
0.139628
-1.97412e-05
0.00517282
0.0709345
0.287685
-3.39856e-06
0.404964
0.000565652
2.06774e-06
-0.0526851
-0.00205705
-0.0505875
-0.766764
-0.00156152
-0.775565
-0.0976697
-0.000464589
0.175812
0.138907
0.0455373
-5.0927e-06
3.09706e-06
3.14868e-06
-5.07809e-05
0.0150436
1.24237
0.389026
-0.994501
8.38905e-05
2.82919e-06
1.64535e-06
-0.000156447