/*--------------------------------*- C++ -*----------------------------------*\
| =========                 |                                                 |
| \\      /  F ield         | OpenFOAM: The Open Source CFD Toolbox           |
|  \\    /   O peration     | Version:  v2012                                 |
|   \\  /    A nd           | Website:  www.openfoam.com                      |
|    \\/     M anipulation  |                                                 |
\*---------------------------------------------------------------------------*/
FoamFile
{
    version     2.0;
    format      ascii;
    class       volScalarField;
    location    "650";
    object      k;
}
// * * * * * * * * * * * * * * * * * * * * * * * * * * * * * * * * * * * * * //

dimensions      [0 2 -2 0 0 0 0];


internalField   nonuniform List<scalar> 
18758
(
0.000182749
0.00249888
0.000147786
0.000183316
0.000160693
0.000139655
0.000143513
0.000152351
0.000159059
0.000157319
0.00254603
0.00377208
0.0022599
0.000151327
0.00014331
0.000141873
0.00404063
0.000130664
0.000143179
0.000156125
0.00464684
0.000253765
0.000140667
0.000139798
0.000266701
0.000287624
0.0106055
0.000214394
0.000192314
0.00468112
0.00629152
0.00923722
0.000151998
0.000407948
0.000162719
0.00546497
0.00341553
0.000161588
0.00900086
0.000134642
0.00434713
0.00015873
0.00561889
0.000145307
0.000144938
0.00374458
0.000157183
0.000191947
0.0303461
0.000181834
0.00384069
0.031734
0.000181831
0.000155544
0.000216323
0.000958434
0.000139569
0.000155557
0.000188257
0.000139296
0.000146912
0.000144846
0.0116794
0.00775338
0.000147262
0.00714138
0.00014681
0.000133299
0.000211838
0.00013083
0.0379886
0.000316755
0.000143152
0.000161026
0.000200121
0.00894099
0.000496087
0.00546939
0.000158902
0.00571321
0.000196584
0.00897533
0.00510986
0.000178909
0.000150611
0.000208478
0.00015558
0.000162226
0.0119599
0.000207741
0.0440532
0.000153292
0.000186668
0.030021
0.000143024
0.000139024
0.000132395
0.00017946
0.00583819
0.000142356
0.00533706
0.000165666
0.000133237
0.000138992
0.005181
0.00427242
0.000192528
0.0446162
9.48422e-05
0.00484104
0.000142054
0.00220045
0.000169763
0.000145944
0.000165806
0.0345806
0.000178643
0.000138142
0.0501793
0.000155446
0.000144823
0.000423549
0.000151346
0.000138115
0.0297607
0.000155818
0.000143302
0.00013812
0.000216538
0.0271157
0.00018925
0.000153329
0.000159083
0.0195199
0.000134867
0.000145824
0.000512116
0.000150012
0.000243346
0.000195624
0.000179899
0.00509513
0.000173198
0.000166701
0.0296106
0.00017706
0.00943381
0.000209866
0.00232105
0.0501988
0.0276172
0.02731
0.000146428
0.000164009
0.00428812
0.0166883
0.000186463
0.000218398
0.000182689
0.003128
0.0333255
0.000139456
0.0242508
0.00754736
0.000639447
0.000140114
0.00013935
0.0332079
0.027478
0.0038321
0.026859
0.000148335
0.000196241
0.00611657
0.00244776
0.000142669
0.000142953
0.000258348
0.000341455
0.000149092
0.000132366
0.000155983
0.000215274
0.000150714
0.0362117
0.000143604
0.00480703
0.000172575
0.0297973
0.000328804
0.0269425
0.00014354
0.000184651
0.000383936
0.000131452
0.000150471
0.000243179
0.000146247
0.0298695
0.000141234
0.000149847
0.000225654
0.000253219
0.000141814
0.000142095
0.0255419
0.000142659
0.000164831
0.027201
0.0265153
0.000144607
0.00018734
0.000152713
0.000149783
0.000154033
0.000132606
0.000144569
0.000186796
0.000136749
0.00572455
0.000368699
0.000141914
0.000172602
0.000227456
0.00025397
0.00573828
0.000204447
0.00020669
0.033344
0.000142399
0.000288865
0.000176941
0.00200881
0.000147897
0.000140744
0.000142434
0.000199795
0.0306837
0.000441327
0.000149316
0.000142209
0.000196033
0.000220589
0.000146138
0.0480912
0.000302441
0.000140813
0.000138268
0.000143271
0.000142419
0.027059
0.000144399
0.00273996
0.000143052
0.00014445
0.00225354
0.000139845
0.000342433
0.00014294
0.000672007
0.00017118
0.000138436
0.000140895
0.000183066
0.0400342
0.0394587
0.000138558
0.000236838
0.000146563
0.000145911
0.0501428
0.000871108
0.00014571
0.000141672
0.000146974
0.000153504
0.000157453
0.000135627
0.000150797
0.000151325
0.000138254
0.000153345
0.000142418
0.0102416
0.000143397
0.000141463
0.00013029
0.000216528
0.000138917
0.000138921
0.000147311
0.00014942
0.000139381
0.000142436
0.000145495
0.000149506
0.00528504
0.000157717
0.000141438
0.0306395
0.000154067
0.000142136
0.00014217
0.0174017
0.00284521
0.000132317
0.000222149
0.00447166
0.000145646
0.00065732
0.000142447
0.0362537
0.000256323
0.000195655
0.000191508
0.000507857
0.000132992
0.0160481
0.000238764
0.00014678
0.00019358
0.000180384
0.0502344
0.000140737
0.000133052
0.0266689
0.00656315
0.000139637
0.0300015
0.00018858
0.000187298
0.0222782
0.000140669
0.000140295
0.000142718
0.000145613
0.000149465
0.000158268
0.000152423
0.000143087
0.000149243
0.000149219
0.000676189
0.0159652
0.000148768
0.0174932
0.00639297
0.000139458
0.000164192
0.00369405
0.000263674
0.00496215
0.000317603
0.000143589
0.029519
0.00119369
0.000176488
0.000149184
0.000183006
0.000150397
0.000144499
0.000188923
0.000464997
0.00512991
0.000215891
0.000446866
0.000140817
0.000156515
0.000156855
0.000179552
0.0303532
0.0245061
0.00539441
0.00028919
0.00465014
0.00140778
0.000144773
0.003212
0.000212301
0.00299357
0.00509862
0.000142372
0.000139601
0.000254862
0.00481209
0.00635036
0.0480975
0.0296824
0.00014944
0.0037762
0.00434261
0.000141957
0.000151164
0.000153604
0.000150422
0.000145211
0.000151098
0.00014416
0.000156598
0.000146186
0.000143939
0.000163415
0.00428121
0.000159447
0.00191656
0.00209143
0.0303348
0.00342419
0.000210396
0.000147045
0.000140331
0.00532098
0.000151175
0.000149491
0.000430848
0.000178837
0.00357104
0.000139963
0.000340121
0.000144477
0.00015424
0.000131947
0.0295259
0.0366116
0.00481462
0.000145079
0.0243523
0.000185854
0.000144169
0.000149419
0.000144987
0.00442081
0.000145483
0.000142024
0.00100445
0.00015974
0.000149582
0.00014282
0.000152216
0.000155621
0.00149896
0.00103559
0.000148431
0.00421129
0.000131879
0.000161151
0.000205243
0.000143674
0.00385139
0.000148175
0.000156015
0.000147256
0.0121697
0.000153969
0.000144101
0.0306853
0.00293326
0.000130344
0.000156513
0.000155152
0.000141836
0.000143444
0.000151003
0.0420851
0.0371985
0.000147412
0.000165512
0.000496761
0.000256607
0.00695283
0.000302249
0.00724906
0.000137508
0.000206989
0.000191042
0.000164049
0.000151917
0.00565653
0.00128264
0.000176491
0.000139977
0.000143545
0.000138974
0.000143655
0.000138937
0.00014378
0.000812381
0.000148879
0.000131511
0.000185147
0.000152374
0.000147414
0.00013459
0.000154278
0.00130707
0.0052205
0.000142833
0.00414556
0.00014229
0.000159646
0.000214231
0.0366638
0.000358581
0.000143016
0.000143661
0.0369763
0.0219298
0.000400926
0.000139699
0.00739762
0.0116876
0.00013027
0.000141021
0.0294269
0.00015422
0.00019713
0.000372934
0.000152081
0.000165426
0.000138353
0.00014211
0.00015265
0.000143287
0.000142151
0.000146977
0.0078809
0.000132152
0.0035097
0.000532371
0.000130339
0.000132158
0.000149971
0.000156833
0.000164481
0.00084652
0.000142409
0.000318488
0.000161143
0.000164146
0.00014103
0.000142779
0.000144149
0.00014763
0.000147507
0.0323517
0.0375723
0.000138188
0.000141899
0.000149219
0.0340272
0.000132074
0.000132886
0.000144018
0.000131587
0.00014107
0.000140815
0.000152138
0.000141832
0.000189851
0.000142329
0.000135462
0.000205022
0.0368065
0.000167073
0.000143559
0.000142611
0.000148159
0.00014261
0.000152103
0.00236852
0.00563186
0.000149257
0.00629801
0.000142481
0.000165099
0.000143822
0.0001415
0.000177426
0.000130844
0.000143563
0.00976426
0.000147258
0.000150634
0.00021595
0.00014347
0.000143349
0.0295392
0.000138001
0.000737745
0.00127463
0.000142968
0.000147522
0.000176949
0.000153413
0.000164642
0.000142447
0.000841999
0.00648637
0.00715134
0.000138528
0.0308672
0.00013135
0.000144953
0.000142326
0.00017727
0.000380841
0.000217662
0.000144987
0.000150473
0.000154188
0.000620538
0.00460717
0.000141197
0.000230338
0.00015435
0.0304877
0.000158806
0.000267322
0.000139641
0.000176035
0.000178865
0.000142827
0.000139707
0.000132123
0.00013904
0.000157429
0.000201793
0.002786
0.00915724
0.000244375
0.000156278
0.000142422
0.000137876
0.00319716
0.00025976
0.000134904
0.000172838
0.0272508
0.0320579
0.000146238
0.000145306
0.000181325
0.00510651
0.000131252
0.00344796
0.000143879
0.000155278
0.000161263
0.000144949
0.000147532
0.000146976
0.000138532
0.000148164
0.00015002
0.000177236
0.00686191
0.000149228
0.000141303
0.0450731
0.000133115
0.050226
0.00803429
0.000144065
0.00024724
0.000152419
0.000144085
0.000509235
0.00678737
0.00634162
0.0416621
0.000152944
0.00900694
0.000132222
0.00186189
0.0306474
0.000173279
0.000143718
0.00402234
0.000153978
0.000198552
0.00357218
0.0216571
0.000145965
0.00742407
0.000141645
0.000173821
0.000194865
0.00014092
0.000161292
0.000482957
0.00105442
0.000160159
0.000152561
0.000131528
0.000149163
0.000152015
0.000171524
0.000205644
0.000141959
0.0456581
0.000155614
0.000145862
0.00015689
0.00013185
0.000342791
0.000142334
0.000139097
0.041696
0.000138049
0.000151548
0.00557869
0.000186394
0.000187327
0.000143787
0.000145604
0.000175505
0.000145364
0.00464131
0.000153692
0.00015474
0.000150401
0.000145744
0.000131381
0.032283
0.000131853
0.0402806
0.000234607
0.000149312
0.0431669
0.00013993
0.000179594
0.000159598
0.000856588
0.00015338
0.00360371
0.00450507
0.000145395
0.00569393
0.000135734
0.0027595
0.000145542
0.000148281
0.00352173
0.00538971
0.000142192
0.000147074
0.000152291
0.000137989
0.000143721
0.00531544
0.0376981
0.000141569
0.000137855
0.00013583
0.00115008
0.000213754
0.000652037
0.000138476
0.000234416
0.000148264
0.000145779
0.000159946
0.00516521
0.000141211
0.000173488
0.00500406
0.000143161
0.00180714
0.000144162
0.000158929
0.000141213
0.000138502
0.000156675
0.000146097
0.000179755
0.000143551
0.0165706
0.0001463
0.000153977
0.000190919
0.00118246
0.000173128
0.000141311
0.000145674
0.00412404
0.000315273
0.000193102
0.00013962
0.000142369
0.000160963
0.0153981
0.00545281
0.000141186
0.00014213
0.000149908
0.000146807
0.000148089
0.000142589
0.000144241
0.00697955
0.000142305
0.000143431
0.0041439
0.000138472
0.0003167
0.000195148
0.000609205
0.0510887
0.00471847
0.0370256
0.00014263
0.000142494
0.00015378
0.000141334
0.000141272
0.000138934
0.000140657
0.000148949
0.0120672
0.000213587
0.00314866
0.000152405
0.000141958
0.000161367
0.000163307
0.000179101
0.000146353
0.000149581
0.000138277
0.0340736
0.000337227
0.0114071
0.000147707
0.000195324
0.000211771
0.00168852
0.0179635
0.000763859
0.000151467
0.000151034
0.000135813
0.000321959
0.000146895
0.000132813
0.000188319
0.000544713
0.000142309
0.0017717
0.00389723
0.000142506
0.000142274
0.000142586
0.000144409
0.000143467
0.000152854
0.000160755
0.000143551
0.000147028
0.00887277
0.0339521
0.000143086
0.00627832
0.000249764
0.000149591
0.000145548
0.000141723
0.000137988
0.000152756
0.000149447
0.000143993
0.000147649
0.000152314
0.000146719
0.00294746
0.000157693
0.000142985
0.000144461
0.0138042
0.000146141
0.000132774
0.00143961
0.000141351
0.000164335
0.000156687
0.000143461
0.000139465
0.000137915
0.00015688
0.000170176
0.000144115
0.00493693
0.000180516
0.000205503
0.000713865
0.000149633
0.000315451
0.000132224
0.0060536
0.000149462
0.000143561
0.000219843
0.0115555
0.000147408
0.00774988
0.000311596
0.000138729
0.000160413
0.000132833
0.000149418
0.000157932
0.000149527
0.000142888
0.000791851
0.000141039
0.000141675
0.00461593
0.000141508
0.000141273
0.000139475
0.00107163
0.000144683
0.000144534
0.000160414
0.000263171
0.00495578
0.00129254
0.00777634
0.000142303
0.000131696
0.000143529
0.0143332
0.000149093
0.000141102
0.00015264
0.000137895
0.00306227
0.000147123
0.000145832
0.000314025
0.000142261
0.000185902
0.00810084
0.000131672
0.000143458
0.00246448
0.000153271
0.0311421
0.0130195
0.000137832
0.000144353
0.00397467
0.000138609
0.000152711
0.00646473
0.000136006
0.00471123
0.000142507
0.000144073
0.000143341
0.00016262
0.000149732
0.00787321
0.00015432
0.000140803
0.00453793
0.00445495
0.000170673
0.000169239
0.000675363
0.0261434
0.000269285
0.000131272
0.0260576
0.000147455
0.0307986
0.00861982
0.000141473
0.000168132
0.000147306
0.00520053
0.000139632
0.00113555
0.000141507
0.000320186
0.000212048
0.000139886
0.000131544
0.000142663
0.00499036
0.00442677
0.00014401
0.00103775
0.000146253
0.000141216
0.00568585
0.000143156
0.000256735
0.000139952
0.000153163
0.000140598
0.00014001
0.000140871
0.0001397
0.000190106
0.000173781
0.000167191
0.000162909
0.000147844
0.00014281
0.00388099
0.000142666
0.00773239
0.000145493
0.00449387
0.000156878
0.00330291
0.000139501
0.000140647
0.000141063
0.0330862
0.00014423
0.00791698
0.000189742
0.000143576
0.000156448
0.00014263
0.000138138
0.000153876
0.000141574
0.00383614
0.000144149
0.000151873
0.000143687
0.00015151
0.00072226
0.000736918
0.000145467
0.00013954
0.000145101
0.000147539
0.000141951
0.000155367
0.000148977
0.000142571
0.000137657
0.000139197
0.000229094
0.000196282
0.000145864
0.000137792
0.00191648
0.000150928
0.0213829
0.000347617
0.000148527
0.025568
0.000152697
0.000139728
0.000142863
0.000153482
0.000207195
0.000138456
0.000163682
0.00414222
0.000192109
0.00118852
0.032728
0.0325294
0.000166598
0.000145944
0.000144436
0.00501483
0.000137705
0.000146148
0.000160882
0.00112129
0.000143662
0.000140067
0.0295762
0.000153068
0.000151965
0.000155098
0.000153221
0.000192741
0.000144443
0.000153693
0.000143889
0.000167846
0.000154941
0.00014773
0.000147256
0.00670675
0.000147675
0.000142847
0.00639274
0.000131576
0.000142858
0.000145545
0.000150006
0.000146923
0.00133011
0.000208602
0.0045279
0.00468536
0.00180453
0.00673853
0.000150214
0.00933919
0.0065526
0.000145276
0.000149184
0.000146969
0.000144488
0.000150271
0.000150511
0.0002064
0.000210247
0.000146317
0.000135466
0.000181733
0.000154651
0.00668446
0.000142752
0.000149246
0.000142107
0.000555796
0.00401565
0.000160579
0.0109069
0.000142328
0.000142208
0.000190101
0.000169814
0.000141866
0.000206714
0.00014775
0.000167492
0.00566364
0.000193454
0.000167052
0.000146626
0.000147764
0.000148778
0.000138858
0.0067068
0.000188103
0.0356919
0.00193369
0.0487845
0.000147626
0.0250295
0.042415
0.0327146
0.000206236
0.0219337
0.000157103
0.00558089
0.000207106
0.000170601
0.000130619
0.000142629
0.00014566
0.000179277
0.000139544
0.000144902
0.000473567
0.0283331
0.0214622
0.00588149
0.000193474
0.00367889
0.000173082
0.000153468
0.000142883
0.0318861
0.000281328
0.000140767
0.000160838
0.00269682
0.0298673
0.027714
0.00016423
0.000180461
0.000131758
0.0305405
0.000147658
0.00620565
0.00428736
0.000166471
0.000213693
0.000208947
0.000144256
0.000143275
0.00591835
0.00301494
0.000229147
0.000147566
0.000144668
0.000154464
0.00310971
0.000163841
0.0056658
0.000148389
0.0073793
0.00475172
0.000157721
0.00889388
0.000200436
0.0316935
0.000131763
0.000174213
0.0376814
0.000159093
0.000141967
0.00485993
0.0061374
0.000142365
0.000142619
0.00370677
0.000152841
0.000149359
0.000351222
0.00378342
0.000146073
0.000160088
0.00146146
0.000161181
0.000153279
0.000152876
0.00559185
0.000157675
0.000140403
0.000141491
0.0062402
0.000139224
0.0500798
0.000136904
0.000138548
0.00734831
0.000146082
0.000142422
0.000591197
0.000131371
0.000153101
0.000137706
0.00014241
0.000144774
0.000195545
0.00014524
0.00491597
0.000216613
0.00287316
0.0323253
0.000154768
0.000137799
0.00013923
0.0377432
0.000156942
0.000144122
0.00466943
0.000162965
0.0215092
0.000136624
0.000136737
0.000137812
0.000141274
0.000144286
0.000134152
0.000150025
0.000150617
0.000143174
0.00401727
0.00015996
0.00664253
0.000149184
0.000137801
0.000162777
0.00359623
0.0459488
0.00686035
0.00736617
0.00749994
0.000208114
0.04435
0.000150118
0.00017768
0.000173359
0.0308166
0.000141264
0.0112184
0.00292786
0.00023673
0.000142715
0.00677493
0.000141747
0.000142588
0.000144538
0.000161523
0.00201405
0.000266521
0.00014581
0.000131036
0.000138929
0.000134778
0.000177366
0.000143401
0.043306
0.000184042
0.00019719
0.00014794
0.000142398
0.000133769
0.035108
0.000236019
0.000144501
0.000142303
0.0016661
0.00013466
0.000143499
0.000135966
0.00014413
0.000144614
0.000145484
0.000137792
0.00285619
0.000152173
0.00387084
0.000163668
0.000146827
0.000241916
0.000145653
0.000330584
0.000146925
0.000177728
0.0003918
0.00456597
0.000175123
0.000198187
0.0328679
0.000150969
0.000168231
0.000152704
0.000142404
0.000138658
0.000140529
0.000224437
0.000166334
0.000153908
0.000224716
0.000138401
0.000145646
0.000165638
0.00508579
0.000131244
0.000172409
0.000270576
0.000207027
0.000258449
0.000149029
0.000146692
0.0276833
0.000173333
0.000139862
0.000142345
0.000210557
0.000137609
0.000138439
0.0465075
0.000182007
0.000150225
0.000150016
0.000146791
0.0452895
0.000153417
0.0298954
0.00109848
0.000142808
0.000141951
0.0112806
0.00016343
0.000173344
0.000150397
0.00018885
0.000164002
0.000139626
0.00015544
0.000253811
0.00016849
0.0287047
0.00429455
0.000165581
0.00731376
0.0125951
0.000140435
0.00777579
0.00131657
0.000157162
0.0233229
0.000146614
0.00023516
0.000193937
0.00695013
0.000184311
0.00052465
0.00016452
0.00274178
0.000141851
0.000132857
0.0328639
0.000153284
0.000142311
0.000142214
0.000147454
0.000134285
0.000149543
0.000141392
0.000142533
0.0223284
0.00026288
0.000142534
0.000146786
0.010078
0.00473004
0.000131572
0.000256837
0.000384257
0.00017408
0.000145466
0.000140806
0.0347087
0.000147681
0.000177039
0.000197214
0.000138556
0.000170814
0.0194957
0.000142665
0.00422589
0.000523186
0.0399108
0.000149272
0.0001426
0.000143242
0.000144495
0.000142306
0.00530235
0.000285106
0.000137926
0.00329186
0.00027288
0.000149597
0.000145962
0.000142244
0.00722408
0.0319692
0.000213024
0.000212558
0.000152148
0.014823
0.00639487
0.000138669
0.000142536
0.000157175
0.00016589
0.0145886
0.00421164
0.000140409
0.00824559
0.00655995
0.000154627
0.000139935
0.000146037
0.000154694
0.000141919
0.000149734
0.000138384
0.000414668
0.00482543
0.00014487
0.000146839
0.000163283
0.000138611
0.000142661
0.000146697
0.00725171
0.000137962
0.00015138
0.0368511
0.000242884
0.000233054
0.0001942
0.000147851
0.000146784
0.000148882
0.000137563
0.000141348
0.00014918
0.00384451
0.000173903
0.000150397
0.00020644
0.000138151
0.00435214
0.000409508
0.000143558
0.0475238
0.000140655
0.000151311
0.000231485
0.0457595
0.000153601
0.000153467
0.000153125
0.000306433
0.000131981
0.0003507
0.00125221
0.000138182
0.000192607
0.00416289
0.000145017
0.000151003
0.00662596
0.00018859
0.000146979
0.00124809
0.000154496
0.000142503
0.000358177
0.000247277
0.00229586
0.00014079
0.00058483
0.000171834
0.000133558
0.000174422
0.00016056
0.000146656
0.000199101
0.00116076
0.00231909
0.000179493
0.000223742
0.000138048
0.000390233
0.00622151
0.000247746
0.000362014
0.000145074
0.0138298
0.000145126
0.000141889
0.000174287
0.00014982
0.000609865
0.00731706
0.000146826
0.00253184
0.000380372
0.0382697
0.000159374
0.000185905
0.000131264
0.000147624
0.000152874
0.00013108
0.0120814
0.00103778
0.0168606
0.00341159
0.000213625
0.00479192
0.0437416
0.000144148
0.000152353
0.0011148
0.000183123
0.000145201
0.000142217
0.00261589
0.000255969
0.000158335
0.000142865
0.000146278
0.000229308
0.000142445
0.000204831
0.00710056
0.000134166
0.0308715
0.000137287
0.0384097
0.0002796
0.00086634
0.000149374
0.00520942
0.000145658
0.000142805
0.000150453
0.0311119
0.000165738
0.00749966
0.000146775
0.000142432
0.00023273
0.000450325
0.000146761
0.000211957
0.000321771
0.00104032
0.00218661
0.000140294
0.000145383
0.00501704
0.000131201
0.000137972
0.000155178
0.000143745
0.000146857
0.000140016
0.000142054
0.000154193
0.000142089
0.000165895
0.000175819
0.000142285
0.000619884
0.0303988
0.000157235
0.000135588
0.000143126
0.000214777
0.000143569
0.000142798
0.00014484
0.000203638
0.00014386
0.000155018
0.000153344
0.000370741
0.0040976
0.000140994
0.000241439
0.000361947
0.000158444
0.000225946
0.000694247
0.000140581
0.000142757
0.000327814
0.000267001
0.000158209
0.000794009
0.000275083
0.0001431
0.00565482
0.000149435
0.000185351
0.00168387
0.012531
0.0307975
0.000153114
0.000141313
0.00525265
0.00015186
0.0124205
0.000179613
0.00456439
0.0394463
0.000140503
0.000171238
0.000141953
0.000252598
0.000197469
0.0338567
0.000141625
0.000144965
0.00020761
0.000147345
0.00218053
0.000140175
0.00206424
0.000630605
0.000173489
0.000363308
0.0300155
0.000140806
0.000140824
0.000144171
0.00437351
0.00470296
0.000148564
0.000154813
0.000148764
0.000135668
0.000173016
0.000141104
0.000136718
0.00195955
0.000148007
0.000136499
0.000153629
0.0448095
0.000568097
0.0396751
0.000145823
0.000230182
0.000163067
0.000155798
0.000207736
0.00273629
0.030758
0.000137785
0.000185358
0.000131578
0.000166474
0.000187358
0.000180128
0.00449023
0.000148658
0.000196191
0.000137323
0.0031518
0.00532093
0.000136771
0.000151236
0.000151341
0.000151776
0.0305203
0.000144652
0.000144859
0.000149006
0.000147363
0.000139141
0.000151292
0.000143199
0.000147765
0.0001434
0.000141662
0.0135465
0.0069919
0.000376451
0.000135237
0.000131923
0.000132759
0.000135795
0.000132965
0.000175783
0.000132602
0.0001381
0.000142912
0.000139868
0.000160741
0.000142628
0.00132306
0.0264582
0.000170559
0.00124534
0.000146051
0.0163465
0.000287165
0.00024014
0.000139425
0.00168441
0.00015023
0.00014431
0.000145208
0.000223147
0.000204139
0.000140415
0.000214244
0.000164242
0.000142715
0.000317349
0.00760424
0.000168638
0.000140751
0.000152773
0.000242172
0.0001542
0.00138465
0.000140501
0.000149989
0.000144678
0.00015681
0.000165699
0.0077303
0.000171415
0.000136912
0.00158889
0.000189723
0.000234876
0.000141217
0.000157033
0.0298014
0.000140401
0.000147934
0.000161652
0.0106768
0.000134042
0.000142652
0.000138174
0.000169702
0.000145009
0.00663479
0.000145257
0.000155861
0.000159788
0.0220896
0.000138754
0.000136844
0.000131711
0.000161925
0.00013554
0.0479513
0.00394325
0.000168326
0.00254579
0.000142958
0.0018414
0.000145511
0.00013783
0.000256956
0.000182716
0.000244608
0.00399292
0.00246948
0.000258463
0.000172433
0.000166031
0.000150848
0.00321565
0.000145003
0.000149387
0.000368699
0.000147563
0.00385206
0.00373201
0.0017288
0.00696083
0.00320111
0.00110042
0.00321526
0.00019488
0.000149445
0.000192524
0.000144547
0.000137073
0.000141537
0.0199549
0.0427186
0.00485501
0.000157616
0.000154826
0.00135742
0.000140557
0.000198004
0.000136658
0.000166186
0.00014225
0.000132962
0.000148651
0.000172006
0.0098013
0.000167963
0.00015957
0.000137772
0.000183222
0.00687246
0.000137374
0.000194384
0.000283343
0.000131155
0.000184254
0.000137712
0.0322083
0.000145854
0.000362252
0.000149025
0.000146004
0.000157328
0.000240026
0.000716725
0.00017268
0.0027572
0.000151013
0.000144906
0.000145156
0.000145049
0.00013679
0.000143277
0.000690201
0.0311906
0.00018358
0.000143653
0.000158329
0.000153805
0.000146012
0.000146595
0.000198549
0.00584692
0.00575372
0.000144505
0.000881735
0.000137721
0.000187052
0.000151035
0.000171175
0.00104842
0.00466984
0.00643878
0.000133148
0.000144508
0.000140526
0.000142503
0.000144609
0.00014215
0.0398792
0.000146132
0.000146144
0.000149019
0.000175816
0.000141717
0.0319446
0.0292353
0.0027124
0.000145322
0.000362187
0.000136645
0.00640517
0.000265604
0.000149029
0.00268116
0.000153681
0.000187424
0.000140301
0.000147114
0.000159478
0.000186214
0.000210904
0.00397755
0.000256888
0.000218534
0.000171478
0.000149887
0.000143787
0.00517443
0.000152933
0.00784934
0.000149359
0.00204999
0.000593866
0.0050958
0.000150925
0.00645334
0.000154053
0.000144782
0.000136024
0.000152841
0.000188934
0.000142779
0.00492062
0.000193483
0.000213075
0.000141395
0.000157812
0.00175447
0.00606261
0.00754426
0.000155301
0.00017416
0.0123557
0.00307791
0.000147909
0.000189145
0.00707779
0.000187501
0.000821474
0.000156546
0.000159218
0.000272825
0.000133965
0.00216733
0.000178198
0.000144373
0.00401871
0.00517737
0.00114805
0.000161872
0.000215349
0.000187167
0.000136804
0.000179122
0.000149313
0.000246237
0.000138564
0.0291607
0.0346385
0.000273461
0.00724295
0.000207285
0.000440431
0.000154269
0.000292478
0.00699516
0.0248985
0.000150771
0.000148738
0.000142074
0.000158325
0.000134342
0.00014127
0.000466311
0.000141653
0.000138501
0.000165396
0.000148772
0.000132551
0.000191974
0.00463671
0.00018536
0.000145467
0.000144975
0.000160014
0.000151245
0.000141561
0.000140604
0.000136522
0.000788657
0.000156197
0.000310882
0.000161105
0.000143518
0.000132849
0.000434671
0.000236266
0.00683576
0.000179614
0.000147456
0.000165767
0.000140635
0.000158615
0.000277857
0.042806
0.000207953
0.000152453
0.000137507
0.000160343
0.00725591
0.00562728
0.00654997
0.000155681
0.000138054
0.000137964
0.00015487
0.000232869
0.0296691
0.000138121
0.00211611
0.000132832
0.000143561
0.000199532
0.000140337
0.00396012
0.000202245
0.0048227
0.000133394
0.00017435
0.000171487
0.0397364
0.000137852
0.000145091
0.000268193
0.0025861
0.000570062
0.00380934
0.0357699
0.000151305
0.000233875
0.000156027
0.000166936
0.0252614
0.000160102
0.000140998
0.000145685
0.00013523
0.00487279
0.00396712
0.000156205
0.00230209
0.000135884
0.000141131
0.0001458
0.00024503
0.000284983
0.0017956
0.000143668
0.000149077
0.000163526
0.0239537
0.00013653
0.00618527
0.000140537
0.000151877
0.0273897
0.000139938
0.000294521
0.0140714
0.00645637
0.000630458
0.000144613
0.000153026
0.000156447
0.0303626
0.000214099
0.000145381
0.0287185
0.00184964
0.000131107
0.000151014
0.000454608
0.000136807
0.0302898
0.0288297
0.000155493
0.000131781
0.000155323
0.000155771
0.0114974
0.000137796
0.000172305
0.00014833
0.0232987
0.039505
0.000142752
0.000136448
0.000226298
0.000159446
0.000144694
0.000142748
0.000140095
0.000179948
0.000152053
0.000288864
0.000148793
0.000148005
0.000141248
0.000152023
0.00016125
0.000150431
0.0151273
0.00623938
0.00432142
0.000148094
0.000136396
0.00270405
0.000158906
0.000188187
0.000725012
0.000208596
0.00731889
0.0306223
0.000135988
0.0039546
0.000678806
0.000150437
0.000140061
0.000143676
0.000143593
0.000791742
0.00477442
0.000144783
0.022611
0.00919288
0.0284416
0.000132653
0.000138515
0.0236011
0.000140164
0.000146074
0.000164475
0.00014203
0.000264757
0.000155606
0.028111
0.00590965
0.00014195
0.000512011
0.000227419
0.035751
0.0367734
0.00014303
0.000155808
0.000169201
0.000293233
0.0475681
0.00129164
0.00014835
0.00014376
0.000198412
0.000136816
0.00889725
0.00689557
0.000140581
0.00439586
0.000137202
0.0315274
0.000146398
0.00375861
0.000150221
0.000898665
0.0339589
0.0369726
0.0282396
0.000135094
0.0120551
0.024483
0.000149001
0.0333074
0.000148332
0.000133433
0.000143621
0.000158884
0.000154799
0.000145655
0.000141201
0.00023859
0.000171698
0.000172665
0.0178736
0.000180677
0.000163942
0.000149508
0.000180479
0.000136306
0.00020359
0.0201854
0.0386578
0.00704366
0.000149206
0.000152786
0.000150692
0.000179225
0.00015263
0.00014126
0.0298265
0.00688701
0.0297845
0.000149071
0.000145632
0.000173646
0.0371335
0.000146889
0.000136606
0.000148793
0.000151946
0.000171053
0.000143495
0.00162751
0.000147444
0.0457998
0.000138368
0.00196706
0.00777107
0.00123044
0.000135397
0.000201227
0.000145101
0.000137431
0.000189024
0.00688684
0.000141756
0.000149362
0.0370481
0.000144277
0.000180839
0.00409311
0.00016128
0.000357872
0.000145816
0.000395437
0.00016035
0.0460271
0.000136288
0.000140809
0.000496882
0.000139981
0.00349987
0.000155824
0.000161736
0.0425173
0.000150861
0.000143762
0.000149648
0.000141472
0.00034309
0.0378176
0.000137387
0.00166408
0.000202802
0.0293483
0.000143983
0.00103454
0.00511563
0.000158341
0.000160339
0.000143967
0.0256308
0.00013364
0.0393803
0.000136164
0.000139965
0.00015403
0.000145898
0.000138484
0.000210322
0.000152757
0.000141738
0.00562257
0.000137959
0.000176462
0.000156347
0.0145096
0.000199768
0.000139814
0.000169739
0.000141183
0.000140524
0.000155321
0.0356199
0.00161849
0.00624551
0.000272568
0.000136448
0.000143686
0.000144761
0.000140338
0.000135491
0.0108145
0.000133304
0.000154566
0.000237139
0.000149572
0.0001935
0.000144743
0.000136518
0.0292464
0.0305035
0.000146124
0.000176639
0.000165021
0.0467477
0.00014154
0.00015241
0.000283284
0.000146099
0.00114038
0.000281878
0.000149402
0.00015017
0.000288927
0.000156371
0.000179838
0.000255188
0.000406275
0.000153652
0.000157441
0.000169587
0.000301242
0.000148723
0.00742609
3.68195e-05
0.00034209
0.0391531
0.000138725
0.000144173
0.000142281
0.00501275
0.00638548
0.0489524
0.0329776
0.000135264
0.000288594
0.000139041
0.026305
0.000143309
0.000167611
0.000208851
0.000147587
0.000149161
0.000207316
0.000156195
0.000148135
0.000148853
0.000182789
0.000153013
0.000140797
0.000260769
0.000148749
0.000148396
0.000143546
0.000930077
0.000187235
0.00768578
0.000161595
0.00015243
0.0380961
0.000156878
0.000202139
0.000137233
0.000142343
0.00520226
0.0303569
0.00482021
0.000145916
0.000155767
0.0189463
0.000204621
0.000202551
0.00253878
0.000282949
0.000297076
0.00013632
0.0162044
0.000140382
0.00018654
0.00255161
0.000204553
0.000204408
0.000151548
0.0307754
0.000187471
0.00594737
0.000219617
0.000141673
0.00014333
0.000144418
0.00336888
0.000137342
0.00399113
0.000188857
0.00607859
0.000135551
0.0239068
0.00245667
0.0020872
0.00721648
0.000150212
0.000147273
0.000142227
0.000158931
0.000144296
0.000158348
0.0276785
0.000144575
0.000150713
0.0326339
0.0024374
0.00151199
0.000159104
0.000164371
0.000139681
0.0314213
0.000148938
0.0101879
0.000171871
0.00167778
0.000166775
0.000202953
0.00037484
0.000142952
0.000142397
0.0283626
0.00132409
0.001154
0.000220646
0.000174486
0.00014129
0.00020888
0.000143869
0.00091476
0.000143595
0.000150992
0.00671108
0.000149423
0.000203116
0.000137601
0.00654647
0.000970366
0.000169113
0.000161014
0.0318993
0.000159552
0.000136061
0.0394706
0.00319598
0.0311575
0.000140091
0.000148657
0.0105903
0.00136946
0.0294892
0.000146059
0.000153826
0.000146196
0.000157855
0.0001483
0.000138432
0.000777419
0.000140919
0.0423168
0.000154608
0.00360173
0.000135483
0.000859553
0.00355419
0.000206179
0.000265339
0.00573371
0.000138625
0.000191909
0.000718151
0.000139788
0.000147856
0.000144971
0.0347838
0.0280225
0.000144587
0.0301244
0.000169105