/*--------------------------------*- C++ -*----------------------------------*\
| =========                 |                                                 |
| \\      /  F ield         | OpenFOAM: The Open Source CFD Toolbox           |
|  \\    /   O peration     | Version:  v2012                                 |
|   \\  /    A nd           | Website:  www.openfoam.com                      |
|    \\/     M anipulation  |                                                 |
\*---------------------------------------------------------------------------*/
FoamFile
{
    version     2.0;
    format      ascii;
    class       volScalarField;
    location    "650";
    object      ddt0(omega);
}
// * * * * * * * * * * * * * * * * * * * * * * * * * * * * * * * * * * * * * //

dimensions      [0 0 -2 0 0 0 0];


internalField   nonuniform List<scalar> 
18758
(
-0.00124717
0.709612
-3.81186e-06
-0.56484
0.424251
-0.418851
-0.197237
-1.68701e-06
0.0590779
1.60283e-05
-1.8662e-05
0.0544126
-1.82226e-06
0.00730784
-2.0147e-05
0.279131
7.39024e-05
-7.34213e-07
-1.57129e-06
-1.1538e-06
-0.101076
-1.12417e-07
-0.0738729
0.231321
-3.92904
-1.94557e-06
-0.431941
0.289679
-0.244296
-8.69519
0.00121979
-0.172271
-8.23097e-07
-1.46087e-05
0.00790862
-6.56172e-07
-5.43902e-07
9.35255e-07
-3.45374e-06
0.000293194
6.08004e-07
1.96212e-05
6.01203e-07
3.61884e-05
14.4509
-1.49655e-06
-0.0811074
-1.23761e-05
2.29023e-05
-2.20347e-08
-0.0370607
0.651328
-1.93935e-06
-1.53023e-05
0.302044
-0.488263
-5.53948e-07
0.150554
-9.58465e-06
0.00632261
0.000114384
-0.168077
0.00496337
9.2266e-06
-1.78947e-06
1.42194e-06
0.000316238
-8.87219e-07
1.48188e-06
0.642387
0.586756
-4.60715e-06
1.2913e-07
-6.71323
8.92744e-08
-9.76899e-06
0.0360127
0.52948
0.011827
-0.0372417
-0.314938
18.1545
0.00688788
-0.284577
0.0257916
-3.81655e-05
0.0395215
0.00344243
-0.160728
-9.45691e-06
-0.2193
-9.5939e-06
0.339839
3.02569e-05
-0.354956
0.344298
-0.0104813
1.91101e-07
-5.69169e-06
-0.05314
-4.16158e-05
-0.0892558
0.00417593
-0.000101763
-0.193847
13.7753
-0.747705
0.527466
-3.96793e-06
-4.08615e-06
0.359648
-4.26944
-2.38556e-06
7.27274e-06
-0.149411
0.27977
0.40638
-2.03389e-05
0.0432457
-0.308762
4.19721e-05
-2.56997e-06
-0.250869
-0.370828
0.702615
8.79967
1.35615
0.00334247
0.356849
-5.167e-06
0.000141643
-0.264136
-0.50231
8.85671e-05
-0.0497161
2.55095e-05
0.0209663
0.000404692
-5.81733e-06
0.000768405
0.00970214
0.00190973
-1.60785e-06
-0.226376
2.34127e-07
-2.42004e-06
0.634131
-0.429614
0.000950331
-0.0688008
7.80437
-0.214091
-3.82581e-05
-3.37304e-07
-0.156571
-4.68241e-05
0.0204247
-9.0078e-06
5.47514e-07
-8.57985e-08
-2.61789e-06
0.00626555
0.429055
9.79887e-07
0.000101516
-0.313702
-1.53381e-06
-0.175366
-0.139616
-0.358639
0.0620677
-7.4097e-07
0.433957
0.323956
0.00980984
0.163613
-0.281797
1.09508e-05
0.000820271
5.05493e-06
-2.41632e-06
-0.609573
-0.049687
-4.28521e-07
-9.32698e-05
-0.0156358
-6.65143e-06
0.281505
3.94817e-07
-4.94337e-06
0.000464626
0.21947
1.60863e-05
0.00075934
1.40068e-06
0.0044553
-1.42312e-05
-0.114581
-1.03861e-06
5.03745e-07
0.00208626
-8.20335e-06
-7.64355e-05
0.00242827
-1.71007e-06
-1.79479e-05
0.00418879
-1.97901e-07
-0.127419
2.73935e-06
-8.9947e-07
-0.000178484
3.72021e-06
-6.58657e-05
-0.0141829
-0.240936
-0.00168862
-0.101166
-4.52395e-07
-0.440278
-9.28129e-07
-3.06584e-06
0.00981026
0.401317
0.0881694
0.00409189
0.0004031
-0.00114806
-1.50186e-06
0.00240629
1.25743e-06
0.0057663
-0.0908461
-0.00391914
-1.87249e-06
-6.04267e-06
-1.21944e-06
-1.5284e-06
-0.221389
-7.05303e-05
-3.65539e-06
-1.16013
-0.7689
-1.83361e-05
-0.0462104
-0.130059
0.018402
-5.43034e-07
-0.334728
1.73186e-05
-8.96958e-07
-0.208547
-4.05858e-05
4.82569e-06
-7.28628e-06
8.48572e-05
0.0895984
0.153239
-7.10459e-05
-0.00181421
-2.14889e-06
0.00250305
1.35176e-06
0.00244017
2.76704e-06
0.0121845
-0.204867
-6.93762e-07
-3.36625e-06
-0.00395217
-2.72419e-06
-8.19481e-05
0.00240913
-0.349365
0.489514
-4.14751e-06
-6.24328e-05
3.72044
6.00037
1.98995e-05
3.82476e-07
-4.92573e-05
-6.19825e-05
-1.84547e-06
3.9485
-2.27092
-0.0646891
0.789084
-0.0906604
-2.7566e-07
-3.85813e-06
0.00102845
-0.294156
-8.80297e-05
-0.00110537
0.00260294
-4.47231e-05
-0.278671
-1.05379e-06
-2.3804
-0.329909
-1.43159e-06
0.40449
-0.000462561
1.10412e-06
-3.74545e-05
0.000238946
-1.82849e-05
-7.95708e-07
-0.195141
-0.149699
-1.59544e-06
-0.240733
-0.296181
-0.076104
1.71524e-06
-8.25232e-06
-2.12593
-1.77791e-05
-1.98948e-07
7.12533e-07
-1.83192e-06
0.01241
8.10287e-05
-5.13877e-05
-5.69935e-05
1.48518e-05
0.000974393
-2.24742e-06
-8.27529e-08
-0.0688375
-0.000997179
0.0116325
-0.585028
-5.78624e-06
1.55594e-05
-9.82512e-06
-2.20776
0.475009
-1.06751e-06
-1.04903e-06
-8.32652e-07
2.22643e-05
0.000447398
3.76877
-1.99042e-06
-7.6596e-06
-3.79367e-07
0.830168
-0.0180054
-0.0185793
-0.00192886
-1.85673e-05
-0.0341575
-0.00107193
-2.87213e-05
7.03524e-05
0.0632679
0.28659
-0.0268962
-1.27573e-06
-5.42313e-05
0.647913
-0.385326
1.21425e-05
-2.05741e-07
0.000752515
-1.24845e-06
-5.82625e-05
0.4137
0.402366
0.00582721
-1.04462e-05
-0.120715
-1.08211e-05
-6.56578e-06
-7.50661e-06
-2.57766e-06
0.0059323
-2.56239e-05
-0.252023
-0.0205244
-6.01511e-06
-1.21038e-06
0.335767
0.00568971
0.0627853
-1.00347e-05
0.000134546
4.39331e-07
2.2048e-05
-2.49376e-06
-7.31741e-07
0.44959
-0.118859
-1.8683
0.246815
-2.32072e-06
0.014419
0.149744
0.000101394
-2.31551e-06
-0.57129
1.2599e-06
-2.77284e-06
-2.5157e-06
0.00639813
-2.30919e-06
-9.10151e-06
-0.00264107
-0.301256
4.42013e-07
0.435382
0.000563937
1.68126e-06
-8.30523e-05
-1.04366e-05
-1.03472e-06
-4.97927e-05
0.0020491
0.000960592
0.678442
8.95277e-05
1.42555e-06
-0.010333
-0.0878224
0.0967443
0.100546
0.00591961
1.80796e-05
-8.07063e-07
-3.35583e-06
3.0273e-06
0.00558019
0.000227137
-0.000267017
2.33219e-05
-3.92865e-05
-0.0900196
0.00390154
-1.03942e-05
-5.73245e-05
-0.148215
1.80287e-05
0.575149
-6.26897e-06
1.94838e-07
-0.563847
2.79576e-05
-5.07535e-06
0.0502954
0.0077919
0.000155702
0.247815
-9.69357e-06
1.3752e-05
-0.0670511
0.0282621
-0.000258123
-0.000187844
0.00586925
-0.0301947
1.03146
0.00799139
-6.02576e-06
0.00124028
6.47464e-06
0.00573893
4.09643e-06
0.278933
5.02699e-05
0.744477
-0.000232384
0.00193182
-1.50532e-06
0.269904
2.86308e-07
0.59629
-7.58114e-06
0.00294859
7.78081e-07
-1.98259
-4.63063e-05
-4.47439e-07
-5.05099e-06
-2.47918e-06
-0.336024
0.741948
-0.139588
0.000223614
-7.32538e-05
0.000551453
-1.95394e-07
7.11213e-08
0.672085
-5.1926e-06
6.87517e-07
0.00264402
-1.4489e-06
-2.92115e-05
0.000815631
7.16915e-07
-3.52436e-06
2.96532e-06
1.56055e-05
-4.83568e-05
-0.0338704
-0.000612233
3.64051e-06
-1.92329e-05
1.34152e-06
-0.0237059
-5.87645e-06
-8.60729e-07
-4.5701
0.29882
0.00159233
-2.04468
1.02658e-05
-2.05363e-06
0.328623
-1.65966e-06
0.374124
-0.0113272
-1.61575e-07
-0.0357337
0.247805
0.00085011
-2.58058e-06
-0.000591981
0.620855
7.06357e-07
1.81471e-06
-2.29885e-05
-1.82299e-05
-2.72242e-06
-2.04548e-06
7.98195e-10
-0.26679
-3.9758e-05
-0.299233
-1.89081e-06
0.0154443
0.697515
1.27508e-06
4.78525e-07
-3.51447e-05
-1.06109e-06
2.05252e-05
7.70243e-06
6.05208e-06
0.0048314
0.425301
-1.89762e-06
0.637328
0.333153
-3.13885e-05
-0.0151596
2.28986
1.69873e-05
-0.000535085
-5.49955e-05
0.614909
-3.73774e-05
-0.000112669
2.17013e-06
1.30579
0.000251034
-0.0143407
0.00784149
-0.183529
-3.62282e-05
-8.78786e-06
0.00047083
4.03849
1.97947e-05
-0.0642823
-5.93478e-06
-0.436868
2.112e-05
1.25202e-06
-2.49821e-06
-1.48472e-06
0.383496
-0.352154
-1.01852e-05
-0.0492811
-6.04514e-05
0.0447679
0.222001
-1.59288
4.12348
-4.87098e-07
0.220272
0.0005034
8.14203e-06
0.000327685
0.650439
-0.639911
-1.45811e-05
-3.25795e-06
8.09695e-06
-3.56317e-06
-0.338622
0.00517388
0.329047
0.0702413
-9.51423e-06
-1.06084e-06
0.00108885
-3.67198e-08
-2.72433e-06
6.71724e-06
-1.90962e-05
0.00491713
0.000228371
-0.000620188
0.54902
1.98005e-05
5.40201e-07
2.71111e-05
0.00849948
0.643785
-0.000218985
-5.70365
0.000297064
-1.02936e-05
-0.000546585
-0.014797
1.72573e-05
-6.9771e-07
0.098936
-0.156186
0.0952903
-1.3826e-06
0.747693
0.824337
10.5483
-1.70394e-07
-0.138778
-0.181263
0.122048
-2.48839e-05
9.22213e-08
-0.198603
1.58875e-09
0.00956888
0.300573
-0.0139778
-0.160042
0.00372462
0.0746304
0.00209768
-5.36822e-06
4.24947e-07
0.166245
-0.284612
-0.228738
-0.231284
-1.68239e-06
0.00914989
-3.08701e-08
0.000405113
0.00401172
-0.0200704
-3.21943e-07
1.30796e-05
0.0108702
0.622286
0.139327
-0.297358
-3.4242e-05
-4.48364e-05
0.0286591
-7.40123e-06
5.15883e-07
-4.57651e-07
-0.000141285
0.0015544
1.61315e-06
0.00326547
-3.42412e-06
-6.06883e-06
-1.27283e-06
0.390594
-2.70291e-06
-2.60088e-07
0.0009037
0.00056804
-1.89189e-06
0.596109
-1.35815e-06
-1.72494e-06
0.000126433
9.34446e-05
-8.08992e-05
1.20121e-05
3.94579
-4.8898e-05
-5.48964e-05
-0.0456899
-7.38764e-05
-0.473528
4.15004e-05
0.00486457
-0.0373736
-0.383874
-7.18876e-07
0.617838
0.190713
-1.64646e-06
0.261021
9.927e-07
-1.51511e-06
0.000147101
-6.2043e-07
-0.00123945
0.642741
2.83277e-07
0.478014
-8.31409e-07
5.06471e-05
-0.300176
-2.30302e-06
-0.0341007
2.87612e-05
-1.13705e-06
-5.14373e-06
-6.06933e-07
0.0204457
0.00205183
0.448319
-0.000819495
-0.377654
0.00105427
1.49048e-06
-0.000965434
-0.260085
-0.65535
0.000278727
0.040709
0.000236532
-4.107e-05
0.0198274
1.37369e-05
-17.8358
-1.54434e-06
-0.114475
-1.63093e-05
-0.000117025
1.71482e-05
-2.62798e-06
-0.152944
3.98685e-06
-2.95082e-06
1.03223
2.56657e-05
-1.16703e-06
0.000343229
0.000203631
0.0300779
-13.7881
-2.09979
0.192231
-1.08921e-06
1.13926e-07
0.316352
1.61033e-06
-3.30341
0.00452164
-2.11196e-05
6.17691e-07
-4.52411e-05
-1.51366e-07
-6.49468e-07
-0.000108468
-1.34686
0.00238935
0.104588
-0.000555162
-1.1136e-06
0.00117322
-0.260772
-3.22616e-06
0.00382048
-2.97326e-05
0.653683
8.64113e-06
-0.227646
-1.64109e-06
0.378164
-9.52778e-08
0.00346922
7.87237e-06
-0.000123658
-0.000449675
-2.11965e-06
-1.88313e-06
-8.49461e-07
-0.275868
1.18172
-0.000126554
-0.100779
-1.03108e-05
0.000212348
-4.73478e-05
0.00960709
-0.010774
-0.000146198
-1.97354e-06
-0.0124695
-3.31397e-06
-1.02781e-05
-4.69256e-05
0.428808
-0.332577
-0.332721
-1.11239
0.00679979
-7.36735e-07
-4.39384e-06
-16.5716
-1.45082e-06
0.366086
-6.10267e-05
-4.27817e-08
0.230366
-0.425528
9.92906e-08
0.526006
-2.55954e-05
0.00181733
-0.00526328
-3.36153
-0.429407
-6.66662
-1.81201e-06
-3.90477e-06
0.575594
-3.37917e-06
1.45453e-06
-5.82311e-05
-3.69508e-06
-0.2492
0.0526656
0.0011413
-0.284144
0.000596467
0.00772644
-2.97003e-05
-9.08998e-07
-2.43409e-06
-2.403e-06
0.512955
-0.467027
0.0476663
6.03148e-07
-2.18887e-06
-0.000515341
2.84779e-06
0.000153121
6.72856e-05
-37.0464
0.61914
0.00352295
0.0154733
0.0299425
1.74264e-06
0.0213073
-3.80127e-06
-0.022681
0.196378
-0.0108033
-0.0937334
-2.08927e-05
-0.000118824
3.64395
-0.291562
0.0184522
-0.000138754
0.0400566
0.241137
-1.37796e-06
0.0222966
-0.253499
0.00550907
-1.44802e-06
1.35438e-06
0.000225821
0.0885067
-0.0415548
0.000773184
-9.32639e-07
-0.000103664
9.52748e-05
-2.25889
-1.28662e-06
-0.247856
-3.86166e-06
1.58058e-05
-0.0263937
-2.94774e-06
1.7452e-06
3.8643e-07
7.41859e-06
-9.23653e-07
1.74122e-05
-2.17404e-07
-1.91727
-0.534611
-0.39318
-4.48643e-07
-0.000685086
5.12629e-07
0.0232211
0.019263
-7.20581e-05
-3.69245e-06
-1.89861e-05
-1.21213
0.006645
-5.05896e-05
0.406161
0.00520682
-1.02107e-05
-9.76597e-06
-0.376022
-0.133842
-0.00210967
-3.5173e-07
-2.26922
-1.03321e-06
3.01067e-05
7.10152e-07
-3.28598
-0.169176
-2.10068e-06
-2.40255e-06
2.66741
-7.42256e-06
-0.0346749
0.0817305
0.0010622
-1.87186e-06
-5.16767e-07
7.08512e-07
-1.85814e-06
0.00744956
-0.764878
0.0303789
6.30185e-06
0.266582
-3.0801e-06
-4.28813e-06
-0.298333
1.31292e-06
0.36913
-2.69768e-06
3.33219e-05
9.9117e-06
-3.23303e-06
1.48874e-06
-1.11848e-06
0.100215
-4.7916e-06
-9.57797e-09
0.0315725
0.000247244
-2.20662e-07
0.000138698
-6.97587e-05
-1.22144e-06
0.0177129
-9.22037e-07
-5.04368e-05
-0.226031
0.00151423
-1.39784e-06
-0.0399232
0.00349526
0.000629727
1.0391e-05
0.00173047
-0.115248
-2.04549e-05
0.00104264
-7.66867e-07
-2.65696e-06
1.1415e-06
-0.000715765
-6.31644e-05
-0.000179314
-6.14321e-07
-4.99307e-05
0.000506506
-0.132075
0.0133145
-5.43485e-06
-1.18287e-06
1.64088e-05
-0.00170194
-2.94817e-06
0.115529
3.26656e-08
-2.34604e-06
-1.05251e-06
-0.0171182
-0.209417
-9.29517e-07
-2.51255e-05
-1.63689e-06
0.00441127
-2.42265e-06
-4.10479e-06
-0.0134424
-2.21024e-07
-2.67952e-06
-1.00084e-06
0.0298548
-2.46067e-06
2.48418e-06
0.0736932
-0.268227
-0.0161273
5.58124e-05
-0.122046
3.0868e-08
-3.31471e-07
-4.96251e-06
1.57676
-3.69827e-06
0.00204829
0.00380096
0.000194054
2.43089e-05
-4.97047e-06
-2.26571e-07
2.24418e-05
-4.3245e-07
0.00231386
0.631491
-8.90736e-05
-2.44411e-06
0.034825
0.000245058
-0.20527
8.0303
0.00279381
-1.22841e-06
-3.45855e-06
-4.42093e-06
0.00111578
-1.11216e-06
1.12302e-06
-0.51598
0.0632213
-0.000706908
-4.37518e-06
0.000411779
-0.036855
-6.17778e-07
-5.41317e-05
-8.88858e-05
0.040968
0.00251385
8.03407e-06
-1.3003e-05
9.80849e-05
-2.4876e-06
-0.00026152
1.45995e-05
32.0606
0.000443957
0.00198677
1.31429e-06
-1.55854e-05
-0.277002
-0.460232
3.63067
-0.000757427
0.0842272
-1.15444e-06
-3.60313e-07
-5.86812e-06
-0.000134784
-3.84059e-07
3.61543e-06
-4.54329e-05
0.00100931
-7.58977e-07
-3.8881e-07
-1.90787e-06
-1.19483e-07
-0.159521
-0.214629
3.0405
1.4702e-06
0.00274391
8.32157e-05
-9.23049e-07
-0.000223979
-1.08285e-06
0.00143534
2.03318e-06
-1.07686e-06
-0.135882
0.0895247
-0.230074
-5.92538e-06
0.311112
-1.53964e-06
0.00818725
-0.178782
-3.88324e-06
0.00137981
0.0572025
-2.92032e-07
-1.07088e-06
1.95251
-4.32776e-06
1.41347e-06
-0.0467699
-2.49711
-1.77284e-06
-3.64008e-05
-9.62343e-07
-4.77398e-05
0.0061009
-9.0262e-07
-0.23098
0.000215748
-3.40313e-07
-4.00253
0.000797032
0.00308498
-1.27591e-07
-0.046411
7.38431e-06
0.554068
-7.45027e-07
1.22236e-06
-0.0777024
-2.05434e-06
-0.211197
-2.72467e-07
0.000333709
-0.200557
0.606267
1.06217e-06
-4.40183e-06
1.72664e-06
6.16845e-06
-3.37302e-05
-3.73777e-05
-3.28659e-06
-0.273318
-3.8602e-06
-1.15604e-06
0.0364463
0.0027774
-7.56377e-05
-1.68535e-06
-1.05449
0.0020082
-4.20126e-06
8.59458e-06
-5.51382e-06
1.19367e-06
-0.284903
-3.41181e-07
9.72035e-07
3.10572e-06
-0.270846
-8.71311e-07
-6.73177e-07
0.42038
-4.74653e-05
0.237227
-0.000195222
-3.4115e-06
-1.70706e-06
1.94441
-0.000166401
3.9485e-07
-0.215638
0.232637
-2.47342e-06
0.0378704
0.00315966
-1.28915e-06
-8.94819e-06
-0.00554072
-4.34273e-07
-1.66743
-3.86508e-05
-1.56606e-06
1.37278
0.244663
-0.0070069
5.66279e-06
-0.387168
-2.87396e-05
-0.319739
-0.067324
-8.06715e-06
-0.130489
1.32004e-06
8.05165e-05
-0.000168067
0.609834
-1.8116e-06
-5.4773e-06
-2.54801
-1.01445e-07
7.46868e-06
-2.05879e-06
-2.54048e-06
0.256841
0.000472513
2.67716e-05
-2.84938e-05
2.50438
-6.15905e-06
-1.1723e-05
0.000721562
0.0072965
-7.74771e-05
-3.37007e-06
-2.6477e-06
-1.27857e-06
-5.96669e-06
-2.17016e-06
-1.69689e-05
-2.39631e-05
-1.70368
-7.92489e-07
-1.21922
6.39486e-06
-0.000197234
-5.78703e-08
1.03734e-05
-3.8649e-06
-3.07336e-06
0.0416155
-0.0925533
-1.2111e-05
-5.35398e-07
-0.375143
-3.31926e-05
-0.0993439
0.000110149
0.00196725
0.21069
-0.271679
-0.205255
-2.20268e-05
-1.66072e-06
-2.41108e-06
-0.416934
3.48748e-06
1.41186e-06
-0.00477969
2.87149e-06
-4.59594e-07
9.64923e-07
-0.100729
0.421749
-9.35798e-07
0.0617652
0.670889
-3.4393e-05
-1.77582e-06
-7.60796e-06
0.17907
-1.91362e-06
0.00149417
-8.87352e-08
-8.71421e-07
-2.85183e-06
-3.9007e-07
0.00286047
-1.12498e-06
-1.0866e-06
1.16763e-06
-2.2657e-06
-0.0558347
-4.62763e-07
1.14964e-06
-3.12813e-06
-4.77353e-06
-0.00394085
-1.52463
0.000642901
2.07313e-05
-8.34332e-06
-3.77136e-07
-3.84069e-07
0.117836
-8.04174e-06
-3.71712e-05
5.36153e-05
0.255796
-5.42524e-07
-1.95246e-06
-0.194926
-1.00935e-06
-0.00124016
0.00150371
-4.10248e-06
-0.194792
0.185283
4.03231e-05
-0.213673
-4.71846e-05
0.00515578
-3.10486e-06
6.09298
-8.41397e-07
-11.5789
1.19172e-06
-1.76791e-06
0.512559
0.218453
-0.154898
0.18509
-2.73948e-06
-0.086409
-1.01493e-06
0.191376
0.000935856
-1.07044e-06
-3.22978e-06
-4.71638e-07
0.000221546
-0.00152896
0.357981
-4.63734e-05
-7.85746e-06
-1.85263e-06
-1.32694e-06
0.266211
-0.00348171
-1.42117e-05
-1.13116e-06
-2.6969e-06
-3.83595e-05
-0.295259
-5.90121e-07
-3.71073e-05
-0.00179471
-7.21626e-06
-3.56002e-05
-8.45472e-07
0.000972232
0.00929132
-1.6602e-05
-8.30644e-05
-2.04772e-06
1.47987e-06
0.418959
-5.2787e-05
0.00167534
0.521126
-1.38467e-07
0.331013
-0.472536
-0.00301412
0.402473
-2.16495e-06
-0.106007
-0.147217
0.00556956
-2.64038e-06
-0.355049
0.00819706
6.46889e-08
0.000130343
-0.065688
2.07165e-05
-8.23e-08
-6.19375e-05
-1.96844e-07
0.544927
3.24252e-05
-2.4594e-06
-9.25842e-08
-4.26077e-06
0.0024981
-0.000516107
0.266984
0.00379476
-0.180492
-4.58185e-05
-8.05129e-08
-2.2255e-06
0.314673
0.225386
-5.73616e-07
-5.15415e-06
0.00408982
-3.26191e-06
2.87702e-05
0.130903
-0.162606
-4.7198e-06
-1.06969e-05
0.0935859
1.25375e-06
0.665566
-0.29324
4.2809e-07
-0.155673
0.000682582
0.00884926
4.92593e-07
0.12652
-8.94004e-07
-0.0951031
-2.87054e-06
0.00057062
-1.93286e-05
-1.33169e-08
-0.339716
-1.52851e-05
-1.06608e-05
-1.35035e-05
0.154676
-2.42205e-07
-5.62748e-07
-0.0463037
-7.87398e-06
-1.40853e-06
-1.07914e-06
-0.000117275
8.66121e-07
-1.4667e-07
-2.02251e-05
-2.44947e-07
5.21438e-05
-2.87549e-06
-0.00815498
-0.323655
0.0129083
0.0208428
-0.000187103
2.49491e-05
-6.2309e-06
-2.4669e-06
-3.22576e-06
-0.163908
0.0491009
2.04148e-06
-1.05492e-07
-3.41364e-06
-2.23489
-5.82712e-07
0.00295794
-0.0525552
0.141929
-0.235942
0.422644
0.114472
-2.41955e-06
0.0898795
0.262543
-0.13182
1.24634e-05
-4.74225e-06
-0.000213949
-2.49969e-06
-0.0154014
0.00657539
0.000982212
-4.36296e-05
0.396455
-3.89413e-08
-3.84263e-06
0.210811
0.00709426
9.01197e-06
-2.53343e-06
-0.000183738
-9.89829e-07
-0.360385
2.89298
0.151315
-0.261601
0.00287512
0.963654
-7.87703e-07
0.0257417
-7.51221e-07
-1.68443e-06
-1.72281e-06
-0.214896
5.0629e-06
3.70679e-06
5.69099
-0.0605411
-0.270801
0.00780832
6.31788e-06
-3.77912e-05
0.54015
-0.0330665
-0.120741
-0.058862
-0.0108781
-0.229868
0.00355441
0.0978487
0.000626077
-0.000584227
-6.38595e-06
-3.13622e-05
-0.000475837
1.29066e-06
-0.33294
-1.63972e-06
8.7915e-06
1.6554e-06
0.297003
3.43994e-05
-2.48287e-06
-3.7506e-07
-4.79772e-07
-0.00245645
0.00136582
-0.751721
-1.54242e-05
0.107521
-2.46706e-06
-5.29547e-06
0.00277485
-0.00073506
-2.97931e-06
0.142343
2.71836e-05
0.317526
7.27357e-08
0.226842
-0.00202382
-3.75406e-06
7.96216e-07
-4.28383e-06
0.148559
0.276561
-0.251946
-1.71894e-06
6.81765e-06
-1.00715e-06
0.373819
7.09262e-05
3.75272e-07
0.62987
-6.30782e-06
1.0665e-06
0.0567457
-2.77502e-06
-1.74283e-06
3.03254e-07
-8.57775e-06
-3.12649e-06
-6.29555e-06
-2.89663e-06
-6.00498e-06
0.00311853
2.71762e-05
-2.44154e-06
-0.00448895
-2.65279e-05
0.57395
-0.0703722
-0.000249707
-0.261878
0.348391
2.63674e-06
5.08134e-07
-8.24143e-07
-1.53787e-06
-1.13917
1.34868e-05
-0.023594
2.64792e-05
0.00517756
-4.87246e-06
2.0583e-05
-1.46184e-06
0.135391
0.000532406
-0.0424445
-2.52576e-06
0.00268367
-0.000154922
-2.40074e-06
7.72736e-05
0.000122435
-1.85246e-06
-0.312664
-5.3023e-08
-0.000110348
1.20829e-07
1.29092e-05
-0.000226925
0.0124628
1.20505e-05
0.00292397
10.4715
-3.80798e-05
-0.000569833
-2.53426e-06
0.165344
0.000283831
-7.48872e-08
-0.000140783
-6.14961
0.00542838
-2.14296e-07
-1.34568e-05
-8.0268e-07
-1.87405e-06
-9.46319e-06
0.27794
-9.70014e-05
-1.2039e-07
0.48843
-9.45611e-07
-6.78756e-07
2.28624e-05
0.638086
-7.56518e-06
0.641951
-0.19736
-0.0144065
0.41238
-1.36765e-05
0.401076
0.00133012
-1.6953e-06
-0.000138348
-9.7787e-06
-6.29869e-06
6.51423e-05
-0.2431
0.00142801
2.9503
0.0524364
-6.36245e-06
-0.0444788
-1.67335e-06
-0.00159432
-2.07503e-07
-0.267525
-0.385997
-1.1506e-06
1.37895e-06
1.57355e-07
-0.000161444
0.00263982
-5.47875e-07
-0.247621
-2.30543e-05
-0.000617874
-0.000640364
1.61451e-06
-2.18405e-06
0.0111672
1.32307e-06
0.0104214
-2.79073e-05
0.502278
-1.35342e-06
-7.27793e-06
-0.100164
-3.86864e-06
-2.15002e-06
-3.49985e-06
0.000296452
0.000733622
0.0137254
2.80685e-05
-4.80224e-07
-4.46855e-05
-3.48333e-06
1.8781e-05
-0.268301
-2.62423e-06
-0.000210035
-0.408624
0.010801
-2.78752e-06
0.00185479
-1.7463e-06
1.16009e-07
-0.303884
-0.174677
0.0025544
-3.60215e-07
-2.37257e-06
1.94575e-05
0.0036519
5.59422e-06
-0.000433708
-6.5062e-06
1.87953e-06
-2.39938e-06
-2.27863e-06
0.119006
-1.78765e-06
-0.288893
0.131179
-8.10922e-06
3.06696e-07
-0.0437553
-0.149969
-1.54841e-06
2.36333e-07
-0.103464
1.37171e-05
-0.000275724
-0.00684554
-7.22974
-2.22946e-06
8.95015e-06
0.000211924
4.2869e-07
-0.0596223
0.000522689
2.60294e-06
-4.34578e-05
-5.59626e-05
-3.15664e-07
0.00456211
-1.22274e-06
0.00027238
2.77991e-06
-3.32224e-05
-2.58057e-06
-5.47753e-06
0.0262783
5.3709e-06
-0.499947
0.000408344
-8.99015e-06
-8.20749e-06
-3.45201e-07
-6.29758e-06
-0.267053
-9.62246e-08
-0.0640006
-1.56468e-06
-2.74973e-06
0.000316295
0.563991
-2.27734e-06
-1.58444e-06
-9.55515e-06
1.51195e-05
-5.75743e-05
-4.56906e-05
-0.779862
-0.000325546
-2.14164e-06
0.00113124
-0.0713456
1.2772e-05
-3.50895e-05
-0.00647796
2.20502e-05
4.37642e-06
-13.4648
-3.28599e-06
0.458851
-0.000612306
7.11836e-07
0.00197027
1.92697e-06
-5.09022e-06
-1.12463e-06
-0.20296
-7.54208e-06
-0.410222
-0.030541
0.0453769
-0.000383239
-9.28424e-07
0.138888
-3.54066e-08
0.249298
1.20952e-06
0.0308514
2.83309e-05
0.00141325
5.86588e-06
0.225985
-4.87006e-05
-4.30777e-07
0.213677
0.27143
-1.39422e-06
-1.07095
-3.57858e-07
-4.14843e-05
1.26837e-06
-0.963485
0.167272
1.18435e-05
5.04169e-06
0.367989
0.00196058
-2.10001e-06
2.367e-05
1.37958e-06
-2.37721e-06
-8.25582e-08
2.53659e-05
-0.0618743
-0.661808
1.57352e-05
-0.0115813
-3.7334e-05
-4.91631e-05
1.5402e-07
-0.971883
0.177657
0.0457208
2.98869e-06
-0.374399
0.202003
3.2198e-05
-3.63079e-05
-6.34058e-06
-0.00138516
0.303717
-4.36773e-06
-2.95858e-07
-1.12689e-06
-5.23486e-05
-9.73483e-07
6.23174e-07
-0.506881
1.72144e-05
0.00199853
-1.04927e-05
1.72331e-07
-6.14321e-06
-7.98399e-07
0.0144671
-0.107376
-2.66087e-06
0.00012192
-1.94511e-06
0.388605
3.12168e-06
2.85171e-05
0.269625
-0.636793
0.000104133
-0.655941
0.0312066
3.71501e-07
-9.71768e-05
-2.70968e-06
-9.71783e-05
-4.40557e-07
-1.08565e-06
0.00679625
0.00541283
0.143887
0.00558145
0.000288808
1.71098
-2.17857e-05
0.000212841
-1.42708e-05
-0.300743
0.132659
-0.376966
-3.10956e-06
-2.94854e-06
0.339425
0.136499
-9.39317e-07
-0.0330907
-1.05416e-06
-3.40709e-05
-3.09499e-06
2.41582e-06
6.91671e-07
3.8434e-06
0.00543613
-0.000412199
-6.85272e-05
-6.07148e-07
5.40054e-07
-1.52658e-06
-2.48232e-06
-2.36928e-06
-2.11117e-07
-1.02264e-06
0.345064
0.161518
0.076455
1.71632e-06
-0.092482
0.000788982
-0.22639
-0.0801207
0.000750974
-1.10372e-06
-6.19273e-06
-0.00528455
1.42494e-05
0.0252109
0.667667
1.70349e-06
-2.18253e-06
-0.000388707
0.232529
1.56018e-06
-0.54848
-6.32868e-07
-9.66237e-07
-0.338091
-4.32837e-06
3.66334e-05
-8.64556e-07
-0.175167
-2.73597e-06
-6.43666e-06
0.0046744
-3.75675e-07
9.6205e-07
7.57582e-07
-1.82377e-06
0.0014277
-7.61577e-06
-0.627539
1.76919e-07
2.40857e-08
-3.37219e-06
0.20447
-5.82746e-05
5.76884e-06
-0.323341
-2.06515e-07
-2.78709e-06
-0.0292959
0.39568
-7.2457e-06
-0.582198
0.493839
-4.56318e-05
0.149783
-1.04601e-06
7.82482e-07
0.00173036
5.56027e-07
-0.129322
0.239068
-3.15019e-06
-0.000162263
-5.73435e-06
-0.176448
-0.12904
0.000299126
-1.06194e-06
-0.00584337
-5.5436e-06
0.000750583
-4.36074e-05
-2.02626e-06
-1.13681e-05
-8.01374e-06
-2.83357e-06
-0.194208
-3.50545e-06
-2.85371e-06
0.000238904
0.404276
0.00271909
-0.629934
-1.75797e-06
-0.000440928
1.43203e-06
-1.13596e-06
-2.70177e-06
-1.07206e-06
-1.04976e-06
-3.66056e-06
-7.71575e-07
-7.83566e-07
-4.76535e-05
8.86025e-06
-3.1857e-06
-2.05464e-06
-0.160067
-0.466307
-4.29146e-06
-1.40007e-05
0.48116
-5.43842e-07
0.0054281
-0.239757
-2.08319
-0.256233
0.0356015
-0.191836
20.1348
-0.333306
-5.95471e-07
-4.55267e-05
-6.22994e-06
-3.6883e-05
-2.95302e-05
-4.35414e-07
2.10569e-06
-0.346966
-1.52063e-07
5.20603e-06
-0.155508
-1.63594e-06
1.11052e-06
-0.000120832
-1.56007e-06
-2.2216e-06
-3.47333e-06
-4.00736e-06
0.152092
-0.122681
9.05891e-07
-7.10967e-06
8.21364e-07
2.25777e-05
-1.21311e-05
9.90537e-06
-36.8814
-0.0235114
-5.113e-07
-0.19549
-0.000119092
-5.44975e-06
-0.0122891
-1.7117e-06
-0.00137695
-2.26913e-06
7.56822e-06
1.71307e-05
0.0404363
-9.35514e-06
-5.89457e-07
-3.79527e-05
-5.25752e-06
-3.92426e-05
-2.83423e-06
-0.389698
5.38003e-05
0.000234934
1.87467
0.0428341
0.00627151
-0.000182887
0.116804
-2.72118e-06
7.66942e-07
-5.16226e-05
0.263428
-0.00130852
-0.000124732
0.244066
-3.79963e-07
-1.38297
-0.00422028
-0.269668
-3.32578e-08
0.000192332
-6.35303e-06
0.00109587
-4.88761e-05
0.0477188
-0.0139709
2.40763e-07
-3.52545e-05
-0.00013253
1.11819e-06
3.19039
-2.55312e-06
-0.000348509
-0.00109289
0.0012763
-5.94961e-06
9.69679e-09
-4.17745e-07
0.000430944
-1.4376e-06
-4.10958e-06
-1.94247e-06
-8.18955e-07
1.98146e-07
-0.000304828
-2.34039e-06
-3.23818
0.195275
1.82163e-05
1.20913e-06
-2.72358e-06
-0.000107782
-0.000139124
-9.20495e-07
0.294785
-0.0013708
-6.36041e-07
-2.45051e-06
-0.321526
0.171435
-1.04857e-06
0.0078214
-3.61272e-05
1.82852e-06
-0.0752749
-6.83531e-06
-0.000242033
-4.2399e-07
-0.336553
0.174578
-3.16479e-07
1.51123e-05
0.226107
-6.36695e-05
0.369282
-3.09556e-07
2.54129e-05
0.356492
-0.0718892
-3.96973e-05
2.69879e-05
1.53906e-05
1.82265e-05
-1.8988e-05
-0.0635031
0.179481
0.0819379
-2.9627e-05
9.00271e-06
0.00109065
-2.10225e-06
0.194913
-6.75359e-06
0.647129
-2.95144e-06
-6.60118e-07
2.51076e-07
-9.40119e-07
-2.27851e-06
0.00305474
-0.207602
-2.61448e-05
-5.04212e-08
-8.41157e-07
-0.24005
2.28519e-05
1.04419e-07
-8.78351e-07
6.09119e-05
-0.0458415
-2.06324e-06
2.78286e-06
0.0001371
0.00274282
-3.18776e-07
0.000251745
-6.42271e-06
2.43783e-05
0.00551868
2.38268e-05
-0.0937879
0.342854
0.00704568
-0.216865
-2.14765e-06
3.76554e-07
3.82022e-06
-0.502626
2.10794e-05
-0.246667
-2.09062e-06
0.235627
5.82225e-05
-5.80745e-06
-5.76111e-05
1.16999e-05
0.654177
0.000586676
-3.69896e-05
0.113415
0.00556218
-1.1003e-06
-3.80536e-07
-5.12283e-07
-4.92138e-05
0.276105
-0.000337859
-5.54434e-07
0.0169148
-6.39199e-07
-0.478607
-6.17919e-06
-0.410972
-5.28314e-05
-0.507436
0.129254
-0.000516795
-3.95859e-06
1.49314e-07
-2.01061e-06
0.0841753
-1.34617e-06
0.000190665
1.37858
-2.51155e-06
-0.109201
-2.83203e-05
-3.97431e-06
0.00112944
-1.41605e-06
-7.5464e-07
0.159067
-0.163168
0.0190356
-7.85464e-06
-1.31702e-06
2.12795e-05
-4.48937e-05
-1.47803e-05
-6.59906e-07
-0.108012
0.000680858
-2.45008
-9.7289e-06
-0.000132128
12.797
-0.0836687
2.14184e-05
1.30946e-06
-0.0693848
1.08918e-05
0.289882
-7.03884e-06
1.32787e-07
1.97676e-07
1.23345e-06
-2.71447e-06
-3.91821e-06
-2.49471e-06
5.36439e-05
-0.123514
2.10345e-05
0.245919
2.64908e-05
-2.87045e-07
-1.08138e-06
-0.0265308
4.31518e-07
-9.32142e-06
7.75664e-07
-0.0484667
-0.0879744
-2.53081e-06
-4.07045e-05
-5.92324e-06
-4.04533e-07
-1.65928e-08
9.03267e-07
-7.4239e-06
2.5884
-2.70728e-06
2.10731e-06
0.00136435
-3.10639e-06
-1.43714
0.00300766
0.00160175
0.00538557
-4.20106e-05
3.94032e-07
0.447015
6.06755e-06
0.000142565
-0.000359906
1.01806e-06
-7.45001e-05
-9.78524e-07
-0.536666
-5.7515e-07
4.12535e-07
0.460534
0.000639586
0.113687
-2.40876e-06
0.00421945
0.00494235
-1.65357e-06
-0.0445694
-1.70078e-06
1.13353e-06
-3.75869e-07
-0.00330557
2.31154e-06
0.194955
1.6706e-06
-6.69026e-05
-0.0382534
0.0218752
1.23844e-06
-0.764135
4.14822e-05
-0.192425
2.28771e-05
-3.60497e-05
-3.67077e-05
-0.781374
-1.4953e-06
-5.90512e-06
-0.271597
-2.62077e-06
2.85291e-05
1.30345e-06
-0.000371497
0.658443
-0.0932625
4.57753e-06
-0.0044265
1.47386e-06
-0.00150602
5.0354e-07
5.45753e-06
0.00057607
-0.67096
-8.16042e-05
9.56596e-07
2.95139e-05
-0.128886
9.34001e-05
0.0033239
-0.148087
1.72361e-06
-0.0881003
1.0176e-06
-0.00444977
-6.60942e-07
-3.79567e-05
-0.450935
1.51119e-05
-1.30364e-06
0.235261
-0.134495
0.0619461
-4.56455e-08
0.0910088
0.0233229
-2.89705e-06
-0.00105667
0.444479
-6.28627e-08
-1.86301e-05
-2.38452
-2.99655e-06
1.68553e-05
-2.26707e-06
-2.22241e-06
0.00521855
0.0025836
-0.000614274
0.173794
-8.78255e-08
-0.00577638
1.80122e-05
3.63357e-06
6.85264e-06
-0.000596873
9.26424e-06
-4.77754e-07
-0.325194
-0.0961114
-0.0522947
5.42213e-07
9.27755e-05
-1.1185e-06
0.256941
-1.66897e-06
5.95265e-05
-0.204852
-0.134908
-0.000100132
-6.90825e-07
-1.71412
-0.196626
0.866288
1.71439e-06
-8.90385e-07
-3.69277e-06
-0.214356
8.15494e-05
-0.000895441
-0.539414
6.66035e-06
-6.65424e-07
0.182539
2.00956e-05
0.00111304
-9.42087e-07
-6.99024e-06
-1.74513e-07
-0.0233293
-7.32854e-06
-0.000147809
-2.39976e-06
-8.74475e-07
-2.51583e-06
-0.108947
0.119964
2.99939e-05
0.906056
8.03805e-06
0.0551565
-4.37831e-06
-3.36576e-06
0.00351138
-8.42451e-06
-4.90682e-06
6.4665e-05
-0.00216067
-9.49283e-05
0.00206715
4.94888e-06
0.00194342
-0.0511309
-8.72445e-06
-3.85897e-06
-9.16246e-06
-0.0154072
-0.00017665
0.00292083
0.00349518
2.48463e-06
-1.06736e-06
0.00433427
-9.63308e-05
-0.300478
-0.404664
-7.1678e-05
0.187031
0.076653
0.191773
0.000858129
-6.28998e-07
-1.7449e-06
0.00793394
-0.289531
-3.8612e-06
-6.05022e-05
-0.302021
-2.0329e-07
0.0120589
3.35413
0.0069656
-5.90946e-06
0.00111226
-6.61415e-06
-1.70041e-07
-2.75752e-06
0.237369
3.43403e-06
-0.00134524
-0.000852427
-1.24754e-06
-5.86005e-07
-0.119671
1.71111e-06
-4.67055e-07
0.00037104
0.146428
-0.000155521
1.43063e-06
-8.93628e-05
1.21374
0.0898266
-0.000105436
0.343288
0.00243308
0.000113799
-9.38169e-05
-3.13576e-06
-0.00029398
-0.00135182
6.29798e-07
6.70933e-07
1.30698e-05
-8.96588e-05
0.00879586
0.162507
-5.48199e-07
-0.893487
-0.000938717
-10.2375
0.200576
0.00662591
0.279604
0.0068203
0.138309
0.000472182
0.151211
0.000859266
-1.33354e-07
1.13261e-05
-0.532254
-0.0166906
0.0065038
-0.688883
9.20121e-07
0.0985726
0.292317
3.92774e-08
-1.37941e-06
-9.48928e-05
0.00146626
0.218419
0.563578
-0.00734411
-1.95745e-06
2.27325e-06
-4.82663e-07
-0.363063
2.3334e-05
-0.0616183
-6.84456e-05
0.245863
0.023314
0.0996899
-0.000101668
0.369133
-2.40919e-06