/*--------------------------------*- C++ -*----------------------------------*\
| =========                 |                                                 |
| \\      /  F ield         | OpenFOAM: The Open Source CFD Toolbox           |
|  \\    /   O peration     | Version:  v2012                                 |
|   \\  /    A nd           | Website:  www.openfoam.com                      |
|    \\/     M anipulation  |                                                 |
\*---------------------------------------------------------------------------*/
FoamFile
{
    version     2.0;
    format      ascii;
    class       volScalarField;
    location    "650";
    object      nut;
}
// * * * * * * * * * * * * * * * * * * * * * * * * * * * * * * * * * * * * * //

dimensions      [0 2 -1 0 0 0 0];


internalField   nonuniform List<scalar> 
18758
(
0.000104032
0.00163334
0.00671659
0.0111786
0.0107518
0.0110234
0.00109643
0.00671937
0.000322892
0.000524285
0.0013684
0.00446784
0.00672116
0.00124352
0.00283641
2.48105e-05
0.00107073
0.00671923
0.00424256
0.000444446
0.00339455
0.0067257
0.00778431
0.000513231
0.000447588
0.00671901
3.57968e-05
0.0100585
0.0074939
0.000105689
0.00187241
0.00518803
0.00672348
0.0023834
0.000858842
0.0067234
0.0067245
0.00322507
0.00265069
0.000911786
0.00310797
0.000484788
0.00673635
0.000620548
0.000133674
0.00671615
0.00788655
0.00118613
0.000620585
0.00673367
0.000218788
0.0106991
0.00671585
0.00148772
0.0112108
0.00175675
0.00672425
3.16263e-05
0.00409375
0.0011323
0.0001575
0.00150007
0.000338496
0.00118861
0.00671584
0.00672367
0.000971978
0.00672339
0.0036892
0.0108792
0.0112565
0.0018767
0.00673464
1.17556e-05
0.00672756
0.00397438
0.000379367
0.0106122
7.74818e-05
0.00584414
0.0096649
0.00026349
0.00112979
0.0115111
0.000399438
0.000901838
0.00226723
0.000418445
0.000157499
0.00410741
0.0108856
0.00427349
0.00219635
0.000483712
0.0101894
0.00228611
0.00043456
0.00672882
0.00672852
0.00466134
0.000383754
0.0113324
0.000655987
0.000318394
0.00314972
7.84168e-05
0.0015039
0.00979884
0.00182104
0.00171408
0.0019833
7.246e-06
0.00671888
0.0027421
0.00782312
0.00220402
0.00392287
0.00288428
0.00540928
0.0109757
0.000573085
0.00516663
0.00649369
2.09608e-05
0.000126982
0.000176106
0.00105131
0.00055872
0.00255581
0.0067342
0.00112547
3.20232e-05
0.000871485
0.00015451
2.17892e-05
0.000856266
0.000479576
0.00102857
0.00672843
7.33013e-05
7.00477e-05
5.45131e-05
0.00329582
0.00263562
0.00326664
0.0042579
0.00293186
0.00345094
0.00197534
0.00658051
0.000219698
0.000422492
0.000893917
0.00672573
0.00999212
0.000922217
0.0057728
0.00121106
0.00231404
0.00672617
0.00672642
0.00113938
0.00194926
0.00209011
0.000159869
0.00851939
0.00374183
0.00617029
0.000145059
0.0104423
0.0088794
0.00671927
0.00207863
0.0105654
0.00107555
0.000519204
0.00851712
0.00126996
7.55178e-05
0.00274988
0.00671821
0.000186761
0.000464407
0.00675521
0.00176845
0.000575714
0.00617953
0.00310642
0.00673244
0.00619893
0.000149215
0.000551755
0.00184187
0.00194906
0.000316724
0.000365242
0.0004222
0.000153245
0.00672275
0.0067353
8.03313e-05
0.0012508
0.000386133
0.000421937
0.00672049
0.000339719
0.000619833
0.0067259
0.00289183
0.000552762
0.00671908
0.000319913
0.0021883
0.000372838
8.56379e-05
0.00857053
8.06424e-05
2.58992e-05
0.00672157
0.0108398
0.0067191
0.00192627
0.000484677
0.00422315
0.000203718
0.000606359
0.000402239
0.000178993
0.00675225
0.000343156
0.00672373
0.000379572
0.00819955
0.000487868
0.00672133
0.00641885
0.00675209
0.00671659
0.00669988
0.000485431
0.00672415
0.000307454
0.00180977
0.00207653
0.00574221
0.000446272
0.000438374
0.00672348
0.010108
0.000340158
0.00672317
0.00723156
0.000965794
0.000314776
0.00327892
0.0005873
0.000528986
2.68778e-05
0.000403152
8.82966e-05
0.00679116
0.000672065
0.00672175
0.000416222
0.000615597
0.000539212
0.00155005
0.0067205
0.00207917
5.25325e-05
0.00213377
0.00178925
0.000381708
0.00855289
0.0026035
0.00344849
0.000204387
0.000364043
0.000131382
0.00161628
0.00581114
0.000702171
0.000476112
0.00389368
0.000563959
0.000309435
0.00718801
0.000261712
0.00817143
0.00674662
0.00671636
0.000166118
0.00873417
0.000561523
8.94399e-05
0.000332454
0.000643819
0.0105664
0.00436356
0.00138357
0.0106402
0.00671641
0.0115873
0.00024353
0.00341464
0.000482585
0.0003137
0.00274637
0.0067232
0.00218299
0.00694425
0.00672144
0.00114549
0.0107772
0.000194098
0.00672173
0.00674762
0.000686935
0.00190622
0.00675194
0.0050269
0.00101252
0.000138195
0.000270895
0.000689048
0.000464111
0.000430854
0.000163144
0.00678778
0.00672591
0.000552577
0.000200771
0.000202532
0.0108704
0.000529163
0.00191066
0.00678492
0.0014383
0.0113443
0.00675285
0.00671897
0.00675239
0.000984794
0.000196427
0.000414257
0.00519127
0.0019817
0.00673599
2.46109e-05
5.8641e-05
0.000263851
0.000108855
0.00234401
0.000519294
0.000109991
0.000529126
0.00028862
0.00539778
0.00487841
0.000534731
0.00672049
0.000392038
0.00193665
0.00801049
0.000809408
0.00674645
0.000449734
0.00368077
0.00100945
0.00398073
0.00675794
0.00141371
0.000444046
0.00227433
0.00336233
0.001172
0.00497642
0.00250088
0.000967679
0.00132491
0.00153578
4.38864e-05
0.00323357
0.0067211
0.00499137
0.00149124
0.000321895
0.00321606
0.00164686
0.00590383
0.000535196
0.00489969
0.00672032
0.0037162
0.00336927
6.73009e-05
0.0023539
0.00672585
0.000380349
0.00930389
0.00048973
0.00671927
0.0103027
0.00517914
0.00375332
0.00671848
0.000855221
0.00585519
0.000573186
0.000123314
0.00685445
0.00572852
0.0111408
0.000745091
0.00672182
0.00149967
0.00367685
0.00671903
0.000738674
0.000679757
0.000153329
0.000463889
0.000537466
0.00672268
4.77722e-05
0.00583623
0.0118443
0.00834965
0.00123523
0.00164995
0.00672006
0.00672349
0.00199172
0.00178483
0.000910317
0.00149559
0.000264661
0.000923586
0.000536531
0.00067541
0.00392675
0.000556409
0.000149163
0.00130653
0.00694652
0.00678644
0.00672247
0.00586938
0.000470712
0.00222574
0.000528369
0.000749199
0.000170905
0.0027935
0.0040514
0.00143295
2.41149e-05
0.00589086
0.000197439
0.000220726
0.00120332
0.000587851
0.000453237
0.00122235
0.00177525
0.000263872
0.00284116
0.00143875
0.00152243
0.00244528
0.00169974
0.00121018
0.00155237
0.00205893
0.00671621
0.000514249
0.00673458
0.00320133
0.00472953
7.85842e-05
0.00672238
0.0016357
0.00102766
0.00672253
0.00672723
0.00671856
0.00458897
0.00240661
0.00751322
0.00110138
0.00185056
0.00031041
0.00672578
0.00672611
0.0098584
0.00672759
0.00672268
0.000285525
0.00672037
0.000223591
0.00031457
0.00672267
0.00562775
0.000434429
0.00138714
0.000798904
0.0061821
0.00188963
0.000202006
0.000781602
0.00672268
1.59001e-05
0.0017479
0.00202833
3.32713e-05
0.00259946
0.00193171
0.00110684
0.000883705
0.0020058
0.00446695
0.00418357
0.00329198
8.49431e-05
0.00672245
0.00611974
0.000549347
0.000464882
0.00674414
0.00021196
0.0101687
0.00316547
0.00410337
0.00263432
0.00273584
0.00405734
0.00672902
0.0067263
0.0072069
0.00125679
0.00867984
0.00540714
0.000231805
0.00280047
0.00672189
0.00673308
0.00120238
0.00672232
0.00153642
0.000961135
0.00272007
0.00038402
2.43891e-05
0.00671929
0.0102533
0.0114895
0.000232572
0.000248354
9.82324e-05
0.000529011
0.00156307
0.00102115
0.0111532
0.00109128
0.00162488
0.00310532
0.00396391
0.000610725
5.00603e-05
0.000463374
0.00105921
0.00128272
0.00393048
0.000405235
0.000440871
0.00155887
0.000110788
0.00191608
0.00328094
0.00138811
0.00504349
0.00671885
0.00672045
0.011441
0.00373708
0.00281363
0.000804067
0.000358382
0.012176
0.00412404
0.000664867
0.000730658
0.00480321
0.0109828
0.00198563
0.00320993
0.000916349
0.0109378
0.00410984
0.00249886
0.00133685
0.0029368
0.00671761
0.0033103
0.000390389
0.0113705
0.00797111
0.00282752
0.00672259
0.000563104
0.00672596
0.00672581
0.00102349
0.002796
0.000330578
0.000701377
0.000151917
0.00948657
0.00023021
0.0067223
0.000462463
0.000201974
0.00996758
0.00135115
0.00058425
0.000423267
0.00313144
0.000832517
0.00680703
0.00179132
0.00675608
5.12271e-05
0.0120675
0.000150098
0.00672029
0.00349271
0.000270001
0.000462386
0.00673372
0.000673161
0.00194424
0.00208696
0.00124874
0.00672394
0.0081718
0.00672632
0.000769237
0.00532682
0.000266966
0.00136862
0.000770737
0.00737858
0.000633539
0.00237316
0.00144859
0.00529022
0.0126731
0.00143416
0.00707881
0.0041953
0.000633291
0.00672589
0.000360121
0.00100195
0.000195365
0.00672257
0.000666929
0.000365516
0.0109996
0.0061678
0.00108564
0.000500339
0.000418305
0.000508552
0.00183128
0.00665664
0.00672322
0.00211594
0.00189987
0.00672262
0.000995077
0.00672241
0.00673728
0.00671889
0.0102654
0.00163907
0.00672565
0.000586308
0.000491856
0.00672034
0.00228604
0.00393722
0.00677667
0.000379684
0.000212259
0.00185693
0.00146024
0.000478457
0.00019931
0.000386435
0.00637152
0.000420969
0.0118301
0.000539207
0.000421317
0.00163577
0.00208497
0.00675368
0.0111879
0.00055566
0.00671843
0.00738246
0.00672248
0.00671885
0.000662886
0.0067193
0.000148615
0.0108175
0.00673248
0.00160693
0.00478468
0.00064761
0.0127522
0.00671882
0.0118125
0.001094
0.00360169
0.00672933
0.00672354
0.000275224
6.97746e-05
0.00182869
0.000229046
0.00991756
0.000541427
0.00672255
0.000420529
0.00153341
0.000928903
7.52378e-05
0.000267112
0.0022877
0.000902388
0.000272862
0.00176113
0.000426178
0.00672002
0.00087755
0.00230198
8.46182e-05
0.000411124
0.00239969
0.00641069
0.00131672
0.00672446
0.000930096
0.00111247
0.00671898
0.000865038
0.000286966
0.000293284
0.000568891
0.00139264
0.00841574
0.00672241
0.00672404
0.00472874
0.00672274
0.000310266
0.000749864
0.001446
0.00672269
0.000402572
0.00672844
0.00373321
0.00126674
0.000309755
0.000159667
4.14367e-05
0.000227201
0.00672271
0.0011303
0.00902126
0.00672148
0.00102057
0.00153457
0.0108674
0.000929164
0.0101186
0.00672002
0.000553938
0.00672585
0.00066132
0.00320828
0.00189733
0.00170997
0.00671962
0.00679183
0.0067203
0.00508339
0.000322757
0.0012483
0.0119116
0.00307055
0.000945742
0.000949488
0.000327172
0.00567713
0.00125068
0.00672548
5.72609e-05
0.00672187
0.00316829
0.000931395
0.00300859
0.00715748
0.000598176
0.000785245
7.37188e-05
0.00117552
0.00507303
0.000296356
0.00671895
0.000814208
0.00105587
0.00672355
0.00848619
0.00974148
0.00672246
0.00266911
0.000712601
0.00196276
8.08281e-05
0.000964791
0.0101101
0.000285436
0.0067197
0.00673032
0.0095575
0.00333838
0.00364861
0.00103729
0.00315184
0.00517783
0.000892648
0.000534262
0.0123095
0.000646162
0.000880448
0.00166
0.00671963
0.00671485
0.00671981
0.00263529
0.00252354
0.00075639
0.00672266
0.00672482
0.00168285
0.00524013
0.000656786
0.0006234
0.000223877
0.00982027
0.000954256
0.000470205
0.000725235
0.00395054
0.000272263
0.00413399
0.00608327
0.000555271
0.00675798
0.0064188
0.00266894
0.00125867
0.000131296
0.0123057
0.00612191
0.00013358
0.000200895
0.00655489
0.00672049
0.000458414
2.2771e-05
0.00171954
0.00672033
0.00327803
0.000746631
0.00778226
1.95147e-05
9.8692e-05
0.00587677
0.00203242
0.00034856
0.000324207
0.00238314
0.000218433
0.00672328
0.00142011
0.000222926
0.00672111
0.00672169
0.00139918
0.000580178
0.00671937
0.00177932
0.00673584
0.00146668
0.000620086
0.00533827
0.00675033
0.000130578
0.00672437
0.000389327
0.000337728
0.000298946
0.00672338
0.00251245
0.0001216
0.000449338
0.000983248
0.00396462
0.00176935
0.00380028
0.00279158
0.0122953
0.000223079
0.000203659
0.0067222
0.000562335
0.00672247
0.000645815
0.00673423
0.00037196
0.0100128
0.00671913
0.00395334
0.000968761
0.00368917
0.00556091
0.00288959
0.00131881
0.0018852
0.00672321
0.00673447
0.00672002
0.000418914
0.00129653
0.000205338
0.00158049
0.00892506
0.00673098
0.00673001
0.00735615
0.00582866
0.00983591
0.00671814
0.000382449
0.000942759
0.00672779
0.00504465
0.00672237
0.00805856
0.00216584
0.00672375
4.3288e-05
0.000725044
0.00671973
0.000371999
0.000414677
0.00672228
4.40292e-05
0.00671942
0.000322035
0.00999071
0.00216674
0.00672786
0.00079764
0.00188176
0.00028661
0.000622638
0.000925639
0.00590621
0.00112055
0.000519721
0.00672329
0.00675868
0.00672102
0.00185067
0.000428128
0.00158901
0.004486
0.000975633
0.00225461
0.00302461
0.000545981
0.0062981
0.00672906
0.0013719
0.000154607
0.00672509
0.0029343
0.00672212
0.00338326
0.00672945
3.08779e-05
0.0122319
0.00672286
0.00162024
0.00671892
0.000698548
0.00671959
0.00459929
0.000554251
0.00672568
0.0067632
0.00672303
0.000225903
0.00671975
0.00401329
0.012071
0.00164407
2.53523e-05
0.000140662
0.0121302
0.000135967
0.00672238
0.00672633
0.000638035
0.00470147
0.000699029
0.00080013
0.000638511
0.00057601
0.00346017
0.000438596
0.00137622
0.00672172
0.000240265
0.00991478
0.000250162
0.00671941
0.00434765
0.00111234
0.00173909
0.000733277
0.00199986
0.00672309
0.00676163
0.00678561
0.00111621
0.00672292
0.00553199
0.0119052
4.25711e-05
0.00171117
0.00672597
0.000218568
0.000781212
0.00672261
0.00060187
0.000387723
4.76155e-05
0.00069216
0.00296949
0.0015315
0.000691473
0.00671965
0.000222213
0.00197435
0.000215946
0.000412329
0.00031994
0.00522034
0.000542441
0.012017
0.0109773
0.000349631
0.000209049
0.00222774
0.00672298
0.00672278
0.00191269
0.000286454
0.0067233
0.000964138
0.000340813
0.00111687
0.00671999
0.00671949
0.00387478
0.00672586
0.000605915
0.00663724
0.000602623
0.00672296
0.00240241
0.000325813
0.00672287
0.00129764
0.00677032
0.000333425
0.00154017
0.00556341
0.010584
0.000171674
0.0121706
0.00313057
0.000477626
0.00552745
0.00737469
0.0109465
0.00674009
0.000931175
0.000839901
0.00672205
0.00671911
0.00250185
0.00358799
0.00672129
0.000225995
0.0003897
0.00672012
0.000897146
0.0067228
0.00125827
0.000490749
0.00672314
0.0115523
0.00108003
0.00671953
0.000440067
0.000182683
0.000694539
0.00672613
0.000780429
0.00266207
0.0109487
0.00608857
0.006737
0.00408489
0.00671796
0.0122423
0.00671967
0.000420051
0.00771341
0.0102127
0.00297827
0.00162216
0.00672182
0.00102685
0.000864288
0.000438649
0.00671452
0.00115345
0.0067234
0.0037349
0.000227101
7.2088e-05
0.000258312
0.00672001
0.00406606
0.000390493
0.00226005
0.00022304
0.00672785
0.00557806
0.00875442
0.00672149
0.00673787
0.00484038
0.0118354
0.00518998
0.00630372
0.0111995
0.00128613
0.00738127
0.00123413
0.00671683
0.00671883
0.00135845
0.00189577
0.00672474
0.00858488
0.00844463
0.00671993
0.00824532
0.000316808
0.00465822
0.00297282
7.68666e-05
0.0067245
0.00178686
0.000388203
0.00672013
0.000621247
0.00269209
0.000392021
0.00402371
0.00319845
0.000449598
3.09509e-05
0.000517677
0.0054423
0.00202758
0.00672111
0.000285276
0.00185538
0.0110179
0.00671814
0.00327853
0.00119421
0.00672577
0.000203402
0.00671778
0.0023237
0.00673699
0.000285395
0.000636804
0.000565713
0.000644226
0.00178307
0.00153347
0.000492412
0.000603549
0.00149165
0.00575064
0.00672396
0.00672317
0.00198383
0.00671886
0.000340818
0.000745225
0.000421986
0.00672009
0.00118708
0.00302587
0.0015064
0.00671997
0.000308398
0.00229516
0.00672792
0.00688431
0.01165
0.00115342
0.00672278
0.00262668
0.000760242
0.00416453
0.000209749
8.66146e-05
0.00798734
0.000921778
0.010826
0.0025537
0.00414922
0.00671988
0.0116299
0.00470539
0.00672138
6.35862e-05
0.00479155
0.00672365
0.00672247
0.00141791
0.000669377
0.00672369
8.01878e-05
0.00881361
0.00160451
0.00671865
0.00195563
0.0118669
0.00679357
0.00213386
0.00672617
0.00671966
0.00402194
0.00672928
0.000654856
0.00375535
0.00431513
0.00540829
0.00672608
0.000745958
0.0067214
0.00466288
0.00326505
0.00543462
0.000527714
0.000638253
0.000207145
0.00151912
0.00319927
0.00672379
0.00672457
0.00951149
0.0046396
0.000443308
0.000133766
0.00937337
0.00671939
0.00672172
0.010266
0.00672233
0.000161529
0.000342012
0.00215566
0.0114472
0.0117154
0.000296943
0.00182831
0.000905316
0.00174244
0.00673175
0.000690082
0.00672094
0.000235214
0.0067227
0.00592476
0.000503167
2.61062e-05
0.000108597
4.31686e-05
0.00672217
0.00662674
0.00672361
0.0097935
0.000612069
0.00671867
0.00673409
0.00506602
0.000430688
0.000144763
0.0113212
0.00118908
0.00558808
0.0067181
0.00463575
0.00203836
7.04276e-05
0.000344763
0.00672303
0.00672246
0.000809061
2.49172e-05
0.00466446
0.000397593
8.71369e-05
0.00506274
0.00162703
0.00104504
0.000503004
6.61184e-05
0.00113313
6.98019e-05
0.00674958
0.00672151
0.00372025
0.000452203
0.000371984
0.000526688
0.00672548
0.00277661
0.00018981
0.000125842
0.0087242
0.00672675
0.00611495
0.00584551
0.00123214
0.00671706
0.00836314
0.00049756
0.00672025
0.000831885
0.00766781
0.00157342
0.0067199
0.000429376
0.00672571
0.00303294
0.000338309
0.00390558
0.00672601
0.00672406
7.39161e-05
0.00161261
0.00292565
0.00178848
0.00607272
0.000246157
0.00672542
0.00672698
0.0003032
0.002043
0.00531022
0.00434961
0.000228239
0.00385204
0.000543045
0.00822274
0.00198537
0.00476599
0.00340268
0.00948995
0.00673681
0.00940018
0.000181651
0.00638609
0.00554416
0.000434704
9.21413e-05
0.00672577
0.000410626
0.0067206
2.18425e-05
0.00671539
0.000760787
0.0027023
0.0067271
0.00865215
0.00282223
0.00342826
0.00146959
0.00731216
0.00672247
0.00672152
0.00582181
0.00576808
0.00677926
0.00672254
0.00196696
0.0067227
0.00672352
0.000513996
0.00672341
0.000459286
0.00675459
7.97246e-05
0.0032164
6.63915e-05
0.00676461
0.0015285
0.000513984
0.00672982
0.00671954
0.00302582
0.00302265
0.00813482
0.00375634
0.00672588
0.00672474
0.00101518
0.00672083
0.000337439
0.000609158
0.0118826
0.0122423
0.00405261
0.00803281
0.00678435
0.0116868
0.00739361
0.0118322
0.000640548
0.00215841
0.00140916
0.00673184
0.00887722
0.000632529
0.000480083
0.000880881
0.00365937
0.00672665
0.00671654
0.00870723
0.000558228
0.00321965
0.0067153
0.00138679
0.00672226
0.00188911
0.00300579
0.00515776
0.0101362
0.000891361
0.000602742
0.00501395
0.000381577
0.00672293
0.0058743
0.00677481
0.0052432
0.00257411
0.00493372
0.000253312
0.00709062
0.000250799
0.000441903
0.00151664
0.000472358
0.00263311
0.00177721
0.00602756
0.00736076
6.97409e-05
0.0122548
6.24316e-05
0.000559814
0.000563272
0.00167225
0.00672991
0.000297189
0.00159219
0.00672248
0.00462619
0.00673973
0.00306937
0.00672294
0.00942073
0.000621877
0.00671978
0.00524567
0.00649387
0.000122643
0.000109064
0.000649265
0.00259608
0.0052702
0.00671897
0.00660314
0.000458392
0.000123147
0.00671499
0.0117257
0.00109466
0.0115058
0.00672015
0.00312364
0.000164587
0.00672774
0.00672269
0.00485994
0.00621663
0.0114381
0.00147779
0.00671939
0.0020021
0.00672022
0.0114467
0.000491933
0.00672258
0.000537194
0.00531559
0.00187399
0.00802885
0.00676662
0.00672882
0.00672248
0.00677734
0.00672872
0.00324562
0.006714
0.00197545
0.000863099
0.000524603
0.00671961
0.00239102
0.00148972
0.010898
0.00168132
0.000212323
0.0103396
0.0114864
0.0046966
0.00117589
0.00672049
0.00563516
0.00114665
0.000632413
0.00550235
0.00044864
0.00171566
0.00254829
0.00100708
0.00672002
0.0119287
0.000173616
0.00693797
0.00372018
0.000317102
0.00141243
0.00671818
0.00088369
0.000958453
0.0067277
0.00887544
0.0067225
0.00126236
0.00672055
0.000414146
0.000303311
0.000564948
0.000604491
0.000953209
0.000732849
0.000890287
0.00159148
0.00676243
0.00778757
0.000373455
0.00672571
0.000295429
0.000646512
0.000635545
0.00637838
0.00186901
0.00672327
0.00674642
0.00388259
0.00993826
0.00125273
0.0067225
0.00269718
0.00672296
0.00672092
0.000652575
0.0108466
0.00204382
0.00258661
0.0128779
7.47212e-05
0.00419157
0.00244998
0.0114047
0.000617805
0.0067165
0.00141404
0.00284886
0.00314631
0.000964362
0.00168443
0.000900284
0.000404649
0.000105292
0.00427447
0.00643112
0.00672019
0.0121628
0.00672581
0.00131021
0.0119324
0.00672335
0.00549033
0.00672592
0.00133434
0.000431182
0.00671953
0.000835944
0.00256792
0.00165037
0.000257051
0.00145441
0.00672162
0.00676468
0.00673748
0.000798712
0.000460307
0.000641481
0.0067226
0.00497419
0.0123067
0.00671924
0.00672032
0.00199979
0.000386194
0.000674143
0.000327818
0.0008029
0.0067296
0.0012671
0.00244345
0.0016182
0.0122255
0.00672367
0.000311269
0.0115804
0.000607208
0.00621345
0.00036895
0.00676184
0.0067241
2.9202e-05
0.000238948
0.000375806
0.00672489
0.00671673
0.000651746
0.000877341
0.00387213
0.00170431
0.00494528
0.00252245
0.00671944
0.00386036
0.01191
0.00671623
0.00774402
7.2748e-05
0.000947592
0.00672891
0.00651027
0.00888888
0.00675165
0.00672633
0.0057902
0.00198443
8.81438e-05
7.84412e-05
0.000502147
0.00672178
0.00122363
0.000453268
0.00672589
0.00886405
0.000256801
0.00493636
0.000491068
0.000508273
0.00672273
6.02266e-05
0.00672325
0.000132364
0.0016247
0.00111924
0.00671472
0.00469147
0.000359651
0.00323264
0.0120325
0.00292558
0.00327288
0.00345528
0.00671989
0.00673225
0.0118751
0.0067258
0.000223515
0.00671971
0.00673452
0.00041547
0.00974043
0.00672034
0.00672029
0.00434755
0.00165529
0.00075137
0.000904632
0.00645892
0.00175419
0.00671825
0.000342955
0.0120845
0.00204099
0.000945348
0.00745578
0.000658769
0.00218493
0.000546967
0.0067307
0.00406804
0.00175579
0.00672252
0.00195958
0.00415613
0.00673014
0.00387028
0.0111387
0.00307456
0.0005314
0.0120324
0.000584893
0.00168996
0.0067192
0.00828028
0.00672587
0.000568537
0.00673934
0.000733514
0.000552262
0.00240607
0.00131004
0.00599916
0.000893521
0.0067245
0.0069715
0.00553749
0.00672035
0.000404036
0.00671993
0.000456449
0.00616463
0.000133855
0.000523078
0.00192286
0.00272123
0.0116376
5.54711e-05
0.0067188
0.000999493
0.00672158
0.00671825
0.00672753
0.000794123
0.00440936
0.0016009
0.00169484
4.99264e-05
0.00280052
0.00297327
0.00672042
0.000141365
0.00634921
0.00250164
0.00126632
0.0123285
0.0034418
0.000734047
0.000839224
0.006731
0.00205887
0.00618347
0.00301513
0.00672663
0.00672683
0.001
0.00671955
0.00672562
0.000512815
0.00110405
6.63688e-05
0.00277067
0.00671997
0.00683998
0.0067208
0.000285518
0.00576963
0.006717
0.001072
0.00672696
0.0112516
0.00465631
0.000762323
0.00624596
5.34597e-05
0.000533009
0.00479909
3.05439e-05
0.00672254
0.000212634
0.00231927
0.00117474
0.0067247
0.0067199
0.00044731
0.000422725
0.0100282
0.00136141
0.000218991
0.000831814
0.00268445
0.000673486
0.00225482
0.0119937
0.011585
0.00612871
0.0061799
0.00671431
0.00447936
0.00752181
0.00672301
0.00670318
0.0067231
0.000901616
0.00671481
0.0040107
0.00459161
0.00480459
0.000431447
0.000186493
0.000421088
0.00524589
0.00672389
0.0067164
0.0067197
0.00671819
0.00672539
0.00672076
0.0107883
0.00840676
0.00894071
0.00121391
0.00606343
0.000466509
0.0101096
0.00590666
0.000498703
0.00672212
0.0019211
8.28357e-05
0.00176343
0.00992541
0.00308471
0.00180632
0.00671755
0.0016246
0.00948574
0.00672146
0.0106996
0.00476198
0.00672251
0.00997963
0.0067287
0.000391133
0.00672313
0.00763203
0.00675611
0.00501192
0.000274199
0.00674157
0.00672266
0.00425786
0.00671866
9.04268e-05
0.00594982
0.000380899
0.00672086
0.00672423
0.00672766
0.00311844
0.000517813
0.00213148
0.0121302
0.00672262
0.006751
0.000927423
8.96223e-05
0.0023043
0.0101971
0.00959318
0.000913331
0.00845284
0.00672204
0.00343696
0.00223453
0.00675061
0.00893155
0.00874131
0.00671841
0.00186696
0.00512973
0.0021689
0.000505382
0.000915864
0.00672314
0.000543379
0.000221272
0.00063931
0.000859911
0.00672051
0.00252494
0.00585907
0.00672434
0.00515202
0.00671474
0.00672372
0.000650201
0.00281436
0.000986991
0.010917
0.00672025
0.000203461
0.00393706
0.00357974
0.00250749
0.00672647
0.00672324
0.00672488
0.00672266
0.00672323
0.00176085
0.00305635
0.002923
0.00672531
0.00201344
0.0103836
0.00291196
0.00218162
0.0111621
0.00672413
0.00169051
0.0059713
0.000818493
0.00996602
0.000252334
0.00959594
0.000590517
0.00307559
0.0055461
0.00077927
0.00544594
0.000353831
0.00119664
0.00672454
0.00523252
0.00218239
0.00674373
0.000321559
0.0054876
0.00674294
0.00626087
0.000247952
0.00671975
0.00438374
0.00673951
0.00320506
0.00933373
0.00225613
0.00672163
0.00487733
0.00672269
0.00136538
0.000175763
0.00158344
0.000256154
0.000184916
0.00672379
0.0111576
0.00119699
0.00552136
0.00638653
0.0067461
0.00226427
0.00672057
0.00207361
0.00180347
0.00936272
0.00395868
0.00671943
0.00170621
0.00237573
0.000774404
0.00673145
0.0069095
0.000517406
0.000186209
0.000917681
0.00857105
0.00101856
0.00127663
0.0084283
0.00300198
0.00672077
0.00130138
0.00993806
0.00251642
0.000360913
0.00354432
0.00671971
0.000319623
0.000218521
0.000717044
0.00672626
0.000247615
0.00673235
0.000264542
0.000232695
0.000532557
0.00788005
0.00672072
0.0005827
0.000506591
0.00376486
0.000283095
0.00531847
0.00162836
7.49174e-05
0.00032466
0.00558092
0.00672632
0.00672466
0.000417334
0.0067187
0.00359658
0.00564266
0.00672172
0.00675343
0.000218857
0.00671471
0.0003824
0.00984856
0.00164866
0.00673712
0.00674713
0.00027541
0.000259171
0.00672299
0.00597688
0.000123675
0.00672909
0.00671705
0.0115814
0.00993551
0.00671874
0.000805952
0.000231019
0.00672208
0.00361759
0.00378504
0.000285177
0.00672474
0.00268026
0.00885613
0.00672531
0.000922416
0.00815285
0.000520381
0.00437421
0.00672492
0.000674867
0.0106955
0.00635539
0.00123536
0.000595585
0.00151875
0.000686253
0.00270517
0.00451827
0.00985708
0.0120336
0.00236766
0.00314964
0.000903012
0.0042478
0.000252119
0.000976374
0.00310743
0.00675675
0.00672364
0.00553679
0.00436969
0.00671912
0.000804861
0.00795092
0.000444651
0.00672623
0.00672259
0.00142368
0.00112675
0.00119848
0.00672294
0.000741574
0.00699159
0.00671873
0.00417868
0.000933243
0.000448716
0.00672264
0.000657824
0.00174838
0.00106703
0.00166952
0.000422079
0.00697799
0.000473478
0.000164687
0.0064987
0.00671906
0.00413094
0.00143713
0.0112289
0.00103119
0.00055022
0.00672405
0.00876513
0.00071617
0.00673232
0.000819073
0.00191853
0.010894
0.00044372
0.000876577
0.000176315
0.00122592
0.0067231
0.00672394
0.0067249
0.00133968
0.00894598
0.00198682
0.00672287
0.000352153
0.00472303
0.011085
0.00488897
0.0123122
0.000938463
0.0104122
0.000565182
0.000143178
0.00419364
0.00672522
0.00671901
0.0083538
0.00429048
0.0014707
0.00223413
0.0067143
0.00329501
0.000323056
0.00512353
0.00252346
0.00671971
0.00498817
0.00686667
0.00109039
0.00527632
0.0057622
0.00672564
0.00145519
0.00165896
0.00185686
0.00371475
0.00482895
0.00255388
0.00144085
0.00236356
0.000277493
0.000233414
3.58421e-05
0.000400942
0.00673779
0.00385343
0.00152163
0.00958966
0.00530669
0.00672101
0.00672814
0.00673999
0.00671439
0.00368579
0.00671893
0.000213487
0.00697635
0.000917235
0.00962106
0.000705455
0.00672411
0.00672301
0.000100306
0.00672384
0.00238696
0.00672175
0.00650639
0.00178375
0.0067193
0.00247587
0.00673375
0.00625829
0.00672587
0.00672246
0.0062891
0.000281318
0.00190566
0.0049777
0.00028375
0.00673174
0.00132578
0.00111836
0.00224508
0.000371123
0.00179254
0.00672261
0.01123
0.00279022
0.00260088
0.00170597
0.0067391
0.000346459
0.00672131
0.0121583
0.00673788
0.00584327
0.00967196
0.000468495
0.00214472
0.00671879
0.000554939
0.000226816
0.00036313
0.0122893
0.00671863
0.00673723
0.00673971
0.00013285
0.00121764
0.000548597
0.00672238
0.00125291
0.00721781
0.000428246
0.00672355
0.000136494
0.000562079
0.00353155
0.000942131
0.00221102
0.0016754
0.00235643
0.00595111
0.00239044
0.0114303
0.00675045
0.000541641
0.00572284
0.000139469
0.0108312
0.00646179
0.00442211
8.12318e-05
0.00672341
0.00078142
0.00672429
0.0019774
0.00230446
0.000340368
0.000295974
0.00672083
0.000679646
0.00184256
0.000321752
0.000680576
0.0112265
0.00672172
0.00228397
0.0068624
0.000230575
0.00534496
0.00115582
0.0109402
0.000586906
0.00672004
0.000178243
0.00319876
0.0071577
0.00672732
0.011583
0.000639222
0.00676982
0.000242385
0.00265062
0.00672589
0.00276992
0.00133901
0.00671915
0.00183373
0.00671822
0.00265547
0.000428231
0.000421323
0.00169039
0.00800836
0.0067257
9.53687e-05
0.000328249
0.00213871
0.000925258
0.00162847
0.00317769
0.00672462
0.00855393
0.00840919
0.00344583
0.0067537
0.000724353
0.00672288
0.0107219
0.00672198
0.000500482
0.00673665
0.0031013
8.71248e-05
0.00357769
0.00109846
0.0076586
0.000530683
0.00672154
0.00672297
0.00672461
0.011203
0.00069757
0.000324022
0.0113429
0.0028506
0.00672404
0.00775888
0.000370112
0.000314069
0.00672356
0.00573818
0.00542772
0.000566429
0.00296707
0.00179956
0.00675979
0.00672293
0.00671888
0.00863716
0.00806933
0.000942989
0.000275955
0.00145746
0.000576786
0.00672555
0.00672271
0.000919199
0.002658
0.00672913
0.000576694
0.0001546
0.0012186
0.000228156
0.00280709
0.000737285
0.0115935
0.00240986
0.00678169
0.00293243
0.0120178
0.00032098
0.000145946
0.000832717
0.0061038
0.00481481
6.90497e-05
0.00164001
0.000455488
0.0072653
0.000422236
0.0101563
0.00523725
0.00772812
0.000913341
0.00183292
0.00671983
0.000576482
0.0116011
0.00672344
0.000307801
0.00595126
0.0067226
0.000636704
0.000219678
0.000770039
0.00623436
0.00227384
0.00223384
0.00672252
0.00677364
2.46661e-05
0.00276181
0.00242982
0.00171261
0.00671934
0.00672359
0.00294414
0.00518462
0.00672601
0.000964453
0.000520619
0.00121481
0.00672161
0.00032494
0.00258192
0.0119872
0.00127747
0.00251703
0.00195947
0.000176486
0.000228155
0.00322294
4.75586e-05
0.000239893
0.00673617
0.00624407
0.00186036
0.00149311
0.000565648
0.0089726
0.00672433
0.000487893
0.00024106
0.000287124
0.00395152
0.000515772
0.0106613
0.00062043
0.00936397
0.000560504
0.0092748
0.00126788
0.00610919
0.00247081
0.0104764
0.0124418
0.000703277
0.00318354
0.00618107
0.00390236
0.00953176
0.00672116
0.0067171
0.000435267
0.000629638
0.00756287
0.00262375
0.000194306
0.00671744
0.00478131
0.00672433
0.00781438
0.000563898
0.0125325
0.00183495
0.00198357
0.000336131
0.00776565
0.00127114
0.0115172
0.00672711
0.0067239
0.000640551
0.0067234
0.00916176
0.000266785
0.0107829
0.00271129
0.00654816
0.00524138
0.00671446
0.000259208
0.00811473
0.000147919
0.00671734
0.00173135
0.00672007
0.0107723
0.0067153
0.00182153
0.00997767
0.00113192
0.00015592
0.000472215
0.00671713
0.00199152
0.000326142
0.00338815
0.0067557
0.00671829
0.00111109
0.00598864
4.79915e-05
0.00672312
7.58968e-05
0.00631955
0.00672297
0.00367217
0.00591333
0.00682334
0.0048737
0.00672258
0.000560043
0.00921385
0.00672886
0.0067233
0.00239628
0.00236223
0.000929109
0.00671801
0.00886862
0.0031836
0.0095958
0.00672039
0.00814049
0.00441589
0.000607196
0.00603555
0.00034551
0.00034174
4.51695e-05
0.00851053
0.000156694
0.0023195
0.00835735
0.00185493
0.00118194
0.000723065
0.000673116
0.000234302
0.00579617
0.000220364
0.00221119
0.00897293
0.0001849