/*--------------------------------*- C++ -*----------------------------------*\
| =========                 |                                                 |
| \\      /  F ield         | OpenFOAM: The Open Source CFD Toolbox           |
|  \\    /   O peration     | Version:  v2012                                 |
|   \\  /    A nd           | Website:  www.openfoam.com                      |
|    \\/     M anipulation  |                                                 |
\*---------------------------------------------------------------------------*/
FoamFile
{
    version     2.0;
    format      ascii;
    class       volVectorField;
    location    "550";
    object      ddt0(U);
}
// * * * * * * * * * * * * * * * * * * * * * * * * * * * * * * * * * * * * * //

dimensions      [0 1 -2 0 0 0 0];


internalField   nonuniform List<vector> 
18758
(
(-0.00267223 -0.000313885 -2.68766e-17)
(-0.0235629 -0.0240259 6.3043e-17)
(0.00120996 -1.6498e-05 -1.864e-19)
(0.10377 0.0671839 1.4324e-17)
(-0.0128804 0.0215915 -1.03806e-19)
(-0.0388221 -0.022061 -3.70718e-17)
(0.00887563 0.000877108 4.6034e-17)
(0.000660617 0.000130356 -6.3422e-19)
(0.0271581 0.0213071 8.583e-18)
(-0.000200766 0.000382656 -1.06707e-18)
(-0.000186873 0.000508309 1.43039e-18)
(-0.0014594 0.00590292 -4.59122e-17)
(0.000722564 1.71496e-05 -7.42477e-21)
(-0.0379419 0.0321532 -5.9237e-19)
(-0.00104227 -0.00156833 -1.12842e-18)
(-0.000849769 0.00253304 -1.18369e-18)
(-0.00408907 0.00679624 -1.03313e-17)
(0.000388307 -2.34562e-05 1.74312e-18)
(-0.000267715 -0.000450099 4.03357e-19)
(-0.000310706 0.000137575 7.31199e-19)
(0.00180739 0.00571406 2.52621e-18)
(6.11638e-05 -6.74334e-05 4.55916e-18)
(0.00823643 0.00485731 -1.97388e-17)
(0.0290127 0.0499325 -5.01315e-17)
(-0.00395791 -0.0175697 3.15701e-18)
(0.000730762 0.000126491 3.45237e-19)
(-0.00212023 0.00261155 -2.6755e-18)
(-0.0280503 0.0117602 1.52399e-18)
(-0.0747393 -0.0251401 1.51774e-17)
(-0.00105202 -0.000723193 4.37225e-18)
(-0.0155277 0.0144695 2.69643e-18)
(0.0451891 0.0080649 1.1369e-17)
(0.000388446 -3.30525e-07 6.20964e-18)
(-0.000809605 -5.19799e-05 -6.69868e-19)
(-0.0104028 0.0300037 1.42268e-17)
(7.18564e-05 7.35592e-05 8.87032e-18)
(0.000274334 -6.43311e-06 -4.02915e-18)
(-0.000219872 0.000154714 2.91425e-18)
(-0.000278418 0.000188022 -3.71242e-18)
(-0.00271914 0.00762725 6.52557e-19)
(-0.000214685 9.22701e-05 -2.40248e-18)
(-0.000218575 0.000952504 -3.95458e-18)
(0.000364475 -0.000155303 3.43941e-19)
(-0.000251684 0.000724598 -5.03839e-18)
(-0.00499335 -0.00109338 -1.0071e-17)
(0.000978269 -8.39198e-06 -2.42653e-19)
(0.00942759 0.00458639 2.75428e-17)
(-3.50113e-05 0.000469139 -1.01768e-18)
(-0.000207108 0.000411853 -9.4769e-21)
(0.000405678 -0.000199617 -2.6564e-19)
(0.00110434 -0.00682891 -2.02975e-17)
(0.0484531 0.0288051 9.08314e-18)
(0.000852464 -8.57405e-05 -3.14178e-19)
(-0.00020532 0.000484181 -3.57035e-18)
(-0.0345902 0.0098647 6.53628e-18)
(-0.0260418 -0.000426567 -2.70918e-17)
(0.000275268 -4.98873e-06 -3.24794e-18)
(-0.000485107 0.00221186 3.95539e-17)
(0.000107078 4.90696e-05 4.09299e-18)
(-0.0363492 0.0353857 -5.27272e-18)
(-0.00229981 -0.0010662 1.51965e-17)
(0.0082951 0.00114061 -7.75805e-17)
(0.0137234 0.0127742 -4.85443e-18)
(-5.47805e-05 0.000771573 -6.11102e-19)
(0.00087152 -8.12518e-05 3.19529e-19)
(3.20204e-05 0.000363501 5.84859e-18)
(-0.00390259 0.00806337 -8.10567e-18)
(0.00042191 1.68917e-06 -5.93939e-18)
(-0.000119943 0.000108455 -2.3031e-18)
(0.0458885 0.0283255 -9.55913e-18)
(0.0243735 0.0250963 9.99892e-20)
(1.40784e-05 0.000497958 -7.45284e-19)
(0.000404444 -0.000199692 -2.20041e-19)
(0.00396308 0.0177933 7.3619e-18)
(0.000423919 9.53293e-05 -2.25663e-19)
(0.000130357 6.97754e-05 3.06602e-18)
(0.0102451 0.0383446 5.61249e-17)
(-0.00693087 0.0240192 1.43142e-17)
(-0.00147804 0.00124555 -7.71291e-18)
(0.00697034 0.00424973 3.56527e-18)
(0.00532101 0.000133192 -1.16443e-17)
(-0.00503659 0.00233381 -1.5075e-17)
(-0.0346001 0.0360473 1.05965e-17)
(-0.0372801 -0.0167152 -1.65817e-17)
(0.00856417 0.0394588 -6.70014e-17)
(-7.89813e-05 0.00213479 -5.69687e-18)
(-0.000546965 0.00216942 -2.23264e-17)
(0.01348 0.011984 -2.32028e-18)
(0.0040033 4.43364e-05 8.4441e-17)
(0.000101863 0.000102293 -4.71439e-19)
(-0.0360564 -0.0161938 -5.3837e-17)
(0.000104926 3.71332e-05 -4.02754e-18)
(0.00229482 0.00266213 -1.17996e-16)
(-0.000239871 0.000958478 4.96882e-18)
(0.00371277 -0.00211274 -2.95213e-17)
(0.00214813 0.00243375 -7.25215e-17)
(0.00694591 0.0390422 6.71085e-17)
(0.000427144 9.03438e-05 4.61123e-20)
(0.000162649 -7.999e-05 -5.32368e-18)
(0.00374722 0.00721108 -4.15822e-18)
(-0.000242816 1.34285e-05 -2.3743e-18)
(-0.0373579 -0.0139772 2.76429e-18)
(-0.000591866 0.0189031 8.11839e-18)
(0.000758764 -0.00154951 1.75726e-17)
(0.0474286 0.00558262 6.74715e-18)
(-0.00332951 0.00264611 -1.89039e-17)
(0.0360347 0.0616211 1.85241e-17)
(0.000594545 0.0266829 -1.25982e-17)
(-0.000246614 0.000378123 5.03573e-19)
(6.74469e-06 0.000444568 5.15096e-18)
(0.00236174 0.00203927 1.10764e-16)
(0.000717788 -0.000796905 5.97706e-17)
(0.000734703 0.000126296 -2.55546e-18)
(2.5418e-05 0.00061907 -1.16636e-18)
(-0.047937 -0.000455071 -2.83119e-17)
(-0.0139347 -0.00363527 2.64725e-17)
(-0.0545205 -0.00525938 2.43426e-17)
(-0.000986094 -0.00167806 -8.02596e-19)
(0.00373165 0.00524069 2.27904e-17)
(0.00687884 -0.0024889 1.29134e-17)
(0.00181205 0.00128645 -4.21306e-18)
(6.81384e-05 -0.000148224 -4.39084e-18)
(-0.0389908 -0.000235714 -7.65909e-17)
(-0.000951383 0.00275028 1.75499e-17)
(-0.00485891 0.000504642 -1.2224e-17)
(-0.00504291 0.00204434 1.80754e-17)
(-0.00274717 -0.024624 -7.107e-17)
(0.041424 0.0274532 -5.19607e-18)
(0.00213359 0.00287029 9.9777e-17)
(0.000830992 2.15745e-06 1.05135e-18)
(-0.0041638 0.00720919 -1.12046e-17)
(-0.00184317 0.00249924 -8.48719e-18)
(0.0034512 0.00288852 -1.6549e-17)
(-0.000994265 0.000815701 -4.37011e-18)
(-0.000205937 0.00280997 4.80364e-17)
(-0.000130899 0.000850839 2.35225e-18)
(0.0105091 0.0371799 -3.9923e-17)
(-0.00258069 0.00808072 -7.07867e-18)
(0.000211543 -6.91507e-05 -2.92179e-20)
(-0.00087865 0.00154011 -2.31251e-17)
(-0.00140465 0.00131525 1.14197e-17)
(-0.00220651 0.00175411 -1.04426e-18)
(8.12008e-05 0.000499552 -1.39052e-18)
(-0.0282947 0.00258041 -4.53537e-17)
(-0.000204174 6.84352e-05 -5.66951e-19)
(-0.000351416 -0.000534972 -1.79678e-18)
(-0.047373 0.00463516 -3.64713e-17)
(0.0997935 0.00799027 -1.36672e-17)
(-0.0161396 0.0135929 4.56756e-18)
(-0.0122768 0.0323123 -1.25917e-17)
(-0.00613541 0.00223883 5.95795e-17)
(-0.010257 0.0579879 -8.01737e-19)
(0.000160563 0.00191552 -4.65387e-18)
(0.000169662 -5.66434e-05 9.31012e-19)
(0.0138799 0.000927983 3.31005e-17)
(0.000313437 0.0010859 -8.35549e-18)
(0.00491207 0.00500453 -2.69536e-17)
(-3.51032e-05 0.000465429 2.94103e-18)
(1.80525e-05 0.000553564 6.40242e-18)
(4.7319e-05 -3.41906e-05 3.82434e-18)
(0.000381834 0.000210539 1.9855e-20)
(-0.0318528 0.0358969 7.16249e-18)
(0.00270028 0.00186067 6.51215e-17)
(2.08323e-05 0.000550358 2.59837e-18)
(-0.00222962 -0.00112688 -1.88036e-17)
(-0.0716573 -0.0254874 -1.72421e-17)
(-0.000331858 -0.000395121 -1.4378e-18)
(-0.0281508 0.00376108 -4.42375e-17)
(-0.00411006 -0.00337602 -2.11577e-17)
(-0.0409992 -0.0181057 -5.34077e-17)
(0.0065938 -0.00860632 -2.47544e-17)
(0.000387259 -1.94934e-05 -1.74158e-19)
(0.00289096 0.00165374 -2.26132e-17)
(-0.0249927 0.0141683 9.36784e-18)
(-0.030677 0.0356959 -6.63884e-18)
(0.025961 0.0488474 4.62221e-17)
(-0.0655877 -0.0255562 3.22852e-17)
(-6.13754e-05 0.000794423 -1.64371e-18)
(-0.000881542 0.0015205 3.26074e-18)
(-0.000119902 0.000406685 8.74834e-19)
(0.000724677 6.43311e-05 1.24651e-18)
(-0.0143113 -0.000665194 -3.04127e-17)
(-0.00879869 0.0566521 9.76187e-19)
(0.000319988 -0.000298936 4.64244e-19)
(-0.00250763 0.000425323 -7.40334e-18)
(-0.0033577 0.054587 -4.12274e-18)
(0.000142156 -9.68454e-05 8.18476e-18)
(-0.0130121 -0.00483957 -2.79948e-17)
(0.000408966 -0.000150375 9.19615e-20)
(0.000116297 -0.000143115 3.91597e-18)
(-0.00103973 0.000799196 3.70932e-18)
(0.0398346 0.0254083 1.17305e-17)
(-2.1858e-05 0.000693534 -3.42726e-18)
(-0.0155051 0.0126946 -1.63059e-18)
(-0.000606457 0.00051217 9.46366e-19)
(0.0144822 0.0110373 2.27617e-18)
(-0.000284212 9.88443e-05 2.84552e-18)
(-0.00437429 -0.00362364 5.93678e-18)
(0.000356271 7.59268e-05 -1.37733e-19)
(0.000384596 -0.000154605 -2.22611e-19)
(-0.000608911 0.00159177 5.6933e-17)
(-4.34391e-05 0.00046768 3.45043e-18)
(3.93328e-05 -0.000486612 -1.22706e-17)
(0.00932803 0.00774201 9.11706e-18)
(0.00076356 2.36949e-05 -2.38842e-19)
(-0.000560018 0.000499282 -3.05315e-18)
(0.00189284 0.0188611 4.85112e-18)
(0.000111282 -4.52675e-05 -8.20239e-19)
(0.0113266 0.00546949 6.08261e-18)
(-0.000227332 0.000437261 6.98774e-19)
(0.000401954 -4.66376e-05 -5.07825e-18)
(0.000792671 -0.00139648 -3.37971e-18)
(4.58168e-06 0.00060716 -1.50639e-18)
(0.000278374 -0.000461788 4.73719e-18)
(-0.00119293 0.00130687 2.08279e-17)
(0.00484567 0.00337009 -1.24643e-17)
(-0.00123064 0.00136899 -1.82593e-17)
(-0.000638618 0.00245219 1.41956e-17)
(0.000606585 -9.16844e-06 -8.06282e-20)
(-0.0405195 -0.0229004 6.17859e-18)
(0.000406536 -5.26634e-05 2.2318e-18)
(-0.000236957 0.000390284 -1.16398e-18)
(-0.000498695 0.0384924 1.24861e-17)
(-0.0447404 0.00551662 2.41586e-17)
(-0.00240069 -0.00907537 2.913e-17)
(0.000988799 0.0185323 1.05073e-17)
(0.00470806 0.000391029 -1.42336e-17)
(-0.00106032 0.000371609 2.96175e-18)
(0.00037693 -0.000288254 -4.04654e-19)
(0.00995785 0.00653815 5.62511e-17)
(5.3838e-05 0.000311374 -9.11369e-18)
(0.0141968 0.0102125 -8.16309e-18)
(0.0103412 0.00429112 7.82151e-18)
(0.00603022 0.0407999 -7.06904e-18)
(0.000728869 1.35093e-05 5.06882e-19)
(0.000136812 -0.000114541 1.43877e-18)
(0.00034112 -0.00028268 -8.04065e-20)
(0.00096918 9.66946e-06 -4.25809e-19)
(-0.0398486 -0.000735161 2.08364e-17)
(0.000873777 -0.000323701 6.32309e-19)
(0.000449157 8.04425e-05 1.43542e-18)
(-0.00697849 -0.00489375 -3.63102e-17)
(0.0462842 0.05954 -7.24538e-19)
(-0.000584405 0.00030404 -2.55898e-18)
(-0.00782949 0.0363284 7.51494e-18)
(0.00570333 0.00138694 2.36922e-16)
(0.00463181 0.0404182 -5.37249e-18)
(4.63068e-05 2.54006e-05 -1.72506e-18)
(0.00472456 -0.000719479 2.88312e-17)
(-0.000264595 0.00113282 -9.57823e-18)
(9.41372e-05 0.000182789 6.26458e-19)
(-0.0268255 0.003881 2.03448e-17)
(-8.61228e-05 0.00226339 1.44774e-17)
(-0.000255006 0.00110885 1.76633e-17)
(-0.000664278 -0.0010344 -2.00634e-18)
(0.00224249 0.00104346 1.07788e-17)
(0.0141062 0.0497305 -1.5363e-17)
(-0.000543412 0.00247462 -3.23708e-17)
(0.000217805 -0.000409399 8.39845e-19)
(-0.00158482 0.00107578 2.80184e-18)
(0.000359072 -0.000348079 2.86723e-19)
(0.00046879 0.0148915 7.80138e-18)
(0.000196993 0.000400719 4.13813e-19)
(0.00886319 0.0080296 -6.14429e-18)
(-0.000223335 0.0004694 9.05293e-20)
(-0.00157764 0.0385555 -1.94528e-17)
(0.0222228 -1.84992e-05 1.80146e-18)
(0.000728317 -6.81791e-06 4.53492e-19)
(-0.000244509 0.00034523 -4.68766e-18)
(-0.00284846 0.00177353 -1.08152e-17)
(-0.000197682 0.000331919 1.3208e-18)
(-0.00243971 0.000337081 2.86313e-20)
(0.00928086 0.00682375 -5.13112e-17)
(-0.062826 -0.0197843 8.82237e-17)
(-0.0566462 -0.00425105 -4.2357e-17)
(8.97393e-05 0.000432019 6.24589e-19)
(0.00205327 -0.0063292 -1.17194e-17)
(0.0792569 -0.0181677 -6.18054e-18)
(-0.00458596 0.00108775 -3.62454e-17)
(-4.79651e-05 0.000703463 -3.50228e-18)
(8.16406e-05 -0.000289257 8.1994e-19)
(0.000527005 0.00030422 5.20377e-18)
(0.000993981 -0.000299352 -1.63356e-17)
(8.67169e-05 0.000464933 1.68998e-18)
(0.15511 -0.00448988 1.79372e-17)
(-0.00641589 -0.00452067 -5.6447e-17)
(0.111709 0.0481234 -2.09202e-17)
(0.000664544 0.00185208 5.32396e-18)
(0.0088036 0.0047893 -8.04587e-18)
(0.000298425 -0.000275025 5.29789e-19)
(0.00118886 -1.83507e-05 2.81481e-19)
(-0.00121684 0.000342051 -9.40306e-19)
(-0.00150696 0.00348226 -1.46228e-17)
(-8.15319e-05 0.00104387 1.27227e-17)
(-0.00148615 0.0011386 -1.6763e-18)
(0.0133694 0.00234087 -2.12812e-17)
(0.000410185 0.000206227 -8.90354e-18)
(0.00798899 -0.000390794 -1.64289e-18)
(-0.000188263 -0.000434911 -1.84836e-18)
(0.0606494 0.0440994 2.38766e-18)
(-0.0381288 -0.0180498 1.20949e-17)
(0.000961619 -1.75441e-06 -9.21766e-19)
(0.0650973 0.0267191 2.13514e-18)
(-0.00073156 0.00057233 3.85117e-18)
(-0.00013914 0.000102661 3.25758e-18)
(0.000209384 -0.000215279 4.15421e-18)
(0.00767628 -0.00166958 1.4737e-17)
(-0.00119179 -0.000777121 2.10483e-18)
(8.38535e-05 0.000144714 -1.81758e-18)
(0.0149821 0.00164094 7.39659e-17)
(0.110753 0.0472711 9.1045e-18)
(0.000195447 -0.000109382 3.1951e-18)
(0.013689 0.000925004 3.76957e-17)
(0.007285 -0.00124355 -3.36331e-17)
(-0.00188617 -0.00877127 6.00548e-17)
(0.000228859 0.000373256 -5.17543e-18)
(0.00101151 -1.04375e-06 -4.68911e-19)
(0.00933987 0.0473338 -1.36359e-17)
(-0.000550679 0.000294556 3.38351e-18)
(0.00035797 -0.000288664 -6.83957e-19)
(-6.32353e-05 -0.000246031 1.0542e-18)
(2.33824e-05 0.000784849 -2.35383e-18)
(-0.00421779 -0.00304965 8.17867e-17)
(0.00766941 -0.00212243 2.50584e-18)
(0.000482107 0.000277211 7.31249e-18)
(0.000781405 -0.000232791 6.12099e-18)
(-0.000331466 0.000185974 -3.54021e-19)
(-0.00109216 0.00067954 -1.10101e-17)
(0.000377147 -0.000331419 8.2267e-19)
(4.73289e-05 -6.11942e-05 -1.76032e-18)
(0.0397467 0.0298232 4.01965e-17)
(-0.00114785 -0.000780771 1.69537e-17)
(0.00199597 -0.00651809 7.06738e-18)
(0.106222 0.0697733 -1.926e-17)
(-9.30633e-05 0.00106184 7.26525e-18)
(-2.99256e-05 0.000688181 5.5258e-19)
(0.00106178 2.45827e-06 -9.26859e-19)
(0.0682879 0.0433748 -1.60446e-18)
(0.070743 0.028276 -4.9168e-18)
(0.000272682 -0.000297178 1.85339e-19)
(0.000415092 -6.55939e-05 -7.62659e-20)
(0.000237981 -0.000290877 -3.52961e-19)
(-0.000131621 0.000851159 6.00838e-18)
(-0.000991508 0.000376083 -4.46074e-18)
(-0.000870753 -0.0164055 2.23019e-17)
(8.14089e-05 -0.00014948 -9.05275e-19)
(1.62356e-05 0.000326001 2.01809e-18)
(0.000400578 -0.000229602 -1.87764e-19)
(-0.000858158 0.00267189 -9.89556e-18)
(-0.0021589 0.00165886 2.59318e-18)
(0.0185595 -0.00193165 -1.87163e-17)
(-0.00323803 -0.0008242 -1.24735e-17)
(-0.00104791 -0.00022994 1.28173e-18)
(0.0400843 0.0210883 -1.37002e-17)
(-0.0025284 -0.0002238 3.71149e-18)
(0.00136696 0.000133515 -7.99681e-18)
(-0.000295056 0.00111384 6.4906e-18)
(0.000257181 0.0056049 8.6838e-17)
(-0.0283701 0.00601097 -7.85291e-18)
(-0.00357537 0.0563517 3.05142e-18)
(0.000503078 0.000117651 5.11319e-18)
(-0.000329581 2.13892e-05 1.69428e-18)
(-0.0563915 -0.0206967 -6.50354e-17)
(-0.0613528 -0.0198272 -8.05847e-17)
(-0.000100788 0.000477065 3.72386e-19)
(0.000292256 -0.000267685 6.90385e-19)
(0.00534464 0.00334939 1.18494e-17)
(-0.000301167 -0.000276272 -7.07906e-19)
(-0.000826241 0.00265882 2.28825e-18)
(-0.0736181 -0.024842 1.21693e-17)
(0.138819 0.0685483 8.64068e-18)
(-0.0218904 0.0262513 5.73746e-18)
(-0.000315959 0.000218407 -8.23639e-19)
(0.0215954 5.5493e-07 1.698e-17)
(6.43868e-05 0.000145073 -1.07141e-17)
(1.18636e-06 0.000466049 -2.92051e-18)
(0.000167777 0.000185319 1.04334e-19)
(-0.000287859 0.00022186 2.00425e-18)
(-0.010847 0.0261287 -2.11985e-17)
(-0.000155332 0.0005636 -1.21508e-18)
(0.0128955 0.00136417 -2.65373e-17)
(-0.00194283 0.00188017 5.47059e-19)
(-0.000562332 -0.000994168 3.24743e-18)
(0.000195892 -9.44382e-05 8.00691e-18)
(-0.036801 -0.00601681 -7.22227e-17)
(-0.0208552 0.0256664 -5.68612e-18)
(0.0260512 0.0223364 -2.34055e-18)
(4.69203e-05 0.000118804 8.37779e-18)
(-0.0123226 0.00977505 4.72063e-18)
(0.000105171 -0.000278069 -9.17974e-19)
(-0.000190516 0.000961006 -1.26191e-17)
(2.9735e-05 -0.000143867 7.03064e-18)
(0.000735601 1.3214e-05 4.48603e-19)
(-0.0652564 -0.00159828 6.97438e-17)
(0.0133003 0.00634716 7.09959e-18)
(-0.00524584 0.00061411 8.47507e-18)
(0.00076472 0.00226741 2.82815e-18)
(0.00105113 -1.90721e-06 -1.60409e-18)
(0.014874 0.033044 1.02875e-17)
(0.0160839 0.014235 -3.90062e-17)
(0.00237228 0.000951976 -2.70269e-18)
(0.000720731 0.000136876 2.06037e-18)
(0.104149 0.0758303 1.57813e-17)
(-5.52697e-05 -0.0001215 2.49915e-19)
(-0.000383113 -0.000626245 3.29015e-19)
(0.000735968 7.42079e-05 -8.27722e-19)
(-0.0109743 0.0270894 -1.54642e-18)
(6.12753e-05 -0.00014065 4.77233e-18)
(-0.000251694 0.000749676 -2.50031e-18)
(-0.003072 -0.000924887 -6.88749e-18)
(-0.0449313 -0.00356114 5.57716e-17)
(9.29132e-05 -0.000251703 -1.26711e-18)
(-0.0149761 0.0210409 -2.56345e-18)
(0.0013286 0.00647697 1.63582e-17)
(0.00022329 0.000394498 3.8331e-18)
(-0.0018392 0.00113499 -5.26467e-18)
(0.000104098 0.000115335 -1.13943e-18)
(0.000412148 -7.04203e-05 1.9607e-18)
(0.000351919 0.000229118 4.24461e-18)
(0.00108806 0.0129307 -2.99536e-18)
(-0.00105292 0.000637624 4.24041e-18)
(-0.000227265 -0.00117841 -1.74779e-17)
(0.00200326 0.00130984 -3.44999e-18)
(8.60091e-05 0.00053351 1.55217e-18)
(-0.00267992 0.00173194 1.3946e-17)
(0.0880264 0.0407047 -1.18968e-18)
(0.0965469 0.054591 1.13419e-17)
(0.00502477 -0.00831381 -2.36539e-17)
(-0.0143341 0.0253836 -2.51599e-18)
(-5.19835e-05 0.000714013 6.32128e-18)
(0.000722501 1.84109e-05 -3.72302e-19)
(0.000399094 6.25998e-05 -2.21692e-18)
(-2.01218e-06 0.000624399 -6.47499e-18)
(-0.0232989 0.0256565 -5.83416e-18)
(-0.00154486 0.00666811 -2.65295e-18)
(-0.00530614 0.00300098 4.97986e-18)
(-0.000686489 0.0005732 1.21845e-17)
(0.000134065 0.00205636 1.74656e-17)
(-0.0175969 0.0530848 -2.52547e-17)
(0.000258215 0.0192578 -5.21166e-18)
(8.61834e-05 8.6146e-05 7.44887e-18)
(0.000734286 -0.00018632 -3.91391e-18)
(0.00277901 -0.000395616 -9.68428e-18)
(-8.89524e-05 0.000765164 -7.68303e-19)
(0.140795 0.0760538 -5.55533e-18)
(0.00117503 -8.26718e-08 7.06761e-19)
(1.26075e-05 0.000557183 1.54963e-18)
(0.117384 0.0240036 1.79666e-18)
(-0.000328808 0.000852555 4.65351e-18)
(-0.000284626 0.000274688 2.8752e-18)
(0.0120298 0.0496558 2.21321e-17)
(-0.00917894 0.0303426 -8.98885e-18)
(-0.00116943 0.000283013 9.40037e-19)
(0.00211198 0.00287484 2.81954e-18)
(8.77542e-05 9.57653e-05 -1.97188e-18)
(-5.35909e-05 0.000745998 -1.46103e-18)
(-0.000681617 0.00257855 -3.44398e-17)
(0.000412468 0.00576488 3.98004e-17)
(-0.000425617 0.00114737 -1.58175e-17)
(0.000131609 -0.00291134 1.13215e-17)
(-0.0395868 0.0329597 -4.14079e-18)
(-0.0146164 0.0516134 -5.82664e-19)
(-0.0479018 -0.00123192 4.58057e-17)
(-0.0364957 0.033327 5.15558e-18)
(1.42545e-05 0.000480353 4.85536e-19)
(0.00944507 -0.00638312 -7.85418e-18)
(2.86382e-05 0.00062591 -1.43739e-19)
(-0.0241491 0.0262299 7.72704e-18)
(-6.58151e-05 0.000491961 -1.83313e-18)
(0.00153887 0.00314191 -8.6771e-18)
(-0.0126344 0.00910861 -2.87365e-18)
(-0.0268501 -0.023142 5.53204e-17)
(-0.00505118 0.00296445 -3.85067e-18)
(-0.0175088 0.0165026 -1.00448e-17)
(0.000966262 2.33954e-06 -3.64971e-21)
(0.0301194 0.0475084 -3.31517e-19)
(0.000398616 -0.000184466 1.4109e-19)
(-0.027047 0.00413917 -1.69065e-18)
(0.000147157 0.000204218 1.84622e-18)
(-0.00399879 0.000557111 -3.38198e-17)
(0.000175637 0.000464957 5.38003e-18)
(0.0709655 0.0409165 8.41023e-18)
(-0.000756669 0.0028524 -3.3811e-18)
(0.000225044 0.00039927 3.16842e-18)
(0.000160905 -0.00010102 1.49705e-18)
(0.0007255 8.98724e-05 6.20207e-19)
(0.0838866 0.0472808 4.91104e-18)
(-0.0569531 0.0034935 2.15908e-18)
(-0.0503742 -0.00189529 2.11679e-17)
(-0.00493784 0.00793055 -3.07973e-19)
(-0.0022326 0.000134973 6.2697e-18)
(0.00830916 -0.0013676 -2.77709e-17)
(9.76776e-05 -3.8598e-05 -1.51244e-18)
(-1.59993e-05 -4.67898e-05 2.39795e-18)
(0.0457701 0.0293628 8.11965e-19)
(0.000173953 -0.000101505 -1.73067e-18)
(3.93027e-05 0.000574052 -9.21901e-18)
(0.013389 0.00158178 2.26484e-17)
(0.000592071 0.000109706 -5.04239e-18)
(5.13067e-05 -0.00269355 -7.99801e-19)
(0.00830699 -0.000806034 1.71583e-17)
(3.16975e-05 0.00057152 1.06521e-18)
(9.21494e-05 -0.000144219 7.72147e-19)
(-0.000281232 0.00094193 -5.29543e-18)
(-7.00082e-05 0.000740552 -1.00807e-17)
(0.000435907 0.0011313 -1.3249e-17)
(-0.00268044 0.0405249 -1.93929e-20)
(-0.00816065 -0.0027293 8.32326e-18)
(-0.000416697 0.00113569 -1.22885e-17)
(5.68379e-05 0.000262159 -1.63197e-18)
(0.000104473 0.000547551 -1.1454e-18)
(-0.000414675 0.0029036 1.87905e-18)
(3.96041e-05 0.000457514 -5.02234e-18)
(-0.000160717 0.000422498 -1.26515e-18)
(-0.00357141 0.00348982 -2.30032e-17)
(-0.0239379 -0.00475475 2.47266e-17)
(-0.0171953 0.0155331 2.87515e-18)
(0.0332273 0.0438925 -3.70017e-18)
(-0.00010751 0.000474992 1.1086e-20)
(-0.00022403 0.000402322 -1.6437e-19)
(-0.0249386 -0.00641324 -2.92505e-17)
(-0.000293316 -0.000409829 3.01171e-19)
(-0.0623285 -0.00217225 -1.29747e-17)
(-0.00375856 0.000505049 2.5643e-17)
(0.000225385 0.0004351 -1.08289e-18)
(-0.00173709 0.0387183 -9.23703e-18)
(0.0419415 0.0228502 2.33982e-17)
(0.00554523 0.00376791 7.56455e-18)
(0.00115656 9.8285e-06 7.87748e-19)
(-0.00104621 -0.000775532 -9.48629e-20)
(0.0612964 0.028437 -2.00042e-18)
(-0.000226736 0.000127698 3.00412e-18)
(-7.41367e-05 0.000119738 -6.40684e-20)
(-0.00117023 -0.00156089 -2.60305e-18)
(-0.00115697 -0.000711649 -4.32382e-18)
(-0.000298828 -0.00052882 1.36945e-18)
(0.00112148 1.01477e-05 -4.54627e-19)
(4.54152e-06 -2.37772e-05 -1.97999e-18)
(-0.0478093 -0.00404634 1.45158e-18)
(-0.000299824 0.000893642 2.95717e-18)
(-0.0709805 -0.0251731 1.8961e-17)
(6.96976e-05 -0.00015275 1.44681e-19)
(0.00894839 -0.0078774 7.7837e-18)
(-0.0622293 -0.0243379 6.46932e-17)
(0.00018102 0.000420833 1.18629e-18)
(0.000381358 -0.000134502 4.13848e-20)
(-0.000193673 0.000824294 -1.43053e-17)
(0.000355575 0.00011989 -5.27318e-18)
(-4.79358e-05 0.000697392 2.3999e-18)
(-2.9013e-05 0.000875229 -6.18851e-18)
(-0.000111901 0.000427507 2.23382e-19)
(0.0119516 0.0141963 -2.73571e-18)
(-0.00104127 0.00266611 -2.0524e-17)
(0.000744663 -0.000124842 8.87861e-20)
(0.0577673 0.0287884 3.45142e-19)
(-0.0410514 0.00930644 1.02548e-17)
(-0.000352445 0.00117275 5.27072e-18)
(0.010037 -0.00606571 -6.93447e-18)
(-0.00173003 0.00106326 8.16556e-18)
(-0.000202085 0.000971063 1.4063e-17)
(-0.00764687 -0.00277306 -4.11536e-18)
(-0.000209239 0.00174831 -7.98611e-18)
(0.0253493 0.0262887 1.30413e-17)
(-0.000312375 0.000836249 -3.03401e-18)
(-0.00957823 0.00715297 3.96592e-18)
(6.66676e-05 0.000561726 3.74649e-19)
(0.129923 0.0548558 -9.46107e-18)
(0.00172606 0.0039431 -1.79771e-17)
(-0.00226313 0.00152061 4.94167e-19)
(0.00772842 0.0257285 2.83565e-18)
(0.0081737 0.000824227 5.8737e-17)
(-0.00028208 0.000786507 1.48513e-17)
(0.000133102 0.000249797 4.42781e-18)
(0.00499278 0.00106885 6.82134e-18)
(-0.00215755 -0.0151852 4.56555e-17)
(-5.80021e-05 0.000710575 2.04723e-18)
(-0.00452008 0.000135434 4.51817e-17)
(2.65377e-05 0.000469417 5.11734e-18)
(0.0610568 0.0566622 -9.58657e-18)
(-4.75542e-05 0.000685785 6.93454e-19)
(-2.85057e-05 -4.20791e-05 -1.24501e-18)
(0.0007238 0.00010086 -4.00114e-19)
(0.000581866 8.94012e-05 -1.63742e-18)
(-0.034995 0.0135207 3.34477e-18)
(0.0657092 0.0547079 -1.56968e-19)
(9.27364e-05 0.000124008 5.4654e-18)
(-0.0270809 0.04465 -6.71184e-18)
(-0.000444622 0.000746075 9.23398e-19)
(0.0942727 0.0552402 2.80341e-18)
(-0.055078 0.00382935 -1.53032e-18)
(-0.00611269 0.0489898 1.24388e-17)
(0.0286534 -0.0195871 5.74062e-17)
(9.345e-05 -0.000642023 -8.805e-19)
(-0.0218988 0.0131973 -5.78565e-18)
(-0.015967 0.0118286 1.67166e-18)
(3.21398e-05 0.000612334 3.08521e-19)
(-0.0034843 0.00842247 8.15572e-18)
(0.0411393 0.0273276 2.51287e-18)
(0.12149 0.0204287 1.54996e-18)
(-0.000770864 -2.06126e-05 1.08076e-18)
(5.05646e-05 0.000614134 -8.5345e-18)
(2.72335e-05 0.000623582 6.37403e-19)
(0.00117823 -2.17086e-05 -4.22592e-19)
(0.0935474 0.00725929 -1.08845e-17)
(0.0108609 0.0157182 2.61457e-18)
(-0.0299994 0.0126497 -1.23198e-17)
(0.0149502 0.0120377 -1.73557e-18)
(4.89055e-05 0.000139119 -2.03658e-19)
(0.000361712 9.58677e-05 -5.81619e-18)
(0.00385258 0.00705156 -3.14453e-17)
(3.45911e-05 -5.27851e-05 -4.05659e-18)
(0.000403961 0.000195288 1.28115e-18)
(-2.76855e-05 0.000856135 -4.50476e-19)
(-0.00108966 -0.00124828 -2.5811e-18)
(0.0130124 0.014084 -3.5362e-18)
(0.00143905 0.0039312 2.28004e-17)
(-0.00390653 -0.00410077 -1.79416e-17)
(0.00633528 0.0272504 -1.13456e-17)
(0.000372114 -0.0030062 1.3209e-17)
(0.000191496 0.000467027 -3.24289e-18)
(-0.000311503 0.000844756 -2.30139e-18)
(0.000294591 -0.00557793 4.06257e-17)
(0.0319686 0.0301522 -9.72752e-18)
(-0.00934889 0.00660126 5.38723e-18)
(-0.00938569 0.00255878 -1.23185e-16)
(0.0040623 0.00100847 3.08416e-18)
(7.85477e-05 0.000162756 -4.69457e-18)
(-0.0264101 0.043808 2.65141e-18)
(0.119244 0.0335746 -6.83503e-18)
(-2.73479e-05 0.000688656 3.49233e-18)
(0.000290006 -0.000301892 -3.81253e-19)
(-0.000631028 0.00195088 3.15988e-17)
(-0.036709 -0.0143707 3.01562e-17)
(-0.00428409 -0.00394542 5.01982e-17)
(0.000532707 8.19304e-05 2.10012e-18)
(-0.0307268 0.00575865 -5.50793e-18)
(0.00738454 0.00228889 -8.24317e-18)
(-0.00697525 -0.0148125 -3.43092e-17)
(0.000413487 -0.000209969 -1.42974e-19)
(0.0049177 0.000474758 -3.78853e-18)
(0.0141195 0.00138481 3.31836e-17)
(0.000142868 0.00162242 4.99983e-17)
(-0.000183426 0.000573601 5.97662e-18)
(3.31024e-06 -6.09566e-05 3.38334e-18)
(-0.0584564 -0.0135333 7.2395e-17)
(1.66812e-06 -2.14999e-05 -5.936e-18)
(-0.0139496 0.0376872 1.33818e-17)
(-0.0598153 -0.00297811 3.78615e-17)
(0.0215423 -0.00339907 -9.27316e-18)
(0.00758182 0.000980737 -5.08217e-17)
(-0.0031181 0.0198233 -1.15611e-17)
(-0.00513607 0.0101298 -5.17431e-18)
(0.00186545 0.0130699 -1.78099e-18)
(4.58337e-05 0.000470612 3.48881e-18)
(4.08776e-05 0.000583902 1.21183e-17)
(0.00704657 -0.00501119 -1.75036e-18)
(0.090613 0.0741683 1.33329e-18)
(0.015236 0.00120771 -6.6602e-17)
(0.127493 0.0684407 2.27836e-18)
(-0.000290782 -0.000440382 6.70693e-19)
(-0.0129343 0.037466 -5.59798e-18)
(2.32751e-05 -3.15718e-05 5.34156e-18)
(0.00480471 6.84098e-05 3.43167e-17)
(-0.00844266 0.0208157 -7.571e-18)
(0.00069719 -0.00634098 2.71942e-18)
(0.000219768 0.000414214 5.20997e-19)
(-0.000220858 0.000805742 -1.18719e-17)
(0.0134622 0.0321464 -1.84341e-17)
(0.0505002 0.0273071 -3.18719e-18)
(0.00863948 -0.0057311 -7.48148e-17)
(0.0182429 0.000726665 1.01464e-18)
(0.0014895 5.57416e-05 2.18493e-18)
(-0.000200277 -3.07495e-05 1.87134e-18)
(0.00359788 0.0420758 4.76876e-18)
(1.16049e-05 0.00037239 -9.12553e-19)
(7.04524e-05 -0.000273751 -9.17476e-19)
(0.000187914 -4.15536e-05 -2.66757e-18)
(-0.00337077 -0.00144214 1.54996e-18)
(-0.0158905 0.0153277 1.5359e-18)
(5.3862e-05 0.000491488 2.7645e-19)
(-0.00837212 0.019719 1.63784e-17)
(0.000404687 -1.25751e-05 5.20715e-18)
(0.000852898 6.49324e-06 2.27135e-18)
(0.000460273 -7.99036e-05 -5.30735e-19)
(-0.016944 0.0192655 2.38207e-17)
(1.54489e-05 0.000469313 -3.3509e-18)
(0.000118631 -2.4909e-05 6.70535e-19)
(0.00338713 0.00676756 8.9464e-18)
(0.0041677 0.00378469 2.93007e-17)
(0.00082748 -0.000131788 2.39502e-20)
(-0.0669328 -0.000898046 -7.06069e-17)
(-0.000310389 -0.000300566 1.11375e-18)
(0.00026755 -0.000402449 -1.40211e-18)
(0.00366509 -0.000561931 -1.80459e-17)
(-0.000484653 0.00107776 -3.53253e-18)
(-0.00241775 0.000169359 -6.46609e-19)
(-7.31984e-05 0.000578034 -3.2654e-19)
(-0.0100605 -0.00176702 1.05176e-16)
(-0.000371252 0.00118558 -1.03085e-17)
(8.09731e-05 -0.000314316 -2.91984e-19)
(0.118595 0.0337664 1.01368e-17)
(0.000156218 -0.000338585 5.52283e-18)
(0.0971141 0.0773735 -2.33874e-18)
(3.00038e-05 0.00109913 1.42639e-17)
(0.0118719 0.0155261 -9.22703e-18)
(0.00130433 0.00173034 3.33045e-17)
(0.0924218 0.0047694 1.79417e-17)
(0.00023198 -0.00029375 1.65645e-19)
(0.0300095 0.0261689 -7.13184e-18)
(0.0376208 0.0375296 1.62443e-17)
(0.000793349 8.36182e-05 3.57981e-19)
(-0.0380608 0.00883006 -1.12789e-17)
(0.00013471 0.000521731 -3.59106e-18)
(0.000482885 -8.25258e-05 3.07792e-19)
(0.00166485 0.00293768 -3.85939e-18)
(0.000390967 -1.04477e-06 -1.63961e-18)
(-0.00244596 -0.00187229 2.50673e-17)
(0.0281309 0.028977 1.25648e-17)
(0.000410559 -0.000169774 -4.26034e-20)
(0.00292861 0.000765948 -6.28561e-17)
(0.000146228 -0.000616237 -1.41896e-18)
(0.00173261 0.00143794 -4.80306e-18)
(0.0888332 0.0775785 -1.21986e-18)
(0.000788885 -0.000115648 1.45108e-19)
(-0.039848 -0.00960511 -4.40168e-17)
(-9.40494e-05 0.000617984 -9.92052e-19)
(-0.000226502 -0.000177375 1.88397e-18)
(0.000130534 -0.000135163 -2.30739e-18)
(0.000147991 -5.46231e-05 4.21576e-18)
(0.0250325 0.000500202 -1.74835e-17)
(-0.000570243 0.00162231 -3.0465e-17)
(-0.0366545 -0.00276344 1.09203e-17)
(0.000458458 -0.00316674 -2.0176e-17)
(-0.0352851 -0.0218161 2.53707e-17)
(0.00437021 0.00615901 5.05481e-19)
(2.22676e-05 0.00050778 -2.22788e-18)
(0.0126879 0.0351252 2.69341e-17)
(0.0173306 0.00114758 -4.11586e-17)
(0.0163896 -0.0203699 -7.17292e-18)
(-0.000658713 0.00161745 -6.88521e-17)
(0.0189726 -0.00075375 1.45175e-17)
(-0.0173545 0.0107658 7.08546e-18)
(0.000235088 0.000496034 5.31461e-18)
(0.0245874 -0.00125314 3.29707e-18)
(-7.2553e-05 0.000607311 -1.77183e-19)
(-0.00720893 0.000827234 -1.72858e-17)
(0.000603601 4.92065e-05 -1.37266e-18)
(0.00435791 0.000619857 9.04066e-18)
(-0.0008505 -3.42764e-05 7.31661e-19)
(-0.000731941 0.0015639 1.27064e-17)
(-0.000282589 0.000958544 6.42033e-18)
(-0.00023782 0.000273322 2.72381e-18)
(-0.0792164 -0.0253788 -1.09879e-17)
(5.24333e-05 0.000604616 7.17903e-19)
(0.000424299 0.000150677 1.40984e-18)
(-0.0113956 -0.0237446 -6.58171e-17)
(-9.85588e-05 0.000623538 1.23743e-18)
(0.000415855 -7.69219e-05 2.81677e-19)
(-0.00140936 0.00708265 -1.20099e-17)
(0.00673169 -0.00253143 -2.35537e-18)
(0.0262875 0.000713641 3.774e-17)
(-0.00842336 -0.0161535 -3.64369e-17)
(0.0614449 0.043107 1.26091e-17)
(-0.0379298 -0.00975626 6.14411e-18)
(0.000375214 0.000103091 6.43653e-18)
(-2.00539e-06 -9.26453e-05 -3.25497e-18)
(-0.0322632 0.00684053 1.31008e-17)
(2.678e-05 0.000228449 8.98416e-19)
(-0.00647222 -0.00362346 5.31563e-17)
(-0.00298344 0.0209017 -3.10774e-18)
(-0.000171362 0.000529674 -1.89448e-18)
(2.22757e-05 0.000574978 -6.17435e-19)
(0.00014656 -0.000170186 -1.12688e-18)
(-3.22138e-05 0.000118765 6.3603e-18)
(-0.000230133 -0.000178413 1.69336e-19)
(-0.00227513 0.00237526 -1.23601e-17)
(-0.00646218 -0.00318771 -3.91742e-17)
(-0.00385656 -0.00437699 5.33513e-18)
(-0.000665931 0.00200458 -3.59986e-17)