/*--------------------------------*- C++ -*----------------------------------*\
| =========                 |                                                 |
| \\      /  F ield         | OpenFOAM: The Open Source CFD Toolbox           |
|  \\    /   O peration     | Version:  v2012                                 |
|   \\  /    A nd           | Website:  www.openfoam.com                      |
|    \\/     M anipulation  |                                                 |
\*---------------------------------------------------------------------------*/
FoamFile
{
    version     2.0;
    format      ascii;
    class       volScalarField;
    location    "550";
    object      p;
}
// * * * * * * * * * * * * * * * * * * * * * * * * * * * * * * * * * * * * * //

dimensions      [0 2 -2 0 0 0 0];


internalField   nonuniform List<scalar> 
18758
(
-0.112785
-0.3598
0.00142319
-0.0785456
-0.131432
-0.332874
-0.415528
0.00535323
-0.191498
0.00540636
-0.0304567
-0.416759
0.0136119
-0.0494662
-0.0204865
0.229696
-0.0757803
0.014378
-0.0137883
-0.0063052
-0.0786573
0.0203686
-0.420236
-0.157085
-0.364131
0.00555864
-0.00540833
-0.16767
-0.390543
-0.222216
-0.0668077
-0.0789313
0.0150261
-0.0259146
-0.0883864
0.0244969
0.0152851
-0.010666
-0.0161957
-0.0835222
-0.0114261
0.0823902
-0.00179
0.0459848
-0.281951
0.00349401
-0.42101
-0.0250592
0.00750432
-0.00175994
-0.229156
-0.0778418
0.00149678
-0.0289509
-0.174455
-0.39876
0.0152403
0.333889
0.0302692
-0.052494
-0.120672
-0.415003
-0.164529
0.053875
0.00165774
0.0300402
-0.0804414
0.0149884
-0.00906115
-0.0752857
-0.082234
0.0526119
-0.0019717
-0.335287
0.00200887
0.0284679
-0.13124
-0.122789
0.0665871
-0.419047
-0.424373
-0.328916
-0.0550024
-0.304688
-0.126772
-0.069023
-0.400195
-0.164601
-0.397946
0.0279295
-0.304415
0.0306807
-0.409558
0.0844404
-0.425628
-0.407217
-0.123511
0.00171877
0.0203914
-0.0788062
-0.0179559
-0.296665
-0.107569
-0.104185
-0.0781611
-0.228116
-0.0903195
-0.11636
-0.018149
0.0591203
-0.406916
-0.789771
0.00696209
0.0144615
-0.270906
-0.386234
-0.303387
-0.0201556
-0.418151
-0.421241
-0.0942675
0.0366048
-0.413643
0.118779
-0.241188
-0.274481
-0.353599
-0.213378
-0.404362
0.0122112
-0.0770416
-0.0159242
-0.077024
0.0701939
0.258369
0.0535013
-0.132277
-0.085473
0.0199271
0.184795
0.0808369
-0.0207396
0.0193967
-0.395272
-0.0121892
-0.0151049
-0.121705
-0.117677
-0.0646593
-0.186716
-0.322047
-0.0925008
-0.0695858
0.0194903
-0.425113
-0.0611503
-0.419108
-0.0244365
0.0330132
0.02156
0.00909451
-0.0577173
-0.401862
0.0317868
-0.12034
-0.386909
-0.0148312
-0.413214
-0.23651
-0.311771
-0.410564
0.0145789
-0.405816
-0.159738
-0.0592269
-0.153723
-0.366716
0.054838
0.174764
-0.0073719
0.00832806
-0.369757
-0.0944455
-0.00532709
-0.0402839
-0.0997975
0.0260261
-0.388027
-0.00107065
0.0282218
0.0632887
-0.214221
0.0126143
-0.0644852
0.041844
-0.170197
-0.00970108
-0.247615
0.0164722
-0.0016216
0.220045
-0.0223931
-0.0548467
-0.153601
0.0136233
0.0401112
-0.115155
0.0193756
-0.0765981
0.0117922
0.0138706
-0.109184
0.0306871
-0.0621155
0.114023
-0.423738
0.111574
0.2869
0.00235735
-0.341371
0.0140872
-0.0179353
-0.108511
-0.120017
-0.285031
-0.11238
-0.1406
0.0217195
-0.00494431
-0.158753
0.0303686
-0.17069
-0.419376
-0.120683
0.0137055
0.0262209
-0.00477172
0.00399454
-0.413137
-0.077548
0.0112121
-0.323672
-0.0881897
-0.0290703
-0.183454
-0.414213
-0.118221
0.0244119
-0.424742
0.120611
0.0245855
-0.417022
-0.0703734
0.120061
-0.0187807
-0.102026
-0.131578
0.30926
-0.0576555
0.0454879
-0.00702711
-0.10847
0.0227599
-0.150265
0.0138079
-0.105859
-0.425409
0.00251781
-0.0176039
-0.120281
-0.0165638
-0.0395061
-0.154677
-0.40791
-0.298754
0.0212155
-0.217135
-0.191964
-0.304879
0.0149043
-0.00789781
-0.0554857
-0.0799881
0.0195325
-0.16877
-0.311852
-0.0622961
-0.0774826
-0.421561
-0.00419241
0.00135587
0.0143289
-0.424248
0.099073
0.059893
-0.189952
-0.05033
-0.425895
-0.0131709
-0.0585499
-0.312432
0.00370772
-0.0829225
0.0501137
-0.00979891
-0.0493111
-0.180832
-0.0236258
0.0245594
-0.42309
-0.0569652
0.0199162
-0.41984
-0.423974
-0.277123
0.0249638
0.0119975
-0.0733909
-0.0281826
-0.00487682
-0.00808472
0.0763396
-0.234925
-0.185052
-0.053642
-0.0729778
-0.00212212
0.0560114
-0.00677795
0.0216078
-0.205529
-0.0668059
-0.224336
-0.0776225
0.102126
0.0119656
0.00988568
-0.0559499
-0.0804875
-0.0051715
0.0133572
-0.00498575
0.0541468
0.0260349
-0.353941
0.036045
0.0552326
-0.00248485
0.196536
-0.0170768
-0.230442
-0.158935
-0.0269688
-0.222729
-0.100657
-0.0879113
0.125581
-0.415705
-0.0981264
-0.0997158
0.0142784
-0.0137121
-0.39139
-0.40527
0.0026545
-0.00407132
-0.134527
-0.0140001
-0.067935
-0.368987
-0.0860216
-0.0669342
0.00147011
-0.424897
0.0352634
-0.0219522
0.0203774
-0.0163345
-0.0858492
-0.035067
-0.420183
0.0113413
-0.0183387
0.0200915
-0.342117
-0.0680501
-0.186558
0.0356353
-0.0651174
-0.00737076
0.0828152
0.0366242
0.00279708
-0.244901
-0.0768755
-0.252058
-0.400313
0.0104458
-0.145725
-0.0788573
-0.104261
0.00681068
-0.0745385
-0.00666737
-0.0157279
0.00822721
-0.0863896
0.0335925
0.0495878
-0.15253
-0.419703
-0.00782951
-0.126948
-0.101934
0.0246873
-0.0467199
0.0320023
0.0135657
-0.0478768
-0.109329
0.0508827
-0.436743
-0.0976588
0.0276147
-0.0999891
-0.0781601
-0.0736318
-0.407688
-0.0787088
0.0175098
0.00297173
0.0112398
0.0314495
-0.0644835
-0.085757
-0.0568611
0.0510001
-0.0708041
-0.084865
-0.110163
0.0321177
-0.0701872
-0.398046
0.0353743
-0.0838177
0.0096065
0.0274194
-0.130508
0.071102
-0.0184458
-0.12708
-0.0907027
0.0117339
-0.412932
0.0292739
0.0370032
0.261175
-0.417341
0.141274
-0.151186
-0.047894
-0.0855025
-0.3175
-0.0517543
0.0531972
-0.229367
0.0154568
-0.0638188
-0.015067
-0.410453
-0.0634056
-0.381117
-0.0568831
-0.066032
0.00377566
-0.161765
-0.00172357
-0.0957768
0.0207462
-0.195109
0.022854
-0.0698647
-0.069972
0.0214516
0.0207124
0.00789534
-0.0789289
-0.141224
-0.272886
-0.0768956
-0.0372976
-0.183012
0.0176261
0.0234166
-0.0790786
0.0211759
0.0281519
-0.195013
0.0141418
-0.145011
-0.179416
0.0283444
0.0333622
0.0845087
0.0353681
-0.0637216
-0.160112
-0.0363033
0.135166
-0.0233346
0.0274513
0.18531
0.0582269
-0.0160506
-0.0945259
-0.37379
-0.0654106
-0.0735778
0.00336025
-0.0162956
-0.37136
-0.0142627
-0.267031
-0.179926
0.022126
-0.155879
-0.221857
-0.135646
0.0076528
-0.0644523
-0.0779972
-0.0113827
-0.00688095
-0.0213684
-0.0235377
-0.0155352
0.00467111
0.0234786
-0.415864
-0.0468522
-0.389894
0.0368058
-0.24147
-0.367643
0.0228764
-0.00124048
-0.0444302
0.0161211
0.0141071
0.0713126
-0.00625726
-0.154751
0.1709
0.000542985
-0.077256
-0.168127
0.145873
-0.227433
-0.197172
0.0849182
-0.0357078
-0.0631642
-0.0799415
-0.0452145
-0.0641047
0.0179263
-0.131617
-0.098716
-0.0362857
-0.131988
-0.41494
-0.0435751
0.0241128
-0.139807
-0.356591
0.0167182
-0.227511
0.0465165
-0.0872714
0.0112926
-0.00650975
0.00777719
0.0140041
-0.149329
-0.085843
0.0372066
-0.0657366
0.0638793
-0.0746293
-0.140481
-0.073006
-0.333579
-0.0115108
-0.168717
-0.0626337
0.00841681
-0.0827373
-0.0797647
-0.13474
-0.0255268
0.0676419
0.0116766
0.00169918
-0.10779
-0.149412
-0.16492
-0.0775203
0.0424513
0.0163842
-0.120251
0.0204645
0.00916643
0.0710506
-0.0214905
-0.1591
-0.0961686
-0.241542
-0.108091
-0.152224
0.0228966
0.0702071
-0.20951
-0.0865725
-0.0629534
-0.367397
-0.129528
0.0379627
-0.0666439
-0.0731325
0.0117386
-0.00528803
0.272779
-0.298658
-0.250036
0.0138826
-0.0998974
-0.0753328
-0.3613
-0.001951
-0.406765
-0.421629
-0.397842
-0.0352215
0.0247769
-0.311068
0.0236774
-0.0830204
-0.268155
-0.246489
-0.413997
-0.100506
-0.0845418
-0.112755
0.0340794
0.0669212
-0.412309
-0.0601095
-0.423732
-0.0860578
-0.0143856
-0.0848898
0.0174961
-0.143876
-0.0876165
-0.222148
0.0219294
0.053297
-0.142964
-0.0809386
-0.413928
-0.422221
-0.091146
-0.0220994
-0.115123
0.0564425
-0.00652811
0.0264899
-0.0321926
-0.0672492
0.0281261
-0.0869684
0.0124831
0.0120589
0.0128462
-0.140745
0.0591944
0.0163614
-0.117173
-0.122902
0.000470091
-0.238894
-0.0144499
-0.00797799
-0.136704
0.124746
-0.0381856
-0.00311743
-0.357219
0.146231
-0.0482874
-0.075483
-0.0517886
-0.0674026
0.112187
-0.153058
-0.395868
-0.105022
-0.00496676
-0.0836587
-0.188466
0.00473919
-0.11272
0.0252432
0.0123123
-0.0954115
0.01437
-0.154543
-0.0843754
-0.00132297
-0.405174
-0.0111037
-0.092651
-0.0546996
0.000456903
-0.269057
0.00955714
-0.0140085
0.0256452
0.0268465
-0.240327
0.232891
-0.344719
-0.158233
-0.332738
-0.123616
0.0279353
-0.138609
-0.423003
-0.337464
0.217497
-0.226646
-0.0592125
-0.0455869
-0.245804
-0.000214205
-0.348677
0.0135868
-0.406164
-0.0267904
0.20284
0.088791
-0.0163431
-0.389092
0.0679926
0.00968719
-0.37284
0.011502
0.01306
-0.0876818
-0.183831
-0.243427
-0.369146
-0.0760093
-0.331428
0.0161873
0.0246777
-0.102501
0.0283444
-0.314127
-0.101222
-0.0320944
0.0282299
-0.0451585
0.0334754
-0.0132081
-0.0581086
-0.311947
-0.245633
0.267125
-0.122968
0.018047
-0.083649
-0.3554
0.0127861
-0.0858918
-0.0367359
-0.081279
0.0680696
-0.425083
0.0134882
-0.206632
0.0162929
-0.11413
0.00898711
-0.0314627
-0.0360876
0.000378278
-0.00756004
0.00110266
-0.0780338
-0.18998
-0.063845
-0.270256
0.0386577
-0.0832119
-0.0606231
-0.173502
-0.417809
-0.0634291
-0.00097579
-0.056216
0.0124472
0.0391341
-0.061289
-0.34061
-0.426029
-0.309273
-0.0728591
0.243953
0.0743583
0.0168883
-0.338451
0.0125434
-0.357608
-0.0596713
0.0249711
-0.105686
-0.345366
0.0271447
-0.348992
-0.024119
-0.0372279
0.0373531
-0.0717004
-0.340604
-0.314566
0.0129017
0.00138256
-0.103488
0.0216119
-0.00831063
-0.061884
0.0232382
-0.0747365
-0.0685599
-0.123452
-0.368063
-0.105075
-0.0875608
-0.0360218
0.0140735
0.00167644
0.0078361
-0.318127
-0.112571
-0.0576126
0.02844
-0.000843158
-0.0367009
0.00595005
-0.0976345
0.0501369
-0.303832
-0.0790216
-0.0888607
-0.108854
-0.0592293
-0.00756319
-0.243291
0.0165543
-0.418814
-0.194434
-0.419227
-0.330939
-0.0222665
-0.0581537
-0.28585
-0.375207
-0.419057
0.207312
-0.216997
-0.371107
0.0141401
-0.113012
0.159343
-0.0616872
0.0140176
-0.00985986
-0.0958252
-0.0797982
0.23628
-0.0419537
0.0357635
-0.0311105
0.127057
-0.428603
-0.0154469
-0.294862
0.0171833
0.0371943
-0.262422
0.0127547
0.0240837
-0.0159102
0.0178373
0.0136834
-0.00057472
-0.002332
-0.0765797
-0.0375427
-0.113873
-0.00457817
0.123689
0.0310271
-0.137031
-0.193115
-0.0149897
0.0176272
-0.0267349
-0.237572
-0.12289
-0.0653232
-0.222205
-0.0597424
0.031528
0.0419869
-0.0651343
-0.398348
-0.107474
0.00142831
-0.0684925
0.0173332
-0.0892568
-0.000690477
-0.351139
-0.423636
0.0112036
-0.0152607
-0.357063
0.0245136
-0.143408
-0.420178
-0.0803327
0.0577715
0.025111
-0.000843955
0.0135481
-0.37319
-0.388511
-0.228829
-0.0105605
-0.114554
0.0106595
0.0282148
-0.364782
-0.00502701
-0.131968
0.000448236
0.0958851
0.070091
0.0275993
0.00787586
0.0171546
-0.41234
-0.0182323
0.024837
0.235759
-0.0969835
0.0159093
-0.141745
-0.0566994
0.0162353
-0.0104348
0.0138463
-0.011384
-0.421582
-0.0424544
0.0310465
-0.063924
-0.0680509
-0.184915
0.0197535
-0.0915866
-0.378794
-0.0310608
-0.126721
0.0260484
-0.00506478
0.0212555
-0.0508447
-0.0643299
-0.0634345
-0.0124055
-0.0587841
-0.0609371
-0.423789
-0.109945
0.0277337
0.00689053
-0.00152568
-0.154315
0.00959756
-0.414975
0.0248139
0.0202975
0.00656152
0.181278
-0.356279
0.0163839
-0.0340068
0.0120323
-0.104002
0.00898193
0.0367285
-0.0882452
0.0161741
-0.00530999
0.0239429
-0.232706
0.00845245
-0.00549968
-0.0845413
-0.390001
0.169139
0.204525
-0.306969
0.0876893
0.0248249
0.0216393
-0.193529
0.0367242
-0.107961
-0.0979013
-0.100747
0.0751375
-0.0174001
0.00578528
0.0140869
0.00187059
-0.268011
-0.0887073
-0.0358035
0.00799516
-0.144437
-0.0789297
-0.421167
-0.1747
-0.0387701
0.0205629
0.00792349
0.00147145
-0.0827538
0.0203714
0.0082378
-0.39501
0.24988
-0.0503714
0.0217229
-0.128556
-0.0605469
0.0214449
0.0447724
-0.0502247
0.298002
-0.109965
0.0108759
-0.0272916
-0.0922715
0.00951862
-0.0548587
0.0129126
-0.301951
-0.14252
-0.190288
-0.00691105
-0.0872727
-0.358333
-0.0777836
-0.346328
-0.105199
-0.416564
0.0203467
0.0256571
-0.020182
-0.187609
0.0250212
0.0815978
0.0606746
-0.0795805
0.0146593
0.0152515
-0.0155952
0.0161123
-0.039041
-0.0941468
-0.304349
0.0286049
-0.422057
0.131117
0.0161489
-0.0581513
0.0053526
-0.173589
-0.0148208
0.0363137
-0.424019
-0.313195
-0.383908
-0.0201318
-0.360628
0.0362331
-0.077056
-0.423369
0.00144235
-0.0901425
-0.069284
0.00161011
0.0133027
-0.140499
-0.0169747
0.021556
-0.259053
-0.360688
0.013446
-0.0725205
0.0162032
-0.0462885
-0.120002
0.0162437
-0.419056
-0.0794858
0.0154097
-0.356711
-0.0884252
-0.113318
0.0236136
-0.0635754
0.0135802
-0.111012
0.0351563
0.00435419
-0.401429
0.00536204
-0.350871
0.0157546
-0.134027
-0.334298
-0.0765506
0.018625
0.0534443
0.0240413
0.0730495
-0.0457644
0.114405
0.00111329
-0.422183
0.0162963
-0.0140377
-0.233247
-0.0599094
-0.0400297
0.0135215
-0.134586
-0.161298
-0.0173944
0.153362
0.0256913
-0.00607848
-0.374504
0.00203356
0.00453962
-0.00224742
-0.35386
-0.0111
0.0102838
-0.137667
-0.0469634
-0.184368
-0.0597396
0.00176202
0.0118253
-0.362477
-0.034318
0.0314225
-0.323494
-0.253568
0.00818761
-0.0773341
-0.189311
-0.0132164
0.0422306
-0.168263
0.0207651
-0.0637034
-0.0174191
0.0136699
-0.361655
-0.412534
-0.143263
0.000503507
-0.0998694
0.0089919
0.323029
-0.0891193
0.0246758
-0.101933
0.0215055
0.120566
-0.0340946
-0.0768685
0.00491657
-0.0181317
-0.0702075
0.0211391
0.153387
0.00525012
0.029333
-0.329901
-0.187758
0.0558434
-0.0837863
-0.316204
0.0579442
-0.0254094
-0.12738
-0.10415
-0.0452073
0.0342385
0.0229455
0.0205448
-0.0190411
0.0105249
0.0166055
-0.0308872
-0.354326
0.014738
-0.387073
0.0115099
-0.0481717
0.0163816
-0.00589889
0.0302038
0.0280708
-0.0799505
-0.380159
-0.0272241
0.0228292
-0.399659
-0.0301037
-0.413447
0.131195
0.244873
-0.102486
-0.421689
-0.106072
-0.0254233
-0.0144239
0.00869448
-0.0839051
-0.00218081
0.0218073
0.0284191
0.00633712
0.0242294
0.0253561
-0.419509
-0.31121
0.0208771
-0.398934
-0.0813908
-0.0377448
0.0120678
0.0455867
-0.0921703
-0.00743624
-0.0411326
0.0172374
0.0142004
-0.0159111
0.00539439
-0.110011
-0.0144299
-0.0130517
-0.00640301
0.00314069
-0.0622224
0.00145555
-0.00717702
-0.0166565
0.0350048
-0.0988371
-0.0688195
-0.0810083
0.0218849
0.041642
0.0241508
0.0206114
-0.0778057
0.0316932
-0.0137847
0.000460171
-0.103722
0.014616
0.0194486
-0.425628
0.0164049
-0.15945
-0.168516
-0.0169225
-0.418911
-0.0907758
0.125369
-0.424243
-0.0625876
-0.0562093
-0.00180696
-0.175737
0.0156397
-0.290411
0.0270922
0.0114268
-0.186777
-0.0451544
-0.232111
0.292763
0.018644
-0.204498
0.0207958
-0.164076
-0.114169
0.012628
-0.00201856
-0.0108066
-0.1274
-0.039454
-0.153943
-0.0702948
0.0214397
0.0120876
-0.0127794
-0.391807
-0.0769105
0.0151079
0.0190144
0.0190165
-0.0692532
0.137498
-0.0112938
-0.0098235
0.171862
0.031592
-0.037046
0.0783814
-0.126884
0.0103349
-0.0289778
0.196828
-0.00445241
0.023214
-0.323095
-0.0955727
-0.165796
-0.191032
0.000279506
-0.373419
-0.420659
0.13254
-0.105753
0.0279239
-0.0745553
-0.0781173
-0.0779178
0.00843516
-0.426577
-0.114541
0.0168401
-0.0852206
-0.4201
0.0122658
0.0162374
-0.0866206
0.0160075
-0.195089
0.0533613
-0.0150556
0.0172398
0.0163961
0.250332
-0.0449674
-0.394341
-0.0688694
-0.0833557
-0.163405
0.0240842
0.0282849
-0.313249
-0.398717
0.037797
0.0178187
-0.236936
-0.0162252
-0.100915
-0.0776719
-0.0762461
0.0356579
0.0345665
-0.165347
0.00363973
-0.0840587
-0.28162
-0.00701272
-0.0774467
-0.136768
0.0882408
0.031363
-0.425485
0.0152992
0.281514
0.00109917
-0.101287
-0.0244628
0.00235987
-0.388245
-0.0250335
0.0338182
-0.0269492
-0.0951919
0.0216581
0.0012316
-0.425059
0.0243039
-0.00722602
0.0179973
-0.0318856
0.0278367
0.0249523
0.0282322
0.0250067
0.111065
-0.00434166
-0.151459
-0.0916754
0.0402353
-0.0787118
-0.0472993
0.0775337
0.0189937
0.0100629
-0.0164011
-0.0769692
-0.0771258
-0.00758844
0.0159491
0.0228478
-0.37953
0.00127689
-0.178356
-0.08409
-0.0960514
-0.37168
-0.126038
-0.0832774
-0.00634733
-0.0705089
-0.209832
-0.381831
0.0251234
0.0527869
-0.0631669
0.00332011
-0.05585
-0.104047
-0.130241
-0.0508299
-0.255786
0.0328781
0.00148134
-0.0795643
-0.116509
0.00736477
0.00158841
-0.0641313
0.0164574
-0.390716
-0.137303
-0.415416
-0.110598
-0.0925688
-0.347008
-0.01159
-0.166708
0.0233619
0.0348192
-0.00688527
-0.0820871
-0.00805532
-0.001426
-0.327197
-0.420765
-0.274186
-0.128494
-0.0122409
-0.0918302
-0.226088
-0.420931
-0.0739419
-0.420561
0.034059
-0.363383
-0.0611529
-0.199701
-0.119784
-0.0523093
0.0195629
-0.00198956
-0.0441242
0.0269082
-0.0742948
0.00680093
0.00676273
0.0284221
-0.137226
0.05305
0.00922319
0.00980991
0.0346397
-0.141855
-0.0315623
-0.297886
-0.0245577
-0.0940258
0.00033873
0.0267143
-0.140075
0.00150416
0.00115409
-0.0940269
-0.0734495
-0.170631
0.0166972
-0.410766
-0.0337337
0.0266673
0.028009
0.0358603
-0.410424
-0.177785
-0.425499
0.0127342
0.0277595
0.000905433
-0.153459
0.0295458
0.0227661
-0.244724
0.0313919
-0.0152806
-0.0773726
-0.00554149
0.031557
0.0225173
0.00951538
-0.00145834
-0.0186104
0.00171218
0.0478092
-0.0943108
-0.098354
0.010294
-0.423515
-0.0354464
-0.105215
-0.423405
-0.0566111
-0.425534
-0.164049
-0.00296796
-0.0723197
0.0151881
0.0109007
-0.365172
0.0286261
-0.159861
0.0818924
-0.0526887
0.0338743
0.0487081
0.0158683
-0.0938786
0.0810664
-0.419597
-0.016053
-0.189813
-0.0549711
0.00860388
-0.0833177
-0.0813176
-0.00137733
-0.37955
0.0267578
-0.0673902
0.0172699
0.0559302
-0.101334
-0.104423
0.0235838
-0.0899438
-0.375655
-0.0698376
-0.0517008
-0.00535684
-0.102154
-0.142559
0.0240446
-0.165181
-0.372862
-0.0752968
0.0351086
-0.0253568
0.0161795
-0.00417689
0.0267215
-0.101677
-0.0579985
0.0223399
-0.251089
0.0227037
0.00107635
0.0301135
-0.0879663
0.0539518
-0.127757
-0.0499572
0.0440575
-0.201779
-0.0249495
-0.145478
-0.10205
0.00343823
-0.0548926
0.0408086
-0.0194969
-0.0799514
-0.421855
-0.0916284
-0.35189
-0.221315
0.0191193
-0.165216
0.0156442
-0.0881779
0.0173573
-0.386217
-0.0808184
0.0207451
-0.00561214
0.021263
-0.0614472
-0.14502
0.0147887
-0.0759763
-0.0253881
-0.0510292
-0.158352
-0.0156909
0.0109737
-0.0780931
0.0037785
-0.0767334
0.0162958
-0.275967
0.0145564
0.0195863
-0.082911
0.0013543
0.00685746
-0.017048
-0.145586
-0.108169
-0.163151
0.0552763
0.0055801
-0.0454902
-0.0170809
0.0225985
-0.387302
0.0112116
-0.101307
-0.423894
-0.103897
0.0324124
-0.16603
0.00619502
0.0246609
0.235292
-0.278445
-0.162465
0.0163432
0.0318456
0.0988524
-0.093321
-0.000245214
-0.036943
0.0195321
-0.0125435
0.010599
-0.0155591
-0.0951807
0.00174427
-0.412648
-0.398402
-0.022774
0.00139409
-0.0746414
-0.42224
0.00509521
0.0318061
-0.414104
0.0144407
0.229226
-0.122998
-0.360255
0.0193717
0.0515878
-0.122751
0.0319083
-0.208384
-0.237154
-0.00370119
-0.0360002
-0.0837873
0.0228934
-0.0795681
0.0207557
0.0797514
-0.0131823
-0.0385436
0.00168175
0.0183929
-0.17073
0.0123425
-0.414957
-0.0559352
0.0406199
0.0400461
0.0155933
0.0171936
-0.415226
0.0167446
-0.252139
0.0146362
0.00825155
-0.136796
-0.0759326
0.00728701
0.000396425
0.0267013
-7.99076e-05
-0.0669196
-0.0686199
-0.125185
-0.0364112
0.0100277
-0.181131
-0.301799
0.0152263
-0.0707571
-0.0770493
-0.0875909
-0.00965137
-0.366385
-0.00161711
-0.133786
-0.0516572
0.0245577
-0.0646335
-0.00621567
0.027138
-0.0131248
-0.102378
0.0432919
-0.075149
-0.288832
-0.133415
-0.0363075
0.013458
-0.0784504
0.0230645
-0.28225
0.000372687
-0.0543764
0.0785224
-0.0506187
0.0507355
-0.105888
-0.0667099
0.0160068
-0.293269
-0.1819
0.000563297
-0.0724989
0.0155088
-0.0330318
-0.00489958
-0.41168
-0.252652
0.0218786
0.0163066
-0.0847882
-0.0836689
0.0108173
0.0467492
0.0219392
0.0087949
0.00321793
0.0555601
-0.424322
-0.393863
0.0215492
0.0280044
-0.0215122
-0.0542961
0.0171407
-0.418816
-0.405946
-0.420632
0.0689978
-0.389508
-0.40904
0.0508664
-0.0709799
0.0181333
-0.0405909
-0.213876
-0.0179335
0.003502
0.00628782
-0.0579504
0.00134553
0.031559
-0.341801
0.0483921
-0.0796092
0.0403449
0.0176555
0.00543885
0.0155138
-0.188211
-0.411195
0.00818334
-0.0758258
-0.00123479
-0.145377
-0.00297286
0.0541667
-0.110464
-0.202489
0.111196
-0.124784
0.165297
0.0280014
-0.0964371
0.0332433
-0.0662056
0.0152976
0.0164544
-0.133057
-0.142998
-0.0781779
-0.0716284
0.158929
-0.378354
-0.0204941
-0.0995761
-0.0262471
-0.414002
-0.092732
-0.112035
0.0327557
0.00158988
-0.114484
-0.404088
0.0242726
-0.0743235
0.0238514
-0.0482194
0.00105546
-0.00619553
-0.00893782
-0.00133241
-0.112897
0.0884516
-0.0817791
0.0380517
0.0305378
0.0040613
0.00975371
0.009067
0.0176075
0.0191565
-0.0855803
-0.0907665
-0.404773
-0.0139011
-0.308258
-0.126788
-0.272291
-0.320406
-0.128985
0.0158451
0.0525598
-0.119077
0.0222066
-0.0570611
-0.104127
-0.0142354
0.00540792
-0.0447091
-0.228075
0.0245481
-0.424152
-0.0118981
0.0197329
-0.304213
0.0271547
0.0912303
0.0167342
-0.0908934
-0.00471992
0.0320444
-0.248566
-0.00340051
0.0280652
0.0122399
0.00515957
0.127008
0.0226641
-0.416536
0.0176798
0.0246123
-0.00124351
-0.406136
-0.0660058
0.0268209
-0.408716
0.0224644
-0.00409347
-0.0398627
-0.399719
0.0393905
-0.390998
-0.102866
-0.0484415
-0.0876898
0.0159498
-0.0105439
-0.0452288
-0.00436574
-0.423312
-0.232345
0.000198456
-0.0358733
0.0173331
-0.42542
-0.0857641
-0.0844548
0.0236317
-0.123897
0.114507
-0.111313
-0.0483653
0.0133036
-0.0239375
0.022421
0.00934758
-0.083135
0.000747289
0.00946588
-0.10062
-0.397732
-0.0881572
-0.417948
0.0133419
0.0386685
-0.00825383
-0.0144435
0.0505256
0.00605997
0.0235482
0.0223462
0.0212018
0.0159729
-0.0384446
0.00510603
-0.0168238
0.00446145
-0.426048
-0.35166
-0.0184304
-0.0264656
-0.081938
0.0157039
-0.0580373
-0.0908106
-0.032844
-0.272394
-0.305798
-0.246765
-0.364049
-0.0955584
-0.00995852
-0.0687496
0.0171154
-0.121263
-0.0372167
0.0182057
-0.00423444
-0.0933193
-0.00367352
0.125572
-0.418726
-0.00371282
-0.00515525
-0.164685
0.00486194
0.0150864
0.00852831
-0.0177722
-0.302591
-0.426655
0.0212319
0.0321534
0.0282385
0.0123073
0.0887185
-0.00942172
-0.322068
-0.262204
0.0243637
-0.423237
-0.0645372
0.0312081
-0.419672
-0.00406615
-0.0404428
0.00740564
-0.0074311
0.00944468
-0.407239
0.0296218
0.0145855
-0.0371346
-0.0183219
-0.0709506
0.0102994
-0.101548
-0.0992571
0.0351035
-0.380191
-0.160365
-0.0808206
-0.0614666
-0.0782987
0.0227844
0.0196396
-0.0466054
-0.163746
-0.0416251
-0.117873
-0.094771
0.0154075
-0.346409
-0.284324
-0.305344
0.0324642
0.068749
0.0177458
-0.210737
0.152684
-0.180219
-0.140811
0.0175565
-0.0832111
0.0356468
-0.0089853
-0.324315
0.036742
-0.0439307
-0.0621298
-0.176848
0.0337892
0.0217145
0.0180984
-0.135468
0.0123607
-0.0181464
0.0353235
0.0172483
-0.00500322
0.0442502
0.00198478
-0.33784
-0.0795059
0.0191637
0.0028952
-0.00386461
-0.0441462
0.0685996
0.0241523
-0.246297
0.141756
0.00609421
0.00893898
-0.423473
-0.07778
0.0128162
-0.0765019
0.122007
0.0260159
-0.424173
0.00519019
-0.168104
0.0164127
-0.397481
-0.13643
0.0156317
-0.0788346
-0.157328
-0.0710596
-0.303387
0.0165386
0.0380762
-0.102218
-0.192766
-0.0463853
0.0769683
0.00127438
0.0957808
-0.02447
-0.0773117
-0.0783032
-0.0808363
-0.0210502
0.00340267
-0.0902837
0.0157478
-0.273987
-0.0216751
-0.115085
-0.00467474
0.0161847
-0.00820154
-0.0127282
0.0104433
-0.0970882
-0.305712
0.0132274
0.00017501
0.0199492
-0.426866
0.00529861
-0.0157477
0.0166595
-0.0872694
-0.420624
0.0052254
-0.00484558
-0.0818042
-0.143825
0.0263539
-0.0945645
0.0572758
0.00540982
-0.0545493
0.0582741
-0.199855
-0.346176
0.0358295
-0.41518
0.0109641
0.0129483
-0.013162
-0.364986
0.046677
-0.0748148
0.00488744
-0.162436
-0.0883423
0.0160542
-0.0656029
0.0233337
-0.0835229
-0.13224
-0.0712247
-0.270177
-0.0750821
0.0188575
0.0239797
0.017357
-0.0448045
-0.120953
-0.0567969
0.0234468
-0.159283
-0.0120158
-0.357655
0.033701
-0.391393
-0.0661617
-0.36144
-0.18242
-0.0229886
0.0375993
0.0317434
0.0114868
-0.140978
-0.0138637
-0.0689721
-0.288969
0.00183308
-0.0803481
0.0425757
0.0345119
-0.0504496
0.0148972
-0.0115076
-0.408078
-0.412334
-0.0887922
0.0217645
0.00628116
0.0150319
-0.039795
-0.0264705
-0.0127589
-0.406116
-0.048653
-0.0633283
-0.0225069
-0.0540306
-0.329145
-0.0538725
0.0468125
0.00303905
-0.426076
-0.00701318
-0.117791
0.0192515
0.0179651
0.0336441
-7.52072e-06
0.00184122
-0.0162744
0.00797195
0.120778
-0.263437
-0.0787221
-0.0913874
0.0390801
0.02391
0.0226488
-0.206913
0.0303893
-0.0225799
0.0212663
-0.424083
-0.40798
0.00785146
-0.0235066
0.0161873
0.0351577
0.0240812
0.0248383
0.022279
-0.30273
0.0388339
-0.00427582
-0.211856
0.0106934
-0.0803109
-0.0830762
-0.0469682
-0.15116
-0.0371382
0.0271035
-0.083419
-0.00542913
-0.0452815
-0.0370501
0.00515246
-0.12179
0.0162843
-0.393984
-0.00281772
-0.00858133
-0.107634
-0.130256
-0.411121
0.00678554
-0.117729
-0.241527
0.0323752
-0.0840087
0.0116551
0.00226149
-0.00305242
-0.103085
0.0706158
-0.243994
0.0262609
-0.0692876
-0.420127
-0.14474
0.030008
-0.224731
0.101057
-0.0752256
0.0488977
-0.029864
-0.0378953
-0.0776756
0.03493
-0.0192435
-0.423402
-0.00413062
0.0715527
0.00725149
0.14537
-0.0834576
-0.285099
-0.000962675
0.0211946
0.0285978
-0.053467
0.0309278
-0.00874196
-0.0405982
-0.413523
-0.0361166
0.0208997
0.034767
-0.412274
-0.141311
-0.106609
-0.27618
0.0234606
-0.394966
0.00272615
-0.246704
-0.0105761
-0.0444607
-0.42433
0.0918322
0.0162445
-0.271091
-0.0759622
-0.102334
0.00275624
-0.0951142
-0.0756806
-0.00590702
-0.23076
-0.130461
0.0225289
-0.022904
-0.0720063
8.55633e-05
0.00813295
0.00955718
0.0493659
-0.146717
-0.149004
-0.0438415
-0.0984175
0.0231843
0.247935
0.126183
0.0294214
0.0731106
-0.0430912
0.0056932
0.0173969
-0.389684
-0.425015
-0.0878298
-0.00480611
-0.0901576
0.0189695
-0.0780231
0.0141617
-0.102101
-0.325286
-0.421108
0.180064
-0.0125779
-0.0375876
-0.0942588
-0.252361
0.0248128
0.0244872
0.0114757
-0.277668
-0.0913282
-0.182452
-0.417906
-0.00439642
0.0152019
-0.368716
0.10466
-0.18098
0.0202557
0.0193534
0.0379791
-0.356786
0.0442985
-0.0599612
0.00285126
0.0229544
0.008295
-0.423074
-0.400283
0.0279161
-0.302286
-0.00873875
-0.15312
0.0222779
0.0179218
-0.091427
0.045601
0.0261356
0.0987928
-0.145582
-0.0596725
-0.227523
0.0172829
-0.10325
-0.281101
0.0400546
0.00668323
0.0417638
-0.288343
-0.0912661
0.112954
-0.0959765
0.000639708
-0.012142
-0.0141226
-0.0440754
-0.35278
-0.411296
-0.054637
-0.261452
-0.118386
-0.301192
-0.0901329
0.0393367
0.0130044
-0.0941939
-0.422756
0.0149752
-0.0340056
-0.103703
0.026577
-0.0910765
-0.309951
-0.0926094
0.0268771
-0.0424245
0.0516095
0.0266243
-0.00613949
0.310035
-0.00850036
-0.0412304
-0.0416682
0.0132302
0.0244701
-0.416259
-0.00472246
-0.00033212
-0.0849715
-0.149662
-0.0660702
0.0229513
-0.0538319
-0.237307
-0.0928381
-0.056441
-0.151684
-0.0658245
-0.183554
-0.105788
-0.0165333
0.172195
0.157843
-0.00164815
-0.00651167
0.0213113
-0.0470376
-0.0941708
-0.336385
0.0160606
-0.0744733
-0.159994
-0.327312
-0.413134
-0.10359
-0.0794342
-0.107263
-0.0774769
-0.116172
-0.327575
-0.0755739
0.0360262
0.00952983
-0.369317
-0.0712587
-0.101378
-0.0758979
0.00704376
-0.150568
-0.124279
0.0180752
0.00388402
-0.0782698
-0.114534
-0.106872
-0.308722
-0.197864
0.0103527
-0.004303
0.0168543
-0.413212
0.0956189
-0.0462237
-0.0372961
-0.403929
-0.192262
-0.086172
-0.0547943
-0.0863682
0.00869674
0.00256957
0.0335703
0.0202155
-0.424561
-0.217679
-0.0783482
0.0489915
-0.203865
-0.0732789
0.0021182
-0.0401592
-0.360764
0.142105
0.0102596
-0.040277
0.0179506
-0.246146
0.000665505
0.0242933
-0.424977
-0.0627866
0.0395431
0.0390738
0.0088353
0.0516069
-0.0714645
-0.0156971
-0.00548691
0.00975412
-0.0646271
-0.416646
-0.122976
0.0276989
-0.016787
-0.338588
0.0231222
-0.294407
-0.324509
0.00142424
-0.416653
0.0252556
-0.123909
-0.0790706
0.0328464
0.0246437
0.00263233
-0.0493776
-0.0436085
0.01046
-0.0795881
0.0184597
-0.423428
0.0143074
-0.421666
-0.422702
0.097895
-0.00533259
-0.173994
-0.1675
0.20438
-0.11396
0.111977
0.00353972
-0.0960946
-0.0108375
-0.0809069
-0.104792
-0.0575579
-0.124798
0.0186718
-0.228022
-0.0835977
-0.0753788
-0.200148
0.0186523
-0.120924
-0.0842474
0.0158559
-0.224363
-0.0915359
-0.323743
0.0227116
0.0893326
-0.00139757
-0.115303
-0.266722
-0.0371858
-0.240956
-0.138364
-0.0776959
-0.259684
-0.423516
-0.0783116
-0.0758532
-0.0750447
-0.113916
-0.410467
-0.0673039
-0.308276
-0.421649
-0.0233438
0.0548788
-0.051005
-0.137958
0.0156791
0.0179858
0.0242764
-0.0389386
0.0303447
0.016413
-0.416508
-0.0721465
0.0157417
-0.127019
0.0266258
0.00834534
-0.0266994
-0.160699
0.0131843
-0.160083
0.0246847
-0.0866817
-0.0702274
-0.195643
0.0806553
0.0150539
-0.190524
0.0167417
0.0154909
0.0827638
-0.026054
-0.375177
-0.176446
0.0222994
-0.0362099
-0.066271
0.0244443
-0.177745
-0.138392
0.230171
0.012244
-0.0848925
0.0285792
0.015837
-0.345247
-0.418088
-0.0851773
-0.152311
0.0478588
-0.088811
0.101881
-0.41058
-0.111065
0.0212075
0.00309611
-0.160485
-0.209215
-0.408778
0.122613
-0.377304
0.0487864
-0.401355
-0.406157
0.0733791
-0.142014
0.010379
-0.273514
0.0173982
-0.416643
0.097941
-0.102483
-0.422013
-0.298629
-0.281304
0.0572365
-0.343851
-0.0697519
-0.12047
-0.425427
-0.0739973
-0.131158
0.00583619
0.0843568
0.127509
-0.419696
0.0168078
-0.0104875
0.063921
-0.134202
-0.41252
-0.119424
-0.0997314
0.0226578
-0.220102
-0.00356769
-0.15746
-0.0738169
-0.331734
0.00782754
-0.209652
0.19487
0.00495484
-0.190547
-0.0669269
-0.0412895
-0.145863
-0.160075
-0.39974
-0.101108
0.0112958
0.0152924
-0.136576
-0.0921066
0.0275557
-0.280991
-0.00189289
-0.304662
-0.0209747
-0.0178465
-0.080681
-0.250812
-0.011672
-0.125464
0.0252051
-0.421129
-0.00117058
-0.0926349
0.185645
0.207128
0.0109014
0.0299973
0.0189067
-0.0750624
-0.0536522
-0.217634
-0.0650084
-0.12261
-0.0432807
-0.0158695
-0.123286
-0.0537916
0.00398386
0.218417
0.0122932
-0.424748
0.00153742
0.169253
-0.368673
-0.058425
0.0187132
-0.248985
-0.0181171
0.0240532
-0.109407
0.0158037
0.0106709
-0.18299
-0.0575788
-0.420377
0.0228077
-0.211777
-0.0677277
-0.000866962
0.0256702
-0.0176828
-0.0049221
-0.42056
-0.0651818
-0.0496519
-0.081915
-0.0506236
-0.422569
0.0152415
0.0430247
0.0235706
0.025046
-0.158698
-0.423091
-0.0411924
0.0369733
-0.0884579
-0.0143121
0.000817651
-0.361227
-0.129538