/*--------------------------------*- C++ -*----------------------------------*\
| =========                 |                                                 |
| \\      /  F ield         | OpenFOAM: The Open Source CFD Toolbox           |
|  \\    /   O peration     | Version:  v2012                                 |
|   \\  /    A nd           | Website:  www.openfoam.com                      |
|    \\/     M anipulation  |                                                 |
\*---------------------------------------------------------------------------*/
FoamFile
{
    version     2.0;
    format      ascii;
    class       volVectorField;
    location    "450";
    object      cellDisplacement;
}
// * * * * * * * * * * * * * * * * * * * * * * * * * * * * * * * * * * * * * //

dimensions      [0 1 0 0 0 0 0];


internalField   nonuniform List<vector> 
18758
(
(0 -0.00042648 0)
(0 -0.000335073 0)
(0 -2.67834e-05 0)
(0 -0.00042509 0)
(0 -0.000353092 0)
(0 -5.98324e-06 0)
(0 -0.000113005 0)
(0 -0.000109733 0)
(0 -0.000348939 0)
(0 -0.000339453 0)
(0 -0.000321817 0)
(0 -0.000534111 0)
(0 -0.000357297 0)
(0 -7.39189e-05 0)
(0 -0.000114354 0)
(0 -6.24691e-05 0)
(0 -0.000532487 0)
(0 -1.89359e-06 0)
(0 -0.000110985 0)
(0 -0.000179221 0)
(0 -0.0005346 0)
(0 -4.03713e-08 0)
(0 -5.28177e-06 0)
(0 -1.37144e-05 0)
(0 1.57117e-07 0)
(0 -1.16907e-05 0)
(0 -0.000386508 0)
(0 -6.75407e-05 0)
(0 -2.65277e-05 0)
(0 -0.000344432 0)
(0 -0.000163041 0)
(0 -0.00038186 0)
(0 -0.000110991 0)
(0 -1.22761e-06 0)
(0 -0.00036298 0)
(0 -0.000340103 0)
(0 -0.000352512 0)
(0 -0.000359165 0)
(0 -0.000297127 0)
(0 -2.22337e-05 0)
(0 -0.000322771 0)
(0 -0.000328867 0)
(0 -0.000300239 0)
(0 -0.000433371 0)
(0 -3.18611e-05 0)
(0 -0.000164977 0)
(0 -0.000325466 0)
(0 -3.08365e-05 0)
(0 1.8961e-06 0)
(0 -0.000415812 0)
(0 -0.000320452 0)
(0 -1.48243e-05 0)
(0 -0.000414216 0)
(0 -0.000252838 0)
(0 -4.98735e-06 0)
(0 -0.000357377 0)
(0 -0.000304494 0)
(0 -0.000181058 0)
(0 -3.40819e-05 0)
(0 -0.000299107 0)
(0 -3.10618e-05 0)
(0 -0.000430298 0)
(0 -0.000255026 0)
(0 -7.26625e-05 0)
(0 -2.77924e-05 0)
(0 1.28834e-06 0)
(0 -4.6412e-05 0)
(0 -0.000110174 0)
(0 -7.02377e-05 0)
(0 -3.81246e-06 0)
(0 -1.51331e-05 0)
(0 -1.1912e-05 0)
(0 -0.000164378 0)
(0 -0.000153906 0)
(0 -0.000152424 0)
(0 -0.000158694 0)
(0 -0.00022052 0)
(0 -0.000529104 0)
(0 -0.000343308 0)
(0 -0.000294875 0)
(0 -1.29161e-05 0)
(0 -0.000299905 0)
(0 -0.00052954 0)
(0 -0.000146385 0)
(0 -0.00045396 0)
(0 -6.21502e-06 0)
(0 -4.18303e-05 0)
(0 -0.000154993 0)
(0 -0.000255005 0)
(0 -6.05007e-06 0)
(0 -1.33799e-05 0)
(0 -1.55827e-05 0)
(0 -1.50878e-05 0)
(0 2.01476e-06 0)
(0 -0.000161095 0)
(0 -0.000169605 0)
(0 -1.52895e-05 0)
(0 -3.13152e-05 0)
(0 -0.000529563 0)
(0 -0.000229008 0)
(0 -0.00016045 0)
(0 -0.000190023 0)
(0 -0.00010729 0)
(0 -0.000165713 0)
(0 9.61523e-07 0)
(0 -0.000534832 0)
(0 -2.90689e-05 0)
(0 -1.30579e-05 0)
(0 -0.000229516 0)
(0 -0.000479168 0)
(0 -5.46439e-05 0)
(0 -7.16772e-05 0)
(0 -0.000461179 0)
(0 -3.93505e-05 0)
(0 -0.000193874 0)
(0 -6.23901e-05 0)
(0 -3.31085e-05 0)
(0 -0.000268998 0)
(0 -5.74796e-05 0)
(0 -0.000463968 0)
(0 -5.02034e-05 0)
(0 -0.000222667 0)
(0 -0.000455886 0)
(0 -0.000307015 0)
(0 2.48731e-06 0)
(0 -0.000248435 0)
(0 -0.00041919 0)
(0 -0.000304631 0)
(0 -2.04278e-05 0)
(0 3.8666e-06 0)
(0 -3.20815e-05 0)
(0 -2.59858e-05 0)
(0 -8.96902e-05 0)
(0 -1.44336e-06 0)
(0 -1.89176e-05 0)
(0 -4.94975e-05 0)
(0 -0.000215712 0)
(0 -0.000455603 0)
(0 -4.60876e-05 0)
(0 -1.40267e-05 0)
(0 -0.00046555 0)
(0 -0.000462036 0)
(0 -3.07567e-05 0)
(0 -0.000228477 0)
(0 2.67876e-06 0)
(0 -1.93537e-05 0)
(0 9.02009e-07 0)
(0 -2.0631e-05 0)
(0 -0.000326774 0)
(0 -3.74638e-05 0)
(0 3.82685e-06 0)
(0 3.67529e-06 0)
(0 -7.64565e-05 0)
(0 -0.000371465 0)
(0 -0.000318403 0)
(0 -0.000116085 0)
(0 -1.61266e-05 0)
(0 -1.94623e-05 0)
(0 -0.000158545 0)
(0 -0.000330246 0)
(0 -3.02747e-05 0)
(0 -0.000346165 0)
(0 3.15492e-06 0)
(0 5.70078e-07 0)
(0 -0.000168523 0)
(0 -0.000290624 0)
(0 -0.000340569 0)
(0 -2.74782e-05 0)
(0 3.80353e-06 0)
(0 -0.000536233 0)
(0 3.64556e-06 0)
(0 -1.8524e-05 0)
(0 -2.62525e-05 0)
(0 -3.69294e-06 0)
(0 -0.000235533 0)
(0 -0.000286223 0)
(0 -0.000155031 0)
(0 -1.03152e-05 0)
(0 -1.78081e-06 0)
(0 -6.23378e-05 0)
(0 -8.30734e-05 0)
(0 -0.000234794 0)
(0 -5.75028e-06 0)
(0 -5.60458e-05 0)
(0 -3.91454e-05 0)
(0 -5.58365e-05 0)
(0 -0.000347925 0)
(0 -0.000243828 0)
(0 1.90597e-06 0)
(0 -0.000167121 0)
(0 3.75673e-06 0)
(0 -5.59042e-05 0)
(0 -6.99053e-05 0)
(0 -0.000204943 0)
(0 -5.05537e-05 0)
(0 -5.9566e-05 0)
(0 -4.6685e-05 0)
(0 -7.61383e-05 0)
(0 1.65073e-06 0)
(0 -2.11839e-05 0)
(0 -0.000381409 0)
(0 -1.94156e-05 0)
(0 -0.000167676 0)
(0 -4.76657e-05 0)
(0 -5.88539e-05 0)
(0 2.96146e-06 0)
(0 -0.000390004 0)
(0 -0.000368036 0)
(0 3.89048e-06 0)
(0 3.95228e-06 0)
(0 -1.53639e-05 0)
(0 -1.67795e-05 0)
(0 -0.000387098 0)
(0 -0.000421556 0)
(0 -0.00018356 0)
(0 -1.78576e-05 0)
(0 -1.00648e-05 0)
(0 -1.70163e-05 0)
(0 -7.81057e-06 0)
(0 -0.000330998 0)
(0 -0.000206533 0)
(0 -0.00036935 0)
(0 -3.23701e-05 0)
(0 -2.0303e-05 0)
(0 -0.000165224 0)
(0 -3.55521e-05 0)
(0 -0.000155714 0)
(0 -4.28591e-06 0)
(0 -2.8663e-05 0)
(0 -0.000384365 0)
(0 -1.26693e-05 0)
(0 -2.05348e-05 0)
(0 -0.000235875 0)
(0 -4.15685e-05 0)
(0 -0.000103018 0)
(0 -0.00037587 0)
(0 -0.000126242 0)
(0 2.02585e-06 0)
(0 -4.7398e-05 0)
(0 -0.000119198 0)
(0 -6.22789e-05 0)
(0 -0.000127531 0)
(0 -4.58466e-05 0)
(0 -2.11667e-05 0)
(0 -3.71231e-05 0)
(0 -2.91863e-05 0)
(0 -9.55816e-05 0)
(0 -0.000195856 0)
(0 -0.000309431 0)
(0 -0.000235047 0)
(0 3.54096e-06 0)
(0 -0.000429944 0)
(0 -1.7863e-05 0)
(0 -0.000378461 0)
(0 -2.39178e-06 0)
(0 -4.27438e-05 0)
(0 -0.000293398 0)
(0 -1.20051e-05 0)
(0 -1.05518e-05 0)
(0 -0.000336616 0)
(0 -0.000458663 0)
(0 -0.000315951 0)
(0 -9.6486e-05 0)
(0 -7.1481e-05 0)
(0 -0.000115976 0)
(0 -0.000119446 0)
(0 -0.000321924 0)
(0 -4.44935e-05 0)
(0 -7.51855e-05 0)
(0 -0.000279546 0)
(0 -6.27918e-05 0)
(0 -8.22301e-06 0)
(0 -0.000274483 0)
(0 -0.000374849 0)
(0 -4.21134e-05 0)
(0 -0.000184327 0)
(0 -7.54101e-05 0)
(0 -8.36437e-06 0)
(0 -0.000424843 0)
(0 -7.58135e-05 0)
(0 -0.000186852 0)
(0 -2.49393e-05 0)
(0 -4.76927e-05 0)
(0 1.41546e-07 0)
(0 -0.000110989 0)
(0 -0.000368833 0)
(0 -6.28295e-06 0)
(0 -4.42847e-05 0)
(0 -0.000180739 0)
(0 -0.000171681 0)
(0 -1.52338e-05 0)
(0 -6.72013e-05 0)
(0 -0.000304621 0)
(0 -3.08066e-05 0)
(0 -1.84511e-05 0)
(0 -0.000320933 0)
(0 -3.88674e-05 0)
(0 -1.05317e-05 0)
(0 -1.1517e-05 0)
(0 1.77334e-06 0)
(0 -5.62031e-05 0)
(0 -4.64887e-05 0)
(0 -4.86697e-05 0)
(0 -0.000277781 0)
(0 -0.000290636 0)
(0 -8.08899e-05 0)
(0 -0.000501162 0)
(0 -0.000535941 0)
(0 -0.000433187 0)
(0 -0.000362803 0)
(0 -4.80316e-05 0)
(0 -0.00012304 0)
(0 -4.49226e-05 0)
(0 -4.77289e-05 0)
(0 -2.5553e-05 0)
(0 -7.6766e-07 0)
(0 -9.90982e-05 0)
(0 -0.000269075 0)
(0 -2.04457e-05 0)
(0 -4.64616e-05 0)
(0 -4.91185e-05 0)
(0 -0.000154761 0)
(0 -3.99094e-05 0)
(0 -0.000146543 0)
(0 -0.00010191 0)
(0 3.93485e-06 0)
(0 -1.56476e-05 0)
(0 -0.000305826 0)
(0 2.37148e-06 0)
(0 -0.000125665 0)
(0 -0.000477052 0)
(0 -2.04521e-06 0)
(0 -0.000139598 0)
(0 -0.000295213 0)
(0 -1.13587e-05 0)
(0 -4.40628e-05 0)
(0 -0.000216132 0)
(0 -0.000384554 0)
(0 -0.000106756 0)
(0 -0.00039662 0)
(0 -0.000212585 0)
(0 -0.000113569 0)
(0 -9.29282e-05 0)
(0 -0.00027746 0)
(0 -0.000453919 0)
(0 -0.000273625 0)
(0 -0.000527705 0)
(0 -0.00029762 0)
(0 -3.74873e-05 0)
(0 -0.000288906 0)
(0 9.68314e-07 0)
(0 -0.000455905 0)
(0 -5.84225e-05 0)
(0 -5.22817e-05 0)
(0 2.82651e-06 0)
(0 -0.000327019 0)
(0 -0.000266438 0)
(0 -0.000112477 0)
(0 -0.000478484 0)
(0 -0.000417612 0)
(0 -0.000429893 0)
(0 -4.56736e-05 0)
(0 -0.000209146 0)
(0 -0.000449537 0)
(0 -0.000158467 0)
(0 -0.000206793 0)
(0 -0.000103328 0)
(0 -5.03617e-05 0)
(0 -0.000233387 0)
(0 -3.38429e-05 0)
(0 2.13902e-06 0)
(0 -6.00346e-05 0)
(0 -0.000241933 0)
(0 -9.952e-05 0)
(0 -0.000325038 0)
(0 -6.01272e-05 0)
(0 -1.66418e-06 0)
(0 1.32159e-06 0)
(0 -1.97274e-05 0)
(0 -0.000306451 0)
(0 -0.00044607 0)
(0 -5.78042e-05 0)
(0 -1.31162e-05 0)
(0 2.78194e-07 0)
(0 -0.000452344 0)
(0 -0.000510077 0)
(0 -6.43116e-05 0)
(0 2.57369e-06 0)
(0 -0.000116743 0)
(0 -0.000534875 0)
(0 -0.000482059 0)
(0 -6.15505e-05 0)
(0 -8.08825e-05 0)
(0 -0.000197396 0)
(0 -0.000442424 0)
(0 -4.82758e-05 0)
(0 -0.000416309 0)
(0 -5.97616e-05 0)
(0 -1.7784e-05 0)
(0 -2.29751e-05 0)
(0 -0.000300728 0)
(0 -0.000108717 0)
(0 -0.000311003 0)
(0 -3.8001e-05 0)
(0 -0.000180887 0)
(0 -0.000179673 0)
(0 2.69107e-06 0)
(0 -0.000313558 0)
(0 -2.46365e-05 0)
(0 -0.000315606 0)
(0 -1.12371e-05 0)
(0 -0.000303313 0)
(0 -8.27873e-05 0)
(0 -0.000124753 0)
(0 -0.000225866 0)
(0 -3.57655e-05 0)
(0 -0.000486023 0)
(0 -0.000297988 0)
(0 -9.48627e-05 0)
(0 -3.21441e-05 0)
(0 -5.59755e-05 0)
(0 -6.70091e-05 0)
(0 1.37032e-06 0)
(0 -0.00011961 0)
(0 -0.000458427 0)
(0 -1.95431e-05 0)
(0 -1.97869e-06 0)
(0 -1.44015e-05 0)
(0 -7.09071e-06 0)
(0 -0.000439401 0)
(0 -1.35343e-05 0)
(0 -0.000241839 0)
(0 -1.50755e-05 0)
(0 -3.22322e-05 0)
(0 -0.000163864 0)
(0 -3.65418e-05 0)
(0 -0.000121882 0)
(0 -0.000152017 0)
(0 -0.000119359 0)
(0 -0.000110873 0)
(0 -6.82258e-05 0)
(0 -0.00027903 0)
(0 -2.06227e-06 0)
(0 1.45089e-06 0)
(0 -6.46757e-05 0)
(0 -0.000388214 0)
(0 -4.53797e-06 0)
(0 -1.09426e-05 0)
(0 -0.000167689 0)
(0 -2.18928e-06 0)
(0 -0.000112317 0)
(0 -2.53024e-05 0)
(0 -6.09585e-05 0)
(0 -0.000326362 0)
(0 -5.84667e-05 0)
(0 2.14703e-06 0)
(0 -0.000295942 0)
(0 -6.39831e-06 0)
(0 -5.19238e-05 0)
(0 -0.000376166 0)
(0 -5.22426e-05 0)
(0 -3.87987e-05 0)
(0 -3.4499e-06 0)
(0 -0.000115682 0)
(0 -1.25724e-05 0)
(0 -8.47732e-05 0)
(0 -5.32618e-05 0)
(0 -0.000208495 0)
(0 -1.09612e-05 0)
(0 -0.000369756 0)
(0 -3.124e-05 0)
(0 -0.000366618 0)
(0 -0.000253746 0)
(0 -2.55478e-05 0)
(0 -0.000124375 0)
(0 -0.000131163 0)
(0 -0.000114259 0)
(0 -0.000333259 0)
(0 -0.000504412 0)
(0 -0.000467519 0)
(0 -5.32991e-05 0)
(0 -0.000117099 0)
(0 -0.000203045 0)
(0 -8.96596e-06 0)
(0 -0.000200021 0)
(0 -3.96757e-06 0)
(0 -0.000381776 0)
(0 -2.73243e-05 0)
(0 -5.26851e-05 0)
(0 -1.33375e-05 0)
(0 -2.71771e-05 0)
(0 -2.39101e-05 0)
(0 -3.07294e-05 0)
(0 -0.000374248 0)
(0 -0.000501808 0)
(0 -0.000535645 0)
(0 -0.000390923 0)
(0 -0.00031531 0)
(0 -1.30853e-06 0)
(0 -3.99168e-05 0)
(0 -1.12905e-05 0)
(0 -1.0518e-05 0)
(0 -9.59683e-05 0)
(0 -1.3447e-05 0)
(0 -5.25715e-05 0)
(0 -1.16594e-05 0)
(0 -1.45371e-06 0)
(0 -0.000404599 0)
(0 -0.000300687 0)
(0 -0.000289371 0)
(0 5.29683e-07 0)
(0 -5.01004e-06 0)
(0 -1.22869e-06 0)
(0 -3.44397e-05 0)
(0 -0.000178696 0)
(0 -1.43268e-05 0)
(0 -0.000401327 0)
(0 -0.000442149 0)
(0 -5.50086e-05 0)
(0 -0.000205889 0)
(0 -0.000277546 0)
(0 -1.00754e-05 0)
(0 -6.6143e-06 0)
(0 -0.000382757 0)
(0 -2.56577e-05 0)
(0 -0.000521933 0)
(0 -7.05528e-05 0)
(0 -0.000488566 0)
(0 -0.000212954 0)
(0 -5.07902e-06 0)
(0 -7.26695e-05 0)
(0 -1.96659e-05 0)
(0 -6.17179e-05 0)
(0 -0.000220132 0)
(0 -0.000276548 0)
(0 -0.000224811 0)
(0 -0.000164449 0)
(0 -0.000104442 0)
(0 -0.000134251 0)
(0 -0.000382764 0)
(0 -0.000295266 0)
(0 -0.000314919 0)
(0 -8.90395e-05 0)
(0 -8.80029e-05 0)
(0 -5.99502e-07 0)
(0 -3.71283e-05 0)
(0 -0.000176655 0)
(0 -0.00037668 0)
(0 -6.83963e-05 0)
(0 -2.57674e-05 0)
(0 -7.13311e-05 0)
(0 -1.57769e-05 0)
(0 -3.01736e-06 0)
(0 -5.53713e-05 0)
(0 -0.000361085 0)
(0 -0.000376899 0)
(0 -0.00019557 0)
(0 -5.79232e-05 0)
(0 -3.48969e-05 0)
(0 -0.000218623 0)
(0 -2.14682e-05 0)
(0 -0.000102353 0)
(0 -9.9883e-06 0)
(0 -0.000466611 0)
(0 -0.00042156 0)
(0 -0.000258356 0)
(0 -1.73463e-05 0)
(0 -0.000128977 0)
(0 -0.000461209 0)
(0 -0.000478887 0)
(0 -0.000301394 0)
(0 -6.49478e-05 0)
(0 -0.000471436 0)
(0 -0.000260278 0)
(0 -3.61261e-05 0)
(0 -0.0004232 0)
(0 -1.80451e-05 0)
(0 -2.07094e-05 0)
(0 -7.53256e-06 0)
(0 -6.89116e-06 0)
(0 -0.000478719 0)
(0 -2.89404e-05 0)
(0 -6.00358e-05 0)
(0 -0.000162671 0)
(0 -4.40141e-05 0)
(0 -6.69981e-05 0)
(0 1.64173e-06 0)
(0 -0.000264882 0)
(0 -0.000391101 0)
(0 -0.000277743 0)
(0 -3.31864e-05 0)
(0 -2.46736e-05 0)
(0 -0.000147299 0)
(0 -0.000125497 0)
(0 -0.000224231 0)
(0 -0.000280909 0)
(0 -0.000330438 0)
(0 -0.000474212 0)
(0 -0.000364368 0)
(0 -0.000217866 0)
(0 1.67843e-06 0)
(0 -4.32225e-05 0)
(0 -1.43839e-05 0)
(0 -0.000199503 0)
(0 -0.000404773 0)
(0 -0.000165733 0)
(0 -9.38335e-05 0)
(0 -0.000394131 0)
(0 -5.77379e-05 0)
(0 -0.000461699 0)
(0 -8.67765e-05 0)
(0 -0.000290194 0)
(0 -6.89992e-05 0)
(0 -0.000504457 0)
(0 -5.91647e-05 0)
(0 2.25072e-06 0)
(0 -8.77859e-05 0)
(0 -0.00048763 0)
(0 -0.000292356 0)
(0 -0.000402328 0)
(0 -3.85126e-05 0)
(0 -3.53039e-05 0)
(0 -0.000299765 0)
(0 -7.30159e-05 0)
(0 -0.000271947 0)
(0 -8.62247e-05 0)
(0 -0.000276335 0)
(0 -1.40528e-05 0)
(0 -0.000477464 0)
(0 -0.000488884 0)
(0 -0.000372623 0)
(0 -0.000205803 0)
(0 -0.000168942 0)
(0 -0.000491563 0)
(0 7.37492e-07 0)
(0 -2.77404e-05 0)
(0 -3.46744e-05 0)
(0 3.71474e-06 0)
(0 -1.69353e-07 0)
(0 -9.70203e-06 0)
(0 -4.07638e-06 0)
(0 -0.000149987 0)
(0 -0.000375536 0)
(0 -4.08127e-05 0)
(0 -0.000283507 0)
(0 -0.000264357 0)
(0 -1.8193e-05 0)
(0 -4.11225e-05 0)
(0 -5.95266e-06 0)
(0 -8.58062e-05 0)
(0 -0.000439307 0)
(0 -0.000187571 0)
(0 -0.000439501 0)
(0 -0.000274449 0)
(0 -2.19715e-05 0)
(0 -0.000512297 0)
(0 -0.000423337 0)
(0 -0.000367395 0)
(0 -5.83236e-05 0)
(0 -1.81321e-05 0)
(0 -5.95026e-05 0)
(0 -0.000520794 0)
(0 -0.000270125 0)
(0 -0.000219879 0)
(0 -0.000450466 0)
(0 -0.000428161 0)
(0 -0.000215668 0)
(0 -7.32678e-06 0)
(0 -7.61992e-06 0)
(0 -0.000114359 0)
(0 -0.000126868 0)
(0 -0.00038016 0)
(0 -7.08962e-05 0)
(0 1.53799e-06 0)
(0 2.42752e-06 0)
(0 -0.000266987 0)
(0 -0.000384595 0)
(0 -0.000536916 0)
(0 -6.08037e-05 0)
(0 -0.000189875 0)
(0 -0.000253326 0)
(0 -6.03287e-05 0)
(0 -7.77613e-05 0)
(0 -0.000526496 0)
(0 -1.95282e-05 0)
(0 -3.52469e-05 0)
(0 -2.55656e-05 0)
(0 -5.53914e-05 0)
(0 -6.18701e-05 0)
(0 -0.000222503 0)
(0 -0.000386314 0)
(0 -0.000170186 0)
(0 -0.000194428 0)
(0 -5.328e-05 0)
(0 -0.000109153 0)
(0 -0.000321563 0)
(0 -0.000248234 0)
(0 -0.000143025 0)
(0 -0.000383826 0)
(0 -6.15486e-05 0)
(0 -0.000371586 0)
(0 -0.000283808 0)
(0 -4.46606e-05 0)
(0 -5.64965e-05 0)
(0 -1.82399e-05 0)
(0 -5.25883e-05 0)
(0 -0.000280281 0)
(0 -3.93615e-05 0)
(0 -0.000164376 0)
(0 -0.000422893 0)
(0 -0.00043588 0)
(0 -1.43028e-05 0)
(0 -1.05957e-05 0)
(0 -4.80635e-05 0)
(0 -0.000264882 0)
(0 -7.06872e-05 0)
(0 -0.000246322 0)
(0 -0.000378453 0)
(0 -5.4075e-05 0)
(0 -0.000177231 0)
(0 -8.55579e-05 0)
(0 -0.000296637 0)
(0 -4.72754e-05 0)
(0 -2.89957e-05 0)
(0 -5.82389e-05 0)
(0 -2.13504e-05 0)
(0 -1.95242e-05 0)
(0 -6.32054e-05 0)
(0 -1.42002e-05 0)
(0 -2.19093e-05 0)
(0 -0.000473165 0)
(0 -0.000169974 0)
(0 -6.65821e-05 0)
(0 -5.20335e-05 0)
(0 -0.000482874 0)
(0 -0.000309561 0)
(0 -7.6297e-06 0)
(0 -0.000432293 0)
(0 -9.66117e-05 0)
(0 -0.000253327 0)
(0 -0.000251191 0)
(0 -9.51446e-05 0)
(0 -6.69571e-06 0)
(0 -0.000442806 0)
(0 -5.79436e-05 0)
(0 -0.000187573 0)
(0 -0.000116111 0)
(0 -0.00028127 0)
(0 -4.62229e-05 0)
(0 -0.00032575 0)
(0 -5.32006e-06 0)
(0 -0.000370182 0)
(0 -0.00027255 0)
(0 -9.91817e-05 0)
(0 -7.03203e-05 0)
(0 -9.74449e-05 0)
(0 -0.000497481 0)
(0 -0.000193072 0)
(0 -0.000505732 0)
(0 -9.68045e-05 0)
(0 -0.000269808 0)
(0 -3.83526e-05 0)
(0 -0.000530251 0)
(0 -6.24347e-05 0)
(0 -3.28985e-05 0)
(0 -0.000273528 0)
(0 -3.99657e-05 0)
(0 -0.000424617 0)
(0 -7.86016e-05 0)
(0 -9.30205e-05 0)
(0 -5.70448e-05 0)
(0 -0.000263846 0)
(0 -5.27102e-05 0)
(0 -0.00028858 0)
(0 -3.64552e-05 0)
(0 -6.70655e-06 0)
(0 -8.48666e-07 0)
(0 -4.3709e-05 0)
(0 -5.41299e-05 0)
(0 -2.83124e-05 0)
(0 -0.000377116 0)
(0 -3.71379e-05 0)
(0 -9.39134e-06 0)
(0 -0.00029727 0)
(0 -0.000317023 0)
(0 -0.00050784 0)
(0 -0.000186776 0)
(0 -0.000147808 0)
(0 -0.000241764 0)
(0 -0.000150334 0)
(0 3.98052e-06 0)
(0 -0.000439192 0)
(0 -0.000366334 0)
(0 -6.96027e-05 0)
(0 -0.000136005 0)
(0 -0.000186706 0)
(0 -0.000441938 0)
(0 -0.000151277 0)
(0 -4.03722e-05 0)
(0 -0.000367713 0)
(0 -5.75588e-05 0)
(0 -7.00178e-05 0)
(0 -0.000315687 0)
(0 -0.000224439 0)
(0 -2.82333e-05 0)
(0 -8.35531e-05 0)
(0 -8.92029e-05 0)
(0 -4.03073e-05 0)
(0 -0.000462707 0)
(0 -4.71576e-06 0)
(0 -0.000143109 0)
(0 -0.000240568 0)
(0 -0.000192699 0)
(0 -0.000366329 0)
(0 -8.46429e-05 0)
(0 -6.17952e-05 0)
(0 -4.59532e-05 0)
(0 -0.000108328 0)
(0 -7.01407e-05 0)
(0 -1.05301e-05 0)
(0 -0.000273425 0)
(0 -0.000220824 0)
(0 -0.000224116 0)
(0 -0.000101483 0)
(0 -0.000112479 0)
(0 -7.10272e-05 0)
(0 -1.1175e-05 0)
(0 -0.000430397 0)
(0 -0.000259067 0)
(0 -1.33891e-06 0)
(0 -0.000203839 0)
(0 -0.000483665 0)
(0 -4.06141e-05 0)
(0 -2.79551e-05 0)
(0 -2.29914e-05 0)
(0 -0.000421176 0)
(0 3.96715e-06 0)
(0 -0.00034315 0)
(0 -0.000184167 0)
(0 -3.87275e-05 0)
(0 -1.8768e-05 0)
(0 -2.32212e-06 0)
(0 -0.000137659 0)
(0 -0.000102835 0)
(0 -4.90582e-05 0)
(0 -0.00034646 0)
(0 -0.000123081 0)
(0 -2.52043e-05 0)
(0 -0.000477865 0)
(0 -4.42097e-05 0)
(0 -0.000167919 0)
(0 -3.34576e-05 0)
(0 -0.000344762 0)
(0 -0.00012286 0)
(0 -0.000356641 0)
(0 -6.75588e-05 0)
(0 -0.000154735 0)
(0 -0.000140443 0)
(0 -0.000476907 0)
(0 -9.54502e-07 0)
(0 -0.000112802 0)
(0 -0.000338498 0)
(0 -5.95274e-06 0)
(0 -0.000229474 0)
(0 -0.000393172 0)
(0 -0.000369825 0)
(0 -1.8574e-06 0)
(0 -0.000212298 0)
(0 -0.000231919 0)
(0 -3.13602e-05 0)
(0 -9.12591e-05 0)
(0 -0.000355484 0)
(0 -0.000122579 0)
(0 -7.43018e-06 0)
(0 -7.69642e-05 0)
(0 -3.8972e-05 0)
(0 -0.000353537 0)
(0 -0.000411186 0)
(0 -7.79882e-05 0)
(0 -0.000101892 0)
(0 -5.83008e-05 0)
(0 -7.66626e-05 0)
(0 -5.75129e-05 0)
(0 -5.43814e-05 0)
(0 -6.44925e-05 0)
(0 -0.000165657 0)
(0 -0.000292579 0)
(0 -0.000181821 0)
(0 -2.37651e-05 0)
(0 -3.52277e-05 0)
(0 -0.000464506 0)
(0 -6.94078e-05 0)
(0 -2.73405e-05 0)
(0 -0.000346623 0)
(0 -0.000136754 0)
(0 -0.000368244 0)
(0 -7.30568e-05 0)
(0 -0.000283926 0)
(0 -6.54376e-05 0)
(0 -0.000330724 0)
(0 -1.02458e-05 0)
(0 -4.44326e-05 0)
(0 -0.000280011 0)
(0 -0.000250846 0)
(0 -1.28105e-05 0)
(0 -2.4463e-05 0)
(0 -4.24683e-05 0)
(0 -0.000104226 0)
(0 -3.99102e-06 0)
(0 -8.42051e-05 0)
(0 -0.000304179 0)
(0 -5.68346e-05 0)
(0 -0.000268737 0)
(0 -9.54928e-05 0)
(0 -0.000377395 0)
(0 -0.00049941 0)
(0 -0.000389099 0)
(0 -9.10223e-05 0)
(0 -0.000173843 0)
(0 -7.44562e-06 0)
(0 -0.000359287 0)
(0 -0.00038233 0)
(0 -7.05244e-05 0)
(0 -0.000166619 0)
(0 -0.000504497 0)
(0 -4.36804e-05 0)
(0 -0.000523899 0)
(0 -0.000282812 0)
(0 -5.71906e-05 0)
(0 -6.36041e-05 0)
(0 -6.17286e-05 0)
(0 -2.89783e-05 0)
(0 -0.000297356 0)
(0 -7.42308e-05 0)
(0 -0.000252648 0)
(0 -0.000257789 0)
(0 -0.000128093 0)
(0 -9.22673e-05 0)
(0 -0.000201524 0)
(0 -0.000152273 0)
(0 -1.33285e-05 0)
(0 -0.000157947 0)
(0 -5.42638e-05 0)
(0 -0.000154916 0)
(0 -0.000232641 0)
(0 -0.000188745 0)
(0 2.68735e-06 0)
(0 -0.000410407 0)
(0 -0.00015791 0)
(0 -7.97759e-05 0)
(0 -0.000372035 0)
(0 -0.000191234 0)
(0 -7.21262e-05 0)
(0 -0.000511652 0)
(0 -1.80731e-05 0)
(0 -0.000540819 0)
(0 -3.99272e-05 0)
(0 -0.000340999 0)
(0 -0.000120052 0)
(0 -0.000106354 0)
(0 -0.000307197 0)
(0 -0.000541503 0)
(0 -2.12325e-06 0)
(0 -0.000138843 0)
(0 -0.000505675 0)
(0 -0.000310215 0)
(0 -2.38813e-05 0)
(0 -0.000444235 0)
(0 -0.000263445 0)
(0 3.42929e-06 0)
(0 -0.000170142 0)
(0 -3.33862e-05 0)
(0 3.54241e-06 0)
(0 -4.1459e-05 0)
(0 -3.24962e-05 0)
(0 -0.000475828 0)
(0 -0.000366052 0)
(0 -0.000396377 0)
(0 -0.00013081 0)
(0 -0.000377997 0)
(0 -0.000278989 0)
(0 -6.37536e-05 0)
(0 -0.000389948 0)
(0 -0.000199881 0)
(0 -5.6397e-06 0)
(0 -5.09179e-05 0)
(0 -5.13141e-05 0)
(0 -0.000134823 0)
(0 -0.00024601 0)
(0 -0.000262745 0)
(0 -0.00027375 0)
(0 -0.000441187 0)
(0 -3.86648e-05 0)
(0 -7.38152e-05 0)
(0 -0.0005411 0)
(0 -7.14235e-05 0)
(0 -5.82575e-06 0)
(0 -0.000274303 0)
(0 -8.05021e-05 0)
(0 -0.000139614 0)
(0 -0.000280964 0)
(0 -0.000138962 0)
(0 -0.000286437 0)
(0 -8.44063e-05 0)
(0 -0.000448267 0)
(0 -0.000144335 0)
(0 -6.58486e-05 0)
(0 -0.00029828 0)
(0 -9.72943e-05 0)
(0 -0.000535731 0)
(0 -2.72479e-05 0)
(0 -0.000541488 0)
(0 -1.06793e-06 0)
(0 -0.000531148 0)
(0 -5.94366e-05 0)
(0 -0.000338271 0)
(0 -0.000295855 0)
(0 -0.000308939 0)
(0 -8.91531e-05 0)
(0 -6.63179e-06 0)
(0 -5.38459e-06 0)
(0 -0.000518739 0)
(0 -0.00015077 0)
(0 -8.73611e-06 0)
(0 -4.58234e-05 0)
(0 -2.44251e-05 0)
(0 -0.000156903 0)
(0 -0.000215227 0)
(0 -0.000380528 0)
(0 -0.000534247 0)
(0 -0.000278962 0)
(0 -0.000187525 0)
(0 -0.00024522 0)
(0 -7.21312e-05 0)
(0 -6.65494e-05 0)
(0 -0.000444385 0)
(0 -0.000255554 0)
(0 -0.000156686 0)
(0 -0.000380934 0)
(0 -0.000297076 0)
(0 -0.000146066 0)
(0 -0.000330088 0)
(0 -0.000188393 0)
(0 -0.000137151 0)
(0 -0.000258008 0)
(0 -0.000282948 0)
(0 -3.20916e-06 0)
(0 -1.55082e-05 0)
(0 -2.40334e-05 0)
(0 -0.00025576 0)
(0 -0.000105169 0)
(0 -0.000375196 0)
(0 -0.00013308 0)
(0 -0.000202177 0)
(0 -0.000103699 0)
(0 2.97683e-06 0)
(0 -2.89499e-05 0)
(0 -0.000284732 0)
(0 -0.00030473 0)
(0 -0.000122017 0)
(0 -0.000495645 0)
(0 -0.000275178 0)
(0 -5.81146e-05 0)
(0 -0.0005011 0)
(0 -0.000451256 0)
(0 -0.000108865 0)
(0 3.2618e-06 0)
(0 -8.33859e-07 0)
(0 -0.000217342 0)
(0 -9.641e-05 0)
(0 -7.62853e-05 0)
(0 -0.00053836 0)
(0 -0.000248147 0)
(0 -2.48337e-05 0)
(0 -5.53795e-05 0)
(0 -0.00027245 0)
(0 -3.59118e-05 0)
(0 -5.53984e-05 0)
(0 2.74265e-06 0)
(0 -5.01789e-05 0)
(0 -0.000369873 0)
(0 -0.000225889 0)
(0 -7.80436e-05 0)
(0 -0.000448136 0)
(0 -8.17107e-05 0)
(0 -5.21109e-05 0)
(0 -0.000251026 0)
(0 -0.00023864 0)
(0 -0.000377923 0)
(0 -9.1929e-05 0)
(0 -0.00026054 0)
(0 -0.000539503 0)
(0 -6.9911e-05 0)
(0 -8.86425e-05 0)
(0 -0.000511171 0)
(0 -5.12827e-05 0)
(0 -3.91965e-05 0)
(0 -1.68096e-05 0)
(0 -9.01e-05 0)
(0 -0.000383198 0)
(0 -0.000456708 0)
(0 -2.22374e-05 0)
(0 -0.00053784 0)
(0 -0.000360593 0)
(0 -6.55319e-05 0)
(0 -1.80994e-05 0)
(0 -0.00036572 0)
(0 -6.67397e-05 0)
(0 -0.000512332 0)
(0 -0.000236917 0)
(0 -7.01655e-05 0)
(0 -1.60093e-05 0)
(0 -7.83836e-05 0)
(0 -8.94816e-05 0)
(0 -0.000373071 0)
(0 -0.000146998 0)
(0 -0.000105117 0)
(0 -2.44744e-05 0)
(0 -0.00010689 0)
(0 -0.000186494 0)
(0 -0.000375665 0)
(0 -2.378e-05 0)
(0 -4.35714e-05 0)
(0 -0.000191841 0)
(0 -0.000229048 0)
(0 -4.63478e-05 0)
(0 -0.000506274 0)
(0 -6.36805e-05 0)
(0 -1.92354e-06 0)
(0 -0.000208962 0)
(0 -0.000225855 0)
(0 -4.75947e-05 0)
(0 -0.000464982 0)
(0 -0.000207227 0)
(0 -9.8566e-05 0)
(0 -0.000285321 0)
(0 -0.000393685 0)
(0 -0.000374726 0)
(0 -7.79146e-05 0)
(0 -0.000240726 0)
(0 -1.00359e-05 0)
(0 -4.03976e-05 0)
(0 -0.000123631 0)
(0 -0.000286254 0)
(0 -0.000510781 0)
(0 -8.79166e-05 0)
(0 -6.49727e-06 0)
(0 -0.000476119 0)
(0 -3.482e-05 0)
(0 -0.000289055 0)
(0 3.17078e-06 0)
(0 -1.71102e-05 0)
(0 3.20003e-06 0)
(0 -8.30108e-06 0)
(0 -0.00012901 0)
(0 -0.000320513 0)
(0 -0.000306669 0)
(0 -3.01643e-05 0)
(0 -0.000239841 0)
(0 -2.90301e-06 0)
(0 -0.000171836 0)
(0 -0.000260371 0)
(0 -0.00018314 0)
(0 -0.000164846 0)
(0 -1.6538e-05 0)
(0 -0.000409631 0)
(0 -3.62113e-05 0)
(0 -0.000137399 0)
(0 -0.000339928 0)
(0 -1.77004e-05 0)
(0 -0.000538518 0)
(0 -0.000470673 0)
(0 -0.000451637 0)
(0 -8.01648e-05 0)
(0 -3.22496e-05 0)
(0 -3.21478e-05 0)
(0 -3.34802e-06 0)
(0 -7.17166e-05 0)
(0 -0.00017186 0)
(0 2.6463e-06 0)
(0 3.57545e-06 0)
(0 -8.56923e-05 0)
(0 -0.00011658 0)
(0 -5.58588e-05 0)
(0 2.8093e-06 0)
(0 -7.11084e-05 0)
(0 -0.000507631 0)
(0 -0.000478239 0)
(0 -0.000213132 0)
(0 -1.37919e-05 0)
(0 -2.82378e-05 0)
(0 -8.07913e-05 0)
(0 -0.000162336 0)
(0 -0.000537255 0)
(0 -0.00048221 0)
(0 -2.79591e-06 0)
(0 -0.000277095 0)
(0 -0.000305464 0)
(0 -0.000214132 0)
(0 -0.00049829 0)
(0 -4.79658e-08 0)
(0 -0.000259866 0)
(0 -0.000102904 0)
(0 -0.000281258 0)
(0 -0.000297954 0)
(0 -0.000148529 0)
(0 -0.000306454 0)
(0 -0.000148299 0)
(0 4.63747e-07 0)
(0 -5.7975e-05 0)
(0 -0.000257493 0)
(0 -1.98175e-05 0)
(0 -6.69953e-05 0)
(0 -5.545e-05 0)
(0 -0.000482111 0)
(0 -0.000537908 0)
(0 -0.000180671 0)
(0 -1.73145e-05 0)
(0 -3.33545e-06 0)
(0 -0.000390958 0)
(0 -0.000433586 0)
(0 -1.30611e-05 0)
(0 -0.000497651 0)
(0 -0.000396611 0)
(0 -4.42971e-05 0)
(0 -0.000313295 0)
(0 -5.60601e-05 0)
(0 -0.000136543 0)
(0 -0.000130464 0)
(0 -0.000310866 0)
(0 -0.000152768 0)
(0 -0.000357237 0)
(0 -0.000242348 0)
(0 -0.000296336 0)
(0 -0.000172647 0)
(0 -4.79198e-05 0)
(0 -0.000200573 0)
(0 -0.000195526 0)
(0 -0.00035166 0)
(0 -0.000439752 0)
(0 -0.000215236 0)
(0 -0.00041196 0)
(0 -4.65409e-05 0)
(0 -8.5699e-05 0)
(0 -0.000286782 0)
(0 -0.000250929 0)
(0 -5.11632e-05 0)
(0 -1.25238e-05 0)
(0 -0.000436137 0)
(0 -0.000253115 0)
(0 -4.48272e-06 0)
(0 -0.000538903 0)
(0 2.61075e-06 0)
(0 -0.000100947 0)
(0 -0.000184199 0)
(0 -0.000164159 0)
(0 -1.84191e-05 0)
(0 -7.62159e-05 0)
(0 -0.000388102 0)
(0 -0.000249946 0)
(0 -8.99603e-05 0)
(0 -0.000133485 0)
(0 -1.67954e-06 0)
(0 -0.000172072 0)
(0 -0.000137825 0)
(0 -0.00037379 0)
(0 -0.000379024 0)
(0 -0.000109144 0)
(0 -0.000374792 0)
(0 -0.000412462 0)
(0 -6.06732e-05 0)
(0 -0.000304973 0)
(0 -2.06615e-05 0)
(0 -0.000267248 0)
(0 -0.000431048 0)
(0 -0.00029208 0)
(0 -0.000336443 0)
(0 1.64041e-06 0)
(0 -1.61485e-05 0)
(0 -0.000527584 0)
(0 -2.46231e-06 0)
(0 -0.000517746 0)
(0 -0.000109018 0)
(0 -1.58885e-05 0)
(0 -0.000447797 0)
(0 -0.00026172 0)
(0 -3.97464e-05 0)
(0 1.93926e-06 0)
(0 -0.000228631 0)
(0 -0.000342426 0)
(0 -0.000311603 0)
(0 -2.21347e-05 0)
(0 -0.000154685 0)
(0 -0.000524622 0)
(0 -0.000202269 0)
(0 -3.79251e-05 0)
(0 -3.62673e-06 0)
(0 -3.93661e-05 0)
(0 -7.35109e-05 0)
(0 -2.41504e-05 0)
(0 -7.56692e-05 0)
(0 -9.36947e-06 0)
(0 -0.000277252 0)
(0 -7.99212e-05 0)
(0 -0.000420018 0)
(0 -4.63229e-05 0)
(0 -1.46216e-05 0)
(0 -4.91493e-05 0)
(0 -0.000481981 0)
(0 -0.000294319 0)
(0 -0.000171321 0)
(0 -9.62698e-05 0)
(0 -5.60618e-06 0)
(0 -0.000170266 0)
(0 -9.59607e-06 0)
(0 -0.000257205 0)
(0 -0.000247366 0)
(0 -7.75312e-05 0)
(0 -5.99131e-05 0)
(0 -0.000174761 0)
(0 -0.00037422 0)
(0 -5.0951e-05 0)
(0 -4.46423e-05 0)
(0 -0.000284573 0)
(0 -0.000476736 0)
(0 -6.39263e-05 0)
(0 -5.89785e-05 0)
(0 -7.72195e-08 0)
(0 -7.60031e-05 0)
(0 1.55387e-07 0)
(0 -0.000430744 0)
(0 1.51779e-06 0)
(0 -7.50667e-05 0)
(0 -2.21317e-05 0)
(0 -1.40685e-05 0)
(0 -0.000422958 0)
(0 -0.000252819 0)
(0 -8.0185e-05 0)
(0 -1.36914e-06 0)
(0 -0.000447729 0)
(0 -0.000147625 0)
(0 -1.05158e-05 0)
(0 -0.000127284 0)
(0 -0.000320776 0)
(0 -0.000146825 0)
(0 -0.000192949 0)
(0 -8.94805e-05 0)
(0 -6.31407e-05 0)
(0 -0.000197865 0)
(0 -0.000312792 0)
(0 -0.000439772 0)
(0 -7.44755e-05 0)
(0 -0.000478888 0)
(0 -3.76005e-05 0)
(0 -3.00773e-05 0)
(0 -1.15615e-05 0)
(0 -8.75043e-06 0)
(0 -0.000197082 0)
(0 -2.06574e-05 0)
(0 -0.000154827 0)
(0 3.59742e-06 0)
(0 -0.000419436 0)
(0 -0.000147068 0)
(0 -0.000189964 0)
(0 -1.45334e-05 0)
(0 -0.000152152 0)
(0 -0.000207459 0)
(0 -3.43282e-05 0)
(0 -4.10736e-05 0)
(0 -0.000428575 0)
(0 -0.000378826 0)
(0 -0.000395622 0)
(0 -1.52216e-05 0)
(0 -5.02466e-05 0)
(0 2.83143e-06 0)
(0 -6.96726e-05 0)
(0 -0.000102233 0)
(0 -0.000270342 0)
(0 -0.000346361 0)
(0 -9.23495e-05 0)
(0 -0.000244756 0)
(0 -8.75813e-05 0)
(0 -0.000253885 0)
(0 -0.000340778 0)
(0 -0.000156026 0)
(0 -0.000186415 0)
(0 -3.17152e-05 0)
(0 -8.99329e-05 0)
(0 3.69846e-06 0)
(0 -0.000363886 0)
(0 -4.18389e-05 0)
(0 -0.000515661 0)
(0 -0.000351369 0)
(0 -0.000323648 0)
(0 -0.000524627 0)
(0 -6.37325e-05 0)
(0 -0.000396406 0)
(0 2.97284e-06 0)
(0 -4.2225e-05 0)
(0 -1.12674e-05 0)
(0 -3.45348e-05 0)
(0 -0.000520211 0)
(0 -0.000248968 0)
(0 -0.000498809 0)
(0 -0.000138132 0)
(0 -0.000228374 0)
(0 -0.000216859 0)
(0 -0.000105215 0)
(0 2.71441e-06 0)
(0 -0.000211381 0)
(0 -0.000158643 0)
(0 -6.82075e-05 0)
(0 -0.000301061 0)
(0 -2.10876e-05 0)
(0 -0.000140385 0)
(0 -0.000234761 0)
(0 -0.000145403 0)
(0 4.87208e-07 0)
(0 -0.000227732 0)
(0 -0.00024903 0)
(0 -0.000444675 0)
(0 -0.000337913 0)
(0 -0.000462945 0)
(0 -5.35521e-05 0)
(0 -2.06604e-05 0)
(0 -0.000363214 0)
(0 -3.77455e-05 0)
(0 -0.000241888 0)
(0 -0.000146509 0)
(0 -4.80131e-06 0)
(0 -0.000310238 0)
(0 -6.9177e-05 0)
(0 -3.33482e-05 0)
(0 -0.000226221 0)
(0 -0.000239817 0)
(0 -8.85047e-07 0)
(0 -2.70116e-05 0)
(0 -0.000502645 0)
(0 -0.000218214 0)
(0 -1.98574e-05 0)
(0 -0.000141077 0)
(0 -2.84443e-05 0)
(0 -7.45484e-05 0)
(0 -4.49423e-05 0)
(0 -6.20994e-05 0)
(0 -0.000258651 0)
(0 -0.000199185 0)
(0 -2.74434e-05 0)
(0 -0.000493634 0)
(0 1.32916e-06 0)
(0 -2.02924e-05 0)
(0 -9.42378e-05 0)
(0 -4.09445e-05 0)
(0 -0.000489152 0)
(0 1.02898e-07 0)
(0 -0.000499441 0)
(0 -0.000484096 0)
(0 -6.27493e-05 0)
(0 -1.98281e-06 0)
(0 -0.000340797 0)
(0 -5.97526e-05 0)
(0 -0.000268689 0)
(0 -6.21813e-05 0)
(0 -4.02159e-05 0)
(0 -6.47614e-05 0)
(0 -0.000244397 0)
(0 -5.43237e-05 0)
(0 -0.000300896 0)
(0 -0.000344894 0)
(0 -0.000197884 0)
(0 -0.000138537 0)
(0 -8.66001e-05 0)
(0 -0.000187381 0)
(0 -0.000261206 0)
(0 -0.000130253 0)
(0 -0.000214475 0)
(0 -0.000494237 0)
(0 -0.00042673 0)
(0 -0.000176328 0)
(0 -0.00015708 0)
(0 -6.31003e-05 0)
(0 -0.000220012 0)
(0 -0.000267183 0)
(0 -0.000329856 0)
(0 -0.000286485 0)
(0 -0.000162096 0)
(0 -0.000439332 0)
(0 -1.15017e-05 0)
(0 -2.48163e-05 0)
(0 -0.00020651 0)
(0 -1.64724e-05 0)
(0 -0.000425325 0)
(0 -0.000296754 0)
(0 -0.000452298 0)
(0 -0.000286314 0)
(0 -8.2915e-05 0)
(0 -0.000204006 0)
(0 -0.000500569 0)
(0 -0.000492588 0)
(0 -0.000108239 0)
(0 -0.000366694 0)
(0 -0.000262271 0)
(0 -0.000247612 0)
(0 -0.000372762 0)
(0 -0.000226271 0)
(0 -4.74313e-05 0)
(0 -0.000364022 0)
(0 -7.92302e-05 0)
(0 -1.13475e-05 0)
(0 -2.93073e-05 0)
(0 -0.000290721 0)
(0 -8.41293e-05 0)
(0 -4.85303e-05 0)
(0 -0.000492222 0)
(0 -6.0677e-05 0)
(0 -1.43185e-05 0)
(0 1.14852e-06 0)
(0 -0.000167786 0)
(0 -3.35868e-05 0)
(0 -0.000501049 0)
(0 -0.000200932 0)
(0 -0.000105969 0)
(0 -0.000293303 0)
(0 -3.7105e-05 0)
(0 -0.00012251 0)
(0 -0.000490067 0)
(0 -5.71995e-05 0)
(0 -0.00012513 0)
(0 -0.000444786 0)
(0 8.61439e-08 0)
(0 -0.000473697 0)
(0 -5.73505e-05 0)
(0 -0.000214314 0)
(0 -0.000184463 0)
(0 -8.33581e-05 0)
(0 -7.38679e-05 0)
(0 -7.45203e-05 0)
(0 -0.000379361 0)
(0 -0.000405172 0)
(0 -0.00031755 0)
(0 -0.00048347 0)
(0 -0.000355743 0)
(0 -0.000498745 0)
(0 -0.000154973 0)
(0 -2.86084e-06 0)