/*--------------------------------*- C++ -*----------------------------------*\
| =========                 |                                                 |
| \\      /  F ield         | OpenFOAM: The Open Source CFD Toolbox           |
|  \\    /   O peration     | Version:  v2012                                 |
|   \\  /    A nd           | Website:  www.openfoam.com                      |
|    \\/     M anipulation  |                                                 |
\*---------------------------------------------------------------------------*/
FoamFile
{
    version     2.0;
    format      ascii;
    class       volVectorField;
    location    "100";
    object      ddtCorrDdt0(U);
}
// * * * * * * * * * * * * * * * * * * * * * * * * * * * * * * * * * * * * * //

dimensions      [0 1 -2 0 0 0 0];


internalField   nonuniform List<vector> 
18758
(
(-0.000449535 0.00671184 2.1522e-20)
(-0.00987473 0.059957 -3.62987e-19)
(-1.30897e-05 -7.7888e-06 -3.80496e-19)
(0.000639157 0.00698844 1.47114e-19)
(0.00219752 -0.00699586 -6.09941e-19)
(-2.30834e-07 1.79214e-05 4.72139e-22)
(0.000186938 5.13477e-05 -1.28671e-19)
(0.00159017 -0.000415435 -8.35085e-19)
(0.00252031 -0.00601655 1.04041e-18)
(0.00368701 -0.00483712 -2.71641e-19)
(0.0123857 0.0400863 1.35646e-19)
(0.0621825 0.0258538 -3.45645e-18)
(0.033662 -0.0317022 9.79291e-19)
(0.000934473 0.00107424 -1.41404e-18)
(0.000183132 1.67406e-05 -1.7712e-20)
(0.000153125 -3.82649e-05 5.4163e-21)
(0.0663721 -0.00606776 1.44206e-18)
(5.6135e-05 0.000147982 -1.53009e-20)
(0.000183888 9.91585e-06 4.19987e-20)
(-0.00294334 -0.00138604 -3.50493e-19)
(-0.053131 0.0849474 1.53734e-18)
(-0.0685013 -0.0283725 -2.31518e-18)
(-1.37194e-06 1.30627e-05 5.28978e-20)
(-3.92251e-05 2.75761e-06 8.47706e-20)
(-0.0310887 -0.0264432 -1.00756e-18)
(-0.183584 0.107334 -9.57247e-19)
(0.0584172 -0.0762677 3.07323e-17)
(0.0587944 0.00556823 5.07348e-19)
(-0.00551715 0.0381336 2.67361e-18)
(-0.0307527 0.0899422 -3.81458e-19)
(-0.120851 -0.635159 -1.4917e-17)
(0.0666433 -0.0206535 -3.1843e-17)
(0.00142639 -0.000374584 -2.55212e-19)
(-0.0503974 -0.052968 4.01774e-19)
(0.000440787 -0.00813646 1.55951e-18)
(-0.0188115 0.0943934 -1.85943e-18)
(0.0384894 -0.0284218 -1.36607e-18)
(0.000850017 -0.00719919 -3.3814e-19)
(-0.0135979 0.521028 4.9936e-18)
(-0.000396073 0.00035322 1.11341e-19)
(0.0185658 0.104696 3.63699e-18)
(0.00615399 -0.00394057 -1.7641e-18)
(0.0551327 -0.0125786 5.68573e-19)
(0.000931633 -0.0011185 -4.71917e-19)
(0.000124579 5.07034e-06 3.66012e-19)
(-0.126997 -0.546458 -5.98938e-19)
(0.00558294 -0.0032544 -1.82339e-19)
(0.00306158 0.0393718 -1.84901e-18)
(-0.021497 -0.224827 -2.44473e-18)
(0.00331303 0.00518805 5.04989e-20)
(0.0197932 0.0433888 2.75249e-19)
(-0.225682 0.108747 1.35027e-18)
(0.00416502 0.00478624 4.24484e-19)
(0.000891331 0.00387401 -1.31078e-18)
(-0.0603419 0.00684235 1.77674e-18)
(0.02813 -0.0289758 -3.98521e-18)
(-0.000537172 -0.000395849 -1.53428e-19)
(-0.00273412 -0.00107425 -6.29649e-20)
(0.00660613 0.0347337 1.86354e-18)
(-0.000567212 -0.000280519 -1.67148e-19)
(0.00014316 3.46709e-06 1.12423e-19)
(0.000673943 -0.00118468 -1.03701e-18)
(0.0900544 -0.0440635 -1.10618e-17)
(0.134356 -0.085992 8.31705e-20)
(0.000146901 6.86131e-07 -1.08839e-19)
(-0.00494496 -0.101394 5.99542e-20)
(0.000116049 2.94227e-07 -5.56807e-20)
(-0.000127429 0.000149447 7.37917e-20)
(0.0585843 0.0019346 -1.3754e-19)
(4.04051e-05 0.000167253 9.59857e-21)
(-0.196435 0.105927 8.82572e-20)
(-0.21581 0.107337 -3.45857e-18)
(0.000171859 -6.65589e-05 -2.72917e-19)
(-0.00250876 -0.00630174 -1.02538e-19)
(-0.0107993 -0.0453135 7.90715e-20)
(-0.0929806 -0.60715 6.18032e-18)
(-0.0333365 -0.00489321 -4.64191e-18)
(0.0764627 -0.0387176 -4.28435e-20)
(0.00363262 -0.00575451 -6.59578e-20)
(0.0560574 -0.0217799 -2.26026e-19)
(-0.0308154 0.0199904 6.33683e-18)
(-0.0174804 0.522341 -1.34314e-17)
(0.0807416 -0.0343521 -1.17193e-19)
(-0.00395692 -0.0255077 1.55429e-18)
(0.00242949 -0.000731458 1.1673e-18)
(-0.0480327 0.00731793 -9.54642e-18)
(-0.000963241 0.0022106 -6.82791e-19)
(-0.00315418 -0.00700636 5.58576e-20)
(0.0778841 -0.0486965 5.16237e-18)
(-0.0458444 0.00468953 1.24762e-17)
(0.0706425 0.00808944 -1.5192e-18)
(0.000138148 -1.33387e-06 -5.37454e-19)
(-0.0199544 0.0124978 6.27965e-19)
(-0.0233142 -0.225055 1.4532e-17)
(0.000174406 -6.31633e-05 1.99064e-19)
(0.000117533 -3.42676e-06 -4.05663e-19)
(-7.16488e-05 0.00026827 -6.28486e-21)
(-0.00247581 0.0216276 -2.82994e-18)
(0.0584074 -0.0387953 -4.26573e-18)
(0.000228531 0.000123834 -4.25995e-19)
(-0.0900164 -0.547588 3.31102e-18)
(-0.0100384 -0.00199832 3.60635e-18)
(-0.000114937 0.000145332 -1.21618e-19)
(0.000115097 9.84257e-07 1.20105e-18)
(-0.0138832 -0.101767 -6.86196e-19)
(-0.0666955 0.0675306 -2.52482e-18)
(5.18818e-05 0.0402457 1.68171e-18)
(0.0330776 0.00461442 2.31408e-18)
(-0.0333207 -0.060223 2.4917e-18)
(-0.03719 0.148238 -2.75885e-19)
(0.000159909 -2.20065e-05 7.31878e-21)
(0.145067 -0.113425 4.56938e-18)
(0.00599578 0.00377831 2.32071e-19)
(2.31914e-05 -1.04193e-05 6.07405e-19)
(-0.0104809 -0.000988521 -4.71767e-21)
(0.111445 -0.00160085 3.30292e-18)
(-0.000781695 0.0211749 3.02505e-20)
(-0.000470371 0.000135868 -1.8485e-19)
(0.129906 0.00332095 2.79427e-18)
(0.00313553 0.000491889 3.51794e-20)
(6.4198e-05 -2.25862e-05 1.72061e-19)
(-0.0241712 -0.00350463 -1.71732e-18)
(0.00252763 -0.000309822 -8.55015e-19)
(-5.49565e-05 -2.16587e-05 3.40759e-19)
(-0.0705016 -0.219335 -1.71225e-17)
(0.000410238 0.00392851 1.0852e-19)
(0.000632365 -0.000605724 -2.52298e-19)
(-4.5733e-05 -1.64336e-05 1.26943e-19)
(-0.0189894 0.0739189 -3.68632e-18)
(-0.00749776 -0.209159 -2.75892e-17)
(0.00391782 0.0358493 1.01105e-18)
(0.000173998 -4.1584e-06 2.06284e-19)
(0.0070964 -0.000131433 -6.03078e-19)
(-0.0634589 -0.174139 1.4455e-19)
(-0.000447603 0.000442771 9.80286e-21)
(0.000120958 -5.54118e-06 2.39527e-19)
(0.0332412 0.0512211 6.04995e-18)
(0.00215941 0.000365818 4.60561e-19)
(0.0663773 0.0488619 -2.978e-18)
(-0.0287984 0.0218591 -2.80686e-18)
(0.0075723 0.00363522 -3.67553e-20)
(0.0296478 0.135909 -2.86964e-18)
(-0.00421476 0.0139421 -2.20953e-18)
(-0.0313043 -0.0408991 -1.46488e-19)
(-0.0755623 -0.235906 2.65133e-17)
(-0.0117568 0.00816822 -8.82444e-18)
(-0.0188595 -0.115814 9.69102e-19)
(-0.0185652 0.0618277 -3.78098e-18)
(0.00476089 0.0463212 -6.2289e-20)
(-0.200319 0.359212 -1.17856e-17)
(-0.0537733 -0.230823 -1.32498e-18)
(-0.01145 -0.206336 -6.30798e-17)
(0.000158987 0.000206938 -9.96678e-19)
(-0.00167931 -0.00803619 2.78283e-19)
(0.0219089 0.0781844 -2.60558e-19)
(0.0891684 0.0519084 -1.98789e-18)
(-0.019122 0.013175 -5.14406e-19)
(-0.0237023 0.0768625 -1.98139e-18)
(-0.012738 -0.0261694 -8.43878e-20)
(0.000991328 0.0568461 -1.00192e-18)
(0.0558313 0.228792 -1.23888e-18)
(-0.000126582 -6.00684e-05 9.01981e-19)
(-0.00344193 -0.201811 1.20285e-18)
(-0.0282971 -0.116906 7.15496e-19)
(-0.119758 -0.381484 3.52233e-19)
(-0.000957189 0.000262364 -1.50203e-19)
(-0.000124165 -5.01579e-05 -1.00005e-18)
(-0.0664766 0.267539 -1.17408e-17)
(-0.0180108 -0.232033 3.43404e-17)
(0.0391888 0.0917217 -1.00311e-17)
(-0.0117641 -0.196025 -1.33115e-18)
(-5.39686e-06 -5.79747e-06 6.57912e-19)
(-0.00468717 0.0446279 5.26118e-18)
(0.00347954 0.110559 -4.71177e-19)
(-0.0325155 -0.0667121 1.59395e-18)
(0.000170772 -8.39989e-05 4.76075e-20)
(0.000168215 -6.93583e-05 2.03038e-19)
(-0.126472 0.0932422 4.74271e-19)
(-0.0591498 -0.038031 -2.68586e-19)
(8.13327e-05 0.000542758 -1.13511e-18)
(-7.11277e-05 7.08992e-05 -4.704e-19)
(-0.0012168 0.00351758 -5.57763e-19)
(-0.0576184 0.00996594 -6.66964e-18)
(-2.68361e-06 0.000927435 3.3182e-18)
(-0.23437 0.407716 -5.87841e-18)
(8.08515e-05 0.000179019 9.39193e-19)
(-0.0380504 0.0917999 -6.69641e-20)
(-0.00508176 0.0142532 1.2781e-18)
(-0.0240864 -0.22509 -2.83575e-18)
(-0.0212698 -0.223206 2.06738e-18)
(-0.00592101 -0.19774 7.11663e-17)
(9.72072e-05 0.00018401 -5.55936e-19)
(0.0378998 0.00513091 -2.62284e-19)
(-0.0744467 -0.00554127 -8.80765e-20)
(-3.9976e-05 1.01499e-05 1.14822e-19)
(0.000105895 0.000880872 5.86599e-19)
(0.0801704 0.0493491 -1.47248e-18)
(0.000147227 0.000196146 -2.5818e-19)
(-0.0111431 -0.215086 2.22759e-18)
(-7.47799e-05 1.20457e-05 -2.59752e-19)
(0.00237739 4.26327e-05 -2.42724e-19)
(-0.024724 0.0847484 -2.44658e-18)
(-0.0290595 -0.0876698 2.40279e-18)
(0.000149828 -2.91885e-05 2.17482e-20)
(0.000162898 -2.07804e-05 9.4751e-22)
(-0.00176109 -0.205885 1.70957e-18)
(4.99621e-05 -0.000147333 -1.3737e-18)
(-0.000693475 -0.00871698 -1.09954e-18)
(-0.0267971 -0.207031 -1.16046e-17)
(0.0071991 -0.180207 -3.28324e-17)
(-6.62205e-05 2.66925e-06 2.63017e-19)
(-0.0196989 0.0166578 -1.40286e-18)
(0.00276459 0.000429515 -4.88054e-19)
(0.000672299 0.001435 -1.97659e-18)
(-0.00209859 -0.000634879 -1.00729e-18)
(-9.81173e-05 0.000270306 -4.76834e-20)
(0.000152508 2.68222e-06 2.39876e-20)
(-0.0190347 0.0155354 -5.47903e-19)
(-6.81454e-06 2.36965e-05 -2.30879e-19)
(0.0119254 0.139201 3.23263e-18)
(-0.0688734 -0.0157377 -2.98925e-19)
(-2.23466e-05 0.000414561 1.32869e-19)
(-0.00308252 0.0139608 4.18929e-18)
(-0.0201712 0.0896477 1.58684e-18)
(-0.0172825 -0.0935581 -2.41336e-18)
(-0.0190097 0.00935644 -3.63534e-19)
(-0.0153323 -0.0492922 1.26635e-18)
(-0.0418467 -0.00422264 -8.16993e-18)
(0.0373785 0.22694 -4.91537e-18)
(6.28488e-05 -0.000124099 -2.47717e-18)
(-0.193051 0.120473 3.03122e-18)
(-0.0110128 0.00890756 5.85679e-18)
(-0.0374529 -0.0676355 7.95056e-19)
(0.000118932 -3.67596e-06 3.01357e-19)
(0.000166555 5.69308e-05 6.67102e-20)
(-0.000117041 0.000552804 9.32482e-20)
(0.0180764 -0.0446427 7.7041e-19)
(-0.0262291 -0.215201 6.07892e-19)
(0.0958085 0.0486429 2.33049e-18)
(0.000549224 -4.74926e-05 4.93583e-20)
(0.000165075 -1.24634e-05 8.39439e-22)
(0.0150491 -0.0419782 2.32705e-18)
(0.0547665 0.0451975 7.33176e-19)
(-4.14081e-05 1.68984e-06 3.19679e-19)
(-0.217684 0.377039 1.03695e-17)
(0.0679321 0.13022 1.38652e-18)
(0.000156857 5.1387e-05 4.78127e-20)
(0.000131832 -3.75997e-05 -5.9392e-19)
(-0.00196404 0.000409175 3.67936e-19)
(0.000233859 0.000124517 1.05127e-18)
(-0.0134004 -0.20183 -1.49376e-17)
(0.001021 -0.00043572 -4.94146e-19)
(-0.0367356 0.0349471 -1.25334e-19)
(1.79142e-05 0.000695928 -2.02134e-19)
(3.25831e-05 9.18361e-06 -1.12797e-19)
(0.111114 0.0718007 7.15964e-19)
(-0.000860528 1.63515e-05 2.12205e-19)
(-0.226694 0.105234 -2.04775e-18)
(0.000149006 1.49992e-05 1.94979e-21)
(-0.0734464 -0.0782998 4.02737e-19)
(0.00538822 0.00477708 -7.63323e-19)
(-7.11929e-05 -2.75599e-05 1.69056e-19)
(0.000151166 5.50041e-05 8.40423e-20)
(0.0356902 0.00378823 5.28019e-19)
(0.09832 -0.0738108 1.77271e-19)
(0.116799 -0.0586885 6.72618e-19)
(-7.6009e-05 -2.51434e-05 -5.30107e-19)
(0.0601168 0.0515216 6.84816e-19)
(0.00014917 0.000212578 1.33115e-18)
(0.000520576 2.47061e-05 -2.08511e-19)
(0.120495 -0.0105171 3.94367e-18)
(-0.217009 6.87226e-05 -1.21517e-18)
(0.000494454 6.28422e-05 -1.01277e-18)
(4.3906e-05 -0.000106824 7.85036e-19)
(-0.00229404 -0.000830753 1.88473e-19)
(-0.00182774 -0.000475947 1.27732e-18)
(0.00452083 0.00246312 2.24752e-18)
(-3.43959e-06 3.04766e-05 1.58975e-19)
(0.000631585 0.00180238 1.58326e-20)
(0.00100455 0.00104405 -3.31066e-18)
(0.000131593 -2.38718e-05 -4.44273e-19)
(0.000167281 -4.04443e-06 -3.38294e-19)
(0.000157596 2.60959e-05 -2.1941e-19)
(-0.0383588 -0.12967 -8.41394e-19)
(0.000184062 3.98255e-05 7.54239e-20)
(5.86601e-05 -0.000101979 -5.15655e-19)
(4.67316e-05 0.000108594 8.82675e-21)
(0.0490543 0.0470792 -1.80436e-18)
(0.000121749 1.99595e-05 -2.87059e-20)
(0.000118618 1.33977e-05 -6.15911e-19)
(-3.11746e-05 1.01231e-06 -2.29943e-19)
(0.000247505 0.000638843 7.79298e-21)
(-0.000438608 -0.000409839 -1.02322e-19)
(-6.61974e-05 -5.10368e-06 1.12879e-18)
(-5.82891e-05 -2.93862e-06 6.3629e-22)
(-0.00330476 0.000638525 -9.56572e-20)
(-0.0156033 -0.00134827 3.0583e-19)
(0.000149352 -1.88509e-06 6.52453e-19)
(-3.34228e-05 2.43121e-06 -1.09551e-19)
(-0.0262992 -0.140717 -8.21352e-18)
(0.000507545 0.00221937 5.20143e-19)
(-3.3451e-05 -2.20833e-05 -3.49522e-19)
(-2.61589e-05 -2.30171e-05 7.78597e-19)
(0.0260555 0.295879 -1.17724e-17)
(0.0288053 -0.000792056 2.52396e-19)
(-6.67296e-05 6.26331e-05 4.30517e-19)
(-0.000291615 0.0127659 -4.68453e-19)
(-0.0757389 0.0631624 2.71119e-18)
(0.000608737 -0.00145367 6.7195e-19)
(0.0231125 -0.031751 -3.39317e-19)
(0.000158502 4.14273e-05 1.92492e-19)
(0.163852 0.00295128 -1.42871e-18)
(0.0730705 0.0539258 8.61355e-19)
(0.0350146 0.0325619 -2.6619e-18)
(-0.00764531 0.0360984 -3.55954e-18)
(-0.0375946 -0.0538804 9.8477e-19)
(-8.85257e-05 0.000116337 -2.54469e-20)
(0.0568542 0.0841751 1.54663e-19)
(-0.0196159 0.106465 1.61985e-18)
(0.00011083 -2.52432e-06 -6.82857e-20)
(0.0339359 0.030091 1.96218e-18)
(-0.00953253 -0.0249007 -2.71709e-18)
(-0.152835 0.330888 -1.52571e-17)
(0.000188359 5.7497e-05 7.55971e-19)
(-9.88952e-05 0.000124454 1.54617e-19)
(0.00387902 -0.186409 2.30539e-17)
(0.0107603 0.0735221 2.89082e-19)
(0.000135516 -1.11028e-05 -1.88063e-19)
(-0.0561783 -0.216294 -1.23673e-17)
(0.0138382 -0.0356335 -2.33624e-18)
(0.0102018 -0.00122229 7.42908e-19)
(-0.060818 -0.180011 3.81689e-18)
(0.000190189 5.3796e-05 5.57808e-20)
(-0.00101354 0.00011928 -2.63504e-19)
(0.000148641 2.21265e-05 -3.01076e-20)
(1.90418e-05 -8.38656e-06 4.87343e-19)
(-0.000218854 0.000621477 -1.021e-19)
(0.00350304 -0.00131397 -1.56515e-19)
(0.00169865 -0.000281019 -2.69345e-19)
(8.45715e-05 -0.000180779 -9.41164e-19)
(-0.000220304 0.000503371 5.18207e-19)
(0.000635601 6.08741e-05 2.98666e-19)
(0.0254554 -0.0567176 -1.26232e-18)
(0.00178767 0.322031 1.06127e-17)
(0.00182805 0.000556203 1.22066e-19)
(0.0550422 0.175574 1.62332e-17)
(0.0607727 -0.0553856 2.87467e-18)
(0.000138139 -1.215e-05 1.138e-19)
(-0.00157989 0.00751007 2.02385e-18)
(0.0319779 -0.00622186 4.88052e-19)
(-0.0563977 -0.0365107 2.67359e-19)
(0.0533194 0.078435 1.27969e-18)
(0.0847057 0.0185163 4.35613e-19)
(8.13214e-05 0.000164806 2.86797e-20)
(-0.0368425 -0.229444 1.78954e-17)
(-0.0699035 0.0266924 9.01549e-19)
(0.00455155 0.0170125 -9.84747e-19)
(0.000615036 9.26811e-05 -3.75427e-19)
(0.00937518 -0.00269392 5.17037e-19)
(2.44185e-05 0.00162818 -4.67562e-20)
(0.000893 -0.000868012 3.64413e-19)
(0.0882681 0.0546021 -5.21763e-18)
(-0.0630662 0.00216119 1.51325e-19)
(0.0650293 0.0344182 -4.01245e-18)
(-0.021084 -0.0600462 -1.5017e-18)
(-0.0640544 0.0102663 2.31049e-19)
(0.00016308 6.13788e-05 -1.21624e-19)
(0.000342936 0.00344497 -1.79371e-18)
(-0.00167639 0.00383615 -4.01818e-19)
(0.00049329 0.0229035 5.97123e-19)
(-0.0243368 -0.225291 -3.40487e-18)
(0.109748 0.00662814 -2.60556e-18)
(-0.057524 -0.0323477 -3.16835e-18)
(0.0558873 -0.0380999 3.75527e-19)
(0.0188509 0.114414 -1.37739e-18)
(0.0883309 0.0132847 -1.97904e-18)
(3.6203e-05 6.4785e-06 1.49241e-19)
(0.0119991 -0.0840682 4.80256e-19)
(-0.0225022 0.0656564 -3.07461e-18)
(0.0268001 0.018371 -5.00646e-20)
(0.0668542 0.014606 1.3105e-18)
(0.000118351 2.24418e-06 -8.03496e-20)
(-4.03973e-05 3.20668e-06 2.3145e-20)
(-0.0734441 -0.0324875 3.30043e-18)
(0.0590673 0.0522079 5.10576e-18)
(-0.0282777 -0.179689 -3.55549e-18)
(0.122885 -0.0176293 -2.38946e-18)
(-0.0631243 -0.227466 2.5269e-18)
(0.000608095 -9.74722e-06 4.61096e-19)
(0.044096 0.0488736 4.19403e-18)
(-0.021151 0.161735 3.94109e-18)
(0.000155744 -3.528e-05 -9.36626e-20)
(0.0011165 0.000873855 -4.79369e-18)
(-0.00199566 0.000256758 1.61052e-19)
(-0.000737057 -0.00277194 -8.06049e-19)
(5.69452e-05 -2.13402e-05 -9.58741e-19)
(-0.000267867 0.0017217 4.12842e-19)
(7.11374e-05 0.000126974 2.32048e-19)
(0.000167484 -2.28343e-06 2.79054e-19)
(-4.82912e-05 2.63223e-06 -4.01823e-19)
(-0.00167837 0.00134239 5.48083e-19)
(0.00858947 -0.0070786 -1.52606e-19)
(-0.0334242 0.38948 4.3375e-18)
(-0.00161794 0.00397129 -1.89352e-18)
(-0.027662 -0.146034 -4.62533e-18)
(-0.0554684 -0.189425 -5.58187e-18)
(-0.0486026 -0.212007 1.92321e-17)
(-0.0646446 0.339261 1.24745e-18)
(-0.00432029 0.0671493 -1.26938e-18)
(-0.00275563 0.000748932 5.96739e-20)
(-3.54619e-05 2.89931e-06 -1.12088e-19)
(0.0544243 -0.00547834 -8.48214e-19)
(0.00117871 0.00082921 -7.08157e-20)
(0.000487258 -0.000159396 1.48886e-19)
(0.041818 0.0296617 -2.26316e-18)
(0.00220716 0.0222737 -1.87235e-18)
(0.0429117 0.0759289 -3.87341e-19)
(-0.000873598 -0.000106781 -5.77379e-19)
(0.0335802 -0.0526366 1.24094e-18)
(0.00012299 7.82031e-06 -1.13318e-19)
(0.000600858 0.00236618 -1.04484e-18)
(-4.77815e-05 2.3514e-05 1.60211e-19)
(-0.0155171 -0.215552 8.37896e-18)
(0.138438 -0.0245248 1.40787e-19)
(0.0412899 0.103366 2.06769e-19)
(-5.61074e-05 -3.33453e-06 3.81897e-19)
(-0.0441495 -0.1865 -4.28271e-18)
(-0.0193772 0.00920444 -4.49345e-18)
(0.000133538 2.49483e-05 -1.61123e-20)
(-0.00122081 -0.00244014 -9.80749e-19)
(-5.59957e-05 5.05106e-06 -4.36205e-19)
(-0.0749729 -0.0154411 -1.38223e-18)
(-6.67366e-05 1.73465e-07 -2.93803e-19)
(-6.3677e-05 -4.11512e-06 -2.84565e-19)
(-0.0630083 -0.389141 -5.74393e-19)
(-0.00190817 0.00389845 2.32117e-18)
(0.000545554 -0.000129978 -9.06422e-20)
(0.000168633 -6.55802e-05 1.00471e-20)
(0.00119264 -0.000779412 -9.76045e-21)
(0.00302317 -0.00167234 9.0081e-20)
(0.0735474 -0.0758358 3.18651e-18)
(0.0504964 0.0733308 6.65918e-19)
(1.38551e-05 1.25552e-06 1.90431e-19)
(0.00705747 -0.0921153 -1.79104e-20)
(-4.57743e-05 1.76888e-05 -3.77075e-20)
(0.00414174 -0.00135539 -6.98067e-20)
(-0.039433 -0.00402421 1.13203e-17)
(2.39763e-05 1.48741e-05 2.78139e-19)
(-0.134158 -0.559223 1.09562e-17)
(9.95149e-06 1.80268e-06 6.37962e-20)
(0.00315772 -0.00201953 2.22593e-19)
(-2.28767e-05 -7.37913e-06 -2.8948e-19)
(0.0998988 0.00731357 -8.00847e-19)
(-0.00435037 0.00108952 -9.25298e-19)
(6.93666e-05 0.000127323 3.18003e-19)
(-0.0321957 -0.216189 1.64058e-17)
(0.029295 0.00502914 -5.35031e-19)
(4.43539e-05 0.000123692 3.23782e-20)
(0.00053659 0.00335868 1.0624e-18)
(-0.00238467 -0.00251716 1.12647e-18)
(0.000151834 -3.07742e-05 -1.3643e-19)
(-6.83698e-05 -1.06756e-05 -5.00032e-20)
(0.000135189 2.03745e-05 -2.16271e-20)
(0.0943908 -0.0738212 1.02846e-18)
(0.239901 -0.0101463 -5.37752e-19)
(0.000293478 0.000318048 -2.01616e-19)
(0.00635916 0.00964133 6.49021e-19)
(-0.0531693 0.0194592 -3.56212e-18)
(-0.107967 0.0949916 1.35574e-18)
(0.00525834 0.065616 3.92581e-18)
(0.0731787 0.122093 4.50035e-18)
(0.00992177 0.0839362 -1.0527e-18)
(-0.000332989 0.000177944 2.23089e-20)
(-0.00238612 0.0615191 1.74251e-18)
(0.0163285 -0.0377439 -6.74946e-19)
(0.00250552 -0.0101498 2.20617e-19)
(0.00130916 -0.000486401 2.39586e-19)
(0.00485243 0.155924 -2.42232e-18)
(0.0241382 -0.00597446 -1.0331e-18)
(0.00774548 0.00222113 -5.95791e-20)
(-4.90338e-05 -2.6873e-05 3.34018e-19)
(0.000188869 4.59857e-05 1.38224e-19)
(0.000123481 3.23157e-05 4.86113e-19)
(2.30362e-05 1.4743e-05 3.19401e-19)
(0.00012296 3.33729e-05 -5.21435e-19)
(2.04391e-05 5.46648e-06 1.25659e-19)
(0.0079971 -0.0480406 1.22974e-19)
(2.67818e-05 -2.42124e-07 2.6066e-19)
(-4.26467e-05 6.69733e-06 -5.34631e-19)
(-0.0189498 0.00664184 -3.30093e-18)
(0.000176679 -2.85893e-06 1.43163e-18)
(-3.34377e-05 -5.34452e-06 -2.01134e-19)
(-0.000375697 0.000194916 -3.39626e-19)
(-0.0021079 -0.00216449 -1.89432e-19)
(0.0220277 -0.00776431 1.05466e-18)
(-0.043173 0.115891 -8.09746e-18)
(8.57313e-05 -0.000153787 2.26422e-18)
(0.0256466 0.0341942 -4.79153e-19)
(4.64601e-05 1.14061e-05 2.09855e-20)
(-0.0012457 0.00445145 -7.1269e-18)
(-0.0519807 0.0405657 4.90935e-18)
(0.270773 -0.0113539 -1.54397e-17)
(0.060044 -0.0353303 6.78631e-19)
(0.000153585 3.14959e-06 5.07942e-20)
(8.62467e-05 0.000157762 2.99928e-19)
(0.248884 -0.0174477 -1.85203e-18)
(-0.05661 -0.183115 -3.14981e-18)
(0.0123038 -0.00606665 -5.68483e-19)
(-0.000703309 -0.000264068 4.01315e-19)
(0.089027 0.0664228 -2.85729e-19)
(-0.0275808 -0.128845 -1.03448e-18)
(5.03997e-05 0.000112122 -6.48171e-21)
(4.9879e-05 1.52568e-05 -1.09854e-20)
(-0.155954 0.386045 -7.30514e-18)
(-0.0020285 -0.000930725 -1.92381e-20)
(-0.0295566 0.0250734 -7.41724e-18)
(0.0110224 -0.00794408 3.09531e-19)
(-0.00180581 -0.0027579 1.26608e-18)
(0.00701985 0.00933876 -4.53665e-18)
(0.000131821 -3.54254e-05 -2.13439e-19)
(0.000176049 -0.000101946 9.06998e-19)
(0.000141563 -4.08866e-06 -1.36096e-19)
(-2.11319e-05 5.16622e-06 -4.70747e-20)
(4.01486e-05 -0.000120498 4.67271e-19)
(0.000125315 1.14116e-06 -2.2283e-19)
(0.0221707 -0.184755 -6.1601e-18)
(-7.99242e-05 6.69139e-05 -5.00539e-19)
(0.0587077 0.0481675 2.70638e-19)
(-0.0483303 0.0114865 4.54113e-18)
(4.83512e-05 0.00012692 -2.4404e-20)
(-7.94354e-05 6.87795e-05 6.38383e-19)
(2.9855e-05 -1.13996e-06 7.63609e-21)
(0.00225756 0.00350046 -4.00833e-19)
(-0.0074717 0.00537134 2.73731e-18)
(0.0474879 0.0874338 -5.53887e-19)
(0.000225826 0.000128143 -8.59092e-19)
(0.0212298 -0.18778 -5.81012e-18)
(0.00775099 -0.00438559 1.34006e-20)
(0.00167621 -0.00988506 -3.89674e-19)
(3.48767e-05 -0.000289277 -1.47965e-19)
(-0.00133658 0.00118863 -3.06549e-19)
(-0.00234089 0.00029955 -2.93624e-19)
(0.000360624 0.000345207 4.94962e-19)
(0.000330868 0.000334899 -2.83088e-19)
(0.0514307 -0.090741 3.02522e-17)
(-0.257502 0.419666 -8.56672e-18)
(0.000131292 -2.74902e-05 1.08328e-19)
(5.6916e-05 -0.000104675 4.13526e-19)
(0.000255656 0.000589619 2.9202e-18)
(-0.00720513 0.217831 1.46854e-17)
(-4.91393e-05 3.1235e-05 1.71402e-19)
(-0.000118183 0.000300169 1.78801e-19)
(1.82503e-05 3.87258e-06 1.04073e-19)
(-4.34577e-05 8.34076e-06 8.81197e-21)
(6.32756e-05 -0.000106637 9.98477e-19)
(-3.90531e-07 -0.00024527 6.4251e-19)
(-0.00132813 0.000185051 -1.73427e-18)
(0.000151037 -3.55318e-05 8.80909e-20)
(0.00930581 0.0368071 -1.76e-18)
(0.000219996 0.000124723 1.38431e-18)
(-0.000579328 0.000433217 -4.80386e-20)
(0.0421209 -0.0322562 2.22917e-18)
(0.268496 0.00115097 1.12327e-17)
(0.00644601 0.000342915 -6.75614e-19)
(0.000748461 -0.000537189 1.00715e-19)
(0.000223548 5.13439e-05 -4.01669e-19)
(-1.96372e-05 -2.98184e-06 3.08764e-20)
(0.00016993 -7.00342e-05 -2.44729e-20)
(0.00258599 0.000672096 -4.39386e-19)
(0.0277209 0.0467186 -1.37372e-19)
(0.0425463 0.00791006 1.00601e-19)
(0.000158792 0.000591254 -1.98073e-18)
(-0.0895064 0.079431 8.17744e-19)
(0.000215813 3.40273e-05 6.25367e-19)
(-0.00202444 0.00789576 -6.41374e-18)
(0.000672504 -0.000776955 -1.55878e-19)
(-5.70149e-05 1.0646e-05 -2.50982e-19)
(-0.0114075 0.0101511 4.69712e-19)
(3.07326e-05 0.000173653 1.74009e-21)
(-1.91026e-05 3.63268e-06 2.73253e-19)
(0.0221761 0.165707 3.51456e-18)
(-8.58174e-06 -8.51336e-06 4.18838e-19)
(0.000163932 0.000952827 -2.7931e-18)
(-0.0269997 -0.0564805 -5.95954e-19)
(-1.28642e-05 -1.76972e-05 9.08399e-19)
(0.00014124 0.000178873 3.96609e-19)
(-0.0158542 -0.212313 -6.47416e-18)
(-0.000437034 0.000177842 2.84445e-19)
(-5.26664e-05 -0.0532429 -5.0204e-19)
(0.018892 -0.00712558 3.15241e-19)
(-6.28878e-05 3.87299e-06 -9.89051e-19)
(-2.78375e-05 -7.0577e-06 1.32055e-19)
(-0.00441402 -0.022881 1.29724e-18)
(0.00117156 -0.00146534 2.25489e-19)
(-0.00685529 0.00621614 1.68465e-18)
(0.000176125 -8.29871e-05 4.88743e-19)
(-0.0873898 -0.0289652 -1.68452e-18)
(-0.082811 0.118708 6.44782e-18)
(0.0265497 0.0881235 2.10264e-18)
(0.000137082 -1.30262e-05 -8.07382e-20)
(-0.00879402 -0.123927 -4.35692e-18)
(-4.27264e-05 8.16969e-06 -3.58667e-19)
(-6.27829e-05 3.39231e-06 4.44985e-20)
(0.000201015 9.93535e-05 -2.86007e-19)
(0.00539085 0.00217976 4.28381e-19)
(-0.0253174 -0.264495 1.60179e-18)
(0.0523549 -0.0278821 1.95498e-18)
(-0.000533957 0.00112443 9.42306e-19)
(4.12327e-05 0.000869032 6.50539e-20)
(0.00308583 -8.49122e-05 6.67613e-19)
(0.0192451 -0.0765595 -7.04705e-19)
(0.0746198 0.0547578 1.41408e-19)
(0.000131473 7.79945e-06 -3.05221e-19)
(-0.00183104 0.0148229 1.43874e-19)
(0.000924626 0.00239112 -4.13072e-18)
(-0.0276495 -0.218433 -1.3595e-17)
(0.00675968 0.000351963 -3.82872e-19)
(0.0135253 -0.00674477 -6.79182e-19)
(0.000145739 4.13991e-05 -4.91828e-19)
(0.00580535 0.00119258 2.28907e-19)
(0.00536747 0.022799 -1.93419e-18)
(-6.45555e-05 4.2893e-06 5.93841e-19)
(0.000145828 4.16875e-05 4.33893e-19)
(-5.23039e-05 3.72951e-05 2.39256e-19)
(0.000134046 -2.7794e-05 1.31528e-18)
(0.00527679 0.000864659 -8.12706e-19)
(0.0306557 0.0587086 -1.16108e-18)
(-0.0323163 0.0377191 1.40608e-19)
(0.0456328 0.12642 -9.46484e-18)
(0.0116382 -0.00835879 -4.26269e-19)
(-0.00210713 -0.00355004 -4.32834e-19)
(0.000209447 0.000108632 2.58133e-19)
(0.000114535 -7.85055e-05 5.24103e-19)
(0.0714847 0.0394551 -5.03094e-19)
(-0.0495348 -0.0344249 4.30396e-19)
(-0.000446528 0.000264222 2.67153e-19)
(-0.0013011 0.0151792 -2.02343e-18)
(-0.00919686 -0.207716 3.57816e-18)
(0.0414515 -0.0967661 1.31108e-17)
(-4.13592e-05 2.43031e-06 1.34005e-19)
(-2.19057e-06 1.87148e-06 -8.45267e-21)
(-0.00663726 -0.0271551 1.07013e-19)
(-0.0363017 0.0154465 -2.26701e-18)
(-4.17222e-05 1.3042e-05 1.39383e-19)
(0.0294563 -0.0124189 -2.93377e-19)
(0.000298738 8.5389e-05 6.23511e-20)
(0.000165534 -3.38908e-06 -7.32188e-20)
(-0.000785226 0.00573239 -3.38207e-18)
(0.000128907 2.4813e-05 -2.28532e-20)
(0.000319136 0.000336036 -2.31342e-19)
(0.000923199 -0.00169163 8.32792e-19)
(0.000129629 2.39507e-05 -2.35421e-20)
(-0.000326375 -0.00236177 7.11675e-19)
(0.0323647 0.069179 2.04189e-19)
(-0.0105162 0.0108261 -7.7829e-18)
(-0.0224632 -0.215319 -1.74383e-18)
(0.000922917 0.00129203 2.60564e-19)
(5.07694e-05 -0.000110765 2.31246e-19)
(0.120407 0.00641648 -2.19465e-18)
(-0.000148747 0.000299674 -1.36571e-19)
(0.13035 -0.00490238 -5.25719e-19)
(0.00749865 -0.217162 6.83449e-18)
(0.000302906 6.62965e-05 1.33583e-19)
(0.0413895 0.0423292 -4.60982e-18)
(0.00105058 -0.00297581 -2.18258e-19)
(0.000940896 -0.00056498 2.11678e-19)
(0.0201274 0.0450488 -2.24584e-18)
(0.00151702 0.0980607 5.54739e-21)
(0.00847735 0.093127 5.39676e-19)
(0.0961968 -0.0730302 2.72453e-19)
(0.00101307 -0.00130243 2.66121e-19)
(0.084667 -0.0259955 1.51272e-18)
(-8.66082e-05 6.88071e-05 -1.53866e-19)
(0.0271775 -0.0703122 3.55547e-19)
(-0.0270094 -0.170248 -4.19006e-17)
(0.00466326 0.0146285 1.49636e-18)
(-7.93053e-05 0.000888868 7.23686e-19)
(0.0433969 0.116823 9.63732e-18)
(0.000956002 0.00219886 1.12807e-18)
(-0.0400424 -0.0144592 1.62538e-18)
(-0.155646 0.148549 1.81231e-18)
(0.197248 -0.0833701 -3.14297e-19)
(0.000148608 0.000198703 1.18423e-19)
(0.018542 -0.0930862 2.17682e-18)
(-7.36674e-05 9.24791e-06 2.99756e-19)
(-0.000556851 0.0164577 4.71109e-19)
(-0.00675714 0.041628 3.93932e-18)
(1.2108e-05 -1.31321e-05 1.41101e-18)
(0.00544879 0.00580423 -8.21757e-20)
(-0.0373241 -0.0170988 2.81609e-18)
(0.00748422 -0.0542945 -6.14712e-19)
(-0.0045488 -0.00407453 1.29173e-18)
(-0.00152281 0.000123228 1.86192e-18)
(-4.06333e-05 7.62276e-06 9.97365e-20)
(0.00064698 0.000151524 -1.36546e-18)
(-0.00373872 0.00121028 6.85932e-19)
(-0.00308735 0.0141197 -6.60148e-19)
(4.53436e-06 -0.0532431 -1.14273e-18)
(-1.07918e-05 -0.000124888 -1.05143e-18)
(0.116273 -0.0021794 5.38071e-19)
(-0.00203113 -0.00307901 7.3398e-19)
(0.000482555 -1.03688e-05 5.64999e-19)
(-0.00054783 0.00321543 8.00771e-18)
(-5.65464e-05 3.19706e-05 2.29712e-19)
(-0.0125085 0.00727826 -7.54686e-20)
(0.000166362 1.4127e-05 -2.29735e-21)
(0.000134209 -3.05379e-05 -4.10766e-19)
(-0.215752 0.386392 -6.05101e-18)
(0.000126897 -4.4384e-05 -6.48503e-19)
(0.000309822 0.00194449 9.3981e-19)
(0.0639973 -0.0215024 2.70901e-19)
(-0.020105 0.0102052 2.47955e-18)
(-0.0212016 0.00316863 3.89324e-18)
(6.14789e-05 0.000111484 1.98185e-19)
(0.000491011 0.000121302 -8.18912e-19)
(0.0260922 0.00536356 -3.8727e-19)
(0.000421133 0.000162049 1.72161e-22)
(-0.0287778 -0.00175154 -1.15787e-18)
(0.000227082 0.00202245 -7.00629e-19)
(-0.00223419 -0.00116099 1.40656e-19)
(0.000986718 0.000646583 -2.08727e-18)
(0.000368368 -0.000121496 2.56644e-19)
(-4.06767e-05 1.09679e-05 -7.9453e-20)
(-0.0429919 0.274205 7.29975e-18)
(-5.58163e-05 3.08118e-05 -2.93851e-19)
(0.358677 0.00846985 -1.74595e-19)
(-0.0255751 0.0995035 -2.79635e-19)
(0.00011539 0.000595496 3.57074e-18)
(-0.0983749 0.0623334 -3.0249e-18)
(-6.22882e-05 1.41148e-05 2.01014e-19)
(0.00890042 1.87335e-05 -7.34144e-19)
(-0.00410651 -0.00374093 6.07932e-19)
(-0.150254 0.212403 3.50062e-18)
(2.34069e-06 0.00183414 1.64574e-18)
(0.0300023 0.072199 4.63988e-19)
(0.0334619 0.0225622 4.18805e-18)
(-1.69008e-05 1.81826e-06 -1.22212e-20)
(0.064995 -0.0286057 3.79852e-20)
(9.00172e-07 -4.62062e-05 1.73149e-18)
(-0.161451 0.162489 8.52277e-19)
(0.00045992 0.000167989 1.12962e-19)
(0.000492673 0.000350078 -1.25607e-18)
(-0.190006 -0.0556883 -3.79992e-19)
(0.0671243 0.00132825 -1.10796e-18)
(0.000162385 -1.09119e-05 7.10017e-20)
(-3.92123e-06 9.11988e-06 1.53233e-19)
(0.00134383 -0.000672847 -2.15937e-19)
(4.51103e-05 -0.000116961 -1.20839e-18)
(6.12149e-05 0.000114734 2.21319e-19)
(0.0248914 0.110203 -4.06904e-19)
(0.120262 -0.10315 1.38401e-17)
(-0.000349239 0.000232493 4.09039e-19)
(3.92796e-05 -0.000104447 1.87855e-19)
(6.58593e-06 -4.21189e-05 -5.29105e-19)
(0.0703209 -0.0920122 -2.51568e-18)
(0.0497908 -0.0310368 -2.48456e-18)
(0.0156636 -0.015704 5.32651e-19)
(0.000134669 1.25209e-05 2.08247e-19)
(0.00371482 0.0169185 9.41968e-20)
(0.000483023 0.000335901 1.72191e-18)
(0.000522443 9.57121e-05 1.01033e-18)
(-0.00156723 0.00438097 7.42352e-19)
(0.0651344 -0.0329219 5.37216e-18)
(0.000129597 2.16484e-06 1.96331e-19)
(-0.00246798 0.0153047 3.24266e-19)
(-0.0222791 0.172215 -3.44478e-20)
(-0.00192298 -0.000497411 -1.92564e-19)
(0.0298994 -0.00104975 2.62767e-20)
(0.000139595 0.000235638 -4.55273e-19)
(0.00681241 -0.000765846 1.16613e-18)
(0.000128935 3.14619e-06 1.70759e-19)
(-0.000422132 0.000340872 -4.91276e-19)
(0.000781584 0.00360581 -5.77673e-19)
(0.000499781 -6.06899e-05 1.95889e-19)
(0.0036555 0.0236626 4.14499e-18)
(2.48562e-05 1.91291e-05 1.98731e-19)
(-0.0522229 -0.159591 1.31887e-19)
(0.000128699 -1.54607e-05 -3.42767e-19)
(0.000296742 0.00217031 -1.4957e-18)
(-0.00228551 0.0370247 -2.6327e-18)
(0.0152361 -0.0474336 3.34551e-18)
(0.000682558 0.0161983 -5.4447e-19)
(-3.04525e-05 1.98223e-06 9.43104e-20)
(0.000334643 -0.000123585 -6.20638e-19)
(0.0129919 0.0727949 4.26878e-19)
(0.00663507 0.0195851 -2.13233e-19)
(-0.0346852 -0.0153321 -1.78094e-18)
(0.000148895 -8.34834e-05 -2.33993e-19)
(0.000227223 9.9708e-05 -9.93644e-19)