/*--------------------------------*- C++ -*----------------------------------*\
| =========                 |                                                 |
| \\      /  F ield         | OpenFOAM: The Open Source CFD Toolbox           |
|  \\    /   O peration     | Version:  v2012                                 |
|   \\  /    A nd           | Website:  www.openfoam.com                      |
|    \\/     M anipulation  |                                                 |
\*---------------------------------------------------------------------------*/
FoamFile
{
    version     2.0;
    format      ascii;
    class       volScalarField;
    location    "350";
    object      p;
}
// * * * * * * * * * * * * * * * * * * * * * * * * * * * * * * * * * * * * * //

dimensions      [0 2 -2 0 0 0 0];


internalField   nonuniform List<scalar> 
18758
(
0.00350602
0.00140885
0.0033837
0.00339884
0.00782266
0.000555718
-0.000328641
-0.00348708
0.00778886
0.00789217
0.00351653
-0.0298185
0.0106991
-0.0126462
-3.7627e-05
0.000727629
-0.031943
5.28545e-05
-1.55034e-05
0.00530238
-0.00917763
-0.0981698
0.000622235
0.00131639
-0.104128
-0.0796962
-0.0469293
0.0185937
-0.0283151
-0.00106748
-0.0239568
-0.0537523
-0.00348345
-0.128612
0.00772116
-0.000551086
0.0107463
0.00765769
-0.0316866
0.000507451
-0.0126201
0.00839745
-1.41827e-05
0.00396555
0.00171717
-0.0220535
0.00846227
-0.0226001
-0.120584
0.00393714
0.00304804
-0.107568
0.00390564
0.00731255
-0.0726429
0.0111169
0.0032484
0.00509213
-0.0195134
0.0032477
0.00200814
0.00392727
-0.0413734
-0.00063222
0.00210315
-0.125068
0.00361508
0.00212197
0.0210959
8.07883e-05
-0.105676
-0.0886849
0.00173415
0.00696581
0.0187223
-0.0198587
-0.0948863
-0.0255715
0.00800184
0.00337208
-0.0522081
-0.0330762
-0.0199564
0.0156066
0.00421021
-0.0683785
-0.0280964
0.00753167
-0.0474884
-0.0677898
-0.0972112
0.00121386
-0.0495758
-0.120047
0.00169659
0.00366786
0.000338364
-0.0268115
-0.039454
0.00338939
-0.0179888
0.00853002
0.00208578
0.00366904
-0.127249
-0.0109938
-0.0251539
-0.105076
-0.0681094
-0.00327538
0.000396582
-0.00840848
0.0063423
0.00356174
0.00857024
0.0221942
-0.0253077
0.00314697
0.0180438
0.00429614
0.00363794
-0.094355
0.00416591
0.0035737
-0.117938
0.00719985
0.00393814
0.00358496
-0.038022
-0.157298
-0.0219715
0.00310333
-0.00211926
-0.153682
0.000432742
0.00364421
-0.0739742
0.00420163
0.00375457
-0.0504403
0.00609775
-0.0111358
-0.0307114
-0.0861978
-0.121063
-0.0456601
-0.123197
-0.0373312
0.00251792
-0.00787025
-0.156107
-0.135376
-0.00721723
0.00725819
-0.0127712
-0.046692
-0.0480284
-0.0407666
0.014953
0.00217758
-0.0173561
0.00365283
-0.106778
-0.128155
-0.0177819
0.00317523
0.00363716
-0.035754
-0.155712
-0.0351846
-0.1237
0.00336224
-0.0283811
-0.000678094
-0.055732
0.00416095
0.00155281
-0.0781751
-0.126911
-0.0144187
0.00189235
0.00694253
-0.0709669
-0.018487
-0.00612652
-0.00227262
-0.00436329
0.00933776
-0.124559
-0.00721514
-0.134403
-0.00216613
0.0114051
-0.0643769
0.00136842
-0.0169244
0.00603981
-0.00695298
-0.126871
0.00202033
0.00358863
-0.0393256
0.00826672
0.000688141
0.000367731
-0.107312
0.00426914
0.00739873
-0.161169
-0.153638
0.00221062
-0.0476379
0.00368468
0.00544561
0.00459924
0.000397669
0.000190526
-0.0477195
0.00061761
-0.00656031
-0.054563
0.00347932
-0.0293332
-0.0377406
0.0107017
-0.0127604
0.0193518
-0.0717455
-0.0265721
0.0042522
-0.075772
-0.0441575
-0.0513422
0.00368144
0.00238221
0.00348078
0.0259538
-0.119441
0.00792294
-0.00288554
0.000248349
0.0246104
0.0024357
0.00279184
-0.00869545
-0.0198305
0.00225542
0.00378491
0.00318075
0.00347911
-0.121552
0.00400378
-0.0028436
0.00347686
0.000405767
0.00336053
0.00318519
-0.0922376
-0.000173649
-0.0729567
0.00616872
0.00360873
0.00221032
0.0109766
0.0131194
0.0105745
0.00362583
0.00188711
-0.00747657
0.00468917
0.0209624
-0.138384
0.00456494
0.00416507
0.00111728
0.00436226
-0.00920272
0.000595548
0.00555691
-0.0120767
0.00377314
0.00296454
-0.000144828
-0.13608
-0.000248568
0.00414758
0.000185895
5.88455e-05
0.00369946
0.00367897
0.00283138
-0.0137243
0.00325177
0.00275829
0.00261414
0.00317264
-0.0129298
0.00123373
0.00135616
-0.105455
-0.0198393
0.00336126
0.00331341
-0.0318667
0.00519808
0.00185057
0.00389795
-0.0180812
0.00392043
0.0107233
-0.000236775
0.00197758
0.00374947
-0.00180571
-0.0303693
-0.124291
0.00200478
-0.0342296
-0.0396445
0.00351589
-0.00134723
0.015
-0.00353642
0.00283688
0.00204052
-0.15514
-0.00306717
0.00400842
-0.117889
0.022528
0.00616545
-0.160256
0.00280961
0.00318345
-0.000256156
0.00354415
0.00437499
0.0037409
-0.00394778
0.00433187
0.00411935
-0.00379747
-0.109447
-0.0304479
0.00422062
-0.0305821
-0.0358874
0.00399388
-0.0288282
0.00480566
-0.097414
-0.00613402
0.0174541
-0.00227276
-0.122812
-0.0593449
0.00977427
-0.00393033
0.00616979
0.00553797
0.00397652
0.00570284
-0.0715776
-0.0024933
0.0185986
-0.0689023
0.00233334
-0.0221043
0.00708919
-0.0241941
-0.119378
0.0204535
-0.0377331
0.0340291
-0.0106859
0.0190227
0.000291592
-0.114417
-0.0397717
0.00448218
-0.00204181
0.00360063
0.00129717
-0.0977718
-0.00613716
-0.0249653
0.0203423
-0.120455
-0.00321001
-0.0371244
-0.000568401
0.000622793
-0.0104894
0.00500625
0.0037707
0.00370086
0.00560749
-0.00340714
0.00298944
0.00296575
0.00314107
0.00628315
-0.0418042
-0.030317
-0.0311528
-0.0325626
-0.118922
-0.0418085
-0.0297381
0.00317509
0.00123758
-0.00341997
-0.00999385
-0.00225421
-0.0722769
-0.0222962
0.00573303
0.00321421
-0.100765
0.00184812
-0.0200013
0.00165259
-0.127335
0.00421232
-0.010805
0.00264293
-0.150148
-0.0521407
-0.000368309
0.00365184
0.00203478
-0.0332914
0.00239709
0.00274808
-0.0147732
-0.0312782
-0.00255145
0.00153763
-0.00199475
-0.00112559
-0.0244413
0.00921345
0.00091958
-0.11053
0.00161217
0.00370959
-0.0712943
-0.00174588
-0.0271122
0.000778227
-0.000488675
0.00318473
0.0207909
0.00326532
-0.003243
-0.118303
0.00465283
0.000178416
-0.0213474
0.00631942
0.000661558
0.00315729
-0.000614568
0.0203506
-0.0601297
-0.0074189
-0.0137605
-0.0997225
-0.0744779
-0.0370205
-0.014638
-0.0319171
0.00309381
-0.0284494
0.0239304
0.00825011
-0.00297797
-0.00927239
0.00486032
0.00625025
0.00328687
-0.00025158
0.00377396
-0.00166304
0.00377376
-0.00139801
0.00681375
0.00343073
0.00144479
-0.0543275
0.00291891
0.00313495
0.00069698
0.00630176
0.00496297
-0.012729
0.00431211
0.00406621
0.000141466
-0.0289835
-0.0586206
-0.0460486
0.0343025
0.000173019
-0.00240473
-0.0602711
-0.154742
0.00432662
0.00324706
0.00840845
-0.129117
0.000135797
5.95887e-05
-0.0147175
0.00441431
-0.0501367
0.00464042
0.00360959
-0.01242
0.00380092
0.00404762
0.000988651
0.00103072
0.00421312
0.00166674
-0.0332665
0.00198113
0.00702527
-0.0976242
0.000138983
0.00196983
0.00346881
-0.0158478
0.00840857
0.00732491
0.00331677
-0.00283116
0.00328046
0.00811008
0.00378751
0.0031476
0.0031365
-0.00706275
-0.00701722
-0.0778366
-0.00761058
0.00375975
0.00419363
-0.0131865
-0.0410073
0.00169375
0.000357682
-0.00135635
0.00149674
0.00410402
0.00377038
0.00435317
0.000745583
-0.0181781
0.00321122
0.000507852
0.0295229
-0.0385017
0.00596806
0.00395888
0.00383624
0.0031952
0.00104927
0.00431408
0.0070609
0.005215
-0.0141146
-0.0217984
0.00386184
-0.0296711
0.00393365
0.0018987
-0.0437229
0.000168386
0.00103797
-0.0436204
0.00330169
-0.0170913
0.0167127
0.00334747
-0.00151275
-0.125154
0.00311734
0.00449138
0.00436927
0.00298322
0.00326981
0.0148122
-0.000370977
0.00844337
0.0040948
-0.0634287
-0.0223024
-0.0257469
0.00382042
-0.101381
0.00132995
0.0022307
0.00285579
0.00400551
-0.00933569
0.03
0.00344437
-0.0175143
0.0043006
-0.097855
0.0092881
0.00165269
0.00383478
-0.0181589
-0.119303
-0.00310131
0.00628492
0.00401175
0.00415409
-0.019063
0.00297039
0.00402728
0.00173401
0.00392208
-0.00536963
0.00949763
-0.00200429
-0.0414186
0.00610563
0.00658642
0.00296556
0.003747
0.00661082
-0.0954149
0.000645792
-0.0267872
-0.139179
-0.0818016
0.00210842
0.000962792
0.0160808
-0.0312199
0.00126143
0.00543388
0.00403469
0.00303683
-0.0271313
-0.000438129
-0.00741551
0.00396073
0.00376306
0.00378074
0.00881034
-0.0419631
-0.0341313
0.00543664
0.00412139
0.018839
0.000406345
0.0194324
-0.0330127
0.00414879
-0.0682927
0.00397231
0.00399874
-0.085259
-0.00275807
-0.0020769
0.0179141
-0.000496625
-0.0495918
0.00204212
-0.111239
-0.111997
0.00949404
0.00347424
-0.030535
-0.0176161
0.0113403
-0.00877781
0.0109776
-0.00631733
-0.0447386
0.00204906
-0.0254774
-0.0296323
0.00343068
-0.0124871
-0.0865965
0.00527943
0.00705924
0.00446032
0.00142276
-0.00440846
0.0032041
0.00918853
0.0214131
0.00411623
0.0214349
0.00656971
0.00471701
-0.0262729
0.00176106
0.000376085
-6.29229e-05
0.00393674
-0.00510743
0.00374374
0.00556655
0.00165263
-0.0519706
-0.059223
-0.00267256
0.00440558
0.00583257
0.00400562
-0.0301481
-0.020808
0.0045996
-0.00937398
0.00478778
0.00133904
-0.0283446
0.00174676
-0.0046095
-0.0414858
-0.014543
-0.109724
0.00188071
0.00624059
0.00664651
-0.0522738
-0.0217284
0.00621562
-0.0165254
0.0015365
0.0028518
0.00340074
-0.0065779
0.00415049
-0.00641509
-0.155374
0.000685259
0.00026554
0.00240954
-0.0024985
0.00376052
-0.00254779
-0.00523673
-0.0954164
0.00350392
0.00374792
0.00341257
-0.0358863
0.0313722
0.00611283
0.00377873
0.00424449
-0.00606078
0.00451964
-0.0301384
-0.0334484
0.00156972
-0.0284663
0.00468756
0.00111977
0.00500441
-0.00279621
-0.00156599
0.00158976
0.0031155
-0.0209885
0.00483273
-0.0209081
-0.00156658
-0.147714
0.00327777
-0.0208942
-0.0267353
0.00746721
-0.0238376
0.00119601
0.00474051
-0.0226137
0.00425097
0.0115738
0.0034342
0.00359258
0.00647452
-0.101046
0.00124206
0.00350801
0.000449311
-0.00080379
0.00232934
0.00394979
0.00166392
0.00334669
-0.0288782
-3.16753e-05
-0.00161135
-0.0209753
0.00382796
-0.0232147
0.0227834
-0.10605
-0.00211503
-0.0207134
-0.0938525
0.00140626
0.00357841
0.00487774
0.00349448
0.00169915
0.00333034
0.00320323
-0.00452115
0.00574633
-0.0600901
0.00472637
0.00305759
0.00336159
0.00307405
0.00655322
0.0083544
0.00223258
0.00544622
0.00309626
-0.118143
-0.0368743
-0.0346961
0.00360645
-0.0261052
-0.0324062
0.00539835
-0.104717
-0.0513381
0.00352228
0.00107799
0.000463121
-0.125633
-0.000634916
0.00231838
-0.00323873
-0.0869168
0.00120284
-0.00410303
0.00304317
-0.00038254
0.00222333
-0.000592182
0.00474176
8.18788e-05
0.00651458
-0.00965649
0.00121602
-0.000448551
-0.0485889
-0.114422
0.000159312
-0.0112232
-0.0904832
0.00492934
0.00346099
0.00349337
0.000149087
0.00526074
0.00491515
0.00312321
-0.00665473
0.00641514
-0.00190149
-0.151392
-0.00824563
0.00313058
0.00477878
-0.0358159
-0.00663644
0.00227178
-0.0328648
0.00151679
-0.0122286
-0.0200854
-0.00181738
0.00356102
0.00371124
0.00575769
-0.0423607
0.00318901
-0.023293
0.00886176
-0.0250844
-0.0433529
-0.000830318
0.00963678
0.00202716
0.00831459
-0.0142444
0.00455783
-0.0633527
0.00537391
0.00526929
-0.0180684
-0.0802507
0.00199746
-0.0264601
0.002265
-0.000423134
-0.00549261
0.0064889
0.00354013
0.00412032
0.00202119
0.00410206
-0.0436066
0.00374446
0.0017681
0.00359236
-0.145721
0.00483164
0.00351047
-0.00857013
0.00356575
-0.0394425
0.0042268
-0.0363358
0.00410507
0.00163288
-0.00197044
0.00758863
0.00361569
0.0041419
-0.0125914
0.0030807
0.00122189
-0.00151884
-0.0046554
-0.0190588
0.00188892
-0.0540619
-0.0176663
0.00158878
0.00127523
-0.079017
0.0044796
-0.115286
-0.0355103
0.0037363
-0.00311479
0.00777518
0.00376759
-0.0133425
-0.0268659
0.00128706
-0.0639929
-0.000415098
0.00467786
0.000115933
0.00522705
0.00659076
-0.04663
-0.000580654
0.00270664
0.0062362
-0.0169637
-0.0419779
0.00600855
0.00426559
-0.115891
-0.000470475
0.00123231
-0.117639
0.00363476
-0.016696
-0.0491807
0.00348703
0.00383668
-0.00133245
-0.0414576
0.0039835
-0.0439332
0.0037369
-0.0299415
-0.0693856
0.00320971
0.00128785
0.00117056
-0.0217228
0.0014935
0.00418131
-0.0528957
0.00290805
0.00163346
-0.0643371
-0.00103959
-0.0936617
0.0039817
-0.0103057
0.00286986
0.00400964
0.00265553
0.00400346
0.0211878
0.00611172
0.0103188
-0.0084425
0.00564269
4.29898e-05
-0.0221828
-0.000743856
-0.0487314
-0.00134725
-0.0242172
-0.016957
0.00112567
0.00320858
0.00323852
0.00195155
-0.136966
0.00100995
-0.0321718
0.018079
-0.00163901
-0.0255959
-0.000673054
0.00373601
0.00573604
0.00405777
-0.0216558
0.00427285
0.00385467
0.00371285
-0.0133501
-0.0573102
-0.0520477
0.0042107
0.00350142
0.00355982
0.00547659
0.00196889
0.00326434
0.0028938
0.00130121
0.0031145
0.0031694
-0.0821144
-0.0478394
0.00293786
0.00309293
0.0372159
0.00583751
-0.0240246
-0.0460384
-0.00517874
-0.10441
0.00341519
0.00317102
0.00313758
-0.000841849
0.00433074
0.00315943
-0.012578
-0.0238006
0.0028682
0.0382021
-0.0867545
-0.0691488
0.00843876
-0.00434885
-0.00361048
-0.0290826
0.00306764
0.00301162
-0.016779
0.00467654
0.00313211
0.00327668
-0.12242
-0.0224801
0.00361607
0.00313859
-0.0111089
0.00274313
-0.00323916
-0.021811
0.00383509
0.00890977
0.00369417
-0.00673548
0.00489594
-0.0222801
-0.00982963
-0.000188588
-0.0367224
0.00126547
0.00310743
0.00248233
-0.00833088
0.00354856
-0.022034
-0.0336735
-0.0336433
-0.0117625
-0.0205107
-0.00844038
0.00361087
0.00385074
-0.0358662
0.00378573
-0.0126761
0.00294026
-0.00367247
-0.00852947
0.00577972
0.0201709
0.0312164
0.00303555
0.00335254
0.0112457
0.00373654
-0.00814918
0.00325524
0.00316166
0.00342413
0.00744161
0.00666995
-0.0119992
-0.154426
0.00303963
0.00335808
-0.00359975
0.00593188
0.00309994
0.0293336
0.00548634
0.00381035
-0.0384572
0.0198893
0.00881525
0.00236455
0.00360289
-0.00245856
0.00389758
-0.0326772
0.0218066
-0.131126
0.00589234
-0.0143615
0.00550523
-0.10754
-0.0831829
-0.0864601
-0.0629865
-0.0289532
0.00817341
0.00439155
-0.0202346
0.00914471
7.69273e-05
0.00216581
0.00434273
0.0111566
0.00353726
0.00239643
0.00478131
-0.00992423
-0.0205031
-0.0186546
-0.0438772
-0.0584191
0.00592108
0.00558175
-0.000430028
-0.0155646
-0.0143398
0.000407479
-0.00749515
-0.0304382
-0.12052
-0.135552
0.00261361
0.019624
0.00169157
-0.120227
-0.00949868
-0.0285088
0.00185254
0.0085578
-0.0524493
-0.0234017
-0.00293211
0.00163247
-0.0144039
0.00647388
-0.0821413
0.0052812
0.00315147
0.00591158
-0.0265319
-0.00120095
-0.0177756
-0.00524552
-0.0240751
0.00486337
0.0046172
0.0111024
0.0204076
-0.0832139
0.0016819
0.00953234
-0.0642832
-0.0115515
0.000526301
-0.00709662
-0.0166666
0.00246098
-0.000656202
-0.000918714
0.00358278
0.00354612
-0.0859409
0.00821064
0.00344525
-0.0251115
-0.0112373
-0.0159434
0.000873758
-8.2302e-05
0.000510569
0.00491777
0.00397707
0.00370316
0.0101959
0.00363806
0.00691416
0.00363861
0.00378108
-0.0236881
0.00404799
0.00314243
0.0046214
0.00136708
-0.00878787
0.00365682
0.00373124
-0.0046067
-0.0535127
0.00410396
-0.0143124
-0.0736976
-0.0606173
-0.097571
-0.00380374
0.00375355
0.00360586
-0.0670455
-0.00946669
0.00346744
-0.0172969
0.00264771
-0.0242556
0.000113163
0.00362187
0.00371889
0.0040445
0.00479198
0.00207421
0.00564217
0.00556013
-0.00131517
0.00436606
0.000620897
-0.0182532
0.00345649
0.00365435
0.00322181
-0.111745
-0.0948132
-0.0450841
-0.154891
-0.0305303
0.0305214
-0.0932709
0.0040146
0.00962075
-0.0208007
-0.116011
0.00358261
0.0120257
0.0035469
-0.0356704
0.00167089
-0.0255706
0.00305715
-0.000543641
0.00058163
-0.0284773
-0.0149189
-0.0364796
-0.00625613
0.000210104
0.00316672
0.00306827
0.00581235
-0.00195939
-0.0964861
-0.00510751
0.00610035
0.00565867
0.00224268
0.00190498
-0.0494423
0.0132352
0.00160608
0.00318336
-0.0120151
0.00305808
-0.00200327
0.0034492
0.00476767
-0.00427667
0.00360881
0.00369937
0.00566855
-0.0163471
0.0192903
-0.00120564
-0.00765834
-0.0899436
0.00378113
-0.102663
-0.00796535
-0.0411924
0.000560116
0.00525671
0.00934069
0.022002
-0.0644676
0.00389261
0.0107304
0.000786595
0.00119572
0.00350687
0.00299044
0.00871332
0.00610665
-0.0166926
0.00775618
0.00350048
0.00410435
-0.000695655
-0.00629474
0.0012341
-0.0322533
-0.078485
-0.0617332
0.00108555
0.00336317
0.000537266
-0.139267
0.00595366
0.00334771
0.00266272
-0.0504255
0.00372166
0.0038035
-0.0160987
-0.0144186
0.00544973
0.00561255
0.00346095
-0.106758
-0.0226069
-0.123516
-0.042224
0.000101619
0.00397777
0.00983928
0.00382195
0.0033612
-0.00883764
0.00350899
0.00327754
0.00347465
0.00527913
-0.0154091
0.00840809
-0.150784
-0.0129702
-0.0239011
-0.0316528
0.0103014
0.00333096
-0.040818
-0.0385859
0.00364383
-0.0972263
0.00335888
-0.0664314
-0.0169914
2.86143e-05
0.00349238
0.00586355
0.00895804
-0.018162
0.00325833
0.00231046
-0.0952951
0.00541858
0.00201056
0.000338984
0.00547093
0.000492542
-0.00043916
0.00362705
0.00154554
-0.134307
-0.0810798
0.00370187
0.00411353
0.0136738
-0.0255215
0.00154664
-0.0404209
0.0101061
-0.0226737
0.00392866
0.00278919
-0.0526149
0.00557286
0.00646426
-0.0176486
0.00383369
0.00330592
-0.149418
0.00268564
-0.0346929
-0.0935876
-0.0698269
-0.000431487
0.00263455
-0.00112723
0.00344779
0.00012861
-0.0120963
-0.00706597
0.00203126
0.00717457
-0.0957623
0.00358996
-0.00464339
2.05992e-06
-0.0428534
-0.0874963
0.00377058
0.00642212
-0.0167304
-0.156358
-0.0143253
0.00334434
0.00396757
-0.0154651
-0.0249737
0.00724181
-0.0196674
0.00336263
0.00991148
-0.0197281
0.00287341
0.00326502
-0.00552698
0.00503287
0.00388517
-0.00149147
0.00381386
0.00644137
0.00449215
0.00181498
0.000672999
-0.00938185
0.0038246
0.00395507
0.00318172
-0.0254619
0.00374088
0.0034996
-0.0473364
-0.0292593
0.00611342
-0.0462262
0.00353733
0.00314797
0.00414973
0.00349448
0.00160318
0.00373222
0.00705117
0.00348507
-0.00449048
0.00370861
0.00310905
-0.0169813
0.0088902
0.00333522
0.00577862
0.00399366
-0.011167
-0.0651732
-0.0263454
0.00769643
-0.0090449
-0.0233184
0.00606879
0.00138986
-0.0783355
-0.112962
0.00374987
-0.0186619
-0.0457955
0.00274434
-0.00479308
-0.0298547
-0.0157481
-0.00202408
-0.0155653
-0.0190776
0.00106899
-0.011299
-0.0933555
0.00467684
0.00339969
-0.09429
0.00990688
0.00170837
0.00737411
-0.00639979
0.00359982
0.00560156
-0.0156419
-0.016688
0.00924704
0.00424624
0.00373379
-0.133315
-0.016375
-0.0425818
-0.0173568
0.00302934
0.00743112
0.00329981
0.00377744
-0.0195504
-0.00183001
0.00429678
-0.0211724
-0.00476124
-0.151302
-0.0174449
-0.104128
-0.0127017
-0.00533599
0.00126118
0.00342947
-0.0115163
0.00108099
-0.0313666
-0.0455534
-0.144463
0.00834966
0.0316273
-0.0157663
-0.0215317
0.00430448
0.0029523
-0.0443488
-0.0164769
0.00355616
0.00211695
0.00929432
0.00387752
-0.000905918
-0.000120133
-0.000226712
0.00362283
0.00257304
0.0256119
-0.0178663
0.000650772
-0.0997874
0.00126943
-0.019275
-0.0418952
-0.10261
0.00530349
-0.00772919
0.00352347
0.00415179
-0.00499571
-0.110371
0.005071
-0.00213354
0.00253948
0.00276898
0.0143211
-0.13247
-0.00451845
-0.0567241
-0.0205359
-0.105533
-0.0832708
0.00389928
0.00370178
-0.0282848
0.00117314
0.00115305
-0.0031726
0.00346543
0.00360983
0.00391303
0.00198538
-0.0153752
0.00047683
0.00967378
0.00586104
0.00314138
-0.0664349
-0.117862
0.00264275
0.00337592
-0.00110431
0.00317414
-0.00215021
-0.000356698
0.00150036
-0.0678417
0.00461764
0.00348585
0.00045099
0.00525643
-0.0114587
0.00409888
0.00316621
0.00550761
0.000570141
0.00743709
0.00516128
0.00385021
0.00140652
0.00391046
0.00367774
0.000925206
0.00269336
-0.114747
-0.00121713
-0.0811543
0.00397529
0.0203475
-0.000606855
0.00809095
-0.124535
0.00480159
0.00153495
-0.0571128
0.00543821
-0.0398622
0.00268517
-0.00497862
-0.0141803
0.00320894
-0.0339391
0.00319843
0.00502954
0.00420432
-0.127232
0.00375223
0.00244861
0.0258545
0.00511882
-0.0763332
0.00323989
-0.0324455
-0.0574061
-0.0178043
-0.121945
-0.119993
0.00401029
0.00405086
-0.000850653
0.00759077
0.000682764
-0.00271424
-0.00049472
0.00195999
0.00339091
0.00281803
0.00402562
0.00356783
0.0127338
-0.00546626
0.00352257
0.00763355
-0.0221556
-0.0260627
-0.064961
-0.00524276
0.0100047
0.00324255
-0.0271632
-0.068945
0.0070643
-0.112896
0.000750851
0.00911455
0.00154384
-0.0203339
0.00287662
-0.0141094
-0.00136764
0.00355063
0.0189964
0.00302172
-0.00196902
-0.00188188
0.00356423
-0.00334897
0.00358207
0.00366403
-0.109474
0.0020842
0.000679328
-0.0121335
0.00506177
0.00203534
-0.00385435
-0.0012632
0.00559954
-0.00195771
0.00136177
-0.0394936
-0.0385754
-0.129175
0.00270459
0.00140978
0.00154548
0.00231829
0.0022612
0.0109382
0.00213839
0.00375736
-0.000348445
0.00339213
-0.0189614
-0.000718712
0.0363121
-0.00644063
-0.0274582
-0.0372779
-0.00435712
-0.0328914
0.00382818
-0.0885487
0.00334659
-0.029426
-0.00132716
-0.000740711
0.0029171
0.00964951
-0.0145928
0.00327188
0.00390239
0.00859635
0.00229199
0.00521911
-0.0404758
0.00991508
0.00401459
0.00559994
0.0126454
0.00276779
-0.0392758
0.00330155
0.00550882
0.00054966
0.00367241
0.00933137
-0.0225866
0.00979219
0.0034658
-0.0866536
0.00289811
0.0036651
0.00171879
0.00460978
-0.107165
0.00331701
-0.00930728
0.00546195
-0.0243824
0.000383186
0.00449703
0.00350462
0.0108467
0.00406527
-0.0221433
0.003195
-0.0280996
-0.00654028
-0.140315
0.00388255
0.00360202
0.00152929
-0.00859009
0.00336885
-0.0193592
-0.0029678
0.0102905
-0.0315918
-0.000984785
-0.0846278
0.0022398
0.00372896
0.00505579
0.0209999
-0.0336014
-0.0177369
-0.0180043
-0.0803547
0.00591048
-0.0189378
0.00288929
0.00740278
0.00167767
0.00328141
0.0357543
-0.00527003
-0.0187932
-0.000270713
0.00055628
-0.0303553
-0.0170027
-0.00158603
-0.012941
-0.0432911
0.003137
0.00323685
-0.000147037
0.00347402
0.00307988
-0.148568
-0.0914153
-0.00828058
0.00313913
-0.000555664
-0.0182813
0.00319843
0.00356589
0.00360816
0.000523105
-6.0355e-05
0.00246727
0.00313817
-0.0349555
-0.0747164
0.00956338
-0.0106499
0.00350283
0.00355524
-0.0375261
0.00304865
0.0182597
-0.116399
0.0011434
-0.0503635
0.00371319
-0.0905755
0.00310084
-0.0995679
0.00223926
-0.00283638
0.00789174
0.00471332
-0.0694702
0.00276933
-0.00369865
-0.017592
0.00212913
0.00262489
-0.00133034
0.00344938
-0.00135638
-0.0745386
-0.102114
0.00623134
0.00354184
0.00786701
0.00559482
-0.00697661
0.00259362
-0.0157344
-0.00953466
0.000309847
0.00481215
-0.0154984
0.0037469
-0.0427441
-0.0156521
-0.0290871
-0.0119441
-0.0295216
-0.0271203
0.00256569
0.00221888
0.00285245
0.00213983
0.000206363
0.00187959
-0.0752889
0.00298063
0.00384963
-0.000751935
0.0115115
0.000793497
-0.0811493
-0.121951
-0.0200795
0.00345826
-0.0340112
0.00344103
-0.0347913
-0.00372707
0.00386484
-0.0197997
-0.0186966
-0.0405104
0.00383361
0.00322422
-0.0244404
0.0157923
-0.0103543
-9.50126e-05
-0.0112554
-0.0600747
0.00920466
-0.00852483
0.0038836
-0.0124174
-0.0122637
-0.053221
0.00450831
-0.153051
-0.0635849
-0.0292792
-0.00326463
-0.000823673
-0.0050286
0.000839322
0.00293054
0.000738669
-0.034312
-0.000435022
-0.0532141
0.00612532
-0.0133201
0.00133999
0.00778563
-0.0134664
-0.034879
-0.0304442
-0.0141802
0.00311713
-0.0900374
0.00760183
-0.00556774
0.0115997
-0.0278799
-0.0331317
0.0368538
-0.00597041
0.00205881
-0.0366502
0.0018999
-0.0065153
-0.0372729
-8.83183e-05
0.00520094
-0.0154747
-0.0412506
0.00360845
-0.0338004
0.00316275
0.00360488
-0.0121548
0.00325106
-0.0620218
0.000723602
0.000344806
-0.100845
-0.00275848
-0.0202914
-0.0596403
-0.0458688
-0.0163877
0.00417606
-0.0167722
-0.156392
-0.0143769
0.00589666
0.00395803
0.00806111
0.00207054
0.00200341
-0.0306804
0.00311925
0.00385146
0.00964225
0.00595077
0.00214592
0.00281462
-0.0654981
-0.0559089
0.00324047
0.00135398
-0.0184221
0.00299308
0.00292531
0.00294055
0.0035869
-0.00682072
-0.0142685
0.0123104
0.00712801
0.0031269
0.00241943
-0.00755503
-0.0273911
0.0114589
0.00298325
-0.0054304
-0.00320245
0.00315789
-0.0316259
-0.00247361
0.0294976
0.00308031
-0.0222574
0.0030322
0.00321276
-0.0287632
-0.0157415
-0.00450064
-0.0137129
0.00306746
0.00374952
-0.0136594
0.00663724
-0.13091
0.00353021
-0.0115026
0.00240929
0.00274943
0.00831649
0.00393546
-0.079738
0.00584514
-0.00316762
0.00171936
0.0100187
-0.0263978
-0.111424
0.00305516
0.00387584
-0.0165617
-0.015303
-0.0852892
0.00231185
-0.0158574
0.00594145
-0.0806901
-0.0109268
0.000632797
-0.145902
0.00278311
0.00375503
-0.00650625
0.00283584
-0.00263225
-0.152498
0.000237432
-0.107203
0.0029108
0.00379786
-0.00365843
0.00639066
0.00406528
-0.117886
-0.00228757
-0.00294352
0.00213539
-0.0164741
0.00342398
-0.00608548
0.00312383
0.00277984
-0.00175198
0.00331477
-0.0143735
0.00545959
-0.0292236
-0.102741
0.00347778
-0.0207167
0.00374475
-0.11931
0.00471024
0.00237494
-0.146331
0.00501344
0.00105158
-0.0149487
-0.0393869
0.00363141
-0.110234
-0.0092529
-0.0107168
0.00157908
0.000593967
0.00832985
-0.150342
0.00374789
0.00968764
0.00512062
-0.02086
-0.126131
-0.00011517
0.00297307
-0.0565245
0.00596392
-0.00449405
0.00452755
0.00313427
-0.0176189
-0.0131762
-0.00412194
0.00286754
0.00350035
0.00317428
0.00017098
0.00316312
0.00544067
0.00419045
-0.00634065
-0.026125
-0.0097428
0.00341472
-0.00973845
0.00834239
-0.0422588
-0.0495322
-0.0515239
-0.0256088
-0.010611
0.00344384
-0.00856106
0.00385275
-0.00752105
0.00394492
-0.00224046
-0.0022419
-0.0650017
-0.012512
0.000350553
-0.096408
-0.0172912
-0.101003
0.00156069
0.00381515
-0.0184176
0.00314901
-0.000454217
-0.000574792
0.00385952
-0.0659781
0.00106529
-0.139221
-0.00180146
0.00354798
0.0340213
0.00693785
-0.026789
0.021341
-0.00107253
0.00213722
0.0120599
-0.119489
0.0229289
0.00416827
0.00142084
-0.0025334
-0.0205871
0.00362899
-0.0338866
-0.0662002
0.00326563
-0.00583164
0.00349082
-0.109865
0.00351104
-0.012515
-0.00582015
-0.0509505
0.0244804
-0.0744092
-0.148554
0.00281392
-0.0244398
-0.0999767
-0.00258189
-0.132345
-0.00554003
0.00270134
0.00353186
0.000763994
-2.04833e-05
-0.00524015
0.00339874
0.00604258
-0.0233102
0.00636487
-0.096127
-0.00688266
0.00862304
0.00541497
0.0171295
0.00295683
-0.0660775
-0.0185092
0.0273547
-0.0212964
0.00522736
-0.0232187
-0.00414818
0.00276031
-0.00147619
0.00150907
-0.117686
-0.0436726
-0.118855
0.000884886
-0.00593606
-0.014653
0.0299652
0.00376525
0.0036006
0.00527985
0.000545938
-0.0215456
0.000952114
-0.0258197
-0.0100542
-0.100419
0.00380428
0.00468739
-0.0130392
-0.0414323
0.00270552
-0.0692603
0.00231345
0.00347708
0.0014843
-0.0277486
0.00383205
-0.0121758
-0.0713146
0.00217364
-0.00315004
0.00162795
0.00721914
-0.0176209
-0.000409651
-0.104968
-0.0105916
-0.00314009
0.00339849
0.00109161
-0.132739
0.00394797
-0.0198926
0.00166731
0.00426369
-0.0669341
-0.00278186
-0.00257788
-0.00932597
0.00298747
-0.0216948
-0.111272
0.00349967
-0.0220818
0.00268429
0.0378354
0.00399129
0.0105831
0.00476821
-0.00167015
-0.0230791
-0.00217759
-0.0997586
0.00278408
-0.0759676
0.00338956
0.00312916
-0.00429126
-0.00652466
0.00373211
0.0105964
-0.0092356
0.00372355
-0.0119481
0.00349673
0.0172363
-0.0173848
-0.0342448
0.00365645
0.00336981
0.0112176
0.003512
0.00278115
0.00104821
-0.00848622
0.00335702
-0.0111965
-0.114341
0.00356632
0.00464762
0.00485863
0.00330795
0.0032509
-0.0277678
0.0020425
0.00559752
-0.0843242
0.00472765
-0.0145912
-0.00135289
0.00357513
-0.134683
0.0273289
-0.00685199
-0.04687
-0.000178976
0.0330059
0.00266835
0.000256824
6.17346e-05
0.0044089
0.00324175
-0.0104527
-0.0127076
-0.00531656
-0.119712
0.00404694
-0.00141541
-0.100424
-0.046149
-0.00420055
0.00308824
0.0123132
-0.124066
0.005798
-0.0623676
-0.0620757
-0.0282169
-0.0940301
0.00270545
-0.0019498
0.0010954
0.00362777
0.00333708
0.0225236
-0.0669201
0.0026721
-0.00574898
0.00274786
-0.0962343
0.00307111
0.00704799
-0.0152982
0.00512518
0.00593059
-0.0704289
-0.00743628
-0.00447593
-0.0125148
0.0185249
-0.00661626
0.00365128
-9.40418e-05
-0.000738471
-0.00588722
0.00463478
-0.0381178
0.00349992
-0.0255345
0.00527146
-0.00896176
-0.0782931
0.00174377
0.0204872
0.00346936
0.000869474
-0.142161
-0.111082
0.00312369
0.00345771
0.00378526
-0.0918326
0.0190687
-0.0163793
0.00443547
0.00207772
-0.000347235
0.00354395
0.000618866
0.00352128
-0.0307877
0.000251196
-0.0642287
-0.0658396
-0.000290862
-0.125909
0.00298411
-0.000996806
0.00710877
0.00296
-0.00183492
0.00102624
-0.00754075
0.00370567
0.00288015
-0.026005
-0.0390932
0.00324768
-0.0843763
-0.147198
-0.0147632
-0.0198374
-0.00733757
-0.00959985
0.0035228
0.00796974
-0.00207561
0.00643048
-0.10385
0.00209477
-0.00514361
-0.0801449
-0.0145955
-0.00585692
0.00549648
0.00763518
0.00397666
-0.118312
0.00411767
-0.158199
-0.020456
0.00460349
0.00975855
-0.0688911
-0.042099
-0.00103472
0.000641943
-0.144547
0.00250573
0.00946149
-0.0587034
-0.0164711
0.00397829
0.0168678
-0.00249715
0.0103359
-0.00220779
-0.0188844
-0.0222541
-0.00893984
-0.0675816
0.00370865
-0.13785
-0.0442887
0.00283807
0.00252119
-0.138878
0.00828202
0.00337238
-0.110248
-0.143399
-0.117828
0.00307957
0.00146456
-0.0498538
-0.123968
-0.145441
-0.00212703
0.00601332
-0.00708569
-0.000219122
-0.0025796
0.0037153
-0.00503929
0.00369239
-0.102314
0.00303972
0.00110228
0.00267339
-0.114467
-0.00108196
-0.0573031
-0.10489
0.00268307
0.00386424
0.00212369
-0.0676337
0.00333298
-0.00435837
0.00370639
-0.119519
-0.146544
-0.00415239
-0.113873
0.0107302
-0.000373873
-0.143159
-0.0135217
-0.000304862
-0.114306
-0.126348
0.000233055
-0.084302
0.0028229
0.00303275
-0.105752
0.0169716
-0.0298754
-0.0808044
0.00351406
-0.14737
0.00189025
0.0028243
-0.017425
-0.145863
-0.0786279
-0.0116178
0.00273366
0.00185871
-0.00389116
-0.0164503
0.0342582
-0.0820509
-0.0196198
-0.0273799
0.00270727
0.00242396
0.00192055
-0.0109884
-1.19382e-05
-0.0326351
-0.011091
0.00355232
-0.0065465
-0.10705
-0.00271949
0.0330795
-0.0743571
-0.00176994
-0.142443
-0.0253478
-0.0456345
-0.0128648
-0.00010218
0.00389679
0.000872384
-0.000158487
-0.0525916
0.00231457
0.0040569
-0.00126039
0.00318519
-0.00979459
-0.0405043
-0.0120134
-0.0362264
-0.0102733
-0.0666352
-0.131568
-0.00220541
0.00221334
-0.136577
-0.0144617
-0.00748127
0.00371035
-0.00335422
0.00326801
-0.0220683
-0.00135645
-0.075946
-0.00122352
0.000985376
-0.128545
-0.0268925
0.0033627
0.00165093
-0.0129151
-0.0074847
-0.00267166
0.00334742
0.00319868
-0.0104045
-0.0341038
-0.056485
0.0037307
-0.055387
-0.00113621
-0.0264235
0.00372205
-0.032352
0.00197756
0.005026
-0.00884251
-0.0389816
0.00599832
-0.0104772
-0.0936119
-0.101508
0.00263417
-0.00448644
-0.0319828
-0.0549774
0.0106353
-0.0915045
-0.00242887
0.0070262
0.000166662
-0.00491409
-0.0140313
-0.0399764
-0.0219943
0.00294951
0.00218492
0.00526246
-0.0204167
-0.00187418