/*--------------------------------*- C++ -*----------------------------------*\
| =========                 |                                                 |
| \\      /  F ield         | OpenFOAM: The Open Source CFD Toolbox           |
|  \\    /   O peration     | Version:  v2012                                 |
|   \\  /    A nd           | Website:  www.openfoam.com                      |
|    \\/     M anipulation  |                                                 |
\*---------------------------------------------------------------------------*/
FoamFile
{
    version     2.0;
    format      ascii;
    class       surfaceVectorField;
    location    "350";
    object      Uf_0;
}
// * * * * * * * * * * * * * * * * * * * * * * * * * * * * * * * * * * * * * //

dimensions      [0 1 -1 0 0 0 0];


internalField   nonuniform List<vector> 
27882
(
(1.01641 -0.00836249 0)
(1.01769 -0.00875148 0)
(1.01699 -0.00706555 -5.64727e-22)
(1.01108 -0.0556365 1.53645e-22)
(1.01711 -0.0609923 2.09978e-21)
(1.01958 -0.0520078 2.30624e-22)
(1.00316 3.1252e-05 1.19543e-22)
(1.00375 1.10446e-05 -6.48336e-22)
(1.0043 -1.72973e-05 -6.34271e-22)
(1.01522 -0.00977319 -3.40878e-22)
(1.01515 -0.00791951 0)
(1.00815 0.00478244 7.83777e-22)
(1.0095 0.00572435 1.21227e-23)
(1.00772 0.00621814 2.84369e-22)
(1.0066 0.000136188 -2.34399e-23)
(1.00723 0.0002392 -1.65552e-23)
(1.00681 0.000180279 9.15623e-23)
(1.0151 -0.00528534 -6.98877e-23)
(1.0152 -0.00547812 -1.61343e-22)
(1.01536 -0.00541234 7.89815e-23)
(1.02287 -0.0180237 -2.2005e-22)
(1.02314 -0.0185877 0)
(1.02252 -0.0185344 -4.59969e-22)
(1.0069 0.00379162 2.44976e-21)
(1.00838 0.00355175 8.38772e-24)
(1.00602 0.00286744 -2.97669e-22)
(1.00523 0.00172164 -2.93735e-21)
(1.00656 0.00173013 -1.34666e-21)
(0.994948 -0.043159 -3.22734e-22)
(1.002 -0.0431702 0)
(0.999474 -0.0361095 0)
(0.818758 -0.0584989 8.13105e-21)
(0.825321 -0.0999444 2.83193e-21)
(0.818945 -0.0980281 3.95807e-22)
(0.947948 0.0464039 -8.34814e-22)
(0.960122 0.0478043 1.9753e-21)
(0.950228 0.0568684 6.73573e-22)
(1.03339 -0.0178486 1.86287e-21)
(1.03432 -0.0181248 2.80207e-21)
(1.03388 -0.0171467 -1.86394e-21)
(1.01455 -0.00492314 5.54589e-23)
(1.01484 -0.00512756 -4.18193e-24)
(1.0146 -0.00514218 2.48686e-23)
(1.0121 -0.00221384 7.55914e-23)
(1.01195 -0.00211022 4.10772e-23)
(1.01197 -0.00225322 4.04939e-23)
(0.813103 -0.0130298 7.10411e-21)
(0.821828 -0.0102874 -9.57333e-21)
(1.01084 0.00158967 1.19584e-22)
(1.0107 0.00153002 4.24103e-23)
(1.0143 -0.00476154 2.00334e-23)
(1.01451 -0.00474379 -5.86214e-24)
(1.01821 -0.0153596 -7.61425e-22)
(1.01849 -0.01551 5.57766e-22)
(1.01847 -0.015333 -6.17122e-22)
(1.04251 -0.138094 2.2322e-21)
(1.02349 -0.154518 8.82039e-21)
(1.02981 -0.135118 1.34838e-21)
(1.21035 -0.135543 -1.73417e-20)
(1.21341 -0.129309 1.11887e-20)
(1.21359 -0.13663 -1.13173e-21)
(1.00565 9.5308e-05 3.54617e-23)
(1.00639 0.000142013 2.87857e-23)
(1.00593 0.00014042 -7.15609e-23)
(1.00627 0.000179139 -1.28424e-22)
(1.00664 0.00022628 -3.09342e-22)
(1.20256 -0.136936 -6.08772e-21)
(1.19295 -0.127369 -1.50343e-20)
(1.09367 -0.273383 -1.33752e-20)
(1.09935 -0.263246 -7.08107e-21)
(1.10839 -0.277685 -2.05213e-20)
(0.856091 0.327884 -4.59444e-21)
(0.875681 0.336814 5.13373e-21)
(0.867482 0.322498 2.79993e-21)
(0.918794 -0.0676122 0)
(0.925442 -0.0719101 0)
(0.91605 -0.0749598 6.904e-22)
(1.0455 -0.12 6.73356e-22)
(1.04298 -0.124722 -1.53702e-22)
(1.04069 -0.119391 1.11448e-21)
(1.01888 -0.0876528 1.42083e-23)
(1.02661 -0.0899976 3.97136e-22)
(1.0286 -0.0777837 -2.73512e-22)
(0.839369 0.292991 1.59854e-21)
(0.837616 0.299866 -2.12516e-21)
(0.839297 0.293622 -3.42158e-21)
(0.840408 0.315321 -5.9844e-21)
(0.846991 0.319656 5.24069e-21)
(1.02261 -0.017576 2.89176e-22)
(1.02312 -0.0176303 -6.33344e-22)
(1.10363 -0.165986 0)
(1.06945 -0.149249 0)
(1.0409 -0.149032 0)
(1.01095 0.00668659 -9.72274e-22)
(1.01229 0.00772289 -7.92939e-22)
(1.01053 0.00829681 7.79277e-22)
(1.01024 -0.0827039 -2.21523e-21)
(1.0054 -0.0960167 1.65516e-23)
(0.947068 0.0370857 -1.17546e-21)
(0.935541 0.0460758 0)
(1.01099 0.00526784 -8.9719e-23)
(0.894951 -0.289116 6.64879e-21)
(0.892299 -0.285041 -1.9062e-21)
(0.898393 -0.283666 -6.41771e-22)
(1.01364 0.00248814 3.04782e-23)
(1.01355 0.00253624 -1.20416e-22)
(1.01337 0.00246641 8.81124e-23)
(0.875083 -0.138511 5.31969e-21)
(0.882665 -0.151848 2.38098e-21)
(0.880235 -0.163574 -2.69092e-21)
(1.00255 -0.000175692 -3.50323e-22)
(1.00101 0.000566069 -3.7995e-22)
(1.0027 0.0013359 -1.04841e-21)
(0.893528 -0.00125047 -6.69927e-22)
(0.890781 -0.0212272 2.67527e-22)
(0.900984 -0.0211794 -3.84965e-22)
(1.01214 0.00223481 1.32969e-23)
(1.01189 0.00199688 2.36629e-22)
(1.01187 0.00231332 5.27428e-22)
(1.00967 -0.000727293 2.98048e-22)
(1.00963 -0.000713407 1.27199e-22)
(1.01 -0.000808271 5.22672e-22)
(0.839538 0.297258 0)
(0.842459 0.30505 0)
(0.83963 0.30704 1.35203e-21)
(1.00236 -0.00128399 0)
(1.00363 -0.000550762 1.14345e-21)
(1.03072 -0.121193 -2.4224e-21)
(1.02816 -0.1166 -4.24524e-21)
(1.02556 -0.122084 -3.8739e-22)
(0.0429 0.249863 4.22933e-21)
(0.0168775 0.260486 1.45475e-20)
(0.0409809 0.251178 2.11636e-20)
(1.01162 -0.00639447 -7.46536e-22)
(1.0125 -0.00743028 -6.01564e-23)
(1.01251 -0.00586721 6.16529e-22)
(0.987126 -0.0414757 -3.2987e-22)
(0.989572 -0.0504986 -3.63336e-21)
(0.847218 -0.361568 4.61803e-22)
(0.856758 -0.352587 -1.2355e-20)
(0.89802 -0.381604 0)
(1.0103 -0.00678537 -4.84534e-22)
(1.01106 -0.00532952 1.56832e-21)
(1.00924 -0.0156661 7.9179e-22)
(1.00895 -0.0148324 0)
(1.00841 -0.0156797 0)
(1.13918 -0.131429 -4.78408e-21)
(1.14356 -0.128967 -5.33839e-23)
(1.14376 -0.134349 1.63304e-20)
(0.971627 0.0478019 2.61024e-21)
(0.967597 0.0397625 3.79728e-21)
(1.01247 0.000106407 -2.9033e-22)
(1.0124 0.000165213 5.614e-22)
(1.01267 0.000210402 -1.86863e-25)
(1.01799 -0.0151185 -3.02317e-22)
(1.01789 -0.015312 -1.09855e-21)
(1.02578 -0.112211 -2.7978e-21)
(1.02097 -0.112397 1.7129e-21)
(1.02366 -0.107682 -1.87598e-21)
(1.01258 4.36221e-05 -3.28746e-22)
(1.01227 2.38732e-05 -2.00402e-22)
(1.00882 -0.000555048 0)
(1.00936 -0.00071397 -2.56659e-22)
(1.0089 -0.000520706 -1.06153e-22)
(1.01247 0.00248277 -2.26229e-22)
(1.01234 0.00213022 4.31977e-22)
(0.85144 -0.346772 1.17454e-21)
(0.825946 -0.334197 -6.59334e-21)
(0.613014 -0.223891 -1.91567e-21)
(0.642735 -0.202816 1.31533e-21)
(0.615518 -0.201367 -1.18389e-22)
(1.00784 -0.000426673 0)
(1.00873 -0.000578092 -1.63682e-22)
(0.779909 -0.0446196 0)
(0.788438 -0.0461551 4.24813e-21)
(0.730909 -0.0230685 -3.52057e-21)
(1.00617 -0.000185712 0)
(1.00548 -0.000119394 -1.2195e-22)
(1.00554 -0.000134376 0)
(1.00954 0.000763792 4.34553e-24)
(1.00946 0.000709027 2.40359e-23)
(1.0096 0.000719472 1.87337e-23)
(0.923453 -0.060169 1.9317e-21)
(0.913856 -0.0616692 -1.77881e-21)
(1.01081 0.00158149 2.87644e-23)
(1.01097 0.00168803 1.08084e-23)
(0.787544 -0.335849 -3.13747e-20)
(0.831217 -0.367381 8.00465e-21)
(1.10288 -0.312971 4.6885e-22)
(1.09413 -0.299777 -1.79091e-21)
(1.11221 -0.301979 3.07939e-21)
(1.01259 -0.00516202 -2.17927e-22)
(1.01279 -0.00533222 -1.75133e-22)
(1.01258 -0.00533271 -3.57883e-22)
(1.01942 -0.0137395 -3.74434e-22)
(1.01893 -0.0140622 -5.02681e-22)
(1.01925 -0.0141971 9.34388e-24)
(1.04261 0.0355583 2.8324e-21)
(1.03586 0.0367238 5.17911e-21)
(1.03803 0.0285888 3.78696e-21)
(0.837997 0.291467 2.65845e-21)
(0.838525 0.29156 -4.15506e-22)
(0.980195 -0.121138 2.09579e-20)
(1.00525 -0.137362 -5.60945e-21)
(0.988906 -0.0650149 8.96389e-21)
(0.81914 0.0585199 -4.30812e-22)
(0.824457 0.0721075 -5.30867e-21)
(0.827533 0.101783 2.44127e-22)
(1.00533 0.00401211 1.66912e-21)
(0.89347 0.0239381 6.57814e-21)
(0.902388 0.0173092 7.25263e-21)
(1.09434 -0.11444 -3.07316e-21)
(1.09737 -0.112146 -1.27788e-20)
(1.09791 -0.11684 -2.41694e-21)
(0.896362 -0.289217 -2.3381e-21)
(0.89349 -0.296754 1.12456e-20)
(0.811204 0.0218316 2.34278e-21)
(0.818917 0.0488095 2.52019e-22)
(1.02163 0.00554364 -1.61841e-21)
(1.02335 0.00846416 -1.40345e-21)
(1.01989 0.00864948 0)
(1.01036 0.00149805 -1.445e-21)
(1.01071 0.00185343 -6.97757e-23)
(1.01033 0.00214268 -7.09148e-22)
(1.13034 -0.116886 0)
(1.1321 -0.120361 0)
(1.12718 -0.120167 0)
(1.05453 -0.0243215 -1.31426e-21)
(1.05386 -0.022576 -3.31113e-21)
(1.01945 -0.0130422 2.50625e-22)
(1.02004 -0.0134821 -1.8416e-22)
(0.861762 -0.357877 -2.62835e-21)
(0.869888 -0.346832 0)
(1.13232 -0.112717 -8.75825e-21)
(1.12766 -0.113185 7.03646e-21)
(0.508978 -0.195887 -3.49433e-20)
(0.49351 -0.197706 -1.88642e-20)
(0.436657 -0.154493 -1.93659e-20)
(1.0086 -0.00050504 1.19351e-22)
(1.00896 -0.000489482 1.03205e-22)
(1.00987 -0.000552201 3.7686e-22)
(1.08947 -0.0907896 0)
(1.09206 -0.0892403 -1.92258e-21)
(1.09197 -0.0933176 4.87191e-21)
(0.0704805 0.241492 -3.32615e-20)
(0.0408838 0.248209 -2.68755e-20)
(1.01259 -0.00501642 -1.13663e-22)
(1.01241 -0.00499656 0)
(1.00741 -0.000625934 -4.07373e-22)
(1.00747 -0.000662526 -1.96765e-22)
(1.00743 -0.000637741 6.55402e-22)
(1.01208 0.00213561 -4.28337e-24)
(1.0119 0.00207589 -6.03145e-23)
(1.01208 0.00215513 -7.06802e-23)
(1.04485 -0.0881304 -2.58691e-21)
(1.04826 -0.0877121 3.67456e-21)
(1.04646 -0.0914835 -6.11481e-21)
(0.846398 0.131531 -7.78903e-22)
(0.835637 0.0849285 -2.20182e-21)
(0.85254 0.0988288 1.2377e-20)
(1.01009 -0.00393902 9.62459e-23)
(1.01018 -0.00400843 5.24673e-22)
(1.01006 -0.00384016 3.31365e-22)
(0.838152 0.291467 2.2205e-21)
(0.839449 0.289466 -1.28133e-21)
(1.02389 -0.0179963 -2.07702e-21)
(1.02432 -0.0171157 1.1219e-22)
(1.02319 -0.0172266 -1.26911e-21)
(1.00948 0.000802853 -2.29649e-22)
(1.00963 0.000825391 8.67417e-23)
(1.00739 -0.000606589 7.12697e-22)
(1.00734 -0.000584648 -4.51523e-22)
(0.760205 -0.0373462 1.06157e-20)
(0.828143 -0.0623476 -4.8659e-21)
(1.05234 -0.13537 8.85348e-22)
(1.05473 -0.11924 6.53888e-22)
(1.03543 -0.120132 -1.04503e-21)
(1.03337 -0.125783 6.61157e-21)
(0.510086 -0.184195 0)
(0.568224 -0.228135 -8.17403e-21)
(1.05387 -0.265901 6.00772e-21)
(1.07138 -0.299586 5.68436e-21)
(1.0802 -0.246291 1.05237e-21)
(0.968174 -0.139417 -2.67848e-21)
(0.978021 -0.154765 1.28085e-21)
(0.986544 -0.13779 -5.52123e-22)
(1.01252 -0.00224801 -7.2027e-23)
(1.01236 -0.00213728 -1.75169e-24)
(1.01251 -0.00209113 3.8917e-23)
(0.59221 -0.239268 8.51635e-21)
(0.615688 -0.240944 -1.95073e-21)
(1.00177 -0.00424299 7.9615e-22)
(1.00292 -0.00525795 0)
(1.00333 -0.00360392 9.30144e-22)
(1.00512 2.95114e-07 -2.1797e-22)
(1.00513 7.0907e-06 8.61216e-23)
(1.00418 2.09511e-06 3.44715e-22)
(1.02448 -0.0189136 -1.69845e-21)
(1.02321 -0.018823 -1.50228e-21)
(0.840513 -0.121544 1.41489e-21)
(0.828221 -0.123003 1.90261e-21)
(0.832936 -0.110698 3.2467e-21)
(1.04099 -0.0888293 -1.13142e-22)
(1.04251 -0.0849325 6.8713e-23)
(1.01164 -0.000222367 3.27682e-22)
(1.01182 -0.000233596 1.35307e-22)
(1.01154 -0.000189033 -4.5707e-22)
(0.820369 -0.149768 3.24986e-21)
(0.807791 -0.153638 1.84831e-21)
(0.817949 -0.163836 -2.83793e-22)
(1.01001 -3.23674e-05 -2.71142e-22)
(1.00969 0.000567644 -7.40115e-22)
(1.00939 -0.000110328 -2.20134e-24)
(1.00551 -4.88151e-06 3.02497e-22)
(1.00525 -1.54754e-05 2.61328e-22)
(1.00603 2.13242e-05 -4.89356e-23)
(0.964035 -0.164487 1.20414e-20)
(0.949131 -0.0930306 -1.78934e-21)
(1.01004 0.00110653 -1.24126e-21)
(1.01051 0.000995586 -2.41425e-22)
(1.00998 0.000267877 -2.1275e-22)
(1.01016 0.000305283 9.26289e-22)
(1.00998 0.000278236 -2.38296e-22)
(0.0305164 0.301878 -1.0186e-20)
(0.00859091 0.303414 2.67668e-20)
(0.0272529 0.303936 3.40422e-22)
(1.00974 -0.016411 6.50422e-22)
(1.00998 -0.0155209 -3.72971e-22)
(1.01162 0.00131502 2.21287e-24)
(1.01179 0.00150058 -5.87783e-22)
(1.0117 0.0013055 4.26219e-22)
(1.00998 0.000268831 -4.70575e-22)
(1.0098 0.000240681 -1.82846e-22)
(1.0478 -0.178436 7.05431e-21)
(1.04999 -0.170666 3.84385e-21)
(1.04137 -0.174293 -1.2154e-21)
(0.0597647 0.26647 1.02153e-20)
(0.0335762 0.262207 0)
(1.03059 -0.111632 -7.16625e-22)
(1.00572 -0.000291198 -5.73149e-22)
(1.00486 -0.000153629 1.88333e-22)
(1.00629 -0.00037499 9.99711e-23)
(1.01729 -0.0306436 -4.79166e-22)
(1.01638 -0.0295177 1.78685e-22)
(1.01577 -0.0309861 -1.63903e-23)
(0.579042 -0.0137479 -1.41276e-20)
(0.6041 -0.0149188 1.20537e-20)
(0.637065 -0.0396367 -1.09605e-20)
(1.01394 0.00251138 0)
(1.01374 0.0024731 2.44133e-23)
(1.00534 -0.000102433 1.94469e-22)
(1.00556 -7.5755e-05 0)
(1.00599 -4.93669e-05 0)
(0.743808 0.106654 6.48855e-23)
(0.769384 0.116303 6.65911e-21)
(0.744986 0.172991 1.59181e-21)
(1.01081 3.75854e-05 0)
(1.01042 6.559e-05 -1.50011e-22)
(1.01065 0.00050014 4.40282e-22)
(0.938517 -0.14274 1.14486e-21)
(0.930545 -0.147332 7.0967e-22)
(0.93155 -0.137083 5.82722e-22)
(1.09073 -0.117609 6.44315e-21)
(1.09009 -0.112805 1.27813e-20)
(1.00054 -0.00270948 -6.72788e-22)
(0.999838 -0.00456745 4.3154e-22)
(0.878766 -0.162407 2.22936e-21)
(0.885374 -0.183958 -2.06003e-21)
(0.897302 -0.168349 2.33625e-21)
(1.05461 -0.0722189 1.84269e-21)
(1.05714 -0.0713398 6.52125e-22)
(1.05636 -0.074781 3.85294e-21)
(1.02691 -0.193979 -1.03585e-20)
(1.02339 -0.273117 -8.52057e-21)
(0.0557159 0.299928 -2.16999e-20)
(0.0321754 0.298533 -7.07281e-21)
(1.0809 -0.0701335 1.03346e-21)
(1.08284 -0.0685066 0)
(1.08329 -0.0717451 -7.04633e-21)
(0.742983 -0.0330332 1.88699e-20)
(0.698814 -0.0150555 9.42406e-21)
(1.05206 -0.164544 3.72019e-21)
(1.04623 -0.16034 -1.22924e-21)
(1.0536 -0.157405 6.83124e-21)
(1.00637 -0.0500687 0)
(1.00945 -0.0421425 1.39977e-22)
(0.827724 -0.298041 0)
(0.828663 -0.283958 -2.58858e-22)
(0.842418 -0.293093 0)
(0.120139 0.269985 -1.38916e-20)
(0.139588 0.272528 -7.11404e-22)
(0.157701 0.270091 2.91433e-20)
(-0.0644503 0.255057 -8.74329e-21)
(-0.0556908 0.259564 1.20323e-21)
(-0.0564615 0.265586 -2.88961e-20)
(1.02567 -0.00520256 -3.40763e-22)
(1.0261 -0.00523719 5.14738e-22)
(1.02591 -0.00559289 1.17889e-21)
(1.01367 0.00764844 0)
(1.01442 0.00609901 2.53784e-22)
(1.0156 0.00768701 4.13834e-22)
(0.873232 -0.119097 2.17112e-21)
(0.873403 -0.112912 1.26295e-20)
(0.950075 0.382127 8.53676e-23)
(0.95243 0.395628 -2.53858e-21)
(1.08658 -0.0925309 5.58868e-21)
(1.08665 -0.0884306 -7.82748e-21)
(1.04795 -0.184662 2.99116e-21)
(1.05481 -0.180308 5.94059e-22)
(1.03091 0.00603976 1.85964e-21)
(1.03408 0.00896246 1.37614e-21)
(1.03457 0.00457176 1.5758e-21)
(1.00224 -0.0586113 1.43669e-22)
(0.586223 -0.367337 3.88261e-21)
(0.596974 -0.371962 -6.96427e-22)
(0.539946 -0.354209 1.01643e-21)
(1.01102 0.000398449 1.1164e-22)
(1.0112 0.000420365 9.67052e-22)
(1.01101 0.000416946 1.53683e-21)
(0.0644781 0.218221 -1.08116e-20)
(0.0364824 0.22628 -5.56654e-22)
(0.0532185 0.214566 -1.26083e-20)
(0.723684 -0.0275807 -5.19667e-21)
(0.78423 -0.0518606 8.79864e-21)
(0.850099 0.293496 2.43291e-21)
(0.864038 0.288457 1.64632e-21)
(0.857978 0.299824 6.4347e-21)
(1.01319 -0.000402633 -2.97567e-23)
(1.01293 -0.000459508 -4.96909e-22)
(1.0133 -0.000561023 2.86895e-22)
(1.011 0.000385395 -1.47023e-21)
(1.01083 0.000382153 -7.95364e-22)
(0.669596 -0.389581 -2.75832e-21)
(0.678739 -0.396783 2.78023e-21)
(0.716205 -0.408172 7.28907e-21)
(0.0902595 0.267743 -2.42699e-21)
(0.0735307 0.272884 3.23267e-20)
(0.833841 -0.136052 -5.19018e-22)
(0.838289 -0.174744 -1.72767e-21)
(0.846215 -0.175702 -1.85721e-21)
(-0.0614775 0.247706 1.49908e-21)
(-0.0647568 0.237961 1.91132e-20)
(-0.0670619 0.24944 5.7685e-21)
(1.0027 5.29842e-05 5.94361e-22)
(1.00196 8.00495e-05 7.83557e-22)
(1.04114 -0.129169 -3.671e-21)
(1.03614 -0.13 4.9153e-21)
(1.03938 -0.134884 -2.70855e-21)
(0.897522 -0.175514 -2.92475e-21)
(0.896662 -0.175061 -3.64085e-21)
(1.0796 -0.314757 7.04393e-21)
(1.05443 -0.334274 0)
(1.00947 -0.00265181 3.15872e-22)
(1.00954 -0.00276692 -3.27618e-22)
(1.00952 -0.0026578 -3.23367e-22)
(1.01257 -0.00484333 1.00645e-22)
(1.01277 -0.00501362 1.04908e-22)
(1.10852 -0.236714 -8.12494e-21)
(1.11792 -0.237599 -6.81983e-21)
(1.11143 -0.247328 -7.98776e-21)
(1.13158 -0.184479 -1.58392e-20)
(1.15702 -0.182517 7.17759e-21)
(1.03635 -0.00835586 1.49614e-21)
(1.0359 -0.00755431 4.48949e-21)
(1.00888 0.000768842 -3.45135e-22)
(1.00891 0.000748477 -1.11025e-23)
(1.00879 0.000716341 -1.2261e-23)
(1.01234 -0.0171119 1.24147e-21)
(1.0124 -0.0164117 1.24643e-21)
(1.01168 -0.0165647 2.70982e-21)
(1.13445 -0.129572 -7.00881e-21)
(1.13465 -0.134667 -1.31964e-20)
(1.04101 -0.0115449 0)
(1.0419 -0.0122503 2.49461e-21)
(0.795656 -0.320404 4.22804e-22)
(0.797282 -0.306244 1.09301e-21)
(0.782715 -0.309463 5.65753e-23)
(1.01731 -0.00325707 6.21078e-23)
(1.0174 -0.00312099 -6.1197e-22)
(1.01754 -0.00333645 -9.09358e-22)
(1.03864 -0.0850117 -5.149e-21)
(1.02942 -0.0972071 -8.23365e-22)
(1.0112 -0.0308191 -2.00569e-21)
(1.01306 -0.0302539 -1.83919e-21)
(1.01276 -0.0327955 -2.47207e-21)
(0.102974 0.226336 -1.49989e-20)
(0.0962696 0.228265 -3.55889e-21)
(0.895408 0.235683 2.36982e-22)
(0.881791 0.255049 5.61015e-22)
(0.911605 0.235904 2.1178e-21)
(-0.0717853 0.243556 1.20581e-20)
(-0.0693257 0.250867 2.43557e-20)
(1.01721 -0.00343089 5.31791e-22)
(1.01706 -0.00320368 3.42354e-22)
(0.961139 -0.0565496 -1.30657e-21)
(0.960678 -0.0623252 0)
(0.955835 -0.0567051 1.75328e-21)
(1.10106 -0.0302979 -3.98132e-21)
(1.07948 -0.021971 0)
(1.07507 0.0280574 -5.59279e-21)
(1.00888 0.000904518 7.71378e-23)
(1.00886 0.000879226 -2.47736e-22)
(1.00897 0.00093937 -1.46334e-22)
(1.03968 -0.0123317 -6.27606e-22)
(1.04006 -0.0115602 2.49571e-21)
(1.03906 -0.0115178 5.49098e-21)
(0.922886 -0.151067 1.09454e-21)
(0.914337 -0.154949 7.68891e-22)
(0.915254 -0.144844 4.98723e-22)
(1.02517 -0.0052456 -3.68408e-22)
(1.02535 -0.00488263 -1.41801e-22)
(0.146954 0.208203 -2.26904e-22)
(0.116357 0.218548 -5.15978e-21)
(1.00537 8.72434e-05 2.80844e-22)
(1.00597 0.000108454 -5.56941e-22)
(1.0053 6.78016e-05 -4.43409e-22)
(1.0115 -0.000674574 7.34571e-22)
(1.01177 -0.000576364 -6.64843e-23)
(1.01152 -0.000199088 8.36339e-22)
(1.04418 -0.191319 2.42413e-21)
(1.05051 -0.193406 0)
(1.10103 0.0895771 0)
(1.11089 0.0722554 0)
(1.12323 0.0668702 4.30707e-22)
(1.01192 -0.0018294 0)
(1.01179 -0.00173129 -9.7587e-23)
(1.01192 -0.00169259 -3.08917e-23)
(1.01267 -0.00234593 -4.44173e-23)
(1.01253 -0.00238009 -4.1947e-23)
(0.0993297 0.20912 1.52213e-20)
(0.0809592 0.219403 -7.03097e-21)
(1.01037 0.00017557 -8.84019e-22)
(1.01042 0.000197438 1.05532e-22)
(1.01056 0.000262529 3.31486e-22)
(1.01332 0.00942461 0)
(-0.00796745 0.251764 -2.03283e-20)
(-0.0261637 0.2511 1.01593e-20)
(1.00403 4.65939e-05 6.06677e-22)
(1.00367 2.92521e-05 2.68761e-23)
(1.00468 7.93548e-05 3.72335e-22)
(1.08457 -0.0954175 -1.32907e-21)
(1.08215 -0.0982428 -6.6804e-21)
(1.08654 -0.0978837 -5.43642e-21)
(1.01149 -0.0012975 4.53066e-24)
(1.01111 -0.000831573 -6.90958e-22)
(1.00958 -0.00337234 5.25226e-23)
(1.00939 -0.00296142 -4.01346e-22)
(1.0097 -0.00309203 7.98677e-22)
(1.01721 -0.0146578 -2.36703e-22)
(1.01752 -0.0148113 3.67061e-23)
(1.01732 -0.0149319 0)
(1.01227 0.00220022 4.79622e-23)
(1.01208 0.00212885 8.67989e-23)
(1.01248 -0.000852978 -1.78902e-23)
(1.01209 -0.000695643 -5.33631e-24)
(1.0123 -0.000708388 1.10137e-22)
(1.08265 -0.0931311 4.76621e-21)
(1.00774 0.00028195 -1.87605e-23)
(1.00758 0.000256347 1.76019e-22)
(0.918189 -0.163291 3.6037e-22)
(0.913212 -0.145945 -1.04654e-21)
(0.929757 -0.151515 6.77477e-22)
(1.12453 -0.0398886 3.77933e-21)
(1.1305 -0.0872326 1.71329e-21)
(1.01308 -0.0003769 -3.906e-22)
(1.01283 -0.000230525 0)
(1.01277 -0.000297179 0)
(1.05177 -0.0733913 1.11535e-21)
(1.05262 -0.069831 5.12591e-23)
(1.04123 -0.199363 -1.99423e-22)
(1.03674 -0.190268 3.66298e-21)
(1.07719 0.104675 5.85975e-22)
(1.07702 0.104552 0)
(0.934349 -0.0378192 -9.86585e-21)
(0.939452 -0.0660778 -4.11691e-21)
(0.948734 -0.0379069 -8.43112e-22)
(1.0504 0.0329719 -7.12028e-21)
(1.04914 0.0424397 -2.8672e-21)
(1.13651 -0.0998426 -8.32371e-21)
(1.13687 -0.103144 -4.70242e-21)
(1.14 -0.10074 0)
(0.635338 -0.383385 -3.39484e-21)
(0.578239 -0.358956 7.34662e-21)
(1.01031 0.000173656 -7.53265e-22)
(1.0102 0.000105994 8.9634e-23)
(1.08707 -0.285459 -1.98623e-21)
(1.0823 -0.271089 -1.03829e-21)
(1.07869 -0.0721945 1.00093e-21)
(1.07825 -0.068897 -4.49406e-21)
(1.07383 -0.304778 -1.07031e-20)
(1.10105 -0.295821 1.07116e-20)
(1.00441 -5.78809e-05 3.83294e-22)
(1.00525 -7.78651e-05 7.94836e-22)
(1.0094 -0.00178366 -2.16068e-22)
(1.0093 -0.00166794 1.45385e-22)
(1.00931 -0.00178047 1.32313e-22)
(1.01329 -0.000563892 4.04802e-23)
(1.01339 -0.000437696 -3.67573e-22)
(0.991361 0.0410859 3.00946e-21)
(0.984021 0.0430465 2.69046e-21)
(0.990852 0.0491076 2.59922e-21)
(-0.000690612 0.268767 -1.12591e-20)
(-0.0154706 0.276949 0)
(-0.00233373 0.272505 0)
(0.905725 -0.15927 -1.53756e-22)
(0.896589 -0.163905 6.38443e-22)
(0.897504 -0.153145 2.60168e-21)
(1.02206 -0.0136274 1.84093e-22)
(1.02164 -0.0137023 -1.74382e-22)
(1.02174 -0.0132445 3.01998e-22)
(1.01283 -0.00245315 2.55464e-23)
(1.01285 -0.00261571 -4.71287e-23)
(1.01302 -0.00257663 2.0994e-23)
(0.992175 0.0343236 -3.48532e-21)
(0.998204 0.0386796 2.30861e-21)
(0.945355 -0.138026 -5.55886e-22)
(0.952912 -0.132876 -1.85253e-22)
(0.946337 -0.128033 -9.28043e-22)
(1.00324 1.56308e-05 3.20103e-23)
(1.00429 4.34108e-05 2.97337e-23)
(1.00361 3.38032e-05 4.00626e-24)
(0.812798 -0.302874 2.96879e-22)
(0.827878 -0.313706 0)
(0.959131 -0.22317 -2.59318e-21)
(0.963736 -0.233285 1.25804e-22)
(0.970599 -0.223141 -2.34394e-21)
(1.0096 -0.00177024 2.87981e-22)
(1.00948 -0.00178035 -2.31004e-22)
(1.00949 -0.00165916 2.6276e-22)
(1.00733 -0.000169188 1.9679e-22)
(1.00741 -0.000159406 2.0325e-22)
(1.00736 -0.000126608 -1.44922e-24)
(1.0154 -0.00076761 1.96381e-22)
(1.01497 -0.000903328 3.50307e-23)
(1.01483 -0.00059323 -6.94797e-22)
(1.01003 -0.00389987 1.46493e-22)
(1.01014 -0.00405824 0)
(-0.0527738 0.244497 -7.13464e-21)
(-0.0572949 0.255579 -1.69569e-20)
(1.01143 0.00126293 -7.91345e-23)
(1.01133 0.00118318 5.63535e-22)
(1.01137 0.00104174 -6.93545e-22)
(1.02742 -0.0671217 -6.34195e-22)
(1.03259 -0.0608763 -9.49929e-22)
(1.02148 -0.0771557 2.08045e-22)
(1.01352 -0.000775528 3.86461e-22)
(1.01317 -0.000644517 7.92619e-22)
(1.00517 0.00010286 -1.69331e-23)
(1.00598 0.000125765 -2.57475e-23)
(1.00497 7.93652e-05 -2.12557e-23)
(0.886533 -0.191969 1.2916e-21)
(0.895966 -0.186656 -3.9232e-22)
(0.896395 -0.197958 -2.09444e-22)
(1.01308 -0.00028516 -3.3266e-22)
(1.01297 -0.000173582 3.38058e-22)
(1.0127 -0.000237076 -1.94651e-22)
(1.09453 -0.325667 1.68881e-20)
(1.11166 -0.326918 1.87772e-21)
(1.01325 -0.0010138 -3.56546e-23)
(1.0131 -0.00087077 0)
(1.01311 -0.000994404 0)
(0.91989 -0.27886 -4.80762e-21)
(0.909016 -0.240705 2.54949e-21)
(1.00423 -0.00592372 5.51941e-22)
(1.00302 -0.00693767 4.22241e-22)
(1.01035 0.000309601 -2.78738e-22)
(1.01032 0.000313322 1.4967e-21)
(1.00968 -0.00188609 -2.15582e-22)
(1.00969 -0.00177764 -4.31972e-22)
(0.966555 -0.0565264 2.29606e-22)
(0.962081 -0.0516592 -1.2778e-21)
(0.687051 0.213585 -1.79385e-21)
(0.66138 0.17324 -2.93826e-21)
(0.663397 0.190885 -5.97056e-21)
(0.718621 0.259121 2.14877e-21)
(0.715654 0.238877 1.96148e-21)
(1.01052 0.000314662 -9.16993e-22)
(1.01036 0.000308409 -1.19851e-21)
(0.945186 -0.147761 -4.94146e-22)
(1.02647 -0.00547384 -3.13506e-22)
(1.02637 -0.00503571 -6.71008e-22)
(1.01023 -0.00536102 -2.15988e-23)
(1.01017 -0.00518614 -8.48819e-22)
(1.01016 -0.00539279 -8.93762e-22)
(0.788342 -0.134243 0)
(0.798453 -0.144884 0)
(0.800123 -0.129792 0)
(0.992765 -0.283136 0)
(1.04118 -0.302208 -2.12757e-20)
(1.01605 -0.306612 -1.42392e-20)
(1.0103 -0.00553087 -2.32782e-22)
(1.01028 -0.00532078 1.45318e-23)
(1.01009 0.000156843 -6.49588e-22)
(1.01016 0.000157844 -1.97525e-23)
(1.01025 0.000212845 -9.34381e-22)
(1.01756 0.00378172 -2.8754e-23)
(1.01848 0.00384735 9.58317e-23)
(1.01804 0.00454729 -1.26225e-22)
(1.0169 -0.0144618 -2.6583e-22)
(1.0171 -0.0144008 1.16036e-22)
(1.02573 -0.032892 -4.42999e-22)
(1.02671 -0.0321619 5.07347e-22)
(1.027 -0.0335296 -8.71253e-22)
(1.00792 0.00030117 -9.02333e-25)
(1.00818 0.000331541 5.15772e-23)
(1.00977 -0.00382364 -4.17913e-22)
(1.00936 -0.00373023 -1.27205e-21)
(1.03269 -0.0175628 -2.0232e-22)
(1.033 -0.0184893 1.06999e-21)
(1.00725 -0.000177688 -1.21448e-23)
(1.00729 -0.000212309 -9.4416e-22)
(1.00446 -0.000150832 -1.95379e-23)
(1.00595 -0.000205668 -1.20628e-22)
(1.00495 -0.000156546 -8.93822e-24)
(1.01351 -0.00240496 1.55781e-22)
(1.01334 -0.00241405 -8.49112e-23)
(1.01336 -0.00224971 -8.28586e-23)
(0.710907 -0.0254758 7.91469e-21)
(0.747795 -0.0455581 3.02622e-22)
(0.695607 -0.0219312 2.679e-20)
(1.01501 -0.00505407 -1.41576e-23)
(1.01002 0.000167642 0)
(1.00994 0.000103915 0)
(1.00986 0.00101129 -3.28306e-23)
(1.00979 0.00098374 -3.69854e-23)
(1.00977 0.000947743 -9.59799e-23)
(0.95827 -0.138144 -9.73886e-22)
(0.959411 -0.128801 -7.27586e-22)
(1.00741 -0.000607585 7.74204e-22)
(1.00744 -0.000599588 5.5925e-22)
(1.00748 -0.000633021 -1.54169e-22)
(1.00734 -0.000580727 -1.64309e-22)
(1.00293 3.97866e-05 -5.4683e-22)
(1.00214 -4.05761e-05 -3.80764e-22)
(1.03484 -0.0101116 2.12071e-21)
(1.03559 -0.0101714 -3.85881e-21)
(1.03527 -0.0108045 1.22597e-21)
(1.01219 0.000120781 -4.53582e-24)
(1.01239 0.000231737 8.90008e-22)
(1.0053 4.79727e-05 2.78558e-22)
(1.0049 5.20506e-05 1.56403e-22)
(1.00566 3.83388e-05 2.59945e-22)
(1.00397 1.47933e-05 3.63638e-23)
(1.00343 3.18952e-05 -1.06788e-22)
(1.00443 1.28094e-05 -4.97728e-22)
(1.01674 -0.00120109 -3.32911e-24)
(1.01744 -0.00146661 -1.64764e-22)
(1.01731 -0.000813471 -3.36558e-23)
(0.928592 -0.00559627 2.75312e-21)
(0.922763 -0.040665 -2.84268e-22)
(1.0084 -0.000409002 0)
(1.0066 -0.000316382 1.32414e-22)
(1.00568 0.000132832 1.11491e-22)
(1.00516 9.28754e-05 -5.57867e-23)
(0.0833703 0.302222 1.03765e-20)
(0.0649891 0.3031 1.01923e-20)
(0.0566229 0.30436 4.22797e-21)
(1.04289 -0.0244947 0)
(1.0436 -0.0234784 1.2655e-21)
(1.04225 -0.0235537 1.64352e-21)
(1.00581 4.09557e-05 8.82896e-22)
(1.00617 1.46203e-05 -5.13878e-22)
(1.00531 4.12795e-05 2.73795e-22)
(1.00553 3.76068e-05 1.03603e-22)
(1.00628 6.73589e-05 -3.53649e-23)
(0.896243 -0.291573 -5.24938e-21)
(0.890362 -0.293296 -5.44482e-21)
(0.892885 -0.286492 8.52724e-21)
(0.975391 4.76369e-06 -1.41073e-21)
(0.979326 -0.00505984 1.79942e-21)
(0.982695 0.000256324 2.41646e-21)
(1.00885 0.000790039 3.1447e-23)
(1.00894 0.000820979 -5.50805e-22)
(1.01526 -0.0180074 4.03255e-22)
(1.01529 -0.0153181 -1.3101e-22)
(1.0126 -0.0159459 -5.72449e-22)
(1.0676 -0.119194 -6.38371e-22)
(1.05307 -0.140817 0)
(1.01254 0.00285825 2.21131e-22)
(1.01284 0.00266558 -9.90506e-24)
(0.980842 0.0474295 -3.38791e-21)
(0.974973 0.0554533 2.69466e-21)
(1.01366 -0.00239446 1.85297e-23)
(1.01364 -0.00255756 9.60782e-23)
(0.743829 0.289573 -2.44659e-22)
(0.765899 0.299562 -3.85998e-22)
(0.764998 0.314954 3.05976e-23)
(0.930251 -0.156934 -1.03324e-21)
(0.975069 -0.105367 1.06263e-22)
(0.977755 -0.110803 -2.43124e-22)
(0.970696 -0.10817 -2.13409e-22)
(1.048 -0.116411 -3.20659e-21)
(1.04962 -0.121346 3.09729e-21)
(1.02696 -0.13128 0)
(1.0916 -0.148179 -3.0434e-21)
(1.00941 0.00083695 -2.0417e-22)
(1.0095 0.000902361 0)
(1.00937 0.00087347 0)
(0.885631 -0.304809 -5.84354e-21)
(0.879213 -0.316747 -3.06011e-21)
(0.890668 -0.316525 -1.08818e-20)
(1.03842 -0.207107 4.0439e-22)
(1.0299 -0.207187 -7.2077e-22)
(1.03496 -0.216432 -2.86295e-21)
(1.00631 -0.000185017 0)
(1.00569 -0.000170478 2.7562e-22)
(1.00559 -0.000152601 0)
(0.980131 -0.102234 2.36875e-22)
(0.972873 -0.0998672 1.55839e-22)
(1.02723 0.00761755 3.0348e-22)
(1.0281 0.00374142 1.13895e-21)
(0.830042 -0.270292 -2.42079e-22)
(0.816327 -0.274582 3.78097e-24)
(1.00901 -0.00199423 1.82568e-22)
(1.00911 -0.00211197 3.65063e-22)
(1.00903 -0.0020772 6.81543e-25)
(1.00932 0.000786567 8.21503e-23)
(0.00999881 0.258095 0)
(0.896648 -0.158143 2.18449e-23)
(0.89534 -0.139541 0)
(1.0086 -0.000231498 4.30384e-22)
(1.00872 -0.000196972 7.70238e-23)
(1.00869 -0.000258729 1.6201e-22)
(-0.00890533 0.30323 -4.01622e-21)
(-0.0223265 0.302509 -5.26498e-21)
(-0.010692 0.304742 -1.35191e-20)
(0.992647 0.0284936 -3.21748e-21)
(0.99838 0.0265698 2.16458e-21)
(0.99339 0.0230862 -2.79444e-21)
(0.998444 0.00501283 0)
(0.998707 0.00285089 0)
(0.996344 0.0037708 0)
(0.522152 -0.00721897 -2.01813e-20)
(0.55473 -0.0117229 -3.46255e-20)
(0.581443 -0.0369622 -1.32657e-20)
(1.00891 -0.00187963 -3.70447e-22)
(1.009 -0.00190652 3.32814e-22)
(1.0135 -0.000342362 -2.41695e-22)
(1.01338 -0.00100594 -3.91866e-23)
(1.01333 -0.00113142 4.76162e-23)
(1.00566 3.94833e-05 -8.06459e-22)
(1.00499 1.98388e-07 -2.95999e-22)
(1.01331 -0.0111661 5.49526e-22)
(1.013 -0.0111401 6.17559e-23)
(1.01329 -0.0114849 4.58088e-22)
(1.01042 0.000818681 -2.52549e-23)
(1.01093 0.00110371 -2.40925e-22)
(1.01073 0.000435772 4.07424e-22)
(1.02329 -0.0191791 0)
(1.02369 -0.0186755 0)
(1.01043 0.000201336 5.44457e-22)
(1.01045 0.000225491 2.66383e-22)
(1.01063 0.000315599 -2.21664e-23)
(1.01365 -0.0112178 -5.35697e-23)
(1.01336 -0.010891 -5.64611e-22)
(1.02276 -0.0134594 -4.1296e-22)
(1.0224 -0.0136273 -5.23506e-22)
(1.02289 -0.0138298 3.15744e-22)
(0.858615 0.170711 2.52566e-21)
(0.846523 0.11822 -1.6751e-20)
(0.902029 -0.286883 -8.88387e-21)
(0.901847 -0.294609 -2.40109e-21)
(1.01102 5.1585e-05 -7.15804e-22)
(1.01094 -0.000354146 4.78057e-22)
(0.886191 -0.292778 -9.58122e-22)
(0.857614 0.17386 -5.4781e-22)
(0.846873 0.158348 -6.22039e-21)
(1.0085 -0.000256803 6.81036e-22)
(1.00852 -0.000206707 -6.12185e-22)
(1.05448 -0.0517664 -5.54864e-21)
(1.05264 -0.0507491 -1.37559e-21)
(1.05447 -0.0498235 -1.33057e-21)
(0.970988 0.00609025 -5.67267e-22)
(0.966456 0.000257609 -4.29264e-21)
(1.20512 -0.116514 1.80808e-21)
(1.19927 -0.109121 -5.45092e-21)
(1.20898 -0.114495 -9.10417e-21)
(0.87044 -0.117896 -1.59182e-21)
(0.874273 -0.141715 7.88088e-22)
(0.886753 -0.126368 4.59833e-22)
(0.883432 -0.11163 -6.97662e-22)
(0.888547 -0.11872 3.87941e-21)
(0.892275 -0.108933 3.7769e-21)
(1.01751 -0.00292205 -4.22694e-22)
(1.01724 -0.00285794 3.29067e-22)
(-0.0409226 0.293023 7.03599e-22)
(-0.0437071 0.289464 7.59927e-21)
(-0.0477428 0.286473 -2.68492e-20)
(0.910164 -0.306308 4.39901e-22)
(0.902193 -0.318345 -4.87282e-21)
(0.888726 -0.307648 4.42726e-22)
(1.00072 -0.0298368 -1.2056e-21)
(1.00169 -0.0322881 -1.17328e-21)
(0.998913 -0.0321129 4.63334e-22)
(1.02308 -0.0133325 4.6203e-22)