/*--------------------------------*- C++ -*----------------------------------*\
| =========                 |                                                 |
| \\      /  F ield         | OpenFOAM: The Open Source CFD Toolbox           |
|  \\    /   O peration     | Version:  v2012                                 |
|   \\  /    A nd           | Website:  www.openfoam.com                      |
|    \\/     M anipulation  |                                                 |
\*---------------------------------------------------------------------------*/
FoamFile
{
    version     2.0;
    format      ascii;
    class       surfaceScalarField;
    location    "900";
    object      phi;
}
// * * * * * * * * * * * * * * * * * * * * * * * * * * * * * * * * * * * * * //

dimensions      [0 3 -1 0 0 0 0];
oriented        oriented;


internalField   nonuniform List<scalar> 
27882
(
0.513243
-0.366959
-0.146281
0.504625
-0.258578
-0.246045
0.271653
-0.532698
0.261059
0.162864
0.350382
-0.22732
0.347095
-0.119768
-0.426032
-0.10209
0.528123
0.18451
0.188982
-0.373473
0.11798
-0.331011
0.213038
-0.339429
0.112113
0.251219
-0.372987
0.121774
0.370388
-0.557842
0.187455
0.561796
-0.199018
-0.362777
-0.376506
0.0880677
0.288442
0.333456
-0.165305
-0.168147
0.103873
-0.430387
0.326543
-0.428408
0.147545
0.280896
0.143128
0.418668
-0.313275
-0.168267
0.381523
-0.277629
0.172679
0.139495
-0.31217
-0.434642
0.228286
0.206358
0.0322263
-0.0967601
0.0645338
0.0867847
-0.512815
-0.333732
0.540217
-0.206483
0.0923405
-0.0601141
0.133318
-0.0584983
-0.0748196
-0.336926
0.106997
0.229929
0.264477
-0.162594
-0.101883
-0.184516
0.0286187
0.155897
0.484023
-0.397069
-0.0869533
-0.22144
0.16858
0.0528595
-0.14498
-0.191945
0.307534
-0.189547
0.0572752
-0.0947786
0.0375034
-0.171498
0.335751
-0.164249
0.269823
0.214201
-0.292885
-0.0836169
0.175604
0.0219299
0.201992
-0.223922
0.394948
-0.47626
0.0813132
0.49288
-0.29229
-0.20059
-0.190536
-0.161894
0.352437
0.509322
-0.210848
-0.298474
0.469694
-0.337065
-0.132622
0.520547
-0.361851
-0.158653
-0.186643
0.0178014
0.168842
-0.336782
0.146251
-0.195803
0.0365401
0.159264
-0.0169498
0.0164706
0.000479205
0.51002
-0.359129
-0.150888
0.575433
-0.205044
-0.0151596
-0.0226701
0.0378297
0.187013
0.323011
-0.392916
0.169438
0.223483
0.0627119
-0.119851
0.0571394
0.37196
-0.283889
0.484224
-0.461579
-0.0226399
-0.157312
0.329996
-0.194409
0.166623
0.027786
0.36543
0.1188
0.488916
-0.0787217
-0.410159
0.335596
0.134104
0.137267
-0.236926
0.0219214
-0.208478
0.186557
0.0240908
0.464868
0.0678674
-0.0531485
-0.0147189
-0.0179277
0.401835
-0.38388
0.625438
-0.299051
-0.326384
0.0685201
0.195958
-0.544671
0.231396
-0.0328821
0.0177225
0.0225135
0.0665148
-0.0890282
0.143621
-0.398382
0.254782
0.168124
-0.282811
0.114687
0.240991
-0.26643
0.0254402
-0.0929646
-0.128475
-0.0117134
0.16756
-0.155846
-0.38413
-0.0422532
0.426384
-0.0882057
0.402024
0.107299
0.139368
-0.142056
0.00268776
-0.179785
0.201715
-0.360382
-0.0237472
-0.0024362
0.214019
-0.21158
-0.544162
0.261582
0.282586
-0.120111
0.0206054
0.0995056
0.196959
0.0540881
-0.13425
0.302377
-0.107598
0.244865
-0.126786
0.00667485
0.0244228
0.0252492
-0.0496719
-0.350072
0.509049
-0.158928
0.140681
-0.15449
0.0138098
-0.0162079
-0.000741952
-0.249703
0.393346
0.522886
-0.101091
-0.421777
-0.339101
-0.134809
0.473911
0.183363
-0.168153
-0.0152091
0.407514
-0.408146
0.000632369
0.179467
-0.380389
0.200938
-0.0692127
-0.11743
0.322033
-0.221237
-0.100794
0.315983
0.309458
0.428746
0.0941619
0.0399388
0.0279286
-0.322136
-0.112504
-0.152857
-0.0429457
-0.0192708
0.0436936
-0.156913
0.241408
-0.084494
0.448243
-0.271205
-0.177035
-0.137701
0.441507
-0.30377
0.17302
-0.151099
0.283701
-0.475025
0.191331
0.476706
-0.473074
-0.00361409
0.118984
0.203052
-0.193785
0.0208392
0.172947
0.179563
0.00379992
0.554812
-0.264025
-0.290781
-0.0162176
0.195008
-0.17879
-0.345905
0.49534
-0.149429
0.550846
-0.387122
-0.163702
0.135277
-0.14699
-0.210073
-0.334083
-0.508343
0.0748886
0.433463
0.00257422
-0.013505
0.0109308
-0.22227
-0.170642
-0.504433
0.343396
0.161045
-0.421701
-0.0866331
-0.078406
-0.0858752
0.164281
0.0177568
-0.0127817
-0.157868
-0.526377
0.274514
0.2519
-0.235797
0.244286
-0.00848685
0.0142624
-0.0203566
0.00609423
-0.141313
0.536261
-0.352324
0.481457
-0.129112
0.118765
0.111611
-0.230377
-0.405224
-0.0638434
0.469075
-0.19679
0.0142904
0.1825
0.130675
0.00869349
0.439637
-0.15593
0.548088
-0.280672
-0.267415
0.20092
-0.18462
-0.0162997
-0.23456
0.077647
0.0121237
-0.00954952
0.170945
-0.160584
-0.0103605
0.0562716
-0.0163328
-0.0462238
0.159743
-0.113519
-0.24318
-0.31466
-0.0489994
0.116629
-0.0676294
-0.0174077
0.0116925
0.00571519
-0.0138592
0.0172897
-0.00343048
0.0529767
-0.258241
0.205274
-0.370248
0.0959776
0.274276
0.205871
0.28701
0.134933
-0.146879
0.154651
-0.0139699
0.0564371
-0.134843
-0.236394
-0.0221987
0.258595
0.261446
-0.0278516
0.0907134
-0.0628618
0.354683
0.0311094
-0.385784
-0.0125111
0.0199796
-0.00746846
0.0319604
0.0243112
-0.158311
0.0240668
0.134244
-0.547142
0.247652
0.299496
0.414007
-0.0593174
-0.0758152
0.0162561
0.0595591
0.00954041
0.00821636
0.491261
-0.398681
-0.0925799
-0.0172682
-0.000145541
0.0174138
0.408034
-0.13637
-0.166372
0.177687
-0.0113143
-0.122996
-0.298808
0.147955
0.0934538
0.134865
-0.391539
0.256686
0.141093
-0.390777
0.0751413
-0.123314
0.0481728
0.0891158
-0.0318405
0.230106
0.0463117
0.520265
-0.244875
-0.275387
-0.130963
-0.176077
0.307044
-0.0552297
0.117942
0.14156
0.165668
-0.110597
0.0593639
0.051233
0.421278
-0.317238
-0.104021
-0.289537
-0.107531
0.351118
-0.287693
-0.0634231
-0.0129371
-0.0032708
-0.140013
-0.0326546
0.172669
0.0021947
-0.0160539
0.27838
0.142921
0.0646274
-0.183896
0.119269
0.141295
0.0287131
-0.170008
-0.539143
0.219452
0.319694
0.236621
-0.315045
0.0784285
-0.17407
0.00196673
0.172103
0.317272
-0.264285
-0.0168327
0.00389565
-0.49402
0.0769233
0.417102
-0.192392
-0.256256
0.448654
0.186408
-0.129971
-0.119752
-0.070878
0.190631
-0.147422
0.427381
-0.279926
-0.401412
0.263746
-0.0190117
0.00650057
0.09298
-0.364149
0.271179
-0.0344924
0.0138663
-0.0102068
0.554536
-0.375519
-0.179012
-0.105018
0.147488
-0.0424699
-0.465526
0.273139
-0.136673
0.426384
-0.289702
0.104932
-0.324958
0.220031
0.164075
-0.503176
0.00265175
0.390057
-0.392661
0.0496333
0.341835
-0.443923
-0.179556
0.456203
-0.276647
-0.0730257
0.214322
-0.1708
-0.280979
0.451786
0.179211
0.0217097
0.0411795
0.145229
0.0670727
-0.186824
-0.346928
0.40014
-0.0532112
0.241692
-0.000700677
-0.0667849
0.123408
-0.0566227
0.0664188
-0.0942704
0.345252
-0.25226
0.0391891
0.0941289
0.154631
0.0163142
0.242383
-0.0944264
0.0619078
-0.414209
-0.482738
0.147235
0.335532
0.276277
-0.447071
0.0403611
-0.202716
0.162356
-0.0154221
0.0145929
0.000829237
-0.172369
-0.0121853
0.184555
-0.342456
0.263244
0.0792156
0.101405
0.323334
-0.424707
-0.153834
0.194196
0.0114825
-0.215921
0.204439
-0.3421
-0.169967
0.512076
0.0533096
-0.102309
0.201253
-0.07762
-0.123633
-0.477203
0.342102
0.135131
-0.262102
-0.199263
0.461384
-0.204944
0.495463
-0.290515
0.370775
-0.191295
-0.0170054
-0.000262809
0.516374
-0.252348
-0.264019
0.352067
-0.53391
0.181843
-0.170559
0.446843
0.463053
-0.0731647
-0.389887
0.162181
0.0144756
-0.176656
0.3793
-0.572559
0.193264
0.0844383
-0.0619247
-0.396367
-0.0279886
0.424398
-0.230259
0.0381878
-0.233786
-0.241233
-0.362501
0.437399
-0.101857
-0.375321
-0.125347
0.189975
0.212151
-0.120628
-0.0915219
0.0690391
0.143112
0.0292912
-0.391784
-0.185307
0.0679799
-0.326212
-0.227337
0.356715
-0.129368
0.185411
-0.195622
0.0102112
-0.0339785
-0.0066236
0.0406022
-0.353606
0.12628
0.0874493
-0.331924
0.244484
0.121201
0.350964
-0.472165
0.315274
-0.210337
0.219151
-0.030695
-0.188454
0.492671
-0.150835
-0.420923
0.284256
0.161064
0.172396
0.199952
-0.462035
-0.311638
-0.176016
0.487688
-0.433767
0.37958
0.0542217
-0.0419545
0.0172967
0.0246578
-0.245855
0.355843
-0.268383
0.397321
-0.435666
0.0383455
-0.1684
-0.0475209
-0.152291
0.378785
-0.226476
0.276476
-0.438957
0.0968656
0.094281
-0.293051
0.198774
-0.121742
-0.339832
-0.534269
0.258723
0.275554
-0.558325
0.262931
0.295402
0.208501
0.248979
-0.457476
-0.456431
0.109503
-0.437935
0.0879107
-0.454224
0.120495
0.00957316
-0.015757
0.00618384
0.115969
-0.234205
0.118239
-0.597501
0.33838
0.259135
-0.392849
-0.204639
0.0923776
-0.215204
0.122826
0.314623
-0.495403
0.180781
0.280511
0.239755
-0.164581
-0.238515
0.4031
-0.26625
-0.0558838
-0.0928832
0.428487
0.116278
0.255685
-0.405517
-0.0282189
-0.207835
0.141378
0.0664576
-0.159779
0.0673473
-0.169469
0.102122
-0.0788058
-0.10571
-0.03996
-0.0548186
-0.616336
0.299884
0.316455
0.249816
-0.222274
-0.0275421
-0.172204
0.163668
0.00853584
0.0404923
-0.42468
0.384217
-0.116089
0.183436
-0.207812
-0.0285804
0.0353908
0.0812382
0.160556
-0.458592
0.298061
-0.30035
0.00794526
0.435834
-0.0875008
0.0621482
0.340848
-0.402982
0.00682361
-0.0140854
0.00726179
-0.0222489
0.189566
-0.167317
0.42312
-0.294439
-0.128675
0.0105956
-0.0138514
0.00325576
0.448099
-0.287517
-0.167837
-0.365961
-0.0303694
0.120946
0.355773
-0.198904
0.316302
-0.11739
0.045505
0.327102
-0.372603
-0.0834837
-0.247521
0.155221
-0.410737
0.255526
-0.298127
0.0992274
-0.174224
0.270302
-0.0960719
0.043346
-0.123866
0.221602
-0.129224
-0.0797508
-0.325468
0.0346126
0.378896
0.0286184
-0.267535
0.329695
-0.0295564
0.175307
-0.14575
0.496449
-0.181824
0.0992564
-0.065702
-0.0335543
0.57034
-0.248612
-0.321727
0.189656
-0.175971
-0.0136852
-0.416973
0.0997579
0.0155052
-0.0140979
-0.00140731
0.169332
-0.237258
0.0679251
0.109912
-0.329537
0.219627
-0.273831
0.0996125
0.301195
0.12193
-0.409747
0.300177
0.109577
0.138871
-0.475929
-0.170402
-0.177355
0.206069
0.587362
-0.273295
-0.314066
0.212474
-0.193648
-0.0188243
-0.00798821
-0.169367
-0.140611
0.230101
-0.0209176
-0.209182
0.153161
-0.28412
0.190465
-0.0109016
0.00104852
-0.0276485
-0.166137
0.08798
0.154404
-0.198223
0.208355
-0.0101319
0.182249
-0.474538
0.014575
0.175082
-0.0145735
0.477627
0.0225238
-0.0568548
0.034331
-0.132099
0.353687
-0.521436
0.167751
0.259834
0.327529
0.378109
-0.39601
0.223216
0.317003
-0.059176
-0.037584
0.297045
-0.128111
0.380806
-0.252694
0.214376
-0.0289644
-0.00668141
-0.0721492
0.292243
0.238329
0.209916
-0.282148
-0.146228
0.302087
-0.197547
-0.104536
-0.354175
0.156713
0.197468
0.461372
-0.2986
-0.162766
0.285013
0.265851
-0.37371
-0.036032
0.266328
-0.407768
0.141461
-0.421128
0.109521
-0.534112
0.294648
0.239473
0.159293
-0.487607
0.328318
0.261235
-0.25652
-0.00471327
0.0571776
-0.194244
0.137066
-0.212123
0.187937
0.0241873
-0.0923279
0.167533
-0.0752048
0.0709652
-0.163293
0.020947
-0.00302892
-0.0179181
0.217055
0.0277385
-0.163788
0.13605
-0.266202
0.474706
0.430585
-0.0356452
-0.394938
-0.409819
0.198972
0.159822
0.142269
-0.345001
0.21326
0.131741
-0.282763
0.202925
0.175816
0.0146501
0.423775
-0.270776
-0.152996
-0.372736
-0.199818
0.14045
-0.0971046
0.284487
0.236095
0.212449
-0.0964778
0.558843
-0.288303
-0.270538
0.011029
0.00568003
-0.016709
-0.138796
0.299478
-0.206258
-0.352059
0.0100954
0.000500237
0.129339
-0.145152
0.0158139
-0.504408
0.402317
0.102144
0.318738
0.142639
-0.252206
0.469461
-0.217251
0.200711
-0.112731
0.221657
-0.51309
0.291439
-0.356594
-0.177667
-0.146007
-0.0123036
-0.0141544
-0.197968
-0.0817549
0.38394
-0.242828
-0.310226
0.210489
0.0997448
0.166907
0.0753368
-0.242241
0.132625
-0.140339
0.00771324
-0.212008
-0.154246
0.366255
-0.608094
0.359972
0.248123
-0.0306247
0.225794
0.333051
-0.313578
0.359087
0.0396252
0.121351
0.294628
-0.415943
0.175868
-0.00728748
-0.24198
-0.366113
0.258953
-0.0920442
0.526466
-0.228928
-0.297525
-0.205432
0.177784
0.19878
-0.495001
0.296225
0.353632
-0.0872874
-0.0145735
0.012932
0.00164155
-0.156246
-0.339156
0.127441
0.37336
-0.500801
0.192734
0.0373688
-0.00617195
-0.291891
0.29807
0.286036
-0.433426
-0.46497
0.082327
0.382654
0.503427
-0.324328
-0.179055
-0.0149149
0.182309
-0.167393
-0.0787369
0.0283338
0.050403
0.215059
0.0743609
-0.289411
0.240585
-0.117536
-0.123049
0.168222
-0.17621
0.125048
-0.0499068
0.330345
-0.373261
0.0429163
0.0372107
0.164043
-0.0890853
0.419429
-0.509608
0.330807
0.178806
0.163071
-0.135332
-0.176082
0.242172
0.017502
-0.259672
0.221659
0.0858822
-0.4618
0.282245
0.399422
-0.382864
-0.0165557
0.140436
0.299207
-0.514265
0.217871
0.296406
0.310669
-0.121672
0.457341
-0.120334
-0.336989
0.430987
-0.309597
0.0798653
0.377492
0.0107526
0.334604
0.260371
-0.36118
0.100809
-0.31729
-0.158389
0.475695
-0.543856
0.365153
0.178706
0.124239
-0.139388
0.0151493
-0.152218
-0.374121
-0.25944
0.455395
-0.195945
0.358342
0.125735
-0.484077
0.238182
-0.244349
0.0275194
0.371906
-0.224182
0.45247
-0.208918
0.18696
0.388475
0.347048
0.0352333
-0.382281
-0.200406
0.0248418
0.175566
-0.146043
0.102065
0.0439785
-0.0780481
0.0746401
0.00340799
-0.237456
0.0392336
0.386026
-0.383327
-0.356689
-0.0602638
-0.0476196
-0.0311173
0.000410987
0.511747
-0.315341
-0.196403
0.507759
-0.142324
0.127393
-0.359488
0.232097
-0.0099941
0.524761
-0.137075
0.484123
-0.0839228
0.0222931
0.0616297
-0.137806
-0.187147
0.140766
-0.0100908
0.194686
0.317064
0.491109
-0.172366
0.11134
0.129246
-0.457515
0.258271
-0.132433
-0.255912
0.388361
-0.504807
0.216859
0.287998
-0.530399
0.309401
0.220999
0.0456947
0.29957
0.0803452
-0.442152
0.338089
-0.372976
0.0348874
0.26651
-0.439296
0.172789
0.315983
0.107794
0.196057
-0.0278349
0.492914
-0.119554
-0.163741
0.430254
-0.423665
0.106389
-0.251907
0.186557
0.0653518
0.338379
-0.140976
-0.197401
0.0497216
-0.261728
-0.249075
-0.131301
-0.00593564
-0.134078
-0.181804
0.230566
-0.0487606
0.235462
0.00671307
0.295626
0.10138
-0.397
0.469273
-0.309977
-0.471141
-0.189027
0.273178
-0.084147
-0.291314
0.102294
-0.0310667
0.00463508
0.0264316
-0.0472041
-0.0633926
-0.247274
0.447246
-0.286218
0.285852
-0.191567
-0.0140813
-0.0617339
-0.533094
0.244794
-0.284156
0.448231
0.357054
-0.346257
-0.429756
-0.114098
-0.134844
-0.255033
0.389887
0.451939
-0.156304
-0.122633
-0.188551
0.311188
0.433613
-0.00792715
0.174551
-0.376342
0.127285
0.335895
-0.477207
0.2096
-0.214818
0.00521809
-0.0214244
-0.0566237
-0.428915
0.29469
0.13423
-0.216869
-0.287556
0.427572
-0.269922
-0.157634
-0.39385
0.134419
0.270944
0.118662
-0.389585
-0.409743
-0.440856
0.289253
0.151606
-0.510578
0.168357
0.342223
-0.30737
0.22135
0.0860246
0.132918
-0.295031
0.162114
0.293233
0.134353
0.138853
-0.168408
0.482274
0.0571342
-0.401504
0.344374
0.158867
-0.00423565
-0.209915
-0.334755
-0.232851
-0.297546
-0.229627
-0.113157
0.342784
-0.110313
-0.42237
-0.0130674
0.249692
0.0264199
0.186055
0.503149
-0.133388
-0.369749
-0.124693
0.389648
-0.264935
-0.00580377
0.223001
0.331816
-0.348671
0.235364
0.113306
0.488518
-0.18865
-0.299865
-0.518836
0.165677
0.353166
0.249578
0.2769
-0.196971
0.194536
0.0811086
-0.293618
0.212514
0.210017
0.128364
0.387884
-0.253007
-0.168475
0.301392
-0.337839
0.463506
0.159359
0.302753
-0.462094
0.0194871
-0.00991392
0.490586
-0.216628
-0.273955
0.275969
0.278574
0.246422
-0.382563
0.136157
0.501183
-0.35133
-0.14985
0.148558
-0.181212
0.242978
-0.181094
-0.0618841
0.284981
0.161433
-0.446408
-0.173481
0.285273
0.14532
-0.0317542
-0.113566
0.353767
-0.226373
-0.272527
-0.160264
0.432825
0.249262
-0.413839
0.0553987
-0.228231
0.172835
1.93329e-05
-0.071782
-0.164013
0.441348
-0.316982
-0.124363
0.0832455
-0.350282
0.267051
0.249376
0.251811
-0.178353
0.166146
0.0122072
-0.337759
-0.181069
0.340268
-0.257009
-0.360167
-0.172926
-0.045706
-0.341068
0.38679
-0.0722806
-0.156867
0.229149
-0.15978
-0.16459
0.324372
0.494564
-0.142497
-0.337515
0.309395
0.131957
0.120594
0.217693
-0.338281
0.384916
-0.138478
0.183723
-0.482823
0.29912
0.465754
-0.149769
0.0400804
-0.117918
0.172045
-0.195475
0.0234306
0.00790804
0.00938161
-0.0104067
-0.0206601
-0.390538
0.138336
-0.434366
0.484077
-0.0497099
0.00620865
-0.355725
0.348848
0.00687774
0.195137
0.295451
0.16383
0.332621
0.241705
-0.366764
0.125071
-0.146585
0.0187211
-0.187284
0.168564
-0.131052
-0.373316
-0.0762501
0.369456
-0.462332
-0.445179
0.31577
0.129427
-0.465481
0.166887
-0.314024
0.151165
0.00770269
0.229499
0.151099
-0.380597
0.27051
0.155882
0.221009
0.178517
-0.194734
-0.469804
0.185649
-0.000614205
0.380601
-0.0425118
0.368042
-0.126326
-0.33259
0.485759
-0.153163
0.299511
0.241432
-0.129821
0.279797
-0.402793
-0.135543
0.299753
-0.218639
0.111438
-0.256417
0.289288
0.159391
-0.448675
0.0258998
0.0432871
-0.0691868
0.00706799
0.013879
0.320872
-0.210956
-0.444089
0.273536
-0.286085
-0.112596
0.255503
-0.200101
-0.192143
-0.0702356
0.26238
0.0809467
-0.20869
0.127744
0.155468
0.0203977
-0.175865
-0.105364
-0.226249
0.331624
-0.362448
0.371982
-0.00953394
-0.087966
-0.40605
0.187074
-0.0150278
-0.137753
-0.494751
0.204703
0.290061
0.0769342
-0.195174
0.118241
-0.0669997
-0.0882999
-0.0759621
-0.161904
0.237869
0.142464
-0.265091
-0.173987
-0.136245
-0.137581
0.447763
0.234052
0.117068
0.265015
-0.194697
-0.0703165
0.152607
-0.402668
0.25007
0.199356
-0.171291
0.21705
0.139675
0.0244515
0.162496
-0.186946
0.298555
0.135381
-0.433933
0.355829
0.0989759
-0.454805
0.150703
0.228911
-0.316121
0.270426
0.112674
0.486933
-0.311167
-0.175747
-0.120741
0.554854
-0.259571
-0.295283
-0.0251512
0.145662
-0.0104561
0.208004
-0.326827
0.118843
0.234466
-0.35655
0.122093
-0.0431301
0.212583
-0.169452
0.239192
-0.36175
0.122568
0.00857552
-0.3643
0.166542
-0.244045
0.0775052
-0.295113
0.292156
-0.123828
-0.168324
0.337264
-0.345691
0.00843779
-0.26294
0.482394
0.0826749
0.433519
-0.134962
0.0232856
-0.131025
-0.0772603
0.0147937
0.0165533
-0.031347
-0.290105
0.347243
0.135558
-0.429993
0.163847
-0.239807
-0.0627698
-0.0236232
0.086393
0.171022
-0.243624
0.0726043
0.14399
-0.414763
0.0780584
-0.360746
0.282687
-0.445507
0.000974883
0.444535
0.209534
0.345321
-0.473474
0.31206
0.161426
0.225842
-0.144895
0.354598
-0.115395
0.319474
-0.233713
-0.085754
0.030411
-0.00519676
-0.0252143
0.587982
-0.328147
-0.29997
0.146956
-0.33518
0.188232
-0.0885605
0.130489
-0.409072
0.278594
0.374471
-0.166445
0.320146
0.136058
-0.0396567
0.0168642
0.0227925
-0.29279
0.457941
-0.165144
-0.27189
0.402389
-0.161019
-0.312443
0.0209295
0.111696
0.0373288
0.20565
0.4197
-0.292042
-0.127654
-0.458453
0.140518
0.317951
0.249921
-0.403295
0.153378
0.232716
0.0867651
-0.119129
-0.0124684
-0.450399
0.162246
-0.43474
-0.0162632
0.0315859
-0.254511
0.222927
-0.329501
0.450703
0.475581
-0.298388
-0.177191
-0.101485
-0.234365
0.335864
0.0460574
0.19823
-0.285074
0.447357
0.49682
-0.331168
-0.165647
0.21227
-0.0195346
-0.131731
0.348791
-0.00253647
-0.130193
0.431686
-0.301452
0.0176982
-0.0276976
0.00999943
0.507656
-0.356014
-0.15161
-0.0676611
0.00304035
-0.0945552
-0.266624
0.167981
0.0190932
0.482724
-0.0521366
0.349547
-0.0122769
0.0877948
0.279516
-0.36731
-0.153805
0.403729
0.0556082
-0.247749
0.286812
0.152074
-0.438864
-0.430459
0.291757
0.138717
-0.0129207
-0.269889
0.0153808
-0.0108794
0.328412
0.176076
-0.468859
-0.449679
0.172504
0.277204
0.103831
-0.315066
0.211239
0.318119
-0.171156
-0.0860683
0.45553
-0.133897
-0.257775
0.391691
-0.426924
0.374245
-0.223515
-0.390549
0.265877
0.293666
-0.464848
0.181212
0.283652
0.0645563
-0.142176
0.00290158
-0.193252
0.190351
-0.0943155
0.129706
-0.265124
-0.190338
0.455462
-0.0217643
-0.0178925
-0.25101
0.393817
-0.142789
-0.0596714
-0.241226
-0.112944
0.291511
0.166436
0.265528
-0.439955
0.174456
0.502116
-0.323636
-0.178468
-0.414907
0.453745
-0.0388289
-0.262804
0.126564
-0.156647
-0.0518314
-0.0782531
-0.0677901
0.204064
-0.172476
-0.478098
0.311903
0.166197
-0.152167
-0.253685
0.40587
-0.23282
0.0510176
0.206723
0.0545136
-0.0619071
-0.137734
0.199642
-0.444989
0.0694762
-0.418171
0.145687
0.272491
0.180878
0.315947
-0.00638488
0.0104544
-0.00406952
-0.0839454
-0.114421
0.198366
0.215673
0.444264
-0.458373
0.0141317
0.134741
-0.135599
-0.0281893
0.198483
0.277101
0.00360897
0.233826
-0.284371
0.0505451
0.190956
-0.295662
0.104711
0.523636
-0.172671
0.497831
-0.161936
0.0332585
0.0558573
0.19784
0.0962334
-0.294067
0.324472
0.157572
-0.48204
-0.0557043
-0.134366
0.190071
0.0441573
-0.133046
-0.262442
0.395511
-0.247036
-0.286874
-0.212823
0.423733
-0.210908
-0.242562
-0.162929
-0.135396
-0.255384
0.390799
0.237206
-0.398495
0.161323
0.158969
-0.3873
0.228341
0.0949791
0.25204
-0.346999
0.142024
-0.339826
0.197808
0.212681
-0.202151
-0.0105286
0.337874
-0.355115
0.0172514
-0.0865689
0.284415
-0.221967
-0.116978
0.338945
-0.00668277
0.000297892
0.0114536
0.370089
-0.254942
-0.206858
0.0311836
0.0708487
-0.102032
0.32019
-0.295693
-0.0244903
-0.447034
0.269458
0.177582
0.451206
-0.159688
0.322106
-0.459181
-0.121433
0.306351
-0.184913
0.0201259
0.30007
-0.417786
0.45338
-0.0355856
0.125351
0.147833
0.335843
-0.193813
-0.10905
0.294573
-0.185515
-0.00237528
0.0327863
-0.02169
0.240843
-0.521489
0.299243
0.222255
0.234472
0.131849
-0.36631
-0.0159
-0.247433
0.263333
0.211919
0.28503
-0.461799
0.176772
0.0912751
-0.0383709
0.285747
0.143016
-0.428732
-0.0861148
0.197456
0.198352
0.0139196
-0.398448
0.258988
0.139482
0.271134
-0.429008
0.157892
0.214502
-0.431154
0.216662
0.310064
-0.170565
0.142018
0.00879535
-0.150813
-0.0459128
-0.419048
0.0990403
-0.364164
-0.187253
0.136854
0.0262172
0.285477
-0.0516506
0.308108
-0.204271
-0.335727
0.232569
0.103161
-0.150005
-0.253787
-0.105699
-0.0716975
-0.160101
0.380504
-0.220392
0.0791826
0.0499789
-0.129161
-0.0175476
0.179728
0.26676
-0.393676
0.126922
-0.224967
0.0943868
0.130581
0.105704
-0.425376
-0.0337396
0.45912
0.19641
-0.177688
-0.163041
0.448075
0.372419
-0.224405
0.152126
0.0994175
-0.293124
0.193713
-0.28263
0.323144
0.482334
-0.183109
-0.299223
-0.319968
0.454902
-0.134902
0.385975
-0.23336
-0.230454
0.383735
0.492376
-0.390988
-0.152609
0.418157
-0.159085
0.43024
-0.0363538
0.367606
-0.133125
0.28388
0.152943
-0.436817
0.19119
0.0214922
0.216583
-0.149509
0.144863
-0.364622
0.21976
0.183696
-0.16922
-0.00478189
-0.368194
0.255465
0.497098
-0.428746
-0.0683491
-0.288972
-0.109455
0.153192
0.00227581
0.27782
-0.518159
0.240356
-0.315406
0.440207
-0.124793
-0.256738
0.197359
0.0593813
0.500997
-0.320115
0.3064
-0.0805573
0.208403
0.104914
-0.313311
0.213595
0.110185
-0.32377
-0.104215
-0.110345
0.214561
0.269609
0.123927
-0.393515
-0.0209131
-0.162177
0.412103
0.0849976
0.341194
-0.00330969
-0.238853
0.154454
0.0843989
0.0740539
-0.0167594
0.0285106
-0.255469
0.23957
-0.29183
0.475572
-0.0883802
0.324492
-0.236095
-0.266365
0.348196
-0.0818303
-0.405889
-0.0392754
-0.0673884
-0.189346
0.198462
-0.326572
0.19869
0.27475
-0.473437
0.135753
0.15686
-0.292612
-0.381427
0.138896
-0.211551
0.370531
0.421547
-0.0374535
-0.219064
0.287489
-0.188067
-0.25148
0.35433
-0.10285
0.108881
-0.433153
-0.468036
0.329919
0.13814
-0.0947979
-0.297121
0.391921
0.371725
0.142624
-0.000605635
0.23212
0.0771409
-0.309256
0.314618
0.167718
0.0171843
-0.000377484
-0.0168068
0.017097
0.199486
-0.195779
0.491236
-0.295454
0.000178879
0.0765511
-0.463651
-0.0618193
-0.0221036
-0.335124
0.170233
0.496521
-0.247141
-0.0829988
0.291407
0.366644
-0.358068
0.115738
-0.353044
0.23732
0.0245748
-0.0873446
0.360502
0.13188
-0.18816
0.127801
-0.107195
-0.384189
-0.0307099
0.3067
0.138722
-0.44542
0.404933
-0.133968
-0.0242558
0.224923
0.0814774
0.2313
0.136752
0.323812
-0.0670073
0.45412
-0.311645
-0.142444
-0.418873
0.258642
0.312659
-0.176905
-0.12181
-0.269267
0.391099
-0.0689181
0.100102
0.206185
-0.38874
0.182568
-0.257298
0.0791709
0.17813
0.157501
0.290624
0.354929
-0.148732
-0.140571
-0.327442
0.349064
-0.233312
0.191913
-0.189011
0.338011
-0.105888
0.24428
-0.0709671
-0.173312
-0.209739
0.0276343
0.182106
0.135637
-0.390896
0.255267
0.222448
-0.376037
0.15361
0.497021
-0.273654
-0.223365
0.178552
0.246487
-0.425007
-0.358505
0.107024
-0.025591
-0.426547
0.452191
-0.217253
-0.125579
-0.126327
0.241716
-0.500293
0.135027
0.499086
-0.339614
-0.159467
-0.41103
0.0910886
-0.0143056
0.0166843
-0.00237868
-0.383515
-0.0508494
0.0522695
0.328332
0.20749
0.015753
-0.223242
0.300832
-0.151219
0.175672
-0.249014
0.4276
-0.201213
0.488149
-0.286916
-0.143213
-0.173092
0.316309
0.125982
0.264006
-0.389979
0.134246
0.345273
-0.113963
0.296038
-0.105079
0.241099
-0.369222
0.128136
0.0589371
-0.224239
0.0638153
-0.0874386
0.295807
0.219088
0.135522
0.271851
-0.436958
0.16513
0.271591
-0.440254
0.168667
0.384135
-0.248491
-0.138872
-0.262487
0.401379
-0.314395
-0.180605
0.201011
-0.311104
0.1101
0.153945
-0.286602
0.189753
0.28946
-0.479208
-0.10807
0.0576381
0.0504317
0.0118537
0.128913
-0.368427
-0.151161
0.481972
0.175584
-0.198349
0.0227655
0.0235816
-0.28707
0.263494
-0.164313
-0.0105632
0.174877
-0.187446
-0.124292
-0.141087
0.265385
-0.01004
-0.00897168
-0.338273
-0.156939
0.495241
0.437409
0.320848
0.174619
-0.0900188
-0.203594
0.283109
-0.424505
0.141401
0.167421
-0.431442
0.104703
-0.190817
0.374105
-0.140288
-0.233815
0.43239
-0.28666
-0.145726
0.197458
-0.0218735
0.0374039
-0.0102268
-0.0271771
0.0399878
-0.0353527
-0.321007
0.180033
-0.316794
0.173501
0.143304
0.0911179
0.192809
-0.283912
0.223958
0.121253
-0.345211
0.206225
0.294777
0.529245
-0.219364
-0.309874
0.176395
-0.19152
0.015126
0.30541
-0.376027
-0.041751
-0.175874
0.00366538
0.0118398
0.164834
-0.238815
0.0739835
0.0370555
-0.331991
0.294939
-0.162247
-0.315849
-0.181298
-0.075998
0.347337
0.0850559
0.248947
-0.337311
-0.0730198
0.372444
-0.131332
0.257681
0.0374611
-0.295139
0.53086
-0.203754
0.259667
-0.13431
0.231893
0.105667
-0.337554
-0.226383
0.435617
-0.209233
0.256656
-0.247067
-0.00958382
0.252533
-0.40004
0.14753
-0.117365
0.346864
0.41743
-0.110729
-0.217234
-0.304247
-0.285753
-0.202567
0.488327
0.00135941
-0.222551
0.221196
0.434001
-0.162406
-0.165595
0.307872
-0.142275
0.0241445
-0.062126
-0.365672
0.371664
-0.0059912
-0.0806769
-0.0596617
-0.360149
0.272648
-0.302993
0.340053
-0.184182
0.0275358
-0.351653
0.234289
0.237678
-0.362856
0.125188
0.0943809
0.191475
-0.144302
-0.196531
0.287663
-0.172699
0.174061
0.270877
-0.24729
0.0795173
0.185498
0.198542
0.0110592
0.294952
0.234301
-0.509965
0.185826
0.32415
-0.2493
0.29581
-0.0465075
0.198873
-0.409424
0.0492745
-0.291291
0.509173
0.314788
-0.11377
-0.422082
0.269934
0.171511
0.304772
-0.399567
0.235313
-0.158377
0.0140058
0.0152122
-0.029218
0.24951
0.135422
-0.221124
-0.171792
-0.288473
0.145832
0.252863
-0.398676
-0.177488
0.413293
-0.146526
0.182947
0.0243446
0.342299
0.194012
-0.20418
0.0101686
-0.0710506
0.328735
-0.156167
0.377829
0.447223
-0.0453661
-0.211708
-0.0958714
0.307589
0.157282
0.249564
-0.406833
0.349562
0.0049125
0.187001
-0.0158285
0.00152294
-0.20443
-0.236424
-0.059328
-0.0429809
0.270527
0.142774
0.0108854
0.00909422
-0.0157906
-0.0453348
0.0611254
0.0075255
0.0298784
0.13516
-0.066231
-0.0689294
-0.174596
-0.0150393
-0.321738
-0.367235
-0.143342
-0.157467
0.142749
0.0147178
-0.25023
-0.415459
0.247191
0.250952
0.135569
-0.386505
-0.137452
-0.0310397
-0.218259
-0.157138
-0.137019
-0.376065
0.0563335
-0.371672
-0.0612752
0.0835683
-0.164072
-0.0149257
0.178997
-0.444493
0.238948
0.205545
-0.145768
0.125855
0.019913
0.189828
0.100362
-0.29019
0.430253
0.148208
-0.414043
0.265841
0.126583
0.268346
-0.394905
0.0288942
-0.130591
0.167802
0.374274
-0.447438
0.223432
-0.03224
0.154012
0.0218561
0.00146295
-0.0155608
0.0158827
-0.00797467
-0.0535641
-0.146635
0.2002
-0.0158427
0.200264
-0.184421
0.201363
0.23216
-0.0197883
0.25547
0.00119071
0.254601
0.126206
0.179853
-0.392674
-0.219267
-0.101737
0.0141731
0.113741
-0.127914
-0.0206122
0.223021
-0.0633526
-0.335016
0.249987
-0.474167
0.433245
-0.0591717
-0.048898
-0.278018
-0.115654
-0.166756
-0.312919
0.169711
0.210222
0.163885
0.434767
-0.418816
-0.0158874
-0.402165
0.0870226
0.315142
-0.28367
0.159385
-0.411187
0.0532664
0.357921
-0.36068
0.529038
0.301004
-0.156911
-0.144089
-0.349037
0.105068
0.243971
-0.186913
0.023901
0.00205038
-0.0259514
-0.227381
0.234123
-0.334099
0.0999769
-0.0746863
0.0512924
0.0233939
-0.212775
0.182277
0.0304999
0.159393
-0.0852484
-0.321073
0.406323
-0.1861
0.436089
0.251393
0.135031
-0.386408
-0.159694
0.425902
-0.266169
-0.288003
-0.198259
-0.186427
-0.279094
0.503098
-0.204935
-0.298158
0.093061
-0.0086226
0.292809
0.127822
-0.420628
-0.162048
0.0266271
0.169784
0.192079
-0.288199
0.0961208
0.198166
-0.02177
-0.303866
0.0979387
0.205933
0.19688
0.102879
0.342243
0.111844
-0.454086
0.104604
0.196405
-0.139595
-0.251107
0.39071
-0.258877
-0.150629
0.409521
0.231411
0.122358
-0.332161
0.48135
-0.149169
-0.0270518
0.152791
-0.125739
0.179715
0.278827
-0.458529
-0.142668
-0.267316
-0.174778
0.442093
-0.25381
-0.176209
0.430025
-0.126816
0.322952
-0.266616
-0.479566
-0.0802329
-0.176942
0.257178
0.25661
0.126384
-0.382984
-0.411378
0.14147
0.328993
-0.0604734
-0.0815824
0.270161
0.10018
-0.370334
0.299707
-0.407705
0.107998
-0.0357033
-0.0841478
-0.099646
0.289474
-0.0295903
0.0104568
0.0191335
0.166965
0.0787952
-0.245758
0.452382
-0.291646
-0.16072
-0.427827
0.0956882
-0.0230576
-0.0516287
-0.173226
0.142532
-0.28265
0.408904
-0.109196
0.240128
-0.168456
-0.0716709
-0.174635
0.485417
-0.16331
0.472602
-0.185235
-0.287353
-0.168639
0.461368
-0.29271
0.383116
-0.257126
-0.276369
0.360835
-0.0844539
0.314556
0.132072
-0.446627
0.418398
-0.147515
-0.202902
-0.170803
0.130973
0.267997
-0.398947
0.516924
-0.163236
-0.217153
0.460783
-0.24363
0.0690082
-0.409496
0.340488
0.238092
0.265011
0.403276
-0.146658
-0.426352
-0.0068883
0.433242
-0.030955
-0.0357529
-0.00805486
0.0438077
0.0199977
-0.382445
-0.0183082
0.032314
0.383574
-0.331304
0.199261
-0.000718941
-0.0515434
-0.418652
-0.0954141
-0.185352
0.168256
0.017097
-0.00397492
0.0120844
-0.00810944
-0.145612
-0.264841
0.410468
-0.243316
-0.0649723
0.30829
-0.334475
0.1338
0.0298683
0.250061
0.34625
-0.40077
0.0545214
0.406691
-0.260842
-0.144189
0.448098
-0.361312
-0.0177043
-0.169579
0.0052899
0.167731
0.021756
0.0833145
-0.10507
0.109477
-0.335714
-0.487184
0.277269
0.456886
0.496825
-0.344799
-0.152018
0.106936
-0.32614
0.219207
-0.27753
0.394031
-0.116473
-0.0262943
-0.0401403
0.192159
-0.152019
-0.0919231
0.393123
-0.120362