/*--------------------------------*- C++ -*----------------------------------*\
| =========                 |                                                 |
| \\      /  F ield         | OpenFOAM: The Open Source CFD Toolbox           |
|  \\    /   O peration     | Version:  v2012                                 |
|   \\  /    A nd           | Website:  www.openfoam.com                      |
|    \\/     M anipulation  |                                                 |
\*---------------------------------------------------------------------------*/
FoamFile
{
    version     2.0;
    format      ascii;
    class       surfaceScalarField;
    location    "900";
    object      meshPhi;
}
// * * * * * * * * * * * * * * * * * * * * * * * * * * * * * * * * * * * * * //

dimensions      [0 3 -1 0 0 0 0];
oriented        oriented;


internalField   nonuniform List<scalar> 
27274
(
-0.000515725
0.000728487
-0.000213161
-3.9739e-05
0.000183855
-0.000144116
-0.000996504
-0.000227817
0.00121831
0.000886699
-4.0219e-05
-0.000877087
0.000501912
0.000470407
-0.000976127
0.000226815
0.000242995
-0.000469915
-0.000669174
-0.000304306
0.000955391
-4.92136e-05
-0.00041536
0.000464421
0.000630947
0.000246908
0.00016054
-0.000199111
3.85701e-05
-0.000112771
-0.000853749
0.00094896
0.000142714
5.95201e-05
-0.000202234
0.000453858
-0.000187932
-0.000265969
-0.000951887
0.00110226
-0.0001511
-0.00128477
0.000511502
0.000768811
0.000854799
-0.000548948
-0.000306657
-0.000170512
0.000194656
-2.41443e-05
0.00147691
-0.000763688
-0.000730344
-0.000254838
-0.000713584
0.00096512
3.13005e-05
0.000175891
-0.000207195
0.000668379
-4.159e-05
-0.000627186
0.00117445
-0.000700193
-0.00047541
-0.000199533
0.000196246
3.28648e-06
-0.000359856
0.000858349
0.000295597
-0.000840625
-0.000553333
0.000777152
-0.000230008
-0.00013663
0.000823659
0.00068112
7.41152e-05
-0.000755433
-0.000162187
-5.71556e-05
0.000219343
0.00109029
-0.00136857
0.000274344
0.00104987
-2.98587e-05
-0.00102522
-0.00046077
0.00105824
-0.000600083
0.000850044
0.000606607
0.000141637
-5.66018e-05
-0.000141067
0.000523295
-0.000468946
-5.4476e-05
7.64649e-05
-0.000592516
1.42829e-06
0.000780937
-0.000317474
-9.09256e-05
0.000408373
-7.67477e-05
0.000757778
0.000112526
0.00086126
-0.00099039
-0.00108809
0.000135478
-0.000233694
-0.000146761
0.000380426
5.34615e-05
-0.00105569
-0.000107677
0.000199177
-9.14999e-05
-5.60718e-05
-0.000132999
0.000134777
1.15082e-05
-0.000329
0.000388801
0.000102643
-0.0004916
0.000851264
-0.000702065
-0.000149395
-0.000329294
-0.000247442
0.000576536
4.54754e-05
-0.000857565
0.000798086
-0.000479302
0.000924652
-0.000466302
0.00129234
-0.00109205
-0.000207669
0.000160521
-0.000164233
2.78694e-06
-0.000216785
6.802e-05
0.000148765
-0.000930412
0.000350357
0.000570506
-4.93627e-05
-3.71113e-05
5.57266e-05
0.000428584
-8.78243e-06
-0.000419895
-0.000494074
-0.000793843
-0.000221018
9.48642e-05
0.000126153
-0.000451346
0.000166356
0.000284954
0.000799091
-0.000766963
-0.000343366
-0.00018127
0.000524472
0.00117071
-0.000448596
-0.000738732
-0.000562017
0.000284934
0.000276955
0.000181137
-3.8423e-05
0.000453359
0.000274663
-0.000201484
0.000105926
9.55578e-05
0.000398645
0.00017933
-0.000578028
0.000812827
0.000675285
0.00049804
-0.000301791
-0.000169624
0.000471324
-6.07054e-06
-7.79382e-05
7.77487e-05
-0.000176001
-0.000275377
0.000274853
0.000730696
-0.00102036
0.000449836
-0.000499215
-0.000981547
0.000298197
-6.58805e-05
0.00024379
-0.000177911
0.000602712
0.000286423
-0.000891557
0.000780296
-0.000562375
-0.000218924
-0.000940637
0.00113056
-0.000198368
0.000747437
-0.00107129
0.000318373
-0.000275991
-4.23884e-05
-9.90892e-05
0.000766903
0.000278618
-0.00048921
0.000210476
-0.000797919
0.000239377
9.33357e-05
0.000360473
-0.00022138
0.000118031
0.000103348
-0.0002079
0.000239197
-0.000232846
7.0659e-05
0.000185324
-0.000225044
3.97201e-05
-0.000331502
3.33523e-05
0.000298134
0.000149957
-0.000279229
0.000141869
-0.000780462
0.000630916
0.00104712
-0.000861371
-0.000212474
-0.000210763
0.000210763
-1.73145e-05
-0.000182218
0.000203155
0.000678936
-0.000889322
0.000693215
8.62171e-05
-0.000780584
-6.70196e-05
-0.000149766
-0.000161436
-2.74789e-05
0.000188915
-0.000170978
0.000195665
-2.46869e-05
-2.7452e-05
-0.00014546
0.000172912
-0.000397612
-0.000332454
0.000729828
7.54161e-05
-0.000301226
0.000225804
0.000309228
0.000598915
-0.000911547
0.000432518
-5.64685e-05
-0.000376109
8.65131e-05
8.91902e-05
-0.000175703
-0.000398408
0.000279149
0.000119234
0.000796939
-0.000498391
-0.00029899
0.000175169
0.000165645
-0.000421698
0.00117228
-0.000754585
-0.000629867
-0.000202609
0.000832271
-0.000435471
0.000732391
-0.000299038
-0.000923898
0.000293857
0.000192227
-0.000244945
5.27171e-05
0.000148795
2.2168e-05
-0.000207425
0.000115727
-0.000168225
5.24989e-05
0.00016542
-0.000231302
-0.000154054
0.000171322
-1.72677e-05
0.000185764
-0.000583587
0.000198446
-3.79053e-05
0.000275197
-0.00025882
-1.63829e-05
-0.000311687
0.000912059
0.000128586
-0.000430453
0.000899269
-0.000703416
-0.000195958
-0.00020247
0.00110787
0.000175109
0.000234925
-0.000208864
-2.4391e-05
0.000333116
-0.000135614
-0.000197506
0.000116902
0.000900105
0.000472881
-0.00097282
0.000114704
0.000163257
-0.000277966
-0.000567012
0.000162517
0.000404291
-0.000162074
0.000854109
-0.000303588
-0.000193421
0.00049693
0.000208757
2.36161e-05
-0.000734866
0.00144725
-0.000717225
0.000658796
-0.000786162
0.00096539
-0.00136801
0.000399976
-0.000362992
-7.95407e-05
0.000442474
-1.35166e-05
-0.000157462
0.000161818
2.27043e-05
-0.000184522
0.000908724
-0.00101237
0.000101463
0.000472384
-0.000897316
-0.000143896
-0.000135769
0.000279665
1.57932e-05
-0.000913841
0.000896864
-0.000325405
0.000744011
-0.000418605
-0.000174537
0.000221731
-4.71942e-05
0.000965675
-0.000210791
-0.000756565
6.67406e-07
-0.000175205
0.00108602
-0.000933541
-0.000156569
-0.000685298
0.000394982
0.000128227
-9.45462e-05
-0.000126472
0.000481707
1.80898e-05
-0.000499929
0.000116157
-7.87271e-05
-4.10859e-05
-0.000148888
0.000263588
-1.24013e-06
-0.000152814
6.30224e-05
5.00924e-05
-0.000128427
0.000513035
-0.000384748
0.00084723
-0.000473949
-0.000373761
-0.000914981
0.000366935
0.000546908
0.000337934
-0.000617577
0.000279491
0.000587942
-0.000751047
-0.000391394
7.40507e-06
0.000383954
1.40237e-06
0.000208843
-0.000210246
-0.000253085
6.01843e-05
0.0001929
-0.000399814
-0.000220501
0.000620078
-5.80968e-06
-0.000287795
0.000293584
0.000762171
0.000287539
-0.00106334
-0.00027959
0.000254167
2.54233e-05
0.000217737
-8.45717e-05
-0.000133166
-0.0010799
0.000647683
0.000410182
0.000934449
-0.00106115
0.000106997
0.000579135
0.000274782
0.00021666
-0.000135559
-8.1101e-05
-0.000371863
-0.000231823
0.000603451
-0.000602119
0.000864314
-0.000268773
0.000112154
0.000220958
-0.000248932
0.00017044
7.8491e-05
0.000252287
-0.000445523
0.000193239
0.000225834
-0.000231659
0.000635463
8.82424e-05
-0.000724479
-0.000380344
-0.000483901
0.000843535
-0.000183057
0.000400908
-0.000217873
-0.000192153
-4.36914e-06
0.000196522
-0.000244014
2.18531e-05
0.000222161
-0.000363795
3.82244e-05
0.000325548
-0.000956872
0.000751401
0.000205369
3.83112e-05
-0.000208823
0.00047077
0.00115485
-0.00100164
-0.000158812
-0.000201126
0.000788023
0.000338554
-0.000215847
-0.000122712
0.00010896
0.000364545
-0.000473568
8.49985e-05
-0.000851792
0.000765648
4.38032e-05
-0.000254384
0.000210575
-0.000162376
0.000797038
0.000382296
0.000202099
-0.000584742
-0.00016478
-0.000142497
0.000776549
-0.000636247
0.000491252
-0.000859704
0.000368092
0.000236531
-2.60518e-05
-0.00021048
-6.30549e-05
-0.00018096
-0.000117186
0.00020485
-8.76639e-05
-0.000359317
-0.000316363
0.00067525
-7.02869e-05
0.000186013
0.000268287
-0.000109656
-0.000158631
0.000242645
-7.06902e-05
-0.000171955
-0.000301505
0.000683404
3.05039e-05
-0.00076955
0.000896753
0.000185649
3.73215e-05
-0.000231744
0.00019442
-6.91697e-05
0.000975478
0.00111643
-0.000372613
6.17877e-05
0.000256578
-0.000372244
0.000128521
0.000243712
-0.000170581
0.000315767
-0.000750848
0.000856597
0.000107039
-0.000371749
0.000264921
0.000106818
-0.00131363
0.00102907
0.000280676
0.000535499
-0.000257026
0.000567913
0.00087338
-0.000224155
-2.89308e-05
0.00108759
-0.000243904
-0.000845408
0.000238976
-8.09585e-05
-0.000158017
-0.000194686
0.000189483
5.20259e-06
-0.000154459
-0.000172843
0.000327301
-0.000931083
0.00095636
0.0001287
3.07474e-05
0.000563078
0.000216133
0.000528879
-0.000838518
0.000308943
2.95166e-05
0.000209459
0.000918199
-0.000907794
-1.21756e-05
-0.000577177
0.000778133
-0.000206553
-0.000678117
6.91148e-05
0.000258871
-0.000358077
9.91902e-05
5.88519e-05
0.00021821
-0.000277072
5.82735e-05
0.000368997
0.000427339
-0.000265928
-0.000126243
0.000392148
-0.000951202
0.000314046
-0.000274146
0.00122122
-0.000965021
-0.000951014
-0.000155804
0.00110526
-2.74819e-05
-0.000167204
0.00031859
-5.99355e-05
-0.000258659
0.000182433
-5.68819e-05
-0.000125551
-6.30227e-05
0.000544587
0.000499122
0.000347549
-0.000789969
0.000645314
-9.58396e-05
-5.82759e-05
0.000154115
0.000535523
-0.000698599
3.24887e-05
0.000210156
0.000463646
-0.000935837
0.000470162
4.52637e-05
-0.000201165
0.000155901
7.62006e-06
-0.000297014
0.000289385
0.000368669
-0.000497225
0.00114035
-0.000974678
-0.000169046
-7.5269e-05
-6.03669e-05
8.96178e-05
-0.000254755
0.000707673
0.000522402
-0.000216654
-0.000305826
-6.54468e-06
0.000243075
-0.000393921
-0.000173273
0.000974131
-0.000432619
-0.000565364
-0.000800979
-0.000249189
0.00103324
0.000229746
-9.42131e-05
-0.000138838
-3.81327e-05
-0.000249679
0.000420192
-0.000397465
-2.27618e-05
0.000181863
0.000211186
-0.000393048
-0.000478975
-0.000409856
0.000887733
-9.10856e-06
0.000135115
-0.000126007
-0.00011067
-0.000253142
2.45006e-05
0.000407963
-0.00072475
0.00111748
-0.00039603
-0.000246394
0.000290191
-0.00124824
0.000299166
0.000259844
-0.00101443
0.000750264
-0.000281061
0.000185457
9.56027e-05
-5.02898e-06
-0.000146127
0.00010709
-0.000133107
-0.000861159
-0.000112037
0.000455785
-0.000343813
0.00094467
-0.00125148
0.000298968
-4.86182e-05
0.000186252
-0.000137634
-0.000198032
0.000732836
0.000413594
0.000358979
-0.000772654
0.000106526
-0.000157839
0.000154172
-0.000554192
0.000198853
-0.000188375
-1.04781e-05
-0.000774454
0.000976582
-0.000121354
-0.0011926
0.000215984
0.000977248
-0.000433722
6.7786e-05
0.00036589
0.000165636
3.25243e-05
-0.000198161
0.000156403
7.2659e-05
-1.21466e-05
-1.27806e-06
1.08197e-05
-0.000200957
-0.000171295
-0.000175801
0.000483966
-0.000308304
0.000585399
-9.46896e-05
-0.000490846
-0.000126063
0.000281565
-0.000155505
-0.000787446
0.00104258
0.00035269
-0.00108661
0.000875366
0.000210458
-2.22002e-05
5.54407e-06
0.000195882
-0.000321949
-0.000109257
-0.000282164
-0.000477151
0.000169745
0.000307379
-0.000147142
-0.00028662
0.000943604
-0.000854032
0.000365514
-0.000113223
-0.00100161
0.000880199
-0.00110754
0.000849041
2.04285e-05
0.000298156
0.000455875
-0.00127348
0.000811975
-0.000304079
0.000183607
-0.000417331
0.00073465
-0.00059953
-0.000294127
0.000894927
-0.000626954
0.000162299
-0.00028856
5.86131e-05
-0.000151953
9.33395e-05
6.66512e-05
0.000201635
0.000582912
-0.000949485
0.000363761
0.000690435
-0.000352682
8.0393e-05
-0.00018807
5.97448e-05
-0.000936336
0.000868879
0.000316317
-0.000257476
-0.00067945
-0.00018024
0.000858475
0.000271581
-0.000655576
0.0003838
6.3319e-06
0.000309973
6.75514e-06
0.000906916
0.000156953
-0.000155551
-0.00086543
0.00107262
-0.000210542
-0.000550309
0.000246643
7.3623e-07
5.54419e-05
-7.87011e-05
0.000522231
0.000144858
-0.000165168
2.03096e-05
0.00013243
-0.000199174
6.67455e-05
-0.00013362
-0.000115313
0.000444829
0.000161248
-0.000606482
-3.17658e-06
-0.000848566
0.000850518
0.000593689
-0.000205071
-0.000560045
0.000216526
-7.19309e-05
-0.000179568
0.000251495
-0.000240147
3.69672e-06
0.00023645
8.91056e-05
0.000249442
0.000943998
-0.000482431
0.000545984
0.000611582
0.000248574
-0.000180023
-6.85505e-05
0.000162613
0.000225025
-0.000387633
0.00020067
0.000586221
-0.000792265
-0.000799947
0.0010927
-0.000294685
-0.000260534
-0.00021664
0.000117712
-0.000300787
-0.000210204
0.000114364
3.33943e-05
0.000215179
-0.000849468
0.000880814
-3.35457e-05
0.000316386
0.000532944
-0.000851317
-0.000137824
0.000165191
-2.73674e-05
0.000177901
0.000989949
-3.22145e-05
0.000948507
0.000109004
-0.000268011
0.000158995
-0.000265269
-0.00035559
0.000620495
0.00050457
-0.000809031
0.000302766
-0.000128045
0.000186658
0.000152315
-0.000153888
1.11193e-07
-0.000221659
-0.000264838
0.000486457
-0.000209045
-0.000162711
9.37964e-05
8.16635e-05
0.000687663
0.000257378
0.000209341
0.000785288
-0.000996435
0.000295965
0.000497553
-0.000796079
-4.95858e-05
-0.000894598
0.000936306
-0.00010519
0.000342696
-0.000237525
0.000736415
-0.000792612
0.000589901
-6.68437e-05
-0.000523281
-0.000799294
0.00109174
0.000889217
-0.000551731
-0.000338461
-0.00079842
-5.39821e-05
0.000767277
-0.000136271
0.00137291
-0.000442554
-0.000937684
0.0012598
-0.000676542
-0.000586696
0.000754341
0.000230702
-0.000991364
-0.00036531
0.00111237
-0.00087759
0.000553877
0.000322705
8.31643e-05
-0.0002689
0.000185735
0.00012666
-0.000219021
9.23609e-05
0.00125023
-0.000686787
0.000283911
-1.89049e-05
-0.00026501
-0.000345052
0.000664141
-0.000319244
0.000224951
-9.82913e-05
0.000635167
-0.000631306
-4.40871e-06
-6.74653e-06
0.000400519
-0.000393854
-0.000821115
-0.000131184
0.000275332
-5.4992e-05
-0.000220344
0.000777949
-4.4324e-05
0.000159757
-0.000817053
0.000235061
0.000244217
-0.000975655
0.000710028
-5.67268e-05
-0.000183421
0.0009735
-0.00056384
-0.000411026
4.3732e-05
-0.000218482
-0.000578434
0.00030019
0.000278021
-4.52678e-05
0.000634898
0.00109411
-0.000920344
-0.000723603
0.000777008
-0.000193165
0.000195428
-2.26346e-06
0.000759244
-0.000149211
0.000179366
-0.000882387
-0.000209993
0.00108391
0.000184447
-2.01407e-06
0.000182346
-1.77304e-05
-0.000164616
-0.000208575
0.000317566
-0.000723377
0.000397991
-0.000696008
0.000176563
2.229e-05
0.000109175
-0.00012183
0.00121445
-0.00118766
-3.38134e-05
-0.000143805
-6.63985e-05
0.000113723
-0.000151429
3.18302e-05
-0.000216734
0.000850373
0.00018145
-0.000143139
-0.000737611
0.000997789
0.000170248
-2.53898e-05
0.00033701
0.000255809
-0.000593144
0.000331234
0.000218847
-0.000550276
0.000192313
-9.9673e-06
-0.00113147
0.000476569
0.000654655
0.000156308
0.00105086
0.000254297
-9.21585e-05
-0.00016214
-0.000262768
0.000489473
-0.000189521
-0.000190054
0.000265465
-8.90972e-05
-0.000872679
0.000958789
0.000580813
-0.000983872
-3.84787e-05
-0.000876456
0.000389693
-0.000213065
-0.000176635
-0.000527
0.000341773
0.000185145
-0.00106167
0.000345168
5.45014e-05
3.30514e-05
-9.20923e-05
0.0009017
-0.000973277
-0.000443979
0.000222294
4.71553e-06
-0.000142539
0.000216882
0.000500397
-0.000717779
-0.000722606
0.000683271
-0.000142329
1.80081e-05
0.000123443
-8.42463e-05
0.000718824
4.34756e-05
0.000258938
-0.000302426
0.000199399
-3.37634e-05
-0.000151222
0.000196486
0.000245092
1.48891e-05
-0.000259985
-0.000241117
-0.00019874
0.000439839
-0.000283821
0.000490865
-0.000207085
0.00018437
1.48068e-05
0.000830959
-0.00108105
0.00024522
-0.000436754
-0.000618714
0.00103821
-0.000330278
0.000905755
0.000338888
-0.000114887
0.000349666
-0.000234795
-7.8946e-05
-0.000852093
0.000927383
0.000139164
3.69569e-05
-0.000198393
-0.000346293
-9.77117e-05
0.000264194
-3.8733e-05
0.000224056
0.000160443
-0.000401572
-2.23899e-05
-0.000169763
0.000924335
-0.00111708
0.000187535
0.000999869
0.00114226
-0.000939916
-0.000205764
0.000847048
-0.000116945
6.07471e-05
-8.93821e-06
-1.0945e-05
0.000159626
-0.000951332
5.25522e-06
0.000208119
-0.000213375
0.00117084
-0.000591203
0.000170352
0.000677585
-0.000872569
0.000253989
2.12022e-05
-6.64456e-05
-0.000220294
0.000286715
0.000515113
-0.000967533
-0.000992476
6.00583e-05
0.000929594
-0.000365441
0.000527436
-0.000162043
-0.000148855
-0.000132207
0.000988592
-0.000410442
0.00121399
-0.000847321
-0.00037425
-0.000261989
-0.000275708
0.000766556
4.77753e-05
0.000169655
-0.000217431
-0.000673477
-8.76447e-05
-0.000813961
0.000205836
-0.000124047
-8.17888e-05
0.000224954
-0.000291424
0.0010429
-0.000793429
-0.000268373
-0.00022138
8.69384e-06
0.000212685
-0.000151489
-1.16963e-05
0.000163186
-9.04874e-05
0.000238417
-0.00014793
-0.000932614
0.000837673
0.000516846
0.000689421
0.000822897
-0.000294733
0.000411984
-2.22271e-06
-0.00040981
-0.000806066
0.00079647
9.42346e-06
-0.000200045
0.000190936
0.000141713
0.000247972
0.000251117
3.27894e-05
-0.000331639
0.000103117
0.000228516
0.000944533
-0.000721763
0.000651734
-0.000315069
0.000191922
-0.000169699
-2.22234e-05
0.000200423
0.000213812
-1.92301e-05
-0.000194583
-0.000645743
-0.00035169
0.000996182
-0.000475613
0.000760065
-0.000284916
-0.000899899
0.000425369
0.000125814
5.27052e-05
-0.00017852
0.000152745
-0.000180197
5.48278e-05
-0.000386343
0.000838057
0.000247884
0.000794493
0.0001692
0.000220657
-0.000772863
0.000550906
-0.000390664
-0.000136407
-0.000826661
0.000981798
0.000234762
1.95315e-05
-0.000630526
-0.000269832
0.000223668
-3.1442e-05
-0.000305234
-0.00073697
0.00104067
-0.000238698
0.00113762
5.38457e-05
-0.000172079
-0.000165686
0.000564264
-0.000681418
0.000413413
0.000267697
-0.00025944
0.000302904
0.000863009
0.00020714
-0.00107835
-0.000104197
0.000378909
-0.000274766
0.000225789
-3.80737e-05
-0.000187716
0.000661887
2.08514e-05
-0.000683406
0.000214642
0.00092162
4.36484e-05
0.000653845
-0.000697777
0.000458147
0.000218195
-0.00067702
1.38709e-05
-0.000118843
0.000101865
-0.000648721
-4.08452e-05
0.0006891
-0.00056711
-0.000155246
0.0008163
0.000375235
-0.000314949
-6.03095e-05
-0.000833838
0.000819485
0.000202338
0.000908129
-2.37206e-05
0.00015688
-0.000466006
0.000619951
-0.000439528
0.000942259
0.000331615
0.00104533
-0.000126378
0.000595566
-0.000958455
0.000301129
-0.000723876
0.000857687
-0.00016128
0.000622338
-0.000284082
-0.00033822
-0.000481906
-0.000266007
0.000747648
-0.000365001
0.000312163
5.28144e-05
-0.000284895
0.000698383
0.000132222
-0.000188949
-0.0003208
0.000973934
-0.000655788
0.000107398
6.80622e-05
-0.000518655
0.000774969
-0.000256586
0.000594666
0.000256385
0.000209195
-0.000201581
0.000188151
0.000219626
-0.000254552
3.49227e-05
-0.000757741
0.000777833
0.000449725
0.000522193
-0.000185363
-0.00075444
-0.00122567
0.00119092
2.98809e-05
4.74781e-05
0.000354073
-0.000401626
0.000204748
0.000309136
-0.000514045
-0.000629589
0.000249666
0.00037973
-0.000102421
0.000412763
-0.000310383
0.000167073
-0.000320961
-1.59649e-05
0.000336895
0.000103887
1.95794e-05
-0.00016698
-0.000217575
0.000174463
4.31112e-05
0.000304664
-0.000155205
-0.000149463
-0.00107083
0.000155483
0.000912468
-0.000306064
-0.000921478
0.000385028
0.000237319
-0.000116778
-0.000108267
0.000427201
-0.000682377
0.000370375
-0.000349414
-2.71582e-05
-0.000200481
0.000423193
-0.000222713
-1.07997e-05
0.000386006
-8.1601e-05
-0.000387458
-0.000347395
0.000557866
-0.000210527
-0.000244433
0.000147798
9.66343e-05
0.00081685
-0.000731761
0.000463168
-0.000474111
1.08858e-05
8.48275e-05
8.45741e-05
-0.000169402
0.000256729
-0.000250406
-0.000238396
3.06332e-05
0.00034624
-0.000376904
0.000348744
-8.98894e-05
-0.00077254
7.44373e-06
0.0007642
4.16927e-05
-0.000120884
-0.000786866
-0.000101972
0.00118779
-0.000324224
0.000180328
0.000116856
-0.000285047
0.000168192
0.000131438
8.5222e-05
0.000302089
-0.000218926
-0.000151686
-3.32031e-05
0.000184889
0.000179482
-0.00017819
-1.29192e-06
0.000251952
-0.000452434
-0.000812526
0.000262844
-0.000190387
0.000190403
-1.64932e-08
-0.000266183
0.000255127
1.10541e-05
-0.000755517
0.000361818
-0.000135161
-0.000226658
-3.74587e-05
0.000177297
-0.000139838
0.00028156
-0.00026661
-1.49533e-05
0.000605447
-0.000388963
-0.000868842
0.000296457
0.000547525
-9.79042e-05
0.000913443
-0.000550043
-0.000317583
0.000866468
-0.000349315
0.000806698
0.000503594
-0.000439886
-6.37913e-05
0.0010865
-0.000635642
0.00010453
7.09297e-05
-0.00036528
-0.000513269
-0.000553338
0.000814209
-0.00026141
0.000174167
-4.83525e-05
0.000943605
-0.00111351
0.000163876
-0.000301062
-0.000380668
-3.17076e-05
0.000245518
0.0012428
-0.00109417
-0.0010297
0.000557573
0.000470013
0.000195868
-0.000200259
4.39081e-06
-0.000653957
0.000237631
0.000378241
-0.000326694
0.000222448
-0.000740533
-0.000207948
0.000120506
8.74417e-05
-0.000103607
-0.000654847
-0.000518388
-0.000166474
0.0006845
-0.000358193
-0.000421284
0.000869616
-0.000449241
0.000384273
2.76577e-05
-0.000558369
0.000784403
-0.000226019
0.000180148
-0.000179481
-0.000474911
-8.88306e-05
0.000563603
-0.00102153
3.40631e-05
0.000982068
9.71728e-05
7.82872e-05
-0.00017546
3.84527e-05
-0.000557144
-8.74803e-05
-9.729e-06
0.000137078
-0.000127349
0.000294254
-4.02715e-05
0.000292277
0.000961014
-0.000491293
0.0010016
-0.000846032
-0.000175459
-0.000163463
1.19733e-05
0.000590654
-0.000547244
-0.000623341
-2.57914e-05
-2.22273e-05
0.000258379
-0.000245295
-0.000685058
0.000267005
-2.19158e-05
0.000258075
-0.00020034
-5.77362e-05
-0.000533069
0.00019651
-8.9112e-05
0.000231878
-0.000346779
0.000909266
-0.000136543
-0.000773843
-0.000308932
-0.00058378
0.000338151
-0.000278618
-0.000300015
0.000165081
0.00025507
0.000217117
0.000764443
-0.000990475
0.000259291
-3.96676e-05
0.00031118
-0.000670843
-0.000508423
-9.82944e-05
-6.75796e-05
0.00010855
-0.000188891
-0.000163649
-0.000652195
-0.000719118
-0.000216789
-0.000202299
0.000494246
-0.000292057
0.000260465
-8.11553e-06
-0.00103401
0.000222714
-0.000150803
-3.72494e-05
0.000188053
9.29185e-05
-0.000163203
-0.000816862
0.000979246
0.00114511
4.08406e-05
-0.00042595
-2.39428e-05
0.000449831
-0.000512269
0.000264649
-0.000789677
0.000226314
0.000411738
-0.000249121
0.000682408
0.000573866
0.000162282
2.96397e-05
-0.000308461
0.000611828
-0.000303562
0.00100799
-0.000829463
-0.000180142
4.91024e-05
0.000235636
-0.000284738
8.25698e-05
-0.000167142
-0.000783804
-0.000122179
0.000892585
6.7283e-05
0.00019079
-0.000674469
0.000611757
0.000111489
0.00112359
-8.18143e-05
-0.000724625
0.000462385
-0.000556786
9.43996e-05
0.000198545
-0.000177692
-2.08538e-05
0.000678188
-0.00023371
0.00017011
-8.52827e-05
0.000754282
-0.000506446
-0.000248143
-0.000264282
9.7656e-05
0.000166625
-0.000173355
-0.000158289
0.000719037
-0.000712426
2.94509e-05
0.000975963
-0.000768399
0.000316157
-0.000118672
-0.000197486
-0.000839585
-0.000139464
-8.1916e-05
-0.000165791
0.000126052
0.00107007
-0.000782694
-0.000289593
-5.83762e-05
0.000183113
-0.000124736
-0.000484146
-0.000310422
0.000793775
-0.000592476
7.36411e-05
-0.000280803
5.63704e-05
0.00022443
0.00043929
-0.000214135
-0.000225158
0.000190413
-1.38498e-05
-0.000373048
-0.000708509
0.0010643
-0.000125424
0.000257645
0.00110021
-0.000206886
-0.00089544
0.000248955
-6.88078e-05
0.00110002
-0.000597634
-0.000505873
-0.000174062
-0.000456903
-0.000582673
0.000800064
1.42613e-05
-0.00110478
0.00107737
0.000254061
-8.80559e-05
-0.000221067
-0.000641825
0.000367599
0.000274022
-5.01132e-05
0.000270591
1.09645e-05
-0.000257434
0.000818237
2.59371e-05
-0.000190418
0.000164481
-0.000125991
0.000844048
0.00102583
-0.00102399
0.000768362
-0.000549309
0.000769857
-0.000476043
-0.000294061
-0.000359679
0.000319381
4.02597e-05
-0.00022725
-5.35552e-05
0.000721927
-4.41338e-05
7.53685e-05
2.52436e-05
-0.000645749
-0.000149388
0.000794501
-0.000150184
-9.47615e-05
0.000430953
-0.000338522
-0.000940023
-0.000366496
-0.000748269
-0.000658648
1.23623e-05
-0.000790802
0.00048584
0.000304323
0.00019416
-8.96295e-05
-0.000224308
0.00116142
0.00018253
8.71227e-05
-0.000269657
0.000372876
-0.00026396
0.000116648
0.000188012
9.77238e-05
-0.000188212
-0.000110242
-9.12421e-05
-0.000821904
0.000591497
0.000201487
-0.000551666
0.00020902
0.000342422
0.00120181
0.000393134
0.000581344
-0.000976869
-0.000498955
-0.000292294
0.000790461
0.00014508
-0.000182539
0.000617839
-0.000910942
0.000266438
-0.000895031
0.000702749
-4.73463e-05
0.000140527
-0.000147103
8.89048e-05
0.000793853
-0.00077633
-1.8058e-05
-0.000326004
-0.000699457
0.000631521
-0.00056051
-7.12985e-05
0.00067804
-0.000251267
-0.000215344
7.42387e-06
0.00020792
0.000197349
-0.000110836
0.000233296
0.000723661
-0.000966506
-0.00101688
0.000997911
1.76718e-05
-0.000193492
0.000762543
-0.000236609
0.000198229
3.838e-05
0.000145881
3.79738e-05
-0.000246947
0.000209821
3.71256e-05
-0.000107966
0.000303844
-0.000337314
0.000256927
8.03797e-05
-0.000107454
0.000281247
-0.000173798
-0.000686984
-0.000458904
0.000775709
-0.00102647
0.000202137
-0.00107067
-0.000770929
0.000965451
-0.000195373
0.000789553
-0.000594169
-0.000934893
-0.000252238
0.000257839
-5.60392e-06
-4.30936e-05
-0.00016767
0.000160113
-0.000887794
-0.000416444
0.00028804
0.000128398
0.00067287
-0.000442118
-0.000264417
0.000721342
0.000186819
0.000514981
-0.00056049
-0.000452241
-0.000485246
-0.000652908
-0.000719193
-0.000312039
-0.000244026
0.000108257
0.000149837
-0.000206719
0.000351299
3.48709e-06
-0.000354876
0.000176914
1.34985e-05
0.000141722
-0.000425577
-8.17073e-05
0.000187634
-0.000312051
-8.54448e-05
-5.3494e-05
-0.000178253
-0.000234856
0.000203928
3.0928e-05
0.000230786
-0.00053942
0.000227576
-1.78749e-06
1.98875e-05
-0.000340877
0.000167254
-0.000176983
-0.000875687
-0.000176877
0.00104587
-0.000891142
-0.000679449
-0.000152281
0.000813695
-0.000752161
-0.000190384
-0.000159608
0.000349987
0.000298671
7.51551e-05
-0.000153271
7.92262e-05
0.000395892
-0.000500107
0.00010414
0.000563871
-0.000130534
-0.000462014
-0.000386907
-0.0001752
0.000562411
-0.000277623
-3.58389e-05
-0.00010982
0.000137452
0.000178144
5.82443e-05
-0.000236393
-0.000958244
3.36473e-06
0.000949576
8.44882e-05
-6.792e-05
-0.000358081
0.000771153
-0.00103146
0.000241133
0.000359939
-6.6115e-05
-0.000293844
0.000258528
-0.000141672
0.000347498
-0.0010065
0.000656918
-0.000205887
-0.000711063
0.000914163
-5.59358e-05
0.00106881
-0.000228593
-0.000189495
0.000418049
0.000573558
0.000375624
0.000829161
-0.000490582
-0.000339846
-0.000283499
0.000336875
-5.33824e-05
-0.00105582
0.000964114
9.16394e-05
0.000228491
-0.000146781
-8.17101e-05
0.000825036
-0.00114827
0.00031918
0.000211569
-0.000178175
0.000505337
-0.0008168
0.000309862
0.00037233
2.04125e-05
-0.000392821
0.00103052
-3.29338e-05
-0.00100444
-0.000540368
0.000276586
0.000263638
-0.000148638
0.000663337
0.000180236
-0.000639899
-0.000611327
0.000956807
3.48217e-05
0.000193668
-0.000830331
-0.00048658
-0.000171991
0.000168143
3.84781e-06
-0.000155489
-7.89495e-06
0.000163384
0.00039798
-0.00087786
5.12547e-05
-7.02412e-05
-0.000445794
0.000789004
0.000582857
-0.000869897
0.000268233
3.89844e-05
-0.000189787
0.00116075
-2.02893e-05
1.91085e-05
0.00019246
0.000151953
5.88105e-05
0.000564992
-8.11556e-05
0.00021617
-0.000123974
-9.21956e-05
9.73232e-05
-0.000207813
-0.000921593
0.00116134
-0.000245697
-0.000150924
-0.000162158
-7.26985e-05
-0.000457938
-0.000100404
0.00101573
-0.000777846
-0.000244836
0.000990618
0.000148146
0.000829602
0.000913284
-0.000237612
-0.000678202
-0.000294432
-0.00020548
0.000499858
0.00015063
-0.000237852
8.72217e-05
-0.000307482
-0.000562767
0.000869348
-0.00015227
0.000181488
-0.000155551
-0.000328195
9.65867e-05
0.000231598
5.58916e-05
-0.000460216
0.000404273
0.000628844
0.000219583
-0.000852364
0.00010395
-0.000168464
6.45135e-05
0.000117605
0.000505925
0.000125336
-0.00015461
0.00117859
-0.000220983
0.00108953
-0.000869844
-0.000225696
0.00021195
1.37451e-05
-0.000909072
-5.88583e-05
-0.00014909
0.000244455
3.87715e-05
8.08339e-05
-0.000123542
0.000505024
0.000264592
0.000204394
-0.000234944
-1.14285e-05
0.000549484
0.000172022
0.000144541
0.000448298
-0.000593492
-5.37477e-05
0.000581478
-0.000830405
0.000657634
0.000144702
0.000213613
0.000696931
-0.000107198
-9.33682e-05
0.000200566
-0.00023026
0.000131639
9.27629e-05
-0.000610885
-8.93636e-05
-0.000109747
-0.00096948
0.000747381
0.00112457
-0.000188073
0.000280802
-0.000545681
-0.000153487
-6.14083e-05
0.000214895
-0.00055823
-0.000124917
0.000682593
-0.000207282
3.13697e-05
0.000175912
1.33338e-06
0.00077671
0.0010335
-0.00051733
-0.000439386
-2.00171e-05
-0.00017037
0.000235484
-0.000186382
6.4346e-05
0.000150823
-0.000215169
-7.92778e-05
0.000120478
-0.000513134
0.000875245
0.000193775
-9.94093e-05
-0.000107872
-0.000414081
0.00112648
-0.00072434
-0.000120617
0.000298756
0.000196387
0.000215445
-0.000176461
-0.000318632
0.000200191
0.000109019
0.000391366
-0.000347369
-7.76477e-05
-0.000144175
-0.000193145
-0.000458986
0.000980284
-0.000524942
7.48985e-05
-0.000182096
0.00102714
-0.00020106
0.000145433
-0.00020381
9.79761e-05
-0.00105959
0.000793432
-0.000610998
-9.11671e-05
-7.76447e-05
0.000260169
5.88735e-05
-0.000210448
0.000151575
-0.000539713
-0.000299451
-0.000811475
0.00100208
-0.000193617
-0.000509376
-0.000622839
-0.000929235
-0.000727104
0.000935697
0.000106645
-3.03973e-05
-7.68863e-05
-0.000293607
0.000370453
-0.0001235
-0.000679061
0.000800665
-0.000258708
0.000193105
6.56019e-05
0.00100741
-0.000457554
-0.000550887
-0.000165883
-7.07263e-05
-0.000879168
0.00103795
-0.000164836
0.000768923
2.54176e-05
-0.000811415
-0.000298775
7.04501e-05
0.000228318
0.00021949
-0.000130486
-8.90041e-05
-0.000242595
3.93604e-05
0.000203232
0.000583869
-0.00102475
0.000438909
-7.92841e-05
0.000197315
-0.00105745
0.000172398
0.000232349
-9.64323e-05
-0.000135917
-0.000610372
0.000330752
-0.000367472
3.66965e-05
0.00094748
0.000174518
-0.000138368
0.000236091
0.00116831
-0.000923819
-0.000251223
-0.000458171
0.000602058
0.000766424
-0.000770736
0.000187537
0.000902232
-0.00109469
-0.000159181
0.000170208
0.000189884
3.37837e-05
-0.000304093
0.000242586
6.15002e-05
0.000203873
-0.000121277
-8.25965e-05
0.000405307
-0.000349462
-0.000384883
-0.000428723
0.000812542
-0.000482209
-0.000433814
-0.000113267
0.000789706
-0.000693326
-0.000180413
0.000839478
-0.000223804
-0.000467554
0.000622212
0.000385944
-2.60277e-05
0.00030224
0.000793125
-9.77745e-06
-0.000120764
0.000130542
-0.000493579
0.000367281
0.000126246
0.000243807
0.00076474
0.000280091
-0.000762266
0.000134662