/*--------------------------------*- C++ -*----------------------------------*\
| =========                 |                                                 |
| \\      /  F ield         | OpenFOAM: The Open Source CFD Toolbox           |
|  \\    /   O peration     | Version:  v2012                                 |
|   \\  /    A nd           | Website:  www.openfoam.com                      |
|    \\/     M anipulation  |                                                 |
\*---------------------------------------------------------------------------*/
FoamFile
{
    version     2.0;
    format      ascii;
    class       volScalarField;
    location    "900";
    object      nut;
}
// * * * * * * * * * * * * * * * * * * * * * * * * * * * * * * * * * * * * * //

dimensions      [0 2 -1 0 0 0 0];


internalField   nonuniform List<scalar> 
18355
(
0.000541572
0.0068419
0.00638215
0.00672244
0.0033094
0.000590281
0.00672024
0.000465039
0.000971418
0.0075261
0.0067362
0.00479133
0.000339853
0.00554681
0.00288128
0.000941832
0.00197065
0.0067294
0.00291241
0.00961651
0.000640087
0.00168185
0.0132735
0.00372571
0.00236536
0.0067228
0.00672245
0.00105551
0.00432302
0.00412528
0.00451321
0.0028006
0.00672794
0.00673687
0.000278093
0.000546973
0.00140218
0.000136032
0.00103617
0.0067383
0.00537189
9.51152e-05
0.00592806
0.00395528
0.00679309
0.000134043
0.000435293
0.000825877
0.000432482
0.00672899
0.00672712
0.00602614
0.00672589
0.0109323
0.00672236
0.00672149
0.000740573
0.00303211
3.61384e-05
0.000246368
0.00672828
0.000590539
0.0067296
0.000250078
0.00591477
0.000602657
0.000814287
0.000264138
0.00672234
0.00180469
0.000323246
0.00672529
0.000206554
0.00672419
0.000478142
0.00672018
0.00633767
0.00254115
0.00214285
0.00625464
0.00672037
0.000286703
0.000628335
0.000266451
0.00672276
0.000312893
0.00651749
0.00961468
0.00422329
0.0107347
0.000345382
0.00679249
0.00672249
0.00672235
0.00027937
0.0130758
0.00552765
0.00148098
0.0112841
0.00141003
0.00231679
0.00158307
0.000345738
0.00174453
0.00346782
0.000387227
0.00201718
0.000120413
0.000786064
3.01619e-05
0.00484106
0.00114892
0.0067228
0.00119389
0.011054
0.0067196
5.22767e-05
0.00666042
4.88392e-05
0.000316065
0.00844513
0.00033957
0.0029809
0.000361212
0.005016
0.000115371
0.00520643
0.00672554
0.000291203
0.00672111
0.00672697
0.00373187
0.000671489
0.00175998
0.000174223
0.00672538
0.00373601
0.00673593
0.0059349
0.000216213
0.00257748
0.00725315
0.00177142
0.00483744
3.4768e-05
0.0019385
0.000589355
0.00376226
0.00202408
0.00364518
0.00363325
0.00173835
0.000334656
3.69043e-05
0.000797119
0.00672571
0.00351429
5.33937e-05
0.00672562
0.0005585
0.000594338
0.001042
0.000339954
0.00166984
0.000537066
2.31291e-05
0.00536281
0.00042001
0.000285557
0.00672666
0.00972773
0.012689
0.00673073
0.00673387
0.000998884
0.00369322
0.00153324
0.00672236
0.000279338
0.00196356
6.84054e-05
0.000276065
0.00114673
0.00671941
0.000487179
0.00409631
0.0120589
0.000343569
0.000830673
0.00134107
0.000732271
0.00582332
0.00180229
0.00225723
0.000147928
0.00162461
0.00223831
0.00134684
0.00081547
0.00673289
0.00219344
0.000766784
0.00303115
0.010403
0.000409783
0.000530727
4.93783e-05
0.0114255
0.0122008
0.000898773
0.00359787
0.00317331
0.0101527
0.00189299
0.00672614
0.000315256
0.00256769
0.010111
0.00672291
0.00184097
0.000403193
0.00650353
0.00024995
0.00393075
0.00552694
0.00205047
0.00993031
0.00393061
5.05795e-05
0.00348783
0.00672575
0.00225231
0.000708272
0.010261
0.00137703
0.00672276
0.00672246
0.000109744
0.000569905
0.000210016
0.000835301
0.00027066
0.00421684
0.00672614
0.00186494
0.0024991
0.00204033
6.71353e-05
0.000817661
0.000583271
0.00226215
1.56839e-05
0.00125538
0.0130508
0.00243578
0.00634758
0.00659406
0.000494838
0.00378967
0.00673244
0.000601556
0.000291398
0.00302168
0.000646755
0.006719
0.00672449
0.00672569
0.000283749
0.000166768
5.5726e-05
0.00130416
0.00171855
0.000322067
0.000392727
0.00257947
0.00236429
0.00607701
0.00672511
7.42742e-05
0.00672634
0.00672031
0.000350338
0.00672426
0.00309357
0.0013628
0.000754657
0.00672979
0.000461944
0.00592136
0.00269282
0.00672165
0.00656299
0.000392727
0.0108044
0.00672562
0.00672586
0.00388158
0.000330571
0.000827508
3.62996e-05
0.00672481
0.00030964
0.00140389
0.00672564
3.69373e-05
0.000518373
0.000658644
0.000412627
0.00672162
6.8719e-05
0.00368945
0.00282664
0.000833242
0.00614968
0.000285356
9.05226e-05
0.00672251
0.00672159
0.000285109
0.000312687
0.0117951
0.00232977
0.000356765
0.0030478
0.00677873
0.000633675
0.00243441
0.00030676
0.000366532
0.00672062
2.04663e-05
0.00313058
0.000161009
0.00672196
0.001026
0.00632302
0.00672568
0.00168498
0.000778305
0.00672361
0.000410287
0.000569659
0.0033277
0.0100784
0.00139063
0.00273838
0.00672942
0.0135165
8.87775e-05
0.00672259
0.00177507
0.00065303
0.000477438
1.74235e-05
0.0137784
0.00672266
0.00191758
6.02924e-05
0.00519056
0.00160256
0.000326139
0.000921013
0.00203241
0.000483057
0.00672584
0.000136863
0.000338109
0.000141213
0.00672125
0.0033132
0.00672806
0.00552263
8.82114e-05
0.00574558
0.00040055
0.00672767
0.000967354
0.00672259
0.000923168
0.00462517
0.00289099
0.00595765
0.00533377
0.00112269
4.81034e-05
0.00835117
0.00370005
0.00497057
0.000260256
0.00900603
0.00111555
0.000363892
0.00195004
0.00439386
0.00149921
0.0067197
0.00672268
0.00672467
0.00919954
0.00133015
0.00677196
0.000600132
0.000468295
0.00491928
0.00678031
0.0102137
0.0019571
0.00570017
2.36383e-05
0.00672313
6.03768e-05
0.00109283
0.000312179
0.000565159
0.00340974
0.00764069
0.006725
0.0067255
2.50363e-05
0.00672569
0.00672999
0.00141454
0.00672474
0.00712347
0.00137167
0.00123665
0.00167364
0.00158891
0.00672524
0.00492892
0.00061814
0.0106479
0.00221686
0.00672685
0.00671951
0.00178358
0.00195429
0.00018429
0.00275133
0.00672582
0.00209204
0.000111898
5.32418e-05
0.000532027
0.00209285
0.00672584
0.00098965
0.000400587
0.0110282
0.0065494
0.00712481
0.00011169
0.000134033
0.00604187
0.00402928
0.00672025
0.00672972
0.00354563
8.89257e-05
0.0067244
0.0067694
0.00103314
0.00010283
0.000434751
0.0110633
0.000101366
0.00265898
0.00449914
0.00487361
0.00475811
0.0067204
0.006726
0.00672595
0.00672477
0.00767963
0.00244258
0.00672204
0.000325485
0.000245226
0.00672029
0.00270057
0.000122204
6.11668e-05
0.00106664
0.00546383
0.0029725
0.000796711
0.00303837
0.00247275
0.00547258
0.00113131
0.000234306
0.00672501
0.0131619
0.00430454
0.00812921
0.00530529
0.00593906
0.000742638
0.000400906
0.00180484
0.00242041
0.00119485
0.00412167
0.000148509
0.00672448
0.00134987
0.00821823
0.0130861
0.0100486
0.00230329
0.000561341
0.000615493
0.00994406
0.00163677
0.00037849
0.00215278
0.00516813
0.00672254
0.000189248
0.00672459
0.00457746
0.000590239
0.0108834
0.00417294
0.0021496
0.00672812
0.000270632
0.000416685
0.000385894
0.0067227
0.000446084
6.27891e-05
0.00175906
0.00380226
0.000816462
0.00211126
0.00672579
0.000684287
0.000868709
0.00179311
0.000204655
0.00162824
0.00672446
0.00672822
0.00672586
0.000459504
0.00208165
0.000530526
0.00468055
0.0032998
0.00430013
0.00672025
0.00023959
0.00132944
0.000156644
0.000724407
0.0111172
0.00223527
0.000320825
0.000526984
0.000766803
0.00647377
0.00474101
0.00545297
0.00183637
0.00140477
0.00538765
0.00665722
0.000578645
0.000408682
0.00031996
0.000140876
0.00716485
0.000551575
0.00672135
0.0120801
0.00554014
0.0027703
0.00673018
0.000232833
0.010313
0.000597065
0.00672449
9.66326e-05
0.000204082
0.000282126
0.000303
2.99835e-05
0.00165511
0.000371551
0.00313036
0.000436885
0.00120031
0.0001282
0.000114126
0.00122354
0.00672088
0.00278133
0.00441202
3.70394e-05
3.3241e-05
0.00556087
4.52264e-05
0.00841559
0.00150647
9.26974e-05
0.000886836
0.00403949
0.00661628
0.00673786
5.3001e-05
0.00127145
0.00676312
0.000500766
0.00672165
0.00161549
0.00179869
0.0020552
0.000402779
0.00638116
0.000302163
0.00101523
0.000715898
0.0105253
0.00525967
0.000400912
0.00935417
0.00672452
0.00179132
0.0133999
0.00671767
0.000413382
0.0067211
0.00265718
0.00179094
0.00117765
0.000301236
0.000920169
0.000428982
0.000657826
0.00461426
0.0008805
0.00442047
0.00264129
0.0011408
2.16764e-05
0.00231497
0.000140351
0.000384694
0.00552195
0.00672707
0.00422407
0.000727513
0.000799138
0.00672502
0.00122643
0.00668012
0.00924853
0.000452637
0.000673981
8.92575e-05
0.00114383
0.00672233
0.00672468
0.000596015
0.000143594
0.00676252
0.00404098
0.000464389
0.000329912
0.00681234
0.0129808
0.0101006
0.0038403
0.00673669
0.000628418
0.00672513
0.00672591
0.00301635
5.04242e-05
0.00160658
0.00672926
0.000593405
0.000445774
0.00215046
8.89058e-05
0.00307318
0.00929521
0.000689497
0.00216327
3.47745e-05
0.0125666
0.00672051
0.0090395
0.00672256
0.00672455
0.0017458
0.000210024
0.00960879
0.0006665
0.00393468
0.000388704
0.0105462
7.60653e-05
0.00121896
0.00754236
0.00315381
0.0069768
0.00273854
0.00447243
0.00698104
0.0022637
2.80825e-05
0.000819872
0.00053025
0.00645204
6.41022e-05
0.00877025
0.00672151
0.0106475
0.00520209
0.00631188
0.0034807
0.00053918
0.00188928
0.0067269
0.00672452
0.000780203
0.00297053
0.00567588
0.00671949
4.50963e-05
0.00118836
0.00672643
0.00672248
0.00040979
0.000364514
0.00732426
0.000660911
0.00679695
0.000704513
0.0110283
0.000592944
0.00604554
0.00672834
0.000593293
0.000920239
0.000851504
0.00548451
9.46167e-05
0.000139168
0.00418602
0.00791871
0.000916524
0.00671984
0.00128595
0.00561377
0.00209909
0.00132469
0.00155455
0.00671865
0.00528467
0.00676219
0.00683277
0.000987055
0.00508888
0.000470125
0.00061131
0.0115286
0.00292282
0.0067212
0.0058614
0.0115753
0.00221761
0.0131602
0.00850158
0.0106988
4.10912e-05
4.17777e-05
0.00183983
0.0016077
0.00672307
0.00672542
0.00294696
0.00189916
0.00672257
0.00180373
0.00820939
0.000506609
0.00265865
6.09322e-05
0.00671787
0.00110321
0.000412298
0.00672237
0.000684277
0.00161349
3.46342e-05
4.53583e-05
0.000342914
0.0099705
0.000121511
0.000576511
0.000125639
0.0104992
0.0138822
0.000688689
7.61778e-05
0.000521698
0.00250784
0.00512797
0.00672736
0.00672027
0.00169055
0.00964086
0.00672569
0.00672582
0.000336824
0.00671784
0.000221766
0.00023088
0.00672432
0.00134191
0.00465482
0.00543396
0.000542021
0.00672619
0.000244884
3.22858e-05
0.00244713
0.00310515
0.00672545
0.000116469
0.00671893
0.00132311
0.000166835
0.00624254
0.0121376
0.00279099
0.0137679
0.00216086
0.000662593
0.00672352
0.00101863
0.000441546
0.00672321
0.00241174
0.0139064
0.00599154
0.00200551
0.00253153
0.00133178
0.0067218
0.0067223
0.00672666
0.00359399
0.00672836
0.0138958
0.000735805
0.000324422
0.0048327
0.00674115
0.00673153
0.0119238
0.0134127
0.000626682
0.00672272
0.00499428
0.00672544
0.00296898
0.000146792
2.7442e-05
0.000948001
0.00225266
4.86273e-05
0.00113457
0.000240165
0.00394487
0.00245437
0.0113899
0.000461248
0.00672357
0.00232042
0.014335
0.00672454
0.00308248
0.000104531
0.00672526
0.000453857
0.00675131
0.000888939
0.00082608
0.0067177
0.00671912
0.00307494
0.00444404
0.00672447
0.00163291
0.0057722
0.0024805
0.00672357
0.000137405
0.00227605
0.000986696
0.0127283
0.00151284
0.00672625
0.000846568
0.00261269
3.67647e-05
4.22091e-05
0.00675522
0.00028011
0.00331586
0.0119215
0.0067449
0.00138938
0.000136461
0.00526401
0.00672368
0.00671856
4.22581e-05
0.00620065
0.0030511
0.00419773
2.80932e-05
0.00672536
0.00672438
0.000742745
8.05563e-05
0.00456678
0.000685584
0.00246395
0.00156509
0.00450637
0.00676364
0.00672597
0.000314913
0.00189128
0.0106035
0.0010887
0.0125816
0.00478421
0.00672716
0.000189498
0.0133204
0.00857067
0.0017713
0.00748941
0.00459788
0.00061241
0.00138681
0.000256147
0.00649318
0.00660761
0.00673041
0.000757227
0.0067234
0.00547563
0.00672553
0.0105798
0.00122446
0.00861176
0.000229675
0.00179846
0.00101154
0.00672052
0.00672068
0.00671775
0.00105768
0.000240753
0.00381264
0.000558914
0.00029216
0.00672261
0.00129664
0.000999937
0.000538897
0.00106254
0.00106062
0.00028315
0.00444115
0.000843685
0.00598982
0.00142643
0.000769748
4.44747e-05
0.00647411
0.00599584
0.000355806
0.000179462
0.00501014
0.00306718
0.000395701
0.0035177
0.00178849
3.22714e-05
0.000224638
0.000353195
0.000510818
0.00672313
9.03093e-05
0.00389064
0.000648649
0.00338296
0.00672334
0.0125905
0.0010076
0.0020944
0.00675789
0.00516864
5.89856e-05
0.00292222
0.00673029
0.000147301
0.00422625
0.00126943
0.00567549
0.0040559
0.00193401
0.00151595
0.000739092
0.00763805
0.00288058
0.00059424
0.00676289
0.0067331
0.00109467
0.00240439
0.00135975
0.000436823
0.00157791
0.00671756
0.00672347
0.00146059
0.0067374
0.00672294
0.0100153
0.00672574
0.00218417
0.006722
9.77217e-05
0.00672381
5.00348e-05
2.8136e-05
0.00296853
0.0103474
0.0067196
0.00142583
0.0045377
0.00908042
0.000492043
0.00671803
0.0067231
0.002555
0.00628851
0.000353529
0.00968138
0.00260133
0.00477471
0.00672371
0.00154869
0.000943825
0.00209384
0.00674532
2.34121e-05
0.00876358
0.00095476
0.00359386
0.00349313
0.00672455
0.00672365
0.00960003
0.000604967
0.00227585
0.000995281
0.00389872
0.0085607
0.00205671
0.000222157
0.00672452
0.00161685
0.0055481
0.000359021
0.000287591
0.00123484
0.00672232
0.00427422
0.00123262
0.00671804
0.0067407
0.00320799
0.0060763
0.00299239
0.00677282
0.00185079
0.00432313
0.0024138
0.00125473
0.0137723
0.00671759
7.13271e-05
0.00112646
0.00671768
0.00091864
0.000682934
0.00672357
0.00503367
0.00672248
0.00451169
0.000778564
0.00672342
0.0015662
0.000361314
0.00672232
0.000386877
0.00112705
0.0102631
0.00178484
0.00937176
0.000419561
0.000354027
0.00934113
0.0102351
0.00679386
0.00187555
0.00672266
5.06367e-05
0.00606234
0.000275611
0.000791816
0.00672658
0.00430928
0.00672289
0.00182255
0.00138123
0.00278007
0.000988994
0.00047885
0.00672239
0.00672482
0.00672301
0.00467446
0.00033194
0.00475157
4.78722e-05
0.00672296
0.000684133
0.00285994
0.000289873
0.00068267
0.000319461
0.000999903
5.32296e-05
0.00674238
0.00671834
0.000208893
0.0067225
0.00672094
0.000755726
0.000391888
0.00672253
8.73976e-05
0.00672215
0.00539739
0.00672241
0.00618654
0.00608181
0.000468125
0.00118496
0.00247164
0.00974767
4.46334e-05
0.00672286
0.000251045
0.000912499
0.00388748
7.21189e-05
0.0112775
0.000255403
0.00143073
0.000428759
0.000368016
0.000143646
0.00673177
0.00672097
0.0067228
0.00602252
4.64908e-05
0.00201929
0.00227984
0.00491359
0.00233869
0.0128406
0.000431479
0.00152325
7.15763e-05
0.00672054
0.00111056
0.000280325
5.20114e-05
0.006724
0.000313787
0.000265386
0.000567335
0.00988392
0.00672667
0.00529953
0.00672122
0.000151101
0.00671897
0.00671887
0.00722436
0.000151205
0.00117046
0.00421152
0.00923735
0.00082019
0.00502886
0.00787462
0.0067257
0.00673984
0.000641069
0.00562341
7.74834e-05
0.00106553
0.000295321
0.000379207
0.00596484
0.00234475
0.00505762
0.00385163
0.000970376
0.000109199
0.00860397
0.000459338
0.0004761
0.00571566
0.00672079
0.00592435
0.000234512
0.000110708
0.00672374
0.00672682
0.00672294
0.00671849
0.00671898
0.000370696
0.00015821
0.0113475
0.000544101
0.00036257
0.00205915
0.000428161
0.00932951
0.00281117
0.0016006
0.00671898
0.00466693
0.00920905
0.000228295
0.000465404
0.00472072
0.00215074
0.00175376
0.000671191
0.000983857
0.000123575
0.00674605
0.000686357
0.0102315
0.00672591
0.000519041
0.0026871
0.0128701
0.000365645
0.000483203
0.000540052
0.000100243
0.000104114
0.00760967
0.0051024
0.000313043
0.00678035
0.00672519
0.00722196
0.00311069
0.0139602
0.00672383
0.00679592
0.00668438
0.00440816
0.00437944
0.0016649
3.18635e-05
0.0018953
0.00672361
0.0134263
0.00232237
0.0007368
0.00671897
0.00542768
0.000469996
4.10839e-05
0.00672325
0.000395085
0.000202037
0.00122358
4.49793e-05
0.00672549
0.00672391
0.00672162
0.0067306
0.00177613
0.000110483
0.00672211
0.0104623
0.00673016
0.00672343
0.000313914
0.00518826
8.4717e-05
0.00139266
0.00671779
0.00363255
0.000383201
4.12848e-05
0.00011778
0.00319155
0.00194007
0.000452441
0.000500602
0.00461363
0.000293571
0.00980953
0.00671891
0.00025462
0.00787977
0.000388568
0.000357275
0.0134499
0.000576083
0.0024977
0.00180441
0.000599778
0.00113921
0.0001333
0.00470816
0.000312595
0.00674743
0.00380221
0.000687643
0.00154541
0.00026802
0.00671961
0.000359954
0.00360908
7.66694e-05
0.00498494
0.00629336
0.00782308
0.00674792
0.000157454
0.000270625
0.00523552
0.0049897
0.00475645
0.00671849
0.00264323
0.00347336
0.0138707
0.000651052
0.00672527
0.0127949
0.00672276
0.00273304
0.00674248
0.00201071
0.000122747
8.99947e-05
0.00067133
0.00444826
0.0067235
0.00672687
0.000363601
0.000115161
0.00672227
0.000880739
0.00388823
0.014141
0.00123442
0.0106138
0.00784955
0.00445873
0.00317389
0.00671938
0.000529759
0.00672167
0.00252102
0.00395094
0.000341687
0.004399
0.000476937
0.000268299
0.00950906
3.27439e-05
7.29907e-05
0.00883578
0.00672076
0.000215061
0.00190793
0.00672127
0.00065859
0.00659021
0.000301059
0.00643354
0.0105921
8.85708e-05
0.00331648
0.00137673
0.00094393
7.71315e-05
0.00159099
0.00449941
0.00672036
0.00550066
0.000274425
3.48493e-05
0.000278447
0.00671942
0.00315833
0.000267352
0.00671437
0.00156291
0.000514033
0.00159964
0.00672424
0.00672583
0.000216655
0.0067202
0.000272493
0.0020137
0.0067203
0.0067202
0.0010952
0.00671826
0.000155614
0.00206894
0.00014127
3.89622e-05
0.00455453
0.00136319
0.00134413
0.000121213
0.000904889
0.00103491
5.96373e-05
3.04154e-05
0.000415225
0.00641492
6.42447e-05
0.00272609
0.000329529
0.00864567
0.000658143
0.00671777
0.0067234
4.67811e-05
0.00319512
0.00903716
3.02966e-05
0.000981555
0.0108255
0.00151422
0.000274598
0.00728934
0.0034124
0.00672215
0.00672239
0.00671945
0.00121876
0.000326263
0.00158602
0.000295715
0.000529702
0.000414314
0.00295025
0.00198498
0.000313138
0.00672198
0.00672066
0.000996194
0.00270377
2.53882e-05
0.00672143
0.00672058
0.00672572
0.000129472
0.000273704
0.000528794
0.00259761
0.00203024
0.0141694
0.00925006
4.00804e-05
2.67868e-05
0.00053029
0.00243826
0.0141572
0.000309005
0.00216236
0.000101587
0.00673218
0.000422099
0.000583309
0.00251109
0.00671786
5.79254e-05
0.000743203
0.00859921
0.000323041
0.000398351
0.00240146
0.00130561
0.00440508
0.000537894
0.00189455
0.000473165
5.38213e-05
0.00618139
0.0107869
0.00273096
0.00672023
0.00098182
0.00215172
0.000270194
0.00548422
0.000665835
0.00672084
4.35095e-05
0.000246124
0.00195187
0.00258932
0.00356709
0.00240351
0.0067255
0.000431216
5.26503e-05
0.0138561
0.000468135
0.00672601
0.0136494
9.45882e-05
0.00522607
0.000172049
0.00614018
0.00150012
0.00671997
0.000232794
0.00102152
0.000407395
0.000463041
0.00674158
0.00484906
0.00672536
0.00159223
0.00157996
0.00135365
0.00671763
0.00346037
0.000973258
0.00672601
0.000956569
0.00672399
0.00120394
4.34773e-05
0.00536836
0.00145826
0.00107024
0.0130098
0.00671855
0.00672307
0.000444845
0.000513046
0.00334673
0.000479345
0.0026854
0.00118003
0.00996324
0.00515659
0.00511996
0.00189392
0.000176958
0.00672039
0.00160951
0.0102069
0.00802129
0.00203315
0.00131925
0.00673722
4.29098e-05
0.000406782
2.96425e-05
0.00672509
0.000131744
0.00157978
0.000851969
0.00191142
0.00159062
0.00207958
0.00967752
0.00158645
0.00674013
0.00778086
4.24465e-05
0.00672222
0.00672226
3.14426e-05
0.00174828
0.000306552
3.90907e-05
0.0067229
0.0017482
0.00327051
0.000690645
0.00271867
0.00671387
0.00036614
0.00172905
0.000322815
0.00672856
0.00290759
0.00346272
0.00308866
0.00672278
0.000257927
0.00570918
0.000645325
0.0104054
0.00657808
0.00334513
0.0064502
0.000124576
0.00092562
0.00260818
0.00070527
0.00102591
0.00671835
0.000928969
0.00648971
0.000138039
0.0043763
0.00327938
0.00521839
0.00270579
0.0107624
0.00648937
0.00279678
0.00672038
0.00111478
0.00539237
0.000752639
0.000243648
0.0067228
0.000118391
0.00189806
0.000299882
0.000768034
0.00205376
0.000315782
0.013863
0.000321414
0.00676685
0.000291576
0.000947967
0.000190609
0.000656142
0.00481319
0.000686824
0.00044239
3.77954e-05
0.000185661
0.0020981
0.00265957
0.0103808
0.00227297
0.00684749
0.000341556
0.000150209
0.0138058
0.00429339
0.00496787
3.64048e-05
0.000241837
3.68219e-05
0.000160019
0.000944973
0.00672322
0.00322192
0.000132696
0.0046007
0.00012408
0.000545982
3.59399e-05
0.00870284
0.00672234
0.000413632
0.00170976
0.00041684
0.000245248
0.00672376
0.000330343
0.000565012
0.000911
0.00672355
0.00168749
0.000377827
0.00486198
0.00144932
0.00786166
0.00672542
0.00672082
0.00120907
7.75776e-05
0.00338763
0.00672295
0.0014995
0.00120299
0.000756215
0.00438308
0.00672482
0.00461252
5.04991e-05
0.00672295
0.00672213
0.000470627
0.0143186
0.0049021
0.00672558
0.000964779
0.0016411
8.66467e-05
0.00259545
0.00559426
0.00671837
0.00132307
0.000941649
0.0144803
0.00194063
4.04731e-05
0.000905865
0.0107864
0.00747591
0.00276949
0.00622791
0.00097616
0.00462951
0.00673616
0.000191965
0.00673129
0.00516561
0.00679764
5.14299e-05
0.00478104
0.00404858
0.000876684
0.0112956
0.00446914
0.0119913
0.00358765
0.000689867
0.00672541
0.00131179
0.000166781
0.000393115
0.0023338
0.00672179
0.000941007
0.0118317
0.00672024
0.000935397
0.0067238
0.000374265
0.00239781
3.57102e-05
6.05536e-05
0.000445457
0.000314577
0.00275022
0.0095679
0.0011742
0.0067182
0.0131932
0.0107539
0.005144
0.00673351
0.000424014
0.000716207
0.000428484
0.00671989
0.0049631
0.000231139
0.00037175
0.00674375
0.00671913
0.00190251
0.00312148
0.00203773
0.00221913
0.000543292
0.00373021
0.000190237
0.0022627
0.00357974
3.84702e-05
0.0067199
0.000657089
0.000232623
0.00104492
0.000282233
0.00503988
0.000860985
0.00856925
0.00336538
0.00671932
6.00184e-05
0.00672075
0.013289
0.0067235
0.0115276
0.00477641
0.00470267
0.00581893
0.000762278
0.00717048
0.0058441
0.000681375
0.00114291
0.000182581
0.00672105
0.000283748
0.00671916
0.0112724
0.000423811
0.0097821
0.00673242
0.00672675
0.000700521
0.00228217
0.00028184
0.00606213
6.36655e-05
0.000934261
0.00432674
0.00671939
0.00279489
0.00672221
0.00251668
0.00234469
0.0100566
0.000384674
0.00671913
0.00682004
9.68236e-05
3.03859e-05
0.00679325
0.000269701
4.49877e-05
0.00432096
0.00120899
0.00239751
0.00672341
0.00671972
0.00389411
0.000656098
0.00144139
0.0114279
4.23627e-05
5.41931e-05
0.00672586
0.00672231
0.0100304
0.00171368
0.00672232
0.00251409
0.00630562
0.0138075
0.00355132
0.00921323
0.000234109
3.32763e-05
0.00672586
0.0105643
0.00671808
0.00306658
0.00672194
0.00671816
0.000913378
0.00552869
0.00672356
0.0121685
0.000269383
4.1666e-05
0.00368325
0.00672207
0.00329839
0.00760636
0.000123556
6.08394e-05
0.00672748
0.000653532
0.0021992
0.0137024
0.0071045
0.00982186
0.00672888
0.0129913
0.00339645
0.0103221
3.45738e-05
0.0005218
0.000163474
0.00527291
0.000368591
0.012617
0.00154734
0.0100787
0.00671779
0.00672355
0.000133154
0.00371954
0.0002522
0.000660686
0.00671987
0.00754372
0.000978771
0.000117312
0.00671949
0.000385236
3.84534e-05
0.00672366
0.00091409
0.000555655
0.000520952
0.0067636
0.00672027
0.0107469
0.00794835
0.000927239
0.0068858
0.000202929
0.00672279
0.00695788
0.00282468
0.00672259
0.000330122
0.00672578
0.00673251
0.000776004
0.010029
0.00194798
0.004567
0.00118326
0.00522811
0.00292497
0.0029168
0.000713364
0.00671841
4.2541e-05
0.00672414
0.00313889
0.00671631
0.000101882
0.00472551
0.000399608
3.928e-05
0.0139368
0.00011596
0.00603426
0.00149708
0.00970811
0.00922171
0.00920634
0.00672117
0.00232023
0.00707305
0.00439178
0.000422435
0.00158834
0.00672197
0.00387832
1.01029e-06
0.0047221
0.00345629
0.000562612
0.0067249
0.00362658
0.00135965
0.00583042
0.0038913
0.00672472
0.000467025
0.00673803
0.00103625
0.00649753
0.000116833
0.000288256
0.00929855
0.00671916
0.00587022
0.0141801
0.00378165
0.0067251
0.000639421
0.000763711
0.00163616
0.00113729
0.00827846
0.0139592
0.000281594
0.00578245
0.00181178
0.000516291
0.00671839
0.00671955
0.00131762
0.00672011
0.000252638
0.00370017
0.00887869
0.00672187
0.00122213
0.00271395
0.00145902
0.00958946
6.72216e-05
0.000118256
0.00258283
0.000115236
0.0112268
0.000438283
0.0100861
0.000731539
0.00277376
0.012844
0.00913252
0.001446
0.006724
0.0013992
0.000429772
0.000303952
0.00674051
0.00284633
0.0067249
0.00671923
0.00672351
0.0102527
0.000995866
0.00672042
0.00238064
0.00672212
0.00664003
0.000545455
0.00683871
0.000404855
0.00671975
0.0143076
4.50347e-05
3.34216e-05
0.00130325
0.00135709
0.00672195
0.00103774
0.00266374
0.000463126
0.000236187
0.00243622
0.00672013
4.60131e-05
0.00156415
0.00672309
0.00041516
0.00672204
0.0109045
0.00672008
0.0052842
0.00294576
0.00093608
0.00672003
0.00340183
0.00672107
0.00678237
2.17356e-05
0.000861447
0.00119119
0.000271439
3.55917e-05
0.0136826
0.000347874
0.00089976
0.00203852
0.00969578
0.0088146
0.00685319
0.00161535
0.00665355
0.0049095
0.00117794
0.00671912
6.75073e-05
0.00156887
0.00297451
0.00259095
0.00672259
0.0049713
0.00460161
0.00672436
2.843e-05
0.0080786
0.00901074
0.000184956
0.000677478
2.88677e-05
0.000952947
0.00482762
0.00844414
0.00125692
0.00672229
0.00679181
4.01493e-05
0.000950786
0.00011499
0.000234391
0.00912767
0.00672193
0.00663129
0.0108287
0.0067188
0.000574105
0.00028577
0.00275395
0.00131997
0.0102359
0.00672542
0.00113534
0.00438637
4.37551e-05
3.9157e-05
0.00206705
0.00223254
0.00037883
0.0107148
0.00671838
8.21051e-05
0.00868625
0.00671973
0.00101396
0.00617377
0.000486743
0.00255406
0.00449532
0.000211118
0.00313332
0.00218902
0.00153454
0.00748263
0.000567581
0.002337
0.00205422
0.00542721
0.00611814
0.00218131
0.000144325
3.6451e-05
0.00161908
6.83453e-05
0.000108408
0.00672232
0.00057638
0.00335342
0.0067283
0.00193288
0.0067233
0.00231479
0.0126862
0.000389559
0.00672616
0.00358171
0.00462947
5.50892e-05
0.00199629
0.00103817
0.00216459
0.00743054
0.00191904
0.000715227
0.000311691
0.000154477
0.00463147
0.00675214
0.00672208
0.000116656
0.0077338
0.013258
0.0107264
0.00671773
0.000527639
0.000277216
7.52278e-05
0.00845774
0.0067223
0.00918152
0.00191318
0.00256582
0.00676019
0.00742953
0.00123918
0.00397674
0.00433949
0.000409155
0.0107064
0.000105395
0.00671901
6.53872e-05
0.00211733
0.00382903
0.00117442
0.00163291
0.00671929
0.0024257
0.000885436
0.00672617
0.000979864
0.00672421
0.000532028
0.00672541
0.012815
0.0067244
0.00924198
0.00673545
0.000465794
0.00557679
0.00105754
0.000970456
0.00672205
0.000713476
0.00252321
0.00672393
0.00472554
3.37035e-05
0.000102346
0.0067414
0.000709725
0.00566805
0.0100982
0.000982477
0.000251089
0.000334621
0.00487061
0.000656691
0.0030061
0.00121658
0.000120257
0.00672235
0.00022106
0.00626682
0.00672248
0.0122089
0.000511763
0.00620902
0.0067293
0.0024224
0.00672703
0.0139098
5.57326e-05
0.00672563
0.00485627
0.000311833
0.00481195
0.00187066
0.000686309
0.00672246
0.000383815
0.00877905
0.0067227
0.000334982
0.00282701
0.000705793
3.85632e-05
0.00833263
0.0105286
0.0019385
0.000489842
0.00764937
0.00228601
0.00973544
0.000354253
0.00118609
0.000323581
0.000696524
0.00672895
0.000143346
0.0067258
0.00648323
0.000756023
0.00497422
0.000636312
2.30224e-05
0.000550033
0.00173492
0.00672139
0.000523159
0.00672286
0.00672332
0.000568212
0.01161
0.00608394
0.00667223
5.81734e-05
0.000638146
0.0031523
0.00282595
0.000444516
0.00465694
0.000173989
0.00340551
3.40548e-05
0.00523689
0.00672223
0.00672496
2.44151e-05
0.00455226
0.000919785
0.00672241
0.00743531
0.00510824
0.00179132
0.00672502
0.00141433
0.013354
0.00205337
3.20457e-05
0.000236791
0.00672779
0.00217508
0.00672647
0.00624343
0.00672046
0.00737452
0.011106
0.012496
0.000923568
0.000301484
0.00516414
0.00672138
0.00539235
0.006724
0.00296921
0.0101932
0.000242588
0.00671858
0.00674052
3.24834e-05
5.48828e-05
0.000102804
0.00992438
0.000296952
0.00215799
0.00234261
0.0113086
2.4028e-05
0.0017793
3.14533e-05
0.0138354
0.00544014
0.00281225
0.000852296
0.00672647
0.000809437
0.000344687
2.33004e-05
0.00672669
0.000453405
0.00672248
0.00012194
0.0107739
0.00309779
0.00128323
0.00752436
0.0087955
0.00321538
0.00909744
0.00437936
0.00171663
0.00672435
0.0140214
0.00672291
0.0017717
0.00672256
0.00283202
0.00672411
0.00369939
0.00323951
0.000528641
0.00673835
0.00995933
0.00351204
0.00671526
0.00673897
0.00018995
9.60967e-05
0.000787406
0.000302436
0.00103238
0.0106563
0.0106371
0.0129301
0.00070323
0.00101344
0.000504738
0.00022903
0.00365125
0.00154965
0.00598616
0.000604988
0.000973269
0.00104655
0.00330499
9.32041e-05
0.000287695
0.00672365
0.000694385
0.00490905
0.00672233
0.000517487
2.97377e-05
0.001142
0.000637126
0.00325878
0.00160749
0.00987389
3.21753e-05
0.00674819
0.0007011
0.00353542
0.000467515
0.00229372
4.18871e-05
0.00421707
0.000456295
0.000378875
0.00866527
0.00131887
0.00823818
0.000654586
0.00528641
0.00672281
0.00671929
0.00916195
0.00571646
0.00613548
0.0103445
0.0115553
0.000231353
0.000433561
0.000850584
0.00733983
0.00418049
0.00672107
0.000751466
0.000334298
0.000183553
0.00487312
0.00116702
3.91071e-05
0.00743197
0.00404738
0.000421941
0.00684792
3.96998e-05
0.000225299
0.000660134
0.00633206
0.00760242
0.00880802
4.11735e-05
0.000769964
0.0048853
0.00270643
0.00142902
0.000336548
0.00415166
0.00647872
0.00295927
0.000119071
0.00673091
0.00036281
0.000631589
0.0116331
0.00672228
0.00138001
0.000257604
0.00575673
0.00672186
0.00130411
0.000192684
0.000823195
0.00131856
0.00645893
0.00541882
0.00579014
0.00672488
0.000309223
0.00963681
0.00260396
0.000329296
0.00280183
0.00184319
0.00672544
0.0100575
0.000489901
2.41677e-05
0.00150993
0.0078302
0.00674475
0.00671523
0.00672663
0.00672077
0.00671975
0.00954878
3.11585e-05
0.00745775
0.00672419
0.00647653
0.00968909
0.00147352
0.011411
0.000572919
0.0067848
3.61002e-05
0.00029858
0.00111434
0.00609645
0.00183643
0.000533151
3.35053e-05
0.000411563
0.00672261
3.46013e-05
0.00671851
2.90692e-05
0.00255779
0.000374407
0.00673377
0.0037831
3.70554e-05
0.00672473
0.00767307
0.00672257
0.00588067
0.0123691
0.000470976
0.000735545
8.82093e-05
0.000653572
0.00682301
0.00676864
0.00511579
0.000290482
0.000555696
4.17653e-05
3.33655e-05
0.00200765
0.000461877
0.000200689
0.00311036
0.000459142
0.00685775
0.00061377
0.00509668
0.00217946
0.00672463
0.0018106
0.000212349
0.00728085
0.00672142
0.00511357
4.61348e-05
0.00549968
0.00340135
0.00672473
2.75943e-05
0.00968402
0.0033372
0.00672612
3.79041e-05
0.0109074
0.000993507
0.000494557
4.18264e-05
0.0094611
0.000975022
0.00108076
3.40172e-05
0.000571903
0.00124279
0.000515798
0.00672222
9.95551e-05
0.0104085