/*--------------------------------*- C++ -*----------------------------------*\
| =========                 |                                                 |
| \\      /  F ield         | OpenFOAM: The Open Source CFD Toolbox           |
|  \\    /   O peration     | Version:  v2012                                 |
|   \\  /    A nd           | Website:  www.openfoam.com                      |
|    \\/     M anipulation  |                                                 |
\*---------------------------------------------------------------------------*/
FoamFile
{
    version     2.0;
    format      ascii;
    class       pointVectorField;
    location    "950";
    object      pointDisplacement;
}
// * * * * * * * * * * * * * * * * * * * * * * * * * * * * * * * * * * * * * //

dimensions      [0 1 0 0 0 0 0];


internalField   nonuniform List<vector> 
19270
(
(0 0 0)
(0 0 0)
(0 0 0)
(0 0 0)
(0 0 0)
(0 0 0)
(0 0 0)
(0 0 0)
(0 0 0)
(0 0 0)
(0 0 0)
(0 0 0)
(0 0 0)
(0 0 0)
(0 0 0)
(0 0 0)
(0 0 0)
(0 0 0)
(0 0 0)
(0 0 0)
(0 0 0)
(0 0 0)
(0 0 0)
(0 0 0)
(0 0 0)
(0 0 0)
(0 0 0)
(0 0 0)
(0 0 0)
(0 0 0)
(0 0 0)
(0 0 0)
(0 0 0)
(0 0 0)
(0 0 0)
(0 0 0)
(0 0 0)
(0 0 0)
(0 0 0)
(0 0 0)
(0 0 0)
(0 0 0)
(0 0 0)
(0 0 0)
(0 0 0)
(0 0 0)
(0 0 0)
(0 0 0)
(0 0 0)
(0 0 0)
(0 0 0)
(0 0 0)
(0 0 0)
(0 0 0)
(0 0 0)
(0 0 0)
(0 0 0)
(0 0 0)
(0 0 0)
(0 0 0)
(0 0 0)
(0 0 0)
(0 0 0)
(0 0 0)
(0 0 0)
(0 0 0)
(0 0 0)
(0 0 0)
(0 0 0)
(0 0 0)
(0 0 0)
(0 0 0)
(0 0 0)
(0 0 0)
(0 0 0)
(0 0 0)
(0 0 0)
(0 0 0)
(0 0 0)
(0 0 0)
(0 0 0)
(0 0 0)
(0 0 0)
(0 0 0)
(0 0 0)
(0 0 0)
(0 0 0)
(0 0 0)
(0 0 0)
(0 0 0)
(0 0 0)
(0 0 0)
(0 0 0)
(0 0 0)
(0 0 0)
(0 0 0)
(0 0 0)
(0 0 0)
(0 0 0)
(0 0 0)
(0 0 0)
(0 0 0)
(0 0 0)
(0 0 0)
(0 0 0)
(0 0 0)
(0 0 0)
(0 0 0)
(0 0 0)
(0 0 0)
(0 0 0)
(0 0 0)
(0 0 0)
(0 0 0)
(0 0 0)
(0 0 0)
(0 0 0)
(0 0 0)
(0 0 0)
(0 0 0)
(0 0 0)
(0 0 0)
(0 0 0)
(0 0 0)
(0 0 0)
(0 0 0)
(0 0 0)
(0 0 0)
(0 0 0)
(0 0 0)
(0 0 0)
(0 0 0)
(0 0 0)
(0 0 0)
(0 0 0)
(0 0 0)
(0 0 0)
(0 0 0)
(0 0 0)
(0 0 0)
(0 0 0)
(0 0 0)
(0 0 0)
(0 0 0)
(0 0 0)
(0 0 0)
(0 0 0)
(0 0 0)
(0 0 0)
(0 0 0)
(0 0 0)
(0 0 0)
(0 0 0)
(0 0 0)
(0 0 0)
(0 0 0)
(0 0 0)
(0 0 0)
(0 0 0)
(0 0 0)
(0 0 0)
(0 0 0)
(0 0 0)
(0 0 0)
(0 0 0)
(0 0 0)
(0 0 0)
(0 0 0)
(0 0 0)
(0 0 0)
(0 0 0)
(0 0 0)
(0 0 0)
(0 0 0)
(0 0 0)
(0 0 0)
(0 0 0)
(0 0 0)
(0 0 0)
(0 0 0)
(0 0 0)
(0 0 0)
(0 0 0)
(0 0 0)
(0 0 0)
(0 0 0)
(0 0 0)
(0 0 0)
(0 0 0)
(0 0 0)
(0 0 0)
(0 0 0)
(0 0 0)
(0 0 0)
(0 0 0)
(0 0 0)
(0 0 0)
(0 0 0)
(0 0 0)
(0 0 0)
(0 0 0)
(0 0 0)
(0 0 0)
(0 0 0)
(0 0 0)
(0 0 0)
(0 0 0)
(0 0 0)
(0 0 0)
(0 0 0)
(0 0 0)
(0 0 0)
(0 0 0)
(0 0 0)
(0 0 0)
(0 0 0)
(0 0 0)
(0 0 0)
(0 0 0)
(0 0 0)
(0 0 0)
(0 0 0)
(0 0 0)
(0 0 0)
(0 0 0)
(0 0 0)
(0 0 0)
(0 0 0)
(0 0 0)
(0 0 0)
(0 0 0)
(0 0 0)
(0 0 0)
(0 0 0)
(0 0 0)
(0 0 0)
(0 0 0)
(0 0 0)
(0 0 0)
(0 0 0)
(0 0 0)
(0 0 0)
(0 0 0)
(0 0 0)
(0 0 0)
(0 0 0)
(0 0 0)
(0 0 0)
(0 0 0)
(0 0 0)
(0 0 0)
(0 0 0)
(0 0 0)
(0 0 0)
(0 0 0)
(0 0 0)
(0 0 0)
(0 0 0)
(0 0 0)
(0 0 0)
(0 0 0)
(0 0 0)
(0 0 0)
(0 0 0)
(0 0 0)
(0 0 0)
(0 0 0)
(0 0 0)
(0 0 0)
(0 0 0)
(0 0 0)
(0 0 0)
(0 0 0)
(0 0 0)
(0 0 0)
(0 0 0)
(0 0 0)
(0 0 0)
(0 0 0)
(0 0 0)
(0 0 0)
(0 0 0)
(0 0 0)
(0 0 0)
(0 0 0)
(0 0 0)
(0 0 0)
(0 0 0)
(0 0 0)
(0 0 0)
(0 0 0)
(0 0 0)
(0 0 0)
(0 0 0)
(0 0 0)
(0 0 0)
(0 0 0)
(0 0 0)
(0 0 0)
(0 0 0)
(0 0 0)
(0 0 0)
(0 0 0)
(0 0 0)
(0 0 0)
(0 0 0)
(0 0 0)
(0 0 0)
(0 0 0)
(0 0 0)
(0 0 0)
(0 0 0)
(0 0 0)
(0 0 0)
(0 0 0)
(0 0 0)
(0 0 0)
(0 0 0)
(0 0 0)
(0 0 0)
(0 0 0)
(0 0 0)
(0 0 0)
(0 0 0)
(0 0 0)
(0 0 0)
(0 -1.89864e-05 0)
(0 -1.46973e-05 0)
(0 -1.84969e-05 0)
(0 -1.5895e-05 0)
(0 -1.70103e-05 0)
(0 -1.10597e-05 0)
(0 -1.19694e-05 0)
(0 -1.37599e-05 0)
(0 -6.24429e-06 0)
(0 -9.92318e-06 0)
(0 -2.06626e-06 0)
(0 -1.21434e-05 0)
(0 4.28268e-08 0)
(0 -1.67769e-05 0)
(0 -9.22403e-06 0)
(0 -9.42357e-06 0)
(0 -7.81756e-06 0)
(0 -7.38469e-06 0)
(0 -1.79843e-05 0)
(0 -6.02492e-06 0)
(0 -4.93613e-06 0)
(0 -3.7911e-06 0)
(0 -1.2128e-07 0)
(0 -1.82324e-05 0)
(0 -1.46484e-05 0)
(0 -1.46262e-05 0)
(0 -1.17114e-05 0)
(0 -1.09222e-05 0)
(0 -3.40544e-06 0)
(0 -2.49187e-06 0)
(0 -1.01842e-05 0)
(0 -3.16819e-06 0)
(0 -3.07752e-07 0)
(0 -1.38056e-05 0)
(0 -7.92222e-06 0)
(0 -1.01498e-05 0)
(0 -1.33165e-05 0)
(0 -1.54471e-05 0)
(0 -1.19271e-05 0)
(0 -8.5296e-06 0)
(0 -2.2096e-06 0)
(0 -1.46777e-06 0)
(0 -5.5695e-06 0)
(0 -3.34835e-07 0)
(0 -1.10922e-05 0)
(0 -1.57957e-05 0)
(0 -1.19656e-05 0)
(0 -1.77607e-05 0)
(0 -1.518e-05 0)
(0 -1.79659e-05 0)
(0 -1.481e-06 0)
(0 -4.19172e-06 0)
(0 -5.50094e-06 0)
(0 -1.09025e-05 0)
(0 -1.10968e-05 0)
(0 -1.82787e-05 0)
(0 -1.41991e-05 0)
(0 -1.03885e-05 0)
(0 -1.95987e-05 0)
(0 -1.63104e-05 0)
(0 -1.57192e-05 0)
(0 -1.80983e-05 0)
(0 -1.20204e-05 0)
(0 -1.10582e-05 0)
(0 -1.08887e-05 0)
(0 -9.26374e-06 0)
(0 -6.94155e-06 0)
(0 -5.86283e-06 0)
(0 -3.97205e-06 0)
(0 -5.71745e-07 0)
(0 -0.000351799 0)
(0 -0.000453996 0)
(0 -0.000512428 0)
(0 -0.000524932 0)
(0 -0.000535642 0)
(0 -0.000544538 0)
(0 -0.000550939 0)
(0 -0.000555228 0)
(0 -0.000557145 0)
(0 -0.00055662 0)
(0 -0.000553853 0)
(0 -0.00054857 0)
(0 -0.000541221 0)
(0 -0.000532048 0)
(0 -0.00052154 0)
(0 -0.000509537 0)
(0 -0.000495891 0)
(0 -0.000479906 0)
(0 -0.00046206 0)
(0 -0.000450111 0)
(0 -0.000443074 0)
(0 -0.000444653 0)
(0 -0.000437722 0)
(0 -0.000438928 0)
(0 -0.000432136 0)
(0 -0.000432999 0)
(0 -0.000426298 0)
(0 -0.000426868 0)
(0 -0.000420226 0)
(0 -0.000420457 0)
(0 -0.000413879 0)
(0 -0.000413358 0)
(0 -0.000413822 0)
(0 -0.000407236 0)
(0 -0.000406905 0)
(0 -0.000400196 0)
(0 -0.000399607 0)
(0 -0.000406034 0)
(0 -0.000398467 0)
(0 -0.000404619 0)
(0 -0.000392094 0)
(0 -0.000390728 0)
(0 -0.000384292 0)
(0 -0.000382824 0)
(0 -0.00037638 0)
(0 -0.000374615 0)
(0 -0.000217492 0)
(0 -0.000207662 0)
(0 -0.000214061 0)
(0 -0.000204513 0)
(0 -0.0002101 0)
(0 -0.00020132 0)
(0 -0.000206995 0)
(0 -0.00019839 0)
(0 -0.000204541 0)
(0 -0.000195654 0)
(0 -0.000201827 0)
(0 -0.000192984 0)
(0 -0.000199192 0)
(0 -0.000190354 0)
(0 -0.000196782 0)
(0 -0.000187833 0)
(0 -0.000194281 0)
(0 -0.000185583 0)
(0 -0.000191996 0)
(0 -0.000183583 0)
(0 -0.000189824 0)
(0 -0.000181348 0)
(0 -0.000187747 0)
(0 -0.000179286 0)
(0 -0.000185667 0)
(0 -0.00017634 0)
(0 -0.000183788 0)
(0 -0.000175849 0)
(0 -0.000182328 0)
(0 -0.000174379 0)
(0 -0.00018094 0)
(0 -0.000172923 0)
(0 -0.000179548 0)
(0 -0.000171564 0)
(0 -0.000178166 0)
(0 -0.000170158 0)
(0 -0.000176823 0)
(0 -0.000169001 0)
(0 -0.000175691 0)
(0 -0.000167997 0)
(0 -0.000174546 0)
(0 -0.000166882 0)
(0 -0.000173425 0)
(0 -0.000165762 0)
(0 -0.000182785 0)
(0 -0.000172596 0)
(0 -0.000165048 0)
(0 -0.000157834 0)
(0 -0.000158098 0)
(0 -0.000150485 0)
(0 -0.000151132 0)
(0 -0.000143636 0)
(0 -0.000143064 0)
(0 -0.000136994 0)
(0 -0.000136301 0)
(0 -0.000130507 0)
(0 -0.000129931 0)
(0 -0.000124193 0)
(0 -0.0001239 0)
(0 -0.000118043 0)
(0 -0.000118026 0)
(0 -0.000112258 0)
(0 -0.000112457 0)
(0 -0.000106847 0)
(0 -0.000107287 0)
(0 -0.000101717 0)
(0 -0.000102234 0)
(0 -9.68491e-05 0)
(0 -9.74412e-05 0)
(0 -9.22282e-05 0)
(0 -9.28865e-05 0)
(0 -8.77868e-05 0)
(0 -8.85177e-05 0)
(0 -8.35715e-05 0)
(0 -8.43425e-05 0)
(0 -7.958e-05 0)
(0 -8.03594e-05 0)
(0 -7.57818e-05 0)
(0 -7.66207e-05 0)
(0 -7.22254e-05 0)
(0 -7.31709e-05 0)
(0 -6.89636e-05 0)
(0 -7.00188e-05 0)
(0 -6.59499e-05 0)
(0 -6.70964e-05 0)
(0 -6.31207e-05 0)
(0 -6.43118e-05 0)
(0 -6.03306e-05 0)
(0 -6.17019e-05 0)
(0 -5.77223e-05 0)
(0 -5.94725e-05 0)
(0 -5.53025e-05 0)
(0 -5.65682e-05 0)
(0 -5.29604e-05 0)
(0 -5.43753e-05 0)
(0 -5.08641e-05 0)
(0 -5.2601e-05 0)
(0 -4.89346e-05 0)
(0 -5.03753e-05 0)
(0 -4.71377e-05 0)
(0 -0.000172046 0)
(0 -0.000123924 0)
(0 -8.91786e-05 0)
(0 -0.000177549 0)
(0 -0.000106261 0)
(0 -6.52826e-05 0)
(0 -5.19131e-05 0)
(0 -8.25779e-05 0)
(0 -5.13293e-05 0)
(0 -6.47165e-05 0)
(0 -0.000367388 0)
(0 -0.000366177 0)
(0 -0.000359362 0)
(0 -0.000357753 0)
(0 -0.000351298 0)
(0 -0.000352974 0)
(0 -0.000349136 0)
(0 -0.000355392 0)
(0 -0.000342843 0)
(0 -0.000340281 0)
(0 -0.000333962 0)
(0 -0.00033118 0)
(0 -0.000324811 0)
(0 -0.000322014 0)
(0 -0.000315661 0)
(0 -0.000312758 0)
(0 -0.000306379 0)
(0 -0.000303322 0)
(0 -0.00019052 0)
(0 -0.000296808 0)
(0 -0.000299638 0)
(0 -0.000293623 0)
(0 -0.000299836 0)
(0 -0.000289947 0)
(0 -0.000295815 0)
(0 -0.000283843 0)
(0 -0.000280026 0)
(0 -0.000274004 0)
(0 -0.000270094 0)
(0 -0.000264155 0)
(0 -0.000260176 0)
(0 -0.000254323 0)
(0 -0.000250256 0)
(0 -0.000244503 0)
(0 -0.000240295 0)
(0 -0.000245775 0)
(0 -0.000234666 0)
(0 -0.000230394 0)
(0 -0.000238808 0)
(0 -0.000224832 0)
(0 -0.000220545 0)
(0 -0.000168397 0)
(0 -0.000215064 0)
(0 -0.000210727 0)
(0 -0.000205303 0)
(0 -0.000200923 0)
(0 -0.000195546 0)
(0 -0.000191121 0)
(0 -0.000196157 0)
(0 -0.000186331 0)
(0 -0.00019093 0)
(0 -0.000181447 0)
(0 -0.00020114 0)
(0 -0.000176689 0)
(0 -0.000171915 0)
(0 -0.000167256 0)
(0 -0.000162536 0)
(0 -0.000157946 0)
(0 -0.000153307 0)
(0 -0.000148754 0)
(0 -0.000186689 0)
(0 -1.02241e-05 0)
(0 -1.25173e-05 0)
(0 -1.14118e-05 0)
(0 -1.38644e-05 0)
(0 -1.27497e-05 0)
(0 -1.57124e-05 0)
(0 -1.41537e-05 0)
(0 -1.68992e-05 0)
(0 -1.55742e-05 0)
(0 -1.8402e-05 0)
(0 -1.71204e-05 0)
(0 -2.01269e-05 0)
(0 -1.88313e-05 0)
(0 -2.20287e-05 0)
(0 -2.06826e-05 0)
(0 -1.75425e-05 0)
(0 -1.93781e-05 0)
(0 -1.63321e-05 0)
(0 -1.81589e-05 0)
(0 -1.51951e-05 0)
(0 -1.70792e-05 0)
(0 -1.42669e-05 0)
(0 -1.60918e-05 0)
(0 -1.3106e-05 0)
(0 -1.52172e-05 0)
(0 -1.26065e-05 0)
(0 -1.44954e-05 0)
(0 -1.19559e-05 0)
(0 -1.38613e-05 0)
(0 -1.13957e-05 0)
(0 -1.3366e-05 0)
(0 -1.1025e-05 0)
(0 -1.89715e-05 0)
(0 -1.29869e-05 0)
(0 -1.07151e-05 0)
(0 -1.26743e-05 0)
(0 -1.04092e-05 0)
(0 -1.51278e-05 0)
(0 -1.9524e-05 0)
(0 -1.24363e-05 0)
(0 -1.02776e-05 0)
(0 -1.22988e-05 0)
(0 -1.01886e-05 0)
(0 -1.22719e-05 0)
(0 -1.02298e-05 0)
(0 -1.23626e-05 0)
(0 -1.04148e-05 0)
(0 -1.2553e-05 0)
(0 -1.06544e-05 0)
(0 -1.46521e-05 0)
(0 -9.05825e-06 0)
(0 -1.28341e-05 0)
(0 -1.09735e-05 0)
(0 -1.32136e-05 0)
(0 -1.13771e-05 0)
(0 -9.23343e-06 0)
(0 -9.7017e-06 0)
(0 -7.6702e-06 0)
(0 -8.18552e-06 0)
(0 -6.25758e-06 0)
(0 -6.7759e-06 0)
(0 -4.71603e-06 0)
(0 -5.51446e-06 0)
(0 -3.77953e-06 0)
(0 -4.41715e-06 0)
(0 -2.81562e-06 0)
(0 -3.39555e-06 0)
(0 -1.89543e-06 0)
(0 -2.49089e-06 0)
(0 -1.11213e-06 0)
(0 -1.70854e-06 0)
(0 -4.135e-07 0)
(0 -4.95671e-06 0)
(0 -1.18584e-05 0)
(0 -2.2124e-06 0)
(0 -1.00343e-05 0)
(0 -8.3474e-06 0)
(0 -2.40055e-05 0)
(0 -0.000144233 0)
(0 -0.000148689 0)
(0 -0.000199799 0)
(0 -0.000153295 0)
(0 -0.000139666 0)
(0 -0.000135228 0)
(0 -0.000130677 0)
(0 -0.000126324 0)
(0 -0.000121759 0)
(0 -0.000117522 0)
(0 -0.000195204 0)
(0 -0.000204935 0)
(0 -0.00019741 0)
(0 -0.000206989 0)
(0 -0.000199267 0)
(0 -0.000112993 0)
(0 -0.000116674 0)
(0 -0.000189681 0)
(0 -0.000191363 0)
(0 -0.000200813 0)
(0 -0.000192749 0)
(0 -5.7418e-05 0)
(0 -5.86566e-05 0)
(0 -6.12414e-05 0)
(0 -6.25397e-05 0)
(0 -5.95692e-05 0)
(0 -6.34654e-05 0)
(0 -6.63918e-05 0)
(0 -6.72039e-05 0)
(0 -7.01207e-05 0)
(0 -7.07836e-05 0)
(0 -7.37443e-05 0)
(0 -7.43406e-05 0)
(0 -7.73618e-05 0)
(0 -7.81214e-05 0)
(0 -7.48372e-05 0)
(0 -7.87997e-05 0)
(0 -8.22798e-05 0)
(0 -8.30837e-05 0)
(0 -8.67023e-05 0)
(0 -8.75299e-05 0)
(0 -9.11144e-05 0)
(0 -9.19732e-05 0)
(0 -9.55694e-05 0)
(0 -9.64153e-05 0)
(0 -0.000100187 0)
(0 -0.000100947 0)
(0 -9.672e-05 0)
(0 -0.000101272 0)
(0 -0.000105552 0)
(0 -0.000106102 0)
(0 -0.000110485 0)
(0 -0.000111395 0)
(0 -0.000115905 0)
(0 -0.000117228 0)
(0 -0.000121855 0)
(0 -0.000123608 0)
(0 -0.000118572 0)
(0 -0.000125309 0)
(0 -0.000130372 0)
(0 -0.000132356 0)
(0 -0.000137432 0)
(0 -0.000139656 0)
(0 -0.00014479 0)
(0 -0.000147162 0)
(0 -0.000152284 0)
(0 -0.000154736 0)
(0 -0.000159831 0)
(0 -0.000162368 0)
(0 -0.000167556 0)
(0 -0.000170195 0)
(0 -0.000175545 0)
(0 -0.000178253 0)
(0 -0.000183766 0)
(0 -0.000186474 0)
(0 -0.000192102 0)
(0 -0.00019482 0)
(0 -0.00020051 0)
(0 -0.00020329 0)
(0 -0.000209134 0)
(0 -0.000212014 0)
(0 -0.000218143 0)
(0 -0.000221102 0)
(0 -0.000227481 0)
(0 -0.000230504 0)
(0 -0.000236975 0)
(0 -0.00024001 0)
(0 -0.000246504 0)
(0 -0.00024955 0)
(0 -0.000256027 0)
(0 -0.000259082 0)
(0 -0.000265457 0)
(0 -0.000268595 0)
(0 -0.000274911 0)
(0 -0.000278169 0)
(0 -0.000284457 0)
(0 -0.000287737 0)
(0 -0.00029391 0)
(0 -0.000297115 0)
(0 -0.000303412 0)
(0 -0.00030645 0)
(0 -0.000312936 0)
(0 -0.000315798 0)
(0 -0.00032253 0)
(0 -0.000325346 0)
(0 -0.0003324 0)
(0 -0.00033523 0)
(0 -0.00034267 0)
(0 -0.000345471 0)
(0 -0.000337568 0)
(0 -0.000347619 0)
(0 -0.000355783 0)
(0 -0.000357638 0)
(0 -0.000365812 0)
(0 -0.000367559 0)
(0 -0.000358931 0)
(0 -0.000368758 0)
(0 -0.000377423 0)
(0 -0.000378382 0)
(0 -0.000329366 0)
(0 -0.000369228 0)
(0 -0.000378445 0)
(0 -0.000387629 0)
(0 -0.000387319 0)
(0 -0.000396658 0)
(0 -0.000396034 0)
(0 -0.000386263 0)
(0 -0.000394715 0)
(0 -0.000404576 0)
(0 -0.000402937 0)
(0 -0.000412754 0)
(0 -0.000410945 0)
(0 -0.000400998 0)
(0 -0.000408616 0)
(0 -0.000291548 0)
(0 -0.000418845 0)
(0 -0.000416198 0)
(0 -0.000405783 0)
(0 -0.000413161 0)
(0 -0.000423762 0)
(0 -0.000420512 0)
(0 -0.000431034 0)
(0 -0.000427627 0)
(0 -0.000416794 0)
(0 -0.000423791 0)
(0 -0.000434449 0)
(0 -0.000430584 0)
(0 -0.000419643 0)
(0 -0.000426237 0)
(0 -0.000437019 0)
(0 -0.000432432 0)
(0 -0.000443052 0)
(0 -0.000438301 0)
(0 -0.000427383 0)
(0 -0.000432977 0)
(0 -0.000443773 0)
(0 -0.000438079 0)
(0 -0.000448445 0)
(0 -0.000442774 0)
(0 -0.000431774 0)
(0 -0.000436538 0)
(0 -0.000447362 0)
(0 -0.000441115 0)
(0 -0.000243184 0)
(0 -0.000429655 0)
(0 -0.00043418 0)
(0 -0.000445445 0)
(0 -0.000438552 0)
(0 -0.00044951 0)
(0 -0.0004427 0)
(0 -0.000431384 0)
(0 -0.000435614 0)
(0 -0.000446079 0)
(0 -0.000439235 0)
(0 -0.000428066 0)
(0 -0.000431874 0)
(0 -0.000442713 0)
(0 -0.000435253 0)
(0 -0.000445898 0)
(0 -0.000438232 0)
(0 -0.000426872 0)
(0 -0.000429713 0)
(0 -0.000440807 0)
(0 -0.000432198 0)
(0 -0.00044298 0)
(0 -0.000434517 0)
(0 -0.00042347 0)
(0 -0.000425856 0)
(0 -0.00043728 0)
(0 -0.000428332 0)
(0 -0.000417024 0)
(0 -0.000418996 0)
(0 -0.000430011 0)
(0 -0.00042036 0)
(0 -0.000430969 0)
(0 -0.00042157 0)
(0 -0.000409329 0)
(0 -0.000412324 0)
(0 -0.000422799 0)
(0 -0.000413276 0)
(0 -0.000402931 0)
(0 -0.000403404 0)
(0 -0.000413967 0)
(0 -0.000404085 0)
(0 -0.000197508 0)
(0 -0.000393374 0)
(0 -0.000394133 0)
(0 -0.000414316 0)
(0 -0.000383158 0)
(0 -0.000383939 0)
(0 -0.000157252 0)
(0 -0.000372645 0)
(0 -0.000373535 0)
(0 -0.000361844 0)
(0 -0.000362853 0)
(0 -0.000280951 0)
(0 -0.000350717 0)
(0 -0.000351759 0)
(0 -0.000349419 0)
(0 -0.000363507 0)
(0 -0.000352401 0)
(0 -0.000363741 0)
(0 -0.000352712 0)
(0 -0.000341115 0)
(0 -0.000341413 0)
(0 -0.00012024 0)
(0 -0.000352842 0)
(0 -0.000341606 0)
(0 -0.00032992 0)
(0 -0.000330246 0)
(0 -0.000318359 0)
(0 -0.000318895 0)
(0 -0.000352706 0)
(0 -7.52612e-05 0)
(0 -0.000306828 0)
(0 -0.000307554 0)
(0 -0.000295271 0)
(0 -0.000296087 0)
(0 -0.000308124 0)
(0 -0.000296769 0)
(0 -0.00028452 0)
(0 -0.000285313 0)
(0 -0.000308486 0)
(0 -0.000272874 0)
(0 -0.000273817 0)
(0 -0.000243002 0)
(0 -0.000261243 0)
(0 -0.000262281 0)
(0 -0.000164733 0)
(0 -0.000249585 0)
(0 -0.00025065 0)
(0 -0.000248294 0)
(0 -0.000262965 0)
(0 -0.000251406 0)
(0 -0.000119944 0)
(0 -0.000439562 0)
(0 -0.00023901 0)
(0 -0.000239856 0)
(0 -0.00020618 0)
(0 -0.000108911 0)
(0 -0.000113045 0)
(0 -0.000104515 0)
(0 -0.000183297 0)
(0 -0.000184574 0)
(0 -0.000131146 0)
(0 -9.87825e-05 0)
(0 -0.000263334 0)
(0 -0.000202065 0)
(0 -0.000227433 0)
(0 -0.000228352 0)
(0 -0.000294449 0)
(0 -0.000100598 0)
(0 -9.63162e-05 0)
(0 -0.000175118 0)
(0 -0.000176301 0)
(0 -0.000211764 0)
(0 -7.64164e-05 0)
(0 -0.000215916 0)
(0 -0.000216853 0)
(0 -9.25329e-05 0)
(0 -8.83938e-05 0)
(0 -0.000166815 0)
(0 -0.000167902 0)
(0 -0.000204371 0)
(0 -0.000205321 0)
(0 -0.000217451 0)
(0 -0.000205977 0)
(0 -0.000217694 0)
(0 -0.000206297 0)
(0 -0.000194628 0)
(0 -0.000195002 0)
(0 -0.000183368 0)
(0 -0.000183778 0)
(0 -0.000194979 0)
(0 -0.000183856 0)
(0 -8.46771e-05 0)
(0 -8.07119e-05 0)
(0 -8.39281e-05 0)
(0 -0.000158386 0)
(0 -0.000159398 0)
(0 -0.000168744 0)
(0 -0.000160165 0)
(0 -0.000157159 0)
(0 -0.000169336 0)
(0 -0.000160682 0)
(0 -0.000169673 0)
(0 -0.000160962 0)
(0 -1.92176e-05 0)
(0 -2.15969e-05 0)
(0 -2.0597e-05 0)
(0 -2.30804e-05 0)
(0 -2.21342e-05 0)
(0 -2.47021e-05 0)
(0 -2.37599e-05 0)
(0 -2.64478e-05 0)
(0 -2.55431e-05 0)
(0 -2.83392e-05 0)
(0 -2.75608e-05 0)
(0 -3.03964e-05 0)
(0 -2.95391e-05 0)
(0 -3.25034e-05 0)
(0 -3.15815e-05 0)
(0 -0.000151951 0)
(0 -0.0001522 0)
(0 -0.000172716 0)
(0 -0.000172922 0)
(0 -3.47835e-05 0)
(0 -3.3919e-05 0)
(0 -0.000203141 0)
(0 -3.72193e-05 0)
(0 -3.64779e-05 0)
(0 -6.01653e-05 0)
(0 -9.66764e-05 0)
(0 -7.63426e-05 0)
(0 -7.84733e-05 0)
(0 -7.33146e-05 0)
(0 -3.98034e-05 0)
(0 -3.92129e-05 0)
(0 -4.26431e-05 0)
(0 -4.21404e-05 0)
(0 -4.58328e-05 0)
(0 -4.53073e-05 0)
(0 -0.000169752 0)
(0 -0.000161885 0)
(0 -0.000162223 0)
(0 -0.00014316 0)
(0 -0.000143387 0)
(0 -0.000194569 0)
(0 -0.000148689 0)
(0 -0.000147308 0)
(0 -7.00812e-05 0)
(0 -7.57845e-05 0)
(0 -7.30957e-05 0)
(0 -7.88767e-05 0)
(0 -7.61725e-05 0)
(0 -8.21917e-05 0)
(0 -7.93586e-05 0)
(0 -8.57291e-05 0)
(0 -8.27083e-05 0)
(0 -8.92332e-05 0)
(0 -8.62158e-05 0)
(0 -7.98568e-05 0)
(0 -8.33802e-05 0)
(0 -7.72372e-05 0)
(0 -8.04911e-05 0)
(0 -8.70701e-05 0)
(0 -8.42665e-05 0)
(0 -7.76844e-05 0)
(0 -8.16104e-05 0)
(0 -7.52968e-05 0)
(0 -7.90997e-05 0)
(0 -7.29958e-05 0)
(0 -7.67376e-05 0)
(0 -7.06171e-05 0)
(0 -7.45341e-05 0)
(0 -6.84062e-05 0)
(0 -7.24872e-05 0)
(0 -6.65407e-05 0)
(0 -7.06335e-05 0)
(0 -6.4881e-05 0)
(0 -6.90203e-05 0)
(0 -6.35835e-05 0)
(0 -6.7662e-05 0)
(0 -8.07958e-05 0)
(0 -7.33432e-05 0)
(0 -7.1997e-05 0)
(0 -7.7884e-05 0)
(0 -7.64651e-05 0)
(0 -8.11398e-05 0)
(0 -6.26251e-05 0)
(0 -9.09648e-05 0)
(0 -8.25055e-05 0)
(0 -8.09138e-05 0)
(0 -2.40751e-05 0)
(0 -6.91158e-05 0)
(0 -6.62406e-05 0)
(0 -4.9231e-05 0)
(0 -0.000151321 0)
(0 -0.000151763 0)
(0 -0.000134328 0)
(0 -0.000134535 0)
(0 -8.71839e-05 0)
(0 -8.54637e-05 0)
(0 8.61725e-06 0)
(0 8.32734e-06 0)
(0 8.61081e-06 0)
(0 8.31572e-06 0)
(0 8.59056e-06 0)
(0 8.30341e-06 0)
(0 8.56233e-06 0)
(0 8.26589e-06 0)
(0 8.51888e-06 0)
(0 8.20836e-06 0)
(0 8.50842e-06 0)
(0 8.14086e-06 0)
(0 8.41653e-06 0)
(0 8.05203e-06 0)
(0 8.34792e-06 0)
(0 7.9628e-06 0)
(0 8.26017e-06 0)
(0 7.86782e-06 0)
(0 8.15547e-06 0)
(0 7.7572e-06 0)
(0 8.05096e-06 0)
(0 7.63877e-06 0)
(0 8.00407e-06 0)
(0 7.48954e-06 0)
(0 7.79777e-06 0)
(0 7.29e-06 0)
(0 7.58568e-06 0)
(0 6.95203e-06 0)
(0 7.49513e-06 0)
(0 7.07591e-06 0)
(0 7.36916e-06 0)
(0 7.91238e-06 0)
(0 6.83746e-06 0)
(0 7.14703e-06 0)
(0 6.55989e-06 0)
(0 6.89524e-06 0)
(0 7.48626e-06 0)
(0 7.18535e-06 0)
(0 6.58547e-06 0)
(0 6.88131e-06 0)
(0 7.42138e-06 0)
(0 7.12108e-06 0)
(0 7.62686e-06 0)
(0 7.30671e-06 0)
(0 7.7883e-06 0)
(0 7.4551e-06 0)
(0 7.90447e-06 0)
(0 6.91194e-06 0)
(0 7.56695e-06 0)
(0 8.00015e-06 0)
(0 7.65326e-06 0)
(0 8.0603e-06 0)
(0 -7.99238e-06 0)
(0 -3.12908e-05 0)
(0 -0.000507337 0)
(0 -0.000138805 0)
(0 -0.000137291 0)
(0 -4.87043e-05 0)
(0 -5.28026e-05 0)
(0 8.37709e-06 0)
(0 -6.22352e-05 0)
(0 -5.94735e-05 0)
(0 -1.21184e-05 0)
(0 -0.00014096 0)
(0 -0.000141493 0)
(0 -0.000140093 0)
(0 -0.000151837 0)
(0 -0.00014169 0)
(0 -4.4788e-05 0)
(0 -9.19444e-05 0)
(0 -9.36372e-05 0)
(0 -9.02306e-05 0)
(0 -0.000125464 0)
(0 -0.000125673 0)
(0 -0.000134524 0)
(0 -0.00012568 0)
(0 -0.000134287 0)
(0 -0.000125466 0)
(0 -0.000133831 0)
(0 -0.000125042 0)
(0 -0.000131417 0)
(0 -0.00013174 0)
(0 -5.94714e-05 0)
(0 8.67833e-06 0)
(0 -5.97451e-05 0)
(0 -0.000116683 0)
(0 -0.000116297 0)
(0 -0.000133179 0)
(0 -0.000195 0)
(0 -4.82664e-05 0)
(0 -4.43351e-05 0)
(0 8.19244e-06 0)
(0 -5.56831e-05 0)
(0 -1.96058e-05 0)
(0 -6.73615e-05 0)
(0 6.25913e-06 0)
(0 -0.000376957 0)
(0 -6.29766e-05 0)
(0 -8.84099e-05 0)
(0 -0.000327459 0)
(0 -5.79843e-05 0)
(0 -0.000430698 0)
(0 -0.000380862 0)
(0 -0.000141624 0)
(0 -0.000131769 0)
(0 -0.000122003 0)
(0 -0.000122147 0)
(0 -9.68207e-05 0)
(0 -0.000128742 0)
(0 -0.000127121 0)
(0 -0.000148237 0)
(0 -5.29161e-05 0)
(0 -0.000180468 0)
(0 -0.000178811 0)
(0 -0.000186935 0)
(0 -0.000185323 0)
(0 -0.000193545 0)
(0 -0.000191443 0)
(0 -0.0002001 0)
(0 -0.000198509 0)
(0 -0.000206613 0)
(0 -0.000204546 0)
(0 -0.000196641 0)
(0 -0.000212841 0)
(0 -0.000215145 0)
(0 -0.000221375 0)
(0 -0.000223908 0)
(0 -0.000230106 0)
(0 -0.000232839 0)
(0 -0.000238926 0)
(0 -0.000242034 0)
(0 -0.000247831 0)
(0 -0.000251279 0)
(0 -0.000256737 0)
(0 -0.000260194 0)
(0 -0.000265801 0)
(0 -0.000269499 0)
(0 -0.000275026 0)
(0 -0.000278864 0)
(0 -0.000284396 0)
(0 -0.000288293 0)
(0 -0.000293888 0)
(0 -0.000297804 0)
(0 -0.000292169 0)
(0 -0.000301679 0)
(0 -0.000307464 0)
(0 -0.00031151 0)
(0 -0.000317382 0)
(0 -0.000321593 0)
(0 -0.000327457 0)
(0 -0.000331769 0)
(0 -0.000337617 0)
(0 -0.000342035 0)
(0 -0.000347907 0)
(0 -0.000305666 0)
(0 -0.000352353 0)
(0 -0.000358281 0)
(0 -0.000362713 0)
(0 -0.000368529 0)
(0 -0.00037301 0)
(0 -0.00037856 0)
(0 -0.000382992 0)
(0 -0.000388351 0)
(0 -0.000346313 0)
(0 -0.000392761 0)
(0 -0.000397966 0)
(0 -0.000402452 0)
(0 -0.000407496 0)
(0 -0.000387388 0)
(0 -0.000412033 0)
(0 -0.000416922 0)
(0 -0.000421431 0)
(0 -0.0004262 0)
(0 -0.000430701 0)
(0 -0.000435433 0)
(0 -0.000430816 0)
(0 -0.000439949 0)
(0 -0.000435195 0)
(0 -0.000444187 0)
(0 -0.000448955 0)
(0 -0.000453007 0)
(0 -0.000448214 0)
(0 -0.000456719 0)
(0 -0.000461475 0)
(0 -0.000464868 0)
(0 -0.000469535 0)
(0 -0.000472715 0)
(0 -0.000393516 0)
(0 -0.000477203 0)
(0 -0.000480178 0)
(0 -0.000475621 0)
(0 -0.000482846 0)
(0 -0.00048729 0)
(0 -0.000489621 0)
(0 -0.000485096 0)
(0 -0.000491595 0)
(0 -0.000496015 0)
(0 -0.000497838 0)
(0 -0.000502059 0)
(0 -0.000503836 0)
(0 -0.000499401 0)
(0 -0.000505288 0)
(0 -0.000509633 0)
(0 -0.000510806 0)
(0 -0.000506147 0)
(0 -0.000511371 0)
(0 -0.000516054 0)
(0 -0.00051638 0)
(0 -0.000521016 0)
(0 -0.000521213 0)
(0 -0.000516243 0)
(0 -0.000520908 0)
(0 -0.000525936 0)
(0 -0.000525399 0)
(0 -0.000530426 0)
(0 -0.000529717 0)
(0 -0.000524477 0)
(0 -0.000528524 0)
(0 -0.000533775 0)
(0 -0.000532246 0)
(0 -0.000537356 0)
(0 -0.000535634 0)
(0 -0.000530358 0)
(0 -0.000533477 0)
(0 -0.000538697 0)
(0 -0.00053623 0)
(0 -0.000218934 0)
(0 -0.00054125 0)
(0 -0.000538605 0)
(0 -0.000533313 0)
(0 -0.000535521 0)
(0 -0.000540603 0)
(0 -0.000537319 0)
(0 -0.000531967 0)
(0 -0.000533571 0)
(0 -0.000538771 0)
(0 -0.00053486 0)
(0 -0.000539783 0)
(0 -0.000535796 0)
(0 -0.000254639 0)
(0 -0.000530714 0)
(0 -0.000531526 0)
(0 -0.000536468 0)
(0 -0.00053199 0)
(0 -0.000536742 0)
(0 -0.000532172 0)
(0 -0.000527297 0)
(0 -0.000527479 0)
(0 -0.000532047 0)
(0 -0.000527076 0)
(0 -0.000425759 0)
(0 -0.000531417 0)
(0 -0.000526134 0)
(0 -0.000521082 0)
(0 -0.000520439 0)
(0 -0.000525036 0)
(0 -0.000519218 0)
(0 -0.000353968 0)
(0 -0.000514388 0)
(0 -0.000513001 0)
(0 -0.000517702 0)
(0 -0.000511449 0)
(0 -0.000515913 0)
(0 -0.000509685 0)
(0 -0.000504983 0)
(0 -0.000503185 0)
(0 -0.000507742 0)
(0 -0.000501182 0)
(0 -0.000253152 0)
(0 -0.000505484 0)
(0 -0.000498898 0)
(0 -0.00049434 0)
(0 -0.000492044 0)
(0 -0.000496338 0)
(0 -0.000489447 0)
(0 -0.00048498 0)
(0 -0.000482345 0)
(0 -0.000477638 0)
(0 -0.000474982 0)
(0 -0.000479431 0)
(0 -0.000472134 0)
(0 -0.000467387 0)
(0 -0.000464643 0)
(0 -0.000469141 0)
(0 -0.000461645 0)
(0 -0.00045686 0)
(0 -0.000453793 0)
(0 -0.000448718 0)
(0 -0.000445599 0)
(0 -0.000450438 0)
(0 -0.000442144 0)
(0 -0.000437043 0)
(0 -0.000433465 0)
(0 -0.000428234 0)
(0 -0.00042464 0)
(0 -0.000419235 0)
(0 -0.000415943 0)
(0 -0.000410298 0)
(0 -0.000406942 0)
(0 -0.000401287 0)
(0 -0.000397586 0)
(0 -0.000473952 0)
(0 -0.00032323 0)
(0 -0.000289877 0)
(0 -0.000451817 0)
(0 -2.54158e-05 0)
(0 -2.75091e-05 0)
(0 -0.000511293 0)
(0 -0.000102925 0)
(0 -0.000185949 0)
(0 -9.24302e-05 0)
(0 -7.39595e-05 0)
(0 -4.59063e-05 0)
(0 -0.000446722 0)
(0 -5.75121e-05 0)
(0 -3.81662e-05 0)
(0 -0.000391888 0)
(0 -0.000388191 0)
(0 -0.00011249 0)
(0 -0.000112762 0)
(0 -0.000505944 0)
(0 8.8108e-06 0)
(0 -0.00011659 0)
(0 -1.65268e-05 0)
(0 -0.000421744 0)
(0 -4.7925e-05 0)
(0 -4.39787e-05 0)
(0 6.18835e-06 0)
(0 -9.5147e-05 0)
(0 -0.00010795 0)
(0 -0.000107607 0)
(0 -0.000382425 0)
(0 -0.000378698 0)
(0 -0.00037277 0)
(0 -0.00036903 0)
(0 -4.93511e-05 0)
(0 -0.000362696 0)
(0 -0.000359228 0)
(0 -2.47753e-05 0)
(0 -4.66521e-05 0)
(0 -0.000101761 0)
(0 -2.9025e-05 0)
(0 -3.12153e-05 0)
(0 -0.000338019 0)
(0 -0.000336357 0)
(0 -0.000324752 0)
(0 -0.000322639 0)
(0 -0.000310917 0)
(0 -0.000308551 0)
(0 -0.000296454 0)
(0 -0.000293802 0)
(0 -0.000281365 0)
(0 -0.000278321 0)
(0 -0.000265633 0)
(0 -0.00026224 0)
(0 -0.000275075 0)
(0 -0.000258672 0)
(0 -0.000271599 0)
(0 -0.000254787 0)
(0 -0.000267636 0)
(0 -0.000250523 0)
(0 -0.000263273 0)
(0 -0.000245904 0)
(0 -0.00025865 0)
(0 -0.000249391 0)
(0 -0.000240984 0)
(0 -0.00025369 0)
(0 -0.000235839 0)
(0 -0.000248595 0)
(0 -0.000230491 0)
(0 -0.000243395 0)
(0 -0.000233193 0)
(0 -0.000224837 0)
(0 -0.000237667 0)
(0 -0.000255851 0)
(0 -0.000250122 0)
(0 -0.000231462 0)
(0 -0.000243856 0)
(0 -0.000225005 0)
(0 -0.000237389 0)
(0 -0.000255957 0)
(0 -0.00024973 0)
(0 -0.000230984 0)
(0 -0.000243538 0)
(0 -0.000224646 0)
(0 -0.00023724 0)
(0 -0.000255765 0)
(0 -0.000249558 0)
(0 -0.000230749 0)
(0 -0.000243158 0)
(0 -0.000261407 0)
(0 -0.000255268 0)
(0 -0.000236636 0)
(0 -0.000248719 0)
(0 -0.00022988 0)
(0 -0.000241926 0)
(0 -0.000259945 0)
(0 -0.000253724 0)
(0 -0.000235325 0)
(0 -0.000247438 0)
(0 -0.000265348 0)
(0 -0.00025882 0)
(0 -0.000240853 0)
(0 -0.000251999 0)
(0 -0.000233916 0)
(0 -0.000244903 0)
(0 -0.000262732 0)
(0 -0.000255478 0)
(0 -0.000237423 0)
(0 -0.00024803 0)
(0 -0.000229872 0)
(0 -0.000240331 0)
(0 -0.000258253 0)
(0 -0.000250248 0)
(0 -0.000232358 0)
(0 -0.000241982 0)
(0 -0.000223958 0)
(0 -0.00023318 0)
(0 -0.000250613 0)
(0 -0.000241885 0)
(0 -0.000223951 0)
(0 -0.000232747 0)
(0 -0.000249897 0)
(0 -0.000240957 0)
(0 -0.000223365 0)
(0 -0.000231538 0)
(0 -0.00021383 0)
(0 -0.000221725 0)
(0 -0.000238959 0)
(0 -0.000229092 0)
(0 -0.000211929 0)
(0 -0.000219267 0)
(0 -0.00020226 0)
(0 -0.000209594 0)
(0 -0.000226099 0)
(0 -0.000216488 0)
(0 -0.00020016 0)
(0 -0.000207077 0)
(0 -0.00022279 0)
(0 -0.000213416 0)
(0 -0.00019794 0)
(0 -0.000204286 0)
(0 -0.000189159 0)
(0 -0.000195471 0)
(0 -0.000180723 0)
(0 -0.000187021 0)
(0 -0.000228379 0)
(0 -0.000172543 0)
(0 -0.000178704 0)
(0 -0.000192892 0)
(0 -0.000184313 0)
(0 -0.000170327 0)
(0 -0.000175441 0)
(0 -0.000161587 0)
(0 -0.000166134 0)
(0 -0.000152331 0)
(0 -0.000156384 0)
(0 -0.000197994 0)
(0 -0.000142753 0)
(0 -0.000146513 0)
(0 -0.000159992 0)
(0 -0.00015014 0)
(0 -0.000136783 0)
(0 -0.000140522 0)
(0 -0.000127461 0)
(0 -0.000131355 0)
(0 -0.000118611 0)
(0 -0.000122414 0)
(0 -0.00016323 0)
(0 -0.00010997 0)
(0 -0.000113539 0)
(0 -0.000125745 0)
(0 -0.00011702 0)
(0 -0.000104913 0)
(0 -0.000108668 0)
(0 -9.6829e-05 0)
(0 -0.000100694 0)
(0 -8.94371e-05 0)
(0 -9.30134e-05 0)
(0 -0.00016584 0)
(0 -0.000211806 0)
(0 -8.23536e-05 0)
(0 -8.54969e-05 0)
(0 -0.000138676 0)
(0 -9.61425e-05 0)
(0 -8.84156e-05 0)
(0 -7.80571e-05 0)
(0 -8.06613e-05 0)
(0 -7.0905e-05 0)
(0 -7.28205e-05 0)
(0 -0.00012886 0)
(0 -0.00027047 0)
(0 -6.34653e-05 0)
(0 -6.4832e-05 0)
(0 -5.59957e-05 0)
(0 -5.72694e-05 0)
(0 -4.92256e-05 0)
(0 -5.05727e-05 0)
(0 -0.000252917 0)
(0 -0.000236632 0)
(0 -0.000240167 0)
(0 -0.000223835 0)
(0 -0.000227451 0)
(0 -0.000211121 0)
(0 -0.000214813 0)
(0 -0.000198419 0)
(0 -0.000194742 0)
(0 -0.000202103 0)
(0 -0.0001856 0)
(0 -0.000189382 0)
(0 -5.87196e-05 0)
(0 -5.21618e-05 0)
(0 -4.44867e-05 0)
(0 -4.6296e-05 0)
(0 -0.000118492 0)
(0 -0.000116758 0)
(0 8.88694e-06 0)
(0 -3.87578e-05 0)
(0 -4.09889e-05 0)
(0 -0.00014122 0)
(0 -0.000172795 0)
(0 -0.000176696 0)
(0 -0.000106157 0)
(0 -8.87044e-05 0)
(0 -9.36505e-05 0)
(0 -0.00010321 0)
(0 -0.000103627 0)
(0 -0.000102545 0)
(0 -0.00050964 0)
(0 -3.3451e-05 0)
(0 -3.60436e-05 0)
(0 -4.37098e-05 0)
(0 -3.90767e-05 0)
(0 -3.13256e-05 0)
(0 -3.4651e-05 0)
(0 -0.000112789 0)
(0 -0.000103796 0)
(0 -0.000125315 0)
(0 -0.000114852 0)
(0 -0.000123323 0)
(0 -0.000112753 0)
(0 -0.000121086 0)
(0 -0.000110433 0)
(0 -0.000352604 0)
(0 -0.000349213 0)
(0 -4.33328e-05 0)
(0 -2.68982e-05 0)
(0 -3.05227e-05 0)
(0 -9.8839e-05 0)
(0 -9.92846e-05 0)
(0 -9.89947e-05 0)
(0 -0.000107034 0)
(0 -9.84571e-05 0)
(0 -0.000106217 0)
(0 -9.76812e-05 0)
(0 -9.47706e-05 0)
(0 -9.50586e-05 0)
(0 -3.30705e-05 0)
(0 -4.76941e-05 0)
(0 -4.36813e-05 0)
(0 -5.17906e-05 0)
(0 -0.000504161 0)
(0 -0.00040305 0)
(0 -4.08051e-05 0)
(0 -4.38082e-05 0)
(0 -8.99561e-05 0)
(0 -8.925e-05 0)
(0 -0.000342366 0)
(0 -0.000338945 0)
(0 -0.000105146 0)
(0 -0.000374941 0)
(0 -2.3024e-05 0)
(0 -2.69428e-05 0)
(0 -3.42938e-05 0)
(0 -3.09283e-05 0)
(0 -2.40884e-05 0)
(0 -2.81731e-05 0)
(0 -2.18302e-05 0)
(0 -2.56121e-05 0)
(0 -7.87948e-05 0)
(0 -0.000178457 0)
(0 -0.00017835 0)
(0 -0.000187099 0)
(0 -0.000186837 0)
(0 -0.00019568 0)
(0 -0.000195226 0)
(0 -0.000204145 0)
(0 -0.000203481 0)
(0 -0.000212467 0)
(0 -4.0124e-05 0)
(0 -3.97579e-05 0)
(0 -0.00015991 0)
(0 -0.000163991 0)
(0 -0.000156074 0)
(0 -0.000435037 0)
(0 -0.00043001 0)
(0 -0.00043923 0)
(0 -0.000434152 0)
(0 -0.000443252 0)
(0 -6.02762e-05 0)
(0 -8.61916e-05 0)
(0 -8.66027e-05 0)
(0 -0.000345633 0)
(0 -0.000335274 0)
(0 -0.000328413 0)
(0 -0.000324709 0)
(0 -0.000317706 0)
(0 -0.000314056 0)
(0 -0.000306789 0)
(0 -0.000303325 0)
(0 -0.000295968 0)
(0 -0.000292599 0)
(0 -7.01646e-05 0)
(0 -3.28591e-05 0)
(0 -3.51516e-05 0)
(0 -4.65387e-05 0)
(0 -0.000112676 0)
(0 -3.76167e-05 0)
(0 -3.9658e-05 0)
(0 -1.97487e-05 0)
(0 -2.27518e-05 0)
(0 -0.000108038 0)
(0 -3.34463e-05 0)
(0 -0.000507661 0)
(0 -2.82749e-05 0)
(0 -2.49118e-05 0)
(0 -1.96125e-05 0)
(0 -2.14348e-05 0)
(0 -1.62406e-05 0)
(0 -0.000218381 0)
(0 -0.000160906 0)
(0 -0.000331234 0)
(0 -0.000285364 0)
(0 -0.000281817 0)
(0 -3.7552e-05 0)
(0 -3.56783e-05 0)
(0 -3.7341e-05 0)
(0 -0.000142273 0)
(0 -0.000283503 0)
(0 -0.000194499 0)