/*--------------------------------*- C++ -*----------------------------------*\
| =========                 |                                                 |
| \\      /  F ield         | OpenFOAM: The Open Source CFD Toolbox           |
|  \\    /   O peration     | Version:  v2012                                 |
|   \\  /    A nd           | Website:  www.openfoam.com                      |
|    \\/     M anipulation  |                                                 |
\*---------------------------------------------------------------------------*/
FoamFile
{
    version     2.0;
    format      ascii;
    class       surfaceVectorField;
    location    "950";
    object      Uf;
}
// * * * * * * * * * * * * * * * * * * * * * * * * * * * * * * * * * * * * * //

dimensions      [0 1 -1 0 0 0 0];


internalField   nonuniform List<vector> 
27882
(
(1.01974 0.000973797 1.92921e-22)
(1.01961 0.0021422 -2.10804e-22)
(1.0186 0.00118848 3.39445e-23)
(1.06342 0.0441298 -1.68289e-22)
(1.05731 0.05931 -2.8263e-21)
(1.05442 0.0523955 -7.13773e-22)
(1.00299 1.24921e-05 -1.51831e-22)
(1.00355 -1.42954e-05 -9.46216e-22)
(1.00404 -4.28036e-05 -4.44397e-22)
(1.02106 0.000528892 -1.59001e-22)
(1.01948 -0.000127752 3.9989e-22)
(1.00134 -0.0100682 1.29782e-21)
(1.00014 -0.00885233 6.58955e-22)
(1.00003 -0.0108554 8.49367e-23)
(1.0069 0.000140378 5.30093e-23)
(1.00757 0.000249101 3.96459e-23)
(1.00712 0.000184298 9.84203e-23)
(1.01613 -0.00547852 -6.91734e-23)
(1.01624 -0.00568711 -5.28076e-23)
(1.01641 -0.00556701 2.03388e-23)
(1.02685 -0.0203856 -5.23619e-22)
(1.02752 -0.0209726 -1.02876e-21)
(1.02668 -0.0213915 -4.12909e-22)
(1.00247 -0.0110197 1.00678e-21)
(1.00249 -0.00928869 -1.50581e-21)
(1.00349 -0.0117287 1.02988e-21)
(1.0046 -0.0121992 1.50179e-21)
(1.00445 -0.0107427 -3.70878e-22)
(1.07004 0.00632674 0)
(1.06702 0.0177286 -2.14713e-22)
(1.06484 0.00694624 1.13035e-22)
(0.987684 -0.213436 -7.334e-21)
(0.980783 -0.200568 -1.05044e-20)
(1.01295 -0.182329 1.88066e-21)
(0.981471 -0.0700458 -9.11104e-22)
(0.978294 -0.0614317 3.59217e-22)
(0.971877 -0.0691476 -4.49133e-22)
(1.03837 -0.0153488 1.71921e-21)
(1.03934 -0.0153271 -1.39007e-21)
(1.03858 -0.0145266 0)
(1.01554 -0.0051654 0)
(1.01585 -0.00534545 0)
(1.0156 -0.0054091 3.50494e-22)
(1.01287 -0.00235138 -1.49517e-23)
(1.01271 -0.00223688 -1.22512e-22)
(1.01273 -0.00238738 -2.40793e-22)
(0.987831 -0.220239 -8.97323e-21)
(0.969045 -0.238751 -5.07256e-21)
(1.01123 0.0011992 -6.57367e-24)
(1.01109 0.0011568 7.62766e-23)
(1.01527 -0.0050188 4.68396e-22)
(1.0155 -0.00495967 0)
(1.01305 -0.0154787 0)
(1.01239 -0.0154593 -2.27105e-22)
(1.01289 -0.0162763 -3.50284e-22)
(1.03156 0.125219 -1.33822e-21)
(1.04933 0.127572 1.00558e-20)
(1.04553 0.108719 -1.47107e-21)
(1.0232 -0.0334847 -1.85227e-21)
(1.02714 -0.0366783 0)
(1.02727 -0.0315339 0)
(1.0059 9.73178e-05 2.62436e-23)
(1.00668 0.000147843 -2.88065e-23)
(1.00621 0.000128914 7.16463e-23)
(1.00656 0.000168314 0)
(1.00696 0.000213827 4.70268e-23)
(1.01377 -0.0316778 7.47544e-22)
(1.01257 -0.0373939 -2.97507e-21)
(0.973566 0.0562481 -5.64426e-22)
(1.00933 0.0516234 -1.94333e-21)
(0.935996 0.0570339 -6.18005e-22)
(0.902066 -0.297116 4.6266e-22)
(0.905777 -0.306439 1.39809e-20)
(0.894876 -0.305424 -6.74222e-21)
(1.05565 -0.129135 2.25616e-21)
(1.05943 -0.12368 1.10823e-21)
(1.06169 -0.13283 1.62884e-21)
(1.08693 -0.0396228 9.63536e-22)
(1.08935 -0.0398639 -2.18164e-21)
(1.0877 -0.0416609 -2.41825e-21)
(1.04356 0.0953978 -2.2505e-21)
(1.03231 0.112889 -1.70563e-21)
(1.03705 0.0989486 5.67925e-21)
(0.69125 -0.250164 -7.23121e-21)
(0.684223 -0.214481 1.82485e-20)
(0.698904 -0.245325 2.39894e-20)
(0.899905 -0.289049 8.66753e-21)
(0.909483 -0.289538 -2.4059e-21)
(1.02619 -0.0198814 4.3811e-22)
(1.02695 -0.019595 1.82556e-22)
(0.772038 -0.0259459 -1.17692e-21)
(0.752412 -0.0351677 0)
(0.698276 -0.0344937 0)
(0.998939 -0.00768715 -1.75165e-21)
(0.997706 -0.00687117 4.89166e-22)
(0.997472 -0.00875801 7.90232e-22)
(1.05538 0.0738744 -1.72157e-21)
(1.04975 0.0834163 7.80692e-21)
(0.989781 -0.0706271 2.07496e-22)
(0.984036 -0.0786778 -7.79173e-22)
(1.00035 -0.00714081 0)
(0.855084 0.186929 1.08864e-20)
(0.885814 0.175821 -1.37972e-20)
(0.868676 0.234311 -2.07393e-22)
(1.01377 0.00262438 -4.88695e-23)
(1.01359 0.00261276 1.97915e-22)
(1.01355 0.0024943 3.9213e-23)
(0.945723 -0.0886246 -3.85139e-21)
(0.954838 -0.0584098 -2.7188e-21)
(0.932768 -0.0554539 -4.86767e-21)
(1.00659 -0.0146405 -3.01212e-22)
(1.00634 -0.0160249 -3.2669e-22)
(1.00523 -0.0145993 -9.12206e-22)
(1.00817 -0.136058 2.39174e-21)
(1.01229 -0.137943 -4.31902e-23)
(1.02348 -0.124711 5.79467e-22)
(1.01291 -0.00218321 -1.37105e-21)
(1.01313 -0.00210279 -2.94133e-22)
(1.01333 -0.00242018 -4.35572e-22)
(1.01037 -0.000716963 8.15314e-24)
(1.01032 -0.000710481 3.3702e-22)
(1.01071 -0.000794518 -2.91938e-22)
(0.674348 -0.208178 -4.59498e-21)
(0.666459 -0.176707 0)
(0.666755 -0.184296 0)
(1.00773 -0.0144502 5.70003e-23)
(1.00705 -0.0134905 -9.74595e-22)
(1.0902 -0.0456371 0)
(1.08833 -0.047579 0)
(1.09135 -0.04812 5.31515e-22)
(-0.0390611 -0.121287 1.56829e-20)
(-0.0383179 -0.117154 3.83039e-21)
(-0.0313806 -0.101152 -1.73351e-20)
(1.01929 -0.00304078 4.39649e-22)
(1.01979 -0.00207438 3.19189e-22)
(1.01853 -0.00217192 -5.81219e-22)
(1.07262 -0.00577942 4.04537e-22)
(1.07454 0.00516273 5.29665e-22)
(0.264195 0.269057 1.69525e-21)
(0.263902 0.249995 -3.46775e-22)
(0.299215 0.253481 -4.23205e-22)
(1.01978 -0.00412475 4.2812e-22)
(1.01842 -0.00383297 2.57197e-23)
(1.01577 -0.0105595 1.21569e-21)
(1.01552 -0.0107331 3.9138e-22)
(1.01598 -0.0107395 -3.15805e-23)
(1.05858 -0.0267448 2.64738e-21)
(1.05672 -0.0284714 0)
(1.05602 -0.0257933 2.89234e-21)
(0.975457 -0.053452 1.42497e-21)
(0.983496 -0.0551083 3.49007e-22)
(1.01036 0.00151871 6.17401e-22)
(1.01028 0.0013856 5.4407e-22)
(1.0103 0.00154191 1.36069e-21)
(1.01365 -0.0155269 2.18568e-22)
(1.01323 -0.0148604 0)
(1.08641 -0.0491085 0)
(1.08694 -0.0517467 0)
(1.08428 -0.050712 0)
(1.01051 0.00169158 -3.52122e-22)
(1.01041 0.00150666 2.68369e-22)
(1.00955 -0.000547342 -3.14161e-24)
(1.0101 -0.000697118 1.05401e-23)
(1.00962 -0.000514893 0)
(1.01268 -0.0022377 -3.9135e-23)
(1.01259 -0.00194941 3.67297e-23)
(0.881582 0.267888 -6.25667e-21)
(0.887992 0.265196 -3.16108e-21)
(1.00883 -0.401692 -3.08905e-21)
(1.0308 -0.38553 2.45616e-21)
(1.00872 -0.379813 -5.03832e-21)
(1.00857 -0.000425014 -3.02637e-24)
(1.00947 -0.000569511 3.12989e-22)
(0.529913 -0.0864567 1.45071e-21)
(0.558085 -0.0902289 3.36268e-23)
(0.49749 -0.0979514 2.73538e-21)
(1.00684 -0.000191611 0)
(1.00613 -0.000128008 -1.85561e-22)
(1.00618 -0.000140252 -1.30017e-24)
(1.01019 0.0010868 -2.12925e-22)
(1.01007 0.00105168 2.68645e-22)
(1.01023 0.00111825 -6.34399e-23)
(1.05014 -0.124953 1.80215e-22)
(1.05086 -0.133942 2.18969e-21)
(1.01123 0.00123665 -5.74781e-23)
(1.01138 0.00127134 0)
(0.238342 0.278918 3.26713e-21)
(0.263618 0.284596 -1.3619e-21)
(0.798383 0.0818922 9.19642e-22)
(0.865711 0.0746242 8.71503e-22)
(0.832625 0.0714982 -7.62074e-22)
(1.01345 -0.00540747 -9.65998e-23)
(1.01367 -0.00561385 1.66281e-22)
(1.01346 -0.00557297 -2.55247e-22)
(1.00773 -0.0239524 1.27944e-22)
(1.00874 -0.0244817 0)
(1.00897 -0.0230191 0)
(0.946209 -0.0336758 0)
(0.948579 -0.0398874 -1.88028e-21)
(0.953336 -0.0338404 8.18029e-22)
(0.691506 -0.249409 -2.82445e-21)
(0.702336 -0.27185 -7.44123e-21)
(0.841536 0.281578 -2.44783e-21)
(0.838452 0.271308 3.79154e-21)
(0.829017 0.282569 1.99746e-21)
(0.965092 -0.230213 0)
(0.949606 -0.247871 2.74716e-21)
(0.946038 -0.235274 -1.22797e-21)
(1.00251 -0.0126455 1.87064e-21)
(0.993385 -0.143822 8.49753e-22)
(1.00371 -0.129152 2.89272e-21)
(1.07658 -0.030902 -5.32593e-21)
(1.07585 -0.0314091 -8.15269e-21)
(1.07556 -0.0303041 -7.27917e-21)
(0.831082 0.19577 -1.11051e-20)
(0.837305 0.136896 0)
(0.980676 -0.22234 -2.50933e-21)
(0.980427 -0.215662 0)
(0.981824 -0.0356666 2.46831e-23)
(0.978261 -0.0353362 1.15581e-21)
(0.979817 -0.0390826 -1.11798e-21)
(1.01593 -0.00310174 -8.52834e-22)
(1.01528 -0.00303498 -1.98606e-22)
(1.01572 -0.00368834 9.97751e-23)
(1.06477 -0.0327917 -5.81383e-21)
(1.06334 -0.031455 4.31919e-21)
(1.06568 -0.0307935 2.01719e-21)
(1.0578 -0.0152691 -2.08879e-21)
(1.05696 -0.0140898 -3.84829e-21)
(1.00614 -0.0247136 7.01888e-23)
(1.00648 -0.0229178 4.61159e-23)
(0.881741 0.271595 8.74166e-21)
(0.87552 0.27291 -3.78612e-21)
(1.0646 -0.0349775 7.77058e-21)
(1.06615 -0.0338054 -3.51473e-21)
(0.261881 0.329484 4.70094e-21)
(0.29251 0.345638 -1.44728e-20)
(0.296006 0.333777 1.81423e-20)
(1.00932 -0.000527588 -3.44735e-23)
(1.00966 -0.000513225 0)
(1.01054 -0.00057662 1.47236e-22)
(1.07701 -0.0344973 0)
(1.0769 -0.034537 0)
(1.07676 -0.0344014 3.86506e-21)
(-0.0399017 -0.126224 1.11152e-20)
(-0.0479058 -0.137171 -1.12345e-20)
(1.01345 -0.00526549 1.09606e-22)
(1.01326 -0.00520318 2.25378e-22)
(1.00811 -0.000572571 -2.26621e-22)
(1.00818 -0.000606909 -7.76479e-22)
(1.00812 -0.000588888 -5.66272e-22)
(1.01253 0.00187065 -1.16127e-23)
(1.01236 0.00180056 -1.35593e-22)
(1.01255 0.00183484 -7.72423e-23)
(1.07514 -0.0417069 1.57001e-21)
(1.07508 -0.0405434 -9.34714e-21)
(1.0763 -0.0413979 -5.77987e-21)
(0.92101 -0.266873 -3.80257e-21)
(0.936607 -0.263239 -2.57223e-21)
(0.920078 -0.276683 -3.82666e-21)
(1.01088 -0.00379353 0)
(1.01097 -0.00384188 -2.59499e-22)
(1.01084 -0.00369227 0)
(0.684874 -0.231941 -6.61947e-21)
(0.689228 -0.212942 -5.07155e-21)
(1.0055 -0.00997142 -1.01373e-22)
(1.00461 -0.0109291 -3.87597e-22)
(1.00597 -0.011358 -1.53903e-22)
(1.01014 0.00105774 4.06853e-24)
(1.01032 0.00112179 -1.06587e-22)
(1.00809 -0.000553363 7.5663e-22)
(1.00804 -0.000532577 1.74357e-22)
(0.488949 -0.0840507 -3.13129e-22)
(0.5595 -0.0770026 3.65574e-22)
(1.01803 0.136878 4.92557e-22)
(1.01873 0.116959 0)
(1.08877 -0.0437233 0)
(1.09178 -0.0437949 0)
(0.236143 0.311278 1.15475e-20)
(0.240068 0.32128 2.27725e-21)
(0.855814 0.248353 -7.01474e-22)
(0.86456 0.240764 -4.25235e-23)
(0.8533 0.239436 1.57037e-22)
(1.07333 0.120699 -2.12729e-21)
(1.06173 0.144168 -4.10806e-21)
(1.05595 0.128942 1.751e-21)
(1.01332 -0.00238487 0)
(1.01314 -0.00227031 0)
(1.0133 -0.00221518 1.73701e-22)
(0.988965 -0.410223 -5.81212e-21)
(1.00306 -0.405899 -1.48359e-21)
(1.02405 -0.00568369 0)
(1.02414 -0.00385923 0)
(1.02244 -0.00469444 0)
(1.00526 -4.70014e-05 3.79158e-24)
(1.00528 -4.33842e-05 -4.86637e-22)
(1.00434 -3.31975e-05 -1.40595e-24)
(1.00549 -0.0083078 -1.3239e-21)
(1.00662 -0.0090543 -8.39992e-22)
(1.09831 -0.210772 -3.0622e-21)
(1.09468 -0.223753 0)
(1.08516 -0.215761 0)
(1.07505 -0.0432922 7.58526e-21)
(1.07372 -0.0422355 4.40737e-21)
(1.01097 0.00142824 3.0749e-22)
(1.01095 0.00152775 7.29838e-22)
(1.01075 0.00136157 -1.04796e-22)
(1.12704 -0.243466 5.12119e-22)
(1.13158 -0.263455 1.3451e-21)
(1.15229 -0.256069 -7.55038e-21)
(1.01763 -0.00249013 -2.02163e-22)
(1.01751 -0.00314932 2.78241e-22)
(1.01851 -0.00305631 1.52632e-22)
(1.0058 -9.09275e-05 -3.64085e-22)
(1.00557 -9.47273e-05 0)
(1.00633 -8.59342e-05 0)
(0.850942 0.281009 -2.40228e-21)
(0.842998 0.29223 -2.36485e-21)
(1.01669 -0.00319336 -3.62474e-22)
(1.01604 -0.00262574 -5.29458e-22)
(1.00945 -0.000585596 -7.77586e-23)
(1.00957 -0.000600474 6.24643e-22)
(1.00942 -0.000593536 6.67929e-22)
(0.124304 -0.055269 4.74589e-21)
(0.0947941 -0.0621262 -2.11258e-20)
(0.13713 -0.0287099 -3.38526e-20)
(1.01588 -0.010365 9.74153e-22)
(1.01549 -0.0104406 -1.15254e-21)
(1.01282 -0.00145529 4.12536e-22)
(1.01273 -0.00157585 -8.20324e-23)
(1.01251 -0.00136107 1.03215e-21)
(1.00949 -0.000570524 2.17695e-22)
(1.00933 -0.000565087 -1.63944e-22)
(1.11009 -0.0184662 -8.43255e-22)
(1.10588 -0.0213283 1.00275e-21)
(1.11181 -0.0231809 0)
(0.0879757 -0.180339 -1.18326e-20)
(0.0625715 -0.186243 0)
(1.08555 -0.0469124 0)
(1.00644 -0.000310729 -1.41646e-22)
(1.00558 -0.000166134 9.46958e-23)
(1.00699 -0.000398145 2.66186e-22)
(1.03384 -0.0387055 -6.5526e-22)
(1.03233 -0.0389608 3.48784e-22)
(1.03338 -0.0403917 9.88104e-22)
(0.116403 -0.0233269 -1.2067e-23)
(0.151313 -0.0357979 -1.34991e-23)
(0.162249 -0.019877 -1.32167e-23)
(1.01397 0.00279614 -3.46581e-23)
(1.01396 0.00264921 -1.83891e-23)
(1.0059 -0.000157584 5.60166e-22)
(1.0061 -0.000142379 7.36148e-22)
(1.00656 -0.000124256 6.799e-22)
(0.916538 0.344586 -1.16339e-21)
(0.900189 0.3514 3.14777e-21)
(0.919075 0.364089 7.79767e-21)
(1.01639 -0.0016855 2.27214e-22)
(1.01702 -0.00211693 -4.92783e-23)
(1.01622 -0.00213467 2.96055e-22)
(1.12299 -0.108795 -1.98478e-21)
(1.12894 -0.115365 6.35466e-24)
(1.11855 -0.11614 4.09495e-21)
(1.07763 -0.0304139 1.1084e-21)
(1.07741 -0.0315617 3.89544e-21)
(1.02371 -0.00747804 3.29206e-22)
(1.02603 -0.00704073 2.89604e-22)
(1.0375 -0.0591922 -2.94285e-21)
(1.02479 -0.0272354 -1.61382e-21)
(1.04685 -0.0223287 1.50483e-21)
(1.07107 -0.0367363 -1.20113e-21)
(1.07126 -0.0359079 0)
(1.07204 -0.0368063 -8.22974e-21)
(0.845544 0.260806 1.60501e-21)
(0.858582 0.258532 1.87305e-22)
(0.156899 -0.0510126 2.53334e-20)
(0.111974 -0.0802157 2.26623e-20)
(1.07614 -0.0329155 -1.38447e-21)
(1.07656 -0.0326393 3.50023e-21)
(1.07653 -0.0332844 4.53003e-22)
(0.454978 -0.0824836 -1.64562e-22)
(0.42853 -0.0932491 -2.25963e-21)
(1.10214 -0.0236346 9.87937e-22)
(1.10307 -0.0272876 -1.54507e-21)
(1.09887 -0.0256943 2.12729e-21)
(1.06595 0.0300961 -3.11316e-21)
(1.06075 0.026708 3.13727e-21)
(0.839381 0.0286722 -1.04494e-20)
(0.907365 -0.0167646 -1.43677e-21)
(0.882426 0.0158771 -9.9649e-21)
(0.143617 -0.165811 1.62157e-20)
(0.173307 -0.151903 -1.4062e-20)
(0.178579 -0.154614 2.4133e-20)
(-0.0435547 -0.201292 2.70749e-20)
(-0.0297334 -0.195487 -3.39167e-21)
(-0.0323328 -0.188381 -2.88006e-20)
(1.02698 -0.00405347 1.0127e-21)
(1.02743 -0.00405717 -1.50536e-21)
(1.02729 -0.00441942 1.86673e-21)
(0.997311 -0.00528731 1.63364e-21)
(0.998598 -0.00393528 -1.0097e-21)
(0.996715 -0.00317733 -1.98572e-22)
(0.936164 -0.119538 0)
(0.948156 -0.119839 2.55904e-21)
(0.799664 -0.310339 -2.79773e-21)
(0.800224 -0.311725 -2.49566e-21)
(1.07707 -0.034569 2.14582e-21)
(1.07694 -0.0345692 0)
(1.11346 -0.0152434 8.55688e-22)
(1.10695 -0.0149372 3.5533e-24)
(0.976144 -0.0268453 -1.72027e-21)
(0.971532 -0.0258359 -2.01018e-21)
(0.975059 -0.022558 -5.21272e-21)
(1.06946 0.0328608 1.17713e-21)
(0.422201 0.371228 8.18405e-22)
(0.41939 0.362482 3.17994e-21)
(0.449666 0.363098 -2.65767e-21)
(1.01025 -0.000696789 5.04294e-23)
(1.01038 -0.000724608 1.53829e-22)
(1.01029 -0.000692596 6.19613e-22)
(-0.0439485 -0.200479 0)
(-0.0559815 -0.203288 -1.78677e-20)
(-0.0441396 -0.209782 0)
(0.415698 -0.0789256 2.16229e-22)
(0.476889 -0.0721497 2.66771e-22)
(0.686257 -0.129067 9.91511e-22)
(0.685663 -0.102632 1.08014e-21)
(0.669221 -0.108434 5.89482e-21)
(1.01163 0.00246895 7.17299e-22)
(1.01174 0.00229461 -1.06644e-22)
(1.012 0.00263541 0)
(1.01019 -0.000693262 -7.11725e-22)
(1.0101 -0.000664866 -8.49578e-22)
(0.370565 0.382188 -1.1421e-21)
(0.377735 0.376846 -9.81953e-22)
(0.364635 0.373505 -7.99776e-21)
(0.115629 -0.173697 3.6192e-21)
(0.106875 -0.167025 -1.25599e-20)
(0.972828 -0.177482 -3.59086e-21)
(0.986269 -0.131501 2.62279e-21)
(0.95372 -0.147838 1.2405e-20)
(-0.0750012 -0.206875 -8.52326e-22)
(-0.0793268 -0.214989 -3.71769e-20)
(-0.0713589 -0.206229 -4.34758e-20)
(1.00257 3.77643e-05 7.69852e-22)
(1.00191 6.42688e-05 1.15381e-21)
(1.09167 -0.0395493 4.89913e-22)
(1.0932 -0.0416279 5.08752e-22)
(1.0945 -0.0389757 -1.27896e-22)
(0.890443 0.139253 0)
(0.888132 0.138405 0)
(0.873641 0.234655 8.35553e-22)
(0.875209 0.243769 7.88359e-22)
(1.01016 -0.00279719 -2.85602e-23)
(1.01021 -0.0028989 -2.33825e-22)
(1.0102 -0.00279249 2.29993e-22)
(1.01341 -0.00508932 -1.10713e-22)
(1.01363 -0.00529468 3.16215e-23)
(1.08597 0.0422772 -8.0468e-22)
(1.07147 0.0407721 -4.62752e-21)
(1.05405 0.0438293 4.53398e-21)
(0.786522 -0.0174809 3.67892e-21)
(0.841431 -0.0193064 -2.98535e-21)
(1.03836 -0.00574153 2.09776e-21)
(1.03777 -0.00506491 2.87087e-21)
(1.00944 0.000824883 3.93642e-22)
(1.00948 0.000844211 1.17665e-22)
(1.00934 0.00079967 -1.29156e-23)
(1.01522 -0.0100528 -5.35198e-22)
(1.01504 -0.0102684 -1.57845e-22)
(1.01532 -0.010189 1.45394e-21)
(1.06124 -0.027413 -3.50671e-21)
(1.06074 -0.0248063 2.64445e-21)
(1.04351 -0.00781073 9.4657e-22)
(1.04452 -0.00827178 0)
(0.680862 0.105638 1.41978e-20)
(0.75505 0.0544912 1.02716e-20)
(0.70838 0.0710674 -1.11199e-20)
(1.01816 -0.00271447 1.36889e-21)
(1.01823 -0.00256978 8.53645e-23)
(1.0184 -0.00276868 1.08913e-21)
(1.01885 0.122537 1.13005e-21)
(1.02097 0.125622 -3.23495e-21)
(1.02247 -0.00303593 -2.00795e-21)
(1.0208 -0.00238459 2.36359e-23)
(1.02268 -0.000977871 1.06201e-21)
(-0.0360912 -0.124834 -6.58075e-21)
(-0.0381731 -0.140102 -5.97652e-21)
(0.761435 -0.0677337 -5.04481e-22)
(0.733045 -0.080192 -7.2209e-22)
(0.735771 -0.0565993 7.98712e-22)
(-0.053167 -0.210156 -3.0168e-22)
(-0.0551826 -0.205257 1.00484e-20)
(1.01809 -0.00290416 3.54794e-22)
(1.01791 -0.00268745 4.06211e-22)
(1.04811 -0.0938155 -3.31399e-22)
(1.05273 -0.0942482 -1.0272e-21)
(1.04864 -0.0979821 -1.92348e-21)
(0.783475 0.174886 -2.28826e-22)
(0.787651 0.198274 3.68292e-22)
(0.763923 0.164045 7.26274e-22)
(1.00938 0.000862578 4.0638e-23)
(1.00935 0.000848994 -1.33314e-22)
(1.00948 0.000908203 -1.25846e-22)
(1.0425 -0.0087534 -8.10544e-22)
(1.04266 -0.00799815 1.8264e-22)
(1.04171 -0.0081622 -5.04163e-21)
(1.13377 -0.12259 1.93665e-23)
(1.13973 -0.130814 0)
(1.12838 -0.131021 4.83666e-21)
(1.02646 -0.00413269 0)
(1.02658 -0.00377404 -5.55388e-22)
(-0.0258002 -0.12746 -1.03628e-20)
(-0.0287553 -0.108561 -6.42533e-22)
(1.00558 0.000131331 -2.30121e-22)
(1.00622 0.000165944 -2.33973e-22)
(1.00552 0.000106168 -1.07223e-22)
(1.01313 -0.00270495 -4.01482e-22)
(1.01276 -0.0022789 3.85752e-22)
(1.0125 -0.00248964 3.90603e-22)
(1.11835 -0.0126497 -2.87976e-22)
(1.11566 -0.00817459 1.45298e-21)
(0.878465 -0.012609 2.14393e-21)
(0.888448 -0.0119565 -4.26176e-21)
(0.880872 8.32681e-05 -4.30476e-21)
(1.01267 -0.00193983 0)
(1.01253 -0.00183153 4.73181e-22)
(1.01266 -0.00179473 -2.63669e-22)
(1.01348 -0.00248331 0)
(1.01333 -0.00252814 0)
(-0.0238333 -0.196332 0)
(-0.0402036 -0.189396 0)
(1.01081 -0.000635174 -7.16733e-22)
(1.01086 -0.000654555 -9.93064e-22)
(1.01091 -0.000605 -1.62601e-22)
(0.995753 -0.00624755 7.55698e-22)
(0.021824 -0.199065 0)
(0.00473281 -0.200797 0)
(1.00414 6.99592e-05 -1.65979e-23)
(1.00375 4.73275e-05 -2.55204e-23)
(1.00478 0.000115945 -2.92573e-22)
(1.07735 -0.0343046 -2.82345e-21)
(1.07766 -0.034006 -9.97006e-21)
(1.0771 -0.0339739 -4.2397e-21)
(1.01379 -0.00281668 8.89704e-23)
(1.01335 -0.00329969 -5.25063e-22)
(1.01534 1.75658e-05 2.06608e-22)
(1.01505 -0.000312989 2.6803e-22)
(1.01471 -8.62378e-05 6.8792e-22)
(1.0144 -0.0144589 0)
(1.01423 -0.0149682 -1.87572e-22)
(1.01397 -0.01444 0)
(1.0127 0.00194905 7.35628e-23)
(1.01251 0.00191022 4.06206e-23)
(1.01325 -0.000881203 0)
(1.01285 -0.000722633 0)
(1.01306 -0.000728636 0)
(1.07723 -0.0345033 1.08877e-20)
(1.00812 0.000293885 -1.00989e-22)
(1.00795 0.000269416 5.90102e-23)
(0.983886 0.0264274 1.05083e-21)
(1.00108 -0.00538601 2.0556e-21)
(1.00261 0.0318393 3.82047e-21)
(0.783011 0.14838 4.23403e-23)
(0.803317 0.177527 3.29899e-21)
(1.01184 -0.000711265 1.832e-22)
(1.01159 -0.000704098 -8.55728e-22)
(1.01168 -0.000732248 -8.39398e-22)
(1.07079 -0.037815 -1.19691e-21)
(1.06999 -0.0367308 9.28856e-23)
(1.12346 -0.00914028 -2.94221e-21)
(1.12236 -0.0173026 -8.19809e-22)
(0.867602 -0.0136332 4.91848e-21)
(0.877673 -0.024239 4.81808e-21)
(0.899316 0.16203 3.21077e-21)
(0.906714 0.166008 3.29395e-22)
(0.906372 0.156298 4.92928e-22)
(0.944483 -0.0271902 -4.47481e-21)
(0.938576 -0.0329062 -2.23498e-21)
(1.06595 -0.0410495 5.59768e-21)
(1.06468 -0.0397695 7.50251e-21)
(1.06406 -0.0418177 -9.13415e-21)
(0.39942 0.376794 2.03452e-21)
(0.421351 0.379244 4.85276e-21)
(1.01076 -0.000622252 4.64301e-22)
(1.01072 -0.000658403 -8.57911e-22)
(0.935309 0.062254 7.3217e-22)
(1.00191 0.054714 8.27954e-22)
(1.07576 -0.0333675 7.0598e-22)
(1.07553 -0.0327312 0)
(0.882973 0.230042 -1.39762e-22)
(0.872382 0.224643 -1.3285e-22)
(1.00497 -9.64378e-05 -9.54682e-22)
(1.00582 -0.000124909 2.22417e-22)
(1.01018 -0.00168747 0)
(1.01009 -0.00158079 0)
(1.01009 -0.00169172 0)
(1.01211 -0.000704205 3.99931e-22)
(1.01199 -0.000653947 3.87393e-22)
(0.961128 -0.074582 6.13336e-22)
(0.96126 -0.0808324 -1.93419e-21)
(0.955473 -0.0769677 -2.98377e-22)
(-0.0342266 -0.110994 0)
(-0.0273804 -0.10551 0)
(-0.0206202 -0.0894152 0)
(1.14543 -0.139993 2.98414e-21)
(1.152 -0.149875 6.86073e-21)
(1.13962 -0.149579 6.78242e-21)
(1.02427 -0.0142215 -1.82331e-23)
(1.02371 -0.0144707 -1.49693e-21)
(1.02381 -0.0137737 -4.87727e-22)
(1.01365 -0.00258864 0)
(1.01367 -0.00276962 -1.68561e-22)
(1.01386 -0.00270987 1.24843e-22)
(0.966508 -0.0726216 1.31106e-21)
(0.961058 -0.0689962 2.16501e-21)
(1.11765 -0.102764 -2.06804e-21)
(1.11163 -0.0968259 -8.99671e-22)
(1.1084 -0.103197 0)
(1.00316 2.33015e-05 8.4027e-23)
(1.00415 5.76203e-05 -3.75879e-22)
(1.00352 4.21125e-05 -4.48909e-22)
(0.797827 0.041692 5.36377e-21)
(0.769794 0.0764528 -1.60897e-20)
(1.19979 -0.0541173 -1.51165e-22)
(1.2052 -0.042684 1.2093e-20)
(1.19073 -0.0434291 -3.22535e-21)
(1.01036 -0.00166747 1.22196e-22)
(1.01026 -0.00168059 3.39299e-23)
(1.01026 -0.00156538 1.97883e-23)
(1.00795 -0.000506737 1.73814e-22)
(1.00804 -0.000526608 -1.63571e-22)
(1.00797 -0.000509249 3.97816e-22)
(1.01229 0.00454564 -1.66851e-22)
(1.01268 0.00421815 3.01434e-23)
(1.01207 0.00395261 5.39523e-22)
(1.0108 -0.00377292 0)
(1.01092 -0.00391554 2.01855e-22)
(-0.0783045 -0.209178 6.87311e-20)
(-0.0701996 -0.198123 4.87173e-20)
(1.01347 -0.00161596 4.93219e-22)
(1.01384 -0.0016752 7.48568e-22)
(1.01347 -0.00141577 -5.70115e-22)
(1.00802 0.0796925 5.29383e-21)
(0.996441 0.0860738 1.25759e-21)
(1.00278 0.0912244 6.93403e-22)
(1.01242 -0.000715589 -2.12678e-22)
(1.01223 -0.000775215 -4.27769e-22)
(1.00537 0.000100937 -5.25851e-24)
(1.00623 0.000122035 5.29343e-23)
(1.00516 7.85374e-05 1.87589e-23)
(1.19113 -0.160249 0)
(1.18113 -0.147232 -1.27557e-23)
(1.19821 -0.144886 -6.30884e-21)
(1.01133 0.00232769 3.68305e-22)
(1.01106 0.00215417 -6.8543e-22)
(1.01114 0.00201887 1.07427e-22)
(0.757391 0.0917162 0)
(0.72663 0.0873065 -3.0896e-21)
(1.01405 -0.00100843 5.83053e-22)
(1.01389 -0.000867348 -6.34819e-22)
(1.0139 -0.00100007 1.18818e-22)
(0.824954 -0.270584 -2.73184e-21)
(0.849004 -0.313433 7.31053e-21)
(1.02343 -0.00233521 4.10583e-22)
(1.02545 -0.00284886 0)
(1.00973 -0.00062975 -9.31218e-23)
(1.00967 -0.000628616 5.25295e-22)
(1.01044 -0.00177351 5.42104e-24)
(1.01044 -0.00167228 -4.01103e-23)
(1.04802 -0.0892944 1.76368e-21)
(1.04336 -0.0923956 9.43906e-22)
(0.862475 -0.225685 0)
(0.872052 -0.222347 0)
(0.868808 -0.235234 0)
(0.851375 -0.231373 2.9649e-22)
(0.852777 -0.217396 -8.95834e-24)
(1.00986 -0.000658106 9.55435e-23)
(1.00977 -0.000623685 2.10431e-22)
(1.1266 -0.100824 2.43525e-21)
(1.02785 -0.00424921 -1.63602e-21)
(1.02768 -0.00384293 -1.12138e-21)
(1.01107 -0.00568828 -2.62216e-22)
(1.01092 -0.00556561 6.03423e-22)
(1.01102 -0.0058138 0)
(1.0947 -0.275327 1.68632e-21)
(1.11333 -0.269004 -4.09524e-21)
(1.09169 -0.256991 -3.33193e-21)
(0.42594 0.0906406 2.29047e-21)
(0.484257 0.0885273 0)
(0.443697 0.103174 -3.54541e-21)
(1.01121 -0.0058021 -6.94724e-22)
(1.01112 -0.0055675 -7.36746e-24)
(1.01058 -0.000613873 8.14847e-22)
(1.01064 -0.000615052 1.05085e-21)
(1.0107 -0.000582163 -6.74897e-22)
(1.01352 0.0045411 3.14541e-23)
(1.01343 0.00501788 3.35527e-22)
(1.01303 0.00445024 -2.41705e-22)
(1.01457 -0.0140596 0)
(1.0148 -0.0144728 0)
(1.04091 -0.0329139 0)
(1.04108 -0.0317555 1.23967e-21)
(1.04221 -0.032462 0)
(1.00831 0.000310506 -6.31732e-23)
(1.00859 0.00034687 -7.81075e-23)
(1.01564 0.000450837 -3.42853e-22)
(1.01605 0.000133587 -3.50929e-22)
(1.03759 -0.015323 -1.33459e-21)
(1.03821 -0.0161068 5.85345e-22)
(1.00787 -0.000487251 6.68291e-22)
(1.00794 -0.000502164 6.87503e-22)
(1.00517 -0.000172997 -1.08996e-23)
(1.00663 -0.000231504 -6.48663e-23)
(1.00565 -0.000180194 -1.64407e-23)
(1.01436 -0.00244756 1.36049e-23)
(1.01418 -0.00248713 -9.5657e-23)
(1.0142 -0.00229613 5.3432e-22)
(0.38488 -0.0757907 9.55887e-22)
(0.401452 -0.0650146 4.74933e-22)
(0.348076 -0.0702345 1.46059e-21)
(1.01602 -0.0052222 0)
(1.01052 -0.000614486 -1.01008e-22)
(1.01047 -0.000637957 2.36888e-22)
(1.01026 0.000817576 3.60348e-23)
(1.0102 0.000823101 2.99667e-23)
(1.01017 0.000772385 -4.34356e-24)
(1.1154 -0.0909211 -4.97114e-22)
(1.10764 -0.0919972 2.86147e-22)
(1.00812 -0.000551803 -1.1992e-22)
(1.00815 -0.000545017 -3.61726e-22)
(1.00819 -0.000572817 9.50011e-23)
(1.00805 -0.000529742 6.59369e-22)
(1.00287 4.50788e-05 5.70441e-22)
(1.00212 -3.48234e-05 5.57303e-22)
(1.03732 -0.00763196 -7.62809e-24)
(1.03806 -0.00755767 2.10749e-21)
(1.03791 -0.0082025 -3.17415e-21)
(1.0102 0.0012546 -2.40316e-22)
(1.0102 0.00127008 -4.7132e-22)
(1.00516 6.07392e-05 5.28875e-22)
(1.00478 6.06922e-05 -1.4766e-22)
(1.00551 5.50188e-05 -4.80681e-22)
(1.00391 2.28331e-05 4.65904e-22)
(1.00339 3.68485e-05 2.70512e-22)
(1.00435 2.74157e-05 2.0531e-22)
(1.01276 0.00605608 -3.8046e-22)
(1.01305 0.00698314 -3.07184e-22)
(1.01201 0.00635384 7.87774e-23)
(0.893294 0.152087 -2.2466e-22)
(0.894436 0.16899 4.76253e-21)
(1.00913 -0.000430814 1.21772e-22)
(1.00736 -0.000337614 -1.59232e-22)
(1.00595 0.000122005 -6.82195e-23)
(1.0054 8.3617e-05 7.47981e-23)
(0.294326 0.0748581 2.14241e-20)
(0.236589 0.0392658 3.4065e-20)
(0.250212 0.0647241 -1.92907e-21)
(1.04918 -0.018185 9.92252e-22)
(1.04938 -0.0171673 -6.98829e-22)
(1.04828 -0.0176069 -1.10947e-21)
(1.00546 -2.2436e-05 0)
(1.00579 -4.62745e-05 3.6253e-22)
(1.00498 -5.33831e-06 3.48324e-22)
(1.00522 -2.3419e-05 0)
(1.00593 -1.69773e-05 0)
(0.856862 0.303659 2.37686e-20)
(0.852988 0.296958 5.78476e-21)
(0.843499 0.298903 -1.19648e-21)
(1.03503 -0.0468519 -8.71574e-24)
(1.04135 -0.0401751 1.90629e-23)
(1.03476 -0.0387869 -3.98587e-22)
(1.00942 0.000816599 4.03317e-24)
(1.00952 0.000858059 2.03254e-22)
(1.0317 0.0112846 -1.06843e-22)
(1.029 0.00996455 1.18903e-22)
(1.03158 0.00825032 0)
(0.998405 0.138289 5.40842e-21)
(1.0092 0.150737 5.47709e-22)
(1.01276 -0.00250489 4.91503e-22)
(1.01241 -0.00220734 7.19007e-22)
(0.974244 -0.0463006 -1.10956e-21)
(0.968104 -0.0519221 -2.67885e-21)
(1.01451 -0.0024054 -3.17622e-22)
(1.0145 -0.00259596 6.92944e-22)
(0.84184 -0.237308 -2.17843e-22)
(0.832131 -0.230336 -7.15247e-22)
(0.833295 -0.243682 -2.34235e-21)
(1.13855 -0.113481 1.82966e-23)
(1.08653 -0.0826971 1.85884e-21)
(1.09042 -0.0802865 -2.93651e-21)
(1.0896 -0.0858873 -1.01307e-21)
(1.08556 -0.0393567 2.02264e-21)
(1.08679 -0.0378804 2.2997e-22)
(0.723383 -0.0458395 1.15609e-21)
(0.795788 -0.0351339 -6.14671e-22)
(1.01008 0.00102986 4.20218e-22)
(1.0102 0.00106579 8.6052e-23)
(1.01004 0.00100857 3.32164e-22)
(0.856698 0.288803 2.85454e-21)
(0.860705 0.279422 1.07499e-21)
(0.86451 0.29011 6.10779e-21)
(1.12845 -0.00540755 -1.87131e-21)
(1.13403 -0.0104574 1.44592e-21)
(1.13649 -0.00121497 4.97981e-22)
(1.00697 -0.000187052 2.22653e-22)
(1.00633 -0.000176472 9.53697e-23)
(1.00624 -0.000157817 2.35988e-22)
(1.08369 -0.0787895 3.47351e-21)
(1.08212 -0.0839038 4.23403e-21)
(0.976805 -0.0313028 3.81983e-21)
(0.97986 -0.0280306 -2.88942e-22)
(0.970381 -0.0615 1.11065e-20)
(0.930179 -0.0520445 2.29348e-20)
(1.00982 -0.00197263 1.23472e-22)
(1.00992 -0.00207097 0)
(1.00984 -0.00206163 8.3228e-23)
(1.00995 0.00100452 -7.83718e-23)
(0.0402569 -0.192254 0)
(0.889664 0.159464 4.55942e-22)
(0.890836 0.172511 -4.89297e-22)
(1.00932 -0.00068097 2.20987e-22)
(1.00944 -0.00068341 -6.59542e-23)
(1.00942 -0.000683291 -3.93031e-22)
(0.0703655 -0.0665868 0)
(0.0477876 -0.0731643 0)
(0.079072 -0.0438398 0)
(0.971105 -0.0706772 -2.2847e-21)
(0.971069 -0.0656236 -1.88478e-21)
(0.975598 -0.0688212 -1.68975e-21)
(1.01892 -0.0138885 9.79314e-22)
(1.02056 -0.0125888 2.94676e-22)
(1.02153 -0.0149778 6.38865e-22)
(0.0718476 0.0055364 2.4166e-21)
(0.0908247 -0.0117115 0)
(0.0971465 0.00866259 1.00859e-22)
(1.00972 -0.00187746 -2.55499e-23)
(1.00981 -0.00188002 -1.05565e-22)
(1.0115 0.00266748 -1.57624e-22)
(1.01417 -0.000988389 1.04159e-21)
(1.01413 -0.00112119 1.2059e-21)
(1.00578 -1.75819e-05 -2.09716e-22)
(1.00511 -4.34218e-05 7.06303e-22)
(1.01452 -0.0104907 -2.82875e-22)
(1.01439 -0.0103561 -2.62589e-22)
(1.01451 -0.0106196 2.80788e-22)
(1.01202 -0.00449041 -8.29383e-22)
(1.01133 -0.00384565 -7.64763e-22)
(1.01227 -0.00398696 -4.55943e-22)
(1.0281 -0.0216775 0)
(1.02828 -0.0206629 2.89096e-22)
(1.0109 -0.000679435 3.6901e-22)
(1.01095 -0.000715366 6.45813e-22)
(1.01099 -0.000658729 6.84932e-22)
(1.01468 -0.0106625 -2.84607e-23)
(1.01454 -0.0103797 -2.6645e-22)
(1.02515 -0.0137757 6.25948e-22)
(1.02472 -0.014094 2.87601e-21)
(1.0254 -0.0142153 1.98986e-21)
(0.791366 -0.372179 0)
(0.78167 -0.375713 -2.32273e-21)
(0.864704 0.303573 -7.49487e-21)
(0.868182 0.307219 9.36862e-21)
(1.01601 -0.00143565 2.74243e-22)
(1.01663 -0.00127742 -3.12221e-23)
(0.847448 0.286871 -3.45505e-21)
(0.906428 -0.266538 0)
(0.916162 -0.25293 0)
(1.00922 -0.000669809 2.22999e-22)
(1.00923 -0.0006743 9.97658e-22)
(1.0652 -0.0306395 3.51333e-21)
(1.06415 -0.0306804 -1.59433e-21)
(1.06464 -0.02982 -4.74176e-21)
(1.0277 -0.0519876 -5.47389e-23)
(1.03502 -0.0556912 3.20633e-22)
(1.02714 -0.0459831 2.16361e-21)
(1.02799 -0.0505482 4.09173e-21)
(1.02757 -0.0486209 1.91565e-21)
(1.04952 -0.103445 -8.31562e-22)
(1.04493 -0.0834121 2.29511e-22)
(1.06191 -0.0746982 -1.21598e-21)
(1.09458 -0.164618 -2.40035e-21)
(1.10194 -0.159454 -5.33093e-21)
(1.09267 -0.15534 -2.27513e-21)
(1.01832 -0.00236107 -6.73869e-22)
(1.01805 -0.00231917 -4.08133e-22)
(-0.00255938 -0.121737 1.34816e-21)
(-0.0169524 -0.125898 1.05209e-20)
(-0.0220594 -0.141687 9.81717e-21)
(0.82423 -0.232085 2.36721e-21)
(0.826543 -0.17224 6.96522e-21)
(0.850166 -0.237332 0)
(1.02789 -0.0095116 1.08257e-21)
(1.02914 -0.00766312 2.27313e-21)
(1.03039 -0.00967292 1.72807e-21)
(1.02555 -0.013489 -1.06181e-21)
(1.02492 -0.0133731 -1.11346e-21)
(1.01695 -0.0151137 3.2135e-22)
(1.01696 -0.0127451 -2.57021e-22)
(1.01468 0.000934126 -6.32996e-22)
(1.01515 0.00069271 -6.56815e-22)