/*--------------------------------*- C++ -*----------------------------------*\
| =========                 |                                                 |
| \\      /  F ield         | OpenFOAM: The Open Source CFD Toolbox           |
|  \\    /   O peration     | Version:  v2012                                 |
|   \\  /    A nd           | Website:  www.openfoam.com                      |
|    \\/     M anipulation  |                                                 |
\*---------------------------------------------------------------------------*/
FoamFile
{
    version     2.0;
    format      ascii;
    class       volVectorField;
    location    "450";
    object      ddt0(U);
}
// * * * * * * * * * * * * * * * * * * * * * * * * * * * * * * * * * * * * * //

dimensions      [0 1 -2 0 0 0 0];


internalField   nonuniform List<vector> 
18355
(
(-0.00157458 0.000320511 -8.67433e-18)
(0.0350226 0.00600931 -2.75321e-17)
(-0.000432546 -0.000300057 -1.74733e-18)
(-0.000318657 9.69523e-05 5.1536e-19)
(0.00058593 0.000524158 6.53694e-19)
(-0.00628595 0.0175069 1.86622e-17)
(-0.000265413 -3.89841e-05 -1.34701e-18)
(-0.00474886 0.000240442 -1.90754e-17)
(0.000123424 -0.00065615 8.42591e-18)
(0.0505176 -0.000145194 -1.39693e-17)
(-0.000158062 0.000176461 4.89444e-18)
(-0.043541 0.00238533 -9.00301e-17)
(-0.00659478 -0.003596 -2.1245e-17)
(-8.32255e-05 -0.000603362 3.76266e-19)
(-0.000546407 0.00047191 3.84455e-19)
(-0.000927176 7.29387e-06 1.914e-18)
(0.000511898 0.000677677 5.69377e-18)
(-0.000352836 0.000257158 1.06917e-19)
(-0.000613693 0.000161065 2.84425e-18)
(-0.0920425 0.0672497 1.29857e-17)
(-0.00109586 -0.000270524 8.18545e-19)
(-0.000453829 -0.000421299 4.58606e-18)
(0.00666647 -0.0198032 5.14468e-18)
(0.000594256 0.000486033 -1.25804e-19)
(0.00238709 0.000566691 -6.59895e-19)
(-0.000144189 -0.00024908 8.5402e-20)
(6.98371e-06 0.000164052 -4.96829e-18)
(-5.75164e-05 -0.000627901 3.38605e-20)
(-0.0460516 -0.046429 1.5365e-17)
(-0.000417694 -0.000540763 -1.58631e-17)
(0.000287909 0.00034422 -7.60543e-19)
(0.0010503 0.000751776 -1.02286e-18)
(-0.000352795 0.000256694 -1.22892e-19)
(-0.000542243 1.4357e-05 -1.83165e-19)
(-0.0012744 0.000379497 3.09142e-19)
(-0.00160432 0.000313324 1.43184e-17)
(6.2754e-05 -0.000663604 8.97911e-19)
(-0.00308502 0.00343164 -1.26503e-17)
(-5.95427e-05 -0.000632285 -1.39408e-17)
(-0.000179185 0.000159131 4.78865e-19)
(-6.44896e-05 -0.000648979 -4.26197e-18)
(-0.00414821 -0.00156671 8.69272e-18)
(-0.000456648 -0.000281603 -4.30601e-19)
(0.0521244 -0.000185152 1.0022e-17)
(-0.000486575 1.53847e-05 -4.42476e-19)
(-0.00301773 0.00381795 2.34979e-17)
(-0.0019473 -0.000342087 -1.74122e-19)
(-0.000288806 -0.000679539 -1.96978e-17)
(-0.00185436 -5.74097e-05 -1.78404e-17)
(-0.000346509 0.000266585 -1.82619e-20)
(-0.000282374 2.82321e-05 -1.63577e-18)
(-0.00042849 0.000374214 8.46947e-20)
(-1.41027e-05 -0.000162048 2.81335e-18)
(0.0242206 0.00804101 -3.25481e-17)
(-0.000226837 9.59786e-05 -1.26214e-18)
(-0.000335214 6.67717e-07 -2.57336e-19)
(0.027946 0.0334877 6.63821e-18)
(-0.000570449 0.000480118 -1.72608e-18)
(-0.000553341 -0.00800647 -1.1511e-16)
(0.00173047 0.000651757 8.64168e-18)
(-0.000345973 0.000257494 1.86728e-20)
(-0.00695636 0.00736298 -1.16927e-17)
(-0.000311886 0.000237067 2.15027e-19)
(-0.00248815 -0.000153354 1.73612e-19)
(-0.0434793 0.00274847 8.86187e-17)
(-0.00156211 0.000339137 7.14627e-18)
(-0.0147347 -0.0454347 1.11276e-17)
(-0.00059207 -0.00164725 5.65796e-18)
(1.00322e-05 0.000134516 -2.77808e-18)
(-0.000472894 -0.000437951 -1.03594e-17)
(-0.00109875 -0.00043366 2.25396e-17)
(-6.59943e-05 -6.16784e-05 -1.32679e-20)
(0.00196954 0.000945287 -1.36751e-17)
(-0.000401924 0.000111346 2.75401e-19)
(-0.00446635 5.09393e-05 6.62755e-18)
(-0.000267821 -5.64589e-05 2.80774e-18)
(0.00122316 0.0109049 4.06686e-18)
(0.00089549 0.000841616 9.17365e-19)
(0.00352652 0.00191019 -1.07605e-17)
(-0.000413426 0.000344171 2.81222e-20)
(-0.000256974 -7.89239e-06 1.96455e-18)
(-0.00756303 0.00591168 5.61977e-17)
(-0.00108581 -0.000255718 -9.91381e-19)
(-0.00224387 0.000387786 -1.56274e-17)
(-0.000140026 -0.000206037 -2.4762e-18)
(-0.00623352 -0.00342486 1.6618e-17)
(-0.0413433 0.0014127 -5.78908e-18)
(-0.0972545 0.0711198 -1.72259e-17)
(-0.0416131 -0.054385 -1.1368e-17)
(0.024678 -0.0059673 1.10639e-17)
(-0.0422695 0.00773222 -1.1204e-17)
(-0.000506818 1.53665e-05 1.21314e-18)
(-0.000189188 -1.2662e-05 1.9522e-18)
(-0.000278555 0.000117123 -4.33189e-19)
(-0.00616804 -0.11351 -1.2435e-17)
(0.00594337 -0.0186251 9.01657e-18)
(-0.000293855 0.000254948 1.71593e-19)
(0.000519326 0.0021006 1.0488e-17)
(0.0285253 0.00765672 -5.95192e-18)
(0.00284346 -0.000184471 -1.57851e-17)
(-0.0100807 -0.0928766 3.45836e-18)
(0.00282191 0.000100157 4.36458e-17)
(-0.00165555 0.000409241 1.3349e-17)
(0.0222241 0.0125936 -1.88603e-17)
(0.000807275 0.000378917 3.52732e-18)
(-0.0157053 0.00625148 -1.17871e-17)
(-0.0404498 0.00192465 1.4047e-17)
(-0.00443724 0.0019869 2.86537e-18)
(-0.00176377 0.00173539 1.38854e-18)
(0.00193274 -0.006095 -1.74911e-17)
(-0.000431675 -0.000468434 5.30699e-18)
(-0.000256943 -0.00060352 5.19412e-18)
(-0.000100851 -0.000280827 1.54593e-18)
(-0.000232018 -0.000616391 -1.55495e-18)
(0.0175274 0.0172912 3.93417e-18)
(-0.000341842 1.60507e-05 2.07185e-18)
(0.000260945 -0.00777494 1.78397e-16)
(-0.000682006 0.0126201 6.54283e-18)
(-0.000453773 -0.00780931 -4.56539e-17)
(-0.00171815 0.000423725 -1.45883e-17)
(0.0496492 -0.000293552 1.34563e-17)
(0.017949 0.0012808 -5.35863e-17)
(0.000909164 0.000795135 -2.21659e-18)
(-0.00105098 -0.000352126 -4.06943e-18)
(-0.00028477 0.000275791 1.75054e-18)
(-0.00476596 0.0019979 9.36805e-18)
(-0.000432493 0.000379549 4.30903e-20)
(4.43248e-06 -0.000201928 -1.50425e-18)
(-0.00997643 0.00928499 -8.53709e-17)
(-0.000297188 0.00011729 4.2851e-19)
(-0.000289583 2.0876e-05 1.4767e-18)
(0.0169568 -0.0231656 -5.30139e-17)
(-0.00413126 0.00439305 2.46462e-18)
(0.00062922 0.00205263 -1.23643e-17)
(-0.00232365 -0.00137248 1.9926e-17)
(-3.93757e-05 -0.000223996 3.33095e-18)
(-0.000452132 0.000467813 -5.35933e-19)
(-0.000156287 0.000185654 2.53321e-19)
(-0.000218233 -0.000599593 -1.41132e-18)
(-0.00100216 0.00132414 7.14364e-18)
(-0.0144573 -0.0940801 1.07748e-17)
(-0.0319169 -0.0920012 1.09811e-17)
(-0.000681482 0.000147073 3.26386e-18)
(-0.000402138 -0.000491979 -7.45966e-18)
(-0.000179511 -0.00605596 -1.37287e-17)
(-0.000433096 -0.000479164 9.28478e-18)
(-0.000148618 -0.000919799 2.09986e-17)
(-0.0452399 -0.00421053 1.20553e-17)
(2.3191e-05 0.00111622 3.64349e-18)
(-0.0356094 -0.000863437 -1.54716e-17)
(0.000286803 0.000511602 -4.11844e-18)
(-0.000458054 -0.000434421 3.82252e-18)
(-0.00134953 0.000336256 7.63772e-18)
(-0.000430861 -0.00791331 1.34914e-16)
(0.00641027 0.0233229 -1.13807e-17)
(-3.72695e-05 -7.22382e-05 -4.18503e-18)
(0.0081964 -0.0231788 3.48752e-17)
(-0.000405417 -0.00733696 4.48712e-17)
(-3.87452e-05 -7.30514e-05 5.48109e-19)
(-0.00820518 0.00669626 9.78042e-18)
(-0.00135291 2.13488e-05 -8.74877e-19)
(-0.0010519 0.000405167 3.79537e-19)
(-0.00112843 -0.00108057 1.1921e-17)
(0.000738408 0.00220025 -1.11142e-17)
(0.00484336 0.0616432 -6.43142e-18)
(-0.00396623 -0.00837159 1.52208e-18)
(-0.0195205 0.00449812 -1.03469e-16)
(-0.00165698 6.72121e-05 -1.05825e-17)
(-0.00683378 -0.0124462 -8.85079e-18)
(-0.000380699 0.00023509 -1.20823e-19)
(0.00312733 0.0366951 1.13109e-17)
(0.00397496 -0.0174939 8.43365e-18)
(-0.000203215 0.000134967 2.39563e-19)
(-0.000218652 0.00013467 -2.52453e-19)
(-0.000919773 2.12668e-05 -2.73473e-18)
(0.0136591 0.00556818 4.06455e-18)
(0.0150679 0.0125501 7.12302e-19)
(-0.000191797 2.41677e-05 -2.32779e-18)
(-0.000686816 0.00834383 -2.23609e-17)
(-0.01344 -0.00445065 -2.36578e-18)
(0.000981626 -0.00397619 7.42675e-17)
(-0.00783104 -0.0125281 -2.13757e-17)
(-0.000438584 0.00230341 -4.8197e-18)
(-0.000319035 -0.000122589 1.23679e-18)
(-0.0173441 0.0568031 4.76694e-18)
(0.00630393 0.00760273 -3.02327e-17)
(0.0203253 -0.0147971 2.66469e-18)
(-0.0323228 0.00632799 -2.82654e-19)
(-6.49538e-05 -0.000669447 2.0277e-18)
(0.000559572 0.000452609 -3.33787e-17)
(0.0285168 0.03161 -3.69284e-18)
(-0.000460165 -0.000210372 2.41507e-19)
(0.00086024 0.00214713 5.7594e-18)
(0.0208905 0.0135919 -3.82749e-17)
(-0.00253481 -0.00171702 -7.89507e-18)
(-0.000544138 -0.000323448 4.0462e-18)
(-0.000286687 -0.0306599 -3.04205e-17)
(-0.000289 0.00231293 3.46072e-18)
(-0.00191445 0.00471371 1.0615e-17)
(-0.000201442 0.000123486 3.63577e-19)
(-0.000156637 0.000674869 1.04683e-18)
(-0.000557728 -0.000561695 8.19441e-18)
(-0.0102502 -0.000874975 4.01538e-17)
(0.0208302 -0.0143394 -3.70535e-18)
(-0.0503851 5.8427e-05 1.46232e-17)
(-0.0014934 -0.000134678 2.21934e-18)
(0.000227238 -0.00732068 -8.58489e-17)
(-0.0199554 0.0116549 -6.35163e-17)
(-0.0315377 0.0085996 -6.02786e-17)
(-0.00164229 0.00486183 2.24851e-18)
(-0.000482151 0.000451503 8.33642e-20)
(0.000256113 0.00048125 6.13923e-18)
(-0.0981016 0.0698657 -3.6818e-19)
(-0.000685629 0.000146322 -3.28664e-18)
(-0.000383433 0.000211147 -2.90861e-21)
(-0.00660634 0.00580461 -4.16142e-17)
(-0.110903 0.110574 1.94272e-17)
(-0.0929958 0.0648171 1.79486e-17)
(-4.9219e-05 -0.000331943 -1.70887e-18)
(1.09889e-05 0.00105845 9.29088e-19)
(-0.00103785 0.0075078 6.75427e-18)
(-0.000256169 -0.000570076 -2.30058e-18)
(-0.00221479 0.000295244 8.0629e-18)
(-0.000462087 0.000459267 -1.95214e-19)
(-0.0128539 0.00488805 3.24882e-17)
(-0.000496434 -0.00029427 -7.11794e-19)
(-0.0119511 0.00946831 -2.02447e-17)
(-0.00990492 0.00772003 2.42002e-17)
(2.39243e-05 -0.00477842 -5.52595e-17)
(-0.000475484 0.000461468 -3.05921e-19)
(-2.36542e-05 -0.00019918 -4.69804e-18)
(0.00333758 0.00169539 -2.47922e-18)
(-0.00129338 0.000201412 -2.09771e-18)
(-0.0113975 0.0100072 -3.14684e-17)
(-0.000803846 0.000363548 -3.03818e-19)
(-0.000182321 -0.000205726 5.66603e-20)
(-0.000209996 -3.77519e-06 2.10093e-18)
(-0.00475658 0.00289985 3.63767e-18)
(-0.0524751 0.0285175 -2.71932e-17)
(-0.0338821 -4.07616e-05 2.06913e-17)
(-0.00163769 0.00171573 1.83643e-17)
(-0.00467337 -0.0121579 1.63064e-17)
(0.00032691 0.000312628 2.92865e-19)
(-0.000385244 0.000191839 -2.08826e-19)
(-0.00052588 -0.00035005 -8.20646e-19)
(-0.00774948 0.00511022 -2.1689e-17)
(0.00344607 -0.00766947 -2.44724e-17)
(-0.000315946 -0.00652739 2.29159e-17)
(0.00766034 0.0225968 1.06309e-17)
(-0.00133996 6.82371e-05 -1.3972e-18)
(-0.000185692 0.000661044 6.52185e-18)
(-0.00173142 -0.0108409 -1.09336e-17)
(-0.000269566 0.00253076 -2.27407e-18)
(-0.0285332 0.00976454 1.66571e-17)
(-0.000549252 -0.000230304 5.67771e-18)
(-0.00634862 0.00453922 1.04119e-16)
(-0.13422 0.116983 -2.17809e-17)
(-0.00823556 0.00593628 7.09515e-18)
(-0.000486334 -0.000280205 9.30529e-19)
(-0.000464383 -5.47087e-06 -1.55966e-18)
(-0.00153498 0.000353267 -4.13216e-18)
(-0.000953031 -0.000646064 -1.52416e-18)
(-0.0146907 -0.00160934 -3.49427e-17)
(-0.00449814 0.0043108 -4.43417e-18)
(-0.000399277 -5.02911e-05 1.69331e-18)
(-0.000396163 0.000192102 2.48742e-19)
(-4.28275e-05 -0.000199749 9.83095e-19)
(-0.00617412 -0.0136298 1.45341e-17)
(-0.00349011 0.00108827 6.36911e-18)
(0.000151405 -0.00453245 2.48986e-17)
(-0.000738764 -7.68447e-05 4.45585e-18)
(-0.0379051 -0.0169137 -1.77268e-18)
(-0.033848 0.00528121 2.69124e-17)
(-0.0146944 0.00594908 1.56655e-17)
(-0.00044452 0.000397229 1.54429e-19)
(0.00119927 -0.034477 1.34724e-17)
(-0.00040761 0.000361418 -4.90962e-20)
(-0.000175398 -0.000109282 5.84224e-18)
(-0.011695 -0.00757849 3.37128e-17)
(-0.00054058 4.43393e-06 -2.29047e-19)
(-0.000250425 -7.05401e-05 1.03601e-18)
(-0.0149373 0.00394585 2.50262e-17)
(-0.000344522 -0.000385087 4.97678e-18)
(-0.009692 -0.142095 -1.74424e-17)
(-0.000134898 0.00254112 6.66789e-19)
(-0.000180645 -0.000738086 -1.66354e-17)
(-0.000540073 4.69392e-06 -1.34707e-20)
(-0.00161398 6.91637e-05 8.37625e-18)
(-0.0379872 0.00413058 -2.31953e-17)
(0.000999594 0.000807393 -1.07696e-18)
(-0.000359621 9.8352e-05 -1.76366e-19)
(1.14505e-05 -0.000392512 -1.64115e-17)
(-0.020397 0.0151959 -1.94381e-17)
(0.0389552 0.00657096 4.76104e-18)
(-1.23787e-05 -0.000209091 -4.44291e-18)
(-2.90457e-05 -6.49075e-06 1.64264e-18)
(-0.118323 0.108922 -6.92805e-18)
(-0.00158982 0.000414609 2.19046e-17)
(0.0100312 0.0234303 -2.65585e-17)
(-0.00338736 -0.00542143 4.09947e-17)
(-0.000173542 -5.93037e-05 -5.6921e-18)
(-0.00109313 -0.000638448 -1.07087e-17)
(-0.000392985 -0.000520319 -1.65889e-17)
(-5.0724e-05 -1.12663e-05 -1.01326e-18)
(-0.003085 -0.00533784 -3.13944e-17)
(0.00277173 0.0641529 -4.14408e-18)
(0.0481757 0.0828643 -3.48054e-18)
(-0.0217322 0.0158734 3.39454e-17)
(-0.000298976 9.61683e-05 9.7685e-19)
(0.000995588 -0.004097 -4.9396e-17)
(0.00072863 0.000308196 1.64604e-18)
(-0.000544936 8.27355e-05 -2.37415e-18)
(0.01205 -0.00337221 -7.62139e-19)
(-0.000399758 -0.000461945 3.77732e-18)
(-0.00511706 -0.0134597 -7.21752e-18)
(-0.0040547 -0.00169383 -7.66686e-18)
(-0.000195434 3.39125e-05 4.00808e-19)
(-0.000326265 -7.76602e-06 2.65144e-19)
(-0.00362978 -0.0120935 -1.57057e-17)
(-0.00799187 -0.0258135 7.05626e-18)
(-0.0190833 0.0122789 3.32234e-17)
(-0.000646422 0.000432769 4.03038e-19)
(-0.00109204 -0.00103162 -3.27871e-17)
(0.052674 -0.000558521 -5.23976e-18)
(-8.08832e-05 0.000224003 5.54815e-19)
(-0.0518945 0.0263916 4.68006e-18)
(0.00369463 0.00102443 3.1841e-18)
(-0.00180925 -0.000623002 7.39263e-18)
(-0.0605321 0.0235469 -2.89484e-18)
(-0.000335173 8.60448e-05 -6.51759e-19)
(-0.00437073 -0.00875089 1.57737e-17)
(-0.000550387 -1.6054e-05 1.27858e-18)
(-0.0024477 -0.00148275 -1.05883e-18)
(-0.000288787 -4.15989e-06 -2.39615e-18)
(0.00917227 0.0226144 1.14479e-17)
(-0.0245533 0.00591652 -9.94583e-18)
(3.36612e-06 -0.000239786 -1.62703e-20)
(-0.00722674 -0.00328201 3.30803e-17)
(-0.00234555 0.0017271 1.15543e-17)
(-6.11004e-05 0.000188218 -4.82438e-18)
(-0.00186135 -0.000243028 6.61543e-18)
(-0.00722816 0.00806627 7.62617e-19)
(0.0326053 0.000749421 1.25491e-18)
(0.0180722 0.0139939 3.83808e-17)
(0.0146006 0.014803 5.75103e-18)
(-0.000537036 -0.000282135 3.41492e-18)
(-0.000341956 0.000229108 -4.00175e-20)
(-0.0109757 -0.0189079 -1.3903e-17)
(0.000747196 -0.00354549 3.24647e-17)
(-0.000173316 -6.29008e-05 -1.11336e-19)
(-0.000790196 0.000337254 -1.08803e-19)
(0.0375871 0.0885332 -3.85823e-18)
(-0.0156318 0.0583774 -1.96106e-17)
(-0.00206145 -0.00971164 3.98092e-17)
(-0.00776973 -0.0207904 2.36533e-17)
(-0.00011989 5.90084e-05 7.26686e-18)
(-0.000341516 0.000836706 3.75419e-18)
(-9.54394e-05 -0.00697941 -4.01689e-17)
(-0.000428263 -0.000441827 -1.46172e-18)
(-0.00081362 0.000363377 3.37795e-19)
(-0.0323509 -0.0034306 -4.04627e-17)
(-0.00136918 0.00542828 -1.57013e-17)
(0.000717166 0.00141829 1.78169e-18)
(-0.0121081 -0.0178362 1.25463e-17)
(-1.57539e-05 -0.000120079 5.34823e-19)
(-0.0018272 -0.00221324 3.63618e-18)
(-0.00109656 0.00810348 3.43344e-18)
(-0.0332459 -2.86135e-05 1.51347e-17)
(-0.000368488 8.89638e-05 -2.21017e-19)
(-0.000353744 -0.000673645 -3.68459e-18)
(-0.000207066 -0.000438046 -2.47553e-19)
(-0.000327358 0.000331196 -7.9951e-20)
(-0.00298036 -0.00266796 -7.70902e-18)
(-0.000325285 0.000313269 -2.23838e-19)
(-0.00156204 0.000228761 -6.10222e-18)
(-0.000198419 -0.000402798 -8.51687e-19)
(-0.00107169 0.00031154 4.30468e-19)
(-0.000110074 3.21224e-05 -4.55171e-18)
(8.42256e-05 -0.000648388 -3.76327e-18)
(-0.000149413 0.000146836 1.75842e-18)
(-0.000600014 0.000274185 1.73559e-18)
(-0.000171117 0.000135627 -3.41706e-19)
(-0.000137475 0.000113785 -1.67323e-19)
(-0.000904385 0.000108028 1.38081e-18)
(-0.000890521 -0.00474362 -2.84236e-17)
(0.0121582 -0.0763425 5.88558e-18)
(-0.000452076 0.000445912 -4.52976e-20)
(0.0374073 0.00388808 1.54941e-17)
(-0.00196464 -0.000776095 9.79298e-18)
(0.0161524 -0.0651139 -9.25694e-19)
(-0.00104317 0.00349259 -7.38028e-18)
(-0.00270126 -0.00207294 -4.16989e-18)
(-0.000518194 -0.000341648 -1.11665e-18)
(0.0425042 -0.00439606 1.97479e-17)
(5.98116e-05 -0.000676378 -7.14077e-18)
(-0.000333814 1.45779e-05 -1.74294e-18)
(-0.00017799 -0.000159454 -3.67157e-19)
(-0.000307972 3.60661e-05 1.17698e-19)
(0.023316 0.0122404 -3.83632e-17)
(-0.00087011 0.000570063 3.397e-18)
(-0.000450107 2.25598e-05 6.81608e-19)
(-0.00333266 0.00169591 -1.70696e-17)
(-0.00154945 0.000237397 3.1991e-18)
(-0.000437121 -0.000400209 -2.0423e-19)
(-7.3682e-05 0.000236384 -5.86105e-19)
(-0.0105502 0.0105131 -1.88583e-16)
(-0.000496359 -0.000360446 -2.20506e-18)
(-0.000433393 0.000365848 -7.81582e-20)
(0.000988096 -0.00950901 -3.05865e-18)
(-0.000327896 -0.000353137 3.35786e-18)
(-0.000380912 -0.00745349 -6.56735e-17)
(0.00200871 0.000258084 -6.46132e-18)
(-0.0331522 -0.00197655 -1.68802e-17)
(-8.65666e-05 -0.000875332 -2.28662e-17)
(0.000804967 0.000326431 4.14703e-18)
(-0.0371622 0.00511723 7.70952e-17)
(-6.98888e-05 -7.23893e-05 6.66837e-20)
(-0.000310687 -0.000471182 2.45767e-18)
(-0.00140037 -0.00928805 7.44046e-18)
(-5.32763e-05 -0.000111195 1.02559e-18)
(-0.000191996 0.000109467 -1.83663e-18)
(-3.38732e-05 0.000600456 5.93561e-19)
(-0.000393526 0.000139018 -6.99187e-19)
(-0.0231483 0.0066781 -7.66795e-18)
(0.00450693 0.00926666 -1.07931e-17)
(0.0140434 0.0160602 -1.01659e-17)
(0.00178822 0.000342756 -8.73516e-17)
(-0.000321361 -0.000564273 -1.59536e-18)
(-0.000328109 -0.000445502 -2.21852e-18)
(-0.00842263 0.0206269 -2.55943e-18)
(-0.0053246 0.0178427 -2.09944e-17)
(0.0159049 0.0420815 -2.52148e-17)
(0.016659 0.00150778 -2.48132e-17)
(-0.000190638 -0.000322353 4.4011e-18)
(-0.000307256 -0.000109599 -3.73204e-20)
(-0.000424883 -0.000517979 -2.1442e-18)
(-0.0723056 0.0764027 -1.29631e-17)
(-0.00255257 -0.000974484 -2.21646e-18)
(-0.00064622 0.000194635 -3.31879e-18)
(-4.56968e-05 -6.97407e-05 1.7618e-18)
(-0.000679265 0.000100883 -1.32155e-18)
(-0.00186615 -0.00236188 -6.6429e-18)
(-0.00012116 -0.0070892 3.4063e-17)
(-0.00135758 -0.000178593 1.06503e-18)
(-0.000399843 -0.000558419 7.12493e-18)
(-2.464e-05 -0.00016852 -3.21284e-18)
(-0.001003 0.00327632 6.69965e-18)
(-0.049008 0.010532 1.68649e-17)
(0.0369824 0.00756695 -3.68132e-18)
(-0.0069072 0.00490987 3.14627e-18)
(0.0562608 -0.0190567 1.26037e-17)
(-0.00131796 -0.00292763 4.94251e-17)
(-0.00207109 -0.00220032 -1.95447e-18)
(0.0491059 -0.00207397 -4.28928e-17)
(0.000177577 0.000386105 4.14188e-18)
(-0.000379472 -8.46931e-05 -4.60657e-19)
(3.22008e-05 -0.000371906 -6.38003e-20)
(-0.000437095 0.000447354 1.17404e-19)
(-0.00267234 -0.00279855 2.18719e-17)
(-0.000152979 8.24061e-05 1.19982e-19)
(-0.000448019 2.15445e-05 1.14164e-19)
(0.00323213 -0.000175721 1.6364e-17)
(-0.00177965 -0.00257897 -2.0541e-17)
(-0.0019411 -0.000171748 3.08298e-17)
(0.0224015 -0.0052396 -2.69328e-18)
(-0.00136366 -0.00304487 -4.20332e-17)
(0.00836186 0.00514645 3.83142e-17)
(-0.000500117 0.000242746 9.76272e-19)
(-0.000130465 0.000136358 3.6674e-18)
(-0.000371554 -0.000581036 4.24281e-18)
(-0.000264829 1.79603e-05 -2.78026e-18)
(-2.94392e-05 -4.81965e-05 -3.80783e-18)
(1.53553e-05 -0.000142175 1.57715e-18)
(-0.000171663 -3.03822e-05 -3.40976e-18)
(-0.0380122 -0.0771861 -1.1411e-17)
(-0.000639863 0.000442202 -3.46949e-19)
(-0.000296057 3.16546e-05 -2.56626e-19)
(0.0196114 -0.00136819 -1.69746e-17)
(0.00206159 -0.000304797 -4.02755e-17)
(-0.000348985 -0.000107077 7.354e-19)
(0.000610263 0.000795419 1.24122e-17)
(-0.00322047 -0.00151478 3.37546e-18)
(-0.0156357 -0.00801187 4.23696e-17)
(-0.000879916 3.08832e-05 -4.48579e-18)
(-0.000251026 0.000203279 -5.80476e-19)
(0.0335561 -0.0023803 1.59736e-17)
(-0.000571877 -0.000526171 -7.36165e-18)
(-0.051342 -0.0149923 1.48762e-17)
(0.00397045 0.000954395 -6.35548e-18)
(-0.000325862 0.000335131 4.9899e-19)
(0.00296471 -0.000315847 9.82182e-17)
(0.00218102 -0.000593656 3.59082e-17)
(-0.000362347 0.000217028 -1.01242e-19)
(-0.0241958 0.00991319 -3.47404e-17)
(-0.0233587 -0.10223 -1.28017e-17)
(-0.00734235 0.00598149 4.31874e-17)
(-0.000327375 0.000350621 -2.25508e-20)
(-0.000249092 0.000192242 -9.91785e-20)
(-0.00126495 0.000207926 3.01829e-18)
(-0.0189293 0.0185093 -2.11354e-17)
(-0.00021305 -0.000648126 3.32606e-18)
(-0.043693 -0.0125363 1.55235e-18)
(-0.0689853 0.0793905 1.90427e-17)
(0.0372116 0.00367023 -2.5605e-17)
(0.00993146 0.011508 6.09285e-17)
(-0.000307446 2.32203e-05 1.30496e-19)
(0.00503735 0.00895034 2.42352e-17)
(0.0133167 0.0117153 -2.5189e-17)
(0.00399303 -0.0188826 -2.18616e-17)
(-0.0208461 0.0367218 -2.38333e-17)
(-0.000379133 -0.000602307 -5.47849e-18)
(-0.00128378 -0.000207013 -3.67855e-18)
(-0.00135402 1.43195e-06 5.02695e-19)
(0.0313694 -0.00747386 -1.64033e-17)
(0.00284061 1.5386e-05 3.03666e-18)
(-0.0450897 0.00600276 1.37013e-17)
(-0.000510681 -0.000273094 -2.27389e-18)
(-0.000225254 -0.000568313 -1.87292e-19)
(-5.83818e-05 -0.000135823 -1.70077e-18)
(-0.00258562 -0.00101735 -1.76302e-18)
(-0.000166113 1.65897e-05 3.3065e-19)
(-0.0099483 0.0241489 1.3138e-19)
(-0.00138025 -1.56446e-05 -1.42983e-19)
(0.012254 0.0198875 1.04212e-17)
(-0.000234867 -0.000784058 3.54742e-18)
(-0.00064479 7.43907e-05 2.27361e-19)
(-0.000448205 -8.63346e-06 1.5636e-18)
(-0.000611613 -0.00155414 -1.56013e-17)
(-0.00170738 4.65504e-05 4.72197e-18)
(-0.0485956 0.0133945 -7.24426e-18)
(-0.00030404 -0.000337514 4.73834e-18)
(-0.0147316 0.0118063 2.33587e-17)
(-0.00973869 -0.00922165 1.61554e-17)
(0.00312699 0.00374422 2.16108e-18)
(-0.00049573 -0.000253118 -2.72542e-18)
(-0.000479634 -0.000601406 -7.34453e-18)
(0.00458352 0.00330253 1.02359e-17)
(-3.76248e-05 -0.00012153 5.57162e-19)
(-0.00182425 0.00093499 -3.91562e-18)
(-0.00170494 0.00527734 -7.19196e-18)
(0.00282537 0.00362613 -1.99481e-18)
(0.00120508 0.00204353 -7.61136e-18)
(-0.000809022 0.000343878 4.6877e-19)
(-0.000354375 0.000212147 2.38623e-19)
(3.42277e-05 -0.0002947 6.04576e-18)
(6.83123e-06 -0.000175553 2.91607e-18)
(-0.00161663 0.00013789 1.38372e-17)
(0.000808648 0.00138311 -7.71798e-18)
(-0.00734144 0.00681296 -1.56202e-18)
(-0.000496874 0.000219861 -7.5312e-19)
(0.00059836 0.000477027 6.89321e-19)
(0.12692 0.0530247 8.34838e-18)
(-0.000314875 6.03204e-05 -2.78026e-19)
(0.000302629 -0.00174139 -4.07736e-17)
(-0.000229472 -0.000616068 -1.94845e-18)
(-0.00159208 0.00341623 2.32338e-17)
(-0.000210126 -0.000716957 2.15258e-17)
(0.0259114 0.0109521 2.06566e-18)
(-0.000380463 0.000451404 -1.16906e-18)
(0.0365714 -0.00132307 -1.57331e-17)
(-0.000705033 -0.000739693 -5.18081e-17)
(-0.000356734 -0.000684656 2.73472e-18)
(-0.131083 0.11162 2.10667e-17)
(0.140197 0.0488339 -1.70674e-17)
(-0.029085 0.00726515 -2.20818e-17)
(0.00341727 0.00353176 1.5626e-17)
(-0.000844197 0.000560235 9.48244e-18)
(-0.000325725 0.000365974 9.11531e-19)
(-0.000252332 -0.000530473 6.19288e-18)
(0.00193587 0.0331162 3.481e-18)
(-0.00165664 -0.000114946 -3.09491e-18)
(-0.00192915 -0.000492094 4.88304e-18)
(-0.00372649 0.00075194 4.31686e-18)
(-0.0345915 -0.0852589 -5.99161e-19)
(0.0149858 0.0639079 -3.62354e-18)
(-0.000433356 -5.01102e-06 1.45186e-18)
(-0.0193524 0.012848 -8.2244e-17)
(0.0411965 -0.0263217 3.7471e-17)
(0.000724332 0.000811538 -6.46056e-19)
(-0.00020402 -0.000553613 -8.60319e-18)
(0.00021435 -0.00180524 -1.27928e-17)
(0.028008 -0.00554644 1.32221e-17)
(-0.00151873 0.000332863 -6.94807e-18)
(-9.95034e-05 -0.000276948 -3.30679e-18)
(-0.000302898 -0.00344187 1.09757e-16)
(0.000876386 0.00187608 -2.51036e-19)
(-0.00126412 0.000456093 1.21847e-17)
(-0.000552383 -0.00143276 9.46831e-18)
(-0.00565467 -0.00903641 1.71835e-18)
(0.000341238 0.00199076 3.95366e-18)
(-0.0128865 0.00274633 1.12921e-17)
(0.0448023 0.00246439 8.32508e-18)
(-0.0594361 0.020215 -5.38811e-18)
(0.0113482 -0.00110608 1.00119e-16)
(-0.00242242 -0.00248644 1.09175e-17)
(-0.00464353 0.00257543 -8.18984e-18)
(-0.000563779 0.00206224 8.26761e-18)
(-0.000323879 3.09421e-06 1.01956e-18)
(0.000773649 0.00084007 9.56269e-18)
(-0.000425496 -0.000550576 1.59382e-17)
(-0.000102933 -0.00581821 -6.91829e-17)
(0.00151029 -0.00585775 -4.90584e-17)
(0.0128849 0.00781175 -4.37777e-18)
(-0.000828813 -0.00472696 2.10226e-17)
(-0.0407623 0.00429789 -2.95925e-17)
(0.00629419 -0.161565 -2.03119e-18)
(-0.000160986 -0.00327823 1.29347e-17)
(-0.000966548 5.86563e-06 -1.86837e-18)
(0.0280124 0.00513948 -2.2703e-18)
(-0.0310598 0.00980039 4.95533e-17)
(-0.000168776 0.000170889 -1.91177e-18)
(-0.000573504 -0.00490145 -6.73342e-17)
(-0.0149797 -0.0695086 5.07803e-18)
(0.0317575 -0.0353316 2.00313e-17)
(-0.0014702 -0.000144906 -6.14828e-20)
(-0.000310763 8.10317e-06 -6.44373e-20)
(0.000313843 0.00190586 -1.73243e-18)
(0.0011135 0.00222154 2.11397e-18)
(0.00471526 0.00297814 -2.86349e-18)
(-0.00739633 -0.00177739 -1.514e-17)
(-0.000419517 -0.000435002 1.50811e-18)
(0.042225 -0.00118366 2.62638e-18)
(-0.000919729 8.69435e-05 -2.79482e-18)
(-0.00100338 -0.000245408 -1.30436e-17)
(0.0315649 -0.00832489 8.94797e-18)
(-0.000486691 9.70933e-05 -5.58162e-19)
(-0.0017513 1.20534e-05 -2.48579e-19)
(-0.0311514 0.0413043 5.13309e-18)
(-0.000330835 -0.000421098 3.34057e-18)
(-0.000732043 0.000452315 -4.37161e-19)
(-0.0287809 -0.0128985 -3.59752e-17)
(-0.000489389 5.89375e-05 -5.78813e-20)
(-0.0145096 0.0126637 1.61939e-17)
(-0.000332478 7.14436e-05 1.21686e-18)
(-0.00779587 -0.160339 2.01871e-18)
(0.00361229 0.00363544 -1.23388e-17)
(0.00158294 0.00808522 5.93443e-18)
(-0.0019125 -0.000655076 6.91393e-18)
(-0.00114418 0.000373127 -3.56954e-18)
(-0.0182528 0.0173941 2.26259e-17)
(2.79152e-05 -0.0007053 1.58807e-17)
(-0.0419005 -0.00343435 -1.23286e-19)
(0.00405836 0.0218619 8.72963e-18)
(0.00021822 0.000370774 1.13933e-19)
(0.0123316 -0.00392511 -1.67782e-17)
(0.00185301 0.00848369 -2.78553e-18)
(-0.00509133 -0.00932863 3.4787e-18)
(-0.00814552 0.00207499 3.25363e-17)
(0.0172793 -0.00047229 2.11103e-17)
(-0.0424831 0.00991791 -1.3226e-17)
(-0.000380977 -0.000490544 5.28402e-18)
(-0.000288452 4.3667e-05 1.07127e-19)
(-0.0212335 -0.109838 2.27438e-17)
(-0.000515807 -0.000584642 -5.47342e-18)
(-0.00188578 0.000973268 1.03411e-17)
(-0.000123327 -0.000233261 -4.25483e-19)
(-0.000590213 0.00213279 -9.49549e-18)
(0.0547409 -0.0205462 -1.56197e-17)
(0.0322479 -0.0163647 3.41157e-17)
(-0.00157699 0.000160964 -7.93905e-18)
(0.0527087 -0.00156474 -1.35897e-17)
(-0.00253042 -0.00272184 -2.15756e-17)
(-0.000991624 0.000254479 -4.54465e-19)
(-0.000325343 1.16422e-05 7.36864e-19)
(-0.000134506 -0.000258312 8.09065e-19)
(-0.00352681 0.00158622 -1.2959e-18)
(-0.00330697 0.00110443 2.04384e-18)
(-0.000170518 5.55669e-05 -2.17577e-19)
(-0.0250942 0.00471864 -3.19326e-17)
(-0.00153545 -0.000155206 -9.19337e-19)
(-0.00162453 0.000451438 2.94425e-18)
(-0.000535322 6.72645e-06 1.59451e-20)
(-0.0270291 0.00954242 7.23798e-17)
(-0.0106069 0.00956031 1.26333e-16)
(-0.000397675 -0.000558531 -1.06318e-18)
(-0.000238576 0.000144642 -1.12547e-19)
(-0.00404863 0.0195858 -7.92403e-19)
(-7.43698e-05 -0.000212548 -5.23996e-19)
(-0.000356897 0.000221394 1.30416e-19)
(-0.00317147 -0.161552 2.8612e-18)
(-0.000809279 -0.00500403 1.08697e-16)
(-0.000370507 -0.000567002 -6.92167e-18)
(-0.000258786 -0.000544362 -6.56785e-18)
(0.0155265 0.0469368 -1.06609e-17)
(-0.001784 -7.671e-05 -6.40929e-18)
(0.00380918 0.00187149 1.83579e-17)
(0.000652684 -0.00343777 -6.06032e-17)
(-0.000578522 0.000282827 -1.59448e-18)
(0.012049 0.0140937 2.15241e-17)
(-0.00417098 0.00724732 -4.1693e-17)
(-0.000499948 -0.000376739 2.54204e-18)
(-0.000891632 -0.00574984 -2.42441e-17)
(0.00262576 -0.0168992 -1.0952e-17)
(-0.000274937 -5.94865e-05 9.01662e-19)
(0.0384987 -0.015374 2.80029e-18)
(-0.000315356 7.77711e-05 9.3171e-19)
(-0.000343807 -0.000372773 -1.02823e-18)
(-0.000206725 -0.000655716 -2.85089e-18)
(5.64023e-05 -0.00205609 1.21325e-17)
(-0.00833239 0.00843587 -5.13327e-17)
(-0.00220036 0.00163732 -7.13324e-18)
(0.043287 0.00328824 -9.0047e-18)
(-0.00179308 -5.8461e-05 3.14252e-19)
(-0.0401661 0.0303769 -8.40113e-18)
(0.0124908 0.0112422 5.61536e-17)
(-0.000668224 0.00192917 -3.38255e-18)
(-0.0421432 0.00346171 3.17343e-17)
(-0.000366664 -0.000641611 -6.37376e-18)
(-0.027445 0.0108024 -1.56537e-17)
(0.000664261 0.000831861 -7.58243e-18)
(-0.0371792 -0.00503047 4.52442e-18)
(0.0336979 0.00630208 -1.15211e-17)
(-0.000606526 7.56631e-06 -1.34407e-18)
(-0.000696328 -0.00887656 8.14738e-17)
(-0.00118626 0.000238278 -2.69177e-18)
(-0.000665748 -0.000762213 7.08739e-17)
(-0.0316275 0.00425387 9.21949e-18)
(-0.000795294 -0.00406085 -2.38116e-17)
(-0.0352311 0.00616252 -7.19438e-17)
(-0.000410501 1.15866e-05 4.46747e-19)
(0.024802 0.0102457 -2.36368e-17)
(-0.000204093 -0.000698346 2.22416e-18)
(-0.0574488 0.00489962 4.3254e-18)
(0.000203082 0.00042946 -3.3091e-18)
(-0.00145306 -7.4838e-05 2.58736e-18)
(0.00417932 0.003305 1.17599e-18)
(-0.000411118 0.000134367 6.46479e-19)
(-0.000514247 5.20346e-07 -1.3425e-21)
(-0.0012494 0.0109455 -7.30254e-18)
(0.02788 0.0113409 4.02116e-17)
(0.0247477 -0.0356051 -2.26306e-17)
(-0.000298487 -9.00916e-05 -2.0256e-18)
(-0.000442516 -0.00685194 -9.77485e-17)
(-0.000629082 0.00181897 4.89481e-18)
(-0.000418315 9.43897e-05 3.87188e-19)
(-6.72309e-05 -8.31887e-05 -3.87142e-19)
(-0.00123388 -0.000675359 2.55171e-18)
(-0.0206249 0.0103636 -3.61239e-18)
(-0.0295535 0.00775931 -2.49569e-17)
(-0.00199645 0.00158808 -3.75337e-17)
(-0.000558983 7.79056e-06 -1.03734e-19)
(-0.00134194 0.00020737 1.4442e-18)
(0.0209129 0.0157725 -3.68294e-17)
(-0.00139416 -9.37916e-05 2.3953e-18)
(-0.000383988 -0.000478542 -5.79833e-20)
(-0.000396784 0.000155662 -1.48627e-18)
(-0.00137142 0.000217263 -2.81287e-18)
(-0.0014223 0.00186258 -1.3897e-17)
(0.0589974 -0.000868265 -2.10129e-18)
(-0.000477672 6.82781e-05 4.13714e-19)
(-0.00942906 0.00164768 1.26198e-18)
(-0.00268783 -0.00167287 3.15938e-17)
(0.0193713 -0.0263318 2.97806e-17)
(-0.00665953 0.00565902 -3.6552e-17)
(-0.0150682 -0.0511141 -5.70664e-18)
(-0.000357321 -7.83233e-06 -3.36754e-19)
(0.0122315 0.0144506 1.33174e-17)
(-0.000463923 -0.000230013 1.51354e-18)
(-0.000680769 0.000437786 -2.56494e-19)
(7.96687e-05 0.00277354 -9.75338e-19)
(-0.0198258 -0.0631405 -4.71042e-17)
(-0.000417489 -5.2169e-05 9.78007e-19)
(-0.000342587 0.00038558 6.59093e-19)
(-0.000530081 6.8685e-06 -5.81599e-20)
(-0.0268292 0.00944304 -3.66458e-18)
(-0.000589369 -0.000341442 -2.8833e-17)
(0.00023211 0.00037268 4.21112e-20)