/*--------------------------------*- C++ -*----------------------------------*\
| =========                 |                                                 |
| \\      /  F ield         | OpenFOAM: The Open Source CFD Toolbox           |
|  \\    /   O peration     | Version:  v2012                                 |
|   \\  /    A nd           | Website:  www.openfoam.com                      |
|    \\/     M anipulation  |                                                 |
\*---------------------------------------------------------------------------*/
FoamFile
{
    version     2.0;
    format      ascii;
    class       volScalarField;
    location    "600";
    object      ddt0(k);
}
// * * * * * * * * * * * * * * * * * * * * * * * * * * * * * * * * * * * * * //

dimensions      [0 2 -3 0 0 0 0];


internalField   nonuniform List<scalar> 
18355
(
-2.0438e-07
-0.000540864
2.49931e-08
-1.19541e-07
4.5027e-08
-1.78591e-06
-9.12547e-08
-5.2675e-07
-2.42538e-08
-0.00192554
-1.40843e-07
0.000788898
-1.05399e-06
-3.29344e-08
-1.06333e-07
-5.10184e-08
0.000311668
-8.18675e-08
5.83221e-08
0.0207743
-7.02009e-08
5.2932e-08
-0.00473801
4.35102e-08
3.41353e-07
-1.76215e-08
-1.47228e-09
-2.33396e-08
-0.000977724
4.11123e-08
-3.05129e-08
1.33458e-07
-8.41357e-08
-1.93215e-07
-3.14144e-07
-1.93966e-07
-2.13778e-08
-3.725e-07
-9.01723e-09
-1.52877e-07
-3.11427e-08
-1.92589e-07
3.2587e-08
-0.00220019
-1.99197e-07
8.33741e-08
-4.68997e-07
-4.33364e-09
-1.73311e-07
-6.31285e-08
-1.65577e-07
-2.43701e-08
-4.32282e-09
-0.000528986
-4.17588e-08
-9.03804e-08
-1.64543e-06
-1.07849e-07
2.65203e-06
-5.93502e-07
-6.13979e-08
-1.10786e-06
-8.84983e-08
6.6463e-09
0.000713333
-2.27765e-07
-0.000940764
-2.22338e-08
-1.90515e-09
5.94058e-08
-2.29394e-07
-2.06299e-08
-6.13276e-07
-6.24252e-08
-6.29237e-07
-9.1196e-08
0.00463059
1.22007e-07
4.21073e-07
-2.25034e-08
-8.94025e-08
-8.79684e-05
-7.24032e-08
-1.86386e-07
-2.15838e-08
-9.71835e-07
0.000503609
0.0214357
-0.00116793
-0.00366127
-3.87195e-05
-2.08483e-07
-2.55076e-08
-1.46728e-07
-0.000336417
-0.0044604
-1.14638e-07
1.41817e-07
-0.000810924
0.000139236
-0.00109364
0.000191264
-2.78619e-07
-0.00608043
8.61887e-08
-2.47207e-06
0.000872248
-6.69624e-07
-1.35903e-07
-9.10874e-06
3.74049e-08
1.22406e-08
-5.63764e-09
5.12859e-09
0.00193777
-1.0789e-07
9.28378e-07
0.00560127
-5.18956e-07
-3.5534e-07
-0.00199544
0.00232416
1.16329e-07
-1.95959e-07
-1.13672e-07
-1.82286e-06
-3.26403e-08
4.74547e-09
-0.00229054
-1.48531e-07
-1.63864e-07
-0.012723
-5.18996e-07
1.53682e-07
-1.80027e-07
-1.038e-08
-8.41425e-08
-1.41781e-07
-4.94374e-08
-3.03652e-07
-0.00134982
-0.000518944
1.9139e-08
2.62696e-08
-5.61663e-06
6.22034e-08
-1.54622e-08
-0.0018173
3.21046e-08
-0.00503851
8.81735e-09
6.13127e-08
-3.2675e-07
4.4461e-07
-1.32402e-06
-1.31251e-08
-0.012273
-3.44773e-07
-1.24573e-08
-1.27667e-06
-1.40107e-07
-1.81011e-07
1.08922e-08
1.67187e-07
-5.87245e-06
-6.57105e-05
0.00182658
-2.94518e-07
-2.61872e-06
-6.73845e-08
0.00121142
-0.00411472
-1.35258e-07
-1.47894e-07
-5.35148e-08
-0.000254428
2.81254e-07
-2.48604e-08
-0.00276291
0.00019635
-1.21188e-06
-1.87779e-06
4.58319e-08
-1.04212e-07
-1.23498e-05
-5.96322e-05
-0.0049365
-9.87052e-06
-1.40569e-08
0.000260958
-1.44172e-06
4.38217e-08
1.72858e-07
-0.000387751
-1.78505e-07
5.93423e-08
-0.00882335
4.62378e-08
-1.93662e-07
-1.4228e-07
-4.57896e-08
-8.41277e-10
0.000832476
-0.00475994
0.00061062
-1.58286e-07
1.57152e-06
0.00178914
0.00119596
-2.09622e-07
-6.18523e-08
-3.98294e-09
0.0183099
3.00089e-08
-6.81617e-08
7.10975e-05
0.0254897
0.018071
4.6529e-09
2.93016e-08
-5.04705e-05
-5.39147e-08
-1.75076e-07
-8.18051e-08
0.0016982
7.43725e-08
0.00144413
-4.12405e-05
-2.97673e-06
-5.67456e-08
-5.79318e-09
4.32308e-07
-1.62378e-07
0.00162793
-9.49355e-08
-1.34853e-08
-2.87987e-08
2.97055e-07
-0.014617
0.000422769
-1.21852e-07
-9.08566e-07
-2.43567e-08
-6.11568e-08
6.71353e-08
-0.000515189
-0.0142134
-6.32032e-07
-1.23028e-06
-1.32944e-07
-4.53558e-08
1.59719e-06
7.21302e-08
0.00148373
7.91797e-08
0.000861422
0.0230229
-1.24946e-06
6.80136e-08
-1.427e-07
-2.53573e-07
-2.83332e-07
0.000670541
-4.90939e-07
-1.0408e-07
-7.77382e-08
-1.5124e-08
-7.69095e-06
-8.84214e-07
-6.41526e-06
1.80562e-08
-0.00189075
-1.0383e-05
-2.45459e-06
-1.53176e-07
-0.0123099
-3.08001e-08
-7.40955e-08
-0.000948091
-1.7852e-07
-8.75439e-08
-2.36182e-06
-6.03152e-08
0.00083304
8.02824e-08
-1.1247e-08
-1.79029e-07
-4.23801e-07
0.000830283
1.30924e-07
-1.32084e-07
-2.91716e-09
-4.16267e-06
-0.0012365
-3.73307e-09
-9.99741e-09
0.0187866
-1.3656e-07
-1.16754e-06
-6.06326e-06
-7.14854e-08
-2.44293e-07
3.6382e-08
-1.7371e-08
-8.43762e-06
-6.61495e-06
8.88241e-05
-4.23808e-06
-1.52498e-07
3.59866e-06
6.25046e-08
5.5194e-08
-0.0104762
9.85184e-09
-4.19846e-06
1.20492e-07
-2.61442e-08
-1.64859e-07
-9.94569e-07
-0.00348289
0.00210625
-6.21653e-08
-1.1034e-07
-0.00199618
-1.355e-07
0.00903037
4.88416e-07
2.64204e-07
0.00817015
-1.55142e-07
2.35176e-05
7.36207e-08
-1.7834e-07
-7.57281e-08
-1.15227e-06
0.00092407
3.98274e-10
0.0003054
-2.26825e-07
-1.34444e-08
-3.46512e-07
-1.16744e-06
-0.00659624
0.00130471
-0.00664064
8.00472e-08
-1e-07
-0.00369992
3.23872e-06
-1.85145e-08
-6.24081e-08
6.8669e-05
-1.23332e-05
-7.59431e-07
-0.00398945
-1.29911e-08
-4.90509e-08
-1.56809e-06
3.81753e-08
-8.57042e-08
-6.95611e-06
-1.82768e-07
1.33454e-07
-0.00297013
-5.36364e-09
3.2761e-07
-6.27107e-05
0.000427517
-1.43457e-07
4.30747e-08
-7.83745e-08
-9.95887e-08
6.41962e-08
-1.02045e-07
-1.58392e-07
-8.00291e-08
-1.66083e-07
-1.43261e-08
-2.22513e-08
-1.21521e-07
1.89255e-08
-1.30214e-07
-1.22076e-07
-5.67292e-08
-2.11729e-06
0.00208159
-8.9194e-08
-0.00277793
1.09693e-07
0.00236378
-3.32861e-08
-5.07881e-07
6.52984e-08
-0.00621231
-1.69764e-08
-1.06798e-07
-1.60174e-08
-1.40806e-07
0.00055396
-1.58471e-07
-1.87801e-07
-3.73449e-07
-7.69651e-08
4.51075e-08
-1.39945e-07
0.00186559
6.11569e-08
-2.92185e-08
2.9947e-06
-6.76208e-08
-5.1646e-07
0.000184542
5.17605e-06
-5.13129e-08
8.42465e-08
0.000798014
-2.04015e-08
-8.03472e-08
-1.0487e-06
-1.81662e-08
-1.35006e-07
0.000294051
-6.19561e-08
0.000965067
1.0255e-07
-1.46249e-07
0.000238683
4.26814e-08
-8.73156e-08
0.00854471
-1.7869e-06
0.00153903
-0.000686946
-8.12019e-08
-1.02596e-07
6.17188e-08
0.0209742
-1.41931e-07
4.85158e-08
-1.78482e-08
3.43437e-08
6.34707e-07
-1.60078e-06
-1.02287e-07
6.04736e-08
-5.1888e-09
-3.44917e-08
-0.000860039
-0.000952542
0.000893413
-0.0104453
-2.3059e-07
1.58311e-07
-0.00237543
-2.93063e-08
-9.02009e-08
4.87255e-09
-8.68967e-08
4.36985e-09
-5.36406e-08
-1.86326e-07
0.000119032
1.20739e-07
-2.90301e-07
-0.00334256
-1.74617e-07
-0.000358597
2.26483e-08
-1.19831e-07
1.99696e-08
-8.77461e-08
-1.10738e-08
9.50968e-09
-6.74577e-08
-0.000421709
-6.7558e-08
-1.6364e-07
0.00309592
-4.36148e-07
-8.7987e-08
8.35929e-08
-3.82011e-07
0.00429104
-4.18442e-08
-1.25423e-07
-0.00398025
-3.4826e-09
-0.000261471
5.24394e-07
-9.01592e-08
3.7934e-05
-3.88344e-07
-9.21197e-08
0.00193924
-0.000944567
0.00156692
-8.94763e-08
-1.25229e-07
-1.77844e-07
-4.01546e-06
3.15825e-08
-0.00094626
0.0202254
-0.00310005
0.00210405
-1.4202e-07
1.75213e-07
0.000626449
-0.00441263
0.0103704
6.04906e-08
-1.10115e-07
-1.18347e-07
-0.00307037
0.000185576
-0.000115355
7.44248e-08
-6.14328e-08
-6.40406e-09
-1.09892e-07
-6.4156e-08
0.00999322
-1.75756e-07
0.00306777
-4.41108e-09
5.05612e-08
-1.34958e-07
-1.07899e-08
6.19986e-08
0.000338432
-8.5211e-08
-2.71908e-06
-3.72995e-05
3.88127e-07
7.11601e-08
-2.24296e-09
5.21037e-07
-1.24169e-08
-2.00746e-07
-1.95297e-07
3.41232e-07
-3.73346e-08
-7.88865e-08
-9.52632e-08
7.60346e-09
4.29234e-09
-3.93361e-07
1.41273e-07
-1.12768e-06
3.09727e-08
4.52014e-08
0.0095068
-1.61562e-07
-3.1342e-07
2.27111e-08
6.55752e-07
-9.66656e-09
0.000223859
-1.25577e-07
-0.00137468
-2.8329e-08
9.27487e-11
0.0221923
0.0105191
-0.00572942
4.20181e-07
-1.58284e-07
-8.20597e-08
-8.06389e-08
-2.94865e-06
-9.32039e-09
1.85316e-08
8.68646e-08
-0.000614589
-1.12553e-05
-1.45032e-07
0.00248854
-0.0165634
9.16656e-08
-6.80535e-08
-2.05905e-08
-0.00355438
-2.5816e-07
-2.46879e-08
1.81959e-06
-1.82565e-07
-2.58285e-07
-3.79353e-08
-0.000152715
1.25615e-07
-2.03279e-06
-0.00183568
-0.00913639
0.0197474
-6.48904e-07
-2.08943e-07
2.89821e-08
-9.01295e-08
1.04674e-07
3.12312e-08
6.09789e-06
-4.10056e-05
-4.08671e-05
-4.83978e-06
0.000639576
0.00222491
-2.65906e-06
-6.10011e-08
-0.000327049
-0.000938231
-1.52969e-07
2.85645e-06
-0.000968414
-0.0161296
-1.05842e-07
-1.54705e-07
1.22535e-07
2.00929e-07
4.96482e-07
-1.19863e-06
1.79234e-08
-0.00131952
-5.42818e-08
-4.67973e-08
-0.00324045
3.49127e-08
1.21751e-07
0.0133378
-9.67132e-08
-1.65559e-07
-0.00220117
-1.41912e-07
-2.67108e-06
-1.57368e-07
0.00169178
4.10059e-07
-4.02574e-08
3.40767e-07
-1.91154e-07
-3.83068e-06
-4.12897e-08
-0.00536157
-1.31212e-06
-3.16897e-08
-0.00108155
-2.01326e-08
9.18296e-05
0.000529854
-2.52797e-05
3.48597e-05
2.23609e-08
-1.32273e-07
-0.000774737
-4.16382e-09
-2.00419e-07
-3.89001e-08
3.05609e-08
-0.0111733
-0.0042501
-2.83002e-07
-0.00047159
1.69372e-07
-1.14009e-07
-1.54598e-07
-3.77669e-08
-3.13108e-07
-6.08764e-07
-1.29602e-07
0.00609325
-1.47045e-07
-1.5328e-07
-1.98066e-07
0.0015805
0.00167433
4.66052e-08
-1.54357e-07
-1.81656e-06
-2.22025e-08
-9.18775e-08
0.001166
9.21659e-06
4.2584e-08
-7.69329e-08
-3.47951e-06
-2.86387e-08
4.89872e-07
2.30964e-06
1.66303e-08
0.000995211
-6.29572e-07
7.00511e-08
2.1213e-05
-0.0039922
-9.47119e-08
-0.00417494
-1.21336e-07
-9.55632e-08
2.27929e-08
7.79419e-07
0.00167887
-2.05231e-07
-0.00166418
-2.0712e-07
0.00732945
-0.0192951
1.02712e-08
0.000628368
4.79331e-08
0.000451915
8.3404e-08
-0.00115744
-0.000535956
6.15329e-08
1.24007e-06
-1.60045e-07
-3.49669e-08
-0.0076969
-6.93028e-07
0.000843254
-7.4937e-08
4.89435e-05
-3.36875e-08
-0.00351587
-8.91677e-09
-1.27579e-07
4.48714e-07
-4.97069e-08
-1.82226e-07
-5.40575e-07
-0.00311671
-0.0178688
-9.94263e-08
2.78997e-07
9.86241e-09
-5.13544e-08
-9.42453e-09
-5.40102e-08
-3.87164e-06
-0.00196348
-1.80725e-07
-2.31707e-07
-1.7209e-07
0.00142236
-1.18254e-07
1.3836e-08
-4.24461e-08
-3.17022e-07
-9.85443e-08
-0.000683368
3.59252e-08
-2.64145e-05
1.80298e-07
-0.0237592
0.0014605
-0.000851467
-1.72954e-07
-2.50061e-08
3.60475e-08
-8.69738e-08
1.03517e-07
-0.00145423
-1.16139e-07
-7.9074e-08
-1.94372e-07
-0.000870679
8.56194e-09
-2.76951e-08
-1.4804e-07
-1.99976e-07
-0.00487099
0.000902015
-9.48643e-08
-3.96012e-08
-0.00487846
7.43872e-08
0.000932894
-0.000406973
0.00177785
1.55065e-06
-2.18072e-06
0.0163084
4.56931e-07
7.04938e-09
-5.84284e-08
7.14355e-08
4.56574e-08
-1.99206e-08
4.50195e-08
-0.0084468
0.000791992
-1.50938e-07
-4.35566e-07
-1.30826e-07
-1.18161e-07
-1.18324e-07
-3.05067e-08
-6.02645e-08
-1.69264e-07
-8.11855e-06
-9.28417e-07
-3.83116e-07
0.000902066
-2.38661e-07
-0.00101355
-1.76695e-07
0.0149188
-0.000149354
-7.59693e-07
-8.10228e-05
-1.49686e-05
0.00053799
-7.68635e-08
-8.12072e-08
-8.43896e-08
1.84601e-07
0.0244538
-7.62363e-08
3.83986e-09
-8.02628e-07
-1.38536e-07
5.49902e-08
-1.59716e-07
-2.97247e-08
0.0176882
-2.47073e-08
-3.98424e-08
-3.6646e-06
-1.08517e-07
-7.39268e-07
5.1655e-06
6.58694e-08
8.76886e-08
-5.11301e-08
1.55532e-07
-1.10331e-07
-1.77094e-07
0.000238311
-1.2444e-08
-0.00360426
-1.45502e-07
-0.00408518
2.45081e-07
-2.42127e-06
-1.02809e-07
-4.98501e-07
-2.21124e-07
-1.39362e-09
6.06228e-08
-0.00377173
-5.51616e-08
0.000586815
0.000696123
2.50883e-08
-7.52955e-08
-3.84582e-08
-1.71396e-07
0.000500294
-7.97152e-08
-0.00435109
-5.34172e-05
-1.25258e-07
0.000911576
-1.95475e-07
1.09047e-08
0.00214356
-0.000216814
-1.18735e-08
-6.99666e-08
2.69559e-08
-6.87262e-08
1.34233e-07
-1.34177e-07
-1.11603e-05
-1.88666e-07
-0.000361984
4.90884e-07
-0.00550675
-1.06524e-07
-1.1708e-07
-0.000306603
0.000686066
-9.09409e-08
-9.34172e-08
5.40443e-08
-0.000961529
-5.73923e-08
0.00198584
8.40744e-08
-1.74615e-08
-6.24144e-09
-1.85642e-07
-1.72108e-07
-1.90574e-07
-1.43103e-07
-1.67822e-07
1.11225e-07
-0.00218183
-2.55767e-08
2.42661e-07
-0.00189769
5.1898e-08
-6.89763e-08
-6.43597e-07
-0.0012759
-5.12869e-08
-0.00222018
-1.5362e-08
-1.64198e-07
-1.57018e-08
-0.000320086
-2.67171e-06
-3.88296e-07
-2.01761e-07
9.47847e-09
6.42045e-08
-0.0021013
-1.32728e-07
0.0163145
1.22642e-07
0.00042818
-3.90054e-08
-1.25789e-07
-2.58612e-06
-2.09901e-09
-0.00183053
-2.7859e-08
2.75712e-06
-1.59712e-08
-7.8286e-08
-8.17163e-09
4.49633e-06
0.000549715
-1.78256e-07
-9.23961e-08
3.48884e-08
-3.10631e-08
-1.31078e-07
4.30467e-09
-1.45549e-06
-3.00619e-09
0.010088
-1.10132e-07
0.000747296
-7.21763e-08
-1.69099e-07
-0.000797841
-2.35272e-05
-0.00461138
-7.33029e-08
0.000967866
-6.3213e-08
-0.000788756
3.76695e-08
-9.72538e-07
-3.3442e-08
0.00161537
6.28273e-09
-1.8991e-07
-1.48356e-08
4.19056e-08
-1.22055e-08
0.00420161
0.00772155
0.00205762
-1.05322e-07
2.26791e-07
-1.87439e-07
-8.3019e-08
-1.33707e-07
-1.34122e-07
-4.95578e-08
-7.5731e-07
-1.53728e-08
-0.00139979
-7.72218e-07
-7.36739e-08
1.95021e-08
-0.000818375
-3.04921e-06
1.13964e-08
-1.914e-07
-8.1799e-08
0.000583624
-7.08615e-07
1.76854e-05
2.03445e-07
-1.43254e-06
7.07682e-07
-1.61627e-09
3.262e-08
-1.03857e-06
-1.60768e-07
-7.13359e-08
-0.00670132
-5.45169e-08
0.000379037
-6.703e-09
-2.32472e-05
1.91413e-07
-3.6059e-07
-1.03008e-07
-9.99442e-09
-0.000176107
-1.09025e-07
-0.00080183
3.01569e-10
-1.0574e-08
0.00101135
-4.0965e-08
3.59684e-07
-0.00463716
2.61677e-08
6.47957e-06
-0.00170746
-6.3595e-08
-1.50791e-07
-0.00174434
-2.72921e-08
3.92099e-08
-1.07648e-07
8.40913e-08
-7.53897e-08
-1.40155e-06
0.0244901
1.34077e-07
-1.27881e-07
-0.000304235
-1.73754e-07
0.00015179
2.42906e-07
-1.73467e-07
0.000379578
7.19122e-05
-1.44775e-07
-6.46536e-08
-9.63566e-08
-1.00661e-07
-1.1315e-07
-0.0100188
-7.64567e-09
4.07489e-07
-1.6312e-07
-2.30077e-06
-9.63764e-08
-1.28926e-05
7.06597e-06
8.74488e-08
-0.00218866
-9.82321e-08
-1.43989e-07
4.11298e-08
-0.00268092
-1.47456e-07
-1.41129e-07
-7.18498e-08
-1.24691e-07
2.71579e-08
-2.34159e-06
0.00193912
0.000895672
0.00104391
-2.98208e-08
3.10895e-08
-8.67339e-07
6.26912e-08
-1.26976e-07
-4.4777e-06
-0.00290417
-1.1763e-07
-1.13325e-07
-0.00052363
-2.86317e-08
-2.26286e-08
0.00306655
-1.84715e-06
0.00720739
-1.71936e-08
-1.31429e-07
0.00107563
2.45555e-08
-5.11415e-08
-2.87914e-08
2.95443e-07
-9.88323e-09
-5.76214e-07
-1.17215e-06
-3.25342e-09
-4.24468e-08
0.00100438
1.05311e-08
-1.34872e-07
-6.50407e-08
1.15007e-09
-3.14621e-09
-1.45213e-07
0.00761223
-6.2648e-08
-0.00570414
-1.54599e-07
9.73134e-08
0.000120227
-1.39119e-07
3.04655e-06
3.90328e-10
-1.33493e-07
-1.09619e-09
-1.56768e-06
-4.38823e-08
-7.2139e-08
-3.61158e-08
-9.69407e-09
-6.46045e-07
-1.13198e-07
5.32881e-08
3.0088e-08
-3.81327e-08
3.24013e-09
0.000459825
0.00558034
0.0163932
-0.0113126
-2.33365e-06
-3.48334e-07
-0.00708197
0.0189262
-1.72219e-07
5.36062e-08
-1.36742e-07
-7.56501e-08
0.0255393
-1.10737e-07
-1.68665e-07
-1.59755e-07
5.20033e-08
-4.53899e-08
-4.50772e-08
0.000133211
0.000521994
0.000203959
-1.08998e-06
-2.91746e-08
-3.16685e-08
-2.8173e-08
0.000854016
0.00877066
-9.61891e-08
1.02447e-07
-1.1453e-07
-2.0177e-07
1.2416e-07
-2.12619e-07
-1.92095e-07
-0.00013273
-2.32613e-09
-5.38234e-06
-1.60523e-07
-1.3693e-07
-5.0355e-07
-8.60598e-08
-9.33684e-08
-6.19469e-07
-4.4188e-06
-3.36684e-08
4.31194e-07
-8.83865e-08
-2.46437e-08
-7.39104e-08
-5.32473e-08
0.000241869
-1.2755e-07
-4.67957e-08
2.64817e-08
-0.00216571
1.27665e-05
-1.12566e-08
-4.24876e-08
-1.11709e-07
0.000418793
-7.53639e-07
0.00224323
-5.01857e-07
1.74973e-07
-3.45804e-06
-4.30165e-06
-6.92498e-07
0.000935089
-1.64561e-07
-7.38436e-08
8.27807e-09
1.27435e-05
7.01655e-08
0.000843714
-1.3557e-07
5.35976e-08
0.00104775
-5.05883e-07
3.81862e-08
-2.5616e-06
-9.95659e-08
-2.5484e-09
-2.13003e-05
-7.73474e-08
-1.03199e-07
4.40074e-05
-2.18127e-07
0.000106423
0.0056529
-3.32637e-08
0.000715589
-9.32212e-08
-5.38373e-07
-1.10906e-07
-1.05278e-07
-0.000878876
-3.19963e-07
-1.54869e-07
6.24712e-08
0.00117229
-1.56342e-07
-0.00881372
-0.00946122
-1.18584e-08
-1.36045e-07
-4.44062e-09
0.00723092
-4.64281e-06
-1.11388e-07
6.35791e-08
2.35134e-06
-9.01448e-09
-1.25797e-07
-7.91754e-08
-1.07536e-07
-1.18974e-09
1.18283e-07
-0.00669952
-1.02156e-06
-3.29743e-06
0.000830902
-1.13957e-07
0.000902419
-3.15183e-07
-1.37946e-07
-3.32346e-08
-6.53845e-08
-7.62021e-08
-1.33216e-07
-1.14982e-07
0.000591155
8.3511e-07
-0.00162759
-1.01067e-06
-2.04351e-06
5.31089e-08
-2.12882e-06
0.0021526
-3.30542e-07
8.59998e-08
-1.64825e-07
0.0013226
0.00299928
-5.36733e-07
-3.30913e-06
-3.061e-09
-0.00137919
-1.62217e-07
-1.50864e-09
-1.4964e-07
-1.65976e-07
-1.38751e-07
-1.63646e-06
0.00152757
-1.68018e-08
-2.92983e-05
0.000421605
-0.00105719
0.000581774
-3.48806e-07
-0.00232839
-3.26895e-07
-1.05363e-06
-0.0025031
-7.2172e-08
-1.7058e-08
-1.26496e-07
-2.29707e-08
0.00144719
1.09543e-07
-0.00369006
-1.08396e-07
-1.82077e-07
0.0248168
6.32008e-08
0.000602253
-1.67726e-07
1.89436e-06
-5.48873e-08
1.6831e-09
-0.00492985
2.7203e-07
-1.22354e-06
-1.07375e-07
-1.35869e-07
-7.32609e-06
-1.88205e-06
-2.22654e-08
-8.86523e-08
-0.000124119
-1.45775e-07
1.01391e-06
-8.05125e-09
-1.00823e-07
-1.66336e-07
-2.785e-08
2.09569e-07
-3.48863e-07
-1.56053e-07
0.00220771
3.6462e-09
-4.08406e-08
-1.9417e-07
-0.00198701
1.96271e-07
1.58795e-07
-1.34193e-07
7.55001e-08
-8.64197e-07
-4.37471e-07
1.60443e-05
0.0117133
2.92864e-07
-3.26765e-07
-7.7144e-06
-3.46814e-08
-2.51119e-07
-0.00192382
-1.18338e-07
-2.89529e-06
-0.00545441
-5.03982e-05
0.00219117
0.00127398
-1.74267e-06
5.92127e-08
0.00449821
-1.12903e-07
-1.41489e-08
-1.26712e-07
-5.48359e-09
-1.43205e-06
-1.96325e-07
6.9652e-10
-7.13997e-07
0.000245404
1.55819e-07
-9.49411e-08
-3.37558e-07
-0.0012541
-2.76194e-07
0.000699767
-1.48754e-08
0.000926237
-1.35212e-07
-4.80268e-07
-6.59406e-07
6.11538e-08
0.000758209
-9.98004e-08
-1.14634e-07
4.25997e-08
-3.34754e-08
-0.00236064
-1.87394e-06
-1.59004e-08
-0.00213903
-9.90732e-09
0.000423842
-1.2524e-07
-0.00146113
-1.62897e-07
1.48296e-06
-3.01157e-08
5.72931e-08
-1.16729e-07
-9.88794e-08
-3.47547e-06
-1.19762e-07
-6.97304e-08
-2.31941e-07
-0.00143392
0.000123063
6.96064e-08
0.0134728
-0.00853175
6.43896e-08
0.00079067
-1.09176e-07
-5.53071e-06
-1.1368e-07
1.97518e-08
-1.56589e-08
-4.16401e-07
-0.013875
-5.92717e-06
-4.45677e-07
0.0015011
3.41978e-06
-3.09309e-06
-0.00189005
-7.9522e-08
-5.67008e-07
0.000436756
-1.68332e-07
-6.67943e-07
-0.00906965
-3.1133e-06
2.06829e-08
0.00779489
-9.04441e-09
-0.00104697
0.00637191
-1.45094e-07
-3.76351e-06
6.171e-08
-7.75444e-09
-1.6445e-07
0.000665524
-1.04882e-06
-7.14255e-06
-1.44506e-06
-1.05804e-07
0.00362794
1.50794e-08
-1.88392e-07
3.57971e-08
-9.61235e-07
-7.72012e-08
-7.59349e-09
-7.29283e-09
0.000102528
-8.82111e-08
-1.9834e-07
0.00083769
-1.23764e-07
-8.69292e-08
0.0148367
-1.60783e-07
-2.64955e-07
3.8866e-07
-7.18234e-07
9.33729e-07
5.652e-08
-1.01496e-07
1.2902e-07
3.1244e-07
-1.5893e-07
-1.90644e-07
5.25301e-06
-1.36196e-05
-4.92646e-07
-0.000800694
6.12602e-06
-1.24426e-07
-6.9062e-06
0.0243595
-1.62437e-06
-1.34087e-07
-3.6913e-08
7.95344e-06
1.28875e-07
-0.00439863
-2.81421e-06
-8.52643e-08
0.00105637
-1.45571e-07
-1.57205e-06
0.0238666
7.27047e-08
-5.49299e-08
-3.54974e-08
-1.09419e-07
0.0149308
-3.63885e-05
7.98364e-08
-1.64323e-06
-6.65113e-06
-4.53998e-08
-1.52672e-07
8.78644e-08
-6.05107e-07
-1.39921e-07
-9.03592e-08
0.00137901
6.5165e-08
1.45585e-06
-7.15969e-08
-8.25641e-08
-1.60144e-08
1.11461e-07
-7.3532e-08
-3.4094e-07
-1.11963e-07
-4.06715e-08
-0.00268123
0.00136447
5.46705e-07
0.000908374
-1.2732e-08
-8.96317e-08
-0.00370175
-7.33981e-07
0.0022359
-1.82169e-06
1.5876e-08
-3.00984e-07
-1.31425e-07
-8.54032e-08
-1.31871e-07
-5.14972e-08
-1.39228e-06
-0.00259468
-8.1027e-07
-0.00187619
-9.30135e-08
-1.02134e-07
-3.45241e-08
-3.24502e-06
0.000840798
-1.51196e-06
2.34518e-07
2.95021e-08
0.00105323
7.49284e-08
-8.90468e-08
-1.69385e-07
6.81342e-08
3.30844e-05
-4.54579e-08
-1.7816e-06
-1.32402e-07
6.04996e-07
-6.28526e-08
-0.00301515
-8.13761e-08
-5.52807e-08
2.79562e-07
-9.42805e-08
-2.00756e-06
5.23226e-08
-0.00443159
-2.88346e-07
-1.39119e-07
-0.00467142
9.11241e-08
6.54377e-09
1.43086e-08
-1.23922e-07
-5.75497e-08
-1.75847e-07
0.000493901
-1.76133e-07
-7.17739e-07
-5.44113e-07
-6.17158e-08
0.00102819
-1.37293e-07
1.09542e-07
-1.42621e-08
-1.38826e-07
-1.39793e-07
-4.54055e-08
-6.61593e-08
7.28154e-09
-1.88824e-07
-1.11282e-07
-1.80736e-07
-4.6091e-07
0.0172897
2.68679e-08
8.17019e-09
0.00239264
-1.35498e-07
-3.19653e-08
-1.6295e-07
-3.41513e-06
-4.36409e-08
-6.24818e-07
-0.00689852
-3.50583e-08
-0.00133554
-0.000877386
2.28668e-09
-1.28201e-07
2.17645e-07
-1.57489e-07
0.00632049
0.024413
-0.00265497
-4.89297e-08
1.16675e-07
-1.29877e-07
-6.68335e-07
-1.06837e-07
-1.39345e-05
-1.73526e-08
9.32768e-07
0.000378323
-1.02753e-06
5.28559e-08
-0.0245458
0.000414391
-0.00275119
2.32251e-08
-6.37895e-08
0.00196628
1.15666e-06
-7.49439e-08
-7.01717e-10
-3.0198e-05
-1.34665e-07
-9.7652e-06
-2.66052e-06
-9.46514e-08
-1.31036e-07
-0.00943399
-1.3671e-06
4.76683e-08
-1.89529e-07
-2.76061e-07
-9.02496e-09
-2.5445e-06
-5.75278e-09
-1.44512e-07
6.90914e-08
1.31619e-07
-3.34002e-08
-4.32211e-07
-1.28792e-07
-1.30139e-07
0.0121446
0.000792887
-0.00159643
-1.06812e-08
-1.4723e-07
-1.01559e-06
4.54237e-08
-4.63406e-08
-1.37916e-07
-1.33454e-07
-8.69611e-08
-0.00823886
-3.31301e-07
2.09687e-08
3.55422e-08
-8.34256e-08
0.000291247
-0.00139388
-1.17147e-07
-7.38046e-08
-8.2392e-08
-3.1643e-08
0.000882805
-4.40169e-09
-3.74421e-07
-1.74753e-08
-1.37978e-07
3.48011e-07
-0.000156239
0.000209836
-8.96588e-08
-0.000212938
-0.00250966
-1.28143e-07
-1.98953e-07
-1.47979e-07
-9.63689e-08
-2.40556e-07
-1.48944e-07
-8.06003e-08
-2.4763e-06
-4.02987e-08
4.42502e-07
4.44322e-07
5.64387e-08
-1.33087e-07
0.0186139
7.55003e-08
-3.07617e-07
-2.5236e-06
-8.01783e-08
-0.00368386
-0.00075589
-1.06675e-07
4.48457e-06
0.000321172
1.88574e-06
-7.79931e-08
-9.22219e-08
-2.1083e-08
0.0180123
-1.02111e-07
-7.15332e-08
-5.90419e-08
-1.35297e-06
-2.1085e-06
0.00150676
-3.74658e-08
-7.46731e-11
5.56977e-08
-1.83914e-05
6.89368e-05
-5.30885e-08
-3.63109e-07
-7.42875e-08
8.98968e-09
-4.87167e-08
0.000623477
-6.5013e-07
1.49035e-08
-9.79429e-08
-0.00847355
-1.64354e-08
-7.88119e-08
-1.26282e-08
-1.4681e-06
4.77201e-08
-4.55279e-08
-1.1347e-07
0.0184119
-1.72797e-07
-1.24502e-07
-4.3548e-08
-2.60568e-08
-1.08581e-06
-7.11437e-08
-9.30112e-08
-0.000137033
-0.00350334
2.60827e-08
-2.0299e-08
-4.39818e-07
3.31036e-07
4.20048e-08
-1.39881e-07
-0.000637109
-1.42065e-07
-3.63472e-08
-9.13915e-08
-0.000921746
0.000849102
-3.45958e-06
-2.15518e-07
0.00201044
-0.000459702
-0.0404099
0.000945022
-1.69838e-07
2.25667e-08
-1.06354e-07
-2.4839e-07
1.02664e-08
-1.53499e-08
-2.03201e-07
-7.83294e-07
4.05298e-08
-0.00214821
-1.45815e-07
-0.00310755
-5.34676e-08
-0.00368843
4.79126e-08
-2.17278e-07
-1.04718e-07
-1.08845e-07
-5.57133e-08
-4.09363e-05
-8.26295e-08
-7.50786e-08
-1.85669e-07
-0.00333927
-8.9576e-08
-1.39443e-07
1.90594e-09
-5.0124e-08
0.000433481
-4.24379e-06
-1.68413e-07
-2.32516e-07
-1.24561e-05
-1.49888e-07
-0.00286977
0.000346138
-1.35717e-07
-0.00477133
0.000820174
5.24639e-08
-1.45456e-07
-9.928e-08
-1.91034e-07
-1.83869e-07
-1.23638e-07
0.000829638
-2.15257e-07
-3.87906e-07
-1.79218e-07
-1.17067e-07
2.7318e-07
0.000319788
-0.00121287
0.000233508
-3.93549e-07
0.000543056
-6.83458e-08
0.00883742
-9.66467e-08
-1.52837e-07
-9.08767e-08
-1.05577e-07
-0.00140003
1.25236e-08
-1.73051e-06
4.11141e-08
-1.45892e-07
0.00177592
-0.00487111
-1.10978e-07
-0.0097155
-8.19208e-08
-0.00502663
-6.74825e-08
-0.00453895
0.000578749
-8.6061e-08
-0.00115306
-1.97559e-07
-0.00252028
-4.03094e-08
-1.88775e-07
8.89416e-09
1.71603e-07
-7.08483e-08
6.89176e-05
-1.06488e-07
0.00261545
-1.82695e-06
-0.00253526
-8.11799e-08
-1.06529e-07
-0.000311305
6.58534e-08
-5.85682e-08
3.0097e-08
3.93344e-06
-1.69924e-07
4.41181e-08
0.000966268
7.99076e-08
-9.12937e-08
-1.26761e-07
6.48811e-08
0.00311742
-1.9951e-07
-1.14049e-07
-0.00232426
0.000117436
1.65243e-05
-1.04655e-07
-3.32275e-07
2.31718e-07
-1.27765e-07
-3.64668e-08
-1.25844e-07
-3.8272e-08
-9.22506e-08
8.29369e-09
-1.98725e-07
1.93065e-07
0.00204453
-1.77607e-07
4.11419e-06
-8.03754e-09
-9.29292e-08
0.0224434
4.27271e-07
-8.46161e-08
-9.17085e-08
-0.00309422
-0.00156249
4.50389e-08
-0.000409471
-5.73668e-07
5.91055e-06
-3.5567e-09
0.00191404
-1.30514e-07
1.02525e-07
-4.74597e-08
-1.41769e-07
7.09346e-11
-0.00213756
-9.41095e-08
-0.0038939
-1.85627e-06
0.00033666
-0.00897063
-4.53015e-08
1.71309e-08
0.0256522
-6.97152e-08
7.95981e-06
-6.61446e-08
-1.82574e-06
-6.9805e-08
0.000480967
-0.0024778
0.004455
-9.49575e-08
0.00202185
0.00101053
0.00170159
2.08223e-05
-4.48357e-07
1.16053e-08
2.68412e-08
0.000889456
-0.00467709
2.58924e-07
0.0017765
-1.4089e-07
-1.49851e-08
3.54891e-08
-0.0149711
-2.35498e-07
-0.000658399
-9.32485e-08
-0.0113746
-1.51958e-07
-2.62544e-07
-1.76627e-07
-2.22428e-07
6.40183e-06
-1.81944e-08
-1.64662e-07
-2.6607e-07
-1.05873e-05
-1.44028e-07
-8.8869e-08
-0.00315033
-0.000193652
-9.66532e-08
0.000850514
-1.74306e-07
-6.96236e-08
0.00227738
-0.00180452
-1.06597e-08
2.61705e-05
-9.7979e-08
-7.93954e-08
-4.70473e-07
-0.00324488
-3.673e-08
0.0223375
-1.53827e-07
1.42295e-08
0.000304405
-7.19162e-08
-1.32927e-06
-1.19207e-07
-1.76439e-06
-3.96179e-08
0.0003275
-6.27792e-08
5.40965e-08
-6.16307e-08
-6.15998e-08
-1.05007e-05
-0.00121235
-1.30915e-07
0.00352584
2.23318e-07
0.00311668
-0.0096747
0.00213963
-7.55935e-08
-0.000282272
-0.0021839
0.000153923
-8.82422e-06
5.91521e-08
-6.64041e-08
-9.5617e-08
0.00263218
9.36965e-09
-5.51778e-08
0.00740921
-2.42672e-08
-0.00183413
-1.38344e-07
0.00561833
7.03124e-08
-2.35022e-08
-3.78939e-06
-1.94791e-07
-6.83981e-07
2.39778e-08
-3.43289e-07
-1.49535e-07
0.000282937
-1.04421e-07
3.1775e-08
-0.00161002
0.00112047
-1.58828e-08
-2.09461e-07
-2.20494e-07
-1.29842e-07
0.000137875
-0.00108509
0.000679763
-1.33061e-06
0.000703438
0.023815
-1.12621e-05
-1.43051e-07
-1.03961e-07
-2.40205e-08
-8.87704e-08
-2.1189e-07
0.000846634
0.00251811
-4.82727e-08
-1.79352e-07
6.31104e-08
-7.97827e-07
-0.0090738
-0.00929339
-0.000540043
7.6088e-08
-0.00102601
0.00198853
-3.04792e-08
-0.00210091
-5.27646e-07
-1.50143e-07
-0.00508421
0.001349
-0.000912871
-8.43614e-09
-1.39182e-07
-4.07981e-08
-0.000338623
-7.63263e-09
8.06593e-08
-2.5812e-08
-1.69415e-07
-7.08108e-10
0.00263017
-8.61618e-08
-1.22849e-07
0.00086807
-3.99355e-08
-0.000809786
-3.23669e-07
-8.4359e-05
-3.83382e-05
-9.3156e-08
0.000272545
1.35412e-05
2.7727e-06
9.42822e-09
1.46525e-07
-6.97256e-08
-1.44638e-09
0.000461829
-5.08869e-06
-4.86232e-07
-5.27459e-08
-1.0285e-07
9.14143e-06
-1.40243e-07
-1.17823e-08
4.82672e-08
-9.06548e-08
-0.00339317
-7.83131e-08
0.0221603
0.000661483
4.45486e-09
-8.88703e-08
-0.000778531
-7.49861e-08
-1.3085e-07
4.55614e-06
-1.45117e-07
-1.78586e-07
-7.82854e-07
9.92184e-07
0.00154125
-2.01378e-07
5.39259e-09
-5.11992e-08
-0.0011547
0.000146347
-3.40572e-07
3.6463e-07
2.35663e-08
-7.63304e-08
-1.81306e-07
-1.18749e-07
-3.33353e-06
2.76827e-07
7.89818e-08
-1.50004e-07
-1.32164e-08
4.70737e-08
-7.75068e-08
-5.84384e-08
6.75161e-07
-0.000872041
-0.00958544
-4.41452e-06
0.0225488
1.94695e-05
-1.80482e-07
0.000661879
-0.00423593
0.0198541
-9.96859e-10
-1.16153e-07
5.74458e-07
-0.0129544
-3.15531e-06
1.12592e-06
-0.0105003
-4.76986e-08
-3.15701e-08
0.00367247
-1.21484e-07
-4.73346e-06
-1.39408e-06
2.41194e-08
0.000451362
0.0223773
-1.5667e-08
6.3009e-05
-0.00196965
1.45201e-06
1.05165e-05
6.71139e-08
0.012684
-4.89513e-05
-0.00439652
-1.21892e-07
-2.35519e-07
0.00145776
-1.48676e-07
-1.24226e-07
-7.91183e-08
-5.5882e-07
6.67145e-08
0.000865167
-0.000392372
4.13556e-08
5.51043e-08
4.1866e-08
0.000994317
-4.23062e-07
7.62932e-08
5.69227e-08
0.0254025
1.2637e-09
5.52358e-08
-7.32105e-07
1.35737e-06
-6.77341e-08
-1.42172e-06
1.34003e-06
-9.34394e-08
-3.24963e-06
-5.38457e-08
-7.76304e-08
3.12191e-07
-9.21062e-08
6.4179e-07
-0.00420756
-2.01162e-05
-2.96546e-08
0.000934196
0.00175413
-3.12991e-06
0.000383489
-5.30105e-08
1.032e-07
0.000305276
3.03235e-07
-1.2692e-08
-4.10442e-07
-6.03347e-07
-3.73135e-08
-1.69453e-07
-4.63937e-08
-9.47088e-06
-0.00141853
0.00224059
-0.000777897
-1.36233e-07
2.36167e-08
-5.40105e-08
3.79191e-06
0.000247369
-6.56493e-08
0.0228986
-6.54529e-08
0.000707172
-1.42688e-07
-0.00255988
-2.0822e-09
0.000802027
-0.00169478
-1.64166e-06
-0.00220881
-7.46534e-09
-1.0084e-07
3.86915e-07
0.000220117
-0.000312593
-3.51211e-08
-1.03089e-08
-1.05297e-07
7.00912e-08
-1.25057e-07
7.13279e-09
-7.086e-08
-5.72139e-08
-9.40247e-07
-3.03353e-08
-0.00482544
-3.22931e-08
-0.00276405
-1.14742e-07
-5.94787e-06
0.00189563
2.36735e-08
0.00955763
-6.12933e-08
-2.15435e-07
-1.44962e-07
-1.48484e-09
5.03355e-08
-4.07236e-05
-1.09872e-06
-2.90081e-08
-2.77613e-08
-3.56306e-08
0.0146559
-5.60981e-08
7.59892e-07
-1.13316e-05
-3.63655e-09
-7.61182e-07
7.30336e-08
-6.96858e-10
1.20141e-07
-4.84184e-09
-4.60704e-07
0.00238448
-5.77211e-08
-0.00387938
-3.34395e-09
2.49503e-08
-8.52761e-08
0.000257915
-3.03373e-08
-0.00130533
-9.65826e-07
-1.14476e-09
0.00182124
-1.55843e-06
-0.008247
2.57922e-07
-9.07902e-08
-3.07631e-08
-4.78897e-07
0.0248177
-1.5504e-08
-1.71187e-07
1.74132e-08
-1.22762e-06
2.21303e-06
-0.000177371
0.00292861
0.000681369
-2.0041e-07
0.000718057
-1.43095e-07
-0.00291286
-5.20921e-05
-1.59374e-08
1.75779e-05
-1.34989e-06
-1.62993e-07
1.78923e-07
-3.36704e-08
-6.61059e-08
-4.9652e-08
-2.31747e-09
-0.00303536
2.72448e-05
-4.07154e-06
-0.0205454
-6.12297e-08
-0.00596457
-3.52128e-08
-8.68176e-08
-4.75327e-07
-0.00210687
-1.27193e-07
0.000897308
7.8513e-07
-2.49531e-06
0.000367866
-5.58296e-08
-4.92468e-07
-0.00198726
-7.02853e-09
-1.10872e-07
-1.70038e-05
-3.22527e-08
-5.35448e-08
-2.13403e-08
6.87564e-06
0.00149877
-1.84345e-07
-1.74112e-09
8.55371e-06
0.00154441
-1.06764e-08
-2.25613e-08
0.0120046
-0.00474518
-1.89604e-08
7.6612e-06
-7.0422e-07
-1.18311e-08
5.74296e-07
-1.02092e-07
0.0260115
-8.70297e-08
-0.000187943
0.00310603
0.00252093
-1.83519e-07
-3.15309e-10
-1.14363e-07
-8.53029e-08
0.000989424