/*--------------------------------*- C++ -*----------------------------------*\
| =========                 |                                                 |
| \\      /  F ield         | OpenFOAM: The Open Source CFD Toolbox           |
|  \\    /   O peration     | Version:  v2012                                 |
|   \\  /    A nd           | Website:  www.openfoam.com                      |
|    \\/     M anipulation  |                                                 |
\*---------------------------------------------------------------------------*/
FoamFile
{
    version     2.0;
    format      ascii;
    class       surfaceVectorField;
    location    "600";
    object      ddtCorrDdt0(Uf);
}
// * * * * * * * * * * * * * * * * * * * * * * * * * * * * * * * * * * * * * //

dimensions      [0 1 -2 0 0 0 0];


internalField   nonuniform List<vector> 
27274
(
(-0.000827098 -0.000215631 1.67471e-18)
(-0.000760473 -0.00016095 4.80791e-18)
(-0.000747591 -0.000241509 -2.51474e-18)
(-0.0227771 0.0149189 2.19997e-17)
(-0.0203662 0.0165577 -1.96564e-18)
(-0.0190508 0.0122307 -5.49783e-18)
(5.92942e-05 -0.000104129 -1.47604e-18)
(5.82034e-05 -0.000132687 1.36093e-18)
(5.94516e-05 -0.000110281 5.63549e-19)
(7.83743e-05 -2.38513e-05 2.20341e-19)
(7.31286e-05 -3.73238e-05 1.37535e-18)
(7.51162e-05 -2.8933e-05 -5.62921e-20)
(0.000703445 -0.00116566 7.66443e-19)
(0.000694196 -0.00108854 -1.3092e-18)
(0.000794116 -0.00113612 1.81917e-18)
(0.00733113 0.0176195 -1.25326e-17)
(0.00636234 0.0174988 9.33196e-18)
(0.00676472 0.0186095 2.36539e-18)
(8.09816e-05 -1.64149e-05 -2.20826e-19)
(7.96043e-05 1.07926e-05 -5.23773e-19)
(7.87407e-05 -8.72681e-06 -3.02861e-19)
(-0.00444954 0.00272315 -1.04772e-17)
(-0.00471511 0.00305414 -2.60987e-18)
(-0.00427985 0.0030802 5.59331e-19)
(3.83466e-05 0.000587795 4.6505e-19)
(4.38699e-05 0.000610748 -1.26353e-17)
(0.0393364 0.0095154 -1.45029e-18)
(0.0391895 0.00736086 2.92142e-17)
(0.0367408 0.00925303 -2.34831e-18)
(-0.000137899 -0.000324919 2.98809e-19)
(-0.000121103 -0.000340018 3.08725e-20)
(-0.000128812 -0.000321484 -5.06258e-19)
(-0.0106223 -0.00268038 1.14324e-17)
(-0.011171 -0.00235977 -8.64712e-17)
(-0.0102213 -0.00198605 -1.62987e-17)
(-0.00934432 0.00192607 -4.40159e-18)
(-0.00983035 0.00207395 -7.66927e-18)
(-0.00967438 0.00144216 5.80475e-18)
(3.29019e-05 -0.000159466 9.21365e-19)
(3.46118e-05 -0.000166066 1.32346e-18)
(2.39543e-05 -0.000135321 -4.28693e-18)
(0.000221657 0.000374758 -1.38005e-18)
(0.00023063 0.000353168 -1.05063e-18)
(0.000215976 0.000370045 -5.12696e-19)
(0.000203238 0.000522606 -1.81725e-18)
(0.000207499 0.000525332 6.99867e-19)
(0.0002024 0.000528301 2.69673e-18)
(-0.00856317 0.000883343 -7.62015e-18)
(-0.00793999 0.00119435 -4.26088e-17)
(-0.00807285 0.00100991 -2.56597e-17)
(0.000105246 0.000129153 -3.39614e-20)
(0.000111585 0.000128189 -2.68226e-19)
(0.000102785 0.000139026 -1.30385e-19)
(9.73426e-05 0.0003101 -1.29674e-19)
(0.000104591 0.000331831 -5.60944e-19)
(9.17969e-05 0.000319686 2.25442e-18)
(-0.163193 0.0887915 6.92089e-18)
(-0.16119 0.0883263 -4.31239e-18)
(-0.161087 0.0847737 -9.2036e-19)
(0.000277116 0.000532942 1.23908e-18)
(0.000284376 0.000526631 6.68687e-18)
(0.000277073 0.000541604 8.39175e-18)
(0.000122537 0.000257465 -4.19216e-19)
(0.000121855 0.000262752 -8.49466e-19)
(0.000136651 0.000273442 6.73528e-19)
(0.0429746 -0.00582585 -3.14653e-18)
(0.0386025 -0.00630538 2.58154e-17)
(0.0413599 -0.00512975 1.85864e-17)
(0.000684373 -0.00120432 2.81732e-19)
(0.00064175 -0.00115071 1.11047e-18)
(0.00248022 -0.00242819 1.25593e-18)
(0.00270215 -0.00261181 2.90233e-18)
(-1.84048e-05 0.000133913 -7.95301e-19)
(-1.52759e-05 0.00011448 9.75402e-19)
(-2.20102e-05 8.2465e-05 1.19953e-18)
(-6.76177e-07 0.000469745 2.75069e-18)
(-3.10515e-07 0.000481472 -1.92398e-18)
(6.10013e-05 0.000527923 -8.5726e-18)
(6.91084e-05 0.000549257 -8.09589e-18)
(6.55573e-05 0.000537725 -3.54002e-18)
(-0.0408492 -0.0110391 -7.30317e-18)
(-0.0455839 -0.00605663 -8.18643e-18)
(-0.0448219 -0.00520372 -1.75747e-17)
(5.85413e-05 -0.00015901 -9.29022e-19)
(6.34883e-05 -0.00014843 1.86314e-18)
(6.50879e-05 -0.000126822 -4.8629e-18)
(0.00010067 -0.00100768 -1.47649e-18)
(0.000160182 -0.00101097 1.5777e-18)
(0.000127815 -0.00105327 -2.06639e-19)
(0.00140234 -0.00130527 -1.7779e-18)
(0.00132234 -0.00136187 2.38591e-18)
(0.00144551 -0.00141839 1.7395e-18)
(9.99556e-05 0.000129035 2.08612e-19)
(0.00010737 0.000118982 4.40117e-19)
(2.56272e-05 3.24229e-06 -6.18342e-22)
(1.60373e-05 4.89423e-06 -4.74797e-20)
(1.42772e-05 6.48505e-06 2.31682e-20)
(-0.000787965 -0.00169036 -6.32688e-18)
(-0.00073033 -0.00184172 -1.50495e-18)
(-0.000911759 -0.00181555 1.31023e-17)
(-0.000912703 -0.000202022 -5.78207e-18)
(-0.000889474 -0.000298281 8.22373e-18)
(3.721e-05 0.000325823 4.79896e-18)
(4.078e-05 0.000356773 -2.64815e-18)
(0.00257949 -0.00242212 -2.6593e-17)
(0.00251122 -0.00217203 2.70449e-17)
(0.00234521 -0.00238815 1.6189e-17)
(5.95212e-05 0.000495609 2.01253e-18)
(6.39594e-05 0.00052215 -1.09786e-18)
(-0.000108167 -0.000356133 5.5026e-19)
(-9.49108e-05 -0.000357206 6.10839e-19)
(-9.16337e-05 -0.000374835 5.46116e-19)
(3.0033e-05 -0.000164993 3.15406e-18)
(2.94443e-05 -0.000181965 -2.61491e-18)
(0.00128383 0.000447064 6.68571e-19)
(0.00133061 0.000425776 5.17532e-20)
(0.00129847 0.000392493 -3.40048e-20)
(6.00394e-05 -7.58487e-05 -1.27344e-18)
(5.90764e-05 -0.000102105 -1.60291e-18)
(0.0577325 0.00392635 -3.21624e-18)
(0.0563674 0.00515674 2.80554e-17)
(0.056043 0.00363717 -2.33315e-19)
(-0.000170528 -2.29019e-05 -8.31464e-19)
(-0.00017677 -2.38047e-05 -7.00372e-19)
(-0.000172207 -1.7849e-05 -6.56555e-19)
(0.00259034 -0.00256362 -1.71524e-17)
(0.0027805 -0.00240822 -2.65314e-17)
(-0.0025276 -0.000569522 3.46519e-18)
(-0.00267337 -0.000462177 -2.96878e-17)
(-0.00275207 -0.000688624 9.36607e-18)
(0.000122439 0.000641253 -5.37224e-18)
(0.000140343 0.00065801 6.89856e-18)
(0.000119176 0.000639271 -8.84467e-18)
(-0.00214227 -0.000445231 -1.68987e-18)
(-0.00197647 -0.000516615 -3.36201e-18)
(-0.00197556 -0.000327123 -1.32373e-17)
(9.58473e-05 0.000156022 -6.40459e-20)
(0.000100391 0.000160064 -9.53574e-20)
(0.000101439 0.000151359 5.02404e-19)
(-2.87888e-05 -0.000306917 2.18101e-19)
(-3.69601e-05 -0.000296428 -7.38457e-19)
(-3.99572e-05 -0.000310302 -1.28742e-18)
(0.000144834 0.00030102 6.04797e-20)
(0.000145933 0.000312459 2.15316e-19)
(0.000134837 0.000297675 3.46198e-21)
(-3.76375e-06 -8.68409e-05 -1.94316e-20)
(-1.29397e-07 -8.71585e-05 -1.26884e-18)
(-1.32287e-06 -5.71633e-05 -1.79388e-18)
(-0.00667409 0.0343549 2.09553e-17)
(-0.00923606 0.035718 1.04193e-17)
(-0.0150569 0.0382723 -2.28079e-17)
(3.85608e-06 0.000292763 2.68167e-19)
(8.60434e-06 0.000299227 1.55111e-18)
(1.87648e-06 0.000280201 2.38994e-18)
(1.91745e-05 1.10296e-05 -8.91191e-19)
(2.46237e-05 1.09353e-05 -9.34574e-20)
(8.78132e-06 4.86665e-06 -5.03596e-19)
(0.0377554 0.00908529 2.10153e-18)
(0.0373615 0.0105341 -5.85832e-18)
(0.0390932 0.0100295 -8.49828e-18)
(0.000207558 0.000389238 -2.74879e-19)
(0.000217531 0.000375995 7.65284e-19)
(0.000105352 0.00168833 7.11737e-17)
(8.79908e-05 0.00178206 4.19759e-17)
(0.00014797 0.00169266 2.45293e-18)
(-0.000916996 -0.0054991 -2.7219e-17)
(-0.00127923 -0.00542793 1.44782e-17)
(-0.00103601 -0.00514132 1.67336e-17)
(8.84991e-05 0.00015291 -1.23332e-19)
(9.76155e-05 0.000157817 -1.22312e-20)
(-0.00045638 0.0110103 1.08472e-17)
(-0.000957414 0.0105394 7.50597e-18)
(-0.000261273 0.0102547 -1.32984e-17)
(0.000120483 8.44249e-05 -4.17369e-20)
(0.000118935 9.82456e-05 -1.00983e-19)
(0.000124359 8.24037e-05 6.67582e-20)
(0.000775164 -0.000222195 -5.49135e-19)
(0.000709553 -0.000216573 2.21888e-19)
(0.000731821 -0.000285524 -6.57404e-19)
(-0.0110593 -0.00310999 3.8077e-17)
(-0.0102332 -0.0028493 2.52365e-17)
(-0.000694589 -0.000111101 -2.42121e-20)
(-0.000767412 -8.30038e-05 -2.0785e-18)
(-0.012728 -0.00779006 1.41156e-18)
(-0.0154072 0.00226119 -5.98394e-19)
(-0.00536286 -0.00149166 -3.07997e-18)
(0.000215494 0.000830793 5.58248e-19)
(0.000223196 0.00083434 -9.65095e-18)
(0.000205262 0.000839861 -1.54063e-17)
(1.70651e-06 0.000453104 9.79695e-19)
(9.37399e-05 0.000255632 6.87868e-20)
(8.93834e-05 0.000241572 2.14419e-18)
(-0.00217618 -0.00208418 -1.98723e-18)
(-0.00236243 -0.00205911 -5.6304e-18)
(-0.00219848 -0.00190967 9.54979e-18)
(-5.86174e-06 -2.96348e-05 4.2726e-19)
(-4.18425e-06 -2.7416e-05 -3.93147e-19)
(-4.62176e-06 -2.55141e-05 1.26706e-18)
(-0.000644474 -0.00548317 1.20055e-18)
(-0.000836542 -0.00579401 6.02758e-18)
(5.40734e-05 7.01745e-05 -1.48543e-19)
(4.96514e-05 5.02231e-05 1.04704e-19)
(5.2388e-05 5.95917e-05 2.96265e-20)
(-0.00417806 0.0024127 -1.36811e-17)
(-0.00458388 0.00233838 8.26864e-18)
(7.94125e-05 -2.58304e-05 -7.99565e-20)
(7.79193e-05 -3.92013e-05 -2.47154e-19)
(-0.0500723 0.0539117 -2.71869e-17)
(-0.0498424 0.0543482 -1.04622e-17)
(-0.0460932 0.050905 -2.35946e-17)
(0.00134216 -0.00115153 3.24964e-18)
(0.00132191 -0.0010713 6.34385e-18)
(0.00144331 -0.00112173 4.4772e-18)
(0.0044804 -0.00196031 1.45151e-18)
(0.0047627 -0.00199984 -3.03054e-18)
(0.00467832 -0.00173074 2.54751e-18)
(0.000132086 0.000271787 8.77716e-20)
(0.000128721 0.000262099 1.22665e-19)
(0.000123288 0.000258866 4.75121e-20)
(7.71866e-05 3.96335e-05 1.86154e-19)
(7.94076e-05 3.30356e-05 1.05825e-18)
(0.00499691 -0.00146508 -1.1641e-17)
(0.005145 -0.00146509 -2.06707e-17)
(0.00500844 -0.0010919 2.33113e-17)
(0.000260092 0.000545051 -3.31286e-18)
(0.000259811 0.000521973 1.94278e-18)
(0.000532552 -0.000730003 -1.23448e-18)
(0.000598594 -0.0007795 2.38005e-18)
(0.000495645 -0.00080791 4.84871e-18)
(-1.21491e-05 0.000148687 -7.32208e-19)
(-1.56848e-05 0.000174125 -4.1172e-18)
(-0.00892876 0.00164889 -1.47694e-17)
(-0.00897836 0.00218798 5.75095e-18)
(-0.147208 0.0379844 -9.52791e-18)
(-0.142219 0.0401902 -4.56069e-18)
(-0.138481 0.0400897 7.0769e-18)
(-0.165813 0.0890363 3.29761e-18)
(-0.16363 0.0911929 -2.70076e-18)
(-0.0371224 -0.0161506 -2.25434e-18)
(-0.0361002 -0.0143905 1.04315e-17)
(0.0126242 0.0237227 -8.41424e-18)
(0.0205364 0.0212399 -4.69555e-18)
(0.0166247 0.0221446 7.65665e-18)
(-0.0290102 0.0399929 2.84891e-18)
(-0.0259054 0.0408116 1.33629e-17)
(-0.0250766 0.037842 1.73128e-17)
(-0.000161357 -2.16431e-05 5.41633e-19)
(-0.000163484 -3.08949e-05 -1.04771e-19)
(-5.77291e-06 0.000264827 1.92851e-18)
(-9.97096e-06 0.000244372 1.55048e-18)
(-1.10527e-05 0.000232551 2.72072e-20)
(-0.000147833 -0.000210055 4.6246e-19)
(-0.000143513 -0.000221085 -6.65085e-19)
(-0.000155782 -0.000207969 -6.52143e-19)
(-0.00622258 -0.0844017 -1.92697e-17)
(-0.00513463 -0.079674 -2.52718e-18)
(0.0443709 -0.00650625 -1.63041e-18)
(0.0469333 -0.00539794 -1.41174e-17)
(0.000253916 -5.3284e-06 -6.66869e-19)
(0.000254498 -3.63296e-05 -5.73658e-19)
(0.000261935 -2.50527e-05 1.60562e-19)
(0.00212678 0.000363755 1.89478e-18)
(0.00200401 0.000432575 4.3388e-18)
(0.00215749 0.000507511 4.84462e-18)
(-0.00465233 0.0331544 9.48957e-18)
(4.82128e-07 0.0314539 -3.2796e-18)
(-0.00323083 0.000699917 -8.89636e-18)
(-0.00286001 0.000799197 2.13056e-17)
(-0.00263917 0.000956069 1.17348e-17)
(-0.00928511 -0.0500243 6.391e-18)
(-0.00845043 -0.047435 -1.02197e-17)
(-0.00484133 -0.0546046 5.90535e-18)
(-0.00430622 0.000755006 -1.12127e-18)
(-0.00471965 0.000648017 -2.06191e-17)
(-0.00416946 0.000978859 5.48836e-17)
(-0.000139967 -0.0010441 4.24852e-18)
(-0.000217015 -0.00115348 -1.24762e-17)
(-0.000235597 -0.00102168 -3.98146e-18)
(-0.0166246 0.0453867 -1.10326e-17)
(-0.0181184 0.0460286 3.13544e-17)
(-0.0197601 0.0496502 -4.99346e-18)
(0.000632263 -0.00155048 2.38626e-18)
(0.000654572 -0.00147373 -1.27828e-18)
(0.000741989 -0.00155944 1.57362e-18)
(-0.00779989 0.015938 -1.592e-18)
(-0.00767118 0.0169781 -1.49717e-17)
(-0.0088094 0.0164774 -2.76953e-18)
(-0.0132652 -0.00108137 -1.64483e-17)
(-0.0137187 -0.000931127 -1.19065e-17)
(-0.0146388 -0.000557228 1.15476e-18)
(0.00237595 -0.000998524 4.06912e-18)
(0.00222747 -0.00103016 -4.26581e-18)
(0.00232221 -0.00117864 7.90731e-18)
(-0.000141284 0.00167641 1.4335e-17)
(-0.000289569 0.00168198 1.3882e-17)
(-0.000185704 0.00181887 2.5843e-18)
(-0.000317206 0.00128747 -1.52394e-17)
(-0.000333983 0.00131862 -5.64711e-18)
(5.96314e-05 -0.000157314 1.64997e-18)
(6.07884e-05 -0.00014719 -2.22297e-19)
(6.29762e-05 -0.000137745 -3.92866e-19)
(7.46761e-05 0.000470224 -2.26325e-18)
(6.93843e-05 0.000436774 7.91934e-18)
(8.0069e-05 0.000455055 8.32291e-19)
(-1.68138e-05 8.47418e-05 -1.21352e-18)
(-1.88838e-05 0.000106894 1.01877e-18)
(-1.94948e-05 0.000132953 2.57823e-19)
(9.04867e-05 0.000485129 -9.65757e-19)
(8.29208e-05 0.000498397 -3.74047e-18)
(-0.0463229 0.041733 -2.2931e-18)
(-0.0395663 0.0369257 -2.40474e-17)
(-0.0400177 0.0395986 -4.90308e-18)
(5.81821e-05 1.90208e-05 -1.4581e-19)
(6.06343e-05 1.79983e-05 -1.49722e-18)
(5.63264e-05 2.23729e-05 -3.5647e-19)
(-3.8029e-05 0.00157569 5.20788e-17)
(-3.10463e-05 0.0016364 8.67676e-17)
(-5.09583e-06 0.00165724 -9.9294e-17)
(-0.0537574 0.0566566 -1.54635e-17)
(-0.0497566 0.0535652 -9.21979e-18)
(5.03972e-05 0.00162365 1.71675e-17)
(3.66901e-05 0.00165183 -5.8201e-17)
(2.96144e-05 0.00172386 -8.28072e-17)
(-7.21512e-05 -0.000969912 1.44273e-17)
(-5.49245e-05 -0.00109763 2.28067e-18)
(0.0389725 0.0112457 -5.9941e-18)
(0.0413834 0.00944638 -2.36883e-17)
(-0.00319692 -0.015811 2.95619e-17)
(0.00358766 -0.016427 -8.30109e-18)
(0.00130163 -0.0144954 5.64483e-17)
(0.00137774 -0.00122731 1.73617e-18)
(0.00126803 -0.00118539 3.94738e-18)
(-0.00201556 -0.00201792 1.43782e-18)
(-0.00207372 -0.00223595 -1.94265e-17)
(0.000247896 1.56075e-05 -4.03725e-19)
(0.000255156 2.44115e-05 1.6341e-18)
(0.00243845 -0.000848812 1.39653e-18)
(0.00253492 -0.00100113 -3.5828e-18)
(0.000142202 0.000292618 -1.65043e-19)
(0.00015162 0.000300275 5.4059e-19)
(-5.41598e-06 -9.60853e-05 -8.30945e-19)
(-5.47027e-06 -0.000101265 -2.78763e-19)
(-2.85863e-06 -8.10557e-05 -3.61906e-18)
(0.00781977 -0.00348012 -3.72973e-17)
(0.0112578 -0.00823373 -3.60558e-17)
(0.0121456 -0.000747386 8.83091e-18)
(-0.000128447 -0.000214683 -1.24805e-18)
(-0.000147238 -0.000189812 -3.28519e-19)
(-1.84394e-05 -0.000300552 8.27828e-19)
(-1.82488e-05 -0.000315529 9.45512e-19)
(0.0256447 0.00730838 1.29975e-17)
(0.0259985 0.00667306 -1.56145e-17)
(0.0316553 0.00542885 4.49992e-17)
(-0.000690038 0.00610331 7.264e-18)
(-0.00027939 0.00608063 -4.58361e-18)
(-0.00052037 0.00577189 2.49115e-18)
(0.0022561 0.000324295 -1.22936e-18)
(0.00211871 0.000241483 -9.71901e-18)
(0.000704462 0.000474119 -1.4218e-18)
(0.000671469 0.000490038 6.11386e-18)
(0.000688417 0.000449781 9.99819e-18)
(-6.0924e-06 -9.41747e-05 -4.42626e-19)
(-6.50596e-06 -0.000107243 3.74017e-19)
(0.000207658 0.000357524 2.01592e-19)
(0.00021742 0.000343534 2.92671e-19)
(0.000223339 0.000344674 3.25805e-19)
(-0.000147168 -0.000309667 3.18751e-19)
(-0.000143994 -0.000324827 2.15711e-18)
(6.0335e-05 -0.000201467 2.15636e-19)
(6.11257e-05 -0.000216057 2.21716e-18)
(5.22552e-05 -0.000230643 5.20212e-18)
(0.000193657 -0.00287352 -1.63292e-17)
(0.000240456 -0.00268172 2.18027e-18)
(6.36471e-05 -0.00273969 1.01477e-17)
(-0.0127146 -0.047413 5.89276e-18)
(-0.0091188 -0.0548362 3.60827e-18)
(-0.0248398 -0.0435761 -2.84257e-18)
(-0.0223717 -0.0497676 -1.22634e-18)
(-0.0242213 -0.0469686 -4.1924e-18)
(0.000143046 0.000457194 -1.78499e-19)
(0.000142954 0.000458713 -3.53593e-19)
(0.000143241 0.000474468 -5.14404e-19)
(5.84067e-05 -0.000185384 -8.11779e-19)
(4.27289e-05 -0.000167809 6.56153e-18)
(3.78804e-05 0.00131215 1.16828e-17)
(5.00178e-05 0.00135472 8.4848e-17)
(6.8506e-05 0.00131989 4.32111e-17)
(0.000104642 0.000240259 -1.59122e-18)
(8.84385e-05 0.000206381 -6.92014e-18)
(9.55544e-05 0.00019151 -5.98939e-19)
(4.14848e-05 0.000778473 3.92006e-18)
(5.81373e-05 0.00076022 -7.75912e-18)
(6.92533e-05 0.000790264 1.71125e-18)
(-0.165217 0.0423469 -5.55843e-18)
(-0.16132 0.046216 1.21535e-17)
(-0.160358 0.0415417 1.62993e-17)
(0.00111351 -7.84031e-05 -2.21094e-18)
(0.00117966 -6.2786e-05 1.18167e-19)
(0.00113094 -1.71859e-05 1.28836e-18)
(-0.166697 0.0411421 -1.72253e-17)
(-0.144716 0.0369727 -1.60218e-17)
(0.000653756 -0.000821842 -1.60159e-18)
(0.000706971 -0.000821198 8.04525e-19)
(0.000673083 -0.000857959 4.13718e-18)
(9.91835e-05 0.000273914 1.33288e-18)
(-0.000818187 -0.00162484 -2.95425e-18)
(-0.000710335 -0.00163733 -6.30333e-19)
(0.000107448 0.00163501 -1.69758e-18)
(6.59866e-05 0.00166487 2.56677e-17)
(0.0195922 0.0131456 2.7014e-18)
(0.0186453 0.0137999 1.31448e-17)
(0.0195503 0.0141581 2.51446e-18)
(-3.23525e-06 -3.33551e-05 -1.64916e-18)
(-3.37024e-06 -4.0054e-05 -2.31353e-20)
(-1.15177e-06 -2.88336e-05 -1.1326e-18)
(0.0275425 0.00887336 -3.63167e-17)
(0.0119277 0.00980269 6.20041e-18)
(9.6015e-05 0.00159459 7.05482e-17)
(7.04912e-05 0.00157259 -9.19254e-20)
(-3.76236e-06 -3.76434e-05 7.36353e-19)
(-2.86693e-06 -2.86527e-05 2.44345e-19)
(-0.00241288 0.0107032 1.51582e-17)
(-0.00168205 0.0107431 8.02871e-18)
(-0.00211598 0.0113828 -6.63663e-18)
(0.000220369 0.000208899 -4.53635e-19)
(0.000232759 0.00021893 -1.20609e-18)
(0.000223849 0.00018462 -1.33204e-19)
(3.45046e-05 0.000186502 -4.78353e-18)
(3.45798e-05 0.000194371 4.65712e-18)
(5.32097e-05 0.000205095 -5.74432e-19)
(0.000324562 0.000683297 -1.24169e-17)
(0.000337481 0.000691471 5.76323e-18)
(0.000332432 0.000679808 -1.02463e-17)
(0.0023779 0.000266559 -1.36566e-18)
(0.00241648 0.000397256 2.57e-18)
(0.0412167 0.0367617 -3.69385e-18)
(0.0422126 0.0347269 1.86551e-18)
(0.0399319 0.035283 1.36768e-17)
(0.000563348 0.00186853 2.44099e-17)
(0.000621089 0.00187526 5.77283e-18)
(0.000556228 0.00182767 -1.15037e-17)
(0.00406948 0.00432571 -3.6245e-18)
(0.00655793 0.00418307 -4.18802e-17)
(0.0081361 0.00423434 -2.12086e-17)
(-0.0014383 -0.00071031 -6.39547e-18)
(-0.00160054 -0.000673473 7.63131e-18)
(-0.00143759 -0.00054562 -2.54915e-18)
(-0.0173424 -0.0029576 4.49716e-19)
(-0.0172253 -0.00396274 -1.05621e-17)
(-0.0163521 -0.00311447 -6.00953e-19)
(8.16594e-05 0.000135698 -2.81371e-20)
(7.81482e-05 0.000149202 -4.8976e-20)
(8.04929e-05 0.000135947 1.45028e-20)
(0.000882876 0.0815585 -1.22621e-18)
(-0.00235366 0.0808901 5.29256e-18)
(-0.00305132 0.0691939 1.86508e-17)
(0.0463992 -0.00699167 2.5896e-17)
(0.0483865 -0.00684127 3.61066e-18)
(0.0502174 -0.00663107 3.48014e-18)
(-8.72429e-05 -0.000328642 -6.14987e-19)
(-9.75212e-05 -0.000307248 -6.23401e-19)
(-0.000118158 -0.000310444 3.57567e-19)
(-9.58315e-05 -0.000321617 3.06759e-19)
(-9.54966e-05 -0.000342857 1.16613e-18)
(-0.000116253 -0.000319443 7.10576e-19)
(0.000185763 0.000523608 -1.53199e-18)
(0.000193884 0.000503404 -1.07116e-18)
(-0.0709803 0.0151954 -1.962e-18)
(-0.0738565 0.0117227 1.8413e-18)
(-0.0683002 0.0109005 -5.395e-18)
(0.0208084 0.00117897 -1.56928e-18)
(0.0202432 0.00213014 6.17311e-18)
(0.019686 0.00111036 9.68048e-18)
(-6.86323e-06 0.000242544 1.07618e-18)
(-6.40035e-06 0.000248471 -4.75601e-18)
(-4.97256e-06 0.000267001 -1.7723e-18)
(0.00716699 -0.00655156 2.48564e-17)
(0.00348452 -0.00515074 1.43326e-17)
(-3.2896e-05 0.00172904 1.22274e-16)
(0.000662091 0.00165943 2.71243e-17)
(0.00050659 0.00203603 3.87506e-17)
(-0.000146733 0.0010571 -2.41853e-17)
(-0.000166691 0.00103566 3.02892e-17)
(-0.000138306 0.00102217 2.45764e-17)
(-0.0174265 -0.0021123 3.92932e-19)
(-0.0181982 -0.00290419 1.2129e-17)
(0.00150999 0.00129211 -5.62166e-19)
(0.00135755 0.00129545 8.18113e-19)
(0.00143914 0.00145951 3.42127e-18)
(6.86622e-05 -9.8054e-05 1.21772e-18)
(6.60561e-05 -0.000111435 5.44071e-19)
(6.56619e-05 -0.000102422 1.02167e-18)
(0.0282524 0.0478175 -6.05212e-18)
(0.0265317 0.0472421 -2.19878e-17)
(0.0262704 0.0498783 -2.67569e-18)
(-0.082925 0.0109731 5.58829e-18)
(-0.0879586 0.0147345 5.74192e-18)
(-0.0813833 0.0164935 1.21341e-17)
(0.0330088 0.00811927 7.98698e-18)
(0.0288792 0.009659 -2.9115e-17)
(0.0268335 0.00884039 1.45985e-18)
(-0.0204716 0.0299127 -5.70126e-18)
(-0.018759 0.0306093 1.98145e-18)
(-0.0191476 0.0287463 4.97759e-19)
(6.36437e-05 0.000587908 -6.58167e-18)
(6.35962e-05 0.000579108 -5.23195e-19)
(6.71229e-05 0.000607385 -6.29021e-18)
(-0.00896832 0.000747768 9.4654e-18)
(-0.00886318 0.000577332 4.68259e-18)
(0.0366568 0.0084373 -9.42806e-19)
(6.55602e-05 -4.45749e-05 3.01223e-19)
(6.43333e-05 -4.51599e-05 1.81267e-19)
(6.89286e-05 -1.29039e-05 -5.99771e-19)
(0.00249062 0.000231767 -2.83017e-19)
(0.0023688 0.000151161 -3.0066e-18)
(-0.0280545 0.0549786 9.24132e-18)
(-0.0273025 0.0513405 -3.08014e-18)
(-0.0307748 0.0544927 1.33859e-17)
(0.000779237 0.000535859 9.64017e-18)
(0.000741504 0.000536698 5.647e-19)
(0.000742696 0.000576944 1.82553e-17)
(9.30259e-05 0.000282466 -4.5579e-19)
(0.000103006 0.000339655 -8.69794e-19)
(0.000107531 0.000326821 8.04543e-19)
(0.0071227 -0.0108022 -1.12248e-17)
(0.0232878 -0.0115957 -2.86273e-17)
(-0.000238428 -0.0135969 1.46335e-17)
(0.00165775 0.00134222 -3.23811e-18)
(0.00158494 0.00116398 8.95003e-18)
(0.00182704 0.00455769 -2.37235e-18)
(0.00153384 0.00444281 1.67419e-18)
(0.00158715 0.00484813 -2.59624e-17)
(-9.92871e-05 -0.000347124 -2.01036e-18)
(0.000738074 -0.000163096 6.08444e-18)
(0.000754019 -0.000200609 4.64579e-19)
(0.00077643 -0.000158963 3.70194e-18)
(0.000160475 0.00063814 -4.64565e-18)
(0.000170709 0.000653961 4.07149e-18)
(0.000170875 0.000651708 -1.25679e-17)
(0.00157299 0.00293355 3.01894e-17)
(0.00105462 0.00297292 5.12066e-17)
(9.18117e-05 0.00281735 4.63011e-17)
(0.0368752 0.00667704 1.69009e-17)
(0.0383744 0.00699808 2.0533e-17)
(0.00410249 -0.0010319 -1.4331e-17)
(0.00570013 -0.00223845 1.80492e-17)
(0.00199373 -0.000953536 4.78311e-18)
(0.000324626 0.000218358 -6.32776e-19)
(0.000317476 0.000259362 2.36155e-19)
(0.000295099 0.000231552 -8.82813e-19)
(-3.8908e-05 0.001519 5.98546e-17)
(-5.24071e-05 0.00155441 6.56201e-17)
(-0.00858464 -5.7069e-05 4.02173e-17)
(-0.0100422 0.000203008 1.42099e-18)
(-0.0109237 -0.000144486 -3.84527e-18)
(-0.00756398 -0.00506728 -8.37804e-18)
(-0.00851766 -0.00546249 -3.78712e-17)
(-0.00927997 -0.00502413 1.131e-18)
(0.0021483 0.00473971 7.50116e-18)
(0.00210412 0.00432834 5.16816e-18)
(0.000191028 0.000368899 -1.31256e-19)
(0.000187332 0.000369629 6.51489e-21)
(0.000615103 -0.000823563 -1.07933e-18)
(0.000643639 -0.000794967 -8.57814e-19)
(-0.166853 0.0892305 -7.6335e-18)
(-0.168539 0.0899496 -3.70075e-18)
(-0.168005 0.0925647 -7.3599e-18)
(0.000130147 0.000443833 -2.40347e-18)
(0.000133536 0.000443993 1.06466e-18)
(7.21877e-05 0.00012319 2.86108e-21)
(7.24804e-05 0.00012183 -2.5703e-20)
(0.00486315 -0.00161961 3.40086e-17)
(0.00452919 -0.00154756 1.05987e-17)
(-0.0481547 0.0687977 -9.82263e-18)
(-0.0264989 0.063268 -1.47366e-17)
(-0.0106583 0.0562304 1.56363e-17)
(-0.164245 0.085323 -1.28538e-17)
(-1.38664e-05 4.25809e-05 -7.45224e-19)
(-1.28916e-05 6.31447e-05 -3.3063e-18)
(0.00110072 -0.000130427 2.84016e-18)
(0.00105637 -7.6866e-05 -3.92551e-18)
(0.00494432 -0.00479694 7.39522e-18)
(0.00452023 -0.00474909 1.28843e-17)
(0.00470558 -0.00512721 1.30271e-17)
(5.18422e-05 -0.000215739 -1.36095e-18)
(5.87684e-05 -0.00023122 -7.1781e-19)
(7.73656e-05 -0.000233407 4.77436e-19)
(0.000474752 -0.000701175 -8.43361e-18)
(0.000523617 -0.000643185 -3.15603e-18)
(0.000216412 0.000325733 1.09125e-19)
(0.000204116 0.000343138 2.176e-19)
(-6.97708e-05 0.00419885 1.38678e-17)
(0.00210426 0.00423608 1.01444e-16)
(9.8595e-05 0.000229604 -2.28507e-18)
(8.1255e-05 0.000210808 -1.35211e-19)
(0.000100496 0.00025821 5.39772e-18)
(-0.0094975 0.00219405 6.32804e-18)
(-0.0105055 0.00192155 2.27655e-17)
(-0.0109156 0.00186726 -1.61281e-17)
(-0.112158 0.0128959 3.88454e-18)
(-0.110323 0.0196328 2.5184e-18)
(-0.118127 0.0176147 -1.11612e-18)
(5.01687e-05 0.00114782 1.54086e-17)
(4.84621e-05 0.00117674 3.05966e-18)
(7.62017e-05 0.00116068 1.41936e-18)
(0.000183778 0.000381884 -1.99533e-19)
(0.000185698 0.000372436 1.08117e-19)
(-5.21255e-06 -8.45475e-05 3.58036e-18)
(-3.42318e-06 -0.000106664 1.34989e-18)
(0.00418942 -0.0019155 -3.03353e-18)
(0.00426088 -0.00217033 1.71183e-18)
(0.000109367 0.000159546 7.80318e-19)
(0.000114012 0.000131886 -2.1465e-18)
(8.94232e-05 0.00012828 -1.12308e-18)
(-0.00830071 0.00227115 -3.19126e-17)
(-0.00744203 0.00236033 3.09394e-17)
(0.000170939 0.000468796 -1.06099e-19)
(0.000169029 0.000467143 4.41137e-19)
(0.000169099 0.000466052 1.33949e-19)
(-1.58393e-05 0.000158379 -5.5023e-19)
(-1.81809e-05 0.000145681 -3.30939e-18)
(-1.77852e-05 0.000117208 -3.65122e-18)
(-1.03035e-05 0.000239986 4.84298e-18)
(-7.17776e-06 0.000218235 5.95721e-18)
(0.00271785 -0.00126083 -3.69877e-18)
(0.00287059 -0.00122402 1.59509e-18)
(0.00283388 -0.00142568 3.35182e-18)
(-0.0192375 0.0639113 -1.37353e-17)
(-0.0152745 0.0646762 -1.52477e-17)
(-0.0216584 0.0670125 2.07386e-17)
(0.00499605 -0.000738707 -2.71347e-18)
(3.0198e-05 0.00169246 1.79592e-18)
(-6.02066e-05 0.00154132 -8.04908e-18)
(-0.0162077 -0.0051152 3.92883e-19)
(-0.015064 -0.00523992 -1.34387e-17)
(-0.0152903 -0.00431979 8.43364e-18)
(0.000119331 -0.00115542 -8.11389e-20)
(0.000105211 -0.00109284 4.4031e-19)
(6.31631e-05 0.000107729 -1.16856e-20)
(6.79305e-05 0.000118691 2.41721e-20)
(6.96927e-05 0.000129116 2.63592e-20)
(0.000108638 0.000276304 1.73109e-18)
(8.74669e-05 0.00021713 -6.84413e-19)
(0.000108886 0.000248876 5.67163e-18)
(-0.106703 0.0111265 6.98649e-18)
(-0.11375 0.00722821 -3.65938e-18)
(0.013697 -0.0119055 3.96556e-18)
(0.0243293 -0.0144471 -2.7565e-17)
(0.0287863 -0.00627499 2.9716e-17)
(-2.83891e-05 0.00149349 -2.15485e-18)
(1.48229e-05 0.00147093 -3.02295e-17)
(8.14328e-05 0.00155776 7.71251e-17)
(0.0205103 0.0122418 -4.01949e-18)
(0.0192515 0.0121377 -7.89334e-18)
(0.000208528 0.000233575 -1.75305e-19)
(0.00019547 0.000194317 3.54106e-19)
(0.000717426 -0.000125615 -1.0714e-18)
(0.000701352 -0.000163898 -2.04306e-18)
(0.000271692 0.00210664 9.49116e-18)
(0.00020736 0.0022274 -1.14008e-17)
(0.000309905 0.00221024 -2.19595e-18)
(0.00180036 0.00137259 2.05955e-18)
(0.00172923 0.00152037 -7.73096e-19)
(-0.00577463 -0.00534502 -2.66435e-17)
(-0.0041318 -0.00522225 -2.71554e-17)
(8.81956e-05 0.000188045 2.17064e-18)
(9.15744e-05 0.000216806 8.06175e-19)
(9.62514e-05 0.000228212 6.70035e-19)
(-0.0116004 0.00163059 5.01231e-17)
(-0.011741 0.00147068 1.48144e-17)
(-0.0110572 0.00178875 4.63977e-17)
(-0.099686 0.0836217 1.01821e-17)
(-0.107653 0.0866966 7.45808e-18)
(-0.0763144 0.0747739 8.58246e-18)
(-0.00257641 0.00999312 -4.66453e-18)
(-0.00303651 0.0106168 2.18678e-18)
(7.24678e-05 1.92184e-05 1.04639e-18)
(7.62748e-05 3.02062e-05 2.36603e-18)
(6.78966e-05 -7.40442e-06 1.38813e-18)
(4.31694e-05 -6.04503e-06 -3.82427e-20)
(3.89518e-05 -5.99162e-06 -4.66457e-20)
(4.08371e-05 -1.71278e-06 -1.27693e-19)
(-0.000626143 -0.000133693 4.32667e-18)
(-0.000625508 -6.15211e-05 3.22762e-18)
(-0.00252705 -0.00220036 -1.73077e-17)
(-0.00271923 -0.00231497 -6.35541e-18)
(-0.00250178 -0.00240371 -5.48161e-18)
(0.00206537 0.00287803 3.64501e-18)
(0.00305667 0.00299547 -5.94196e-18)
(-0.000855516 0.00644174 8.86394e-18)
(-0.00109043 0.0060824 -1.39398e-17)
(2.56457e-05 -6.58148e-05 -4.6536e-19)
(2.75581e-05 -7.5933e-05 -7.83934e-19)
(2.53692e-05 -6.15793e-05 2.06758e-19)
(6.58892e-05 0.000117047 1.79591e-21)
(6.02003e-05 0.000104479 9.57617e-20)
(6.0913e-05 0.000109744 2.37848e-20)
(-2.33748e-06 -9.17986e-05 -3.16566e-18)
(-2.07962e-06 -7.89157e-05 -2.18613e-18)
(-3.59498e-06 -0.000105685 6.42512e-19)
(-0.0170906 -0.00494204 -2.11066e-17)
(-0.0180382 -0.00475055 -2.19774e-17)
(0.00154134 -0.00102026 9.17716e-19)
(0.00163685 -0.000985362 -4.85766e-18)
(0.00154025 -0.00090027 -1.11836e-18)
(-5.92414e-05 0.0011555 -1.70673e-17)
(-8.59364e-05 0.00115839 6.4552e-17)
(-8.14501e-05 0.00113409 5.40519e-17)
(0.000153521 0.000499694 -3.53051e-19)
(0.000157717 0.000512879 -2.49807e-18)
(0.000151117 0.000501811 -1.39333e-18)
(-0.0914184 0.0461855 4.47154e-18)
(-0.109859 0.0474126 -5.53056e-18)
(-0.0563456 0.0416226 2.84614e-18)
(-0.0221208 0.0294634 -6.99301e-18)
(-0.0215565 0.0315425 -6.26635e-18)
(-0.00805015 0.0149329 1.81909e-17)
(-0.00701281 0.0154547 5.68685e-18)
(0.000336975 9.32972e-05 1.22496e-20)
(0.000347682 7.11314e-05 9.43891e-18)
(0.000351879 6.45332e-05 4.19946e-18)
(0.0175384 -0.012992 8.17168e-18)
(-0.00959867 -0.0141071 1.16841e-17)
(0.000137127 0.00028207 -1.4181e-19)
(0.000143172 0.000279787 2.5001e-19)
(5.58437e-05 0.000159087 -3.09177e-18)
(5.65079e-05 0.000128092 -2.59794e-18)
(5.52842e-05 0.000117687 6.05151e-21)
(0.00110946 0.00241382 2.25681e-17)
(0.00142439 0.00278588 -2.6387e-17)
(0.00112162 0.00228863 2.40058e-17)
(6.87347e-06 -1.53204e-06 2.1842e-19)
(1.20456e-06 4.15029e-07 1.16547e-19)
(1.34955e-05 7.83608e-07 8.54618e-20)
(8.16806e-05 -4.72159e-05 -2.47818e-19)
(7.96845e-05 -2.09662e-05 -2.13195e-19)
(-0.00952717 0.0136198 1.67396e-17)
(-0.00872314 0.0141503 2.20296e-17)
(-0.00967575 0.0149445 -1.39553e-17)
(6.77569e-05 -0.000222486 4.94079e-20)
(6.92867e-05 -0.000225546 -1.25442e-18)
(6.47953e-05 -0.000223389 -3.19767e-19)
(-0.0137954 -0.0827801 4.38041e-18)
(-0.0116126 -0.0867193 7.63911e-18)
(-0.0107262 -0.0918828 -1.05695e-18)
(0.00195149 0.00140191 5.14363e-18)
(0.00185848 0.0012292 -5.09242e-19)
(9.01603e-05 0.000690251 2.49087e-18)
(0.000105968 0.000707172 -5.67863e-18)
(0.000100211 0.000713341 -1.46166e-17)
(1.43398e-05 -3.03712e-07 2.52453e-19)
(3.05178e-06 -4.06005e-06 9.74107e-20)
(-0.00133119 -0.000725477 1.81793e-18)
(-0.00144702 -0.000817915 -3.82956e-18)
(-0.0138395 -0.00220693 -4.17883e-17)
(-0.0134289 -0.00177796 -1.18464e-18)
(-0.0139694 -0.00179131 2.31054e-17)
(0.00150049 -0.0012791 6.7518e-19)
(7.16072e-05 -2.29997e-05 4.01119e-19)
(7.51236e-05 -5.27056e-06 4.57272e-19)
(1.28202e-05 2.6255e-05 -6.34989e-19)
(1.27549e-05 -9.20881e-06 -5.5539e-19)
(1.33128e-05 3.43647e-05 4.70931e-19)
(-0.004758 0.0272406 -1.07127e-17)
(-0.00537916 0.0259583 6.36019e-18)
(-0.00375935 0.0262225 1.8698e-17)
(0.00234958 0.0243649 8.44368e-19)
(0.00584419 0.0237909 6.08462e-18)
(0.00558557 0.0206391 1.06583e-17)
(-3.69757e-06 -8.43006e-05 -7.66925e-19)
(-4.60047e-06 -0.000110567 -2.66985e-18)
(-1.58783e-06 -4.33531e-06 -1.81806e-19)
(-6.17305e-07 -2.77185e-06 -2.58414e-19)