/*--------------------------------*- C++ -*----------------------------------*\
| =========                 |                                                 |
| \\      /  F ield         | OpenFOAM: The Open Source CFD Toolbox           |
|  \\    /   O peration     | Version:  v2012                                 |
|   \\  /    A nd           | Website:  www.openfoam.com                      |
|    \\/     M anipulation  |                                                 |
\*---------------------------------------------------------------------------*/
FoamFile
{
    version     2.0;
    format      ascii;
    class       volVectorField;
    location    "350";
    object      ddt0(U);
}
// * * * * * * * * * * * * * * * * * * * * * * * * * * * * * * * * * * * * * //

dimensions      [0 1 -2 0 0 0 0];


internalField   nonuniform List<vector> 
18758
(
(0.00960342 -0.000716736 -9.87103e-19)
(0.0178029 0.00134117 2.17673e-17)
(-0.000162682 3.06418e-05 2.67779e-19)
(0.114171 -0.000983593 4.0279e-18)
(0.00241113 -0.0282638 8.78658e-19)
(0.0314952 0.00355733 3.68334e-17)
(-0.00870084 -0.000203186 -4.23377e-17)
(0.000111072 0.000182431 1.17104e-19)
(0.00545907 -0.022773 -3.882e-18)
(0.00291062 -5.08246e-05 -6.52784e-19)
(0.00150831 0.00129372 1.85424e-18)
(0.0136474 -0.00109841 -5.36339e-17)
(9.61007e-05 -5.17053e-06 -3.31897e-19)
(0.0195434 0.0419172 1.57402e-17)
(-0.00170794 0.00159274 1.1252e-18)
(0.00460557 -0.010709 2.17539e-17)
(0.0045712 0.0055168 -2.16728e-17)
(0.000174588 1.20765e-05 9.70294e-20)
(-0.000222019 0.000736923 8.45975e-19)
(0.00351654 6.71579e-05 3.73652e-19)
(-0.0426781 -0.0021506 -1.74972e-17)
(3.47557e-06 -0.00010725 -4.53429e-19)
(-0.00257556 0.00112525 8.27012e-18)
(0.000448544 -0.0454276 4.454e-17)
(-0.00118241 0.018979 -4.70671e-18)
(0.000110583 0.000168866 -4.32546e-19)
(0.00849293 -0.0120196 2.25466e-18)
(0.0192688 -0.0252891 3.02234e-17)
(0.0429801 0.00999722 -3.4305e-18)
(0.0132476 -0.0120995 3.84244e-17)
(0.00989063 0.016136 2.66213e-17)
(-0.0552305 5.05909e-05 -5.73565e-18)
(2.81087e-05 -1.81758e-05 -6.22832e-21)
(0.000291244 0.00142714 -1.59647e-18)
(0.0267952 0.0121471 -9.98429e-18)
(5.62626e-05 -0.000766748 5.80034e-18)
(3.1958e-06 -2.66311e-05 1.03788e-18)
(0.000595657 0.000905137 6.2921e-19)
(0.000753936 0.00105026 9.12318e-18)
(0.00554839 0.00465868 2.15504e-17)
(0.000541968 0.000903394 -2.59865e-19)
(0.00185149 -0.0017981 5.10956e-18)
(5.31647e-06 0.000324405 -3.22876e-18)
(0.00232573 -0.000954314 8.71702e-18)
(0.0170881 -0.00443831 3.96492e-17)
(-6.77082e-05 7.18812e-05 7.96195e-19)
(-0.00376186 0.00141594 -2.29519e-17)
(0.00181926 0.00108346 -4.77945e-18)
(0.00284898 -8.286e-05 2.4002e-19)
(-6.02547e-05 0.000229589 -2.40083e-18)
(0.00336556 0.00706236 1.00349e-17)
(-0.037373 -0.0126412 -2.23848e-17)
(-0.000109878 5.85321e-05 1.09063e-18)
(0.00144359 0.001279 3.29787e-18)
(0.0243262 -0.0233199 -1.40894e-17)
(0.0349816 0.00716498 -1.84984e-18)
(9.99212e-06 -3.05292e-05 -1.6725e-18)
(0.00277084 -0.00965883 4.16364e-17)
(0.00064153 -0.000939275 -1.95161e-18)
(0.0226506 0.0420366 -5.61906e-18)
(0.00861032 0.000802052 -3.50853e-18)
(-0.00804001 -0.000323811 1.98775e-17)
(0.00563404 -0.00779136 -2.92333e-17)
(0.00117809 -0.00122303 5.45403e-18)
(-0.000109191 6.15102e-05 -3.07357e-18)
(0.000141232 -0.000150225 1.22801e-18)
(0.00544539 0.00539969 -3.39064e-18)
(3.37913e-05 -2.27604e-05 4.4339e-19)
(0.000510475 0.000846413 -3.33785e-18)
(-0.0373777 -0.0116238 1.92244e-17)
(-0.0319494 -0.0160616 8.97462e-18)
(0.000732492 -0.00146207 2.25905e-18)
(-5.0468e-05 0.000249336 1.90679e-18)
(-0.00674474 -0.02158 5.01029e-17)
(0.000117918 0.000387187 -1.23324e-18)
(0.00065228 -0.000868178 -5.61682e-18)
(0.0320759 -0.0155683 2.58517e-19)
(-0.00419147 -0.028059 -6.64093e-17)
(0.00663268 -0.00508521 2.79382e-17)
(-0.00532596 -0.00103422 9.15154e-17)
(0.0085763 0.0114185 1.78004e-17)
(0.0179055 -0.00311378 -1.41848e-17)
(0.0239566 0.0409489 -1.57961e-17)
(0.0365675 -0.00319624 7.7968e-17)
(0.0340157 -0.0144675 -3.95523e-17)
(0.00240251 0.00214433 -1.23652e-17)
(0.00891242 -0.00283926 8.02425e-17)
(0.00510013 -0.00732219 4.11068e-17)
(-0.00504908 -0.000601758 8.33156e-17)
(0.000682251 -0.000849526 3.36438e-18)
(0.0416683 -0.00288703 -3.10543e-17)
(0.000598117 -0.000932828 1.97968e-18)
(0.00180749 -0.00218964 -5.57736e-17)
(0.00191734 -0.00185749 -1.04841e-17)
(0.0105669 0.0139851 1.72998e-17)
(0.000200176 -0.00210408 9.11342e-17)
(0.0352351 -0.0126143 5.51422e-17)
(0.000120618 0.000402091 -4.08015e-19)
(0.000471765 -0.000521229 2.16946e-18)
(-0.0418794 -0.00309153 -6.24852e-19)
(0.00362972 0.000253186 -3.90575e-18)
(0.0481866 -0.00365054 3.86345e-17)
(0.0144759 0.00213937 3.15622e-17)
(0.00390262 0.00222739 7.95365e-18)
(-0.058711 0.0010594 1.14564e-17)
(0.0160062 -0.0146974 -2.44877e-17)
(-0.0371605 -0.0253967 -8.84409e-18)
(-0.0091748 -0.0296219 4.79422e-17)
(0.00115752 0.00109291 -2.35393e-19)
(0.000307055 -0.00169474 -4.52084e-18)
(0.00155266 -0.00223387 -3.7666e-17)
(0.00225617 -0.00555765 -2.10131e-17)
(0.00015119 7.40926e-05 2.67232e-19)
(0.00106059 -1.4203e-05 8.14165e-19)
(-0.00888599 -0.0206391 6.6566e-17)
(0.0539069 0.00248759 3.90063e-17)
(0.0669546 0.000255419 -5.50655e-17)
(-0.0018054 0.00154249 -2.33194e-19)
(0.00118067 -0.00102697 -7.75035e-17)
(0.00874064 0.01307 -8.86254e-18)
(0.00268251 0.0016133 8.33089e-18)
(0.000284842 -0.000840465 3.71098e-18)
(0.0524337 0.00846827 1.33422e-16)
(0.00539961 -0.0119971 -1.14539e-17)
(0.0147741 -0.000879474 -4.37805e-18)
(0.0161027 -0.00571311 -2.96161e-17)
(0.00442778 0.003627 1.68079e-17)
(0.000213744 -0.0372571 -4.92995e-17)
(0.000581193 -0.00192207 2.93403e-18)
(9.30738e-05 5.8066e-06 1.10326e-19)
(0.00488512 0.00559983 1.65281e-17)
(0.00861275 -0.0115392 6.02951e-18)
(-0.0490563 -0.00105214 1.7111e-17)
(0.00486104 -0.0031497 -5.83355e-18)
(0.00160761 -0.0134978 1.96056e-18)
(0.00167412 -0.00108559 3.84021e-18)
(0.0301506 -0.0151242 -3.56741e-17)
(0.0057549 0.00435999 1.43577e-17)
(0.000471661 -0.000508608 1.22088e-19)
(0.00439716 -0.00601339 -1.05985e-17)
(0.00635791 -0.00527271 -2.83336e-17)
(0.00949447 -0.00674655 1.31907e-17)
(0.000919557 -0.000359483 2.89692e-20)
(0.0467014 0.0034562 -1.47995e-17)
(0.000536615 0.000908123 -6.03669e-19)
(-0.000380786 0.000840501 6.22866e-19)
(0.00277248 -0.00507729 -3.1666e-17)
(-0.045001 -0.00647648 1.42341e-17)
(0.00902766 0.0165524 -2.97037e-17)
(-0.0298403 -0.0402126 3.37157e-17)
(0.0189743 -0.00276927 -8.27088e-19)
(0.038001 -0.00608575 3.54595e-18)
(0.00239916 0.0020004 2.37685e-17)
(-1.51331e-05 -9.04375e-05 -1.22712e-18)
(0.000760517 0.00905663 -5.35409e-18)
(0.00224533 0.00165513 2.19625e-17)
(-0.00126807 -0.00127678 5.35508e-17)
(0.00186728 0.00105783 6.90651e-19)
(0.00102559 -0.000784452 1.73101e-18)
(-1.78656e-06 -4.0144e-05 -2.98926e-19)
(0.000376372 -4.49958e-05 -5.37978e-20)
(0.0255171 0.038601 1.20271e-17)
(-0.000244665 -0.0023007 9.25151e-17)
(0.00101508 -0.000767516 5.04086e-20)
(0.00840963 0.000904694 1.85407e-17)
(0.040315 0.0114123 1.3645e-17)
(-0.00011954 0.000805846 4.40153e-18)
(0.0452791 0.00459426 5.31896e-17)
(0.010607 0.00518938 2.71498e-17)
(0.0273868 -0.00242136 5.01127e-17)
(0.0329764 0.00995655 -2.69638e-17)
(0.000179057 8.74875e-06 2.15055e-19)
(0.000666493 -0.00211979 -1.6593e-17)
(0.0152737 -0.0261594 -4.60216e-17)
(0.0260151 0.037386 5.3563e-18)
(0.0156194 -0.0426676 -3.43875e-17)
(0.021508 0.0044624 -2.64012e-17)
(0.0012145 -0.00122749 -3.35596e-18)
(0.00433858 -0.00598614 8.08814e-18)
(0.000925618 0.000881973 5.29617e-19)
(0.000153672 -2.2774e-05 -3.19467e-19)
(0.0394431 0.000403309 -4.26814e-17)
(0.0535527 -0.00451586 -1.73926e-17)
(-0.000109081 0.000307571 1.20373e-18)
(7.92477e-05 0.00313739 -1.2075e-18)
(0.0678889 -0.00569107 1.84432e-17)
(0.000497233 -0.000690873 -8.17909e-19)
(0.0530538 0.00345856 -4.0863e-17)
(-2.00642e-05 0.000278022 -3.58756e-18)
(0.000447986 -0.000662733 -6.14435e-18)
(0.00511195 -0.00310748 -1.06007e-17)
(0.000602976 -0.0350746 1.19387e-17)
(0.0013909 0.000155579 -2.91234e-19)
(0.00830297 0.0158748 9.74707e-19)
(0.00376252 -0.00140768 1.29255e-17)
(0.00417593 -0.00769258 1.03261e-17)
(0.00356744 8.66719e-05 -2.16612e-18)
(0.0107957 0.00574829 -2.413e-17)
(8.01536e-05 -0.000249572 -2.68142e-19)
(-8.87206e-06 0.000305096 1.75967e-18)
(0.00316014 -0.00623068 -1.38358e-17)
(0.00184622 0.00101909 2.12888e-18)
(0.00388668 0.00103072 -9.02285e-18)
(0.00403179 -0.00325998 1.72489e-17)
(9.20065e-05 -6.44888e-06 5.31208e-19)
(0.0036789 -0.00134112 -9.69477e-18)
(0.0139567 -0.00015061 1.68097e-17)
(-1.15805e-05 -6.70166e-05 1.15796e-18)
(-0.0462393 -0.00260508 9.11598e-18)
(0.00283777 -0.000169055 -4.50468e-19)
(0.000173987 -1.74723e-05 4.57558e-19)
(0.00408945 0.00214653 4.53766e-18)
(0.00110913 -0.00067191 6.5872e-18)
(0.00364372 0.00124186 -6.56649e-18)
(0.00551435 -0.00524051 -1.25305e-17)
(0.00725089 0.00671073 -1.00456e-17)
(0.00568688 -0.00547106 9.41645e-18)
(0.00349174 -0.0103042 2.80471e-17)
(3.02983e-06 0.000231007 -7.41304e-19)
(0.0292881 0.00474521 -2.38786e-17)
(0.00017504 -1.27109e-05 1.71369e-18)
(0.00120401 0.00108015 -3.12124e-19)
(0.0369312 -0.00190746 1.92078e-17)
(0.00190856 -0.0064593 2.91833e-17)
(0.00565295 0.0106057 1.98219e-18)
(0.0138215 0.000685741 -8.12324e-18)
(0.00200123 0.0013719 -1.68188e-17)
(0.00531737 -0.00186017 7.61584e-19)
(-0.000209564 0.000263812 1.62993e-18)
(0.00283832 -0.00299674 -4.27422e-18)
(0.000145659 -0.000158627 1.79174e-18)
(0.00363854 -0.00713377 -2.10568e-17)
(-0.00375964 0.00235578 9.89613e-18)
(0.0387045 -0.0119057 2.00768e-17)
(0.000102038 -6.90719e-06 7.77993e-20)
(0.000486019 -0.000667059 1.85769e-18)
(-0.000208688 0.000259544 -3.81e-19)
(-3.93792e-05 8.81249e-05 -1.50064e-19)
(0.054862 0.00830332 -1.26342e-16)
(0.00315803 0.00158315 -1.14574e-17)
(0.00035275 -0.000194964 7.95858e-20)
(0.0136993 0.00792156 -1.27359e-18)
(-0.0384427 -0.0237817 -1.51479e-17)
(0.0008794 0.00142266 -1.04997e-18)
(-0.0323821 -0.041255 -4.50278e-17)
(-0.015895 0.000234505 8.27672e-18)
(0.0379279 -0.0095421 2.104e-17)
(4.99121e-05 -0.00075257 4.46758e-18)
(0.00905436 0.0125953 2.75438e-17)
(0.00165144 -0.00270708 -5.8736e-18)
(8.59439e-05 -0.000780401 1.27915e-18)
(0.0431929 0.00427397 -7.86473e-18)
(0.00244784 0.00219566 1.61488e-17)
(0.00180081 -0.00274325 -5.42242e-18)
(-0.00107611 0.00127139 -5.24382e-18)
(0.00266562 0.00159532 -7.46129e-18)
(0.047278 -0.0285028 9.84434e-18)
(0.00315381 -0.0105293 -4.91023e-17)
(0.00360625 0.00116926 -3.18052e-18)
(0.00691582 -0.00450237 -1.48472e-18)
(-0.000483891 0.000448666 4.77359e-18)
(0.0110036 0.00173815 -3.16665e-17)
(0.000230312 -8.05491e-05 -1.30938e-19)
(0.00432312 -0.00292798 -2.78031e-17)
(0.00275554 -0.00019559 5.44819e-20)
(0.0375571 -0.000455361 -6.29604e-18)
(0.00601232 0.00260381 -4.81123e-17)
(-9.30376e-06 0.000224202 1.06428e-19)
(0.00106702 0.00108482 6.73111e-18)
(0.0117786 -0.00622587 6.33644e-18)
(0.00102566 0.00106709 9.30232e-19)
(5.7987e-05 0.00301627 -1.74179e-19)
(0.00341547 -0.00282574 5.23026e-19)
(0.0485047 0.0166924 7.29422e-19)
(0.0672001 0.000281686 8.21801e-17)
(0.000869033 -0.000474508 2.1015e-18)
(0.00263207 0.00623022 -8.76705e-18)
(-0.0741403 -0.0223025 -6.57191e-18)
(0.0178589 -0.00142778 1.49453e-17)
(0.00150728 7.62639e-05 -8.21162e-20)
(-7.76853e-06 0.000492338 1.30238e-18)
(0.00259329 0.00134084 -8.18739e-18)
(0.00311184 0.0015955 -8.80913e-18)
(0.000893878 -0.000393858 -8.73879e-19)
(-0.0816708 -0.0527283 -4.79367e-17)
(0.0136669 0.00809062 1.06572e-16)
(0.0472298 0.0656909 -2.28307e-17)
(-0.0332271 -6.14495e-05 -1.06754e-19)
(-0.00232845 0.00182663 -1.05007e-17)
(-0.00010305 0.000261728 -3.17887e-18)
(-0.000165341 3.36845e-05 7.43497e-19)
(0.00577005 -0.00196818 -7.16382e-19)
(0.0140175 0.00673728 -3.17542e-17)
(0.00100591 -0.00214381 2.81861e-18)
(0.00661417 -0.00471249 3.40437e-18)
(-0.000704497 -0.00327452 1.86612e-17)
(0.00267685 0.00124066 2.93787e-17)
(0.0063788 0.0113263 -5.44363e-17)
(-0.000199781 0.000699446 -2.4874e-20)
(0.0340057 0.0576035 8.37513e-18)
(0.034119 -0.00181863 -3.30556e-17)
(-5.73221e-05 7.54811e-05 -7.50375e-19)
(-0.0240805 0.0107814 -8.02687e-18)
(0.00412864 -0.00185403 4.55546e-18)
(0.000527589 0.000859834 2.47925e-18)
(0.00341222 0.00101513 -2.23604e-17)
(0.000123109 0.00139507 9.10383e-18)
(-0.000789785 0.00167123 4.14975e-19)
(6.6496e-05 -0.000784473 -1.62919e-18)
(-0.00910604 0.000128713 5.79648e-17)
(0.0384254 0.0646355 1.58046e-17)
(0.000331762 -0.000234358 -4.72261e-19)
(-0.00986054 -7.78908e-05 -1.4352e-17)
(0.00746961 0.0127408 1.89606e-17)
(0.00526543 0.0101711 1.95704e-18)
(0.000222413 -6.08234e-05 1.78259e-18)
(3.68952e-05 -8.74869e-07 -4.09393e-19)
(0.0578804 0.0474209 -2.39372e-17)
(0.000887855 0.00138287 -3.26516e-18)
(-0.000105075 0.000295415 -2.73578e-19)
(6.05493e-05 0.000555807 6.31372e-19)
(0.000378449 -0.00187543 -6.59373e-19)
(0.0109292 0.00483335 -3.64368e-17)
(-8.19914e-05 0.00161882 -6.63109e-18)
(0.00260086 0.00132177 5.39833e-19)
(0.00315358 0.0015141 -1.00028e-17)
(0.0035349 -0.000112452 1.65006e-18)
(0.00523516 -0.00280118 4.77605e-18)
(-0.000454874 0.000431011 -7.139e-19)
(-1.86214e-06 -8.82115e-05 2.00109e-18)
(0.00349139 -0.0382968 4.14837e-17)
(0.00615655 0.000428127 1.7109e-17)
(0.0025175 0.00656834 8.01754e-18)
(0.121191 -7.00101e-05 -4.66588e-17)
(0.00107354 -0.00218711 -1.25422e-17)
(0.00135486 0.000176948 7.62285e-20)
(8.64595e-05 -6.46273e-07 -4.79132e-20)
(0.033206 0.0582357 -1.26811e-17)
(-0.0212437 0.0126887 3.43891e-17)
(-0.000186751 0.000270394 1.05257e-18)
(0.000173127 -4.45768e-05 -4.63475e-20)
(-0.000164947 0.000267656 1.79205e-19)
(0.00160386 -0.00112514 8.90704e-18)
(0.00509859 -0.00181795 2.57583e-18)
(-0.000845621 0.0179809 -4.77815e-17)
(0.000270692 -0.0007893 2.43002e-19)
(0.00034867 -0.00164134 -1.02466e-18)
(-8.77494e-05 0.000212423 2.33974e-18)
(0.0047398 -0.0113934 1.68407e-17)
(0.0092694 -0.00644446 -7.87405e-18)
(-0.00592118 -0.0038615 -2.71128e-17)
(0.0106235 0.000586801 -5.96699e-18)
(-6.18689e-05 0.00165558 -1.25127e-17)
(-0.0030823 -0.0323293 -3.56312e-17)
(0.0092821 -0.000964125 -9.12493e-18)
(0.00283267 0.00167009 3.07796e-18)
(0.00189687 -0.00289258 1.01253e-17)
(0.00912965 -0.00120708 2.01414e-17)
(-0.0173065 -0.00681355 -3.7427e-17)
(0.0592105 -0.00858087 5.44626e-17)
(0.000119368 -1.88968e-05 -7.96224e-19)
(0.00379667 2.70715e-05 5.15418e-18)
(0.0389918 0.0133538 -1.74799e-17)
(0.0463669 0.0174084 -2.82849e-17)
(0.00235007 0.000232819 -1.80146e-18)
(-8.55717e-05 0.000271277 -2.44197e-18)
(0.00275296 0.000280027 -3.5999e-17)
(7.37225e-05 0.000792686 -9.0523e-18)
(0.00242684 0.00263301 6.95629e-20)
(0.0419084 0.00201931 1.89677e-17)
(0.136959 -0.0121503 -1.61347e-17)
(0.0204387 0.0246532 -1.89845e-17)
(0.00340508 -0.000118291 -2.75871e-19)
(0.00581246 0.00314078 1.21134e-17)
(0.000671025 -0.00109004 6.63961e-19)
(0.00189321 0.000990925 -2.88733e-18)
(0.000677817 -0.000569069 -1.99634e-19)
(0.00081239 0.00106303 -1.24275e-17)
(0.0221737 0.0126765 -1.6337e-17)
(0.00161053 0.00136603 7.35552e-18)
(-0.00934874 -0.00025591 2.38531e-17)
(0.00872605 -0.00742518 1.20728e-18)
(-0.0010221 0.00121619 7.02295e-18)
(0.000318241 -0.000199897 7.4097e-19)
(0.0635591 0.00142337 -2.35184e-17)
(0.0199692 0.0235558 8.76499e-18)
(0.00708404 -0.0227605 2.18759e-19)
(0.000639764 -0.00109742 6.65593e-19)
(0.00615673 0.012627 -5.02693e-18)
(9.70578e-07 0.000476127 -3.56183e-19)
(0.00167951 -0.00179302 1.68794e-17)
(0.00030454 -0.000863055 -4.732e-18)
(3.54423e-06 0.000226381 2.46594e-18)
(0.057336 -0.00234068 9.05259e-17)
(-0.0479456 -0.00269675 -1.2267e-17)
(0.0139666 -0.0115342 1.61185e-17)
(0.00630536 -0.00262878 -4.89991e-17)
(5.48984e-05 -2.50157e-06 -2.5905e-20)
(0.0234543 -0.0183172 -5.3278e-18)
(-0.042449 -0.00696929 1.55092e-18)
(0.00265233 0.00161517 -1.85065e-17)
(0.000155591 8.74052e-05 2.65565e-20)
(0.127452 0.00621928 3.54211e-17)
(0.000173811 0.000611136 1.14314e-18)
(-0.000513251 0.000903842 -1.99142e-17)
(0.000158299 -1.73914e-05 3.15997e-19)
(0.0233006 0.012873 -1.15079e-17)
(0.000322873 -0.000702681 7.99513e-19)
(0.00228715 -0.00103185 -1.22249e-17)
(0.010215 0.00073492 6.53814e-18)
(0.0533387 0.0114167 4.47751e-17)
(3.53819e-05 0.000537948 -4.13769e-18)
(0.00282374 -0.0268601 1.37273e-17)
(0.00471 0.00179408 1.42148e-17)
(0.000222732 -7.13673e-05 -5.69072e-19)
(0.000980281 0.00277779 -1.78854e-17)
(0.000661978 -0.000948586 9.37756e-19)
(0.00017557 -4.06778e-05 2.69593e-19)
(0.00260558 0.00124921 3.26764e-18)
(0.00909382 0.00144849 -5.6576e-18)
(0.00514939 -0.00264137 1.40694e-18)
(-0.00263641 0.00491108 4.00782e-17)
(0.00269755 0.00160922 -6.46568e-18)
(0.000149408 -0.000224145 -1.52778e-18)
(0.0112123 -0.00620134 -7.65217e-18)
(-0.0455724 -0.0127769 -3.29091e-17)
(0.0861038 0.0405472 1.32365e-18)
(0.0353729 0.00900825 -1.34463e-17)
(0.021009 0.0163434 2.77382e-17)
(0.00145842 -2.21749e-05 1.94263e-18)
(3.69751e-06 0.000224435 -1.36276e-19)
(0.000346211 -0.000199073 -6.01104e-20)
(0.00112338 -0.000688282 -3.96081e-18)
(0.0192623 0.0261116 8.78181e-18)
(0.00471753 0.00359324 5.0524e-18)
(0.00153486 0.00594076 -1.87877e-17)
(0.00394822 -0.00178551 -7.99528e-18)
(0.00244756 0.00204257 -7.22418e-18)
(0.072589 0.0171367 -2.35111e-17)
(0.0146832 0.00131503 -3.00496e-17)
(0.000643828 -0.00094684 3.42919e-18)
(0.00307217 0.00147894 8.25094e-18)
(-0.0040296 -0.000691184 -2.51432e-17)
(0.00146371 -0.000586772 4.99555e-19)
(0.137006 -0.00525235 2.27657e-17)
(3.08235e-05 -4.01927e-06 2.97048e-20)
(2.44362e-05 -0.000513124 -1.11135e-18)
(-0.0299096 -0.0323812 -2.66296e-17)
(0.00240353 -0.00162275 -2.73455e-18)
(0.000936 0.00110365 5.43924e-18)
(0.0496561 -0.0257325 1.58275e-17)
(0.0272848 0.0107255 -1.28484e-17)
(0.00566856 -0.00180007 -2.99986e-19)
(0.000424664 -0.00201532 -1.12379e-17)
(0.000653787 -0.000884357 3.92049e-19)
(0.00138666 -0.000691821 8.27515e-18)
(0.0039849 -0.0108088 -1.69945e-17)
(0.00996088 -0.000807308 9.76788e-17)
(0.00246128 -0.00347896 2.54078e-17)
(0.00498077 0.00352636 1.76512e-17)
(0.0192635 0.043655 -3.11357e-18)
(0.0678861 0.0167054 7.36447e-17)
(0.0657688 -0.000115981 3.5618e-18)
(0.020905 0.0411226 -2.47484e-17)
(0.000669857 -0.00150089 -6.39341e-18)
(-0.00283346 0.00348595 -3.92275e-18)
(0.00106747 -8.42038e-05 -1.2705e-18)
(0.0196494 0.0271364 -9.70923e-18)
(0.00160962 0.000930833 -2.18228e-18)
(0.00281339 -0.00203031 4.09873e-17)
(0.00554728 0.0128032 3.69245e-19)
(0.011121 0.015716 2.01801e-17)
(0.00154011 0.00575971 1.06928e-17)
(0.0114551 0.0183198 -9.77728e-18)
(-5.00081e-05 8.69132e-05 1.12705e-18)
(0.00334915 -0.0445967 5.24438e-18)
(-3.61541e-05 0.000264953 2.37107e-19)
(-0.0210263 -0.00526874 4.67844e-17)
(0.000695148 -0.000579684 7.9716e-19)
(0.0132908 -0.0018817 -2.67027e-17)
(0.000216115 -0.00021333 -7.30794e-19)
(0.0489555 0.0565153 5.66211e-19)
(0.00255034 0.00265713 -2.67757e-17)
(0.000186903 -0.000350839 3.89163e-19)
(0.000454262 -0.00050151 -1.09472e-20)
(0.000159087 3.90967e-06 2.13416e-20)
(-0.035285 -0.00385719 -5.87587e-18)
(0.0165312 -0.00464152 2.79612e-17)
(-0.00810689 -0.0194071 -9.8542e-18)
(0.00542194 0.00619401 2.95388e-17)
(-0.000119977 0.00285844 8.76057e-19)
(-9.81435e-05 0.000980236 3.31788e-17)
(-3.62582e-06 -6.06883e-05 -4.03393e-19)
(1.0971e-05 -5.95375e-05 3.21936e-18)
(-0.0370383 -0.0158023 -9.52766e-18)
(0.000456645 -0.000510063 -4.29672e-19)
(6.40766e-05 -0.000346085 -1.70721e-18)
(-0.00125781 -0.00302876 -2.46577e-17)
(0.000113941 -1.08351e-05 6.44485e-19)
(0.00503434 0.00329024 1.30966e-17)
(0.000110841 0.000722662 -3.65592e-17)
(5.69356e-05 -0.000317209 1.55466e-18)
(0.000339085 -0.000720881 -5.15106e-18)
(0.00209478 -0.00191069 -4.38744e-18)
(0.00146046 -0.00059442 8.03473e-20)
(0.0023103 0.00166427 -1.80454e-18)
(-0.0337352 -0.0413612 6.40539e-17)
(-0.0039948 0.00758465 7.19245e-18)
(0.00251847 -0.00336755 -1.7929e-17)
(0.00260524 0.000776782 1.26343e-18)
(0.000140355 -0.0002555 1.71476e-18)
(0.00325642 -0.0136034 -1.00132e-17)
(0.0004672 -0.0016563 2.8283e-18)
(0.00124193 0.00105453 -1.64617e-18)
(0.0111467 -0.0113859 -2.13922e-17)
(0.0599248 0.00230177 -1.13053e-17)
(0.0105557 0.0179272 1.6088e-17)
(0.0571275 0.0439889 -5.6318e-18)
(0.002407 0.000209918 5.05003e-19)
(0.00119787 0.00105626 9.3898e-19)
(0.0599783 0.00323157 4.40017e-17)
(-0.000153284 0.000772695 -1.08871e-17)
(0.0614749 -0.00174754 5.78644e-17)
(0.0127957 -0.00188782 3.28746e-17)
(0.000188172 -0.000331868 -7.17634e-19)
(-0.0334816 -0.0414656 -6.06439e-17)
(-0.00295307 -0.0345594 4.76859e-17)
(0.00286346 8.38614e-05 3.95983e-19)
(6.64122e-05 5.38689e-06 4.08663e-19)
(0.00596091 0.000481209 -1.40799e-17)
(-0.0347253 -0.00224626 5.91669e-17)
(0.000582453 0.00091324 -3.33392e-18)
(0.000462277 0.000791569 -3.8231e-18)
(-0.00169112 0.00170197 -1.53448e-18)
(-0.000717936 0.0016313 5.18195e-18)
(-0.000364318 0.000877887 -8.65312e-19)
(-2.70226e-05 4.07447e-05 1.64013e-18)
(5.00987e-06 -2.90585e-05 -3.12175e-18)
(0.0585302 0.0109718 -1.96542e-17)
(0.00170146 0.00169214 2.6831e-18)
(0.0384896 0.0109301 6.9974e-17)
(0.000233973 -0.000787003 2.43699e-18)
(-0.00314121 0.0046883 -4.03819e-18)
(0.0388231 0.00155756 -2.78366e-17)
(0.000215886 -0.000101668 -1.27932e-18)
(-7.93922e-06 0.000301916 3.76053e-18)
(0.00176185 0.00159878 -9.328e-18)
(0.000101442 -0.000211007 8.10418e-19)
(0.00154959 0.000104188 -1.09084e-20)
(0.000927533 -0.00161019 -2.4677e-18)
(0.000928086 0.000856507 -2.69112e-18)
(0.00747843 -0.00724113 1.87193e-17)
(0.00556682 -0.0113213 5.90395e-18)
(-0.000116401 8.12306e-05 4.39623e-18)
(-0.0364785 -0.00558718 5.47867e-18)
(0.0272756 -0.0201547 1.58269e-17)
(0.00217612 -0.00350774 -4.0945e-17)
(-0.00303771 0.00303579 1.24482e-17)
(0.0169257 -0.016269 -9.3924e-18)
(0.00174125 -0.0018504 -8.81614e-18)
(-0.0039615 0.00719396 2.48268e-18)
(0.00216007 0.00206374 -1.7929e-17)
(-0.0316846 -0.0169434 3.5062e-17)
(0.00166952 0.00165439 -5.07203e-18)
(0.00424346 0.0100187 3.87096e-18)
(0.000988779 -0.000247654 3.09053e-19)
(-0.022777 -0.203604 2.36679e-17)
(0.00340436 0.00169006 3.14069e-17)
(0.00955478 -0.00587797 7.57126e-18)
(0.0188582 -0.00743202 1.60235e-17)
(-0.00838894 -0.000242197 9.33246e-17)
(0.0016939 0.00159565 1.3805e-17)
(0.000761581 -0.000681625 5.75372e-19)
(0.00207068 0.00106446 1.24354e-17)
(0.000575551 0.0187925 -1.84959e-17)
(0.00150328 1.04095e-05 -8.23589e-19)
(0.0141351 -0.000579497 -4.05487e-17)
(0.000811221 -0.00128124 -8.98664e-18)
(-0.0418942 -0.0252602 4.24562e-17)
(0.00159677 0.000205813 9.49686e-20)
(0.000258442 0.000675684 8.5809e-19)
(0.000164888 1.26687e-05 4.42774e-19)
(0.000108928 -1.36044e-05 -3.70179e-20)
(0.0188333 -0.0222901 -3.32908e-17)
(-0.0426492 -0.0238669 7.96616e-19)
(0.000628516 -0.00112753 5.40681e-18)
(0.0371357 0.0413129 7.9989e-18)
(0.00294246 -0.00165416 5.09332e-18)
(0.0859457 0.0334902 -2.57631e-17)
(0.0156141 -0.00583446 -4.61097e-17)
(0.055434 0.0473416 1.02751e-17)
(-0.0142448 -0.00230025 1.95151e-17)
(-0.000690903 0.000658789 2.35287e-18)
(0.0137729 -0.0270761 -1.73286e-17)
(0.00747772 0.016143 4.50419e-18)
(0.000962433 0.000273652 -4.79068e-19)
(0.00575213 0.00510694 1.38971e-17)
(-0.0359438 -0.0142938 3.9156e-18)
(-0.0425641 -0.0356501 1.71377e-17)
(0.000342259 0.00139689 -3.3215e-18)
(0.000257271 -0.00180789 -4.02634e-18)
(0.00102054 9.94353e-05 1.06548e-20)
(-0.000144997 2.2514e-05 6.2363e-19)
(-0.0452693 -0.000266897 -2.06295e-17)
(0.00899461 -0.00670879 1.00453e-17)
(0.0196983 -0.0247632 1.91176e-17)
(-0.0444033 -0.00604441 2.51879e-17)
(0.000553608 -0.00129146 2.5878e-18)
(9.1122e-05 -0.000240866 1.81876e-19)
(0.00485998 0.000240374 -1.08105e-17)
(1.98173e-06 -7.22043e-05 4.68053e-19)
(0.000361245 -5.36749e-05 1.98181e-19)
(0.000874935 -0.00163015 -1.0231e-17)
(-0.00134844 0.00162605 5.89435e-18)
(0.00665248 -0.00775301 -2.3107e-17)
(0.00340514 0.00177724 -4.99044e-17)
(0.00976157 0.00613077 -5.40397e-19)
(-0.0140113 -0.0292798 9.30858e-18)
(0.00469205 0.0035894 -5.76935e-18)
(0.000202456 -0.000255044 1.18324e-18)
(0.00229957 -0.00159196 6.37454e-18)
(0.00436153 0.00607456 2.49344e-17)
(-0.0311615 -0.0225575 -2.30039e-18)
(0.00376206 0.00973945 1.58449e-17)
(0.0216413 0.00177492 4.02817e-17)
(0.00234473 0.00131843 2.33032e-17)
(0.000639888 -0.00113741 -6.55555e-18)
(0.0369906 0.0396663 -1.01346e-17)
(0.00111168 0.0405849 1.12335e-17)
(0.00142672 0.000193606 4.32788e-20)
(-0.00013903 0.000294247 1.858e-18)
(0.00336805 -0.00802411 6.56312e-18)
(0.0441233 -0.00424838 -5.32047e-17)
(0.0104915 0.00623656 2.65925e-18)
(0.00011193 -7.41799e-06 -3.05293e-19)
(-0.0163445 -0.00535424 2.07612e-17)
(-0.0395328 -0.00361566 1.06235e-17)
(0.003084 0.0183048 2.35217e-17)
(-7.22907e-05 0.000216762 -1.28974e-18)
(-0.0066035 -0.000316189 -2.05315e-17)
(-0.00912426 7.94126e-05 2.81989e-17)
(0.00668069 -0.00218037 -6.7615e-17)
(0.00156956 0.00139192 5.03256e-18)
(-6.1487e-06 -0.00071887 -4.98209e-18)
(0.0024082 -0.0103055 -4.23085e-17)
(1.83163e-06 -2.58544e-05 3.69559e-18)
(0.036486 0.0176957 4.26713e-17)
(0.0613413 -0.00258025 2.65239e-17)
(-0.00861249 -0.00468046 -2.2177e-17)
(-0.00776166 -0.000341622 -1.33758e-16)
(0.0155567 0.00442327 -6.87815e-18)
(-0.0329715 -0.00649835 1.08657e-18)
(0.00909708 0.000814613 2.70267e-17)
(0.000935083 -0.000901168 3.93226e-18)
(0.00021136 -0.00178855 -2.418e-19)
(0.0340891 0.00626957 -7.08927e-17)
(0.136646 0.031042 -1.98148e-17)
(-0.00981252 0.000156254 -6.86826e-17)
(0.132404 -0.0125156 -3.30725e-18)
(-0.000199624 0.000773668 -2.07017e-18)
(0.0362956 0.0161573 -1.26944e-17)
(1.55783e-06 -4.56383e-05 -8.18265e-19)
(0.00188787 0.00146499 1.38988e-17)
(0.016646 0.00971804 1.07491e-17)
(0.00361763 0.00664829 -3.96096e-17)
(0.000188032 -0.000363361 2.32374e-18)
(0.00204204 -0.00113715 1.97653e-18)
(0.0232984 -0.0162685 4.52875e-18)
(-0.0360529 -0.00729594 -2.71318e-18)
(0.0316281 0.00720538 -1.47461e-17)
(-0.008848 0.000323771 -2.1255e-17)
(0.00285224 0.00171591 3.72743e-18)
(0.00363905 0.000322858 -6.82546e-18)
(0.0396988 -0.00884139 4.00999e-18)
(0.000361582 -0.00160806 7.5854e-20)
(-1.20037e-05 0.000435692 2.56171e-18)
(0.000320094 -0.000280829 1.05479e-18)
(-0.00195514 0.00365512 -7.99041e-18)
(0.0106488 0.0165885 -1.79452e-17)
(0.000157099 -0.000180592 3.98275e-18)
(0.0155606 0.00960649 1.22084e-17)
(0.000324457 -0.00023977 2.72212e-19)
(8.1009e-05 3.83437e-06 -9.04172e-20)
(0.000170861 -6.98574e-05 2.85098e-19)
(0.0067233 -0.0278119 -4.75919e-19)
(0.000331524 -0.00168174 -4.73727e-18)
(-5.70988e-06 -4.0017e-05 2.05776e-19)
(0.00472615 0.00054918 1.78241e-17)
(0.00316667 0.000649842 -2.69907e-17)
(-0.000118976 8.59421e-05 -5.39706e-18)
(0.0566203 -0.00179306 -1.05869e-16)
(5.30707e-05 0.000798176 -5.01828e-18)
(-0.000484752 0.000475766 -1.11877e-18)
(0.00222364 0.00194512 2.14998e-17)
(0.00274891 -0.00321781 -4.33779e-18)
(-9.32932e-05 0.00298504 -4.7154e-18)
(0.00162542 0.000634505 2.80116e-18)
(0.0207714 0.00107984 -1.82999e-17)
(0.00231068 -0.00355534 8.75468e-18)
(0.00362138 0.000949667 5.37468e-19)
(0.00122848 0.0409905 -8.05424e-18)
(0.00360691 0.0010048 -4.92883e-18)
(0.134465 0.0155086 -3.64913e-17)
(0.000452903 -0.0024386 1.07726e-17)
(0.00875536 -0.00764598 5.33366e-19)
(0.00157348 -0.00247184 3.69777e-17)
(-0.0482787 -0.000233567 2.77942e-17)
(-0.000156034 0.000284715 -2.94374e-19)
(-0.0332932 -0.0156811 -4.52595e-17)
(0.00573005 -0.0426243 -4.62668e-17)
(5.09808e-05 0.00017438 4.12426e-19)
(-0.000663624 -0.0101223 -5.67267e-17)
(0.000178245 -0.000298389 5.74847e-18)
(0.000172721 -9.24934e-05 1.2687e-20)
(0.00303293 0.00166918 1.63088e-18)
(0.000169937 2.59605e-05 1.5926e-20)
(0.00863366 0.00224019 4.36898e-17)
(-0.0306215 -0.0215232 6.95846e-19)
(-3.40288e-05 0.000260783 -1.23104e-18)
(-0.00217937 -0.00113149 2.11699e-17)
(-0.000666352 0.000644087 -3.78191e-18)
(0.00268776 0.00162234 1.77604e-17)
(0.145702 0.0361159 1.42899e-17)
(-0.000125332 7.47882e-05 -2.12712e-19)
(0.0443088 -0.00938993 6.3205e-18)
(0.00193416 0.000179418 7.93312e-19)
(0.000223268 0.000840942 3.07555e-18)
(0.000448917 -0.000611197 -2.53092e-18)
(0.000323009 -0.000313772 -2.21292e-18)
(-0.00833406 -0.00933353 -5.9009e-19)
(0.00293844 -0.00628793 8.48114e-18)
(0.0643594 0.00102882 -9.43577e-18)
(0.00457432 0.00372688 -2.58026e-17)
(0.0370433 0.00357467 -1.53812e-17)
(0.00431962 0.000106477 -5.71704e-18)
(0.000150289 -0.000207561 1.18333e-18)
(0.0268157 -0.0167838 -3.37325e-17)
(-0.00845097 0.000322823 -5.94184e-17)
(-0.00345105 -0.0041714 4.31049e-17)
(0.00344095 -0.00635209 -3.00358e-17)
(-0.00549416 -0.00471802 -2.59834e-17)
(0.00634078 0.017251 1.24494e-17)
(0.00225875 0.00131841 4.38383e-18)
(-0.00916068 -0.00783588 -3.07354e-17)
(0.00154007 0.000601304 1.63798e-18)
(0.0200239 -0.00210386 1.98153e-18)
(0.000102337 -1.53089e-06 9.10056e-19)
(-0.00589618 -0.000462136 -2.2884e-17)
(0.000292748 0.001485 9.39988e-19)
(0.00368629 -0.00607308 1.71005e-17)
(0.00206533 -0.00201745 -1.12166e-17)
(0.000902208 0.00106234 1.02162e-18)
(0.0458453 0.00750859 -2.35208e-17)
(0.000174211 -0.00180844 -4.38619e-19)
(0.000345272 -0.000100577 -2.2989e-19)
(-0.00126405 0.01763 -6.55559e-17)
(0.00193547 0.000117553 -3.97803e-19)
(0.000177092 -6.76117e-05 -1.7992e-19)
(0.00498174 0.00355182 -1.24235e-17)
(0.000275255 0.00221129 -2.97202e-17)
(-0.00878229 -0.010051 5.21359e-18)
(0.00271958 0.0194654 1.96977e-18)
(0.0302175 0.0337308 6.3339e-18)
(0.0627477 0.00149676 -3.10033e-17)
(9.31251e-05 -0.000223431 9.53922e-19)
(-1.10464e-05 -0.000664886 -1.22033e-18)
(-0.0127278 -0.00668122 -4.93109e-17)
(0.00022491 -0.0001362 8.15683e-18)
(0.0147323 0.00672501 -1.84851e-17)
(0.01656 0.00429113 -2.42108e-17)
(0.00152414 0.00132657 1.5149e-19)
(6.65334e-05 -0.000345184 -2.79937e-18)
(0.00338631 0.000943325 -9.05637e-18)
(2.69147e-05 -0.000323464 4.12872e-18)
(0.000214379 0.000810111 2.7102e-19)
(0.0017545 0.0034906 -9.43793e-18)
(0.0145445 0.00697558 1.1129e-17)
(0.0095188 0.00640131 2.46653e-17)
(0.00362703 -0.00824262 -7.01159e-17)
(0.00548511 0.00251572 -1.19232e-17)
(0.000117547 -0.000352888 -1.05625e-18)
(0.00925248 0.00755476 -4.98242e-17)
(0.0191211 0.0022621 5.30361e-17)
(0.000298703 -0.000236544 -1.3463e-19)
(0.0170378 0.0107372 -1.32218e-17)
(0.00124905 0.00161596 1.66957e-18)