/*--------------------------------*- C++ -*----------------------------------*\
| =========                 |                                                 |
| \\      /  F ield         | OpenFOAM: The Open Source CFD Toolbox           |
|  \\    /   O peration     | Version:  v2012                                 |
|   \\  /    A nd           | Website:  www.openfoam.com                      |
|    \\/     M anipulation  |                                                 |
\*---------------------------------------------------------------------------*/
FoamFile
{
    version     2.0;
    format      ascii;
    class       volScalarField;
    location    "350";
    object      ddt0(omega);
}
// * * * * * * * * * * * * * * * * * * * * * * * * * * * * * * * * * * * * * //

dimensions      [0 0 -2 0 0 0 0];


internalField   nonuniform List<scalar> 
18355
(
0.954128
-7.50937e-07
-0.0184022
-2.61409e-07
0.00107769
-0.453537
4.70639e-05
0.00325215
1.12429e-05
0.00275397
0.000333465
0.00678736
0.00689756
1.19118
2.51327e-06
-2.12198e-06
-2.3976e-07
0.000171396
0.0187467
-9.97039e-05
-0.00927791
-1.82219e-07
-1.10824e-07
-0.357
-2.213e-08
5.59875e-05
5.04761e-05
-1.10998e-06
1.26966e-05
0.000411928
0.153797
-0.00111959
-5.01279e-06
8.50853e-07
1.00983e-06
-1.17203e-05
-0.000342255
-6.76377e-06
0.000449803
1.74565e-05
-2.7868e-06
0.000377904
3.89233e-07
-5.23087e-07
-7.04723e-07
-0.0154211
-3.15055e-07
6.88552e-08
0.232761
-7.49489e-06
-3.72662e-06
0.166007
-1.65708e-05
0.0124341
-1.58034e-07
-9.78666e-05
-1.96163e-06
0.28355
6.26468e-05
-0.656926
6.73953e-07
0.00565136
0.0122506
-1.76044e-05
-0.00253081
-3.43617e-06
-6.67118e-05
-0.000355177
1.28215e-06
-0.0503882
6.51421e-06
-2.03526e-07
-0.000445518
0.00020505
-0.000486019
1.49986e-06
0.0386678
1.52321e-06
6.4519e-06
0.0189484
-5.66886e-05
-0.26372
1.43943e-06
-8.24654e-05
-0.00292636
4.29013e-06
5.3437e-06
-0.00194526
3.56414e-07
-0.00197559
1.0833
-0.00652451
-0.351083
-4.36064e-06
-0.159078
0.00012976
1.33019e-06
-3.60887e-05
0.00119366
5.83751e-06
-0.00262675
5.4569e-06
-3.24359e-06
1.06174e-07
-6.04346e-05
-2.04201e-06
-0.00231465
-0.128511
-0.00105026
-1.557e-06
-1.43131e-06
-8.20697e-06
0.000253093
-4.60531e-05
-0.0333418
0.000108816
5.54946e-06
-0.0449922
1.36783e-05
-5.73149e-05
-0.0241298
-0.00621242
1.07255
-0.0025875
-0.0982398
-0.0194006
5.04555e-05
-2.02784e-07
1.99692
-8.33861e-07
1.37747e-06
0.0963247
2.46292e-06
0.00400442
-0.00444977
-9.1472e-07
0.0188224
-0.0650174
-6.59422e-08
-0.00675484
-0.000234707
-0.00722163
1.96294e-06
1.77306
-0.00470855
-1.60007e-06
-1.64445
-5.57413e-08
0.000330982
0.0039051
-9.77585e-07
-5.36943e-05
2.7537e-05
-0.000285114
1.45302e-07
3.84829e-07
-1.15784e-07
3.24974e-06
1.77463e-06
6.83409e-07
0.000222152
2.56928e-06
-1.67803e-06
-0.00470413
0.000290407
-0.00709408
-2.11059
1.9928
-1.52302
-0.00023103
-1.13103e-05
0.00322163
-3.56088e-06
0.314415
-1.83381e-06
-2.71735e-06
-8.24415e-06
4.77994e-07
-3.76732e-05
-0.000343279
6.15319e-06
-0.00868361
1.68997e-06
-1.71368e-06
-0.0554934
1.97771e-06
2.96903e-06
-0.00181664
-1.29806e-06
5.84102e-05
-0.0108046
0.00138162
-1.13418e-06
-5.52927e-07
-1.00246e-06
-0.0600086
-2.3458e-06
2.75253
-9.08222e-07
1.15069
2.11218e-06
-9.41395e-06
0.000498644
5.39402e-06
2.24946
-3.22687e-06
-2.141
-1.68008e-06
-3.75558e-06
-3.13884e-05
6.12798e-06
-0.178469
-0.000440791
3.17522e-05
-4.07377e-07
0.403561
-0.00033511
-0.000187825
-2.31872e-06
6.88616e-07
-0.000882726
-2.83622e-06
-0.00168893
-0.00131501
0.000571016
-4.50426e-05
-2.19676e-06
-0.054934
-0.00706288
-0.000393618
5.90266e-06
-6.62571e-05
-0.00387101
-2.87942e-06
-0.00525791
-0.00613097
-1.03943e-05
-0.0179631
-9.43606e-05
2.2721e-05
-1.09071e-06
-3.16965e-05
0.000110194
-0.000396347
-2.66073e-06
-4.7421e-07
-5.503e-07
-0.10772
-0.460294
1.30161e-05
-9.07218e-05
-0.414221
0.00315819
-0.000723649
2.09141e-07
0.00617261
-9.66469e-05
-7.39871e-07
-8.74361e-05
-1.32332e-07
0.00198386
0.0809714
0.000550152
-0.000139425
0.000518281
-0.00561677
-0.000221926
0.00189697
-3.55863e-07
-4.99257e-07
5.27132e-05
-1.28252e-06
-1.30132e-05
-0.000185663
-3.99125e-07
3.84232e-06
0.000426931
-1.16193e-06
-0.0040119
-0.0130381
0.000473724
6.86269e-06
0.00015434
-9.90707e-07
-0.00196607
-3.42139e-06
-0.000337511
-2.34719e-06
-0.000299713
0.0399678
-4.49116e-06
-3.12861e-05
4.19543e-07
0.000206142
0.00120163
3.75442e-06
-6.20199e-07
-0.00436682
4.80092e-06
-0.00897305
-0.000320927
-0.352874
-0.00185643
0.000946459
5.20466e-05
0.00070163
-1.22877e-05
-7.90092e-05
-0.00013954
-0.000100647
-0.00916678
-2.76573
-2.039e-06
-5.58559e-05
0.00546804
0.000116322
-1.99672e-06
4.12383e-07
-1.01612e-06
0.00130034
-1.09049
0.0359838
-0.0017189
0.00053183
-0.000201091
-0.17356
-1.43076e-06
-3.23551e-06
-0.000196893
-1.74891e-06
-0.000414965
1.86926e-06
0.0146218
-2.19311e-06
-0.278901
-5.25686e-07
1.66107e-05
4.28736e-05
0.00750041
2.94372
-0.000407736
-0.000195359
2.12796e-05
5.74829e-07
-1.53858e-06
4.44292e-05
-0.000819529
1.447e-06
-1.30543e-06
-0.06822
1.4973e-05
5.89291e-07
0.00379338
6.41167e-05
-8.55176e-07
1.04536e-05
-0.000429879
-5.05446e-08
-0.000388821
-4.05614e-06
-1.44056e-06
5.41217e-06
-0.143319
-0.118889
-4.48988e-06
1.77226e-06
0.00106833
-1.217e-06
-6.98684e-06
-0.0663871
-0.134892
0.00089078
-9.45977e-07
-1.23394e-05
0.00710952
-8.58098e-06
0.00234826
-7.39056e-05
-3.24172e-06
0.00130854
-0.000657848
3.53446e-06
-1.24926e-06
0.000176892
1.40593e-06
0.000120431
-1.06624e-06
-0.00824731
8.69027e-05
-5.01362e-05
-4.86778e-06
-1.0618e-06
-3.46404e-05
5.4852e-05
0.0030275
-0.0895084
-0.07511
8.21597e-06
0.00406144
-0.00060315
-6.23613e-07
4.46037e-06
-0.000163664
-1.3397e-06
0.000760949
3.71199e-05
0.000366094
-0.210352
0.0181174
1.78159
0.000232342
3.56357e-07
0.092655
5.01461e-06
-2.2149e-07
-0.00435809
-4.84157e-07
0.000408174
6.04083e-05
-0.00268675
-3.47422e-07
0.00298345
-0.155663
0.000356515
-2.81142e-06
-6.10807e-07
0.000543646
1.29229e-05
8.4799e-06
0.000728083
0.0328681
-4.23071e-08
-0.000135018
0.00307055
-9.08111e-07
3.93677e-05
-0.000384546
0.829145
-0.00136031
1.56797e-05
-1.95124e-05
-0.000232218
7.97881e-07
4.03067e-07
1.32505e-05
0.00896307
-0.253739
-3.13453e-06
4.98432e-06
-5.60453e-07
0.00721386
-0.000874646
-1.74733e-06
0.000606694
-0.00168003
-3.22314e-06
-0.0559084
0.00559251
7.65689e-07
1.43146e-06
-0.00126901
0.00618402
-0.170772
-2.75992e-06
0.202589
-3.34834e-07
-2.89371e-06
-0.0021658
-3.38231e-07
-0.00654514
-0.000476962
-5.98773e-05
0.000227112
-6.56122e-07
0.00662244
2.34131e-05
-0.000127467
1.29133e-05
-2.10815e-06
-5.56766e-06
-2.31614e-06
0.00554296
-0.112601
-0.00320515
0.000177725
3.69154e-06
1.41815e-05
-8.53095e-06
6.70396e-05
-5.36404e-05
2.50489e-06
-1.56599e-06
-0.00193589
-1.22592e-06
-7.05069e-05
-0.770774
1.13578
0.00581184
-1.33113e-06
5.95641e-06
-0.000397925
2.75728e-06
-0.0074453
0.062046
-5.75561e-06
-3.02426e-05
7.45006e-05
-1.82541e-05
-0.000110697
-0.970741
-0.00106455
2.32685e-06
0.0447233
2.00369e-06
2.9293
0.046736
-0.000101255
3.15068e-05
-0.814421
-5.718e-07
0.00228366
-0.00114933
0.00964704
2.42439e-05
-5.1632e-06
-3.35881e-06
0.0281976
-0.128164
0.012665
-0.0929529
1.76399e-05
-3.27352e-06
-8.65032e-05
-7.37329e-07
-8.51517e-05
-0.00510678
0.40206
-0.0240116
-0.281891
-0.000280741
-0.000818161
0.000253552
-7.19274e-07
-1.02069e-07
0.000236154
-0.000204593
-3.46412e-06
-6.99317e-07
-0.381541
8.38466e-07
-0.177504
-0.000146088
0.00486653
0.00667998
6.61196e-08
-4.23018e-05
3.24088
-1.60402e-06
0.1905
-1.08237e-06
-0.00682854
-0.00106843
-2.46127e-06
0.000334657
0.0021418
-0.000198151
6.29608e-06
6.21302e-07
-0.000302912
-0.00010356
0.00487354
-1.22894e-06
0.00560104
5.95761e-07
0.053396
3.6287e-06
-2.69063e-06
-0.00481328
-0.00203215
-0.00319322
-2.47967e-06
-1.28339e-05
2.30088e-05
0.0091006
0.0520577
-0.000160835
-0.00303529
-1.01366e-05
0.000116546
8.27778e-06
-0.00014372
0.198187
-5.43258e-07
-0.0564954
7.76707e-06
-1.052e-05
-0.000167313
-0.00371654
2.14722e-05
-0.00441843
-3.92841e-05
0.000127662
-0.0610272
-1.51857e-06
-7.95546e-07
0.477021
-0.001836
-0.843118
-0.000756269
1.14017e-05
-8.43077e-07
7.24991e-06
0.000206071
3.04862e-05
6.41118e-05
-0.00124591
0.0180948
-2.65608e-06
0.484948
0.649378
0.000280767
-0.0108194
2.17588e-07
-0.0120928
0.0125023
-6.54244e-07
-0.0348294
-0.000161323
-0.450167
0.00346053
4.82896e-06
1.05312e-05
-3.79118e-06
-0.0275852
0.00128038
-5.33635e-06
-8.56834e-06
-0.00133459
2.15206e-06
-2.28975e-05
1.0777e-05
-0.000169767
0.270623
0.188217
0.00677232
0.202101
-0.00201611
0.459331
-3.46351e-05
2.32253e-06
4.79317e-05
-0.000336716
-0.000754961
0.00117958
-3.10848e-06
-0.005606
-6.83473e-07
1.51622e-05
-0.267393
-7.1347e-06
-1.30652e-05
0.00133343
-0.00429573
-5.91263e-07
-3.2036e-07
-0.000158887
-6.10081e-06
-3.86753e-06
-0.000159603
0.000244867
0.0158847
-5.30209e-05
6.26636e-06
-0.00228744
-0.104425
-4.46256e-06
0.236959
-0.0484838
-3.16037e-06
-0.0457981
-4.92e-06
-0.00854559
-2.08667e-06
2.10803e-05
-0.00611198
4.00518e-05
0.919901
-4.70889e-05
-3.50293e-07
-0.12966
-2.02593e-06
-1.03317e-06
-4.10684e-07
2.30122e-06
-1.82961e-05
-0.00169315
1.38159
8.59552e-06
0.166439
8.53503e-05
0.212475
-0.00521622
4.07178e-05
-1.18096e-06
-1.94183e-05
1.2927e-06
0.00696075
1.53147e-06
2.30349e-09
1.73357e-06
-4.38762e-06
-1.63325e-06
-0.0528866
0.000250335
7.27869e-06
-9.76787e-05
-6.2231e-05
0.000201586
-0.00126095
0.0657411
-1.27457e-06
0.00557188
-0.0026007
-2.12087e-06
0.399856
0.25581
-8.87321e-06
0.0878488
-5.72222e-06
-0.00999631
0.000115726
7.12098e-07
-0.000263217
4.60953e-05
0.165536
-9.60389e-06
-8.49846e-05
0.282794
-0.00432682
0.0106149
-1.64756e-06
0.0222173
0.00476749
-0.00875695
-1.31396e-06
-5.31587e-05
-7.01744e-07
3.86849e-06
-2.50998e-06
3.37932e-07
-4.96543e-07
0.127944
0.000331903
2.32183e-06
9.97107e-07
-1.21039e-06
1.5472e-05
-0.00322762
0.00466081
-4.15282e-06
-4.16641e-06
4.43011e-06
3.18568e-06
1.41485e-05
1.61619e-06
-0.00164974
1.28477e-06
1.8525e-06
3.96597e-06
-1.2564e-06
-0.000140054
7.03433e-05
-0.00945445
-0.0069479
-0.000169279
1.50602e-06
0.00457126
3.3953e-07
1.2142e-06
8.73723e-05
0.00289001
0.0002099
6.2699e-06
2.00664e-06
-1.06775e-06
0.000284909
1.12227e-06
0.000261903
1.43559e-06
4.28203e-06
-2.76211e-06
-5.04515e-05
1.02612
2.28278e-06
-1.01851e-06
6.04324e-07
0.0105688
0.0177189
-0.000186145
3.08882e-05
-0.000618284
-0.000181656
0.00286875
-2.63518
5.86507e-06
0.012402
-1.07635e-06
-0.435562
-3.16482e-05
-3.39881e-06
-6.01628e-06
-0.162497
6.17102e-06
-0.000189343
-0.00427334
0.00177298
-0.000533318
7.02928e-06
3.08077e-06
-2.50591e-06
-4.27846e-06
-0.000116154
0.00671289
0.0292915
-0.000886186
-6.11248e-07
9.29796e-07
1.09772e-05
-2.98315e-06
2.45154e-06
-5.36054e-06
-2.2025e-05
2.84107e-05
-0.0988311
-4.98065e-07
-1.71407e-06
0.000257379
-9.13722e-07
0.00713526
-0.000695431
-0.00225854
0.00525965
-0.590608
0.000615487
3.3947e-07
1.15817e-06
-4.52742e-06
5.78223e-07
-0.0381077
0.00115328
0.00697279
-2.43607e-06
-1.7165e-06
0.000103873
2.698e-06
-2.74142
0.00965008
1.50052e-06
5.87534e-06
-5.31791e-06
-3.01884e-06
1.86512e-06
9.95292e-06
-0.0311555
4.0259e-06
-8.69463e-06
-1.838e-06
1.40777e-06
-2.67158e-06
3.59241e-06
0.000134646
1.42739e-06
-0.000741097
1.49057e-06
-0.116098
-0.0212181
5.1399e-05
-0.0342906
3.5667e-05
-8.07702e-06
0.00302896
-0.00116546
-2.87673e-07
5.95938e-07
3.35769e-08
0.000174165
5.46671e-06
0.000630153
-0.0504326
5.36746e-06
3.03212e-05
5.70032e-08
-0.262535
0.00442668
7.52386e-06
-2.94653e-06
-0.000206306
-0.00181668
-1.23397e-06
0.0005742
1.0673e-06
-3.2376e-06
-0.000171162
-0.000480964
-0.281995
-0.00341091
-0.00254428
1.33958e-07
-0.0156583
-0.00310285
-0.000254833
-4.88923e-06
-0.00307016
6.79874e-07
0.0867472
0.00525555
-1.42251e-06
6.74443e-07
-3.9144e-07
-5.26746e-05
5.99677e-08
0.0190397
-0.00978754
-5.35746e-07
6.28047e-06
2.37028e-05
-2.578e-05
-5.68887e-06
-4.69644e-06
0.00621335
4.26556e-05
-8.34451e-06
-0.0121178
0.00548166
0.00516107
7.70984e-07
-2.10338e-06
-7.47194e-07
0.000343691
-0.000863653
0.00030952
-5.37041e-07
8.18619e-07
-1.82935e-05
0.0240136
-4.59678e-07
-1.02692e-06
-0.00065214
1.17699e-06
-7.93829e-07
-1.9818e-06
-0.0354973
-2.36406e-06
-1.59494e-06
-5.70506e-07
-9.08853e-05
-1.71291e-06
-0.000317357
0.00532056
-1.14279e-06
0.012856
-0.000614707
-0.00547847
4.73774e-05
-7.94009e-07
-0.000274289
-2.23966e-06
-8.92165e-07
-7.69172e-07
-0.0384631
0.0575126
-0.0057261
-0.000327439
0.452634
0.00369022
5.80303e-05
0.00643685
0.0010177
-0.000174003
-4.0935e-06
0.431481
-1.62884e-05
-3.52137e-07
-1.93905e-06
-0.0321897
-0.00675546
2.51713
-1.02287e-06
0.00598249
5.92993e-05
-0.000550829
0.000777652
0.000154961
0.000113102
3.5834e-05
-0.0222297
7.12306e-05
-1.71362e-05
0.000283701
0.028583
-0.0546047
-5.90453e-06
-8.25682e-06
1.41619e-05
-1.59735
2.93766e-06
2.26204e-05
0.477326
-0.000342462
0.000238167
0.000164191
0.00748812
-2.39139e-07
-0.290668
-1.34355e-05
-6.73699e-06
1.03665e-06
-1.43371e-05
-6.11278e-06
3.45997e-07
5.03904e-06
0.0172749
9.006e-07
-0.183289
-0.000285747
-3.58835e-06
-4.05306e-06
0.00540295
-4.60418e-06
5.12258e-06
5.50432e-05
0.112128
0.00386855
3.77923e-05
-2.62184e-06
-0.787972
-1.87526e-07
-0.00213266
-2.56013e-06
1.96259
0.000831775
0.0055991
-0.000292109
7.18994e-06
-0.00624258
0.89071
0.00911609
1.40851e-06
-1.85278e-06
0.00027707
0.195732
4.96487e-07
-0.000771714
-0.00014259
0.00032614
-2.00848e-08
-1.13324e-06
4.58433e-05
-1.55983e-05
-4.28449e-06
0.000227892
-0.000437653
6.43163e-06
0.00805084
0.418388
-1.45878e-05
0.0161107
5.8489e-07
0.00697904
-0.261207
6.07671e-05
-2.02479e-06
-4.71547e-05
-1.95949e-06
-0.212236
-3.06477e-06
2.13287e-06
0.00608538
4.63859e-06
-3.09166e-06
-1.2266e-06
-1.15008e-05
1.5356e-06
0.0408946
-0.000222901
0.0021327
-8.58525e-07
-1.55177e-06
-0.00375428
-2.74747e-06
-0.00272752
2.05429e-06
-2.07382e-06
-1.06102e-05
-0.000115109
-0.0136426
1.47332e-05
-2.82047e-06
0.314976
8.57494e-06
-4.76273e-06
0.000247921
-2.27051
-0.0330049
-2.25453e-06
1.4366e-05
0.198261
-0.0130584
0.686107
1.5738e-05
2.02015e-05
-0.00408294
-4.86999e-06
-0.000889833
7.43768e-05
-0.0315399
8.24539e-05
-1.66398e-06
1.75188e-05
-3.66168e-06
-0.147411
-2.77675e-06
1.18511e-05
0.0196764
0.000352246
-0.0159442
-3.91457e-06
-9.89211e-08
-5.69026e-06
-1.93417e-06
-8.25002e-07
-6.04938e-05
-6.17636e-07
1.94782e-05
-4.64194e-06
6.5122e-06
-0.000914732
0.000347948
9.51794e-05
-9.28245e-06
0.000145428
-3.19836e-06
0.0573265
1.46654e-06
1.75879e-05
-2.51538e-06
-4.25516e-06
1.4233e-05
0.000122492
7.85875e-06
5.46085e-07
4.86145e-06
-1.54147e-06
-0.0908283
0.0986184
1.14207e-05
-0.235404
-0.000343883
5.63396e-06
-4.88732e-06
-1.77272e-05
-0.0528898
-5.1359e-05
5.83446e-06
-2.42951e-07
-1.34747e-06
3.46925
-6.31825e-06
-3.61712e-06
0.0630894
8.85824e-07
1.44137e-06
-0.00062957
-0.0013953
-0.00400016
0.00600559
-0.877452
5.5874e-07
-0.841029
-0.000278719
1.63913e-06
-6.23532e-07
0.000194485
8.60619e-09
-0.000755401
0.000495692
7.90702e-05
6.29503e-06
-0.213567
-0.00921393
0.673301
-0.0438181
0.0239317
-0.00234256
-2.05725e-05
-0.00680473
-0.032597
-9.0877e-08
-0.964844
-1.06092e-06
-2.63803e-05
0.00541336
3.43676e-06
0.0167301
5.20335e-05
-2.69245e-06
4.78754e-05
0.00623588
-2.29635e-06
-0.153633
1.61427e-06
1.68754e-06
-0.0540006
-4.54398e-06
-0.000284674
-6.3716e-06
-9.52657e-05
9.53166e-07
-5.3336e-07
1.346e-06
0.00865887
9.16018e-06
-6.82207e-06
2.27202e-06
-0.000129179
1.32463e-06
-2.675e-05
-0.0162598
3.38418e-06
-0.000142118
-1.78499e-06
-6.88922e-05
0.00111795
3.08229e-07
-8.46837e-06
0.00663069
6.0052e-06
-3.33527e-05
-2.4014e-06
-0.000385537
4.39443e-05
2.41179e-07
-7.62808e-07
-0.00034393
-0.00331126
6.24227e-05
-6.77273e-07
3.30233e-06
1.42366e-06
3.35066e-08
-5.31486e-06
0.000324284
-0.00529228
0.000213041
2.85813e-06
1.11271
-1.44712e-06
7.62034e-05
0.0309596
0.00102191
-3.37997e-06
0.00168157
8.27264e-05
-6.60336e-07
-0.0383773
1.83347e-05
-0.00222268
-1.72899e-06
0.0046124
1.02633e-05
-4.35909e-06
-1.33388e-06
-0.0230672
-0.00368337
5.91921e-06
0.00515554
-1.75605e-06
-2.1828e-06
-9.06758e-07
0.00668718
-1.11394e-05
4.29242e-07
0.000177198
5.10691e-06
9.9952e-08
3.06798e-06
-8.13377e-07
-3.14916e-05
6.80358e-06
-1.44955e-06
0.000119566
-1.25832e-06
0.682195
0.00244875
1.50434e-06
0.000340003
-0.000264431
2.22468e-06
-2.4231e-06
6.73969e-06
3.95613e-06
-0.00029545
-0.000114825
0.000634137
7.61445e-05
1.01126e-05
0.00457059
0.00480433
1.41198e-06
5.17523e-05
0.0054733
-0.000145989
0.00571895
-1.89812e-06
0.000236482
-8.4728e-05
0.000159862
-0.000509721
-0.000140026
1.01499e-07
-0.000796998
-4.99492e-06
-0.000164965
-3.09477e-05
0.00694485
1.48137e-06
-8.57331e-05
-0.0023682
1.78209e-05
-0.028065
0.321082
5.75791e-06
0.000163299
-0.000640635
-4.03209e-06
-0.00142132
3.01092e-06
-0.000954034
0.471945
0.0493954
-0.00677092
-0.000892064
-0.000316139
-1.00002e-05
-0.000888648
-2.56754e-06
-1.32861
-0.00324075
-9.82688e-06
5.48865e-07
-0.00174972
-0.000716685
1.93375e-06
1.21052e-07
-0.158275
2.33342e-06
6.23329e-07
-0.35686
0.00189706
2.66582e-07
0.00901292
2.09023e-06
0.00210459
0.0020978
5.61559e-07
-1.5336e-06
7.7555e-05
-0.0207927
-2.98176e-06
-0.000371345
-1.19529e-06
1.21073e-07
3.25757e-07
1.22184
-2.09752e-06
2.00698e-05
-1.27329e-05
-0.00213398
-0.00037928
-3.22171e-06
-7.72931e-07
0.00698143
2.84398e-07
-1.5968e-07
-0.00487047
-2.30124
-8.19042e-06
-0.0464716
5.43219e-05
0.00116058
-4.37437e-05
0.00165422
-0.0285994
-0.000728925
2.93377e-05
-3.16488e-06
-0.000162529
1.23296e-06
0.530076
0.408948
8.55718e-07
3.73185e-05
2.56446e-06
-4.66863e-06
-0.317432
1.45461e-06
6.88703e-05
-4.24312e-05
0.0102025
-1.40514e-06
-1.84089e-06
-0.000116875
-0.022728
1.0576e-06
2.10121e-05
9.23412e-07
4.23442e-07
-0.000143736
0.00110485
-8.90968e-06
-1.64484e-06
1.31657e-05
5.36689e-06
-2.77614e-06
0.0889194
1.34292e-05
8.11988e-06
-2.08493e-06
0.00239348
7.87053e-07
-8.28692e-08
-0.00107014
-8.88223e-06
-0.0005937
-6.91453e-06
-2.43356e-06
0.0101363
0.116687
-0.0300607
0.00366059
8.7345e-05
4.08748e-05
0.100826
-3.83493e-06
-9.63457e-05
5.66092e-06
-0.24208
1.65529e-07
-0.000153162
-1.23074e-06
0.3243
-0.000729421
0.00596205
0.0485656
5.20392e-05
-0.00225769
-5.37302e-06
2.91005e-05
-0.346168
-0.000398848
1.11881e-06
1.97128e-06
-0.000113686
-0.000352759
-8.57975e-07
1.29372e-05
-4.15964e-06
-3.70568e-06
-0.00627198
0.0593308
-2.72151e-06
0.000518971
-4.28358
0.401967
-0.000155973
-0.00034714
-7.04826e-05
-9.00022e-05
9.99935e-07
-2.31972e-05
0.0273583
1.1105e-06
2.46522e-06
-2.02868e-06
0.0240902
0.522009
-0.000284795
2.1358e-06
2.41807e-05
-0.000318115
-2.06044e-06
9.65757e-05
-0.00239293
0.00825054
-4.69221e-06
0.0701525
-8.04532e-07
1.9306e-06
-4.90454e-06
-9.56707e-06
2.21517e-06
1.14306e-06
-0.00894755
-8.78639e-07
-0.330974
1.91849e-05
5.21662e-07
5.77041e-07
8.0499e-05
4.96936e-05
0.000797434
-0.003619
2.67995e-06
-0.162677
0.000143566
1.07613e-06
-1.52015e-06
0.0236937
-0.314951
-7.67969e-07
-3.02838e-06
-9.08247e-06
-4.90143e-05
-0.00143658
0.0139017
0.000130553
-4.96879e-05
0.00406344
0.0861306
3.75888e-06
-4.09594e-08
-2.61058
-0.000120131
-0.03847
0.00012084
-9.7184e-07
0.00223094
0.00144679
0.123306
0.00235906
0.157546
8.54742e-07
-1.57708e-06
4.30364e-06
-1.96685e-06
-0.000125863
-6.09437e-07
-3.18765e-06
-5.38455e-07
-3.07089e-05
-9.28565e-05
-6.55255e-05
-1.28842e-05
-4.64177e-05
2.06897e-05
-1.94075e-06
-2.82482e-05
0.000467944
0.000350911
1.00399e-06
-7.72102e-07
0.00703965
8.44175e-06
-0.000527529
4.63199e-05
0.705079
-1.14749e-07
0.000108396
-0.000110458
1.14642e-06
-1.25172e-05
-0.0654954
0.00257829
-2.69469e-05
-2.08475e-05
8.92187e-05
-0.00184568
1.39062e-06
-0.000298822
0.000235815
-8.13145e-07
0.00669361
6.44027e-07
-1.2088e-06
-0.00042032
-3.93417e-05
-0.000282466
0.00296966
0.212896
0.00018511
1.83781e-06
-1.42371e-06
6.10081e-06
-0.0129543
-1.05119e-05
0.0715525
9.94767e-08
-2.28947e-06
-1.61596e-06
0.00430783
1.94638e-06
-3.76334e-06
-6.75499e-06
0.00651754
-3.79155e-08
-0.851401
7.16579e-07
0.000241511
-1.83483e-05
-0.000125409
-6.5147e-07
-0.00010114
0.114751
0.00118082
1.31289e-06
-6.90284e-05
-9.90078e-07
-9.10275e-06
-0.454433
0.224161
2.21701e-06
7.88804e-07
-0.000174016
-1.12339e-06
-1.25141e-05
-4.90302e-06
-4.36399e-06
0.000189247
0.00161687
-1.15713e-05
-0.000291492
0.00254554
3.10768e-05
-3.06295e-07
1.04318e-06
0.000115435
-0.000665197
-1.21462e-06
0.178369
-1.00418e-05
0.093957
0.00047554
3.11978e-06
3.91488e-06
2.9188e-06
0.0957235
8.39496e-06
9.27914e-05
5.56667e-06
-0.00011376
0.32651
-0.00013599
5.08875e-05
-3.32373e-06
-2.07746e-06
-3.64119e-05
1.18369e-06
-0.000131313
-1.27489e-06
-7.46939e-05
-1.0045e-05
2.14931e-05
-0.127714
-0.00153581
-0.00291025
-9.50612e-07
-0.000585368
6.05125e-05
0.0051056
-0.00120494
-0.549746
3.70079e-05
5.20691e-06
0.000656472
-4.4451e-06
-0.00942527
-1.39524e-05
0.00156098
4.88375e-05
-0.0385731
-0.565268
5.58615e-05
5.71975e-05
-1.90994e-06
9.1042e-07
-4.95305e-06
-4.38503e-06
-5.65146e-06
-5.13096e-05
-7.32862e-07
0.000108484
0.00213105
0.0258697
1.13157e-06
0.00145844
-1.74967e-07
1.54056e-06
6.80653e-06
0.0065355
-3.86519e-06
-0.00533614
2.9344e-06
-2.43889e-05
-0.112257
1.7224e-06
9.39491e-05
3.74952e-06
0.000109557
-0.522861
-4.50862e-05
0.0603594
0.000365971
-0.00154938
-6.48299e-05
1.5615e-08
-2.98957e-05
-0.000140788
2.90394e-06
2.3608e-07
-4.41914e-05
-1.14556e-06
-0.105337
2.26765e-07
-0.661214
-0.788685
0.00074968
5.0905e-05
-0.00496687
-0.00144581
-5.86736e-06
0.881396
1.41794e-06
-0.229954
1.04647e-05
-3.5882e-05
0.0153936
0.0251369
-0.000280643
-0.0966968
-1.09257e-06
0.0612096
2.35645e-07
-0.0287059
-1.55888e-06
-0.00020216
0.000640917
5.83265e-05
-1.33626e-06
3.73477e-06
-8.09092e-06
0.000325814
0.0175513
-0.00144466
0.0387443
-3.40941e-06
1.24567
-1.34649e-06
-4.06613e-05
-1.26138e-06
-5.73554e-06
-0.0086957
-1.89867e-05
1.80238e-06
0.000452846
-3.64174e-06
0.0145659
-0.00397964
4.77621e-07
-0.00280918
-0.00103602
-1.76928e-06
-3.27603e-06
0.000106805
1.6074e-06
0.00231949
-0.000663914
5.42877e-05
-1.90332e-05
-9.00148e-07
-1.32747e-06
0.00245524
2.91169e-05
-3.37113e-06
-2.08553e-05
-1.05169e-05
1.09158e-06
0.0801614
6.68133e-05
0.0231876
-0.000361691
0.00193363
0.000244964
-1.79169e-06
-0.000146742
-1.4636e-07
-6.00376e-07
0.0347817
4.85957e-06
-8.5514e-06
-0.00104693
-0.000201036
-0.0140809
-1.60972
-2.4317e-05
-0.00065972
0.00354502
0.264278
1.65836e-06
3.11116e-05
3.27239e-05
0.00117558
0.0280235
0.000382043
-0.000119977
1.91066e-05
8.68743e-07
3.19129e-05
-0.0580638
9.35604e-05
-0.000686515
-0.00940058
-6.79859e-07
9.10545e-05
0.000182834
-1.42588e-06
1.45784e-06
-1.7254e-05
0.00223844
0.00615326
2.16354e-05
-3.74477e-05
-0.0332779
-9.57256e-06
-2.28684e-06
6.05096e-05
-3.86595e-06
0.014595
-0.0199529
-0.212516
-0.00471537
1.16438
7.88205e-05
9.25151e-07
0.00520207
0.000295533
0.000165278
-1.14248e-05
-1.82844e-06
0.00826559
0.337271
-6.90648e-07
-2.04692e-06
-0.000356734
0.00145483
-6.28579e-05
5.70759e-07
0.0435531
-6.03397e-05
-9.1408e-05
-1.2901e-06
0.000235217
1.68849e-07
-3.9926e-05
0.000183449
9.4387e-07
0.286354
-1.14596e-05
-0.00114913
0.00103769
0.0391295
-0.000922084
1.01426e-06
0.00270712
-0.000134149
0.000250988
-7.85406e-05
-0.000125137
-1.36243e-06
7.14378e-05
-0.0062571
-4.34771e-05
-0.00620405
-2.7721e-06
2.77756e-05
1.78145e-06
-9.18523e-06
-2.01596
-0.000161368
0.00214585
0.000993713
-1.37605e-05
0.0716377
-0.0149001
1.3865e-06
-0.100113
-0.000407911
-7.52682e-07
-1.27028e-06
1.11715
-0.0657425
-6.40908e-06
-6.01163e-08
0.000231692
1.67094e-06
0.05443
-0.0225316
5.03556e-07
-1.33347e-06
1.26445e-06
-0.025641
0.00139063
0.044676
-1.41973e-06
-0.555989
-8.64075e-06
-0.003668
0.0582735
-6.54183e-06
-4.05719e-07
1.06334e-06
0.0330809
2.75224e-06
-7.79452e-07
2.05961e-06
-4.98314e-05
-0.000152051
0.206414
4.15801e-05
9.65069e-06
1.41997e-06
-0.000159051
0.000287436
-0.000421134
8.01716e-08
-5.03748e-06
0.00402731
0.00123653
-3.54245e-05
-0.119502
0.000537489
6.34311e-05
-0.268363
-4.44895e-05
2.95256e-05
-6.22463e-06
-0.0216801
2.66009e-06
-2.2848e-06
1.54079
-0.000216745
-8.72573e-07
-1.24685e-06
-8.47434e-07
0.000843413
0.00764742
7.197e-07
1.34475e-07
3.87966e-05
0.00384026
0.000580443
-1.79777e-07
1.18987e-06
5.89854e-07
0.000304059
0.000652266
-2.45736e-05
-9.91595e-06
-0.519744
-1.96108e-06
0.840874
-0.000876187
-0.00106537
1.92443e-05
-6.36194e-05
-2.1874e-06
0.318017
-0.00133266
0.00399585
0.164053
-0.000762841
1.54405e-06
-0.203823
-7.04507e-07
0.00461528
0.0188801
0.000396945
2.06247e-07
-0.000123182
0.00424912
1.35719e-06
-1.61325e-05
-0.0542991
3.72506e-07
0.000131523
-0.000124126
-1.88118e-05
-3.68424e-06
-0.00400029
0.00719962
1.8199e-06
-1.20666e-06
0.313629
1.11892e-06
1.87056e-05
-8.63859e-07
-3.34794e-06
-0.00600853
0.000137176
5.20257e-05
9.51914e-06
-1.13031e-05
2.75927e-05
0.000440078
0.00700751
-0.000302506
-0.00690053
2.69378e-05
6.57412e-05
0.161065
1.37753e-06
2.77498e-07
-1.25521e-05
-3.77277e-06
-6.21316e-07
-1.77113e-06
-7.5582e-05
-0.0127626
3.50647e-06
-1.81369e-06
2.83268e-06
-9.57745e-07
0.0585763
-4.29038e-06
0.000320428
-0.00253881
0.00118538
-0.000373271
0.00192703
0.000131346
-5.02929e-06
0.000128225
1.31767e-07
6.1594e-05
0.000406923
1.33822e-05
-0.182566
1.6349e-06
2.62198e-07
-0.000888869
0.250742
-4.67738e-06
8.58173e-07
-0.0077762
6.95975e-05
0.00260111
-8.78823e-07
1.09902e-06
-2.72701e-06
0.0203557
9.26432e-06
0.0442555
7.62189e-05
0.00013674
6.79792e-07
-2.12568e-05
-0.000185914
0.0216101
1.80114e-06
0.000101596
-1.44648e-06
0.0209736
-0.0091059
-5.957e-05
0.0089375
-3.38336e-06
5.39107e-05
-0.000176655
-0.0224279
0.000108604
0.000223532
2.15744e-05
-0.00651562
7.79231e-06
0.000251445
-1.80083e-06
-0.00143827
0.00396949
0.000882002
-8.9421e-06
0.000183225
0.0322467
0.133786
8.48957e-05
-0.00012728
-0.00871245
-0.0101125
-3.48529e-06
0.00239591
-5.00021e-06
0.000113126
5.05319e-06
-1.54342e-07
-3.69248e-07
0.058342
6.81136e-06
-3.64543e-06
0.00142134
-0.0103112
-0.0389654
0.00762901
-0.0240156
-2.71339e-06
0.0118051
0.00165532
4.07199e-06
-4.69535e-08
0.0150754
0.000136926
-1.98941e-06
8.0237e-07
-0.00218974
-5.06501e-07
5.84844e-07
-3.16471
-1.39989e-06
-2.61535e-06
-8.15353e-07
-1.40075e-06
-3.73445e-05
5.47823e-06
-0.288019
0.000552529
6.70871e-05
-5.0595e-06
0.000348762
-0.145291
-4.33132e-06
-1.04134e-05
0.0175461
-0.00252825
-1.63585e-06
-0.000117941
-4.18711e-07
4.80225e-07
0.000852517
0.000776106
5.77057e-07
-1.99835e-05
0.00905887
0.00964502
0.380695
0.000836733
-0.000353368
-0.00105652
-6.18942e-07
-0.000140025
-0.000138597
-5.89996e-06
-0.266205
0.412586
-0.00033809
-5.40809e-05
-0.0721591
4.45014e-07
-2.2537e-06
6.79291e-05
-0.00146182
-0.099323
2.71715e-06
-0.00142927
-0.466373
-1.9954
-2.91555e-06
-3.56996e-05
-0.0378028
-1.3451e-05
-2.263e-05
-0.0517125
7.57408e-07
1.55106e-06
-2.80971e-05
-0.0211428
-2.20676e-05
6.53523e-06
2.37669e-05
-0.00114363
0.000329658
0.00390213
-4.11146e-06
-1.41156e-06
0.000442911
-6.69415e-06
-2.09917e-05
-6.35502e-05
0.00689628
0.0067475
-7.25555e-07
3.21649e-06
0.195541
-3.52409
1.01255
-4.7214e-07
-1.26487e-06
1.18206e-05
-1.49671e-06
8.68224e-07
-5.28799e-07
-0.000573622
-1.36504e-06
4.24355e-06
-2.33443e-06
-0.00191672
-5.27489e-05
0.00023365
0.728911
0.00190814
0.00102714
0.000204151
-0.00211456
0.00984006
-0.000332815
5.67415e-05
0.000144246
-2.67628e-06
-0.0996728
2.42926e-05
1.44816e-06
-9.67907e-06
-0.016033
-4.03168e-06
-0.0214954
1.64238e-05
-6.81102e-07
-0.00113349
-3.93919e-06
-6.19853e-07
-4.32685e-06
-0.00290062
0.878017
-1.88459e-05
-6.19988e-06
-4.65213e-05
-0.42813
0.00121496
0.000803525
-1.10237e-05
0.000222601
-1.98916e-05
-1.09242e-06
2.0259e-06
-8.59518e-07
-1.34706e-06
0.000138733
-0.168363
-0.000104152
3.34091e-05
0.00642238
0.303584
0.00706273
-5.25857e-07
0.00623607
0.000140654
-0.160941
2.8884e-07
-1.52571e-05
0.000144741
0.00108825
1.47219e-06
3.26299e-06
-8.415e-07
2.92756e-06
0.00587494
7.11956e-06
-0.00381234
-0.000517892
1.39153e-06
0.000674056
-4.71209e-07
-0.109571
7.33132e-07
-0.000271257
-2.71038e-06
-0.000361644
-1.10488e-05
0.00172107
4.63612e-05
7.69556e-07
-0.000276722
-3.32306
8.1445e-08
5.07981e-06
0.000540359
1.22376e-06
-0.243527
0.000213552
1.58565e-05
0.00212507
-7.87325e-07
0.000494396
-7.0881e-06
-1.79868e-06
1.49182e-06
-1.87763e-05
-4.23529e-07
-6.51479e-07
-1.34175e-06
4.04345e-05
0.00101023
-7.50009e-06
0.0085455
-2.15633e-06
1.98371e-06
-0.000208064
-0.00122679
8.79905e-06
2.37171e-07
1.52553e-06
8.30811e-06
-0.000911881
-1.24177
0.000159459
-8.64868e-06
-1.01794e-05
-2.11776e-06
-0.000424574
1.93833e-06
-3.38363e-06
-0.344107
0.00652969
0.0013404
-7.10941e-07
3.7921e-05
-1.8442e-05
1.39043e-07
0.00220106
-3.41428e-07
-0.00366512
-1.09322e-05
0.0158319
-0.000314239
-0.26598
-1.45443e-05
-9.34065e-05
-0.7314
0.0248157
0.118453
-0.000188792
0.0597748
-2.90491
-8.2987e-06
0.000256793
-0.779762
1.46489e-05
-5.91534e-07
-2.46216e-08
-5.50986e-05
0.242482
4.28591e-06
4.57931e-05
-0.0594258
3.47164e-07
-7.84959e-07
-0.19815
-0.0812157
0.00706546
0.108505
-0.0175974
-1.83825e-05
-0.00393321
-6.79606e-05
-9.4932e-05
-0.018053
6.42662e-06
0.163431
0.0203958
-8.24812e-05
9.14503e-06
5.42541e-05
0.000319616
1.58537e-05
-0.879767
1.20949e-06
1.32579e-06
2.97116e-07
0.402287
0.208381
-0.0029746
1.32916e-05
3.45692e-05
-3.40784e-06
0.139108
-3.99619e-06
2.74539e-05
-0.000100672
0.020219
-2.57472e-07
0.003259
0.0370058
0.0164859
-2.89032e-05
0.0137124
-2.17103e-05
0.0298235
4.25862e-07
0.00258348
0.0001252
0.00373438
-6.37834e-05
0.370023
0.0120892
4.94511e-05
-0.000107654
0.00429027
8.81392e-05
-1.64333e-06
-6.23943e-07
0.000284103
4.02755e-05
0.0253225
5.34648e-07
5.74533e-06
-1.35873e-06
-1.20138e-06
0.0307001
-1.74961e-06
-6.85129e-07
1.65834e-05
-0.0538284
-0.00038624
0.00161135
2.56131e-05
-3.5239e-05
0.00406389
3.593e-06
-1.05743e-06
-0.000809679
0.000645915
-6.05361e-07
-0.00143744
-6.08947e-05
0.0194143
6.66345e-07
0.0132764
0.000184816
-1.78592e-07
2.79168e-07
-6.34328e-07
4.86616e-07
-7.71601e-07
-1.78093
-0.000346294
6.8621e-06
-9.77874e-07
-2.66856e-06
4.34314e-06
-0.000224272
-0.00464273
6.32443e-05
0.000213332
4.05987e-06
0.0160487
4.96156e-06
-0.00110267
-6.23191e-07
4.46254e-07
0.00030415
1.48674e-06
4.04787e-06