/*--------------------------------*- C++ -*----------------------------------*\
| =========                 |                                                 |
| \\      /  F ield         | OpenFOAM: The Open Source CFD Toolbox           |
|  \\    /   O peration     | Version:  v2012                                 |
|   \\  /    A nd           | Website:  www.openfoam.com                      |
|    \\/     M anipulation  |                                                 |
\*---------------------------------------------------------------------------*/
FoamFile
{
    version     2.0;
    format      ascii;
    class       volScalarField;
    location    "350";
    object      ddt0(k);
}
// * * * * * * * * * * * * * * * * * * * * * * * * * * * * * * * * * * * * * //

dimensions      [0 2 -3 0 0 0 0];


internalField   nonuniform List<scalar> 
18355
(
0.00162137
-1.46655e-08
4.26773e-06
-5.75668e-09
-7.40187e-07
-0.00532841
4.44998e-07
1.37114e-07
1.28805e-07
0.000267034
8.26438e-07
5.29442e-06
5.13827e-06
0.0148489
2.80333e-08
-3.09707e-08
-3.25614e-09
1.01616e-06
1.2174e-05
-1.22066e-06
-2.62145e-05
4.14038e-08
-2.46397e-09
-0.00560125
-1.34362e-09
5.4727e-07
4.62324e-07
-1.75171e-08
1.51343e-07
9.64158e-07
0.00260255
-1.22577e-06
-5.02522e-08
1.52056e-08
4.38365e-09
-2.92199e-07
-7.48415e-07
-2.38982e-07
1.02414e-06
2.65044e-07
-2.6582e-08
8.85986e-07
5.50081e-09
-1.07314e-08
-1.29839e-08
6.79975e-06
-5.1455e-09
1.00871e-09
0.00408605
-1.35842e-07
-4.05138e-08
0.000312462
-2.78739e-07
1.47404e-07
-2.79329e-09
-1.22702e-06
-1.47118e-08
0.0113165
5.16274e-07
-0.000265253
1.13817e-08
5.18788e-06
-5.50153e-07
4.48588e-07
-3.11787e-06
-4.26081e-08
-1.55486e-07
-7.93232e-07
2.1391e-08
-0.00146027
8.95089e-08
-4.17352e-10
-9.575e-07
1.38897e-06
-5.57893e-05
2.44988e-08
0.0100214
2.60983e-08
8.46746e-08
-3.40075e-06
-1.28993e-07
-0.000558977
2.32342e-08
-1.96622e-07
-3.57926e-06
5.35209e-08
6.21751e-08
-2.96103e-06
5.13539e-09
-2.84795e-06
0.0177699
-1.42013e-05
-0.00074832
-9.04354e-08
-0.00631815
4.37173e-07
1.87817e-08
-2.87828e-08
4.53436e-07
7.79279e-08
-3.24041e-06
6.33018e-08
-6.0842e-08
1.64229e-09
-1.27929e-07
-3.01165e-08
-3.59915e-06
-0.00508771
-2.04725e-06
-2.66485e-08
-1.47425e-08
-8.84595e-08
2.55454e-07
-1.25376e-07
-7.54022e-06
1.1463e-07
7.20193e-08
0.000147637
9.54178e-08
-1.22718e-07
-0.000996225
-7.52137e-06
0.0136815
-3.69942e-06
7.55787e-05
4.78703e-07
4.90929e-07
-3.03846e-09
0.00403206
2.29465e-08
2.04821e-08
0.000147303
3.75213e-08
6.28187e-06
-6.80977e-06
-1.5381e-08
1.54203e-05
-0.00236208
-2.37422e-09
-1.86912e-05
-6.22768e-07
-5.24616e-05
2.83903e-08
0.00683305
-8.50234e-06
-9.81141e-09
-0.000940832
-1.89236e-08
3.72963e-07
0.000212442
-1.58575e-08
-1.42641e-07
-9.28147e-08
5.29652e-07
4.32473e-09
1.06822e-09
-8.68276e-10
4.32187e-08
2.83855e-08
2.49429e-09
9.69483e-07
3.73992e-08
-2.99725e-08
-1.22793e-05
1.35071e-06
-1.03049e-05
-0.00195362
0.00431552
-0.00284043
-5.70029e-07
-1.33942e-07
5.68533e-06
-1.8054e-08
0.00445523
-2.23682e-08
-2.10537e-08
-8.37206e-08
5.53001e-09
-1.90761e-07
-6.44707e-07
6.43965e-08
2.75116e-05
4.39341e-08
-2.65141e-08
-0.000532547
2.19646e-09
3.96718e-08
-2.5939e-06
-1.96278e-08
4.17069e-07
4.5782e-07
1.39091e-06
-1.94051e-08
-1.35846e-09
-1.57616e-08
1.9448e-06
-2.62078e-08
0.0338481
-1.67695e-08
0.0116202
2.89261e-08
6.79257e-07
1.1533e-06
5.63704e-08
0.00676331
-2.49645e-08
-0.0124543
-2.62e-08
-3.53358e-08
-9.63768e-08
1.08121e-07
-5.36825e-05
-7.33008e-07
5.1129e-07
-5.97854e-09
0.00502648
-6.29525e-07
-4.63242e-07
2.66722e-09
7.49336e-09
-1.77699e-06
-4.1798e-08
-2.71995e-06
-4.36166e-06
-4.13204e-05
2.9298e-08
-2.98864e-08
-0.00199669
3.06823e-05
-6.35169e-07
3.0005e-07
-1.32621e-07
-8.71366e-05
-4.19023e-08
-2.43124e-05
-1.97138e-05
-9.39272e-08
1.78784e-06
-2.83688e-07
4.2553e-07
-2.06152e-08
-1.7072e-07
4.04929e-07
-6.63724e-07
-1.80947e-08
-7.56491e-09
-8.23311e-09
-0.000143714
-0.00115518
2.08087e-07
-8.39172e-10
-0.00388453
7.44628e-06
-4.02336e-06
2.32115e-09
-1.0066e-05
-2.93127e-07
2.83342e-09
-2.58082e-07
-3.8267e-09
0.000189327
0.000180921
8.86494e-07
-1.98758e-07
1.17061e-06
-2.35475e-05
8.20584e-06
3.44112e-07
-6.8648e-09
-7.16696e-09
3.73975e-07
-2.39837e-08
6.31281e-07
-4.63529e-07
-5.76039e-09
8.68099e-08
2.07996e-06
-1.60042e-08
-6.04581e-06
0.000513541
2.47367e-06
1.22007e-07
1.76474e-07
-2.07412e-08
-3.14876e-06
-4.20312e-08
-7.09456e-07
-2.64296e-08
-5.70113e-07
0.00148707
-4.48221e-08
1.23003e-06
4.24856e-08
6.82065e-07
5.62534e-06
4.112e-08
-2.36691e-09
-5.71175e-06
9.34654e-08
-4.18022e-05
-6.82198e-07
-0.0154902
-3.23593e-06
9.39664e-07
1.20228e-06
2.36976e-06
-2.03606e-07
-2.67058e-07
-2.26257e-07
1.31053e-06
-9.84903e-05
-0.000520947
-3.06426e-08
-5.60299e-07
-3.09154e-06
7.60864e-08
-2.72395e-08
6.54735e-09
-1.62454e-08
1.78204e-06
-0.000834411
-0.0148961
0.000322946
2.31036e-06
-5.17582e-07
-0.00160016
-3.45773e-08
-3.23733e-08
-4.84973e-07
-2.6299e-08
-6.51313e-07
1.68742e-08
0.000589281
-3.34504e-08
-0.00162061
-5.5042e-09
2.30076e-07
1.3528e-06
6.13463e-06
0.0115222
-6.75669e-07
0.000457304
2.1139e-07
5.75217e-09
-2.47985e-08
1.01711e-06
1.04443e-05
1.63368e-08
-1.55709e-08
-0.00151103
1.6946e-07
7.2193e-09
6.97534e-06
8.52542e-07
-1.33774e-08
2.99172e-07
-6.81741e-07
-4.81851e-09
-6.82546e-07
-4.08374e-08
-1.58713e-08
7.98411e-08
-1.08129e-05
-0.000773346
-4.88949e-08
2.72811e-08
1.07326e-05
-1.9074e-08
-7.94072e-08
-0.000715286
-0.000821639
2.62479e-06
-1.56841e-08
-1.03596e-07
5.62411e-06
-7.1126e-07
-1.97076e-05
-2.62146e-07
-5.15518e-08
3.57784e-06
-5.10561e-06
7.27179e-08
-1.45963e-08
9.75321e-07
3.1961e-09
6.78165e-07
-1.63749e-08
-6.19953e-06
2.85372e-07
-1.20818e-07
-5.89487e-08
-1.63274e-08
3.71192e-07
5.31722e-07
3.84769e-06
-0.042149
-0.00126141
8.70607e-07
7.75944e-06
-3.30265e-06
-5.78005e-09
4.68876e-08
8.22262e-07
-2.06356e-08
2.7634e-06
4.54527e-07
1.7939e-06
-0.000968237
-0.000146336
0.00512295
-2.46154e-06
6.30653e-09
0.00137365
7.06197e-08
-3.24701e-09
-3.13709e-05
-7.74919e-09
7.72208e-07
1.74757e-07
-3.81656e-06
-6.86524e-09
5.11226e-06
-0.00380857
1.22513e-06
-5.22334e-08
-1.76224e-08
1.61471e-06
8.28791e-08
1.49788e-07
0.000258123
6.45028e-05
-4.52859e-10
8.67974e-07
4.15606e-06
-1.8183e-08
4.18564e-07
-6.45156e-07
0.00587045
-3.01578e-06
1.82032e-07
-2.93274e-07
9.75284e-08
3.90727e-10
1.68979e-09
2.31174e-07
-9.72638e-05
-0.0437872
-4.55408e-08
5.57795e-08
3.08638e-09
6.02396e-06
-5.57132e-06
-3.26499e-08
9.44023e-07
-2.72198e-06
-4.76948e-08
2.48121e-06
5.17796e-06
3.25905e-08
7.15511e-10
-2.83444e-06
5.72719e-06
-0.00801455
-4.1921e-08
0.0540683
-6.43199e-09
-4.36925e-08
-3.49902e-06
2.7047e-08
-6.8486e-06
-9.82188e-07
-1.51596e-07
1.54536e-06
2.89464e-08
7.15506e-06
9.39489e-08
-2.19236e-07
1.37147e-07
-3.39301e-08
-6.63163e-08
-3.64313e-08
5.3147e-06
-0.0421163
-3.51305e-06
1.11339e-06
4.80271e-08
1.41778e-07
-2.49187e-07
1.13251e-06
5.67557e-08
3.67725e-10
-2.39059e-08
-3.10624e-06
-2.55249e-08
1.40217e-08
-0.0161195
0.0495138
-3.42418e-06
1.37764e-08
6.25717e-08
-6.66428e-07
5.10864e-08
-0.000573911
0.000280516
-3.57905e-07
-8.55685e-08
1.30328e-06
-4.66811e-08
-3.02163e-07
-0.0179372
-1.72715e-06
-1.22704e-07
0.00163703
1.28565e-08
0.0184254
-0.0012867
-2.80701e-07
3.83836e-07
-0.0184018
-8.925e-09
4.71818e-06
-2.20952e-06
0.00179538
1.23326e-07
-6.53201e-08
-4.99032e-08
0.00123661
-0.00305369
0.00181429
0.000719169
1.06571e-06
-4.90158e-08
-2.26795e-07
-1.1529e-08
-8.01543e-07
-1.68517e-05
0.00466146
-0.0387478
-0.0112832
-2.23462e-06
-1.04145e-06
2.39495e-07
-1.27818e-08
-2.31311e-09
8.4053e-07
-1.47456e-06
-4.00085e-08
-1.08611e-08
-0.00423134
1.22445e-08
-0.00598773
-8.37985e-07
5.6465e-06
5.65435e-06
1.58585e-09
-1.06651e-07
0.0171426
-2.45671e-08
-0.0231774
-1.34318e-08
-1.27347e-05
-1.74082e-06
-2.40077e-08
3.5693e-07
1.32714e-06
-2.94548e-06
6.13481e-08
1.02022e-08
-8.85464e-08
-2.79291e-07
5.55813e-06
-1.91787e-08
4.97551e-06
7.45028e-09
0.00015573
3.51441e-08
-2.791e-08
3.77101e-06
-2.3249e-06
-3.53761e-06
-2.80463e-08
-5.51083e-08
-1.1082e-07
0.00043957
-0.0153378
-4.39233e-07
-2.6977e-05
-1.10727e-07
1.22379e-07
1.18409e-07
-4.05245e-07
-0.02183
-9.38292e-09
-0.00128371
1.23614e-07
-1.3545e-07
-4.43216e-07
-0.000488312
-6.63295e-07
-5.86208e-06
-1.35188e-07
3.90846e-07
-0.00229028
-3.01094e-08
-1.21989e-08
0.0548572
-2.73517e-06
-0.0172587
-1.19718e-06
1.74311e-07
-1.29892e-08
9.36441e-08
1.35756e-06
2.68153e-07
1.9741e-07
-6.1896e-06
-5.5366e-06
-3.75609e-08
0.00295091
0.00457309
7.70867e-07
-3.25634e-06
-4.42297e-10
-0.000223895
0.00168865
-1.80488e-08
-0.00149242
4.84843e-07
-0.000164032
0.000222523
8.39339e-08
1.47605e-07
-5.24732e-08
-0.00021967
1.6898e-06
-7.96193e-08
-9.75345e-08
-1.39093e-05
4.9127e-08
6.19196e-07
1.4342e-07
2.00303e-07
0.00449891
0.00224558
1.25843e-05
0.0015151
-2.89675e-06
0.0109824
-9.72896e-08
3.37233e-08
3.10207e-08
-0.000138897
1.5673e-08
1.38807e-06
-5.69593e-08
2.43921e-05
2.26862e-09
2.17617e-07
-0.0017383
-5.84591e-08
-8.78002e-08
1.86887e-05
-5.21095e-06
-9.35674e-09
-4.6066e-09
-4.03308e-07
-5.36369e-08
-6.3822e-08
-7.58503e-07
3.54305e-07
4.25102e-06
-1.43092e-07
6.06886e-08
-3.28443e-06
-0.00342262
-7.0389e-08
0.00161601
-6.52446e-06
-4.90672e-08
0.0444006
-6.52076e-08
3.56714e-06
-3.23831e-08
6.48782e-08
1.06346e-05
1.64019e-07
0.00708673
-1.26272e-07
-5.25545e-09
0.032317
-3.00001e-08
-1.87093e-08
-3.87539e-09
3.51743e-08
-1.38258e-07
-2.62081e-06
0.00287488
9.15295e-08
-0.027737
9.76156e-07
0.00135839
0.000429633
4.02983e-07
-1.74776e-08
-8.20359e-08
2.09257e-08
6.57684e-06
2.32028e-08
4.97721e-10
4.60125e-08
-7.33105e-08
-2.50514e-08
-2.49777e-06
1.19259e-06
1.6448e-06
-1.07374e-06
-6.61861e-07
8.9883e-07
-1.60786e-06
0.000136976
-2.19877e-08
5.19471e-06
-3.52375e-06
-2.87028e-08
0.00457828
0.00514173
-1.13875e-07
0.000414244
-5.38793e-08
-0.000384657
3.64307e-07
-1.51667e-09
-8.19568e-08
1.86524e-08
0.000920623
-1.20564e-07
-2.75729e-07
0.00204768
-6.24601e-06
7.94267e-05
-2.52546e-08
0.00109898
3.92429e-06
-0.000121065
-2.01045e-08
-1.98973e-07
8.00284e-09
6.9691e-08
-4.02409e-08
-2.76515e-09
-7.96759e-09
0.00064181
1.50157e-06
1.98595e-08
1.66794e-08
-1.65252e-08
1.94512e-07
-4.44039e-06
3.94573e-06
-4.5319e-08
-1.68164e-08
6.04649e-08
2.57013e-08
3.97422e-07
2.6036e-08
-2.29958e-05
2.16179e-08
2.70297e-08
4.43622e-08
2.65143e-08
-1.04201e-06
-5.70353e-07
-4.90013e-07
-1.9231e-05
-4.54573e-07
2.17796e-08
5.5984e-06
3.81051e-09
2.09412e-08
-4.99806e-07
7.13138e-05
1.02652e-06
-4.91479e-07
5.12758e-08
-1.81173e-08
1.38675e-06
1.7662e-08
1.80588e-06
2.03444e-08
7.61892e-08
-4.40935e-08
-1.92416e-07
0.00889663
3.40385e-08
1.9362e-08
-2.91499e-10
2.26836e-05
0.00161552
-3.86158e-07
2.88093e-07
-2.12674e-06
-9.84454e-07
-1.97963e-05
-0.0146414
6.10126e-08
0.00184754
2.10167e-08
-0.0132925
-5.38791e-07
-4.50237e-08
-1.26317e-08
-0.00277257
4.83848e-09
-3.75042e-07
-4.26902e-05
7.02107e-06
-7.48233e-07
4.78573e-08
2.74526e-08
-4.00234e-08
-7.43891e-08
-1.77359e-07
8.96873e-06
0.000722548
-1.60485e-06
-1.07242e-08
1.55554e-08
1.49888e-07
-4.63531e-08
3.41234e-08
-2.70113e-08
1.69841e-06
1.39231e-06
-0.00103755
-7.94162e-09
-2.6589e-08
2.46958e-07
-1.41934e-08
5.47482e-06
-8.54765e-07
-3.01426e-06
8.05353e-06
-0.000123094
1.63608e-06
6.49913e-09
1.92974e-08
-6.53952e-08
9.84073e-09
-0.000869974
1.73904e-06
6.73374e-06
-4.46959e-08
8.5483e-09
8.44107e-07
3.13354e-08
-0.0106042
1.08536e-05
2.57509e-08
2.68013e-09
-6.01261e-08
-4.94362e-08
2.6784e-08
2.30109e-07
5.85721e-07
1.55434e-08
-2.4659e-07
-3.40406e-08
2.00044e-08
-3.81089e-08
6.29097e-08
1.5175e-06
2.03602e-08
-2.17329e-06
4.85179e-08
-0.000709514
-5.25352e-07
1.28314e-06
-0.000458157
-1.35519e-07
-8.7435e-08
4.16994e-06
0.000471264
5.00007e-09
7.80786e-09
-4.05363e-10
2.52982e-06
5.59316e-08
1.66134e-06
-0.000303829
8.67335e-08
1.61782e-07
-7.85886e-10
-0.00947297
0.000567536
8.14129e-08
-2.98835e-08
-1.38538e-06
-3.28026e-06
-2.03082e-08
-1.57041e-06
1.29018e-08
-5.14957e-08
-4.64871e-07
-1.5632e-05
0.000134448
-3.99039e-05
1.11205e-06
1.51287e-08
3.2122e-05
-4.65448e-06
-1.67566e-06
-7.7285e-08
-4.91828e-06
-3.43194e-07
-6.78038e-06
-1.45573e-05
-1.6032e-08
2.26784e-08
-7.64484e-09
-6.00385e-07
1.07348e-08
-0.000423424
-6.87929e-05
-8.46807e-09
1.07972e-07
2.28024e-07
4.13868e-07
-8.8766e-08
-5.82696e-08
6.91337e-06
3.40552e-07
-1.37637e-07
-0.000356572
7.96603e-06
6.18479e-06
1.2016e-08
-2.99961e-08
-1.39111e-08
1.58671e-07
-1.23239e-06
5.0421e-06
-6.3456e-09
1.22852e-08
8.2131e-07
0.00140734
-8.69196e-09
-1.56775e-08
-3.60312e-06
1.74487e-08
-1.28846e-08
-3.02379e-08
-6.7675e-05
-3.35049e-08
-2.4948e-08
-1.071e-08
2.00029e-07
-2.49617e-08
-7.4508e-07
7.34402e-06
-1.74316e-08
1.33277e-05
-1.36041e-06
4.48743e-06
1.12585e-06
-1.31411e-08
-1.43632e-06
-3.66177e-08
-1.41689e-08
-1.14111e-08
-0.000625183
0.00230983
-8.47888e-06
-7.05841e-07
0.00503539
4.62791e-06
4.75068e-07
8.69014e-06
1.13099e-05
-1.51106e-06
-4.26846e-08
0.0016377
-1.36758e-07
-1.30082e-08
-2.54805e-08
1.84323e-05
-7.69655e-05
0.00894147
-1.6557e-08
5.7222e-06
0.00180967
-1.80551e-06
2.28308e-06
4.16283e-07
8.85311e-07
2.26825e-07
-0.000835198
8.19235e-07
-1.40641e-07
7.55849e-07
-9.32033e-05
7.1683e-06
-9.22683e-08
-9.24206e-08
1.96052e-07
-0.00171083
1.01569e-06
3.10339e-07
0.00425467
-7.69029e-07
1.03332e-07
4.48526e-07
0.000421704
-6.32005e-09
-0.0112083
-4.62772e-08
-3.26741e-08
1.5404e-08
-5.06412e-08
-2.96958e-08
5.01305e-09
9.18174e-08
0.000118788
1.33423e-08
-0.00766897
-6.32713e-07
-6.42067e-08
-4.36336e-08
7.73125e-06
-7.23054e-08
6.30844e-08
1.12797e-06
0.00216279
1.52235e-05
1.25915e-07
-2.18494e-08
-0.0422885
-3.89855e-09
-3.58139e-06
-2.39519e-08
0.00574494
1.98079e-06
-0.000100103
-5.98217e-07
1.06913e-07
-5.04496e-05
0.00939282
1.13187e-05
1.96436e-08
-2.8306e-08
5.89637e-07
-0.0239055
6.81466e-10
-1.33865e-06
-4.14061e-07
1.5661e-06
-4.38798e-09
-1.98943e-08
4.91426e-07
-5.06326e-08
-4.5251e-08
4.82745e-08
-7.09392e-07
-2.5824e-07
7.18477e-06
0.00100363
-4.24682e-08
0.00111315
-3.54432e-10
6.51176e-06
-3.30111e-06
8.35241e-06
-4.03007e-08
-2.14631e-07
-1.55334e-08
-0.0120846
-3.62934e-08
1.78141e-08
5.79482e-06
8.90036e-08
-3.97006e-08
4.16873e-11
-3.85646e-08
2.24722e-08
-0.00207202
-0.00016404
4.05798e-06
-1.4723e-08
-1.65058e-08
-2.06132e-05
-8.55673e-10
-2.34972e-05
2.04056e-08
-3.01037e-08
-1.0614e-07
-9.59924e-07
2.78169e-06
1.11937e-07
-4.29777e-08
0.0512901
1.33762e-07
-2.04015e-08
5.75807e-07
-0.00288533
-0.00108154
-3.43534e-08
1.80439e-07
-0.0222529
-0.000274151
0.000132509
7.84785e-07
1.95631e-07
4.962e-06
-4.99206e-08
-2.91927e-05
8.03827e-07
-0.00014295
2.42586e-07
-1.11979e-08
-1.07308e-07
-7.27725e-08
-0.0331889
-4.2111e-08
1.34375e-07
0.00167006
-1.59386e-06
-0.000102177
5.19815e-09
4.20947e-08
-3.78921e-08
-4.58271e-09
-1.40921e-08
-4.95607e-07
-1.64715e-08
2.09647e-07
-6.51682e-08
9.87793e-08
-2.05128e-06
1.81629e-06
8.96077e-07
-7.51345e-08
8.96747e-07
-5.18692e-08
0.00225564
3.21792e-08
-4.92894e-08
-3.48964e-08
-9.31745e-09
1.7614e-07
-2.51461e-06
8.25101e-08
4.91607e-09
7.0946e-08
-2.45639e-08
-0.00548129
0.000413219
1.21122e-07
-0.0378878
-1.17826e-07
6.17664e-08
-6.74273e-08
-5.20172e-08
6.2139e-05
-4.68407e-07
1.16866e-08
-3.57839e-09
-1.55696e-08
0.0128213
-1.00931e-07
-5.1094e-08
4.78496e-05
1.57978e-08
2.54026e-09
3.84531e-06
3.85893e-06
-9.01493e-06
8.18433e-06
-0.00974313
8.24644e-09
-0.0107608
-6.60964e-07
2.43018e-08
-1.11191e-08
1.11467e-06
1.16782e-09
-1.39257e-06
1.89359e-06
8.46851e-07
5.80147e-08
-0.00122075
-5.24061e-05
0.0519927
-0.00224503
0.000802275
-1.49484e-05
2.45089e-08
0.000482604
-8.09215e-05
-4.31905e-09
-0.00610362
-1.62372e-08
-9.9259e-08
5.67388e-06
2.0178e-08
1.37852e-05
8.89927e-08
3.10303e-08
4.97593e-07
3.53908e-07
-3.46838e-08
-0.00647008
2.3902e-08
5.45783e-08
0.00261722
3.25294e-09
-2.83019e-06
-7.85592e-08
1.26565e-06
1.43847e-08
-1.00934e-08
4.24407e-08
0.000474618
1.01493e-07
-1.0391e-07
5.35303e-08
-3.53845e-07
1.98507e-08
-1.00984e-07
-0.000292153
5.13651e-08
-3.21791e-07
7.08328e-09
-7.91129e-07
2.86984e-06
3.63763e-09
-9.09847e-08
6.27383e-06
5.69772e-08
-4.2412e-07
-1.92126e-07
-5.6281e-08
2.0665e-07
2.86303e-09
-1.17998e-08
-1.56951e-06
-5.32426e-06
4.87237e-07
-1.08707e-08
5.07682e-08
2.05699e-08
2.53702e-09
-3.67909e-08
7.99792e-07
-1.84148e-05
1.8587e-06
6.50854e-08
0.0202594
-3.67082e-08
1.69007e-06
-0.0246156
1.42137e-06
-5.57781e-08
-6.79521e-07
1.98429e-06
-1.07588e-08
-0.000615704
2.64501e-07
-3.51685e-06
-4.2426e-08
8.20435e-06
1.77153e-07
-6.41817e-08
-2.00851e-08
-0.00016227
-1.53588e-05
7.8444e-08
2.727e-06
-2.50299e-08
-3.54187e-09
-1.5394e-08
5.5328e-06
-1.34962e-07
3.95312e-09
-3.48354e-07
6.47197e-08
1.24312e-09
5.22621e-08
-1.58274e-08
-3.23024e-07
1.03514e-07
-2.47771e-08
9.65331e-07
8.82486e-09
0.00452107
4.59496e-06
4.00431e-08
-4.33806e-06
-6.0525e-07
3.26058e-08
-4.62456e-08
6.50612e-08
2.38602e-08
-5.22971e-07
-3.06773e-07
5.68971e-06
-9.96072e-07
1.49475e-07
4.13557e-06
8.56458e-06
2.20189e-08
3.93182e-07
6.17724e-06
-9.57953e-07
0.000267771
-2.46536e-08
5.19158e-07
-7.96869e-07
-5.30168e-07
-1.55641e-06
-3.25974e-07
1.20435e-09
-7.05504e-06
-8.14534e-08
-1.45046e-06
2.14244e-08
4.91603e-06
6.5632e-09
-2.73099e-07
-2.01692e-05
2.59582e-07
4.54804e-05
0.00277116
4.54031e-07
1.65642e-06
-1.20607e-06
-3.71245e-08
-2.78174e-06
4.82323e-08
-2.39298e-06
0.00461328
8.86468e-05
-3.77412e-05
-8.56863e-06
-1.86927e-06
-1.44528e-07
-1.52087e-06
-2.41284e-08
-0.0416419
-1.7156e-05
-1.09844e-07
5.67882e-09
-3.5571e-06
-1.07703e-06
2.87758e-08
3.21956e-09
6.86156e-06
9.16389e-09
7.63448e-09
-0.0053601
2.4934e-06
-2.80343e-10
1.47061e-05
3.21771e-08
-6.53095e-06
2.93832e-06
8.53848e-09
-2.37066e-08
-6.07662e-08
-2.76179e-05
-4.63077e-08
-8.11688e-07
-1.88277e-08
2.11931e-09
3.64122e-09
0.0125734
-7.6367e-09
3.61319e-07
-1.73295e-07
-1.22e-05
-8.4898e-07
-5.07257e-08
-2.71827e-08
6.76439e-06
3.6418e-09
-3.46083e-09
-1.20031e-05
-0.00429158
-9.38743e-08
-2.11999e-06
3.57011e-08
1.78015e-06
8.16039e-08
3.33831e-06
6.60787e-05
-2.12924e-06
8.91069e-07
-5.1426e-08
-4.12343e-07
1.8995e-08
0.00651425
0.00109599
1.1272e-08
1.55443e-07
4.0377e-08
1.95091e-09
0.00190496
2.05361e-08
4.67944e-07
-1.20336e-07
6.53526e-07
-2.16993e-08
9.69119e-09
-3.16058e-07
0.000362014
1.15472e-09
4.06973e-07
1.2437e-08
4.66905e-09
-3.78467e-07
1.39031e-06
-1.14751e-07
-2.6749e-08
1.79805e-07
1.59626e-07
-4.70966e-08
0.00197266
1.92427e-07
9.16316e-08
-3.13853e-08
3.38334e-06
1.08122e-08
-2.68667e-09
-2.66888e-06
-1.23578e-07
-3.98618e-06
-1.04611e-07
-3.6622e-08
0.000898308
-0.0151369
-5.40163e-05
5.8555e-05
1.11271e-06
4.09739e-07
-0.00122203
-5.87046e-08
-2.75546e-07
1.96008e-08
-0.00286594
1.26358e-09
-3.84417e-07
-1.95936e-08
0.00423781
-1.12163e-06
1.90462e-05
-0.00972626
2.44674e-07
-2.89166e-06
-4.32916e-08
2.98647e-07
-0.0081081
-2.36224e-07
1.57713e-08
2.96256e-08
-3.21346e-07
-1.75171e-06
-1.33649e-08
1.87921e-07
-6.27696e-08
-2.74551e-08
4.19286e-06
0.00232314
-4.26989e-09
3.74739e-06
-0.00472412
0.00236743
-1.20671e-06
-3.0963e-07
-2.33559e-07
-2.79838e-07
1.50795e-08
-4.98315e-07
4.78119e-05
1.58622e-08
3.79919e-08
-2.11233e-08
5.52556e-05
0.00089654
-6.90706e-07
5.77466e-08
2.63561e-07
-6.61528e-07
-3.08002e-08
1.50209e-07
-3.20769e-06
2.63036e-06
4.50244e-07
0.000347115
-1.248e-08
2.87046e-08
-8.17323e-08
-4.10665e-08
9.38878e-09
1.62807e-08
4.36546e-05
-1.39503e-08
-0.00199123
-1.15306e-07
6.56487e-09
8.01394e-09
3.18757e-06
2.47645e-07
1.41113e-06
-4.86032e-06
-4.31608e-09
0.00527733
2.45051e-07
1.26968e-08
-4.02634e-08
0.00145146
0.000167738
-3.49797e-08
-5.02368e-08
-9.35214e-08
-4.69912e-07
7.5806e-06
7.869e-06
-4.35423e-07
-6.00625e-07
7.06351e-06
-0.0118054
5.99804e-08
-1.91216e-09
-0.00476118
-3.5787e-07
-0.000672031
6.88907e-07
-1.40359e-08
3.82776e-06
5.63091e-06
-0.0136787
6.88291e-06
0.000798203
1.11672e-08
-9.18423e-09
5.32363e-08
-1.41985e-08
-3.53629e-07
2.73315e-08
-4.96697e-08
-9.87311e-09
-2.9437e-07
-8.50631e-07
-2.69658e-06
4.50072e-07
-1.23735e-07
2.02998e-07
-2.91727e-08
-1.59009e-07
1.09375e-06
1.13448e-06
1.43622e-08
-1.33535e-08
3.97156e-06
-3.50482e-07
-2.03151e-06
4.69071e-07
0.0050305
-2.41287e-09
6.45064e-07
-1.14183e-06
1.46677e-08
-1.81323e-07
-0.0205428
8.55927e-06
-7.15222e-07
-2.32707e-06
2.66815e-07
-3.20002e-06
2.00118e-08
-5.89158e-07
-2.47604e-07
-1.31091e-08
9.20363e-06
4.69534e-09
-1.82384e-08
-1.55386e-06
-4.62593e-07
-4.44782e-07
-4.87755e-05
-0.0262903
2.41062e-06
2.70479e-08
-2.09611e-08
6.81055e-08
-2.49844e-05
-7.74792e-08
0.000646092
-4.09001e-10
-3.56416e-08
-2.48231e-08
5.1469e-06
2.97457e-08
-5.26677e-08
-1.02163e-07
8.67116e-06
-1.89144e-09
-0.0123709
1.01393e-08
3.25296e-06
-5.2459e-08
-1.65616e-07
-9.52842e-09
-3.22126e-07
0.000569598
4.97398e-06
1.73656e-08
-1.31221e-06
-1.44307e-08
-9.93616e-08
-0.0164552
0.00112924
3.41382e-08
1.1725e-08
-1.38896e-06
-1.43379e-08
-2.15114e-07
-8.36739e-08
-6.95392e-08
5.20243e-07
2.35545e-06
-2.14472e-08
-6.36821e-07
1.4264e-05
2.69898e-07
-5.88942e-09
1.4635e-08
-3.33995e-07
-1.364e-06
-1.81899e-08
-0.0216245
-9.24039e-08
-0.00350896
6.77581e-07
3.23511e-08
5.65509e-08
5.45931e-08
-8.7286e-05
-9.41912e-08
1.00849e-06
7.69294e-08
-5.06227e-07
0.00198921
-1.25911e-06
9.23847e-07
-6.1188e-08
-3.09025e-08
-1.92558e-07
1.38949e-08
-1.23996e-06
-1.98369e-08
-8.90434e-07
-3.30672e-08
2.54279e-07
-0.00642598
-1.80115e-06
0.00137425
-1.55718e-08
4.05391e-06
3.19508e-07
0.00191849
-3.91354e-06
-0.00887215
6.60873e-07
3.5223e-08
1.11266e-06
-4.63791e-08
-0.000828729
-1.26041e-07
6.79949e-07
2.49664e-07
-0.021262
-0.0158508
1.5385e-07
1.02753e-06
-3.08278e-08
1.20039e-08
-8.48236e-08
-3.31056e-08
-6.07084e-08
-1.42774e-07
-1.23263e-08
-3.05224e-07
6.18187e-06
0.00197717
1.67846e-08
-4.14179e-05
-2.35496e-09
2.23451e-08
8.04628e-08
5.6057e-06
-1.16723e-07
-9.63388e-07
1.74079e-08
-3.77272e-07
0.0125442
2.50948e-08
8.4407e-07
5.10819e-08
6.70363e-07
-0.00776894
8.03904e-08
-0.00532868
1.52952e-07
-4.22379e-06
-2.23059e-07
-5.6948e-10
-4.19676e-07
-1.78449e-05
8.91451e-09
4.288e-09
-2.07004e-07
-1.70644e-08
-0.00606777
2.03066e-09
-0.000232363
-0.000138623
-8.93101e-07
9.61282e-08
-6.67437e-06
3.37966e-06
-3.68405e-08
0.0100763
2.07727e-08
-0.00899955
1.26522e-07
-1.04046e-07
0.00012489
0.00057959
-5.66467e-07
-0.00145644
-1.79593e-08
0.00162976
5.34299e-09
-5.98176e-05
-3.02709e-08
-9.933e-06
-5.27898e-07
1.78999e-07
-2.36193e-08
4.56762e-08
-1.16724e-07
7.15545e-07
0.00140105
-2.35858e-06
0.000681076
-4.71191e-08
0.0171415
-2.08683e-08
-3.72659e-07
-5.86631e-09
-5.77919e-08
-0.00087243
-2.32313e-07
2.59964e-08
6.20997e-07
-7.33512e-08
0.00188344
-4.66086e-06
6.30382e-09
-2.23069e-06
-2.55529e-06
-2.845e-08
-4.84126e-08
2.95126e-07
2.90337e-08
2.73541e-06
-1.28334e-06
7.55294e-07
3.53969e-07
-1.86286e-08
-2.15634e-08
3.15212e-06
3.04717e-07
-4.95941e-08
-1.4372e-07
1.18091e-08
3.78764e-08
0.0450867
7.02574e-08
-0.0350511
-8.15108e-07
2.2888e-06
1.78708e-06
-2.61457e-08
6.68606e-09
-2.17596e-07
-1.02899e-08
0.000545282
3.37235e-08
4.36122e-06
-2.67948e-06
-8.30675e-07
-2.25676e-06
-0.0238695
-4.03266e-07
-5.52764e-07
7.11576e-06
0.00750421
2.6432e-08
-1.67702e-07
3.45949e-07
8.87775e-06
0.00140109
1.54932e-06
-3.538e-07
2.48004e-07
1.23964e-08
8.69564e-08
-0.00128928
1.12014e-06
-7.04704e-06
-8.71352e-05
-1.77937e-08
4.65847e-07
5.01022e-07
-1.78017e-08
2.14918e-08
-3.16242e-07
2.2323e-06
-1.49591e-06
2.66948e-07
3.07142e-07
-7.42652e-07
-1.37489e-07
-9.86089e-09
1.97535e-07
-5.37306e-08
0.000501508
-0.000817955
-0.000213316
-5.8933e-06
0.0128432
4.25798e-07
1.28354e-08
5.49604e-05
3.26539e-06
2.37727e-07
-1.68254e-07
-3.02093e-08
0.00176409
0.00133113
-1.11034e-08
-3.39841e-08
-6.60668e-07
8.00271e-06
-3.70657e-07
1.21048e-08
-0.000771934
-2.14062e-07
2.66234e-07
-2.30897e-08
1.79482e-06
-1.40071e-08
1.24496e-07
3.35964e-07
1.30185e-08
-0.0080572
-8.9411e-08
-2.74432e-06
-4.46238e-06
0.00197222
-4.65924e-06
1.44841e-08
3.55723e-06
-3.68709e-07
1.52242e-06
-8.43584e-07
-5.84741e-06
-2.00989e-08
3.38049e-07
7.84623e-05
-2.09096e-07
7.81737e-05
-4.23504e-08
4.70924e-06
2.69497e-08
-7.02664e-08
-0.000610522
-4.26702e-07
4.88347e-06
-1.30766e-06
-1.23592e-07
-0.0269438
-0.00194582
1.99319e-08
0.00723888
-5.91695e-07
-1.23747e-08
-3.45281e-08
0.00261201
0.0118468
-6.82369e-08
1.95752e-09
4.94219e-07
4.42649e-08
-0.00209496
-2.91257e-06
6.91945e-09
-3.90106e-08
1.8009e-08
4.37235e-06
1.67574e-06
0.00158187
-2.58055e-08
-0.000178466
-1.0999e-07
-4.88407e-06
-0.00650911
-4.46941e-08
-1.43099e-08
-1.86784e-08
0.000892841
4.6773e-08
-1.26983e-08
4.42717e-08
-1.21111e-06
-1.29462e-06
-0.013755
-3.92975e-07
1.26253e-07
2.10839e-08
-3.44211e-07
6.16848e-06
8.10284e-07
-8.96012e-11
-7.20609e-08
8.24032e-06
2.06779e-06
-5.09631e-07
-0.000194625
1.43994e-06
2.32619e-07
0.000879604
-2.02889e-07
-3.13206e-08
-7.99761e-08
-0.000641812
4.06152e-08
6.58693e-09
0.0471296
-4.02231e-07
-1.33186e-08
-1.95815e-08
-2.46277e-08
2.44952e-06
7.25458e-07
1.15581e-08
3.18033e-09
3.66386e-07
3.06838e-06
1.54036e-06
-3.41779e-09
1.78208e-08
7.17949e-09
5.06577e-06
1.13625e-06
-3.52509e-07
-1.90226e-07
-0.0150546
-3.17389e-08
0.00767802
-1.74346e-06
-1.59225e-06
1.12412e-06
-8.68704e-07
-3.41712e-08
0.0203628
-5.10286e-06
3.83022e-06
-0.0114151
-1.6052e-06
2.23192e-08
-0.0268586
-1.20681e-08
4.07716e-06
-0.00611558
4.7709e-06
2.66514e-09
-3.3857e-07
5.0668e-06
1.90983e-08
-2.86111e-07
0.0181028
5.39643e-09
-1.19973e-06
-4.76469e-07
-8.96209e-08
-5.22592e-08
-4.62837e-06
5.62739e-06
1.41693e-08
-1.91006e-08
0.00231025
1.70713e-08
5.4441e-08
-1.36539e-08
-5.45082e-08
-3.77466e-05
5.10157e-06
1.7888e-07
1.07208e-07
-8.38402e-08
1.62148e-07
1.74728e-06
4.68189e-06
-6.87575e-07
9.09435e-05
-1.09418e-06
1.96721e-07
-0.0121926
1.98225e-08
3.21185e-09
-2.01515e-07
-5.92779e-08
2.40242e-08
-4.53938e-08
-7.48298e-07
-0.0062379
2.41051e-08
-2.93369e-08
2.40852e-08
-1.91995e-08
0.000776439
-3.33241e-08
-0.00576481
7.88497e-06
5.56029e-06
-6.02574e-07
0.000436063
1.22335e-06
-7.43714e-08
6.65675e-07
1.7043e-09
3.02975e-07
2.46641e-06
1.95031e-07
-0.0247468
2.47832e-08
2.25899e-09
-1.73566e-06
0.000540566
-4.22156e-08
1.22051e-08
5.43959e-06
5.69117e-07
7.34916e-06
-1.29252e-08
1.56716e-08
-3.84806e-08
0.0450299
1.12194e-07
0.00035946
1.89146e-06
2.05046e-06
9.49465e-09
-3.06123e-07
-2.00577e-06
0.00114284
3.09343e-08
-9.68312e-09
-2.32894e-08
-0.00487904
2.63346e-06
-5.18638e-07
6.41801e-06
-5.04052e-08
2.10117e-07
-1.34618e-06
8.78201e-06
4.93272e-06
1.6832e-06
7.91502e-07
-0.000400314
1.19154e-07
2.01395e-06
-2.77828e-08
7.83684e-06
8.83231e-06
-1.52616e-05
-1.59018e-07
1.83453e-07
0.0019006
0.00511053
6.85082e-07
-3.28964e-07
0.00160742
0.00154602
-5.44154e-08
2.36881e-06
-7.87269e-08
2.88078e-07
6.53031e-08
1.72398e-09
6.74818e-10
0.0200587
9.00086e-08
-7.42454e-08
3.33308e-06
-0.000590685
0.00121982
8.22062e-06
-0.00118184
-4.15026e-08
0.00145494
4.24051e-06
6.03663e-08
-1.02395e-09
0.00166742
1.27929e-06
-3.13282e-08
1.20282e-08
-3.15708e-06
-7.69593e-09
8.53647e-09
-0.00254594
-1.9071e-08
-1.87331e-10
-1.28967e-08
-2.12055e-08
-1.75552e-07
1.56345e-07
-0.00544008
4.91599e-06
9.23448e-07
-6.94133e-08
4.85515e-07
-0.00200495
-7.45221e-08
-1.84397e-07
0.00145108
8.49321e-06
-2.49261e-08
-3.48406e-07
-6.95721e-09
6.5727e-09
6.09772e-06
7.21563e-06
7.80131e-09
-2.50589e-07
0.00167468
5.41873e-05
0.00105204
1.98547e-06
-3.09604e-07
9.37527e-05
-3.74816e-08
-3.82005e-07
-3.92707e-07
-7.6543e-08
0.0192576
0.00146517
3.95917e-07
1.62677e-06
-0.000347578
-3.34891e-08
-4.09159e-08
7.3298e-07
-2.42217e-06
-0.00118294
4.31768e-08
-1.95681e-06
-0.00720179
-0.00135885
-5.34815e-08
-1.67588e-07
5.9748e-06
-1.95806e-07
-4.76981e-08
-0.00235513
1.15101e-08
2.31877e-08
-4.97386e-09
1.61013e-06
-1.45465e-07
3.02197e-08
2.65642e-07
-7.92489e-06
5.2245e-07
0.00101397
-6.4274e-08
-2.01176e-08
2.14219e-06
-6.8609e-08
4.88301e-06
-5.79291e-07
7.06903e-06
6.65157e-06
-1.13333e-08
4.75961e-08
-0.0221374
-0.00538126
0.00816255
-7.75932e-09
-1.97934e-08
1.24455e-07
-2.22625e-08
1.28766e-08
-9.05097e-09
-6.72427e-07
-2.84846e-08
6.54503e-08
-3.66024e-08
-4.24143e-06
4.19858e-07
-2.77424e-07
0.00538571
4.61691e-06
2.08189e-06
5.26277e-07
-4.77161e-06
-6.74263e-07
-5.61186e-07
2.75757e-08
2.17033e-07
-4.16447e-08
0.00325756
1.18481e-07
2.21093e-08
-9.29999e-08
0.000326982
-6.39486e-08
0.000346022
2.26323e-07
-1.31444e-08
-1.45241e-06
-6.12493e-08
-1.11188e-08
-6.79253e-08
2.90323e-06
-0.000321309
-2.20034e-07
-8.21054e-08
-1.93813e-07
-0.0121456
2.01561e-06
0.00168116
-1.71712e-07
3.4318e-07
-2.63094e-07
-1.63158e-08
4.16716e-08
-1.49343e-08
-2.04558e-08
2.7549e-06
0.000242373
-8.63121e-07
-5.97934e-07
7.88331e-06
0.00158641
6.43786e-06
-4.4106e-09
8.29462e-06
2.33715e-07
-0.00170386
3.19128e-10
-1.5712e-07
1.27073e-06
1.55778e-05
2.49268e-08
4.93676e-08
-1.51322e-08
4.83727e-08
6.928e-06
7.83185e-08
-5.11403e-06
-1.97838e-06
2.56466e-08
5.11461e-06
-7.68557e-09
0.000821353
-1.17719e-10
1.27393e-06
-6.66808e-08
-8.38567e-07
-1.14364e-07
4.05597e-06
0.00157489
1.12404e-08
3.35701e-07
-0.0174654
-2.2824e-10
9.08971e-08
1.12012e-06
1.84141e-08
0.00661545
4.84056e-06
2.16223e-07
3.29085e-06
-3.27095e-09
-6.32138e-07
-7.20882e-08
-2.42802e-08
2.58465e-08
-1.09835e-07
4.22518e-08
-1.07439e-08
-2.15696e-08
4.80249e-07
1.98936e-06
-5.84862e-08
1.15422e-05
-3.28901e-08
2.91766e-08
-3.78283e-07
-3.06454e-06
8.96032e-08
1.1588e-08
2.24352e-08
9.29648e-08
-2.24022e-06
-0.0300446
2.72183e-07
-3.70717e-08
-9.88398e-08
-3.36174e-08
-7.27625e-07
3.00197e-08
-2.50448e-08
-1.89622e-05
6.28678e-07
1.58896e-06
-1.18277e-08
3.66485e-07
-1.17187e-07
1.30619e-08
9.43469e-06
-8.90074e-09
-7.02414e-06
-4.37138e-08
3.17188e-05
-7.25516e-07
4.43611e-05
-1.92224e-07
-1.74472e-06
-0.00892506
0.000782459
0.000790878
-4.26678e-07
0.00252635
-0.00299732
-7.1987e-08
4.06381e-07
-0.0467607
2.89396e-07
-9.59993e-09
4.36573e-10
-1.17507e-07
0.000528225
6.93784e-08
-7.6446e-08
-0.00174185
4.99622e-09
-1.30038e-08
-2.33842e-05
0.0105489
4.67026e-06
0.00101355
-0.00148378
-8.68022e-08
-4.4139e-06
1.74088e-07
-4.27451e-08
-0.000558822
6.48519e-08
-0.0175993
4.78106e-05