/*--------------------------------*- C++ -*----------------------------------*\
| =========                 |                                                 |
| \\      /  F ield         | OpenFOAM: The Open Source CFD Toolbox           |
|  \\    /   O peration     | Version:  v2012                                 |
|   \\  /    A nd           | Website:  www.openfoam.com                      |
|    \\/     M anipulation  |                                                 |
\*---------------------------------------------------------------------------*/
FoamFile
{
    version     2.0;
    format      ascii;
    class       volScalarField;
    location    "1000";
    object      omega_0;
}
// * * * * * * * * * * * * * * * * * * * * * * * * * * * * * * * * * * * * * //

dimensions      [0 0 -1 0 0 0 0];


internalField   nonuniform List<scalar> 
18758
(
0.120894
3.18858
0.0214753
5.38343
4.84988
6.42975
7.79336
0.0217112
0.240694
0.0278203
0.0237187
10.5728
0.0220466
0.17016
0.0230518
0.622783
0.0421554
0.0219426
0.0219246
0.0310601
8.65528
0.0222713
5.87216
2.49648
1.34613
0.0217158
1.75401
4.87591
9.26065
4.12083
0.0711778
6.03388
0.0221821
0.0226989
0.124865
0.0221724
0.0222265
0.022004
0.0222719
0.0449695
0.0220022
0.0265654
0.0216443
0.0261235
2.3775
0.021615
5.5174
0.0240127
0.0273621
0.0216138
0.139114
4.98134
0.021544
0.0234853
4.76507
9.73121
0.0222172
0.369329
0.0219521
0.187041
0.0987417
6.66213
0.108603
0.0228002
0.021553
0.022011
0.0463613
0.0221776
0.021923
4.92354
4.74924
0.0223082
0.02162
14.3497
0.021681
0.0219433
0.230859
4.80678
0.0886608
5.27349
6.98323
4.30614
0.1869
5.75102
0.24077
0.0304053
23.1723
0.107858
6.20671
0.0219419
5.42572
0.0219536
14.2572
0.0269897
6.91016
12.7976
0.229531
0.02168
0.0219018
7.10047
0.0325541
4.9858
0.0831205
0.0468258
7.53407
2.99918
5.73211
4.88955
0.0226479
0.0222999
16.3007
10.6635
0.0217573
0.0220152
7.5401
9.3213
7.33708
0.0230541
7.90139
6.42602
0.0379588
0.0219711
11.6798
1.37575
0.578391
1.76081
2.0979
0.696659
11.4694
0.0220472
0.0436631
1.61422
17.0123
0.0495166
4.86856
0.0237767
0.224915
0.0468387
0.0218997
0.0786224
0.0893576
0.247503
0.0219474
14.0258
0.0220073
0.022011
9.70901
8.21986
0.0706418
6.80038
3.46929
5.13785
0.0303319
0.0222709
5.46504
0.0282104
6.86043
0.0240158
0.022144
0.0222888
0.0218042
0.182847
19.1894
0.0221394
0.0981153
9.21564
0.0219701
12.1996
0.225477
6.40437
4.73585
0.0219377
18.7577
4.86278
0.181813
1.79086
8.49899
0.0228945
0.0768816
0.0221071
0.0217965
30.7669
4.99925
0.021649
0.0253752
2.83385
0.0219277
7.70712
0.0216295
0.02194
0.0497998
0.565353
0.0223652
0.0669726
0.0340005
0.109987
0.0316982
0.259436
0.0221487
0.021638
0.0733965
0.0239452
0.0368342
0.0805348
0.0220351
0.0335417
0.0855105
0.0222788
8.71606
0.0273904
0.0219302
0.0493793
0.0221756
0.0365339
0.0776648
7.2967
0.0865043
0.561464
0.0216293
6.67023
0.0219302
0.0226651
0.202383
7.9173
0.276863
0.0841764
0.0578568
0.0468478
0.0216088
0.081899
0.0220052
0.109451
5.4483
0.240504
0.0220633
0.0219297
0.0216102
0.0216392
12.0274
0.0367612
0.0218349
0.908754
5.7247
0.0230398
6.79273
38.0029
0.236849
0.022179
6.94067
0.0296974
0.0221527
11.6481
0.0304955
0.0301959
0.0225088
0.0411397
0.808604
0.695196
0.0356669
0.0861244
0.0216688
0.0698532
0.0220278
0.079656
0.0269346
0.199678
9.76938
0.021634
0.0225313
0.455339
0.0224579
0.025116
0.0803947
9.75678
9.05815
0.0219449
0.121505
12.9594
2.57801
0.0225499
0.021738
0.029357
0.0369381
0.0219413
11.3921
0.673483
4.65555
30.9646
5.85027
0.0216278
0.0214684
0.0518246
8.29949
0.025529
0.0864767
0.10752
0.0293332
6.47971
0.0218906
3.45599
5.98114
0.0216269
4.96768
0.0377473
0.0219507
0.0332083
0.0847781
0.0228239
0.0221571
6.79675
4.5146
0.0219325
8.70383
6.47561
0.254849
0.0220141
0.0221302
4.72038
0.023009
0.0216434
0.0217686
0.0229954
0.241491
0.0863218
0.0293253
0.0357819
0.0311948
0.0496547
0.0216541
0.0222786
0.679136
0.0560489
0.129934
5.40859
0.0259169
0.0223146
0.0220839
3.50696
5.06271
0.0216208
0.0219181
0.0216224
0.0236709
0.0442601
1.084
0.0219708
0.0222003
0.021605
0.810342
0.223012
0.166146
0.159946
0.0228703
0.510722
0.113834
0.0373986
0.031407
9.75054
7.40128
4.57256
0.0220469
0.0332596
4.71218
9.61405
0.0249487
0.0216319
0.057858
0.0219583
0.0304821
6.40476
5.09319
0.11622
0.0304674
8.00248
0.0219949
0.0239285
0.0218971
0.0222794
0.107163
0.024115
7.82129
0.283607
0.022434
0.0219359
6.30574
0.113352
0.233234
0.0219949
0.0565301
0.0217275
0.0259669
0.0219714
0.0216432
7.83357
7.9144
4.19866
21.4906
0.0219102
0.207142
4.91389
0.0419954
0.0217514
5.27405
0.0217661
0.0220592
0.021792
0.110102
0.0219635
0.0259997
0.14806
11.1296
0.0217548
4.77481
0.0475987
0.02202
0.0259235
0.0219677
0.02192
0.0286285
0.0657371
0.0490224
25.884
0.0394703
0.0220415
0.406149
5.63038
5.16826
4.79104
0.105453
0.0224801
0.0216439
0.0218385
0.0221941
0.116944
0.0428182
0.0331244
0.0362843
0.0303837
4.35644
0.084532
0.0219634
0.0347762
5.61885
0.0227683
5.19663
0.0222128
0.0220822
7.65328
0.0280089
0.0224624
0.708973
0.127427
0.0509951
10.3285
0.021948
0.0225893
0.763194
9.3796
0.0360614
0.0721371
0.175739
2.76976
21.2072
0.172723
0.0222851
0.134971
0.0220133
0.118677
0.0231344
12.6976
0.0558763
2.8921
0.0329153
0.07916
0.0216279
2.15854
0.0216258
9.63467
0.021901
0.375176
0.0220543
4.56096
0.0314204
0.0220868
0.0219079
0.0217837
5.58841
10.5818
7.5944
0.0460946
0.0247351
0.0849954
0.0222702
0.0222874
4.98207
0.0219083
0.022061
0.110042
0.022041
0.0704076
0.084411
0.0220567
0.0219623
0.0278628
0.0226776
0.0287496
6.73469
0.0326989
0.0357427
0.0267673
0.0220457
3.71795
0.0223327
0.0226486
3.71859
9.13026
0.0759683
4.98624
0.0251578
0.0226192
6.3827
0.021949
8.38878
0.342547
0.0220801
6.67868
0.640986
0.0585342
0.0218564
0.0533443
5.0634
0.0220072
0.021859
0.0231197
0.0228131
0.0220292
0.0216973
0.0222939
11.5263
0.0252788
9.12982
0.0219735
0.15087
5.36346
0.0220337
0.0216362
0.0252205
0.0221294
0.0226202
0.0232684
0.0220934
0.105487
0.810615
0.0215431
5.04139
4.62495
0.0355206
0.133038
4.54875
0.0263323
0.0317229
0.0284993
4.77987
0.0251762
0.0478456
0.0219787
3.87645
0.0418535
0.224914
0.128892
7.56673
0.0251113
0.0219317
0.0578815
1.2467
0.0225553
0.477762
0.0222203
5.79803
0.0227153
0.0217869
0.0217799
0.0220473
4.62219
5.79135
0.0220077
0.305891
0.0306154
5.19055
7.84496
4.43864
1.29257
0.0218927
5.05892
0.0665326
0.0219556
0.0472795
4.90785
9.97139
0.02268
0.0225569
0.0219819
0.0215112
7.87624
0.104065
4.78551
5.24388
0.0220416
0.0221405
0.0570321
0.0222811
0.0218069
0.0232465
0.0229299
0.107731
0.0411417
0.22599
4.90569
0.0723795
0.0220613
0.0274005
0.119915
4.94583
0.0457872
8.25549
0.0517637
0.0220118
0.282776
5.23953
0.0224244
0.0216395
0.151976
5.22604
0.25676
0.0220418
9.10188
30.0915
1.62616
0.0216078
6.96354
6.98146
23.5888
0.0241115
0.0221966
7.91761
0.0222945
0.183825
6.45453
0.203487
6.59694
0.0831116
5.60119
0.0666787
0.0220833
0.0225407
5.66551
5.06256
8.37644
5.54316
0.0219482
0.183962
0.0222772
0.0586648
0.0860082
0.131258
0.0220851
0.0251322
0.197023
4.96106
5.29544
9.81813
0.0386144
0.0326107
0.251032
0.0222366
0.0217049
0.0219597
0.0256888
0.0741513
0.0220319
0.0814229
0.0218567
0.0220785
0.0219061
4.85605
0.0223217
0.0222696
0.0539682
0.0515465
0.0215475
10.052
0.0219592
0.0217031
0.0545665
0.0368247
0.0249706
0.0228534
6.02798
0.0358938
0.0346632
5.24316
0.0346863
5.12798
0.0259772
0.105496
28.695
10.0417
0.0216319
4.80044
0.984527
0.0216835
5.77433
0.0220611
0.0218935
0.0393746
0.0219502
0.11099
4.8807
0.0216238
25.4917
0.0218692
0.0377526
5.00519
0.0215285
4.98285
0.0234779
0.0219813
0.021931
0.0219573
0.220926
0.0729797
10.2012
0.0743085
5.99931
0.0570158
0.022034
0.215554
8.59871
1.86471
0.0760285
0.161387
0.0662227
0.0267406
0.220378
0.0226692
7.03345
0.0220345
5.97567
0.022769
0.0761619
0.0279014
0.0223484
8.7071
0.0225584
0.0218153
2.10974
0.0235156
0.0219087
0.0446447
0.0849669
0.228418
1.61066
5.17775
5.00851
0.022133
0.0222051
7.45629
0.0219916
0.924652
0.0880479
0.0238051
0.0220604
0.0328367
0.0219884
0.0219445
0.0292521
0.738268
0.224316
0.159373
0.0627389
0.0221329
0.0602839
8.40592
0.0218658
0.0871439
0.0239567
4.87186
0.0231928
6.33404
0.0220291
1.01009
0.0222766
0.078868
0.0219589
0.0253378
0.0306867
0.021533
0.0216868
0.0215809
5.62921
28.4793
0.033249
5.21685
0.0220175
0.0423505
0.0282312
0.254904
5.55505
0.033418
0.0215417
0.230707
0.0218587
0.0220175
0.0282602
8.21229
10.6692
0.876771
4.65139
0.0737622
0.0229306
0.0218877
4.87864
0.0218967
1.55314
0.0277631
0.0221856
5.33195
7.47749
0.02209
8.25527
0.0271119
0.114103
0.0980595
4.9755
7.21181
1.35283
0.0219978
0.0215033
4.91469
0.0219519
0.021921
0.0284213
0.0219686
5.43019
0.253947
0.0573089
5.40508
0.0482394
0.121248
0.0238685
0.0219897
0.0215366
0.0217819
9.05007
9.63309
0.313022
0.0220564
0.0215352
0.0314303
0.0218237
0.039904
0.0255911
3.3796
5.09206
0.0804939
0.26831
0.338853
0.0218825
0.213465
0.0218888
5.63576
0.860865
6.80945
7.95885
0.0229814
0.029355
5.26956
5.42475
7.64356
0.0448171
0.129393
5.36644
0.0220477
0.252864
1.5932
0.122057
0.0220417
0.0219674
0.0411354
5.38217
3.13328
0.0984123
0.0219742
0.0249523
0.0288516
52.5628
0.0222849
0.653003
0.0218969
0.02267
0.193018
0.0218676
0.0220189
0.0232523
0.026979
0.0219761
0.0226464
0.0216106
5.09581
0.384775
6.45439
0.0216325
0.0497818
0.022012
0.225511
0.231919
0.0370313
0.0219006
0.0228617
0.634625
0.116887
0.0291656
7.73295
0.119077
0.0219589
0.0220409
5.10282
6.27652
0.0626399
0.0216136
4.05591
0.0221259
0.0360969
0.0216617
1.08557
5.65975
0.0218624
0.0220103
1.89439
0.0219361
6.50631
7.57809
0.0600766
0.0222556
0.0221663
0.0216577
0.0220356
22.3699
9.39287
0.138807
0.0228411
5.18296
0.0219419
0.0219411
8.5003
0.0217451
5.03281
0.0215148
0.0287556
0.0232502
0.0219436
0.0218277
0.0221207
4.82146
0.0224865
0.0221944
0.156939
0.0415295
0.021972
0.0575144
0.0368614
0.0221261
0.290966
0.0219771
0.0370184
6.50232
0.102137
0.0219635
0.292058
0.0932348
0.0850796
0.0265337
0.0638969
8.53401
0.0244775
0.057437
0.0219568
0.0215924
0.0220055
0.0468086
0.0366091
0.0484589
0.0218601
0.0275938
0.0669814
6.22363
0.252901
0.0219375
0.0217778
0.0227942
0.10364
0.0218132
7.65241
0.0219619
0.0219436
0.0217764
0.43994
5.19027
0.0221552
0.0236376
0.0218854
0.0894943
0.0218096
0.0219714
4.0584
0.0222705
0.0215968
0.0221309
0.138049
0.0217958
0.0218672
5.21411
10.3411
0.615805
0.043492
5.03144
0.0501626
0.0219579
0.0219145
18.5723
0.0219721
0.0657424
0.0818133
0.0414282
0.0266206
0.0223142
0.0305816
0.0227932
0.0216203
0.199378
4.93617
0.0434449
0.0217876
6.49096
0.0465584
6.99142
6.21452
0.11148
0.0221407
0.0219209
0.0218305
0.0605557
0.0221267
0.0218261
6.52512
0.162227
0.0451682
0.0219151
0.0670078
0.300231
0.0220952
0.0263421
0.0361975
0.139639
0.0699231
0.0219901
0.0234115
0.0377323
0.0218221
0.0492935
0.0222623
9.79408
0.0581088
0.115751
0.0217764
0.0370678
5.39226
5.22932
0.875975
0.063148
8.65045
0.0221301
0.0219593
0.022689
0.0865611
0.02217
0.0233991
0.0307013
0.0606368
0.0220019
0.0219551
0.0220103
0.022277
0.33979
5.38289
0.971637
0.0219958
8.01459
0.0295979
0.0221555
0.0329844
0.0218686
0.0835079
0.0229783
0.0219743
5.12074
31.568
5.20875
0.0223457
21.6413
0.0219731
5.35202
5.31588
0.0215435
0.061008
0.274848
0.0216199
0.0219628
5.52402
0.0222518
0.0220175
0.180892
1.25314
0.0220297
0.0314401
0.0221511
0.0252764
0.116275
0.0221673
5.46784
0.0445951
0.0219603
1.00755
0.0601518
0.0761038
0.0222882
0.315215
0.0220215
4.82167
0.0219742
0.0217625
15.7542
0.0217005
5.18391
0.0219656
0.0539069
8.16709
5.17393
0.0219699
0.0223195
0.0220257
0.0231911
0.0269464
0.0266453
0.0214906
9.61233
0.0218895
0.0219677
0.139418
0.209858
0.04356
0.0220291
6.54747
0.0813312
0.0223847
0.0351489
0.0219288
0.0217551
8.78901
0.0216287
0.0217666
0.021806
5.40835
0.0218075
0.0218297
4.76985
0.0253118
5.66395
0.0333039
0.0215166
0.0218819
2.75118
0.0261697
0.0220076
8.0022
5.12714
0.0217934
5.06795
0.112803
0.0219192
0.0220272
0.327193
0.0222216
4.28778
0.0333679
0.022034
1.30939
11.5123
0.22005
0.0218698
7.85733
0.029922
0.381073
4.25918
0.0219179
10.0179
0.0220095
0.0317799
0.0262314
4.98901
0.0216878
0.0223563
4.44365
0.0222734
0.0355143
0.0216948
0.022076
5.53764
0.0858937
0.025138
0.035781
1.11148
0.0223018
0.0233607
0.0543961
0.11706
0.0255466
0.0219646
0.0219315
0.022147
0.0225954
0.0218501
0.03381
0.0275745
1.20522
0.0220086
7.09046
0.0219556
0.0288632
0.021984
0.0361288
0.0220725
0.0219459
5.76521
4.82862
0.0240917
0.0220956
15.4179
0.027624
15.6371
0.0365841
0.0713184
5.48779
10.1505
5.05011
0.0230116
0.0219855
0.0218048
5.26892
0.0218118
0.0220208
0.154738
0.0218307
0.0221871
0.0220633
10.3931
1.20238
0.0221823
4.96578
4.97792
0.0240348
0.0219414
0.0221736
5.11971
0.0216844
0.103863
0.0222883
0.0219845
0.0220609
0.0217547
0.0734811
0.0219675
0.0218908
0.0217762
0.0216223
0.329989
0.0216081
0.0218039
0.0220988
0.0219651
0.268248
4.05917
0.0591415
0.0225484
0.0220143
0.0221944
0.0222255
4.83222
0.0219519
0.0315382
0.0675778
5.02259
0.0219576
0.021925
5.78509
0.0221261
0.104019
0.0778366
0.0224379
5.28298
4.90747
0.0309028
7.93633
0.0282895
0.122062
0.0214916
6.64608
0.0220503
7.65903
0.0220497
0.0218367
2.70133
2.33038
0.442358
0.151652
0.0219158
7.02613
0.0221778
5.17358
0.0536063
0.0219346
0.0214939
0.021893
0.0510334
0.0614279
4.77888
0.0415068
0.0219011
0.021942
0.0219127
9.49967
0.19043
0.0332883
0.022146
0.0219162
0.0302696
1.06867
0.0219186
0.0326408
0.0684578
0.0219516
0.0239107
0.0231247
0.0571783
0.155553
0.0244445
0.0784072
0.0215927
0.0220155
7.52887
0.0403069
0.0818854
1.97955
0.0216117
8.49906
14.8532
0.0507002
5.14974
0.0219488
5.28211
5.66659
0.102927
0.0218008
10.5692
0.122776
0.0219964
0.0387904
6.85202
0.022609
0.0219775
0.0394952
0.0222713
9.13098
0.0305811
0.0220442
0.0222822
0.0218876
0.0679409
0.0337126
7.83537
0.0962297
5.64823
0.0752036
0.0222612
0.0219508
0.603037
12.4893
0.0219778
0.0218918
0.144283
0.0220909
0.283072
5.22305
9.53062
0.0219674
0.0219858
5.41874
0.0217547
4.94933
0.531898
0.0217148
5.62758
0.0579794
0.0824463
0.0219783
16.5731
0.0220352
3.78417
0.0215087
0.0478491
0.0228388
0.0216869
8.99562
0.0227092
0.0219801
0.0234318
5.7358
0.0220813
0.0216015
4.87587
0.0219169
0.0216603
0.0221233
0.0251961
0.0220596
0.0221864
0.0278642
0.0221806
0.0263852
0.0215653
0.274978
7.73915
0.133315
5.74298
0.0283605
0.0263023
0.021892
0.0218346
0.0221301
7.75875
5.12373
0.0218938
0.0222778
0.0219286
22.9801
0.0215951
0.260826
2.25735
5.04766
5.22906
8.01295
5.33799
0.0216398
5.12032
5.61246
4.92337
0.0261425
0.0221474
0.0434225
0.0216443
4.66774
0.110667
0.058093
0.0270068
8.00825
0.0219961
0.0214864
5.26632
0.119896
0.0219596
0.0215268
0.0452769
0.0221227
16.1026
4.02672
5.72695
5.12504
0.0770251
1.09827
0.0218238
0.241281
0.0221117
0.0219684
0.0216515
6.03395
0.0221387
0.0218131
1.84605
5.42204
0.225919
0.125723
0.0229255
0.0390273
9.64098
9.91623
5.32804
5.80766
0.120518
5.221
0.224653
0.637814
0.0513568
0.042231
0.0218944
0.0362107
0.0329878
0.0220515
5.38408
0.0218071
0.0219562
0.0220021
5.12923
0.0255475
0.0218162
0.0218299
0.0219747
0.131555
0.0890465
1.11315
0.0227086
7.00496
0.0215195
0.0219345
0.0779754
0.0696723
0.0215046
4.92032
0.0416498
4.65589
0.0219893
10.3217
0.0620909
0.0219392
0.0220604
0.0219683
5.29512
4.7873
9.32633
0.0219856
0.0222099
0.021577
4.65882
0.0282008
0.0220654
0.650473
0.0219512
0.0226071
5.18489
0.0216049
0.0219631
0.0220709
0.0221211
0.0214841
0.0224204
0.0215188
0.0222305
0.0763298
0.0396428
0.0218393
7.98858
0.0238528
4.84067
9.5954
0.050769
6.50457
4.65897
0.0218
0.0418939
0.0220295
0.0218366
2.33093
0.0261677
6.60111
0.0272791
0.124963
0.0220681
0.0232092
0.0219181
5.13896
0.0433595
5.7244
0.0220504
0.10762
0.0293762
0.0218044
0.037249
0.0405306
0.0215498
8.77612
0.0221016
0.0413429
0.0220089
0.0304713
0.0492033
0.190499
0.0265685
0.0758697
6.01228
0.0303031
0.040737
0.0216013
5.42977
0.0579047
0.0222716
0.0716082
3.22981
17.7002
0.0219775
0.022917
0.0221731
0.0215875
0.0219379
4.86993
0.0286278
0.0220827
9.44179
0.0221155
0.0215893
0.025735
4.86939
0.0221817
10.4005
4.95285
0.102052
7.63803
0.022636
4.66072
1.56819
0.0216151
0.02926
0.0220293
0.0223315
0.038647
7.83822
0.0606102
0.905109
0.382894
0.0218971
6.61833
0.0219118
5.18563
0.0222681
29.8303
5.22078
0.0221609
0.0217552
0.0222788
0.0331499
0.0788961
0.0219706
16.2847
0.0229926
0.0428239
0.0742128
0.0230982
0.0219218
5.32927
0.0217575
0.198634
0.0293285
18.3796
0.0221282
0.0218922
5.1771
0.0214643
0.021758
0.0225643
0.0586384
0.0506039
0.233745
0.0242328
0.0217586
0.025242
0.022272
0.0224665
5.34481
0.0219414
0.0484544
6.67464
0.177394
0.021962
0.0823196
0.0218575
0.0222089
0.435518
0.237993
0.0822863
0.0222395
0.0219617
0.0246689
0.0814054
0.0218722
0.0304528
0.0218959
0.0222402
0.0218467
0.0220196
5.09303
0.0215564
10.9544
5.49519
0.0251331
0.021678
5.32688
6.73471
0.0217915
0.0219773
13.8526
0.0222678
0.0644736
0.22502
1.2142
0.0219237
0.0227596
0.0485062
0.0219841
5.66918
0.17838
0.0217999
0.0312223
0.0382007
0.022089
0.298334
0.0221543
0.0505234
0.0228995
0.0249249
0.0215315
0.0218933
0.24011
0.0219437
6.78379
0.0707596
0.022007
0.0219977
0.0219839
0.0218767
5.53409
0.0222717
0.171564
0.0219095
0.0218509
0.0549706
5.226
0.0217697
0.0215557
0.0219346
0.0225505
0.0301806
0.0303417
8.09996
0.0288627
0.0218431
0.136197
4.9053
0.0222233
0.0314577
5.28822
0.0358411
0.0224159
5.11939
0.0214841
7.84541
0.0444319
0.0220654
0.0813612
0.0218584
0.0219365
0.0219131
5.05826
0.0220258
4.15106
4.84229
1.03283
0.0297186
0.0219657
5.18343
0.022278
23.6516
0.021717
0.324368
0.0257297
0.0894248
0.0226302
4.4213
0.0293161
0.0222246
5.59423
6.6455
0.0215585
4.48172
0.0219884
0.0311008
0.021736
30.2439
0.602964
0.0222602
0.0219996
4.89902
0.291193
0.0218581
0.0233888
0.0220294
0.0218096
0.0217083
0.0239509
5.38339
16.2745
0.0224182
0.21243
0.0235513
0.0700714
0.0220013
29.6873
5.28113
8.0023
0.0227065
5.77942
7.00408
0.024838
0.0305238
0.0218846
0.0543057
6.15882
0.022173
0.0217089
0.0217638
0.0275166
0.0215833
0.0219859
0.806715
0.0230295
0.20548
0.0220317
0.0219718
0.0224541
0.0220433
0.161413
13.3418
0.0217911
0.0441915
0.0215431
4.7793
0.0218052
0.024169
6.33607
2.68346
0.0261925
5.20168
0.416178
0.0220671
0.0607132
0.0220977
0.0334407
0.0222351
0.0219285
0.135699
0.102812
4.76456
0.11075
0.0348907
5.64228
0.0231545
0.0414792
0.0227372
5.63134
4.87499
4.83102
0.0219613
0.0215173
7.64801
4.96145
0.0221304
5.28108
0.0221392
0.0269165
0.0214945
0.0218683
0.0218096
0.0218229
0.224218
0.0407818
0.0385139
0.0219778
0.0220195
0.0216407
0.0218276
0.021817
0.0222629
0.0219368
4.68306
5.26749
4.7455
0.0236479
7.81337
0.0550156
5.85553
7.87878
0.0550325
0.0221133
0.0222355
0.201974
0.0223603
4.75611
9.5721
0.02258
0.0216982
0.0315001
4.89964
0.0219948
7.89848
0.0218427
0.0221004
6.61429
0.0219387
0.0286417
0.0221655
5.17592
0.0215818
0.0219538
0.214527
0.0216186
0.0220558
0.0218769
0.0216983
0.0677504
0.0219086
21.8763
0.0220214
0.0222175
0.0214751
7.40443
0.034193
0.0221766
5.69778
0.022086
0.0215588
0.223353
4.61689
0.0221016
6.97304
5.06339
0.0264232
5.24498
0.0221116
0.0219567
0.0981626
0.0216673
5.95855
5.08622
0.0214909
0.0262009
0.0218791
7.61922
4.35908
0.0444794
0.0221445
0.926942
0.0363316
0.0509645
0.0268768
0.0220291
0.0225406
0.021907
0.0218108
5.7808
0.0214522
0.0218128
0.0417957
5.98228
0.076434
7.84672
0.0220147
0.04214
0.0218836
0.0219847
0.0220884
0.0217585
0.0221532
0.0219236
0.0221005
0.0221728
0.0243121
0.0219565
0.0221456
0.0216805
8.22486
7.27126
0.0221926
0.0227606
5.12593
0.0222103
0.125173
5.71806
0.578943
6.2528
0.79497
6.17183
9.17773
7.92718
0.0217662
0.0302667
0.0218753
0.0495964
0.0246596
0.0222241
0.0217819
9.50066
0.0216282
0.0298178
12.8689
0.0215859
0.0217251
0.0754656
0.021699
0.021884
0.0218822
0.0221653
4.8661
7.81303
0.0220345
0.021955
0.0220561
0.0228141
0.0432887
0.0228598
14.2307
0.221899
0.0221949
5.36241
0.0323617
0.0219512
7.61896
0.0215928
0.055903
0.0217734
0.02237
0.022359
4.72148
0.0219462
0.0219623
0.0239479
0.0223164
0.0305362
0.0218197
5.67867
0.0396701
0.0442906
9.41856
5.54878
0.107065
0.0334346
5.13943
0.0219803
0.0220016
0.0253266
4.83648
0.0576857
0.0488405
9.20779
0.0219754
3.27397
0.244663
1.36039
0.0219988
0.0359919
0.0218806
0.12014
0.033404
0.604991
5.76526
0.0220136
0.0355219
0.0276622
0.0219102
0.990026
0.0219724
0.0308171
0.1565
0.0841933
0.0219606
0.0222948
0.0222288
0.0548565
0.0219502
0.0221746
0.0219685
0.0220779
0.0216578
0.0380206
0.021545
0.729227
4.8228
0.0224871
0.0217462
0.0215575
0.0425218
0.0346154
0.0221257
6.12072
0.0499206
0.0217652
0.0218178
6.06665
4.7936
0.0219379
0.188899
0.0349141
0.0220067
5.8624
0.0225922
0.0719679
0.0222341
13.7923
5.35866
0.0222563
0.0355002
5.36134
0.0347297
7.08154
0.0222395
0.0253816
4.70529
6.92592
0.025333
0.0253333
0.0225197
0.024392
0.0228489
7.08099
4.80792
5.21191
0.0234001
0.0219572
0.0578942
0.0218887
0.240355
0.0248008
9.50227
0.0215767
0.0221894
0.0217525
0.0218969
0.0218461
0.0773896
7.87269
0.029965
0.0216164
0.0221036
9.85233
0.0235049
0.0237971
0.0221558
0.0358978
7.51594
0.021702
0.0218475
0.0403339
0.0792338
0.022114
0.0416397
0.0223131
0.023653
0.127538
0.028648
6.9533
0.787489
0.0472679
11.4591
0.0218582
0.0218815
0.0230674
6.58149
0.0231981
2.8126
0.0216925
5.16019
0.0359646
0.0218691
0.0300737
0.0222616
4.87049
0.0547461
0.0304451
0.261782
0.10829
0.0221515
0.0222013
0.0222286
0.024923
5.16295
0.0554598
0.0221029
0.182132
0.0218422
6.50011
0.0219602
5.96141
0.0293602
6.83389
0.790864
0.0581981
0.0219738
0.0220048
0.0218699
5.49562
0.0219718
0.0534045
5.22411
0.0215332
8.97831
0.0328424
0.0219651
0.0847643
0.0219159
0.0218247
5.09739
6.98247
6.93503
0.0219023
0.0217605
0.0227144
0.0243761
0.0229663
0.0219423
10.1163
0.0846053
3.90666
0.0225317
0.0423658
2.22944
1.34544
0.030168
0.0217501
5.75562
0.022898
4.9746
0.0218894
0.022026
0.0219819
0.0217135
0.0215313
0.0222142
0.0217859
0.0369136
7.46598
0.0353946
4.91326
0.0249956
0.0222093
0.0221241
0.428261
0.0220228
0.0225077
0.0220421
4.7964
4.9602
0.0217814
0.023565
0.0218689
0.0219763
0.0222784
0.022061
0.0219077
0.924325
0.0222176
0.0217912
0.12365
0.0218234
5.43304
0.081268
0.0972426
0.179146
0.0240613
0.0220772
5.14101
0.0220491
0.0836891
0.0295484
0.021779
0.0494982
0.0220648
6.65643
0.0216074
0.0217911
5.06213
0.0546453
9.17074
0.0217518
0.0853268
0.150294
0.0316907
5.18991
0.0218823
0.0217375
0.0216155
0.0918943
0.022764
0.877272
0.0220029
0.0416164
6.85705
0.188519
0.0220132
0.908449
0.0252921
7.44844
0.0234716
0.0234423
0.024024
5.52446
0.0219698
0.0223474
5.79122
0.0215639
0.0261165
0.0218147
0.0468117
4.91643
7.6442
0.021843
0.0975448
0.0220012
0.287205
0.0220149
0.0224112
0.0963759
22.6863
0.0393948
0.0219935
0.025349
5.59167
0.0576308
0.078579
5.34942
0.0220201
10.7962
0.0229499
0.162586
0.0217859
0.0251574
7.06736
0.0254099
0.0219222
0.459136
7.63838
5.63521
0.0216974
4.8935
1.08392
0.0216173
0.143215
9.91771
0.0222782
0.0228272
5.10994
0.0214967
0.0223687
0.0218303
0.0220631
0.104159
0.0800199
0.0363616
5.45376
0.0222712
0.0584075
0.029693
0.0221671
0.0232356
0.0355281
0.0219643
0.0222274
8.94667
5.45705
9.06588
0.0216747
0.0374269
0.0221366
4.70944
0.0220949
0.0412933
8.16317
5.69184
0.0674148
0.0219567
0.730217
5.18325
0.763921
0.0219986
0.0221253
0.0218356
5.66908
0.0375017
0.135905
7.10029
0.0220376
0.0222113
5.01602
0.0286491
0.0849266
0.0221748
0.0218881
0.021978
1.08599
0.0220309
0.0558172
0.0217507
0.0221104
0.0217937
5.85097
4.87946
0.0237195
0.535281
0.0229843
0.943865
0.0219216
0.0219062
0.0823671
0.0220672
0.0219345
0.0253682
0.104435
0.0292984
0.127682
0.0220023
0.0651336
4.95967
0.0220963
0.0220148
0.0220266
4.83292
0.0453484
0.0469103
0.0828828
0.0217641
0.0218513
0.141147
0.0259462
7.87118
9.97074
0.0358789
4.71575
4.38089
5.29424
0.0547646
0.0222727
0.0219999
0.267789
5.82797
0.0218781
0.0380448
5.79569
0.0221067
0.202768
1.37739
0.122542
0.0219329
0.0970026
0.0221351
0.0221056
0.0216257
0.886293
0.0221013
0.058699
0.0392793
0.0219839
0.0221847
5.195
0.0217741
0.0215925
0.0471919
2.68005
0.037905
0.0220201
0.0398844
6.599
5.15757
0.028436
6.42979
0.0848971
0.120219
0.0588275
0.022096
0.153274
0.033005
0.0216494
0.0217183
0.0223097
0.026001
0.290219
4.8695
0.0222184
4.42657
0.0752754
2.83374
12.3281
0.261349
4.70479
0.120137
4.8852
0.0484758
4.8325
0.0598304
0.0219781
0.022084
6.89874
5.1643
0.108248
5.53602
0.0218062
6.50442
4.97621
0.0220342
0.0216433
0.0375381
0.0602313
5.68367
9.06108
0.111055
0.0218725
0.0218117
0.022218
9.5088
0.0254138
4.84764
0.0246409
24.7492
0.173152
5.49201
0.0278467
5.12231
0.0218009
0.0215908
0.0257616
0.0221644
6.965
0.126799
4.7085
0.0220623
6.01424
5.33091
0.0215464
0.0422878
4.95677
0.0433923
0.0218704
0.0264004
0.021975
4.63726
0.0214585
0.022303
6.99807
0.0294061
0.0488982
0.0276653
0.0218144
0.0221918
0.0417212
0.0220465
0.0216468
0.0218356
0.0302463
5.34174
3.28574
0.0219749
0.132108
5.66072
0.0221162
7.05539
5.93055
0.0221014
10.6158
0.0220729
0.0878293
5.1925
0.0219702
0.022167
0.0221586
0.0916763
0.0261503
0.0218599
5.17457
0.0219507
8.31558
0.0220401
7.23317
5.15922
0.0249383
0.0217341
0.144219
0.0773407
0.154528
6.40069
0.0442344
0.0221611
5.04157
0.0224493
0.0799298
0.0688947
0.0299604
0.0624158
0.0218835
0.128176
5.61454
5.31957
0.11666
0.0218876
0.178759
4.66496
0.0222719
0.214571
0.100673
0.89047
0.0219587
0.0249478
0.0215041
0.184178
6.44323
0.0951572
6.33818
0.0854988
0.0383833
4.96294
5.02487
5.65204
1.84934
9.78112
0.0664727
12.6266
0.0531807
5.29448
7.1117
0.0233041
0.0223166
0.027067
0.0583141
0.021997
0.0261203
0.0222616
0.0242978
0.0220041
0.0218708
8.19786
5.44607
0.0222038
0.0507165
0.022106
0.0217946
0.0236471
0.076301
0.0233582
0.0908516
0.0221491
0.0434699
1.93084
0.102026
0.0459794
0.0219751
0.100371
0.0222204
0.0219271
0.622673
0.022861
5.12601
0.156652
0.0219382
0.0243789
4.99029
0.0220734
0.0959927
0.0566695
0.0599392
0.0264891
0.0369847
0.0220082
0.0221682
4.90639
9.16149
0.0356765
0.0754388
0.0220412
5.51997
0.0254934
7.16028
0.0790614
0.0221095
0.021676
5.84127
0.165518
5.75086
0.0280428
6.95892
0.0226038
5.12072
9.72055
0.0307853
0.150355
0.0218557
7.30055
0.0221844
11.4775
0.0286687
5.23503
5.40271
4.73106
5.06107
0.0360727
8.27459
0.158521
0.0481769
5.07001
5.17731
4.98395
0.0217113
0.0257795
0.0746596
8.70791
0.0218771
0.0217859
0.0296983
0.0613212
11.3301
0.0587753
0.0449704
0.0219369
0.119117
0.0215483
0.166086
5.37583
0.641368
0.0217796
6.97038
0.0675047
0.0225208
5.36298
2.51476
0.0268668
5.04589
4.72529
4.72551
0.0559559
0.0218422
0.0288913
5.88321
0.0375019
0.0219797
7.36256
0.0214991
7.05231
0.0232325
0.0221545
5.10317
4.70163
0.0218313
0.0510581
0.021956
8.43439
0.0215096
5.02649
0.15631
0.0427435
0.0219066
0.0220033
0.0221612
0.0382261
0.0551064
0.117577
0.0291122
6.78649
0.0347253
0.0253405
5.46433
4.72863
0.0216415
0.158554
0.0219301
5.23014
0.0220755
0.0430087
5.82034
0.0276534
0.0219322
4.93528
0.0222811
0.022255
0.0462291
0.0222782
0.0218944
5.60155
0.0667242
6.7573
0.0222787
0.114871
0.085815
0.0216416
0.0219371
0.0235925
0.0218372
4.98889
2.73339
4.64075
5.21811
4.95217
5.12302
0.0219202
0.0220238
0.0219481
0.0221143
0.111434
8.01342
0.0305091
0.0247603
4.88584
0.0222551
0.0217695
2.16379
0.114958
0.0214738
0.0219732
0.02188
0.189418
0.0217563
0.021925
0.14692
0.0341025
0.106379
0.0239106
5.26143
5.17311
0.0214656
0.0217166
5.37162
0.0340311
0.0251065
5.44463
0.0358219
0.119941
1.93053
0.0234913
1.25395
4.89345
0.0215427
0.0257246
5.59419
0.0251303
0.0220103
1.32192
0.0542288
0.0565228
0.0221674
0.369966
0.0238554
4.96311
0.022047
0.0219787
0.0334011
0.0625834
7.88931
0.0358358
0.0219354
25.5265
5.22559
0.0239215
0.072677
0.02203
0.0219094
0.0217453
5.46775
0.0218514
7.15861
0.230209
5.30436
5.69633
0.0353235
5.17771
0.0331038
7.89732
1.90821
0.104122
0.569346
0.0726786
0.0947258
5.60662
0.0505132
0.0220037
0.0220587
16.66
0.0400548
0.0229859
0.0221456
5.34383
9.84749
0.0220938
5.00543
9.35304
0.0698188
0.644345
0.0404945
0.0404399
0.0430489
0.100576
4.90587
0.0276222
0.194164
0.223373
0.0217578
0.114077
0.0279372
5.20871
0.0633478
0.0219642
0.231972
0.0646111
0.072296
0.569812
0.0225391
4.72332
0.201879
10.3386
6.00767
0.0221838
0.0220113
0.0218908
6.24349
4.78295
0.084338
0.157365
0.0218507
0.0217305
0.0225507
0.0847637
5.03067
0.0515768
7.87234
0.0715317
0.396435
0.705339
0.0217614
0.0536318
8.87924
7.38851
5.4392
8.6317
5.03153
0.022218
4.63564
5.31392
4.70141
5.15729
0.0219492
5.08124
0.0225835
4.76141
0.0274449
12.6891
12.117
5.8085
0.0221573
0.0219925
0.0705306
0.0237421
0.107831
0.0222726
0.0490839
0.0482086
0.0217996
0.022001
0.0343615
0.0219309
8.49415
0.0218867
0.0230336
5.30923
0.0703983
5.95603
0.105568
8.37625
0.0219215
0.02198
0.0222258
4.94027
7.90461
0.0220237
0.0488941
7.82106
9.51251
0.0218936
5.10777
4.77096
0.0218012
5.04659
0.0219107
0.0407025
0.0220103
0.0579539
0.0220699
0.129207
5.95878
0.021843
0.0221593
7.79706
0.0355946
0.0216923
0.0220973
10.1491
0.0218745
0.0221494
4.68067
9.37154
5.9047
0.0838115
0.0219398
4.74138
5.3123
0.707554
0.0221665
0.0969805
0.0666216
0.0219312
0.217775
0.0218056
0.0218115
0.0218192
0.0550049
7.59724
5.19762
0.0422098
0.149529
0.0218709
5.93523
0.0218093
0.0279832
0.0467283
0.0233817
0.050946
0.036059
0.0218591
0.112246
7.5109
0.0583217
18.9655
7.88502
0.0619544
0.0219525
0.0251
0.229231
0.0294789
0.0221945
0.102393
7.64037
0.0217035
7.17612
0.0290455
0.0219445
0.778556
5.7076
5.17596
0.0219768
0.0268798
0.0248301
0.0554987
0.0485189
0.0218647
0.0219638
0.113959
1.1689
5.40108
0.0275041
0.0222783
0.0217357
0.167072
0.022025
5.22945
0.022273
0.0409748
8.17426
0.198567
5.92435
0.0220487
6.83801
4.79073
7.04424
0.0220017
0.0222078
0.0520914
3.72946
0.0218257
6.69522
0.0218761
0.0214991
6.62924
0.0221842
0.0540679
0.0278696
0.0228473
0.0318243
0.0293598
0.0673261
0.0466116
0.0398372
20.8205
0.174509
6.14397
0.0471793
0.0343569
0.0568554
5.44013
0.169654
0.0277073
0.0220785
5.15045
0.0226691
0.935336
0.204232
0.493387
0.0216885
8.04949
0.0220538
2.11606
0.0225277
0.876427
5.22427
0.0496864
11.5257
4.7989
8.13058
5.13116
6.62415
0.0639173
0.0219467
0.021795
0.853482
0.0218028
0.0219165
0.0219813
0.0405945
0.023365
0.0343669
10.1845
8.46167
0.113064
0.0276943
0.0273434
0.0215776
0.025406