/*--------------------------------*- C++ -*----------------------------------*\
| =========                 |                                                 |
| \\      /  F ield         | OpenFOAM: The Open Source CFD Toolbox           |
|  \\    /   O peration     | Version:  v2012                                 |
|   \\  /    A nd           | Website:  www.openfoam.com                      |
|    \\/     M anipulation  |                                                 |
\*---------------------------------------------------------------------------*/
FoamFile
{
    version     2.0;
    format      ascii;
    class       volScalarField;
    location    "500";
    object      k_0;
}
// * * * * * * * * * * * * * * * * * * * * * * * * * * * * * * * * * * * * * //

dimensions      [0 2 -2 0 0 0 0];


internalField   nonuniform List<scalar> 
18355
(
0.000270101
0.00013707
0.000200486
0.000140889
0.000219366
0.00503057
0.000146251
0.000219466
0.000151886
0.00358329
0.00015839
0.000192335
0.000194013
0.000333692
0.00014281
0.000135524
0.000140872
0.00015409
0.000209753
0.000152451
0.000336183
0.000149114
0.000136932
0.0049321
0.000137003
0.000149067
0.000146521
0.000141003
0.000152584
0.000159661
0.00189558
0.000185336
0.000137811
0.000134314
0.000145002
0.000150636
0.000159934
0.000150955
0.000160498
0.000148388
0.000151206
0.000159456
0.000134486
0.000136882
0.000136983
0.000232042
0.000141117
0.000140992
0.00125124
0.000144786
0.000142196
0.000517031
0.000145181
0.000212324
0.00014309
0.000152772
0.000144788
0.001101
0.000149706
0.0133003
0.00013442
0.000181361
0.000211831
0.000145251
0.000196614
0.000140224
0.000154817
0.000160067
0.000134001
0.00712394
0.000142166
0.000143119
0.000176762
0.000155828
0.000581835
0.000134175
0.00126507
0.000134281
0.000141869
0.000760027
0.000154717
0.00253069
0.000134107
0.000157122
0.000182817
0.000149379
0.000153254
0.000173768
0.000140423
0.000174063
0.000506283
0.000299321
0.00264845
0.000144728
0.0106419
0.000147841
0.000139993
0.000145418
0.000185765
0.000148721
0.000180561
0.000141549
0.000144378
0.000130542
0.000155291
0.000135635
0.000196123
0.0110485
0.000166732
0.000135137
0.000141686
0.000147125
0.000168497
0.00015655
0.000346029
0.000161909
0.000141286
0.00211875
0.000152598
0.000154327
0.00714875
0.00019804
0.000655257
0.000178623
0.00233462
0.000241226
0.000146501
0.000141222
0.000274572
0.000147624
0.000140064
0.000583724
0.000143389
0.000182275
0.000210432
0.000140479
0.000208903
0.00849373
0.000142358
0.000316872
0.000157256
0.000246776
0.000140854
0.000519164
0.00021124
0.000146536
0.0218526
0.000131403
0.000168123
0.00563424
0.000140927
0.000154166
0.000144932
0.00019146
0.000134604
0.000138271
0.000141391
0.000149277
0.000140929
0.000139301
0.000155215
0.0001435
0.0001352
0.000231257
0.000156804
0.00236367
0.0225159
0.000299424
0.0163254
0.000157229
0.000146266
0.000181317
0.000148363
0.00100601
0.000145378
0.000150576
0.000146393
0.000130226
0.000151525
0.000163701
0.000149632
0.00200402
0.000148465
0.00014127
0.000924281
0.000144252
0.00015022
0.000173502
0.000143306
0.000147163
0.000234417
0.000185083
0.000137336
0.000134837
0.000143812
0.000975795
0.000139378
0.000298085
0.000137168
0.000340885
0.000143952
0.000152027
0.000160781
0.000149413
0.000292896
0.000146863
0.0151974
0.000141237
0.000137267
0.000144448
0.000146723
0.00298836
0.000153961
0.000148503
0.000131567
0.0010039
0.000163798
0.000156802
0.000147057
0.000141237
0.00016564
0.000134067
0.000171681
0.000184974
0.000226439
0.000160872
0.000134252
0.00715026
0.000248114
0.000171584
0.000145042
0.000155329
0.00414671
0.00013423
0.000230246
0.000176519
0.000149185
0.000236095
0.000155627
0.000148704
0.000137404
0.000151257
0.000146234
0.00016966
0.000146866
0.000143095
0.000140928
0.00286711
0.00495938
0.000142791
0.000147852
0.00501189
0.000197642
0.000183457
0.000130258
0.000234269
0.000155653
0.000147401
0.000160021
0.000139619
0.00562611
0.000327432
0.000183128
0.000161436
0.000161785
0.000211754
0.000248758
0.000188214
0.000139573
0.000143136
0.000148369
0.000135209
0.000152167
0.000157053
0.000140654
0.000146778
0.000166467
0.000140335
0.000198053
0.00573544
0.000162685
0.000146963
0.000163132
0.000135084
0.000173872
0.000146221
0.000165264
0.000148646
0.000164129
0.0050537
0.000137532
0.000172036
0.000152225
0.000158739
0.000241567
0.00014517
0.00013464
0.000195625
0.000146759
0.000261282
0.00015987
0.00833105
0.000173973
0.00018362
0.000152726
0.000168653
0.000144365
0.00015421
0.000160947
0.000172127
0.00171274
0.0104367
0.000142162
0.000159538
0.000206727
0.000164251
0.000142093
0.000140926
0.00014095
0.000172611
0.00884599
0.0555852
0.00163524
0.000165331
0.000156639
0.00241675
0.000131298
0.000146641
0.000156577
0.000144152
0.000171719
0.000144208
0.00370162
0.000135941
0.00288752
0.000143516
0.000148208
0.000153562
0.000196307
0.00032114
0.000169806
0.0011577
0.000148942
0.000140538
0.000144039
0.00015849
0.00413763
0.000140755
0.000145325
0.00343416
0.000148651
0.000140868
0.000199304
0.000156254
0.000140941
0.000144377
0.000166538
0.000151796
0.000166398
0.000135626
0.000145269
0.000148499
0.00522699
0.000888812
0.000135326
0.000140669
0.000192977
0.000141017
0.000148009
0.00266935
0.000970272
0.00017021
0.000143876
0.000149413
0.000194195
0.000148923
0.000242368
0.000154336
0.000136723
0.00019323
0.000208499
0.000148018
0.000144142
0.000154293
0.000146275
0.000155365
0.000143762
0.000215238
0.000146405
0.000153589
0.000142655
0.000141
0.000151886
0.000150119
0.000177214
0.0566812
0.00199816
0.000154078
0.000197296
0.000181634
0.00014373
0.000143818
0.0001706
0.000143321
0.000172257
0.000145464
0.000159162
0.00226695
0.000616316
0.000315816
0.000186574
0.000130673
0.0463371
0.000148731
0.000140584
0.000357815
0.000143087
0.000175915
0.000137392
0.000203422
0.000143054
0.000180279
0.00506236
0.000180946
0.000144094
0.000137574
0.000181679
0.000152611
0.000142776
0.00301241
0.000285451
0.000140524
0.00017101
0.000177307
0.000137496
0.000149496
0.00016786
0.000172532
0.00017197
0.000148644
0.00014471
0.000167613
0.000144551
0.000136128
0.000143642
0.000325964
0.0550763
0.000136505
0.000151388
0.000145124
0.000198153
0.000205949
0.000134843
0.000175853
0.000171959
0.000145246
0.00101976
0.000181341
0.000148686
0.000145997
0.000170939
0.000200134
0.00252229
0.000136284
0.000349286
0.000142862
0.000136495
0.000176166
0.000153023
0.000219379
0.000176837
0.000153951
0.000156832
0.000149147
0.000197801
0.000153062
0.000160113
0.000148941
0.000136041
0.000147956
0.000136242
0.000180916
0.0568855
0.000203009
0.000154883
0.000147038
0.00014893
0.000145865
0.000152781
0.000146461
0.00013551
0.000143714
0.000173934
0.000137522
0.000146369
0.0190062
0.000296149
0.000207924
0.000147453
0.000150914
0.000168027
0.00014893
0.00592104
3.2962e-05
0.000158321
0.000157288
0.000157728
0.000150538
0.000154543
0.0388362
0.000168153
0.000149376
0.00502776
0.000146931
0.00031005
0.0446408
0.000156262
0.000149231
0.0412125
0.00014072
0.000179782
0.000186599
0.00214801
0.000153058
0.000147809
0.00014513
0.00178633
0.00180754
0.00166456
0.00343573
0.000152335
0.000144992
0.000157123
0.000143156
0.00015693
0.000322198
0.00187777
0.0580262
0.0165696
0.000171411
0.000181984
0.000170466
0.000141184
0.000142183
0.000176134
0.000157244
0.000146425
0.000143104
0.00351183
0.000139906
0.0143785
0.000162431
0.000180462
0.00019615
0.000142233
0.000156543
0.000284582
0.000143675
0.0588916
0.000143489
0.000275508
0.000168272
0.000149211
0.000169948
0.000187283
0.000187833
0.000150241
0.000134015
0.000166582
0.000156582
0.00018095
0.000143489
0.000181863
0.000139854
2.53686e-05
0.000146228
0.000143529
0.000212897
0.000187535
0.000188253
0.000144305
0.000158056
0.000155818
0.00349577
0.0574897
0.000155637
0.000217485
0.000145299
0.000162904
0.000148179
0.00015529
0.0530518
0.000136799
0.00192842
0.000146659
0.000145814
0.000155889
0.00587116
0.00015194
0.000203375
0.000149223
0.000166296
0.00544763
0.000131428
0.000140993
0.000279191
0.000173362
0.0179649
0.000178133
0.0001477
0.000143117
0.000142558
0.000155825
0.000149349
0.000136624
0.000229169
0.000604124
0.000143315
0.00137272
0.000146037
0.000156656
0.000216069
0.000136343
0.000258003
0.00169088
0.00013245
0.00547755
0.00016925
0.00893707
0.00364307
0.00014329
0.0001425
0.000148343
0.0014451
0.000172103
0.00014453
0.000149034
0.000225952
0.000148481
0.000169843
0.000143296
0.000167972
0.0555431
0.00124874
0.00024272
0.00104523
0.000175224
0.00112079
0.000157294
0.00014053
0.000160692
0.00342891
0.000197496
0.000171045
0.000144294
0.000242163
0.000145304
0.000147951
0.0398683
0.00014909
0.000161655
0.000192877
0.000199264
0.000144592
0.000142869
0.000155737
0.000158885
0.000134183
0.000146186
0.000172389
0.000216184
0.000153453
0.000145347
0.000176647
0.00546826
0.000143712
0.00079259
0.000534873
0.000145139
0.000499602
0.0001348
0.000198814
0.000143668
0.000138424
0.000212251
0.000153576
0.000428613
0.000153101
0.000142885
0.000803323
0.00014364
0.00013496
0.000145642
0.000140625
0.000162532
0.000171924
0.000325336
0.00015179
0.0588849
0.000152402
0.000628899
0.0055228
0.000149647
0.000143985
0.000158051
0.000136554
0.000186288
0.000142445
0.000134822
0.000135658
0.000144334
0.000143597
0.000236291
0.000155834
0.00017331
0.000152595
0.000159285
0.000154463
0.000172946
0.000321041
0.000137443
0.000180665
0.000179051
0.000134423
0.00270355
0.0555594
0.000141771
0.000346257
0.000145254
0.00415674
0.000166154
0.000132255
0.00016687
0.000159763
0.000499092
0.000142545
0.000154931
0.000707876
0.000212484
0.000569835
0.000143566
0.00214769
0.000180249
0.000255426
0.000143499
0.000152322
0.000142982
0.000146042
0.000141981
0.000144379
0.000136808
0.00038561
0.000166365
0.000141167
0.000134242
0.000140099
0.00014837
0.00020753
0.000179678
0.00013752
0.0001589
0.000146615
0.000146832
0.000145532
0.000140771
0.00021373
0.000134259
0.000140199
0.000149788
0.00014721
0.000153796
0.000145692
0.000265426
0.000300767
0.000155903
0.00014005
0.000199077
0.000134707
0.000134328
0.000145506
0.000666336
0.000155055
0.000144611
0.000135916
0.000137227
0.000156733
0.000133933
0.000158591
0.000142346
0.000148238
0.000141895
0.000152125
0.000379028
0.000140468
0.00014884
0.000143501
0.000212126
0.00232987
0.000159119
0.000149343
0.000182026
0.000163617
0.000212294
0.0339482
0.000149619
0.00158977
0.000148947
0.017124
0.000150433
0.000136995
0.000135811
0.0104888
0.000135469
0.000159356
0.000223095
0.00020331
0.000180229
0.000153962
0.000142452
0.000143056
0.000143534
0.000160515
0.000188365
0.00335109
0.000174206
0.000145427
0.000133959
0.000154941
0.000141838
0.000140796
0.000148458
0.000173451
0.00016146
0.00260335
0.000145346
0.000144378
0.000172853
0.000143166
0.000200234
0.000174396
0.000176233
0.000192553
0.0135098
0.00016292
0.000141141
0.00013403
0.000147584
0.000142929
0.00670727
0.000172001
0.000185331
0.000136969
0.000147054
0.000153843
0.000141035
0.0310915
0.000255274
0.000134351
0.000135826
0.000143365
0.000142016
0.000140819
0.000144368
0.000225415
0.000134853
0.000149743
0.000136983
0.000137878
0.000142106
0.00014582
0.000158619
0.000137834
0.000181857
0.000135882
0.00215438
0.00022009
0.000153492
0.00207878
0.000153633
0.000148785
0.000178247
0.00193273
0.000144504
0.000140337
0.000137029
0.000172664
0.000151115
0.000162816
0.000681893
0.000146254
0.000149506
0.000144638
0.0175788
0.00107245
0.000151918
0.00013972
0.000157906
0.000173629
0.000142269
0.000186774
0.000140286
0.000134027
0.000156156
0.000311568
0.00448627
0.00328676
0.000226212
0.00013467
0.000219943
0.000211836
0.000160097
0.000143515
0.000212019
0.000158314
0.000238966
0.000340222
0.000141644
0.000134734
0.000144681
0.0001498
0.000134875
0.00172604
0.00297535
0.000134632
0.000146466
0.000149039
0.000167818
0.000144047
0.000141972
0.000184835
0.000148653
0.000142477
0.0023092
0.000186842
0.000182199
0.000142752
0.000135983
0.000134851
0.000145656
0.000172525
0.000201757
0.000140522
0.000139152
0.000153314
0.00188394
0.000137073
0.000143925
0.000187524
0.000140902
0.000139189
0.000143599
0.00678245
0.000135802
0.000144467
0.000137141
0.000153181
0.000135793
0.000158809
0.000195464
0.000143959
0.000210502
0.000163113
0.000216584
0.000179134
0.000140829
0.000161518
0.000140421
0.000139064
0.00014084
0.00417199
0.00465782
0.000240175
0.000160044
0.000518679
0.000178593
0.00015019
0.000187719
0.00020162
0.000155677
0.00013564
0.00308576
0.000150144
0.000140791
0.00013798
0.00176576
0.000828735
0.000339038
0.000138896
0.000182731
0.00191714
0.000177018
0.000165774
0.000155717
0.000153696
0.000165441
0.0031685
0.000151594
0.000150288
0.000157162
0.0400485
0.000287443
0.000143968
0.000146618
0.00014309
0.0226653
0.00015313
0.000148672
0.00045552
0.000158731
0.000175463
0.000155645
0.00536766
0.000138595
0.0168746
0.000149842
0.000135891
0.000141202
0.000135639
0.000135948
0.000140712
0.00014799
0.000216704
0.000138158
0.017593
0.000159289
0.000147495
0.000141278
0.000186226
0.000143311
0.000146402
0.000155992
0.00255074
0.00018964
0.000153578
0.000146423
0.0446654
0.000138561
0.00017568
0.000146203
0.000353617
0.000167014
0.00583595
0.00016004
0.000142784
0.00024326
0.000836292
0.000240323
0.000137672
0.000143533
0.000167243
0.0537673
0.000130928
0.000176613
0.000143525
0.000157786
0.000140369
0.00013485
0.000149033
0.000150056
0.000135287
0.000175829
0.00017408
0.000160955
0.000192739
0.00457668
0.000150375
0.00154185
0.000136271
0.000186219
0.00868897
0.000201331
0.00013464
0.000149095
0.000145972
0.00394824
0.000144274
0.000140569
0.000181859
0.00014627
0.00014622
0.000151052
0.000149635
0.000142898
0.0473609
0.00635348
0.000178393
0.000139155
0.000145249
0.000240244
0.000136197
0.000293767
0.000147054
0.00014577
0.000149251
0.000157911
0.000226638
0.00014144
0.000145109
0.000365297
0.000146899
0.00014846
0.000167383
0.0256604
0.00318466
0.000144387
0.000143181
0.0541454
0.00353614
0.000272487
0.000140404
0.000165189
0.000212047
0.000137814
0.00020992
0.000151669
0.00408099
0.000154665
0.000145997
0.000150569
0.000135482
0.053271
0.000144984
0.00013906
0.00198869
0.000195008
0.00107589
0.000135107
0.000151988
0.00013559
0.000131995
0.000136169
0.000150183
0.000146601
0.00014858
0.000135511
0.000148213
0.000176052
0.000159117
0.000160986
0.000140364
0.000153554
0.000141942
0.00465811
0.000147285
0.000149932
0.000148204
0.000135829
0.000148398
0.000147924
0.000143729
0.000143253
0.000141019
0.000136225
0.00601244
0.000382569
0.000144302
0.051252
0.000166988
0.000149622
0.000147746
0.000150263
0.0021245
0.000147882
0.000136207
0.000134575
0.000134625
0.000294849
0.000144495
0.000136997
0.000234608
0.000134079
0.000133282
0.00016846
0.000174603
0.000222229
0.000193612
0.00712017
0.000135643
0.00656287
0.000158058
0.000143038
0.000136861
0.000165854
0.000143118
0.000164852
0.000179809
0.00015213
0.000151464
0.0403741
0.000209249
0.000334407
0.00232296
0.00168427
0.000235447
0.000139386
0.000175744
0.00356988
0.000135076
0.00691762
0.000138878
0.000150898
0.000195959
0.000140371
0.000256217
0.000158239
0.000152615
0.000148223
0.000134061
0.000143864
0.0169284
0.00014279
0.000136146
0.00163714
0.000133598
0.000149877
0.000148571
0.000177579
0.000142224
0.000144036
0.000153022
0.00149806
0.000144003
0.000144439
0.000136697
0.000154981
0.000142315
0.000150891
0.00146592
0.000141303
0.000157948
0.000148006
0.00015718
0.000163778
0.000140402
0.000148928
0.000183823
0.000146821
0.000148338
0.000161022
0.00543848
0.000150317
0.000141735
0.00014395
0.000162383
0.00022321
0.000150702
0.000140971
0.000141215
0.000137707
0.000131822
0.000135641
0.000158327
0.00022428
0.000178279
0.000146568
0.000352402
0.000139665
0.000144727
0.0529305
0.00017142
0.000134225
0.000188058
0.000146062
0.000140955
0.00400261
0.000148241
0.000175861
0.000132499
0.000196313
0.00013944
0.00013484
0.000136046
0.00111556
0.000237526
0.000146609
0.000254635
0.000135876
0.000142226
0.000139026
0.000197658
0.00014558
0.000138457
0.000148288
0.000152175
0.000142938
0.000145605
0.000140415
0.000148368
0.000146453
0.000140294
0.000153157
0.000135146
0.000309258
0.000179116
0.000136444
0.000272344
0.000158446
0.000140691
0.000139894
0.000151345
0.000140649
0.00016185
0.000156097
0.000199278
0.000202137
0.000147482
0.000179111
0.000196553
0.00014295
0.000147287
0.000182604
0.000154248
0.0053772
0.000135664
0.000143935
0.000151881
0.000146637
0.000143495
0.000157638
0.00014047
0.000164843
0.000143953
0.000155116
0.00013981
0.000192153
0.000144697
0.000154847
0.000211078
0.000142671
0.00450989
0.000860898
0.000153461
0.000157865
0.000163146
0.000134332
0.000195315
0.000145394
0.000167881
0.000303359
0.000709986
0.000216834
0.000170836
0.000164144
0.000142848
0.000165739
0.000139039
0.0408991
0.000213416
0.000147526
0.000140597
0.000272264
0.000175712
0.000142736
0.00014311
0.00367875
0.000147607
0.000138369
0.00414133
0.0001744
0.000134951
0.000248785
0.000136074
0.000109579
0.000175259
0.000142959
0.000144299
0.000156431
0.000449263
0.000140139
0.000159294
0.000144275
0.000142991
0.000139763
0.000386488
0.00014825
0.000144921
0.000143953
0.000236177
0.000159705
0.000140313
0.000132903
0.000185534
0.000142157
0.000136911
0.000271353
0.0282668
0.000148891
0.000277545
0.000156787
0.000172469
0.000150213
0.000177122
0.00488982
0.000148187
0.000141287
0.000137231
0.000155918
0.00014272
0.000408398
0.000227429
0.000137425
0.000150309
0.000136386
0.000135494
0.0252519
0.000142808
0.000151018
0.000152253
0.000215427
0.000144506
0.000147854
0.000156134
0.00538596
0.000146449
0.000144996
0.000137383
0.000138413
0.00015536
0.000171394
0.000146971
0.000142123
0.000144577
0.000143306
0.000137251
0.0439931
0.000147732
0.000143187
0.00014188
0.000176181
0.000136547
0.000136927
0.000169359
0.000142414
0.000185669
0.000144209
0.000144482
0.00173688
0.0479457
0.00396451
0.000199958
0.000158881
0.00014761
0.0581327
0.000139768
0.000156057
0.000135125
0.00377925
0.000130389
0.000155778
0.000144598
0.00448341
0.000178498
0.000178951
0.0568572
0.000151188
0.000197705
0.000148035
0.000149103
0.0425871
0.000166672
0.000142084
0.000136015
0.000154488
0.000165287
0.000143977
0.000144596
0.000139757
0.000134905
0.000214956
0.00487148
0.00014805
0.000154205
0.0338621
0.00030912
0.000154103
0.000151197
0.000153089
0.000155265
0.000142306
0.000150374
0.000253501
0.000140239
0.000136272
0.000146183
0.000266535
0.000211998
0.000158032
0.000146608
0.000146736
0.000160462
0.000143691
0.00015901
0.000177386
0.000229962
0.000153465
0.000374584
0.000134749
0.000142768
0.000148429
0.000135325
0.000146921
0.000140007
0.000223399
0.000140911
0.0028562
0.000144974
0.000139039
0.000137625
0.000179276
0.000150981
0.000171213
0.0001879
0.000136122
0.0253024
0.000154715
0.00013808
0.000133418
0.00232102
0.00013614
0.000133658
0.000140482
0.000141174
0.000150286
0.000203393
0.000225355
0.000148823
0.000149885
0.000194782
0.0591444
0.000149413
0.000142583
0.00461892
0.000154718
0.00138377
0.000152878
0.000142314
0.000177719
0.000172126
0.047368
0.000178333
0.000328022
0.000136914
0.000142201
0.000149384
0.000146471
0.000154707
0.000147816
0.000146186
0.000139483
0.000148312
0.000146022
0.000148241
0.000145365
0.000152659
0.000148947
0.000143625
0.000141889
0.000174459
0.000159662
0.000140326
0.000145233
0.000212516
0.000144315
0.000148655
0.000148258
0.000360682
0.000136945
0.000168489
0.00015312
0.000136063
0.000143577
0.0463987
0.000225009
0.000149086
0.000149574
0.000154218
0.000173336
0.000139988
0.00016219
0.000179382
0.000141215
0.000190318
0.000140832
0.000143209
0.000143782
0.000148674
0.000161545
0.000204403
0.0557269
0.000172108
0.000136239
0.000144946
0.000143174
0.000202958
0.000149148
0.000880738
0.000139712
0.000143842
0.000143494
0.000179527
0.000142478
0.00014661
0.000144229
0.000193123
0.000137019
0.00970355
0.000137039
0.000164871
0.000144485
0.00016175
0.00014078
0.000154198
0.000330656
0.000242797
0.00013631
0.000182624
0.00014523
0.000146628
0.0383175
0.000332855
0.000136183
0.000142712
0.000155346
0.000135941
0.000143928
0.000148528
0.000147678
0.000158549
0.000174005
0.000150205
0.000158934
0.000258767
0.000147184
0.000140801
0.000142068
0.000153436
0.000162908
0.000144122
0.0530682
0.000140752
0.0584994
0.000167234
0.000136582
0.000140141
0.000139885
0.000205342
0.000145938
0.00015278
0.000146172
0.000140725
0.000360858
0.000153592
0.000171227
0.000147315
0.000145571
0.000151777
0.000143159
0.000153427
0.000143432
0.000152147
0.000149401
0.000148528
0.0098799
0.000181275
0.00192807
0.000140894
0.000167493
0.000151219
0.00170908
0.000185869
0.00546401
0.000150375
0.000134789
0.000169664
0.000142824
0.00611338
0.000149851
0.000190656
0.000150984
0.0506849
0.0254852
0.00015408
0.000170916
0.000139392
0.000137449
0.000148658
0.000134621
0.00014802
0.000153033
0.000139439
0.000163921
0.000207648
0.00138317
0.000140587
0.000267528
0.000134663
0.000142362
0.000143438
0.000183625
0.000147749
0.00024634
0.000148033
0.000143724
0.00761007
0.000140145
0.000152565
0.000142115
0.000155494
0.00508742
0.000167563
0.0399888
0.00014543
0.00018542
0.000152849
0.00014171
0.000144188
0.00020147
0.00016494
0.00014306
0.000151956
0.000143163
0.0073659
0.000139068
0.0130048
8.66175e-05
0.000185338
0.000158235
0.000234302
0.00017574
0.00013462
0.00108363
0.00014232
0.0157198
0.000148686
0.000152006
0.00576505
0.00551758
0.000161146
0.00815714
0.000143544
0.00120191
0.000131074
0.00132864
0.000135271
0.000156265
0.000191273
0.000146357
0.000139128
0.000149415
0.000144467
0.000174639
0.00153218
0.000169686
0.00131152
0.000141028
0.000449778
0.000144345
0.000147163
0.000142971
0.000144856
0.00647991
0.000147398
0.000137968
0.00016689
0.000148235
0.00359828
0.000203304
0.000142934
0.000206791
0.00016862
0.000140459
0.000144831
0.000155316
0.000136539
0.000174936
0.00016363
0.00015077
0.000151288
0.000137282
0.000145835
0.000175652
0.000149067
0.00014497
0.000150413
0.000135031
0.000135607
0.000538006
0.000161794
0.058528
0.000160084
0.000174109
0.000158467
0.000142025
0.000167373
0.000138518
0.00014075
0.000714565
0.000164875
0.000165784
0.00017696
0.000147253
0.000234897
0.0128383
0.000143715
0.000166788
0.000185563
0.0516302
0.000136389
0.000137872
0.000147129
0.000182823
0.00120527
0.000169043
0.000154581
0.000148242
0.000141999
0.000135318
0.00342999
0.000152852
0.000156573
0.0061386
0.000146773
0.000153737
0.000156054
0.000145014
0.000142745
0.000143255
0.000174585
0.000200573
0.000148492
0.000152068
0.000247086
0.000142407
0.000149303
0.000154092
0.000146815
0.00587294
0.00535781
0.00190751
0.000204723
0.000547155
0.000152352
0.000139758
0.000242499
0.000154723
0.000161098
0.0001432
0.000135407
0.00357064
0.00024157
0.000141391
0.000139558
0.000162807
0.000292705
0.000154444
0.000134908
0.0512629
0.000152638
0.000167455
0.000135017
0.0001589
0.000131093
0.000151057
0.000159259
0.000142003
0.0427076
0.000149267
0.000170181
0.000203742
0.00130805
0.000198583
0.000142168
0.000176571
0.000155658
0.000165364
0.000150365
0.000152831
0.00014535
0.000152312
0.00157496
0.000152104
0.00152392
0.000139969
0.000215166
0.000135914
0.000148925
0.00419685
0.000156081
0.000213839
0.000164244
0.000149715
0.0536969
0.0523815
0.000139982
0.013853
0.000174001
0.000138849
0.000133985
0.000345386
0.00838505
0.000139095
0.000136164
0.00014412
0.000136728
0.0572229
0.000285521
0.000130204
0.000133138
0.000139905
0.000225866
0.00017221
0.00509024
0.000135987
0.0119549
0.000147025
0.000189543
0.0419611
0.000164504
0.00013942
0.000140112
0.00537269
0.000136623
0.00014123
0.000136436
0.000163658
0.000153846
0.0481128
0.000163802
0.000148418
0.000142332
0.000158501
0.00021191
0.000185436
0.000141666
0.00014198
0.000197344
0.00017345
0.000150104
0.00425136
0.000161289
0.000152828
0.0328488
0.000151986
0.000159781
0.000148443
0.00232744
0.000145189
0.000148644
0.000284125
0.000159999
0.000141161
0.000143316
0.000131141
0.000175559
0.000200909
0.000140993
0.000136035
0.000149528
0.000178756
0.000159372
0.000135093
0.00014275
0.000139141
0.000152821
0.000170042
0.000146241
0.000142795
0.0367464
0.000141976
0.000418436
0.000165134
0.000169051
0.000152251
0.000150234
0.00014502
0.000276184
0.000198
0.000178363
0.0452767
0.0001644
0.000140048
0.038091
0.000136407
0.000179682
0.0548914
0.000153329
0.000141761
0.000154777
0.000179198
0.000142613
0.000143239
0.00415372
0.000142854
0.000150915
0.000140503
0.000146748
0.0001375
0.000200455
0.000193152
0.000135841
0.000141064
0.00742422
0.000142523
0.000136623
0.000140852
0.000140699
0.000429857
0.00015947
0.000153186
0.000153534
0.000149294
0.000137395
0.000175828
0.000188572
0.000159214
0.00165489
0.000151976
0.0001546
0.0457499
0.000140068
0.000136282
0.00014353
0.000140521
0.000148652
0.00013268
0.000150512
0.0512094
0.00014479
0.000141796
0.000155916
0.000140635
0.00113317
0.000147693
0.0478311
0.000209859
0.000170953
0.000162509
0.00201373
0.00016162
0.000143106
0.000153012
0.000140456
0.000151346
0.00014668
0.000147913
0.0312412
0.00013584
0.000143757
0.00017309
0.000223066
0.000147881
0.00013972
0.000210462
0.000150311
0.000179576
0.000143046
0.000139843
0.000143808
0.000532319
0.000146051
0.000196047
0.000176758
0.000148989
0.000139636
0.000143524
0.000161033
0.00186004
0.000135877
0.000179871
0.000141776
0.0458216
0.000225869
0.000149926
0.000205356
0.000146185
0.000153194
0.000155828
0.00139578
0.000158968
0.000156893
0.000160087
0.00471759
0.000147451
0.000174248
0.000144556
0.00020908
0.000195654
0.000210645
0.00014278
0.000164609
0.00136609
0.000974213
0.000153672
0.000155093
0.00215715
0.00215883
0.000140344
0.000175095
0.000143294
0.000155901
0.000145938
0.00015258
0.000151833
0.00040887
0.000147235
0.000148214
0.000176906
0.00521097
0.00160622
0.000189982
0.00692282
0.000139864
0.00164559
0.000178924
0.000142058
0.000141737
0.00441556
0.000158147
0.000145131
0.000142555
0.000175797
0.000138643
0.00014279
0.028305
0.000145548
0.000148232
0.000141101
0.000143842
0.000151489
0.000139042
0.0436069
0.000167418
0.000151692
0.000139482
0.00016483
0.0078847
0.000142348
0.000148164
0.00179656
0.000208789
0.000143466
0.000155194
0.000138717
0.000140374
0.00019831
0.000202112
0.000140409
0.000143502
0.00185209
0.000282169
0.00502788
0.000186317
0.000151406
0.00423786
0.000140691
0.000156254
0.000155111
0.0001399
0.00394162
0.00614984
0.000169105
0.000192831
0.0165847
0.000133989
0.000133137
0.00015117
0.000170077
0.00617994
0.00013643
0.000173429
0.00973757
0.0259243
0.000147116
0.000151304
0.000891707
0.00014294
0.000155413
0.00624201
0.000140816
0.000142466
0.000139369
0.000239528
0.000141846
0.000164493
0.000148747
0.000219616
0.000162484
0.00446018
0.000143109
0.000142168
0.00016212
0.000147728
0.000165068
0.000150027
0.000184834
0.000190304
0.000140788
0.000144297
0.0549622
0.0293789
0.000493351
0.000139057
0.000143367
0.000155273
0.00014529
0.000143083
0.000144004
0.000152127
0.000148515
0.000139412
0.000139683
0.000183624
0.00015279
0.000173007
0.00223679
0.000179698
0.000173499
0.000156669
0.000191948
0.000216
0.000162794
0.000156002
0.000159995
0.000141721
0.000982035
0.00013612
0.000135738
0.000140764
0.00636393
0.000142332
0.00588703
0.000148009
0.000135022
0.000185592
0.000142944
0.000142224
0.000142919
0.000184369
0.000248496
0.000147384
0.000139908
0.00015187
0.021299
0.000173058
0.00321998
0.000143159
0.000173837
0.000146817
0.000145637
0.000136176
0.000138889
0.000143376
0.000151213
0.00108085
0.000151713
0.000151788
0.000189039
0.0078617
0.00019238
0.000141923
0.000189983
0.000164011
0.0104422
0.000137919
0.000142964
0.000157487
0.000299141
0.000132422
0.000144486
0.000138845
0.000136554
0.000191273
0.000153048
0.00019151
0.000146035
0.000132203
0.000168011
0.00014398
0.00594138
0.000144371
0.000182458
0.00014804
0.000159794
0.000149492
0.000178188
0.00316223
0.000142447
0.000185117
0.0399748
0.00014165
0.000146496
0.000169969
0.00013187
0.0174535
0.000180718
0.000142361
0.000176221
0.00013429
0.00014735
0.000147822
0.000141427
0.000136512
0.000150052
0.000140546
0.000138773
0.000145219
0.000147646
0.000173133
0.000136108
0.000203658
0.000138502
0.000140297
0.000159885
0.000176472
0.000149717
0.000131977
0.000142376
0.000153935
0.000174855
0.0111702
0.00016436
0.000149139
0.000149131
0.000139495
0.000162521
0.000140607
0.000152412
0.0120463
0.000231433
0.00017204
0.000141375
0.000147636
0.000150023
0.000132098
0.000183965
0.000134886
0.000237513
0.000149374
0.000215261
0.000159094
0.00643577
0.000147079
0.000184163
0.0120822
0.00556172
0.000782654
0.000157971
0.00466933
0.0249312
0.000148768
0.000165259
0.0519377
0.000138527
0.00013901
0.000143879
0.000155905
0.000223659
0.000145794
0.000159512
0.00806024
0.00013023
0.000144553
0.00586179
0.000794498
0.000187636
0.000963882
0.00571672
0.000150072
0.000194937
0.000153056
0.000154312
0.00490032
0.000154298
0.0485745
0.000100234
0.00015411
0.000145702
0.000150792
0.000157403
0.000139459
0.0157397
0.000132324
0.000142797
0.000143239
0.00122776
0.047523
0.000245738
0.000144563
0.000150025
0.000139009
0.0588699
0.000143443
0.000149524
0.000154249
0.000210819
0.000138624
0.000182957
0.040898
0.00286121
0.000147326
0.000793604
0.000139808
0.00176836
0.000132744
0.000260844
0.000147498
0.000178286
0.00015962
0.00651562
0.000206544
0.000152383
0.000153183
0.000186851
0.000155177
0.000141849
0.000138705
0.000156697
0.000147582
0.00142531
0.000131537
0.000142644
0.000144198
0.000143772
0.0011265
0.000139287
0.000134618
0.00014638
0.00144493
0.000165103
0.000175649
0.000152239
0.000151366
0.000184981
0.00014016
0.000143181
0.000188909
0.000171166
0.000134632
0.000173339
0.000152629
0.00149313
0.000142678
0.000254533
0.000147201
0.000143073
0.00013527
0.00013492
0.000142227
0.000141338
0.0122672
0.00018372
0.000146699
0.000143096
0.000142289
0.000152959
0.000159032
0.0488703
0.000146527
0.000205032
0.000164831
0.00266489
0.000147231
0.00017453
0.000143045
0.000142711
0.000163525
0.00014253
0.000145575
0.000140392
0.000136014
0.0536575
0.000143547
0.000139228
0.000213204
0.00333727
0.000193771
0.000145836
0.000134958
0.000155345
0.0466255
0.000153534
0.000147885
0.000146959
0.00922624
0.000148554
0.000143663
0.00013189
0.000141381
0.000156666