/*--------------------------------*- C++ -*----------------------------------*\
| =========                 |                                                 |
| \\      /  F ield         | OpenFOAM: The Open Source CFD Toolbox           |
|  \\    /   O peration     | Version:  v2012                                 |
|   \\  /    A nd           | Website:  www.openfoam.com                      |
|    \\/     M anipulation  |                                                 |
\*---------------------------------------------------------------------------*/
FoamFile
{
    version     2.0;
    format      ascii;
    class       volScalarField;
    location    "500";
    object      omega;
}
// * * * * * * * * * * * * * * * * * * * * * * * * * * * * * * * * * * * * * //

dimensions      [0 0 -1 0 0 0 0];


internalField   nonuniform List<scalar> 
18355
(
0.159928
0.0204351
0.219582
0.0210095
0.0340385
0.680963
0.0215395
0.0346037
0.0220158
0.392662
0.0250565
0.104233
0.112228
0.092418
0.0210839
0.0202034
0.0210059
0.0236338
0.133525
0.0226449
0.162207
0.0219083
0.0204597
0.671506
0.0204701
0.0219936
0.021576
0.0210156
0.0222062
0.0256612
0.339118
0.0458983
0.0203587
0.0200676
0.0210699
0.0221792
0.026897
0.0222464
0.0260842
0.0218154
0.0221487
0.0255828
0.0200872
0.0204206
0.0204311
0.275171
0.0209889
0.0209778
0.283856
0.0212498
0.020826
0.277125
0.0213074
0.101618
0.0212841
0.0226626
0.021105
0.443873
0.0220786
3.91638
0.0200783
0.0696947
0.100981
0.0214
0.0574727
0.0206198
0.023729
0.0269978
0.0200204
0.661112
0.0209293
0.0212839
0.0378271
0.0244232
0.191876
0.0200402
0.509644
0.0200504
0.0209012
0.245912
0.0236694
0.418405
0.020031
0.0247201
0.0476227
0.0217501
0.0222584
0.0383964
0.0208706
0.0384795
0.15012
0.134905
0.430117
0.0212411
0.731434
0.0217274
0.0208566
0.0214188
0.0621683
0.0218298
0.0451142
0.0208714
0.021193
0.0195585
0.0239043
0.0202137
0.056957
0.740217
0.0319307
0.0201571
0.0207251
0.0214115
0.0310268
0.0244366
0.53803
0.0270556
0.0208486
0.37672
0.0228415
0.0235246
0.661611
0.222336
0.221547
0.0438511
0.398768
0.319789
0.0215765
0.0210386
0.167605
0.0216603
0.0208604
0.290474
0.0212612
0.06396
0.0809
0.0208622
0.135264
0.685243
0.0211903
0.146715
0.0250923
0.0321419
0.0209497
0.296926
0.0812891
0.0216472
4.10279
0.0196041
0.0306902
0.293649
0.0210088
0.0234588
0.0213259
0.0289781
0.0200984
0.0205829
0.021052
0.0217394
0.0209566
0.0206816
0.0239155
0.021267
0.0201656
0.0339773
0.0247328
0.349459
4.10987
0.177962
1.49551
0.025065
0.0212841
0.0603924
0.0216137
0.271597
0.0211453
0.0221105
0.0213314
0.0195222
0.0226246
0.0285593
0.0218056
0.327288
0.021787
0.0210386
0.248064
0.0211745
0.02181
0.0376011
0.0213479
0.0216628
0.285103
0.0622933
0.0204642
0.0200518
0.0214085
0.942045
0.0205365
0.196401
0.0204445
0.0947162
0.0211404
0.0230192
0.0262095
0.0217241
0.176949
0.021581
1.52155
0.0210338
0.0203091
0.0212862
0.0215462
0.521265
0.0228727
0.021904
0.0196151
0.297015
0.0286027
0.0250117
0.0215979
0.0209892
0.0309212
0.0199761
0.0363514
0.0272874
0.0610892
0.0236775
0.0199959
0.671858
0.129999
0.0340519
0.021376
0.0239333
0.360187
0.0199882
0.0327451
0.0386934
0.0219733
0.295813
0.0244883
0.0219262
0.0204618
0.0225265
0.0214983
0.0326221
0.0215766
0.0212901
0.0209814
0.523174
0.651842
0.0209999
0.0218062
0.656811
0.139366
0.0265713
0.019528
0.0264477
0.0244748
0.0217367
0.0235955
0.0208073
0.292614
0.0486566
0.0573267
0.0284922
0.0267494
0.0344417
0.0378168
0.0671968
0.0208002
0.0212915
0.0218336
0.0201555
0.0230189
0.0251419
0.0209762
0.0215563
0.0288419
0.0208514
0.0699114
0.652216
0.0272651
0.0215725
0.0277242
0.0201445
0.0388251
0.0215296
0.0295284
0.0218683
0.0287952
0.28593
0.0203355
0.0401637
0.0227329
0.0233667
0.0378141
0.0213156
0.0200371
0.0660807
0.021551
0.0372222
0.0269196
1.04882
0.0391097
0.0582636
0.0232461
0.0299662
0.0211897
0.0237691
0.0280777
0.0400935
0.278088
3.07459
0.0210711
0.0241962
0.0902444
0.0284029
0.0210667
0.0209691
0.0209942
0.0427372
2.76789
3.36752
0.281778
0.0285335
0.0247743
0.41395
0.0196039
0.0215588
0.0247189
0.0213671
0.0341757
0.0209466
0.448664
0.0202344
0.443851
0.0213518
0.0217747
0.0235673
0.123434
0.194843
0.0327652
0.232571
0.0218785
0.0208794
0.0213581
0.0238739
0.408647
0.0209011
0.0214702
0.270966
0.0218224
0.0209028
0.143582
0.0234735
0.0209881
0.0212593
0.0304897
0.0222473
0.0303061
0.0200657
0.0214618
0.0217915
3.36189
0.219978
0.0200419
0.0209356
0.0302973
0.0210022
0.0215174
0.428485
0.209265
0.0304873
0.0213411
0.0220226
0.112555
0.0219577
0.0289292
0.0238114
0.0202758
0.0297892
0.0315773
0.0217135
0.0213432
0.0236656
0.0214647
0.0231178
0.0214035
0.0664967
0.0215298
0.0232389
0.0208637
0.0209953
0.0229223
0.0221123
0.0544653
3.71938
0.279426
0.0228016
0.138232
0.0268088
0.0213703
0.0208963
0.0381306
0.0213474
0.0314051
0.0214207
0.0258617
0.40251
0.182775
0.185468
0.0617896
0.0195661
2.475
0.0218326
0.0209657
0.171311
0.0213168
0.0269254
0.020228
0.0629596
0.0213117
0.0586596
0.429875
0.0537535
0.021272
0.0204666
0.0554817
0.0228515
0.0210031
0.376759
0.0418071
0.0209598
0.0386272
0.0544749
0.0204616
0.0220344
0.0313237
0.28766
0.0376113
0.0218209
0.0212348
0.0344421
0.0212893
0.0201996
0.0211343
0.1152
3.77129
0.0202598
0.0221543
0.021492
0.132958
0.03099
0.0200377
0.0268842
0.0366432
0.0214796
1.2115
0.0694841
0.021825
0.021448
0.0364458
0.140359
0.473036
0.0202369
0.269529
0.0212345
0.0202523
0.0415674
0.022999
0.0705416
0.0379934
0.0233847
0.0248893
0.0219189
0.137837
0.0229921
0.027456
0.021873
0.0202128
0.0217285
0.0202279
0.0684012
3.70636
0.0624921
0.0239854
0.0215759
0.0218694
0.0214713
0.0232711
0.0215853
0.0200319
0.0213858
0.0388116
0.0204697
0.0215771
2.44034
0.203049
0.0923497
0.0216388
0.0220209
0.0315029
0.0218717
0.301629
0.781287
0.0238335
0.0247484
0.0250706
0.0222617
0.0236919
4.32147
0.0324467
0.0219424
0.345336
0.0215779
0.19133
2.41836
0.0248595
0.0219831
4.24884
0.0209826
0.0564333
0.0464587
0.293439
0.0229858
0.0217052
0.0214662
0.231634
0.370653
0.249751
0.387301
0.0231113
0.0214559
0.0247331
0.0212985
0.0236039
0.149771
0.376854
3.64405
1.23763
0.0279903
0.0425919
0.0322984
0.0209979
0.0211451
0.0290886
0.0241817
0.0215453
0.0212961
0.476854
0.0208419
1.1923
0.0251559
0.0648301
0.121851
0.0211513
0.0244255
0.179883
0.0213808
3.44091
0.0212725
0.119358
0.0325183
0.0219432
0.0318193
0.0668103
0.0629251
0.0219152
0.0200064
0.0331908
0.0250542
0.0649767
0.021374
0.0705744
0.0208341
0.596434
0.0211588
0.0211681
0.200902
0.0275065
0.0346001
0.0210376
0.025104
0.022982
0.445226
3.37352
0.0242869
0.0299209
0.0211548
0.0276371
0.0217384
0.0241051
3.74578
0.0204225
0.29459
0.0215358
0.0212571
0.0243284
0.30044
0.0224559
0.0718992
0.0220381
0.0333077
0.435912
0.0196114
0.0209893
0.214247
0.0376647
2.47415
0.0396248
0.0216815
0.0213021
0.0209718
0.024432
0.021964
0.0200845
0.100717
0.662238
0.0211516
0.572888
0.434389
0.0243215
0.241224
0.0202158
0.146176
0.193656
0.0196752
0.434906
0.0363942
3.064
0.455375
0.021076
0.0209626
0.0215945
0.283193
0.0418782
0.0212961
0.0219526
0.0995265
0.0217869
0.0373016
0.0210617
0.0348197
2.88521
0.159608
0.0351531
0.157053
0.0395092
0.472453
0.0247651
0.020914
0.0264429
0.451935
0.0291465
0.0401611
0.0212828
0.12629
0.0215092
0.0217228
2.98966
0.0217286
0.0270345
0.0314684
0.0670048
0.0214696
0.0212906
0.0242423
0.025526
0.0199716
0.0215286
0.0334904
0.108875
0.0231992
0.0212938
0.0414359
0.438515
0.0212313
0.113214
0.71685
0.0214712
0.347316
0.020009
0.194398
0.0213503
0.0204001
0.202762
0.0231581
0.286533
0.0230682
0.0212926
0.494714
0.021347
0.0201379
0.021518
0.0209235
0.0275356
0.0364123
0.189252
0.0220801
3.51128
0.0226925
0.0841601
0.622313
0.0220611
0.0213505
0.0251179
0.0201398
0.0894336
0.0211881
0.0201145
0.0201354
0.0212826
0.0213708
0.45786
0.0242721
0.0419712
0.0226677
0.0241962
0.0236087
0.025271
0.0471492
0.020471
0.0681201
0.0441046
0.0200087
0.442331
2.86469
0.0207793
0.0351754
0.0211677
0.357563
0.0331793
0.0196571
0.0334545
0.025921
0.0604584
0.0208517
0.0241168
0.127289
0.0765929
0.281591
0.0213671
0.292355
0.0629532
0.139959
0.0213734
0.0228568
0.0210258
0.0214783
0.0210642
0.020981
0.0204174
0.0450966
0.0252189
0.0208899
0.020059
0.0205393
0.0217764
0.0724221
0.0616278
0.0203296
0.0255128
0.0215177
0.0215453
0.0214605
0.0209449
0.0315663
0.0200548
0.0208824
0.0217871
0.0216122
0.023187
0.021434
0.407534
0.130258
0.0243971
0.0208648
0.133886
0.0201041
0.020063
0.0214114
0.242898
0.0239025
0.0212948
0.0201607
0.0204541
0.0247217
0.020012
0.0255855
0.0211788
0.0217458
0.0210639
0.0227828
0.0996041
0.0209058
0.0218578
0.0211832
0.158528
0.312827
0.0265669
0.0219619
0.026982
0.0255386
0.031764
4.3351
0.0217735
0.219516
0.0218762
1.24908
0.022151
0.0202886
0.0200581
0.716168
0.0200236
0.0267825
0.0296353
0.163084
0.04075
0.0222898
0.0210176
0.0208466
0.0212181
0.0278267
0.0841592
0.432326
0.0417576
0.0215265
0.0200084
0.0224971
0.021066
0.0208145
0.0217951
0.042007
0.0244254
0.425913
0.021521
0.0214375
0.0339155
0.0213044
0.14094
0.0419014
0.0406638
0.119003
3.92192
0.0274892
0.0209847
0.0200169
0.0216789
0.0212795
0.653739
0.0415882
0.0870765
0.0203128
0.0215925
0.0228979
0.0208334
4.34875
0.0363458
0.0200592
0.0200596
0.0209798
0.0210724
0.0209105
0.0212564
0.26605
0.0199672
0.0220053
0.0203194
0.0205852
0.021073
0.0214599
0.0254285
0.0205799
0.0273863
0.0201525
0.244767
0.248091
0.0235742
0.438183
0.0227265
0.0218942
0.0566538
0.325715
0.0214249
0.020747
0.0204733
0.0250656
0.0219857
0.0274403
0.198235
0.0214939
0.0219812
0.0214804
1.24643
0.228816
0.0221041
0.0205975
0.0243856
0.0390465
0.0211392
0.0624645
0.0208376
0.0199672
0.024508
0.0712648
0.420586
0.339339
0.270761
0.020047
0.0439805
0.0689449
0.0250393
0.0212117
0.0694351
0.0238052
0.15938
0.0680869
0.0207302
0.0200563
0.0214776
0.022037
0.02006
0.392625
0.370186
0.0201108
0.0215171
0.0219001
0.0348079
0.021252
0.0208782
0.0299972
0.0218779
0.0209504
0.316855
0.0761561
0.0681412
0.0212663
0.0202427
0.0201274
0.0214038
0.0253159
0.0302829
0.0208707
0.0206292
0.0226948
0.280108
0.0204625
0.0214161
0.0619623
0.0209105
0.0207604
0.02135
1.11855
0.0202236
0.0214459
0.0204659
0.0228245
0.0202327
0.0259432
0.12714
0.0214167
0.133526
0.0290337
0.214535
0.0505064
0.0209905
0.0256425
0.020845
0.0207452
0.0210025
0.48538
0.342011
0.0355972
0.0270253
0.0906807
0.0584312
0.022114
0.0801347
0.045127
0.0235695
0.0200721
0.677638
0.0222377
0.0207388
0.0203927
1.34188
0.39345
0.202524
0.0207138
0.0749424
0.21982
0.0265079
0.0291769
0.0239315
0.0228719
0.0323525
0.340059
0.0227211
0.0222787
0.0245024
2.21228
0.408986
0.021242
0.0213564
0.0210488
3.70687
0.0234449
0.0218668
0.0762675
0.0259456
0.0355971
0.0238998
0.287166
0.0206772
1.23977
0.0220933
0.0200754
0.020984
0.0200095
0.0200865
0.0208908
0.0217077
0.664656
0.0205276
1.23721
0.0265103
0.0216757
0.0207539
0.0737343
0.0211964
0.0214955
0.0231318
0.401359
0.0409558
0.0231649
0.021536
3.58786
0.0206726
0.0412982
0.021519
0.207767
0.0298455
0.293113
0.0264315
0.0210034
0.032508
0.389376
0.0349113
0.0205555
0.0213429
0.0345526
3.74169
0.0195682
0.0448676
0.0210025
0.0252167
0.0208615
0.0200444
0.0219547
0.0221453
0.0200333
0.0359001
0.0358939
0.0244729
0.114018
0.751123
0.0222203
0.264506
0.0201114
0.0894427
3.19313
0.157744
0.0200227
0.0220171
0.021497
0.654319
0.0210325
0.0208367
0.072797
0.0215
0.0215251
0.0221351
0.0220449
0.0212454
2.56185
0.371328
0.0534997
0.0207551
0.0214517
0.110982
0.0201015
0.0374267
0.0215755
0.0214827
0.0220002
0.0238548
0.256563
0.0209402
0.0214752
0.286024
0.0215623
0.0217946
0.0346779
3.75951
0.330047
0.0214289
0.021045
3.47995
0.461618
0.16072
0.0206224
0.0320741
0.194299
0.0203633
0.0323545
0.0227247
0.478699
0.023544
0.021532
0.022204
0.0200153
3.52356
0.0214659
0.020471
0.296168
0.0299555
0.260811
0.0199812
0.0226594
0.0200547
0.0196432
0.0202098
0.022221
0.0216147
0.0218156
0.0200233
0.0217443
0.0441758
0.0258437
0.0235916
0.0206419
0.0233773
0.0210727
0.278212
0.0216123
0.0220901
0.021582
0.0200616
0.0217805
0.0215224
0.021145
0.0212269
0.0208265
0.0202192
0.614289
0.0557759
0.0212081
3.56591
0.0334404
0.021755
0.0217011
0.0221956
0.300607
0.0218407
0.0200996
0.0201026
0.0200299
0.183703
0.0212854
0.0202948
0.157338
0.0200146
0.0197389
0.0237199
0.0246522
0.0771155
0.121315
1.97004
0.0200476
0.823285
0.0255186
0.0212237
0.0204255
0.0245367
0.0212822
0.0298462
0.0520094
0.022939
0.021951
3.01465
0.0520303
0.24271
0.5505
0.283802
0.0842947
0.0205108
0.697844
0.910764
0.0201328
0.829201
0.0207106
0.022375
0.122642
0.0207264
0.0365536
0.0251394
0.022856
0.0218356
0.0588737
0.0213779
1.22788
0.0212355
0.0201786
0.240913
0.0197717
0.0220039
0.0218518
0.0478918
0.0212026
0.0214424
0.022988
0.280886
0.0211729
0.0212795
0.0202228
0.0238942
0.021178
0.0223754
0.30262
0.0209636
0.0258665
0.0217121
0.0236151
0.0230263
0.0209403
0.0219242
0.0805238
0.0215458
0.0217602
0.0244495
0.294664
0.0221303
0.021126
0.0214235
0.0258237
0.0770068
0.0223235
0.0210232
0.0209581
0.02056
0.0196266
0.0200633
0.0250573
0.0314879
0.0491857
0.0215324
0.0976562
0.0206535
0.0209172
3.82714
0.0405864
0.0199803
0.0665632
0.0210546
0.0210213
0.478218
0.0217806
0.0412166
0.0197345
0.133976
0.0205237
0.0200174
0.0202559
0.25867
0.0871292
0.0215204
0.122751
0.020237
0.0209158
0.0207397
0.127001
0.0212251
0.0206552
0.0217321
0.0227097
0.0212716
0.021443
0.0207988
0.0217931
0.0215112
0.0208431
0.0233041
0.0199895
0.0828872
0.0555807
0.0202074
0.055584
0.0259626
0.0209317
0.0206676
0.0219396
0.0207486
0.0285671
0.0247267
0.0403467
0.0407207
0.021646
0.0607908
0.133842
0.0212155
0.0216794
0.0698288
0.0233325
0.291209
0.0202213
0.0211751
0.0223967
0.0215432
0.0212458
0.0256524
0.0209496
0.0221778
0.021246
0.0234154
0.0205756
0.103784
0.0213424
0.0240892
0.0281228
0.0209851
0.485527
0.198469
0.0229791
0.0252417
0.0286798
0.0198713
0.0525177
0.0214263
0.0334207
0.166967
0.472265
0.0331835
0.0223849
0.0264152
0.0210181
0.0306374
0.0205325
3.60875
0.029236
0.0214549
0.0208059
0.056351
0.0374324
0.021221
0.0212156
2.56686
0.0216118
0.0206456
0.626765
0.0466468
0.0201219
0.120039
0.0203092
0.0562784
0.0486429
0.0212648
0.0214334
0.0231155
0.16964
0.0207979
0.0262343
0.0214376
0.0212737
0.0208246
0.103502
0.0218117
0.0213486
0.021131
0.109273
0.0264641
0.0208111
0.0197704
0.0870755
0.0211482
0.0204573
0.115587
4.1311
0.0219223
0.454685
0.0231463
0.0423576
0.0221961
0.0505419
0.494045
0.0221057
0.020755
0.0203251
0.0243262
0.0211984
0.144669
0.0688222
0.0205285
0.0221315
0.0203353
0.0200253
2.79124
0.0212059
0.0223985
0.0227843
0.0553494
0.0214524
0.021692
0.0247378
0.501261
0.0214746
0.0213599
0.0204475
0.0205719
0.0240733
0.0406501
0.0215549
0.021123
0.0212437
0.0210809
0.0203319
2.36511
0.0216867
0.0210441
0.0210969
0.0511316
0.0203743
0.0204597
0.0348263
0.0209308
0.0348206
0.021255
0.0214344
0.273154
3.90091
1.00032
0.0522713
0.0235688
0.0217074
3.1326
0.02065
0.0247408
0.0199896
0.580308
0.0195437
0.0242427
0.0214608
0.569885
0.0397213
0.0302213
3.30325
0.0222972
0.0546541
0.0217265
0.0219234
2.93037
0.0331364
0.0211746
0.020301
0.0236851
0.0267558
0.0214236
0.0212496
0.0206462
0.0199332
0.168422
0.350222
0.0217214
0.0221874
3.89986
0.0828356
0.0232072
0.0224048
0.0231196
0.0242855
0.0212139
0.0222299
0.0569453
0.0209085
0.0203246
0.0215129
0.060518
0.151225
0.0255322
0.0215405
0.0215427
0.0266778
0.0213461
0.0255182
0.0419916
0.0369074
0.0229815
0.0461511
0.0201223
0.0212246
0.0218415
0.0199725
0.0215497
0.0208521
0.0432212
0.0210099
0.442513
0.021337
0.0207209
0.0204909
0.0259962
0.0223291
0.0400577
0.0558174
0.0201491
2.91217
0.0223917
0.0205049
0.0197987
0.304069
0.353123
0.0198181
0.0208171
0.0207547
0.0222328
0.165128
0.0369194
0.0218036
0.0220527
0.124404
3.33244
0.0219686
0.0212132
2.33855
0.0238446
0.267337
0.023038
0.0211465
0.0525831
0.0243894
3.89476
0.0253154
0.056342
0.020402
0.0209155
0.0217576
0.0215814
0.0238019
0.0216842
0.0215526
0.0207907
0.0217935
0.0215037
0.0215698
0.0214172
0.0229195
0.0218784
0.0213417
0.0208611
0.0318992
0.0231202
0.0209174
0.0215112
0.157809
0.0212454
0.0220917
0.0218332
0.0905266
0.0204613
0.035819
0.0228038
0.0201894
0.0210864
3.391
0.0513197
0.0219827
0.021984
0.0233766
0.0384607
0.0208677
0.027609
0.038423
0.0210574
0.0832646
0.020823
0.021333
0.021247
0.0218195
0.0284339
0.0528162
3.60625
0.0250104
0.0201966
0.0214984
0.0210934
0.052317
0.0219544
0.16283
0.0208171
0.0213738
0.0213573
0.0609732
0.0209541
0.0215762
0.02126
0.118991
0.0204695
2.13786
0.0204286
0.0240519
0.0212892
0.0287697
0.0209935
0.0236169
0.056622
0.0392133
0.020207
0.0334135
0.0215083
0.0213598
2.79252
0.0598163
0.02032
0.0212456
0.02357
0.020252
0.0211313
0.0218671
0.0217004
0.0233554
0.0455294
0.0221735
0.0262895
0.0403389
0.0216137
0.0209995
0.0211751
0.0224492
0.0289376
0.0214283
3.78131
0.020695
3.20515
0.0348472
0.0201435
0.0207144
0.0206952
0.0565396
0.0215152
0.0232031
0.0214734
0.020796
0.0655096
0.0229468
0.0256903
0.0216561
0.0214676
0.0227323
0.0212252
0.0229397
0.0213674
0.0223458
0.0219899
0.0218142
0.746817
0.0266436
0.22643
0.0209995
0.0234844
0.0222998
0.22393
0.0583438
0.732806
0.0223593
0.0199561
0.037824
0.0209004
0.533211
0.02215
0.0363014
0.022334
3.4114
2.54636
0.0233412
0.0256678
0.0207504
0.0205315
0.0218931
0.0199018
0.0217338
0.023053
0.0207838
0.0251755
0.0421204
0.184995
0.0208884
0.0306303
0.0201071
0.0211855
0.0211171
0.0776601
0.0216643
0.0478399
0.0216746
0.0211247
2.46333
0.0208743
0.0230503
0.0210384
0.0231504
0.708046
0.0260884
2.22653
0.0213852
0.0574054
0.02303
0.0211183
0.021199
0.027428
0.0237981
0.0212742
0.0227725
0.0213262
0.686944
0.0207332
3.68168
0.3227
0.0608353
0.0251526
0.0945682
0.025029
0.0199007
0.419742
0.0211844
1.21987
0.0218243
0.0227032
0.294375
0.286075
0.0270017
1.11396
0.0213837
0.154444
0.0196043
0.662464
0.0201643
0.023054
0.0367153
0.0215165
0.0207219
0.021971
0.0212694
0.0318105
0.229174
0.0343329
0.2348
0.0206411
0.130887
0.0214406
0.0216981
0.0210209
0.0211025
0.540463
0.0216122
0.0205627
0.0343554
0.0218084
0.320697
0.0690669
0.0212658
0.0425777
0.0342738
0.0208536
0.0214395
0.0237924
0.0203199
0.0481134
0.0289788
0.0224528
0.0226913
0.0204511
0.0211666
0.0499521
0.0219188
0.0214498
0.0222865
0.019923
0.0201263
0.389357
0.0270395
3.60381
0.0269382
0.0460406
0.0255303
0.0211138
0.0259655
0.0203917
0.0209825
0.176345
0.0237786
0.0228618
0.0447514
0.0217023
0.314917
1.55268
0.0211211
0.0244095
0.0273415
2.66553
0.02031
0.0202817
0.0216112
0.026238
0.221773
0.0250083
0.0238095
0.0217678
0.0211688
0.0199244
0.270454
0.0232605
0.022999
0.524174
0.0216286
0.0227727
0.0240485
0.0214926
0.0212336
0.0210522
0.0469708
0.0874315
0.0218105
0.0229304
0.353889
0.0209267
0.0219328
0.0233351
0.0215931
0.362774
0.415526
0.375551
0.0742361
0.201073
0.0225095
0.020841
0.0459852
0.0222591
0.0265743
0.0210485
0.0201946
0.322797
0.0777621
0.0210793
0.0207551
0.0280093
0.0391851
0.0230751
0.0199654
2.73839
0.0229588
0.0344094
0.0201468
0.0256841
0.0195827
0.0226113
0.0255661
0.0211686
3.75589
0.0219857
0.0358081
0.0837575
0.161757
0.0758217
0.0211931
0.0524069
0.024418
0.0245362
0.0221707
0.0224568
0.0214467
0.0225059
0.299285
0.022855
0.300331
0.0207864
0.207278
0.0202906
0.0219088
1.86356
0.0245937
0.202248
0.0232219
0.0221171
3.81286
2.83841
0.0208616
2.73818
0.0357575
0.020722
0.0198402
0.197889
2.26976
0.0204817
0.0202784
0.0211917
0.0202304
3.17147
0.440944
0.0195217
0.019786
0.0208589
0.269498
0.0421274
0.282205
0.0202032
3.3002
0.0215652
0.0586581
2.33972
0.0239658
0.0205928
0.0205999
0.287931
0.0203385
0.0210595
0.0202006
0.0245332
0.0230694
3.72575
0.0252022
0.0217792
0.0211906
0.0262104
0.195596
0.0418615
0.0211182
0.0208759
0.138403
0.0440711
0.0220856
0.593716
0.026569
0.0228884
2.92729
0.0227744
0.0259653
0.0218263
0.302879
0.0214113
0.0218207
0.200857
0.0272216
0.0210503
0.0213513
0.01959
0.0347894
0.0901497
0.0209719
0.0202714
0.0220264
0.0572435
0.0227357
0.0202029
0.0212399
0.0207286
0.0220775
0.0383668
0.0214791
0.0209849
2.81487
0.0211063
0.331131
0.0306498
0.0330852
0.0231142
0.022151
0.0214788
0.482992
0.0750191
0.0580639
3.71025
0.0299314
0.0208706
3.38837
0.0202259
0.0621083
3.2541
0.022114
0.0211263
0.0238124
0.0608071
0.021192
0.0210482
1.83289
0.0212625
0.0220179
0.0207864
0.0216435
0.0203445
0.0653614
0.109885
0.0201358
0.0210243
0.868692
0.0211838
0.0201252
0.0209985
0.0208322
0.186435
0.0227292
0.0230177
0.022286
0.0219851
0.0202601
0.032719
0.0892332
0.0264189
1.92201
0.0221347
0.0235373
3.68597
0.0208835
0.0203678
0.0210847
0.0208331
0.0218216
0.0197481
0.0222315
3.25373
0.0212067
0.0210925
0.0226926
0.0208144
0.206093
0.0216767
2.64474
0.184064
0.0241968
0.0291315
0.328367
0.0240352
0.0211759
0.0230485
0.0209495
0.0224278
0.0214596
0.0217231
3.31132
0.0202872
0.021322
0.0398934
0.153906
0.0217033
0.0208397
0.191177
0.0221935
0.0255934
0.0213114
0.02085
0.0209384
0.371344
0.0214254
0.155452
0.0468375
0.0211614
0.0208309
0.0210929
0.0241411
0.241043
0.0201448
0.038694
0.0210968
2.51431
0.264858
0.0221543
0.168274
0.021549
0.023014
0.0237035
1.5578
0.0226478
0.0248842
0.0257621
0.414235
0.0216409
0.0342554
0.0214506
0.0436938
0.130426
0.157685
0.020982
0.0285626
0.162366
0.154961
0.022805
0.0239286
0.238956
0.244147
0.0208194
0.0480818
0.0211902
0.0240334
0.0214509
0.0223233
0.0222385
0.770899
0.0216074
0.0218092
0.0495982
0.420033
0.463807
0.105366
0.654216
0.0207858
0.195872
0.0533665
0.0210303
0.0211187
0.38117
0.0235062
0.0214878
0.021243
0.0404613
0.0206977
0.0212542
4.11642
0.0214615
0.0217479
0.0210413
0.0214019
0.0225874
0.0204683
2.96247
0.0235766
0.0227793
0.0205227
0.0285582
1.11767
0.0209218
0.0217267
0.249866
0.176132
0.021354
0.0241598
0.020709
0.0209324
0.0373856
0.1598
0.0209331
0.021094
0.244471
0.0671752
0.751494
0.0270461
0.0224097
0.408386
0.0207412
0.0247396
0.0240476
0.0205772
1.53124
0.811337
0.0359795
0.0284682
1.3531
0.0198432
0.0197799
0.0225359
0.0346933
0.642375
0.0203321
0.0367399
0.92547
3.89604
0.0216356
0.0225305
1.06355
0.0210025
0.0239275
0.401696
0.0209586
0.0211882
0.0205066
0.318374
0.020859
0.0238077
0.0218523
0.0336936
0.0272086
0.409449
0.0211827
0.0211303
0.0271277
0.0216884
0.0227091
0.0221544
0.0852546
0.103162
0.0209925
0.0213321
3.46568
3.76313
0.269992
0.0207556
0.021358
0.0226583
0.0215314
0.0212689
0.0214314
0.0218719
0.0218654
0.0206697
0.0207659
0.053512
0.0232053
0.0277305
0.463118
0.0555345
0.043802
0.024318
0.0447465
0.10395
0.0293196
0.023001
0.0259697
0.0210693
0.234133
0.0200269
0.0202766
0.020697
0.519798
0.0209191
0.509075
0.0217265
0.0201356
0.0456828
0.02117
0.021142
0.0211631
0.0270915
0.15174
0.0216149
0.0205764
0.0227083
1.2636
0.0432911
0.306147
0.0210481
0.0312136
0.0215143
0.021537
0.0201861
0.0207233
0.0213574
0.0216159
0.215233
0.0223721
0.0224832
0.102943
0.874785
0.112768
0.0208628
0.0810703
0.0311356
0.712864
0.0205504
0.0210207
0.0231604
0.0662781
0.0197914
0.0213462
0.0207151
0.0203397
0.110126
0.022159
0.0606263
0.0215723
0.0197746
0.023734
0.0214313
0.569096
0.021134
0.025378
0.0217818
0.0267093
0.0220615
0.0523975
0.306584
0.0212297
0.042146
4.13794
0.021118
0.021521
0.0381311
0.0197221
2.74755
0.027264
0.020945
0.049976
0.0200123
0.0216456
0.0214555
0.0206901
0.0202174
0.02217
0.020683
0.020714
0.0215266
0.0217488
0.0430742
0.0200572
0.11274
0.0205362
0.020892
0.0271896
0.0441983
0.0220321
0.0197184
0.0211922
0.0223244
0.0420543
1.5358
0.031495
0.0219359
0.0219675
0.0207564
0.0290679
0.0209271
0.0222694
3.75479
0.288003
0.0418742
0.0210778
0.0217048
0.0221657
0.0197262
0.0394096
0.0201236
0.098168
0.0219892
0.15713
0.0263039
3.31622
0.0215645
0.0578189
2.31343
0.355136
0.0944875
0.0252557
0.347481
3.69092
0.0218752
0.0324149
3.72733
0.0204619
0.0207472
0.0213326
0.0241627
0.0606082
0.0214531
0.0240026
0.673244
0.0195258
0.0214633
2.95148
0.199582
0.0864518
0.124529
0.524494
0.0221621
0.0609137
0.0232231
0.0235621
0.590308
0.0223761
3.41812
0.0395794
0.0236965
0.0213808
0.0224524
0.0227956
0.0205276
2.41507
0.0197861
0.0212414
0.021308
0.294073
3.73555
0.0315678
0.0212399
0.022239
0.0204808
3.15854
0.0209808
0.0219844
0.0235637
0.0500843
0.0206957
0.0631302
2.26243
0.285012
0.0217703
0.184946
0.0205773
0.400591
0.0198236
0.0282317
0.0213747
0.0559627
0.0255412
0.821325
0.10056
0.0227466
0.0227995
0.0269994
0.0237543
0.0211002
0.0207042
0.024319
0.021747
0.239707
0.0196452
0.0210565
0.0214298
0.0214015
0.219759
0.0207404
0.0201354
0.0214777
0.252526
0.0265356
0.0482018
0.0227161
0.0225565
0.0684878
0.0206126
0.0213106
0.0633462
0.0398301
0.0201375
0.0367977
0.0229636
0.255487
0.0212452
0.038926
0.0213456
0.0212077
0.020229
0.0201775
0.0211561
0.0210721
1.46607
0.0568292
0.0215403
0.0213188
0.0211274
0.02216
0.0264887
3.34917
0.0215424
0.0317625
0.023743
0.289646
0.0216041
0.0417056
0.021294
0.0212531
0.0278091
0.0212151
0.0214357
0.0206632
0.0199925
3.74423
0.0213829
0.0207319
0.0565896
0.379282
0.036178
0.0212669
0.019891
0.0240285
2.62035
0.0232852
0.021701
0.0215413
1.43482
0.0218663
0.021105
0.397432
0.0207877
0.0248996
0.0227061
0.0215418
0.0201567
0.0477973
0.0255362
0.0206253
0.0212784
0.0213951
0.0208926
0.427089
0.022651
0.0213954
0.0197659
0.0219808
0.020182
0.0212333
0.0637528
0.0206426
0.0238037
0.0233834
0.711128
0.0197224
0.0224869
0.0475419
0.0266626
0.153829
0.0209817
0.0215139
0.125518
0.0214017
0.0201231
0.304242
0.0214043
2.39077
0.848112
0.0565414
1.94247
0.0214152
0.0274348
0.407266
0.021234
0.019997
0.491226
0.396142
0.0208909
0.0201424
0.0227194
0.0207304
0.232553
0.049165
0.911267
0.0214842
0.0216515
0.0212115
0.0211246
3.25132
0.463239
3.67518
0.0246213
0.0223383
2.16315
0.0213363
0.0208903
0.0226683
0.0209247
0.0218526
0.179985
0.0197196
0.499766
0.021915
0.0220308
0.0213935
0.0261896
0.0207514
3.17243
0.0206787
0.0211925
0.0226172
0.0201631
3.28606
0.0245751
0.0249326
2.3328
0.220018
0.032877
3.30687
0.0213377
2.90286
0.0266092
0.0207658
0.0223692
0.0217293
0.415288
3.20667
0.021474
0.0234067
0.421516
0.0210672
0.0205679
0.0235153
2.72091
0.558783
0.0214984
0.0220847
0.0825146
0.0230737
0.0574474
0.0567555
0.0623123
0.020149
3.19774
0.0215546
0.267289
0.0546117
0.0334011
3.9087
3.39533
3.61484
0.0203654
0.940182
0.0199402
0.0197747
0.35007
0.0197553
0.0221982
0.0211404
0.0588044
0.0206105
0.114475
0.0201664
0.0266179
0.512668
0.0259979
0.0249284
0.416354
0.021816
0.0202417
0.0218644
0.0766525
0.023695
0.115314
0.0214164
0.0260507
0.0217314
0.149468
0.0214197
0.0215757
0.0213681
0.494707
0.0304145
0.0214903
3.35698
0.0210705
0.0213894
0.0240908
1.38616
0.0213939
3.97333
0.0214843
2.90464
0.0214182
0.0391808
0.0209837
0.0459185
0.0214246
0.0577323
0.0247032
0.0329037
0.0208913
0.021688
3.3098
0.0203669
0.0240334
0.0276306
0.0200677
0.0643
3.14527
0.107686
0.0221141
0.0197302
0.0211823
0.102346
0.023453
3.74086
0.0240582
0.2364
0.0213005
0.341432
0.0205351
0.0324366
0.101954
0.0227246
0.142959
0.0232705
2.89997
0.156343
0.020775
1.08237
0.0223175
0.0211373
0.0228861
0.0726678
0.0232303
0.154771
0.0239685
0.0951692
0.0394259
0.0550478
0.0430589
0.573353
0.0214595
0.0215237
3.17341
3.01633
0.0336821
0.0235027
2.7339
0.861114
0.0212906
0.0214335
0.0212032
1.11155
0.0207096
0.0209482
0.0322772
0.0493431
0.0198214
0.0206117
0.0222181
4.02917
0.0205039
0.0238421
0.0198204
0.104851
0.0217202
1.06267
0.0218363
0.0206461
0.0213338
0.0202827
0.522413
0.0340839
1.40292
0.0213257
0.0285084
0.0202065
0.226432
0.132512
0.0446601
0.0207954
0.0527556
0.0208822
0.0215871
3.46075
0.0210743
0.0241749
0.425415
0.0201511
0.0951363
0.0207596
0.0198301
0.0215487
0.136034
0.0208002
3.98633
0.0969911
0.0349428
0.294345
0.0207093
0.0872151
0.0551488
3.71647
0.0351615
2.68958
0.177976
0.0215691
0.0355939
0.0216977
0.0291941
0.0209458
0.0227445
0.0212026
0.0258241
0.0722181
4.06376
0.0237668
0.0230619
0.713345
0.39658
0.0211996
0.0214543
0.0814149
0.0347029
0.0204447
0.472331
0.0362041
0.0221487
0.0203907
0.0224262
1.06149
0.0216199
0.0509814
0.0195881
0.511638
3.79355
0.0872838
0.0221727
0.0214579
0.0211403
0.0212745
0.0214423
0.0246749
0.0222748
0.0215444
3.74708
0.0208335
0.0215085
0.0210595
0.300037
3.81312
0.0212439
0.0213187
2.50366
0.0204829
4.162
0.0215192
0.0213579
0.0197182
0.0216355
0.020596
0.0227001
0.0202667
0.158271
0.0218224
0.348838
0.0213529
0.177363
0.0214661
0.0245197
0.20446
0.189196
0.0212406
0.0214444
0.0323103
0.0197199
0.52182
0.397421
0.0224535
0.0207565
0.0212315
0.0203385
0.0587399
0.0704346
0.0416187
0.42325
0.0396952
0.0214063
0.021182
0.0205272
0.690187
3.02779
0.0218099
0.0211284
0.0208139
0.0271903
0.0213786
3.12124
2.42443
0.0306953
0.0202724
2.58559
0.107824
0.0214421
0.368272
0.0215681
0.446897
0.0320534
0.0321912
0.0265701
1.31436
0.0319557
3.82999
0.0208599
0.0205239
0.020697
0.0203268
0.0215037
0.0283247
0.0205299
0.0256274
0.0200043
0.261514
0.0210057
0.0295139
2.45303
0.0221021
0.0198029
0.0293608
4.06876
0.0212472
0.0206014
0.178982
4.06288
1.40459
0.0215992
0.0197277
3.14747
0.107988
0.0239179
0.0473274
0.0213789
0.0322678
0.0214878
0.110356
0.0206656
0.0209647
0.413204
0.0204211
0.0227145
3.47094
0.0548866
0.020636
0.0216111
0.0207478
2.26715
0.0242941
0.0261237
0.0214251
0.0207796
0.104854
0.0293475
0.0211508
0.0212932
0.0197265
0.0226787
0.0206542
0.0226463
0.194845
2.99336
0.0231092
0.0379499
0.0208086
0.0453816
0.0212169
0.0215166
0.0207633
0.259173
0.0413546
0.0200228
0.0226766
1.00071
0.0357396
3.77379
0.0453568
0.0212936
0.0207746
0.0272033
0.0224387
3.90336
0.0205241
3.58305
3.98124
0.0208984
0.0363367
3.46304
0.0253666
0.293246
0.0939064
0.021605
3.96309
0.0256538
0.0204515
3.45122
3.10439
0.0831363
0.021704
3.28668
2.07643
0.02134
0.170296
3.32324
0.0213796
0.0207089
0.0218256
0.0200284
0.0215425
0.451983
4.17154
0.021423
0.0233106
2.80179
3.30545
0.0327921
0.142141
0.0210717
0.0265635
3.97736
0.0560949
2.9697
3.88588
0.0212533
0.0214292
0.021044
0.0218641
3.94008
3.1495
0.0210264
0.0343201
3.6201
0.0692044
0.0544091
0.0211311
0.0214732
0.0219507
0.480554
0.0221496
0.0344019
0.0306467
0.0220303
0.412788
0.0234128
0.0764955
0.124071
3.77713
0.0212142
0.0211971
0.0224907
0.0341193
0.222889
1.42506
0.0218795
2.3104
4.01111
0.0329455
0.0310885
3.62581
0.281093
0.299086
3.04876
0.0213259
0.300271
1.03634
0.0288613
0.0275227
0.111045
0.0223847
0.101146
0.0233059
0.0209627
0.0199852