/*--------------------------------*- C++ -*----------------------------------*\
| =========                 |                                                 |
| \\      /  F ield         | OpenFOAM: The Open Source CFD Toolbox           |
|  \\    /   O peration     | Version:  v2012                                 |
|   \\  /    A nd           | Website:  www.openfoam.com                      |
|    \\/     M anipulation  |                                                 |
\*---------------------------------------------------------------------------*/
FoamFile
{
    version     2.0;
    format      ascii;
    class       volScalarField;
    location    "950";
    object      ddt0(k);
}
// * * * * * * * * * * * * * * * * * * * * * * * * * * * * * * * * * * * * * //

dimensions      [0 2 -3 0 0 0 0];


internalField   nonuniform List<scalar> 
18758
(
-4.58484e-05
-0.00113513
6.34898e-07
-5.02862e-05
1.84323e-06
-1.04136e-07
-9.41954e-08
-1.26292e-07
1.52086e-06
1.10166e-06
-0.000900608
-0.00375917
-0.0015037
4.4432e-08
-9.63899e-08
-1.53787e-07
-0.00273273
-8.37264e-08
-1.0735e-07
-1.41003e-06
-0.00202521
-8.24793e-06
-1.0285e-07
-5.24017e-08
-1.34258e-05
3.64114e-06
0.014485
8.49661e-07
1.02545e-06
-0.00102044
-0.0154149
0.0116108
-1.49484e-07
0.00741783
1.60927e-06
-0.000644291
-0.00145516
2.00118e-06
0.000123487
3.16799e-07
0.000828933
6.52428e-07
0.000555773
-5.85661e-07
-1.64555e-07
-0.0201627
8.5418e-07
1.27451e-06
-0.0031702
6.01914e-05
-0.000593571
-0.000659754
5.84139e-05
-2.70169e-07
-2.54202e-07
-0.000629645
1.43519e-06
-1.31035e-06
1.35518e-06
1.34457e-06
-1.65969e-07
-6.09596e-07
0.0109452
-0.0140471
-1.66028e-07
0.00883106
-8.30649e-08
-4.15567e-09
1.03553e-06
-7.2524e-08
-0.000830201
-1.19573e-05
-8.90297e-08
-1.80108e-06
1.90966e-06
-0.00849454
0.0194474
-0.000436346
1.40779e-06
0.000481699
4.03915e-07
0.00015294
-0.0013108
-1.28327e-07
-9.1836e-07
1.3217e-07
2.58457e-07
-1.9262e-06
0.0118592
3.52101e-08
-0.00112915
-2.51192e-07
5.25903e-07
-0.00301245
-9.38918e-08
-8.42606e-08
-2.09993e-08
9.9687e-07
-5.15006e-05
-3.37412e-08
-0.0200251
-2.50218e-06
-1.2727e-09
-7.8262e-08
0.00951948
-0.00144114
1.20558e-06
-0.000680054
0.0349047
0.00818896
-1.47852e-07
-0.0059099
-5.22263e-06
-3.47996e-09
-2.47028e-06
-1.88525e-05
1.01958e-06
1.10545e-06
0.000135059
2.11842e-06
-4.22237e-08
0.0194561
7.84147e-07
-2.26218e-07
0.00156978
-3.47949e-07
1.37315e-07
-2.1514e-07
4.89464e-07
0.00243319
1.20217e-06
-2.8317e-07
5.88081e-07
0.000998668
5.55108e-07
-7.85534e-08
-0.00382694
8.2898e-07
-1.1065e-06
4.78515e-07
-3.03444e-06
-0.000109906
8.53932e-07
0.0375596
0.00227044
6.28668e-07
0.00857795
6.05245e-07
-0.000929947
-0.00110409
0.003762
-0.00024025
-1.25255e-07
1.75111e-06
0.00073319
0.00086515
5.26567e-07
4.66572e-07
-1.67365e-06
-0.000970548
-0.00481948
-2.89797e-07
-0.00026822
0.00845317
-0.0205268
2.0641e-06
-3.43768e-07
-0.00706604
0.00297506
-0.00345779
-0.000873382
6.81465e-07
9.39007e-07
0.00212148
0.0203233
-7.33445e-08
-1.07605e-07
2.0408e-07
0.00370115
-1.63273e-08
1.64653e-08
-6.22079e-07
-1.13047e-07
6.55675e-08
-0.0292152
-9.19956e-08
-0.00101106
-2.15424e-06
-0.00267734
-0.0075377
-0.000352306
-8.72476e-08
2.37227e-06
0.0391844
4.64823e-09
4.22199e-08
-2.69622e-06
-1.32366e-07
-0.00263362
1.29446e-07
4.022e-06
2.04139e-07
0.00259267
-1.64743e-07
-1.65546e-07
-0.000129219
-9.60758e-08
1.40553e-06
0.0033235
0.000893115
1.76883e-07
5.97857e-07
5.78756e-06
-1.16818e-06
-1.03886e-06
-1.56231e-08
-1.6157e-07
5.98869e-07
-6.26964e-08
0.00115784
0.044595
-1.90751e-06
8.21544e-07
1.84535e-07
0.00328663
-0.000619705
2.22436e-06
-2.32056e-07
-0.00509904
-1.063e-07
1.7664e-06
6.06603e-07
0.0104434
-1.02461e-07
-9.38302e-08
-2.40062e-06
5.24631e-06
-0.00297177
-1.80125e-06
-2.15179e-07
-1.43122e-07
4.99998e-06
3.01887e-07
6.27936e-07
-0.00466411
-2.65763e-06
-9.39508e-08
-6.87578e-08
3.75124e-06
-4.03032e-08
-0.00108004
3.83533e-07
0.000775618
-2.23191e-06
-1.69997e-07
-2.23142e-05
1.81708e-06
-0.000140297
-1.69333e-07
-0.00744729
-4.90236e-06
-2.91268e-07
-1.08603e-07
2.26514e-06
0.00959165
0.0108185
-2.50797e-07
-3.60958e-07
-1.2819e-07
1.9546e-07
7.60273e-05
0.00610042
1.70981e-07
-1.45779e-07
2.88793e-06
-9.52872e-07
4.35529e-07
-6.0018e-08
-1.34476e-06
4.13281e-08
-6.75589e-08
-3.53055e-07
-1.41629e-07
0.00724417
-9.30032e-08
-1.32912e-07
-6.27257e-08
6.01054e-07
-8.20121e-08
-7.82538e-08
8.37947e-07
-1.58001e-08
1.26422e-06
2.9061e-07
3.20182e-07
5.35287e-06
-0.00116528
-2.9995e-07
-5.96137e-08
0.0033698
2.22144e-07
9.32244e-08
1.18654e-07
0.00121049
-0.00026992
1.57657e-08
0.000138998
-0.000233093
-4.20501e-07
-0.000562708
-1.36183e-07
0.0124788
-2.44625e-06
1.55591e-06
1.06333e-06
-0.00729859
9.64957e-09
0.00318656
-1.67769e-07
-8.98441e-08
1.61038e-06
-1.66708e-06
-0.000346499
-8.3731e-08
8.03915e-09
0.00143568
0.00173607
-8.89675e-08
-5.73041e-05
4.26112e-06
-1.73844e-05
-0.000476768
-8.46347e-08
2.14377e-06
-1.6618e-07
3.82447e-10
-1.98598e-07
9.33018e-06
-1.09104e-07
-4.9786e-08
-2.49708e-07
-1.8597e-07
0.0293963
0.00099104
4.09711e-07
0.0025755
0.00109283
-8.16457e-08
6.38676e-07
-0.000168865
5.26542e-06
0.000737142
-4.18684e-06
-9.43225e-08
-0.00132271
-0.0111607
-2.20294e-06
-1.75365e-07
-2.34202e-05
-1.12765e-06
-4.89933e-07
-4.35969e-06
0.04133
0.00263836
1.21911e-05
0.012369
-9.36779e-08
3.35467e-07
-7.00921e-07
1.022e-06
-0.0031059
-5.52944e-05
0.00476772
2.28572e-05
0.00102786
-1.27339e-05
-2.45139e-07
0.00696689
5.67425e-07
-0.000448341
0.00292193
-7.1505e-08
-5.91851e-08
5.45471e-07
0.00220513
0.000732932
-0.00185178
0.000581141
-2.06623e-07
-0.00349867
0.00621366
-1.54351e-07
1.7878e-08
-9.13275e-07
-9.51266e-06
-2.48251e-08
-1.16503e-06
-1.08561e-07
-5.59575e-07
6.89973e-07
3.78292e-06
9.60374e-07
0.000299181
3.93796e-07
-0.0177076
-0.024723
0.005011
0.000488416
5.55958e-07
4.72979e-06
-6.61705e-08
0.000546121
1.10338e-08
-2.68709e-07
0.00105363
1.12589e-06
6.12895e-06
1.8745e-06
0.0282877
-1.61166e-07
2.25713e-07
1.17594e-08
-0.00226909
0.0144811
0.000798616
3.15064e-07
-0.00118658
4.99978e-07
-1.54486e-07
-1.05804e-05
1.31135e-07
0.00202103
2.1876e-07
2.93328e-07
-0.0187324
4.04271e-07
-2.52849e-07
-1.04127e-07
-2.30542e-07
8.52514e-08
0.00391882
-2.62762e-05
-1.63998e-07
0.00895693
1.06113e-08
1.26925e-05
-1.62958e-07
-1.5112e-07
-0.0214974
-1.13481e-07
7.41721e-08
6.2542e-07
-2.52839e-05
6.47818e-06
-1.13672e-07
-0.00234012
-0.0002867
-5.97957e-08
3.39509e-07
1.79384e-06
-1.62579e-07
3.90309e-07
-1.47592e-07
0.000860048
-0.00152728
-8.74081e-08
9.78578e-07
0.00354797
7.05888e-08
-0.00115208
-8.57984e-07
-0.000857113
8.95008e-07
7.17771e-07
4.51979e-06
2.87514e-07
-1.68866e-07
0.00129473
6.58318e-05
-1.68876e-06
-3.98353e-08
-9.9897e-08
-7.87904e-08
-1.51655e-07
-8.27875e-08
-1.72263e-07
-0.00232138
1.82345e-07
5.14407e-09
3.7343e-07
-2.45694e-07
7.5508e-07
1.48257e-07
1.39772e-06
5.08726e-05
-0.00243525
-7.03784e-08
-0.000421301
-2.1111e-07
4.27984e-07
3.06442e-07
-0.000941595
9.32844e-06
-1.60462e-07
-9.79506e-08
-0.00134483
4.13855e-05
0.000222266
1.63899e-06
-8.23255e-06
0.00735823
-6.60628e-08
-2.34828e-07
-0.00768529
-1.04895e-06
5.39905e-07
0.000164273
-1.39627e-05
9.70585e-07
-7.12717e-08
-6.72623e-08
-1.98359e-07
-8.91032e-08
-1.21354e-07
-1.85602e-07
0.00156037
2.26928e-08
5.25992e-05
0.00447129
-6.77596e-08
2.29158e-08
1.65341e-07
3.79826e-07
-1.92041e-06
-5.74875e-06
-3.22304e-08
-0.00430069
7.27766e-07
1.51458e-07
-1.16693e-07
3.42705e-06
4.12989e-06
-1.0307e-07
-9.68263e-08
0.00277434
-0.0242441
-6.76891e-08
-1.32963e-07
-2.14871e-08
-0.00598739
1.30638e-08
-1.64806e-08
-1.7262e-07
6.94616e-09
-1.37109e-07
-1.28843e-07
-6.61458e-07
-1.60779e-07
1.27734e-06
-4.41565e-08
7.42791e-07
3.71416e-06
-0.000532875
-2.32634e-06
2.32061e-07
-4.45225e-08
8.34632e-07
-1.09223e-07
1.5697e-06
0.000157061
5.55301e-05
-5.44512e-09
-0.00220682
-4.89946e-08
6.46153e-07
-1.88273e-07
8.00328e-08
5.9852e-07
-6.99879e-08
-8.35115e-08
0.0032575
5.6129e-07
5.2969e-08
-5.05999e-07
1.94329e-07
-8.96963e-08
-0.00202888
1.03675e-06
-0.00112093
-0.000172466
4.2526e-07
6.9423e-07
-8.34688e-07
-3.64348e-07
-1.83092e-06
-7.65976e-08
-0.0104563
-0.000801749
-0.000349584
-7.18548e-08
0.00429167
6.74534e-09
1.66871e-07
-7.4274e-08
5.43423e-05
-0.0137347
-2.21285e-06
-2.76754e-06
4.43677e-08
7.99042e-07
0.0373392
-7.95914e-06
-1.2009e-07
0.000222241
2.23154e-07
-0.00268178
5.8422e-07
1.57534e-06
-8.72331e-08
4.4986e-05
1.13965e-06
4.41947e-07
-8.3507e-08
1.38277e-08
-8.36019e-08
4.03513e-07
-6.76163e-06
0.000605024
0.00361384
1.65713e-05
2.10568e-06
-5.21795e-08
-6.64606e-08
0.000401953
1.42145e-05
2.58179e-07
8.56354e-07
5.27074e-05
0.0028138
1.21401e-07
-1.00857e-07
-6.95722e-07
-0.00147585
4.69374e-09
-0.000319714
7.77408e-10
-4.3514e-07
5.47993e-07
-1.57917e-07
-9.7204e-08
-6.03104e-08
-7.24281e-08
-4.52015e-06
-1.15845e-06
6.10098e-07
0.00154508
-1.13302e-06
-1.39174e-07
2.85342e-05
-1.02543e-08
-3.60001e-05
0.00128371
2.52994e-09
-0.00224736
-4.89813e-06
3.1366e-07
-0.00618156
0.00193206
0.00208336
0.00580867
-3.58059e-07
0.0101218
2.54655e-08
0.00477504
0.00509659
-1.63616e-06
-2.58086e-06
-3.69246e-05
2.15869e-07
-3.10993e-06
-5.49151e-06
-0.0539551
-1.24581e-07
0.000533128
1.3567e-07
9.65469e-07
9.84471e-07
-6.2411e-08
7.36837e-07
0.0386183
-0.00133892
-2.22263e-06
-7.60521e-07
5.03001e-09
-1.61135e-07
5.92113e-06
-1.92881e-06
6.60014e-06
-1.48446e-07
4.42496e-05
2.03179e-06
1.61643e-07
3.32969e-07
1.31822e-08
0.000204549
-1.48237e-07
-8.10078e-08
-0.0107535
-6.56314e-08
-1.36981e-06
0.00355224
4.97843e-07
2.37625e-07
-1.02458e-07
1.75627e-07
1.90711e-06
1.12683e-07
-0.00156431
2.01513e-07
-1.17491e-06
-4.86894e-08
9.4635e-08
5.47938e-09
-0.00663943
1.35267e-08
-0.00391027
3.63597e-08
-7.13686e-09
-0.000880802
7.20322e-08
-8.15352e-06
-2.08612e-06
0.00312705
1.85097e-07
0.000234604
0.000381431
-3.53745e-08
0.00308469
-9.10115e-08
-1.28137e-05
1.55102e-07
-8.00404e-08
0.00343354
0.0041945
-1.60252e-07
-1.22333e-07
-1.917e-07
-6.28039e-08
-1.00738e-07
0.00103485
-0.00022349
-1.73047e-06
-6.46567e-08
-8.93543e-08
0.00368252
4.86598e-07
-0.000203844
-7.01937e-08
0.000250544
-8.08942e-08
2.02246e-07
4.40508e-07
-0.00050106
-1.30408e-07
9.43667e-07
-1.99633e-05
3.63977e-06
0.00180033
-7.7805e-08
5.85425e-07
-1.27369e-07
1.37529e-06
3.56048e-07
1.92073e-07
1.11918e-06
-1.5314e-07
0.00274812
-1.40927e-07
2.13592e-07
1.09812e-06
-0.00249638
9.46432e-07
-6.87691e-08
7.41462e-08
0.000598236
0.000425099
-3.45952e-06
-9.97785e-08
-3.48202e-08
-1.5572e-06
0.00116814
0.00374771
-1.50959e-06
-1.31893e-07
-3.45558e-07
-1.11172e-07
-2.08761e-07
-1.11346e-07
2.30259e-07
-0.000799625
-1.4236e-07
-8.16843e-08
0.000541488
-7.16246e-08
-1.22505e-06
2.663e-06
0.0393297
-0.000143183
0.00059966
-0.000182328
-1.1445e-07
-3.05989e-08
-9.21577e-07
-1.84689e-06
-1.16378e-07
-7.89958e-08
1.9479e-07
-1.32759e-07
-0.0256398
2.85933e-07
-1.38896e-05
5.87051e-07
-4.83266e-08
8.21149e-07
1.02496e-06
2.08058e-06
1.70785e-07
-1.22569e-06
1.29461e-06
-0.000938214
0.0270027
0.00840124
-1.3169e-07
1.08031e-06
5.51558e-07
0.00149082
0.000921973
-0.00357726
-6.61054e-07
9.84189e-06
1.041e-06
-0.000132869
-1.20898e-07
3.35465e-08
1.67025e-06
-0.00726632
-1.22744e-07
0.000696425
0.00238876
-1.33082e-07
-9.94088e-08
-1.54958e-07
-1.68911e-07
-8.50713e-08
1.7378e-06
7.72478e-07
-1.11344e-07
-1.28579e-07
-0.00116105
-0.00116088
-1.04231e-07
0.00137044
-1.67632e-06
-1.38827e-07
-3.00523e-06
-1.99038e-06
-1.56179e-07
-5.93391e-07
-5.75663e-08
5.2234e-07
-1.027e-07
1.54233e-06
-9.83647e-08
0.00327955
4.66109e-07
3.88817e-07
-1.65579e-07
0.00297564
-1.2806e-07
3.07495e-08
0.000531355
-1.28314e-07
9.7043e-07
3.71512e-07
-7.63184e-08
-9.31738e-08
-7.14563e-08
-1.56741e-06
5.44298e-07
4.43469e-07
0.000583788
2.09193e-06
8.51085e-07
-0.00137102
-3.16889e-07
-0.00016729
2.60245e-08
-2.84352e-05
-6.49576e-09
-1.17346e-07
4.21588e-08
-1.38854e-05
4.93233e-07
0.000386891
-1.57813e-05
8.7194e-08
5.02314e-07
2.81891e-08
-1.46824e-07
4.55833e-07
8.43381e-07
-7.13211e-08
-7.34553e-05
-6.46285e-08
-1.44472e-07
-0.00270223
-1.49262e-07
-1.54306e-07
-9.35602e-08
0.00415635
-2.06545e-07
-3.25507e-06
7.37722e-07
0.00922958
-0.00118037
-1.3182e-05
0.00130056
-7.40991e-08
9.107e-09
-7.25448e-08
-0.0417838
1.17828e-07
-8.72992e-08
1.00316e-07
1.11532e-06
-1.49751e-05
-1.19837e-07
-7.48072e-08
0.00838497
-1.12106e-07
4.49584e-07
-0.0189639
8.80937e-09
-1.07439e-07
0.0362433
-9.41969e-07
0.0048312
0.00441058
-6.54126e-08
-7.85681e-08
-0.00288184
-7.64471e-08
1.19518e-07
0.00117052
-3.82319e-08
-0.0011481
-1.50184e-07
-1.32527e-07
-1.01172e-07
9.39076e-07
8.35895e-07
0.000448655
-1.56244e-07
-8.1898e-08
-0.00335073
0.000379319
5.56251e-07
-2.58411e-06
-5.31149e-05
-0.0010474
0.0158266
5.37971e-09
-0.000882263
-6.16637e-08
-0.0066851
-0.0010703
-2.009e-06
2.61385e-05
-1.44858e-07
-0.00149273
-8.37547e-08
-0.00150728
-1.90924e-07
0.0188005
1.21823e-07
9.80197e-08
6.13324e-09
-1.07252e-07
0.0007321
-1.30813e-05
-1.02685e-08
-0.00918976
-1.15288e-07
-1.30264e-07
-0.000700437
-9.67104e-08
2.699e-06
-9.72508e-08
8.75749e-08
-8.73541e-08
-8.00147e-08
-8.45342e-08
-8.20536e-08
2.64932e-06
-1.65436e-06
-1.07326e-06
9.34363e-07
6.22921e-07
-1.08083e-07
0.000823919
-1.46762e-07
0.000691361
-1.63886e-07
-0.00241733
3.95089e-07
-0.0011222
1.54708e-06
2.20948e-06
-1.01652e-07
4.71977e-05
-9.92818e-08
0.00169234
7.09514e-07
-1.49634e-07
3.17202e-07
-1.55289e-07
-6.52622e-08
-6.43843e-07
-1.35689e-07
-0.00284832
-2.06946e-08
-6.76473e-07
-1.59524e-09
5.59925e-08
0.00738215
-0.00655935
1.43396e-07
-1.02026e-07
-1.15329e-06
5.69738e-07
-1.068e-07
6.78538e-06
-2.97091e-07
-1.0783e-07
9.34787e-07
1.5485e-06
1.95765e-07
5.67288e-07
6.97953e-07
1.03927e-06
-0.00170766
3.13749e-07
0.000183867
0.0393635
-1.06321e-07
0.00052439
-4.35506e-07
1.9129e-06
3.53368e-06
-2.97332e-07
-4.56744e-06
1.17627e-06
8.9162e-07
-0.00115082
-0.000201694
-0.000779853
0.00676576
0.00385651
-2.22451e-06
-6.40445e-08
-8.19778e-08
0.00389637
1.02814e-06
6.7787e-07
6.48184e-07
-8.01788e-05
4.82866e-07
-2.14703e-09
-0.000835089
1.59375e-07
8.09494e-06
1.14033e-06
1.12043e-07
-0.000212787
-7.03696e-08
2.00988e-07
3.32023e-09
-1.88277e-06
8.04567e-06
-8.70907e-08
3.46952e-07
-0.0018358
-8.18704e-08
-1.13964e-07
0.00147975
7.32846e-09
3.88788e-07
2.60286e-07
-6.06368e-08
1.07115e-06
-0.00933918
6.51228e-07
0.00167863
-0.00139729
0.00270446
0.000638209
7.07865e-06
-0.0291745
0.00212807
9.85276e-08
-2.79641e-08
8.09376e-07
-7.82124e-08
-5.54155e-08
1.94274e-07
5.06191e-06
4.93715e-06
6.90917e-07
-9.27339e-08
-3.48533e-06
8.50068e-06
-6.28013e-05
2.49354e-07
-3.23194e-07
-5.72761e-08
1.50667e-06
-0.00356781
7.23771e-07
0.00352908
-5.08651e-08
-5.42611e-08
1.62564e-06
-2.8975e-06
-6.06616e-08
2.45074e-06
5.77457e-07
1.80901e-05
-0.00144173
2.35135e-06
-1.70469e-06
1.86192e-07
-2.0334e-07
-1.91431e-07
-8.40793e-08
0.000997794
2.78769e-06
0.000151482
0.000257358
-0.00715189
5.474e-07
-0.00075009
-0.00223834
0.00639446
1.09949e-07
0.000293969
7.56525e-07
9.62881e-05
9.04014e-07
-2.01309e-06
-7.65477e-08
-8.79227e-08
1.93717e-07
-3.39318e-06
-9.52267e-08
2.15822e-07
0.00035812
-0.00605442
0.000217225
0.00163964
6.99263e-07
-0.00428859
-5.82546e-06
-2.6985e-06
-1.05704e-07
-0.0051701
-1.9718e-06
-1.46682e-07
7.91797e-07
-0.0253223
-0.00180889
0.000280371
1.31858e-06
3.10416e-06
1.09059e-08
0.00509612
-8.09274e-08
0.000282992
0.00398309
-2.21781e-06
3.20143e-07
7.34703e-07
-7.87342e-08
-8.92454e-08
-0.0019784
1.58863e-05
-5.20468e-08
4.9908e-07
4.02808e-06
-8.1927e-07
-0.000977897
-2.54219e-07
-0.00134322
-9.57915e-08
-0.000813288
-1.22452e-05
-1.25187e-06
-0.000122878
3.08239e-06
0.00359793
1.1048e-08
-2.05605e-06
-0.00331064
5.92636e-07
-1.54302e-07
0.0110122
-0.00252229
-8.31043e-08
-1.46724e-07
0.000635224
5.06325e-06
-9.78424e-06
-6.19934e-05
5.67606e-05
-3.13681e-06
5.00416e-07
0.00149504
6.85481e-07
-5.50855e-07
-4.24299e-07
0.000746327
-1.29072e-06
-9.35524e-08
-7.04671e-08
8.72607e-06
-8.31229e-08
-0.000103178
-7.34527e-08
-7.18665e-08
0.00171263
4.59498e-07
-4.45496e-08
0.000522358
4.4579e-09
6.5969e-08
-1.03911e-07
-4.51038e-08
-1.41024e-07
3.88473e-07
2.07986e-07
-0.00181794
-1.66137e-07
-0.00381221
0.00178283
2.21401e-10
-6.77649e-08
-8.80178e-08
-0.00271907
3.77704e-07
-2.67265e-06
-0.00197399
1.14641e-06
0.000360155
-1.53001e-07
-7.03662e-08
-6.6981e-08
-1.26419e-07
-1.17257e-07
-1.69892e-08
-4.49894e-08
-1.04212e-06
-9.31747e-08
-0.000221622
1.71842e-05
-0.0010964
-1.06737e-05
-9.79201e-08
8.21051e-06
0.0100022
-0.00161641
0.00069968
0.00481988
0.00208211
5.12097e-06
-0.001734
1.66672e-07
-2.29584e-06
1.03093e-06
-0.00127446
-7.53935e-08
-0.00223374
-0.000583666
-1.03049e-07
-1.02819e-07
0.00168482
-6.17354e-08
-1.47221e-07
-1.16635e-07
5.28559e-07
-0.00126321
-1.94813e-05
-1.24534e-07
-6.0936e-08
1.42808e-06
-3.21306e-08
1.20282e-07
-1.01976e-07
-0.001396
1.62907e-06
-2.00844e-05
6.663e-07
-8.09932e-08
5.26743e-08
0.00123936
7.36727e-05
-1.90176e-08
2.12879e-06
1.79894e-05
-2.59562e-08
-8.558e-08
-1.0629e-07
-1.13574e-07
-1.31498e-07
-1.39948e-08
-7.32508e-08
0.000641448
1.20839e-07
-1.13985e-05
-2.49306e-07
-1.08753e-07
-1.09849e-06
-1.67315e-06
0.000373882
-1.23613e-07
7.10724e-07
0.000261659
0.00194432
-2.23014e-06
2.08609e-06
0.00378587
-5.44075e-06
-1.13627e-06
-2.09042e-07
-1.19146e-07
-5.8351e-07
-8.88628e-08
-1.24151e-06
1.62885e-06
2.06013e-07
-9.44304e-07
-5.2346e-07
2.73715e-07
1.24762e-06
0.0106562
6.17585e-09
7.79829e-07
-4.61082e-06
1.65316e-07
0.000148633
6.12916e-07
-1.34481e-07
0.000758131
3.15228e-07
-1.01986e-07
-7.72977e-08
3.65026e-07
-6.56929e-08
-7.17605e-08
-0.0138419
1.46241e-06
-1.32269e-06
-9.9485e-08
-4.65245e-06
-0.00120235
1.84861e-07
0.00462947
0.00161508
-1.07813e-07
-5.74515e-08
-0.00865895
1.25249e-06
1.43618e-06
-5.21727e-08
-2.79251e-06
8.72445e-06
-1.0165e-07
-1.38665e-06
-1.14005e-06
1.92869e-06
0.00372028
-0.00146683
7.558e-07
0.00214797
-0.00676355
1.27695e-06
0.000793501
-0.00238964
6.58241e-06
0.00860487
-9.21302e-08
4.5373e-07
1.23715e-06
0.00142737
-1.85933e-07
-0.000190192
-3.56838e-07
-0.000261513
-5.6428e-08
3.18007e-08
0.00229809
-7.00921e-07
-9.15822e-08
-1.28468e-07
5.0969e-07
2.05939e-07
-3.35547e-07
-6.4112e-08
-1.1327e-07
0.00258824
0.0320835
-4.4509e-08
4.96673e-07
2.87008e-06
0.000891244
6.28253e-09
-1.37739e-06
-0.000251377
1.0133e-06
1.1941e-07
-8.11153e-08
0.00147128
5.36264e-07
1.98631e-06
1.29266e-06
-7.24541e-08
1.31855e-06
0.00174044
2.5736e-07
-0.00117107
-0.00707812
-0.00345328
-3.06606e-07
2.64637e-07
-8.43094e-08
1.03026e-07
-1.43758e-07
-0.00156851
0.00153113
1.04846e-07
0.000463576
6.47368e-06
1.26007e-07
-7.12834e-08
-1.49916e-07
-4.18191e-05
0.00194537
-0.000108214
-1.68183e-05
1.18395e-07
0.00193798
0.00149975
-1.17609e-07
-6.1371e-08
4.24275e-07
7.49627e-07
-0.0408228
-0.00195873
-3.74077e-08
-5.0178e-05
0.0016999
-3.4787e-06
-1.05086e-07
-9.92663e-08
-1.10332e-06
-6.88658e-08
-3.1076e-07
-7.18038e-08
2.34388e-05
0.00241666
-7.61889e-08
-1.49482e-07
9.45602e-07
-7.31464e-08
-6.08651e-08
5.46678e-06
-5.29783e-05
-6.7168e-08
-1.50796e-05
-0.00121259
-4.09263e-08
-1.50208e-06
7.00508e-07
-7.47143e-06
4.45616e-06
1.18265e-06
-3.33362e-07
-1.17764e-07
-2.72599e-07
-0.00181596
-1.87279e-05
-1.59596e-07
1.50798e-05
1.17377e-06
0.000123402
-0.00137077
-2.40841e-08
0.000482754
-9.77234e-08
2.74724e-08
2.2039e-07
-0.0128292
4.16072e-07
8.4123e-08
1.60378e-07
1.50936e-05
1.73426e-08
2.03645e-05
0.0122077
-6.77776e-08
1.27653e-06
-0.00143038
-3.9545e-08
-1.27147e-07
2.65876e-05
1.39462e-06
-1.07963e-07
-0.000506995
2.46504e-07
-1.15352e-07
-0.00622806
-2.17102e-06
0.000992629
-3.84047e-08
-0.00949166
-3.04476e-06
8.21982e-08
1.85022e-06
8.0013e-07
2.18012e-06
-8.6957e-05
0.0421666
0.000220927
-9.74707e-06
-0.000129965
-6.57559e-08
0.00208196
-0.00120589
-6.26537e-07
-4.73229e-06
2.26543e-09
-0.000869658
1.82148e-08
-6.03938e-08
1.06384e-06
-2.98666e-07
-0.000278643
-0.000899795
-8.51454e-08
0.00579509
-0.0193399
-0.000107118
6.07968e-07
1.67286e-06
5.39749e-09
-8.24577e-06
9.75901e-08
2.30873e-09
0.000678197
-0.0171962
0.00362092
0.000293935
-1.68855e-06
0.000111053
-0.013699
-3.63109e-08
6.52554e-06
-0.00131673
1.21146e-06
6.29062e-08
-8.93209e-08
-0.00466166
2.7093e-05
4.14778e-07
-1.03583e-07
-1.02493e-07
-0.00035006
-7.86785e-08
7.44259e-06
-0.00101599
1.06377e-07
0.000382281
-4.61352e-08
-0.0037063
-1.97185e-06
-0.00103526
-1.25049e-06
-0.00153208
-3.66863e-06
-6.53453e-08
-1.37338e-07
-0.000354153
1.47094e-06
0.00146691
2.69973e-07
-7.70275e-08
4.01585e-05
-0.00394955
-7.18758e-08
3.39712e-07
-8.22893e-06
0.0128992
0.0347486
-9.19997e-08
1.02515e-07
-0.000909652
4.47873e-09
-5.37769e-08
7.90499e-09
-7.4665e-09
-1.10204e-07
-9.29806e-08
-1.05856e-07
2.08163e-07
-1.46036e-07
-9.95906e-07
3.85293e-07
3.22581e-06
0.0201639
-0.00135759
-2.40077e-07
-9.1863e-08
-9.53068e-08
1.36559e-05
-8.40686e-08
-1.20874e-07
-8.29378e-08
-4.67722e-08
-1.25824e-07
-6.2593e-07
-4.90388e-07
0.000137038
0.000121149
-6.25875e-08
-0.000161691
-0.00011572
3.21058e-07
-2.94568e-06
0.000109244
3.86933e-08
-1.01796e-07
-4.14501e-05
-2.19541e-05
-2.84823e-07
-0.000632217
0.000245096
-9.72774e-08
0.00544724
-2.91053e-07
2.8578e-06
0.000194431
-0.00306787
-0.00307467
-7.74894e-07
-1.30678e-07
0.000534011
-2.02937e-06
0.0159362
4.87136e-06
-0.000901596
-0.00364243
2.14587e-06
7.29193e-07
-5.62451e-08
0.000157693
1.56239e-06
-0.000585253
-6.15519e-08
-5.41088e-08
5.38447e-06
4.19103e-07
-0.00569852
1.83976e-06
-0.000604759
-0.014567
1.09084e-06
-0.000947005
-0.000788905
-1.10733e-07
-1.02107e-07
-6.58225e-08
-0.00360113
-0.000752466
-1.70565e-07
-1.78745e-07
-3.14567e-07
-9.13989e-08
1.62741e-06
-1.15761e-07
-1.00537e-07
0.000126522
-8.68108e-08
-1.15404e-07
3.68364e-07
-0.014155
-0.0208314
-0.00447873
-8.74253e-08
-2.13879e-06
1.49692e-06
2.7442e-07
4.0779e-08
-0.00214839
-0.000549134
1.57815e-06
5.28588e-06
6.58303e-09
8.536e-07
4.94848e-06
1.3671e-06
0.00169006
8.80864e-08
2.19056e-06
8.47015e-07
-0.00149379
0.000662454
-1.09626e-07
-2.01597e-07
-3.75898e-07
-3.80145e-07
0.00470281
-6.88225e-08
-1.01055e-07
-2.1142e-08
3.82947e-07
1.08057e-07
-1.68629e-07
-8.88776e-08
6.0904e-07
-9.99838e-08
-1.43398e-07
0.0115783
0.00136451
-0.00380655
-5.38096e-09
1.47232e-08
4.26769e-08
9.95308e-08
3.87875e-08
-3.35434e-06
2.5645e-08
-6.86426e-08
-1.10024e-07
-1.02497e-07
6.15876e-07
-1.51417e-07
-0.00385444
-0.00453681
8.35498e-07
0.000560154
-6.66041e-08
0.00274662
1.72613e-05
-9.9194e-07
5.18858e-07
-0.0105802
-2.01594e-07
-5.27318e-08
-1.00448e-09
-2.19264e-06
1.20098e-06
-8.89422e-08
6.268e-05
-1.49768e-06
-8.52199e-08
-8.80433e-05
0.000194841
-2.84779e-06
-8.56774e-08
-2.04439e-06
0.000224784
-1.34517e-06
-0.0221007
-8.6347e-08
-7.17969e-07
-8.67179e-08
7.0264e-06
3.50585e-07
0.000329985
-3.05347e-06
-2.43588e-07
0.0179873
6.21218e-06
1.32841e-05
-1.1116e-07
-1.3099e-06
0.00422119
1.39753e-06
-6.32847e-08
6.99992e-07
0.000276877
1.62771e-07
-3.54552e-08
-4.57107e-07
-2.62079e-06
5.05256e-07
-0.00188671
1.76887e-08
2.70987e-07
7.15244e-07
0.0026771
-7.98068e-08
-8.73512e-08
7.16217e-09
8.05064e-07
-9.21555e-08
-0.0100247
0.000500822
-2.673e-06
-0.00090264
-1.07255e-07
0.00913805
-5.44634e-08
-6.80505e-08
-4.92252e-05
3.3308e-06
-4.70941e-07
-0.00208798
-1.86703e-05
1.4112e-06
2.99538e-08
8.48412e-07
-5.58448e-07
0.000764128
-7.30516e-08
3.75494e-06
-9.08973e-05
-8.49738e-08
0.000227522
0.000741349
0.000477722
0.00196857
-0.000747927
-0.000361164
0.000554901
7.00188e-07
5.65437e-06
-6.54357e-05
-7.66181e-08
-2.67816e-07
-6.39149e-08
0.000470003
-0.00232481
-0.000175478
-2.03689e-07
-1.44176e-07
3.95682e-05
-8.44651e-08
6.38879e-05
-7.02286e-08
1.41534e-06
-1.48429e-07
3.07972e-08
6.52702e-06
7.08352e-07
0.00399809
-2.79621e-06
6.14898e-07
-3.68761e-07
3.20042e-05
0.000490172
8.85623e-07
7.04439e-07
1.74239e-05
4.89608e-09
5.31308e-07
-6.75165e-08
0.000984294
5.031e-06
0.000369173
-3.37217e-07
-5.60499e-08
9.55702e-07
-3.16737e-05
0.00807706
-7.04579e-07
-0.00148678
7.08923e-08
-6.98296e-08
-4.0663e-08
-1.73193e-07
-2.38979e-07
-9.19925e-08
0.00882696
0.000794723
-7.78634e-06
-2.64521e-06
-6.00157e-07
-2.04311e-06
-1.40771e-07
2.78964e-07
1.23463e-06
-0.000455358
0.000354901
-1.80984e-07
-0.000239927
-6.73752e-08
7.2511e-07
6.35268e-08
8.53653e-07
-1.6656e-05
0.00168658
5.349e-05
3.20144e-08
-6.88842e-08
-9.00374e-08
-8.63715e-08
-7.86609e-08
-1.04724e-07
-0.00237791
-9.28523e-08
-1.77359e-06
-2.74481e-07
-3.36367e-06
-1.59908e-07
0.00392541
-7.65974e-05
0.00131065
6.44705e-08
-1.49232e-05
-2.1884e-07
0.00139593
0.000570703
-4.9185e-06
-0.000152406
2.0496e-07
8.46885e-07
2.2533e-08
3.51828e-06
5.09564e-07
-1.37323e-06
6.68496e-07
0.00446054
-1.35094e-06
8.85939e-08
-3.14151e-06
-5.06247e-08
-3.41542e-09
0.0128048
1.17177e-07
-0.0022526
-1.80165e-07
0.00566758
-0.0132577
0.000728334
-2.12374e-07
-4.95268e-06
5.64861e-09
-1.10948e-07
3.8456e-07
-5.44122e-07
9.90652e-07
-1.1823e-07
-0.00153687
-3.18971e-05
6.63787e-07
-1.43726e-07
-4.55833e-07
-2.2072e-05
2.4287e-05
0.000908303
2.79869e-07
1.68009e-06
-0.00108859
-3.34142e-05
-7.56311e-08
-3.56043e-06
-2.19048e-05
9.90616e-07
-0.00237576
3.00312e-07
3.63313e-07
-1.54174e-06
8.05696e-08
0.00051821
7.88399e-07
-8.60565e-08
-0.000136732
-6.32967e-06
0.00211853
1.24869e-05
5.68629e-07
-8.07281e-05
-8.24884e-08
1.26572e-06
-1.34471e-07
4.74566e-08
2.13737e-06
-0.00650901
-0.000528299
-0.00232427
-0.000984604
2.83931e-07
-0.021941
2.21118e-07
7.00573e-05
-0.000515461
-0.00123158
3.62888e-08
7.57825e-07
-5.5178e-08
-3.19597e-07
2.6203e-08
-1.18956e-07
-0.0222337
-6.13131e-08
-7.80117e-08
-3.17425e-07
8.67075e-07
2.58035e-08
6.18675e-06
-0.00174812
3.28551e-07
4.41426e-07
-8.11152e-08
6.10761e-07
-6.14704e-07
-6.51313e-08
-8.64448e-08
-7.15722e-08
-0.0121373
3.42037e-07
-6.30042e-05
-2.15359e-06
-3.67257e-08
3.16847e-08
-1.05887e-05
-2.58912e-08
-0.000102226
4.26306e-06
-9.71379e-08
1.21367e-06
-8.28089e-08
3.73524e-07
9.6504e-05
-0.0213549
1.12398e-05
1.2941e-07
9.28873e-07
5.80715e-07
0.00184301
0.00156538
-0.00181473
3.07133e-07
1.18403e-06
-6.50441e-08
2.48857e-07
-1.30963e-06
-0.00260898
-3.93624e-07
-0.00122778
3.3125e-08
3.2781e-07
1.58137e-06
-9.51791e-08
-0.00673889
1.47633e-06
6.69188e-05
6.84195e-08
-1.40105e-06
8.57398e-07
-0.000565629
1.10063e-06
-6.03427e-07
-2.27546e-06
0.000608554
0.00265722
0.00429548
-0.00455555
5.68109e-07
-5.23177e-07
3.06681e-07
2.38641e-05
0.000162705
-2.93834e-06
-8.21368e-08
-1.31706e-07
1.88649e-07
-0.000112911
0.0061681
4.33402e-08
0.0044209
3.49616e-07
-8.44691e-08
-5.49682e-08
-2.68408e-07
5.56626e-05
-0.0032176
-1.2261e-07
-1.9967e-07
1.28799e-06
0.000379503
-2.09309e-07
-0.00153439
1.71337e-06
7.03416e-07
-0.00654791
-9.97172e-08
0.0045976
0.00123848
0.00128027
-0.00223216
-2.76126e-06
1.63799e-07
6.7796e-06
-0.00189047
-1.5882e-05
-5.24657e-08
0.00420909
-0.000178993
2.01962e-09
6.20146e-08
-0.0218599
-7.19601e-08
0.00308735
-0.00489918
2.69631e-07
8.81207e-09
-2.43503e-07
5.61131e-07
0.00417682
-6.68598e-08
-1.55485e-06
-1.13105e-06
0.000505369
0.00014117
-1.23857e-07
5.31845e-07
3.02786e-07
-1.44119e-06
-1.39763e-07
-6.06614e-08
-1.00464e-07
1.24512e-06
8.5527e-08
8.56764e-05
-1.24761e-07
-1.9124e-07
2.0572e-06
-4.75589e-07
1.3028e-06
-1.56119e-06
0.00183554
-9.63567e-05
0.00147589
-5.07148e-08
-1.92526e-07
0.00174454
-1.75659e-07
7.50953e-07
-0.0153641
3.79658e-07
0.00163804
-0.00478646
-1.15458e-07
0.00751625
-0.000308971
-6.68563e-08
-9.32205e-08
-1.23648e-07
-1.21033e-07
0.00616921
0.000120183
-8.33343e-08
0.00847352
0.00469436
0.00050437
3.59081e-08
-6.48891e-08
0.000295753
-9.89431e-08
-8.71635e-08
-2.22738e-07
-6.65307e-08
-1.16964e-06
-2.82515e-07
0.000124654
-0.00181742
-1.60401e-06
-0.00530606
-3.02881e-06
1.3215e-05
-0.0459563
-1.02605e-07
-5.20901e-07
1.50274e-06
-0.000799885
-0.0024294
-0.000350402
-2.8502e-07
-1.05683e-07
1.16709e-06
-7.44141e-08
1.68961e-05
-0.00555598
-8.45848e-08
-9.44613e-05
-2.65065e-07
-0.000954844
-5.9494e-06
-0.00135894
-1.06968e-07
0.00180625
3.04957e-05
-0.000287362
0.00405087
1.65848e-07
0.000239061
0.000432524
-2.16338e-07
-0.000472786
-8.50609e-08
3.94224e-08
-1.04727e-08
4.08888e-07
-2.19264e-07
-9.73805e-08
-6.47871e-08
-3.38132e-06
9.56607e-07
1.83628e-06
0.00950365
1.49068e-06
-1.49393e-06
-1.00918e-06
2.69758e-06
4.79415e-07
1.3763e-08
0.000715272
-0.01152
0.000972192
-1.55888e-06
1.42491e-07
-1.73384e-07
-1.44353e-06
-2.66396e-07
-1.32507e-07
0.00343819
0.00221478
-0.000580077
9.02493e-06
-1.23079e-07
1.18797e-06
-0.0180408
-3.54207e-06
-6.79661e-08
-1.09787e-06
-5.16297e-07
9.89661e-07
-9.26763e-08
-0.000407808
-8.19883e-08
-0.00119835
-6.48911e-08
-0.000459677
0.00442452
-0.0213475
-2.53444e-08
-2.29206e-07
-5.53642e-08
-3.40237e-07
1.74671e-06
0.00438584
-6.72091e-08
-2.61186e-08
-0.000383206
-6.92371e-08
1.60233e-06
0.00434642
-2.29852e-06
-0.00795054
-7.70777e-08
-0.00286218
6.82736e-07
2.85287e-05
-1.80366e-07
-7.19587e-08
0.00881588
-9.46756e-08
-0.00157234
-4.12678e-07
7.67839e-07
-0.00473457
-2.41152e-07
-1.07894e-07
-4.5561e-08
-6.50298e-08
-0.00814643
8.65492e-07
-2.91959e-07
-0.000613289
1.81879e-06
-0.00645857
1.17895e-08
-2.77052e-05
-3.12437e-05
4.92588e-07
5.37889e-07
-6.15715e-08
0.00711003
4.44141e-08
-0.00195114
-1.67057e-07
1.67718e-06
-5.05875e-08
-1.30509e-07
-7.45466e-08
-2.09209e-06
5.07465e-08
-5.92756e-08
0.000728718
-4.18886e-07
2.77487e-06
3.5494e-07
0.00153335
4.66568e-05
6.28149e-07
-2.49902e-06
-7.02126e-08
-9.46607e-08
-3.56033e-07
-0.00518074
7.80532e-05
0.00111734
0.000112088
-7.93606e-08
-1.25644e-07
-1.95128e-07
-9.08336e-08
-3.9172e-08
9.94915e-06
-2.54508e-09
-2.55225e-06
2.29937e-07
-1.51345e-07
-1.40261e-05
-1.65862e-07
-8.1179e-08
-0.00260144
-0.00956162
-1.35123e-07
5.27999e-07
-2.32216e-07
-0.017405
-7.81276e-08
-4.78264e-07
0.00248245
2.0356e-07
4.94501e-05
-3.59346e-06
-2.23965e-08
-1.24271e-07
-0.000136923
-1.14061e-06
1.6838e-06
-1.20751e-06
-0.0189622
-7.11658e-08
-2.78283e-07
1.65998e-06
-0.000804037
6.08307e-07
-0.00391971
-0.00430129
-0.00419994
-0.000387631
-9.24754e-07
-5.85606e-08
-1.34398e-07
-0.000169444
0.000728999
-4.48814e-05
0.00281318
-4.3445e-08
0.000170163
-1.09611e-06
0.00742249
-4.48777e-08