/*--------------------------------*- C++ -*----------------------------------*\
| =========                 |                                                 |
| \\      /  F ield         | OpenFOAM: The Open Source CFD Toolbox           |
|  \\    /   O peration     | Version:  v2012                                 |
|   \\  /    A nd           | Website:  www.openfoam.com                      |
|    \\/     M anipulation  |                                                 |
\*---------------------------------------------------------------------------*/
FoamFile
{
    version     2.0;
    format      ascii;
    class       volScalarField;
    location    "950";
    object      omega;
}
// * * * * * * * * * * * * * * * * * * * * * * * * * * * * * * * * * * * * * //

dimensions      [0 0 -1 0 0 0 0];


internalField   nonuniform List<scalar> 
18758
(
0.0646838
0.180662
0.0220392
0.0616311
0.026157
0.0203631
0.0212826
0.0226486
0.0256086
0.0252282
0.198067
0.439626
0.22226
0.0225142
0.0212621
0.0211437
0.458311
0.0195544
0.0212529
0.0237462
0.540438
0.275355
0.0204616
0.0204079
0.330005
0.234637
0.990193
0.0861794
0.0691273
0.237852
0.795581
1.06135
0.0225465
1.31477
0.0266308
0.255298
0.182625
0.026171
0.198659
0.0199085
0.169025
0.0262768
0.158622
0.0216191
0.0214348
1.12852
0.0254844
0.0688105
2.8033
0.0481257
0.229561
3.05263
0.0454926
0.0240722
0.137813
0.143014
0.0210239
0.0235586
0.0622743
0.0209336
0.0216575
0.0215379
0.970731
2.06296
0.0216831
4.08479
0.0215865
0.019871
0.0859374
0.0195705
3.02826
0.272059
0.0212122
0.0256955
0.0573193
0.743041
1.5944
0.470116
0.025777
0.146098
0.0820167
0.202294
0.46134
0.0374438
0.0224898
0.114851
0.0246389
0.0262087
0.983268
0.114379
2.52058
0.0223835
0.0628658
2.98809
0.0212019
0.0207462
0.0196936
0.04887
0.480252
0.0210937
1.10169
0.027728
0.0198634
0.0207428
4.08387
0.535302
0.0690156
2.63402
1.41962
0.522718
0.0211678
1.98348
0.0264068
0.0216554
0.0277725
0.188484
0.0474624
0.0205899
0.226383
0.0231386
0.0214655
1.5753
0.0225454
0.0205278
1.91654
0.0241443
0.0211771
0.0205285
0.111818
2.03565
0.0635531
0.0224524
0.0263395
3.66794
0.0199404
0.0215332
1.31173
0.0224119
0.111166
0.0802158
0.027853
0.382313
0.0408312
1.53067
1.98397
0.0467204
4.14395
0.101177
0.174258
0.652508
2.51696
1.71773
0.0215853
0.0267317
0.158049
0.433515
0.0622953
0.115105
0.0393449
0.209174
2.02871
0.0206299
3.07005
4.1234
1.37214
0.0210072
0.0206216
2.34218
2.15408
0.425336
1.8828
0.0221829
0.0752988
0.292321
0.972858
0.0210546
0.0212008
0.209726
0.871207
0.0219833
0.0197892
0.0240983
0.1316
0.0224183
2.50818
0.0213593
0.239279
0.0313915
3.30182
1.64738
1.71679
0.0213497
0.0581456
1.70341
0.0196858
0.0223338
0.126666
0.0215748
3.41488
0.020609
0.0242068
0.126692
0.449697
0.021142
0.0211704
3.41628
0.0209648
0.0274216
2.3312
1.76254
0.0210616
0.063507
0.025039
0.0222104
0.0230746
0.0197115
0.0214135
0.0625046
0.0200892
0.258872
1.69155
0.0213286
0.039865
0.127349
0.579129
0.294427
0.0609735
0.115471
2.10669
0.0209416
0.23512
0.0463911
0.656448
0.0218193
0.0209871
0.0214509
0.0659213
2.41656
0.146002
0.0218935
0.0211798
0.0606486
0.0964896
0.0214552
1.67005
0.168291
0.0209987
0.0206327
0.0218023
0.021093
1.96217
0.0213986
0.265638
0.0216836
0.0208369
0.174012
0.0209842
0.362766
0.0212631
0.729752
0.0265268
0.0205519
0.0210103
0.0559681
1.66294
1.62381
0.0205613
0.105968
0.0215996
0.0213954
0.260771
2.56288
0.0213659
0.0208706
0.0237007
0.0229182
0.0253199
0.0199824
0.0223977
0.0225068
0.0206327
0.0225078
0.0212141
4.0682
0.0212729
0.0208555
0.0195368
0.0934383
0.0207256
0.0207309
0.0216382
0.0220435
0.0209789
0.0208939
0.0212092
0.0228266
0.291471
0.0228981
0.0205698
2.1358
0.0236877
0.0210446
0.0210786
0.283733
0.236323
0.0197833
0.0662092
0.537543
0.0217124
0.135698
0.0212173
1.6132
0.118899
0.0719825
0.0686845
1.46185
0.0198379
0.457184
0.141456
0.0215814
0.0689317
0.0376447
0.485311
0.0209672
0.0198453
1.84443
0.308255
0.020737
1.85338
0.0522136
0.0313117
3.51061
0.0209617
0.0210815
0.021247
0.0216353
0.0220389
0.0256848
0.0226923
0.0210161
0.0219748
0.0218888
2.14404
0.25577
0.0222376
0.411078
0.468436
0.0207248
0.0310385
0.245933
0.32372
0.387749
0.12678
0.0213598
1.89247
0.5708
0.0331854
0.0218841
0.0313868
0.0222436
0.0214308
0.136111
1.68029
0.391774
0.0755354
1.64346
0.0209975
0.0250291
0.024394
0.0489431
2.56378
0.176948
0.376768
0.112762
0.200784
0.135017
0.0209248
3.81099
0.105712
0.226653
0.390112
0.0210751
0.0203734
0.283556
0.390057
0.327684
0.392838
1.85446
0.0219261
0.449078
0.394428
0.0211534
0.0224341
0.0229988
0.0232696
0.0214484
0.0223483
0.0214214
0.0230137
0.0214877
0.0217229
0.0286062
0.193887
0.0271413
0.803986
0.91166
2.58551
0.228668
0.0986303
0.0224135
0.0204541
0.152549
0.0224277
0.0219206
1.42617
0.0476844
0.0843929
0.0210521
2.14781
0.021381
0.0237694
0.0197425
3.71396
1.64027
0.385868
0.0212015
3.45043
0.0619002
0.021384
0.0232272
0.0210764
0.238094
0.0211446
0.0208709
1.335
0.0274259
0.0219454
0.0211902
0.0225718
0.0238447
1.82769
0.0695926
0.0214439
4.02485
0.0197348
0.0267663
0.111088
0.0214055
0.968476
0.0214879
0.0240174
0.02194
0.15817
0.0234273
0.0214156
2.13057
0.226841
0.0195408
0.025031
0.0231748
0.021144
0.0212537
0.0221037
1.75931
2.02904
0.0216625
0.0322209
1.60505
0.201361
0.321853
0.164297
0.335887
0.0204497
0.0931437
0.0554352
0.0276571
0.0225066
0.261597
0.0480055
0.0274245
0.0207376
0.0212803
0.0207284
0.021404
0.0207223
0.0214217
0.602999
0.0223534
0.0196961
0.0610931
0.0223313
0.0219363
0.0199286
0.0229516
0.0460124
0.548252
0.0209897
0.241752
0.0206132
0.0272491
0.119164
1.99652
0.120405
0.0212593
0.0213708
2.01176
3.58676
0.0481416
0.0210332
0.0798565
4.11952
0.0195335
0.0204882
2.18746
0.0231193
0.08218
0.042784
0.0241752
0.0321293
0.0206388
0.0210118
0.0222788
0.0207504
0.0209128
0.0216523
0.44303
0.019795
0.0748127
1.61486
0.0195387
0.0197944
0.0226488
0.0250944
0.0274765
0.0722764
0.0211028
1.70562
0.0272575
0.0276374
0.0207917
0.0215004
0.0220338
0.0216815
0.0216699
2.09409
2.50785
0.0206288
0.0208936
0.0219983
2.31242
0.0197534
0.0197314
0.021437
0.0197075
0.0208234
0.0207676
0.0225719
0.0211406
0.0642202
0.0211008
0.0200042
0.0797918
2.03487
0.0260789
0.0212347
0.0210822
0.0221258
0.0211867
0.0227648
0.0574769
0.258646
0.0220143
0.828608
0.0210695
0.0318853
0.0212986
0.0206091
0.0469991
0.0195737
0.020805
0.830692
0.0219532
0.0223836
0.0703842
0.0212995
0.0213123
3.67923
0.0205469
0.688201
0.16706
0.0210603
0.0219787
0.035621
0.0229066
0.0275687
0.021039
0.642229
0.835043
0.357628
0.0206587
2.29147
0.0196804
0.0210577
0.0211163
0.0357739
1.55708
0.0942251
0.0221693
0.0223475
0.022959
2.38775
0.0751205
0.0210591
0.0972411
0.023777
2.24816
0.0261902
0.0377829
0.0207541
0.033437
0.0476822
0.0210681
0.020757
0.0197594
0.0206918
0.0252134
0.0607288
0.261506
0.831294
0.0367483
0.0236193
0.0211197
0.0205871
0.059489
0.309109
0.0199493
0.0400899
1.71321
2.09179
0.0212373
0.0210514
0.0391797
0.245661
0.0196682
0.249136
0.0211887
0.022778
0.0284831
0.0214618
0.0216759
0.0219714
0.0206709
0.0223586
0.0638954
0.0465766
0.32898
0.0221508
0.0208391
0.214289
0.0197535
0.27563
0.449184
0.0212005
1.34956
0.0230109
0.0213358
1.36899
0.303557
0.299252
1.71417
0.0227649
1.02252
0.0198076
3.24757
2.57857
0.0318455
0.0218652
0.41233
0.0236187
0.0472944
0.109374
2.25497
0.0215524
0.469588
0.0206744
0.0414259
0.0746334
0.0208725
0.0282805
1.6176
0.667901
0.0252631
0.0226844
0.0196973
0.0218827
0.0231354
0.0309994
0.0681738
0.0208923
0.199986
0.0234237
0.0213752
0.0253427
0.0197516
0.111415
0.0212007
0.0206957
2.05076
0.0206123
0.0224961
0.342051
0.0627267
0.066603
0.0213908
0.0213644
0.0451144
0.0213524
0.231716
0.023544
0.0232772
0.0222096
0.0213429
0.0196817
2.23772
0.0197508
2.19535
0.139275
0.0220344
2.91093
0.0204403
0.0289387
0.0250305
2.27144
0.0234245
0.0753257
0.123518
0.0210436
0.302241
0.0203085
0.103599
0.0213761
0.021763
3.41747
0.387843
0.0211821
0.0215535
0.0226125
0.0205579
0.0213845
0.231
2.15273
0.0210505
0.0205461
0.0203192
1.816
0.0912684
0.0746675
0.0206615
0.0985536
0.0217573
0.0213892
0.0275304
0.47697
0.0210624
0.0411064
0.0834479
0.0221463
0.199182
0.0213908
0.0261977
0.0210625
0.0205954
0.0250885
0.0214088
0.0491577
0.0213912
3.82565
0.0215845
0.0236658
0.0671981
0.551834
0.0403782
0.0205698
0.0213318
0.131441
0.113762
0.0437949
0.0208242
0.021082
0.025688
2.1872
0.364777
0.0209395
0.021168
0.0219902
0.0215238
0.0221795
0.0211698
0.0213834
0.346318
0.0211933
0.0213196
0.127897
0.0206477
0.179165
0.0705163
2.3743
0.317083
0.376842
2.10541
0.0211787
0.0210939
0.0230324
0.0210514
0.0210638
0.0206346
0.0208564
0.0218476
2.1646
0.119221
0.0801768
0.021927
0.021056
0.0276402
0.0282842
0.0501148
0.0212542
0.022303
0.020542
2.39089
1.2578
0.773767
0.0217965
0.0748913
0.102196
0.166245
2.10673
0.912275
0.0223648
0.0260411
0.0200761
0.74685
0.0215372
0.0198824
0.0617195
0.848429
0.0211607
0.264615
0.173525
0.0212271
0.0211312
0.021242
0.021173
0.0212694
0.0228812
0.0278544
0.0212505
0.0215499
0.82847
2.30001
0.0212416
0.292873
0.217008
0.0221191
0.0224816
0.0211813
0.0201894
0.0228213
0.0221066
0.0212829
0.0216801
0.0226804
0.0215403
3.26327
0.0254628
0.0211297
0.0211844
0.26697
0.0215642
0.0198711
2.33518
0.0210767
0.0310851
0.0251007
0.0213296
0.0208005
0.0205378
0.0240169
0.0377494
0.0213466
0.373507
0.0519986
0.0896256
0.979151
0.0219375
0.0935681
0.0198068
0.0814717
0.0220617
0.0210999
0.133026
0.188333
0.0216912
0.156063
0.252969
0.0203466
0.0277788
0.0198718
0.021925
0.0255453
0.0223321
0.0211332
0.123082
0.0210306
0.0208679
0.314994
0.0208537
0.0210609
0.0207992
3.0714
0.0212174
0.0226096
0.0275528
1.18819
0.321052
0.162632
0.456976
0.021026
0.0197269
0.021339
2.27241
0.0223541
0.0209086
0.0229475
0.0204753
0.0977789
0.02157
0.0215194
0.601341
0.0211401
0.0623169
1.00444
0.0197236
0.0212431
1.53863
0.0228653
2.9986
0.333206
0.0205844
0.0214096
0.647378
0.0206827
0.0230029
0.327811
0.0200404
0.55589
0.0212285
0.0211453
0.0212596
0.0282206
0.0224154
0.546593
0.0224584
0.0209798
0.39619
0.115868
0.0382294
0.0262446
0.113329
2.19234
1.36588
0.019672
2.06561
0.0218113
2.1656
0.829575
0.0211812
0.0292467
0.0215891
0.254745
0.0207692
2.13056
0.0208531
1.0838
0.124627
0.020739
0.0196872
0.0211871
0.175479
0.0976882
0.0211881
0.627709
0.0215615
0.021061
0.557899
0.0212842
0.230294
0.0208096
0.0230984
0.0209513
0.020812
0.0209896
0.0207728
0.064703
0.0270915
0.0290112
0.0297629
0.0217657
0.0212258
0.384333
0.0212556
0.557193
0.0215395
0.455488
0.0251401
0.206817
0.0209523
0.0212999
0.0210358
2.91384
0.0208459
0.435837
0.0469971
0.0213945
0.025073
0.0212513
0.0206261
0.0231808
0.0208591
0.393558
0.0211974
0.0224765
0.0211943
0.0225818
2.42769
0.694703
0.0213566
0.0208121
0.023082
0.0216922
0.0211133
0.023647
0.0218525
0.0211781
0.0204869
0.020797
0.177392
0.0805752
0.0214603
0.0204829
0.389068
0.0221404
0.30904
1.66696
0.0217858
3.82293
0.0225447
0.0209096
0.0216441
0.0229512
0.0387324
0.0206471
0.0303944
0.35637
0.102262
0.290625
4.79726
2.25263
0.0283905
0.0215208
0.0214241
0.444216
0.0204356
0.0215619
0.0279997
0.167299
0.0212144
0.0207744
1.84654
0.0233056
0.0242941
0.0221581
0.0231519
0.109606
0.0214169
0.0235646
0.0212065
0.0292077
0.0249613
0.0216903
0.0216592
0.551754
0.0217113
0.021236
0.320325
0.0196865
0.021135
0.0212276
0.0221059
0.0237148
0.766998
0.0975272
0.424167
0.23389
1.8551
0.309871
0.0239136
2.1955
0.34689
0.0213495
0.0219827
0.0216203
0.021426
0.0221652
0.0220527
0.0661818
0.0872909
0.0215467
0.0202789
0.0366067
0.0248825
0.310202
0.0211791
0.0219147
0.0210686
0.156642
0.447284
0.0277291
3.77683
0.021109
0.0210795
0.0641903
0.0264474
0.0210644
0.0831194
0.0217762
0.028549
0.265554
0.0687719
0.0289603
0.0213513
0.0218374
0.0217982
0.0206565
0.317142
0.0620183
2.80849
0.064955
1.73534
0.0217304
2.82197
2.46917
4.72469
0.106841
0.334958
0.0255468
0.259904
0.090458
0.03049
0.0195537
0.0211623
0.0213832
0.03518
0.0208108
0.0211341
0.0616741
2.0895
0.341368
0.281188
0.0743399
0.52675
0.0275414
0.0234337
0.021246
2.04757
0.151558
0.0204557
0.0279095
1.00455
1.98462
1.74324
0.031261
0.0448458
0.0197377
2.81296
0.0217065
0.32468
0.28088
0.0282897
0.115104
0.0944159
0.021399
0.0212234
0.542535
0.0627948
0.178582
0.0217329
0.0218966
0.0233715
0.365044
0.0238926
0.226703
0.0217654
0.122491
0.254611
0.0243276
0.084957
0.0589348
2.19367
0.0197364
0.0320929
2.3064
0.0265165
0.0211582
0.64587
0.551027
0.021133
0.0212524
0.226207
0.0252535
0.0233525
0.353937
0.0559533
0.0225447
0.0275025
0.0899069
0.028194
0.0228291
0.0227272
0.195378
0.0242929
0.020761
0.0209849
0.0724789
0.0207698
0.314622
0.0204557
0.0206716
0.346387
0.0217038
0.0211121
0.0745952
0.0196817
0.0230475
0.0205119
0.021075
0.0214911
0.0808227
0.0214275
0.232607
0.139857
0.553971
4.27739
0.0235873
0.0205744
0.0207732
2.2515
0.0249866
0.0219145
0.250077
0.0297199
0.368054
0.0200605
0.0204407
0.0205842
0.0208362
0.0212097
0.0199251
0.0219682
0.0222252
0.0212961
0.243453
0.0300009
0.200049
0.0234141
0.0205168
0.0243895
3.68347
2.68965
0.474484
3.74579
0.402308
0.0828385
2.54736
0.022493
0.0335753
0.0406499
1.9495
0.0209723
0.234744
0.212192
0.136475
0.0211802
0.44004
0.0210536
0.0212401
0.0208683
0.028712
1.90803
0.246904
0.0215437
0.01959
0.0207366
0.0201833
0.0289308
0.0213418
2.46148
0.055466
0.0334154
0.0218166
0.0211417
0.0198829
2.06609
0.106364
0.0209444
0.0210467
0.115005
0.0201696
0.0213398
0.0203389
0.0211763
0.0214764
0.0216102
0.0205264
0.0877565
0.0228605
0.150781
0.0239148
0.0216192
0.237773
0.0217018
0.593549
0.0216267
0.0472056
0.114129
0.190449
0.0324643
0.0735324
2.26612
0.0228395
0.0295621
0.0223085
0.021168
0.020596
0.0209385
0.0650158
0.0333945
0.0235519
0.0628355
0.0205709
0.0215136
0.0327577
0.661901
0.0196675
0.039782
0.22194
0.107782
0.103426
0.0223621
0.0215055
1.77402
0.027668
0.0208532
0.0211252
0.107814
0.0205559
0.0206508
2.30864
0.0526111
0.0223748
0.0219638
0.0231215
2.86324
0.0234633
2.43717
1.84229
0.0212221
0.0210061
0.588039
0.0300718
0.0241734
0.0222059
0.026324
0.0246503
0.0208233
0.0235426
0.133603
0.0357095
2.95202
0.223417
0.0322952
0.376578
0.679563
0.0213396
0.464435
1.98511
0.026557
4.72114
0.0215918
0.160113
0.0701961
0.502513
0.0255458
0.0731041
0.02774
0.295993
0.0210541
0.0198817
4.32308
0.0229746
0.0211402
0.0211803
0.0216519
0.0198697
0.0219155
0.0209834
0.0211694
3.92096
1.58217
0.0210869
0.0218259
0.0822736
0.354943
0.0197104
0.160143
0.10296
0.0416969
0.0213734
0.0209771
2.06178
0.0216772
0.0471099
0.0764367
0.0206573
0.0237973
3.73147
0.0208907
0.338836
1.48843
2.44268
0.021867
0.0209044
0.0212919
0.0214593
0.021193
0.214117
0.21163
0.0202882
0.0461246
0.355622
0.0225299
0.021527
0.021196
0.377838
2.00179
0.0673401
0.036025
0.0228542
3.68826
0.301818
0.0205871
0.0210641
0.0252901
0.0325245
2.23455
0.263825
0.0208148
0.0795697
0.314576
0.0224485
0.020865
0.0215437
0.0232986
0.0210124
0.0219613
0.020639
0.0428576
0.234275
0.0213388
0.0215188
0.0301344
0.0206687
0.0210763
0.022738
0.0903946
0.0206006
0.0242377
1.99472
0.13725
0.0659433
0.0756051
0.022834
0.0220911
0.0221868
0.0204882
0.0210733
0.0219327
0.180724
0.0380808
0.0221394
0.0275815
0.0205456
0.123395
0.243122
0.0212021
0.326173
0.0207818
0.0224843
0.153049
2.66055
0.0238735
0.0231887
0.0233539
0.0409758
0.0197188
0.337595
2.48079
0.0206297
0.0695339
0.307718
0.0213412
0.022295
0.0720012
0.0625134
0.0215626
0.386295
0.0238905
0.021178
0.74424
0.253659
0.112468
0.020889
1.44079
0.0308055
0.0198552
0.0436869
0.0276725
0.0234615
0.059664
0.218428
0.386513
0.0384229
0.0736395
0.0206143
1.30069
0.208137
0.154139
0.197363
0.021343
0.804514
0.0213442
0.0210192
0.0419325
0.021985
0.10973
0.137585
0.0215868
3.52322
1.48063
2.30568
0.0267905
0.0584349
0.0196716
0.0228338
0.0230137
0.0196466
0.194633
1.14315
3.88252
0.0392059
0.0913613
0.381646
2.65289
0.021189
0.0234372
1.96599
0.0539236
0.0213471
0.0211309
0.527867
0.0329509
0.0255426
0.0212352
0.0214797
0.143636
0.0211355
0.0695996
0.177843
0.0198712
4.45507
0.0201583
2.00694
0.180825
1.80195
0.0224333
0.553579
0.0232461
0.021068
0.0221631
1.91276
0.0328219
0.493809
0.0213902
0.0211278
0.092244
1.47613
0.0215802
0.11351
0.194509
2.46327
1.5188
0.0208554
0.0213689
0.342428
0.0196626
0.0202173
0.0237619
0.0212128
0.02167
0.0208265
0.0211209
0.0236499
0.0211667
0.0283301
0.0279575
0.0213671
2.50799
1.93359
0.0243286
0.0202927
0.0212848
0.0378175
0.0213493
0.0212398
0.0213405
0.104766
0.0211217
0.0229626
0.0228654
0.0463824
0.383073
0.0209042
0.0762137
0.0640254
0.0254198
0.0608352
0.0488592
0.0207609
0.0211891
0.0506511
0.0396225
0.0229852
0.705274
0.344598
0.0212904
0.912665
0.022001
0.0584512
0.67413
0.779707
2.80262
0.0228563
0.021073
1.05102
0.0230563
0.854494
0.0251508
0.55292
2.05695
0.0212086
0.038546
0.0210653
0.0532504
0.0736834
2.62198
0.0209956
0.0213396
0.0742049
0.0216811
0.748121
0.0211733
0.370869
1.2034
0.0408241
0.879844
1.86807
0.0207956
0.0208909
0.0213391
0.28112
0.241061
0.021764
0.0225594
0.02179
0.0203016
0.0245389
0.0208189
0.0204215
0.0709565
0.0217159
0.0203948
0.0238656
2.5343
1.30358
2.4843
0.0215286
0.0534859
0.0229505
0.0247309
0.114762
0.688527
1.89828
0.0204441
0.0410816
0.0197067
0.033105
0.0262004
0.0497176
0.552324
0.0222645
0.071216
0.0203503
0.20293
0.175827
0.0204244
0.0223276
0.0224373
0.022504
2.40775
0.0213196
0.0213547
0.0219452
0.0216892
0.0203961
0.0223552
0.0212954
0.0217227
0.0213448
0.0211081
0.717079
0.468248
1.28279
0.0200772
0.0197168
0.0197808
0.0201351
0.0199064
0.0329649
0.0198394
0.0206155
0.0212458
0.0208515
0.0279141
0.0212538
0.689655
1.94396
0.0374938
1.85755
0.0215272
0.281563
0.0423348
0.22622
0.0210355
0.730673
0.0220352
0.0213446
0.0213601
0.0566566
0.0848292
0.0209121
0.052136
0.027583
0.0211649
0.0610361
0.380396
0.0291609
0.0208889
0.0230936
0.148514
0.022301
1.10459
0.0209188
0.0220305
0.0213445
0.0256209
0.0297109
0.33703
0.0305875
0.0204298
1.73945
0.024423
0.0282359
0.0210578
0.0240547
4.34083
0.0213209
0.021741
0.0267209
0.156289
0.0198425
0.0210141
0.0205454
0.02997
0.0215157
0.544914
0.0213625
0.0247965
0.027025
3.85652
0.0206474
0.020439
0.0197176
0.0288055
0.0202885
2.31289
0.448758
0.0291883
0.363868
0.0212744
1.21327
0.021392
0.0205857
0.0522782
0.0476407
0.142657
0.271929
0.228419
0.214373
0.026964
0.0327271
0.0222059
0.0388281
0.0213528
0.0221316
0.141831
0.021662
0.383379
0.257324
0.232395
0.349908
0.291834
0.683226
0.538837
0.0761861
0.0229276
0.0545251
0.0213488
0.0204445
0.021033
3.24303
2.93303
0.380776
0.024475
0.023457
0.386639
0.0209304
0.0547548
0.0204296
0.0335136
0.0211991
0.0199282
0.0231381
0.0394427
0.823602
0.0288159
0.0269042
0.020507
0.0421908
0.189299
0.0203857
0.050946
0.406437
0.0196564
0.058654
0.0205717
1.95394
0.0225214
0.677951
0.0218427
0.0215011
0.0254154
0.0479652
2.23369
0.0243036
0.185846
0.0225065
0.0213381
0.0213576
0.0215115
0.0204195
0.0213022
2.23672
4.35684
0.0292463
0.0213903
0.0252204
0.0232211
0.0215648
0.0213977
0.0772383
0.37837
0.129143
0.0212001
0.388315
0.0205631
0.0623805
0.022476
0.0383898
0.199214
0.281984
0.078913
0.0199559
0.0213056
0.0209456
0.0211522
0.021346
0.0211312
2.33105
0.0215305
0.0218023
0.021822
0.033073
0.0211307
2.2431
3.94223
0.298738
0.0213662
0.233392
0.0204063
0.191171
0.145361
0.0224535
0.299489
0.0235127
0.0625604
0.0207354
0.0218203
0.0270842
0.0422481
0.0918823
0.552667
0.129019
0.128893
0.0324993
0.0220832
0.0211924
0.760758
0.0230651
0.828908
0.0220316
3.53999
1.20591
0.35022
0.0222514
0.092518
0.0233228
0.0208958
0.0201995
0.0227035
0.0643285
0.0212408
0.353635
0.0473165
0.0958927
0.0210859
0.02507
0.223194
0.315603
0.120782
0.0241806
0.024607
2.51215
0.0765297
0.0217008
0.0412192
0.082058
0.0618241
0.593072
0.0246535
0.0256893
0.174969
0.0199011
0.270055
0.047523
0.0213346
0.249393
0.381808
2.31811
0.0276025
0.108904
0.0795181
0.0204375
0.0481993
0.0219223
0.176515
0.0206382
2.08678
2.10319
0.716402
0.165568
0.106586
1.38004
0.0237226
0.0344469
0.12455
3.31479
0.0223858
0.0218907
0.0210177
0.0253915
0.0199444
0.0210529
1.35357
0.0210431
0.0206195
0.0281666
0.0219446
0.0198394
0.0250959
1.05353
0.0618366
0.0215631
0.0213544
0.0273859
0.0222946
0.0210436
0.0209487
0.020413
0.620937
0.0246798
0.0560904
0.0256714
0.0212068
0.0199113
0.195867
0.129395
0.0778889
0.025345
0.0216489
0.0327301
0.0209407
0.0266279
0.0963176
1.92387
0.0297034
0.0230659
0.020384
0.0264777
0.43982
0.271791
0.379087
0.0243753
0.0204777
0.0205993
0.0239589
0.067998
3.60904
0.0205324
0.381493
0.0199078
0.0210365
0.0754311
0.0208561
0.778587
0.0784389
0.36986
0.0198405
0.0327214
0.0386881
3.00161
0.0204363
0.0215986
0.141471
0.54122
1.50569
0.510401
1.96545
0.0222419
0.179224
0.0244871
0.0343797
3.13125
0.0230445
0.0209329
0.0215441
0.0201157
0.120276
3.74568
0.0240423
3.0902
0.02018
0.0209435
0.021502
0.106529
0.0331863
3.1269
0.0213905
0.0218541
0.0305683
0.402613
0.0203959
0.377902
0.0207826
0.0221338
2.03836
0.0208635
0.42663
0.830475
0.459821
1.69052
0.0222295
0.0232668
0.0254704
2.01144
0.0422694
0.0213761
2.76234
0.213072
0.019648
0.0224637
1.3156
0.0204471
2.09499
1.99236
0.0242032
0.0197264
0.0235998
0.0248439
3.8369
0.0205746
0.0315394
0.0223191
0.392859
2.64623
0.0212285
0.0202507
0.140603
0.02503
0.0214828
0.0210244
0.0208889
0.0494177
0.0227631
0.0977401
0.0218547
0.0218416
0.0209083
0.022481
0.0227825
0.0226723
0.812015
0.119407
0.340408
0.021766
0.0203832
0.140221
0.0257469
0.0642602
1.16345
0.105111
0.350784
1.98228
0.02034
0.41488
0.105036
0.0221941
0.0208275
0.0213937
0.0213782
2.07553
0.239026
0.0213552
4.67816
0.751072
4.42832
0.0197746
0.0206052
0.375889
0.0208937
0.0214645
0.023935
0.0210236
0.201711
0.0226668
3.08919
0.383323
0.0210083
1.10982
0.0592295
0.38806
1.91376
0.0212797
0.0236997
0.031516
0.505668
0.876714
0.157909
0.02172
0.0213952
0.0775709
0.0204472
0.301979
0.822161
0.0209291
0.126422
0.0204547
1.9629
0.0223095
0.277704
0.0221208
1.95364
0.178204
2.02898
2.53403
0.0201001
0.173063
3.86158
0.0218352
2.73552
0.0217616
0.0199964
0.0211987
0.0257681
0.0234046
0.0215191
0.0209819
0.0625745
0.0389102
0.0416373
4.62028
0.0507978
0.0273938
0.0220875
0.0520258
0.0202286
0.104102
0.328889
1.88687
0.134716
0.0225681
0.0232055
0.0222077
0.0248791
0.0226913
0.0210687
2.14862
1.02961
4.00791
0.0248356
0.0215303
0.0410868
1.91163
0.0220578
0.0204246
0.0223496
0.022452
0.038009
0.0212515
0.380122
0.0216883
2.75191
0.020593
0.205061
0.775756
1.11996
0.0200876
0.101528
0.0213551
0.0204799
0.0625839
0.913437
0.0209991
0.0220135
2.01822
0.0212885
0.0513324
0.505256
0.0257089
0.719003
0.0214456
1.50063
0.0275234
0.26674
0.0203727
0.020505
1.96379
0.0208178
0.28241
0.0237414
0.0275019
2.60543
0.0222244
0.0213942
0.022042
0.0210329
1.61965
2.39351
0.0204706
0.380905
0.0274984
0.686922
0.0212045
0.070495
0.258188
0.0256857
0.0276587
0.0213629
4.58752
0.0200267
2.266
0.0203599
0.0207013
0.0232762
0.0215523
0.0206737
0.0552889
0.0229186
0.021007
0.249474
0.0205261
0.0404312
0.0248275
0.243051
0.047224
0.0211522
0.0301597
0.020972
0.0209484
0.0235587
2.00412
0.0376349
0.26084
0.312614
0.020402
0.021114
0.0212383
0.0209022
0.0202921
0.288654
0.0198604
0.0235378
0.189548
0.0220983
0.190999
0.0214776
0.0204092
3.62552
1.88362
0.0215681
0.0462149
0.0239783
1.11428
0.0210539
0.0225825
0.686862
0.0215822
0.0364462
0.145254
0.022031
0.0220988
0.453036
0.0238132
0.0498943
0.255682
1.48395
0.0231304
0.0225199
0.0321933
0.543178
0.0218392
0.826849
0.679589
1.65181
2.17703
0.0205193
0.0213672
0.0211606
0.254359
0.51208
0.239184
2.12309
0.0200724
0.107083
0.0205524
4.66104
0.0211911
0.0348181
0.0911603
0.0220855
0.0219428
0.115922
0.0244893
0.0217204
0.021921
0.0552233
0.0229574
0.0209228
0.0925303
0.0217792
0.0217734
0.0210973
1.09738
0.059836
0.341853
0.0268189
0.0228056
2.07981
0.0242261
0.0770687
0.0204614
0.0211712
3.92431
1.9084
0.548049
0.0222871
0.0236032
4.62166
0.0791661
0.0839676
0.0441997
0.376315
0.664757
0.020386
0.712327
0.0207972
0.0600606
0.0698381
0.104408
0.104894
0.0221844
3.03271
0.061012
0.182445
0.0381988
0.0210533
0.0213385
0.0213168
0.258369
0.0205193
0.434125
0.063119
0.18543
0.0203007
4.97055
3.71406
0.292388
0.332548
0.0221386
0.0216709
0.021071
0.0255731
0.0213775
0.024603
4.43403
0.0210157
0.0222243
2.00131
0.298974
0.158467
0.0248852
0.0288738
0.0207783
2.27803
0.0222079
3.65174
0.0391211
0.0515413
0.0283911
0.104466
1.02498
0.0212765
0.0211813
2.35733
0.0430798
0.342354
0.13116
0.0422091
0.0208472
0.0628437
0.0214165
0.065882
0.0213808
0.0225086
0.320338
0.0219916
0.104401
0.0205568
3.94498
1.13064
0.0238792
0.0275553
2.892
0.025949
0.0203496
2.43171
3.69993
2.1454
0.0208906
0.0217653
1.0196
3.20595
3.15301
0.021491
0.0227738
0.0215754
0.0250987
0.0217255
0.0206685
0.744279
0.0209324
2.9792
0.0232175
0.0866035
0.0200869
2.48523
0.132179
0.103568
0.325357
0.532543
0.0206301
0.0667957
2.08043
0.0208481
0.0216856
0.021323
2.46468
2.16618
0.0214767
1.96459
0.0350427
0.0212357
2.99227
0.0226981
0.0601389
2.34256
3.29128
0.0209736
2.32865
0.0225938
0.0203537
1.91088
0.0390791
0.0767996
0.632839
0.0480365
3.29618
0.397639
0.0255656
0.43921
3.2818
1.97168
0.0220422
0.0200511
0.0211132
0.0224296
0.230398
1.09242
2.89736
1.83713
0.0243134
0.0200377
0.0208218
0.0235135
0.263873
0.0211967
0.144088
0.242481
0.0203916
0.0221891
1.94007
0.054582
0.563305
0.252369
0.0213292
2.03793
0.0817367
1.15016
0.0224257
0.0240354
0.0340152
0.0213281
0.0226221
0.0984096
0.0235749
0.0401461
2.16984
0.021905
0.0854272
0.727237
0.0462038
0.0371624
0.22786
0.206807
2.69425
0.0213575
0.769106
4.03128
0.0396107
0.0220456
0.0205311
0.0217419
0.0216143
1.19815
0.0224153
2.01594
0.0224357
0.0212377
1.77698
0.221706
0.0203377
0.0211237
0.385748
0.377257
0.0213809
0.020804
0.0242957
0.0248927
0.160876
0.0602605
0.0205585
0.0982368
0.0220158
0.121072
0.0352777
0.165543
0.021262
0.0534521
1.9506
0.166528
0.0219954
0.175177
0.240896
0.252748
0.0202871
0.0224498
2.09301
0.126224
0.057007
2.85163
0.0214207
0.0581522
0.0226351
0.0492043
0.0644794
0.839138
0.11624
0.0237727
0.0208082
0.033098
0.108792
0.0213444
0.0337498
0.301581
0.0638484
0.0206702
2.89593
1.7427
0.0605905
0.0225024
0.0215436
0.0215185
0.0242517
0.0359971
0.699489
0.098339
0.0207701
0.0212909
0.259513
0.226197
0.0214415
0.304132
0.465869
0.0225497
2.14557
3.34522
0.0204481
3.62027
0.862283
2.89113
2.40165
0.020758
0.083021
0.107117
0.0220363
0.0235069
0.465294
0.140296
3.26273
0.0266528
0.0212917
0.0245539
2.01352
0.0254523
0.30475
0.0197585
0.0216629
2.79056
0.1538
0.0322899
0.107358
0.057521
0.0228058
1.45298
0.721017
0.174896
0.383482
0.05426
0.0589714
0.0213211
0.0213081
0.0565085
0.280375
2.27643
0.319451
0.0984144
0.284166
0.271754
0.0284133
0.0209655
0.0217604
0.0644069
1.0873
0.0205522
0.0586203
0.516698
0.0981142
0.2544
0.0852541
2.75257
0.0217307
0.0227021
0.376007
0.0278237
0.0217791
0.0223138
0.232852
0.0309922
0.0575849
0.0204292
0.0213003
0.203446
0.14082
0.0222995
0.733894
0.261073
0.071116
0.022317
0.389416
0.0210434
2.40079
0.0872749
3.15885
0.0215326
0.144269
0.0200725
0.0212994
0.821832
0.304236
0.0860036
0.020413
0.182068
0.456363
1.06732
0.903317
0.0380318
0.0223337
0.267126
0.156264
0.0212189
0.0209438
0.279685
0.704379
0.251462
0.0253067
3.32019
0.0203978
0.0217796
0.0823104
0.0626066
0.0211757
0.309227
0.0214242
0.0215192
0.0220616
0.0222267
0.10297
0.241485
0.019639
0.0776181
0.0208876
0.032121
0.368662
0.0218922
0.284933
3.47457
0.189104
0.19218
0.0214736
2.59821
0.0224528
0.121594
0.0207462
0.11378
0.0347416
0.0245212
0.0214699
0.0973003
0.0573894
0.145202
0.395293
0.021794
0.0203273
0.313217
0.11508
0.0305518
1.88769
0.0238242
3.59831
0.0214705
0.162522
0.105803
0.370759
0.020284
0.456375
0.0502568
0.124373
0.0224742
0.0238071
0.0240247
0.0235846
0.0239921
0.023763
0.0236772
0.0210458
0.0833913
2.97143
0.514459
0.0244016
0.0212022
2.01783
0.918095
0.0211997
0.0593837
0.0235514
0.0229092
0.26805
0.104539
0.0203086
4.06124
0.0216701
0.294108
0.154756
0.136604
0.0234602
0.0218728
0.023223
0.0205139
0.0225045
0.197749
0.2704
0.0308925
0.0812681
0.132486
0.021358
0.0421969
1.17817
0.0215057
0.024009
0.165938
0.0238302
0.053114
0.023822
0.0238799
0.0458373
0.258423
0.0844569
3.19873
0.0247187
0.177424
0.0611088
0.570992
0.0611633
0.0265542
0.0210548
0.0241383
0.125984
0.332828
0.747303
0.0209726
2.08506
0.085884
0.262859
0.111743
0.123483
2.93814
3.59112
0.0197564
0.083699
0.023759
0.154358
0.207239
0.186633
0.0211172
0.114841
0.0479202
0.102898
0.0210385
0.403483
0.0233789
0.129423
0.0236196
0.0975062
0.145837
0.0248292
0.0208463
0.0217262
2.68756
0.0207681
0.18708
0.0567152
0.205405
0.0272455
0.357039
0.0634752
0.0212093
0.0207362
2.5847
0.0232145
0.0208491
0.0211441
0.353867
4.50551
0.0948183
0.0213905
0.0362093
0.180197
0.334786
0.0425121
0.020954
0.0516572
0.258949
0.0259814
0.0233386
0.0208056
2.44653
0.0205466
3.52989
0.286387
0.0403816
0.0949239
0.0463765
0.0204801
0.0226131
0.364012
0.0231777
0.0253847
0.0210931
0.0213302
0.709623
0.123304
0.0347528
0.0205162
3.71789
0.0604322
0.188539
0.0212099
0.0290935
0.0242515
0.117862
0.0212503
0.0508534
0.360177
0.0805551
0.0243292
0.0208194
0.0258735
0.0257281
0.0445491
0.0203535
0.0219585
0.0215453
0.0215049
2.86012
2.13814
0.247416
0.0378748
0.0220184
0.0196687
0.254773
0.678983
2.14133
0.0238372
0.0975208
0.0212993
0.0217417
0.0678535
0.020732
1.74844
0.0217566
2.80055
0.020259
2.27462
0.0214471
0.280552
0.245005
0.032614
0.139995
0.0196665
1.57778
0.0205278
0.0970039
1.22611
0.140861
0.0206175
0.0850574
0.0953021
0.0656823
0.0868009
0.0256656
0.0952331
0.0200906
0.0343851
0.0204191
0.268509
0.165657
1.98456
3.53343
0.0216964
0.309341
0.0209293
0.0210747
0.138097
0.0201509
0.021024
0.0210853
0.0210104
0.165231
0.0223584
0.0230846
0.0219693
0.021391
0.0210692
0.0224416
0.0240169
0.0214592
0.0309447
0.0354263
0.0262827
0.0747734
0.0230881
0.0561923
0.103087
0.0499165
0.0436146
0.0973573
0.17816
0.0511488
1.38873
0.525023
0.246414
0.0206018
0.0208955
0.02348
0.0199206
0.0914603
0.0308113
0.0202582
2.50521
1.36866
1.78307
0.0347922
0.0566034
0.0393773
0.0213791
0.414315
0.105838
0.0222823
2.07915
1.89106
0.0215545
0.0968794
0.6006
0.222147
0.0534119
0.0586595
0.0465135
0.0208021
0.0198739
0.635631
0.289979
0.720015
0.0232979
0.0211031
1.82678
0.0263834
0.0230265
0.0198346
0.334311
0.0203153