/*--------------------------------*- C++ -*----------------------------------*\
| =========                 |                                                 |
| \\      /  F ield         | OpenFOAM: The Open Source CFD Toolbox           |
|  \\    /   O peration     | Version:  v2012                                 |
|   \\  /    A nd           | Website:  www.openfoam.com                      |
|    \\/     M anipulation  |                                                 |
\*---------------------------------------------------------------------------*/
FoamFile
{
    version     2.0;
    format      ascii;
    class       volScalarField;
    location    "800";
    object      omega_0;
}
// * * * * * * * * * * * * * * * * * * * * * * * * * * * * * * * * * * * * * //

dimensions      [0 0 -1 0 0 0 0];


internalField   nonuniform List<scalar> 
18758
(
0.0261088
0.361182
0.021562
0.0258539
0.0258372
0.0204974
0.0212934
0.0228479
0.0253075
0.024884
0.342252
0.501415
0.0749231
0.0225916
0.021272
0.0211428
0.504672
0.0195453
0.0212622
0.0238099
0.433758
0.310811
0.0206138
0.0205274
0.34171
0.522159
0.911507
0.088284
0.0658936
0.388293
0.287008
0.998781
0.0227198
0.945923
0.0263146
0.386189
0.0913768
0.0259608
0.226093
0.0198904
0.356967
0.0254392
0.356613
0.0214456
0.0214218
0.257893
0.0248729
0.064461
2.97739
0.0259683
0.352969
2.49652
0.0255187
0.023394
0.149773
0.0574633
0.0205653
0.0235935
0.057778
0.0205222
0.0216339
0.0213798
1.28872
2.12758
0.0216551
3.44692
0.0214598
0.0198592
0.0888373
0.0195638
2.35425
2.66451
0.0212164
0.0267942
0.0642997
0.275717
1.35731
0.502742
0.0253596
0.354515
0.0811876
0.216983
0.501261
0.0433557
0.0220463
0.121229
0.0245716
0.0275501
1.1579
0.119747
2.425
0.0223548
0.0601524
3.05308
0.0212056
0.0207438
0.0196825
0.04552
0.507983
0.0211047
0.250365
0.0284567
0.0198521
0.0207404
3.5026
0.441838
0.0657449
2.28439
1.3636
0.412876
0.0211681
1.98541
0.0252739
0.0213202
0.0284317
2.39481
0.0442137
0.0203645
2.63941
0.0226251
0.0212354
1.37855
0.0221202
0.020484
2.18189
0.0234566
0.0211044
0.0204856
0.12722
2.16318
0.0595197
0.0222765
0.0273104
3.52939
0.0199272
0.0213435
1.29859
0.0220365
0.145734
0.0780103
0.0267711
0.389775
0.0385224
1.37994
2.16548
0.0445245
3.68992
0.108246
0.340627
2.21197
2.19888
2.53584
0.0215851
0.0264757
0.361984
1.9319
0.0594045
0.133516
0.0458253
0.365675
2.35276
0.0205905
3.24865
3.71705
0.211224
0.0206185
0.020581
2.6823
2.1584
0.495963
2.8812
0.0216913
0.0730488
0.269752
1.29829
0.0210767
0.0212047
0.288471
0.741795
0.0220049
0.0197848
0.0234806
0.142529
0.0224525
2.03165
0.0213598
0.391627
0.0307913
3.12211
0.166784
2.61939
0.0213508
0.057019
0.946026
0.019683
0.0223693
0.262955
0.0215739
3.15433
0.0207124
0.0218391
0.154364
0.108526
0.0211401
0.0211712
3.2681
0.0209768
0.0269166
2.16439
2.27239
0.0211697
0.0604491
0.0221477
0.0220238
0.0230309
0.0197001
0.0214136
0.0593962
0.0201669
0.339987
0.933525
0.0208364
0.0376758
0.158484
0.109445
0.337176
0.0670335
0.121049
2.65137
0.0209522
0.651583
0.0440854
1.2711
0.0215531
0.0209877
0.020905
0.06976
2.81414
1.0208
0.0219378
0.0211815
0.0652338
0.109733
0.0213729
2.09638
1.37867
0.0209986
0.0206293
0.0211108
0.0211066
2.90502
0.0212571
0.313514
0.0209939
0.0210428
2.70196
0.0205721
3.19725
0.021264
0.876507
0.0256279
0.0205061
0.02101
0.0549278
0.566536
0.418239
0.0205162
0.13061
0.0216
0.0214298
2.57874
3.45692
0.021395
0.0208732
0.0212116
0.0228651
0.0257337
0.0200439
0.0221862
0.022586
0.0206293
0.0222925
0.0212173
3.77634
0.0212834
0.0208574
0.019532
0.10486
0.0207233
0.0207285
0.0215511
0.0220705
0.0205326
0.0208564
0.0212452
0.0219266
0.337138
0.0228681
0.0207173
2.17321
0.0237448
0.0208596
0.0208776
0.381186
0.28392
0.0197793
0.0414265
0.453399
0.0215208
0.053883
0.0212207
0.513013
0.186114
0.0692143
0.0646459
0.99994
0.0198284
0.606884
0.196788
0.021465
0.0660138
0.0436858
2.22117
0.0209712
0.0198354
2.21687
0.279442
0.0207373
2.27822
0.0577804
0.0287017
3.3817
0.0209655
0.0206484
0.0212485
0.0213017
0.0219259
0.0226779
0.0228982
0.021032
0.0218791
0.0219305
1.75923
0.35585
0.0218988
0.486452
0.506452
0.0207242
0.0301835
0.296499
0.330509
0.4025
0.252822
0.0213598
2.54802
0.704131
0.031834
0.0219248
0.0277898
0.0220992
0.0213062
0.491235
1.14632
0.40942
0.0773431
1.11833
0.020998
0.0250097
0.0237447
0.0455126
2.90988
2.20719
1.12757
0.104327
0.34936
0.352637
0.0211178
2.76196
0.11457
0.32141
0.4105
0.0210373
0.0204912
0.310923
0.40617
0.340339
2.5245
2.23783
0.0219747
0.503659
0.395768
0.021153
0.02252
0.0228437
0.0223135
0.0212349
0.0222095
0.0214184
0.0227124
0.021365
0.0211479
0.030919
0.235388
0.0268042
0.702847
0.514984
2.2781
0.220299
0.105966
0.0216055
0.0205841
0.355722
0.0225159
0.021969
1.44259
0.0443898
0.561223
0.0206032
1.78732
0.0213695
0.0238239
0.0197393
3.28956
0.661649
0.397344
0.0212205
3.31095
0.0594261
0.0213854
0.0222041
0.0212136
1.09253
0.0212492
0.0208251
0.202354
0.0270599
0.0219975
0.0211933
0.0227543
0.0244207
1.7713
0.834783
0.0216679
3.19892
0.0197314
0.0230169
0.115796
0.021403
0.287364
0.0217017
0.0246599
0.0215037
1.21366
0.0225865
0.0214125
2.63282
0.289864
0.0195364
0.0250039
0.0234711
0.0211427
0.021006
0.0221062
0.256261
3.01194
0.0216659
0.0316152
1.18285
0.274282
0.392017
1.33655
0.382658
0.0202919
0.0980189
0.0607741
0.0299386
0.0226708
0.336732
0.224961
0.0260962
0.020625
0.0212912
0.0207265
0.0214015
0.0207203
0.021419
0.0575886
0.021728
0.0196935
0.058814
0.0221765
0.0215371
0.0198788
0.0232097
0.204488
0.429659
0.0210046
0.353405
0.0207846
0.0269134
0.130148
3.14426
0.107255
0.0212587
0.0213701
3.04042
3.44959
0.0831472
0.0205805
1.04167
3.77919
0.0195282
0.0206369
2.28782
0.0231286
0.0812664
0.0723441
0.0226152
0.0315755
0.020635
0.0210294
0.0222642
0.0209323
0.0209198
0.0216334
0.484634
0.0197902
0.579233
1.23537
0.019534
0.0197899
0.0219072
0.0252034
0.0270223
0.958766
0.0211127
0.15881
0.0289464
0.0299683
0.0207659
0.0209959
0.0212425
0.0216871
0.0216743
2.40713
2.09223
0.0206255
0.0208998
0.0220225
2.73006
0.0197498
0.0197198
0.0214345
0.0197048
0.0208193
0.0207424
0.0224538
0.0211391
0.0602391
0.0211091
0.0199919
0.0795376
3.23001
0.0247345
0.0211371
0.0211023
0.0216558
0.0211905
0.022306
0.537644
0.351996
0.0220383
0.460406
0.0210892
0.0309287
0.021201
0.0207361
0.0445957
0.019569
0.0209913
0.725928
0.0214921
0.0224226
0.076102
0.021033
0.0213176
3.25138
0.0203441
0.0591618
0.175833
0.0209313
0.0215344
0.0411881
0.02318
0.0269792
0.0210597
0.774793
0.422448
0.373999
0.0206558
2.23049
0.0196781
0.0211897
0.0211205
0.0257617
0.175407
0.0894534
0.0212544
0.0223824
0.0224287
1.76059
0.972049
0.0210566
0.0497219
0.0238565
2.74801
0.0270538
0.036873
0.0207554
0.025129
0.0444243
0.0209388
0.0207585
0.0197558
0.0206893
0.0258425
0.414716
0.308668
0.806037
0.0343063
0.0239154
0.0211251
0.0205821
0.577074
0.3275
0.0199159
0.0378758
2.45354
2.34689
0.021384
0.0212556
0.0455907
0.419728
0.0196661
0.287946
0.0212117
0.0225411
0.027988
0.0214632
0.0216803
0.0217184
0.0206684
0.0220051
0.622119
0.0440698
0.386504
0.0219535
0.0208372
2.65703
0.0197398
2.58366
0.444445
0.0212268
1.37808
0.0224746
0.0212226
1.30894
0.274776
0.272924
0.414215
0.0229979
1.01953
0.0198015
1.79514
2.28815
0.0302878
0.0210847
0.482834
0.0236992
0.0561944
1.11767
2.10263
0.0215505
0.517076
0.0207741
0.038972
0.0707808
0.0207475
0.0283855
1.36614
0.0617812
0.0258463
0.0225577
0.0196945
0.0219227
0.0223108
0.0299756
0.0711973
0.0208787
2.625
0.0237206
0.0214141
0.0252373
0.0197482
0.0555526
0.0212032
0.0206934
2.03126
0.0206083
0.0222986
0.404239
0.0602115
0.0649348
0.0213887
0.0213854
0.044654
0.0213585
0.419187
0.0235819
0.0233045
0.0222749
0.0213923
0.0196792
2.61633
0.0197476
2.93359
0.183349
0.0220592
2.21961
0.0205366
0.0268572
0.0254797
1.73661
0.0234564
0.56531
0.369475
0.021242
0.402296
0.0202905
1.11275
0.0213846
0.0217792
3.39433
0.412014
0.0211836
0.0215433
0.0228073
0.0205351
0.0213827
0.344149
2.39562
0.0207873
0.0205243
0.020302
1.7649
0.0890938
0.0560495
0.0206588
0.092965
0.0217735
0.0214129
0.0271617
0.507728
0.0210596
0.0387178
1.05801
0.0208337
0.287623
0.0213925
0.0272041
0.0210597
0.0203967
0.0251022
0.0214528
0.0456906
0.0213889
3.66651
0.0214814
0.0237113
0.0628636
0.0583555
0.0381436
0.0207166
0.0213807
0.373734
0.16687
0.0516903
0.0208243
0.0210967
0.0268569
3.67991
0.410448
0.0207334
0.0211691
0.0220409
0.0215163
0.0218991
0.021172
0.0211002
0.380295
0.0211956
0.0213249
0.373491
0.020644
2.17837
0.0705126
1.76332
2.36131
0.399261
2.38999
0.0211815
0.0211085
0.0229197
0.0207533
0.0210616
0.020548
0.020708
0.0218813
2.16662
0.128819
1.03967
0.0220413
0.0210676
0.0293015
0.0305387
0.0492232
0.021389
0.0220439
0.0203664
2.37845
0.529504
0.647441
0.0215464
0.0710333
0.111534
0.280603
3.54182
0.96022
0.0223057
0.0216468
0.020047
0.707427
0.0215533
0.0198689
0.0581297
0.997208
0.0211623
0.308846
0.544527
0.0212307
0.0211327
0.0212455
0.0211876
0.0212799
0.0231388
0.0281618
0.0212577
0.0215657
0.66348
2.33425
0.0212501
0.33473
0.277661
0.0219783
0.0214043
0.0208077
0.0202952
0.022592
0.0219671
0.0210911
0.0216864
0.0229201
0.0215549
3.39397
0.0259293
0.0209286
0.0211911
0.177631
0.0215628
0.0198595
0.366406
0.0210741
0.0307848
0.0251033
0.0213335
0.0207996
0.0205108
0.0240874
0.0361761
0.0210782
0.392452
0.0508086
0.093276
0.999078
0.0219823
0.0472941
0.0198012
1.03539
0.0220888
0.0211139
0.150704
2.73581
0.0217017
0.927816
2.07362
0.0204166
0.027424
0.0198603
0.0219263
0.0262122
0.0223523
0.0210909
0.11991
0.0210294
0.0208543
0.470826
0.0208291
0.0210589
0.0207984
3.46611
0.0212191
0.021286
0.0279528
0.117154
0.438498
2.0863
0.507639
0.0210453
0.0197242
0.021342
2.01797
0.0217411
0.0209134
0.0230733
0.0203253
1.09157
0.0215864
0.0215195
0.125864
0.0211409
0.0600643
0.261454
0.0197209
0.0212498
1.43745
0.0227721
2.47438
0.207011
0.0205794
0.0214098
0.0714669
0.0206803
0.0231207
0.359164
0.0200969
0.585474
0.0212319
0.0211583
0.0212696
0.0302385
0.0224275
0.53783
0.0224611
0.0209829
0.614756
0.373425
0.0366038
0.0260938
0.105154
3.03723
0.121472
0.0196698
3.01665
0.0214698
2.30104
0.763214
0.0207763
0.0241222
0.0216062
0.419068
0.0207693
1.67448
0.0208298
0.134161
0.133057
0.0206143
0.0196834
0.0211908
1.10446
1.08559
0.0212156
0.719128
0.0215116
0.0210586
0.590693
0.0212911
0.296734
0.0208103
0.0232837
0.0209551
0.0208128
0.0209926
0.0207735
0.0650381
0.0271324
0.0318924
0.029942
0.0218204
0.0212326
0.484962
0.0212589
0.569338
0.0215393
0.501769
0.0252338
0.375997
0.0205377
0.0207135
0.0210343
2.51125
0.0210493
0.41361
0.0543313
0.021392
0.0249971
0.0212547
0.0206227
0.0228859
0.020833
0.490443
0.0212275
0.0224015
0.021209
0.0226587
1.50084
0.737588
0.0213692
0.0208117
0.0214151
0.0217447
0.021113
0.0227374
0.0218114
0.0211811
0.0203126
0.0204843
0.197745
0.0782917
0.0213241
0.0203195
0.124589
0.0222923
1.08154
0.570456
0.0218092
3.35412
0.0222065
0.0205621
0.0210273
0.0232454
0.0302369
0.0203958
0.0302637
0.385202
0.028311
0.120074
4.28787
2.60183
0.0280924
0.0215227
0.0214226
0.445142
0.0203021
0.0213578
0.0278485
0.160859
0.0210185
0.0206488
2.43135
0.0233322
0.0220834
0.0223883
0.0233235
0.0282574
0.021417
0.0235941
0.021224
0.0283053
0.0223928
0.0216976
0.0216418
0.413301
0.0217195
0.0212429
0.413698
0.0196827
0.0209381
0.0212814
0.0221616
0.0216304
0.662071
0.102896
0.470285
0.405018
1.79703
0.286693
0.0218737
2.06226
0.403659
0.0213512
0.0220065
0.0215117
0.0214251
0.0222304
0.0221889
0.071321
0.0838355
0.0213397
0.0202551
0.0415933
0.0223566
0.298532
0.0209442
0.0218605
0.0210803
1.94466
0.657496
0.0278961
3.63819
0.0211151
0.0210909
0.0607407
0.0251549
0.0210721
0.081158
0.0217927
0.0238777
0.418616
0.0684184
0.0278288
0.0214573
0.0216099
0.021831
0.0206475
0.390206
0.0631266
2.40066
0.518905
2.10328
0.0217575
3.19891
2.59446
4.26375
0.110851
1.29408
0.0248408
0.355194
0.0954608
0.0297613
0.0195461
0.0211639
0.0213988
0.0395975
0.0208104
0.0212073
0.10273
1.76888
0.786539
0.33284
0.0714744
0.557025
0.0257499
0.0228027
0.021253
2.26988
0.74125
0.0206111
0.028391
0.269977
2.61333
2.38076
0.0326866
0.0499598
0.0197347
2.36402
0.0217142
0.37427
0.527214
0.0281904
0.125431
0.10099
0.0214002
0.0212281
0.437793
0.553138
0.198596
0.021735
0.0212535
0.023049
0.415225
0.0239414
0.315445
0.0217862
0.341491
0.333269
0.0249732
1.0399
0.0646741
2.31368
0.0197336
0.0308673
2.79408
0.0267577
0.021158
0.355912
0.42535
0.0211349
0.0212555
0.303683
0.0222695
0.0222175
3.26827
0.589083
0.0214689
0.0271776
0.646157
0.0281353
0.0230511
0.0229399
0.355753
0.0248804
0.0207322
0.0209996
1.00136
0.0207679
2.40801
0.0204393
0.0206692
0.341779
0.0214985
0.0211196
0.138697
0.0196792
0.0232512
0.0204829
0.0210923
0.0214896
0.0792548
0.0212926
0.301664
0.152027
0.573471
3.8308
0.0240163
0.0205677
0.0207712
2.81669
0.0253943
0.0211395
0.312276
0.0313134
0.954754
0.0201407
0.0204278
0.0205798
0.0208105
0.021189
0.0198947
0.0220667
0.0221255
0.0213013
0.33104
0.0232981
0.318269
0.0221867
0.0204877
0.0235351
2.44744
2.3075
0.515631
3.64191
0.401752
0.0811533
2.4652
0.0221482
0.032793
0.0384151
2.38506
0.0209848
0.621747
0.320635
0.187716
0.0211828
0.506523
0.0210614
0.0212439
0.0210701
0.0281923
1.95446
3.10792
0.0215416
0.0195842
0.0204522
0.0201452
0.0286199
0.021343
2.5237
0.0521043
0.0295665
0.0218532
0.0211432
0.019855
3.15446
0.0929963
0.0211276
0.020981
1.12934
0.0201323
0.0213422
0.020311
0.0211622
0.0214741
0.0212914
0.0204998
0.554732
0.0229279
0.951893
0.0239692
0.0216205
0.264389
0.0215995
0.40667
0.0216284
0.0446059
0.108607
0.381009
0.0317182
0.0732597
2.73647
0.0223722
0.0327188
0.0223014
0.0211703
0.0204874
0.020943
0.0774983
0.0353208
0.023654
0.0772858
0.020467
0.0213564
0.033457
0.382483
0.0196655
0.0376554
0.264091
0.112466
0.111383
0.0217861
0.0215171
2.31007
0.0276189
0.0208549
0.021128
0.115638
0.0205497
0.0206479
2.07522
0.0485821
0.0221219
0.0220574
0.0216615
2.1894
0.0234837
2.2119
1.79711
0.0212288
0.0210234
0.973851
0.0318477
0.0261369
0.0222715
0.0306783
0.0236551
0.0208235
0.0234941
0.219531
0.0379194
2.31694
0.40736
0.0312645
0.386575
0.797697
0.0206763
0.506599
1.80906
0.0227092
4.05383
0.0215023
0.202025
0.0670741
0.432676
0.0288807
0.0482995
0.03005
0.341471
0.021064
0.0198684
3.89488
0.0227242
0.0211412
0.0211821
0.0217171
0.0198537
0.0219534
0.020997
0.0211717
3.72153
1.44316
0.0211042
0.0215907
0.544744
0.403234
0.0197079
0.251611
0.048826
0.0392259
0.0213759
0.0209811
3.06029
0.0217628
0.046382
0.0732291
0.0206543
0.0252248
3.58463
0.0208776
0.434385
1.3402
2.66877
0.0219008
0.0208909
0.0212989
0.0211498
0.0211955
0.306148
0.122423
0.0203371
0.594731
0.345603
0.021866
0.0215278
0.0211975
0.450764
2.23796
0.0306121
0.0326019
0.0229212
3.5597
0.333302
0.0205105
0.0210853
0.0254414
0.0315448
2.11009
0.326179
0.0206907
1.02274
0.333076
0.0221762
0.020867
0.0215424
0.0232351
0.0210297
0.0220128
0.0206352
0.0473047
0.380598
0.0213433
0.0215299
0.0301744
0.0206663
0.021098
0.021657
0.356871
0.0205965
0.0225727
3.14534
0.193006
0.085599
0.073442
0.0219345
0.0216797
0.0218707
0.0204127
0.021071
0.0218562
0.612331
0.0275651
0.02222
0.0273471
0.0203554
1.14392
0.0499636
0.02121
2.27827
0.0207523
0.0225707
0.186481
2.17051
0.0233526
0.0234129
0.0233701
0.0378223
0.0197121
3.26962
1.28197
0.0206265
0.0653499
0.472279
0.0213397
0.022404
0.384229
0.0581721
0.0215776
0.403996
0.0239485
0.021181
0.559454
0.285375
0.545001
0.020754
1.28418
0.0332531
0.0198267
0.0438539
0.0282428
0.0215376
0.0378784
0.698616
0.441224
0.032169
0.0314764
0.0206109
1.6377
0.317587
0.224831
2.86411
0.0213408
0.592837
0.0213421
0.0210359
0.0394892
0.0220422
0.190439
0.335474
0.0215912
3.59929
0.198857
2.27845
0.0269638
0.0545154
0.0196694
0.0218595
0.0231655
0.019645
0.73245
0.662536
3.70763
0.609861
0.0860877
0.44134
2.16724
0.0212207
0.0223149
1.83656
0.0499553
0.0213461
0.0211318
0.0694777
0.0318123
0.0265423
0.0212426
0.0214945
0.0325418
0.021138
0.0726666
0.323944
0.0198376
3.64894
0.0202369
2.93702
0.573694
3.2189
0.022119
0.426529
0.0214906
0.0210912
0.0222459
2.23523
0.0345377
0.406075
0.0214564
0.0211315
0.0898774
1.41738
0.0215846
0.121274
2.78833
1.08146
1.41698
0.0208583
0.0213678
0.396808
0.0196606
0.0203083
0.0242583
0.0212227
0.0214587
0.0208273
0.0211212
0.0237815
0.0211673
0.0308892
0.0281052
0.0209185
1.6361
2.44241
0.0251207
0.0202717
0.021291
0.0282689
0.021351
0.0212462
0.0213473
0.108495
0.0211377
0.0225418
0.0231144
0.141121
0.436152
0.0209095
0.0302374
0.0386714
0.0264898
0.0778422
0.197533
0.0207213
0.0211926
0.0594023
0.0454264
0.0229931
0.0615785
0.361347
0.0212956
1.92478
0.0219065
0.0597609
0.0721191
0.791746
2.94436
0.0227069
0.0210703
1.08962
0.0225461
0.52554
0.0249807
0.419136
2.98743
0.0206769
0.0366086
0.0210746
0.0993858
0.0721351
2.49772
0.0210111
0.0213398
0.0753508
0.0216765
0.808614
0.0206422
0.454629
0.873565
0.0386444
3.15428
2.37863
0.0207682
0.0208955
0.0213513
0.587666
0.381559
0.0217929
0.0225691
0.0217772
0.0202815
0.0240118
0.0207911
0.0203986
0.0826754
0.0217301
0.0203683
0.0233145
2.11629
0.237464
2.65493
0.021527
0.108203
0.0237338
0.0246672
0.120706
0.0660632
2.2788
0.0202594
0.0340436
0.0197041
0.032115
0.0253918
0.0463406
0.417001
0.0216843
0.0706423
0.0202584
0.391438
0.356013
0.0203989
0.0224488
0.0220329
0.0220686
2.23047
0.0213224
0.021366
0.0219667
0.0216741
0.020464
0.0224811
0.0213013
0.0217981
0.0213451
0.0211046
0.532947
0.508794
3.30213
0.020052
0.019711
0.0197656
0.0201192
0.019888
0.0360285
0.0198317
0.0206116
0.0212532
0.0208533
0.027685
0.0212568
0.124155
1.14531
0.0356657
1.84095
0.0215297
0.174844
0.0337105
0.25168
0.0205385
0.668991
0.0220414
0.0213577
0.0213568
0.149633
0.0868977
0.0209178
0.02997
0.0265905
0.0211668
0.0368535
0.441149
0.0309755
0.0208939
0.0226205
0.0992402
0.0226045
0.395173
0.0209253
0.0220102
0.0213568
0.0224596
0.027661
0.342632
0.033025
0.0203648
1.86444
0.0242367
0.0302219
0.0210556
0.0245504
3.99179
0.0206727
0.0217499
0.0285693
0.814152
0.0198277
0.0210142
0.0204555
0.032977
0.0213528
0.426732
0.0213587
0.0247152
0.0276516
3.67798
0.0206383
0.020419
0.0197144
0.0291494
0.0202646
2.09901
0.0742592
0.0317909
0.444987
0.0212797
1.86205
0.0213907
0.0205815
0.0334017
0.0527571
0.207328
0.316773
2.98105
0.293576
0.0270653
0.0317409
0.0221781
0.595477
0.0213576
0.0219997
0.108207
0.0216708
0.445334
0.309775
0.29353
0.379199
0.32526
0.0764552
0.466069
0.07388
0.0219376
0.0294424
0.0213626
0.0203779
0.0210403
2.92511
2.27567
0.432172
0.0253163
0.023913
0.437825
0.0209367
0.0290737
0.0204157
0.0342303
0.0212006
0.0199075
0.0219071
0.0374157
1.99293
0.030455
0.0272253
0.0204293
0.0282488
0.183492
0.0202707
0.0581152
0.372753
0.0196547
0.0559043
0.0205673
2.20462
0.021532
0.417588
0.0218225
0.0215101
0.0249391
0.0329124
1.80437
0.0243919
0.391611
0.0225454
0.0213403
0.0213555
0.0215105
0.0203527
0.0213081
1.76863
3.68992
0.0276695
0.0211311
0.0242222
0.0227368
0.0215644
0.0214495
0.0759469
0.426652
0.350981
0.0211973
0.41979
0.0205555
0.0588305
0.0225282
0.036322
2.91553
0.435163
0.384971
0.0199325
0.0213082
0.0209491
0.0211538
0.0213593
0.0211313
2.74415
0.0214895
0.0216605
0.0218531
0.0365842
0.0211283
2.40325
3.57361
0.365652
0.0213632
3.09341
0.0203404
0.435203
0.120789
0.0221148
0.358666
0.0235728
0.058897
0.0206994
0.0216986
0.0268155
0.0494615
0.0999843
0.410841
0.186983
0.144744
0.0296625
0.0221328
0.0212111
0.360641
0.0232061
0.701864
0.0219156
3.60253
1.00692
0.39474
0.0223577
1.07982
0.023661
0.0211128
0.0201445
0.0228932
0.0605817
0.0212469
0.482619
0.0357474
0.106312
0.0210825
0.0240815
2.95602
0.414507
0.404283
0.0243482
0.0245374
2.81852
1.0277
0.0217131
0.0480188
0.367372
0.057879
0.119712
0.0251873
0.0269443
0.447244
0.0198673
0.316588
0.0446822
0.0213481
0.329031
0.385754
0.8641
0.0231254
0.121907
0.0265245
0.0204188
0.0450606
0.021786
0.265492
0.0203599
0.945346
2.22197
0.0994293
0.325708
0.111333
0.284121
0.0238293
0.0507152
0.344451
3.16668
0.0224373
0.0220225
0.0210359
0.0242817
0.019907
0.0210519
0.20797
0.0210512
0.0206066
0.0307363
0.0220642
0.0198315
0.0250603
1.08013
0.0598158
0.0212206
0.0213615
0.0272357
0.0222675
0.0210487
0.0209533
0.0203998
0.916597
0.0248509
0.0676741
0.0265875
0.0212123
0.0198926
2.91714
0.173563
0.941276
0.0248197
0.0216553
0.0330614
0.0209473
0.0263377
0.100931
0.226412
0.0282754
0.0230907
0.0202798
0.0280561
0.511174
0.332535
0.411846
0.0245734
0.020339
0.0205947
0.0241292
0.0847402
3.24778
0.0204608
0.32321
0.0198896
0.0210101
0.074736
0.0208589
0.826999
0.0784335
0.174105
0.0198167
0.0306647
0.0365656
2.29811
0.0203141
0.0214635
0.261928
0.478473
1.47824
0.411286
2.36336
0.0224245
0.210328
0.0247855
0.0242162
2.74933
0.0226896
0.0209431
0.0215433
0.0200762
0.601928
3.65486
0.024699
1.73161
0.0201293
0.020955
0.0215063
0.13121
0.0469958
2.02217
0.0213883
0.021893
0.0320131
0.375934
0.0203289
0.424926
0.0206991
0.021928
0.807216
0.0208657
0.123772
0.568157
0.503884
0.634662
0.0212457
0.0233035
0.022381
2.56408
0.0307333
0.021375
2.27011
0.224695
0.0196466
0.022516
0.169776
0.0204325
2.16328
1.54339
0.0244843
0.0197234
0.0241142
0.0241448
3.67998
0.0205683
0.0296289
0.0220372
0.661979
2.24298
0.0212349
0.020182
0.167134
0.0259417
0.0214807
0.021024
0.0208916
0.045969
0.0228606
0.348358
0.0217836
0.0216315
0.0208298
0.02262
0.0231747
0.0222964
0.404891
0.343755
0.423473
0.0217762
0.0203174
0.489395
0.0245277
0.0608598
0.654933
0.109301
0.349833
1.75872
0.0203105
0.341484
0.201853
0.0222683
0.0208286
0.0213913
0.0213765
1.75296
0.288531
0.0213679
4.06718
1.02104
3.52977
0.0197615
0.0205805
0.536668
0.020897
0.0214795
0.0240039
0.0210416
0.257372
0.0226535
2.63546
0.421501
0.0208469
0.120135
0.0788106
2.63487
2.43901
0.021285
0.0242164
0.0352774
0.408533
2.51308
0.22327
0.0217186
0.0213928
0.0760761
0.0204326
2.88895
0.774556
0.020936
0.431676
0.0203904
2.28176
0.0216329
0.272428
0.0221919
1.78073
2.05494
2.71344
2.2125
0.0200629
0.618329
3.40182
0.0218718
2.57038
0.0217806
0.0199693
0.0212096
0.0269442
0.023841
0.0215168
0.0209924
0.0784841
0.036768
0.0419899
3.84807
0.0476297
0.0264698
0.0219549
0.0535348
0.0201664
0.107096
0.347874
0.183159
0.409149
0.0222015
0.0232253
0.0223028
0.0250559
0.0229079
0.0210655
2.16087
1.08709
3.51951
0.0215419
0.0215278
0.0389812
0.189085
0.0217959
0.0204123
0.0220629
0.0225712
0.0361142
0.0212595
0.444858
0.0216968
2.23207
0.0205692
0.272859
1.03523
0.812272
0.0200637
0.104638
0.021355
0.0203986
0.0595047
1.08671
0.0210155
0.0220415
2.83306
0.0212915
0.048396
0.431096
0.0266148
0.606366
0.0214602
1.4423
0.0277541
2.61019
0.0203065
0.0206431
3.45826
0.0208184
0.334177
0.0242978
0.0293158
2.51176
0.0223255
0.0213919
0.022082
0.0210392
0.190305
2.24707
0.020405
0.422837
0.0273918
0.213869
0.0212263
0.895973
0.354808
0.0266454
0.0273511
0.0213677
4.10085
0.0199968
2.78001
0.0202958
0.0206052
0.0236238
0.0215508
0.0206711
0.0662561
0.0230973
0.0210231
0.280585
0.0204388
0.0452787
0.0249104
0.132766
0.0283995
0.0205859
0.0334287
0.0209833
0.0209512
0.0240478
2.10529
0.304587
0.280425
0.336384
0.0203871
0.021118
0.0212307
0.0209075
0.0202153
2.87793
0.0198476
0.0229228
0.221761
0.0219658
2.89074
0.0214765
0.0203923
3.29818
0.174526
0.0215673
0.0440778
0.0240498
1.13536
0.0210572
0.0227448
0.113567
0.0215425
0.271484
0.547059
0.0220588
0.0221689
0.405727
0.0242357
0.0474019
0.301402
0.241116
0.0234427
0.0225971
0.036177
0.569046
0.021979
0.784403
0.789029
0.183872
2.52982
0.0204443
0.0213744
0.0211623
0.356743
0.436519
2.60162
2.64536
0.0200487
0.218033
0.0204712
4.12273
0.0211968
0.0367217
0.0977038
0.0218825
0.0220968
0.121698
0.0249242
0.0217387
0.0219406
0.0567012
0.0231872
0.0209317
0.109821
0.0218069
0.0217927
0.0210998
1.04627
0.0264451
0.34889
0.0286686
0.0229677
2.7263
0.0249873
0.0778319
0.0203831
0.0211737
3.68545
2.18003
0.665519
0.0215549
0.0239583
3.77347
0.079211
0.0843201
0.291288
0.130847
0.152501
0.0203714
0.252269
0.0206424
0.0556763
0.462976
0.107611
0.10857
0.0221913
3.0059
0.0578639
0.341517
0.0563987
0.0210591
0.0213394
0.0213266
0.386715
0.0205105
0.438346
0.0591056
0.445845
0.0202167
3.73659
3.59785
0.345468
0.335527
0.0222041
0.0216779
0.0210852
0.0244411
0.0213843
0.0246219
4.05031
0.0211536
0.0223178
2.35128
0.331677
0.343232
0.0257688
0.0315002
0.0207784
2.64389
0.0218739
3.53024
0.0370013
0.252353
0.0306271
0.108198
1.03442
0.0212811
0.0211845
2.18341
0.300329
0.0580809
0.150006
0.0398419
0.0207952
0.0694915
0.0214138
0.664709
0.0213788
0.0225455
0.336754
0.0220272
0.107869
0.0205514
3.6611
0.957778
0.0237656
0.0290942
2.73233
0.0246863
0.0202851
2.25947
3.53835
2.57634
0.0208929
0.0217632
0.810598
2.1963
2.40533
0.0215031
0.0229972
0.0215753
0.0260429
0.0217505
0.0206657
0.96556
0.0209422
2.25893
0.0234696
1.0694
0.0200638
1.26639
0.661575
0.10638
0.342079
0.566102
0.0206174
0.0638712
1.763
0.0208491
0.0217005
0.0213271
2.35925
2.16421
0.0214748
2.1634
0.0380108
0.0212413
2.81127
0.0227859
0.0564757
2.30054
3.10501
0.0211827
2.70045
0.0227318
0.0202509
2.18288
0.0442161
0.391257
3.20916
0.0286137
2.99242
0.351186
0.0268165
0.764521
3.3947
2.4031
0.0220744
0.0200191
0.021113
0.0225703
0.314973
0.124472
2.19155
2.09402
0.0242609
0.0200071
0.0208631
0.0239667
0.33507
0.0211978
0.418865
0.280127
0.020375
0.0222677
2.166
0.0510311
0.111071
2.81944
0.0213337
2.16967
0.370498
1.08841
0.0224899
0.0241121
0.274312
0.0213385
0.0226331
0.102111
0.0233835
0.254276
2.66603
0.021584
0.088172
1.12387
0.0433155
0.0354432
0.345897
0.327684
3.40296
0.0213577
0.363524
3.77979
0.0376633
0.0220958
0.0205236
0.0217666
0.0215522
0.242787
0.022429
2.45494
0.0224443
0.0212452
2.57456
0.855566
0.0202752
0.0211235
0.362102
0.412364
0.0213817
0.0204447
0.0241601
0.0252205
0.334225
0.0581849
0.0205521
0.101296
0.0220741
0.402063
0.289919
0.426962
0.021266
0.154964
1.42471
0.441686
0.0221421
0.439692
0.273325
0.305068
0.0202336
0.0225932
2.69601
0.144177
0.245717
2.18714
0.0214179
0.0754254
0.0226438
0.0464577
0.0606217
0.592666
0.147931
0.0237657
0.020908
0.0511175
0.348648
0.0213499
0.0613124
0.371789
0.0832509
0.0206676
2.41893
0.15931
0.39064
0.0226565
0.021542
0.0215275
0.0243984
0.0387309
2.51164
0.10126
0.0204254
0.0213012
0.279801
0.252219
0.0214391
0.374846
0.112506
0.0224447
2.90134
3.49393
0.0202745
2.84507
1.10766
2.4009
2.28678
0.0207597
0.30449
0.129367
0.0218832
0.0231973
0.540187
0.343405
2.88656
0.0263838
0.0213025
0.0251319
2.80434
0.0231554
0.536027
0.0197472
0.0216642
2.2374
0.334079
0.0313769
0.113202
0.0546079
0.023052
1.37415
0.131465
0.273503
0.4175
0.050413
0.0546604
0.0213212
0.0213165
0.0540875
0.329888
2.43462
0.187051
0.112982
0.35348
0.326568
0.028645
0.0209794
0.0217859
0.0612809
0.236472
0.0204708
0.0551842
0.280772
0.100871
2.84751
0.0425271
2.27779
0.0216189
0.0226106
0.349075
0.0266839
0.0218089
0.0223593
2.90045
0.0285997
0.0553554
0.0204086
0.0213105
0.337318
0.413146
0.0222268
0.333848
0.279809
0.0695523
0.0222909
0.417728
0.0210481
3.03439
0.0924582
2.70627
0.0215312
0.229664
0.0200495
0.0213088
1.04888
2.75547
0.22886
0.0203996
0.264987
0.0440656
0.976515
1.05871
0.0433248
0.0223954
0.453627
0.197452
0.0212248
0.0209464
0.434966
0.0611133
2.95811
0.0264039
3.11195
0.0203683
0.0218103
0.946163
0.058673
0.0211781
0.43389
0.0214254
0.0215179
0.0220935
0.0222299
0.489828
0.270912
0.0196377
0.0766731
0.0208894
0.0311478
0.348241
0.0218339
2.48739
3.34498
0.213883
0.233959
0.0214855
2.83032
0.0223534
0.147635
0.0207473
0.133706
0.0308853
0.0246461
0.0214841
0.110505
0.0530817
0.853633
0.395713
0.0219327
0.0202645
0.363192
0.140672
0.0312732
3.14291
0.0244111
3.47269
0.0214681
0.217249
0.124468
0.234806
0.0202764
0.281537
0.0469405
0.16573
0.0226323
0.0238578
0.024093
0.0236382
0.0240426
0.0237298
0.0235691
0.0210486
0.0828371
2.95395
0.668689
0.0248784
0.0212068
2.25986
1.02297
0.021233
0.0552926
0.0233325
0.0227513
0.693114
0.346079
0.0202302
3.39533
0.0214665
0.482813
1.26886
0.330011
0.0231633
0.021847
0.0227891
0.0204436
0.0224163
0.35053
0.280967
0.0330226
0.375247
0.155113
0.0213715
0.0494719
0.997089
0.0215034
0.0240851
0.185391
0.0233018
0.0491678
0.0232069
0.0240781
0.0428316
0.298307
0.0856735
3.03062
0.0254145
2.50444
0.056607
0.33668
0.0567272
0.0283518
0.0210521
0.0244554
0.171814
0.347133
1.31425
0.0209823
2.93715
0.388737
0.291374
0.138871
0.398002
2.71494
3.59933
0.0197464
0.0863233
0.0239214
0.262657
2.66055
0.347224
0.0211165
0.405102
0.0446957
0.12104
0.0210541
0.054425
0.0230631
0.317413
0.0228821
0.100162
0.181756
0.025478
0.0208466
0.0217475
2.47942
0.020766
0.108369
0.0541674
2.90337
0.0292502
0.264378
0.0608452
0.0212148
0.0206977
2.77354
0.0232637
0.02085
0.0211445
0.42964
4.09927
0.107654
0.0213912
0.0348379
0.352709
0.359242
0.0402596
0.0209666
0.0523285
0.293558
0.0274684
0.0237449
0.0208043
1.14404
0.0206828
3.40592
0.295902
0.0411949
1.04156
0.181806
0.0202971
0.0227954
0.482397
0.0233746
0.0252515
0.0210938
0.0213622
3.29688
0.922837
0.135551
0.020508
3.38898
0.0686763
0.334772
0.0212233
0.0263807
0.0246432
0.154594
0.0212539
0.050812
0.365265
0.0814616
0.0245449
0.0208202
0.0273232
0.0265265
0.041818
0.0202239
0.0218654
0.0215467
0.0215035
2.17753
0.642729
2.71016
0.068445
0.0220609
0.0196664
2.62137
0.792572
2.29019
0.023971
0.100261
0.0213078
0.021769
0.0653028
0.0207314
0.139705
0.0218551
2.43523
0.0201821
2.57773
0.021461
0.142299
0.31049
0.074008
0.681532
0.0196645
2.21364
0.0203224
0.111182
0.183856
0.162344
0.0206088
0.553919
1.03421
0.0639577
0.0909602
0.0261136
0.103734
0.0200682
0.0379249
0.0204038
0.238404
1.07645
2.71729
3.25746
0.0217046
0.371858
0.0209316
0.0210726
0.328951
0.0201375
0.0210296
0.0210854
0.0210115
2.09304
0.0224598
0.0233987
0.0219911
0.0213086
0.0210716
0.0225878
0.0242657
0.0214655
0.0301614
0.0341673
0.0238516
0.360031
0.0231067
0.0526271
0.434789
0.0381893
0.0511403
0.0999912
0.202607
0.0609437
2.48198
2.4823
2.83704
0.0203539
0.0209
0.0235564
0.0199013
0.0941567
0.0399894
0.0202112
2.25522
3.42079
1.90381
0.0398018
0.0528052
0.0373185
0.0213771
0.0798181
0.109814
0.0223236
2.30978
0.387173
0.0215539
0.346399
0.805744
0.310956
0.0463158
0.0543052
0.0577508
0.020668
0.0198601
0.0619863
2.74796
0.0657712
0.0229169
0.0211066
1.75832
0.0262539
0.0230579
0.019807
2.53991
0.0202552
0.0243084
0.0262762
0.0212927
0.0314374
2.29431
0.0208093
0.0199847