/*--------------------------------*- C++ -*----------------------------------*\
| =========                 |                                                 |
| \\      /  F ield         | OpenFOAM: The Open Source CFD Toolbox           |
|  \\    /   O peration     | Version:  v2012                                 |
|   \\  /    A nd           | Website:  www.openfoam.com                      |
|    \\/     M anipulation  |                                                 |
\*---------------------------------------------------------------------------*/
FoamFile
{
    version     2.0;
    format      ascii;
    class       volVectorField;
    location    "150";
    object      U_0;
}
// * * * * * * * * * * * * * * * * * * * * * * * * * * * * * * * * * * * * * //

dimensions      [0 1 -1 0 0 0 0];


internalField   nonuniform List<vector> 
18355
(
(1.09483 0.0842591 -1.66466e-20)
(0.194085 -0.0185907 -1.29337e-20)
(1.00329 0.0214399 -2.05692e-21)
(1.01505 0.00531636 -2.53839e-22)
(1.04604 -0.00347097 0)
(1.11621 -0.039242 -1.31244e-20)
(1.0037 0.00725854 2.47005e-21)
(1.15055 0.0227298 0)
(0.939808 -0.00902836 -1.01507e-20)
(0.0847154 -0.0245873 -2.60561e-20)
(1.02231 0.00063451 -1.55821e-21)
(-0.332706 0.00369518 5.63637e-20)
(1.18993 0.00887664 6.21521e-20)
(0.987283 0.00481121 -8.55535e-21)
(1.02479 0.0360641 5.91515e-22)
(0.985419 0.0702747 1.18642e-20)
(-0.245123 0.0112402 0)
(1.01528 0.0108042 0)
(1.0039 0.0358288 0)
(0.467678 -0.0652556 -1.13527e-20)
(0.965558 0.086827 0)
(0.974249 0.0327636 -5.74062e-21)
(0.0607216 -0.0762147 -1.40953e-21)
(1.04536 -0.00395044 0)
(1.05903 -0.0178064 0)
(0.999112 0.00271683 0)
(0.996257 -0.000181874 1.41116e-20)
(0.943131 0.00375783 -2.84077e-20)
(-0.0657949 -0.147414 6.29744e-21)
(0.993041 0.0233233 -1.38972e-20)
(1.03794 -0.00495952 5.08314e-21)
(1.05341 -0.00686311 5.08841e-21)
(1.01506 0.0103638 0)
(1.0098 0.000586967 8.85105e-22)
(1.13204 0.13413 0)
(1.09883 0.084313 1.92379e-20)
(0.955879 -0.00544777 0)
(1.16784 0.275685 8.85712e-20)
(0.944801 0.0049788 2.78765e-20)
(1.02288 0.00112313 -2.14889e-22)
(0.986697 0.00459422 1.3612e-20)
(0.932273 0.314433 -2.26836e-20)
(1.00318 0.0221038 0)
(-0.00757622 -0.0181398 4.10978e-20)
(1.01498 -1.47112e-06 0)
(1.17798 0.275936 -8.7652e-20)
(1.14415 0.0765625 -1.08575e-20)
(0.934797 0.0235167 1.38493e-20)
(1.13145 0.0780277 -1.76911e-20)
(1.01468 0.0117964 1.10088e-21)
(1.01979 0.00259724 0)
(1.0162 0.0227313 1.58017e-21)
(0.999984 0.000267479 0)
(0.32832 -0.0691532 7.73365e-21)
(1.00013 0.00568975 5.32522e-21)
(1.00158 0.000281013 2.66901e-21)
(1.10376 -0.0401213 0)
(1.02458 0.0369847 0)
(0.114617 0.437116 1.3691e-19)
(1.22153 0.146429 -2.98391e-20)
(1.01428 0.0118368 0)
(1.12913 -0.020091 0)
(1.01635 0.0100761 2.74433e-22)
(1.00983 0.194383 0)
(-0.317229 0.00336987 -3.17843e-20)
(1.09265 0.0806044 -1.43027e-20)
(-0.0375188 -0.0897751 0)
(0.855799 0.0496709 -2.23632e-20)
(0.996549 -0.000264956 0)
(0.975799 0.032982 -4.96535e-21)
(1.15838 0.103948 0)
(1.00005 0.000342852 3.13353e-21)
(1.227 0.151155 -3.75395e-20)
(1.01117 0.0114016 -2.23096e-21)
(1.15094 0.0263481 0)
(1.00387 0.00747919 -6.25317e-21)
(0.720431 -0.105224 7.00733e-21)
(1.05389 -0.00414835 1.07316e-20)
(1.07046 -0.020204 0)
(1.01567 0.0199058 5.62242e-22)
(1.00341 0.00715252 3.07674e-21)
(1.21739 0.36454 1.82977e-20)
(0.967587 0.0845624 0)
(1.05817 0.184641 -5.27183e-21)
(0.998998 0.00289533 0)
(1.18683 0.010345 0)
(0.288688 -0.0792057 6.01527e-21)
(0.466344 -0.0630728 3.29976e-21)
(-0.0641031 -0.149857 -7.12291e-21)
(0.282684 -0.0864445 -1.02518e-20)
(1.13481 -0.101316 0)
(1.01513 -3.64728e-05 -3.58355e-22)
(0.999685 0.00477745 5.04085e-21)
(1.01892 0.000556259 0)
(-0.00646539 -0.166038 -2.46924e-20)
(0.022004 -0.0695713 0)
(1.02534 0.0165037 -1.25504e-21)
(1.0737 0.00297418 0)
(0.295148 -0.0637907 1.34986e-22)
(-0.182404 0.012138 0)
(-0.0194279 -0.14559 0)
(-0.20289 0.00984109 0)
(1.09384 0.141256 -8.84918e-21)
(1.12987 -0.134985 4.8561e-20)
(1.04606 -0.00850026 -3.82266e-21)
(1.14879 -0.0418452 0)
(-0.371713 0.00305058 0)
(1.11209 0.309352 0)
(1.10067 0.0283366 -9.92566e-21)
(0.490474 -0.32513 -2.42719e-20)
(0.997505 0.0228241 -1.25083e-20)
(0.950785 0.0157779 0)
(0.998882 0.00205301 -6.61955e-21)
(0.948598 0.0150896 0)
(0.329202 -0.0474592 0)
(1.00276 0.000867379 3.69876e-21)
(0.0695262 -0.321669 0)
(0.711995 -0.103987 7.13995e-21)
(0.0744139 0.329307 0)
(1.08935 0.145887 6.81933e-21)
(0.0882501 -0.0288832 2.66083e-20)
(1.37098 0.138923 0)
(1.05314 -0.0047838 -1.69252e-20)
(1.15797 0.107585 0)
(1.0247 0.0166606 -3.69763e-23)
(1.11209 0.320406 0)
(1.0166 0.0221604 -9.13396e-22)
(0.999999 0.000650849 7.07836e-21)
(1.31419 0.264527 1.13927e-19)
(1.01866 0.00063147 1.77464e-22)
(1.01978 0.00284725 5.2151e-22)
(1.20275 -0.13985 1.69377e-20)
(1.12304 -0.00125229 8.84265e-21)
(1.07261 0.00207323 -7.84293e-23)
(0.908041 0.185319 -1.63691e-20)
(0.999994 0.000742189 -7.27152e-21)
(1.02167 0.0288825 -2.14792e-24)
(1.02236 0.000402961 -9.72386e-22)
(0.991589 0.0138389 0)
(1.15614 0.178702 0)
(-0.0261342 -0.154585 2.19711e-20)
(-0.0523548 -0.190366 -1.81249e-20)
(0.997293 0.0475521 -8.17499e-21)
(0.99711 0.022056 7.69589e-21)
(0.378922 0.0141841 0)
(0.974336 0.0291759 -1.78719e-20)
(0.910058 0.000702212 -4.38138e-20)
(0.244275 -0.105706 5.68153e-21)
(1.06236 0.0121478 4.8564e-21)
(0.221829 -0.11469 -7.44104e-21)
(1.0451 0.00218559 3.63178e-21)
(0.973654 0.0303893 1.21021e-20)
(1.12696 0.132013 1.6367e-20)
(0.108194 0.390215 -1.20602e-19)
(1.10357 -0.0405563 2.51714e-20)
(1.00003 0.000366218 -2.06483e-21)
(1.21022 -0.140577 3.43965e-20)
(0.0831333 0.298404 -5.22626e-20)
(1.00003 0.000373373 -4.51765e-21)
(1.13436 -0.0211014 1.94576e-20)
(1.00862 0.10429 3.64866e-21)
(1.04866 0.0638415 0)
(0.905199 0.0909683 -1.50495e-20)
(1.07374 0.000236968 -7.01466e-21)
(1.09176 -0.0427973 0)
(0.49407 0.654162 3.98263e-20)
(0.141444 0.0509355 -1.33125e-19)
(1.12161 0.0899588 0)
(1.23994 -0.0145891 0)
(1.01336 0.0115303 0)
(-0.0217361 -0.0628468 4.25292e-20)
(-0.0248742 -0.0619162 0)
(1.02122 0.00118047 -6.34194e-22)
(1.02202 0.00116718 1.83486e-22)
(0.988181 0.0696209 0)
(0.216645 -0.0106244 0)
(1.09638 -0.0417296 1.012e-20)
(1.00003 0.00503647 -6.27304e-21)
(1.34213 0.268055 0)
(0.393186 0.189461 1.18327e-19)
(0.66925 -0.124741 7.60785e-22)
(1.23725 -0.0185438 0)
(1.08417 0.0113993 1.8646e-20)
(1.00521 0.00660509 -5.04731e-21)
(1.09042 -0.055647 2.63636e-20)
(0.236201 -0.0126419 -2.99233e-20)
(0.224613 -0.095059 -2.60825e-20)
(1.14732 -0.0817162 4.88764e-20)
(0.938472 0.00358243 1.77574e-20)
(-0.263062 0.00897137 3.62426e-20)
(1.10425 -0.0408061 4.22402e-21)
(1.00363 0.0235969 0)
(1.07281 -0.000611953 1.36349e-20)
(1.09426 -0.127026 -1.63313e-20)
(0.886484 0.206055 1.13099e-20)
(0.97611 0.0360047 -6.56249e-21)
(1.29713 -0.0587156 -2.01162e-20)
(1.08306 0.0102145 -1.63687e-20)
(1.10772 -0.00157898 -1.05497e-20)
(1.02176 0.00133745 3.5888e-22)
(1.05405 0.0178688 3.31308e-21)
(0.94091 0.0436193 0)
(0.10818 0.0596513 -2.49721e-20)
(0.179833 -0.087416 3.34381e-20)
(-0.425033 0.00136085 -1.34726e-19)
(0.993363 0.115269 4.88086e-21)
(0.0861684 -0.288123 8.52607e-20)
(-0.107836 0.0223289 1.73212e-19)
(-0.115385 0.00967186 1.52479e-19)
(1.10606 -0.00292139 1.79823e-20)
(1.02095 0.0297159 0)
(1.04426 0.00256473 0)
(0.419765 -0.0652058 3.54454e-21)
(0.997641 0.0459024 9.87524e-21)
(1.01293 0.0112303 0)
(1.2187 0.354018 0)
(0.824658 -0.0427169 -4.33355e-21)
(0.422379 -0.0665103 -3.88385e-21)
(0.998978 0.00180978 7.82901e-21)
(1.0611 0.0124886 -2.11941e-21)
(1.26362 0.260626 3.40919e-20)
(0.993086 0.0150958 0)
(1.05251 0.181424 0)
(1.02162 0.0281759 -2.09536e-23)
(0.0692298 0.043345 1.22916e-19)
(0.984037 0.0346822 -6.69506e-21)
(-0.128632 0.01931 -1.09429e-19)
(0.264618 -0.0199804 -1.11048e-20)
(0.547703 -0.00676672 1.7982e-19)
(1.02005 0.0297047 0)
(0.99998 0.000339769 0)
(1.06889 -0.0197146 5.92739e-21)
(1.02899 0.0921334 -1.3244e-21)
(-0.0991381 0.0219785 1.12909e-19)
(1.01406 0.0572828 -5.02894e-21)
(0.999242 0.00325257 5.99051e-21)
(0.999972 0.00478293 7.12485e-21)
(1.14256 0.320743 3.74098e-20)
(1.10252 -0.100905 0)
(-0.302099 0.00423567 7.07222e-20)
(1.09813 0.0279368 0)
(1.24607 -0.00358971 -8.66908e-22)
(1.03832 -0.00618639 0)
(1.01244 0.0117786 -7.35442e-22)
(0.981024 0.0349856 -7.44965e-21)
(0.244225 -0.0123621 3.51599e-21)
(1.2396 0.105055 2.578e-20)
(0.0667128 -0.121617 -8.32762e-20)
(1.10297 -0.0405009 -1.95939e-20)
(1.01059 0.101138 -1.82771e-21)
(1.05359 0.0189046 3.40326e-21)
(0.205861 0.797763 1.94566e-20)
(1.08453 0.00817213 -5.41009e-21)
(-0.0800728 0.0118795 4.96215e-22)
(0.989159 0.0343268 6.13729e-21)
(-0.214077 0.0150656 -1.09144e-19)
(0.636867 -0.0451424 -6.6255e-21)
(1.13643 -0.019312 0)
(0.99844 0.0276842 -7.50775e-21)
(1.00588 0.000404007 4.81016e-21)
(1.08867 0.0809087 6.6371e-22)
(1.1686 0.100314 0)
(0.224321 0.0961408 5.52338e-21)
(1.12553 -0.00163123 9.4183e-21)
(1.00808 0.00634896 -6.99068e-23)
(1.01242 0.0103398 -4.67806e-23)
(0.999977 0.000448605 -5.18539e-21)
(1.24709 -0.0151993 4.86431e-20)
(1.07646 0.265646 0)
(0.588068 -0.0527412 -5.90252e-20)
(0.981283 0.0526643 9.61615e-21)
(0.128886 -0.12877 2.13058e-21)
(1.14867 -0.085841 0)
(1.14911 -0.0387832 4.87362e-21)
(1.03767 0.0298314 -7.24747e-21)
(1.30137 -0.052991 1.82819e-20)
(1.01625 0.0207019 0)
(0.995639 0.0101052 7.20321e-23)
(1.05496 0.81146 4.80946e-20)
(1.00868 0.000667607 0)
(1.00388 0.00775993 0)
(1.15423 -0.0374214 -1.66693e-20)
(1.00273 0.0158006 8.68126e-21)
(-0.0220523 -0.233856 -1.35989e-20)
(1.08366 0.00704518 -5.07314e-21)
(0.92609 0.0139091 -6.82937e-22)
(1.00835 0.000658708 0)
(1.12057 0.0938128 -7.77723e-21)
(-0.304288 0.00618863 1.54155e-19)
(1.05401 -0.00600368 0)
(1.01462 0.00511015 -9.69438e-23)
(0.989455 4.46883e-05 -7.91452e-21)
(1.13147 -0.0573535 -3.30144e-20)
(0.216159 -0.040632 1.74231e-20)
(0.999973 0.000481482 0)
(1.00001 3.60715e-05 7.63344e-22)
(0.763545 -0.0456717 0)
(1.10426 0.141338 -3.4829e-20)
(1.10246 -0.0407589 2.75717e-20)
(0.627435 0.385103 0)
(0.995867 0.0097411 4.47002e-21)
(1.16357 0.0989772 3.74408e-20)
(0.963173 0.0271048 3.69637e-20)
(1.00002 6.28743e-05 1.52275e-21)
(0.627232 0.355212 6.32171e-20)
(1.09011 -0.0433739 0)
(1.10019 -0.0221199 1.7875e-20)
(1.13053 -0.0597262 0)
(1.01872 0.000901283 -9.37681e-22)
(0.650552 -0.123545 5.75353e-20)
(1.04417 -0.00890027 0)
(1.00282 0.0351728 -2.75727e-21)
(1.3234 0.121419 4.53211e-20)
(0.99977 0.0205806 5.02942e-24)
(1.25031 -0.0104041 0)
(0.918223 0.309926 2.447e-20)
(0.999697 0.00513411 0)
(1.01699 0.00322466 -1.34089e-22)
(1.24957 0.0013204 4.95866e-20)
(0.258931 -0.0948266 2.78512e-20)
(-0.0712808 0.0215711 -1.63275e-19)
(1.01705 0.0410711 -7.93505e-23)
(0.909602 0.0873036 2.98701e-20)
(-0.0225973 -0.0146465 0)
(1.02995 0.00157011 -2.36543e-21)
(1.10613 -0.10323 0)
(1.06635 -0.0228716 1.53581e-20)
(0.956761 0.143366 0)
(1.10644 -0.10075 0)
(1.01842 0.000970099 6.75175e-22)
(0.49061 0.709683 0)
(1.00101 0.0330327 0)
(0.903944 0.196 0)
(1.0009 0.000267584 0)
(1.10257 -0.0406625 -2.37613e-20)
(-0.265357 0.0109739 2.64608e-20)
(0.999952 -0.000259556 0)
(0.133203 0.100731 9.02178e-20)
(1.11097 0.0285455 -3.48715e-20)
(0.995053 0.00305973 0)
(1.14015 0.0783769 -1.17011e-21)
(1.12874 -0.0224561 0)
(1.11692 -0.14449 2.01482e-20)
(0.360454 -0.0651693 3.53046e-22)
(1.11669 -0.125346 0)
(0.989518 0.0333297 0)
(1.01616 0.00972579 1.79922e-22)
(-0.0278929 -0.058578 -2.71107e-20)
(0.701693 -0.082796 -8.30016e-20)
(0.999463 0.00437713 3.11668e-21)
(1.01098 0.0533835 0)
(1.09756 -0.0209145 0)
(1.08952 -0.0540937 -2.40769e-20)
(0.260734 0.701782 3.59445e-20)
(0.0132939 -0.0666034 1.24644e-20)
(0.997784 0.00357741 -1.01034e-20)
(1.05981 0.0215252 8.13786e-21)
(0.0464474 -0.176756 0)
(0.99823 0.0229095 5.99192e-21)
(1.01357 0.0555285 3.91779e-21)
(1.16878 -0.0922841 0)
(1.10519 -0.00642747 0)
(1.06375 0.00149992 1.33619e-20)
(0.239224 -0.124282 -3.5772e-20)
(1 0.000433365 0)
(0.823979 0.161184 -7.70818e-20)
(1.26711 0.267816 -1.20099e-19)
(-0.295008 -0.000944199 0)
(1.01451 0.00477434 4.10234e-22)
(0.985273 0.0208343 -9.46759e-21)
(0.993124 0.0118821 -8.40511e-21)
(1.02303 0.0180299 0)
(0.824813 0.250013 2.91289e-20)
(1.02362 0.0178571 0)
(1.11091 0.101085 1.40157e-20)
(0.993482 0.0116156 0)
(1.03311 0.0728244 -1.19921e-21)
(0.997844 0.0033178 8.08604e-21)
(0.941397 -0.00702516 0)
(1.03295 0.01038 1.51764e-21)
(1.00897 0.0366036 -2.88915e-22)
(1.03142 0.0116003 2.25211e-21)
(1.03146 0.0111264 0)
(0.995788 0.0666594 8.05335e-21)
(0.561208 0.104326 -9.69986e-20)
(0.0118363 -0.213715 -5.76952e-20)
(1.02279 0.0279824 -5.05928e-23)
(1.02348 -0.141878 -3.88909e-20)
(0.942197 0.15528 -5.01605e-21)
(0.00739689 -0.207011 4.59417e-20)
(1.0977 0.00520485 -3.46731e-20)
(1.17883 0.0529302 1.1951e-21)
(0.979518 0.0357846 -1.02355e-20)
(1.08843 -0.149175 4.09035e-20)
(0.957854 -0.0053603 -1.60354e-20)
(1.0026 0.00071376 -4.54248e-21)
(0.999134 0.00344938 -9.51777e-21)
(1.01702 0.00506705 -1.07665e-22)
(0.326752 -0.0599546 1.53233e-20)
(1.05863 0.0454468 5.52581e-22)
(1.01535 -3.05787e-05 1.40249e-22)
(1.12578 0.0233141 -7.02721e-20)
(1.10669 0.10043 0)
(0.998507 0.0237981 6.24039e-21)
(1.02987 0.00111807 -2.80846e-21)
(-0.0653477 0.0241092 1.02148e-19)
(0.976592 0.0343126 -2.47724e-21)
(1.01596 0.0212248 0)
(0.139958 -0.686261 2.73241e-20)
(1.00317 0.0146429 -1.53902e-21)
(0.0551385 -0.0952591 9.95582e-20)
(-0.247769 0.00615549 1.89794e-19)
(1.1645 -0.0922816 1.94749e-20)
(0.913709 -0.000788242 5.82414e-21)
(1.04534 -0.00916518 0)
(-0.274173 0.0076692 5.67132e-20)
(1.00008 0.000425923 4.92251e-21)
(0.998361 0.0156678 -4.17703e-21)
(0.198239 0.637755 0)
(1.00001 0.000487354 -7.68375e-21)
(1.02097 0.00138876 1.96244e-23)
(-0.260968 0.00912649 -4.18536e-20)
(1.01157 0.0113557 1.08644e-21)
(-0.248091 0.0119624 1.61761e-20)
(1.09583 -0.0282372 -4.63754e-21)
(1.09885 -0.0409099 0)
(-0.231778 0.0101258 -1.50376e-19)
(0.96319 0.0228837 -2.45772e-20)
(0.998679 0.0153451 8.20243e-21)
(0.775342 -0.0970161 -1.58361e-20)
(1.11459 -0.0388276 2.55551e-20)
(-0.00515938 -0.0478758 3.6773e-20)
(1.13081 -0.137715 -1.79951e-20)
(0.993697 0.0106772 -6.61765e-21)
(1.00493 0.00658211 2.60529e-21)
(0.973213 0.027245 0)
(0.910193 -0.0529467 -1.35404e-20)
(0.944987 0.201674 2.11558e-20)
(1.00393 0.0371422 -3.20496e-21)
(0.999999 0.000341028 -8.40727e-21)
(0.996194 0.0446173 1.15953e-20)
(0.81621 0.169783 4.97689e-20)
(0.0648678 -0.19595 5.73611e-20)
(0.987036 0.105922 -5.38921e-21)
(0.974136 0.025794 -1.10299e-20)
(0.999992 0.000337162 -4.3317e-21)
(1.09652 0.00675958 2.76707e-20)
(1.12572 -0.102806 -6.44814e-21)
(0.231119 -0.0433846 -1.65774e-20)
(-0.211555 0.0155243 0)
(1.03277 -0.148777 -7.79904e-21)
(0.76737 0.130929 -6.00102e-20)
(0.838686 0.178594 0)
(0.0128109 -0.0238944 -1.84508e-20)
(1.04044 0.00176775 2.94054e-21)
(1.00829 0.00893066 0)
(0.989697 -0.000439364 8.75318e-21)
(1.02281 0.027021 6.37169e-23)
(0.81074 0.235912 0)
(0.996085 0.00815545 -1.31017e-21)
(1.0153 -5.43106e-05 -1.65858e-22)
(-0.198723 0.00936543 -1.57864e-23)
(0.80526 0.167676 0)
(1.13583 0.0754957 1.85966e-20)
(0.325047 -0.0915205 0)
(0.755027 0.133582 3.52981e-20)
(0.215703 -0.0070716 2.5282e-20)
(1.01148 0.0268601 -3.55056e-21)
(1.03216 0.0103201 0)
(0.994327 0.0209589 3.53105e-21)
(1.00327 0.0067889 -1.69905e-21)
(1 0.000238639 9.53463e-21)
(0.99999 0.000270052 3.62194e-21)
(0.99571 0.00925162 0)
(-0.0636913 -0.181331 0)
(1.01835 0.0409774 0)
(1.01838 0.00188419 -8.78653e-22)
(1.36964 0.134574 9.3521e-20)
(1.22721 0.129809 8.27811e-20)
(1.00797 0.00891502 2.8817e-21)
(1.05272 -0.000305593 1.18366e-20)
(0.918328 0.25172 8.50311e-21)
(0.994683 0.819043 -1.54376e-20)
(0.988565 0.0669255 9.64305e-21)
(1.02667 0.0151758 0)
(1.11216 -0.142849 1.84784e-20)
(0.943816 0.0423583 1.00788e-20)
(0.0526657 -0.129015 1.12688e-20)
(1.0665 -0.0241525 -8.49507e-21)
(1.0231 0.0189445 1.145e-22)
(-0.174812 -0.000854187 1.72103e-19)
(1.23013 0.125849 -4.33575e-20)
(1.01422 0.00880295 0)
(-0.0391645 0.014103 0)
(-0.03744 -0.18208 0)
(-0.0232168 0.033329 2.43088e-22)
(1.02245 0.0191292 -4.06646e-22)
(1.02626 0.0146397 -3.02333e-21)
(1.02656 0.0896011 0)
(1.12513 -0.0559142 7.52827e-21)
(0.963705 0.0152871 2.8539e-20)
(0.12121 -0.124245 -2.69453e-21)
(0.959047 -0.0508317 0)
(1.06638 -0.140905 3.55443e-20)
(1.35561 0.211541 0)
(1.01725 0.00480298 0)
(1.0947 -0.0288006 0)
(0.261425 -0.0222998 -5.09571e-21)
(0.0130016 -0.0684498 0)
(0.450522 -0.0535507 1.17538e-20)
(0.977402 0.0238368 -3.84916e-21)
(0.979626 0.100568 6.37118e-21)
(1.00394 0.103449 -2.92133e-21)
(-0.0156101 -0.0418086 0)
(-0.202517 0.00870144 0)
(1.13624 -0.105301 1.39998e-20)
(0.985334 0.035374 1.06884e-20)
(0.992116 0.0135671 0)
(0.99808 0.00135708 2.13179e-21)
(0.940336 0.20596 -2.23126e-20)
(0.995946 0.00891478 0)
(0.839471 -0.0976293 2.70399e-20)
(1.00219 0.106107 3.61949e-21)
(0.35587 -0.0510864 0)
(0.985337 0.0135006 0)
(0.996638 0.0432099 -8.10538e-21)
(1.00587 0.000550424 -3.36876e-21)
(0.862243 0.0505896 6.77306e-20)
(1.02464 0.132069 2.051e-21)
(1.12225 -0.100668 6.48847e-21)
(1.00212 0.0140207 -1.63575e-21)
(1.13415 -0.0441008 1.76785e-20)
(0.943749 0.833363 1.66455e-20)
(1.08074 -0.0173149 2.17643e-20)
(0.999386 0.0277281 2.05662e-22)
(0.939947 0.036227 3.61275e-20)
(1.07788 -0.0238271 0)
(1.00001 0.00047069 -3.9278e-21)
(1.10175 0.0470676 2.14587e-21)
(1.10683 -0.00520161 -2.22519e-20)
(1.08036 -0.0161222 -1.4857e-20)
(1.21874 0.174059 0)
(1.01155 0.054875 6.92165e-22)
(1.01414 0.00836508 -8.76295e-22)
(0.990347 -0.000366642 3.78481e-21)
(0.999972 -0.000160654 -2.35643e-21)
(1.1154 0.0949193 -2.75392e-20)
(1.06302 0.00040699 3.73248e-23)
(1.13161 -0.0193028 -1.88724e-20)
(1.01121 0.0259627 2.09782e-21)
(1.04551 -0.00483747 4.67619e-21)
(0.407607 0.0891042 0)
(1.01812 0.0012591 -1.01044e-21)
(0.849988 -0.0313067 0)
(0.959353 0.0163249 -9.78083e-21)
(1.18573 0.238748 3.62325e-20)
(0.928964 0.0145141 -3.2538e-20)
(0.313511 -0.0607025 -7.92099e-21)
(1.04636 0.0255248 0)
(-0.0787283 -0.00266649 -4.95308e-20)
(0.926155 0.056497 3.09948e-20)
(0.935167 0.0264076 -3.2035e-20)
(0.6378 -0.0478948 -4.74701e-21)
(0.363904 0.0832157 -9.90078e-20)
(0.89799 0.092044 -6.55501e-20)
(1.07942 -0.0187422 0)
(1.0573 0.0439309 1.57531e-20)
(1.02257 0.0200819 -2.85365e-22)
(0.993287 0.0134579 -5.81426e-21)
(1.10305 -0.044694 -7.91752e-21)
(1.13479 0.08955 -1.96916e-20)
(0.967455 0.145372 1.17767e-20)
(1.06156 0.272292 1.17467e-20)
(-0.0574231 -0.18382 4.28976e-20)
(1.09228 -0.0378158 -8.84823e-21)
(1.00484 0.000535849 0)
(-0.0233338 0.0227671 0)
(1.15472 -0.137361 -3.6267e-20)
(1.05311 -0.00228007 -1.13805e-20)
(0.992831 0.0136564 -1.25904e-21)
(0.848 -0.0251687 0)
(0.243869 -0.0802174 2.59183e-20)
(1.08665 0.0843749 1.91895e-20)
(1.00002 0.00136159 6.21432e-21)
(0.700099 0.0259957 -2.47095e-21)
(1.21161 0.173694 2.31808e-21)
(1.13283 0.141896 -2.48625e-20)
(0.87178 0.0456767 4.75708e-20)
(0.609021 0.765081 -1.43742e-20)
(1.07384 0.00491484 0)
(1.1581 -0.0308349 -3.89094e-20)
(0.126998 -0.00960185 1.22643e-20)
(1.11063 -0.103709 0)
(1.31953 0.128003 0)
(0.825182 0.207255 2.19473e-20)
(1.13233 0.317047 -3.82408e-20)
(1.0826 0.0144641 4.95241e-21)
(1.00148 0.000350136 0)
(1.0539 -0.00282177 1.72138e-20)
(0.993688 0.0225385 1.16968e-20)
(0.407135 0.00196818 0)
(0.477341 -0.265764 6.69118e-20)
(0.234523 -0.0139713 0)
(0.581321 0.102039 1.64366e-19)
(-0.266925 0.00597992 -1.08522e-19)
(0.00348623 -0.270005 3.16488e-20)
(0.71302 0.0179803 -6.49875e-20)
(0.98469 0.0731353 -9.57376e-21)
(0.19231 -0.0108201 0)
(0.577706 0.0733977 1.51033e-19)
(1.02278 0.000835365 2.51071e-22)
(0.545702 0.068537 0)
(-0.0279517 -0.100762 -7.53336e-20)
(1.09716 -0.0513589 -2.52096e-20)
(0.990854 0.107978 6.70215e-21)
(1.01633 0.00372022 1.17135e-22)
(1.07281 0.0057528 -6.20965e-21)
(1.07265 -0.00334468 -3.04674e-21)
(1.07672 -0.0244975 3.7327e-21)
(1.17482 0.00433027 8.14793e-22)
(1.00013 0.0211994 -5.26842e-21)
(-0.0272071 -0.00391111 1.94237e-20)
(0.993499 0.0676544 8.63244e-21)
(0.967272 0.0783655 9.93289e-21)
(-0.00128263 -0.0461292 2.17969e-20)
(1.00928 0.0244346 2.98892e-21)
(1.02231 0.137139 1.63083e-22)
(0.483486 -0.0571455 -1.01004e-20)
(0.998469 0.0146659 3.37431e-21)
(1.04214 0.0440594 -6.22587e-21)
(-0.113443 -0.0360924 2.36277e-21)
(1.00972 0.00299648 0)
(1.13189 -0.0446277 1.87213e-20)
(1.01843 0.00120927 3.57984e-22)
(-0.0103288 -0.257873 0)
(1.07989 -0.0198061 0)
(1.09905 -0.0211307 2.16063e-20)
(0.961776 0.147613 1.22909e-20)
(1.05251 0.0701685 -3.94188e-21)
(1.12654 -0.0544115 0)
(0.920588 -0.00309104 3.14009e-21)
(0.203955 -0.114361 -1.73779e-21)
(1.1048 -0.0397446 3.05279e-20)
(1.0379 -0.00220245 0)
(-0.220736 -0.0145389 2.97392e-28)
(1.09916 -0.0223617 -1.98222e-20)
(0.540954 0.773643 0)
(-0.294814 0.0080153 8.58585e-20)
(1.3569 0.136462 -1.35351e-19)
(1.13041 -0.0998276 -2.57424e-20)
(0.997289 0.0214556 -1.22186e-22)
(1.01791 0.00577386 8.55365e-23)
(-0.0327549 -0.188587 -1.0356e-20)
(0.937694 0.0379773 -1.46892e-20)
(1.10427 0.0460482 1.24407e-21)
(1.00001 0.00101557 0)
(1.08403 0.013635 0)
(1.07012 -0.146925 0)
(0.600799 -0.129821 -1.44239e-20)
(1.11462 0.0987469 3.32985e-20)
(-0.0882999 -0.0074736 3.49787e-20)
(0.811595 0.222863 0)
(1.01342 0.0696601 2.88998e-21)
(1.01657 0.0039718 -6.23906e-23)
(1.00003 0.00124333 -7.76079e-21)
(1.12883 0.023178 7.64134e-20)
(1.08013 0.259093 0)
(1.02756 0.00771631 9.9327e-22)
(1.02139 0.110892 -3.14256e-20)
(0.994132 0.119756 -7.75141e-22)
(1.10024 0.14377 0)
(1.01421 7.50615e-05 1.69356e-22)
(-0.0773111 0.0126875 -4.56353e-20)
(-0.0968456 0.02202 -1.3972e-19)
(0.992231 0.0230544 -4.56406e-21)
(1.02255 0.00130406 4.72869e-22)
(1.1121 -0.0396824 -4.34511e-20)
(1.00002 0.000919886 3.6458e-21)
(1.01468 0.00904473 4.31576e-22)
(0.0232857 -0.24257 -7.12275e-20)
(0.546316 0.0853635 0)
(0.967564 0.0246788 0)
(0.993712 0.0140791 -5.6933e-21)
(1.09852 -0.0406295 -1.18665e-20)
(1.131 0.0821198 -1.94394e-20)
(1.07073 -0.021702 3.33935e-21)
(0.712155 -0.0722384 7.48469e-20)
(1.00952 0.0356953 2.70918e-22)
(0.274233 -0.0255128 0)
(1.11941 -0.0149466 0)
(0.98263 0.0321903 -3.57266e-21)
(0.430888 0.144485 -1.58909e-19)
(-0.039193 -0.0595009 0)
(1.00356 0.00826024 0)
(0.672893 -0.134791 0)
(1.01532 0.0051653 2.27704e-22)
(0.998743 0.0144401 2.1444e-21)
(0.963754 0.0136826 -1.023e-20)
(0.827022 -0.00502285 0)
(-0.075694 0.0238622 5.28937e-20)
(1.10927 0.0303626 2.29299e-20)
(0.139877 -0.0118872 0)
(1.01238 0.141063 0)
(0.367813 -0.0613913 3.38407e-21)
(1.37663 0.215377 0)
(1.08322 0.016882 -3.20085e-22)
(-0.28496 0.00452151 1.17538e-19)
(0.984945 0.0219705 -3.33081e-21)
(0.425466 0.0531026 7.20919e-20)
(1.05358 -0.00092873 -1.55097e-20)
(0.280051 -0.0863369 -7.40189e-21)
(0.198218 -0.0176203 1.43057e-20)
(0.99613 0.0400661 1.0087e-20)
(0.126333 0.546918 0)
(1.02605 0.0841057 0)
(0.922649 0.0580158 -5.23747e-20)
(0.771441 0.0839429 -6.26842e-20)
(0.65443 0.0825095 -1.00903e-19)
(-0.247517 0.00914858 -5.57042e-20)
(1.00968 0.00974022 -1.14341e-21)
(0.321413 -0.0637925 -1.34698e-20)
(0.988474 0.0122868 0)
(0.216708 -0.105852 7.73947e-21)
(1.04268 0.00300605 -6.08173e-21)
(0.997934 0.107101 0)
(1.07765 -0.0220637 1.5986e-20)
(1.01157 0.0136578 0)
(1.01407 0.000632841 -1.742e-22)
(1.10945 -0.0255665 0)
(1.10464 -0.136633 -3.71386e-20)
(1.16325 -0.0562866 5.5491e-21)
(1.00471 0.00623889 1.46081e-21)
(0.142152 0.142532 0)
(1.08174 0.0178618 4.29299e-21)
(1.01104 0.0134866 -1.48508e-21)
(0.997912 0.00160516 -4.5789e-21)
(0.939738 0.097395 1.9129e-20)
(1.14076 -0.0562882 0)
(0.651812 0.071874 -3.32895e-20)
(1.10613 0.0303534 2.50392e-21)
(1.00913 0.000485446 -1.25427e-21)
(1.03349 0.0971423 4.29899e-21)
(0.304992 -0.0432284 -1.42229e-20)
(0.995115 0.105329 0)
(0.999078 0.0206421 7.32856e-21)
(1.01184 0.014029 1.50887e-21)
(1.03558 0.0995601 -4.82804e-21)
(1.09496 0.0246261 -1.36322e-20)
(-0.0167653 -0.00748264 0)
(1.00908 0.0235377 -2.85329e-21)
(1.14264 0.461002 9.39921e-21)
(0.892753 0.213779 -2.82853e-20)
(1.20773 -0.13517 3.25648e-20)
(-0.0293393 0.0321581 1.70193e-19)
(-0.0372417 -0.0851316 -1.8266e-20)
(1.01621 0.00274673 -1.97932e-22)
(1.09776 -0.0395425 8.3258e-21)
(1.00379 0.0228966 0)
(1.01973 0.045137 -1.63705e-21)
(1.08379 0.00380994 4.64649e-21)
(-0.0345994 -0.113169 9.48545e-21)
(1.00774 0.00547649 1.57211e-21)
(1.02196 0.0202596 -1.61661e-22)
(1.01263 0.000478747 0)
(0.53427 0.0570898 -6.70654e-20)
(0.958705 0.0480542 2.16572e-20)
(1.03851 -0.0025686 0)
(1.04493 0.129105 0)
(1.0829 0.0841432 0)
(0.276733 -0.0978868 0)
(-0.357959 0.00387327 7.03799e-20)
(1.00357 0.011203 -1.4757e-21)
(0.987757 0.00601108 -9.08634e-21)
(0.230003 -0.0927314 0)
(0.984011 0.0328847 1.44978e-20)
(-0.105174 0.00656279 0)
(0.211251 -0.0236792 0)
(-0.0903964 0.0214655 4.28837e-20)
(0.656177 0.340951 -3.45461e-20)
(0.810824 0.437161 -4.45599e-21)
(1.00037 -0.0736678 -8.6748e-21)
(1.07913 -0.0214961 -1.58604e-20)
(0.999122 0.00168302 -7.24161e-21)
(1.01197 0.0118046 1.0014e-21)
(1.00066 0.0342709 0)
(0.970066 0.0228838 5.68975e-21)
(0.999434 0.00475306 1.57164e-23)
(0.968483 0.0226629 0)
(0.828283 0.0167768 -3.82641e-21)
(-0.0119233 -0.242468 4.98522e-20)
(1.03708 0.0308507 5.65167e-21)
(0.660907 0.173878 1.09081e-19)
(1.00946 0.0036702 -1.34453e-21)
(1.01533 0.069076 -1.63396e-21)
(1.10383 0.105165 -3.21598e-21)
(1.00004 0.00571631 0)
(0.965629 0.0805653 0)
(1.04306 0.0451473 2.55712e-21)
(0.354242 0.00710863 -1.12585e-19)
(0.0954874 -0.129195 -6.98901e-20)
(1.164 0.0915917 1.07934e-21)
(-0.21848 0.0101316 6.69722e-20)
(0.831249 0.186201 -2.25466e-20)
(-0.00269439 -0.129513 5.00133e-21)
(1.08304 0.271035 0)
(0.381518 -0.069662 -3.77069e-21)
(-0.0808376 -0.0109174 -7.82248e-20)
(1.12126 -0.0139462 1.327e-20)
(0.895239 0.766795 1.90697e-20)
(1.09018 -0.0380236 1.15815e-21)
(-0.293655 0.00667634 0)
(1.03506 0.00299012 -1.80773e-21)
(0.993345 0.0109923 -3.67283e-21)
(1.00326 0.00630581 -1.6621e-21)
(1.07361 -0.00232432 0)
(0.445432 -0.0503603 -1.17371e-20)
(1.01287 0.0107002 -7.48348e-22)
(0.999962 2.06487e-05 -5.70116e-21)
(1.1759 0.0142812 -1.23708e-20)
(1.00722 0.00306192 -1.08517e-21)
(1.00699 0.200256 0)
(1.00555 0.187869 0)
(1.00017 0.000542359 0)
(1.00974 -0.0651787 2.05688e-20)
(1.03764 -0.00091362 -2.34027e-21)
(0.987194 0.00562339 0)
(1.09738 -0.0408317 0)
(1.01601 0.00773523 4.10581e-22)
(1.25185 0.0760758 5.45603e-20)
(0.447767 -0.269675 -7.34427e-20)
(0.999378 0.0381336 8.3409e-21)
(1.04959 -0.0064653 5.23909e-21)
(1.01074 0.013067 0)
(0.928432 0.269973 0)
(1.00806 0.00602105 2.09783e-21)
(1.04671 0.0526143 -6.37822e-21)
(1.34804 0.230512 1.93052e-19)
(0.988498 0.000513961 -5.17824e-24)
(-0.0225049 -0.0617524 8.31043e-20)
(1.03721 0.0265127 -2.17788e-21)
(0.01939 -0.0684571 -4.29758e-20)
(1.06239 -0.0096632 8.45962e-21)
(1.10126 -0.0418001 -8.53543e-21)
(0.998777 0.0129326 7.05035e-21)
(1.10103 -0.0416716 1.34794e-20)
(1.09932 0.104487 0)
(0.999214 0.00145339 7.03838e-21)
(1.00017 0.0391114 -2.08532e-23)
(0.00738063 -0.0625316 -6.14244e-20)
(0.992614 0.0146603 -7.14129e-21)
(-0.321134 0.00758044 -7.53152e-20)
(-0.326447 0.00982533 0)
(0.980264 0.0510776 0)
(1.00102 0.000284213 0)
(1.00021 0.00598873 -9.68601e-21)
(1.01937 0.00323014 0)
(0.0337577 -0.230857 5.3682e-20)
(0.994306 0.0139338 1.06367e-20)
(0.0663731 -0.0746925 5.4538e-20)
(-0.00815407 -0.216978 0)
(1.10469 0.135541 2.87728e-20)
(-0.0219201 0.0357874 -6.7251e-20)
(1.00953 0.000640257 0)
(1.00284 0.0200645 -6.46064e-21)
(-0.0661427 0.0211049 0)
(-0.121099 -0.00721752 -4.14531e-20)
(0.922681 -0.00535618 0)
(1.00007 0.00989968 3.71493e-21)
(0.995001 0.021363 0)
(1.01247 0.0113216 -2.26849e-21)
(1.05128 -0.00967781 8.41715e-21)
(0.85802 0.173214 -3.13447e-20)
(0.346861 0.369988 -7.24725e-20)
(1.04777 0.0707574 -4.11622e-21)
(0.0689607 -0.130108 -1.71984e-21)
(0.116668 0.149108 -1.73627e-19)
(0.910664 -0.0402684 -4.70406e-21)
(0.854596 0.0638049 0)
(1.03407 0.0164616 -4.45736e-21)
(-0.318541 -0.0102937 1.86959e-21)
(-0.0333799 -0.0585519 0)
(1.04772 0.127311 0)
(0.999016 0.0126718 -1.26299e-20)
(0.977023 0.0213442 1.46509e-20)
(-0.0203578 -0.0248237 -7.45026e-20)
(0.995841 0.00848192 1.37021e-21)
(-0.00943851 -0.260605 2.67673e-20)
(0.824396 0.239331 -2.75488e-20)
(1.00004 0.000520608 -7.75409e-21)
(0.943687 0.0990697 -9.10916e-22)
(1.01527 5.99642e-05 -2.90369e-23)
(1.10441 0.0291719 0)
(1.06666 0.0688624 8.83875e-21)
(1.00702 0.00289208 2.91773e-24)
(1.01757 0.00139594 5.47182e-22)
(1.05 -0.00943763 0)
(-0.0798245 -0.0201626 -2.29794e-20)
(1.00014 0.000846749 -1.87642e-21)
(1.09671 -0.0427706 -7.43778e-21)
(0.0670312 -0.0203742 0)
(0.977722 0.0198268 0)
(1.00272 0.0152591 -9.09197e-21)
(0.822441 0.149811 3.67208e-20)
(-0.0350581 -0.136399 4.28748e-20)
(1.09629 0.0104675 0)
(-0.145947 -0.0346283 -1.90154e-20)
(0.958496 -0.00348611 0)
(1.01937 0.002987 4.09132e-22)
(0.938993 0.000361426 -3.23904e-20)
(0.173593 -0.00656 9.27125e-21)
(0.407772 0.158891 1.20803e-19)
(0.178912 0.0924415 0)
(1.00891 0.000453116 1.03247e-21)
(0.865838 0.0438495 -6.8232e-20)
(1.00212 0.0328551 0)
(-0.175547 -0.0319262 -9.24448e-20)
(1.02375 0.00770206 0)
(1.02202 -0.0663649 -1.76522e-20)
(0.850335 0.182138 3.36517e-20)
(0.0396274 -0.220891 2.61511e-20)
(1.00028 0.00118945 0)
(1.00462 0.0020221 -1.07969e-21)
(0.787403 0.44247 -8.31801e-21)
(0.996994 0.0201579 0)
(-0.100392 -0.0160977 0)
(1.0398 0.0024066 0)
(0.180926 0.501131 0)
(1.00003 0.000446416 3.64702e-21)
(1.01201 0.0104177 2.70206e-21)
(0.932101 0.0234364 0)
(1.12245 0.45231 0)
(-0.194846 0.0153179 -6.05143e-20)
(1.02734 0.0952633 -1.64684e-21)
(1.04786 0.0194765 -4.56447e-21)
(0.962062 0.0216166 1.34728e-20)
(1.03823 -0.00135408 0)
(1.02772 0.00721471 -3.18246e-21)
(0.99998 2.91177e-05 6.03875e-21)
(1.1935 -0.00361426 0)
(1.00343 0.0479534 -2.78444e-22)
(0.398931 -0.0575694 -5.82064e-21)
(1.00904 0.0739371 9.06458e-21)
(-0.143355 0.00749488 -8.707e-20)
(1.03664 0.002857 0)
(1.01926 0.00398343 8.31215e-22)
(1.33608 0.194629 0)
(-0.117458 -0.00700841 5.11159e-20)
(0.75173 -0.140707 0)
(1.01513 0.0511414 2.14381e-21)
(0.289827 -0.0809298 1.28975e-20)
(1.03728 0.00234778 0)
(-0.00914573 -0.123506 -8.87421e-22)
(0.962274 0.0251747 -7.48547e-21)
(1.24318 0.00945069 0)