/*--------------------------------*- C++ -*----------------------------------*\
| =========                 |                                                 |
| \\      /  F ield         | OpenFOAM: The Open Source CFD Toolbox           |
|  \\    /   O peration     | Version:  v2012                                 |
|   \\  /    A nd           | Website:  www.openfoam.com                      |
|    \\/     M anipulation  |                                                 |
\*---------------------------------------------------------------------------*/
FoamFile
{
    version     2.0;
    format      ascii;
    class       volScalarField;
    location    "300";
    object      k;
}
// * * * * * * * * * * * * * * * * * * * * * * * * * * * * * * * * * * * * * //

dimensions      [0 2 -2 0 0 0 0];


internalField   nonuniform List<scalar> 
18355
(
0.000162134
0.0346052
0.000147557
0.000145572
0.000150438
0.000181811
0.000147536
0.000174008
0.000151228
0.0362561
0.000144976
0.0350685
0.000183522
0.000147971
0.000148514
0.000151672
0.0141044
0.000146217
0.000148408
0.0601793
0.000153947
0.000149534
0.0688248
0.000150463
0.000156032
0.000148911
0.000148373
0.000150906
0.0194178
0.000148082
0.000149012
0.000152455
0.000146196
0.00014679
0.000168627
0.000162827
0.000149881
0.000182959
0.000150721
0.00014512
0.000147984
0.000168336
0.000147593
0.0282627
0.000147876
0.00018413
0.00017
0.000151923
0.000167794
0.000146357
0.000144964
0.000147251
0.000149832
0.0620969
0.00014847
0.000148378
0.000191497
0.00014863
0.000458628
0.000185038
0.000146392
0.000177303
0.000146094
0.000162667
0.0389094
0.000161532
0.00490136
0.000157661
0.000148412
0.000149398
0.000172036
0.000149683
0.000186305
0.000146598
0.000173984
0.000147508
0.057665
0.000152285
0.000159821
0.000147036
0.000147616
0.000267394
0.000153661
0.000164287
0.000148855
0.000183164
0.0304326
0.0603305
0.0188905
0.0665491
0.000229662
0.000148277
0.000148646
0.00014442
0.00644783
0.0658936
0.000147014
0.000156346
0.0594882
0.0086563
0.0105749
0.0103039
0.000164334
0.00181709
0.00015117
0.000187052
0.0226098
0.00017753
0.000161686
0.000184263
0.000147859
0.000150404
0.00014892
0.000150606
0.0557785
0.000147856
0.000486788
0.0587047
0.000471702
0.000164257
0.039033
0.00121386
0.00015217
0.000171848
0.000147008
0.000178158
0.000147219
0.000149722
0.00406169
0.000144436
0.000145002
0.00209394
0.000171587
0.000156088
0.000161277
0.000149691
0.000147867
0.000144959
0.000147806
0.000172943
0.0126676
0.0198591
0.000149415
0.000147835
0.000189335
0.000149299
0.000153813
0.0233473
0.000152786
0.0200035
0.000149788
0.000149359
0.00016758
0.000430764
0.000182587
0.000149781
0.0020637
0.000469637
0.000149762
0.00017836
0.000155397
0.000153307
0.000156749
0.000156617
0.000203062
0.00026921
0.0634932
0.000166326
0.000203191
0.000146425
0.0282121
0.0624233
0.000144876
0.000144971
0.000151637
0.0252671
0.00018007
0.000148586
0.00218573
0.0492482
0.000165889
0.000202877
0.000158361
0.000147224
0.000209503
0.0267672
0.0696632
0.000206977
0.000151336
0.0110805
0.000191225
0.000147663
0.000156443
0.00547111
0.00016259
0.000149495
0.001797
0.000158096
0.000167192
0.000144967
0.00015106
0.000152212
0.0464388
0.0675194
0.0115295
0.000156485
0.000482366
0.0609978
0.068209
0.000167009
0.00014785
0.000149554
0.0571796
0.000149283
0.000146428
0.000257756
0.0491348
0.057277
0.000148969
0.000152624
0.000249345
0.00014776
0.000163688
0.000147748
0.056732
0.000149039
0.05137
0.0259851
0.000170464
0.000147845
0.000149807
0.000159201
0.000154946
0.0547902
0.000150232
0.000148863
0.000148651
0.000184315
0.000243581
0.0111846
0.000161021
0.000202258
0.000149252
0.000146509
0.0001492
0.0206467
0.012823
0.000483046
0.000182455
0.000155286
0.000151067
0.000530326
0.000158702
0.0722139
0.000148792
0.0331478
0.0613859
0.000178354
0.000148067
0.00014752
0.000160852
0.000173935
0.0550376
0.000172255
0.000146673
0.000146399
0.000149735
0.00020593
0.000170384
0.000168912
0.000150319
0.0111032
0.0002096
0.000186103
0.000149017
0.00212737
0.000147093
0.0001478
0.00078149
0.000146677
0.000147498
0.000186414
0.000147346
0.015733
0.000158531
0.000152474
0.000146877
0.000166254
0.0378551
0.000152512
0.000145607
0.000147966
0.000191625
0.0484822
0.000149759
0.000149847
0.0544606
0.000165376
0.000183133
0.000178342
0.000147825
0.000172738
0.000149898
0.000149773
0.00017662
0.000206475
0.000299586
0.000193042
0.000144504
0.000167143
0.00015085
0.000148394
0.00369162
0.000147649
0.000206786
0.000167963
0.000148592
0.000145049
0.000203379
0.00766037
0.0656581
0.000148719
0.000156398
0.0255253
0.000146791
0.000253866
0.000159373
0.000158674
0.00023413
0.000144499
0.00031611
0.000148291
0.000161813
0.000148711
0.000182848
0.037262
0.000149787
0.0401996
0.000164372
0.000148174
0.000169321
0.000177618
0.00492634
0.0616738
0.00193707
0.000148742
0.000146054
0.0699201
0.000164121
0.000148708
0.000149793
0.00263273
0.000209298
0.000424014
0.0733249
0.000148543
0.000152193
0.000529724
0.000147835
0.000150043
0.000219145
0.000167424
0.000153911
0.0107729
0.000149821
0.000161911
0.000258371
0.00895382
0.000145563
0.00014835
0.000147735
0.000147018
0.000165124
0.00014702
0.00016487
0.000147739
0.00015275
0.000148565
0.000151025
0.000147501
0.000148325
0.000147359
0.000147349
0.000151182
0.000170443
0.0184192
0.000147739
0.0162721
0.000159221
0.0190897
0.000162755
0.000177257
0.000149338
0.00839593
0.000149722
0.000147891
0.000148815
0.000145411
0.0595251
0.000152953
0.00014672
0.000168908
0.000164603
0.000147861
0.000146785
0.0572567
0.000149397
0.000147144
0.000526302
0.000147323
0.000462404
0.00918715
0.000217374
0.000153481
0.000151149
0.0436478
0.000149601
0.000147526
0.000439309
0.000149776
0.000144872
0.012391
0.000146555
0.0399691
0.000171825
0.000181119
0.0119774
0.000149697
0.000147514
0.0544588
0.00018162
0.0285955
0.00233342
0.000147755
0.000147288
0.000149256
0.0413794
0.000162083
0.000148496
0.000149816
0.000149226
0.000162286
0.000483451
0.000155547
0.000149156
0.00014982
0.000162248
0.00023513
0.0502832
0.0342402
0.015912
0.000162833
0.000162151
0.0338294
0.000148901
0.000146764
0.00014796
0.000147712
0.000164692
0.000147961
0.000146325
0.00695722
0.000162514
0.000168557
0.0677691
0.000163202
0.0215303
0.00014763
0.000147425
0.000147907
0.000147655
0.000149878
0.000149862
0.000147861
0.0209706
0.000148711
0.000144735
0.00062031
0.000186408
0.000146823
0.000151554
0.000164391
0.000755241
0.000151305
0.000147059
0.0041818
0.000151919
0.0138288
0.000159823
0.000147083
0.00726154
0.000186425
0.000146097
0.0761128
0.0167371
0.0518814
0.000147075
0.000146955
0.000154398
0.000190614
0.000149532
0.012007
0.0347274
0.0101718
0.000267079
0.000145351
0.000171663
0.0381173
0.0660688
0.0609321
0.000148896
0.000155035
0.000155382
0.0470038
0.00991179
0.000235037
0.00014905
0.000147758
0.000148745
0.000162331
0.00014789
0.0467687
0.000156008
0.0578151
0.000148119
0.000149119
0.000147429
0.000157302
0.000158934
0.00023206
0.000147384
0.000185961
0.000434093
0.000162072
0.000148057
0.000152038
0.000163163
0.000149796
0.000161731
0.000167645
0.000161657
0.000185365
0.000149958
0.00014606
0.000147964
0.000149843
0.00016543
0.000153912
0.000177301
0.000147582
0.000150475
0.0274158
0.000144556
0.000157646
0.000149792
0.000183122
0.0001522
0.0591146
0.000149948
0.00841452
0.000153959
0.000152048
0.0612123
0.0274931
0.0605177
0.000162184
0.000152639
0.00014715
0.000147738
0.000187288
0.000168347
0.000158843
0.00016971
0.0201129
0.000204281
0.000147367
0.0716259
0.00491031
0.000151894
0.000147742
0.000157658
0.0642482
0.000160803
0.000149397
0.00016373
0.000183748
0.000168772
0.000156728
0.000331922
0.000155964
0.000185134
0.0238781
0.000241222
0.0058739
0.000163716
0.000180755
0.000157767
0.000148389
0.000151988
0.000148014
0.000183825
0.000183449
0.0305519
0.000169828
0.0471549
0.013242
0.000163138
0.000152064
0.0267783
0.0882795
0.000145086
0.000171481
0.00853071
0.0195737
0.000155757
0.0001452
0.000155851
0.000156757
0.000162892
0.000181639
0.000147665
0.00854358
0.000151288
0.000153109
0.049105
0.000147529
0.000159134
0.062386
0.000147522
0.000150604
0.069296
0.000146166
0.000186009
0.000144565
0.0156247
0.000162405
0.000169962
0.000158903
0.000154175
0.000190127
0.000153137
0.0184265
0.000182005
0.00014869
0.0272481
0.000170507
0.000349243
0.0184763
0.00019935
0.000228268
0.000147795
0.000145487
0.0161339
0.000152167
0.000162303
0.000149561
0.000157911
0.0127289
0.0641381
0.000165498
0.0164283
0.000164389
0.000151455
0.000145225
0.000149487
0.00016955
0.000170384
0.000146542
0.0442042
0.00015682
0.00016525
0.000149791
0.0722378
0.0539672
0.000148107
0.00014509
0.000181867
0.00014961
0.000146088
0.0143105
0.000172205
0.000149523
0.000147719
0.000193719
0.000167761
0.000160373
0.000163711
0.000148277
0.041475
0.000173734
0.000148982
0.000185051
0.0614604
0.000147535
0.0587259
0.000145552
0.000147527
0.000149455
0.000158597
0.0531033
0.000163871
0.026393
0.000159125
0.049781
0.000309057
0.000157626
0.0442763
0.000148411
0.0912471
0.000151799
0.0245871
0.0343445
0.000148898
0.000458162
0.000153679
0.000154333
0.0743511
0.000165964
0.0476423
0.000146643
0.0604124
0.000147948
0.0233176
0.000149267
0.000155732
0.000162486
0.0001467
0.000145293
0.000174903
0.0054579
0.0135126
0.00014733
0.000339634
0.000157233
0.000146741
0.000148695
0.00015573
0.000191917
0.0848532
0.000163021
0.000149711
0.000155802
0.0528452
0.00015561
0.000147684
0.000146705
0.000156303
0.000160269
0.017199
0.000147475
0.00023294
0.000162743
0.00250803
0.0500797
0.00560814
0.000145005
0.000179519
0.00014762
0.000149161
0.00015892
0.0108938
0.000146696
0.000147137
0.000147232
0.0896449
0.00015119
0.000148822
0.00015981
0.000160116
0.0705284
0.026853
0.000147386
0.000147959
0.0690791
0.00014897
0.0715803
0.0389949
0.0577238
0.000174949
0.000177934
0.0251753
0.000162861
0.000149034
0.000146553
0.000148388
0.000149307
0.00014865
0.000149387
0.0676593
0.00841006
0.000149049
0.000167474
0.000146244
0.000151558
0.000164146
0.000148473
0.000153336
0.000150791
0.000191837
0.000380546
0.000172714
0.0523958
0.000162668
0.00654272
0.000170824
0.053498
0.0761218
0.00017389
0.000435794
0.000206837
0.0185641
0.000147859
0.000147749
0.000147671
0.00015692
0.0589175
0.000146389
0.000149827
0.000180204
0.000146681
0.000162783
0.000162027
0.000149397
0.0231995
0.000148539
0.00014797
0.000194077
0.000145847
0.00019411
0.000186747
0.000148693
0.000151591
0.000146733
0.000165444
0.000146668
0.000151879
0.000126063
0.000147976
0.0716506
0.000148807
0.073167
0.000155164
0.00018884
0.000147581
0.000183442
0.000163732
0.000149081
0.00014871
0.0748365
0.000147773
0.0186365
0.0214571
0.000150277
0.000148639
0.000148417
0.000145062
0.0142627
0.000147691
0.0760505
0.00909807
0.000165394
0.0394661
0.000147089
0.000147497
0.0668003
0.0715206
0.0001527
0.000147844
0.000147906
0.000146477
0.000152488
0.00016151
0.000226953
0.000153718
0.0122078
0.000349965
0.0390421
0.000158039
0.000147865
0.0278221
0.0282366
0.000159937
0.000147599
0.000148828
0.0812054
0.000147927
0.016202
0.000164847
0.000149656
0.000155814
0.000145973
0.000162767
0.000155949
0.000146697
0.000144583
0.000152172
0.0310794
0.000149436
0.000180804
0.0316508
0.000148731
0.000147341
0.000161527
0.0160981
0.00016172
0.0647123
0.000149673
0.000145006
0.000151379
0.0218864
0.000187367
0.000289503
0.00014771
0.000157068
0.000148264
0.0604314
0.000145977
0.0219115
0.000162165
0.014966
0.000149212
0.000147272
0.000177774
0.000147753
0.0270533
0.000148741
0.000394367
0.000149681
0.000146444
0.00015221
0.000213867
0.0237854
0.000155194
0.000150021
0.000149721
0.000148673
0.000146513
0.000149861
0.000186801
0.00014936
0.0541472
0.000151896
0.0666846
0.000148148
0.000145182
0.000164357
0.0716021
0.0510167
0.000149643
0.0330732
0.000148282
0.00627424
0.000149861
0.000199189
0.00014698
0.0534716
0.000147397
0.000155881
0.000148208
0.000147675
0.000149722
0.0605693
0.000838118
0.0383004
0.000158175
0.000157043
0.000153464
0.000147761
0.000145595
0.000146169
0.000151246
0.000192707
0.000149081
0.0138673
0.000183912
0.000147824
0.000149901
0.00542431
0.000187306
0.000151323
0.000153329
0.000158482
0.0242094
0.000175652
0.0905769
0.00018012
0.000181501
0.000173377
0.000147978
0.000147425
0.000180408
0.000161018
0.000147992
0.00301307
0.000156165
0.0183058
0.000149396
0.000182084
0.000158313
0.000173622
0.000155474
0.000148276
9.76481e-05
0.000148293
0.0142536
0.000148309
0.000148235
0.0669832
0.000162255
0.000158359
0.0762786
0.000147473
0.000168578
0.0228255
0.000147743
0.000168507
0.0268771
0.000150527
0.000147475
0.000148329
0.000153888
0.000153245
0.000182276
0.0622403
0.000152531
0.000154904
0.0298831
0.00014546
0.00809785
0.000155054
0.000151692
0.000256731
0.0107359
0.000146089
0.000147323
0.000152869
0.000146094
0.000145693
0.0519016
0.000149786
0.000158683
0.00014512
0.000163386
0.000146072
0.000169453
0.000216563
0.000151621
0.0458745
0.00014739
0.000152404
0.000147723
0.0420418
0.000156255
0.000146896
0.000147806
0.000148677
0.000147495
0.000186531
0.0577952
0.0254009
0.0448071
0.000149169
0.000149641
0.000184075
0.000148964
0.000146025
0.000248693
0.0440067
0.000151864
0.000148195
0.0318852
0.000149461
0.000149183
0.0422875
0.000182089
0.0459945
0.000151094
0.000147813
0.0451938
0.000148996
0.000157803
0.000149436
0.000161271
0.000148009
0.000177361
0.000197902
0.000170692
0.000148582
0.0454551
0.000150258
0.000146926
0.000149374
0.000148328
0.000147743
0.000148644
0.054836
0.000149427
0.00796143
0.000149199
0.000159084
0.0755223
0.000146489
0.000188474
0.00015108
0.000146427
0.000151667
0.000181318
0.000148102
0.00014721
0.000148769
0.000148077
0.000176092
0.000145788
0.000149701
0.000156292
0.000148524
0.000158862
0.0133879
0.0464747
0.0265978
0.0413587
0.000186129
0.000173452
0.0758981
0.0564521
0.000148549
0.000149297
0.00014539
0.000170423
0.0615642
0.00016124
0.00015418
0.000145186
0.000147769
0.00014898
0.000152212
0.0415944
0.0550712
0.00971736
0.000177786
0.000148604
0.000149534
0.000148976
0.0335298
0.00128015
0.000147713
0.00034272
0.000145643
0.000161641
0.000152212
0.000162718
0.000161077
0.000246438
0.000151094
0.000169754
0.000145922
0.000147144
0.000173847
0.000147399
0.0001483
0.000176247
0.000204532
0.000148782
0.000166626
0.000147394
0.000147998
0.000146583
0.000147838
0.0330152
0.000157582
0.000150877
0.000148887
0.0434604
0.000173247
0.000148395
0.000157638
0.000160836
0.0203394
0.000224055
0.0655855
0.000200359
0.000181736
0.000188392
0.000193427
0.000170443
0.036829
0.00014502
0.000147345
0.000147661
0.000173537
0.000149083
0.0258185
0.000147289
0.000148881
0.0690202
0.000172776
0.000149635
0.000165829
0.000147503
0.000150793
0.000280977
0.000185672
0.000147543
0.000214784
0.000186273
0.0137613
0.0621133
0.000147938
0.0372252
0.000147346
0.000167665
0.000146934
0.000146761
0.0352822
0.000161856
0.000151795
0.000147844
0.047955
0.000153666
0.0085655
0.0238569
0.000149734
0.000145792
0.000152835
0.0532196
0.000182629
0.000169491
0.000158684
0.000205902
0.00014799
0.000149929
0.000147872
0.000148106
0.000151046
0.000163103
0.0764915
0.000177654
0.000187782
0.0314153
0.000147876
0.0157774
0.000186123
0.000162308
0.000149222
0.000147824
0.000147365
0.000147246
0.000147431
0.0107849
0.000183744
0.0615095
0.00017765
0.000184495
0.000149059
0.00018531
0.0612852
0.000161241
0.000155412
0.000146857
0.0686934
0.0403443
0.000176136
0.000187812
0.00014807
0.0105089
0.000150454
0.000152774
0.000168394
0.000169135
0.000145931
0.000180837
0.0532701
0.000149837
0.0149711
0.0583311
0.0770136
0.0106724
0.000162588
0.000251716
0.0001638
0.00016308
0.0376341
0.000147222
0.000158972
0.000146977
0.000149645
0.050467
0.000152124
0.0754029
0.000145879
0.000148751
0.0630314
0.000147948
0.0723709
0.000150586
0.000187757
0.000151965
0.000149166
0.0720654
0.000155477
0.000179536
0.000146972
0.000147237
0.000202285
0.000176648
0.000148274
0.000155876
0.000235159
0.000180475
0.00035633
0.000149722
0.000147555
0.000144673
0.000147659
0.000157219
0.000164351
0.000145377
0.0634834
0.000147364
0.000148141
0.000171259
0.0339842
0.00017807
0.000159737
0.000146247
0.000150966
0.000180272
0.000303655
0.000257397
0.0455773
0.000157698
0.000162897
0.000209046
0.000148401
0.000168561
0.0433391
0.000147408
0.000204924
0.0185466
0.000232509
0.000240074
0.0755581
0.000181381
0.000148809
0.00246616
0.000154875
0.000170904
0.000181653
0.000147515
0.000186879
0.000147506
0.000148156
0.000173217
0.0118477
0.000159066
0.000147432
0.000164207
0.0312499
0.000166654
0.0177759
0.000147679
0.0330929
0.000146013
0.000170223
0.000184732
0.00014782
0.0285625
0.000147718
0.000146738
0.000148666
0.000147931
0.0733689
0.000182158
0.000149656
0.0650747
0.000148437
0.0173417
0.000145962
0.015685
0.00016192
0.000185326
0.000152901
0.000147804
0.000145732
0.000148542
0.000219892
0.000175161
0.000148763
0.000169689
0.0148772
0.0802062
0.000171134
0.0530121
0.0331917
0.000147833
0.0300031
0.000146421
0.000206506
0.000147922
0.000148666
0.000149068
0.000176034
0.00339544
0.000203904
0.000182039
0.0500623
0.000188144
0.000184881
0.0398411
0.000147024
0.000172478
0.0161346
0.000144736
0.000172948
0.0152675
0.000204947
0.000147542
0.0510084
0.000165333
0.0176659
0.00251264
0.000156738
0.000182419
0.000155093
0.000147516
0.000145035
0.0281048
0.00019794
0.000179877
0.000196036
0.000147195
0.00181304
0.000159215
0.000144406
0.000149775
0.000176965
0.000153305
0.00014939
0.000149778
0.000216673
0.00014715
0.000163418
0.0243343
0.000145691
0.000147124
0.00141669
0.000146787
0.000161307
0.000158888
0.00017838
0.000321907
0.000147881
0.000181054
0.000159339
0.000169187
0.000157146
0.000153849
0.000168013
0.000214739
0.000170078
0.0416841
0.000166939
0.000148685
0.00020886
0.063038
0.000180993
0.000146337
0.000148213
0.000171523
0.000152397
0.057826
0.000201228
0.000158669
0.025519
0.000152074
0.000201268
0.0623652
0.000148173
0.000148753
0.000148355
0.000147773
0.00059952
0.000234954
0.000155433
0.000201247
7.89702e-05
0.000168502
0.000148737
0.000153613
0.000170974
0.000147456
0.000147001
0.00308264
0.000151286
0.000501525
0.000146694
0.000147823
0.000149798
0.000168059
0.00016115
0.000166462
0.000148531
0.000151653
0.0770163
0.0208035
0.00035622
0.000568
0.000153893
0.000150258
0.0786634
0.000182437
0.0145836
0.000162849
0.000147441
0.000172187
0.000155101
0.000149886
0.000146414
0.000167731
0.000181923
0.0458093
0.000181108
0.000240647
0.000148822
0.000150645
0.000148578
0.00018797
0.0214354
0.000200861
0.000417774
0.000147382
0.0561943
0.000151522
0.000147627
0.000152572
0.000149005
0.000183902
0.000147908
0.000182694
0.00014566
0.000379725
0.00015789
0.013148
0.000150153
0.000148841
0.000155429
0.000145993
0.000184558
0.000431961
0.0755047
0.000172139
0.000145442
0.077873
0.000163776
0.000147832
0.000167821
0.00014686
0.000153219
0.000144625
0.000181282
0.000153817
0.000177492
0.000172139
0.000146645
0.0729741
0.000145444
0.000155752
0.000149521
0.000152672
0.0001461
0.000147882
0.000161186
0.000149866
0.000154189
0.000145822
0.000152441
0.000304082
0.0580749
0.000149825
0.000171376
0.0791061
0.000147234
0.00014898
0.000158342
0.000187786
0.000147947
0.000174735
0.00188875
0.000150835
0.0664664
0.014826
0.000147923
0.000149894
0.000166731
0.000144293
0.00851974
0.0574047
0.0390225
0.000151621
0.00015946
0.00014483
0.00031188
0.000156099
0.000189964
0.000149585
0.000179507
0.0138976
0.000183656
0.000152948
0.00126784
0.0160205
0.0492968
0.00014967
0.000146573
0.0585657
0.000352694
0.000146632
0.000148576
0.000185992
0.000149795
0.000211704
0.000298239
0.000146141
0.000149885
0.00281689
0.000179702
0.000151017
0.000144339
0.00016474
0.000149329
0.000216882
0.000147327
0.000148938
0.000148126
0.000152463
0.000148327
0.00018327
0.000146933
0.000154358
0.0562449
0.0331885
0.0282461
0.000147099
0.000168909
0.000183476
0.000148745
0.000152982
0.000168947
0.000147171
0.000152008
0.0141675
0.000164263
0.000147988
0.000148376
0.000147722
0.0145997
0.0639674
0.000146759
0.000149734
0.000147734
0.000179053
0.0350807
0.000151792
0.000174029
0.000148887
0.000165419
0.000159243
0.000233977
0.00856473
0.000149155
0.000225043
0.0732425
0.000163196
0.000147639
0.000163435
0.000159157
0.000162163
0.000155254
0.000147865
0.000188905
0.0001553
0.000264909
0.000161662
0.000149083
0.000149557
0.055556
0.000148888
0.000160273
0.000206201
0.000161029
0.084124
0.0179985
0.000147582
0.000181586
0.000207371
0.000183936
0.000162281
0.000151973
0.000148313
0.00475779
0.000161472
0.000148009
0.00016772
0.000178824
0.000312723
0.0500985
0.000148305
0.000155678
0.00014921
0.000205645
0.000177559
0.000149184
0.000172416
0.000154257
0.000151278
0.000149189
0.017068
0.000177599
0.000147959
0.000152809
0.023674
0.000149717
0.000147907
0.000156801
0.00016525
0.000148144
0.000148994
0.000152499
0.0097203
0.000159846
0.000147592
0.000146867
0.000148541
0.000170652
0.000147823
0.000147482
0.000220478
0.0821041
0.00014753
0.000149741
0.000177315
0.000161721
0.000169192
0.000149027
0.018896
0.000147153
0.000150426
0.000159706
0.0848866
0.0256709
0.000192059
0.000169578
0.0609599
0.0211403
0.0270009
0.0348106
0.000153126
0.000147974
0.000146033
0.0001613
0.000147465
0.000147897
0.00014894
0.000176617
0.000147625
0.0285819
0.00016187
0.0672449
0.000148431
0.0573861
0.000148244
0.000156912
0.000145856
0.000150713
0.00016065
0.000260154
0.000148883
0.000146893
0.000153978
0.0626515
0.000147222
0.000168561
0.000149226
0.00016264
0.0145245
0.000178318
0.00047289
0.000158194
0.000208291
0.000148895
0.0440656
0.0121403
0.000147001
0.0682525
0.0250791
0.000147697
0.000144919
0.000167797
0.000160415
0.000167008
0.000145782
0.0351142
0.00015801
0.000172536
0.000145762
0.000147516
0.000157865
0.017789
0.00107488
0.0123627
0.000168305
0.0218146
0.000160516
0.0291071
0.00014846
0.000345201
0.000147645
0.000155666
0.000391908
0.0001511
0.000203309
0.000147575
0.000153125
0.0549283
0.00390423
0.000147586
0.000244795
0.000147849
0.0708555
0.000146602
0.0700421
0.0249122
0.000147865
0.03149
0.000156611
0.0396484
0.000147939
0.00015508
0.000150535
0.000173135
0.000147995
0.000237846
0.00014652
0.0705736
0.000182959
0.068254
0.000149084
0.000145874
0.000991647
0.000152264
0.000157519
0.000147532
0.000166892
0.000153253
0.000148151
0.0192833
0.000148526
0.000147446
0.000149542
0.000148724
0.0449805
0.000162686
0.000147501
0.0385097
0.000490503
0.000195224
0.00014731
0.00017876
0.000452567
0.000147683
0.000156385
0.000149819
0.000148166
0.000147491
0.000148256
0.000156498
0.000160098
0.0630988
0.000186365
0.000181412
0.000149836
0.000147537
0.0581431
0.000167142
0.000147381
0.000149843
0.0155538
0.0733076
0.000148214
0.0672096
0.000160826
0.000197762
0.000149842
0.0595694
0.000146149
0.000151904
0.000148571
0.000147024
0.000151487
0.0349973
0.000146129
0.0585247
0.000198345
0.000366066
0.00447241
0.000148587
0.000148311
0.0632731
0.00016667
0.00016859
0.000147817
0.000191139
0.00014897
0.0754104
0.0390637
0.0420846
0.000148564
0.0751697
0.0496657
0.061267
0.000193863
0.000153885
0.000180022
0.000147478
0.000240438
0.0670929
0.000160898
0.0452015
0.000146579
0.000148179
0.000167851
0.0017525
0.000161875
0.000590546
0.000147749
0.0526156
0.000169082
0.000163019
0.00014662
0.000163985
0.000181531
0.000148158
0.000168099
0.000167469
0.000209498
0.000145938
0.000147186
0.0491015
0.0466128
0.000152037
0.0354198
0.000160698
0.000147803
0.0647408
0.022145
0.000148557
0.000242949
0.000145948
0.000148688
0.000172226
0.0480383
0.000149242
0.0566427
0.000151706
0.00014784
0.0156952
0.000149378
0.000180064
0.000146837
0.000326598
0.000148042
0.0167888
0.000146805
0.000163275
0.000148267
0.000155304
0.000176696
0.0750796
0.000162178
0.0334677
0.000160506
0.0629535
0.0646867
0.0410155
0.000147022
0.0213283
0.0827133
0.0165936
0.000232099
0.000149681
0.000146909
0.000148463
0.00017155
0.000147942
0.000148984
0.000224239
0.00014957
0.0291539
0.00015088
0.0515355
0.000148048
0.000149492
0.000187936
0.000145251
0.000176378
0.000147335
0.000167764
0.000181059
0.0219662
0.000146577
0.000147633
0.0775266
0.0615345
0.000149598
0.000159514
0.000164371
0.000149973
0.00801335
0.0470131
0.0792584
0.000193627
0.0294901
0.0396176
0.000203855
0.000147113
0.000146436
0.00015048
0.000147424
0.000158389
0.0281402
0.066805
0.000148493
0.000152466
0.000151264
0.000729678
0.0612897
0.000577231
0.000543938
0.000148661
0.00051278
0.0620108
0.00015462
0.0446526
0.000172978
0.000148871
0.0700705
0.0352515
0.00654959
0.000149326
0.00015081
0.000166936
0.000241335
0.000147054
0.00014853
0.00014958
0.000146669
0.00014818
0.068763
0.000152096
0.000145753
0.0238298
0.00014861
0.0418831
0.000167933
0.0429542
0.000233387
0.000147689
0.0845165
0.000172947
0.000223568
0.000150286
0.000159866
0.000147941
0.000150784
0.0181521
0.000192605
0.000174071
0.000150346
0.000147365
0.000171723
0.000151815
0.000148312
0.000155127
0.000147429
0.0513554
0.000147831
0.0603136
0.0294168
0.000151312
0.000147705
0.0305677
0.000147007
0.000146976
0.0002263
0.000153129
0.000152189
0.000177254
0.000286163
0.0803105
0.000159701
0.000151482
0.000149169
0.0516218
0.021408
0.000160603
0.000167374
0.000147447
0.000147865
0.000152622
0.000146645
0.000187206
0.000161349
0.000148433
0.000149208
0.000148533
0.000147683
0.000148007
0.000147365
0.000324526
0.0309821
0.0510284
0.000206723
0.0234425
0.000188675
0.000153645
0.0262923
0.0181253
0.0309531
0.000148525
0.000147171
0.000462652
0.00563466
0.000205702
0.00020005
0.0536763
0.00014854
0.000147677
0.0514596
0.000146774
0.000191775
0.000192341
0.000150755
0.0141285
0.0569681
0.000149715
0.0154957
0.0272715
0.000173557
0.000207054
0.000149102
0.0435551
0.000251441
0.0709372
0.000146812
0.000164618
0.0202366
0.000147248
0.000169587
0.000147632
0.000171637
0.000148692
0.0311316
0.000153521
0.000148435
0.0001525
0.000149597
0.0395415
0.000168907
0.000148916
0.000149161
0.0602472
0.000147684
0.000152492
0.000175971
0.000190711
0.000149735
0.000165957
0.000162128
0.0001475
0.000195149
0.000147906
0.000147734
0.000158756
0.000147635
0.000163764
0.0621063
0.000208813
0.000147955
0.060483
0.0177135
0.00018607
0.0148325
0.000170078
0.000153176
0.0448108
0.000158177
0.000152345
0.000166511
0.000169552
0.000148406
0.000146663
0.000148641
0.000209679
0.0365081
0.080955
0.0627197
0.000146604
0.000154119
0.000175667
0.000176625
0.0482509
0.000148823
0.0619424
0.000149341
0.0212454
0.000145801
0.0392129
0.000150252
0.0657132
0.0269829
0.000183805
0.0543981
0.000164185
0.000146731
0.000166921
0.0116301
0.0683708
0.000156824
0.000149481
0.000147519
0.000148803
0.000159751
0.000149905
0.000151659
0.00014677
0.000176212
0.000147988
0.0672181
0.000149445
0.0427464
0.000145932
0.000193945
0.0645985
0.00015073
0.00704428
0.000147961
0.000156627
0.000148832
0.000149272
0.000147852
0.000186138
0.000185566
0.000146922
0.000152496
0.000147953
0.0588482
0.000161771
0.000228357
0.000206178
0.00014804
0.000173349
0.000151325
0.000150554
0.000161626
0.000148621
0.00016697
0.0729216
0.000148057
0.0595916
0.000155439
0.000147524
0.000146143
0.0283565
0.000147931
0.0767662
0.000177077
0.000149773
0.0176587
0.0001882
0.00724343
0.00015735
0.000153691
0.000148598
0.000174319
0.0618508
0.000148844
0.000166169
0.000148602
0.000189952
0.000368736
0.0214907
0.0743795
0.0490395
0.000157465
0.0199473
0.0001488
0.0448229
0.000225905
0.000157228
0.000238636
0.000179356
0.000145126
0.000162746
0.000147965
0.000146728
0.000152624
0.000147935
0.000428901
0.000266026
0.000195534
0.000972502
0.000148389
0.00167032
0.000148283
0.000147658
0.000169067
0.0587763
0.000146842
0.0394554
0.000168239
0.000188712
0.0217728
0.000149592
0.000168693
0.0279137
0.000162107
0.000148019
0.000188095
0.000147962
0.000148772
0.000149574
0.000271662
0.0601532
0.000155048
0.000148585
0.035499
0.0720947
0.00014928
0.000149536
0.000935291
0.0802021
0.000149053
0.000183948
0.000182841
0.00014733
0.000163361
0.000145934
0.0621338
0.00014772
0.0924909
0.0780399
0.0750355
0.000153772
0.000157787
0.000147608
0.000146557
0.0182042
0.000146944
0.0268151
0.0615522
0.000173893
0.000146795
0.000146109
0.000209407
0.000187462
0.000162738
0.0853029
0.000181496
0.00168508
0.000151951
0.0590364
0.00031619
0.000158579
0.000185863
0.0856327
0.0194411
0.000148564
0.00589767
0.000146208
0.00392108
0.000221565
0.000226978
0.000145471
0.000166637
0.000148626
0.000253611
0.0481575
0.000151324
0.000150516
0.0891951
0.0397851
0.00014818
0.0452867
0.0163255
0.000805958
0.000149394
0.082789
0.000148954
0.0136509
0.000148674
0.000151315
0.000149316
0.000148242
0.0263445
0.000438327
0.000146274
0.044147
0.0200864
0.000144616
0.000146078
0.000161465
0.000165739
0.000188325
0.000167367
0.0334776
0.0472726
0.0553367
0.084035
0.000187139
0.000150873
0.000193016
0.000182021
0.0191802
0.041982
0.0321831
0.00018627
0.000176672
0.000153473
0.0190385
0.000169192
0.000205009
0.000149164
0.00015419
0.0597751
0.000148543
0.000157476
0.000193769
0.000152873
0.000169431
0.000148367
0.000151484
0.0693065
0.000185128
0.000145925
0.000154086
0.043565
0.00012023
0.00016402
0.000288549
0.0171412
0.000168118
0.000202129
0.0442887
0.000150001
0.045007
0.000187111
0.0180832
0.000148889
0.000144305
0.0199246
0.0288759
0.0336989
0.0832478
0.0360413
0.000161541
0.000182518
0.000152132
0.0375449
0.000148012
0.000148041
0.000171761
0.000179125
0.000177243
0.0326406
0.0001505
0.000481249
0.0391903
0.000150327
0.000185173
0.000159301
0.000177055
0.000185278
0.000168662
0.034696
0.0422903
0.0384023
0.000301587
0.000162386
0.000147967
0.000151004
0.000159199
0.000371135
0.0331509
0.0384865
0.0292047
0.000163293
0.00014676
0.000221729
0.000167739
0.0598329
0.000148555
0.0172367
0.000168866
0.0391825
0.000148521
0.0351921
0.000174761
0.000181223
0.000426478
0.000146744
0.0206576
0.0312606
0.000146773
0.000179981
0.0495081
0.000150183
0.000239481
0.000152835
0.000151671
0.000149698
0.0609516
0.000169557
0.000251105
0.000160982
0.0743548
0.000146587
0.000144504
0.000147302
0.000148298
0.000147536
0.0804433
0.000186916
0.0400778
0.000149352
0.000146799
0.0798925
0.000160615
0.0314964
0.000185546
0.000148549
0.000231815
0.000157042
0.00016858
0.0412791
0.00015842
0.0221934
0.000209454
0.000155373
0.000145294
0.000180671