/*--------------------------------*- C++ -*----------------------------------*\
| =========                 |                                                 |
| \\      /  F ield         | OpenFOAM: The Open Source CFD Toolbox           |
|  \\    /   O peration     | Version:  v2012                                 |
|   \\  /    A nd           | Website:  www.openfoam.com                      |
|    \\/     M anipulation  |                                                 |
\*---------------------------------------------------------------------------*/
FoamFile
{
    version     2.0;
    format      ascii;
    class       volScalarField;
    location    "300";
    object      nut;
}
// * * * * * * * * * * * * * * * * * * * * * * * * * * * * * * * * * * * * * //

dimensions      [0 2 -1 0 0 0 0];


internalField   nonuniform List<scalar> 
18355
(
0.000540421
0.00633153
0.00607269
0.00672089
0.00314573
0.00139564
0.0067195
0.000548946
0.000971392
0.00699747
0.00673599
0.00537852
0.000423802
0.00561097
0.00288828
0.000940561
0.00191341
0.00672799
0.00288506
0.0140856
0.000637079
0.0016753
0.0128899
0.00351566
0.00182843
0.00672351
0.00672242
0.00105378
0.00931882
0.00398988
0.00450735
0.00248608
0.00672647
0.00673488
0.00026848
0.000553951
0.00140738
0.00012452
0.00103914
0.00673772
0.00537126
9.25619e-05
0.00564266
0.00397613
0.00679243
0.000122567
0.000451863
0.000828219
0.000440358
0.00672773
0.00672585
0.00592376
0.00672587
0.0136917
0.00672229
0.00672179
0.000790167
0.00295794
3.60413e-05
0.000214346
0.00672752
0.000920494
0.00672778
0.000241432
0.00661994
0.000601374
0.00090165
0.000263055
0.00672233
0.00179884
0.00031542
0.00672529
0.000178101
0.00672477
0.000545096
0.00671943
0.0080678
0.00229417
0.00152283
0.00623524
0.00671955
0.000266068
0.000628093
0.000256268
0.00672341
0.000375225
0.0050868
0.0141176
0.00894666
0.0132399
0.000651654
0.00679205
0.00672287
0.00672293
0.000286203
0.0128634
0.0055252
0.0014099
0.0135285
0.00137352
0.00215
0.00153718
0.000332203
0.000740182
0.00310701
0.00068717
0.00221992
0.000112862
0.000822752
3.00253e-05
0.0046122
0.00114886
0.00672343
0.00119473
0.0133019
0.00671959
5.44516e-05
0.00893774
4.86064e-05
0.000306111
0.0079985
0.000462981
0.00270179
0.000341932
0.00509906
0.000108158
0.0051986
0.00672553
0.000494417
0.00672168
0.00672558
0.000813396
0.0008387
0.00164158
0.000171237
0.00672539
0.0036832
0.00673585
0.00590076
0.000198419
0.00325426
0.0082725
0.00178842
0.00462522
3.47649e-05
0.00190097
0.000590221
0.00318339
0.00196609
0.00277194
0.00356085
0.00171818
0.000316361
3.69329e-05
0.00128477
0.0067257
0.00079542
5.30912e-05
0.00672562
0.000874168
0.000586246
0.0010372
0.000337638
0.00153381
0.00102102
2.26967e-05
0.00576156
0.000425507
0.000303601
0.00672628
0.00877265
0.0126008
0.00673038
0.00673341
0.000999863
0.00328944
0.000980587
0.00672264
0.000437742
0.00208077
6.86443e-05
0.000300217
0.00116468
0.00671901
0.000917771
0.00372982
0.0128231
0.000688259
0.000830167
0.00130328
0.000753289
0.00554938
0.00165384
0.00149762
0.000145356
0.0016212
0.000695109
0.00133717
0.000937626
0.00673232
0.00217662
0.000765386
0.00321631
0.0115453
0.000461462
0.000521787
5.11226e-05
0.0114915
0.0115795
0.00101078
0.00357228
0.00320158
0.0134076
0.0018837
0.00672576
0.000333761
0.00893997
0.0134761
0.00672348
0.00183761
0.000362216
0.00635097
0.000240178
0.00396081
0.00593456
0.00203164
0.0101253
0.00355886
5.05107e-05
0.00351097
0.00672572
0.00160698
0.000702456
0.0104962
0.00138975
0.00672345
0.00672286
0.000102766
0.000553517
0.00022354
0.000872896
0.000281706
0.00414061
0.00672608
0.00186129
0.00217764
0.00172768
7.06126e-05
0.00128686
0.000578403
0.00222799
1.57962e-05
0.00124453
0.0125328
0.0023919
0.00650484
0.0126104
0.000750112
0.00370023
0.00673215
0.000603016
0.00028397
0.00312
0.000817889
0.00671924
0.00672436
0.00672567
0.000295086
0.000156492
5.55511e-05
0.00131163
0.002377
0.000622207
0.000749723
0.00256244
0.000753424
0.00605602
0.00672279
7.81596e-05
0.00672548
0.00671952
0.000609626
0.00672593
0.00340922
0.00134568
0.000756882
0.00672875
0.000456933
0.00650693
0.00240506
0.00672025
0.00651066
0.00109175
0.0113199
0.0067256
0.00672586
0.00893547
0.00031954
0.00140266
3.58723e-05
0.00672243
0.000297334
0.00140188
0.00672564
3.66477e-05
0.000959197
0.000267396
0.00108237
0.00672197
6.91081e-05
0.0034538
0.00282369
0.000714056
0.00588022
0.000286524
8.85162e-05
0.00672275
0.00671997
0.000272221
0.000395018
0.0117255
0.00235216
0.000354763
0.00318782
0.00677691
0.000509258
0.00162161
0.000302381
0.000641212
0.00672094
2.04467e-05
0.00309155
0.0001585
0.00672206
0.00134657
0.00675066
0.00672569
0.00166585
0.000840029
0.00672269
0.000421534
0.000896024
0.00144653
0.0137903
0.000810717
0.00264002
0.00672789
0.0128062
8.89561e-05
0.00672312
0.00177039
0.00113069
0.000923023
1.74831e-05
0.0127789
0.00672261
0.00188158
6.33028e-05
0.00493089
0.00160289
0.000471733
0.00104617
0.00187419
0.000798209
0.00672582
0.000135245
0.000290556
0.000144529
0.00671979
0.00319533
0.00672735
0.00551275
8.68501e-05
0.00569798
0.000400889
0.00672659
0.000961538
0.00672266
0.000925024
0.00479689
0.00288746
0.00604175
0.00550608
0.00112541
4.81765e-05
0.00470102
0.00366738
0.00312686
0.000255493
0.0048287
0.00117128
0.000383724
0.00192367
0.00200196
0.00150249
0.0067197
0.00672334
0.00672253
0.0134578
0.00131912
0.00677173
0.000679707
0.000458515
0.00466092
0.00677804
0.0104397
0.0019111
0.00567321
2.36833e-05
0.00672422
6.33843e-05
0.0010552
0.000516923
0.000565227
0.00313799
0.00831926
0.006725
0.0067269
2.50865e-05
0.00672567
0.00672965
0.00138664
0.00672502
0.00754857
0.00118947
0.00100924
0.00162016
0.00158891
0.0067259
0.0070682
0.00145843
0.00858045
0.000961358
0.00672541
0.00671906
0.00176115
0.00728503
0.000181108
0.00277098
0.00672581
0.00207895
0.000111049
5.53432e-05
0.000525711
0.00203957
0.00672582
0.00104184
0.000669826
0.0118407
0.00671003
0.00286366
0.000110947
0.000132367
0.00585932
0.00405137
0.00672081
0.00672994
0.00354979
8.78528e-05
0.00672201
0.00676907
0.001002
0.000102086
0.000436171
0.01303
0.000100543
0.00233258
0.00447852
0.00505921
0.00454359
0.00671965
0.00672599
0.00672593
0.00672234
0.00923667
0.00243716
0.00672144
0.000337036
0.000226835
0.00672084
0.00254186
0.000119613
6.51919e-05
0.00106272
0.00547897
0.00118594
0.000797018
0.00501823
0.00161334
0.00549515
0.00109761
0.000210324
0.00672405
0.0124994
0.00578233
0.00861428
0.00527289
0.00595628
0.000734383
0.00130529
0.00179696
0.0029726
0.0068117
0.00214966
0.000165733
0.00672237
0.00118324
0.00781961
0.0128261
0.0141614
0.00226077
0.000558036
0.000611795
0.0100275
0.00158353
0.000653568
0.00216736
0.00510379
0.0067229
0.000184279
0.00672215
0.00647742
0.000580868
0.0136587
0.00407282
0.00214053
0.00672823
0.000269869
0.000407874
0.000658809
0.00672289
0.000934532
6.75508e-05
0.00138618
0.00369528
0.000815615
0.00136198
0.00672578
0.000702156
0.000990111
0.00139233
0.00017998
0.00162329
0.0067235
0.00672854
0.00672587
0.000458957
0.00193029
0.000823044
0.0046497
0.00315109
0.00609549
0.00672032
0.000239844
0.00133205
0.000140582
0.000725943
0.0135822
0.00222909
0.000282739
0.000527336
0.00076667
0.0132299
0.00561107
0.00550984
0.00138331
0.00139613
0.00532301
0.00672984
0.00191375
0.000412128
0.000314633
0.000133888
0.00868595
0.000961623
0.00672097
0.0118376
0.00113745
0.00262504
0.00673078
0.000233649
0.0127353
0.000595023
0.00672461
9.66661e-05
0.000177912
0.000269873
0.000301908
3.01011e-05
0.0015606
0.00062157
0.00269518
0.000634954
0.00110242
0.000125814
0.000106547
0.00123873
0.00672097
0.00252073
0.00419733
3.75071e-05
3.38273e-05
0.00501018
4.52563e-05
0.00912658
0.00198225
9.26079e-05
0.000889643
0.00363449
0.00695937
0.00673745
5.28861e-05
0.00187872
0.00273291
0.000496491
0.00671984
0.00156226
0.00160818
0.00136794
0.000513591
0.00595026
0.000278183
0.00102461
0.000714626
0.0106511
0.00516507
0.000392118
0.0141589
0.00672478
0.00176368
0.0127736
0.00671787
0.000951384
0.00672121
0.0032213
0.00134927
0.00120183
0.000296197
0.000914275
0.00130038
0.000656473
0.00286683
0.00150215
0.0044969
0.0029565
0.0011867
2.14085e-05
0.00228299
0.00023973
0.000597438
0.00520804
0.00672469
0.00496197
0.000728736
0.000843355
0.00672506
0.00122889
0.00236822
0.00760453
0.000446413
0.00105666
8.8134e-05
0.00113778
0.00672048
0.00672477
0.000681433
0.00013639
0.00675865
0.00403948
0.000461721
0.000318849
0.0068124
0.0125106
0.0103214
0.00371245
0.00673603
0.00155295
0.00672516
0.00672465
0.00317413
5.04761e-05
0.00158664
0.00672981
0.00106666
0.000448109
0.0014823
8.91758e-05
0.0030735
0.00918545
0.000970632
0.00213475
3.5785e-05
0.0125031
0.00671965
0.007201
0.00672093
0.00672431
0.00174374
0.00020935
0.00992025
0.000737063
0.0034125
0.00037925
0.0119109
0.000126429
0.00123526
0.00829677
0.00304827
0.00719295
0.00256057
0.00321608
0.0063806
0.00225773
2.81132e-05
0.000813551
0.000528099
0.0066443
6.4002e-05
0.00938613
0.0067222
0.0136706
0.0051181
0.00391886
0.00346331
0.000532365
0.00135349
0.00672749
0.00672336
0.001074
0.00160866
0.00224327
0.00671899
4.49319e-05
0.0011973
0.00672719
0.00672278
0.00040802
0.000811706
0.00769322
0.000719739
0.00679148
0.000690196
0.012665
0.000585581
0.00574087
0.00672865
0.000588439
0.000965682
0.00120151
0.0053794
0.000104637
0.000136935
0.000840193
0.00839625
0.00105623
0.00671835
0.00101107
0.00539552
0.00209823
0.00129997
0.00321735
0.00671878
0.00520274
0.00676081
0.00715746
0.000993219
0.00504117
0.000455523
0.000609836
0.012598
0.00323983
0.00672065
0.00581169
0.0128805
0.00217481
0.0126454
0.00809968
0.0108517
4.08548e-05
4.1301e-05
0.00506879
0.00119812
0.00672364
0.00672565
0.00292165
0.00187981
0.00672297
0.0017879
0.00725611
0.000577656
0.00261157
6.03656e-05
0.00671809
0.00110299
0.000408757
0.00672233
0.000681947
0.00159352
3.43076e-05
4.69557e-05
0.000342037
0.0104521
0.000120086
0.00143805
0.000119095
0.0124211
0.0128627
0.000952609
7.85985e-05
0.000938401
0.0024887
0.00531625
0.00672615
0.0067196
0.00152569
0.0133814
0.00672531
0.00672581
0.000370366
0.00671778
0.000214302
0.00022396
0.00672433
0.00481781
0.00472484
0.00541628
0.00100212
0.00672444
0.000223606
3.18139e-05
0.0024409
0.00283481
0.00672635
0.000113523
0.00671915
0.00131594
0.000100718
0.00622617
0.0116417
0.0027771
0.0127993
0.00181714
0.00115758
0.00672214
0.00100575
0.00043352
0.0067237
0.00240441
0.0127637
0.00587766
0.00199928
0.00257326
0.00133578
0.00672192
0.00672209
0.00672498
0.00326348
0.00672849
0.0126194
0.000662698
0.000313233
0.00529504
0.00673895
0.00657572
0.0118135
0.0127649
0.000624043
0.00672062
0.00477941
0.00672551
0.00259246
0.000145128
2.73701e-05
0.000941261
0.00390943
4.82387e-05
0.00819891
0.000238996
0.00396373
0.00279045
0.00924975
0.000452085
0.00672204
0.00228525
0.0124297
0.00672213
0.00367315
0.000102903
0.00672527
0.000450064
0.00675152
0.000931213
0.000825299
0.00671761
0.00671902
0.00271932
0.00449271
0.00672451
0.000928633
0.00525643
0.00242736
0.00672509
0.000136428
0.0072035
0.00103445
0.0124873
0.00151516
0.00672474
0.000846641
0.00230872
3.68823e-05
4.24858e-05
0.00675207
0.000279031
0.0032693
0.0119952
0.00674128
0.0045657
0.000134771
0.00359479
0.00672376
0.00671819
4.178e-05
0.00571564
0.0031862
0.0042377
2.80422e-05
0.00672536
0.00672438
0.000743757
8.45558e-05
0.00459171
0.000676537
0.0024499
0.00155361
0.00456012
0.00675923
0.00672596
0.000386347
0.00186144
0.0130951
0.00107775
0.0123917
0.00491791
0.00672514
0.000171802
0.0125714
0.00646257
0.0017767
0.00599008
0.00470353
0.000766693
0.00137978
0.000263729
0.00643784
0.00700597
0.00673437
0.000765229
0.00672252
0.0052396
0.00672552
0.0139421
0.000576348
0.00804146
0.000229151
0.00157584
0.000999698
0.00671983
0.00671945
0.00671795
0.00106331
0.000222966
0.00381746
0.000578225
0.000278541
0.00672055
0.00130008
0.00057112
0.00199774
0.00106396
0.0010542
0.000279213
0.00445786
0.00119038
0.00635246
0.00103346
0.00151106
4.41655e-05
0.00648466
0.00584689
0.000462152
0.000176663
0.00515708
0.000927903
0.000393362
0.00351109
0.00180326
3.2622e-05
0.000224824
0.000363793
0.00050683
0.00672238
7.58095e-05
0.00394487
0.000804045
0.0034218
0.00672249
0.012369
0.00106144
0.00159722
0.00689636
0.0051106
5.91036e-05
0.00239677
0.00673157
0.000139786
0.0035232
0.00126817
0.00555011
0.00411196
0.00183131
0.00151673
0.00146247
0.0131925
0.0025151
0.000591047
0.00498159
0.00673256
0.00105702
0.00199282
0.00135007
0.000489751
0.00158827
0.00671771
0.00672498
0.0014659
0.00673429
0.00672153
0.0068998
0.00672572
0.00159977
0.00672021
9.80445e-05
0.00672298
4.95633e-05
2.84788e-05
0.00273636
0.01033
0.00671907
0.00142199
0.00443711
0.00886378
0.000487403
0.00671773
0.00672085
0.00252633
0.00604032
0.000545002
0.0100324
0.00285277
0.00511918
0.00672402
0.00154268
0.00105568
0.00206954
0.00674164
2.35371e-05
0.0088296
0.000955733
0.00367774
0.003982
0.00672455
0.00672396
0.00953933
0.00150219
0.00858079
0.000992562
0.00397296
0.00899592
0.00204508
0.00022226
0.00672455
0.00135233
0.00554755
0.000375202
0.000290165
0.00116472
0.00672256
0.00456927
0.00122812
0.00671772
0.00674481
0.00325253
0.00580416
0.00296356
0.00935888
0.00185651
0.00172031
0.00240801
0.00123492
0.0128564
0.00671772
6.88867e-05
0.00111967
0.00671784
0.000915196
0.00153245
0.00672164
0.00500145
0.00672292
0.00437046
0.0011285
0.00672205
0.00155362
0.000359039
0.00672241
0.000380927
0.00112058
0.010873
0.00532551
0.0056789
0.000746309
0.000345207
0.00820641
0.0130911
0.00679447
0.00185006
0.0067208
5.03895e-05
0.0124652
0.000267815
0.000784771
0.0067245
0.00423662
0.00672303
0.00180241
0.00158868
0.00293904
0.00096424
0.000688217
0.00672268
0.00672482
0.00672345
0.0051972
0.000429324
0.00492757
4.78263e-05
0.00672139
0.000714719
0.00255063
0.000279097
0.000703654
0.000456404
0.00100435
5.3025e-05
0.00674211
0.00671796
0.000192886
0.0067225
0.00672111
0.00107102
0.00107414
0.00672299
8.56935e-05
0.0067219
0.00538882
0.00672298
0.00625413
0.00555318
0.000459313
0.00118639
0.00244728
0.00951851
4.50651e-05
0.00672237
0.000251088
0.000959898
0.00392431
7.83898e-05
0.0111684
0.000278912
0.000956097
0.00129672
0.000846288
0.00013569
0.00706003
0.00671941
0.00672355
0.00571204
4.69924e-05
0.00199211
0.00263204
0.00507425
0.00234026
0.0124959
0.000477501
0.00151645
7.20104e-05
0.00671968
0.00110867
0.00024783
5.09846e-05
0.00672328
0.000285305
0.000233087
0.000612428
0.0139988
0.00672547
0.00593958
0.00672085
0.000144566
0.00671889
0.00671898
0.00660218
0.000148783
0.00115889
0.00407906
0.00962791
0.000813085
0.00195904
0.00390918
0.00672568
0.00673655
0.000641388
0.00745214
7.43304e-05
0.00113057
0.000291084
0.00103535
0.00596445
0.00232522
0.00522863
0.00393212
0.000968428
0.000108636
0.00815138
0.00062258
0.00134594
0.00585811
0.00672092
0.00387482
0.000217215
0.000110047
0.00672383
0.0067253
0.00672366
0.0067181
0.00671863
0.000408516
0.000141788
0.0135634
0.000684564
0.000544153
0.00205718
0.000695222
0.00930836
0.00288754
0.00154182
0.0067186
0.00492107
0.00880248
0.000203363
0.00193966
0.00472831
0.00237411
0.00174528
0.000670719
0.00109274
0.000118308
0.00674253
0.00146193
0.0104478
0.0067259
0.000544482
0.00293603
0.0118576
0.000401407
0.000477261
0.000590837
9.91249e-05
0.00010438
0.0072757
0.00513365
0.000307399
0.00677947
0.00672518
0.00773539
0.00274753
0.0127631
0.00672257
0.00679628
0.0132333
0.0042328
0.00479438
0.00164871
3.11168e-05
0.00188647
0.0067236
0.0127686
0.00189802
0.00135449
0.00671881
0.00558974
0.000995285
4.06415e-05
0.00672206
0.00039218
0.000194843
0.00103334
4.61564e-05
0.00672549
0.00672298
0.00672131
0.00644285
0.00156938
0.000108318
0.00672026
0.0103811
0.00673395
0.0067216
0.000303467
0.00533163
8.13915e-05
0.00131712
0.00671801
0.00337329
0.000446951
4.127e-05
0.000130017
0.00373517
0.00159418
0.000444785
0.00067006
0.00469672
0.000280931
0.00954918
0.00671855
0.000360722
0.00398716
0.000688185
0.000690294
0.0126921
0.00126419
0.00243876
0.00106008
0.00059498
0.00116252
0.00012231
0.00468651
0.000373875
0.00674512
0.0037187
0.000920027
0.00149848
0.000263689
0.00671906
0.000350174
0.0040554
7.6252e-05
0.00520689
0.00597226
0.00599693
0.00674419
0.00014847
0.00025636
0.0050071
0.00506666
0.00490774
0.00671853
0.00258554
0.00348104
0.0128722
0.00161698
0.00672529
0.0125142
0.0067224
0.0026983
0.00673891
0.00692914
0.000121989
8.61497e-05
0.000680666
0.00436147
0.00672199
0.00672857
0.000430354
0.000108315
0.00672237
0.00103432
0.00500783
0.0128325
0.00116903
0.0122741
0.00506195
0.00439613
0.00366977
0.00671968
0.000867344
0.00672191
0.00250236
0.00394657
0.000355517
0.000902316
0.000998108
0.00025456
0.00979085
3.2752e-05
7.09052e-05
0.00830807
0.00672129
0.000198612
0.00186792
0.00672065
0.000861971
0.00285075
0.000420489
0.00611054
0.012279
8.71267e-05
0.00823353
0.000785133
0.000955973
7.42831e-05
0.00154642
0.00449407
0.0067188
0.00557588
0.000306934
3.45314e-05
0.000301579
0.00671908
0.000747965
0.000263164
0.00671465
0.00154925
0.000719907
0.00158103
0.00672434
0.00672581
0.000196471
0.00672017
0.000262218
0.00228211
0.00671932
0.00672024
0.000662412
0.00671787
0.000153743
0.00155898
0.000129835
3.92456e-05
0.0043813
0.000983903
0.00129768
0.000116103
0.0009135
0.00103036
5.98821e-05
3.04715e-05
0.000421177
0.00716374
6.41744e-05
0.00270064
0.000725968
0.01422
0.00147321
0.00671798
0.00672185
4.68044e-05
0.0027922
0.00701012
3.0604e-05
0.00101249
0.0104027
0.0015041
0.00030819
0.0131411
0.00336105
0.00672232
0.00672195
0.00671937
0.000501755
0.000456088
0.00153979
0.000350403
0.000230594
0.000413017
0.00292767
0.00188265
0.0003011
0.00672167
0.00672127
0.000964257
0.00257452
2.5378e-05
0.00672218
0.00671992
0.00672571
0.000123701
0.000266358
0.00055234
0.00258167
0.00201284
0.012821
0.00683646
3.99752e-05
0.000141085
0.000536069
0.00243103
0.0123123
0.000357314
0.00265382
0.000101658
0.00655851
0.000453584
0.000577605
0.00251423
0.00671806
5.72979e-05
0.00153839
0.00900037
0.000390725
0.000740024
0.00239886
0.00130248
0.00445433
0.00189905
0.00205729
0.00107945
5.58234e-05
0.00602955
0.0111273
0.00258711
0.00671952
0.000978362
0.00211438
0.000213823
0.00544758
0.00166191
0.00671967
4.31837e-05
0.000245634
0.00201305
0.0025718
0.00361035
0.0019389
0.00672422
0.000691879
5.16818e-05
0.0126475
0.000520642
0.00672376
0.0117721
9.39345e-05
0.00496682
0.000164111
0.00624083
0.00149327
0.00671972
0.000179265
0.00101548
0.00046661
0.000515612
0.00673842
0.00504511
0.00672314
0.00153215
0.00158274
0.0013483
0.00671779
0.00346638
0.00101987
0.00672599
0.000941985
0.00672257
0.00119561
4.4142e-05
0.01147
0.00146276
0.00104866
0.0119507
0.00671815
0.00672351
0.000435511
0.00191602
0.00335281
0.000589942
0.000762201
0.00118497
0.0132875
0.00456975
0.00485723
0.00188411
0.00016784
0.00672133
0.00212317
0.013121
0.00771181
0.00202102
0.00127764
0.00673767
4.36133e-05
0.000404353
2.91043e-05
0.00672509
0.000121124
0.00156046
0.0010933
0.00185649
0.000501516
0.00203035
0.0100479
0.001564
0.00673692
0.00804416
4.27356e-05
0.00672294
0.00672235
3.0297e-05
0.00174481
0.000466236
3.91275e-05
0.0067224
0.00173334
0.000935319
0.00134659
0.00261309
0.00671433
0.000351701
0.00173058
0.000362951
0.00673224
0.00289946
0.00342138
0.00268294
0.00672198
0.000261771
0.00574761
0.000640971
0.0135509
0.00673409
0.0034536
0.00639433
0.000119473
0.00111381
0.00254859
0.000704567
0.0011185
0.00671795
0.000930564
0.00255818
0.000134844
0.00421855
0.00317559
0.00542703
0.00267796
0.0135782
0.00663517
0.00278661
0.00671972
0.00117107
0.00588918
0.000748951
0.000226319
0.00672349
0.000115462
0.00150764
0.000525749
0.000751036
0.00205185
0.000262553
0.0128783
0.000311857
0.00676532
0.000282383
0.000981762
0.000185563
0.000647635
0.00499251
0.00116109
0.000440213
3.77336e-05
0.000181839
0.00209571
0.00263879
0.0128477
0.00224374
0.00685238
0.000787168
0.000148692
0.0109214
0.00830322
0.00512696
3.65961e-05
0.000293207
3.72556e-05
0.000156216
0.000941955
0.00672222
0.00120513
0.00013178
0.00475997
0.000119464
0.000908077
3.57011e-05
0.00908631
0.00672176
0.000411841
0.00170145
0.00102045
0.000173776
0.00672378
0.000331725
0.000562586
0.000915342
0.00672356
0.00171868
0.000430049
0.00462909
0.00145263
0.00382691
0.00672542
0.00672018
0.00121786
7.73736e-05
0.00327495
0.00672309
0.00149895
0.00118569
0.000774439
0.00443076
0.00672627
0.00467174
5.03374e-05
0.00672073
0.00672121
0.000568841
0.0117496
0.00485442
0.00672558
0.00123882
0.00135269
8.43096e-05
0.00260605
0.00745259
0.00671795
0.00133612
0.000980517
0.0126103
0.00225006
3.99882e-05
0.00104939
0.0109065
0.00950993
0.00284081
0.00581365
0.000966663
0.00438566
0.00673309
0.000188367
0.00665957
0.00495158
0.00679751
5.04379e-05
0.00470631
0.00401264
0.000908687
0.0131549
0.00455925
0.0124965
0.00342619
0.000681605
0.00672379
0.00132042
0.000164974
0.000381204
0.00232925
0.00672292
0.000937956
0.0133484
0.00672006
0.00105423
0.00672379
0.000360696
0.00260542
3.53959e-05
5.94954e-05
0.000437263
0.000484398
0.00273873
0.00942746
0.00114923
0.00671784
0.0129176
0.0100139
0.0049337
0.00673326
0.00042486
0.000734922
0.000428825
0.00671918
0.00551386
0.000231322
0.00037819
0.00674375
0.00671881
0.00159118
0.00320781
0.00051018
0.00218412
0.000606669
0.00372031
0.000187405
0.00262993
0.00366455
3.82442e-05
0.0067194
0.000648236
0.000294457
0.0010417
0.000274369
0.00494678
0.00085464
0.00901279
0.000950662
0.00671903
9.73023e-05
0.00672006
0.0128134
0.00672408
0.0127343
0.00479762
0.00487206
0.00516154
0.000747654
0.00727391
0.0058952
0.000672982
0.00115369
0.000168733
0.00672045
0.000278312
0.00671949
0.0110211
0.000696287
0.0127474
0.00673534
0.00672482
0.000520846
0.00217917
0.000281805
0.00582188
6.39467e-05
0.000926012
0.00413586
0.0065401
0.00274879
0.00672157
0.00250846
0.00233737
0.0104663
0.00037162
0.00671881
0.00696537
0.000106645
3.01054e-05
0.00679312
0.000249911
4.46973e-05
0.00436803
0.00122043
0.00238692
0.00672167
0.00671917
0.00382207
0.000663281
0.00133026
0.0114869
4.20058e-05
5.30742e-05
0.00672585
0.00672099
0.0133936
0.00119512
0.00672239
0.00250871
0.00381207
0.0128534
0.00337506
0.0129958
0.000228709
3.31413e-05
0.00672586
0.0107629
0.00671825
0.00276592
0.00672217
0.00671779
0.000915642
0.00558876
0.00672292
0.0122136
0.00032555
4.36924e-05
0.00138269
0.00672232
0.00326903
0.0135233
0.000119491
6.07406e-05
0.00672611
0.000841987
0.00220112
0.0128344
0.00712935
0.00905808
0.00673105
0.0124146
0.00365062
0.0138371
3.44919e-05
0.00052251
0.000146943
0.0052103
0.000605298
0.0130232
0.00134358
0.0104909
0.00671783
0.00672275
0.000127735
0.000675934
0.000244907
0.00046555
0.00671954
0.00575563
0.00108743
0.000115852
0.00671922
0.000370815
3.86405e-05
0.00672291
0.00103907
0.000610714
0.000921728
0.00676219
0.00672019
0.0108859
0.00879903
0.000926816
0.0070955
0.000199418
0.00672062
0.00733198
0.00231296
0.0067226
0.000274795
0.00672421
0.00673578
0.00099735
0.0101231
0.00195195
0.0100412
0.00117888
0.00497809
0.00294382
0.00292173
0.00138408
0.00671832
4.25716e-05
0.00672205
0.00315416
0.00670355
0.000101271
0.00482374
0.000399212
3.86633e-05
0.0128495
0.000115594
0.00395612
0.0013401
0.0138517
0.00740794
0.00900408
0.00672194
0.0021628
0.00738295
0.00451301
0.000758301
0.00158475
0.00672307
0.00392342
1.75268e-05
0.0045083
0.00349134
0.000508857
0.0067249
0.00362001
0.00135133
0.00713635
0.00378654
0.00672473
0.00177191
0.0067384
0.00133441
0.00632389
0.000112909
0.000276764
0.00885304
0.00671947
0.00560108
0.0128441
0.0039471
0.00672514
0.000639661
0.000823593
0.00162272
0.00111112
0.00900454
0.0128206
0.0003038
0.00587065
0.00755962
0.00100233
0.00671798
0.00671989
0.00132327
0.00671943
0.000250075
0.00394902
0.00893534
0.006722
0.0012124
0.0025989
0.000442321
0.00692161
6.91645e-05
0.000177953
0.00253557
0.000169813
0.0112879
0.000438215
0.00999001
0.000973626
0.00276984
0.0128435
0.00684618
0.00117322
0.00672414
0.00139271
0.000434538
0.000472106
0.00673313
0.00280103
0.0067249
0.00671894
0.00672291
0.0102899
0.000988581
0.00671953
0.00258513
0.00672241
0.00738671
0.000593491
0.00770782
0.000702529
0.00671939
0.0126581
4.54907e-05
3.40778e-05
0.001305
0.0012937
0.00672054
0.00103479
0.00263646
0.00150561
0.000217075
0.00242243
0.00671954
4.62511e-05
0.00155446
0.0067224
0.00041437
0.00672154
0.0110818
0.00671978
0.0108509
0.00350069
0.000935439
0.00671955
0.00378998
0.00672187
0.00678113
2.20673e-05
0.000856083
0.00118366
0.000253878
3.54743e-05
0.0126458
0.000340086
0.000898937
0.002046
0.0102868
0.00871795
0.00685814
0.00119941
0.00636646
0.00508406
0.00116812
0.00675475
6.57502e-05
0.00135118
0.00289278
0.00254826
0.00672256
0.00475368
0.00474904
0.00672607
2.833e-05
0.00558882
0.00602167
0.000183065
0.00503798
2.92018e-05
0.000941384
0.00487212
0.00431599
0.0064232
0.00672234
0.00679107
4.0685e-05
0.00107975
0.000114185
0.000201188
0.0067224
0.00672213
0.0063407
0.0124224
0.00671889
0.00153876
0.000314726
0.00267265
0.0013187
0.0130925
0.00672542
0.00124208
0.00379608
4.35355e-05
3.92026e-05
0.00203272
0.00943571
0.000325283
0.011918
0.0067183
8.19432e-05
0.00652071
0.00671916
0.00111757
0.00640044
0.00053886
0.00253001
0.00477289
0.000185761
0.00303709
0.00209175
0.0015329
0.00780105
0.000636078
0.00232628
0.00203837
0.0114223
0.00580007
0.00209696
0.000133046
3.60796e-05
0.00163082
6.82093e-05
0.000108545
0.00672129
0.000827065
0.00338452
0.00672793
0.00155293
0.00672141
0.00130892
0.0126411
0.000958845
0.00672498
0.00380934
0.00488028
5.4027e-05
0.00195833
0.00111072
0.0020354
0.00829864
0.0015592
0.000720325
0.000295111
0.000145943
0.00471506
0.00675163
0.00672237
0.000120989
0.00708359
0.0123792
0.0136504
0.00671775
0.000526349
0.000257485
7.26368e-05
0.00928327
0.00672239
0.0127699
0.00192312
0.0026289
0.00675898
0.00742348
0.00123639
0.00428236
0.00364683
0.000587668
0.0110688
0.000103826
0.00671922
6.5159e-05
0.00208964
0.00436296
0.00118929
0.00163494
0.00671895
0.00237774
0.000923963
0.00672617
0.000980657
0.00672531
0.000735867
0.00672403
0.0129958
0.00672441
0.00905746
0.0067324
0.00142506
0.00595997
0.00106414
0.00168334
0.00672064
0.000711631
0.0025104
0.00672391
0.00450961
3.38751e-05
9.61477e-05
0.00673942
0.0007095
0.00569659
0.0140174
0.00103369
0.000265601
0.000712599
0.00488971
0.000884482
0.0027642
0.00122006
0.000119838
0.00672251
0.000210503
0.00664763
0.00672099
0.0127596
0.000506773
0.00594793
0.00672743
0.00280086
0.00672607
0.0120441
5.44434e-05
0.00672562
0.00490414
0.000391779
0.00160836
0.00158667
0.000682957
0.00672275
0.000389635
0.0138533
0.00672338
0.000324141
0.00280009
0.000762026
3.87801e-05
0.00927041
0.00992222
0.00220948
0.000481074
0.00726035
0.00231546
0.00961565
0.000302038
0.00119848
0.000307957
0.00133549
0.00672714
0.00014047
0.00672437
0.00652867
0.000756633
0.00474756
0.000355425
2.35382e-05
0.000790968
0.000661016
0.00672146
0.000496636
0.00672181
0.00672138
0.000629211
0.0117689
0.00616366
0.00721743
5.86116e-05
0.00132532
0.00336304
0.00282682
0.000463867
0.00401509
0.000170344
0.00339119
3.33076e-05
0.00513493
0.00672241
0.00672496
2.4449e-05
0.00490875
0.000919846
0.00672249
0.00687952
0.00545185
0.0017966
0.00672507
0.000562885
0.0111423
0.00206438
3.23432e-05
0.000209985
0.00673116
0.00132895
0.00672492
0.0127161
0.0067197
0.00760188
0.0102654
0.0120716
0.000917579
0.000300586
0.00531515
0.00672191
0.0055562
0.0067257
0.00323415
0.0140346
0.000220475
0.00671857
0.00673706
3.31232e-05
5.36244e-05
0.000103067
0.00846155
0.000305815
0.000763097
0.00225151
0.0115057
2.41036e-05
0.00151522
3.13838e-05
0.0119343
0.00858676
0.00273689
0.00082369
0.00672541
0.00133554
0.000576527
2.38963e-05
0.0067255
0.000460722
0.00672283
0.000136025
0.0108262
0.00284206
0.00129576
0.00783935
0.00840056
0.00320297
0.00912503
0.0040679
0.000622511
0.00672453
0.0124147
0.0067236
0.00205755
0.00672299
0.00266274
0.00672412
0.00356346
0.00334683
0.000417719
0.00673526
0.0101693
0.00349374
0.00671481
0.0067357
0.000186528
9.44682e-05
0.00097795
0.00029632
0.00124676
0.01085
0.0109994
0.0115806
0.00133494
0.00101546
0.00143839
0.000205031
0.00367939
0.00806534
0.00536808
0.00209782
0.00116597
0.00103648
0.00328276
9.05702e-05
0.000281373
0.00672359
0.000688338
0.00519654
0.00672247
0.000508788
2.92056e-05
0.00113193
0.000741946
0.00315369
0.00159771
0.0124308
3.25623e-05
0.00674478
0.000697238
0.00381107
0.000320962
0.00132093
4.17445e-05
0.00559488
0.000477138
0.00115162
0.00897585
0.00131809
0.00864868
0.00193914
0.00701666
0.00672296
0.00672004
0.00560649
0.00582479
0.00637346
0.00972345
0.00755423
0.000224641
0.000725453
0.000848782
0.00756879
0.00423645
0.00672058
0.000946685
0.000405616
0.00016621
0.00527027
0.00116748
3.9054e-05
0.00740901
0.00373426
0.0007646
0.00685309
3.91944e-05
0.000200075
0.000763369
0.0061135
0.00813661
0.00805882
4.18895e-05
0.000820501
0.00474909
0.00261685
0.00133911
0.000409336
0.00470074
0.00701335
0.00326936
0.000117275
0.00673095
0.000563685
0.000693088
0.0117973
0.00672247
0.00145142
0.00024292
0.00661538
0.00672203
0.00713187
0.000175483
0.00129546
0.000432098
0.00660405
0.00997075
0.00523597
0.00672593
0.000297465
0.0100047
0.00258615
0.000546493
0.00243164
0.0018392
0.00672544
0.0141246
0.000514089
2.46624e-05
0.00134302
0.00800071
0.0067409
0.00671519
0.00672973
0.00672088
0.00671921
0.00830631
3.09636e-05
0.00740125
0.00672416
0.00645719
0.00929716
0.0013399
0.00618434
0.00218576
0.00678074
3.5946e-05
0.000298104
0.00115036
0.00686927
0.00153483
0.000571299
3.41096e-05
0.000411053
0.00672065
3.45981e-05
0.00671794
2.88286e-05
0.00289859
0.00108781
0.00673283
0.00422903
3.73478e-05
0.00672248
0.0104621
0.00672274
0.00663266
0.0120987
0.000465253
0.000730013
8.64807e-05
0.000717856
0.00682151
0.0067656
0.00514721
0.000347818
0.00055846
4.17245e-05
3.3166e-05
0.00238369
0.000546885
0.000178179
0.00309623
0.00107406
0.00718036
0.000616667
0.00502234
0.00195977
0.0067247
0.00189236
0.000193614
0.00817036
0.00672024
0.00110716
4.65024e-05
0.00556679
0.00302155
0.00672235
2.77269e-05
0.0065988
0.00331556
0.00672612
3.78498e-05
0.0131036
0.000992358
0.000334622
4.24507e-05
0.00924076
0.00101678
0.00107947
3.31833e-05
0.00064257
0.0012435
0.000509206
0.00672252
9.66954e-05
0.0137711
9.31079e-05
0.00116437
0.00375551
0.00149635