/*--------------------------------*- C++ -*----------------------------------*\
| =========                 |                                                 |
| \\      /  F ield         | OpenFOAM: The Open Source CFD Toolbox           |
|  \\    /   O peration     | Version:  v2012                                 |
|   \\  /    A nd           | Website:  www.openfoam.com                      |
|    \\/     M anipulation  |                                                 |
\*---------------------------------------------------------------------------*/
FoamFile
{
    version     2.0;
    format      ascii;
    class       surfaceScalarField;
    location    "300";
    object      phi;
}
// * * * * * * * * * * * * * * * * * * * * * * * * * * * * * * * * * * * * * //

dimensions      [0 3 -1 0 0 0 0];
oriented        oriented;


internalField   nonuniform List<scalar> 
27274
(
0.131158
0.0317234
-0.162881
0.00921048
-0.00490059
-0.00430989
0.228932
-0.309731
0.0808008
-0.320038
0.517301
-0.197256
0.289903
-0.244103
-0.0457991
0.136477
-0.123107
-0.0133692
0.360777
-0.417388
0.0566162
-0.165391
0.0798229
0.0855676
-0.143777
0.153113
-0.00488096
0.000500187
0.00438077
0.433881
-0.212215
-0.221662
-0.0131998
0.0152662
-0.00206642
-0.0373093
0.0936296
-0.0563203
0.217913
0.0933159
-0.311229
-0.0582309
0.283555
-0.225323
0.0345922
0.1474
-0.181992
-0.00850606
-0.00249605
0.0110021
0.0410036
0.247798
-0.288798
-0.295696
0.249121
0.0465762
0.0377274
-0.0234882
-0.0142392
-0.11828
0.164603
-0.0463235
-0.0376684
-0.143931
0.181599
0.000313323
-0.00672979
0.00641647
0.257031
0.0328726
-0.225075
-0.0252769
0.372846
0.0383992
-0.411243
-0.422266
0.171429
-0.156942
0.164991
-0.00804822
0.00241425
-0.00252092
0.000106676
-0.215251
-0.0581133
0.273365
0.139785
-0.269036
0.129253
-0.273243
0.110351
0.162892
-0.291868
0.332877
0.209114
-0.529422
0.320322
-0.0510725
-0.0798874
0.13096
0.165963
-0.0348059
-0.215795
0.0821233
0.0650837
-0.109885
0.0448014
-0.200023
0.0430809
0.420096
-0.310121
-0.109971
-0.0237184
0.241632
-0.096248
0.0709394
0.0253086
0.308708
-0.0797742
-0.00116312
-9.06267e-05
0.00125375
-0.525089
0.363303
0.1618
0.0819443
-0.0168607
-0.12699
0.151503
-0.024513
0.0625459
0.106504
-0.16905
0.128936
-0.153891
0.0249553
-0.479146
0.210646
0.268503
-0.416345
0.0844555
0.331895
0.188586
0.128477
-0.317061
0.286572
0.171172
-0.457744
0.0072644
-0.0177611
0.0104967
-0.0805277
0.384271
-0.30374
-0.46121
0.487054
-0.0258363
0.0864723
-0.132522
0.0460499
-0.197048
0.138818
-0.0220245
0.0140887
0.00793577
-0.0478559
0.119214
-0.0713576
-0.241011
-0.238131
0.143207
-0.154651
0.0114444
0.0619876
-0.355003
0.29302
-0.00582536
-0.117184
0.12301
7.3037e-05
-0.0132728
-0.141527
0.173251
0.000232142
0.000219596
-0.000451738
-0.119414
0.123456
-0.00404191
-0.23763
0.161607
-0.199275
-0.137562
0.104798
0.0327634
0.56012
-0.320283
-0.239835
-0.106086
0.0582301
0.400292
-0.2836
-0.116688
-0.0858592
-0.0795312
0.0627813
0.297999
0.040796
-0.0200696
-0.0207264
0.285661
-0.246245
-0.0394165
0.0270214
0.159737
-0.186759
0.182633
0.156634
-0.339265
-0.338854
-0.0785286
0.071157
0.0136134
-0.0847704
-0.171192
0.0529127
-0.125275
0.0102907
0.114984
0.0557496
0.317098
-0.0913663
0.054057
-0.000276317
0.00894306
-0.00866674
0.0164325
0.0212949
0.000971614
0.00144263
0.0101929
0.00605767
-0.0162505
-0.0572694
0.104343
-0.0470736
-0.441246
-0.0838245
0.480298
-0.165418
-0.314878
-0.29813
-0.119476
0.417612
0.00552319
-0.00552319
-0.00389536
0.00420869
-0.360646
0.245449
0.115199
0.214508
-0.217006
0.00249742
0.0155128
-0.00824839
-0.00714247
0.00821567
-0.0010732
0.00111509
-0.00167416
0.000559068
0.0102204
-0.00791303
-0.0023074
-0.175587
0.120795
0.0547914
-0.0880996
0.0504786
0.037621
0.303969
-0.223436
-0.0805323
-0.0626004
0.11321
-0.0506097
-0.0157241
0.0162267
-0.000502561
-0.0275863
-0.0616273
0.0892136
-0.00336675
-0.117736
0.121103
-0.0385656
0.016889
-0.317104
0.112598
0.204507
0.16
-0.207543
0.0475435
-0.43543
0.064825
0.370605
-0.013275
0.173275
0.0118973
0.00398738
-0.0158847
-0.411473
0.549405
-0.137923
-0.0110014
0.0128247
-0.00182328
0.0223698
0.0184262
-0.0138962
0.0134102
0.00048594
-0.145996
-0.0295901
-0.000539882
-0.00434108
0.043845
0.0477537
-0.0915987
0.211055
0.0746071
-0.102529
-0.0350327
-0.14211
-0.218534
-0.0891479
0.0615616
-0.153734
0.342322
0.280501
0.194844
-0.475345
0.0428078
-0.0819758
0.039168
-0.413954
0.115832
-0.307202
-0.109139
0.0799778
-0.0725899
-0.00738792
-0.0239016
0.129929
-0.106027
0.192524
0.0219847
0.0789247
-0.108824
0.0298992
-0.171706
0.452208
-0.193501
0.00890728
0.184595
0.274705
0.159179
-0.217426
-0.0487144
0.266141
0.0593167
-0.122602
0.0632857
-0.00105418
0.00216927
-0.00413716
0.00241315
0.00172401
-0.215482
-0.0395285
0.255011
-0.267202
-0.0499017
-0.0247682
0.0209141
0.00385409
0.258315
-0.107892
-0.150423
-0.157362
0.0426652
0.114697
0.00650213
5.22524e-05
-0.00655438
-0.130324
0.209491
-0.0791659
0.00587436
0.000627764
-0.141781
-0.121045
0.262827
0.114385
0.0417061
-0.0927786
-0.0147886
-0.00723585
0.115134
-0.134321
0.0191867
0.0350681
0.424954
-0.460021
0.0690926
0.0108852
-0.00444387
-0.0094523
0.350167
-0.315098
-0.14709
0.0410543
0.106036
0.00585414
-0.122733
0.116879
-0.0306571
0.190935
-0.160278
-0.138226
0.0182417
0.119984
0.221141
-0.0286167
-0.0602338
0.102095
-0.0418609
0.0294307
0.0100557
-0.0394864
-0.00539512
0.00910902
-0.0037139
-0.17542
0.145147
0.0302725
0.112627
-0.0490815
-0.0635457
-0.345169
0.320947
0.0242246
-0.00978592
0.00780475
0.00198117
-0.00198351
-0.000771599
0.00275511
0.000347356
-0.381104
0.380762
-0.369389
-0.0190006
0.388395
-0.157941
0.192534
-0.000267886
0.00568303
-0.00541515
0.142133
-0.154734
0.0126015
-0.36175
0.0233579
0.338394
0.0941976
-0.0513898
-0.00940887
-0.0119756
0.0213845
0.0427915
0.0135175
-0.056309
0.0591943
0.0534329
0.200036
-0.200895
0.000858745
-0.442567
0.370021
0.0725514
0.0940002
-0.0364313
-0.0575689
-0.00451177
0.00801303
-0.00350126
-0.00213632
0.0143398
-0.0122035
-0.0352132
0.0997269
-0.0645137
-0.030752
-0.135348
0.1661
-0.0111638
0.00265772
-0.0276171
-0.185106
-0.139985
0.325092
0.190522
0.0306192
-0.0324313
-0.035683
0.0681143
0.110066
-0.074254
-0.0358122
-0.283763
0.128154
0.155609
-0.104476
0.0417222
0.0627539
0.177685
0.022351
0.170696
-0.1532
-0.0174958
-0.369038
-0.273805
0.108232
0.165573
-0.181586
0.0337988
0.147787
-0.00180089
0.0050234
-0.00322251
-0.00902097
0.00688465
-0.0151336
0.00347877
0.0116548
0.169476
-0.199017
0.0295413
-8.1744e-05
-0.0109197
-0.000880146
0.00541974
-0.00453959
0.0019161
-0.0047299
0.00281379
0.149351
0.0213445
-0.385363
0.191863
0.082391
-0.224171
-0.031568
0.0147376
0.0168304
-0.243551
0.0280693
0.0851862
-0.43035
0.0945061
-0.0233491
0.00577214
-0.0573214
0.0515493
-0.0151355
-0.366028
-0.0694022
0.0851235
-0.215447
-0.043581
-0.0484433
0.0920243
-0.0278065
-0.274311
0.302118
0.0113364
-0.136611
0.234201
-0.225293
-0.00142124
-0.00397387
0.120655
-0.259835
0.139181
0.00432761
-0.00660558
0.00227796
-0.00463028
-0.00393197
0.00856225
-0.0431168
0.0363435
0.00677339
-0.160898
-0.224464
-0.189436
0.476009
-0.169533
0.196555
-0.151848
-0.0137601
0.165608
0.0053362
-0.00100859
-0.144459
-0.064028
0.208487
0.33978
0.0732778
-0.413057
0.0284125
-0.390161
-0.0504427
-0.0343649
0.0848077
-0.10333
0.0636155
0.0397149
-0.0151336
0.154846
-0.158212
0.0724554
-0.115968
0.0435123
-0.0350848
-0.241092
-0.416048
0.156245
0.259807
0.118068
-0.240158
0.12209
-0.00650665
0.00187637
-0.0456685
0.0827625
-0.037094
-0.00293802
-0.00308003
0.00601804
0.13315
-0.0180163
-0.139908
0.145762
-0.149404
-0.124401
-0.0265486
-0.00481175
0.0313603
0.205397
-0.0277116
0.00357223
-0.00165613
-0.285632
0.0621148
0.223518
-0.0118491
0.00483828
0.00701078
-0.0544549
0.0230267
0.0314282
-0.0778025
-0.0692878
0.12878
0.124587
-0.253366
-0.488922
0.444041
0.044892
-0.162405
0.0208784
-0.0257846
0.106751
-0.0809667
-0.0135449
0.011744
0.101466
-0.125367
0.129352
-0.415956
0.286611
0.280233
-0.381465
0.101236
0.0769248
-0.352594
0.27567
-0.112487
0.0634058
0.0661323
0.0181771
-0.0843094
-0.0474733
0.0439525
0.00352082
-0.23477
0.212998
0.0217726
0.00336907
-0.00269186
-0.000677204
-0.0892035
0.0539903
-0.101362
0.0387617
-0.241661
0.0140786
0.227584
-0.0553676
-0.0491086
-0.160339
0.342974
-0.436425
0.157433
0.278994
-0.0572218
-0.01208
0.0693018
-0.575091
0.313385
0.261717
0.307872
-0.245087
-0.131445
0.0764099
0.055035
-0.264925
-0.0478566
0.312784
-0.000192101
-0.00506583
0.00525793
0.173055
0.0323418
-0.177752
0.1303
0.0474519
-0.296354
-0.278725
-0.136086
-0.0393338
-0.00551935
-0.0103145
0.0158339
-0.0621872
0.0933889
-0.413419
-0.127549
0.283372
-0.155823
0.0551798
-0.105651
0.0504716
0.0101293
-0.0105936
0.000464289
-0.34571
0.422635
0.400857
-0.462227
0.061371
0.0393948
-0.0336226
-0.158484
0.0880273
0.0704568
-0.0952952
0.131657
-0.0363615
-0.0592892
0.0376862
0.0216029
-0.253165
-0.183259
0.0790137
-0.0407293
-0.161678
0.202408
-0.000885085
0.401743
-0.0218603
-0.0374288
-0.101617
0.0413828
0.0258687
-0.0921494
0.0662807
0.107092
-0.0519119
-0.29954
-0.114407
-0.0157994
0.058591
-0.126537
-0.180067
-0.0891339
-0.206561
-0.0901576
0.0444891
0.338909
-0.112404
-0.226503
-0.0400319
-0.066358
-0.02989
0.241345
0.238955
-0.398685
0.122624
0.276067
-0.0817692
-0.0341984
0.00456072
0.00100068
-0.00556141
-0.00332471
0.00244456
0.255514
-0.0137857
-0.241728
-0.000959809
-0.137266
-0.00145549
0.000292369
0.347436
-0.139464
-0.207971
-0.0531171
-0.0502133
0.174963
-0.191332
0.0163687
0.134404
-0.0409151
-0.0934884
-0.0920042
0.0388871
-0.41909
0.119558
0.0426213
-0.0131906
0.179964
0.099252
-0.279215
-0.0362463
0.115171
0.533306
-0.35759
-0.17571
0.0378552
0.0108099
0.000457576
-0.0112675
-0.390604
-0.0137694
0.404374
-8.16466e-05
-0.00932722
-0.157682
0.181585
-0.0239023
-0.388548
0.236156
0.152392
0.0137549
-0.140744
0.0218765
0.12133
0.0878637
-0.0518457
-0.0360179
-0.00733125
0.0197393
-0.0124081
-0.0753241
0.0428928
-0.0586518
-0.22698
0.257749
-0.195758
-0.00238219
0.00307839
-0.0006962
-0.0792474
0.0476891
0.0315583
0.404637
-0.251821
-0.152815
0.170242
0.0300715
-0.200313
-0.0562594
0.0821281
0.0696254
0.0243748
-0.0349984
0.00844983
0.00375511
-0.0061373
-0.253424
-0.0361107
0.289535
0.238916
-0.208003
-0.0309129
0.00370579
-0.00597882
0.00227302
0.303823
-0.191224
-0.20494
0.0604816
0.0882067
-0.0252034
-0.0630033
-0.155398
0.137107
0.0182907
0.255147
-0.0334321
-0.221714
0.00406786
0.000492861
0.266844
0.211111
-0.477955
0.0830241
-0.0935614
0.0105374
0.043877
-0.087458
-0.0131935
0.0131935
-0.305378
0.398775
0.270226
-0.163927
-0.106298
-0.35094
0.290349
0.060592
0.370866
-0.199151
-0.171713
-0.0890574
0.0670173
0.0220401
0.220161
0.150707
-0.0989868
0.149161
-0.0501745
-0.233306
-0.117634
0.0520354
0.135176
-0.187211
0.136378
-0.389801
0.036304
-0.180081
-0.120988
0.267767
-0.146778
0.0173603
-0.218028
0.200668
0.30843
-0.265994
-0.0424347
0.284805
0.0236263
-0.0240188
-0.164816
0.188835
-0.0480266
0.0118899
0.0361367
-0.0045283
0.00532979
-0.000801482
0.081119
0.153083
-0.0515734
0.0624084
-0.010835
-0.133649
0.0458157
0.0878332
-0.00361592
-0.000912387
-0.147414
-0.0292776
0.176692
0.134335
-0.0790891
-0.0552463
-0.0973769
0.215445
-0.0479116
0.0824353
-0.0345237
-0.123983
-0.437282
0.0258176
-0.0167876
0.356569
0.382774
-0.155026
-0.227743
-0.0145315
0.00720022
0.00095572
-0.183826
0.18287
0.458584
-0.0952703
-0.0165959
-0.115277
0.131873
-0.147582
0.0485957
0.129972
0.173852
0.180759
0.166678
-0.00383486
0.000272906
0.00356195
-0.122155
-0.31407
-0.0271712
0.282073
-0.383379
0.101308
-0.00454871
0.0016107
0.00672527
-0.00938945
0.00266418
0.0501979
0.0380088
-0.0206863
-0.136676
0.177433
0.00706731
-0.0125867
0.271038
0.289084
-0.235684
-0.106465
0.342151
-0.0147637
-0.0202347
-0.366753
-0.0868695
0.453624
-0.329561
-0.0515397
-0.00363731
-0.00752648
0.298552
0.101744
-0.000740466
0.0115504
0.142595
-0.128989
-0.0136062
-0.142304
0.150009
-0.00770519
-0.00306657
0.00979184
0.0159909
0.179463
-0.195454
-0.335688
0.100006
0.0167161
-0.0370499
0.0203338
0.119591
0.0168852
-0.00671594
-0.0478103
-0.0402893
0.346936
-0.209154
-0.137781
-0.343924
-0.098637
-0.265478
0.157587
-0.0125358
-0.036235
0.0487708
0.0515482
0.0617521
-0.1133
0.0123524
0.236769
-0.443926
0.388536
0.0553909
-0.222867
-0.0206833
0.0176468
0.0653772
-0.00380161
0.0075074
0.204372
-0.148773
-0.0555994
-0.141201
-0.124277
-0.285698
0.398167
-0.112469
-0.176214
0.0288
0.0988198
-0.0649676
-0.0338522
-0.000587637
0.010717
-0.00946917
-0.00237988
-0.0667044
0.0658253
0.000879081
0.0592937
-0.0759612
0.0166675
0.0663195
0.0179496
-0.0842691
-0.00242569
0.00233506
-0.19303
-0.0658987
0.25893
-0.405121
0.275849
0.129277
-0.270687
-0.192585
0.273705
-0.0841157
0.0558877
0.028228
0.369224
-0.219767
-0.149456
0.181291
-0.0087816
0.00163913
-0.035522
0.0531689
0.142691
0.0212484
-0.0110555
0.0700028
-0.0107091
-0.00632668
0.00181491
-0.210397
-0.0737415
0.284139
0.163819
0.127382
0.183306
-0.310687
0.109822
-0.448672
0.0116931
-0.455618
-0.475135
-0.406516
0.153352
0.00283444
-0.00350159
0.000667147
0.0563189
0.199196
0.396344
-0.281681
-0.114657
-0.0503273
0.0941724
0.123776
-0.0851656
-0.03861
-0.319178
-0.0859388
0.154782
-0.236857
0.0820762
-0.0977409
0.0219913
0.0757496
0.00738439
-0.0646062
0.0234711
-0.181412
0.0570621
0.214699
-0.27176
0.0400534
-0.196544
0.0149582
-0.00220507
0.00215985
4.52152e-05
-0.036098
-0.400977
0.201828
-0.000159378
0.00631853
-0.00615915
0.0689908
0.0547848
0.106612
0.266428
-0.373036
-0.00148983
0.00160241
-0.000112577
0.00360446
-0.00192071
-0.00168374
0.000813538
0.00205869
-0.00287223
-0.195664
-0.205312
0.267214
-0.21015
0.00418454
-0.156032
-0.0950063
0.107571
-0.0125642
-0.135853
-0.0809176
0.216771
0.00109539
0.00227368
-0.056807
0.0442712
0.0217782
-0.0733516
-0.031348
0.0909588
-0.0596108
0.137012
0.245767
0.0182674
0.124328
-0.00688445
-0.00192843
0.00881289
-0.00587887
0.013583
-0.0240376
0.0104546
0.212081
-0.277194
0.0651133
0.125523
0.0370254
-0.162548
0.0329286
-0.155662
0.00173701
-0.00298511
0.00124809
0.00577617
0.00444426
-0.081556
0.0242866
-0.124836
0.245491
0.0242355
-0.241661
0.376945
-0.0867397
-0.290205
-0.0492979
0.100846
-0.228251
-0.178264
-0.0312075
0.0479236
-0.106803
0.139732
-0.00748262
0.0193799
-0.294791
0.228107
0.066684
-0.274773
0.051907
-0.426019
-0.062892
-0.119033
-0.00038088
-0.0235946
-0.118658
0.142253
0.0586593
0.0401605
-0.269199
0.381335
-0.112134
0.119952
-0.0640281
-0.0559242
0.0128416
0.0351968
-0.0480384
-0.157029
0.177938
-0.0209089
0.303087
-0.174306
0.21109
-0.126574
-0.0845158
0.186266
-0.168907
-0.0173592
0.48729
-0.249857
-0.237433
0.130432
-0.164263
0.0338313
-0.00604647
-0.174664
0.0176348
-0.0427528
-0.0477438
0.0904966
-0.0346979
-0.294097
0.400714
-0.197349
-0.500399
0.109794
-0.147662
0.0115762
0.188016
0.067131
-0.113597
0.0893641
-0.299759
0.134532
0.122501
0.0182659
0.266767
0.142329
-0.409089
0.0192493
0.0796105
-0.0988599
0.186134
-0.196179
0.0100454
-0.0572447
-0.0425739
0.0998187
-0.171896
-0.00585572
-0.0168242
0.00229277
-0.262923
0.0880471
0.174877
0.00100227
-0.00100227
0.132344
0.0281471
-0.160491
-0.090864
0.15341
-0.0362155
-0.0182394
-0.000527273
-0.0341102
-0.0250824
0.0591926
0.139189
0.0387498
0.193546
-0.19259
-0.395143
0.199481
0.211192
0.11143
-0.322621
-0.134103
0.0833974
0.0507054
0.152209
-0.127554
-0.0246542
-0.0442115
0.132446
-0.0882348
-0.106631
0.0709205
0.0357107
-0.00130272
-0.059126
0.10566
-0.0465344
-0.356083
0.505967
-0.149873
0.000119112
0.000645983
-0.000765095
-0.0126608
0.0561947
-0.0435339
0.142842
-0.22897
0.0861287
0.238523
-0.0273306
-0.0585752
0.0778245
0.0125134
-0.00645577
-0.134308
-0.028097
-0.276614
-0.137483
0.414098
-0.0815084
0.0249503
0.0565581
-0.0971347
0.0543819
-0.143826
0.063939
0.102626
0.0114426
-0.114069
-0.0379259
-0.00894781
0.0468737
-0.163341
-0.0536645
0.0625328
0.0335072
-0.0960399
0.00519952
-0.005312
0.000112472
-0.0542647
-0.0377395
-0.042404
0.0986194
-0.0571482
-0.0414712
0.0325843
-0.083027
0.146244
-0.185332
0.0390884
-0.402087
-0.0591159
-0.103402
-0.318876
0.103626
-0.00224712
-0.0225211
0.019732
0.0151922
-0.0349241
0.00587034
-0.00613823
-0.0104158
-0.0376107
-0.0101892
0.0128526
-0.00266336
-0.00909579
0.00874679
0.000348995
-0.0704126
-0.0110958
-0.0350674
0.182468
-0.00368669
-0.00306007
0.00674676
0.00503604
0.0277861
-0.0328221
0.207884
0.0240179
-0.0478463
0.0238284
-4.30451e-05
-0.000466327
0.000509372
0.054312
0.0196601
-0.0739721
0.08261
0.121762
-0.10858
0.402577
-0.29399
-0.194432
0.0310916
-0.214574
0.184512
0.030062
0.157455
0.0288111
-0.0629646
-0.0585711
0.121536
0.0780641
0.260846
-0.000725394
0.000725394
-0.190238
0.16622
0.143
0.017303
-0.160303
-0.00101351
0.00275052
-0.217803
-0.0972717
0.315076
-0.147321
0.123727
0.0259482
-0.0123652
-0.238744
-0.0969425
0.0260607
0.183473
-0.209533
-0.00354951
0.000565387
0.00298412
-0.114637
0.416649
-0.302003
0.0404195
0.0795328
-0.152317
0.00829493
-0.00552645
-0.00276848
0.187916
-0.0487269
0.128219
-0.143532
0.0153132
0.0901921
-0.194282
0.0481103
0.146172
0.0147154
-0.109722
-0.110324
0.0057081
0.104616
0.00496371
0.000910653
0.108535
-0.125083
0.0165476
0.148507
-0.272276
0.12377
0.0049904
-0.00538671
0.000396311
0.148783
-0.0205645
0.00469546
0.0146667
-0.00548084
-0.00918586
0.0425393
-0.0928666
0.0393754
-0.0809002
-0.186301
0.138553
0.230645
-0.369193
0.00271287
0.000891585
0.104374
0.106716
-0.027827
0.158259
0.442771
-0.305489
-0.137281
-0.0546509
-0.00427871
-0.0624257
-0.0208219
-0.0144925
0.0353145
0.00149967
-0.000321129
0.0013234
-0.0327273
-0.0513883
0.135478
-0.185875
0.050397
-0.382197
0.273622
0.16616
-0.128108
0.111512
0.109543
-0.0434103
0.328913
-0.201128
-0.127782
0.0337487
-0.067859
0.13609
0.0333864
-0.0376888
-0.454659
0.442439
0.0122351
0.0020824
0.00150134
0.18096
-0.239073
-0.329118
-0.125906
0.0179778
0.107929
0.169197
-0.474685
-0.106285
0.372718
0.00675915
0.00173174
-0.00849089
0.0359078
-0.226188
0.177108
0.0490798
-0.252649
0.36408
-0.0626432
0.115153
-0.0525094
-0.034209
-0.119682
-0.0244764
0.184214
-0.0213966
-0.0578508
-0.213612
0.230973
0.00548987
-0.0123743
-0.128019
0.0208697
0.107149
0.102917
0.153987
-0.256904
0.0306279
-0.0164855
-0.0141424
-0.00272478
0.00195318
0.255577
-0.402426
0.146852
-0.0407828
0.0199608
0.236493
0.280814
-0.33159
0.0928482
-0.24424
0.108386
-0.083914
-0.0157673
0.0996812
0.000100685
-0.00412255
0.00402187
-0.0339889
-0.123693
0.001533
0.00366652
0.0323581
0.108918
-0.141276
0.00220335
-0.0155557
0.0133524
-0.0774928
0.0461448
-0.161154
-0.024178
-0.0101162
0.109912
0.160315
0.0147559
-0.0263004
0.0115444
-0.074188
0.00606152
-0.00633784
0.00510157
0.0041089
0.0759744
0.170773
-0.246746
-0.0140277
0.0262074
-0.0121797
0.165754
-0.193442
0.0276884
0.00200498
0.130339
-0.0232838
0.0512277
-0.0279439
0.0196069
-0.0606425
0.0410356
-0.0045829
0.0116502
-0.392586
0.287406
0.105184
-0.0108494
-0.0059748
-0.144354
0.319758
-0.175403
-0.00344014
0.00840385
0.0415345
0.16574
-0.207273
-0.212147
0.105344
-0.175437
0.00653008
-0.344364
0.188978
0.155389
0.198448
-0.499136
0.300702
-0.0292024
-0.107025
0.136227
0.0722569
-0.0287088
0.0830208
-0.442488
0.0985685
0.00755865
-0.00780525
0.000246593
-0.184969
0.0238151
-0.239912
-0.10445
0.110129
0.266817
0.0640937
0.0739463
-0.13804
0.052903
0.0521667
-0.10507
0.0191773
-0.0424611
0.11222
-0.146208
-0.157723
0.366847
0.136416
-0.171089
0.0346739
-0.00815478
0.0121422
-0.129537
-0.328925
0.216521
0.337406
-0.148425
-0.0366417
0.173057
-0.0179953
-0.146241
0.164236
-0.000510407
-0.000214987
-0.317643
0.0998421
-0.0495716
0.0725479
-0.0229763
0.0487958
0.0612705
0.0488022
-0.061463
0.00149462
-0.00068108
0.000261818
-2.96754e-05
-0.112931
-0.284473
0.397411
0.0233947
-0.154877
0.131482
0.123603
0.235857
-0.198078
-0.0377793
-0.196125
0.171014
0.025111
-0.000373595
0.000330549
-0.315375
-0.0670021
0.382384
-0.16512
-0.230022
-0.49883
0.214869
0.283975
0.0339333
0.111452
0.0525093
-0.163961
0.250184
-0.101676
0.102341
0.0397897
-0.142131
0.0281596
-0.162468
-0.00617547
0.0171504
-0.0109749
-0.00327622
-0.0124479
0.365983
-0.227806
-0.138175
0.170363
0.130659
-0.301022
0.00816438
-0.156917
0.00307318
0.00161833
-0.00469151
0.00354699
-0.00844758
0.000167518
0.00423815
-0.00440567
-0.0603643
0.0385039
-0.0419748
-0.0174423
0.0594172
0.0739241
-0.0330576
-0.0408665
0.0124791
-0.418989
0.0529611
-0.117492
0.27556
-0.0955948
0.167315
0.0511031
-0.218418
0.145698
0.25894
-0.0588724
0.0254951
0.0295888
-0.0550839
0.000272846
0.00525035
-0.242236
0.000575689
-0.0179618
-0.0353254
0.0532872
0.100164
0.317335
-0.41749
-0.0682781
0.203757
-0.120789
-0.0267936
0.298506
-0.379032
-0.0281922
-0.141443
0.167504
0.00665503
0.0142591
-0.00833714
0.00525711
0.0921992
-0.142778
0.0505793
0.00578301
-0.0103659
0.0849586
-0.0186391
0.000766626
-0.000547031
-0.0614
0.0795771
0.0278267
-0.0130891
0.00352963
-0.000781001
-0.00274863
-0.119535
-0.00848349
0.054355
-0.0415134
-0.100801
0.0416753
0.00746435
0.00720235
0.220084
-0.301807
0.0817244
0.113631
0.332691
-0.449155
0.116468
-0.0240517
0.0288527
-0.0240393
-0.00481336
0.365424
-0.476579
0.0928414
0.383737
0.0961618
-0.00371154
-0.0924502
-0.233615
0.398206
-0.164584
-0.0875922
0.0817669
0.0161546
-0.133339
-0.533995
0.310362
0.223635
-0.0648281
0.0549057
0.0099224
0.19039
-0.28178
0.091392
0.263679
-0.11283
0.0501872
-0.268244
-0.101099
0.369348
-0.0496991
0.0889927
-0.0392936
-0.0129549
0.0326869
0.283514
-0.109613
-0.173901
-0.244048
0.170475
0.0735737
-0.350484
0.110576
-0.101041
0.0673375
0.033704
-0.270908
0.400266
0.0618763
0.149706
-0.211582
0.033627
0.0573664
-0.0909934
-0.136884
-0.157152
0.294035
-0.00469984
0.00200386
0.00269598
-0.201832
-0.0644158
0.266249
-0.000695475
0.00445058
0.238721
-0.020963
-0.217758
0.0915498
-0.1295
0.0379506
-0.236656
0.329051
-0.0923935
-0.00489657
-0.113374
0.118271
-0.150263
0.0294739
-0.349701
-0.0692875
0.169816
0.113699
-0.00377178
-0.000928066
0.234953
-0.262759
-0.00802153
-0.00568301
0.0137045
-0.0105393
0.01393
-0.00339062
-0.168567
-0.0662033
0.296272
0.237039
0.302013
0.0822596
0.388301
-0.0622503
-0.326047
-0.00128506
0.00804421
0.103849
-0.356497
0.00667686
-0.00737233
-0.00333344
-0.00218975
-0.0141917
0.102219
0.0020912
-0.00251737
0.000426178
-0.398057
-0.131351
0.226795
0.0841551
-0.310948
-0.0032056
-0.00202731
0.00555693
0.0648283
-0.175152
0.132725
0.223782
-0.356505
-0.146021
0.273404
-0.274101
0.0731186
-0.242572
0.169454
0.0752847
-0.100696
0.0254115
-0.00619433
-0.0174194
0.0236137
0.167233
-0.166218
-0.00101483
-0.00110968
0.00977216
-0.00221351
0.0188348
-0.0666502
0.0478154
0.122337
-0.0424542
-0.0798828
-0.278256
0.248415
0.0298417
-0.0090386
0.000144401
0.0088942
0.004923
-0.0390964
0.141438
-0.325555
0.0889009
-0.276368
0.109543
0.166825
0.00230708
-0.00105755
-0.00124953
0.140973
0.00110675
0.00718818
-0.0331697
-0.525311
0.341138
0.184174
-0.0595695
0.123663
0.188116
0.176554
-0.364659
-0.0516124
0.163832
-0.217942
0.122877
0.0950647
-0.400768
0.167161
-0.105638
-0.281067
0.386712
0.256425
-0.183306
0.00113012
-0.000240736
-0.000889383
-0.0918555
-0.306661
0.398518
0.00622318
0.00265987
-0.00215968
-0.0965455
-0.179822
0.0597326
-0.324656
-0.0720229
-0.0215385
0.00030661
-0.000511435
0.000204825
0.14523
-0.171722
0.026492
0.000427666
0.00384014
-0.0042678
-0.236191
0.112209
0.0811047
0.124385
-0.155138
-0.00521811
0.00153142
0.02008
0.0105479
0.0102906
-0.00479466
-0.00549595
-0.445078
0.047035
-0.0164071
-0.188437
0.28769
-0.00374879
0.00417645
-0.35323
0.129884
0.223349
-0.0494515
-0.0153766
0.0932342
-0.00790796
0.0066229
-0.103052
-0.291589
0.394643
0.138044
0.310942
-0.448977
-0.0589027
0.0169279
-0.327342
0.061211
0.266132
0.000845733
0.000284386
0.0696151
-0.262643
0.0103107
-0.0243384
-0.175143
-0.111382
-0.27008
-0.0285958
0.1351
-0.084571
0.0349994
-0.00949693
0.00314649
0.00635044
0.150948
-0.164708
0.164737
0.0792612
-0.243997
-0.170516
0.186507
-0.0818852
0.216732
0.112183
-0.058951
-0.417628
-0.109637
0.0731347
0.036502
0.280032
-0.130762
-0.149269
0.00500689
0.0138468
-0.0188537
0.00917464
-0.163025
0.15385
-0.00397601
0.00704919
0.214817
0.0783771
-0.293193
-0.29054
0.394666
-0.104123
-0.0422956
0.090336
-0.0480403
0.000443084
0.00326431
-0.0037074
0.0233087
-0.0451626
0.0218539
-0.194138
-0.0194262
0.213565
0.00914498
-0.000201922
-0.0631299
0.277949
-0.00162151
0.000468474
0.00115304
0.138734
0.0661004
0.0242593
-0.0903596
-0.170729
0.327365
-0.00117396
0.00266857
0.0905704
0.230563
-0.321131
-0.115172
-0.10277
-0.215536
-0.173012
0.332813
-0.23549
-0.0973212
0.277941
0.20935
0.0124378
-0.0199204
0.042888
0.0381515
-0.0810396
-0.00405853
-0.00666116
0.0107197
0.0659392
0.0563979
-0.195455
0.169544
0.0259117
0.147639
-0.178296
-0.469755
0.150309
0.319449
-0.409944
0.104573
-0.42453
0.309902
-0.166767
0.0373718
-0.0870708
0.251529
-0.209993
0.00599707
-0.00363154
-0.00236553
-0.055502
-0.0593757
0.114878
0.34865
-0.215923
0.155989
0.0301448
-0.000910046
-0.000711465
-0.0706663
-0.0634364
-0.0566375
0.16809
0.147014
0.0439216
0.110318
-0.12448
0.0141624
-0.00171601
-0.00792792
0.00964393
0.0897645
-0.118967
0.0202592
-0.0152231
-0.025542
-0.129192
0.111778
-0.121354
0.00957616
-0.0372431
-0.0231211
0.146488
0.221312
0.101556
-0.322866
-0.108757
0.0457926
-0.0846029
-0.0242209
0.298463
-0.0750732
0.0271615
0.0424621
0.0869871
-0.129449
0.00640159
-0.00725458
0.000852993
0.147364
0.132669
-0.0233735
-0.102657
0.0187432
-0.119982
0.0166249
0.103357
0.167932
-0.0424094
0.388468
-0.19938
-0.189088
0.0486631
-0.250741
0.209609
0.0411332
0.00204594
0.00395112
0.220769
-0.223424
0.00265485
0.172932
-0.00595755
0.00122766
-0.0309839
0.169506
-0.195874
0.0263679
0.0261453
0.214516
-0.308401
0.093886
-0.00181135
-0.0456619
-0.00380349
0.00414276
-0.000339269
0.0897708
0.0583687
-0.0827918
0.0244231
-0.000465051
-0.00333844
0.16908
0.0277594
-0.196839
-0.0963302
-0.210426
-0.0403143
0.0319957
0.151981
-0.183976
-0.155411
0.211842
-0.056431
-0.0257855
-0.0449836
0.0148608
0.0301228
-0.0785512
-0.164021
-0.0224799
-0.139568
0.162048
0.00919724
-0.322521
-0.137174
0.459708
0.000712162
-0.00862519
0.187338
0.0513839
-0.145099
0.206976
0.0338302
0.0490163
-0.0828465
0.00529358
-0.00545296
-0.109818
0.427447
-0.31762
0.341808
-0.217169
0.0617587
0.0850668
0.255088
-0.340152
0.477363
-0.170614
-0.306743
0.0136817
-0.0449989
0.0313172
-0.239539
0.506383
-0.188744
0.019211
-0.28469
-0.113988
-0.0660437
0.0720238
-0.00598011
-0.392425
0.098333
-0.00061873
-0.0424981
-0.0304613
0.024267
-0.154114
-0.0899331
-0.00517542
0.00789786
-0.00272244
-0.326523
-0.11596
-0.178485
-0.0247001
0.203186
-0.063999
-0.209789
0.27379
0.0023816
-0.0044189
0.0020373
-0.0772548
-0.400232
0.400441
-0.00020073
0.123209
0.226414
-0.349622
-0.240261
0.191413
0.0488488
-0.0849914
-0.227397
0.31239
-0.0817981
-0.0496468
0.00191657
-0.00181589
0.00454421
0.0116825
-0.00109784
0.00318904
0.0714013
0.27886
-0.35026
0.0426453
-0.213161
-0.115584
0.110687
0.20907
0.00301168
-0.266618
-0.0866094
-0.0381924
0.048248
0.000902631
-0.0013894
0.000486765
-0.132942
0.142117
-0.0739303
-0.136495
-0.00215503
-0.00688357
-0.325718
-0.208276
-0.304292
0.375695
-0.0122153
0.00815681
-0.00631482
-0.0384866
0.0296428
0.00908256
-0.287337
0.00876858
-0.00950904
-0.0711592
-0.140275
0.211435
-0.126827
0.0421835
0.0846433
-0.378938
0.287084
0.156257
-0.176624
0.0203672
-0.287344
0.146592
0.140752
0.087693
0.0466425
0.117749
-0.0516488
0.108799
0.0399844
0.347961
0.0769581
-0.424917
-0.00364061
0.00581558
-0.00217497
-0.0835299
-0.124014
-0.411561
0.0113378
-0.426749
0.426758
0.0196835
0.201086
-0.217448
-0.109893
0.0763731
-0.278204
-0.0442759
0.00722599
0.02155
-0.215687
0.0305896
-0.261171
0.0678493
0.193322
-0.0230696
0.00270332
-0.00226024
0.174614
-0.38707
0.212465
0.00355209
0.0536468
-0.0571989
-0.0234532
-0.134791
0.158244
0.383955
-0.209333
0.0975043
-0.188368
-0.113082
-0.00895912
0.122042
-0.401597
0.13492
0.266678
0.385208
-0.219638
-0.165568
-0.0928394
0.388793
-0.295951
-0.136465
-0.158325
-0.0999087
0.120367
-0.0204582
0.427943
-0.146594
-0.281343
0.0963968
-0.240249
0.143852
-0.122595
0.121635
-0.0709018
0.418866
-0.114963
0.00366653
-0.0116881
-0.00914003
0.0113434
0.0244726
-0.0361565
0.0498382
-0.0249522
-0.0910857
-0.0288958
0.015479
-0.0428914
0.0274124
-0.0173579
0.0302257
-0.0128678
-0.00797468
0.409371
-0.401382
-0.188781
0.239884
0.164728
-0.399562
0.23484
0.012619
0.0283905
-0.0410095
-0.0241419
0.0406676
-0.0165257
-0.137326
0.106133
0.0311933
0.169938
-0.362609
0.0720743
-0.270922
0.206924
-0.101029
-0.304489
0.405521
0.156147
0.0827702
-0.0420346
0.030059
-0.0065366
-0.00700825
-0.00786914
-0.00152031
0.0141385
0.0804203
-0.0945588
0.37464
-0.35128
-0.387385
0.516153
-0.128766
-0.0925976
-0.288132
0.380732
-0.0135907
-0.0572878
0.0909148
-0.310866
0.201742
0.109125
-0.0059
0.00446202
0.00143798
0.280113
-0.139914
-0.0243488
0.25518
-0.144828
0.106076
-0.130974
0.0248979
0.0217384
-0.161653
0.0840563
-0.0502261
-0.150772
0.127319
0.0433337
-0.413022
0.0905147
-0.40303
0.281685
0.121353
0.0964534
-0.0371367
0.0993579
-0.368555
0.325188
0.161872
-0.1217
0.0217914
0.0366194
-0.0978147
0.0611954
0.288337
-0.381174
0.0189833
-0.0797734
0.0607901
0.270722
-0.374029
0.103309
0.203967
-0.227685
-0.381105
0.0905945
0.290514
-0.247545
0.198832
0.0555375
-0.02955
-0.0259875
0.118565
0.031912
-0.150477
-0.195432
0.0306158
-0.177974
0.106815
-0.0057153
-0.0406373
0.0102356
0.0304016
-0.398129
0.191135
0.206995
-0.104287
-0.0225398
0.136851
0.00746082
-0.00105923
0.0209951
0.0484968
-0.0694919
0.000737752
-0.00293085
0.0021931
-0.0575099
-0.134504
-0.097251
0.111966
0.102926
-0.0500226
0.0400062
0.0695364
0.00925799
-0.0113729
0.00211489
-0.285976
0.408607
-0.119554
-0.263822
-0.12031
-0.208614
0.0330667
0.00327672
-0.0861705
3.9703e-05
-0.0155208
0.0154811
-0.171145
-0.0948475
-0.16206
0.238035
-0.00158566
-0.0043719
0.019988
0.0814273
-0.101415
0.204385
-0.0272764
0.0581516
-0.0446341
0.37186
-0.116279
0.137359
-0.150634
0.0368018
0.0492307
-0.0860325
-0.033657
0.0724468
-0.0387898
-0.22433
-0.107259
-0.0436199
-0.0480619
0.0916818
-0.110554
0.0816728