/*--------------------------------*- C++ -*----------------------------------*\
| =========                 |                                                 |
| \\      /  F ield         | OpenFOAM: The Open Source CFD Toolbox           |
|  \\    /   O peration     | Version:  v2012                                 |
|   \\  /    A nd           | Website:  www.openfoam.com                      |
|    \\/     M anipulation  |                                                 |
\*---------------------------------------------------------------------------*/
FoamFile
{
    version     2.0;
    format      ascii;
    class       pointVectorField;
    location    "950";
    object      pointDisplacement;
}
// * * * * * * * * * * * * * * * * * * * * * * * * * * * * * * * * * * * * * //

dimensions      [0 1 0 0 0 0 0];


internalField   nonuniform List<vector> 
10142
(
(0 0 0)
(0 0 0)
(0 0 0)
(0 0 0)
(0 0 0)
(0 0 0)
(0 0 0)
(0 0 0)
(0 0 0)
(0 0 0)
(0 0 0)
(0 0 0)
(0 0 0)
(0 0 0)
(0 0 0)
(0 0 0)
(0 0 0)
(0 0 0)
(0 0 0)
(0 0 0)
(0 0 0)
(0 0 0)
(0 0 0)
(0 0 0)
(0 0 0)
(0 0 0)
(0 0 0)
(0 0 0)
(0 0 0)
(0 0 0)
(0 0 0)
(0 0 0)
(0 0 0)
(0 0 0)
(0 0 0)
(0 0 0)
(0 0 0)
(0 0 0)
(0 0 0)
(0 0 0)
(0 0 0)
(0 0 0)
(0 0 0)
(0 0 0)
(0 0 0)
(0 0 0)
(0 0 0)
(0 0 0)
(0 0 0)
(0 0 0)
(0 0 0)
(0 0 0)
(0 0 0)
(0 0 0)
(0 0 0)
(0 0 0)
(0 0 0)
(0 0 0)
(0 0 0)
(0 0 0)
(0 0 0)
(0 0 0)
(0 0 0)
(0 0 0)
(0 0 0)
(0 0 0)
(0 0 0)
(0 0 0)
(0 0 0)
(0 0 0)
(0 0 0)
(0 0 0)
(0 0 0)
(0 0 0)
(0 0 0)
(0 0 0)
(0 0 0)
(0 0 0)
(0 0 0)
(0 0 0)
(0 0 0)
(0 0 0)
(0 0 0)
(0 0 0)
(0 0 0)
(0 0 0)
(0 0 0)
(0 0 0)
(0 0 0)
(0 0 0)
(0 0 0)
(0 0 0)
(0 0 0)
(0 0 0)
(0 0 0)
(0 0 0)
(0 0 0)
(0 0 0)
(0 0 0)
(0 0 0)
(0 0 0)
(0 0 0)
(0 0 0)
(0 0 0)
(0 0 0)
(0 0 0)
(0 0 0)
(0 0 0)
(0 0 0)
(0 0 0)
(0 0 0)
(0 0 0)
(0 0 0)
(0 0 0)
(0 0 0)
(0 0 0)
(0 0 0)
(0 0 0)
(0 0 0)
(0 0 0)
(0 0 0)
(0 0 0)
(0 0 0)
(0 0 0)
(0 0 0)
(0 0 0)
(0 0 0)
(0 0 0)
(0 0 0)
(0 0 0)
(0 0 0)
(0 0 0)
(0 0 0)
(0 0 0)
(0 0 0)
(0 0 0)
(0 0 0)
(0 0 0)
(0 0 0)
(0 0 0)
(0 0 0)
(0 0 0)
(0 0 0)
(0 0 0)
(0 0 0)
(0 0 0)
(0 0 0)
(0 0 0)
(0 0 0)
(0 0 0)
(0 0 0)
(0 0 0)
(0 0 0)
(0 0 0)
(0 0 0)
(0 0 0)
(0 0 0)
(0 0 0)
(0 0 0)
(0 0 0)
(0 0 0)
(0 0 0)
(0 0 0)
(0 0 0)
(0 0 0)
(0 0 0)
(0 0 0)
(0 0 0)
(0 0 0)
(0 0 0)
(0 0 0)
(0 0 0)
(0 0 0)
(0 0 0)
(0 0 0)
(0 0 0)
(0 0 0)
(0 0 0)
(0 0 0)
(0 0 0)
(0 0 0)
(0 0 0)
(0 0 0)
(0 0 0)
(0 0 0)
(0 0 0)
(0 0 0)
(0 0 0)
(0 0 0)
(0 0 0)
(0 0 0)
(0 0 0)
(0 0 0)
(0 0 0)
(0 0 0)
(0 0 0)
(0 0 0)
(0 0 0)
(0 0 0)
(0 0 0)
(0 0 0)
(0 0 0)
(0 0 0)
(0 0 0)
(0 0 0)
(0 0 0)
(0 0 0)
(0 0 0)
(0 0 0)
(0 0 0)
(0 0 0)
(0 0 0)
(0 0 0)
(0 0 0)
(0 0 0)
(0 0 0)
(0 0 0)
(0 0 0)
(0 0 0)
(0 0 0)
(0 0 0)
(0 0 0)
(0 0 0)
(0 0 0)
(0 0 0)
(0 0 0)
(0 0 0)
(0 0 0)
(0 0 0)
(0 0 0)
(0 0 0)
(0 0 0)
(0 0 0)
(0 0 0)
(0 0 0)
(0 0 0)
(0 0 0)
(0 0 0)
(0 0 0)
(0 0 0)
(0 0 0)
(0 0 0)
(0 0 0)
(0 0 0)
(0 0 0)
(0 0 0)
(0 0 0)
(0 0 0)
(0 0 0)
(0 0 0)
(0 0 0)
(0 0 0)
(0 0 0)
(0 0 0)
(0 0 0)
(0 0 0)
(0 -0.000463548 0)
(0 -0.000614863 0)
(0 -0.000282917 0)
(0 -0.000264029 0)
(0 -0.000149209 0)
(0 -0.000658447 0)
(0 -0.000109364 0)
(0 -0.000865267 0)
(0 -6.25587e-05 0)
(0 -0.00082349 0)
(0 -8.776e-05 0)
(0 -4.69448e-05 0)
(0 -5.60276e-05 0)
(0 -0.000316509 0)
(0 -4.37584e-05 0)
(0 -3.95994e-05 0)
(0 -3.31395e-05 0)
(0 -0.000440388 0)
(0 -0.000181315 0)
(0 -0.000129716 0)
(0 -2.97367e-05 0)
(0 -1.83557e-05 0)
(0 -0.000889781 0)
(0 -0.000716203 0)
(0 -0.000779875 0)
(0 -0.000518693 0)
(0 -0.000254869 0)
(0 -6.33984e-05 0)
(0 -8.61213e-05 0)
(0 -6.02205e-05 0)
(0 -5.31122e-05 0)
(0 -1.90924e-05 0)
(0 -1.15066e-05 0)
(0 -9.68636e-06 0)
(0 -0.000601345 0)
(0 -0.000559892 0)
(0 -0.00041993 0)
(0 -0.000312133 0)
(0 -0.000366672 0)
(0 -0.000195498 0)
(0 -9.86731e-05 0)
(0 -0.000125034 0)
(0 -0.000204265 0)
(0 -3.47126e-05 0)
(0 -0.000128855 0)
(0 -5.75544e-05 0)
(0 -4.30512e-05 0)
(0 -3.53868e-05 0)
(0 -2.46737e-05 0)
(0 -5.01288e-05 0)
(0 -4.88649e-06 0)
(0 -0.0139534 0)
(0 -0.0140244 0)
(0 -0.0139533 0)
(0 -0.0140238 0)
(0 -0.0139514 0)
(0 -0.014021 0)
(0 -0.0139471 0)
(0 -0.0140154 0)
(0 -0.0139402 0)
(0 -0.0140071 0)
(0 -0.0139307 0)
(0 -0.0139956 0)
(0 -0.0139188 0)
(0 -0.0139815 0)
(0 -0.0139023 0)
(0 -0.0139654 0)
(0 -0.0138835 0)
(0 -0.0139453 0)
(0 -0.0138607 0)
(0 -0.0139193 0)
(0 -0.013829 0)
(0 -0.0138906 0)
(0 -0.0137969 0)
(0 -0.0138578 0)
(0 -0.0137647 0)
(0 -0.0138212 0)
(0 -0.013726 0)
(0 -0.0137812 0)
(0 -0.0136809 0)
(0 -0.0137361 0)
(0 -0.0136327 0)
(0 -0.0136864 0)
(0 -0.0135807 0)
(0 -0.0136326 0)
(0 -0.0135242 0)
(0 -0.0135734 0)
(0 -0.0134615 0)
(0 -0.0135087 0)
(0 -0.0133956 0)
(0 -0.0134415 0)
(0 -0.0133286 0)
(0 -0.0133709 0)
(0 -0.0132539 0)
(0 -0.013295 0)
(0 -0.0131746 0)
(0 -0.0132147 0)
(0 -0.0130913 0)
(0 -0.0131265 0)
(0 -0.0129994 0)
(0 -0.0130317 0)
(0 -0.0129029 0)
(0 -0.0129322 0)
(0 -0.0127994 0)
(0 -0.0130626 0)
(0 -0.0129561 0)
(0 -0.0127702 0)
(0 -0.0126666 0)
(0 -0.0133336 0)
(0 -0.0136966 0)
(0 -0.0138618 0)
(0 -0.0126307 0)
(0 -0.0125289 0)
(0 -0.012485 0)
(0 -0.0123832 0)
(0 -0.0123379 0)
(0 -0.0122351 0)
(0 -0.0121844 0)
(0 -0.0120772 0)
(0 -0.0120218 0)
(0 -0.0119146 0)
(0 -0.0118608 0)
(0 -0.0117511 0)
(0 -0.0116934 0)
(0 -0.0115774 0)
(0 -0.0115173 0)
(0 -0.0113976 0)
(0 -0.0113402 0)
(0 -0.0112212 0)
(0 -0.011163 0)
(0 -0.0110503 0)
(0 -0.0109901 0)
(0 -0.0108851 0)
(0 -0.0109362 0)
(0 -0.0107701 0)
(0 -0.0108181 0)
(0 -0.0106474 0)
(0 -0.0106972 0)
(0 -0.0105239 0)
(0 -0.0105731 0)
(0 -0.0104006 0)
(0 -0.0104433 0)
(0 -0.0102684 0)
(0 -0.0103055 0)
(0 -0.0101273 0)
(0 -0.0101646 0)
(0 -0.00998845 0)
(0 -0.0100224 0)
(0 -0.00984787 0)
(0 -0.00987567 0)
(0 -0.00969943 0)
(0 -0.00954649 0)
(0 -0.00952234 0)
(0 -0.00937029 0)
(0 -0.00921521 0)
(0 -0.0103604 0)
(0 -0.00919179 0)
(0 -0.00903614 0)
(0 -0.00885344 0)
(0 -0.00869899 0)
(0 -0.00851741 0)
(0 -0.00836381 0)
(0 -0.00833552 0)
(0 -0.00818343 0)
(0 -0.0080301 0)
(0 -0.00800241 0)
(0 -0.00785115 0)
(0 -0.00767175 0)
(0 -0.00752182 0)
(0 -0.00734497 0)
(0 -0.00719557 0)
(0 -0.00716883 0)
(0 -0.00702277 0)
(0 -0.00687428 0)
(0 -0.00685589 0)
(0 -0.00670559 0)
(0 -0.00652715 0)
(0 -0.00638712 0)
(0 -0.00622231 0)
(0 -0.00608602 0)
(0 -0.0110948 0)
(0 -0.00606268 0)
(0 -0.00592501 0)
(0 -0.00578826 0)
(0 -0.00575351 0)
(0 -0.00562796 0)
(0 -0.00547305 0)
(0 -0.00534918 0)
(0 -0.00520082 0)
(0 -0.00507349 0)
(0 -0.00505394 0)
(0 -0.00492973 0)
(0 -0.00480215 0)
(0 -0.00479074 0)
(0 -0.00466726 0)
(0 -0.00454161 0)
(0 -0.00453087 0)
(0 -0.00441428 0)
(0 -0.0136795 0)
(0 -0.00428253 0)
(0 -0.00417259 0)
(0 -0.00404616 0)
(0 -0.00393914 0)
(0 -0.00392118 0)
(0 -0.00381697 0)
(0 -0.00371327 0)
(0 -0.00369304 0)
(0 -0.00359421 0)
(0 -0.00347605 0)
(0 -0.00338224 0)
(0 -0.00327225 0)
(0 -0.00317906 0)
(0 -0.00316362 0)
(0 -0.00307307 0)
(0 -0.00298269 0)
(0 -0.00296858 0)
(0 -0.00288129 0)
(0 -0.00278109 0)
(0 -0.0139125 0)
(0 -0.0140433 0)
(0 -0.0109161 0)
(0 -0.0110121 0)
(0 -0.0108283 0)
(0 -0.0109179 0)
(0 -0.0107318 0)
(0 -0.0108127 0)
(0 -0.0105949 0)
(0 -0.0106967 0)
(0 -0.0104968 0)
(0 -0.0105702 0)
(0 -0.0103734 0)
(0 -0.0104412 0)
(0 -0.0102377 0)
(0 -0.0103048 0)
(0 -0.010091 0)
(0 -0.0101514 0)
(0 -0.00993609 0)
(0 -0.0100002 0)
(0 -0.00977168 0)
(0 -0.00983627 0)
(0 -0.00959481 0)
(0 -0.00954421 0)
(0 -0.00935914 0)
(0 -0.00931094 0)
(0 -0.00911953 0)
(0 -0.00906989 0)
(0 -0.00964432 0)
(0 -0.00989124 0)
(0 -0.00887624 0)
(0 -0.00882836 0)
(0 -0.00968589 0)
(0 -0.00992959 0)
(0 -0.00863473 0)
(0 -0.00858439 0)
(0 -0.00972028 0)
(0 -0.00996249 0)
(0 -0.00836795 0)
(0 -0.0083388 0)
(0 -0.00974727 0)
(0 -0.00998078 0)
(0 -0.00976615 0)
(0 -0.00999369 0)
(0 -0.00812969 0)
(0 -0.0080957 0)
(0 -0.00977979 0)
(0 -0.010012 0)
(0 -0.00788966 0)
(0 -0.00784935 0)
(0 -0.00978895 0)
(0 -0.0100245 0)
(0 -0.00792744 0)
(0 -0.00979022 0)
(0 -0.0100251 0)
(0 -0.00764355 0)
(0 -0.00760463 0)
(0 -0.00955454 0)
(0 -0.00978431 0)
(0 -0.0100174 0)
(0 -0.00739492 0)
(0 -0.0073563 0)
(0 -0.00977175 0)
(0 -0.0100011 0)
(0 -0.00714431 0)
(0 -0.00710814 0)
(0 -0.00974574 0)
(0 -0.00997488 0)
(0 -0.0101986 0)
(0 -0.00689165 0)
(0 -0.00686175 0)
(0 -0.00970538 0)
(0 -0.00994056 0)
(0 -0.0102066 0)
(0 -0.0101713 0)
(0 -0.00990069 0)
(0 -0.0101293 0)
(0 -0.0102418 0)
(0 -0.00663818 0)
(0 -0.00661506 0)
(0 -0.00985853 0)
(0 -0.0100882 0)
(0 -0.0103559 0)
(0 -0.0103136 0)
(0 -0.0100387 0)
(0 -0.0102612 0)
(0 -0.00997734 0)
(0 -0.0102005 0)
(0 -0.00638746 0)
(0 -0.00637013 0)
(0 -0.00658536 0)
(0 -0.00634601 0)
(0 -0.0061275 0)
(0 -0.00610766 0)
(0 -0.00693189 0)
(0 -0.0105301 0)
(0 -0.0140884 0)
(0 -0.00990021 0)
(0 -0.0101299 0)
(0 -0.00631611 0)
(0 -0.00608241 0)
(0 -0.00587011 0)
(0 -0.00584894 0)
(0 -0.00563488 0)
(0 -0.00561784 0)
(0 -0.00582208 0)
(0 -0.00559439 0)
(0 -0.00538853 0)
(0 -0.00536877 0)
(0 -0.0094695 0)
(0 -0.00556564 0)
(0 -0.00534576 0)
(0 -0.00514605 0)
(0 -0.00512849 0)
(0 -0.00492612 0)
(0 -0.0049122 0)
(0 -0.00511617 0)
(0 -0.00489867 0)
(0 -0.00469801 0)
(0 -0.00468121 0)
(0 -0.00487196 0)
(0 -0.00465917 0)
(0 -0.00447355 0)
(0 -0.00445615 0)
(0 -0.00981797 0)
(0 -0.0100496 0)
(0 -0.00953981 0)
(0 -0.00427173 0)
(0 -0.00425617 0)
(0 -0.00443116 0)
(0 -0.0042346 0)
(0 -0.00406141 0)
(0 -0.00404344 0)
(0 -0.0107715 0)
(0 -0.00757827 0)
(0 -0.00420826 0)
(0 -0.0040206 0)
(0 -0.00385625 0)
(0 -0.00383676 0)
(0 -0.0036729 0)
(0 -0.00365676 0)
(0 -0.00381095 0)
(0 -0.00363573 0)
(0 -0.00348136 0)
(0 -0.00346612 0)
(0 -0.00361952 0)
(0 -0.00345103 0)
(0 -0.00330029 0)
(0 -0.00328668 0)
(0 -0.00313857 0)
(0 -0.00312521 0)
(0 -0.00325933 0)
(0 -0.00310594 0)
(0 -0.0029709 0)
(0 -0.00295532 0)
(0 -0.00308395 0)
(0 -0.00293587 0)
(0 -0.00280788 0)
(0 -0.00279087 0)
(0 -0.00266451 0)
(0 -0.00265107 0)
(0 -0.00276981 0)
(0 -0.00263488 0)
(0 -0.00251619 0)
(0 -0.00250207 0)
(0 -0.00973039 0)
(0 -0.00995838 0)
(0 -0.0102707 0)
(0 -0.0101802 0)
(0 -0.0104824 0)
(0 -0.0103943 0)
(0 -0.0100812 0)
(0 -0.0103023 0)
(0 -0.00997406 0)
(0 -0.0101965 0)
(0 -0.00261338 0)
(0 -0.00248421 0)
(0 -0.00237318 0)
(0 -0.00235788 0)
(0 -0.0022478 0)
(0 -0.00223525 0)
(0 -0.0023389 0)
(0 -0.00222036 0)
(0 -0.00211765 0)
(0 -0.00210578 0)
(0 -0.00221354 0)
(0 -0.00208944 0)
(0 -0.00199587 0)
(0 -0.0019799 0)
(0 -0.00206389 0)
(0 -0.00196221 0)
(0 -0.00187454 0)
(0 -0.0018605 0)
(0 -0.00194459 0)
(0 -0.00184437 0)
(0 -0.00192452 0)
(0 -0.00182521 0)
(0 -0.00190142 0)
(0 -0.00180336 0)
(0 -0.00172822 0)
(0 -0.00170816 0)
(0 -0.00177912 0)
(0 -0.00168584 0)
(0 -0.00161604 0)
(0 -0.00159587 0)
(0 -0.00166149 0)
(0 -0.00157354 0)
(0 -0.00163515 0)
(0 -0.00154905 0)
(0 -0.00160697 0)
(0 -0.00152278 0)
(0 -0.00157701 0)
(0 -0.00149469 0)
(0 -0.00144135 0)
(0 -0.00141498 0)
(0 -0.00146478 0)
(0 -0.00138654 0)
(0 -0.001433 0)
(0 -0.00135594 0)
(0 -0.00139938 0)
(0 -0.00132342 0)
(0 -0.00136373 0)
(0 -0.00128102 0)
(0 -0.00128897 0)
(0 -0.00132643 0)
(0 -0.00125286 0)
(0 -0.00128784 0)
(0 -0.00121547 0)
(0 -0.00124804 0)
(0 -0.00117692 0)
(0 -0.00120713 0)
(0 -0.0015277 0)
(0 -0.00114488 0)
(0 -0.00113726 0)
(0 -0.00116521 0)
(0 -0.00109658 0)
(0 -0.00112235 0)
(0 -0.0119603 0)
(0 -0.00985715 0)
(0 -0.0100816 0)
(0 -0.00105488 0)
(0 -0.00107857 0)
(0 -0.0106861 0)
(0 -0.00127871 0)
(0 -0.00972795 0)
(0 -0.00995265 0)
(0 -0.0121278 0)
(0 -0.00101214 0)
(0 -0.00103393 0)
(0 -0.000988702 0)
(0 -0.00110053 0)
(0 -0.001054 0)
(0 -0.00112058 0)
(0 -0.00107224 0)
(0 -0.00144035 0)
(0 -0.00854406 0)
(0 -0.00958339 0)
(0 -0.0103333 0)
(0 -0.00933572 0)
(0 -0.00100673 0)
(0 -0.00102326 0)
(0 -0.00113873 0)
(0 -0.00166226 0)
(0 -0.000958666 0)
(0 -0.000973528 0)
(0 -0.000909793 0)
(0 -0.00092304 0)
(0 -0.000860261 0)
(0 -0.000872155 0)
(0 -0.000934539 0)
(0 -0.000882402 0)
(0 -0.000944458 0)
(0 -0.0102992 0)
(0 -0.000810254 0)
(0 -0.000797993 0)
(0 -0.00951444 0)
(0 -0.0102252 0)
(0 -0.000748611 0)
(0 -0.000736064 0)
(0 -0.0134792 0)
(0 -0.00995442 0)
(0 -0.00200176 0)
(0 -0.00177223 0)
(0 -0.00136244 0)
(0 -0.0106144 0)
(0 -0.0131208 0)
(0 -0.013578 0)
(0 -0.0138117 0)
(0 -0.0138804 0)
(0 -0.000687079 0)
(0 -0.000674404 0)
(0 -0.0124194 0)
(0 -0.00062571 0)
(0 -0.000613239 0)
(0 -0.00868585 0)
(0 -0.00709797 0)
(0 -0.0142597 0)
(0 -0.014314 0)
(0 -0.0111053 0)
(0 -0.0015682 0)
(0 -0.00162845 0)
(0 -0.00170245 0)
(0 -0.00168866 0)
(0 -0.00176488 0)
(0 -0.00174932 0)
(0 -0.00182787 0)
(0 -0.0018104 0)
(0 -0.00189053 0)
(0 -0.00187166 0)
(0 -0.0019526 0)
(0 -0.00193211 0)
(0 -0.00201487 0)
(0 -0.00199392 0)
(0 -0.00207709 0)
(0 -0.00205111 0)
(0 -0.00213741 0)
(0 -0.00210347 0)
(0 -0.00219467 0)
(0 -0.00214955 0)
(0 -0.0022537 0)
(0 -0.00221838 0)
(0 -0.00231424 0)
(0 -0.00227487 0)
(0 -0.00237206 0)
(0 -0.000660625 0)
(0 -0.000599708 0)
(0 -0.00064574 0)
(0 -0.000585113 0)
(0 -0.000629853 0)
(0 -0.00056966 0)
(0 -0.000613075 0)
(0 -0.000553382 0)
(0 -0.000595314 0)
(0 -0.000536239 0)
(0 -0.000576602 0)
(0 -0.000518253 0)
(0 -0.000556966 0)
(0 -0.000499424 0)
(0 -0.000536433 0)
(0 -0.000479826 0)
(0 -0.000515125 0)
(0 -0.000571854 0)
(0 -0.00054874 0)
(0 -0.000493055 0)
(0 -0.000524636 0)
(0 -0.000580634 0)
(0 -0.000554464 0)
(0 -0.000500037 0)
(0 -0.000527779 0)
(0 -0.000582574 0)
(0 -0.000553483 0)
(0 -0.000500392 0)
(0 -0.000523595 0)
(0 -0.000576884 0)
(0 -0.000544929 0)
(0 -0.000493198 0)
(0 -0.000511874 0)
(0 -0.000563962 0)
(0 -0.000528181 0)
(0 -0.000580132 0)
(0 -0.000478245 0)
(0 -0.00054205 0)
(0 -0.000594072 0)
(0 -0.000553491 0)
(0 -0.000605764 0)
(0 -0.000562493 0)
(0 -0.000615659 0)
(0 -0.000568955 0)
(0 -0.000622365 0)
(0 -0.00051819 0)
(0 -0.000572386 0)
(0 -0.000625127 0)
(0 -0.00063422 0)
(0 -0.000572672 0)
(0 -0.00062529 0)
(0 -0.000677943 0)
(0 -0.000570064 0)
(0 -0.000622604 0)
(0 -0.000519691 0)
(0 -0.000564258 0)
(0 -0.000616942 0)
(0 -0.000677757 0)
(0 -0.000672358 0)
(0 -0.000735566 0)
(0 -0.000730495 0)
(0 -0.000664105 0)
(0 -0.000722593 0)
(0 -0.000791374 0)
(0 -0.000784107 0)
(0 -0.000711965 0)
(0 -0.000774179 0)
(0 -0.000698385 0)
(0 -0.000761132 0)
(0 -0.00083955 0)
(0 -0.00082702 0)
(0 -0.00651485 0)
(0 -0.00679082 0)
(0 -0.00074461 0)
(0 -0.000811029 0)
(0 -0.000896049 0)
(0 -0.000880725 0)
(0 -0.000968312 0)
(0 -0.000953785 0)
(0 -0.000861667 0)
(0 -0.000935487 0)
(0 -0.000564854 0)
(0 -0.00057606 0)
(0 -0.0142454 0)
(0 -0.0142989 0)
(0 -0.0143646 0)
(0 -0.0143482 0)
(0 -0.0144111 0)
(0 -0.0143941 0)
(0 -0.0142832 0)
(0 -0.014454 0)
(0 -0.014436 0)
(0 -0.00179414 0)
(0 -0.000838646 0)
(0 -0.000913142 0)
(0 -0.00619749 0)
(0 -0.00647912 0)
(0 -0.000494302 0)
(0 -0.00233013 0)
(0 -0.00242965 0)
(0 -0.00200762 0)
(0 -0.00101287 0)
(0 -0.000991329 0)
(0 -0.000886598 0)
(0 -0.000965911 0)
(0 -0.00107358 0)
(0 -0.00104934 0)
(0 -0.00161425 0)
(0 -0.00115997 0)
(0 -0.00113678 0)
(0 -0.00102085 0)
(0 -0.00110929 0)
(0 -0.00122851 0)
(0 -0.00120222 0)
(0 -0.00107703 0)
(0 -0.00117108 0)
(0 -0.00129982 0)
(0 -0.00126997 0)
(0 -0.00113477 0)
(0 -0.00123495 0)
(0 -0.0013736 0)
(0 -0.00133988 0)
(0 -0.00148178 0)
(0 -0.00144927 0)
(0 -0.0013003 0)
(0 -0.00141094 0)
(0 -0.00156338 0)
(0 -0.00152691 0)
(0 -0.00136722 0)
(0 -0.00148528 0)
(0 -0.00164849 0)
(0 -0.00160872 0)
(0 -0.00177545 0)
(0 -0.00173738 0)
(0 -0.00156253 0)
(0 -0.00169315 0)
(0 -0.00187199 0)
(0 -0.00183032 0)
(0 -0.00164268 0)
(0 -0.00178241 0)
(0 -0.00197359 0)
(0 -0.0019276 0)
(0 -0.00212188 0)
(0 -0.00207719 0)
(0 -0.00187408 0)
(0 -0.00202485 0)
(0 -0.00223041 0)
(0 -0.00218057 0)
(0 -0.00196475 0)
(0 -0.00212543 0)
(0 -0.00234446 0)
(0 -0.00229391 0)
(0 -0.00206167 0)
(0 -0.00223306 0)
(0 -0.00246955 0)
(0 -0.00241076 0)
(0 -0.00265048 0)
(0 -0.00259389 0)
(0 -0.00234251 0)
(0 -0.00252825 0)
(0 -0.00278299 0)
(0 -0.00272065 0)
(0 -0.002453 0)
(0 -0.00264866 0)
(0 -0.00291889 0)
(0 -0.00284976 0)
(0 -0.00312125 0)
(0 -0.00305476 0)
(0 -0.00277106 0)
(0 -0.00297877 0)
(0 -0.00325926 0)
(0 -0.00318665 0)
(0 -0.00289257 0)
(0 -0.00311027 0)
(0 -0.00340177 0)
(0 -0.00333642 0)
(0 -0.00302168 0)
(0 -0.00325274 0)
(0 -0.00357096 0)
(0 -0.00349074 0)
(0 -0.00381051 0)
(0 -0.00373428 0)
(0 -0.00339889 0)
(0 -0.00364656 0)
(0 -0.00398338 0)
(0 -0.00389985 0)
(0 -0.00354702 0)
(0 -0.0038058 0)
(0 -0.0041587 0)
(0 -0.00407027 0)
(0 -0.00442234 0)
(0 -0.00433996 0)
(0 -0.00397084 0)
(0 -0.00424641 0)
(0 -0.00461498 0)
(0 -0.00452593 0)
(0 -0.00489388 0)
(0 -0.00480799 0)
(0 -0.00517463 0)
(0 -0.00509299 0)
(0 -0.00471019 0)
(0 -0.00500116 0)
(0 -0.00538163 0)
(0 -0.00529542 0)
(0 -0.0056719 0)
(0 -0.00558927 0)
(0 -0.00596041 0)
(0 -0.00588153 0)
(0 -0.00549448 0)
(0 -0.00579101 0)
(0 -0.00617401 0)
(0 -0.00608594 0)
(0 -0.00568687 0)
(0 -0.00598471 0)
(0 -0.00556879 0)
(0 -0.00587149 0)
(0 -0.00646831 0)
(0 -0.0054371 0)
(0 -0.0057468 0)
(0 -0.00617608 0)
(0 -0.0060562 0)
(0 -0.00560982 0)
(0 -0.00592329 0)
(0 -0.00513075 0)
(0 -0.00648395 0)
(0 -0.00459985 0)
(0 -0.00545821 0)
(0 -0.00577807 0)
(0 -0.00529204 0)
(0 -0.00562134 0)
(0 -0.00610014 0)
(0 -0.00595076 0)
(0 -0.00642281 0)
(0 -0.00627709 0)
(0 -0.00578777 0)
(0 -0.00611739 0)
(0 -0.00659955 0)
(0 -0.0064438 0)
(0 -0.00593939 0)
(0 -0.0062716 0)
(0 -0.00496471 0)
(0 -0.00574335 0)
(0 -0.00608132 0)
(0 -0.00691712 0)
(0 -0.00386187 0)
(0 -0.0114435 0)
(0 -0.000442677 0)
(0 -0.00587388 0)
(0 -0.00616377 0)
(0 -0.00602766 0)
(0 -0.00926155 0)
(0 -0.00238536 0)
(0 -0.00248607 0)
(0 -0.00552835 0)
(0 -0.00243841 0)
(0 -0.00254352 0)
(0 -0.00258616 0)
(0 -0.00265245 0)
(0 -0.00259911 0)
(0 -0.002712 0)
(0 -0.00276605 0)
(0 -0.00282848 0)
(0 -0.00276876 0)
(0 -0.00288833 0)
(0 -0.00294782 0)
(0 -0.00301086 0)
(0 -0.00306995 0)
(0 -0.00313592 0)
(0 -0.0030724 0)
(0 -0.00320034 0)
(0 -0.00326333 0)
(0 -0.00333098 0)
(0 -0.00326297 0)
(0 -0.00339688 0)
(0 -0.00346467 0)
(0 -0.00353407 0)
(0 -0.00360147 0)
(0 -0.00367421 0)
(0 -0.00360197 0)
(0 -0.00374557 0)
(0 -0.00381764 0)
(0 -0.00389217 0)
(0 -0.00381514 0)
(0 -0.00396531 0)
(0 -0.00404226 0)
(0 -0.0041189 0)
(0 -0.00403685 0)
(0 -0.00419401 0)
(0 -0.00427537 0)
(0 -0.00435391 0)
(0 -0.00443396 0)
(0 -0.00451606 0)
(0 -0.00443079 0)
(0 -0.00459667 0)
(0 -0.00468096 0)
(0 -0.00476539 0)
(0 -0.00484929 0)
(0 -0.00493712 0)
(0 -0.00484839 0)
(0 -0.00502402 0)
(0 -0.00511233 0)
(0 -0.00520266 0)
(0 -0.00510936 0)
(0 -0.00529132 0)
(0 -0.00538409 0)
(0 -0.00547593 0)
(0 -0.00537763 0)
(0 -0.00556579 0)
(0 -0.0056624 0)
(0 -0.00575598 0)
(0 -0.00584998 0)
(0 -0.0059471 0)
(0 -0.00584689 0)
(0 -0.00604117 0)
(0 -0.00613929 0)
(0 -0.0062365 0)
(0 -0.00613163 0)
(0 -0.00633007 0)
(0 -0.00643274 0)
(0 -0.00652906 0)
(0 -0.00662561 0)
(0 -0.00672674 0)
(0 -0.00662367 0)
(0 -0.00682914 0)
(0 -0.00694015 0)
(0 -0.00703811 0)
(0 -0.00692523 0)
(0 -0.00713574 0)
(0 -0.00724751 0)
(0 -0.0073476 0)
(0 -0.00745828 0)
(0 -0.00756128 0)
(0 -0.00744644 0)
(0 -0.00766365 0)
(0 -0.00777519 0)
(0 -0.00788121 0)
(0 -0.00798924 0)
(0 -0.00809814 0)
(0 -0.00754352 0)
(0 -0.00820202 0)
(0 -0.00831314 0)
(0 -0.00820493 0)
(0 -0.00842111 0)
(0 -0.00852626 0)
(0 -0.00863549 0)
(0 -0.00852423 0)
(0 -0.0087406 0)
(0 -0.00884863 0)
(0 -0.0089559 0)
(0 -0.0144931 0)
(0 -0.0144734 0)
(0 -0.0145104 0)
(0 -0.0144158 0)
(0 -0.0144523 0)
(0 -0.0143926 0)
(0 -0.0144286 0)
(0 -0.0144865 0)
(0 -0.0144625 0)
(0 -0.014522 0)
(0 -0.0144917 0)
(0 -0.0144338 0)
(0 -0.0144629 0)
(0 -0.0145171 0)
(0 -0.0144906 0)
(0 -0.0145408 0)
(0 -0.0145166 0)
(0 -0.0145633 0)
(0 -0.0145374 0)
(0 -0.0145041 0)
(0 -0.000515306 0)
(0 -0.000525449 0)
(0 -0.0106541 0)
(0 -0.00808831 0)
(0 -0.00674488 0)
(0 -0.00184299 0)
(0 -0.00477457 0)
(0 -0.00228393 0)
(0 -0.00862252 0)
(0 -0.0143997 0)
(0 -0.00518012 0)
(0 -0.00524493 0)
(0 -0.00642973 0)
(0 -0.00698979 0)
(0 -0.00587361 0)
(0 -0.00906019 0)
(0 -0.00916938 0)
(0 -0.0107645 0)
(0 -0.0109606 0)
(0 -0.0110317 0)
(0 -0.011217 0)
(0 -0.0112821 0)
(0 -0.0114569 0)
(0 -0.0115174 0)
(0 -0.0116839 0)
(0 -0.0117386 0)
(0 -0.0118951 0)
(0 -0.0119381 0)
(0 -0.0118462 0)
(0 -0.0120921 0)
(0 -0.0121251 0)
(0 -0.0122758 0)
(0 -0.0123032 0)
(0 -0.0121517 0)
(0 -0.0123218 0)
(0 -0.0121729 0)
(0 -0.0123351 0)
(0 -0.0121881 0)
(0 -0.0123486 0)
(0 -0.0121967 0)
(0 -0.0123503 0)
(0 -0.0121994 0)
(0 -0.0123488 0)
(0 -0.0121972 0)
(0 -0.0123427 0)
(0 -0.0121896 0)
(0 -0.0123333 0)
(0 -0.0121786 0)
(0 -0.0123266 0)
(0 -0.0121653 0)
(0 -0.0123071 0)
(0 -0.0121436 0)
(0 -0.0122802 0)
(0 -0.0121149 0)
(0 -0.0122475 0)
(0 -0.012081 0)
(0 -0.01221 0)
(0 -0.012042 0)
(0 -0.0121697 0)
(0 -0.0124654 0)
(0 -0.0125085 0)
(0 -0.0124831 0)
(0 -0.0119972 0)
(0 -0.0121234 0)
(0 -0.01241 0)
(0 -0.012315 0)
(0 -0.0122417 0)
(0 -0.0120033 0)
(0 -0.011948 0)
(0 -0.0120247 0)
(0 -0.0124063 0)
(0 -0.0123464 0)
(0 -0.0118208 0)
(0 -0.0117689 0)
(0 -0.0125047 0)
(0 -0.0124455 0)
(0 -0.0122839 0)
(0 -0.0116371 0)
(0 -0.0115839 0)
(0 -0.0123807 0)
(0 -0.0122176 0)
(0 -0.0120233 0)
(0 -0.00222126 0)
(0 -0.00443997 0)
(0 -0.01114 0)
(0 -0.01038 0)
(0 -0.0125388 0)
(0 -0.0124708 0)
(0 -0.0145886 0)
(0 -0.000464672 0)
(0 -0.00047395 0)
(0 -0.000454773 0)
(0 -0.00118832 0)
(0 -0.0145469 0)
(0 -0.0145623 0)
(0 -0.00556444 0)
(0 -0.0125834 0)
(0 -0.00494083 0)
(0 -0.0115855 0)
(0 -0.000635982 0)
(0 -0.00927023 0)
(0 -0.00915565 0)
(0 -0.0093807 0)
(0 -0.00927504 0)
(0 -0.00240407 0)
(0 -0.0114475 0)
(0 -0.0114956 0)
(0 -0.0113944 0)
(0 -0.0115269 0)
(0 -0.00667762 0)
(0 -0.00721497 0)
(0 -0.00422344 0)
(0 -0.00948746 0)
(0 -0.0093767 0)
(0 -0.00458033 0)
(0 -0.000413231 0)
(0 -0.000421814 0)
(0 -0.00203596 0)
(0 -0.0125557 0)
(0 -0.0126256 0)
(0 -0.00528858 0)
(0 -0.00468151 0)
(0 -0.00388209 0)
(0 -0.0145962 0)
(0 -0.014607 0)
(0 -0.000946863 0)
(0 -0.000923743 0)
(0 -0.0125538 0)
(0 -0.0113363 0)
(0 -0.0114653 0)
(0 -0.0113013 0)
(0 -0.0113436 0)
(0 -0.0116262 0)
(0 -0.00690596 0)
(0 -0.00742305 0)
(0 -0.0130397 0)
(0 -0.0131637 0)
(0 -0.0130637 0)
(0 -0.0131849 0)
(0 -0.0130788 0)
(0 -0.0132012 0)
(0 -0.0130922 0)
(0 -0.0132135 0)
(0 -0.0131025 0)
(0 -0.0132217 0)
(0 -0.0133289 0)
(0 -0.0133342 0)
(0 -0.0132265 0)
(0 -0.0133359 0)
(0 -0.0132284 0)
(0 -0.0133336 0)
(0 -0.0132253 0)
(0 -0.0133283 0)
(0 -0.0132178 0)
(0 -0.01332 0)
(0 -0.0132092 0)
(0 -0.0133057 0)
(0 -0.0131924 0)
(0 -0.0132859 0)
(0 -0.0131724 0)
(0 -0.0132642 0)
(0 -0.0131496 0)
(0 -0.0132399 0)
(0 -0.0131174 0)
(0 -0.0132095 0)
(0 -0.00947899 0)
(0 -0.00120622 0)
(0 -0.00125708 0)
(0 -0.000361105 0)
(0 -0.000369259 0)
(0 -0.0130816 0)
(0 -0.0131727 0)
(0 -0.0145747 0)
(0 -0.0146173 0)
(0 -0.0077201 0)
(0 -0.00790644 0)
(0 -0.00761379 0)
(0 -0.00501054 0)
(0 -0.00440343 0)
(0 -0.0131029 0)
(0 -0.0134389 0)
(0 -0.0146361 0)
(0 -0.0146281 0)
(0 -0.00959053 0)
(0 -0.00947403 0)
(0 -0.00925624 0)
(0 -0.00736365 0)
(0 -0.013291 0)
(0 -0.0122401 0)
(0 -0.0102444 0)
(0 -0.00363878 0)
(0 -0.0132008 0)
(0 -0.0140932 0)
(0 -0.0111442 0)
(0 -0.0111812 0)
(0 -0.0126925 0)
(0 -0.0127748 0)
(0 -0.0128354 0)
(0 -0.00969783 0)
(0 -0.00705396 0)
(0 -0.00736111 0)
(0 -0.00748032 0)
(0 -0.0077774 0)
(0 -0.0076633 0)
(0 -0.00787685 0)
(0 -0.00806988 0)
(0 -0.00795596 0)
(0 -0.00835414 0)
(0 -0.00823573 0)
(0 -0.00127452 0)
(0 -0.00132674 0)
(0 -0.0012219 0)
(0 -0.00829703 0)
(0 -0.00817768 0)
(0 -0.00838288 0)
(0 -0.00825798 0)
(0 -0.00805494 0)
(0 -0.00846032 0)
(0 -0.00631221 0)
(0 -0.00636491 0)
(0 -0.00664535 0)
(0 -0.00668331 0)
(0 -0.0069603 0)
(0 -0.00698482 0)
(0 -0.0072575 0)
(0 -0.00671071 0)
(0 -0.00723883 0)
(0 -0.00753117 0)
(0 -0.00751703 0)
(0 -0.00780414 0)
(0 -0.00779168 0)
(0 -0.00807279 0)
(0 -0.00806208 0)
(0 -0.00777066 0)
(0 -0.00804245 0)
(0 -0.0077389 0)
(0 -0.00801368 0)
(0 -0.00831143 0)
(0 -0.00828572 0)
(0 -0.00797194 0)
(0 -0.008252 0)
(0 -0.00792747 0)
(0 -0.00820891 0)
(0 -0.00787771 0)
(0 -0.00621834 0)
(0 -0.0140709 0)
(0 -0.0054612 0)
(0 -0.0140075 0)
(0 -0.00291983 0)
(0 -0.00449815 0)
(0 -0.00450603 0)
(0 -0.00844685 0)
(0 -0.00387761 0)
(0 -0.00411743 0)
(0 -0.00417468 0)
(0 -0.00441289 0)
(0 -0.00445929 0)
(0 -0.00469802 0)
(0 -0.00317862 0)
(0 -0.00236807 0)
(0 -0.00701671 0)
(0 -0.0104613 0)
(0 -0.00269754 0)
(0 -0.00332387 0)
(0 -0.00338091 0)
(0 -0.00342368 0)
(0 -0.00362409 0)
(0 -0.00198874 0)
(0 -0.00735711 0)
(0 -0.00282404 0)
(0 -0.014366 0)
(0 -0.0143285 0)
(0 -0.0142992 0)
(0 -0.0142604 0)
(0 -0.00288084 0)
(0 -0.00291434 0)
(0 -0.00309878 0)
(0 -0.00575081 0)
(0 -0.00593538 0)
(0 -0.00583051 0)
(0 -0.00601231 0)
(0 -0.00590171 0)
(0 -0.00608137 0)
(0 -0.00619559 0)
(0 -0.00626213 0)
(0 -0.00637999 0)
(0 -0.00215956 0)
(0 -0.00231064 0)
(0 -0.00233993 0)
(0 -0.00249255 0)
(0 -0.00158568 0)
(0 -0.00435054 0)
(0 -0.00450746 0)
(0 -0.00441865 0)
(0 -0.00457331 0)
(0 -0.0044788 0)
(0 -0.0046297 0)
(0 -0.0035274 0)
(0 -0.00366368 0)
(0 -0.00358493 0)
(0 -0.00372015 0)
(0 -0.00363692 0)
(0 -0.0030026 0)
(0 -0.00312412 0)
(0 -0.00305124 0)
(0 -0.00317431 0)
(0 -0.00180763 0)
(0 -0.00193749 0)
(0 -0.0019611 0)
(0 -0.00209319 0)
(0 -0.00150884 0)
(0 -0.0138352 0)
(0 -0.00117898 0)
(0 -0.000661087 0)
(0 -0.00131795 0)
(0 -0.00161995 0)
(0 -0.00164019 0)
(0 -0.00175415 0)
(0 -0.00126826 0)
(0 -0.00128214 0)
(0 -0.00137436 0)
(0 -0.00138361 0)
(0 -0.00410645 0)
(0 -0.000555257 0)
(0 -0.000979359 0)
(0 -0.00105415 0)
(0 -0.00106101 0)
(0 -0.00113811 0)
(0 -0.00114075 0)
(0 -0.00122063 0)
(0 -0.00121961 0)
(0 -0.0011406 0)
(0 -0.00121484 0)
(0 -0.00113779 0)
(0 -0.00120814 0)
(0 -0.00113236 0)
(0 -0.00109304 0)
(0 -0.00781691 0)
(0 -0.000855967 0)
(0 -0.0013619 0)
(0 -0.00172447 0)
(0 -0.00151191 0)
(0 -0.00343538 0)
(0 -0.0007071 0)
(0 -0.0007244 0)
(0 -0.0133373 0)
(0 -0.00425833 0)
(0 -0.00197418 0)
(0 -0.00207503 0)
(0 -0.00204264 0)
(0 -0.000424016 0)
(0 -0.000386507 0)
(0 -0.000368939 0)
(0 -0.000330996 0)
(0 -0.000314729 0)
(0 -0.000346974 0)
(0 -0.000290985 0)
(0 -0.000305431 0)
(0 -0.00805226 0)
(0 -0.00962433 0)
(0 -0.0070705 0)
(0 -0.00050333 0)
(0 -0.00190909 0)
(0 -0.000779725 0)
(0 -0.000743703 0)
(0 -0.000670802 0)
(0 -0.000629393 0)
(0 -0.000351033 0)
(0 -0.000298297 0)
(0 -0.000332854 0)
(0 -0.000281678 0)
(0 -0.000314418 0)
(0 -0.000264853 0)
(0 -0.000295739 0)
(0 -0.000247871 0)
(0 -0.000276864 0)
(0 -0.000230838 0)
(0 -0.000257854 0)
(0 -0.000213784 0)
(0 -0.000238762 0)
(0 -0.000196773 0)
(0 -0.000219661 0)
(0 -0.000261148 0)
(0 -0.000239845 0)
(0 -0.000200615 0)
(0 -0.000218562 0)
(0 -0.000181704 0)
(0 -0.000197407 0)
(0 -0.000233743 0)
(0 -0.000210285 0)
(0 -0.000246106 0)
(0 -0.000220273 0)
(0 -0.000186953 0)
(0 -0.000194521 0)
(0 -0.000227371 0)
(0 -0.000163745 0)
(0 -0.000199125 0)
(0 -0.000231536 0)
(0 -0.000200735 0)
(0 -0.00023273 0)
(0 -0.000199311 0)
(0 -0.000230917 0)
(0 -0.000169983 0)
(0 -0.000266988 0)
(0 -0.000264877 0)
(0 -0.000226065 0)
(0 -0.000259743 0)
(0 -0.000218091 0)
(0 -0.000251457 0)
(0 -0.000295727 0)
(0 -0.000287149 0)
(0 -0.000239772 0)
(0 -0.000275272 0)
(0 -0.000262341 0)
(0 -0.000271993 0)
(0 -0.000303438 0)
(0 -0.000163013 0)
(0 -0.00154347 0)
(0 -0.000638755 0)
(0 -0.00035229 0)
(0 -0.00062133 0)
(0 -0.000564241 0)
(0 -0.000542893 0)
(0 -0.000488419 0)
(0 -0.000463086 0)
(0 -0.000411554 0)
(0 -0.00270423 0)
(0 -0.00275484 0)
(0 -0.00263495 0)
(0 -0.0026809 0)
(0 -0.00256121 0)
(0 -0.00280381 0)
(0 -0.00272478 0)
(0 -0.00285051 0)
(0 -0.000525034 0)
(0 -0.00106905 0)
(0 -0.0017818 0)
(0 -0.000996631 0)
(0 -0.000948154 0)
(0 -0.00085579 0)
(0 -0.000800265 0)
(0 -0.00121622 0)
(0 -0.000303428 0)
(0 -0.00325365 0)
(0 -0.000504938 0)
(0 -0.00120363 0)
(0 -0.0011467 0)
(0 -0.0021782 0)
(0 -0.00144991 0)
(0 -0.00138311 0)
(0 -0.00125202 0)
(0 -0.00117512 0)
(0 -0.00394839 0)
(0 -0.00401233 0)
(0 -0.00385357 0)
(0 -0.0039115 0)
(0 -0.00375227 0)
(0 -0.00428104 0)
(0 -0.00130825 0)
(0 -0.00402499 0)
(0 -0.00305617 0)
(0 -0.00527144 0)
(0 -0.00534846 0)
(0 -0.00515715 0)
(0 -0.00522727 0)
(0 -0.00503437 0)
(0 -0.00509607 0)
(0 -0.00529397 0)
(0 -0.00432859 0)
(0 -0.00438395 0)
(0 -0.00182159 0)
(0 -0.00173618 0)
(0 -0.00157375 0)
(0 -0.00147578 0)
(0 -0.00806094 0)
(0 -0.00517822 0)
(0 -0.00217605 0)
(0 -0.002077 0)
(0 -0.00680488 0)
(0 -0.00688835 0)
(0 -0.00667421 0)
(0 -0.00675023 0)
(0 -0.00653466 0)
(0 -0.00660539 0)
(0 -0.0068226 0)
(0 -0.00493718 0)
(0 -0.00314308 0)
(0 -0.000492587 0)
(0 -0.00104921 0)
(0 -0.000698516 0)
(0 -0.00731332 0)
(0 -0.00269099 0)
(0 -0.00257144 0)
(0 -0.00234517 0)
(0 -0.00220773 0)
(0 -0.00198492 0)
(0 -0.0025183 0)
(0 -0.005724 0)
(0 -0.013356 0)
(0 -0.0144689 0)
(0 -0.00317767 0)
(0 -0.00304715 0)
(0 -0.00417891 0)
(0 -0.000673531 0)
(0 -0.000534803 0)
(0 -0.00713611 0)
(0 -0.00727365 0)
(0 -0.00578918 0)
(0 -0.0056153 0)
(0 -0.0123979 0)
(0 -0.0124776 0)
(0 -0.01232 0)
(0 -0.00840275 0)
(0 -0.00849426 0)
(0 -0.00827055 0)
(0 -0.00835541 0)
(0 -0.00812757 0)
(0 -0.0134276 0)
(0 -0.0093475 0)
(0 -0.00103617 0)
(0 -0.000971023 0)
(0 -0.000703067 0)
(0 -0.00553721 0)
(0 -0.00369821 0)
(0 -0.00640053 0)
(0 -0.0142286 0)
(0 -0.0141881 0)
(0 -0.00614655 0)
(0 -0.00614941 0)
(0 -0.0058931 0)
(0 -0.00744207 0)
(0 -0.0108631 0)
(0 -0.0100253 0)
(0 -0.000165874 0)
(0 -0.000139267 0)
(0 -0.00521905 0)
(0 -0.00487882 0)
(0 -0.00450081 0)
(0 -0.00496825 0)
(0 -0.00188928 0)
(0 -0.00177513 0)
(0 -0.00159201 0)
(0 -0.00225711 0)
(0 -0.00212637 0)
(0 -0.000444698 0)
(0 -0.000429173 0)
(0 -0.00709821 0)
(0 -0.007226 0)
(0 -0.00741023 0)
(0 -0.0138564 0)
(0 -0.0126816 0)
(0 -0.00279137 0)
(0 -0.00264095 0)
(0 -0.00238829 0)
(0 -0.00917587 0)
(0 -0.0111995 0)
(0 -0.00408339 0)
(0 -0.0131148 0)
(0 -0.0129144 0)
(0 -0.0106063 0)
(0 -0.00912568 0)
(0 -0.00329155 0)
(0 -0.0035424 0)
(0 -0.0134741 0)
(0 -0.00954835 0)
(0 -0.0026746 0)
(0 -0.00471628 0)
(0 -0.0095384 0)
(0 -0.00408067 0)
(0 -0.000384034 0)
(0 -0.000365074 0)
(0 -0.000322917 0)
(0 -0.0119423 0)
(0 -0.000560004 0)
(0 -0.000602048 0)
(0 -0.00819593 0)
(0 -0.003147 0)
(0 -0.00368399 0)
(0 -0.00350158 0)
(0 -0.0138756 0)
(0 -0.00812932 0)
(0 -0.0129603 0)
(0 -0.000864676 0)
(0 -0.00131875 0)
(0 -0.0112729 0)
(0 -0.0113972 0)
(0 -0.0134377 0)
(0 -0.00030041 0)
(0 -0.0038047 0)
(0 -0.00396725 0)
(0 -0.00588507 0)
(0 -0.00616536 0)
(0 -0.0126317 0)
(0 -0.000712016 0)
(0 -0.00398608 0)
(0 -0.00337629 0)
(0 -0.00781038 0)
(0 -0.00251187 0)
(0 -0.00176999 0)
(0 -0.0114014 0)
(0 -0.00815571 0)
(0 -0.00781223 0)
(0 -0.00210845 0)
(0 -0.00473554 0)
(0 -0.00410391 0)
(0 -0.00564656 0)
(0 -0.0110979 0)