/*--------------------------------*- C++ -*----------------------------------*\
| =========                 |                                                 |
| \\      /  F ield         | OpenFOAM: The Open Source CFD Toolbox           |
|  \\    /   O peration     | Version:  v2012                                 |
|   \\  /    A nd           | Website:  www.openfoam.com                      |
|    \\/     M anipulation  |                                                 |
\*---------------------------------------------------------------------------*/
FoamFile
{
    version     2.0;
    format      ascii;
    class       volVectorField;
    location    "950";
    object      U;
}
// * * * * * * * * * * * * * * * * * * * * * * * * * * * * * * * * * * * * * //

dimensions      [0 1 -1 0 0 0 0];


internalField   nonuniform List<vector> 
9793
(
(1.10342 -0.108032 0)
(0.971123 -0.177028 -1.79678e-21)
(1.09833 -0.115778 5.29621e-21)
(1.01544 -0.00114521 -3.54544e-24)
(0.700045 0.156104 0)
(1.00399 -0.0072127 3.0307e-22)
(1.01067 -0.000323847 0)
(1.01337 -0.00205814 0)
(1.03567 0.000875736 8.58255e-22)
(0.781479 0.105056 0)
(1.10374 0.00148276 0)
(0.811069 0.0416477 -5.46059e-22)
(1.0153 -0.00105468 0)
(1.01994 -0.000377439 -1.64717e-21)
(1.00295 -3.0808e-05 0)
(1.01866 -0.00115667 0)
(1.02518 -0.00572743 0)
(1.02679 -0.00685767 -1.33569e-21)
(1.01374 -0.231644 0)
(1.01964 -0.00119121 1.78056e-22)
(0.9159 -0.0854946 3.64359e-22)
(1.03671 -0.030713 -2.31546e-21)
(0.885062 0.00580775 -5.16333e-22)
(1.01699 0.000942312 0)
(1.02675 -0.00394505 2.22076e-21)
(1.01529 -0.000856229 1.13614e-22)
(1.01791 -0.00315205 2.78717e-21)
(1.02123 -0.000199561 -9.17187e-23)
(1.10246 -0.0291143 9.83231e-21)
(1.03509 0.000462017 6.61712e-22)
(0.971645 0.021067 -1.10119e-21)
(0.900745 0.0106684 0)
(1.00419 0.197252 4.52653e-21)
(1.00719 2.76562e-05 1.43636e-21)
(1.10755 -0.0351584 3.62031e-21)
(0.898004 -0.120579 0)
(1.00862 -2.19238e-05 0)
(1.03465 -0.0310989 -3.81568e-21)
(1.01356 -0.00314938 0)
(1.01069 -0.000125625 0)
(0.976494 0.0237514 0)
(1.00495 -5.85284e-05 -1.2157e-21)
(1.01396 -0.000579571 9.84211e-23)
(1.0103 -0.000253899 0)
(1.01339 -0.000518838 0)
(1.01485 -0.000695464 -1.53133e-22)
(1.10659 -0.0292434 -4.11206e-21)
(1.01546 0.0713275 0)
(0.982712 0.122333 -1.28854e-22)
(1.01537 -0.00125124 3.8295e-24)
(1.11098 -0.0360483 0)
(1.10977 -0.00175637 0)
(1.00349 -0.0137952 1.21955e-21)
(1.03488 -0.00731796 -4.33598e-21)
(1.19154 -0.013322 -9.92333e-21)
(0.782518 -0.11733 0)
(1.02582 0.001711 -2.82212e-21)
(1.09666 0.0170908 0)
(0.91607 0.256193 1.00201e-20)
(1.01345 -0.00289786 -8.93044e-22)
(1.00903 -0.000117088 -9.13599e-23)
(1.00669 -0.0198883 -8.74145e-22)
(0.919121 0.198358 0)
(1.01757 -0.000545951 0)
(0.525462 0.27079 9.01978e-21)
(1.00553 0.147636 4.67612e-21)
(0.928647 0.194566 1.56808e-21)
(0.946448 0.169927 -1.98482e-21)
(0.835703 0.0511187 0)
(1.1038 -0.00102723 0)
(1.20367 -0.0268726 -5.95064e-21)
(1.01291 0.000240262 -3.37878e-23)
(1.0169 -0.00471234 4.36952e-23)
(1.04736 -0.0669847 2.12052e-22)
(1.11459 -0.041155 0)
(0.923789 0.256488 7.83086e-21)
(1.02643 0.00111438 2.99915e-21)
(1.01984 -0.00349629 -2.77196e-22)
(1.01797 0.0105739 0)
(1.02221 0.00240315 -1.44995e-21)
(0.989009 0.149017 0)
(1.0126 0.00925725 2.119e-21)
(0.936258 -0.204884 1.80295e-21)
(0.998665 0.0473578 -4.36543e-23)
(0.981531 0.0172451 0)
(1.00616 0.0640638 6.61639e-22)
(1.02375 0.00265339 -1.40184e-21)
(1.02702 0.000440995 -1.05474e-23)
(1.00933 -0.0172172 0)
(1.0081 0.00767381 3.17712e-21)
(0.980841 -0.170237 0)
(0.663465 0.148329 5.8916e-21)
(1.01095 -9.48918e-05 5.08115e-22)
(0.901627 0.0300365 6.90895e-22)
(1.0086 -0.0193442 0)
(0.991901 0.0456437 -1.61195e-21)
(0.813196 -0.0988858 0)
(0.947749 -0.196055 -3.03139e-21)
(1.01123 -0.000234303 -4.34631e-24)
(1.01257 0.00149202 -8.86147e-22)
(1.01279 0.00158576 2.41207e-21)
(1.0062 0.000129304 -2.23689e-21)
(1.01354 -0.00188683 -9.48832e-22)
(1.01347 -0.00163596 2.82167e-21)
(1.02026 -0.00272278 2.79145e-22)
(0.986136 0.0184924 -3.9155e-22)
(1.01096 -0.017117 -5.23082e-23)
(1.00939 -0.00013291 7.40592e-22)
(1.00564 -0.0137434 4.17014e-22)
(1.05105 0.0779033 1.12381e-21)
(1.01202 0.000137911 0)
(0.877427 -0.0445561 0)
(1.02374 0.00153123 0)
(0.814401 -0.160124 1.88074e-21)
(1.11221 -0.00457972 1.20732e-20)
(1.02643 0.0015322 1.79267e-21)
(1.04846 0.150363 -9.92722e-21)
(1.11262 -0.0459491 -1.33178e-20)
(1.01287 0.0113529 -2.16626e-21)
(0.916451 0.0339699 0)
(1.04192 0.0912753 -2.60433e-21)
(1.00603 7.41827e-05 7.38946e-23)
(1.02461 -0.00314109 1.16308e-22)
(1.00221 -0.0058817 1.62783e-21)
(1.04173 -0.0109595 6.24628e-21)
(0.906239 -0.0770441 -3.64632e-22)
(1.0895 0.00513246 2.8612e-22)
(0.99743 0.0653057 0)
(1.01915 0.0125723 -5.2563e-22)
(1.01854 -0.00469771 -2.73758e-22)
(1.01116 0.000138937 -3.68752e-23)
(1.02709 0.000873485 -2.7981e-21)
(1.01852 -0.00486956 0)
(1.00694 -0.00652809 0)
(1.03408 0.000898903 -7.2745e-22)
(1.02752 -0.000291468 3.50384e-22)
(1.01692 -0.000405764 0)
(1.01048 -0.000240533 0)
(1.02335 0.00135216 3.47298e-21)
(1.01303 0.000415556 1.0595e-21)
(1.0241 -0.00307249 1.89963e-21)
(1.02527 -0.00585365 -1.09714e-21)
(1.01356 -0.000657346 9.54938e-23)
(1.01402 0.00267193 -1.79066e-21)
(1.02104 -0.00017301 1.40531e-21)
(1.02365 -0.000705451 -2.89063e-21)
(1.01408 -0.0789927 5.23458e-23)
(1.01375 0.00264933 0)
(1.01164 -0.00106674 0)
(0.611756 0.161199 0)
(1.04698 -0.267405 -1.36245e-20)
(1.01074 0.000114213 -4.46991e-23)
(1.05417 -0.240357 0)
(0.894044 0.0207003 1.04113e-20)
(1.01182 -0.00102268 0)
(1.00896 0.000193643 0)
(1.01167 0.00021695 2.08671e-22)
(1.02394 -0.00606427 -5.62992e-22)
(1.01331 0.00214642 0)
(1.01354 -0.000640777 -1.11271e-22)
(1.01333 -0.00216639 -2.3945e-21)
(1.02124 -0.00111748 -1.50217e-21)
(1.01561 -0.0017418 -1.58695e-21)
(0.991633 -0.212523 0)
(1.0302 -0.0862338 9.88284e-22)
(0.913618 -0.0995154 0)
(1.00511 0.0741596 -6.83674e-22)
(1.06203 -0.0343301 1.06611e-20)
(1.01703 -0.00269022 -2.09702e-21)
(1.00908 -0.000586754 -1.50063e-21)
(1.01716 -0.00179911 6.69256e-22)
(0.824201 -0.102153 0)
(1.02366 -0.098058 -1.01316e-21)
(0.822903 -0.142305 -1.51536e-20)
(1.04148 -0.00882583 0)
(1.00959 -0.217292 0)
(1.02762 0.000167667 -3.58169e-22)
(1.01685 0.00105647 -1.31037e-22)
(1.01826 -0.00553832 1.61375e-22)
(1.07742 -0.0152866 -5.00478e-21)
(0.219151 -0.0724192 2.48481e-20)
(1.05228 -0.000957241 7.87869e-21)
(1.01303 0.00206782 -1.53926e-21)
(1.02545 -0.00443114 -2.36433e-21)
(0.928022 0.275933 1.27397e-20)
(1.01684 -0.00443943 1.03754e-23)
(1.09438 0.0191674 0)
(1.018 -0.00538883 -5.33744e-22)
(1.02373 -0.0041477 -1.53491e-21)
(1.01615 -0.00154221 1.81707e-22)
(1.0421 -0.00799876 0)
(1.02055 -2.25647e-05 3.9006e-23)
(0.995597 0.123173 3.73622e-22)
(0.887265 -0.0567398 -1.95545e-21)
(0.929578 0.178407 1.72235e-21)
(1.07572 -0.0146788 1.45588e-20)
(1.10778 -0.15085 -3.33646e-21)
(1.01082 0.00252316 0)
(0.917417 -0.00873453 0)
(1.01289 0.000395628 -6.42385e-22)
(1.03359 0.000566127 -1.58176e-21)
(0.976556 -0.190065 -2.0739e-21)
(0.782864 -0.139265 -2.57101e-21)
(1.01885 -0.00446494 -6.20173e-22)
(1.02813 -0.00062833 0)
(1.0193 -0.00194737 -6.18861e-24)
(0.900279 -0.105985 -1.10693e-22)
(1.0173 0.0017376 0)
(0.989882 0.0131072 6.97431e-22)
(1.04967 -0.0134376 -4.52694e-21)
(1.08282 -0.0258969 0)
(1.02647 0.10689 0)
(0.95374 0.133344 2.5988e-22)
(1.03584 -0.00746738 0)
(1.11034 -0.161809 -4.71691e-21)
(1.01191 0.00023531 6.11671e-22)
(1.00867 -0.00322408 3.38367e-21)
(0.946167 0.265087 -1.71647e-21)
(1.01948 -0.00140352 0)
(0.866661 0.222985 0)
(1.12127 -0.0702085 3.4946e-22)
(1.02556 -0.00153902 0)
(1.04243 -0.0100476 0)
(1.0204 4.6403e-05 0)
(0.993395 0.0560249 0)
(0.987858 -0.20105 2.32527e-21)
(1.00409 -0.00949894 -1.38835e-21)
(1.01211 -0.00122671 -2.6999e-21)
(1.12364 -0.0628748 7.49328e-21)
(1.1018 -0.0062809 2.07624e-21)
(1.0173 0.000784742 0)
(1.017 0.00096668 6.60173e-24)
(1.05346 -0.000551124 -8.65676e-21)
(1.01261 0.000335251 0)
(1.09378 0.00303223 -1.24129e-20)
(0.875162 0.207008 0)
(1.02303 0.000833982 5.41201e-23)
(1.01701 -0.00239092 -1.25657e-21)
(0.818446 -0.0789244 -2.08286e-21)
(1.00835 0.00337567 4.5661e-23)
(0.993714 0.0139717 0)
(1.02009 0.00119983 3.27779e-21)
(1.01727 -0.00241787 -2.03626e-21)
(1.00176 0.180613 0)
(1.01676 -0.00264844 -5.30424e-22)
(1.01151 -0.000689631 1.00146e-21)
(1.01324 -0.00189618 -5.99013e-22)
(1.02335 -0.00727272 5.36641e-22)
(1.01128 -0.000666437 -1.90747e-21)
(1.00819 1.84902e-05 -1.69426e-21)
(1.02858 -0.0157016 -1.75054e-21)
(1.06253 -0.0167971 0)
(1.11051 -0.00794204 -6.97411e-21)
(1.09168 0.0040095 2.08618e-20)
(1.01669 -0.00258742 1.11456e-21)
(1.02881 -0.03692 1.63281e-22)
(1.01659 -0.00246429 -1.17149e-21)
(1.06397 -0.0178986 -4.01733e-21)
(1.00735 0.00387009 0)
(1.01637 0.00206837 -2.9254e-21)
(0.977152 0.209883 2.48219e-21)
(1.01679 -0.00262336 0)
(1.11236 -0.0112771 -1.48465e-20)
(1.00863 4.79172e-05 -5.39228e-22)
(1.06476 -0.0347175 -4.90487e-21)
(1.01812 -0.000118978 1.69334e-23)
(1.01822 0.000109902 0)
(1.08238 -0.0287721 -1.69253e-20)
(0.965625 -0.191451 0)
(1.01198 -0.0149338 -2.62407e-22)
(1.01622 0.00235724 0)
(1.01445 0.000108722 0)
(1.04296 -0.0496664 -2.44474e-21)
(1.02618 -0.0010077 0)
(1.00837 -0.143613 0)
(1.00414 -0.145514 -4.59331e-22)
(1.01884 -0.00468569 -4.13265e-22)
(0.880746 -0.0710071 1.83069e-22)
(1.0198 -0.000335181 -1.8086e-21)
(1.09084 0.0051096 -3.53065e-20)
(1.02213 -0.00724063 2.60934e-22)
(1.01779 0.000623269 -6.97142e-23)
(1.00787 -7.8562e-05 -1.4295e-21)
(1.01081 -0.000138813 1.40813e-21)
(1.08892 0.00592509 0)
(1.02547 -0.00183786 -1.39663e-21)
(1.02759 -0.0158797 -4.43042e-21)
(1.06429 -0.028808 -7.47671e-22)
(1.01238 -0.000462334 5.31862e-22)
(1.02801 -0.00110135 -1.20764e-22)
(1.02342 0.00101628 -4.66388e-22)
(1.03405 0.168408 0)
(1.00852 -0.0121176 1.66433e-22)
(1.00862 -0.000174021 0)
(1.0106 0.000106782 0)
(1.00609 -0.00523603 1.21083e-21)
(1.04146 -0.015589 -8.42091e-22)
(1.06623 -0.0295551 -5.3483e-21)
(1.0194 -0.000774353 -6.68221e-22)
(0.913944 -0.248886 -7.03698e-21)
(1.01199 -0.00132543 0)
(0.886876 0.234378 7.0491e-21)
(0.994994 0.169048 0)
(1.00777 6.04214e-06 3.78426e-22)
(1.00956 -0.000203922 -1.32913e-21)
(1.01515 0.00286006 -1.00887e-21)
(1.04311 -0.0526691 2.56099e-21)
(1.05239 -0.0330269 -3.1673e-21)
(1.02031 -0.00784991 -1.52247e-23)
(0.898599 0.234519 0)
(1.01939 -0.000291176 -5.38009e-23)
(1.01528 0.00264585 -1.4545e-21)
(1.05172 -0.0348468 4.24383e-21)
(1.02425 -0.0184932 8.32965e-22)
(1.02892 -0.0108886 -6.57199e-21)
(1.00867 0.00606111 -2.31406e-21)
(1.00103 0.0562066 -1.3366e-21)
(1.01835 -0.00304902 -2.13359e-22)
(1.04591 -0.0449578 2.64724e-21)
(1.05113 -0.0131433 -1.46699e-21)
(1.0169 -0.00289777 0)
(1.04325 -0.0789996 -4.29533e-22)
(1.07485 -0.195823 -6.46618e-21)
(1.04112 -0.0637814 2.23046e-24)
(1.01894 -0.000828884 6.76399e-23)
(0.311799 -0.0695693 -9.97898e-21)
(1.04097 -0.0180812 -2.26325e-21)
(0.912434 0.246509 -8.66513e-21)
(1.11868 -0.0510111 3.50004e-21)
(1.01472 -0.000658048 1.11627e-21)
(1.06114 0.00304163 -1.13956e-20)
(1.11685 -0.0568449 0)
(1.00732 -0.000546556 0)
(0.996364 0.00950678 0)
(1.10858 0.0034779 0)
(1.013 -0.00163599 -3.48524e-22)
(1.01381 -0.000558678 -9.85902e-23)
(1.03273 0.000648506 2.75287e-21)
(1.00966 6.40258e-05 1.60878e-21)
(1.02202 0.000339279 6.6284e-22)
(1.11509 -0.128242 7.02762e-21)
(1.01783 -0.00553506 -2.97862e-22)
(1.01664 -0.0027917 8.25442e-22)
(0.905148 -0.245143 8.07417e-21)
(1.00779 0.00205728 0)
(1.01819 -0.00168159 0)
(1.01846 -0.000605189 -2.1164e-22)
(1.03581 -0.0239928 0)
(1.01308 -0.00179659 1.18493e-21)
(1.12012 -0.138268 -7.76928e-21)
(1.04173 -0.0132208 0)
(1.02663 -0.00493253 -3.27218e-21)
(1.02356 -0.0154163 0)
(1.0065 0.00162085 0)
(0.78193 0.00348432 -5.51309e-21)
(1.03435 -0.00653591 8.93108e-21)
(0.993589 -0.0577965 0)
(1.01705 0.000994919 8.14901e-23)
(1.0936 -0.0157373 0)
(1.1789 -0.0220044 5.91895e-21)
(1.09742 0.021405 7.21928e-21)
(1.0959 -0.0153858 0)
(1.0342 -0.023154 8.30683e-22)
(1.00479 -0.00855346 1.31808e-21)
(1.09944 -0.178577 7.74364e-21)
(1.00878 -0.00011446 1.10603e-22)
(0.972915 0.205765 4.82259e-22)
(1.01009 0.00584465 1.68448e-21)
(1.01246 0.000345565 2.98863e-22)
(1.02044 0.137616 -2.83589e-21)
(0.999437 0.00996164 -3.05451e-22)
(1.0759 -0.207066 6.37133e-23)
(1.02675 -0.00464846 3.40106e-21)
(1.09509 0.00329449 1.33336e-20)
(0.908069 -0.128746 -1.18718e-21)
(1.02751 0.00805247 0)
(1.01685 -0.00410918 8.87828e-23)
(1.02021 0.190878 -1.68617e-20)
(1.07205 -0.00861966 6.41237e-21)
(1.0233 -0.0791925 0)
(1.03123 -0.0366808 -3.33802e-21)
(1.03415 -0.00503046 -1.20538e-21)
(0.952149 0.196075 0)
(1.01928 -0.000703353 0)
(1.0402 -0.02071 -2.1094e-21)
(1.00766 6.51129e-05 1.11726e-21)
(1.00989 -0.000120913 -2.05022e-22)
(1.01867 -0.00264379 0)
(1.03485 -0.00575417 0)
(1.03195 -0.0340014 5.10995e-21)
(0.78514 -0.00539965 1.18152e-20)
(1.03996 -0.00663597 -9.80964e-21)
(0.212091 0.244717 1.13322e-21)
(0.907733 0.0891559 0)
(1.08757 -0.179354 6.37405e-21)
(1.10022 -0.00409642 6.83361e-21)
(1.03087 -0.0513417 -4.87784e-23)
(1.01042 -0.000107296 8.48908e-22)
(1.03242 0.000991954 2.47313e-21)
(1.20644 -0.135631 0)
(0.917924 0.0996877 2.85291e-23)
(1.02004 0.00193954 -1.98929e-22)
(1.04408 0.000818001 -6.09375e-21)
(0.897769 -0.208731 -7.27005e-21)
(1.01428 7.88139e-05 -1.38797e-21)
(0.836164 -0.163053 -1.75517e-21)
(1.017 -0.00231275 2.15784e-21)
(1.03415 -0.033691 7.7214e-22)
(1.01405 0.000210078 3.07641e-21)
(1.08457 -0.0340847 9.37726e-22)
(1.01761 -0.00534781 1.37602e-22)
(1.07368 -0.00926534 -7.09621e-21)
(0.891636 -0.0821675 -1.80217e-22)
(1.01717 0.00212511 1.68285e-21)
(0.884099 -0.0136535 1.59216e-21)
(1.02567 -0.0228967 -2.92453e-22)
(1.04244 -0.0145645 8.77466e-22)
(1.02861 -0.0215123 -8.517e-22)
(1.01031 0.00451671 -1.52798e-21)
(1.01216 -0.0162429 4.33155e-22)
(1.02378 0.000663133 0)
(0.999382 -0.158598 -3.94172e-21)
(1.01979 -0.000374855 -3.02314e-21)
(1.02909 -0.0115354 4.01075e-21)
(1.11067 0.00129608 0)
(1.03384 -0.00360223 0)
(1.00888 0.00568734 0)
(1.04211 -0.0170339 -8.13002e-22)
(1.01512 -0.00138391 1.59585e-21)
(1.07854 -0.017209 1.10015e-20)
(1.01311 -0.000523659 1.02058e-21)
(1.02826 -0.0121964 -2.92156e-21)
(1.01353 0.00058745 -1.28361e-21)
(0.904748 -0.0997886 0)
(1.0222 -0.00100618 1.49552e-21)
(0.913473 -0.110665 -4.61323e-22)
(1.00904 -0.00156416 -5.33921e-22)
(1.04813 0.104093 1.7036e-21)
(1.01164 -0.000209592 0)
(1.00832 4.16762e-05 0)
(1.00831 -0.000139697 -2.56663e-21)
(1.03928 -0.00700189 8.04751e-21)
(0.929879 0.265188 1.01517e-20)
(1.01147 0.00328585 -1.08489e-21)
(1.20256 -0.0407051 2.41168e-21)
(1.01682 -0.00183519 7.23719e-22)
(1.01734 -0.00149358 9.60823e-22)
(1.04153 -0.0196479 2.38879e-21)
(0.887377 -0.205888 3.6244e-21)
(0.966432 0.0242138 0)
(1.14108 0.0133438 0)
(1.04381 0.0997382 -9.18857e-22)
(1.00265 -0.0112384 1.15504e-21)
(1.02103 -0.00151671 -3.59701e-23)
(0.984635 -0.0668298 4.28823e-22)
(1.0778 -0.0194943 4.47843e-21)
(1.08097 -0.0346837 0)
(0.955948 -0.190061 2.36229e-21)
(1.00829 -0.219857 1.15171e-20)
(1.01962 -0.00030003 5.91718e-23)
(1.02528 -0.017314 -9.30078e-22)
(1.09637 0.00232534 1.18526e-20)
(1.02488 -0.00363873 0)
(1.00959 0.00903027 -1.13861e-21)
(1.02405 -0.0038522 -1.0765e-22)
(1.01325 -0.00190481 0)
(1.00738 1.05222e-05 -7.27307e-22)
(0.768869 -0.182331 0)
(1.07375 -0.0113287 -5.87404e-21)
(0.957767 0.243217 -1.3973e-20)
(1.01324 -0.00218416 0)
(1.03915 -0.0552128 1.00912e-21)
(1.01668 0.00107738 -4.60345e-24)
(1.00826 1.95827e-05 0)
(1.00967 9.47927e-05 1.40307e-21)
(1.01111 0.00840262 0)
(0.981083 -0.0627593 -9.17681e-22)
(1.00841 -0.00223122 1.16457e-21)
(1.02481 -0.0149112 1.28029e-21)
(1.01375 0.000195148 0)
(1.01808 -0.000750618 5.47971e-22)
(1.01054 0.00988034 1.54098e-21)
(1.03356 0.0872945 3.69098e-21)
(1.01234 -0.000470312 0)
(1.02081 -0.00145399 0)
(0.988779 0.208995 -9.94994e-21)
(1.00139 0.00638625 4.29417e-21)
(1.04258 -0.0122519 3.74306e-21)
(0.916562 0.206959 4.93612e-21)
(1.02819 0.116397 7.35267e-22)
(1.00884 8.23249e-05 -2.6611e-22)
(1.00709 0.000115827 3.36545e-22)
(1.04066 -0.0223707 2.92337e-21)
(1.00828 0.00838419 -1.67376e-21)
(1.02847 -0.012796 0)
(1.01386 -0.000434754 0)
(1.01809 -0.000558613 -1.6557e-21)
(1.01007 0.00249257 -2.91346e-22)
(1.01668 -0.00212499 7.6591e-22)
(1.01684 -0.00257143 -7.82749e-22)
(1.00623 -0.0660509 -5.82462e-23)
(1.11721 -0.0106888 5.66209e-21)
(1.01152 0.000189264 -5.71245e-22)
(0.923611 0.274759 -2.08066e-20)
(1.05841 -0.0660728 -4.01037e-21)
(1.0117 0.000574016 1.0169e-21)
(1.00925 -0.0138184 3.35504e-22)
(1.0161 0.010464 0)
(0.885208 -0.031659 0)
(1.02135 -0.00813807 9.25037e-22)
(0.720645 -0.0596034 -7.81289e-21)
(1.0151 -0.000898076 0)
(1.01712 -0.00241486 1.05672e-23)
(1.10513 -0.00554047 -1.65371e-21)
(1.02325 -0.00399375 1.64446e-21)
(1.08795 -0.00926432 -1.53352e-20)
(1.02495 0.0853641 2.5726e-20)
(1.04634 -0.0477356 2.77458e-21)
(1.01184 0.000870285 -9.83936e-22)
(0.173038 0.212532 1.24376e-20)
(1.00385 0.00667041 -4.51018e-21)
(1.01449 0.000312546 -1.33695e-21)
(1.01925 -0.00170411 1.01569e-21)
(1.09429 0.00756096 0)
(1.01539 -0.00332859 0)
(1.01431 0.000172041 2.64726e-21)
(1.01971 -0.000656564 5.16618e-22)
(1.01532 -0.00317642 0)
(1.01346 0.162971 -5.49682e-21)
(1.09292 0.00409846 -1.46009e-20)
(1.05606 -0.0640212 4.56311e-22)
(1.00669 -0.0119931 -5.01178e-22)
(1.01897 -0.00202573 -3.86254e-23)
(1.01756 -0.00300108 1.4348e-21)
(1.03177 -0.00449445 3.9931e-21)
(1.01212 0.000176063 3.86971e-22)
(1.01968 -0.00056697 4.81763e-22)
(0.906109 -0.0227602 -5.00873e-21)
(1.10439 0.0262093 -1.71008e-20)
(1.01474 2.78117e-06 -7.3518e-22)
(1.00888 -0.0154657 -1.66712e-21)
(1.21307 -0.129475 -9.77582e-21)
(1.01822 -0.00913865 2.36778e-23)
(1.05249 0.0167663 0)
(0.995058 -0.0628553 3.06211e-22)
(1.01249 0.000247319 0)
(1.10571 0.00271096 0)
(0.943833 0.241895 1.49098e-20)
(1.02611 -0.00138693 0)
(1.08765 0.0112076 -1.90196e-20)
(1.01801 0.00063061 4.05212e-22)
(0.81268 -0.141168 3.70695e-21)
(1.06397 -0.0253682 -6.34701e-21)
(1.02141 0.124087 0)
(1.01694 -0.00439266 -2.50827e-23)
(1.01711 -0.00249506 7.06663e-22)
(1.02547 -0.00374846 0)
(0.980718 -0.152885 0)
(1.00492 -0.0101743 0)
(0.921208 0.218529 -1.91665e-21)
(0.97938 0.164247 6.22534e-22)
(0.489887 0.263168 -6.92953e-21)
(1.08984 -0.00934576 -9.69694e-21)
(0.713538 -0.0185259 -3.76899e-21)
(1.07978 -0.0379563 6.47748e-21)
(1.00473 -3.79885e-05 7.91997e-22)
(1.08282 -0.00437344 1.23699e-20)
(1.00837 -0.0136648 1.64599e-21)
(1.0227 0.161012 3.96048e-21)
(1.03261 -0.00882147 1.68606e-21)
(1.05944 0.0996192 0)
(1.01342 0.00147739 3.43032e-22)
(1.07007 0.00397109 -4.41406e-22)
(1.00879 -7.75529e-05 2.05913e-21)
(1.04716 0.00255456 -7.55799e-21)
(1.01724 -0.00287904 -1.57083e-21)
(1.09727 0.0214192 -1.98933e-20)
(1.01333 0.000892532 -1.04254e-21)
(1.01075 0.000114169 7.46368e-23)
(1.05186 -0.00494376 8.57856e-21)
(1.05118 -0.0169665 0)
(1.07548 -0.0120112 -6.38725e-21)
(1.01708 -0.0049429 0)
(1.02194 -0.00354064 1.37935e-21)
(1.01868 -0.00879585 0)
(1.01851 -0.00824517 5.19537e-22)
(1.03115 -0.235182 -7.56791e-21)
(1.01554 -0.0014743 -5.7262e-23)
(1.00863 -0.226109 -1.472e-20)
(0.863784 -0.176403 1.07937e-21)
(1.01553 -0.00138409 0)
(1.00915 -0.00013164 -1.7039e-21)
(1.0398 -0.0578218 -1.22606e-21)
(1.04415 -0.000149849 -2.17882e-22)
(1.02383 -0.00338273 0)
(1.02611 -0.0172089 0)
(1.02566 0.00933384 -8.66128e-23)
(1.06531 -0.0238739 1.02898e-20)
(1.05179 0.00174696 8.32269e-21)
(1.05222 -0.0160202 -2.97872e-21)
(1.01335 -7.24972e-05 0)
(1.01497 0.0119267 1.08552e-21)
(1.03413 -0.0211812 0)
(1.06349 -0.0203349 7.02096e-21)
(1.0236 -0.0174361 -5.28174e-23)
(1.03639 -0.0252872 0)
(0.984693 -0.260927 9.43365e-21)
(1.02124 -0.00891477 -1.1994e-21)
(1.00555 -0.168785 6.39894e-21)
(1.07045 -0.00574422 -9.66252e-21)
(1.01052 -0.000293272 0)
(1.02234 -0.00367456 -2.81299e-21)
(1.01265 -0.00134875 8.33534e-22)
(1.00186 -0.00315247 2.3947e-21)
(1.00032 -0.00471222 -1.31411e-21)
(1.01686 -0.00257423 1.22371e-21)
(1.00793 -0.00326755 0)
(1.01653 0.00111326 0)
(1.01795 -0.00291514 0)
(1.00752 -0.00248611 2.47572e-21)
(1.01884 -0.00159111 7.13945e-22)
(1.02484 -0.0347349 0)
(1.01328 0.000583612 1.10279e-21)
(1.04738 0.00152334 3.98043e-21)
(1.00692 -4.17341e-05 0)
(1.03451 -0.00420435 1.26978e-21)
(1.0235 -0.0326479 0)
(1.05302 0.00154631 0)
(1.08457 -0.00477721 -1.03698e-20)
(1.00781 2.05493e-05 1.74282e-21)
(1.01628 -0.00271343 1.21063e-22)
(1.02263 -0.00343999 1.56391e-21)
(1.01357 0.000108222 0)
(1.01381 0.00383798 -1.30928e-21)
(1.01059 0.00024771 0)
(1.01339 0.00394453 1.31829e-21)
(1.01633 -0.00275986 -7.07365e-22)
(1.02166 -0.00894868 0)
(1.01331 0.00112672 -3.43665e-22)
(1.08892 -0.0269425 -1.00904e-20)
(1.01031 -0.000107709 -1.86845e-22)
(1.00815 -4.75832e-05 2.08247e-21)
(1.02519 -0.00281612 1.69674e-22)
(1.08863 0.067714 9.33705e-22)
(1.01639 -0.00232111 3.89177e-23)
(1.0139 0.00024818 -1.74777e-21)
(1.10076 0.00230255 -1.93626e-20)
(1.01793 0.000813164 4.44493e-23)
(1.01471 -6.96165e-05 7.16491e-22)
(1.0748 0.0188532 -1.60177e-20)
(1.02666 -0.00258533 1.48631e-21)
(1.01171 -0.000367338 0)
(1.01008 0.000128012 -1.5255e-22)
(1.09505 0.0147277 -4.27574e-21)
(1.01271 -0.00148496 1.74439e-21)
(1.09775 0.00280586 0)
(0.528389 0.248904 -7.37363e-21)
(0.997766 0.00413935 2.61588e-20)
(0.992621 0.118033 -2.44197e-21)
(1.01473 -0.000878508 0)
(1.02572 -0.0034234 3.76271e-21)
(1.04952 -0.168648 1.52939e-21)
(1.01801 -0.0121167 -2.36676e-21)
(1.01363 0.000467888 0)
(1.0258 -0.0603041 5.48052e-23)
(1.03717 0.119935 0)
(1.16153 -0.0741751 0)
(1.02307 -0.00355847 -1.58699e-21)
(1.09472 0.00775225 2.10858e-20)
(1.02572 -0.00314446 -2.82148e-21)
(1.02475 -0.0028042 -1.29011e-22)
(0.793695 -0.184185 2.26581e-21)
(1.01902 -0.00154725 1.42777e-21)
(0.95992 -0.0661521 1.16929e-21)
(1.00653 0.0108984 1.26249e-21)
(1.11932 -0.0149343 0)
(1.01614 -0.00265201 4.76319e-22)
(1.05089 -0.0262134 0)
(1.03273 -0.0204045 0)
(1.09428 0.0151196 2.52533e-20)
(0.858396 0.322373 0)
(1.0173 -0.00194104 -2.17048e-21)
(1.00667 0.0091023 -1.74061e-22)
(1.0757 0.00120058 2.54473e-22)
(1.01614 -0.00266418 0)
(1.00522 0.00395272 0)
(1.0993 0.00152378 2.23927e-20)
(0.424382 -0.0109758 -3.73821e-22)
(1.01669 -0.00393276 -6.11383e-23)
(1.05659 0.00896998 -1.04239e-22)
(1.0194 -0.0117113 0)
(1.0565 -0.031809 -2.40477e-20)
(1.05552 0.00298612 -1.37197e-22)
(1.03122 0.18376 -2.40587e-20)
(1.05093 -0.101891 0)
(1.02099 0.00511476 -9.3745e-22)
(0.981249 -0.0104781 0)
(0.877463 0.249332 -1.55033e-20)
(1.01638 -0.00247391 2.40613e-22)
(1.01865 -0.00185679 0)
(1.00744 -6.51582e-05 -1.58753e-21)
(1.02319 0.0094653 1.08178e-21)
(1.01341 0.000861743 2.47113e-21)
(0.759887 -0.15869 2.5722e-21)
(1.01347 0.000703345 -1.80728e-23)
(0.97749 -0.24269 -1.08412e-20)
(1.05979 0.00230434 1.2043e-20)
(0.976009 0.0723991 2.44592e-22)
(1.10606 -0.00279789 0)
(1.03261 -0.00445711 -4.44074e-21)
(1.18522 0.00579804 0)
(0.874738 -0.200781 0)
(1.04026 -0.0107516 -6.71277e-21)
(0.980201 0.155498 -2.56919e-21)
(0.984003 -0.012377 -3.84134e-22)
(1.09567 0.0100715 -1.76331e-20)
(1.01345 0.000689813 1.44912e-22)
(1.01765 0.000892211 2.95178e-22)
(0.981589 0.190446 0)
(1.01587 -0.00743893 -6.27517e-23)
(0.83689 0.305855 0)
(1.01355 -0.000664821 -4.09748e-22)
(1.03645 -0.139275 -5.78218e-21)
(1.01521 -0.00106191 -2.01149e-21)
(1.01821 0.0805419 2.68729e-22)
(0.988141 0.158959 0)
(1.02188 0.00455074 1.06324e-21)
(0.0690599 0.107105 4.30514e-20)
(1.01972 -0.000285426 1.71148e-21)
(1.05318 -0.00453535 0)
(1.09117 -0.0133314 0)
(0.827102 -0.215812 -9.82339e-21)
(0.845864 -0.209008 -7.64355e-21)
(1.01498 0.00524 -9.60588e-22)
(1.01555 -0.0012947 9.67816e-22)
(1.01393 9.34596e-05 1.36713e-21)
(0.999385 0.063155 -2.60833e-20)
(0.899781 -0.230119 0)
(1.01698 -0.000381504 1.48341e-21)
(0.99472 -0.0116118 4.09316e-21)
(1.04996 0.0246759 -1.66474e-22)
(1.01363 0.000383495 -3.41554e-22)
(1.01576 -0.00256886 1.93958e-22)
(1.00664 -0.00781601 0)
(0.966656 -0.0717464 -1.1953e-21)
(1.0366 0.011485 -3.54002e-21)
(1.0151 -0.00799889 0)
(1.01016 5.84039e-05 7.07858e-22)
(1.01331 -0.00248367 0)
(0.981383 0.125321 4.44317e-21)
(1.20239 -0.10181 0)
(1.03431 -0.0378234 -8.44659e-22)
(1.01385 0.000181449 0)
(1.01437 -0.000907998 -6.43166e-22)
(1.10802 0.0402005 -2.11221e-21)
(1.01884 -0.00181319 -7.28603e-22)
(0.996575 0.165925 0)
(1.10113 -0.0250516 0)
(0.963101 -0.249796 -1.64061e-20)
(1.06015 0.0749322 0)
(1.04743 -0.120071 7.20452e-21)
(1.01469 -0.00267708 -1.55349e-21)
(1.03292 -0.00374734 0)
(1.06056 -0.0104708 -8.84119e-21)
(1.04954 -0.00448465 6.93783e-21)
(1.06492 -0.0212865 -4.1563e-21)
(1.01926 -0.00103504 0)
(1.09537 0.00763738 1.45267e-20)
(1.05466 -0.169726 0)
(1.01411 -0.00136179 1.40439e-21)
(0.858509 -0.197833 -5.96787e-21)
(1.01321 -0.00231698 0)
(0.892 -0.0740386 -5.04639e-22)
(1.03848 -0.000671007 -9.29055e-21)
(1.07652 0.0551642 7.7554e-21)
(1.0189 -0.0394347 -6.51598e-22)
(1.03489 0.0119069 -1.68984e-21)
(1.0165 -0.0039734 2.57054e-23)
(1.01766 0.0120007 -3.15212e-22)
(1.0445 -0.0139378 1.20514e-22)
(1.02077 -0.15085 -2.03069e-20)
(0.860702 0.237969 7.0988e-21)
(1.01912 -0.0106751 3.58687e-23)
(1.08255 -0.0409594 8.06309e-22)
(1.01645 -0.00860019 -1.17329e-21)
(1.0356 -0.0268435 0)
(1.05213 -0.0270435 0)
(0.353575 -0.0551293 -2.54481e-21)
(1.01167 -0.000243457 0)
(1.09705 0.0106178 1.53235e-20)
(1.01462 -0.00249871 0)
(1.07703 0.00209351 -2.30949e-20)
(1.01672 -0.00250007 1.3434e-21)
(1.01324 0.0005119 -1.16759e-21)
(1.00777 -1.91127e-05 -4.68972e-22)
(1.01447 -0.00093909 0)
(0.604973 0.182954 -6.35634e-21)
(1.01847 -0.0021336 -5.88362e-22)
(1.04308 -0.0247476 4.59141e-21)
(1.0087 -8.6889e-05 6.21604e-22)
(1.00874 0.000229473 -1.14664e-23)
(1.01337 0.00124488 -3.25142e-22)
(1.10187 -0.0653918 7.35534e-22)
(1.00862 -1.13613e-05 -7.48123e-22)
(1.04921 0.00277006 -1.02437e-21)
(1.01493 -0.00284272 2.37762e-21)
(1.01589 -0.00272666 -3.66158e-22)
(0.991722 -0.194459 -1.15419e-20)
(1.0166 -0.00221063 -9.8082e-23)
(0.909771 -0.0652479 0)
(1.01429 -0.00160044 0)
(1.05666 -0.00438074 5.34742e-22)
(1.01018 4.87408e-05 -2.79197e-21)
(0.976559 -0.0658725 1.2805e-21)
(1.00985 0.000158492 8.6471e-23)
(0.817277 0.0218679 5.4292e-22)
(1.024 -0.0144279 -1.75201e-21)
(1.0157 -0.00801911 0)
(1.01418 -0.000976049 -6.3158e-22)
(0.92751 -0.238452 -1.76074e-20)
(1.00298 -0.174153 2.64469e-21)
(0.889504 -0.0917874 9.27851e-22)
(0.768475 0.0709209 -7.44399e-22)
(1.11821 0.0101613 -5.41219e-21)
(1.01561 -0.00683193 2.62419e-22)
(1.0589 -0.0110504 6.63287e-21)
(0.997705 -0.137032 0)
(1.01305 0.0017503 -2.59959e-21)
(1.01427 0.164614 1.82853e-20)
(1.00783 0.17933 7.65312e-22)
(1.09881 -0.0716227 4.90956e-21)
(1.16069 -0.0209695 0)
(1.0395 -0.0251664 -1.94156e-22)
(0.964077 -0.222121 2.35527e-21)
(1.01325 0.0140117 0)
(0.917224 -0.161502 0)
(0.971674 -0.17184 -5.19634e-21)
(1.04258 -0.0228885 0)
(1.03302 -0.00968179 -2.36506e-21)
(0.974681 -0.211289 -2.36432e-21)
(0.919222 -0.26482 -8.14025e-22)
(1.01564 -0.000200861 1.4254e-21)
(1.02742 -0.0346151 1.23322e-21)
(1.01928 -0.00112926 9.18788e-22)
(1.01786 -0.0143674 -1.48353e-21)
(1.08656 0.00327464 0)
(1.01065 0.00016029 5.85127e-22)
(1.01428 0.00421873 1.24692e-21)
(1.05078 -0.00403202 -8.81512e-21)
(1.0601 -0.0162673 0)
(1.09151 -0.011108 -7.63245e-21)
(1.00556 -0.0178738 1.82491e-22)
(1.04374 -0.0038776 3.40866e-20)
(1.01428 -0.00100023 -5.12692e-23)
(1.013 0.00342644 -1.40769e-21)
(1.06952 0.0161064 0)
(0.942449 -0.160902 1.30619e-22)
(1.08693 0.00548524 0)
(1.01829 -0.000306429 -1.4689e-21)
(1.03946 -0.0276725 -8.95857e-22)
(1.01571 -0.000455782 0)
(1.01317 0.00213393 -1.2929e-21)
(1.04857 0.156496 6.93421e-21)
(1.01336 0.00164873 -1.34294e-21)
(1.03913 -0.0234697 0)
(0.95061 -0.233058 9.99124e-21)
(0.941889 -0.235349 0)
(1.02008 0.00706494 1.90642e-21)
(0.871311 -0.126699 -1.18066e-21)
(1.1656 0.00136752 8.84761e-21)
(0.899905 -0.0327563 5.17782e-21)
(1.07367 -0.113695 -1.64894e-21)
(0.328405 -0.0399151 0)
(1.01495 -0.000483971 -5.4859e-22)
(0.953253 0.154035 -1.92376e-21)
(1.0242 -0.016324 0)
(1.0144 -0.00235734 1.73706e-22)
(1.02417 -0.00731544 -2.18745e-21)
(1.00837 -2.14476e-05 0)
(1.01704 -0.00926036 0)
(0.117016 0.0664017 -8.28805e-21)
(1.02654 0.00432032 -1.87624e-21)
(1.02454 0.185289 1.8757e-20)
(1.01555 0.0100876 -1.4156e-21)
(1.04833 -0.0815938 -2.74641e-21)
(1.02556 -0.0184366 2.50144e-21)
(1.08761 0.00418072 0)
(1.02956 0.0131515 -1.1732e-21)
(1.00813 -0.0041106 -2.31356e-21)
(1.10173 -0.0223271 -6.38691e-21)
(1.01417 0.00956791 -1.47681e-21)
(1.01319 0.00292789 -1.65443e-22)
(1.13601 -0.0268301 -4.1199e-21)
(1.01627 -0.0184771 -1.03935e-21)
(1.07994 -0.0239159 9.20127e-21)
(1.02446 0.00416691 1.76178e-21)
(1.01527 3.39223e-05 -3.75463e-22)
(1.00899 -0.171449 0)
(0.864937 -0.166937 -1.05795e-21)
(1.02247 0.0182443 0)
(1.01667 0.0010793 4.71041e-24)
(1.0164 0.00108469 3.75951e-23)
(1.01517 -0.00402383 -1.58421e-21)
(1.02124 0.0121807 1.5959e-21)
(1.04313 -0.218194 -9.96396e-21)
(1.13323 -0.0200315 8.37267e-21)
(1.08097 -0.11221 -3.04281e-21)
(1.08541 -0.0309421 7.86741e-21)
(0.990504 0.197442 -1.22206e-20)
(1.01736 0.000835113 -5.929e-23)
(1.00568 -0.0486545 5.81159e-23)
(0.991388 -0.0124283 -1.37131e-22)
(1.06165 -0.0132393 8.16996e-21)
(1.16364 -0.0315449 4.46923e-21)
(1.0166 -0.00420483 1.07496e-22)
(1.01647 -0.00262742 1.13917e-21)
(0.924028 -0.106659 -1.5437e-21)
(1.09117 -0.0256781 1.36699e-20)
(0.228664 -0.0351175 1.49731e-20)
(1.01642 -0.00358438 2.19963e-23)
(1.01926 -0.0294532 -4.54756e-20)
(0.997999 0.0254824 1.76872e-20)
(1.01393 -0.000181666 -1.00817e-21)
(1.0915 0.0015438 -1.21685e-20)
(1.06273 0.000995567 0)
(1.06061 -0.220099 0)
(1.01164 -0.000320475 -1.16499e-23)
(1.06886 -0.00677887 1.31897e-20)
(1.07058 -0.0681297 1.08613e-21)
(0.999818 0.00270466 1.39979e-21)
(1.0165 -0.00377989 -7.27944e-24)
(1.04433 -0.024008 0)
(1.02245 -0.0153979 7.68646e-22)
(1.01351 -9.9265e-06 0)
(1.01601 -0.00266379 -5.77084e-22)
(0.769221 0.0637375 0)
(1.02068 -0.016194 -8.33746e-23)
(1.07245 0.00394155 -1.00295e-20)
(0.912293 -0.0249113 0)
(1.09064 0.000213506 1.23142e-20)
(1.02018 -0.042249 0)
(1.08083 -0.0445869 -6.76014e-21)
(0.97401 0.0453725 1.08631e-21)