/*--------------------------------*- C++ -*----------------------------------*\
| =========                 |                                                 |
| \\      /  F ield         | OpenFOAM: The Open Source CFD Toolbox           |
|  \\    /   O peration     | Version:  v2012                                 |
|   \\  /    A nd           | Website:  www.openfoam.com                      |
|    \\/     M anipulation  |                                                 |
\*---------------------------------------------------------------------------*/
FoamFile
{
    version     2.0;
    format      ascii;
    class       volScalarField;
    location    "350";
    object      omega;
}
// * * * * * * * * * * * * * * * * * * * * * * * * * * * * * * * * * * * * * //

dimensions      [0 0 -1 0 0 0 0];


internalField   nonuniform List<scalar> 
18758
(
0.12408
5.62581
0.0214807
3.81957
6.0449
7.88408
7.92501
0.0217162
0.278287
0.0279284
0.0236853
8.66153
0.0220471
0.171107
0.0231727
0.639774
0.0395232
0.0219425
0.0219475
0.0312176
7.42372
0.022271
5.29614
0.695551
2.65122
0.0217202
1.72419
6.37316
9.07805
4.62213
0.0615977
5.46778
0.0221819
0.022714
0.124766
0.0221722
0.0222265
0.02202
0.0222832
0.0423299
0.0220173
0.0267359
0.0216538
0.0262756
2.8414
0.0216213
5.15382
0.0239949
0.0274925
0.0216219
0.152617
4.85465
0.0215487
0.0234629
6.07287
12.2302
0.0222172
0.340334
0.0219478
0.194099
0.101315
6.83173
0.121105
0.0228913
0.021558
0.0220119
0.0430894
0.0221776
0.0219394
4.70314
4.54619
0.0223486
0.0216283
14.0833
0.0216905
0.0219427
0.251931
5.68936
0.0908755
5.00902
6.11046
5.93162
0.194682
7.55022
0.258841
0.0299452
22.061
0.120068
6.22458
0.0219428
7.21077
0.0219487
12.3093
0.0271786
6.19658
11.0147
0.249209
0.0216896
0.0218942
6.13641
0.0327404
6.57547
0.081759
0.0476205
7.30329
3.28904
4.48329
5.88889
0.0226533
0.022327
14.3031
10.5974
0.0217599
0.0220618
7.64108
10.8844
7.88252
0.0231712
6.49999
5.94496
0.0378759
0.0219624
10.4091
1.3725
0.617948
2.06924
4.04619
0.597031
9.60931
0.0220515
0.0406881
1.59121
17.2652
0.0499712
4.80504
0.023914
0.246222
0.0440912
0.0218919
0.0789867
0.091405
0.252291
0.0219786
14.5331
0.022022
0.0220392
8.23556
6.47323
0.0604318
7.00043
4.24693
0.99594
0.0299279
0.0222707
5.30669
0.0279807
5.89382
0.0240029
0.0221961
0.0222888
0.0218088
0.188382
16.9717
0.0221888
0.101074
8.97759
0.0219923
10.617
0.241895
7.93627
5.35991
0.0219376
16.5586
6.27922
0.186472
0.679491
8.45834
0.0229908
0.0774831
0.0221312
0.0217973
34.7278
0.706843
0.0216585
0.0252157
0.562606
0.0219169
8.98685
0.0216383
0.0219277
0.050278
0.536701
0.0224324
0.0577598
0.0342559
0.123478
0.0318743
0.277767
0.0221487
0.0216471
0.0738786
0.0239378
0.0371164
0.0858012
0.0220357
0.0337858
0.0860181
0.0222787
8.15724
0.0275122
0.0219298
0.0502927
0.0222321
0.0368014
0.0777377
6.12932
0.0859146
0.567563
0.0216368
7.96529
0.0219296
0.0226728
0.217964
6.68607
0.304669
0.0839024
0.0599007
0.0472875
0.0216167
0.0878553
0.0220056
0.122933
5.13788
0.259773
0.0220636
0.0219178
0.0216182
0.0216456
10.8594
0.0369882
0.0218356
1.06372
4.62505
0.0230264
6.83531
35.3242
0.25679
0.0221787
6.14242
0.0298962
0.0221532
9.97045
0.0299922
0.0303868
0.0225776
0.041282
0.463928
0.712705
0.035901
0.0875025
0.0216789
0.0680648
0.0220317
0.0848205
0.0270574
0.215907
11.1008
0.0216415
0.0225384
0.465094
0.0224699
0.0249834
0.0859329
9.23006
9.83402
0.0219715
0.132752
24.8284
2.60347
0.0226279
0.0217511
0.029279
0.0371678
0.0219709
17.4867
0.760817
4.35811
29.4174
5.30753
0.0216368
0.0214735
0.0524337
6.75855
0.025658
0.0878153
0.12136
0.0292873
5.8653
0.0219121
4.41275
7.70511
0.0216333
3.97734
0.0380028
0.0219666
0.0333841
0.0922355
0.0228797
0.0221573
7.3036
4.41258
0.0219255
8.98947
5.91342
0.2793
0.0220169
0.0221384
3.6609
0.0229955
0.0216531
0.0217819
0.0230549
0.259199
0.0939624
0.0292558
0.0359658
0.0313688
0.0501879
0.0216634
0.0222784
0.57696
0.0568337
0.141683
3.84055
0.0260598
0.0223795
0.0221205
4.41341
4.12663
0.0216293
0.0219174
0.021631
0.0237999
0.0446878
1.87858
0.0219619
0.0222199
0.0216126
0.859476
0.226168
0.19719
0.165351
0.0228959
0.516185
0.116619
0.03754
0.031613
7.9741
5.97748
0.631662
0.0220477
0.0334742
8.6922
9.10681
0.025019
0.021641
0.0594188
0.0219773
0.0298545
8.16146
3.37365
0.106204
0.0306231
9.18961
0.0219979
0.0239231
0.0219023
0.0222894
0.102993
0.0240634
8.1404
0.286065
0.0224965
0.0219299
6.84655
0.103796
0.271599
0.0219966
0.0496243
0.0217406
0.0261308
0.0219626
0.0216507
7.89241
7.418
4.24122
19.5488
0.0219168
0.233694
4.20212
0.0421719
0.0217543
3.87452
0.0217793
0.0220903
0.021793
0.106533
0.021953
0.0261605
0.153135
10.0032
0.021768
5.81267
0.0462514
0.0220233
0.0256853
0.0219686
0.0219191
0.0285831
0.0639982
0.049565
24.2081
0.0392825
0.0220447
0.416615
5.88884
3.81355
5.43147
0.0984265
0.0225579
0.0216512
0.0218384
0.0222517
0.106063
0.0407594
0.031698
0.0365662
0.0299392
0.662048
0.0838519
0.0219619
0.0349164
5.80934
0.0228675
3.31817
0.0222298
0.022083
4.63507
0.0282097
0.022469
0.462467
0.128368
0.051609
8.80745
0.0219475
0.0226808
0.771798
7.63878
0.036324
0.0748473
0.179401
0.568463
26.187
0.175334
0.0223194
0.153764
0.0220606
0.108154
0.0231541
10.8369
0.0488201
6.13539
0.0315441
0.0682424
0.0216342
0.716616
0.0216343
7.8493
0.0219069
0.388193
0.0220587
4.56058
0.0306985
0.0220901
0.0218988
0.021785
5.60405
9.51531
7.64394
0.0425996
0.0246568
0.0926082
0.0222702
0.0222873
4.97403
0.0218998
0.0220629
0.124617
0.0220419
0.0727979
0.0919211
0.0220583
0.0219511
0.0280528
0.0227746
0.0285397
6.7237
0.0317443
0.0360081
0.0267841
0.0220489
3.65596
0.0223629
0.0226583
3.62281
10.1951
0.0654666
4.37566
0.0252413
0.0226283
7.14053
0.0219717
8.62164
0.351071
0.0220839
6.75388
0.576393
0.06002
0.0218716
0.0541503
4.57283
0.022023
0.0218751
0.023231
0.022864
0.0220561
0.0217051
0.0222939
10.4997
0.0251516
8.89126
0.0219661
0.173078
7.82931
0.0220377
0.0216452
0.0251075
0.0221297
0.0226974
0.0233621
0.0221178
0.116363
0.857555
0.021548
4.65446
5.45359
0.0357768
0.151417
4.54354
0.0265049
0.0309631
0.0281395
4.6723
0.0250554
0.0431338
0.0220178
4.33816
0.041162
0.228297
0.141162
7.68315
0.0250031
0.0219413
0.0598421
2.30158
0.0226342
0.485794
0.0222583
5.48448
0.0227902
0.0218006
0.0217814
0.0220479
5.37202
5.58783
0.0220104
0.324896
0.0308237
3.73037
6.96236
3.56783
2.2069
0.0219202
6.76419
0.0567319
0.0219955
0.0441708
4.75558
5.60184
0.0226921
0.0225915
0.0220247
0.0215165
6.73028
0.113867
6.08422
4.50012
0.0220464
0.0221407
0.057029
0.0222809
0.0218108
0.0233372
0.0230198
0.119605
0.0403201
0.240214
5.81845
0.075192
0.0220656
0.0275893
0.128362
5.31533
0.0415951
9.95471
0.0529184
0.0220155
0.299596
4.98204
0.0224921
0.0216482
0.155332
6.97197
0.268273
0.0220425
7.11089
27.7424
3.1559
0.0216156
6.98102
7.38301
22.1782
0.0240551
0.0221964
7.97218
0.0222945
0.191762
6.53894
0.244315
6.74647
0.0802291
4.7712
0.0655513
0.0221182
0.0225709
6.47874
3.80016
8.75671
3.65133
0.0219712
0.192381
0.0222771
0.0608029
0.0801678
0.143139
0.0220886
0.0252727
0.221979
4.53925
6.03331
10.4005
0.0388029
0.0327812
0.264053
0.0222571
0.0217166
0.0219524
0.0256983
0.0640497
0.0220348
0.0752401
0.0218548
0.022082
0.0219052
6.14135
0.0223478
0.0222695
0.0535471
0.0520003
0.0215527
10.3065
0.021979
0.0217152
0.0562151
0.0370674
0.0248545
0.0228978
8.07167
0.0361528
0.0348803
5.06322
0.0348888
3.84683
0.0261187
0.116024
27.3643
8.68155
0.0216406
4.61302
0.634769
0.0216893
4.95285
0.0220654
0.0218925
0.0388459
0.0219505
0.115394
5.11516
0.0216323
23.243
0.0218931
0.037608
3.83167
0.0215329
6.65755
0.0235554
0.0219988
0.021919
0.0219493
0.263311
0.0736707
11.6
0.0772938
7.62883
0.0574097
0.0220368
0.238733
9.21778
3.03468
0.0761978
0.189777
0.0560999
0.02666
0.262534
0.0227245
7.64189
0.0220352
6.00744
0.0227819
0.0763087
0.0280921
0.0223582
9.03547
0.0225908
0.0218178
4.61911
0.0236014
0.0219078
0.0424456
0.0920607
0.273027
3.41837
4.93637
5.47429
0.0221332
0.0222049
6.07483
0.021991
1.07801
0.0857135
0.0237669
0.0220618
0.0329951
0.0219893
0.0219616
0.0285945
0.823084
0.239188
0.168062
0.064552
0.0221335
0.0549289
8.37291
0.0218633
0.0807133
0.0238988
4.95583
0.0232874
5.6921
0.0220298
0.702483
0.0222766
0.0784104
0.0220001
0.0253463
0.0300626
0.0215377
0.0216979
0.0215873
5.67657
31.8739
0.0319612
7.04514
0.0220215
0.0401531
0.0279963
0.286736
5.11664
0.0320547
0.0215469
0.234431
0.0218567
0.0220206
0.0279916
9.05824
9.7648
1.2677
3.49568
0.0744839
0.0229825
0.0219047
6.51867
0.0218957
3.23522
0.0274573
0.0221855
6.58287
8.20296
0.0220909
9.76299
0.0271377
0.095866
0.0997922
4.51992
8.14652
1.41363
0.0219991
0.0215145
5.72355
0.0219804
0.0219377
0.0280474
0.0219981
5.44563
0.260533
0.0575439
6.63593
0.0470653
0.12018
0.0238167
0.0219911
0.0215408
0.0217839
9.80441
7.73163
0.376058
0.0220576
0.0215402
0.03054
0.0218456
0.0394235
0.0257476
3.12158
5.37379
0.0747878
0.275646
0.437545
0.0218985
0.253467
0.0219079
5.1853
0.626927
5.73984
8.02124
0.0230661
0.0286732
5.6543
6.57337
6.25103
0.0455696
0.137671
5.95511
0.0220483
0.263718
1.58935
0.111362
0.0220425
0.0219838
0.0402799
4.593
3.09515
0.100078
0.0219683
0.0249674
0.0290216
53.4963
0.0222959
0.718711
0.0218902
0.0227621
0.224248
0.0218651
0.0220222
0.0232629
0.0271047
0.0219775
0.0227028
0.0216185
4.70438
2.61974
5.05355
0.0216416
0.0500814
0.0220129
0.247626
0.265061
0.0373162
0.0218936
0.0228844
0.661246
0.124774
0.0287653
7.61573
0.10749
0.0219566
0.0220464
3.79922
6.32132
0.0638471
0.0216211
3.77566
0.0221265
0.0359056
0.0216716
1.64711
5.36688
0.0218615
0.0220388
3.82229
0.0219499
6.39115
8.84328
0.0543505
0.0222765
0.0221663
0.0216674
0.0220362
27.1166
12.3009
0.149756
0.022869
4.61069
0.0219516
0.0219289
8.4783
0.0217578
6.46305
0.0215189
0.0289575
0.023347
0.0219319
0.0218476
0.0221213
5.44799
0.0224959
0.0221941
0.161976
0.0405039
0.0219729
0.0595169
0.0371395
0.0221264
0.297181
0.0219784
0.0373116
5.73906
0.0848417
0.0219539
0.325512
0.0819907
0.091988
0.0266556
0.0592235
8.86967
0.0244503
0.0580634
0.021949
0.021599
0.0220078
0.0417913
0.0368741
0.0434958
0.0218789
0.0273683
0.0572543
6.88694
0.264197
0.0219255
0.0217857
0.0228426
0.107918
0.0218163
8.98336
0.021956
0.0219717
0.0217848
0.431726
6.57202
0.0221552
0.0236021
0.0218845
0.088066
0.0218103
0.0219611
0.602282
0.0222704
0.0216037
0.0221324
0.153152
0.021797
0.0218847
3.69413
12.8641
0.614516
0.0439839
6.57308
0.050573
0.021951
0.0219046
20.6974
0.0219625
0.0638872
0.0782721
0.0411125
0.0267828
0.0223672
0.0307557
0.022874
0.0216279
0.233278
5.41661
0.0439536
0.0217891
5.97939
0.0432265
7.31598
9.1694
0.0940312
0.0221415
0.0219439
0.0218746
0.0549469
0.0221281
0.0218454
7.31601
0.171073
0.0407895
0.0219057
0.0688378
0.33851
0.0220982
0.0264791
0.0364609
0.135601
0.0682632
0.0220348
0.0233906
0.0372495
0.0218224
0.0499623
0.0223256
10.1938
0.060123
0.131738
0.02179
0.0371499
6.7175
3.77933
1.3168
0.0645347
10.1221
0.0221312
0.0219522
0.0226905
0.0940704
0.0221698
0.0234673
0.0309084
0.054473
0.0220035
0.0219552
0.0220342
0.022277
1.95413
3.65006
1.31091
0.0219954
9.46202
0.0297548
0.0221555
0.0316072
0.0218912
0.090801
0.0229951
0.0219679
5.34578
36.4746
6.18676
0.0223859
26.0733
0.0219664
4.6389
5.46195
0.0215586
0.0564782
0.285442
0.0216275
0.021964
5.83526
0.0222995
0.0220206
0.207972
2.04809
0.0220304
0.0308348
0.0221511
0.0251303
0.124106
0.0221671
5.72721
0.0417452
0.0219608
1.87958
0.0612416
0.0754329
0.0222881
0.344402
0.0220685
5.62058
0.0219682
0.0217762
14.8289
0.0217052
6.47839
0.0219661
0.0553196
8.16584
4.82951
0.0220066
0.022362
0.0220295
0.0232801
0.0268482
0.0267484
0.0214943
9.88508
0.0218837
0.0219866
0.153264
0.215201
0.0440539
0.0220299
5.03607
0.0873307
0.0223952
0.0353742
0.0219174
0.0217681
8.66004
0.0216364
0.0217801
0.0218234
6.88506
0.021825
0.0218461
5.85687
0.0251722
5.35351
0.0319349
0.0215214
0.021881
5.22911
0.0260519
0.0220083
8.07011
5.28816
0.0217948
4.35352
0.127814
0.0219449
0.0220284
0.334868
0.022221
4.57394
0.0335827
0.0220347
2.61658
9.70965
0.244422
0.021895
6.91001
0.0300706
0.36723
0.695097
0.0219117
9.20542
0.0220121
0.0319688
0.0261533
4.4862
0.0216931
0.0224095
4.55227
0.0222731
0.0357518
0.0216997
0.0221169
5.93291
0.0930873
0.0252866
0.0358219
1.66231
0.0223264
0.0233457
0.0551942
0.120728
0.0253514
0.0219539
0.0219215
0.0221475
0.0226017
0.0218496
0.0340448
0.0275821
1.85932
0.0220103
9.55429
0.0219966
0.0282055
0.0219854
0.0364053
0.022111
0.0219342
4.90494
5.73451
0.0240703
0.022099
15.6056
0.0276325
14.739
0.0368364
0.0724855
4.70351
10.2944
3.59026
0.0230649
0.0220136
0.0218058
3.70924
0.0218303
0.0220241
0.156361
0.021853
0.0221864
0.0220674
12.2433
1.63101
0.0221817
5.39166
5.096
0.023971
0.0219429
0.0222047
3.72079
0.0216953
0.0864153
0.0222883
0.021986
0.0220919
0.021764
0.0718554
0.0219866
0.0219118
0.0217898
0.0216298
0.381752
0.0216153
0.0218176
0.0221282
0.0219541
0.278317
3.70644
0.0601447
0.0226307
0.0220121
0.0221938
0.0222248
4.09353
0.0219415
0.0316932
0.0684894
4.45656
0.0219582
0.0219182
5.46661
0.0221264
0.108157
0.0837909
0.0224463
5.63616
3.73275
0.0311212
8.59906
0.0280304
0.109764
0.0214964
10.6168
0.0220518
7.39094
0.0220529
0.0218513
0.848278
2.22696
0.452471
0.156915
0.0219082
7.14313
0.0221774
6.93243
0.052975
0.0219354
0.0214987
0.0219204
0.0520871
0.0623515
6.0113
0.0385781
0.021899
0.0219434
0.021938
11.1749
0.195934
0.0335268
0.0221464
0.021909
0.029958
1.06628
0.0219481
0.0328504
0.0689403
0.0219402
0.0238543
0.0231731
0.0579327
0.158806
0.024413
0.0785644
0.0215996
0.0220186
8.09149
0.040641
0.0883982
0.867624
0.0216195
9.73494
16.0968
0.0508757
6.3214
0.0219376
5.16337
5.89338
0.0954195
0.0218012
9.57302
0.129911
0.0219982
0.0374395
5.78051
0.0226875
0.0219786
0.0398373
0.0222713
8.90355
0.0307999
0.0220753
0.0222821
0.0218817
0.0688678
0.0321717
9.15544
0.0855234
4.98546
0.0785943
0.022261
0.0219402
0.706623
14.3279
0.0219754
0.021907
0.162331
0.0221206
0.290566
4.71656
9.48828
0.0219565
0.0219888
7.22273
0.0217682
5.18448
0.577601
0.0217269
5.80443
0.0596954
0.0835522
0.021974
16.5109
0.0220368
3.72245
0.0215127
0.0463987
0.0228828
0.0216962
8.78165
0.0227388
0.0219817
0.0234151
4.84153
0.0220849
0.0216086
5.40343
0.0219096
0.0216705
0.0221242
0.0251862
0.0220622
0.0221861
0.0280105
0.0221804
0.0265164
0.0215713
0.281471
7.03064
0.135698
4.93277
0.0278214
0.0264706
0.0218862
0.0218344
0.0221462
7.51485
4.40691
0.0219106
0.0222777
0.021918
23.5916
0.021602
0.29382
0.515121
3.68274
6.37942
6.86292
4.55597
0.0216485
3.85906
5.48809
5.82589
0.0262664
0.0221622
0.0398208
0.0216527
4.19505
0.112839
0.059111
0.0268812
8.06655
0.0219966
0.0214915
4.67587
0.127146
0.0220001
0.0215311
0.0410994
0.0221231
17.0322
4.75444
6.57136
3.65444
0.0722118
2.00224
0.0218419
0.269974
0.0221145
0.0219599
0.0216607
5.41676
0.0221606
0.0218321
2.24377
5.0786
0.276899
0.136252
0.0229498
0.0393092
9.73875
11.6286
5.24833
5.24898
0.121697
6.44549
0.229356
0.541271
0.0515291
0.0384599
0.0218882
0.03649
0.0316275
0.0220552
5.38669
0.02182
0.0219953
0.0220024
6.68254
0.0256989
0.0218167
0.0218467
0.0219692
0.135649
0.0903364
1.38762
0.0227386
5.86243
0.0215239
0.0219221
0.0817837
0.0705448
0.0215084
3.69714
0.038875
5.64373
0.021991
8.75825
0.0630228
0.0219274
0.0220627
0.0219575
6.02403
6.16447
10.1197
0.0219868
0.022273
0.0215832
5.58944
0.0283661
0.0220695
0.659778
0.0219388
0.0226193
4.46889
0.0216119
0.0219532
0.022075
0.0221394
0.0214887
0.022479
0.0215228
0.0222668
0.0718251
0.0397754
0.021839
9.3676
0.0238044
5.56936
11.2221
0.0515057
5.83228
5.63753
0.0218162
0.0391186
0.0220311
0.0218517
4.75352
0.0262928
6.54158
0.0274554
0.112239
0.022101
0.0233193
0.0219143
3.68481
0.0437593
5.20136
0.0220777
0.121576
0.0286508
0.0218049
0.0360657
0.0385753
0.0215551
8.63731
0.0221026
0.0382543
0.0220112
0.030686
0.050047
0.205575
0.0266916
0.0704101
8.65993
0.0299498
0.0375125
0.0216084
6.61419
0.0599648
0.0222715
0.0756393
6.02544
18.7031
0.0219739
0.0229066
0.022173
0.0215943
0.0219427
4.39452
0.0280893
0.0220866
9.55695
0.0221179
0.021596
0.0258623
5.19588
0.0221985
9.01343
3.84326
0.104007
7.35967
0.0226517
5.54217
0.497868
0.0216215
0.0285652
0.0220332
0.0223715
0.0370106
8.36211
0.0563011
1.47846
0.403085
0.0219094
6.74622
0.0219079
3.62267
0.022268
29.092
3.71554
0.0221609
0.0217682
0.0222786
0.0318461
0.0833997
0.0219718
17.1675
0.0230389
0.0390829
0.0772855
0.0231117
0.0219255
3.6005
0.0217713
0.205755
0.0294839
21.835
0.0221282
0.0218986
3.6202
0.0214708
0.0217614
0.0225732
0.0608074
0.0495541
0.262284
0.0243782
0.0217681
0.0251085
0.0222833
0.0225489
6.29484
0.0219458
0.0492758
6.37588
0.189646
0.0219513
0.0890747
0.0218772
0.0222087
0.412515
0.27963
0.0887227
0.0222394
0.0219512
0.0247591
0.0768129
0.0218969
0.0297446
0.0219062
0.0222556
0.021846
0.0220461
3.66912
0.0215615
10.1947
5.62366
0.0251346
0.0216877
5.17282
5.77289
0.0218069
0.0219727
12.4828
0.0223333
0.065263
0.231794
2.45184
0.0219163
0.0228472
0.0493103
0.0219816
7.52502
0.212062
0.0218159
0.0313536
0.0384839
0.0220927
0.307274
0.0221545
0.0509639
0.0229193
0.0248509
0.0215358
0.0219085
0.270088
0.0219827
6.87692
0.0595773
0.0220045
0.0219926
0.0219853
0.0218753
5.93886
0.0222717
0.196904
0.0219067
0.0218628
0.0565886
4.89538
0.0217725
0.0215612
0.0219369
0.0226017
0.0300155
0.0301194
4.41442
0.0284829
0.0218429
0.156087
6.35878
0.0222864
0.0307903
4.58536
0.0355821
0.0224392
7.50281
0.0214889
6.93065
0.0400705
0.0220697
0.0699527
0.0218748
0.0219246
0.0219308
3.57321
0.0220244
1.34562
6.27697
0.516806
0.0292139
0.0219669
4.63725
0.0222778
26.925
0.0217293
0.45659
0.0258898
0.0746532
0.0227099
3.63721
0.0289152
0.0222245
5.76397
6.182
0.0215641
2.2213
0.02199
0.0312349
0.0217485
32.6489
0.64096
0.0223294
0.0220442
3.92283
0.298882
0.0218575
0.0235045
0.0220331
0.0218101
0.0217176
0.024088
6.05109
17.18
0.0224955
0.215037
0.0237156
0.0585683
0.0220034
31.4983
6.002
9.36073
0.0227592
6.73355
8.06898
0.0249873
0.0302096
0.0218807
0.0470778
5.98669
0.0221913
0.0217179
0.0217711
0.027259
0.0215897
0.0219839
1.37004
0.023136
0.211118
0.0220359
0.021972
0.0225337
0.0220449
0.188218
11.8603
0.0217916
0.0411432
0.0215483
5.95243
0.0218224
0.0243143
5.3152
2.48551
0.0263312
4.42118
0.421354
0.0220679
0.0617669
0.0221397
0.0321684
0.0222351
0.0219251
0.149391
0.111442
4.01408
0.101832
0.0350842
9.36261
0.0232973
0.0409945
0.0227477
6.10524
3.70328
3.90265
0.0219502
0.0215213
6.36221
5.63092
0.022132
5.07967
0.0221404
0.026818
0.0214982
0.0218856
0.0218221
0.0218422
0.236624
0.0411156
0.0388266
0.0219751
0.0220203
0.021647
0.0218277
0.0218172
0.0222627
0.0219315
4.20448
4.53237
5.39294
0.0236621
7.76672
0.0557019
7.69335
7.87406
0.0558222
0.0221136
0.0222625
0.208393
0.0224363
4.17666
7.4901
0.0225958
0.0217028
0.0303352
5.14204
0.0219955
7.11477
0.0218612
0.0221027
7.9949
0.0219265
0.0288443
0.0221654
4.38482
0.0215881
0.0219415
0.255088
0.021627
0.0220583
0.0219026
0.0217035
0.0688922
0.0219025
25.8721
0.0220241
0.0222172
0.0214798
8.65166
0.034335
0.0222367
6.24573
0.0220896
0.0215645
0.269311
4.5841
0.0221275
7.70222
6.08773
0.0263084
4.49401
0.0221121
0.0219727
0.0814522
0.0216779
5.39379
5.21763
0.0214949
0.0260408
0.0218882
8.39714
0.787674
0.0419896
0.0221453
0.473162
0.0365925
0.0501058
0.026777
0.0220299
0.0225586
0.0219021
0.0218137
5.91509
0.0214564
0.0218152
0.0411628
9.03992
0.0706757
7.55605
0.0220155
0.0425069
0.0218994
0.0220023
0.0220966
0.0217659
0.0221537
0.0219134
0.0221032
0.0221726
0.0242322
0.0219941
0.0221612
0.0216877
9.42356
8.15261
0.0222105
0.0227688
4.1882
0.0222102
0.114043
4.98929
4.0288
7.87499
0.996368
7.79896
10.779
7.19751
0.021781
0.030022
0.0218828
0.0506246
0.0246009
0.0222236
0.0217967
8.74612
0.021637
0.0300088
11.4977
0.0215927
0.0217372
0.0790138
0.0217047
0.0219056
0.0218957
0.0221969
5.30128
9.00282
0.0220383
0.0219431
0.0220582
0.02289
0.0436596
0.0228929
14.6191
0.245411
0.0221943
5.53919
0.031246
0.0219387
6.20169
0.0215998
0.0481262
0.021776
0.0224
0.0224228
5.35885
0.0219424
0.0219631
0.0238914
0.0223265
0.0302721
0.0218266
3.81554
0.0397118
0.0447264
12.713
7.2735
0.100978
0.0320089
4.5589
0.0220128
0.0220038
0.0251699
4.83247
0.0492693
0.0498192
7.41738
0.0219765
4.53971
0.276246
1.71931
0.0219995
0.0362899
0.0218784
0.136681
0.0336491
0.496821
7.17225
0.0220162
0.0355242
0.0277926
0.021926
1.33904
0.0219652
0.0299005
0.160764
0.0917247
0.0219489
0.0222948
0.0222284
0.0563582
0.0219515
0.0222086
0.0219591
0.0220797
0.0216681
0.0382672
0.0215496
0.970982
4.14176
0.0225654
0.0217593
0.0215632
0.0429652
0.0348382
0.0221276
6.05235
0.0505853
0.0217741
0.021818
5.99949
4.08003
0.0219387
0.195731
0.0351356
0.0220085
6.63019
0.0226844
0.0760251
0.0222339
14.5162
6.97921
0.0222563
0.034346
5.01494
0.0348637
6.90752
0.0222394
0.0255126
4.41024
7.03021
0.0251944
0.0254902
0.022572
0.0244755
0.022898
6.2051
4.11266
3.72866
0.0235582
0.0219925
0.053749
0.0219092
0.278032
0.0247989
7.7757
0.0215828
0.0221892
0.0217657
0.0219155
0.0218456
0.0735595
7.97107
0.0301343
0.0216245
0.0221058
11.1877
0.0235773
0.0238092
0.0221558
0.0352875
6.1494
0.0217071
0.021865
0.0384334
0.0833515
0.0221152
0.0405114
0.0223479
0.0237234
0.116074
0.0288499
7.16995
1.33781
0.0478977
10.894
0.0218574
0.0219068
0.0230867
7.78345
0.0233098
0.942814
0.0216992
4.9293
0.0354777
0.0218694
0.029916
0.0223309
4.91566
0.0559571
0.0300728
0.284717
0.10019
0.0221517
0.0222005
0.0222283
0.0247955
4.65415
0.0480451
0.022106
0.209113
0.0218607
7.79805
0.0219485
6.84766
0.0289143
7.95811
0.567583
0.0590168
0.0219649
0.0220056
0.0218689
7.10803
0.0220007
0.0475837
4.63634
0.0215375
7.54465
0.0330754
0.0219537
0.0707917
0.0219131
0.0218428
5.75263
7.07668
5.7581
0.0218989
0.0217671
0.0227917
0.0242939
0.0229549
0.0219586
10.9104
0.0698265
4.49224
0.0225372
0.0428156
2.78403
1.33212
0.0303806
0.0217636
6.52922
0.0229352
4.5641
0.0218943
0.0220288
0.0219793
0.0217258
0.0215354
0.0222615
0.0217873
0.0371269
7.49358
0.0342734
4.3247
0.025131
0.0222086
0.0221261
0.437638
0.0220236
0.0225156
0.0220461
5.25817
5.00424
0.0217831
0.0236899
0.02187
0.0219715
0.0222784
0.0220654
0.0219005
1.06838
0.0222679
0.0218068
0.141579
0.0218302
4.44999
0.0741075
0.0811364
0.203682
0.024021
0.0220799
4.12689
0.0220741
0.0685936
0.0289915
0.0217935
0.0505292
0.0220664
7.35789
0.0216152
0.0218041
6.20871
0.0556494
10.6351
0.0217545
0.086179
0.169995
0.0319106
3.62903
0.0218816
0.0217503
0.0216237
0.0938381
0.0228208
0.782233
0.0220043
0.0387238
5.76572
0.212871
0.0220145
0.946818
0.0254053
6.79226
0.0235865
0.0234577
0.023971
5.35881
0.0219622
0.0223569
5.79348
0.0215698
0.0262911
0.0218336
0.0472095
4.88989
7.60368
0.0218647
0.0992095
0.0220015
0.374243
0.0220157
0.0224365
0.0793593
26.7042
0.0397399
0.021995
0.0254796
5.7475
0.0596114
0.0768061
7.20806
0.0220237
12.8261
0.0231112
0.184245
0.021802
0.0250524
6.56808
0.0255504
0.0219185
0.487283
7.34459
6.68234
0.0217067
3.67257
0.488731
0.0216249
0.165266
8.87579
0.022278
0.0228832
4.96396
0.0215008
0.0224301
0.0218303
0.0220693
0.113715
0.0848191
0.0342232
4.67767
0.0222709
0.0593205
0.029872
0.0222249
0.0233262
0.0337952
0.022003
0.0222271
8.75071
5.15456
7.56452
0.0216853
0.0368094
0.0221372
4.01606
0.022095
0.0415075
8.16704
6.11073
0.0680256
0.0219725
4.00843
4.3529
0.746649
0.0219996
0.0221272
0.0218366
7.54568
0.0370144
0.15629
7.03597
0.0220637
0.0222113
5.57143
0.0288458
0.0926471
0.0221745
0.0218895
0.0219769
2.05406
0.0220307
0.0484967
0.0217693
0.0221131
0.0217948
5.32658
5.52546
0.0238383
0.604086
0.0230167
0.531217
0.0219111
0.021899
0.0772767
0.022073
0.0219224
0.0254977
0.107596
0.0286632
0.143114
0.0220475
0.0625558
6.58297
0.0221197
0.0220476
0.0220272
6.29808
0.046006
0.0473872
0.0789094
0.0217801
0.0218716
0.143186
0.025714
9.40409
9.24784
0.036123
5.19337
4.01164
5.5565
0.0510236
0.0223308
0.0220009
0.269202
5.89254
0.0218739
0.0383853
4.88937
0.0221081
0.21408
1.88087
0.123486
0.0219211
0.080185
0.0221467
0.0221064
0.0216336
0.901809
0.0221222
0.0499544
0.0365563
0.0219853
0.0221842
5.43044
0.0217882
0.0215996
0.0441406
0.678656
0.0356743
0.0220235
0.0402759
4.17828
3.65384
0.027886
4.54791
0.0739144
0.125832
0.0600689
0.022114
0.155753
0.0329421
0.0216589
0.0217305
0.022382
0.0257518
0.288055
5.4119
0.0222182
2.37657
0.0784849
3.1693
10.2984
0.271042
4.07573
0.124818
4.16506
0.0483683
5.38411
0.053207
0.0219757
0.0221347
7.92932
3.72208
0.10908
5.43064
0.0218233
5.66898
4.6111
0.0220371
0.0216497
0.0378397
0.0593352
4.85843
9.83114
0.118948
0.0218731
0.0218272
0.0222177
9.0898
0.0255524
3.87627
0.0245535
22.606
0.203242
4.65467
0.0274024
3.96757
0.0218061
0.0215978
0.0258913
0.0221644
6.04665
0.14473
3.94974
0.0220692
5.77793
5.31608
0.021551
0.0427271
5.50936
0.0437016
0.0218709
0.0261779
0.0219755
5.23551
0.0214626
0.0223758
6.34443
0.0288091
0.0494242
0.0278172
0.0218146
0.0222148
0.0421994
0.0220633
0.0216568
0.0218355
0.0295575
6.10538
3.33977
0.0219711
0.134498
6.10236
0.0221186
6.55618
6.30146
0.0221763
8.72686
0.022077
0.0900076
4.52151
0.0219628
0.022167
0.0222036
0.0763882
0.0260715
0.0218598
5.47075
0.0219851
7.47808
0.022041
6.03077
5.64816
0.0250688
0.0217465
0.165312
0.0831423
0.157807
3.92004
0.0446706
0.0222068
4.1542
0.0224713
0.072414
0.0662684
0.0298717
0.0640539
0.021886
0.142303
5.13956
5.13186
0.123762
0.0218832
0.197065
4.21057
0.0222719
0.221048
0.0972534
1.37036
0.0219853
0.0250837
0.0215085
0.201533
7.89326
0.0781088
7.79072
0.0884818
0.036582
5.23089
5.54418
5.01749
0.562765
9.299
0.0654595
11.898
0.0470903
6.97996
6.81148
0.0232956
0.0223529
0.0269487
0.059944
0.0219988
0.0262302
0.0222616
0.0242167
0.0220044
0.0218794
7.8829
5.45913
0.0222037
0.0518541
0.0221072
0.0217959
0.0237271
0.0816548
0.0234423
0.0946375
0.0222069
0.0440844
1.07289
0.10837
0.0463883
0.0219763
0.106102
0.0222202
0.0219246
0.642163
0.0228848
5.69951
0.181593
0.0219298
0.0243345
4.04783
0.0220776
0.100772
0.0585636
0.0604879
0.0265908
0.0371117
0.0220095
0.0221681
5.45024
7.42865
0.0350023
0.0801216
0.0220467
4.68603
0.0256231
7.32693
0.081348
0.0221119
0.021684
7.34262
0.173624
6.54821
0.0282022
7.88132
0.022685
5.81824
9.33724
0.030992
0.15468
0.0218555
6.69698
0.0222458
10.5369
0.028867
4.2863
5.62127
5.26625
5.33635
0.0363537
8.26932
0.157797
0.0488289
5.73906
3.69785
4.65622
0.0217151
0.025942
0.0754966
7.0261
0.0218889
0.021802
0.0299115
0.0632566
10.8721
0.0603431
0.0456865
0.0219276
0.132803
0.0215537
0.189359
5.33511
0.974092
0.0217803
6.16429
0.0681725
0.0226095
5.1845
2.27882
0.0265301
4.7762
4.82972
4.73335
0.0572207
0.0218417
0.02905
7.11648
0.0374046
0.021977
6.97315
0.0215037
8.07485
0.0232312
0.0221741
4.2439
5.1834
0.021851
0.0518499
0.0219481
6.78073
0.0215141
4.18154
0.15872
0.0428408
0.0219093
0.0220039
0.0221612
0.0362867
0.0476402
0.131961
0.0288332
4.82713
0.0329392
0.0253733
6.92455
4.09506
0.0216478
0.163446
0.0219671
6.03957
0.022144
0.0433944
7.09118
0.0273121
0.0219266
5.20436
0.0223257
0.0222547
0.0470299
0.0222781
0.0218962
7.41092
0.0566436
6.63644
0.0222785
0.129471
0.0748118
0.0216507
0.0219255
0.023607
0.0218537
5.68678
3.02634
4.10399
4.3007
3.83668
5.89391
0.0219175
0.0220223
0.0219403
0.0221677
0.115414
6.67432
0.0305911
0.0248885
3.76395
0.0223187
0.0217858
3.72682
0.124073
0.0214785
0.0219646
0.0219043
0.207372
0.0217586
0.0219607
0.168216
0.0340554
0.103838
0.0238562
5.45303
6.97075
0.0214694
0.0217285
5.74332
0.0342243
0.0251504
6.25099
0.0353745
0.125876
0.507575
0.0235164
0.465339
5.54145
0.021548
0.0258498
4.96913
0.0252876
0.0220117
1.48914
0.0554421
0.0493063
0.0221927
0.351111
0.0239257
4.50223
0.0220492
0.0219757
0.0334867
0.0636452
6.80199
0.0356591
0.0219728
24.6013
4.83491
0.0240367
0.0772788
0.022034
0.0219014
0.0217542
5.11442
0.0218609
7.13073
0.262232
5.10786
6.5018
0.035365
4.94527
0.0332101
6.90108
0.548027
0.117022
0.666366
0.0774439
0.0968522
5.91793
0.0501158
0.0220044
0.0220616
15.9357
0.0403971
0.0230144
0.0221938
6.79236
9.39142
0.0220948
3.98688
9.53395
0.058069
0.423559
0.0408652
0.0407537
0.0392753
0.103028
5.51094
0.0273082
0.205688
0.2685
0.0217638
0.105241
0.0281275
5.7396
0.0627557
0.0219592
0.260109
0.0656944
0.0769451
0.582384
0.0225443
5.36189
0.219367
10.5729
7.62244
0.0221836
0.022014
0.0218933
4.87669
5.39555
0.0864193
0.155467
0.0218585
0.021743
0.0226373
0.0702025
3.87611
0.0524505
7.32692
0.075779
0.37885
0.837848
0.0217647
0.0533588
7.40172
7.13721
7.28609
4.69362
3.85262
0.0222596
4.6493
5.48289
5.37192
4.42722
0.0219364
5.75131
0.0225866
5.22274
0.0272158
12.1781
11.3379
3.79905
0.0221576
0.0219863
0.0740367
0.0238339
0.115116
0.0222723
0.0497999
0.0491331
0.0218005
0.0220015
0.0340521
0.021929
7.58211
0.0218861
0.0232106
5.72826
0.0588952
5.00513
0.109992
8.36684
0.0219371
0.0219767
0.0222897
4.98779
7.92845
0.0220259
0.0474499
7.78969
9.45852
0.0218879
4.3457
4.7259
0.0218195
5.12159
0.0219073
0.0395492
0.0220123
0.0597977
0.0220726
0.143669
6.49295
0.0218651
0.0221593
8.00433
0.035668
0.0217019
0.0221154
9.43254
0.0218738
0.022208
4.32361
10.9372
4.95787
0.0820412
0.0219306
4.63609
5.98937
1.02958
0.0221664
0.0796391
0.0584844
0.0219649
0.23269
0.0218249
0.0218402
0.0218392
0.0525132
8.06089
4.54605
0.0428685
0.147067
0.0218919
5.28941
0.0218277
0.0281639
0.047084
0.0233708
0.0504021
0.0359457
0.0218809
0.119521
8.14956
0.0580999
16.7855
8.06076
0.0631833
0.0219827
0.0249446
0.245183
0.0296834
0.0221944
0.102031
7.07596
0.0217092
8.14135
0.0283447
0.02198
1.21161
6.98371
5.32428
0.0219721
0.0266705
0.0249803
0.0564109
0.0490281
0.0218818
0.0219858
0.116589
1.20925
5.88947
0.0273029
0.0222974
0.0217479
0.168511
0.022026
4.59749
0.0222727
0.0413818
7.55736
0.205443
7.49915
0.022053
7.91448
5.19877
6.78693
0.0220036
0.0222631
0.0498911
3.35298
0.021826
7.78174
0.0218719
0.0215035
5.14314
0.022184
0.0532881
0.028047
0.0229272
0.0319611
0.0291081
0.0696519
0.047051
0.0374346
22.2651
0.177333
4.26184
0.0476278
0.0338672
0.0573043
5.40932
0.174249
0.0277022
0.0220821
5.95814
0.0227728
1.03239
0.21848
0.533747
0.0216941
10.4986
0.0220581
2.14722
0.0226104
0.87524
5.01384
0.0501819
11.5916
3.9572
6.54166
4.43441
7.71935
0.0647834
0.021938
0.0218071
1.10969
0.0218115
0.0219398
0.0220096
0.0409556
0.0233783
0.0341365
12.4811
4.54049
0.118607
0.0276379
0.0275291
0.0215839
0.0255612