/*--------------------------------*- C++ -*----------------------------------*\
| =========                 |                                                 |
| \\      /  F ield         | OpenFOAM: The Open Source CFD Toolbox           |
|  \\    /   O peration     | Version:  v2012                                 |
|   \\  /    A nd           | Website:  www.openfoam.com                      |
|    \\/     M anipulation  |                                                 |
\*---------------------------------------------------------------------------*/
FoamFile
{
    version     2.0;
    format      ascii;
    class       surfaceScalarField;
    location    "350";
    object      phi;
}
// * * * * * * * * * * * * * * * * * * * * * * * * * * * * * * * * * * * * * //

dimensions      [0 3 -1 0 0 0 0];
oriented        oriented;


internalField   nonuniform List<scalar> 
27907
(
-0.082387
0.0650872
0.0172998
-0.0659821
-0.00780775
0.0737898
0.415256
-0.466964
0.0515462
0.0153638
-0.00865728
-0.00670656
0.0159425
-0.00686369
-0.0090788
-0.0127406
0.00627871
0.0064619
0.0102883
-0.000324043
-0.00996421
-0.331032
0.422686
-0.0917257
0.0871164
-0.0772541
-0.00986232
-0.167878
0.0213123
0.146565
-0.0202373
0.182034
-0.161799
-0.00599145
0.00306772
0.00292373
0.0802996
-0.436349
0.355978
0.0844246
-0.106092
0.0216674
0.260298
-0.179855
-0.0804477
0.0492521
-0.0300814
-0.0191707
0.0310249
0.0944756
-0.125501
-0.0906035
0.369651
-0.279093
-0.117825
-0.139583
0.257398
0.14482
-0.122253
-0.0225684
0.00488792
0.000544571
-0.00543249
-0.430353
0.448854
-0.0185072
-0.00489869
0.00257387
0.00232481
0.0580654
-0.0760935
0.0180281
0.0265952
-0.09205
0.0654548
-0.420324
0.08921
0.03824
0.00553401
-0.043774
-0.00221585
-0.00720706
0.00942292
0.0348084
0.0127463
-0.0475547
0.0773309
-0.0599858
-0.0173451
0.093985
0.00643495
-0.10042
0.000877133
-0.00820809
0.00733096
0.474159
-0.46178
-0.0124123
-0.243962
0.122706
0.121251
-0.097804
0.0315546
0.0662494
-0.484525
0.293091
0.191429
0.556994
-0.334876
-0.22214
0.280133
-0.132721
-0.14742
-0.155892
0.243131
-0.0872449
0.0233721
-0.122693
0.0993201
0.272594
-0.191561
-0.0810414
0.158625
-0.139809
-0.0188164
0.177698
-0.341067
0.163339
-0.119812
0.158823
-0.0390122
0.0984503
-0.074221
-0.0242293
-0.49604
0.26187
0.23406
-0.00294874
-0.00194995
-0.154115
0.191834
-0.0377204
-0.148796
-0.0190836
-0.207009
0.399653
-0.19268
-0.0895784
0.114817
-0.0252384
0.0231098
-0.018366
-0.0047438
-0.474922
0.0916087
0.383231
-0.192963
0.172723
0.00565496
-0.00787081
-0.0238028
0.0770873
-0.0532845
0.29936
0.257612
0.043982
-0.0226021
-0.218536
-0.0143498
0.23288
-0.0998564
0.0385578
0.0612985
0.0571781
-0.0864315
0.0292534
0.00863911
0.00164914
-0.112557
0.106169
0.00638771
0.187753
-0.0313952
-0.156359
-0.386743
-0.088253
0.3447
-0.192108
-0.152597
-0.0762398
0.132361
-0.0561217
0.36435
0.109782
0.143442
-0.277287
0.133836
0.0034476
0.0196622
-0.0182233
0.0156693
0.00255402
-0.124044
0.224627
-0.100585
-0.380088
0.173043
-0.016205
0.0103268
0.00587813
0.146967
-0.376766
0.229757
0.21086
-0.0118741
-0.198993
0.0837655
-0.0625725
-0.0211931
0.00863496
0.00421935
-0.0128543
-0.0815128
0.0243435
0.0571692
0.00403775
-0.00183157
-0.00220618
-0.00207091
1.53335e-05
0.00205557
0.0787413
-0.0570384
-0.0217029
-0.0545877
-0.0452687
0.00545743
-0.00920656
0.00374912
0.083943
-0.000177542
0.166265
-0.15024
-0.0160259
0.015896
-0.0258963
0.0100003
-0.0939514
-0.0186058
0.00335679
-0.00255854
-0.000798242
-0.0445253
0.255379
0.00497278
0.000484649
-0.000609262
-0.217932
-0.00403332
0.000420503
0.00361281
0.141248
0.0173764
-0.00266095
0.000527079
0.00213388
-0.00193303
-0.00210029
0.0736667
0.0102763
0.348248
-0.20132
0.124916
-0.26158
0.136654
-0.000700769
0.00558869
0.148912
-0.0229544
-0.125958
-0.00466429
0.00257064
0.00209365
-0.0794896
-0.0224571
0.101947
0.017589
-0.110579
0.0929893
-0.00593493
0.00681206
0.0500996
0.0272313
0.0662798
-0.0458535
-0.0204263
0.014308
-0.00567302
-0.165038
-0.030727
0.195761
0.144353
-0.24194
0.0975862
0.00321509
-0.00514812
-0.016205
0.194704
0.218576
-0.413353
-0.155244
0.261073
-0.105835
-0.0538173
0.0429489
0.0108683
0.0172609
0.000435704
-0.0176966
-0.01219
0.0130194
-0.000829437
0.125453
0.134841
-0.0011141
0.00252626
-0.00141216
-0.00160824
-0.00105271
0.0183836
0.112296
-0.130681
-0.269752
0.240523
0.0292259
-0.0176791
0.0247756
-0.00709649
-0.0400976
0.00077956
0.0393181
0.0206099
-0.0764529
0.0558431
0.0634878
0.0349625
-0.0756851
0.00970302
-0.0620693
0.0739552
-0.0118859
0.00246668
-0.00204618
0.440066
-0.624179
0.184021
-0.0787186
0.109743
0.0613986
-0.0231586
-0.00277274
0.00331731
0.130717
-0.0542727
-0.0764446
-0.00934205
0.0305618
-0.199459
0.118046
0.0814114
-0.0790811
0.0165087
0.122961
-0.0995896
0.276203
-0.151301
0.00394803
-0.0478773
0.0439292
-0.0749457
-0.00656714
-0.00513144
-0.0465616
0.051693
-0.260492
0.238205
0.0222804
-0.054902
0.0310992
0.226054
0.0465332
-0.189207
0.277352
-0.0881534
-0.000851191
0.000448261
0.00040293
-0.00895316
-0.0014004
0.0103536
-0.010619
0.104604
0.0246228
-0.042832
0.0182092
0.0563441
0.0223972
-0.0467198
-0.0102589
0.0569786
0.184261
-0.046164
-0.138098
-0.459044
0.457346
0.00167775
0.00582059
-0.00354393
-0.00227666
-0.00297773
0.155636
-0.152659
-0.00242746
0.00131335
-0.197865
0.0437476
0.0063468
0.164565
-0.170915
0.48623
-0.299371
-0.186863
-0.190325
0.354879
-0.16458
-0.0915963
0.0724141
0.0191822
0.00888799
-0.00482215
-0.00406585
-0.182716
0.189059
0.0849591
-0.0277811
0.0486389
-0.0138305
0.165256
0.0871928
-0.252458
0.019548
-0.00296558
-0.0165824
0.0682483
-0.0891126
0.0208643
0.00574466
0.00838819
-0.0141329
-0.0158362
0.0144121
0.0014241
-0.323383
0.232744
0.00651044
0.00237755
-0.00571681
0.0111478
-0.005431
-0.0301481
-0.0614483
-0.00449571
0.0625611
0.043019
-0.00798555
-0.0350335
0.170874
0.0168776
-0.0603126
0.0642606
-0.265572
0.143175
0.122391
0.261068
-0.459814
0.198674
0.0155608
-0.0155608
0.015858
-0.0625778
-0.178671
0.346122
-0.167473
-0.0729123
0.156748
-0.0838374
-0.0128692
-0.0497168
0.062586
-0.317443
0.233287
0.0841471
0.0152497
0.00201119
-0.220558
0.387424
-0.166905
-0.313286
0.185071
0.128208
0.0676852
0.0630319
-0.0719419
0.00987254
-0.0285364
0.20819
-0.179657
0.0991236
-0.109743
-0.0462138
-0.0548465
0.10106
-0.113955
0.0200038
0.127624
0.0171956
0.106347
-0.0380991
0.53472
-0.300427
-0.234333
-0.182441
0.360104
-0.0283885
0.0745735
-0.046185
-0.179238
-0.0186297
0.137152
-0.149861
0.0127087
0.0830432
-0.101902
0.018859
-0.301192
0.381434
-0.120493
0.0742793
0.0772565
-0.103706
0.0264494
-0.52968
0.0706192
0.00633231
-0.000495547
-0.00583677
-0.170237
0.0214406
-0.165033
0.381829
-0.21684
-0.0893888
0.106978
0.0593045
0.14994
-0.209248
-0.118293
0.136135
-0.0178423
0.051946
-0.0739945
0.0220484
0.00289699
-0.00123683
-0.00166016
-0.0256353
0.0775813
-0.0225069
0.041944
-0.0194371
-0.0873513
0.324963
-0.237662
-0.00579268
-0.00694794
0.204576
-0.200495
0.0354533
0.0905939
-0.0380507
-0.0525433
0.00026753
-0.00111872
0.0199051
0.0584644
-0.0783695
0.102194
-0.0249372
-0.0797944
0.121296
-0.041502
-0.0829807
0.111036
-0.028055
-0.356442
0.295181
0.0612374
0.0702754
-0.106768
0.0364928
0.24702
0.0976773
-0.0216348
-0.0923206
0.00517962
-0.00408272
-0.00109689
0.0869192
-0.0132525
-0.0052915
-0.431116
-0.185776
-0.131676
-0.265036
-0.0914322
0.475389
-0.282979
-0.192517
0.011724
-0.0294032
0.165552
-0.103267
-0.062286
-0.207463
-0.0767062
0.284146
0.0266434
-0.0865365
0.0598931
0.00988273
0.0563971
-0.218833
0.0413149
0.177514
0.0468723
-0.0222495
0.00217308
6.36972e-05
-0.00223678
0.075116
0.0118032
-0.277156
-0.207374
0.000569984
-0.00249744
0.00192745
0.127005
-0.00573123
-0.121274
-0.365643
0.0433075
0.32233
0.0216141
-0.00206611
0.0219071
0.144357
0.0896518
0.0373527
-0.0745844
0.200959
-0.126379
-0.0563733
-0.0614741
0.117847
0.0751968
-0.0208763
-0.0543205
0.0144854
-0.0369924
-0.114928
-0.00336492
-0.088887
0.0596442
0.0292428
-0.115871
-0.167055
-0.130836
0.0466532
0.0841826
-0.309126
0.334782
-0.0256754
0.101789
-0.018746
-0.142537
-0.027701
0.0452702
0.0453237
0.0173996
-0.000856948
-0.0165427
-0.339136
0.25172
-0.0358439
0.201835
-0.165996
-0.0701241
0.0727653
-0.00264129
0.164471
-0.200319
0.109991
-0.182906
-0.031627
0.0256157
0.00887216
-0.0344879
-0.013604
0.00141399
0.137404
0.100192
-0.237602
0.0272048
0.0793148
-0.10652
0.0107026
0.00177226
-0.0124748
-0.0801672
0.0231288
0.210558
-0.180945
-0.0296162
-0.186564
-0.111104
0.29765
-0.176556
0.101542
0.0750131
0.0942417
0.0713102
-0.222467
-0.0380317
0.0130196
-0.00231702
0.0851146
-0.0584712
0.0215846
0.0137507
-0.0353353
-0.00277274
0.00223087
-0.373256
0.190241
0.182989
0.0136205
0.40152
0.0330569
-0.0968977
0.0638406
0.00470652
-0.00180954
0.151664
-0.113494
-0.03817
-0.0645436
-0.0833616
0.105287
-0.0219259
-0.0534041
0.152851
-0.0994473
-0.00150093
-0.268361
0.150526
0.0722189
-0.0299102
-0.0423086
-0.0034619
-0.326489
-0.169669
-0.00478827
-0.0133792
0.0181674
-0.0890242
0.119957
-0.0309326
-0.124558
0.267991
-0.178107
0.0696057
0.108501
-0.0798556
0.106389
-0.0265334
-0.21887
0.204136
0.0147291
-0.367616
0.00196674
0.0107804
-0.0128101
0.00202966
0.0473502
-0.0257656
-0.366694
0.218551
0.148127
0.00911119
-0.0111025
0.00199127
-0.00197036
-0.061137
0.081042
-0.289319
0.305517
-0.0162085
0.439975
0.056764
-0.0677044
0.0109403
-0.0497928
-0.169044
0.13912
-0.317821
0.112816
-0.239011
0.126184
-0.11876
0.213001
-0.0942424
-0.0674441
-0.0216685
-0.11181
0.0319547
-0.0912378
-0.0853188
-0.000625041
-0.102642
-0.139492
0.0172393
0.00718607
0.060499
0.177398
-0.293287
0.324425
0.1618
0.0285492
0.045406
0.00742893
-0.0916209
0.0841918
-0.0564429
0.0836476
0.00987888
0.00548495
0.0583959
0.0932675
-0.217456
0.188916
0.427738
-0.588909
0.161048
0.0485601
0.0236588
0.0186933
-0.0234816
-0.383987
0.118927
-0.193548
0.399257
-0.205751
-0.285347
-0.0986677
-0.116154
-0.0833051
-0.0993384
0.0163576
0.0856944
-0.0590992
-0.0953359
-0.17442
0.256328
-0.136058
-0.120271
-0.383191
0.207511
0.175646
0.0458292
0.00342288
0.0516319
-0.0567634
0.0911055
-0.026306
-0.0647996
0.0326306
-0.0884927
0.0558621
-0.251249
0.198661
0.0525852
0.0634902
0.00791654
-0.0714067
0.00528131
-0.0876684
0.0394507
0.100244
-0.139695
0.0178848
-0.110132
0.092247
-0.00346519
0.00232093
-0.00175444
-0.000566489
-0.0600496
0.0471803
0.354084
0.0860807
-0.440214
0.132251
-0.142648
0.0103965
0.00189146
-0.0614199
0.0595285
0.0301055
-0.00448981
0.00385424
0.141457
-0.145313
-0.213011
-0.160271
0.108835
-0.00716821
-0.101667
0.267939
-0.194497
-0.0734506
0.0318138
0.110191
-0.142005
-0.0616355
-0.000858476
0.062494
4.51742e-05
-0.00774407
0.0076989
-0.0710541
0.090721
-0.0196669
-0.118016
-0.0214772
0.0149542
0.00244545
-0.265469
0.0324719
0.232993
0.0282905
-0.207531
0.123072
0.138041
-0.261122
-0.239494
0.0835953
0.0173637
-0.0886077
0.0712439
0.172667
-0.000207207
-0.172461
0.00997653
-0.000865338
0.072052
-0.0406024
-0.0314496
-0.188994
0.114405
-0.199682
-0.16703
-0.00161605
-0.0114315
0.0130476
-0.0895963
0.0185422
0.0340825
0.0530339
-0.018362
-0.247111
0.0910674
0.0188445
-0.109912
0.121005
-0.307586
0.15949
-0.0258291
-0.133661
0.163179
0.0773429
-0.164145
-0.175042
-0.00667211
0.0091205
-0.00244838
0.00273452
0.00359779
-0.0640519
0.0260925
0.0379594
0.0191111
-0.259902
-0.232744
0.492542
0.00873046
0.0645309
-0.0732614
0.00101961
-0.00942493
0.00840532
0.0567976
-0.113171
0.397474
-0.202833
-0.00128926
0.0111681
-0.14398
-0.129214
0.273178
-0.279087
0.184317
0.0947617
0.429801
-0.168803
0.0704367
-0.0530731
0.155293
0.110981
-0.266278
-0.154394
0.0345807
-0.0541073
0.0867379
0.00681194
-0.0224073
0.0155953
0.25205
-0.139249
0.00451356
0.0114289
-0.096387
0.129497
-0.0331108
0.098541
-0.387874
-0.0270745
0.163255
-0.136182
-0.268174
0.13793
0.130238
0.188241
-0.138908
0.0855027
-0.0838479
0.115631
-0.0317835
0.0833754
-0.0761896
0.0028142
-0.000641112
-0.0757556
0.0941388
-0.366217
0.19864
0.16757
-0.00470503
-0.065419
-0.0347454
0.0300149
0.00473055
0.00506845
0.0203569
-0.0254254
-0.0112098
-0.00462634
0.0285931
-0.0966955
0.0681023
0.21622
-0.178188
-0.038035
0.193822
-0.358028
-0.360484
0.152994
-0.123158
0.182459
0.0594045
0.0313164
0.0219877
0.10171
-0.123698
-0.140193
0.145013
-0.00482109
-0.117711
0.0286869
0.0340199
0.0134656
-0.0648908
0.0514252
0.0227039
-0.171369
-0.0968092
-0.135633
0.135008
0.000876434
0.00248035
-0.214467
0.0279536
0.186511
-0.00568031
0.00572547
0.427612
-0.414435
0.232055
0.000795378
-0.0110499
0.0102545
-0.118968
-0.0158471
0.134815
-0.165819
-0.0433075
0.209122
0.0640612
0.0111356
-0.0852072
-0.0125969
-0.0517779
0.0848348
0.00488127
-0.00241459
-0.162262
0.150384
0.192133
-0.0294617
-0.162673
0.0118626
-0.00227481
0.00534253
-0.0187288
-0.0656488
0.0843774
-0.104355
0.100762
0.00359315
0.0832922
0.00113239
0.0649885
-0.0515229
-0.000471792
-0.011983
0.0124548
-0.0675344
0.0877924
-0.211838
0.115571
-0.0313425
-0.084229
-0.229961
0.0747107
0.0952922
-0.0358879
0.0738377
0.13879
-0.21263
0.00216212
0.00271916
0.107511
-0.0164443
-0.0746547
0.0765461
-0.141685
0.00149068
0.00883076
0.0852398
-0.0940707
0.148794
-0.0381006
-0.0379929
-0.17446
-0.205665
0.00227463
4.63007e-05
0.255404
-0.132339
-0.0390144
0.0746511
-0.0356367
-0.447386
0.145153
0.302216
0.0600189
-0.0628596
0.00284069
-0.112018
0.143831
-0.445035
0.279281
0.165732
-0.0762388
-0.185354
0.221016
0.208723
-0.0428351
0.00255088
0.0402842
-0.00222374
-0.000341235
0.00256498
-0.0276344
-0.0261829
-0.105353
-0.0137664
0.119119
0.0395246
-0.162375
0.122848
0.0902712
0.0161176
-0.280812
0.515498
-0.234695
-0.417452
0.0305354
0.386918
0.0188439
-0.0159816
-0.00286227
-0.256899
0.180648
0.225934
0.119002
-0.34494
0.00869917
-0.0920608
-0.113048
0.467071
-0.0142746
-0.0900804
0.102968
-0.0126972
-0.0805
0.306431
-0.117402
0.272689
-0.00457526
-0.107125
0.1117
-0.170475
-0.043994
0.124329
-0.127308
0.046626
0.000246284
9.21861e-05
-0.118684
0.118591
0.0789195
-0.0976485
0.00697966
-0.138089
0.131108
-0.259274
-0.10695
-0.0407851
0.0158908
0.0248943
-0.175194
-0.0203417
0.195534
0.142663
-0.190615
0.0479487
-0.0472058
0.0620936
-0.0148878
-0.0158896
-0.00241759
0.0183072
-0.0897148
0.0985453
0.0656108
-0.0350154
-0.0305954
0.122152
-0.118299
-0.0578366
0.00216259
-0.0180522
0.276972
-0.111727
0.000346124
-0.00874886
0.00840273
-0.0813111
0.0422967
-0.328533
-0.034907
0.36342
0.0461133
0.000512717
-0.00845171
0.0155621
0.0932725
-0.251077
-0.228948
0.479896
-0.0887682
0.096197
-0.00263123
-0.0175686
0.0201999
0.0885652
0.134559
-0.286457
0.151887
-0.207188
0.027328
-0.169645
-0.0492291
0.0329928
-0.222207
0.465318
-0.446332
-0.0191319
0.0587389
0.0336367
-0.0268248
-0.16858
0.178164
-0.00958582
0.0340317
0.0146072
-0.277714
0.164512
0.113199
-0.0931512
0.105145
-0.0119941
-0.0694433
-0.0110428
-0.298099
-0.403039
0.11151
-0.170417
0.058905
-0.519508
0.244711
0.274768
0.178779
0.0317762
-0.1874
0.0516222
0.135777
-0.100067
-0.165512
-0.0728159
0.0980733
-0.0252575
0.00715708
0.0386721
-0.174771
0.373668
-0.198965
-0.0164979
0.0206514
-0.00415349
-0.00647286
0.00296727
0.00350558
0.132673
-0.0448851
-0.0877879
0.0528269
0.0627445
-0.0133614
-0.0506905
0.0196801
-0.131285
0.131376
0.121232
0.0285026
-0.149735
-0.00878607
-0.00943725
-0.176927
0.00834456
-0.00531831
0.102966
-0.0976479
-0.26805
0.111387
0.156656
0.00247835
-0.0093418
0.00686344
0.0695406
-0.126811
0.0572703
0.0795167
-0.0278848
0.06774
0.0169867
-0.0847268
0.00873063
-9.15165e-05
-0.0654183
0.153233
-0.266956
0.113715
-0.100532
-0.0115416
0.112074
-0.091723
0.0782087
0.0135143
0.035272
0.0828718
-0.0622619
-0.219309
0.0501381
0.169168
0.0492291
-0.0393464
-0.190082
-0.00821741
0.198297
0.160412
0.116958
-0.277386
-0.187487
0.408443
0.381907
0.104694
-0.486663
-0.00766758
0.00400664
0.00366093
0.0435921
0.00563702
0.231453
-0.24982
-0.0535016
0.0715329
-0.0180314
0.14163
-0.10716
-0.0344698
0.0246026
-0.0195341
-0.00165741
-0.000566334
0.00234312
0.0544209
0.0623104
0.0146137
-0.0769242
0.0285151
-0.194717
0.166192
0.00774633
-0.0149534
0.112393
-0.0132693
-0.0906694
0.238663
-0.148001
-0.121934
0.0456943
0.000477872
0.0103037
-0.00950835
-0.153039
-0.0909271
-0.161142
0.00739767
0.153744
0.235227
-0.0875869
-0.147645
-0.444317
0.0155464
0.428639
-0.00760925
0.00997753
-0.00236828
-0.0789447
0.0976928
-0.0187482
0.00370611
-0.00616909
0.0071887
0.148418
-0.242702
0.0942811
0.25119
0.2835
-0.0175641
-0.102249
0.119813
-0.07042
-0.359937
-0.325449
0.135098
-0.0293497
-0.158051
-0.151272
0.203515
-0.052246
0.0333533
0.126922
-0.0573818
-0.0450363
0.104154
-0.0591181
-0.00954356
0.015232
-0.00568845
0.0959371
0.00482444
-0.325815
-0.121589
-0.0109734
-0.107995
-0.00125851
-0.0854717
0.0867302
0.0197079
-0.0156734
-0.00403443
-0.121251
0.115933
0.0751225
-0.0690774
-0.00604514
0.0275356
-0.125533
0.0979971
-0.00427522
0.235724
-0.0710516
0.01755
-0.0324715
0.0358724
-0.00340091
0.0299207
0.178266
0.0693975
-0.266334
0.196912
0.0646134
-0.0294265
-0.0351869
0.000308487
0.061311
0.424237
-0.0423782
-0.00220355
0.000449109
0.00355965
-0.00355965
-0.0872322
-0.00449086
0.200623
0.198994
0.00629395
-0.00617387
-0.00012009
-0.0115005
0.00884801
0.00265245
-0.0193858
0.140108
0.0325572
-0.447459
0.272231
-0.0472427
0.047761
-0.000518238
0.317745
0.158445
-0.0888874
0.0654884
0.023399
0.00818939
-0.00784327
0.0661777
0.0154226
-0.0816003
0.00207777
0.00665286
0.0196925
0.0852093
-0.104902
0.00626676
-0.0054587
-0.000808065
-0.113068
0.0292198
-0.23229
0.199799
0.0324867
0.0472523
-0.208394
0.0144706
-0.0145695
9.89049e-05
0.0192036
-0.00305626
-0.0161473
-0.000720044
-0.000703879
-0.0070402
0.137379
-0.0339524
-0.054935
0.152663
-0.433476
-0.118256
0.0384616
-0.0166833
0.0991764
-0.0824932
-0.0919758
0.00239733
0.0910641
-0.419619
-0.12019
0.149671
-0.0294825
-0.0635508
0.0722812
0.00315066
-0.0196486
0.0139589
0.000511687
0.00883237
-0.0113249
0.00249257
-0.0774681
0.116918
0.0613071
0.087604
0.0867956
-0.0116796
0.122797
0.13353
0.158845
0.137554
-0.296419
0.228946
0.090771
-0.319725
-0.00252015
-0.135995
0.138513
-0.08328
-0.344125
0.0684
0.275721
-0.106261
0.0895771
-0.165468
-0.160493
0.325933
-0.448073
-0.176195
-0.197655
0.402044
-0.204436
0.01245
-0.00727889
-0.00517115
-0.0653495
0.209702
-0.411914
-0.0689009
0.480801
0.099977
-0.117541
0.00461921
0.114839
-0.119459
-0.3093
0.13448
-0.00894347
0.00227136
0.22531
0.0426215
0.162254
0.114271
-0.27654
0.00579627
-0.104525
0.0987281
-0.00234141
-0.0851096
0.0874509
0.149514
-0.227895
0.149745
0.0781476
0.0111026
0.0640199
0.067024
0.170213
-0.105462
-0.0647522
-0.0355512
0.00307968
0.105226
0.0649865
-0.0158459
0.0145566
0.0214638
0.0191285
-0.00776386
-0.0133111
0.0210749
-0.00959698
0.00198773
-0.21598
-0.000465862
0.0161352
-0.0808664
0.0149849
0.0658815
-0.202688
-0.175806
0.378417
-0.00137009
0.00213252
-0.000762437
-0.1536
-0.179388
0.332976
-0.19955
0.40346
-0.203955
-0.102167
-0.0292521
0.131418
-0.465714
0.186573
-0.0838171
0.108031
-0.0242141
0.0162015
0.00350635
0.212927
-0.00889546
0.0011316
-0.176359
0.204864
-0.0274212
0.139717
0.00360395
0.0155996
-0.227147
0.398056
-0.170977
-0.00491567
0.00175104
0.00316463
-0.133622
0.160034
-0.0264133
-0.110968
0.265499
-0.154537
0.328528
-0.191004
-0.137533
-0.00708925
0.236028
-0.0782425
0.0480095
0.030233
0.0242151
-0.0526037
0.0103994
-0.0138675
0.00346813
0.109437
-0.0134998
0.00593358
0.000345127
0.119445
-0.0997997
-0.0196453
-0.145488
0.0649251
-0.0770903
0.0121651
0.0101504
-0.00131808
-0.00816037
0.0704708
0.0302748
0.0442987
0.0235326
0.0675729
-0.0930046
0.11246
-0.0194561
-0.109881
0.160218
-0.0503385
-0.0649521
-0.0132904
0.0640367
0.110856
-0.174896
0.0796415
-0.0232974
0.346991
0.122009
-0.469054
0.00480527
0.00148869
-0.0480521
0.170755
0.0794744
-0.0491997
0.113478
-0.118054
-0.0491906
0.20335
-0.154164
0.0620942
-0.0493479
0.178083
0.148762
-0.326872
0.0156753
-0.09033
-0.166952
0.0333285
0.201562
0.121897
-0.09991
0.107214
-0.102859
-0.00435528
-0.0279247
0.0759341
-0.0138413
0.0474628
-0.0548887
0.00742589
7.75988e-06
0.0100674
-0.0100752
-0.268353
-0.232403
-0.00110533
-0.00109822
-0.0886643
-0.200806
0.289463
0.0823882
-0.0735023
-0.00888592
-0.0789847
0.0986771
0.0100001
0.172032
0.247443
-0.327946
-0.0684306
-0.109677
0.16515
-0.235747
-0.266116
0.155139
0.142432
-0.0280447
-0.114389
0.0670971
0.0152911
0.0689791
0.0351752
0.0409475
0.0236659
0.00330176
0.0928208
-0.0961227
0.432135
-0.237548
-0.194614
0.109496
-0.0173373
-0.0921589
0.00103945
0.0419796
0.305853
-0.139882
-0.165997
0.0823537
0.0168226
0.0885917
0.0747442
-0.163338
-0.0163111
0.018012
-0.00170084
0.0870761
-0.188639
0.101562
-0.00270539
0.00251208
0.000193313
-0.117648
0.464581
0.0642555
-0.0357063
0.0957447
-0.507665
-0.0496048
-0.0546536
0.104258
-0.219251
0.128576
-0.149852
0.147329
0.0143989
-0.137342
0.122942
0.146454
0.280526
-0.118288
0.428694
-0.273001
-0.155761
0.00517048
-0.0480055
0.0070975
-0.0070975
0.149064
-0.110563
-0.0385025
-0.00629131
0.00137564
-0.217721
0.213443
-0.0247227
0.126433
0.181123
-0.025489
-0.0801906
0.0351175
0.0450731
0.00182149
0.00221626
0.125088
0.0239761
0.237897
0.129286
-0.367228
0.0572702
0.0222465
0.140357
0.0483634
-0.266088
-0.028091
-0.129154
0.157244
0.0115318
-0.0131478
-0.0253503
0.000858789
0.0244915
-0.0689963
0.073223
-0.00422665
-0.0285911
-0.0391133
-0.0282028
0.0524179
-0.176401
0.0576402
0.293855
-0.21324
-0.0806237
0.0523468
0.0272947
0.20245
0.0121892
0.0691955
-0.0813847
0.0306228
0.127424
-0.158048
-0.424012
0.295402
0.128609
0.00604334
0.0180004
-0.0240438
0.0194446
-0.012582
-0.00686263
-0.220455
0.01381
-0.0034106
0.130035
-0.123056
-0.0898052
0.112364
-0.0225585
-0.0217653
0.0814094
0.0370197
0.013652
0.0507873
0.0272292
-0.0780165
0.529902
-0.325682
-0.204294
-0.453629
0.0523808
0.401093
-0.0107527
-0.00483281
0.0155856
-0.128054
0.265451
-0.136709
-0.140586
0.151853
0.228349
-0.0912955
-0.137059
0.0388809
-0.0440714
0.00519046
-0.0155658
-0.0625164
0.0780822
0.0171951
0.00397916
-0.00180552
-0.00217363
0.0299174
-0.126305
0.0748986
-0.043344
0.165293
-0.0767047
0.378186
-0.0896488
-0.288585
0.169306
0.272764
-0.442182
-0.297259
-0.0941047
0.391308
0.0126053
-0.0130771
0.00102437
-0.0824518
0.0587547
0.0236971
0.345215
-0.0977739
0.361744
-0.123893
-0.116887
-0.132231
-0.14588
0.278101
0.0244746
-0.126642
-0.129757
-0.0246379
-0.0166794
0.00722155
0.0171486
-0.0243702
-0.0277652
-0.0784955
-0.0392059
0.0670541
-0.0278482
-0.0656753
-0.0167765
-0.142085
0.276635
-0.0793331
0.014381
0.232069
0.0617766
-0.00425902
-0.0306502
-0.0502162
0.00167494
-0.00238352
0.000708588
-0.00797016
0.0597568
-0.0517866
0.0411618
-0.192438
0.121481
0.0209507
-0.0711319
0.0274221
0.0437098
-0.00253393
0.00434345
-0.00180952
-0.00059988
-0.0990344
0.0616911
0.0373433
0.0827239
-0.0839825
-0.0122868
0.0144494
0.344275
-0.457376
0.0799151
0.00688054
-0.0365789
-0.00351872
0.10148
-0.0061883
0.44891
-0.257289
0.122713
0.00420843
-0.00614768
0.00748587
-0.00133819
-0.0174488
-0.0233363
-0.0597289
0.0929335
-0.0332047
0.311893
-0.139152
-0.172745
0.0186568
0.13983
-0.158489
0.121663
-0.106015
-0.0156484
-0.0112514
0.0113151
0.149819
-0.199015
-0.0517674
-0.0293139
0.0810813
-0.141769
0.305266
-0.163515
0.0216553
0.0553662
-0.0854753
0.0301091
0.163661
-0.303569
-0.345649
0.203663
0.141971
-0.0775922
0.151428
-0.164424
0.0218863
-0.168812
0.398861
-0.230099
-0.122132
0.186166
-0.182601
0.0487197
-0.00125686
-0.0687707
0.0865647
-0.0177941
-0.0102017
0.00880132
0.329326
-0.0117524
-0.0686475
0.0803998
0.317163
-0.164969
-0.152196
-0.014156
-0.00296096
-0.0742932
-0.103428
-0.00108048
0.104509
-0.304482
0.162697
-0.169864
-0.0813884
-0.022019
-0.054434
0.0992928
-0.028353
-0.0709398
-0.110538
0.139039
0.00806745
-0.00131255
-0.0067549
0.0771511
0.0243292
-0.171981
-0.0833881
0.231803
-0.0189021
0.000207483
-0.00276603
-0.0939421
0.00407905
0.0898629
-0.437151
0.249573
0.187527
-0.0706739
0.0166814
0.0539925
0.243971
0.193216
-0.437212
0.108562
-0.135984
0.343369
-0.263945
-0.0794481
0.055072
-0.082967
0.027895
0.0031152
0.199085
-0.397334
0.198206
0.121159
0.156185
0.0705065
-0.0815464
0.0110399
0.221053
-0.0678251
-0.0110116
-0.0346605
0.045672
0.0150183
0.000840995
-0.0158593
-0.0912295
0.10146
-0.0102306
-0.119144
-0.357764
0.0579056
0.299855
0.0968083
0.246534
0.248911
-0.36661
0.0131432
0.0560126
0.0210746
0.0583739
0.208392
-0.172586
-0.0358087
-0.00385594
0.00248585
-0.39623
0.136243
-0.175805
-0.137488
0.0174219
-0.0254075
0.132573
0.163126
-0.295717
-0.0178995
0.0110358
-0.226566
0.40313
-0.176634
0.00130419
-0.107767
0.106463
0.138698
-0.14509
0.294209
-0.149127
-0.28815
0.255843
0.0322967
-0.181776
0.425718
0.000803561
0.0136085
-0.202963
0.0371402
-0.195367
-0.228646
-0.00894502
0.0488909
-0.0399459
0.12471
-0.00199696
0.470857
-0.254669
-0.216225
0.109947
-0.104151
0.00970196
0.12745
-0.101088
0.345773
0.0254904
0.209328
-0.1098
0.00637132
0.00211959
0.000392483
0.0669135
0.0206088
-0.0875224
0.146001
0.13793
-0.283937
0.0444192
0.0271137
-0.0307611
-0.0699487
0.10071
0.115043
-0.0220352
-0.0930075
-0.136927
-0.0274982
-0.0184425
0.107182
-0.0887392
0.0612357
-0.200138
0.105886
0.0942507
-0.119699
0.0198995
-0.20118
0.291941
0.138465
0.183119
-0.321605
-0.16118
0.336583
-0.175426
-0.00566723
-0.103664
0.10933
0.0792826
0.0568517
0.118264
-0.0152986
0.118398
0.152375
-0.270784
0.130053
-0.158146
0.0193879
-0.00280649
-0.00837515
0.0111816
0.0407091
-0.086196
0.271259
0.358731
-0.0877667
-0.270988
-0.117041
0.110581
-0.046723
-0.0638577
-0.147392
0.0174914
2.17629e-05
-0.0175131
0.317107
-0.177718
-0.139401
-0.122281
0.275241
0.083467
0.0321379
0.0223902
-0.0545281
0.00302777
-0.00407308
0.00104531
0.176842
-0.477305
0.0198191
0.151303
-0.171125
0.192383
0.211036
0.0186238
-0.0976086
0.462068
-0.253389
-0.208728
-0.188533
-0.0759898
0.26452
-0.0598397
0.0562654
0.00357439
-0.365315
0.461047
0.158487
-0.308298
0.149793
-0.409067
0.220083
0.188973
-0.106353
0.052356
0.0539969
0.435108
-0.281917
-0.153243
0.284748
-0.134489
-0.150268
0.00259785
0.0199047
-0.0225025
0.0176439
-0.0619366
0.0442927
0.039295
-0.0239644
-0.07507
0.000602694
-0.00404248
0.00343979
0.11267
-0.0809261
-0.031744
0.177992
0.139103
-0.35483
0.0979198
0.000131313
0.00696619
0.0347879
-0.223324
0.031809
0.0838221
-0.0136912
0.0989004
0.124813
-0.100339
-0.123746
-0.0288236
0.152568
-0.0819184
-0.129905
0.211818
-0.135526
0.0175098
0.17832
-0.204638
0.0263158
0.238127
-0.440331
0.202149
0.0829883
-0.0276222
0.0194157
-0.00553263
-0.0138831
0.127984
-0.0239401
-0.104044
0.157727
-0.455049
-0.0523634
0.0413518
0.0270077
0.00625271
0.00372382
-0.00873998
0.00565034
-0.00381147
-0.0859939
0.263064
-0.459996
0.196908
-0.386516
0.135331
-0.00597207
0.419818
-0.414002
0.0182664
-0.454495
0.342441
0.112035
-0.243882
-0.0442784
0.00190522
0.00128972
-0.00319494
0.0320024
-0.102756
0.0970885
-0.198436
-0.156407
0.0954196
-0.092118
-0.0774346
0.0117593
-0.226362
-0.218693
0.0862072
0.0726155
-0.102043
-0.0478188
0.0580063
-0.0386591
-0.0193472
-0.0990271
0.0821121
0.15311
-0.158057
-0.0349078
0.105341
-0.134593
0.424965
-0.212658
-0.212353
-0.00341414
0.0912921
-0.0878781
-0.173085
-0.0443751
-0.0321808
0.0582732
0.0207635
-0.0795049
-0.0186812
0.0981861
-0.288503
0.144506
-0.0246734
0.124917
-0.000627528
0.00345247
-0.00282494
-0.0147228
0.00606554
0.0654612
0.019378
-0.0848392
-0.0974842
0.00354195
0.00141434
0.016077
-0.191455
0.121433
-0.322624
-0.0318769
-0.166474
0.198347
-0.00459672
-0.0524882
-0.305279
-0.124903
0.117204
0.0560528
0.0855766
0.106459
-0.00499937
-0.451501
0.173466
0.277992
-0.475343
0.20263
0.27268
-0.146575
0.233759
0.110726
-0.476048
0.00510743
-0.0738781
-0.00873955
0.00803567
-0.0794204
0.0727442
0.00667618
-0.285602
0.196933
-0.0129314
0.0145807
-0.00164939
0.0962999
0.0253634
0.273168
-0.459475
0.186273
-0.0794971
-0.0621882
0.448239
0.018138
-0.466536
-0.0173985
-0.0865108
0.103909
0.0444953
-0.200853
0.156355
0.161467
0.150423
-0.00490796
-0.00202238
0.00693034
-0.011983
-0.000463688
0.00492467
-0.00446098
0.161254
-0.219637
0.0583777
-0.00632019
-0.00924064
-0.11625
0.0069253
-0.00745587
0.000530571
0.00198655
-0.00689451
-0.459765
-0.110218
0.0917755
0.0553145
-0.0708804
-0.199071
-0.192372
-0.217614
0.409931
-0.00614747
-0.00275135
0.00889882
0.136659
-0.218584
0.32412
-0.129086
-0.19505
0.0279116
0.0574527
-0.0853643
-0.0321602
0.345115
-0.096248
0.13083
0.0261065
-0.156937
0.449974
-0.140275
0.163031
-0.0227574
0.0450415
0.0542513
-0.270297
-0.189211
-0.00645499
0.00158477
0.00487022
-0.134841
-0.263063
-0.212315
-0.0888866
0.0192689
0.0696177
-0.0844942
0.0995515
-0.0150574
0.0546588
-0.104264
0.376478
0.0734892
-0.0290701
0.159963
0.101105
0.00476442
-0.288567
0.149411
-0.122935
0.313635
-0.190721
0.0434506
-0.00319821
-0.0402524
0.190791
0.214878
-0.405747
0.00240024
0.207759
-0.0768637
0.104399
0.0351488
-0.043119
0.0196521
-0.0222833
-0.134778
-0.133277
0.140146
0.0844796
-0.195819
-0.149844
0.174888
0.000654244
-0.175543
-0.158165
0.0482834
-0.0784186
-0.035768
0.114186
-0.23696
-0.185305
0.422176
-0.00225444
0.161342
-0.310214
0.148854
0.296011
-0.173716
-0.122303
-0.0795637
-0.0267893
-0.0280192
0.073914
-0.0458948
0.0412853
0.0866981
-0.349244
0.471194
0.00397004
-0.0101175
-0.0967387
0.106449
-0.00971001
0.160038
0.123272
-0.0993569
-0.0239154
0.142742
-0.288968
0.159737
7.17839e-05
0.0392697
-0.0393415
-0.115418
-0.260772
0.13782
-0.132849
0.267442
-0.134605
-0.00314359
-0.00092949
-0.157423
-0.11614
0.273551
0.318329
-0.202202
-0.116142
0.00337124
-0.170816
0.0305391
0.00148462
0.00263375
-0.00411837
-0.139287
0.0597894
-0.342443
-0.101973
-0.216342
0.408679
-0.00517866
0.170432
-0.146827
-0.0236061
0.153505
0.163656
-0.0406251
-0.00661765
0.00580219
-0.00701025
0.00120806
0.324847
0.110217
-0.00155415
-0.00734648
0.00890063
-0.0844043
0.00489932
0.211583
0.0529055
-0.264498
-0.253478
0.145029
0.108446
-0.046899
-0.0344121
-0.038133
0.327659
-0.289537
0.0530269
0.00790363
-0.0609305
0.109296
0.0189792
-0.368269
0.0841915
-0.0685162
-0.0043016
0.00334082
0.000960781
-0.0125594
0.263584
-0.100151
-0.163441
0.00855094
-0.00809971
-0.000451235
-0.117968
-0.0175593
0.0188802
0.0251018