/*--------------------------------*- C++ -*----------------------------------*\
| =========                 |                                                 |
| \\      /  F ield         | OpenFOAM: The Open Source CFD Toolbox           |
|  \\    /   O peration     | Version:  v2012                                 |
|   \\  /    A nd           | Website:  www.openfoam.com                      |
|    \\/     M anipulation  |                                                 |
\*---------------------------------------------------------------------------*/
FoamFile
{
    version     2.0;
    format      ascii;
    class       volScalarField;
    location    "100";
    object      k;
}
// * * * * * * * * * * * * * * * * * * * * * * * * * * * * * * * * * * * * * //

dimensions      [0 2 -2 0 0 0 0];


internalField   nonuniform List<scalar> 
18758
(
0.000178185
0.00308507
0.00014876
0.000177194
0.000165322
0.000141299
0.000143345
0.000152166
0.000163387
0.00016192
0.00199417
0.00444804
0.000277512
0.000151545
0.000143138
0.000141838
0.00359984
0.000130742
0.000143014
0.000153772
0.00386176
0.000327028
0.000142522
0.000140781
0.00393977
0.0165812
0.00793027
0.000216792
0.00018639
0.00495013
0.0140521
0.00735828
0.000151775
0.0461434
0.000167281
0.00473005
0.000264506
0.000165883
0.0173172
0.000135007
0.0044243
0.000163867
0.00247227
0.000146428
0.000144946
0.0104754
0.000161902
0.000187921
0.029682
0.000174338
0.00220414
0.0462245
0.000173192
0.000154271
0.000193639
0.000257226
0.000139912
0.00015321
0.00018652
0.000139572
0.000146941
0.000145979
0.00584695
0.000436995
0.000147307
0.0551886
0.000147203
0.000133286
0.00021787
0.000130936
0.0436579
0.0373483
0.000142998
0.000159566
0.000219235
0.0155614
0.000682691
0.00356434
0.000163589
0.00211474
0.000183384
0.0144921
0.00270709
0.000183013
0.000150253
0.000188115
0.000156034
0.000160588
0.00764214
0.000188099
0.0385297
0.000153216
0.000179063
0.029955
0.000142888
0.000139062
0.00013265
0.000178175
0.00463171
0.00014235
0.0128875
0.000161334
0.000133214
0.00013903
0.055533
0.00365455
0.000187854
0.037815
0.00129291
0.0104231
0.000142006
0.000576097
0.000166436
0.000146744
0.000161269
0.000277531
0.000177779
0.000138096
0.000291271
0.000153893
0.000145341
0.000677213
0.000150832
0.000138235
0.0267227
0.000154306
0.000144319
0.000138253
0.000198675
0.0191458
0.000186535
0.000153628
0.000161863
0.0413478
0.000135387
0.000146238
0.000584369
0.000149778
0.000220393
0.000183233
0.000173028
0.00565015
0.00017252
0.00120189
0.0254049
0.000173748
0.0553998
0.000194578
0.00222781
0.0187803
0.0138129
0.0255028
0.000146337
0.000167992
0.00423382
0.0172897
0.000178931
0.000199042
0.000187161
0.00285515
0.0360286
0.000139596
0.0301751
0.055559
0.00925101
0.00014006
0.00013948
0.0359166
0.017817
0.00653585
0.0266396
0.000149349
0.000188954
0.00598716
0.0040876
0.000142393
0.000142809
0.00105915
0.0398631
0.000149185
0.000132336
0.000153455
0.000192249
0.000150938
0.0253289
0.000143626
0.0053426
0.000165896
0.0305129
0.0182881
0.0255421
0.000143558
0.000196019
0.00101731
0.000131472
0.000150669
0.000230769
0.000146151
0.0309968
0.000142064
0.000147373
0.000203964
0.00359308
0.000141794
0.000142039
0.0309147
0.000142515
0.000169545
0.0155453
0.0221724
0.000145859
0.000179711
0.000148966
0.000148872
0.000151939
0.000132874
0.000144527
0.000179422
0.000137603
0.00504204
0.00201601
0.000141596
0.000172074
0.000205169
0.00305422
0.00433677
0.00022841
0.000188937
0.036095
0.000142277
0.0163235
0.000173599
0.00422432
0.000148484
0.000140741
0.00014199
0.000220325
0.0292329
0.00024409
0.000148967
0.000142142
0.000214089
0.000211362
0.000147124
0.0234334
0.000232746
0.000140817
0.000138267
0.000143777
0.00014241
0.0270877
0.000145335
0.00471768
0.000142492
0.000147116
0.000261925
0.000139892
0.0429966
0.000142894
0.00163945
0.000167194
0.00013855
0.000140905
0.000194192
0.000514858
0.000877698
0.000138682
0.000216335
0.00014646
0.00014595
0.000311609
0.0541795
0.00014574
0.000141525
0.000151283
0.000151471
0.000159116
0.000136282
0.000149605
0.000151532
0.000138256
0.000153748
0.000142355
0.0537998
0.00014323
0.000141338
0.000130333
0.000208046
0.000138962
0.000138964
0.000148512
0.000149534
0.000139725
0.000142882
0.000146432
0.000152461
0.00406765
0.000157527
0.000142713
0.0272364
0.00015464
0.000142482
0.000142544
0.0132164
0.000762415
0.000132285
0.000273198
0.00390592
0.000146917
0.000263116
0.000142385
0.00585548
0.000225306
0.000197861
0.000185546
0.0437269
0.000132951
0.011475
0.000214015
0.000147147
0.000196638
0.000183691
0.0126899
0.000140714
0.000133017
0.021099
0.00592245
0.000139676
0.028225
0.000202777
0.000183861
0.037426
0.000140643
0.000140338
0.000142673
0.000146426
0.000148943
0.000153493
0.000152325
0.000142977
0.000148711
0.000148942
0.000980831
0.0140243
0.000148651
0.0116657
0.00560049
0.000139487
0.000164803
0.000898727
0.000837138
0.00538008
0.000239009
0.000143611
0.0280064
0.00298188
0.000170468
0.000148914
0.000181812
0.000148875
0.000145575
0.00023637
0.000587418
0.00431496
0.000246636
0.000778926
0.000140821
0.000157316
0.000153954
0.000179028
0.0292864
0.000268465
0.00761267
0.000248759
0.00482246
0.000245515
0.000147483
0.0525441
0.000195156
0.00122088
0.00384672
0.000142435
0.000140564
0.000478334
0.00501116
0.00624835
0.000320124
0.0274613
0.000149119
0.00525752
0.0109868
0.000141916
0.000151309
0.000151399
0.000151325
0.00014572
0.000149244
0.000144164
0.000157131
0.000147136
0.000144671
0.000167016
0.00822305
0.000159872
0.00421674
0.00472274
0.021584
0.00606512
0.000196765
0.000148976
0.000141509
0.00280117
0.000151301
0.000149061
0.000576084
0.00017873
0.00288793
0.000140129
0.000755123
0.000144481
0.000154827
0.000131923
0.0325095
0.00114682
0.00561947
0.000145932
0.0355588
0.00017847
0.000144115
0.000150141
0.000146471
0.00945236
0.000146707
0.000142472
0.0123438
0.000160198
0.000149186
0.000142696
0.000151816
0.000155973
0.00161144
0.000412696
0.00015077
0.0545983
0.000131858
0.000155807
0.000187963
0.000143687
0.0110954
0.000150408
0.000156415
0.000148208
0.000260599
0.000158177
0.000144112
0.0290136
0.000848648
0.000130402
0.000157321
0.000155375
0.000141809
0.000144039
0.00015088
0.000530919
0.0361131
0.000147379
0.000168342
0.00084176
0.00070548
0.00614361
0.000234285
0.00663332
0.000137418
0.000195445
0.000207269
0.000164915
0.00015161
0.0053214
0.000324588
0.000170632
0.000140157
0.000143359
0.000139033
0.000143672
0.000138994
0.000143788
0.00021048
0.000150078
0.000131522
0.00017793
0.00015261
0.000148493
0.000134932
0.00015405
0.000315563
0.00436054
0.00014274
0.00199366
0.000144703
0.000160208
0.000192184
0.0281844
0.00025219
0.000142978
0.000143686
0.0339553
0.0383423
0.000245175
0.000139997
0.000663734
0.0540044
0.00013031
0.000143119
0.0333401
0.000152184
0.000184185
0.000241971
0.000152435
0.000168355
0.000138355
0.000141869
0.000152571
0.000145413
0.000141999
0.000146983
0.00788501
0.000132159
0.00193042
0.000607448
0.000130397
0.000132165
0.000151242
0.000157981
0.000159069
0.000693735
0.000142421
0.0205049
0.000164182
0.00016489
0.00014148
0.000143219
0.000144958
0.000147588
0.000147474
0.028649
0.0297975
0.000138186
0.000141774
0.000149314
0.0365822
0.000132042
0.000133174
0.000144026
0.000131587
0.000140946
0.000141241
0.000150406
0.000141806
0.000188073
0.000142342
0.000135907
0.00022429
0.024854
0.000164676
0.000144582
0.000142487
0.000149352
0.00014248
0.000151564
0.00138418
0.00162381
0.000149365
0.00442701
0.000142347
0.000165523
0.000144906
0.000142431
0.000174215
0.000130954
0.000145523
0.00791214
0.000148172
0.000150857
0.000240214
0.000143971
0.000143324
0.0318315
0.000137923
0.000718308
0.00043894
0.000143534
0.000148535
0.000179967
0.000152885
0.000159165
0.000142191
0.00221468
0.00550014
0.00691693
0.000138539
0.026715
0.000131379
0.000146327
0.000142344
0.000167646
0.0165679
0.000233231
0.000144016
0.000150683
0.000152865
0.00109186
0.000341203
0.000141221
0.000334427
0.000154968
0.0289455
0.000161513
0.000203436
0.000139739
0.000166233
0.000179567
0.000143436
0.000139808
0.00013209
0.000139053
0.000159235
0.000253801
0.00466479
0.00756254
0.000202852
0.000157603
0.000142445
0.000137867
0.00185304
0.000513618
0.000135227
0.000172774
0.0248919
0.0288027
0.000147918
0.000147464
0.000186549
0.00503262
0.000131293
0.000839148
0.000143805
0.000155681
0.000162067
0.000144891
0.000147501
0.000148246
0.000138561
0.000149455
0.000321347
0.000174071
0.00668007
0.000148748
0.000141162
0.00029356
0.000133418
0.000303763
0.00807302
0.000143968
0.000567881
0.000153305
0.000145168
0.000606276
0.00592518
0.0061649
0.00055446
0.000152397
0.00752304
0.000132237
0.0464054
0.0230682
0.000168504
0.000143009
0.0075532
0.000154584
0.000207395
0.0237776
0.000578353
0.000145885
0.00674442
0.000142574
0.00017401
0.000187715
0.000141135
0.000163799
0.000494999
0.000715725
0.000157706
0.000150702
0.000131542
0.000148923
0.000155616
0.000165518
0.000229105
0.000141726
0.000290706
0.000156705
0.000145827
0.000157519
0.000131839
0.000997042
0.000142268
0.000139113
0.0218423
0.00013804
0.000149884
0.0019052
0.000178669
0.000178933
0.000143807
0.000145691
0.000184478
0.000145465
0.00471622
0.000154204
0.000152663
0.000150427
0.000145512
0.000131407
0.0353987
0.00013184
0.0363602
0.000211271
0.000149425
0.0392846
0.000140572
0.000175059
0.000157114
0.00533493
0.000153837
0.00290104
0.0036559
0.000147183
0.00153459
0.00013575
0.0242804
0.000145681
0.000148215
0.0514234
0.00299237
0.00014213
0.000146685
0.000151977
0.000138146
0.000143743
0.00474386
0.032685
0.000141202
0.000138012
0.000135845
0.0013912
0.000233212
0.000252178
0.0001385
0.000368498
0.000148194
0.000145885
0.000160518
0.00363202
0.000141233
0.000173217
0.00483523
0.000146076
0.000601415
0.000144167
0.000161705
0.000141237
0.000138353
0.000157587
0.000146049
0.000179918
0.000143576
0.0461611
0.000146525
0.000154509
0.000186179
0.000260851
0.000173559
0.00014275
0.000145399
0.0039048
0.000470809
0.00019881
0.000139601
0.000142329
0.00015965
0.0275285
0.00250142
0.000140909
0.000142067
0.000149279
0.000146443
0.000149456
0.000142497
0.000144782
0.00637779
0.000142236
0.000143411
0.00389255
0.000138471
0.000218679
0.000209801
0.000972008
0.00657912
0.00600575
0.0319043
0.000142516
0.000142462
0.000151551
0.000141078
0.00014129
0.000139056
0.000141017
0.000148746
0.000429878
0.000191619
0.0021514
0.00015023
0.000141929
0.000164937
0.000166522
0.000188919
0.00014786
0.000149508
0.000138148
0.0314121
0.0098414
0.00850211
0.000148305
0.000189053
0.000196871
0.000548816
0.0270893
0.000607856
0.00015
0.000156751
0.000136674
0.0432654
0.000146445
0.00013288
0.000191942
0.000791711
0.000142223
0.00481782
0.00770682
0.000142447
0.000142259
0.000142542
0.000144008
0.00014327
0.000154143
0.000163509
0.000143325
0.000146544
0.00742134
0.0311231
0.000142923
0.00566691
6.00733e-05
0.000149318
0.000144593
0.000141376
0.000139327
0.000150869
0.000149337
0.00014473
0.000147597
0.00015308
0.00014641
0.0524242
0.000159486
0.000143512
0.000144151
0.0126918
0.000146056
0.000132839
0.0140823
0.000141364
0.000167415
0.000157616
0.000143459
0.000139467
0.000138162
0.000154277
0.00016881
0.000144784
0.00615002
0.000190262
0.000195409
0.000457095
0.000149009
0.00025282
0.000132239
0.00107996
0.000149585
0.000143239
0.000195097
0.000270374
0.000148029
0.0151423
0.0299914
0.000139236
0.000161259
0.000132898
0.000149322
0.000159966
0.000151391
0.000142968
0.000346675
0.000141057
0.000141476
0.00426109
0.000141964
0.000141292
0.000139484
0.0539484
0.000144378
0.000143923
0.000163196
0.00952925
0.00494228
0.000253933
0.00756198
0.000142049
0.000131688
0.000143534
0.000538971
0.000150373
0.000141078
0.000153023
0.000137764
0.0223514
0.000146737
0.000145799
0.0177503
0.000142213
0.000178377
0.0141328
0.000131665
0.000143252
0.000969761
0.000151253
0.0230473
0.0137874
0.000137822
0.00014436
0.00027057
0.000138645
0.000153139
0.00650148
0.00013639
0.0034798
0.000142453
0.000143721
0.000143151
0.000166287
0.000151763
0.00702733
0.000154157
0.000140792
0.000346963
0.00369745
0.000169154
0.000167068
0.000336536
0.0278108
0.0128194
0.000131312
0.027316
0.000148173
0.0338345
0.00712877
0.000141251
0.000160577
0.000146872
0.00489979
0.000139753
0.00677648
0.000141936
0.0159892
0.000190562
0.00014014
0.00013159
0.000142533
0.0123483
0.0224423
0.000143866
0.00358602
0.000146321
0.000141237
0.00405855
0.000143095
0.00288295
0.000140046
0.000153586
0.000140563
0.00014012
0.000140868
0.000139827
0.000205108
0.000171162
0.000167407
0.00016641
0.000148492
0.000142679
0.00734621
0.000142632
0.00680475
0.000145466
0.00289755
0.000157993
0.00377548
0.000139702
0.000141066
0.000141082
0.035203
0.000146682
0.00811303
0.000200217
0.000143598
0.000157073
0.000142591
0.000138133
0.000151591
0.000141425
0.00574432
0.000143986
0.000150242
0.0001437
0.000151767
0.00658188
0.00245399
0.000145571
0.000139532
0.000144684
0.000148048
0.00014194
0.000159943
0.000148218
0.000142454
0.000137577
0.000139126
0.000211254
0.000184113
0.000146762
0.000137674
0.000283991
0.000149444
0.0233988
0.00515179
0.000148371
0.0319818
0.000153529
0.000139649
0.000143198
0.000153084
0.000215199
0.000138397
0.000166634
0.00547423
0.000193278
0.000281228
0.0527641
0.0280964
0.000160702
0.000145901
0.000144444
0.00819928
0.000137599
0.000147118
0.000162683
0.000415373
0.000144293
0.000140279
0.0279715
0.000153483
0.000150188
0.000151423
0.000153694
0.000194271
0.00014445
0.00015419
0.00014389
0.000162101
0.000151901
0.000147682
0.00014776
0.00651922
0.000147652
0.000142732
0.00625628
0.000131638
0.000143418
0.00014662
0.000149979
0.000145821
0.00167104
0.00019444
0.00821099
0.00587191
0.00198945
0.00570629
0.000148878
0.000457959
0.00687522
0.000145354
0.000149268
0.000147994
0.000144497
0.000150252
0.000148934
0.000230071
0.000231612
0.000147362
0.00013549
0.000180766
0.000151871
0.00530957
0.000143213
0.000148435
0.000142082
0.000252048
0.000391521
0.000163003
0.0481089
0.000142348
0.000142195
0.000192892
0.000166359
0.000141877
0.000225688
0.000148541
0.000160257
0.00526723
0.000206454
0.000161938
0.000147879
0.000148355
0.000148367
0.000138824
0.00615609
0.000203513
0.0350371
0.00182517
0.0287897
0.000148279
0.0295702
0.0387854
0.0526139
0.000186984
0.0222577
0.000161734
0.00184217
0.000197742
0.000164281
0.000130703
0.000142574
0.000145799
0.000177316
0.000139539
0.000146002
0.000266586
0.0320751
0.0228695
0.00641848
0.000183452
0.00460715
0.000169899
0.000154258
0.000142784
0.0338491
0.000234859
0.000142767
0.000163909
0.00838062
0.0283674
0.0249778
0.000170352
0.000191151
0.000131749
0.020801
0.000147635
0.00580346
0.00995896
0.000160705
0.000192965
0.00019784
0.000144261
0.000143101
0.00486534
0.00147221
0.000208804
0.000148264
0.000145584
0.000151937
0.00537085
0.000163472
0.00656206
0.000148248
0.00697929
0.00125011
0.000156453
0.000279476
0.000219319
0.0283014
0.000131752
0.00016794
0.0396583
0.000161081
0.000141925
0.0100094
0.00539137
0.000142358
0.000142582
0.00422424
0.000149307
0.000149528
0.0444442
0.000314559
0.000145063
0.000160971
0.00408174
0.000163208
0.000152466
0.000152218
0.00335821
0.000156209
0.000140405
0.000141342
0.000292103
0.000139252
0.000622843
0.000137013
0.000138575
0.00739135
0.000146919
0.000142444
0.000304378
0.000131397
0.000153471
0.000137937
0.000142327
0.000144689
0.000182779
0.000144565
0.00669331
0.000193872
0.00403418
0.0447554
0.00015524
0.000137793
0.000139255
0.040882
0.00015843
0.000143302
0.005881
0.000168266
0.0221274
0.000137625
0.000136815
0.000137803
0.00014116
0.000144518
0.000134116
0.000148372
0.000148767
0.000143143
0.00131936
0.000167706
0.00718001
0.000149031
0.000138039
0.000168282
0.0506004
0.0380363
0.00616585
0.0507357
0.00801999
0.000229773
0.0382652
0.000151277
0.00017077
0.000174383
0.0291744
0.000141141
0.000271116
0.00142239
0.000214005
0.000142608
0.00646981
0.000141753
0.000142537
0.000147105
0.000162201
0.000574013
0.0168987
0.000145729
0.000131174
0.000138849
0.000134828
0.00018157
0.000143417
0.0389559
0.000188037
0.000188478
0.00014879
0.000142371
0.000133748
0.0251126
0.000362454
0.000146241
0.000141873
0.022163
0.000134706
0.000143509
0.000135984
0.000144276
0.000144549
0.00014626
0.000138026
0.00330721
0.000152545
0.000253391
0.000163317
0.000146739
0.00021556
0.000146803
0.0076353
0.000146836
0.000174677
0.00137011
0.000829978
0.000168214
0.000210947
0.0276221
0.000152168
0.000168473
0.000152592
0.000142304
0.000138633
0.000140485
0.000326428
0.000173769
0.000154504
0.000242885
0.000138383
0.00014487
0.000171557
0.00950908
0.000131288
0.000171535
0.005871
0.000187266
0.010339
0.000150088
0.00014619
0.0242176
0.000175426
0.00013982
0.000142353
0.000191745
0.00013761
0.000138446
0.0308301
0.000183461
0.000149666
0.000148304
0.000145842
0.0391509
0.000153859
0.0212344
0.00195016
0.000142671
0.000141738
0.000328016
0.000169008
0.000164562
0.000150415
0.000174164
0.000169785
0.000139606
0.000152935
0.000222572
0.000176978
0.0129052
0.00574063
0.000166679
0.00770785
0.000353995
0.000141047
0.00735442
0.00557517
0.00015183
0.0534266
0.00014684
0.000197646
0.000191125
0.00352207
0.000172149
0.00025624
0.00016489
0.00520507
0.000141841
0.000132927
0.0466163
0.000151187
0.000142273
0.000142145
0.000147791
0.000134717
0.000148873
0.000141267
0.000142433
0.0453948
0.000510072
0.000142461
0.000147518
0.000263947
0.00582818
0.000131574
0.000216461
0.000250081
0.000174808
0.000145587
0.00014079
0.0259087
0.000147906
0.000186262
0.000192586
0.000138561
0.000163176
0.0424471
0.000143188
0.0049967
0.000603365
0.038245
0.000148593
0.000143157
0.000143189
0.000145168
0.000142235
0.00729178
0.0180153
0.000138321
0.000705473
0.00100133
0.00015087
0.000145928
0.00014219
0.00614152
0.029226
0.000218139
0.00019695
0.000152515
0.0443544
0.00605959
0.000138753
0.000142353
0.000158451
0.000166893
0.000472111
0.00536359
0.000140611
0.000302919
0.00689044
0.000162415
0.000139889
0.000145995
0.000152291
0.000141734
0.000149208
0.000138379
0.000232142
0.00101998
0.000144558
0.00014632
0.000166675
0.000138629
0.000142486
0.00014803
0.00669326
0.000137953
0.000151503
0.030161
0.000217656
0.000555863
0.000183457
0.000147681
0.000148608
0.000149125
0.000137568
0.000141364
0.000148532
0.000343318
0.00017775
0.000150149
0.000195895
0.000138033
0.0188562
0.000250989
0.00014358
0.00184811
0.000140654
0.000151487
0.000211003
0.0401271
0.000155944
0.000153909
0.000153522
0.000217677
0.000132029
0.0404851
0.042245
0.000138181
0.000189652
0.0043648
0.000144866
0.000150813
0.00590541
0.000188005
0.000146659
0.00509304
0.000155137
0.000142388
0.00362465
0.000100571
0.00424204
0.000141077
0.000642123
0.000168415
0.000133588
0.000183856
0.000163704
0.000145646
0.000200689
0.0026335
0.00530814
0.000186467
0.000220964
0.00013804
0.0513252
0.00721464
0.000213929
0.000236213
0.000144988
0.000291957
0.000145105
0.00014174
0.000175608
0.000149331
0.000469326
0.00725172
0.000146748
0.0547629
0.0106581
0.0339884
0.000161379
0.000189492
0.000131304
0.000147164
0.000153276
0.00013114
0.0120312
0.00309138
0.0472145
0.000516186
0.00023809
0.00548483
0.0385829
0.000143931
0.000156484
0.00364737
0.00018366
0.000145237
0.000142192
0.000272455
0.000214148
0.000160328
0.000142742
0.000145849
0.000221983
0.000142447
0.000227537
0.00749798
0.000134491
0.0396078
0.000137886
0.0425704
0.000245837
0.0518575
0.000150365
0.00469932
0.000144815
0.000142531
0.000150254
0.0293956
0.000172799
0.00447923
0.000148086
0.000142448
0.000399002
0.0496074
0.00014667
0.000191275
0.000416644
0.0375072
0.00193346
0.000140271
0.000145463
0.00549322
0.000131248
0.000138715
0.000155741
0.000143773
0.000147376
0.000140053
0.000142033
0.000154844
0.000142032
0.000165946
0.000174846
0.000142643
0.00537056
0.0288218
0.000157069
0.000135607
0.000143076
0.000205916
0.000143585
0.000142701
0.0001445
0.000186226
0.000143492
0.000156002
0.000152653
0.000301015
0.00497246
0.000140946
0.000216674
0.00024004
0.000160095
0.00039324
0.000333374
0.0001411
0.000142627
0.000239263
0.00021378
0.000157987
0.00243575
0.0221371
0.000143063
0.00955581
0.000148762
0.00020056
0.00518806
0.000374917
0.0298821
0.000151055
0.000141333
0.00317617
0.000152823
0.00964532
0.000186338
0.0049249
0.0399944
0.00014075
0.000170343
0.000141952
0.000281604
0.000200549
0.0321127
0.000141472
0.00014475
0.000233287
0.000147937
0.00109602
0.000140561
0.00502733
0.00195911
0.000175173
0.0515536
0.0284262
0.000140754
0.000140793
0.000143995
0.000344927
0.00401431
0.000148195
0.000154625
0.000147984
0.000135684
0.000178873
0.000141033
0.000136818
0.000239706
0.000147896
0.000136558
0.000155736
0.0363721
0.00657694
0.0374886
0.00014579
0.000215085
0.000157226
0.000156318
0.000188284
0.00021569
0.0290958
0.000138593
0.000193273
0.000131579
0.000168153
0.000189929
0.000181951
0.00541364
0.000149885
0.000207476
0.00013729
0.005386
0.00317565
0.000136867
0.000150918
0.000152347
0.000152845
0.0244789
0.000144405
0.000144502
0.000149073
0.00014795
0.000139687
0.000151041
0.000143157
0.0001482
0.000143418
0.000141675
0.0100194
0.00641428
0.0540034
0.000135391
0.000131956
0.000132801
0.000135876
0.000133002
0.000172167
0.000132636
0.000138094
0.000142803
0.000139825
0.000162271
0.000142594
0.000296739
0.0306665
0.000170829
0.00293548
0.000146001
0.0102235
0.000227116
0.000214971
0.000139965
0.00160404
0.000150089
0.000144105
0.000145099
0.000229267
0.000198059
0.000140343
0.000232495
0.000159472
0.00014267
0.000242457
0.00666109
0.000165173
0.000140701
0.000152888
0.000788138
0.000164548
0.00426332
0.000140426
0.000148116
0.000144338
0.000151679
0.000170512
0.00701969
0.000168044
0.000136915
0.00170973
0.000227839
0.000204715
0.000141238
0.000155527
0.0505255
0.000140999
0.000147937
0.000163117
0.0150083
0.000134476
0.000142863
0.000138164
0.000168498
0.000145953
0.00600237
0.000145217
0.000156352
0.000162626
0.0443034
0.000138723
0.000136965
0.000131703
0.000165084
0.000135559
0.0350934
0.00347381
0.000166807
0.00503174
0.000142916
0.0041422
0.000145232
0.000137821
0.000226783
0.000194572
0.000218141
0.00549725
0.00224264
0.00227024
0.000170587
0.000167858
0.000149553
0.00132559
0.000144674
0.000149257
0.000259645
0.000147464
0.00544268
0.00454058
0.00428063
0.0072591
0.00540669
0.00536804
0.00344624
0.000184431
0.000152444
0.000195557
0.000144265
0.000137078
0.000141531
0.0401779
0.0451442
0.00477645
0.000157443
0.000154762
0.00522501
0.000140494
0.00021023
0.000136737
0.00017254
0.000142199
0.000133005
0.000150514
0.000170861
0.0109682
0.000164432
0.000161882
0.000137775
0.000185256
0.0102906
0.000137265
0.000208506
0.0299533
0.000131211
0.000177657
0.000137708
0.0296257
0.000147244
0.009727
0.000148181
0.000145865
0.00016212
0.000228934
0.00169572
0.000193964
0.00571759
0.000151272
0.000144637
0.00014498
0.000145034
0.000136793
0.000143244
0.00128999
0.0410092
0.000177135
0.000143179
0.000156389
0.000153255
0.000145886
0.000147647
0.000194411
0.00498146
0.00248939
0.00014431
0.00514107
0.000137718
0.00018011
0.000151282
0.00017108
0.000198304
0.00405395
0.00580342
0.000133177
0.000144285
0.000140492
0.000142463
0.000144293
0.000142117
0.0401388
0.000146187
0.000147438
0.000148404
0.00017318
0.000141705
0.0285134
0.0382172
0.00494376
0.000145349
0.00813736
0.000136647
0.00577736
0.0152994
0.000150344
0.00492284
0.000154232
0.000180882
0.000140804
0.000146867
0.000160418
0.000192785
0.000202787
0.00554279
0.000221617
0.000195092
0.000178053
0.000149872
0.000143767
0.00853091
0.00015338
0.00655676
0.000148967
0.0544729
0.00143095
0.00612862
0.000150595
0.0160239
0.000154421
0.000147504
0.000135974
0.000152032
0.000183139
0.000142697
0.00432404
0.000205008
0.000202921
0.000141413
0.000156426
0.00139189
0.00533435
0.00749586
0.000156209
0.000175056
0.050021
0.00114175
0.000147811
0.000192058
0.00635383
0.00018246
0.00029738
0.000157924
0.000160764
0.000222749
0.000133958
0.00472792
0.000175466
0.000144102
0.00115354
0.00588373
0.0110293
0.000154648
0.000198573
0.000182471
0.000136922
0.000181665
0.000149653
0.000119469
0.000140018
0.0420574
0.0310122
0.00483794
0.0073226
0.000187931
0.00258399
0.000154934
0.000217195
0.00736465
0.0351257
0.000150982
0.000149056
0.000141858
0.000157689
0.000134317
0.000141291
0.00478611
0.000141653
0.000138492
0.000165879
0.0001494
0.000132592
0.000241721
0.00156807
0.000178063
0.000146189
0.000144623
0.000161567
0.000149891
0.000141572
0.000140563
0.00013659
0.000416237
0.000157285
0.00021241
0.000158964
0.000143522
0.000132898
0.000201071
0.000212325
0.000256526
0.000181462
0.000147361
0.000170981
0.000140574
0.000159054
0.0167186
0.000374728
0.000197774
0.000152814
0.000137438
0.000162628
0.00717758
0.00594385
0.00486876
0.000156681
0.000137944
0.000137953
0.000155697
0.000871038
0.0322389
0.000138133
0.00489556
0.000132883
0.000144181
0.000203501
0.00014033
0.00114097
0.000204185
0.00433755
0.000133411
0.000171249
0.00017179
0.0411975
0.000137785
0.000146293
0.0002291
0.0034704
0.000573276
0.00560689
0.0417584
0.000150179
0.000205503
0.000157166
0.000172513
0.0381072
0.000169038
0.000140853
0.000145573
0.000135216
0.00886209
0.0534698
0.000156442
0.0435594
0.000135846
0.000140977
0.000145739
0.000220117
0.000216747
0.0497672
0.000143689
0.000148734
0.00016941
0.0206343
0.000136534
0.00480322
0.000140308
0.000160603
0.0383441
0.00013989
0.0191035
0.000194949
0.00573561
0.0262642
0.000143796
0.000153463
0.000151653
0.0287703
0.000213813
0.000145124
0.0130774
0.000546702
0.000131165
0.000151254
0.0035496
0.000136891
0.0265573
0.0316656
0.000156507
0.000131768
0.000155105
0.000159226
0.0490303
0.000137789
0.000168359
0.000149989
0.0219107
0.0359047
0.000142641
0.000136382
0.000205709
0.000158127
0.000144621
0.000142937
0.000140045
0.000180888
0.000152381
0.0197445
0.000148915
0.00014859
0.000141003
0.00015129
0.000155893
0.000151345
8.36114e-05
0.0068398
0.00466977
0.000148107
0.000136402
0.0102569
0.00015903
0.000180915
0.00256978
0.000190287
0.00747012
0.0333101
0.000136002
0.0118454
0.000552823
0.000150392
0.000140113
0.000143692
0.000143618
0.00108605
0.00542508
0.000144443
0.0539296
0.00670211
0.0362407
0.000132673
0.000138645
0.0219786
0.000140109
0.000145683
0.000164111
0.00014185
0.00146912
0.000155448
0.0382977
0.0042788
0.000141553
0.000323063
0.000315404
0.0302529
0.000360407
0.000142988
0.000155194
0.000172511
0.0292153
0.000325889
0.000562484
0.000147626
0.000143776
0.000192674
0.000136915
0.0288879
0.0047054
0.000140506
0.0154316
0.000137211
0.0296762
0.000145957
0.00634989
0.000150069
0.00161845
0.000275614
0.0310029
0.0135674
0.000135094
0.0152333
0.0322621
0.000148604
0.0324646
0.000148221
0.000133435
0.000143647
0.000160931
0.000154554
0.00014562
0.000141124
0.000633342
0.000172517
0.000181832
0.0525863
0.000184586
0.000159113
0.000148291
0.000194153
0.000136256
0.000185793
0.0217244
0.000412964
0.00749879
0.000150975
0.000153164
0.000150435
0.000202266
0.000152202
0.000141281
0.0240382
0.00553819
0.0364048
0.000155153
0.000145561
0.000176074
0.000370211
0.000148078
0.000136677
0.00015014
0.000151141
0.000172243
0.00014327
0.00513683
0.000147374
0.0380003
0.000138504
0.000752355
0.0045939
0.00261261
0.000135569
0.000185747
0.000144863
0.000137429
0.000194109
0.00478892
0.000141577
0.000149447
0.0310711
0.000144074
0.000186046
0.00594979
0.000158984
0.0022121
0.000145444
0.000601381
0.000162811
0.0024886
0.0001363
0.000142146
0.0544592
0.000140047
0.00516373
0.00015541
0.000164766
0.037723
0.000150471
0.00014378
0.000149666
0.000141477
0.00988274
0.0340383
0.000137397
0.00525442
0.000234618
0.000300161
0.000143946
0.000332284
0.00179898
0.000160594
0.000161419
0.000143947
0.0539389
0.000133631
0.0406456
0.000136181
0.000139773
0.000154287
0.000145802
0.000138507
0.000226536
0.000153061
0.00014159
0.005943
0.000137956
0.000185339
0.000157343
0.00920117
0.000206199
0.000140389
0.000169296
0.000141081
0.000140493
0.00015491
0.0442931
0.00249137
0.00644484
0.0257214
0.000136514
0.000143531
0.000144578
0.000140267
0.000135604
0.0229868
0.000133257
0.00015463
0.000203665
0.000149196
0.000217576
0.000144736
0.000136595
0.0330484
0.000391245
0.000146015
0.00017327
0.000164628
0.00031787
0.000141563
0.00015166
0.00492097
0.000145885
0.00181021
0.000234558
0.000149502
0.000149972
0.0254061
0.000154959
0.000185682
0.00167398
0.00258566
0.00015382
0.000157729
0.000173875
0.0360652
0.000148582
0.00538915
0.0011676
0.00709012
0.0345046
0.000139361
0.000144113
0.000142196
0.00204603
0.000801336
0.000303305
0.0280267
0.000135429
0.0187549
0.000139727
0.0537724
0.000143317
0.000175565
0.000200143
0.000149076
0.000149227
0.000188672
0.00015742
0.000147963
0.000148917
0.000197495
0.00015324
0.000140671
0.0105412
0.000148127
0.000148295
0.00014344
0.00121583
0.000181465
0.00719705
0.000163384
0.000152681
0.0331525
0.000156898
0.000211984
0.000137233
0.000142248
0.054898
0.0282031
0.000272817
0.000145462
0.000154357
0.0517311
0.00021251
0.000195891
0.0015109
0.0038506
0.00543469
0.000136371
0.0038797
0.00014023
0.000182411
0.00678744
0.000186031
0.000186084
0.000151442
0.0303321
0.000193613
0.00514921
0.000210548
0.00014169
0.00014335
0.000144096
0.0118204
0.000137371
0.00523125
0.000185013
0.00558239
0.00013568
0.0378217
0.0556698
0.00536012
0.00685569
0.00015014
0.000147177
0.000142184
0.00015769
0.000144237
0.000155262
0.0526574
0.000145993
0.000150525
0.0290791
0.00549434
0.00562551
0.000157913
0.000167688
0.000139799
0.0295328
0.000149074
0.0466926
0.000173256
0.00094179
0.0001652
0.000186504
0.00552306
0.000142915
0.000142297
0.0155588
0.00280963
0.000268074
0.000197097
0.000176493
0.000141507
0.000235024
0.000143872
0.000255751
0.000143617
0.000151246
0.00723861
0.000149418
0.000186075
0.000137604
0.0550882
0.00169509
0.000178091
0.000164643
0.0324918
0.000159037
0.000136086
0.0352728
0.0557893
0.0293356
0.000140043
0.000147892
0.00785286
0.0516761
0.0144801
0.000145845
0.000152862
0.000146079
0.000159306
0.000147918
0.000138447
0.000390565
0.000140784
0.0433366
0.000153338
0.00854102
0.00013565
0.0448514
0.00590377
0.00018768
0.00538924
0.00120653
0.000138607
0.000196607
0.000884374
0.000139753
0.000147675
0.000145033
0.0321344
0.0178572
0.000144516
0.0273256
0.000176857
0.000142625
0.0329715
0.000152162