/*--------------------------------*- C++ -*----------------------------------*\
| =========                 |                                                 |
| \\      /  F ield         | OpenFOAM: The Open Source CFD Toolbox           |
|  \\    /   O peration     | Version:  v2012                                 |
|   \\  /    A nd           | Website:  www.openfoam.com                      |
|    \\/     M anipulation  |                                                 |
\*---------------------------------------------------------------------------*/
FoamFile
{
    version     2.0;
    format      ascii;
    class       surfaceVectorField;
    location    "100";
    object      Uf_0;
}
// * * * * * * * * * * * * * * * * * * * * * * * * * * * * * * * * * * * * * //

dimensions      [0 1 -1 0 0 0 0];


internalField   nonuniform List<vector> 
27882
(
(1.0232 -0.000938521 5.09887e-22)
(1.02355 0.000357933 4.67697e-22)
(1.02211 -0.000122563 4.62291e-22)
(1.0647 -0.00378303 -1.05881e-21)
(1.06611 0.00615415 -1.31985e-21)
(1.06151 0.00712397 -3.65798e-22)
(1.00373 2.54396e-05 3.41298e-22)
(1.00436 -6.64785e-06 5.67188e-22)
(1.00491 -3.76296e-05 -2.15753e-22)
(1.02422 -0.00208639 -6.49729e-22)
(1.02241 -0.00213731 0)
(1.00189 -0.00546644 -9.02846e-23)
(1.00116 -0.00389034 7.29331e-22)
(1.00036 -0.00573232 -1.82984e-21)
(1.00862 0.000159082 -3.7612e-24)
(1.00942 0.000299 -8.13215e-23)
(1.0089 0.000213361 -2.62235e-23)
(1.01559 -0.00491336 3.79112e-22)
(1.01569 -0.00509282 -7.56921e-23)
(1.01584 -0.00501704 1.94162e-22)
(1.02321 -0.0191996 -4.20716e-22)
(1.02372 -0.0198834 5.083e-22)
(1.02285 -0.0200627 1.26444e-21)
(1.00257 -0.00677222 1.89666e-21)
(1.00317 -0.00514738 0)
(1.00332 -0.00779226 1.70543e-21)
(1.00417 -0.00864329 -1.86489e-21)
(1.00452 -0.00719436 -2.24434e-22)
(1.05403 -0.0277085 -8.43407e-22)
(1.05626 -0.0176058 -1.19275e-21)
(1.05049 -0.0214273 1.77057e-22)
(0.943236 -0.253535 -7.72494e-21)
(0.943963 -0.262743 -4.41758e-22)
(0.96606 -0.242877 4.46563e-21)
(0.959231 -0.0551104 -3.49018e-22)
(0.959428 -0.0455051 -1.69189e-22)
(0.950399 -0.050242 -2.721e-21)
(1.03538 -0.0164369 -3.40777e-21)
(1.03637 -0.0165525 -1.69697e-21)
(1.03572 -0.0156419 -1.46958e-22)
(1.01507 -0.00459315 -2.24658e-23)
(1.01534 -0.00477606 1.6874e-22)
(1.01512 -0.00479755 -5.89268e-23)
(1.01267 -0.00204767 -6.17741e-24)
(1.01253 -0.00194368 1.39772e-23)
(1.01255 -0.00206977 1.92908e-23)
(0.936452 -0.237744 -3.68206e-21)
(0.925439 -0.257914 3.99476e-22)
(1.01372 0.00160974 -1.66047e-24)
(1.01355 0.00153963 9.1085e-24)
(1.01483 -0.00444772 -6.15126e-23)
(1.01503 -0.00442335 6.52041e-23)
(1.01329 -0.0108449 2.38077e-22)
(1.01282 -0.010515 -9.28791e-23)
(1.01286 -0.0113843 1.03725e-21)
(1.08019 0.0915715 9.71112e-22)
(1.09188 0.0787901 -2.5371e-21)
(1.08577 0.0680922 -3.46504e-22)
(1.05738 -0.0108226 0)
(1.07007 -0.0127622 0)
(1.07372 -0.00964874 0)
(1.00738 0.000108634 -3.06669e-23)
(1.00836 0.000169311 2.71324e-23)
(1.00771 0.000168373 2.09045e-22)
(1.00812 0.000220826 3.23928e-22)
(1.00855 0.000285634 3.8448e-22)
(1.0371 -0.00924686 -2.05113e-22)
(1.03073 -0.0133991 0)
(1.09649 -0.0021788 -1.16385e-21)
(1.12011 -0.00500705 1.08884e-21)
(1.05851 0.0101731 4.58428e-21)
(0.868188 -0.299711 0)
(0.882325 -0.296699 -5.82561e-21)
(0.860337 -0.274245 7.83087e-21)
(1.0084 -0.136445 4.26345e-22)
(1.01423 -0.133091 5.04596e-22)
(1.01275 -0.142388 -5.05692e-23)
(1.08825 -0.0655198 -1.74193e-21)
(1.0906 -0.067831 2.63314e-21)
(1.08732 -0.0681137 2.11666e-21)
(1.06803 0.0223751 -1.57403e-21)
(1.06295 0.0403085 -8.81659e-22)
(1.06424 0.0342897 3.22899e-22)
(0.71604 0.0643986 8.03086e-21)
(0.739423 0.155823 5.49383e-21)
(0.75358 0.12277 -2.7242e-22)
(0.857869 -0.297099 1.34539e-21)
(0.877583 -0.30681 -7.54021e-21)
(1.02272 -0.0186053 -1.109e-21)
(1.02349 -0.0185205 -4.94151e-22)
(0.798542 0.00697708 -2.16048e-22)
(0.771782 0.00184675 -1.44715e-21)
(0.723987 0.00780751 4.41846e-22)
(1.00049 -0.00234887 -1.02241e-22)
(0.999738 -0.00109875 -1.60662e-21)
(0.998774 -0.00280682 4.25441e-22)
(1.06996 0.00289872 -1.00917e-21)
(1.06796 0.00295523 7.48297e-21)
(0.96732 -0.0589044 2.87692e-24)
(0.958599 -0.0643094 4.22077e-22)
(1.00197 -0.0023528 1.9179e-21)
(0.848395 -0.11524 -6.68604e-21)
(0.881777 -0.128182 1.51852e-20)
(0.865925 -0.0426398 -3.63156e-20)
(1.01681 0.00451911 7.87594e-23)
(1.01645 0.00452637 1.73938e-23)
(1.01649 0.0042502 6.82286e-23)
(0.946092 -0.180846 -1.12209e-22)
(0.958293 -0.162446 3.02054e-21)
(0.940873 -0.168405 4.82201e-21)
(1.00535 -0.0117063 -9.52774e-22)
(1.00456 -0.0129052 -9.93661e-23)
(1.00396 -0.0112025 -1.13607e-21)
(0.963644 -0.122317 -4.66722e-22)
(0.970451 -0.13415 -4.246e-21)
(0.980312 -0.119745 4.83772e-22)
(1.01261 -0.0012174 -3.28335e-22)
(1.01281 -0.00131369 -2.54791e-22)
(1.01282 -0.00153404 -4.56865e-23)
(1.01048 -0.000632347 -4.11587e-23)
(1.01041 -0.000631006 -8.71945e-23)
(1.0108 -0.000694064 -2.97441e-23)
(0.670015 0.068436 -3.17819e-21)
(0.680422 0.1218 4.96111e-21)
(0.702541 0.157032 3.95958e-22)
(1.00649 -0.0118275 1.01597e-22)
(1.00618 -0.010635 -1.92674e-21)
(1.08634 -0.0740022 2.2688e-22)
(1.08297 -0.0745661 2.07525e-21)
(1.08564 -0.0775369 3.8227e-21)
(-0.0212466 0.0131771 7.83864e-21)
(-0.0181744 0.0178014 9.49286e-21)
(-0.0122093 0.0334956 -3.13839e-20)
(1.02086 -0.00504711 -5.31551e-22)
(1.02175 -0.00429602 2.76546e-23)
(1.02037 -0.00382715 -1.15751e-21)
(1.05093 -0.0370271 6.52743e-23)
(1.05775 -0.0351983 1.11917e-21)
(0.372587 0.240958 -9.75457e-21)
(0.378552 0.232219 -5.26182e-22)
(0.434877 0.214625 2.41623e-21)
(1.02087 -0.00646392 0)
(1.01969 -0.00559636 0)
(1.01726 -0.00964981 8.08034e-22)
(1.0168 -0.00981987 4.18012e-22)
(1.01734 -0.0100815 6.36319e-22)
(1.08909 -0.0305896 -2.31738e-21)
(1.08707 -0.0301691 2.61634e-21)
(1.08851 -0.0285234 3.04188e-21)
(0.959946 -0.0367414 2.46784e-22)
(0.967165 -0.0414026 1.42542e-21)
(1.01167 0.00102106 1.67483e-22)
(1.0116 0.000944907 4.37356e-22)
(1.01168 0.00105374 -3.50116e-22)
(1.01369 -0.0111725 -1.00647e-21)
(1.01368 -0.0104937 -1.1489e-21)
(1.07965 -0.0747094 -1.21547e-21)
(1.07844 -0.0779337 -2.28709e-21)
(1.07636 -0.0748917 -2.26217e-21)
(1.01179 0.00112072 -4.07494e-22)
(1.01165 0.000999022 -4.32272e-22)
(1.0097 -0.000480338 0)
(1.01024 -0.000615897 -1.9839e-22)
(1.00975 -0.000447059 0)
(1.01244 -0.00107412 1.14066e-22)
(1.01248 -0.000922541 7.45049e-23)
(0.833899 0.29306 -5.32071e-21)
(0.841471 0.280381 5.35911e-21)
(0.900201 -0.32777 -4.02369e-21)
(0.914183 -0.318285 8.10417e-22)
(0.899672 -0.310556 5.63382e-22)
(1.00871 -0.000377964 0)
(1.00963 -0.000507101 -1.30898e-22)
(0.527928 -0.0248546 1.24673e-22)
(0.551231 -0.0324665 -2.43964e-21)
(0.492491 -0.0325644 -2.02564e-22)
(1.0074 -0.000183209 0)
(1.00668 -0.000119564 0)
(1.00673 -0.000132204 0)
(1.01163 0.00167237 2.57717e-22)
(1.01149 0.00161791 2.12487e-22)
(1.01166 0.00171193 -4.43183e-22)
(1.00503 -0.129971 1.24479e-22)
(1.00231 -0.138644 8.18212e-23)
(1.0137 0.00170238 -2.30351e-23)
(1.0139 0.00172642 -1.61776e-24)
(0.315766 0.264218 -1.63386e-21)
(0.361667 0.24832 -6.62611e-21)
(0.943046 0.0342327 3.31724e-21)
(1.00639 0.0195579 -4.24194e-22)
(0.968063 0.0289247 -4.70507e-21)
(1.01336 -0.00455026 -1.23472e-22)
(1.01355 -0.00472891 -7.75679e-23)
(1.01338 -0.00467871 -1.09517e-22)
(1.00551 -0.0154683 2.19154e-22)
(1.00606 -0.016386 2.90226e-23)
(1.00688 -0.015105 0)
(0.940507 0.00417324 6.09663e-22)
(0.940297 -0.00371157 7.55385e-22)
(0.947826 0.000407017 -5.10888e-22)
(0.683765 0.00932612 2.89806e-21)
(0.697623 -0.0197233 -2.37435e-21)
(0.872701 0.27919 3.48265e-21)
(0.873007 0.274631 -1.89606e-21)
(0.867662 0.276909 4.28739e-21)
(0.910785 -0.220663 0)
(0.900706 -0.23761 -7.17147e-22)
(0.892871 -0.216129 2.5747e-21)
(1.00206 -0.00834045 1.61325e-21)
(0.947822 -0.122396 -8.27069e-23)
(0.959274 -0.107975 2.12842e-22)
(1.09111 -0.0450663 -4.01878e-21)
(1.09044 -0.0441747 0)
(1.09158 -0.0440223 -6.19177e-21)
(0.816028 -0.102035 1.24807e-20)
(0.828285 -0.172798 -3.5838e-21)
(0.92572 -0.224557 0)
(0.92421 -0.20704 0)
(0.975774 -0.0146171 -1.41014e-21)
(0.972369 -0.012517 -3.11281e-21)
(0.972288 -0.0170372 -7.59847e-23)
(1.01462 -0.00320339 -2.53663e-23)
(1.01412 -0.00282922 3.49044e-22)
(1.01419 -0.00350593 -1.9906e-22)
(1.08784 -0.036493 -3.77561e-21)
(1.08832 -0.0352966 -1.77085e-21)
(1.08929 -0.0362843 -5.21951e-22)
(1.05589 -0.0186495 0)
(1.05507 -0.0173117 3.73062e-21)
(1.00371 -0.0154814 1.14707e-22)
(1.00482 -0.0140375 -1.37613e-21)
(0.844259 0.300583 -1.37486e-21)
(0.829402 0.303667 0)
(1.08683 -0.03718 7.66009e-21)
(1.08764 -0.0377723 3.08311e-21)
(0.208011 0.349263 6.5534e-21)
(0.222574 0.357244 1.67312e-20)
(0.21645 0.357899 2.20777e-21)
(1.00925 -0.00047987 6.66634e-23)
(1.00963 -0.000455738 -6.97308e-23)
(1.01051 -0.000501434 3.21927e-22)
(1.08495 -0.0445875 0)
(1.08494 -0.0438315 0)
(1.08563 -0.0445172 -3.73889e-21)
(-0.0248211 0.00720003 1.89569e-20)
(-0.0320369 -0.00365788 7.15763e-22)
(1.01334 -0.0044397 0)
(1.01319 -0.00437308 -9.09661e-23)
(1.00867 -0.000503947 4.27483e-22)
(1.00874 -0.000532107 -7.38216e-23)
(1.00868 -0.000513183 1.98082e-22)
(1.0152 0.00291977 -6.91274e-23)
(1.015 0.00277141 1.72801e-22)
(1.01529 0.00282824 1.01348e-22)
(1.07234 -0.0576744 0)
(1.07317 -0.0560534 3.40175e-23)
(1.07428 -0.058172 0)
(0.879954 -0.246643 -3.78709e-21)
(0.894269 -0.253092 -7.3492e-22)
(0.886856 -0.266175 4.28458e-21)
(1.01133 -0.00324805 -3.50026e-22)
(1.0114 -0.00328329 5.56273e-23)
(1.01128 -0.0031668 -9.35508e-23)
(0.668831 0.0182645 -8.8095e-21)
(0.65269 -0.000419437 4.37858e-22)
(1.01015 -0.00204594 -1.61775e-21)
(1.00896 -0.00225332 4.5464e-23)
(1.00982 -0.00352869 -1.48673e-21)
(1.01159 0.00163468 3.08996e-23)
(1.01177 0.00172267 3.01755e-23)
(1.00866 -0.000492622 6.58925e-22)
(1.00859 -0.000471245 -1.08696e-22)
(0.492131 -0.0170624 4.10035e-22)
(0.561558 -0.0180291 7.89399e-23)
(1.07062 0.109933 7.67378e-22)
(1.06716 0.0939898 -5.9037e-21)
(1.08652 -0.0711289 -2.56632e-21)
(1.08947 -0.0736176 -5.34694e-21)
(0.194535 0.341417 -6.0158e-21)
(0.210585 0.33746 -5.7343e-21)
(0.886912 0.275477 -3.15863e-21)
(0.894276 0.277704 0)
(0.88806 0.265367 6.86417e-22)
(1.10437 0.0283868 0)
(1.10094 0.0560745 1.26414e-21)
(1.0953 0.0544711 0)
(1.01306 -0.0021037 0)
(1.0129 -0.00199698 4.84769e-23)
(1.01304 -0.00195948 5.04102e-23)
(0.889045 -0.336198 1.16394e-24)
(0.904046 -0.347706 -1.76131e-21)
(1.02052 -0.00925373 -4.93197e-23)
(1.02139 -0.0077177 6.89165e-22)
(1.01971 -0.00767308 6.96355e-22)
(1.00598 -2.37773e-05 -3.73192e-22)
(1.00599 -2.00305e-05 3.21454e-22)
(1.00501 -1.79882e-05 1.31453e-22)
(1.01099 -0.000355119 1.84465e-21)
(1.01146 -0.00191321 0)
(1.01294 -0.221234 0)
(1.0069 -0.231195 -1.52809e-21)
(1.00052 -0.220429 1.73256e-21)
(1.07122 -0.0597736 6.10245e-22)
(1.07005 -0.0574845 -4.22778e-21)
(1.0118 0.000883439 3.59685e-22)
(1.01184 0.000938847 -1.86457e-22)
(1.01164 0.000857736 8.06088e-22)
(1.0213 -0.254327 4.10359e-21)
(1.01433 -0.2657 2.77638e-21)
(1.0288 -0.265361 1.02481e-21)
(1.01641 -0.00356458 -8.78461e-23)
(1.01594 -0.00397924 -1.45423e-21)
(1.01688 -0.00436103 7.69924e-23)
(1.00646 -6.60965e-05 -4.65188e-22)
(1.00622 -7.45632e-05 -1.97054e-22)
(1.00699 -5.28815e-05 0)
(0.875985 0.28158 2.97265e-21)
(0.871741 0.282424 3.83091e-21)
(1.01526 -0.00363393 -7.7333e-22)
(1.01499 -0.00294867 -1.12938e-22)
(1.0104 -0.0001948 2.50845e-22)
(1.01054 -0.000184813 -1.26406e-22)
(1.01039 -0.000202773 -6.37712e-22)
(0.168935 0.0995476 1.19193e-20)
(0.137779 0.0882705 -1.14102e-20)
(0.182257 0.114459 1.97639e-20)
(1.01758 -0.00943409 -4.33845e-22)
(1.01699 -0.00929441 9.1679e-22)
(1.01282 -0.000930665 5.79826e-22)
(1.01272 -0.000927084 1.36373e-22)
(1.01262 -0.000762938 7.56804e-22)
(1.01042 -0.00017981 2.26466e-22)
(1.01026 -0.000196697 5.68187e-22)
(1.12477 -0.0678339 -5.4101e-21)
(1.11931 -0.0665903 -3.97205e-21)
(1.12245 -0.0720852 2.4853e-21)
(0.0928851 -0.0710205 -1.87234e-20)
(0.0656704 -0.0774038 -3.21215e-20)
(1.08047 -0.071828 2.37181e-21)
(1.0068 -0.000293015 2.71641e-22)
(1.00592 -0.000148055 2.28413e-22)
(1.00738 -0.000376044 -9.76175e-23)
(1.02484 -0.0386948 -9.45925e-22)
(1.02321 -0.0384306 1.55116e-22)
(1.02381 -0.0402349 -5.79691e-22)
(0.138616 0.0927017 -6.09712e-22)
(0.170543 0.0744091 3.32923e-22)
(0.190972 0.0882999 -7.81441e-22)
(1.01711 0.00486195 0)
(1.01718 0.00453483 -1.09227e-22)
(1.00648 -0.000150519 2.10868e-22)
(1.00669 -0.000131461 -3.08568e-22)
(1.00714 -0.000109226 5.38945e-22)
(0.897898 0.288282 2.53801e-21)
(0.891616 0.293947 -5.36835e-21)
(0.901953 0.29753 0)
(1.01579 -0.00245742 3.60702e-22)
(1.01611 -0.00300145 5.74989e-22)
(1.0154 -0.00268 -8.47873e-23)
(1.07694 -0.15037 -1.68474e-21)
(1.07804 -0.158579 -1.55207e-21)
(1.06948 -0.154212 4.7457e-22)
(1.092 -0.0462279 6.55465e-21)
(1.09055 -0.0462872 -8.60158e-21)
(1.01931 -0.0104393 -2.44962e-22)
(1.02148 -0.0110358 -3.16586e-22)
(1.01332 -0.155206 -5.96145e-21)
(1.00976 -0.140396 5.44838e-22)
(1.03173 -0.124794 -4.92117e-21)
(1.06949 -0.0478297 1.7443e-21)
(1.07015 -0.0466232 -5.14998e-22)
(1.07103 -0.0483427 -1.59801e-21)
(0.878023 0.27387 -5.12977e-21)
(0.884404 0.283405 3.61039e-21)
(0.20254 0.109477 1.18481e-20)
(0.152475 0.0808187 -1.02817e-20)
(1.07921 -0.0409271 -2.44201e-21)
(1.07967 -0.0401399 3.67413e-22)
(1.08016 -0.0412057 -4.30902e-21)
(0.461897 -0.0109737 -1.52792e-21)
(0.431315 -0.0193325 6.00579e-22)
(1.11492 -0.0656236 -5.49785e-22)
(1.11247 -0.0686314 3.75242e-21)
(1.11063 -0.0642053 1.63642e-21)
(1.06092 -0.0123245 -2.62022e-21)
(1.05562 -0.00868854 -3.16648e-22)
(1.01017 -0.237397 1.82549e-21)
(1.05751 -0.271339 -6.78945e-21)
(1.04638 -0.23799 -1.02252e-20)
(0.157467 -0.0604251 1.45613e-20)
(0.196082 -0.0261714 3.32892e-20)
(0.203405 -0.0504606 -1.7352e-20)
(-0.0331411 -0.0910987 -1.00936e-20)
(-0.0199307 -0.0824355 6.46472e-20)
(-0.0192097 -0.0686836 9.27438e-21)
(1.02576 -0.00432484 0)
(1.0262 -0.00435534 3.6755e-22)
(1.02603 -0.00468794 3.10592e-23)
(0.999895 0.000492033 -1.11254e-21)
(1.00159 0.00122238 -1.48725e-21)
(1.00009 0.00268625 2.96475e-23)
(0.935939 -0.197713 8.42093e-22)
(0.944006 -0.190337 -2.46986e-21)
(0.747497 -0.352065 -4.49953e-21)
(0.750571 -0.348774 -7.56222e-21)
(1.08486 -0.0456578 0)
(1.08403 -0.0446936 -6.50787e-21)
(1.13065 -0.0678275 1.29673e-21)
(1.12554 -0.0633151 -2.04975e-21)
(0.974308 -0.00322519 6.01815e-22)
(0.97013 1.78145e-05 -4.31059e-21)
(0.975245 0.00150286 -4.19558e-21)
(1.06471 -0.0168748 1.51455e-21)
(0.341292 0.258271 3.7046e-21)
(0.354216 0.230517 -7.54942e-21)
(0.344365 0.261113 -2.65081e-21)
(1.0112 -0.000159296 -2.26053e-22)
(1.01132 -0.000156936 1.93434e-22)
(1.01121 -0.000153655 -1.1849e-23)
(-0.0514993 -0.0878871 -3.78658e-21)
(-0.0583433 -0.0898723 5.67543e-24)
(-0.0559185 -0.103476 -2.63982e-20)
(0.425984 -0.00275762 1.86169e-22)
(0.489223 -0.00293788 -7.1001e-22)
(0.66228 0.0803283 -1.81708e-21)
(0.677149 0.110125 -4.24742e-22)
(0.686513 0.146362 -4.19392e-22)
(1.01267 0.00146927 -4.12069e-22)
(1.01267 0.00132876 1.23215e-22)
(1.01295 0.00151117 0)
(1.01118 -0.000164164 5.99504e-22)
(1.01106 -0.000159193 -4.19704e-22)
(0.339881 0.263293 1.08287e-20)
(0.358346 0.239568 1.65077e-20)
(0.376562 0.227359 9.88235e-21)
(0.123972 -0.0669416 2.94116e-20)
(0.115016 -0.0401262 3.07848e-20)
(0.943881 -0.261281 -4.48347e-21)
(0.958667 -0.240096 2.18446e-21)
(0.934218 -0.255979 -1.90159e-21)
(-0.0624896 -0.0956367 -1.41037e-20)
(-0.0680054 -0.110839 -1.72641e-20)
(-0.0593047 -0.0958217 -1.28663e-20)
(1.00324 4.81147e-05 -2.3115e-22)
(1.00244 7.82272e-05 4.67931e-22)
(1.09285 -0.0694117 8.50407e-22)
(1.09257 -0.0726493 -2.91956e-21)
(1.09599 -0.0713456 0)
(0.871066 0.0845292 3.73186e-22)
(0.869107 0.0823366 -2.55919e-22)
(0.902444 0.2806 2.79825e-21)
(0.899934 0.290482 1.31374e-21)
(1.01089 -0.00239151 -3.2729e-22)
(1.01095 -0.00247616 3.25111e-22)
(1.01096 -0.00238203 -3.35905e-22)
(1.0133 -0.00429746 3.30215e-23)
(1.01348 -0.00448048 3.7666e-23)
(1.16021 -0.00792192 -2.08824e-21)
(1.14935 -0.00373004 -2.97031e-21)
(1.14259 -0.00480927 -1.03268e-21)
(0.820622 0.0114458 -4.57972e-22)
(0.869844 0.00547425 -2.07985e-22)
(1.03671 -0.0068953 5.38973e-21)
(1.03619 -0.0061763 2.66358e-21)
(1.01092 0.00129813 0)
(1.01094 0.00132371 0)
(1.0108 0.0012551 1.12488e-22)
(1.01741 -0.00836065 -5.5068e-22)
(1.01698 -0.00844175 1.30022e-21)
(1.01728 -0.00864508 -1.01906e-21)
(1.08997 -0.032406 -5.82556e-21)
(1.09134 -0.0310103 -8.7446e-21)
(1.04166 -0.0094453 -1.64558e-22)
(1.04263 -0.0100014 2.46354e-21)
(0.8701 -0.189781 -1.78271e-21)
(0.933611 -0.234376 -1.24319e-20)
(0.887887 -0.229097 0)
(1.01751 -0.00264796 -9.28619e-22)
(1.01758 -0.00251503 -1.84518e-21)
(1.01773 -0.00270583 -9.31568e-22)
(1.05567 0.0564343 1.61602e-21)
(1.05679 0.049996 -7.2024e-22)
(1.02927 -0.00545632 1.16191e-21)
(1.02799 -0.00386882 1.5626e-21)
(1.03079 -0.00356148 3.44278e-22)
(-0.0232759 0.00816381 4.82064e-21)
(-0.0268015 -0.00867512 8.56357e-21)
(0.700376 0.0423031 4.80318e-22)
(0.680892 0.0543133 -1.44696e-21)
(0.700174 0.0778414 2.38386e-21)
(-0.0447945 -0.109088 -6.37796e-20)
(-0.0437695 -0.0965491 -3.01693e-20)
(1.01743 -0.00282076 2.29687e-22)
(1.01728 -0.00261488 2.72821e-22)
(1.01675 -0.0997577 -5.4484e-22)
(1.02098 -0.102297 7.99976e-22)
(1.01527 -0.103796 -3.90026e-22)
(0.854588 0.225994 -7.09054e-22)
(0.855094 0.236637 -5.5857e-22)
(0.843445 0.230725 -2.5925e-22)
(1.01107 0.00128763 -3.00392e-22)
(1.01106 0.00125616 -3.98017e-22)
(1.01119 0.00134389 -8.19566e-23)
(1.04052 -0.0102968 -4.87253e-22)
(1.04077 -0.0095501 3.39967e-21)
(1.0398 -0.00961554 -8.96258e-22)
(1.07818 -0.16693 1.75742e-23)
(1.07858 -0.176013 -5.24891e-21)
(1.06958 -0.171008 -3.27136e-21)
(1.02526 -0.00436708 2.13986e-23)
(1.02541 -0.00403538 -4.34591e-22)
(-0.0168763 0.00444846 7.10178e-21)
(-0.0146609 0.0253009 -1.74847e-22)
(1.0068 0.000166924 -4.43023e-22)
(1.0075 0.000213158 -9.99904e-23)
(1.00674 0.00013942 -8.95065e-23)
(1.01429 -0.00292309 4.60172e-22)
(1.01403 -0.00244017 4.47661e-22)
(1.01365 -0.00259661 -7.01204e-23)
(1.13556 -0.0695063 -1.72933e-22)
(1.13667 -0.0635521 4.04975e-21)
(0.870703 0.0585945 -7.94697e-22)
(0.887385 0.0555495 0)
(0.879268 0.0693272 -1.81934e-21)
(1.01248 -0.00169331 0)
(1.01236 -0.00159548 0)
(1.01247 -0.00157003 3.36425e-23)
(1.0132 -0.0021974 -8.38799e-23)
(1.01308 -0.00222396 0)
(-0.0406369 -0.0866458 -3.17528e-22)
(-0.0453768 -0.0721813 1.98749e-20)
(1.01159 -0.000486808 -4.48264e-22)
(1.01164 -0.000493138 2.22928e-22)
(1.01172 -0.00043826 -8.85394e-23)
(0.998081 0.000241477 6.47985e-22)
(0.0231386 -0.105492 2.62864e-20)
(0.00718544 -0.103668 8.48795e-21)
(1.00512 8.34716e-05 1.05732e-24)
(1.00466 5.31599e-05 -1.8456e-22)
(1.00585 0.000142884 3.75857e-22)
(1.08523 -0.0463757 4.98714e-21)
(1.08558 -0.0470662 7.35349e-22)
(1.08603 -0.0461163 6.23405e-22)
(1.01497 -0.00319372 -4.71986e-22)
(1.01437 -0.00360791 -9.0697e-22)
(1.01615 -0.00133731 -2.15743e-21)
(1.01569 -0.00148391 -8.36853e-22)
(1.01557 -0.00120803 -3.99879e-22)
(1.0145 -0.0107847 5.52346e-23)
(1.01426 -0.0110763 -4.87121e-22)
(1.01427 -0.0105542 -4.83731e-22)
(1.01543 0.00308427 -9.24829e-23)
(1.01512 0.00301458 -9.97616e-23)
(1.01297 -0.000803633 -2.00059e-22)
(1.01258 -0.000656136 -8.64363e-23)
(1.01277 -0.000665812 -7.83223e-23)
(1.08419 -0.0464697 0)
(1.01006 0.000356478 9.73524e-23)
(1.00985 0.000327415 1.49078e-22)
(0.996996 -0.0961483 2.42736e-21)
(1.00516 -0.113162 3.2777e-21)
(1.01438 -0.0848198 1.86469e-22)
(0.850869 0.211169 -1.34516e-21)
(0.865455 0.221528 2.40054e-22)
(1.01348 -0.000309687 -4.77155e-22)
(1.01316 -0.000282257 6.7822e-22)
(1.01327 -0.000374733 -5.06084e-22)
(1.0686 -0.0493672 -4.53415e-22)
(1.06783 -0.0473697 -3.87085e-23)
(1.14192 -0.0709221 -7.36743e-21)
(1.13522 -0.0759686 2.98255e-23)
(0.849269 0.0587264 2.51568e-21)
(0.865573 0.0475822 6.44554e-21)
(0.898277 0.182266 -1.52535e-23)
(0.903504 0.176159 -4.78386e-22)
(0.906485 0.179463 -8.10195e-23)
(0.941987 0.0118127 5.29755e-21)
(0.93308 0.00864882 6.29421e-23)
(1.08424 -0.0396372 6.72574e-22)
(1.08428 -0.0386748 2.6645e-21)
(1.08321 -0.0391754 6.07246e-21)
(0.349089 0.250499 1.01548e-20)
(0.3301 0.281163 5.22717e-21)
(1.01154 -0.000480877 -3.16152e-22)
(1.01149 -0.000522775 -2.40652e-22)
(1.06917 0.00121521 -4.03229e-22)
(1.12421 -0.0134731 2.20421e-21)
(1.07875 -0.0419766 2.18392e-21)
(1.07806 -0.0408812 4.14785e-21)
(0.913765 0.277944 -1.37842e-21)
(0.904024 0.26917 -2.45769e-21)
(1.00551 -9.05078e-05 -3.49157e-22)
(1.0064 -0.000117493 1.81237e-22)
(1.01039 -0.00148343 -3.2277e-23)
(1.0103 -0.00139494 -2.54953e-22)
(1.01032 -0.00148993 -4.84786e-23)
(1.01382 -0.000336133 4.30025e-22)
(1.01369 -0.000194445 8.18154e-23)
(0.937785 -0.0449684 2.07245e-21)
(0.935441 -0.0515524 -1.12295e-21)
(0.930994 -0.045058 1.38922e-21)
(-0.012101 0.0245837 1.23544e-20)
(-0.00298009 0.0304183 -3.69554e-21)
(0.0029972 0.045397 4.69238e-22)
(1.07877 -0.186027 -6.38177e-22)
(1.07946 -0.196753 1.07338e-20)
(1.06946 -0.190538 2.9391e-21)
(1.02208 -0.0132866 2.1978e-22)
(1.02155 -0.0134057 -4.4989e-22)
(1.02173 -0.0128298 4.35853e-22)
(1.01335 -0.00229876 -9.11084e-23)
(1.01338 -0.0024514 0)
(1.01354 -0.00241415 0)
(0.944255 -0.0451583 -9.8558e-22)
(0.940119 -0.0392864 1.16203e-21)
(1.07547 -0.142413 -1.25546e-21)
(1.07362 -0.134305 -1.2421e-21)
(1.06738 -0.137969 1.65692e-22)
(1.00394 2.20122e-05 6.1501e-23)
(1.00507 6.90904e-05 -6.81887e-22)
(1.00436 4.73285e-05 -2.15981e-25)
(0.974035 -0.235419 7.75207e-22)
(0.956292 -0.195424 4.08305e-21)
(1.16033 -0.15041 5.42214e-21)
(1.17361 -0.148525 5.72044e-22)
(1.16145 -0.138183 4.90098e-21)
(1.01054 -0.00145872 9.42417e-23)
(1.01045 -0.00147452 -5.92282e-23)
(1.01045 -0.00137271 -1.80551e-22)
(1.00855 -0.00043704 -2.27793e-22)
(1.00864 -0.000451537 2.15991e-22)
(1.00857 -0.000429218 -3.58854e-23)
(1.01382 0.00277495 -7.6352e-22)
(1.01395 0.00246751 -4.39074e-22)
(1.01348 0.00242249 1.06443e-21)
(1.01129 -0.00323054 2.33104e-23)
(1.01139 -0.00334276 -2.96425e-22)
(-0.0668113 -0.0979103 -1.15419e-20)
(-0.0558862 -0.080451 2.85115e-20)
(1.01328 -0.00127023 -5.96575e-22)
(1.01359 -0.00144758 1.70176e-22)
(1.01338 -0.00118676 0)
(1.0237 0.0878125 -7.25615e-21)
(1.01265 0.100798 -7.60024e-23)
(1.01598 0.0969748 1.20757e-21)
(1.0142 -0.000393619 8.55016e-22)
(1.01393 -0.000488829 4.4224e-22)
(1.00669 0.000111238 -2.59386e-23)
(1.00779 0.000134291 -3.02869e-23)
(1.00644 8.41897e-05 -1.77189e-23)
(1.10037 -0.220199 6.43504e-21)
(1.10071 -0.207795 1.46702e-21)
(1.11139 -0.212429 -3.68285e-21)
(1.01245 0.00142579 -3.88056e-23)
(1.01225 0.00135214 -4.50462e-22)
(1.01222 0.00124297 5.92015e-22)
(0.910251 0.0415958 4.5043e-21)
(0.872845 0.051148 1.70469e-21)
(1.0137 -0.000935817 -4.60074e-23)
(1.01354 -0.000806023 -1.79427e-22)
(1.01357 -0.000923373 -2.3607e-22)
(0.861266 -0.309488 3.22679e-21)
(0.878465 -0.303472 1.08631e-20)
(1.02148 -0.00630471 0)
(1.02297 -0.00757664 0)
(1.01069 -0.0001899 -1.11271e-22)
(1.01066 -0.000194395 4.33185e-23)
(1.01061 -0.0015483 0)
(1.01061 -0.00145894 0)
(1.0187 -0.0954592 2.47694e-22)
(1.01262 -0.0966165 -5.32837e-22)
(0.790959 -0.188266 1.84504e-22)
(0.802218 -0.183382 -2.76032e-21)
(0.798819 -0.198282 2.84107e-21)
(0.775978 -0.199262 -3.42754e-22)
(0.776989 -0.181331 -2.15247e-23)
(1.01082 -0.000196237 4.27119e-22)
(1.01071 -0.000183107 0)
(1.0837 -0.145673 2.43222e-21)
(1.02659 -0.0045739 -5.22856e-23)
(1.02646 -0.00417189 3.97964e-22)
(1.01173 -0.00470476 -3.90713e-22)
(1.01163 -0.004594 0)
(1.0117 -0.00479726 8.61622e-22)
(0.987551 -0.266205 0)
(1.00167 -0.266082 0)
(0.993413 -0.255068 -8.2513e-22)
(0.547833 0.123713 0)
(0.610868 0.110494 2.00223e-22)
(0.575147 0.125174 1.45999e-21)
(1.01184 -0.00480474 -1.04966e-21)
(1.01177 -0.00461412 -1.32416e-23)
(1.01135 -0.000490899 -1.09796e-21)
(1.01141 -0.000487699 -1.24441e-21)
(1.01148 -0.00045281 -2.51076e-22)
(1.01614 0.00907695 2.02216e-22)
(1.0162 0.010057 -1.42205e-22)
(1.01523 0.00933512 -6.67651e-22)
(1.01474 -0.0105745 4.9239e-22)
(1.01475 -0.0109693 2.56374e-22)
(1.03396 -0.0348649 -2.32489e-21)
(1.03446 -0.0336668 -2.44316e-21)
(1.03546 -0.0347266 -9.96898e-22)
(1.01028 0.000377776 7.51683e-23)
(1.01057 0.000429355 1.41808e-22)
(1.01661 -0.00110053 -1.85569e-21)
(1.01675 -0.00150439 -1.09866e-21)
(1.03461 -0.016285 2.16037e-21)
(1.0351 -0.0171679 -4.85189e-22)
(1.00847 -0.000422619 -2.0738e-22)
(1.00853 -0.000441817 -4.21018e-22)
(1.00551 -0.000162458 -2.60574e-22)
(1.00703 -0.000204351 -8.6949e-22)
(1.00603 -0.000163758 6.41786e-23)
(1.01398 -0.00222876 1.91287e-22)
(1.01382 -0.00224994 -4.14014e-22)
(1.01384 -0.00208777 -2.72491e-22)
(0.397631 0.00462514 2.59363e-21)
(0.421263 0.0135052 1.30419e-22)
(0.362331 0.0143727 1.73271e-21)
(1.01549 -0.00469461 -6.5441e-23)
(1.01129 -0.00049119 8.27135e-22)
(1.01122 -0.000522419 3.41544e-22)
(1.0125 0.00106412 5.42747e-23)
(1.01241 0.00108001 4.63231e-23)
(1.01239 0.0010013 4.65351e-23)
(1.07992 -0.131275 0)
(1.07291 -0.127659 0)
(1.00869 -0.000494841 -1.64226e-22)
(1.00872 -0.000491411 -5.10201e-22)
(1.00877 -0.000511724 1.41323e-22)
(1.00861 -0.000476902 -6.94387e-23)
(1.00359 5.1031e-05 6.78493e-22)
(1.00269 -4.36904e-05 2.06707e-22)
(1.03546 -0.00865428 -1.31154e-21)
(1.0362 -0.00865492 1.76226e-21)
(1.03597 -0.00927755 -1.27689e-21)
(1.01151 0.000852958 0)
(1.01156 0.000877587 0)
(1.0062 7.60029e-05 -2.7362e-22)
(1.00579 7.78172e-05 2.97755e-23)
(1.00659 7.17055e-05 -1.5656e-22)
(1.00483 2.66115e-05 9.44077e-22)
(1.00423 4.79023e-05 -2.12906e-22)
(1.00534 3.27074e-05 -3.30832e-22)
(1.01466 0.00371149 0)
(1.01516 0.00430805 0)
(1.01431 0.00414426 0)
(0.894536 0.183979 0)
(0.892461 0.184096 -3.31274e-23)
(1.00903 -0.000386786 -1.22389e-22)
(1.00725 -0.000307966 1.10599e-23)
(1.00739 0.000159363 -3.06384e-22)
(1.00675 0.000108952 -3.52147e-22)
(0.315256 0.176393 -1.805e-20)
(0.271856 0.158018 -4.10232e-20)
(0.277405 0.168443 1.1934e-20)
(1.04613 -0.0208472 -3.3661e-21)
(1.0465 -0.0197975 -1.43741e-21)
(1.04528 -0.0201277 -2.35746e-21)
(1.00643 7.56779e-06 -1.04093e-21)
(1.00678 -1.61275e-05 7.95111e-22)
(1.00593 1.79833e-05 -7.43802e-22)
(1.00616 3.14097e-06 -3.02211e-22)
(1.00691 2.20127e-05 -1.08466e-21)
(0.824382 0.215869 -1.33903e-20)
(0.806898 0.239949 -1.0987e-20)
(0.80471 0.188794 -1.68181e-20)
(1.00634 -0.0414746 -1.88637e-21)
(1.01348 -0.0391533 9.48535e-22)
(1.00914 -0.0345837 3.69388e-22)
(1.01091 0.00128573 0)
(1.01101 0.00134894 0)
(1.03589 0.00160957 6.4183e-23)
(1.03274 0.00172079 6.44455e-23)
(1.03412 -0.000902757 -8.86994e-22)
(1.0542 0.120404 3.28315e-22)
(1.06578 0.124496 -5.04661e-22)
(1.01234 -0.00118849 -1.53647e-22)
(1.01225 -0.000858349 5.78426e-23)
(0.961641 -0.0290568 -6.90026e-22)
(0.953611 -0.0319966 4.93898e-22)
(1.01412 -0.00220287 1.62122e-22)
(1.01411 -0.00236575 2.45598e-22)
(0.760251 -0.21449 1.31989e-21)
(0.741334 -0.215431 -1.56304e-25)
(0.745023 -0.232887 1.13328e-21)
(1.08637 -0.162174 -2.85927e-21)
(1.05919 -0.107963 1.03213e-21)
(1.06424 -0.107894 9.78849e-22)
(1.06037 -0.112371 -1.06811e-21)
(1.08726 -0.063689 -3.35839e-21)
(1.08967 -0.0634868 -3.37733e-21)
(0.736922 -0.0043361 -1.60921e-21)
(0.810295 -0.00207155 -2.93456e-21)
(1.01154 0.00159999 0)
(1.01167 0.00165288 0)
(1.01151 0.00157372 -1.87796e-22)
(0.803408 0.278024 -8.44059e-21)
(0.806744 0.292993 2.02654e-21)
(0.819647 0.298333 1.35477e-20)
(1.14766 -0.0722613 1.45599e-21)
(1.14823 -0.0802735 7.74356e-22)
(1.15535 -0.0747525 -5.76668e-21)
(1.00752 -0.000174805 0)
(1.00687 -0.000166907 9.68888e-23)
(1.00678 -0.000149022 0)
(1.05847 -0.10281 1.01395e-21)
(1.05393 -0.106895 -4.10566e-22)
(0.972851 -0.00798954 2.04344e-21)
(0.977328 -0.00620044 3.6826e-21)
(1.09603 -0.301108 2.27111e-20)
(1.06575 -0.304006 -3.40419e-21)
(1.01014 -0.00173937 -1.68622e-22)
(1.01023 -0.00182399 -3.31409e-22)
(1.01017 -0.00181586 5.32701e-22)
(1.0114 0.00155684 0)
(0.0423737 -0.0913335 8.50348e-21)
(0.872633 0.112856 3.07776e-22)
(0.875693 0.135774 5.75551e-22)
(1.00997 -0.000608906 1.00571e-21)
(1.0101 -0.000607088 2.8052e-22)
(1.01008 -0.000615636 -3.89489e-22)
(0.110859 0.0797575 -2.52038e-21)
(0.0856538 0.0698805 -8.75743e-22)
(0.119869 0.0945324 9.32091e-21)
(0.949736 -0.045049 -3.3623e-21)
(0.9519 -0.0399887 0)
(0.955135 -0.04504 0)
(1.01256 -0.0134265 4.51191e-22)
(1.01457 -0.013124 4.48628e-22)
(1.01427 -0.0152989 3.82651e-22)
(0.0957335 0.127941 1.01786e-21)
(0.115369 0.107089 8.53089e-22)
(0.128908 0.124735 -6.68918e-22)
(1.01004 -0.00165664 0)
(1.01011 -0.00165935 -2.99457e-22)
(1.01268 0.00162719 -3.62414e-22)
(1.01382 -0.000921849 -2.57035e-23)
(1.01378 -0.00104081 -1.61137e-24)
(1.00653 1.35903e-05 2.55478e-22)
(1.00584 -2.18648e-05 -2.04852e-22)
(1.01487 -0.0085013 6.72373e-23)
(1.01481 -0.00841362 4.02518e-22)
(1.01493 -0.00858976 -2.73939e-23)
(1.0127 -0.00440856 4.97924e-22)
(1.01219 -0.00367864 6.09395e-22)
(1.01309 -0.00399661 8.28292e-22)
(1.0241 -0.0206646 1.04752e-21)
(1.0245 -0.0197816 -4.72492e-22)
(1.01167 -0.000508224 -1.51237e-21)
(1.01171 -0.000529287 -6.86342e-22)
(1.01178 -0.000458675 -4.20107e-22)
(1.01495 -0.00862555 -4.3794e-22)
(1.01483 -0.00842811 -9.79669e-23)
(1.02294 -0.0130263 0)
(1.0225 -0.0132571 0)
(1.02308 -0.01346 -2.72068e-22)
(0.786596 -0.317633 2.84242e-21)
(0.786302 -0.324601 -1.02303e-21)
(0.846808 0.172572 9.85226e-21)
(0.844914 0.238412 2.50549e-21)
(1.01561 -0.00210545 0)
(1.0162 -0.00223874 0)
(0.788968 0.24828 -4.69961e-21)
(0.867849 -0.237312 1.40077e-21)
(0.870262 -0.225345 -6.1389e-21)
(1.00987 -0.000601495 1.031e-21)
(1.00987 -0.000598109 -2.74887e-22)
(1.0627 -0.0376685 -1.15648e-20)
(1.06132 -0.0375598 -4.35381e-21)
(1.06211 -0.0365139 4.24371e-21)
(0.998375 -0.0419718 1.3689e-21)
(1.00306 -0.0487191 -1.56978e-22)
(1.0615 -0.0190918 1.56417e-21)
(1.05893 -0.0223516 -3.69682e-21)
(1.06528 -0.0225109 3.72405e-21)
(1.01133 -0.164984 4.56611e-21)
(1.01357 -0.162598 2.73584e-21)
(1.03042 -0.144406 -1.15208e-21)
(1.02761 -0.183066 8.35211e-22)
(1.03559 -0.182024 1.84245e-21)
(1.02971 -0.1746 -1.9181e-21)
(1.01767 -0.0023233 3.59973e-23)
(1.01741 -0.00227645 -8.97007e-22)
(0.0268175 0.0199336 -4.02059e-20)
(0.0105642 0.0134249 -1.2433e-20)
(0.00296345 -0.00370549 -3.84552e-20)
(0.851881 -0.322164 -3.18991e-22)