/*--------------------------------*- C++ -*----------------------------------*\
| =========                 |                                                 |
| \\      /  F ield         | OpenFOAM: The Open Source CFD Toolbox           |
|  \\    /   O peration     | Version:  v2012                                 |
|   \\  /    A nd           | Website:  www.openfoam.com                      |
|    \\/     M anipulation  |                                                 |
\*---------------------------------------------------------------------------*/
FoamFile
{
    version     2.0;
    format      ascii;
    class       surfaceVectorField;
    location    "450";
    object      ddtCorrDdt0(Uf);
}
// * * * * * * * * * * * * * * * * * * * * * * * * * * * * * * * * * * * * * //

dimensions      [0 1 -2 0 0 0 0];


internalField   nonuniform List<vector> 
14470
(
(-8.40429e-05 -0.00125917 3.51428e-19)
(-0.000120454 -0.00127228 -3.50211e-19)
(-0.000158449 -0.00125635 5.63314e-18)
(0.0628853 -0.00142133 -1.73139e-17)
(0.0608898 -0.00139418 6.60407e-17)
(-5.8245e-05 0.00032973 1.04134e-17)
(-6.30772e-05 0.000326926 -1.31156e-18)
(-6.42212e-05 0.000308971 7.79271e-18)
(-0.00289258 -0.00542744 -2.51939e-17)
(-0.00264836 -0.0074763 -5.97428e-18)
(-0.00249614 -0.00615297 7.28534e-18)
(-2.50311e-06 -0.000217804 -1.75791e-18)
(-2.67468e-06 -0.000218539 -1.57924e-19)
(-3.88992e-06 -0.000267777 -7.6972e-18)
(0.000152519 0.0254186 4.00175e-18)
(0.000920713 0.0262713 1.08225e-17)
(0.00128519 0.0254746 3.46452e-17)
(0.0137193 0.00612929 -6.43633e-18)
(0.0129653 0.00666282 -1.19198e-17)
(0.0140864 0.00715677 4.79434e-18)
(0.0178752 0.000244576 9.35109e-18)
(0.019182 0.000536684 -3.79782e-18)
(0.0148565 -0.000138583 4.79283e-18)
(-4.62217e-05 0.000404295 1.03552e-18)
(-7.00784e-05 0.000553984 -7.29536e-18)
(3.49877e-05 0.000443034 5.54853e-18)
(4.27681e-05 -0.000274569 7.81371e-18)
(4.01546e-05 -0.000286363 2.55994e-18)
(3.78372e-05 -0.000279806 7.26864e-18)
(3.81765e-05 -0.000282565 4.25986e-18)
(5.82214e-05 -0.000271505 4.96578e-19)
(1.335e-05 0.000234041 9.48081e-18)
(1.24885e-05 0.000232416 -7.33527e-19)
(2.27385e-05 0.000236622 2.37669e-20)
(-0.0311634 0.0321357 -1.17288e-17)
(-0.0272555 0.029278 -9.61296e-18)
(-0.0289369 0.0321312 -2.12518e-17)
(-0.000230674 -8.64037e-05 -1.98089e-17)
(-0.000189972 -0.000104113 1.58623e-18)
(-0.000219468 -0.00011381 -9.96288e-18)
(-0.00673149 -0.00239372 4.00169e-18)
(-0.00732694 -0.00247931 5.9529e-19)
(-0.0068675 -0.00297441 -1.00531e-17)
(-0.000787583 0.0126281 7.99526e-18)
(-0.000497805 0.0133584 -4.43573e-18)
(7.64215e-05 0.0126816 -1.2003e-19)
(-1.49721e-05 0.000319321 -4.00519e-18)
(-1.10415e-05 0.000321053 -5.57229e-18)
(-8.86964e-06 0.000318998 -6.07052e-18)
(0.00693194 -0.0045512 1.03314e-17)
(0.00563724 -0.00535718 -9.97244e-18)
(0.00549204 -0.00607184 -1.31343e-18)
(0.000220393 -0.000252197 1.7965e-18)
(0.000250361 -0.000234385 -2.31919e-18)
(0.00020999 -0.000208435 1.28722e-17)
(-6.46998e-05 -0.000298631 1.42097e-17)
(-7.93828e-05 -0.000340866 -3.47072e-18)
(-5.41854e-05 -0.000328873 -2.21402e-17)
(-3.1816e-06 -0.000117994 1.86411e-18)
(-3.78737e-06 -0.000121425 1.39082e-18)
(-0.00367581 -0.00104621 -2.47036e-17)
(-0.00305357 -0.00154523 -1.535e-17)
(-0.00298264 -0.00291854 6.39292e-20)
(0.0203708 -0.000378005 1.21817e-17)
(0.0164355 3.11727e-05 1.73691e-17)
(-0.03431 0.0325949 5.24339e-18)
(-0.0357231 0.0343348 -2.7311e-17)
(0.00110497 -0.00290302 -3.0775e-18)
(0.00114342 -0.00284784 -2.53468e-18)
(0.00092435 -0.00294212 3.10671e-17)
(8.08871e-05 -0.000113422 -5.51419e-18)
(8.57092e-05 -9.24604e-05 2.31971e-18)
(8.53645e-05 -0.00012131 4.0346e-18)
(7.20208e-06 -9.48082e-05 -2.75074e-18)
(1.07109e-05 -0.000105738 7.85558e-18)
(1.5801e-05 -0.000112876 -2.02928e-18)
(0.000246453 -0.000245286 3.65339e-18)
(0.000239586 -0.000216655 3.82382e-17)
(0.00740171 0.0129028 -1.4562e-17)
(0.00742186 0.0137275 -3.64101e-18)
(0.00822618 0.0131209 -1.97808e-17)
(-0.00285477 0.00346126 9.11206e-18)
(-0.00360135 0.00359822 1.75665e-17)
(-0.00540193 0.00284927 6.24559e-17)
(-0.00232137 0.0300613 7.47339e-18)
(0.00157844 0.0279593 -9.99386e-18)
(0.00168613 0.0283231 9.4734e-18)
(-1.7402e-05 0.000261137 7.73375e-19)
(-9.64508e-06 0.000258698 3.4321e-18)
(-1.25152e-05 0.000295061 2.68171e-18)
(2.08817e-05 0.000339252 -7.06543e-19)
(7.57261e-06 0.000337302 -1.89776e-18)
(2.12351e-05 0.000326462 -2.02685e-19)
(2.20953e-05 4.88232e-06 -1.50775e-18)
(2.505e-05 3.71737e-06 -4.25227e-18)
(5.15964e-05 1.99607e-06 -9.14344e-18)
(-0.00478742 0.00440595 5.83799e-18)
(-0.00448361 0.00463777 2.38324e-18)
(-0.00486018 0.00477077 -4.11361e-18)
(-0.00517022 -0.00167673 6.96937e-18)
(-0.00492242 -0.00136335 -4.66493e-18)
(-0.00470551 -0.0016926 -7.01766e-18)
(-0.00116679 -0.00260385 -1.72116e-17)
(-0.00124479 -0.00272715 1.22719e-17)
(-0.00109764 -0.0027565 -1.34092e-17)
(-0.00141734 0.0104277 3.79288e-18)
(-0.00168334 0.0085427 -3.3721e-17)
(-0.000253589 0.00916262 3.32776e-18)
(8.16152e-05 0.00613106 -4.58676e-18)
(0.00010994 0.00588055 3.18687e-18)
(-0.000125034 0.00609869 -3.43106e-18)
(0.00746504 0.0119799 6.74369e-18)
(0.00670428 0.0124601 -2.97036e-17)
(0.13691 0.0076651 3.02645e-17)
(0.136908 0.00880911 1.57605e-17)
(0.132187 0.00858784 2.18528e-18)
(0.015763 0.00528791 2.92244e-17)
(0.018072 0.006175 1.11357e-17)
(0.0129729 0.00563088 4.16745e-17)
(4.81313e-06 -8.05713e-05 -1.10386e-17)
(6.20689e-06 -9.17777e-05 -6.57253e-19)
(-0.000146413 0.000424077 3.69816e-18)
(-0.000147494 0.00042125 1.02532e-18)
(-0.000157878 0.000426898 -1.20922e-18)
(-7.13581e-05 0.000208622 -3.92826e-18)
(-6.78965e-05 0.000159728 -1.62235e-19)
(-6.81563e-05 0.000170953 6.2066e-18)
(-0.00366355 0.00156317 -1.56472e-18)
(-0.00333644 0.00113809 1.31337e-17)
(0.00161324 0.00118569 2.58554e-18)
(1.72832e-06 -0.000162557 1.50987e-17)
(5.95064e-06 -0.000117748 1.1253e-17)
(7.84914e-06 -0.000118818 -4.23016e-19)
(-0.000340256 -0.000739804 5.76496e-18)
(-0.000272623 -0.000761079 1.45433e-18)
(-0.00034455 -0.000811171 -2.34467e-18)
(-2.37449e-05 0.000331256 2.04559e-18)
(-2.60532e-05 0.000315141 2.55642e-18)
(-0.00563178 0.00474796 -5.09945e-18)
(-0.00540409 0.00385344 7.49815e-18)
(1.52806e-05 1.71963e-06 5.42614e-18)
(2.78483e-05 2.53728e-06 9.49387e-18)
(-0.00354583 0.0083869 7.25803e-18)
(-0.00322584 0.00883826 3.7912e-19)
(-0.00397606 0.00875464 -1.01725e-17)
(9.84111e-06 -0.00019899 2.4617e-18)
(7.33566e-06 -0.000209953 4.86074e-18)
(0.00329501 -0.00413226 5.73122e-18)
(0.00325615 -0.00370334 6.17207e-18)
(0.00364262 -0.00404978 -9.93202e-19)
(-0.00326932 -0.00493303 -2.67375e-18)
(-0.00356928 -0.0039206 -2.77045e-18)
(1.38336e-05 0.000219164 -6.55793e-19)
(2.87951e-05 0.000224841 7.88797e-19)
(1.94092e-05 0.000203384 -1.52255e-18)
(-0.0130727 0.0202905 -1.52132e-17)
(-0.0143482 0.0207442 -1.08292e-18)
(-0.0140313 0.0194333 -1.6042e-17)
(-0.000305318 -0.00069408 1.18343e-18)
(-0.000398348 -0.000708403 2.05484e-18)
(5.30345e-06 -0.000123401 -6.0893e-18)
(-0.000467322 -0.00350496 -7.91043e-18)
(-0.000785147 -0.00337468 -1.07047e-17)
(-0.000797852 -0.00333613 7.00303e-18)
(0.0103064 -0.00974749 -3.93046e-18)
(0.0111043 -0.00945694 -7.80598e-18)
(0.010978 -0.0109608 -8.35215e-18)
(-3.75017e-05 0.000363145 8.28212e-18)
(-3.30741e-05 0.000360697 -2.06858e-18)
(-3.80922e-05 0.000368311 4.60958e-18)
(-0.0118568 0.00378798 3.87837e-18)
(-0.0108169 0.00381893 -1.77404e-17)
(-0.011388 0.00303076 -4.21239e-18)
(6.88898e-05 2.99285e-05 -6.46237e-19)
(5.81491e-05 2.36794e-05 2.15645e-18)
(6.63585e-05 3.15094e-05 -1.00274e-17)
(1.94344e-05 0.000266617 3.41603e-19)
(-5.31903e-05 0.000332241 -1.57814e-18)
(-0.0144212 0.0011579 -5.20771e-17)
(-0.0153412 0.0010242 -6.00537e-18)
(-0.0016083 0.00258737 -1.99822e-18)
(-0.00132638 0.00245723 -1.19448e-18)
(-0.00136628 0.00280513 -1.3103e-18)
(-0.00540606 -0.0020404 1.2191e-17)
(-0.00566162 -0.00239126 -5.52601e-18)
(-0.00516876 -0.00247277 -1.6358e-18)
(0.0288576 0.00725806 -1.0646e-17)
(0.0326756 0.00881613 3.02715e-17)
(0.0345697 0.00794429 2.31713e-17)
(-8.95827e-05 -0.00048133 1.35102e-17)
(-0.000141997 -0.000513833 6.79319e-18)
(-0.000157117 -0.000454267 8.10284e-18)
(-0.00495545 -0.0138428 -1.58378e-17)
(-0.00594028 -0.0149011 -2.25857e-17)
(-0.00459103 -0.0154568 -1.09289e-17)
(0.0125951 0.000727577 -3.47458e-19)
(0.0163139 0.00121365 -4.3142e-17)
(0.0127601 0.00152625 6.19677e-18)
(-0.0101195 0.076295 -8.8177e-18)
(-0.00727106 0.0849385 -2.75135e-18)
(-6.05015e-06 0.077982 -3.64878e-19)
(0.0498823 0.0175737 -1.0968e-17)
(0.0422208 0.017997 -1.46581e-17)
(0.04932 0.0200639 1.15244e-17)
(-1.26215e-06 -0.00016931 -8.08345e-20)
(2.11829e-06 -0.000185908 3.30691e-18)
(1.19393e-05 -0.000205461 3.01759e-18)
(0.00233652 -0.00821932 3.52104e-17)
(0.00297481 -0.00800214 -4.27419e-17)
(0.00237324 -0.00780903 -2.55964e-17)
(0.123855 0.00544459 -5.04059e-19)
(0.116243 0.00539528 8.10838e-18)
(0.115173 0.004401 -9.36718e-18)
(-5.11324e-05 0.000369423 3.94703e-18)
(-5.7855e-05 0.000372125 -6.1006e-18)
(-5.41875e-05 0.000362067 -2.48482e-18)
(-1.06168e-06 -0.000214316 5.9161e-18)
(1.92414e-07 -0.000211108 -2.34971e-19)
(-1.63369e-06 -0.000167134 9.81601e-18)
(0.00262481 -0.00865206 6.48126e-17)
(0.0022952 -0.00850459 1.58068e-17)
(0.0082547 -0.00374988 1.30455e-18)
(0.00841769 -0.00294589 2.45937e-17)
(-0.0010809 0.0119721 -2.33122e-18)
(-0.0015663 0.01252 2.17509e-18)
(0.001759 -0.000760034 1.0934e-18)
(0.00181535 -0.000600666 4.15001e-18)
(0.0016622 -0.000621343 -3.44565e-18)
(-0.00567657 -0.0016819 -4.84571e-18)
(0.012999 0.0212818 2.60434e-17)
(0.0131725 0.0203024 -8.23153e-18)
(0.0119785 0.0205633 -3.48075e-17)
(-2.68117e-06 -0.000221198 -1.12421e-17)
(7.92851e-08 -0.000259011 6.47706e-18)
(-0.0219922 0.0124299 -8.84969e-18)
(-0.0210503 0.011263 -5.57842e-19)
(-0.0226786 0.0108484 -1.20613e-17)
(-0.00101877 0.0119838 2.83659e-18)
(-0.00255519 0.011304 -2.69759e-18)
(0.00940069 -0.00965654 2.36974e-17)
(0.00941355 -0.0110325 -1.12738e-17)
(-0.00546963 0.000954847 -1.11742e-17)
(-0.00447305 -0.000533632 1.32083e-17)
(-0.0048045 -0.000387759 9.95944e-20)
(0.0118519 0.0289718 -4.8995e-17)
(0.00738436 0.0289071 1.55824e-17)
(0.0202166 0.027488 -3.87343e-17)
(0.0166456 0.0300025 -2.17403e-17)
(0.012037 0.0278953 1.41493e-17)
(0.00425299 0.00685067 3.71875e-18)
(0.00477135 0.00717181 -3.73196e-20)
(0.00412169 0.00730275 1.08527e-18)
(0.0136096 0.00367304 -3.32434e-18)
(0.0190312 0.0048935 7.14549e-18)
(7.51728e-06 0.000222971 5.18472e-18)
(6.33546e-06 0.000212203 1.02545e-17)
(6.10953e-06 0.000224637 2.70938e-18)
(0.0505407 0.0152659 8.53025e-18)
(0.0580998 0.0172993 1.16624e-18)
(0.00190498 0.011877 3.58167e-17)
(0.00220047 0.0112256 -3.36235e-18)
(0.00146441 0.0113747 -2.43189e-17)
(0.000484785 0.00249096 4.97172e-18)
(0.00046687 0.00278168 2.91374e-18)
(0.000689348 0.00256882 -1.46976e-18)
(-1.43615e-06 -0.000168403 1.94947e-18)
(-2.66424e-06 -0.000224961 1.20301e-17)
(-0.00980562 0.0104165 -9.80893e-18)
(-0.010455 0.012225 -1.15112e-17)
(-0.0110054 0.0118071 1.21847e-17)
(-0.00297017 0.00805165 -2.16658e-18)
(-0.00364493 0.00788029 5.62378e-18)
(0.00213944 0.12474 -8.78928e-19)
(0.00431474 0.127048 5.99361e-18)
(0.000812773 0.127304 6.03953e-18)
(-0.000146007 0.000423092 -4.28546e-18)
(-0.000133401 0.000415474 7.69506e-18)
(0.038938 0.031119 7.0079e-18)
(0.032415 0.0313263 -9.86803e-18)
(0.0357002 0.0278534 4.49025e-18)
(0.103325 0.00481071 -5.91079e-18)
(0.0882961 0.00440185 -4.05347e-18)
(0.0874977 0.00522839 -4.28889e-17)
(-0.0136445 0.063661 -4.71583e-19)
(-0.0228204 0.0707548 -1.48471e-17)
(1.06161e-06 8.50011e-05 -1.99996e-18)
(1.44568e-05 9.09249e-05 3.48676e-19)
(1.5723e-05 9.38875e-05 -7.55555e-18)
(-5.73629e-05 0.000378001 6.79044e-18)
(-4.59886e-05 0.000372454 1.94381e-18)
(-4.73034e-06 -0.000114708 6.81153e-19)
(2.55031e-05 -0.000155928 -4.23061e-18)
(2.30003e-05 -0.00015138 -5.50424e-18)
(2.92187e-05 -0.000167425 5.2121e-18)
(-0.00390566 -0.000861256 6.51373e-18)
(-0.00464028 0.000392432 -1.5825e-17)
(-0.00210231 -0.0235884 -4.76102e-17)
(-0.00181678 -0.0227061 -3.73158e-17)
(-0.000777073 -0.0234818 -2.04348e-17)
(-0.0111361 0.00278421 -5.19198e-18)
(-0.0108148 0.00300992 4.80519e-19)
(-0.0128929 0.00242563 1.61609e-17)
(-9.64808e-05 -0.000439006 5.75572e-18)
(-6.32856e-05 -0.000469555 -2.40344e-18)
(4.23359e-05 -0.000205029 -6.45203e-19)
(4.81375e-05 -0.000183223 -3.28588e-18)
(3.06191e-05 -0.000161101 -1.08224e-18)
(-0.00368616 -0.00451321 -5.50502e-18)
(-0.00328332 -0.00465839 7.12051e-18)
(-0.00367913 -0.00508817 9.74198e-18)
(-5.40071e-05 0.000147709 -1.72062e-20)
(-4.52881e-05 0.000104921 -8.67997e-18)
(-4.64543e-05 0.000141678 9.3265e-19)
(-0.0034768 -0.00436078 1.9455e-18)
(-0.00404807 -0.00287663 9.92174e-18)
(-0.00358433 -0.00379783 -2.3585e-17)
(-0.000120364 0.000264026 -1.58807e-18)
(-0.000103761 0.000273388 9.9233e-18)
(-0.000115059 0.000286872 6.97601e-18)
(0.0277415 0.0332246 2.13378e-20)
(0.0289801 0.036081 -3.77173e-18)
(0.0229099 0.033729 -4.9715e-18)
(-0.0230489 0.0137922 -1.45645e-17)
(-0.0211669 0.0140271 7.17564e-18)
(0.0798832 0.0163608 -8.40447e-18)
(0.068491 0.0150381 -2.95291e-17)
(0.0714786 0.0151101 -1.634e-17)
(-0.00673488 0.0101067 -9.51796e-18)
(-0.00745823 0.0103455 -4.78936e-18)
(-0.00725427 0.00956926 7.90268e-18)
(-0.00473417 -0.000987917 1.06514e-18)
(-0.00516483 -0.000991992 3.01905e-19)
(-8.99766e-05 0.000317725 -1.07863e-17)
(-6.03349e-05 0.000185103 -6.33616e-18)
(0.00135963 0.0131473 -5.4601e-20)
(0.00119134 0.0138959 1.24388e-17)
(0.00207597 0.0136153 -3.74743e-18)
(-0.00208977 0.00313387 -4.43999e-17)
(-0.00136419 0.0039982 -3.98714e-17)
(-0.047267 0.0248205 -3.5939e-18)
(-0.0450349 0.024216 3.47355e-17)
(-0.0456794 0.0276712 6.8067e-18)
(-0.0375447 0.023299 -2.03721e-17)
(-0.0486188 0.0201828 -3.94347e-18)
(-0.00336218 0.00116917 6.72985e-18)
(-0.00345647 0.000936504 1.17598e-18)
(-0.00320019 0.00098969 5.02071e-18)
(-4.82989e-05 -0.000113328 -7.32336e-18)
(-1.19946e-05 -0.000190874 1.10071e-17)
(-7.54683e-06 -7.36249e-05 -1.49016e-18)
(-6.5732e-05 -0.00115535 2.2118e-18)
(-1.81249e-06 -0.00124859 -1.20273e-17)
(-0.00108847 0.0020316 1.21445e-18)
(-0.0010623 0.00192354 -6.47233e-19)
(-0.00121287 0.00194933 3.02403e-18)
(-0.00422941 0.00442271 1.14152e-18)
(-0.00422644 0.00402926 4.7675e-19)
(-0.00382503 0.00420559 5.75752e-18)
(0.0160425 0.0124868 -3.23007e-18)
(0.0161885 0.0114692 1.26969e-17)
(0.0173817 0.0122272 -3.26461e-17)
(0.00338656 0.0316263 -9.66814e-18)
(0.0159258 0.027309 1.11692e-17)
(-0.00718269 0.0335077 -1.25946e-17)
(-0.00409902 -0.00444183 -1.76957e-17)
(-0.00373349 -0.00394233 1.60102e-18)
(-7.62711e-07 -0.000165824 -9.7055e-19)
(-1.41657e-06 -0.000134325 5.81175e-18)
(-0.00156703 0.0145937 1.54241e-17)
(-0.00180686 0.015116 9.53087e-18)
(-0.000997383 0.0149313 7.84877e-18)
(0.0120651 -0.00121184 -1.74043e-17)
(0.00991083 -0.00242562 -1.61233e-19)
(0.0118977 -0.00103691 4.96356e-17)
(-0.00413053 0.00465065 -7.14686e-20)
(9.61216e-05 -0.000466515 -1.44356e-18)
(0.000103479 -0.000508802 3.41084e-19)
(8.79762e-05 -0.000431639 2.1841e-18)
(-0.0178365 0.00944124 -9.08421e-18)
(-0.0191478 0.00911337 -1.85755e-18)
(-0.0182079 0.00817681 5.35022e-18)
(-0.00337282 0.00210887 -5.19093e-18)
(-0.00345743 0.00278417 -1.01295e-17)
(0.00150986 0.00255967 -6.7165e-19)
(0.0265908 -0.00170613 -9.27308e-18)
(0.0256648 -0.00264771 5.18371e-18)
(0.0272031 -0.00332892 7.56976e-18)
(-0.000149395 0.000269302 -2.32141e-18)
(-0.000112423 0.000215511 -2.16055e-18)
(0.05136 0.0143017 2.02613e-17)
(0.0466005 0.0131667 3.10497e-17)
(-2.58894e-05 -0.000102863 -4.47037e-18)
(-1.21269e-05 -0.000133644 2.2769e-18)
(-9.28736e-05 0.000261325 2.51267e-18)
(6.58396e-05 1.75428e-05 4.11441e-18)
(6.73365e-05 -2.13675e-05 1.6156e-18)
(6.36985e-05 -3.41703e-05 -1.12196e-18)
(0.0156019 -0.00474725 -3.05202e-17)
(0.0293988 -0.00751434 -3.33329e-17)
(0.0196141 -0.00650651 -1.08888e-18)
(0.000555756 0.0022202 -3.07732e-18)
(0.000378257 0.00234619 -6.06015e-18)
(7.9369e-05 -0.000132674 -1.86575e-18)
(8.72235e-05 -0.000103943 -1.33895e-18)
(-0.000195912 8.44462e-05 -1.954e-17)
(-0.00018986 7.33965e-05 -8.65027e-18)
(-0.000207285 1.64664e-05 -1.07314e-17)
(0.0201077 0.028479 -4.66203e-18)
(0.0153789 0.0279748 6.92361e-17)
(0.0191027 0.0268793 8.5874e-18)
(-0.00101458 0.0139344 -7.25503e-18)
(-0.00012608 0.0138677 8.63265e-18)
(-3.51539e-05 0.000354654 -8.61651e-19)
(-4.4541e-05 0.000339262 -3.18757e-19)
(-0.00463779 0.0318589 2.16484e-17)
(-0.00337303 0.0316064 2.42263e-17)
(-6.87785e-05 -0.000229643 -3.29356e-20)
(-5.73971e-05 -0.000165491 -1.05632e-18)
(-4.96842e-05 -0.000223689 3.45437e-19)
(-0.0200594 0.0101376 1.63047e-17)
(-0.0195811 0.0115813 2.07497e-17)
(-0.00353821 0.00136544 3.65363e-19)
(-0.00326594 0.00138382 -5.98295e-18)
(-5.40824e-05 -0.0003027 2.54267e-17)
(-8.48824e-05 -0.000267229 1.5076e-17)
(0.00811463 -0.0182284 -4.7058e-17)
(0.0092961 -0.018544 -8.46805e-18)
(0.00778282 -0.0194646 1.16873e-17)
(-0.00133367 -0.000258947 5.06338e-18)
(-0.00134449 -0.000143427 7.316e-18)
(-0.00121166 -0.000192302 -3.49715e-19)
(0.129539 0.006685 1.36801e-17)
(0.128077 0.00651143 1.70098e-18)
(0.00780619 0.127824 1.54853e-20)
(0.0100755 0.127884 -2.99439e-18)
(0.00855488 0.129117 9.91194e-19)
(-0.00155728 0.00011638 5.59072e-17)
(-0.00151727 0.000231704 3.02638e-17)
(-0.00141361 0.000143443 2.65802e-17)
(-9.16909e-06 7.88492e-05 6.28982e-19)
(-4.62816e-06 7.40793e-05 3.04924e-18)
(1.82365e-07 9.82301e-05 -1.41493e-18)
(3.16534e-05 -0.000281994 -5.47617e-18)
(2.21459e-05 -0.000268127 -4.14425e-18)
(2.36695e-05 -0.00027914 4.21685e-18)
(6.58223e-05 -0.000443408 -5.71176e-18)
(8.7093e-05 -0.000526546 1.02261e-17)
(-0.00933444 0.000397673 -4.27917e-17)
(-0.00886949 0.00013665 4.82317e-17)
(-0.00988442 0.000778462 6.72996e-17)
(0.0230685 -0.00668632 2.77064e-17)
(0.0159544 -0.00506133 1.76163e-17)
(0.0146578 -0.00548316 -2.21593e-17)
(-0.000139929 0.0423678 -8.61095e-18)
(-0.00230638 0.0395994 -2.16559e-17)
(0.000483856 0.0389999 -8.84785e-18)
(1.22214e-05 0.000214624 1.74145e-18)
(2.00652e-05 0.000220382 -5.84727e-18)
(-0.000693589 0.0243997 -1.00775e-17)
(-0.00106543 0.0252912 1.1123e-17)
(0.0175219 -0.00412817 -9.62507e-18)
(0.0177301 -0.0027505 -3.68589e-18)
(0.0165235 -0.0033695 -5.56517e-18)
(0.00995283 -0.021046 -4.0696e-17)
(0.00987761 -0.0226835 -4.40721e-18)
(0.0085427 -0.0212465 3.15429e-17)
(-5.178e-05 0.000378297 6.0583e-18)
(-4.43868e-05 0.000371048 -2.01856e-19)
(-5.01353e-05 0.000391217 9.97457e-18)
(-0.00195653 0.00223425 -3.09768e-17)
(-0.00185062 0.00301319 -5.58422e-18)
(-0.00132062 0.00241259 -1.28254e-17)
(0.0476837 0.0312357 -4.42112e-18)
(0.0443708 0.0336641 2.46869e-17)
(-0.0121555 0.00195323 1.09138e-17)
(-0.0247832 0.0137 -2.72617e-17)
(-0.0239054 0.0154863 -8.20944e-18)
(-7.36453e-05 0.000230958 -8.395e-18)
(-8.60045e-05 0.000252228 3.47998e-18)
(-4.51974e-05 3.11777e-05 4.76522e-18)
(-4.68943e-05 -9.09654e-06 5.37792e-18)
(-4.1439e-05 -1.04245e-05 2.00566e-18)
(-1.16942e-05 7.65711e-05 2.00778e-18)
(0.0961553 0.015681 1.06889e-17)
(0.091226 0.0181257 4.40157e-18)
(0.0121849 7.22445e-05 1.0609e-17)
(0.00902239 0.00033151 3.1708e-17)
(0.0313399 -0.00858901 -3.51116e-17)
(0.0329741 -0.00897918 1.20355e-17)
(-0.000236951 0.122116 -2.30305e-17)
(0.00381507 0.121681 -1.25828e-17)
(4.35663e-05 0.000238312 1.5197e-18)
(3.94228e-05 0.000196853 -1.17492e-17)
(-2.02052e-05 0.000208437 -3.90141e-18)
(0.00716428 -0.00101425 1.42427e-17)
(0.00279896 -0.00856019 3.99319e-17)
(0.0168681 -0.00129712 4.91101e-17)
(0.001617 -0.0198112 -5.68416e-17)
(0.00191944 -0.019146 -1.25465e-17)
(0.00127173 -0.0194756 4.77636e-17)
(-0.000302286 -0.00292931 6.72666e-18)
(-0.000271473 -0.0030757 -3.52193e-18)
(-0.000433195 -0.00300551 -2.28989e-18)
(-0.000318175 -0.00118227 2.28674e-18)
(-0.00035084 -0.00105577 8.62088e-18)
(-0.000254675 -0.00109717 6.33057e-18)
(0.00107748 -0.00137892 -2.0716e-17)
(0.000979498 -0.00139285 -8.49715e-18)
(0.000946201 -0.00152487 -1.95589e-18)
(-0.00281817 -0.0251568 1.77919e-17)
(-0.00234177 -0.024561 -6.89351e-17)
(-0.00257835 -0.0246015 -6.88431e-17)
(0.000137614 -0.000194702 -1.32066e-18)
(0.00018912 -0.000193636 5.81553e-18)
(0.000198273 -0.000206347 -3.99413e-18)
(-1.38574e-05 0.00027848 1.1077e-18)
(-1.22902e-05 0.000292933 6.57229e-18)
(9.95751e-06 -0.000370533 -4.46983e-18)
(1.56273e-05 -0.000365023 1.43251e-17)
(8.3837e-06 -0.000357926 1.88946e-17)
(-0.00012018 -0.000539834 -1.17035e-17)
(-0.000134545 -0.000638361 8.08375e-18)
(-9.92685e-05 -0.000602445 -1.05583e-17)
(-0.000102342 -0.000432408 5.28131e-19)
(-0.000145469 -0.000491669 7.16043e-18)
(-7.69433e-05 -0.000514805 4.51311e-18)
(-0.00612951 0.00403447 -3.46048e-18)
(-0.0059877 0.00462642 -1.20441e-17)
(-0.00655161 0.0044803 5.27027e-18)
(-0.00474495 0.00103546 6.28186e-18)
(-0.00492574 0.0013271 1.30422e-17)
(-0.00506543 0.000999425 1.57063e-17)
(-0.000749337 -0.00423532 1.95818e-19)
(-0.00125554 -0.00551957 1.04641e-17)
(-0.000702562 -0.00586841 -4.44413e-18)
(-0.000241369 -0.000113861 4.55057e-18)
(-0.000246966 -0.000143328 -7.5254e-18)
(-0.00023378 -0.00011697 -7.89243e-18)
(-0.000176568 0.00509437 -2.93627e-18)
(-0.000313952 0.00472116 9.20543e-18)
(0.000136061 0.00477587 1.07266e-18)
(-0.00156439 3.73411e-06 4.88231e-18)
(-0.0016893 7.77892e-05 2.59036e-19)
(0.000320547 -0.00112665 2.90394e-19)
(0.000270709 -0.00114927 1.64654e-17)
(0.000336068 -0.00112305 -1.03372e-17)
(0.0162692 -0.0163101 8.00736e-18)
(0.0154708 -0.0173746 1.12389e-18)
(0.0172865 -0.0177146 -4.48092e-18)
(-0.00182171 0.0139733 7.71235e-19)
(0.0148564 3.68068e-06 -3.33319e-17)
(0.0124535 -0.000976846 -2.86477e-17)
(0.000166146 -0.000186525 3.85768e-18)
(0.000169918 -0.000188241 -3.72046e-18)
(0.000169317 -0.000205336 7.89642e-18)
(0.0241217 0.0064007 3.9527e-17)
(0.0258939 0.00575794 -1.5848e-18)
(0.00169318 -0.00088411 -9.35984e-18)
(0.00185417 -0.000901083 4.0405e-18)
(-0.0176784 -0.011174 1.19027e-17)
(-0.0192239 -0.0117446 2.58577e-18)
(-0.0177469 -0.0128255 4.93418e-18)
(-0.000174849 -7.97282e-05 -7.16093e-18)
(-0.000197658 -6.54956e-05 5.72494e-18)
(0.0160208 0.0138616 1.03274e-17)
(0.0150115 0.0130138 1.30959e-17)
(3.53901e-05 -0.000242933 6.19255e-18)
(3.56574e-05 -0.00024026 1.04164e-18)
(0.000173933 -0.00975063 2.32705e-18)
(-0.000189516 -0.00872215 1.33739e-17)
(-0.00105956 -0.00985067 -1.65863e-18)
(0.0016572 0.0124445 6.28897e-17)
(0.0023772 0.0122547 4.42523e-17)
(-9.73697e-05 -0.000346733 -1.68717e-17)
(-0.000195178 -0.000391631 -6.54485e-18)
(-0.0177558 -0.0315751 -1.71001e-17)
(-0.0190079 -0.028747 -9.35313e-17)
(-0.0216045 -0.0307867 -9.06431e-18)
(-0.000133303 0.058491 -2.48161e-17)
(0.00301917 0.0617852 -3.32289e-18)
(-0.000125169 0.0631449 5.71958e-17)
(0.00447773 0.00631601 1.99717e-18)
(0.00411744 0.00651028 -9.11412e-18)
(4.89424e-05 9.70654e-05 -1.02011e-17)
(3.13378e-05 0.000139394 -1.5937e-17)
(3.49466e-05 6.8285e-05 3.76992e-18)
(-0.00835108 0.0125355 4.80887e-19)
(-0.00779283 0.0121729 -3.88621e-19)
(-0.00776994 0.0128194 -2.31021e-18)
(-0.00124679 0.0885176 -1.33009e-17)
(-0.00107175 0.0840516 1.00808e-17)
(0.00237245 0.0890658 1.96919e-18)
(0.000735119 -0.0095355 6.47951e-18)
(3.99286e-05 -0.00996667 -3.53085e-18)
(0.00025055 -0.00934621 1.55686e-17)
(0.000813387 -0.00995162 -2.43818e-17)
(0.000937906 -0.00944324 2.08071e-17)
(-0.00316753 -0.00282133 -3.80773e-18)
(-0.00354381 -0.00124525 1.56413e-17)
(-0.00387721 -0.00184004 -4.346e-17)
(-0.030374 0.021318 1.01921e-17)
(-0.0320724 0.0199051 -6.0248e-18)
(-0.0353043 0.0230718 1.62191e-17)
(-0.0172991 -0.00961381 9.8646e-18)
(-0.0161173 -0.0108044 -3.57194e-18)
(-0.0124537 0.0037837 7.79182e-19)
(-0.0120115 0.00439707 -4.08364e-18)
(0.000335506 -0.0187206 -2.73024e-17)
(-0.00169769 -0.0200214 -2.86869e-17)
(0.000148139 -0.000743093 1.07977e-17)
(0.000170402 -0.000786312 3.95046e-18)
(0.000199109 -0.000744848 -8.68102e-19)
(0.0029849 0.00440603 8.65442e-18)
(-0.0108022 0.00299429 -1.12239e-17)
(-0.0115681 0.002516 1.41812e-17)
(0.000179515 -0.00020868 -1.12733e-18)
(0.000194439 -0.000190956 1.75255e-19)
(1.90184e-06 -0.0003526 -9.95794e-19)
(1.40052e-06 -0.000355326 8.45218e-18)
(-5.22017e-07 -0.000330442 8.75385e-18)
(0.137553 0.006155 -3.45595e-18)
(0.132988 0.00759029 6.42333e-18)
(1.09901e-05 -0.000119758 3.56155e-18)
(2.41758e-05 -0.000124614 -1.78056e-18)
(5.62979e-06 -0.000183116 -1.39052e-18)
(1.84672e-05 -0.00015091 -1.50461e-18)
(2.66154e-05 -0.000168705 7.86849e-18)
(-0.0180962 0.0223614 3.54935e-18)
(-0.0167413 0.0233638 -1.09942e-17)
(-0.0169569 0.0214817 -7.3876e-18)
(-0.0154206 0.0241229 -3.29405e-17)
(-0.0145032 0.0233624 -3.54353e-18)
(-0.0137328 0.0249447 -1.76683e-18)
(7.30721e-05 0.000280791 2.92639e-18)
(-0.00221436 0.00239643 1.27712e-17)
(-0.00185139 0.00257172 -2.78021e-17)
(1.42773e-05 0.00543362 -2.81277e-18)
(-0.000458858 0.00539824 -3.13051e-18)
(0.00631086 -0.00218935 1.27362e-18)
(0.00592679 -0.00252746 -7.82248e-18)
(0.00626065 -0.00257546 1.56942e-18)
(-0.00262845 0.00239279 5.68557e-19)
(-0.00250119 0.00217937 2.8094e-17)
(-0.0027442 0.0022137 8.58644e-18)
(-6.39634e-05 0.000380254 -6.02925e-18)
(0.00757752 0.00463579 1.94036e-18)
(0.00715219 0.00510192 1.71891e-18)
(0.00687687 0.00438635 -4.51769e-18)
(-0.000984292 -0.010259 -9.52503e-18)
(-0.00076815 -0.011833 2.46e-17)
(-0.000999173 -0.0106454 -5.82976e-18)
(-7.23024e-05 -0.000339379 -2.31458e-18)
(-3.12324e-05 -0.000348663 -2.46982e-17)
(-0.000196421 0.0500578 -1.52295e-17)
(-0.000289761 0.0459614 8.68815e-18)
(-0.00333054 0.0473011 3.50822e-17)
(-1.41058e-05 -0.000234531 -2.33047e-18)
(1.48755e-05 -0.000218034 -2.1527e-19)
(6.223e-05 -0.000265535 -1.88057e-18)
(4.75634e-05 -0.000283147 6.96258e-18)
(5.79274e-05 -0.000281096 -1.77681e-18)
(0.000162476 -3.97415e-05 -4.31637e-20)
(0.000200174 -5.06396e-05 6.37754e-19)
(0.000215721 -4.87568e-05 -1.67149e-18)
(-0.00286588 -0.0058385 1.13532e-17)
(-0.000147388 0.000434937 -2.55111e-18)
(-0.000151636 0.000437763 5.84377e-18)
(-0.000140263 0.000426239 7.70091e-19)
(0.0224931 0.0299469 -6.04455e-17)
(0.0337344 0.0291039 -4.00033e-17)
(0.0257056 0.0115635 6.65786e-18)
(0.0313371 0.0121836 2.46839e-17)
(0.0264529 0.0131777 5.311e-17)
(8.94249e-05 -0.000102283 -1.59629e-17)
(8.96693e-05 -0.000111722 -7.55766e-18)
(9.28921e-05 -7.65906e-05 -1.35245e-17)
(3.6255e-05 -0.000263994 5.5646e-18)
(4.22748e-05 -0.000247005 -2.4844e-18)
(0.0559018 0.0186652 2.95017e-17)
(0.0340024 0.0222867 -1.8642e-17)
(0.0211204 0.0239261 3.2856e-17)
(0.000154986 -2.12149e-05 -1.27844e-18)
(0.000169703 -3.85941e-05 3.96491e-18)
(3.94169e-06 -0.000283777 5.00671e-18)
(6.74252e-06 -0.000281511 1.53764e-19)
(7.65555e-06 -0.000311295 -4.95024e-18)
(0.000225996 -2.41676e-05 3.60488e-18)
(0.000217298 -3.75897e-05 -1.16414e-18)
(0.000208875 -2.21383e-05 1.18962e-17)
(0.0239866 0.0104696 1.3398e-17)
(0.0218743 0.0106309 -1.74085e-17)
(0.00752335 -0.0176192 -4.47949e-19)
(0.00687772 -0.01852 -5.51725e-17)
(0.000960183 -0.00251259 -1.87518e-18)
(0.000899937 -0.00240296 -8.53017e-19)
(0.0010728 -0.00240285 -3.97636e-18)
(0.018451 -0.0137968 4.51484e-18)
(0.0177974 -0.0124243 7.30708e-18)
(0.0193932 -0.0124326 1.84094e-18)
(-0.0120272 0.019901 -6.22602e-18)
(-0.0109491 0.0194962 2.70675e-17)
(-0.0118122 0.0187102 1.04509e-17)
(0.00723826 0.125104 -1.04947e-17)
(-0.00115907 -0.000934487 -1.16374e-17)
(-0.00136331 -0.00274428 4.96659e-17)
(-0.00231985 0.000559863 6.02356e-17)
(-0.00150115 0.00033445 -2.01097e-17)
(-0.00164498 0.000317884 -2.36213e-17)
(-1.67818e-06 -0.0106209 -1.34112e-17)
(0.000638249 -0.013307 -3.06487e-17)
(-0.00429701 -0.00887616 -9.99478e-18)
(1.06519e-05 -0.000187568 -4.11716e-18)
(8.45919e-06 -0.000224339 5.78884e-18)
(8.95394e-06 -0.000183109 8.5541e-18)
(-0.00608499 0.0873403 -2.15834e-17)
(-0.001009 0.0929221 -1.45894e-17)
(0.014503 -0.0371196 2.40538e-17)
(0.00733484 -0.0378443 2.26434e-17)
(0.0174241 -0.0379267 3.63825e-17)
(-0.00526237 0.0178368 1.76667e-17)
(-0.00365791 0.0191182 3.60561e-17)
(-0.00539295 0.0199394 2.32676e-17)
(0.0262177 0.0304513 -1.45828e-17)
(-0.0285174 0.0198086 8.50393e-18)
(-0.0286443 0.0223874 -2.81603e-17)
(-0.00353094 0.000684747 -3.28103e-18)
(-0.00372751 0.000862113 2.69875e-18)
(-0.00133229 0.0113778 -3.61939e-18)
(-0.000645505 0.0114113 -8.1361e-18)
(-0.00438134 0.00115639 4.81506e-18)
(-0.00452641 0.000759525 -1.64537e-17)
(-0.000327501 -0.00125904 -7.38022e-18)
(-0.000270416 -0.00136316 -1.23678e-18)
(-0.000166881 -0.00124172 1.24412e-18)
(-0.00189112 -0.00035559 1.89137e-18)
(-0.00200757 -0.000400972 -7.78196e-18)
(-0.00192505 -0.000592784 1.56232e-19)
(0.0175787 -0.0149853 -2.9506e-18)
(0.0157691 -0.014754 -4.93165e-18)
(0.00129249 -0.00300344 1.08689e-17)
(0.00111217 -0.00316171 -3.87672e-18)
(3.14548e-05 -0.000296887 -1.81758e-18)
(2.73631e-05 -0.000297002 9.77232e-19)
(6.28076e-06 -5.00554e-05 -1.06512e-18)
(1.49438e-06 -4.0275e-05 -4.40283e-18)
(1.92167e-06 -4.50187e-05 -1.54227e-18)
(0.000209483 -0.000222622 -4.99002e-18)
(0.000180457 -0.000212623 -5.69504e-18)
(0.00044776 -4.10541e-05 -9.22802e-18)
(0.000439697 -5.11002e-05 -1.05324e-18)
(0.000458453 -5.22703e-05 -5.6914e-20)
(-9.85182e-05 -0.000359236 1.5042e-17)
(-0.00471488 0.00289312 1.88606e-17)
(-0.00314267 0.00173977 4.92448e-17)
(-0.00431303 0.00211238 2.17405e-17)
(-2.18319e-05 0.000101638 -5.7408e-18)
(-2.55027e-05 8.01636e-05 1.00667e-19)
(-1.39087e-05 9.75662e-05 -4.09506e-19)
(-0.000150149 -0.00012051 1.319e-17)
(-0.000124755 -0.000166745 1.71445e-18)
(-0.000126017 -0.000134273 -1.54712e-18)
(0.000463049 -5.65698e-05 4.4362e-18)
(0.000482403 -6.49901e-05 4.71661e-18)
(0.000462576 -3.96537e-05 1.73101e-18)
(2.67843e-06 0.000215622 -8.61856e-18)
(1.48263e-05 0.000203266 5.33677e-18)
(0.000719875 -0.0134321 -4.50076e-18)
(0.00019223 -0.0136711 -8.04356e-18)
(0.000340737 -0.0162012 -8.38108e-18)
(0.0264819 -0.000362309 -3.77189e-18)
(0.0277518 -0.00105518 -1.06277e-17)
(-0.00554369 -0.0105809 -1.21861e-17)
(-0.00543169 -0.010297 1.86981e-17)
(-0.0057004 -0.0114039 -1.99071e-17)
(-0.000317132 -0.0017122 -1.75773e-18)
(-0.000183721 -0.00171546 -6.91899e-19)
(-0.000405811 -0.00179001 1.98234e-18)
(-0.0175535 0.0107625 -9.71847e-18)