/*--------------------------------*- C++ -*----------------------------------*\
| =========                 |                                                 |
| \\      /  F ield         | OpenFOAM: The Open Source CFD Toolbox           |
|  \\    /   O peration     | Version:  v2012                                 |
|   \\  /    A nd           | Website:  www.openfoam.com                      |
|    \\/     M anipulation  |                                                 |
\*---------------------------------------------------------------------------*/
FoamFile
{
    version     2.0;
    format      ascii;
    class       volScalarField;
    location    "100";
    object      ddt0(k);
}
// * * * * * * * * * * * * * * * * * * * * * * * * * * * * * * * * * * * * * //

dimensions      [0 2 -3 0 0 0 0];


internalField   nonuniform List<scalar> 
18758
(
-3.60818e-08
-0.00224672
5.27092e-08
0.00582027
-0.00415287
0.00035986
0.000177584
2.91961e-08
2.64621e-06
-9.00424e-08
2.85927e-08
2.40728e-05
2.5275e-08
-4.73944e-06
1.21379e-07
5.572e-06
-1.47509e-07
3.7112e-09
8.24979e-08
-8.19603e-08
-0.00186552
3.27511e-10
0.000970524
-0.00531223
-0.000729546
3.25811e-08
-7.15916e-06
-0.00373759
-0.00653658
0.000199546
-1.17169e-06
-0.00123109
9.41347e-09
1.44005e-07
-4.73087e-06
1.21806e-08
5.77209e-09
-2.24985e-08
9.26228e-09
-2.57446e-07
-6.23338e-09
-6.5162e-08
-6.88831e-09
-7.55872e-08
0.00353245
1.86564e-08
0.00106315
-4.02726e-08
-8.96919e-08
-2.1567e-09
5.99967e-07
-0.00103948
2.06879e-08
2.98836e-08
-0.00349746
0.00622203
5.87216e-09
-2.27937e-05
1.09046e-07
-4.84028e-06
3.07916e-08
0.000214882
-1.08848e-06
-8.30372e-09
1.88432e-08
-2.56677e-08
-2.99559e-07
1.05989e-08
-2.59936e-08
-0.00100354
-0.00243336
4.14943e-08
-2.5236e-09
0.0033788
5.40893e-10
1.14816e-07
-3.54044e-06
-0.004061
-1.91062e-06
0.000639653
0.0027193
0.0113203
-6.25047e-06
-0.000756611
-2.65721e-05
1.21367e-07
0.000369891
-8.9556e-07
6.37537e-05
1.1311e-07
-0.000748161
1.08802e-07
-0.00112719
-5.17077e-08
0.00306573
-0.00101052
-2.30353e-05
-1.43698e-09
8.31252e-08
-0.00207718
-7.45993e-08
-0.00093639
-1.97467e-06
6.94783e-09
-0.00115255
0.00444714
-6.41804e-05
-0.00413988
-2.24399e-08
1.63811e-08
-0.0014874
-1.91116e-05
3.71335e-08
-2.82743e-08
-0.0106417
0.00128387
0.000423329
1.14728e-07
0.000325494
0.00290329
5.83468e-08
3.45351e-08
0.00256296
-2.31567e-05
-6.83554e-06
0.00510827
-0.000591376
-0.000226309
-0.000863014
7.98788e-08
-1.96514e-07
1.41354e-05
-0.000659607
-2.01454e-07
-1.39612e-05
-6.50179e-08
-2.6364e-06
-2.9718e-07
8.63985e-08
-3.28843e-07
-2.81585e-06
2.09679e-06
4.95696e-08
0.00514005
-2.27596e-09
8.78156e-08
-0.00127302
-0.000997336
-1.08151e-06
-0.00788648
0.00658866
1.65548e-05
1.17544e-07
4.6118e-09
0.00202347
1.11974e-07
0.000471689
-4.14254e-08
3.27678e-08
5.37803e-10
4.7613e-08
-6.44426e-06
-0.000686546
3.30768e-08
4.05795e-07
-0.00570876
8.40046e-08
0.00224005
3.04845e-06
-0.000644218
0.00148076
4.42612e-09
-0.000957149
-0.00388287
-6.28167e-06
-0.00324494
-0.00684122
-1.56527e-08
-6.03019e-07
-8.32698e-08
3.38741e-08
0.000648587
-0.000797517
2.45382e-09
2.28872e-07
-0.000643131
9.22713e-08
0.00133001
-5.31209e-09
6.41013e-08
-3.36763e-07
-3.6797e-05
-8.71801e-08
-8.87706e-07
-1.05101e-07
-8.59939e-07
-8.66906e-08
-4.70295e-06
1.43602e-08
-6.56214e-09
7.50075e-07
-5.57069e-08
-3.18667e-08
-5.53484e-07
2.38537e-08
-1.48552e-07
-1.81739e-06
2.49421e-09
-0.00195908
-1.0478e-07
6.73613e-09
2.39837e-08
1.70235e-08
-8.46424e-09
-7.24225e-07
0.00207806
3.54993e-06
1.41814e-05
5.35442e-09
0.000493604
7.05075e-09
-3.51811e-08
-7.41959e-06
-0.00173669
-1.58764e-06
-1.85933e-06
1.48626e-08
4.51204e-07
1.23067e-08
-4.52182e-07
-2.76664e-08
-9.65949e-07
0.00118117
5.25719e-06
2.43492e-08
8.70398e-08
1.00369e-08
2.20488e-08
0.00265829
1.87579e-08
5.53516e-08
-0.00155187
0.000641088
1.11014e-07
-0.0086252
-0.000179265
1.09418e-05
1.03856e-08
0.00289165
-1.48247e-08
1.30917e-08
0.00217013
1.2172e-07
-4.7202e-08
9.4792e-08
3.75398e-08
-0.000432171
3.89333e-05
-1.27269e-08
2.02473e-07
5.08553e-08
-1.22178e-06
-1.33637e-08
-5.70832e-07
-9.7181e-08
-5.70707e-06
0.000776542
9.78244e-09
-2.11097e-08
3.04406e-08
-2.07718e-08
2.20871e-07
-4.5493e-07
-0.000968322
0.000559797
6.96245e-08
5.31915e-07
-0.00348747
-0.000491416
-9.28919e-08
2.1135e-08
3.967e-08
2.22796e-08
5.33216e-08
-0.00202264
0.000125825
0.022179
-0.00107887
0.00113212
4.23976e-10
5.21177e-08
-5.74541e-07
0.00224631
3.47057e-09
8.33748e-07
-2.83808e-07
1.93619e-08
0.00263076
7.5382e-08
0.00393394
-0.000545319
1.93251e-08
0.00314875
8.80047e-08
-2.1575e-08
-3.21431e-08
1.25242e-07
1.4291e-07
1.2723e-08
0.000391177
0.0202882
9.89516e-09
0.000225346
0.00277286
-6.28671e-06
-2.63817e-08
1.14408e-07
0.0136957
1.05063e-07
-3.7601e-10
2.28537e-08
9.34201e-10
4.15159e-06
7.38284e-08
3.43919e-08
1.15833e-08
-8.75666e-08
-3.20534e-09
4.87392e-08
1.71934e-10
-0.000468768
-5.98725e-08
1.81064e-07
0.00422078
-1.95908e-08
-8.5722e-08
1.19754e-07
0.00346164
0.00452276
5.33573e-09
9.92429e-09
5.31098e-09
-5.9542e-08
5.57176e-08
0.000199162
3.07932e-08
3.08415e-08
1.93119e-09
3.56014e-05
1.80338e-06
5.80431e-07
2.01124e-07
1.58232e-07
-0.000119428
-5.39396e-07
5.19041e-08
-6.35177e-08
4.53459e-05
-0.00209173
-0.0017738
1.76113e-08
-6.69036e-08
6.49522e-05
-0.000614288
-1.02601e-07
9.00861e-11
-1.44334e-07
7.10601e-08
1.34217e-07
-0.00753977
-0.00644273
-3.67176e-06
-8.40854e-08
0.000872434
1.03343e-07
-5.62015e-08
1.09581e-07
-2.51789e-09
-3.51349e-06
5.15952e-08
0.000269244
2.41492e-06
9.16067e-08
3.99375e-09
0.000743591
-3.41061e-06
-6.26209e-06
1.02286e-07
-4.55372e-07
1.62018e-08
-5.67318e-08
3.87469e-08
1.13154e-08
-0.000165904
-0.00207101
-0.00111973
-0.000338374
3.81672e-08
-7.96449e-06
-0.00204465
2.83502e-08
3.72663e-08
0.00594962
-1.73116e-09
8.6294e-08
3.58597e-08
-3.91333e-06
2.26523e-08
-8.71727e-08
1.01249e-07
0.00239401
2.13504e-08
-0.00402209
-2.56199e-07
-2.35089e-08
2.06717e-07
1.17186e-07
9.5194e-09
1.9264e-08
-9.78467e-07
-4.96663e-07
0.000110509
3.99468e-08
-1.08553e-08
-1.50114e-06
0.00359724
0.0201127
0.00141598
-3.15344e-06
-7.97398e-08
1.19053e-08
5.20522e-08
1.71703e-08
-3.53026e-06
-1.77695e-07
1.78658e-07
-6.89572e-08
1.20663e-07
0.00234157
-2.0358e-06
1.13698e-07
1.77408e-08
5.77778e-05
-5.61191e-08
-0.00654942
1.30224e-07
-9.57935e-10
-0.000984698
-7.92796e-08
5.12296e-09
-0.000287456
-4.95951e-06
-4.27151e-07
-0.000474415
1.13187e-07
-3.2334e-08
6.31714e-06
0.000210571
-1.05597e-07
-7.3805e-08
-4.58505e-06
0.00121403
0.000616345
-5.42605e-06
4.37137e-08
8.1202e-07
-1.99951e-08
-3.62349e-06
-8.10911e-08
-0.000645349
-4.1828e-07
-0.000105759
1.83144e-07
-1.5031e-06
2.06441e-08
-0.00462281
-4.34141e-09
-0.00166096
1.09554e-07
-6.79946e-06
-1.40596e-09
0.0157725
1.14236e-07
1.1588e-08
7.24593e-08
3.59361e-08
0.00617268
-0.00119766
-0.0112207
-2.72015e-07
2.19069e-07
9.38205e-08
1.89541e-09
-1.69212e-09
-0.00165011
7.30506e-08
-1.21006e-09
8.33535e-08
2.01164e-08
1.29341e-08
8.85505e-08
-8.28854e-10
3.51159e-08
-7.68913e-08
-4.30835e-08
1.12269e-07
-0.0086064
5.82735e-07
-7.26854e-08
-5.06209e-08
-8.74703e-09
1.71913e-05
2.92312e-08
-5.18281e-08
-0.0001588
0.00125402
-1.30594e-06
0.0131885
-1.08935e-07
-4.50068e-08
0.00121641
8.41393e-08
4.50028e-05
7.15244e-08
9.19708e-09
-0.00789634
-0.000188311
-1.59424e-07
4.43411e-08
-9.96306e-09
0.00123459
-1.67929e-08
-3.85457e-08
1.28439e-07
1.46841e-07
8.71502e-08
2.93366e-08
-4.69689e-10
0.00220859
1.15017e-07
-0.00574511
2.19737e-08
2.01068e-06
-0.00446749
-1.03327e-08
-6.67511e-09
9.6828e-08
1.4758e-08
-1.01403e-07
-5.74753e-09
-8.74247e-08
-1.46211e-06
2.42873e-05
1.90763e-08
0.000481136
-0.003219
-7.8029e-08
-6.77971e-07
0.000176313
-8.10387e-08
5.29785e-07
1.4431e-07
-0.00248135
1.12418e-07
-1.45904e-07
1.94484e-08
0.000223187
-7.08955e-08
1.42602e-06
-2.98902e-06
0.000159812
9.91401e-08
1.07133e-07
-2.89244e-08
0.00112537
-9.07773e-08
4.81384e-05
5.35749e-08
0.000942406
-1.10765e-07
-1.5138e-08
3.69927e-08
2.02219e-08
-0.00345843
0.00149324
1.00383e-07
-1.61468e-05
-2.29559e-08
0.0179855
-0.00165726
0.00959143
-0.000354735
4.35054e-08
-0.00395668
-8.44683e-07
-4.98616e-08
-2.96443e-07
-0.00162186
-0.0027412
1.39382e-07
1.56907e-09
-3.24121e-08
4.70021e-08
-0.000950944
-1.3163e-06
-0.00369641
-0.00204285
8.43744e-08
1.47279e-08
-3.82967e-07
-5.28663e-10
4.82573e-08
-3.85055e-09
1.2889e-07
-1.53745e-06
-5.59013e-08
1.76289e-06
-0.00404681
1.96828e-08
1.7543e-09
-7.56943e-08
2.28389e-07
-0.00286953
-9.81547e-08
0.00918064
-2.36939e-09
9.9577e-08
-1.40366e-05
0.0161888
-9.36222e-08
1.39072e-09
4.47501e-06
-0.000974341
-3.64431e-06
1.89537e-08
-0.00169117
-0.00116576
7.7354e-05
-3.41525e-10
0.000103221
0.000334165
0.000247675
6.02882e-08
3.753e-09
-0.0101509
-2.94335e-10
-1.00305e-05
-0.000279506
3.11714e-06
0.000188212
-2.12617e-06
-0.00228794
-9.65859e-07
6.64979e-08
6.04765e-09
0.00140942
0.0162934
0.000282277
-0.00667019
8.31155e-08
-9.62951e-06
-1.09388e-10
1.14033e-08
-2.15862e-06
1.74859e-06
1.03505e-08
-6.21515e-08
-3.71216e-06
-0.000193584
0.00142239
0.000296833
4.74626e-08
-6.91089e-08
-6.90014e-06
3.1669e-08
5.05613e-09
-1.76561e-08
2.91303e-07
-1.33341e-06
-1.47779e-08
-2.04505e-06
5.10339e-08
8.97626e-08
1.50505e-08
-0.00409822
2.16842e-08
3.38564e-09
-3.16646e-07
-1.39945e-07
2.03575e-08
0.000160177
7.54417e-08
4.46553e-08
6.68164e-08
-1.40123e-07
2.19462e-07
-1.18552e-07
0.0225802
-9.47608e-08
-4.33277e-08
0.0158411
-3.55008e-08
0.00939728
8.75537e-07
-1.67534e-06
0.00044393
-0.00101554
9.31909e-10
-0.00226612
-0.000913164
2.69909e-08
-0.00219322
-2.204e-09
1.81792e-08
5.45538e-09
3.27036e-09
3.3595e-06
-0.00278035
-4.12275e-09
-0.000765707
4.25937e-08
6.49529e-08
0.0173276
2.50035e-08
-0.00169019
-1.2287e-07
5.69769e-08
6.89216e-08
-1.27807e-08
1.97054e-06
1.02318e-06
0.00109626
1.25818e-07
0.000323594
-3.24259e-07
-1.36575e-08
1.14751e-07
0.000340684
-0.000788652
9.1665e-07
-4.23452e-06
-7.19514e-07
4.1411e-08
1.18757e-06
-1.21733e-07
-0.0106666
2.02742e-08
0.000130507
1.47319e-07
3.17054e-07
-7.11814e-08
-1.17044e-08
-0.00818475
2.55401e-09
4.83161e-08
-0.000259758
-1.21e-07
1.2519e-08
-2.29286e-07
1.13744e-07
-2.07529e-06
-0.00076997
0.0120352
0.000223271
1.49385e-08
3.30211e-09
-0.00197961
-3.87809e-08
-6.815e-05
-2.31595e-06
4.03777e-08
6.1296e-10
-3.8178e-08
-1.06408e-08
5.13482e-08
1.80262e-07
0.000710241
3.13055e-06
3.0404e-06
2.81995e-08
1.63917e-08
-8.84323e-07
-0.00763964
4.65253e-08
-2.29862e-06
1.25441e-07
-0.00248404
-1.20123e-08
0.00222187
2.15141e-08
-0.000880205
1.084e-09
-1.60736e-06
-4.55009e-08
2.68167e-07
4.74292e-07
2.25395e-08
4.84508e-08
8.04598e-09
0.00522887
-0.000649537
1.10486e-07
-0.00173345
9.68561e-08
-1.64227e-07
1.13878e-07
7.43668e-06
0.000539914
1.22107e-07
1.93123e-08
3.49681e-06
4.86205e-08
9.45334e-08
1.21879e-07
0.00090415
0.00170099
-0.000192465
0.0117676
2.23092e-06
-2.32936e-09
7.39999e-08
-0.0111133
1.76175e-08
-0.000446191
1.56181e-07
4.9667e-09
-0.0040019
-0.000424799
-1.37349e-09
0.00113169
-4.85442e-08
-1.34049e-06
-1.07843e-06
0.0135461
3.24567e-05
0.00130615
2.4305e-08
5.48696e-08
-0.00391304
6.29256e-08
-3.52457e-08
1.48434e-07
6.26005e-08
0.0102513
1.87885e-06
-3.6025e-07
0.00120496
-2.56388e-07
-4.2281e-06
1.27075e-07
1.21644e-08
2.77965e-08
3.74191e-08
0.000690264
-0.00116712
3.00444e-06
-9.24944e-11
2.2849e-08
4.89295e-07
-1.16977e-08
1.16746e-08
-1.27159e-07
-0.0124717
-0.00178403
-2.02049e-06
-4.67148e-05
4.10143e-06
-3.47228e-08
1.08165e-06
6.92906e-08
0.000616425
-0.000819395
0.000619393
-0.0132254
1.32273e-07
1.81706e-07
-0.00241871
0.00142983
0.0004538
-2.88817e-08
-4.77398e-08
0.00104331
1.88972e-08
-1.49778e-05
1.85828e-05
-3.64703e-06
1.9994e-08
-2.80919e-08
-6.6345e-08
-0.00216669
-9.54242e-06
2.36573e-06
2.66622e-10
2.46387e-07
-2.0684e-07
-0.00195677
-1.85837e-08
0.00011526
5.32603e-08
-4.01898e-08
4.46783e-06
4.18273e-08
-2.12192e-08
-7.36675e-08
-1.26659e-07
1.19157e-08
-1.21487e-07
-3.49856e-10
0.011905
7.861e-06
-0.000404206
9.14671e-10
8.74155e-08
-1.47922e-08
-2.18707e-06
7.21323e-06
-8.25879e-08
4.94783e-08
1.59334e-07
-5.34977e-05
-3.08806e-06
1.25269e-07
-0.00053143
-3.33618e-06
1.11691e-07
8.78022e-08
0.0126908
8.05684e-05
-5.65859e-08
2.76467e-09
0.00704873
1.50893e-08
7.64328e-08
-9.84665e-09
5.38616e-05
0.00204594
2.8151e-08
8.42191e-08
-0.000295249
1.00185e-07
-0.00731969
0.00129074
-8.22471e-07
2.269e-08
8.68743e-09
-1.02514e-08
2.35967e-08
0.000807126
-0.0080978
7.79201e-07
-9.70822e-08
-0.00250515
5.73456e-08
5.0591e-08
-0.00543613
-1.75716e-08
-0.0043688
3.08369e-08
-6.29873e-08
-1.26093e-08
3.64649e-08
1.45359e-08
1.66585e-08
0.00145355
-1.13043e-10
4.76209e-09
-1.54608e-06
-7.55686e-08
-2.51917e-09
4.62467e-08
-2.3415e-08
1.65539e-08
1.78147e-06
1.16868e-08
-9.25841e-08
0.00215402
-1.33109e-06
2.17012e-09
-1.41337e-05
-2.34884e-06
1.84148e-07
-1.01627e-07
-1.05977e-06
-0.00919049
-6.6199e-09
-2.80413e-07
-1.35043e-08
3.74356e-08
-1.90969e-08
1.51181e-07
-1.16693e-08
-1.66175e-07
6.85358e-08
1.27851e-07
-7.92019e-07
0.0006434
-1.09521e-05
7.40496e-08
3.54667e-08
-1.23344e-07
-5.20616e-07
4.95584e-08
0.00131408
-2.56194e-08
5.83735e-08
3.43324e-08
-3.49197e-06
0.000591018
1.3024e-08
1.08124e-07
2.01849e-08
-2.40202e-06
3.43406e-08
4.94884e-08
0.00117012
2.69444e-09
4.39213e-08
1.42236e-08
1.28527e-06
3.59326e-08
-5.54356e-08
0.0148667
0.0137186
-1.93861e-06
-3.12236e-07
-0.000607229
2.19884e-07
-1.55804e-08
6.35518e-08
0.000370808
4.94248e-08
-1.01181e-06
-1.99671e-06
-1.42054e-08
-4.72748e-08
8.71702e-08
-8.09516e-08
-1.11434e-07
4.01691e-09
1.15031e-05
-0.00319244
-3.84022e-08
3.62454e-08
-0.00847504
-2.81278e-07
0.000278794
-0.000371827
-1.53194e-06
1.93833e-08
6.05691e-08
6.64197e-08
-8.63168e-07
1.80138e-08
1.86984e-08
0.00260961
-1.93493e-05
2.02211e-07
5.9234e-08
1.56645e-07
9.72786e-08
1.30509e-08
-1.12822e-07
-3.47527e-08
1.15268e-05
-1.20791e-06
-4.1902e-08
1.55974e-08
3.31469e-08
3.50521e-08
-2.01822e-08
-7.75035e-08
0.0336017
-5.59981e-09
-7.37457e-07
-4.16242e-09
5.91354e-08
0.000949071
0.00925411
-3.02335e-05
-2.69159e-08
0.00125982
1.80715e-08
-1.58016e-08
-3.89645e-09
8.25659e-08
7.41301e-09
3.8447e-11
-2.78148e-07
-8.62477e-07
1.11766e-08
-1.38657e-09
9.06381e-08
1.28545e-09
2.82007e-06
-0.00790635
-0.000360699
-4.11701e-08
0.00113062
1.18038e-07
1.30223e-08
1.56083e-07
1.31739e-08
-5.78476e-08
-7.35093e-08
8.78583e-09
0.00221437
0.000237502
0.00153307
1.12525e-07
0.000864866
1.11296e-08
-0.00184729
0.00240973
5.55812e-08
-9.0763e-07
1.27777e-06
2.67491e-09
1.3169e-08
0.00129049
8.51972e-08
-1.75578e-08
-4.02219e-06
-0.00082946
2.36639e-08
1.1454e-07
1.34572e-08
1.42743e-07
-3.31551e-06
1.26545e-08
0.00261589
-2.38586e-07
-1.71156e-09
-4.52143e-05
9.77877e-08
-1.44512e-06
6.54192e-10
-5.46701e-06
-2.77801e-08
-0.00397968
7.66018e-11
8.70319e-09
0.00397873
3.29769e-08
0.000704032
-2.6499e-09
8.778e-09
-0.0104707
0.00236065
2.85317e-08
4.04704e-08
-1.78009e-08
-2.26645e-09
3.47343e-08
-8.01852e-08
4.24636e-08
0.000263506
5.59521e-08
6.5101e-08
1.06891e-06
1.39387e-06
-4.40308e-08
2.25064e-08
-0.00308617
-3.77985e-07
2.45899e-09
-2.46757e-08
7.62911e-08
-7.84137e-09
-0.00681836
4.15278e-09
7.24355e-09
-5.83043e-08
0.000616416
6.01982e-08
4.3466e-08
-0.00399308
1.35704e-07
-0.00172725
1.47758e-07
4.45172e-08
2.1832e-08
-0.00103399
2.96878e-07
-1.70636e-08
-0.00946764
-0.000936849
3.67328e-08
-0.00158197
3.36234e-07
6.98838e-08
7.86884e-08
1.49749e-06
5.99088e-09
0.0104154
-6.9771e-08
2.11182e-08
0.000210175
-0.000597256
-1.61013e-06
-7.16482e-08
-0.000916231
-8.07924e-08
-1.0854e-05
0.0016431
1.11333e-07
-0.00104907
-2.01219e-08
-6.30674e-08
3.06254e-07
0.000448966
2.93173e-08
9.35573e-08
0.0127664
2.87096e-10
-9.6279e-08
3.28893e-08
5.20084e-08
0.000373083
1.38708e-07
-7.55813e-08
6.6356e-08
-0.000426938
3.11305e-08
-5.94408e-09
-1.52237e-07
-3.63887e-06
2.04352e-07
2.82209e-08
2.89131e-08
1.99155e-08
-7.17683e-09
2.91426e-08
-6.53043e-08
-3.5394e-08
0.000340176
1.213e-08
-0.00228193
-2.43916e-08
2.47357e-07
-3.18603e-09
-9.21052e-08
5.80556e-08
3.5973e-08
-0.00215683
0.00114402
-2.41356e-08
1.18999e-08
0.00511012
-3.72944e-08
0.00413832
-1.05035e-07
1.37181e-06
-0.00252393
0.00020557
0.00430348
1.54682e-07
7.41572e-08
3.53606e-08
0.00741671
-5.94801e-08
-1.589e-08
2.58501e-07
-9.02006e-09
1.03033e-08
-3.231e-09
0.000963152
-0.000472035
1.35562e-08
1.38994e-05
-0.0021155
1.47235e-07
2.3253e-08
6.18169e-08
0.00919029
4.83587e-08
-1.38268e-06
1.00873e-09
1.15179e-08
9.02034e-08
2.34775e-08
-1.3259e-06
6.75851e-08
7.60419e-08
-1.14191e-08
3.0032e-08
3.27674e-06
4.27019e-09
-9.55589e-09
9.46629e-08
5.5128e-08
1.80731e-05
0.00714754
-1.11908e-08
-8.11564e-08
7.98748e-08
8.88897e-09
5.0253e-09
-0.00149261
9.84731e-08
-8.55435e-08
-5.54249e-08
-0.00267908
2.58811e-09
1.90184e-08
0.00222771
1.4071e-08
-8.64896e-07
-1.07777e-07
-1.36151e-08
0.00243529
0.00401162
-3.43074e-08
0.000446083
1.16422e-07
-3.12584e-06
4.65224e-08
-0.00039446
1.46128e-08
-0.00842094
-8.33717e-09
5.64971e-08
-0.00650461
0.000315213
-2.49381e-05
9.88496e-06
3.34674e-08
-0.009268
1.43159e-08
-0.00412876
-3.40661e-07
1.24839e-08
5.00456e-08
4.0435e-08
4.29134e-09
1.23956e-07
-0.00381727
-9.99939e-08
1.14476e-07
2.36646e-08
6.94779e-08
0.00129001
2.88011e-09
-6.23467e-08
1.67639e-08
3.39012e-08
1.15887e-07
-7.7269e-05
4.0309e-08
-8.49543e-08
6.48323e-07
9.17911e-08
1.55218e-07
3.51681e-09
-2.81318e-07
-4.36316e-06
-1.52422e-08
1.74105e-07
1.88342e-08
-2.25188e-08
0.000625548
4.79405e-08
-2.24511e-07
-0.00403184
3.49719e-10
0.00125869
-4.80856e-05
-5.18492e-07
-0.00406126
1.61117e-08
0.0148213
0.00344393
-3.06952e-06
3.61174e-08
0.00209573
-3.35374e-06
-2.69332e-09
-4.84784e-08
0.000895837
-1.02697e-07
-3.77109e-09
3.24591e-08
2.78798e-09
-0.000654413
-1.82639e-07
8.21162e-08
9.51171e-10
6.1911e-08
2.32219e-07
4.04083e-07
0.00134445
-2.574e-06
-0.000938489
6.07942e-08
9.06966e-11
1.43125e-08
0.000172349
0.00549505
8.23279e-09
8.80665e-08
5.68573e-07
9.58939e-08
-5.75731e-06
0.0171112
-0.00153438
5.38243e-08
1.07057e-07
-0.00430563
-1.18849e-09
-0.00253265
-4.30468e-05
1.13026e-08
0.00470161
-9.69954e-08
1.15626e-06
-2.99098e-08
-0.000154789
1.46574e-08
1.55596e-05
3.47738e-08
-2.71263e-07
1.5427e-07
2.82331e-09
-0.0039076
1.51527e-07
1.08826e-07
6.44344e-09
-0.00244744
1.02385e-08
4.70198e-09
0.00104786
1.0849e-07
2.87819e-08
1.60643e-08
2.56674e-07
-2.44387e-09
5.83467e-09
-8.7985e-08
6.77693e-09
-1.3939e-08
4.35867e-08
3.3553e-07
-0.000933595
1.26167e-07
-0.00212027
2.53236e-07
-6.49329e-08
9.24768e-08
3.44673e-08
6.06752e-08
-0.00140622
-0.00174912
-3.92238e-08
1.52069e-09
3.80451e-08
-0.00463531
5.08317e-09
-1.92991e-06
0.000555428
0.00740411
0.0011889
-0.00146927
-0.00228848
4.94593e-08
0.0209193
-0.00138875
0.00129662
-1.02328e-07
3.17908e-08
-6.12263e-08
3.17517e-08
0.0221167
-3.40851e-06
-2.59778e-07
7.08307e-08
-6.77679e-05
-1.6071e-08
5.1562e-08
0.0158433
-3.53627e-06
-5.87601e-08
2.91622e-08
-1.10071e-07
1.38738e-08
0.036192
0.00136442
0.00140425
0.00300091
-1.69611e-06
-0.000202571
6.35988e-08
-1.40604e-06
1.26872e-08
1.56545e-08
2.45455e-08
-0.00103776
-8.44005e-08
-6.12541e-08
0.000800124
0.000854225
1.86068e-05
-2.90445e-06
-9.03261e-08
4.17353e-08
-0.000179447
0.00112781
0.0136153
0.000850132
1.7524e-06
0.000975389
3.51232e-06
-0.000283243
-1.50487e-07
1.67226e-07
9.27367e-08
-9.12953e-08
3.7924e-07
-8.54943e-09
0.0111664
3.06942e-08
-6.22769e-08
-3.73547e-08
-0.0044139
-1.07763e-07
3.53331e-08
4.20006e-08
-9.97968e-09
7.21447e-07
1.39796e-06
-0.000301804
1.52607e-07
-0.00239924
2.78715e-08
6.41527e-08
-8.05131e-07
-3.5711e-08
3.73575e-08
0.00446199
-1.22548e-07
-0.00325974
-4.03857e-09
-0.000378675
2.28205e-07
4.39609e-08
-2.29557e-09
4.73224e-08
0.00141347
-0.00346522
0.000483657
2.34532e-08
-6.17596e-10
9.33759e-09
-0.00354678
-6.77337e-08
2.84633e-09
-0.00015601
7.77007e-08
-6.50863e-08
-0.00191352
4.38494e-08
5.00985e-09
4.01974e-09
1.11753e-07
4.62632e-08
9.42366e-08
3.50164e-08
5.30661e-08
-1.76628e-06
5.29969e-08
3.40462e-08
0.00109428
1.11026e-07
-0.00389654
0.00100858
-2.14405e-08
0.00247455
-0.00343166
-5.20994e-08
-1.20505e-07
1.36288e-08
5.18851e-08
-0.0005058
-1.05456e-07
-0.00785351
-5.78802e-08
-3.27944e-06
6.83515e-08
-4.73534e-08
1.3463e-08
0.0100058
-1.37188e-07
0.00076016
9.26134e-08
-5.54e-07
2.03663e-07
3.31073e-08
-9.08103e-09
-1.15914e-07
1.64005e-08
-0.0052203
-2.02799e-09
-6.82356e-08
-7.50589e-10
-2.07899e-07
-9.78414e-09
-5.00423e-06
-7.79796e-08
-1.64492e-06
0.00590678
1.15202e-07
2.16206e-07
3.79275e-08
-0.00371289
2.03583e-08
-5.7006e-11
1.41972e-07
0.00264705
-0.00109122
-8.75037e-09
5.0445e-08
1.13771e-08
1.78181e-08
1.13775e-07
-0.00279409
1.78156e-07
8.85745e-09
5.45318e-05
1.49879e-08
5.60298e-09
-1.0255e-07
-0.00307248
4.15669e-08
-0.00114709
0.0195707
-8.76151e-07
-0.000922145
1.42596e-07
-0.00366039
-0.000621078
2.0898e-08
2.07142e-07
8.83444e-08
1.11575e-07
-4.97464e-08
0.000333026
-9.14674e-07
8.68408e-05
-4.85782e-06
9.32254e-08
-0.00741481
1.75524e-08
0.0124022
2.26108e-09
0.000985682
0.00872277
1.68267e-08
-1.43818e-08
-2.94851e-09
1.25673e-07
-7.77672e-07
4.14801e-09
-0.000862314
1.58123e-07
2.03186e-07
1.12282e-07
-7.36385e-08
3.04477e-08
-0.00248636
2.85073e-09
-1.08968e-05
-1.08219e-07
0.000184555
1.72864e-08
1.07226e-07
0.0127682
5.30356e-08
3.64552e-08
-3.05952e-08
2.36227e-08
-2.94448e-07
-8.25063e-06
-6.76419e-08
2.43008e-08
1.30139e-07
1.57943e-08
-6.58499e-08
0.00172253
3.84463e-08
-3.5824e-09
0.00340841
-6.79888e-06
2.44707e-08
-3.25697e-07
1.92579e-08
2.99072e-09
-1.63982e-05
-2.41523e-05
-3.78436e-07
5.06984e-09
2.027e-08
-4.82314e-08
-1.90755e-06
-7.31517e-08
4.44843e-07
9.601e-08
-5.0396e-08
3.29837e-08
8.92144e-08
0.00820165
1.89394e-08
0.00110369
1.55398e-05
-6.5379e-08
-3.88315e-09
0.0137045
0.0015172
2.09596e-08
-2.85091e-08
0.00309849
-7.32523e-08
-6.08976e-07
5.58105e-07
-0.000289168
2.10629e-08
-8.40406e-09
1.84761e-08
-3.02579e-08
-0.00366637
8.04212e-07
-4.96908e-08
-3.22776e-08
2.95234e-08
1.00347e-08
-2.30361e-06
1.77966e-08
-3.12277e-07
-8.13356e-08
4.8734e-08
3.03056e-08
8.77214e-08
1.02338e-05
-1.56916e-08
0.00352416
-7.86703e-07
8.22882e-08
8.26812e-08
2.00886e-09
9.87963e-08
0.00262241
1.08425e-09
-2.45083e-06
1.6972e-08
4.69172e-08
2.10935e-08
0.003362
3.75947e-08
1.61314e-08
1.15698e-07
-1.1995e-07
9.06498e-08
1.00041e-07
-0.00328099
4.01065e-07
2.80031e-08
5.65938e-06
-0.000770233
-6.04948e-08
1.10622e-07
-0.00168414
7.70209e-08
-8.85111e-08
0.000657904
4.98264e-08
-0.000976827
1.49822e-07
1.01871e-10
-1.57053e-06
-4.49313e-08
6.10594e-08
6.66566e-08
0.00528597
7.12643e-08
0.00530258
-0.00106583
-0.000911922
4.32774e-07
1.1434e-08
0.0182923
-5.46117e-10
-2.99312e-05
-1.56752e-08
-6.11344e-07
-4.89177e-08
-1.21693e-06
1.02654e-09
-0.00386373
1.21133e-07
5.64508e-09
-0.00016669
-0.00143502
1.44309e-08
0.00727624
3.38176e-09
-4.29217e-08
-1.48307e-08
0.000642087
-0.000110588
-3.94264e-08
-2.67942e-09
0.00227661
4.60105e-07
2.78788e-08
-5.99409e-08
-1.27638e-08
3.2598e-08
8.49769e-09
-6.42337e-08
0.000899248
-0.00410996
-6.37738e-08
-1.30399e-06
1.52306e-07
-6.74536e-07
-2.61842e-09
0.000632016
0.00137875
0.00119604
7.87913e-09
0.00204596
0.00140086
-7.54337e-08
1.20826e-07
9.57341e-08
4.76052e-07
-0.00110217
8.51174e-08
1.20856e-08
3.12468e-08
1.33197e-07
9.42662e-09
-3.1876e-08
3.29627e-05
-3.56748e-08
1.19334e-06
9.26165e-08
-1.13854e-08
3.42506e-08
1.39328e-08
-5.86972e-07
0.00273321
3.66709e-08
-2.01503e-07
1.8072e-08
-0.00392676
-5.41047e-08
-7.25679e-08
-0.00194502
-0.00048964
4.93068e-07
-0.00243012
1.33997e-06
3.07043e-09
4.81834e-08
5.20753e-08
9.31252e-08
4.14537e-09
5.97545e-09
-3.75005e-06
-1.81703e-06
-0.00132191
-3.37687e-06
1.41173e-07
-0.00478445
1.26262e-07
-4.24309e-08
1.38309e-07
0.00265406
0.00361487
-0.0040922
3.75463e-08
3.58175e-08
-0.00178464
0.00135855
1.27776e-08
0.0149382
1.52096e-08
5.26515e-08
3.87613e-08
-5.00287e-08
2.08722e-08
-6.07241e-08
-1.51859e-05
-5.92602e-08
2.24439e-08
9.04657e-09
-8.37394e-09
2.23962e-08
3.50071e-08
3.19946e-08
2.03814e-09
9.82117e-10
-0.00268354
-0.00252594
0.00139953
-8.82021e-08
-0.0138382
-1.85417e-07
-0.00184999
-0.0139062
-1.63687e-07
1.55512e-08
4.74894e-08
1.01781e-06
-4.98454e-08
0.0224899
-0.00146233
-6.93976e-08
3.44413e-08
3.42306e-07
-0.00152769
-3.5489e-08
0.0038789
6.68817e-08
1.49738e-08
-0.00103914
5.39433e-08
-7.71726e-08
1.20454e-08
-0.000321547
3.80173e-08
8.26749e-08
3.33213e-06
1.72266e-09
-3.63584e-09
2.6418e-08
3.04531e-08
-8.79067e-07
1.09185e-07
0.000647231
1.38278e-09
3.59934e-09
5.13005e-08
0.00136406
1.69807e-08
-9.79377e-11
0.00262454
8.82167e-09
4.07676e-08
-4.83051e-06
2.39767e-05
7.51958e-08
0.00272629
-0.00396785
6.38434e-08
-0.00245463
1.50654e-08
-1.15757e-08
-1.37052e-06
-4.89494e-09
0.00148566
-0.00129442
3.98945e-08
2.88837e-07
9.67378e-08
0.000593874
0.00306724
-2.36503e-07
1.54466e-08
-0.000383165
-5.23912e-08
-2.94433e-07
5.60209e-08
2.65621e-08
1.3516e-07
1.12458e-07
4.72918e-08
0.0017305
4.91663e-08
4.54169e-08
-4.69838e-08
-0.000528249
-1.69142e-06
0.00393116
2.4179e-08
-8.56067e-08
-2.61722e-08
6.15893e-08
2.21798e-08
3.01393e-08
1.58912e-08
4.39757e-08
1.35149e-08
1.09336e-08
1.89015e-07
-7.23483e-08
5.72459e-08
2.96402e-08
0.000752438
0.000530974
8.23581e-08
1.30449e-07
0.00577063
7.53162e-09
-3.63062e-06
-0.000662013
3.45247e-05
-0.00201208
-0.000427211
-0.002801
0.00990883
-0.00086685
5.19782e-08
1.04459e-07
9.47201e-08
3.6901e-08
4.82985e-08
5.60308e-09
-3.86827e-08
-0.000846319
3.97772e-10
-5.28705e-08
0.00271435
1.43481e-08
-9.54332e-09
8.83085e-08
2.73625e-08
5.61064e-08
5.31029e-08
1.02221e-07
-0.000346968
0.000843485
-5.73224e-09
8.73001e-08
-1.66867e-09
-1.15644e-07
-9.5889e-08
-1.04296e-07
-0.0310829
2.21247e-06
1.11856e-08
0.00248808
1.28403e-07
6.95489e-08
0.000563349
1.3332e-08
4.62151e-07
3.65499e-08
-1.00203e-07
-9.69269e-08
0.00146815
1.1294e-07
3.92731e-09
1.69737e-07
3.63892e-08
1.10424e-07
6.01141e-08
-0.00857904
4.53751e-08
-5.98329e-07
0.00308051
-0.00446729
-3.45132e-06
1.40065e-07
0.0193725
5.3496e-08
-1.27114e-08
1.58098e-07
-0.0023843
3.20441e-07
2.73978e-08
-0.00182887
1.54016e-09
-0.00583589
8.26816e-06
-0.000595465
-1.60246e-08
-1.16247e-07
1.01877e-07
2.72724e-07
1.34302e-07
-0.000189189
-0.00471089
-7.27526e-10
7.87455e-08
-3.54666e-08
-2.05658e-08
0.000186407
2.219e-08
3.33291e-07
-5.63246e-07
9.01582e-09
7.04454e-08
-3.42614e-10
5.28594e-09
-2.83315e-08
1.86046e-08
1.02389e-07
2.43569e-08
1.46328e-08
-2.73291e-09
-9.20969e-08
2.5943e-08
0.000433201
-0.00211224
-7.78562e-08
-5.49894e-09
3.66055e-08
-3.63942e-08
-1.26092e-07
1.31019e-08
-0.000607511
-2.49409e-08
2.75858e-08
3.21147e-08
0.00305879
-0.0017931
1.20662e-08
-9.38691e-06
-7.22125e-09
-3.13157e-08
0.000838439
3.4246e-08
1.08024e-07
5.72476e-09
-0.000348154
-0.00453847
5.13862e-09
3.49202e-08
-0.00204845
3.1002e-08
-0.0155268
3.6587e-09
-9.60625e-08
-0.00297606
-0.00899058
1.21299e-07
-3.31302e-08
-1.19287e-07
-2.28454e-08
1.50088e-07
-0.00205722
-0.0019687
0.0166853
1.3895e-07
-8.05143e-08
-7.45364e-07
5.13274e-08
9.12405e-06
-7.14702e-08
-0.00141659
4.38855e-08
9.6144e-09
2.75082e-08
6.64443e-08
3.09875e-08
-1.74203e-06
-0.00937517
-8.83517e-08
-1.18188e-09
1.41006e-08
0.000656869
-1.28637e-07
-8.1259e-08
1.22803e-08
5.3163e-08
0.000738309
3.36884e-08
-5.68195e-08
-1.07638e-07
-8.09717e-07
5.41525e-10
-9.89129e-08
3.40931e-08
-1.25622e-07
-3.58115e-06
-1.80882e-09
-0.00839275
-6.2981e-05
1.27757e-07
0.00179709
2.87273e-08
3.09257e-08
-8.8626e-08
0.00153975
-5.42725e-08
0.00204863
3.17598e-08
-0.00212788
6.15508e-08
9.65545e-08
8.95589e-08
-3.45249e-08
-0.00236359
-8.77812e-08
1.17389e-07
8.9601e-06
-3.37682e-06
1.62151e-08
8.8713e-09
6.06664e-09
1.58419e-07
-0.00249566
-2.27396e-07
1.08739e-08
-4.09123e-06
6.66256e-08
0.00113685
7.5259e-08
0.00225967
1.34703e-07
0.00132153
-0.000493245
2.36642e-07
5.30687e-08
-1.80741e-08
2.64073e-08
-0.00458563
7.40075e-08
-4.3085e-07
-0.0137249
2.92065e-08
-0.00164477
-1.26474e-07
4.93194e-08
-1.04193e-06
1.37509e-08
6.44552e-08
0.00139707
0.000147026
-0.00219827
1.13748e-07
3.18995e-08
-1.07311e-07
1.80087e-07
6.03754e-08
4.49383e-08
2.36402e-05
-9.94113e-07
0.00839878
7.87396e-08
-5.48266e-08
0.00085347
1.44207e-05
-1.70093e-07
-3.01249e-09
0.00088975
-1.14355e-07
-0.00264048
1.06146e-07
2.11551e-09
-2.26452e-08
-1.62688e-08
3.0869e-08
8.03905e-08
3.65317e-08
-1.21798e-07
-0.0115592
2.39173e-08
-0.0026492
-9.61666e-08
7.33284e-09
1.63229e-08
8.78888e-06
-4.21792e-09
9.18241e-08
-3.04296e-09
0.00113323
0.000221807
3.81496e-08
1.67946e-07
9.53902e-08
-7.6467e-09
-8.14516e-10
-2.44864e-09
1.08597e-07
-0.000327235
4.10016e-08
-4.19134e-08
1.06166e-07
6.21695e-08
0.00581467
-1.84381e-06
-1.3748e-06
-1.54549e-06
1.91498e-07
3.69208e-10
0.00680918
-8.66612e-08
-6.95069e-07
4.08594e-07
1.25947e-08
3.11656e-08
1.39542e-08
0.00274757
3.20311e-09
2.7978e-08
-0.00416249
-1.2903e-07
0.0012906
3.76906e-08
-1.82425e-06
1.27156e-06
-8.55725e-08
0.0137913
2.19102e-08
-7.97658e-09
2.26611e-09
1.73253e-07
7.18533e-09
-0.000475482
-3.07614e-08
-9.10679e-08
0.000732382
-2.52477e-06
-2.26006e-08
-8.85728e-05
-3.08019e-08
-0.00167762
-5.83637e-08
1.82386e-07
1.70059e-07
0.00568853
1.06476e-08
4.28588e-08
0.00282504
3.50763e-08
5.41563e-08
1.34899e-08
-2.03809e-07
-0.00202985
-0.0127304
-6.89781e-08
-1.21314e-06
-2.67751e-08
-9.07265e-06
-9.56755e-09
-9.84805e-08
-8.82715e-07
0.000629512
-2.04406e-08
-2.03152e-08
-9.4874e-08
0.000248599
7.69657e-08
-1.74131e-06
-0.00155976
-1.915e-08
0.00758635
5.95603e-08
9.66783e-07
5.56626e-08
8.70597e-08
0.00358005
-1.1647e-09
1.01843e-08
4.54045e-05
-0.00176426
-0.00342736
5.58034e-09
0.00398481
0.000256985
4.48108e-08
-1.10884e-06
-0.000781743
-1.03154e-10
1.42851e-07
0.0130851
3.69104e-08
-9.91322e-08
3.00802e-08
2.28133e-08
-1.42641e-06
-6.75126e-07
4.01462e-07
-0.00255934
6.56007e-11
2.11752e-06
-6.89913e-08
1.84135e-08
-2.98975e-09
4.46808e-07
-6.9945e-08
6.04723e-09
-0.00474846
0.00125869
-0.00190651
-3.71983e-09
2.88033e-08
1.67617e-08
-0.00172076
2.08198e-08
3.75008e-08
-0.010212
0.000527926
2.36832e-07
3.33989e-08
6.49203e-05
-0.000152699
-0.000275577
-3.49561e-08
1.2209e-08
5.53376e-08
-0.00161
3.84958e-08