/*--------------------------------*- C++ -*----------------------------------*\
| =========                 |                                                 |
| \\      /  F ield         | OpenFOAM: The Open Source CFD Toolbox           |
|  \\    /   O peration     | Version:  v2012                                 |
|   \\  /    A nd           | Website:  www.openfoam.com                      |
|    \\/     M anipulation  |                                                 |
\*---------------------------------------------------------------------------*/
FoamFile
{
    version     2.0;
    format      ascii;
    class       volVectorField;
    location    "100";
    object      U;
}
// * * * * * * * * * * * * * * * * * * * * * * * * * * * * * * * * * * * * * //

dimensions      [0 1 -1 0 0 0 0];


internalField   nonuniform List<vector> 
18758
(
(1.10493 -0.307691 0)
(1.27452 -0.00232748 0)
(1.01501 -7.06494e-05 0)
(0.566139 0.0666938 2.51269e-20)
(0.223006 0.0312008 0)
(0.228547 0.0496979 -2.95629e-20)
(-0.231101 -0.00909357 -1.42787e-19)
(1.01231 -0.0047349 -6.90589e-23)
(1.22345 0.0270774 0)
(1.02033 -0.105282 0)
(1.05808 -0.0381369 1.48977e-20)
(0.177297 -0.0500869 1.48714e-20)
(1.00222 -0.000338153 -5.75009e-22)
(1.12877 0.165342 0)
(1.0444 0.0134108 -6.54416e-21)
(0.594474 -0.512009 -7.041e-20)
(1.11484 0.0273843 -3.79085e-20)
(1.00436 -0.00736671 1.81737e-21)
(1.03717 -0.00344193 0)
(1.03051 -0.124735 3.29088e-21)
(-0.0207793 0.0114812 -5.17176e-21)
(1.00004 -0.000805992 0)
(-0.048012 -0.0192657 -8.60353e-20)
(1.22393 0.0487176 1.85228e-20)
(1.33417 -0.113098 -5.03141e-20)
(1.012 -0.00458444 -5.53875e-22)
(0.794359 -0.694906 1.33321e-21)
(0.192306 0.0282909 -5.13308e-20)
(0.937066 0.0252487 5.68527e-20)
(1.08994 -0.716274 1.2438e-19)
(1.12147 0.0833458 -2.84336e-20)
(0.0882359 0.0189517 -3.3679e-20)
(1.00047 -0.000160851 0)
(1.05218 -0.00914612 -1.04225e-20)
(1.17304 0.0954132 2.77106e-20)
(0.999352 -0.00303525 3.20138e-21)
(1.00019 -0.000232368 -3.09101e-21)
(1.03537 -0.0205822 -4.37731e-21)
(1.04198 -0.0232547 0)
(1.12328 0.0234237 -1.00327e-20)
(1.03608 -0.0189771 4.56364e-21)
(0.940813 -0.0816008 1.51131e-20)
(1.02181 -0.0064285 8.38863e-23)
(0.978949 -0.0937875 -6.40857e-22)
(1.21769 -0.512304 6.45053e-21)
(1.01316 -0.00127294 -1.52978e-21)
(-0.0698866 -0.0170706 3.38144e-20)
(1.05253 -0.0522415 -1.41508e-20)
(1.01805 -0.102854 0)
(1.02128 -0.0047758 2.43586e-21)
(1.22513 -0.13122 8.27297e-20)
(0.35223 0.0570563 0)
(1.0155 -0.0015654 1.15887e-21)
(1.05647 -0.036855 6.67369e-21)
(0.160928 0.0253241 5.05122e-20)
(1.27641 -0.216091 0)
(1.00025 -0.000264049 1.55652e-21)
(0.521091 -0.349711 7.03271e-20)
(0.994562 -0.0246599 -9.07438e-21)
(1.13755 0.167928 0)
(1.12231 -0.261942 2.96863e-20)
(-0.21595 -0.0126321 1.61173e-19)
(1.19687 0.0133271 -1.52354e-20)
(0.971584 -0.0475383 -5.37254e-23)
(1.01534 -0.00163572 2.55327e-21)
(0.994339 -0.00549214 1.57677e-21)
(1.12121 0.0299556 0)
(1.00054 -0.000207323 0)
(1.03329 -0.0186673 -5.43697e-21)
(0.334292 0.0571856 -5.29216e-21)
(0.247023 0.0406587 2.34945e-20)
(0.972473 -0.0293397 0)
(1.02165 -0.0050947 -2.25583e-21)
(-0.0263595 -0.0783095 9.60438e-20)
(1.01737 -0.00760626 -3.30321e-21)
(0.996264 -0.0252538 -2.17912e-21)
(1.21889 0.0630647 0)
(0.223842 0.0278859 -6.18092e-21)
(0.911812 -0.333585 1.90004e-20)
(-0.0907097 -0.0291278 0)
(0.0510735 0.00766197 2.15109e-19)
(1.28252 -0.479669 0)
(1.14202 0.165975 -2.97937e-20)
(0.193652 0.0429376 8.61559e-22)
(1.21864 0.0666712 9.10596e-20)
(1.09955 -0.0222701 -1.03406e-20)
(0.54112 -0.193921 -1.02197e-19)
(1.19605 0.0114141 0)
(-0.0669673 -0.0309296 -9.27644e-20)
(0.996851 -0.0258155 0)
(0.153881 0.0394043 -9.83081e-22)
(0.994068 -0.024165 9.28508e-21)
(0.119866 -0.0714407 -8.72583e-20)
(0.938501 -0.0852764 1.5033e-20)
(0.0579278 0.0126151 -1.45935e-19)
(0.0736205 -0.0578379 9.4556e-20)
(1.2166 0.0689278 -8.7538e-20)
(1.01783 -0.00784935 0)
(1.00278 -0.0187386 3.79699e-21)
(0.000206867 0.013624 -3.82338e-20)
(1.042 -0.128009 2.09221e-20)
(0.0986589 0.0332734 -2.80612e-20)
(1.16483 0.0499695 0)
(1.12335 -0.123776 -2.96651e-20)
(0.0627676 0.0137364 0)
(1.10733 -0.686436 -1.0063e-19)
(0.95274 0.0896641 6.8173e-20)
(0.248862 0.032103 0)
(1.04489 -0.0333504 -4.00936e-21)
(0.965054 -0.015495 -1.54786e-21)
(0.147783 -0.072544 -3.23451e-20)
(0.466718 -0.66128 6.61888e-20)
(1.01069 -0.00530677 0)
(1.01091 -0.0362032 -3.5805e-22)
(0.760377 0.048853 -4.71733e-20)
(-0.228791 0.00847848 1.27554e-19)
(-0.149229 0.00848661 -9.84366e-20)
(1.04386 0.0140963 -6.42149e-21)
(0.0283033 -0.0357687 -5.80308e-20)
(0.0271208 0.0150144 9.7999e-20)
(1.12109 -0.0498197 1.71942e-20)
(0.988036 -0.0125101 -5.20628e-21)
(0.639979 -0.0287299 1.76329e-19)
(0.645651 -0.658231 2.44812e-20)
(1.20027 -0.393091 0)
(1.21615 -0.491063 0)
(1.28924 -0.00678635 0)
(1.24145 0.0295651 3.54372e-20)
(0.0641367 -0.0551261 0)
(1.00354 -0.000117355 9.8487e-22)
(1.11679 0.028848 -4.57502e-20)
(0.824267 -0.674418 1.30124e-20)
(-0.0612233 0.00765568 5.3639e-21)
(0.936615 -0.223651 -1.16693e-20)
(0.210178 -0.713563 -9.98391e-21)
(0.971832 -0.0666086 -4.3233e-21)
(1.21707 0.0615436 0)
(1.12599 0.0244527 -3.2955e-20)
(1.0032 -0.0186852 7.49992e-22)
(0.788906 -0.271614 1.98617e-20)
(0.896514 -0.329558 -2.602e-20)
(0.960171 -0.465766 1.66119e-20)
(1.00569 -0.0321352 1.86492e-21)
(1.14999 -0.190538 7.80961e-20)
(1.03686 -0.018676 9.23102e-23)
(1.03868 -0.000916128 5.32577e-21)
(-0.0851231 0.00714841 3.18586e-20)
(0.186557 0.00873553 -4.61353e-20)
(1.11796 0.0837809 2.15824e-20)
(0.672098 0.0494612 0)
(1.29315 -0.464244 -6.81767e-20)
(1.14299 0.102419 -7.6141e-20)
(1.09956 -0.0270797 -4.03303e-20)
(0.999953 -0.000739432 0)
(-0.0680871 0.00424046 0)
(1.08974 -0.0422351 -3.50281e-20)
(-0.00974438 -0.0358966 3.0769e-20)
(1.05189 -0.0541514 2.17313e-20)
(0.992669 -0.0388888 6.31168e-21)
(1 -0.000299671 3.76954e-21)
(1.01151 -0.0132671 0)
(1.14738 0.159965 -3.11534e-20)
(0.163245 -0.101119 0)
(0.993897 -0.0386178 -4.60166e-22)
(1.12325 -0.256977 -2.90127e-20)
(0.850002 0.0346174 -3.22048e-20)
(1.03864 -0.00511462 1.00665e-20)
(0.547268 -0.0519709 0)
(1.22644 -0.244907 6.84489e-20)
(0.261289 0.0482454 6.15163e-20)
(-0.151272 0.020108 0)
(1.00429 -0.0075484 -1.13302e-21)
(0.176792 -0.0925579 0)
(0.199356 0.0281379 -2.29043e-20)
(1.14965 0.157203 -3.26291e-20)
(1.24123 0.0500366 4.47774e-21)
(0.747413 0.0466236 5.41824e-20)
(0.97063 -0.0491388 -8.80566e-21)
(0.803657 -0.269186 0)
(1.03278 -0.0297088 0)
(1.00913 -0.00517078 -3.9229e-23)
(-0.187858 0.00205846 -6.67855e-20)
(1.17882 0.101936 7.49125e-20)
(1.02617 -0.00434645 -7.57469e-21)
(1.06906 0.00770812 0)
(1.23486 0.0979444 -2.95203e-20)
(0.998116 -0.020086 2.70705e-21)
(-0.215545 0.0108637 -1.10875e-19)
(1.0206 -0.00565535 -4.1409e-21)
(0.995992 -0.018028 -7.89706e-22)
(0.943206 -0.227861 1.35301e-20)
(1.23834 0.0287824 -3.18793e-20)
(1.01364 -0.0480409 6.74828e-22)
(1.11625 0.0806682 -6.65487e-21)
(0.979164 -0.15357 -1.39644e-21)
(1.19864 0.00854764 0)
(1.03385 -0.12732 0)
(1.23605 -0.24358 -5.94693e-20)
(1.00077 -0.0025756 0)
(1.02148 -0.00607117 2.4052e-21)
(0.754928 -0.221702 0)
(1.04975 -0.0542371 -1.1371e-20)
(1.0775 -0.128586 0)
(1.18198 -0.00281554 0)
(1.00223 -0.000512022 6.30011e-22)
(0.981057 -0.149667 2.6394e-21)
(1.17071 0.0444602 -2.954e-21)
(0.99996 -0.000572044 0)
(-0.00561195 0.011218 -1.97135e-20)
(1.01394 -0.103931 0)
(1.00477 -0.00742985 3.52873e-21)
(1.12759 -0.12679 -1.64825e-20)
(0.995241 -0.0408517 1.03085e-20)
(1.08544 -0.117474 0)
(0.869194 -0.299783 0)
(0.0582249 -0.00673481 2.22936e-19)
(0.866835 -0.312561 0)
(0.536999 -0.456248 1.21272e-19)
(1.01565 -0.00424045 -2.63053e-21)
(0.248256 0.0506378 7.26204e-21)
(1.00465 -0.00760684 -2.82104e-21)
(1.04464 -0.034751 0)
(1.20801 0.0828106 3.30444e-20)
(-0.0669965 0.00793171 0)
(1.26812 -0.153444 -1.06681e-20)
(1.1678 0.0454715 1.71961e-20)
(1.1613 -0.0542509 -4.14196e-21)
(0.990703 -0.214266 2.51473e-22)
(1.0253 -0.00186726 0)
(1.18458 -0.00798888 -2.67098e-20)
(0.994041 -0.00571264 -5.34084e-21)
(1.19795 0.00652532 0)
(-0.0719906 -0.0144698 -3.83309e-21)
(1.21899 0.0725895 4.8601e-20)
(1.00206 -0.000261509 -6.82987e-22)
(0.997904 -0.019427 -1.04132e-20)
(1.02513 -0.00214906 0)
(1.01269 -0.00151685 0)
(0.723672 -0.0464522 -1.52852e-19)
(1.10148 -0.0947628 0)
(1.00939 -0.013265 1.25724e-21)
(1.2987 -0.259071 1.24541e-20)
(0.930843 0.09087 -4.34465e-20)
(1.0562 -0.0200111 1.42105e-20)
(0.721731 0.055191 0)
(-0.0181894 -0.0218856 1.01756e-21)
(1.21715 0.0746368 -4.75419e-20)
(0.999438 -0.00287522 2.63525e-21)
(0.052499 0.0108315 0)
(0.898323 -0.0822137 4.30581e-22)
(0.999224 -0.00356871 -9.6568e-22)
(0.488748 -0.0398896 -6.56727e-20)
(1.10084 -0.020735 -6.66363e-21)
(0.898475 -0.0881331 -6.92446e-20)
(1.04273 0.00779042 1.36501e-20)
(1.12816 -0.0538081 -5.00122e-20)
(1.24312 0.063892 0)
(0.498287 -0.448575 9.59378e-20)
(1.08141 -0.116469 0)
(0.939105 -0.326005 5.97696e-21)
(1.02808 0.0035945 0)
(1.15796 0.0369447 3.43632e-20)
(0.999754 -0.00796259 -8.05584e-22)
(1.17978 -0.00133903 0)
(1.01183 -0.101051 0)
(1.20709 0.0852449 -3.71933e-20)
(-0.312555 0.000784807 -1.93813e-20)
(1.01536 -0.00411495 2.27612e-21)
(1.04403 -0.03106 3.84637e-21)
(1.05294 -0.487233 0)
(1.04287 -0.0301764 -3.79109e-21)
(1.06797 0.00676926 1.11374e-20)
(1.18151 -0.00662338 5.09879e-20)
(0.729423 0.0234808 1.21329e-19)
(-0.165204 0.0065861 1.1488e-19)
(1.00376 -0.0313095 -4.69973e-21)
(1.21569 -0.119873 -3.51596e-20)
(0.0612503 -0.0364434 0)
(1.25913 -0.479438 0)
(1.0115 -0.0528215 -8.94951e-22)
(1.03002 -0.00733165 2.64074e-21)
(1.08226 -0.0717996 1.14021e-20)
(1.10388 -0.0927539 0)
(1.00544 -0.0314962 -9.94805e-22)
(0.0831725 -0.0593725 -3.80878e-20)
(1.2885 -0.252928 8.24074e-20)
(1.02905 0.216551 2.72289e-20)
(-0.0663596 0.00689834 4.90821e-20)
(-0.0464496 -0.0185243 -2.84582e-20)
(1.02455 -0.00421329 0)
(1.01508 -3.46956e-05 0)
(0.995805 -0.231544 0)
(0.127174 -0.00882358 3.24605e-21)
(0.923226 -0.0477032 -1.02844e-20)
(0.923951 -0.32271 -3.65665e-21)
(1.20244 -0.018845 -5.31645e-20)
(1.07694 -0.0781678 8.44137e-21)
(0.0178257 0.00938227 -1.18135e-19)
(1.0364 -0.00380695 -9.17239e-21)
(1.16761 0.221947 0)
(0.212068 0.0447458 0)
(1.01296 -0.00131313 0)
(0.39144 0.0752074 -1.00233e-20)
(0.967434 -0.172579 0)
(1.03421 -0.0190277 1.17093e-20)
(1.07337 -0.109578 1.72028e-20)
(1.19195 -0.0536711 5.56572e-20)
(1.04881 0.00567228 -5.8152e-21)
(0.999247 -0.00344679 0)
(-0.269487 -0.00742458 -1.90615e-20)
(1.07084 0.227517 -2.09848e-20)
(1.00231 -0.0137235 -2.8715e-21)
(-0.276439 -0.00379066 1.84609e-19)
(0.0229356 0.0120007 5.23236e-20)
(1.26202 -0.150403 -3.01379e-20)
(0.998354 -0.00836816 0)
(1.00225 -7.6862e-05 -1.70761e-21)
(1.15011 0.173474 0)
(1.05527 -0.0209151 -2.47427e-20)
(1.02558 -0.0044 5.36906e-21)
(1.03071 -0.00878188 3.8679e-21)
(0.94714 -0.0183844 0)
(1.22407 -0.254117 6.55958e-20)
(1.19502 -0.0560732 -6.00723e-20)
(1.08029 -0.0731315 -1.98988e-20)
(1.09766 -0.0936566 8.73447e-21)
(1.02631 -0.126955 4.97487e-21)
(0.952464 -0.228184 0)
(1.02774 0.00313361 0)
(0.999992 -0.000603509 0)
(1.24117 0.0313604 0)
(1.08 -0.206203 -2.69067e-20)
(1.22178 -0.119488 4.61981e-20)
(0.569351 0.0670408 -2.89287e-20)
(0.920005 -0.0499692 1.20161e-20)
(1.01423 -0.0465622 -3.94025e-22)
(1.00557 -0.000153717 0)
(1.16673 0.224467 2.37718e-20)
(0.44188 0.0826408 -2.72373e-20)
(1.0256 -0.0026227 0)
(1.00519 -0.00748234 -2.318e-21)
(1.0254 -0.00292546 3.79556e-21)
(0.971216 -0.0645458 4.40144e-21)
(0.987621 -0.206607 -2.98588e-21)
(1.31907 -0.112709 -1.00216e-19)
(0.988571 -0.0121838 2.60803e-21)
(0.969119 -0.0151229 0)
(1.02212 -0.00413097 0)
(0.607705 -0.560208 0)
(0.961207 -0.453687 0)
(1.22532 -0.0187197 -2.63375e-20)
(1.14896 -0.306791 0)
(1.0532 -0.00246368 1.10773e-20)
(1.23701 0.0258248 0)
(1.09305 -0.306889 2.3412e-20)
(1.11278 -0.0749379 1.74015e-20)
(0.89215 -0.0973237 1.97988e-20)
(0.123335 -0.0454 -1.10672e-19)
(-0.0449847 0.00678536 -7.25002e-20)
(1.20599 0.0960552 6.18766e-20)
(1.00216 -0.00241079 7.69068e-22)
(1.03699 -0.135684 -1.96107e-21)
(1.30012 -0.0368096 0)
(0.661757 0.0326052 -1.3657e-19)
(1.02398 -0.082659 -6.1622e-22)
(1.02447 -0.0046245 -3.33787e-21)
(1.16033 -0.0280852 1.03338e-20)
(1.03795 -0.00884921 -5.13154e-21)
(1.09953 -0.0103229 1.36312e-20)
(1.19216 0.00908109 5.25238e-20)
(0.480807 0.0110705 5.57661e-20)
(1.14372 0.118895 -4.99405e-20)
(1.02279 -0.124002 -2.28521e-21)
(-0.298164 0.00166201 6.7468e-20)
(0.989764 -0.0260285 1.31521e-21)
(1.04913 -0.0560187 1.23653e-20)
(1.00378 -0.0247864 -2.10163e-21)
(1.04218 -0.0243522 -6.25753e-21)
(1.162 0.0902949 4.91426e-20)
(1.06297 -0.0387327 8.45901e-21)
(-0.261207 -0.00792663 -1.74277e-19)
(0.917129 -0.47605 -1.71067e-21)
(1.04221 0.00721433 0)
(1.0021 -0.0132728 2.69646e-21)
(-0.156217 0.0121152 0)
(1.14368 0.115739 4.39182e-20)
(1.22237 0.0287251 0)
(0.989406 -0.0253673 6.81692e-22)
(1.11148 0.0660952 1.97081e-20)
(1.02933 -0.00744975 -1.26902e-21)
(0.940639 -0.0741483 0)
(0.987994 -0.0129863 4.42652e-21)
(1.01507 -0.00424144 0)
(-0.128096 0.00660171 2.60715e-20)
(0.00374758 0.0116033 -4.8188e-20)
(1.04869 -0.781904 4.82477e-20)
(0.382425 -0.140547 2.78336e-20)
(1.00567 -0.000445817 1.98664e-22)
(1.21634 0.0509685 2.49219e-20)
(0.0994598 0.0267108 0)
(1.13008 -0.0558103 2.60162e-20)
(1.01096 -0.00553959 3.97468e-22)
(0.599203 0.085184 2.37956e-20)
(1.0292 -0.011275 -5.81925e-21)
(1.03934 0.00114698 5.83581e-21)
(1.00935 -0.00547161 -3.51325e-23)
(1.16455 0.0923449 6.33252e-20)
(0.991 -0.0138045 0)
(0.975334 -0.0927383 1.63701e-20)
(1.14479 -0.296659 0)
(0.655012 -0.0167849 -9.66144e-20)
(1.03023 -0.00844564 0)
(0.206483 0.030993 1.26102e-20)
(1.13732 0.00106043 0)
(0.998566 -0.00818684 0)
(1.07647 -0.00204706 2.11363e-20)
(0.99296 -0.0256787 0)
(1.00508 -0.0076747 1.68083e-21)
(1.07472 -0.0759018 -1.91022e-20)
(1.15506 0.029163 4.16362e-20)
(0.958913 -0.223993 8.87264e-21)
(0.102148 0.0485517 -2.14723e-19)
(1.12426 -0.0499382 -2.63764e-20)
(0.996573 -0.00531135 5.80351e-21)
(1.03289 -0.478885 -1.99072e-20)
(0.671444 0.0864708 5.672e-21)
(0.777168 0.151831 3.1995e-21)
(-0.159766 0.0187726 -9.38109e-20)
(1.15397 0.0979507 0)
(1.00882 -0.0515877 -1.67764e-21)
(1.0148 -0.00409634 -5.61323e-22)
(1.0092 -0.0128887 -1.48532e-21)
(0.994333 -0.0417921 -1.33159e-20)
(1.13957 0.121871 0)
(1.12333 0.0141254 0)
(1.09068 0.0267737 3.78226e-21)
(0.967443 -0.165919 8.11253e-22)
(1.10096 -0.0253825 4.5989e-20)
(1.20831 0.125622 0)
(1.16765 0.0489798 6.67063e-21)
(0.992836 -0.0247709 5.55846e-21)
(1.095 -0.0916392 -2.00734e-20)
(-0.0680405 -0.0349371 9.09035e-20)
(0.990924 -0.0562639 -6.24434e-21)
(0.512413 0.0347998 0)
(1.0035 -0.000108206 0)
(0.996768 -0.00147187 1.16754e-22)
(0.247933 -0.007453 -2.02162e-20)
(0.951895 -0.102715 0)
(1.04472 -0.0270477 4.1434e-21)
(1.24293 0.067033 5.71701e-20)
(1.17594 0.0928823 -2.82618e-20)
(0.999907 -0.2263 -7.89229e-22)
(0.0569935 -0.060822 6.63656e-20)
(0.995537 -0.0253976 5.82336e-21)
(0.989047 -0.0518014 0)
(0.545329 -0.504691 -4.97598e-20)
(0.117838 -0.0410539 -1.22465e-19)
(0.870796 -0.128669 0)
(1.16198 -0.154605 0)
(1.12707 0.169955 0)
(1.23116 0.126327 0)
(-0.212609 0.0053522 1.31654e-19)
(1.1332 0.164264 2.17631e-20)
(0.971804 -0.0279823 -6.94039e-22)
(1.22384 -0.0593619 0)
(1.00992 -0.0366127 0)
(1.13976 0.124844 0)
(1.04207 -0.0490738 4.52168e-21)
(0.116506 -0.0648683 0)
(1.10875 0.0661916 -1.91587e-20)
(1.31595 -0.0417493 5.10252e-20)
(1.09064 0.0253764 0)
(1.12427 0.0920024 4.70619e-20)
(1.01291 -0.00150481 0)
(1.23162 0.0470366 4.06715e-20)
(1.02142 -0.00541419 -2.39077e-22)
(-0.0644479 0.00597388 9.73624e-20)
(1.00351 -0.0253967 0)
(1.15991 -0.396312 0)
(0.999672 -0.00687426 2.87467e-21)
(1.12832 0.19524 -3.17928e-21)
(1.10181 -0.00953759 -1.34505e-20)
(1.00024 -0.00597985 -6.40387e-21)
(1.00243 -0.0181237 -1.71994e-21)
(1.0097 -0.00543138 -7.02949e-23)
(0.818779 0.1039 3.50612e-20)
(-0.103364 0.00548848 -1.09661e-19)
(0.789234 0.047712 -5.64016e-20)
(1.11802 0.0339908 -6.05296e-20)
(1.06532 0.00669048 0)
(1.1938 -0.049322 -6.44097e-20)
(1.00002 -0.000569925 2.30196e-21)
(1.00004 -0.000290612 7.54409e-21)
(0.345186 0.0539205 4.51474e-20)
(1.00203 -0.0182486 1.83869e-21)
(0.996158 -0.0026263 8.28475e-23)
(1.20504 -0.0210895 7.17742e-20)
(1.00227 -0.00234903 5.40662e-22)
(1.15633 -0.156208 0)
(1.19141 -0.0465885 5.67596e-20)
(0.995944 -0.00244586 0)
(0.991232 -0.0144878 2.23421e-21)
(0.937891 -0.0938951 2.58092e-20)
(0.990743 -0.0544765 6.8921e-21)
(1.09225 -0.0430388 2.26931e-20)
(0.728628 0.0521207 -2.00265e-20)
(1.06255 0.0448587 0)
(0.878698 -0.128598 0)
(1.05019 -0.0846037 0)
(0.996732 -0.00514083 0)
(0.395311 -0.754838 0)
(0.966158 -0.0201085 0)
(1.04281 -0.0361417 7.22863e-21)
(0.8582 -0.78086 5.37183e-20)
(-0.211733 0.00684831 -2.61454e-20)
(1.12188 0.0896642 0)
(1.09442 0.159625 -8.4967e-21)
(1.02317 -0.0847858 -2.03658e-21)
(1.04301 -0.0350923 0)
(-0.188007 0.0105894 -2.27143e-20)
(1.03788 -0.00466844 -4.86104e-21)
(-0.143595 0.00763826 0)
(1.14635 -0.389484 -2.69354e-20)
(0.999969 -0.0061774 -6.29001e-21)
(0.689222 0.0554774 0)
(1.24002 0.0266673 2.03845e-20)
(1.16169 -0.0250187 1.16966e-20)
(1.00864 -0.000446672 -4.16696e-22)
(1.0789 -0.199398 0)
(0.401578 0.0677465 0)
(1.03617 -0.0202089 0)
(1.0306 -0.0175553 1.28469e-20)
(1.04547 0.0135951 5.28692e-21)
(1.04878 0.00480655 6.16534e-21)
(1.03929 -0.00113074 0)
(1.01193 -0.000741407 0)
(1.00002 -0.000139102 -7.9142e-21)
(0.78165 -0.027046 0)
(1.07534 -0.0304519 -2.51909e-20)
(0.839537 0.0343579 -7.06089e-20)
(0.987791 -0.01044 -1.11293e-20)
(1.23133 -0.0642533 -4.67744e-20)
(1.24121 0.00211548 0)
(0.999647 -0.00775151 1.81354e-21)
(1.0209 -0.00602595 4.158e-21)
(1.07324 -0.0347076 -2.44702e-20)
(1.00103 -0.00275618 0)
(1.01239 -0.0541957 -3.52412e-22)
(0.952941 -0.0409993 -2.05816e-20)
(1.03164 -0.0300626 3.70844e-21)
(1.19202 0.018127 3.84207e-21)
(0.643457 -0.57327 1.34539e-20)
(1.01713 -0.00194838 -5.31745e-23)
(0.385837 0.0647566 9.79094e-20)
(0.111244 0.0207247 -7.73878e-20)
(0.867295 -0.11333 -2.41252e-20)
(1.22273 -0.0564034 0)
(0.991477 -0.781196 5.93897e-20)
(0.938237 -0.0770208 -8.35485e-21)
(1.0617 0.043195 0)
(1.0931 -0.024324 -2.10174e-20)
(0.257021 0.043011 3.11225e-20)
(1.07359 -0.0311037 2.3459e-20)
(1.10575 0.0525182 -4.40207e-20)
(1.00728 -0.034384 0)
(0.195992 -0.116835 -3.34328e-20)
(1.13019 -0.0179271 -4.40765e-20)
(0.985013 -0.437843 0)
(1.19515 0.0493745 5.39494e-20)
(-0.222994 -0.0094396 0)
(1.07239 -0.0336127 1.15493e-20)
(1.00068 -0.0279414 0)
(1.16148 -0.0472113 0)
(1.32917 -0.126292 0)
(1.00971 -0.0531072 3.14774e-21)
(1.19279 -0.381098 0)
(0.978966 -0.0323106 -1.39234e-20)
(0.855032 0.0873417 -3.25947e-20)
(1.0153 -0.0553977 0)
(1.02934 -0.0130121 5.27914e-21)
(1.00993 -0.00570513 5.62671e-23)
(1.00216 -0.00178882 0)
(0.12571 0.0222032 2.99144e-20)
(0.828983 0.0878288 0)
(0.988042 -0.0251089 -6.96209e-22)
(1.17775 0.172056 2.23198e-20)
(0.957675 -0.125783 0)
(0.721532 0.136483 7.11499e-20)
(-0.0830419 0.0082095 9.68602e-20)
(1.17437 0.178586 3.62459e-21)
(1.2775 -0.00145078 2.49433e-20)
(1.03393 0.0046632 -5.02693e-21)
(0.233088 0.0307779 0)
(1.11297 0.0807762 -1.27408e-20)
(1.01663 -0.0324325 7.82826e-22)
(1.12417 0.0294859 0)
(0.320625 0.0520034 6.39189e-21)
(0.209457 -0.0163872 -2.43153e-22)
(1.05185 -0.0103073 0)
(0.955738 -0.0123241 6.12356e-21)
(1.01354 -0.0343777 3.82471e-22)
(1.01481 -0.000276122 0)
(0.17353 0.0148796 6.04849e-21)
(1.19029 0.02296 7.26181e-21)
(0.175811 0.0265653 5.9921e-20)
(0.0709004 0.0225863 -8.97322e-20)
(0.982591 -0.0227269 0)
(1.00088 -0.00269491 -5.01057e-21)
(1.15407 -0.00221477 8.5139e-21)
(1.00003 -0.000564143 -1.04983e-21)
(1.0113 -0.0128765 0)
(0.953254 -0.0394157 -1.13719e-20)
(1.04587 0.0107018 -1.34919e-21)
(1.19506 0.0170635 -1.57864e-20)
(1.1278 -0.0168883 6.37359e-20)
(1.2325 -0.226726 5.84648e-20)
(0.261069 0.033605 -5.01463e-20)
(1.16322 -0.146629 0)
(0.999638 -0.00666913 0)
(0.953045 -0.0990598 -8.1695e-21)
(1.20988 -0.143963 -3.39203e-20)
(0.313498 0.0438058 0)
(1.10346 0.0507451 0)
(1.306 -0.369736 -9.85851e-21)
(1.15219 -0.0509492 0)
(0.987307 -0.025605 0)
(1.17789 0.167977 0)
(0.819692 0.143106 0)
(1.01459 -0.0492772 1.29676e-22)
(1.02612 -0.00340345 0)
(0.65346 -0.299864 0)
(0.135598 0.0373496 -5.89436e-20)
(1.23875 -0.236254 6.73955e-20)
(1.00227 -0.00173476 0)
(-0.0640678 0.00589882 2.82646e-21)
(-0.0559364 0.0038459 4.60247e-20)
(1.3371 -0.131648 0)
(1.02146 -0.0044612 -2.45364e-21)
(-0.165838 -0.016399 2.14325e-19)
(-0.266416 -0.00521832 1.5758e-19)
(0.48236 -0.187477 1.08958e-19)
(1.06328 -0.0369893 0)
(0.999377 -0.00118921 0)
(0.793394 0.0489136 4.69965e-20)
(1.00001 -0.000115892 -1.29126e-20)
(1.1879 0.117192 1.97114e-20)
(-0.117229 0.0101595 0)
(1.2334 -0.0145175 -5.70984e-20)
(-0.208518 -0.0120249 0)
(1.16112 0.0579976 2.30423e-20)
(0.0235525 0.0169158 0)
(1.15804 0.0278303 -2.09709e-20)
(0.991451 -0.0353538 0)
(0.956619 -0.0113022 0)
(-0.21677 0.0130501 -1.28768e-19)
(0.721953 0.14294 0)
(-0.284062 -0.00450962 -1.05919e-20)
(0.495975 0.0167166 -6.16989e-20)
(1.03794 -0.00389518 0)
(1.18911 0.114174 4.21371e-20)
(1.00002 -0.000447316 2.36557e-21)
(1.16385 -0.0571083 4.11672e-20)
(1.15246 0.0739877 1.13306e-20)
(1.21989 -0.134833 -8.25017e-20)
(1.00006 -0.00605687 3.57432e-21)
(0.971808 -0.0830107 2.15777e-20)
(1.21353 0.0514021 0)
(0.352519 0.0580438 -8.79125e-20)
(-0.205496 0.0145159 5.66755e-20)
(-0.303549 -0.00112246 0)
(1.11584 -0.076289 0)
(1.04596 -0.127501 -1.38862e-20)
(1.21889 0.0783184 0)
(0.967855 -0.0158348 -1.19173e-20)
(1.02821 -0.00702068 -5.55967e-21)
(0.997286 -0.0130869 0)
(1.05841 0.0219544 1.04993e-20)
(1.12358 0.0857501 3.34667e-20)
(0.996121 -0.00542341 -3.34189e-21)
(1.1496 0.0715644 -3.15214e-20)
(1.00797 -0.0126605 0)
(1.00316 -0.000191628 -2.07174e-22)
(1.00561 -0.00749685 0)
(0.216727 0.0291099 1.67793e-21)
(0.964989 -0.0172674 0)
(1.00002 -0.000400979 9.35734e-22)
(1.15086 -0.0035221 2.5442e-20)
(1.15082 -0.0247877 -7.27424e-21)
(1.01732 -0.00209678 -7.8973e-23)
(-0.145243 0.0058121 3.19586e-20)
(1.03839 -0.00839009 6.37239e-21)
(1.02933 0.00299915 -3.38547e-21)
(1.15608 -0.0700375 0)
(0.889515 -0.138451 4.70178e-20)
(1.0664 0.00756618 0)
(1.02972 -0.0525859 4.69801e-21)
(1.33244 -0.367978 4.81266e-21)
(0.865878 -0.118967 5.20138e-20)
(1.07184 -0.119656 2.2858e-20)
(0.845689 0.144567 0)
(1.07534 -0.11834 -1.14738e-20)
(0.643835 0.107983 2.0739e-20)
(0.908161 -0.0242982 2.6803e-20)
(1.19257 0.0218721 -4.08051e-21)
(0.48611 -0.235611 1.32895e-19)
(0.149023 0.0110645 0)
(1.02559 -0.00331468 -3.70094e-21)
(0.272315 0.0433961 -4.40777e-20)
(1.24255 0.0370064 0)
(1.01256 -0.00359118 -4.52119e-23)
(-0.0166055 0.0106981 -4.52955e-20)
(0.998339 -0.00606292 7.55507e-21)
(1.00606 -0.00749688 -2.96325e-22)
(1.1252 -0.0270914 2.09509e-20)
(1.00421 -0.00698319 0)
(1.15539 -0.244035 0)
(0.293063 0.0425721 0)
(1.02085 -0.00535939 2.06238e-21)
(0.183988 -0.117482 0)
(1.03336 0.00449413 0)
(1.11999 -0.0467919 -9.09439e-21)
(0.749652 0.15809 4.89223e-20)
(1.01708 -0.0015807 -7.34855e-22)
(0.125446 0.0336794 5.12759e-20)
(1.01722 -0.0680278 5.84104e-22)
(1.03825 -0.0119156 5.28791e-21)
(0.998269 -0.0181763 -3.70019e-21)
(0.997001 -0.0134149 1.64575e-21)
(1.23153 -0.00347084 -3.07412e-20)
(0.740002 -0.213314 0)
(-0.203369 0.00644782 6.80523e-20)
(1.16837 -0.145424 -1.27436e-20)
(0.180978 0.0471099 1.39562e-19)
(1.15557 -0.00768218 -2.39238e-22)
(0.996291 -0.00525789 -1.13614e-20)
(1.21649 0.0561108 2.32467e-20)
(-0.288875 -0.00452827 4.98697e-20)
(1.27546 0.00210006 -2.7196e-20)
(0.75585 -0.237245 -3.6956e-20)
(1.22368 -0.0158054 -7.87219e-20)
(1.108 0.083637 0)
(1.07347 -0.0592021 -1.44649e-20)
(1.2335 -0.00686683 0)
(1.02699 -0.0505298 2.15473e-21)
(1.29329 -0.453576 6.87362e-20)
(1.00235 -0.00108969 -2.50215e-21)
(-0.153354 -0.0227882 -1.91139e-19)
(1.05321 -0.00859716 0)
(0.773387 -0.244887 -6.05217e-20)
(0.933265 -0.0931118 -2.62479e-20)
(1.04233 -0.0269158 -6.0281e-23)
(1.05229 0.0193155 -1.56665e-19)
(0.955295 -0.0093264 0)
(1.01059 -0.0124566 2.51333e-22)
(1.32082 -0.0494725 0)
(1.01517 -0.0686901 -6.13434e-22)
(1.0055 -0.00770208 7.82379e-22)
(1.12582 0.0153179 2.39103e-20)
(1.1931 -0.063728 6.97457e-21)
(1.23298 -0.00170479 0)
(1.33904 -0.119498 1.18523e-19)
(1.02522 0.143823 -1.32249e-20)
(-0.0997179 0.0177597 1.23248e-20)
(1.00094 -0.00266835 4.63731e-23)
(0.999472 -0.00110995 0)
(-0.0494942 0.00675704 0)
(0.995773 -0.00873815 0)
(1.28976 -0.283346 -1.23881e-19)
(1.16391 0.060268 -2.49139e-20)
(1.0598 -0.0375538 -2.01355e-20)
(0.996028 -0.00214308 0)
(1.06931 -0.110003 1.00428e-20)
(0.990577 -0.00164407 -9.11008e-21)
(1.03726 -0.011841 -7.81302e-21)
(1.08997 0.00367319 -2.31899e-20)
(1.2863 -0.27406 1.21249e-19)
(1.2361 -0.221759 -1.07834e-19)
(0.654185 -0.318035 0)
(1.13619 -0.1694 1.13394e-20)
(1.0008 -0.00390708 -3.26137e-21)
(1.13329 0.050687 -8.76609e-21)
(0.773391 0.0479886 -1.28183e-19)
(1.00746 -0.0120631 0)
(1.15185 0.0773929 1.15085e-20)
(1.06508 -0.0238229 -1.02131e-20)
(0.291028 0.0447297 -7.38552e-20)
(0.956728 -0.0434653 1.07102e-20)
(0.0023152 0.00195906 1.15928e-19)
(1.00244 -0.000964638 2.66914e-21)
(1.24379 0.0322199 2.12518e-20)
(1.00002 -0.000297858 6.6209e-22)
(1.16614 0.0392877 0)
(1.01615 -0.0331297 0)
(1.0575 0.02088 0)
(1.06249 0.0397688 0)
(1.01727 -0.00172616 0)
(1.02879 0.00302008 3.26772e-21)
(1.0167 -0.00298251 0)
(0.781173 0.0969005 0)
(-0.124716 -0.000498104 -1.0476e-19)
(1.0982 0.015885 -6.68198e-20)
(0.162359 0.036978 1.66995e-20)
(0.986372 -0.0251403 -1.7494e-21)
(1.12097 0.0157636 1.06478e-20)
(1.08936 -0.0398692 4.21289e-20)
(1.22307 0.0368094 0)
(-0.0742028 -0.0310403 -8.43108e-20)
(1.09807 0.0178803 3.68965e-20)
(1.01937 -0.00188661 0)
(1.00397 -0.441716 2.50547e-20)
(1.00786 -0.0122826 0)
(0.985973 -0.0244462 -3.16279e-21)
(1.09039 -0.0352278 1.93091e-20)
(-0.181835 0.00995116 -5.67261e-20)
(0.70368 -0.000188053 -1.04993e-20)
(1.26318 0.00482716 -1.38167e-21)
(1.15343 0.171275 6.0923e-20)
(0.726352 -0.214621 4.19655e-20)
(0.949227 -0.0197974 1.12729e-20)
(1.00735 -0.0267451 0)
(1.3126 -0.442706 2.10193e-21)
(1.00594 -0.0076956 0)
(1.29878 -0.0207599 1.22135e-19)
(1.08966 -0.022081 0)
(0.999241 -0.00162457 3.4534e-21)
(0.38525 0.0433461 0)
(0.352295 0.0544091 -1.54161e-20)
(0.997046 -0.00150431 -1.3604e-22)
(-0.19039 0.0067486 -1.21011e-19)
(1.05079 -0.0871033 0)
(1.08812 0.144309 -3.10298e-20)
(0.942951 -0.341994 0)
(1.09827 0.163503 8.98328e-21)
(0.31961 0.0537269 5.18947e-20)
(1.28534 -0.337732 7.29791e-21)
(1.00302 -0.000714267 -7.95439e-24)
(1.01492 6.40841e-05 0)
(0.272347 0.0346479 -2.46108e-20)
(1.00344 -0.032054 6.99773e-21)
(1.03254 -0.019336 8.962e-21)
(1.09201 -0.0221592 3.08646e-20)
(1.00195 -0.0328141 0)
(0.83348 0.119837 1.8443e-20)
(1.17859 0.157662 -5.75255e-20)
(1.15649 -0.00417564 1.79876e-20)
(0.0683879 0.0406144 9.31254e-21)
(1.13978 -0.000838515 0)
(1.16971 0.0946465 1.67507e-20)
(1.06421 -0.0230467 0)
(1.00324 -0.00428947 3.21423e-23)
(1.01517 -0.00124435 1.94055e-21)
(1.01033 -0.00688001 1.74853e-22)
(-0.174747 0.00827087 0)
(0.164399 0.0101387 5.56532e-20)
(1.15911 0.190376 0)
(0.995808 -0.00192148 -3.55227e-22)
(1.01912 -0.0016931 -2.15107e-21)
(1.06335 0.0412849 0)
(1.01733 -0.0219919 -7.0677e-22)
(1.12691 -0.029737 -1.17536e-20)
(0.974902 -0.088198 -4.18797e-21)
(1.2551 -0.497143 1.65898e-20)
(0.381984 0.054554 -4.33158e-20)
(1.15038 0.0682635 8.36157e-20)
(1.22062 0.086144 -2.778e-20)
(1.16344 0.189281 0)
(1.03147 -0.0179713 -3.3009e-21)
(1.2323 -0.00894424 0)
(1.0078 -0.0271585 0)
(-0.0669915 -0.0299358 -1.07721e-19)
(1.2435 0.035477 0)
(-0.00773905 -0.027924 -2.17663e-19)
(0.961764 0.0399995 0)
(1.0468 0.0106461 -3.91828e-22)
(1.09017 0.00575445 2.41127e-20)
(1.18908 -0.682559 0)
(0.0603699 0.0404602 2.504e-21)
(0.0249154 -0.0319421 1.15708e-19)
(0.792407 -0.111425 0)
(1.21575 -0.146571 -6.27021e-20)
(-0.157535 0.0146315 4.93078e-20)
(1.00215 -0.00209901 -7.34927e-22)
(1.21723 0.0800836 1.19972e-20)
(0.586947 -0.652714 0)
(1.13688 0.128691 0)
(1.00225 -0.00202401 0)
(1.03441 -0.0201323 -4.35952e-21)
(1.12766 -0.0136401 0)
(0.0495902 0.0202645 0)
(0.347056 -0.687812 3.7545e-20)
(1.03274 -0.318402 -1.40428e-20)
(0.988796 -0.0087385 -1.24792e-22)
(1.05724 0.0184527 0)
(0.891822 -0.0617312 -3.85351e-20)
(0.157032 -0.183885 1.2408e-19)
(1.04126 -0.0262247 4.18876e-21)
(1.26717 -0.304105 -4.96594e-20)
(1.00477 -0.0153368 0)
(0.988942 -0.0534892 -2.49052e-21)
(1.24427 -0.0616642 1.71217e-20)
(1.00735 -0.0117218 0)
(0.998959 -0.00826288 3.76646e-21)
(1.04325 -0.0500796 -1.2152e-20)
(1.00788 -0.101905 -6.80966e-22)
(1.00354 -0.0042753 -2.4224e-21)
(1.02735 -0.0497064 -2.00774e-21)
(1.022 -0.00446826 -2.81379e-21)
(1.05943 0.152095 9.13688e-21)
(1.12482 0.223219 -3.16942e-20)
(0.215047 0.0164599 2.4168e-20)
(1.02512 -0.0040351 0)
(0.879157 -0.213308 0)
(0.993263 -0.00282978 -1.88722e-21)
(1.21841 0.0578223 0)
(1.22262 0.0251113 0)
(1.03635 -0.157638 -9.13967e-21)
(1.00444 -0.0154135 0)
(1.05297 -0.00353525 -1.18665e-20)
(1.19283 -0.406417 -5.92277e-21)
(1.18857 0.0533432 0)
(1.09535 -0.0241672 0)
(-0.114887 0.00846336 7.60405e-22)
(1.13276 0.129482 1.95921e-20)
(0.993316 -0.0242691 6.2104e-21)
(0.983107 -0.0236506 0)
(0.666482 0.117634 0)
(-0.0842779 -0.0364211 2.33579e-19)
(1.12043 -0.189238 -5.75735e-20)
(1.01674 -0.00410156 0)
(1.17977 0.195353 0)
(1.00094 -0.00368718 0)
(1.11678 -0.046552 0)
(1.02068 -0.0075206 0)
(1.32329 -0.142704 2.54556e-20)
(-0.0527731 0.00329533 0)
(1.00729 -0.00801955 0)
(1.03878 -0.000163428 1.20685e-20)
(1.29465 -0.013928 0)
(1.00034 -0.0287107 0)
(0.743981 0.056745 0)
(-0.265379 0.00975238 2.13629e-19)
(1.13027 0.0546626 -7.90282e-21)
(0.966453 -0.0147936 1.42998e-20)
(0.999083 -0.00249555 0)
(1.02082 -0.00732007 -3.0058e-21)
(1.00234 -0.000792907 0)
(-0.254198 0.00454225 9.98538e-20)
(1.30608 -0.213244 0)
(1.22514 -0.126656 0)
(1.03738 -0.0469887 -3.35454e-21)
(0.011096 0.0130144 3.39391e-20)
(1.00529 -0.000269872 -7.53599e-23)
(0.995992 -0.0173236 1.04524e-21)
(0.663939 0.0469967 7.70831e-20)
(1.02721 -0.0115017 -2.89768e-22)
(0.27152 0.0333802 -4.80762e-20)
(1.01698 -0.0012279 -3.06249e-21)
(0.925398 -0.0969591 7.45211e-21)