/*--------------------------------*- C++ -*----------------------------------*\
| =========                 |                                                 |
| \\      /  F ield         | OpenFOAM: The Open Source CFD Toolbox           |
|  \\    /   O peration     | Version:  v2012                                 |
|   \\  /    A nd           | Website:  www.openfoam.com                      |
|    \\/     M anipulation  |                                                 |
\*---------------------------------------------------------------------------*/
FoamFile
{
    version     2.0;
    format      ascii;
    class       volVectorField;
    location    "700";
    object      ddtCorrDdt0(U);
}
// * * * * * * * * * * * * * * * * * * * * * * * * * * * * * * * * * * * * * //

dimensions      [0 1 -2 0 0 0 0];


internalField   nonuniform List<vector> 
18758
(
(-0.00447901 -0.00549104 -2.63318e-19)
(-0.0154557 -0.0514894 -1.38648e-18)
(-3.58774e-05 3.78399e-06 -9.99397e-19)
(-0.0054542 -0.00501666 7.04925e-19)
(0.00412136 0.00686058 2.66061e-19)
(-4.39358e-05 -7.51726e-06 1.22831e-20)
(-0.000331174 0.000126454 1.13824e-18)
(-0.00110052 0.00134732 -4.08336e-18)
(0.00304813 0.00639289 -7.03776e-19)
(0.00126487 0.00638641 2.07861e-18)
(-0.0305228 -0.0303624 4.4837e-19)
(-0.0578679 0.0517393 8.17111e-19)
(0.00712299 0.0697113 1.68368e-19)
(-0.0019338 -0.000590883 6.26081e-18)
(-0.000315748 0.000143741 1.6959e-19)
(-0.000226176 7.1594e-05 -5.08943e-19)
(-0.0587793 0.0907987 -6.63443e-19)
(-5.595e-05 8.51126e-05 4.14991e-21)
(-0.000309878 0.00014212 -1.75258e-18)
(0.00259322 -0.00066788 4.25353e-19)
(-0.0103471 -0.0985744 8.8841e-20)
(0.0529012 -0.04826 9.237e-18)
(-4.02388e-05 -6.08889e-06 2.36209e-20)
(-3.22448e-05 8.20629e-06 8.30088e-20)
(0.0559924 -0.0499008 -6.81962e-18)
(0.0155292 -0.107211 -3.4608e-19)
(0.00839848 0.438359 -1.00722e-17)
(-0.0740881 0.0488701 -1.88146e-18)
(-0.0204547 -0.0331105 -9.58035e-19)
(-0.0095277 -0.0846139 -2.85734e-19)
(0.0815266 -0.151343 -1.01009e-17)
(0.00409533 0.427337 2.2144e-17)
(-0.000993452 0.00120483 -1.02633e-18)
(0.0559862 -0.074296 1.1971e-17)
(0.00624456 0.00632273 6.76494e-19)
(-0.0224315 -0.0853151 5.35817e-20)
(-0.0104803 0.0774633 7.5121e-20)
(0.00516361 0.00589333 -1.60655e-20)
(-0.0597388 0.0957389 -1.64489e-19)
(0.000163175 -0.000389716 -4.7258e-20)
(-0.0250393 -0.0135395 -5.10191e-19)
(-0.00115757 0.00765524 7.51898e-19)
(-0.052485 0.0795891 -1.85619e-18)
(4.73297e-05 0.0010857 6.20174e-20)
(-0.000189355 1.32666e-06 1.20794e-18)
(0.0999913 -0.0998921 -4.97854e-18)
(-0.00144765 0.00672741 4.24004e-20)
(-0.0279152 -0.0303774 4.35307e-19)
(0.101833 0.0835792 -2.10442e-17)
(-0.00648368 -0.00194708 -5.80947e-19)
(-0.0400835 -0.0315575 -7.56912e-20)
(0.213031 -0.132471 -6.82687e-22)
(-0.00686448 -0.000948218 -3.72762e-19)
(-0.00347008 -0.00203183 8.57926e-20)
(0.0259378 -0.0428795 -9.16395e-19)
(0.0109094 0.0555257 -4.55532e-19)
(0.000424995 -9.81691e-05 1.14486e-19)
(0.00221632 -0.000729511 -1.30869e-19)
(-0.0287747 -0.0247677 9.83971e-20)
(0.000377412 -0.00017062 -2.52909e-19)
(-0.000194918 3.83453e-06 3.93974e-19)
(0.000292711 0.000984237 -5.12424e-20)
(-0.0499948 -0.520311 3.31253e-18)
(0.0223249 -0.0243474 -1.00319e-18)
(-0.000195083 4.52926e-06 -4.88907e-19)
(0.0920451 -0.0586341 -6.87939e-18)
(-7.89728e-05 -7.03305e-07 2.96979e-19)
(-9.95209e-05 4.21292e-05 -1.79586e-19)
(-0.0694761 0.0547133 -2.04911e-19)
(-5.84789e-05 6.43157e-05 -1.20817e-20)
(0.188677 -0.151098 2.28737e-19)
(-0.00211111 -0.127131 1.6871e-18)
(-0.000272735 0.000126516 -2.14613e-18)
(0.00584505 0.0026796 9.85394e-20)
(0.0410558 0.0104921 -2.64662e-19)
(0.0907756 -0.151289 9.3411e-18)
(0.133764 0.0162015 -3.23253e-19)
(-0.0533473 0.174939 -3.17902e-18)
(0.00206501 0.00707994 -1.57897e-18)
(-0.0452383 0.0972157 -6.21888e-18)
(0.00535651 -0.033662 8.4814e-18)
(-0.0287931 0.12217 -2.53668e-18)
(-0.0642406 0.145508 2.88912e-18)
(0.0221289 0.0112095 -2.80516e-19)
(-0.00139647 0.00174739 3.42789e-19)
(0.0206966 -0.0369709 -9.58928e-18)
(-0.00166828 -0.00308114 4.37918e-18)
(0.0067683 0.0027329 -2.38793e-19)
(-0.0348388 -0.53161 -7.78289e-18)
(0.0207532 -0.0340204 1.58538e-17)
(0.0278348 -0.221885 -8.28545e-18)
(-0.000197641 7.92976e-06 -1.95853e-19)
(0.00346099 -0.0233864 2.68759e-19)
(0.106086 0.077783 3.1647e-17)
(-0.000266117 0.00011878 3.06053e-18)
(-6.4274e-05 -2.4336e-05 9.27356e-20)
(-3.16919e-05 -6.86623e-05 2.11631e-20)
(-0.0141325 -0.0188585 -1.4955e-18)
(-0.034826 0.195392 -6.045e-18)
(-0.000198426 7.11236e-05 3.31837e-19)
(0.117099 -0.132497 4.09142e-19)
(0.00723648 -0.00471026 -3.37359e-19)
(-0.000105145 5.91024e-05 -3.72781e-19)
(-6.55148e-05 -2.6563e-05 -1.63544e-19)
(0.096319 -0.06653 1.76634e-18)
(0.00596295 -0.0995524 1.57804e-19)
(-0.0256983 -0.0324627 1.14008e-18)
(0.0785892 -0.196976 -7.01168e-18)
(0.145618 -0.0551286 2.86885e-18)
(-0.0530033 -0.0702451 -1.64675e-19)
(-0.00024303 7.47614e-05 6.58935e-19)
(0.102061 -0.0459975 -3.24617e-18)
(-0.00675711 0.000957101 7.57667e-19)
(-3.19331e-05 -5.00234e-06 -1.20069e-19)
(0.00692617 -0.00560689 4.42003e-20)
(-0.217548 0.0237423 -6.54007e-18)
(-0.0152175 -0.0174803 2.10254e-18)
(2.12715e-05 -0.000253472 3.25464e-19)
(-0.161833 -0.0567749 -1.22825e-17)
(-0.00273924 0.00131299 7.82947e-20)
(-1.81927e-05 1.12202e-05 -9.50705e-20)
(0.126863 0.0167145 -2.4184e-18)
(-0.00175282 0.00151619 5.38203e-19)
(-1.62955e-05 -3.50879e-05 9.31907e-20)
(-0.00360564 0.151978 6.34037e-18)
(-0.00315649 -0.00240418 -1.56098e-19)
(-8.98174e-05 0.000514101 -1.08899e-20)
(-1.56224e-05 -4.40741e-05 -6.13749e-21)
(-0.0228873 -0.0631693 1.31387e-19)
(-0.00976699 0.168347 8.61481e-18)
(-0.0269162 -0.0270961 -2.0601e-18)
(-0.000133039 1.18433e-05 1.14301e-19)
(-0.00563045 0.00537509 -2.82637e-18)
(0.237611 -0.0340131 4.31501e-18)
(0.00013084 -0.000473953 1.34589e-20)
(-6.24369e-05 1.29028e-05 5.45527e-19)
(0.0440447 0.0736067 -1.91899e-18)
(-0.00196549 0.000784599 7.34502e-19)
(-0.104938 -0.0237468 5.31946e-18)
(0.00304486 -0.0337537 -1.12193e-18)
(-0.00782633 0.0020594 -6.97714e-19)
(-0.0545622 -0.0528566 -1.65336e-18)
(-0.00801892 -0.0142902 -2.26324e-18)
(0.149416 -0.0407752 1.21185e-19)
(-0.0103376 0.157452 -7.50624e-18)
(0.000885948 -0.0152388 1.30061e-17)
(0.113827 -0.0629836 -2.2927e-18)
(-0.0197454 -0.0551056 -7.86633e-19)
(-0.0242026 -0.0375781 -1.82408e-19)
(0.00947493 -0.231144 9.43254e-18)
(-0.0297484 0.182373 -3.12776e-18)
(0.00452464 0.171412 2.30771e-17)
(-0.000505998 -0.000340169 -1.40003e-18)
(0.007482 0.0045098 2.51861e-19)
(-0.0235512 0.0122651 -8.00492e-20)
(0.0845051 0.248505 1.37119e-18)
(0.0021773 -0.0230688 1.21733e-18)
(-0.0202577 -0.0661108 2.34328e-19)
(0.0257698 0.0043176 8.33068e-20)
(-0.0251015 -0.0476933 2.26638e-19)
(-0.19976 -0.358165 6.3722e-18)
(8.51456e-05 -9.90803e-05 6.44548e-19)
(0.0810633 0.0737701 1.18328e-18)
(0.120205 -0.0694332 -4.66807e-18)
(0.0914301 -0.0391048 2.04512e-18)
(0.000264982 -0.000644896 -2.95043e-19)
(6.48748e-05 -8.90685e-05 -6.33478e-19)
(-0.192496 -0.384078 -4.14937e-18)
(-0.0144847 0.166518 -5.7043e-18)
(-0.037136 0.0134596 1.05215e-17)
(0.00982165 0.154652 -4.18673e-17)
(-4.12749e-05 3.01705e-06 8.74711e-19)
(-0.0239705 -0.0378629 -1.9207e-18)
(-0.00452648 -0.130209 -7.68876e-19)
(0.13672 -0.11979 -4.46736e-19)
(-5.1016e-05 0.000268967 4.27345e-20)
(-0.000262487 0.000127659 -7.20734e-19)
(0.0159822 -0.0919247 1.05736e-18)
(0.053699 -0.0743308 -1.33158e-17)
(-0.000846177 -0.000757055 3.12097e-18)
(-8.99036e-05 8.78904e-05 -2.74193e-19)
(-0.00182628 -0.00309231 7.01554e-20)
(0.0230957 -0.042827 1.35924e-17)
(-0.00116151 -0.00119762 -1.16124e-17)
(-0.0679018 -0.277638 3.9344e-19)
(-0.000291492 -0.000181596 -3.66872e-19)
(-0.00293448 -0.090398 2.37356e-19)
(-0.00529277 -0.0128199 -9.89606e-19)
(0.12142 0.0662017 4.72771e-18)
(0.100389 -0.0332383 -1.12042e-18)
(0.00353665 0.171922 -3.88768e-18)
(-0.000295608 -0.00017172 5.58525e-19)
(-0.0411266 0.0283782 1.02566e-18)
(0.0898929 -0.0485942 7.95294e-20)
(-4.10613e-05 3.9455e-05 -3.13402e-19)
(-0.00120293 -0.00106336 -8.07509e-19)
(-0.126755 -0.0273195 -4.94688e-18)
(-0.00048259 -0.000329145 6.24243e-19)
(0.132912 0.0588213 -1.81718e-17)
(-7.84593e-05 -4.00104e-06 -9.08776e-19)
(-0.00222845 0.00128205 5.13035e-20)
(-0.0218803 -0.0713963 -4.17952e-19)
(0.0702982 -0.010833 -4.27933e-19)
(-0.000220866 5.66589e-05 -7.62235e-19)
(-0.000247054 8.0236e-05 -2.1237e-19)
(0.0944475 0.0658934 5.44989e-18)
(0.000192778 0.000102274 8.32449e-21)
(0.00741541 0.00576861 -8.7578e-19)
(-0.0205594 0.185061 8.2684e-19)
(-0.00468597 0.180473 5.34676e-20)
(-5.34106e-05 -4.07354e-06 5.6681e-19)
(0.000596817 -0.0255522 -8.17227e-19)
(-0.00276731 0.00126265 1.97728e-19)
(-0.00145038 -0.000719343 -5.34516e-19)
(0.0015076 -0.000636704 -3.04658e-19)
(-9.27136e-06 -9.69787e-05 -5.322e-20)
(-0.000240893 1.80943e-05 1.21141e-18)
(0.000946641 -0.0243521 -1.04325e-18)
(-4.60396e-05 -1.00785e-05 1.48319e-20)
(-0.045266 -0.0765347 1.21008e-18)
(0.0864594 -0.0536549 -6.43552e-21)
(-0.000567324 -0.000377059 -2.76186e-19)
(-0.00876182 -0.013506 2.49374e-18)
(-0.0253023 -0.0733594 4.20271e-19)
(0.0739325 -0.00953129 4.4082e-19)
(0.0155034 -0.0894545 -6.89458e-19)
(0.0442924 0.00720864 2.24884e-19)
(0.0248997 -0.0279373 5.3422e-18)
(-0.207633 -0.371702 -4.45813e-18)
(0.000161646 9.54249e-05 -5.35695e-19)
(0.0102211 -0.110726 1.23602e-18)
(-0.000105089 -0.0152192 -2.89298e-18)
(0.133974 -0.116066 6.21084e-19)
(-6.55845e-05 8.92188e-06 -4.65752e-19)
(-0.000200624 5.73193e-06 1.6637e-19)
(-0.000581458 -0.000527559 4.83204e-20)
(0.0370053 0.0394427 9.58605e-20)
(0.079467 0.102009 -1.47585e-17)
(-0.135646 -0.0283595 -5.35537e-18)
(-0.000537775 0.00040618 -2.0413e-18)
(-0.000257107 8.45281e-05 -6.38287e-19)
(0.0337515 0.0353503 -8.90905e-20)
(-0.0866027 -0.0191752 -9.46651e-19)
(-7.06284e-05 1.64808e-06 6.53788e-20)
(-0.00400034 -0.252222 -1.88248e-18)
(-0.0776555 -0.107036 6.75892e-18)
(-0.000199559 -4.38033e-06 5.57865e-19)
(-5.8299e-05 7.97884e-05 -5.26597e-19)
(0.000852281 -0.00140804 3.37481e-19)
(-0.000192187 8.45801e-05 1.2969e-19)
(0.0156029 0.144266 3.61159e-17)
(-0.000528102 0.000628197 -5.31964e-19)
(0.0118875 -0.0547832 -2.47314e-19)
(-0.000798948 -0.000564826 7.88835e-19)
(-4.54805e-05 -1.68829e-06 3.30961e-20)
(-0.0690288 -0.0589327 5.05739e-18)
(0.000373066 -0.000461638 -3.03408e-19)
(-0.0148413 -0.141137 -3.57731e-18)
(-0.000258407 1.07941e-05 5.83178e-19)
(0.0423657 -0.014322 -4.94307e-18)
(-0.00693129 -0.000198763 -1.04169e-18)
(-2.40416e-06 -4.46724e-05 -4.19488e-19)
(-0.000199263 -7.73745e-06 -3.22572e-19)
(-0.0368341 0.0280165 -7.79055e-19)
(-0.226306 0.506361 -1.48769e-17)
(-0.210149 0.513255 1.71826e-17)
(1.25385e-05 -6.04685e-05 4.20754e-19)
(-0.0946596 -0.027116 -6.43684e-20)
(-0.000510722 -0.000348007 1.8984e-18)
(-0.000259263 0.000387137 -4.38633e-21)
(-0.191247 -0.0214871 -4.94297e-18)
(0.248452 -0.0712692 5.31317e-19)
(-0.000280065 0.000328609 -5.78767e-21)
(0.0001085 9.25634e-05 -1.53108e-19)
(0.00245207 -0.00122666 -1.2766e-19)
(0.00122346 -0.000597229 2.72252e-19)
(-0.00580946 0.00118768 3.46839e-18)
(-4.94452e-05 -1.17692e-05 4.80389e-20)
(-0.00165318 -0.000983317 1.19102e-18)
(-0.00195416 -0.000494722 -2.44901e-18)
(-6.27867e-05 6.79313e-05 -8.14546e-20)
(-0.000126214 1.3288e-05 -3.74439e-19)
(-0.000273205 5.17719e-05 1.11796e-18)
(0.150673 -0.0665022 -9.87886e-18)
(-0.000324003 0.000128834 -4.23177e-18)
(8.90466e-05 9.7066e-05 1.19905e-19)
(-5.28344e-05 3.22405e-05 -4.5788e-20)
(-0.0790116 -0.0222364 -4.02647e-18)
(-6.66897e-05 -3.34404e-05 -9.35708e-20)
(-6.71226e-05 -3.09672e-05 4.5562e-20)
(-6.33284e-05 1.02286e-06 -6.55101e-20)
(-0.00105874 -0.000729628 -2.43082e-18)
(0.00036061 -4.63515e-05 -6.02611e-20)
(-6.28104e-05 1.10274e-05 -3.56682e-20)
(-4.34673e-05 4.10113e-06 -2.95106e-20)
(0.00165281 -0.00239072 -3.07859e-19)
(0.0150893 -0.0849089 7.44584e-19)
(-0.000212807 7.51784e-06 2.50381e-19)
(-3.31141e-05 6.75002e-06 -4.14912e-20)
(-0.0246794 0.136917 6.51395e-18)
(-0.00268699 -0.0018862 4.0504e-18)
(-3.21579e-05 7.23179e-06 5.40482e-20)
(-3.36303e-05 9.42509e-06 3.7594e-19)
(-0.0358938 -0.387305 1.21276e-17)
(-0.0306124 0.0240121 -7.06231e-20)
(-8.72853e-05 9.47205e-05 3.31187e-19)
(-0.00838743 -0.00934322 -1.04217e-19)
(0.0174878 -0.108356 -1.11417e-19)
(0.000529601 0.00113047 3.65152e-19)
(0.0190357 0.0494851 1.28287e-20)
(-0.000276366 4.49746e-05 -4.84505e-19)
(-0.202256 0.551997 6.34434e-18)
(-0.115094 -0.0326625 7.06795e-18)
(-0.057133 -0.00846744 1.97056e-18)
(-0.0178983 -0.0325805 3.7449e-18)
(0.059032 -0.0705429 8.40681e-18)
(-0.000106153 8.76504e-05 -7.88444e-20)
(-0.0194933 -0.551445 -8.72506e-18)
(-0.0280452 -0.0841501 5.60007e-19)
(-7.51499e-05 -9.78641e-07 -2.03398e-20)
(-0.0542855 -0.0058411 -8.66613e-19)
(0.0237564 0.00635934 5.86283e-19)
(-0.00810825 -0.222778 -7.60137e-18)
(-0.000187889 6.30423e-05 1.62276e-20)
(-0.000104363 7.3827e-05 -1.84796e-20)
(-0.00691598 0.179884 -2.38866e-19)
(-0.00860873 -0.142226 -9.30103e-19)
(-2.31219e-05 7.38824e-05 -9.86922e-23)
(0.0168014 0.143625 2.67485e-18)
(0.0263186 0.0325904 -1.75859e-20)
(-0.00681985 0.00766372 -7.01462e-19)
(0.251653 -0.0167767 1.75395e-17)
(-0.000187345 6.21845e-05 -2.65913e-19)
(0.000403454 -0.000610991 5.05097e-19)
(-0.000261602 8.38469e-06 8.473e-19)
(-3.45773e-05 -7.89739e-06 8.39569e-19)
(-0.000601951 -0.000466804 -2.6718e-19)
(-0.00206292 0.00322697 -5.04197e-21)
(-0.00128971 0.00130542 2.44946e-18)
(0.000236289 0.000136942 -1.21389e-18)
(-0.000518986 -0.000383246 1.28593e-19)
(-0.000669792 0.000328945 -8.06427e-19)
(0.197738 -0.0441548 -2.28948e-18)
(-0.0487099 -0.371711 -1.61388e-17)
(-0.00184853 0.000429296 -4.71441e-19)
(-0.0195882 -0.508852 -2.41376e-19)
(-0.0311808 0.226864 1.71228e-17)
(-2.84999e-05 7.50463e-05 7.29201e-20)
(-0.00542357 -0.00755664 -7.72539e-18)
(-0.0317116 0.0345207 1.8073e-19)
(0.0564607 -0.0403686 -4.47597e-18)
(-0.0677852 -0.00993173 1.51097e-18)
(-0.137746 0.034812 4.40837e-18)
(-0.000279918 -0.000181753 -4.74653e-19)
(0.0291445 0.14184 -2.72532e-18)
(0.019902 0.0116406 8.09826e-19)
(-0.0136667 -0.00992351 5.93284e-20)
(-0.000683393 0.000278139 2.20565e-18)
(-0.0050786 0.00833056 -5.12207e-21)
(-0.00109979 -0.00122178 -1.81354e-19)
(-0.000102882 0.000873932 -1.56494e-19)
(-0.134534 -0.0346243 4.39437e-18)
(0.101175 -0.0409721 -2.29861e-19)
(-0.0755411 0.0309115 2.21675e-18)
(0.0521408 0.00430708 1.04996e-19)
(0.0980964 -0.0342483 -1.93764e-19)
(-0.000199875 6.92425e-07 -4.84697e-19)
(-0.00360202 -0.00299229 6.94761e-18)
(-0.0017298 -0.00356543 6.06577e-20)
(-0.0171771 -0.0180405 1.07437e-18)
(0.084379 0.0950169 5.29613e-18)
(-0.201655 0.0181244 1.00925e-17)
(0.104399 -0.174281 -9.54463e-19)
(0.0160061 0.111078 -4.96625e-19)
(-0.0343164 -0.0308473 -1.69465e-18)
(-0.152774 0.0460795 -3.54887e-18)
(-4.23051e-05 -6.09895e-07 -1.49075e-20)
(0.0762556 -0.0607444 1.80067e-17)
(-0.0185359 -0.0583894 -5.07464e-19)
(-0.039564 -0.00185454 1.0436e-18)
(-0.0727777 0.0565271 -3.18264e-18)
(-8.53734e-05 -2.78553e-06 1.01196e-20)
(-2.95527e-05 6.35136e-06 1.6641e-19)
(0.053393 -0.0446819 -7.45856e-18)
(-0.0683437 0.0183948 -5.35712e-18)
(0.0695662 0.0352346 -1.69437e-18)
(-0.186614 -0.0202242 3.25696e-18)
(0.00769493 0.151002 4.64618e-18)
(-0.000604585 0.000396119 1.68013e-18)
(-0.0392241 0.0401042 -8.90542e-18)
(-0.0583585 -0.0528059 -1.86533e-19)
(-0.000232455 7.66191e-05 -9.0702e-19)
(-0.00185424 -0.0002604 1.22785e-18)
(0.000827691 -0.00124337 -1.08712e-19)
(0.00240799 0.00121304 -2.07906e-19)
(-1.63468e-05 9.00562e-06 -3.46749e-19)
(-0.000950813 -0.00147223 2.64069e-19)
(-0.000282464 -0.000219923 9.20647e-19)
(-0.000148759 7.32775e-06 3.20968e-19)
(-7.29244e-05 1.68992e-07 -6.02239e-19)
(2.17232e-05 -0.00180241 7.95368e-19)
(-0.000842969 0.0121385 9.72799e-19)
(0.0136504 0.0895163 -9.96991e-18)
(-0.0026971 -0.00497388 1.25483e-17)
(0.000906473 -0.0580499 -1.26945e-18)
(0.00901357 -0.06508 -5.99048e-18)
(-0.0471605 0.158411 -1.55623e-17)
(0.0284499 0.077934 2.59985e-18)
(-0.0314658 -0.0547543 -4.77846e-19)
(0.00116298 -0.00212358 5.03802e-19)
(-2.77257e-05 3.23612e-06 1.43012e-19)
(-0.0520709 0.0741893 8.65704e-19)
(-0.00185829 -0.000156712 3.97224e-18)
(-0.000418654 0.000490703 -2.47565e-18)
(0.0283292 0.0128259 8.75883e-18)
(-0.0182294 -0.0165154 -2.67929e-18)
(-0.0434017 -0.0154535 4.42935e-19)
(0.000469083 -0.000416882 4.99133e-19)
(0.194627 -0.0309404 2.06659e-18)
(-0.000190456 1.7848e-06 5.4123e-19)
(-0.00286739 -0.0019503 -1.30518e-18)
(-6.8067e-05 9.4098e-05 -1.45704e-19)
(0.15032 0.0390963 -1.41835e-17)
(-0.214729 0.544046 -9.60571e-19)
(-0.0565377 -0.0233408 -3.09331e-18)
(-4.58263e-05 5.1075e-06 2.41712e-19)
(0.243821 -0.00636315 -1.02477e-17)
(0.00492116 -0.0208634 5.27689e-18)
(-0.000259128 -1.37166e-06 1.00401e-18)
(0.00252362 0.000682367 -2.35377e-20)
(-5.97266e-05 -3.55922e-06 6.47004e-20)
(0.0974284 -0.165131 -1.32443e-19)
(-4.24665e-05 -1.61835e-06 1.2849e-19)
(-6.70959e-05 1.12855e-05 -6.37176e-20)
(0.0979527 -0.0427078 -2.2087e-19)
(-0.00243763 -0.00515396 -1.15472e-17)
(-0.000482778 0.000489188 -1.50627e-18)
(-0.000256176 0.000117325 -6.273e-19)
(-0.000529587 0.00141528 1.82876e-18)
(-0.00125077 0.00347841 7.61698e-19)
(0.143726 -0.010988 -1.41034e-19)
(-0.0437846 -0.0454687 -7.24451e-19)
(-2.30774e-05 -1.24447e-06 8.1107e-20)
(0.0813014 -0.0594116 -9.41302e-19)
(-6.35511e-05 8.83561e-05 -9.12391e-20)
(-0.00259798 0.00359765 -5.78272e-19)
(0.0238591 -0.0265315 -1.40363e-17)
(-0.000151622 -7.07757e-05 9.02682e-19)
(0.0763473 -0.117901 -1.04938e-18)
(-2.16179e-05 -1.7887e-06 1.5822e-19)
(-0.00104546 0.00381381 8.88772e-20)
(-3.56521e-05 2.59571e-06 1.85204e-19)
(-0.197295 0.0399386 6.0672e-19)
(0.00200946 -0.00349119 6.03414e-19)
(-0.000280253 -0.000216501 -1.45739e-18)
(0.0586144 0.1171 -2.86662e-18)
(-0.0354911 0.0170409 -1.33819e-19)
(-5.31884e-05 3.87994e-05 2.60547e-21)
(-0.00370216 -0.00278058 -4.11999e-18)
(0.00363518 0.000281527 3.42408e-19)
(-0.000224317 6.31436e-05 -1.09806e-18)
(-4.17775e-05 -7.49033e-06 -3.09239e-19)
(-0.000260854 -5.92335e-06 3.92397e-19)
(-0.185714 0.445538 -1.86086e-17)
(-0.176424 -0.301375 -9.88966e-19)
(-0.000680342 -0.000338607 -4.11813e-19)
(-0.012991 -0.00333141 9.69999e-19)
(0.100278 -0.0200207 3.04085e-18)
(0.0119268 -0.0897504 -7.82619e-20)
(0.000600104 -0.172708 -5.62716e-18)
(-0.09369 -0.102772 -8.11335e-18)
(-0.00544286 -0.188605 2.94314e-18)
(-0.000120502 -0.000153432 8.06134e-21)
(-0.0314291 -0.0501115 7.42764e-19)
(0.0282183 0.0363688 -7.97248e-20)
(0.00573121 0.00903463 -4.76424e-19)
(-0.000820738 0.00123459 9.31506e-19)
(-0.0380805 -0.0875803 -4.88459e-18)
(-0.0167145 0.0187167 5.90618e-20)
(-0.00700174 0.00325443 -8.01934e-20)
(-3.10922e-05 2.99923e-06 -3.26715e-19)
(-0.000329671 0.000138094 1.37755e-18)
(-6.58496e-05 -3.538e-05 2.4225e-19)
(-0.000150106 -6.52483e-05 -9.57913e-19)
(-6.77088e-05 -3.08714e-05 -3.19851e-19)
(-0.000130924 -3.43871e-05 8.72879e-19)
(0.0490642 0.0332625 -7.30281e-20)
(-5.85129e-05 -2.31552e-06 2.06697e-19)
(-4.63333e-05 5.72339e-05 3.37699e-20)
(0.00630761 -0.0189238 1.49263e-17)
(-0.000141952 1.33595e-05 3.14202e-19)
(-3.82061e-05 -1.8397e-07 -2.94996e-19)
(0.000270141 -0.000309232 1.23115e-19)
(0.00318117 0.000198344 8.6192e-20)
(-0.0138789 0.0196069 -1.6292e-20)
(-0.0256473 -0.112443 1.5329e-20)
(0.000198838 0.000115343 8.09157e-19)
(-0.0438008 -0.0199355 1.52861e-19)
(-4.33293e-05 1.61512e-06 -4.57027e-21)
(-0.00331633 -0.00502704 -1.65803e-17)
(0.00756501 -0.0540513 3.13827e-18)
(-0.203914 -0.275851 -1.71969e-17)
(0.0074461 0.121491 -1.02814e-19)
(-0.00024316 2.19762e-05 9.77328e-19)
(-0.000276449 -0.000189023 1.23958e-18)
(-0.178086 -0.283265 -5.74297e-18)
(0.238746 -0.0201193 -1.15118e-17)
(-0.00528468 0.0136441 -1.66329e-19)
(0.000460998 -0.000250662 7.28145e-19)
(-0.0518041 -0.0444365 -4.1782e-19)
(0.138819 -0.0621565 -1.77054e-18)
(-5.1368e-05 4.248e-05 2.82497e-20)
(-4.28309e-05 3.8346e-06 1.75877e-20)
(-0.18245 -0.341789 -5.24439e-18)
(0.00166591 -0.000380155 4.27136e-19)
(0.00200535 -0.0360633 -1.14534e-17)
(-0.00265994 0.0141288 2.11711e-19)
(0.00313591 0.000519182 -1.01775e-18)
(-0.0134079 -0.00249412 3.21292e-18)
(-5.832e-05 7.98022e-05 4.2313e-19)
(-6.82301e-05 0.000258831 2.16375e-20)
(-0.000203208 8.12521e-06 1.25281e-18)
(-2.46282e-05 -1.29611e-06 -2.68868e-21)
(0.000151275 9.37683e-05 5.97243e-20)
(-0.000187226 4.12481e-06 -9.32879e-19)
(-0.00949334 0.236802 1.98504e-17)
(-9.06732e-05 2.96005e-05 -1.72361e-19)
(-0.0444131 -0.00881356 -3.87601e-20)
(0.11612 0.00311648 6.74659e-19)
(-5.2736e-05 4.98248e-05 5.8902e-21)
(-9.04108e-05 3.72036e-05 2.41198e-20)
(-5.92577e-05 -5.90673e-07 -1.50388e-19)
(-0.00505792 -0.00147563 -3.37707e-18)
(0.00118123 -0.00805398 5.56896e-19)
(-0.0383575 -0.0526648 2.54719e-18)
(-0.000209422 5.13556e-05 -1.07487e-19)
(0.101992 -0.0283556 -1.38225e-18)
(-0.00257457 0.00938306 4.22107e-19)
(0.00617966 0.00815043 4.00365e-19)
(0.000158763 8.90754e-06 -2.19763e-19)
(-0.000121895 -0.00147224 -6.48045e-19)
(0.00117539 -0.00158474 -4.19169e-19)
(-0.000728364 -0.000296099 3.49361e-18)
(-0.000701284 -0.000306835 -3.17973e-18)
(-0.0407166 0.0695815 -2.67674e-17)
(-0.068012 -0.296397 -1.85456e-18)
(-6.22126e-05 6.82015e-05 -9.1999e-20)
(0.000123715 9.08795e-05 -2.1305e-20)
(-0.00101631 -0.000684728 3.29172e-18)
(-0.19773 -0.385551 -1.1653e-17)
(-7.30922e-05 0.000100072 9.49629e-21)
(-1.75467e-05 -0.000117081 2.69474e-20)
(-0.000128819 -2.90731e-05 -1.04496e-18)
(-5.1256e-05 6.66709e-05 -2.10386e-19)
(5.94525e-05 0.000107224 -1.43065e-20)
(0.000155904 -2.24508e-05 -1.6441e-19)
(0.000420451 -0.000782314 -2.09441e-19)
(-0.00022193 6.49978e-05 1.67704e-18)
(-0.032088 -0.0252773 -3.80729e-19)
(-0.000212735 3.96337e-05 9.1541e-20)
(0.00023729 -0.000582129 3.66525e-20)
(0.009922 0.0744429 -1.87868e-20)
(-0.229757 -0.270438 1.35177e-17)
(-0.00474001 0.00388436 -2.0571e-19)
(-0.000235775 0.000530384 -5.05201e-20)
(-0.000132071 0.000186463 3.31156e-20)
(-4.04835e-05 1.00571e-06 -3.02979e-20)
(-0.000258644 0.000134731 1.30284e-18)
(-0.00247928 0.00081969 -3.87123e-19)
(-0.0328744 -0.015507 3.4919e-20)
(-0.0523716 0.025831 4.70334e-19)
(-0.000952199 -0.000747588 -2.78264e-18)
(-0.0084174 -0.169817 -6.94153e-19)
(-0.000122318 0.000200379 2.3369e-20)
(-0.00540717 -0.00816042 1.16471e-17)
(4.07962e-06 0.000668383 -4.76072e-20)
(-7.55056e-05 3.08902e-06 6.70511e-20)
(-0.000596723 -0.0162804 8.01398e-18)
(-5.73958e-05 4.27564e-05 -5.29695e-20)
(-2.53108e-05 -4.39446e-07 1.09522e-20)
(0.00149925 -0.35403 9.50471e-19)
(-3.82532e-05 5.01297e-06 -5.7998e-19)
(-0.00130475 -0.00109485 8.19167e-19)
(0.0499091 0.000213223 -2.52533e-19)
(-3.83566e-05 1.03154e-05 2.21305e-19)
(-0.000324524 -8.45394e-05 2.69524e-18)
(0.140623 0.0486467 9.0747e-18)
(-3.67667e-05 -0.000239468 2.69461e-19)
(0.0572676 0.0191579 3.13086e-19)
(-0.0126274 0.0223221 3.65042e-20)
(-8.32279e-05 -2.67629e-06 -2.42734e-19)
(-3.56266e-05 1.66273e-06 2.19964e-19)
(0.0200054 0.00973695 -3.03766e-19)
(-2.25842e-05 0.00196605 -5.77867e-19)
(0.000363164 -0.00829519 -2.43103e-20)
(-6.31113e-05 0.000263917 -4.65448e-21)
(0.033838 0.00839568 -1.92231e-18)
(-0.0256866 -0.180402 -5.87894e-19)
(-0.0137628 -0.195939 -5.69467e-18)
(-5.97066e-05 6.76556e-05 2.01408e-19)
(-0.0366822 0.134695 2.59042e-18)
(-3.69758e-05 2.93471e-05 -1.08016e-19)
(-5.52867e-05 -3.39175e-06 -2.0632e-19)
(-0.000229226 7.82024e-06 -6.22832e-19)
(-0.00598782 0.00179183 3.50196e-20)
(0.0990089 -0.0325998 -1.68622e-18)
(-0.00705142 0.0935491 3.82892e-19)
(-0.000653433 -0.00119929 -1.85078e-19)
(-0.00114144 -0.00110906 2.84723e-18)
(-0.00230366 0.0017254 1.52374e-19)
(0.176992 -0.0461981 4.19477e-18)
(-0.0530398 -0.0365152 1.02327e-18)
(-0.00019352 -4.05844e-07 -3.92167e-19)
(-0.00877726 -0.0117808 -1.05702e-19)
(-0.00313492 -0.00170372 -1.45691e-18)
(0.065273 0.112833 -3.16719e-18)
(-0.00576772 0.00469703 1.19466e-18)
(-0.00586751 0.0149424 2.99441e-19)
(-4.02691e-05 1.92424e-06 -2.06245e-19)
(-0.00567298 0.00283432 -3.39379e-19)
(-0.0211436 -0.0149975 -2.80903e-18)
(-8.40454e-05 -4.29138e-06 -2.13647e-19)
(-3.48037e-05 7.14256e-06 -3.13151e-19)
(-7.69626e-05 0.000101026 1.82216e-19)
(-4.13953e-05 8.85372e-05 -6.87919e-20)
(-0.00499903 0.00313288 -1.8037e-18)
(-0.0438223 -0.038009 -2.69782e-18)
(0.00682839 -0.050792 3.17164e-19)
(0.00363603 -0.356462 1.75759e-17)
(-0.00293755 0.0149977 -2.23822e-19)
(0.00433859 0.00113756 -1.4337e-20)
(-0.000229842 1.30746e-05 4.35578e-19)
(-4.12311e-05 8.3055e-05 -6.14235e-20)
(-0.0509593 -0.00888461 9.93906e-20)
(0.0563263 -0.0433017 -1.66267e-19)
(0.000275034 -0.000398664 -6.98984e-20)
(-0.0109128 -0.0132209 4.29484e-18)
(0.00271382 0.174798 -6.74031e-18)
(-0.0367927 0.0840669 -7.85872e-18)
(-5.00977e-05 -8.3066e-07 2.78004e-19)
(-2.6139e-05 -7.36622e-07 6.44161e-20)
(0.0244639 0.0093851 1.68647e-19)
(0.0394786 -0.0982941 1.55683e-18)
(-3.43007e-05 1.69272e-05 1.10213e-19)
(-0.023907 0.0390852 -1.94841e-19)
(-0.000176496 0.000184111 4.0304e-20)
(-0.000153302 8.78882e-06 -5.31701e-20)
(-0.00466064 -0.00562637 -8.2475e-20)
(-0.000259245 -4.70134e-06 4.72083e-19)
(-0.000708557 -0.000332591 -5.25682e-20)
(0.000471658 0.00149415 1.08152e-19)
(-7.29557e-05 1.35978e-05 7.53382e-20)
(0.00184605 0.00119854 3.62224e-19)
(-0.0424459 -0.0448719 -4.70532e-20)
(-0.00167604 -0.0161208 -1.85105e-17)
(0.0452894 0.0553088 -6.72947e-19)
(-0.00151226 -0.000475832 -1.36805e-19)
(7.69329e-05 0.000100946 -2.5516e-19)
(-0.178177 -0.032189 -4.36733e-18)
(8.68158e-06 -0.000151058 1.53432e-20)
(-0.164976 -0.0540437 6.93234e-18)
(-0.0135482 0.223372 -1.42256e-17)
(-0.000156485 0.000213275 4.24161e-20)
(0.0319983 0.0636074 5.38095e-18)
(0.00125451 0.00253016 1.59261e-19)
(-0.000364851 0.00066854 6.64566e-19)
(0.0604213 0.0654443 6.11176e-18)
(-0.00658353 -0.140992 2.99752e-21)
(-0.00632394 -0.138966 8.33444e-19)
(-0.232239 0.489756 1.98294e-17)
(-1.09563e-05 0.00172345 9.03075e-20)
(-0.00262276 0.415976 -1.45875e-18)
(-9.19426e-05 9.27719e-06 -3.65386e-19)
(0.0718244 -0.0553145 -1.15574e-17)
(-0.0504268 0.152489 4.53096e-18)
(-0.0125561 -0.00805999 9.54709e-19)
(-0.000852423 -0.00076399 -4.48131e-19)
(-0.0500933 -0.00124149 -9.62383e-18)
(-0.00298994 -0.00153195 -8.85277e-19)
(0.027708 -0.0168003 1.69798e-19)
(0.0300355 -0.140668 -3.20637e-19)
(-0.0349125 -0.0783309 -8.72641e-19)
(-0.000464475 -0.000315555 -8.06224e-19)
(-0.0137596 0.253603 -1.09908e-18)
(-7.41528e-05 -4.3575e-06 5.49113e-19)
(-0.0124104 -0.0136394 -5.93752e-18)
(-0.0212448 -0.0363922 4.80171e-18)
(-5.68881e-05 1.2887e-05 -3.3023e-19)
(-0.00933656 -0.000603901 -3.06554e-18)
(0.146742 0.00138768 -6.07821e-19)
(0.059855 0.0272413 -1.41766e-19)
(0.00546148 -6.70809e-05 1.47309e-20)
(0.000602995 -0.000854086 -2.23383e-19)
(-4.52855e-05 5.26412e-05 1.36399e-19)
(-0.000753861 0.000224121 -2.35179e-19)
(0.0015228 -0.00303411 -2.94966e-19)
(-0.00668488 -0.0116985 1.41395e-18)
(0.0468788 0.0209191 -3.10081e-19)
(9.24975e-05 5.68711e-05 3.32737e-19)
(-0.207274 0.000248196 5.36396e-19)
(0.00386349 0.000852914 2.89293e-19)
(-0.000196564 0.000401528 -5.50088e-20)
(-0.00281419 -0.00354007 -7.2486e-18)
(-7.54442e-05 6.52655e-05 -1.99246e-20)
(0.00313265 -0.0127239 -2.07896e-20)
(-0.000270563 6.46723e-05 3.81756e-20)
(-3.71262e-05 9.12026e-05 2.50706e-19)
(-0.0409387 -0.262471 2.12143e-18)
(-5.61149e-05 7.38048e-05 -8.3952e-20)
(-0.00151474 -0.00127423 3.24067e-19)
(-0.0618126 0.0885338 2.57825e-19)
(0.00472623 -0.0220048 -5.41213e-18)
(0.00984727 -0.0182667 1.69428e-17)
(-0.00024972 -0.000186393 6.26611e-18)
(-0.000353215 0.000254662 -6.76005e-20)
(-0.0274533 0.0169385 -2.11349e-20)
(-0.000418496 0.000136929 -3.58919e-20)
(0.0386453 -0.0890491 -4.594e-20)
(-0.00232912 -0.00194583 -6.69518e-18)
(0.0019716 -0.000338654 -5.52648e-19)
(-0.00152201 -0.000165452 3.88582e-18)
(-2.6881e-05 0.000445379 -2.44902e-20)
(-3.843e-05 3.09936e-05 3.03562e-19)
(-0.20026 -0.377362 1.31071e-17)
(-7.39239e-05 7.07071e-05 -4.91533e-20)
(-0.229201 -0.349351 4.39797e-18)
(-0.0240051 -0.080531 -3.11658e-18)
(-0.000930958 -0.000781593 -6.36049e-18)
(0.151608 -0.170719 7.55991e-20)
(-8.28658e-05 3.90099e-06 -2.78223e-19)
(-0.00646889 0.005757 8.3166e-19)
(0.00489159 -4.59885e-05 2.71682e-19)
(0.0906229 0.0713461 1.85838e-19)
(-0.00200458 -0.00197526 -6.52977e-18)
(-0.0386996 -0.0178139 -1.03271e-18)
(-0.0247981 0.0663233 -8.0114e-18)
(-4.08352e-05 3.84912e-06 5.40342e-20)
(-0.0512619 0.102513 -1.94015e-18)
(-4.708e-05 3.36856e-05 1.10955e-19)
(0.0239481 -0.127846 9.85206e-19)
(-0.000432573 0.00016543 -1.86008e-20)
(-0.000818561 -0.000165574 1.04572e-19)
(0.317195 -0.0481627 5.14099e-19)
(-0.0744357 0.0655127 6.54398e-19)
(-0.00025431 7.90514e-05 -5.67798e-20)
(-0.000303289 9.33858e-05 6.67735e-19)
(-0.000711651 0.00142263 -1.40495e-18)
(-9.29985e-06 -7.27347e-05 -3.70652e-20)
(-0.000247453 -0.000182359 -4.62275e-18)
(-0.0491871 -0.0444361 1.91408e-18)
(0.0359178 -0.06526 2.20898e-17)
(-0.000124092 -0.000396962 -6.65453e-19)
(-9.64466e-06 -7.74104e-05 1.26186e-19)
(-5.13943e-05 3.44823e-05 -5.16637e-19)
(0.14286 -0.025187 -6.60338e-20)
(0.00259923 0.0905852 -1.97868e-19)
(-7.33746e-05 0.0257754 -1.21816e-19)
(-7.13401e-05 3.3908e-05 1.2439e-19)
(-0.0135162 -0.00957069 9.10089e-19)
(-0.000791888 -0.000141177 -1.14774e-18)
(-0.000341908 0.000307553 5.51577e-20)
(-0.00302798 -0.00522589 8.82782e-18)
(-0.0467089 0.163651 8.42226e-18)
(-0.000192263 3.52068e-06 4.09956e-19)
(-0.0100493 -0.0140961 2.51695e-18)
(-0.0326361 -0.0774636 -1.04788e-18)
(0.00190357 -0.00117485 2.92313e-19)
(-0.0260474 0.0207896 1.02566e-19)
(-0.000365266 -0.000193496 1.56442e-18)
(-0.00488897 0.00563208 1.49661e-18)
(-0.000191413 1.91889e-06 6.3839e-20)
(-0.000192783 -0.000307076 -1.28974e-19)
(-0.00405285 -0.00275603 7.34784e-18)
(-0.000160294 0.000462558 4.88459e-21)
(-0.0202444 -0.0167746 2.42124e-18)
(-0.000155379 -6.25419e-05 2.26256e-18)
(0.212487 -0.0500976 -1.60866e-18)
(-7.21058e-05 1.74778e-05 2.52085e-21)
(-0.00251025 -0.0020213 5.17771e-18)
(-0.0224466 -0.0308468 -1.02884e-18)
(0.0481254 0.0428012 1.14572e-19)
(-0.0132047 -0.0125622 3.47791e-18)
(-2.5674e-05 2.39305e-06 1.48333e-19)
(-6.04192e-06 0.000424524 1.50714e-20)