/*--------------------------------*- C++ -*----------------------------------*\
| =========                 |                                                 |
| \\      /  F ield         | OpenFOAM: The Open Source CFD Toolbox           |
|  \\    /   O peration     | Version:  v2012                                 |
|   \\  /    A nd           | Website:  www.openfoam.com                      |
|    \\/     M anipulation  |                                                 |
\*---------------------------------------------------------------------------*/
FoamFile
{
    version     2.0;
    format      ascii;
    class       surfaceVectorField;
    location    "700";
    object      Uf;
}
// * * * * * * * * * * * * * * * * * * * * * * * * * * * * * * * * * * * * * //

dimensions      [0 1 -1 0 0 0 0];


internalField   nonuniform List<vector> 
14885
(
(1.04408 0.0285078 -1.1821e-21)
(1.04667 0.0224161 3.84415e-21)
(1.0497 0.0290134 -9.43296e-22)
(0.870289 0.242623 -9.26515e-21)
(0.880196 0.248793 -1.81489e-20)
(0.893309 0.223303 1.57516e-20)
(0.954393 0.0386766 0)
(0.955242 0.0452952 1.7029e-22)
(0.961456 0.0414931 0)
(1.01738 0.00198693 0)
(1.01753 0.00213375 0)
(1.01759 0.00196709 0)
(1.01307 0.000488932 7.86752e-23)
(1.01276 0.000364337 8.00493e-23)
(1.01316 0.000523555 5.73146e-22)
(1.01992 0.2467 1.33345e-20)
(1.04113 0.212566 -5.76439e-21)
(1.03478 0.238675 -1.22498e-20)
(0.795943 -0.133373 0)
(0.739644 -0.140005 6.49275e-23)
(0.857285 -0.116751 0)
(0.900575 -0.157007 -1.64294e-21)
(0.916472 -0.165691 0)
(0.910349 -0.19114 -2.80029e-21)
(1.01154 -0.000682079 -8.17959e-22)
(1.0116 -0.000831527 -7.60411e-22)
(1.01148 -0.000623681 -6.9222e-22)
(1.08866 0.0471395 -2.50405e-21)
(1.09355 0.0444301 -6.2023e-22)
(1.0941 0.0516094 -1.45082e-21)
(0.954034 0.0631362 7.00924e-22)
(0.942723 0.0624451 -5.60746e-22)
(0.953488 0.0529327 -2.86951e-22)
(0.85981 0.23281 -6.91864e-21)
(0.857042 0.251056 9.35336e-21)
(1.04338 -0.0038246 9.41505e-21)
(1.04207 -0.00335283 2.14141e-21)
(1.0432 -0.00216578 -4.03646e-21)
(1.01633 -0.00321969 1.03396e-21)
(1.01589 -0.00274784 1.21858e-21)
(1.0159 -0.00348199 1.46315e-24)
(1.03018 -0.000268043 1.60875e-21)
(1.03059 -0.000517047 2.95995e-21)
(1.03073 -7.45033e-05 -2.72359e-21)
(1.01699 -0.00373489 9.14434e-22)
(1.01668 -0.00296295 -8.57038e-22)
(0.983405 0.278609 -5.11976e-21)
(0.968532 0.290473 4.82024e-21)
(0.966439 0.279282 8.5973e-21)
(0.964188 0.0638039 6.23281e-22)
(0.955847 0.0731594 5.89388e-23)
(1.04419 0.00121231 -3.50618e-21)
(1.04462 0.0010363 0)
(1.04475 0.00144247 9.49008e-22)
(1.01484 0.0384194 -1.11972e-22)
(1.01724 0.0404614 2.02161e-22)
(1.0135 0.0414124 6.20843e-22)
(1.04493 -0.00424408 4.03189e-21)
(1.04395 -0.00576384 -5.75795e-22)
(1.04018 0.0353829 -1.81471e-22)
(1.03815 0.0275274 -3.29313e-22)
(1.01722 0.00181697 -6.13858e-22)
(1.01713 0.00198959 0)
(0.937135 -0.240029 -1.95803e-22)
(0.946376 -0.238541 -2.10145e-22)
(0.93392 -0.241323 -6.3574e-21)
(1.01415 0.00256776 2.3282e-22)
(1.01421 0.00269762 0)
(1.01414 0.00245202 9.37918e-24)
(1.00892 -0.000177597 0)
(1.00998 -0.000113898 -2.55462e-22)
(1.01084 -0.000127407 0)
(1.08297 0.0441031 -2.44372e-22)
(1.08297 0.0503871 3.26376e-22)
(1.01162 -0.000601964 3.70873e-22)
(1.01168 -0.00068272 -1.56011e-21)
(1.01172 -0.000674512 -6.43303e-22)
(1.00066 0.267843 -3.48015e-22)
(1.00248 0.255708 -1.08382e-21)
(0.934816 -0.230847 -8.79584e-21)
(0.931452 -0.227304 1.13385e-20)
(0.93068 -0.233371 6.07645e-21)
(1.01036 0.000213813 4.01277e-22)
(1.00886 4.78292e-05 -1.06628e-21)
(1.00873 8.69163e-05 1.08019e-21)
(1.04202 0.0189053 -5.96835e-21)
(1.03929 0.0181632 0)
(1.04035 0.0216203 -1.01298e-21)
(1.01164 -0.000784264 -1.81372e-21)
(1.01159 -0.000733582 -8.7815e-22)
(1.01173 -0.000905497 -1.85832e-21)
(1.01169 -0.000808871 9.31227e-23)
(1.01155 -0.000671955 1.32038e-21)
(0.887002 -0.146845 -1.61956e-21)
(0.890414 -0.115871 -9.97649e-23)
(0.934985 -0.0922263 -4.57576e-21)
(0.95402 -0.0956491 4.73251e-21)
(0.943762 -0.0533442 -9.03504e-21)
(1.01811 0.00025441 -3.12534e-24)
(1.01877 0.000443066 1.15625e-21)
(1.01911 0.000498102 1.28499e-21)
(1.01186 0.000716886 -1.02559e-22)
(1.01187 0.000675058 -2.19136e-23)
(1.01174 0.000636483 1.0109e-21)
(1.01149 0.00031321 -7.27143e-22)
(1.01134 0.000222587 1.59275e-21)
(1.02738 -0.00169732 7.42268e-23)
(1.02609 -0.00171443 3.19173e-22)
(1.027 -0.00288217 5.70683e-23)
(0.936983 -0.235991 3.02289e-21)
(0.94391 -0.229529 -7.30418e-21)
(1.01147 -0.000572319 9.20945e-22)
(0.941951 -0.0511928 4.70248e-20)
(0.969635 -0.054935 -8.61672e-21)
(0.946397 -0.0436717 -3.0897e-21)
(0.880467 0.175684 -3.85411e-22)
(0.886123 0.160973 0)
(0.86769 0.16941 2.34142e-21)
(1.01605 0.00336825 -5.3115e-22)
(1.01585 0.00319563 -2.08405e-23)
(1.01605 0.00315199 4.00313e-22)
(1.01412 0.00242447 -1.25689e-22)
(1.01412 0.00264318 1.44845e-22)
(1.01317 -0.000937824 0)
(1.01311 -0.000929178 0)
(1.01313 -0.000876814 0)
(1.02952 -0.000338059 0)
(1.02973 0.00010426 0)
(1.10131 -0.00642692 -1.70084e-23)
(1.10053 -0.0132287 8.52753e-23)
(1.09551 -0.00897955 5.32633e-23)
(0.452234 -0.0403005 1.00427e-20)
(0.387234 -0.0413975 -3.0103e-21)
(0.430883 -0.0113915 -9.30821e-21)
(0.862563 -0.0414777 1.2278e-20)
(0.92457 -0.0611612 1.89989e-20)
(1.01462 0.00135365 -1.00552e-22)
(1.01479 0.00132712 3.41877e-23)
(1.01469 0.00150276 1.06066e-23)
(0.995359 0.265274 4.93197e-21)
(1.04389 0.00149357 -6.68974e-21)
(1.04363 0.0011527 -2.73652e-21)
(0.72937 -0.199267 -2.57856e-20)
(0.762284 -0.175402 1.34669e-21)
(0.775555 -0.133242 -7.18788e-21)
(0.560573 -0.0809591 -3.62578e-20)
(0.44296 -0.0194026 -1.83788e-20)
(0.553863 -0.101667 -2.61422e-20)
(1.04641 -0.00418187 0)
(1.04573 -0.0028353 0)
(0.980563 0.0330018 -1.02617e-21)
(0.981344 0.0402743 9.26343e-22)
(0.974988 0.0357078 1.69179e-21)
(1.03046 0.00558943 1.08448e-22)
(1.03111 0.00580108 -1.67124e-22)
(1.0305 0.00611924 4.26376e-21)
(1.01602 -0.000864397 3.40998e-23)
(1.01594 -0.000776183 5.83124e-23)
(1.01605 -0.000809307 4.8975e-23)
(1.10101 0.000329945 1.92765e-21)
(1.10806 -0.00305449 -2.77248e-23)
(0.771059 -0.203416 9.92571e-21)
(0.741853 -0.225843 1.85198e-20)
(0.723678 -0.245574 1.06847e-20)
(0.984135 -0.0520585 1.03694e-20)
(0.978735 -0.0393133 1.02755e-20)
(0.880427 -0.174134 1.53083e-21)
(0.888023 -0.18719 -5.06512e-21)
(0.893324 -0.197515 0)
(0.972767 -0.0190805 1.29905e-21)
(0.966509 -0.014219 7.31407e-22)
(0.963198 -0.0213984 -5.51101e-21)
(1.01465 -0.000666361 1.2719e-21)
(1.01422 -0.000736585 1.61622e-21)
(1.01487 -0.00130969 -1.26855e-21)
(1.01099 0.0344346 -1.94216e-22)
(1.01269 0.0364637 -2.69835e-22)
(1.00941 0.0368016 -2.55678e-22)
(1.06063 0.00395525 0)
(1.06248 7.98663e-05 -6.00655e-22)
(1.05889 -0.00697889 2.95433e-22)
(1.01345 -0.00106253 3.06747e-22)
(1.01339 -0.00104992 1.07286e-21)
(1.01349 -0.00111964 0)
(1.05969 0.0071256 0)
(1.06208 0.0140683 0)
(0.778162 -0.0172567 -2.56579e-22)
(0.673733 0.00839471 9.35235e-21)
(0.736238 -0.0195974 0)
(1.02921 0.0204413 5.09707e-22)
(1.02828 0.0216176 -3.20631e-22)
(1.02765 0.0199872 1.66423e-22)
(1.01424 0.00160007 -7.63834e-22)
(1.01453 0.00154538 -2.62617e-23)
(1.01414 0.00138097 3.47818e-23)
(1.03041 0.0050717 4.63485e-22)
(1.0298 0.00537881 -2.8956e-21)
(1.01454 -0.00018773 -4.26521e-22)
(1.01507 -0.000549433 7.42968e-22)
(0.813261 -0.0156937 5.58509e-21)
(0.986068 0.0265439 1.0025e-21)
(0.987439 0.0209566 0)
(0.982671 0.0221994 0)
(1.01325 -0.00101886 0)
(1.01325 -0.000961626 -1.03575e-21)
(0.989873 0.0295096 -9.65952e-22)
(0.984737 0.0322777 8.36208e-22)
(1.04463 0.000697622 -3.75017e-22)
(1.04509 0.00100017 -2.45466e-21)
(0.876559 0.188169 -5.4815e-21)
(0.892776 0.181104 2.8815e-21)
(0.93174 -0.23913 7.53634e-22)
(1.00473 0.000115582 0)
(1.00833 0.000194489 -5.26597e-22)
(1.00449 8.44261e-05 0)
(1.01359 0.000836443 2.07896e-23)
(1.01347 0.000834061 -9.15683e-23)
(1.01351 0.000944012 -2.21097e-22)
(1.04992 0.0557776 4.88965e-22)
(1.04913 0.0599598 0)
(1.05467 0.058091 6.15536e-23)
(1.16566 -0.0180382 5.97926e-23)
(1.15595 -0.0129883 -3.36966e-22)
(1.1598 -0.0268373 -1.50535e-22)
(1.01237 0.0324225 -4.75142e-22)
(1.00945 0.0322646 -1.0695e-21)
(0.955218 0.0320098 -1.92319e-21)
(0.947324 0.0355982 -1.77341e-21)
(1.0151 0.00211715 1.95241e-21)
(1.01487 0.00192301 -2.67196e-22)
(1.0148 0.00206864 3.13233e-21)
(0.978268 0.00937043 0)
(0.975307 0.00395872 9.88747e-22)
(0.981001 0.00449998 -4.06604e-22)
(1.04589 0.00087177 4.37178e-21)
(1.04564 0.000526586 -3.35571e-22)
(1.04552 0.00108078 5.48253e-21)
(1.03057 -0.000978151 -3.9331e-21)
(1.03118 -0.00080564 5.96589e-21)
(0.988914 -0.0434849 -5.43327e-21)
(0.992929 -0.0607527 -1.12163e-20)
(1.17472 -0.00656061 0)
(1.15532 -0.0280682 0)
(0.983779 -0.0376765 4.09553e-21)
(0.975602 -0.0357028 -1.62304e-21)
(0.974279 -0.0418217 -1.62083e-21)
(1.01926 0.00784855 6.20259e-23)
(1.01924 0.00831341 -5.78202e-23)
(1.0188 0.0079272 -1.15306e-21)
(-0.0144961 0.325984 5.35972e-21)
(-0.027774 0.312476 4.20959e-21)
(1.01596 0.0360521 -2.55113e-22)
(0.800519 0.127427 4.4546e-21)
(0.800856 0.135392 8.96532e-21)
(0.789333 0.0971664 -5.98202e-21)
(1.0303 0.00464227 3.87204e-22)
(1.03019 0.00418118 -2.05801e-21)
(1.02964 0.00446993 -6.14823e-24)
(1.04611 0.00134638 0)
(1.04647 0.000927342 0)
(1.11624 0.0578674 0)
(1.1241 0.0601822 0)
(1.12044 0.0497295 0)
(1.02735 0.0128146 5.42271e-22)
(1.0267 0.0134812 -8.84079e-23)
(1.0263 0.0125766 4.38101e-22)
(1.04529 0.0147503 5.88467e-21)
(1.0468 0.013316 -6.11393e-22)
(1.04557 0.00228273 -3.368e-21)
(1.04589 0.00234064 2.65111e-23)
(1.04591 0.00204663 -1.86694e-22)
(1.0261 0.00999178 4.14719e-22)
(1.02564 0.00943358 -1.07222e-22)
(1.02535 0.00999251 8.59667e-22)
(0.870338 -0.423117 6.96257e-21)
(0.905895 -0.426487 -4.17938e-21)
(0.859627 -0.428552 5.78179e-21)
(1.01445 0.000315304 -1.05633e-21)
(1.01407 0.000362523 1.02248e-21)
(0.860993 -0.122199 1.54588e-21)
(0.756958 -0.152236 0)
(1.02694 0.00990665 -1.24141e-21)
(1.02664 0.0105337 -8.22003e-22)
(1.02865 0.00609196 -1.95672e-21)
(1.02932 0.00634174 -8.52062e-22)
(1.02923 0.00570088 -1.5206e-21)
(0.92619 -0.105755 3.55446e-22)
(0.975812 -0.0946585 1.44339e-20)
(1.10653 0.0550903 -9.47113e-22)
(1.1102 0.0652656 -1.79975e-21)
(0.875843 -0.159648 -2.71122e-21)
(0.868254 -0.143946 5.27307e-21)
(0.97844 -0.0224142 1.65867e-21)
(0.979654 -0.0158624 -4.63994e-22)
(1.01382 -0.00126363 2.88695e-21)
(1.01373 -0.00122529 7.28912e-22)
(1.01384 -0.00128577 8.18705e-22)
(1.05968 -0.0245297 -6.37452e-22)
(1.05315 -0.0244393 8.43319e-22)
(1.05944 -0.0311979 0)
(1.00921 0.000235135 -3.48097e-23)
(1.01029 0.00018823 1.12787e-22)
(1.01122 0.000157889 1.71946e-22)
(0.979704 0.0268463 -5.69598e-22)
(0.985016 0.0307878 -5.93533e-22)
(1.014 -0.00136674 -1.36595e-21)
(1.01402 -0.0013537 -4.81423e-22)
(1.01411 -0.00143675 8.82943e-22)
(1.01609 -0.000939219 -1.54355e-22)
(1.01598 -0.000909549 6.76953e-23)
(0.817278 0.201189 -9.52382e-21)
(0.83269 0.216885 -6.11175e-21)
(0.836612 0.184326 -3.63227e-21)
(0.807688 0.207641 3.71168e-21)
(0.805107 0.174847 -9.4452e-21)
(1.01624 0.003553 -4.92426e-22)
(1.01603 0.00359572 -1.12649e-22)
(0.98096 0.0136052 1.39185e-21)
(0.974353 0.0137686 0)
(1.01568 0.0026239 -7.85402e-22)
(1.01535 0.00232878 4.32008e-22)
(1.0153 0.00257373 7.7273e-22)
(1.01596 0.00284688 0)
(1.01601 0.00254233 0)
(0.697449 -0.240537 -4.59586e-20)
(0.700183 -0.212204 -3.22426e-20)
(0.952462 0.0280996 6.07734e-22)
(0.945262 0.0284343 3.05486e-22)
(0.951585 0.037992 5.45816e-22)
(1.0677 -0.0231824 -5.87503e-22)
(1.05845 -0.0178067 -5.50453e-21)
(1.01164 0.000904623 -9.05924e-22)
(1.01159 0.000803144 -3.91665e-22)
(1.01152 0.000768709 -3.00501e-21)
(1.01531 0.00045067 4.7049e-22)
(1.01558 0.000180953 -2.32368e-22)
(1.01519 0.000330017 1.62019e-22)
(1.01612 0.00430226 -7.76016e-23)
(1.01556 0.00405785 1.74955e-21)
(1.01572 0.00474799 8.81887e-22)
(1.0135 0.00212455 -8.93859e-22)
(1.01372 0.00208883 6.50621e-22)
(1.01372 0.0016595 8.27812e-22)
(0.974886 -0.0892583 -9.28247e-22)
(0.890103 -0.118357 4.00484e-22)
(0.672644 -0.0611569 -1.45487e-20)
(0.630369 -0.0446698 -6.95148e-21)
(0.74805 -0.0563621 -9.03718e-21)
(1.00276 0.0289783 6.41137e-22)
(1.00369 0.0315402 -3.96126e-22)
(1.00061 0.0307759 2.93897e-22)
(0.903651 -0.357796 -2.45577e-20)
(0.88222 -0.341497 1.50363e-20)
(1.04012 0.00408917 1.89896e-21)
(1.04089 0.00417357 -4.02763e-22)
(1.0404 0.00360501 6.5536e-21)
(0.805215 0.118542 6.64107e-21)
(0.814859 0.149003 2.26632e-21)
(1.0146 -0.03161 0)
(1.00866 -0.0288541 0)
(1.01514 -0.0239175 -8.16378e-22)
(1.01077 3.44344e-05 2.2063e-22)
(1.01097 -4.32906e-06 -8.90867e-22)
(1.01114 -7.35045e-06 -8.30918e-22)
(0.839046 -0.413211 0)
(0.876113 -0.39747 2.19798e-21)
(1.01154 -0.000521579 -8.98511e-22)
(1.01161 -0.000519438 0)
(1.05313 0.0114482 0)
(1.0517 0.0112112 0)
(1.05305 0.00991135 -1.56202e-21)
(1.01185 0.000750021 -1.15479e-21)
(1.01199 0.000810737 -1.05337e-21)
(1.05102 0.0521007 -3.5667e-21)
(1.04621 0.0537735 4.59134e-22)
(1.01348 -0.0010171 7.61123e-22)
(1.01354 -0.00109586 5.37365e-22)
(1.02038 0.0195838 -1.81666e-22)
(1.02163 0.0200467 -3.78662e-22)
(1.02044 0.0207839 -1.46717e-22)
(0.99094 -0.0634177 -1.82786e-20)
(1.00137 -0.0956912 2.06036e-20)
(0.977752 -0.114772 -1.1938e-20)
(1.01441 0.000763829 -6.0697e-22)
(1.0148 0.000321184 0)
(1.00935 7.74193e-05 -1.7308e-22)
(1.01029 2.68791e-05 1.90579e-21)
(1.00986 4.24147e-05 2.65734e-21)
(1.04236 0.00403742 -1.19526e-21)
(1.04166 0.00413469 4.0706e-22)
(1.04182 0.00356253 2.07218e-21)
(1.03886 -0.00528208 -9.99172e-22)
(1.03679 -0.00612324 -4.05876e-21)
(1.03751 -0.00354815 -2.73437e-21)
(0.991444 -0.0379521 2.95301e-21)
(0.990942 -0.0325772 1.60293e-21)
(1.05331 0.0131412 0)
(1.05488 0.0116636 0)
(0.962955 0.0257313 0)
(0.953702 0.0179523 0)
(0.690841 -0.149787 -1.69459e-20)
(0.579931 -0.0717178 5.35113e-23)
(1.01681 0.00460358 -2.46495e-21)
(1.01645 0.00393766 1.05194e-21)
(1.008 -0.000180815 0)
(1.00655 -0.000228705 0)
(1.01267 0.00045886 -2.14116e-22)
(1.01154 0.000351399 0)
(1.01135 0.000327516 0)
(1.02882 -0.00168129 8.10178e-23)
(1.02764 -0.000541508 -1.29787e-23)
(0.727125 -0.0777149 9.54891e-21)
(0.618837 -0.0743388 -7.92286e-21)
(1.01543 0.00212128 9.94694e-22)
(1.03813 0.00425339 4.92323e-23)
(1.03856 0.00380623 3.45833e-21)
(1.03776 0.00366455 -1.15905e-21)
(1.00373 0.000656294 8.49486e-22)
(0.974706 -0.0101856 -2.77629e-20)
(1.01391 0.00163198 8.91686e-22)
(1.01424 0.00185399 -8.10447e-22)
(1.04358 0.0168527 -2.02664e-21)
(1.0428 0.0141307 -2.96088e-21)
(0.925282 -0.129922 0)
(0.91432 -0.0879976 -5.82682e-21)
(1.0117 -0.000802943 8.76089e-22)
(1.01171 -0.000802742 0)
(1.0116 -0.000709707 0)
(1.00057 -0.0469982 -3.19378e-21)
(0.991576 -0.047924 -1.60534e-22)
(0.991319 -0.0522675 1.18475e-21)
(0.924566 -0.228833 6.1432e-21)
(0.928882 -0.223274 7.35587e-21)
(0.779864 0.132166 8.23563e-22)
(0.77029 0.0713261 8.28253e-22)
(0.765274 0.113145 -6.99622e-21)
(1.01183 -0.00092979 9.52996e-22)
(1.04412 0.00182136 1.20456e-21)
(1.04355 0.00176662 -4.09565e-21)
(0.795491 0.148808 0)
(0.790589 0.173642 0)
(1.0145 0.00333536 0)
(1.0146 0.00354116 4.45277e-23)
(1.01462 0.0033219 0)
(1.01181 0.000781234 1.89954e-21)
(1.01171 0.000687276 -9.96088e-22)
(1.01536 0.000554446 4.45108e-22)
(1.01505 0.00067181 -9.26278e-23)
(1.01336 -0.00107148 4.67788e-22)
(1.01332 -0.0010092 3.43758e-22)
(1.03934 0.00393031 2.50964e-22)
(1.03975 0.00460318 -3.83629e-21)
(1.04677 0.00335286 -1.92074e-21)
(1.04734 0.0033063 -5.1484e-21)
(1.04696 0.0028923 -3.58664e-21)
(1.03094 0.00477746 5.42911e-22)
(1.01387 -0.00115803 -7.51721e-24)
(1.01384 -0.00118946 1.74314e-22)
(1.01376 -0.0011027 0)
(1.05723 -0.0100948 0)
(1.05654 -0.0205242 -3.71283e-22)
(1.05983 -0.00976331 2.17543e-23)
(1.04584 0.00317841 0)
(1.04629 0.00349152 0)
(1.04563 0.0036804 0)
(1.02993 0.0193969 -1.28237e-22)
(1.03081 0.0209466 1.31374e-22)
(1.01585 -0.000671442 0)
(1.01586 -0.000718461 0)
(1.01577 -0.00063908 0)
(0.402387 0.0633671 3.40015e-21)
(0.368533 0.0437229 -1.6507e-22)
(0.327581 0.0735078 -5.50784e-21)
(1.01051 0.000173075 0)
(1.01147 0.000141425 2.49501e-22)
(1.011 0.000149748 0)
(0.877539 0.261276 -8.13511e-21)
(1.04748 -0.00573786 -2.19743e-21)
(1.04778 -0.00413061 2.17793e-21)
(1.01167 0.00102066 -6.43407e-23)
(1.01177 0.00103544 0)
(1.04604 0.00315414 6.96206e-21)
(1.04621 0.00371203 2.79573e-21)
(0.665979 -0.21963 -1.72355e-20)
(0.681888 -0.220656 3.37075e-21)
(0.673195 -0.242015 -1.41123e-20)
(1.03013 -0.00112829 -8.54686e-21)
(1.03065 -0.00139544 -4.16172e-21)
(0.900934 0.133847 -1.57165e-20)
(0.833642 0.154506 -6.42123e-21)
(0.882768 0.119763 4.39494e-21)
(1.02031 -0.0475094 -2.86399e-21)
(1.01114 -0.050689 7.75305e-22)
(1.01167 -0.0534643 7.62454e-22)
(0.0633045 0.3436 -1.1475e-20)
(0.122683 0.343507 3.10859e-21)
(0.0906779 0.343289 5.06545e-22)
(1.01366 0.000768767 -2.96778e-22)
(1.01369 0.000856316 -3.35441e-22)
(0.937693 0.0303856 -4.36698e-22)
(0.930068 0.0336066 2.51974e-22)
(0.939391 0.0429672 -3.73352e-21)
(0.993143 -0.036621 -8.27709e-22)
(1.00143 -0.0324342 0)
(0.998576 -0.0414832 4.15335e-21)
(0.974925 -0.123208 2.20356e-22)
(0.971089 -0.117504 -2.01858e-22)
(0.990613 -0.110863 -1.02605e-22)
(1.01198 -0.000370258 5.27858e-22)
(1.01155 -0.000329138 -3.24345e-22)
(1.01178 -0.000362274 -4.17238e-22)
(0.809788 0.140446 9.63917e-21)
(0.814603 0.16949 5.55785e-21)
(1.01507 0.0038164 5.77069e-22)
(1.01537 0.00355943 -9.00398e-24)
(0.988305 -0.201876 -6.41909e-21)
(0.987726 -0.185613 1.15271e-21)
(1.00583 -0.178522 0)
(1.04069 -0.00431534 -3.47702e-21)
(1.04036 -0.0067957 5.72579e-22)
(1.02799 0.00571695 1.96716e-22)
(1.02806 0.00633251 1.99464e-21)
(1.01333 0.00205612 -3.07026e-22)
(1.01336 0.00245813 2.20571e-22)
(1.0448 0.0195363 -4.62366e-21)
(1.01221 -0.00045829 0)
(1.01215 -0.000414242 0)
(0.962448 -0.133602 2.45848e-24)
(0.979731 -0.127275 5.99526e-22)
(0.967866 -0.112601 -4.34065e-22)
(0.984786 -0.102413 0)
(0.964654 -0.106761 0)
(1.01756 0.000372904 0)
(1.01837 0.000555694 0)
(1.01723 0.000375777 0)
(1.05791 0.00444894 0)
(1.05692 -0.00358252 -4.21326e-22)
(1.05504 0.00361803 0)
(1.01219 -0.000397494 4.12975e-22)
(1.01209 -0.000394985 3.94304e-22)
(1.01248 -0.000450133 1.06076e-21)
(0.762766 -0.0756083 2.02162e-21)
(0.762812 -0.0309024 1.96878e-21)
(0.753659 -0.0305007 7.87489e-21)
(1.01653 0.000978955 -2.98893e-22)
(1.01647 0.00103515 -2.71029e-22)
(1.01665 0.00110894 9.23726e-22)
(0.938735 0.0164089 -9.8623e-22)
(0.557283 0.224381 2.26145e-20)
(0.593902 0.223805 8.34604e-21)
(0.664956 0.18583 2.82809e-22)
(1.00897 -0.0446651 -1.19848e-21)
(1.00738 -0.0410069 1.63121e-22)
(0.434772 0.265071 -4.39735e-21)
(0.502377 0.231084 -6.85828e-21)
(1.05655 0.0113427 0)
(1.0177 0.00223956 0)
(1.0175 0.00225925 4.87569e-22)
(0.986041 -0.0285868 -8.16891e-22)
(1.0195 0.0161636 0)
(1.01845 0.0165459 0)
(1.01867 0.0154516 0)
(1.002 0.0265823 3.89991e-22)
(1.00463 0.027693 5.96639e-22)
(1.0733 0.0437763 6.54623e-22)
(1.07775 0.0412868 1.9379e-21)
(1.07273 0.0383656 -5.39911e-23)
(1.02784 0.0123592 -1.46334e-21)
(1.02818 0.0132651 1.50458e-22)
(1.01176 0.000795513 1.88633e-21)
(1.01191 0.000885037 -4.29397e-22)
(1.01596 0.00317549 0)
(1.01632 0.00303045 3.24249e-22)
(1.04577 0.00259467 0)
(1.04536 0.0027572 9.154e-21)
(1.00839 0.000130219 7.00399e-22)
(1.00656 0.00018065 6.64958e-22)
(1.01442 0.00314214 0)
(1.0144 0.00332296 -3.33748e-22)
(0.932901 -0.171174 1.47631e-21)
(1.00091 0.0192026 -7.10875e-22)
(1.00109 0.0214921 9.27472e-22)
(0.998699 0.0197925 -9.17308e-22)
(0.0217991 0.335617 -1.91543e-21)
(0.00600063 0.329595 1.3037e-20)
(1.0502 0.0115931 1.91501e-22)
(1.05022 0.01021 0)
(0.957364 -0.231955 3.00865e-21)
(0.958182 -0.23178 1.3446e-20)
(0.799853 -0.12599 7.64549e-22)
(0.818309 -0.137127 5.1216e-21)
(0.817331 -0.163425 -1.44796e-21)
(0.895053 -0.157887 2.69859e-21)
(0.880094 -0.166281 2.10194e-21)
(0.892473 -0.174293 -6.25845e-21)
(1.01619 -0.00100774 4.16146e-23)
(1.01622 -0.000961009 -1.26671e-22)
(1.03032 -0.0015517 -1.98963e-23)
(1.02985 -0.00298538 2.19723e-22)
(0.907254 0.0889658 8.68085e-21)
(0.915863 0.148792 4.19972e-20)
(0.853936 0.0574378 2.17865e-20)
(1.01302 0.000502514 1.21081e-23)
(1.01322 0.000521297 -4.27641e-23)
(0.910162 -0.149442 -7.57149e-22)
(0.898439 -0.140825 2.85653e-22)
(1.04844 0.0117205 -1.89587e-21)
(1.0495 0.0131106 -1.30373e-21)
(1.04287 0.00377627 -3.65914e-21)
(1.04281 0.0042218 -4.32836e-21)
(1.01186 0.000278676 0)
(1.01242 0.000308476 0)
(1.04523 0.00213115 -6.26732e-21)
(1.04506 0.00241672 -2.63627e-21)
(1.0117 0.00114447 -1.92471e-22)
(1.01157 0.000975939 1.05987e-21)
(1.1174 0.0653381 -9.19178e-22)
(1.11589 0.0795012 0)
(1.11696 0.0534594 0)
(0.985726 0.0822415 -7.33223e-21)
(0.961806 0.0303601 0)
(0.923909 0.0070264 0)
(1.02038 0.0180941 -1.19945e-22)
(1.01919 0.0187156 -2.04858e-22)
(1.00093 0.0170052 1.83734e-21)
(1.0028 0.0187895 4.96779e-22)
(1.01008 9.26153e-05 9.57903e-22)
(1.00921 0.000146779 5.69978e-22)
(1.01557 0.0180183 -2.09082e-23)
(1.01491 0.0191366 0)
(1.01636 0.0190786 0)
(-0.0230992 0.301815 2.02729e-20)
(-0.0387026 0.304312 9.69867e-21)
(1.0159 0.00128269 5.72389e-22)
(1.01599 0.00141044 3.74145e-22)
(1.01609 0.00121691 1.37378e-22)
(0.972066 -0.0014526 1.92333e-21)
(0.967983 0.00352672 2.00715e-21)
(1.01243 0.000799434 0)
(1.01259 0.000819762 0)
(1.0124 0.000727921 1.02628e-21)
(1.01446 0.00140369 2.30216e-23)
(1.01454 0.00124678 3.54943e-23)
(1.01302 -0.000915753 -1.67554e-22)
(1.0131 -0.00100079 9.55207e-22)
(1.04071 -0.002195 -1.78316e-21)
(1.00694 0.14516 -2.91406e-21)
(1.0549 0.166103 1.24005e-20)
(0.969438 -0.00761124 -4.77439e-21)
(0.976523 -0.00624325 5.91682e-21)
(1.11798 0.0520676 -8.59958e-22)
(1.11287 0.0698312 6.23622e-21)
(1.00499 -8.50042e-05 0)
(1.00355 -0.000100487 4.3627e-22)
(1.00718 -8.07444e-05 0)
(1.01567 0.00331353 -5.8188e-22)
(1.01619 0.00352582 1.6743e-21)
(1.02279 0.000674996 8.45661e-23)
(1.02251 0.000794725 -7.3946e-22)
(1.02287 0.000895528 -2.11671e-21)
(0.536724 -0.0396924 5.71177e-21)
(0.477808 -0.0602126 5.77409e-21)
(1.01354 -0.00119503 6.21006e-22)
(1.01356 -0.000934657 8.24733e-23)
(1.01379 -0.00124184 3.3358e-21)
(0.574918 0.0311728 1.79633e-21)
(0.615315 0.0374657 1.2727e-20)
(1.0148 0.0169122 -1.38577e-22)
(1.01614 0.0169211 -2.28794e-22)
(0.98124 0.0104131 -1.38434e-21)
(0.98016 0.0157142 0)
(0.976208 0.0106888 0)
(1.03888 -0.000817321 9.34952e-22)
(1.03946 -0.0011336 2.22211e-21)
(1.03957 -0.000486019 2.5014e-21)
(1.015 0.00304345 2.89275e-23)
(1.01515 0.00322961 1.67183e-23)
(1.01499 0.00320307 -3.48845e-24)
(1.00682 8.81283e-05 -9.68837e-22)
(1.00369 -6.11337e-05 -4.82016e-22)
(0.657827 -0.191973 2.08829e-20)
(1.01175 -0.000777429 -4.89747e-22)
(1.01165 -0.000695866 -1.42793e-21)
(0.852618 -0.140821 1.95141e-21)
(0.83465 -0.141438 -4.00802e-22)
(0.845051 -0.123399 -4.25101e-22)
(0.93069 0.122059 -1.12359e-20)
(0.913345 0.145785 -1.28268e-20)
(1.03837 -0.000354189 -2.31038e-21)
(1.03812 -0.000882756 -2.53352e-21)
(1.01708 4.13849e-05 -2.55542e-21)
(1.01286 -4.52673e-06 -1.9771e-21)
(1.01222 7.46718e-05 -5.54046e-23)
(0.188071 0.314819 -3.64131e-21)
(0.160905 0.307961 0)
(0.129546 0.320804 1.75146e-20)
(1.06224 -0.00211819 -3.98361e-22)
(1.05848 0.00320342 0)
(1.06658 0.00195904 0)
(1.01334 -0.00124081 1.49157e-22)
(1.01345 -0.00124992 -8.8379e-22)
(1.0135 -0.00129258 -2.49118e-22)
(1.02351 0.0330306 -5.45029e-22)
(1.02951 0.0366287 4.43026e-22)
(1.02829 0.0300389 2.49537e-22)
(1.00893 3.11524e-05 -1.10519e-21)
(1.00818 7.62944e-05 -1.10095e-21)
(1.05011 -0.00318402 -2.00889e-21)
(1.05037 -0.00471919 -1.71974e-21)
(1.049 -0.00366327 4.895e-22)
(1.04497 0.0053223 -1.43026e-21)
(1.043 0.00203945 4.36631e-22)
(1.04757 0.0025996 4.14955e-22)
(1.01179 0.000194025 -5.07466e-22)
(1.0161 0.00024395 -6.73443e-22)
(1.0114 0.000210749 1.05843e-21)
(0.831684 -0.175259 0)
(0.842014 -0.198113 0)
(0.849824 -0.184487 -1.64565e-21)
(0.960414 -0.00918551 -1.44125e-21)
(1.01814 -0.00240211 -3.5706e-22)
(1.01888 -0.00265321 1.28855e-21)
(1.01838 -0.00200087 0)
(0.981828 0.13955 1.84581e-23)
(0.992399 0.138142 -8.61807e-22)
(0.984818 0.1311 0)
(1.00147 0.0237966 1.07133e-21)
(0.999127 0.0250036 -8.36424e-23)
(1.02268 0.000452027 6.83556e-22)
(1.02307 0.00055869 3.11522e-21)
(1.01194 -0.000336698 -1.5465e-22)
(1.01237 -0.000472944 7.38182e-22)
(1.04138 0.00470555 -5.70887e-21)
(0.952383 -0.122895 1.79886e-21)
(1.01577 -0.000615426 -4.52415e-23)
(1.01593 -0.000680653 -1.25355e-23)
(0.78316 -0.109297 0)
(0.791528 -0.0888927 1.07873e-22)
(1.06385 -0.00779685 -3.35557e-22)
(1.05748 -0.00509363 -1.00539e-21)
(0.823205 -0.158569 -1.04437e-20)
(0.79437 -0.185961 -3.81461e-21)
(1.01351 -0.00146917 -2.18147e-21)
(1.01341 -0.0018572 5.54547e-22)
(1.0138 -0.0019359 -4.85872e-22)
(1.03074 -9.41268e-05 -2.33726e-22)
(1.03224 -0.0012573 3.88633e-22)
(0.979283 0.148324 1.80973e-23)
(0.971927 0.140538 -5.9984e-23)
(0.825691 -0.154317 0)
(0.815789 -0.161028 -6.76634e-21)
(1.01572 0.000154595 -3.08437e-21)
(1.01734 0.000280282 1.71644e-23)
(1.01391 0.00196296 0)
(1.01403 0.00166556 0)
(1.01406 0.00188035 0)
(1.0197 0.00764316 -1.2691e-22)
(1.01922 0.00731348 -4.68577e-22)
(1.01789 -0.0027535 -3.24415e-22)
(1.0176 -0.0021486 -1.72943e-21)
(1.0421 0.00791644 -3.4706e-22)
(1.04662 0.00877829 0)
(1.01895 0.0297427 1.96599e-21)
(1.01799 0.0360454 1.69172e-22)
(1.01297 -0.00091197 -1.067e-21)
(1.01299 -0.000863485 -1.3739e-22)
(1.05449 -0.0120509 0)
(1.05764 -0.00402132 0)
(0.968644 -0.222688 -8.6147e-22)
(0.982516 -0.213421 1.13779e-20)
(0.976292 -0.210683 5.85505e-21)
(1.01391 -0.00131176 6.06372e-22)
(1.01381 -0.00123934 2.41808e-22)
(1.0074 -0.000135848 0)
(1.00733 -0.000102958 4.82922e-22)
(1.00521 -7.63368e-05 -1.09865e-21)
(0.482141 0.05158 -1.01343e-21)
(0.535939 0.021727 -1.64472e-20)
(0.982443 0.00611995 -1.35112e-21)
(0.985284 0.010719 -4.56107e-21)
(1.03302 -0.0888164 -3.23713e-21)
(1.02421 -0.101597 -1.67555e-21)
(1.03564 -0.0981873 6.36784e-21)
(1.05449 -0.030823 5.01532e-21)
(1.05776 -0.0345952 2.32345e-21)
(1.05118 -0.044078 4.30143e-22)
(1.01776 0.000325485 0)
(1.01529 0.000222049 0)
(1.03994 -0.0205662 -9.58024e-22)
(1.04014 -0.0169146 9.97325e-22)
(1.03584 -0.017929 9.82725e-22)
(1.01537 0.000643423 -2.48986e-22)
(1.01566 0.000454834 6.02788e-22)
(1.00341 0.0231851 2.46164e-21)
(1.05112 -0.00241134 -1.66082e-22)
(1.04986 -0.00187653 -2.03463e-22)
(1.01467 0.00409169 -1.45382e-22)
(1.01463 0.00357957 -1.6451e-22)
(1.02444 0.00643682 -1.11379e-21)
(1.02404 0.00604399 -1.25521e-22)
(1.02461 0.00599152 2.08603e-23)
(1.05017 0.0168325 -1.97257e-21)
(1.04492 0.0174011 1.78317e-22)
(1.01014 0.000109019 -1.07557e-21)
(1.00886 8.29132e-05 -4.53588e-22)
(1.0101 0.00013111 3.69099e-22)
(0.986005 -0.211522 2.2319e-21)
(0.972425 -0.220898 5.66029e-23)
(1.03548 0.0397685 -2.56599e-23)
(1.02943 0.0444592 1.91377e-22)
(0.709053 -0.375266 8.70487e-22)
(0.775683 -0.395251 0)
(0.747046 -0.388242 5.99177e-21)
(1.03041 -0.080559 4.38888e-21)
(1.04093 -0.0759739 -8.83929e-23)
(1.0117 0.00129269 -1.28457e-22)
(1.01184 0.00130617 1.35297e-23)
(1.01751 0.0569282 1.63374e-20)
(1.02846 0.00867829 4.67311e-21)
(1.02132 -0.0338944 -1.16525e-22)
(1.01499 -0.0389423 3.22037e-22)
(1.04866 -0.00715583 -2.20427e-21)
(1.05037 -0.00660048 0)
(1.05049 -0.00878798 -1.88409e-22)
(1.01633 -0.00108252 1.4365e-22)
(1.01618 -0.00106694 -7.1809e-23)
(1.02767 -0.027135 -6.89284e-22)
(1.02994 -0.0240742 -2.09719e-21)
(1.02547 -0.0232157 -1.06047e-21)
(1.00932 0.000264471 -3.47977e-23)
(1.01189 0.000379139 -1.18261e-23)
(1.01209 0.000406109 -1.23315e-22)
(1.01171 0.000810631 4.94717e-22)
(1.01163 0.000711156 0)
(1.01325 -0.000230195 1.32127e-22)
(1.01325 -0.000114097 -7.30946e-22)
(1.01337 -0.00031554 1.1073e-21)
(1.01341 0.000561483 -6.97514e-23)
(1.01371 0.000665252 3.16056e-22)
(1.01355 0.000591462 7.24881e-23)
(1.02877 0.0100591 0)
(1.03092 0.00928458 -1.50037e-22)
(1.02884 0.00785921 0)
(1.03461 -5.79062e-06 -2.11067e-21)
(1.03436 -0.000463431 -4.155e-21)
(1.03507 -0.00037589 -4.10008e-22)
(0.977181 -0.0291061 1.64201e-21)
(0.967535 -0.0332451 0)
(1.02673 0.0106243 0)
(1.02803 0.0124261 1.78624e-22)
(1.01734 -0.00442362 -1.63031e-22)
(1.01696 -0.00397217 2.87821e-21)
(1.01766 -0.00395149 1.05297e-21)
(0.753848 -0.20296 -2.43592e-20)
(0.716794 -0.251087 2.78742e-21)
(1.03924 -0.0244986 -9.24692e-22)
(1.04389 -0.0239004 -7.229e-22)
(1.02046 0.0168839 2.30958e-22)
(1.02045 0.0157879 0)
(1.0046 0.000131933 0)
(0.802443 0.0916947 4.27463e-22)
(0.731398 0.107596 -5.0783e-21)
(0.829363 0.0670351 1.36974e-21)
(1.00521 -4.09692e-05 -7.68624e-22)
(1.00292 2.30205e-05 1.07395e-21)
(1.00289 -3.95873e-05 -7.56085e-22)
(1.02525 0.00888181 8.02516e-22)
(1.02594 0.00884172 -1.00593e-21)
(1.01919 0.000300631 -3.91779e-22)
(1.01828 0.000475794 4.88105e-22)
(1.03756 0.00468052 6.37476e-22)
(1.03841 0.00484857 -2.70373e-21)
(0.963711 -0.180554 3.27358e-22)
(0.950555 -0.183776 -7.3163e-21)
(0.960124 -0.194683 -1.99219e-21)
(1.0273 0.104183 -3.10312e-21)
(0.998983 0.102907 1.33092e-20)
(1.03896 0.0033341 -4.82341e-23)
(1.01401 0.000859302 -4.4689e-23)
(1.0139 0.0007399 1.58981e-22)
(1.0139 0.000818431 -1.28186e-22)
(1.02469 0.0108002 0)
(1.0228 0.0109653 0)
(1.02372 0.0127471 0)
(1.02512 0.00910333 0)
(0.688647 -0.264703 -7.83769e-22)
(0.681953 -0.258061 8.6597e-22)
(0.690778 -0.266867 1.39535e-20)
(1.01585 -0.000771883 1.47183e-22)
(1.00586 0.000161295 2.16636e-22)
(1.00566 0.000151978 9.28912e-23)
(1.01325 -0.00105915 -5.42154e-22)
(1.01048 -0.000161047 0)
(1.01241 -0.000312174 0)
(1.14023 -0.0125417 -3.68992e-23)
(1.14406 -0.00220447 -4.23412e-23)
(1.01238 -0.00165734 -1.03715e-21)
(1.01264 -0.00140037 2.01284e-21)
(1.01224 -0.00109534 1.22728e-21)
(0.979847 0.020898 0)
(0.984286 0.0199021 -3.58775e-22)
(0.866936 -0.178824 -2.18926e-21)
(0.880866 -0.170553 -4.79333e-22)
(0.880159 -0.187342 4.37861e-21)
(1.00925 0.292193 2.44241e-20)
(1.03077 0.329533 -2.26743e-20)
(0.995997 0.330154 2.57456e-20)
(1.12663 -0.0113714 0)
(1.1388 -0.0207891 7.66514e-22)
(1.02447 0.00783696 -8.31345e-22)
(1.02406 0.00733524 9.32014e-22)
(1.02382 0.00781235 -8.14884e-22)
(0.850949 -0.164697 3.67104e-22)
(0.850815 -0.185737 -4.05675e-23)
(1.06849 0.0460608 7.27771e-22)
(1.07268 0.0495294 8.29895e-23)