/*--------------------------------*- C++ -*----------------------------------*\
| =========                 |                                                 |
| \\      /  F ield         | OpenFOAM: The Open Source CFD Toolbox           |
|  \\    /   O peration     | Version:  v2012                                 |
|   \\  /    A nd           | Website:  www.openfoam.com                      |
|    \\/     M anipulation  |                                                 |
\*---------------------------------------------------------------------------*/
FoamFile
{
    version     2.0;
    format      ascii;
    class       volScalarField;
    location    "950";
    object      omega_0;
}
// * * * * * * * * * * * * * * * * * * * * * * * * * * * * * * * * * * * * * //

dimensions      [0 0 -1 0 0 0 0];


internalField   nonuniform List<scalar> 
18355
(
1.77309
0.0204294
0.193829
0.0210078
0.051296
0.42655
0.0215999
0.0595789
0.0220162
0.213866
0.0255498
0.117934
0.125027
0.574963
0.0210827
0.0201984
0.0210041
0.0242942
0.148617
0.0226099
1.87878
0.0218763
0.0204591
0.341496
0.0204699
0.022084
0.0216293
0.0210126
0.0222063
0.0263131
0.655778
0.0396547
0.0203436
0.0200667
0.0210657
0.0220258
0.0266366
0.0220898
0.0267348
0.0218973
0.0221487
0.026069
0.0200845
0.0204157
0.0204261
0.255103
0.0209855
0.0209752
0.532521
0.0212114
0.0208301
1.11171
0.0212602
0.127112
0.021281
0.022619
0.0211125
0.343905
0.0221416
2.97775
0.0200765
0.0864689
0.122329
0.0214127
0.0508103
0.0206251
0.0233405
0.0266542
0.0200248
0.259193
0.0209255
0.0212808
0.0335809
0.0253733
0.497961
0.0200436
0.390166
0.0200531
0.0208985
0.502962
0.0233034
0.404954
0.0200351
0.0240997
0.0436671
0.0217598
0.0222648
0.0355403
0.0208755
0.0355117
0.206368
1.83274
0.329582
0.0212051
0.568745
0.0216171
0.0208608
0.0213432
0.0735634
0.0218162
0.0412078
0.0208677
0.0211612
0.0195575
0.0234818
0.0202099
0.0498624
0.546962
0.0305446
0.020151
0.0207316
0.0214185
0.0296369
0.0239111
0.27996
0.0261543
0.0208466
0.519
0.0227081
0.0231883
0.119674
0.196462
0.236958
0.04115
0.523473
0.275511
0.0216317
0.0210371
1.71141
0.0216463
0.0208651
1.15227
0.0212679
0.0801173
0.0918123
0.0208646
0.152673
0.506693
0.0211914
1.89401
0.0245912
0.0602358
0.0209513
0.632909
0.092409
0.0216452
2.56867
0.0195983
0.0295061
0.227538
0.021006
0.0231329
0.02141
0.0263044
0.0200949
0.0205823
0.0210506
0.0217503
0.0209575
0.0206815
0.0246472
0.0212744
0.0201593
0.0309454
0.0257787
0.0492
3.14879
2.07981
1.68787
0.024567
0.0212804
0.0743815
0.0216174
0.394032
0.0211532
0.0221094
0.0213387
0.019521
0.0225563
0.0267184
0.0218059
0.0386666
0.0217694
0.0210353
0.0485781
0.021149
0.0218065
0.0342548
0.0213453
0.0217081
0.258255
0.0739625
0.0204589
0.0200608
0.0214076
0.281569
0.0205396
2.10604
0.0204387
0.497378
0.0211175
0.0233202
0.0270673
0.0217184
2.08958
0.021568
1.7248
0.0210304
0.0202947
0.0212939
0.0215553
0.059068
0.0223297
0.0218878
0.0196083
0.29921
0.0267428
0.0248244
0.0215847
0.0209875
0.0295625
0.0199761
0.0338438
0.0251457
0.0443146
0.0235225
0.0199987
0.518586
0.315582
0.0306026
0.0213991
0.0234997
0.0780444
0.0199887
0.0306055
0.0368992
0.0219519
0.264411
0.0244927
0.0219086
0.0204552
0.0224653
0.0216239
0.0295468
0.0215641
0.0212867
0.0209781
0.0543288
0.09942
0.0210062
0.021749
0.0804431
0.152009
0.025932
0.0195265
0.0404801
0.0244636
0.0217374
0.023521
0.0208091
0.204354
0.271522
0.0672484
0.0290857
0.0275709
0.0338363
0.0380874
0.0807611
0.0208014
0.0212879
0.0218549
0.0201485
0.0233133
0.0249829
0.020974
0.0215572
0.0309704
0.0208528
0.0736566
0.616231
0.0290534
0.0215827
0.0267453
0.020138
0.0364685
0.0215191
0.02739
0.0218684
0.0269296
0.273799
0.0203214
0.0442617
0.0225952
0.0232862
0.0423861
0.0213132
0.0200452
0.0682786
0.0215552
0.0700803
0.0267576
1.02566
0.03772
0.068559
0.0237504
0.032155
0.0211529
0.0237238
0.0286076
0.0440885
0.0465359
0.253536
0.0210637
0.0236716
0.108806
0.027177
0.0210595
0.0209672
0.0209907
0.0484554
0.253218
0.342933
0.0355661
0.030532
0.024373
0.0822347
0.0195977
0.0215469
0.0243163
0.0213604
0.0307151
0.0209417
0.138155
0.0202303
0.550331
0.0213496
0.0218465
0.0241096
0.13729
1.97369
0.0296635
0.0314137
0.0219032
0.0208849
0.0213516
0.0242028
0.193822
0.020908
0.0214701
0.110028
0.0218339
0.0209091
0.153863
0.0236992
0.0209846
0.021288
0.0280161
0.0222505
0.0278972
0.0200515
0.021461
0.021781
2.14645
0.0901751
0.0200295
0.0209372
0.0305984
0.0209983
0.0215122
0.0781525
0.106919
0.0328735
0.0213356
0.0219958
0.126019
0.0219389
0.0451804
0.0237824
0.0202652
0.0295184
0.0364629
0.0217048
0.0213418
0.0243346
0.0214636
0.0232822
0.0214024
0.0539327
0.0216396
0.0229687
0.0208707
0.0209914
0.0231323
0.0220967
0.0663378
1.08694
0.121649
0.022733
0.151273
0.027226
0.0213681
0.0208951
0.0414047
0.0213447
0.0341899
0.0214755
0.0273042
0.103194
0.0502031
1.97976
0.0709371
0.0195656
0.549113
0.0218171
0.0209638
1.86653
0.0213144
0.027459
0.0202194
0.0564796
0.0213093
0.0723358
0.440758
0.0622847
0.0212776
0.0204587
0.0650968
0.0227116
0.021029
0.100181
0.192991
0.0209583
0.042158
0.0668105
0.0204538
0.0221474
0.0286121
0.184059
0.0374316
0.0218351
0.0211935
0.0366297
0.0212871
0.0201941
0.02117
0.0481298
1.14998
0.0202493
0.0221552
0.0214912
0.144596
0.0366466
0.0200417
0.0275576
0.0344592
0.0214753
0.288435
0.0863466
0.0218028
0.021447
0.0360789
0.148821
0.657903
0.020226
2.08447
0.0212352
0.020241
0.0400651
0.0228142
0.0565769
0.0337028
0.0230791
0.0259823
0.0218859
0.150543
0.02285
0.0279019
0.0218747
0.0202026
0.0217152
0.0202171
0.085723
0.694612
0.0554683
0.0247684
0.0216148
0.0218739
0.0215382
0.0237807
0.0215364
0.0200241
0.0213844
0.0368359
0.0204622
0.0215243
2.01786
2.11018
0.113254
0.0216252
0.0220256
0.0287315
0.0218483
0.198075
0.212812
0.0234162
0.0241766
0.0259619
0.0221776
0.0233557
4.55837
0.0296671
0.0218427
0.338549
0.0215799
2.04251
0.540451
0.0249156
0.0220911
4.58709
0.0209801
0.0687464
0.0400617
0.371072
0.0228526
0.0216936
0.0214607
0.413723
0.533063
0.363114
0.441645
0.0235037
0.0214503
0.0241038
0.0212946
0.0231877
1.91889
0.202801
0.891838
0.105994
0.0268189
0.0370045
0.0307954
0.0209938
0.0211493
0.0279136
0.0240448
0.0215345
0.0212925
0.555159
0.0208459
0.107148
0.0244719
0.0818849
0.133704
0.0211558
0.0239062
2.07254
0.0213791
1.12823
0.0212708
0.582258
0.0296663
0.0219428
0.0306355
0.0803534
0.0720631
0.0219111
0.0200128
0.0348552
0.0251321
0.0821135
0.0213727
0.0867258
0.0208377
0.20673
0.0211562
0.0211555
0.188118
0.0248649
0.0341763
0.0210453
0.024468
0.022903
0.0907747
0.347768
0.023979
0.0315679
0.0211486
0.0265877
0.0217383
0.0238132
4.1554
0.0204188
0.107271
0.0215538
0.0212518
0.0238623
0.169237
0.0226659
0.0754647
0.0220636
0.0354941
0.448176
0.0196043
0.0209856
2.1297
0.0343662
2.08775
0.0347563
0.0217348
0.0212984
0.0209676
0.0253749
0.0220125
0.0200981
0.13777
1.20586
0.0211406
0.185417
0.177018
0.0247632
0.204443
0.0202096
0.695368
0.366169
0.0196641
0.453682
0.0390641
0.343563
0.101722
0.0210968
0.0209653
0.0215976
0.054225
0.0476207
0.0212974
0.0219385
0.136298
0.02177
0.0406125
0.0210595
0.0370246
0.475143
0.40374
0.0852048
0.392835
0.0358866
0.270065
0.0241807
0.020918
0.0255707
0.104092
0.026181
0.0450324
0.0212876
0.17464
0.0215083
0.02178
0.357998
0.0217231
0.0258955
0.0319987
0.0667824
0.0214732
0.0212883
0.0237647
0.0248017
0.0199667
0.0216514
0.0320382
0.135402
0.022937
0.021298
0.0387501
0.443867
0.0212304
0.37979
0.286244
0.0214669
1.88421
0.0200016
0.195457
0.0213449
0.0202689
0.188115
0.0230246
0.178309
0.0228328
0.0212903
1.90255
0.0213416
0.020132
0.02152
0.020927
0.0262877
0.0338414
1.90204
0.0220885
1.31338
0.0229031
0.385059
0.540375
0.0221724
0.0213446
0.0244695
0.0201307
0.109559
0.0211931
0.0201102
0.0201453
0.0212862
0.0213686
0.223018
0.025161
0.0466254
0.0226407
0.0236753
0.0242249
0.0242482
0.300523
0.0204648
0.0853077
0.0411162
0.0200122
0.185705
0.476774
0.020778
0.364933
0.0211649
0.0950689
0.0353969
0.0196491
0.0352012
0.0251819
0.372791
0.0208504
0.0241044
0.435374
0.080001
0.046482
0.0213646
0.256986
0.0759659
0.76328
0.0213718
0.0227273
0.0210352
0.0214829
0.0210568
0.0209754
0.0204131
0.379498
0.0258515
0.0208922
0.0200588
0.0205463
0.0217977
0.0739566
0.075005
0.0203143
0.0248044
0.0215491
0.0215804
0.0215029
0.0209459
0.0338309
0.0200559
0.0208866
0.0217852
0.0215997
0.0230569
0.0215334
0.256682
1.46417
0.024051
0.0208691
0.143111
0.0201007
0.0200635
0.0215183
0.0443356
0.0246424
0.0213545
0.0201686
0.0204486
0.025788
0.0200167
0.0268839
0.0211837
0.0217362
0.0210567
0.0226568
0.37212
0.0209102
0.021831
0.0211811
0.162328
0.36717
0.0266528
0.0220119
0.0274659
0.0247799
0.032338
4.38536
0.0217743
0.365737
0.0218475
0.0937699
0.0219944
0.0202757
0.02006
0.61704
0.0200209
0.0269477
0.0293028
0.16562
0.0358786
0.0223004
0.02102
0.0208405
0.0212169
0.0284103
0.104587
0.188785
0.044577
0.0215307
0.020014
0.022508
0.0210595
0.0208096
0.0217702
0.0466094
0.0248869
0.0959372
0.0215255
0.021438
0.0322172
0.0213004
0.14863
0.0449891
0.0374203
0.136659
2.92365
0.0289445
0.0209824
0.0200225
0.0216709
0.0212797
0.185609
0.0472465
0.106791
0.0203098
0.0215804
0.0230898
0.0208276
4.35789
0.118162
0.0200611
0.0200526
0.0209731
0.0210647
0.0209182
0.0212843
0.223859
0.019969
0.0218815
0.0203193
0.0205874
0.0210651
0.0214642
0.0265425
0.0205822
0.0249235
0.0201626
0.0911909
0.20429
0.0241281
0.0546091
0.0227233
0.0218784
0.0688819
0.225346
0.0214243
0.0207439
0.0204733
0.0272092
0.0219813
0.0289442
0.0430998
0.0215036
0.0219243
0.0214848
0.0938904
0.0335374
0.0221089
0.0205938
0.0243457
0.0377891
0.0211417
0.0726202
0.0208372
0.0199654
0.0241519
0.809309
0.448508
0.0576283
0.227164
0.0200561
0.0341988
0.0621055
0.0249524
0.0212083
0.0631572
0.0233945
0.174221
0.83847
0.0207378
0.0200661
0.0214816
0.0219044
0.0200701
0.0524917
0.0556426
0.0201064
0.021529
0.0219318
0.0371694
0.0212484
0.0208819
0.0295496
0.0218777
0.0208977
0.0594142
0.0955851
0.0867559
0.0212666
0.0202396
0.0201219
0.0212977
0.0240631
0.0270264
0.0208742
0.0206273
0.0226649
0.292141
0.020461
0.021417
0.0698355
0.020918
0.0207592
0.0213452
1.39337
0.0202183
0.0214469
0.0204641
0.022413
0.0202312
0.0252009
0.142427
0.0214175
0.154692
0.0281744
0.201512
0.0576334
0.0209876
0.0255781
0.0208432
0.0207431
0.0210001
0.393799
0.347578
0.0330659
0.0267872
0.430861
0.0721856
0.0221067
0.100731
0.0496543
0.0233215
0.020061
0.176392
0.0222151
0.0207427
0.0203964
0.242833
1.23629
1.82583
0.0207102
0.0925505
0.370048
0.0244391
0.0311152
0.0239448
0.0230776
0.0341952
0.0986503
0.0230639
0.0222556
0.0248885
0.900166
0.221981
0.0212365
0.0213502
0.0210814
0.33602
0.023884
0.0219598
0.428989
0.0252122
0.0338639
0.0239344
0.234049
0.0206745
0.0891036
0.0220349
0.0200579
0.0209828
0.020035
0.0200679
0.0208965
0.021703
0.21236
0.0205272
0.0891242
0.0262909
0.0216724
0.0207493
0.0928328
0.0211923
0.0215226
0.0229141
0.791952
0.044643
0.0230147
0.0215249
0.310958
0.0206699
0.0400648
0.0215085
1.74348
0.0316566
0.302379
0.0252475
0.0210284
0.0470003
0.169083
0.12315
0.0205588
0.021338
0.0373047
4.08501
0.0195647
0.0486792
0.0205679
0.0264796
0.0208653
0.020051
0.0219701
0.0220784
0.0200193
0.0339975
0.0320475
0.0239458
0.132007
0.177951
0.0221415
0.182312
0.0200976
0.108639
0.340415
0.160402
0.0200261
0.0220574
0.0214876
0.758811
0.0210386
0.020839
0.0912466
0.0215063
0.0215145
0.0221373
0.0219922
0.0212467
0.526109
0.368283
0.0649686
0.0207536
0.0214503
0.175687
0.020097
0.153869
0.0216135
0.0214736
0.0219816
0.0233867
0.235937
0.02052
0.0214728
2.14823
0.021582
0.02177
0.0372788
0.349024
0.119364
0.0214274
0.0210523
3.70356
0.20886
1.95073
0.0208377
0.0337953
0.186973
0.0203505
0.0324784
0.0230635
0.393258
0.023419
0.021529
0.0221261
0.0200239
0.338295
0.0214632
0.0204843
0.348724
0.0292015
0.0349805
0.019992
0.0225318
0.0200359
0.019634
0.0202014
0.0221942
0.0216186
0.0218457
0.0200309
0.0217399
0.0475222
0.0272783
0.0239587
0.0206143
0.0239413
0.0210655
0.269553
0.0216544
0.0220142
0.0215878
0.020062
0.0217985
0.0212282
0.0211709
0.0212348
0.020825
0.0202093
0.431478
0.335628
0.0212414
0.33585
0.0349576
0.0217603
0.0216916
0.0221221
0.444756
0.0218191
0.0200899
0.0200986
0.0200364
2.0966
0.0212823
0.0202829
0.166312
0.0200211
0.0197254
0.024901
0.0258263
0.0707017
0.139
1.95305
0.0200443
0.864785
0.0249012
0.0212311
0.0204213
0.0239848
0.0212793
0.0278764
0.0605068
0.0233547
0.0219532
0.332148
0.0565178
2.06552
0.0796079
0.336972
0.079394
0.0205109
0.209595
1.46212
0.0201276
0.841979
0.0207068
0.0222827
0.135348
0.02074
0.165096
0.0246085
0.0226962
0.0219079
0.0382983
0.0213738
0.0886077
0.0212373
0.0201864
0.41832
0.0197514
0.0217376
0.021841
0.0540698
0.0212044
0.0214433
0.022813
0.197203
0.0212014
0.0212741
0.0202323
0.0235084
0.0211826
0.0222793
0.043888
0.0209706
0.0259835
0.0216942
0.0231952
0.0227001
0.0209395
0.0219089
0.0994201
0.0215817
0.0216748
0.0239223
0.266539
0.0220755
0.0211283
0.021425
0.0256349
0.0690127
0.0224952
0.0210213
0.0209649
0.0205631
0.0196199
0.0200457
0.0254432
0.0294184
0.0565507
0.0215319
0.541321
0.020654
0.021344
4.16529
0.0453153
0.0199774
0.0786251
0.0216019
0.0210193
0.334302
0.0218491
0.0393873
0.0197374
0.148493
0.020548
0.0200118
0.0202569
0.0425387
0.0874311
0.0215517
1.0419
0.0202355
0.0209228
0.0207376
0.137437
0.0212214
0.0206535
0.0220126
0.0225826
0.0212694
0.0214461
0.0207903
0.0217776
0.0215265
0.0208433
0.0238543
0.0199969
0.786923
0.0678118
0.020212
0.197438
0.0257063
0.0209346
0.0206667
0.021944
0.0207632
0.0288412
0.0247173
0.0437029
0.041241
0.0216945
0.0745312
0.149181
0.0212229
0.0217179
0.0883175
0.0232656
0.256071
0.0202186
0.0210583
0.0223659
0.0217171
0.0210139
0.0257203
0.0209483
0.0215098
0.0212439
0.0231255
0.0205848
0.116511
0.0213442
0.0240595
0.0278777
0.0210083
0.423831
0.443343
0.0231564
0.026326
0.0269893
0.0198733
0.0444017
0.0214295
0.0330165
0.446355
1.13303
0.0351614
0.0217369
0.0263005
0.0210041
0.028449
0.0205284
0.310663
0.0279939
0.0214602
0.0207989
0.123311
0.0329689
0.0212248
0.021223
0.328414
0.0216131
0.0206444
0.910772
0.0544054
0.0201177
0.525619
0.0203134
0.0400153
0.0575453
0.0212633
0.0214342
0.0231445
1.78159
0.0207891
0.0253367
0.0214393
0.0212714
0.0208276
0.370926
0.0218104
0.0213913
0.0210985
0.169967
0.0255861
0.0208019
0.0197776
0.107409
0.0211525
0.0204562
0.647645
2.98035
0.021908
0.252583
0.0231482
0.0480173
0.0222555
0.0601524
0.458138
0.0216903
0.0210741
0.0203183
0.0238555
0.0212051
0.440682
0.0740797
0.0205309
0.0220604
0.0203391
0.0200306
0.352304
0.0212125
0.0225763
0.0226115
0.0501827
0.0214542
0.021675
0.0247286
0.461752
0.0214718
0.0214031
0.0204483
0.0205701
0.0236678
0.0453081
0.0215735
0.0211239
0.0212678
0.0211027
0.0203277
0.569952
0.0217386
0.0210395
0.0210956
0.0613916
0.020375
0.0204588
0.0344456
0.0209234
0.0386133
0.0212462
0.0214324
0.120678
4.68254
1.72354
0.0328238
0.023227
0.0217559
0.37903
0.020643
0.024792
0.0199921
0.927903
0.0195429
0.0237624
0.0214631
0.414761
0.0347361
0.0308441
0.344181
0.0222361
0.0466068
0.0217077
0.0219823
0.382438
0.034534
0.0211773
0.0203055
0.0233562
0.0266167
0.021425
0.021269
0.0206371
0.0199424
0.167508
0.32683
0.021702
0.0219216
0.402862
0.801847
0.023059
0.0221467
0.0229288
0.0242587
0.0212155
0.0222994
0.0461478
0.0209096
0.020329
0.021503
0.0372123
0.193785
0.0249159
0.0215378
0.0215523
0.0254438
0.0213401
0.0249616
0.0384748
0.0877955
0.0231449
0.348858
0.0201173
0.0212281
0.0218354
0.0199907
0.0215517
0.0208566
0.0384705
0.0210074
0.483398
0.0214119
0.0207207
0.0204898
0.0269751
0.0223712
0.0447721
0.0551543
0.0201639
0.299179
0.0229295
0.0205062
0.0198045
0.332576
0.196187
0.0198244
0.0208066
0.0207223
0.0222741
0.166674
0.0905651
0.0220564
0.021914
0.139765
0.362657
0.0219367
0.0212144
0.228963
0.0236044
0.0738064
0.0234491
0.0211497
0.0635028
0.0243502
4.75531
0.0246146
0.514427
0.020403
0.020925
0.0217665
0.0215781
0.0234745
0.0216693
0.0215492
0.0207912
0.0217803
0.0216283
0.0212379
0.0214234
0.022716
0.0218994
0.021336
0.0208293
0.0346269
0.0232853
0.0209181
0.0215152
0.161785
0.0213179
0.0217132
0.0218903
0.463924
0.0204602
0.0388473
0.0225475
0.0201866
0.0210589
0.306478
0.284883
0.0219686
0.021741
0.0233001
0.0366563
0.020871
0.0260731
0.0360712
0.0210562
0.104616
0.0208151
0.0213299
0.0209959
0.0217275
0.0287982
0.0575815
3.70328
0.0273627
0.0201974
0.0214968
0.0211138
0.0457172
0.0219246
0.307154
0.0208196
0.0213693
0.0213544
0.076291
0.0209714
0.0215692
0.0212529
0.137678
0.0204686
1.95473
0.0204284
0.0247918
0.0213032
0.0294742
0.0209911
0.0234217
0.515996
0.0619347
0.0202049
0.036028
0.0215119
0.0213651
2.13476
0.515638
0.0203236
0.0212452
0.0233413
0.0202534
0.021099
0.0218611
0.0216945
0.0232486
0.0531302
0.0221025
0.0260394
0.0540808
0.0216333
0.0209977
0.0211777
0.0224534
0.0280103
0.0214267
4.21185
0.0206631
0.379391
0.0375594
0.0201333
0.0207281
0.0207077
0.0715942
0.0215063
0.0237085
0.0214959
0.020728
0.509638
0.0226979
0.0270943
0.0216533
0.0214585
0.0226848
0.0212332
0.022702
0.0213656
0.0221775
0.0219457
0.0218649
0.495063
0.0244833
0.424892
0.0209965
0.0250657
0.0222653
0.329996
0.065018
0.892762
0.0225876
0.0199628
0.0418104
0.0208962
0.443694
0.0221285
0.0461909
0.0223698
0.316023
2.02162
0.023185
0.0271736
0.0207452
0.020534
0.021887
0.0199076
0.0217191
0.0228216
0.0207837
0.0245314
0.0420403
0.324361
0.0208947
0.0646153
0.0201029
0.0211899
0.0211395
0.0952913
0.0216008
0.0977337
0.0216781
0.0210784
0.279078
0.0208787
0.0234986
0.0210417
0.0232927
0.90287
0.0253429
0.597805
0.0212591
0.0632891
0.0228401
0.0211205
0.0211465
0.0272648
0.023795
0.021272
0.0226974
0.0213231
0.464732
0.0207322
1.38057
0.20147
0.0709064
0.0246116
0.120385
0.0254033
0.0199054
0.188428
0.0211883
0.0855129
0.0218222
0.0225433
0.291076
0.283544
0.0256498
0.117654
0.0213829
0.320517
0.0196035
1.77846
0.020157
0.0221842
0.0462446
0.0214073
0.0207167
0.0219387
0.0212567
0.0344317
0.281041
0.0317836
0.310903
0.0206392
0.234633
0.0214421
0.0216867
0.0210283
0.0211007
0.441464
0.0216085
0.0205682
0.0370013
0.0218053
0.320706
0.0704456
0.0212641
0.0385716
0.0340783
0.0208532
0.0214327
0.0236791
0.020329
0.0568346
0.0273011
0.0227113
0.0228812
0.0204445
0.0211623
0.0598656
0.0219822
0.0214434
0.0222485
0.0198864
0.0201373
2.03964
0.0260754
0.656047
0.0265997
0.0536498
0.0268055
0.021114
0.0252932
0.0204311
0.0209799
0.0673322
0.0237825
0.0225792
0.0476512
0.0218672
0.268301
1.73482
0.0210722
0.0238045
0.0296694
0.485834
0.0203182
0.0203128
0.0216392
0.0254454
0.297182
0.0244034
0.023592
0.0218224
0.0211712
0.0199242
0.104473
0.0237976
0.022196
0.450309
0.0216322
0.0227829
0.0241444
0.0214902
0.0212351
0.0210118
0.054461
0.105759
0.0218643
0.0231275
0.305865
0.0209128
0.0219316
0.0232064
0.0215858
0.354223
0.443226
0.0879432
0.0799216
0.313372
0.0225046
0.0208442
0.0587251
0.0220375
0.0259158
0.0210283
0.0201903
0.325089
0.083166
0.0210794
0.0207481
0.026329
0.16059
0.0231682
0.0199619
0.468204
0.0228047
0.0367836
0.0201407
0.0269884
0.0195784
0.0227343
0.0252241
0.0211711
4.22982
0.0219563
0.0356435
0.0989194
0.324478
0.086814
0.0211949
0.0632998
0.0242961
0.0239606
0.0221496
0.0219776
0.0214389
0.0224757
0.0352168
0.0227992
0.0633669
0.0207786
0.199184
0.0202954
0.0218862
0.226917
0.0243975
0.196021
0.0227253
0.0220946
4.07033
0.466811
0.0208654
0.27228
0.0319381
0.0207197
0.0198402
1.74481
0.263856
0.0204671
0.0202837
0.0210967
0.0202364
0.367317
0.319912
0.0195208
0.0197944
0.0208623
0.224421
0.047857
0.270318
0.0201938
0.298625
0.0215862
0.059363
0.473519
0.0239536
0.0205956
0.0205681
0.276366
0.0203469
0.021058
0.0202099
0.0247973
0.0228575
4.49507
0.0245663
0.0217812
0.0211939
0.0263638
0.187301
0.0387126
0.0211202
0.0208753
0.15199
0.0506005
0.0219367
0.429286
0.0277881
0.0228509
0.367148
0.0226952
0.0251764
0.0218151
0.0758398
0.0214138
0.0217948
2.12893
0.0274177
0.0210488
0.0213489
0.0195844
0.0362506
0.110225
0.0209702
0.0202766
0.0221229
0.0671748
0.0223899
0.0202041
0.0212405
0.0207285
0.0225564
0.0424685
0.0214156
0.0209525
1.72759
0.0211057
0.163989
0.0294298
0.0300934
0.0235096
0.0221189
0.0214788
0.237292
0.0846679
0.070427
4.37459
0.0287544
0.0208744
0.281502
0.0202172
0.0756081
0.334954
0.0222898
0.0211288
0.0234734
0.0760433
0.0211981
0.021006
0.266187
0.0212609
0.0224086
0.0207283
0.0216802
0.0203361
0.0632497
0.12433
0.0201487
0.0210216
0.200699
0.0211898
0.0201029
0.0209956
0.0208208
1.85939
0.0240464
0.0229253
0.0222797
0.0219553
0.0202359
0.03585
0.101965
0.0261012
0.24391
0.0226089
0.0233737
4.43685
0.020886
0.0203659
0.021061
0.0208243
0.0217979
0.0197521
0.0221051
0.327055
0.0212108
0.0210916
0.02271
0.0208047
0.334833
0.0216601
0.430054
0.176151
0.0240065
0.0294456
0.164973
0.0235377
0.0211695
0.023456
0.0209482
0.022494
0.0213248
0.0217862
0.272365
0.0202913
0.0213189
0.0419105
0.185046
0.0216859
0.0208424
0.1845
0.0222703
0.0251777
0.0213084
0.0208533
0.020934
1.92941
0.0214149
0.186607
0.0531426
0.02154
0.0208334
0.021056
0.0240172
0.259023
0.0201572
0.0362341
0.0210969
0.485459
0.220139
0.0220999
0.169578
0.0215444
0.0229401
0.0235462
0.272118
0.0242388
0.0259897
0.0266703
0.389796
0.0216893
0.0357561
0.0214512
0.036351
0.145587
0.160461
0.0209483
0.027471
0.325811
0.423783
0.022907
0.0235266
0.357784
0.346397
0.020811
0.0556587
0.0211846
0.0238826
0.0214716
0.0223344
0.0222494
0.246642
0.0216509
0.0218061
0.0588671
0.392547
0.0880242
0.12635
0.139347
0.0207791
0.358142
0.0642467
0.0210353
0.021121
0.360838
0.0231801
0.0214886
0.0212438
0.0373228
0.0206954
0.0212532
2.47549
0.0214537
0.021727
0.0210397
0.0214016
0.0225025
0.0204825
0.41559
0.0242366
0.0231369
0.0204949
0.0279508
0.117692
0.0208986
0.0216461
0.307077
0.172916
0.0213508
0.0240341
0.0207071
0.0209319
0.040589
0.162698
0.0209326
0.0210594
0.32877
0.516892
0.168034
0.0284816
0.0221188
0.131978
0.0207477
0.0246412
0.0237904
0.0205459
1.77573
0.155101
0.0383473
0.0275536
1.78176
0.0198481
0.0197861
0.022809
0.0324086
0.382614
0.0203378
0.0325604
0.906528
0.453943
0.021634
0.0224467
0.264643
0.020981
0.0235376
0.373878
0.0209575
0.0211933
0.020509
0.272697
0.0208225
0.0238072
0.021899
0.0515154
0.0269073
0.424442
0.0211798
0.021132
0.0288661
0.0217282
0.0224457
0.0220926
0.105317
0.122094
0.0209898
0.0213394
3.55008
0.332545
0.407028
0.0207549
0.0213559
0.0226528
0.02153
0.0212679
0.0214335
0.0209595
0.0218675
0.0206809
0.0207589
0.0572708
0.0234077
0.0263975
0.501427
0.0672592
0.0501461
0.0243668
0.0435154
0.133157
0.0297013
0.0229519
0.0254148
0.0210649
0.423948
0.0200269
0.0202808
0.0206657
0.463539
0.020895
0.473025
0.0217693
0.0201297
0.0395368
0.0211664
0.0211456
0.0211583
0.0255704
0.207436
0.0216146
0.0205441
0.0226002
1.06371
0.0497295
0.324874
0.0210326
0.0334825
0.0214729
0.0215406
0.0201912
0.0207208
0.0213551
0.0219377
0.270199
0.0223158
0.022637
0.123216
0.327252
0.129842
0.020849
0.100219
0.0327631
0.627523
0.0205497
0.0209491
0.0221086
0.499475
0.0197926
0.0213537
0.0207122
0.0203465
0.128243
0.0221497
0.0608189
0.0211345
0.0197758
0.0247375
0.0214333
0.550728
0.0211417
0.0236373
0.0217808
0.0262323
0.0220446
0.0628703
0.332159
0.0212307
0.0388342
3.88571
0.0211199
0.0215278
0.0421337
0.0197274
0.322703
0.0312574
0.0209651
0.0599131
0.020019
0.0214955
0.0214521
0.020697
0.020219
0.0221235
0.0206992
0.0207117
0.0215258
0.0218307
0.0492759
0.0200823
0.13355
0.0205252
0.020896
0.0274281
0.0467369
0.0220029
0.0197239
0.0211959
0.0223174
0.044554
1.75169
0.0331051
0.0219004
0.021948
0.0207504
0.0292124
0.0209294
0.0222687
1.04534
0.245925
0.0470832
0.0210767
0.0217412
0.0221208
0.0197321
0.0414621
0.0201184
0.127131
0.0219455
0.163841
0.025884
1.1629
0.0215658
0.0666098
2.18879
0.343432
0.344816
0.0244446
0.358563
0.319887
0.0218529
0.0344499
0.409254
0.0205241
0.020746
0.0213289
0.0236834
0.0739734
0.0214603
0.0236433
0.440315
0.0195248
0.0214664
0.299047
0.346036
0.100142
0.370599
0.433189
0.0221033
0.0579431
0.0233946
0.023734
0.0487816
0.0223711
3.9456
0.037215
0.023629
0.0213793
0.0227094
0.0226605
0.0205504
1.9676
0.0197866
0.0212422
0.0213076
0.471087
4.5519
0.0380051
0.021275
0.0224311
0.0204807
0.390355
0.0209847
0.0219167
0.0232392
0.0704364
0.0206937
0.0781921
0.678329
0.239347
0.0217994
0.0318337
0.0205857
0.629759
0.0198217
0.0598566
0.0216111
0.0659098
0.026237
0.240713
0.123166
0.022708
0.0225381
0.0307141
0.0235935
0.0211001
0.0207017
0.0248105
0.0218359
0.269248
0.0196445
0.0210709
0.0214309
0.0214015
0.154444
0.0207351
0.0201332
0.0214776
0.0842457
0.0260984
0.0567779
0.0226282
0.0224822
0.0857188
0.0205913
0.0213066
0.0713424
0.0444522
0.0201355
0.0326657
0.0228095
0.334174
0.0212447
0.0694411
0.0215818
0.0212144
0.020231
0.0201773
0.0211608
0.0210718
1.7544
0.0648369
0.0215531
0.0213157
0.021126
0.0221516
0.0265234
0.309263
0.0214387
0.0308882
0.0237439
0.330546
0.0216476
0.0438567
0.0212906
0.021252
0.0272005
0.0212173
0.0214424
0.0206912
0.0200064
0.448405
0.0213819
0.0207265
0.0354996
0.426467
0.0399312
0.0213734
0.0198662
0.0235745
0.356666
0.0230559
0.0216831
0.0215211
1.68372
0.0218603
0.0211028
0.252527
0.0207592
0.0246607
0.0227027
0.0215304
0.020172
0.0556474
0.0252268
0.0206282
0.0212768
0.0213958
0.0208948
0.0919661
0.0226462
0.0213946
0.0197661
0.0219606
0.0201821
0.0212416
0.0793332
0.0206468
0.0238041
0.0233394
0.338542
0.0197247
0.0223968
0.0561949
0.0262516
0.164931
0.0209804
0.0214697
0.200511
0.0214017
0.0201474
0.308312
0.021404
2.22198
0.182941
0.0669291
0.541198
0.021415
0.0259378
1.97031
0.0212425
0.0199938
0.891561
0.213279
0.0208928
0.0201362
0.0226232
0.0206574
0.196484
0.0693552
0.712504
0.0214797
0.0216366
0.0212172
0.0211263
0.980727
0.575517
4.02345
0.0243948
0.0224216
1.52031
0.0213307
0.0208919
0.0226204
0.0209248
0.0218419
0.0724853
0.0197235
0.446572
0.0218026
0.021932
0.0213928
0.0263179
0.0206836
0.419841
0.0206902
0.0211963
0.0225579
0.020162
3.56699
0.0239687
0.0258091
0.674093
0.0939529
0.029765
0.332996
0.0213395
1.61256
0.0266399
0.0207651
0.0222851
0.0217236
0.442696
0.333042
0.021433
0.0234832
0.13813
0.0210616
0.0205739
0.023836
2.29606
0.552589
0.0215248
0.0220068
0.0961079
0.0227468
0.0695054
0.0690166
0.0689425
0.0201472
1.44266
0.0215132
0.247611
0.0589898
0.0346449
4.52461
0.278478
4.41175
0.0203639
0.592806
0.0199254
0.0197743
0.252312
0.0197613
0.0221277
0.0211443
0.0644259
0.0206143
0.136746
0.0201655
0.0276485
0.445108
0.0260306
0.024659
0.43152
0.0218096
0.0202439
0.0218476
0.0966979
0.0239803
0.134147
0.0214175
0.025617
0.0217437
2.00041
0.0214165
0.0215603
0.0213665
0.515745
0.0317326
0.0215193
4.25614
0.0210883
0.0213817
0.0246508
1.76022
0.0213933
4.35484
0.0214221
0.372532
0.0214185
0.04357
0.0209804
0.0533472
0.0214263
0.0625108
0.0245171
0.0278058
0.0208927
0.0217302
0.275246
0.0203656
0.0236644
0.0264321
0.0200562
0.0637468
0.307159
0.133516
0.0219626
0.0197344
0.0211858
0.126341
0.0235241
5.12237
0.0239223
0.316635
0.0215346
0.456851
0.020539
0.0293591
0.117108
0.0227372
1.99445
0.0233846
3.84906
0.161481
0.0207671
1.5703
0.0223126
0.0211368
0.0227287
0.086051
0.0232379
0.161137
0.0247441
0.116543
0.044028
0.0653348
0.0487735
0.316621
0.0214508
0.0215286
4.23773
4.08417
0.0381339
0.0234424
2.28203
0.231511
0.0215256
0.0214258
0.0212065
0.110948
0.0207046
0.0209222
0.0332455
0.264758
0.0198211
0.0206122
0.0221401
4.1338
0.0205057
0.0238304
0.0198219
0.125
0.0221981
0.861236
0.0218193
0.0206466
0.021329
0.0202708
0.453218
0.033251
1.66943
0.0213216
0.0286562
0.020208
0.204875
0.168674
0.0513872
0.0207878
0.0731672
0.0208845
0.0215768
0.28916
0.0210679
0.023693
0.132013
0.0201494
0.115301
0.0207613
0.0198321
0.0215525
1.95137
0.0207927
4.62464
0.130308
0.307305
0.303674
0.0207073
0.40825
0.0662147
4.80235
0.0314916
3.91276
0.174684
0.0215593
0.0315741
0.0217119
0.0276858
0.0209147
0.0227451
0.0212042
0.0254899
0.35343
4.44654
0.0237615
0.02316
0.86963
0.368598
0.0212044
0.0214568
0.14832
0.0361555
0.0204424
0.247084
0.037553
0.0221533
0.0203833
0.0223598
0.429969
0.02162
0.061176
0.0195835
0.856642
3.71168
0.0870526
0.0223416
0.0215367
0.021168
0.0212642
0.0214652
0.0242226
0.0224516
0.0215477
4.4768
0.0208355
0.0214901
0.0210547
0.31691
0.37404
0.0212465
0.0213262
0.561657
0.0204833
4.52335
0.0215243
0.0213665
0.0197231
0.0216111
0.0205985
0.022715
0.0202292
0.195275
0.0217319
0.0673312
0.0213507
1.85085
0.0214651
0.0244257
1.65369
0.179107
0.0212434
0.0214467
0.0312061
0.0197255
0.53981
0.406118
0.0224535
0.0207558
0.0212327
0.0203277
0.0841499
0.340392
0.0375549
0.301745
0.0346392
0.0213541
0.0211847
0.0205291
0.620972
0.248041
0.0214834
0.0211287
0.0208092
0.0272764
0.0213773
0.366291
2.77852
0.0291905
0.0202784
3.72478
0.129294
0.0214444
0.0587871
0.0223246
0.108505
0.0339505
0.0341367
0.0266127
1.2868
0.0328547
3.07709
0.0208462
0.0205256
0.0206949
0.0203186
0.0214937
0.0284226
0.020506
0.0252733
0.0200094
0.237305
0.0210518
0.0274847
1.01074
0.0220521
0.0198032
0.0277742
4.72057
0.0212537
0.0206023
0.173421
3.79184
0.24212
0.022052
0.019733
0.357887
0.128092
0.023534
0.0557256
0.0213885
0.0315778
0.0215147
0.125445
0.0206736
0.0209426
0.406779
0.0204189
0.0227107
0.286252
0.0581863
0.0206373
0.020897
0.0207417
2.36385
0.0237678
0.0261148
0.0214268
0.0207761
0.124793
0.0310884
0.0211452
0.02129
0.0197327
0.0228968
0.0206518
0.0226443
0.18323
0.414745
0.02311
0.0396039
0.020803
0.0393568
0.0212184
0.0215469
0.0207604
0.237118
0.0368685
0.0200302
0.0226722
0.721565
0.0369192
4.04683
0.0528549
0.0212901
0.0207678
0.0269475
0.0224031
4.43983
0.0205017
4.32935
4.53858
0.0208996
0.0384496
0.273802
0.0249039
1.50714
0.108457
0.0220563
4.25931
0.0256198
0.0205095
4.33235
0.363708
0.102203
0.0217058
0.3017
0.243612
0.0213364
0.170232
0.298929
0.0213784
0.0207068
0.0218143
0.0200202
0.0215436
0.80227
3.7408
0.0214234
0.0230178
0.48014
4.16
0.0326806
0.148758
0.0210706
0.0264641
3.68775
0.0468366
3.98981
4.1644
0.0212522
0.0214472
0.0210378
0.0222634
4.04619
0.250751
0.0209607
0.0356508
0.358232
0.322327
0.047144
0.0211345
0.0214821
0.0219375
0.240792
0.0222902
0.0360731
0.028275
0.0220128
0.430124
0.0231099
0.195879
0.140672
0.354464
0.021216
0.021203
0.0224968
0.030851
0.201539
0.232732
0.0218693
0.960525
4.01062
0.0300492
0.0323626
0.517718
0.33344
0.307868
0.436747
0.0213208
0.330894
0.550984
0.0301752
0.0263513
0.130121