/*--------------------------------*- C++ -*----------------------------------*\
| =========                 |                                                 |
| \\      /  F ield         | OpenFOAM: The Open Source CFD Toolbox           |
|  \\    /   O peration     | Version:  v2012                                 |
|   \\  /    A nd           | Website:  www.openfoam.com                      |
|    \\/     M anipulation  |                                                 |
\*---------------------------------------------------------------------------*/
FoamFile
{
    version     2.0;
    format      ascii;
    class       volVectorField;
    location    "950";
    object      U_0;
}
// * * * * * * * * * * * * * * * * * * * * * * * * * * * * * * * * * * * * * //

dimensions      [0 1 -1 0 0 0 0];


internalField   nonuniform List<vector> 
18355
(
(0.813221 -0.065955 2.3967e-20)
(1.00933 -6.54122e-05 -5.24412e-22)
(0.986696 0.215288 0)
(1.00987 0.00105648 0)
(1.02097 -0.0271637 0)
(1.09728 0.110567 -1.36265e-21)
(1.01358 0.000842036 1.6134e-21)
(1.01629 -0.0281883 1.19798e-21)
(1.00517 3.81639e-05 3.28501e-22)
(0.951928 0.0381942 1.29118e-21)
(1.01893 0.0198832 0)
(1.10213 0.141881 2.02288e-20)
(1.10409 0.146118 1.07339e-20)
(0.909928 -0.150929 1.38675e-22)
(1.00718 5.57769e-05 -6.0045e-22)
(1.00991 2.20513e-05 7.2897e-22)
(1.00978 0.000987135 -1.80914e-23)
(1.01032 0.0172829 -7.24322e-22)
(0.915255 0.131413 0)
(1.01151 -0.00398968 1.20844e-23)
(0.951199 -0.184869 -7.43082e-22)
(1.02149 0.0123497 2.48282e-21)
(1.0083 2.37908e-05 8.3244e-22)
(1.08351 0.110273 1.38807e-21)
(1.00827 2.24965e-05 0)
(1.0129 0.00320824 0)
(1.01417 0.000747823 -1.34167e-21)
(1.01016 0.00194701 0)
(1.00396 -3.55631e-05 -1.76881e-22)
(1.01858 0.0214906 0)
(0.965521 0.30349 0)
(1.04114 0.00303222 0)
(1.01195 -4.1604e-07 9.61637e-22)
(1.00931 -0.000207237 0)
(1.00584 -8.75816e-05 0)
(1.01222 0.00153528 0)
(1.03194 0.0347816 -1.92093e-21)
(1.01253 0.00132565 6.81431e-22)
(1.01899 0.0223845 0)
(1.01457 0.0107124 5.28866e-22)
(1.01287 0.000237238 -1.13848e-24)
(1.01949 0.0206402 0)
(1.00937 -0.00016953 6.08898e-22)
(1.00909 -5.67987e-05 6.96557e-22)
(1.00918 -4.92242e-05 3.65165e-22)
(1.1517 0.185695 4.82521e-21)
(1.00988 0.00201703 1.4116e-22)
(1.00979 0.00190007 0)
(0.947023 0.31323 0)
(1.0123 -0.000800196 -1.94e-21)
(1.00639 -2.94e-05 -1.63705e-21)
(0.806212 -0.308518 -3.41646e-21)
(1.01237 -0.000940203 1.9816e-21)
(0.90166 0.0434661 0)
(1.01515 0.00351256 5.34245e-22)
(1.01215 -0.00470174 -7.18116e-22)
(1.00534 -5.39303e-05 -2.93521e-22)
(0.941081 0.330785 -1.66291e-20)
(1.01329 0.00326734 1.19687e-22)
(1.15152 0.220499 2.7889e-20)
(1.00941 -0.000197704 -2.94393e-22)
(1.05993 0.125137 -6.9204e-21)
(0.903048 0.0356234 -5.42684e-21)
(1.01232 -1.66738e-05 9.768e-22)
(1.03711 -0.0185554 4.09126e-21)
(1.00698 -6.74893e-05 0)
(1.02183 0.0180069 0)
(1.03085 0.0350255 0)
(1.0095 -0.000288719 0)
(0.9215 0.0524993 -8.71798e-22)
(1.01177 -0.000282427 4.70911e-22)
(1.01526 0.00365302 0)
(1.03386 0.00892329 0)
(1.00661 0.0182226 9.10717e-22)
(1.06641 -0.0251914 -3.99968e-22)
(1.00956 -0.000284448 8.44519e-22)
(0.963335 0.332412 0)
(1.00966 -0.000287227 -1.63454e-21)
(1.01163 -0.000272278 -1.41453e-21)
(1.07042 -0.012052 -1.18351e-21)
(1.02156 0.0177117 9.55836e-22)
(1.07415 0.0355649 3.98678e-22)
(1.0096 -0.000293072 0)
(1.02025 0.0173365 -3.96631e-22)
(0.991881 0.00588514 7.34121e-21)
(1.00395 2.50386e-05 7.92276e-22)
(1.00641 0.000215232 0)
(0.9994 0.0243379 0)
(1.00955 0.0009653 1.74621e-21)
(0.999215 0.0217331 0)
(0.900195 -0.275704 -7.9878e-21)
(1.09536 -0.10931 0)
(1.06762 0.0427637 0)
(1.01259 -0.00081468 -2.54118e-21)
(0.835933 -0.039643 0)
(1.01294 -0.00212393 -8.90883e-22)
(1.00911 0.000967055 0)
(1.01303 -0.00169494 -2.49738e-21)
(0.974081 0.0871804 -4.85301e-22)
(1.02031 0.0117039 0)
(0.994522 0.00726828 -5.95227e-21)
(1.01139 -0.0002311 0)
(1.01247 -0.000693646 1.52721e-21)
(1.01045 -0.000654424 -2.15038e-23)
(1.0211 0.0174839 0)
(1.01003 2.56737e-05 0)
(1.0415 -0.0160343 0)
(0.816001 -0.0512919 6.10594e-22)
(1.01241 0.0336991 2.05766e-21)
(1.00974 -2.21518e-05 0)
(1.00644 -0.000111592 2.81799e-22)
(1.00418 -2.58775e-05 1.01448e-21)
(1.02864 0.0183075 0)
(1.02044 0.017076 1.16271e-22)
(1.114 0.236852 8.02587e-21)
(1.02254 0.0149792 -4.83386e-22)
(1.01127 -0.000232113 0)
(1.07752 -0.0079826 9.2098e-22)
(1.02088 0.0153846 2.64117e-22)
(1.02232 0.018029 0)
(0.934332 0.0432844 0)
(0.993234 0.22183 1.0351e-20)
(0.905525 -0.279056 0)
(0.991022 0.02187 2.38727e-21)
(1.0796 0.00713815 1.18396e-21)
(1.14709 0.201284 4.89625e-21)
(1.01393 0.000966135 -5.01924e-22)
(1.00981 0.000864634 1.71736e-23)
(0.792287 -0.0495785 -2.52205e-20)
(1.0205 0.0101447 -2.01335e-21)
(1.00918 0.000987943 0)
(0.806425 -0.314663 6.11195e-21)
(1.01398 0.00512401 3.05533e-22)
(1.00677 0.113087 -9.27733e-21)
(0.964727 -0.038596 6.0721e-21)
(1.00966 0.000887184 -8.7594e-22)
(0.918086 0.139868 0)
(0.897095 0.0145305 1.17667e-21)
(1.01173 0.00091617 1.83241e-23)
(1.05126 -0.129112 0)
(1.0273 0.0266883 -5.66809e-21)
(1.04357 0.00890412 -1.9667e-22)
(1.00966 0.00156075 -1.76343e-22)
(0.804237 -0.322207 0)
(0.969027 -0.0446822 5.39985e-21)
(1.01363 0.000411527 1.16182e-21)
(1.15109 0.248564 5.1528e-20)
(1.01226 -0.00182538 1.87665e-23)
(1.02831 0.0195763 1.38199e-21)
(0.988209 0.096633 0)
(1.01006 0.00182459 1.71173e-22)
(1.02253 0.0178132 1.39632e-21)
(1.01466 0.00149906 0)
(1.02214 0.00733528 -4.80961e-22)
(1.00948 -0.000153403 -9.34289e-22)
(1.00778 3.78602e-05 0)
(1.00971 0.000787765 -7.37837e-23)
(1.00448 7.69887e-07 0)
(1.00973 0.00163462 4.90337e-25)
(1.00758 2.94134e-05 0)
(1.01288 0.0186597 -2.32599e-21)
(1.014 0.0053016 -3.67058e-23)
(1.00972 -5.60585e-06 -6.80152e-22)
(1.02968 0.00699204 -4.48733e-22)
(1.00971 0.0205149 -1.71285e-21)
(0.983989 0.0351067 -8.50363e-23)
(1.13642 0.237705 -2.93885e-20)
(0.704686 -0.0738121 -6.33348e-21)
(0.922052 -0.1092 -3.54755e-20)
(1.02655 0.0263959 2.78843e-22)
(1.00443 -3.99151e-05 -1.10503e-21)
(1.00816 0.108805 7.64235e-21)
(1.0041 -2.27578e-05 -1.06187e-21)
(0.951726 0.297498 0)
(1.00515 -6.75741e-05 0)
(1.01301 0.000318199 -9.07202e-22)
(1.00486 -4.1387e-05 -9.16094e-22)
(1.01107 -0.00114807 -6.70191e-23)
(1.03496 0.0153895 -6.01595e-22)
(1.01793 0.0146063 0)
(1.00387 -1.0687e-05 -6.24607e-22)
(0.983813 0.0267716 -5.66244e-22)
(1.02105 0.0113644 8.7132e-22)
(1.01044 0.00241225 -1.25928e-22)
(1.00176 0.0234821 4.65065e-22)
(1.01268 -0.000666635 1.46926e-21)
(1.00512 3.46243e-05 -1.70104e-22)
(1.00167 0.0178069 -9.2228e-22)
(1.01544 0.00136834 -1.81056e-21)
(1.01467 0.000868273 5.0281e-22)
(1.14615 0.195038 -1.72292e-20)
(0.97815 0.0901988 -8.51558e-22)
(1.00951 -4.18066e-05 0)
(1.01076 -0.000340876 1.43967e-22)
(1.01495 0.000325495 0)
(1.09637 0.248088 2.64078e-20)
(1.00713 -6.97437e-05 -5.47159e-22)
(0.657572 -0.0338898 2.078e-22)
(1.00944 -6.14319e-05 5.4861e-22)
(0.921188 -0.158685 -7.30195e-23)
(1.01253 -0.000564944 -9.0044e-22)
(1.00765 0.0121178 3.51374e-22)
(1.0178 0.0233287 -2.13779e-21)
(1.00482 -1.7197e-05 -1.02184e-21)
(0.729835 -0.0609818 1.60537e-20)
(1.02082 0.00892769 -1.95087e-21)
(0.96268 -0.041982 3.99857e-20)
(1.01034 0.0023559 1.4041e-22)
(1.01167 3.60144e-05 1.35105e-21)
(1.01549 0.000908002 -8.53738e-22)
(1.01699 0.00908538 5.86728e-22)
(1.03955 0.0614173 -1.39612e-21)
(1.01351 0.00309976 0)
(1.01373 0.00246396 0)
(1.01243 -0.00191408 0)
(0.938118 0.290268 0)
(1.01837 0.0144361 -5.86097e-22)
(1.0363 0.0285872 3.6657e-21)
(1.02053 0.00930469 1.76398e-21)
(1.00991 0.00194608 0)
(1.01388 0.0329224 3.12178e-22)
(1.01044 -0.000278627 -2.70666e-22)
(1.0028 0.027177 0)
(1.02478 0.00186911 6.56789e-22)
(0.982018 0.0079514 6.19871e-22)
(1.00958 0.000835589 -1.06879e-21)
(1.01051 -0.000286543 2.72233e-22)
(0.905185 0.00208635 -8.66735e-22)
(0.883157 -0.0690102 0)
(1.02648 0.00853864 -1.43636e-21)
(1.01211 -0.00018435 1.3698e-21)
(1.02126 0.0177935 -1.21989e-21)
(0.98136 0.0449371 0)
(1.01056 -0.000287237 5.67168e-22)
(1.02837 0.0100958 4.26097e-22)
(0.986495 0.00881738 0)
(1.03038 0.0105294 4.23644e-21)
(1.1519 0.190818 0)
(1.04592 0.0244893 3.06162e-21)
(1.0144 0.00258078 0)
(1.00972 -7.32485e-05 6.69734e-22)
(1.03457 0.0149059 5.84839e-21)
(1.01436 0.00200687 0)
(1.02376 0.00919177 3.36037e-21)
(1.02049 0.00899141 1.62914e-21)
(1.01523 0.00326232 1.10272e-21)
(1.00979 0.00193273 5.0257e-22)
(1.03242 0.0583903 1.43627e-21)
(1.05117 0.0808692 0)
(1.01235 -0.000316033 1.05966e-21)
(1.012 3.44707e-07 -9.45298e-22)
(1.04066 0.0774318 -6.02452e-24)
(1.03783 0.190043 -1.70916e-20)
(1.02507 0.000114737 -6.25985e-22)
(1.01095 -0.00107369 8.15643e-23)
(1.02734 0.0101037 9.25358e-22)
(1.04484 0.0247385 -2.95829e-21)
(1.01263 0.000519211 0)
(1.00933 -0.000149435 -2.00491e-21)
(1.00891 0.000786657 3.92858e-22)
(0.983288 0.0869366 1.17374e-22)
(1.01733 -0.035009 -5.916e-22)
(0.985864 0.0854054 2.42065e-21)
(1.05082 0.0414751 0)
(1.01813 0.0244679 -1.18181e-21)
(1.01733 0.0253323 -2.40952e-21)
(1.03745 0.000797819 -3.8749e-22)
(0.964558 0.0888489 0)
(1.0089 0.000767049 4.04033e-22)
(1.01533 0.0034281 -5.80877e-22)
(1.01553 0.000700452 1.04611e-21)
(1.00993 -5.14879e-05 6.58986e-22)
(1.00699 0.0114564 3.36449e-22)
(1.03702 0.0293471 2.69133e-21)
(1.00968 0.00149369 0)
(1.01784 0.00918684 9.43317e-22)
(0.990222 0.01454 2.26402e-21)
(1.00957 0.00085734 2.15475e-22)
(0.954908 0.000873424 8.61441e-23)
(0.866805 0.270136 8.0713e-21)
(0.994465 0.016541 -5.98563e-23)
(1.01722 0.0093724 -6.53701e-22)
(1.02365 0.0151514 -1.54575e-21)
(1.0098 -6.96911e-05 -2.74624e-24)
(0.998855 0.0289796 0)
(1.02066 0.0079813 2.2599e-21)
(1.01864 0.0127559 0)
(1.01362 0.00029869 -9.42126e-22)
(1.01897 0.0132803 0)
(0.908195 0.179119 -1.00813e-21)
(1.01178 1.72798e-05 0)
(1.03072 0.07237 0)
(1.02156 0.0155085 -7.14635e-22)
(1.01046 -0.00377619 0)
(1.03769 -0.00331335 -9.42226e-22)
(1.00665 6.46377e-05 0)
(1.01063 -0.000323714 -2.92847e-22)
(0.960431 0.00288576 3.9942e-21)
(1.01757 0.00915475 0)
(1.04463 0.00346726 0)
(1.03427 0.0355823 -2.22243e-21)
(0.786757 -0.203933 2.00674e-20)
(0.997817 0.0358747 7.57193e-23)
(0.984181 0.0882287 0)
(1.0083 0.0144893 -8.6323e-23)
(0.987586 0.0151799 0)
(1.01174 -0.000507881 -1.07226e-21)
(1.0435 0.020667 -1.1591e-21)
(1.05008 0.0403755 8.55814e-21)
(1.02809 0.0719065 0)
(0.988367 0.0232698 1.68009e-21)
(0.977601 0.255967 -6.65925e-21)
(1.01046 0.00270927 0)
(1.01649 -0.00214743 6.29646e-22)
(0.916531 0.0268461 0)
(1.02428 0.0149071 7.9802e-22)
(1.01043 0.00269591 -1.05854e-21)
(1.00973 0.00180344 -5.81092e-22)
(1.00989 0.00200066 -4.9054e-22)
(1.06291 0.0772202 0)
(0.986903 0.255869 0)
(0.896547 0.290092 -5.71171e-21)
(0.98366 0.0174581 0)
(0.992085 0.0174193 2.27349e-21)
(1.02875 0.0262251 -7.78082e-21)
(1.02254 0.0491005 -6.05638e-23)
(1.01196 -0.00166096 7.78997e-23)
(1.02076 0.00862906 0)
(1.02793 0.0259055 4.43933e-21)
(1.01728 0.00543968 1.8508e-21)
(1.025 0.0077989 -4.80977e-21)
(1.0066 -6.87941e-05 0)
(0.978104 0.122636 0)
(1.01035 2.69581e-05 1.25831e-21)
(1.08431 0.0254952 1.61656e-21)
(1.0141 0.000702478 4.43261e-22)
(1.01473 0.0105069 -3.88252e-22)
(1.00652 0.0143641 1.1545e-21)
(1.0914 0.163172 0)
(0.644317 -0.0920416 1.31011e-20)
(1.02253 0.00885474 0)
(0.986176 0.0113943 0)
(1.0181 0.0117272 -8.4027e-22)
(1.00963 0.000998844 -1.54326e-21)
(1.017 0.00525786 -1.98401e-21)
(1.00534 3.41365e-05 0)
(0.949814 0.0520439 -1.84978e-21)
(1.00972 0.00108263 8.28426e-22)
(1.01048 0.000597239 0)
(1.01174 0.0254519 0)
(1.01872 0.0114777 -4.1406e-22)
(1.00981 0.00103336 1.25956e-21)
(1.06299 0.187231 0)
(1.00624 0.000628226 0)
(1.00984 0.00197266 -5.94113e-22)
(1.01227 -2.24281e-05 -8.51913e-22)
(1.01922 0.0117066 0)
(1.01124 0.000526782 5.63068e-22)
(1.02009 0.011709 0)
(1.01176 -0.000387579 0)
(1.01065 0.000652123 1.09668e-22)
(1.02002 0.0113831 0)
(1.17405 0.22277 -3.31908e-20)
(1.01903 0.0294673 0)
(1.01159 -0.000389018 0)
(1.00954 0.00146596 7.74018e-23)
(0.995375 0.00264112 9.55955e-22)
(1.00998 0.00208066 -3.0347e-22)
(1.00479 3.18459e-06 -1.29105e-21)
(1.00894 0.0580826 -8.58088e-22)
(1.0252 0.029143 -3.26192e-22)
(0.985549 0.0116882 0)
(1.01653 0.00511004 -2.51382e-21)
(1.03063 0.0110136 -3.41495e-21)
(1.10099 0.150354 -1.14272e-20)
(1.01737 -0.00267019 1.86073e-25)
(1.02902 0.00780806 0)
(1.04443 0.0209353 0)
(1.01118 2.86221e-05 0)
(0.997941 0.00328399 0)
(1.02994 -0.016202 -1.16696e-21)
(1.01975 0.0107327 6.72933e-22)
(1.01053 0.000695439 -1.49986e-22)
(1.01131 0.0175752 2.11389e-21)
(1.00678 0.000178179 0)
(1.0135 0.0061052 2.1478e-21)
(1.01495 0.000382239 2.68542e-22)
(1.06205 0.0373404 0)
(1.01486 0.0019827 8.68531e-22)
(1.02321 0.0177941 3.24117e-21)
(1.00622 -4.01112e-05 0)
(1.00991 0.00205121 1.07224e-21)
(1.00719 0.0106518 -2.137e-21)
(1.01567 0.0015953 -7.65324e-22)
(1.04326 0.10426 1.45668e-20)
(1.05998 0.354103 4.44483e-21)
(1.01684 0.0376412 0)
(1.01094 0.00138729 1.00157e-21)
(1.03186 0.186477 6.60127e-22)
(1.02738 -0.00273287 -1.70595e-21)
(1.01408 0.000619246 0)
(1.00676 -0.000173166 8.57415e-24)
(1.03304 0.0680829 1.18184e-20)
(1.01556 0.00148661 -1.95134e-21)
(0.983017 0.0117768 0)
(1.0133 0.000580626 0)
(1.0048 0.022006 -1.87659e-21)
(1.03147 0.0496963 -2.12609e-22)
(0.97223 0.0127534 2.69374e-21)
(0.671017 -0.108322 -1.62997e-20)
(0.969215 0.0748138 0)
(1.01044 -0.000622646 -9.29551e-24)
(0.78435 0.321853 -2.08927e-21)
(1.02064 0.0117191 8.06369e-22)
(1.00958 0.00144753 0)
(0.960334 -0.185511 0)
(1.01426 0.000818406 -5.77067e-22)
(1.00069 0.00244224 -8.57786e-22)
(1.01457 -0.00190915 0)
(1.04723 -0.021148 0)
(1.01422 0.000885292 2.65311e-22)
(1.01368 0.107832 0)
(1.09695 0.0268739 2.40903e-21)
(0.99413 0.0834515 3.67521e-21)
(1.01229 0.00549935 4.41367e-22)
(1.0101 -0.000121286 -4.24074e-22)
(0.991855 0.086403 4.06446e-21)
(1.02113 0.0155375 3.9945e-22)
(1.01215 -0.000195346 -4.97911e-22)
(0.966286 0.0338698 0)
(1.01723 -0.0292503 5.52102e-22)
(1.0095 0.00133955 2.16748e-22)
(1.03315 0.0700392 -1.73867e-22)
(1.03997 0.104239 1.27736e-20)
(1.00995 -0.000105478 3.7217e-22)
(1.01562 0.0121569 2.62341e-22)
(1.02159 0.0103454 1.31846e-21)
(0.925666 0.255544 3.92332e-21)
(1.00541 0.0466759 2.23026e-21)
(1.01842 0.0114541 4.15824e-22)
(1.0117 -0.000572357 1.11079e-21)
(1.03775 0.0600503 4.33413e-21)
(1.00725 0.00020197 1.40066e-21)
(1.01105 -0.000108517 6.6418e-25)
(1.0123 -7.94044e-05 7.89373e-22)
(0.977649 0.0139074 -2.97748e-21)
(1.06916 0.344624 0)
(1.01102 2.89676e-05 0)
(1.00178 1.31269e-05 0)
(1.01319 0.0006305 0)
(1.0925 0.168795 -3.16772e-20)
(1.03096 -0.0132775 6.36772e-22)
(1.01091 -0.000327122 0)
(1.0009 0.000702113 0)
(1.00168 0.0289312 -1.45819e-22)
(1.0211 0.00563856 -4.09693e-21)
(1.10446 0.250483 -3.06093e-20)
(1.05632 0.12771 5.14583e-24)
(1.02137 0.0116995 -1.86102e-21)
(1.00713 0.000181986 0)
(1.00728 0.0452668 -2.67024e-22)
(1.1024 0.16843 -1.38466e-20)
(0.806284 -0.285458 -5.1412e-21)
(1.01091 1.22433e-05 1.28967e-21)
(0.59432 0.0173801 0)
(1.01157 0.000804335 -1.2786e-22)
(1.01107 2.28382e-05 -1.26933e-21)
(0.993173 0.033567 -1.66731e-22)
(1.02151 0.016104 0)
(1.06778 0.0358839 -9.14012e-22)
(1.03215 0.00712858 0)
(1.02297 0.0181034 0)
(1.00562 0.0191101 -3.96989e-21)
(1.02186 0.0123712 5.61544e-23)
(1.05677 0.184563 0)
(1.02078 0.0155561 -6.18897e-22)
(1.05089 0.0376162 0)
(1.0193 0.0118664 1.04213e-21)
(1.01077 -1.89181e-05 -2.38725e-24)
(1.02559 0.00923808 -2.2215e-21)
(1.01094 -1.9612e-06 -2.5001e-24)
(1.04829 0.127047 -5.01113e-21)
(1.04464 0.349228 0)
(1.05176 -0.0174581 0)
(1.00975 0.018216 0)
(1.01357 0.00869558 1.44369e-22)
(1.01899 0.0118247 0)
(1.01596 0.00127935 8.55947e-22)
(1.00901 0.01504 1.13286e-22)
(1.01226 -0.000814404 -9.0234e-22)
(1.01185 -0.000639448 -5.27551e-22)
(1.01705 0.00184038 -2.59475e-23)
(0.997813 0.0310577 3.35569e-23)
(1.00988 -8.3583e-05 0)
(1.01242 -0.00127309 -9.22593e-22)
(0.491383 0.17225 -1.43822e-21)
(0.646039 -0.0150911 0)
(0.912967 0.0341751 -5.13472e-21)
(1.02055 0.00986134 1.8874e-21)
(1.00329 -1.24988e-05 0)
(1.0206 0.0102276 -1.56608e-21)
(1.02127 0.0119799 -1.72154e-21)
(0.997292 0.0742905 9.01966e-24)
(0.962325 0.225948 -3.75187e-21)
(1.01627 -0.0011831 -5.73211e-22)
(1.02022 0.0163198 -4.88546e-23)
(1.00052 0.0135064 0)
(1.0251 0.0147533 6.21921e-21)
(1.02626 0.0210761 3.57518e-23)
(0.909676 0.149772 1.81472e-20)
(1.01016 0.0182742 1.54271e-22)
(1.01214 0.00194816 1.64345e-21)
(0.928849 0.216659 0)
(1.00758 0.000268949 3.81723e-22)
(0.656196 -0.0702792 6.33946e-21)
(0.768097 0.314763 2.06384e-21)
(1.04673 0.026419 -9.30824e-21)
(1.01542 0.0118892 -2.94781e-22)
(0.882531 0.144259 -8.74847e-21)
(1.00977 0.00161086 -2.63021e-22)
(1.01472 0.103787 0)
(1.04385 0.00477658 4.34036e-22)
(0.944798 -0.0649853 -7.43097e-22)
(1.02057 0.0154205 0)
(1.02537 0.00894401 5.1637e-21)
(1.02055 0.00576624 0)
(0.962369 -0.0932833 -4.38653e-22)
(0.828286 -0.301241 1.99155e-20)
(0.959499 -0.0649683 7.17204e-22)
(1.08852 -0.049083 1.96011e-21)
(1.00757 0.0129595 7.41423e-22)
(1.02019 0.00563273 0)
(1.02032 0.0177275 6.26041e-22)
(1.01541 0.00321042 -1.25519e-21)
(1.01346 -0.00177871 1.3162e-21)
(0.99408 -0.160347 0)
(0.935038 0.266277 4.89392e-21)
(1.03488 0.358295 0)
(1.01044 0.158484 1.2494e-21)
(1.02301 -0.00643308 0)
(1.03788 0.00466132 5.71548e-21)
(1.03018 0.0207872 -3.01e-21)
(1.00994 0.00211729 -1.60501e-22)
(1.01202 0.00361065 -6.28014e-23)
(1.02535 -0.00738634 -1.46781e-21)
(1.00414 0.00175762 -8.60433e-22)
(1.02102 0.00818675 4.7799e-22)
(1.0153 0.00302877 2.41445e-21)
(1.08967 0.0228314 2.95622e-21)
(1.00908 0.000910696 1.08578e-21)
(1.0013 0.164374 -1.30241e-21)
(1.0163 -0.00460047 -1.47142e-21)
(1.02982 0.120925 -3.76283e-21)
(1.10303 0.15455 -2.59012e-20)
(1.01214 0.00363205 0)
(1.02038 0.0167603 -4.35344e-23)
(0.74628 -0.0376218 2.27641e-20)
(1.01694 0.00198196 -2.80979e-21)
(1.00654 0.378827 -1.33072e-20)
(1.01047 0.000694925 -4.51291e-23)
(1.13895 -0.0655391 0)
(1.01057 0.0173386 0)
(1.01344 0.000314813 1.19077e-21)
(1.02965 0.0222655 0)
(0.968994 0.0912654 -1.64832e-21)
(0.964259 0.0718674 0)
(1.00377 -4.76202e-05 1.03358e-21)
(1.00986 -0.000299329 8.67294e-22)
(1.0367 0.0561597 0)
(1.04755 0.0271901 -7.81569e-21)
(1.02561 0.122257 -3.50818e-21)
(1.01569 0.00101436 -1.75036e-21)
(1.06386 0.126977 1.2945e-20)
(1.00907 0.000886599 -7.67868e-22)
(0.957364 0.217033 8.88715e-21)
(1.00572 -7.83567e-05 -6.629e-24)
(1.01079 0.002985 -1.0877e-21)
(1.03294 0.216258 -6.45641e-21)
(1.01395 0.00764434 0)
(0.989561 0.00489048 0)
(1.00569 -7.26631e-05 0)
(1.02024 0.01589 8.13582e-23)
(1.01285 -0.00517361 -9.94192e-22)
(0.973658 0.101864 0)
(0.904911 0.30045 1.08634e-20)
(1.0309 0.0248646 -5.96118e-21)
(1.02722 0.00318932 3.03576e-22)
(1.00525 -2.94213e-05 8.41318e-22)
(1.0231 0.0147009 0)
(1.01908 0.010958 -1.85358e-21)
(1.03116 0.0242071 4.99219e-21)
(0.786629 0.189695 -1.61854e-20)
(1.00881 -1.76206e-05 -7.81405e-22)
(1.00971 0.0375054 5.89256e-22)
(1.01611 0.0089353 0)
(1.00503 -5.64681e-05 7.6733e-22)
(1.02564 0.0228756 -1.60042e-21)
(0.993908 0.0639942 1.78776e-23)
(1.01835 -0.00313054 -9.13692e-22)
(0.977436 -0.0306679 3.86453e-21)
(1.01161 -0.00191221 -5.61674e-22)
(1.05309 0.0571989 -6.60285e-21)
(1.08822 0.0668403 -1.72856e-21)
(1.01213 -0.00174184 1.18425e-22)
(1.00986 0.00201354 4.8799e-22)
(0.674698 0.0120422 -4.10973e-22)
(1.00139 0.0203038 0)
(0.512933 0.170623 -7.1259e-22)
(1.03008 0.00318504 0)
(1.0147 0.00988671 0)
(1.01536 0.00279694 6.62139e-22)
(1.01204 -0.000318435 4.70018e-22)
(1.00786 0.0187907 -8.34501e-22)
(1.01769 0.0120878 1.25287e-22)
(1.01443 -0.00205938 0)
(0.952098 -0.0724021 -5.92208e-21)
(0.804162 -0.330196 1.6476e-21)
(1.01075 0.00299646 -5.2844e-22)
(0.911165 0.239074 -5.30834e-21)
(0.923667 0.241551 2.8437e-21)
(1.01826 0.0183083 8.39152e-22)
(1.02442 0.228842 -8.10245e-22)
(1.01122 -7.59338e-05 0)
(0.847712 -0.0656363 0)
(0.982668 -0.103956 -1.25078e-22)
(1.01301 -0.0021846 3.81075e-23)
(1.0815 0.0817682 4.22587e-21)
(1.03646 0.0648055 -5.06487e-22)
(1.1066 0.267307 0)
(0.956417 0.0939771 -1.83823e-22)
(1.01215 -0.000335632 2.53253e-22)
(1.01211 -0.000307227 -8.83264e-22)
(1.00473 -1.52779e-05 5.5947e-22)
(0.996409 0.0278502 0)
(1.0602 0.0760416 0)
(1.01202 0.00559094 4.75723e-22)
(1.03168 0.00913468 -3.27874e-21)
(0.946285 -0.0625388 1.1848e-20)
(1.02069 0.0113773 -2.30994e-21)
(1.03627 0.0667844 -3.99583e-21)
(1.01256 -0.000390045 0)
(1.03956 0.0614179 0)
(0.873736 0.348498 -4.22884e-21)
(0.979178 -0.0863585 0)
(1.03317 -0.0142031 0)
(0.983165 -0.0701545 -1.14768e-21)
(0.999671 0.0162864 1.01053e-21)
(0.966185 0.307296 0)
(1.02019 0.0166075 1.25921e-22)
(1.00946 0.00128481 -1.1083e-21)
(1.02126 0.0148793 6.21679e-22)
(0.955263 0.0759623 -5.25992e-22)
(1.02066 0.00870822 5.14547e-22)
(1.06677 0.070176 -2.15658e-21)
(1.01224 0.00560418 -5.36226e-22)
(0.883726 -0.0532652 0)
(1.01314 0.000589002 1.89472e-22)
(1.01527 0.0103201 -5.11411e-23)
(0.781837 0.187608 0)
(1.00375 -4.33374e-05 1.31969e-21)
(1.02119 0.0145323 3.22988e-22)
(0.992912 0.00564989 -5.71855e-22)
(0.981038 -0.0248323 3.46924e-21)
(1.02051 0.00183336 1.68853e-21)
(1.01435 0.00141619 0)
(1.02471 0.0218587 3.02042e-21)
(1.02027 0.0156316 -3.02592e-22)
(1.01067 -0.000309641 -1.12094e-21)
(1.01734 0.000609663 1.42541e-21)
(1.03078 0.0257745 0)
(0.894695 0.0454071 0)
(1.02371 0.0180471 -1.87537e-21)
(1.00649 2.03789e-05 0)
(0.994215 0.0224399 2.50704e-21)
(1.09788 0.0359961 -2.53014e-21)
(1.01178 0.00492477 0)
(0.995852 -0.0635467 7.13021e-22)
(1.11203 0.242888 -1.89242e-20)
(1.02074 0.00557155 3.7008e-21)
(0.542793 -0.0609084 -1.14464e-21)
(1.01117 -0.000350269 0)
(0.977246 0.216401 -6.52608e-21)
(1.01695 0.00374484 0)
(1.01445 -0.00192581 2.169e-23)
(1.04054 0.213736 0)
(1.02032 0.0154322 4.68856e-22)
(0.937471 0.259166 0)
(1.02396 0.0177592 0)
(1.01443 0.00136021 -6.42417e-22)
(0.537226 -0.0633188 5.28244e-22)
(1.01676 0.00376545 0)
(1.00964 -6.13594e-05 -6.11718e-22)
(1.0121 0.000585941 4.93821e-22)
(1.00954 0.00135944 3.52822e-22)
(1.02154 0.0140722 8.56429e-22)
(1.00197 0.0248468 0)
(0.66341 -0.132665 5.25289e-21)
(1.00388 -1.85561e-05 0)
(1.01655 0.374733 -5.07768e-23)
(1.0116 0.00507631 -4.55547e-22)
(1.00786 -0.0668656 1.19714e-21)
(0.86852 0.252734 -1.60685e-20)
(1.01603 0.0123384 -1.23447e-22)
(1.01678 0.0052975 1.01672e-21)
(1.02013 0.0161186 0)
(1.01239 -0.000388335 0)
(1.0511 0.150828 1.22442e-20)
(1.01298 0.00364406 -1.09291e-22)
(1.00973 -0.00014907 -2.96224e-22)
(1.01102 -0.000317009 6.52966e-22)
(1.01208 0.00549736 1.15116e-22)
(1.01667 0.00196288 9.21821e-22)
(1.01418 0.240656 7.81035e-21)
(1.01029 0.0194388 9.06456e-22)
(1.02643 0.0754329 0)
(1.01096 -0.00406603 2.83277e-21)
(1.01542 -0.00256224 -6.07985e-22)
(1.01321 0.0177998 1.58912e-21)
(1.01003 0.00395339 1.11772e-21)
(1.02424 -0.0348567 -8.54835e-23)
(1.00966 -5.12836e-05 7.89097e-22)
(1.05244 0.124941 -2.51796e-21)
(0.99042 0.0187524 -1.58785e-21)
(1.01062 -0.000300662 0)
(0.922745 0.26138 3.1927e-21)
(0.861179 0.340815 4.26061e-21)
(1.00645 -4.96624e-05 1.19286e-21)
(1.03485 -0.0468034 -2.55303e-22)
(1.00507 -2.22706e-05 5.22765e-22)
(0.990365 0.0504419 0)
(1.05141 0.0568108 0)
(1.01296 -0.00219263 -1.96309e-23)
(1.03834 0.0576542 0)
(1.02094 0.0151626 -8.66336e-23)
(1.01758 -0.0581933 -1.07076e-21)
(1.00599 -1.30311e-05 -1.07748e-21)
(1.04565 0.0225643 -1.62931e-20)
(1.01579 -0.113083 0)
(1.00746 -0.0504646 -1.40863e-20)
(1.03181 0.0480403 -1.88331e-21)
(1.0166 0.00207121 1.07649e-21)
(0.957975 -0.00250016 1.95045e-21)
(1.07576 0.110657 3.39717e-21)
(0.869463 -0.0768384 -6.83653e-21)
(1.01582 0.00113731 2.86342e-21)
(1.03134 0.0181307 4.76748e-21)
(1.01208 -0.000412757 1.93839e-21)
(1.01685 0.00829812 0)
(1.01045 0.00278252 -3.08736e-22)
(1.00637 -8.19043e-05 0)
(1.00896 -4.55143e-05 -3.76498e-22)
(1.0289 -0.0566002 3.3963e-22)
(1.00276 0.000324597 0)
(1.00728 2.53314e-05 6.77301e-22)
(1.00933 -0.000225564 0)
(1.00716 -0.000120991 -2.11695e-22)
(1.01783 0.0110784 -3.05622e-22)
(1.01028 -0.0452811 7.39321e-21)
(1.07257 0.109296 3.02675e-21)
(1.01184 2.97672e-05 -1.42266e-21)
(1.02047 0.0154788 6.05142e-22)
(1.01413 0.00842902 1.37115e-22)
(1.01371 0.0085107 -1.24177e-22)
(1.01214 5.1877e-05 -1.1501e-21)
(1.00962 0.00154833 0)
(1.01324 0.026412 5.0756e-22)
(1.00948 -0.000258348 5.0695e-22)
(1.00923 0.00109032 0)
(1.00494 2.43271e-05 -6.06466e-22)
(1.02019 0.00959692 2.55017e-21)
(1.00617 0.00410241 7.70431e-22)
(1.01581 0.0025575 0)
(1.10811 0.231528 3.09914e-20)
(1.13024 -0.0807132 0)
(1.02984 0.0250386 3.31266e-21)
(1.00913 0.000997991 6.39547e-22)
(1.10324 0.163394 0)
(1.00963 -0.00016748 -2.91295e-22)
(1.00947 -0.000243732 7.37574e-23)
(1.0153 0.00286277 7.33681e-22)
(1.02557 0.0448954 2.45443e-21)
(1.01185 0.0186255 -8.44073e-22)
(1.01464 0.00248823 -3.59799e-22)
(1.01113 -0.000270631 -3.30044e-22)
(1.00939 -4.27382e-05 -1.84242e-22)
(1.00834 0.0201866 0)
(1.00952 -0.000288967 0)
(1.00273 0.0193439 3.91247e-21)
(1.01282 0.00351238 -2.806e-22)
(1.02004 0.0110489 0)
(1.01048 0.0028687 -5.63238e-22)
(1.03117 0.0177837 0)
(0.931399 -0.181083 -1.95498e-22)
(1.00944 0.00123398 -3.79149e-22)
(1.02213 0.0119086 -1.08968e-21)
(1.00735 0.000202311 0)
(0.913634 0.14457 0)
(0.936628 -0.0466526 0)
(1.04436 0.0351151 -6.88995e-21)
(1.01743 0.01209 -3.64178e-22)
(1.02649 -0.00495691 0)
(1.01593 -0.00583096 1.47784e-21)
(1.00709 0.0232466 3.32949e-21)
(0.976966 0.169414 5.20975e-20)
(1.00446 -1.29212e-05 4.38024e-22)
(0.971205 -0.0772734 0)
(1.02215 0.0121382 0)
(1.00072 0.135486 4.34693e-22)
(1.01132 0.00184802 -2.34913e-21)
(1.01145 3.37463e-05 0)
(1.01193 -0.000782247 7.42636e-22)
(0.836864 -0.00730746 -3.14641e-22)
(1.01183 -0.000720146 0)
(1.04508 0.0358574 -7.4457e-21)
(1.02624 0.00505653 3.09208e-22)
(1.06406 0.193797 0)
(1.0372 0.00777405 -3.13133e-21)
(1.0055 0.000113135 5.61226e-22)
(1.00713 2.21777e-05 -1.77662e-21)
(1.00664 -6.11067e-05 7.5486e-23)
(1.01168 0.00475507 1.13111e-22)
(1.05141 0.0388664 0)
(0.984216 0.134359 4.1633e-21)
(0.997047 0.129801 -1.428e-21)
(1.00889 0.0640716 0)
(1.02346 0.00287365 0)
(1.00969 -0.000297443 1.41541e-22)
(1.00548 0.000175587 1.13408e-23)
(1.01054 0.00294808 2.43447e-22)
(1.0108 -0.000115578 -4.82099e-22)
(1.02367 0.0110243 2.23815e-22)
(1.02424 0.0747981 0)
(1.00395 0.00109411 0)
(1.01901 0.0600618 0)
(1.02306 0.00282437 0)
(1.01966 0.00288366 -1.39543e-21)
(1.03167 0.0239834 0)
(1.01546 0.00296562 -6.78538e-22)
(1.09782 0.171134 2.55559e-20)
(1.01047 0.0669637 0)
(0.996917 0.0175843 9.73898e-22)
(1.02759 0.173779 0)
(1.15261 0.225834 0)
(1.01224 0.0276279 1.51608e-21)
(1.00987 0.00193173 -1.28496e-22)
(1.00966 -0.000300087 -1.44162e-22)
(1.02549 0.00822271 0)
(1.01335 0.00081359 4.23051e-22)
(0.921241 0.0683076 -5.16665e-22)
(1.05515 0.07652 0)
(1.04663 0.14763 -1.71092e-20)
(1.01115 -2.93986e-05 -2.02722e-22)
(1.02016 0.00931691 -1.6981e-21)
(1.01285 0.00556574 -2.8711e-21)
(1.01098 -0.000154657 -1.03884e-21)
(0.996849 0.172263 -3.6649e-20)
(1.03315 -0.0181539 0)
(1.00963 -0.000273462 0)
(1.01202 -0.000550561 5.22418e-22)
(1.00613 -2.17107e-05 -3.24606e-22)
(1.01051 0.00291452 6.16413e-22)
(1.00974 0.00112494 -1.00426e-21)
(1.01216 -0.000195597 0)
(1.08939 0.221842 -2.87349e-20)
(1.01158 -0.000989545 -1.1701e-21)
(1.01207 0.00181292 -2.49148e-21)
(1.01111 -4.88526e-05 -6.14813e-22)
(1.00844 -4.4485e-05 0)
(1.01048 0.00282489 -6.54395e-22)
(1.0166 0.00804766 6.28144e-22)
(0.999988 0.0147705 -1.35277e-21)
(1.00843 -4.89361e-05 4.45949e-22)
(1.01561 0.00741084 0)
(1.01115 -0.000295137 0)
(1.01398 0.0196488 0)
(1.03242 0.226316 2.23563e-20)
(1.0074 0.014996 1.18447e-21)
(0.96555 0.0254759 -2.41885e-21)
(1.01101 -0.00303768 5.31384e-22)
(1.02993 0.00935588 4.16859e-21)
(1.03693 0.10888 0)
(0.96439 -0.0030046 1.10623e-21)
(1.01311 0.000627185 -4.26179e-22)
(1.00738 7.65472e-06 1.43576e-21)
(1.0083 1.385e-05 -8.9493e-22)
(1.01158 -0.00852363 0)
(1.00382 -6.81433e-05 -3.24662e-22)
(1.01061 0.0276876 0)
(1.00104 0.0186898 0)
(1.01652 0.00850343 0)
(1.01315 0.0020183 9.44728e-22)
(1.02066 0.00127207 0)
(0.989975 0.136378 -5.05573e-22)
(0.983562 0.00530258 -1.108e-21)
(1.00383 1.12302e-05 7.44746e-22)
(1.0071 -1.83509e-05 -1.01779e-21)
(1.003 0.00219761 2.25274e-23)
(0.999041 0.0381637 0)
(1.01173 0.00379006 1.13467e-22)
(0.969694 0.0794862 0)
(1.00756 8.97493e-05 1.16025e-21)
(1.01047 -0.000286185 2.77753e-22)
(1.02969 0.0256902 4.72957e-21)
(1.06157 -0.070557 5.06428e-22)
(1.09355 -0.0530239 -2.03552e-21)
(0.981326 0.0347997 0)
(1.09667 0.223375 4.42624e-20)
(1.01056 -0.000336958 -1.46477e-22)
(1.01752 0.0133983 1.23297e-21)
(1.064 -0.0167074 -3.2661e-21)
(1.00266 -0.0006007 -1.73159e-21)
(1.01154 0.00465048 1.13136e-22)
(1.05902 -0.0217945 0)
(1.017 -0.00059393 5.67447e-22)
(0.888534 0.127455 2.98428e-21)
(1.04731 -0.0821861 3.83439e-22)
(1.00653 -0.000153723 1.4634e-22)
(1.01054 -0.000341718 7.48138e-22)
(1.0209 0.0018064 -3.3907e-21)
(1.01021 0.00323988 0)
(1.01072 -0.000345249 4.67486e-22)
(0.965957 0.0178546 1.42165e-21)
(0.976727 0.0413179 -3.27556e-22)
(1.00927 -8.62311e-05 -9.65486e-22)
(1.01647 0.00875375 4.91488e-22)
(1.01802 0.0118587 9.37739e-22)
(1.04385 0.0617611 1.11669e-20)
(1.01162 0.00498034 2.2493e-23)
(1.01193 -0.000499918 2.2486e-22)
(1.01363 0.0139971 5.80175e-22)
(1.0158 0.000389434 -6.61122e-22)
(1.01467 -0.000961358 -1.03081e-21)
(0.988382 0.0304921 -1.73378e-21)
(0.985422 0.124556 7.39013e-21)
(1.01621 0.124588 -1.39179e-20)
(1.01337 0.000924864 0)
(1.01033 1.788e-05 -8.65644e-22)
(1.00953 -7.86125e-05 -2.9845e-22)
(1.01133 -0.000659896 -1.12953e-21)
(1.01117 0.00458763 0)
(1.02428 0.0076032 -4.89429e-22)
(1.00965 0.000923157 0)
(1.00759 -1.61697e-05 -7.33854e-22)
(1.01053 0.000662792 2.42842e-23)
(0.956371 -0.0132168 -5.56945e-22)
(1.00878 1.21696e-05 7.92688e-22)
(1.01759 0.00130733 -1.02484e-21)
(0.965002 0.06654 6.66679e-22)
(1.0098 0.00107418 -9.23619e-22)
(1.00859 0.000616883 2.35992e-21)
(1.01682 0.00335323 0)
(0.839201 -0.314294 -1.56961e-20)
(1.01023 2.77882e-05 -1.54114e-21)
(1.02002 0.00288435 3.85967e-22)
(1.00889 7.26974e-06 8.00749e-22)
(1.0181 0.0038591 -6.86558e-22)
(1.01008 5.78718e-06 -1.52013e-21)
(1.02332 0.0268269 -3.73769e-21)
(1.05624 0.178418 3.01283e-20)
(1.0178 0.00146448 -1.09918e-21)