/*--------------------------------*- C++ -*----------------------------------*\
| =========                 |                                                 |
| \\      /  F ield         | OpenFOAM: The Open Source CFD Toolbox           |
|  \\    /   O peration     | Version:  v2012                                 |
|   \\  /    A nd           | Website:  www.openfoam.com                      |
|    \\/     M anipulation  |                                                 |
\*---------------------------------------------------------------------------*/
FoamFile
{
    version     2.0;
    format      ascii;
    class       surfaceVectorField;
    location    "950";
    object      Uf;
}
// * * * * * * * * * * * * * * * * * * * * * * * * * * * * * * * * * * * * * //

dimensions      [0 1 -1 0 0 0 0];


internalField   nonuniform List<vector> 
27284
(
(0.80166 -0.0553961 0)
(0.828996 -0.0659442 0)
(0.801753 -0.0676518 5.75471e-21)
(1.00926 -5.78118e-05 2.74592e-22)
(1.00939 -6.22472e-05 2.74773e-22)
(1.00936 -7.71569e-05 -4.19066e-22)
(0.991355 0.219171 9.54296e-22)
(0.983308 0.216358 1.00771e-20)
(0.989701 0.209464 1.05597e-20)
(1.00983 0.00102245 -4.92673e-23)
(1.00988 0.00111544 0)
(1.00992 0.00102856 4.91441e-23)
(1.01834 -0.027706 5.56921e-22)
(1.02279 -0.0296933 3.33894e-21)
(1.02117 -0.0241633 4.79137e-22)
(1.09102 0.109944 -1.09587e-23)
(1.10414 0.0943537 0)
(1.0995 0.120447 0)
(1.01375 0.000910736 -5.96918e-22)
(1.01345 0.000666648 2.54247e-22)
(1.01347 0.0008987 3.20691e-22)
(1.01445 -0.0310802 -1.8937e-22)
(1.0143 -0.0251657 -2.79548e-22)
(1.00458 -3.00831e-05 -3.20922e-22)
(1.00579 7.04339e-05 9.44634e-22)
(1.00496 3.74069e-05 7.53241e-22)
(0.951338 0.045756 1.26412e-22)
(0.95975 0.036888 -5.81136e-22)
(0.945411 0.0326567 -6.89252e-22)
(1.01928 0.0201895 1.44626e-21)
(1.01935 0.0194006 0)
(1.01841 0.0197342 -4.36076e-22)
(1.10359 0.143542 -1.08522e-20)
(1.10403 0.139648 8.64368e-21)
(1.1 0.141382 -2.42692e-21)
(1.10303 0.147984 -7.96122e-21)
(1.10747 0.145841 7.7872e-21)
(0.913411 -0.1544 5.58569e-23)
(0.90105 -0.15353 8.59696e-23)
(0.90983 -0.141183 -2.55916e-22)
(1.00691 7.07999e-05 -6.37992e-22)
(1.00741 5.70327e-05 3.31436e-23)
(1.00721 4.72659e-05 -2.85221e-22)
(1.00996 2.588e-05 3.27339e-22)
(1.00981 1.80388e-05 -2.23792e-22)
(1.00995 2.21809e-05 -1.11599e-21)
(1.0098 0.000921121 -2.54548e-22)
(1.00973 0.000988515 3.10133e-23)
(1.01089 0.0174342 1.49289e-21)
(1.0101 0.0177828 6.56354e-22)
(1.01014 0.0167952 -2.72298e-22)
(0.917263 0.136809 5.33225e-22)
(0.91168 0.130439 -1.97657e-21)
(0.91981 0.128182 5.68555e-22)
(1.01175 -0.00433482 -3.46806e-22)
(1.01118 -0.00401713 1.06915e-21)
(1.01152 -0.0035285 -1.30815e-22)
(0.952254 -0.186903 0)
(0.969385 -0.17349 -1.67605e-21)
(0.925323 -0.196604 1.17396e-21)
(1.02175 0.0123555 -3.70824e-22)
(1.02139 0.0121393 8.3395e-22)
(1.02146 0.0125696 3.54048e-22)
(1.00828 2.19657e-05 8.98406e-23)
(1.00837 1.89573e-05 -3.11589e-22)
(1.00828 2.79875e-05 -2.886e-22)
(1.07778 0.116176 2.55676e-21)
(1.08004 0.0962586 -4.12567e-21)
(1.00829 1.56088e-05 8.41647e-22)
(1.00822 2.44805e-05 3.36559e-22)
(1.01312 0.0032357 -8.3679e-22)
(1.01276 0.0030144 3.74174e-22)
(1.0128 0.00328689 8.82284e-22)
(1.01407 0.000860603 -8.51987e-22)
(1.01444 0.000814888 2.72401e-22)
(1.01404 0.000577806 1.54695e-22)
(1.01012 0.00188402 2.20317e-23)
(1.01024 0.00197882 -2.70617e-22)
(1.01016 0.00199124 -1.00875e-22)
(1.00285 -3.5504e-05 -7.24662e-22)
(1.00432 -4.23175e-05 -6.86972e-22)
(1.01886 0.0218524 1.19253e-21)
(1.01911 0.0210207 1.76127e-22)
(1.01796 0.0213017 -1.48695e-21)
(0.958339 0.307578 0)
(0.963627 0.297259 0)
(0.981114 0.292321 0)
(1.04259 0.00368526 1.25319e-21)
(1.03941 0.00352972 1.50044e-21)
(1.04103 0.000511182 5.98528e-22)
(1.01186 8.01425e-06 2.76678e-22)
(1.01192 -1.1768e-05 7.71881e-22)
(1.01208 -8.03351e-06 1.21333e-22)
(1.00936 -0.000201122 -2.69287e-22)
(1.00932 -0.000216372 8.91481e-22)
(1.00923 -0.000197767 4.68663e-22)
(1.0062 -7.87566e-05 -1.33481e-23)
(1.00615 -9.02117e-05 -8.93073e-23)
(1.0047 -7.63725e-05 -4.10639e-23)
(1.01236 0.00141875 2.24347e-23)
(1.01212 0.00167067 -3.41145e-22)
(1.01211 0.00148041 -7.40642e-22)
(1.0314 0.034995 -5.43411e-22)
(1.03249 0.0354597 -4.3409e-21)
(1.03211 0.0342138 -2.05456e-21)
(1.01264 0.00135553 -7.38891e-22)
(1.01263 0.0010825 6.67854e-22)
(1.0185 0.0227832 1.60643e-21)
(1.01974 0.0224129 4.78112e-22)
(1.01467 0.0106248 0)
(1.01468 0.0109313 -1.65393e-22)
(1.01439 0.0106447 0)
(1.0133 0.000260089 3.10437e-22)
(1.01316 0.000278964 -3.66488e-22)
(1.01156 0.000173693 -3.64927e-22)
(1.02013 0.0205762 8.13739e-22)
(1.00939 -0.000182832 -1.03107e-21)
(1.00943 -0.000161795 3.09167e-22)
(1.0093 -0.000160934 -4.49487e-22)
(1.00914 -5.22165e-05 1.88217e-22)
(1.00902 -5.00458e-05 5.90882e-22)
(1.00911 -6.93656e-05 0)
(1.00916 -3.91288e-05 -1.44614e-23)
(1.15239 0.187339 1.00672e-23)
(1.14963 0.183593 3.79654e-21)
(1.15553 0.182978 1.77287e-20)
(1.00984 0.00195922 -1.58102e-23)
(1.00991 0.00206962 -3.07598e-22)
(1.0099 0.00202864 5.43464e-22)
(1.00976 0.00185421 -3.18794e-22)
(1.00978 0.0018916 -3.19958e-22)
(0.950001 0.305881 -2.92705e-21)
(1.01233 -0.00086847 1.10421e-22)
(1.01244 -0.000810456 -1.72891e-21)
(1.01212 -0.000695635 -1.16837e-21)
(1.00676 -6.93726e-05 2.72354e-22)
(1.00607 -3.67311e-05 -3.18019e-22)
(1.00611 -2.1846e-05 4.91755e-22)
(0.807534 -0.310191 -3.16077e-21)
(0.800149 -0.308178 -1.81821e-21)
(0.80759 -0.305389 -1.52049e-21)
(1.01258 -0.00108684 8.30262e-22)
(1.01218 -0.000913803 4.79598e-22)
(0.901821 0.0412442 6.78711e-22)
(0.89791 0.0453086 9.52623e-22)
(0.905815 0.0480091 7.09377e-22)
(1.01522 0.00360982 0)
(1.01524 0.00346833 -6.06785e-22)
(1.01501 0.00345188 -4.14687e-22)
(1.01247 -0.00462358 5.20583e-22)
(1.01207 -0.00526481 1.24773e-21)
(1.0059 -0.000103221 1.15201e-22)
(1.00492 -4.58763e-05 -9.98813e-24)
(1.00497 -4.84528e-05 4.2271e-22)
(0.953846 0.334418 2.22576e-22)
(1.01348 0.00339141 -8.55702e-22)
(1.01336 0.00309577 -1.22107e-21)
(1.16429 0.221593 -1.84375e-20)
(1.15092 0.222169 -1.37552e-20)
(1.13514 0.211235 5.78358e-21)
(1.00949 -0.000203405 -7.13232e-22)
(1.0588 0.126454 -1.48994e-21)
(1.06269 0.126057 -4.972e-21)
(1.06019 0.121793 2.86054e-21)
(0.908306 0.0354319 5.30434e-21)
(0.899929 0.0319345 -4.74562e-21)
(1.01217 2.96993e-05 4.8773e-22)
(1.01237 0.000178898 2.48922e-22)
(1.01237 -0.000145408 -2.9175e-23)
(1.03867 -0.0177043 2.01258e-21)
(1.03615 -0.0224755 2.17558e-22)
(1.0343 -0.0164057 -1.89838e-21)
(1.00658 -6.02107e-05 -5.04518e-22)
(1.00728 -7.79258e-05 -1.03424e-22)
(1.00707 -8.29385e-05 4.25888e-22)
(1.02171 0.0178692 -1.07018e-21)
(1.02201 0.018012 -5.92631e-22)
(1.02174 0.0183055 3.69414e-22)
(1.03041 0.0347399 7.18043e-21)
(1.03069 0.0361094 3.12702e-21)
(1.00955 -0.000290504 -1.8788e-22)
(1.00952 -0.000289321 5.49822e-22)
(1.00943 -0.000284135 5.64923e-22)
(0.928632 0.048433 2.4993e-22)
(0.922133 0.0609152 -4.82591e-22)
(0.913415 0.0482905 1.25144e-21)
(1.0117 -0.000276559 2.62528e-22)
(1.0119 -0.000304631 7.43791e-22)
(1.01172 -0.000273063 1.00748e-21)
(1.0152 0.00369485 -1.02187e-22)
(1.0154 0.00372427 0)
(1.03287 0.00777102 -1.1757e-21)
(1.03529 0.00805941 1.01736e-21)
(1.03325 0.00989908 4.95965e-22)
(1.00618 0.0187335 -1.08859e-21)
(1.00735 0.0185453 3.6494e-23)
(1.00657 0.0175408 -2.45663e-22)
(1.06801 -0.0195728 -3.56876e-22)
(1.06474 -0.0321046 -1.9027e-21)
(1.06306 -0.0267088 -5.43587e-23)
(1.00961 -0.000284874 1.67652e-23)
(1.00958 -0.000288862 -2.28377e-22)
(1.00948 -0.000278339 7.23022e-23)
(0.966515 0.320742 0)
(0.973026 0.3434 -4.43905e-21)
(1.00964 -0.000279877 -5.05063e-22)
(1.00974 -0.000292915 -8.40174e-22)
(1.01151 -0.000256075 -6.94229e-22)
(1.01167 -0.000277841 -1.24065e-21)
(1.07332 -0.0112417 -5.96721e-22)
(1.06938 -0.00708726 -5.1913e-23)
(1.02135 0.0177648 -1.04721e-21)
(1.02161 0.0174648 -2.03443e-22)
(1.07114 0.0384132 0)
(1.07719 0.0381622 -9.17316e-22)
(1.07445 0.0254634 0)
(1.00967 -0.000300585 -5.8461e-22)
(1.0203 0.017201 -3.61596e-23)
(1.02022 0.0175389 3.62523e-22)
(1.02006 0.0172662 -4.59045e-24)
(0.992875 0.00690305 -6.98091e-22)
(0.989775 0.00761846 -3.4623e-22)
(0.9917 0.00443905 1.5109e-21)
(1.00431 6.04663e-05 -6.95353e-23)
(1.00419 -8.09748e-06 3.59309e-22)
(1.00287 1.03213e-05 8.53574e-24)
(1.00704 0.000233782 8.91754e-24)
(1.00592 0.000200839 0)
(1.00573 0.000184063 -2.49057e-22)
(0.999104 0.0232316 -1.90219e-22)
(1.00056 0.0248272 -3.25159e-22)
(0.998486 0.0253645 4.21738e-23)
(1.00959 0.000982335 0)
(1.00955 0.000946186 -4.70658e-22)
(1.0095 0.000965089 2.38684e-22)
(1.00017 0.0211576 -5.35388e-22)
(0.99781 0.0214741 -2.46688e-22)
(0.902171 -0.277148 4.2855e-21)
(0.895185 -0.271608 -2.45703e-21)
(1.07016 -0.120503 1.92303e-21)
(1.11192 -0.0980095 -6.01918e-21)
(1.08209 -0.115833 -4.7866e-21)
(1.06566 0.0499174 1.99929e-22)
(1.06351 0.0375413 0)
(1.01252 -0.000751496 1.85914e-22)
(1.0128 -0.000918707 -9.87598e-22)
(0.826026 -0.0424468 -4.85992e-22)
(0.835648 -0.0214133 5.31948e-21)
(0.849288 -0.0476665 -6.39651e-22)
(1.01297 -0.00187443 -2.35401e-22)
(1.01314 -0.00231559 7.74875e-23)
(1.01271 -0.00213234 3.46769e-23)
(1.00915 0.000977514 -1.87723e-22)
(1.00912 0.000981788 0)
(1.00907 0.000939592 -7.13724e-24)
(1.01283 -0.00151115 -4.6983e-23)
(1.01316 -0.00165363 1.83831e-22)
(0.976821 0.089206 -1.206e-21)
(0.971571 0.0898642 -5.98407e-22)
(0.974876 0.0843677 0)
(1.02017 0.0115452 4.52636e-23)
(1.02047 0.0117128 3.71725e-22)
(1.02028 0.0118668 5.58965e-22)
(0.995738 0.00697922 -1.09924e-21)
(0.993898 0.00977627 -3.44507e-21)
(1.01133 -0.00022933 -4.65008e-23)
(1.01134 -0.000214321 -4.39173e-22)
(1.01257 -0.000685253 1.07694e-21)
(1.01227 -0.000618183 9.82884e-23)
(1.01044 -0.000637268 1.61312e-23)
(1.0105 -0.000688095 8.51065e-24)
(1.0104 -0.000628623 8.30091e-24)
(1.02116 0.0176569 -5.90702e-22)
(1.0209 0.017473 0)
(1.02113 0.017278 -9.82024e-23)
(1.01014 2.40958e-05 2.50686e-22)
(1.01 2.00898e-05 6.24237e-22)
(1.04401 -0.0192365 5.27622e-22)
(1.04093 -0.0133433 0)
(0.81758 -0.0690751 3.30635e-22)
(0.805348 -0.0367046 -4.00526e-22)
(1.01308 0.0334851 -1.21959e-21)
(1.01157 0.033239 7.49518e-22)
(1.01243 0.0349738 -1.28397e-21)
(1.00973 -1.24631e-05 5.20508e-22)
(1.00984 -2.51887e-05 5.96532e-22)
(1.00966 -2.6969e-05 -2.5698e-22)
(1.00667 -0.000113478 1.87997e-22)
(1.00666 -0.000121737 -3.9409e-22)
(1.00453 -2.89064e-05 7.06489e-23)
(1.0032 -2.36684e-05 -1.77782e-22)
(1.00451 -3.88826e-05 8.71176e-24)
(1.02854 0.0187352 -7.66185e-22)
(1.02953 0.0178282 7.90473e-22)
(1.0278 0.0176324 6.7955e-24)
(1.02036 0.0169185 0)
(1.02051 0.0171205 -2.8633e-22)
(1.1141 0.239658 -6.11388e-21)
(1.11212 0.233489 -3.91418e-21)
(1.11996 0.234366 -9.18742e-21)
(1.02277 0.014751 -9.36898e-22)
(1.02226 0.0147566 -4.6645e-22)
(1.02241 0.0151135 -2.59161e-22)
(1.01116 -0.000215266 4.24586e-22)
(1.01131 -0.000246922 1.59903e-22)
(1.07956 -0.00116572 -1.50399e-21)
(1.07811 -0.0158371 -4.66312e-21)
(1.02099 0.0154615 1.16644e-22)
(1.02081 0.0154707 -9.04643e-24)
(1.02079 0.0152026 -2.74999e-22)
(1.0224 0.0179864 -7.61364e-22)
(1.02236 0.0184174 -8.36085e-22)
(0.93592 0.0369004 -1.69879e-22)
(0.942204 0.0469919 1.12379e-21)
(0.999071 0.219576 -9.37724e-21)
(0.993678 0.227 -1.79118e-20)
(0.908985 -0.275323 0)
(0.992452 0.0223982 -7.15862e-22)
(0.990549 0.0204995 1.19893e-21)
(0.98948 0.0237234 -1.33753e-21)
(1.08148 0.0149655 7.15515e-21)
(1.07696 0.0118091 -7.89328e-22)
(1.14749 0.197664 -4.12927e-21)
(1.15189 0.201512 -1.70885e-20)
(1.14564 0.202861 -2.38675e-20)
(1.01406 0.00120498 -7.10482e-22)
(1.00977 0.000825625 -1.99775e-23)
(1.00986 0.000850545 -1.22123e-22)
(0.770284 -0.0434516 3.71441e-21)
(0.805628 -0.0437452 4.4186e-21)
(1.02053 0.0100053 7.80352e-22)
(1.02066 0.0102765 1.62627e-22)
(1.02031 0.0101405 -8.58608e-22)
(1.00917 0.000971212 3.96972e-24)
(1.00922 0.00101246 -1.80474e-22)
(0.808446 -0.312801 -5.6801e-22)
(0.806068 -0.317463 6.99502e-22)
(1.01399 0.0052165 2.41945e-22)
(1.01387 0.00503178 2.63263e-23)
(1.01407 0.00513707 1.4587e-22)
(1.00779 0.111404 -4.59092e-21)
(1.00933 0.115279 -4.37629e-22)
(1.00453 0.11359 3.40615e-21)
(0.965793 -0.0409781 -3.33672e-21)
(0.966085 -0.0350242 -1.31334e-21)
(0.959791 -0.0384573 -6.44597e-21)
(1.00962 0.000871222 1.92871e-24)
(1.00965 0.000904395 -4.54123e-22)
(1.00971 0.000879001 3.27016e-23)
(0.916114 0.143678 0)
(0.924312 0.14131 8.84133e-22)
(0.901858 0.00867614 -6.80208e-23)
(0.903334 0.0218995 -1.03118e-21)
(0.885425 0.0172238 7.69494e-22)
(1.01166 0.000849821 0)
(1.0118 0.000903041 -3.75823e-22)
(1.01172 0.0010027 -1.63948e-22)
(1.0163 -0.148193 -8.73987e-22)
(1.05011 -0.130828 4.04579e-22)
(1.02697 0.0266014 4.42791e-22)
(1.02759 0.0263943 -1.18348e-22)
(1.02736 0.027256 3.49905e-21)
(1.04453 0.00595129 1.00268e-22)
(1.0403 0.00932611 9.65488e-23)
(1.04763 0.0109665 7.35309e-22)
(1.0097 0.00160937 2.98114e-23)
(1.00964 0.00155479 -9.30262e-23)
(1.00965 0.00152543 1.9813e-22)
(0.801249 -0.327005 0)
(0.805137 -0.316598 0)
(0.972776 -0.0437258 -2.33553e-21)
(0.965668 -0.0480006 0)
(1.01335 0.000384236 3.95878e-22)
(1.01383 0.000434499 4.81758e-22)
(1.01368 0.000456008 7.25268e-22)
(1.14359 0.240858 5.67432e-21)
(1.14272 0.249643 -1.16596e-21)
(1.15604 0.248467 8.28007e-22)
(1.01234 -0.00186472 1.23981e-23)
(1.01219 -0.00178003 -2.65789e-23)
(1.01223 -0.00181667 4.03257e-23)
(1.02925 0.019964 -1.21125e-21)
(1.02757 0.0196309 -5.50263e-22)
(0.986035 0.0923449 0)
(0.98302 0.102352 1.30414e-22)
(0.997716 0.0942425 0)
(1.01007 0.00179153 1.09615e-22)
(1.01001 0.00179778 2.61213e-22)
(1.0227 0.0179559 -6.46434e-23)
(1.02236 0.0176655 -4.20007e-22)
(1.01478 0.00172175 0)
(1.01488 0.0014388 4.30769e-22)
(1.01443 0.00137367 4.3648e-22)
(1.02156 0.00800745 2.34709e-22)
(1.02325 0.00748548 2.33086e-22)
(1.02162 0.0061483 -1.54622e-22)
(1.00955 -0.000158755 5.75525e-22)
(1.00946 -0.000137344 6.13815e-22)
(1.00769 3.70224e-05 1.67786e-22)
(1.00781 3.98244e-05 1.41416e-22)
(1.00782 3.73821e-05 -1.06647e-22)
(1.00966 0.000792236 1.48318e-22)
(1.00968 0.000706756 1.92221e-22)
(1.00441 2.6019e-05 -9.85006e-22)
(1.00519 -0.000105745 -1.91593e-22)
(1.00974 0.00166778 -3.72382e-23)
(1.00976 0.0016446 -1.19478e-23)
(1.00745 2.85816e-05 5.79635e-22)
(1.00743 2.19251e-05 -1.39378e-22)
(1.0131 0.0181823 2.07495e-22)
(1.01247 0.0186359 -1.62281e-21)
(1.01328 0.0191124 -1.23965e-21)
(1.0139 0.00528664 -1.15754e-22)
(1.01411 0.00539215 2.47856e-22)
(1.00981 -3.54703e-06 4.22182e-22)
(1.00965 -1.7291e-06 -1.93351e-22)
(1.0293 0.0084466 -1.11245e-23)
(1.03123 0.00660678 -2.25382e-22)
(1.02857 0.0056411 8.28601e-22)
(1.01007 0.0199483 1.86791e-22)
(1.00913 0.0203639 -1.82368e-21)
(1.01019 0.021227 -8.1296e-22)
(0.98408 0.0314483 -2.70362e-22)
(0.980782 0.0380778 0)
(0.988753 0.0381099 3.75272e-22)
(1.14218 0.234201 0)
(1.11077 0.230629 -8.50872e-21)
(0.716554 -0.0662587 -2.91505e-21)
(0.680761 -0.0696329 4.67523e-21)
(0.720534 -0.0808957 2.01783e-22)
(0.939379 -0.0853082 0)
(0.918675 -0.141324 -1.07019e-20)
(0.903179 -0.126848 -8.47303e-21)
(1.02612 0.0268184 -4.78338e-21)
(1.02648 0.0259375 7.96964e-22)
(1.00474 -4.29632e-05 2.38645e-23)
(1.0048 -4.46695e-05 3.90932e-22)
(1.00336 -3.21085e-05 -2.80906e-22)
(1.01154 0.108521 4.13022e-22)
(1.00661 0.107098 -1.70661e-21)
(1.00445 -6.92779e-06 2.7023e-22)
(1.00449 -2.29918e-05 3.33421e-22)
(1.00295 -2.00803e-05 1.04252e-23)
(0.945412 0.294637 -3.53024e-21)
(0.965482 0.289615 -2.72652e-21)
(1.00548 -8.37647e-05 9.69642e-23)
(1.00551 -8.02318e-05 1.27464e-22)
(1.0041 -4.23459e-05 1.97633e-22)
(1.01275 0.000289728 1.30433e-22)
(1.01255 0.000290239 -2.23467e-23)
(1.00445 -1.75959e-05 4.29306e-22)
(1.00547 -7.45986e-05 4.9092e-22)
(1.01101 -0.00111505 6.0916e-23)
(1.01111 -0.00115728 -3.10426e-23)
(1.01112 -0.00118108 -6.00323e-23)
(1.03476 0.0150537 -2.25047e-21)
(1.03543 0.0154153 -7.50841e-22)
(1.03474 0.0156368 2.148e-21)
(1.01806 0.0145078 -6.88571e-22)
(1.01777 0.0151297 -6.38196e-23)
(1.01739 0.0142905 6.45923e-23)
(1.00422 -1.82716e-05 4.01079e-22)
(1.00426 -6.20414e-06 -8.07736e-22)
(1.00281 -2.25219e-05 -4.21849e-24)
(0.987221 0.025568 -6.61877e-23)
(0.981172 0.0236683 -2.81939e-22)
(1.02121 0.0115358 -2.11849e-22)
(1.02086 0.0113727 1.25733e-21)
(1.02107 0.0111717 7.14669e-22)
(1.01039 0.00238328 -9.03486e-23)
(1.01049 0.00247788 -1.57432e-22)
(1.01045 0.00236976 -1.0739e-22)
(0.999342 0.0257818 -7.87753e-22)
(1.00161 0.0212036 -7.2924e-22)
(1.00485 0.0244867 -4.04849e-22)
(1.01259 -0.000608239 1.50068e-22)
(1.01288 -0.000735942 2.34545e-22)
(1.00498 2.59379e-05 3.14212e-22)
(1.0045 -3.43856e-05 5.14711e-22)
(1.00573 5.87945e-05 -8.91548e-23)
(1.00128 0.0192298 -6.97616e-22)
(1.00047 0.0172636 -4.28291e-22)
(1.00267 0.0173937 5.06095e-22)
(1.0155 0.00142632 -9.60245e-22)
(1.01549 0.00130803 -1.37698e-23)
(1.01533 0.00135112 -1.42285e-22)
(1.01486 0.00110893 -4.99912e-22)
(1.01482 0.000729262 2.66568e-22)
(1.14995 0.192053 -3.56896e-21)
(1.14389 0.193218 2.58344e-20)
(0.981159 0.089238 -1.16291e-21)
(0.977898 0.094419 -2.10941e-21)
(1.00959 -4.70099e-05 -8.45949e-22)
(1.00945 -4.23563e-05 0)
(1.00948 -3.43972e-05 0)
(1.01069 -0.000333441 3.95278e-23)
(1.01074 -0.000344529 -5.48907e-22)
(1.01085 -0.000346957 -2.51003e-22)
(1.01496 0.000361179 0)
(1.01487 0.000305194 0)
(1.01501 0.000306688 -3.65096e-22)
(1.10341 0.248461 3.87752e-21)
(1.09635 0.241732 -1.34971e-20)
(1.09448 0.251877 8.8059e-21)
(1.00728 -5.40934e-05 4.50711e-23)
(1.00725 -7.77843e-05 -4.58307e-22)
(0.652464 -0.0220824 1.07138e-21)
(0.684037 -0.036951 -6.75658e-21)
(0.644117 -0.0413262 -3.99968e-22)
(1.00942 -5.18771e-05 1.83827e-22)
(1.00953 -7.04209e-05 -5.80586e-22)
(0.918615 -0.165745 -6.68689e-23)
(0.927102 -0.154138 4.65481e-23)
(1.01258 -0.000539871 -2.1377e-22)
(1.01233 -0.000522781 -5.48469e-22)
(1.00733 0.0118123 -3.74434e-22)
(1.00764 0.0125751 -1.79579e-22)
(1.00808 0.0119992 -1.00709e-24)
(1.01807 0.0238181 -1.14777e-21)
(1.01717 0.0230896 -5.33393e-22)
(1.00431 -4.78124e-05 1.71494e-22)
(1.0047 -2.34579e-05 6.12411e-22)
(1.00551 1.00239e-05 -1.58307e-22)
(0.760226 -0.0659704 4.50985e-21)
(0.719938 -0.0505109 -5.16409e-21)
(1.02067 0.00896315 1.74046e-21)
(1.02079 0.00878926 1.76929e-21)
(1.02101 0.00905222 9.67916e-22)
(0.964712 -0.0148218 5.12754e-21)
(0.979333 -0.039151 1.21058e-20)
(1.01033 0.00236083 -2.11052e-23)
(1.0103 0.00226041 7.67595e-23)
(1.01175 3.44144e-05 4.52657e-23)
(1.01156 3.22673e-05 -8.3478e-22)
(1.0117 3.76118e-05 -9.80509e-22)
(1.01573 0.0010582 -4.24866e-22)
(1.01561 0.000763302 -4.16832e-22)
(1.01522 0.00087737 2.29046e-22)
(1.0171 0.00922734 3.50602e-23)
(1.01702 0.00896391 3.58296e-23)
(1.01685 0.00906558 2.35064e-22)
(1.03622 0.0599774 3.0707e-24)
(1.04081 0.0686061 2.76855e-23)
(1.04509 0.057358 2.93798e-24)
(1.01365 0.00278291 0)
(1.01313 0.00293612 -5.1891e-22)
(1.01385 0.00353912 0)
(1.01412 0.00253804 0)
(1.01354 0.00217584 -4.30905e-22)
(1.01246 -0.00191724 7.27832e-25)
(1.0125 -0.00195472 -1.56029e-23)
(0.937817 0.278108 -5.4031e-21)
(0.931342 0.296573 -6.04713e-21)
(1.01849 0.0137871 -6.39249e-22)
(1.01853 0.0146387 -4.1347e-22)
(1.03672 0.028997 2.31889e-21)
(1.03648 0.0281007 3.70894e-22)
(1.03584 0.0287365 6.71176e-21)
(1.02051 0.00915829 7.74072e-22)
(1.02034 0.00931193 0)
(1.02073 0.00943349 -1.19336e-21)
(1.00989 0.00194378 6.34979e-23)
(1.0099 0.00190878 1.30671e-22)
(1.00997 0.00201718 4.12848e-22)
(1.01467 0.0337122 -5.21659e-22)
(1.01385 0.0322492 5.13658e-22)
(1.0105 -0.000283227 -2.0706e-23)
(1.01046 -0.000283005 2.69247e-22)
(1.01035 -0.000275562 -1.78541e-23)
(1.0021 0.0282842 1.65124e-22)
(1.00225 0.0261741 -5.53418e-22)
(1.00395 0.027436 2.50326e-23)
(1.02508 0.000939127 -5.3973e-22)
(1.02594 0.00230941 9.74619e-23)
(1.02376 0.00219514 8.39457e-22)
(0.98437 0.00884761 -2.75801e-22)
(0.980196 0.0107729 8.67954e-22)
(0.981683 0.00543458 0)
(1.00943 0.000404896 4.0768e-22)
(1.01009 0.000810214 -1.41528e-22)
(1.00939 0.00139646 -5.0355e-22)
(1.01053 -0.000287849 3.79621e-22)
(1.01056 -0.000294497 1.30673e-22)
(1.01042 -0.000283558 -3.00996e-23)
(0.90119 -0.00498833 -2.75106e-21)
(0.914874 0.00337366 8.17776e-22)
(0.882534 -0.0592354 8.81523e-21)
(0.875684 -0.0712621 -3.24462e-21)
(0.891254 -0.0718622 -1.38005e-20)
(1.02557 0.00801201 9.46086e-22)
(1.02721 0.00770916 -1.52542e-21)
(1.02633 0.00921719 -1.61474e-22)
(1.01214 -6.31673e-05 -1.34388e-22)
(1.01214 -0.000171677 -1.39403e-22)
(1.01208 -0.000297377 -3.32707e-23)
(1.02118 0.0179577 -5.3336e-22)
(0.986399 0.0480797 6.89203e-22)
(0.981687 0.0401091 -2.94893e-22)
(0.976252 0.0489142 3.90497e-22)
(1.01065 -0.000295176 -1.33585e-22)
(1.02697 0.0101424 2.12933e-22)
(1.02969 0.0116566 9.0193e-22)
(0.988254 0.00681143 1.75523e-21)
(0.987253 0.0115025 -1.113e-21)
(1.03052 0.010805 -3.00951e-21)
(1.03061 0.0102743 3.15923e-22)
(1.03004 0.010453 1.25383e-21)
(1.15604 0.191397 -3.05407e-20)
(1.04545 0.0246182 6.07296e-21)
(1.04643 0.0250963 2.9503e-21)
(1.04611 0.023855 -1.00663e-21)
(1.0144 0.00228151 4.09711e-22)
(1.01477 0.00288449 0)
(1.0098 -7.68797e-05 9.89515e-22)
(1.00969 -6.14267e-05 7.06186e-23)
(1.00966 -7.83228e-05 1.34364e-22)
(1.03414 0.0148193 0)
(1.03478 0.0145016 0)
(1.01466 0.00200204 4.04763e-22)
(1.01413 0.0018157 5.36386e-22)
(1.02425 0.00829853 -7.3683e-22)
(1.02297 0.00890824 -8.62361e-22)
(1.02374 0.00980402 -8.68774e-22)
(1.02027 0.00889137 6.90146e-22)
(1.01529 0.00335453 -5.95898e-22)
(1.01533 0.00323728 0)
(1.01509 0.00320434 -2.70143e-22)
(1.00983 0.0019759 5.4325e-22)
(1.00981 0.00195057 5.67293e-22)
(1.00975 0.00186896 1.87175e-22)
(1.03264 0.0527292 2.19262e-22)
(1.02883 0.0606047 0)
(1.04765 0.078877 -1.50234e-23)
(1.05436 0.0875251 2.75535e-21)
(1.05836 0.0740477 -1.00631e-23)
(1.01222 -0.000320208 2.72472e-23)
(1.01246 -0.000327532 5.10361e-22)
(1.01236 -0.000297795 3.27342e-22)
(1.01196 -0.000239355 4.28255e-22)
(1.01194 0.000245821 0)
(1.03689 0.0806078 -3.25094e-24)
(1.03609 0.18835 -4.06648e-21)
(1.03992 0.193503 6.53217e-21)
(1.04176 0.187312 4.57846e-21)
(1.02588 -0.00056619 8.24688e-22)
(1.02394 -0.000345404 1.1228e-21)
(1.01093 -0.00104419 3.73331e-23)
(1.01092 -0.00105868 3.30414e-24)
(1.02846 0.00885265 2.51635e-22)
(1.02823 0.0119289 0)
(1.02564 0.0096831 -3.37338e-22)
(1.04482 0.0256292 8.4521e-23)
(1.04449 0.0243661 -6.79643e-22)
(1.01293 0.000550046 4.71631e-22)
(1.01225 0.000445408 -4.06186e-22)
(1.01259 0.000539332 -7.78344e-22)
(1.00971 -0.000530439 -1.32974e-22)
(1.00876 -0.00018827 -4.66075e-22)
(1.0089 0.000775821 -1.95632e-22)
(1.00895 0.000804182 -2.1681e-22)
(1.00887 0.00077633 -3.35096e-24)
(0.99093 0.0802234 0)
(0.977116 0.0853347 -1.01879e-22)
(1.01706 -0.0319391 8.94049e-22)
(1.02017 -0.0350368 4.60481e-22)
(1.01384 -0.0373719 2.58109e-22)
(0.985224 0.0874781 1.58983e-21)
(0.989216 0.0862523 9.8445e-22)
(0.984723 0.0836401 2.38859e-21)
(1.05055 0.0410623 9.41019e-21)
(1.05049 0.0420753 1.93477e-21)
(1.05186 0.0415634 4.83004e-21)
(1.01898 0.0245454 -5.96402e-22)
(1.01757 0.0248991 4.24171e-22)
(1.01565 0.0258766 -5.64945e-22)
(1.01931 0.0267808 1.80309e-22)
(1.01769 0.0228922 -7.27712e-22)
(1.03784 -0.00138742 1.03842e-21)
(1.04098 0.00166154 3.74955e-22)
(1.03521 0.00169101 1.5824e-21)
(0.967291 0.0906482 -6.32661e-22)
(0.964984 0.0861262 1.45048e-22)
(0.961395 0.0914207 1.50573e-22)
(1.00887 0.00074803 2.00196e-22)
(1.00894 0.000773972 -6.43957e-22)
(1.01548 0.00350627 2.49916e-22)
(1.01571 0.00050495 0)
(1.01579 0.000938036 0)
(1.01525 0.000637285 0)
(1.00987 -5.9403e-05 5.66672e-22)
(1.00992 -3.88766e-05 1.38116e-21)
(1.01002 -5.33551e-05 3.63882e-23)
(1.00712 0.0110795 2.89255e-22)
(1.00656 0.0116089 -1.1372e-21)
(1.03688 0.0299032 3.68586e-21)
(1.03764 0.0292031 5.20166e-21)
(1.00962 0.00147039 0)
(1.00972 0.00155153 1.5197e-22)
(1.00968 0.00145816 7.26304e-23)
(1.01771 0.00917228 -3.49605e-22)
(1.01787 0.00906535 6.07891e-22)
(1.01795 0.00933718 0)
(0.988953 0.015064 -2.51037e-21)
(0.991232 0.0161383 1.17365e-21)
(0.990903 0.0133473 1.48895e-22)
(1.00958 0.000837159 4.50356e-22)
(1.00952 0.000860713 4.4178e-22)
(0.957244 0.00246932 1.68618e-21)
(0.952216 0.00365701 -2.80057e-21)
(0.954247 -0.00206637 -3.03427e-21)
(0.86861 0.260331 -1.92297e-21)
(0.85899 0.265746 -2.42307e-21)
(0.993319 0.017138 3.3137e-21)
(0.995685 0.0177176 1.10071e-21)
(0.994939 0.0153094 1.42142e-21)
(1.01737 0.00939781 0)
(1.01718 0.00950564 2.98853e-22)
(1.02395 0.0149338 1.66434e-21)
(1.02328 0.0148015 5.28748e-22)
(1.02349 0.0153532 1.6961e-22)
(1.00972 -6.65173e-05 -3.9198e-22)
(1.00982 -8.29398e-05 3.44562e-22)
(1.00027 0.0291909 2.2319e-22)
(0.998185 0.0303099 1.69644e-22)
(0.997972 0.0276989 1.95735e-22)
(1.02084 0.00808518 -1.10205e-21)
(1.02051 0.00802609 -9.12737e-22)
(1.02062 0.00781722 -2.41846e-22)
(1.01868 0.0130882 -1.55944e-22)
(1.01886 0.0122432 -5.46221e-22)
(1.01778 0.0126811 9.39272e-22)
(1.01394 0.000354642 4.41168e-22)
(1.01319 0.00024379 4.56159e-22)
(1.01925 0.0133273 5.23118e-22)
(0.909898 0.174396 -6.95851e-22)
(0.912564 0.177583 1.0872e-21)
(1.01181 2.21954e-05 6.5775e-22)
(1.01167 1.66531e-05 2.78754e-22)
(1.02977 0.0722741 1.29352e-22)
(1.03194 0.0711039 -2.29305e-22)
(1.03157 0.074535 1.57929e-21)
(1.02169 0.0154579 -1.20308e-21)
(1.02161 0.0157551 3.98927e-22)
(1.02142 0.0154289 4.88964e-22)
(1.01072 -0.00332764 2.66112e-22)
(1.01071 -0.00423944 0)
(1.00994 -0.00364553 3.0728e-22)
(1.04017 -0.00490389 -1.7665e-21)
(1.03483 -0.00429971 -1.78305e-21)
(1.0065 6.21696e-05 2.85115e-22)
(1.00617 4.10796e-05 -3.73619e-23)
(1.01066 -0.000322695 5.89967e-22)
(1.01055 -0.000320945 4.27392e-22)
(0.96042 0.00635893 2.4714e-21)
(0.962104 0.00158662 2.70509e-21)
(1.01754 0.00929102 -3.50661e-22)
(1.01746 0.00901009 -1.66489e-23)
(1.04827 0.00214394 1.20399e-22)
(1.03364 0.0358267 -1.04915e-21)
(1.03447 0.0350145 6.35078e-23)
(1.03486 0.0362728 -1.04113e-21)
(0.773219 -0.171338 1.12989e-20)
(0.998632 0.0374294 -3.31061e-22)
(0.996085 0.0361198 -1.58427e-22)
(0.998575 0.0349367 1.85049e-23)
(0.986171 0.0918484 2.42021e-21)
(1.00879 0.0148226 -6.35887e-22)
(1.00789 0.0147724 -1.50496e-22)
(1.00837 0.0140382 -1.11105e-22)
(0.986613 0.0136604 4.07244e-22)
(0.987248 0.0172696 -1.73048e-21)
(1.01172 -0.000545422 4.21211e-22)
(1.01163 -0.000391792 -5.14362e-22)
(1.01185 -0.000551726 -5.46628e-22)
(1.04401 0.0208156 1.10093e-21)
(1.04313 0.021059 6.32757e-21)
(1.04344 0.0200982 -1.70144e-21)
(1.05085 0.0395469 -1.0031e-21)
(1.04927 0.0401768 -1.13061e-21)
(1.02754 0.0741353 -1.81911e-21)
(1.02789 0.0705928 -1.90924e-21)
(0.986031 0.0205792 -5.38275e-22)
(0.98865 0.0271634 2.09319e-22)
(0.991544 0.0219905 -7.16322e-22)
(0.983692 0.256356 -7.44818e-21)
(0.976397 0.251655 0)
(0.976757 0.261434 6.52608e-21)
(1.01045 0.00272849 -9.31617e-23)
(1.0105 0.00281228 -3.77994e-22)
(1.01045 0.00268146 -2.72589e-22)
(1.01633 -0.00171871 6.25845e-22)
(1.01591 -0.00239577 -6.34743e-22)
(1.01709 -0.00258299 3.81107e-23)
(0.914419 0.0315814 2.67169e-21)
(0.920651 0.0276978 2.38963e-21)
(0.914075 0.0232979 2.78205e-21)
(1.0246 0.0150027 -7.59213e-22)
(1.02434 0.0143766 -1.14304e-21)
(1.01044 0.00275756 6.36287e-22)
(1.01037 0.00263977 9.82219e-23)
(1.00975 0.00181061 0)
(1.00969 0.0017474 3.25596e-22)
(1.00995 0.00204509 -7.67901e-23)
(1.0099 0.00202715 3.40739e-22)
(1.00985 0.00193616 -2.35442e-22)
(1.0617 0.0766511 0)
(1.06429 0.0761736 0)
(1.0633 0.0787211 0)
(0.989978 0.251144 -3.82135e-22)
(0.991079 0.260791 7.71553e-21)
(0.902829 0.29684 -5.16002e-21)
(0.891852 0.290547 7.29951e-22)
(0.902726 0.28325 3.6801e-21)
(0.985126 0.014647 -7.82582e-22)
(0.979739 0.0189564 -8.45054e-23)
(0.991999 0.0191002 4.53306e-22)
(1.02843 0.0261031 -9.21858e-22)
(1.02917 0.025947 -1.31726e-21)
(1.02885 0.0269429 2.32945e-21)
(1.02849 0.0493943 -3.69124e-22)
(1.02125 0.0552052 8.50818e-23)
(1.02057 0.0450837 -3.15447e-23)
(1.01205 -0.00169946 -8.49494e-23)
(1.01193 -0.00164776 4.45531e-23)
(1.01191 -0.00161757 -7.66095e-23)
(1.02058 0.00852193 1.23014e-23)
(1.02093 0.00857646 7.70167e-22)
(1.02792 0.025395 -2.73544e-21)
(1.01714 0.00534952 6.42496e-23)
(1.01739 0.00541379 4.22121e-22)
(1.0173 0.00556003 -3.18266e-22)
(1.02468 0.0067313 1.33015e-21)
(1.006 -6.13181e-05 2.35283e-22)
(1.00718 -0.00012168 3.8727e-23)
(0.97682 0.113037 1.84142e-22)
(0.9886 0.126719 1.78614e-22)
(0.97135 0.130504 -4.35029e-22)
(1.01034 2.06401e-05 2.86022e-22)
(1.01029 2.71864e-05 1.56753e-23)
(1.01045 2.65788e-05 -4.70356e-22)
(1.08723 0.0224542 4.87275e-21)
(1.08257 0.0320468 6.21543e-21)
(1.01409 0.000663653 -8.39248e-23)
(1.01418 0.000755856 1.57423e-23)
(1.01403 0.000710617 6.42592e-22)
(1.01494 0.0105664 0)
(1.01463 0.0102853 0)
(1.00703 0.0147218 1.53843e-21)
(1.00662 0.0138866 1.89585e-22)
(1.006 0.014684 1.15473e-21)
(1.0926 0.165767 -1.12291e-20)
(1.09399 0.16091 2.2538e-21)
(1.08874 0.162252 -5.52532e-21)
(0.658177 -0.0985592 -1.45841e-21)
(0.650027 -0.0789821 4.46187e-21)
(0.627165 -0.0929253 4.313e-21)
(1.02192 0.00947804 7.48078e-22)
(1.02213 0.00793312 -6.57186e-22)
(0.98479 0.0086057 1.69565e-23)
(0.989078 0.0114515 -2.41843e-22)
(1.01808 0.0118375 2.97015e-22)
(1.01794 0.0115279 1.6909e-22)
(1.01827 0.0117539 2.38008e-22)
(1.00968 0.000995561 4.67097e-22)
(1.00962 0.00101795 0)
(1.01689 0.00528062 -2.29281e-23)
(1.01698 0.0051348 9.55243e-22)
(1.00589 0.000511174 5.46672e-22)
(1.00471 0.000527128 9.45697e-22)
(1.00552 -0.000544515 8.51439e-22)
(0.957173 0.0579738 1.82511e-21)
(0.940225 0.0565376 2.21505e-22)
(1.00973 0.00110517 0)
(1.00977 0.00107719 0)
(1.00967 0.00105949 0)
(1.0106 0.000642718 6.58618e-24)
(1.00993 0.000498512 -8.78671e-25)
(1.01071 0.000616607 -1.26299e-22)
(1.01308 0.022393 5.13877e-23)
(1.00881 0.0254704 4.28396e-23)
(1.01458 0.0286972 -6.7574e-22)
(1.01857 0.0114638 -4.19937e-22)
(1.01885 0.0116475 1.84696e-22)
(1.01873 0.0113296 -2.22977e-22)
(1.00981 0.00105401 -6.16849e-22)
(1.00977 0.00101267 -1.88999e-22)
(1.00986 0.00102825 -3.55469e-22)
(1.0607 0.185871 6.98566e-21)
(1.06435 0.190286 -8.77482e-21)
(1.06662 0.185124 -8.93647e-21)
(1.00677 0.000466574 -3.6825e-22)
(1.00614 0.00131794 1.16967e-21)
(1.00988 0.00201558 5.48154e-22)
(1.00985 0.00199419 0)
(1.0098 0.00190626 0)
(1.01229 -3.48881e-05 5.81386e-22)
(1.01221 -0.000112595 7.71589e-22)
(1.01233 9.69736e-05 -3.01867e-22)