/*--------------------------------*- C++ -*----------------------------------*\
| =========                 |                                                 |
| \\      /  F ield         | OpenFOAM: The Open Source CFD Toolbox           |
|  \\    /   O peration     | Version:  v2012                                 |
|   \\  /    A nd           | Website:  www.openfoam.com                      |
|    \\/     M anipulation  |                                                 |
\*---------------------------------------------------------------------------*/
FoamFile
{
    version     2.0;
    format      ascii;
    class       volScalarField;
    location    "1000";
    object      ddt0(omega);
}
// * * * * * * * * * * * * * * * * * * * * * * * * * * * * * * * * * * * * * //

dimensions      [0 0 -2 0 0 0 0];


internalField   nonuniform List<scalar> 
18355
(
-0.000118544
0.0132458
-9.63628e-06
-5.92333e-06
-1.3889e-05
0.00324799
-3.67574e-06
0.000249377
-6.07872e-08
0.14265
-5.36475e-06
0.00401682
0.000582878
1.23192e-08
5.50221e-06
1.56722e-05
-0.173687
-5.57308e-06
-9.09595e-06
0.307986
1.61076e-05
-1.25406e-05
0.0563968
-1.41341e-05
-0.000139406
-2.4346e-06
5.63041e-08
-1.36509e-06
2.03806
-1.18848e-05
-5.92847e-06
-4.10187e-05
-5.73038e-06
-1.06668e-05
-0.000496173
-0.000109585
-1.03496e-06
-0.0043201
-3.15307e-07
-5.47466e-06
-6.32617e-07
-0.00811162
-1.06014e-05
0.498123
-1.11289e-05
-0.00354278
-2.70646e-05
-3.57196e-06
0.000284185
-5.26931e-06
-5.48862e-06
-3.32335e-06
-1.50455e-07
0.59986
-3.1934e-06
-6.30936e-06
0.00411478
5.38113e-06
0.0143063
-0.00397009
-5.46615e-06
0.0016164
-5.05316e-06
-0.000328052
0.0312845
-0.000114269
4.86415
9.43385e-06
-4.52539e-10
-1.27145e-05
-0.000547905
-1.22453e-06
-0.0041175
-7.13281e-06
0.000352706
-3.73248e-06
-0.119593
-3.86948e-05
-0.000293865
-4.05431e-06
-3.51055e-06
-0.0554537
1.87115e-05
-0.000223562
-2.4936e-06
0.000618657
-0.156083
0.293445
1.79087
0.447185
0.100638
-1.10462e-05
-2.91273e-06
-7.72999e-06
-0.540157
0.085173
-1.23614e-06
-0.000100622
0.563299
-0.0496927
0.150172
-0.0887554
-0.000191659
-1.48296
-2.07366e-05
0.00436552
-0.218279
-0.00274593
-7.49737e-05
0.270639
-1.04574e-05
-6.18139e-06
-1.52406e-06
-4.19721e-06
0.476968
-6.95626e-06
-0.0279262
-0.119595
0.0208331
-3.67713e-05
0.187728
4.85743
-3.5916e-05
-0.00048508
-1.28603e-06
0.00374071
-3.50639e-06
3.91896e-07
-1.26127
-7.64557e-06
-5.31766e-06
2.20773
0.000687874
-9.59385e-05
-3.10208e-05
-5.3459e-07
2.10291e-06
-5.39048e-06
-2.12196e-06
-0.00128289
0.270875
0.0807462
-1.00542e-06
-9.8053e-06
0.137709
-1.49799e-05
3.65592e-05
-0.0636561
-3.8746e-05
-0.206817
-9.885e-06
-1.52809e-05
-0.00049016
0.00968769
0.0021814
-6.53967e-07
0.690241
0.0178038
-7.3244e-07
0.00207354
5.35243e-05
-1.52866e-05
6.18848e-05
-0.000112385
0.00590361
0.0329514
0.325179
-0.00044146
0.0232152
-6.32293e-06
-0.870739
0.104067
-5.60549e-06
-5.85242e-06
1.26198e-05
-0.112451
-0.000530926
-2.75681e-06
-1.1121
0.332421
-0.013166
0.0639711
-9.38693e-05
-5.07665e-06
-0.0026204
-0.0901108
0.229442
0.0154095
-2.11603e-06
-0.187642
0.00380554
-1.08386e-05
-0.00010906
0.21754
-0.000140485
-1.37313e-05
-0.662461
-9.24158e-05
8.27008e-05
-5.04736e-06
-1.93452e-05
3.17586e-06
0.483579
0.26908
-0.811613
-0.000835529
-0.0262961
-0.124791
-0.176483
5.48079e-05
2.59761e-06
-8.26182e-06
0.170512
-7.26363e-06
-6.60171e-06
-0.0407696
-0.402428
0.189004
-6.50701e-07
-3.74952e-05
-0.0249658
-3.52104e-06
-0.000507721
1.7693e-06
0.266412
-1.37819e-05
-0.0770297
-0.0431744
0.0747078
2.47563e-06
-1.96355e-07
-0.000275816
-9.56463e-06
-0.0729341
1.40239e-05
-2.65398e-06
-3.38676e-06
-0.00983619
-1.15365
-1.09549
-6.08295e-05
-0.00344878
-7.51984e-06
-6.67443e-06
-1.44891e-05
-0.0523154
0.103397
-0.0327185
0.00205183
1.91958e-05
-1.92926e-05
0.0560963
-0.000105113
-0.224443
-1.6094e-05
-0.0990555
0.0614537
0.00200546
-1.30324e-05
-9.35968e-06
-0.000115414
-0.000784721
0.510452
0.000733809
-6.85716e-06
-7.02475e-06
-7.89822e-07
-0.0274798
-0.00208803
0.0432609
-6.13977e-07
1.38009
-0.0018665
0.00373467
1.25757e-06
2.62813
-3.47194e-06
1.26779e-06
-0.344694
-9.87509e-06
-3.13326e-06
0.00366253
-4.9992e-06
-0.479501
-0.000101591
-1.01103e-06
-1.01708e-05
-0.000537136
-0.0226406
-4.2421e-05
-6.93388e-06
-6.89106e-08
0.0142285
0.318651
-9.16261e-08
-5.98292e-07
-0.215106
-0.00019106
0.00212316
0.12727
1.41855e-06
-0.000660345
-1.09031e-05
-1.04518e-06
-0.0545124
0.00856687
-0.142076
0.00906053
-7.46548e-06
-0.0243322
-1.59186e-05
-7.98219e-06
1.02451
-8.79566e-06
-0.0457473
0.00438022
-2.8372e-06
-5.96492e-06
0.0559418
1.53174
-0.148155
6.07716e-06
5.16743e-06
0.605804
-3.74489e-06
-0.797323
-0.000295694
-0.00190619
0.467166
-7.82922e-06
0.168193
-1.165e-05
0.0010225
-4.94711e-06
0.00205763
-0.0704572
-6.3018e-08
0.623348
-1.21291e-05
4.55421e-07
1.84235e-05
0.00169317
2.96241
0.631762
0.386821
-1.61302e-05
-5.60014e-06
-0.0657777
-0.0125775
-2.73118e-06
8.92884e-06
-1.01451
-0.00545031
-0.0113799
-0.117896
-1.57603e-06
-3.03988e-05
-0.0490203
-1.07608e-05
1.14432e-05
0.000672543
7.53246e-05
-6.28456e-05
2.53929
-2.27579e-07
-0.00226289
-0.0332582
-1.3075
-7.11604e-06
-1.07811e-05
-1.69423e-07
-1.18309e-06
0.000428859
-1.17023e-06
0.000139633
2.79234e-07
1.07169e-05
-1.63489e-06
-8.80437e-07
-1.74969e-06
-4.53782e-06
-1.76459e-06
-1.56534e-06
1.34444e-05
-0.00122952
-0.406332
1.91627e-06
0.288861
0.000694878
-0.439371
-8.30399e-05
-0.000230606
-1.25176e-05
0.232155
-4.61166e-07
-6.86541e-06
-2.72127e-06
-5.38493e-06
0.584337
-2.18395e-05
-1.07845e-05
0.000219351
-1.6075e-05
-1.13388e-05
-3.9405e-06
-0.0630579
-1.42827e-05
-3.80792e-06
-0.0162563
-4.06208e-06
-0.0416546
-0.159662
0.02648
-1.71507e-05
-1.95544e-05
-0.00616746
-1.21741e-06
-2.91653e-06
0.00789101
-1.01951e-06
-5.05207e-06
-0.18951
-6.95954e-06
-0.0707401
-0.000198952
0.000108178
-0.146638
-1.06884e-05
-3.51184e-06
-0.192576
0.00324708
-1.02135
-3.22904
5.17119e-07
-4.90907e-06
-1.4743e-05
-0.800549
0.00318611
-6.28065e-06
-9.62011e-07
-5.79426e-06
-0.00221799
-0.0419451
6.73795e-06
-1.44718e-05
-2.07308e-07
-7.55996e-05
0.00898382
0.352633
-0.10047
0.334358
-0.000156655
-0.000378819
0.305095
-5.62876e-06
-6.44725e-06
7.25992e-08
1.79375e-06
-0.00468163
1.17043e-06
-1.10923e-05
-0.0649635
-0.000382071
-4.65174e-05
0.417022
-0.00104004
-0.143329
-5.85082e-06
-1.39956e-06
-9.2015e-06
-3.77382e-06
-6.02636e-07
6.72028e-07
1.21897e-06
0.169548
6.13109e-06
-6.33556e-06
-6.87816
-0.00454537
-5.72467e-06
-2.67363e-05
0.00051368
-0.627451
1.16124e-05
-1.65756e-06
2.38367
-2.87978e-06
1.1224
-0.000324173
-6.58669e-07
-0.00207003
-0.00449463
-6.41277e-06
-0.267753
0.0892051
0.0959074
-7.36039e-07
-1.88105e-06
2.80985e-06
0.00575494
-8.30328e-06
1.27832
-1.40618
0.0862815
-0.136876
-5.3568e-06
-0.000258395
0.00827008
0.07829
0.550953
-1.36068e-05
5.99925e-05
9.51784e-05
0.242496
-0.0871839
0.0711567
-1.26321e-05
-1.53436e-06
-1.23284e-06
-0.00012046
1.2121e-06
-0.293423
2.47112e-05
0.533698
-4.57314e-06
-4.80284e-06
-9.2734e-06
-1.30086e-05
0.000441074
0.275097
-3.10118e-06
0.00456861
-0.0778331
-0.000331676
-1.31135e-05
1.2958e-06
-0.000450243
-6.61072e-07
-6.87796e-05
6.20768e-05
-0.000292118
-0.00380517
1.37003e-05
-6.41735e-06
1.09741e-07
8.17765e-08
-0.000423132
-6.24114e-05
0.00174838
-7.35546e-06
-1.39363e-05
-3.00745
-7.49089e-06
-0.00177318
-8.10206e-06
-0.00300657
-6.7539e-06
0.569971
-9.27891e-06
1.67354
1.39937e-05
-3.77734e-06
0.0914776
-2.46279
-0.0226736
-0.000352945
-2.18325e-05
-1.25134e-07
-1.64874e-06
0.0058208
-2.58329e-05
0.000152354
-0.00542457
0.205034
0.00041908
-8.80301e-06
-0.186673
0.688831
-3.14835e-05
-1.51994e-06
-0.00103068
0.46614
-0.000109464
-1.53808e-06
-0.00878271
-0.00357694
-0.000555356
-4.41169e-06
0.25222
-8.9562e-05
0.00306496
-0.0253833
0.53157
-4.78453
-0.00148927
-0.0122154
-8.45172e-05
-6.00028e-06
-3.27415e-05
-1.05058e-05
-0.203899
-0.55409
-0.1011
0.02528
0.00639134
-0.507354
0.00225129
1.96909e-05
-0.061955
0.0046383
-5.60207e-06
-0.0464544
3.06243
-0.454833
0.000457123
-5.61085e-06
-8.76646e-05
-0.000121274
-0.000436453
0.00109581
-9.16247e-06
1.05825
9.20756e-06
1.39966e-05
0.249171
-9.27872e-06
0.00191921
0.562637
-2.53255e-06
-1.74367e-06
-0.127896
-9.78549e-06
0.00491874
-7.62786e-06
-0.42327
-0.00036021
-2.92495e-05
0.000599959
-3.41465e-06
0.00452618
-6.19466e-05
-0.528839
0.0025532
-5.29996e-06
0.502703
-0.000117346
0.0546742
-0.25441
4.68699
-0.0253863
-9.10189e-06
-4.85283e-06
-0.06146
2.26739e-06
-6.11696e-05
-2.24814e-06
-8.64563e-05
0.442501
-0.105081
0.000163503
2.62124
-0.00794711
1.99244e-05
-5.88671e-06
-2.26757e-06
0.000283304
-0.00198041
-2.01796e-06
-0.201985
0.000356896
-0.000185657
-9.83449e-06
-0.224147
-0.0699107
-1.14288e-05
-6.27597e-06
0.00305147
-1.26858e-06
-6.19973e-06
-0.336678
-0.105115
-1.21993e-05
-2.02582e-06
0.00480049
0.000223307
-0.000341783
-0.0143102
-4.69801e-06
0.075071
0.00084717
-1.37848e-05
-0.378446
0.100525
-3.60187e-06
-0.103133
-5.88014e-06
-2.25713e-06
-9.48161e-06
0.000304065
-0.0304243
-1.14644e-05
-0.0270206
0.000507014
0.112073
-0.274386
-8.15432e-05
0.0266295
-1.2655e-05
-0.0446577
-3.044e-05
-0.169845
0.00189314
-8.58948e-06
0.0284205
3.021e-06
1.55684e-05
-0.0344297
0.00145854
-0.026107
-7.26142e-06
0.592972
-2.2514e-06
-0.464841
-7.09735e-06
0.000323146
-0.000387652
-7.26831e-06
-1.02394e-05
0.000862571
0.940805
1.82456
-4.76009e-06
0.015376
-7.32247e-05
-7.52632e-06
-1.45102e-06
-5.13833e-05
0.00451534
-0.0196983
-3.13982e-05
-1.44778e-05
-1.95116e-05
0.3889
0.000207795
-8.44995e-06
-6.93464e-06
-1.89227e-05
-6.51429e-05
3.46491
-8.9611e-06
-0.0194648
-0.000321082
0.776671
0.101024
2.6508
-6.60246e-06
-6.11049e-05
-1.07753e-05
9.51237e-06
-0.000116807
4.58027
-7.2753e-06
-3.77291e-07
-9.90197e-06
-0.0365337
-1.39661e-06
-5.48254e-06
3.16094e-05
-0.000107718
0.209559
-0.118131
-3.07904e-06
-8.27257e-07
0.259768
-1.54571e-05
-0.21512
0.0833822
-0.0922043
0.00904836
-0.0101753
-1.00353
-0.000408886
-3.92348e-07
-6.68964e-06
-1.16525e-05
-1.22969e-05
-2.703e-06
-1.09971e-05
-0.157506
-1.14228
7.92136e-07
0.000244569
-8.94851e-06
2.04431e-05
-0.000154984
-2.68914e-06
1.44318e-05
-2.8734e-06
0.180984
-0.0229432
-0.00059715
-0.0524262
0.000417877
3.63022
-0.00227525
0.0574636
-0.275931
0.000841675
0.0130569
0.0024629
-0.218043
-2.92968e-06
1.57613e-07
-3.94691e-06
-0.000125308
0.13363
-6.82796e-06
2.73395e-07
0.000737227
-8.03816e-06
-0.000483725
-0.00117631
-1.81846e-06
-1.0333
-4.13728e-06
-5.91113e-07
0.00388021
-5.8264e-06
-0.00531629
0.504447
-8.87943e-06
-2.73317e-05
-7.29445e-06
-0.00133832
-7.20001e-06
-2.18763e-06
-0.132683
-2.25409e-07
-0.10783
-2.20506e-06
-0.109418
-0.000103627
0.00511071
-9.8139e-07
0.00124328
-0.000189464
-7.23338e-07
-7.68858e-06
-0.164031
-2.86921e-06
-0.307214
-0.267595
-8.43681e-07
-4.97192e-06
-2.81087e-06
-5.74796e-06
-0.347548
-1.44257e-06
-0.155247
-1.59972
-0.000306384
0.235427
-1.12431e-05
-8.61982e-06
-0.156955
-0.206108
2.17161e-05
-4.10306e-07
-9.59642e-06
-6.77497e-06
-4.13849e-05
-7.57121e-05
-0.0210948
6.75431e-06
1.62085
0.0175077
-0.830731
9.40043e-05
-1.25106e-06
0.319638
-0.784996
0.000188136
-4.25368e-07
-1.27592e-05
-0.359439
1.2757e-06
-0.354917
-0.00230863
-1.02012e-06
0.000149433
-1.14645e-05
-3.47051e-05
-4.24621e-05
-8.21497e-06
-7.44276e-06
-3.61549e-05
0.349295
-1.53346e-06
-0.000530044
0.115357
-1.17245e-05
-4.68537e-06
-1.71867e-05
4.36766
-6.82043e-05
-0.056752
-9.0587e-07
-5.05684e-06
4.93788e-06
-0.0805037
0.0860405
0.0122926
-1.11598e-05
-7.40858e-06
-1.00608e-05
0.000374149
-2.81368e-06
-1.05917
-4.9677e-05
-0.328541
-2.43441e-06
-7.09984e-06
-0.0100043
-7.88656e-06
0.481169
-4.28271e-06
0.0299525
-9.43437e-07
-7.10637e-06
-2.96598e-05
-0.0358128
-0.0938296
-2.39571e-06
-1.18739e-05
-1.23635e-05
-5.37259e-06
-1.96714e-06
2.95815e-07
0.000866288
2.77009e-06
0.241176
2.08029e-05
-0.155001
-3.22172e-06
-3.81182e-06
0.369929
-0.205481
-0.0798159
1.1177e-05
-0.164194
-3.45401e-06
-1.30472
-9.85605e-06
-0.00542638
-4.03695e-06
0.193175
-8.72465e-06
-3.82762e-05
3.34176e-07
-1.03664e-05
-6.60626e-07
0.60802
2.41534
-0.0599061
8.87068e-05
-0.000137261
-7.06607e-06
-3.80178e-06
-7.29874e-06
-9.28685e-06
1.1707e-05
-0.00508649
-5.91796e-06
1.17407
-0.00151326
-5.61239e-07
-6.62761e-06
-3.80323
0.00578144
2.09978e-06
-1.58125e-05
-0.00130034
-0.114316
0.000942829
-0.000475547
-0.000262229
0.00272763
0.0141543
-7.35766e-09
-9.43709e-06
0.000897715
-0.000447626
-3.08999e-06
0.710433
0.000555394
-0.0483686
3.21618e-06
-0.538148
0.000420886
-0.000351886
5.7266e-05
2.47961e-07
-1.05624
-3.64124e-06
1.46741
-7.1102e-07
4.43702e-07
-0.164198
-7.56054e-05
-0.000216247
-0.0477382
-7.12323e-06
0.0458884
-0.158735
-2.46229e-06
0.00383636
-0.0836417
9.87089e-06
-9.66518e-06
-3.82509e-06
-5.86648e-05
-3.5124e-05
0.00236266
0.164361
-4.28356e-05
-5.87726e-05
-0.291893
-1.0877e-05
-0.106069
-0.000101973
-6.04788e-06
2.52696
0.0760926
-1.00411e-05
-4.70366e-06
-3.1814e-05
-3.32175e-06
-6.03903e-06
-0.168458
-3.66284e-07
-0.000243299
-5.922e-06
0.00509272
-6.66781e-06
0.0839057
0.0975071
-2.79398e-05
0.269068
-4.72119e-06
-2.24432e-05
-8.32623e-06
0.255887
-9.3505e-05
-7.73511e-06
1.62624e-07
5.38347e-06
-1.01132e-05
0.00462461
-0.00283969
-0.16915
0.294806
-2.20188e-06
-1.078e-05
0.00146992
-1.33565e-05
-2.65788e-06
-0.139713
0.205455
1.80256e-05
-3.11047e-06
0.323384
-1.74774e-06
-1.76455e-06
-0.000536279
0.00300823
-0.549664
-4.93119e-07
-1.49731e-06
-0.0658043
-5.42348e-06
7.45159e-05
-1.6946e-06
-0.000256472
-6.97757e-08
-0.000200046
0.00168401
-0.000156533
-3.61578e-06
0.381324
-5.81094e-06
-7.40515e-06
-1.36444e-05
-3.16643e-07
-7.54574e-06
-8.92611e-07
-0.177405
9.5336e-06
-0.128402
-1.33958e-06
-0.000117356
-0.26684
-8.73408e-06
0.0163369
-3.81236e-07
-8.52534e-06
-3.2122e-06
0.00255352
4.75616e-09
-5.65387e-08
-3.22488e-06
-3.62687e-06
0.000986275
-6.34297e-06
-1.23611e-05
-6.71045e-05
-3.20999e-06
0.000295653
-0.388997
0.0228137
-1.34776
-0.123335
0.00368444
-0.000413961
-0.23848
0.119942
-9.87075e-06
-1.30277e-05
-5.68622e-06
-0.0231841
0.11948
8.94042e-06
-4.39693e-06
-5.09357e-06
-1.03547e-05
-2.97109e-06
-3.09176e-05
0.253372
0.449987
-0.170201
0.00111944
-2.87632e-06
-1.94108e-06
-2.52042e-06
-0.0268507
-0.555133
-1.93347e-06
0.00238733
-5.87737e-06
-6.86996e-05
-3.65434e-05
2.12541e-05
-7.49904e-05
0.501366
-8.82013e-08
-0.0371419
-1.07407e-05
-7.62718e-06
-0.00177379
-2.73132e-06
-6.35243e-06
0.000997435
0.0151365
-3.10233e-06
0.00321365
-2.69452e-06
-3.80332e-07
-7.18342e-06
-1.97702e-06
0.0359254
-1.26484e-05
1.36097e-05
-7.10733e-06
0.240649
-0.075617
-5.17188e-07
-8.6793e-05
-6.20771e-05
-0.013163
-0.0716168
-0.121153
0.020241
-0.000386972
0.00440791
0.0133701
-0.00241843
-0.0856481
-6.23046e-06
-3.77351e-06
-7.48314e-06
-0.231661
-1.51349e-05
-0.0317349
-1.76901e-06
-8.00629e-06
-0.186727
0.000286893
-1.17075e-05
-0.0154303
-3.5598e-06
-3.01596e-06
-0.00708181
-0.00819416
-1.52187e-06
-0.0392789
-0.0036885
-0.306757
0.631028
1.0905e-06
0.0237557
-3.29634e-06
-0.00197893
-6.52762e-06
-6.71318e-06
0.0395768
0.000340468
1.48871e-05
-1.18017e-05
-0.0736074
4.16073e-06
0.892873
0.146646
-6.33261e-07
-2.82672e-06
-5.37928e-05
-0.176916
-0.00511181
1.85582e-05
-0.000435578
-0.016313
-1.01192e-07
-9.20784e-06
-2.87542e-06
-2.69276e-06
6.9236e-07
-5.10706e-05
-0.194224
0.00154969
0.00572179
-0.115133
-7.73392e-06
-0.346367
-0.00384525
-2.4985e-05
-2.07492e-06
1.031e-06
-3.43956e-06
-7.50714e-06
-6.46115e-06
-1.07635
-0.00222458
0.566769
0.00156
0.00281071
-8.02462e-06
0.0034245
0.0294804
-7.33603e-07
-7.56437e-05
-9.34916e-06
0.343414
-0.0344926
-0.00241774
0.00544693
5.50734e-07
-0.17414
-3.47024e-06
1.90701e-05
4.49356e-05
0.00224934
-2.81624e-06
0.00244625
-0.0856041
-9.38243e-07
-0.52059
0.310806
-0.282275
-1.11841
-0.000101872
0.163222
-0.00064844
0.0163242
0.245972
2.26973e-07
0.000383002
-3.32035e-06
-1.42629e-06
0.168724
-3.39604e-05
-0.181251
-6.51592e-06
-9.98037e-06
0.236234
-1.2936e-05
0.275216
-3.20016e-06
0.747722
-2.70915e-05
2.04306e-07
0.000420343
-0.000114776
0.00185129
-6.08661e-06
-1.89423e-06
0.00914051
0.00060763
-1.46635e-07
-7.9866e-06
-0.029705
8.08233e-05
-0.0203963
-3.36181e-07
-1.52844e-06
-6.54522e-06
-5.56931e-06
-0.00014055
0.00026184
-6.82069e-06
-0.0539395
-8.71551e-06
-8.41144e-08
-0.000293631
0.322733
0.00513351
-0.000154026
-9.20541e-06
-1.78838e-05
0.000818542
0.0126279
-0.059128
-0.11413
-0.000176035
-0.000151532
-0.0005405
-3.20378e-06
-0.000298517
0.225581
-6.73206e-06
0.00530925
-0.622242
0.052408
-0.152812
-0.267088
0.00340747
-1.28081e-05
-0.0768263
9.14702e-05
-0.000160546
-0.00341228
-3.92982e-06
0.000552349
-1.19375e-05
-4.83832e-06
0.000614034
-0.156074
-0.000444718
-4.60303e-06
0.000507823
0.448703
0.00139386
-0.301625
-6.25537e-06
-0.261579
-2.6243e-06
-0.00151254
-0.00182764
-1.13872e-05
-0.135773
-1.83369e-06
-6.90208e-06
-1.01179e-05
9.10647e-07
-0.191164
0.0030331
-8.22922e-07
-0.0635551
-6.72869e-07
-0.150908
-2.91479e-06
4.7089
0.001225
-0.000961708
-5.63974e-06
-1.065e-05
-6.25225e-06
-9.61858e-06
-0.152772
-0.00468603
-4.5649e-06
0.00022336
0.551659
-0.342139
-0.000207001
0.0255187
0.000645728
-1.10777e-05
0.0391538
-7.91042e-06
0.00692082
-8.10143e-06
-4.80003e-06
-5.95201e-06
-0.00023178
0.783975
0.0186777
-0.001498
-0.0518494
-0.0103126
-0.0113495
0.159987
-5.27659e-06
-0.00108263
-0.252084
-6.61273e-06
0.000623645
0.306679
0.0014818
-9.2854e-06
0.155417
0.00164772
3.38417
3.00113
-5.52656e-05
-0.00539648
-6.86931e-05
-3.69962e-06
-6.27123e-06
-0.0843361
0.0060224
0.14868
-0.00139914
-5.20478e-06
0.301799
0.00115633
-9.09423e-06
-1.21744e-05
0.00105416
-3.63015e-05
-5.16983e-07
-3.59577e-07
-0.0133525
-4.46721e-06
-0.000256577
-0.132069
-7.37417e-06
-4.55604e-06
-0.299144
-9.00087e-06
-6.78117e-05
-0.000249719
-0.00336413
-0.00308425
-1.23629e-05
-0.000145328
-0.00013547
-0.00626379
-5.66595e-05
-2.22035e-05
0.00405625
-0.430236
3.61128e-05
0.19303
-0.0234712
5.87644e-06
0.0150044
0.374153
0.00248484
-8.85394e-06
-1.71259e-07
-0.0207786
-3.78479e-05
-0.0961694
-0.616375
-7.18157e-05
-0.187747
-1.97444e-05
-0.00199546
0.165869
-1.19965e-05
-3.68277e-06
-2.29339e-06
-6.9896e-06
-1.64891
-0.40936
-7.59585e-05
0.0024926
0.0373078
7.23022e-05
-3.49239e-06
-5.3867e-05
-0.000402212
-8.64194e-06
-5.83976e-06
-1.76676
-2.3112e-05
0.0236366
-7.27684e-06
-3.89651e-06
-8.73599e-07
-0.0024592
0.000241738
-0.000143186
5.71229e-06
-2.43159e-05
-0.247706
-0.309315
0.0155696
0.162659
-8.5172e-06
-1.41203e-05
-0.244423
0.000450914
-0.409573
0.00731027
-9.37688e-06
-8.05535e-05
-0.000170021
-1.10232e-05
-8.62856e-06
0.00123664
0.00268471
0.202485
0.000766553
-0.450815
7.29158e-06
1.61846e-05
-3.87208e-06
0.00516483
-0.261152
0.0136235
-0.0317021
-9.25473e-06
-0.0806439
-2.66206e-05
-4.07592e-06
1.1686e-05
-1.49469e-05
0.0103362
-2.06952e-06
0.00329761
-7.37484e-06
0.0161342
5.1276e-05
0.832031
-1.27468e-05
-4.62848e-06
-0.00011555
-5.79452e-06
0.00306125
0.0230821
-0.143106
-0.000157727
-5.04628e-06
-0.187
-9.60638e-05
-8.45115e-06
0.00103221
-2.06461e-06
-3.69236e-05
-7.34031e-06
-0.0569585
-2.2232e-05
0.000316072
0.000250197
-3.43965e-06
0.316101
-5.2934e-06
-8.43847e-05
1.28392e-06
-2.47008e-05
-9.68614e-06
1.46336e-06
-6.7194e-05
4.8052e-07
-5.5759e-06
-6.41735e-06
-5.81538e-06
-0.0119016
-0.0427902
-8.51066e-06
-0.00020786
-0.287133
-7.54773e-06
-2.71345e-06
0.000536731
0.00567528
1.07314e-06
0.000556212
2.07907
1.13453e-05
0.536039
-0.0161979
-7.3026e-06
1.17263e-05
-0.000832118
-9.19105e-06
-0.808079
0.0888996
0.22729
-2.40785e-05
-0.000131093
-6.51754e-06
-0.0187768
0.000461646
0.288743
-1.07665e-06
-0.00242082
-0.211867
0.00205112
-4.08249e-05
-1.33785
-0.223392
0.171248
-6.2571e-06
-3.50123e-06
0.136428
-0.00821703
-7.24652e-06
-1.32436e-08
0.38444
1.02342e-05
0.00363567
-0.0144275
-6.98489e-06
1.19242e-05
1.23552
0.00198374
-1.98866e-05
-9.55803e-06
-0.000638469
-3.18001e-07
0.0302869
-8.45752e-06
-4.02152e-06
-1.08237e-05
-4.04881e-05
-1.81466e-06
-0.00137805
-1.87514e-06
4.94006e-05
0.28797
-0.0526772
0.398411
-5.55409e-06
-0.00047946
0.00173561
-1.07889e-05
1.69763e-05
1.57598e-05
-7.45726e-06
1.70782e-05
0.281243
0.000537185
-9.19345e-06
-9.39564e-06
-2.59333e-06
-0.0534551
0.578981
-1.83305e-06
-9.60304e-06
-3.93798e-06
-0.000118675
-0.0488626
-6.77182e-06
-0.00106216
-2.50804e-06
-0.00122734
-0.000234074
-0.0632157
-0.215903
9.94448e-06
-0.037175
-0.184191
-0.000175787
-1.02379e-05
0.00040173
-6.99273e-05
0.00112203
-4.24258e-06
-2.29307e-06
0.00462725
-6.71578e-05
0.0116581
0.00318188
-7.484e-06
-7.14934e-06
0.0837691
-1.42944e-05
-2.15151e-06
0.0260068
0.00166643
-0.3887
2.59272
-1.71244e-06
-0.077004
-1.30373
-0.10431
0.00118415
1.81658e-05
-3.12828e-07
-4.22069
7.22466e-05
-2.46989e-06
-0.00023342
0.00210664
0.00638236
0.0187219
-2.22015e-06
6.06521e-07
-1.27181e-05
0.0312907
-0.0420144
-3.32411e-06
-0.000522866
1.60747e-05
-2.48622e-06
-3.03015e-06
-0.32442
0.000348972
-8.11809e-06
-3.0559e-05
0.100381
-9.57458e-07
-3.90193e-06
-6.76705e-05
0.00244611
-1.04865e-05
-2.97979e-06
-2.74984e-05
-6.32698
-7.30546e-05
-1.69711e-06
-7.20765e-06
-4.17728e-06
0.0506646
-1.10098e-07
-1.80658e-06
-0.148516
-0.336401
-7.10579e-06
-1.11376e-06
0.000665624
-0.000286276
-0.00638543
-4.28095e-06
0.0602505
-7.9146e-06
8.94739e-06
-6.85357e-05
-0.429842
-0.0277639
-0.0339878
0.00018843
-0.0921553
0.257785
1.88524
0.00678215
1.9744e-06
-1.01959e-05
-3.81494e-06
-0.000641716
-8.8773e-06
-5.66145e-06
-1.05307e-05
0.0105063
-8.4958e-06
0.407167
-3.90159e-05
0.449071
-3.82382e-06
0.280998
-1.20751e-05
-4.56272e-05
-5.93451e-06
1.68378e-05
-7.03909e-06
-0.016029
8.82581e-06
-6.66147e-06
-1.48432e-05
0.474397
-4.15267e-06
7.61234e-05
2.51662e-07
-0.000232003
-0.628094
0.069152
0.0197669
-2.96932e-05
0.0237345
-2.15249e-06
0.245571
-0.284319
-7.37099e-06
0.079254
-0.225232
-1.08798e-05
-6.17083e-06
-0.000406219
-8.16452e-05
-0.000431856
-7.85073e-06
-0.0187598
0.000360544
-0.000597535
-1.0438e-05
-6.61304e-06
-0.000175028
0.0533639
-0.289553
-0.0514361
4.93902e-05
-0.141675
-0.000459698
-0.367551
-3.93259e-06
-0.00100686
-4.76046e-06
-3.51082e-06
11.4782
-3.37285e-06
-0.0608172
-9.67007e-06
1.21807e-05
0.0663741
1.4444
-6.37624e-06
-0.44013
-3.96238e-06
0.0467203
-7.29464e-06
0.252805
-0.0981143
-2.37977e-06
-0.00833023
-5.23958e-05
0.229038
-1.60506e-07
-1.74461e-06
3.74333e-06
-0.000650031
-3.74489e-06
-0.0146876
-7.45349e-06
-0.13198
0.00275897
0.368142
-1.06775e-05
-5.84528e-06
0.726271
-3.46048e-05
-0.00020736
-1.01156e-05
-0.0306146
4.02266e-06
-1.10555e-05
-0.243095
-1.44137e-05
-2.09607e-06
-7.23043e-06
-1.03328e-05
0.100217
-0.000730664
-6.4746e-06
0.272729
0.284321
0.671502
-4.03437e-06
-0.00178193
0.0221731
-2.2596e-06
-6.30969e-05
-9.48117e-06
-3.09456e-08
-4.5155e-06
-6.32799e-06
-4.30888e-05
-0.000175795
-0.121787
-0.0208446
0.00364829
-4.19253e-07
-1.29403e-06
0.143473
-0.000532847
-3.06574e-06
-1.09571e-05
-0.499953
-0.215013
-1.1659e-05
0.485691
0.000394864
0.285437
-1.70296e-07
-0.0671212
-9.11252e-06
-3.18616e-05
-3.57619e-06
-7.83201e-06
-4.63814e-06
0.247073
-6.83442e-06
0.133725
-0.00701886
0.303805
1.03114
-3.57577e-06
-5.88221e-06
0.316714
-0.000333797
-0.0113711
7.67085e-07
0.00425424
8.27542e-06
-0.260943
0.224426
-0.125637
-1.06233e-05
-0.247901
0.436032
0.629293
0.451458
0.000128552
-0.00291447
-8.13112e-06
-0.195115
0.245022
-0.000224975
0.151631
-8.49051e-06
3.81161e-07
-0.000312576
0.470716
-0.000503292
-0.158218
-5.32256e-06
-0.133258
-3.52299e-07
0.0007166
-1.03251e-05
0.000172596
-0.014861
2.19997e-07
8.73422e-05
8.99702e-05
-0.00945017
-5.14941e-06
-4.29192e-06
0.27187
0.113457
1.87143e-05
-0.0264391
-0.00139496
7.64834e-08
0.196991
-0.106295
-1.24927e-06
-0.0184709
-5.83021e-06
-1.14861e-05
0.000624164
0.200959
6.05437e-06
-0.248847
1.387e-05
-9.29502e-06
-0.00903386
-7.97741e-06
0.00208961
-6.64865e-06
0.00825057
1.00652e-06
-0.0126167
-2.21694e-06
-0.000800102
-3.46507e-06
2.18128e-05
0.211523
-0.252043
-9.4956e-05
-0.0836253
-0.00019904
0.643947
-0.223762
0.0246925
-5.43186e-06
0.0469786
-0.0142674
-0.2159
-0.130053
-1.28478e-05
-6.48414e-06
-3.97342e-06
-0.750815
-8.2426e-06
-4.90819e-06
-0.0345719
-1.46097e-06
0.271069
1.26599e-05
-0.159222
-1.25522e-05
-1.44455e-06
0.00682313
-1.25265e-05
0.000821116
-9.13228e-06
-0.000707514
-0.00115167
-0.131079
-7.15674e-06
-1.02352e-05
-0.285828
0.434486
-8.76532e-07
-9.35603e-05
-2.18779e-07
1.26507e-05
-0.0615384
0.13808
-0.321604
-0.000778588
-0.0817736
-0.964781
-0.00740659
-7.86508e-06
-7.64793e-06
1.06056e-05
-3.24053e-06
-0.00128084
-0.144538
0.0600323
-3.57175e-06
-5.37031e-06
-2.29837e-05
-0.836191
-0.212585
-0.415569
-0.270586
-1.65498e-05
-0.123305
-0.116872
8.76481e-07
0.260023
0.00072943
-3.28465e-06
0.151572
-0.315161
3.03953
-6.37983e-07
1.17007e-05
0.00014124
-0.806172
-6.10491e-06
-1.45151e-05
-1.56675e-06
-9.7054e-06
8.0374e-07
-0.044997
1.63616e-05
-7.51197e-06
-0.208526
-3.33868e-06
0.184522
9.72693e-05
0.147336
-0.140206
-5.25914e-06
-0.416843
-0.141382
-0.167224
-7.28865e-08
-0.000149899
-2.07287e-06
-4.58902e-06
-0.170695
0.00538251
-0.00120648
-1.33853e-05
-4.17025e-06
-0.0630262
-1.7497e-05
-1.17461e-07
-1.7655e-05
-2.41573e-06
0.221338
-4.5166e-06
0.000812011
0.158546
-4.48247e-06
-4.73201e-06
0.329213
-5.6988e-06
-3.65733e-06
-0.318217
1.18225e-05
-1.34265e-06
-0.00151192
0.0106949
-0.331175
-0.000479484
-9.47919e-07
7.9519e-06
0.083146
-0.0943599
-1.41495e-06
-0.000481399
-9.47983e-06
-2.38225e-06
-7.1275e-06
-1.97772e-06
-0.0195429
-0.000251336
-1.5565e-05
-8.62104e-07
-1.45837e-06
-1.10985e-05
-2.48669e-06
-4.75348e-06
-0.0311519
-0.360106
-0.147875
-0.0116508
-2.0962
-0.314745
-4.40049e-06
-0.120119
-0.666822
-1.85786
1.01344e-08
-4.29073e-06
-0.0195985
8.06931
-0.0127956
-0.00867399
-0.188419
-3.59935e-06
-5.46814e-06
0.281105
-7.35575e-06
0.0054323
-0.000639462
-1.69748e-05
-0.297068
0.101689
-9.67644e-07
0.258617
-0.0580003
-0.00439129
-0.15794
-1.52488e-05
-0.625154
-0.0264329
0.184213
-7.01879e-06
0.00091899
-0.313933
-8.4853e-06
-2.57836e-06
-3.9675e-06
0.000108022
-1.13115e-05
-0.123791
-0.250313
-9.64456e-06
-3.77916e-05
-1.01598e-05
-0.0831856
2.66345e-05
-1.45063e-05
-1.32772e-05
-0.0073205
-7.7613e-06
-3.77332e-05
-0.00186085
0.447072
9.21525e-06
-0.0238952
-0.00258555
-1.53886e-06
0.00684547
1.63641e-06
-7.02487e-08
-0.000209671
3.63189e-08
-0.00052896
0.119921
0.0313731
1.07603e-06
0.404683
-0.311092
-0.020799
-0.185503
1.50839e-05
-4.89296e-05
0.0897765
-0.000194422
-5.5526e-06
-0.000281471
0.00635816
-3.07774e-06
-1.01417e-05
-3.54828e-06
-0.00395256
0.0907716
-0.320532
0.592558
-8.14796e-06
9.55383e-05
-0.0010395
0.00394207
0.0607042
-4.11901e-06
0.370237
9.89841e-06
-0.231553
-5.56502e-06
0.257007
-3.58925e-06
0.412747
-0.0799904
0.00238646
0.0873283
-0.00103792
-6.58823e-06
-0.0010481
-0.0451561
0.124314
-6.87368e-05
-6.90085e-07
-5.92124e-06
-1.44307e-05
-6.35994e-05
4.21131e-07
1.56718e-05
-7.35205e-06
0.00115488
1.16082e-06
0.197345
-1.97084e-06
0.253975
-3.85452e-06
0.00208341
0.301659
-1.71544e-06
-0.66461
-1.63021e-06
-4.53155e-05
4.00279e-06
2.41119e-08
-1.1735e-05
-0.0807512
-0.015746
-4.90622e-06
-1.6163e-05
-1.85476e-07
0.370337
-7.18633e-05
-0.0175115
0.00849194
3.34844e-07
0.000555107
-2.36194e-05
4.5435e-06
6.55455e-05
-7.43634e-07
0.000526575
0.208219
-1.58007e-06
0.286956
-0.000102246
-9.84636e-06
-5.28906e-06
0.19495
8.83891e-07
-0.277603
0.00618823
-1.06183e-08
-0.292586
0.00155615
0.915465
-0.000155197
1.53723e-05
-3.01145e-06
-9.03983e-05
0.168345
-2.48551e-06
-0.000147667
-5.85131e-06
0.00313681
0.0102441
0.0534778
-0.119109
-0.098561
6.80331e-06
-0.197149
4.1028e-06
0.243574
0.101334
-7.41439e-05
-0.0215038
0.00206309
-5.03033e-06
-0.000401889
1.13087e-06
-2.39144e-06
1.70653e-05
-7.16321e-06
2.1223
0.0420205
0.00743095
7.33513
-4.11114e-06
-2.71487
-1.44536e-06
-2.70973e-08
-9.33797e-06
0.0186123
-2.08693e-06
-0.0430356
-0.00328182
0.00523868
0.187612
-8.79332e-06
-2.83096e-05
-0.0744346
0.0014661
3.32664e-06
0.299177
-1.82488e-06
-3.60879e-06
-1.3133e-06
0.03823
0.385419
-3.32729e-05
-6.02412e-07
-0.0126444
0.296712
6.04223e-07
-1.2342e-06
-2.31717
-0.248494
3.83145e-06
-0.27846
-0.00317246
-7.62933e-06
-0.000470162
-5.82673e-06
0.100973
-3.80736e-06
-0.106608
-0.180493
-0.227399
1.16218e-06
-0.000263603
-1.85768e-06
-7.27126e-06
-0.282006
-7.03566e-06
0.68167
0.620283
-0.00129042
-6.77566e-06
-3.14418e-06
-0.341589
-0.00325349
0.00653338
-0.334063
-0.000999706
-3.64608
-3.10102e-05
-0.104906
0.0776976
-0.000183921
-0.0446691
-0.40978
2.34645
-1.51421e-05
-0.004138
-6.32729e-06
-0.559173
0.0211442
-0.297639
-1.05089e-05
-9.10941e-06
-2.88888e-06
-0.0290857
-0.107899
-2.35828e-05
1.20581e-05
-0.086645
0.118109
-8.32001e-06
0.17324
-0.164806
5.0254
-1.46606e-06
-0.375163
-2.26623e-06
-0.771683
-2.97976e-06
-2.37865e-05
-2.42784e-06
-9.43091e-06
0.829505
-0.178037
-3.5585e-06
0.0152133
-0.124038
-9.84139e-06
-3.46814e-06
-0.000846286
0.00417882
0.00374694
-0.000457013
0.0869467
0.29585
-0.0790638
-0.342109
0.00442547
-4.40939e-06
0.0025941
-0.00300301
-0.0106692
-0.772348
0.0289076
0.00504891
0.000583004
-5.27856e-06
-0.123453
0.000303655
-0.573488
2.68219e-07
1.19377e-05
-0.10692
-3.34562e-06
-0.000121276
0.145737
-9.43974e-06
0.0002382
-1.42808e-05
-1.46887e-05
0.321252
-0.137917
-2.48719e-06
9.8571e-06
-0.096121
0.0128403
-0.000584098
0.00269177
-0.0946385
-0.000203339
0.0524053
-0.0791134
-5.30795e-06
0.187873
0.005135
0.148679
-2.242e-07
-9.06408e-06
-0.387168
-0.0586633
-0.0990951
-0.196809
-0.370061
0.000768694
0.00289013
1.43852e-05
-0.0845669
-2.43011e-06
-3.77243e-06
0.000498653
0.000629163
-0.00276787
-0.0816442
-7.01313e-06
0.000516884
0.25016
-1.23101e-05
0.00387292
-5.76237e-06
-0.04136
-0.0041049
0.000163752
0.260452
-0.0487548
-0.0836354
-0.0113333
-4.40821e-05
-2.97552e-06
-1.95078e-05
-0.000147124
1.60303
0.0148408
-0.044072
0.368157
0.000356841
-6.72188e-06
0.00127378
4.12913e-05
-0.0215942
-3.12411e-06
-0.368261
-0.00033056
0.150439
-3.66771e-06
-1.46883
-0.00121906
0.00194967
-8.28693
-1.76925e-06
1.66382
-0.0781754
-7.40048e-06
-0.000884493
0.154412
-1.24696e-05
0.480548
-4.87827e-05
-2.49784e-05
-5.97584e-07
0.561554
-2.44378e-05
-0.058227