/*--------------------------------*- C++ -*----------------------------------*\
| =========                 |                                                 |
| \\      /  F ield         | OpenFOAM: The Open Source CFD Toolbox           |
|  \\    /   O peration     | Version:  v2012                                 |
|   \\  /    A nd           | Website:  www.openfoam.com                      |
|    \\/     M anipulation  |                                                 |
\*---------------------------------------------------------------------------*/
FoamFile
{
    version     2.0;
    format      ascii;
    class       volVectorField;
    location    "1000";
    object      ddtCorrDdt0(U);
}
// * * * * * * * * * * * * * * * * * * * * * * * * * * * * * * * * * * * * * //

dimensions      [0 1 -2 0 0 0 0];


internalField   nonuniform List<vector> 
18355
(
(-0.00107083 0.000372101 1.15147e-17)
(0.00552324 -0.0103289 4.69985e-18)
(-0.000209941 -0.000224568 1.43877e-18)
(-0.000153029 0.000105723 -1.23024e-20)
(-0.000438798 0.00088167 -7.30151e-19)
(-0.00432993 -0.0135552 -6.34308e-19)
(-0.000127462 -5.84869e-06 1.60742e-18)
(0.0017709 9.97543e-05 -8.15298e-18)
(4.78988e-05 -0.00105921 -6.93735e-18)
(-0.036963 -0.00615784 2.81472e-18)
(4.67428e-05 0.000151928 1.0543e-18)
(0.0345757 0.000676731 1.83276e-18)
(0.00523252 0.00282756 -4.73882e-19)
(-3.75271e-05 3.21076e-05 -9.70648e-19)
(-0.000554937 -0.000196332 2.65651e-20)
(-0.000455938 -0.000887115 -5.44175e-18)
(0.00526466 -0.00130384 2.39696e-17)
(-0.000232767 -8.36122e-05 -1.59918e-19)
(-0.000351439 -0.000659259 1.64651e-18)
(0.0822792 -0.0573695 8.14176e-18)
(-0.000416513 -0.000957489 8.30886e-18)
(-0.000220469 -0.000829447 9.86079e-18)
(-0.0316766 0.0115114 1.67199e-17)
(-0.000412811 0.000894621 -1.24222e-18)
(-0.00138467 0.00239921 -6.50929e-18)
(2.12356e-05 -0.000271474 2.96398e-19)
(1.29032e-05 -0.000704662 6.4177e-18)
(-9.46088e-06 -0.00103831 2.93249e-17)
(0.0133819 -0.0261129 -2.1349e-17)
(-0.000189834 -0.000299767 -1.12989e-18)
(-1.60692e-05 0.000698767 4.50691e-18)
(-0.00084888 0.0011998 4.80684e-20)
(-0.000223952 -8.36588e-05 -5.34028e-20)
(-0.000104327 -8.84279e-06 -4.86737e-20)
(-0.00230044 0.000527328 -9.77139e-18)
(-0.00107369 0.000412288 -6.92535e-18)
(3.6547e-05 -0.000901901 9.77429e-18)
(-0.00373914 -0.00370191 -1.14095e-17)
(-4.8018e-06 -0.00102692 -1.98173e-17)
(3.47217e-05 0.000179205 -3.01205e-19)
(-1.8411e-05 -2.48407e-05 1.042e-18)
(0.000397229 -0.00190234 9.32559e-18)
(-0.000213511 -0.000258301 -4.04072e-18)
(-0.0501971 -0.00348998 4.4393e-18)
(6.74023e-05 1.04477e-05 -7.02228e-19)
(-0.00404755 -0.00390679 3.73735e-18)
(-0.000688365 0.00133665 3.12879e-17)
(-2.31064e-05 -0.00110305 2.61596e-18)
(-0.000877007 0.00106485 -5.65799e-18)
(-0.000228438 -0.000146117 -2.96503e-19)
(-1.66174e-05 0.000207145 6.708e-19)
(-0.000362217 -0.000336232 5.39985e-19)
(3.61455e-06 0.000120918 1.63927e-18)
(0.00284955 -0.0256903 2.39957e-17)
(-3.69559e-05 -0.00043916 -1.51148e-18)
(-3.45441e-05 -1.18251e-05 2.83577e-19)
(-0.0375909 -0.0114798 5.95297e-19)
(-0.000562781 -0.000214317 -4.57663e-19)
(0.00033993 0.00160027 -4.66918e-17)
(-0.00601587 0.00255207 1.00148e-17)
(-0.000236434 -0.000167826 -2.49208e-19)
(0.000666431 -0.00643295 8.79827e-18)
(-0.000239322 -2.94029e-06 -2.88063e-20)
(-0.000855741 -0.00125335 -3.36769e-19)
(0.0343851 0.000888214 5.40625e-18)
(-0.00102034 0.000368357 -1.30476e-17)
(0.0219981 0.108239 1.31312e-17)
(2.25639e-07 -0.000908664 -2.41464e-18)
(9.20003e-06 -0.000696617 -9.95976e-18)
(-0.000211939 -0.000808137 -4.2606e-18)
(-0.00193436 0.00185343 -1.80517e-17)
(8.47962e-06 4.09639e-05 -6.68935e-19)
(-0.00650604 0.0023712 2.66594e-18)
(-0.000180578 -0.00019258 -1.2026e-18)
(0.00162262 0.000362291 -5.58745e-18)
(-0.000126877 5.21524e-06 -2.64026e-18)
(0.0327047 -0.0449275 -1.61575e-17)
(-0.000904371 0.00103479 3.83433e-18)
(-0.00309944 0.00230427 5.14327e-18)
(-0.000326531 -0.000307673 -1.56062e-19)
(-0.000129294 -3.40577e-05 -1.04025e-20)
(-0.0018328 -0.00759645 2.13221e-17)
(-0.000405059 -0.000945353 -3.84424e-18)
(-0.00146877 -0.00105325 1.218e-17)
(4.2771e-06 -0.000324535 -1.68272e-18)
(0.00473185 0.0027347 -1.23324e-17)
(0.0901225 -0.0224858 -1.28958e-17)
(0.0821363 -0.060405 -3.67928e-18)
(-0.000173423 -0.00876262 2.45935e-17)
(-0.0163539 -0.0158036 -1.51235e-18)
(0.024346 -0.0283787 -3.99395e-18)
(6.35632e-05 1.24326e-05 5.68811e-19)
(-1.20949e-05 -0.000413755 -3.8586e-18)
(6.60754e-05 8.27563e-05 6.03568e-20)
(-0.00399725 0.051374 -1.20206e-17)
(-0.0326232 0.0113443 9.28268e-18)
(-0.000380985 0.000248317 4.17429e-19)
(-0.00177891 0.000266475 -1.14998e-17)
(-0.00258895 -0.0237754 -1.10352e-17)
(-0.000658651 -0.000274198 4.09483e-17)
(-0.0159189 0.093364 1.37054e-18)
(0.000243291 -0.000688679 5.71621e-17)
(-0.00175256 -0.000144838 1.24145e-17)
(0.0246351 -0.0450853 6.7556e-18)
(-0.000282657 0.00118681 3.6023e-19)
(0.00798011 -0.00996219 -1.84935e-17)
(0.0355323 -0.000368052 1.879e-18)
(-0.00178643 -0.00368687 -1.23688e-17)
(-0.00080379 -0.000346803 -1.34118e-18)
(-0.00087374 0.000360063 -5.12584e-18)
(-0.000189839 -0.000237109 1.1074e-18)
(-5.26087e-05 -0.000998098 9.41266e-18)
(2.49551e-05 -0.000277692 1.02608e-18)
(-5.53747e-05 -0.00101458 -6.64809e-18)
(0.0193543 -0.0259179 6.54449e-18)
(-8.25314e-05 -2.43945e-05 -1.76438e-18)
(-0.000227013 0.00112766 3.23672e-18)
(0.0360484 -0.0453281 -7.96778e-18)
(0.000153934 0.00140133 6.03208e-17)
(-0.00171372 -0.000266873 -3.30993e-18)
(-0.0380139 -0.00712741 1.30317e-18)
(-0.0176779 0.00902648 -3.1424e-17)
(-0.000855554 0.00106164 1.9556e-18)
(-0.00210793 0.00175572 2.15046e-17)
(-0.000392041 0.000210266 -1.24524e-19)
(-0.00159282 -0.00388653 -3.29914e-18)
(-0.000365534 -0.000317105 -5.22924e-19)
(7.39711e-06 0.000135323 -3.45333e-18)
(0.00412468 -0.0054864 3.16665e-17)
(6.05386e-05 7.98691e-05 -1.73132e-19)
(-2.48314e-05 0.000219798 -2.93923e-19)
(-0.0158351 0.0134779 6.30324e-17)
(-5.59348e-05 -0.00299213 1.78032e-17)
(-0.00179732 0.000331803 1.08619e-17)
(-6.56964e-05 -0.00115483 -1.3063e-17)
(9.95182e-06 0.000144428 4.99551e-18)
(-0.000500268 -0.000226456 8.95176e-20)
(5.6595e-05 0.00015037 2.10377e-19)
(-0.000109448 2.49193e-05 7.78934e-19)
(-0.00367252 -0.000274875 -1.53473e-17)
(-0.0183083 0.0786718 -7.5419e-18)
(-0.0220169 0.020101 -1.52548e-17)
(-0.000420984 -0.000812544 -3.44352e-18)
(-0.000189082 -0.000207162 2.26405e-18)
(9.87106e-05 0.000439437 -5.81076e-17)
(-0.000177508 -0.000783563 -1.16422e-17)
(-6.15755e-06 -0.00112045 2.41384e-18)
(0.1128 -0.0419466 -2.06718e-17)
(-0.00107243 0.000453396 1.19047e-19)
(0.116354 -0.0557418 3.70853e-17)
(-0.000502794 0.000687383 -4.74907e-18)
(-0.00017702 -0.000830824 -1.05117e-17)
(-0.00217461 0.000513608 5.04892e-18)
(0.00023106 0.00147088 -1.85884e-17)
(-0.0162673 -0.0118719 -2.70901e-18)
(4.794e-06 5.35046e-05 4.2054e-18)
(-0.00538062 0.00894386 2.75795e-18)
(1.08604e-05 0.0011619 -3.6993e-17)
(5.4616e-06 5.37647e-05 -1.02839e-18)
(0.00198365 -0.00646928 -1.50208e-17)
(-0.000734282 -0.000628348 -2.17889e-18)
(-0.000808073 3.97988e-05 2.34913e-18)
(-0.000134279 -0.00100802 -2.6993e-17)
(-0.0019142 0.000341496 7.25439e-19)
(-0.0281402 -0.0390488 -5.5569e-18)
(0.00258989 0.0014071 -2.22529e-18)
(0.016941 -0.00577332 -6.44182e-17)
(-0.00119779 0.000841885 -1.27212e-17)
(0.0101835 0.011142 4.70599e-17)
(-0.000215705 -0.000188538 -2.31437e-19)
(0.00355084 -0.128876 5.08873e-18)
(-0.0332985 0.0117611 -1.8749e-17)
(3.72174e-05 0.000153214 4.83187e-20)
(4.28827e-05 0.000160949 -5.98898e-19)
(-0.000472817 -0.000857572 -1.54456e-18)
(0.0373151 -0.00683193 6.60003e-18)
(-0.0179987 0.000905558 -4.42837e-19)
(-1.77149e-05 -0.000401723 -8.2883e-19)
(-0.00737986 -0.0063807 -3.2896e-18)
(0.0209738 0.00693665 5.18031e-18)
(-0.000277589 -0.000279198 -8.11808e-17)
(0.0112268 0.0108077 1.21241e-17)
(-0.00153719 -0.000255083 4.48524e-19)
(-0.000110949 6.25875e-05 1.05673e-18)
(-0.0137393 -0.042233 -6.22763e-18)
(0.0448048 -0.00754668 2.60978e-17)
(-0.0271912 -0.00239443 1.93819e-17)
(0.0193994 -0.0197977 6.25451e-17)
(2.51672e-06 -0.001062 -9.48833e-18)
(0.0054773 -0.000937061 -2.75771e-17)
(-0.0375534 -0.00970611 1.41751e-18)
(-0.0002379 -0.000333043 1.87506e-20)
(-0.00193894 0.000420068 -4.45478e-18)
(0.0183333 -0.0519088 -6.69268e-19)
(0.000100796 -0.00118242 -1.92611e-17)
(-0.000209608 -0.000878569 7.03763e-18)
(-0.0250831 0.0231125 -2.1949e-17)
(-0.00162098 -0.000218266 9.75105e-19)
(-0.00170155 -0.00231362 5.25604e-19)
(3.92246e-05 0.000169829 7.882e-19)
(-0.000853678 0.000520334 -1.4247e-18)
(-0.000181342 -0.00108413 -6.01409e-18)
(0.0145364 -0.000666765 -6.64064e-17)
(-0.0314244 -0.0014107 -1.89637e-18)
(0.0281931 0.00091295 2.47047e-17)
(-0.00061589 -0.000809583 3.16016e-19)
(-9.55302e-05 0.00112597 2.43618e-17)
(0.024083 -0.00675484 1.20664e-17)
(0.0284578 0.000758675 3.16072e-17)
(-0.00193689 -0.00229087 1.39247e-17)
(-0.000459612 -0.000264472 -1.28591e-20)
(-0.000483407 0.000672958 1.35392e-18)
(0.0782721 -0.0657198 6.23322e-18)
(-0.00040793 -0.000801442 2.55299e-18)
(-0.000207305 -0.000186125 2.85283e-20)
(-0.00251439 -0.00747844 9.43965e-18)
(0.0937452 -0.0548306 -1.24498e-17)
(0.079163 -0.0625759 -1.73652e-18)
(1.53335e-05 -0.000217157 -2.43316e-18)
(-0.00106643 0.000478209 1.55966e-18)
(-0.00823824 -0.0056175 4.2242e-18)
(-0.000126991 -1.41084e-06 8.48808e-19)
(-0.00138056 -0.00100947 -6.29366e-18)
(-0.000473254 -0.000215561 -7.13616e-20)
(0.0126547 -0.00582466 3.11446e-17)
(-0.000260855 -0.000786325 1.35987e-18)
(0.0190458 -0.00745888 7.78169e-17)
(0.0614715 -0.00786868 -9.49753e-18)
(9.64766e-05 -4.53273e-05 1.79432e-17)
(-0.000460518 -0.000308739 8.58294e-20)
(9.92237e-06 0.000144682 5.9188e-19)
(-0.00283947 0.00233965 2.47644e-19)
(-0.000807381 -0.000372045 1.66288e-19)
(0.0176552 -0.00805952 -3.20839e-17)
(-0.000580983 -0.000554926 -2.95337e-19)
(5.68061e-06 -0.000313157 -2.43737e-18)
(-1.41258e-05 -0.00038634 1.64534e-19)
(-0.00220233 -0.00445908 -2.41121e-17)
(0.0200223 -0.046142 1.38152e-17)
(0.019161 0.000420849 -5.24919e-17)
(-0.000843967 -0.000308968 8.76929e-18)
(0.008016 0.0122934 4.36281e-18)
(3.16649e-05 0.000779604 6.00415e-19)
(-0.000205808 -0.000206629 1.46009e-19)
(-0.000242274 -0.000795315 -8.37631e-18)
(0.0604573 -0.00524585 1.21425e-17)
(-0.0159195 0.010816 -1.65904e-17)
(0.000482844 0.000388421 1.2405e-16)
(-0.0169562 -0.0108592 7.35245e-18)
(-0.000718588 -0.000612738 -9.25852e-19)
(-0.000846029 0.000503605 2.68483e-18)
(0.00127551 0.0032409 -1.31582e-17)
(-0.00171516 -0.000307664 4.72131e-18)
(0.0259492 0.000306224 6.79902e-17)
(-0.000252774 -0.000734021 5.82429e-18)
(0.0141243 -0.00461754 -6.9601e-17)
(0.0902615 -0.0664686 -7.25237e-19)
(0.00235371 -0.00594024 2.81879e-18)
(-0.000247928 -0.000444679 -5.18887e-18)
(-8.09887e-05 8.52877e-08 -1.42832e-20)
(-0.00101246 0.000316719 1.09897e-17)
(-0.00200921 0.00220255 -3.6446e-17)
(0.0205521 0.00129323 7.59449e-17)
(0.000228266 -0.00306849 -5.5462e-18)
(-0.00010036 -3.74691e-05 -9.19356e-20)
(-0.000191531 -0.000176451 3.1559e-19)
(4.69093e-06 0.000139786 -1.6197e-18)
(0.0102101 0.0126521 -2.80128e-17)
(-0.00162341 -0.00247404 -4.25753e-18)
(-2.96363e-05 -1.7186e-05 -4.61048e-17)
(-0.000334327 -0.000927015 4.59121e-18)
(0.12457 -0.0930821 -3.34263e-17)
(0.0212691 -0.0203917 -1.88606e-17)
(0.00738947 -0.0091478 1.12837e-17)
(-0.000625929 0.000297053 1.34985e-18)
(-0.0211573 0.0209604 1.70378e-17)
(-0.000342917 -0.00030114 1.8873e-19)
(-0.000104839 -0.000209974 5.87853e-19)
(0.00742302 -0.0121219 1.41348e-17)
(-7.79413e-05 -7.54538e-06 -5.15115e-19)
(-0.000129212 1.43391e-05 -1.34492e-18)
(0.00819632 -0.00753726 -1.45416e-17)
(-0.000166737 2.74572e-05 -7.5983e-19)
(-0.00686143 0.0448231 7.37526e-18)
(-0.00178432 -0.000258588 -9.98344e-18)
(-4.04545e-05 -0.00111881 8.06861e-18)
(-7.96222e-05 -8.86867e-06 -4.06671e-19)
(-0.0012799 0.000822774 1.13285e-17)
(0.0342026 -0.000662267 -4.94576e-19)
(-0.000898094 0.00114595 -6.11885e-19)
(-0.000149661 8.64597e-05 -2.24199e-20)
(6.65464e-06 -0.000110254 1.2928e-18)
(0.00654727 -0.0194897 -1.90285e-17)
(-0.0117612 -0.0166896 1.96128e-18)
(3.92636e-06 0.000145521 3.20336e-18)
(1.83019e-06 5.22587e-06 -5.07176e-19)
(0.101167 -0.0560216 -3.89459e-18)
(-0.00189656 1.06152e-06 1.12984e-17)
(-0.0192597 -0.010165 -6.32592e-18)
(0.00144142 -0.00015681 4.33597e-17)
(-0.000104199 -0.00025075 -4.81013e-19)
(-0.00186098 0.00219771 2.31148e-17)
(-0.00013781 -0.000911445 -1.27345e-17)
(3.15687e-06 8.53714e-06 1.01409e-18)
(0.00128639 -0.00014139 -1.56145e-17)
(-0.0272877 -0.0410227 1.09069e-17)
(-0.0650962 -0.0514574 -2.73834e-18)
(0.00736942 -0.0208001 -1.59809e-17)
(4.88591e-05 9.45582e-05 9.85736e-19)
(-0.000294006 -0.000259918 1.12919e-16)
(-0.000150532 0.00115397 1.23176e-18)
(-0.000345349 -0.000650902 5.99758e-19)
(-0.0171849 0.0121042 -1.24572e-17)
(-0.000187888 -0.000128629 -9.77517e-19)
(0.00908848 0.0132284 1.98063e-18)
(0.000436008 -0.0017971 -1.23648e-18)
(-1.86644e-05 -0.000447923 3.49946e-18)
(-6.14629e-05 0.000200207 3.21268e-20)
(0.00682769 0.0128072 1.43173e-18)
(0.054792 0.0278258 2.14502e-17)
(0.0225319 -0.00701874 -4.14339e-17)
(-0.000495066 -0.000472671 -4.02288e-19)
(-0.000133733 -0.000996039 1.62556e-17)
(-0.0525841 -0.00259101 3.3183e-18)
(-6.32425e-05 0.000356303 -1.4414e-18)
(0.0220419 -0.044676 1.1886e-17)
(-0.00257787 0.00303612 4.94651e-18)
(-0.000446567 -0.000988918 -8.39467e-18)
(0.0207713 -0.0417546 1.01649e-17)
(4.24554e-05 9.66135e-05 -6.33274e-19)
(0.00287494 0.00173786 9.62583e-18)
(-0.000312375 -0.00062339 -1.25021e-18)
(-2.24082e-05 -0.00116871 2.44956e-18)
(2.42576e-06 -1.34892e-05 8.37057e-19)
(-0.0181649 -0.00992492 6.77665e-18)
(0.0285767 -0.00323758 6.05892e-17)
(-3.76645e-06 0.000169468 -2.1856e-20)
(0.0150095 0.00420205 -1.81089e-17)
(-0.000437799 -0.000477175 -2.04624e-18)
(-2.41301e-05 -0.000621563 -1.23861e-18)
(-0.000893612 0.00135717 -2.63904e-17)
(0.000526479 -0.00704962 -1.11874e-17)
(0.010451 -0.0308102 1.11462e-17)
(0.0160445 -0.029404 1.14432e-18)
(0.025865 -0.0493787 2.57762e-17)
(-0.000253464 -0.000673424 -3.19599e-18)
(-0.000236388 1.86585e-06 -1.8317e-20)
(-0.0181056 0.0187018 8.24136e-18)
(-0.000198343 -0.000420607 -5.53632e-17)
(1.99055e-06 -0.000411817 1.76344e-18)
(-0.000532706 -0.000599659 4.82192e-18)
(-0.0625604 -0.0542639 -3.7161e-19)
(-0.0149028 -0.0428488 5.3399e-18)
(0.001595 0.00242138 1.46064e-17)
(-0.0194173 0.0199352 -1.92627e-17)
(-1.35764e-05 -0.00061911 3.29778e-18)
(-0.000927545 0.00042126 3.63438e-20)
(0.000153166 0.000760983 -1.92408e-18)
(-0.000200521 -0.000237719 -2.70473e-18)
(-0.000563473 -0.00056772 -9.68074e-19)
(0.0264191 -0.0132856 -5.05127e-18)
(-0.00233337 -0.00253088 1.51369e-18)
(-0.00140225 0.000669514 2.70402e-18)
(0.09718 0.00812175 1.31629e-18)
(2.66399e-06 8.98759e-05 1.85744e-18)
(0.000249935 -0.00083893 -1.30046e-17)
(-0.00876131 -0.00626772 2.52699e-17)
(0.0243108 0.000393709 9.25654e-17)
(-0.000146061 9.15009e-05 -1.18672e-20)
(-0.000142215 -0.00034107 -4.96242e-18)
(-0.00011556 -2.08812e-05 1.26952e-17)
(-0.000393085 8.4986e-05 -4.57628e-19)
(0.000574677 -0.00105728 1.23827e-17)
(-0.00039197 0.000125146 -8.13783e-19)
(-0.00139371 0.00052114 1.63046e-17)
(-0.000116202 -2.93787e-05 -1.22827e-18)
(-0.00075863 -0.000219974 -6.47781e-19)
(-1.72341e-05 -0.000609365 -6.42024e-19)
(4.68668e-05 -0.00105333 8.91809e-18)
(-0.000343847 0.00052357 -3.51256e-19)
(-0.000406331 -0.000615064 6.56947e-19)
(-0.000357343 0.0005099 8.44499e-19)
(-0.000354284 0.00052356 -5.66763e-19)
(-0.000515195 -0.000772659 -7.3909e-19)
(0.000304386 -3.21116e-05 -1.11369e-16)
(-0.0102827 -0.000754682 2.77904e-17)
(-0.000480605 -0.000158208 1.05765e-19)
(-0.000792062 -0.0391847 -1.10627e-17)
(-0.000341691 -0.00108154 7.10394e-18)
(-0.0103106 -0.00614688 -3.93046e-17)
(-0.00172076 -0.00116234 -5.79629e-18)
(0.000605923 0.00308839 -1.1681e-17)
(-0.000249905 -0.000817435 -3.06928e-18)
(-0.00430562 -0.0292191 1.4072e-17)
(3.66313e-05 -0.000867925 3.46813e-18)
(-8.2342e-05 -2.34209e-05 9.52147e-19)
(-1.36454e-06 -0.000362253 2.21016e-18)
(-0.000130755 0.000212795 -2.17928e-20)
(0.00778878 -0.026618 1.18052e-17)
(-0.000831643 0.00025227 2.14757e-18)
(6.88178e-05 1.02876e-05 -2.72924e-20)
(0.00026051 -0.00070454 1.24264e-18)
(-0.00136866 0.000478328 9.03679e-18)
(-0.000214373 -0.00028546 -4.99455e-19)
(-4.79785e-05 0.000348151 -1.58989e-18)
(0.0160732 -0.00879183 -1.56549e-17)
(-0.000219902 -0.000843458 5.14664e-18)
(-0.000347435 -0.000325376 9.61296e-20)
(-0.00060655 0.00242404 9.74447e-17)
(-0.000158605 5.12533e-05 1.80917e-18)
(0.00072317 0.00102807 -8.93512e-17)
(0.00302293 -0.000655872 4.2578e-17)
(0.0257698 -0.0149779 1.08391e-18)
(-7.71441e-06 -0.00109313 2.83826e-18)
(-0.000208625 0.00121504 -7.8244e-19)
(0.0338557 -0.000786572 1.99161e-17)
(1.07771e-05 4.24074e-05 -1.14737e-18)
(-0.000148772 5.71535e-05 1.29412e-18)
(0.000972031 0.00223421 3.88881e-17)
(4.90836e-06 8.10916e-05 3.93518e-19)
(3.65965e-05 0.000156037 3.59626e-19)
(0.00622687 -0.00110085 2.84286e-17)
(-0.000186899 -0.000196685 -1.2505e-18)
(0.0277296 -0.00376885 -4.76084e-17)
(-0.00812207 -0.00215705 -6.83877e-18)
(-0.0189334 -0.0024623 -1.42078e-17)
(0.00301474 -0.000942561 -5.82934e-17)
(-0.000123325 -0.000884189 -2.30373e-17)
(-0.000121954 3.60597e-05 -5.33625e-19)
(0.0443255 -0.0509019 1.56747e-18)
(-0.00527071 -0.0132479 3.36353e-18)
(0.0047669 -0.133152 -1.60914e-17)
(0.0250513 -0.0407569 1.19351e-17)
(-0.000104993 -7.86326e-05 -3.62433e-18)
(-0.000115285 5.72288e-05 4.95674e-21)
(-0.000147409 -0.000769539 2.27479e-18)
(0.0758815 -0.0538418 -3.44205e-18)
(-0.000292383 -0.00126766 1.52004e-17)
(-0.000371584 -0.000678311 -3.23734e-18)
(8.14984e-07 5.31674e-05 -1.95562e-19)
(-0.000379239 -0.000800514 1.84572e-18)
(0.000273848 -0.000875335 4.20487e-17)
(0.000129157 0.000839981 1.42779e-17)
(-0.000626206 -0.000808853 6.86736e-18)
(-0.000146144 -0.000722115 -5.3038e-18)
(1.10019e-05 0.00012326 -2.02602e-18)
(-0.00166388 -0.00101316 1.06145e-17)
(0.0241552 -0.0322386 -3.36838e-17)
(-0.00916622 -0.0182542 -3.39668e-18)
(0.0148205 -0.00479135 6.34661e-17)
(-0.0392627 0.00605099 -2.8622e-17)
(0.000174747 -0.000688017 7.30035e-17)
(0.000185362 -0.000962389 1.48335e-17)
(-0.0484206 -0.00367309 -2.61569e-17)
(-0.000330308 0.000617264 2.93231e-18)
(-0.000123521 -5.15861e-05 1.43313e-18)
(9.91314e-06 -0.000120724 -5.63192e-18)
(-0.000474972 -0.000146997 7.0297e-20)
(0.000454262 -0.00097788 -2.37659e-17)
(-8.57169e-05 -0.000412578 4.47122e-18)
(6.77188e-05 1.02559e-05 8.08022e-20)
(-0.000974522 -0.000192563 -1.35595e-18)
(0.00027174 -0.000832653 -2.40563e-17)
(-0.000789003 0.00122232 1.72634e-17)
(-0.00910917 -0.0182053 1.72028e-17)
(0.000235378 -0.000662493 -3.61937e-17)
(0.0438507 -0.00502938 -1.50251e-17)
(-0.000342046 -0.000482284 -2.2124e-19)
(-0.000344561 0.000520325 -5.84024e-19)
(-0.000170162 -0.000182002 -3.65251e-18)
(-0.000120512 -6.02946e-05 -9.76636e-19)
(1.28105e-06 3.85617e-05 9.39481e-19)
(1.05127e-05 0.00010644 2.29092e-18)
(-9.77753e-05 -0.000287884 3.56371e-18)
(-0.0237646 0.00149206 -1.65449e-17)
(-0.000511161 -0.000431485 7.02799e-19)
(8.94408e-06 0.000152553 4.52538e-20)
(-0.0181481 0.00953816 3.17278e-17)
(-0.00569221 0.00376947 -1.68571e-17)
(-0.000120498 -3.20715e-05 -4.4684e-19)
(-0.000840143 0.000843784 6.19961e-18)
(9.99099e-05 -0.00145847 -8.99085e-18)
(0.0130015 0.00155986 -3.88577e-17)
(-0.000472521 -0.000850746 -2.3907e-18)
(-0.000385557 0.00034164 7.41718e-19)
(0.0105048 -0.0342931 -3.82721e-17)
(-0.00013981 -0.00107374 1.54199e-20)
(0.116512 -0.0806768 9.37747e-18)
(-0.00265993 0.00329015 -7.74176e-18)
(-0.000405763 6.64686e-05 6.28898e-19)
(-0.00202314 0.00021851 4.54077e-17)
(-0.00561108 0.00415131 2.33284e-17)
(-0.000204504 -6.92845e-05 2.19048e-19)
(0.0231565 -0.00095786 -3.27e-17)
(-0.020648 0.048073 -7.73875e-18)
(0.0106254 -0.00731289 9.00771e-17)
(-0.000402914 2.40376e-05 -1.0526e-20)
(-0.000369107 0.000345103 2.17692e-18)
(-0.000781943 -0.000395113 -3.6599e-19)
(0.00385723 -0.0202296 7.02446e-18)
(-8.64855e-05 -0.000804474 6.57641e-19)
(0.114579 -0.0898277 2.73641e-17)
(0.0606644 -0.0557365 8.02176e-18)
(0.00109283 -0.0412932 -1.38844e-17)
(-0.0184391 -0.00198324 3.81994e-17)
(-0.000119105 0.000223497 -1.5036e-19)
(-0.00833294 -0.00163185 -1.52836e-18)
(0.0330971 -0.0140048 9.03741e-18)
(-0.0314873 0.0124085 3.40014e-17)
(0.0577995 -0.0352903 -1.43721e-18)
(-0.00014087 -0.000618666 1.98722e-18)
(-0.000520725 -0.000874166 3.13657e-18)
(-0.000686104 -0.000680276 1.52931e-18)
(-0.0501427 5.57032e-05 7.16341e-18)
(2.10241e-05 -0.000554913 -2.88945e-18)
(0.0272236 -0.0283138 6.972e-18)
(-0.000228302 -0.000752044 5.40462e-20)
(-0.00012641 2.25391e-05 -1.48402e-18)
(8.61169e-06 -0.00047854 3.67676e-19)
(-0.000284653 -0.00129909 -1.01516e-17)
(-9.70975e-05 -0.000332759 1.77784e-18)
(0.0429522 -0.0545159 -2.47792e-17)
(-0.000688052 -0.000695768 4.54949e-19)
(0.025419 -0.0282774 -5.79354e-18)
(-8.83751e-05 -0.000108797 7.43796e-18)
(-0.000364922 -0.000774442 -8.50653e-19)
(-8.11032e-05 2.07849e-06 -1.05947e-18)
(-1.94621e-06 -0.000929265 -4.0301e-18)
(-0.000929431 -0.000647448 1.57666e-18)
(0.0222247 -0.0336294 1.37445e-17)
(-0.000156125 6.47025e-05 -7.70588e-19)
(0.00442009 -0.013645 -5.53209e-18)
(0.00696296 0.000440762 2.1415e-17)
(-0.0040923 0.000820392 -8.71671e-18)
(-0.000246919 -0.000451173 8.69335e-18)
(-0.000127774 -0.0010646 7.85668e-18)
(-0.00466849 0.0020671 3.92622e-18)
(4.80831e-06 9.0049e-05 4.60164e-18)
(-0.000706395 0.000134851 -1.57148e-17)
(-0.00205642 -0.00257285 -9.88903e-18)
(-0.00383961 0.000747081 5.21719e-18)
(-0.00647663 0.000733656 -6.1597e-17)
(-0.000542964 -0.000595943 -5.87353e-18)
(-0.000200143 -5.72776e-05 4.51886e-20)
(1.0828e-05 -0.00016601 3.01769e-18)
(-1.46532e-07 0.000130371 -2.39692e-20)
(-0.00126749 0.00069314 -5.8315e-18)
(-0.00140858 0.000727123 7.10251e-18)
(0.00128077 -0.00623022 6.10301e-19)
(-0.000329594 -0.000473827 -5.49366e-19)
(-0.000377072 0.00093784 1.24424e-18)
(-0.150405 -0.17241 -2.63065e-17)
(3.35095e-05 0.000109101 5.58312e-19)
(3.02426e-05 -0.000885774 2.29578e-17)
(-6.16258e-05 -0.000884 -5.55816e-18)
(-0.00489453 -0.00258837 -1.34799e-17)
(-3.03897e-05 -0.00108963 6.87073e-18)
(0.00366638 -0.0255349 -2.26691e-18)
(-0.000712451 0.000458197 3.1573e-19)
(-0.0410475 0.000138204 -2.71145e-17)
(-0.000151155 -0.00104574 -1.54985e-18)
(-5.06161e-05 -0.00110499 -8.12944e-18)
(0.0932608 -0.0646718 -8.20456e-18)
(-0.138842 -0.172894 -1.15865e-18)
(0.000913573 0.000847243 2.72516e-19)
(-0.0041402 0.00116509 3.2918e-18)
(-0.000819605 0.000266703 -2.58514e-18)
(-0.000411324 5.10535e-06 8.63717e-20)
(-0.000118276 1.92735e-05 9.8213e-19)
(-0.0170178 -0.0208086 1.02843e-18)
(-0.0012285 0.00115805 -2.25137e-17)
(-0.000523029 -0.000963369 6.34315e-18)
(-0.0012414 -0.00245289 -3.36998e-18)
(-0.0236135 0.0149301 2.44409e-17)
(-0.0349895 -0.0384472 -1.19287e-17)
(-9.21009e-05 1.89517e-06 9.92712e-19)
(0.0205424 -0.00657881 -2.31627e-17)
(-0.0426308 0.0192612 -2.74183e-17)
(-0.000856191 0.000925979 9.88514e-19)
(-0.000139623 9.45055e-06 2.86941e-18)
(4.43816e-05 -0.000857261 3.15985e-17)
(-0.0224311 -0.0143643 -1.82786e-17)
(-0.00104916 0.000293684 -1.20507e-17)
(1.6996e-05 0.000119313 -4.11845e-18)
(7.37174e-05 -0.000460335 6.09344e-17)
(-0.00604536 0.000687515 3.07768e-17)
(-0.00244134 0.000418269 1.32003e-17)
(-2.02587e-05 -0.000950102 -4.58002e-17)
(0.00366045 0.00132721 -4.5686e-18)
(-0.00165132 0.000247084 -7.31063e-18)
(0.00791547 -0.00567636 -2.56395e-19)
(-0.0092798 -0.00475129 -1.43694e-17)
(0.0232932 -0.0405799 -1.59266e-17)
(-0.0153012 0.00821166 5.74294e-17)
(0.000355738 -0.000969776 1.35402e-17)
(-0.00206264 -0.00417734 5.96138e-18)
(-0.00141235 -0.000164012 -1.33424e-17)
(-3.37318e-05 -1.74868e-05 -1.10803e-18)
(-0.000868733 0.00095729 -1.27897e-18)
(-0.000188769 -0.000253595 1.89457e-18)
(4.67568e-05 0.0003713 4.46214e-17)
(-0.000717779 0.000331262 1.46517e-18)
(0.0362827 -0.00929029 -9.34774e-18)
(0.000286766 9.58084e-06 -1.43018e-17)
(0.034122 0.000752658 -2.91207e-17)
(-0.00177609 0.0332221 8.64295e-18)
(1.25434e-05 -0.000518118 -3.09863e-17)
(-0.000452719 -0.000884758 9.66515e-18)
(0.0192712 -0.00689431 1.14476e-17)
(0.00946543 -0.0056716 2.37378e-17)
(3.86079e-05 0.000172205 -1.03626e-20)
(0.000231458 3.83527e-05 -3.94144e-17)
(-0.0213008 0.10261 -4.08771e-17)
(-0.0575094 0.0294856 3.88436e-17)
(-0.00059483 -0.000817096 -2.63991e-18)
(-9.01351e-05 0.000191325 1.8412e-20)
(-0.00161435 0.000259554 2.96912e-18)
(-0.00208787 0.000539422 5.8996e-18)
(-0.0045744 0.00236306 -7.14136e-18)
(0.00506978 0.000798276 3.58371e-18)
(-0.000187973 -0.000163654 -2.45453e-18)
(-0.0383567 -0.000932366 5.94248e-18)
(-0.000494375 -0.000811254 3.75542e-18)
(-0.000391672 -0.000953545 1.39105e-17)
(-0.0483329 -0.000150125 -1.35248e-17)
(-0.000285337 -0.00043565 3.54808e-21)
(-0.00092285 -0.000693039 3.21293e-19)
(0.0657785 -0.0381593 1.43016e-17)
(-0.000138499 4.64771e-05 1.03144e-19)
(-0.000713569 0.000147517 1.55268e-18)
(0.00235286 0.0173089 -7.14752e-17)
(-0.000102039 -5.10094e-05 3.90054e-19)
(0.00365399 -0.0140642 -9.24834e-18)
(3.41271e-05 0.000109047 -5.92933e-19)
(-0.00381493 0.0362503 9.45383e-18)
(-0.0043295 0.00124938 -1.37169e-18)
(-0.00549758 -0.00289878 -2.28411e-18)
(-0.000478644 -0.00101594 -1.59517e-19)
(-0.000855512 4.7043e-05 2.10053e-18)
(0.00414528 -0.01905 -1.05737e-17)
(2.80666e-05 -0.00108589 1.26022e-18)
(0.109433 -0.0680796 5.44573e-20)
(-0.0139522 -0.0116615 -3.1707e-18)
(-0.000123048 0.000605553 -4.82534e-19)
(-0.04492 0.00273401 3.63845e-17)
(-0.00594672 -0.00301694 2.40186e-18)
(0.00327244 0.00165819 -1.62707e-18)
(0.0159321 -0.00213101 2.84011e-17)
(-0.0186043 0.00805316 -1.48813e-17)
(0.0228578 -0.0298354 2.78832e-17)
(-0.000193318 -0.000177007 -9.8628e-19)
(-0.000145563 0.000237305 -2.26235e-19)
(-0.0181152 0.0522008 2.19724e-17)
(-0.000122949 -0.00108798 5.89777e-18)
(-0.00068057 0.00010473 1.61818e-17)
(1.5136e-05 0.000127999 -2.24072e-18)
(-0.00140995 -0.000212767 1.23845e-17)
(-0.0379317 0.00633756 3.12515e-17)
(-0.0247925 -0.00747218 1.70232e-17)
(-0.00135744 0.000648886 5.53458e-18)
(-0.0619844 -0.000264371 4.46983e-17)
(0.000424769 -0.000955414 -1.25503e-18)
(-0.0006159 -0.000531809 2.72598e-19)
(-9.65845e-05 0.00019914 1.36048e-19)
(2.35708e-05 0.000119678 5.9541e-18)
(0.000428119 -0.000673261 -1.18988e-18)
(-0.00174038 -0.00236326 -1.39844e-18)
(-0.000222477 0.000455801 1.70521e-18)
(0.00110286 0.00199236 -1.03101e-17)
(-0.000688964 -0.00080067 -2.87723e-18)
(-0.00187991 -0.000112315 -1.00654e-17)
(4.08834e-05 1.15786e-05 -9.69308e-20)
(0.0259393 -0.000598398 1.64007e-17)
(0.0171026 -0.00821211 -2.23906e-17)
(-0.000190033 -0.000285596 -1.25142e-18)
(3.4953e-05 0.000177407 -7.84384e-20)
(-0.00699084 -0.0137005 1.29354e-17)
(1.11467e-05 0.000123508 4.26851e-18)
(-0.000210577 -4.91722e-05 -2.86822e-19)
(-0.00701514 0.0172528 2.44456e-17)
(0.000293303 9.80718e-05 1.75305e-17)
(-0.000127605 -0.000816861 -1.2852e-17)
(-0.000127355 2.16135e-05 -8.19833e-19)
(-0.0314162 -0.0264518 1.35115e-17)
(-0.00101309 0.00108333 2.89443e-18)
(-0.00325147 0.00253554 -5.88285e-18)
(-0.000149633 -0.000448745 -1.85415e-17)
(-0.000405382 -0.000604683 2.43241e-18)
(0.0314343 -0.016372 -8.6678e-18)
(-0.00120746 -0.00516345 -2.54553e-17)
(-0.000217894 -0.000722553 9.47588e-19)
(0.00031051 0.000427373 -2.76425e-17)
(-0.0326585 0.0117193 -6.15651e-18)
(-0.000133254 -6.56219e-06 -1.43093e-18)
(-0.0266717 -0.00860502 -1.01846e-17)
(-0.000146004 0.000128116 -1.38347e-19)
(-0.000157309 5.48816e-05 2.08464e-18)
(-6.19737e-05 -0.000801571 5.79427e-18)
(-5.21557e-06 -0.000790885 -1.40671e-17)
(0.0139691 -0.0082274 -5.3245e-17)
(-0.000522088 -0.000388907 -7.17064e-18)
(-0.007269 -0.00613283 2.3352e-17)
(-0.000862145 -0.000784591 -1.85985e-20)
(0.0723765 -0.0376103 1.30296e-17)
(-0.0164054 -0.00215133 -5.78196e-17)
(-0.00132053 -0.000140436 -4.75934e-18)
(0.0342887 0.000929755 -1.78436e-17)
(-0.000150229 -0.000388884 3.93865e-18)
(0.00686664 -0.00673008 6.19279e-17)
(-0.000888102 0.000873564 -7.04986e-18)
(0.095847 -0.0163275 -1.47507e-17)
(0.00782634 -0.0103785 -1.33875e-18)
(-0.000344381 -0.000757148 -2.2866e-18)
(0.000544662 0.00194574 6.52335e-17)
(-0.000754927 -0.000382374 -3.10638e-19)
(-0.000196762 -0.00106444 8.10506e-18)
(0.0048039 -0.00194957 -1.08436e-17)
(0.000210949 -0.000267029 -2.21862e-17)
(0.0331821 -0.00122631 8.30861e-18)
(-0.000143189 -0.000126838 3.94379e-19)
(0.00426765 -0.025683 -7.2919e-18)
(-9.76619e-05 -1.03179e-05 -4.8247e-18)
(0.0988138 -0.067337 -1.04882e-18)
(-0.000434868 0.000643256 1.91922e-18)
(-0.000604783 -0.000719326 1.23026e-18)
(-0.00440005 0.00176987 2.77467e-18)
(-0.000210936 -0.000236844 1.15397e-18)
(-4.4708e-05 3.83536e-05 9.14568e-20)
(-0.00495985 -0.00635122 2.79306e-17)
(0.0155874 -0.0432315 9.89097e-20)
(-0.0528717 0.0276533 -3.13374e-17)
(-0.000113778 4.60362e-05 -4.26635e-19)
(-0.00011912 0.000870354 1.37137e-17)
(-0.00128203 -8.53283e-05 4.40166e-18)
(-0.000198106 -0.000226127 -1.6322e-18)
(1.07545e-05 -0.000529581 -5.22663e-18)
(-0.00028043 -0.000990983 1.39427e-17)
(0.00918851 -0.0157211 1.25173e-17)
(0.00590916 -0.00412954 2.49136e-17)
(-0.000652888 -0.00031349 -1.9439e-17)
(-0.000116349 -4.0866e-06 -3.91508e-20)
(-0.000866157 -0.000349583 9.90132e-19)
(0.016359 -0.0236279 7.84072e-18)
(-0.00062169 -0.000747157 -1.17427e-18)
(-0.000188834 -0.000128264 3.23016e-19)
(-0.00022023 -0.000251888 -2.89272e-18)
(-0.000894992 -0.000353989 -1.36847e-18)
(-0.000979654 -0.000343025 -1.05572e-18)
(-0.0503868 -0.00133615 1.54291e-17)
(-0.000276447 -0.000411696 -9.67425e-19)
(0.00116566 -0.00623722 4.33746e-18)
(0.000123599 -0.00122798 -1.90806e-17)
(-0.0274625 0.0168517 3.03168e-17)
(0.0100407 -0.0071254 -1.02519e-16)
(0.0199841 0.152625 -3.06872e-18)
(-5.32914e-05 0.000171394 2.07181e-19)
(-0.0167151 -0.00201605 -1.98901e-18)
(-0.00022716 -0.000300744 -3.86991e-20)
(-0.000553618 -0.000405928 -6.92111e-19)
(-0.00197264 -0.000280066 -2.38668e-18)
(-0.0212191 0.0546971 -8.48906e-18)
(-9.29607e-05 -2.42209e-05 6.93721e-19)
(-0.00040717 -2.99578e-05 -5.61051e-20)
(-9.27652e-05 1.38184e-05 -7.07192e-23)