/*--------------------------------*- C++ -*----------------------------------*\
| =========                 |                                                 |
| \\      /  F ield         | OpenFOAM: The Open Source CFD Toolbox           |
|  \\    /   O peration     | Version:  v2012                                 |
|   \\  /    A nd           | Website:  www.openfoam.com                      |
|    \\/     M anipulation  |                                                 |
\*---------------------------------------------------------------------------*/
FoamFile
{
    version     2.0;
    format      ascii;
    class       volVectorField;
    location    "950";
    object      ddtCorrDdt0(U);
}
// * * * * * * * * * * * * * * * * * * * * * * * * * * * * * * * * * * * * * //

dimensions      [0 1 -2 0 0 0 0];


internalField   nonuniform List<vector> 
18355
(
(-0.00016737 -0.00014848 -1.86345e-18)
(-0.00893545 -0.00978255 6.94238e-18)
(-1.50053e-05 -4.26669e-05 3.5455e-19)
(-0.000111131 2.02697e-05 -2.22954e-19)
(-0.000674383 0.000484821 1.19368e-18)
(0.000317628 -0.0154579 2.19055e-17)
(-5.37144e-05 -2.90158e-05 -1.61003e-18)
(0.00258156 6.66638e-05 -1.04407e-17)
(-4.36307e-05 -0.000377601 -1.46784e-17)
(-0.0440852 -0.00471922 -1.54431e-17)
(-3.68824e-06 8.83954e-05 -1.90939e-19)
(0.0407661 -0.00108717 3.81008e-17)
(0.00513145 0.00359687 -1.50494e-18)
(-9.08198e-06 0.000160278 9.10328e-20)
(-0.000207454 -0.000398246 1.90638e-19)
(0.0001247 -0.000640228 5.30099e-18)
(0.00181483 -0.00103632 -6.02646e-17)
(-0.000134258 -0.000176135 2.58269e-19)
(-1.91052e-05 -0.000502785 -1.24729e-19)
(0.100722 -0.0492366 1.37707e-17)
(0.000264244 -0.000554816 -3.39666e-18)
(4.65388e-05 -0.000359264 -5.07269e-18)
(-0.019805 0.0174485 -2.86013e-17)
(-0.000665166 0.000511237 1.01306e-18)
(-0.00215312 0.00144791 2.82953e-18)
(4.70752e-05 -1.51463e-05 -2.7222e-18)
(3.12017e-06 -0.000519153 -7.48419e-18)
(8.79237e-06 -0.000362386 1.22497e-17)
(0.0514829 0.00940844 1.27173e-17)
(1.60365e-05 3.06789e-05 3.85136e-18)
(-0.000256755 0.000454863 -1.37237e-19)
(-0.00117521 0.000597195 -9.29833e-18)
(-0.00012728 -0.000174911 2.77383e-20)
(-5.579e-05 -1.25808e-05 -3.27842e-20)
(-0.000972588 -0.000384402 3.12374e-18)
(-0.000170819 -0.000128803 1.1843e-17)
(-1.05316e-05 -0.000279188 1.15888e-18)
(-0.000250597 -0.00453093 -2.51691e-17)
(2.80477e-05 -0.000357061 -1.77329e-18)
(-1.20789e-05 0.000119406 1.27328e-18)
(-1.85724e-05 0.000193079 2.07915e-18)
(0.00255796 -0.000468193 -9.28895e-18)
(-1.07102e-05 -7.08256e-05 1.14577e-18)
(-0.0525482 -0.000799294 2.7331e-17)
(3.63425e-05 5.86535e-06 -3.33347e-19)
(-0.00046522 -0.00483943 2.9901e-17)
(-0.000127521 0.000708226 1.04356e-17)
(7.54988e-05 -0.000371189 -6.71603e-18)
(-9.1288e-05 0.000394067 1.73227e-17)
(-0.000115113 -0.000220041 -1.2753e-20)
(-3.79015e-05 0.000163199 5.73901e-19)
(-0.000142606 -0.000403167 1.89518e-19)
(5.06844e-06 0.000147781 1.16372e-19)
(-0.00584097 -0.021467 -1.01468e-17)
(3.03509e-05 -0.000307273 1.14188e-18)
(1.40662e-05 -7.17456e-06 1.31819e-18)
(-0.0321452 -0.0239097 -3.84065e-18)
(-0.000204817 -0.000414414 3.96951e-19)
(0.000491711 0.00516612 -9.83058e-17)
(-0.00477004 2.75796e-06 -4.38463e-17)
(-0.000120737 -0.000226581 4.48599e-20)
(0.00326397 -0.00677788 2.81873e-18)
(-0.00015029 -0.000121077 2.51806e-19)
(0.000793932 -0.000918093 3.1937e-19)
(0.0407024 -0.00122571 -7.00164e-17)
(-0.000137279 -0.000143082 1.39767e-17)
(0.0486528 0.203742 1.82227e-17)
(0.000304938 0.000218951 1.40059e-17)
(-1.29639e-06 -0.000491633 1.15452e-18)
(6.17857e-05 -0.000340868 1.04413e-17)
(-0.00111099 0.000791254 1.6094e-17)
(1.03219e-05 5.45725e-05 -1.82961e-19)
(-0.00513385 -0.000297152 -2.67913e-18)
(-6.36766e-05 -0.000174806 8.34974e-20)
(0.0023475 0.000288751 2.17654e-17)
(-5.62334e-05 -1.23866e-05 2.83251e-18)
(0.0113781 -0.0393745 -2.04495e-17)
(-0.00114213 0.000440271 -2.24426e-18)
(-0.00376421 0.000730941 -1.17293e-17)
(-0.000132917 -0.000366179 1.35891e-19)
(-5.30039e-05 -6.00609e-05 1.17096e-19)
(0.00353958 -0.00738565 -2.89497e-17)
(0.000258812 -0.000556428 -8.80615e-20)
(0.000270969 -0.00115844 -1.62738e-19)
(4.75457e-05 -6.56184e-05 5.10932e-18)
(0.0048816 0.00340297 6.10458e-18)
(0.0742035 -0.000532146 -9.2253e-18)
(0.101851 -0.0515466 1.20826e-17)
(0.0327135 0.0287442 -1.67042e-17)
(-0.0215756 -0.00720427 -1.9563e-18)
(0.0339093 -0.0207949 6.44353e-17)
(3.49281e-05 6.02235e-06 5.44661e-19)
(4.41375e-05 -0.00022998 3.5314e-18)
(3.02112e-05 4.59607e-05 2.52347e-20)
(-0.00506995 0.0990925 -2.61276e-17)
(-0.0197738 0.0164488 1.95389e-17)
(-0.000242811 2.37814e-05 5.79079e-19)
(-0.00154503 -0.000644779 -2.28014e-17)
(-0.0113641 -0.0200207 1.85293e-17)
(-0.00234661 7.84752e-05 1.04485e-16)
(-0.00615333 0.146587 -5.11071e-18)
(-0.00197661 -0.00033853 5.43099e-17)
(-0.000362414 -0.000676615 7.09333e-18)
(0.0240513 -0.0273731 -1.65224e-17)
(-0.000676094 0.000769992 5.2335e-19)
(0.0115245 -0.00817088 -5.38122e-18)
(0.0392629 -0.00123825 3.16472e-17)
(0.00154803 -0.00357874 -2.05004e-17)
(-2.99737e-05 -0.000957569 2.26036e-18)
(-0.0015646 0.00342594 3.96309e-18)
(2.11158e-05 1.75488e-05 4.07327e-18)
(6.72479e-05 -0.000359971 1.42861e-18)
(4.68969e-05 -1.02069e-05 -1.90357e-18)
(5.12945e-05 -0.000365983 4.01879e-18)
(0.0106665 -0.0254407 -1.21848e-17)
(-3.33952e-05 -2.59193e-05 9.30847e-20)
(-0.000153649 0.00476933 1.14687e-16)
(0.0147742 -0.0405338 4.73818e-18)
(0.000325256 0.00497578 6.51476e-17)
(-0.000288471 -0.000752661 -2.19013e-18)
(-0.0443081 -0.00523159 1.47689e-17)
(-0.013313 0.000728063 -4.52904e-18)
(-0.00112154 0.000482883 1.11477e-17)
(-0.0012028 0.000688157 -1.3059e-17)
(-0.000252562 -1.09379e-05 -1.90477e-18)
(0.00185133 -0.00368629 -2.40258e-17)
(-0.000151297 -0.000393758 9.24736e-20)
(9.04576e-06 0.00017701 -1.50892e-18)
(0.0129027 -0.0055995 -6.07675e-18)
(2.64105e-05 4.60635e-05 -9.1742e-20)
(-4.35744e-05 0.000172615 -4.55521e-19)
(-0.0326507 0.0263591 -1.53896e-17)
(0.00147373 -0.00355635 -8.39472e-18)
(-0.00160833 -0.000577064 2.26609e-17)
(0.00120185 -0.000127265 -8.65622e-18)
(1.20815e-05 0.000193395 -1.07237e-18)
(-0.00022373 -0.000399315 -4.8904e-19)
(4.05355e-06 8.45437e-05 6.00667e-19)
(-1.31036e-05 0.000224005 3.06003e-19)
(-0.00173221 -0.00153237 -6.66163e-18)
(-0.00894266 0.13254 -3.5916e-18)
(-0.0224856 0.0765674 3.20712e-17)
(2.0102e-05 -0.000649829 1.12621e-18)
(5.01072e-06 4.53125e-05 -9.1449e-19)
(0.00033101 0.00336978 -4.65126e-17)
(6.42576e-05 -0.000302736 1.35666e-17)
(9.49463e-05 -0.000255679 -5.19105e-17)
(0.0989974 0.00068077 -1.23707e-17)
(-0.00086425 -0.000131739 -2.15999e-18)
(0.106026 -0.00956385 1.61716e-17)
(-0.000598675 0.000337714 -6.59769e-18)
(7.68992e-05 -0.000351909 -8.62519e-18)
(-0.00085904 -0.000351638 -2.22364e-17)
(0.000388737 0.00504184 -3.41121e-17)
(-0.0119396 -0.0173683 1.74511e-17)
(5.88325e-06 6.67838e-05 2.19609e-18)
(-0.0236316 0.0234456 -4.30999e-18)
(0.000153383 0.00457307 -3.84779e-17)
(6.81126e-06 6.74129e-05 -3.73504e-19)
(0.00451144 -0.00649146 -2.8607e-17)
(0.000170128 -0.000557133 -1.56129e-18)
(-0.000154815 -0.000286021 -2.11567e-18)
(0.000501109 -0.000166342 -1.28045e-17)
(-0.00173419 -0.00063344 -1.03911e-17)
(-0.0161697 -0.0469573 6.38858e-18)
(0.00378607 0.00525996 6.04265e-18)
(0.0209453 -0.00461196 3.09022e-17)
(-0.000297605 0.000168914 -1.03736e-17)
(0.00733074 0.0130823 -6.64557e-17)
(-9.88077e-05 -0.000228668 7.15377e-20)
(-0.0308278 -0.0677568 -2.33095e-17)
(-0.0183814 0.0160306 -3.43942e-17)
(2.51589e-06 0.000100463 -3.90641e-19)
(-7.51501e-07 0.00011024 -1.15507e-20)
(0.000113049 -0.000629838 -5.02123e-18)
(0.0205537 -0.00656028 -5.8955e-19)
(-0.0177874 -0.00568138 4.84156e-18)
(4.17782e-05 -0.000243375 3.92601e-18)
(-0.00166484 -0.00774465 -4.74154e-18)
(0.0207943 0.00727025 1.1597e-17)
(-0.000732819 0.00185893 -2.49769e-18)
(0.00846968 0.0129744 -2.45303e-17)
(-0.0009964 -0.00106034 -6.82843e-18)
(-4.6732e-05 6.61637e-05 5.2924e-19)
(-0.000870639 -0.047032 -2.07322e-17)
(0.0281364 -0.00701236 -2.62546e-17)
(-0.0271266 0.0068833 -1.53436e-17)
(0.0263414 -0.0143351 8.66558e-17)
(2.31347e-05 -0.000360472 3.04192e-17)
(0.00184776 -0.000711083 -2.78092e-17)
(-0.0327052 -0.0221834 3.34129e-18)
(-1.96313e-05 -0.000145558 1.85382e-18)
(-0.00179589 -0.000557606 3.57214e-18)
(0.0175481 -0.0399129 -1.63686e-17)
(0.00143394 4.98427e-05 4.59203e-19)
(9.79721e-05 -0.000435859 9.98168e-18)
(-0.0297064 0.0359074 1.95233e-17)
(-0.00111191 -0.00104738 5.32494e-18)
(-0.000455696 -0.00333364 1.68904e-17)
(3.37288e-08 0.000113737 2.08555e-19)
(-0.00062984 7.17457e-05 -7.48062e-18)
(0.000195658 -0.000398622 -2.20217e-17)
(0.014507 0.000551688 -9.15505e-18)
(-0.0287157 0.0073444 8.72547e-18)
(0.041833 0.000262221 -8.27388e-18)
(0.00035456 -0.000604183 -3.20055e-18)
(9.82263e-05 0.00441149 -1.56552e-16)
(0.0239407 -0.00934574 -1.78903e-17)
(0.0332536 -0.00429319 9.20302e-18)
(-0.000712434 -0.00338689 -7.70878e-18)
(-0.000170992 -0.000417061 1.64383e-20)
(-0.000567397 0.000338811 1.10112e-17)
(0.0978206 -0.0528972 1.06729e-17)
(1.9856e-06 -0.000642101 -9.38371e-19)
(-9.22361e-05 -0.000215189 2.9797e-20)
(0.00318205 -0.00770207 3.91794e-17)
(0.107779 -0.0624014 2.0425e-18)
(0.0966831 -0.0501039 -7.24217e-18)
(3.54754e-05 4.71227e-05 1.28456e-19)
(-0.000864155 -8.87354e-05 -1.3402e-18)
(-0.00362686 -0.00801642 3.96338e-17)
(-1.95107e-05 0.00018849 2.5997e-18)
(0.000307558 -0.00107717 -9.02129e-18)
(-0.000204756 -0.000386883 2.156e-19)
(0.0141297 -0.00466639 4.83457e-17)
(2.5356e-05 -0.000410197 -3.02833e-18)
(0.0163494 -0.00887438 -7.12527e-17)
(0.0422876 -0.00494609 8.14191e-18)
(0.000227262 0.00225467 -4.94909e-17)
(-0.000173143 -0.000447314 1.40967e-19)
(1.18807e-05 0.000179872 7.26968e-19)
(-0.00351421 0.000864828 -3.09008e-18)
(3.98732e-05 -0.000493994 -7.18375e-19)
(0.0153252 -0.00949023 -4.83629e-19)
(-5.78563e-05 -0.000606455 6.95779e-19)
(3.45358e-05 -7.36822e-05 1.25589e-18)
(4.15866e-05 -0.00021894 -4.62834e-18)
(0.00154589 -0.00453221 -1.97853e-17)
(0.0377389 -0.0420265 1.97635e-17)
(0.0284714 0.000170797 2.97125e-17)
(-7.31663e-05 -0.000925328 -2.89e-18)
(0.00496894 0.0133469 -1.55586e-17)
(-0.000244137 0.000526629 2.15917e-19)
(-8.56851e-05 -0.00021944 1.58503e-21)
(5.55472e-05 -0.000379379 1.36642e-17)
(0.0403604 -0.00323118 -4.35534e-19)
(0.00276266 0.00428666 2.47489e-17)
(0.000190312 0.00363832 7.97757e-17)
(-0.0129682 -0.0165619 -1.71986e-17)
(0.000164824 -0.000566566 -1.48691e-18)
(-0.000611258 6.18246e-05 -5.31477e-18)
(0.00170326 0.00763262 2.4984e-18)
(-0.00117219 -0.00119973 -3.50016e-18)
(0.0305968 -0.00442948 -5.89381e-17)
(5.53169e-05 -0.000383344 -2.39774e-18)
(0.0103822 -0.00477158 1.18318e-16)
(0.127505 -0.0646067 -3.03356e-18)
(0.00474089 -0.00587161 -1.83509e-17)
(3.38233e-07 -0.000185897 -1.42166e-18)
(-3.39312e-05 1.69357e-06 1.07231e-19)
(-0.000130563 -0.000174877 -1.3313e-17)
(-0.00130079 0.0010676 -6.26107e-17)
(0.020572 0.00205908 4.76882e-18)
(0.00180125 -0.00355747 1.08236e-17)
(-2.82817e-05 -8.14699e-06 6.93043e-19)
(-8.39731e-05 -0.00019941 -1.87817e-19)
(5.27895e-06 0.000177993 -2.26667e-18)
(0.00684796 0.014516 6.6921e-17)
(0.0010192 -0.00239177 7.95836e-19)
(-0.000116812 0.00234268 -4.81871e-17)
(0.000104448 -0.000597782 5.66188e-19)
(0.122497 -0.0485202 2.82046e-19)
(0.0281502 -0.0141344 4.15539e-17)
(0.0107101 -0.00756216 -7.75252e-18)
(-0.00033205 -2.67426e-05 7.58833e-19)
(-0.0260229 0.0313871 4.53621e-17)
(-0.000142801 -0.00037236 -6.33524e-20)
(-2.08549e-05 -0.000167169 -4.41378e-18)
(0.010997 -0.000764053 -1.83816e-17)
(-2.74475e-05 -7.75045e-06 -1.32797e-19)
(-5.50259e-05 -7.00701e-07 -5.0204e-19)
(0.0114326 -0.00577467 -2.44832e-18)
(-3.11728e-05 0.000136034 -4.13028e-19)
(-0.0143779 0.102995 8.74653e-18)
(-0.00127327 -0.00117261 1.1926e-17)
(9.764e-05 -0.00036807 3.36436e-18)
(-2.96339e-05 -8.74953e-06 -1.47506e-19)
(-0.000348661 0.000137881 8.84195e-18)
(0.037609 -0.00260127 3.69823e-17)
(-0.00119275 0.000534319 6.00561e-18)
(-0.000108286 9.03252e-06 3.66412e-20)
(2.50026e-06 4.84208e-06 2.54319e-18)
(0.0128496 -0.0176066 1.93032e-18)
(-0.0217267 -0.0143427 1.10536e-17)
(4.97756e-06 0.000185712 -3.05278e-18)
(2.14475e-06 6.25436e-06 -1.88099e-18)
(0.120726 -0.0614228 -8.80326e-18)
(-0.00050083 -0.000623292 1.51355e-17)
(-0.0152055 -0.0168049 -1.1175e-17)
(0.00271595 0.00275438 -4.60579e-17)
(-2.16258e-05 -0.000211562 2.29778e-19)
(-0.00113022 0.00106342 4.08746e-18)
(7.92075e-05 -0.000355112 -8.47159e-18)
(3.75691e-06 1.05664e-05 8.85249e-19)
(0.00247562 0.00267107 -7.38343e-18)
(-0.0150732 -0.0487089 -5.42089e-18)
(-0.0448168 -0.0629585 -1.01816e-18)
(0.0136932 -0.0185595 -1.43228e-17)
(1.66466e-05 6.20713e-05 -4.10874e-20)
(-0.000730366 0.00194874 3.64211e-17)
(-0.000548514 0.000783299 6.40989e-19)
(-2.27834e-05 -0.000473319 -2.57355e-18)
(-0.00569238 0.00480236 -3.13519e-18)
(-4.37637e-06 7.64125e-05 -2.37811e-18)
(0.00562071 0.0146378 -3.01213e-17)
(0.00250135 -0.000308731 9.44215e-18)
(4.47486e-05 -0.000276612 3.76101e-19)
(-6.3917e-05 0.000148208 1.88451e-19)
(0.00371001 0.0135116 -1.45387e-17)
(0.00297857 0.0458519 1.22948e-18)
(0.023578 -0.0100577 1.14871e-16)
(-0.000105523 -0.000556311 6.18553e-19)
(0.000491542 -0.000181353 -1.65785e-19)
(-0.0539255 -0.000748254 -4.48307e-18)
(-0.000129758 0.000232217 -2.73523e-19)
(0.0395698 -0.0400366 -1.08463e-17)
(-0.00353643 0.00160633 -1.14839e-17)
(0.000641923 -0.000407782 1.65882e-19)
(0.0360924 -0.0371179 9.70553e-19)
(1.18347e-05 6.7297e-05 2.71783e-19)
(0.00407617 0.00575587 -3.36309e-17)
(-1.09229e-05 -0.00041285 -4.76824e-18)
(0.00129275 -7.79984e-05 -1.157e-17)
(3.80021e-05 -5.31177e-06 2.23806e-18)
(-0.0143164 -0.0162393 1.05081e-17)
(0.0276646 -0.00480518 -8.44533e-18)
(-3.94011e-06 0.000211302 -9.42638e-20)
(0.0135684 0.00440384 -7.533e-17)
(0.000433851 -0.00102984 -1.53246e-17)
(-5.33236e-06 -0.00050925 -1.07675e-18)
(-0.00014982 0.000561424 -1.61725e-17)
(0.00333679 -0.00746722 -1.93757e-17)
(0.00146115 -0.0198697 -1.72751e-17)
(0.0080209 -0.0276425 6.05377e-18)
(0.0313703 -0.0391582 3.48085e-17)
(4.2055e-05 -0.000324961 1.25856e-18)
(-0.000153266 -0.000114139 1.50769e-19)
(-0.00245897 0.0201685 -1.74817e-17)
(-0.000551615 0.00151747 -5.55157e-17)
(6.24499e-05 -0.000185986 3.34692e-18)
(-4.20555e-05 -0.000613216 5.7593e-19)
(-0.050715 -0.0660919 6.48146e-20)
(-0.00227051 -0.047667 3.2895e-19)
(0.00206293 0.00657111 4.84708e-18)
(-0.00455069 0.0215723 3.17121e-17)
(2.67433e-05 -0.000395677 4.865e-19)
(-0.000613872 -7.48472e-05 7.98764e-19)
(6.86851e-05 0.0041458 -5.92221e-17)
(7.56841e-06 3.02857e-06 1.99667e-18)
(-5.36646e-05 -0.000615532 -6.66761e-19)
(0.0308566 -0.00547602 -1.2352e-17)
(-0.0010603 -0.00377918 -5.8175e-18)
(-0.00137576 -8.05134e-05 8.04936e-18)
(0.051597 0.0488413 2.7147e-17)
(3.09887e-06 0.00011079 -4.01051e-18)
(0.00117341 0.000645635 2.30357e-17)
(-0.00378781 -0.00939362 3.87688e-17)
(0.0298946 0.000162225 -6.21658e-17)
(-0.000108221 1.43555e-05 8.2127e-20)
(4.08162e-05 4.01389e-05 -3.84764e-18)
(-1.76889e-05 9.21874e-05 -3.82362e-18)
(-0.000231929 -0.000122461 3.70039e-19)
(0.00195852 0.000659535 1.00928e-17)
(-0.000235143 -8.96904e-05 1.72728e-18)
(-0.000374185 -0.000117816 -1.24392e-17)
(-2.31734e-05 7.23494e-05 -2.94411e-18)
(-6.56551e-05 -0.000420839 2.90048e-18)
(1.97276e-05 -0.000367663 3.47234e-18)
(-2.32742e-05 -0.000378176 1.51433e-17)
(-0.000295808 0.00031077 2.19024e-18)
(-6.57659e-05 -0.000548005 -4.75292e-19)
(-0.000294019 0.000293512 2.65562e-19)
(-0.000299947 0.000316172 1.00449e-18)
(0.000114838 -0.000655469 7.02885e-19)
(0.000501754 0.00221225 1.25263e-16)
(-0.0313038 0.0358794 2.56674e-17)
(-0.000216147 -0.000347049 -3.1202e-19)
(-0.0146796 -0.0204923 7.81291e-18)
(0.000810074 -0.00039669 -6.01755e-18)
(-0.0337254 0.0321665 -2.13467e-17)
(-0.000855718 -0.00214099 2.88833e-18)
(0.000778584 0.00252949 -1.11474e-17)
(5.18834e-05 -0.000391978 6.08773e-19)
(-0.0173599 -0.00389395 3.67441e-17)
(-9.86149e-06 -0.000252622 -7.02815e-18)
(-3.36997e-05 -2.35888e-05 1.5524e-19)
(4.56956e-05 -0.000124815 -1.0941e-18)
(-0.000111052 0.000123727 -1.86604e-19)
(-0.00141961 -0.024333 -1.19052e-17)
(-0.000290161 -0.000170597 9.16189e-18)
(3.95611e-05 5.45309e-06 -7.74424e-19)
(0.00124362 -0.00110386 6.90294e-18)
(-0.000353637 -0.000136285 1.11411e-17)
(1.31287e-06 -4.04865e-05 -3.69973e-18)
(-0.000128895 0.000223641 -2.11738e-19)
(0.0140279 -0.00991962 -2.58524e-17)
(7.17108e-05 -0.00039584 1.29898e-18)
(-0.000141012 -0.00039006 -2.04132e-19)
(-0.0009488 0.00632536 1.77958e-17)
(-3.08877e-05 0.000135561 6.11882e-19)
(-3.57043e-05 0.0040607 -2.09569e-17)
(-0.000168087 -0.000454929 -3.39738e-17)
(0.0310012 -0.0070578 2.14403e-17)
(6.57138e-05 -0.000222484 2.01343e-17)
(-0.000622194 0.000814887 2.07332e-19)
(0.0371311 -0.00318191 2.71829e-17)
(1.38143e-05 6.0934e-05 1.04615e-18)
(-1.51171e-05 0.000176538 3.90631e-18)
(0.00129225 0.00623883 -2.07737e-17)
(5.92365e-06 0.000101713 -8.56709e-21)
(8.36973e-07 0.000111851 1.93007e-18)
(0.00257965 -0.000857488 -3.20561e-17)
(-6.99694e-05 -0.000189256 3.73152e-20)
(0.0265305 -0.0054838 1.80711e-18)
(-0.00709819 -0.0054366 -5.00926e-19)
(-0.0174577 -0.00937226 1.28445e-18)
(4.79096e-06 -0.000659433 3.8411e-17)
(6.38875e-05 -0.000321338 1.59273e-17)
(1.46168e-05 0.000140341 -1.03209e-18)
(0.0247348 -0.0487993 -7.52741e-18)
(-0.000691881 -0.0154549 1.13635e-17)
(-0.0317944 -0.0721465 -3.45577e-19)
(0.0224833 -0.0190064 3.00131e-17)
(-1.7913e-05 3.20453e-06 -2.52e-18)
(-5.09314e-05 5.49758e-05 6.35168e-19)
(8.14964e-05 -0.000276446 -7.9059e-18)
(0.0654724 -0.0657354 1.79772e-17)
(0.00119156 -0.000441461 9.50124e-18)
(-2.96945e-05 -0.00052745 1.39987e-18)
(9.40074e-07 6.52352e-05 3.44756e-18)
(2.09399e-05 -0.000594938 -7.85397e-19)
(0.00122412 0.000658661 -1.28282e-17)
(0.000130431 0.00430799 3.91569e-17)
(0.000234229 -0.000562141 -4.51039e-18)
(7.11004e-05 -0.000229599 2.47736e-18)
(1.28597e-05 0.000152511 -9.46189e-19)
(-0.000835111 -0.00196084 1.13477e-18)
(0.0352991 -0.0249005 2.79001e-17)
(-0.0190364 -0.0157513 -9.7531e-19)
(0.0111014 -0.00505549 1.63618e-17)
(-0.0457648 0.0207706 -3.70457e-17)
(0.000812112 0.00101152 2.11264e-18)
(0.00121411 0.00046232 1.64856e-17)
(-0.0507027 -0.000991867 -3.05331e-17)
(-0.000433648 0.000349301 1.63621e-18)
(-3.60143e-05 -6.28661e-06 1.17601e-18)
(2.75659e-06 -1.10903e-05 -2.89185e-18)
(-0.000218274 -0.000339551 -8.73835e-19)
(0.00168323 0.000762545 7.53349e-18)
(-1.45643e-05 -0.000359215 7.88997e-19)
(3.77212e-05 3.28323e-06 1.40318e-18)
(-0.00282577 4.46543e-05 -1.25029e-16)
(0.0011857 0.000745075 -2.43574e-17)
(-4.22575e-05 0.000535934 -1.6532e-18)
(-0.0167687 -0.00955643 6.41289e-19)
(0.000877402 0.00109842 -1.78574e-17)
(0.0266111 -0.00448911 1.87995e-17)
(-8.21645e-05 -0.000436381 9.58678e-19)
(-0.000298522 0.00031168 4.45944e-18)
(3.14751e-06 0.000128457 3.07446e-18)
(-5.18937e-05 -8.35823e-05 -9.45677e-19)
(1.36335e-06 4.6127e-05 -2.70232e-18)
(1.22721e-05 0.00013016 1.95588e-18)
(-1.91843e-05 -0.000245302 2.70859e-18)
(-0.0212814 0.0572209 2.17131e-17)
(-0.000122288 -0.000535476 -5.37029e-19)
(-1.34189e-05 0.000121846 -6.97228e-19)
(-0.0181457 0.00122237 -3.13745e-17)
(-0.00494176 0.00118124 -3.37936e-17)
(-3.48427e-05 1.45836e-05 -2.12574e-18)
(-0.000973137 0.000324162 6.57992e-18)
(0.00182116 -0.000236109 -1.48309e-18)
(0.0111709 0.00760251 2.1368e-17)
(9.36681e-05 -0.000624334 2.11099e-18)
(-0.000268222 0.000115577 -7.48072e-19)
(0.00136857 -0.0169848 -1.59773e-17)
(0.000131787 -0.000443374 8.5842e-18)
(0.105089 -0.0701283 -1.25342e-17)
(-0.0037127 0.00179695 9.92398e-18)
(-0.000231731 -0.000135107 -1.01936e-18)
(-0.00278013 0.000584701 -4.85393e-17)
(-0.00502283 0.0015399 5.38623e-17)
(-0.000119267 -0.000148978 3.89851e-20)
(0.0272559 -0.00611772 -2.49227e-17)
(-0.0154925 0.110065 -2.28366e-17)
(0.00898651 -0.0071405 -5.17089e-17)
(-0.000232218 -0.000167282 -8.64577e-19)
(-0.00026012 0.000124616 -1.4825e-18)
(4.04471e-05 -0.000503574 6.85155e-19)
(0.0104735 -0.0199057 -1.37848e-18)
(3.05751e-05 -0.000234497 5.65769e-18)
(0.11792 -0.0597575 -3.05172e-17)
(0.0456645 -0.0675871 6.3734e-18)
(-0.0107562 -0.0190869 -1.63301e-17)
(-0.0156218 -0.00881395 9.82573e-18)
(-0.000103954 0.000139492 4.13619e-19)
(-0.00748127 -0.00498929 4.11503e-18)
(0.0192664 -0.0135821 2.05637e-17)
(-0.0180285 0.0171778 4.40276e-17)
(0.0564564 -0.0364785 -4.23244e-18)
(6.26978e-05 -0.000147303 -1.71879e-18)
(0.000292175 -0.000574893 3.94508e-18)
(0.00020381 -0.000579066 -4.53684e-18)
(-0.0425243 0.00497954 -2.89042e-17)
(-0.00209068 -0.000243675 -2.44519e-17)
(0.0365219 -0.0203034 -5.80822e-17)
(0.000100284 -0.000364526 3.02848e-18)
(1.44107e-05 0.000227591 1.13761e-18)
(1.76048e-05 -0.000202927 -5.66436e-19)
(0.00122835 -0.000429578 -9.00254e-18)
(-2.06527e-05 -0.000289102 1.25328e-18)
(0.0254474 -0.0528423 -1.64533e-17)
(0.000227736 -0.000571998 -3.64106e-19)
(0.0179049 -0.0283467 1.03439e-17)
(2.37511e-05 0.000214496 -2.28297e-18)
(1.20607e-05 -0.000574995 6.41341e-19)
(-3.68157e-05 3.74057e-06 2.72034e-19)
(0.000310082 0.000159429 -1.05608e-17)
(0.000233616 -0.00064045 1.07507e-18)
(0.0337248 -0.0268294 -3.52159e-17)
(-3.58851e-05 0.000128481 -4.66604e-19)
(0.00893785 -0.0127171 1.20759e-17)
(0.0105071 0.0048016 -1.64937e-17)
(-0.00415725 -0.00103635 -2.2769e-17)
(4.05516e-06 -0.000201444 2.24374e-18)
(0.000147492 -0.000426525 1.73548e-17)
(-0.00521201 -7.88773e-05 -1.1705e-17)
(5.76376e-06 0.000111665 1.95544e-18)
(6.57166e-05 -0.00039359 -6.63209e-18)
(-0.000748153 -0.00373403 7.40123e-18)
(-0.00387136 -0.00102095 2.10478e-17)
(-0.00451279 -0.00172389 -9.95587e-18)
(-3.87098e-05 -0.000616362 -6.9508e-19)
(-0.000119367 -0.000137015 5.66135e-20)
(3.49354e-06 -7.19054e-05 -9.77156e-20)
(4.32618e-07 0.000158746 3.15054e-19)
(-0.000316541 4.15694e-05 6.32789e-18)
(-0.00142244 -2.51069e-05 -1.12107e-17)
(0.00372635 -0.00640163 -8.2454e-18)
(-7.38821e-05 -0.00041743 -3.80776e-19)
(-0.000648678 0.00054898 -1.60001e-18)
(-0.131647 -0.0933497 -4.92942e-18)
(7.214e-06 8.2137e-05 -1.58427e-19)
(-0.00016976 0.000279502 1.56919e-17)
(6.40346e-05 -0.000295257 3.832e-18)
(-0.00180294 -0.00404003 -2.16406e-17)
(0.000106358 -0.000371411 2.88717e-18)
(-0.00551858 -0.0224151 -8.25539e-18)
(-0.000434355 8.06669e-05 -3.04965e-18)
(-0.0392086 0.000473646 -4.24636e-17)
(0.0002493 -0.00034128 1.4404e-17)
(0.000126336 -0.000367855 2.83078e-17)
(0.128264 -0.0633358 3.40335e-18)
(-0.118965 -0.0890925 3.22476e-17)
(0.0221224 -0.00275991 -3.69785e-17)
(-0.00432485 -0.000732144 2.1722e-18)
(-0.000296502 -0.000152858 1.05881e-18)
(-0.000242413 -0.000190087 -6.12157e-19)
(-4.9197e-06 0.00016572 1.83007e-18)
(-0.0100712 -0.0264146 9.43296e-19)
(-0.000370645 0.000396663 -1.95846e-17)
(0.000606606 -0.000452896 -6.72067e-18)
(0.00136931 -0.0021649 -6.13849e-18)
(-0.0204328 0.0706363 -3.31179e-17)
(-0.023098 -0.0482244 3.07897e-18)
(-5.00841e-05 1.02263e-06 -1.78864e-18)
(0.0234027 -0.0128089 -1.59805e-18)
(-0.0494315 0.0301628 2.82559e-17)
(-0.00104178 0.000377773 -3.95631e-19)
(-2.7863e-05 0.000151824 -4.87236e-18)
(-0.00011395 0.000324715 9.52404e-18)
(-0.0262772 -0.00635746 -1.00395e-17)
(-0.000148519 -0.000189758 2.58098e-18)
(2.58315e-05 0.000207723 1.77524e-18)
(0.000335433 0.00140335 -1.38383e-17)
(-0.00409552 -0.00160803 1.12802e-17)
(-0.00103639 -0.000505792 2.09913e-17)
(0.000268677 8.36554e-05 3.68646e-18)
(0.00516373 0.00551964 2.92878e-18)
(-0.00138881 -0.000615853 6.70073e-19)
(0.00991847 -0.0041584 3.38102e-17)
(-0.0240814 -0.00426193 1.09799e-17)
(0.0380684 -0.0352343 8.43059e-18)
(-0.00486065 0.00310641 -5.05294e-17)
(0.00152128 0.000613251 2.64716e-18)
(0.00154091 -0.0041906 1.71021e-17)
(-0.000823693 -0.000947007 8.4403e-18)
(1.29694e-05 -1.157e-05 -9.68093e-19)
(-0.00106643 0.000386285 -3.01073e-18)
(7.4849e-05 3.93762e-05 -2.1328e-18)
(0.00024247 0.00326228 1.5892e-16)
(-0.00121404 0.00333155 -1.93599e-17)
(0.020432 -0.00893536 -2.73601e-19)
(0.000539774 0.00216294 -1.11638e-16)
(0.0393374 -0.00215692 2.30082e-17)
(-0.00720523 0.0655095 3.00737e-18)
(0.000162333 0.00135667 -2.02549e-17)
(0.000151052 -0.000636979 -4.00346e-18)
(0.00313804 -0.0068017 -1.04289e-18)
(0.0257342 -0.00810941 -8.26355e-18)
(-1.46495e-05 0.000108483 -1.76611e-19)
(0.000329205 0.00281244 2.19705e-17)
(-0.00980154 0.14696 5.11149e-17)
(-0.0443642 0.0280245 -4.22688e-17)
(0.000307351 -0.000606288 1.23464e-18)
(-8.32779e-05 0.000127877 6.90772e-19)
(-0.0013546 -0.000572989 2.64852e-18)
(-0.00200868 -0.000511115 -2.76739e-18)
(-0.00522416 0.000250386 4.31697e-18)
(0.00558867 0.0015886 -7.17822e-18)
(2.53745e-06 4.5998e-05 -9.2851e-19)
(-0.0407231 0.000604877 2.43044e-18)
(9.45264e-05 -0.000606125 -1.45708e-17)
(0.000222172 -0.000560204 1.45799e-17)
(-0.0417484 0.00471663 2.06864e-19)
(-5.2726e-05 -0.000340467 -2.48648e-18)
(0.000276611 -0.000652628 -3.23812e-19)
(0.0665533 -0.04025 1.5116e-18)
(-1.12242e-05 0.000136872 -1.74362e-18)
(-0.00024721 -0.000192566 3.40293e-18)
(0.0193063 0.0156937 -1.94355e-17)
(-4.46183e-05 -5.81048e-05 4.51576e-19)
(0.00862901 -0.01344 6.38869e-18)
(5.47467e-06 8.01962e-05 5.47939e-19)
(-0.0126321 0.0846424 1.61783e-17)
(-0.00454237 -0.000735112 2.08787e-18)
(-0.00416994 -0.0051722 -4.01896e-18)
(0.000672118 -0.000458471 2.46719e-18)
(-0.000141302 -0.000284605 1.48502e-18)
(0.0102215 -0.0187396 -3.33252e-18)
(-1.64121e-05 -0.000402104 3.68944e-19)
(0.109129 -0.0279369 4.0226e-18)
(-0.00964564 -0.0166409 8.6216e-18)
(-0.000300326 0.000369311 -5.33944e-18)
(-0.0272749 0.00382943 -2.21012e-17)
(-0.0045765 -0.00545266 2.33844e-18)
(0.00477768 0.00593876 1.8709e-17)
(0.012109 -0.00223269 4.18667e-18)
(-0.0207531 0.000573251 7.68192e-17)
(0.0328708 -0.0226988 -1.98158e-17)
(-6.09358e-06 5.5969e-05 2.40911e-18)
(-0.000123347 0.00013752 -7.3806e-20)
(-0.0135142 0.115161 4.54985e-18)
(0.000169485 -0.000448283 -5.17644e-18)
(9.69876e-05 -0.000423809 1.35552e-17)
(1.94214e-05 0.000189862 1.84876e-18)
(-0.000832792 -0.000983071 -1.10401e-17)
(-0.0456856 0.0208701 3.71027e-17)
(-0.0346323 0.00742263 2.67763e-18)
(-0.000369681 -1.21809e-05 -8.01486e-18)
(-0.0594839 0.000387859 2.19371e-18)
(0.00160762 0.000744331 -2.38395e-17)
(9.36159e-06 -0.000565302 -5.27987e-19)
(-8.87957e-05 0.000131573 -1.95795e-18)
(3.14032e-05 0.000197844 -8.35661e-19)
(0.00141718 -0.00103198 -2.09632e-17)
(0.000838306 -0.0023436 -1.58698e-18)
(-0.000206658 0.000308436 -3.1343e-19)
(0.0234023 -0.000623115 3.25255e-17)
(0.000305118 -0.000589433 8.73204e-18)
(-0.000457304 -0.000701625 -5.8052e-18)
(1.81491e-05 7.83297e-06 -1.13074e-18)
(0.0298827 -0.00548621 -9.60497e-18)
(0.0146886 -0.00933835 1.24456e-17)
(2.12692e-05 3.69157e-05 7.93794e-18)
(-6.13171e-06 0.000119327 5.43101e-19)
(-0.00224043 -0.0164512 4.48858e-18)
(1.45237e-05 0.000176953 -1.96564e-18)
(-0.00012493 -0.000136997 4.5495e-20)
(-0.0145384 0.0459881 -7.71923e-18)
(0.000381649 0.00255929 -7.91534e-17)
(7.45554e-05 -0.000281875 6.68498e-18)
(-7.24251e-06 0.000167856 -6.37563e-18)
(-0.022397 -0.0358811 5.34839e-18)
(-0.000198197 0.000387651 -2.28421e-18)
(-0.00400133 0.000887726 4.10036e-18)
(-0.000470546 0.0014291 8.73159e-17)
(-7.0893e-05 -0.000545601 -2.12292e-18)
(0.0187084 -0.0160342 -9.09385e-18)
(0.000904847 -0.00613591 3.40944e-18)
(6.34911e-05 -0.000329445 -4.19578e-18)
(0.000645865 0.00321399 6.135e-17)
(-0.0171623 0.0156674 -4.48278e-18)
(-5.49302e-05 -2.30865e-05 -8.40796e-19)
(-0.0369762 0.0070324 -1.79718e-17)
(-0.000110173 4.50626e-05 5.80449e-19)
(-2.96376e-05 0.000134985 5.39299e-19)
(4.27049e-05 -0.000231624 2.13097e-19)
(-4.73226e-05 0.000487866 -2.98977e-17)
(0.0114983 -0.00889677 8.63483e-17)
(0.000321549 -0.000946452 1.3511e-17)
(-0.0219987 -0.00551785 3.80989e-18)
(0.000363953 -0.000662618 -1.49215e-19)
(0.0694628 -0.0265745 -2.06174e-17)
(-0.012777 -0.00896845 1.0274e-16)
(-0.000744623 -0.000870788 6.37529e-18)
(0.0401146 -0.00163002 -3.0479e-17)
(4.22252e-05 1.35913e-06 5.00095e-18)
(0.0218865 -0.00973037 -5.60167e-17)
(-0.00103493 0.00032913 -9.58928e-18)
(0.0806931 0.0119415 1.7641e-18)
(-0.00677822 -0.00987428 -2.44455e-18)
(8.43428e-06 -0.000519798 6.54078e-18)
(0.00066974 0.00584341 -2.58361e-17)
(2.15084e-05 -0.000501973 4.53614e-19)
(0.000208638 -0.000339822 -2.40574e-17)
(0.024366 -0.00517345 -1.28259e-17)
(0.000577524 0.00192107 3.46445e-17)
(0.0358959 -0.00395269 -7.50041e-17)
(-4.2722e-05 -9.09739e-05 -1.65514e-20)
(-0.00464951 -0.0225087 -1.86228e-18)
(2.11677e-06 0.000222741 4.42306e-18)
(0.103642 -0.032828 -2.57128e-18)
(-0.000513457 0.000340469 1.96542e-18)
(0.000313893 -0.000543311 -4.99389e-18)
(-0.00484663 -0.000258605 -5.38e-18)
(-7.51202e-05 -0.000215444 -3.31276e-19)
(-4.69301e-05 2.58899e-05 -6.41811e-20)
(-0.00260678 -0.00854312 -7.4959e-18)
(0.0101076 -0.0289967 1.77646e-17)
(-0.0432699 0.0302276 2.17932e-17)
(-5.06622e-05 3.91815e-05 -1.51807e-19)
(9.86672e-06 0.0040625 8.82824e-17)
(-0.000754422 -0.000789258 -6.37058e-18)
(-6.31691e-05 -0.000191795 -8.36057e-19)
(1.7927e-05 -0.000272435 3.92789e-18)
(0.0004441 -0.000372381 1.77228e-17)
(0.014576 -0.0132913 -2.74899e-18)
(0.0234255 -0.00714726 -3.08505e-17)
(0.000155538 -0.000871893 1.27188e-17)
(-6.5168e-05 -6.53815e-06 8.44785e-20)
(3.0825e-05 -0.000498666 -2.34494e-18)
(0.00626295 -0.0232041 -2.78755e-17)
(0.000269184 -0.000556252 -1.23633e-18)
(-5.85035e-06 8.26483e-05 2.72647e-18)
(-8.07929e-05 -0.000234548 1.37234e-18)
(2.69636e-05 -0.000514689 3.13396e-18)
(-0.000240732 -0.000995832 -3.42443e-19)
(-0.0575337 -4.51085e-05 1.6304e-17)
(-5.15566e-05 -0.000311707 2.06792e-18)
(0.00607934 -0.00481859 -4.21748e-17)
(0.00153762 -4.5493e-06 4.56892e-18)
(-0.0405079 0.0294777 2.60278e-19)
(0.00824865 -0.00676817 4.29586e-17)
(0.0385476 0.172878 -1.11436e-19)
(-5.71305e-05 0.000126991 2.84353e-19)
(-0.0154915 -0.00820555 -9.81551e-18)
(-1.68935e-05 -0.000117248 1.55346e-18)
(-0.000126443 -0.000528141 -3.80666e-20)
(-0.00148613 -0.00128216 -3.09036e-18)
(-0.00898011 0.115243 6.72464e-17)
(-2.7545e-05 1.1378e-06 1.24923e-20)
(-0.00022342 -0.000228759 -3.79791e-19)
(-7.98134e-05 4.76596e-06 -9.42693e-20)
(0.0218392 -0.0086211 6.83295e-17)
(0.000105029 -0.000512575 1.86931e-17)
(-0.000306667 0.00038979 9.76926e-18)