/*--------------------------------*- C++ -*----------------------------------*\
| =========                 |                                                 |
| \\      /  F ield         | OpenFOAM: The Open Source CFD Toolbox           |
|  \\    /   O peration     | Version:  v2012                                 |
|   \\  /    A nd           | Website:  www.openfoam.com                      |
|    \\/     M anipulation  |                                                 |
\*---------------------------------------------------------------------------*/
FoamFile
{
    version     2.0;
    format      ascii;
    class       volScalarField;
    location    "950";
    object      k;
}
// * * * * * * * * * * * * * * * * * * * * * * * * * * * * * * * * * * * * * //

dimensions      [0 2 -2 0 0 0 0];


internalField   nonuniform List<scalar> 
18355
(
0.000162057
0.0354432
0.000147416
0.000145632
0.000150511
0.000184435
0.000147559
0.00017441
0.000151225
0.0393573
0.000144983
0.0323031
0.000184472
0.000147963
0.000148781
0.000151943
0.0135611
0.000146281
0.000148497
0.0463961
0.000154186
0.000149564
0.0734486
0.000150544
0.000156026
0.000148888
0.000148376
0.000150922
0.0222602
0.00014791
0.000149152
0.000152482
0.000146258
0.000146853
0.000168613
0.000162756
0.000149881
0.000182432
0.000150741
0.000145139
0.000147975
0.00016836
0.000147451
0.0313856
0.000147912
0.000183506
0.000170014
0.000151991
0.000167761
0.000146413
0.000145003
0.000147402
0.000149832
0.0616411
0.000148479
0.000148369
0.000192229
0.000148894
0.000460862
0.000184494
0.000146437
0.000178542
0.00014617
0.000162756
0.0361624
0.000161443
0.0087683
0.000157723
0.000148414
0.000149391
0.000172014
0.000149683
0.000185668
0.00014659
0.000174351
0.000147531
0.0436369
0.00015228
0.000159466
0.000147151
0.000147642
0.000255881
0.000153899
0.000164344
0.000148835
0.000184078
0.0308734
0.0462613
0.0204513
0.0689479
0.000243245
0.000148321
0.000148638
0.0001444
0.00605635
0.07014
0.000147183
0.000156099
0.0598373
0.00856361
0.0118527
0.0101092
0.000164363
0.00465631
0.00015133
0.000190551
0.0201905
0.000177287
0.000161537
0.000184216
0.000147694
0.000150431
0.000148899
0.000150638
0.0539396
0.000147858
0.000474457
0.0438248
0.000474417
0.000164298
0.0422473
0.00132071
0.000152179
0.00017184
0.000147178
0.000177871
0.000147375
0.000149721
0.00245684
0.000144417
0.000145046
0.0156054
0.000171958
0.000155862
0.000161373
0.00014969
0.000148104
0.000144962
0.000147748
0.000172894
0.0132942
0.018002
0.000149625
0.000147667
0.000188233
0.000149266
0.000153818
0.0269298
0.000152623
0.0264694
0.000149783
0.000149336
0.00016758
0.000432845
0.000183761
0.000149781
0.0148249
0.000472727
0.000149762
0.000179793
0.000155604
0.00015339
0.000156898
0.00015637
0.000217531
0.000270238
0.0611113
0.000166284
0.000205392
0.000146454
0.0218217
0.0660641
0.000144884
0.000144985
0.000151912
0.0255795
0.000177344
0.000148582
0.0013818
0.0470014
0.000166346
0.000205006
0.000158112
0.000147236
0.000226036
0.0267577
0.074243
0.000217158
0.000151356
0.0106681
0.00019141
0.000147538
0.00015621
0.0062685
0.000162642
0.000149513
0.0110074
0.000157858
0.000167203
0.000144983
0.000150938
0.000152343
0.0467799
0.0721454
0.010039
0.000156699
0.000469108
0.0565178
0.0638346
0.000167018
0.000148102
0.000149539
0.0456194
0.000149467
0.000146453
0.000246453
0.018625
0.0455508
0.00014895
0.000152452
0.000246267
0.000147694
0.000163746
0.000147992
0.0546188
0.000149026
0.0479505
0.0261503
0.000171374
0.000148096
0.000149807
0.000158892
0.000155101
0.0510673
0.000150537
0.00014884
0.000148643
0.000183761
0.000320378
0.00990827
0.000160859
0.000203422
0.000149412
0.000146524
0.000149197
0.0214208
0.0182293
0.000463983
0.000183407
0.000155492
0.000150947
0.000530831
0.000158442
0.0672772
0.000148759
0.0310375
0.0383603
0.000179797
0.000147949
0.000147543
0.000160759
0.000173934
0.0546631
0.000172697
0.000146664
0.000146414
0.000149735
0.000208881
0.000170363
0.0001687
0.000150504
0.022081
0.000221233
0.000189354
0.000149146
0.0119147
0.000147235
0.000147868
0.000684744
0.000146708
0.000147522
0.000189422
0.000147275
0.0128266
0.00015828
0.000152526
0.000146912
0.000166223
0.0350915
0.000152527
0.000145661
0.000147959
0.000197546
0.0500667
0.000149759
0.000149847
0.0254278
0.000165397
0.000183731
0.000178749
0.000147898
0.000172709
0.000149912
0.000149773
0.000176318
0.000220627
0.000237199
0.000199713
0.00014449
0.000167146
0.000151042
0.000148476
0.00590356
0.000147491
0.000209669
0.000167907
0.000148589
0.000145104
0.000204848
0.00994536
0.0606274
0.000149015
0.000156563
0.0281948
0.000146889
0.000328644
0.000159082
0.000158842
0.000268315
0.000144487
0.000311384
0.000148294
0.000161905
0.000148708
0.00018336
0.034567
0.000149787
0.0414645
0.000164318
0.000148208
0.000169311
0.000178981
0.0111328
0.0595613
0.00320718
0.0001487
0.000146126
0.072807
0.000164039
0.000148694
0.0001501
0.000173166
0.000225621
0.000424003
0.0766873
0.000148552
0.000152041
0.000506627
0.000147664
0.000150352
0.000229226
0.000167416
0.000153765
0.0123014
0.000149822
0.000161983
0.000256669
0.00771098
0.000145618
0.000148206
0.000147742
0.000147201
0.000165433
0.000147203
0.000164843
0.000147759
0.000152971
0.000148569
0.000151024
0.000147555
0.00014849
0.00014744
0.000147426
0.000151461
0.000170654
0.0166917
0.000147984
0.021453
0.000159319
0.0174032
0.000162562
0.000177494
0.000149364
0.018321
0.000149721
0.000147892
0.000148796
0.000145488
0.0585772
0.000152923
0.000146735
0.000169041
0.000164583
0.000147702
0.000146889
0.0533776
0.000149394
0.000147275
0.000525035
0.000147276
0.000445084
0.00894572
0.000229252
0.000153508
0.000151328
0.0407707
0.0001496
0.00014747
0.000438955
0.000149776
0.000144882
0.0118695
0.000146555
0.0371833
0.00017105
0.000179008
0.0116174
0.000149686
0.000147472
0.0357216
0.000184289
0.0214663
0.00549164
0.000147789
0.000147302
0.000149209
0.0103957
0.000162136
0.000148624
0.000149816
0.000149392
0.000162372
0.000464801
0.000155769
0.000149097
0.00014982
0.000162058
0.000253021
0.0515463
0.0320644
0.0384848
0.000162823
0.000162196
0.0372373
0.000148914
0.000146744
0.000147953
0.000147951
0.00016491
0.00014804
0.000146336
0.00688656
0.000162529
0.000168532
0.0691847
0.000163212
0.0220021
0.00014772
0.000147489
0.000147743
0.00014768
0.000149878
0.000149862
0.000147936
0.0192415
0.000149012
0.000144751
0.000691984
0.000185857
0.000146803
0.000151516
0.000164419
0.000650484
0.000151569
0.000147211
0.00943531
0.000152038
0.0265887
0.000159497
0.000147274
0.00737732
0.000185887
0.000146141
0.0702845
0.0156773
0.0491837
0.000147263
0.000147109
0.000154584
0.000196741
0.000149511
0.0251392
0.0055943
0.0162727
0.000206526
0.000145426
0.000170851
0.0372862
0.0701087
0.0527326
0.000148805
0.000155275
0.000155593
0.0505504
0.00974641
0.000249981
0.000149048
0.000147716
0.000148734
0.000162401
0.000147967
0.0277121
0.0001562
0.0550176
0.00014802
0.000149261
0.000147434
0.000157367
0.000159061
0.000246322
0.000147364
0.000189801
0.000451428
0.000161573
0.000147948
0.00015215
0.000162485
0.000149796
0.00016161
0.000167648
0.000161209
0.00018473
0.00015026
0.000146103
0.000147952
0.000149843
0.000165391
0.000153775
0.000178555
0.000147643
0.000150564
0.0172872
0.000144551
0.000157635
0.000149787
0.00018264
0.000152261
0.058537
0.00014993
0.010419
0.000154107
0.000152116
0.0376293
0.017393
0.0610466
0.000161661
0.000152612
0.000147349
0.000147709
0.00019263
0.000168332
0.000158975
0.000169644
0.0184392
0.000217992
0.000147383
0.0658484
0.0294338
0.000151876
0.000147705
0.000157636
0.0670636
0.000160724
0.000149392
0.000163749
0.00018321
0.000168756
0.000156803
0.000334445
0.000155729
0.00018766
0.0257471
0.000300927
0.00763887
0.000163822
0.000180414
0.000157529
0.000148385
0.00015197
0.000147846
0.000182581
0.000182316
0.0304724
0.00017018
0.0443375
0.00910282
0.000163183
0.000152334
0.0273822
0.0834248
0.000145101
0.000172045
0.0117447
0.0501095
0.000155979
0.000145263
0.000155618
0.000156519
0.000162269
0.000182761
0.000147508
0.00976999
0.000151568
0.000153349
0.0528404
0.000147526
0.00015927
0.0521149
0.000147499
0.000150725
0.0695692
0.000146162
0.000189966
0.000144558
0.0114793
0.000161871
0.000169678
0.000158975
0.000154259
0.000195929
0.000153142
0.0278647
0.000183371
0.000148774
0.0277864
0.000170107
0.000353859
0.0173726
0.000113413
0.000240768
0.000147632
0.000145572
0.0148859
0.000152283
0.000162193
0.000149559
0.000157672
0.0357763
0.0699859
0.000165475
0.0152202
0.000164364
0.000151763
0.00014529
0.000149483
0.000169705
0.000170353
0.00014669
0.0463275
0.000157022
0.000165271
0.000149874
0.0669935
0.0503578
0.000147943
0.000145111
0.000184545
0.000149609
0.00014614
0.0113658
0.000172074
0.000149505
0.000147682
0.000201575
0.000167728
0.000159946
0.00016385
0.00014845
0.0402835
0.000174318
0.00014894
0.000182881
0.0648772
0.000147561
0.0660853
0.000145614
0.000147518
0.000149427
0.000158686
0.0496807
0.000163801
0.0282099
0.000159278
0.0428121
0.000167484
0.000157392
0.0415428
0.000148271
0.0856564
0.00015176
0.0275543
0.0351471
0.000148994
0.000458934
0.000153888
0.000154486
0.072563
0.000166098
0.0446016
0.000146623
0.0598033
0.000147883
0.0310786
0.000149252
0.000155943
0.000161939
0.000146695
0.000145335
0.00017526
0.00869286
0.0404469
0.000147345
0.000343351
0.000157002
0.000146727
0.000148687
0.000155922
0.000197323
0.0810829
0.000162917
0.000149864
0.000155933
0.051594
0.000155824
0.000147523
0.00014671
0.000156442
0.000160084
0.0173522
0.000147453
0.000224623
0.00016287
0.0195107
0.0475572
0.00867228
0.000145054
0.000177626
0.00014749
0.00014947
0.000158659
0.0123708
0.000146691
0.000147333
0.000147317
0.084859
0.000151334
0.000148918
0.000159916
0.00016004
0.0744679
0.0242427
0.000147396
0.000147948
0.0733898
0.000148928
0.0671597
0.0397227
0.0536911
0.000174812
0.00017803
0.00557678
0.000162242
0.000149014
0.000146558
0.00014842
0.000149263
0.000148642
0.000149353
0.0782877
0.00662496
0.000149188
0.000167466
0.000146239
0.000151856
0.000164139
0.000148481
0.000153574
0.000150916
0.000191381
0.000366012
0.000172712
0.0491181
0.000162691
0.00826269
0.000170766
0.0443809
0.0730527
0.000174475
0.000431565
0.000222016
0.0174547
0.000147879
0.000147775
0.000147694
0.000156671
0.0471271
0.000146414
0.000149827
0.000181013
0.000146681
0.000162858
0.000162155
0.000149396
0.00419566
0.000148605
0.00014796
0.000203638
0.000145916
0.000193484
0.000187383
0.000148782
0.000151686
0.000146714
0.000165504
0.00014666
0.000151984
0.000147592
0.000147973
0.0741814
0.00014891
0.0768092
0.000155078
0.000192589
0.000147612
0.000182185
0.000163722
0.000149063
0.000148818
0.0776927
0.00014771
0.0173515
0.019799
0.000150452
0.000148635
0.000148431
0.000145116
0.0121138
0.000147665
0.0802477
0.00813798
0.000165416
0.0383655
0.000147154
0.000147355
0.0616598
0.0687259
0.000152716
0.000147913
0.000147737
0.000146491
0.000152601
0.000161566
0.000225063
0.000153851
0.0240378
0.000354183
0.00834385
0.000158122
0.000147938
0.026984
0.0222398
0.000160035
0.000147637
0.00014873
0.0792838
0.000148006
0.0119167
0.000165019
0.000149656
0.000156002
0.000145981
0.000162655
0.00015593
0.000146699
0.000144583
0.000152297
0.033835
0.000149434
0.000177633
0.0347516
0.000148621
0.000147281
0.000161581
0.0224766
0.000161529
0.0651509
0.000149672
0.000145055
0.000151405
0.0226708
0.000184303
0.000290885
0.000147809
0.000157133
0.00014829
0.0607646
0.000146106
0.00398171
0.000162205
0.0138292
0.000149209
0.000147285
0.00017781
0.000147598
0.0292463
0.000148754
0.000395597
0.000149681
0.000146455
0.000152274
0.000211255
0.0225569
0.000155355
0.000149954
0.000149713
0.00014874
0.00014667
0.000149861
0.000188172
0.000149606
0.046077
0.000152185
0.0627756
0.000148163
0.00014525
0.000153315
0.0685603
0.0614795
0.000149958
0.0325865
0.000148301
0.00793957
0.000149881
0.000199445
0.0001471
0.0510117
0.000147265
0.000155871
0.000148241
0.000147538
0.000149721
0.0566712
0.00156126
0.0360488
0.000158258
0.000156802
0.000153567
0.000147785
0.000145643
0.000146166
0.00015152
0.000192064
0.000149076
0.0157547
0.000184057
0.000147891
0.000149903
0.00825765
0.000192715
0.000151468
0.000153408
0.000158651
0.0228879
0.000176116
0.0851632
0.000177589
0.000183156
0.000173305
0.000147975
0.000147366
0.000181372
0.000161126
0.00014801
0.010311
0.000156339
0.0176928
0.000149649
0.00018188
0.000158263
0.000173656
0.000155704
0.000148306
7.16877e-05
0.000148297
0.0146807
0.000148299
0.000148269
0.0628153
0.000162067
0.000158099
0.0748244
0.000147528
0.000167265
0.0251141
0.000147683
0.000168443
0.0294361
0.000150789
0.000147432
0.000148337
0.000153703
0.000153097
0.000183768
0.0429387
0.000152614
0.000155133
0.0312892
0.000145488
0.00797569
0.000154988
0.000151792
0.000276503
0.0108353
0.000146087
0.000147262
0.000152739
0.000146211
0.000145749
0.076923
0.000149786
0.000158415
0.00014518
0.000163547
0.00014611
0.000170412
0.000216482
0.000151696
0.0490387
0.000147407
0.000152354
0.000147754
0.0457224
0.00015647
0.000146905
0.000147879
0.000148928
0.000147377
0.000189476
0.0540377
0.0228837
0.0437758
0.000149158
0.000149623
0.000183267
0.000148879
0.000146158
0.000248863
0.0470287
0.000152151
0.000148212
0.0311853
0.000149461
0.000149172
0.0389228
0.000184768
0.0149046
0.000151117
0.000147901
0.042122
0.000148948
0.000157795
0.000149435
0.000160869
0.000148011
0.000177632
0.000198596
0.000170221
0.000148579
0.0449086
0.000150275
0.000146936
0.000149217
0.000148319
0.000147594
0.000148767
0.0371852
0.000149738
0.0177142
0.000149297
0.000158815
0.0720711
0.000146484
0.000188089
0.00015126
0.000146422
0.000151749
0.000183397
0.000148172
0.000147411
0.000148756
0.000147987
0.00017654
0.000145843
0.000149748
0.000156454
0.000148527
0.000159019
0.0124321
0.0407333
0.00534639
0.0693542
0.000189244
0.000173486
0.0880034
0.045712
0.000148612
0.00014925
0.000145458
0.000171828
0.0367512
0.000161344
0.000154358
0.000145256
0.000147784
0.000148975
0.000152054
0.0362957
0.053086
0.00939706
0.000178936
0.000148599
0.000149534
0.000148961
0.0308208
0.000949921
0.000147739
0.000343472
0.000145703
0.000161522
0.000152281
0.000162786
0.000160955
0.000266867
0.000151271
0.000170745
0.000145955
0.000147157
0.000173891
0.000147388
0.000148294
0.000176699
0.000217804
0.000148768
0.000166681
0.000147392
0.00014799
0.00014657
0.000147786
0.0324816
0.000157763
0.000151157
0.000148825
0.0467302
0.000172745
0.000148418
0.000157624
0.000160663
0.019735
0.00021995
0.0606401
0.000200675
0.000178717
0.00019366
0.000199449
0.000170434
0.0342933
0.000145071
0.000147307
0.000147503
0.000172776
0.000149057
0.0231359
0.000147383
0.000148987
0.0646701
0.000172977
0.000149624
0.00016613
0.000147529
0.000150829
0.000271344
0.000184849
0.000147553
0.000215548
0.000185815
0.0130006
0.0566389
0.00014797
0.0345304
0.000147351
0.000167629
0.000146935
0.000146756
0.0365998
0.000161919
0.000152059
0.000147778
0.0447133
0.000153873
0.0227106
0.04493
0.000149734
0.000145909
0.00015284
0.0363951
0.000182236
0.000169306
0.000158833
0.000219721
0.00014799
0.000149921
0.000147887
0.000148133
0.000151089
0.000163171
0.084703
0.000178662
0.000192783
0.0293676
0.000147875
0.0144291
0.000185671
0.00016234
0.000149219
0.000147866
0.00014733
0.000147259
0.000147444
0.00929847
0.000183182
0.0623378
0.00017864
0.000186963
0.000149176
0.00018789
0.0573581
0.00016151
0.000155183
0.00014687
0.06628
0.03709
0.000176063
0.000193403
0.000148082
0.0122401
0.000150548
0.000152766
0.000168324
0.000169105
0.000146055
0.000182777
0.0496377
0.000149837
0.0142476
0.0546709
0.0753278
0.00919131
0.000162579
0.000305541
0.000163958
0.000162768
0.0412377
0.000147428
0.000159099
0.000147067
0.000149645
0.0481428
0.000152285
0.078142
0.000145931
0.000148816
0.0414101
0.000147807
0.0677775
0.000150705
0.000187988
0.000151823
0.000149165
0.0770592
0.000155405
0.00018094
0.000146975
0.000147338
0.000219971
0.000176488
0.000148322
0.00015602
0.000249565
0.000178745
0.000344385
0.000149722
0.000147571
0.000144681
0.000147536
0.000156967
0.000164368
0.000145443
0.0589789
0.00014724
0.000148209
0.000171287
0.0363981
0.000177837
0.000159444
0.000146242
0.000151113
0.000181083
0.00030667
0.000254777
0.0411864
0.000157448
0.000162902
0.00022326
0.000148441
0.000168548
0.0461964
0.00014742
0.000210845
0.034187
0.000257571
0.000263407
0.0705345
0.000183977
0.000148704
0.00377101
0.000155111
0.000170436
0.000181236
0.000147657
0.000188233
0.000147576
0.000148053
0.000173753
0.0114771
0.000159186
0.00014745
0.00016424
0.0318983
0.000166823
0.0147323
0.000147544
0.0333666
0.000146145
0.000170184
0.000184811
0.000147741
0.0267341
0.000147747
0.000146735
0.000148559
0.00014817
0.0738595
0.000184785
0.000149655
0.0654003
0.000148456
0.0164985
0.00014609
0.0196936
0.000161933
0.000184917
0.000152919
0.000147763
0.00014579
0.000148482
0.00022705
0.000174974
0.00014876
0.000169738
0.0149887
0.0766276
0.000170531
0.0445981
0.0539579
0.000147783
0.0272765
0.000146414
0.000218972
0.000147916
0.000148604
0.000149071
0.000176244
0.0245379
0.000220403
0.000182
0.0468203
0.000185702
0.000183894
0.0428346
0.000147002
0.000172437
0.0152811
0.000144754
0.000173453
0.0335937
0.000211318
0.000147391
0.0440408
0.000165448
0.0253184
0.00873818
0.000156601
0.000181771
0.000154867
0.000147669
0.000145088
0.0265694
0.000198506
0.000180224
0.000197139
0.000147204
0.0145016
0.000159303
0.000144393
0.000149783
0.000178025
0.000153149
0.000149386
0.000149778
0.000254431
0.000147147
0.000163473
0.0217151
0.000145731
0.000147118
0.00457628
0.000146799
0.000161379
0.000158589
0.000178142
0.000318531
0.000147735
0.000178733
0.000159063
0.000169187
0.000157014
0.000153892
0.000167603
0.000213984
0.000170099
0.0409496
0.000166767
0.000148937
0.000220687
0.0459649
0.00018314
0.000146331
0.000148274
0.000171924
0.000152585
0.0663618
0.000201673
0.000158465
0.0233192
0.000152039
0.000203373
0.0419048
0.000148164
0.000148748
0.000148377
0.000147777
0.0025408
0.000241378
0.000155197
0.000203311
0.000242084
0.000168487
0.000148806
0.000153441
0.000170986
0.000147471
0.000146979
0.00180993
0.000151225
0.000506351
0.000146672
0.000147846
0.000149798
0.000168041
0.00016125
0.000166416
0.0001488
0.000151518
0.0780681
0.0179354
0.000359055
0.000212282
0.00015392
0.000150173
0.0816968
0.000183201
0.0104007
0.000162902
0.00014731
0.000172319
0.000155334
0.000149818
0.000146408
0.000167736
0.000183627
0.0476707
0.000181924
0.000260155
0.000149119
0.000150962
0.000148595
0.000194322
0.0191569
0.000216268
0.000405236
0.000147334
0.0525881
0.000151466
0.00014765
0.000152792
0.00014895
0.000193966
0.000147849
0.000185284
0.000145706
0.000384259
0.000157949
0.0233515
0.000150062
0.000148806
0.000155376
0.000146049
0.00018713
0.000437432
0.0799333
0.000172254
0.000145524
0.0829567
0.000163771
0.00014767
0.000167794
0.00014701
0.000153059
0.00014463
0.000186948
0.00015386
0.000177951
0.00017233
0.000146771
0.0694866
0.000145523
0.000155514
0.000149519
0.000152619
0.000146099
0.000148129
0.000160994
0.000149867
0.000154277
0.000145878
0.00015254
0.00029792
0.0329854
0.000149825
0.000170789
0.0726796
0.000147247
0.000148964
0.000158495
0.000194034
0.000148194
0.000175259
0.0132345
0.000151106
0.0652899
0.030443
0.000147778
0.000150172
0.0001667
0.000144264
0.00429905
0.047491
0.0426653
0.000151489
0.000159179
0.00014482
0.000305794
0.000156278
0.000190747
0.000149585
0.000179212
0.0131916
0.000183886
0.000152787
0.00785373
0.0152432
0.0512844
0.000149657
0.000146695
0.055443
0.000349123
0.000146614
0.000148574
0.000187499
0.000150064
0.000220167
0.000297875
0.000146167
0.000150164
0.0168529
0.000181286
0.00015094
0.00014432
0.000164769
0.000149324
0.000224751
0.000147205
0.000148977
0.000148128
0.000152618
0.000148363
0.000183248
0.00014708
0.000154587
0.0468017
0.031388
0.0303091
0.000147179
0.000168876
0.000183392
0.000148645
0.000153229
0.000168825
0.000147184
0.000152299
0.0327404
0.000164297
0.000147825
0.000148242
0.000147742
0.014202
0.063964
0.000146907
0.000149669
0.000147756
0.000177446
0.0323759
0.000151876
0.000174043
0.000148865
0.000165456
0.000158899
0.000243233
0.00823709
0.000149467
0.000243727
0.0739849
0.000163256
0.000147732
0.000163492
0.000158961
0.000162227
0.000155431
0.000147878
0.000191717
0.000155502
0.000266803
0.000161696
0.000149193
0.00014956
0.0458668
0.000148862
0.000160554
0.000216974
0.000161114
0.0881979
0.0281866
0.00014762
0.000182342
0.000158692
0.000182559
0.000162346
0.000152257
0.000148355
0.0193395
0.000161473
0.000148014
0.000167697
0.000180464
0.000314889
0.0472209
0.000148332
0.000155786
0.000149156
0.000220239
0.000235321
0.000149183
0.000172435
0.000154491
0.000151405
0.000149189
0.0156308
0.000178091
0.000147807
0.000152689
0.0439503
0.000149717
0.00014793
0.000156579
0.000165316
0.000147983
0.000148988
0.000152397
0.0113798
0.000159709
0.000147693
0.000146825
0.000148595
0.000171315
0.000147894
0.000147501
0.000269272
0.0852123
0.000147605
0.000149741
0.000177134
0.00016128
0.000169095
0.000149059
0.0172085
0.000147168
0.000150713
0.000159511
0.0831373
0.0230308
0.000191114
0.000169616
0.0566257
0.0196595
0.0287533
0.0325715
0.000153314
0.000147804
0.000146147
0.000161401
0.000147327
0.000147771
0.000149005
0.000176593
0.000147639
0.0315527
0.000161736
0.0684483
0.000148448
0.0613055
0.00014809
0.000156917
0.000145919
0.000151024
0.000160757
0.000251491
0.000149194
0.000146856
0.000154048
0.0654307
0.000147224
0.000168508
0.000149226
0.000162705
0.0120128
0.000178306
0.000479987
0.00015836
0.000216655
0.000149007
0.0477332
0.0115151
0.000147012
0.0728966
0.0226183
0.000147562
0.000144925
0.000167779
0.000160292
0.000166976
0.000145813
0.0323784
0.000158031
0.000172536
0.000145778
0.000147528
0.000157602
0.0174261
0.00935174
0.0120999
0.000168363
0.0206192
0.000160599
0.0261973
0.000148446
0.000346949
0.000147662
0.00015583
0.00066053
0.000151207
0.000204296
0.000147558
0.000153363
0.0518419
0.0210499
0.000147596
0.000108357
0.000147873
0.0759158
0.000146591
0.0737025
0.0236122
0.000147879
0.0330536
0.000156633
0.0422895
0.000147929
0.000155276
0.000150736
0.000172994
0.000148017
0.000224021
0.000146511
0.0649974
0.000185276
0.0679723
0.000148973
0.000145947
0.000277888
0.000152139
0.000157488
0.000147408
0.000166859
0.000153435
0.000147987
0.0159429
0.000148471
0.000147457
0.000149537
0.000148799
0.0417153
0.000162755
0.000147513
0.0412258
0.000425562
0.000197013
0.000147397
0.000178586
0.000456991
0.000147776
0.000156172
0.000149793
0.000148233
0.000147509
0.00014815
0.000156508
0.000159785
0.0583853
0.000185392
0.000180884
0.000149836
0.000147571
0.0464246
0.000166243
0.000147367
0.000149778
0.0318233
0.0725146
0.00014806
0.0642277
0.000160984
0.000197734
0.000149842
0.0554215
0.000146147
0.000152002
0.000148565
0.000147036
0.000151614
0.0374249
0.000146161
0.0619959
0.000200369
0.000333819
0.0134276
0.000148581
0.000148205
0.0432472
0.000166683
0.000167277
0.000147851
0.000192576
0.000149281
0.0714732
0.0418863
0.0379393
0.000148487
0.0693868
0.0492613
0.0590427
0.000195145
0.000153819
0.000179736
0.000147511
0.000259173
0.0716548
0.000160531
0.0432495
0.000146577
0.000148208
0.000167841
0.015283
0.000161984
0.00025903
0.000147761
0.0678279
0.00016898
0.000163045
0.000146628
0.000164025
0.000182327
0.000148185
0.000168082
0.000167482
0.000225493
0.000145994
0.000147185
0.0528191
0.0449538
0.000152319
0.033591
0.000160798
0.000147872
0.0612663
0.0244871
0.000148563
0.000237708
0.00014601
0.000148581
0.000172556
0.0512855
0.000149529
0.0272124
0.000151954
0.000147675
0.0153051
0.000149324
0.000181558
0.000146839
0.000328103
0.000148114
0.0163681
0.000146959
0.000163303
0.000148291
0.000155432
0.000178142
0.0737358
0.00016221
0.0526903
0.000160168
0.0591237
0.081239
0.0386198
0.000146993
0.0218002
0.079009
0.0143212
0.000247398
0.000149717
0.000146872
0.000148452
0.00016252
0.000147784
0.000148944
0.000285592
0.000149569
0.0314557
0.000151156
0.0372188
0.00014797
0.000149491
0.000193526
0.000145244
0.000176668
0.000147271
0.000167734
0.000181026
0.0194694
0.000146568
0.000147484
0.0768239
0.0604706
0.000149595
0.000159428
0.000164322
0.00015026
0.00789985
0.0464507
0.0748544
0.000194543
0.0278604
0.00943406
0.000219889
0.000147127
0.000146428
0.000150752
0.000147444
0.000158562
0.0257725
0.0623785
0.000148492
0.000152552
0.000151194
0.00566872
0.0838712
0.000364899
0.000363867
0.00014857
0.00034745
0.0574565
0.000154755
0.0477131
0.000173432
0.000148931
0.0751137
0.0358854
0.0105299
0.000149321
0.000151079
0.000166895
0.000250872
0.000147115
0.000148478
0.00014958
0.000146678
0.000148202
0.0636673
0.00015238
0.00014579
0.0214303
0.000148603
0.0411599
0.000167964
0.0412687
0.000253562
0.000147702
0.0807182
0.000172883
0.000221111
0.000150492
0.00015957
0.00014799
0.000150819
0.017217
0.00020242
0.000174101
0.000150237
0.000147382
0.00017283
0.000151782
0.000148341
0.000155226
0.000147435
0.0548839
0.000147842
0.0337466
0.0269794
0.000151403
0.000147721
0.0305582
0.000146978
0.000147068
0.000224882
0.000153366
0.000152331
0.000177207
0.000287533
0.0747294
0.000159841
0.000151555
0.000149475
0.0510331
0.0188908
0.000160858
0.000166482
0.000147323
0.000147877
0.000152724
0.000146792
0.000186243
0.000160951
0.000148319
0.000149313
0.000148542
0.000147571
0.000148014
0.000147296
0.000326455
0.0335958
0.0728583
0.000203503
0.001976
0.000186131
0.000153793
0.0247475
0.0351952
0.00481292
0.000148525
0.000147261
0.00045586
0.00614264
0.000203243
0.000198284
0.0786066
0.000148536
0.000147557
0.0480966
0.00014677
0.000201269
0.000193512
0.000150669
0.0132027
0.0467245
0.000149715
0.0157365
0.0303859
0.000173527
0.000208891
0.000149066
0.0138604
0.000245986
0.0739168
0.000146814
0.000164483
0.0172364
0.000147269
0.000169417
0.000147694
0.000171827
0.000148747
0.0287028
0.000137383
0.000148304
0.000152354
0.000149587
0.0368979
0.000169011
0.000148896
0.000149102
0.0336373
0.000147533
0.000152349
0.000175783
0.000189635
0.000150042
0.000166756
0.000162153
0.000147525
0.000201527
0.000148156
0.000147731
0.000158468
0.000147686
0.000162972
0.0659818
0.000223851
0.000147989
0.0593064
0.0136394
0.000185301
0.0141406
0.000169803
0.000153048
0.0424528
0.000157909
0.000152367
0.000166523
0.000169469
0.00014844
0.000146719
0.000148633
0.000207223
0.0386589
0.0745193
0.0623425
0.000146603
0.000154217
0.00017562
0.000176446
0.0458437
0.00014882
0.0467466
0.000149647
0.0195897
0.000145848
0.042393
0.000150265
0.0630369
0.0293374
0.000185872
0.0552202
0.000164139
0.000146723
0.000166988
0.011385
0.0614951
0.000156604
0.000149476
0.000147531
0.000148728
0.000159575
0.000149905
0.000151944
0.000146741
0.000177179
0.00014803
0.0719996
0.000149445
0.046434
0.000146043
0.000204488
0.0619344
0.000150877
0.00206452
0.000148011
0.000156643
0.000149037
0.000149273
0.000147693
0.000183507
0.000184897
0.000147021
0.00015249
0.000147941
0.0481857
0.000161586
0.000216436
0.000216553
0.000148049
0.000173913
0.00015137
0.000150775
0.000161645
0.000148618
0.000166973
0.0687972
0.000148112
0.0636514
0.000155638
0.000147391
0.000146218
0.0267359
0.000147957
0.0754832
0.000177026
0.000149773
0.0136604
0.00018983
0.0208492
0.000157107
0.000153931
0.000148594
0.000174428
0.0453816
0.000148823
0.000166186
0.000148533
0.000189579
0.000369166
0.0194264
0.0683261
0.0429905
0.000157632
0.0168343
0.00014901
0.0484627
0.000213453
0.000156999
0.000230945
0.000180974
0.000145184
0.000162861
0.000148007
0.00014688
0.000152874
0.0001478
0.00158205
0.000260982
0.000203737
0.00586114
0.000148389
0.00218472
0.000148327
0.000147712
0.000169175
0.0591553
0.000146986
0.0366297
0.000168209
0.000192684
0.0214455
0.00014953
0.000168676
0.0310816
0.00016218
0.000148258
0.000189798
0.000147907
0.000148766
0.000149574
0.000272192
0.0585983
0.000155035
0.000148585
0.0355589
0.0689333
0.00014928
0.000149534
0.00443522
0.0858851
0.000149323
0.000182769
0.000182411
0.000147214
0.000162646
0.000145999
0.0381879
0.000147746
0.0874105
0.0713758
0.0688983
0.000153902
0.000157744
0.000147652
0.000146545
0.0148724
0.000146891
0.0290207
0.0561041
0.000173913
0.000146794
0.000146236
0.000207843
0.00018639
0.000162567
0.0940743
0.000181649
0.0060763
0.000151824
0.0550646
0.000315173
0.000158273
0.000185058
0.0796291
0.0301547
0.000148466
0.00599446
0.000146256
0.00132735
0.000233318
0.000223689
0.000145518
0.000166604
0.000148619
0.000243561
0.0432635
0.000151381
0.000150801
0.0859409
0.0409656
0.000148265
0.0481058
0.0145502
0.00308173
0.000149386
0.0777046
0.000148931
0.0105261
0.000148664
0.000151304
0.000149316
0.000148105
0.0290865
0.000236187
0.000146392
0.0395965
0.0190784
0.000144627
0.000146199
0.000161589
0.000165694
0.00018984
0.000167368
0.0277279
0.0500694
0.0517495
0.0769129
0.000190102
0.000150977
0.000203629
0.000181726
0.0186281
0.00985401
0.0338606
0.000191286
0.000176349
0.000153581
0.0181142
0.000169101
0.000184751
0.000149165
0.00015443
0.05798
0.000148544
0.000157637
0.000195066
0.000152989
0.000169596
0.000148247
0.000151489
0.0695507
0.000183681
0.000146044
0.000154333
0.0427988
0.00023951
0.000163185
0.000288877
0.0153826
0.000168112
0.000213773
0.0413628
0.000150006
0.0464058
0.000191658
0.0168028
0.000148882
0.000144278
0.0176234
0.0273774
0.0314256
0.0759782
0.0444716
0.000161688
0.00018475
0.000152378
0.0351264
0.000148053
0.00014806
0.000172091
0.000179771
0.000177298
0.0300539
0.000150626
0.000481794
0.0423295
0.000150443
0.00018833
0.000159562
0.00017708
0.000184763
0.000168795
0.0381227
0.0393641
0.0356765
0.000296969
0.000162267
0.000147896
0.000150923
0.000158906
0.000568646
0.0304306
0.035697
0.0294869
0.000163401
0.000146779
0.000233676
0.000167791
0.0588274
0.000148553
0.0154739
0.000168854
0.0370418
0.000148518
0.00658619
0.000174598
0.000182043
0.0032215
0.000146892
0.0238289
0.0313372
0.000146747
0.000180025
0.0510991
0.000150087
0.000262546
0.000152895
0.000151542
0.000149697
0.0531934
0.000169605
0.000248247
0.000160619
0.0691848
0.000146733
0.000144501
0.000147194
0.000148295
0.000147554
0.091592
0.000184701
0.0428038
0.000149353
0.00014696
0.0731583
0.000160281
0.0430016
0.000189827
0.000148694
0.000234059
0.000157102
0.000168311
0.0399744
0.000158144
0.0201647
0.000208566
0.000155477
0.000145362