/*--------------------------------*- C++ -*----------------------------------*\
| =========                 |                                                 |
| \\      /  F ield         | OpenFOAM: The Open Source CFD Toolbox           |
|  \\    /   O peration     | Version:  v2012                                 |
|   \\  /    A nd           | Website:  www.openfoam.com                      |
|    \\/     M anipulation  |                                                 |
\*---------------------------------------------------------------------------*/
FoamFile
{
    version     2.0;
    format      ascii;
    class       volVectorField;
    location    "950";
    object      U;
}
// * * * * * * * * * * * * * * * * * * * * * * * * * * * * * * * * * * * * * //

dimensions      [0 1 -1 0 0 0 0];


internalField   nonuniform List<vector> 
18355
(
(1.09116 0.085422 0)
(0.206641 -0.0246706 -2.23559e-20)
(1.00267 0.020989 1.75721e-21)
(1.01483 0.00554487 0)
(1.04592 -0.00174284 -2.40533e-21)
(1.11098 -0.0479061 -6.00624e-21)
(1.00343 0.00716247 -2.60237e-21)
(1.14941 0.0258978 -5.01495e-20)
(0.939968 -0.0112855 0)
(0.0550969 -0.0263857 0)
(1.02248 0.000949975 -2.94684e-21)
(-0.28739 0.00854924 1.40163e-19)
(1.1913 0.0156056 6.84525e-20)
(0.987165 0.00425888 0)
(1.02349 0.0360752 -2.21386e-21)
(0.983898 0.0686672 -5.58857e-21)
(-0.236577 0.0138743 -2.15134e-19)
(1.01485 0.0108543 0)
(1.00289 0.0349025 0)
(0.552256 -0.123355 1.44947e-20)
(0.963995 0.0848028 0)
(0.973543 0.031158 5.48719e-21)
(0.038342 -0.0596025 1.91993e-21)
(1.04529 -0.00223545 0)
(1.05854 -0.0139121 0)
(0.99909 0.00213385 -2.82669e-21)
(0.996277 -0.00135125 -9.42438e-21)
(0.943084 0.00156532 -2.67658e-20)
(-0.0570762 -0.187758 -2.73598e-20)
(0.99244 0.0225753 -1.29401e-20)
(1.03831 -0.00372087 -1.90288e-22)
(1.05296 -0.00452057 -1.7289e-22)
(1.01465 0.0104123 -6.74477e-22)
(1.00962 0.000584299 4.65066e-22)
(1.12579 0.13491 0)
(1.09507 0.0855674 5.49339e-21)
(0.955994 -0.00736526 1.6975e-20)
(1.15883 0.269656 6.09927e-20)
(0.944736 0.00281368 1.40139e-20)
(1.02303 0.00148709 0)
(0.986593 0.00401368 -1.35275e-21)
(0.930392 0.309384 -2.11823e-20)
(1.00255 0.0216139 0)
(-0.0495572 -0.0165083 3.2904e-20)
(1.01515 2.16241e-05 1.07558e-21)
(1.16847 0.269676 -8.89794e-20)
(1.13988 0.0795562 -5.20465e-20)
(0.934466 0.0211648 0)
(1.12729 0.0805048 -3.7432e-20)
(1.01423 0.0117612 0)
(1.01982 0.00296142 -1.13642e-21)
(1.01539 0.0224842 4.445e-24)
(0.999986 0.000346193 0)
(0.335604 -0.0899688 2.62023e-22)
(0.999997 0.00499704 0)
(1.00149 0.00026147 2.0758e-21)
(1.06646 -0.0447576 5.72362e-21)
(1.02324 0.0369716 5.77323e-22)
(0.114902 0.435062 -1.02055e-19)
(1.2094 0.14961 -6.23001e-20)
(1.01382 0.0117715 4.18237e-23)
(1.12824 -0.0224938 -4.39462e-20)
(1.01594 0.0102357 -1.9919e-22)
(1.00641 0.191478 -2.50893e-22)
(-0.272064 0.00840813 -1.27509e-19)
(1.08913 0.0818047 0)
(-0.025153 0.00590951 4.15761e-20)
(0.855403 0.0467622 -4.3154e-20)
(0.996566 -0.00142145 -7.76822e-21)
(0.975089 0.0314007 1.41584e-20)
(1.15232 0.107003 -5.15944e-20)
(1.00006 0.000368442 0)
(1.21419 0.15405 -7.69454e-20)
(1.01076 0.011241 -6.16324e-22)
(1.14956 0.0296925 0)
(1.00359 0.00739951 4.9415e-21)
(0.757092 -0.143378 0)
(1.05327 -0.00195908 0)
(1.06819 -0.0157756 7.9448e-21)
(1.01495 0.0196883 0)
(1.00314 0.00702027 -2.46583e-21)
(1.2104 0.353133 -1.84353e-20)
(0.966056 0.0825818 0)
(1.05361 0.182372 -3.56272e-21)
(0.99896 0.00224571 5.18314e-21)
(1.18773 0.0169423 0)
(0.389081 -0.105743 1.83017e-20)
(0.55023 -0.124273 0)
(-0.0682995 -0.174207 3.96053e-20)
(0.272544 -0.0966201 2.66018e-20)
(1.15783 -0.122699 3.33671e-20)
(1.0153 -1.08322e-05 -4.12908e-22)
(0.999596 0.00408421 -2.25347e-21)
(1.01909 0.000738205 3.75482e-21)
(-0.00963538 -0.117562 0)
(-0.00154777 -0.0533706 3.40385e-20)
(1.02465 0.0170878 -1.19391e-21)
(1.0716 0.00504642 2.44454e-22)
(0.297474 -0.0827484 -2.02645e-22)
(-0.181751 0.0160713 0)
(-0.0363097 -0.0641967 -8.53761e-21)
(-0.201036 0.0132941 0)
(1.0888 0.140881 2.99953e-20)
(1.15251 -0.168384 2.43165e-20)
(1.04632 -0.00647127 -4.85622e-21)
(1.15461 -0.0467063 4.29684e-20)
(-0.325931 0.00689581 -4.45869e-21)
(1.10596 0.302793 -4.93585e-20)
(1.09819 0.0299902 1.98002e-20)
(0.489903 -0.328361 -1.03226e-19)
(0.996897 0.022225 5.78208e-21)
(0.95052 0.0137136 -9.36886e-21)
(0.99887 0.00144114 7.99681e-21)
(0.94834 0.0129793 1.0296e-20)
(0.353403 -0.0693013 2.16297e-20)
(1.0026 0.000830157 -4.0524e-22)
(0.0692181 -0.32498 -9.17811e-20)
(0.751988 -0.142663 -2.58667e-20)
(0.0744931 0.326946 0)
(1.08438 0.145268 -2.18358e-20)
(0.0576403 -0.0315428 1.1065e-20)
(1.34832 0.149804 1.2138e-20)
(1.05261 -0.00259531 -6.88385e-21)
(1.15167 0.11045 1.92037e-20)
(1.02399 0.0171952 3.39628e-21)
(1.10615 0.313479 -3.05705e-20)
(1.0158 0.0219441 -1.41794e-22)
(1 0.000731037 3.75392e-21)
(1.32542 0.261042 5.46855e-20)
(1.01882 0.000808586 -2.68282e-21)
(1.0198 0.00322986 2.38176e-21)
(1.18749 -0.120487 -6.06879e-20)
(1.12129 -0.00091233 -1.01855e-20)
(1.07056 0.00419202 0)
(0.906386 0.181943 0)
(1 0.000824645 -9.47806e-22)
(1.02058 0.0288417 0)
(1.02255 0.000711364 0)
(0.991229 0.0133907 0)
(1.14769 0.177947 -1.1482e-20)
(-0.0449483 -0.089077 0)
(-0.0703333 -0.18104 0)
(0.996069 0.0463081 0)
(0.996516 0.0214846 1.81265e-21)
(0.379052 0.0110134 8.60523e-20)
(0.973716 0.0276189 -1.67723e-20)
(0.910076 -0.00188435 2.18185e-20)
(0.365387 -0.153568 0)
(1.06084 0.0138879 0)
(0.347944 -0.175332 0)
(1.04469 0.00368116 -4.6334e-21)
(0.973013 0.0287789 -2.3936e-20)
(1.12096 0.132796 0)
(0.108448 0.387938 -2.7322e-19)
(1.08736 -0.0469518 -2.70621e-20)
(1.00003 0.00040237 1.75697e-21)
(1.20404 -0.124793 -4.24895e-20)
(0.0831053 0.296072 -5.1054e-20)
(1.00004 0.000409482 7.70286e-22)
(1.13458 -0.0233239 4.68489e-20)
(1.0062 0.10299 -2.70624e-21)
(1.04633 0.0642644 0)
(0.90418 0.0882479 0)
(1.0716 0.00243181 -1.68796e-20)
(1.06243 -0.0760162 1.26663e-20)
(0.496662 0.651353 -3.97506e-20)
(0.172743 0.0488743 -4.39323e-20)
(1.1172 0.0918397 -2.15609e-20)
(1.24512 0.00172048 2.96817e-21)
(1.01293 0.0114266 -3.1674e-22)
(-0.018519 -0.216061 -3.16068e-20)
(-0.0486715 -0.0454044 -3.51049e-20)
(1.02136 0.00148198 5.09867e-24)
(1.02216 0.00149795 -2.45182e-21)
(0.98664 0.068081 9.34907e-21)
(0.262318 -0.0135961 -2.93233e-22)
(1.0797 -0.0359523 0)
(0.99993 0.00437951 -5.06203e-21)
(1.33169 0.261123 -4.63303e-20)
(0.436083 0.20529 2.45833e-20)
(0.669339 -0.128084 0)
(1.2436 -0.00257981 5.26712e-20)
(1.08177 0.0130841 3.52637e-22)
(1.00495 0.00662222 0)
(1.07614 -0.0925733 -1.95357e-20)
(0.289912 -0.016361 3.27712e-20)
(0.204856 -0.0925012 0)
(1.16499 -0.0951601 -6.27478e-20)
(0.938438 0.0013133 -3.50608e-20)
(-0.254381 0.0120988 1.46481e-19)
(1.06718 -0.0436584 1.48758e-21)
(1.00294 0.0230359 0)
(1.07072 0.00164191 1.61453e-20)
(1.11264 -0.168827 2.507e-20)
(0.88502 0.202402 0)
(0.975345 0.0343699 -2.14777e-21)
(1.27244 -0.0197511 2.14688e-20)
(1.08068 0.0119507 0)
(1.10487 -0.00088735 0)
(1.02189 0.00166718 3.46458e-21)
(1.05267 0.0193917 -4.07571e-21)
(0.940223 0.0413385 -1.24183e-20)
(0.135441 0.0646406 0)
(0.156107 -0.0838317 -2.61678e-20)
(-0.38581 0.00655537 0)
(0.991049 0.113521 0)
(0.0859184 -0.290564 0)
(-0.0741045 0.0186139 -1.76133e-22)
(-0.0757409 0.0142073 -9.93784e-20)
(1.10307 -0.00220437 0)
(1.01988 0.0296027 0)
(1.04384 0.00402254 0)
(0.500159 -0.132493 6.21872e-21)
(0.996447 0.0446784 0)
(1.0125 0.0111189 2.8391e-22)
(1.21098 0.342975 -3.45198e-20)
(0.912761 -0.0954809 7.8222e-21)
(0.503879 -0.130448 7.39769e-21)
(0.998962 0.00126726 1.47672e-21)
(1.0596 0.0142201 2.55453e-21)
(1.2486 0.253026 2.44644e-22)
(0.992685 0.0146635 -2.85065e-21)
(1.04815 0.179208 1.66212e-20)
(1.02058 0.0281483 8.25377e-22)
(0.0926535 0.0408848 2.48507e-20)
(0.983227 0.0332665 0)
(-0.101787 0.0147289 5.42272e-20)
(0.336953 -0.02497 3.53275e-20)
(0.547846 -0.0099954 6.90805e-20)
(1.01898 0.029531 -3.38537e-22)
(0.999987 0.000432287 0)
(1.06689 -0.0153476 -7.04634e-21)
(1.02644 0.0914905 -2.14418e-21)
(-0.0735042 0.0167138 8.94585e-20)
(1.0124 0.0565548 0)
(0.999197 0.00263412 -5.65421e-21)
(0.999882 0.00414128 7.18385e-21)
(1.13556 0.313209 2.814e-20)
(1.12197 -0.140627 3.2693e-20)
(-0.27555 0.00904121 0)
(1.09567 0.0295949 -3.06175e-20)
(1.24876 0.0135849 8.12998e-20)
(1.03879 -0.00486024 7.30492e-21)
(1.012 0.0116333 0)
(0.980238 0.0335069 1.07114e-20)
(0.315392 -0.0140187 -2.9412e-20)
(1.23539 0.119814 2.49735e-20)
(0.0677645 -0.124604 8.41884e-20)
(1.0861 -0.0460521 3.04957e-20)
(1.00819 0.09991 9.98506e-22)
(1.0522 0.0203937 1.24418e-20)
(0.207208 0.796985 0)
(1.08208 0.00991321 6.30083e-21)
(-0.0428071 0.0159544 5.99679e-20)
(0.98833 0.0330618 1.15886e-20)
(-0.194055 0.0139742 0)
(0.722505 -0.111129 -1.28861e-20)
(1.1369 -0.0211238 -2.59943e-20)
(0.997695 0.0268836 6.96461e-21)
(1.0057 0.000401061 -2.48383e-22)
(1.08523 0.0819894 0)
(1.16215 0.103859 -2.1492e-20)
(0.261916 0.104249 5.58114e-21)
(1.12399 -0.00130713 5.40392e-20)
(1.00784 0.00631257 0)
(1.01203 0.0102316 0)
(0.99998 0.000535075 0)
(1.25209 0.00280307 0)
(1.07107 0.260911 1.43667e-20)
(0.588095 -0.0559769 -7.57503e-20)
(0.98014 0.0510185 0)
(0.266152 -0.220811 -2.7608e-20)
(1.16808 -0.0994819 -3.92169e-20)
(1.15431 -0.0429428 -2.95337e-20)
(1.03635 0.0306576 -3.4933e-21)
(1.27884 -0.0146813 1.93874e-20)
(1.0155 0.0205009 0)
(0.995361 0.00950001 0)
(1.0619 0.804133 -1.44961e-20)
(1.00852 0.0006631 -5.22175e-22)
(1.00359 0.00768448 0)
(1.16019 -0.0400353 -5.84327e-20)
(1.00226 0.015624 5.97599e-21)
(-0.0268556 -0.196725 0)
(1.0812 0.00883479 -1.46415e-22)
(0.9259 0.0114691 3.34941e-20)
(1.00818 0.000652858 -6.19844e-22)
(1.11604 0.0955884 0)
(-0.259786 0.00942861 0)
(1.05348 -0.00369401 8.30891e-21)
(1.01439 0.00531213 -2.90463e-22)
(0.989469 -0.000593112 1.19486e-20)
(1.13645 -0.0707394 4.25586e-20)
(0.210452 -0.0527002 2.85734e-20)
(0.999975 0.000571127 0)
(1.00001 3.98745e-05 0)
(0.8595 -0.100022 -1.94576e-20)
(1.0989 0.141201 1.89794e-20)
(1.08341 -0.0454918 -1.34357e-20)
(0.628126 0.381163 0)
(0.995596 0.00909623 4.24948e-21)
(1.15741 0.102515 -6.83518e-22)
(0.962655 0.0252642 1.16833e-20)
(1.00002 6.88447e-05 0)
(0.627791 0.351352 3.38839e-20)
(1.06163 -0.0786626 -1.46815e-20)
(1.03312 -0.066354 1.70196e-20)
(1.13604 -0.0741687 -2.24734e-20)
(1.01886 0.00109883 1.86994e-21)
(0.650595 -0.126893 -5.79447e-20)
(1.04458 -0.00698501 0)
(1.00184 0.0342335 0)
(1.31117 0.135731 0)
(0.999196 0.0201469 0)
(1.25404 0.00805285 1.01275e-19)
(0.91651 0.304994 5.46272e-21)
(0.999596 0.00440456 2.65218e-21)
(1.01693 0.00355166 0)
(1.25095 0.0188935 0)
(0.336805 -0.0676467 1.75839e-21)
(-0.0387965 0.0175159 0)
(1.01575 0.0405885 0)
(0.908601 0.0846407 -2.37327e-20)
(-0.0663552 -0.0123429 0)
(1.03001 0.00228112 3.53833e-21)
(1.12764 -0.141673 0)
(1.06484 -0.0178939 -1.20491e-20)
(0.954697 0.140799 0)
(1.12668 -0.136037 3.34287e-20)
(1.01855 0.00116564 -1.69673e-21)
(0.49361 0.707471 0)
(1.0001 0.0320923 0)
(0.902316 0.192518 2.23488e-20)
(1.00087 0.000244601 2.17989e-21)
(1.08455 -0.0452311 -3.25841e-21)
(-0.227971 0.0113372 1.74128e-20)
(0.999949 -0.000154882 0)
(0.162967 0.110359 -1.51865e-19)
(1.10859 0.0302858 -3.39078e-20)
(0.994985 0.00196895 4.09557e-23)
(1.13573 0.0812092 2.26397e-20)
(1.12777 -0.0253827 4.2432e-20)
(1.12797 -0.169259 2.84469e-20)
(0.380545 -0.0899585 -4.15588e-20)
(1.14031 -0.166705 5.85351e-22)
(0.98871 0.0321209 -1.13235e-20)
(1.01576 0.00988723 2.87853e-22)
(-0.0364879 -0.0355449 3.30702e-20)
(0.701788 -0.0860932 -1.25299e-19)
(0.999395 0.00367624 -5.81655e-21)
(1.00946 0.052581 0)
(1.03574 -0.0673855 8.53676e-22)
(1.0738 -0.0912485 -1.16607e-20)
(0.262624 0.700151 -4.20442e-20)
(0.00376692 -0.0424772 0)
(0.997713 0.00255132 -8.55354e-21)
(1.05818 0.0230647 0)
(0.0469274 -0.180094 -2.1101e-21)
(0.99761 0.0223235 1.32186e-21)
(1.01196 0.0547945 -6.46409e-22)
(1.19287 -0.098786 -2.50528e-22)
(1.10193 -0.00585808 -6.17586e-21)
(1.06229 0.00363694 -2.62897e-21)
(0.359992 -0.119631 2.72232e-21)
(1 0.000493172 -6.23988e-21)
(0.823231 0.157772 8.78296e-21)
(1.25103 0.258974 -3.89804e-20)
(-0.263753 0.00386161 0)
(1.0143 0.00497628 3.12196e-22)
(0.984783 0.0198985 1.21965e-20)
(0.992803 0.0114252 -8.02911e-21)
(1.02229 0.0183948 0)
(0.824006 0.24596 -2.94615e-20)
(1.02288 0.0182754 -2.03937e-21)
(1.10636 0.102281 -1.42232e-20)
(0.993166 0.011155 5.87839e-21)
(1.03086 0.0726116 5.66422e-21)
(0.997775 0.00230765 7.81875e-21)
(0.941532 -0.00925611 0)
(1.03245 0.0113993 -4.41143e-21)
(1.00788 0.0358292 -3.76228e-21)
(1.03087 0.012581 -1.15329e-21)
(1.03094 0.0121154 -4.65904e-22)
(0.994199 0.065321 -7.09754e-21)
(0.561282 0.100991 0)
(0.00814234 -0.218856 -8.52908e-21)
(1.02174 0.0280387 0)
(1.02514 -0.170813 0)
(0.940232 0.152449 4.80574e-21)
(0.00454859 -0.219339 0)
(1.09498 0.00655262 0)
(1.17533 0.0586391 -2.08335e-20)
(0.978721 0.0342631 -2.4293e-21)
(1.08601 -0.16659 1.44598e-20)
(0.957969 -0.00721725 1.62531e-20)
(1.00245 0.000678814 -8.73998e-22)
(0.99908 0.00276836 5.84746e-21)
(1.01685 0.00543362 -7.51829e-22)
(0.338912 -0.0820129 2.73818e-20)
(1.05652 0.0464987 0)
(1.01552 -4.1821e-06 6.4172e-22)
(1.1238 0.0252566 -6.4385e-20)
(1.10225 0.101557 3.89886e-20)
(0.997859 0.0231698 -1.43611e-21)
(1.02997 0.0018132 4.20302e-21)
(-0.0411213 0.0181065 4.9159e-20)
(0.975846 0.0327215 -7.19422e-21)
(1.01519 0.0209914 0)
(0.139153 -0.687695 0)
(1.00273 0.0145098 5.21389e-21)
(0.0568663 -0.0982535 -2.05858e-19)
(-0.24237 0.00963632 0)
(1.18827 -0.100266 4.96113e-20)
(0.913737 -0.00332633 -4.15507e-20)
(1.0457 -0.00713769 0)
(-0.229957 0.0107509 1.2603e-19)
(1.00008 0.000448788 0)
(0.997918 0.0154029 4.23576e-21)
(0.199175 0.636043 -6.30706e-21)
(1.00002 0.00054081 1.36084e-21)
(1.0211 0.00169868 -8.15431e-22)
(-0.251266 0.0120548 1.33138e-22)
(1.01116 0.011201 -4.94516e-22)
(-0.211641 0.0116806 1.59566e-20)
(1.08801 -0.026622 0)
(1.08086 -0.0382995 2.34119e-21)
(-0.226238 0.0132196 -7.62426e-20)
(0.962741 0.0210769 -2.41948e-20)
(0.998257 0.0150779 0)
(0.823189 -0.141309 0)
(1.10851 -0.0472011 -4.1879e-20)
(-0.00130458 -0.210296 0)
(1.15352 -0.168497 -2.64555e-20)
(0.993408 0.0101678 6.3465e-21)
(1.00467 0.00658964 9.97125e-22)
(0.972646 0.0256848 -1.10008e-21)
(0.986568 -0.103156 -1.25892e-20)
(0.942744 0.198273 0)
(1.00288 0.0361942 0)
(0.999999 0.000377601 0)
(0.99505 0.043369 -6.00643e-22)
(0.815481 0.166282 2.49107e-20)
(0.0648993 -0.199086 5.03353e-20)
(0.984931 0.104152 2.78906e-21)
(0.973592 0.0242912 -9.59228e-21)
(0.999999 0.000416309 8.15848e-21)
(1.09384 0.00817927 0)
(1.14879 -0.12824 -3.67504e-20)
(0.227833 -0.0570418 -3.07162e-20)
(-0.190682 0.0142275 0)
(1.00036 -0.136282 9.50165e-20)
(0.766932 0.127553 5.99768e-20)
(0.837721 0.175093 2.3987e-21)
(-0.0282197 -0.0228431 6.06016e-20)
(1.04023 0.00304445 0)
(1.00797 0.00886643 0)
(0.989724 -0.00108631 -4.32594e-21)
(1.02179 0.0270968 0)
(0.810021 0.231981 3.07445e-20)
(0.995864 0.00733689 -6.25064e-21)
(1.01547 -2.97705e-05 -7.58875e-22)
(-0.19873 0.0134317 7.38276e-20)
(0.804578 0.164199 1.93727e-20)
(1.13168 0.0782571 3.7139e-20)
(0.321716 -0.10394 -6.14126e-20)
(0.754647 0.130157 0)
(0.268431 -0.00808702 -4.17673e-20)
(1.01062 0.0263215 0)
(1.03166 0.0113248 -3.77446e-21)
(0.993782 0.0203676 9.7434e-21)
(1.00301 0.00663269 2.69264e-21)
(1 0.000266068 0)
(0.999998 0.000340135 -3.41938e-21)
(0.995455 0.00856182 -4.80084e-21)
(-0.0828503 -0.191148 0)
(1.01703 0.0405671 0)
(1.01845 0.00215644 -5.0313e-22)
(1.34154 0.145457 0)
(1.21535 0.134673 -4.16015e-20)
(1.00766 0.00886403 -1.87005e-21)
(1.05201 0.00161431 -8.57916e-22)
(0.916428 0.247588 -1.82733e-20)
(1.00863 0.817277 8.43502e-20)
(0.987062 0.0654109 -1.639e-20)
(1.026 0.0158869 1.35024e-21)
(1.12249 -0.169749 -2.78704e-20)
(0.94313 0.0401166 -1.13404e-20)
(0.179489 -0.215962 -4.11529e-22)
(1.065 -0.018881 1.69826e-20)
(1.02232 0.0192869 0)
(-0.176497 0.00322518 -1.7579e-19)
(1.21831 0.131221 -4.41725e-20)
(1.01386 0.00884944 -2.39799e-22)
(-0.00465821 0.0167428 5.13162e-21)
(-0.0546396 -0.144582 -7.21849e-20)
(-0.00475381 0.0291182 -9.58142e-20)
(1.02167 0.0194164 0)
(1.02563 0.0153474 -4.25526e-21)
(1.02409 0.0889292 -1.51797e-21)
(1.12752 -0.0707851 -2.92366e-22)
(0.963399 0.013571 -1.47366e-20)
(0.250797 -0.214813 -4.17668e-21)
(1.02048 -0.102406 1.15936e-20)
(1.07058 -0.170273 -2.67833e-20)
(1.32554 0.207688 2.18939e-20)
(1.0171 0.00518016 -1.2928e-23)
(1.08676 -0.02669 1.93617e-20)
(0.302111 -0.0327309 -3.8569e-20)
(-0.0093135 -0.051154 -6.41677e-20)
(0.512036 -0.0863733 0)
(0.976884 0.0224908 0)
(0.977704 0.0987041 0)
(1.00162 0.102045 2.16552e-21)
(-0.0571342 -0.0366331 0)
(-0.200962 0.0123191 0)
(1.16183 -0.126626 -1.9169e-20)
(0.984532 0.0340056 0)
(0.991767 0.013136 0)
(0.998058 0.000475854 0)
(0.938093 0.20249 -7.7002e-21)
(0.995699 0.00818163 0)
(0.885615 -0.144948 -2.10475e-20)
(0.999827 0.104643 3.55587e-21)
(0.385802 -0.0754011 -2.06285e-20)
(0.985017 0.0128052 0)
(0.99553 0.0419977 0)
(1.0057 0.000549028 0)
(0.86183 0.0477045 6.76186e-20)
(1.02152 0.130628 -1.21316e-21)
(1.14355 -0.127548 3.52888e-20)
(1.0017 0.013878 1.41547e-21)
(1.13679 -0.0524402 4.26981e-20)
(0.947236 0.823258 -5.15488e-20)
(1.07705 -0.0139299 -2.26975e-20)
(0.998636 0.0269366 0)
(0.939381 0.033938 0)
(1.07404 -0.0191401 -2.63723e-21)
(1.00001 0.000530351 0)
(1.09894 0.0488131 0)
(1.10375 -0.00467455 2.56882e-20)
(1.07686 -0.012867 1.99102e-20)
(1.20607 0.1747 4.64175e-20)
(1.00999 0.0540712 6.24551e-22)
(1.01379 0.00842214 -2.34901e-22)
(0.990375 -0.00104952 7.65336e-21)
(0.999972 -7.62783e-05 2.34515e-24)
(1.11098 0.0964731 4.59825e-22)
(1.0616 0.00258214 0)
(1.13124 -0.0214642 -2.17729e-20)
(1.01038 0.0254318 -3.95057e-22)
(1.04551 -0.00307759 0)
(0.265409 -0.124962 3.38374e-20)
(1.01823 0.00146976 8.93415e-22)
(0.850235 -0.0342272 0)
(0.959062 0.0144673 1.77755e-20)
(1.17524 0.234539 -1.91496e-20)
(0.928778 0.0121188 -3.25003e-20)
(0.321854 -0.0814641 2.8251e-20)
(1.04499 0.0267391 0)
(-0.112712 0.0016603 0)
(0.925382 0.0540513 2.11387e-20)
(0.934794 0.0240598 -1.57538e-20)
(0.726735 -0.11196 -1.77499e-20)
(0.23812 -0.133983 1.18317e-21)
(0.920684 0.0973699 1.57323e-20)
(1.07578 -0.0150375 -4.77783e-21)
(1.05525 0.0449904 -9.63888e-21)
(1.02175 0.0203454 1.48704e-21)
(0.992934 0.0130436 5.17197e-21)
(1.08551 -0.0599072 1.51682e-20)
(1.13006 0.0919023 2.65491e-20)
(0.965207 0.142895 0)
(1.05676 0.267433 -2.38406e-20)
(-0.0769966 -0.180164 -1.1614e-20)
(1.05579 -0.0700793 1.50131e-21)
(1.00466 0.000534602 6.3257e-22)
(0.0078327 0.0189904 0)
(1.1173 -0.111651 1.26969e-19)
(1.05246 -0.000251831 0)
(0.992458 0.0132251 0)
(0.848216 -0.0280843 -3.71275e-20)
(0.227863 -0.0891236 2.19807e-20)
(1.08315 0.0853446 0)
(1.00003 0.00138541 0)
(0.700078 0.0227413 7.45168e-20)
(1.19957 0.174282 2.35369e-21)
(1.12636 0.142418 0)
(0.871367 0.0428516 0)
(0.612723 0.761683 0)
(1.0718 0.00692024 0)
(1.16336 -0.0318059 0)
(0.125126 -0.0100257 2.14397e-20)
(1.13325 -0.13758 -4.13702e-20)
(1.30779 0.140596 -5.31059e-20)
(0.824337 0.203543 0)
(1.12562 0.30987 -3.90239e-20)
(1.08029 0.0161613 1.73296e-20)
(1.0014 0.000322918 4.72957e-22)
(1.05326 -0.000733542 0)
(0.993111 0.0218462 1.39612e-20)
(0.407292 -0.00120213 -1.38624e-19)
(0.476808 -0.268887 -1.61391e-20)
(0.278957 -0.019511 3.00461e-22)
(0.58146 0.0987173 0)
(-0.222061 0.0107242 -2.70155e-20)
(0.00338047 -0.235726 -2.46255e-20)
(0.712987 0.014726 -6.52882e-20)
(0.983135 0.0715034 3.00154e-21)
(0.21929 -0.0133874 0)
(0.608681 0.0713022 9.08699e-21)
(1.02295 0.00118373 0)
(0.545664 0.0653359 -8.54079e-20)
(-0.0557893 -0.0072202 -3.34297e-20)
(1.05086 -0.0140579 6.43796e-21)
(0.988689 0.106242 0)
(1.01623 0.00403632 -5.94838e-22)
(1.07079 0.00772741 -3.72466e-21)
(1.07052 -0.000929718 7.38776e-21)
(1.07305 -0.0195652 -4.38262e-21)
(1.17648 0.00903554 1.80317e-21)
(0.999545 0.0207359 -4.6852e-21)
(-0.0579549 -0.000147861 0)
(0.991921 0.0662474 8.06364e-21)
(0.965829 0.0764051 -8.93352e-21)
(-0.0417948 -0.0412376 -3.1627e-22)
(1.00852 0.0238996 -1.66807e-21)
(1.01918 0.135567 -3.77123e-21)
(0.552248 -0.0929724 -1.82902e-20)
(0.998055 0.0144016 -6.03509e-21)
(1.04037 0.0446965 -2.41923e-21)
(-0.100365 -0.0139082 -1.67594e-19)
(1.00953 0.00297071 6.46119e-22)
(1.1341 -0.0535234 2.299e-20)
(1.01855 0.00142364 0)
(-0.012351 -0.225566 0)
(1.07612 -0.0159643 5.132e-21)
(1.09337 -0.0204796 0)
(0.959596 0.145043 1.51952e-20)
(1.04997 0.0705781 -2.71168e-21)
(1.12904 -0.0682134 0)
(0.920656 -0.0055857 -3.47396e-20)
(0.32403 -0.185489 0)
(1.09074 -0.0463018 -2.22524e-20)
(1.03805 -0.00104045 0)
(-0.255617 -0.00727158 -5.20699e-20)
(1.0931 -0.0217764 0)
(0.544151 0.770734 -7.91974e-21)
(-0.273075 0.00983754 0)
(1.32517 0.145499 -4.34285e-20)
(1.15215 -0.122862 0)
(0.996704 0.020921 -4.23277e-21)
(1.01771 0.00618649 4.20946e-22)
(-0.0467246 -0.147209 6.04429e-20)
(0.937109 0.0356501 0)
(1.10145 0.0478264 0)
(1.00002 0.0010741 0)
(1.08171 0.0153349 -2.22612e-20)
(1.03854 -0.134094 -7.73164e-20)
(0.584012 -0.130847 6.17785e-20)
(1.11007 0.100174 0)
(-0.139932 -0.00349173 0)
(0.810862 0.219025 2.24412e-21)
(1.01154 0.0688459 1.60598e-21)
(1.01646 0.00430319 -1.39099e-21)
(1.00004 0.0012782 0)
(1.12693 0.0252098 9.10418e-20)
(1.0746 0.254566 1.58811e-20)
(1.02726 0.00853861 0)
(1.04467 0.118374 0)
(0.991719 0.117978 0)
(1.09493 0.143442 -2.88416e-20)
(1.01433 9.91677e-05 0)
(-0.0400846 0.0157662 2.22854e-20)
(-0.0718516 0.0166797 -1.10959e-19)
(0.99164 0.0223019 0)
(1.02269 0.00166369 -8.73474e-22)
(1.10443 -0.0484506 -2.13203e-20)
(1.00003 0.000981901 3.44882e-21)
(1.01431 0.00911871 1.56103e-22)
(0.0188676 -0.22376 -1.00698e-20)
(0.546304 0.0820854 -5.41184e-20)
(0.967078 0.0229895 -1.71128e-20)
(0.993337 0.0136744 5.37143e-21)
(1.06631 -0.0606966 1.73865e-20)
(1.12666 0.0845278 -3.12451e-20)
(1.06839 -0.0169959 7.65024e-21)
(0.712265 -0.0754952 7.53502e-20)
(1.00844 0.0349457 2.94069e-21)
(0.312941 -0.0383655 3.30155e-20)
(1.11691 -0.0163143 -3.83281e-20)
(0.981899 0.0308078 -3.51986e-21)
(0.430982 0.141381 1.2702e-19)
(-0.0624756 -0.0430597 3.99653e-20)
(1.00326 0.00814828 0)
(0.653822 -0.136876 0)
(1.0151 0.00541928 -8.97128e-22)
(0.998325 0.014186 6.06278e-21)
(0.963493 0.0119765 0)
(0.82706 -0.00799852 0)
(-0.0542461 0.0184395 0)
(1.10681 0.0321087 1.30003e-20)
(0.139902 -0.0136681 -2.60035e-22)
(1.00936 0.139265 3.4955e-26)
(0.446507 -0.0996491 4.59636e-20)
(1.35164 0.211928 -1.45564e-19)
(1.08092 0.0185569 2.33392e-20)
(-0.23989 0.00952854 0)
(0.984431 0.0209808 -6.34843e-21)
(0.452542 0.0494042 6.96682e-20)
(1.05285 0.00105486 -3.91607e-21)
(0.387801 -0.107147 0)
(0.21312 -0.023721 8.27247e-21)
(0.995093 0.0388767 0)
(0.126893 0.544901 6.68266e-20)
(1.0237 0.0834938 8.98794e-22)
(0.921846 0.0555244 6.56188e-21)
(0.798082 0.086003 4.4133e-22)
(0.654403 0.0791893 5.26238e-20)
(-0.20403 0.0116736 -1.101e-19)
(1.00933 0.00962324 -1.29953e-21)
(0.330333 -0.0846554 4.98925e-22)
(0.988166 0.0117472 0)
(0.32488 -0.176095 1.27974e-20)
(1.04231 0.00437716 -5.30612e-21)
(0.995676 0.105522 -7.55265e-21)
(1.07399 -0.0177307 0)
(1.01109 0.0134495 0)
(1.01404 0.000696592 0)
(1.10386 -0.0278638 0)
(1.12018 -0.170464 4.14706e-20)
(1.11873 -0.0176146 0)
(1.00445 0.00623521 1.11871e-21)
(0.141552 0.139906 2.03554e-19)
(1.07948 0.0195436 -1.81543e-20)
(1.01057 0.0132756 1.60904e-21)
(0.997887 0.000661428 1.35047e-20)
(0.938355 0.0949843 -1.85814e-20)
(1.1482 -0.066488 3.26439e-20)
(0.67886 0.0714105 -6.35568e-20)
(1.10359 0.0321293 0)
(1.00893 0.000485248 -1.68098e-22)
(1.03076 0.0965287 -6.13208e-21)
(0.326655 -0.062783 1.2733e-20)
(0.992911 0.103715 8.61799e-21)
(0.998505 0.0201946 0)
(1.01134 0.0138094 0)
(1.03276 0.0989364 7.15498e-21)
(1.09252 0.026245 -1.14044e-22)
(-0.0583735 -0.00412987 0)
(1.00835 0.023027 9.92033e-22)
(1.1395 0.449839 8.14622e-20)
(0.891216 0.210048 1.51706e-20)
(1.18337 -0.110845 -1.34902e-20)
(-0.0117135 0.0281265 -1.14874e-19)
(-0.0295466 0.0446497 0)
(1.01616 0.00302441 5.66344e-23)
(1.08196 -0.0367779 -9.61807e-21)
(1.00313 0.0223747 0)
(1.01828 0.0447544 2.08007e-22)
(1.08125 0.00565617 0)
(-0.0608898 -0.0648587 -6.09349e-20)
(1.00751 0.00545289 2.65321e-22)
(1.02115 0.0204681 0)
(1.01252 0.000506894 0)
(0.560115 0.0549257 -1.2871e-19)
(0.957832 0.0460121 2.17601e-20)
(1.03868 -0.00136281 -4.40161e-21)
(1.04141 0.128116 0)
(1.07948 0.0850153 0)
(0.26171 -0.0985037 2.49633e-21)
(-0.312523 0.00761529 3.47997e-20)
(1.0032 0.0111216 -1.23958e-21)
(0.987629 0.00543551 -8.94274e-21)
(0.210801 -0.0917697 0)
(0.983249 0.0315226 0)
(-0.0666737 0.0144743 1.10899e-22)
(0.222484 -0.0323511 0)
(-0.0625522 0.0160169 0)
(0.656593 0.336985 6.19652e-20)
(0.811072 0.431786 -1.90306e-20)
(1.03713 -0.129057 -4.53899e-20)
(1.07526 -0.0173378 -5.14147e-21)
(0.999105 0.00122779 -3.44925e-23)
(1.01154 0.0116459 0)
(0.999722 0.0332923 3.18303e-21)
(0.9696 0.021298 2.8363e-20)
(0.999351 0.00400664 0)
(0.968026 0.0210304 -2.84567e-20)
(0.813529 0.0355513 0)
(-0.0146783 -0.18536 -1.20046e-20)
(1.03574 0.0316236 0)
(0.660828 0.170357 0)
(1.00925 0.00363396 0)
(1.01344 0.068332 -1.98839e-21)
(1.09935 0.106077 2.34248e-20)
(0.999915 0.00500976 5.16068e-21)
(0.964169 0.0785642 0)
(1.04124 0.0457771 -3.37059e-21)
(0.354435 0.00385111 1.11979e-19)
(0.0964316 -0.1321 6.99087e-20)
(1.15835 0.0953035 3.76646e-20)
(-0.175514 0.0125256 -1.0567e-19)
(0.830349 0.182627 0)
(0.0690535 -0.124875 -9.37853e-21)
(1.07751 0.266052 -1.83313e-20)
(0.461142 -0.140004 0)
(-0.0499828 0.00607381 7.92072e-20)
(1.11909 -0.0151798 1.51096e-20)
(0.898569 0.758236 4.22922e-20)
(1.05486 -0.0726138 1.4665e-20)
(-0.272723 0.00866104 0)
(1.03494 0.00399561 0)
(0.993049 0.0105023 0)
(1.00301 0.00615315 3.50742e-23)
(1.07142 1.17438e-05 0)
(0.514505 -0.133457 2.39025e-20)
(1.01246 0.0105994 0)
(0.999959 0.000108578 -5.57971e-21)
(1.17624 0.0195998 4.76419e-20)
(1.00704 0.0030525 5.78848e-22)
(1.00357 0.197187 -8.86183e-24)
(1.00228 0.185085 8.76652e-22)
(1.00018 0.000547555 0)
(1.0445 -0.121158 0)
(1.0377 0.000218947 3.19031e-21)
(0.987073 0.0050781 0)
(1.06546 -0.0630898 0)
(1.01569 0.00796648 -8.91014e-22)
(1.24161 0.0877781 0)
(0.447192 -0.272699 0)
(0.99836 0.0370507 3.661e-21)
(1.04942 -0.0043565 3.11982e-21)
(1.01029 0.0128685 -1.51078e-21)
(0.926422 0.265557 1.62665e-20)
(1.00782 0.00598433 0)
(1.04466 0.0532052 2.10517e-20)
(1.31704 0.223101 -1.06804e-19)
(0.988497 -9.20497e-05 -8.37733e-24)
(-0.0288908 -0.0379355 -4.98701e-20)
(1.03599 0.027408 5.80829e-21)
(0.00847783 -0.0449858 0)
(1.06119 -0.00672156 0)
(1.07426 -0.0539154 0)
(0.998399 0.0126149 8.64447e-21)
(1.07948 -0.0416332 4.45057e-22)
(1.09496 0.105317 -6.59985e-21)
(0.999198 0.00106797 -5.08e-21)
(0.99912 0.0380336 3.83991e-21)
(0.00165964 -0.0374664 3.62941e-20)
(0.992226 0.0142209 1.3688e-20)
(-0.291532 0.00959135 7.94287e-20)
(-0.292189 0.0114136 0)
(0.979157 0.0494188 -1.01684e-20)
(1.00097 0.000259558 0)
(1.00007 0.00528877 -1.43489e-21)
(1.01936 0.00362877 -2.59032e-21)
(0.0263065 -0.217655 0)
(0.993938 0.0135357 -1.46639e-20)
(0.0543947 -0.050378 6.72576e-20)
(-0.0131368 -0.15532 2.6861e-20)
(1.0994 0.135585 0)
(-0.00791554 0.0367061 -1.38017e-19)
(1.00936 0.000635575 -2.59443e-22)
(1.00226 0.0196828 -3.65095e-21)
(-0.0333083 0.017599 0)
(-0.087499 0.00860835 -8.44196e-20)
(0.922775 -0.00782329 1.19138e-20)
(0.999762 0.00937187 -3.3478e-21)
(0.994446 0.0207749 -2.024e-22)
(1.01204 0.0111897 0)
(1.05121 -0.00721293 -1.04697e-20)
(0.856903 0.169775 3.46618e-20)
(0.347515 0.367187 1.68951e-19)
(1.04532 0.0710229 1.19006e-21)
(0.197926 -0.225044 1.0552e-19)
(0.116148 0.146513 4.45211e-20)
(0.983384 -0.090033 -1.07118e-22)
(0.854101 0.0608824 3.53877e-20)
(1.03327 0.0174776 -8.32223e-22)
(-0.324046 -0.00230642 -2.17534e-21)
(-0.0308766 -0.216404 4.90049e-20)
(1.04417 0.126449 0)
(0.998633 0.0123529 -9.65066e-21)
(0.976558 0.0200489 1.42919e-20)
(0.00098008 -0.00227078 -7.72031e-20)
(0.99561 0.00770787 1.30951e-21)
(-0.0105007 -0.230152 2.22528e-20)
(0.823578 0.235387 -1.69651e-21)
(1.00005 0.000555971 -3.27803e-21)
(0.942251 0.0966977 2.09308e-20)
(1.01541 9.25932e-05 2.62392e-21)
(1.10187 0.030928 1.09129e-20)
(1.06391 0.0696232 0)
(1.00684 0.002889 0)
(1.01766 0.00160634 0)
(1.05001 -0.0070754 0)
(-0.126475 -0.015588 3.44769e-20)
(1.00015 0.000861603 1.57325e-21)
(1.07901 -0.036137 0)
(0.0373033 -0.0209745 0)
(0.977282 0.0185926 0)
(1.00226 0.0151004 -6.23683e-21)
(0.821722 0.146469 -3.41391e-20)
(0.0369306 -0.205498 -2.19871e-20)
(1.09373 0.011946 0)
(-0.135504 -0.0140773 6.3151e-20)
(0.958573 -0.00531624 -1.48288e-20)
(1.01937 0.00336737 -1.0547e-21)
(0.938989 -0.00190228 -2.59111e-20)
(0.199457 -0.00675853 5.26683e-21)
(0.407834 0.155774 -8.09658e-20)
(0.178423 0.0894898 3.53013e-20)
(1.00872 0.000448431 -8.87891e-23)
(0.865473 0.0410038 -2.52653e-20)
(1.0012 0.0319445 5.27908e-21)
(-0.166257 -0.0129312 5.20375e-20)
(1.02347 0.00838875 1.88606e-21)
(1.05161 -0.122772 0)
(0.849264 0.178634 -3.54748e-20)
(0.0310151 -0.213958 0)
(1.00028 0.00115061 3.01279e-21)
(1.00443 0.00202705 7.56278e-22)
(0.787832 0.437282 8.17385e-21)
(0.996459 0.0196843 0)
(-0.147882 -0.0114382 3.84796e-20)
(1.03957 0.00364698 0)
(0.18156 0.499234 0)
(1.00004 0.000483849 3.0763e-21)
(1.01161 0.0102945 3.25277e-22)
(0.931761 0.021082 1.09717e-20)
(1.11928 0.441753 -5.61864e-20)
(-0.185562 0.0163894 1.22377e-19)
(1.02476 0.0945318 4.82479e-21)
(1.04663 0.020839 1.20083e-20)
(0.96165 0.019798 0)
(1.03831 -0.000182391 0)
(1.02745 0.00803067 3.4102e-21)
(0.99998 0.000102285 -1.47162e-21)
(1.1969 0.00368742 0)
(1.00213 0.0468908 0)
(0.473395 -0.0948533 3.15425e-20)
(1.00713 0.0729439 -3.80004e-21)
(-0.102663 0.0149595 1.29312e-19)
(1.03648 0.00393996 1.43824e-21)
(1.01919 0.0044184 -7.55544e-23)
(1.30488 0.192485 1.35729e-19)
(-0.0824839 0.00769267 1.02531e-19)
(0.728836 -0.14151 0)
(1.01361 0.0505015 8.34369e-22)
(0.391331 -0.117284 1.67933e-20)
(1.03714 0.00345898 0)
(-0.0201954 -0.00821717 0)
(0.961788 0.0233297 7.36261e-21)
(1.24304 0.0253518 -9.90323e-20)
(1.01517 0.019123 1.78419e-22)
(0.0288733 0.0307751 0)
(1.00393 0.0191786 0)
(1.06168 0.0704354 -1.852e-20)
(0.995293 0.00173168 -5.62191e-21)
(1.00167 0.022465 -1.94515e-21)
(1.00001 0.000706135 3.82267e-21)
(0.423157 -0.0838438 -2.19616e-20)