/*--------------------------------*- C++ -*----------------------------------*\
| =========                 |                                                 |
| \\      /  F ield         | OpenFOAM: The Open Source CFD Toolbox           |
|  \\    /   O peration     | Version:  v2012                                 |
|   \\  /    A nd           | Website:  www.openfoam.com                      |
|    \\/     M anipulation  |                                                 |
\*---------------------------------------------------------------------------*/
FoamFile
{
    version     2.0;
    format      ascii;
    class       pointVectorField;
    location    "600";
    object      pointDisplacement;
}
// * * * * * * * * * * * * * * * * * * * * * * * * * * * * * * * * * * * * * //

dimensions      [0 1 0 0 0 0 0];


internalField   nonuniform List<vector> 
18854
(
(0 0 0)
(0 0 0)
(0 0 0)
(0 0 0)
(0 0 0)
(0 0 0)
(0 0 0)
(0 0 0)
(0 0 0)
(0 0 0)
(0 0 0)
(0 0 0)
(0 0 0)
(0 0 0)
(0 0 0)
(0 0 0)
(0 0 0)
(0 0 0)
(0 0 0)
(0 0 0)
(0 0 0)
(0 0 0)
(0 0 0)
(0 0 0)
(0 0 0)
(0 0 0)
(0 0 0)
(0 0 0)
(0 0 0)
(0 0 0)
(0 0 0)
(0 0 0)
(0 0 0)
(0 0 0)
(0 0 0)
(0 0 0)
(0 0 0)
(0 0 0)
(0 0 0)
(0 0 0)
(0 0 0)
(0 0 0)
(0 0 0)
(0 0 0)
(0 0 0)
(0 0 0)
(0 0 0)
(0 0 0)
(0 0 0)
(0 0 0)
(0 0 0)
(0 0 0)
(0 0 0)
(0 0 0)
(0 0 0)
(0 0 0)
(0 0 0)
(0 0 0)
(0 0 0)
(0 0 0)
(0 0 0)
(0 0 0)
(0 0 0)
(0 0 0)
(0 0 0)
(0 0 0)
(0 0 0)
(0 0 0)
(0 0 0)
(0 0 0)
(0 0 0)
(0 0 0)
(0 0 0)
(0 0 0)
(0 0 0)
(0 0 0)
(0 0 0)
(0 0 0)
(0 0 0)
(0 0 0)
(0 0 0)
(0 0 0)
(0 0 0)
(0 0 0)
(0 0 0)
(0 0 0)
(0 0 0)
(0 0 0)
(0 0 0)
(0 0 0)
(0 0 0)
(0 0 0)
(0 0 0)
(0 0 0)
(0 0 0)
(0 0 0)
(0 0 0)
(0 0 0)
(0 0 0)
(0 0 0)
(0 0 0)
(0 0 0)
(0 0 0)
(0 0 0)
(0 0 0)
(0 0 0)
(0 0 0)
(0 0 0)
(0 0 0)
(0 0 0)
(0 0 0)
(0 0 0)
(0 0 0)
(0 0 0)
(0 0 0)
(0 0 0)
(0 0 0)
(0 0 0)
(0 0 0)
(0 0 0)
(0 0 0)
(0 0 0)
(0 0 0)
(0 0 0)
(0 0 0)
(0 0 0)
(0 0 0)
(0 0 0)
(0 0 0)
(0 0 0)
(0 0 0)
(0 0 0)
(0 0 0)
(0 0 0)
(0 0 0)
(0 0 0)
(0 0 0)
(0 0 0)
(0 0 0)
(0 0 0)
(0 0 0)
(0 0 0)
(0 0 0)
(0 0 0)
(0 0 0)
(0 0 0)
(0 0 0)
(0 0 0)
(0 0 0)
(0 0 0)
(0 0 0)
(0 0 0)
(0 0 0)
(0 0 0)
(0 0 0)
(0 0 0)
(0 0 0)
(0 0 0)
(0 0 0)
(0 0 0)
(0 0 0)
(0 0 0)
(0 0 0)
(0 0 0)
(0 0 0)
(0 0 0)
(0 0 0)
(0 0 0)
(0 0 0)
(0 0 0)
(0 0 0)
(0 0 0)
(0 0 0)
(0 0 0)
(0 0 0)
(0 0 0)
(0 0 0)
(0 0 0)
(0 0 0)
(0 0 0)
(0 0 0)
(0 0 0)
(0 0 0)
(0 0 0)
(0 0 0)
(0 0 0)
(0 0 0)
(0 0 0)
(0 0 0)
(0 0 0)
(0 0 0)
(0 0 0)
(0 0 0)
(0 0 0)
(0 0 0)
(0 0 0)
(0 0 0)
(0 0 0)
(0 0 0)
(0 0 0)
(0 0 0)
(0 0 0)
(0 0 0)
(0 0 0)
(0 0 0)
(0 0 0)
(0 0 0)
(0 0 0)
(0 0 0)
(0 0 0)
(0 0 0)
(0 0 0)
(0 0 0)
(0 0 0)
(0 0 0)
(0 0 0)
(0 0 0)
(0 0 0)
(0 0 0)
(0 0 0)
(0 0 0)
(0 0 0)
(0 0 0)
(0 0 0)
(0 0 0)
(0 0 0)
(0 0 0)
(0 0 0)
(0 0 0)
(0 0 0)
(0 0 0)
(0 0 0)
(0 0 0)
(0 0 0)
(0 0 0)
(0 0 0)
(0 0 0)
(0 0 0)
(0 0 0)
(0 0 0)
(0 0 0)
(0 0 0)
(0 0 0)
(0 0 0)
(0 0 0)
(0 0 0)
(0 0 0)
(0 0 0)
(0 0 0)
(0 0 0)
(0 0 0)
(0 0 0)
(0 0 0)
(0 0 0)
(0 0 0)
(0 0 0)
(0 0 0)
(0 0 0)
(0 0 0)
(0 0 0)
(0 0 0)
(0 0 0)
(0 0 0)
(0 0 0)
(0 0 0)
(0 0 0)
(0 0 0)
(0 0 0)
(0 0 0)
(0 0 0)
(0 0 0)
(0 0 0)
(0 0 0)
(0 0 0)
(0 0 0)
(0 0 0)
(0 0 0)
(0 0 0)
(0 0 0)
(0 0 0)
(0 0 0)
(0 0 0)
(0 0 0)
(0 0 0)
(0 0 0)
(0 0 0)
(0 0 0)
(0 0 0)
(0 0 0)
(0 0 0)
(0 0 0)
(0 0 0)
(0 0 0)
(0 0 0)
(0 0 0)
(0 0 0)
(0 0 0)
(0 0 0)
(0 0 0)
(0 0 0)
(0 0 0)
(0 0 0)
(0 0 0)
(0 0 0)
(0 0 0)
(0 0 0)
(0 0 0)
(0 0 0)
(0 0 0)
(0 0 0)
(0 0 0)
(0 0 0)
(0 0 0)
(0 0 0)
(0 0 0)
(0 0 0)
(0 0 0)
(0 0 0)
(0 0 0)
(0 0 0)
(0 0 0)
(0 0 0)
(0 -6.51679e-06 0)
(0 -5.95108e-06 0)
(0 -5.74632e-06 0)
(0 -6.49622e-06 0)
(0 -5.12981e-06 0)
(0 -5.07186e-06 0)
(0 -3.25207e-06 0)
(0 -3.18141e-06 0)
(0 -4.3907e-06 0)
(0 -2.14597e-06 0)
(0 -1.64999e-06 0)
(0 -6.24853e-06 0)
(0 -5.77193e-06 0)
(0 -3.62667e-06 0)
(0 -3.12653e-06 0)
(0 -2.54952e-06 0)
(0 -2.75246e-06 0)
(0 -2.24135e-06 0)
(0 -1.65612e-06 0)
(0 -1.34826e-06 0)
(0 -1.40546e-06 0)
(0 -7.87515e-07 0)
(0 -4.97039e-06 0)
(0 -6.04231e-06 0)
(0 -6.44043e-06 0)
(0 -4.16001e-06 0)
(0 -3.62008e-06 0)
(0 -8.38661e-07 0)
(0 -1.10662e-06 0)
(0 -4.25258e-06 0)
(0 -2.49964e-06 0)
(0 -2.20881e-06 0)
(0 -6.41127e-06 0)
(0 -6.1797e-06 0)
(0 -3.26294e-06 0)
(0 -2.9134e-06 0)
(0 -5.0689e-06 0)
(0 -5.55347e-06 0)
(0 -3.56827e-06 0)
(0 -2.59758e-06 0)
(0 -2.49183e-06 0)
(0 -4.62787e-07 0)
(0 -3.90104e-07 0)
(0 -2.79598e-06 0)
(0 -9.95346e-07 0)
(0 -4.58217e-06 0)
(0 -4.30503e-06 0)
(0 -5.34234e-06 0)
(0 -5.79927e-06 0)
(0 -6.21097e-06 0)
(0 -6.42802e-06 0)
(0 -1.57089e-06 0)
(0 -1.0628e-06 0)
(0 -2.30752e-06 0)
(0 -3.66732e-06 0)
(0 -3.93021e-06 0)
(0 -6.46452e-06 0)
(0 -6.61917e-06 0)
(0 -5.75257e-06 0)
(0 -5.63499e-06 0)
(0 -4.98443e-06 0)
(0 -4.088e-06 0)
(0 -3.88016e-06 0)
(0 -4.36045e-06 0)
(0 -3.1968e-06 0)
(0 -1.79984e-06 0)
(0 -1.1556e-06 0)
(0 -2.11972e-07 0)
(0 -1.85598e-05 0)
(0 -1.91874e-05 0)
(0 -1.97098e-05 0)
(0 -1.90694e-05 0)
(0 -2.01999e-05 0)
(0 -1.95435e-05 0)
(0 -2.06504e-05 0)
(0 -1.99745e-05 0)
(0 -2.10788e-05 0)
(0 -2.0387e-05 0)
(0 -2.15107e-05 0)
(0 -2.07985e-05 0)
(0 -2.19393e-05 0)
(0 -2.26591e-05 0)
(0 -2.30947e-05 0)
(0 -2.23488e-05 0)
(0 -2.3509e-05 0)
(0 -2.27259e-05 0)
(0 -2.39075e-05 0)
(0 -2.30923e-05 0)
(0 -2.4305e-05 0)
(0 -2.34669e-05 0)
(0 -2.47184e-05 0)
(0 -2.38539e-05 0)
(0 -2.51149e-05 0)
(0 -2.42538e-05 0)
(0 -2.55583e-05 0)
(0 -2.46764e-05 0)
(0 -2.60583e-05 0)
(0 -2.51324e-05 0)
(0 -2.65471e-05 0)
(0 -2.56014e-05 0)
(0 -2.70374e-05 0)
(0 -2.5966e-05 0)
(0 -2.75529e-05 0)
(0 -2.66755e-05 0)
(0 -2.81141e-05 0)
(0 -2.71986e-05 0)
(0 -2.87123e-05 0)
(0 -2.77656e-05 0)
(0 -2.93541e-05 0)
(0 -2.83602e-05 0)
(0 -3.00261e-05 0)
(0 -2.90322e-05 0)
(0 -3.07304e-05 0)
(0 -2.97424e-05 0)
(0 -3.14651e-05 0)
(0 -3.04511e-05 0)
(0 -3.21941e-05 0)
(0 -3.11702e-05 0)
(0 -3.30152e-05 0)
(0 -3.19479e-05 0)
(0 -3.38842e-05 0)
(0 -3.2844e-05 0)
(0 -3.48028e-05 0)
(0 -3.38436e-05 0)
(0 -3.58533e-05 0)
(0 -3.48621e-05 0)
(0 -3.69198e-05 0)
(0 -3.59344e-05 0)
(0 -3.80102e-05 0)
(0 -3.70562e-05 0)
(0 -3.91542e-05 0)
(0 -3.82289e-05 0)
(0 -4.03818e-05 0)
(0 -3.94802e-05 0)
(0 -4.16866e-05 0)
(0 -4.07796e-05 0)
(0 -4.30596e-05 0)
(0 -4.20888e-05 0)
(0 -4.45099e-05 0)
(0 -4.35247e-05 0)
(0 -4.60341e-05 0)
(0 -4.50961e-05 0)
(0 -4.76199e-05 0)
(0 -4.66865e-05 0)
(0 -4.92438e-05 0)
(0 -4.82887e-05 0)
(0 -5.09045e-05 0)
(0 -4.99252e-05 0)
(0 -5.26312e-05 0)
(0 -5.16787e-05 0)
(0 -5.44427e-05 0)
(0 -5.36104e-05 0)
(0 -5.63287e-05 0)
(0 -5.55678e-05 0)
(0 -5.82471e-05 0)
(0 -5.74332e-05 0)
(0 -6.01791e-05 0)
(0 -5.92772e-05 0)
(0 -6.21201e-05 0)
(0 -6.11117e-05 0)
(0 -6.41262e-05 0)
(0 -6.34315e-05 0)
(0 -6.61874e-05 0)
(0 -6.53853e-05 0)
(0 -6.82496e-05 0)
(0 -6.74049e-05 0)
(0 -7.03437e-05 0)
(0 -6.94851e-05 0)
(0 -7.24994e-05 0)
(0 -7.32894e-05 0)
(0 -7.55078e-05 0)
(0 -5.71097e-05 0)
(0 -4.3845e-05 0)
(0 -3.50116e-05 0)
(0 -2.9055e-05 0)
(0 -2.51771e-05 0)
(0 -7.16992e-05 0)
(0 -7.62534e-05 0)
(0 -7.85048e-05 0)
(0 -7.92185e-05 0)
(0 -8.14529e-05 0)
(0 -8.22111e-05 0)
(0 -8.43977e-05 0)
(0 -8.52132e-05 0)
(0 -8.74124e-05 0)
(0 -8.82249e-05 0)
(0 -9.04489e-05 0)
(0 -9.12773e-05 0)
(0 -9.35308e-05 0)
(0 -9.43453e-05 0)
(0 -9.66162e-05 0)
(0 -9.57895e-05 0)
(0 -9.8914e-05 0)
(0 -9.80477e-05 0)
(0 -0.000101199 0)
(0 -0.000100319 0)
(0 -0.000103469 0)
(0 -0.000102668 0)
(0 -0.000105815 0)
(0 -0.000106533 0)
(0 -0.000108915 0)
(0 -0.00010826 0)
(0 -0.000111354 0)
(0 -0.00011202 0)
(0 -0.000114413 0)
(0 -6.8628e-05 0)
(0 -0.000115074 0)
(0 -0.000117362 0)
(0 -0.000114088 0)
(0 -0.000118105 0)
(0 -0.000120394 0)
(0 -0.000121102 0)
(0 -0.000123409 0)
(0 -0.000124 0)
(0 -0.000126274 0)
(0 -0.000126852 0)
(0 -0.000129028 0)
(0 -0.000129602 0)
(0 -0.000131714 0)
(0 -0.000132209 0)
(0 -0.0001343 0)
(0 -0.000133825 0)
(0 -0.000136403 0)
(0 -0.000135908 0)
(0 -0.000138509 0)
(0 -0.000137924 0)
(0 -0.000140538 0)
(0 -0.000141206 0)
(0 -0.000143072 0)
(0 -0.000142499 0)
(0 -0.000145009 0)
(0 -0.000145461 0)
(0 -0.000147341 0)
(0 -0.00014778 0)
(0 -0.000149799 0)
(0 -0.000146957 0)
(0 -0.000149974 0)
(0 -0.000151888 0)
(0 -0.000152041 0)
(0 -0.000153915 0)
(0 -0.000154096 0)
(0 -0.000155929 0)
(0 -0.000156015 0)
(0 -0.000157835 0)
(0 -0.000157846 0)
(0 -0.000159617 0)
(0 -5.64621e-05 0)
(0 -0.000159557 0)
(0 -0.000161316 0)
(0 -0.000161297 0)
(0 -0.000162973 0)
(0 -0.000162875 0)
(0 -0.000164506 0)
(0 -0.000164353 0)
(0 -0.000165894 0)
(0 -0.000165726 0)
(0 -0.000167198 0)
(0 -0.000167272 0)
(0 -0.000168534 0)
(0 -0.000168538 0)
(0 -0.000169769 0)
(0 -0.000169738 0)
(0 -0.000170949 0)
(0 -0.000170907 0)
(0 -0.000172046 0)
(0 -0.00017191 0)
(0 -0.000173048 0)
(0 -0.000173171 0)
(0 -0.00017415 0)
(0 -0.000173952 0)
(0 -0.00017502 0)
(0 -0.000174754 0)
(0 -0.000175781 0)
(0 -0.000176017 0)
(0 -0.000176717 0)
(0 -0.000176416 0)
(0 -0.000177276 0)
(0 -0.000176911 0)
(0 -0.000177729 0)
(0 -0.000178059 0)
(0 -0.000178472 0)
(0 -0.000178084 0)
(0 -0.000178785 0)
(0 -0.000178333 0)
(0 -0.000179001 0)
(0 -0.000179421 0)
(0 -0.000179586 0)
(0 -0.000179108 0)
(0 -0.000179624 0)
(0 -0.00017909 0)
(0 -0.000179536 0)
(0 -0.000180019 0)
(0 -0.000179875 0)
(0 -0.000179334 0)
(0 -0.000179632 0)
(0 -0.000179033 0)
(0 -0.000179287 0)
(0 -0.000179828 0)
(0 -0.000179435 0)
(0 -0.00017884 0)
(0 -0.000178946 0)
(0 -0.000178294 0)
(0 -0.00017834 0)
(0 -0.000178917 0)
(0 -0.000178239 0)
(0 -0.000177632 0)
(0 -0.000177481 0)
(0 -0.000176836 0)
(0 -0.000176638 0)
(0 -0.000177194 0)
(0 -0.000176299 0)
(0 -0.000175698 0)
(0 -0.000175316 0)
(0 -0.000174661 0)
(0 -0.000174245 0)
(0 -0.000174806 0)
(0 -0.000173697 0)
(0 -0.000173089 0)
(0 -0.000172523 0)
(0 -0.000171867 0)
(0 -0.00017129 0)
(0 -0.00017183 0)
(0 -0.000170578 0)
(0 -0.000169987 0)
(0 -0.000169259 0)
(0 -0.000168612 0)
(0 -0.000167868 0)
(0 -0.000168423 0)
(0 -0.000167011 0)
(0 -0.000166401 0)
(0 -0.000165521 0)
(0 -0.000164857 0)
(0 -0.000163954 0)
(0 -0.000164535 0)
(0 -0.000162948 0)
(0 -0.000162307 0)
(0 -0.000161272 0)
(0 -0.000160566 0)
(0 -0.000159493 0)
(0 -0.000160118 0)
(0 -0.00015828 0)
(0 -0.000157609 0)
(0 -0.000156347 0)
(0 -0.000155613 0)
(0 -0.000154304 0)
(0 -0.000154949 0)
(0 -0.000152867 0)
(0 -0.000152164 0)
(0 -0.00015072 0)
(0 -0.00014995 0)
(0 -0.000148501 0)
(0 -0.00014918 0)
(0 -0.000146965 0)
(0 -0.000146226 0)
(0 -0.000144683 0)
(0 -0.000143897 0)
(0 -0.00014532 0)
(0 -0.000143045 0)
(0 -4.57018e-05 0)
(0 -0.000141317 0)
(0 -2.29685e-05 0)
(0 -3.73096e-05 0)
(0 -2.58235e-05 0)
(0 -3.17682e-05 0)
(0 -7.09155e-05 0)
(0 -6.77605e-05 0)
(0 -0.000157758 0)
(0 -0.00013013 0)
(0 -2.03558e-05 0)
(0 -1.96755e-05 0)
(0 -9.20959e-05 0)
(0 -2.80997e-05 0)
(0 -2.54497e-06 0)
(0 -2.43808e-06 0)
(0 -1.99973e-06 0)
(0 -2.32525e-06 0)
(0 -1.89418e-06 0)
(0 -2.21683e-06 0)
(0 -2.67398e-06 0)
(0 -2.56836e-06 0)
(0 -2.11423e-06 0)
(0 -2.47106e-06 0)
(0 -2.02069e-06 0)
(0 -2.38512e-06 0)
(0 -1.93998e-06 0)
(0 -2.31288e-06 0)
(0 -1.86328e-06 0)
(0 -2.25825e-06 0)
(0 -1.81934e-06 0)
(0 -2.22156e-06 0)
(0 -1.79947e-06 0)
(0 -2.20379e-06 0)
(0 -1.78414e-06 0)
(0 -2.20579e-06 0)
(0 -1.78246e-06 0)
(0 -2.21411e-06 0)
(0 -1.79294e-06 0)
(0 -2.2329e-06 0)
(0 -1.82246e-06 0)
(0 -2.27889e-06 0)
(0 -1.87477e-06 0)
(0 -2.34874e-06 0)
(0 -1.94766e-06 0)
(0 -2.44237e-06 0)
(0 -2.04118e-06 0)
(0 -2.55399e-06 0)
(0 -2.15678e-06 0)
(0 -2.68363e-06 0)
(0 -2.29353e-06 0)
(0 -2.83721e-06 0)
(0 -2.44361e-06 0)
(0 -3.0196e-06 0)
(0 -2.62976e-06 0)
(0 -3.23002e-06 0)
(0 -2.85486e-06 0)
(0 -3.47563e-06 0)
(0 -3.09597e-06 0)
(0 -3.74018e-06 0)
(0 -3.35424e-06 0)
(0 -4.01363e-06 0)
(0 -3.65519e-06 0)
(0 -4.34046e-06 0)
(0 -3.98946e-06 0)
(0 -4.69552e-06 0)
(0 -4.33728e-06 0)
(0 -5.07138e-06 0)
(0 -5.50602e-06 0)
(0 -3.63197e-06 0)
(0 -5.12308e-06 0)
(0 -2.88337e-06 0)
(0 -2.6736e-06 0)
(0 -2.84589e-06 0)
(0 -1.50444e-06 0)
(0 -2.75693e-06 0)
(0 -1.40433e-06 0)
(0 -1.91107e-06 0)
(0 -1.49738e-06 0)
(0 -5.01385e-05 0)
(0 -0.000159378 0)
(0 -0.000157556 0)
(0 -0.000159147 0)
(0 -0.000157277 0)
(0 -0.000158722 0)
(0 -0.000156918 0)
(0 -0.000158234 0)
(0 -0.000156445 0)
(0 -0.000157755 0)
(0 -0.000155857 0)
(0 -0.000157078 0)
(0 -0.000155155 0)
(0 -0.000156252 0)
(0 -0.000154341 0)
(0 -0.000155341 0)
(0 -0.000153399 0)
(0 -0.000154306 0)
(0 -0.000152311 0)
(0 -0.000153157 0)
(0 -0.000151073 0)
(0 -0.000151844 0)
(0 -0.000149689 0)
(0 -0.000150334 0)
(0 -0.000148075 0)
(0 -0.00014869 0)
(0 -0.000146198 0)
(0 -0.000146803 0)
(0 -0.000145668 0)
(0 -0.000143648 0)
(0 -0.000143151 0)
(0 -0.000141017 0)
(0 -0.000140519 0)
(0 -0.000138309 0)
(0 -0.00013781 0)
(0 -0.000135546 0)
(0 -0.000135025 0)
(0 -0.000132735 0)
(0 -0.000132188 0)
(0 -0.000133166 0)
(0 -0.000129864 0)
(0 -0.000129282 0)
(0 -0.00012696 0)
(0 -0.000126317 0)
(0 -0.000123989 0)
(0 -0.0001233 0)
(0 -0.000120908 0)
(0 -0.000120183 0)
(0 -0.000117752 0)
(0 -0.000116999 0)
(0 -0.000118198 0)
(0 -0.000114576 0)
(0 -0.000113789 0)
(0 -0.000111391 0)
(0 -0.000110599 0)
(0 -0.000112821 0)
(0 -0.000109655 0)
(0 -0.00011173 0)
(0 -0.000108582 0)
(0 -0.000110529 0)
(0 -0.000107376 0)
(0 -0.000105431 0)
(0 -0.000104264 0)
(0 -0.000106069 0)
(0 -0.000103017 0)
(0 -0.000104705 0)
(0 -0.000101718 0)
(0 -0.000100032 0)
(0 -9.87806e-05 0)
(0 -0.000100355 0)
(0 -9.74732e-05 0)
(0 -9.89093e-05 0)
(0 -9.61118e-05 0)
(0 -9.74311e-05 0)
(0 -9.47828e-05 0)
(0 -9.34011e-05 0)
(0 -9.21409e-05 0)
(0 -9.34627e-05 0)
(0 -9.08307e-05 0)
(0 -8.94712e-05 0)
(0 -8.81234e-05 0)
(0 -8.67741e-05 0)
(0 -8.53433e-05 0)
(0 -8.6605e-05 0)
(0 -8.37883e-05 0)
(0 -8.25606e-05 0)
(0 -8.09872e-05 0)
(0 -8.20417e-05 0)
(0 -7.92877e-05 0)
(0 -7.82386e-05 0)
(0 -7.65331e-05 0)
(0 -7.55077e-05 0)
(0 -7.37901e-05 0)
(0 -8.00773e-05 0)
(0 -7.27734e-05 0)
(0 -7.10635e-05 0)
(0 -7.00597e-05 0)
(0 -6.83576e-05 0)
(0 -6.7345e-05 0)
(0 -6.56548e-05 0)
(0 -6.66076e-05 0)
(0 -6.39814e-05 0)
(0 -6.899e-05 0)
(0 -6.48548e-05 0)
(0 -6.23624e-05 0)
(0 -6.14106e-05 0)
(0 -5.98926e-05 0)
(0 -5.89226e-05 0)
(0 -5.74675e-05 0)
(0 -0.000149701 0)
(0 -0.00014739 0)
(0 -0.000149872 0)
(0 -0.000147827 0)
(0 -0.000150202 0)
(0 -0.000148216 0)
(0 -0.000150841 0)
(0 -0.000148428 0)
(0 -0.000150794 0)
(0 -0.000148461 0)
(0 -0.000150867 0)
(0 -0.000148422 0)
(0 -0.000150761 0)
(0 -0.000148234 0)
(0 -0.000150582 0)
(0 -0.000147867 0)
(0 -0.000150256 0)
(0 -0.000147386 0)
(0 -0.000149831 0)
(0 -0.000146803 0)
(0 -0.000149293 0)
(0 -0.000146305 0)
(0 -0.000148669 0)
(0 -0.000145594 0)
(0 -0.000147791 0)
(0 -0.000144467 0)
(0 -0.000146714 0)
(0 -0.000143259 0)
(0 -0.000145553 0)
(0 -0.000142019 0)
(0 -0.000144296 0)
(0 -0.000140692 0)
(0 -0.000143032 0)
(0 -0.000144912 0)
(0 -0.000139344 0)
(0 -0.000141778 0)
(0 -0.000137888 0)
(0 -0.000140265 0)
(0 -0.000136216 0)
(0 -0.000138475 0)
(0 -0.000134449 0)
(0 -0.000136678 0)
(0 -0.000132676 0)
(0 -0.000134777 0)
(0 -0.000140979 0)
(0 -0.000130745 0)
(0 -0.000132737 0)
(0 -6.31289e-05 0)
(0 -5.65104e-05 0)
(0 -5.5101e-05 0)
(0 -0.000128663 0)
(0 -0.00013062 0)
(0 -5.41528e-05 0)
(0 -5.2784e-05 0)
(0 -0.000126501 0)
(0 -0.000128332 0)
(0 -0.000123423 0)
(0 -0.000125945 0)
(0 -5.18418e-05 0)
(0 -5.0537e-05 0)
(0 -5.14379e-05 0)
(0 -4.92405e-05 0)
(0 -0.000133956 0)
(0 -5.01019e-05 0)
(0 -4.79106e-05 0)
(0 -4.71146e-05 0)
(0 -4.57855e-05 0)
(0 -0.000121525 0)
(0 -0.000123593 0)
(0 -4.5061e-05 0)
(0 -4.37583e-05 0)
(0 -0.000119207 0)
(0 -0.000121156 0)
(0 -4.44404e-05 0)
(0 -4.24748e-05 0)
(0 -4.17839e-05 0)
(0 -4.05521e-05 0)
(0 -0.00012555 0)
(0 -0.000123131 0)
(0 -0.000118684 0)
(0 -0.000120703 0)
(0 -0.000116195 0)
(0 -0.000118249 0)
(0 -0.000122666 0)
(0 -0.000120262 0)
(0 -0.000115802 0)
(0 -0.000117852 0)
(0 -0.000113347 0)
(0 -0.00011538 0)
(0 -3.97943e-05 0)
(0 -3.86124e-05 0)
(0 -0.000119783 0)
(0 -0.000117279 0)
(0 -0.000112842 0)
(0 -0.000114706 0)
(0 -0.000110218 0)
(0 -0.000112065 0)
(0 -0.000107513 0)
(0 -0.000109341 0)
(0 -0.000113763 0)
(0 -0.00011104 0)
(0 -0.000106581 0)
(0 -0.000108284 0)
(0 -0.000103794 0)
(0 -0.000105463 0)
(0 -0.00010981 0)
(0 -0.000106972 0)
(0 -0.000102614 0)
(0 -0.00010411 0)
(0 -9.97615e-05 0)
(0 -0.000101214 0)
(0 -0.000105439 0)
(0 -0.0001025 0)
(0 -9.82941e-05 0)
(0 -9.95541e-05 0)
(0 -0.000103619 0)
(0 -0.000100589 0)
(0 -9.64839e-05 0)
(0 -9.7505e-05 0)
(0 -0.000101481 0)
(0 -9.84242e-05 0)
(0 -9.44556e-05 0)
(0 -9.53557e-05 0)
(0 -9.92194e-05 0)
(0 -9.61577e-05 0)
(0 -9.22946e-05 0)
(0 -9.31058e-05 0)
(0 -9.68571e-05 0)
(0 -9.37929e-05 0)
(0 -9.74068e-05 0)
(0 -9.43246e-05 0)
(0 -9.78041e-05 0)
(0 -9.47078e-05 0)
(0 -9.12498e-05 0)
(0 -9.16168e-05 0)
(0 -9.49404e-05 0)
(0 -9.18418e-05 0)
(0 -8.85393e-05 0)
(0 -8.87613e-05 0)
(0 -9.1948e-05 0)
(0 -8.88531e-05 0)
(0 -9.19111e-05 0)
(0 -8.87961e-05 0)
(0 -9.17221e-05 0)
(0 -8.85782e-05 0)
(0 -9.13826e-05 0)
(0 -8.82359e-05 0)
(0 -8.54443e-05 0)
(0 -8.51005e-05 0)
(0 -8.78146e-05 0)
(0 -8.46708e-05 0)
(0 -8.19838e-05 0)
(0 -8.15252e-05 0)
(0 -8.41017e-05 0)
(0 -8.09402e-05 0)
(0 -8.33845e-05 0)
(0 -7.84108e-05 0)
(0 -8.02539e-05 0)
(0 -8.25984e-05 0)
(0 -7.94773e-05 0)
(0 -8.17266e-05 0)
(0 -7.85911e-05 0)
(0 -8.07413e-05 0)
(0 -7.75966e-05 0)
(0 -7.9639e-05 0)
(0 -7.64866e-05 0)
(0 -7.44825e-05 0)
(0 -7.84104e-05 0)
(0 -7.52616e-05 0)
(0 -7.70717e-05 0)
(0 -7.39321e-05 0)
(0 -7.56556e-05 0)
(0 -7.25141e-05 0)
(0 -7.41608e-05 0)
(0 -7.7312e-05 0)
(0 -7.57465e-05 0)
(0 -7.25917e-05 0)
(0 -7.41077e-05 0)
(0 -7.09478e-05 0)
(0 -7.23923e-05 0)
(0 -3.78017e-05 0)
(0 -3.66519e-05 0)
(0 -7.8904e-05 0)
(0 -4.31e-05 0)
(0 -0.000124714 0)
(0 -0.000136733 0)
(0 -6.922e-05 0)
(0 -7.05866e-05 0)
(0 -3.58326e-05 0)
(0 -3.46562e-05 0)
(0 -3.55339e-05 0)
(0 -3.34667e-05 0)
(0 -3.26694e-05 0)
(0 -3.14515e-05 0)
(0 -0.000131301 0)
(0 -3.21734e-05 0)
(0 -3.01358e-05 0)
(0 -2.95193e-05 0)
(0 -2.81776e-05 0)
(0 -2.87679e-05 0)
(0 -2.68184e-05 0)
(0 -2.6206e-05 0)
(0 -2.4896e-05 0)
(0 -2.54826e-05 0)
(0 -2.3604e-05 0)
(0 -2.29356e-05 0)
(0 -2.18217e-05 0)
(0 -6.7403e-05 0)
(0 -6.86922e-05 0)
(0 -2.23858e-05 0)
(0 -2.07439e-05 0)
(0 -2.00557e-05 0)
(0 -1.90596e-05 0)
(0 -9.45347e-05 0)
(0 -7.18738e-05 0)
(0 -6.99032e-05 0)
(0 -7.30806e-05 0)
(0 -7.10354e-05 0)
(0 -6.78562e-05 0)
(0 -6.89223e-05 0)
(0 -8.38972e-05 0)
(0 -0.000145426 0)
(0 -6.60466e-05 0)
(0 -8.54812e-05 0)
(0 -1.96558e-05 0)
(0 -7.41985e-05 0)
(0 -3.70452e-05 0)
(0 -3.88616e-05 0)
(0 -3.17234e-05 0)
(0 -2.69027e-05 0)
(0 -6.57382e-05 0)
(0 -6.67451e-05 0)
(0 -0.000150048 0)
(0 -9.5157e-05 0)
(0 -9.29386e-05 0)
(0 -9.5992e-05 0)
(0 -9.38159e-05 0)
(0 -9.68227e-05 0)
(0 -9.46895e-05 0)
(0 -9.76684e-05 0)
(0 -9.55158e-05 0)
(0 -9.84884e-05 0)
(0 -9.63259e-05 0)
(0 -9.92382e-05 0)
(0 -9.71337e-05 0)
(0 -9.98816e-05 0)
(0 -9.78713e-05 0)
(0 -0.000100567 0)
(0 -9.84555e-05 0)
(0 -0.000101238 0)
(0 -9.89146e-05 0)
(0 -9.58243e-05 0)
(0 -0.000101968 0)
(0 -9.64857e-05 0)
(0 -9.36251e-05 0)
(0 -6.35524e-05 0)
(0 -6.45044e-05 0)
(0 -7.2419e-06 0)
(0 -7.12546e-06 0)
(0 -9.40059e-05 0)
(0 -9.12809e-05 0)
(0 -0.000153226 0)
(0 -0.000152441 0)
(0 -7.76204e-06 0)
(0 -7.66186e-06 0)
(0 -6.13029e-05 0)
(0 -6.21984e-05 0)
(0 -6.53771e-05 0)
(0 -6.30118e-05 0)
(0 -6.61531e-05 0)
(0 -9.16281e-05 0)
(0 -8.8986e-05 0)
(0 -8.31219e-06 0)
(0 -8.22186e-06 0)
(0 -8.94478e-05 0)
(0 -8.66374e-05 0)
(0 -0.000153394 0)
(0 -5.3173e-05 0)
(0 -8.71586e-05 0)
(0 -8.43065e-05 0)
(0 -8.88821e-06 0)
(0 -8.8314e-06 0)
(0 -0.000146116 0)
(0 -8.48582e-05 0)
(0 -8.19879e-05 0)
(0 -9.25172e-05 0)
(0 -8.26006e-05 0)
(0 -7.97335e-05 0)
(0 -0.000157208 0)
(0 -9.62689e-06 0)
(0 -9.48775e-06 0)
(0 -8.04182e-05 0)
(0 -7.76324e-05 0)
(0 -7.82606e-05 0)
(0 -7.55404e-05 0)
(0 -7.60488e-05 0)
(0 -7.34496e-05 0)
(0 -7.39241e-05 0)
(0 -7.1393e-05 0)
(0 -0.000132658 0)
(0 -0.000130575 0)
(0 -7.48228e-05 0)
(0 -7.18429e-05 0)
(0 -6.93836e-05 0)
(0 -1.02977e-05 0)
(0 -1.01799e-05 0)
(0 -8.33261e-05 0)
(0 -0.000133008 0)
(0 -0.000130915 0)
(0 -6.97685e-05 0)
(0 -6.74122e-05 0)
(0 -6.68889e-05 0)
(0 -6.50204e-05 0)
(0 -6.55271e-05 0)
(0 -6.31987e-05 0)
(0 -6.36998e-05 0)
(0 -6.13995e-05 0)
(0 -6.08677e-05 0)
(0 -5.91191e-05 0)
(0 -5.96576e-05 0)
(0 -5.74337e-05 0)
(0 -5.79399e-05 0)
(0 -5.57698e-05 0)
(0 -5.62592e-05 0)
(0 -5.41441e-05 0)
(0 -5.46447e-05 0)
(0 -5.26017e-05 0)
(0 -5.31096e-05 0)
(0 -5.11307e-05 0)
(0 -5.1636e-05 0)
(0 -4.97114e-05 0)
(0 -8.40082e-05 0)
(0 -0.00013326 0)
(0 -0.000131204 0)
(0 -5.51702e-05 0)
(0 -1.10136e-05 0)
(0 -1.0925e-05 0)
(0 -1.11279e-05 0)
(0 -4.91636e-05 0)
(0 -4.78116e-05 0)
(0 -4.83401e-05 0)
(0 -4.6539e-05 0)
(0 -0.000133893 0)
(0 -0.000131412 0)
(0 -4.70285e-05 0)
(0 -4.52892e-05 0)
(0 -1.0086e-05 0)
(0 -1.08432e-05 0)
(0 -0.00013364 0)
(0 -0.000131464 0)
(0 -0.00013368 0)
(0 -0.000131501 0)
(0 -0.00013406 0)
(0 -0.000131466 0)
(0 -0.000133575 0)
(0 -0.000131286 0)
(0 -1.00064e-05 0)
(0 -1.07619e-05 0)
(0 -9.25586e-05 0)
(0 -9.94245e-06 0)
(0 -1.0716e-05 0)
(0 -9.89361e-06 0)
(0 -1.07242e-05 0)
(0 -9.85924e-06 0)
(0 -1.07197e-05 0)
(0 -1.17625e-05 0)
(0 -1.16334e-05 0)
(0 -1.07059e-05 0)
(0 -1.16312e-05 0)
(0 -1.07199e-05 0)
(0 -1.16713e-05 0)
(0 -1.07584e-05 0)
(0 -1.17341e-05 0)
(0 -1.08147e-05 0)
(0 -1.18225e-05 0)
(0 -1.09259e-05 0)
(0 -1.19206e-05 0)
(0 -1.10531e-05 0)
(0 -1.20708e-05 0)
(0 -1.12036e-05 0)
(0 -1.22767e-05 0)
(0 -1.14071e-05 0)
(0 -1.24969e-05 0)
(0 -1.16296e-05 0)
(0 -1.27561e-05 0)
(0 -1.18897e-05 0)
(0 -1.30533e-05 0)
(0 -1.39475e-05 0)
(0 -1.42788e-05 0)
(0 -1.33826e-05 0)
(0 -1.46441e-05 0)
(0 -1.37467e-05 0)
(0 -1.506e-05 0)
(0 -1.41596e-05 0)
(0 -1.55128e-05 0)
(0 -1.46207e-05 0)
(0 -1.60185e-05 0)
(0 -1.28778e-05 0)
(0 -1.55856e-05 0)
(0 -1.51322e-05 0)
(0 -1.65807e-05 0)
(0 -1.56959e-05 0)
(0 -1.71987e-05 0)
(0 -1.6318e-05 0)
(0 -1.78774e-05 0)
(0 -1.69953e-05 0)
(0 -1.86065e-05 0)
(0 -1.95139e-05 0)
(0 -2.02827e-05 0)
(0 -1.93763e-05 0)
(0 -2.1085e-05 0)
(0 -2.01758e-05 0)
(0 -2.19139e-05 0)
(0 -2.1056e-05 0)
(0 -2.27118e-05 0)
(0 -2.18485e-05 0)
(0 -2.35622e-05 0)
(0 -2.26177e-05 0)
(0 -2.44386e-05 0)
(0 -2.35349e-05 0)
(0 -2.5366e-05 0)
(0 -2.45119e-05 0)
(0 -2.63672e-05 0)
(0 -2.12364e-05 0)
(0 -2.70835e-05 0)
(0 -4.57713e-05 0)
(0 -4.40776e-05 0)
(0 -4.60149e-05 0)
(0 -1.1876e-05 0)
(0 -1.19699e-05 0)
(0 -1.25736e-05 0)
(0 -4.45291e-05 0)
(0 -4.28885e-05 0)
(0 -6.03387e-05 0)
(0 1.55897e-06 0)
(0 1.42858e-06 0)
(0 1.47829e-06 0)
(0 1.60029e-06 0)
(0 1.52019e-06 0)
(0 1.63379e-06 0)
(0 1.55253e-06 0)
(0 1.65948e-06 0)
(0 1.57511e-06 0)
(0 1.67503e-06 0)
(0 1.59017e-06 0)
(0 1.68423e-06 0)
(0 1.5988e-06 0)
(0 1.69042e-06 0)
(0 1.60184e-06 0)
(0 1.69273e-06 0)
(0 1.59995e-06 0)
(0 1.49632e-06 0)
(0 1.45757e-06 0)
(0 -4.33466e-05 0)
(0 -4.17255e-05 0)
(0 -4.13014e-05 0)
(0 -4.01183e-05 0)
(0 -4.05641e-05 0)
(0 -3.89004e-05 0)
(0 -3.93315e-05 0)
(0 -3.76214e-05 0)
(0 -3.79605e-05 0)
(0 -3.63207e-05 0)
(0 -3.65742e-05 0)
(0 -3.50742e-05 0)
(0 -7.41341e-05 0)
(0 -0.000164101 0)
(0 -0.000133357 0)
(0 -0.000131079 0)
(0 -3.47303e-05 0)
(0 -3.35406e-05 0)
(0 -3.39074e-05 0)
(0 -3.23197e-05 0)
(0 -1.27648e-05 0)
(0 -1.28512e-05 0)
(0 -5.66848e-05 0)
(0 -8.35452e-05 0)
(0 -4.61654e-05 0)
(0 -0.000108204 0)
(0 -9.71047e-05 0)
(0 -3.24967e-05 0)
(0 -3.10519e-05 0)
(0 -4.07509e-05 0)
(0 -6.48869e-05 0)
(0 -3.84599e-05 0)
(0 1.33073e-06 0)
(0 -2.38461e-05 0)
(0 -5.06099e-05 0)
(0 -0.000100891 0)
(0 -8.92594e-05 0)
(0 -0.000100155 0)
(0 -0.000105571 0)
(0 -0.000139047 0)
(0 -7.08078e-05 0)
(0 -0.000101327 0)
(0 -0.000117338 0)
(0 -0.000122675 0)
(0 -0.000121554 0)
(0 -0.000139893 0)
(0 -0.000103372 0)
(0 -0.000165385 0)
(0 -0.000108846 0)
(0 -0.000105652 0)
(0 -0.000106122 0)
(0 -0.0001029 0)
(0 -0.000103205 0)
(0 -9.99392e-05 0)
(0 -0.000100087 0)
(0 -9.67844e-05 0)
(0 -9.67662e-05 0)
(0 -9.33773e-05 0)
(0 -9.32481e-05 0)
(0 -8.97187e-05 0)
(0 -8.95883e-05 0)
(0 -9.30172e-05 0)
(0 -8.87712e-05 0)
(0 -9.27837e-05 0)
(0 -8.89548e-05 0)
(0 -9.24327e-05 0)
(0 -8.86445e-05 0)
(0 -9.20685e-05 0)
(0 -8.82461e-05 0)
(0 -9.17992e-05 0)
(0 -8.60287e-05 0)
(0 -8.60834e-05 0)
(0 -8.78486e-05 0)
(0 -9.17145e-05 0)
(0 -8.74398e-05 0)
(0 -9.13706e-05 0)
(0 -8.21464e-05 0)
(0 -8.23279e-05 0)
(0 -8.68771e-05 0)
(0 -9.07295e-05 0)
(0 -7.82367e-05 0)
(0 -7.84884e-05 0)
(0 -8.61149e-05 0)
(0 -8.99103e-05 0)
(0 -8.51394e-05 0)
(0 -8.89191e-05 0)
(0 -7.44366e-05 0)
(0 -7.46573e-05 0)
(0 -8.40007e-05 0)
(0 -8.40437e-05 0)
(0 -8.78296e-05 0)
(0 -7.07634e-05 0)
(0 -7.08095e-05 0)
(0 -8.28466e-05 0)
(0 -8.65772e-05 0)
(0 -8.14518e-05 0)
(0 -8.51666e-05 0)
(0 -6.70481e-05 0)
(0 -6.69557e-05 0)
(0 -6.66387e-05 0)
(0 -9.37046e-05 0)
(0 -7.98939e-05 0)
(0 -8.36595e-05 0)
(0 -8.89369e-05 0)
(0 -8.74581e-05 0)
(0 -8.20859e-05 0)
(0 -8.59144e-05 0)
(0 -8.05956e-05 0)
(0 -8.42455e-05 0)
(0 -8.1256e-05 0)
(0 -6.34976e-05 0)
(0 -6.31639e-05 0)
(0 -7.89036e-05 0)
(0 -8.24129e-05 0)
(0 -6.68126e-05 0)
(0 -6.29698e-05 0)
(0 -5.87845e-05 0)
(0 -5.92117e-05 0)
(0 -6.29472e-05 0)
(0 -5.93214e-05 0)
(0 -7.71254e-05 0)
(0 -8.06025e-05 0)
(0 -9.26944e-05 0)
(0 -5.57509e-05 0)
(0 -5.57733e-05 0)
(0 -9.53403e-05 0)
(0 -7.55326e-05 0)
(0 -7.88763e-05 0)
(0 -8.4272e-05 0)
(0 -8.24098e-05 0)
(0 -7.68612e-05 0)
(0 -8.04188e-05 0)
(0 -7.4674e-05 0)
(0 -7.83835e-05 0)
(0 -6.2843e-05 0)
(0 -5.23178e-05 0)
(0 -5.22889e-05 0)
(0 -7.61499e-05 0)
(0 -7.25853e-05 0)
(0 -7.62587e-05 0)
(0 -8.80138e-05 0)
(0 -6.9777e-05 0)
(0 -7.4207e-05 0)
(0 -4.88413e-05 0)
(0 -4.89212e-05 0)
(0 -8.02086e-05 0)
(0 -7.80456e-05 0)
(0 -7.11972e-05 0)
(0 -7.58985e-05 0)
(0 -6.97437e-05 0)
(0 -7.38468e-05 0)
(0 -5.2422e-05 0)
(0 -4.92186e-05 0)
(0 -5.27117e-05 0)
(0 -4.95471e-05 0)
(0 -4.60757e-05 0)
(0 -4.63082e-05 0)
(0 -4.97455e-05 0)
(0 -4.64109e-05 0)
(0 -4.29643e-05 0)
(0 -4.30269e-05 0)
(0 -4.89009e-05 0)
(0 -2.37384e-05 0)
(0 -7.3138e-05 0)
(0 -0.000159527 0)
(0 -4.96611e-05 0)
(0 -3.1237e-05 0)
(0 -2.97611e-05 0)
(0 -3.27673e-05 0)
(0 -6.78826e-05 0)
(0 -7.169e-05 0)
(0 -1.68685e-05 0)
(0 -0.000128899 0)
(0 -0.00012866 0)
(0 -0.00013332 0)
(0 -1.32802e-05 0)
(0 -1.36864e-05 0)
(0 -1.37653e-05 0)
(0 -3.32235e-05 0)
(0 -1.03613e-05 0)
(0 -3.94855e-05 0)
(0 -3.94979e-05 0)
(0 -6.58132e-05 0)
(0 -6.93281e-05 0)
(0 -8.40906e-05 0)
(0 -9.82027e-06 0)
(0 -9.13486e-06 0)
(0 -0.000126518 0)
(0 -0.000126238 0)
(0 -0.000135649 0)
(0 -2.99342e-05 0)
(0 -2.84281e-05 0)
(0 -2.82933e-05 0)
(0 -2.69241e-05 0)
(0 -4.53773e-05 0)
(0 -4.54526e-05 0)
(0 -1.54532e-05 0)
(0 -7.85004e-05 0)
(0 -2.70309e-05 0)
(0 -2.55363e-05 0)
(0 -2.54179e-05 0)
(0 -2.40744e-05 0)
(0 -2.39477e-05 0)
(0 -2.26767e-05 0)
(0 -2.27816e-05 0)
(0 -2.14655e-05 0)
(0 1.77873e-06 0)
(0 -2.15271e-05 0)
(0 -6.92883e-05 0)
(0 -6.30852e-05 0)
(0 -6.67494e-05 0)
(0 -0.000129057 0)
(0 -3.9749e-05 0)
(0 -7.53446e-05 0)
(0 -3.90862e-05 0)
(0 -3.56476e-05 0)
(0 -3.82798e-05 0)
(0 -3.48191e-05 0)
(0 -3.74153e-05 0)
(0 -3.39439e-05 0)
(0 -3.65011e-05 0)
(0 -3.30158e-05 0)
(0 -3.55395e-05 0)
(0 -0.000124132 0)
(0 -0.000123838 0)
(0 -0.000125914 0)
(0 -0.000123427 0)
(0 -0.000121382 0)
(0 -0.000120895 0)
(0 -0.000118831 0)
(0 -0.000122927 0)
(0 -3.58867e-05 0)
(0 -3.5937e-05 0)
(0 -3.94089e-05 0)
(0 -3.60413e-05 0)
(0 -3.93193e-05 0)
(0 -3.61893e-05 0)
(0 -3.92891e-05 0)
(0 -3.63016e-05 0)
(0 -3.31602e-05 0)
(0 -3.33592e-05 0)
(0 -3.62984e-05 0)
(0 -3.34491e-05 0)
(0 -3.05909e-05 0)
(0 -3.07422e-05 0)
(0 -3.20555e-05 0)
(0 -3.45526e-05 0)
(0 -3.10689e-05 0)
(0 -3.3527e-05 0)
(0 -5.91016e-05 0)
(0 -6.42137e-05 0)
(0 -1.46306e-05 0)
(0 -1.45764e-05 0)
(0 -1.46902e-05 0)
(0 -0.000118522 0)
(0 -2.79546e-05 0)
(0 -2.81137e-05 0)
(0 -0.000120311 0)
(0 -0.000122268 0)
(0 -3.61671e-05 0)
(0 -0.000135372 0)
(0 -9.94282e-05 0)
(0 -3.2286e-05 0)
(0 -3.21839e-05 0)
(0 -6.34211e-05 0)
(0 -3.00539e-05 0)
(0 -3.24596e-05 0)
(0 -3.5896e-05 0)
(0 -3.47786e-05 0)
(0 -3.13834e-05 0)
(0 -3.36642e-05 0)
(0 -3.70193e-05 0)
(0 -3.58629e-05 0)
(0 -3.25416e-05 0)
(0 -3.46988e-05 0)
(0 -3.14088e-05 0)
(0 -3.35212e-05 0)
(0 -3.67671e-05 0)
(0 -3.55387e-05 0)
(0 -3.87621e-05 0)
(0 -3.7466e-05 0)
(0 -3.42928e-05 0)
(0 -3.61561e-05 0)
(0 -3.30266e-05 0)
(0 -3.48299e-05 0)
(0 -3.79254e-05 0)
(0 -3.65337e-05 0)
(0 -3.34805e-05 0)
(0 -3.51183e-05 0)
(0 -3.81352e-05 0)
(0 -3.66453e-05 0)
(0 -3.96298e-05 0)
(0 -3.8061e-05 0)
(0 -3.51351e-05 0)
(0 -3.64673e-05 0)
(0 -3.93608e-05 0)
(0 -3.7679e-05 0)
(0 -4.05247e-05 0)
(0 -3.87641e-05 0)
(0 -3.59785e-05 0)
(0 -3.69954e-05 0)
(0 -3.97795e-05 0)
(0 -3.78988e-05 0)
(0 -3.51894e-05 0)
(0 -3.59939e-05 0)
(0 -3.86721e-05 0)
(0 -3.66739e-05 0)
(0 -3.93257e-05 0)
(0 -3.7236e-05 0)
(0 -3.46645e-05 0)
(0 -3.98742e-05 0)
(0 -3.76841e-05 0)
(0 -4.0301e-05 0)
(0 -3.80105e-05 0)
(0 -4.05896e-05 0)
(0 -3.81987e-05 0)
(0 -4.07227e-05 0)
(0 -3.82325e-05 0)
(0 -4.07109e-05 0)
(0 -3.57726e-05 0)
(0 -3.81158e-05 0)
(0 -4.05556e-05 0)
(0 -3.78483e-05 0)
(0 -4.02491e-05 0)
(0 -3.74278e-05 0)
(0 -3.97957e-05 0)
(0 -4.26684e-05 0)
(0 -4.21822e-05 0)
(0 -3.91955e-05 0)
(0 -4.15461e-05 0)
(0 -4.4585e-05 0)
(0 -4.39234e-05 0)
(0 -4.07608e-05 0)
(0 -4.31241e-05 0)
(0 -4.29382e-05 0)
(0 -4.70457e-05 0)
(0 -3.98352e-05 0)
(0 -4.21767e-05 0)
(0 -3.8766e-05 0)
(0 -4.10771e-05 0)
(0 -4.45564e-05 0)
(0 -4.34242e-05 0)
(0 -4.69649e-05 0)
(0 -4.5809e-05 0)
(0 -4.2142e-05 0)
(0 -4.45008e-05 0)
(0 -4.82466e-05 0)
(0 -4.68887e-05 0)
(0 -4.30536e-05 0)
(0 -4.5418e-05 0)
(0 -4.94062e-05 0)
(0 -4.79304e-05 0)
(0 -3.51018e-05 0)
(0 -3.64956e-05 0)
(0 -4.38225e-05 0)
(0 -4.62453e-05 0)
(0 -5.05026e-05 0)
(0 -4.86957e-05 0)
(0 -4.44312e-05 0)
(0 -4.68828e-05 0)
(0 -3.53081e-05 0)
(0 -3.31182e-05 0)
(0 -5.13017e-05 0)
(0 -4.95358e-05 0)
(0 -4.49699e-05 0)
(0 -4.75283e-05 0)
(0 -5.22917e-05 0)
(0 -5.01806e-05 0)
(0 -5.49968e-05 0)
(0 -5.29225e-05 0)
(0 -4.80067e-05 0)
(0 -5.067e-05 0)
(0 -5.56292e-05 0)
(0 -5.33267e-05 0)
(0 -4.82525e-05 0)
(0 -5.08759e-05 0)
(0 -5.59543e-05 0)
(0 -5.35127e-05 0)
(0 -5.86085e-05 0)
(0 -5.61753e-05 0)
(0 -5.08732e-05 0)
(0 -5.35075e-05 0)
(0 -5.88698e-05 0)
(0 -5.6166e-05 0)
(0 -6.15937e-05 0)
(0 -5.88449e-05 0)
(0 -5.3319e-05 0)
(0 -5.59663e-05 0)
(0 -6.15267e-05 0)
(0 -5.86357e-05 0)
(0 -5.29964e-05 0)
(0 -5.57007e-05 0)
(0 -6.13584e-05 0)
(0 -5.84655e-05 0)
(0 -3.18303e-05 0)
(0 -2.97265e-05 0)
(0 -5.77947e-05 0)
(0 -6.21303e-05 0)
(0 -6.82345e-05 0)
(0 -6.60544e-05 0)
(0 -5.99071e-05 0)
(0 -6.37206e-05 0)
(0 -6.99601e-05 0)
(0 -6.75134e-05 0)
(0 -6.12676e-05 0)
(0 -6.49606e-05 0)