/*--------------------------------*- C++ -*----------------------------------*\
| =========                 |                                                 |
| \\      /  F ield         | OpenFOAM: The Open Source CFD Toolbox           |
|  \\    /   O peration     | Version:  v2012                                 |
|   \\  /    A nd           | Website:  www.openfoam.com                      |
|    \\/     M anipulation  |                                                 |
\*---------------------------------------------------------------------------*/
FoamFile
{
    version     2.0;
    format      ascii;
    class       volVectorField;
    location    "600";
    object      U;
}
// * * * * * * * * * * * * * * * * * * * * * * * * * * * * * * * * * * * * * //

dimensions      [0 1 -1 0 0 0 0];


internalField   nonuniform List<vector> 
18355
(
(0.961672 0.199541 0)
(1.00882 -0.000109708 2.08752e-22)
(1.15709 0.0340806 0)
(1.01055 0.00111261 1.08093e-21)
(0.992104 0.0131558 0)
(0.952202 -0.107143 1.83139e-22)
(1.0137 -0.00119146 -6.17828e-22)
(0.993848 0.0169618 1.74828e-21)
(1.00507 7.55172e-05 1.76876e-21)
(1.0805 0.0229194 3.41674e-21)
(1.01105 0.00780551 -2.07192e-21)
(1.08694 0.0321675 -9.18966e-21)
(1.08647 0.0313078 4.83454e-21)
(0.924892 0.135141 0)
(1.0071 0.000144179 3.82701e-22)
(1.00962 -0.000557985 -1.53305e-21)
(1.01046 0.00105022 -1.01069e-21)
(1.0175 0.00777272 -1.92805e-21)
(1.1246 0.125185 -8.13313e-23)
(1.01081 0.00423186 1.82048e-21)
(0.824619 0.0730397 5.35715e-21)
(1.02293 0.0131224 -5.32927e-22)
(1.00789 -3.47905e-05 -8.09675e-22)
(0.96281 -0.104346 3.27589e-22)
(1.00785 -2.09629e-05 9.08717e-22)
(1.01169 0.000724181 9.33764e-22)
(1.01309 -0.00146892 -5.27322e-22)
(1.01088 0.00206097 5.7004e-22)
(1.00392 -8.11758e-06 -1.8381e-21)
(1.01155 0.00568986 2.78961e-21)
(0.92201 -0.27183 6.69153e-21)
(0.971279 0.0202496 -3.27965e-21)
(1.01123 -0.000812164 0)
(1.00933 -0.000370607 1.32225e-21)
(1.0063 -8.36443e-05 -6.48088e-23)
(1.00916 0.00545798 0)
(1.04896 0.0323256 1.81298e-21)
(1.00887 0.00524149 -4.2353e-22)
(1.01114 0.00463057 1.59083e-21)
(1.01604 0.00984852 1.18478e-21)
(1.01353 0.000184814 -5.36846e-22)
(1.01043 0.00686991 -2.5917e-21)
(1.00936 -0.000373066 7.10135e-22)
(1.00862 -8.75284e-05 -8.32143e-22)
(1.0087 -0.000102514 -4.35709e-22)
(1.06653 0.0208409 0)
(1.01044 0.00267023 7.01974e-22)
(1.01033 0.00254868 -9.43947e-22)
(0.92804 -0.286602 -5.5619e-21)
(1.01063 0.00107445 5.82655e-22)
(1.00645 -4.97833e-05 -1.97993e-21)
(0.744862 0.213416 8.12333e-22)
(1.01064 0.00117927 0)
(1.04875 0.149237 0)
(1.0162 0.00352003 8.90001e-24)
(1.01021 0.00433961 -8.68674e-22)
(1.00573 -5.49818e-05 6.79319e-22)
(0.881067 -0.282007 4.02524e-21)
(1.01138 0.000577995 -2.07596e-21)
(0.843638 0.0305014 0)
(1.00942 -0.000384199 -1.37014e-21)
(1.09209 0.0397196 -6.63146e-21)
(1.0419 0.147895 0)
(1.01562 0.000737588 0)
(0.958672 0.0425488 -3.52948e-21)
(1.0071 -0.000118128 -7.99402e-22)
(1.02394 0.0242236 -1.10005e-21)
(1.04842 0.0332061 0)
(1.00962 -0.000520576 1.35416e-21)
(1.10328 0.02395 -4.25629e-21)
(1.01066 0.000472045 -6.25632e-25)
(1.01632 0.00367222 2.50867e-22)
(0.983324 0.0195119 1.36097e-21)
(1.02001 0.00778208 0)
(0.956094 -0.0281337 7.44916e-23)
(1.00965 -0.000483353 3.27429e-22)
(0.877722 -0.27672 -1.43338e-20)
(1.00974 -0.000489913 -6.3812e-22)
(1.01062 0.000462833 5.69189e-22)
(0.962022 -0.0348883 0)
(1.02305 0.0239026 -8.07118e-22)
(0.979234 -0.061092 7.06784e-22)
(1.00971 -0.000520631 -1.38075e-21)
(1.01913 0.0267317 -7.34161e-23)
(1.0064 0.0730389 7.3957e-23)
(1.00374 2.1983e-05 1.87078e-22)
(1.0068 0.000263776 1.12575e-21)
(1.02522 0.0626384 8.89907e-22)
(1.00966 0.00138861 1.94398e-21)
(1.02236 0.0629153 6.40559e-22)
(0.859305 0.281311 0)
(0.854639 0.0448828 -7.4103e-21)
(0.989957 -0.0590695 0)
(1.0106 0.00085443 0)
(1.05289 0.176219 0)
(1.0137 0.00203316 -9.24413e-22)
(1.0093 0.00143838 4.7584e-22)
(1.01357 0.00145716 -1.77971e-21)
(1.07893 0.0851257 -2.01884e-21)
(1.02139 0.0124128 4.39956e-22)
(1.00768 0.0701925 0)
(1.01049 0.000538393 -1.0811e-21)
(1.01061 0.000796085 -3.01138e-25)
(1.01133 -0.000568091 2.24565e-23)
(1.02162 0.0244568 0)
(1.00969 -0.000577566 8.87507e-22)
(0.957225 0.0375997 5.09543e-23)
(1.03801 0.200253 0)
(1.0377 0.0494882 -6.15592e-21)
(1.00957 -0.000478244 -1.17006e-21)
(1.00691 -0.000117133 -3.71285e-22)
(1.0043 -4.11582e-05 -1.20528e-21)
(0.997028 0.00941888 1.00353e-21)
(1.01902 0.0255319 -3.97897e-22)
(1.07615 -0.00964655 -3.71097e-22)
(1.00534 0.0205536 6.46555e-22)
(1.01044 0.000524033 1.57858e-21)
(0.952465 -0.0480049 0)
(1.02031 0.0187983 3.71507e-22)
(1.02491 0.0236365 4.95667e-22)
(1.10099 0.0258091 -3.26907e-22)
(1.15687 0.0268821 0)
(0.84593 0.279149 0)
(1.023 0.0716384 -1.03857e-21)
(0.959024 -0.0555017 1.61781e-21)
(1.06859 0.0124253 -6.92461e-21)
(1.01361 -0.00147124 0)
(1.01049 0.000914921 9.54797e-22)
(0.968148 0.210178 0)
(1.02195 0.0103357 1.1217e-21)
(1.00936 0.00147246 0)
(0.720057 0.22488 0)
(1.0151 0.0055106 0)
(1.09327 0.0622354 9.58414e-22)
(0.975066 0.108762 0)
(1.00972 0.00125122 0)
(1.13076 0.12121 -8.936e-21)
(1.09085 0.0923819 -2.03018e-21)
(1.01245 0.000971805 6.56775e-23)
(0.839727 0.0485397 7.22803e-21)
(1.03904 0.0292802 -2.64633e-21)
(1.00182 -0.0247091 -1.45574e-21)
(1.01005 0.00235102 5.07552e-22)
(0.782331 0.244745 -1.8625e-22)
(0.969867 0.107096 0)
(1.01436 0.000344362 0)
(0.789332 0.0168768 0)
(1.01353 -0.00166383 6.61131e-23)
(0.998032 0.00769168 -9.52189e-22)
(1.01687 -0.102471 6.48447e-23)
(1.01077 0.00194378 0)
(1.02511 0.0230307 6.13496e-22)
(1.01482 -0.0021324 0)
(1.01519 -0.0111358 1.89254e-21)
(1.00946 -0.000390614 -1.09013e-21)
(1.00742 1.68376e-05 9.77983e-22)
(1.01038 0.00084092 -8.8955e-22)
(1.00424 -1.30621e-06 0)
(1.01013 0.00244326 -7.30883e-25)
(1.00723 1.16267e-05 -4.82876e-23)
(1.01617 0.00718236 0)
(1.01514 0.00568922 1.48986e-22)
(1.00953 -0.000489717 -9.83693e-23)
(1.00924 -0.0163217 -1.51834e-21)
(1.01875 0.00594129 0)
(1.06409 -0.00411586 2.02621e-23)
(0.768449 0.0230098 0)
(0.930001 0.210416 1.01772e-22)
(0.731855 -0.229997 1.29111e-20)
(1.03816 0.0297139 2.22267e-21)
(1.0047 -5.84786e-05 4.71127e-22)
(1.09058 0.0618219 -7.14039e-21)
(1.00396 -3.91979e-05 5.73095e-22)
(0.950179 -0.281204 6.06518e-21)
(1.00554 -7.73282e-05 -5.15545e-22)
(1.01373 0.000269601 0)
(1.00502 -6.51792e-05 4.73388e-22)
(1.01205 -0.000966441 8.42425e-23)
(1.04003 0.0130635 -3.43106e-21)
(1.01093 0.035042 0)
(1.00369 -5.56996e-06 -8.45531e-22)
(1.0602 0.00388757 -3.82978e-22)
(1.02248 0.0118466 1.13125e-21)
(1.01119 0.00252563 3.13629e-22)
(1.04619 -0.00791158 0)
(1.01065 0.000604125 5.98495e-22)
(1.00485 2.65362e-05 -8.20964e-22)
(1.01788 0.0602206 0)
(1.01617 0.000999137 0)
(1.01305 -0.00182489 6.00372e-22)
(1.0683 0.0155604 2.82828e-21)
(1.0808 0.081952 2.16636e-21)
(1.00896 -0.000147692 -8.33958e-22)
(1.01106 -0.000929793 -1.33531e-21)
(1.01546 0.000188867 0)
(1.07231 -0.0151974 0)
(1.00719 -9.85176e-05 6.86532e-22)
(0.941339 0.235333 -1.83794e-21)
(1.00891 -0.000126289 4.35787e-22)
(0.908573 0.131322 -1.21698e-22)
(1.01068 0.00056949 -1.09761e-21)
(1.01715 0.0096909 -1.2548e-21)
(1.01255 0.00355038 -1.56385e-21)
(1.0046 -7.51778e-06 -4.05205e-22)
(0.942425 0.211601 0)
(1.02239 0.00873756 0)
(0.745017 -0.251066 -1.21225e-20)
(1.01108 0.00249287 7.59531e-22)
(1.01112 -0.000797924 -1.17139e-21)
(1.0134 -0.00236133 1.02246e-21)
(1.01809 0.00944909 1.42973e-22)
(1.01087 -0.0672882 -1.39391e-21)
(1.01842 -0.00198791 0)
(1.01732 -0.00183287 0)
(1.01375 -0.00175715 0)
(0.958313 -0.290051 6.67694e-21)
(1.00992 0.033856 0)
(1.04803 0.02496 -4.14656e-21)
(1.02204 0.00926847 0)
(1.0104 0.00273399 1.46058e-21)
(1.03738 0.0477272 4.36212e-22)
(1.01081 -0.0010538 6.48573e-22)
(1.02856 0.0588912 9.57075e-22)
(1.00866 -0.00893453 -7.47426e-22)
(1.04257 0.0172136 0)
(1.01911 0.00211175 0)
(1.01084 -0.00103205 3.21204e-22)
(1.07981 0.0942155 2.27174e-21)
(0.966232 0.169004 -5.94933e-22)
(0.991521 0.0271288 -4.8893e-22)
(1.01389 0.000336833 3.00101e-22)
(1.02245 0.0248032 2.06158e-21)
(1.07101 -0.0103209 -1.38149e-21)
(1.01091 -0.00106797 -1.3361e-21)
(1.01247 -0.0177869 -7.01139e-22)
(1.03941 0.012729 -6.67006e-22)
(1.03348 0.00899651 -4.26498e-21)
(1.06628 0.0184246 0)
(1.05381 0.0175524 7.72821e-21)
(1.01681 -0.00243276 -9.50513e-22)
(1.00914 -0.000150794 -1.5984e-21)
(1.03938 0.0126489 -5.4381e-22)
(1.01596 -0.00211024 0)
(0.995389 0.0298313 -3.21072e-21)
(1.022 0.00889243 0)
(1.01626 0.00319197 0)
(1.01039 0.00244637 0)
(1.01984 -0.0618142 1.01772e-21)
(0.991491 -0.0840976 0)
(1.01102 0.000172193 -2.30966e-21)
(1.01629 0.00114243 0)
(1.00233 -0.0802665 -2.83492e-22)
(1.11703 0.0262666 1.1833e-21)
(1.00717 -0.00758515 -2.41733e-22)
(1.01192 -0.000921022 -7.75953e-23)
(1.01315 -0.0175901 8.11682e-22)
(1.05307 0.018084 -1.24377e-20)
(1.01344 0.000504171 -2.6383e-22)
(1.01863 0.00305949 9.55322e-22)
(1.00899 0.00102536 1.06657e-21)
(1.02922 -0.0873348 -1.66959e-22)
(0.988719 0.0206545 -7.21915e-22)
(1.07698 0.0772152 -4.60173e-21)
(1.06417 0.0273648 -4.33871e-21)
(1.01241 0.00223575 1.76053e-21)
(1.02497 -0.0212966 0)
(0.999936 -0.0162775 7.52741e-22)
(1.08094 0.092869 -4.18858e-21)
(1.00897 0.000982603 -5.40519e-22)
(1.01638 0.00337308 2.66926e-22)
(1.01244 -0.00217228 0)
(1.00979 -0.000493478 0)
(1.01711 0.010032 -1.25246e-21)
(1.04903 0.0251919 1.16955e-21)
(1.01033 0.00170093 0)
(1.01898 0.00955233 -3.86216e-22)
(1.02836 0.0175553 0)
(1.00962 0.00118631 0)
(1.00876 0.108511 0)
(0.981975 -0.122115 -1.17537e-20)
(1.02682 0.0139613 9.61873e-22)
(1.01828 0.00974015 -2.69094e-22)
(1.00321 0.018669 -1.41298e-21)
(1.00969 -0.000463621 0)
(1.03013 0.063576 0)
(1.02219 0.00759695 0)
(1.0066 0.0342085 7.38941e-22)
(1.01424 0.000232542 1.60296e-22)
(1.00792 0.0334133 1.74614e-23)
(0.916596 -0.146793 1.04198e-21)
(1.01113 -0.000801086 0)
(1.07164 0.0479028 -3.29489e-21)
(1.02214 0.0187879 0)
(1.01503 0.0049061 1.07549e-21)
(0.997372 -0.0131729 7.47606e-22)
(1.00659 0.000129075 -1.64527e-21)
(1.01093 -0.00093771 1.72587e-21)
(1.00964 0.103462 -2.35933e-22)
(1.0187 0.00952619 2.61352e-22)
(0.997968 -0.0210485 1.67085e-21)
(1.05101 0.0313966 -1.94612e-21)
(0.92677 0.306847 1.06857e-20)
(1.03713 0.0650565 -1.61076e-21)
(1.07936 0.078327 -4.93082e-21)
(1.01774 0.00900831 -1.66976e-21)
(1.03042 0.0187511 -4.40082e-21)
(1.01071 0.00125262 1.29258e-21)
(1.05025 0.0152446 -8.84135e-21)
(1.06317 0.0268957 7.27407e-21)
(1.07089 0.0491017 3.38689e-21)
(1.05541 0.00339843 0)
(1.14423 0.00544824 0)
(1.01103 0.00348033 7.04045e-22)
(1.00418 0.00448769 -1.53015e-21)
(1.03476 0.137109 0)
(1.00167 0.018511 -1.92771e-21)
(1.01102 0.00342982 1.09778e-21)
(1.01024 0.00248632 -1.86696e-21)
(1.01055 0.0023457 7.72495e-22)
(1.08053 0.0372671 -1.49734e-20)
(1.14093 0.00194999 0)
(0.92723 -0.0248558 -2.24372e-20)
(1.05486 0.0128507 0)
(1.02902 0.0146566 1.05161e-21)
(1.04 0.0276296 -6.89217e-21)
(1.03156 -0.0460787 0)
(1.01316 -0.00160639 3.41578e-23)
(1.02231 0.00837257 0)
(1.03898 0.0279152 3.98831e-21)
(1.01851 0.00529786 0)
(0.992382 0.0298405 2.46001e-21)
(1.00711 -5.35302e-05 0)
(1.07934 -0.0979286 0)
(1.00997 -0.000619375 -7.55557e-22)
(0.957093 -0.0699632 8.04857e-22)
(1.01488 0.000605479 0)
(1.01613 0.0098358 -6.26198e-22)
(1.01859 0.00945771 4.67962e-22)
(1.09068 0.0266114 0)
(0.909032 0.220583 7.12903e-23)
(0.996397 0.0320577 -1.48196e-21)
(1.04834 0.0154049 0)
(1.01844 0.0121642 -2.04962e-23)
(1.00975 0.00146594 -2.54682e-21)
(1.01822 0.00514985 -5.21365e-23)
(1.01807 0.00605121 -8.4822e-22)
(1.08765 0.0130446 -5.00517e-21)
(1.00988 0.00164091 1.4209e-23)
(1.01115 0.000615913 2.07957e-22)
(1.03654 -0.0339173 0)
(1.01932 0.0120901 0)
(1.00995 0.00154207 2.77715e-22)
(1.10506 0.0210392 -6.71143e-22)
(1.01761 0.00499356 1.24422e-22)
(1.01048 0.00240195 -1.09169e-21)
(1.01347 -1.46748e-05 5.74495e-24)
(1.00412 0.0344029 1.32535e-22)
(1.01206 0.000555531 -1.92565e-23)
(1.00297 0.0327112 -1.02689e-21)
(1.01206 -0.00145668 -6.97323e-22)
(1.01133 0.000671442 4.12635e-23)
(1.02111 0.0120165 0)
(0.903426 0.0235687 0)
(1.03367 -0.0291424 0)
(1.01197 -0.00142553 7.90538e-24)
(1.00993 0.0021991 0)
(1.0282 0.0111872 -2.18027e-21)
(1.01066 0.00238643 0)
(1.0047 -2.23867e-05 0)
(1.04303 -0.047606 -2.47574e-22)
(1.02688 -0.0331072 -6.98825e-22)
(1.02905 0.0222355 3.60301e-21)
(1.01774 0.00510254 7.7008e-22)
(1.03389 0.00948509 0)
(1.08738 0.0301762 2.49682e-21)
(1.01001 -0.000797622 -1.15552e-23)
(1.01007 -0.016647 0)
(1.05115 0.0151717 9.20362e-21)
(1.01071 -0.000724771 1.54218e-21)
(1.02678 0.00888519 1.59167e-21)
(0.993914 0.000196423 2.07074e-21)
(1.02093 0.0112072 3.8366e-22)
(1.0112 0.000712839 2.37084e-22)
(1.01701 0.00762699 1.83202e-21)
(1.00689 0.000211558 0)
(1.01431 -0.00244273 1.08392e-21)
(1.01549 0.000232378 0)
(0.966515 -0.0285382 2.97284e-22)
(1.01546 -0.00249328 0)
(1.02641 0.0221666 1.44106e-22)
(1.00633 -7.34367e-05 5.69454e-22)
(1.01056 0.00243871 2.43966e-22)
(1.01667 0.0100667 1.70745e-21)
(1.0135 -0.00285438 -6.10494e-22)
(1.08689 0.045678 -5.00112e-21)
(0.602486 -0.0797538 -2.79379e-21)
(1.03839 -0.0361297 0)
(1.01797 0.000624071 0)
(1.11873 0.0298356 -2.79186e-22)
(1.00398 -0.00749105 -1.49172e-21)
(1.01484 0.00052815 0)
(1.00725 -0.000158737 -4.73218e-24)
(1.06981 0.0459892 -3.38922e-21)
(1.01631 0.00109716 0)
(1.03052 0.0237499 5.99636e-22)
(1.01335 -0.000950226 0)
(1.02275 0.00602802 -1.09726e-21)
(1.02386 -0.0500402 -2.82809e-22)
(1.05624 0.0224496 -6.72857e-22)
(0.90495 0.207227 -6.11752e-22)
(1.06984 0.0898611 3.69399e-21)
(1.01131 -0.000528361 -1.83645e-23)
(0.616338 -0.110723 -2.5922e-20)
(1.02185 0.0123983 0)
(1.01022 0.00169423 -3.4493e-22)
(0.811309 0.0635396 0)
(1.01503 0.000682912 -3.93123e-23)
(1.02357 0.00791405 0)
(1.01771 -0.00439355 -1.57064e-22)
(0.95009 0.037464 -1.01009e-21)
(1.015 0.000753327 -4.49944e-23)
(1.08967 0.0588228 0)
(0.915723 -0.104701 -2.08324e-22)
(1.07549 0.0717255 -4.72955e-21)
(1.01363 0.00573736 1.072e-21)
(1.00946 -0.000165558 -5.02862e-22)
(1.07776 0.0730314 0)
(1.02096 0.0190916 0)
(1.01227 -6.92335e-05 5.80713e-22)
(1.07389 0.0136691 0)
(0.994202 0.0181121 6.62164e-22)
(1.01012 0.00159002 8.26476e-22)
(1.071 0.0465344 7.0688e-21)
(1.08673 0.0468937 4.54037e-21)
(1.00934 -0.000152773 -1.32181e-21)
(1.0162 0.0108479 0)
(0.999398 0.0316196 2.61155e-21)
(0.911798 -0.307823 6.4573e-21)
(1.0483 0.0596026 -2.85584e-21)
(1.01896 0.0119993 0)
(1.0108 0.00138672 -1.67367e-21)
(1.06684 0.0412775 9.3117e-22)
(1.00734 0.000236659 9.77182e-22)
(1.01099 -0.000652767 7.69284e-22)
(1.01302 -5.99876e-05 8.92886e-22)
(1.0524 0.01625 4.01112e-22)
(0.63031 -0.0691417 1.20457e-21)
(1.0106 -0.000700438 -1.52696e-21)
(1.00176 1.37547e-05 0)
(1.01401 0.000604628 -1.19711e-23)
(1.09073 0.0246434 3.44903e-21)
(0.994776 -0.00224283 -3.08933e-21)
(1.01124 -0.00106649 -6.88042e-22)
(1.02228 0.00870031 8.02953e-22)
(1.03054 0.060482 -1.3398e-21)
(1.02247 0.00477813 -2.618e-21)
(1.05219 -0.0157099 -1.49249e-22)
(1.09319 0.0403182 5.29778e-21)
(1.02285 0.0122408 -1.21317e-21)
(1.00723 0.000217735 0)
(1.04743 0.0576844 -4.08247e-22)
(1.08709 0.0241988 0)
(0.918295 0.267842 0)
(1.01057 -0.00067104 -1.49314e-21)
(0.948124 0.270716 9.98217e-22)
(1.01228 0.000850839 -7.7227e-23)
(1.01068 -0.000702774 1.83809e-21)
(1.03478 0.0696041 0)
(1.02192 0.0202167 2.91965e-22)
(0.95957 -0.029065 -2.62198e-21)
(0.983842 0.0231072 -1.21393e-21)
(1.02627 0.0229107 0)
(1.02099 0.00754648 3.59422e-21)
(1.02344 0.013102 7.87423e-22)
(1.10719 0.0236143 -1.38184e-21)
(1.01978 0.0193579 -1.13548e-23)
(1.06259 0.0249775 -1.93493e-21)
(1.01992 0.0126323 6.09366e-22)
(1.01052 -0.000629165 1.9665e-22)
(1.02781 0.00830439 -1.63669e-21)
(1.01064 -0.000666053 0)
(1.09418 0.0426754 -2.89683e-21)
(0.641069 -0.0836375 -2.16114e-22)
(0.948597 0.0318747 -3.27075e-21)
(1.01806 0.00730017 2.03232e-21)
(1.01545 0.00849469 0)
(1.01953 0.01253 -1.05543e-22)
(1.01374 -0.00284148 -1.02513e-21)
(1.01759 0.00870971 0)
(1.01512 0.00144338 0)
(1.01296 -0.00164928 -9.58064e-22)
(1.01782 0.00126143 8.67711e-22)
(1.03239 0.0649643 0)
(1.00927 -0.000160681 0)
(1.01468 0.00169147 9.56948e-22)
(0.965811 0.404573 2.66815e-20)
(0.948149 0.245587 2.11376e-21)
(1.04085 0.139596 0)
(1.02204 0.00996461 -2.33025e-21)
(1.00313 -1.06371e-05 0)
(1.00047 0.0334985 1.26544e-21)
(1.02266 0.0126637 0)
(1.03164 -0.0810315 -3.02107e-22)
(1.18887 0.0429682 -1.14155e-20)
(1.0051 0.00382206 0)
(1.01607 0.0250001 3.29792e-23)
(1.02149 0.0120392 -2.28907e-21)
(1.02825 0.0156664 -3.88091e-22)
(1.03331 0.0241037 2.57373e-21)
(0.580378 0.0568009 0)
(1.01776 0.048998 -8.45622e-22)
(1.00967 0.00505304 -1.98308e-21)
(0.94066 -0.182156 -1.2429e-20)
(1.00794 0.000344361 -6.646e-22)
(0.921888 0.22255 -1.01854e-22)
(0.611587 -0.103922 -2.10804e-20)
(1.05521 0.0187628 -7.66523e-21)
(1.01624 0.0106955 1.15012e-21)
(0.542605 0.0565787 1.44805e-22)
(1.01043 0.00181046 0)
(1.08724 0.0585617 -7.43516e-21)
(0.969762 0.016569 -3.74657e-21)
(0.999239 0.0826093 -1.01125e-22)
(1.01908 0.0190171 -6.67556e-22)
(1.02751 0.007984 -5.73666e-24)
(1.02191 0.00498914 0)
(0.964899 0.0799139 -3.35979e-22)
(0.909629 0.266605 6.06302e-21)
(0.995061 0.0698318 0)
(0.89155 -0.0301332 7.11051e-22)
(1.01752 0.00955843 8.24823e-22)
(1.02152 0.00489446 0)
(1.02019 0.0272212 7.50806e-23)
(1.01644 0.00307386 0)
(1.00598 0.00700461 -1.49975e-21)
(0.837315 0.0672699 -5.98099e-21)
(0.985835 -0.276017 -1.38375e-20)
(0.605545 -0.0937371 -6.65343e-22)
(0.93547 -0.177606 1.364e-21)
(0.996847 0.00247193 9.17876e-22)
(0.975794 0.0210166 0)
(0.996118 0.00496852 -2.3114e-21)
(1.01053 0.0027263 2.37061e-22)
(1.01292 0.00373449 0)
(0.994719 0.00153535 1.87692e-21)
(1.01271 0.0141159 -9.22847e-22)
(1.0226 0.00777281 3.10963e-22)
(1.01631 0.00288298 0)
(0.944373 -0.077204 -8.57076e-22)
(1.00922 0.0013021 -1.0101e-21)
(0.9399 -0.18892 -1.22436e-21)
(1.00234 0.00657924 1.7455e-21)
(1.09415 0.0500497 1.03657e-20)
(1.08671 0.028825 1.25842e-20)
(1.01305 0.00377635 -2.57819e-22)
(1.01804 0.025009 -5.54998e-23)
(0.962837 0.221506 0)
(1.01774 0.00140553 0)
(0.535897 -0.129152 -2.16847e-22)
(1.01116 0.000711576 -2.47243e-22)
(0.874956 0.0317738 -1.17556e-20)
(1.01613 0.0481829 -2.00536e-22)
(1.01412 0.000253371 1.37174e-22)
(0.997416 0.0031827 0)
(1.08236 0.0889346 9.85844e-21)
(1.06794 0.093971 -3.76434e-21)
(1.00361 -3.95922e-05 0)
(1.01005 -0.000711848 6.73472e-22)
(1.06446 0.040424 1.60689e-21)
(1.05616 0.0190625 -6.32714e-21)
(1.09528 0.0518239 -2.51715e-21)
(1.01633 0.000639617 -1.48804e-22)
(1.09207 0.0386543 7.16632e-21)
(1.00919 0.00123957 1.5852e-21)
(1.1841 0.0522273 2.56458e-21)
(1.00613 -6.8496e-05 5.76519e-24)
(1.01121 0.00402869 7.55954e-22)
(1.12856 0.0134172 1.73483e-21)
(1.02148 -0.00576946 -1.09266e-21)
(1.03409 0.0138791 -4.60822e-22)
(1.00612 -8.36016e-05 3.26699e-22)
(1.01403 0.0247899 0)
(1.01215 0.00425486 2.14898e-21)
(1.08343 -0.0752478 -2.49805e-21)
(0.883039 -0.0472872 2.72354e-20)
(1.04107 0.0248442 -2.61437e-21)
(1.00773 -0.011473 4.8857e-22)
(1.00562 -4.11485e-05 0)
(1.00379 0.0205549 -1.56586e-21)
(1.02003 0.011517 -1.45741e-22)
(1.04077 0.0240466 8.90014e-21)
(0.266041 -0.0161607 1.14757e-21)
(1.00837 -8.04726e-05 -9.36632e-22)
(1.04562 -0.0294634 0)
(1.01725 0.0092208 6.91913e-23)
(1.00536 -7.95746e-05 -4.57376e-22)
(1.03416 0.0268205 3.00255e-21)
(1.04031 -0.0676141 1.73563e-22)
(1.00941 -0.00100646 2.94455e-21)
(0.977519 0.0966111 1.99628e-21)
(1.01437 0.00237189 5.82412e-22)
(1.07121 0.0339044 -1.02635e-20)
(0.926317 -0.145881 0)
(1.01338 -0.00167644 -2.47798e-22)
(1.01049 0.00248596 8.91527e-22)
(0.972311 0.255065 -3.70281e-21)
(1.02074 0.0603826 0)
(0.988727 0.392851 -5.91909e-22)
(0.98236 0.0296145 0)
(1.01614 0.00949992 0)
(1.01634 0.00258344 7.82381e-22)
(1.01077 0.000386408 5.68973e-22)
(1.01945 0.00719954 0)
(1.01771 0.012299 1.13014e-22)
(1.01727 -0.00409628 1.25216e-22)
(0.954788 0.125823 -1.25583e-22)
(0.671686 0.227973 -1.5097e-21)
(1.01123 0.00397569 3.74785e-22)
(0.937083 -0.297861 0)
(0.927622 -0.301649 0)
(1.01201 0.00953806 0)
(1.13928 0.00838873 3.95084e-21)
(1.01111 -0.000693046 -1.60375e-21)
(0.967543 0.188148 0)
(0.957749 0.0702347 0)
(1.01457 -0.0021543 -9.73208e-23)
(0.920579 -0.166581 1.43687e-21)
(1.06891 0.0434952 0)
(0.952226 -0.0160194 8.61558e-22)
(1.0951 -0.053481 2.14525e-21)
(1.01275 0.000130282 -8.31763e-22)
(1.01088 0.000291337 7.52389e-24)
(1.00457 -3.92261e-05 -2.64079e-21)
(1.05143 -0.00761524 1.40205e-22)
(1.07956 0.0376324 1.75665e-20)
(1.01347 0.00587908 0)
(1.03456 0.0073076 1.39918e-21)
(0.96242 0.127521 -1.24399e-21)
(1.022 0.0119232 0)
(1.07002 0.0440967 -4.25525e-21)
(1.01092 0.000233866 0)
(1.06817 0.0408855 9.6809e-22)
(0.620591 -0.13981 6.04592e-21)
(0.962339 0.064467 0)
(0.994197 -0.00187274 0)
(0.97407 0.0563932 -8.36906e-22)
(1.01639 0.0628865 0)
(0.883356 -0.273027 8.89408e-21)
(1.01705 0.0256838 4.35762e-22)
(1.00976 0.00200013 0)
(1.00834 0.0234245 7.29231e-22)
(1.09232 -0.0341389 0)
(1.01738 -0.0110895 0)
(1.07964 0.0346222 -3.70376e-22)
(1.01364 0.00584634 -1.22725e-21)
(0.976009 0.16774 6.97007e-22)
(1.01395 0.000548934 0)
(1.01645 0.00995215 -3.57969e-22)
(1.13449 0.237874 -2.0506e-20)
(1.0037 -5.44928e-05 3.82175e-22)
(1.00768 0.0249482 3.36824e-22)
(1.03215 0.0106917 1.95738e-21)
(0.981443 0.0923161 -9.51998e-22)
(1.02135 0.00104467 1.05563e-21)
(1.01519 0.0012482 0)
(1.03219 0.0265677 0)
(1.01282 0.0253217 0)
(1.0111 -0.00114207 -3.36028e-22)
(1.01205 -0.00335108 -2.11349e-22)
(0.997494 -0.00200155 0)
(1.05165 0.154364 0)
(1.02749 0.022018 -3.24544e-21)
(1.00625 7.95302e-05 0)
(1.02361 0.068498 -1.98145e-21)
(0.908239 -0.122667 0)
(1.01299 0.00519726 -2.3933e-22)
(0.973766 0.0451554 1.05363e-21)
(1.06291 -0.010902 1.41355e-22)
(1.02209 0.00473595 2.93739e-21)
(0.897907 0.289994 0)
(1.01158 -0.00128045 -3.43991e-22)
(1.16456 0.039562 4.90389e-21)
(1.01802 0.00330965 5.04569e-22)
(1.01827 -0.0043627 4.63922e-23)
(1.12321 0.0126426 0)
(1.01779 0.0190594 5.20577e-23)
(0.907049 -0.297827 1.57292e-20)
(1.02766 0.0213114 4.10674e-23)
(1.01525 0.00117285 -2.41704e-22)
(0.893111 0.298202 -2.49546e-21)
(1.01784 0.00337039 0)
(1.00953 -0.000440789 1.42084e-21)
(1.01287 0.000617324 -3.77567e-24)
(1.00985 0.00211093 5.04119e-22)
(1.00609 0.0252097 -8.64807e-22)
(1.026 0.0596474 -3.55381e-21)
(0.892138 0.205274 -1.06457e-21)
(1.00368 -1.5734e-05 0)
(0.5416 -0.11768 -1.99695e-22)
(1.01512 -0.000772662 0)
(0.963209 0.0375979 -6.7642e-22)
(1.01871 -0.134693 -1.24384e-20)
(1.01628 0.0111944 -3.69678e-22)
(1.018 0.00525954 -7.57078e-22)
(1.01498 0.0256111 0)
(1.01339 -0.00199337 -1.88945e-21)
(1.10066 0.0369953 -9.15692e-21)
(1.01392 0.00392056 -5.66337e-23)
(1.0097 -0.000434863 1.37454e-21)
(1.01135 -0.000735971 3.47513e-24)
(1.01347 0.0057666 5.81462e-22)
(1.01747 0.00142065 0)
(1.15304 0.00316944 -4.16877e-21)
(1.01803 0.00660841 0)
(1.07233 0.0507597 0)
(1.01121 0.00471517 3.28013e-21)
(1.00444 0.00577744 -2.96006e-21)
(1.01587 0.00781501 -2.61138e-22)
(1.02156 -0.000366771 -5.12594e-22)
(0.984072 0.0150668 1.41992e-21)
(1.00909 -0.000155633 9.39889e-22)
(1.09297 0.0417615 0)
(1.01984 0.072685 1.1474e-21)
(1.01094 -0.00103573 0)
(0.992042 -0.271587 1.01161e-20)
(0.64094 -0.131284 -1.70413e-20)
(1.00679 -0.000106951 -1.42897e-21)
(0.962638 0.00954807 0)
(1.00546 -2.32218e-05 0)
(1.06641 -0.0255979 1.15162e-21)
(1.07038 0.0343889 1.54658e-20)
(1.01451 -0.00205752 9.89873e-23)
(1.06585 0.0401889 -4.35564e-21)
(1.00977 0.0234228 -5.85884e-22)
(0.965343 0.0269563 0)
(1.00629 -5.80671e-05 1.29078e-21)
(1.05277 0.0160901 -1.14919e-21)
(0.915642 0.0567228 1.69619e-21)
(0.951577 0.0812053 0)
(1.02411 -0.0521518 0)
(1.01743 0.00153544 -5.03624e-22)
(1.04364 0.0479886 -4.45633e-24)
(1.08804 0.0379433 0)
(0.961292 0.178505 -3.11591e-22)
(1.01648 0.000733301 0)
(1.03739 0.017375 4.0837e-21)
(1.01245 0.000138183 -1.10473e-21)
(1.01804 0.00866387 5.18041e-23)
(1.0111 0.00340109 -5.10052e-22)
(1.00688 -7.54599e-05 -2.32635e-23)
(1.00851 -8.11117e-05 8.98948e-22)
(0.957388 0.0182868 0)
(1.0203 0.0074522 -9.24243e-22)
(1.00699 9.8059e-05 0)
(1.00936 -0.000380634 -7.47804e-22)
(1.0077 -0.000137842 -3.51902e-22)
(1.01844 0.0114708 5.51729e-23)
(0.955001 0.0777197 0)
(1.08797 0.0384551 -1.85164e-21)
(1.0112 -0.000821715 1.64295e-21)
(1.0119 0.0243632 -4.40838e-22)
(1.01572 0.00843157 -7.19781e-22)
(1.01549 0.00839626 0)
(1.01431 0.000253034 -3.13668e-22)
(1.01002 0.00230625 -5.00814e-22)
(1.02944 -0.0195947 -9.42341e-22)
(1.00954 -0.00042857 -6.79449e-22)
(1.00948 0.00167835 1.50383e-21)
(1.00469 1.82007e-05 9.85761e-22)
(1.02163 0.00970588 2.63034e-21)
(1.01327 0.0116717 0)
(1.01497 -0.00397856 4.28102e-22)
(1.0866 -0.00717873 2.47849e-21)
(0.860627 0.0312052 7.85722e-21)
(1.04012 0.0257613 0)
(1.00934 0.00150621 -1.38473e-21)
(1.0868 0.0260718 2.03094e-21)
(1.00961 -0.000415309 -1.36369e-21)
(1.00952 -0.000413198 0)
(1.01578 -0.00386743 4.1453e-22)
(1.02999 -0.045888 -4.66692e-22)
(1.01682 0.00712408 0)
(1.01574 -0.00325939 -1.63252e-21)
(1.01143 -0.00071541 0)
(1.00886 -0.000133978 8.80133e-22)
(1.01958 0.00634865 0)
(1.00965 -0.000553481 0)
(1.02306 0.00824406 2.12669e-21)
(1.01374 0.00376683 5.98051e-23)
(1.02124 0.0115741 0)
(1.01119 0.00337112 -4.74197e-22)
(1.03692 0.0170129 0)
(0.869212 0.141618 9.28349e-24)
(1.00972 0.00192836 0)
(1.02382 0.012383 -4.12254e-22)
(1.00744 0.000238045 0)
(1.13783 0.123346 -9.28309e-21)
(1.01255 0.0835342 2.17831e-23)
(1.05725 0.0258794 5.78025e-21)
(1.01744 0.012164 -2.56896e-22)
(1.00305 -0.00526989 -8.53586e-22)
(1.00159 0.00782901 -8.71795e-22)
(1.0324 -0.012817 -9.59686e-22)
(0.642845 0.0508197 1.64227e-21)
(1.00424 -4.61141e-06 -5.22374e-22)
(0.983079 0.0652114 0)
(1.02384 0.0127147 4.47386e-22)
(0.994929 -0.144599 0)
(1.00971 0.00661265 3.41276e-21)
(1.01095 -0.000760632 -3.9276e-22)
(1.01354 -0.00172101 0)
(1.07319 0.158662 1.01814e-21)
(1.01311 -0.00164559 3.16769e-22)
(1.05821 0.0261869 0)
(1.00991 -0.0125411 -1.46613e-21)
(1.10585 0.0178865 5.81421e-21)
(0.979058 0.0181823 -2.32211e-21)
(1.00567 0.000144763 0)
(1.00687 9.9569e-05 1.11777e-21)
(1.00719 -6.15001e-05 0)
(1.01284 0.00501779 0)
(1.06343 0.0255613 -1.53027e-20)
(1.11016 0.0715169 -4.12856e-23)
(1.061 -0.114148 3.17514e-21)
(1.06253 0.0598078 -3.86411e-21)
(1.02457 0.00185523 0)
(1.00984 -0.000632382 4.93211e-22)
(1.00593 0.000206417 -1.62908e-21)
(1.01129 0.00333744 -1.32519e-23)
(1.01015 0.000660885 1.18118e-21)
(1.0258 0.0108277 6.7382e-22)
(1.07166 0.051933 0)
(1.01991 0.00615109 8.21383e-22)
(1.03465 -0.0538007 -4.89094e-24)
(1.02414 0.00182019 0)
(1.02061 0.00205846 0)
(0.995666 -5.60709e-05 0)
(1.01646 0.0027627 -2.76066e-22)
(1.08878 0.0234944 0)
(1.06476 0.0593065 0)
(1.01807 0.0658668 0)
(1.11619 0.0370188 0)
(0.831221 0.0284414 0)
(1.01893 -1.53891e-05 -2.10693e-21)
(1.01037 0.00267506 -8.26481e-22)
(1.00981 -0.000594985 -5.11943e-22)
(1.02754 0.00715361 1.41799e-21)
(1.01417 0.000796333 0)
(1.10223 -0.000420372 4.81386e-21)
(1.07855 0.039118 -2.75007e-21)
(1.10084 0.039087 7.53454e-23)
(1.01063 -0.000690501 2.3394e-22)
(1.02162 0.0093623 -1.03559e-21)
(1.01437 -0.0016813 0)
(1.01025 0.00063392 -6.29163e-22)
(0.676662 0.0511912 -5.39045e-21)
(0.991608 0.000667779 0)
(1.0097 -0.000462615 7.31551e-22)
(1.01305 -0.00173706 3.2639e-22)
(1.00608 -5.72941e-05 -7.59318e-22)
(1.01121 0.00345786 -5.08584e-22)
(1.00992 0.00173435 0)
(1.01349 0.000177147 0)
(1.09782 -0.000491366 -1.73457e-21)
(1.01301 -0.00150778 -8.79194e-22)
(1.00956 0.00537315 3.00785e-21)
(1.01059 -0.000671018 -1.17928e-21)
(1.00813 0.000351994 1.10086e-21)
(1.01112 0.00348446 5.26614e-22)
(1.01779 0.00841945 0)
(1.02253 0.0117459 4.14529e-21)
(1.00811 0.000323616 -1.11008e-21)
(1.01997 -0.00678664 5.50601e-22)
(1.0115 -0.000736933 -7.78821e-22)
(1.03353 -0.0285693 6.37986e-22)
(1.13268 0.00724107 -2.00091e-21)
(1.01839 0.00899305 2.3579e-21)
(1.07694 0.0210249 6.59149e-22)
(1.0148 0.00382418 1.6316e-21)
(1.0327 0.00780592 -1.07003e-21)
(1.08861 0.0481678 -4.84824e-21)
(1.04675 0.0449916 -4.48521e-23)
(1.01392 0.000612827 4.54654e-22)
(1.00707 7.25467e-06 -6.4921e-22)
(1.00788 -1.54085e-05 0)
(1.01176 0.00796785 1.74553e-21)
(1.00365 -6.40721e-05 1.98266e-21)
(1.02041 0.000379186 3.64359e-21)
(1.04408 -0.00302609 2.02854e-22)
(1.01768 0.008866 -4.92151e-23)
(1.00959 0.00318768 5.64517e-22)
(1.02143 0.000534963 -2.85689e-21)
(1.00745 -0.144374 -1.46166e-22)
(1.04505 0.0223415 0)
(1.00364 1.11902e-05 -9.11652e-22)
(1.00708 -6.443e-05 -6.94764e-22)
(1.01354 0.0148216 2.73619e-21)
(1.03947 0.0641016 0)
(1.01265 0.00388801 -3.35848e-22)
(1.0737 0.0895795 0)
(1.00749 0.000197052 0)
(1.01087 -0.00107851 0)
(1.04047 0.0265068 4.7821e-21)
(0.926932 -0.000343394 3.31234e-22)
(0.877376 -0.0396989 0)
(1.06765 0.000160105 1.54239e-22)
(1.09407 -0.00203734 1.94377e-21)
(1.01083 -0.000851551 -3.25942e-24)
(1.02486 -0.014067 -1.4188e-21)
(0.939244 0.0241569 -4.19912e-21)
(1.0119 0.0162015 0)
(1.01268 0.00494946 0)
(0.94069 0.0308278 4.11224e-21)
(1.00521 0.00264309 2.7168e-21)
(1.12715 0.151353 0)
(0.917816 0.00239346 5.47759e-21)
(1.00703 -0.000171967 7.67124e-22)
(1.0108 -0.000811239 6.93587e-22)
(1.02175 0.00100216 -1.0787e-21)
(1.01108 0.00755048 0)
(1.01102 -0.000885731 1.44294e-21)
(1.06938 0.0260534 -7.68131e-22)
(1.07301 -0.00346836 -4.15098e-22)
(1.0092 -0.000369953 3.77339e-22)
(1.01761 0.0090995 0)
(1.01823 0.0122642 -3.36926e-23)
(1.06972 0.039075 8.08587e-21)
(1.01289 0.00533603 -8.62862e-22)
(1.0117 6.43311e-05 -7.82955e-22)
(1.02714 -0.0100933 -5.42888e-22)
(1.01194 -0.00210626 0)
(1.01171 -0.000635212 0)
(1.06009 -0.00293131 -1.47218e-22)
(1.10332 0.0730087 0)
(1.09777 0.0556587 0)
(1.0142 0.000918192 0)
(1.00993 -0.000615468 0)
(1.00944 -0.000415161 -1.39726e-21)
(1.01619 0.00105218 1.1708e-21)
(1.02106 -0.00168971 -1.09372e-21)
(1.01384 -0.012778 -1.38795e-21)
(1.00973 0.00131352 0)
(1.00727 6.17494e-06 0)
(1.01784 0.00142359 -1.0747e-21)
(1.03428 0.0533787 1.97533e-22)
(1.00831 -9.12258e-05 2.39264e-21)
(1.01827 0.000734017 1.01976e-21)
(1.06367 0.0937723 3.34992e-21)
(1.00996 0.00162465 -9.05632e-22)
(1.00864 0.000749485 1.06403e-21)
(1.01785 0.00288749 0)
(0.644467 0.131489 0)
(1.00988 -0.00060319 7.12823e-22)
(1.02099 0.00203719 0)