/*--------------------------------*- C++ -*----------------------------------*\
| =========                 |                                                 |
| \\      /  F ield         | OpenFOAM: The Open Source CFD Toolbox           |
|  \\    /   O peration     | Version:  v2012                                 |
|   \\  /    A nd           | Website:  www.openfoam.com                      |
|    \\/     M anipulation  |                                                 |
\*---------------------------------------------------------------------------*/
FoamFile
{
    version     2.0;
    format      ascii;
    class       volVectorField;
    location    "350";
    object      cellDisplacement;
}
// * * * * * * * * * * * * * * * * * * * * * * * * * * * * * * * * * * * * * //

dimensions      [0 1 0 0 0 0 0];


internalField   nonuniform List<vector> 
18355
(
(0 -1.28567e-06 0)
(0 3.59069e-06 0)
(0 -5.93329e-06 0)
(0 1.80987e-06 0)
(0 -4.70455e-05 0)
(0 -2.60984e-06 0)
(0 -3.46182e-06 0)
(0 -7.49057e-07 0)
(0 -2.0779e-06 0)
(0 3.59137e-06 0)
(0 -4.48257e-05 0)
(0 3.59253e-06 0)
(0 1.44653e-06 0)
(0 -1.21199e-05 0)
(0 -9.06251e-06 0)
(0 -1.30244e-06 0)
(0 3.59046e-06 0)
(0 -5.29287e-06 0)
(0 -4.96205e-06 0)
(0 3.28129e-06 0)
(0 -8.7903e-08 0)
(0 -3.19434e-06 0)
(0 3.57851e-06 0)
(0 -4.85892e-05 0)
(0 -4.15811e-05 0)
(0 3.55947e-06 0)
(0 -3.74865e-06 0)
(0 -2.14343e-06 0)
(0 3.53104e-06 0)
(0 -5.99227e-06 0)
(0 -6.02185e-05 0)
(0 -4.22349e-05 0)
(0 -4.7904e-06 0)
(0 5.68744e-06 0)
(0 1.73869e-06 0)
(0 -1.14094e-06 0)
(0 -3.83274e-06 0)
(0 3.28537e-06 0)
(0 -2.22496e-06 0)
(0 -4.37686e-05 0)
(0 -1.20462e-05 0)
(0 3.27256e-06 0)
(0 -5.99838e-06 0)
(0 3.59012e-06 0)
(0 1.33629e-07 0)
(0 3.30947e-06 0)
(0 3.63846e-07 0)
(0 -1.04797e-06 0)
(0 -1.52752e-07 0)
(0 -5.83877e-06 0)
(0 -1.97669e-05 0)
(0 -8.55008e-06 0)
(0 1.01034e-06 0)
(0 3.56119e-06 0)
(0 4.76685e-06 0)
(0 4.64152e-06 0)
(0 -4.62925e-06 0)
(0 -8.74431e-06 0)
(0 3.59037e-06 0)
(0 2.90868e-06 0)
(0 -5.56159e-06 0)
(0 -2.81651e-06 0)
(0 -5.47729e-06 0)
(0 2.33782e-06 0)
(0 3.59204e-06 0)
(0 -1.65617e-06 0)
(0 3.59142e-06 0)
(0 1.67382e-06 0)
(0 -3.05938e-06 0)
(0 -3.28271e-06 0)
(0 1.54991e-06 0)
(0 3.36854e-06 0)
(0 2.9758e-06 0)
(0 -4.05915e-06 0)
(0 -6.44389e-07 0)
(0 -4.41807e-06 0)
(0 3.45055e-06 0)
(0 -3.9471e-05 0)
(0 -3.08076e-05 0)
(0 -8.69076e-06 0)
(0 -2.10558e-06 0)
(0 3.50686e-06 0)
(0 -2.32276e-07 0)
(0 2.21346e-06 0)
(0 2.70021e-06 0)
(0 1.32555e-06 0)
(0 3.57855e-06 0)
(0 3.23567e-06 0)
(0 3.54696e-06 0)
(0 3.56345e-06 0)
(0 2.71714e-06 0)
(0 8.82016e-08 0)
(0 7.10914e-06 0)
(0 -2.79461e-05 0)
(0 3.59013e-06 0)
(0 3.58155e-06 0)
(0 -1.65431e-05 0)
(0 -2.17373e-05 0)
(0 3.56872e-06 0)
(0 3.59032e-06 0)
(0 3.58788e-06 0)
(0 3.59049e-06 0)
(0 1.49081e-06 0)
(0 3.24082e-06 0)
(0 -5.25908e-05 0)
(0 5.35202e-07 0)
(0 3.59069e-06 0)
(0 3.30029e-06 0)
(0 -6.80184e-06 0)
(0 3.55419e-06 0)
(0 -5.80177e-06 0)
(0 -2.30737e-06 0)
(0 2.21313e-06 0)
(0 -2.14052e-06 0)
(0 3.56637e-06 0)
(0 5.96555e-06 0)
(0 3.59068e-06 0)
(0 3.45162e-06 0)
(0 3.5901e-06 0)
(0 1.57483e-06 0)
(0 3.59061e-06 0)
(0 3.45874e-06 0)
(0 -4.06686e-05 0)
(0 1.63215e-06 0)
(0 -1.60314e-05 0)
(0 3.33304e-06 0)
(0 -8.79379e-06 0)
(0 2.28318e-06 0)
(0 3.53007e-06 0)
(0 -2.51233e-05 0)
(0 -1.83994e-05 0)
(0 3.33e-06 0)
(0 -4.39436e-06 0)
(0 -2.26908e-05 0)
(0 2.617e-06 0)
(0 2.10151e-06 0)
(0 -1.00292e-05 0)
(0 -4.66134e-05 0)
(0 -8.89939e-06 0)
(0 2.65046e-06 0)
(0 3.58734e-06 0)
(0 3.57083e-06 0)
(0 -3.06485e-06 0)
(0 -5.8845e-06 0)
(0 3.55663e-06 0)
(0 -3.62851e-06 0)
(0 5.31703e-08 0)
(0 3.5765e-06 0)
(0 -2.32179e-05 0)
(0 3.5749e-06 0)
(0 -3.99523e-05 0)
(0 -3.36215e-06 0)
(0 1.63431e-06 0)
(0 3.59012e-06 0)
(0 -5.27632e-06 0)
(0 1.19174e-06 0)
(0 3.31177e-06 0)
(0 3.59003e-06 0)
(0 1.39235e-06 0)
(0 -2.02901e-06 0)
(0 -2.63222e-07 0)
(0 -4.57684e-06 0)
(0 1.19924e-06 0)
(0 -2.28789e-05 0)
(0 7.00681e-07 0)
(0 3.58579e-06 0)
(0 3.58372e-06 0)
(0 4.35806e-09 0)
(0 2.71629e-06 0)
(0 -4.87725e-06 0)
(0 3.07829e-06 0)
(0 3.58431e-06 0)
(0 -3.69901e-05 0)
(0 -4.06509e-05 0)
(0 -1.41436e-06 0)
(0 3.58978e-06 0)
(0 -1.25671e-05 0)
(0 5.55696e-06 0)
(0 3.51865e-06 0)
(0 3.58493e-06 0)
(0 3.30885e-06 0)
(0 2.70151e-06 0)
(0 -1.41475e-05 0)
(0 -6.17308e-06 0)
(0 1.63877e-06 0)
(0 3.58923e-06 0)
(0 3.56716e-06 0)
(0 2.2563e-06 0)
(0 -1.76852e-06 0)
(0 3.59063e-06 0)
(0 -5.21015e-06 0)
(0 -6.09351e-06 0)
(0 -2.37528e-05 0)
(0 3.26013e-06 0)
(0 2.84525e-06 0)
(0 -2.86188e-06 0)
(0 3.36924e-06 0)
(0 -1.48688e-05 0)
(0 -7.83043e-06 0)
(0 -3.81341e-05 0)
(0 -2.19578e-05 0)
(0 -9.92866e-07 0)
(0 3.58478e-06 0)
(0 3.57227e-06 0)
(0 3.59014e-06 0)
(0 4.28043e-07 0)
(0 3.5906e-06 0)
(0 3.58918e-06 0)
(0 3.58576e-06 0)
(0 -8.35704e-06 0)
(0 -9.62558e-06 0)
(0 -3.9761e-05 0)
(0 3.23201e-06 0)
(0 -3.18045e-06 0)
(0 -4.32247e-06 0)
(0 3.49522e-06 0)
(0 2.45062e-06 0)
(0 3.28035e-06 0)
(0 2.26792e-06 0)
(0 -2.34711e-05 0)
(0 3.45409e-06 0)
(0 -8.03248e-06 0)
(0 2.14159e-06 0)
(0 -1.02049e-05 0)
(0 3.58586e-06 0)
(0 -3.68233e-06 0)
(0 3.59248e-06 0)
(0 3.58857e-06 0)
(0 3.45306e-06 0)
(0 -9.34554e-06 0)
(0 1.15371e-06 0)
(0 -3.21944e-05 0)
(0 -1.26258e-06 0)
(0 3.59175e-06 0)
(0 -4.07555e-06 0)
(0 5.41058e-06 0)
(0 6.11287e-06 0)
(0 3.36336e-06 0)
(0 2.93309e-06 0)
(0 3.59013e-06 0)
(0 -7.28265e-06 0)
(0 2.76729e-06 0)
(0 -6.18634e-05 0)
(0 -4.6584e-06 0)
(0 -3.46754e-06 0)
(0 3.58965e-06 0)
(0 3.48283e-06 0)
(0 3.59032e-06 0)
(0 -5.8177e-06 0)
(0 -4.16143e-07 0)
(0 -2.11745e-05 0)
(0 3.59005e-06 0)
(0 -1.49634e-05 0)
(0 3.5841e-06 0)
(0 -3.7475e-06 0)
(0 3.60022e-06 0)
(0 2.43034e-06 0)
(0 -1.83502e-06 0)
(0 -5.12963e-06 0)
(0 4.15422e-06 0)
(0 -1.77866e-06 0)
(0 1.73291e-06 0)
(0 3.58302e-06 0)
(0 -3.95186e-06 0)
(0 -2.48077e-06 0)
(0 -3.4522e-06 0)
(0 1.41996e-06 0)
(0 2.80821e-06 0)
(0 3.08089e-06 0)
(0 3.40877e-06 0)
(0 -2.13802e-06 0)
(0 3.56464e-06 0)
(0 2.38328e-06 0)
(0 3.77403e-07 0)
(0 -1.32177e-05 0)
(0 3.36963e-06 0)
(0 -8.87051e-06 0)
(0 -8.19252e-06 0)
(0 3.58343e-06 0)
(0 2.88111e-06 0)
(0 -4.54288e-06 0)
(0 6.65025e-07 0)
(0 -5.14993e-06 0)
(0 3.58805e-06 0)
(0 -1.5598e-05 0)
(0 -7.31686e-07 0)
(0 2.66576e-06 0)
(0 1.75853e-07 0)
(0 3.59138e-06 0)
(0 -4.10371e-05 0)
(0 3.19549e-06 0)
(0 -1.13913e-05 0)
(0 8.23344e-07 0)
(0 3.58396e-06 0)
(0 1.46908e-06 0)
(0 4.50661e-07 0)
(0 2.55806e-06 0)
(0 1.56082e-06 0)
(0 -5.86945e-06 0)
(0 3.5327e-06 0)
(0 -7.75262e-06 0)
(0 1.59931e-06 0)
(0 -2.98943e-06 0)
(0 6.05668e-07 0)
(0 3.52169e-06 0)
(0 9.59538e-07 0)
(0 8.93511e-07 0)
(0 9.92338e-07 0)
(0 -2.36522e-05 0)
(0 3.34433e-06 0)
(0 -5.57119e-05 0)
(0 -4.87548e-06 0)
(0 3.46941e-06 0)
(0 -5.77583e-06 0)
(0 2.83089e-06 0)
(0 3.26941e-06 0)
(0 6.43687e-06 0)
(0 -3.94819e-07 0)
(0 2.79875e-06 0)
(0 3.58996e-06 0)
(0 3.58745e-06 0)
(0 -6.74524e-06 0)
(0 1.04668e-06 0)
(0 3.59017e-06 0)
(0 -4.92132e-05 0)
(0 2.94045e-06 0)
(0 -3.52381e-05 0)
(0 1.69979e-06 0)
(0 2.85923e-06 0)
(0 -2.0592e-05 0)
(0 3.58746e-06 0)
(0 -4.85511e-06 0)
(0 2.71073e-06 0)
(0 4.76554e-06 0)
(0 -6.13172e-06 0)
(0 3.59439e-06 0)
(0 1.09933e-06 0)
(0 3.58673e-06 0)
(0 -4.94498e-06 0)
(0 -7.32378e-06 0)
(0 2.52906e-07 0)
(0 -2.71763e-06 0)
(0 3.29015e-06 0)
(0 3.55527e-06 0)
(0 3.21828e-06 0)
(0 -3.91126e-06 0)
(0 -4.94143e-06 0)
(0 3.58294e-06 0)
(0 3.18798e-06 0)
(0 7.38469e-06 0)
(0 -4.25568e-06 0)
(0 1.06939e-06 0)
(0 1.64168e-06 0)
(0 3.5901e-06 0)
(0 3.57971e-06 0)
(0 -2.9508e-06 0)
(0 -1.82881e-05 0)
(0 3.59034e-06 0)
(0 -5.78259e-06 0)
(0 -4.24511e-06 0)
(0 2.66165e-06 0)
(0 -8.89097e-06 0)
(0 -2.88766e-05 0)
(0 3.5889e-06 0)
(0 7.17013e-07 0)
(0 2.84183e-06 0)
(0 3.471e-06 0)
(0 3.59013e-06 0)
(0 4.04917e-06 0)
(0 -6.77586e-06 0)
(0 -9.18289e-06 0)
(0 -1.42221e-05 0)
(0 3.20273e-06 0)
(0 -1.46948e-05 0)
(0 3.09791e-07 0)
(0 -9.21882e-06 0)
(0 -3.15626e-06 0)
(0 -2.53941e-06 0)
(0 -2.18932e-06 0)
(0 -2.92039e-05 0)
(0 -6.10774e-06 0)
(0 -2.71886e-05 0)
(0 -2.78588e-05 0)
(0 -1.7959e-06 0)
(0 3.45025e-06 0)
(0 3.55039e-06 0)
(0 -1.0572e-05 0)
(0 3.35401e-06 0)
(0 2.04589e-06 0)
(0 3.53454e-06 0)
(0 -1.05702e-05 0)
(0 1.27438e-06 0)
(0 -3.24355e-06 0)
(0 3.33104e-06 0)
(0 -4.09276e-06 0)
(0 5.39103e-06 0)
(0 4.30447e-06 0)
(0 -1.96189e-06 0)
(0 3.56378e-06 0)
(0 -8.44716e-06 0)
(0 -9.22845e-07 0)
(0 -3.24169e-06 0)
(0 1.57379e-07 0)
(0 -5.64508e-06 0)
(0 -5.09217e-05 0)
(0 3.59149e-06 0)
(0 -3.11432e-06 0)
(0 -8.63982e-06 0)
(0 3.5899e-06 0)
(0 -4.32871e-06 0)
(0 3.59026e-06 0)
(0 3.59014e-06 0)
(0 2.63236e-06 0)
(0 -1.54226e-07 0)
(0 -5.4106e-05 0)
(0 3.59121e-06 0)
(0 4.01661e-06 0)
(0 -5.69905e-06 0)
(0 3.59101e-06 0)
(0 -7.36526e-07 0)
(0 -3.45302e-05 0)
(0 3.59049e-06 0)
(0 -4.07358e-06 0)
(0 3.59393e-06 0)
(0 -1.29325e-05 0)
(0 -1.01256e-05 0)
(0 3.59015e-06 0)
(0 -3.27724e-06 0)
(0 -5.37486e-06 0)
(0 3.41435e-06 0)
(0 -2.96711e-06 0)
(0 3.03648e-06 0)
(0 3.2403e-06 0)
(0 -9.4766e-06 0)
(0 -5.85535e-06 0)
(0 -3.73371e-06 0)
(0 3.03656e-06 0)
(0 2.58762e-06 0)
(0 -4.85965e-06 0)
(0 7.9576e-07 0)
(0 -3.12571e-06 0)
(0 2.91524e-06 0)
(0 3.59054e-06 0)
(0 1.3422e-07 0)
(0 -4.00369e-06 0)
(0 1.32879e-06 0)
(0 -1.07807e-05 0)
(0 2.77897e-06 0)
(0 3.58197e-06 0)
(0 3.60012e-06 0)
(0 3.39235e-06 0)
(0 2.97034e-06 0)
(0 2.86838e-06 0)
(0 3.58986e-06 0)
(0 -4.33969e-05 0)
(0 -5.50375e-06 0)
(0 -1.1354e-05 0)
(0 -1.0722e-05 0)
(0 3.18152e-06 0)
(0 -6.93889e-06 0)
(0 -9.59525e-07 0)
(0 3.59037e-06 0)
(0 2.94758e-06 0)
(0 -4.3144e-08 0)
(0 3.55636e-06 0)
(0 3.03275e-06 0)
(0 3.58986e-06 0)
(0 -6.57527e-06 0)
(0 -2.89393e-05 0)
(0 -6.10173e-06 0)
(0 -1.24422e-06 0)
(0 6.74155e-07 0)
(0 1.07694e-06 0)
(0 -7.77726e-06 0)
(0 3.55091e-06 0)
(0 -6.94371e-06 0)
(0 -1.42682e-05 0)
(0 3.4383e-06 0)
(0 2.85135e-06 0)
(0 -6.15054e-06 0)
(0 -3.72479e-05 0)
(0 3.03054e-06 0)
(0 3.58559e-06 0)
(0 -1.52836e-06 0)
(0 -1.84746e-05 0)
(0 3.29171e-06 0)
(0 -1.11236e-06 0)
(0 3.5274e-06 0)
(0 -3.51714e-05 0)
(0 -1.36499e-05 0)
(0 3.5905e-06 0)
(0 2.85328e-06 0)
(0 -2.13449e-06 0)
(0 3.58237e-06 0)
(0 3.58493e-06 0)
(0 3.59119e-06 0)
(0 -1.31737e-05 0)
(0 -1.86663e-05 0)
(0 -1.40244e-06 0)
(0 5.47721e-07 0)
(0 -3.85352e-06 0)
(0 3.55021e-06 0)
(0 2.96526e-06 0)
(0 3.32599e-06 0)
(0 3.47559e-06 0)
(0 -2.09319e-06 0)
(0 -1.36503e-05 0)
(0 3.5861e-06 0)
(0 3.58177e-06 0)
(0 3.50466e-06 0)
(0 -4.78724e-06 0)
(0 4.40652e-08 0)
(0 -2.15103e-07 0)
(0 3.5885e-06 0)
(0 3.59096e-06 0)
(0 2.80789e-06 0)
(0 -3.61488e-06 0)
(0 -8.74417e-06 0)
(0 1.13591e-06 0)
(0 2.66198e-06 0)
(0 -7.29364e-06 0)
(0 3.38275e-06 0)
(0 -5.65424e-08 0)
(0 3.55816e-06 0)
(0 -8.74246e-06 0)
(0 -3.22678e-06 0)
(0 4.80568e-06 0)
(0 1.57182e-06 0)
(0 8.84177e-07 0)
(0 2.74908e-06 0)
(0 -3.63175e-06 0)
(0 -1.63268e-07 0)
(0 3.58506e-06 0)
(0 -2.21192e-05 0)
(0 -5.13944e-06 0)
(0 -1.06e-06 0)
(0 -2.50112e-05 0)
(0 -1.86199e-07 0)
(0 -4.32118e-06 0)
(0 -8.33452e-06 0)
(0 -2.22078e-05 0)
(0 3.0377e-06 0)
(0 -4.10243e-06 0)
(0 -1.47734e-06 0)
(0 -1.12111e-05 0)
(0 6.89048e-07 0)
(0 8.28273e-08 0)
(0 -2.9955e-05 0)
(0 -2.49695e-06 0)
(0 -6.32861e-06 0)
(0 -4.9555e-05 0)
(0 2.8929e-06 0)
(0 -1.58204e-05 0)
(0 1.9216e-06 0)
(0 -3.189e-06 0)
(0 3.20365e-06 0)
(0 -8.90399e-07 0)
(0 3.56665e-06 0)
(0 -1.66553e-05 0)
(0 3.59013e-06 0)
(0 -1.11633e-07 0)
(0 -1.0093e-06 0)
(0 2.55038e-06 0)
(0 2.89727e-06 0)
(0 3.53122e-06 0)
(0 -2.32851e-05 0)
(0 -8.94938e-06 0)
(0 -1.26474e-05 0)
(0 -8.3399e-06 0)
(0 -2.04616e-06 0)
(0 4.67876e-07 0)
(0 1.67375e-06 0)
(0 3.09551e-06 0)
(0 3.56498e-06 0)
(0 3.68285e-07 0)
(0 5.10912e-06 0)
(0 3.5847e-06 0)
(0 3.36751e-06 0)
(0 -3.87261e-05 0)
(0 -8.53321e-06 0)
(0 1.93015e-06 0)
(0 3.56978e-06 0)
(0 -1.53163e-06 0)
(0 -5.68206e-07 0)
(0 3.11216e-06 0)
(0 2.99596e-06 0)
(0 1.88355e-06 0)
(0 1.35456e-06 0)
(0 3.58597e-06 0)
(0 -2.11465e-05 0)
(0 5.16639e-07 0)
(0 3.59035e-06 0)
(0 2.88255e-06 0)
(0 3.47334e-06 0)
(0 3.0467e-06 0)
(0 3.34406e-06 0)
(0 -1.40348e-05 0)
(0 5.31141e-06 0)
(0 -3.85543e-05 0)
(0 -5.97593e-06 0)
(0 3.54688e-06 0)
(0 3.548e-06 0)
(0 3.58889e-06 0)
(0 3.42599e-06 0)
(0 3.59116e-06 0)
(0 3.58882e-06 0)
(0 3.05761e-06 0)
(0 -1.16476e-06 0)
(0 3.58992e-06 0)
(0 3.55737e-06 0)
(0 -4.53896e-05 0)
(0 3.45896e-06 0)
(0 3.5884e-06 0)
(0 3.43864e-06 0)
(0 1.75598e-07 0)
(0 2.66763e-06 0)
(0 -2.13798e-05 0)
(0 -2.48629e-05 0)
(0 -2.60876e-05 0)
(0 8.21417e-07 0)
(0 -5.8266e-06 0)
(0 3.59013e-06 0)
(0 -1.66849e-06 0)
(0 -4.44117e-07 0)
(0 3.5878e-06 0)
(0 -5.955e-06 0)
(0 1.06763e-06 0)
(0 3.4793e-06 0)
(0 -5.43623e-06 0)
(0 -8.9366e-06 0)
(0 3.58405e-06 0)
(0 7.82904e-06 0)
(0 -2.11258e-07 0)
(0 -1.90768e-05 0)
(0 3.58891e-06 0)
(0 -2.30046e-05 0)
(0 -1.14807e-05 0)
(0 1.76853e-06 0)
(0 -3.7299e-06 0)
(0 4.25746e-07 0)
(0 -5.75368e-07 0)
(0 3.564e-06 0)
(0 -5.18336e-06 0)
(0 -5.42975e-05 0)
(0 3.59017e-06 0)
(0 -1.13595e-05 0)
(0 3.5875e-06 0)
(0 3.60215e-06 0)
(0 3.42131e-06 0)
(0 2.69715e-06 0)
(0 -5.9369e-06 0)
(0 -5.56479e-06 0)
(0 3.58667e-06 0)
(0 -9.50588e-07 0)
(0 -4.1368e-06 0)
(0 -7.50439e-07 0)
(0 -1.37387e-05 0)
(0 3.37622e-06 0)
(0 3.50499e-06 0)
(0 2.76586e-07 0)
(0 3.59012e-06 0)
(0 3.14493e-06 0)
(0 -2.63697e-06 0)
(0 1.44635e-06 0)
(0 -4.64892e-07 0)
(0 -2.88048e-06 0)
(0 3.03955e-06 0)
(0 -2.91725e-05 0)
(0 3.52252e-06 0)
(0 5.98051e-07 0)
(0 1.6102e-06 0)
(0 1.62882e-06 0)
(0 3.58434e-06 0)
(0 3.59251e-06 0)
(0 -6.05144e-06 0)
(0 -4.13221e-05 0)
(0 -3.20203e-06 0)
(0 -6.03095e-07 0)
(0 -2.91001e-06 0)
(0 3.58727e-06 0)
(0 3.46418e-06 0)
(0 -3.49047e-06 0)
(0 -8.02554e-06 0)
(0 -1.36496e-06 0)
(0 2.33444e-08 0)
(0 -3.08122e-05 0)
(0 3.13993e-06 0)
(0 -6.35114e-06 0)
(0 3.5837e-06 0)
(0 -4.94618e-06 0)
(0 -4.08222e-06 0)
(0 3.54408e-06 0)
(0 3.58508e-06 0)
(0 -3.23796e-06 0)
(0 3.4892e-06 0)
(0 1.50923e-06 0)
(0 -5.0425e-06 0)
(0 -4.03356e-06 0)
(0 2.13545e-06 0)
(0 3.59382e-06 0)
(0 -5.03155e-06 0)
(0 3.59078e-06 0)
(0 1.25481e-06 0)
(0 3.52464e-06 0)
(0 3.49055e-06 0)
(0 -1.32094e-05 0)
(0 3.59144e-06 0)
(0 -6.51306e-06 0)
(0 3.56281e-06 0)
(0 -3.72728e-05 0)
(0 3.58439e-06 0)
(0 3.59035e-06 0)
(0 -3.3743e-06 0)
(0 3.59157e-06 0)
(0 -1.85181e-06 0)
(0 5.21289e-08 0)
(0 3.54263e-06 0)
(0 3.28923e-06 0)
(0 3.59081e-06 0)
(0 -3.90345e-06 0)
(0 3.56388e-06 0)
(0 -9.73511e-06 0)
(0 3.54709e-06 0)
(0 -3.99991e-05 0)
(0 4.9978e-08 0)
(0 -2.47699e-05 0)
(0 -5.74957e-06 0)
(0 1.00351e-05 0)
(0 -6.86496e-06 0)
(0 3.27982e-06 0)
(0 3.42059e-06 0)
(0 -5.4392e-06 0)
(0 3.58931e-06 0)
(0 -1.33428e-05 0)
(0 -5.36975e-06 0)
(0 2.24314e-07 0)
(0 7.64637e-07 0)
(0 1.0448e-06 0)
(0 3.5506e-06 0)
(0 -5.44918e-06 0)
(0 4.29594e-06 0)
(0 -9.58325e-07 0)
(0 3.57343e-06 0)
(0 9.90265e-09 0)
(0 -5.8765e-06 0)
(0 -6.15713e-06 0)
(0 -7.97024e-07 0)
(0 -8.41581e-06 0)
(0 3.59013e-06 0)
(0 -5.77882e-06 0)
(0 3.52776e-06 0)
(0 2.8808e-06 0)
(0 3.34089e-06 0)
(0 3.59115e-06 0)
(0 3.59007e-06 0)
(0 3.95783e-06 0)
(0 -1.08828e-05 0)
(0 -6.02235e-06 0)
(0 -6.27326e-06 0)
(0 -1.63276e-05 0)
(0 3.58612e-06 0)
(0 -1.65954e-06 0)
(0 -1.22221e-05 0)
(0 7.74051e-06 0)
(0 3.55665e-06 0)
(0 -1.49818e-06 0)
(0 -5.46185e-05 0)
(0 7.82875e-07 0)
(0 -1.65905e-06 0)
(0 3.56037e-06 0)
(0 3.59146e-06 0)
(0 -2.98713e-06 0)
(0 -1.17847e-05 0)
(0 3.56669e-06 0)
(0 -3.976e-06 0)
(0 3.584e-06 0)
(0 3.58926e-06 0)
(0 3.59015e-06 0)
(0 3.50267e-06 0)
(0 3.50222e-06 0)
(0 3.16587e-06 0)
(0 -2.36716e-05 0)
(0 2.15785e-06 0)
(0 -4.55745e-06 0)
(0 -4.68019e-06 0)
(0 -3.86696e-06 0)
(0 6.82567e-06 0)
(0 -3.73043e-06 0)
(0 3.50632e-06 0)
(0 3.58817e-06 0)
(0 -1.26734e-05 0)
(0 3.35459e-06 0)
(0 5.83762e-06 0)
(0 -2.84998e-06 0)
(0 3.14555e-07 0)
(0 4.84151e-06 0)
(0 -3.07056e-07 0)
(0 -8.5873e-06 0)
(0 3.56398e-06 0)
(0 3.59009e-06 0)
(0 1.42235e-06 0)
(0 3.59025e-06 0)
(0 2.93614e-06 0)
(0 3.58819e-06 0)
(0 3.12731e-06 0)
(0 3.27229e-06 0)
(0 3.58094e-06 0)
(0 -4.58012e-06 0)
(0 3.58281e-06 0)
(0 6.74628e-07 0)
(0 3.60178e-06 0)
(0 -4.32929e-05 0)
(0 -9.45993e-06 0)
(0 -8.54686e-07 0)
(0 -2.389e-05 0)
(0 2.66247e-06 0)
(0 -3.95305e-06 0)
(0 -7.14546e-07 0)
(0 8.73371e-07 0)
(0 2.35529e-06 0)
(0 2.4395e-06 0)
(0 2.24852e-06 0)
(0 5.07191e-06 0)
(0 3.1102e-06 0)
(0 -5.14965e-05 0)
(0 -1.18137e-05 0)
(0 -9.56882e-07 0)
(0 -2.79884e-06 0)
(0 2.87195e-06 0)
(0 3.55772e-06 0)
(0 -3.92251e-06 0)
(0 -4.62301e-05 0)
(0 -4.96188e-06 0)
(0 3.11158e-06 0)
(0 -1.85091e-06 0)
(0 -6.77056e-06 0)
(0 3.48333e-06 0)
(0 -1.16057e-05 0)
(0 3.58219e-06 0)
(0 -1.4765e-05 0)
(0 3.57933e-06 0)
(0 -3.54384e-05 0)
(0 -3.13256e-06 0)
(0 -4.46749e-06 0)
(0 -7.94478e-06 0)
(0 1.97666e-07 0)
(0 2.03442e-06 0)
(0 -3.93602e-06 0)
(0 3.57944e-06 0)
(0 -8.30023e-06 0)
(0 3.59851e-06 0)
(0 3.59145e-06 0)
(0 -2.17456e-06 0)
(0 4.86681e-06 0)
(0 4.4394e-06 0)
(0 -1.43897e-05 0)
(0 3.58507e-06 0)
(0 -7.82362e-06 0)
(0 3.57537e-06 0)
(0 3.58842e-06 0)
(0 1.42913e-06 0)
(0 3.58668e-06 0)
(0 5.0759e-06 0)
(0 -5.83466e-06 0)
(0 3.5869e-06 0)
(0 3.58328e-06 0)
(0 -7.30612e-07 0)
(0 -4.74085e-07 0)
(0 -5.97119e-06 0)
(0 -4.24152e-06 0)
(0 -4.64529e-05 0)
(0 2.76148e-06 0)
(0 3.58137e-06 0)
(0 -3.63168e-06 0)
(0 3.54797e-06 0)
(0 3.59e-06 0)
(0 2.40064e-06 0)
(0 1.78069e-06 0)
(0 -2.19527e-05 0)
(0 3.59048e-06 0)
(0 3.05072e-06 0)
(0 6.4925e-07 0)
(0 -3.87873e-06 0)
(0 -5.11362e-06 0)
(0 3.57722e-06 0)
(0 -7.33169e-06 0)
(0 3.58855e-06 0)
(0 3.16664e-06 0)
(0 2.38785e-06 0)
(0 7.32384e-07 0)
(0 1.20313e-06 0)
(0 -5.91312e-06 0)
(0 -3.69069e-06 0)
(0 3.13945e-06 0)
(0 -9.54082e-06 0)
(0 -4.79502e-05 0)
(0 3.59007e-06 0)
(0 5.03459e-06 0)
(0 -1.25835e-05 0)
(0 3.592e-06 0)
(0 -5.47735e-06 0)
(0 -4.73275e-06 0)
(0 2.78114e-06 0)
(0 3.54156e-06 0)
(0 -1.02821e-05 0)
(0 3.58607e-06 0)
(0 -4.11447e-06 0)
(0 -1.54208e-05 0)
(0 -1.85589e-06 0)
(0 3.59024e-06 0)
(0 3.55461e-06 0)
(0 3.58795e-06 0)
(0 3.45862e-06 0)
(0 1.46846e-06 0)
(0 -4.99229e-06 0)
(0 3.58743e-06 0)
(0 -2.40098e-05 0)
(0 3.09733e-06 0)
(0 2.84082e-06 0)
(0 3.57804e-06 0)
(0 7.82553e-06 0)
(0 6.40115e-06 0)
(0 3.51121e-06 0)
(0 -6.04721e-06 0)
(0 3.59022e-06 0)
(0 -4.2508e-05 0)
(0 3.59079e-06 0)
(0 2.00577e-06 0)
(0 -3.36984e-06 0)
(0 -9.39182e-07 0)
(0 3.51923e-06 0)
(0 3.59047e-06 0)
(0 -9.93523e-07 0)
(0 -2.13338e-05 0)
(0 -3.25467e-06 0)
(0 -5.21383e-05 0)
(0 -3.04669e-05 0)
(0 -5.54338e-07 0)
(0 1.66642e-06 0)
(0 -3.76013e-06 0)
(0 3.50574e-06 0)
(0 -2.04388e-06 0)
(0 3.58594e-06 0)
(0 -4.29278e-05 0)
(0 -1.14412e-05 0)
(0 3.45276e-06 0)
(0 3.58316e-06 0)
(0 3.47e-06 0)
(0 -4.94977e-06 0)
(0 3.56921e-06 0)
(0 -4.37343e-05 0)
(0 3.58844e-06 0)
(0 -3.02739e-06 0)
(0 2.70042e-06 0)
(0 -8.83683e-06 0)
(0 3.58903e-06 0)
(0 -5.73725e-06 0)
(0 -3.6064e-06 0)
(0 -6.46134e-06 0)
(0 -5.96745e-06 0)
(0 -4.44982e-07 0)
(0 3.5462e-06 0)
(0 3.17292e-06 0)
(0 3.57686e-06 0)
(0 1.88876e-06 0)
(0 -2.59845e-05 0)
(0 -4.21317e-06 0)
(0 5.1547e-07 0)
(0 5.44731e-06 0)
(0 7.54331e-06 0)
(0 -1.64165e-06 0)
(0 2.82835e-06 0)
(0 -4.0691e-05 0)
(0 3.59013e-06 0)
(0 2.23654e-06 0)
(0 -4.65236e-07 0)
(0 -3.0116e-06 0)
(0 3.58849e-06 0)
(0 -1.897e-06 0)
(0 -1.46473e-06 0)
(0 -4.82375e-06 0)
(0 1.83488e-06 0)
(0 3.59144e-06 0)
(0 -6.30799e-06 0)
(0 3.56273e-06 0)
(0 -1.1741e-05 0)
(0 -4.82245e-06 0)
(0 3.48663e-06 0)
(0 -1.14164e-05 0)
(0 -5.5869e-06 0)
(0 6.75814e-07 0)
(0 2.58379e-06 0)
(0 -4.40764e-05 0)
(0 3.29525e-06 0)
(0 9.75415e-07 0)
(0 3.58985e-06 0)
(0 -3.79787e-06 0)
(0 3.54478e-06 0)
(0 2.05037e-06 0)
(0 1.23643e-06 0)
(0 2.49324e-07 0)
(0 -5.21186e-06 0)
(0 3.47035e-06 0)
(0 -2.81668e-05 0)
(0 3.59012e-06 0)
(0 -1.01477e-05 0)
(0 -6.04251e-06 0)
(0 3.58614e-06 0)
(0 -1.00965e-05 0)
(0 -3.06906e-05 0)
(0 3.54092e-06 0)
(0 -6.19323e-06 0)
(0 3.37818e-06 0)
(0 3.59015e-06 0)
(0 -7.85454e-06 0)
(0 3.03808e-06 0)
(0 3.5901e-06 0)
(0 -1.96724e-06 0)
(0 -5.72902e-06 0)
(0 -2.72556e-05 0)
(0 -2.52895e-05 0)
(0 -1.3216e-05 0)
(0 -4.99142e-06 0)
(0 2.34796e-06 0)
(0 -4.49844e-05 0)
(0 -2.05145e-07 0)
(0 3.5668e-06 0)
(0 6.90369e-06 0)
(0 3.59023e-06 0)
(0 -3.65538e-05 0)
(0 -7.26633e-06 0)
(0 3.10106e-06 0)
(0 3.59025e-06 0)
(0 9.29341e-06 0)
(0 -4.71717e-06 0)
(0 -1.33302e-05 0)
(0 -1.39464e-05 0)
(0 1.63579e-06 0)
(0 3.47594e-06 0)
(0 3.1138e-07 0)
(0 -3.21493e-05 0)
(0 4.83626e-07 0)
(0 3.07827e-06 0)
(0 -7.88739e-07 0)
(0 3.43175e-06 0)
(0 3.57742e-06 0)
(0 -4.46599e-05 0)
(0 3.58827e-06 0)
(0 -4.87268e-06 0)
(0 -1.00531e-05 0)
(0 -6.33943e-06 0)
(0 3.5888e-06 0)
(0 4.08478e-07 0)
(0 4.6568e-06 0)
(0 -1.7109e-06 0)
(0 -9.58492e-06 0)
(0 -5.95194e-06 0)
(0 7.33017e-07 0)
(0 3.59174e-06 0)
(0 3.59092e-06 0)
(0 3.58531e-06 0)
(0 2.21431e-06 0)
(0 -3.48044e-06 0)
(0 -7.3327e-06 0)
(0 -4.50512e-06 0)
(0 -2.31378e-05 0)
(0 3.58267e-06 0)
(0 3.58975e-06 0)
(0 -2.24266e-06 0)
(0 -2.63983e-05 0)
(0 3.59118e-06 0)
(0 4.58709e-06 0)
(0 2.32786e-06 0)
(0 3.56946e-06 0)
(0 -2.82794e-06 0)
(0 2.51174e-06 0)
(0 -1.88273e-06 0)
(0 -2.14496e-05 0)
(0 3.5932e-06 0)
(0 -5.93429e-06 0)
(0 1.86461e-06 0)
(0 4.61927e-06 0)
(0 -2.1104e-05 0)
(0 -1.15051e-05 0)
(0 1.2298e-06 0)
(0 2.6182e-06 0)
(0 -1.20539e-05 0)
(0 5.5096e-06 0)
(0 3.58473e-06 0)
(0 -2.54767e-06 0)
(0 4.56213e-06 0)
(0 1.00581e-06 0)
(0 -9.96525e-06 0)
(0 -6.10955e-06 0)
(0 -1.45624e-05 0)
(0 3.42905e-06 0)
(0 -5.04483e-06 0)
(0 3.3317e-06 0)
(0 -1.41133e-05 0)
(0 -1.56482e-05 0)
(0 3.58123e-06 0)
(0 3.00621e-06 0)
(0 3.47281e-06 0)
(0 -1.47666e-06 0)
(0 2.79473e-06 0)
(0 -1.16209e-06 0)
(0 -4.00925e-06 0)
(0 -3.59548e-06 0)
(0 -1.1335e-05 0)
(0 7.89675e-06 0)
(0 -9.08006e-06 0)
(0 -6.94747e-06 0)
(0 1.10944e-06 0)
(0 -2.70743e-06 0)
(0 9.92689e-07 0)
(0 5.07894e-06 0)
(0 1.08573e-06 0)
(0 3.59804e-06 0)
(0 3.54178e-06 0)
(0 3.16727e-06 0)
(0 3.4586e-06 0)
(0 4.44314e-07 0)
(0 1.33547e-06 0)
(0 3.51286e-06 0)
(0 3.10962e-06 0)
(0 2.29478e-06 0)
(0 -3.82587e-06 0)
(0 1.27686e-06 0)
(0 3.45715e-06 0)
(0 3.17116e-06 0)
(0 2.03892e-06 0)
(0 -1.6861e-06 0)
(0 -9.52089e-06 0)
(0 -6.3064e-06 0)
(0 9.7977e-06 0)
(0 -1.91652e-05 0)
(0 3.58289e-06 0)
(0 3.58344e-06 0)
(0 3.59013e-06 0)
(0 -1.37061e-06 0)
(0 5.65733e-06 0)
(0 1.14919e-06 0)
(0 6.0425e-06 0)
(0 3.59162e-06 0)
(0 3.49707e-06 0)
(0 -3.28832e-05 0)
(0 3.59014e-06 0)
(0 1.21462e-06 0)
(0 -3.956e-06 0)
(0 -4.34373e-05 0)
(0 1.92988e-06 0)
(0 -4.10034e-06 0)
(0 3.04504e-06 0)
(0 -1.43696e-06 0)
(0 3.43312e-06 0)
(0 6.65906e-06 0)
(0 6.24501e-06 0)
(0 2.71499e-06 0)
(0 -3.1994e-06 0)
(0 5.12598e-06 0)
(0 -6.44868e-06 0)
(0 1.88702e-06 0)
(0 7.66895e-06 0)
(0 3.27427e-06 0)
(0 -2.73863e-06 0)
(0 -1.21133e-05 0)
(0 -3.62257e-06 0)
(0 -9.14652e-06 0)
(0 3.39933e-06 0)
(0 5.41077e-07 0)
(0 -1.89113e-06 0)
(0 -5.98695e-06 0)
(0 3.58927e-06 0)
(0 3.47546e-06 0)
(0 -3.96405e-06 0)
(0 1.75072e-06 0)
(0 -7.82326e-06 0)
(0 3.58961e-06 0)
(0 3.54108e-06 0)
(0 3.58729e-06 0)
(0 2.76792e-06 0)
(0 -1.16803e-05 0)
(0 9.86187e-08 0)
(0 1.19647e-06 0)
(0 3.0368e-06 0)
(0 3.59291e-06 0)
(0 8.90709e-07 0)
(0 -3.99218e-06 0)
(0 -5.88207e-06 0)
(0 3.47266e-06 0)
(0 -3.82164e-06 0)
(0 3.59013e-06 0)
(0 -2.61349e-05 0)
(0 -3.53007e-06 0)
(0 3.58527e-06 0)
(0 -3.24105e-07 0)
(0 -3.37422e-06 0)
(0 3.30535e-06 0)
(0 -3.6611e-06 0)
(0 -2.16245e-06 0)
(0 3.49404e-06 0)
(0 3.50053e-06 0)
(0 -5.10877e-06 0)
(0 3.4421e-06 0)
(0 2.78066e-06 0)
(0 3.59009e-06 0)
(0 3.53331e-06 0)
(0 -1.07128e-05 0)
(0 3.59177e-06 0)
(0 -3.41637e-06 0)
(0 2.88954e-06 0)
(0 -5.11545e-06 0)
(0 -3.1513e-06 0)
(0 3.59041e-06 0)
(0 2.76491e-06 0)
(0 -3.66889e-06 0)
(0 -5.81264e-06 0)
(0 3.59263e-06 0)
(0 -1.72382e-06 0)
(0 3.34156e-06 0)
(0 3.40731e-06 0)
(0 8.74798e-07 0)
(0 -2.15224e-05 0)
(0 -6.55133e-07 0)
(0 3.42417e-06 0)
(0 3.44536e-06 0)
(0 -1.08275e-05 0)
(0 1.79029e-06 0)
(0 2.01593e-06 0)
(0 -1.14561e-05 0)
(0 -1.58731e-05 0)
(0 -4.15072e-05 0)
(0 -2.63094e-05 0)
(0 -1.85639e-06 0)
(0 3.02008e-06 0)
(0 3.51718e-06 0)
(0 -8.8575e-07 0)
(0 -3.78695e-08 0)
(0 3.60075e-06 0)
(0 4.01481e-06 0)
(0 3.57462e-06 0)
(0 2.77455e-06 0)
(0 2.91405e-06 0)
(0 7.53392e-06 0)
(0 -9.73853e-06 0)
(0 -4.04374e-06 0)
(0 6.55894e-06 0)
(0 3.74812e-06 0)
(0 3.59013e-06 0)
(0 3.24302e-06 0)
(0 3.56685e-06 0)
(0 -8.1994e-07 0)
(0 2.92709e-07 0)
(0 -3.23472e-06 0)
(0 6.68825e-07 0)
(0 3.59006e-06 0)
(0 5.19334e-07 0)
(0 -2.03913e-05 0)
(0 6.09168e-06 0)
(0 3.58041e-06 0)
(0 3.56824e-06 0)
(0 2.84263e-06 0)
(0 -3.86792e-07 0)
(0 -1.16953e-05 0)
(0 3.58766e-06 0)
(0 -9.84739e-06 0)
(0 -7.54247e-07 0)
(0 -9.83382e-06 0)
(0 3.16309e-06 0)
(0 -2.61418e-05 0)
(0 -4.13076e-06 0)
(0 3.59142e-06 0)
(0 -3.8638e-07 0)
(0 3.59009e-06 0)
(0 3.58128e-06 0)
(0 3.58013e-06 0)
(0 3.59014e-06 0)
(0 -3.37859e-08 0)
(0 2.85229e-06 0)
(0 3.09001e-06 0)
(0 3.02296e-06 0)
(0 3.58952e-06 0)
(0 -1.17177e-05 0)
(0 1.72503e-06 0)
(0 -4.65562e-05 0)
(0 2.5188e-06 0)
(0 3.58936e-06 0)
(0 -4.95091e-05 0)
(0 3.5791e-06 0)
(0 3.95643e-07 0)
(0 1.97195e-06 0)
(0 3.24123e-06 0)
(0 -5.35876e-06 0)
(0 3.57413e-06 0)
(0 -9.44202e-06 0)
(0 3.55961e-06 0)
(0 -1.8124e-05 0)
(0 5.25667e-06 0)
(0 3.57452e-06 0)
(0 -3.6727e-05 0)
(0 -4.80399e-06 0)
(0 -4.55689e-06 0)
(0 -2.55563e-05 0)
(0 1.47327e-06 0)
(0 3.5043e-06 0)
(0 -4.93721e-06 0)
(0 8.38819e-07 0)
(0 3.49624e-06 0)
(0 -1.01057e-05 0)
(0 3.58966e-06 0)
(0 2.09637e-06 0)
(0 -4.5362e-06 0)
(0 -1.58411e-05 0)
(0 -6.21364e-06 0)
(0 -2.4933e-05 0)
(0 3.02143e-06 0)
(0 2.56718e-06 0)
(0 3.58849e-06 0)
(0 -5.62502e-06 0)
(0 -2.8474e-06 0)
(0 1.71711e-06 0)
(0 3.59087e-06 0)
(0 3.42479e-06 0)
(0 -1.7733e-05 0)
(0 6.24207e-06 0)
(0 -5.22316e-05 0)
(0 7.15421e-07 0)
(0 3.58919e-06 0)
(0 3.5495e-06 0)
(0 3.53986e-06 0)
(0 -2.82396e-05 0)
(0 2.32164e-07 0)
(0 3.05542e-07 0)
(0 -4.86131e-05 0)
(0 1.91725e-06 0)
(0 3.58887e-06 0)
(0 4.63073e-06 0)
(0 2.44935e-06 0)
(0 3.46676e-06 0)
(0 2.68148e-06 0)
(0 2.82922e-06 0)
(0 3.58213e-06 0)
(0 -2.6984e-06 0)
(0 -5.06163e-06 0)
(0 3.21688e-06 0)
(0 -9.46035e-08 0)
(0 -1.18117e-05 0)
(0 3.29297e-06 0)
(0 -7.11639e-06 0)
(0 1.72627e-06 0)
(0 3.49377e-06 0)
(0 -8.51896e-06 0)
(0 -4.07725e-06 0)
(0 3.59013e-06 0)
(0 1.99939e-06 0)
(0 -4.34794e-06 0)
(0 1.19658e-06 0)
(0 3.59031e-06 0)
(0 3.28696e-06 0)
(0 3.58588e-06 0)
(0 -6.14125e-06 0)
(0 3.55018e-06 0)
(0 -2.62633e-05 0)
(0 2.97766e-06 0)
(0 2.34538e-06 0)
(0 -5.8354e-06 0)
(0 3.60101e-06 0)
(0 -3.18558e-05 0)
(0 -1.50749e-06 0)
(0 -6.01608e-06 0)
(0 -8.2041e-06 0)
(0 3.58184e-06 0)
(0 -3.47337e-06 0)
(0 2.08099e-06 0)
(0 3.58584e-06 0)
(0 -3.20798e-06 0)
(0 3.5906e-06 0)
(0 -2.18352e-05 0)
(0 3.55631e-06 0)
(0 2.83919e-06 0)
(0 3.45731e-06 0)
(0 -5.5131e-07 0)
(0 -6.11365e-06 0)
(0 8.38688e-07 0)
(0 1.6974e-06 0)
(0 2.86462e-06 0)
(0 3.27137e-06 0)
(0 3.53961e-06 0)
(0 -7.99939e-06 0)
(0 3.5852e-06 0)
(0 3.57832e-06 0)
(0 -1.28756e-05 0)
(0 3.21805e-06 0)
(0 3.43154e-06 0)
(0 -5.94753e-06 0)
(0 3.59011e-06 0)
(0 1.37669e-06 0)
(0 -4.42756e-08 0)
(0 3.38932e-06 0)
(0 -7.3187e-06 0)
(0 -4.25354e-05 0)
(0 1.15167e-06 0)
(0 3.36902e-06 0)
(0 1.53608e-06 0)
(0 2.25816e-06 0)
(0 3.59493e-06 0)
(0 3.55696e-06 0)
(0 3.47475e-06 0)
(0 3.59023e-06 0)
(0 -7.17571e-06 0)
(0 2.67169e-06 0)
(0 3.6004e-06 0)
(0 -1.12505e-05 0)
(0 -4.21461e-06 0)
(0 3.37625e-06 0)
(0 2.38761e-06 0)
(0 -5.87304e-06 0)
(0 3.52527e-06 0)
(0 3.20386e-06 0)
(0 3.5194e-06 0)
(0 3.40754e-06 0)
(0 -6.04201e-06 0)
(0 3.4521e-06 0)
(0 -1.94344e-05 0)
(0 -7.45226e-06 0)
(0 2.75599e-06 0)
(0 3.59161e-06 0)
(0 2.59545e-06 0)
(0 3.53441e-06 0)
(0 2.48742e-06 0)
(0 -6.39336e-06 0)
(0 3.33853e-06 0)
(0 1.95692e-06 0)
(0 2.92375e-06 0)
(0 -3.10859e-06 0)
(0 -1.66577e-06 0)
(0 -1.37155e-05 0)
(0 1.28914e-06 0)
(0 -6.64528e-07 0)
(0 3.51978e-06 0)
(0 -8.00945e-06 0)
(0 2.01422e-06 0)
(0 3.59046e-06 0)
(0 7.32916e-06 0)
(0 -8.07397e-06 0)
(0 3.3828e-06 0)
(0 6.14161e-06 0)
(0 2.7031e-06 0)
(0 -3.0727e-05 0)
(0 3.22244e-06 0)
(0 3.58929e-06 0)
(0 -5.52566e-06 0)
(0 -1.08667e-05 0)
(0 -1.70344e-05 0)
(0 3.08705e-06 0)
(0 -5.56379e-06 0)
(0 -4.89609e-06 0)
(0 3.37505e-06 0)
(0 3.57646e-06 0)
(0 2.48742e-07 0)
(0 3.5898e-06 0)
(0 3.34523e-06 0)
(0 -9.26269e-06 0)
(0 2.27582e-06 0)
(0 3.21241e-06 0)
(0 -3.71886e-06 0)
(0 3.9632e-06 0)
(0 -3.22046e-06 0)
(0 3.46508e-06 0)
(0 -5.11652e-05 0)
(0 3.48781e-06 0)
(0 3.5716e-06 0)
(0 -8.76246e-06 0)
(0 3.27668e-06 0)
(0 -1.00378e-05 0)
(0 2.60763e-06 0)
(0 2.48613e-06 0)
(0 -5.11814e-06 0)
(0 1.05741e-05 0)
(0 4.20142e-06 0)
(0 5.82627e-06 0)
(0 3.21078e-06 0)
(0 2.96814e-06 0)
(0 -1.93905e-05 0)
(0 2.60551e-06 0)
(0 8.56103e-07 0)
(0 3.13255e-07 0)
(0 -1.72024e-05 0)
(0 -2.61164e-05 0)
(0 1.7466e-06 0)
(0 3.9891e-06 0)
(0 -7.20007e-06 0)
(0 3.17062e-06 0)
(0 -3.576e-05 0)
(0 3.59218e-06 0)
(0 -4.25039e-06 0)
(0 1.61247e-06 0)
(0 -9.29006e-07 0)
(0 3.06284e-06 0)
(0 2.03569e-06 0)
(0 -1.63767e-06 0)
(0 -9.29744e-06 0)
(0 -2.02978e-05 0)
(0 3.5791e-06 0)
(0 3.54627e-06 0)
(0 3.58982e-06 0)
(0 3.51599e-06 0)
(0 1.18137e-07 0)
(0 -2.14035e-05 0)
(0 3.57548e-06 0)
(0 1.33781e-06 0)
(0 3.58857e-06 0)
(0 2.99017e-06 0)
(0 -5.88458e-06 0)
(0 2.16771e-08 0)
(0 -5.08804e-08 0)
(0 -2.33194e-05 0)
(0 3.4047e-06 0)
(0 3.35712e-06 0)
(0 -4.68574e-06 0)
(0 3.59021e-06 0)
(0 1.04064e-06 0)
(0 2.80485e-06 0)
(0 -7.29288e-06 0)
(0 -3.59153e-06 0)
(0 -4.35429e-05 0)
(0 -1.17402e-06 0)
(0 3.59089e-06 0)
(0 1.38415e-06 0)
(0 3.59046e-06 0)
(0 -5.42699e-06 0)
(0 3.58957e-06 0)
(0 -3.5854e-05 0)
(0 -1.63541e-06 0)
(0 -3.43947e-06 0)
(0 -4.23304e-06 0)
(0 3.46249e-06 0)
(0 -9.6657e-06 0)
(0 -3.36907e-06 0)
(0 5.89472e-06 0)
(0 3.59001e-06 0)
(0 1.77324e-06 0)
(0 3.56808e-06 0)
(0 -2.33526e-05 0)
(0 -3.10621e-05 0)
(0 -3.78782e-05 0)
(0 -2.1787e-06 0)
(0 1.47029e-07 0)
(0 3.59081e-06 0)
(0 3.57507e-06 0)
(0 5.32589e-08 0)
(0 -4.38565e-06 0)
(0 3.57031e-06 0)
(0 3.08501e-06 0)
(0 -6.01919e-06 0)
(0 2.97964e-06 0)
(0 -1.97007e-05 0)
(0 -1.44161e-05 0)
(0 -1.11179e-05 0)
(0 3.46677e-06 0)
(0 -4.652e-06 0)
(0 7.66783e-07 0)
(0 -5.66946e-07 0)
(0 -1.08162e-05 0)
(0 3.5773e-06 0)
(0 -2.88653e-06 0)
(0 -2.02912e-05 0)
(0 -4.3732e-06 0)
(0 -9.53171e-06 0)
(0 9.0364e-06 0)
(0 -8.72989e-06 0)
(0 -9.81368e-06 0)
(0 -3.63188e-07 0)
(0 -3.51888e-06 0)
(0 2.20052e-07 0)
(0 -5.82605e-06 0)
(0 3.58936e-06 0)
(0 2.21962e-06 0)
(0 -3.42807e-06 0)
(0 -1.21739e-05 0)
(0 3.5807e-06 0)
(0 6.12968e-06 0)
(0 5.7043e-06 0)
(0 7.21099e-07 0)
(0 -1.42789e-06 0)
(0 -8.45726e-06 0)
(0 -9.27586e-07 0)
(0 3.35055e-06 0)
(0 -1.86466e-06 0)