/*--------------------------------*- C++ -*----------------------------------*\
| =========                 |                                                 |
| \\      /  F ield         | OpenFOAM: The Open Source CFD Toolbox           |
|  \\    /   O peration     | Version:  v2012                                 |
|   \\  /    A nd           | Website:  www.openfoam.com                      |
|    \\/     M anipulation  |                                                 |
\*---------------------------------------------------------------------------*/
FoamFile
{
    version     2.0;
    format      ascii;
    class       volVectorField;
    location    "350";
    object      ddtCorrDdt0(U);
}
// * * * * * * * * * * * * * * * * * * * * * * * * * * * * * * * * * * * * * //

dimensions      [0 1 -2 0 0 0 0];


internalField   nonuniform List<vector> 
18355
(
(-0.00296071 0.001266 -3.19784e-18)
(0.0461974 -0.000195235 5.66499e-18)
(-0.000607413 -0.00057002 4.38661e-18)
(-8.58808e-05 0.000242938 7.82119e-20)
(0.000849857 0.00127125 6.30213e-19)
(-0.0130869 0.0129682 -2.37683e-17)
(-0.000193189 -6.72903e-07 2.54977e-19)
(-0.00452336 0.000649322 -1.53242e-17)
(0.000211279 -0.00186749 -2.18807e-17)
(0.0295983 -0.00468772 -1.58846e-18)
(0.000177943 0.000270394 -5.25656e-19)
(-0.0332448 0.0048023 7.36751e-17)
(-0.00402142 -0.00272182 2.53305e-17)
(-9.98938e-05 -0.000818627 -1.25911e-18)
(-0.0010243 0.000675885 5.77455e-20)
(-0.00175764 -0.000581514 -2.13115e-18)
(0.00691671 -0.000301798 -1.56121e-17)
(-0.000279808 0.000341787 4.56017e-19)
(-0.00100891 -0.000296356 1.63289e-18)
(-0.0362739 0.0103944 2.07049e-17)
(-0.00205425 -0.00108467 -5.87333e-18)
(-0.000812461 -0.00127576 3.65524e-18)
(-0.020837 -0.0191618 1.89979e-18)
(0.00090117 0.0012258 -1.1524e-18)
(0.0028271 0.00254139 -1.80491e-18)
(-0.000113189 -0.000664642 2.14958e-18)
(7.09985e-06 -0.000346693 3.78888e-18)
(-8.33734e-05 -0.00184032 1.57659e-17)
(-0.0448404 -0.135964 2.3733e-18)
(-0.00063839 -0.000961362 2.18911e-20)
(0.000768225 0.000831128 2.59866e-19)
(0.00125214 0.00185232 -1.10498e-18)
(-0.000268998 0.000336212 1.04544e-19)
(-0.000130204 1.54168e-05 5.72811e-19)
(-0.00376355 0.00192464 5.26871e-18)
(-0.00299122 0.00130247 5.65871e-18)
(0.000129973 -0.00174526 8.00503e-18)
(-0.00906248 0.00314993 -1.18205e-17)
(-0.000128371 -0.00182733 -1.83242e-17)
(0.000166478 0.000258209 -2.91965e-19)
(-0.000109972 -0.000843719 3.52395e-18)
(-0.00661563 -0.00401394 7.54693e-18)
(-0.00063216 -0.000572557 -5.84808e-18)
(0.0214462 -0.00412118 -9.16125e-18)
(0.000122309 2.27464e-05 5.42083e-20)
(-0.00922019 0.00353319 1.10478e-17)
(-0.00295988 0.00133228 -3.26184e-17)
(-0.000593474 -0.00185706 1.24624e-18)
(-0.00304406 0.00138673 -1.39119e-17)
(-0.000328152 0.000297889 2.65067e-19)
(8.00757e-05 0.000145839 -3.08155e-19)
(-0.000646183 0.000335052 -1.23665e-19)
(-2.45267e-06 -0.000134969 2.42213e-18)
(0.0188429 -0.00915087 4.90265e-18)
(-0.000198206 -0.000240311 -1.26248e-18)
(-0.000134797 -9.41558e-06 -1.43607e-18)
(0.00549826 0.0454103 1.10683e-17)
(-0.0010629 0.000677537 -3.91232e-20)
(-0.000741606 -0.0117117 -1.18919e-16)
(-0.00214944 0.00504466 -9.45454e-18)
(-0.00032887 0.000267358 2.95548e-19)
(-0.00880597 0.00500756 8.63252e-18)
(-0.000236606 0.000388725 1.01324e-19)
(-0.00486062 -0.000960389 1.82111e-19)
(-0.0337426 0.00507313 -7.76304e-17)
(-0.00289223 0.00126571 -5.87822e-18)
(-0.0148167 -0.120606 7.66953e-18)
(-0.000972469 -0.00331016 -7.52118e-18)
(1.14866e-05 -0.00039544 -6.52211e-18)
(-0.000839833 -0.00127417 -5.00683e-18)
(-0.00283177 0.00184393 1.77284e-17)
(-8.965e-06 -5.77959e-05 1.24367e-18)
(-0.00224005 0.00544721 3.71825e-18)
(-0.0003511 2.02182e-05 -4.01423e-19)
(-0.00428202 0.000630186 -7.32667e-18)
(-0.00019721 -1.15675e-05 -7.74555e-19)
(0.0280633 -0.00979557 -2.4338e-18)
(0.000984222 0.00186812 3.11037e-18)
(0.00314454 0.00452219 -3.98017e-18)
(-0.000569621 0.000303475 7.41386e-20)
(-0.000190993 1.51567e-05 -9.14791e-19)
(-0.0148349 0.00250648 4.80195e-17)
(-0.00200963 -0.00104889 7.19085e-18)
(-0.00494018 0.000223668 -1.85282e-18)
(-0.000107277 -0.000650623 -1.56311e-18)
(-0.00404318 -0.00246248 -1.47838e-17)
(0.0392689 -0.0327585 1.2719e-17)
(-0.0420247 0.0122962 -4.56995e-18)
(-0.0389627 -0.142224 1.15716e-17)
(0.00973048 -0.0175881 8.77882e-18)
(-0.0347019 -0.0110985 -4.15684e-18)
(0.000115395 2.32372e-05 -6.22562e-20)
(-0.000172151 -0.000399275 -1.08537e-19)
(0.000129629 0.000175781 8.33702e-19)
(-0.00896817 -0.146154 7.60886e-18)
(-0.0240459 -0.0177296 -2.19745e-17)
(-0.00038008 0.00063384 -1.85034e-19)
(-0.000293796 0.00318172 -4.63467e-18)
(0.0215237 -0.00832808 -6.52126e-18)
(0.00479232 -0.000784151 3.45282e-17)
(-0.00893907 -0.166894 9.5396e-18)
(0.00567078 -0.00047178 3.01047e-17)
(-0.0039996 0.00117913 1.18766e-17)
(0.00390505 -0.0226373 -1.31541e-17)
(0.00130586 0.00126191 4.12975e-18)
(-0.0149247 0.00025181 -9.05063e-18)
(-0.0272968 0.00287032 1.04889e-17)
(-0.00936 0.000452178 -9.48429e-18)
(-0.00274252 0.00235555 -2.09991e-18)
(0.0025229 -0.00945282 -6.83289e-18)
(-0.000639665 -0.00081227 -2.55289e-18)
(-0.000394081 -0.00173792 8.0913e-18)
(-9.15353e-05 -0.0007186 5.1292e-18)
(-0.000364037 -0.00175986 -6.50864e-18)
(0.0276098 -0.00133044 -1.39023e-17)
(-0.000120024 1.01406e-05 -4.72642e-21)
(5.33533e-05 -0.0116761 -1.3708e-16)
(0.0253046 -0.00905052 -5.4463e-18)
(-0.000504204 -0.0113866 -2.99866e-17)
(-0.0041026 0.00108564 -1.82622e-17)
(0.0276609 -0.00609778 3.82798e-18)
(0.00915299 0.0151925 -6.0523e-17)
(0.00106199 0.00181427 -7.45463e-18)
(-0.00289719 0.00193834 -4.26179e-18)
(-0.000378345 0.000636262 7.97602e-19)
(-0.00975314 0.000256158 1.07401e-17)
(-0.000626313 0.000359599 1.01943e-18)
(-9.88958e-06 -0.000187062 8.11035e-19)
(-0.0278477 0.0104676 -6.18326e-17)
(0.000122792 0.000163736 -1.09512e-18)
(7.1074e-05 0.00014918 5.21354e-20)
(0.00171228 -0.0360599 -3.51096e-18)
(-0.00542427 0.00377399 7.95954e-18)
(-0.000135909 0.00315502 3.70472e-18)
(-0.00388762 -0.00301195 1.26963e-17)
(-1.15815e-05 -0.000212702 -8.57019e-18)
(-0.000800781 0.000607066 2.89278e-20)
(0.000186633 0.000278859 5.11251e-19)
(-0.000352403 -0.000778455 1.06744e-18)
(-0.00486003 0.00299998 2.74839e-17)
(-0.0112183 -0.168464 -4.89535e-18)
(-0.0110121 -0.170149 -1.52986e-17)
(-0.00126381 -0.000357379 2.42083e-18)
(-0.00060961 -0.000820163 2.27813e-18)
(-0.000164324 -0.00945406 -7.36818e-17)
(-0.000748216 -0.00133164 3.54735e-18)
(5.04739e-05 -0.00226375 6.37826e-18)
(0.0277241 -0.0652305 4.16166e-18)
(-0.00046379 0.0019455 -4.19796e-18)
(0.012099 -0.0781508 -5.54623e-18)
(0.000401414 0.00113665 -1.45667e-18)
(-0.000785686 -0.001305 -4.604e-18)
(-0.00376095 0.00182178 1.21811e-17)
(-0.000586651 -0.0115952 7.6875e-17)
(-0.00568287 0.024473 5.22696e-18)
(-5.27597e-06 -6.22751e-05 2.72558e-18)
(-0.00435404 -0.0356016 -3.30823e-17)
(-0.000435866 -0.0108559 1.94507e-17)
(-6.31737e-06 -6.32354e-05 -1.99922e-18)
(-0.00953169 0.00394066 -2.81589e-17)
(-0.00267174 -0.00021593 1.25842e-18)
(-0.00202617 0.000902375 -2.28125e-18)
(-0.00194427 -0.00244831 -9.34911e-18)
(-6.37837e-05 0.00337181 6.79502e-18)
(-0.0292315 0.0522453 7.88056e-19)
(-0.00425398 -0.0124841 8.14172e-18)
(-0.0137956 -0.000152739 4.53077e-17)
(-0.00310774 0.0014262 7.80971e-18)
(0.000404432 -0.00869635 3.16968e-17)
(-0.000336863 0.000212186 -4.15263e-20)
(0.0594276 -0.0684336 1.91421e-17)
(-0.0281966 -0.0160167 1.02648e-17)
(0.000133452 0.000214388 4.70369e-19)
(0.00014562 0.000237255 -1.0611e-18)
(-0.00175224 -0.000530058 4.57913e-18)
(0.0480181 0.000168215 -6.90849e-18)
(0.00740655 0.0203926 -3.74654e-18)
(-0.00018136 -0.000331216 8.21918e-19)
(-0.016473 0.0128708 -3.28894e-17)
(-0.00341892 -0.00296198 4.60954e-17)
(0.00142638 -0.0066429 4.0912e-17)
(-0.000235626 -0.00928696 -1.14985e-17)
(-0.00147015 0.0031114 1.43306e-21)
(-0.00018376 -8.07965e-05 3.45712e-18)
(-0.0409831 0.0357144 -1.21268e-17)
(0.0473724 0.000325908 1.51773e-17)
(0.000705496 -0.0217808 -1.14413e-17)
(-0.0272523 -0.00729269 -8.47504e-19)
(-8.70008e-05 -0.00189421 -1.14638e-17)
(0.00739279 -0.000253181 -5.50592e-17)
(0.00734773 0.0441025 -8.70075e-18)
(-0.000673667 -0.000537721 -2.16057e-19)
(8.50441e-05 0.00335246 -2.67837e-18)
(0.0238897 -0.01061 2.87519e-18)
(-0.00413475 -0.00361182 1.5603e-17)
(-0.000946104 -0.00117458 -7.17307e-18)
(0.0129315 -0.0176971 3.92435e-17)
(-0.0013225 0.00315317 -1.58389e-18)
(-0.00367558 0.00480771 2.62066e-18)
(0.000129839 0.000223941 1.16281e-18)
(-0.000584534 0.00140408 -9.73517e-19)
(-0.00100242 -0.00173314 -4.97849e-18)
(-0.0036177 -0.00201365 4.78342e-17)
(-0.0024715 -0.0207839 1.92104e-17)
(-0.0541589 0.00133516 -3.09899e-17)
(-0.00290761 -0.00059243 -2.56094e-18)
(0.000169272 -0.0106396 2.46516e-17)
(-0.00970187 0.0121064 2.83306e-18)
(-0.0240576 0.0131274 -1.01411e-16)
(-0.00348846 0.00504125 1.68018e-18)
(-0.000850915 0.000552654 3.49326e-20)
(0.000358405 0.00108459 -3.45334e-18)
(-0.0445811 0.00406853 -1.52665e-17)
(-0.00122827 -0.000366031 -2.98401e-18)
(-0.000332335 0.000176435 -9.56377e-19)
(-0.0145316 0.00275056 3.53404e-18)
(-0.0958151 0.0649353 5.46561e-18)
(-0.0380821 0.00193493 2.39868e-18)
(-7.68748e-05 -0.000739969 -4.61227e-18)
(-0.000450975 0.0018756 2.05941e-18)
(-0.0105892 0.00947023 3.20419e-17)
(-0.000387674 -0.000747713 1.59933e-19)
(-0.0048208 9.49115e-05 1.39666e-18)
(-0.000784296 0.000600979 -1.25146e-20)
(-0.00682106 -0.000107348 7.03644e-17)
(-0.000893741 -0.00102207 2.52811e-18)
(-0.000815209 0.00767569 5.57119e-17)
(0.0480133 -0.00359594 1.00799e-18)
(-8.86544e-05 -0.0074992 1.2118e-17)
(-0.000845705 0.00052671 3.00781e-19)
(-7.46353e-06 -0.000169646 7.33598e-19)
(0.00310383 0.00420813 2.25917e-18)
(-0.00254447 0.000295154 -7.24588e-19)
(-0.000885137 0.0077948 -5.35829e-17)
(-0.00157475 0.000248623 5.33494e-19)
(-0.000123267 -0.000608391 -2.96375e-18)
(-0.000170958 -0.000364609 -1.01616e-18)
(-0.0104249 0.00126595 2.04126e-17)
(-0.0607064 -0.00257005 -2.15982e-17)
(-0.0364579 0.000508103 5.02568e-17)
(-0.00262877 0.00235651 -2.16341e-18)
(0.00169637 -0.00736976 -1.71845e-17)
(0.000866237 0.000841716 3.09559e-19)
(-0.000353051 0.000130124 -9.10171e-19)
(-0.000897506 -0.00110849 -4.44856e-18)
(0.0493596 -0.00263151 7.05348e-18)
(-0.0196499 0.0118679 -5.37399e-17)
(0.000400627 -0.00993338 -3.84922e-17)
(-0.00439594 0.0243546 -3.56428e-18)
(-0.00264414 -0.000140779 -2.18483e-18)
(-0.000624495 0.001381 -2.72934e-18)
(-0.00182893 -0.0149489 2.48529e-18)
(-0.00136048 0.00338615 4.65374e-18)
(-0.02272 0.0139723 1.29143e-17)
(-0.000934227 -0.000884746 -2.57278e-18)
(0.00446996 0.00257252 -1.09789e-17)
(-0.113183 0.0616711 -1.08556e-17)
(-0.00928827 0.00326823 1.83166e-17)
(-0.000766647 -0.000726964 -5.75868e-18)
(-0.00013081 -5.99605e-06 -8.0869e-19)
(-0.00285886 0.00122955 1.1007e-17)
(-0.00259661 0.00188785 -1.32147e-17)
(-0.00682428 -0.00250971 -7.95915e-17)
(-0.00568411 0.00358427 5.87812e-18)
(-0.000220383 -8.9819e-05 2.92889e-19)
(-0.000311144 0.000152222 -1.13236e-20)
(-3.94074e-06 -0.000176341 -1.68714e-18)
(0.00148519 -0.00906448 -6.14064e-17)
(-0.00745297 0.00011466 -4.83757e-18)
(0.000377546 -0.00742398 -7.663e-18)
(-0.00134225 -0.000809982 -2.23503e-19)
(-0.0337281 -0.0988982 -1.71345e-17)
(-0.0279802 -0.00882649 -1.10478e-17)
(-0.0140678 0.000402882 1.64089e-17)
(-0.000874681 0.000937058 -1.51211e-18)
(0.0135811 -0.0186261 -1.78264e-17)
(-0.000586095 0.000339968 -8.55485e-20)
(-0.000247194 -0.000202968 3.71509e-18)
(-0.0129697 -0.0136785 -5.44495e-17)
(-0.00014918 2.5839e-06 3.01809e-19)
(-0.000201259 -2.42963e-05 -3.83169e-18)
(-0.0131831 -0.0012166 -6.22714e-18)
(-0.000419576 -0.000456326 1.1081e-18)
(0.000210853 -0.183656 -1.68231e-17)
(-0.00122675 0.00343362 -1.04871e-18)
(-0.000311139 -0.00203045 1.0269e-17)
(-0.000147483 1.86985e-06 1.52804e-20)
(-0.00314164 0.00143929 -6.87697e-18)
(-0.0250575 0.00588576 -4.37404e-18)
(0.00116785 0.00189668 -6.42974e-19)
(-9.02104e-05 0.000230598 -6.44616e-20)
(6.17082e-06 -0.000520356 -6.1903e-18)
(-0.0222258 0.0047325 8.98232e-19)
(0.0319432 -0.00484612 8.29758e-18)
(-5.80983e-06 -0.000186031 -7.91405e-18)
(-1.63948e-06 -5.23128e-06 -4.07831e-19)
(-0.0970876 0.060502 -6.05047e-18)
(-0.00399377 0.00137265 -1.36331e-18)
(-0.00310192 0.0266418 1.10386e-17)
(-0.00430178 -0.0089038 -8.82053e-18)
(-0.000238459 -0.000171615 8.74319e-20)
(-0.00269046 0.0017987 3.48631e-18)
(-0.000674733 -0.00151586 2.17692e-17)
(-3.02768e-06 -9.57311e-06 1.31887e-18)
(-0.00399645 -0.00863301 4.49533e-17)
(-0.0317145 0.0527369 1.72548e-17)
(-0.0259925 0.0936644 4.38257e-18)
(-0.0238254 0.00450582 -2.40693e-17)
(0.00011773 0.000151086 -3.84535e-20)
(0.00140647 -0.00683285 -2.72064e-17)
(0.00128957 0.00112253 -1.73407e-18)
(-0.000980721 -0.000365005 1.91644e-18)
(-0.00433652 0.0143366 5.31448e-18)
(-0.000569047 -0.000710691 3.70889e-18)
(0.00215276 -0.00844287 -7.23954e-18)
(-0.00640974 -0.00414351 -9.78234e-18)
(-0.000181851 -0.000357201 -1.15911e-18)
(2.71294e-05 0.000130426 7.32081e-20)
(0.00236259 -0.00681433 2.28286e-17)
(0.0520367 -0.0732628 -1.18766e-18)
(-0.0112367 0.0129038 -1.40427e-16)
(-0.00117259 0.000378841 1.77811e-18)
(-0.00188679 -0.00236065 -9.14583e-18)
(0.0212522 -0.00280923 7.77563e-18)
(0.000240448 0.000461148 -1.98261e-18)
(-0.058868 -0.00504237 -4.08423e-18)
(0.00384941 0.00380719 5.40169e-18)
(-0.00325736 -0.00168233 3.54854e-18)
(-0.055983 -0.00455056 2.29315e-18)
(0.000114591 0.00013686 -9.56768e-20)
(-0.0046576 -0.0127785 3.32197e-18)
(-0.000925267 -0.000489246 1.46162e-18)
(-0.00403266 -0.00319675 -3.91127e-18)
(-0.000109934 -1.96322e-05 1.50907e-18)
(-0.00328887 0.0255398 -1.65473e-17)
(-0.00982444 0.00596925 -1.18377e-17)
(2.31955e-06 -0.000208991 -2.35778e-19)
(-0.000166366 -0.00221125 -2.40448e-17)
(-0.00322245 0.00225695 -1.07019e-17)
(-7.24445e-05 -0.000192573 -3.50273e-18)
(-0.0029949 0.00137028 3.03298e-17)
(-0.00948718 0.00547891 -1.13366e-17)
(0.0183701 -0.0223775 7.02987e-18)
(0.0202603 -0.00591517 1.66323e-18)
(0.0052442 -0.0147584 9.42418e-18)
(-0.000898289 -0.000922242 6.28416e-19)
(-0.000218281 0.000380958 2.89315e-20)
(-0.0357205 -0.0127524 -5.72004e-18)
(0.00106723 -0.00601745 -6.28734e-17)
(-0.000166283 -0.000465847 -1.35445e-18)
(-0.00146087 0.000164741 -2.71004e-18)
(-0.0446554 0.0964759 2.17222e-18)
(-0.0406731 0.0375817 -7.97366e-18)
(-0.00212896 -0.0138446 -4.79838e-18)
(-0.0312508 -0.0141767 4.53804e-18)
(-0.000128326 -0.000462278 1.31377e-18)
(-0.000883376 0.00159144 -3.01867e-18)
(2.70695e-05 -0.0107944 4.92406e-19)
(-0.000637817 -0.00078796 -5.84589e-19)
(-0.00152756 0.00024897 -1.36895e-18)
(-0.0231244 -0.014987 6.93496e-18)
(-0.0034366 0.00564636 1.0814e-17)
(0.000303759 0.00248321 -6.87661e-19)
(0.0283282 -0.0864035 1.49094e-17)
(-2.5634e-06 -0.00010127 -3.85066e-18)
(-0.00291214 -0.00447763 -4.04295e-18)
(-0.0111849 0.00990199 -3.85771e-17)
(-0.0289848 0.000375509 -9.23959e-17)
(-7.74065e-05 0.000220662 -1.0737e-19)
(-0.000558122 -0.00121922 3.7056e-18)
(-0.000292136 -0.000525398 -3.82836e-18)
(-0.000445456 0.000627446 -2.67986e-20)
(-0.00444356 -0.00514055 1.91712e-17)
(-0.000433002 0.00063346 4.88248e-19)
(-0.0032494 0.0014015 -7.1339e-18)
(-0.000279528 -0.000478703 -3.0969e-18)
(-0.00210307 0.000542648 6.23679e-19)
(-0.000108503 -0.000498264 -1.80394e-18)
(0.000155105 -0.00185294 2.22956e-17)
(-0.000108376 0.000597788 3.41599e-19)
(-0.0010271 -2.35943e-05 -1.02231e-18)
(-0.000153212 0.000591997 4.51037e-20)
(-0.000122262 0.000564167 -1.48333e-19)
(-0.00173836 -0.000311584 -4.05085e-18)
(-0.0010037 -0.00754581 -1.99172e-17)
(0.0129574 -0.177743 1.35186e-17)
(-0.000771267 0.000636005 -2.73967e-20)
(0.0448569 -0.0181473 -1.81726e-17)
(-0.00344144 -0.00204357 1.42117e-17)
(0.00795004 -0.160152 -3.89829e-18)
(-0.00243464 0.00406762 -5.75824e-18)
(-0.00246413 0.000213605 4.72835e-18)
(-0.000905819 -0.00112942 6.07189e-18)
(0.0330493 -0.0233215 6.61577e-18)
(0.000127192 -0.00173031 8.38074e-18)
(-0.000118056 6.92869e-06 2.05341e-20)
(-0.000123718 -0.00059025 4.03353e-18)
(-3.36531e-05 0.00022437 -1.04023e-20)
(0.0225776 -0.0060262 -8.98272e-18)
(-0.00168989 0.00124073 6.18201e-18)
(0.000125316 3.2964e-05 -6.48639e-20)
(-0.0040261 0.00202663 1.32419e-17)
(-0.00322975 0.00135811 5.87427e-18)
(-0.000658237 -0.000769329 5.76434e-18)
(0.000270884 0.000468003 -2.56149e-19)
(-0.00183257 0.00762069 -1.54144e-16)
(-0.000888424 -0.00120039 -6.23622e-19)
(-0.000605241 0.000326489 -4.06737e-19)
(0.00102057 -0.0134729 1.2256e-16)
(-0.000389353 -0.000388116 6.06772e-18)
(0.00121607 -0.0105868 -1.21135e-16)
(0.00712821 -0.000295781 6.62294e-17)
(-0.0244815 -0.0142944 1.76311e-17)
(6.96389e-05 -0.002217 -9.38293e-18)
(0.00135368 0.00120035 1.05686e-18)
(-0.0243375 0.0074342 -1.0157e-16)
(-1.36419e-05 -7.33555e-05 6.66285e-20)
(-0.000408724 -0.000544969 4.54592e-18)
(-0.00161768 -0.0132839 -4.46111e-17)
(-5.25001e-06 -9.65236e-05 -2.74706e-19)
(0.000122819 0.000195361 2.97363e-19)
(0.00717349 -0.000199637 2.1056e-17)
(-0.000348387 5.74947e-05 6.53236e-19)
(-0.00856728 0.00660743 2.32257e-17)
(0.000141516 0.0117646 1.57423e-18)
(0.00456397 0.022869 -5.93212e-18)
(0.00663289 -0.000423396 -2.75273e-17)
(-0.000575916 -0.00155116 -1.51131e-17)
(-0.00043157 -0.000480416 -4.69569e-18)
(0.0226145 -0.0038095 -3.78346e-18)
(-0.0123287 0.0137605 -3.56776e-18)
(0.0692011 -0.0602514 1.0444e-17)
(0.00205995 -0.0219283 3.77038e-18)
(-0.000259009 -0.000398023 -1.01506e-18)
(-0.000180127 -6.4289e-05 -2.24172e-18)
(-0.00071913 -0.0013788 8.34577e-18)
(-0.0372313 0.0362853 -1.47857e-17)
(-0.00447706 -0.00241465 -1.5616e-17)
(-0.00103403 -0.000266048 -2.04105e-18)
(-8.13788e-07 -5.85245e-05 -6.92958e-19)
(-0.0012015 -0.000457014 -3.39661e-18)
(-0.00297979 -0.00461204 5.38086e-19)
(-0.000340758 -0.0107561 -1.71994e-17)
(-0.00253897 -0.000714892 -9.29058e-19)
(-0.000678622 -0.00139752 1.54984e-18)
(-1.01289e-05 -0.000143552 -2.18867e-18)
(-0.00234554 0.00388938 7.17296e-18)
(-0.0393975 -0.00986598 -8.3175e-18)
(0.031222 -0.00499442 -4.20404e-18)
(0.00409423 0.00286799 2.72317e-17)
(0.0377264 -0.0349358 4.98959e-18)
(-0.00199676 -0.00517386 2.33395e-17)
(-0.00322938 -0.00426407 -5.70532e-17)
(0.0193172 -0.00536764 1.981e-17)
(0.000389999 0.000889864 -2.13132e-18)
(-0.00027358 -0.000143603 -6.17611e-19)
(1.89221e-05 -0.000499845 7.47073e-18)
(-0.000746474 0.0006451 4.13289e-20)
(-0.00399615 -0.00526163 -4.36995e-19)
(-0.000205659 -0.000116828 6.18019e-19)
(0.000134616 3.25849e-05 -4.43607e-20)
(0.00524379 -0.000562988 -5.55492e-17)
(-0.00287479 -0.00473412 2.51651e-18)
(-0.00303473 0.00135107 1.38878e-18)
(0.0110637 -0.0178751 5.00582e-18)
(-0.00203255 -0.00538357 -2.71996e-17)
(0.0481812 0.000443132 -2.27436e-17)
(-0.00077876 1.04022e-05 -3.16369e-18)
(-0.00010047 0.000580816 1.09701e-19)
(-0.000574929 -0.000904175 3.32215e-18)
(-0.000187979 2.99215e-05 2.16937e-18)
(-9.03001e-07 -3.86399e-05 1.55419e-18)
(-8.61546e-06 -0.000117687 1.86501e-18)
(-0.000227578 -0.000160556 1.1161e-18)
(-0.016297 -0.162236 -1.61655e-18)
(-0.00116821 0.000431568 -1.84274e-18)
(8.25844e-05 0.00011361 1.62588e-19)
(0.0117316 0.013036 -1.81084e-17)
(-0.00110856 0.00458151 2.82072e-17)
(-0.000271053 -0.00015779 -1.39782e-19)
(0.000618878 0.00166802 1.53459e-18)
(-0.00528872 -0.00351479 2.6792e-19)
(-0.0144153 -0.0120171 1.04373e-16)
(-0.00168041 -0.000515611 -6.48449e-18)
(-0.000313042 0.000619428 -3.47199e-19)
(0.0251389 -0.0181036 2.44933e-18)
(-0.000980678 -0.00166035 2.24417e-18)
(-0.0500238 -0.100636 5.28239e-19)
(0.00417678 0.00389509 -2.29037e-18)
(-0.00047623 0.000624145 4.67888e-20)
(0.00348344 -0.000629906 5.90599e-17)
(-0.000727881 0.00445506 2.03194e-17)
(-0.00022914 0.000293534 -2.05414e-19)
(-0.0213678 0.0153169 -1.11351e-17)
(-0.00926368 -0.172963 -1.47154e-17)
(-0.000129847 0.00188225 -6.34663e-17)
(-0.000481525 0.000615639 -2.11453e-19)
(-0.000291099 0.000601892 7.82265e-21)
(-0.00247268 0.000273357 1.8303e-19)
(-0.0230651 0.00776101 -6.5866e-18)
(-0.000378927 -0.00161434 -1.77228e-17)
(-0.0390492 -0.0953712 3.37327e-18)
(-0.0364102 0.0392431 6.44942e-18)
(0.0394162 -0.0194383 1.96481e-17)
(0.00122747 0.0155441 1.81357e-17)
(-2.19419e-05 0.000208986 1.10332e-19)
(0.000741152 0.011759 9.83559e-19)
(0.0431434 0.000904296 -8.99116e-18)
(-0.0257339 -0.0173113 6.66389e-18)
(0.0108424 0.005674 -5.79444e-18)
(-0.000634548 -0.00137052 2.38649e-18)
(-0.00244676 -0.00082331 -3.56206e-18)
(-0.00264108 -0.000300645 2.94788e-18)
(-0.00516699 -0.0109696 4.41147e-18)
(0.00555631 -0.00044382 2.47341e-17)
(-0.0348631 -0.0129648 8.97134e-18)
(-0.000944137 -0.000996061 2.02458e-18)
(-0.000352486 -0.000724785 4.7571e-20)
(-6.54182e-05 -0.000675422 6.164e-19)
(-0.00455578 -0.00252686 2.16364e-17)
(-0.000219093 -0.000136082 -2.90676e-18)
(0.0250073 -0.000897809 -8.44832e-18)
(-0.00273347 -0.000365146 5.00825e-18)
(0.0245647 -0.000730176 1.81633e-17)
(-0.000357186 -0.00115308 -1.52699e-18)
(-0.00116722 -0.000470466 2.78303e-18)
(-0.000123097 -8.25697e-06 1.0905e-18)
(-0.0010277 -0.00315401 8.14104e-18)
(-0.00343957 -0.000104811 -2.30191e-19)
(-0.0399155 -0.00784124 -1.18146e-17)
(-0.000360553 -0.000341722 -1.2668e-18)
(-0.0166631 0.00486851 6.50795e-18)
(-0.0119496 -0.0162479 -1.66815e-17)
(0.00163561 0.00606545 -6.62536e-18)
(-0.000777292 -0.000692505 4.20531e-19)
(-0.000839833 -0.0017677 -6.25239e-18)
(0.00339219 0.00644299 1.26505e-18)
(-4.93508e-06 -0.000103772 -2.11259e-18)
(-0.00277428 0.00172618 9.44914e-18)
(-0.00367623 0.0053893 4.53125e-19)
(0.0014276 0.00581212 7.57533e-18)
(-0.00377079 0.0056911 3.89529e-18)
(-0.00151192 0.000173444 4.19647e-18)
(-0.000214377 0.000288329 -6.91617e-19)
(1.8224e-05 -0.000427212 -4.50267e-18)
(1.11755e-07 -0.00014686 1.15999e-18)
(-0.00316361 0.00141007 -1.91715e-18)
(0.000418536 0.00247021 5.04909e-18)
(-0.00889287 0.00433445 9.64395e-18)
(-0.000756575 -1.50985e-05 2.41283e-18)
(0.00094588 0.00123095 3.99963e-19)
(0.130196 0.000201284 -9.27966e-18)
(9.81435e-05 0.000118497 -4.00931e-19)
(0.000523131 -0.00345295 -2.06472e-17)
(-0.000420506 -0.00165405 -1.46609e-17)
(-0.0074638 0.00444756 2.68792e-19)
(-0.000344195 -0.00199966 -7.12957e-18)
(0.0229622 -0.00642096 4.08681e-18)
(-0.000805497 0.00110704 1.53536e-18)
(0.0142067 -0.00194365 4.92587e-18)
(-0.00125795 -0.0019624 -7.26908e-18)
(-0.000634747 -0.00185426 1.49362e-18)
(-0.106598 0.0562102 -1.80913e-17)
(0.124923 -0.00158715 3.47968e-17)
(-0.0573243 0.0113859 -7.07501e-17)
(0.00204604 0.00603841 -5.19803e-18)
(-0.00162496 0.00122798 -1.90094e-19)
(-0.000508774 0.000626188 7.28878e-20)
(-0.000323678 -0.000632573 1.07216e-17)
(-0.0147553 0.0296452 -2.74677e-18)
(-0.00305591 0.0014812 -1.03892e-17)
(-0.0033661 -0.00149715 2.98915e-18)
(-0.00746578 -0.000480014 9.47482e-18)
(-0.0148293 -0.166179 9.12992e-18)
(-0.0238433 0.0604593 1.5282e-17)
(-0.000107903 -1.87656e-06 8.61049e-19)
(-0.0144993 0.0151792 3.25386e-18)
(0.0173935 -0.0336557 2.91037e-17)
(0.000797973 0.00174405 8.06878e-19)
(-0.000319533 -0.000665081 -2.18116e-17)
(0.000410972 -0.00352519 -5.96898e-18)
(0.00977894 -0.0165344 -1.86872e-17)
(-0.00289031 0.00119183 -1.90391e-18)
(-3.53134e-05 -0.000324516 2.01526e-18)
(-0.000581385 -0.00582246 -2.60816e-17)
(-0.00391819 0.0052956 -9.93128e-19)
(-0.00390403 0.00197616 -9.06952e-18)
(-0.000932461 -0.00299019 -1.29026e-17)
(-0.00617426 -0.0136976 -1.17353e-18)
(-0.000443098 0.00301563 4.7536e-18)
(-0.0114856 -0.00142103 -4.17661e-18)
(0.0473083 -0.000838939 1.40693e-17)
(-0.0541668 -0.00779188 -2.83017e-18)
(-0.0052187 0.0147258 6.41488e-17)
(-0.00368047 -0.00472141 -8.55516e-18)
(-0.0100569 0.00098862 -3.76792e-17)
(-0.00153373 0.00285993 -9.55153e-18)
(-0.000129323 -1.10683e-05 2.53144e-19)
(0.000840254 0.00180921 -2.71058e-18)
(-0.000607454 -0.000941448 -1.19497e-18)
(-2.63692e-05 -0.00912737 -5.23645e-18)
(0.00195818 -0.0093948 -1.73458e-17)
(0.0465323 0.000535653 -1.18802e-17)
(-0.000993093 -0.00740562 7.03102e-17)
(-0.030183 0.00845263 2.17495e-17)
(0.0212642 -0.145831 9.37943e-18)
(-0.000301412 -0.00574601 6.87914e-17)
(-0.00183122 -0.000599657 1.46312e-18)
(0.0489335 -4.54598e-05 -2.77606e-17)
(-0.0482519 0.0118847 1.30173e-16)
(0.000182413 0.000272181 -1.39059e-19)
(-0.000653016 -0.00820853 1.00965e-16)
(-0.0153199 -0.146078 -1.00557e-19)
(-0.00205548 -0.0212314 -2.6418e-17)
(-0.00269195 -0.000610002 3.08375e-19)
(2.16444e-06 0.00015772 5.39986e-20)
(-0.000448397 0.00290519 -1.78387e-18)
(0.00035278 0.00354876 -5.51761e-19)
(0.00369614 0.00621717 -1.55351e-18)
(-0.00536471 -0.0017948 -5.63582e-18)
(-0.000594086 -0.00070654 5.68183e-19)
(0.0376503 0.00318721 9.98815e-19)
(-0.00174356 -0.000386045 -2.73959e-18)
(-0.00186414 -0.00105061 -7.95674e-18)
(-0.00436629 -0.01202 -1.11432e-17)
(-0.000718842 -0.000173056 -3.3e-18)
(-0.00353075 -0.000199732 3.73207e-19)
(0.00485892 0.00754342 -4.26962e-19)
(-0.000383709 -0.000438947 -1.55678e-18)
(-0.00140677 0.000966905 2.39241e-18)
(-0.0466843 -0.00295826 4.81334e-18)
(-0.000162349 4.77653e-05 -1.1317e-18)
(-0.0170876 0.00551469 -1.3563e-17)
(0.000106625 0.000128782 5.22942e-19)
(0.0128753 -0.172152 1.41493e-17)
(0.0022235 0.0062728 7.23189e-18)
(-0.00191106 0.00927071 9.89112e-18)
(-0.00340939 -0.00158433 -1.35963e-18)
(-0.0022304 0.000889685 8.69426e-18)
(-0.0220268 0.00746067 5.08079e-18)
(7.9874e-05 -0.00210374 4.31401e-18)
(-0.0083231 -0.0865244 3.33999e-19)
(-0.00692097 0.0219683 -5.82796e-18)
(0.00058721 0.000818936 1.14148e-18)
(-0.0301787 -0.00390584 -1.57167e-17)
(-0.00189111 0.00973843 -1.61065e-17)
(-0.00554881 -0.0138111 1.56524e-17)
(0.00371149 0.00110571 -5.10197e-17)
(0.0120804 0.0138991 -2.59374e-17)
(-0.0359543 -0.00947713 8.56752e-18)
(-0.000582698 -0.000803033 1.24875e-18)
(-4.05052e-05 0.000254658 -5.23642e-20)
(-0.00645931 -0.176007 2.20331e-17)
(-0.000897135 -0.00176797 3.81932e-18)
(-0.00282789 0.00175145 -9.98796e-18)
(-1.96057e-05 -0.000243966 -1.48763e-18)
(-0.00156959 0.00293154 1.34494e-17)
(0.0342198 -0.0354902 -8.55118e-18)
(0.0429916 -0.0243436 2.7186e-18)
(-0.00320878 0.00142601 3.14452e-18)
(0.0176896 -0.00115602 8.76535e-18)
(-0.00379061 -0.00511184 4.29882e-17)
(-0.00189215 0.000148459 -7.17955e-19)
(-2.20992e-06 0.000169857 -5.52688e-20)
(-3.43245e-05 -0.000292228 -3.97682e-18)
(-0.0041357 0.00190645 -1.29033e-17)
(-0.00722991 0.000259692 1.66754e-18)
(-2.12303e-05 0.000402273 -1.09994e-19)
(-0.0576347 0.0111028 9.22838e-17)
(-0.00294361 -0.000622987 -3.46783e-18)
(-0.0040651 0.00131452 4.44091e-18)
(8.41445e-05 1.44139e-05 5.64837e-21)
(-0.0219262 0.0147305 6.14257e-17)
(-0.000385029 0.00719407 1.04307e-16)
(-0.000624405 -0.00099467 6.55359e-19)
(0.000147143 0.00024764 -1.51137e-19)
(-0.0120494 0.0156813 1.94961e-17)
(-1.53325e-05 -0.000215703 2.37134e-18)
(-0.000229585 0.000309604 -2.47871e-22)
(0.0582838 -0.138625 -7.66559e-18)
(-0.000811462 -0.0079553 3.5201e-17)
(-0.000630204 -0.0015005 -1.42418e-18)
(-0.00035279 -0.000654256 1.02146e-17)
(-0.0127217 0.0480375 -8.52773e-18)
(-0.00304951 0.00140433 -1.40692e-18)
(0.00345633 0.00468036 1.07412e-17)
(0.000954252 -0.00584435 7.18917e-20)
(-0.00100551 -5.25463e-06 4.20785e-19)
(0.0410816 0.00112521 -1.51991e-19)
(-0.00653833 0.00604817 -2.31282e-17)
(-0.00084673 -0.00111704 4.00975e-18)
(-0.0010942 -0.0090439 -1.49476e-16)
(-0.0299945 -0.0155302 -2.2269e-18)
(-0.000213225 -1.752e-05 -1.66942e-18)
(0.0492881 -0.0243309 -1.03077e-17)
(-7.34304e-05 0.000233049 -3.78372e-19)
(-0.000338897 -0.000430729 -1.71871e-18)
(-0.000350186 -0.00161579 1.77292e-17)
(5.81792e-05 -0.00388016 1.02596e-16)
(0.000740642 0.00568949 -3.04653e-17)
(-0.003113 0.0022066 6.1146e-18)
(0.0472465 -0.000861224 -8.15112e-18)
(-0.00360209 -0.000416057 3.52817e-19)
(0.0125315 -0.00822005 -7.30356e-18)
(-0.00152308 0.0163252 6.89512e-17)
(-0.00162549 0.00270509 -6.53306e-18)
(-0.0317346 0.00645357 -2.8955e-17)
(-0.000585127 -0.0012216 -2.15879e-18)
(-0.0453382 0.0130605 4.69448e-17)
(0.000681314 0.00174284 -8.80327e-19)
(0.0515352 -0.0378526 -1.0079e-17)
(0.0466349 -0.000153931 -6.18012e-18)
(-0.00108037 -0.000542194 -8.94338e-19)
(-0.000832113 -0.0127874 5.75848e-17)
(-0.00233533 0.000310666 2.39822e-19)
(-0.00122989 -0.0020089 9.35889e-18)
(-0.0553274 0.0117097 -3.90631e-17)
(-0.00114846 -0.00677963 4.11582e-17)
(-0.0223061 0.00859275 2.38679e-17)
(-0.000306437 -7.18653e-05 -3.86643e-19)
(0.0213559 -0.0073431 -6.23495e-18)
(-0.000312825 -0.000921484 -5.25035e-18)
(-0.0122013 -0.0744293 4.70355e-18)
(0.000329175 0.000985708 -8.74788e-19)
(-0.00276661 -0.000527854 -1.81898e-18)
(0.00298281 0.00619869 -1.79783e-18)
(-0.000407404 2.28047e-05 -5.30185e-19)
(2.70667e-05 2.98994e-05 -7.61183e-20)
(-0.00575994 0.010467 1.13087e-17)
(0.0204087 -0.0170976 5.82952e-19)
(0.0026453 -0.0161675 2.58424e-17)
(-0.000174119 -4.4056e-05 -2.33732e-18)
(-0.000677777 -0.01038 -1.23627e-16)
(-0.00156381 0.00260071 3.42775e-18)
(-0.000409122 -2.67032e-05 -1.39109e-19)
(-7.59282e-05 -0.000613751 2.42184e-18)
(-0.00220087 -0.00175018 -1.75385e-18)
(-0.0203761 0.00129969 -1.79993e-17)
(-0.0499482 0.0125431 3.95509e-17)
(-0.00297359 0.00222016 1.13288e-17)
(-0.000131878 9.26035e-06 1.68598e-19)
(-0.00269357 0.000342383 -3.03405e-20)
(0.0313249 -0.00103428 2.02466e-17)
(-0.00265753 -0.00055775 -3.24696e-18)
(-0.000565697 -0.000733871 -8.80791e-19)
(-0.000416952 4.16533e-05 6.47906e-19)
(-0.00276925 0.000359684 -2.14663e-19)
(-0.00244054 0.00250896 -7.64731e-18)
(0.030911 -0.000167465 -8.80339e-18)
(-0.000691611 -0.000198828 4.0749e-18)
(-0.0144029 -0.00279329 5.40924e-18)
(-0.00437207 -0.0035849 7.78101e-18)
(0.00436708 -0.0342872 -1.54034e-17)
(0.000371955 0.00184812 -7.85718e-19)
(-0.0143364 -0.126998 1.73385e-17)
(2.99245e-05 0.000110391 6.81901e-20)
(0.00400895 0.0203946 -5.0676e-18)
(-0.000653057 -0.000537719 -6.16207e-19)
(-0.00128124 0.000466296 -4.19869e-19)
(-0.00106533 0.00373317 3.19723e-18)
(-0.0204909 -0.142777 1.44605e-17)
(-0.000199297 -8.1964e-05 1.49978e-19)
(-0.00052957 0.000614462 -1.52826e-20)
(-1.31592e-05 2.43277e-05 -2.53675e-20)
(-0.0474818 0.0127421 -7.04955e-17)
(-0.00111728 -0.00136662 3.21317e-19)
(0.000623903 0.00084242 -3.1237e-18)
(-0.00353038 0.000348075 1.88908e-18)
(-0.00285292 0.0011532 2.89691e-18)
(0.00483373 -0.0221347 7.34499e-18)