/*--------------------------------*- C++ -*----------------------------------*\
| =========                 |                                                 |
| \\      /  F ield         | OpenFOAM: The Open Source CFD Toolbox           |
|  \\    /   O peration     | Version:  v2012                                 |
|   \\  /    A nd           | Website:  www.openfoam.com                      |
|    \\/     M anipulation  |                                                 |
\*---------------------------------------------------------------------------*/
FoamFile
{
    version     2.0;
    format      ascii;
    class       volVectorField;
    location    "150";
    object      ddt0(U);
}
// * * * * * * * * * * * * * * * * * * * * * * * * * * * * * * * * * * * * * //

dimensions      [0 1 -2 0 0 0 0];


internalField   nonuniform List<vector> 
18355
(
(-0.222727 -0.0278322 7.70545e-19)
(8.94941e-06 7.90567e-05 4.80641e-19)
(0.0227375 0.0784251 -9.01973e-19)
(9.72016e-05 -1.00097e-05 8.50099e-19)
(-0.000363807 -0.0163266 5.22364e-19)
(0.0637253 0.0279304 4.2907e-19)
(0.000271567 0.001333 -1.12613e-18)
(-0.00329486 -0.0162112 1.71007e-19)
(0.000133797 -3.43483e-06 1.60677e-19)
(-0.026266 0.0657352 7.64558e-20)
(0.00583292 0.000481098 -4.73968e-20)
(0.0316691 0.0214656 -3.22279e-18)
(0.0333722 0.0219792 3.9526e-18)
(-0.0996532 -0.0510313 4.48367e-18)
(0.000109301 -2.3951e-06 1.09029e-19)
(2.98395e-05 -2.49161e-06 -2.40831e-19)
(0.00013685 -1.10419e-05 -9.38128e-19)
(0.00107896 0.00395914 6.34715e-19)
(-0.0402869 0.0812544 1.49239e-18)
(-0.00130082 -0.0015233 -3.41355e-19)
(0.155632 -0.103831 2.76533e-18)
(-0.000739974 -9.73932e-05 -2.40074e-18)
(7.98738e-05 3.39272e-05 -1.6139e-19)
(0.05928 0.0301413 -1.86883e-19)
(8.40156e-05 2.43107e-05 -3.84378e-20)
(0.00184398 -0.000194201 -9.94965e-19)
(0.000773137 0.00117148 -1.87152e-19)
(4.31153e-05 -1.85352e-05 3.13951e-19)
(0.000115117 -4.11712e-06 -2.26481e-19)
(0.00662533 0.00170247 -1.11422e-19)
(0.0891057 0.0157585 6.32588e-19)
(0.0179831 -0.0224584 2.06318e-19)
(3.21117e-05 -0.000173522 9.52991e-21)
(5.35784e-05 -8.85339e-05 1.71675e-19)
(-3.98388e-05 2.08392e-06 6.31814e-21)
(-2.34739e-05 -0.00232035 -1.92386e-19)
(-0.00491438 0.00486518 -6.07067e-18)
(0.000170023 -0.0025051 3.2453e-19)
(0.0073961 0.00199363 6.25812e-19)
(4.61061e-05 9.579e-05 -5.41685e-19)
(0.000350733 1.97873e-05 1.79145e-18)
(0.00663885 0.000669127 -1.55776e-19)
(5.15769e-05 -6.87607e-05 1.31416e-18)
(9.70362e-06 7.17798e-05 3.46934e-19)
(2.56478e-05 7.97477e-05 -5.80123e-19)
(0.0580112 0.0196341 2.8079e-17)
(2.30573e-05 -0.000170405 -2.38319e-19)
(3.42965e-05 -0.00017165 -5.52025e-21)
(0.091429 0.0305435 2.12371e-18)
(0.000327938 -0.0001938 7.41123e-19)
(6.5604e-05 -1.38387e-05 6.211e-20)
(-0.240727 -0.532932 -1.30221e-17)
(0.000267725 -0.000262392 -7.06557e-19)
(-0.0927312 0.0316869 3.55145e-18)
(-7.54169e-05 0.000115095 7.32559e-19)
(-0.00113014 -0.00194168 8.91129e-19)
(5.4934e-06 -3.63742e-06 2.26108e-19)
(0.0924033 -0.0322721 -5.18573e-18)
(0.00206294 -0.000342212 3.79999e-19)
(0.0814888 0.0246854 1.93172e-17)
(5.72223e-05 -8.48483e-05 -2.27908e-19)
(0.0156348 0.0282622 -1.69834e-17)
(-0.0946459 0.0240243 6.84937e-19)
(-0.00191867 0.00092047 -2.97566e-19)
(0.0132022 -0.03992 1.70477e-19)
(8.08277e-05 -1.2313e-05 4.97508e-19)
(-0.00273676 -0.00164578 -6.74782e-19)
(-0.00525505 0.00486906 4.75949e-18)
(8.55173e-05 -0.000123213 -8.59372e-19)
(-0.0278052 0.0572303 -7.37888e-19)
(0.000291024 0.000113867 2.59632e-19)
(-9.14146e-05 0.00011456 2.16918e-18)
(0.0129149 -0.016408 1.48279e-20)
(-0.000299472 0.00601458 9.62799e-19)
(0.0450708 -0.0154158 -1.08975e-18)
(7.92805e-05 -0.000129677 -3.7602e-19)
(0.0903103 -0.00281467 7.1346e-18)
(7.8135e-05 -0.000132848 -2.28131e-20)
(0.000241703 0.000111386 -5.11426e-20)
(0.0449122 -0.00840031 -2.24111e-19)
(-0.00253196 -0.00181848 -1.02474e-18)
(0.0427508 0.0118658 3.17776e-19)
(8.66701e-05 -0.000129581 1.09249e-18)
(-0.00257252 -0.00355399 6.97814e-19)
(-0.025836 -0.0188999 -7.05481e-19)
(4.8659e-05 -6.07989e-06 2.89693e-19)
(0.000156002 -1.45283e-05 7.1478e-20)
(-0.0204255 -0.00502726 -2.95295e-19)
(0.000172089 -0.000145824 3.95363e-19)
(-0.0204149 -0.00681367 -6.84594e-19)
(-0.0308759 -0.216823 -1.07949e-18)
(0.104817 -0.0703817 -6.23594e-19)
(0.0377601 0.0147592 1.41308e-19)
(0.000437161 -0.000172172 6.75101e-19)
(-0.0742803 0.0259358 -2.52243e-20)
(-0.0026147 -0.0010779 5.04144e-19)
(0.000147032 -0.000190713 -4.01455e-20)
(-0.00213147 -0.000865047 -6.66924e-19)
(-0.0273582 0.0355664 -5.2208e-19)
(-0.000554056 -0.000171318 -1.86715e-19)
(-0.0236481 -0.0177871 -1.06847e-19)
(0.000213361 0.00010032 -1.98209e-20)
(0.000433846 -0.000112575 -1.82804e-21)
(-6.53175e-05 1.69858e-05 2.43172e-20)
(-0.00241755 -0.00236169 1.06117e-19)
(3.11464e-05 -1.11615e-05 -6.94809e-20)
(0.0167298 -0.0380105 -5.81832e-19)
(-0.0857436 0.0293398 -9.93056e-19)
(-0.012974 0.00195408 -1.52044e-18)
(3.83298e-05 -5.70363e-06 3.6366e-19)
(8.22646e-06 -6.47662e-06 -1.07024e-19)
(6.22792e-05 -2.10042e-06 6.48662e-20)
(0.0117599 -0.00637231 9.81188e-20)
(-0.00218539 -0.00333704 -6.24336e-19)
(0.0619134 0.0442858 -7.23291e-18)
(0.00365765 -0.00689412 4.47215e-19)
(0.000179379 9.17378e-05 -1.73894e-19)
(0.0530466 -0.00339314 7.51395e-20)
(-0.000911999 -0.00153502 1.32152e-18)
(-0.00272 -0.00133713 -1.95943e-18)
(-0.0217901 0.0484046 4.70894e-19)
(0.0265883 0.0780957 -1.42279e-18)
(-0.0244299 -0.301814 -1.97904e-17)
(-0.0265462 -0.00698002 -9.70454e-20)
(0.0524121 0.00302062 -4.06699e-19)
(0.0609311 0.025287 -4.26436e-17)
(0.000534597 0.00139392 8.57165e-19)
(0.000110057 -1.02966e-05 -7.60518e-19)
(-0.198679 0.00478439 -1.29865e-18)
(-0.000533314 0.000116222 -7.09171e-19)
(0.000147 -0.000196662 -5.21982e-20)
(-0.229069 -0.56558 1.4423e-18)
(-0.000185958 -0.000151381 -2.24664e-19)
(-0.00583398 0.0382028 2.1406e-18)
(-0.0516745 -0.058746 -8.51211e-20)
(0.000176964 -7.44968e-05 -1.01915e-19)
(-0.0349917 0.0841344 2.06934e-18)
(-0.04458 0.0344155 -1.58538e-19)
(0.000156093 -2.75014e-05 -7.95489e-19)
(0.152688 -0.0586623 3.34459e-18)
(-0.00483821 0.00193811 -1.69054e-18)
(0.0182533 0.00136687 -4.5496e-19)
(6.81103e-05 -0.000264246 3.73838e-20)
(-0.104644 -0.277015 -3.02065e-17)
(-0.0476042 -0.0651204 2.37526e-18)
(0.000294766 3.43444e-05 2.69257e-18)
(0.0819725 0.035538 2.2685e-18)
(-2.80197e-05 0.000125812 1.53263e-20)
(0.0120513 -0.00519494 -8.70486e-20)
(0.0283187 0.0528652 -1.77736e-21)
(5.88504e-05 -1.76812e-05 -2.17993e-19)
(-0.00254343 -0.00122404 -1.79627e-18)
(0.000802285 0.0014944 -4.00035e-20)
(0.0062653 0.00473003 4.15938e-19)
(5.56282e-05 -6.23752e-05 -1.14042e-18)
(8.9921e-05 1.29274e-05 -5.66268e-20)
(9.11806e-05 -1.0831e-05 7.99542e-19)
(5.16795e-05 -7.27002e-06 -3.39723e-19)
(7.97808e-05 -0.000266883 -7.23263e-20)
(0.000105425 9.98631e-06 8.0728e-20)
(0.00268719 0.00334486 -6.03917e-20)
(-0.000238019 -0.000157955 1.5176e-18)
(3.48355e-05 1.04666e-06 -1.63385e-19)
(0.0112739 0.00304934 5.25224e-19)
(0.00208129 0.0057521 -2.44536e-19)
(-0.00197585 0.0393895 -9.60103e-19)
(0.0851664 0.0329833 9.64568e-18)
(-0.236538 -0.0492684 1.44623e-18)
(0.107537 0.129129 5.54804e-18)
(-0.00498106 0.00166919 2.07033e-18)
(3.53757e-05 3.66531e-06 -3.62743e-20)
(-0.00642588 0.0361946 -1.13266e-19)
(5.56732e-05 -2.45815e-06 -3.1585e-19)
(0.100545 0.0598503 -2.40122e-18)
(8.07501e-06 -8.54762e-07 9.79416e-21)
(0.000322968 2.49595e-05 1.28663e-18)
(6.52476e-05 -1.20418e-06 -2.36259e-19)
(-6.71594e-05 2.51895e-05 2.1708e-20)
(-0.00130857 0.00159509 2.08126e-18)
(-0.00370643 -0.00866421 9.6171e-20)
(4.02136e-05 -4.48133e-06 2.62965e-19)
(-0.00748427 0.0343719 4.90664e-19)
(-0.000657198 4.03496e-06 -1.53959e-18)
(9.24726e-06 -2.61136e-05 -3.09356e-19)
(-0.00216517 0.0238115 1.36972e-19)
(0.000503828 -7.04635e-05 3.62831e-19)
(8.80444e-05 4.12296e-06 -4.6226e-19)
(-0.018249 -0.00938058 -1.66568e-22)
(0.000206853 0.0001499 -5.1542e-19)
(0.00106753 0.00123418 9.77293e-20)
(0.0590297 0.023834 3.1363e-17)
(-0.0239597 0.0355439 -8.10288e-20)
(1.76011e-05 9.39003e-05 1.64196e-19)
(0.000119866 -6.64884e-05 -1.0127e-19)
(0.000379395 4.31666e-05 6.49356e-19)
(0.060439 0.0510819 1.74503e-18)
(6.68555e-05 -1.95617e-05 6.04873e-19)
(-0.179289 0.0258482 -4.08859e-19)
(2.46692e-05 8.51755e-05 -3.39853e-19)
(-0.098168 -0.0947869 -2.17555e-18)
(0.000456723 -1.61314e-05 -1.23628e-20)
(-0.00177278 0.00277736 -3.69531e-19)
(0.00727047 0.00315955 2.15527e-19)
(3.33352e-05 -2.03494e-06 1.94948e-19)
(-0.226427 -0.0266321 7.74456e-19)
(-0.000453482 0.000277964 1.47332e-18)
(0.097762 0.101868 -5.05373e-18)
(1.25559e-05 -2.82352e-05 2.27875e-19)
(9.31682e-05 -0.000118912 6.29691e-19)
(0.00139433 0.000745175 -6.81191e-19)
(-0.000219252 -0.000125081 -5.70455e-19)
(0.033524 0.0240879 1.18619e-18)
(-0.000247054 0.00341182 4.08437e-20)
(-8.9501e-05 0.00274258 -1.20739e-19)
(-2.04122e-05 0.0001435 2.56438e-21)
(0.0947885 0.104044 2.79341e-18)
(-0.00302489 -0.0088149 3.39284e-19)
(-0.00303131 0.00369752 -3.68314e-18)
(-0.000474365 0.000214881 9.4985e-19)
(3.25654e-05 -0.000233185 5.78458e-20)
(-0.0121115 0.001711 -5.80999e-19)
(0.000113683 9.84564e-05 -6.19983e-19)
(-0.0182754 -0.00291827 -9.77555e-19)
(0.00632551 -0.00287807 -2.27616e-19)
(-0.0141702 0.0143324 -2.46117e-18)
(-0.00403891 0.00273208 5.77779e-19)
(0.000120669 5.3317e-05 -1.17132e-19)
(-0.0422397 0.0266065 -3.0252e-19)
(-0.179023 -0.0817986 -1.28945e-18)
(0.0060092 -0.0155723 -1.08234e-19)
(-0.00114863 0.00072549 4.49955e-19)
(-0.00265083 -0.00217139 1.47072e-18)
(0.00379367 0.0367619 7.33923e-19)
(0.000120816 8.30349e-05 5.09073e-19)
(0.0110405 0.00535488 7.3937e-20)
(-0.0115 0.0134406 2.20878e-18)
(-0.00080849 0.000914637 5.30451e-18)
(0.0596415 0.0210918 -2.12107e-17)
(-0.000948911 0.0035962 -5.30054e-18)
(0.000534627 0.00261028 -8.87653e-19)
(1.28644e-05 9.11574e-05 -1.04673e-18)
(-0.00126077 0.00152551 2.4633e-18)
(0.000497187 0.00208879 -6.13194e-19)
(0.00332978 -0.0146156 6.5826e-20)
(-0.000440594 0.00023942 -4.76582e-18)
(-5.29364e-05 0.000142289 -6.41295e-19)
(2.54193e-05 -0.000119639 -3.00006e-20)
(0.0296819 0.0249581 -1.45054e-18)
(0.0428202 0.0290765 7.0771e-19)
(0.00037741 0.000181776 -1.84636e-20)
(-0.00237798 0.00114446 2.62361e-19)
(0.0383049 0.0306914 -4.85358e-19)
(0.0275878 0.0539589 -4.50606e-18)
(0.00593647 -0.0040232 -1.01443e-18)
(-6.31238e-05 3.01288e-05 -1.79731e-20)
(0.0103533 0.00139803 5.15662e-20)
(-0.00111565 0.00359042 2.54985e-18)
(0.00019441 1.89109e-05 3.48863e-18)
(-0.00457951 0.00206704 -8.22545e-19)
(0.000173042 -7.57248e-05 -2.37982e-20)
(0.0233702 0.0556785 6.37282e-20)
(-0.0128725 -0.0296384 -1.42073e-20)
(-0.0222687 0.031889 4.13512e-20)
(-0.000507631 0.00694248 6.98668e-18)
(0.00804152 0.00366139 2.3344e-19)
(0.0115067 0.0122091 2.22707e-19)
(0.0141839 -0.00243498 -3.89964e-19)
(-0.032559 0.0391971 -2.54789e-19)
(0.000175283 -5.54475e-05 3.79718e-20)
(-7.1668e-05 0.00014194 4.09143e-19)
(0.00157159 0.00102361 7.69097e-19)
(5.43399e-05 -2.48776e-05 2.60716e-19)
(-0.00226431 0.00269867 -5.86562e-19)
(-0.00297785 0.0039234 1.36027e-18)
(6.3095e-05 -3.2915e-05 2.52549e-19)
(-0.000290677 -6.47997e-05 -2.30398e-18)
(-0.0108055 0.0105297 1.59365e-18)
(0.000177981 -5.49257e-05 1.1771e-19)
(-0.0581714 -0.0204314 -1.85372e-18)
(-0.0132853 0.301753 -5.23271e-18)
(-0.00756573 0.0100908 -1.29596e-18)
(-0.000268641 -0.00013341 5.3158e-19)
(0.00522758 -0.00718651 3.17311e-19)
(5.38941e-05 -2.86858e-05 -6.08495e-19)
(-0.0211381 -0.00204826 -3.16707e-19)
(-0.000397973 0.000334061 -1.81054e-18)
(-0.00239018 -0.0105404 -1.57871e-19)
(0.000387377 2.44612e-05 -3.07575e-18)
(-0.00217081 -0.00996411 -2.12641e-20)
(0.00104533 0.107154 7.47718e-20)
(4.96731e-05 -0.000143507 3.47675e-20)
(-0.00446742 0.0176801 -2.21105e-18)
(-0.00127558 -0.00114823 -1.23122e-18)
(-0.00487972 -0.00108968 -3.60018e-19)
(0.0132017 -0.00505494 1.45188e-19)
(0.000137898 -2.14892e-06 1.22285e-19)
(0.000121034 -4.7023e-05 -3.57214e-20)
(-0.0533068 -0.0194921 -1.37274e-18)
(-0.000270089 -8.70732e-05 1.07561e-18)
(0.0176615 -0.0021391 6.49045e-19)
(-0.00434373 0.00524695 1.06065e-19)
(-0.0357406 0.015098 -6.02519e-18)
(-0.0218283 0.00241834 -5.86705e-19)
(-0.0218071 0.0336594 7.28992e-19)
(-0.000793896 0.00354747 -5.03146e-19)
(-0.0121007 0.0119581 -5.88397e-19)
(0.000181459 -0.000114802 -6.35955e-20)
(-0.000956425 0.00288668 1.0045e-17)
(-0.000636145 0.00669455 1.00266e-18)
(-0.00543451 0.0178062 6.61555e-18)
(-0.00499658 0.0220628 9.71194e-19)
(0.0366771 0.0921497 4.22393e-19)
(-2.87532e-05 -0.000218129 4.88991e-20)
(0.00186812 -0.00591085 -4.06867e-19)
(-0.0857655 0.0110278 1.29265e-18)
(0.00589059 -0.0077216 7.92339e-20)
(-3.65322e-05 -0.000201342 -1.20787e-19)
(4.66876e-05 -0.000191117 -6.06054e-20)
(1.9174e-05 -6.56031e-05 1.96755e-19)
(0.00579289 0.0143553 4.40862e-18)
(0.0385183 0.0885693 -2.49738e-19)
(0.00959005 0.151175 -1.36797e-18)
(-0.00970408 0.0212417 -6.97182e-19)
(-0.00857735 0.0114332 -1.95002e-18)
(-0.00435393 0.00215356 1.08169e-18)
(0.0158537 0.0302552 3.84235e-19)
(-9.97987e-06 0.000125 1.09607e-21)
(-0.000402679 0.000295293 -6.5886e-19)
(-0.00447651 0.00190578 -1.23534e-18)
(-0.000201292 0.000213864 -9.7697e-19)
(0.0044139 -0.0161331 3.57833e-20)
(-4.68116e-05 2.49491e-06 -1.63257e-20)
(0.037725 0.0843213 -4.40583e-20)
(2.20785e-05 -2.67222e-05 7.87378e-19)
(0.0569264 0.0115377 4.09895e-19)
(0.000294865 5.70693e-05 1.4448e-20)
(2.00689e-05 3.9018e-05 2.60428e-19)
(-0.00167265 0.00421646 1.23854e-19)
(0.0349643 0.030583 -8.67269e-18)
(-0.223145 -0.0577773 2.11294e-20)
(0.00194836 -0.0148719 -3.80921e-20)
(-0.0118014 0.0165067 2.36373e-19)
(-8.81401e-05 -0.000394948 -5.91872e-19)
(0.000184152 -0.000166507 -4.52318e-19)
(-0.000182658 0.000199678 5.93794e-19)
(-0.00362425 0.00206494 3.60979e-19)
(-0.0195038 0.0778852 -1.23659e-19)
(0.000172951 -0.000217511 -4.01736e-20)
(0.000186531 -1.7572e-05 -1.53286e-18)
(0.0123133 0.0208874 -3.38458e-19)
(-0.000302774 -0.000325706 6.64851e-19)
(0.000183812 -0.000177598 -1.12995e-19)
(0.0341267 0.045452 2.99551e-18)
(-0.00287587 0.00201763 -1.08332e-19)
(2.33215e-05 -9.00216e-05 -2.43012e-19)
(-0.000747287 0.000740149 -4.86783e-19)
(-0.00167453 -0.0117478 5.45832e-20)
(0.000181501 -1.62901e-06 -1.04866e-18)
(-0.000562142 -0.0116855 -1.79429e-19)
(0.000185623 0.00023989 -1.29984e-19)
(0.000174058 -1.53585e-05 2.26826e-18)
(-0.000506061 -0.000148489 7.79516e-19)
(0.075721 0.0240713 2.76934e-17)
(0.0113502 0.0159594 4.07834e-19)
(0.00015881 0.000251948 -1.86474e-19)
(7.27465e-05 -0.000240935 5.17818e-20)
(-0.00884133 0.0069895 5.86002e-19)
(1.26131e-05 -5.33724e-05 -9.56723e-21)
(5.38154e-05 2.36328e-07 -2.40593e-19)
(0.0163159 0.0373344 4.80741e-19)
(0.0150925 0.0132567 4.72128e-19)
(-0.0148883 0.0107717 1.51704e-18)
(-0.000178398 0.000157141 3.72294e-19)
(-0.000871172 0.000948702 -2.094e-18)
(0.0337505 0.0241429 1.52139e-17)
(0.00122716 -0.00240754 -9.40971e-19)
(0.0107127 -0.000461809 -3.71827e-19)
(-0.000835589 0.00297762 -8.56575e-18)
(4.09748e-05 -7.20238e-05 -5.42399e-19)
(-0.00694627 0.00639952 -8.24546e-19)
(0.00611474 -0.0117207 1.67759e-20)
(-0.000507768 -6.4763e-05 1.46794e-18)
(0.000189122 -1.39841e-05 -2.16689e-19)
(0.00159122 0.00362793 -2.23788e-19)
(0.000209586 -9.21976e-06 -1.32262e-19)
(0.00318763 0.00176686 -8.95965e-19)
(0.000363479 5.16753e-05 -7.60262e-19)
(0.0388802 -0.00335546 -3.42997e-19)
(0.000931148 0.00189833 2.92192e-19)
(-0.00253543 -0.000805615 -4.34865e-19)
(7.76616e-05 -8.70119e-06 -6.50696e-19)
(1.57725e-05 -7.66591e-05 -4.24195e-19)
(-0.0023582 0.00229093 2.92463e-19)
(0.00160224 0.00172134 -4.29874e-19)
(0.00531272 0.0260142 -3.12478e-19)
(0.0762473 0.0828069 -4.79636e-18)
(0.0115163 0.0216496 1.99086e-20)
(-0.00257355 0.00269572 2.23641e-19)
(0.0249555 0.0548178 5.07307e-21)
(0.00789625 -0.00278371 -9.84115e-19)
(0.000236394 4.99561e-05 -7.23285e-19)
(-5.27976e-05 1.21306e-06 -4.07983e-21)
(-0.00431401 0.0159547 5.2877e-18)
(0.00017413 0.000161878 1.26653e-18)
(-0.0164705 0.011713 -1.11422e-18)
(0.000153349 0.00112535 3.51333e-19)
(0.000239344 0.00866986 9.61724e-19)
(0.0201197 0.0277313 -3.55683e-19)
(-0.0182368 0.0202245 -1.16977e-18)
(-0.257267 -0.104528 -8.65936e-20)
(-0.0331059 0.029376 -8.8133e-19)
(-6.92616e-05 1.00896e-05 -2.5153e-21)
(0.233487 0.11538 -2.31238e-18)
(-0.000608189 -0.000123222 -5.04918e-19)
(6.82036e-05 -4.33906e-05 -4.54722e-19)
(0.189751 -0.0600963 9.38441e-18)
(0.000272339 6.87344e-05 1.26602e-19)
(-0.00570533 0.00514994 -3.17934e-19)
(0.000831788 0.00159209 3.94073e-20)
(0.0211022 -0.0420241 -1.43161e-19)
(0.000199259 7.58619e-05 8.01408e-19)
(-0.0043816 0.0344154 -9.56041e-19)
(0.0689668 -0.00324112 7.42357e-20)
(-0.0184014 0.0287756 -4.08672e-19)
(-0.000313916 -0.000129123 1.1568e-19)
(2.15051e-05 7.9127e-05 -7.57435e-20)
(-0.0187382 0.0305516 -1.88251e-18)
(-0.0010944 -0.00145479 3.97065e-19)
(-0.000335714 0.000403642 -4.06452e-19)
(-0.0166283 0.0539646 1.16283e-19)
(-0.0112108 -0.0243249 4.19543e-20)
(6.63896e-05 -4.56707e-05 6.01315e-19)
(-0.00397387 0.0165813 -2.3646e-18)
(0.00442413 0.0267483 1.23815e-18)
(8.66632e-06 8.2009e-05 1.62873e-19)
(0.000458242 -1.14798e-05 6.80618e-20)
(0.00109198 -0.013256 -2.49481e-19)
(0.134603 0.0574923 4.07911e-19)
(-0.0173263 0.00867739 1.17166e-18)
(-0.000243957 -0.000338054 9.57786e-19)
(0.000106735 -0.000152097 1.61879e-19)
(-0.00334227 0.0127365 -2.30137e-18)
(0.000200472 -1.45482e-06 -1.0312e-19)
(0.000130086 -0.000110374 -1.78083e-19)
(-0.000554775 0.000614002 4.35939e-19)
(-0.0147252 0.0190679 1.63409e-18)
(0.0768141 0.0794603 9.2045e-18)
(4.84279e-05 -5.75266e-05 3.57141e-19)
(6.34895e-05 -1.64234e-06 -3.89264e-19)
(0.000241331 3.41384e-05 -1.79754e-18)
(0.0368298 0.0317755 2.04713e-17)
(0.00730263 -0.0100857 -4.76309e-20)
(0.000129219 2.05693e-05 1.11932e-19)
(-0.00610365 0.00400122 2.77977e-19)
(-0.0192456 -0.00190109 1.39246e-18)
(-0.000230511 0.000410991 2.29087e-18)
(0.0624734 0.0500091 -2.708e-18)
(0.0151632 0.0299975 -1.44217e-18)
(-0.000692013 -4.10037e-06 3.01197e-18)
(0.000204805 -5.87256e-06 1.78921e-19)
(-0.0163292 0.0078939 -1.53231e-18)
(0.0395404 0.028593 -8.02686e-18)
(-0.043682 0.058917 -6.64951e-18)
(6.96478e-05 -5.25827e-05 -2.37664e-19)
(-0.101122 0.0921628 9.65062e-19)
(0.000158494 -2.42252e-05 1.32039e-18)
(6.75311e-05 -6.21314e-05 2.02514e-19)
(-0.0249652 0.000943044 -3.09825e-19)
(-0.00149196 -0.0014564 -9.06261e-20)
(0.0417337 -0.00534725 2.5621e-19)
(0.0110471 -0.0177143 6.05399e-20)
(-0.00269469 -0.000918861 3.31924e-18)
(-0.000438453 0.00689475 -8.01898e-19)
(-0.000806013 -4.25175e-05 3.25548e-18)
(0.0317305 0.0468133 1.63767e-18)
(-0.000888614 -0.0017795 -3.5391e-19)
(-0.000466921 0.00610036 -3.61845e-19)
(-0.000381369 -0.000353399 -1.62077e-18)
(8.06504e-05 -5.50411e-05 3.05901e-19)
(-0.000665392 0.00057943 -2.53525e-19)
(8.43084e-05 -5.94849e-05 1.73391e-19)
(0.0123919 0.0321203 1.73424e-18)
(0.0737869 0.0867453 1.43134e-18)
(0.0245169 -0.0393057 -3.76285e-19)
(0.0011719 0.00464033 -3.44131e-20)
(-0.00033297 3.56314e-05 -2.16597e-19)
(-0.000314346 -0.000373111 -1.40515e-18)
(0.0016971 0.000973352 7.50996e-20)
(-0.000303815 0.00351255 -1.67679e-19)
(-0.00239736 0.000266427 -5.05573e-19)
(-2.20102e-05 0.000364961 2.16574e-19)
(0.000115114 0.000211431 -3.91596e-19)
(-0.0219153 -0.00073488 5.38188e-19)
(7.41948e-06 9.1334e-05 -1.58686e-19)
(-0.00251949 -0.000182964 8.85175e-19)
(-0.0952664 0.132145 3.87804e-19)
(-0.152277 0.055271 -2.12093e-18)
(-0.0863012 0.0186621 -1.01793e-18)
(-0.000516456 0.000156773 -2.48621e-18)
(4.36571e-05 -3.56754e-06 -1.72754e-19)
(-8.70798e-05 -0.0133573 -2.74528e-20)
(-0.000716664 -7.40537e-05 -3.08476e-19)
(0.0277694 0.0421801 1.07853e-18)
(0.0205523 0.091829 4.65472e-19)
(0.00209322 -0.00511472 6.95939e-19)
(-0.00136365 -0.00416658 3.92551e-19)
(-0.005131 0.00595695 -9.84447e-19)
(-0.00151849 0.000239241 -4.61113e-19)
(-0.00346051 0.00057393 1.56536e-18)
(0.0306689 -0.00515014 -1.47016e-18)
(-0.011668 -0.00786838 4.42229e-19)
(0.000169862 -0.00190961 -1.04056e-20)
(0.0195935 0.132904 -5.16823e-18)
(0.000178712 -2.5134e-05 -1.73632e-19)
(-0.216321 -0.0321947 -8.10982e-19)
(0.201849 0.145986 -2.65702e-19)
(-0.000932341 0.00394444 3.22549e-18)
(0.000389194 3.91093e-06 9.5559e-19)
(0.0275012 -0.00798976 4.94335e-19)
(5.83761e-05 -3.14237e-05 -2.82789e-19)
(-0.00502722 0.0326144 -2.34613e-18)
(0.0203903 -0.0214751 3.25725e-19)
(-0.0511429 -0.0306328 -5.26723e-20)
(-0.000663361 -0.00185529 5.20437e-19)
(-0.000620707 0.000567912 2.08435e-18)
(-0.000237103 0.00039928 3.1994e-19)
(-0.0552812 -0.0651191 2.7253e-18)
(-0.0403039 0.0560113 -3.56055e-18)
(-0.0433753 -0.0349897 -3.18365e-20)
(0.0547006 -0.0647671 -2.14791e-18)
(-0.0015917 0.00315994 2.86185e-19)
(-0.000224536 0.000387422 -2.55374e-18)
(-0.00291218 -0.00330501 -5.12179e-19)
(-4.95065e-05 0.000165451 2.21421e-19)
(-0.000242563 -0.00510278 9.04427e-19)
(0.180598 -0.0700676 7.58099e-19)
(0.0910853 0.143333 9.15937e-19)
(0.0735131 0.0903813 -7.95147e-18)
(0.067821 0.0543932 -4.76657e-19)
(0.00529753 -0.0106182 1.74893e-19)
(0.0154954 -0.0207314 3.58692e-19)
(0.0139414 -0.00510237 -1.4518e-19)
(9.00461e-06 -0.000151058 -3.16359e-19)
(-9.50503e-05 -0.000118477 -3.53096e-19)
(0.00658375 -0.011826 6.40344e-21)
(-0.00612736 -0.0013472 6.51627e-19)
(-0.000432098 0.000346767 1.59832e-18)
(-2.17864e-05 0.000162147 -9.65979e-19)
(0.0655252 0.0136357 4.73182e-20)
(0.000163282 -0.00015783 1.16781e-20)
(0.0679075 0.0590542 1.14894e-19)
(0.00100133 -0.00770822 -1.95571e-19)
(0.00481653 0.0350364 -5.15506e-18)
(0.0356144 0.0248331 -2.72362e-17)
(-9.80358e-05 -0.000125608 -6.57316e-19)
(-0.00181702 -0.00354469 -1.86819e-18)
(-0.190337 0.0228409 5.02535e-19)
(9.7028e-05 0.000219918 6.25047e-19)
(0.0738938 0.102745 -3.43283e-18)
(0.000191517 -1.348e-05 6.91036e-19)
(0.0729962 -0.0650404 -1.15662e-18)
(-0.0111003 -0.00854794 -5.0637e-19)
(0.000334355 2.65751e-05 1.04514e-18)
(0.0142271 -0.00376097 1.24987e-19)
(-0.0283625 0.038707 8.83926e-19)
(-0.0368307 0.0293595 6.02738e-19)
(3.65512e-05 -1.36567e-06 -1.31376e-19)
(0.000105346 -9.37118e-05 1.76303e-19)
(-0.00384042 0.0115428 -8.32051e-19)
(-0.000807393 0.00411022 4.78495e-18)
(0.00367745 0.0366879 5.14456e-18)
(0.000243626 0.000129652 8.96398e-19)
(0.0168904 0.0277535 1.0417e-17)
(0.000169267 -0.000138149 -4.73547e-20)
(0.0153596 0.0914736 -1.45397e-18)
(-4.51947e-05 7.86027e-07 4.4432e-21)
(-7.71528e-05 -0.000371444 1.50377e-20)
(0.0355007 0.0624737 -6.21048e-18)
(0.000797694 0.00682498 8.50497e-20)
(-0.0112608 0.0102558 8.6477e-19)
(8.61042e-06 -1.18641e-06 2.63995e-20)
(-0.000742077 -0.0048137 -6.67287e-19)
(-0.00342224 -0.0028931 4.95283e-20)
(0.0250648 0.078646 1.7267e-19)
(0.0283228 0.142031 3.57697e-18)
(-0.00358665 0.0022453 -2.84191e-18)
(0.00821762 -0.00269474 -2.31612e-19)
(1.55401e-05 3.75923e-06 -7.84962e-20)
(0.00425414 -0.00753019 -2.59121e-19)
(-0.000402445 -0.000184623 6.38305e-19)
(-0.00338089 0.0021477 -1.5091e-18)
(0.101066 0.0246528 6.61737e-18)
(2.64896e-05 7.56265e-05 -6.31822e-20)
(0.00782406 0.023318 -3.17795e-19)
(-0.000176892 -0.000150425 3.08515e-19)
(3.16487e-05 5.46506e-06 -1.1801e-19)
(-0.00419996 0.000676843 -9.1598e-18)
(0.0233415 0.0421103 -7.1528e-19)
(0.00165855 -0.00297223 -2.3979e-19)
(-0.0394265 -0.0510167 -4.49273e-20)
(-0.0028023 -0.000225748 2.45107e-19)
(0.000856231 0.0105729 -4.13566e-18)
(0.0722604 0.0215727 -1.59905e-18)
(-7.97709e-06 0.000137337 -6.10644e-21)
(1.73684e-05 -0.000103311 2.97275e-20)
(-0.124061 0.0920235 -5.92461e-19)
(-0.0186769 -0.00761042 4.04825e-19)
(-0.0934464 0.165876 2.38284e-18)
(0.0085073 -0.0210807 -2.19795e-20)
(-7.01152e-05 -1.63061e-05 3.23139e-19)
(1.42445e-05 0.000176025 3.33029e-18)
(0.00037356 0.000123883 1.83295e-19)
(0.000522198 0.00573827 -5.88416e-20)
(0.000125703 -0.000457036 3.09622e-19)
(0.000701921 0.00136185 -9.12395e-21)
(-0.064898 -0.0948933 -1.07318e-19)
(-0.201935 -0.620206 7.2307e-18)
(-4.82444e-05 -0.000335298 1.14912e-20)
(0.11391 0.168814 7.97878e-18)
(0.135559 0.0900954 -8.34912e-19)
(0.00452353 5.29747e-05 9.06835e-21)
(0.0371883 0.0685213 -2.80274e-18)
(0.000141263 -0.000107193 1.42255e-19)
(-0.225533 -0.0438515 -2.16875e-18)
(-0.0289896 -0.069479 2.89778e-19)
(3.67009e-05 0.000262807 -5.66987e-21)
(0.0738971 0.0254165 -2.37277e-18)
(-0.0034344 0.0144298 -2.90807e-18)
(0.0679695 0.0534609 -2.12792e-17)
(0.0098489 0.0872978 -6.14355e-19)
(-0.000678062 0.000381746 -4.03766e-19)
(0.000374413 0.000152625 2.06394e-19)
(5.7447e-05 -1.76466e-06 -2.65566e-19)
(-0.00106202 0.0274251 -1.90917e-19)
(0.0049348 0.0144347 -2.24921e-18)
(-0.000388861 -0.000114534 6.49982e-20)
(-0.000646837 0.000950677 -3.27626e-18)
(-0.0718177 -0.0835782 -5.3935e-20)
(-0.000610183 -4.95617e-05 5.72462e-19)
(-0.00324528 0.0151791 3.37649e-18)
(0.000476508 0.000131465 -2.10787e-20)
(-0.00269249 0.0130597 1.72061e-18)
(0.341094 0.00109367 -5.34998e-19)
(-0.0417409 -0.0652542 -1.52386e-18)
(0.00992006 -0.0143455 -5.01704e-20)
(-0.0376059 -0.0498117 7.17937e-19)
(-0.0197513 -0.0106664 9.40579e-20)
(0.102903 -0.00761095 -2.66559e-18)
(-0.00180842 -0.00399859 1.22904e-18)
(0.000106374 -0.000261854 9.14491e-21)
(0.00154167 -0.00666773 8.97513e-19)
(-0.000556248 0.0769181 4.87169e-19)
(0.00554408 0.0059999 -3.16948e-20)
(0.00574713 0.0119299 2.0031e-18)
(-0.00037468 -0.000122239 -5.14455e-19)
(-0.157155 -0.0618949 -1.92042e-18)
(0.000235657 3.02443e-05 7.07142e-19)
(7.53236e-06 -7.31881e-05 6.6006e-19)
(0.140436 0.128267 -3.95736e-18)
(4.66713e-05 -3.628e-07 3.0511e-19)
(0.00111359 -0.00737841 3.25985e-19)
(-0.00932477 0.00957827 -1.2514e-18)
(-0.0359633 -0.0456051 1.8688e-18)
(5.09723e-05 0.000263166 -1.28359e-18)
(0.000160414 0.000110968 6.11571e-19)
(-0.0040677 0.000190287 8.60394e-19)
(-0.000538839 -0.00549683 -2.46503e-19)
(0.000110379 0.000158456 -2.46194e-19)
(0.00198534 -0.00117645 -5.37618e-19)
(0.0164443 -0.00165653 1.33768e-19)
(-0.0968093 0.0360402 9.8559e-19)
(-0.00262738 -0.000534061 -4.90269e-19)
(0.000119819 -9.38404e-06 2.8947e-19)
(-0.0242047 -0.00656633 -1.91023e-19)
(0.0718518 0.00197307 2.75107e-18)
(-0.000268175 -0.000120533 -2.30199e-19)
(-0.0278098 -0.0478507 -7.45345e-19)
(0.0630228 0.0467835 4.42512e-18)
(-0.00022218 0.000404214 -7.61527e-19)
(0.0212741 0.0618779 -5.91519e-19)
(0.000132325 0.000196902 -3.47087e-20)
(0.0206133 0.0827826 -6.40694e-20)
(-5.4024e-05 0.000265963 2.34208e-18)
(0.000669361 0.00184979 1.41709e-20)
(0.0368106 0.0595742 5.68872e-18)
(-0.000331243 -0.00216774 7.65222e-19)
(0.13918 0.0149077 5.37006e-18)
(-0.00246063 -0.000429315 5.77231e-19)
(0.000165656 0.000112707 2.25472e-18)
(0.06396 0.0637066 7.01222e-19)
(-6.44521e-05 0.000254399 -1.22598e-18)
(4.90406e-05 -1.96167e-05 -1.82014e-19)
(0.000204664 2.15437e-07 -9.82767e-19)
(9.65334e-05 -0.000271727 -8.45546e-21)
(0.00158488 -0.00814288 1.50884e-19)
(-0.0186285 -0.00447443 -8.86674e-19)
(-0.263018 -0.137653 -2.69495e-18)
(9.72923e-05 -2.24228e-07 -1.21241e-19)
(0.0753389 0.0980798 6.46036e-18)
(0.00176353 0.00192945 -1.36019e-19)
(-0.017572 -0.0559046 -1.15131e-19)
(-0.00354831 0.284916 6.92155e-18)
(0.000509848 -0.000130527 -1.69468e-19)
(-0.000185085 0.000171365 8.69706e-19)
(-0.00127397 -0.00467735 6.44091e-19)
(0.00010696 0.000556118 1.94001e-19)
(0.0197864 0.0385408 -8.944e-18)
(-8.31203e-05 -0.000133557 1.71465e-19)
(6.06703e-05 -6.58586e-05 -4.93093e-19)
(0.000117922 -0.000156467 -1.42958e-19)
(-0.000377953 -0.000119625 5.16022e-19)
(9.11779e-05 0.000213799 2.46862e-18)
(0.0388559 0.0748769 3.99331e-18)
(0.00190579 0.00495273 3.68691e-19)
(-0.00580845 0.0193185 -1.34899e-18)
(-0.00160883 -0.0014546 -5.63436e-19)
(0.000940682 -0.00602136 3.62086e-19)
(0.00241434 0.00280398 1.38815e-20)
(-0.00294341 0.00506317 -9.60321e-20)
(-0.00726464 -0.0327632 -2.49492e-20)
(1.48706e-05 9.67218e-05 1.09412e-19)
(0.0130858 0.0303828 2.92797e-18)
(-0.0269796 -0.00921863 -3.88058e-20)
(0.000124345 3.35765e-05 3.40208e-20)
(0.074132 0.197703 -4.40742e-18)
(0.340758 0.00159816 8.56151e-19)
(5.4861e-05 1.04727e-05 -2.10602e-19)
(0.0034639 -0.0503242 -9.53518e-20)
(2.81716e-06 2.52502e-07 1.52939e-19)
(0.0106926 0.0330892 5.90013e-19)
(0.000419702 0.0105782 4.27409e-18)
(-3.93761e-06 0.000229577 -1.20617e-20)
(-0.00323736 0.0119378 2.41154e-18)
(0.00109522 -0.00610269 -1.11067e-18)
(-0.0108539 -0.0524049 2.96584e-19)
(5.8292e-05 7.00527e-06 1.70127e-19)
(-0.000855055 0.00326507 2.93651e-18)
(-0.00884692 -0.101902 1.20501e-18)
(-0.0107708 -0.0682732 -6.01204e-19)
(0.0258931 0.0202134 7.63863e-19)
(8.33307e-05 0.000220487 -2.19081e-18)
(-0.0347512 0.0161303 7.12627e-19)
(0.0161121 0.0201873 2.04127e-17)
(-0.221858 -0.0731328 2.43479e-18)
(0.000224258 0.00014191 -3.17799e-18)
(-0.00209566 0.0013856 2.84521e-18)
(-0.000640336 0.000269593 7.03542e-20)
(-0.000246641 -7.5872e-05 3.58942e-20)
(-6.00895e-05 -0.000157779 1.23805e-19)
(-4.11941e-05 3.44265e-06 8.35366e-20)
(3.20504e-05 7.17728e-05 -2.6268e-19)
(-0.00111873 -0.0562169 -9.34295e-20)
(-0.00517119 0.00305036 3.45876e-19)
(0.000120609 -1.64429e-05 1.5463e-19)
(5.91493e-05 -9.91947e-05 5.57299e-19)
(1.64971e-05 -4.38525e-06 1.1833e-19)
(-0.000160531 -0.00029715 -1.36825e-19)
(-0.00896484 -0.0634459 -3.24918e-19)
(0.0148668 0.0205284 -1.75743e-17)
(8.5133e-05 -0.000142781 -7.59015e-19)
(4.28561e-05 -0.00555582 -8.84525e-19)
(-0.000267445 -6.48672e-05 2.0702e-19)
(-0.000295407 -5.83746e-06 -3.93485e-19)
(-0.00117438 0.000977607 -1.86642e-20)
(7.08275e-05 -0.000245241 -1.8814e-20)
(0.00951957 0.0142301 -3.94728e-19)
(6.64889e-05 -0.000118079 2.76524e-19)
(0.000131101 -0.00022643 -6.5186e-21)
(8.97277e-05 3.21116e-06 -1.16717e-19)
(-0.000464419 0.000145937 2.33525e-18)
(-0.00425711 -0.000485902 3.00039e-19)
(0.00201787 0.0005861 1.43992e-19)
(0.0583212 0.0441277 4.55044e-18)
(0.0855625 -0.0639007 -3.61418e-20)
(-0.00385792 0.00208744 1.33766e-18)
(0.000135263 -0.000203633 -4.01008e-20)
(0.0380702 0.0271243 3.30555e-18)
(5.62606e-05 -7.24121e-05 8.47985e-19)
(6.14264e-05 -0.000110017 1.85029e-19)
(0.00184575 0.000956978 -3.9303e-19)
(0.0219769 0.0202091 -1.12865e-19)
(0.00222355 0.00381666 -3.37633e-19)
(0.00145482 0.000918008 4.62035e-19)
(0.000128793 -0.000155177 6.7163e-20)