/*--------------------------------*- C++ -*----------------------------------*\
| =========                 |                                                 |
| \\      /  F ield         | OpenFOAM: The Open Source CFD Toolbox           |
|  \\    /   O peration     | Version:  v2012                                 |
|   \\  /    A nd           | Website:  www.openfoam.com                      |
|    \\/     M anipulation  |                                                 |
\*---------------------------------------------------------------------------*/
FoamFile
{
    version     2.0;
    format      ascii;
    class       volScalarField;
    location    "150";
    object      k;
}
// * * * * * * * * * * * * * * * * * * * * * * * * * * * * * * * * * * * * * //

dimensions      [0 2 -2 0 0 0 0];


internalField   nonuniform List<scalar> 
18355
(
0.0368697
0.000136953
0.00024185
0.000140885
0.000195136
0.000318449
0.000147328
0.000195261
0.000151332
0.00423075
0.000160162
0.000205728
0.000207394
0.00890428
0.000142705
0.000135422
0.000140872
0.000156811
0.000236407
0.000149759
0.001377
0.000149075
0.000136899
0.000315185
0.000136975
0.000150455
0.000147504
0.000140999
0.000152042
0.00016178
0.00323604
0.000179582
0.000137665
0.000134338
0.000145546
0.000149679
0.000158389
0.000150022
0.00016268
0.000148992
0.000151317
0.000161264
0.000134483
0.000136782
0.000136876
0.000239375
0.000141209
0.000141087
0.00479354
0.000144606
0.00014221
0.0358381
0.000144813
0.000230043
0.000143124
0.000149763
0.000145055
0.000639768
0.000150914
0.000322238
0.000134438
0.000194541
0.000228486
0.000145794
0.000186331
0.000140228
0.00015397
0.000158446
0.000134081
0.00439379
0.000142444
0.000143161
0.000173227
0.000159342
0.000676501
0.000134253
0.000438619
0.000134365
0.00014214
0.000534267
0.000153956
0.000375426
0.00013419
0.000155935
0.000173152
0.000148903
0.000153581
0.000166723
0.000140571
0.00016684
0.00900475
0.000219733
0.000347451
0.000144604
0.0017964
0.000149038
0.000140114
0.000145685
0.000189901
0.000148786
0.000171594
0.000141742
0.000144372
0.000130582
0.000154474
0.000135536
0.000186154
0.00177957
0.000162699
0.000135046
0.000141909
0.000147038
0.000168239
0.000155576
0.000251008
0.000161249
0.00014148
0.000659532
0.000152506
0.000153591
0.00342263
0.000241856
0.0104527
0.000170479
0.000580719
0.000244273
0.000147567
0.000141229
0.0432294
0.0001476
0.000140199
0.0345654
0.000143581
0.000192533
0.000199404
0.000140578
0.000240184
0.00404812
0.000142395
0.000227173
0.000155712
0.00022949
0.000141032
0.0278377
0.000199262
0.000146624
0.000313639
0.000131391
0.000168099
0.00398957
0.000140922
0.000153415
0.000144959
0.000178567
0.000134595
0.000138225
0.000141405
0.000148837
0.000141113
0.000139227
0.000157747
0.000143701
0.0001351
0.00020039
0.000160267
0.00163399
0.000330252
0.0475992
0.000815944
0.000155717
0.000146118
0.00019004
0.000147978
0.00601962
0.000145733
0.000150698
0.000146317
0.000130267
0.000151003
0.000160756
0.000149056
0.00146198
0.000148458
0.000141268
0.00023094
0.000144331
0.000149317
0.000166223
0.000143293
0.000148047
0.000241077
0.000189921
0.0001372
0.000134909
0.000143813
0.000252615
0.000139399
0.0470099
0.000137041
0.0110557
0.000144101
0.000153886
0.000163345
0.000148718
0.0474888
0.000146775
0.000602812
0.000141235
0.00013719
0.000144565
0.000146975
0.000256389
0.000153517
0.000149233
0.000131579
0.00684046
0.000160918
0.000155717
0.000147011
0.000141382
0.000161872
0.000133984
0.0001654
0.000181831
0.000244513
0.00016302
0.000134209
0.00397932
0.00216181
0.000168403
0.000145885
0.00015445
0.00161805
0.000134149
0.000204972
0.000242655
0.000148921
0.000241372
0.000154945
0.000149311
0.000137252
0.00015078
0.000146545
0.000166515
0.000146795
0.000143117
0.000140982
0.000251933
0.000278681
0.000143235
0.000148464
0.000287973
0.000219109
0.000184756
0.000130293
0.000218251
0.000154943
0.000147572
0.000162104
0.000139673
0.00432646
0.00142919
0.000186468
0.000161036
0.000164363
0.000200163
0.000206935
0.000193351
0.000139617
0.000143159
0.00014885
0.000135128
0.000153882
0.00015598
0.000140662
0.000146959
0.000171704
0.000140421
0.000188659
0.00808689
0.000167606
0.000147226
0.000162562
0.000135011
0.000167396
0.000146113
0.00016219
0.000148704
0.000161488
0.00674105
0.000137421
0.000173684
0.000152038
0.000165468
0.000203202
0.000144977
0.000134698
0.000185514
0.000146961
0.000225794
0.000158479
0.000462438
0.000168633
0.000187252
0.00015526
0.000174482
0.000144151
0.000153551
0.000160492
0.000173663
0.000569132
0.000272127
0.000142285
0.000157482
0.000213887
0.000163429
0.000142209
0.000141034
0.000140971
0.000176463
0.000271973
0.000341076
0.000672702
0.000170588
0.000155278
0.00029804
0.000131257
0.000146541
0.000155246
0.000144136
0.000168384
0.000144883
0.00438808
0.00013583
0.000533708
0.000143548
0.000148742
0.000156216
0.000212238
0.0463551
0.000166537
0.000691404
0.000149295
0.000140698
0.000144027
0.000158976
0.00465372
0.000140961
0.000145408
0.000442322
0.000148908
0.000141065
0.000218475
0.000156363
0.000140977
0.000145116
0.00016336
0.000152069
0.000163293
0.000135392
0.000145347
0.000148585
0.000289795
0.000422306
0.000135093
0.000140824
0.000189858
0.000141034
0.00014761
0.000295859
0.000432351
0.000176017
0.000143887
0.000149117
0.00020824
0.000149588
0.000225685
0.000153691
0.000136581
0.000179521
0.000196731
0.000148106
0.000144191
0.000156899
0.000146155
0.000156494
0.000143761
0.000200456
0.000146693
0.000152924
0.000142654
0.00014103
0.000153169
0.000150491
0.000185896
0.000378793
0.000463338
0.00015752
0.000218631
0.000174224
0.000143766
0.000144535
0.000171683
0.000143306
0.000179978
0.000146546
0.000163585
0.000310131
0.000231911
0.0466998
0.00018825
0.000130734
0.0481831
0.00014877
0.000140598
0.000790643
0.000143101
0.000171759
0.00013745
0.000191449
0.00014307
0.000188765
0.00293143
0.000184045
0.000144216
0.000137407
0.000185215
0.00015246
0.000143137
0.00319039
0.000796723
0.000140539
0.000172318
0.000186115
0.000137332
0.000150316
0.000164792
0.0105833
0.000168524
0.000148931
0.000144407
0.00016794
0.000144441
0.000136185
0.000144262
0.000249856
0.000357224
0.000136374
0.000150864
0.000145229
0.000214034
0.000195853
0.000134794
0.000171595
0.000166008
0.000145156
0.000254692
0.000194544
0.000148658
0.000145875
0.000167462
0.000215336
0.00209592
0.000136168
0.0366489
0.000142903
0.000136379
0.000170173
0.000152711
0.000203497
0.000172986
0.000153199
0.000160658
0.000149089
0.000217444
0.000152928
0.000159656
0.00014913
0.000135951
0.000147754
0.000136153
0.000194343
0.000361292
0.000191228
0.000157929
0.000147255
0.000149149
0.000145975
0.000155325
0.000146982
0.00013546
0.000143696
0.000167879
0.000137352
0.000146815
0.00865716
0.0457754
0.000216586
0.000147418
0.00015038
0.000164841
0.000148912
0.00284771
0.000259096
0.000156669
0.000156402
0.000160543
0.000150272
0.000153555
0.00545738
0.000162608
0.000148952
0.00727399
0.000146988
0.0469024
0.0488472
0.000155601
0.00015002
0.006914
0.000140725
0.000187304
0.000180744
0.00530764
0.000153005
0.000147606
0.000145038
0.00412906
0.00363258
0.00470351
0.00443081
0.000154531
0.000144905
0.000155834
0.000143167
0.000154592
0.00024925
0.00718825
0.000387902
0.000361159
0.000168223
0.000176863
0.000170258
0.000141261
0.000142273
0.000172028
0.000155477
0.000146307
0.000143116
0.000853068
0.000140013
0.00039175
0.000159866
0.00019284
0.000210393
0.000142332
0.00015567
0.0483339
0.000143655
0.000409243
0.000143522
0.00024909
0.000162603
0.000149291
0.000170028
0.000193045
0.000189092
0.000149576
0.000134086
0.00016648
0.000155931
0.000193003
0.000143479
0.000194561
0.000139948
0.000256837
0.000146943
0.000143751
0.00023262
0.000174591
0.00022727
0.000144629
0.000157171
0.000160831
0.00400037
0.00041994
0.000154494
0.000199221
0.000145212
0.000162107
0.000148348
0.000154203
0.0149915
0.000136717
0.000401815
0.000146968
0.000145658
0.000154551
0.0029646
0.000153764
0.000190987
0.000151011
0.000167088
0.00244745
0.000131394
0.000141039
0.047487
0.000166036
0.012862
0.000173366
0.000148124
0.000143122
0.000142875
0.000159306
0.000149824
0.000136645
0.000226944
0.0273937
0.000143507
0.0122534
0.0116929
0.000158308
0.000239828
0.000136405
0.0209269
0.00505167
0.000132422
0.00238916
0.000169976
0.000266744
0.0042377
0.000143648
0.000142868
0.000147931
0.000380984
0.000175738
0.000144584
0.000148777
0.000227472
0.000148487
0.000170969
0.000143704
0.00016844
0.00869401
0.00375922
0.000294498
0.00326394
0.000167315
0.000216378
0.000156298
0.00014071
0.000159807
0.00386524
0.000180598
0.000174044
0.00014439
0.00104513
0.00014541
0.000148438
0.0462101
0.000148733
0.000160392
0.00020374
0.000186549
0.000144605
0.000142886
0.000154434
0.000157916
0.000134028
0.000148225
0.000172363
0.000238549
0.000152769
0.000145088
0.000169069
0.00295053
0.000143774
0.00313332
0.000252174
0.000145049
0.0188978
0.000134584
0.000245007
0.000143633
0.000138232
0.000231401
0.000153573
0.00836527
0.000152491
0.000142901
0.0154017
0.00014361
0.00013489
0.000145775
0.000140816
0.000161131
0.000165472
0.0461424
0.000150899
0.000429997
0.000154106
0.00344667
0.0072991
0.000150445
0.000143993
0.000157065
0.00013649
0.000203731
0.000142574
0.000134806
0.00013589
0.000144407
0.000143576
0.000249481
0.000158955
0.000175212
0.000150012
0.000157076
0.000156743
0.000168647
0.00138305
0.000137291
0.000193921
0.00017075
0.000134386
0.00735697
0.0133279
0.000141653
0.00259116
0.000145296
0.000926004
0.00016691
0.000132265
0.000166902
0.000158983
0.00314875
0.000142421
0.00015426
0.00443428
0.000197677
0.000243646
0.000143544
0.00318666
0.000190048
0.0154821
0.000143486
0.00015172
0.000143131
0.000146239
0.000142057
0.000144958
0.000136722
0.00315831
0.000165399
0.000141082
0.000134277
0.000140316
0.000148709
0.000193923
0.000189549
0.000137413
0.000158029
0.000146858
0.000147045
0.000146632
0.000140935
0.000203172
0.000134317
0.000140346
0.000148966
0.00014721
0.000152424
0.000147003
0.000245991
0.000243152
0.000154688
0.000140179
0.000213489
0.000134699
0.000134379
0.000146869
0.000239037
0.000157746
0.000145522
0.000136157
0.0001371
0.000160328
0.000134007
0.000162659
0.000142466
0.000148301
0.000141944
0.000151541
0.0121761
0.000140651
0.000148779
0.000143415
0.00024681
0.00521098
0.000158273
0.000149837
0.000174136
0.000160777
0.00020165
0.00129314
0.000149016
0.00472628
0.00014888
0.000316007
0.000149199
0.000136886
0.000135852
0.00188528
0.000135458
0.000158568
0.000194367
0.000222498
0.000176152
0.000153959
0.000142332
0.00014352
0.000143595
0.000160156
0.000203783
0.00385183
0.000173559
0.000145421
0.000134035
0.000155664
0.000141866
0.000140862
0.000148309
0.000175191
0.000162772
0.000281277
0.00014535
0.000144354
0.000172595
0.00014317
0.000215474
0.000174183
0.000168335
0.000213572
0.000321087
0.000166939
0.000141273
0.000134115
0.000147387
0.000142992
0.00445894
0.000175517
0.000202445
0.000136828
0.00014702
0.000155295
0.000141136
0.0013843
0.000346115
0.000134423
0.000135763
0.000143174
0.000142061
0.000141055
0.000145104
0.000237987
0.000134894
0.000149035
0.000136865
0.00013791
0.000142191
0.000146014
0.000161886
0.000137867
0.000174057
0.000136132
0.000470622
0.000238203
0.00015623
0.00023088
0.000156149
0.000148549
0.000187456
0.00296588
0.0001446
0.000140192
0.000137003
0.000190716
0.000150204
0.00016697
0.000245089
0.000146493
0.000149707
0.000144667
0.000338614
0.000715271
0.000150993
0.000139655
0.000156509
0.000168593
0.000142339
0.00018947
0.000140271
0.000133913
0.000154924
0.000759404
0.00488025
0.00135262
0.000238979
0.00013478
0.000217518
0.000197706
0.000158121
0.000143559
0.000197523
0.000156718
0.000267761
0.00172509
0.000141894
0.000134867
0.000144697
0.000148504
0.000134987
0.000182441
0.00256252
0.000134584
0.000146737
0.000149431
0.000168549
0.000144076
0.000141821
0.000205549
0.000148924
0.000142695
0.000512093
0.000199781
0.000194889
0.000142814
0.000135882
0.00013479
0.000143186
0.000168711
0.000181714
0.00014065
0.000139073
0.000157061
0.0035072
0.000137001
0.000143926
0.000187637
0.000141129
0.000139196
0.000143567
0.00806475
0.000135692
0.000144447
0.000137058
0.000155577
0.000135707
0.000156776
0.00021513
0.000143956
0.000245942
0.00016039
0.000230226
0.000181597
0.000140837
0.000159651
0.000140457
0.000139062
0.000140834
0.00445825
0.00716853
0.000205604
0.000158586
0.00486405
0.0001889
0.000150523
0.000202129
0.000221847
0.000153471
0.000135406
0.0124805
0.000149787
0.000140672
0.000137994
0.000255971
0.0277731
0.0427036
0.000138879
0.000197373
0.00511761
0.000171548
0.000171378
0.000156317
0.000155234
0.00016592
0.000351171
0.000153436
0.000149921
0.000158686
0.0480628
0.000246904
0.000143994
0.000146564
0.000143608
0.000277759
0.000155522
0.000149354
0.0054915
0.000156727
0.000175315
0.000156303
0.00487412
0.000138588
0.000343216
0.00014961
0.000135706
0.000141368
0.000135979
0.000135743
0.000140888
0.000148105
0.00025476
0.000138123
0.000380585
0.000157933
0.000147315
0.000141171
0.000198559
0.000143354
0.000146663
0.000159611
0.00190456
0.000203489
0.000153479
0.000146351
0.000311434
0.000138558
0.000170025
0.000146141
0.0421895
0.000172446
0.00687454
0.000157566
0.000143122
0.000223249
0.001435
0.000371502
0.000137698
0.000143505
0.000168465
0.0119186
0.000130965
0.000176495
0.000141894
0.000161844
0.000140489
0.00013485
0.000149825
0.000149805
0.00013506
0.000175452
0.000170471
0.000159371
0.000211381
0.0117796
0.000150121
0.0019821
0.000136117
0.000202868
0.000266353
0.00022316
0.000134587
0.000150753
0.000145939
0.000780624
0.000144603
0.000140503
0.000196415
0.000146494
0.000146123
0.000151311
0.00014942
0.000143007
0.0492406
0.00704653
0.000185227
0.000139157
0.000145322
0.000237607
0.000136182
0.000386078
0.000147226
0.000145721
0.000148967
0.000155217
0.00023631
0.000140959
0.000145034
0.042551
0.000147215
0.000148324
0.000168564
0.000277571
0.000374264
0.000144344
0.000143656
0.00553408
0.00394107
0.0413137
0.000143743
0.000165596
0.00022667
0.000137668
0.000200113
0.000153465
0.00402361
0.000154804
0.000146092
0.000149
0.000135582
0.000361947
0.000144913
0.000138986
0.00475701
0.000184994
0.000702228
0.000135208
0.000151793
0.000135382
0.000131981
0.000136161
0.000149408
0.000146549
0.000148973
0.000135611
0.000148348
0.000175409
0.000163549
0.000175596
0.000140337
0.000155913
0.000141968
0.00630836
0.000147462
0.000148717
0.000147799
0.000135862
0.000148706
0.000148077
0.000144384
0.000143423
0.000141158
0.000136181
0.00247304
0.00202557
0.000145054
0.000353003
0.000166698
0.00014905
0.000147546
0.000150003
0.00311333
0.000147259
0.000136093
0.000134545
0.000134639
0.0482254
0.000144501
0.000136867
0.000255716
0.000134165
0.000133249
0.000196836
0.000208004
0.000204
0.000215157
0.00376175
0.000135943
0.00411132
0.000156286
0.000143216
0.000136769
0.000163089
0.000143163
0.000160352
0.000182931
0.000154235
0.00015045
0.041901
0.000260259
0.0392172
0.000312961
0.00386981
0.000211507
0.000138977
0.000265497
0.00626067
0.000135057
0.0052477
0.00013886
0.000150526
0.000210986
0.000140315
0.000486316
0.000157748
0.000152366
0.00014957
0.00022109
0.000143822
0.000350226
0.000142902
0.000136402
0.00319991
0.000133514
0.000145925
0.000148364
0.000179616
0.000142285
0.000144047
0.000152775
0.00254395
0.000144712
0.000144435
0.000137001
0.000153866
0.000142428
0.000150515
0.000592235
0.000141619
0.000157225
0.000147936
0.000154894
0.000153039
0.000140436
0.000148684
0.00019968
0.000147066
0.000147482
0.000159548
0.00351105
0.000150617
0.00014178
0.00014396
0.000160067
0.000204496
0.000151734
0.000140959
0.00014152
0.000137734
0.000131844
0.000135419
0.000159912
0.000199948
0.00018081
0.000146711
0.00690216
0.000139431
0.000151053
0.00643251
0.000174471
0.000134097
0.000192306
0.000154576
0.000140943
0.00442382
0.000148806
0.000169461
0.000132452
0.000218582
0.000139486
0.000134644
0.000135976
0.000629368
0.000213978
0.000146873
0.000124134
0.000135789
0.000142192
0.000139021
0.000211544
0.000145417
0.000138465
0.000150952
0.000152046
0.000142979
0.000145779
0.000140402
0.000147791
0.00014673
0.000140353
0.000155641
0.000135233
0.0135658
0.000186662
0.00013669
0.000235786
0.000157114
0.000140874
0.000139641
0.00015038
0.000140587
0.000160904
0.000155367
0.000198547
0.000203295
0.000147869
0.000189404
0.000219995
0.00014312
0.000148088
0.000195822
0.000153204
0.0041049
0.000135579
0.000141938
0.000154072
0.000148503
0.000143959
0.000156893
0.000140498
0.000153261
0.000144003
0.000152793
0.000139454
0.000204628
0.000144716
0.000154183
0.000192159
0.000143196
0.0040836
0.00471061
0.000153623
0.000161398
0.000159228
0.000134382
0.000187327
0.000145567
0.000165027
0.00692181
0.0309251
0.000203132
0.000155553
0.000161746
0.000142813
0.000160867
0.000138983
0.000306221
0.000192981
0.000147409
0.000140618
0.000227054
0.000171329
0.000142872
0.000143268
0.000262037
0.000147518
0.000138383
0.000778788
0.000179913
0.000134939
0.000467337
0.000136109
0.000222569
0.000181663
0.000143022
0.000144283
0.000159262
0.00025956
0.000140097
0.000156967
0.000144272
0.000143036
0.000139843
0.0096399
0.000148395
0.000145912
0.000143817
0.000244765
0.00015734
0.00014027
0.000132898
0.000203286
0.000142251
0.000136877
0.000247495
0.000331807
0.000148642
0.000246989
0.000159774
0.000176187
0.000152624
0.000182978
0.00431236
0.0001476
0.00014598
0.000137078
0.000154608
0.000142873
0.00639894
0.0012586
0.000137436
0.000150438
0.000136426
0.000135558
0.0497226
0.000142968
0.000152069
0.000151742
0.000221024
0.000144493
0.000147793
0.000155383
0.00431728
0.000146295
0.000145977
0.000137368
0.000138353
0.000154184
0.00017441
0.000146864
0.000142172
0.000145398
0.00014369
0.000137102
0.0476952
0.000148184
0.000143543
0.000141905
0.000183541
0.000136542
0.000136896
0.000166202
0.000142196
0.00019181
0.000144205
0.000144432
0.00183273
0.0201359
0.000990555
0.000251726
0.000160879
0.000148782
0.00723467
0.000139471
0.000155403
0.000135181
0.000579041
0.000130421
0.000154484
0.000144589
0.00860166
0.000173806
0.000215878
0.000815634
0.000151443
0.000189026
0.000147865
0.000149648
0.0503052
0.000166222
0.000142156
0.00013605
0.000153484
0.000162544
0.000143983
0.0001454
0.00013945
0.000135122
0.000241512
0.00561476
0.000147954
0.000148537
0.000285684
0.0136735
0.000152397
0.00015148
0.000152361
0.000154581
0.000142369
0.000151298
0.000511105
0.000140321
0.000136313
0.000146137
0.000559785
0.000303984
0.000156252
0.00014673
0.000147577
0.000157823
0.000143662
0.000158565
0.000169013
0.00019356
0.000153507
0.00198418
0.000134694
0.000142903
0.000148226
0.00013557
0.000146869
0.000140129
0.000225801
0.000140903
0.000438779
0.000145046
0.000139049
0.000137597
0.000201161
0.000151414
0.000174085
0.000178856
0.00013625
0.0271176
0.000160368
0.000138052
0.000133368
0.00445438
0.000265417
0.000133637
0.000140438
0.00014102
0.000151124
0.00022462
0.000202853
0.00015151
0.00014857
0.000213428
0.00036769
0.000149415
0.000142627
0.000283697
0.00015375
0.000324763
0.000154669
0.000142396
0.000184491
0.000168415
0.0229849
0.000173912
0.0034417
0.000136904
0.000142202
0.000148912
0.00014657
0.000153658
0.000147788
0.000146064
0.000139515
0.000147816
0.000147958
0.000148275
0.000145887
0.000152101
0.000149274
0.000143599
0.000141858
0.000180683
0.000165632
0.000140408
0.000145227
0.000239998
0.000145304
0.000147939
0.000149487
0.0142601
0.000136916
0.000169654
0.00015082
0.000136167
0.000143468
0.000390449
0.000218458
0.000149828
0.00014541
0.000154458
0.0001676
0.000140093
0.000159555
0.000178908
0.000141205
0.000204759
0.000140864
0.000143199
0.000144191
0.000147716
0.000160722
0.000263243
0.00354572
0.000190795
0.000136414
0.000144955
0.00014375
0.000205795
0.000148899
0.00266318
0.00013978
0.000143799
0.000143473
0.000190579
0.000142613
0.000146462
0.000144227
0.000215346
0.000136992
0.00600516
0.000137027
0.000185971
0.000144622
0.000161417
0.000140777
0.000153328
0.00306057
0.000211149
0.000136449
0.000183416
0.000145223
0.000146523
0.0349107
0.00439665
0.000136217
0.000142777
0.000153496
0.000135888
0.000143754
0.000148321
0.000147489
0.00016541
0.000179042
0.000149997
0.000157563
0.00021123
0.000148058
0.000140797
0.000142135
0.000155826
0.000160131
0.000144125
0.013827
0.000140659
0.000635732
0.000168683
0.000136498
0.00014014
0.000139873
0.0001014
0.00014609
0.000155217
0.000146442
0.000141554
0.00507205
0.000151194
0.000166152
0.000147144
0.000145529
0.000151268
0.000143332
0.000151219
0.00014342
0.00015291
0.000149205
0.000149021
0.00196712
0.000171707
0.00465152
0.000140897
0.000196747
0.00015169
0.00589798
0.000184998
0.00211564
0.000151784
0.000134874
0.000171866
0.000142758
0.00459399
0.000149517
0.000207638
0.000151372
0.000390567
0.0085264
0.000154035
0.000166031
0.00013936
0.000137463
0.000148446
0.00013475
0.000147823
0.000152399
0.000139462
0.000162362
0.000189137
0.0056763
0.000140777
0.000259979
0.000134631
0.000142477
0.000144058
0.000198252
0.000147541
0.000229115
0.000148044
0.000143313
0.024021
0.000140286
0.000154695
0.000142479
0.000156531
0.00122932
0.000165808
0.0444179
0.000142924
0.000183856
0.000152145
0.000141752
0.000143838
0.000186662
0.000165811
0.000143116
0.000151395
0.000143155
0.00200927
0.000139073
0.000289252
0.000271332
0.000188235
0.000157672
0.000214952
0.000208009
0.000134744
0.000917323
0.000142428
0.000372827
0.000148854
0.000151533
0.00702148
0.00709843
0.000158631
0.00041157
0.000143537
0.00553777
0.000131145
0.000642574
0.000135173
0.000149764
0.000208689
0.000147316
0.000139099
0.000149393
0.000144436
0.000180227
0.00551847
0.000163771
0.00325256
0.000141305
0.00906481
0.000144334
0.000146734
0.000143076
0.000144932
0.0045578
0.000147008
0.000137973
0.000168197
0.000148058
0.006214
0.000190892
0.000142989
0.000197813
0.000165794
0.000140522
0.000144748
0.000155557
0.00013658
0.000181022
0.000159601
0.00015231
0.000152391
0.000137141
0.0001463
0.000182649
0.000149639
0.000144882
0.000150018
0.000134886
0.000135828
0.0303444
0.000160956
0.000390728
0.000158393
0.000179325
0.000162469
0.000142067
0.000165875
0.000139168
0.000140761
0.000650777
0.000165809
0.000184073
0.000175816
0.000149783
0.000245169
0.000540249
0.000143274
0.000166491
0.000180815
0.0287478
0.000136426
0.000138135
0.000148126
0.000202444
0.00280185
0.000164842
0.000153641
0.00014874
0.000142057
0.000135219
0.000392975
0.000155419
0.000150517
0.00432499
0.000146713
0.000154357
0.00015687
0.000145042
0.000142849
0.000142839
0.00017974
0.000208977
0.000149016
0.000153147
0.000249719
0.000142136
0.000149462
0.000154157
0.000146657
0.00741691
0.00478522
0.000305765
0.000192578
0.010799
0.000152979
0.000139842
0.000257301
0.00014892
0.000160792
0.000143123
0.000135306
0.00594076
0.00107662
0.000141396
0.00013952
0.00015999
0.000418232
0.000152748
0.000135186
0.0483376
0.000151985
0.000168056
0.000134934
0.000162854
0.000131097
0.00015176
0.000159344
0.000142065
0.0258664
0.000148999
0.000167055
0.000205124
0.0056318
0.00019674
0.00014223
0.000184479
0.000154762
0.000163862
0.000151686
0.000147399
0.000145336
0.000152744
0.00167243
0.000151556
0.00174949
0.000139929
0.00022771
0.000135948
0.0001487
0.000274601
0.000155044
0.000226936
0.000153793
0.000149388
0.00485208
0.0487279
0.000140095
0.0106826
0.000170704
0.000138842
0.000133996
0.043792
0.0110727
0.000138846
0.000136149
0.000142143
0.000137009
0.00808542
0.000251237
0.000130249
0.00013312
0.000140003
0.000239026
0.00017587
0.0067493
0.00013593
0.000265904
0.000146936
0.000180616
0.045074
0.000164689
0.000139367
0.000139175
0.00696857
0.000136681
0.000141217
0.000136719
0.000158415
0.000151683
0.0272927
0.000162201
0.000148608
0.000142433
0.000157753
0.000227333
0.000183277
0.000141701
0.000141784
0.00022004
0.000177755
0.000148892
0.00471777
0.000164734
0.000153064
0.0462027
0.000151426
0.000158846
0.000148236
0.00035469
0.000145349
0.00014856
0.0484064
0.000159185
0.000141148
0.000143303
0.000131127
0.000182141
0.000212477
0.000141123
0.000136026
0.000150252
0.000186102
0.000151277
0.000135063
0.00014284
0.000139149
0.000152371
0.000172427
0.000145582
0.00014244
0.040915
0.000142009
0.00518972
0.000161644
0.000163596
0.000154509
0.000151462
0.000144969
0.0064747
0.000195282
0.000187784
0.026991
0.000161041
0.000140168
0.000342436
0.000136424
0.000189925
0.00148868
0.000152499
0.00014181
0.000153742
0.000190266
0.000142759
0.000142808
0.0240961
0.000142904
0.000154539
0.000141429
0.000146989
0.000137339
0.000187596
0.000207286
0.000136031
0.000141057
0.0090985
0.000142661
0.000137276
0.000140851
0.000140653
0.000252314
0.0001595
0.000153263
0.00015303
0.000149035
0.000138683
0.000184372
0.000200008
0.000157717
0.000259959
0.000156114
0.000154626
0.027188
0.000140165
0.000136254
0.00014342
0.000140488
0.000148598
0.000132638
0.00014906
0.000371551
0.000144461
0.000141819
0.000156453
0.000140624
0.00325379
0.000147547
0.0488864
0.000233432
0.00016751
0.000161467
0.00278957
0.000162815
0.000143138
0.000154698
0.000140478
0.00015188
0.000144397
0.000148394
0.000341715
0.000135867
0.000143818
0.000171998
0.000287869
0.00014771
0.000139795
0.000226823
0.000151584
0.000174944
0.000143046
0.000139936
0.000144225
0.0244512
0.000146604
0.000284284
0.000179057
0.000156543
0.000139701
0.00014318
0.000155788
0.00527164
0.000136105
0.000179056
0.000141805
0.0484318
0.000238193
0.000149048
0.00022224
0.000146061
0.000153364
0.000154247
0.000256506
0.000159015
0.000160715
0.000162254
0.00570312
0.000147801
0.000180539
0.000144528
0.000193415
0.000218523
0.000240603
0.000142425
0.000164033
0.00565099
0.0038016
0.000154763
0.000153982
0.00554811
0.0055855
0.000140308
0.000180567
0.000143326
0.000156093
0.000146203
0.000152936
0.000152153
0.00929455
0.000147549
0.000148034
0.000182087
0.00582569
0.000440742
0.000210654
0.00348463
0.000139831
0.00518174
0.000184924
0.000142445
0.000141782
0.00664133
0.000161404
0.000145085
0.000142614
0.000168086
0.000138642
0.000142848
0.000316838
0.000145528
0.000148142
0.000141087
0.00014383
0.000150977
0.00013895
0.0500836
0.000164596
0.000153681
0.000139255
0.000165183
0.000405676
0.000142085
0.000147765
0.00593123
0.000232676
0.000143444
0.000154328
0.000138716
0.000140423
0.000201298
0.000222729
0.000140467
0.000143212
0.00597088
0.00109803
0.0111313
0.000196938
0.000151577
0.00421866
0.000140491
0.000155359
0.000154073
0.00013973
0.0490759
0.0110198
0.000169272
0.000194743
0.000349995
0.000134005
0.00013309
0.000152715
0.000164287
0.0046743
0.00013648
0.000166903
0.0046249
0.000279945
0.000146963
0.00015081
0.000253144
0.000142659
0.000154718
0.00206651
0.000140926
0.000142596
0.000138895
0.000244889
0.000141834
0.000165335
0.00014924
0.000205829
0.000163074
0.00527479
0.000143157
0.00014223
0.000167018
0.000147734
0.00019049
0.000148995
0.000202167
0.000207831
0.000140788
0.000144518
0.00346203
0.000280305
0.0128842
0.000139064
0.000143354
0.000155031
0.0001453
0.000143162
0.00014402
0.000147054
0.000148532
0.000139457
0.000139644
0.000180671
0.000154008
0.00016999
0.0149103
0.000186416
0.000177467
0.000157442
0.000200035
0.000235016
0.000161844
0.000161407
0.000159753
0.00014173
0.0052537
0.000136056
0.000135763
0.000140664
0.00433935
0.000142077
0.00431347
0.00014847
0.00013497
0.000180377
0.000142989
0.000142306
0.000142954
0.000220951
0.00404676
0.000147034
0.000139743
0.0001513
0.00123279
0.000177075
0.00599804
0.000143102
0.000177671
0.000146374
0.000145612
0.000136409
0.00013888
0.000143362
0.000169072
0.000901378
0.000153743
0.000153436
0.000208868
0.00859318
0.00020988
0.000141749
0.000202408
0.000164516
0.00200085
0.00013788
0.000143065
0.000162742
0.000701322
0.00013243
0.000144713
0.000138832
0.00013661
0.000209563
0.000152539
0.000181812
0.000145646
0.00013222
0.000165471
0.000143997
0.00912986
0.000144128
0.000173253
0.000147883
0.000157983
0.000149192
0.00018418
0.00579178
0.000142503
0.000183407
0.000384697
0.000141679
0.000146717
0.000172178
0.0001319
0.0442133
0.000183251
0.000142821
0.000182654
0.000134333
0.000144109
0.00014786
0.000141683
0.000136726
0.000149712
0.000140398
0.000138767
0.000145224
0.000149014
0.000176811
0.000136514
0.00022555
0.000138252
0.000140454
0.000159121
0.00017486
0.00014976
0.000131995
0.000142485
0.000153456
0.000173854
0.000472086
0.000164922
0.000148943
0.000148861
0.000139461
0.000161249
0.000140773
0.000152567
0.00028092
0.000241328
0.000175487
0.000141365
0.000148686
0.000149675
0.000132122
0.00019508
0.000134843
0.000216133
0.000149161
0.000245089
0.000157481
0.00027949
0.000146795
0.000186065
0.0238179
0.00730482
0.00270558
0.000156148
0.00538599
0.000279073
0.000148548
0.000166108
0.000332761
0.000140665
0.000139013
0.000143934
0.000155047
0.00118334
0.000146011
0.000158564
0.00417888
0.00013027
0.000144558
0.000263896
0.00582029
0.000199098
0.00334741
0.00500132
0.000149762
0.000182858
0.00015399
0.000154948
0.00113736
0.000153987
0.0195516
0.000215865
0.000153414
0.000146322
0.000152276
0.000155091
0.000139532
0.0061398
0.00013233
0.000142893
0.000143302
0.007612
0.0277038
0.000216152
0.000145376
0.000151251
0.000138772
0.00165878
0.000143436
0.000149568
0.000153298
0.000163323
0.000138626
0.000191626
0.047303
0.00555441
0.000147533
0.000672403
0.000139506
0.000435724
0.000132705
0.000252816
0.000146158
0.000185467
0.000161243
0.0098662
0.000224598
0.000152617
0.000150809
0.000182167
0.000155283
0.000141879
0.0001387
0.000158443
0.000149012
0.00279135
0.000131634
0.000143183
0.000144188
0.000143766
0.00157543
0.000139255
0.000134567
0.000147069
0.000361916
0.000161912
0.000181247
0.000152283
0.000150868
0.000195045
0.000139313
0.000143179
0.000188625
0.000173858
0.000134583
0.00016662
0.000151956
0.0039337
0.000142738
0.000364477
0.000146077
0.000143215
0.000135256
0.000134875
0.00014233
0.000141339
0.000399579
0.000184906
0.000146968
0.000143092
0.000142328
0.000152496
0.000158048
0.000377293
0.000147562
0.000193482
0.000165775
0.00619648
0.000147495
0.000173012
0.000143058
0.00014276
0.000163707
0.000142629
0.000145789
0.000140403
0.000135942
0.00033078
0.000143539
0.000139196
0.000240533
0.00494594
0.000197461
0.000145187
0.000134753
0.00015415
0.045925
0.000152737
0.000147731
0.00014654
0.000415308
0.000148349
0.000144072