/*--------------------------------*- C++ -*----------------------------------*\
| =========                 |                                                 |
| \\      /  F ield         | OpenFOAM: The Open Source CFD Toolbox           |
|  \\    /   O peration     | Version:  v2012                                 |
|   \\  /    A nd           | Website:  www.openfoam.com                      |
|    \\/     M anipulation  |                                                 |
\*---------------------------------------------------------------------------*/
FoamFile
{
    version     2.0;
    format      ascii;
    class       volScalarField;
    location    "600";
    object      ddt0(k);
}
// * * * * * * * * * * * * * * * * * * * * * * * * * * * * * * * * * * * * * //

dimensions      [0 2 -3 0 0 0 0];


internalField   nonuniform List<scalar> 
18758
(
-6.31871e-06
-0.00234816
5.08171e-08
-6.62019e-06
-1.06045e-06
-1.66326e-08
-4.94811e-08
-3.97136e-07
-9.55565e-07
-3.19404e-07
-0.00204491
0.000667147
0.00227841
-1.17823e-07
-4.13573e-08
-6.54101e-09
0.000166923
-3.21491e-08
-3.6104e-08
-1.96998e-07
-0.0028368
6.9779e-06
-6.09696e-09
1.8583e-08
-2.88825e-05
4.21273e-06
-0.00636822
1.55205e-05
3.43711e-06
-0.00395676
0.0403961
-0.00619859
-3.65814e-07
0.00112266
-1.45287e-06
-0.00353709
0.0025501
-1.32808e-06
0.0104062
5.06922e-08
0.00149807
1.1628e-06
0.000158683
1.62525e-07
-2.00603e-08
0.0413819
1.08337e-06
4.17105e-06
-0.00520683
-3.86841e-06
-0.00206421
-0.0534219
-3.15344e-06
7.60297e-07
-3.52143e-07
0.0013423
-7.60602e-08
-1.55976e-07
3.90654e-06
-4.38326e-08
-1.34698e-08
1.00351e-07
-0.0106122
0.00494874
-2.18652e-08
0.0118903
-3.82495e-08
-4.84169e-08
2.55539e-05
-3.83696e-08
-0.0620122
-7.6868e-06
2.65941e-08
-1.19625e-06
-3.74905e-06
0.0390006
-8.38041e-05
-0.00274536
-8.44158e-07
-0.000167173
1.38812e-06
0.0111387
-0.0018752
-3.49063e-06
2.69282e-08
-1.48285e-07
1.84777e-07
-1.47041e-06
-0.011697
-4.77934e-07
-0.0226353
-2.51686e-09
1.22341e-06
-0.00615606
2.73495e-08
-7.18166e-09
-6.34749e-08
2.41087e-06
-0.00335653
-4.57259e-08
0.0480767
-7.03403e-07
-4.51057e-08
-7.54135e-09
0.00936387
-0.00379479
3.48566e-06
-0.0298383
0.00123084
-0.000392553
-1.01962e-08
0.00805743
-1.40278e-06
2.18407e-08
-6.98227e-07
-0.0257
2.26502e-06
-1.34379e-07
-0.0188772
-9.81559e-07
2.70805e-08
-0.000149843
-2.37043e-07
-7.83782e-08
-0.00106253
7.25888e-07
2.13358e-08
-7.8049e-08
3.00412e-06
-0.00012559
3.7489e-06
1.26261e-08
-2.17566e-08
0.00703904
1.44283e-07
-2.50469e-08
0.000260571
-2.35702e-08
-4.77137e-06
1.50351e-06
-2.04852e-07
0.00221655
1.59616e-06
0.000546238
-0.000650723
8.89016e-07
0.0132717
2.68505e-06
-0.00173528
-0.0228561
0.00315793
-0.00250036
1.5318e-08
-1.73693e-06
0.00118099
-0.0360856
1.27811e-06
3.07602e-06
-3.45638e-06
-0.0028376
0.00298124
-1.0897e-07
-0.0125934
0.0141483
0.0149565
-1.94131e-07
-1.0565e-07
0.0125662
0.000743705
0.00251158
-0.00380064
4.2076e-08
3.14778e-06
0.00066535
0.000964947
-6.21722e-08
1.93156e-08
-2.35521e-06
0.000605251
-9.45454e-09
-1.79365e-08
6.33375e-07
1.70197e-07
2.20536e-09
0.0146922
-2.41369e-08
-0.00406922
2.24484e-07
-0.00655159
0.00169544
-0.0026786
-2.67404e-08
7.23314e-06
-3.22945e-05
1.85273e-08
-1.31341e-08
5.08234e-05
1.68845e-08
-0.00562852
-1.25254e-08
-1.75755e-06
1.15809e-06
-2.05862e-06
-6.65335e-09
-1.48744e-08
-0.0129631
-1.54288e-07
-1.48956e-06
0.00168974
-0.00151611
2.69105e-08
1.49408e-06
-2.16707e-06
5.36756e-07
-3.77491e-09
-6.55335e-08
-2.10325e-08
1.44423e-06
-4.77458e-09
0.00260029
-9.92896e-06
2.21626e-07
1.51955e-06
1.14768e-06
-5.79378e-06
-0.00345993
-4.03999e-06
-1.30675e-06
0.00464102
-1.40897e-07
-2.93007e-05
1.0378e-06
0.00040346
-3.6471e-08
-2.74571e-08
2.42601e-07
-1.12823e-06
-0.00380056
6.34602e-05
-1.92166e-07
-1.4699e-08
-2.24644e-06
5.49094e-06
-4.29165e-09
-0.0112072
-3.65418e-05
-2.58721e-08
-2.41186e-08
-4.98697e-07
-4.86883e-08
-0.00394061
2.23091e-07
-0.00292117
2.54546e-07
-4.01315e-08
-0.000792609
-2.71918e-07
-1.98813e-06
-2.48305e-08
0.00342842
-1.2261e-06
-7.96909e-08
-2.54961e-08
6.91048e-06
-0.0235137
-0.0230951
-8.05776e-08
-1.50051e-06
1.62157e-08
-1.56002e-07
-0.00884839
-0.000444676
-1.33352e-07
-9.0139e-08
2.73127e-06
-1.07541e-08
5.48089e-08
-1.05941e-08
5.33523e-07
-1.22707e-07
-2.40504e-08
2.03341e-08
-2.70168e-08
0.0126165
-4.57537e-08
-8.80151e-08
-1.66277e-08
6.32938e-06
-1.14565e-08
-1.04224e-08
6.31138e-09
-3.61436e-08
-8.59353e-08
1.12234e-08
4.77621e-08
-1.14674e-06
-0.00291016
-8.27838e-09
1.88802e-08
-0.000542659
4.14268e-08
2.63481e-08
2.58399e-08
-0.0114579
-0.000529903
-1.27682e-08
2.8132e-06
-0.00437187
2.50038e-07
0.000863656
-2.80262e-08
-0.0246012
7.44486e-06
6.63035e-06
2.68117e-06
-0.000672299
-2.98702e-08
-0.00913222
-2.31624e-06
-2.0856e-08
6.18394e-06
-3.31841e-06
-0.0143508
-3.24293e-08
-3.46477e-08
-0.00103952
-0.000514385
-6.14913e-08
-0.0019709
-2.48525e-06
6.02351e-06
0.00367216
-3.25919e-08
-2.80909e-07
-2.72093e-08
2.79747e-08
3.49212e-07
6.1859e-09
-3.86389e-07
-1.77631e-07
3.11415e-07
-1.82768e-07
-0.00014809
-0.00798232
2.70694e-07
-0.0124428
-0.00297949
-5.38505e-08
8.54581e-07
-0.000138996
-2.76096e-05
0.0015992
-0.000164851
-2.15389e-08
-0.00279134
0.00841832
1.22432e-06
-1.79482e-07
5.54649e-06
4.54663e-07
1.00228e-07
0.000164358
-3.64836e-05
0.000851342
-4.69654e-06
-5.96777e-05
-2.62183e-08
1.9675e-07
6.16991e-07
2.67735e-06
-0.00455516
-0.0306509
-0.00596341
0.000433767
0.00204561
-0.00109703
-5.30365e-08
0.0103996
2.81822e-06
-0.00127327
0.000607912
-3.07856e-08
2.20516e-08
3.3729e-05
0.00121897
-0.000584017
-0.00446219
-0.00155821
-1.98775e-07
0.00145327
0.000702495
-7.4014e-09
-1.51482e-07
1.56623e-07
5.6023e-07
3.1059e-08
4.08915e-07
3.17769e-09
-1.39999e-08
3.19042e-09
-4.38834e-07
-2.31509e-06
0.0244151
3.78377e-07
0.0114342
0.0142074
0.00215302
0.0235297
3.48909e-06
-9.87537e-07
2.8635e-08
0.00020216
-1.60409e-07
-1.97504e-07
0.00148526
2.48226e-06
-0.000156688
-2.61035e-07
-2.66092e-05
-2.31376e-08
4.96515e-08
6.26749e-09
-0.00303905
-0.0247827
0.00190237
3.6463e-08
0.00219799
9.73539e-07
-2.52707e-08
-2.7962e-07
2.88513e-09
-0.00590885
5.1854e-08
5.01484e-09
0.0254258
4.16969e-07
-2.08087e-07
2.09491e-08
-4.1182e-07
-8.59359e-07
0.00801201
-0.000921088
2.35838e-09
0.010473
8.3308e-09
1.04547e-06
-9.48347e-07
-8.35443e-09
0.0357665
4.52621e-09
-9.72275e-07
5.92434e-08
-0.0147947
-8.72253e-07
-1.71782e-09
-0.00310422
-0.000616444
-1.85546e-08
2.04443e-07
-1.31384e-06
-8.41393e-09
5.23065e-08
-1.37831e-08
-0.0112678
-0.0011478
-3.9403e-08
1.4665e-06
-3.36936e-05
-2.65762e-06
-0.00283536
-7.48781e-05
-0.00241501
-5.97257e-08
3.4928e-06
-1.74459e-06
-2.27948e-06
-3.69438e-07
0.00266716
-0.000221688
3.21755e-07
1.84368e-08
-4.89852e-08
-1.56544e-08
-9.38048e-09
-1.69752e-08
-9.53522e-09
0.00196844
1.26119e-08
1.54546e-08
7.50791e-07
4.99721e-09
6.67393e-08
-1.42735e-07
-1.24131e-06
-0.000188654
-0.00142399
-1.64945e-07
-0.0018244
-4.97296e-08
4.19877e-07
1.18358e-06
-0.00195074
0.000872422
-1.74996e-08
-1.79762e-08
-0.00182404
0.00451185
-5.55289e-05
-8.98169e-08
-0.0103388
0.013427
-1.72221e-08
-4.76932e-08
0.00740441
-9.85655e-08
1.57919e-06
-4.25966e-05
-3.22151e-07
1.49477e-06
-2.67509e-08
-4.57052e-08
1.15121e-08
3.42779e-08
-1.20814e-07
-1.66785e-08
-0.00153435
-1.47945e-08
0.000297148
-4.68564e-05
-1.97432e-08
-1.54391e-08
1.70889e-08
1.67461e-07
1.64219e-07
-0.000506339
-3.66196e-08
0.00248945
-1.66205e-06
-2.27893e-06
-1.18554e-07
-2.67019e-07
-5.21369e-07
-7.25195e-08
-5.53437e-08
-0.00205686
0.0119438
-2.2373e-08
-1.15022e-07
-3.74939e-08
0.0111812
2.11623e-09
-5.83663e-08
-1.58271e-08
1.2247e-08
-6.01588e-08
-1.15185e-07
1.37353e-07
-6.41418e-09
4.27246e-06
-3.04545e-08
1.54219e-07
1.04848e-05
-0.0020831
4.15541e-07
9.8275e-08
-7.93633e-08
6.63528e-08
3.08048e-09
-4.32802e-07
-0.00203923
-6.37445e-05
-2.09674e-08
-0.00388392
-7.97149e-08
8.67583e-07
3.7788e-08
-2.54636e-08
1.1814e-06
-3.39651e-08
3.10273e-08
-0.00503239
4.37547e-08
-1.4238e-08
-5.24164e-06
2.19824e-08
-4.48397e-08
-0.00490846
-9.85513e-08
0.00242972
-0.000233586
-8.93096e-09
6.56319e-08
-3.34016e-06
-5.64588e-07
2.49665e-07
-6.19043e-08
0.0059095
-0.00169274
-0.00182044
-3.11631e-08
4.87562e-05
1.73456e-08
2.27544e-08
-8.13062e-09
3.84438e-07
0.00848058
2.50741e-05
4.68233e-08
1.50758e-09
-7.15922e-07
4.98186e-06
-0.00508837
-1.64367e-08
1.38229e-05
2.66815e-08
-0.00347276
1.09103e-07
-4.80552e-05
-4.34721e-08
1.45607e-06
2.82124e-06
-6.28398e-10
-4.59603e-08
-8.68683e-10
-4.77332e-08
-6.54593e-08
0.000130586
-0.00307379
-0.00494604
-2.83883e-05
-1.48074e-06
-1.17299e-08
-1.15563e-08
0.000550846
-2.76599e-05
-6.01928e-08
1.67495e-06
-0.00226087
-0.00187184
3.85644e-09
1.59494e-08
-3.59343e-06
-0.00293038
1.6946e-08
0.000402536
-9.19296e-08
-6.8908e-09
5.83507e-07
-2.58087e-08
-5.12738e-08
3.80167e-07
-2.36607e-08
7.45714e-07
0.000228994
1.24566e-06
0.000180434
5.54491e-07
-7.00715e-08
-0.026777
-6.33588e-08
-0.0108933
-0.000914226
-1.05436e-07
0.000650841
1.48084e-06
1.44527e-07
0.000198536
-6.16094e-05
7.63582e-05
-0.0210384
-5.00072e-07
-0.00600211
-1.49798e-08
0.0018036
0.00187321
9.4365e-07
3.03649e-07
0.0026504
1.8954e-08
-4.12285e-06
-0.00111431
0.0170794
1.59511e-08
-0.00309452
-6.05831e-09
2.0078e-06
3.54595e-06
-1.30167e-08
7.64194e-07
-0.000186033
0.00341959
-6.87121e-07
1.37362e-07
1.81327e-08
-1.78642e-07
-1.01249e-06
5.84447e-07
-3.16082e-06
-3.04394e-08
-0.0229604
-1.4648e-06
-1.68231e-07
2.43885e-07
-3.29122e-09
-7.14943e-05
-2.27285e-08
-4.83844e-08
0.00406078
-1.78054e-08
4.92544e-07
0.000264115
9.63768e-07
4.12774e-07
-7.05727e-09
-9.49743e-08
4.64215e-06
-1.92925e-08
-0.000873705
4.91272e-08
-1.37851e-07
-1.55467e-07
-1.94002e-07
1.82509e-08
0.00929262
-2.93517e-09
0.000341273
1.86857e-06
-1.40033e-08
-0.0502831
-2.30874e-08
6.66777e-06
-6.58439e-07
0.00427244
4.94291e-08
-0.00107265
-3.24992e-05
-5.11369e-10
-1.89948e-06
-3.73252e-09
-0.0021801
-3.63193e-08
-1.14128e-07
0.00016825
0.000417969
-1.67862e-08
1.16238e-07
-4.15975e-07
2.73895e-08
-9.05297e-09
0.00232117
-0.0106917
7.31829e-08
2.33313e-08
-5.68032e-09
0.00426154
1.55229e-05
0.000208526
-2.56662e-08
1.67702e-05
-1.19888e-07
-1.15114e-07
4.49521e-07
-0.00186671
-1.62619e-08
1.7779e-06
-0.00667211
1.93276e-06
-0.000285154
-3.34036e-08
-2.54228e-07
-1.63401e-08
6.72002e-09
1.9707e-07
-1.93615e-07
2.92991e-06
-1.3502e-08
0.00945393
2.48129e-08
6.28403e-08
2.91845e-06
0.00292982
1.85752e-06
2.8531e-08
-1.95019e-07
0.000579577
-5.44619e-05
-3.48399e-06
-6.35492e-10
-5.92946e-08
-1.38685e-06
0.00554159
0.000347093
5.46882e-08
-9.09899e-09
-1.92088e-07
1.09772e-07
7.50265e-07
2.10317e-08
2.88413e-08
-0.00226514
-1.99785e-08
-4.26562e-08
0.000331402
-3.00408e-08
-6.21427e-05
1.32195e-05
-4.42297e-05
-0.0282526
0.00233857
-0.00934689
1.59452e-08
-5.84644e-08
8.05197e-08
1.09648e-07
-1.09892e-08
7.64639e-09
2.31004e-08
-1.71223e-07
0.00375626
2.15287e-06
-0.00381354
-3.23648e-06
-5.10567e-08
-1.27904e-06
-2.37223e-06
5.67987e-06
3.25311e-08
6.19529e-07
5.57766e-08
-0.00604017
-4.07011e-05
-0.00646679
-3.34506e-08
4.11136e-06
3.12046e-06
-0.000213923
0.0027762
0.000506573
4.49835e-08
3.49623e-06
3.11538e-07
0.000234492
-7.21464e-08
-3.56079e-09
5.35046e-06
0.000893104
8.73891e-09
1.38887e-05
-0.00208057
-3.02511e-08
1.5209e-08
-3.62386e-08
7.95698e-08
-3.98501e-08
-1.32147e-06
6.58641e-07
3.60027e-09
-6.49059e-08
-0.00303128
-0.00552247
-3.20065e-08
0.00243066
-2.87064e-06
4.37073e-07
4.95109e-07
1.45938e-07
-4.25657e-08
3.01224e-07
4.33982e-07
2.48659e-08
-7.85857e-08
-1.19381e-06
-9.57357e-08
-0.000128654
9.37127e-09
2.53932e-08
1.22023e-07
-0.00283111
1.52275e-08
-1.10121e-08
0.0132127
-8.53622e-09
1.37708e-06
2.07916e-07
-3.68751e-08
2.0766e-09
-2.60813e-09
-2.18405e-07
7.87947e-07
5.406e-08
0.00251305
5.91653e-06
3.54083e-06
0.000482081
-1.77037e-07
0.000288743
-1.54693e-08
-0.00757464
-2.64354e-08
5.48573e-08
9.06633e-07
-0.0170637
-7.2657e-08
-0.011525
-2.15958e-05
-1.80491e-08
5.11258e-07
-1.52163e-08
-1.4897e-08
7.95328e-08
-6.44984e-08
-3.02414e-08
-0.000124012
-1.60999e-08
-2.38298e-08
-0.000685851
-1.31215e-07
-1.44599e-08
4.33415e-09
-0.000369028
1.5456e-07
4.3576e-07
5.73194e-07
-4.2248e-06
0.0016194
-0.000501552
-0.00218767
-4.92771e-08
4.20326e-09
-3.43098e-08
0.0174097
2.67315e-08
4.37531e-08
-1.30837e-07
4.25318e-08
-0.00213525
-9.47366e-08
-2.4843e-08
-4.91155e-05
1.77849e-08
8.92295e-07
0.042276
5.69856e-09
1.20826e-08
0.00153659
6.14964e-08
0.00536236
-0.00329989
-9.95093e-09
-2.7692e-08
0.00678246
-2.36915e-08
-1.13565e-07
-0.000213975
1.76928e-08
-0.00528372
-3.25771e-08
8.25836e-08
-3.66767e-08
-2.01236e-06
-4.77307e-08
-0.00210638
-9.00595e-09
-3.0398e-08
-0.00224004
-0.000114802
8.50846e-07
8.35881e-07
-8.16219e-05
-0.00491671
-7.54471e-06
1.42788e-08
-0.00421673
3.69914e-08
0.00669198
-0.00377826
1.95265e-07
8.5827e-07
-9.39207e-08
-0.00218606
-2.03175e-08
0.00784588
-1.35055e-07
-4.9664e-05
-3.92667e-07
2.00676e-08
2.9155e-08
9.06525e-09
-0.00402993
-0.00616432
-1.10971e-07
0.00551205
-2.02762e-08
-1.56618e-08
-0.00580719
-4.60671e-08
-2.02248e-06
7.50549e-09
-1.96465e-07
-3.15324e-08
5.44808e-09
-3.00186e-08
-2.56895e-08
9.78264e-06
-5.34043e-07
-2.41915e-06
1.12697e-06
-2.37283e-07
-2.84476e-08
0.00176092
-3.70118e-08
-0.00263671
-2.73369e-08
-0.000279743
1.75314e-07
-0.0034274
-1.31399e-07
-1.88596e-07
-1.83409e-08
-0.0143035
2.54411e-08
-0.000315587
-3.78026e-06
-1.13905e-08
2.15709e-07
-3.63093e-08
-1.96441e-08
3.4532e-07
4.40475e-08
0.00110266
-1.21477e-07
6.26429e-08
-4.53231e-08
-1.05042e-07
0.00348559
0.00538558
-5.43024e-08
9.07646e-10
4.49858e-07
-2.29185e-07
8.82547e-09
-6.09236e-07
1.46511e-07
1.20055e-08
-9.3476e-08
-1.87157e-07
-2.74513e-06
1.97522e-06
4.35367e-09
-1.16042e-08
0.0140599
-5.71143e-07
-0.0112471
-5.70699e-05
-1.44634e-07
-0.0129041
4.46148e-08
-1.70417e-07
-5.06494e-07
-5.85957e-07
5.80309e-06
-1.5298e-07
1.13483e-06
0.00264249
8.29601e-06
0.00858773
0.0185401
-0.00128959
8.44009e-08
-3.97235e-08
-1.60404e-08
0.00302373
6.96695e-08
2.60632e-08
6.84244e-07
-0.000141492
1.8038e-08
1.97949e-08
-0.00240469
5.96715e-08
8.50218e-07
-1.43114e-06
-1.7229e-07
5.17323e-06
-2.44903e-08
7.19432e-08
-6.10664e-08
3.36906e-07
7.15581e-07
-7.95085e-08
3.65043e-08
7.60657e-05
-8.84947e-09
-3.4477e-08
0.000943515
3.06414e-08
2.95154e-08
5.09883e-08
-1.56289e-07
2.45117e-07
-1.12359e-05
2.94155e-06
0.00352188
-0.00486138
0.0108858
-0.00107856
5.65479e-07
0.0123316
0.00122106
1.26909e-08
-4.74043e-08
3.83799e-09
-1.50117e-08
-1.65327e-07
-5.20994e-07
-3.61468e-06
1.75388e-05
2.21619e-08
2.92849e-09
-2.50893e-06
9.02469e-07
-0.00165226
3.97749e-08
1.78069e-07
-5.2521e-08
0.000413478
-0.00167769
6.35908e-07
0.00702811
-1.75566e-08
-4.80452e-08
5.37355e-06
1.93377e-07
-3.27872e-08
1.61891e-05
-1.0219e-07
1.77955e-06
-0.00313583
1.11302e-05
5.92339e-07
4.57795e-08
-1.53938e-08
-1.60865e-07
-1.95563e-08
-0.000251163
8.31626e-06
-0.0170259
-0.00190455
-0.0172921
-1.39607e-07
-0.0103957
-0.0120996
0.0178909
5.91261e-07
-0.0201152
1.26092e-06
-0.000382573
3.96221e-06
2.88316e-07
-3.35927e-08
2.47939e-08
-7.26913e-08
-2.3032e-06
2.60583e-09
5.09738e-08
-0.00010754
0.00713392
-0.00394204
0.00254494
2.17477e-06
0.00874547
3.61013e-06
1.16474e-06
-3.72177e-08
0.00385612
-4.06132e-05
-4.16441e-08
6.04716e-07
0.0274041
-0.00302639
-0.00193214
1.28044e-06
-2.98886e-06
1.00015e-09
0.0036933
-1.50173e-08
-0.000467686
-0.00128791
-1.05929e-07
1.78925e-06
3.75544e-06
-3.1742e-08
2.40239e-08
-0.00159192
-0.00157202
-1.01154e-06
-3.65772e-08
-7.02735e-07
3.62227e-07
0.00299347
-6.17085e-08
0.00159836
-1.41431e-07
-0.00148213
-0.000212197
-8.53747e-07
-0.00429384
-3.3372e-06
-0.00106408
8.63877e-10
-1.34749e-07
0.00410952
3.66561e-07
-9.80981e-09
0.00200245
-0.000460098
1.18008e-08
-3.55473e-08
-0.00340983
-1.01491e-06
-9.48437e-07
-4.08545e-05
-0.000854393
4.11236e-07
5.15244e-07
0.00348313
7.21902e-07
-4.92819e-07
-4.77238e-07
0.00108839
-8.05725e-07
6.20614e-08
-5.08062e-08
-0.00800632
-1.21697e-10
-0.0125604
-4.99903e-09
-2.61756e-08
-0.000112434
2.6207e-07
-2.34194e-08
-0.000139248
1.67459e-08
-2.40755e-07
-2.52907e-08
-7.15116e-08
1.21796e-08
1.3157e-06
2.60148e-07
0.00150646
-5.48024e-07
0.00759802
0.00606224
-5.36078e-07
-6.16536e-09
-9.35736e-10
0.00338856
1.03616e-09
1.34354e-07
0.00157763
4.59143e-07
-0.00665356
-3.66375e-08
-6.41774e-09
-9.19305e-09
4.58898e-08
1.42043e-07
1.47806e-08
-3.2755e-07
3.3871e-07
-4.16181e-08
-0.000945779
5.76646e-06
0.000503063
-9.45815e-07
-3.47965e-08
2.5842e-07
0.0173961
-0.0304282
-0.00320367
0.00504247
0.000311043
8.35982e-06
-0.0194811
9.87432e-07
3.27716e-07
2.06266e-06
-0.00266797
-4.99368e-08
-0.00392312
-0.00144569
-1.20852e-06
2.23496e-08
-0.00215048
-3.58618e-08
-3.49898e-08
-1.71419e-08
6.17905e-07
0.00365328
3.20572e-05
1.90604e-08
-4.26382e-08
-1.65538e-07
-6.31959e-09
-3.06555e-06
-2.93938e-08
-0.0163653
4.88336e-06
-3.56707e-06
-1.77052e-07
1.95506e-08
4.27173e-08
-0.00308213
-4.61199e-06
-5.45432e-09
3.65411e-07
-0.000427617
-7.78484e-09
-3.26845e-08
-1.41879e-08
1.36803e-07
1.35228e-08
3.54947e-08
-8.9761e-09
-0.00343493
-4.83876e-08
-0.00461597
-5.97353e-08
7.55965e-09
-4.89672e-06
4.08462e-08
3.56585e-05
4.20737e-09
1.27081e-06
-1.71123e-05
0.00097943
-9.58471e-08
1.36192e-05
-0.00140958
1.59417e-06
-2.43891e-06
-1.45558e-08
8.08406e-09
3.07566e-09
-3.13785e-08
-6.96948e-06
1.18414e-06
-2.2612e-08
-9.43994e-06
1.52794e-09
2.73802e-07
2.12381e-06
6.14718e-05
1.67223e-08
1.36442e-06
-9.85217e-07
3.6798e-07
-1.03809e-05
2.34355e-08
-1.80527e-08
-0.00152614
-2.09442e-06
-7.61168e-09
2.94214e-09
1.76317e-06
-1.95908e-09
-2.89094e-08
-0.00930264
3.81335e-06
5.90115e-07
-2.9503e-07
6.34239e-07
-0.0470157
6.80845e-08
0.00141303
0.00508807
-2.58458e-08
-4.7213e-08
-0.00510164
9.28081e-08
-2.11557e-06
-1.57938e-07
-7.25078e-06
1.17104e-06
-6.50946e-11
-4.38632e-08
-3.44846e-06
1.08137e-06
0.00712804
-0.00290503
1.16525e-06
0.000544556
-0.00606141
-9.29054e-08
-0.00256129
0.00904197
-2.74761e-06
0.0207814
9.79696e-09
1.19691e-06
4.48446e-06
-0.00447345
-5.06226e-06
0.000158818
-2.20161e-06
0.00175963
-4.36606e-08
-8.10942e-09
0.00771252
3.08431e-07
2.05974e-08
-1.24824e-08
-2.72282e-07
5.24331e-08
-1.54619e-07
-5.13248e-08
1.71264e-08
0.0103511
0.000514808
-7.21012e-08
2.53474e-07
-0.00283215
0.00228732
9.50195e-09
6.81697e-07
0.000438984
2.20244e-06
-3.66894e-09
-3.24096e-08
-0.00323781
-3.49657e-07
4.96361e-06
4.60061e-06
-3.2791e-08
-8.90869e-07
0.00786619
3.30588e-08
0.00316844
-8.60234e-05
-0.00250451
-1.4215e-07
2.39771e-08
-4.61435e-08
-1.44991e-08
-1.95566e-08
0.00145115
-9.78816e-06
-1.69258e-08
7.46963e-05
-8.52743e-06
2.23171e-08
-3.09207e-08
-1.93354e-08
-0.00299105
-0.00236349
2.21646e-05
-1.21775e-05
-4.18699e-08
0.00664252
0.00233975
7.5087e-09
-8.20144e-08
1.86941e-07
1.11115e-06
0.013981
0.00165779
6.72989e-09
-0.00567005
0.00197351
1.41706e-06
-1.11727e-08
-7.41146e-09
-1.12352e-08
-6.14277e-08
-2.00142e-07
-2.731e-08
2.06984e-05
0.000616672
4.03657e-08
-1.08435e-08
1.23144e-06
-3.26962e-08
-8.51421e-08
5.19558e-07
-0.00220594
-1.50846e-08
-9.84867e-07
-0.00147231
-3.79515e-06
-3.93593e-06
1.93647e-06
-7.93631e-07
3.79421e-07
-9.68655e-09
-1.76403e-08
-7.98509e-09
2.53312e-07
-0.000914576
5.17955e-06
-2.42213e-07
7.20315e-06
-1.69169e-08
-0.00212819
0.000666707
-2.34929e-09
-0.00569467
6.61086e-08
-1.48356e-07
3.30601e-06
-0.00981353
1.47453e-06
-2.42521e-07
7.17915e-08
3.15006e-05
4.06688e-08
-7.75117e-05
0.00719144
-2.15215e-08
4.47587e-06
0.000214312
7.26331e-08
-2.68878e-07
-0.00319802
4.1203e-06
-9.89962e-08
0.00271603
5.89819e-08
6.0877e-09
-0.000122855
-8.37697e-06
-0.00209957
-1.15502e-08
1.20619e-06
-1.57357e-06
5.3308e-08
4.58756e-06
5.45359e-07
-7.49745e-09
2.08564e-06
0.00307472
-0.000295262
-8.95656e-07
2.47972e-05
-1.74732e-08
-0.000553439
0.00101869
-1.05229e-05
-1.17252e-05
7.0266e-08
-0.00768441
5.70222e-08
-6.71844e-08
2.48373e-06
-2.14431e-07
-0.000276321
-0.00100136
-6.19012e-08
0.00163116
0.00649819
-0.0132677
4.42272e-07
5.04756e-06
1.47105e-08
-6.95022e-07
-1.59631e-07
1.1033e-08
-0.0137193
0.00874632
0.0103385
-0.000125786
1.84903e-05
-0.00455416
-0.0053034
-1.22598e-07
-4.32737e-07
0.00632219
3.50531e-06
3.85973e-08
1.77162e-08
0.00386498
2.43344e-05
-7.8546e-07
-3.45115e-08
-6.11364e-08
5.26236e-05
8.6514e-09
-2.06193e-06
-0.000217647
-1.35276e-07
-0.00114341
1.97459e-08
-0.00176298
1.05841e-05
-0.000123986
7.48825e-07
-0.00049181
3.66588e-07
-7.12552e-08
-2.36642e-07
-0.00256843
1.45084e-06
-0.00501254
5.14729e-08
-2.28372e-09
-6.98431e-06
-0.000343653
-6.72077e-08
1.02704e-06
-4.57255e-05
0.0031807
0.00142034
2.41245e-08
2.66337e-08
0.00163092
1.3375e-08
2.37142e-08
-6.33998e-07
-1.50042e-08
-3.2222e-08
2.03926e-08
1.28181e-08
-3.80566e-08
-9.55399e-09
-2.13117e-06
-3.52964e-07
-1.39336e-07
0.00178473
-0.00263867
-1.24057e-06
1.28092e-10
-4.38064e-08
2.9476e-05
-3.00315e-08
-3.49284e-08
2.2222e-08
-3.5442e-07
5.11501e-08
2.64444e-08
-5.33791e-07
-0.000107569
-0.00408816
4.19262e-08
3.10305e-05
9.58239e-05
-1.31065e-06
-6.03145e-06
-0.000276613
1.0041e-08
1.68636e-08
-7.27335e-05
-4.02582e-05
-7.89862e-08
0.00367474
1.8618e-05
-4.16772e-08
0.000593881
2.96653e-07
6.63316e-06
0.00823323
-0.00741029
-0.00436228
1.61419e-07
-1.21519e-08
-0.008448
1.01969e-06
-0.00764399
5.54866e-06
-0.000613543
-0.00212908
-2.50429e-07
1.22016e-06
-4.09157e-08
-1.85641e-05
7.30055e-06
-0.00656424
-5.63543e-08
6.81369e-08
-9.41347e-07
7.09939e-11
-0.000221795
-9.84778e-08
0.00370653
0.00412536
2.23475e-06
1.02189e-05
-0.00232673
5.64215e-08
3.33521e-08
-6.51431e-08
-0.00176985
-0.00330672
-1.53342e-07
-2.52325e-08
5.08844e-08
-1.46488e-09
4.97202e-06
5.76554e-08
-2.87362e-08
0.000565328
-1.18546e-07
-3.03794e-08
1.46728e-06
-0.00714091
0.0104137
0.000883593
-5.85084e-09
2.90243e-05
3.48578e-07
1.87885e-07
-5.14303e-07
0.0054577
-0.00244259
4.27684e-07
4.96621e-06
1.12261e-08
1.38145e-06
6.79939e-06
3.54664e-06
-1.82468e-05
2.81618e-08
1.23858e-05
9.2348e-08
-0.00417311
0.000767346
-3.30951e-08
-3.0947e-07
-6.8098e-09
-6.77963e-09
0.000901908
5.27135e-08
-3.11254e-08
-4.4391e-08
5.3045e-08
-1.39341e-08
-3.0677e-07
-4.44512e-08
-3.1185e-07
-2.54785e-08
-1.55943e-08
-0.00940474
-0.00291961
0.000344739
3.28386e-08
3.69213e-08
5.45435e-08
8.39828e-09
-1.37873e-10
-1.77081e-06
-2.30383e-08
-1.98907e-08
-3.88083e-08
-5.43473e-09
6.66483e-07
-3.68152e-08
0.0147701
0.014109
1.50072e-06
0.00692955
-4.4e-08
-0.00541865
7.33208e-05
-2.65749e-06
-1.61793e-08
-0.000273826
-3.45851e-08
-6.58108e-08
7.67627e-08
3.38387e-05
5.12264e-06
-2.555e-08
-9.02174e-06
5.68096e-07
2.38027e-08
7.06706e-05
-0.00241218
-1.3038e-06
3.17657e-08
1.03567e-06
-8.07085e-06
1.71287e-06
0.0134963
-2.83464e-08
1.59468e-07
-3.50852e-08
-1.43538e-06
3.0996e-06
-0.000423757
-1.61263e-06
-1.01608e-08
-0.000384051
-2.28916e-05
7.49618e-06
-1.29647e-08
-6.79235e-07
0.0134518
-1.02178e-07
-3.21173e-08
-2.30548e-06
-0.0174602
2.16486e-08
4.71151e-08
-8.39293e-09
-2.24755e-06
2.80715e-07
-0.0004941
6.75404e-08
1.95834e-07
3.71067e-07
0.00962818
-1.4172e-08
-2.14058e-08
1.3216e-08
9.17021e-07
2.45409e-09
-0.014502
0.00465578
-1.80911e-06
0.00453724
-4.04163e-08
-0.000173892
7.10769e-08
-1.05381e-08
4.75526e-05
-2.93661e-06
-1.63797e-06
0.00144925
-0.000452542
-2.01529e-06
-8.92793e-07
1.36672e-06
-3.16394e-09
0.000350352
3.48788e-08
-6.20368e-07
0.00158852
-9.35968e-08
-0.00449698
-0.00372014
-0.00189507
0.000355509
0.00148112
0.00575651
-0.00628625
2.25023e-06
-8.89986e-07
-5.27517e-06
-6.00678e-08
-1.20549e-08
-4.01273e-08
-0.0100606
-0.0629008
-0.00380422
-1.33255e-06
-7.85432e-07
0.00136764
-3.13576e-08
-1.15333e-05
-9.57207e-09
1.94493e-06
-2.08936e-08
7.46387e-09
1.07247e-06
1.25296e-06
-0.00157208
-1.16246e-06
4.77816e-07
-1.77258e-08
-2.78962e-06
0.0258573
5.84648e-08
-3.9641e-06
-1.81145e-05
1.37982e-08
1.04214e-06
-6.55304e-09
-0.00311796
2.10716e-07
7.77993e-05
7.13144e-08
-7.63233e-08
2.07477e-07
3.2129e-05
0.00123801
7.31599e-06
-0.00156132
-4.64972e-09
5.60445e-08
7.5355e-08
-2.01462e-08
-3.30917e-09
-4.51553e-08
0.000844971
0.00115667
4.36596e-06
-5.23138e-07
9.30805e-07
8.05401e-07
2.20172e-08
4.26777e-08
4.47478e-06
-0.00302767
-0.000494694
1.53109e-07
0.00231001
-4.21647e-09
1.93733e-06
-4.93579e-08
1.50788e-06
-2.84185e-06
-0.000130507
-0.00286439
1.08093e-08
5.60222e-08
-2.9997e-08
2.25492e-08
-5.0431e-08
1.52262e-08
-0.00377574
-2.6181e-08
3.23416e-07
-1.36003e-07
-1.87783e-06
-6.51957e-09
-0.000999684
0.00417196
0.00106455
5.12929e-08
-1.31696e-05
8.72991e-10
-0.00303069
-7.91002e-06
1.07041e-06
0.00155639
3.41339e-08
2.14728e-06
3.88831e-09
-3.77038e-07
4.8607e-07
-3.76878e-06
4.88101e-06
-0.000357783
-5.93226e-06
1.65895e-06
9.28724e-07
-1.41858e-07
-6.75321e-08
0.00157924
-1.38278e-07
-0.00264568
3.73728e-07
0.00125411
0.00254821
0.00228708
-2.87726e-07
-0.0111776
-4.56391e-07
1.73066e-08
5.95547e-08
-4.38222e-07
2.67701e-06
-3.60203e-08
-0.00119917
4.1333e-07
4.09914e-06
-1.25955e-08
9.65144e-07
0.00113604
-0.000362156
-0.00183583
2.07435e-08
1.10892e-05
-0.000478368
-0.00303117
-1.09857e-07
-3.10486e-06
-0.00267344
2.61594e-06
0.00867701
-2.05796e-07
-1.69067e-06
-7.71983e-07
4.52609e-08
-0.000571469
1.6322e-06
-5.79275e-08
-0.000586971
0.00245641
0.00932264
-1.99448e-06
3.43853e-06
-7.03939e-06
-1.69289e-08
3.53712e-06
3.71628e-08
-2.16699e-06
8.03064e-07
0.0190222
-0.00642191
4.74899e-05
-0.000392855
8.31679e-07
0.00236044
4.18506e-09
-1.9428e-05
-0.00110855
-0.00016619
-6.5804e-08
-5.88408e-07
-5.59547e-08
1.10091e-06
2.29287e-08
-1.44378e-08
0.00614887
-3.8609e-08
9.1149e-09
-2.30274e-06
-5.15743e-07
-2.08355e-08
-8.00509e-06
-0.00604446
6.59956e-07
5.83732e-08
1.59318e-08
5.93716e-07
-1.56797e-08
-3.16561e-08
-3.30633e-08
-1.34337e-08
0.00116728
8.79252e-08
-0.000147728
-1.08454e-06
1.4993e-08
4.59396e-09
0.000944319
-1.29862e-06
-0.00475316
8.13478e-06
-8.4753e-08
1.70486e-06
-3.37844e-08
3.52037e-07
-3.53142e-05
-0.00300249
2.18795e-05
4.97866e-08
8.83332e-08
-1.80315e-06
-0.00210651
0.00292276
-0.000480134
6.43536e-09
7.62532e-08
-1.49349e-08
-2.66061e-08
-8.38708e-06
-0.00261378
-3.96784e-08
0.00210125
4.84872e-09
1.71992e-08
8.15958e-06
2.63548e-08
-0.00755698
7.17208e-06
-0.000603757
5.2226e-08
2.45788e-06
1.68934e-06
-0.0528128
9.37407e-08
1.26153e-07
-3.65999e-06
-0.00324445
0.0013266
0.000240221
0.00116273
-7.86179e-07
4.5895e-07
-4.13114e-08
9.92838e-06
-0.0122187
1.98366e-06
-2.01943e-08
2.05864e-08
6.24999e-08
0.00928773
0.00386465
-1.0597e-06
-0.00381119
6.39363e-08
-2.55563e-08
-5.30326e-08
-1.49235e-05
-1.61554e-05
0.00505575
-7.78411e-09
-1.80324e-07
1.0334e-06
-0.00665948
7.18801e-09
-0.0022436
2.7745e-07
1.04185e-06
0.0197225
-9.3175e-09
-7.02655e-06
-0.00953499
-0.00244407
0.00699728
3.55099e-07
3.75337e-08
-1.0496e-06
-0.00288434
1.94381e-05
7.35152e-08
0.0047379
-0.000295072
1.03602e-08
-6.36971e-08
0.00475703
-4.67902e-09
-0.000472462
0.00770028
-8.3386e-08
1.02418e-08
-8.83546e-07
1.66883e-06
0.00827015
-7.77518e-09
1.61971e-06
4.85711e-07
-0.00699679
-0.0226863
-3.07364e-08
6.50406e-08
4.03399e-07
-1.10017e-06
1.27046e-08
5.29796e-08
-1.77769e-08
3.1876e-06
-1.10909e-07
1.26607e-05
-1.47575e-08
1.05599e-08
4.35991e-07
-3.5571e-07
-1.99073e-06
8.72872e-07
-0.00824586
-0.000605916
0.000793824
-3.34899e-08
1.13772e-08
0.00250114
1.2799e-06
2.00413e-06
0.00654447
1.81514e-06
-0.000253118
0.00623615
-1.28005e-08
0.00267894
-0.000305849
-1.86549e-07
1.9847e-08
-6.86938e-09
-1.26614e-08
0.00107947
0.00223355
-4.26004e-08
0.0205038
-0.00696671
-0.00646135
5.10564e-08
4.36579e-08
-0.00821094
-2.00604e-08
-7.08188e-08
-1.16007e-07
-6.60836e-08
-3.29664e-06
-3.99609e-08
-0.0183868
-0.00169841
-2.16496e-07
0.00976405
-6.28623e-06
-0.0799365
0.000616092
-4.10621e-08
-9.08853e-07
-3.045e-06
-8.67729e-05
-0.00392229
-0.000571952
2.56422e-08
-4.31441e-09
4.30362e-06
-7.40876e-09
-0.00522569
-0.00542429
-3.12861e-08
0.00890131
-2.6404e-08
-0.00303817
-8.30581e-07
0.00167006
-2.11701e-07
0.00268553
-0.0222095
-0.00775904
0.0029462
6.62869e-08
-0.00789775
-0.012541
-1.71573e-07
-0.00651968
-1.33407e-07
9.15782e-09
-2.27653e-08
-1.1205e-06
-7.99858e-07
-1.53719e-09
-4.90583e-08
-1.70221e-05
1.85137e-06
4.21635e-06
0.0216368
4.49591e-06
4.98542e-07
4.56081e-07
5.14402e-06
6.5624e-08
-2.86463e-07
-0.000109841
9.39637e-05
-0.00131088
6.39556e-07
6.28368e-08
-2.64279e-07
7.51916e-06
-4.62419e-07
-1.50782e-08
4.85444e-06
-0.007682
0.00108595
2.59869e-06
1.69026e-08
2.45444e-06
0.00285044
3.28445e-07
-1.08213e-08
6.47768e-07
-3.20835e-07
1.8235e-06
-2.52447e-09
0.00294828
5.26151e-09
-0.0379095
3.97887e-08
-0.000913364
-0.00706624
0.00756005
2.51872e-08
-5.19921e-07
6.69449e-08
-7.30756e-10
6.21184e-06
-0.00637233
-5.38374e-08
-6.23215e-08
-0.00717615
5.19909e-08
4.84176e-06
0.000494627
-1.00556e-06
-0.000135753
-6.72535e-08
0.000258194
6.23038e-07
-0.0572583
1.64403e-08
3.05285e-08
-0.000272788
1.53655e-08
0.00160736
-9.31656e-07
-1.97253e-06
-0.00801976
-2.83703e-07
-5.23787e-09
-1.18947e-07
-3.44577e-08
0.000431364
-0.0131303
-2.99948e-08
0.00340415
1.30858e-05
0.0115922
-8.51624e-08
-0.0010372
-0.000901047
-5.20508e-07
5.51824e-07
-4.39796e-08
0.0188915
1.30113e-09
-0.00398645
1.97101e-08
2.17153e-07
-4.98448e-07
2.13921e-08
-2.25568e-08
-5.2982e-06
-2.24309e-07
-6.15227e-08
0.00159815
-9.72909e-09
-3.12026e-06
1.37684e-07
-0.00273104
-1.40147e-05
8.24767e-09
-2.2418e-06
-4.90182e-08
-2.9903e-08
-8.92996e-07
0.00548791
-0.00191388
0.000214918
4.66988e-05
-1.63363e-08
1.12958e-07
1.8124e-07
-2.22521e-08
2.31192e-08
-0.00338994
-2.97013e-08
1.10038e-06
-5.40078e-07
4.04494e-07
0.0001118
-2.51622e-08
-1.59419e-08
-0.00026885
0.0136847
2.10139e-08
8.71079e-07
-1.22671e-07
-0.00550555
-2.00053e-08
-3.96916e-07
-1.31877e-05
-5.27588e-07
-0.000990672
-6.38396e-05
-5.13729e-08
-2.20704e-07
-6.80623e-06
-6.8471e-07
4.59128e-06
-2.88263e-06
0.000383618
-4.87291e-07
3.29414e-06
-3.07447e-06
-6.25997e-05
-5.9948e-07
-0.00377229
0.00323911
0.000166484
-0.0122506
1.84594e-08
-5.4957e-08
3.95996e-09
-0.00138808
-0.00353661
-0.0140743
-0.0023057
-1.40347e-09
-1.48449e-05
1.75111e-07
0.019352
8.6417e-09
1.52953e-06
3.93237e-06
3.75653e-07
-6.77568e-07
-4.84703e-07