/*--------------------------------*- C++ -*----------------------------------*\
| =========                 |                                                 |
| \\      /  F ield         | OpenFOAM: The Open Source CFD Toolbox           |
|  \\    /   O peration     | Version:  v2012                                 |
|   \\  /    A nd           | Website:  www.openfoam.com                      |
|    \\/     M anipulation  |                                                 |
\*---------------------------------------------------------------------------*/
FoamFile
{
    version     2.0;
    format      ascii;
    class       surfaceVectorField;
    location    "600";
    object      ddtCorrDdt0(Uf);
}
// * * * * * * * * * * * * * * * * * * * * * * * * * * * * * * * * * * * * * //

dimensions      [0 1 -2 0 0 0 0];


internalField   nonuniform List<vector> 
27882
(
(0.000214498 -0.00631961 -5.62835e-19)
(0.00109941 -0.00657347 6.97792e-19)
(0.000720354 -0.00537025 3.48959e-20)
(0.014679 -0.0375142 -1.67307e-19)
(0.0205555 -0.0376828 3.95306e-19)
(0.0173213 -0.0319712 1.45459e-18)
(2.28707e-06 4.67806e-06 1.10313e-19)
(3.986e-06 6.21798e-06 -4.78981e-19)
(1.14791e-05 8.19177e-06 -2.27514e-19)
(-0.000789921 -0.00741227 -9.30154e-19)
(-0.000695355 -0.00601084 1.18137e-18)
(-0.00167073 0.00728945 2.75143e-19)
(-0.000683533 0.00783585 1.86744e-19)
(-0.00191376 0.00832354 -2.23155e-19)
(-8.25628e-06 -1.09876e-05 1.90944e-19)
(-8.78574e-06 -1.57468e-05 9.25801e-20)
(-1.2648e-05 -1.30343e-05 1.34315e-20)
(-0.000220752 1.65561e-05 -1.54583e-19)
(-0.000224463 1.85714e-05 -1.08685e-19)
(-0.000222777 -2.51145e-06 7.19616e-19)
(-0.00158325 0.000642123 1.88e-19)
(-0.00174279 0.000592567 2.20238e-19)
(-0.00172817 0.000797164 7.67277e-19)
(-0.00258426 0.00668789 -2.47235e-19)
(-0.00154576 0.00639778 2.2208e-19)
(-0.00321235 0.00611771 4.33368e-19)
(-0.00380178 0.00538002 5.04702e-19)
(-0.00286226 0.00528804 -1.36851e-19)
(-0.00361632 -0.0394086 -1.22588e-18)
(0.00277132 -0.0344027 1.8528e-18)
(-0.00213334 -0.030955 1.63608e-18)
(-0.0630793 -0.0359857 1.86673e-18)
(-0.0559606 -0.0562098 3.36848e-18)
(-0.0716202 -0.0601439 1.01837e-18)
(-0.066163 0.0403661 -6.92939e-19)
(-0.0518375 0.0453192 5.55324e-20)
(-0.0667379 0.0540842 -2.86891e-19)
(-0.00124852 -0.000961257 -1.88475e-19)
(-0.00121505 -0.00105333 -1.62125e-18)
(-0.00113895 -0.000952685 1.37567e-18)
(-0.000213482 4.71422e-05 5.12324e-19)
(-0.000217204 3.19269e-05 1.14682e-18)
(-0.00021362 5.55638e-05 2.58257e-19)
(-0.000162329 6.26137e-05 1.49834e-19)
(-0.000158405 6.08766e-05 7.04883e-21)
(-0.000158209 6.58559e-05 -4.03284e-19)
(-0.0716975 -0.0162975 1.54007e-18)
(-0.0564925 -0.0135158 -2.40365e-18)
(-6.00874e-05 -5.13643e-05 -4.57862e-20)
(-6.08638e-05 -4.60782e-05 -5.46426e-21)
(-0.00021009 6.01487e-05 -3.10849e-19)
(-0.000212098 3.68311e-05 -3.72261e-19)
(0.00279526 0.0011565 -1.40095e-20)
(0.00322404 0.00125852 -1.33107e-19)
(0.00280733 0.0015651 1.91365e-20)
(0.0554282 -0.0642286 2.81821e-19)
(0.0474685 -0.0800999 -2.2073e-18)
(0.0432731 -0.0689723 1.20789e-18)
(0.0839929 -0.00230346 -1.31344e-17)
(0.0793281 0.000584431 6.20271e-18)
(0.0779514 -0.00333816 -5.5013e-18)
(-7.39034e-06 -6.61148e-06 -3.37655e-20)
(-3.75727e-06 -9.13882e-06 -4.90425e-20)
(3.94903e-06 6.0492e-06 6.08308e-20)
(6.82433e-06 6.81757e-06 2.37085e-19)
(5.55905e-06 9.13332e-06 9.97772e-20)
(0.0886702 -0.00548258 -1.56724e-18)
(0.0919376 -0.00137843 9.20935e-19)
(0.0644227 -0.0765836 1.28722e-18)
(0.0637267 -0.0724881 1.01123e-18)
(0.0684493 -0.0744314 1.80939e-18)
(-0.00572561 0.0681501 -5.49231e-18)
(0.0158205 0.103476 -8.44093e-18)
(-0.00525261 0.160096 1.76712e-18)
(-0.0806455 -0.0205543 2.217e-18)
(-0.0739329 -0.0236781 1.43335e-18)
(-0.081923 -0.0281322 3.09231e-18)
(0.00749393 -0.0331275 -6.61218e-19)
(0.00757297 -0.0356879 -1.91072e-18)
(0.00544505 -0.0339475 -8.65535e-19)
(0.031433 -0.0533635 -3.42656e-19)
(0.0365924 -0.0485305 1.80845e-18)
(0.0349974 -0.0411214 -1.11669e-19)
(-0.139691 0.600766 -5.11999e-18)
(-0.112639 0.524711 -1.90777e-18)
(-0.133445 0.602085 -1.53235e-17)
(-0.0224121 0.0394186 -4.55331e-18)
(-0.00644772 0.0012278 -4.87279e-18)
(-0.00141473 0.000651898 -6.50009e-19)
(-0.00146351 0.000510383 -1.66008e-18)
(0.109419 -0.0328321 -2.96427e-18)
(0.1114 -0.030163 2.0825e-18)
(0.112302 -0.0340944 1.35027e-17)
(0.000392538 0.00840975 2.79889e-19)
(0.00140139 0.00906973 4.34463e-19)
(0.000171388 0.00961275 -2.83987e-19)
(0.0223875 -0.0573836 -2.82892e-18)
(0.021352 -0.0691612 4.02498e-18)
(-0.0631871 0.0301111 3.3747e-19)
(-0.0748003 0.0347333 -4.82762e-19)
(0.000360981 0.00737994 -1.52465e-20)
(-0.0118553 -0.509827 6.71184e-19)
(-0.0206429 -0.498906 -1.84861e-18)
(-0.00912707 -0.528095 9.20367e-19)
(0.000384362 -0.000481229 1.05191e-20)
(0.000420657 -0.000396295 -9.3548e-20)
(0.000320568 -0.000417267 -5.49546e-21)
(-0.0284001 -0.115767 2.32391e-19)
(-0.0288018 -0.133734 2.92725e-19)
(-0.0235191 -0.138458 -5.60522e-19)
(-0.00567979 0.00422868 4.38175e-19)
(-0.00678671 0.00478646 4.39192e-19)
(-0.00555938 0.00522081 -3.5915e-19)
(-0.0625254 0.00151852 -3.2435e-19)
(-0.0598163 -0.0183549 1.43899e-19)
(-0.0614491 -0.0189796 -6.51183e-20)
(-0.000745145 0.00093233 -1.10926e-19)
(-0.00083987 0.000776065 -1.66994e-19)
(-0.00102323 0.000962307 3.33894e-20)
(-0.000115996 -1.47832e-07 -2.15969e-19)
(-0.000116349 2.57995e-06 6.3455e-20)
(-0.000114474 2.06322e-06 -4.57853e-20)
(-0.100543 0.497142 -5.06682e-18)
(-0.0383222 0.351402 8.60143e-18)
(-0.0658057 0.398115 -6.59009e-18)
(-0.0057995 0.00351332 5.17932e-20)
(-0.0049289 0.00395313 1.13849e-19)
(0.0014467 -0.0366997 1.63003e-18)
(-0.000650113 -0.0352489 2.74454e-18)
(-0.000689394 -0.0383183 2.26599e-19)
(-0.0185959 0.144253 5.12084e-18)
(-0.0287789 0.160375 -7.2062e-18)
(-0.0104029 0.142965 9.91047e-18)
(-0.00336988 -0.00488978 -3.24302e-19)
(-0.00273439 -0.00568688 1.71188e-19)
(-0.00255339 -0.00447218 -2.90899e-19)
(-0.0116164 -0.0427073 -6.02474e-19)
(-0.00598056 -0.0492957 -3.54781e-20)
(0.35687 -0.0202631 6.36957e-19)
(0.333665 -0.0411695 -1.35307e-19)
(0.338571 -0.030265 1.48343e-18)
(-0.004547 -0.00522139 5.88948e-19)
(-0.00374754 -0.0040548 -3.86722e-19)
(-0.000814276 -0.00363353 2.16594e-21)
(-0.00109422 -0.00329297 2.30695e-19)
(-0.00129969 -0.00387447 1.24108e-19)
(0.0476145 -0.0144752 -7.55385e-18)
(0.0488542 -0.0121528 -9.0534e-18)
(0.0504812 -0.0145613 -4.21717e-18)
(-0.0367644 0.0456416 -5.49073e-19)
(-0.0392302 0.0372146 1.2139e-18)
(0.000382559 0.000169056 9.89296e-20)
(0.000324449 0.00021667 -9.4949e-20)
(0.000394078 0.000265047 -8.61457e-20)
(0.0024132 0.00111198 2.50139e-20)
(0.00273654 0.000818387 -3.5372e-20)
(-0.00260065 -0.0336936 -1.86509e-19)
(-0.00476269 -0.0348206 -1.58771e-18)
(-0.00436948 -0.0321097 -1.26901e-18)
(0.000452433 0.000119062 4.27225e-19)
(0.000371297 8.51524e-05 3.0017e-19)
(-0.000128057 1.9434e-06 -1.35624e-19)
(-0.000124153 -2.38176e-06 -4.36584e-19)
(-0.000124228 1.58138e-06 -6.89761e-20)
(-0.000589814 0.00109991 1.16573e-19)
(-0.000516662 0.000883041 -1.53987e-19)
(0.0225279 0.0261711 -4.30886e-18)
(0.0161074 0.0511812 -1.41163e-17)
(-0.100979 -0.0730191 -8.50919e-19)
(-0.105592 -0.124272 1.57078e-18)
(-0.073386 -0.0635178 -6.04326e-19)
(-0.000132662 1.59713e-06 6.39084e-20)
(-0.000127673 1.34715e-06 -8.53838e-20)
(0.0232195 0.033002 -8.31524e-18)
(0.0215646 0.0358288 -7.13328e-18)
(0.000484022 0.0518192 -1.15916e-17)
(-5.90833e-05 -3.14044e-06 -1.63359e-19)
(-5.94306e-05 -3.76661e-07 -2.1445e-20)
(-5.60511e-05 -1.22437e-06 -1.16641e-19)
(1.43994e-05 -6.72126e-05 1.21983e-19)
(1.8725e-05 -7.1628e-05 2.79477e-19)
(2.68874e-05 -8.71812e-05 -9.45458e-20)
(-0.0770296 -0.0130442 1.09359e-18)
(-0.0859644 -0.0157349 7.95157e-19)
(-5.28974e-05 -7.70456e-05 1.58981e-21)
(-6.16812e-05 -5.94205e-05 -1.14004e-20)
(0.351453 -0.0160794 6.09623e-19)
(0.360171 -0.0122232 3.67252e-19)
(0.0732808 -0.0855084 2.99502e-19)
(0.0690428 -0.083762 1.87082e-18)
(0.0730748 -0.0805565 2.00752e-18)
(-0.000178091 0.000123511 2.39691e-19)
(-0.000181071 0.000130279 2.78133e-19)
(-0.000178446 0.000123286 2.05602e-20)
(0.00358975 0.00635196 -1.07297e-19)
(0.00288593 0.00619691 2.12391e-20)
(0.00324029 0.00562495 1.20789e-20)
(0.0331865 0.0375781 3.58739e-20)
(0.0294661 0.0408187 -3.3485e-19)
(0.028492 0.034857 -2.50511e-19)
(-0.145072 0.599501 1.04547e-17)
(-0.148667 0.618739 -1.70173e-18)
(0.0672626 -0.0332448 -9.72316e-19)
(0.0727005 -0.0345636 1.624e-18)
(0.0687049 -0.0359141 7.34638e-19)
(-0.0740119 0.0197733 1.58719e-19)
(-0.0613788 0.0230815 -1.66563e-18)
(-0.0701265 0.0438706 2.38819e-18)
(-0.00366277 0.00693435 -1.08882e-18)
(-0.0600929 0.0253918 -1.86247e-18)
(-0.0618018 0.0198647 1.79824e-18)
(0.0250667 -0.0196817 4.58678e-18)
(0.0255427 -0.0179356 3.79932e-18)
(0.0269709 -0.0195559 2.81357e-18)
(-0.00929527 -0.51494 1.5412e-17)
(-0.00587472 -0.475695 -1.64388e-18)
(-0.0773026 0.00175222 -2.78511e-19)
(-0.082521 0.0166628 -3.06974e-18)
(0.0108022 0.0231719 -5.11073e-20)
(0.0128014 0.0247852 -7.44715e-20)
(0.0103339 0.0259681 -2.91394e-19)
(-0.00237126 0.000287846 -7.77625e-21)
(-0.00207444 0.000563074 -1.79098e-19)
(-0.00251902 0.000712371 -8.2137e-20)
(0.0396807 -0.0102609 1.96606e-19)
(0.0417129 -0.0112595 3.59244e-18)
(0.0393734 -0.0126653 -9.57762e-19)
(0.000529759 -0.00242816 1.9656e-18)
(0.000455616 -0.00223002 5.09111e-18)
(0.00396133 0.0072077 2.16286e-19)
(0.00446459 0.00633248 -1.24676e-19)
(0.0374127 0.0507251 1.76629e-18)
(0.0295911 -0.00533781 3.7214e-18)
(0.0393906 -0.00788402 -1.29511e-17)
(0.0376605 -0.00961285 -9.33661e-19)
(0.221164 -0.0151753 -3.07864e-18)
(0.196906 -0.026432 3.16383e-19)
(0.184105 -0.0109204 -1.22949e-17)
(-0.000143388 1.05461e-05 -8.2401e-19)
(-0.000135184 9.60891e-06 -1.04019e-19)
(-0.000122234 1.25303e-05 9.62408e-19)
(0.0171025 -0.0125482 -2.86583e-19)
(0.0176428 -0.0113689 -4.79826e-19)
(0.0184591 -0.0129962 2.97372e-18)
(-0.008647 0.131555 3.46788e-17)
(-0.027712 0.149711 1.8678e-17)
(-0.00017875 0.000126541 -1.37116e-19)
(-0.000178673 0.000115398 -2.49219e-19)
(-5.10227e-05 -3.24239e-06 8.86128e-20)
(-5.05896e-05 2.38455e-07 1.76522e-19)
(-5.20794e-05 5.102e-06 -2.38326e-19)
(4.63928e-05 -0.000229664 1.69362e-20)
(2.46588e-05 -0.000207703 -7.40985e-21)
(1.84605e-05 -0.000218294 2.14237e-20)
(0.00179773 -0.0206309 -1.25783e-18)
(0.00239599 -0.0199616 -4.51341e-19)
(0.00278868 -0.021107 6.17095e-19)
(-0.0401693 0.052094 1.1136e-18)
(-0.045211 0.0262823 -2.04363e-18)
(-0.0269311 0.0305397 7.72581e-18)
(-0.000189057 -4.50885e-05 5.99912e-20)
(-0.000182167 -5.67211e-05 3.00444e-20)
(-0.000176774 -4.36576e-05 1.1324e-20)
(-0.130858 0.57508 -5.10686e-18)
(-0.122489 0.536549 1.64155e-17)
(0.00955203 0.00057004 5.05027e-19)
(0.00976581 0.00153142 -4.36246e-19)
(0.00873669 0.00113182 7.92365e-19)
(8.79012e-06 -4.70718e-05 3.35739e-20)
(9.69625e-06 -5.67642e-05 1.05936e-19)
(-4.96258e-05 -1.16913e-05 -1.50342e-21)
(-4.93349e-05 -7.87566e-06 -1.55073e-20)
(0.0210834 0.0341303 -1.0682e-17)
(0.0486466 0.0150394 1.71372e-19)
(0.0621291 -0.0584259 -2.10691e-18)
(0.0557449 -0.0514694 -5.92475e-19)
(0.00327895 -0.0352996 1.39267e-18)
(0.00355191 -0.0382957 2.11688e-19)
(0.236687 -0.00712908 -3.37517e-18)
(0.25302 -0.0184854 3.80859e-18)
(0.0834096 -0.0293719 1.3714e-18)
(0.0901188 -0.0289427 1.029e-18)
(0.0862488 -0.0361076 9.09527e-19)
(0.00397662 -0.110461 2.61044e-18)
(0.0183346 -0.119264 -3.35801e-18)
(0.0193819 -0.0993406 -7.25134e-19)
(-0.000174586 4.93096e-05 -1.44375e-19)
(-0.000169849 5.15696e-05 7.58311e-19)
(-0.000173058 4.31209e-05 -4.49103e-19)
(-0.0840505 -0.0263829 1.14272e-19)
(-0.125737 -0.106094 -2.95911e-19)
(-0.00654759 -0.00373374 -3.31921e-19)
(-0.00557984 -0.00420384 -6.39582e-19)
(-0.00545475 -0.00307125 1.62693e-19)
(6.75703e-06 1.59053e-06 -2.47201e-19)
(6.83954e-06 3.63237e-06 -1.73072e-19)
(-2.26454e-07 2.51983e-06 2.38249e-20)
(0.0102445 -0.000144774 6.84518e-20)
(0.00916179 -0.000405152 -1.11255e-18)
(-0.0357327 -0.0851859 3.90014e-18)
(-0.0278115 -0.09799 4.20283e-18)
(-0.0505909 -0.083459 2.39366e-18)
(0.000275963 -0.0214052 9.84104e-19)
(0.00037146 -0.0195586 2.37515e-18)
(0.000283391 -0.000165952 -2.77732e-19)
(0.000328169 -0.000161896 -2.9529e-19)
(0.00027127 -0.000138484 -7.50199e-20)
(0.0145787 -0.124863 -1.31441e-17)
(0.0123848 -0.145498 4.29284e-19)
(0.0337086 -0.135456 -9.37369e-18)
(-0.00265102 -0.000807403 2.73071e-19)
(-0.00296698 -0.000418104 3.60305e-19)
(-0.00324133 -0.00092022 -5.89644e-20)
(-1.12369e-05 1.69528e-05 -2.90011e-19)
(-1.79606e-05 1.55989e-05 -2.81591e-19)
(-1.25986e-05 2.22847e-05 -3.41782e-19)
(0.06651 -0.0294489 -1.70895e-18)
(0.0589608 -0.0305027 -4.34993e-19)
(-0.00266255 -1.77537e-05 -2.40678e-19)
(-0.00215628 -3.66927e-05 8.62125e-20)
(4.92456e-05 -3.68042e-05 6.76618e-20)
(6.18277e-05 -3.05147e-05 7.14611e-20)
(5.00984e-05 -2.50871e-05 1.1211e-19)
(-0.0225824 0.215604 -4.39628e-18)
(-0.0244923 0.215987 -1.30162e-17)
(-0.0231051 0.215844 -6.20054e-18)
(-0.000429855 -0.00392095 1.37035e-19)
(-0.000451139 -0.00334063 -2.30909e-19)
(-0.000626204 0.00038008 -6.48428e-20)
(-0.000584266 0.000495447 -1.14503e-19)
(-0.000482764 0.000391559 -1.12627e-19)
(4.84045e-05 -4.56488e-05 -1.36577e-19)
(4.04927e-05 -4.1652e-05 7.13405e-20)
(0.0229505 -0.0568078 -2.52365e-20)
(0.0217295 -0.0531361 1.30391e-18)
(0.0194214 -0.056785 -3.52002e-19)
(-0.011566 0.173845 -6.09818e-18)
(-0.0132812 0.175203 -1.1229e-17)
(-0.000579612 -0.0325431 1.38817e-18)
(-0.000128248 5.08076e-06 1.00825e-19)
(-0.000125844 3.35648e-06 2.22751e-21)
(-0.000121793 9.21454e-06 1.07715e-19)
(-0.00741568 0.000585071 -2.62924e-19)
(-0.00745256 0.00121343 6.98005e-19)
(-0.00809909 0.000884896 -2.39249e-19)
(0.0634128 0.0192899 7.72413e-18)
(0.0536848 0.0200458 -1.12569e-17)
(0.0648546 0.00524188 6.98711e-18)
(0.000479638 -0.000559283 1.12616e-21)
(0.000352029 -0.000561759 -1.04954e-20)
(-6.30354e-05 4.35309e-06 -3.11497e-20)
(-6.20585e-05 6.25007e-06 4.09874e-20)
(-6.74721e-05 6.88631e-06 1.05622e-19)
(-0.0133149 -0.0296925 2.50019e-18)
(-0.00268342 -0.0353477 -1.85946e-18)
(-0.0144682 -0.0526872 -2.70713e-18)
(-0.00180061 -0.000664066 1.694e-19)
(-0.00222435 -0.000690295 1.50936e-19)
(-0.0019747 -0.00035622 5.9339e-19)
(-0.0429919 -0.0746212 -2.44131e-18)
(-0.04587 -0.0810558 2.20695e-18)
(-0.0502143 -0.0737983 6.68837e-18)
(0.0244352 -0.0216999 -2.96905e-18)
(0.0231513 -0.020016 -1.12665e-17)
(-0.00759476 -0.00285838 -2.79939e-19)
(-0.00785291 -0.00419941 2.64356e-19)
(-0.0430732 -0.145562 -2.40018e-18)
(-0.0343736 -0.165557 1.92985e-18)
(-0.0344166 -0.156152 -1.29075e-18)
(0.00280414 -0.0135809 -3.34165e-19)
(0.00366849 -0.0129585 3.12728e-18)
(0.00383078 -0.0144151 3.8342e-19)
(0.0757541 -0.0330266 1.17731e-18)
(0.0831333 -0.0207879 -1.62423e-19)
(-0.0237625 0.215234 9.87397e-18)
(-0.0228737 0.213626 6.20129e-18)
(0.0101159 -0.00864254 -8.06478e-18)
(0.0102045 -0.00777975 -5.25837e-18)
(0.0110441 -0.00850969 -2.10022e-18)
(0.019654 0.0336637 -2.72758e-17)
(0.00163407 0.048721 -1.18527e-17)
(0.0207605 -0.0502444 -1.5326e-19)
(0.0174156 -0.0495581 -5.79815e-19)
(0.0198488 -0.0467258 -1.31476e-18)
(0.00866888 -0.0371856 2.38445e-18)
(0.00667165 -0.0305833 -2.59952e-19)
(0.18538 -0.139814 1.29365e-18)
(0.178208 -0.137632 3.03441e-19)
(0.2071 -0.108321 1.35912e-18)
(-0.00139291 0.167213 4.2042e-18)
(0.0013174 0.171809 -4.807e-18)
(0.0103854 0.162086 7.56693e-18)
(-0.0151784 0.202149 1.11996e-17)
(-0.0169306 0.198995 -2.09123e-18)
(-0.0201553 0.207342 -3.90991e-17)
(-0.000270237 -0.000196201 2.2887e-18)
(-0.000273405 -0.000202504 4.12948e-19)
(-0.000287284 -0.000205947 -2.87678e-19)
(0.00239322 0.00889659 5.95867e-19)
(0.00286495 0.00770029 5.6303e-21)
(0.00378212 0.00876084 2.22703e-19)
(-0.0238613 -0.0926194 6.8757e-19)
(-0.0294453 -0.0913355 1.12544e-18)
(0.160048 -0.0333723 4.71735e-19)
(0.14475 -0.0225596 -8.95077e-19)
(0.0168219 -0.0138487 -4.33638e-18)
(0.0159243 -0.0125115 1.53094e-18)
(0.0254423 -0.0594589 -1.75985e-18)
(0.0262552 -0.0557318 -3.06812e-18)
(0.0178303 0.0211934 -1.06947e-19)
(0.0207534 0.0226514 -8.38393e-20)
(0.0202048 0.019363 8.8106e-20)
(0.00812086 -0.0460712 1.18456e-20)
(-0.14208 -0.347233 7.54169e-18)
(-0.180765 -0.386446 -6.77581e-18)
(-0.206969 -0.388612 1.36678e-17)
(0.000123531 -2.2598e-05 -1.02096e-19)
(0.000140911 -1.47858e-05 -5.04132e-19)
(0.000116749 -1.91791e-05 -4.10159e-19)
(-0.0576996 0.215798 1.36498e-17)
(-0.0747885 0.245026 -6.68206e-18)
(-0.0761468 0.257283 -3.18103e-18)
(0.0186396 0.0327368 -1.36517e-17)
(0.0391485 0.0155789 -2.41319e-18)
(0.0891122 0.124374 -4.7513e-18)
(0.161483 -0.0137145 9.60747e-19)
(0.132592 0.0118591 -4.83972e-18)
(0.000736052 -0.000230486 -9.13853e-19)
(0.000637294 -0.000290625 3.55972e-19)
(0.000761209 -0.000356261 -1.01079e-19)
(0.000126388 -2.52231e-05 5.05522e-19)
(0.000108355 -2.79222e-05 6.5764e-19)
(0.0420464 -0.220829 3.11503e-18)
(0.00294308 -0.258037 -2.05552e-18)
(0.0658538 -0.216301 3.91935e-18)
(-0.00736821 0.169851 7.77039e-18)
(-0.0119369 0.180098 6.78177e-18)
(-0.0487164 -0.0793014 3.57378e-18)
(-0.0512001 -0.11364 -2.5913e-18)
(-0.0396001 -0.107518 -1.66854e-18)
(-0.0244101 0.232563 7.09671e-18)
(-0.0160345 0.22518 8.12373e-19)
(-0.022704 0.222213 2.6347e-18)
(1.2609e-06 3.76715e-06 6.87485e-19)
(-5.00716e-06 3.45444e-06 2.13369e-19)
(0.00767641 -0.0378957 -1.36461e-18)
(0.00574495 -0.0394754 -8.47999e-19)
(0.00827589 -0.0407434 3.92432e-19)
(-0.00209988 -0.120192 -6.79956e-19)
(-0.00585591 -0.120222 2.20838e-19)
(0.0983127 -0.0259243 1.07319e-19)
(0.103316 -0.0096974 8.37273e-19)
(-8.5198e-05 0.0001535 2.59506e-19)
(-8.44123e-05 0.000149202 1.64893e-19)
(-7.23265e-05 0.000165285 6.73653e-20)
(-0.000173824 0.000127115 -8.92832e-20)
(-0.000177189 0.000132595 -7.61273e-19)
(0.0600271 -0.0618354 2.1851e-18)
(0.0633959 -0.0602292 2.70068e-18)
(0.0636954 -0.0647328 -3.67525e-18)
(0.105047 -0.0357979 -2.41928e-18)
(0.100985 -0.0311217 -7.65701e-19)
(-0.000313886 -0.000578179 -2.98133e-18)
(-0.000288978 -0.000536985 -7.71805e-19)
(-1.07179e-05 1.16119e-05 -1.51524e-19)
(-8.14544e-06 -1.96848e-06 -5.25284e-20)
(-9.26148e-06 8.58518e-07 -4.13532e-20)
(0.00117406 -0.00348051 5.6624e-20)
(0.00102098 -0.00303479 1.01253e-19)
(0.000683954 -0.00338477 3.32384e-19)
(0.0450896 -0.0146706 -2.31023e-18)
(0.046337 -0.0170394 -5.72963e-18)
(-0.000282115 -0.000919676 5.63075e-18)
(-0.00027612 -0.000999394 -2.37612e-19)
(0.125254 -0.216098 1.11828e-18)
(0.129505 -0.207874 7.36348e-19)
(0.0872122 -0.25123 -9.40033e-19)
(-0.000154001 -0.000152224 2.45137e-19)
(-0.000145537 -0.000146905 1.73836e-18)
(-0.000154506 -0.00015698 1.19272e-18)
(0.0431196 -0.0408426 2.34897e-20)
(0.0403839 -0.0513741 -4.15415e-19)
(0.0036097 -0.0128144 -4.09509e-19)
(0.0046948 -0.0119164 -8.83799e-20)
(0.0051112 -0.0137717 -5.93209e-19)
(0.00821287 0.116785 5.32518e-18)
(-0.000581228 0.123489 2.51317e-17)
(0.215028 -0.0304642 1.86284e-20)
(0.201078 -0.0394762 4.35082e-18)
(0.203858 -0.0507191 -4.37698e-19)
(-0.0108139 0.194638 1.47813e-17)
(-0.014817 0.207412 -3.0603e-17)
(-0.000159841 -0.000158354 -2.67231e-19)
(-0.000154943 -0.000151597 -1.08293e-18)
(-0.0454145 -0.00800942 6.1197e-19)
(-0.0457775 -0.0122707 -7.22365e-20)
(-0.0492364 -0.00805023 3.23966e-18)
(0.0913503 -0.0372933 1.6735e-19)
(0.0902616 -0.039954 -5.28435e-21)
(0.0935774 -0.0371453 1.07473e-18)
(2.52761e-06 4.44167e-05 8.84259e-20)
(5.09428e-06 3.71766e-05 -1.26388e-19)
(4.44515e-06 3.75384e-05 2.68218e-20)
(-0.000397788 -0.000926267 -1.33203e-18)
(-0.000333526 -0.000888353 5.53654e-18)
(-0.000377703 -0.000845958 1.41317e-18)
(-0.0498971 -0.0874156 5.78862e-19)
(-0.0551875 -0.094387 4.84224e-19)
(-0.058573 -0.0865426 5.73506e-18)
(-0.00026578 -0.000190651 -2.98091e-19)
(-0.000247929 -0.000180423 -2.36144e-19)
(0.0203751 0.103391 -9.36164e-18)
(0.0175589 0.108717 -3.09134e-17)
(5.39829e-06 -1.06744e-05 1.07793e-19)
(2.42747e-06 -1.41474e-05 2.15839e-19)
(1.38914e-06 -1.02515e-05 -6.60055e-20)
(-0.00239816 -0.000385166 -1.85773e-20)
(-0.00198811 -0.000334236 3.50298e-21)
(-0.00225087 3.53604e-06 -2.0814e-19)
(0.0258595 -0.0627743 -2.34316e-18)
(0.02893 -0.0615083 -2.11241e-18)
(0.0858861 0.0334682 1.05631e-19)
(0.0782022 0.0337203 -1.85448e-19)
(0.083208 0.0260319 -3.35361e-19)
(-0.000157417 5.0936e-05 -7.98252e-20)
(-0.000153308 4.899e-05 -6.77366e-21)
(-0.000157208 4.64382e-05 4.4527e-19)
(-0.000177002 4.55002e-05 -2.52492e-19)
(-0.000174867 5.42062e-05 2.68733e-19)
(-0.0286191 0.183947 2.90984e-18)
(-0.0334296 0.176404 5.99677e-18)
(8.65283e-05 0.000115082 -4.83109e-19)
(5.80172e-05 0.000135326 1.43756e-19)
(0.000119389 0.000160734 1.31344e-19)
(0.00223867 0.0102102 1.16618e-18)
(-0.0130102 0.169455 1.15213e-17)
(-0.013078 0.174628 4.88659e-18)
(1.78645e-05 -3.88405e-06 -3.28306e-19)
(1.83967e-05 -2.44288e-06 -6.61457e-20)
(2.37969e-05 -5.35123e-06 -5.75887e-20)
(0.0167728 -0.0153845 -3.70977e-19)
(0.0165901 -0.0167974 2.13128e-18)
(0.0181984 -0.0157082 3.54379e-18)
(-0.00254053 -0.000889358 2.49808e-19)
(-0.00289563 -0.00047713 -3.69945e-19)
(-0.000568124 -0.00158033 2.94916e-19)
(-0.000724269 -0.00133684 1.52123e-19)
(-0.000455026 -0.00131008 2.33042e-19)
(0.00189137 0.000548995 3.54608e-20)
(0.00202416 0.000790404 -2.50694e-20)
(0.00218964 0.000553 -2.44198e-21)
(6.75221e-05 -0.000252963 2.17635e-20)
(7.37704e-05 -0.000231369 2.96618e-20)
(-0.000169197 4.92063e-06 -1.21587e-19)
(-0.000168895 7.0313e-06 -4.68447e-20)
(-0.000168746 2.64001e-06 3.4792e-20)
(0.0154418 -0.015074 -3.1391e-18)
(-9.80722e-06 -2.03841e-05 -2.26672e-20)
(-4.86039e-06 -1.78206e-05 -7.41667e-20)
(-0.018735 -0.154148 1.82867e-18)
(-0.026974 -0.141359 6.95759e-19)
(-0.0165056 -0.145208 -3.42785e-18)
(0.0911178 -0.0336078 -8.38115e-19)
(0.0881278 -0.0360584 4.64442e-20)
(6.56199e-05 -0.000488719 2.30663e-20)
(5.49247e-05 -0.000379221 -4.09003e-20)
(-5.66976e-05 -0.000402755 2.17631e-19)
(0.00204321 -0.0142622 -4.59569e-19)
(0.00201723 -0.0130414 1.59988e-18)
(0.026933 -0.0670124 8.35063e-19)
(0.0223359 -0.064824 1.03396e-18)
(0.0921295 0.0339832 -1.34193e-18)
(0.0862201 0.04184 -1.41851e-19)
(0.0236804 -0.0260144 1.4697e-18)
(0.0252195 -0.0406168 -7.83081e-20)
(0.0296012 -0.025364 -1.49739e-19)
(0.0367785 0.0340338 -3.95419e-19)
(0.0389391 0.0398228 1.1669e-20)
(0.03677 -0.00109855 1.13703e-17)
(0.0382497 -0.00231624 -6.34134e-18)
(0.0387323 -0.000118514 -4.30325e-18)
(-0.0688639 -0.301579 -6.24515e-18)
(-0.0970336 -0.304012 -3.50199e-19)
(8.32133e-05 0.000106667 -5.43282e-19)
(5.47725e-05 9.85935e-05 -3.59222e-19)
(0.0655651 -0.0816354 -6.05412e-19)
(0.060394 -0.0790439 6.02253e-19)
(0.00991911 -0.0096038 3.51446e-18)
(0.0092543 -0.00880955 3.12071e-18)
(0.103357 -0.0265977 9.13862e-19)
(0.0925475 -0.0367589 -1.40265e-18)
(-6.40484e-05 2.95062e-06 2.06665e-20)
(-6.46279e-05 3.16164e-06 -4.71312e-20)
(-0.000139865 -3.12173e-05 -8.36052e-20)
(-0.000141065 -3.1833e-05 3.5828e-20)
(-0.000140247 -3.32015e-05 -6.99801e-20)
(4.84665e-05 -0.000625937 1.2328e-19)
(0.000192855 -0.000563352 1.38579e-19)
(0.000668238 0.059186 1.23164e-18)
(-0.00390153 0.0638298 1.48623e-19)
(0.00346272 0.0654074 8.55849e-19)
(-0.0333744 0.172858 1.42937e-18)
(-0.0340274 0.185641 1.47787e-18)
(-0.0241886 0.170255 1.93294e-18)
(-0.0603246 -0.102585 8.85964e-19)
(-0.0655045 -0.112861 7.58751e-18)
(-0.0714341 -0.103084 3.88281e-18)
(-0.000679974 0.000157722 -1.2001e-18)
(-0.000629914 0.000231867 3.18596e-19)
(-0.000614796 0.000134199 1.80746e-19)
(-0.000180345 4.07194e-05 -2.39046e-19)
(-0.000181212 5.06752e-05 3.15893e-19)
(-0.000185155 3.55435e-05 2.54141e-19)
(-0.00156438 0.0540537 -1.23283e-18)
(0.00481546 0.0550652 2.00998e-19)
(-0.0401809 -0.0692159 -9.47427e-18)
(-0.0370572 -0.0626457 -1.53517e-18)
(-0.0435803 -0.0615898 -2.56278e-18)
(-3.55868e-06 -1.20585e-06 1.20161e-20)
(-2.03719e-06 -2.0098e-06 -9.4223e-20)
(-3.74575e-06 -1.01325e-06 2.60405e-20)
(0.160981 -0.173394 1.44369e-19)
(0.191198 -0.141347 1.91361e-18)
(0.00371846 -0.105743 -1.28467e-18)
(0.00967953 -0.108228 -1.80624e-19)
(0.00807015 -0.101111 1.16746e-19)
(-0.000131899 -2.98405e-05 9.05618e-20)
(-0.000130376 -3.0504e-05 1.15892e-19)
(-0.000132389 -3.1147e-05 3.55291e-19)
(-6.51477e-05 2.95795e-05 -7.04336e-20)
(-6.44673e-05 3.48688e-05 -1.83949e-19)
(-6.27981e-05 4.44567e-05 -9.49033e-20)
(0.00171097 -0.000432742 -4.45089e-20)
(0.00149191 -0.00056464 -3.67934e-19)
(0.00142966 -0.000315662 2.72921e-19)
(-0.000182348 -4.29091e-05 -3.72673e-21)
(-0.000187402 -3.94503e-05 4.25125e-21)
(-0.0327934 0.243046 -1.54031e-17)
(-0.032497 0.235226 -8.6907e-18)
(-0.000903973 0.000308302 3.41887e-19)
(-0.00103198 0.000237527 1.34727e-20)
(-0.000836691 0.000176139 9.85529e-20)
(0.0330525 -0.0307307 3.56565e-18)
(0.0378502 -0.0277303 -4.45093e-19)
(0.0339958 -0.0364837 -1.00944e-18)
(3.47663e-05 -0.000776756 -2.01799e-19)
(-0.000112581 -0.000654921 2.55903e-20)
(-2.40904e-05 -5.22549e-06 -8.61525e-22)
(-2.44559e-05 -8.08553e-06 -1.54308e-20)
(-1.97939e-05 -4.92303e-06 9.81802e-21)
(-0.0220292 -0.116468 1.3349e-19)
(-0.0447069 -0.125901 -1.89118e-18)
(-0.0318506 -0.127843 -5.44007e-18)
(0.000693126 -0.000137459 -3.87609e-19)
(0.000647547 -5.01038e-05 5.49794e-19)
(0.000568572 -0.000118794 4.70529e-19)
(0.0736046 -0.0898419 -2.68409e-18)
(0.0770753 -0.0864913 -1.25138e-18)
(-0.000173543 -9.63793e-06 -5.16536e-20)
(-0.000170362 -7.90464e-06 3.47804e-19)
(-0.000173628 -4.38005e-06 5.08923e-19)
(0.0134613 0.118777 1.33611e-18)
(0.00124233 0.113617 -4.29176e-18)
(-0.00458474 -0.00444127 -6.75441e-19)
(-0.00534997 -0.0053287 3.83181e-19)
(7.29377e-05 -3.32821e-05 -1.05156e-19)
(6.97335e-05 -2.34674e-05 6.31631e-19)
(-0.000132024 -3.01815e-05 -2.26047e-20)
(-0.000131251 -2.90856e-05 7.61625e-20)
(-0.0415864 -0.00861002 -6.52891e-19)
(-0.0442768 -0.00435354 -2.79488e-18)
(-0.193931 0.219861 5.41597e-18)
(-0.205157 0.201264 -7.0961e-18)
(-0.16662 0.160613 -2.0618e-18)
(-0.176712 0.234583 4.47458e-18)
(-0.21766 0.281707 2.78323e-18)
(8.42168e-05 -3.33394e-05 -4.59541e-19)
(7.32569e-05 -4.05922e-05 -3.35607e-19)
(-0.0372354 -0.0748391 -2.35916e-18)
(-0.000278229 -0.000211771 1.1113e-18)
(-0.00026715 -0.000198909 7.70438e-19)
(-0.000436471 9.5337e-05 -7.16774e-21)
(-0.000425426 0.000135688 6.9474e-20)
(-0.000478802 0.000124615 -5.17677e-20)
(-0.0283007 -0.15722 1.75361e-18)
(-0.0070172 -0.151872 1.04794e-17)
(-0.0257747 -0.13806 -3.11917e-18)
(0.0980067 -0.0909832 8.38127e-19)
(0.0928833 -0.088451 1.9174e-18)
(0.0934293 -0.0938437 2.2163e-18)
(-0.000445361 5.93706e-05 1.89917e-19)
(-0.00040517 7.2816e-05 -8.25535e-21)
(6.76195e-05 9.04168e-05 -2.69818e-19)
(7.18692e-05 9.5945e-05 -2.62405e-19)
(9.23266e-05 0.00010201 -1.04163e-19)
(0.00252306 4.68062e-05 -2.33579e-20)
(0.00306885 3.72948e-05 6.76367e-20)
(0.00283321 0.000597705 -6.37217e-21)
(0.00174819 0.000376547 -3.25899e-20)
(0.0016256 0.000568999 5.06318e-20)
(-0.00525698 -0.00202142 9.74981e-19)
(-0.00488006 -0.00198876 2.05826e-18)
(-0.00502259 -0.00240881 1.04628e-18)
(-1.48008e-05 -2.27e-05 -3.91453e-20)
(-1.09697e-05 -2.57038e-05 -1.68607e-20)
(-0.000409632 -0.00184628 2.05139e-19)
(-0.000748645 -0.00191179 -1.61546e-19)
(-0.00126244 -0.000882616 -8.12897e-19)
(-0.00133816 -0.000974823 -1.06373e-18)
(-6.63966e-05 2.53385e-05 -4.4173e-20)
(-6.70669e-05 1.58364e-05 1.09452e-19)
(-0.000123439 5.39302e-06 8.80194e-20)
(-0.000114199 9.99069e-06 2.05161e-20)
(-0.000116131 5.88432e-06 -1.25151e-20)
(-0.000186041 -8.26198e-06 -4.19832e-19)
(-0.000185318 8.97984e-06 7.7336e-19)
(-0.00018359 -4.94866e-06 1.1067e-18)
(0.0202778 0.0306126 8.7828e-18)
(0.0362173 0.013927 -2.85044e-19)
(0.0228876 0.0293208 1.18212e-17)
(-0.000217757 8.47337e-06 -7.4635e-20)
(6.02115e-05 9.07336e-05 2.17086e-20)
(4.60873e-05 8.12845e-05 -4.25876e-20)
(-4.90474e-05 -4.57375e-05 -8.5351e-21)
(-4.54387e-05 -5.53686e-05 -1.94916e-20)
(-4.81651e-05 -4.43676e-05 -1.38345e-20)
(-0.0320959 -0.0641937 1.78653e-18)
(-0.0343932 -0.058268 2.3712e-18)
(-5.32588e-05 -2.00644e-05 -1.25353e-19)
(-5.45498e-05 -2.68076e-05 -1.29016e-19)
(-5.07833e-05 -1.94992e-05 9.11463e-20)
(-5.24014e-05 -2.00347e-05 -2.95938e-20)
(-2.4039e-06 -9.11144e-07 1.24258e-19)
(-3.10225e-06 -2.31017e-07 4.45645e-20)
(-0.000461596 -0.00060368 -3.23015e-19)
(-0.000441506 -0.000637426 3.56754e-18)
(-0.000494779 -0.000653795 -2.30516e-18)
(0.000261852 0.000178342 -4.80533e-19)
(0.000274845 0.00026837 -2.23104e-19)
(6.88251e-06 7.55449e-06 4.95311e-19)
(7.86336e-06 7.11737e-06 8.77857e-20)
(1.08763e-05 1.05729e-05 9.20591e-20)
(1.5049e-05 5.03673e-06 1.25603e-19)
(1.40256e-05 3.38116e-06 -8.35923e-20)
(2.03805e-05 6.47289e-06 -5.60409e-20)
(0.00244785 -0.000727398 -2.25149e-20)
(0.00285586 -0.000904408 1.84565e-19)
(0.00278253 -0.000392261 1.74315e-19)
(0.0213987 -0.00735116 3.91568e-19)
(0.0185979 -0.028252 7.37478e-19)
(-0.000147786 1.14227e-05 -2.985e-19)
(-0.000149893 7.85114e-06 -1.65342e-19)
(8.48698e-07 5.46805e-06 -1.67397e-19)
(1.11082e-06 3.84594e-06 -2.39125e-19)
(-0.0211023 0.213413 -1.39232e-18)
(-0.0198778 0.21554 -7.97323e-18)
(-0.0206312 0.213271 -4.5837e-18)
(-0.000955094 -0.00227545 -1.61238e-18)
(-0.000783943 -0.00217192 2.26562e-18)
(-0.000946089 -0.00212085 6.18491e-19)
(1.87195e-05 1.69865e-05 3.12182e-19)
(2.5191e-05 1.84208e-05 -4.74805e-19)
(1.90102e-05 1.32167e-05 5.18068e-20)
(1.30899e-05 1.49562e-05 7.34386e-20)
(1.6847e-05 2.11527e-05 3.1517e-19)
(-0.000106282 -0.393035 -1.07142e-17)
(-0.00879038 -0.350804 -7.01292e-18)
(-0.0111918 -0.439376 2.13229e-18)
(-0.0355532 -0.00245954 4.37904e-19)
(-0.0321287 -0.00882318 -2.47809e-19)
(-0.0299438 -0.00226805 6.97399e-20)
(-1.06976e-05 2.22836e-05 7.83151e-20)
(-1.26229e-05 2.01086e-05 1.59292e-19)
(0.000666368 -0.0129744 -3.16352e-20)
(0.000713405 -0.0111043 -2.08488e-19)
(-0.00114553 -0.0117768 -2.33608e-19)
(0.0675882 -0.049483 -1.4163e-20)
(0.0685466 -0.0592772 -3.03284e-19)
(-0.000703401 0.00133005 7.07936e-19)
(-0.000395224 0.0012223 5.59038e-19)
(-0.0250243 0.0453441 -2.29756e-19)
(-0.0330312 0.055114 2.3596e-19)
(-0.00018456 -2.39347e-05 -9.10316e-19)
(-0.000187768 -1.23753e-05 -1.11529e-18)
(-0.152828 0.238143 -4.52115e-19)
(-0.180771 0.305984 1.79354e-18)
(-0.130731 0.242512 -2.05566e-18)
(-0.0420922 -0.0871793 -5.73028e-18)