/*--------------------------------*- C++ -*----------------------------------*\
| =========                 |                                                 |
| \\      /  F ield         | OpenFOAM: The Open Source CFD Toolbox           |
|  \\    /   O peration     | Version:  v2012                                 |
|   \\  /    A nd           | Website:  www.openfoam.com                      |
|    \\/     M anipulation  |                                                 |
\*---------------------------------------------------------------------------*/
FoamFile
{
    version     2.0;
    format      ascii;
    class       volScalarField;
    location    "100";
    object      p;
}
// * * * * * * * * * * * * * * * * * * * * * * * * * * * * * * * * * * * * * //

dimensions      [0 2 -2 0 0 0 0];


internalField   nonuniform List<scalar> 
18355
(
-0.0966217
-0.235316
0.00812265
-0.0122409
-0.0414408
-0.160406
0.00310807
-0.168358
0.0813622
-0.296216
-0.0196403
-0.380211
-0.215384
0.0329884
-0.0171228
0.0257293
-0.464886
-0.0107143
0.00757883
-0.176134
0.0446544
0.0420774
-0.344486
-0.040585
-0.0524352
0.0177131
0.0250612
0.0769627
-0.174842
0.0218078
-0.0333729
-0.0486422
-0.010649
-0.00766286
-0.140989
-0.101136
0.0657445
-0.213995
0.0754728
-0.0201415
0.0336528
0.0221428
0.00829662
-0.31824
-0.0143537
-0.224153
-0.152463
0.0831035
-0.13806
-0.00986854
-0.017342
-0.00866908
0.0169572
-0.285236
0.0117639
0.00229093
-0.111388
-0.0167165
0.405785
-0.237457
-0.00934438
-0.161123
-0.0121332
-0.0196195
-0.379144
-0.0940472
-0.146676
0.152534
0.0247659
0.0405648
-0.167593
0.00519757
-0.243764
-0.00567017
-0.167453
0.00300178
-0.30755
-0.0493054
-0.065089
-0.00858817
0.00354797
-0.32045
0.0425609
-0.068236
0.0179513
-0.211378
-0.15436
-0.173943
-0.172108
-0.32284
-0.278837
-0.0144049
0.0137005
-0.0169488
-0.143986
-0.344891
-0.0201778
-0.0725894
-0.280816
-0.470146
-0.159965
-0.470904
-0.0997343
-0.321673
-0.0408204
-0.207775
-0.389422
-0.162134
-0.105497
0.357279
0.0160071
0.068478
0.0192576
0.0705293
-0.241395
0.00098737
0.474869
-0.302851
0.458135
-0.0958218
-0.29945
-0.347997
-0.0484401
-0.167115
-0.0194207
-0.165714
-0.00922768
0.0130291
-0.3885
-0.0167543
-0.0173044
-0.33199
-0.141904
-0.0712837
0.0827882
0.0127738
-0.01387
-0.0197244
0.025563
-0.173929
-0.159958
-0.154899
0.0149155
0.0166188
0.449039
0.0425324
0.10819
-0.146594
-0.0599426
-0.144354
-0.0409208
0.0429356
-0.135848
0.431098
-0.128824
0.00666311
-0.332222
0.46668
0.00648948
-0.169616
-0.00254112
-0.0436579
0.102818
-0.072748
-0.166447
0.169255
-0.45349
-0.126638
-0.266615
-0.00831782
-0.127818
-0.344958
-0.0188005
-0.0194591
0.0228149
-0.19164
-0.0919257
0.0121448
-0.381901
-0.457548
0.294317
-0.266399
-0.0857061
0.000274222
-0.200197
-0.186145
-0.336425
-0.256514
0.0811977
-0.463777
-0.108605
0.00780579
-0.0716075
-0.319044
0.0976205
0.0397721
-0.318331
-0.084446
-0.119867
-0.0192389
-0.0505548
0.0748499
-0.463356
-0.340854
-0.359398
0.0115944
0.477863
-0.408847
-0.373794
-0.117608
-0.0132976
-0.0401683
-0.171485
0.0145009
-0.00793887
-0.311261
-0.166355
-0.172473
0.0192951
-0.0586018
-0.32387
0.0231902
-0.0620772
-0.0140597
-0.457968
0.0311227
-0.426728
-0.16918
0.371592
-0.0121994
0.0166965
-0.063289
-0.0236517
-0.42877
-0.0045803
0.0166906
0.0123837
-0.200514
-0.2872
-0.359279
-0.102716
-0.267407
-0.0335921
-0.00711162
0.0343917
-0.168067
-0.359263
0.512513
-0.125203
-0.00439089
-0.0498772
0.171315
-0.08662
-0.377628
0.0253304
-0.447432
-0.164207
-0.17055
0.0145488
-0.00311022
-0.0896262
-0.178251
-0.466868
-0.145497
-0.00385462
-0.00764489
0.0156689
-0.271626
-0.108356
0.348916
0.0320217
-0.150288
-0.261184
-0.204743
-0.031855
-0.324611
-0.00913242
0.0210949
-0.335612
-0.00625475
0.00317701
-0.207867
0.00845676
-0.137659
-0.0855212
0.0923579
-0.00592123
-0.125697
-0.38835
-0.0494052
-0.0118635
0.0318583
-0.211229
-0.274
0.0153969
0.00441378
-0.166995
-0.110988
-0.123224
0.239546
0.0208657
-0.173453
0.0543388
0.0044163
0.250536
-0.169315
-0.146341
-0.214742
-0.0167258
0.30713
-0.0389664
0.0089095
-0.35159
0.0131246
-0.272439
0.0376009
0.0136117
-0.0147202
-0.268508
-0.141047
-0.405648
-0.00811253
0.0992326
-0.319275
-0.0262366
-0.29336
-0.0592514
0.0443792
-0.284032
-0.0164948
0.124029
0.0111446
0.0838406
0.00318455
-0.123119
-0.410253
0.0210988
-0.47151
-0.118788
0.0251243
-0.147853
-0.162766
-0.335836
-0.26565
-0.319902
0.0249994
-0.011983
-0.348082
0.276127
0.014883
-0.00119057
-0.147336
-0.197066
0.219224
-0.34584
0.020632
-0.0568937
0.505768
0.0150938
-0.00422338
-0.277014
-0.1172
-0.0609737
-0.140474
0.0115914
0.162811
-0.332585
-0.368189
-0.0118396
0.0315866
0.0240276
-0.0173543
0.13911
-0.0180343
-0.114863
0.023645
-0.0267911
0.0207606
0.0797894
-0.0286036
0.00145836
-0.0268648
-0.0269345
0.0149008
0.35721
-0.113444
-0.0154375
-0.331152
0.0565409
-0.115455
-0.104619
-0.192574
0.0359504
-0.333532
0.063853
0.0011803
0.0169545
-0.014253
-0.271608
-0.0549468
-0.0143178
-0.138169
-0.110463
0.0146959
-0.0261798
-0.432573
0.0393803
-0.00861607
0.291933
0.00750531
0.515112
-0.466766
-0.27538
0.105156
-0.0400235
-0.387459
0.00517717
0.015472
0.280674
0.00899121
-0.0185837
-0.462989
-0.00619685
-0.411728
-0.10268
-0.10117
-0.468037
0.0551547
0.0150227
-0.299974
-0.156858
-0.122921
-0.32732
0.0236662
0.000681214
0.0440356
-0.207827
0.045047
0.0075507
0.0071753
0.0162474
0.167985
0.502106
0.0195105
0.0432223
0.0161297
-0.102792
-0.283266
-0.272525
-0.444906
-0.332453
0.214022
0.146522
-0.316931
-0.0361817
-0.0028815
0.0317272
-0.0155635
0.156208
0.0211765
-0.0141971
-0.470094
0.176098
-0.14315
-0.321779
0.222877
-0.185517
-0.00218412
-0.0278539
0.0204971
0.00358281
0.00707227
0.0163532
0.0212964
-0.158937
-0.00947335
-0.016295
-0.341461
-0.241224
-0.00247843
-0.0485964
0.0558327
-0.367871
0.0227427
-0.0216401
-0.329664
0.0722771
-0.164476
-0.058949
-0.0172412
-0.472333
-0.243943
-0.0102635
-0.380354
-0.156001
-0.453926
-0.0165224
-0.0212841
-0.0207338
-0.204201
0.0554532
-0.155757
-0.209051
-0.328461
-0.354737
-0.0145615
-0.100221
-0.198696
-0.343042
-0.209473
0.0399544
0.0280718
0.00251359
-0.337643
-0.471375
-0.286476
0.0295052
0.0249639
0.0218214
0.0486812
0.021073
-0.293736
0.00426791
-0.239082
0.0330525
0.0158522
-0.00284381
0.14685
-0.0235466
-0.280229
0.00916303
-0.194183
-0.238793
-0.0796078
0.01333
0.0765198
-0.0734988
0.0106992
-0.105488
-0.119386
-0.079313
-0.240227
-0.00186171
-0.010314
0.0310805
0.0210025
-0.119631
-0.0599133
-0.164203
-0.00195844
-0.0409364
-0.0666422
-0.0161936
0.162298
0.0599217
-0.220852
0.0896956
-0.270725
-0.0417237
-0.326646
0.0875068
0.0823359
-0.16569
-0.0714865
-0.385809
-0.0772951
-0.0536175
-0.0164136
0.0234082
-0.150274
-0.141533
0.0334601
-0.0951085
-0.158062
-0.154451
-0.0015505
-0.40103
-0.332683
-0.0488332
0.0239723
0.163663
-0.318016
-0.0873406
0.0106688
0.276079
-0.232806
-0.142296
0.138869
0.0185167
-0.0733009
-0.205655
-0.253382
-0.289534
-0.357953
0.150848
-0.187654
-0.0840726
0.00248246
-0.0497606
0.0211317
0.438535
0.379822
-0.194184
0.346052
-0.377912
-0.108553
0.267801
0.0261345
-0.216264
-0.411988
-0.0200193
0.368276
-0.156812
-0.337564
0.0154587
-0.0139689
-0.0718828
-0.0711514
-0.0717582
-0.202546
0.0125698
-0.309068
0.0173708
0.0437989
-0.339025
0.000302314
-0.0220243
-0.205251
0.0153578
-0.0364251
-0.346381
-0.00707558
-0.192388
-0.016448
-0.124945
-0.0779754
-0.109448
0.0386541
-0.0483317
-0.202664
0.0984443
-0.151443
-0.132902
-0.0335652
-0.343793
-0.109797
0.0602044
-0.447707
-0.336155
-0.278835
0.0165081
-0.0149052
-0.153887
0.0785776
-0.108284
0.0105602
-0.0860162
-0.32927
-0.342598
-0.118873
-0.32724
0.158695
-0.00504494
-0.0141211
0.0104697
-0.141974
-0.110826
-0.0235513
-0.378842
0.0108735
-0.107066
-0.0139735
-0.378752
-0.430636
0.0227636
-0.0198677
-0.153653
0.0103215
-0.0106895
-0.103454
0.3652
0.0502834
0.0225908
-0.141309
-0.137336
-0.0649884
0.269192
0.000834634
-0.203184
-0.142838
0.0329747
0.414517
-0.344741
0.00405766
-0.343452
-0.0125672
0.0149335
0.0557282
0.181002
-0.440418
-0.11637
-0.251549
-0.0118731
-0.172149
-0.36166
-0.0848319
-0.376783
0.0317989
-0.408401
-0.0494622
-0.147355
-0.23087
0.0166826
0.35658
-0.0198006
0.0908577
-0.392701
0.301053
-0.388971
-0.00442235
-0.274427
0.0297027
-0.15716
-0.0383279
0.00770539
-0.0738685
-0.00532955
-0.0123085
-0.131375
-0.323089
-0.335847
0.000832935
0.497539
-0.0831186
-0.004673
0.0219296
0.0686186
-0.217376
-0.397039
-0.11162
-0.00774902
-0.0290499
-0.234892
0.0110321
0.0140844
-0.00546322
-0.0313695
-0.0990401
-0.310469
0.000466333
-0.258593
0.0895877
-0.328467
-0.451424
-0.148989
-0.0141254
-0.100054
0.00750353
-0.0109751
-0.0857257
-0.159526
-0.0037716
-0.0158017
-0.0110775
-0.401839
0.0563174
-0.0341617
-0.0451395
-0.0831746
-0.337089
-0.38818
0.00570083
0.0321848
-0.337183
0.0313083
-0.369361
-0.238281
-0.421909
0.237995
0.082272
-0.25888
-0.0760083
0.0189784
-0.00652878
0.0115504
0.0479878
0.01484
0.0495716
-0.355968
-0.139754
-0.0311946
0.281768
-0.00656169
-0.00686118
-0.107333
0.0121271
0.0451058
-0.0372014
0.458195
0.509452
-0.174079
-0.387651
0.150995
-0.1481
-0.11684
-0.171307
-0.355142
-0.145111
-0.198143
-0.158698
-0.450149
-0.0310247
0.0239914
0.00320554
-0.0725465
-0.170438
-0.00802258
0.0198514
-0.198624
-0.00398113
-0.0172925
-0.0140007
0.0047703
-0.242907
-0.0333821
0.0328641
-0.144528
-0.0124664
-0.261108
0.391978
0.0129341
-0.0447132
-0.00446337
0.0412988
-0.00393789
-0.0415117
-0.355919
0.0327417
-0.338664
-0.0315652
-0.34549
-0.0579688
-0.131576
0.0150503
-0.108125
-0.102505
0.0190381
0.0119479
-0.343447
0.0238684
-0.433903
-0.424423
0.0333325
0.00304148
0.0115456
-0.0168547
-0.102301
0.0218913
-0.345395
-0.145758
-0.110041
-0.465463
-0.0073759
0.00870325
-0.402502
-0.358277
0.097267
0.0125983
0.019543
-0.00731819
-0.0460389
0.130918
0.385064
-0.0430411
-0.157224
0.500145
-0.16793
0.151793
-0.0291515
-0.346188
-0.132114
-0.0476109
0.014673
0.0407722
-0.349819
0.0214169
-0.121414
0.142445
0.00637866
0.0645569
-0.014143
-0.109674
-0.0647403
-0.00380886
-0.0157115
-0.0447423
-0.334101
0.00599245
-0.0906196
-0.296684
0.04023
0.00839005
0.165909
-0.169891
-0.102103
-0.346871
0.0630308
-0.0169039
0.0812226
-0.216159
0.421672
0.498686
-0.00690048
0.144161
0.00975347
-0.344985
-0.0199698
-0.250756
0.13551
-0.103691
0.00565878
-0.00104085
0.0983946
0.0169811
-0.334508
-0.0355678
0.368191
0.00636677
-0.0071009
0.0856592
-0.241897
-0.463647
-0.022067
-0.0435759
0.0564584
-0.0339427
-0.0237885
0.0197434
-0.2241
0.0075246
-0.176901
-9.14006e-05
-0.371342
-0.0325206
-0.0165999
-0.343016
-0.354559
-0.343387
-0.00570519
-0.155962
-0.0331436
-0.161213
0.0554245
-0.261414
-0.00895892
-0.454675
0.00622797
-0.0621408
0.024851
0.00954515
0.0106873
-0.242278
-0.317113
-0.169673
0.155103
-0.0704621
-0.0441027
0.00390111
-0.0114952
-0.00701802
0.0202422
-0.256248
-0.0374634
-0.344397
-0.224517
0.0121267
0.0615657
-0.155669
-0.1537
0.0548478
-0.0463356
0.0606757
-0.461011
-0.134952
-0.406022
-0.0955252
-0.137328
0.24588
0.0325846
0.00149699
-0.198752
0.0904137
-0.0316502
-0.328879
0.075994
-0.469145
0.00624088
0.362796
0.175899
-0.175727
0.0282497
0.0241641
-0.352371
-0.0334467
-0.33816
0.0418617
0.0244491
-0.377805
-0.104081
-0.0652847
-0.390701
-0.00251033
0.338392
-0.268487
0.0226205
-0.0706835
-0.271339
0.0176274
0.00138868
-0.0333293
-0.0631343
-0.0617866
-0.132955
-0.163707
-0.0469762
0.0161175
-0.154445
-0.0131526
-0.470593
-0.0566745
-0.0409962
-0.302638
-0.471943
-0.00746907
0.00765561
-0.0596122
-0.015772
-0.0119005
-0.33789
0.011272
-0.0634659
-0.0145238
0.264931
-0.00992112
0.360973
0.372987
-0.0453761
-0.302235
0.00120168
-0.0532249
0.00158739
-0.317155
0.0154406
-0.00289444
0.0142181
-0.0214014
0.00554607
-0.209196
-0.43774
-0.390592
-0.465019
0.0104229
0.0557832
-0.109976
0.0413505
-0.0197289
0.15947
-0.341353
-0.00134474
-0.0325827
-0.346083
0.00483883
0.0101349
-0.172456
-0.157664
-0.169993
0.0790505
-0.0282971
-0.410659
0.0494941
0.166532
0.00616866
-0.0811621
0.0345726
-0.193258
-0.257309
-0.107
0.01101
-0.461789
0.066627
-0.00264739
0.000447137
0.042683
0.0173567
-0.0302243
-0.298222
-0.00464677
-0.339501
-0.0342526
-0.087154
-0.357447
-0.00502346
-0.181018
0.0456353
-0.00515469
0.0787592
-0.145884
0.0184126
-0.0149475
0.00917583
0.0325951
-0.129949
-0.0115956
0.0432944
0.0930853
0.0111884
-0.0152643
-0.43168
-0.166445
-0.254743
-0.336598
-0.204248
-0.175738
-0.343364
-0.173232
-0.0136125
0.0469182
-0.0132919
0.364915
-0.186022
-0.0120612
-0.0220255
-0.0162645
0.00244522
0.00521731
-0.0567204
-0.442451
-0.464552
-0.467537
-0.173767
0.0118181
0.00425791
0.0096941
-0.387084
-0.367317
-0.0302104
0.514004
-0.0122339
-0.104618
-0.0473431
-0.0558941
-0.101299
-0.298244
0.0474892
0.360892
-0.0129814
-0.00158406
-0.18152
0.00895871
0.00215879
-0.132958
-0.233156
0.00948702
0.114694
0.00813742
0.0338534
-0.00525178
0.0260404
-0.329271
-0.0112543
0.0151527
0.0483604
-0.303597
0.38222
0.0230757
0.161093
-0.101943
-0.469618
-0.220995
-0.415392
-0.26608
-0.0927286
-0.196398
-0.220952
-0.122879
-0.423913
-0.0145671
0.0079943
0.0145468
0.381536
0.0344543
-0.366916
-0.0262926
0.0150709
-0.374731
-0.164028
0.0520698
0.286255
0.00410415
0.0710896
-0.334517
-0.0743556
0.0152022
-0.33767
-0.241082
-0.344286
-0.240424
0.0277843
-0.374811
0.00534441
-0.0788956
-0.00185325
-0.00317497
-0.247112
0.0951239
-0.0207886
0.00728434
-0.41258
-0.0162078
-0.336323
-0.343857
0.0118801
-0.018746
0.0985053
-0.297361
-0.150099
-0.111799
0.0504007
-0.236903
0.0339173
-0.0408798
-0.0311516
-0.031755
0.0756623
0.244376
-0.352565
-0.178524
-0.194824
-0.443363
0.000722349
-0.106004
-0.238578
0.213864
0.00582554
0.0256372
0.00871977
-0.00119607
-0.00014151
-0.366957
-0.226386
-0.294795
-0.178304
-0.200335
0.0171878
-0.209071
-0.439313
-0.0140798
-0.0713931
-0.00343542
-0.45455
-0.165525
-0.192152
-0.184187
0.0369163
-0.159739
-0.0369788
0.0975628
-0.114905
-0.0674861
-0.0204852
-0.145972
-0.425413
0.00881879
-0.350474
-0.461542
-0.346452
-0.36928
-0.092522
-0.282523
0.147066
0.254382
-0.315174
-0.0157111
0.0278111
-0.0269998
0.00474492
-0.456247
-0.0437964
-0.343597
-0.0112257
-0.013872
-0.18775
0.0135233
-0.452155
-0.0376934
0.407654
-0.0555162
0.0217241
-0.345109
-0.0572355
-0.142295
-0.00172176
-0.0255592
-0.197745
0.125248
0.0212655
0.0899049
-0.344085
-0.102572
0.508781
0.0147901
0.0147793
-0.0163602
0.0171552
-0.0719087
0.0669953
-0.0131561
-0.428436
0.00544715
0.0183272
-0.163963
-0.337943
-0.105551
-0.0854254
-0.00661679
-0.0408389
-0.196219
0.501744
-0.246181
-0.40221
-0.0682668
-0.0942848
-0.147313
-0.0331563
-0.138105
-0.290215
-0.000290045
-0.261651
-0.169266
-0.261624
-0.286363
-0.371828
-0.160656
0.0395098
-0.320636
0.02402
-0.107943
-0.206608
-0.00580767
-0.224937
-0.00660086
0.0338743
-0.14757
-0.466876
0.0615448
0.00130513
-0.0999644
-0.343292
0.294294
-0.138079
0.0168192
-0.160303
-0.0208748
-0.119063
-0.228653
0.00768295
-0.447882
-0.0301242
-0.00352047
0.0405692
-0.00838471
-0.345633
-0.149461
0.0150237
-0.346236
0.0228503
-0.463187
-0.0190499
-0.167873
0.204702
-0.168873
0.0984955
0.00546565
-0.0119538
0.00112821
-0.283045
-0.150261
0.00327388
-0.123015
-0.160774
-0.355563
-0.102889
-0.174617
-0.347108
0.0062538
-0.366008
-0.00590728
-0.143099
0.00065593
0.0454895
-0.0371325
-0.187688
-0.32415
-0.201946
-0.220164
-0.438681
0.379192
-0.130347
-0.291317
5.41325e-05
-0.169125
-0.451549
-0.016015
-0.14555
-0.338064
-0.259205
0.0088529
-0.173662
0.12889
-0.175768
-0.326952
-0.0781017
-0.138635
-0.0707815
-0.00674342
-0.0142461
-0.460476
-0.257971
0.196994
-0.252651
0.000115147
-0.321947
0.0506996
-0.0143366
0.0525918
-0.170283
-0.0625533
0.0197775
0.00923218
-0.339105
0.00113491
-0.0613137
-0.371911
-0.0108088
0.00080302
-0.326666
-0.00367012
0.135781
-0.0653924
-0.187788
0.491338
0.0130734
-0.0976823
-0.0856946
-0.0832738
-0.0800767
-0.0517163
0.325127
0.42591
-0.152754
-0.346671
0.328713
-0.0201663
-0.256454
-0.177013
-0.149813
-0.00592037
0.019354
0.371169
-0.0431182
-0.344225
0.41576
-0.0916635
-0.162893
-0.051001
-0.262398
-0.165398
0.00957733
0.00472459
0.0117181
0.000736536
-0.322548
-0.293387
-0.0721596
-0.261791
-0.148957
-0.142032
-0.0329106
-0.0616487
-0.161348
-0.00128001
-0.000245619
-0.299139
-0.0482338
0.308544
-0.0039378
0.00419767
0.0193612
-0.0645977
-0.00439227
-0.128586
-0.018687
-0.0540694
-0.344999
-0.129007
0.49086
-0.37499
0.108161
-0.0450223
-0.344083
-0.209848
-0.111017
0.256283
0.00627632
-0.16521
0.019983
-0.0431091
-0.00558029
0.291539
-0.137072
-0.343009
-0.203659
-0.281827
-0.0124802
-0.00541444
-0.0346339
-0.163981
-0.396471
-0.199844
0.516002
0.00072889
-0.388965
-0.049149
0.00319348
-0.0275179
0.0359683
-0.34884
0.0288064
-0.149028
-0.0111268
0.496274
0.154707
-0.147658
-0.0446927
-0.0370166
-0.0560265
-0.0112404
-0.19873
0.508275
-0.344876
-0.163372
-0.014796
-0.34509
0.223592
0.0187967
-0.0703176
-0.0214844
-0.062037
-0.0158909
-0.345816
-0.0494171
-0.190636
-0.16057
-0.0123617
-0.454856
-0.0143684
-0.0727593
0.0612309
-0.054594
-0.00744204
-0.010241
-0.101164
0.00987602
-0.0462147
-0.0116196
-0.0424668
0.510482
-0.160515
0.0566974
-0.10549
-0.383579
-0.00121929
0.00999051
-0.0200407
-0.160097
-0.00955046
-0.169124
-0.326488
0.017664
-0.303791
-0.165583
0.0236421
-0.0183491
-0.070638
-0.0165543
-0.299819
-0.168698
-0.322491
-0.0530566
-0.0871245
-0.0195486
0.503021
0.0716219
0.393517
0.00482506
-0.193738
-0.459173
-0.118657
-0.0592219
-0.320592
-0.458172
-0.343058
0.0584892
-0.0125047
-0.449104
0.488691
-0.00474258
0.0239044
0.416538
-0.020323
-0.269827
0.484568
-0.00909144
-0.0201149
-0.325375
-0.14596
-0.0476695
-0.014406
-0.106374
0.0585845
-0.279518
0.0054161
-0.0349321
0.00834232
-0.0441061
0.0155043
-0.225095
-0.0218331
0.0169097
-0.17666
-0.458778
-0.338945
-0.00641692
-0.0566645
-0.114811
0.0411782
0.0399225
-0.113542
-0.00153206
0.0136222
-0.337642
0.0506421
0.0224669
0.0344452
-0.0304669
-0.470731
-0.297845
-0.0216657
-0.0420756
0.00352794
-0.102233
-0.398071
0.0776603
-0.180842
0.016063
0.0518844
-0.070711
-0.291889
-0.461633
-0.0127241
-0.339986
-0.345688
-0.0731576
-0.0108644
-0.0780857
-0.0943462
0.031694
-0.015959
-0.0312469
-0.128466
0.0614411
0.49094
0.0471115
0.0190505
-0.039333
-0.175162
0.0279795
-0.0140523
-0.250294
0.15914
-0.343378
-0.178512
-0.02919
0.399403
-0.328265
0.436765
0.0569631
0.00934024
0.0214722
-0.325987
0.202919
-0.0320785
-0.039698
-0.166315
0.460004
-0.449526
0.0114814
0.109995
0.0452926
-0.223713
-0.346269
0.00387901
-0.171179
0.0425079
0.060398
0.00395815
-0.422689
-0.191155
0.0235473
-0.0588767
-0.338934
0.00532256
0.00482473
-0.0812411
0.295059
0.025169
0.0053968
-0.0567167
-0.366033
-0.094587
-0.0268737
-0.00253279
-0.0337413
0.371809
0.013405
0.00951328
-0.251193
-0.343841
-0.00279463
0.0124601
-0.119779
-0.081601
0.0150821
-0.0360564
-0.154209
-0.00165267
0.011261
-0.0966005
-0.348665
-0.359294
-0.0434611
-0.120691
-0.42432
-0.161967
-0.376962
-0.330007
-0.0292485
0.0213578
-0.0156593
0.073592
0.00785697
0.0246122
-0.014117
0.00873178
0.00104927
-0.3211
-0.10687
-0.317335
-0.0340261
-0.331271
0.0274526
-0.0586361
-0.012051
-0.00703697
0.130467
-0.323453
-0.0121341
-0.00162558
-0.0474634
-0.3183
0.00196361
-0.117282
0.0216034
-0.0764227
-0.140676
0.212778
0.50464
-0.0142305
-0.265409
-0.0311752
-0.324165
-0.449825
-0.00228772
-0.344705
-0.158638
0.00881892
-0.0192118
-0.137254
-0.0970415
-0.132684
-0.0101422
-0.385128
0.1686
-0.171903
-0.0136468
0.000356332
-0.0698873
-0.470884
-0.319353
-0.470867
-0.136375
-0.460169
0.0881764
-0.397059
-0.0346126
0.453281
0.0021513
-0.0246632
-0.328377
0.0632482
-0.270347
0.00117492
-0.014306
-0.447091
-0.33004
0.000666557
-0.367578
0.00454084
-0.344444
-0.00535925
-0.3344
-0.462419
-0.0312409
-0.248038
-0.0571396
-0.340961
0.0313744
-0.0176425
0.0329496
-0.162016
0.00546467
-0.313282
-0.00507722
-0.412719
-0.19372
-0.316929
0.00130553
-0.0125195
-0.181329
-0.0545405
0.160665
0.00639553
0.312624
-0.0322864
0.0243872
-0.134557
0.0206823
0.00914541
-0.0388407
0.0146089
-0.183218
-0.0753764
0.000216438
-0.33887
-0.265705
0.419513
-0.027245
-0.207773
0.480918
-0.0276714
-0.0796267
-0.0408099
0.019054
0.00164016
0.0354124
-0.0590057
-0.0847138
-0.411388
-0.028007
-0.06121
0.00966806
0.0104728
-0.173562
-0.0848611
0.00830405
-0.0425678
-0.163379
-0.348651
0.0269067
-0.302331
0.0415908
0.455029
0.020146
-0.427111
-0.0072552
-0.045187
0.00707053
-0.00214811
0.0625055
-0.340116
-0.00945847
-0.344892
-0.25476
-0.0845358
-0.334025
0.00812252
0.0363169
-0.178765
-0.0157917
0.339553
0.0260343
-0.114928
-0.00988749
-0.358683
-0.340799
-0.164931
0.000710696
-0.38261
-0.463168
-0.262355
0.370154
0.109279
-0.212549
-0.00150895
-0.293788
-0.33656
-0.0826258
-0.20259
-0.00468522
0.0255711
-0.0544439
-0.326269
-0.0161537
-0.176802
0.00205364
-0.35198
-0.115876
0.144471
-0.00478739
-0.0962162
0.389726
0.0258823
-0.118391
-0.133054
-0.192536
-0.0234236
0.00159166
-0.327349
-0.353818
0.00714376
-0.459753
0.0721871
0.0128947
-0.445598
-0.266842
0.0218584
-0.330336
-0.0117224
0.000234376
-0.133548
-0.341167
0.000269275
-0.215972
-0.0216329
0.0179755
-0.470916
-0.0401101
-0.142302
-0.00287767
0.475181
0.0220342
-0.47083
-0.0132589
0.241022
-0.0328406
0.10559
0.374334
-0.349524
0.227415
-0.340681
-0.0838151
-0.261936
-0.34103
-0.179996
0.000235359
-0.18848
-0.405613
-0.144905
-0.26105
0.0417361
-0.00129194
-0.0345049
-0.36778
0.0225427
-0.0379406
-0.257337
0.0050298
-0.341813
-0.0187585
-0.30919
0.0113118
0.00478095
-0.187399
-0.0142573
-0.128952
0.000870978
-0.0234844
-0.215591
-0.148676
-0.00468678
0.00928562
-0.346794
-0.462409
0.0133963
-0.0812662
-0.117863
-0.0183088
-0.470322
-0.34792
-0.359626
-0.248218
-0.459385
-0.199988
-0.188386
-0.0017776
-0.00581156
0.0154582
0.00292026
0.0661314
-0.409614
-0.435985
0.00755623
-0.0445774
-0.0486488
-0.317262
-0.334631
-0.334866
-0.364308
0.0276952
-0.367497
-0.413972
0.097827
-0.297149
-0.136897
-0.0341823
-0.341815
-0.162706
-0.154777
0.0198244
-0.0194284
-0.13227
-0.298125
-0.00610331
0.0195041
0.00428275
-0.00455057
0.0259613
-0.424837
0.0149654
-0.0104462
-0.39757
0.00844682
-0.348229
-0.136244
-0.353608
-0.266484
0.00178032
-0.35353
0.368655
0.461123
0.0277763
-0.0869955
0.00902537
0.0738332
-0.460987
-0.189101
-0.184745
-0.0460795
0.00298164
0.361191
-0.0498729
0.0237539
0.11482
0.00853264
-0.339866
0.00255243
-0.214606
-0.356442
0.0697139
0.00245232
-0.345636
-6.09841e-05
-0.0268717
0.199216
-0.0109791
-0.0383947
-0.201746
0.451313
-0.368745
-0.0153104
0.0769149
-0.00470282
-0.34789
-0.148748
-0.0142605
-0.0873334
0.00551991
-0.03123
-0.0408875
-0.0217432
-0.132577
-0.0832596
0.0228844
-0.0335497
0.0211421
0.00721117
-0.0320755
0.00905913
0.396797
-0.157577
-0.339957
-0.299074
-0.213632
0.321932
-0.0345408
-0.456331
-0.171635
-0.21476
0.0241711
-0.0269366
0.454351
-0.363435
-0.262687
-0.280084
-0.337439
0.00747886
0.0180575
-0.204228
-0.0032064
-0.160852
-0.243502
-0.0469522
-0.443494
-0.172953
0.0047171
-0.474591
-0.295879
0.266495
0.453803
0.0359878
-0.163542
-0.326829
-0.334327
-0.00306077
0.28313
-0.125889
-0.00184351
-0.114389
-0.0287821
-0.156547
0.0155546
-0.411177
-0.344116
0.0347991
-0.056052
0.0533237
-0.425308
-0.13953
0.0265598
0.0436892
-0.183052
0.0155513
-0.0562954
-0.176321
0.444613
-0.002579
0.31813
0.247899
0.0101248
-0.129897
-0.0113925
0.0237611
-0.0705502
0.0148958
-0.0661896
-0.344401
-0.229521
0.0273481
-0.457555
-0.121187
-0.104778
-0.462016
-0.11242
-0.0578134
-0.363467
-0.0685588
0.0924719
-0.125124
-0.0971797
-0.0334299
-0.0123225
0.00728862
-0.271053
-0.265578
-0.37769
-0.28796
-0.0043976
0.105916
-0.193119
-0.0880765
-0.364017
0.00372037
-0.17164
-0.00562527
-0.431231
-0.0229142
-0.332694
0.0692236
-0.457409
-0.266409
-0.202833
-0.344248
0.126766
-0.00351205
0.292669
-0.470455
-0.444369
-0.0815996
0.0602589
0.000759942
0.0317958
-0.0970839
0.0204289
0.0170069
-0.00364861
-0.164238
0.0264348
-0.33913
0.00419359
-0.31918
-0.0159789
-0.190735
-0.451903
0.0472753
-0.291918
0.00942675
-0.0620953
-0.0266428
0.0213993
0.0136691
0.407416
-0.205877
-0.00850628
0.0945949
0.0321027
-0.179733
-0.103204
-0.309285
-0.254494
0.0361966
-0.143646
-0.0454724
0.0282977
0.222746
0.0229833
-0.104519
-0.44126
0.0117657
-0.330254
0.0577813
0.00720353
-0.011722
-0.347982
0.028312
-0.349317
-0.0271744
0.0191553
-0.118177
-0.227267
-0.335734
-0.0694943
0.0212226
0.0129602
-0.178636
-0.165845
0.0163312
-0.118769
0.0443739
-0.107806
0.464742
-0.156418
-0.414794
-0.449255
-0.0136325
-0.138106
-0.0254117
-0.325834
-0.32687
-0.0832275
-0.317783
-0.14964
-0.0175754
0.0809834
0.0268387
-0.0141648
0.0390705
0.0245942
-0.319608
0.0559629
-0.134023
-0.322272
0.00536443
-0.352163
0.0158049
0.0145398
-0.140687
-0.346278
-0.0220167
-0.398994
0.295763
-0.134724
-0.471037
-0.0413211
-0.143192
-0.293315
0.066011
-0.0187863
0.446344
0.0308683
0.00490163
0.00484328
0.306791
-0.456301
-0.0608697
0.0229129
-0.214334
-0.449221
0.0577449
0.0136707
-0.321136
-0.345635
0.000911362
0.327137
-0.227277
0.00609221
-0.0690068
-0.0121437
-0.183862
0.00395167
-0.395344
-0.406507
-0.392995
-0.0411388
0.165887
-0.0291401
-0.00527955
-0.134706
-0.00110893
-0.327821
-0.235604
-0.181436
-0.00309528
-0.0171534
0.455256
-0.123559
0.250378
-0.345711
-0.214673
-0.325658
-0.0533927
-0.392451
0.283492
-0.073543
0.406566
-0.364502
-0.18483
0.0266416
-0.472965
-0.010136
-0.28148
-0.279068
0.308289
-0.0121068
-0.12825
0.0128337
-0.259813
-0.173474
-0.0447859
0.0132532
-0.391348
-0.250601
0.00494518
-0.343016
-0.14888
-0.326488
0.0117378
-0.361412
0.0161363
-0.133644
0.0141204
-0.0471314
0.00408485
0.0312171
-0.311679
-0.149835
-0.0149295
-0.168147
-0.464223
-0.0138528
-0.0166673
0.0559199
0.10645
-0.120256
-0.129309
-0.454649
-0.293016
-0.391095
-0.380555
-0.132093
0.0605656
-0.159213
-0.224358
-0.470324
-0.19154
-0.250442
-0.158796
-0.117472
-0.0420908
-0.464574
-0.00531254
-0.335244
0.0219256
0.00311811
-0.393569
0.0116024
-0.0206132
0.361765
-0.0410573
-0.138252
0.0220433
-0.0477484
-0.323411
0.347069
-0.021353
0.00699136
-0.388259
-0.14414
-0.068305
0.506781
-0.150937
-0.138814
-0.232077
-0.423876
0.0664454
-0.344187
-0.146654
-0.156655
0.0223952
-0.016409
-0.119988
-0.462278
-0.434414
-0.402144
-0.180339
0.010418
-0.190764
0.0348785
-0.441239
-0.0307522
0.0054013
-0.134735
-0.195919
-0.197696
-0.404815
0.0475724
0.399755
-0.333691
-0.0396782
-0.195778
-0.013707
0.14221
-0.238791
-0.134609
-0.322819
-0.402332
-0.165988
0.498421
-0.108716
0.030202
-0.0479771
-0.0829313
-0.315825
-0.374384
-0.400704
-0.344009
0.12428
-0.00610545
-0.277866
-0.132982
-0.3546
0.0106014
-0.409377
-0.139846
-0.356355
0.00715392
-0.191093
-0.176489
-0.128943
-0.319355
-0.0220868
-0.178529
-0.203225
-0.00382973
-0.207834
-0.344559
-0.0448783
-0.296869
-0.0482847
-0.053726
0.0122057
-0.211463
-0.147142
0.290957
-0.0845678
-0.43126
-0.0149307
-0.0143301
0.00602637
0.0029123
0.00172634
-0.345462
0.363644
-0.342874
0.0213184
-0.0139374
-0.410802
-0.0855308
-0.183069
-0.155567
-0.00863431
0.476754
0.145909
-0.108571
-0.349118
-0.0719032
-0.462929
0.460153
0.116935
-0.0138703
0.348064
-0.0151466
0.377163
-0.372375
-0.236
-0.00787299
-0.383503
0.435744
0.0202201
-0.173022
0.0226768
-0.370406
-0.395276
0.0329132
0.00806421
0.104906
-0.129405
-0.0111946
-0.0248218
0.0357698
-0.416474
0.104963
0.484697
0.459784
-0.350643
-0.302055
-0.221199
0.00620794
-0.20362
-0.445235
0.101518
-0.000691961
-0.0601819
0.0191138
-0.470909
-0.185079
-0.356884
0.00697193
-0.0809555
0.516176
-0.457143
-0.174271
0.0198144
0.343408
-0.127521
0.000300808
0.0205549
0.475336
-0.208304
-0.0735355
-0.140548
0.434754
-0.419563
-0.0983851
0.0730126
0.43987
-0.13976
-0.00541811
0.0241568
0.00679075
0.00221425
-0.270526
0.272268
0.0712908
-0.467113
-0.179022
-0.0182272
-0.246376
0.331993
0.126394
-0.0900503
-0.0187305
-0.00886209
0.509654
0.394703
-0.0877743
-0.00360696
0.386729
-0.320984
-0.294337
-0.105487
-0.0599885
-0.0173965
0.021307
0.0040532
-0.0980441
-0.410683
-0.164666
0.0285787
0.358041
0.0234824
-0.34765
0.0583065
-0.199914
0.0716493
0.086813
-0.0994345
-0.340065
0.000528998
-0.0142535
-0.00511921
-0.179104
-0.0597413
-0.343442
-0.163207
-0.0970304
0.000350478
-0.0892409
-0.0484281
0.0225915
-0.402797
-0.0141626
-0.177377
-0.442396
-0.219045
-0.0786938
0.0350737
0.0109875
0.0223085
-0.000271159
-0.17336
-0.333774
-0.444024
-0.439503
0.470696
0.368719
0.0743184
-0.290499
-0.149556
-0.108004
0.032281
-0.0253778
-0.139318
-0.0348713
-0.0211963
-0.201717
-0.300355
-0.311044
-0.345287
-0.212217
0.00548945
0.0138977
-0.0467852
-0.093006
-0.16923
0.0142137
-0.140072
0.452722
0.486124
-0.133542
0.0425086
0.432306
-0.0866733
-0.345057
0.0467699
-0.010663
0.0137252
0.0307927
0.0115334
-0.243618
-0.299065
-0.180906
-0.2026
-0.186387
-0.00891373
-0.115978
0.0685028
0.00356465
-0.0833007
-0.397814
-0.291346
-0.00772628
0.419192
-0.00283759
-0.164676
0.0684785
-0.086394
0.0216922
-0.190781
-0.126616
-0.271633
-0.469698
-0.343109
-0.350368
-0.459092
-0.353696
-0.277511
-0.0163682
-0.344298
-0.0111827
-0.45071
0.0208533
0.399
0.00553779
-0.199926
0.030757
-0.00688138
0.0356114
-0.00102279
0.500781
-0.0263252
-0.00385619
-0.0153269
-0.0112197
-0.00579491
-0.046946
0.0227957
-0.343732
-0.140193
0.00949143
-0.156728
0.0254996
-0.00320812
-0.186348
-0.338066
0.0129659
-0.0955866
-0.0107282
-0.0133211
-0.359244
-0.0335189
0.107868
-0.223349
-0.314589
-0.444354
-0.366011
-0.34486
-0.462962
-0.461227
-0.324431
-0.337928
-0.0354263
-0.325305
0.0188769
0.0104961
-0.191875
-0.0710019
0.511986
-0.0319823
-0.132467
-0.122324
0.439206
-0.195212
-0.125569
-0.0539021
0.000143157
-0.127921
0.0232386
-0.00848933
0.43819
-0.037766
-0.352231
-0.366862
-0.21699
-0.0304662
-0.279461
0.0528914
-0.461653
0.442496
-0.00369851
-0.337068
-0.338153
-0.1576
-0.108574
-0.102657
-0.179291
-0.182305
-0.060436
-0.464572
-0.153783
0.13402
-0.344758
0.0330971
-0.154833
0.0262643
-0.0137369
-0.0311234
0.40959
-0.269924
0.379191
-0.32682
0.0180203
0.2103
0.500337
-0.00835304
-0.343962
-0.0160824
0.506374
-0.202818
-0.346821
-0.230141
-0.342315
-0.00426772
-0.0397579
0.0202327
-0.445501
-0.132033
-0.0452437
0.00724686
-0.0162031
-0.00114216
-0.0204716
-0.0375899
-0.19549
0.0673026
-0.0612429
-0.00136308
-0.340803
-0.0988254
0.464208