/*--------------------------------*- C++ -*----------------------------------*\
| =========                 |                                                 |
| \\      /  F ield         | OpenFOAM: The Open Source CFD Toolbox           |
|  \\    /   O peration     | Version:  v2012                                 |
|   \\  /    A nd           | Website:  www.openfoam.com                      |
|    \\/     M anipulation  |                                                 |
\*---------------------------------------------------------------------------*/
FoamFile
{
    version     2.0;
    format      ascii;
    class       volVectorField;
    location    "100";
    object      U;
}
// * * * * * * * * * * * * * * * * * * * * * * * * * * * * * * * * * * * * * //

dimensions      [0 1 -1 0 0 0 0];


internalField   nonuniform List<vector> 
18355
(
(1.09652 0.0868668 -5.3712e-21)
(0.0475782 -0.0213496 -3.35495e-20)
(1.00377 0.0227548 -3.826e-21)
(1.0159 0.00552099 -2.77485e-21)
(1.04542 -0.00217796 0)
(1.15044 -0.0769293 3.83699e-22)
(1.00405 0.00737004 1.92153e-22)
(1.16299 0.0324054 2.88052e-20)
(0.937999 -0.00735543 2.67251e-20)
(-0.0761243 -0.00780071 0)
(1.02364 0.00134767 6.60637e-21)
(-0.195417 0.00582088 2.72771e-20)
(1.20428 0.034056 3.84804e-20)
(0.986951 0.00534645 -2.00122e-21)
(1.02573 0.0364284 6.10167e-21)
(0.986181 0.0715256 -4.23945e-21)
(-0.241373 0.0195023 -1.57356e-19)
(1.01606 0.0110665 0)
(1.00459 0.036922 -1.11607e-21)
(0.701171 -0.179777 2.48844e-20)
(0.966406 0.0884527 0)
(0.974189 0.0345722 -5.04206e-21)
(0.0620658 0.00285747 7.57644e-20)
(1.0447 -0.00251141 0)
(1.05306 -0.0169909 -3.23674e-21)
(0.999293 0.003907 -5.98523e-22)
(0.996097 -0.000314283 7.05796e-21)
(0.941818 0.00564322 -3.41533e-21)
(0.0511078 0.168316 1.03077e-20)
(0.993287 0.0249278 -1.03212e-20)
(1.0383 -0.00302519 -1.04129e-20)
(1.05147 -0.00612287 -9.46904e-21)
(1.01585 0.0106141 6.19996e-21)
(1.01055 0.000615616 0)
(1.13025 0.136314 2.67022e-20)
(1.10051 0.0871031 0)
(0.954473 -0.00385484 -1.71394e-20)
(1.16911 0.265886 -3.56467e-20)
(0.94355 0.00684454 -1.11129e-20)
(1.02416 0.00188834 -3.47438e-21)
(0.986319 0.00518746 0)
(0.939814 0.31717 0)
(1.00367 0.0234256 4.19441e-21)
(-0.157744 0.00231097 -6.29806e-20)
(1.01633 4.48258e-05 -3.28712e-21)
(1.17876 0.265206 1.02707e-19)
(1.14556 0.0835605 4.63174e-20)
(0.933933 0.0256604 0)
(1.13316 0.0836477 -4.3443e-20)
(1.01548 0.0121262 2.06334e-22)
(1.0209 0.00319876 -4.415e-21)
(1.01699 0.0232103 -9.15416e-22)
(0.999993 0.000663562 0)
(0.234403 -0.0666956 -9.33925e-20)
(1.00046 0.00601006 0)
(1.00193 0.000307797 -5.39693e-22)
(1.06682 -0.147538 1.24248e-20)
(1.02551 0.0373411 -1.72393e-21)
(0.115877 0.45793 0)
(1.20757 0.148173 -3.40709e-20)
(1.01504 0.0121901 -2.1668e-22)
(1.15631 -0.0291004 0)
(1.01715 0.0102992 -2.0498e-21)
(1.01272 0.19498 0)
(-0.180131 0.0039758 0)
(1.09452 0.0831539 -2.47707e-20)
(0.0523641 0.163352 0)
(0.855079 0.0538695 0)
(0.996393 -0.000255478 5.76712e-21)
(0.975833 0.0348016 -4.31065e-21)
(1.1559 0.110372 1.87757e-20)
(1.00008 0.000521092 1.30222e-22)
(1.21215 0.151853 0)
(1.01187 0.0119955 -2.99402e-21)
(1.16213 0.0362698 2.73848e-20)
(1.00422 0.00761817 -2.57091e-22)
(0.627878 -0.110121 2.66022e-20)
(1.0524 -0.00378208 4.67576e-21)
(1.06237 -0.0242607 -1.71451e-20)
(1.01645 0.0203746 0)
(1.00375 0.00720834 -4.02944e-22)
(1.23099 0.346984 -4.2835e-20)
(0.968437 0.0861761 -3.59494e-21)
(1.05988 0.184388 0)
(0.999165 0.00401446 0)
(1.20063 0.034522 0)
(0.309554 -0.0187739 2.12251e-20)
(0.716447 -0.185048 0)
(0.0365636 0.180527 0)
(0.193429 -0.0389609 -1.59263e-20)
(1.28143 -0.0898059 -1.00258e-19)
(1.01646 1.33735e-05 1.25851e-21)
(0.999971 0.00541782 3.49435e-21)
(1.02028 0.00100216 2.40237e-21)
(-0.00397568 0.180376 -2.48644e-20)
(0.029197 0.00459829 -7.32494e-20)
(1.02619 0.0168443 2.73118e-21)
(1.07409 6.90985e-05 5.63189e-21)
(0.189933 -0.060825 3.16398e-20)
(-0.188864 0.0235338 8.23236e-20)
(0.00285171 0.248275 0)
(-0.20879 0.0201053 -8.11171e-20)
(1.094 0.142305 0)
(1.06663 -0.094457 0)
(1.04482 -0.0064183 1.4844e-20)
(1.20154 -0.0397075 5.60747e-20)
(-0.245087 0.00801639 0)
(1.11805 0.302867 0)
(1.10617 0.0285712 2.84048e-20)
(0.481715 -0.307661 -2.51029e-20)
(0.997871 0.0243099 -4.20827e-21)
(0.950003 0.0176942 2.77539e-20)
(0.999023 0.00330266 1.40675e-21)
(0.947722 0.0170196 -2.21379e-20)
(0.249332 -0.0749358 4.79842e-20)
(1.00309 0.000862418 0)
(0.0681307 -0.298982 -3.02761e-19)
(0.626117 -0.11519 -2.68821e-20)
(0.0750834 0.349655 -2.25959e-19)
(1.08969 0.146692 3.30496e-21)
(-0.0679721 -0.00987685 2.32877e-20)
(1.32895 0.134634 0)
(1.05157 -0.00423304 -2.10781e-20)
(1.15517 0.113555 -4.23331e-20)
(1.0255 0.0169707 2.52894e-21)
(1.11892 0.313682 3.22672e-20)
(1.01739 0.0226071 0)
(1.00002 0.00118323 0)
(1.36068 0.242922 5.70946e-20)
(1.02 0.0010588 0)
(1.02088 0.0034458 3.02755e-21)
(1.05701 -0.0153318 -4.19499e-20)
(1.13873 -0.00469442 -1.29887e-20)
(1.07266 -0.000720559 0)
(0.911275 0.188587 2.18973e-20)
(1.00002 0.00133912 0)
(1.02248 0.0291858 4.74487e-21)
(1.02372 0.00112545 0)
(0.991568 0.0147672 -5.92447e-21)
(1.15218 0.177109 0)
(0.00170944 0.241666 0)
(-0.0228457 0.201351 -4.34439e-20)
(0.99792 0.0486313 7.22701e-22)
(0.997432 0.0235151 5.11864e-21)
(0.377873 0.0303045 0)
(0.974281 0.0309983 7.53693e-21)
(0.908293 0.00304663 2.18994e-20)
(0.298396 0.00863643 0)
(1.06315 0.0115059 0)
(0.279714 0.0210964 0)
(1.04508 0.00307968 7.18087e-21)
(0.973623 0.0321543 0)
(1.12556 0.134302 -6.08541e-20)
(0.109117 0.410685 1.18944e-19)
(1.1083 -0.104254 -4.76448e-20)
(1.00004 0.000565807 -2.48716e-21)
(1.08074 -0.0185684 -4.58162e-20)
(0.0835649 0.317898 1.43434e-19)
(1.00005 0.000575711 -1.58273e-21)
(1.16456 -0.0268647 0)
(1.0099 0.105439 -1.97913e-22)
(1.05016 0.0647601 0)
(0.905875 0.0940165 -2.68861e-20)
(1.07358 -0.00300763 -6.02904e-21)
(1.12498 -0.195222 -2.59403e-20)
(0.504498 0.674534 -3.53818e-20)
(0.21625 0.0513475 -9.8364e-20)
(1.12259 0.0942522 8.15386e-21)
(1.24732 0.0404662 -3.14526e-21)
(1.01413 0.0119206 0)
(-0.0646705 0.0549688 -2.94396e-20)
(-0.00732968 0.00774548 -4.23669e-20)
(1.02251 0.00183317 -1.16371e-23)
(1.02331 0.00188859 -3.86378e-22)
(0.988965 0.0708577 -3.1809e-21)
(0.114953 -0.0129106 0)
(1.06853 -0.0858226 -1.94164e-20)
(1.00034 0.00556046 4.46617e-22)
(1.34452 0.239952 -4.92256e-20)
(0.464397 0.221005 5.12695e-20)
(0.663482 -0.114471 -1.5261e-19)
(1.24792 0.0375623 3.78263e-21)
(1.08716 0.00874108 0)
(1.0056 0.00695728 -1.26886e-22)
(1.17151 -0.188719 3.73951e-20)
(0.151287 -0.0177212 1.74016e-21)
(0.158957 -0.0188716 -6.01526e-20)
(1.25219 -0.0696126 8.73288e-20)
(0.937133 0.00555709 -2.30496e-20)
(-0.259249 0.0180508 2.41335e-19)
(1.06362 -0.144187 0)
(1.00414 0.0249028 -1.83335e-21)
(1.07238 -0.00376333 -5.49613e-21)
(1.01761 -0.113881 4.19026e-20)
(0.890285 0.209993 4.32327e-21)
(0.976269 0.037722 1.90102e-21)
(1.22033 0.0428305 2.00474e-20)
(1.08575 0.00744881 -3.56403e-21)
(1.11755 -0.00844531 4.78276e-20)
(1.02304 0.00203073 1.2016e-23)
(1.05496 0.0179868 5.94105e-21)
(0.940701 0.0457269 1.1737e-20)
(0.157928 0.0752892 0)
(0.119177 -0.0143428 3.85041e-20)
(-0.256482 0.0106431 6.58151e-20)
(0.994883 0.11652 -2.26804e-21)
(0.0844574 -0.266092 1.73218e-19)
(-0.0409103 -0.0012988 0)
(-0.0108376 -0.00654622 -4.78373e-20)
(1.11521 -0.0105068 -5.28432e-23)
(1.02185 0.0300741 0)
(1.04432 0.0034986 4.10034e-21)
(0.673593 -0.17034 -3.64516e-20)
(0.998264 0.0469789 0)
(1.01368 0.0116582 0)
(1.23012 0.336363 0)
(1.0723 -0.273744 1.37495e-20)
(0.659525 -0.164652 -1.33528e-20)
(0.999089 0.00314311 0)
(1.06186 0.0119596 -3.61886e-21)
(1.25823 0.23915 3.45269e-22)
(0.99315 0.0160625 2.40745e-21)
(1.05431 0.181384 0)
(1.02247 0.0284879 0)
(0.118868 0.0436696 1.10928e-19)
(0.984233 0.0363105 0)
(-0.0857179 0.00291246 5.78378e-20)
(0.209322 -0.0181664 -5.051e-20)
(0.545716 0.00566316 0)
(1.02091 0.0300659 -2.71849e-23)
(1.00001 0.000830137 -3.82195e-21)
(1.06109 -0.0229701 -4.9927e-21)
(1.03029 0.0931654 7.66872e-21)
(-0.0581763 0.00389804 2.39382e-20)
(1.01498 0.0579889 4.4831e-22)
(0.999449 0.00432869 0)
(1.00027 0.00538012 8.61702e-24)
(1.14886 0.311567 1.14306e-20)
(1.27944 -0.15013 -2.97314e-20)
(-0.187603 0.0146574 0)
(1.10336 0.0280552 -2.06815e-20)
(1.24646 0.0487056 4.26538e-20)
(1.03861 -0.00403288 -6.183e-21)
(1.01317 0.0122652 9.82514e-22)
(0.981211 0.0367054 -3.27771e-21)
(0.181853 -0.00707728 7.53892e-20)
(1.2764 0.114346 9.74591e-20)
(0.0665936 -0.102583 -3.34897e-19)
(1.10395 -0.103016 3.39378e-20)
(1.0119 0.102227 2.48504e-22)
(1.05454 0.0190378 -6.02083e-21)
(0.210598 0.825203 0)
(1.08734 0.00487824 8.42499e-21)
(0.0160352 -0.0065835 -1.93652e-20)
(0.989524 0.0358673 -4.54435e-21)
(-0.188416 0.0126127 -5.84562e-20)
(0.996381 -0.268346 3.51005e-20)
(1.16609 -0.0227816 -3.34826e-20)
(0.99887 0.0291804 0)
(1.00636 0.000438914 -1.04846e-21)
(1.09052 0.0832272 2.09919e-20)
(1.16513 0.107749 0)
(0.294794 0.116667 -4.91532e-20)
(1.14219 -0.00440688 1.35787e-20)
(1.00866 0.0068561 2.08015e-21)
(1.01317 0.0107582 -3.96415e-21)
(0.999989 0.00095387 4.02137e-21)
(1.25128 0.0432056 5.50412e-20)
(1.08056 0.262273 -1.97112e-20)
(0.584974 -0.0406938 2.71344e-19)
(0.981794 0.0540911 -6.58464e-21)
(0.198827 0.0667365 -2.93763e-20)
(1.25702 -0.0692871 5.45056e-20)
(1.19854 -0.0363967 -6.82337e-20)
(1.03872 0.0302031 -5.84851e-21)
(1.23284 0.0446101 1.81693e-20)
(1.01703 0.0211509 1.91116e-21)
(0.995713 0.0100011 -8.54024e-23)
(1.08674 0.825431 -6.49359e-20)
(1.00936 0.000718689 8.94818e-23)
(1.00422 0.00792976 2.73145e-22)
(1.2027 -0.0287493 2.51575e-20)
(1.00309 0.016771 -3.37155e-21)
(-0.0166352 0.211914 0)
(1.08617 0.00363401 0)
(0.924839 0.0160869 0)
(1.009 0.000707645 2.4796e-21)
(1.12131 0.0979275 0)
(-0.185097 0.00433769 5.63881e-20)
(1.05219 -0.00546333 6.36117e-21)
(1.01547 0.00530191 2.31867e-21)
(0.989053 -3.60328e-05 7.9334e-21)
(1.20456 -0.0790419 -1.38633e-21)
(0.0790555 -0.0388047 8.13189e-20)
(0.999987 0.00101206 0)
(1.00002 5.41498e-05 1.44688e-24)
(1.04682 -0.271477 5.90988e-21)
(1.104 0.142572 -2.2424e-20)
(1.09832 -0.107981 -2.30652e-20)
(0.634558 0.397969 0)
(0.995947 0.00957718 -7.18759e-21)
(1.1608 0.106455 2.18401e-20)
(0.962866 0.0289718 -5.80377e-21)
(1.00003 9.46898e-05 5.03737e-22)
(0.633574 0.367848 0)
(1.12821 -0.200146 0)
(1.07074 -0.233562 0)
(1.20808 -0.0826624 6.60424e-20)
(1.02001 0.00135976 0)
(0.644804 -0.112842 1.13912e-19)
(1.04321 -0.00653431 0)
(1.00343 0.0363317 -1.19691e-21)
(1.32118 0.125588 -8.80713e-20)
(1.00013 0.0219479 2.76267e-21)
(1.25097 0.046762 0)
(0.925569 0.3131 -6.28119e-21)
(0.999998 0.00565702 4.05984e-21)
(1.01798 0.0036166 8.10509e-23)
(1.24647 0.0524793 2.80639e-20)
(0.126966 0.0330881 3.0399e-20)
(-0.00569024 -0.00398553 8.16716e-20)
(1.01797 0.0416186 3.39309e-21)
(0.910207 0.0902842 4.50133e-20)
(-0.173321 0.00407062 6.00101e-20)
(1.03093 0.0027121 7.41255e-21)
(1.27933 -0.143366 2.71615e-20)
(1.05695 -0.0244809 2.68945e-20)
(0.958756 0.145402 3.42505e-21)
(1.29545 -0.138064 1.76858e-21)
(1.01969 0.00141356 6.81236e-23)
(0.502299 0.731498 -3.53784e-20)
(1.00158 0.0342981 1.64745e-21)
(0.907451 0.199452 -5.0072e-21)
(1.00119 0.000313289 0)
(1.09987 -0.105097 5.44819e-21)
(-0.186114 0.00478917 -2.66546e-20)
(0.999942 0.000304025 0)
(0.178158 0.12283 0)
(1.11797 0.0297325 -2.11219e-20)
(0.994967 0.00265894 -1.01367e-20)
(1.14144 0.0848147 -4.81531e-20)
(1.15728 -0.0331734 -1.35795e-20)
(1.00358 -0.0774567 4.18401e-20)
(0.283796 -0.0818666 -4.95022e-20)
(1.0804 -0.114847 -3.78282e-20)
(0.989865 0.0349428 4.58213e-21)
(1.01694 0.00994336 0)
(0.0343276 0.0107893 7.00679e-20)
(0.696787 -0.0738281 0)
(0.999731 0.00514246 -2.33432e-21)
(1.01188 0.0541434 0)
(1.0691 -0.239099 0)
(1.16697 -0.19128 -4.57012e-20)
(0.266645 0.726219 -3.27322e-20)
(0.0652737 0.00785906 0)
(0.997911 0.00400828 -7.71897e-21)
(1.06113 0.0214381 -2.80069e-20)
(0.0463339 -0.156761 0)
(0.998594 0.0243873 0)
(1.01451 0.0562226 0)
(1.26845 -0.0461815 5.78707e-22)
(1.11407 -0.0157623 7.91781e-21)
(1.06318 0.000160964 -1.5292e-20)
(0.170173 0.0378073 -2.37915e-20)
(1.00001 0.00074548 -2.2816e-21)
(0.826346 0.166726 3.63015e-20)
(1.26128 0.243951 4.48182e-20)
(-0.189473 0.00978247 0)
(1.01536 0.00496106 -1.64112e-21)
(0.985283 0.0225485 -1.0756e-20)
(0.993121 0.012344 -5.20263e-21)
(1.02385 0.0182835 0)
(0.829946 0.25606 0)
(1.02444 0.0181271 -6.41693e-23)
(1.11148 0.104144 0)
(0.99348 0.0120063 -1.30739e-22)
(1.0344 0.0737265 2.17591e-21)
(0.997938 0.00382856 7.05087e-21)
(0.939702 -0.00534389 -2.61855e-20)
(1.03371 0.0111363 0)
(1.00971 0.0374695 0)
(1.03218 0.0122937 1.98872e-21)
(1.0322 0.0118893 -8.59894e-22)
(0.996658 0.067744 0)
(0.561349 0.116319 1.43268e-19)
(-0.0532274 0.143384 -7.09162e-21)
(1.02365 0.0282916 0)
(0.875592 -0.0855987 -7.99573e-20)
(0.944523 0.157566 -3.97902e-21)
(-0.0575418 0.142154 -3.27675e-21)
(1.10356 0.000408973 -4.01129e-20)
(1.18109 0.0681048 -2.17387e-20)
(0.979669 0.0374858 6.14395e-21)
(0.940373 -0.0663572 -1.01173e-19)
(0.956491 -0.00377481 -3.29814e-20)
(1.00293 0.000712091 1.36598e-22)
(0.999335 0.00445087 0)
(1.01792 0.00540612 -2.43791e-21)
(0.233967 -0.0711509 3.12185e-20)
(1.06042 0.0461076 0)
(1.01669 2.61928e-05 -3.97665e-21)
(1.13575 0.0263361 -7.26558e-20)
(1.10738 0.10337 0)
(0.998877 0.0252754 0)
(1.03088 0.00227819 -9.91792e-22)
(-0.0263161 0.00567636 1.09413e-19)
(0.976709 0.0360739 -2.11095e-21)
(1.01674 0.0216783 -1.97577e-21)
(0.135584 -0.654722 0)
(1.00354 0.0154995 7.12618e-22)
(0.0558292 -0.0754519 -3.31259e-22)
(-0.249379 0.015985 2.38546e-19)
(1.26675 -0.0505894 6.55568e-20)
(0.911896 0.00148713 -4.69307e-20)
(1.04414 -0.00685854 0)
(-0.157653 0.00257578 -5.53813e-20)
(1.00012 0.000642433 -1.22953e-22)
(0.998585 0.0165327 0)
(0.201901 0.661303 8.40879e-20)
(1.00003 0.000786364 1.81626e-23)
(1.02224 0.00203487 -2.73463e-23)
(-0.255172 0.0177462 1.84048e-22)
(1.01228 0.0119085 1.04454e-21)
(-0.173036 0.00362811 0)
(1.09244 -0.0532741 1.59869e-20)
(1.07737 -0.0930284 0)
(-0.232884 0.0194517 -2.51877e-19)
(0.962781 0.0247828 -2.29659e-20)
(0.998926 0.0161354 1.50744e-21)
(0.706792 -0.134765 0)
(1.14618 -0.0783005 2.72994e-22)
(-0.0660036 0.051581 -1.96824e-20)
(1.06751 -0.0897719 0)
(0.993698 0.0108834 -1.29825e-22)
(1.0053 0.00688711 -7.19272e-23)
(0.973142 0.0290765 9.0256e-21)
(1.04244 -0.250545 -2.70425e-20)
(0.948573 0.203927 4.0653e-21)
(1.00461 0.0381962 2.2887e-21)
(1 0.000530799 -8.75421e-22)
(0.996801 0.0457816 -4.12379e-22)
(0.818692 0.175516 -4.9012e-20)
(0.0643689 -0.175509 0)
(0.988252 0.107316 4.84687e-21)
(0.974026 0.0276565 -1.13699e-20)
(1.00002 0.000755957 -1.13711e-21)
(1.10207 0.00244421 5.2317e-20)
(1.29137 -0.102488 -4.29745e-20)
(0.0986331 -0.0433795 -8.13001e-20)
(-0.183932 0.0121442 5.74986e-20)
(0.852613 -0.0296786 -5.94493e-21)
(0.768453 0.138048 0)
(0.841501 0.183849 -4.01051e-20)
(-0.130152 -0.000459247 0)
(1.04071 0.00293609 0)
(1.00885 0.00960325 8.44773e-22)
(0.989284 -0.00056914 -1.31099e-20)
(1.02367 0.0273013 -2.27822e-21)
(0.81519 0.242333 0)
(0.99617 0.00783909 -4.27831e-21)
(1.01665 -4.52002e-06 -2.34375e-21)
(-0.206467 0.0206969 0)
(0.807549 0.173852 9.07669e-20)
(1.13767 0.0817683 6.72253e-20)
(0.236565 -0.0457049 5.70144e-20)
(0.756258 0.141008 3.65559e-20)
(0.125143 -0.00769376 0)
(1.01222 0.0276721 0)
(1.03289 0.0110867 6.82103e-21)
(0.994551 0.0224544 -2.62033e-21)
(1.00361 0.00679877 9.26852e-22)
(1.00001 0.000368652 1.09271e-22)
(1.00002 0.000618671 2.92861e-21)
(0.995783 0.00903678 2.07314e-21)
(-0.0233829 0.186802 0)
(1.01928 0.0414982 -3.00078e-21)
(1.01954 0.00237459 -3.96756e-21)
(1.31063 0.131146 -8.01277e-20)
(1.2119 0.135071 0)
(1.00852 0.00959567 -8.84208e-22)
(1.05193 4.47389e-05 0)
(0.923577 0.254864 -6.4068e-21)
(1.03327 0.840264 7.53553e-20)
(0.989302 0.0681651 0)
(1.02747 0.0155956 5.92764e-21)
(0.993379 -0.0810415 4.09492e-20)
(0.943591 0.0443817 1.31901e-21)
(0.201624 0.0895997 -7.28208e-22)
(1.05624 -0.0257678 -2.50214e-20)
(1.02392 0.0192138 1.0118e-21)
(-0.182814 0.0112117 -1.88711e-19)
(1.21426 0.132142 4.56633e-20)
(1.01501 0.0090413 -3.55063e-21)
(0.0477797 -0.00839739 -4.9746e-21)
(-0.0112867 0.225514 -3.26208e-20)
(0.0049478 0.0259753 1.0652e-19)
(1.02326 0.0193883 -9.75662e-22)
(1.02706 0.0150703 1.18941e-20)
(1.02784 0.0906053 -8.33967e-21)
(1.19595 -0.088183 0)
(0.963126 0.017216 -1.37563e-20)
(0.225321 0.0632736 0)
(1.08277 -0.255376 -7.35498e-20)
(0.92839 -0.0847451 2.13566e-20)
(1.30981 0.184112 2.28873e-20)
(1.01817 0.00516742 2.53766e-21)
(1.08957 -0.0534946 -2.88334e-20)
(0.170493 -0.0389052 1.60929e-20)
(0.0271201 0.00605789 6.72343e-20)
(0.486425 -0.130374 0)
(0.977323 0.0256854 -3.39005e-21)
(0.980799 0.102018 -1.31306e-21)
(1.00524 0.104599 6.40506e-22)
(-0.0883518 0.00178053 0)
(-0.208577 0.0192553 0)
(1.29469 -0.0881404 1.54569e-19)
(0.985629 0.0370261 0)
(0.992123 0.0144144 8.89016e-21)
(0.998106 0.00227416 0)
(0.944012 0.20831 -1.0704e-21)
(0.996022 0.0086554 1.9886e-21)
(0.776006 -0.146045 4.55428e-20)
(1.00354 0.107296 -2.69108e-22)
(0.292285 -0.085672 -4.56053e-20)
(0.985184 0.014914 -4.77288e-21)
(0.997227 0.0444174 0)
(1.00632 0.000596845 1.25276e-21)
(0.861576 0.0545968 5.39955e-21)
(1.02618 0.13305 1.2114e-21)
(1.2876 -0.108969 -1.40974e-20)
(1.00244 0.014714 1.76828e-21)
(1.18781 -0.0594773 2.9493e-20)
(0.969244 0.847131 0)
(1.07567 -0.0262329 3.23315e-20)
(0.999856 0.0291969 0)
(0.939527 0.0383469 -2.26113e-20)
(1.06813 -0.0327014 3.00806e-20)
(1.00003 0.000790363 -2.3927e-21)
(1.10587 0.0491979 0)
(1.11645 -0.0138169 -3.64219e-20)
(1.07592 -0.0244945 -3.18375e-20)
(1.20649 0.170779 9.76665e-20)
(1.01247 0.0556178 -6.52359e-23)
(1.01493 0.00859092 0)
(0.989957 -0.000617132 3.86455e-21)
(0.99997 0.000249148 0)
(1.11628 0.0985841 0)
(1.06216 -0.000857368 1.40764e-20)
(1.15942 -0.0262684 0)
(1.01194 0.0267932 9.97726e-23)
(1.04482 -0.00328785 0)
(-0.0403671 0.0612028 0)
(1.01934 0.00170068 -6.08442e-21)
(0.846748 -0.0272557 -4.28146e-20)
(0.958691 0.0182134 -8.95104e-21)
(1.18241 0.229768 1.38623e-21)
(0.927803 0.0166609 0)
(0.213354 -0.067129 9.69918e-20)
(1.04744 0.0258987 0)
(-0.173813 0.0128821 0)
(0.926105 0.0589337 3.31114e-20)
(0.934442 0.0285957 -3.11748e-20)
(0.986738 -0.263878 -2.33434e-20)
(-0.0490965 0.0595596 -1.41136e-20)
(1.01714 0.0889508 1.58696e-20)
(1.07333 -0.027357 2.80531e-20)
(1.05905 0.0445624 1.36602e-20)
(1.02337 0.0203432 -1.98967e-21)
(0.993297 0.014191 5.01667e-21)
(1.12711 -0.129594 -2.69049e-20)
(1.13525 0.0948935 2.44216e-20)
(0.969506 0.147197 0)
(1.06647 0.269641 1.54822e-20)
(-0.0200173 0.197918 5.09941e-20)
(1.10554 -0.200497 -5.10269e-20)
(1.00522 0.000559679 -5.97125e-22)
(0.0425876 -0.00520107 9.40571e-20)
(0.984756 -0.0127939 7.23443e-20)
(1.05199 -0.00189345 2.09286e-20)
(0.992782 0.014431 -1.63636e-20)
(0.844991 -0.0209301 -1.82886e-20)
(0.14969 -0.0348325 8.14353e-20)
(1.08834 0.0866183 -5.31091e-21)
(1.00011 0.00219122 4.73754e-21)
(0.698439 0.0346572 2.46995e-21)
(1.20056 0.170925 -8.61085e-20)
(1.13082 0.143608 0)
(0.871018 0.0494123 -6.92555e-20)
(0.624247 0.786371 0)
(1.07458 0.00233503 -5.46643e-21)
(1.1992 -0.0196981 0)
(-0.042847 -0.00226198 0)
(1.29463 -0.129417 -1.36665e-19)
(1.31795 0.12971 -5.26813e-20)
(0.828937 0.213064 -2.04274e-20)
(1.13849 0.308826 1.06807e-20)
(1.08556 0.0124262 3.02633e-20)
(1.00182 0.000379167 4.81834e-22)
(1.05271 -0.00249764 -2.10774e-20)
(0.993972 0.0240917 8.68498e-21)
(0.405773 0.0175881 1.33891e-19)
(0.46997 -0.24882 1.6451e-20)
(0.137564 -0.0215967 0)
(0.581409 0.113861 -1.23837e-19)
(-0.138671 0.00170003 2.65358e-20)
(-0.0171016 0.145303 -3.37006e-22)
(0.710974 0.0262365 -1.3482e-20)
(0.985503 0.0743875 2.28177e-21)
(0.0585232 -0.0120474 -7.1471e-20)
(0.696857 0.0583109 9.35896e-21)
(1.02409 0.00159979 0)
(0.544968 0.081524 -8.1726e-20)
(0.0352301 0.228017 0)
(1.00442 0.0272864 0)
(0.992258 0.109266 0)
(1.01727 0.00404879 2.23616e-21)
(1.07352 0.00339232 0)
(1.07158 -0.0068315 0)
(1.0663 -0.0325769 -3.90683e-20)
(1.19362 0.0239434 8.94065e-22)
(1.00053 0.0225891 -3.13852e-21)
(-0.154843 0.0112498 -6.3921e-20)
(0.994332 0.068811 1.04379e-20)
(0.967996 0.0799878 8.07856e-21)
(-0.0754345 0.000578824 2.57987e-20)
(1.00997 0.0254193 -9.55363e-23)
(1.02392 0.138127 0)
(0.547511 -0.146434 -3.69148e-20)
(0.998705 0.0153535 7.56093e-21)
(1.04347 0.0445845 8.31298e-21)
(0.00383007 0.00714198 7.75574e-20)
(1.01045 0.00316162 2.59226e-21)
(1.18616 -0.0625009 1.7361e-22)
(1.01967 0.00166959 5.38599e-21)
(-0.0207799 0.184008 2.99104e-22)
(1.07329 -0.0289135 -2.98683e-20)
(1.10257 -0.040304 -2.90055e-20)
(0.963908 0.149547 0)
(1.05407 0.0712626 -3.91315e-21)
(1.19472 -0.0838306 0)
(0.918727 -0.00110318 -3.82131e-20)
(0.300309 0.0257198 0)
(1.11461 -0.0977518 0)
(1.0383 -0.000643274 0)
(-0.215102 0.0100252 6.54161e-20)
(1.10239 -0.0428464 3.31846e-20)
(0.554405 0.796023 0)
(-0.263001 0.0127828 -1.15387e-20)
(1.28994 0.131477 1.11231e-19)
(1.27863 -0.0961893 5.33162e-20)
(0.997579 0.0228831 0)
(1.0188 0.00614809 -1.29527e-21)
(-0.0120833 0.22924 8.1161e-21)
(0.937326 0.0400598 -2.81343e-20)
(1.10862 0.0482703 -8.64598e-21)
(1.00006 0.00167855 -5.1462e-21)
(1.08718 0.0114108 -2.96034e-20)
(0.89185 -0.0260369 6.11543e-21)
(0.46527 -0.0358911 -2.87404e-20)
(1.11523 0.102215 0)
(-0.230132 0.00889148 0)
(0.815676 0.229162 -2.91299e-20)
(1.01449 0.0705481 -1.83916e-21)
(1.01751 0.00430935 -7.18874e-21)
(1.00011 0.00200742 -7.02098e-21)
(1.13923 0.0268061 7.8351e-20)
(1.08374 0.255789 0)
(1.02839 0.0085236 0)
(1.14118 0.112087 6.11201e-20)
(0.995572 0.12103 4.50027e-21)
(1.10011 0.144773 0)
(1.01543 0.000116252 1.95959e-22)
(0.0167549 -0.00739812 2.14892e-20)
(-0.0578716 0.00491279 -8.92471e-20)
(0.992441 0.0246713 0)
(1.02381 0.00204558 1.44829e-21)
(1.14121 -0.0846715 -3.26886e-20)
(1.00006 0.00151603 4.45752e-21)
(1.01548 0.00928187 8.47802e-22)
(-0.026858 0.128956 0)
(0.546085 0.0981474 0)
(0.967293 0.0265705 5.14434e-21)
(0.993759 0.0148761 1.30063e-20)
(1.10076 -0.167357 3.50182e-20)
(1.1323 0.0875739 0)
(1.06176 -0.0259171 5.4279e-21)
(0.70753 -0.0635919 7.34178e-20)
(1.01026 0.0365371 -3.45909e-23)
(0.186584 -0.0469669 0)
(1.13821 -0.0263753 5.08277e-20)
(0.982795 0.0339167 0)
(0.431524 0.159513 0)
(-0.0160451 0.0078761 0)
(1.0039 0.0083948 1.29295e-21)
(0.523231 -0.0395268 -2.87068e-20)
(1.01618 0.00539355 -4.06586e-23)
(0.999003 0.0150525 -5.935e-21)
(0.963092 0.0155614 1.32664e-20)
(0.824446 -7.96974e-05 0)
(-0.0446715 0.00926769 5.74161e-20)
(1.11572 0.0315916 0)
(-0.026333 -0.00674817 0)
(1.01414 0.142102 -5.71495e-22)
(0.437422 -0.0949165 0)
(1.33951 0.187442 -3.00582e-20)
(1.08644 0.0152656 3.09887e-20)
(-0.152157 0.00266542 0)
(0.98497 0.0237066 1.15674e-20)
(0.533236 0.0326807 -7.13729e-20)
(1.05264 -0.000653299 -5.80105e-21)
(0.281144 -0.0044854 -2.50006e-20)
(0.0545503 -0.0212308 -3.58701e-20)
(0.996664 0.0413574 -9.20891e-21)
(0.128212 0.569401 6.40012e-20)
(1.02732 0.0850627 0)
(0.922476 0.0604886 -5.23653e-20)
(0.894189 0.0754172 -1.24196e-19)
(0.654266 0.0928013 1.5175e-19)
(-0.136747 0.001104 4.07807e-20)
(1.01032 0.0103796 -1.38917e-21)
(0.225258 -0.0677449 -5.42108e-20)
(0.988349 0.013339 -7.55567e-21)
(0.352221 2.7347e-05 1.51225e-20)
(1.04286 0.00400688 4.12879e-21)
(0.999415 0.108397 -1.84553e-21)
(1.0691 -0.0305697 0)
(1.01226 0.0143081 3.10189e-21)
(1.01505 0.00071164 -2.65601e-21)
(1.12362 -0.0499013 -6.30683e-20)
(1.0071 -0.0933134 4.27936e-20)
(1.0672 0.0306651 3.79086e-20)
(1.00508 0.00648598 2.05096e-22)
(0.142196 0.160817 8.08188e-20)
(1.08483 0.0163838 -2.7426e-20)
(1.01172 0.0141808 8.96521e-22)
(0.997937 0.00239557 0)
(0.940742 0.0996697 0)
(1.21169 -0.063275 -9.16544e-21)
(0.767071 0.0581654 6.47493e-20)
(1.11204 0.0314603 0)
(1.00988 0.00051358 1.12026e-21)
(1.0348 0.0982028 -1.11359e-20)
(0.212103 -0.0672723 2.79742e-20)
(0.996475 0.106632 4.1414e-21)
(0.999412 0.0220213 0)
(1.01253 0.0146572 -3.75241e-21)
(1.0369 0.100602 1.2756e-20)
(1.09986 0.0240819 -4.01094e-20)
(-0.2004 0.00779475 -6.18042e-20)
(1.00975 0.0245421 9.1205e-23)
(1.16091 0.452958 -8.18584e-20)
(0.896878 0.21756 -1.27061e-20)
(1.0533 -0.00996528 -1.39861e-20)
(-0.0038195 0.025667 -6.39819e-20)
(0.0482857 0.179864 -4.61696e-20)
(1.01719 0.00307946 -4.23996e-21)
(1.07924 -0.085676 0)
(1.0043 0.0242038 1.53884e-22)
(1.02069 0.0456732 0)
(1.08597 -0.00031273 0)
(0.0412775 0.211956 5.2488e-20)
(1.0083 0.0059235 7.88308e-22)
(1.02278 0.0205131 2.05813e-21)
(1.01352 0.000515309 2.54835e-21)
(0.643526 0.039652 -6.46273e-20)
(0.958703 0.0498708 0)
(1.03886 -0.000965631 0)
(1.04628 0.130062 3.07481e-21)
(1.08459 0.0862087 0)
(0.202527 -0.0248078 0)
(-0.230004 0.00708517 6.85575e-20)
(1.00391 0.0116361 0)
(0.987464 0.00655506 1.04467e-22)
(0.161433 -0.0203414 0)
(0.98421 0.0345701 0)
(0.0057495 -0.00488065 7.81858e-20)
(0.0701188 -0.0290942 0)
(-0.042565 0.000783571 -8.9197e-20)
(0.66254 0.352625 2.83659e-20)
(0.82178 0.445521 -2.3065e-20)
(1.02786 -0.211857 3.33593e-20)
(1.07132 -0.0307304 -1.85726e-21)
(0.999226 0.00307023 0)
(1.01269 0.0123417 -1.16619e-21)
(1.00124 0.035525 0)
(0.969777 0.0247606 2.14202e-20)
(0.99971 0.00539821 0)
(0.968172 0.0245633 -2.1286e-20)
(0.848442 0.0309728 0)
(-0.00434712 0.239967 -2.33718e-20)
(1.03814 0.0311967 0)
(0.663012 0.184305 -6.90787e-21)
(1.01016 0.00389759 -8.45083e-22)
(1.0164 0.0699814 1.73432e-21)
(1.10444 0.107788 3.64519e-20)
(1.00037 0.00605319 5.56649e-21)
(0.966417 0.0821948 0)
(1.04439 0.0456649 1.078e-20)
(0.352762 0.0233057 3.38227e-19)
(0.0952931 -0.109496 2.11471e-19)
(1.16217 0.0997901 -4.22192e-20)
(-0.110384 -0.000761143 3.93562e-20)
(0.834316 0.191724 4.2119e-20)
(0.0818908 0.150092 6.48025e-21)
(1.08741 0.267244 3.45405e-20)
(0.626662 -0.152083 8.9442e-20)
(0.0382104 -0.00130528 -5.4186e-20)
(1.14077 -0.0238706 -8.18948e-20)
(0.918296 0.779799 0)
(1.10925 -0.205406 5.99415e-20)
(-0.263817 0.0118051 9.25594e-21)
(1.03571 0.0041621 -2.12883e-21)
(0.993343 0.0112907 9.17926e-21)
(1.00361 0.0063101 -3.95323e-22)
(1.07298 -0.00588294 6.06074e-21)
(0.820029 -0.231466 3.12771e-20)
(1.01362 0.0110975 4.13685e-21)
(0.999948 0.000480229 5.19393e-21)
(1.18994 0.0336475 0)
(1.00777 0.00331643 0)
(1.01005 0.200842 3.47897e-21)
(1.00833 0.188686 0)
(1.00026 0.000790247 -5.33593e-22)
(1.06179 -0.225137 1.94104e-20)
(1.03807 0.00053305 1.08759e-20)
(0.986866 0.0062359 -9.27536e-21)
(1.10434 -0.171827 0)
(1.01683 0.00795602 0)
(1.23221 0.0975433 8.76412e-20)
(0.440555 -0.252247 -7.58773e-20)
(0.999974 0.0393598 0)
(1.04814 -0.00516112 1.86067e-22)
(1.01141 0.0137751 0)
(0.934332 0.272699 1.23609e-20)
(1.00863 0.00649657 -1.14717e-22)
(1.04818 0.0533155 0)
(1.30392 0.198632 1.09806e-19)
(0.988079 0.000613089 -8.49967e-21)
(0.0445447 0.00636408 1.0173e-19)
(1.03817 0.0268785 5.14321e-21)
(0.0668962 0.00806268 1.11729e-19)
(1.05903 -0.010804 0)
(1.09821 -0.141804 1.61608e-20)
(0.99898 0.0132282 0)
(1.08042 -0.106595 0)
(1.10005 0.106983 -4.1191e-20)
(0.999299 0.00288781 1.52223e-21)
(1.0008 0.0402879 0)
(0.0703746 0.00790989 -3.66237e-20)
(0.992645 0.0156108 0)
(-0.267941 0.0118263 0)
(-0.258141 0.0119771 -1.06313e-20)
(0.980706 0.0525568 8.40779e-21)
(1.00132 0.000325994 7.54539e-22)
(1.00055 0.00621372 -3.03085e-21)
(1.02043 0.00379674 -6.72448e-21)
(-0.0304818 0.126387 0)
(0.99439 0.0146262 -4.39498e-21)
(0.101598 0.0066705 8.75074e-21)
(-0.0083327 0.252365 2.92179e-20)
(1.10442 0.137007 -1.20615e-20)
(-0.00250801 0.0428546 7.77022e-20)
(1.01027 0.000671094 0)
(1.00328 0.021351 -1.00314e-21)
(0.00113769 -0.00475102 0)
(0.00723107 0.00141786 3.94452e-20)
(0.920831 -0.00339914 2.35508e-20)
(1.00034 0.00973595 -2.35964e-21)
(0.99526 0.0228665 5.47066e-21)
(1.0132 0.0117879 0)
(1.04901 -0.00817293 1.58705e-20)
(0.860798 0.177873 -3.39725e-21)
(0.350317 0.387916 9.29589e-20)
(1.04928 0.0717792 0)
(0.189101 0.0928447 2.18128e-20)
(0.116659 0.167632 0)
(1.09569 -0.272975 0)
(0.854273 0.0681207 6.92169e-21)
(1.03487 0.0170197 -1.46163e-21)
(-0.216033 0.0101812 7.37794e-20)
(-0.0586522 0.0465291 0)
(1.049 0.12839 -3.92023e-21)
(0.999213 0.012934 1.39077e-21)
(0.976846 0.0232042 3.65212e-21)
(0.083672 0.00142789 -6.85546e-20)
(0.995915 0.00819143 -4.5516e-21)
(-0.0214913 0.177001 4.04189e-20)
(0.82908 0.245315 0)
(1.00007 0.000801457 -2.08473e-23)
(0.944692 0.101264 8.99319e-21)
(1.01654 0.000124536 0)
(1.11031 0.0300768 0)
(1.06854 0.0702054 6.74446e-21)
(1.00755 0.00314174 0)
(1.01875 0.0018064 4.90893e-21)
(1.04796 -0.00775973 -4.77773e-21)
(-0.177679 0.00622275 -1.67474e-19)
(1.00022 0.00125984 -7.68261e-22)
(1.06547 -0.0884284 -1.31926e-20)
(-0.100212 -0.00536966 0)
(0.977529 0.0216536 3.56584e-21)
(1.00308 0.0161634 2.61262e-21)
(0.824588 0.155411 -3.47614e-20)
(0.115192 0.146039 2.38061e-20)
(1.10179 0.00715899 -5.52117e-21)
(-0.0270001 0.00839 4.20139e-20)
(0.957209 -0.00185443 4.602e-23)
(1.02045 0.00355855 8.3288e-21)
(0.93746 0.00227831 8.79495e-22)
(0.0365842 -0.00413497 6.86605e-20)
(0.408736 0.174142 -8.12408e-20)
(0.17877 0.110458 1.38026e-19)
(1.00962 0.000479078 1.33752e-21)
(0.865034 0.0477388 4.82471e-20)
(1.00271 0.0340865 -1.59004e-21)
(-0.0542737 0.00852804 5.24256e-20)
(1.02461 0.00834833 -4.25398e-21)
(1.07254 -0.2244 -1.71425e-20)
(0.853301 0.187085 2.05374e-21)
(-0.0368526 0.131151 -1.60805e-20)
(1.00043 0.0016594 -1.43764e-21)
(1.00499 0.0021122 -2.56356e-22)
(0.798164 0.451725 0)
(0.997295 0.0215543 -4.75524e-21)
(-0.196906 0.00724035 1.19221e-19)
(1.04013 0.0035602 2.9816e-21)
(0.183636 0.522306 -1.12678e-19)
(1.00005 0.000688079 1.62351e-21)
(1.01274 0.0108785 1.26657e-21)
(0.9311 0.0255575 0)
(1.13968 0.445402 7.24038e-20)
(-0.190311 0.0205943 -1.34314e-19)
(1.02863 0.0963143 3.79471e-21)
(1.04874 0.01982 -9.29704e-21)
(0.961589 0.0235126 0)
(1.0386 0.000132455 -5.64987e-21)
(1.02856 0.00805372 -6.64164e-21)
(0.999977 0.000366722 0)
(1.21277 0.0265705 0)
(1.00423 0.0488488 0)
(0.473623 -0.115072 -5.01647e-20)
(1.01006 0.0748778 -1.40934e-23)
(-0.0259299 -0.00276176 -4.13733e-20)
(1.03719 0.0040339 0)
(1.02026 0.00452606 -1.60081e-21)
(1.28735 0.171101 -4.80038e-20)
(0.00885893 -0.00181176 0)
(0.587441 -0.0404977 -2.34381e-22)
(1.01607 0.0518154 -1.14518e-21)
(0.338332 -0.0265807 -2.1429e-20)
(1.03779 0.00354567 0)