/*--------------------------------*- C++ -*----------------------------------*\
| =========                 |                                                 |
| \\      /  F ield         | OpenFOAM: The Open Source CFD Toolbox           |
|  \\    /   O peration     | Version:  v2012                                 |
|   \\  /    A nd           | Website:  www.openfoam.com                      |
|    \\/     M anipulation  |                                                 |
\*---------------------------------------------------------------------------*/
FoamFile
{
    version     2.0;
    format      ascii;
    class       surfaceScalarField;
    location    "100";
    object      meshPhi;
}
// * * * * * * * * * * * * * * * * * * * * * * * * * * * * * * * * * * * * * //

dimensions      [0 3 -1 0 0 0 0];
oriented        oriented;


internalField   nonuniform List<scalar> 
27274
(
-0.000128912
0.000182094
-5.32814e-05
-9.93475e-06
4.59637e-05
-3.6029e-05
-0.000248832
-5.68851e-05
0.000304224
0.000222475
-1.00911e-05
-0.00022005
0.000125746
0.000117849
-0.000244531
5.67011e-05
6.07456e-05
-0.000117473
-0.000167198
-7.60374e-05
0.000238766
-1.23019e-05
-0.000103828
0.000116091
0.000157557
6.16604e-05
4.01351e-05
-4.97777e-05
9.64253e-06
-2.83591e-05
-0.000214659
0.000238632
3.56784e-05
1.488e-05
-5.05585e-05
0.000113455
-4.69791e-05
-6.6487e-05
-0.000237218
0.000274693
-3.76535e-05
-0.000321138
0.000127861
0.000192172
0.000213587
-0.000137169
-7.66227e-05
-4.2628e-05
4.86641e-05
-6.03608e-06
0.000369946
-0.000191292
-0.000182912
-6.36501e-05
-0.000178236
0.000241061
7.82514e-06
4.39729e-05
-5.17988e-05
0.000167027
-1.03936e-05
-0.000156733
0.000293239
-0.000174824
-0.000118705
-4.98832e-05
4.90615e-05
8.21621e-07
-9.01567e-05
0.000215058
7.39728e-05
-0.000210352
-0.000137912
0.000193704
-5.73221e-05
-3.39993e-05
0.000204974
0.000170074
1.85083e-05
-0.000188632
-4.05469e-05
-1.42889e-05
5.48357e-05
0.000272135
-0.000341596
6.84797e-05
0.000263265
-7.48677e-06
-0.000257062
-0.000115359
0.000264961
-0.000150239
0.000212923
0.000151969
3.54742e-05
-1.41873e-05
-3.53632e-05
0.000130809
-0.000117224
-1.36176e-05
1.91133e-05
-0.000148105
3.56497e-07
0.000194931
-7.93665e-05
-2.27308e-05
0.00010209
-1.91626e-05
0.000189222
2.82879e-05
0.000216497
-0.000248926
-0.000271165
3.37644e-05
-5.84217e-05
-3.66891e-05
9.51035e-05
1.335e-05
-0.000263606
-2.69192e-05
4.97942e-05
-2.2875e-05
-1.41287e-05
-3.35049e-05
3.39747e-05
2.87698e-06
-8.2248e-05
9.71873e-05
2.56574e-05
-0.000122884
0.000212643
-0.000175374
-3.73169e-05
-8.23119e-05
-6.18519e-05
0.000144113
1.13857e-05
-0.000214716
0.00019983
-0.000120417
0.00023233
-0.000117167
0.000323102
-0.000273013
-5.19159e-05
3.99699e-05
-4.08916e-05
6.9397e-07
-5.41963e-05
1.7005e-05
3.71912e-05
-0.000232058
8.7392e-05
0.00014229
-1.23431e-05
-9.28264e-06
1.39404e-05
0.000107149
-2.19566e-06
-0.000104977
-0.000123493
-0.000198429
-5.52545e-05
2.37161e-05
3.15384e-05
-0.000112831
4.15869e-05
7.1235e-05
0.00020006
-0.000192011
-8.58337e-05
-4.53132e-05
0.000131105
0.000293245
-0.000112372
-0.000185037
-0.00014049
7.12258e-05
6.92314e-05
4.52842e-05
-9.60575e-06
0.000113321
6.86553e-05
-5.03711e-05
2.64816e-05
2.38895e-05
9.96369e-05
4.48223e-05
-0.000144472
0.000202264
0.000168611
0.000124349
-7.54398e-05
-4.24014e-05
0.000117818
-1.51571e-06
-1.94557e-05
1.94128e-05
-4.39983e-05
-6.88412e-05
6.87631e-05
0.000182806
-0.000255273
0.000112445
-0.000124789
-0.000245233
7.45147e-05
-1.64701e-05
6.09475e-05
-4.44778e-05
0.000150885
7.1702e-05
-0.000223175
0.00019518
-0.000140666
-5.47584e-05
-0.0002352
0.000282699
-4.95987e-05
0.00018675
-0.000267606
7.95927e-05
-6.89973e-05
-1.0597e-05
-2.47615e-05
0.000191647
6.9647e-05
-0.00012229
5.26133e-05
-0.000198836
5.96582e-05
2.3332e-05
9.01106e-05
-5.5345e-05
2.95079e-05
2.5837e-05
-5.19751e-05
5.97993e-05
-5.82117e-05
1.76648e-05
4.63309e-05
-5.62611e-05
9.93002e-06
-8.28742e-05
8.33796e-06
7.45322e-05
3.77585e-05
-7.02909e-05
3.53714e-05
-0.000194577
0.000157298
0.000263506
-0.00021675
-5.34776e-05
-5.26909e-05
5.26909e-05
-4.32863e-06
-4.55546e-05
5.08469e-05
0.000169941
-0.000222584
0.000173365
2.15616e-05
-0.000195208
-1.67549e-05
-3.74415e-05
-4.03591e-05
-6.86973e-06
4.72289e-05
-4.27446e-05
4.89164e-05
-6.17174e-06
-6.86301e-06
-3.6365e-05
4.3228e-05
-9.93897e-05
-8.31026e-05
0.000182431
1.88539e-05
-7.5306e-05
5.64507e-05
7.74683e-05
0.000150039
-0.000228339
0.000108122
-1.41162e-05
-9.40215e-05
2.16283e-05
2.22976e-05
-4.39259e-05
-9.95994e-05
6.97854e-05
2.98076e-05
0.000199207
-0.000124579
-7.47379e-05
4.3792e-05
4.1411e-05
-0.000105268
0.000292648
-0.000188369
-0.000157288
-5.05922e-05
0.000207829
-0.000108423
0.000182363
-7.44696e-05
-0.000230713
7.33842e-05
4.80568e-05
-6.12362e-05
1.31793e-05
3.72211e-05
5.54705e-06
-5.18889e-05
2.89317e-05
-4.20564e-05
1.31247e-05
4.1355e-05
-5.78256e-05
-3.85135e-05
4.28305e-05
-4.31694e-06
4.64348e-05
-0.000145878
4.96115e-05
-9.47634e-06
6.87985e-05
-6.47042e-05
-4.09568e-06
-7.80317e-05
0.000228351
3.21431e-05
-0.000107602
0.000225074
-0.000176041
-4.89883e-05
-5.06163e-05
0.000276995
4.37826e-05
5.85608e-05
-5.20641e-05
-6.07962e-06
8.32786e-05
-3.39033e-05
-4.93763e-05
2.94125e-05
0.000226519
0.000118793
-0.000244391
2.86759e-05
4.08138e-05
-6.9491e-05
-0.000141738
4.06252e-05
0.000101062
-4.05338e-05
0.000213612
-7.589e-05
-4.83504e-05
0.00012422
5.20369e-05
5.88707e-06
-0.000183717
0.000361824
-0.000179312
0.000165691
-0.000197695
0.000240752
-0.000341163
9.97534e-05
-9.07421e-05
-1.98838e-05
0.000110611
-3.37915e-06
-3.93655e-05
4.04545e-05
5.67608e-06
-4.61306e-05
0.000227011
-0.000252906
2.53472e-05
0.000117914
-0.000223977
-3.59739e-05
-3.39421e-05
6.9916e-05
3.94313e-06
-0.000228154
0.000223915
-8.12975e-05
0.000185885
-0.000104585
-4.36343e-05
5.54328e-05
-1.17986e-05
0.000241571
-5.27308e-05
-0.000189251
1.66852e-07
-4.38012e-05
0.000272063
-0.000233843
-3.92223e-05
-0.000171106
9.87345e-05
3.20534e-05
-2.36366e-05
-3.16179e-05
0.000120427
4.52245e-06
-0.000124982
2.89933e-05
-1.96495e-05
-1.02533e-05
-3.72217e-05
6.58965e-05
-3.10032e-07
-3.82035e-05
1.57248e-05
1.24952e-05
-3.21038e-05
0.000128247
-9.61783e-05
0.000211742
-0.00011845
-9.34126e-05
-0.000228694
9.17143e-05
0.000136698
8.446e-05
-0.000154353
6.98545e-05
0.000147043
-0.000187827
-9.78487e-05
1.85127e-06
9.59887e-05
3.50594e-07
5.22108e-05
-5.25615e-05
-6.32712e-05
1.50461e-05
4.82249e-05
-9.99367e-05
-5.51167e-05
0.000154993
-1.45236e-06
-7.19459e-05
7.3393e-05
0.00019078
7.19835e-05
-0.000266162
-6.98975e-05
6.35418e-05
6.35582e-06
5.44344e-05
-2.11429e-05
-3.32915e-05
-0.000271549
0.000162873
0.000103163
0.000234951
-0.000266771
2.69053e-05
0.000144702
6.86598e-05
5.4165e-05
-3.38898e-05
-2.02753e-05
-9.29727e-05
-5.79597e-05
0.000150875
-0.00015015
0.000215541
-6.70259e-05
2.80382e-05
5.5239e-05
-6.2233e-05
4.26101e-05
1.96228e-05
6.30694e-05
-0.000111376
4.83076e-05
5.64562e-05
-5.79127e-05
0.000158879
2.20625e-05
-0.000181131
-9.51026e-05
-0.000121012
0.000211004
-4.5764e-05
0.000100227
-5.44681e-05
-4.80382e-05
-1.09229e-06
4.91305e-05
-6.10036e-05
5.46327e-06
5.55402e-05
-9.09465e-05
9.55585e-06
8.13847e-05
-0.000238971
0.000187656
5.12925e-05
9.57781e-06
-5.22058e-05
0.000117696
0.00028839
-0.000250123
-3.96594e-05
-5.03013e-05
0.00019709
8.4638e-05
-5.39614e-05
-3.06777e-05
2.72382e-05
9.11292e-05
-0.000118384
2.12241e-05
-0.000212702
0.000191196
1.09507e-05
-6.35953e-05
5.26432e-05
-4.05975e-05
0.000199281
9.55657e-05
5.05202e-05
-0.000146172
-4.14256e-05
-3.5649e-05
0.000194285
-0.000159172
0.000122725
-0.000214776
9.19604e-05
5.91329e-05
-6.51296e-06
-5.26201e-05
-1.57637e-05
-4.524e-05
-2.92966e-05
5.12126e-05
-2.1916e-05
-8.98065e-05
-7.90701e-05
0.000168768
-1.75717e-05
4.65034e-05
6.70717e-05
-2.7414e-05
-3.96579e-05
6.06612e-05
-1.76725e-05
-4.29887e-05
-7.53692e-05
0.000170836
7.62544e-06
-0.000192374
0.000224664
4.65067e-05
9.33039e-06
-5.79362e-05
4.86051e-05
-1.72785e-05
0.000243675
0.00027948
-9.32643e-05
1.54468e-05
6.41439e-05
-9.30615e-05
3.21305e-05
6.09282e-05
-4.26454e-05
7.86009e-05
-0.00018693
0.000214297
2.6777e-05
-9.29362e-05
6.62295e-05
2.67042e-05
-0.000327616
0.000256648
7.00092e-05
0.000133859
-6.42496e-05
0.000141988
0.000218353
-5.60387e-05
-7.2327e-06
0.000271565
-6.08987e-05
-0.000211095
5.97439e-05
-2.02396e-05
-3.95043e-05
-4.86715e-05
4.73708e-05
1.30065e-06
-3.86141e-05
-4.32101e-05
8.18241e-05
-0.000232731
0.000239065
3.20538e-05
7.65698e-06
0.00014085
5.40649e-05
0.00013218
-0.000209567
7.72134e-05
7.37914e-06
5.23647e-05
0.000229448
-0.000226842
-3.04252e-06
-0.000143813
0.000193867
-5.14694e-05
-0.000169096
1.72346e-05
6.47163e-05
-8.95175e-05
2.4797e-05
1.47129e-05
5.45521e-05
-6.92674e-05
1.45684e-05
9.22394e-05
0.000106821
-6.64796e-05
-3.15596e-05
9.80331e-05
-0.000238474
7.8741e-05
-6.85956e-05
0.000305616
-0.000241485
-0.000237468
-3.8902e-05
0.000275982
-6.87048e-06
-4.1801e-05
7.96467e-05
-1.49838e-05
-6.46642e-05
4.56082e-05
-1.42205e-05
-3.13877e-05
-1.57557e-05
0.000136147
0.000124741
8.68606e-05
-0.000197619
0.000161442
-2.39599e-05
-1.4569e-05
3.85289e-05
0.000133893
-0.000174662
8.12217e-06
5.25389e-05
0.00011577
-0.000233675
0.000117405
1.13159e-05
-5.02913e-05
3.89753e-05
1.90502e-06
-7.42539e-05
7.23466e-05
9.21584e-05
-0.000124295
0.000284726
-0.000243358
-4.22063e-05
-1.88395e-05
-1.51113e-05
2.24402e-05
-6.36778e-05
0.000176888
0.000130587
-5.41581e-05
-7.64491e-05
-1.63617e-06
6.07688e-05
-9.847e-05
-4.33134e-05
0.000243808
-0.000108264
-0.000141499
-0.000200519
-6.23819e-05
0.000258685
5.726e-05
-2.34747e-05
-3.45985e-05
-9.53284e-06
-6.24176e-05
0.000105043
-9.9362e-05
-5.69018e-06
4.54649e-05
5.27954e-05
-9.82598e-05
-0.000119646
-0.000102384
0.000221755
-2.27714e-06
3.37788e-05
-3.15017e-05
-2.76669e-05
-6.32842e-05
6.12474e-06
0.000101984
-0.000181248
0.000279479
-9.90433e-05
-6.15978e-05
7.25469e-05
-0.000312102
7.4807e-05
6.48056e-05
-0.000252994
0.000187134
-7.02653e-05
4.63644e-05
2.39007e-05
-1.2618e-06
-3.66503e-05
2.68464e-05
-3.32573e-05
-0.000215141
-2.80073e-05
0.000113939
-8.59477e-05
0.000235845
-0.000312434
7.46427e-05
-1.21546e-05
4.65631e-05
-3.44086e-05
-4.95129e-05
0.000183231
0.000103317
8.96784e-05
-0.000193018
2.67141e-05
-3.95973e-05
3.85363e-05
-0.000138526
4.97133e-05
-4.70938e-05
-2.61954e-06
-0.000193874
0.000245033
-3.04464e-05
-0.000297037
5.3798e-05
0.000243406
-0.000108426
1.69458e-05
9.14691e-05
4.14091e-05
8.13108e-06
-4.95402e-05
3.89862e-05
1.81118e-05
-3.01457e-06
-3.16121e-07
2.68213e-06
-5.02395e-05
-4.2824e-05
-4.39445e-05
0.000120975
-7.70663e-05
0.000146351
-2.36725e-05
-0.000122712
-3.15156e-05
7.03909e-05
-3.88762e-05
-0.000196383
0.000260042
8.81632e-05
-0.000271319
0.000218565
5.25497e-05
-5.52949e-06
1.38196e-06
4.89702e-05
-8.04868e-05
-2.73143e-05
-7.05412e-05
-0.000119289
4.24365e-05
7.68455e-05
-3.67842e-05
-7.16526e-05
0.000237351
-0.000214815
9.13751e-05
-2.83049e-05
-0.000250949
0.000220543
-0.000276616
0.000212053
5.10707e-06
7.45381e-05
0.000113805
-0.000317898
0.000202692
-7.60172e-05
4.59003e-05
-0.00010433
0.000183175
-0.00014948
-7.38588e-05
0.000224748
-0.000157444
4.05731e-05
-7.21373e-05
1.46533e-05
-3.79882e-05
2.33349e-05
1.66628e-05
5.04088e-05
0.000145663
-0.000237251
9.08955e-05
0.000172558
-8.8144e-05
2.00983e-05
-4.70174e-05
1.49932e-05
-0.000234952
0.000218045
7.90786e-05
-6.43684e-05
-0.00016997
-4.50875e-05
0.00021476
6.78829e-05
-0.000163864
9.59316e-05
1.58296e-06
7.74926e-05
1.69886e-06
0.000228148
3.92383e-05
-3.88878e-05
-0.000216131
0.000267875
-5.25785e-05
-0.000137566
6.16555e-05
1.84163e-07
1.38648e-05
-1.96788e-05
0.000130558
3.62146e-05
-4.1292e-05
5.07739e-06
3.29737e-05
-4.95854e-05
1.66074e-05
-3.34049e-05
-2.88283e-05
0.000111191
4.03062e-05
-0.000151598
-7.90926e-07
-0.000211284
0.000211784
0.000148402
-5.1261e-05
-0.000139999
5.41265e-05
-1.79826e-05
-4.48918e-05
6.28733e-05
-6.00369e-05
9.24182e-07
5.91125e-05
2.22763e-05
6.23602e-05
0.000235711
-0.000120453
0.000136746
0.000153187
6.21434e-05
-4.50059e-05
-1.71376e-05
4.06507e-05
5.62531e-05
-9.69024e-05
5.00298e-05
0.000146145
-0.000197498
-0.000199865
0.000272999
-7.36217e-05
-6.5134e-05
-5.41605e-05
2.9428e-05
-7.51965e-05
-5.2551e-05
2.85911e-05
8.34857e-06
5.37948e-05
-0.000211564
0.00021938
-8.3554e-06
7.91338e-05
0.000133297
-0.000212917
-3.4456e-05
4.12979e-05
-6.84186e-06
4.44125e-05
0.000247134
-8.04945e-06
0.000237007
2.72504e-05
-6.70012e-05
3.97477e-05
-6.63112e-05
-8.88907e-05
0.000155112
0.000126237
-0.000202396
7.57481e-05
-3.20113e-05
4.66646e-05
3.80047e-05
-3.83958e-05
2.77392e-08
-5.54108e-05
-6.62042e-05
0.000121605
-5.22608e-05
-4.06773e-05
2.34491e-05
2.04159e-05
0.000172552
6.4586e-05
5.22432e-05
0.000195967
-0.00024866
7.3791e-05
0.00012405
-0.000198496
-1.24089e-05
-0.000223855
0.000234306
-2.62965e-05
8.56708e-05
-5.93793e-05
0.000184296
-0.000198348
0.000147451
-1.67082e-05
-0.0001308
-0.000199294
0.000272187
0.00022224
-0.000137887
-8.45901e-05
-0.000198851
-1.3444e-05
0.000191608
-3.40276e-05
0.000343922
-0.000110866
-0.000234879
0.00031472
-0.000169005
-0.000146568
0.000188949
5.77836e-05
-0.000248304
-9.15102e-05
0.000278651
-0.000219275
0.000138391
8.06322e-05
2.07908e-05
-6.72242e-05
4.6433e-05
3.1665e-05
-5.47552e-05
2.30902e-05
0.000312591
-0.000171715
7.09776e-05
-4.7262e-06
-6.62523e-05
-8.62493e-05
0.000166009
-7.97993e-05
5.62378e-05
-2.45728e-05
0.000158785
-0.000157818
-1.10213e-06
-1.68646e-06
0.000100119
-9.84538e-05
-0.00020503
-3.27578e-05
6.88327e-05
-1.37479e-05
-5.50859e-05
0.000194166
-1.10831e-05
3.99587e-05
-0.000203629
5.85738e-05
6.1287e-05
-0.000244846
0.000178195
-1.41817e-05
-4.58553e-05
0.000243362
-0.000140947
-0.000102748
1.10217e-05
-5.50492e-05
-0.000144588
7.50368e-05
6.94956e-05
-1.13151e-05
0.000158698
0.000273153
-0.000229767
-0.000181596
0.000195017
-4.82913e-05
4.88571e-05
-5.65866e-07
0.000189579
-3.7305e-05
4.48416e-05
-0.000220311
-5.24289e-05
0.000270639
4.61117e-05
-5.03518e-07
4.55866e-05
-4.43261e-06
-4.1154e-05
-5.21427e-05
7.93896e-05
-0.00018072
9.94289e-05
-0.000174366
4.41408e-05
5.57251e-06
2.72638e-05
-3.04187e-05
0.000303034
-0.000296344
-8.4375e-06
-3.59514e-05
-1.65996e-05
2.83944e-05
-3.77971e-05
7.9459e-06
-5.44902e-05
0.000213836
4.53626e-05
-3.57848e-05
-0.000184555
0.000249654
4.2562e-05
-6.34745e-06
8.42566e-05
6.39543e-05
-0.000148292
8.28117e-05
5.47145e-05
-0.000137574
4.80784e-05
-2.49183e-06
-0.000282509
0.000118994
0.000163454
3.90015e-05
0.000262221
6.35741e-05
-2.30396e-05
-4.05349e-05
-6.56892e-05
0.000122363
-4.73803e-05
-4.75131e-05
6.63658e-05
-2.22204e-05
-0.000217691
0.000239109
0.000145242
-0.000245969
-9.60646e-06
-0.000218821
9.74233e-05
-5.32663e-05
-4.41587e-05
-0.000131738
8.54354e-05
4.62819e-05
-0.000265184
8.62179e-05
1.35984e-05
8.24249e-06
-2.296e-05
0.00022523
-0.000243121
-0.000110987
5.55698e-05
1.17888e-06
-3.56349e-05
5.42045e-05
0.000125061
-0.000179393
-0.000180397
0.000170577
-3.5452e-05
4.48594e-06
3.07534e-05
-2.10607e-05
0.000179701
1.08688e-05
6.47337e-05
-7.56056e-05
4.98499e-05
-8.44087e-06
-3.78055e-05
4.91214e-05
6.12727e-05
3.72226e-06
-6.49959e-05
-6.02756e-05
-4.96817e-05
0.000109953
-7.09504e-05
0.000122707
-5.17674e-05
4.60925e-05
3.70171e-06
0.000208256
-0.000270917
6.14589e-05
-0.000109221
-0.000154741
0.000259657
-8.2255e-05
0.000226471
8.47369e-05
-2.87206e-05
8.74131e-05
-5.86966e-05
-1.96746e-05
-0.000212314
0.00023111
3.50742e-05
9.23924e-06
-4.95984e-05
-8.65675e-05
-2.44264e-05
6.60393e-05
-9.68325e-06
5.6014e-05
4.01085e-05
-0.000100387
-5.59748e-06
-4.24407e-05
0.000230955
-0.000279107
4.68591e-05
0.000250492
0.000285082
-0.000234579
-5.13509e-05
0.000211698
-2.92184e-05
1.51595e-05
-2.22995e-06
-2.72604e-06
3.98036e-05
-0.0002372
1.31381e-06
5.20299e-05
-5.33437e-05
0.000292589
-0.000147738
4.28249e-05
0.00017032
-0.000219326
6.34965e-05
5.30048e-06
-1.66106e-05
-5.50708e-05
7.16752e-05
0.000128795
-0.000241917
-0.000248471
1.50359e-05
0.000232748
-9.13554e-05
0.000131852
-4.05088e-05
-3.72138e-05
-3.30517e-05
0.000247004
-0.00010255
0.000303926
-0.000212123
-9.3687e-05
-6.54969e-05
-6.88751e-05
0.000191498
1.19438e-05
4.24139e-05
-5.43577e-05
-0.000168469
-2.1928e-05
-0.000203652
5.14591e-05
-3.10119e-05
-2.04472e-05
5.62359e-05
-7.28528e-05
0.000261263
-0.000198763
-6.72273e-05
-5.5345e-05
2.17346e-06
5.31714e-05
-3.78724e-05
-2.92407e-06
4.07964e-05
-2.26218e-05
5.96043e-05
-3.69826e-05
-0.000233296
0.000209572
0.000129406
0.000172606
0.000205662
-7.36604e-05
0.000102992
-5.55657e-07
-0.000102449
-0.000201215
0.000198825
2.3525e-06
-5.00113e-05
4.77341e-05
3.54282e-05
6.1993e-05
6.27791e-05
8.19731e-06
-8.29091e-05
2.5779e-05
5.71283e-05
0.000237048
-0.00018113
0.000162943
-7.87723e-05
4.79805e-05
-4.24247e-05
-5.55584e-06
5.01057e-05
5.3453e-05
-4.80753e-06
-4.86457e-05
-0.000161193
-8.77866e-05
0.00024867
-0.000118866
0.000189954
-7.12047e-05
-0.000224906
0.000106308
3.14536e-05
1.31763e-05
-4.46299e-05
3.81862e-05
-4.50492e-05
1.37068e-05
-9.65845e-05
0.000209257
6.18983e-05
0.000198135
4.21938e-05
5.49332e-05
-0.000192394
0.00013715
-9.76575e-05
-3.40989e-05
-0.000206067
0.000244796
5.86905e-05
4.88288e-06
-0.000157584
-6.74383e-05
5.59171e-05
-7.8605e-06
-7.61318e-05
-0.000183827
0.000259586
-5.96205e-05
0.00028415
1.34784e-05
-4.30681e-05
-4.14106e-05
0.00014103
-0.000170322
0.000103333
6.69116e-05
-6.48593e-05
7.57249e-05
0.000215434
5.17097e-05
-0.000269178
-2.60479e-05
9.47218e-05
-6.86878e-05
5.64474e-05
-9.51843e-06
-4.69291e-05
0.000165515
5.21433e-06
-0.000170894
5.35946e-05
0.000230116
1.0904e-05
0.000163335
-0.00017431
0.000114574
5.4566e-05
-0.000169304
3.46076e-06
-2.96505e-05
2.54155e-05
-0.000162153
-1.02096e-05
0.000172246
-0.000141764
-3.88209e-05
0.000204133
9.38048e-05
-7.87342e-05
-1.50768e-05
-0.000208346
0.000205315
5.06968e-05
0.000226156
-5.90831e-06
3.90384e-05
-0.000116482
0.000154961
-0.000109964
0.000235755
8.28957e-05
0.000261195
-3.1576e-05
0.000149219
-0.000240127
7.52822e-05
-0.000182042
0.000215703
-4.0555e-05
0.000155545
-7.10015e-05
-8.45306e-05
-0.000120317
-6.64112e-05
0.000186665
-9.12473e-05
7.80379e-05
1.32032e-05
-7.11657e-05
0.000174456
3.30555e-05
-4.72373e-05
-8.02415e-05
0.000243622
-0.000164034
2.68494e-05
1.70156e-05
-0.000129602
0.000193647
-6.41138e-05
0.000148545
6.40464e-05
5.22989e-05
-5.03955e-05
4.70377e-05
5.49062e-05
-6.36376e-05
8.73064e-06
-0.000189491
0.000194519
0.000112429
0.000130544
-4.63653e-05
-0.000188716
-0.00030562
0.000296962
7.45051e-06
1.18694e-05
8.85174e-05
-0.000100406
5.11805e-05
7.72743e-05
-0.000128495
-0.000157369
6.24051e-05
9.49143e-05
-2.56042e-05
0.000103186
-7.75925e-05
4.17683e-05
-8.02407e-05
-3.99124e-06
8.42241e-05
2.60036e-05
4.90081e-06
-4.17958e-05
-5.43937e-05
4.36157e-05
1.07778e-05
7.61655e-05
-3.8801e-05
-3.73654e-05
-0.000268076
3.89253e-05
0.000228451
-7.63231e-05
-0.000229774
9.62321e-05
5.93155e-05
-2.91944e-05
-2.70668e-05
0.000106781
-0.000170565
9.23966e-05
-8.71755e-05
-6.77419e-06
-5.01173e-05
0.000105792
-5.56753e-05
-2.69981e-06
9.64972e-05
-2.03982e-05
-9.68549e-05
-8.68239e-05
0.000139426
-5.26156e-05
-6.11083e-05
3.69495e-05
2.41586e-05
0.000204281
-0.000182995
0.000115784
-0.000118519
2.72125e-06
2.12069e-05
2.11435e-05
-4.23504e-05
6.41815e-05
-6.2601e-05
-5.95983e-05
7.65791e-06
8.65552e-05
-9.42209e-05
8.71839e-05
-2.24718e-05
-0.000193151
1.86109e-06
0.000191071
1.0424e-05
-3.02253e-05
-0.000196969
-2.5451e-05
0.000296473
-8.10557e-05
4.50819e-05
2.92137e-05
-7.12613e-05
4.20479e-05
3.28595e-05
2.13055e-05
7.55209e-05
-5.47306e-05
-3.79214e-05
-8.30078e-06
4.62222e-05
4.48706e-05
-4.45476e-05
-3.22979e-07
6.29836e-05
-0.000113101
-0.000203032
6.56797e-05
-4.75967e-05
4.76008e-05
-4.12331e-09
-6.65456e-05
6.37816e-05
2.76352e-06
-0.000189936
9.04534e-05
-3.37899e-05
-5.66639e-05
-9.36469e-06
4.43243e-05
-3.49597e-05
7.03894e-05
-6.66521e-05
-3.73829e-06
0.000151318
-9.72139e-05
-0.00021813
7.44361e-05
0.000137466
-2.44842e-05
0.000228446
-0.000137566
-7.94286e-05
0.000216713
-8.73575e-05
0.000201746
0.000125887
-0.000109962
-1.59464e-05
0.000271247
-0.000158689
2.61326e-05
1.77324e-05
-9.12684e-05
-0.000128247
-0.000138271
0.000203456
-6.53201e-05
4.35417e-05
-1.20881e-05
0.000235742
-0.000278182
4.09427e-05
-7.5251e-05
-9.51497e-05
-7.92692e-06
6.13795e-05
0.00031009
-0.000273
-0.000257405
0.000139388
0.000117497
4.89669e-05
-5.00647e-05
1.0977e-06
-0.000163955
5.9558e-05
9.49328e-05
-8.16695e-05
5.56089e-05
-0.000186212
-5.1987e-05
3.01266e-05
2.18604e-05
-2.59093e-05
-0.000163755
-0.000129594
-4.16174e-05
0.000171123
-8.95329e-05
-0.000105293
0.00021735
-0.000112279
9.60643e-05
6.91414e-06
-0.000139483
0.000195951
-5.64627e-05
4.5037e-05
-4.48702e-05
-0.000118728
-2.22076e-05
0.000140901
-0.000256123
8.54052e-06
0.000246252
2.42932e-05
1.95718e-05
-4.3865e-05
9.61307e-06
-0.000139283
-2.18701e-05
-2.43225e-06
3.42695e-05
-3.18373e-05
7.35625e-05
-1.00678e-05
7.3068e-05
0.000239883
-0.000122623
0.000251335
-0.000212281
-4.40243e-05
-4.08657e-05
2.99332e-06
0.000147559
-0.000136714
-0.000155809
-6.44678e-06
-5.54585e-06
6.44637e-05
-6.12076e-05
-0.000171274
6.67508e-05
-5.47892e-06
6.45186e-05
-5.00849e-05
-1.4434e-05
-0.000133246
4.91275e-05
-2.2278e-05
5.79669e-05
-8.66909e-05
0.000227215
-3.41194e-05
-0.000193375
-7.75501e-05
-0.000146554
8.43487e-05
-6.96448e-05
-7.49934e-05
4.12683e-05
6.37643e-05
5.44267e-05
0.000191622
-0.000248259
6.48223e-05
-9.91685e-06
7.77755e-05
-0.00016767
-0.00012709
-2.46778e-05
-1.69586e-05
2.72397e-05
-4.72229e-05
-4.09123e-05
-0.000162791
-0.000179486
-5.44896e-05
-5.05727e-05
0.000123557
-7.30118e-05
6.49826e-05
-2.02489e-06
-0.000259013
5.57922e-05
-3.77008e-05
-9.31235e-06
4.70132e-05
2.32294e-05
-4.07477e-05
-0.000203953
0.000244494
0.000285543
1.01843e-05
-0.000106488
-5.98574e-06
0.000112458
-0.000128051
6.61534e-05
-0.000197514
5.66081e-05
0.000102928
-6.22759e-05
0.000170478
0.000143369
4.05705e-05
7.40992e-06
-7.7107e-05
0.000152942
-7.58832e-05
0.000251669
-0.000207097
-4.49751e-05
1.22756e-05
5.89086e-05
-7.11843e-05
2.06425e-05
-4.17855e-05
-0.000195819
-3.0523e-05
0.00022299
1.68207e-05
4.76974e-05
-0.000169235
0.00015351
2.78169e-05
0.000280354
-2.04218e-05
-0.000180883
0.000115571
-0.000139166
2.35951e-05
4.96363e-05
-4.4423e-05
-5.21345e-06
0.000169522
-5.84185e-05
4.25276e-05
-2.13207e-05
0.000188534
-0.000126589
-6.20242e-05
-6.60707e-05
2.4414e-05
4.16564e-05
-4.33383e-05
-3.95719e-05
0.000179773
-0.000178116
7.36274e-06
0.000243573
-0.000191772
7.9039e-05
-2.9668e-05
-4.93714e-05
-0.000210175
-3.4866e-05
-2.0479e-05
-4.14479e-05
3.15131e-05
0.000267256
-0.000195486
-7.2326e-05
-1.45941e-05
4.57782e-05
-3.11841e-05
-0.000120999
-7.75803e-05
0.00019838
-0.000148049
1.84019e-05
-7.02004e-05
1.40925e-05
5.61072e-05
0.000109819
-5.35321e-05
-5.62878e-05
4.76032e-05
-3.46246e-06
-9.33225e-05
-0.000177255
0.000266267
-3.13561e-05
6.44114e-05
0.000274377
-5.15954e-05
-0.000223297
6.22388e-05
-1.7202e-05
0.000275617
-0.000149735
-0.000126739
-4.35028e-05
-0.000114194
-0.000145713
0.000200083
3.56675e-06
-0.000276311
0.000269468
6.37642e-05
-2.21042e-05
-5.54747e-05
-0.000160446
9.18915e-05
6.85007e-05
-1.25282e-05
6.7647e-05
2.74111e-06
-6.43742e-05
0.000204646
6.48429e-06
-4.76046e-05
4.11203e-05
-3.15001e-05
0.000211034
0.000256549
-0.000256078
0.000191298
-0.000136752
0.0001924
-0.000118973
-7.34901e-05
-8.99161e-05
7.98418e-05
1.00645e-05
-5.68123e-05
-1.33888e-05
0.000180455
-1.10317e-05
1.88607e-05
6.32078e-06
-0.000161395
-3.73368e-05
0.000198571
-3.75459e-05
-2.36904e-05
0.000107705
-8.44996e-05
-0.000234654
-9.16647e-05
-0.000187138
-0.000164619
3.08979e-06
-0.000197683
0.000121451
7.60757e-05
4.854e-05
-2.24074e-05
-5.60374e-05
0.000290166
4.56322e-05
2.17806e-05
-6.7414e-05
9.32124e-05
-6.59857e-05
2.91619e-05
4.70027e-05
2.44309e-05
-4.70529e-05
-2.75606e-05
-2.28106e-05
-0.000206418
0.000148552
5.06043e-05
-0.000137922
5.22575e-05
8.56103e-05
0.000300122
9.82443e-05
0.000145273
-0.000244113
-0.000124753
-7.30832e-05
0.000197644
3.627e-05
-4.56347e-05
0.00015465
-0.000228005
6.67035e-05
-0.000223867
0.000175781
-1.18785e-05
3.52452e-05
-3.69059e-05
2.22261e-05
0.000198306
-0.00019393
-4.51077e-06
-8.17373e-05
-0.000175356
0.000157849
-0.000140101
-1.78212e-05
0.000169479
-6.2805e-05
-5.38361e-05
1.85597e-06
5.19799e-05
4.93374e-05
-2.77091e-05
5.8276e-05
0.000180766
-0.000241413
-0.000253436
0.000248736
4.40422e-06
-4.83729e-05
0.000190385
-5.91523e-05
4.95572e-05
9.595e-06
3.64702e-05
9.49345e-06
-6.17366e-05
5.24551e-05
9.2814e-06
-2.69912e-05
7.59603e-05
-8.43279e-05
6.42312e-05
2.00948e-05
-2.68634e-05
7.03116e-05
-4.34495e-05
-0.000171793
-0.000114229
0.000193105
-0.000256813
5.04832e-05
-0.000267387
-0.000192469
0.000241031
-4.87736e-05
0.000196863
-0.000148137
-0.000233408
-6.30591e-05
6.44594e-05
-1.40097e-06
-1.07734e-05
-4.19174e-05
4.00405e-05
-0.000222011
-0.000104108
7.20081e-05
3.20987e-05
0.000168637
-0.000110749
-6.62769e-05
0.000180256
4.66859e-05
0.000128724
-0.0001401
-0.000112796
-0.000121015
-0.000163152
-0.000179779
-7.80027e-05
-6.10063e-05
2.70642e-05
3.74593e-05
-5.16798e-05
8.78151e-05
8.71677e-07
-8.87096e-05
4.42285e-05
3.37462e-06
3.54282e-05
-0.000106387
-2.04268e-05
4.69084e-05
-7.80095e-05
-2.13603e-05
-1.33735e-05
-4.45634e-05
-5.87142e-05
5.0982e-05
7.732e-06
5.76902e-05
-0.000134841
5.68939e-05
-4.46872e-07
4.9719e-06
-8.52197e-05
4.18134e-05
-4.42457e-05
-0.000219555
-4.43455e-05
0.000262242
-0.000222252
-0.000169835
-3.80625e-05
0.000203416
-0.000188109
-4.75963e-05
-3.99022e-05
8.74971e-05
7.4774e-05
1.87122e-05
-3.81426e-05
1.97231e-05
9.89635e-05
-0.000125015
2.60325e-05
0.000141304
-3.27216e-05
-0.000115778
-9.67174e-05
-4.3796e-05
0.000140586
-6.93981e-05
-8.95443e-06
-2.74397e-05
3.43468e-05
4.45359e-05
1.45611e-05
-5.90981e-05
-0.000240255
8.43601e-07
0.000238101
2.1058e-05
-1.69801e-05
-8.95208e-05
0.000193311
-0.000258542
6.04548e-05
8.99809e-05
-1.6528e-05
-7.34581e-05
6.46318e-05
-3.54179e-05
8.6791e-05
-0.000251373
0.000164068
-5.15624e-05
-0.000178074
0.000228959
-1.39884e-05
0.000267313
-5.71455e-05
-4.73717e-05
0.000104507
0.00014356
9.40275e-05
0.000207251
-0.000122623
-8.49439e-05
-7.08741e-05
8.42178e-05
-1.33455e-05
-0.000263005
0.00024017
2.28291e-05
5.71227e-05
-3.66952e-05
-2.04275e-05
0.000206372
-0.000287215
7.9841e-05
5.28923e-05
-4.45438e-05
0.000126448
-0.000204368
7.75338e-05
9.30833e-05
5.10316e-06
-9.8206e-05
0.000257095
-8.21663e-06
-0.000250582
-0.000135096
6.91487e-05
6.59121e-05
-3.71532e-05
0.000165806
4.48617e-05
-0.000159262
-0.000152688
0.000238981
8.70543e-06
4.84171e-05
-0.000207096
-0.000121344
-4.29978e-05
4.20358e-05
9.61952e-07
-3.88723e-05
-1.97374e-06
4.0846e-05
9.94098e-05
-0.000219283
1.28235e-05
-1.75693e-05
-0.000111201
0.00019681
0.000146413
-0.000218517
6.73801e-05
9.7461e-06
-4.74469e-05
0.000289466
-5.05945e-06
4.77712e-06
4.81151e-05
3.79882e-05
1.47026e-05
0.000141228
-2.02862e-05
5.40424e-05
-3.09936e-05
-2.30489e-05
2.43994e-05
-5.21277e-05
-0.000230111
0.000289978
-6.13453e-05
-3.7731e-05
-4.05396e-05
-1.81746e-05
-0.000114393
-2.50804e-05
0.000253409
-0.000194054
-6.10795e-05
0.000247233
3.69753e-05
0.000207629
0.000228698
-5.94964e-05
-0.000169816
-7.36019e-05
-5.13654e-05
0.000124953
3.76575e-05
-5.9463e-05
2.18054e-05
-7.68513e-05
-0.000140658
0.000217286
-3.80676e-05
4.53721e-05
-3.88878e-05
-8.20492e-05
2.41468e-05
5.78998e-05
1.39701e-05
-0.000115029
0.000101046
0.000157427
5.49739e-05
-0.000213375
2.59875e-05
-4.21159e-05
1.61284e-05
2.94012e-05
0.000126455
3.13279e-05
-3.85712e-05
0.000294044
-5.51548e-05
0.000271948
-0.000217114
-5.64239e-05
5.29875e-05
3.43627e-06
-0.000226575
-1.47146e-05
-3.72724e-05
6.11111e-05
9.67618e-06
2.01677e-05
-3.08284e-05
0.000126212
6.61268e-05
5.13358e-05
-5.90838e-05
-2.86955e-06
0.00013735
4.29996e-05
3.6128e-05
0.000112053
-0.000148346
-1.34651e-05
0.000145725
-0.000208793
0.000165352
3.63881e-05
5.34955e-05
0.000174535
-2.67995e-05
-2.33421e-05
5.01416e-05
-5.74167e-05
3.28303e-05
2.31304e-05
-0.000152732
-2.23409e-05
-2.74368e-05
-0.000241958
0.000186528
0.000280767
-4.69526e-05
7.01943e-05
-0.000136409
-3.83718e-05
-1.53521e-05
5.37238e-05
-0.000139551
-3.12277e-05
0.000170642
-5.18204e-05
7.84243e-06
4.39779e-05
3.32783e-07
0.000193862
0.00025963
-0.000129202
-0.000109729
-5.00428e-06
-4.25924e-05
5.88708e-05
-4.65954e-05
1.60865e-05
3.77059e-05
-5.37924e-05
-1.98839e-05
3.01787e-05
-0.000128248
0.000218583
4.8395e-05
-2.48523e-05
-2.69681e-05
-0.000103811
0.000282449
-0.000181609
-3.01543e-05
7.46889e-05
4.90931e-05
5.38613e-05
-4.41152e-05
-7.94584e-05
4.99333e-05
2.72024e-05
9.79594e-05
-8.69476e-05
-1.94363e-05
-3.60435e-05
-4.82859e-05
-0.000114545
0.000244659
-0.000131011
1.87247e-05
-4.55241e-05
0.000257438
-5.03886e-05
3.63584e-05
-5.09524e-05
2.44407e-05
-0.000265192
0.000198593
-0.000152623
-2.27738e-05
-1.94111e-05
6.50419e-05
1.47184e-05
-5.26121e-05
3.78937e-05
-0.000134889
-7.48405e-05
-0.000203027
0.000250728
-4.84415e-05
-0.000127178
-0.000155512
-0.00023296
-0.000182279
0.000234592
2.65631e-05
-7.56786e-06
-1.92202e-05
-7.33968e-05
9.26066e-05
-3.08537e-05
-0.000169643
0.000200018
-6.46771e-05
4.82763e-05
1.64005e-05
0.000251739
-0.000114335
-0.000137663
-4.14708e-05
-1.76816e-05
-0.000220395
0.000260219
-4.13208e-05
0.000193086
6.38344e-06
-0.00020373
-7.46929e-05
1.76123e-05
5.70789e-05
5.48724e-05
-3.26215e-05
-2.2251e-05
-6.06485e-05
9.84009e-06
5.08079e-05
0.000145885
-0.000256046
0.000109671
-1.9821e-05
4.93288e-05
-0.000265068
4.32191e-05
5.80873e-05
-2.41081e-05
-3.39792e-05
-0.000152407
8.26844e-05
-9.18641e-05
9.17373e-06
0.000236929
4.3642e-05
-3.4592e-05
5.90228e-05
0.000291766
-0.000230702
-6.27349e-05
-0.000114519
0.000150481
0.00019083
-0.00019189
4.68287e-05
0.000225283
-0.000273333
-3.97163e-05
4.24687e-05
4.7471e-05
8.44592e-06
-7.60228e-05
6.06462e-05
1.5375e-05
5.09683e-05
-3.03192e-05
-2.06492e-05
0.000101308
-8.73491e-05
-9.62631e-05
-0.000107231
0.000203234
-0.000120524
-0.000108428
-2.82997e-05
0.000197363
-0.000173229
-4.52724e-05
0.000210683
-5.61161e-05
-0.000117088
0.000155461
9.64815e-05
-6.50664e-06