/*--------------------------------*- C++ -*----------------------------------*\
| =========                 |                                                 |
| \\      /  F ield         | OpenFOAM: The Open Source CFD Toolbox           |
|  \\    /   O peration     | Version:  v2012                                 |
|   \\  /    A nd           | Website:  www.openfoam.com                      |
|    \\/     M anipulation  |                                                 |
\*---------------------------------------------------------------------------*/
FoamFile
{
    version     2.0;
    format      ascii;
    class       surfaceScalarField;
    location    "100";
    object      meshPhiCN_0;
}
// * * * * * * * * * * * * * * * * * * * * * * * * * * * * * * * * * * * * * //

dimensions      [0 3 -1 0 0 0 0];
oriented        oriented;


internalField   nonuniform List<scalar> 
27274
(
-0.000128864
0.000182015
-5.32648e-05
-9.93475e-06
4.59637e-05
-3.6029e-05
-0.000248649
-5.6841e-05
0.000303997
0.000222562
-1.01033e-05
-0.00022002
0.000125757
0.000117864
-0.000244541
5.67039e-05
6.07473e-05
-0.000117478
-0.000166776
-7.58467e-05
0.00023832
-1.23022e-05
-0.000103832
0.000116094
0.000157499
6.16373e-05
4.01351e-05
-4.97777e-05
9.64253e-06
-2.81198e-05
-0.000212649
0.000236334
3.56784e-05
1.488e-05
-5.05585e-05
0.000113458
-4.69802e-05
-6.64884e-05
-0.000236729
0.00027419
-3.75776e-05
-0.000320996
0.0001278
0.000192092
0.00021355
-0.000137145
-7.6609e-05
-4.2628e-05
4.86641e-05
-6.03608e-06
0.000369774
-0.000191177
-0.000182852
-6.36312e-05
-0.000178202
0.000241057
7.82514e-06
4.39728e-05
-5.17988e-05
0.00016701
-1.03926e-05
-0.000156721
0.000293129
-0.000174753
-0.000118662
-4.98832e-05
4.90615e-05
8.21621e-07
-9.01902e-05
0.000215157
7.3937e-05
-0.0002103
-0.000137804
0.00019368
-5.72764e-05
-3.38428e-05
0.000204068
0.000170026
1.85019e-05
-0.000188584
-4.05469e-05
-1.42889e-05
5.48357e-05
0.000271933
-0.000341347
6.84323e-05
0.000263362
-7.49459e-06
-0.000257107
-0.00011548
0.000265258
-0.000150406
0.000212877
0.000151894
3.55012e-05
-1.42026e-05
-3.53719e-05
0.000130798
-0.000117217
-1.36164e-05
1.91053e-05
-0.000148061
3.56268e-07
0.000194814
-7.93661e-05
-2.27307e-05
0.00010209
-1.91589e-05
0.000189167
2.8073e-05
0.000215509
-0.000248488
-0.000270588
3.36987e-05
-5.84212e-05
-3.66889e-05
9.51027e-05
1.33406e-05
-0.000263413
-2.69192e-05
4.97942e-05
-2.2875e-05
-1.39078e-05
-3.30804e-05
3.34642e-05
2.87697e-06
-8.22478e-05
9.71771e-05
2.56551e-05
-0.000122879
0.000212588
-0.000175328
-3.73061e-05
-8.22991e-05
-6.18439e-05
0.000144089
1.13833e-05
-0.000214642
0.000199794
-0.00012066
0.000232538
-0.000117445
0.000323033
-0.000273043
-5.19217e-05
3.98218e-05
-4.07376e-05
6.91036e-07
-5.41963e-05
1.7005e-05
3.71912e-05
-0.000231465
8.71607e-05
0.000141958
-1.2249e-05
-9.2014e-06
1.38184e-05
0.000107149
-2.19566e-06
-0.000104976
-0.000123437
-0.000198326
-5.52545e-05
2.37161e-05
3.15384e-05
-0.00011283
4.15866e-05
7.1234e-05
0.000200017
-0.000191938
-8.58349e-05
-4.53136e-05
0.000131106
0.000293262
-0.000112315
-0.000185067
-0.000140487
7.12239e-05
6.92295e-05
4.52842e-05
-9.60575e-06
0.000113282
6.86277e-05
-5.03711e-05
2.64816e-05
2.38895e-05
9.96335e-05
4.48202e-05
-0.000144466
0.000201333
0.000168548
0.000124298
-7.5434e-05
-4.23952e-05
0.000117804
-1.5148e-06
-1.94321e-05
1.93934e-05
-4.39978e-05
-6.88408e-05
6.87285e-05
0.000182723
-0.000255136
0.000112448
-0.000124795
-0.000244541
7.43503e-05
-1.64701e-05
6.09474e-05
-4.44778e-05
0.000150997
7.17455e-05
-0.000223483
0.00019518
-0.000140677
-5.47637e-05
-0.000235112
0.000282608
-4.95815e-05
0.000186275
-0.00026675
7.95925e-05
-6.89972e-05
-1.0597e-05
-2.47582e-05
0.00019162
6.96427e-05
-0.000122283
5.26104e-05
-0.000198529
5.96048e-05
2.33327e-05
9.01137e-05
-5.5345e-05
2.95079e-05
2.5837e-05
-5.19751e-05
5.97993e-05
-5.82116e-05
1.76648e-05
4.63309e-05
-5.62611e-05
9.93002e-06
-8.28739e-05
8.33793e-06
7.4532e-05
3.73668e-05
-6.96166e-05
3.52674e-05
-0.000193942
0.000156815
0.000262887
-0.000216418
-5.33763e-05
-5.26908e-05
5.26908e-05
-4.32863e-06
-4.55546e-05
5.08466e-05
0.000169973
-0.000222578
0.000173319
2.15598e-05
-0.000195179
-1.67549e-05
-3.74415e-05
-4.03591e-05
-6.86973e-06
4.72288e-05
-4.27446e-05
4.89164e-05
-6.17173e-06
-6.86301e-06
-3.63649e-05
4.32279e-05
-9.9383e-05
-8.3097e-05
0.00018242
1.88539e-05
-7.5306e-05
5.64506e-05
7.74576e-05
0.00014999
-0.000228094
0.000108121
-1.41161e-05
-9.40206e-05
2.16283e-05
2.22976e-05
-4.39259e-05
-9.95994e-05
6.97854e-05
2.98076e-05
0.000199111
-0.000124548
-7.47069e-05
4.3792e-05
4.14109e-05
-0.000105189
0.000292436
-0.000188237
-0.000157241
-5.05767e-05
0.000207764
-0.000108105
0.000181893
-7.426e-05
-0.000230642
7.3361e-05
4.80568e-05
-6.12362e-05
1.31793e-05
3.73039e-05
5.58106e-06
-5.20077e-05
2.89316e-05
-4.20564e-05
1.31247e-05
4.1355e-05
-5.78256e-05
-3.85135e-05
4.28304e-05
-4.31694e-06
4.6432e-05
-0.000145868
4.96115e-05
-9.47634e-06
6.87986e-05
-6.47043e-05
-4.09568e-06
-7.81322e-05
0.000228468
3.2142e-05
-0.000107595
0.000225006
-0.00017595
-4.89882e-05
-5.06163e-05
0.000276917
4.37706e-05
5.82585e-05
-5.18008e-05
-6.04851e-06
8.32785e-05
-3.39033e-05
-4.93762e-05
2.9399e-05
0.000226334
0.000118927
-0.000245021
2.86758e-05
4.08137e-05
-6.94909e-05
-0.000141751
4.06296e-05
0.000101078
-4.05238e-05
0.000213574
-7.58889e-05
-4.83486e-05
0.000124217
5.17766e-05
5.85781e-06
-0.000183576
0.000361582
-0.000179196
0.000164508
-0.000196328
0.00024049
-0.000340784
9.96505e-05
-9.0741e-05
-1.98838e-05
0.00011061
-3.37915e-06
-3.93655e-05
4.04545e-05
5.67608e-06
-4.61306e-05
0.000226932
-0.000252806
2.53404e-05
0.000117822
-0.000223807
-3.59738e-05
-3.39421e-05
6.99158e-05
3.94144e-06
-0.000228049
0.000223813
-8.12807e-05
0.000185845
-0.000104564
-4.36343e-05
5.54328e-05
-1.17986e-05
0.000241561
-5.2727e-05
-0.000189232
1.66852e-07
-4.38012e-05
0.000272019
-0.000233917
-3.9212e-05
-0.000171035
9.87266e-05
3.20515e-05
-2.36366e-05
-3.16179e-05
0.000120438
4.52296e-06
-0.000124997
2.87401e-05
-1.95572e-05
-1.02277e-05
-3.72217e-05
6.58963e-05
-3.10032e-07
-3.82035e-05
1.56355e-05
1.24466e-05
-3.2104e-05
0.000128249
-9.61793e-05
0.000211734
-0.000118447
-9.34095e-05
-0.000228673
9.17034e-05
0.000136666
8.44525e-05
-0.000154341
6.98487e-05
0.000147007
-0.000187764
-9.78488e-05
1.85127e-06
9.5989e-05
3.50594e-07
5.22107e-05
-5.25615e-05
-6.32712e-05
1.5046e-05
4.82249e-05
-9.99219e-05
-5.51087e-05
0.000154964
-1.45236e-06
-7.19463e-05
7.33933e-05
0.000190685
7.19588e-05
-0.00026602
-6.98975e-05
6.35417e-05
6.35582e-06
5.44344e-05
-2.11429e-05
-3.32915e-05
-0.000270398
0.000162696
0.000102454
0.000234063
-0.000265645
2.66301e-05
0.000144675
6.86473e-05
5.4165e-05
-3.38898e-05
-2.02753e-05
-9.29736e-05
-5.79575e-05
0.000150869
-0.000149774
0.000215038
-6.68648e-05
2.80382e-05
5.5239e-05
-6.2233e-05
4.261e-05
1.96228e-05
6.30684e-05
-0.000111374
4.83067e-05
5.64563e-05
-5.79129e-05
0.000158849
2.20574e-05
-0.000181118
-9.50103e-05
-0.00012087
0.000210784
-4.57642e-05
0.000100227
-5.44682e-05
-4.80382e-05
-1.09229e-06
4.91305e-05
-6.10036e-05
5.46327e-06
5.55402e-05
-9.09462e-05
9.55581e-06
8.13844e-05
-0.000238886
0.000187578
5.12689e-05
9.57781e-06
-5.22058e-05
0.000117696
0.000288198
-0.000249957
-3.96345e-05
-5.02859e-05
0.000197047
8.46377e-05
-5.39613e-05
-3.06777e-05
2.72378e-05
9.11276e-05
-0.000118382
2.12171e-05
-0.000212638
0.00019114
1.09507e-05
-6.35954e-05
5.26433e-05
-4.05899e-05
0.000199212
9.55558e-05
5.05243e-05
-0.000146181
-4.15002e-05
-3.56466e-05
0.000194199
-0.000159273
0.000122698
-0.000214731
9.19429e-05
5.91329e-05
-6.51296e-06
-5.26201e-05
-1.57637e-05
-4.524e-05
-2.92966e-05
5.12126e-05
-2.1916e-05
-8.98013e-05
-7.90681e-05
0.00016876
-1.75717e-05
4.65034e-05
6.70717e-05
-2.74139e-05
-3.96578e-05
6.06612e-05
-1.76725e-05
-4.29887e-05
-7.53551e-05
0.000170808
7.62039e-06
-0.000192251
0.00022459
4.65186e-05
9.33039e-06
-5.79362e-05
4.86051e-05
-1.72723e-05
0.000243619
0.00027935
-9.32032e-05
1.54468e-05
6.41438e-05
-9.30614e-05
3.21305e-05
6.09281e-05
-4.26454e-05
7.83438e-05
-0.000186275
0.000214308
2.67776e-05
-9.29361e-05
6.62294e-05
2.67042e-05
-0.000327288
0.000256386
6.99379e-05
0.000133851
-6.42453e-05
0.000141913
0.000218211
-5.60387e-05
-7.2327e-06
0.000271465
-6.08757e-05
-0.000211018
5.97439e-05
-2.02396e-05
-3.95043e-05
-4.86714e-05
4.73708e-05
1.30065e-06
-3.86138e-05
-4.32098e-05
8.18234e-05
-0.000232619
0.000238921
3.19338e-05
7.62999e-06
0.00014085
5.4064e-05
0.000132153
-0.000209561
7.7199e-05
7.37914e-06
5.23646e-05
0.000229335
-0.000226733
-3.04096e-06
-0.000143245
0.000192883
-5.12491e-05
-0.000168629
1.7188e-05
6.47161e-05
-8.95171e-05
2.47969e-05
1.47128e-05
5.4552e-05
-6.92673e-05
1.45684e-05
9.21964e-05
0.000106789
-6.64798e-05
-3.15596e-05
9.80333e-05
-0.00023867
7.87654e-05
-6.85544e-05
0.000305417
-0.000241332
-0.000237386
-3.88872e-05
0.000275888
-6.87047e-06
-4.1801e-05
7.96467e-05
-1.49837e-05
-6.46642e-05
4.56082e-05
-1.42205e-05
-3.13877e-05
-1.57573e-05
0.00013616
0.000124735
8.68568e-05
-0.000197645
0.00016129
-2.39599e-05
-1.4569e-05
3.85289e-05
0.000133848
-0.00017463
8.12217e-06
5.25389e-05
0.000115715
-0.000233571
0.000117345
1.13159e-05
-5.02913e-05
3.89753e-05
1.90502e-06
-7.42538e-05
7.23465e-05
9.21596e-05
-0.000124296
0.000284583
-0.000243238
-4.21841e-05
-1.88466e-05
-1.51066e-05
2.23938e-05
-6.36566e-05
0.000176835
0.000130574
-5.41545e-05
-7.64435e-05
-1.63617e-06
6.07688e-05
-9.84863e-05
-4.33228e-05
0.000243887
-0.000108282
-0.000141456
-0.000200436
-6.23461e-05
0.000258592
5.70883e-05
-2.33961e-05
-3.44921e-05
-9.53289e-06
-6.24179e-05
0.000105042
-9.9361e-05
-5.69014e-06
4.54645e-05
5.2795e-05
-9.82591e-05
-0.000119612
-0.000102357
0.000221695
-2.27714e-06
3.37788e-05
-3.15017e-05
-2.76668e-05
-6.3284e-05
6.12464e-06
0.000101982
-0.000181229
0.000279472
-9.90385e-05
-6.15979e-05
7.2547e-05
-0.000311986
7.47812e-05
6.46851e-05
-0.000252515
0.000186798
-7.02653e-05
4.63644e-05
2.39007e-05
-1.26533e-06
-3.67711e-05
2.68988e-05
-3.31316e-05
-0.000214257
-2.80066e-05
0.000113936
-8.59465e-05
0.000235584
-0.000312089
7.45631e-05
-1.21546e-05
4.65631e-05
-3.44085e-05
-4.94932e-05
0.000183157
0.000103288
8.96547e-05
-0.000192961
2.67162e-05
-3.96763e-05
3.85312e-05
-0.000138514
4.97133e-05
-4.70938e-05
-2.61954e-06
-0.000194122
0.000245007
-3.04011e-05
-0.000296288
5.36692e-05
0.000242808
-0.000108426
1.69457e-05
9.1468e-05
4.14091e-05
8.13107e-06
-4.95402e-05
3.88696e-05
1.80605e-05
-3.01029e-06
-3.21303e-07
2.66987e-06
-5.02395e-05
-4.2824e-05
-4.39424e-05
0.000120968
-7.70629e-05
0.000146361
-2.36735e-05
-0.00012272
-3.15155e-05
7.03907e-05
-3.88761e-05
-0.000195983
0.00025954
8.81509e-05
-0.000271207
0.000218469
5.25281e-05
-5.54407e-06
1.37155e-06
4.89701e-05
-8.04865e-05
-2.73144e-05
-7.05412e-05
-0.000119288
4.24364e-05
7.68453e-05
-3.67839e-05
-7.16519e-05
0.00023651
-0.000213745
9.13739e-05
-2.83045e-05
-0.000250996
0.000220897
-0.000276501
0.000212001
5.10708e-06
7.45381e-05
0.000113711
-0.000317629
0.000202515
-7.60175e-05
4.58998e-05
-0.000104329
0.000182707
-0.000149069
-7.39599e-05
0.000224669
-0.000157408
4.05731e-05
-7.21374e-05
1.46533e-05
-3.79882e-05
2.33349e-05
1.66628e-05
5.04088e-05
0.000145589
-0.000237146
9.08479e-05
0.000172541
-8.81361e-05
2.00983e-05
-4.70174e-05
1.49481e-05
-0.000234726
0.000217329
7.90784e-05
-6.43683e-05
-0.000169964
-4.50853e-05
0.000214748
6.78832e-05
-0.000163863
9.5931e-05
1.58295e-06
7.74924e-05
1.6883e-06
0.000227798
3.92383e-05
-3.88878e-05
-0.000216045
0.000267777
-5.25573e-05
-0.000137563
6.1655e-05
1.83162e-07
1.37562e-05
-1.95602e-05
0.000130568
3.62146e-05
-4.1292e-05
5.07739e-06
3.2772e-05
-4.92674e-05
1.65125e-05
-3.34049e-05
-2.88282e-05
0.000111183
4.03045e-05
-0.000151605
-7.88401e-07
-0.000210615
0.000211136
0.000148382
-5.12565e-05
-0.000140003
5.41281e-05
-1.79826e-05
-4.48917e-05
6.28732e-05
-6.00369e-05
9.24181e-07
5.91125e-05
2.22762e-05
6.236e-05
0.000235596
-0.000120402
0.000136855
0.000153204
6.21434e-05
-4.50058e-05
-1.71376e-05
4.06498e-05
5.62522e-05
-9.69001e-05
4.98676e-05
0.000145629
-0.00019686
-0.000199824
0.000272866
-7.35994e-05
-6.51339e-05
-5.41604e-05
2.9428e-05
-7.51966e-05
-5.2551e-05
2.85911e-05
8.34856e-06
5.37947e-05
-0.000211102
0.00021891
-8.33756e-06
7.91246e-05
0.00013327
-0.000212828
-3.4456e-05
4.12979e-05
-6.84186e-06
4.43817e-05
0.000246952
-8.04603e-06
0.000236898
2.72504e-05
-6.70009e-05
3.97477e-05
-6.6295e-05
-8.88691e-05
0.000155073
0.000126238
-0.000202434
7.57478e-05
-3.20114e-05
4.66647e-05
3.7867e-05
-3.82495e-05
2.76245e-08
-5.541e-05
-6.62029e-05
0.000121603
-5.22607e-05
-4.06772e-05
2.34491e-05
2.04159e-05
0.000172564
6.47176e-05
5.22037e-05
0.000195814
-0.000248464
7.36703e-05
0.000123846
-0.000198167
-1.23947e-05
-0.000223695
0.000234012
-2.62963e-05
8.56702e-05
-5.93789e-05
0.000184019
-0.000198157
0.000147431
-1.67066e-05
-0.00013079
-0.00019904
0.000271844
0.000222221
-0.000137887
-8.45793e-05
-0.000198396
-1.3413e-05
0.000191534
-3.4014e-05
0.00034406
-0.000110907
-0.000235019
0.000314544
-0.000168922
-0.0001465
0.000188981
5.77961e-05
-0.000248471
-9.15474e-05
0.000278636
-0.000219233
0.000138361
8.06162e-05
2.07906e-05
-6.72239e-05
4.64328e-05
3.16649e-05
-5.47552e-05
2.30902e-05
0.00031246
-0.00017164
7.09775e-05
-4.72619e-06
-6.62522e-05
-8.62488e-05
0.00016601
-7.97999e-05
5.62378e-05
-2.45728e-05
0.00015876
-0.00015781
-1.10205e-06
-1.68646e-06
0.000100118
-9.84527e-05
-0.000204957
-3.27475e-05
6.88326e-05
-1.37479e-05
-5.50858e-05
0.00019404
-1.10502e-05
4.00073e-05
-0.000203034
5.83567e-05
6.13393e-05
-0.000244968
0.000178299
-1.41817e-05
-4.58553e-05
0.000243335
-0.000140908
-0.000102736
1.09038e-05
-5.43989e-05
-0.000144581
7.50367e-05
6.94974e-05
-1.1314e-05
0.000158679
0.000272972
-0.000229618
-0.000180899
0.00019381
-4.82913e-05
4.88571e-05
-5.65866e-07
0.00018951
-3.72936e-05
4.48416e-05
-0.000220068
-5.23697e-05
0.000270342
4.61117e-05
-5.03518e-07
4.55866e-05
-4.43261e-06
-4.1154e-05
-5.21425e-05
7.93896e-05
-0.000180684
9.94086e-05
-0.000174268
4.41408e-05
5.57251e-06
2.72799e-05
-3.04298e-05
0.000302682
-0.000296004
-8.42809e-06
-3.59514e-05
-1.65996e-05
2.84392e-05
-3.77862e-05
7.94929e-06
-5.45813e-05
0.000213645
4.53626e-05
-3.57848e-05
-0.000184444
0.000249524
4.2562e-05
-6.34744e-06
8.42603e-05
6.39558e-05
-0.000148298
8.28082e-05
5.4713e-05
-0.000137575
4.80784e-05
-2.49183e-06
-0.000282405
0.000118946
0.000163387
3.89537e-05
0.000261908
6.35741e-05
-2.30396e-05
-4.0535e-05
-6.5694e-05
0.00012237
-4.73803e-05
-4.75131e-05
6.63657e-05
-2.21966e-05
-0.000217393
0.000238823
0.000145086
-0.000245673
-9.60183e-06
-0.000218721
9.74233e-05
-5.32663e-05
-4.41587e-05
-0.000131738
8.54337e-05
4.62816e-05
-0.000265058
8.62009e-05
1.36008e-05
8.24383e-06
-2.2942e-05
0.000225142
-0.000242997
-0.000110985
5.55692e-05
1.17888e-06
-3.56349e-05
5.42044e-05
0.000125057
-0.000179389
-0.000180308
0.000170492
-3.53233e-05
4.4704e-06
3.06451e-05
-2.10565e-05
0.000179662
1.08687e-05
6.47334e-05
-7.56054e-05
4.98499e-05
-8.44087e-06
-3.78055e-05
4.91214e-05
6.12726e-05
3.72225e-06
-6.49958e-05
-6.02738e-05
-4.96804e-05
0.000109951
-7.09496e-05
0.000122705
-5.17667e-05
4.60924e-05
3.70171e-06
0.00020816
-0.000270956
6.14323e-05
-0.000109566
-0.000154875
0.000260084
-8.20358e-05
0.000226363
8.47046e-05
-2.87202e-05
8.74123e-05
-5.86959e-05
-1.96283e-05
-0.0002118
0.000230546
3.4764e-05
9.23924e-06
-4.95984e-05
-8.65659e-05
-2.44261e-05
6.60279e-05
-9.68325e-06
5.6014e-05
4.01075e-05
-0.000100384
-5.59747e-06
-4.24408e-05
0.000230817
-0.000278951
4.68309e-05
0.000250538
0.000284857
-0.000234395
-5.13093e-05
0.000210992
-2.90998e-05
1.51722e-05
-2.22858e-06
-2.71522e-06
3.97156e-05
-0.000236694
1.31381e-06
5.20299e-05
-5.33437e-05
0.000292419
-0.000147664
4.31004e-05
0.000171092
-0.000220665
6.34965e-05
5.30049e-06
-1.66103e-05
-5.50704e-05
7.16741e-05
0.000129173
-0.000242433
-0.000248533
1.50381e-05
0.00023274
-9.13543e-05
0.00013185
-4.05083e-05
-3.72138e-05
-3.30517e-05
0.000246957
-0.000102531
0.000303955
-0.000212137
-9.36826e-05
-6.54969e-05
-6.88591e-05
0.000191457
1.19438e-05
4.24138e-05
-5.43577e-05
-0.000168453
-2.19347e-05
-0.000203735
5.14591e-05
-3.10119e-05
-2.04472e-05
5.62343e-05
-7.28513e-05
0.000261414
-0.000198861
-6.72504e-05
-5.53449e-05
2.17346e-06
5.31713e-05
-3.78724e-05
-2.92407e-06
4.07964e-05
-2.26218e-05
5.96043e-05
-3.69826e-05
-0.000233632
0.00020964
0.000129447
0.000172641
0.000205586
-7.36448e-05
0.000102991
-5.55653e-07
-0.000102448
-0.00020112
0.000198744
2.35153e-06
-5.00113e-05
4.77341e-05
3.54282e-05
6.1993e-05
6.2779e-05
8.1973e-06
-8.29089e-05
2.5779e-05
5.71283e-05
0.00023727
-0.000181283
0.000162948
-7.87767e-05
4.79805e-05
-4.24247e-05
-5.55584e-06
5.01057e-05
5.34529e-05
-4.80753e-06
-4.86457e-05
-0.000161105
-8.77358e-05
0.00024853
-0.000118859
0.000189942
-7.11998e-05
-0.000224898
0.000106304
3.14536e-05
1.31763e-05
-4.46299e-05
3.81862e-05
-4.50492e-05
1.37067e-05
-9.65842e-05
0.000209175
6.18749e-05
0.000197938
4.21486e-05
5.47166e-05
-0.000191604
0.000136607
-9.76577e-05
-3.40985e-05
-0.000205584
0.000244248
5.86905e-05
4.88288e-06
-0.000157576
-6.74355e-05
5.59171e-05
-7.8605e-06
-7.60574e-05
-0.000183651
0.000259352
-5.95964e-05
0.000284079
1.34734e-05
-4.30914e-05
-4.14087e-05
0.000141023
-0.000170322
0.000103332
6.69099e-05
-6.48591e-05
7.57246e-05
0.000215166
5.16474e-05
-0.000268841
-2.60475e-05
9.47209e-05
-6.86865e-05
5.64473e-05
-9.51843e-06
-4.69291e-05
0.000165551
5.21356e-06
-0.00017089
5.35693e-05
0.00023
1.09011e-05
0.000163293
-0.000174259
0.000114588
5.45668e-05
-0.000169337
3.45033e-06
-2.95551e-05
2.53433e-05
-0.000162164
-1.02084e-05
0.000172225
-0.000141738
-3.88376e-05
0.000204194
9.38038e-05
-7.87336e-05
-1.50766e-05
-0.000208295
0.000205415
5.07289e-05
0.000225533
-5.86954e-06
3.88234e-05
-0.000116469
0.000154934
-0.000109979
0.000235743
8.2896e-05
0.000261032
-3.15575e-05
0.000149227
-0.000240051
7.52822e-05
-0.000181374
0.000214623
-4.03775e-05
0.000155533
-7.0998e-05
-8.45256e-05
-0.000120267
-6.63834e-05
0.000186587
-9.12467e-05
7.80371e-05
1.3203e-05
-7.1144e-05
0.000174408
3.30555e-05
-4.72373e-05
-8.01859e-05
0.000243421
-0.000163926
2.68494e-05
1.70156e-05
-0.000129578
0.000193611
-6.41014e-05
0.000148502
6.40297e-05
5.22989e-05
-5.03954e-05
4.70377e-05
5.49063e-05
-6.36377e-05
8.73065e-06
-0.000189418
0.000194489
0.000112425
0.000130519
-4.64328e-05
-0.000188987
-0.000305318
0.000296622
7.4421e-06
1.18698e-05
8.85209e-05
-0.000100409
5.11771e-05
7.72711e-05
-0.000128491
-0.000157369
6.24041e-05
9.49132e-05
-2.56039e-05
0.000103185
-7.75918e-05
4.17683e-05
-8.02406e-05
-3.99124e-06
8.4224e-05
2.59407e-05
4.89366e-06
-4.17182e-05
-5.43937e-05
4.36157e-05
1.07778e-05
7.61654e-05
-3.88009e-05
-3.73654e-05
-0.000268124
3.89344e-05
0.000228456
-7.62476e-05
-0.000229551
9.62246e-05
5.93115e-05
-2.91944e-05
-2.70667e-05
0.000106751
-0.00017051
9.20125e-05
-8.68616e-05
-6.74576e-06
-5.01165e-05
0.00010579
-5.56747e-05
-2.69979e-06
9.64963e-05
-2.03972e-05
-9.6851e-05
-8.68198e-05
0.000139417
-5.26131e-05
-6.11083e-05
3.69495e-05
2.41586e-05
0.000204248
-0.000182986
0.000115781
-0.000118517
2.72122e-06
2.12069e-05
2.11435e-05
-4.23504e-05
6.41813e-05
-6.26008e-05
-5.95984e-05
7.65781e-06
8.65542e-05
-9.42198e-05
8.71837e-05
-2.24718e-05
-0.000193065
1.86048e-06
0.000191027
1.03556e-05
-3.00082e-05
-0.00019713
-2.54313e-05
0.000296255
-8.10555e-05
4.50817e-05
2.92137e-05
-7.12612e-05
4.20478e-05
3.28595e-05
2.13055e-05
7.55203e-05
-5.47303e-05
-3.79214e-05
-8.30078e-06
4.62222e-05
4.48705e-05
-4.45476e-05
-3.22979e-07
6.29823e-05
-0.000113099
-0.000203007
6.56719e-05
-4.75967e-05
4.76008e-05
-4.12331e-09
-6.65457e-05
6.37817e-05
2.76352e-06
-0.000188709
9.04531e-05
-3.37897e-05
-5.66637e-05
-9.36469e-06
4.43243e-05
-3.49596e-05
7.03894e-05
-6.6652e-05
-3.73829e-06
0.000151315
-9.72138e-05
-0.000218534
7.46651e-05
0.00013765
-2.44777e-05
0.000228377
-0.000137535
-7.9428e-05
0.000216701
-8.73792e-05
0.00020176
0.000125895
-0.000109966
-1.59473e-05
0.000271024
-0.000158563
2.61326e-05
1.77324e-05
-9.12497e-05
-0.000128223
-0.00013825
0.000203419
-6.53104e-05
4.35417e-05
-1.20881e-05
0.000235602
-0.000278023
4.09188e-05
-7.5252e-05
-9.51489e-05
-7.92691e-06
6.13794e-05
0.000309683
-0.00027265
-0.000257299
0.000139337
0.000117456
4.89669e-05
-5.00647e-05
1.0977e-06
-0.000164162
5.96411e-05
9.49289e-05
-8.16682e-05
5.56086e-05
-0.000185171
-5.19869e-05
3.01265e-05
2.18604e-05
-2.59028e-05
-0.000163714
-0.000129559
-4.1609e-05
0.000171089
-8.95328e-05
-0.000105303
0.000217383
-0.0001123
9.60636e-05
6.91407e-06
-0.000139441
0.000195904
-5.64485e-05
4.50369e-05
-4.48702e-05
-0.000118735
-2.22084e-05
0.000140909
-0.000256321
8.54171e-06
0.000246237
2.42932e-05
1.95718e-05
-4.3865e-05
9.60992e-06
-0.000139236
-2.18701e-05
-2.43225e-06
3.42695e-05
-3.18373e-05
7.35626e-05
-1.00678e-05
7.30678e-05
0.000239691
-0.000122524
0.000251611
-0.000212517
-4.40975e-05
-4.08657e-05
2.99332e-06
0.000147523
-0.000136676
-0.000155828
-6.44757e-06
-5.52567e-06
6.42385e-05
-6.10045e-05
-0.000171219
6.67507e-05
-5.47891e-06
6.45185e-05
-5.00849e-05
-1.4434e-05
-0.000133239
4.91275e-05
-2.2278e-05
5.79662e-05
-8.66897e-05
0.000227192
-3.4114e-05
-0.000193336
-7.75951e-05
-0.000146882
8.39851e-05
-6.96412e-05
-7.49916e-05
4.12681e-05
6.37641e-05
5.44324e-05
0.000191649
-0.000248274
6.48223e-05
-9.91686e-06
7.77705e-05
-0.000167663
-0.000127083
-2.44716e-05
-1.68163e-05
2.70544e-05
-4.72229e-05
-4.09123e-05
-0.000162683
-0.000179358
-5.45821e-05
-5.05761e-05
0.000123567
-7.30165e-05
6.47655e-05
-2.019e-06
-0.000259088
5.58208e-05
-3.77008e-05
-9.31235e-06
4.70132e-05
2.32293e-05
-4.07274e-05
-0.000203849
0.000244365
0.000285191
1.01732e-05
-0.000106488
-5.98573e-06
0.000112458
-0.000128038
6.61462e-05
-0.000197548
5.66124e-05
0.000102926
-6.22745e-05
0.000170382
0.000143293
4.05705e-05
7.40992e-06
-7.70954e-05
0.000152918
-7.58687e-05
0.000251566
-0.000207011
-4.49551e-05
1.22756e-05
5.89085e-05
-7.11842e-05
2.06425e-05
-4.17855e-05
-0.000194999
-3.04008e-05
0.000221944
1.68207e-05
4.76974e-05
-0.000169332
0.000153682
2.77778e-05
0.000279977
-2.04097e-05
-0.000180775
0.000115564
-0.000139158
2.35934e-05
4.96363e-05
-4.4423e-05
-5.21344e-06
0.000169497
-5.8415e-05
4.25276e-05
-2.13207e-05
0.000188535
-0.000126585
-6.20223e-05
-6.60707e-05
2.4414e-05
4.16564e-05
-4.33382e-05
-3.95718e-05
0.000179759
-0.000178064
7.36274e-06
0.000243393
-0.000191629
7.9039e-05
-2.9668e-05
-4.93714e-05
-0.00021026
-3.48661e-05
-2.0479e-05
-4.14479e-05
3.15131e-05
0.000267188
-0.000195421
-7.23023e-05
-1.45941e-05
4.57782e-05
-3.11841e-05
-0.00012095
-7.75528e-05
0.000198304
-0.000148025
1.83989e-05
-7.02005e-05
1.40926e-05
5.61073e-05
0.000109817
-5.35312e-05
-5.6287e-05
4.76032e-05
-3.46246e-06
-9.3201e-05
-0.00017708
0.00026598
-3.13561e-05
6.44114e-05
0.000274043
-5.1534e-05
-0.000223016
6.22388e-05
-1.7202e-05
0.000275752
-0.000149758
-0.000126793
-4.35014e-05
-0.00011419
-0.00014569
0.000200039
3.56442e-06
-0.000276138
0.000269301
6.29856e-05
-2.20128e-05
-5.49239e-05
-0.000160433
9.18466e-05
6.84908e-05
-1.25282e-05
6.76471e-05
2.7411e-06
-6.42983e-05
0.000204455
6.48429e-06
-4.76046e-05
4.11203e-05
-3.1501e-05
0.000211033
0.000256371
-0.000255898
0.000190545
-0.000136195
0.000192386
-0.000118965
-7.34844e-05
-8.99153e-05
7.98411e-05
1.00644e-05
-5.68123e-05
-1.33888e-05
0.000180431
-1.10304e-05
1.88721e-05
6.31635e-06
-0.000161403
-3.73379e-05
0.000198572
-3.75459e-05
-2.36904e-05
0.000107701
-8.4426e-05
-0.00023446
-9.16094e-05
-0.000187018
-0.000164619
3.08971e-06
-0.000197578
0.00012142
7.60375e-05
4.854e-05
-2.24074e-05
-5.60039e-05
0.00028999
4.56322e-05
2.17805e-05
-6.7414e-05
9.3211e-05
-6.59849e-05
2.91618e-05
4.70026e-05
2.44309e-05
-4.70529e-05
-2.75606e-05
-2.28105e-05
-0.0002062
0.000148419
5.04632e-05
-0.00013791
5.22508e-05
8.56007e-05
0.000299922
9.81978e-05
0.000145208
-0.000244001
-0.000124716
-7.30788e-05
0.000197599
3.627e-05
-4.56347e-05
0.000154853
-0.000228214
6.67372e-05
-0.000224113
0.000175975
-1.18895e-05
3.53243e-05
-3.69811e-05
2.22261e-05
0.000198271
-0.000193892
-4.50994e-06
-8.17811e-05
-0.000175485
0.000157833
-0.000140089
-1.78191e-05
0.000169442
-6.27921e-05
-5.38361e-05
1.85597e-06
5.19799e-05
4.93374e-05
-2.77091e-05
5.82141e-05
0.000180578
-0.000241133
-0.000253058
0.000248401
4.397e-06
-4.83729e-05
0.000190307
-5.91523e-05
4.95572e-05
9.59499e-06
3.64702e-05
9.49345e-06
-6.17366e-05
5.24551e-05
9.2814e-06
-2.69911e-05
7.59601e-05
-8.43277e-05
6.4231e-05
2.00947e-05
-2.68634e-05
7.03117e-05
-4.34495e-05
-0.00017179
-0.000113791
0.000192486
-0.000256664
5.04618e-05
-0.000267264
-0.000192364
0.000240911
-4.87479e-05
0.000196234
-0.000147705
-0.000233285
-6.30592e-05
6.44594e-05
-1.40097e-06
-1.07734e-05
-4.19174e-05
4.00339e-05
-0.000221969
-0.000104107
7.20075e-05
3.20984e-05
0.000168931
-0.000110979
-6.63739e-05
0.000180236
4.66789e-05
0.00012871
-0.000140083
-0.000112479
-0.000120712
-0.000163136
-0.00017973
-7.79807e-05
-6.10062e-05
2.70642e-05
3.74593e-05
-5.16797e-05
8.78072e-05
8.71596e-07
-8.87016e-05
4.42285e-05
3.37462e-06
3.54278e-05
-0.000106386
-2.04268e-05
4.69084e-05
-7.80088e-05
-2.13601e-05
-1.33735e-05
-4.45634e-05
-5.87141e-05
5.0982e-05
7.732e-06
5.76835e-05
-0.00013482
5.68939e-05
-4.46872e-07
4.97189e-06
-8.52196e-05
4.18134e-05
-4.42456e-05
-0.000220166
-4.44425e-05
0.000262855
-0.00022193
-0.000169107
-3.78911e-05
0.000202628
-0.000188061
-4.75962e-05
-3.99022e-05
8.7497e-05
7.47553e-05
1.86317e-05
-3.79982e-05
1.96372e-05
9.89688e-05
-0.000125021
2.60339e-05
0.000141683
-3.28109e-05
-0.000116046
-9.6715e-05
-4.37949e-05
0.000140582
-6.93964e-05
-8.92997e-06
-2.73759e-05
3.42447e-05
4.45359e-05
1.45611e-05
-5.90981e-05
-0.00024013
8.43495e-07
0.000238028
2.10256e-05
-1.69801e-05
-8.95208e-05
0.000193321
-0.000258504
6.04382e-05
8.99836e-05
-1.65284e-05
-7.34597e-05
6.46316e-05
-3.54178e-05
8.67642e-05
-0.000251318
0.000164
-5.15767e-05
-0.000178024
0.000228894
-1.39785e-05
0.000267136
-5.7145e-05
-4.73713e-05
0.000104506
0.00014363
9.40264e-05
0.000207174
-0.000122564
-8.49016e-05
-7.0874e-05
8.42178e-05
-1.33455e-05
-0.000262405
0.000239632
2.27791e-05
5.71227e-05
-3.66952e-05
-2.04275e-05
0.000206396
-0.000287304
7.98722e-05
5.28923e-05
-4.45438e-05
0.00012647
-0.000204443
7.75548e-05
9.30832e-05
5.10316e-06
-9.8206e-05
0.000256702
-8.20452e-06
-0.000250199
-0.000135093
6.91463e-05
6.59117e-05
-3.71497e-05
0.000165794
4.46795e-05
-0.000158608
-0.000152652
0.000238877
8.70543e-06
4.84171e-05
-0.000206888
-0.000121222
-4.29978e-05
4.20358e-05
9.61952e-07
-3.88723e-05
-1.97374e-06
4.0846e-05
9.93797e-05
-0.000219216
1.27354e-05
-1.74747e-05
-0.000110912
0.000196341
0.000146447
-0.000218728
6.73447e-05
9.7461e-06
-4.74469e-05
0.000289095
-5.0527e-06
4.77712e-06
4.8115e-05
3.79882e-05
1.47026e-05
0.000141213
-2.02841e-05
5.40424e-05
-3.09936e-05
-2.30489e-05
2.44346e-05
-5.21683e-05
-0.000229923
0.000289739
-6.1293e-05
-3.77309e-05
-4.05396e-05
-1.81746e-05
-0.000114357
-2.50729e-05
0.000252918
-0.000193677
-6.09577e-05
0.000247037
3.69469e-05
0.0002075
0.000228764
-5.95171e-05
-0.000169883
-7.36008e-05
-5.13646e-05
0.000124951
3.76575e-05
-5.94629e-05
2.18054e-05
-7.68548e-05
-0.000140666
0.000217303
-3.80675e-05
4.53721e-05
-3.88878e-05
-8.20491e-05
2.41467e-05
5.78997e-05
1.39693e-05
-0.000115025
0.000101041
0.000157521
5.50215e-05
-0.000213462
2.59875e-05
-4.21159e-05
1.61284e-05
2.94012e-05
0.000126443
3.13255e-05
-3.85106e-05
0.000293598
-5.51158e-05
0.000271771
-0.000216979
-5.64239e-05
5.29875e-05
3.43627e-06
-0.000226049
-1.47146e-05
-3.72724e-05
6.11104e-05
9.59656e-06
2.00355e-05
-3.06081e-05
0.000126202
6.61221e-05
5.11164e-05
-5.88227e-05
-2.85985e-06
0.000137331
4.29923e-05
3.61279e-05
0.00011205
-0.000148322
-1.34991e-05
0.00014616
-0.000208436
0.000165456
3.62575e-05
5.34728e-05
0.000174454
-2.67995e-05
-2.33421e-05
5.01415e-05
-5.73078e-05
3.27613e-05
2.31012e-05
-0.000152737
-2.23409e-05
-2.74368e-05
-0.000241784
0.000186388
0.000280458
-4.68991e-05
7.01929e-05
-0.000136406
-3.83717e-05
-1.53521e-05
5.37238e-05
-0.000139512
-3.12187e-05
0.000170598
-5.18204e-05
7.84243e-06
4.39779e-05
3.32564e-07
0.000193741
0.00025953
-0.000129149
-0.000109688
-5.00428e-06
-4.25924e-05
5.88708e-05
-4.65953e-05
1.60865e-05
3.77059e-05
-5.37924e-05
-1.99118e-05
3.02444e-05
-0.000128244
0.000218512
4.83795e-05
-2.48523e-05
-2.69681e-05
-0.000103706
0.000282204
-0.000181478
-3.01543e-05
7.46889e-05
4.90925e-05
5.38613e-05
-4.41152e-05
-7.93696e-05
4.98642e-05
2.71579e-05
9.78577e-05
-8.68426e-05
-1.94082e-05
-3.60434e-05
-4.82858e-05
-0.000114446
0.000244449
-0.000130901
1.87246e-05
-4.55241e-05
0.000257516
-5.0433e-05
3.63584e-05
-5.09524e-05
2.43205e-05
-0.000265041
0.000198491
-0.000152584
-2.27686e-05
-1.94111e-05
6.50418e-05
1.47184e-05
-5.26121e-05
3.78937e-05
-0.000134901
-7.48455e-05
-0.000202819
0.000250467
-4.83946e-05
-0.000127127
-0.000155452
-0.000233034
-0.000182314
0.000234658
2.64322e-05
-7.53666e-06
-1.92206e-05
-7.33976e-05
9.26082e-05
-3.08422e-05
-0.000169621
0.000199949
-6.46771e-05
4.82763e-05
1.64005e-05
0.000251684
-0.000114311
-0.000137646
-4.14708e-05
-1.76816e-05
-0.000220945
0.000260919
-4.14216e-05
0.000192818
6.37713e-06
-0.000204196
-7.46929e-05
1.76123e-05
5.70789e-05
5.48724e-05
-3.26215e-05
-2.2251e-05
-6.06485e-05
9.84009e-06
5.08079e-05
0.000145779
-0.00025585
0.000109609
-1.9821e-05
4.93288e-05
-0.000265471
4.32954e-05
5.80873e-05
-2.41081e-05
-3.39792e-05
-0.000152351
8.26846e-05
-9.18642e-05
9.17376e-06
0.000236854
4.3627e-05
-3.4592e-05
5.90228e-05
0.000291536
-0.000230522
-6.26839e-05
-0.000114514
0.000150495
0.000190217
-0.000191254
4.67964e-05
0.00022512
-0.000273138
-3.95901e-05
4.23436e-05
4.7471e-05
8.44592e-06
-7.60227e-05
6.06461e-05
1.5375e-05
5.09682e-05
-3.03192e-05
-2.06491e-05
0.000101302
-8.73449e-05
-9.62756e-05
-0.000107248
0.000203274
-0.000120529
-0.00010842
-2.81266e-05
0.000196135
-0.000172397
-4.51341e-05
0.000210499
-5.6184e-05
-0.000117378
0.00015543
9.64836e-05
-6.50677e-06
7.57484e-05
0.000198823