/*--------------------------------*- C++ -*----------------------------------*\
| =========                 |                                                 |
| \\      /  F ield         | OpenFOAM: The Open Source CFD Toolbox           |
|  \\    /   O peration     | Version:  v2012                                 |
|   \\  /    A nd           | Website:  www.openfoam.com                      |
|    \\/     M anipulation  |                                                 |
\*---------------------------------------------------------------------------*/
FoamFile
{
    version     2.0;
    format      ascii;
    class       volScalarField;
    location    "400";
    object      omega;
}
// * * * * * * * * * * * * * * * * * * * * * * * * * * * * * * * * * * * * * //

dimensions      [0 0 -1 0 0 0 0];


internalField   nonuniform List<scalar> 
18758
(
0.118592
7.07592
0.0214726
3.91223
6.37022
6.31349
7.4411
0.0217115
0.292282
0.0277998
0.0236406
9.76792
0.0220465
0.174959
0.023004
0.621351
0.0415666
0.0219425
0.0219103
0.0310227
7.54797
0.0222712
5.39488
2.48964
2.07958
0.0217157
1.71732
6.26953
8.59934
4.29557
0.0697489
5.78344
0.0221819
0.0226468
0.142413
0.0221715
0.0222265
0.0219937
0.022245
0.0450088
0.0219906
0.026634
0.0216436
0.0261855
2.285
0.0216162
5.12307
0.02395
0.0273505
0.0216116
0.140911
6.3169
0.0215421
0.0234152
6.07418
10.294
0.0222172
0.355821
0.0219331
0.194506
0.0971724
6.38693
0.127062
0.0228456
0.0215517
0.0220138
0.0461711
0.0221775
0.0219163
6.23788
6.03174
0.0223135
0.021618
14.172
0.0216834
0.0219262
0.274915
6.3738
0.0885596
5.06
5.73516
4.50413
0.194285
6.15126
0.280605
0.0302691
22.6427
0.125653
5.95599
0.0219253
5.94332
0.0219344
14.1358
0.027066
5.64732
12.7708
0.274531
0.0216823
0.0218875
6.42804
0.0325007
5.66097
0.0931129
0.046983
7.59505
2.95006
4.75412
6.51135
0.0226149
0.0222993
16.2127
10.6008
0.0217559
0.0220413
7.22653
10.8787
8.70507
0.0230039
7.34344
5.39841
0.0383078
0.0219583
10.586
1.40782
0.563286
1.734
6.43486
1.41029
11.3946
0.0220422
0.0431738
1.56732
14.2981
0.0492746
4.84953
0.0238541
0.268406
0.0470955
0.0218853
0.0780248
0.0892142
0.240209
0.021957
13.9626
0.0219944
0.0219932
10.3953
6.79132
0.0686172
6.83436
3.31014
1.39984
0.0302157
0.0222708
4.96308
0.0280808
6.45935
0.0239589
0.0221641
0.0222888
0.0218019
0.192074
19.1688
0.0221583
0.096741
8.40305
0.0219548
11.1107
0.221446
6.48653
5.25388
0.0219374
18.7175
6.28725
0.191879
2.11053
7.78425
0.022944
0.0762052
0.022108
0.0217944
31.6937
1.0715
0.0216429
0.0250867
0.663048
0.0219091
9.11898
0.0216288
0.0219232
0.0495854
0.984955
0.0224079
0.0646486
0.0339752
0.128082
0.0316588
0.249806
0.0221483
0.021637
0.0734366
0.0238942
0.0367742
0.0899081
0.022035
0.0335304
0.0967024
0.0222788
8.04559
0.0273912
0.0219296
0.0494813
0.0222014
0.036491
0.0763185
6.07055
0.0836329
0.54604
0.0216305
6.39672
0.0219294
0.0226329
0.239024
8.16986
0.280005
0.0948736
0.0601372
0.0465943
0.0216006
0.0912409
0.0220075
0.127438
5.05278
0.28265
0.0220628
0.0219115
0.0216025
0.0216409
11.0369
0.0367817
0.0218297
0.819276
4.87696
0.0229686
6.79783
38.4322
0.281369
0.0221781
5.68454
0.029753
0.022152
10.45
0.0303372
0.0302486
0.0224787
0.0416884
0.615918
0.672465
0.0356062
0.085045
0.0216548
0.0758235
0.0220325
0.0889865
0.0269341
0.236776
9.93706
0.0216356
0.0225004
0.441571
0.0224322
0.0248529
0.0895437
8.70096
10.7912
0.0219493
0.123258
27.6776
2.41869
0.0225998
0.0217315
0.0292658
0.0369846
0.0219491
24.8662
0.664838
3.67046
34.3638
5.3369
0.0216229
0.0214657
0.0515272
6.81491
0.0255726
0.0853563
0.120472
0.0292461
5.44921
0.0218778
0.49754
6.24211
0.0216284
5.67899
0.0376731
0.0219422
0.0331688
0.0901945
0.0227674
0.0221564
6.61342
2.70725
0.0219253
8.31666
5.43486
0.251099
0.0220189
0.0221202
0.650087
0.0229414
0.0216382
0.0217617
0.0230119
0.237644
0.0916827
0.0292343
0.0357817
0.031166
0.0495289
0.0216406
0.0222786
1.28322
0.0556357
0.131745
3.85012
0.0259685
0.0223557
0.0220755
0.488719
5.82442
0.0216131
0.0219169
0.0216154
0.0237424
0.0441189
1.45047
0.0219587
0.0221978
0.0216014
0.802614
0.216406
0.187133
0.15633
0.0228093
0.875595
0.111757
0.0375575
0.031455
9.03988
7.24532
0.930533
0.0220471
0.0332078
8.75943
8.4718
0.0249563
0.0216273
0.0610247
0.0219436
0.0302217
8.4793
3.63292
0.121815
0.0304441
8.29502
0.0219774
0.0238802
0.0218868
0.0222537
0.119279
0.0240202
7.45465
0.273567
0.0224061
0.0219301
7.4857
0.11959
0.284828
0.0219766
0.0541441
0.0217218
0.0260365
0.0219584
0.0216451
9.02924
7.40638
4.12392
21.1427
0.0219114
0.253237
5.11907
0.0425898
0.0217502
3.86022
0.0217614
0.0220392
0.0217899
0.123207
0.0219509
0.0260689
0.144804
9.98103
0.0217483
6.24669
0.0489376
0.022025
0.0256548
0.0219497
0.0219188
0.0285278
0.0708155
0.0488821
26.3203
0.0399183
0.0220452
0.396082
5.78792
4.75271
5.40848
0.114388
0.0225301
0.0216456
0.0218333
0.022221
0.121498
0.0429275
0.0320638
0.0362363
0.0302496
0.63022
0.0947386
0.0219442
0.0347765
5.45755
0.0228293
3.61462
0.0222042
0.0220824
5.0068
0.0280767
0.022429
0.6086
0.146086
0.0507045
10.1879
0.0219312
0.0226416
0.746015
8.59736
0.0360619
0.0723081
0.180161
0.532862
26.2069
0.177959
0.0222869
0.143572
0.0220391
0.123595
0.0231162
12.4811
0.0533603
6.10568
0.031943
0.0786335
0.0216294
2.55472
0.0216241
9.41753
0.0218907
0.362028
0.022058
0.685057
0.031197
0.0220883
0.0218932
0.0217817
5.13179
12.1506
7.27084
0.0456024
0.0245117
0.0909119
0.0222702
0.0222874
6.38218
0.0218938
0.0220625
0.122735
0.0220413
0.0703942
0.0904882
0.0220581
0.0219476
0.0279352
0.0227349
0.0286399
6.72346
0.03093
0.0357341
0.0267032
0.0220492
3.69442
0.0223325
0.0226227
3.63617
10.4478
0.0746035
1.03531
0.0251689
0.0225924
7.61032
0.0219341
9.61393
0.32879
0.0220823
6.72436
1.26143
0.0619447
0.0218574
0.0530515
6.17538
0.021996
0.0218555
0.0230608
0.0227563
0.0220107
0.0216972
0.0222939
10.4905
0.0251413
8.31609
0.0219637
0.16011
8.43629
0.0220382
0.0216357
0.0250951
0.0221291
0.0226695
0.0233071
0.0220967
0.12385
0.802561
0.02154
6.22532
5.7386
0.0355168
0.141657
4.40983
0.026408
0.0301952
0.0283197
6.13323
0.0250421
0.0459205
0.021996
8.21996
0.0425728
0.218004
0.155822
7.22879
0.0249847
0.0219219
0.0604153
1.56118
0.0226065
0.451495
0.0222247
5.36937
0.0227613
0.021783
0.0217779
0.0220473
5.80423
5.4572
0.0219902
0.286087
0.0306536
4.75427
8.00609
0.624508
4.46
0.021878
6.47174
0.063759
0.0219792
0.0472254
6.29095
6.30494
0.0226272
0.0225613
0.022007
0.021508
7.01903
0.122353
6.14658
5.22459
0.022026
0.0221402
0.060436
0.0222811
0.0218043
0.023283
0.0228766
0.126316
0.0417639
0.220988
6.52691
0.0725941
0.0220647
0.0274733
0.119897
6.47148
0.0438094
7.84896
0.0534469
0.0219948
0.279481
4.69756
0.0224665
0.0216324
0.148107
5.85024
0.247332
0.0220419
9.04249
31.7754
2.13123
0.0216052
6.69756
6.79885
23.1224
0.0240172
0.0221965
7.46693
0.0222945
0.207394
7.33343
0.232105
6.3248
0.0915773
5.46249
0.0722223
0.0220882
0.0225428
6.50931
4.28177
8.09422
3.66961
0.0219334
0.207884
0.0222772
0.0609769
0.093038
0.131991
0.0220869
0.0252007
0.240289
6.19555
6.03639
9.43326
0.0387892
0.0325421
0.287161
0.0222339
0.0216996
0.0219541
0.0253282
0.0731912
0.0220357
0.0866425
0.0218504
0.0220713
0.0219045
6.35228
0.0223217
0.0222696
0.0566604
0.0536887
0.0215447
11.7578
0.0219445
0.0216882
0.0559606
0.0368335
0.0247194
0.0228684
5.92237
0.0358916
0.0346035
4.63324
0.0346257
4.01185
0.025987
0.123979
28.2101
9.10449
0.0216247
6.14926
1.75581
0.0216846
5.91513
0.0220648
0.0218915
0.0398672
0.0219506
0.109489
6.37832
0.0216227
25.5266
0.021854
0.0380763
4.2758
0.0215248
5.81921
0.0235215
0.0219657
0.0219144
0.0219505
0.256986
0.0730541
12.1288
0.0746641
6.08141
0.0604301
0.0220374
0.26085
8.30279
5.4322
0.0758188
0.182664
0.0626185
0.0266322
0.254518
0.0226939
6.2616
0.0220346
5.76017
0.022712
0.0758018
0.0279727
0.0223223
8.68238
0.0225622
0.0218118
4.78755
0.0235619
0.0219072
0.0450202
0.0895894
0.264763
2.74113
1.82549
5.77869
0.0221326
0.022205
7.36531
0.0219937
0.825035
0.0985521
0.0237235
0.0220614
0.032775
0.021988
0.0219307
0.0288236
0.744808
0.220839
0.154358
0.0627412
0.0221325
0.0612891
7.7506
0.0218598
0.0935607
0.0238527
6.3308
0.0232352
5.40484
0.0220292
2.09229
0.0222766
0.0881276
0.0219831
0.025013
0.0293991
0.0215296
0.0216725
0.0215803
5.33731
33.6478
0.0325865
6.00966
0.0220008
0.0424018
0.0281001
0.309378
5.31746
0.0326933
0.021537
0.223594
0.0218526
0.0220004
0.0281211
9.76589
9.52401
2.64865
0.68181
0.0739657
0.0229379
0.0218878
5.002
0.0218947
4.58956
0.0275724
0.0221855
6.71226
6.82647
0.0220902
10.3613
0.0270455
0.106247
0.0965399
0.978269
6.7024
1.1758
0.0219982
0.0215008
6.53202
0.0219575
0.0219153
0.0282318
0.0219743
4.87952
0.258911
0.0608053
5.47052
0.0497421
0.137704
0.0237669
0.0219907
0.0215344
0.0217799
10.7389
8.15207
0.288729
0.0220574
0.0215303
0.029908
0.0218343
0.0404583
0.025665
3.03659
6.45512
0.0863985
0.299118
0.299055
0.0218775
0.243357
0.0218908
5.36865
1.65943
6.2586
7.7269
0.0229225
0.0288926
5.22065
5.42653
7.01062
0.0451048
0.128979
6.321
0.0220477
0.287002
1.5905
0.126371
0.0220419
0.0219596
0.0417441
5.29815
3.1088
0.0968775
0.0219669
0.024678
0.0288898
50.9599
0.0222623
0.648307
0.0218865
0.0227244
0.203896
0.0218619
0.0220238
0.0232254
0.0269949
0.0219771
0.0226717
0.0216074
1.5927
0.33304
5.27189
0.0216267
0.0495551
0.0220135
0.26954
0.276063
0.0369711
0.0218902
0.0227997
0.605049
0.139269
0.0289965
8.76306
0.122335
0.0219397
0.0220254
4.14363
6.10514
0.0621707
0.0216143
0.515853
0.0221256
0.0363509
0.0216625
1.28863
5.05418
0.0218595
0.0219926
5.69336
0.0219291
6.53224
8.4258
0.0605901
0.0222544
0.0221658
0.0216581
0.0220356
24.8508
10.3098
0.140111
0.0228343
5.47686
0.0219426
0.021925
7.71064
0.0217425
6.60154
0.0215107
0.0288211
0.0232936
0.0219297
0.0218359
0.0221204
5.42322
0.0224557
0.0221942
0.155
0.0421305
0.0219733
0.0591663
0.0367952
0.0221258
0.282221
0.021978
0.036959
5.50001
0.0949851
0.021954
0.284482
0.0953456
0.0890751
0.0265447
0.0666777
8.59396
0.0244032
0.0609229
0.0219503
0.0215811
0.0220094
0.0432593
0.0365684
0.0462471
0.0218481
0.027448
0.0638128
6.24846
0.288114
0.02192
0.0217785
0.0228156
0.102461
0.02181
8.63103
0.0219581
0.0219502
0.0217775
0.429012
5.49044
0.0221548
0.0235478
0.0218832
0.100543
0.0218069
0.0219556
0.636608
0.0222704
0.0215849
0.0221307
0.141681
0.0217933
0.0218666
4.87214
11.3374
0.610188
0.0435818
5.61345
0.0498957
0.0219526
0.0218999
23.6715
0.0219574
0.0707244
0.089999
0.0421414
0.0266884
0.0222888
0.0305669
0.0228452
0.0216213
0.212136
6.49163
0.0433284
0.0217854
6.4361
0.0461561
6.71343
10.9363
0.104074
0.02214
0.0219216
0.0218213
0.0613124
0.0221264
0.0218337
5.79095
0.157815
0.0419055
0.0219014
0.0667301
0.284603
0.0220964
0.0263854
0.0361258
0.141292
0.0760533
0.0220162
0.0233459
0.0381237
0.0218192
0.0490381
0.022302
9.42118
0.0605722
0.132649
0.0217717
0.0372189
5.52558
4.03771
0.969907
0.0628398
9.61886
0.0221297
0.021954
0.0226495
0.091447
0.0221696
0.0234158
0.0307399
0.0608009
0.0220031
0.0219554
0.0219933
0.022277
0.312113
3.69214
3.20207
0.0219982
8.74787
0.0296328
0.0221551
0.0320522
0.0218699
0.0908168
0.0229586
0.0219664
4.89487
34.7324
5.26006
0.0223167
24.7079
0.0219643
5.2605
4.94818
0.0215403
0.0629197
0.276988
0.0216209
0.0219636
13.5549
0.0222276
0.0220217
0.18768
1.74054
0.0220297
0.0312752
0.0221507
0.0251172
0.138538
0.0221669
5.05349
0.044324
0.021961
1.47571
0.0597715
0.0843262
0.0222882
0.29105
0.0220486
6.39761
0.0219674
0.0217677
15.1303
0.0217008
5.44397
0.0219665
0.055737
7.67606
6.17043
0.021985
0.0223262
0.0220308
0.0232252
0.026846
0.0266542
0.021487
9.14311
0.0218796
0.0219527
0.142303
0.204676
0.0433912
0.0220292
7.13677
0.0899855
0.0223558
0.0351423
0.0219114
0.0217514
8.04712
0.0216301
0.0217716
0.0218098
5.62829
0.0217949
0.021834
6.217
0.025158
6.04087
0.0324345
0.0215134
0.0218797
6.53115
0.0257178
0.0220089
7.51518
5.78223
0.021791
5.07792
0.128327
0.0219043
0.0220108
0.314742
0.022221
0.565299
0.0333211
0.022034
2.70254
11.242
0.265309
0.0218817
7.04172
0.0299071
0.398534
0.734562
0.0218999
9.88597
0.0220135
0.0318281
0.0257826
6.16722
0.0216885
0.0223292
0.691913
0.0222733
0.0354987
0.0216953
0.0220879
6.43666
0.0901398
0.0252092
0.0359126
3.73685
0.0222982
0.023302
0.0570111
0.137246
0.0252953
0.0219511
0.02192
0.0221462
0.0225596
0.0218475
0.0337927
0.0275027
1.37436
0.0220098
7.69369
0.0219783
0.0281802
0.0219858
0.036081
0.0220819
0.0219324
5.49625
5.15204
0.0240267
0.022097
15.1051
0.0275486
14.9734
0.0365847
0.0713808
5.56171
9.64257
4.311
0.0229438
0.0219684
0.0218022
4.04593
0.0218172
0.0220251
0.151305
0.0218414
0.022186
0.0220667
11.0753
4.06539
0.0221812
5.56793
6.41772
0.0239205
0.0219422
0.0221732
5.167
0.0216698
0.0967251
0.0222883
0.0219856
0.0220409
0.021757
0.0807281
0.0219525
0.0218778
0.0217718
0.0216215
0.298131
0.0216087
0.0217984
0.0220775
0.0219486
0.296651
0.530782
0.0587536
0.0226032
0.0219971
0.0221935
0.0222248
5.02985
0.0219312
0.03148
0.0669908
5.33758
0.0219583
0.0219172
5.10667
0.0221258
0.102747
0.0841364
0.0224086
5.01072
5.16199
0.0309515
7.79097
0.0281516
0.123924
0.0214843
16.797
0.0220511
6.83808
0.0220531
0.0218389
3.91614
2.20973
0.423118
0.146628
0.0219064
6.9303
0.0221767
6.60157
0.0562468
0.021935
0.0214861
0.0218784
0.052453
0.0608599
6.16858
0.0405639
0.0218862
0.0219432
0.0218974
11.07
0.185912
0.0332781
0.0221454
0.0219069
0.0301837
1.05107
0.0219035
0.0325993
0.0679665
0.0219311
0.0237979
0.0231331
0.0605739
0.153885
0.0243689
0.0778643
0.0215839
0.0220202
8.90777
0.0405197
0.0901043
3.4699
0.0216116
9.98387
15.1589
0.0503572
6.68856
0.021937
4.67787
5.7283
0.111057
0.021799
9.32562
0.146118
0.0219985
0.0389438
6.14117
0.0226578
0.021979
0.0395649
0.0222713
10.4424
0.030617
0.0220247
0.0222822
0.021877
0.067899
0.0319996
9.22238
0.0994403
5.31741
0.0758171
0.0222611
0.0219393
0.637177
12.7641
0.0219729
0.0218901
0.151332
0.0220696
0.307651
4.82443
9.85819
0.021951
0.0219686
6.76944
0.0217599
6.45407
0.531874
0.021709
5.5929
0.0609995
0.0818488
0.0219758
17.0682
0.0220361
3.74035
0.0215054
0.0491659
0.0227786
0.0216894
8.05365
0.0226571
0.0219625
0.0233689
5.64335
0.0220833
0.0216017
5.00613
0.021899
0.0216489
0.0221231
0.0248854
0.0220618
0.022186
0.0278914
0.0221802
0.0264175
0.0215543
0.265988
7.17855
0.131942
5.48834
0.0277375
0.026373
0.0218782
0.0218315
0.0221076
7.83465
5.13419
0.0218899
0.0222778
0.0219157
22.1044
0.0215951
0.317152
0.492342
5.09531
5.36109
8.42039
5.30947
0.0216266
4.68001
6.18374
5.15997
0.0261739
0.0221405
0.0416815
0.0216423
4.08971
0.128798
0.0616583
0.0268868
9.10113
0.0219964
0.0214832
5.02378
0.142636
0.0219838
0.0215242
0.0434367
0.0221224
15.7564
12.8647
6.54608
4.23175
0.0823957
2.76851
0.0218116
0.291871
0.0221124
0.0219578
0.0216402
5.67074
0.0221378
0.0218194
1.70375
5.1067
0.249997
0.151375
0.0229155
0.0392225
11.1733
10.7241
4.77589
5.38699
0.117923
5.40634
0.217841
1.08678
0.0534903
0.0395015
0.0218804
0.0361526
0.0313804
0.0220553
4.53732
0.021809
0.0219797
0.0220051
6.66351
0.0256119
0.0218134
0.0218346
0.0219689
0.128871
0.087789
3.8432
0.0226554
6.6179
0.0215157
0.0219172
0.0873365
0.068994
0.0215012
5.0686
0.0409647
5.82352
0.0219914
10.128
0.0615041
0.0219246
0.0220623
0.0219524
6.06408
6.0711
9.15169
0.0219861
0.0222429
0.021576
5.91278
0.0282301
0.0220683
1.51167
0.0219321
0.0225871
5.18929
0.0215926
0.021953
0.0220737
0.0221104
0.0214773
0.0223916
0.0215161
0.0222336
0.0823163
0.0400093
0.0218361
8.66272
0.0237554
6.42645
10.2325
0.0505457
5.4839
5.88274
0.0218021
0.0410741
0.0220305
0.0218393
5.88378
0.0261991
6.62515
0.027346
0.125561
0.022072
0.0232736
0.0219136
5.06711
0.0432811
5.36606
0.0220314
0.120856
0.028801
0.0218022
0.0372782
0.0403906
0.0215447
7.93725
0.0221018
0.0401269
0.0220114
0.0305078
0.0491938
0.224256
0.0265872
0.0808516
6.59235
0.0302053
0.0382218
0.0215897
6.68402
0.0598787
0.0222716
0.0736819
4.54275
16.5255
0.0219733
0.0228587
0.0221728
0.0215793
0.0219246
5.30977
0.0282637
0.0220849
10.7972
0.0221158
0.0215889
0.0257789
6.39343
0.0221777
11.2921
4.35657
0.100973
8.55964
0.0225858
5.94958
0.578597
0.0216163
0.0287391
0.0220129
0.0223016
0.0384709
7.5623
0.0627513
1.18752
0.374348
0.0218918
6.69611
0.0219069
4.74995
0.022268
29.1395
4.09439
0.0221599
0.0217522
0.0222788
0.032388
0.0883403
0.0219718
14.0189
0.022922
0.0399663
0.0745537
0.0230736
0.0219228
3.66794
0.0217628
0.218557
0.0293336
21.8227
0.0221279
0.0218832
4.54602
0.0214621
0.0217568
0.0225344
0.0607498
0.0525697
0.283229
0.0243141
0.0217608
0.0250935
0.0222449
0.0225205
5.29104
0.0219418
0.0484131
5.52445
0.209514
0.0219494
0.0908783
0.0218587
0.0222087
0.423804
0.253056
0.0913667
0.0222394
0.0219497
0.0246912
0.0885964
0.0218835
0.029174
0.0218892
0.022226
0.0218435
0.0220018
5.03833
0.0215551
10.0237
5.84338
0.0250805
0.0216804
4.89779
5.84658
0.0217923
0.0219742
12.9861
0.0223085
0.0642832
0.218998
2.00399
0.0219152
0.0228024
0.049767
0.021983
6.75246
0.201811
0.0218017
0.0311453
0.0382939
0.0220908
0.291927
0.0221533
0.0502791
0.0228832
0.0248194
0.0215292
0.021891
0.290844
0.0219647
5.65874
0.0664367
0.0219891
0.0219796
0.0219854
0.0218653
5.13515
0.0222717
0.178292
0.0219058
0.0218516
0.0568398
6.0866
0.0217681
0.0215533
0.0219195
0.0225774
0.0301036
0.0302737
4.76602
0.0279576
0.0218411
0.159964
5.54557
0.022262
0.0312829
5.19962
0.0360457
0.02241
5.05476
0.0214771
8.48416
0.0413366
0.0220687
0.0802764
0.0218557
0.0219198
0.0218999
4.31734
0.0220096
0.527747
5.5581
0.728871
0.02864
0.0219665
4.72325
0.0222779
26.36
0.0217201
0.294387
0.025801
0.08468
0.0226665
3.92707
0.0291523
0.0222245
6.29356
7.04012
0.0215564
0.525839
0.0219899
0.031029
0.0217335
29.2492
1.2749
0.0223017
0.0220228
5.57746
0.283622
0.0218556
0.0234576
0.0220338
0.0218074
0.021711
0.024027
5.55336
15.9419
0.0224676
0.206792
0.0234745
0.0651875
0.0220037
28.3811
6.12178
8.81421
0.0227235
5.47636
8.05785
0.0249193
0.030448
0.0218717
0.0481907
6.84675
0.0221486
0.0217113
0.0217645
0.0273554
0.021583
0.0219854
1.62521
0.0230891
0.200566
0.0220148
0.021973
0.022447
0.0220442
0.193133
12.4159
0.0217892
0.0435754
0.0215379
6.20375
0.0218088
0.0242519
6.38375
2.47093
0.0262429
5.57117
0.404674
0.0220673
0.0602068
0.0221095
0.0328833
0.0222351
0.021925
0.164348
0.121146
5.04389
0.117901
0.0348892
6.91212
0.0231075
0.0421873
0.0226836
5.2008
5.02327
4.2193
0.0219477
0.0215144
7.65157
5.69586
0.0221303
4.76783
0.0221388
0.0268126
0.021491
0.0218668
0.0218013
0.0218295
0.258501
0.0406932
0.0385473
0.0219725
0.0220208
0.0216423
0.0218246
0.0218148
0.0222628
0.0219318
5.36852
5.35574
5.31887
0.0236208
7.54912
0.0578761
6.44758
7.66702
0.0578488
0.022113
0.0222331
0.196335
0.0224082
4.12196
9.709
0.0225623
0.0216985
0.030194
5.56289
0.0219982
6.18596
0.0218306
0.0221011
6.64541
0.0219229
0.0287121
0.022165
4.78896
0.0215706
0.0219342
0.245801
0.0216143
0.0220581
0.0218871
0.0216989
0.0675306
0.0218918
22.4157
0.022024
0.0222172
0.0214688
8.55766
0.0341492
0.0222066
5.25975
0.0220879
0.0215482
0.229586
5.38362
0.0220984
6.04315
6.65388
0.0262985
5.3288
0.0221114
0.0219471
0.0920356
0.0216641
5.32222
5.72801
0.0214863
0.025747
0.0218732
7.59913
0.712404
0.0445908
0.0221438
0.614281
0.0363225
0.053011
0.0267612
0.0220289
0.0224963
0.0218906
0.0218077
5.77298
0.021449
0.0218095
0.0425214
8.91421
0.0807626
6.20817
0.0220148
0.0419702
0.0218778
0.0219689
0.0220843
0.0217595
0.0221524
0.0219108
0.0221013
0.0221725
0.0241549
0.0219792
0.0221227
0.0216809
8.43143
6.64248
0.0221678
0.0227064
5.79977
0.0222102
0.128242
5.23454
0.375847
6.67429
0.840285
6.78583
8.95653
7.37132
0.0217554
0.030188
0.0218685
0.0501751
0.0245605
0.0222236
0.0217817
8.99207
0.0216241
0.0298606
11.9013
0.0215787
0.0217221
0.0760649
0.0216998
0.0218889
0.0218819
0.0221418
5.5107
8.10238
0.0220384
0.0219346
0.022058
0.0228627
0.0431759
0.0228597
13.2726
0.218053
0.022194
4.97667
0.0317941
0.0219328
6.88728
0.0215849
0.0495181
0.0217716
0.0223739
0.0223992
5.20777
0.0219273
0.0219631
0.0238241
0.0222859
0.0304704
0.0218177
3.77588
0.0400851
0.0441217
10.1013
6.83451
0.117096
0.0325968
4.62979
0.0219887
0.0220048
0.0251561
5.40303
0.051147
0.0492621
9.19507
0.0219767
3.34626
0.249877
4.47728
0.0219993
0.0359812
0.0218685
0.131814
0.0334409
0.824346
6.85293
0.0220163
0.0356158
0.0276766
0.0219026
1.04951
0.0219619
0.0296725
0.153503
0.0909652
0.0219423
0.0222948
0.0222284
0.0569806
0.0219509
0.0221509
0.0219571
0.0220786
0.0216532
0.0379555
0.0215432
0.881111
5.14894
0.0225376
0.021751
0.0215476
0.0423694
0.0346256
0.0221258
6.84164
0.0496163
0.021767
0.0218163
5.24766
5.1106
0.0219383
0.20821
0.0349171
0.0220108
6.05556
0.0225823
0.0739275
0.0222339
13.7634
6.79457
0.0222563
0.0353406
5.70908
0.0347003
7.55023
0.0222394
0.0254355
5.39534
6.86476
0.0251921
0.0254043
0.0225479
0.0244115
0.0227898
6.48829
5.12221
4.85303
0.0233391
0.0219781
0.0592815
0.0218919
0.260387
0.024751
10.0155
0.0215653
0.0221891
0.0217454
0.0218842
0.0218432
0.0836589
7.42117
0.0299611
0.0216164
0.0221041
9.94235
0.0235442
0.0237655
0.0221554
0.0360829
6.72005
0.0217025
0.0218483
0.040296
0.0888667
0.0221142
0.0422091
0.0223151
0.0236873
0.129402
0.0287107
6.91609
1.364
0.0478855
10.8063
0.0218553
0.0218908
0.0230516
6.11915
0.0232641
0.465654
0.0216929
5.57267
0.0361908
0.0218595
0.0299949
0.0223026
6.32085
0.0572364
0.0303435
0.256255
0.116423
0.0221508
0.0222003
0.0222284
0.0247638
5.51312
0.0518387
0.022104
0.222886
0.0218301
6.15977
0.0219415
5.53193
0.0291724
6.30025
1.29212
0.0577998
0.021959
0.0220059
0.0218671
6.82502
0.0219553
0.0517416
7.28107
0.0215311
8.05321
0.032843
0.0219491
0.0795753
0.0219125
0.0218125
5.86174
6.6898
6.61059
0.021887
0.0217608
0.0227636
0.0242264
0.022904
0.0219284
10.6517
0.0784376
0.563492
0.0224886
0.0422596
2.29265
1.29671
0.0302124
0.0217553
5.96196
0.0229053
5.42039
0.0218795
0.0220286
0.0219796
0.0217163
0.0215287
0.0221914
0.0217838
0.0368882
7.19
0.035277
5.25457
0.025061
0.0222084
0.0221241
0.408716
0.0220239
0.0224651
0.0220459
4.88962
4.80423
0.0217794
0.0234692
0.0218593
0.0219712
0.0222784
0.0220647
0.0218908
0.861534
0.0222334
0.0217916
0.136817
0.021821
3.40299
0.0854926
0.0915165
0.219793
0.0239273
0.0220789
5.71654
0.0220535
0.0763937
0.0284913
0.0217845
0.050031
0.0220655
5.82269
0.0216034
0.0217833
6.66076
0.0572653
10.2157
0.0217505
0.0968402
0.15635
0.0317076
4.65573
0.0218805
0.0217419
0.0216117
0.0903099
0.0227754
2.26947
0.0220068
0.0405604
6.21732
0.230472
0.0220161
0.863792
0.0253351
7.13042
0.0235395
0.0233346
0.0239039
4.54853
0.0219606
0.0223145
5.12783
0.0215534
0.0261954
0.0218224
0.0465825
6.35127
7.34792
0.0218512
0.0960289
0.022004
0.279749
0.0220162
0.0224085
0.0881811
23.2114
0.0393126
0.0219967
0.0254033
5.3958
0.0589684
0.0866125
6.06701
0.0220251
11.3192
0.0229431
0.169319
0.0217742
0.0250332
5.71051
0.0254648
0.0219181
0.462225
7.56861
6.6311
0.0217001
4.93635
0.399374
0.0216051
0.155487
10.534
0.0222782
0.0227698
1.55286
0.0214921
0.0224071
0.0218281
0.0220588
0.122667
0.0895744
0.0341142
5.47731
0.0222711
0.0578863
0.0297272
0.022193
0.0232711
0.0334883
0.0219876
0.0222271
8.06858
5.04168
8.66026
0.0216708
0.0377149
0.022136
5.24255
0.0220945
0.0417915
7.64937
5.60085
0.0671286
0.0219428
0.396321
4.73643
1.93186
0.0220022
0.0221254
0.0218303
6.28314
0.0378167
0.159783
5.7924
0.0220444
0.0222113
5.82563
0.0287116
0.0915415
0.0221737
0.0218764
0.0219743
2.1223
0.0220157
0.0527192
0.0217464
0.022111
0.0217914
5.28791
5.57901
0.0237915
0.529619
0.0229825
0.938192
0.0219075
0.0218962
0.0888483
0.0220532
0.021918
0.0254233
0.102697
0.0289155
0.133468
0.0220253
0.0694561
5.72837
0.0220907
0.0220132
0.0220095
5.5904
0.0453311
0.0470883
0.0904441
0.02177
0.0218383
0.138286
0.0256372
7.38447
8.70995
0.0358182
5.41025
4.62966
5.96921
0.0558568
0.0222949
0.0220001
0.286074
5.16042
0.0218694
0.0379744
5.10508
0.0221071
0.231837
1.4516
0.140973
0.0219147
0.0895239
0.0221272
0.0221057
0.021613
0.859842
0.0220976
0.0519073
0.0362567
0.0219846
0.0221838
5.04527
0.0217725
0.021591
0.0473138
2.21802
0.0368416
0.0220248
0.0398135
6.91229
4.96383
0.028052
6.32182
0.0851539
0.118664
0.0585425
0.0220749
0.152412
0.0327604
0.0216489
0.0217133
0.0223542
0.0257138
0.302373
5.60171
0.0222182
0.590617
0.0756265
2.41882
11.8313
0.29187
5.26538
0.141244
5.09456
0.0501037
5.53944
0.0594312
0.0219744
0.0221159
6.24911
4.64436
0.125006
4.67663
0.0218128
6.4274
5.44717
0.0220367
0.021645
0.037555
0.0642413
5.74001
10.8348
0.111032
0.0218723
0.0218118
0.0222177
8.45838
0.0254691
4.42118
0.0244289
24.4375
0.207307
5.43704
0.0274845
5.56872
0.0217991
0.0215889
0.0258066
0.0221634
5.75787
0.137231
5.18234
0.0220593
6.59328
4.57735
0.0215448
0.0421389
5.75657
0.0433192
0.0218701
0.0259713
0.0219765
5.38874
0.021455
0.022347
5.67519
0.0290839
0.0487312
0.0276978
0.0218127
0.0221874
0.0416738
0.0220275
0.0216407
0.0218334
0.0299142
6.06518
3.229
0.0219736
0.129541
6.62344
0.0221165
7.46856
6.92661
0.0220869
9.96625
0.0220759
0.100644
4.8177
0.0219632
0.0221662
0.0221852
0.0864227
0.0260421
0.0218584
6.42098
0.0219629
6.48316
0.0220404
6.24486
5.18902
0.0249819
0.0217308
0.172573
0.0831939
0.153411
4.10001
0.0441535
0.0221884
4.64822
0.022442
0.0837342
0.0743129
0.0298784
0.0622806
0.0218728
0.131869
4.64501
5.95656
0.116206
0.0218743
0.21647
5.44737
0.0222719
0.203319
0.112631
2.52487
0.0219623
0.0250037
0.0214973
0.221701
6.80833
0.0858101
6.88867
0.0847932
0.0381159
5.62332
5.10908
5.44511
0.438403
9.63722
0.0720375
11.9723
0.0513966
5.80053
5.75037
0.0232528
0.0223208
0.0269582
0.0614999
0.0219988
0.0261381
0.0222616
0.0241492
0.0220063
0.0218653
6.48306
4.7814
0.0222037
0.0517684
0.0221063
0.0217923
0.0235321
0.0830491
0.0234094
0.0901955
0.0221795
0.0435385
0.421473
0.102046
0.0458507
0.0219764
0.100141
0.0222202
0.0219244
0.608421
0.0227976
5.96763
0.190076
0.0219297
0.0241991
4.54082
0.0220764
0.0956005
0.0579353
0.059443
0.0264943
0.0370854
0.0220118
0.0221679
5.6654
8.30189
0.0358157
0.0830292
0.0220382
5.48155
0.0255285
5.89898
0.0783068
0.02211
0.021678
6.90204
0.161389
6.62982
0.0280855
6.19406
0.0226427
5.93738
8.87827
0.0307869
0.1469
0.021854
7.28045
0.0222205
10.5032
0.0287307
4.63925
5.00851
5.37347
5.73416
0.036023
7.8067
0.172749
0.0494052
5.3753
4.67328
5.46036
0.0217111
0.0258535
0.0743628
7.70638
0.0218734
0.0217743
0.0297474
0.0616133
10.7343
0.0588168
0.0451397
0.0219272
0.124055
0.0215383
0.203082
4.89817
1.09068
0.0217778
6.85361
0.0673536
0.0225138
5.80034
0.434873
0.0263458
5.48794
5.38766
4.62724
0.0558691
0.0218371
0.0289068
6.82804
0.0377782
0.0219798
7.34965
0.0214915
6.87769
0.0231895
0.0221309
5.88312
5.41508
0.0218179
0.0528179
0.0219496
7.239
0.0215034
4.69532
0.155206
0.0422244
0.0219074
0.0220059
0.0221604
0.03779
0.0509864
0.124394
0.0289948
5.10602
0.0327692
0.0253042
6.79082
4.207
0.0216431
0.157033
0.0219489
5.76805
0.0220611
0.0428763
5.68145
0.0274453
0.0219267
5.6153
0.0222546
0.0222548
0.0465122
0.0222782
0.021895
6.80603
0.0627378
5.59095
0.0222786
0.123735
0.0863984
0.0216414
0.0219229
0.0235667
0.0218365
5.56406
0.443761
4.19026
5.68556
4.43527
5.6941
0.0219171
0.0220075
0.0219411
0.0221396
0.109609
6.45459
0.0304476
0.024819
5.23035
0.0222397
0.0217756
2.53465
0.13716
0.0214679
0.0219591
0.0218879
0.228151
0.0217548
0.0219175
0.155979
0.0341854
0.120021
0.0238046
5.95965
6.55036
0.0214624
0.021714
5.28467
0.033979
0.025083
5.92703
0.0360267
0.118506
0.525706
0.0233838
0.442833
5.47081
0.0215333
0.0257623
5.37396
0.0252039
0.0220139
4.70434
0.056505
0.0535379
0.0221631
0.347629
0.023713
5.36908
0.022032
0.0219754
0.0333913
0.0620863
6.22451
0.0360228
0.021957
24.9182
5.59411
0.0239886
0.0759536
0.0220349
0.0218927
0.0217474
5.11491
0.0218483
6.8925
0.2336
5.73834
6.57299
0.0353863
4.32213
0.0330774
6.20239
0.794729
0.119019
1.18161
0.0768727
0.0933662
5.44928
0.0525844
0.0220041
0.0220612
16.0743
0.0401997
0.0229829
0.0221277
6.77295
8.92589
0.022094
4.5779
9.87097
0.0640713
0.494151
0.0406234
0.040315
0.0411053
0.098951
5.64335
0.0274325
0.200342
0.228989
0.0217578
0.12099
0.0280042
6.09718
0.0682495
0.0219614
0.234423
0.0640111
0.0773724
0.553345
0.0224945
5.41336
0.199843
10.3551
6.88559
0.0221835
0.0220148
0.0218795
7.18089
5.48139
0.0832402
0.167225
0.0218465
0.0217248
0.0226001
0.0782866
4.02265
0.0535356
6.17773
0.0773915
0.380138
1.84467
0.0217601
0.0562984
8.39028
7.18003
6.74351
5.21063
5.45898
0.0221937
5.67765
6.20782
5.3745
1.28251
0.0219316
6.58157
0.0225396
5.42849
0.0272949
12.1502
11.4311
3.72179
0.0221565
0.0219735
0.0768613
0.0237781
0.127682
0.0222725
0.0488558
0.0491731
0.0217973
0.0220019
0.0344808
0.021929
7.5365
0.021885
0.0230257
6.35546
0.0651464
5.93266
0.124159
7.84446
0.0219094
0.0219769
0.0222644
5.49277
7.59607
0.0220255
0.0504511
6.27633
9.07385
0.0218847
5.9696
5.38592
0.021786
5.63518
0.0219064
0.0411554
0.0220121
0.0607504
0.0220718
0.133459
5.91655
0.0218518
0.0221592
6.3825
0.0356921
0.0216949
0.0220756
9.00844
0.0218725
0.0221823
5.39511
10.3802
5.8189
0.0932053
0.0219201
5.40866
6.47768
1.63585
0.0221662
0.0882677
0.066418
0.0219504
0.254797
0.0217902
0.0218044
0.0218279
0.0571265
6.40389
5.93791
0.0424386
0.162059
0.0218581
5.73095
0.021817
0.0280479
0.046533
0.0233263
0.0530341
0.0362944
0.0218449
0.112783
6.52635
0.0579129
18.6531
7.86541
0.0616863
0.0219537
0.0248836
0.249363
0.0295304
0.0221944
0.117212
8.08739
0.0217041
6.77617
0.0284478
0.0219603
1.00681
6.78466
5.01273
0.0219719
0.0267145
0.0249116
0.0551795
0.0499797
0.0218533
0.0219486
0.111856
1.01094
5.1088
0.027368
0.0222782
0.0217399
0.179586
0.0220254
4.91353
0.0222729
0.0408858
7.86451
0.193071
6.92225
0.022053
6.97694
4.85461
6.89835
0.0220035
0.0221904
0.0537432
3.87857
0.0218247
7.00632
0.0218667
0.0214919
6.54749
0.0221839
0.0567239
0.0279296
0.0228795
0.0317419
0.0292591
0.0675021
0.0466163
0.0391968
26.4687
0.169994
4.57637
0.0468433
0.0344411
0.0563666
4.53217
0.188699
0.0276224
0.0220809
6.60203
0.0226595
2.92534
0.199172
0.864975
0.0216894
8.51745
0.0220577
2.03165
0.0225703
0.846751
5.63192
0.0494995
11.4705
5.5485
8.31729
5.02055
6.05842
0.0638472
0.0219386
0.021798
0.828069
0.0218028
0.0219234
0.0219647
0.0404519
0.0233406
0.0344902
10.3089
4.97912
0.13352
0.0275907
0.0274178
0.0215691
0.0254743
0.223612