/*--------------------------------*- C++ -*----------------------------------*\
| =========                 |                                                 |
| \\      /  F ield         | OpenFOAM: The Open Source CFD Toolbox           |
|  \\    /   O peration     | Version:  v2012                                 |
|   \\  /    A nd           | Website:  www.openfoam.com                      |
|    \\/     M anipulation  |                                                 |
\*---------------------------------------------------------------------------*/
FoamFile
{
    version     2.0;
    format      ascii;
    class       volScalarField;
    location    "100";
    object      k_0;
}
// * * * * * * * * * * * * * * * * * * * * * * * * * * * * * * * * * * * * * //

dimensions      [0 2 -2 0 0 0 0];


internalField   nonuniform List<scalar> 
18355
(
0.000162054
0.0339738
0.000147488
0.000145622
0.000150567
0.000183041
0.00014755
0.000174254
0.000151224
0.0377152
0.000144985
0.0334047
0.000184271
0.000147959
0.0001487
0.000151871
0.0136527
0.00014628
0.000148531
0.0513863
0.000154111
0.000149603
0.0718372
0.000150599
0.000156184
0.000148899
0.000148377
0.000150925
0.0192111
0.000147986
0.000149169
0.000152576
0.000146258
0.000146843
0.000168602
0.000162752
0.000149881
0.000182676
0.000150746
0.000145137
0.000147972
0.000168412
0.000147525
0.0302647
0.000147913
0.000183747
0.000170007
0.000151984
0.00016776
0.000146418
0.000144988
0.000147396
0.000149832
0.060697
0.000148484
0.000148372
0.000187757
0.000148812
0.000460811
0.000184763
0.000146445
0.000177948
0.000146163
0.000162704
0.0372881
0.000161446
0.00881009
0.000157693
0.000148415
0.000149441
0.000172045
0.000149683
0.000186007
0.00014661
0.000174215
0.000147521
0.0454058
0.000152376
0.000159732
0.000147154
0.000147633
0.000259058
0.000153826
0.000164293
0.000148845
0.00018389
0.0304969
0.0516033
0.0181851
0.0671228
0.000238445
0.000148321
0.000148648
0.000144406
0.00614757
0.0687427
0.000147141
0.000156242
0.0585687
0.00855824
0.00936843
0.0101194
0.000164322
0.00253176
0.000151375
0.000189388
0.0210083
0.000177321
0.000161575
0.000184244
0.000147765
0.000150445
0.000148907
0.000150648
0.0532235
0.000147859
0.000478986
0.0461619
0.000473133
0.000164266
0.0405556
0.00135541
0.000152271
0.000171849
0.000147136
0.000177929
0.000147363
0.000149721
0.00341198
0.000144422
0.000145029
0.00759895
0.000171727
0.000156002
0.000161318
0.000149689
0.000148045
0.000144966
0.000147749
0.000172898
0.0112723
0.0178072
0.000149611
0.000147736
0.000188871
0.000149322
0.00015382
0.0270667
0.00015272
0.0264868
0.000149842
0.000149391
0.000167564
0.000432105
0.000181994
0.00014978
0.00726103
0.00047136
0.000149762
0.000179162
0.000155513
0.00015333
0.000156846
0.000156521
0.000212248
0.000267
0.0612375
0.000166275
0.000205314
0.000146467
0.0220725
0.064994
0.000144882
0.000144982
0.00015184
0.0244702
0.000177355
0.00014859
0.00184655
0.0473366
0.00016648
0.000204923
0.000158219
0.000147231
0.000221269
0.0256914
0.0718151
0.000213993
0.000151356
0.0107171
0.000187099
0.000147617
0.000156361
0.00425587
0.000162603
0.000149559
0.00693803
0.000157964
0.000167135
0.000144978
0.000150988
0.000152322
0.0462393
0.069888
0.0106325
0.000156609
0.000474519
0.0580558
0.0655987
0.00016695
0.000148045
0.000149595
0.0500777
0.000149467
0.000146466
0.000249203
0.0345216
0.0497995
0.000148957
0.000152545
0.000244407
0.000147699
0.000163698
0.000147935
0.0547873
0.000149085
0.049057
0.0251623
0.000171126
0.00014804
0.000149807
0.000159148
0.00015502
0.0522448
0.000150442
0.000148851
0.000148652
0.000183997
0.000293526
0.0104963
0.000160902
0.000203695
0.000149428
0.000146541
0.000149253
0.0203973
0.0185396
0.000467915
0.000181694
0.000155401
0.000150997
0.000528977
0.000158556
0.0692411
0.000148828
0.0316565
0.0505683
0.00017916
0.000148034
0.000147546
0.000160765
0.000173956
0.0543308
0.000172448
0.000146669
0.000146427
0.000149734
0.000208749
0.000170373
0.000168423
0.000150489
0.0231223
0.000217455
0.000188257
0.000149086
0.00777556
0.000147228
0.000147834
0.000665094
0.000146703
0.000147511
0.000188424
0.000147291
0.0131217
0.000158395
0.000152517
0.000146908
0.000166218
0.03616
0.000152624
0.000145654
0.000147962
0.000195515
0.0483359
0.000149758
0.000149847
0.0406588
0.000165361
0.000181883
0.000178252
0.000147863
0.000172727
0.000149946
0.000149773
0.000176544
0.000215614
9.24566e-05
0.00019749
0.000144492
0.000167306
0.00015108
0.000148514
0.00610627
0.000147552
0.000209902
0.000167954
0.000148598
0.000145086
0.000205058
0.0100498
0.06231
0.000148946
0.000156496
0.0272892
0.000146882
0.000299925
0.000159353
0.000158783
0.000257639
0.000144489
0.000310817
0.000148356
0.000161853
0.000148709
0.000181576
0.0355158
0.000149787
0.0407887
0.000164318
0.000148197
0.000169317
0.000178286
0.00660317
0.0592442
0.00194016
0.000148771
0.000146121
0.0722374
0.000164152
0.000148706
0.000150025
0.000322593
0.000220871
0.00042334
0.0759475
0.000148559
0.000152101
0.000510241
0.00014774
0.000150266
0.000226678
0.000167337
0.000153893
0.0129927
0.000149821
0.000161966
0.000254113
0.00822176
0.00014561
0.000148269
0.000147722
0.000147158
0.00016517
0.000147159
0.000164833
0.000147734
0.00015287
0.000148576
0.000151025
0.000147544
0.000148498
0.00014742
0.000147407
0.000151387
0.000170825
0.0172236
0.000147922
0.0156253
0.000159284
0.0177954
0.000162615
0.00017746
0.000149409
0.0111327
0.000149721
0.000147894
0.000148807
0.00014547
0.0577417
0.000152903
0.000146738
0.000168955
0.000164562
0.000147781
0.000146883
0.054497
0.000149446
0.000147274
0.000527223
0.000147284
0.00044836
0.00896337
0.000226881
0.000153497
0.000151364
0.0419282
0.0001496
0.000147474
0.000439345
0.000149775
0.000144879
0.0119542
0.000146575
0.0381662
0.000171052
0.000178481
0.0116688
0.000149723
0.000147473
0.039531
0.000182817
0.0214299
0.00300881
0.000147762
0.000147296
0.000149266
0.0218307
0.000162108
0.000148646
0.000149816
0.000149396
0.000162373
0.00046855
0.000155676
0.000149156
0.00014982
0.000162113
0.000246853
0.0498952
0.0327092
0.026999
0.000162811
0.00016219
0.0358828
0.000148956
0.000146754
0.000147957
0.000147889
0.000164718
0.000148009
0.000146339
0.00687329
0.000162543
0.000168537
0.0675879
0.000163176
0.0209224
0.000147747
0.000147475
0.000147805
0.000147671
0.000149878
0.000149861
0.000147902
0.019054
0.000148942
0.000144742
0.000816555
0.000186191
0.000146812
0.000151608
0.000164392
0.000670446
0.000151505
0.000147172
0.00559631
0.000152022
0.0259647
0.000159791
0.00014723
0.00734259
0.000186225
0.000146144
0.07247
0.0148771
0.0497744
0.000147219
0.000147072
0.000154493
0.00019454
0.000149543
0.0255218
0.0152275
0.010249
0.00023183
0.000145408
0.000170882
0.0362751
0.0688448
0.0547935
0.000148869
0.000155183
0.000155502
0.0493015
0.00974628
0.000243925
0.000149103
0.000147713
0.000148742
0.000162358
0.000147934
0.0313295
0.000156114
0.0547114
0.000148046
0.000149277
0.00014744
0.000157338
0.00015899
0.000243352
0.000147359
0.000188344
0.000433655
0.000161822
0.000148031
0.000152134
0.000162821
0.000149795
0.000161635
0.000167566
0.000161431
0.000185003
0.000150177
0.000146105
0.000147957
0.000149844
0.000165391
0.000153903
0.000177943
0.000147679
0.000150616
0.0137739
0.000144549
0.000157643
0.000149814
0.000182789
0.000152251
0.0575825
0.000149925
0.0096156
0.000154067
0.000152109
0.0499423
0.0132173
0.0633262
0.000161927
0.000152594
0.000147303
0.000147701
0.000189581
0.000168312
0.00015892
0.000169621
0.0181584
0.000212794
0.000147381
0.0677653
0.0170009
0.00015197
0.000147701
0.000157649
0.0651868
0.000160726
0.000149392
0.000163935
0.000183466
0.000168749
0.000156771
0.000327278
0.000155864
0.000186818
0.0242356
0.000273785
0.00828523
0.00016368
0.000180534
0.000157628
0.000148387
0.000152065
0.000147917
0.000183573
0.000185306
0.0293573
0.000170229
0.0455318
0.0102008
0.000163269
0.000152257
0.0260847
0.0855459
0.000145101
0.000171882
0.00946139
0.0413754
0.000155889
0.000145245
0.000155751
0.000156681
0.000162596
0.000182443
0.000147573
0.00928532
0.000151497
0.000153282
0.0514664
0.00014758
0.000159211
0.055253
0.000147489
0.000150662
0.0700748
0.000146169
0.000188464
0.000144557
0.0122804
0.000162136
0.000169596
0.000158978
0.000154185
0.000193852
0.000153141
0.0275593
0.000181715
0.000148801
0.028024
0.000170042
0.000343632
0.0176101
0.00011069
0.000237083
0.000147695
0.000145553
0.0141713
0.000152265
0.000162215
0.000149558
0.000157772
0.0242666
0.0645311
0.00016547
0.0158172
0.000164331
0.000151657
0.000145273
0.000149484
0.000169608
0.000170353
0.000146661
0.0487862
0.000156934
0.000165234
0.000149874
0.0690049
0.0514355
0.000148014
0.000145107
0.000182965
0.000149608
0.00014614
0.0124773
0.000172121
0.000149548
0.000147679
0.000196795
0.000167722
0.000160239
0.000163836
0.000148451
0.0393297
0.000173935
0.000149005
0.00018522
0.063903
0.00014755
0.0596577
0.000145604
0.000147504
0.000149459
0.000158705
0.0506385
0.000163808
0.026642
0.000159204
0.0440584
0.000226352
0.000157486
0.0427025
0.000148337
0.0876995
0.000151855
0.0269111
0.0336956
0.000149026
0.000457679
0.000153794
0.000154441
0.074949
0.000166035
0.0458251
0.000146639
0.0588746
0.000147893
0.0310153
0.000149306
0.000155852
0.000162224
0.000146721
0.000145324
0.000174755
0.0053962
0.0319887
0.000147339
0.000342067
0.000157096
0.000146754
0.000148695
0.000155849
0.000195569
0.0832881
0.000162936
0.000149841
0.000155851
0.0506366
0.000155732
0.000147587
0.000146736
0.000156363
0.000160138
0.0180211
0.000147513
0.000225261
0.00016281
0.00964937
0.0481114
0.008706
0.000145037
0.000177282
0.000147567
0.000149379
0.000158781
0.0113264
0.000146693
0.00014729
0.000147305
0.0869716
0.000151323
0.000148946
0.000159848
0.000160041
0.0720212
0.0251591
0.000147386
0.000147945
0.0710522
0.000148995
0.0690212
0.038248
0.0549644
0.000174954
0.000177912
0.00977399
0.000162542
0.00014902
0.000146577
0.000148474
0.000149311
0.000148653
0.000149397
0.0774034
0.00650067
0.000149125
0.00016743
0.000146245
0.000151751
0.000164111
0.000148487
0.0001535
0.000150846
0.000191116
0.000368809
0.000172725
0.0504415
0.000162696
0.00976514
0.000170756
0.0481907
0.0747197
0.000174077
0.000432803
0.000217148
0.0176896
0.000147901
0.00014775
0.000147687
0.00015683
0.0536615
0.000146426
0.000149827
0.000180812
0.000146681
0.000162815
0.000162075
0.000149396
0.00757264
0.000148634
0.000147957
0.000198735
0.000145909
0.000193992
0.000186144
0.000148818
0.000151754
0.00014674
0.00016548
0.000146665
0.000151916
0.000137368
0.000147975
0.073807
0.000148866
0.0759807
0.000155226
0.00018886
0.000147587
0.000180588
0.000163698
0.000149068
0.000148846
0.0772413
0.000147713
0.0176565
0.0202385
0.00015044
0.000148636
0.000148435
0.000145097
0.0131355
0.000147654
0.0791783
0.00754075
0.000165379
0.0384765
0.000147145
0.000147417
0.0634078
0.0702377
0.000152707
0.000147886
0.000147801
0.000146508
0.000152677
0.000161508
0.000227528
0.000153766
0.0243046
0.00035277
0.0232032
0.000158085
0.000147916
0.027719
0.0228318
0.000159971
0.00014761
0.00014879
0.0807327
0.000147973
0.0129044
0.000164897
0.000149656
0.000155931
0.000145987
0.000162678
0.000155899
0.000146698
0.000144579
0.000152366
0.0330573
0.000149434
0.000177762
0.0331891
0.000148679
0.000147291
0.0001615
0.0203025
0.000161585
0.0655459
0.000149674
0.000145037
0.000151402
0.0214414
0.000186845
0.00028966
0.000147796
0.000157105
0.000148345
0.0611412
0.000146077
0.00740278
0.000162199
0.0146735
0.000149209
0.000147281
0.000177675
0.000147651
0.0286925
0.000148795
0.000392775
0.000149681
0.000146469
0.000152265
0.000212039
0.0228615
0.000155268
0.000149979
0.00014975
0.000148772
0.000146638
0.000149861
0.000187879
0.000149572
0.0476521
0.000152083
0.0644394
0.000148191
0.000145229
0.000139523
0.0701363
0.053741
0.00014987
0.0326001
0.000148331
0.00524378
0.000149913
0.000199871
0.0001471
0.0514425
0.000147325
0.000155837
0.000148231
0.000147614
0.000149721
0.0569082
0.000920282
0.0355656
0.000158219
0.000156974
0.000153497
0.000147778
0.000145638
0.000146172
0.000151451
0.000192589
0.000149123
0.015358
0.000184151
0.000147864
0.000149928
0.00539522
0.000189724
0.000151453
0.000153348
0.000158578
0.0232193
0.000175554
0.0871398
0.000177474
0.000181586
0.000173225
0.000147977
0.000147431
0.000181095
0.000161056
0.000148035
0.00520327
0.000156277
0.017807
0.000149609
0.000184261
0.000158276
0.000173654
0.000155616
0.0001483
5.16124e-05
0.000148302
0.014566
0.000148299
0.000148261
0.0645341
0.00016212
0.000158314
0.0770081
0.000147566
0.000167281
0.0235528
0.000147685
0.000168497
0.0277479
0.000150735
0.000147495
0.00014834
0.000153825
0.000153138
0.000182022
0.0533061
0.000152695
0.00015504
0.0313646
0.000145481
0.00796652
0.000155134
0.000151728
0.000281435
0.0108043
0.000146094
0.000147274
0.000152772
0.000146191
0.000145743
0.068293
0.000149786
0.000158647
0.000145161
0.000163413
0.000146113
0.000170683
0.000217815
0.000151768
0.0471892
0.0001474
0.000152346
0.000147803
0.0440799
0.000156382
0.000146901
0.000147849
0.000148843
0.000147447
0.000188511
0.0550386
0.023737
0.0437826
0.000149161
0.000149658
0.000181333
0.000148942
0.000146129
0.000248928
0.0462225
0.00015205
0.000148211
0.0318782
0.000149461
0.000149175
0.0387348
0.000183259
0.0305325
0.000151118
0.000147874
0.0432197
0.000148975
0.000157788
0.000149435
0.000161068
0.000148012
0.000177586
0.000198868
0.000170171
0.000148587
0.0447006
0.000150291
0.000146932
0.000149268
0.000148318
0.000147643
0.000148718
0.0403912
0.00014966
0.0102228
0.000149247
0.000158935
0.0738446
0.000146487
0.000188163
0.00015124
0.000146426
0.000151742
0.00018192
0.000148152
0.000147368
0.000148763
0.000148008
0.000175937
0.000145838
0.000149783
0.000156399
0.000148533
0.00015893
0.0126263
0.0415858
0.00978682
0.0596296
0.000188222
0.000173484
0.0861607
0.0506013
0.000148618
0.000149301
0.000145444
0.000171776
0.0481438
0.000161282
0.000154271
0.000145234
0.000147837
0.000148977
0.000152117
0.0374741
0.0533558
0.00943805
0.000178476
0.000148608
0.000149534
0.000148966
0.0318446
0.00115376
0.000147741
0.000343694
0.000145694
0.000161546
0.000152365
0.00016274
0.000160977
0.000255097
0.000151249
0.000170792
0.000145951
0.000147153
0.00017387
0.000147382
0.000148297
0.000176085
0.000213682
0.000148775
0.000166602
0.000147383
0.000147988
0.000146587
0.000147787
0.0278827
0.00015767
0.000151086
0.000148857
0.044921
0.000172731
0.000148418
0.000157612
0.000160711
0.0198337
0.00022101
0.062183
0.000201059
0.000178528
0.00019171
0.00019747
0.000170419
0.0351375
0.000145054
0.00014731
0.000147557
0.000172765
0.000149117
0.0241865
0.000147358
0.000149015
0.0664577
0.000172907
0.000149665
0.00016613
0.000147517
0.000150835
0.000274819
0.000185171
0.000147532
0.000209228
0.000186148
0.0135259
0.0576573
0.00014795
0.0356177
0.000147342
0.00016766
0.000146934
0.000146758
0.035012
0.000161877
0.00015195
0.00014785
0.0458569
0.00015378
0.013898
0.0339195
0.000149733
0.000145882
0.000152836
0.0391113
0.000182328
0.000169206
0.00015878
0.000215606
0.000147992
0.000149912
0.000147909
0.000148128
0.000151091
0.000163156
0.0842949
0.000178285
0.000190881
0.0299702
0.000147879
0.01524
0.00018599
0.000162297
0.00014922
0.00014784
0.000147331
0.000147256
0.00014744
0.00984085
0.000183341
0.060944
0.000178274
0.000186124
0.000149199
0.000187029
0.0583206
0.000161472
0.000155308
0.000146866
0.0663764
0.0370467
0.000176101
0.000191195
0.00014808
0.00964859
0.000150494
0.000152764
0.000168235
0.000169111
0.000146026
0.000181393
0.0508136
0.000149836
0.0147962
0.0554812
0.0766037
0.00971984
0.000162563
0.000277252
0.00016385
0.000162686
0.0396819
0.000147381
0.000159041
0.000147063
0.000149645
0.0485841
0.000152344
0.0777672
0.000145929
0.000148821
0.0509688
0.000147893
0.0689187
0.000150644
0.000186336
0.000151877
0.000149164
0.0752532
0.000155558
0.000179816
0.000146973
0.000147311
0.000214874
0.000176439
0.000148313
0.000155957
0.000252636
0.000178152
0.000346521
0.000149721
0.000147551
0.000144675
0.000147569
0.000157135
0.000164349
0.000145428
0.0602583
0.0001473
0.000148191
0.000171281
0.0358677
0.000177857
0.000159586
0.000146248
0.000151156
0.000180881
0.000305394
0.000257542
0.0450535
0.000157641
0.00016288
0.000222914
0.000148473
0.000168541
0.0443507
0.000147417
0.000209387
0.0336916
0.000249653
0.000256565
0.0725956
0.000182615
0.000148767
0.00219562
0.000155022
0.000170376
0.000181443
0.00014766
0.000187952
0.000147571
0.000148081
0.000173438
0.0115247
0.000159146
0.000147443
0.000164203
0.0321231
0.000166779
0.0151821
0.000147583
0.0338517
0.000146114
0.00017018
0.000184926
0.000147817
0.0272469
0.000147749
0.000146737
0.000148611
0.00014813
0.0743545
0.000183095
0.000149655
0.0658334
0.000148458
0.0166723
0.000146063
0.0180058
0.000161894
0.000184992
0.000152914
0.000147835
0.000145783
0.000148501
0.000225469
0.000175074
0.00014876
0.000169588
0.0134972
0.0785109
0.000170508
0.048516
0.0434444
0.000147853
0.028374
0.000146423
0.000215965
0.000147921
0.000148629
0.00014912
0.000176209
0.0139877
0.000215509
0.000182135
0.0477721
0.000187286
0.000184167
0.0410298
0.000147008
0.000172423
0.0154433
0.000144744
0.000173154
0.0232217
0.000209761
0.000147459
0.0451715
0.000165558
0.0215878
0.00665778
0.000156623
0.000181947
0.000154985
0.000147669
0.000145071
0.026972
0.000198795
0.000180005
0.000197213
0.0001472
0.00772428
0.000159261
0.000144392
0.000149819
0.000177579
0.000153196
0.000149386
0.000149778
0.000251612
0.000147145
0.00016343
0.0227011
0.000145729
0.000147117
0.00326697
0.000146795
0.000161317
0.000158826
0.000178259
0.000320786
0.000147818
0.000178296
0.000159195
0.000169131
0.00015703
0.000153842
0.000167367
0.000214253
0.000170087
0.0416161
0.000167204
0.000148851
0.000216974
0.0526377
0.000181755
0.000146336
0.00014826
0.000172013
0.000152641
0.0595018
0.000203992
0.000158528
0.0235049
0.000152028
0.000203311
0.0526231
0.000148231
0.00014875
0.000148377
0.000147778
0.00115906
0.000242146
0.000155316
0.000203262
0.000202594
0.000168476
0.000148774
0.000153559
0.000170941
0.000147472
0.000146986
0.00156459
0.000151314
0.000506502
0.000146688
0.000147839
0.000149798
0.000168047
0.0001612
0.000166416
0.000148716
0.000151575
0.0784239
0.0186374
0.000358089
0.000440367
0.000153907
0.000150207
0.0812693
0.000183071
0.0115203
0.000162715
0.000147376
0.00017227
0.000155246
0.000149849
0.000146413
0.000167744
0.000181986
0.0473953
0.000181744
0.000253357
0.000149035
0.000150862
0.000148632
0.000191336
0.0198903
0.000211738
0.000408513
0.000147396
0.0540202
0.000151558
0.000147642
0.000152689
0.000149016
0.000181769
0.000147855
0.000183545
0.000145702
0.000382735
0.000157918
0.0239984
0.0001501
0.000148839
0.000155528
0.000146047
0.000186248
0.000434308
0.0786453
0.000172209
0.000145506
0.0813721
0.000163781
0.000147728
0.000167823
0.000146975
0.000153108
0.000144624
0.000177209
0.000153814
0.000177828
0.000172257
0.000146758
0.070093
0.000145505
0.000155641
0.00014952
0.000152613
0.000146106
0.000148081
0.000161052
0.000149866
0.000154206
0.000145873
0.000152471
0.000298607
0.0471187
0.000149852
0.000170745
0.0750049
0.000147243
0.00014897
0.000158417
0.000191037
0.000148148
0.000175057
0.00734376
0.000151044
0.064638
0.0292203
0.000147824
0.000150072
0.000166699
0.000144275
0.00380668
0.0536029
0.041182
0.000151542
0.000159308
0.000144833
0.000307113
0.00015621
0.000189033
0.000149585
0.000179389
0.0133109
0.000181967
0.000152891
0.005086
0.0153834
0.0509468
0.000149685
0.000146682
0.0560466
0.000351223
0.000146632
0.000148577
0.000184984
0.000149963
0.000217452
0.000299281
0.000146174
0.000150063
0.0100542
0.000180129
0.000151025
0.000144321
0.000164732
0.000149327
0.000223272
0.000147259
0.000148956
0.000148188
0.000152684
0.00014836
0.000183385
0.000147044
0.000154494
0.049041
0.0318677
0.0299618
0.000147199
0.000168882
0.000181505
0.000148698
0.000153155
0.000168728
0.00014718
0.00015221
0.0220036
0.00016426
0.000147885
0.000148296
0.00014776
0.0142587
0.0628686
0.000146875
0.000149701
0.000147749
0.000177063
0.0333681
0.000151869
0.000174038
0.000148875
0.000165428
0.000159124
0.000243018
0.00826941
0.000149374
0.000239584
0.0744045
0.000163205
0.000147719
0.000163446
0.00015902
0.000162188
0.000155344
0.000147895
0.000187979
0.00015543
0.000266322
0.000161705
0.000149221
0.000149549
0.0507248
0.000148927
0.000160519
0.00021363
0.000161048
0.0874923
0.0239603
0.000147617
0.000181892
0.000149495
0.000183882
0.000162312
0.000152167
0.000148349
0.0140317
0.000161475
0.000148032
0.000167702
0.000179702
0.000316033
0.0479436
0.000148331
0.00015574
0.000149209
0.000215217
0.000213703
0.000149183
0.00017242
0.000154415
0.000151395
0.000149189
0.0159833
0.000177967
0.000147858
0.000152716
0.0330927
0.000149717
0.000147924
0.000156663
0.000165262
0.00014805
0.00014899
0.000152417
0.0127775
0.000159734
0.000147663
0.000146855
0.000148628
0.000170953
0.000147866
0.000147484
0.000261338
0.0848485
0.000147635
0.00014974
0.000176539
0.000161495
0.000169052
0.00014904
0.0168455
0.000147163
0.000150646
0.000159571
0.0846412
0.02406
0.000191538
0.000169474
0.0579448
0.0192934
0.0305479
0.0284298
0.000153222
0.000147871
0.000146127
0.000161338
0.000147389
0.000147806
0.000149005
0.000176614
0.000147691
0.030506
0.000161767
0.0669746
0.000148481
0.0596221
0.00014816
0.000156875
0.000145913
0.000150924
0.000160719
0.000254762
0.000149107
0.000146873
0.000153988
0.063594
0.00014722
0.000168415
0.000149224
0.000162641
0.0120063
0.000177911
0.000478088
0.000158275
0.00021412
0.000148957
0.0461784
0.0116053
0.000147008
0.0712331
0.0229308
0.00014764
0.000144925
0.000167756
0.000160311
0.000166961
0.000145814
0.0334377
0.000158041
0.000172539
0.000145779
0.000147526
0.00015779
0.0174611
0.00512183
0.0121249
0.000168322
0.020906
0.000160554
0.0291402
0.00014846
0.000347899
0.000147657
0.000155741
0.00057344
0.000151205
0.00020467
0.000147618
0.000153262
0.0525466
0.0139611
0.000147594
0.00026908
0.000147866
0.0739826
0.000146611
0.0713868
0.0239386
0.00014789
0.0314612
0.000156592
0.0416999
0.000147922
0.000155183
0.00015071
0.000173075
0.000148012
0.000228609
0.000146518
0.066668
0.000184418
0.0668416
0.000149004
0.000145938
0.000178344
0.000152241
0.000157501
0.00014748
0.000167212
0.000153345
0.000148056
0.016671
0.000148546
0.000147443
0.000149532
0.000148841
0.0414183
0.000162692
0.00014751
0.0405626
0.000493787
0.000197136
0.000147408
0.000178721
0.000455262
0.000147748
0.000156248
0.000149794
0.000148216
0.000147503
0.000148183
0.00015647
0.000159939
0.0599306
0.00018575
0.000180946
0.000149835
0.000147548
0.0523263
0.000166537
0.000147362
0.000149803
0.0309859
0.0734518
0.000148128
0.0642257
0.000160875
0.000199107
0.000149842
0.0566806
0.000146154
0.000152073
0.00014857
0.000147032
0.000151601
0.0369355
0.000146166
0.0609814
0.000200226
0.000356526
0.00754986
0.000148588
0.00014824
0.0519236
0.000166665
0.000167242
0.000147826
0.000188102
0.000149199
0.0732706
0.0412066
0.0393424
0.000148513
0.0715403
0.0489244
0.0586769
0.000193484
0.000153864
0.00017985
0.000147555
0.000250367
0.0694903
0.000160713
0.0424912
0.000146578
0.000148198
0.000167844
0.00688647
0.000161917
0.000203041
0.000147759
0.0658905
0.000168882
0.000163015
0.000146626
0.000163992
0.000182756
0.000148175
0.000167992
0.000167453
0.000220521
0.000145997
0.000147183
0.0512194
0.0458844
0.000152227
0.0340609
0.000160738
0.000147844
0.0618422
0.0228058
0.000148569
0.000237985
0.000146005
0.000148617
0.00017226
0.0503258
0.00014947
0.0394677
0.000151849
0.000147736
0.0153567
0.000149351
0.000180322
0.000146838
0.000328106
0.000148088
0.0164236
0.000146937
0.000163283
0.000148322
0.000155388
0.000176236
0.0748797
0.000162183
0.0491449
0.000160335
0.0595024
0.0783167
0.0380866
0.000147002
0.0207577
0.0813202
0.014314
0.000243737
0.000149757
0.00014689
0.000148465
3.71599e-05
0.000147839
0.000148976
0.000271366
0.000149569
0.0310741
0.000151051
0.0384618
0.000148049
0.000149491
0.000191311
0.000145251
0.000176039
0.000147334
0.000167729
0.000181156
0.0198933
0.000146575
0.000147558
0.0778184
0.0602935
0.000149595
0.000159428
0.000164317
0.000150154
0.00789821
0.0470571
0.0768584
0.000194616
0.0282934
0.020533
0.000214985
0.000147122
0.000146437
0.000150697
0.000147435
0.000158481
0.02655
0.0633785
0.000148497
0.000152488
0.000151282
0.00291624
0.0771426
8.2419e-06
0.000451749
0.000148647
0.000424462
0.0589344
0.000154712
0.0458813
0.000173085
0.000148902
0.0728039
0.036922
0.00831891
0.000149321
0.000150976
0.00016688
0.00024673
0.000147142
0.000148553
0.00014958
0.000146675
0.000148194
0.0650359
0.000152292
0.000145789
0.0222111
0.000148609
0.0418278
0.000167931
0.0422025
0.000249875
0.000147699
0.0827553
0.000171974
0.000221905
0.000150467
0.000159708
0.000147975
0.000150825
0.0174123
0.000198981
0.000174096
0.000150292
0.000147374
0.000171989
0.000151772
0.000148337
0.000155195
0.000147423
0.0537213
0.00014784
0.045293
0.028037
0.000151401
0.000147717
0.0310381
0.000146987
0.000147065
0.000226071
0.000153266
0.00015225
0.00017722
0.00028801
0.0770152
0.000159764
0.000151551
0.000149401
0.0516735
0.0192725
0.000160819
0.000166745
0.00014739
0.000147895
0.000152655
0.000146762
0.000186556
0.000161143
0.000148406
0.00014926
0.000148547
0.00014765
0.000148032
0.000147309
0.000326986
0.0340751
0.0684058
0.000204659
0.00621258
0.000187448
0.000153711
0.0251548
0.0344876
0.0119117
0.000148527
0.000147271
0.000459112
0.00675719
0.000204022
0.000199156
0.0711099
0.000148541
0.000147588
0.0478162
0.000146771
0.000197245
0.000193455
0.000150748
0.0133894
0.0523643
0.000149715
0.0156608
0.0288075
0.000173456
0.000209143
0.000149127
0.0293366
0.000246361
0.0715258
0.000146813
0.000164553
0.0180242
0.000147265
0.000169318
0.000147712
0.000171739
0.000148794
0.0295114
0.000112608
0.000148361
0.000152458
0.000149626
0.0377784
0.000168941
0.000148959
0.000149158
0.0462171
0.000147583
0.00015245
0.000175863
0.000190339
0.000149965
0.000166821
0.000162109
0.000147506
0.00019623
0.000148104
0.000147713
0.000158673
0.000147656
0.000163397
0.0647547
0.000218643
0.000147969
0.0592928
0.0146793
0.000185693
0.0142564
0.000169715
0.000153164
0.0435574
0.000158109
0.000152361
0.000166505
0.000169513
0.000148472
0.000146712
0.000148639
0.00020792
0.0368955
0.0769076
0.0614017
0.000146604
0.00015419
0.00017566
0.000176651
0.0469718
0.000148821
0.0524018
0.000149568
0.0200201
0.000145853
0.0413345
0.000150275
0.0634529
0.0275862
0.000185212
0.0553969
0.00016417
0.000146727
0.000166964
0.0114067
0.0639244
0.000156686
0.000149481
0.000147528
0.000148799
0.000159621
0.000149905
0.000151864
0.000146765
0.000176737
0.000148009
0.0699141
0.000149445
0.0448133
0.000146023
0.000200825
0.0621664
0.000150871
0.00199293
0.000147996
0.000156603
0.000148958
0.000149271
0.000147775
0.000185482
0.000185236
0.000147029
0.00015249
0.000147937
0.0510466
0.000161639
0.000218677
0.000213258
0.000148049
0.000173567
0.000151444
0.000150742
0.000161645
0.000148623
0.000166938
0.0694969
0.000148097
0.0618891
0.000155569
0.000147461
0.000146213
0.0276523
0.00014794
0.0766429
0.000177065
0.000149773
0.0147607
0.000189487
0.0116187
0.000157287
0.000153841
0.000148604
0.000174415
0.0542138
0.000148834
0.000166157
0.000148561
0.000185661
0.00036957
0.0194806
0.070056
0.0446991
0.000157549
0.0174776
0.000148931
0.046946
0.000209016
0.000157089
0.000232192
0.000179895
0.000145164
0.000162808
0.000147985
0.000146858
0.000152804
0.000147841
0.00121963
0.000260393
0.000198278
0.0027618
0.000148392
0.00250921
0.000148321
0.000147682
0.000169113
0.0595022
0.000146953
0.0376907
0.000168193
0.000189123
0.0214487
0.000149564
0.000168678
0.0294438
0.000162146
0.000148186
0.000187506
0.000147911
0.000148768
0.000149574
0.000272845
0.0584594
0.000155005
0.000148591
0.0342925
0.0692997
0.000149279
0.000149533
0.00272255
0.0840409
0.000149276
0.000184142
0.000182593
0.00014726
0.000163023
0.000145994
0.0491677
0.000147737
0.089525
0.0733743
0.0710081
0.00015382
0.00015774
0.000147646
0.000146559
0.0155226
0.00014692
0.0283451
0.0570825
0.000173912
0.000146794
0.000146212
0.000209228
0.000186822
0.000162575
0.0930629
0.000181702
0.00265451
0.000151921
0.0565964
0.000316231
0.000158469
0.000185513
0.082125
0.0247223
0.000148544
0.00596165
0.000146258
0.00125494
0.000231066
0.000227419
0.000145507
0.00016659
0.000148629
0.000246509
0.0464759
0.000151455
0.000150733
0.0879654
0.0393617
0.000148301
0.0474193
0.0142265
0.0017293
0.000149388
0.0799487
0.00014894
0.0108182
0.000148674
0.000151389
0.000149316
0.000148158
0.0281258
0.000115428
0.000146375
0.0399264
0.0193107
0.000144618
0.000146177
0.000161523
0.000165674
0.00018613
0.000167349
0.028969
0.0481983
0.0531629
0.079455
0.000186935
0.000150979
0.000199179
0.000181876
0.0187148
0.0230807
0.0322517
0.000188698
0.0001758
0.00015351
0.0183209
0.000169073
0.00017218
0.000149163
0.000154335
0.0608785
0.000148551
0.000157549
0.000191893
0.000152917
0.0001695
0.000148332
0.000151464
0.068124
0.000185213
0.000146014
0.000154239
0.046015
0.000209762
0.000163614
0.000288692
0.0149848
0.000168108
0.000210197
0.0423442
0.000150017
0.0463547
0.000188628
0.0161776
0.000148884
0.000144287
0.0181616
0.0277621
0.0321344
0.0781454
0.0461207
0.000161579
0.000183931
0.000152312
0.0358663
0.000148044
0.000148057
0.000171817
0.000179622
0.000177319
0.0309573
0.00015063
0.000481611
0.0412947
0.000150488
0.000187193
0.000159545
0.000177008
0.000185035
0.000168697
0.0368118
0.0404591
0.0356419
0.000298101
0.000162291
0.000147908
0.000151007
0.000159054
0.000450508
0.0315084
0.0367327
0.02987
0.000163299
0.000146803
0.000231297
0.00016775
0.0596655
0.000148561
0.0159745
0.000168848
0.0380804
0.000148523
0.016776
0.000174652
0.000180618
0.00164357
0.000146861
0.0203811
0.0301614
0.000146775
0.000180109
0.0509578
0.000150142
0.000251499
0.000152989
0.000151593
0.000149697
0.0550373
0.000169563
0.000251118
0.000160793
0.070329
0.000146711
0.000144496
0.000147234
0.000148297
0.000147548
0.0899812
0.000185773
0.0421976
0.000149352
0.000146935
0.0750479
0.00016044
0.0440379
0.000187416
0.000148666
0.000232948
0.000157074
0.000168281
0.0408314
0.000158335
0.0204175
0.000210052
0.000155446
0.000145345
0.000181682