/*--------------------------------*- C++ -*----------------------------------*\
| =========                 |                                                 |
| \\      /  F ield         | OpenFOAM: The Open Source CFD Toolbox           |
|  \\    /   O peration     | Version:  v2012                                 |
|   \\  /    A nd           | Website:  www.openfoam.com                      |
|    \\/     M anipulation  |                                                 |
\*---------------------------------------------------------------------------*/
FoamFile
{
    version     2.0;
    format      ascii;
    class       volScalarField;
    location    "700";
    object      p;
}
// * * * * * * * * * * * * * * * * * * * * * * * * * * * * * * * * * * * * * //

dimensions      [0 2 -2 0 0 0 0];


internalField   nonuniform List<scalar> 
18355
(
-0.0127892
0.00316513
0.0134244
0.00179853
3.87531e-05
0.00986325
0.00383682
-7.35902e-05
0.00336729
-0.0010061
0.00846171
-0.0389473
-0.0384666
-0.0137395
0.00323974
0.00321225
0.00186536
0.00865106
-0.00400818
0.00343827
0.00762966
-0.00457288
0.00324339
0.00977799
0.00325039
0.00661019
0.00389747
0.00205059
0.00322077
0.00934982
-0.0399008
0.011378
0.00328377
0.00327196
0.000270595
0.00727609
-0.01959
0.00740178
0.00982619
0.00301631
-0.00232554
0.00893255
0.00327485
0.00317296
0.00317236
-0.0406225
0.00322591
0.00318628
-0.0445284
0.00394946
0.00306644
-0.0054603
0.0039732
-0.00753012
-0.00195899
0.00345362
0.00196378
-0.0497903
0.00683878
-0.0319485
0.00328545
-0.0277597
-0.00735828
0.00254311
0.0103672
0.00304911
-0.0050928
-0.0190154
0.00329762
-0.00535744
0.00375531
-0.00199071
0.00999831
0.00985333
0.00339951
0.00331092
-0.0424824
0.00332498
0.0037257
0.00347416
-0.00454988
0.00350524
0.00331826
-0.00259602
-0.000439658
0.00316708
0.00258381
-0.00480106
0.00380442
-0.00414938
-0.0573625
0.0108713
0.00460979
0.00385774
-0.0449392
0.00288603
0.00344522
0.00286258
-0.00870846
-0.0033392
-0.000594862
0.00372219
0.00388801
0.000266682
-0.00384032
0.00323535
0.0107698
-0.0547177
-0.0102032
0.00326769
0.00198434
0.00299332
0.0104154
-0.00239102
-0.00422936
0.00498735
0.00369688
0.00211688
-0.00247917
-0.00600264
-0.00182109
0.0156547
-0.0516619
-0.00381014
0.00413379
-0.0320143
0.0039269
0.00179761
-0.0165795
-0.00423934
0.00350106
-0.00713857
0.00026108
-0.0132421
0.00151793
0.00384447
-0.00180405
-0.0147232
0.000110427
0.0105314
-0.0141813
0.004296
0.00350932
-0.0100716
0.00176557
-0.00206913
-0.0166739
0.000369419
0.0104989
0.000374868
0.00204979
-0.00606689
0.00219978
0.00456467
0.00328388
0.00321662
0.00184303
0.00307188
0.00353935
0.00321909
0.0085086
0.000349364
0.00326333
0.00444374
0.00987011
-0.00042375
-0.0168935
-0.0142476
-0.032882
-0.01361
0.00275696
-0.0141151
0.00318129
-0.0344285
0.00146702
-0.00204327
0.00297357
0.000248251
-0.0178986
0.000640465
0.00321428
2.77132e-05
-0.00442008
0.00214624
0.000271645
0.0038398
0.00328813
-0.00299743
-0.00288118
0.00393464
-0.0342148
-0.00935035
0.00317629
0.00353066
-0.00263327
0.00214796
0.00309294
-0.0221401
0.00316656
-0.0173645
0.00383973
0.00792165
0.0102855
0.00326488
-0.0145626
-0.0049453
-0.0296317
0.00222118
0.00331831
0.00219014
-0.000692401
0.0109471
0.00201488
0.00208231
0.000343814
-0.0368171
0.00119721
-0.0211606
-0.00455518
0.00349798
-0.0103528
0.00342117
-0.00588098
0.00379162
0.00242913
0.00383026
0.00345599
-0.0150702
-0.00729688
0.00715519
0.00358203
-0.0043232
0.00180252
0.00346197
0.00471821
0.00365624
-0.0135912
-0.038055
-0.0276935
0.00208465
0.00315238
-0.0176246
0.00212326
0.00600698
-0.00459707
-0.00214764
0.00293541
0.0107861
0.00953009
0.00373649
0.00251764
0.0102187
-0.0032461
0.00354205
0.000255394
0.00395803
-0.0268833
-0.00132878
0.00381526
0.00347324
-0.00122423
-0.00156499
-0.0106265
-0.0324784
0.0107588
0.00925049
0.00379128
-0.00767227
0.00348952
-0.00214753
0.00395638
0.00328737
0.00808605
-0.0218048
0.00225575
-0.00162966
0.0115869
0.00380304
-0.00221213
-0.0338896
0.0112966
-0.000785037
0.00607682
0.00328031
-0.00597285
-0.00508258
0.00157552
-0.00229319
0.00133264
-0.00255903
0.00328148
-0.0231604
-0.00379003
0.00316187
0.00362516
0.00324384
0.00350664
-0.0021277
-0.00133572
0.00388822
-0.0212144
-0.119581
-0.00745778
-0.0100564
0.00819204
0.0117064
0.00399256
-0.0254449
-0.0318748
-0.0220626
0.00312962
0.0295866
0.00373834
0.00898119
-0.00647735
0.00656808
0.00364673
0.00324583
0.00262206
-0.0378963
0.0274776
0.0308972
0.00296285
0.0115029
-0.0149857
0.00597927
0.000566437
-0.00499626
-0.0142984
-0.00295572
0.00657516
0.000178234
0.00360765
0.00321571
0.00161445
-0.00205192
0.0027565
0.00888774
-0.0271204
-0.0151927
0.005391
0.00348796
-0.000344402
0.00385505
-0.00279673
0.00432514
-0.00118336
0.00390261
0.000672867
0.00192782
-0.00135982
0.00395793
-0.0100361
0.00449516
0.00277948
0.00361639
0.0030428
-0.000797943
0.00368582
0.00375719
0.000717823
-0.00314185
-0.0322051
0.0032725
0.00369401
0.00338084
0.00340107
0.00256037
0.00320768
0.00680138
0.00377246
0.0113362
-0.00243151
-0.0138348
-0.0356604
0.00206606
0.00357885
-0.0262039
0.00327349
0.0039591
0.00258766
-0.00312663
0.000898307
0.00842663
0.00310269
0.00730454
-0.00264025
0.017893
0.0021487
-0.00691738
0.00304009
0.00272005
0.00786046
0.00402416
-0.0257164
0.0304994
0.00303158
0.00388597
-0.00295916
0.00370749
-0.00206275
-3.87319e-05
-0.024097
-0.00293183
0.0117228
0.00381451
0.0109769
0.00591294
0.00167534
-0.0116177
-0.00825597
0.000182359
0.00936387
-0.00376214
0.00235003
0.00739443
-0.00211498
0.00398923
0.000776125
0.0110941
-0.00208553
-0.0155831
-0.0101669
-0.0121448
0.00268201
0.00310286
-0.0116991
-0.00295813
0.00357231
-0.000448834
-0.000263781
0.00236014
-0.0241645
-0.0243109
0.00312299
0.0029406
0.00456788
-0.0223628
-0.0116896
-0.000973606
0.00400268
-0.0259748
0.00314411
0.00342175
0.00362938
0.00272405
0.0288291
0.00327672
0.00317506
-0.00153662
-0.0259209
0.00307438
0.00356487
0.00364649
-0.00648196
-0.00605158
-0.000543902
-0.0256032
-0.00466344
0.00308412
-0.0118915
-0.0291672
-0.118866
0.00330446
-0.0354797
0.000165678
0.00330628
-0.00661986
-0.00372074
0.0180894
0.00928257
-0.00680143
0.0102487
-0.00499008
-0.00914129
-0.00216799
-0.032265
-0.00191396
0.00332964
-0.00940555
0.00333225
-0.0230809
0.033897
0.0118799
0.00908625
0.00289492
-0.00151453
0.0021533
0.00808584
0.00264286
0.00372177
-0.00384312
-0.00655169
0.00314036
0.00270678
-0.0948692
-0.0267786
-0.00679911
-0.00436929
0.00318279
0.00400443
-0.0044554
0.000577058
0.0195211
0.00877339
-0.000725618
0.00992699
-0.0085953
-0.0113164
-0.0462169
-0.00259998
0.00694035
-0.00990153
0.00263082
-0.016801
0.00614041
-0.028571
0.0028685
-0.0456293
0.00224809
-0.0162987
0.0121266
0.00201647
-0.0016155
-0.0092119
-0.00558922
-0.00549356
-0.114645
0.00310215
-0.0124887
0.00820378
-0.00533302
-0.00319446
-0.00231679
0.00862315
0.00875707
-0.0253917
0.0358693
0.0162493
0.0101755
0.0106097
0.0111029
0.00316217
0.00129211
0.0105431
0.00893052
-0.00536633
-0.00230532
0.000781838
0.00349185
0.0153152
0.00938717
-0.0183239
-0.0347762
0.00117838
-0.00178789
-0.0193226
-0.00374616
0.0363077
0.00105197
0.0127184
-0.00201988
-0.00230205
0.0116418
-0.00817653
-0.00782954
0.00319898
0.00335391
-0.0252289
-0.029132
-0.0168178
-0.00308721
-0.0289433
0.00351316
0.0166631
-6.71617e-06
0.00444102
0.00733479
0.00481192
0.00322815
0.00163729
0.000376855
0.00272638
0.00403473
0.0250669
-0.0163615
0.00363389
0.00259964
0.00547674
-0.00217062
-0.0163247
-0.0184794
0.00319256
0.00288801
0.000247388
0.00271894
-0.011531
0.000502418
0.00202991
0.00200683
0.00332668
-0.0339765
-0.00957451
0.000516642
0.00287089
-0.0324556
-0.0037015
-0.0920561
0.00851479
0.00241522
-0.00243926
0.00378815
0.00964071
0.000598092
0.000781121
0.000701701
-0.0101047
0.00430844
-0.0197292
-0.0174468
0.00723022
0.0137508
0.00342498
-0.0100375
0.00252643
0.000433482
-0.0091905
-0.025405
0.0108394
0.00351788
0.0035204
0.00373199
0.0031092
0.00010783
-0.0366647
0.00314252
-0.014706
0.000209249
-0.00396706
-0.0254213
0.00379951
-0.0268807
0.025135
-0.00669909
-8.69476e-05
-0.00431539
-0.00254764
-0.0334218
-0.0013337
0.00350878
0.0032084
0.00381455
0.00484211
-0.0407813
0.00282481
-0.00615095
-0.00158312
0.00207626
-0.0290956
0.00317666
0.00304596
0.00383607
0.0019561
-0.00613908
-0.00211491
-0.0103201
0.000863783
0.0034599
0.00352449
0.0128749
-0.00965291
-0.0076128
0.00322823
-0.00414977
-0.0101661
0.0030279
-0.0048095
-0.000212136
-0.00576301
-0.0434556
0.00359131
0.0154105
-0.00332975
0.000523213
0.00509491
-0.000721035
-0.0208733
-0.00776959
-0.00218497
-0.0501677
-0.00316556
0.00326894
-0.000686786
0.00354893
0.00364555
-0.00522649
-0.0105523
0.00322445
0.0342915
0.00655235
-0.00564347
-0.0312892
0.0027305
-0.00256764
-0.000246763
0.0039746
-0.0180332
0.000268495
0.0033039
0.00354604
0.00300062
-0.00356522
0.0195972
0.00946238
-0.0215612
0.00367629
0.00895601
0.00805522
0.00446067
-0.00194748
0.00316333
-0.0250021
-0.00300137
0.00349024
-0.0277585
0.0232726
0.0028167
-0.0058914
0.00238219
0.0020716
-0.033034
0.000265341
-0.0261342
0.00265112
-0.00601741
0.00283103
-0.0272832
-0.010146
0.00543945
0.0112835
-0.00350811
0.00305267
-0.0374673
-0.00815629
-0.00315102
-0.0151455
0.00345218
-0.000964898
0.00343834
0.000442293
0.00317688
-0.00630637
0.00419896
0.00328125
0.00327878
0.00175474
-0.000447125
0.00589645
-0.0365114
0.00331834
0.0014942
0.00218006
0.00267225
0.00367308
0.00342175
0.0090819
0.00329809
0.00341128
0.0032146
-0.0040918
0.00822408
0.00377561
-0.00631784
0.0125449
-0.0155693
0.00341715
-0.0316311
0.00329483
0.00329166
0.00384459
0.0106398
0.00877458
0.00381814
0.00353909
0.00318318
0.0100479
0.00330084
0.0105057
0.000345346
-0.00333058
0.00323295
-0.0149353
-0.0174875
0.00354626
-0.00550702
0.00321017
-0.000779273
0.00245474
-0.027663
0.000918913
0.003955
0.00948609
0.00809199
-0.0424511
0.00322615
0.00284773
-0.00551259
0.0131501
0.00721187
0.00332175
0.00378589
-0.0402105
0.00372167
-0.028147
0.00383287
-0.0080783
0.0108045
0.00299992
0.00326668
0.000692258
0.0030113
-0.0326971
-0.00579792
0.00358154
-0.0151217
-0.00816445
0.00332396
0.00259273
0.00302204
0.00369075
-0.00732924
-0.0207092
0.00410407
0.00658236
-0.00791273
-0.00544786
0.012462
-0.00245021
-0.0268857
-0.0157695
-0.00297158
-0.00533742
-0.0243971
0.0118917
0.00339555
0.00332101
-0.00937795
-0.00137698
-0.00443186
-0.0340446
-0.017561
0.00318748
-0.00416091
0.00697035
0.00370089
-0.0442349
-0.000792988
0.00331732
0.00381804
0.0031492
0.00333677
0.00390655
0.00359672
-0.00441079
0.00351383
0.00704179
0.00316254
0.00338145
0.00354343
-0.00082209
0.0102152
0.00336909
0.00461558
0.00356121
0.00248437
0.011044
0.00868738
-9.08376e-05
0.00329229
-0.0131903
-0.0227628
0.000467092
-0.00135742
0.00318712
0.00326195
0.00255761
0.00316941
0.0122256
0.000554219
-0.000464701
0.00701453
-0.00626087
0.0139609
0.0033509
0.00322271
0.00316893
0.0090575
-0.00825974
0.00182117
-0.00816935
0.00328004
0.00342077
-0.0157295
0.0102299
-0.012886
0.00238858
-0.00565509
0.00348381
0.00398729
0.0132927
0.0093086
0.0031719
0.0124935
0.00877888
-0.00660341
0.00944576
0.00173387
0.00347794
-0.0064084
0.00683019
0.0035216
-0.000675534
-0.000430942
0.00325162
-0.000273985
-0.000163332
-0.029016
0.00336975
0.00333965
0.00514806
0.00396181
0.00322933
0.00279333
-0.0074201
-0.0139071
-0.00137684
0.0032133
0.00326617
0.00418873
0.00436805
0.00451743
0.00384592
0.00317226
0.00393892
0.00269599
0.00322945
-0.00424015
-0.00767864
0.0039566
0.00339891
-0.00336556
-0.00778475
0.00321556
-0.0057079
0.00322846
0.00382725
0.00319412
-0.0117055
-0.0111944
-0.00436055
-0.00483601
-0.0137813
-0.0176681
-0.0137597
0.00233357
0.0094912
0.0038261
0.00339691
0.00197782
0.0014404
-0.00989405
0.00414886
-0.0204522
-0.0259488
-0.0224128
0.00398543
-0.0066814
0.0110446
0.00853526
0.00374597
-0.0165517
-0.0186537
0.00319795
0.00308046
0.0234002
-0.00772352
-0.0124275
0.00343136
-0.0225784
0.00266789
0.00452197
0.0127367
0.00389414
0.00687984
-0.0325843
0.0024458
0.00631634
-0.0192704
0.00733165
0.00131733
0.0172671
0.00341787
0.00256999
0.00364397
0.0258267
0.0085898
0.0030215
-0.0266143
-0.0124165
0.0141401
0.00416655
0.00148021
0.0034065
0.0138575
-0.00910156
0.00382281
0.00355848
0.00308666
0.0038168
0.0039054
-0.00274085
0.0180397
0.0031678
0.0117256
-0.0211331
-0.0102364
0.00316829
-0.00850877
0.00311913
0.00172437
0.00416192
-0.0510843
0.0110933
-0.00126529
-0.00434636
0.0376176
0.00341191
-0.00725596
-0.00410044
-0.010908
0.0133397
-0.00152412
-0.00381108
0.00356399
0.00422586
-0.013241
0.00013115
0.00334975
-0.00320318
-0.034202
-0.0138534
0.00025662
-0.0137657
0.000545543
0.0106181
0.00379481
0.00355607
0.00394125
-0.00900234
0.00369818
0.0137519
0.00791475
0.00906315
-0.0157997
-0.0193499
-0.00828267
0.00293515
0.00388919
-0.0203291
0.0111556
-0.000973283
0.00353228
0.00324065
-0.00356975
-0.121408
0.00141674
0.00325008
-0.0219542
-0.000789975
-0.00476922
-0.00130592
-0.00869804
-0.000851264
0.00567332
-0.0150403
-0.0183762
0.00341043
0.000860709
0.0009249
0.00388457
-0.00136149
0.00317671
-0.00365718
-0.0149428
0.0087578
-0.0406407
0.000566541
-0.00621124
-0.0377288
0.00016643
-0.00709138
-0.0353674
0.0225654
0.00267457
-0.00527939
0.00379167
0.00566645
0.00357658
-0.0126253
0.00315211
-0.0329526
-0.0183563
0.00324823
0.00830982
0.00623838
0.00217246
0.00117006
0.00164335
0.00362143
0.00357767
0.03934
-0.00594732
0.00398593
0.00229806
0.0035573
0.000665572
0.00353444
-0.00419876
0.00376064
0.000346495
0.00338852
0.0068734
-0.0104862
-0.000225841
0.00361109
-0.0025574
-0.0135373
0.0109445
0.00270585
0.00327341
0.00796313
0.00312638
-0.000884687
0.00339103
0.00361865
0.00320875
0.00379028
-0.000823562
0.00467802
0.00487972
0.00153426
0.00368328
0.00336433
-0.0628363
-0.00400737
0.00508378
0.0394415
-0.0241766
0.00312241
-0.00953118
-0.00917639
-0.0396434
0.00429138
0.00389645
0.00326247
0.00351543
-0.0190421
0.00348594
0.00329015
-0.00457774
0.00335313
0.000262895
0.00506667
0.00507814
0.0137713
-0.00536888
-0.085238
0.000267119
-0.00601646
-0.0126694
0.000845418
0.00318799
0.00440247
-0.00184324
-0.00518689
-0.0132988
0.00717686
0.00315679
-0.0189092
0.0096734
-0.0290898
0.00507167
0.000670855
0.0159548
0.00409891
0.017851
-0.00483497
0.00332427
-0.000619066
0.00344395
-0.0109422
-0.0300747
0.00340898
-0.000560313
0.00220625
-0.00409552
0.00652547
0.00989353
-0.00400256
0.00984158
-0.000731272
0.00355164
-0.0418411
0.000251681
0.00407294
-0.0130141
-0.0153013
-0.000886305
-0.00266698
-0.00318068
0.000817979
0.00500868
0.00352708
0.00359481
-0.0111932
0.000245017
-0.010526
0.000218956
0.00401659
-0.0291117
-0.00517164
0.00863921
0.0040301
0.00258201
-0.0137734
-0.0212344
0.00238067
0.00623442
0.00909057
0.00245227
0.00722311
0.000440549
-0.00416759
0.00947086
0.0144086
0.00372167
0.00154711
0.00395778
0.00335992
0.000270885
0.00375237
0.00792745
0.00464061
-0.0148601
-0.00181309
-0.0196713
0.00325137
0.00352452
-0.0152132
-0.0395007
0.00346175
-0.00764406
0.00379779
0.0016379
0.00232182
0.00238649
-0.00625656
0.00204429
-0.000488459
0.00398139
0.00359026
0.00317637
0.000530553
0.0156031
0.0019071
0.000877393
0.00318209
0.00339063
0.00340476
-0.0363646
0.00282592
0.00342587
0.00374718
-0.00329983
-0.00179443
-0.000985116
0.00370335
0.00573632
5.18771e-05
0.00379674
0.00770025
0.00356201
-0.00591853
-0.0177072
0.0035328
0.01341
-0.0202963
0.00351131
0.00324216
0.00318403
0.00340178
-0.0255331
-0.0268554
0.0103248
0.0102109
0.00237467
-0.0336103
0.001389
0.00091572
0.00388991
-0.0139656
0.00838597
0.0014224
0.00322343
0.00423026
0.00250538
0.00383023
0.00459441
-0.0285939
0.00251032
0.000418821
0.00320442
0.00840806
0.00409731
-0.0411711
0.00288563
-0.0264289
0.00509384
0.00370308
0.00124297
-0.0115887
0.00447837
0.0105919
-0.00598671
0.00248326
0.0143912
-0.000858019
-0.0141285
-0.0280465
-0.0103662
0.0100885
0.00103484
0.00964299
0.00411123
-0.004785
0.00314672
0.0371736
0.00486107
0.00296496
0.00369856
0.0133262
0.00785845
-0.000154049
0.0015437
0.00749316
0.00300424
0.00341075
0.00709891
-0.0341682
0.00331939
0.000243704
0.00312934
0.0106551
-0.0294737
-0.00154252
-0.00532928
0.00366515
0.0124274
0.0037208
-0.010273
-0.00531231
-0.00175779
0.00348321
-0.0211129
-0.00171746
0.00368204
0.00397048
0.000386205
-0.0107195
0.00374998
0.00236363
-0.0154254
0.00105255
0.00321854
0.0121152
-0.0146538
-0.0141131
0.000279847
0.003706
-0.0351488
0.00347144
-0.0204584
0.000352402
0.00391383
0.00341726
0.00322209
-0.0108427
0.000842115
-0.0383184
0.00424858
0.00332743
0.00721809
0.0031031
0.00369311
-0.0459573
0.000773501
0.00388018
-0.009291
0.0141758
-0.00583359
-0.00494959
-0.0262299
-0.000772305
0.0031773
0.0037104
0.00316301
0.00320842
-0.0117349
-0.0423294
0.00409436
0.00196796
0.00528673
0.00354603
0.00318873
0.00803238
0.00207511
0.00378545
0.00211979
-0.0273528
0.00317201
0.00323361
-0.0130222
0.00327754
0.0100559
0.00370134
-0.00538039
0.00336362
-0.047286
0.00240938
0.00145425
0.00425453
0.00641631
0.0261347
0.00321426
-0.0286189
0.00362305
0.00279004
0.000272105
-0.00979094
-0.00609727
-0.039374
0.00923563
0.00552577
0.0335081
0.00740133
0.0143479
-0.0075873
0.000985332
-0.0382169
-0.023357
-0.000338899
0.00312957
-0.0119433
0.00975585
-0.00429354
0.00529279
0.00318009
0.00287049
0.00497831
-0.00474783
-0.00559704
0.00416596
0.0249111
-0.000848427
0.00825456
0.00224228
-0.0135716
-0.0279371
-0.000995692
0.0019853
0.00543387
0.00296798
0.00311476
-0.00377718
0.00558734
-0.0105205
-0.0133371
-0.00209436
0.00615297
-0.00417932
-0.00314781
0.00266665
-0.00271291
-0.00234596
0.00427915
-0.00406974
0.00325727
-0.000276549
-0.0142456
0.00292867
0.00297125
0.00352398
0.00392948
0.00196449
0.00481829
0.00223938
0.00328887
0.00319002
0.00509092
0.000689727
-0.0342841
-0.00318435
0.00366986
-0.0321499
0.00379602
0.00315753
0.00234811
0.00287115
0.00772818
0.00248427
0.00375161
0.00318899
0.00183229
0.00124334
-0.00189653
0.00371481
0.00694968
-0.0139993
0.0343614
-0.00403607
-1.63367e-05
0.0195859
-0.0170542
0.00328413
0.00665287
0.00168245
-0.0197893
0.00492095
-0.0525135
0.00486664
-0.00893035
0.00316868
0.00342174
0.00321662
0.00160316
-0.0131576
-0.00449155
-0.00750046
0.0034648
0.00561423
0.00374322
0.00470453
0.00251111
-0.00856662
-0.000750441
-0.00312764
0.00326146
0.0108597
0.00364847
0.00298147
-0.00761317
0.0031707
0.00385678
0.00389478
0.00654765
-0.0106686
0.00323368
-0.0289203
0.00789264
0.0034463
0.00402396
0.0271557
0.00960516
0.00225099
0.0040603
0.00132952
-0.00736449
0.00326619
-0.000756588
0.0154056
0.0012178
-0.00523235
0.00371264
-0.00272059
0.00460415
0.00634396
-0.026406
0.0100134
0.00726172
0.00227883
0.00348501
-0.0025194
0.00469879
0.0144647
-0.0117696
0.00156473
0.00349917
-0.00388184
-0.00334131
-0.0195964
0.00347126
-0.00720138
0.00361341
-0.00287042
0.00322902
-0.0895249
0.00317805
0.00279941
0.00226539
-0.0320059
0.00207251
-0.0176474
-0.00917325
0.00201746
0.00346445
0.00978983
-0.00753922
0.00293877
-0.063496
-0.0142299
0.00311834
-0.00136602
0.00854085
0.003169
0.00403765
-0.0150934
-0.0103978
0.00303299
-0.0304725
-0.00743199
-0.0202769
0.00288944
0.00629882
0.00181083
-0.000404193
0.00373734
-0.0131935
-0.00253211
-0.0162315
0.00326057
0.0308919
-0.041685
0.00397084
0.00343443
0.00340554
0.00781145
0.00219826
0.00785767
0.00124965
0.00451049
-0.0155913
0.0080175
0.00295557
-0.00979867
-0.00343614
-0.0209571
0.0012237
0.00799384
-0.00296723
0.00382137
-0.00875506
0.000919376
-0.0626278
0.00467313
-0.00668032
0.0022402
0.00494743
0.00739357
0.00517933
-0.00801801
-0.0091919
0.00564996
0.0034959
-0.0345241
0.00316412
-0.00326266
-0.0173672
0.0106761
0.00026619
0.0300969
-0.0922055
-0.000350715
0.00277228
0.00358444
0.00333897
-0.015663
0.00272218
-0.00914594
-0.00842374
0.00347744
0.00942361
0.0108667
0.00634211
0.00384156
0.00376997
0.00327294
7.14695e-05
0.00480435
-0.0250797
0.00631704
0.0138636
0.00283293
0.00290741
-0.0281701
0.00344638
0.00729028
0.00421119
0.00739113
-0.00316365
0.00965164
-0.00459757
0.0041726
-0.00778063
-0.0130666
0.000644468
0.00291498
0.00511624
0.000445649
-0.00165648
-0.0189464
-0.00266047
-0.0581977
0.00327267
-0.0131014
0.00734565
-0.00893266
0.00159582
0.00882312
0.00516089
0.00263647
-0.0185454
-9.2232e-06
0.0116081
-0.00213811
-0.00885574
-0.00241597
-0.00213999
-0.00197112
0.00599151
-0.00306664
0.00716418
0.000238216
0.00454395
0.00327232
0.00395727
0.0105359
0.0030591
0.00353443
-0.00441369
0.00397729
0.0105534
0.00484883
-0.00595354
0.0010866
0.00100691
-0.0454955
-0.00544616
0.00432547
0.00342291
0.0023597
-0.00408021
0.00497484
0.00334135
-0.0406726
-0.0139792
-0.00920931
0.00527236
-0.00157656
0.0112605
-0.0139673
0.00383859
-0.00485093
0.00215774
0.00309951
-0.0337641
-0.00641097
0.00585819
0.00753773
0.00316313
0.000533901
-0.0290941
0.00127
-0.00510336
-0.0169735
0.00105073
0.00356073
-0.0442828
0.00442793
0.0303416
-0.0182009
-0.0357959
0.0106881
0.00197724
0.0096534
0.00429797
0.00233708
0.00361747
0.000583071
0.00505166
-0.0126953
0.003466
-0.0195667
-0.0389386
0.00282119
0.00418418
0.00518206
0.0230564
0.00310763
0.00422508
0.00629426
0.00410162
0.00342023
0.00452534
-0.0176994
0.00133463
-0.000376862
0.000185014
0.00131399
0.00815928
0.0039628
-0.00196858
-0.0109097
0.0077036
0.00467081
-0.00232659
-0.000805399
0.00283682
-0.0413338
-0.00702311
0.00129264
0.00798336
-0.0337652
0.00323925
-0.00186165
0.000209665
-0.00753974
-0.0133859
-0.00283384
0.0056415
0.00210937
-0.0388067
0.00755878
0.00326581
0.00428379
0.00415115
0.00506274
0.00407477
0.00321217
-0.00795578
0.00399744
0.00106538
0.00362431
-0.000471103
-0.00114395
0.00375064
0.000200386
0.00817898
-0.0140966
-0.0280316
0.00325665
0.0109299
0.000316123
0.0073388
0.00452368
-0.000321866
-0.0897907
-0.0126865
-0.0127584
-0.00584902
0.00643396
-0.00557225
-0.00076069
-0.0271122
-0.0225657
0.00453027
0.00234143
0.00404753
-0.00293944
0.00756808
0.00051013
-0.0212652
0.000616103
0.00369868
-0.0375746
0.00313611
-0.0116921
0.0190397
-0.0205271
-0.0380636
0.00403645
-0.0167649
-0.00654285
0.00398041
0.00335908
-0.022448
0.00855329
0.00336668
0.00243922
-0.00789586
-0.0260989
0.0031814
0.00314437
0.00422729
0.00357129
0.02311
-0.027104
0.000201467
0.00239664
0.00324764
-0.000742088
-0.0393957
-0.00187533
0.00335236
0.0221277
0.00400372
-0.00319294
-0.00353175
-0.00216307
0.00315992
0.0042262
-0.00192827
0.00307894
0.00117306
0.00358672
0.00231227
0.00812833
-0.0549338
0.0093664
-0.00197387
-0.000243242
-0.0278381
-0.0124557
0.0164197
0.000512582
0.00329496
6.54314e-05
-0.0308967
0.0070596
-0.0108072
0.0111599
0.000155648
-0.0351195
-0.0185622
0.00198303
-0.0124838
0.0030082
-0.00100379
-0.00590305
-0.0270404
-0.0270045
0.00132146
-0.00278812
0.00045453
0.0144429
-0.00691234
0.00334693
0.00314406
0.00246772
-0.0461797
0.00412147
0.00317329
-0.00104714
0.00328821
0.00440121
-0.0357277
0.00386956
0.00277486
-0.0612709
0.00211104
-0.015318
-0.0112099
-0.0018799
0.00800367
0.00217325
-0.0065438
-0.0252248
-0.00503075
-0.0343136
-0.0713983
-0.0113575
0.00332446
0.0253774
0.00339987
-0.0346095
0.0231307
0.00441673
0.000504747
-0.0125094
-0.0210698
0.000726279
0.00274655
-0.0334996
-0.00165199
0.00350038
0.00451886
0.00470733
0.00321361
0.00527375
-0.033887
0.00361106
0.00196399
-0.0210016
0.000785533
0.00307915
0.00214752
0.00377255
0.0109028
0.00455148
-0.000541367
0.00325582
-0.0122654
0.00317329
0.011066
-0.0446277
-0.019423
0.0271321
0.0035207
0.000603917
-0.0666533
0.00312125
0.00318055
0.00407994
0.00379891
-0.00508434
0.00214824
0.0070931
0.0167537
0.00326866
0.00200901
0.000126549
0.00371832
0.00114901
-0.00656165
-0.00399164
0.0107269
0.00499249
-0.0238696
0.000396305
0.0044668
0.0032123
0.00634668
0.00244041
0.0014792
0.00433863
0.00271518
0.0208455
0.00313964
-0.0017779
-0.015468
-0.0110883
-0.00724302
0.00321604
-0.0113559
0.00704082
0.00484736
-0.00244115
0.00328398
0.000725502
-0.0358438
0.00582511
-0.00724206
-0.0164011
0.0034658
0.0032027
0.0030516
0.00226956
0.00520055
0.00359686
0.0149805
0.00177384
-0.00119656
0.000714941
0.00672889
-0.0165686
-0.00727629
4.09243e-06
0.00867472
0.0145753
0.00455834
0.0103179
0.0102619
-0.00175939
0.00265441
0.0141375
-0.00583095
0.0110399
0.000530368
0.000400966
0.00268923
0.0072372
0.00684361
-0.0351932
0.00733332
-0.0104257
0.000503459
0.000253287
0.00376712
-0.0425165
0.00325106
0.00258598
0.00130641
0.000475399
0.000196364
-0.0239838
0.00262995
-0.0142255
-0.0198368
-0.00212713
0.00402397
-0.00754148
-0.00473972
0.00368848
0.00180076
-0.0165274
0.00422948
0.000712954
-0.00860499
0.00435213
-0.0067941
-0.00123802
-0.00358958
0.0033531
-0.00148674
-0.00801293
-0.00313972
-0.00575941
0.00138022
-0.00411254
-0.0158954
0.00400416
-0.0297611
0.00470071
0.00689206
0.00323057
0.00874262
0.00539828
0.00273066
0.00643657
0.00514998
0.00899648
-0.00331263
-0.0224986
0.00330058
0.00272006
0.0110006
-0.0041874
0.00278987
0.00311938
0.00523271
-0.00373396
-0.0230829
0.00349021
0.00221768
-0.000854685
0.00330656
-0.0236929
-0.0170856
0.0032188
-0.0605144
-0.0175179
-0.0226754
0.00374494
0.00439048
0.00253111
0.00231124
0.00559883
-0.00633544
-0.00759684
0.00309264
0.00122264
-0.0451088
0.0150159
-0.00964506
-0.0153238
0.0157481
0.00315024
-0.00264011
-3.21066e-05
0.00320979
0.0003344
0.00411863
-0.0285226
0.00320176
0.0001261
0.000753849
0.00134406
0.00793887
-0.0017528
0.00295145
0.00182858
0.0106963
0.00445065
0.00499957
0.0068118
-0.0151304
-0.0198798
0.00215346
0.000125611
0.0113816
0.0281633
-0.0331064
0.00328423
-0.0029094
0.00322561
-0.00255222
-0.00134521
-0.00419713
0.000719225
-0.00256174
0.00343224
0.00364913
-0.00779815
0.00829558
0.00994393
-0.0287448
-0.0158027
-0.0284267
0.0049388
0.0134639
-0.00883503
-0.0247002
0.00288657
0.004481
0.00259051
-0.097205
0.000471221
0.00314629
0.00319797
-0.00273959
0.00265523
-0.00171854
0.00106648
0.00329709
0.011843
0.00292792
0.00155409
0.00305834
0.00527177
-0.017826
0.00486501
0.00328169
-0.0150346
-0.0567936
-0.0298289
-0.00580053
0.0041197
0.0104644
0.0053045
-0.00825082
0.0035302
0.00339601
-0.00296084
0.00465587
0.00309069
0.00233626
0.00184681
-0.00762955
-0.0251635
-0.018404
0.00270574
-0.00589658
-0.0389535
-0.0345316
0.00323527
0.00320651
0.00340803
-0.00280116
0.00276208
5.25199e-05
0.00339791
0.00309113
-0.015114
0.00325484
-0.00267052
0.00471395
0.00267114
0.00469103
-0.0040643
-0.0166281
0.00312932
0.00346974
-0.0139286
-0.0170204
-0.0165209
-0.0178614
-0.00453022
-0.00124889
0.0160572
-0.0141803
0.000445989
-0.000896733
-0.0332922
0.00229508
-0.0409033
0.00118396
0.00369482
-0.0239965
0.00343862
0.00414364
0.00244993
0.00163717
0.00351135
-0.0137688
0.0028369
0.00335448
-0.00259071
0.00629621
-0.0274882
0.00317243
-0.00462052
0.00312802
0.00344194
-0.0279181
-0.0122897
-0.00337725
0.00219744
-0.00017282
0.00322943
-0.0141323
-0.0348244
-0.040181
-0.00920042
-0.0139961
0.00360855
-0.0222081
0.00342719
-0.00215518
-0.00914836
-0.0200803
-0.0430122
0.00100561
0.00643416
-0.013919
0.00222286
0.013842
0.00329063
0.0082238
-0.00920119
-2.06293e-05
-0.0179117
-0.0183458
0.00461263
-0.00966308
-0.0874465
-0.0109921
0.00218037
-0.00500686
-0.00547066
0.0288755
-0.0111724
-0.0394009
0.0360719
0.00306736
0.00332864
-0.00191709
-0.0027986
0.00534694
-0.000516689
0.00881011
-0.0107532
0.00024245
-0.0060486
0.0174553
-0.0889736
-0.0428953
0.00161746
-0.00527264
-0.0114701
0.00244809
0.00837029
0.00870603
-0.00117284
0.00322248
-0.0224855
0.00865994
-0.0241059
0.00568572
0.00549673
0.0051597
0.00396518
-0.0949277
0.00273935
-0.000985571
-0.00150574
-0.0234863
-0.0601302
0.00391867
0.00521171
0.00530459
0.00309395
0.034403
0.0030829
0.0070197
-0.0107765
0.00819005
0.00329693
-0.0113228
0.00187131
0.00461146
0.00467279
0.00392785
0.00408218
0.00934795
0.00294016
0.00401597
0.00486031
-0.0446615
0.0099894
-0.0262171
-0.00774707
-0.00020354
0.00790894
0.00509607
0.00156234
0.00187917
0.00336323
0.00771214
0.00625861
0.0037517
0.000161221
0.0045488
-0.00507107
-0.00378265
0.00375329
0.00356052
0.00319417
0.00600271
0.00343337
0.00949502
-0.0245631
-0.00176833
-0.0164348
-0.00968403
0.00420199
-0.00257855
-0.00718583
-0.0318035
0.00319187
0.000642796
-0.0147362
0.0035367
-0.00140633
0.00117686
0.00496439
0.00172861
0.00316647
0.00318164
0.00094558
0.0011722
-0.0179777
-0.00939351
-0.000375614
-0.00252316
0.0023577
0.00321572
-0.0251791
0.0274147
0.00298668
0.00381207
0.000779913
0.00367197
0.00290665
-0.0135776
-0.00228513
-0.00158674
0.00808555
-0.000665637
-0.00040821
0.00276333
0.000140624
0.0315006
-0.0031319
0.00355557
0.00198217
-0.00452644
0.0113133
0.00482404
0.000188841
-0.00901244
-0.0100874
-0.0128277
-0.00686273
0.00492326
-0.0217807
-0.0148006
0.0037899
-0.0270659
0.00325762
-0.0197658
0.00320681
-0.00469769
0.00365707
-0.0204048
0.00510158
0.00327168
-0.00143742
0.00222117
0.00313716
0.00633941
0.00320981
-0.00404113
0.00261321
-0.00315746
0.00318162
0.00107769
-0.0278171
0.00328913
0.000307026
0.00188054
-0.0211604
0.00202707
-0.00381987
-0.0260181
-0.0178133
-0.0079349
0.00337099
0.00540306
0.00588379
-0.00369047
0.0038448
0.00064957
-0.00140245
-0.0882431
-0.00597649
-0.0428365
-0.0188414
-0.00474955
-0.00154959
-0.0406598
0.0013772
0.00363223
-0.00435024
0.00624176
0.00301164
0.00330869
-0.00229658
0.00434985
0.0122682
0.0133771
-0.0140249
-0.00619992
-0.006593
0.00204861
0.00321277
0.0302217
0.00352592
-0.0140143
-0.0198133
0.00151883
-0.0625524
-0.00250274
0.00295186
0.00365268
0.00285368
-0.0133408
0.00335074
0.0020952
5.67991e-05
0.00663747
0.00664356
-0.00372684
-0.0286815
0.00432094
0.0344614
0.0034102
0.00221192
-0.00154154
0.00318628
0.00900816
-0.00702544
0.0092591
0.0091882
0.00286524
-0.000163398
0.0282255
0.00319438
0.0242069
-0.0261743
0.00325456
-0.00464276
0.00318291
-0.00305559
0.0150394
0.00530214
0.00849152
0.0052205
0.0028085
0.00334195
0.0056741
-0.0626134
-0.0128275
0.00145525
0.00667998
-0.0052204
0.00818
-0.036116
-0.0329998
-0.0069978
0.00319106
-0.0254727
0.00540288
0.0009147
-0.00813543
-0.0223332
-0.0363699
0.027896
-0.0559038
0.00318417
-0.0294323
0.000598008
0.00267562
-0.00342912
0.00223691
-0.00601179
0.000954079
-0.00727046
0.00328006
-0.00352819
0.00318679
0.0052048
-0.00113798
-0.0256196
-0.0190286
-0.0024871