/*--------------------------------*- C++ -*----------------------------------*\
| =========                 |                                                 |
| \\      /  F ield         | OpenFOAM: The Open Source CFD Toolbox           |
|  \\    /   O peration     | Version:  v2012                                 |
|   \\  /    A nd           | Website:  www.openfoam.com                      |
|    \\/     M anipulation  |                                                 |
\*---------------------------------------------------------------------------*/
FoamFile
{
    version     2.0;
    format      ascii;
    class       pointVectorField;
    location    "100";
    object      pointDisplacement;
}
// * * * * * * * * * * * * * * * * * * * * * * * * * * * * * * * * * * * * * //

dimensions      [0 1 0 0 0 0 0];


internalField   nonuniform List<vector> 
10142
(
(0 0 0)
(0 0 0)
(0 0 0)
(0 0 0)
(0 0 0)
(0 0 0)
(0 0 0)
(0 0 0)
(0 0 0)
(0 0 0)
(0 0 0)
(0 0 0)
(0 0 0)
(0 0 0)
(0 0 0)
(0 0 0)
(0 0 0)
(0 0 0)
(0 0 0)
(0 0 0)
(0 0 0)
(0 0 0)
(0 0 0)
(0 0 0)
(0 0 0)
(0 0 0)
(0 0 0)
(0 0 0)
(0 0 0)
(0 0 0)
(0 0 0)
(0 0 0)
(0 0 0)
(0 0 0)
(0 0 0)
(0 0 0)
(0 0 0)
(0 0 0)
(0 0 0)
(0 0 0)
(0 0 0)
(0 0 0)
(0 0 0)
(0 0 0)
(0 0 0)
(0 0 0)
(0 0 0)
(0 0 0)
(0 0 0)
(0 0 0)
(0 0 0)
(0 0 0)
(0 0 0)
(0 0 0)
(0 0 0)
(0 0 0)
(0 0 0)
(0 0 0)
(0 0 0)
(0 0 0)
(0 0 0)
(0 0 0)
(0 0 0)
(0 0 0)
(0 0 0)
(0 0 0)
(0 0 0)
(0 0 0)
(0 0 0)
(0 0 0)
(0 0 0)
(0 0 0)
(0 0 0)
(0 0 0)
(0 0 0)
(0 0 0)
(0 0 0)
(0 0 0)
(0 0 0)
(0 0 0)
(0 0 0)
(0 0 0)
(0 0 0)
(0 0 0)
(0 0 0)
(0 0 0)
(0 0 0)
(0 0 0)
(0 0 0)
(0 0 0)
(0 0 0)
(0 0 0)
(0 0 0)
(0 0 0)
(0 0 0)
(0 0 0)
(0 0 0)
(0 0 0)
(0 0 0)
(0 0 0)
(0 0 0)
(0 0 0)
(0 0 0)
(0 0 0)
(0 0 0)
(0 0 0)
(0 0 0)
(0 0 0)
(0 0 0)
(0 0 0)
(0 0 0)
(0 0 0)
(0 0 0)
(0 0 0)
(0 0 0)
(0 0 0)
(0 0 0)
(0 0 0)
(0 0 0)
(0 0 0)
(0 0 0)
(0 0 0)
(0 0 0)
(0 0 0)
(0 0 0)
(0 0 0)
(0 0 0)
(0 0 0)
(0 0 0)
(0 0 0)
(0 0 0)
(0 0 0)
(0 0 0)
(0 0 0)
(0 0 0)
(0 0 0)
(0 0 0)
(0 0 0)
(0 0 0)
(0 0 0)
(0 0 0)
(0 0 0)
(0 0 0)
(0 0 0)
(0 0 0)
(0 0 0)
(0 0 0)
(0 0 0)
(0 0 0)
(0 0 0)
(0 0 0)
(0 0 0)
(0 0 0)
(0 0 0)
(0 0 0)
(0 0 0)
(0 0 0)
(0 0 0)
(0 0 0)
(0 0 0)
(0 0 0)
(0 0 0)
(0 0 0)
(0 0 0)
(0 0 0)
(0 0 0)
(0 0 0)
(0 0 0)
(0 0 0)
(0 0 0)
(0 0 0)
(0 0 0)
(0 0 0)
(0 0 0)
(0 0 0)
(0 0 0)
(0 0 0)
(0 0 0)
(0 0 0)
(0 0 0)
(0 0 0)
(0 0 0)
(0 0 0)
(0 0 0)
(0 0 0)
(0 0 0)
(0 0 0)
(0 0 0)
(0 0 0)
(0 0 0)
(0 0 0)
(0 0 0)
(0 0 0)
(0 0 0)
(0 0 0)
(0 0 0)
(0 0 0)
(0 0 0)
(0 0 0)
(0 0 0)
(0 0 0)
(0 0 0)
(0 0 0)
(0 0 0)
(0 0 0)
(0 0 0)
(0 0 0)
(0 0 0)
(0 0 0)
(0 0 0)
(0 0 0)
(0 0 0)
(0 0 0)
(0 0 0)
(0 0 0)
(0 0 0)
(0 0 0)
(0 0 0)
(0 0 0)
(0 0 0)
(0 0 0)
(0 0 0)
(0 0 0)
(0 0 0)
(0 0 0)
(0 0 0)
(0 0 0)
(0 0 0)
(0 0 0)
(0 0 0)
(0 0 0)
(0 0 0)
(0 0 0)
(0 0 0)
(0 0 0)
(0 0 0)
(0 0 0)
(0 0 0)
(0 0 0)
(0 0 0)
(0 0 0)
(0 0 0)
(0 0 0)
(0 0 0)
(0 0 0)
(0 0 0)
(0 0 0)
(0 0 0)
(0 0 0)
(0 0 0)
(0 0 0)
(0 0 0)
(0 0 0)
(0 0 0)
(0 0 0)
(0 0 0)
(0 0.000860349 0)
(0 0.00113372 0)
(0 0.000538763 0)
(0 0.000520404 0)
(0 0.000302545 0)
(0 0.00119018 0)
(0 0.00022906 0)
(0 0.00154809 0)
(0 0.000142107 0)
(0 0.00145539 0)
(0 0.000186906 0)
(0 0.000106569 0)
(0 0.000121201 0)
(0 0.000610654 0)
(0 9.91183e-05 0)
(0 8.64634e-05 0)
(0 7.49179e-05 0)
(0 0.000830576 0)
(0 0.000362849 0)
(0 0.00026679 0)
(0 6.51321e-05 0)
(0 4.1272e-05 0)
(0 0.00159087 0)
(0 0.00130749 0)
(0 0.00140026 0)
(0 0.000954595 0)
(0 0.000493545 0)
(0 0.000135491 0)
(0 0.000182236 0)
(0 0.000136291 0)
(0 0.000120787 0)
(0 4.2031e-05 0)
(0 2.57234e-05 0)
(0 2.18378e-05 0)
(0 0.00110142 0)
(0 0.00103458 0)
(0 0.000784474 0)
(0 0.000597424 0)
(0 0.000695515 0)
(0 0.000387288 0)
(0 0.000208292 0)
(0 0.00026005 0)
(0 0.00041272 0)
(0 7.59264e-05 0)
(0 0.000263038 0)
(0 0.000130464 0)
(0 9.74929e-05 0)
(0 7.99916e-05 0)
(0 5.56892e-05 0)
(0 0.000108723 0)
(0 1.1008e-05 0)
(0 0.0245034 0)
(0 0.0246106 0)
(0 0.0245072 0)
(0 0.0246135 0)
(0 0.024508 0)
(0 0.0246127 0)
(0 0.0245051 0)
(0 0.0246074 0)
(0 0.0244981 0)
(0 0.0245979 0)
(0 0.0244871 0)
(0 0.0245836 0)
(0 0.0244724 0)
(0 0.0245658 0)
(0 0.0244514 0)
(0 0.0245456 0)
(0 0.0244274 0)
(0 0.0245195 0)
(0 0.0243975 0)
(0 0.0244849 0)
(0 0.0243543 0)
(0 0.0244464 0)
(0 0.0243108 0)
(0 0.0244017 0)
(0 0.0242668 0)
(0 0.0243511 0)
(0 0.0242127 0)
(0 0.0242948 0)
(0 0.0241487 0)
(0 0.0242311 0)
(0 0.0240809 0)
(0 0.0241608 0)
(0 0.0240075 0)
(0 0.0240843 0)
(0 0.0239268 0)
(0 0.0239995 0)
(0 0.0238367 0)
(0 0.0239064 0)
(0 0.0237413 0)
(0 0.023809 0)
(0 0.023644 0)
(0 0.0237064 0)
(0 0.023535 0)
(0 0.0235955 0)
(0 0.0234187 0)
(0 0.0234775 0)
(0 0.0232958 0)
(0 0.0233466 0)
(0 0.0231591 0)
(0 0.0232051 0)
(0 0.0230145 0)
(0 0.0230555 0)
(0 0.0228587 0)
(0 0.023248 0)
(0 0.0230874 0)
(0 0.022817 0)
(0 0.0226605 0)
(0 0.0236489 0)
(0 0.0241652 0)
(0 0.0243839 0)
(0 0.0226081 0)
(0 0.0224539 0)
(0 0.0223884 0)
(0 0.022234 0)
(0 0.0221655 0)
(0 0.0220091 0)
(0 0.0219313 0)
(0 0.0217678 0)
(0 0.0216817 0)
(0 0.0215179 0)
(0 0.0214328 0)
(0 0.0212646 0)
(0 0.0211718 0)
(0 0.0209939 0)
(0 0.0208961 0)
(0 0.0207124 0)
(0 0.0206173 0)
(0 0.0204341 0)
(0 0.0203368 0)
(0 0.020162 0)
(0 0.0200606 0)
(0 0.0198971 0)
(0 0.0199843 0)
(0 0.0197179 0)
(0 0.0197998 0)
(0 0.0195257 0)
(0 0.0196101 0)
(0 0.0193316 0)
(0 0.0194142 0)
(0 0.0191367 0)
(0 0.0192082 0)
(0 0.0189266 0)
(0 0.0189882 0)
(0 0.0187011 0)
(0 0.0187619 0)
(0 0.0184773 0)
(0 0.0185315 0)
(0 0.0182491 0)
(0 0.0182923 0)
(0 0.018007 0)
(0 0.0177558 0)
(0 0.0177178 0)
(0 0.0174675 0)
(0 0.017211 0)
(0 0.0190675 0)
(0 0.0171734 0)
(0 0.0169162 0)
(0 0.016614 0)
(0 0.0163575 0)
(0 0.0160551 0)
(0 0.0157976 0)
(0 0.0157502 0)
(0 0.0154952 0)
(0 0.0152366 0)
(0 0.0151902 0)
(0 0.0149347 0)
(0 0.0146308 0)
(0 0.0143755 0)
(0 0.0140746 0)
(0 0.013819 0)
(0 0.0137736 0)
(0 0.0135239 0)
(0 0.0132691 0)
(0 0.0132377 0)
(0 0.0129795 0)
(0 0.0126708 0)
(0 0.0124297 0)
(0 0.0121444 0)
(0 0.0119084 0)
(0 0.0202215 0)
(0 0.0118663 0)
(0 0.0116272 0)
(0 0.0113876 0)
(0 0.0113249 0)
(0 0.0111051 0)
(0 0.0108304 0)
(0 0.0106112 0)
(0 0.0103453 0)
(0 0.0101177 0)
(0 0.0100805 0)
(0 0.00985861 0)
(0 0.00962964 0)
(0 0.00960689 0)
(0 0.00938569 0)
(0 0.00915902 0)
(0 0.00913765 0)
(0 0.00892677 0)
(0 0.024153 0)
(0 0.00868428 0)
(0 0.0084819 0)
(0 0.00824704 0)
(0 0.00804807 0)
(0 0.00801381 0)
(0 0.00781985 0)
(0 0.00762592 0)
(0 0.00758826 0)
(0 0.00740336 0)
(0 0.00718166 0)
(0 0.00700474 0)
(0 0.00679624 0)
(0 0.00661907 0)
(0 0.00658916 0)
(0 0.00641672 0)
(0 0.00624386 0)
(0 0.00621636 0)
(0 0.00604868 0)
(0 0.00585497 0)
(0 0.0244826 0)
(0 0.0246571 0)
(0 0.0199366 0)
(0 0.0200829 0)
(0 0.0197884 0)
(0 0.0199247 0)
(0 0.0196236 0)
(0 0.0197472 0)
(0 0.0193941 0)
(0 0.0195503 0)
(0 0.0192243 0)
(0 0.019336 0)
(0 0.0190122 0)
(0 0.0191125 0)
(0 0.0187762 0)
(0 0.0188728 0)
(0 0.0185192 0)
(0 0.0186043 0)
(0 0.0182464 0)
(0 0.0183377 0)
(0 0.0179559 0)
(0 0.0180467 0)
(0 0.0176412 0)
(0 0.0175744 0)
(0 0.0172434 0)
(0 0.0171806 0)
(0 0.0168373 0)
(0 0.0167717 0)
(0 0.017705 0)
(0 0.0181198 0)
(0 0.0164239 0)
(0 0.0163613 0)
(0 0.017755 0)
(0 0.0181646 0)
(0 0.0160116 0)
(0 0.015944 0)
(0 0.017793 0)
(0 0.0181999 0)
(0 0.0155486 0)
(0 0.0155211 0)
(0 0.0178177 0)
(0 0.0182086 0)
(0 0.0178278 0)
(0 0.018208 0)
(0 0.0151385 0)
(0 0.0151003 0)
(0 0.0178287 0)
(0 0.0182176 0)
(0 0.0147203 0)
(0 0.0146717 0)
(0 0.0178215 0)
(0 0.0182173 0)
(0 0.0147666 0)
(0 0.0178004 0)
(0 0.0181969 0)
(0 0.0142891 0)
(0 0.014244 0)
(0 0.0174015 0)
(0 0.0177675 0)
(0 0.0181627 0)
(0 0.0138517 0)
(0 0.013808 0)
(0 0.0177245 0)
(0 0.0181145 0)
(0 0.0134093 0)
(0 0.0133698 0)
(0 0.0176593 0)
(0 0.0180493 0)
(0 0.0188152 0)
(0 0.0129619 0)
(0 0.0129337 0)
(0 0.0175689 0)
(0 0.0179693 0)
(0 0.018441 0)
(0 0.0183593 0)
(0 0.0178789 0)
(0 0.0182662 0)
(0 0.0186011 0)
(0 0.0125122 0)
(0 0.0124961 0)
(0 0.0177849 0)
(0 0.0181748 0)
(0 0.0186483 0)
(0 0.018556 0)
(0 0.0180688 0)
(0 0.0184466 0)
(0 0.0179432 0)
(0 0.0183233 0)
(0 0.0120658 0)
(0 0.0120595 0)
(0 0.0124683 0)
(0 0.012041 0)
(0 0.0116241 0)
(0 0.0116126 0)
(0 0.0130087 0)
(0 0.0189213 0)
(0 0.0247128 0)
(0 0.0177915 0)
(0 0.0181838 0)
(0 0.0120112 0)
(0 0.0115906 0)
(0 0.0111842 0)
(0 0.0111691 0)
(0 0.0107586 0)
(0 0.0107509 0)
(0 0.0111436 0)
(0 0.0107323 0)
(0 0.0103354 0)
(0 0.0103231 0)
(0 0.0171652 0)
(0 0.0107039 0)
(0 0.0103045 0)
(0 0.00991762 0)
(0 0.00990869 0)
(0 0.00951643 0)
(0 0.00951427 0)
(0 0.00990952 0)
(0 0.00951294 0)
(0 0.00912346 0)
(0 0.00911551 0)
(0 0.00948547 0)
(0 0.00909685 0)
(0 0.00873435 0)
(0 0.00872411 0)
(0 0.0176313 0)
(0 0.0180276 0)
(0 0.017154 0)
(0 0.00836132 0)
(0 0.00835381 0)
(0 0.00869792 0)
(0 0.0083344 0)
(0 0.00799235 0)
(0 0.00798011 0)
(0 0.0196615 0)
(0 0.0142237 0)
(0 0.00830569 0)
(0 0.00795845 0)
(0 0.00763343 0)
(0 0.00761842 0)
(0 0.00729358 0)
(0 0.0072846 0)
(0 0.00759009 0)
(0 0.00726476 0)
(0 0.0069576 0)
(0 0.00694834 0)
(0 0.00725237 0)
(0 0.00693838 0)
(0 0.00663583 0)
(0 0.00662765 0)
(0 0.00632801 0)
(0 0.00631919 0)
(0 0.00659114 0)
(0 0.00629844 0)
(0 0.006024 0)
(0 0.00601044 0)
(0 0.00627205 0)
(0 0.00598911 0)
(0 0.00572794 0)
(0 0.0057112 0)
(0 0.0054525 0)
(0 0.00544139 0)
(0 0.00568475 0)
(0 0.00542386 0)
(0 0.0051797 0)
(0 0.00516577 0)
(0 0.0174624 0)
(0 0.0178528 0)
(0 0.0184045 0)
(0 0.0182318 0)
(0 0.0187637 0)
(0 0.0185963 0)
(0 0.0180444 0)
(0 0.0184227 0)
(0 0.0178437 0)
(0 0.0182257 0)
(0 0.00539524 0)
(0 0.00514425 0)
(0 0.00491516 0)
(0 0.00489872 0)
(0 0.00467102 0)
(0 0.00465921 0)
(0 0.0048734 0)
(0 0.00464114 0)
(0 0.00442789 0)
(0 0.00441541 0)
(0 0.004639 0)
(0 0.00439346 0)
(0 0.00419752 0)
(0 0.00417524 0)
(0 0.00435245 0)
(0 0.00414874 0)
(0 0.00396346 0)
(0 0.0039434 0)
(0 0.00412107 0)
(0 0.00391851 0)
(0 0.00408776 0)
(0 0.00388716 0)
(0 0.00404804 0)
(0 0.00385004 0)
(0 0.00369111 0)
(0 0.00365728 0)
(0 0.00380761 0)
(0 0.00361823 0)
(0 0.00346981 0)
(0 0.00343437 0)
(0 0.00357417 0)
(0 0.0033937 0)
(0 0.00352519 0)
(0 0.00334769 0)
(0 0.0034715 0)
(0 0.00329712 0)
(0 0.00341338 0)
(0 0.00324201 0)
(0 0.00312699 0)
(0 0.00307488 0)
(0 0.00318266 0)
(0 0.00301834 0)
(0 0.00311918 0)
(0 0.00295744 0)
(0 0.00305195 0)
(0 0.00289234 0)
(0 0.00298071 0)
(0 0.00279972 0)
(0 0.00282317 0)
(0 0.00290511 0)
(0 0.00275016 0)
(0 0.00282628 0)
(0 0.00267357 0)
(0 0.00274456 0)
(0 0.0025939 0)
(0 0.00265978 0)
(0 0.0032888 0)
(0 0.00252372 0)
(0 0.00251123 0)
(0 0.00257209 0)
(0 0.00242552 0)
(0 0.00248161 0)
(0 0.0215891 0)
(0 0.0176262 0)
(0 0.0180131 0)
(0 0.0023369 0)
(0 0.00238849 0)
(0 0.0191077 0)
(0 0.00281114 0)
(0 0.0173863 0)
(0 0.0177733 0)
(0 0.0218428 0)
(0 0.00224548 0)
(0 0.00229289 0)
(0 0.00219425 0)
(0 0.00243601 0)
(0 0.00233633 0)
(0 0.00247924 0)
(0 0.00237563 0)
(0 0.00314212 0)
(0 0.0158932 0)
(0 0.017117 0)
(0 0.0184474 0)
(0 0.0166896 0)
(0 0.00223455 0)
(0 0.00227014 0)
(0 0.00251811 0)
(0 0.00358934 0)
(0 0.00213065 0)
(0 0.00216272 0)
(0 0.0020247 0)
(0 0.00205347 0)
(0 0.00191688 0)
(0 0.00194276 0)
(0 0.00207847 0)
(0 0.00196503 0)
(0 0.00209965 0)
(0 0.0188998 0)
(0 0.00180743 0)
(0 0.00178081 0)
(0 0.0174246 0)
(0 0.0186363 0)
(0 0.00167227 0)
(0 0.0016451 0)
(0 0.0238639 0)
(0 0.0184211 0)
(0 0.00425058 0)
(0 0.00375687 0)
(0 0.00296126 0)
(0 0.0194823 0)
(0 0.0233388 0)
(0 0.023998 0)
(0 0.0243198 0)
(0 0.0243964 0)
(0 0.00153719 0)
(0 0.00150973 0)
(0 0.0222873 0)
(0 0.00140225 0)
(0 0.00137495 0)
(0 0.0160815 0)
(0 0.0126891 0)
(0 0.0249688 0)
(0 0.025046 0)
(0 0.0202259 0)
(0 0.00342627 0)
(0 0.00355244 0)
(0 0.00370547 0)
(0 0.00367772 0)
(0 0.00383456 0)
(0 0.00380286 0)
(0 0.0039638 0)
(0 0.00392782 0)
(0 0.00409154 0)
(0 0.0040522 0)
(0 0.00421727 0)
(0 0.00417398 0)
(0 0.00434258 0)
(0 0.0042977 0)
(0 0.00446649 0)
(0 0.00441099 0)
(0 0.00458529 0)
(0 0.00451351 0)
(0 0.0046969 0)
(0 0.00460197 0)
(0 0.00481152 0)
(0 0.00473599 0)
(0 0.00492911 0)
(0 0.00484575 0)
(0 0.00504131 0)
(0 0.00147966 0)
(0 0.00134511 0)
(0 0.00144687 0)
(0 0.00131274 0)
(0 0.00141161 0)
(0 0.00127817 0)
(0 0.00137408 0)
(0 0.0012416 0)
(0 0.00133423 0)
(0 0.00120299 0)
(0 0.00129222 0)
(0 0.00116248 0)
(0 0.0012482 0)
(0 0.0011202 0)
(0 0.00120217 0)
(0 0.00107628 0)
(0 0.00115442 0)
(0 0.0012804 0)
(0 0.00122867 0)
(0 0.00110505 0)
(0 0.00117468 0)
(0 0.00129876 0)
(0 0.00124011 0)
(0 0.00111947 0)
(0 0.00118022 0)
(0 0.00130155 0)
(0 0.0012363 0)
(0 0.00111879 0)
(0 0.00116927 0)
(0 0.00128699 0)
(0 0.00121538 0)
(0 0.0011011 0)
(0 0.00114122 0)
(0 0.00125595 0)
(0 0.00117567 0)
(0 0.00128961 0)
(0 0.00106583 0)
(0 0.00120418 0)
(0 0.00131772 0)
(0 0.0012269 0)
(0 0.00134058 0)
(0 0.00124404 0)
(0 0.00135945 0)
(0 0.00125546 0)
(0 0.00137126 0)
(0 0.00114522 0)
(0 0.00126012 0)
(0 0.00137448 0)
(0 0.00140765 0)
(0 0.00125795 0)
(0 0.00137212 0)
(0 0.0014917 0)
(0 0.00124963 0)
(0 0.00136376 0)
(0 0.00114033 0)
(0 0.00123467 0)
(0 0.00134896 0)
(0 0.00148309 0)
(0 0.00146848 0)
(0 0.00160738 0)
(0 0.00159337 0)
(0 0.00144761 0)
(0 0.00157318 0)
(0 0.00172379 0)
(0 0.00170454 0)
(0 0.0015466 0)
(0 0.00167884 0)
(0 0.00151303 0)
(0 0.00164594 0)
(0 0.00181702 0)
(0 0.00178488 0)
(0 0.0116405 0)
(0 0.0121468 0)
(0 0.0016054 0)
(0 0.00174529 0)
(0 0.00193006 0)
(0 0.00189172 0)
(0 0.00208164 0)
(0 0.00204471 0)
(0 0.00184544 0)
(0 0.00199976 0)
(0 0.00126788 0)
(0 0.00129259 0)
(0 0.0249509 0)
(0 0.0250265 0)
(0 0.0251174 0)
(0 0.0250959 0)
(0 0.0251825 0)
(0 0.0251601 0)
(0 0.025006 0)
(0 0.0252419 0)
(0 0.0252183 0)
(0 0.00389362 0)
(0 0.00179082 0)
(0 0.00194643 0)
(0 0.0110794 0)
(0 0.0115953 0)
(0 0.00111013 0)
(0 0.00495299 0)
(0 0.0051523 0)
(0 0.00431974 0)
(0 0.00216107 0)
(0 0.00210921 0)
(0 0.00188428 0)
(0 0.00204851 0)
(0 0.00227922 0)
(0 0.0022201 0)
(0 0.00352305 0)
(0 0.00245649 0)
(0 0.00239917 0)
(0 0.00215198 0)
(0 0.00233269 0)
(0 0.00258617 0)
(0 0.00252164 0)
(0 0.00225632 0)
(0 0.0024472 0)
(0 0.00271897 0)
(0 0.00264674 0)
(0 0.00236236 0)
(0 0.00256412 0)
(0 0.00285474 0)
(0 0.00277456 0)
(0 0.00307114 0)
(0 0.00299364 0)
(0 0.00268345 0)
(0 0.00290506 0)
(0 0.00322165 0)
(0 0.00313595 0)
(0 0.00280501 0)
(0 0.00303876 0)
(0 0.00337601 0)
(0 0.00328183 0)
(0 0.00362512 0)
(0 0.00353422 0)
(0 0.00317569 0)
(0 0.0034314 0)
(0 0.00379637 0)
(0 0.00369725 0)
(0 0.00331548 0)
(0 0.00358498 0)
(0 0.00397283 0)
(0 0.00386431 0)
(0 0.00425779 0)
(0 0.00415297 0)
(0 0.00374252 0)
(0 0.00403406 0)
(0 0.00444797 0)
(0 0.00433307 0)
(0 0.00390001 0)
(0 0.00420695 0)
(0 0.00464449 0)
(0 0.00452548 0)
(0 0.00406308 0)
(0 0.00438664 0)
(0 0.004856 0)
(0 0.00472153 0)
(0 0.00519624 0)
(0 0.00506659 0)
(0 0.00457047 0)
(0 0.0049206 0)
(0 0.00542176 0)
(0 0.00528165 0)
(0 0.00475712 0)
(0 0.00512448 0)
(0 0.00565351 0)
(0 0.00550264 0)
(0 0.00603415 0)
(0 0.00588898 0)
(0 0.00533548 0)
(0 0.00572674 0)
(0 0.00627325 0)
(0 0.00611663 0)
(0 0.00554505 0)
(0 0.0059519 0)
(0 0.00651886 0)
(0 0.00637376 0)
(0 0.00576382 0)
(0 0.00619382 0)
(0 0.00681022 0)
(0 0.00663519 0)
(0 0.00725324 0)
(0 0.00708488 0)
(0 0.00643889 0)
(0 0.00689602 0)
(0 0.00754357 0)
(0 0.00736245 0)
(0 0.00668652 0)
(0 0.00716215 0)
(0 0.00783771 0)
(0 0.00764666 0)
(0 0.00831913 0)
(0 0.0081381 0)
(0 0.00743646 0)
(0 0.00793758 0)
(0 0.00863656 0)
(0 0.00844479 0)
(0 0.00914145 0)
(0 0.00895698 0)
(0 0.00964962 0)
(0 0.00947263 0)
(0 0.00875168 0)
(0 0.00927653 0)
(0 0.00999003 0)
(0 0.00980434 0)
(0 0.0105087 0)
(0 0.0103317 0)
(0 0.0110257 0)
(0 0.0108567 0)
(0 0.0101359 0)
(0 0.0106698 0)
(0 0.0113811 0)
(0 0.0111997 0)
(0 0.0104619 0)
(0 0.0109974 0)
(0 0.0102304 0)
(0 0.0107738 0)
(0 0.0119074 0)
(0 0.00997419 0)
(0 0.010529 0)
(0 0.0113189 0)
(0 0.0110834 0)
(0 0.0102616 0)
(0 0.0108235 0)
(0 0.00942394 0)
(0 0.0118695 0)
(0 0.00852508 0)
(0 0.00996775 0)
(0 0.0105396 0)
(0 0.00964759 0)
(0 0.0102335 0)
(0 0.0111097 0)
(0 0.0108159 0)
(0 0.0116774 0)
(0 0.0113914 0)
(0 0.0104997 0)
(0 0.0110824 0)
(0 0.0119603 0)
(0 0.0116606 0)
(0 0.0107435 0)
(0 0.0113337 0)
(0 0.00906089 0)
(0 0.0103753 0)
(0 0.0109777 0)
(0 0.0125216 0)
(0 0.0072108 0)
(0 0.0207875 0)
(0 0.000993901 0)
(0 0.0105064 0)
(0 0.0110378 0)
(0 0.0111755 0)
(0 0.017114 0)
(0 0.00505893 0)
(0 0.00525971 0)
(0 0.00997744 0)
(0 0.00515986 0)
(0 0.00536835 0)
(0 0.00545922 0)
(0 0.00558298 0)
(0 0.00547051 0)
(0 0.00569185 0)
(0 0.00580527 0)
(0 0.005919 0)
(0 0.00579496 0)
(0 0.00602669 0)
(0 0.00614995 0)
(0 0.00626285 0)
(0 0.00638491 0)
(0 0.00650327 0)
(0 0.00637224 0)
(0 0.00661802 0)
(0 0.00674778 0)
(0 0.00686812 0)
(0 0.00672883 0)
(0 0.00698477 0)
(0 0.00712294 0)
(0 0.00724545 0)
(0 0.0073818 0)
(0 0.0075103 0)
(0 0.00736431 0)
(0 0.00763511 0)
(0 0.00777955 0)
(0 0.00790985 0)
(0 0.00775535 0)
(0 0.0080361 0)
(0 0.0081894 0)
(0 0.00832147 0)
(0 0.0081579 0)
(0 0.00844937 0)
(0 0.00861079 0)
(0 0.0087448 0)
(0 0.00890355 0)
(0 0.009044 0)
(0 0.00887467 0)
(0 0.00918031 0)
(0 0.009347 0)
(0 0.00948967 0)
(0 0.00965441 0)
(0 0.00980283 0)
(0 0.00962839 0)
(0 0.00994758 0)
(0 0.0101202 0)
(0 0.0102702 0)
(0 0.0100879 0)
(0 0.010416 0)
(0 0.0105962 0)
(0 0.0107476 0)
(0 0.0105568 0)
(0 0.0108947 0)
(0 0.0110815 0)
(0 0.0112351 0)
(0 0.011417 0)
(0 0.0115773 0)
(0 0.0113838 0)
(0 0.0117322 0)
(0 0.0119212 0)
(0 0.0120823 0)
(0 0.011881 0)
(0 0.0122372 0)
(0 0.012433 0)
(0 0.0125934 0)
(0 0.0127766 0)
(0 0.0129452 0)
(0 0.0127486 0)
(0 0.0131137 0)
(0 0.0133251 0)
(0 0.0134822 0)
(0 0.0132686 0)
(0 0.0136387 0)
(0 0.0138476 0)
(0 0.0140081 0)
(0 0.0142125 0)
(0 0.0143775 0)
(0 0.0141654 0)
(0 0.0145406 0)
(0 0.0147455 0)
(0 0.0149143 0)
(0 0.0151115 0)
(0 0.015285 0)
(0 0.0143192 0)
(0 0.0154741 0)
(0 0.0156516 0)
(0 0.0154543 0)
(0 0.0158231 0)
(0 0.0160142 0)
(0 0.0161878 0)
(0 0.0159863 0)
(0 0.0163543 0)
(0 0.0165489 0)
(0 0.0167185 0)
(0 0.0252957 0)
(0 0.0252698 0)
(0 0.0253182 0)
(0 0.0251913 0)
(0 0.0252416 0)
(0 0.0251598 0)
(0 0.0252093 0)
(0 0.0252878 0)
(0 0.0252551 0)
(0 0.0253353 0)
(0 0.0252941 0)
(0 0.0252157 0)
(0 0.0252548 0)
(0 0.025328 0)
(0 0.0252919 0)
(0 0.0253594 0)
(0 0.0253263 0)
(0 0.025389 0)
(0 0.0253537 0)
(0 0.0253078 0)
(0 0.00115807 0)
(0 0.0011807 0)
(0 0.0195067 0)
(0 0.0152911 0)
(0 0.0120801 0)
(0 0.00399429 0)
(0 0.00869973 0)
(0 0.00485604 0)
(0 0.0161414 0)
(0 0.0251685 0)
(0 0.00935673 0)
(0 0.00980527 0)
(0 0.0115246 0)
(0 0.0125299 0)
(0 0.0105259 0)
(0 0.0169056 0)
(0 0.017078 0)
(0 0.0192574 0)
(0 0.0195855 0)
(0 0.0197218 0)
(0 0.0200297 0)
(0 0.0201542 0)
(0 0.020443 0)
(0 0.0205585 0)
(0 0.0208317 0)
(0 0.0209354 0)
(0 0.0211912 0)
(0 0.0212747 0)
(0 0.0210978 0)
(0 0.0215243 0)
(0 0.0215907 0)
(0 0.0218332 0)
(0 0.0218896 0)
(0 0.0216467 0)
(0 0.0219315 0)
(0 0.0216938 0)
(0 0.0219649 0)
(0 0.0217305 0)
(0 0.0219988 0)
(0 0.0217565 0)
(0 0.0220133 0)
(0 0.0217732 0)
(0 0.0220224 0)
(0 0.0217823 0)
(0 0.022025 0)
(0 0.0217833 0)
(0 0.022023 0)
(0 0.0217782 0)
(0 0.0220241 0)
(0 0.0217684 0)
(0 0.0220041 0)
(0 0.0217449 0)
(0 0.0219719 0)
(0 0.0217102 0)
(0 0.0219307 0)
(0 0.0216674 0)
(0 0.0218816 0)
(0 0.0216161 0)
(0 0.0218282 0)
(0 0.02216 0)
(0 0.0222651 0)
(0 0.0222699 0)
(0 0.0215557 0)
(0 0.0217649 0)
(0 0.0221861 0)
(0 0.0220657 0)
(0 0.0219597 0)
(0 0.0215097 0)
(0 0.021488 0)
(0 0.0215076 0)
(0 0.0222173 0)
(0 0.0221312 0)
(0 0.0212753 0)
(0 0.0212037 0)
(0 0.0223768 0)
(0 0.0222921 0)
(0 0.0220412 0)
(0 0.0209818 0)
(0 0.0209086 0)
(0 0.0221982 0)
(0 0.0219454 0)
(0 0.0214655 0)
(0 0.0047537 0)
(0 0.00809864 0)
(0 0.0198839 0)
(0 0.0189819 0)
(0 0.0224422 0)
(0 0.022343 0)
(0 0.0254231 0)
(0 0.0010458 0)
(0 0.00106676 0)
(0 0.00102349 0)
(0 0.00262378 0)
(0 0.025368 0)
(0 0.0253878 0)
(0 0.00993667 0)
(0 0.0225373 0)
(0 0.00891707 0)
(0 0.0206888 0)
(0 0.00142379 0)
(0 0.0172578 0)
(0 0.0170765 0)
(0 0.0174316 0)
(0 0.0172433 0)
(0 0.00510926 0)
(0 0.020677 0)
(0 0.0207417 0)
(0 0.0206044 0)
(0 0.0208294 0)
(0 0.0119811 0)
(0 0.0129468 0)
(0 0.00769123 0)
(0 0.0175987 0)
(0 0.017402 0)
(0 0.00827355 0)
(0 0.000931467 0)
(0 0.000951001 0)
(0 0.00438707 0)
(0 0.0224491 0)
(0 0.0225804 0)
(0 0.00953815 0)
(0 0.00844274 0)
(0 0.00707672 0)
(0 0.0254338 0)
(0 0.0254477 0)
(0 0.00210435 0)
(0 0.00205361 0)
(0 0.0224753 0)
(0 0.0205233 0)
(0 0.0207422 0)
(0 0.0204274 0)
(0 0.0204821 0)
(0 0.0210626 0)
(0 0.0124044 0)
(0 0.0133353 0)
(0 0.0230587 0)
(0 0.0232604 0)
(0 0.0231048 0)
(0 0.0233015 0)
(0 0.0231365 0)
(0 0.0233347 0)
(0 0.0231654 0)
(0 0.0233613 0)
(0 0.0231896 0)
(0 0.0233815 0)
(0 0.0235463 0)
(0 0.0235613 0)
(0 0.0233963 0)
(0 0.0235705 0)
(0 0.0234064 0)
(0 0.0235736 0)
(0 0.0234085 0)
(0 0.0235719 0)
(0 0.0234039 0)
(0 0.0235659 0)
(0 0.0233977 0)
(0 0.0235506 0)
(0 0.0233788 0)
(0 0.0235269 0)
(0 0.023355 0)
(0 0.0235003 0)
(0 0.0233268 0)
(0 0.0234696 0)
(0 0.0232841 0)
(0 0.0234296 0)
(0 0.017605 0)
(0 0.00266196 0)
(0 0.00276983 0)
(0 0.000815145 0)
(0 0.000833608 0)
(0 0.0232359 0)
(0 0.0233796 0)
(0 0.0254038 0)
(0 0.0254607 0)
(0 0.0138545 0)
(0 0.0142044 0)
(0 0.0136934 0)
(0 0.00903043 0)
(0 0.00793443 0)
(0 0.0232291 0)
(0 0.0237331 0)
(0 0.0254871 0)
(0 0.0254769 0)
(0 0.0177597 0)
(0 0.0175534 0)
(0 0.0171875 0)
(0 0.0131738 0)
(0 0.023466 0)
(0 0.0217631 0)
(0 0.0185463 0)
(0 0.00662113 0)
(0 0.0234507 0)
(0 0.0247134 0)
(0 0.0201577 0)
(0 0.0202032 0)
(0 0.0226777 0)
(0 0.0228077 0)
(0 0.022895 0)
(0 0.0179488 0)
(0 0.0127877 0)
(0 0.0133285 0)
(0 0.0135628 0)
(0 0.0140831 0)
(0 0.0138595 0)
(0 0.0142813 0)
(0 0.0145941 0)
(0 0.0143729 0)
(0 0.01509 0)
(0 0.0148625 0)
(0 0.00280703 0)
(0 0.00291736 0)
(0 0.00269528 0)
(0 0.0156458 0)
(0 0.0154523 0)
(0 0.0157999 0)
(0 0.0155963 0)
(0 0.0152523 0)
(0 0.0159381 0)
(0 0.0116844 0)
(0 0.0118081 0)
(0 0.0123079 0)
(0 0.0124052 0)
(0 0.0128968 0)
(0 0.0129706 0)
(0 0.0134515 0)
(0 0.0124832 0)
(0 0.0133877 0)
(0 0.0139313 0)
(0 0.013876 0)
(0 0.0144081 0)
(0 0.0143575 0)
(0 0.0148771 0)
(0 0.0148311 0)
(0 0.0142939 0)
(0 0.014771 0)
(0 0.0142125 0)
(0 0.014695 0)
(0 0.0152416 0)
(0 0.015171 0)
(0 0.0145959 0)
(0 0.0150859 0)
(0 0.0144931 0)
(0 0.0149847 0)
(0 0.014382 0)
(0 0.0120233 0)
(0 0.0246924 0)
(0 0.0106921 0)
(0 0.0246116 0)
(0 0.00555167 0)
(0 0.00848756 0)
(0 0.00900053 0)
(0 0.0152742 0)
(0 0.00740418 0)
(0 0.00784521 0)
(0 0.00797729 0)
(0 0.0084132 0)
(0 0.00852278 0)
(0 0.00895909 0)
(0 0.00616325 0)
(0 0.00457652 0)
(0 0.0134149 0)
(0 0.0188692 0)
(0 0.00530907 0)
(0 0.00683556 0)
(0 0.00654344 0)
(0 0.00664602 0)
(0 0.00702194 0)
(0 0.00390217 0)
(0 0.01405 0)
(0 0.00589357 0)
(0 0.0251232 0)
(0 0.0250713 0)
(0 0.0250308 0)
(0 0.0249767 0)
(0 0.00565292 0)
(0 0.00574031 0)
(0 0.00608548 0)
(0 0.0112526 0)
(0 0.0115826 0)
(0 0.0114073 0)
(0 0.0117318 0)
(0 0.0115456 0)
(0 0.011865 0)
(0 0.0120576 0)
(0 0.0121852 0)
(0 0.0123843 0)
(0 0.0043494 0)
(0 0.00463931 0)
(0 0.00471404 0)
(0 0.0050065 0)
(0 0.00318596 0)
(0 0.00875922 0)
(0 0.00904908 0)
(0 0.00889389 0)
(0 0.0091797 0)
(0 0.00901351 0)
(0 0.00929207 0)
(0 0.00725006 0)
(0 0.00750662 0)
(0 0.00736571 0)
(0 0.00761959 0)
(0 0.00746956 0)
(0 0.00626292 0)
(0 0.0064964 0)
(0 0.00636238 0)
(0 0.00659937 0)
(0 0.00370439 0)
(0 0.00395815 0)
(0 0.0040203 0)
(0 0.00427653 0)
(0 0.00313826 0)
(0 0.0243744 0)
(0 0.00250493 0)
(0 0.00146061 0)
(0 0.00269329 0)
(0 0.00336002 0)
(0 0.00341373 0)
(0 0.00364035 0)
(0 0.00268755 0)
(0 0.00272531 0)
(0 0.00291335 0)
(0 0.00294106 0)
(0 0.00827498 0)
(0 0.00121291 0)
(0 0.00211097 0)
(0 0.00226736 0)
(0 0.00228781 0)
(0 0.00244869 0)
(0 0.00246031 0)
(0 0.00262677 0)
(0 0.00263084 0)
(0 0.00246571 0)
(0 0.00262644 0)
(0 0.00246497 0)
(0 0.00261715 0)
(0 0.00245805 0)
(0 0.00226674 0)
(0 0.0141087 0)
(0 0.00181305 0)
(0 0.00298206 0)
(0 0.00370787 0)
(0 0.00328438 0)
(0 0.00645572 0)
(0 0.00158203 0)
(0 0.00155708 0)
(0 0.0236569 0)
(0 0.00815504 0)
(0 0.00420159 0)
(0 0.00440514 0)
(0 0.00434644 0)
(0 0.00095222 0)
(0 0.000869015 0)
(0 0.000829856 0)
(0 0.000745582 0)
(0 0.000709221 0)
(0 0.00078125 0)
(0 0.000656566 0)
(0 0.00068892 0)
(0 0.0150443 0)
(0 0.0172611 0)
(0 0.0133276 0)
(0 0.00111748 0)
(0 0.00412491 0)
(0 0.00165499 0)
(0 0.00157308 0)
(0 0.00142158 0)
(0 0.00132904 0)
(0 0.000789854 0)
(0 0.000672327 0)
(0 0.000749087 0)
(0 0.000634895 0)
(0 0.000707634 0)
(0 0.000597004 0)
(0 0.000665596 0)
(0 0.000558752 0)
(0 0.000623104 0)
(0 0.000520365 0)
(0 0.000580301 0)
(0 0.000481931 0)
(0 0.000537312 0)
(0 0.000443575 0)
(0 0.000494272 0)
(0 0.000586663 0)
(0 0.000538741 0)
(0 0.000451319 0)
(0 0.0004908 0)
(0 0.000408595 0)
(0 0.000443022 0)
(0 0.000523911 0)
(0 0.000470953 0)
(0 0.000550601 0)
(0 0.000492331 0)
(0 0.000418205 0)
(0 0.0004342 0)
(0 0.000507126 0)
(0 0.000365754 0)
(0 0.000443496 0)
(0 0.000515259 0)
(0 0.000446016 0)
(0 0.000516656 0)
(0 0.000441691 0)
(0 0.000511243 0)
(0 0.000376927 0)
(0 0.00059203 0)
(0 0.00058568 0)
(0 0.000498944 0)
(0 0.000572477 0)
(0 0.000479643 0)
(0 0.000552283 0)
(0 0.000651026 0)
(0 0.00063003 0)
(0 0.000524847 0)
(0 0.000602094 0)
(0 0.000584536 0)
(0 0.00060885 0)
(0 0.000672133 0)
(0 0.000366255 0)
(0 0.0033153 0)
(0 0.00138597 0)
(0 0.000795386 0)
(0 0.00134422 0)
(0 0.00122254 0)
(0 0.00117255 0)
(0 0.0010565 0)
(0 0.000998355 0)
(0 0.000888319 0)
(0 0.00566131 0)
(0 0.00575049 0)
(0 0.00551786 0)
(0 0.00559755 0)
(0 0.00536494 0)
(0 0.00583538 0)
(0 0.00567248 0)
(0 0.00591532 0)
(0 0.00117933 0)
(0 0.00236533 0)
(0 0.00376788 0)
(0 0.00207185 0)
(0 0.00196321 0)
(0 0.00177569 0)
(0 0.00165364 0)
(0 0.00266953 0)
(0 0.0006818 0)
(0 0.00676025 0)
(0 0.00110364 0)
(0 0.00246641 0)
(0 0.00234005 0)
(0 0.00465095 0)
(0 0.00292331 0)
(0 0.00277576 0)
(0 0.00252095 0)
(0 0.0023552 0)
(0 0.0079812 0)
(0 0.0080873 0)
(0 0.00779145 0)
(0 0.00788599 0)
(0 0.0075887 0)
(0 0.00835678 0)
(0 0.00261358 0)
(0 0.00820593 0)
(0 0.00623435 0)
(0 0.0103504 0)
(0 0.0104732 0)
(0 0.0101276 0)
(0 0.0102374 0)
(0 0.00988838 0)
(0 0.00998284 0)
(0 0.0103411 0)
(0 0.00873569 0)
(0 0.00884552 0)
(0 0.00358551 0)
(0 0.00340231 0)
(0 0.0030932 0)
(0 0.00288754 0)
(0 0.0144975 0)
(0 0.0103015 0)
(0 0.00421469 0)
(0 0.00400906 0)
(0 0.0130407 0)
(0 0.0131735 0)
(0 0.0127942 0)
(0 0.0129138 0)
(0 0.0125313 0)
(0 0.012641 0)
(0 0.0130265 0)
(0 0.00951391 0)
(0 0.00654909 0)
(0 0.00107477 0)
(0 0.0021089 0)
(0 0.00156197 0)
(0 0.0140199 0)
(0 0.00512613 0)
(0 0.00488303 0)
(0 0.0044624 0)
(0 0.00418787 0)
(0 0.00377371 0)
(0 0.0052903 0)
(0 0.0112281 0)
(0 0.0236445 0)
(0 0.0252615 0)
(0 0.00598158 0)
(0 0.00571759 0)
(0 0.00827099 0)
(0 0.0015078 0)
(0 0.00120156 0)
(0 0.0137158 0)
(0 0.0139498 0)
(0 0.0113553 0)
(0 0.0110444 0)
(0 0.022236 0)
(0 0.022363 0)
(0 0.0221211 0)
(0 0.0157663 0)
(0 0.0159099 0)
(0 0.0155266 0)
(0 0.0156587 0)
(0 0.015267 0)
(0 0.0237348 0)
(0 0.0173287 0)
(0 0.00212024 0)
(0 0.00197828 0)
(0 0.00148141 0)
(0 0.0106751 0)
(0 0.00750055 0)
(0 0.0120642 0)
(0 0.0249323 0)
(0 0.0248757 0)
(0 0.0116103 0)
(0 0.0115906 0)
(0 0.0111308 0)
(0 0.0139119 0)
(0 0.0198752 0)
(0 0.0184244 0)
(0 0.000366835 0)
(0 0.000308082 0)
(0 0.00932455 0)
(0 0.00869645 0)
(0 0.00802813 0)
(0 0.00978573 0)
(0 0.00365414 0)
(0 0.0034222 0)
(0 0.00307532 0)
(0 0.00467607 0)
(0 0.00405503 0)
(0 0.000970822 0)
(0 0.000935172 0)
(0 0.0136475 0)
(0 0.0138642 0)
(0 0.0141813 0)
(0 0.0244028 0)
(0 0.0226807 0)
(0 0.00524601 0)
(0 0.00494695 0)
(0 0.00448129 0)
(0 0.0169141 0)
(0 0.0202895 0)
(0 0.00736252 0)
(0 0.0232247 0)
(0 0.0228546 0)
(0 0.0194537 0)
(0 0.0169549 0)
(0 0.00599565 0)
(0 0.0064664 0)
(0 0.023852 0)
(0 0.0174379 0)
(0 0.0054563 0)
(0 0.0091102 0)
(0 0.0173259 0)
(0 0.00798474 0)
(0 0.000837137 0)
(0 0.000794137 0)
(0 0.000702594 0)
(0 0.0214349 0)
(0 0.00118452 0)
(0 0.00127769 0)
(0 0.014708 0)
(0 0.0063267 0)
(0 0.00729266 0)
(0 0.0069535 0)
(0 0.0243973 0)
(0 0.0153859 0)
(0 0.0229425 0)
(0 0.00176638 0)
(0 0.00258713 0)
(0 0.0204333 0)
(0 0.0206443 0)
(0 0.023719 0)
(0 0.000652015 0)
(0 0.00767316 0)
(0 0.00797538 0)
(0 0.0110913 0)
(0 0.0115937 0)
(0 0.0225975 0)
(0 0.00147397 0)
(0 0.00724534 0)
(0 0.00613019 0)
(0 0.0144483 0)
(0 0.00506128 0)
(0 0.0033727 0)
(0 0.0207193 0)
(0 0.0148662 0)
(0 0.0142426 0)
(0 0.00432152 0)
(0 0.00852759 0)
(0 0.00738662 0)
(0 0.0107567 0)
(0 0.0198498 0)
(0 0.0153394 0)
(0 0.0127459 0)
(0 0.0131351 0)
(0 0.0036797 0)
(0 0.00345799 0)
(0 0.0231454 0)
(0 0.0150458 0)
(0 0.000590442 0)
(0 0.00513765 0)
(0 0.00454096 0)
(0 0.0181124 0)
(0 0.0175779 0)
(0 0.018293 0)
(0 0.00736457 0)
(0 0.00804402 0)
(0 0.0030056 0)
(0 0.00284205 0)
(0 0.0231823 0)
(0 0.0233224 0)
(0 0.0106329 0)
(0 0.00574255 0)
(0 0.00599019 0)
(0 0.0242747 0)
(0 0.0248704 0)
(0 0.0248512 0)
(0 0.0231796 0)
(0 0.0140763 0)
(0 0.0137633 0)
(0 0.000488903 0)
(0 0.00122699 0)
(0 0.000367463 0)
(0 0.00413491 0)
(0 0.00462305 0)
(0 0.00954193 0)
(0 0.0094472 0)
(0 0.0021755 0)
(0 0.0123781 0)
(0 0.000677971 0)
(0 0.000658122 0)
(0 0.00104741 0)
(0 0.00114108 0)
(0 0.0235137 0)
(0 0.0234526 0)
(0 0.0153675 0)
(0 0.0153865 0)
(0 0.014987 0)
(0 0.0148725 0)
(0 0.014585 0)
(0 0.0101535 0)
(0 0.0222665 0)
(0 0.0111611 0)
(0 0.0108556 0)
(0 0.0172101 0)
(0 0.0125063 0)
(0 0.000822227 0)
(0 0.000932169 0)
(0 0.0161451 0)
(0 0.0162768 0)
(0 0.00729573 0)
(0 0.0072147 0)
(0 0.0090721 0)
(0 0.000489385 0)
(0 0.00857422 0)
(0 0.0177007 0)
(0 0.00550047 0)
(0 0.00287605 0)
(0 0.00302611 0)
(0 0.0144761 0)
(0 0.0141817 0)
(0 0.0100268 0)
(0 0.0116627 0)
(0 0.0117925 0)
(0 0.00867478 0)
(0 0.0139007 0)
(0 0.0173928 0)
(0 0.000734582 0)
(0 0.00801811 0)
(0 0.00678908 0)
(0 0.000562835 0)
(0 0.000592116 0)
(0 0.00235872 0)
(0 0.00908882 0)
(0 0.00666793 0)
(0 0.013498 0)
(0 0.00346774 0)
(0 0.0222442 0)
(0 0.0219989 0)
(0 0.0218703 0)
(0 0.0217454 0)
(0 0.0216108 0)
(0 0.0214826 0)
(0 0.0213406 0)
(0 0.0212099 0)
(0 0.0210589 0)
(0 0.0102382 0)
(0 0.00772189 0)
(0 0.000386878 0)
(0 0.0170844 0)
(0 0.0167016 0)
(0 0.0209455 0)
(0 0.0100689 0)
(0 0.0104383 0)
(0 0.000566873 0)
(0 0.000718998 0)
(0 0.00537547 0)
(0 0.00586227 0)
(0 0.0241495 0)
(0 0.0230299 0)
(0 0.00448329 0)
(0 0.00281626 0)
(0 0.0230166 0)
(0 0.00376336 0)
(0 0.00427396 0)
(0 0.00368652 0)
(0 0.0032781 0)
(0 0.0151698 0)
(0 0.00160874 0)
(0 0.00756192 0)
(0 0.00247912 0)
(0 0.00261549 0)
(0 0.00279694 0)
(0 0.0105646 0)
(0 0.0232599 0)
(0 0.0233858 0)