/*--------------------------------*- C++ -*----------------------------------*\
| =========                 |                                                 |
| \\      /  F ield         | OpenFOAM: The Open Source CFD Toolbox           |
|  \\    /   O peration     | Version:  v2012                                 |
|   \\  /    A nd           | Website:  www.openfoam.com                      |
|    \\/     M anipulation  |                                                 |
\*---------------------------------------------------------------------------*/
FoamFile
{
    version     2.0;
    format      ascii;
    class       surfaceScalarField;
    location    "500";
    object      meshPhi;
}
// * * * * * * * * * * * * * * * * * * * * * * * * * * * * * * * * * * * * * //

dimensions      [0 3 -1 0 0 0 0];
oriented        oriented;


internalField   nonuniform List<scalar> 
27907
(
6.05988e-05
0.000142302
-0.000202913
0.000124971
-0.000166425
4.14524e-05
-0.000185964
-8.75692e-05
0.000235093
-9.77202e-05
0.000185095
-8.7377e-05
-0.000102086
0.000156866
-5.47799e-05
7.70556e-05
-0.000153033
7.5977e-05
0.000101444
-0.00011326
1.18162e-05
0.000534284
1.42642e-05
-0.000566356
5.42513e-05
0.000128623
-0.000182883
0.000217072
-0.000377605
0.000160301
0.000561417
-0.0002865
-0.000275703
-8.02751e-05
-6.19479e-05
0.000142223
-8.79867e-05
3.89993e-05
2.74109e-05
-0.000164081
-6.32997e-05
0.000227356
-6.97289e-05
-0.000405531
0.000474124
8.64702e-05
-0.000179403
9.29318e-05
-0.000368614
0.000272976
9.54928e-05
-0.000705536
0.000201951
0.000493129
0.000609503
-0.000581249
-3.10345e-05
-0.000107522
-0.000236648
0.000344018
6.72902e-05
-0.000112677
4.53867e-05
-5.54358e-05
-4.8334e-05
0.000102185
-9.21328e-05
0.000149522
-5.73899e-05
0.000105288
3.99596e-05
-0.000145251
0.000202948
-0.000115933
-8.70182e-05
-2.40867e-05
0.000538642
0.000164034
-9.23057e-05
-7.17287e-05
-0.000118786
0.000154702
-3.59161e-05
-0.000131122
0.000169682
-3.85605e-05
0.000131859
-1.40598e-05
-0.0001178
0.000195651
-0.000315001
0.000119282
-0.000118598
4.87198e-05
6.98779e-05
-2.03469e-05
-1.16025e-05
2.09152e-05
1.80022e-05
-0.000485807
0.000466479
-9.7595e-05
0.000247543
-0.000149973
-8.01345e-05
-0.000271677
0.000350804
1.74251e-06
2.74504e-05
-3.71337e-05
-0.00012202
0.000603436
-0.000483656
-0.000575056
2.34966e-05
0.000549783
-0.000382047
0.000145719
0.00023619
-0.000274291
-0.00037823
0.000650208
-0.000267376
-0.000195556
0.000462734
0.00068025
-0.00016733
-0.000520708
-0.00038707
-8.38808e-06
0.000395222
0.000138122
7.99899e-06
-0.000146122
3.24585e-05
0.000208163
-0.000266863
2.58528e-05
-0.000117986
-0.000360946
-9.82194e-05
0.000458578
-0.000210245
0.000427052
-0.000587891
2.722e-05
0.000551261
0.000158217
5.96232e-05
-0.000217857
-0.000114052
-4.02816e-05
0.000154333
0.000169422
-0.000423354
0.000233757
0.000193814
0.000366746
-0.000120705
1.91819e-06
-0.000175738
8.76604e-05
8.80752e-05
3.43777e-05
-4.0453e-05
0.000134462
7.85445e-05
-0.000491718
0.00060187
-0.000111481
-2.79869e-05
0.000231479
-0.000203515
0.000262554
-8.25951e-05
-0.000179975
-2.0781e-05
0.000122225
0.000189965
3.85826e-05
-0.00022857
-0.00024561
0.000542383
-0.000297196
-0.000188355
0.000339937
-7.04832e-05
-0.000499206
0.0005689
-0.000354558
-2.15918e-05
0.000376007
9.31049e-06
-3.88634e-05
-0.000676651
8.66967e-05
0.000586968
-0.00012709
1.30378e-05
4.14656e-05
7.35619e-05
-0.000115028
-0.000545276
6.16765e-05
0.000483132
-3.37121e-05
-0.000563179
-8.93101e-05
0.000123948
-3.46384e-05
-0.000657982
6.32578e-05
0.000584068
0.000465356
-0.000649618
0.000182714
-4.46052e-05
0.000219645
-0.000175049
0.000131886
-0.00012489
-6.99703e-06
-0.000165781
0.000248114
-8.23448e-05
3.85651e-05
8.48612e-05
-0.000123426
-6.60492e-05
-7.21193e-05
0.000138168
8.82711e-05
5.76803e-05
-0.000145953
0.000146896
-0.0001749
-0.000172164
8.25986e-05
8.95651e-05
0.000143234
-0.000187848
-0.000290213
-0.000153704
0.000443635
-7.0274e-05
-7.38737e-05
0.000144147
-6.32116e-05
0.000253154
6.88418e-05
4.27086e-05
-0.00011155
0.000665976
-0.000202316
-8.71271e-05
-8.50374e-05
-0.000624316
0.000131195
-4.3958e-05
-0.000108311
0.000152268
0.000188915
-0.000456469
-0.000106373
-4.18585e-05
0.000148231
7.29483e-05
-0.000116907
-7.03759e-05
0.0002136
-0.000192982
-0.00047432
0.000750412
-0.000234617
-0.000518386
0.000120411
-5.31212e-05
0.000162219
-0.000344279
0.000181911
0.000168876
-5.92834e-05
-0.000109593
-0.000201921
0.000256368
-5.44848e-05
-0.00030193
6.99181e-05
0.000231943
-7.25243e-05
-4.60735e-05
-2.40247e-05
0.000155883
-7.72159e-05
-8.46728e-05
0.000161887
-2.82485e-05
0.000160134
-0.000493851
0.000624739
-0.000132066
0.000516368
-2.4808e-05
-0.000491691
0.000142168
-6.92198e-05
2.03524e-05
-0.000571673
0.000516717
3.69514e-05
-0.000647848
0.00012271
0.000523445
5.81182e-05
8.28724e-05
-0.000140992
9.29212e-05
-0.000103435
1.0514e-05
-7.80613e-05
-4.72306e-05
0.000125292
-0.00048129
0.000410447
-9.9874e-05
0.000151433
-5.15593e-05
6.74633e-06
-0.00011312
-0.000419202
0.000301775
0.000117255
0.000105675
0.000338938
-0.000445265
0.000151406
-1.37817e-05
-0.000137626
-0.000142974
0.000115757
2.72171e-05
0.000176282
-9.68003e-05
-7.94846e-05
-4.21078e-05
0.000180227
-4.65707e-05
0.000171539
0.000194248
-2.9442e-05
-0.00016481
1.83576e-05
-0.000126669
2.28199e-05
-3.57807e-06
-4.56073e-05
-0.000251821
-0.000116926
9.37838e-05
7.02488e-05
-6.83226e-05
-4.43543e-05
8.00822e-05
-0.000246968
0.000166855
1.1657e-05
9.58709e-05
-7.09717e-05
-0.000318076
0.00038875
1.38585e-05
0.000205777
-0.000202484
-0.000179689
7.26087e-05
0.00067422
0.00026491
-0.000204703
-6.02148e-05
3.46498e-07
-0.000166137
0.000193402
-0.000143727
-4.96786e-05
0.000370111
0.00020797
-0.000579753
-6.64543e-05
-0.000109285
0.000222251
-0.000498425
-0.000532799
-7.99793e-06
0.000538366
8.50532e-05
2.76111e-05
-0.000112664
-8.64009e-05
0.000145334
-5.89335e-05
0.000301937
-0.000106355
0.000170789
-2.65777e-05
-0.000144213
-6.75834e-05
0.000155853
0.000139095
-0.000160316
2.12174e-05
-0.000218959
0.00043721
-0.00021854
8.19355e-05
4.58724e-06
-9.11707e-05
4.53147e-05
7.52351e-05
-0.00012055
-0.000465435
0.000310557
0.000154527
-0.00012772
2.78456e-05
7.02985e-05
-0.000431788
0.000705831
-0.000386834
-0.000319948
-2.66611e-07
-2.80915e-05
2.70548e-05
0.00066268
-0.000157896
-0.000511257
9.1608e-05
9.42135e-05
-0.000185837
6.50287e-05
7.1752e-05
-0.000136781
0.000277536
0.000427242
6.35063e-05
0.000199031
-1.85893e-05
-0.000112534
0.000620861
-0.000618988
-4.52847e-06
-5.97629e-05
0.000152613
-9.28513e-05
-0.000108991
-7.96574e-05
0.000188641
-0.00014982
7.5025e-05
7.47946e-05
-4.85751e-05
-7.4667e-05
0.000123242
-0.00032591
-0.000388136
0.000140266
-7.52381e-05
-8.57108e-05
-5.15878e-05
0.000137298
0.000194146
-0.000102553
0.000186178
-8.08929e-05
5.94435e-05
-0.000158792
9.93476e-05
0.000170361
-0.000416297
9.62785e-05
0.000168621
2.00366e-06
-0.000527894
0.000524037
-0.000526773
6.61705e-05
0.000442686
6.49521e-05
4.47105e-05
0.000145873
-6.78057e-06
0.000751275
-0.000241886
-0.00051612
0.00050519
-0.00013282
-0.000372892
-0.000218396
0.000153802
6.45883e-05
-0.000119038
-0.000466728
0.000583635
-4.22133e-05
0.000135134
-0.000627071
2.87776e-05
0.000588376
-5.48812e-05
0.000592889
-0.000539738
0.000220531
-0.000140473
-4.75209e-06
0.000198995
0.000544274
-0.000207461
-0.000337779
0.000211358
9.05043e-05
0.000328138
-0.00029452
-3.36887e-05
0.00015857
-0.000221803
0.000217537
-0.000325203
8.45125e-05
-0.000193511
-4.50215e-05
0.000280214
-0.000245079
0.000631963
3.89849e-05
-0.000239527
0.000105553
0.000133967
-0.000432413
0.000502068
0.000236287
8.55116e-05
-0.000321929
0.000246402
-1.64166e-05
-0.000230018
-7.45832e-05
-3.3027e-05
6.69517e-05
0.000261096
0.000242693
1.35044e-05
-0.000256233
-4.17267e-07
7.89651e-05
4.28628e-05
-0.000110936
6.8073e-05
0.000171824
-0.000382308
-0.000687359
0.000198904
0.000478617
-0.000227956
-7.40327e-05
-0.000628141
0.000428883
0.000198254
0.000164231
9.68853e-05
-0.000261214
-0.000151501
-0.0001017
0.000253187
0.000170834
-8.31428e-05
-8.76912e-05
-0.000194185
4.26737e-05
-0.000178189
0.000100744
7.74436e-05
0.000700251
-0.000322808
-0.000390337
0.00014878
-7.17246e-05
-0.000495124
-2.50331e-05
-0.000469712
-2.38348e-05
-0.00015568
0.000179505
-4.24486e-05
0.000127502
0.000198201
-0.000128583
-6.96244e-05
-1.7874e-05
0.000260528
-0.000317363
-1.38766e-05
0.000331173
0.000167807
9.18168e-05
-0.000259667
0.000360936
0.000220584
-0.000587612
0.00029133
-6.54734e-05
-0.00022589
0.000436539
-0.000507669
0.000251321
-9.27769e-05
0.000120875
2.24794e-06
-0.000123123
0.000110053
-0.000180437
3.53453e-05
-1.51285e-05
0.000527118
-0.000648428
-0.000330575
0.000684706
-7.91547e-06
-0.000262502
0.000244957
0.000168314
-1.69091e-05
7.68979e-05
0.000204365
-0.000281387
0.000619812
-0.000604089
-2.17049e-05
0.000199361
-0.000116542
-8.28221e-05
-0.000147702
7.04839e-05
0.000257131
-0.000472365
0.000214323
1.00396e-05
0.000160748
-0.000116756
5.24075e-05
6.43489e-05
-7.26787e-05
0.000182723
0.000308067
-0.000388909
-5.0557e-05
-8.75247e-05
0.000138081
0.000196011
-0.000360577
0.000164503
-0.000313001
0.00042233
-0.000110451
8.61918e-05
-0.000145956
-0.000352048
6.16013e-05
-0.00019708
0.000393023
0.000602389
-0.000190286
-0.000413518
-0.000389123
0.000347023
4.198e-05
4.74945e-05
-0.000173712
0.000126212
-5.48096e-05
-0.000123379
-0.000144625
0.000308749
-0.000129236
-0.000107538
0.00023676
0.000659366
-0.00064869
0.000101445
-0.000294131
0.00019263
-0.000488576
-0.000135957
0.000620451
-4.06737e-05
0.000287036
-0.000233837
0.000405403
0.000124305
-0.000148148
9.6051e-05
-0.000110755
1.47037e-05
0.00018399
0.000500076
0.000607416
-0.000162466
-0.000446198
3.93277e-05
0.000115561
-0.000154892
0.000451958
0.000154152
0.00034306
0.000161516
0.000274874
-0.000144836
0.000167745
-2.29103e-05
2.41513e-05
-0.000102213
-0.000634248
0.00064555
-1.31126e-05
-0.000284171
0.000194724
8.94227e-05
3.74117e-05
-9.49703e-05
5.75585e-05
-9.59882e-05
0.000153667
-0.000189609
-0.000313362
0.000502184
0.000687087
-0.000681586
-1.03877e-05
-1.15528e-05
-0.000272156
0.000283477
-0.000240082
0.000316842
-0.000214812
0.000583291
-8.02212e-05
0.000117633
9.15181e-05
0.000107838
0.000189624
-0.000145595
-4.4033e-05
4.13399e-05
0.000146727
4.29961e-05
-0.000626528
0.000576424
-0.000250932
3.74671e-05
0.000288386
-0.000153792
-0.000134627
8.37846e-05
8.70485e-05
-7.68879e-05
-0.000350816
0.000427612
0.000118863
-0.000183493
-5.11618e-05
0.000234632
0.000410435
-0.000107072
-0.000303612
-0.000116607
4.90693e-05
0.000557526
-3.71647e-05
0.000146597
-0.000109438
-6.72218e-05
-0.000242213
0.000246662
0.000148051
-0.000101935
-4.61161e-05
0.000199292
9.66036e-05
-0.000295961
-0.000540521
-0.000138882
2.05708e-05
-0.000339956
0.000319191
-0.00027966
6.60672e-06
0.000273017
0.000278168
0.000185577
-0.000464974
9.2411e-05
-0.000406679
-9.17521e-05
-2.83932e-05
0.000120145
3.54019e-05
0.000154216
0.000112992
0.000463783
-0.000580526
0.000112225
-2.21805e-06
-0.000110007
-0.000129383
0.000123765
7.44288e-05
0.000591252
7.10163e-05
-0.000665498
-4.25542e-06
0.000107558
3.46388e-05
-0.0001422
0.000546723
-0.000290613
0.000673148
7.01383e-05
0.000712943
-0.00026962
-0.00044629
0.000471466
-4.47947e-05
-0.000426814
0.000108167
-0.000187832
-5.82157e-05
-0.000221474
-0.00030769
0.000295885
0.000390748
-0.000186505
0.000112346
-0.00034915
0.000364441
-0.000143946
0.000568881
8.58186e-05
7.94188e-05
-8.09645e-05
-0.000175546
0.0001461
0.000290692
-0.000168833
-0.000121897
-0.000195193
-8.89939e-05
5.34147e-05
-0.000151136
-0.000374921
0.000297956
0.000200715
0.000342524
2.79482e-05
-5.69591e-06
-5.40232e-05
9.94914e-05
-0.000136661
8.41847e-05
6.38652e-05
0.000275162
-0.000611912
-0.000672021
0.00018241
0.000479148
-0.000332255
0.000600993
0.000311222
-0.000382487
-0.000150767
0.000318524
8.93157e-05
0.000113629
0.000616024
-0.000511262
2.1143e-06
0.000498595
-0.000500908
1.23988e-05
-0.000582026
0.00056098
0.000186456
-9.99871e-05
0.000140164
5.3233e-05
8.04652e-05
-0.000221568
0.000141091
0.000277139
-0.000160629
-0.000116522
0.000183967
0.00030936
-0.000494511
-0.000145378
0.000176428
-3.10543e-05
0.000226383
-0.000165799
-0.000377327
0.000253147
0.000124034
0.000336564
-0.000172951
-0.000163659
7.11573e-05
-7.90193e-05
-4.3247e-05
0.000122266
-7.89613e-05
-0.000139438
0.000300371
-0.000304248
-9.77544e-06
0.000236048
9.82901e-05
-0.000334467
0.000189771
-0.000105828
-8.39451e-05
-7.96653e-06
-0.00013687
-0.000500597
0.000325504
0.000174705
0.000611338
-0.000575347
-0.000112331
0.000280121
-0.000167847
-0.000264419
-0.000374247
0.000636162
-0.000387046
0.000296292
9.05094e-05
0.000119212
-0.00017856
5.93463e-05
5.93012e-05
9.33906e-05
-0.000152693
0.000233392
-1.95609e-05
-0.000213859
-0.000249629
0.000361812
-3.86455e-05
0.000134696
-0.000458695
0.00060241
-0.000144718
-0.00043715
4.12845e-06
-0.000593953
0.000515899
7.58875e-05
4.81077e-05
-0.000624874
-0.000285952
0.000138671
0.000147249
0.00030205
-0.000454261
0.000151683
-1.00089e-05
0.000122234
5.18781e-05
0.000113997
-0.000165879
0.000186236
0.000414723
0.0006158
-0.000506836
-0.000134876
7.21874e-05
6.26882e-05
-3.15459e-05
0.000264906
0.000159327
-0.000105083
-0.000594706
0.000135041
0.000229882
-0.000282659
5.2693e-05
0.000618408
6.36049e-05
-0.000193456
0.000440859
-0.000247575
-0.000151985
0.000490584
0.00058789
-0.000416909
-9.75071e-05
-2.73839e-05
0.000124891
9.86639e-05
-5.58011e-05
-5.00717e-05
-6.41405e-05
0.000114212
7.18932e-05
7.5891e-05
-9.17691e-05
-1.36223e-05
0.000216706
-0.000159341
-5.73753e-05
-0.000147251
7.08248e-05
7.64262e-05
-0.000281088
-0.000108132
-0.000150799
-0.000436387
0.000209898
-0.000156486
-0.000635227
0.000626203
5.10343e-06
1.64198e-05
0.000505938
-0.000524557
-5.71181e-05
-0.00048696
-0.000127261
-0.000158715
0.000543787
-0.000570218
2.53841e-05
6.01831e-05
-0.000447496
0.000144074
0.000133053
0.000166466
-8.2915e-05
-8.35521e-05
0.000101011
0.000607829
-0.000124535
2.24488e-05
-0.000252872
-5.5891e-05
0.00030866
0.000611734
-2.42645e-05
0.000487866
-0.000240205
-0.00024814
-0.000136931
-0.000512401
0.000647948
-0.0004828
8.24562e-05
0.000327741
-0.000166876
-9.05212e-05
0.000257345
0.000181167
0.000183227
-5.57674e-05
-6.09892e-05
-0.000238039
-0.000181277
-0.000169499
-0.000357656
0.000525806
0.000136266
-9.69411e-05
6.00799e-05
8.46164e-05
-0.000144697
-0.000179743
0.000124026
5.57141e-05
7.92895e-05
-0.000127865
0.000259462
-9.31437e-05
-0.000166351
-0.000189501
-0.000345093
0.000533745
0.000471432
0.000101426
3.06829e-05
0.000582273
-0.000542932
-8.60897e-05
-0.000275469
0.000255876
-0.000340093
0.000207622
0.000132347
0.00033989
2.5884e-05
-0.000366004
-0.00014547
0.000344686
-0.00037291
0.000188597
-8.57294e-05
-0.000102871
-0.000219828
0.000369673
-0.000507648
0.000117674
0.000272902
-6.90631e-05
0.000137905
0.000301629
-0.000469722
0.000167542
0.000173145
-0.000113845
-3.85442e-06
5.21821e-06
0.000592551
-0.00012816
8.69667e-05
4.11928e-05
0.000255383
-0.000347254
9.17474e-05
-0.000412485
0.000580191
-0.000169002
-0.000135954
0.000183443
0.000126306
-0.000223925
0.000153069
0.000135288
0.00013504
-0.000116683
-0.00023365
-0.000416931
-0.000186352
0.000499339
-0.000313557
-7.86591e-05
-0.000140561
7.86122e-05
0.000410529
-0.000303184
-0.000107384
0.00013988
9.01337e-05
-0.000230043
7.25892e-05
-0.000236693
6.50552e-05
0.000123536
0.000111314
-6.26051e-05
-4.87086e-05
0.000168155
-0.000566705
2.09704e-05
6.94124e-05
-0.000203075
0.000133646
-2.54187e-05
-0.000624055
-6.83788e-05
-0.00020712
-0.000494709
0.000382395
0.000111499
-1.22477e-05
0.000147288
-7.52078e-05
0.000305001
0.000110733
7.90349e-05
-6.31805e-05
0.000402817
0.000323947
-0.00020059
-0.000123417
-0.000275395
0.00013795
-9.79936e-05
0.000582747
-0.000625917
4.76022e-06
-8.37795e-05
-8.18609e-05
-0.00051406
0.00014677
-4.84138e-06
-0.000141933
-0.000253716
0.000562925
-0.00031282
9.86958e-05
6.16149e-05
-0.000160315
-0.00030073
-8.65512e-05
-1.54752e-05
-0.000483809
0.000494348
-0.000809919
0.00057231
-0.000491473
0.000418936
-9.64572e-05
0.000178652
-8.21963e-05
0.0001227
-0.000106765
-1.59346e-05
0.000131183
-7.30656e-05
-0.000274512
0.000373788
-9.94075e-05
-0.000472067
0.000144272
0.000327209
0.000235326
-0.000228749
6.02986e-05
-6.10186e-06
-5.67247e-05
-3.96998e-05
5.04873e-05
-1.03033e-05
-7.66105e-05
-6.85559e-05
0.000145166
-0.000356745
-0.000456055
-0.000542033
0.000537777
3.63019e-06
-0.000265596
8.20801e-05
0.000266911
1.70204e-05
0.000283905
-0.00014406
-4.69458e-05
0.000282238
-0.000548751
6.22473e-06
0.000628977
-8.65349e-05
-0.000405335
0.000222928
0.000182298
-0.000259749
0.000560712
-0.000205291
-0.000260426
-0.000152741
0.000162779
0.000491921
-0.000221277
-0.000270965
0.000229677
0.000180801
-0.000475718
0.000161282
0.000314111
0.000305296
-0.00047627
-0.000127795
4.79338e-06
0.000123002
-0.000432307
0.000597542
-0.000165546
0.000562349
-0.000100775
-0.00046254
-1.86099e-05
0.000130322
-0.000111713
0.000102879
-0.000119783
1.69044e-05
0.000156381
0.000167498
1.95585e-05
-0.000131551
0.000111989
-0.000252849
-0.000248077
0.00053629
0.000130383
-2.75045e-05
2.90457e-05
0.000588863
0.000115959
-6.46394e-05
-5.13193e-05
-4.59274e-05
0.000192692
0.000465405
-0.000527556
5.7834e-05
-6.92145e-06
-0.000145821
-0.000150134
-0.000261265
0.000148883
8.3354e-05
-9.88726e-05
-1.58628e-05
0.000111522
0.000179128
0.000155951
-0.000108098
-4.7854e-05
-0.000502117
-0.000608898
6.09265e-05
0.000544908
0.000104223
-0.000510698
-0.000200071
0.000477073
-0.000490747
-4.40578e-05
-7.70581e-05
-9.13389e-05
0.000134193
-3.96998e-05
8.63819e-05
8.00833e-05
0.000389546
4.99354e-05
-0.000439962
8.93991e-05
-0.000107989
7.76646e-06
0.000533437
-0.000541911
0.000139199
7.14081e-05
-0.000210621
-4.72158e-05
-0.000602401
0.000110345
-5.33174e-06
0.000530433
-0.000118104
-0.000412826
7.33943e-05
-0.000244306
0.000163819
0.00028338
-0.000473725
-0.000201118
0.000400359
-0.000199424
0.00053077
-0.000530641
-0.000250687
9.50403e-06
0.000241158
0.000142459
4.3997e-05
-0.0005856
2.86843e-05
0.000540327
-0.0001228
-2.12424e-05
0.000144042
5.13788e-05
7.17557e-05
-0.000123135
0.000115235
-0.000303499
0.000188233
0.000189654
-0.000120255
7.4366e-05
-0.000124438
-0.000389168
0.000228648
0.000262907
0.000311207
-0.000433052
0.000121528
8.66594e-05
-4.51939e-05
-8.88053e-05
0.000477827
0.000351774
-0.000233968
-0.000117923
-7.25091e-05
0.000569767
-0.000498909
-8.35519e-05
0.000155552
-7.20008e-05
0.000399782
-0.00010062
-0.000299295
-6.68815e-06
0.000146847
0.000164439
-0.000244975
8.05174e-05
8.11488e-05
-0.00010193
0.000441095
-0.00058893
2.05271e-05
0.000566588
-0.000250691
0.00033395
-8.33216e-05
-0.000145924
-3.77163e-05
0.000183637
-0.000503653
0.000108932
6.73459e-05
0.000236738
-0.000600561
0.000363218
-8.10748e-05
-6.66289e-05
0.000290171
-0.000493618
0.000202677
0.000691471
-0.000708326
1.26675e-05
-0.000464534
-4.18582e-05
0.000210287
-0.000246863
1.95528e-05
5.31054e-05
7.07482e-05
-0.000123854
5.86138e-05
-0.00013969
-0.000477345
-0.000118512
0.000176221
5.92099e-07
-0.000176822
0.000129047
0.000201646
-0.000330798
-0.000101994
-7.77517e-05
9.38196e-06
0.000113318
0.000187016
-7.94628e-05
-0.000126909
0.000161686
-3.47795e-05
0.000745615
-0.000371311
-0.000376848
8.94923e-05
6.52093e-05
-8.59775e-05
0.000297258
-0.00065821
0.000132511
0.000523757
-8.29767e-05
-0.000271694
-0.000116893
-7.14083e-05
-5.67513e-05
-0.000496327
0.000512915
-0.000440912
0.000532276
-9.14299e-05
-4.36736e-05
0.000534008
-0.00049184
-0.000128095
0.000192398
-9.53804e-05
-0.000107829
-2.20629e-05
0.000129892
-0.000234429
-2.17475e-05
0.00025615
-0.000121627
-6.73895e-05
-7.98616e-05
0.000508952
2.3057e-06
-0.000511909
0.000185142
-0.000237703
0.000292399
-0.00022135
-7.1116e-05
-6.95515e-05
1.33468e-05
9.70007e-05
0.000559196
-0.000444216
0.000242864
-0.000451738
-5.08672e-05
0.000501516
-0.000212126
8.24259e-05
0.000317217
-0.000185012
4.65467e-05
0.000138456
-9.98793e-05
-3.80591e-05
0.000137938
-0.000205373
0.00029547
0.000284076
-0.000541704
0.00043762
-0.00018238
-0.000230847
9.91053e-05
0.000131724
-0.000101019
-3.54018e-05
0.000136421
0.000149035
0.000202597
0.000145942
-1.04547e-05
-0.000135489
-0.000345547
0.00012042
0.000225045
-0.000598182
0.000119771
-4.31913e-05
0.000219401
0.000130282
4.05048e-06
-0.000134334
-0.000534472
0.000326074
0.000840334
-0.000334078
-0.000512648
8.12017e-05
-0.000186335
0.000105132
8.17483e-05
-0.000100506
-9.36657e-06
0.000206215
6.69759e-05
-0.000110223
5.61045e-05
5.3558e-05
1.38477e-05
-0.000159774
-0.000551689
0.000569642
7.32417e-05
3.28032e-05
-0.000106045
-2.7485e-05
-0.000103529
0.000131014
6.63922e-05
-0.000181231
0.000482752
-2.1379e-05
0.000313218
-4.88151e-05
-0.00010778
0.000156593
3.63838e-05
-3.63838e-05
7.49854e-05
0.000110544
-0.000185543
5.66479e-05
5.93108e-05
-0.000174526
0.000229239
-5.47235e-05
0.000135264
-5.41158e-05
-0.000246718
0.000181293
6.53885e-05
5.05431e-05
6.01703e-05
-0.000110713
8.85059e-05
-0.000255431
0.000187766
0.000352482
-0.000541216
-0.000502937
6.19494e-05
5.42165e-05
5.98115e-05
-0.000114028
4.45888e-05
-0.000177356
0.000132764
-0.000119237
-7.29775e-05
0.000166367
-0.000554988
0.00017973
-0.000104756
6.44387e-05
-4.46876e-06
-7.05774e-05
-0.00024684
0.000248056
-9.18795e-05
-0.000156214
-0.000112279
0.000270477
0.000536071
-7.55139e-05
-0.000409168
-3.62584e-05
0.000445201
0.000172945
4.37513e-05
-0.000127753
4.9528e-06
-6.7324e-05
0.000121541
0.000117817
-8.21978e-06
-0.000109597
-0.000272028
-0.000105433
0.000312361
-0.000150253
0.000108053
-0.00018074
-0.0004677
0.000469629
-0.000608687
0.000590953
1.2778e-05
-0.000518743
0.000606019
-8.96058e-05
0.000544736
-0.000242061
-0.000303273
-0.000158681
-0.000243994
0.00047549
-0.000232315
8.97671e-05
0.000158249
0.000706613
-0.000594807
-0.000118751
1.71567e-05
-4.61051e-05
-0.000641929
0.000114714
0.000515753
-6.67301e-05
-7.04414e-05
0.000137171
0.000543401
-2.7204e-05
4.49226e-05
-5.26762e-05
4.32666e-06
0.000208074
8.42531e-05
-0.00034862
0.000236708
0.000111818
-0.000185028
-0.000412728
-1.00034e-06
-9.65068e-05
0.000227479
-0.000493933
0.000568556
-0.000541381
-3.07517e-05
-0.000286678
0.000115292
0.000171328
-0.000362119
0.000157704
0.000204371
-0.000129542
6.42774e-06
0.000442484
-0.000449708
0.000151055
-5.11462e-06
-0.000187982
9.40582e-05
0.00018411
-0.000278296
-4.04595e-05
0.000170739
-0.000193316
0.000287244
0.000164326
4.55689e-05
0.000437541
-0.000224948
-0.000143546
7.94749e-05
6.40712e-05
-6.75469e-06
-0.000101074
0.000500882
0.00014192
-6.83587e-05
7.5328e-05
-0.000175691
0.000100358
0.000467006
-0.000477185
-8.36564e-06
0.000129001
-7.88626e-05
-5.01386e-05
-0.00060908
0.000586267
2.03112e-05
-0.000598595
0.000111065
0.000476449
-0.000226907
0.000361148
-0.000134376
-0.000100467
0.000582229
0.000139066
7.38143e-05
-0.000212896
2.83115e-05
-0.000129331
0.000601869
-7.86975e-05
-6.48493e-05
0.000334004
0.000408848
0.000368448
-6.68365e-05
0.000178776
-0.00013419
-0.000555395
6.07539e-05
0.000477967
0.000133434
-8.33513e-05
-5.00833e-05
-0.000389361
-0.000116397
0.000505254
0.000576767
-8.77422e-05
-0.000491381
5.81441e-05
-0.00063238
0.000571895
-0.000643948
0.000123442
8.00733e-06
-0.000206436
0.00019842
-0.000173509
-6.60252e-05
0.000117363
-9.91657e-06
-0.000107447
3.40383e-05
-0.000239443
-5.29305e-05
-0.000100103
-6.25846e-05
-0.000246389
0.000308906
-0.000602329
-0.000190743
-1.98646e-05
0.000210598
1.18668e-06
0.00011663
-0.000160923
3.4011e-05
0.000241239
-0.000135694
0.000215378
-0.000134924
-0.000193499
-8.79423e-05
0.000281367
-0.000391326
-3.31537e-05
0.000424136
0.000189745
-0.000181746
0.000591669
-0.000334676
-0.00025775
8.26152e-05
-0.0001502
0.000140963
-0.000150446
-6.55135e-06
-5.405e-05
0.000127292
-0.000489282
2.52792e-06
7.83134e-05
0.000162917
-0.000176577
-0.000228863
0.000544785
-0.000127528
-0.000418527
6.07205e-05
0.000108959
-0.000651802
0.000595003
4.98746e-05
0.000182458
-7.17288e-05
6.27139e-05
-0.00045253
-0.000469542
-0.000122227
-0.000217982
-0.000175019
-0.000100545
0.000275533
-0.000161061
-4.53819e-05
-0.000153652
0.000133498
9.44521e-06
-0.000142946
-0.000119672
4.78734e-05
7.1799e-05
0.000250214
0.000209836
-4.70797e-05
0.000114056
-0.000718672
0.000423214
0.000294249
0.000137197
3.73704e-06
-0.000140937
-0.000175191
-7.15597e-05
-0.000453072
0.000165881
-0.000506534
-4.25376e-05
0.000246617
-0.000226186
0.000482045
0.000294858
8.466e-05
0.000489649
-0.000168633
0.000411796
-0.000243452
-4.13275e-05
0.000178522
0.000163064
-0.000116524
0.000175097
-9.38966e-05
-0.000262386
0.00017107
9.12796e-05
1.13976e-05
-0.000331526
0.00031398
-0.000129413
0.000261483
-0.000132132
0.000157144
-9.77016e-05
-0.000149157
0.000644008
-0.000501191
0.000155452
-0.000247369
0.000565632
-0.000426659
-0.000139589
0.000106125
-9.02123e-06
-9.71038e-05
-0.000478875
7.3847e-05
0.000404798
-0.000113181
2.44977e-05
8.86829e-05
0.000119519
4.10753e-06
-4.16964e-05
-0.000133853
4.47253e-05
-1.16584e-06
0.000305116
-0.000244885
-6.02775e-05
-0.000291072
-0.000368663
0.000232713
0.000311351
-0.000464458
0.000223753
0.000240359
-0.000542761
5.43492e-05
0.000510493
-0.000201863
-0.000416418
0.000601536
-0.000151428
5.49689e-05
7.59773e-05
3.36852e-05
-0.000177031
-0.000218095
0.000394899
5.0387e-05
8.30471e-05
-0.000512082
-8.68469e-05
0.000349618
-0.000142124
-0.000112377
0.000422573
-6.48539e-05
0.000182683
-0.000117836
-7.61039e-05
0.000114669
0.000163434
-0.000340662
0.000501759
-0.000552997
4.02798e-05
0.000128988
-0.000135681
0.000550755
-0.000553486
4.05401e-05
0.000436121
-0.000324104
-0.000112351
-9.16332e-05
-4.32424e-05
-0.000101036
0.000157155
-5.61193e-05
-0.000119303
-6.19981e-05
0.000181298
-0.00012126
0.000155895
-0.000159903
-1.36093e-05
-2.1325e-05
0.000492638
-0.000379333
-0.000280818
0.000657744
-7.34e-05
0.000156014
-0.000494455
0.000176615
-0.0001297
-4.69182e-05
-0.000438756
0.000294835
0.000143571
-7.56056e-06
0.000346277
-0.000338742
-0.000152651
8.34765e-05
6.91738e-05
-7.70547e-05
-6.92593e-05
0.000146313
0.000488358
1.86892e-06
0.000115494
-0.000241447
-0.000234557
0.000176536
4.31712e-05
-0.000219749
-0.000221126
0.000113576
-0.000101704
7.17243e-05
-0.000103646
0.000168945
-6.53011e-05
-3.18704e-07
8.97498e-05
-0.000112098
8.91631e-05
-0.000226625
0.000100514
-8.94448e-05
0.000146274
-5.68294e-05
-0.000512424
-0.000123625
0.000617466
-0.0005335
-0.000127871
-0.000117111
0.000596288
-0.000480615
9.70621e-05
4.74974e-05
-0.000144561
-0.000200949
0.000148572
5.23657e-05
-0.000283997
-5.33756e-05
-8.07938e-05
0.000134169
-0.000349143
9.61642e-05
4.61378e-05
0.000201384
0.000104222
0.000460748
0.0001379
-0.000487269
0.000337554
-0.000457574
0.000367964
6.26923e-05
0.000519614
-0.000617877
8.40611e-05
5.9461e-05
5.18527e-05
-0.000108464
-9.77364e-05
-0.00011503
0.000212755
1.92151e-05
-0.000526085
-4.99176e-05
0.000540294
-0.000236134
-0.000600116
0.000518891
7.82548e-05
-0.000344066
0.000117033
-0.00036958
0.000429527
-0.000138098
-0.000151001
6.81096e-05
8.28912e-05
0.000260073
-0.000170347
0.000218442
-5.01602e-05
-0.00016829
8.02375e-05
-0.000177983
-0.000551283
-6.0577e-05
-7.96305e-06
0.0001977
0.000230896
-0.00061246
-4.28589e-05
0.000201952
-0.000126628
5.98018e-05
-0.000133124
7.33216e-05
-0.000165208
5.62684e-05
0.000108938
-0.000462597
1.00367e-05
0.000218575
-0.00038748
-9.83542e-05
0.000141015
-4.26618e-05
-6.43297e-05
-6.48216e-05
0.000129151
-8.0759e-05
-0.000126372
-0.000144543
0.000270905
-0.0001058
-0.000125061
7.68332e-05
5.35501e-05
0.000262179
-9.98869e-06
-6.139e-05
0.000169435
-5.06363e-05
-9.23383e-05
0.000149233
-0.00021764
-7.25522e-07
6.05652e-05
-0.000255528
0.000337823
-6.89009e-05
-5.30184e-05
0.000121919
-9.54393e-05
-3.23559e-05
0.00014316
6.57199e-05
-0.000208895
-6.89081e-06
0.000559642
-0.000553447
-0.000489598
0.00028748
0.000201501
-0.000107467
-0.000238071
0.000345498
-5.07759e-05
0.000103183
0.000440697
0.000102827
0.000120454
-0.000180385
5.99276e-05
-0.00062952
2.9685e-05
0.000595523
-0.000446612
-0.000174781
-3.06234e-05
0.000205395
0.000569513
6.82676e-05
-3.96902e-05
-0.000545956
0.000582381
-0.000469813
-2.54996e-05
0.000153964
-0.000388043
-0.000484877
0.00011411
0.000358521
0.000332195
0.000258655
-0.000547601
-2.25827e-05
0.000156078
0.000131904
5.09996e-05
-0.000182915
5.79484e-05
8.73858e-05
3.8546e-05
-0.000293834
0.000162701
0.000131108
5.21525e-05
-0.000553595
0.000501075
-0.000176893
0.000205893
-7.72781e-05
-0.000277887
0.000335253
-5.74509e-05
-7.47277e-05
-0.000558702
-0.00029817
0.000481002
-0.000165214
6.84101e-05
2.80076e-05
-0.000171165
0.000143141
-0.000295041
-0.00013831
-7.8539e-05
0.000127606
-4.90674e-05
-0.000125106
0.000274306
-0.000255417
0.000527985
-1.97027e-05
-1.30328e-05
0.000102397
-5.9688e-05
-0.000219733
0.000287301
-6.76043e-05
-2.35477e-05
0.000475238
-0.000464433
5.00526e-05
-0.000146237
9.61799e-05
0.000309681
-0.000291575
-2.40189e-05
0.000272096
9.61895e-05
0.000302192
0.000214942
-0.000523229
-0.00016731
-1.95173e-05
0.000186824
-6.78663e-05
0.000526298
-4.56092e-05
-0.000491064
-0.000485864
0.000475687
-0.000139871
-3.21052e-05
0.000171973
2.69578e-05
-0.000617458
0.000156423
-9.43518e-05
-6.2073e-05
-7.69567e-05
0.000123409
-4.64519e-05
-0.000107624
-0.000200533
0.000308087
-0.000492629
-0.000291569
0.000425842
-0.000134925
0.000594167
-0.000298796
9.85982e-05
5.93622e-06
-5.48313e-05
-8.08933e-05
0.000168552
-0.000135583
-0.000171127
-0.000358391
0.000528616
6.01109e-05
6.88902e-05
4.239e-06
4.74813e-05
0.000486541
-0.000542993
-0.000114794
-4.39991e-05
-0.000640668
0.000613161
2.3052e-05
7.42027e-05
8.26625e-05
-0.000499106
1.16715e-05
0.000470445
0.00038505
-0.000227655
-0.000157482
-7.8724e-05
-0.000669638
0.000115921
0.000551905
0.000269133
0.000274625
-0.000546603
0.00030122
1.48968e-06
-0.000128599
5.39319e-05
0.000162062
-0.000575801
0.000330534
-0.000338117
-0.000232488
0.000144116
8.83685e-05
6.53916e-05
-0.000321043
-6.08122e-05
-0.000456362
0.000508419
-0.000119916
-0.000166817
0.00033805
-0.00010188
-0.000237736
-1.27315e-05
-9.18524e-05
-0.000358372
-9.1992e-06
-0.000268756
0.000104508
-8.00104e-05
-0.000221626
0.000257553
-3.59675e-05
-0.000604204