/*--------------------------------*- C++ -*----------------------------------*\
| =========                 |                                                 |
| \\      /  F ield         | OpenFOAM: The Open Source CFD Toolbox           |
|  \\    /   O peration     | Version:  v2012                                 |
|   \\  /    A nd           | Website:  www.openfoam.com                      |
|    \\/     M anipulation  |                                                 |
\*---------------------------------------------------------------------------*/
FoamFile
{
    version     2.0;
    format      ascii;
    class       surfaceScalarField;
    location    "500";
    object      phi;
}
// * * * * * * * * * * * * * * * * * * * * * * * * * * * * * * * * * * * * * //

dimensions      [0 3 -1 0 0 0 0];
oriented        oriented;


internalField   nonuniform List<scalar> 
27907
(
-0.0822152
0.0635856
0.0186296
-0.060389
-0.011264
0.071653
0.415653
-0.465781
0.0501673
0.0271368
-0.0150789
-0.012058
0.0127655
-0.00662131
-0.00614421
-0.00934733
0.00280027
0.00654705
0.00930513
-0.000263554
-0.00904158
-0.333692
0.422276
-0.088566
0.0920464
-0.0812431
-0.0108033
-0.168707
0.0233259
0.145381
-0.0232212
0.183476
-0.160254
-0.00806771
0.00594066
0.00212706
0.0806908
-0.436453
0.355785
0.0869563
-0.102069
0.0151129
0.260193
-0.177229
-0.0829634
0.0488219
-0.0288106
-0.0200114
0.03429
0.0925353
-0.126825
-0.0869582
0.368483
-0.281514
-0.121154
-0.136107
0.257264
0.144987
-0.120623
-0.0243642
0.00232582
0.000668927
-0.00299475
-0.430109
0.449071
-0.0189602
-0.00242075
0.00119051
0.00123024
0.0627163
-0.0842902
0.0215738
0.026454
-0.0894545
0.0630005
-0.419878
0.0862055
0.0368312
0.00655146
-0.0433826
-0.000736013
-0.00555578
0.0062918
0.029434
0.0147692
-0.0442032
0.0754151
-0.0596548
-0.0157603
0.0909186
0.011197
-0.102115
0.00145971
-0.00902459
0.00756489
0.474241
-0.461733
-0.0124967
-0.243874
0.12541
0.118464
-0.0975174
0.0268701
0.0706473
-0.484112
0.294532
0.189581
0.55699
-0.334977
-0.222005
0.280573
-0.135907
-0.144664
-0.152634
0.242825
-0.0901889
0.0266593
-0.124607
0.0979478
0.273878
-0.189333
-0.0845422
0.160101
-0.138551
-0.0215502
0.173734
-0.339784
0.166057
-0.117421
0.158641
-0.0412191
0.0957619
-0.0735868
-0.022175
-0.495726
0.260455
0.235298
-0.00141069
-0.00101006
-0.152109
0.192185
-0.0400761
-0.147342
-0.0213646
-0.203492
0.39904
-0.195539
-0.0884121
0.113264
-0.0248517
0.026407
-0.0184745
-0.00793254
-0.475294
0.0938608
0.381453
-0.193895
0.170674
0.00373455
-0.00447056
-0.0244798
0.080077
-0.0555972
0.299228
0.25777
0.0431481
-0.0232428
-0.215765
-0.0176296
0.233395
-0.0972118
0.0312261
0.0659857
0.0550578
-0.0851833
0.0301255
0.00790102
0.00140411
-0.116136
0.109146
0.00698993
0.189057
-0.0344686
-0.154588
-0.385236
-0.0900404
0.345069
-0.189362
-0.155705
-0.0735953
0.133247
-0.0596515
0.364308
0.109943
0.147022
-0.277529
0.13051
0.00568794
0.0207191
-0.0179511
0.0139428
0.00400823
-0.12094
0.224237
-0.103296
-0.379475
0.175992
-0.0169951
0.0111663
0.00582885
0.150425
-0.376778
0.226364
0.208224
-0.00832395
-0.199899
0.0892146
-0.0696755
-0.019539
0.00559885
0.0044015
-0.0100004
-0.080146
0.0224457
0.0577003
0.0028156
-0.00124939
-0.00156621
0.00112089
-0.00188437
0.000763485
0.0770761
-0.0570295
-0.0200467
-0.0579086
-0.0393031
0.00201562
-0.00609348
0.00407786
0.0858647
0.0033499
0.1682
-0.149703
-0.0184972
0.0209552
-0.0316409
0.0106858
-0.0964543
-0.0196821
0.00299833
-0.00227002
-0.000728307
-0.0481403
0.256366
0.00266015
-0.000644528
0.00280024
-0.218564
-0.00623191
0.00279158
0.00344033
0.140003
0.0200984
0.000676802
-0.00189041
0.00121361
-0.00435767
-0.00187424
0.0789929
0.00687178
0.348986
-0.198551
0.120842
-0.260209
0.13937
-0.00126293
0.00358875
0.147596
-0.0210521
-0.126544
-0.00175643
0.00175252
3.91222e-06
-0.0787377
-0.0258774
0.104615
0.0186288
-0.110316
0.0916876
-0.0062404
0.00770011
0.0502824
0.0251327
0.0725312
-0.0449167
-0.0276144
0.0119811
-0.00638228
-0.162275
-0.0340622
0.196338
0.141461
-0.241851
0.100389
0.00315041
-0.00750808
-0.0169951
0.197677
0.215621
-0.413281
-0.151592
0.2602
-0.108606
-0.0460264
0.0388663
0.00716003
0.0139137
0.000244862
-0.0141585
-0.0124686
0.0125968
-0.000128145
0.127894
0.1323
-0.00210727
0.00153638
0.000570888
0.00127948
-0.000602676
0.0200947
0.111244
-0.131338
-0.2703
0.238673
0.0316276
-0.02027
0.0269873
-0.00671736
-0.0391534
-0.00025619
0.0394096
0.0188273
-0.0749454
0.056118
0.0631876
0.0325743
-0.074101
0.013712
-0.0657913
0.0800572
-0.0142658
0.00456858
-0.00177701
0.439862
-0.624009
0.184174
-0.0769426
0.111233
0.0608389
-0.0240077
-0.00053163
0.00120056
0.129862
-0.0524979
-0.0773638
-0.00954595
0.0301127
-0.198887
0.119772
0.079115
-0.0837621
0.0140866
0.125479
-0.09882
0.275685
-0.15484
0.00205022
-0.0464284
0.0443782
-0.0748399
-0.00530615
-0.00682236
-0.0452654
0.0520878
-0.262345
0.236904
0.0254423
-0.0597967
0.0353169
0.224644
0.0492352
-0.185929
0.277042
-0.0911103
-0.00450565
0.00436774
0.00013791
-0.0125413
-0.00166648
0.0142078
-0.0149299
0.105848
0.0218529
-0.0380822
0.0162293
0.056774
0.0203021
-0.054743
-0.00467108
0.0594141
0.18577
-0.0485743
-0.137196
-0.459416
0.457328
0.0020922
0.0024346
-0.00133631
-0.00109829
-0.000662742
0.154165
-0.153502
-0.00155638
-0.000550895
-0.198051
0.0459425
0.00242298
0.166612
-0.169034
0.486231
-0.299244
-0.186986
-0.19379
0.355509
-0.161713
-0.0930904
0.0686788
0.0244116
0.0124377
-0.00762665
-0.00481102
-0.184145
0.186569
0.083813
-0.0287552
0.0437812
-0.0143472
0.161533
0.0906226
-0.252153
0.0234553
-0.00490624
-0.018549
0.067771
-0.0873015
0.0195306
0.00235675
0.00780841
-0.0101652
-0.0109876
0.00975257
0.00123502
-0.3216
0.23465
0.00743191
0.00500577
-0.0032567
0.00777926
-0.00452256
-0.0353086
-0.0577818
-0.00732269
0.070039
0.0390132
-0.0101836
-0.0288296
0.169807
0.0192507
-0.060988
0.0630383
-0.265372
0.145897
0.119477
0.263751
-0.459907
0.196173
0.0131153
-0.0131153
0.0115787
-0.0663217
-0.182686
0.347065
-0.164372
-0.0760149
0.157441
-0.0814254
-0.00634066
-0.0576521
0.0639928
-0.316682
0.235711
0.0809736
0.0120158
0.00189789
-0.216842
0.386844
-0.169992
-0.312893
0.181828
0.131067
0.0660403
0.0638215
-0.0776373
0.011846
-0.0314594
0.209116
-0.177656
0.0958782
-0.110808
-0.0480626
-0.0529385
0.101001
-0.117153
0.0206987
0.126088
0.0188994
0.104138
-0.0363672
0.534929
-0.301771
-0.233148
-0.185754
0.359498
-0.0267272
0.073864
-0.0471368
-0.176822
-0.0212275
0.135524
-0.149728
0.0142041
0.0839387
-0.103637
0.0196986
-0.300802
0.381514
-0.120606
0.0725439
0.0762908
-0.106195
0.0299045
-0.529679
0.0702669
0.00423146
4.76917e-06
-0.00423623
-0.170843
0.0235014
-0.161455
0.380668
-0.219204
-0.0880699
0.106699
0.0627533
0.147459
-0.210211
-0.118662
0.135238
-0.0165765
0.0530055
-0.0731885
0.020183
0.0013287
-0.00228866
0.000959964
-0.0241853
0.0771908
-0.0212559
0.0413674
-0.0201115
-0.0911189
0.326422
-0.235291
-0.00229908
-0.00704824
0.207037
-0.200218
0.0379444
0.0947876
-0.0362065
-0.0585811
-0.00328823
-0.00121742
0.0193961
0.0572241
-0.0766203
0.104562
-0.028271
-0.0794458
0.1217
-0.0422539
-0.0837532
0.110047
-0.0262935
-0.358005
0.293537
0.0644744
0.0709811
-0.108388
0.037407
0.244624
0.100445
-0.0224523
-0.0947006
0.00255282
-0.00212615
-0.000426676
0.089215
-0.0102221
-0.00544876
-0.430985
-0.188537
-0.128143
-0.26282
-0.0951778
0.474979
-0.281272
-0.193681
0.0115916
-0.0318615
0.164863
-0.103906
-0.0609575
-0.210672
-0.0734242
0.284102
0.0246898
-0.0836141
0.0589243
0.0157397
0.0567914
-0.220164
0.0439424
0.176222
0.0425806
-0.0207276
0.0019271
-0.00146352
-0.000463572
0.0805579
0.00865717
-0.278748
-0.205363
-0.00182416
0.00111215
0.000712014
0.125753
-0.00349893
-0.122254
-0.363963
0.0410334
0.32293
0.0241491
-0.00069379
0.0238837
0.144317
0.0908471
0.0349061
-0.0778853
0.201716
-0.123829
-0.0550325
-0.0628688
0.117901
0.0799762
-0.0189915
-0.0609848
0.0149781
-0.036234
-0.113865
-0.00479635
-0.0877297
0.0603115
0.0274182
-0.119376
-0.163183
-0.133992
0.0503598
0.0836319
-0.3064
0.335456
-0.0290515
0.103789
-0.0198506
-0.140972
-0.0298703
0.0441698
0.0506178
0.0131358
-0.000595821
-0.01254
-0.339826
0.248723
-0.0390956
0.202574
-0.163477
-0.0703694
0.0714708
-0.00110134
0.161912
-0.201006
0.107751
-0.183765
-0.0326561
0.0227799
0.0100007
-0.0327807
-0.013617
0.00114841
0.140793
0.0965918
-0.237383
0.0267901
0.0785021
-0.105292
0.0174331
-0.00273575
-0.0146973
-0.0780875
0.0210581
0.211376
-0.179061
-0.0323144
-0.19022
-0.107157
0.297382
-0.176302
0.10271
0.0735922
0.095021
0.0698425
-0.221147
-0.0411969
0.0169355
0.000497558
0.0827148
-0.058025
0.0244028
0.0219913
-0.0463941
-0.00053163
0.00114213
-0.37305
0.193532
0.179526
0.0149894
0.400691
0.0310751
-0.0955409
0.0644658
0.00586006
-0.00453137
0.15213
-0.111411
-0.0407194
-0.0652839
-0.085064
0.106803
-0.0217388
-0.0552985
0.153154
-0.0978552
-0.000703274
-0.268326
0.147175
0.0819729
-0.0373812
-0.0445918
-0.00373673
-0.324837
-0.170861
-0.00826051
-0.014027
0.0222875
-0.0900288
0.119045
-0.0290164
-0.121505
0.268529
-0.177709
0.0710276
0.106681
-0.080361
0.106739
-0.0263781
-0.220175
0.202759
0.0174164
-0.368104
0.00414273
0.00936354
-0.0108918
0.0015283
0.0620215
-0.0376187
-0.367155
0.216024
0.151135
0.00790778
-0.00975924
0.00185145
-0.000778262
-0.0599844
0.0793806
-0.292497
0.305074
-0.0125744
0.439889
0.0547329
-0.0720004
0.0172675
-0.0528207
-0.167342
0.135161
-0.317838
0.10871
-0.23726
0.128553
-0.12152
0.21334
-0.0918194
-0.067092
-0.0202095
-0.11201
0.0316488
-0.0896739
-0.0866284
-0.00231209
-0.101594
-0.139728
0.0191052
0.00475727
0.061283
0.173957
-0.293328
0.324074
0.162158
0.0302213
0.0498359
0.00576799
-0.0901015
0.0843336
-0.0557624
0.0825526
0.0182816
0.00885519
0.0606501
0.0914802
-0.218346
0.186887
0.427429
-0.588641
0.161245
0.0504485
0.0315245
0.0210572
-0.0293177
-0.385043
0.122229
-0.190032
0.398162
-0.20812
-0.283104
-0.101933
-0.117841
-0.0810452
-0.0980611
0.0143079
0.083161
-0.056707
-0.0986478
-0.171652
0.256359
-0.138874
-0.117485
-0.382807
0.210529
0.172287
0.0445073
0.00431462
0.0503347
-0.057157
0.0931553
-0.0285181
-0.0646372
0.0303728
-0.0865153
0.0561425
-0.252079
0.196648
0.0554326
0.0669446
0.00997715
-0.0769217
0.00366142
-0.0858766
0.0408833
0.0991721
-0.140055
0.0157769
-0.109014
0.0932367
-0.00653133
-0.000890257
0.00215331
-0.00126306
-0.0615684
0.0552277
0.35258
0.0875362
-0.440103
0.130565
-0.142739
0.0121741
0.00469041
-0.0606961
0.0560057
0.0280084
-0.00522843
0.00652605
0.139493
-0.146019
-0.216186
-0.156858
0.110018
-0.00801342
-0.102004
0.269163
-0.192188
-0.0769725
0.0341958
0.108651
-0.142846
-0.0542473
-0.0045962
0.0588435
0.013006
-0.0206426
0.00763661
-0.0760736
0.0908644
-0.0147908
-0.116331
-0.0233965
0.0114468
0.00168904
-0.262851
0.0291418
0.23371
0.0305265
-0.207348
0.126237
0.135159
-0.261395
-0.239582
0.0869496
0.0232336
-0.0924766
0.069243
0.171002
0.00219662
-0.173198
0.00878981
-0.00088203
0.0715992
-0.0415919
-0.0300073
-0.189761
0.111877
-0.202853
-0.164298
-0.00191522
-0.00970942
0.0116246
-0.0889231
0.0128496
0.0359434
0.056103
-0.0150808
-0.247769
0.0881926
0.0222847
-0.110477
0.117402
-0.307616
0.160542
-0.0284236
-0.132118
0.163988
0.0746854
-0.16722
-0.172594
-0.00835737
0.0105415
-0.0021841
0.00146612
0.00276534
-0.0634515
0.0270334
0.0364181
0.0241056
-0.260141
-0.232202
0.492373
0.00670839
0.0700964
-0.0768047
0.00220447
-0.00873721
0.00653274
0.0578801
-0.112913
0.398019
-0.200326
-0.00320831
0.0214899
-0.140324
-0.132558
0.272886
-0.278812
0.181187
0.0976262
0.429851
-0.166082
0.0739314
-0.0506978
0.152341
0.114034
-0.266374
-0.154538
0.037117
-0.0546062
0.084979
0.00643962
-0.0233175
0.0168779
0.251217
-0.142503
0.00435379
0.00841173
-0.0957129
0.130936
-0.0352229
0.0951822
-0.387676
-0.0300757
0.164755
-0.134679
-0.26732
0.140689
0.126633
0.190646
-0.139104
0.0838053
-0.083767
0.118207
-0.0344401
0.0819351
-0.0771778
0.00331093
-0.00138384
-0.0749408
0.0950357
-0.365245
0.200615
0.164631
-0.00595256
-0.0644169
-0.0404421
0.0312712
0.00917091
0.010188
0.0257501
-0.0359381
-0.00745201
-0.00353558
0.0236948
-0.0956924
0.0719976
0.217043
-0.176134
-0.0409087
0.19105
-0.358255
-0.360453
0.149789
-0.120056
0.18281
0.0652998
0.0255646
0.0246411
0.100764
-0.125405
-0.142763
0.144748
-0.00198415
-0.11654
0.0265114
0.0360681
0.00675261
-0.0640624
0.0573098
0.0258241
-0.173326
-0.0939932
-0.135869
0.133557
0.000815482
0.00218285
-0.215966
0.0305588
0.185408
-0.00366286
0.0166688
0.427461
-0.414478
0.22872
-0.000721011
-0.015305
0.016026
-0.120341
-0.0137567
0.134098
-0.163464
-0.0464359
0.209901
0.0719744
0.00800188
-0.0895113
-0.00800609
-0.0525564
0.0836316
0.00639732
-0.00182874
-0.160919
0.152596
0.193023
-0.0322316
-0.160791
0.0125569
-0.00122078
0.00716143
-0.0213546
-0.0636716
0.0850263
-0.10393
0.0996292
0.00430035
0.0791485
0.00780783
0.0647273
-0.0579747
-0.000205365
-0.0114139
0.0116193
-0.0708431
0.0909895
-0.211929
0.115708
-0.0322887
-0.0834194
-0.229647
0.0780564
0.0962234
-0.0309235
0.0763696
0.136655
-0.213023
0.00416811
0.00222921
0.108166
-0.0199736
-0.0705974
0.0752878
-0.14122
-0.00154354
0.0036185
0.0883036
-0.091922
0.150167
-0.043238
-0.0410522
-0.177512
-0.201953
-0.00168037
0.000790115
0.255708
-0.129469
-0.0400146
0.0740815
-0.0340668
-0.44593
0.14204
0.303893
0.0635296
-0.0720325
0.00850288
-0.110521
0.144717
-0.444915
0.281893
0.163027
-0.0718782
-0.188328
0.223535
0.206331
-0.0445298
-0.00350762
0.0480374
-0.00476355
-0.00144567
0.00620922
-0.0219427
-0.0240836
-0.103375
-0.0171676
0.120543
0.042412
-0.16311
0.120698
0.090917
0.0158222
-0.281063
0.515522
-0.234457
-0.41728
0.0303155
0.386964
0.0208538
-0.0152731
-0.0055807
-0.254885
0.18301
0.228981
0.115983
-0.344964
0.00792687
-0.0929908
-0.114311
0.466908
-0.0151325
-0.088797
0.103457
-0.0125401
-0.0774189
0.306401
-0.120765
0.273107
-0.00213276
-0.10837
0.110502
-0.16888
-0.0470857
0.125435
-0.126098
0.0432642
-0.000683592
-0.00321523
-0.116455
0.11967
0.0773904
-0.0987449
0.00938476
-0.138672
0.129287
-0.26096
-0.104284
-0.040128
0.016055
0.024073
-0.172768
-0.0237267
0.196495
0.139553
-0.189935
0.0503837
-0.0474534
0.0609959
-0.0135424
-0.0128812
-0.00220777
0.0150889
-0.0919893
0.0956079
0.070013
-0.0332435
-0.0367694
0.123297
-0.116771
-0.0606648
0.00222444
-0.0151056
0.276485
-0.114949
0.000950551
-0.00993022
0.00897967
-0.0803306
0.0403159
-0.33105
-0.0320075
0.363062
0.0421348
0.00112936
-0.0106927
0.0163754
0.0936423
-0.251349
-0.228264
0.479644
-0.0888668
0.0946348
-0.00600842
-0.0176482
0.0236566
0.0912416
0.137773
-0.286547
0.148777
-0.20739
0.030162
-0.168243
-0.0519305
0.0357548
-0.221682
0.465308
-0.445431
-0.0198433
0.0589105
0.0345846
-0.028145
-0.17071
0.177929
-0.00721825
0.032396
0.0113852
-0.277746
0.16163
0.116117
-0.0919695
0.105078
-0.0131083
-0.0655113
-0.00774688
-0.29865
-0.402586
0.108679
-0.16978
0.0611019
-0.51985
0.245902
0.273955
0.17706
0.0343166
-0.186206
0.0492907
0.136916
-0.102838
-0.162531
-0.074104
0.100938
-0.0268335
0.00598441
0.0385229
-0.171263
0.373024
-0.201744
-0.0158524
0.0232617
-0.00740923
-0.00271891
0.000196404
0.0025225
0.131889
-0.0429307
-0.0889584
0.0536594
0.0620488
-0.0143311
-0.0491203
0.0219911
-0.132098
0.128884
0.119684
0.0309085
-0.150592
-0.00983886
-0.00811221
-0.176461
0.00575214
-0.0088867
0.10533
-0.0964433
-0.267464
0.108193
0.159272
-0.00407649
-0.0113597
0.0154362
0.0679045
-0.126988
0.0590839
0.0794136
-0.0290789
0.0682861
0.0204664
-0.0887524
0.00795684
-5.58161e-05
-0.0677824
0.156374
-0.266926
0.110553
-0.100446
-0.0122847
0.112731
-0.0889065
0.0754885
0.013418
0.0379826
0.0811164
-0.0622891
-0.22057
0.0535034
0.167067
0.0549454
-0.0392057
-0.191453
-0.00553795
0.196992
0.156445
0.120762
-0.277203
-0.184861
0.408411
0.380849
0.105853
-0.486685
-0.00422253
0.00120459
0.00301794
0.0443686
0.0105768
0.234014
-0.249094
-0.0592807
0.0710084
-0.0117277
0.140611
-0.108191
-0.0324202
0.0359849
-0.0257969
-0.00540959
0.000646039
-0.00502168
0.0597546
0.05855
0.0187254
-0.0772754
0.0242897
-0.192349
0.168062
0.00572459
-0.0112804
0.113135
-0.0172569
-0.0870332
0.237757
-0.150722
-0.122001
0.048406
0.00237932
0.0142907
-0.0150117
-0.150076
-0.0937961
-0.158693
0.00436221
0.154331
0.235279
-0.0904204
-0.144857
-0.442989
0.0144565
0.428564
-0.0104622
0.0138049
-0.00334268
-0.0801955
0.100743
-0.020548
0.0030351
-0.00436636
0.00657083
0.145568
-0.24267
0.0971025
0.250283
0.284653
-0.0192128
-0.102368
0.121581
-0.0701123
-0.359996
-0.325774
0.13199
-0.0267704
-0.159436
-0.148429
0.203446
-0.0550155
0.0350425
0.127181
-0.0592761
-0.0433597
0.102212
-0.0588522
-0.00684549
0.0133411
-0.00649559
0.0957106
0.00391863
-0.327337
-0.118589
-0.0135474
-0.106794
-0.000933433
-0.0845603
0.0854937
0.0206119
-0.0144483
-0.00616358
-0.12269
0.113804
0.0745646
-0.0696755
-0.00488911
0.0284412
-0.126162
0.0977207
-0.000968252
0.234984
-0.0693837
0.010103
-0.0446589
0.0458218
-0.0011629
0.0327858
0.176332
0.0645601
-0.264118
0.199565
0.0641634
-0.0281462
-0.0360172
0.00090372
0.0607785
0.424207
-0.0433437
0.00172209
0.000431223
0.00177253
-0.00177253
-0.0842897
-0.00461685
0.203477
0.195572
0.00591439
-0.00578787
-0.00012652
-0.00991235
0.00780485
0.00210749
-0.024209
0.141034
0.0299685
-0.447354
0.27064
-0.0422074
0.0394026
0.00280482
0.317586
0.158605
-0.0925645
0.0635558
0.0290087
0.00923743
-0.00828688
0.0654489
0.01794
-0.0833889
0.00181335
0.00614349
0.0234037
0.0842226
-0.107626
0.00311143
-0.00355167
0.000440241
-0.115612
0.0318449
-0.233208
0.197729
0.0354803
0.0501375
-0.20883
0.0105117
-0.0104821
-2.96127e-05
0.0286485
-0.00201114
-0.0266374
-0.000548805
-0.0102212
-0.0104214
0.14038
-0.0393518
-0.0532127
0.152394
-0.433457
-0.118348
0.0389024
-0.020718
0.101797
-0.0810792
-0.0906313
0.00221922
0.0881267
-0.419172
-0.117695
0.149705
-0.032009
-0.0687894
0.0754978
0.00552439
-0.0213768
0.00999734
0.000514373
0.00729086
-0.00949991
0.00220906
-0.0763579
0.117241
0.0594846
0.0881117
0.0887241
-0.00816624
0.12545
0.130909
0.162089
0.134088
-0.296172
0.231651
0.0875145
-0.319163
-0.0058368
-0.134158
0.139996
-0.0807922
-0.342747
0.0657592
0.276988
-0.108826
0.0881079
-0.169144
-0.157248
0.326398
-0.448059
-0.175924
-0.194271
0.401283
-0.207
0.00950079
-0.00466642
-0.00483437
-0.0684322
0.209894
-0.412105
-0.068676
0.480784
0.0999437
-0.119156
0.00584474
0.114808
-0.120652
-0.307877
0.136626
-0.0108245
0.00246716
0.223788
0.0453764
0.158831
0.117136
-0.275963
0.00635164
-0.104747
0.0983955
-1.65178e-05
-0.0860439
0.0860605
0.150163
-0.227696
0.147244
0.0804526
0.0094916
0.065073
0.0682176
0.16921
-0.106026
-0.0631836
-0.0438833
-0.000775544
0.105801
0.0634093
-0.0277179
0.0245096
0.0188521
0.0207421
-0.00880333
-0.0166072
0.0254105
-0.0132301
0.00276788
-0.218535
-0.00275032
0.0166932
-0.0884074
0.0164589
0.0719485
-0.205075
-0.173053
0.378147
-0.00179794
-0.00055795
0.00235589
-0.150187
-0.18264
0.33283
-0.196365
0.402707
-0.206331
-0.10153
-0.0310819
0.132612
-0.465044
0.183541
-0.0837531
0.106475
-0.0227218
0.0153889
0.005223
0.209341
-0.0117924
0.00298903
-0.177978
0.202271
-0.0290368
0.140281
0.00162856
0.02702
-0.223729
0.397181
-0.173435
-0.00234779
0.00118014
0.00116764
-0.131346
0.160451
-0.0291039
-0.114101
0.265743
-0.151639
0.328095
-0.18755
-0.140543
-0.00365197
0.235304
-0.0800347
0.0470428
0.0329919
0.025442
-0.0521691
0.00939849
-0.0123162
0.00291771
0.108409
-0.0126979
0.00420535
-0.00140507
0.121059
-0.099844
-0.0212153
-0.142131
0.0713097
-0.0812204
0.00991069
0.0085307
-0.00123984
-0.0121276
0.0706776
0.0285818
0.0452821
0.0254206
0.0677346
-0.0898454
0.112979
-0.0231339
-0.107865
0.160284
-0.0524189
-0.0643196
-0.0157151
0.0608211
0.112525
-0.173345
0.0788391
-0.0220652
0.346271
0.122688
-0.468943
0.00448638
0.001428
-0.0451906
0.170602
0.0789428
-0.0503609
0.114449
-0.116582
-0.0521154
0.203899
-0.151782
0.0579267
-0.0431575
0.181492
0.145463
-0.326949
0.0179462
-0.0885435
-0.16708
0.0357343
0.203901
0.123636
-0.0989947
0.107051
-0.102899
-0.00415238
-0.0305768
0.0776196
-0.0139661
0.046983
-0.0608292
0.0138462
-0.000753478
0.00910067
-0.00834719
-0.269558
-0.233449
0.00264824
-0.000926153
-0.0847497
-0.203073
0.287824
0.0796148
-0.0720677
-0.00754703
-0.0781232
0.101527
0.012404
0.171073
0.250296
-0.327714
-0.069448
-0.10826
0.162565
-0.237368
-0.266342
0.152244
0.143702
-0.0307542
-0.112947
0.0659067
0.0137081
0.0671086
0.0351032
0.0397468
0.0244166
0.0043729
0.091405
-0.0957778
0.432057
-0.235855
-0.196195
0.111797
-0.020396
-0.0914004
0.00433011
0.0346831
0.306494
-0.143227
-0.163261
0.0806757
0.0211215
0.0854204
0.0771069
-0.162527
-0.0176617
0.0178085
-0.00014682
0.0898298
-0.189022
0.0991921
-0.000965968
-0.000649456
0.00161542
-0.118179
0.464467
0.0700361
-0.0398148
0.0955569
-0.50766
-0.0535621
-0.053415
0.106977
-0.217501
0.130469
-0.150908
0.145072
0.0174335
-0.138169
0.120736
0.149311
0.279804
-0.120969
0.429328
-0.270377
-0.158934
0.0104975
-0.0550272
0.0101639
-0.0101639
0.150597
-0.109187
-0.0414091
-0.00388299
0.0015352
-0.214828
0.21386
-0.0274632
0.128228
0.181829
-0.027663
-0.0849912
0.0365312
0.0484601
0.0013186
0.001497
0.124046
0.0265511
0.234755
0.132223
-0.366967
0.0560085
0.0234051
0.137357
0.0514116
-0.266239
-0.0303814
-0.127597
0.157979
0.0100741
-0.0119893
-0.0255461
0.000872996
0.0246731
-0.0732786
0.0732949
-1.63664e-05
-0.0255518
-0.0464486
-0.0271044
0.0525463
-0.176335
0.0548151
0.295735
-0.211577
-0.0841556
0.053548
0.0252912
0.204928
0.015755
0.06441
-0.0801651
0.0330994
0.125918
-0.159017
-0.423975
0.293605
0.13037
0.00749968
0.0161526
-0.0236522
0.0147751
-0.0116712
-0.00310387
-0.223215
0.01196
-0.00256148
0.131014
-0.121629
-0.0904874
0.108126
-0.0176387
-0.0200312
0.0803427
0.0444612
0.012476
0.0506595
0.0251802
-0.0758397
0.529764
-0.32602
-0.203721
-0.453411
0.0535485
0.3999
-0.0082026
-0.00609798
0.0143006
-0.125161
0.265956
-0.139963
-0.137564
0.152783
0.228846
-0.0945125
-0.134332
0.0423261
-0.0528565
0.0105305
-0.00888627
-0.0673376
0.0762238
0.0186914
0.00152711
-0.00128774
-0.000239375
0.0321921
-0.127905
0.0750231
-0.0481529
0.164675
-0.0792544
0.377397
-0.0872017
-0.290183
0.171651
0.27037
-0.441994
-0.299879
-0.0907068
0.3906
0.0121162
-0.0123216
0.00126355
-0.0774625
0.0615526
0.0159099
0.345116
-0.0948206
0.361528
-0.126762
-0.114665
-0.128881
-0.148585
0.277469
0.026112
-0.127642
-0.127466
-0.0270722
-0.0149
0.0100538
0.0171581
-0.0272119
-0.0318341
-0.0769917
-0.0464694
0.0715355
-0.025066
-0.0674153
-0.0100471
-0.138956
0.276732
-0.0809623
0.0166427
0.230659
0.0650778
-0.00280576
-0.0331337
-0.0552737
-0.000587707
-0.00126677
0.00185447
-0.0107433
0.0541949
-0.0434516
0.0437381
-0.192167
0.120147
0.0235543
-0.0700308
0.0254674
0.0445634
-0.00151141
0.0015789
-6.7494e-05
-0.00180849
-0.0982457
0.0626856
0.0355601
0.0817053
-0.0826387
-0.00947181
0.0116963
0.342967
-0.457263
0.0852753
0.00344881
-0.0364525
-0.00270091
0.0972401
-0.00101673
0.448836
-0.25741
0.124768
0.00241317
-0.00364996
0.00576976
-0.00211979
-0.0168178
-0.0233102
-0.0604811
0.0919802
-0.0314991
0.311925
-0.142155
-0.16977
0.0215878
0.137777
-0.159364
0.122344
-0.104569
-0.0177744
-0.0130206
0.0115571
0.147313
-0.199427
-0.0519395
-0.0273331
0.0792726
-0.138369
0.304971
-0.166598
0.0241436
0.0536396
-0.0849633
0.0313237
0.160565
-0.303786
-0.345369
0.206604
0.138769
-0.0750538
0.151424
-0.16497
0.0239978
-0.166359
0.398178
-0.231807
-0.123784
0.184606
-0.179322
0.0545176
-0.00753461
-0.0714354
0.0829872
-0.0115519
-0.0138146
0.0121482
0.328702
-0.00974439
-0.0696592
0.0794036
0.316887
-0.161936
-0.15495
-0.0124524
-0.00279652
-0.0784465
-0.101487
-0.00294033
0.104428
-0.303954
0.16559
-0.167965
-0.0841135
-0.0202761
-0.0546693
0.102153
-0.0271468
-0.0750064
-0.109115
0.140024
0.00998816
-0.000827968
-0.00916019
0.079225
0.0180151
-0.170525
-0.0862926
0.231861
-0.0297291
0.000265905
-0.00253593
-0.0921443
0.00266636
0.089478
-0.436573
0.246683
0.189903
-0.075348
0.023247
0.0521011
0.242398
0.19468
-0.437072
0.107566
-0.136602
0.341364
-0.264866
-0.0764919
0.0530716
-0.0801098
0.0270383
0.00146863
0.196219
-0.396905
0.200697
0.123772
0.153272
0.0649437
-0.0797381
0.0147944
0.22078
-0.0644043
-0.012464
-0.0313311
0.0437951
0.011207
0.000639075
-0.011846
-0.0905876
0.104455
-0.0138674
-0.116401
-0.356222
0.0556413
0.300581
0.0934394
0.247932
0.248407
-0.366571
0.0109076
0.0595494
0.0205276
0.0575013
0.209106
-0.170531
-0.0385737
-0.00025991
-0.00153803
-0.396084
0.135968
-0.178357
-0.134535
0.0127779
-0.0229615
0.135982
0.159591
-0.295568
-0.0153106
0.00868927
-0.223456
0.402508
-0.179034
-0.00103435
-0.106304
0.107338
0.139121
-0.141464
0.293498
-0.152032
-0.289406
0.254169
0.0352395
-0.183278
0.425684
0.000357385
0.00939518
-0.203701
0.0402381
-0.197044
-0.226932
-0.00723955
0.0478977
-0.0406582
0.125076
-0.000307918
0.471021
-0.252237
-0.218775
0.110155
-0.103803
0.00806476
0.127459
-0.099912
0.34582
0.0263337
0.211049
-0.109349
0.00786167
-0.000280551
-0.000368905
0.0692454
0.0156201
-0.0848655
0.149216
0.135047
-0.284262
0.0511877
0.0198207
-0.0256851
-0.0736521
0.0993373
0.114758
-0.0218555
-0.0929025
-0.135228
-0.029742
-0.021696
0.109682
-0.0879858
0.0533305
-0.200301
0.10396
0.0963418
-0.12109
0.0212464
-0.204255
0.291772
0.142139
0.179333
-0.321467
-0.157613
0.336262
-0.178644
-0.00950011
-0.100809
0.11031
0.0777632
0.0574754
0.117926
-0.0125961
0.121761
0.148977
-0.270734
0.128564
-0.158946
0.0232899
-0.00207808
-0.0069088
0.00898688
0.0388059
-0.0893526
0.271182
0.360471
-0.0911243
-0.269341
-0.11517
0.109129
-0.0452175
-0.0639117
-0.144275
0.0130679
9.72975e-05
-0.0131651
0.317001
-0.180689
-0.13631
-0.124553
0.273602
0.0868743
0.0326771
0.0210253
-0.0537023
0.00144981
-0.00106633
-0.000383482
0.175559
-0.477321
0.0228977
0.149219
-0.172116
0.189491
0.213226
0.022421
-0.100544
0.462283
-0.250853
-0.211418
-0.185683
-0.0787427
0.264426
-0.0585441
0.0613195
-0.00277535
-0.36548
0.46104
0.161763
-0.308626
0.146867
-0.409118
0.222501
0.186619
-0.10529
0.05217
0.0531204
0.4359
-0.279688
-0.1562
0.284826
-0.137545
-0.147279
0.00579093
0.0259921
-0.031783
0.0173846
-0.0650441
0.0476595
0.0386615
-0.0219519
-0.0762939
-0.000674878
-0.00137691
0.00205178
0.111531
-0.0816415
-0.02989
0.180985
0.136019
-0.355759
0.100876
0.000746787
0.00941709
0.0376731
-0.223355
0.0347759
0.0834312
-0.017399
0.101622
0.125903
-0.0997909
-0.121753
-0.0311341
0.152887
-0.0849837
-0.127054
0.21204
-0.135746
0.0194143
0.176314
-0.205278
0.0289651
0.240163
-0.439037
0.198888
0.0822064
-0.0285667
0.0196684
-0.00755713
-0.0121112
0.126427
-0.0223151
-0.104112
0.15471
-0.454573
-0.0506622
0.0381982
0.0298716
0.00564174
0.00314808
-0.00729089
0.00798964
-0.00802974
-0.0824576
0.261612
-0.460622
0.199016
-0.386281
0.134959
-0.00512733
0.418849
-0.413684
0.021209
-0.45534
0.341319
0.114025
-0.242264
-0.0471388
0.00386805
0.000434694
-0.00430274
0.0325073
-0.104039
0.0945392
-0.19592
-0.159835
0.0949695
-0.0905965
-0.0717189
0.00430361
-0.228755
-0.216155
0.0877775
0.0708633
-0.100587
-0.049141
0.0573162
-0.0393302
-0.017986
-0.0992157
0.0847177
0.150563
-0.156296
-0.0375976
0.104454
-0.135536
0.424844
-0.209901
-0.214932
-0.00181086
0.0898351
-0.0880241
-0.170911
-0.0474334
-0.0308203
0.0578537
0.0212539
-0.0806138
-0.0196846
0.100298
-0.287842
0.147522
-0.0261842
0.125357
-0.000872692
0.00128724
-0.000414546
-0.0236334
0.00855456
0.0633553
0.0185966
-0.0819519
-0.0968661
0.00472181
0.00104934
0.0120185
-0.193722
0.118228
-0.32248
-0.0350477
-0.164111
0.19916
-0.00495844
-0.0503522
-0.305869
-0.126641
0.115757
0.0542636
0.0863478
0.10668
-0.00222441
-0.452172
0.175655
0.276528
-0.47552
0.205145
0.270384
-0.143868
0.234493
0.110569
-0.476048
-0.00194467
-0.0694907
-0.0197959
0.00957469
-0.0838185
0.0727744
0.0110442
-0.28462
0.199872
-0.00967612
0.0109075
-0.0012314
0.0950253
0.0273185
0.274328
-0.459446
0.185126
-0.0763251
-0.0648942
0.448147
0.0177272
-0.465837
-0.0174507
-0.0873725
0.104823
0.0471987
-0.201552
0.154354
0.158574
0.153351
-0.0023932
-0.0011309
0.0035241
-0.0114139
-0.00110076
0.00271436
-0.0016136
0.158432
-0.219705
0.0612753
-0.00525066
-0.00786466
-0.119171
0.0056451
-0.00693667
0.00129157
0.000993978
-0.00338718
-0.458499
-0.112667
0.0909715
0.0603944
-0.0692807
-0.196399
-0.190066
-0.21942
0.4095
-0.00599173
-0.00881289
0.0148046
0.133773
-0.218755
0.323203
-0.125357
-0.197843
0.0288899
0.0558925
-0.0847824
-0.0312181
0.345064
-0.0966427
0.129388
0.0281628
-0.15755
0.449895
-0.138247
0.163736
-0.0254885
0.0443623
0.0577909
-0.271296
-0.188142
-0.00299291
0.000947382
0.00204553
-0.136594
-0.26073
-0.214782
-0.0864657
0.0198119
0.0666538
-0.0848922
0.0986124
-0.0137202
0.0535257
-0.107088
0.376498
0.0742535
-0.0230657
0.161816
0.0983856
0.00513565
-0.288634
0.14648
-0.118776
0.312581
-0.1938
0.0490009
-0.0024746
-0.0465263
0.188526
0.21705
-0.405557
0.000577116
0.210299
-0.0765811
0.105022
0.0282699
-0.0390132
0.0212849
-0.0272934
-0.13689
-0.130572
0.142003
0.0822337
-0.198603
-0.146763
0.172865
0.00346436
-0.176329
-0.157577
0.0497124
-0.0806773
-0.0335552
0.114233
-0.234497
-0.186996
0.421514
-0.00195438
0.164378
-0.309866
0.145492
0.296561
-0.170965
-0.125594
-0.0784445
-0.026846
-0.0259989
0.0726581
-0.0466592
0.0396454
0.0867822
-0.348473
0.471178
0.0109707
-0.0169624
-0.0980364
0.108203
-0.0101663
0.157464
0.122228
-0.100388
-0.0218398
0.139561
-0.28887
0.156316
-0.00291164
0.0362962
-0.0333845
-0.112603
-0.259208
0.140437
-0.129007
0.266451
-0.137441
-0.00100711
-5.92114e-05
-0.154019
-0.119482
0.273504
0.319193
-0.199476
-0.119714
0.00335658
-0.171087
0.03284
0.00100711
0.00573034
-0.00673745
-0.138687
0.0623618
-0.342347
-0.100619
-0.218648
0.408149
-0.00915727
0.171619
-0.145403
-0.0262155
0.156309
0.160579
-0.0335764
-0.008631
0.00726155
-0.00758311
0.000321557
0.323101
0.11281
-0.00268138
-0.00636088
0.00904226
-0.0860615
0.00544779
0.208983
0.0559183
-0.264899
-0.253397
0.142093
0.111304
-0.0477353
-0.0325952
-0.0394822
0.328227
-0.288742
0.0562031
0.0143981
-0.0706012
0.109513
0.0198599
-0.368319
0.0830506
-0.0651044
-0.00589435
0.00314869
0.00274565
-0.011124
0.263503
-0.102858
-0.160643
0.0117725
-0.0108671
-0.000905419
-0.116198
-0.0195476
0.0176892
0.0254589
-0.0656427