/*--------------------------------*- C++ -*----------------------------------*\
| =========                 |                                                 |
| \\      /  F ield         | OpenFOAM: The Open Source CFD Toolbox           |
|  \\    /   O peration     | Version:  v2012                                 |
|   \\  /    A nd           | Website:  www.openfoam.com                      |
|    \\/     M anipulation  |                                                 |
\*---------------------------------------------------------------------------*/
FoamFile
{
    version     2.0;
    format      ascii;
    class       volScalarField;
    location    "200";
    object      omega;
}
// * * * * * * * * * * * * * * * * * * * * * * * * * * * * * * * * * * * * * //

dimensions      [0 0 -1 0 0 0 0];


internalField   nonuniform List<scalar> 
18355
(
0.0338529
5.3541
0.0218926
0.0216607
0.0223505
0.0717532
0.0219566
0.0558963
0.0233011
5.12673
0.0215211
6.72208
0.0940635
0.021973
0.0220657
0.023583
7.24379
0.021734
0.0220299
4.05358
0.0254921
0.0223871
5.73513
0.0223571
0.0247654
0.0221474
0.0220715
0.0230915
2.13715
0.0219554
0.0219688
0.0230597
0.0217356
0.0217959
0.053248
0.0348634
0.0225363
0.167466
0.0229868
0.021537
0.0219727
0.0840971
0.0218943
7.13443
0.0217693
0.17642
0.0502673
0.0238018
0.0448068
0.0217555
0.0215527
0.0218312
0.0222769
4.87551
0.0220869
0.022074
0.0986641
0.0220903
3.65508
0.136544
0.0217613
0.0591549
0.0217165
0.0429117
6.06176
0.0328243
6.44851
0.0321694
0.0220776
0.0223167
0.0611728
0.0222567
0.146201
0.0217995
0.0560306
0.0219527
6.06839
0.0230173
0.0272957
0.0218112
0.0219686
0.818944
0.0252771
0.0456233
0.0221395
0.0923289
5.02571
4.0358
2.13854
5.55645
0.310699
0.0218295
0.0221107
0.0214804
22.4771
5.48934
0.0217686
0.0253366
4.6629
6.21102
5.07997
6.60333
0.0421814
1.93432
0.0225664
0.099088
10.3147
0.137154
0.0309704
0.393026
0.0219269
0.022794
0.0221489
0.0229129
4.25161
0.0220038
4.74444
6.06198
4.4712
0.0423435
4.84939
3.27827
0.022956
0.0607436
0.0217688
0.147942
0.0218269
0.0222616
8.37982
0.0214869
0.0215593
3.28426
0.0452086
0.0251277
0.0416996
0.0222575
0.0219122
0.0215189
0.0219504
0.0788898
3.97166
2.26176
0.0223564
0.0219255
0.43113
0.0222776
0.0255489
6.57494
0.0233936
6.74552
0.0221925
0.0223017
0.0499619
3.70095
0.0684704
0.0222699
3.17857
3.65629
0.0222674
0.063526
0.026805
0.0243676
0.029879
0.025473
0.204561
2.10524
9.39754
0.042222
0.206673
0.0217697
3.14444
5.27363
0.0215242
0.0215288
0.0235644
7.37852
0.0535935
0.0221026
5.08231
23.4748
0.0768917
0.204377
0.0270953
0.0219115
0.235158
6.9404
5.9867
0.209475
0.0233627
8.35519
0.0963345
0.0218977
0.0253019
2.76761
0.048064
0.0223567
3.84538
0.0267862
0.0368136
0.0215316
0.0227291
0.0240671
12.5282
5.70321
25.3675
0.0282722
3.4621
5.16624
5.35351
0.0363703
0.0219173
0.0221358
3.92257
0.0222974
0.0217718
0.754132
4.63997
3.93059
0.0221561
0.0233318
0.580357
0.0219426
0.0441739
0.0218957
8.13548
0.0221926
4.97055
6.98665
0.125895
0.0219173
0.0222737
0.0268414
0.0260389
5.10489
0.0227064
0.0221404
0.0221115
0.198799
0.425555
31.98
0.0302939
0.206772
0.0220224
0.0217826
0.0222502
9.01885
8.16086
3.2079
0.0675908
0.0266804
0.0227364
6.89058
0.0272852
5.55084
0.0221176
5.08723
4.45678
0.0638425
0.0219512
0.0219134
0.0318386
0.0671455
15.4564
0.0468699
0.0218281
0.0217717
0.0222631
0.227861
0.082286
0.107007
0.0227564
7.90499
0.224978
0.0948326
0.0221709
3.97597
0.0218152
0.0219854
9.7278
0.0218093
0.0219508
0.0974228
0.0219037
4.92691
0.0270622
0.0242773
0.0218284
0.04223
5.97467
0.0230957
0.021668
0.0219853
0.122184
4.30573
0.0222669
0.0222792
4.66059
0.0447834
0.0687413
0.251967
0.0219906
0.0625181
0.0225367
0.0222689
0.238772
0.218448
0.599804
0.129606
0.021496
0.0851852
0.022455
0.0220281
6.22544
0.0219095
0.232443
0.0826799
0.0221032
0.0215853
0.214658
23.9819
5.39267
0.022134
0.0290643
8.17659
0.0216594
0.444444
0.0269003
0.0329532
0.378146
0.0214987
3.15558
0.0219961
0.0445173
0.0221228
0.0677346
5.60559
0.0222709
18.4922
0.034448
0.0220416
0.0487022
0.0599715
3.06082
4.75696
1.83716
0.0221028
0.0217101
5.70544
0.0612728
0.022119
0.0225104
1.64699
0.23358
4.19112
5.99049
0.0220968
0.0232363
3.4105
0.0219229
0.022619
0.265668
0.0367072
0.0238398
19.0012
0.0222755
0.0469753
0.691144
34.002
0.0216628
0.0220019
0.0219587
0.0217786
0.0658369
0.0217775
0.0399641
0.0219621
0.024152
0.0220997
0.023176
0.0217797
0.022016
0.0217708
0.0217672
0.023241
0.124921
2.71099
0.0218931
4.62578
0.0344476
2.70371
0.0312636
0.0730862
0.022301
3.97632
0.0224556
0.0220087
0.022134
0.0216316
4.58369
0.0239239
0.0216656
0.0418768
0.0394209
0.021924
0.0216549
5.33113
0.0223146
0.0218202
4.98385
0.0219065
3.47811
8.54536
0.26701
0.0252387
0.0225516
5.36204
0.0222454
0.0219275
4.40018
0.0222692
0.0215262
8.78561
0.0217924
5.36257
0.040889
0.0575742
7.25889
0.022436
0.0219291
5.86007
0.0705306
3.35487
2.31673
0.0219689
0.021921
0.0222596
4.82574
0.0438986
0.0220559
0.0222748
0.0222802
0.0490318
3.72622
0.0272655
0.02222
0.0222753
0.0307972
0.332664
4.28887
5.09647
5.71552
0.0524986
0.0470304
5.74622
0.0219773
0.0218362
0.0219856
0.0218882
0.0635264
0.0220129
0.0216159
6.8412
0.0500557
0.0461
5.75887
0.0546226
8.8516
0.0218852
0.0217717
0.0219365
0.0219741
0.0222834
0.0222812
0.0219964
2.12904
0.0221307
0.0215326
2.26525
0.13951
0.0218449
0.0227493
0.0564152
11.2691
0.0233338
0.0217639
3.13909
0.0237827
4.58994
0.0271846
0.0217885
6.55629
0.138981
0.0217284
5.80279
2.81202
5.88409
0.0217895
0.0217515
0.0255609
0.116239
0.0223683
6.69811
4.63909
4.14892
1.73879
0.0216231
0.040395
4.64535
5.50436
4.34416
0.0221372
0.0266034
0.0267936
4.84509
6.16635
0.333511
0.0221966
0.0219498
0.0221251
0.0446775
0.0220015
5.60578
0.0270422
4.33024
0.021971
0.0222349
0.0219122
0.0314023
0.0317389
0.316885
0.0219206
0.0923391
4.65483
0.0293095
0.0219513
0.0239081
0.0300896
0.0222718
0.0318661
0.037196
0.0290351
0.14671
0.0225881
0.0217246
0.0219905
0.0222787
0.0405869
0.0238136
0.0595982
0.0218788
0.0223569
5.83908
0.0215093
0.0323862
0.0224819
0.153097
0.0240518
4.5793
0.0224051
31.2138
0.0258421
0.0238801
4.48096
5.77036
10.8438
0.0293606
0.0237345
0.0217994
0.0219499
0.0950242
0.047205
0.0328542
0.0797694
2.19142
0.210891
0.0219268
5.75619
5.15546
0.0228677
0.0219473
0.0322057
5.29085
0.0319619
0.0222162
0.0586028
0.136173
0.05483
0.03014
3.58113
0.0251114
0.0926575
8.67539
0.410792
6.0786
0.0560742
0.168307
0.0266535
0.0220784
0.0229021
0.0219474
0.30348
0.327932
5.82174
0.120726
5.27789
6.79755
0.0551013
0.0238538
7.18943
10.7929
0.0215328
0.131124
3.76287
7.65693
0.0274236
0.0216084
0.0250434
0.0254608
0.0297636
0.0828934
0.0219078
31.413
0.0233178
0.0247593
4.78969
0.0218755
0.0324209
4.48033
0.0219347
0.0227778
5.53303
0.0217574
0.0922727
0.0215077
5.11863
0.0295536
0.0390531
0.0330443
0.0250535
0.113508
0.0248032
6.40725
0.0673509
0.0219116
9.58928
0.0395681
3.63167
8.00921
0.920767
0.306202
0.0219223
0.021636
3.20852
0.0240196
0.032401
0.0222392
0.0267557
5.62418
6.84761
0.0412159
17.4742
0.0612842
0.0233853
0.0216102
0.0222292
0.0431976
0.0802648
0.0216828
10.8731
0.0289861
0.0447114
0.0219867
5.55709
5.11317
0.0219576
0.021538
0.0707819
0.0222463
0.0217251
4.23413
0.130083
0.0223618
0.0219466
0.132251
0.0448038
0.0276983
0.058713
0.0220079
4.31305
0.0483528
0.0221709
0.312744
5.2167
0.021956
6.76811
0.0216577
0.0219371
0.022342
0.0347982
5.23028
0.0339317
7.56364
0.0324113
3.85545
2.67667
0.0265821
5.47764
0.0220136
9.77029
0.0228417
6.35599
5.19621
0.0221597
4.46272
0.0249325
0.026149
10.9619
0.0762923
5.14919
0.0218138
4.69062
0.0219583
5.4376
0.0220653
0.0272868
0.0294887
0.021806
0.0216105
0.0487667
2.75788
6.91013
0.0219274
2.44827
0.0263405
0.0218127
0.0221182
0.0278467
0.123688
10.7557
0.0328182
0.0220449
0.0268932
4.17658
0.0271647
0.0219124
0.0218032
0.0274523
0.0293732
13.9031
0.02187
0.80191
0.0486075
3.93679
5.83374
5.18666
0.0215838
0.053665
0.0218944
0.0222733
0.0273001
3.13595
0.0218331
0.0218004
0.0217784
10.2242
0.0232849
0.0219368
0.032782
0.0310625
6.16202
8.46115
0.0219295
0.021972
5.90365
0.0221689
5.49484
4.68198
5.18076
0.173431
0.226064
4.23597
0.0299196
0.0221652
0.0217902
0.0220202
0.0222779
0.0221111
0.022307
9.13365
16.2577
0.0221849
0.0893457
0.0217683
0.02345
0.0387947
0.0220872
0.0249509
0.0228685
0.488665
3.04302
0.0616176
5.03554
0.0498907
8.69022
0.0857497
3.88982
5.78726
0.0489972
4.21449
0.229264
7.39725
0.0217866
0.0219654
0.0219766
0.0256262
4.04365
0.0217674
0.0222764
0.0786344
0.0218343
0.0437351
0.0410117
0.0222173
4.05206
0.021888
0.0219718
0.139838
0.0216903
0.173293
0.444103
0.0221017
0.0227232
0.0218142
0.062306
0.0218277
0.02343
1.27841
0.0219819
5.8243
0.022099
5.99742
0.0243754
0.096292
0.0219536
0.0655552
0.0377397
0.0221719
0.0221088
6.07303
0.0219443
9.2446
8.33374
0.0227419
0.0221125
0.0220798
0.0215705
3.89833
0.0219473
6.29334
14.1732
0.044439
7.269
0.0218271
0.0218928
5.43624
5.53077
0.0244879
0.0219997
0.0219346
0.0217797
0.023049
0.0439375
1.11974
0.0247602
5.60846
2.62776
4.50737
0.0331145
0.0218614
10.3347
2.98305
0.032937
0.0219569
0.0221184
6.22056
0.0220073
4.4705
0.0637132
0.0222528
0.0280249
0.0216196
0.0324654
0.026413
0.0218374
0.0215176
0.0229282
7.07585
0.0222225
0.0545615
5.9434
0.0220867
0.021906
0.0452543
2.72062
0.0303649
5.32836
0.0224452
0.0215628
0.0234219
9.19967
0.435216
1.81478
0.021877
0.0308418
0.0219947
5.19594
0.0216552
3.99903
0.0471903
3.20788
0.0221916
0.0219216
0.225373
0.0219223
8.77547
0.0219441
3.27679
0.0222562
0.0217783
0.0240589
0.616652
5.13255
0.0263115
0.022385
0.0224578
0.0219113
0.0216765
0.0222809
0.108554
0.0223407
3.90431
0.0236775
5.28302
0.0218339
0.0215883
0.987967
5.5184
6.66564
0.0224579
4.62606
0.0218569
9.72304
0.0225134
0.186182
0.0218061
6.64344
0.0218832
0.0263805
0.0220472
0.0219025
0.0222617
4.51346
1.04808
4.3549
0.0334914
0.0256062
0.0244876
0.0219894
0.0216686
0.0217577
0.0233067
0.164278
0.0220237
26.36
0.107269
0.0219969
0.0225387
12.5104
0.0956403
0.0233785
0.0243658
0.032977
5.38447
0.050548
10.2952
0.054012
0.0667966
0.148687
0.021983
0.0218684
0.0783701
0.0413507
0.0218078
3.0045
0.0285565
5.15532
0.0223539
0.308804
0.0335757
0.0633042
0.0272694
0.0220579
1.2946
0.0219121
20.0922
0.0220064
0.0220516
5.2929
0.0308882
0.0263183
10.8486
0.0218652
0.0964733
9.47184
0.0219438
0.0711735
7.5209
0.0228719
0.0218724
0.0219255
0.0238889
0.0238771
0.0683503
4.30839
0.0230798
0.0264024
4.98848
0.0216051
7.54235
0.0242946
0.02332
0.435055
6.75417
0.0217466
0.0219036
0.0236974
0.0216958
0.0216766
7.475
0.0222707
0.0264989
0.0215951
0.0572902
0.021728
0.122059
0.880452
0.0227428
4.48568
0.0219362
0.0235617
0.0218991
4.76652
0.0282097
0.0218668
0.0219933
0.0221023
0.0218833
0.0985655
5.59043
9.0531
8.69224
0.0221842
0.0224267
0.0684705
0.0221557
0.0216614
1.70174
5.12777
0.0236596
0.0218999
8.3251
0.0222262
0.0221865
4.08683
0.0722099
4.62741
0.0232126
0.0218578
5.05354
0.0221722
0.0324927
0.0222224
0.0287914
0.0219771
0.073037
0.17657
0.0397001
0.0221023
9.91226
0.0227147
0.0218714
0.0221418
0.0220097
0.021924
0.0220587
5.86864
0.0223711
4.11082
0.0222152
0.0275175
5.73268
0.0218058
0.298604
0.0232126
0.0217963
0.0236049
0.0675618
0.0220353
0.0218119
0.0221285
0.0219676
0.0510374
0.0216891
0.0224505
0.0290513
0.0220943
0.0320663
11.7888
3.89193
4.35337
7.32205
0.0952335
0.0630302
8.5633
3.93775
0.0218624
0.0222744
0.021634
0.12575
4.83383
0.0382718
0.0253231
0.0215911
0.0219059
0.0221595
0.0232314
25.928
16.4535
9.88156
0.0640205
0.0221052
0.0222361
0.0221573
6.633
3.11183
0.0217967
2.50472
0.0216697
0.0318
0.0229567
0.0406194
0.0311924
0.384352
0.023209
0.121929
0.0216431
0.0219032
0.0838158
0.0219245
0.0220647
0.0515767
0.202312
0.0221301
0.0747672
0.021926
0.0219742
0.0218027
0.0219517
5.67166
0.0298685
0.0230584
0.0221375
4.57924
0.138703
0.0220758
0.032084
0.0299627
5.13735
0.82796
5.57634
0.194231
0.0574171
0.104106
0.131474
0.0800123
5.26512
0.0215826
0.0219122
0.0219143
0.131963
0.0222033
10.0944
0.0217659
0.0221597
5.37761
0.0544255
0.0224161
0.0758708
0.0219511
0.0230251
0.780056
0.305744
0.0219437
0.713975
0.13485
23.0248
4.64238
0.0219966
6.47589
0.0219228
0.0651131
0.0218684
0.0218421
5.18718
0.0445833
0.0235238
0.0219176
4.98557
0.0249313
4.3157
6.11859
0.022263
0.0216429
0.0246044
5.87934
0.228657
0.0386657
0.0330215
0.210346
0.0219782
0.0224066
0.021795
0.0218873
0.0231931
0.0546525
9.02604
0.0644745
0.100847
5.36678
0.0220025
3.02459
0.135007
0.0497689
0.022193
0.0219802
0.0219148
0.0219181
0.0219439
26.4748
0.161112
4.88501
0.0646343
0.0889398
0.022219
0.0932708
6.05976
0.0235749
0.0248314
0.0218583
11.4837
4.1397
0.0951211
0.100745
0.0219784
4.9885
0.0226898
0.024542
0.0375928
0.0803969
0.021644
0.0661833
5.00893
0.0222776
27.8258
19.83
5.9265
26.6145
0.0355835
0.419843
0.0565879
0.0540104
5.14331
0.0218111
0.0330834
0.0216789
0.0222514
6.38507
0.0228997
6.10255
0.0217009
0.0218861
4.77551
0.0219346
14.9514
0.0227616
0.467704
0.023145
0.0221853
6.0484
0.0245214
0.0614468
0.0218743
0.0217609
0.210394
0.213653
0.0220593
0.0282081
0.811356
0.0564144
2.43461
0.0222618
0.0219466
0.0215237
0.0219231
0.0257748
0.0565166
0.0216336
5.73085
0.0218799
0.0220413
0.0600312
6.51472
0.176413
0.0278163
0.0217689
0.022497
0.078547
2.03887
1.2495
12.1133
0.0259536
0.0363424
0.238672
0.0218668
0.0545372
4.52928
0.0219407
0.202236
4.89014
0.337472
0.349921
5.71694
0.0702147
0.0221082
1.9123
0.0265177
0.0399864
0.161839
0.0218676
0.109923
0.021869
0.0219759
0.0482253
7.76783
0.0342441
0.0219426
0.0410486
8.0413
0.0813944
3.40454
0.0219215
4.60692
0.0216511
0.0775217
0.113615
0.021914
5.62737
0.0218037
0.0218403
0.0220721
0.0219366
5.78459
0.0711329
0.0222527
5.33691
0.0220819
6.34523
0.0216609
2.5773
0.0476321
0.247935
0.0246495
0.021912
0.0216809
0.0220746
0.284324
0.120389
0.0221295
0.0399603
2.90486
6.04863
0.039924
3.89844
6.52608
0.0219151
8.47089
0.0217894
0.217161
0.022006
0.0220801
0.0220133
0.0688679
5.04806
0.211615
0.101144
5.02361
0.457733
0.260423
4.75269
0.021873
0.0773625
8.51865
0.0215354
0.0475998
5.39139
0.202761
0.0218945
3.87503
0.0663292
2.50543
4.76569
0.0266869
0.225065
0.0246766
0.0218667
0.021587
5.0018
0.175413
0.256091
0.162858
0.0219068
3.44254
0.0343943
0.0215053
0.0224759
0.0608001
0.023906
0.022216
0.0222691
0.951577
0.021896
0.0424692
10.8898
0.0216832
0.0218917
3.03767
0.0218502
0.0433833
0.0266728
0.132664
2.26915
0.0219246
0.0568283
0.0275663
0.0772326
0.0270794
0.0246984
0.0964011
0.853224
0.0501494
6.06969
0.0845004
0.0221069
0.220293
4.30451
0.0671962
0.0217824
0.0220512
0.129412
0.0229967
6.77711
0.633843
0.0279062
2.29225
0.0234003
0.191843
4.34337
0.0219724
0.0221282
0.0220712
0.0219923
1.26504
0.348456
0.0248585
0.191859
0.252695
0.0472092
0.022062
0.0237402
0.0594922
0.0219379
0.0218697
1.86882
0.0226666
4.42582
0.0218214
0.0219982
0.0222725
0.0709545
0.038259
0.0395132
0.0220673
0.0229829
6.08076
2.43528
2.82078
4.13525
0.0256544
0.0224552
6.39323
0.0897787
5.45583
0.053844
0.021884
0.0541604
0.0265505
0.0223288
0.0217936
0.093408
0.067929
5.28791
0.0826067
0.343881
0.0221623
0.0229222
0.0219119
0.101721
10.5072
0.194266
3.40481
0.0218647
5.03296
0.0227493
0.0219702
0.024029
0.0221721
0.873413
0.0219566
0.0730649
0.0216775
2.95532
0.0327569
8.1443
0.0224072
0.0220071
0.0244777
0.0217126
0.0889769
3.74667
6.2707
0.0542201
0.0216322
6.58122
0.0580686
0.0219285
0.0672832
0.0217387
0.0238225
0.0215217
1.01136
0.024685
0.070583
0.0522809
0.0217649
13.0862
0.0216345
0.0250047
0.0223691
0.0237196
0.021748
0.0219263
0.02993
0.0222817
0.0250761
0.0216925
0.0237684
2.03956
4.49076
0.022506
0.0405393
6.06711
0.021916
0.0221576
0.0309488
0.100557
0.0219382
0.0570328
3.83319
0.023042
5.51274
4.68229
0.0219433
0.0225387
0.0601016
0.0214668
2.78969
4.02953
5.07087
0.0229802
0.0277425
0.021494
2.09068
0.0285116
0.506561
0.0222428
0.143963
8.77724
0.0695424
0.0234398
3.67374
7.77853
5.11579
0.022426
0.0217589
6.70022
2.70079
0.02181
0.0221019
0.46581
0.0224975
0.233478
1.97471
0.0217399
0.0225326
4.11408
0.0625916
0.0225848
0.0214962
0.0421509
0.0222944
0.271139
0.0218798
0.0221056
0.0219648
0.0230341
0.0220673
0.107414
0.0217446
0.0257662
3.94006
4.88586
8.39103
0.021824
0.0799616
0.0682025
0.0220934
0.0247092
0.0381276
0.0219073
0.0238102
5.50652
0.0554414
0.0219466
0.0220075
0.0217724
5.38706
5.13575
0.0217255
0.0222769
0.0219855
0.0530859
6.09358
0.0236987
0.0785478
0.022144
0.0624895
0.0270311
0.330758
11.1965
0.0222698
0.835967
5.79017
0.0407105
0.0218243
0.0412628
0.0283791
0.0438098
0.0264748
0.0218065
0.0944554
0.0271687
1.54411
0.0418746
0.0222246
0.0222818
3.93506
0.0221444
0.0233922
0.20532
0.0424801
7.02752
2.65841
0.0217831
0.253829
0.781283
0.319425
0.0449445
0.023757
0.0220645
5.057
0.0455466
0.02183
0.0716919
0.0641212
2.22541
5.39891
0.0220645
0.0280711
0.0222481
0.209527
0.998436
0.0221875
0.060575
0.0258506
0.0233244
0.022189
9.88521
0.0707029
0.0219449
0.0236835
6.16425
0.0222614
0.02201
0.0260813
0.0705059
0.021968
0.0221613
0.0235289
8.78114
0.0298451
0.021822
0.0218335
0.0218921
0.124625
0.0219962
0.0219419
0.364864
6.71121
0.0218722
0.0222644
0.0519008
0.0291116
0.0908752
0.0221279
2.41141
0.0219047
0.0228392
0.0288152
6.54853
11.7976
0.448022
0.0395921
5.40445
2.1014
9.80059
5.7601
0.0243945
0.0219434
0.0216906
0.0414587
0.0218895
0.021944
0.0219097
0.188377
0.0218864
7.1702
0.0313505
5.65583
0.0218837
4.90498
0.0219837
0.0276039
0.0216937
0.0229586
0.0407083
0.669253
0.0221811
0.021848
0.0248642
5.1176
0.0219072
0.0379806
0.0221936
0.0383789
6.09873
0.246853
3.7919
0.0306862
0.220109
0.0221266
4.74663
10.3946
0.0218822
5.68875
2.30445
0.0219035
0.0215214
0.0458345
0.0305512
0.043552
0.0216969
6.55253
0.0328954
0.0615468
0.0216134
0.021956
0.0261155
5.52152
3.23959
5.58748
0.041609
5.81086
0.0391361
11.1798
0.0219395
2.67945
0.0219733
0.0268569
1.73864
0.0232083
0.215829
0.0218807
0.0245018
5.93701
5.59524
0.0219656
2.59843
0.0220016
5.96014
0.0218022
6.07377
5.14584
0.0218135
5.91498
0.0272717
5.58603
0.0219703
0.0263175
0.0228786
0.0873763
0.0220221
0.467451
0.0218046
5.9733
0.0822119
5.89538
0.0221312
0.0216932
0.776056
0.0230925
0.0317456
0.0218866
0.0826138
0.0244825
0.0219677
2.72778
0.0220428
0.0219352
0.0222734
0.0221077
4.04932
0.0387361
0.0219537
5.66109
3.96937
0.525596
0.021684
0.0927377
3.45316
0.0218343
0.0258339
0.0223522
0.0220449
0.021951
0.0219895
0.0271074
0.0280369
5.31581
0.336022
0.239337
0.0222776
0.0219513
3.99136
0.034189
0.021922
0.0223263
5.20358
5.71815
0.0219788
5.70305
0.039071
0.547404
0.0222785
5.36267
0.0217537
0.0228361
0.0221016
0.0218859
0.0234597
6.39289
0.0217365
5.0775
0.171593
3.70786
3.17925
0.0221036
0.022
4.54525
0.0669869
0.098486
0.0219762
0.0992515
0.0222094
5.70531
5.59385
4.00868
0.0220694
5.76264
11.4165
4.68223
0.518052
0.0256081
0.132546
0.021868
0.355205
5.6487
0.0285549
4.13433
0.0218189
0.022042
0.0699965
3.3375
0.0401081
0.574658
0.0219883
9.07519
0.038438
0.0516146
0.0218207
0.0408328
0.23923
0.0220383
0.0375893
0.0403181
0.234024
0.0215797
0.0219014
4.6662
5.48659
0.0237977
4.94304
0.0393351
0.0219935
7.74491
9.44665
0.0220988
0.548038
0.021706
0.0220719
0.0447778
4.91984
0.0223027
5.19421
0.0234691
0.0219286
5.28389
0.022165
0.0630161
0.0218558
2.49503
0.0220248
5.27403
0.0217739
0.0552796
0.0218479
0.027578
0.239173
5.8086
0.0491629
8.68054
0.0283019
4.84528
8.57237
4.25873
0.0218704
9.79586
10.9402
3.51237
0.313032
0.0224391
0.0218499
0.0219429
9.46752
0.0219421
0.0220416
0.398672
0.0222411
8.22531
0.023009
5.93542
0.02195
0.0222301
0.101589
0.0215547
0.0511878
0.0218618
0.0745621
0.0970982
2.20362
0.0218132
0.0218994
6.01005
12.6406
0.0222444
0.0302481
0.0344315
0.0225761
7.11057
5.41867
5.9465
0.151074
4.98559
4.684
0.209954
0.0218986
0.0217909
0.0228609
0.02194
0.0329152
7.22154
6.79339
0.0220908
0.0237588
0.0226697
2.37611
7.76137
8.09218
2.92706
0.0220752
2.88751
5.31745
0.0264655
4.4941
0.0462983
0.0220965
5.95887
4.32637
4.38975
0.0222072
0.0229692
0.0432034
0.37441
0.0218213
0.0220447
0.0222428
0.021829
0.0220415
6.27168
0.0238547
0.0216917
9.32881
0.0221067
5.89661
0.0412565
5.79311
0.338235
0.0219798
6.39232
0.14218
0.948741
0.0227514
0.0279942
0.0220144
0.0230133
6.80452
0.134292
0.0804012
0.0224442
0.0219308
0.144064
0.0232535
0.0220633
0.0273236
0.0219327
4.85125
0.0219997
5.18856
8.81318
0.0233603
0.0219817
8.39508
0.0218685
0.0216733
1.22848
0.0245198
0.0236501
0.0856959
1.87216
6.03552
0.0336769
0.0234767
0.0222741
5.1783
2.20517
0.023419
0.0346153
0.0218811
0.0218003
0.0238937
0.0217115
0.294621
0.0288911
0.0220191
0.0222205
0.0220955
0.0218994
0.0218357
0.0219061
2.57813
4.63205
8.41756
0.377463
4.03552
0.44575
0.0247402
5.36796
4.68963
4.42459
0.0220944
0.02167
3.7168
5.88337
0.433038
0.237358
7.74321
0.0220973
0.0219254
4.04092
0.0218444
0.128784
0.14231
0.0225098
10.5678
3.98278
0.0222611
11.0413
7.09823
0.156913
0.697363
0.022209
4.52632
0.577666
6.31765
0.0218522
0.0666638
2.48365
0.0219152
0.038876
0.0217251
0.0500437
0.0220987
6.6155
0.825978
0.0220189
0.023211
0.0223981
5.0975
0.0422287
0.0221533
0.0222259
4.80661
0.0219168
0.0232131
0.117407
0.463096
0.0224965
0.077725
0.0495847
0.0219445
0.134074
0.0219292
0.0219564
0.0266855
0.0219647
0.0303453
5.24233
0.225568
0.022001
13.0354
3.44338
0.293698
7.46548
0.0392716
0.0234764
5.57312
0.0262798
0.0241454
0.0466016
0.078275
0.0218731
0.0217232
0.0221114
0.498372
5.03537
6.16413
4.96518
0.021823
0.0259493
0.0791607
0.16854
5.34018
0.0221384
4.17856
0.022344
8.07432
0.0215697
5.37488
0.0227121
15.1213
7.29122
0.0875572
5.10995
0.0584913
0.0218368
0.0846447
5.49871
15.5115
0.0261272
0.0223618
0.0219559
0.0221138
0.0291053
0.0222868
0.0235728
0.0218225
0.0576014
0.0220092
5.64296
0.0222243
4.76455
0.0216776
0.142756
9.08452
0.022998
2.60222
0.0220171
0.0272682
0.0221395
0.0222001
0.0219236
0.380083
0.219074
0.0218031
0.0242801
0.0219698
4.04422
0.0305223
0.525846
0.205321
0.0219771
0.0479403
0.0226458
0.0229033
0.0465811
0.0221081
0.0557475
8.92869
0.0220304
5.02684
0.0273942
0.0218891
0.0217249
10.6098
0.0219937
5.93155
0.187969
0.022269
3.28229
0.11446
4.34159
0.0257627
0.0251451
0.0221042
0.0632441
4.19819
0.022138
0.046058
0.0220605
0.089299
3.0262
2.13804
6.44069
21.9939
0.0293921
2.47903
0.0221318
4.74237
0.572409
0.0263575
0.489336
0.0621842
0.021573
0.0484891
0.0220046
0.0217619
0.024283
0.0219457
1.69013
2.01756
0.142354
2.11745
0.0220771
3.78314
0.0220614
0.0219685
0.0429823
5.16083
0.0217316
5.57658
0.0981258
0.0967089
6.49859
0.0222188
0.0460921
6.86406
0.0445089
0.0219422
0.434587
0.0219614
0.0221306
0.0222416
2.02474
10.2152
0.0255561
0.022103
4.94052
10.6287
0.0222837
0.0222355
2.40299
6.89426
0.0222343
0.30835
0.125464
0.0218836
0.0300675
0.0217018
4.77351
0.0219837
9.63543
6.54413
5.88696
0.0248155
0.0322933
0.0217944
0.0218023
3.17535
0.0218463
8.6339
4.55713
0.0807339
0.0218487
0.021689
0.682161
0.314405
0.0529028
8.35686
0.0946813
1.99034
0.0229696
5.06416
2.58563
0.0266639
0.409238
6.45965
2.49478
0.0220519
7.08814
0.0217406
1.71264
0.284575
1.16982
0.0216303
0.0418842
0.0221079
1.10164
3.92397
0.0226353
0.0228682
10.0062
4.61471
0.021979
5.10926
3.42299
1.34693
0.022216
6.20358
0.0221534
7.39362
0.0221144
0.0226592
0.022206
0.0219841
7.74054
0.602439
0.0217197
3.96254
5.68441
0.0215365
0.0216888
0.0415985
0.0663911
0.0880858
0.0493512
26.5679
4.41304
5.01929
6.50382
0.0876265
0.0230729
0.139341
0.117906
5.16742
4.74486
5.83173
0.0907988
0.0502949
0.0245193
5.7335
0.0889645
0.70388
0.022185
0.0255494
11.3651
0.022097
0.0291469
0.571417
0.0240921
0.0420347
0.0220038
0.0231084
6.09107
0.319942
0.0216355
0.0255507
11.3713
0.252765
0.0307012
1.83549
2.98709
0.0441545
0.185247
4.92906
0.0225863
5.38681
0.0921727
2.47924
0.0221461
0.0214726
2.59748
4.91452
5.3193
7.20423
4.12777
0.0407086
0.0798116
0.0239066
4.95407
0.021875
0.0220286
0.0442763
0.0757343
0.105519
6.31483
0.0228471
4.87195
5.38352
0.0223075
0.0899431
0.0232491
0.230882
0.136209
0.0407187
5.67974
5.27815
4.22671
2.00555
0.0321799
0.0219592
0.02259
0.0273798
1.07473
7.27846
5.59784
9.30746
0.0526585
0.0218044
0.28419
0.0400855
5.16668
0.0220986
11.8303
0.058305
6.16832
0.0220948
4.49925
0.0960136
0.063948
1.40944
0.0217187
2.09918
5.71473
0.0218212
0.0887962
5.14247
0.0223817
0.36974
0.0232061
0.0230094
0.0222584
4.37626
0.0465546
1.6724
0.0286704
7.78447
0.0217483
0.0215182
0.0218843
0.0220653
0.0219576
8.43643
0.430152
5.51338
0.0222112
0.0217705
7.14078
0.0284501
4.1885
0.0863681
0.0219095
1.08671
0.0305655
0.0373534
6.25598
0.0265026
38.3454
0.70339
0.0276169
0.0216199
0.238661
0.0215342
0.662259
9.57782
0.198751
0.0217925
7.48166
0.372861
0.0219793
2.06482
0.0221312
6.14767
5.55293
0.0281125
0.0250365
0.0736936
0.0386869
0.0222266
0.0216335
0.0219769
21.0718
0.0252868
2.42114
0.670799
11.2403
0.416846
0.122491
0.0219922
0.195881
7.66892
0.0249118
0.0218736
0.0239291
0.0222264
8.66182
0.0852373
5.62184
0.022001
4.1327
2.70594
5.12022
7.70348
0.0219823
3.04569
2.4896
0.0219745
0.022281
1.90394
4.07069
0.0263321
0.444952
3.56024
7.02318
0.0291255
0.0228873
0.488819
0.042149
0.0231175
0.0274095
0.0221221
0.0783925
4.99754
0.0586496
0.0228053
10.3466
0.134166
0.0216441
0.190367
0.237614
0.0736811
0.0512576
0.0216558
0.0217985
2.25311
3.20333
0.0404435
0.0218345
4.43268
0.482851
0.453329
3.00279
0.0234846
0.0216507
0.0220993
0.022204
0.0292996
5.0158
0.0860879
0.0223915
0.121614
0.0220697
5.36845
0.0230972
4.13133
0.0228467
1.05851
0.0500827
4.91551
0.0219507
0.0219417
0.0218036
4.06412
0.0263256
5.08592
4.56832
0.0525942
0.0221625
0.0274476
0.030796
0.0222541
6.10806
0.0215992
4.39405
5.23912
2.925
0.0282909
0.0219768
0.0222773
0.0220182
0.022218
0.0855582
7.96713
6.04923
23.2072
0.821934
2.53156
0.0235242
0.341776
0.0655598
0.0487938
0.021974
0.0216475
0.224008
0.0229717
0.0216414
4.40748
0.469231
0.476994
6.43527
4.02891
0.0221003
0.0221291
0.0227502
0.0413428
4.12946
0.0220602
0.0446861
0.534579
1.21516
0.0430641
0.0221464
0.352131
0.0271127
6.34774
0.0220682
0.021729
0.0219907
0.0219714
0.0226905
5.33357
0.394987
0.085198
0.128695
0.0844994
0.0218477
0.0479206
0.0226857
0.022103
0.0269013
6.66425
5.21795
0.0218147
0.27189
0.0218583
0.0552292
0.0232519
0.0282225
0.0221052
0.0832837
0.0568121
5.24788
9.8584
8.49568
9.82328
23.3761
5.15209
1.10134
0.0217142
6.40706
0.0217178
6.70044
0.0257545
4.41905
0.0220934
0.0842205
0.0220675
0.021764
0.0242658
0.0219739
1.67923
0.0216566
0.0219362
0.0216342
0.0217041
0.0218057
0.0296911
0.0221275
5.13363
0.049859
0.021959
4.45305
0.0220375
0.0218549
0.0667401
6.28958
0.0389482
0.0286032
0.0217648
0.0216027
5.11058
0.0221801
0.0255665
0.162757
6.13891
9.54137
5.19107
6.10394
4.9267
17.7053
2.61958
8.42042
0.0745628
2.98256
0.0222269
0.0220284
0.0733066
0.0259415
2.55525
0.0221214
0.0435795
0.0470134
0.369482
0.0814126
0.0387768
0.0233733
0.0219865
0.0461437
0.0220785
0.0217196
0.452886
0.0222454
5.20818
6.07766
0.107209
0.0217799
5.58644
0.0231949
5.48223
0.500939
0.0218368
8.50116
5.80522
0.0607529
0.0705874
0.0307557
4.59336
3.96874
0.0236466
18.7318
0.053856
0.0402448
6.08794
0.0221386
4.16331
0.0220378
0.0220558
0.0218197
2.04411
0.238718
0.327536
4.67702
0.0250072
0.0459685
3.25165
0.0217913
7.01748
0.0216835
1.99624
5.05655
10.4436
0.125147
10.7828
0.0219575
0.0221681
0.0238516
6.67883
0.0452217
0.0224144
0.0219683
0.0214659
0.0218889
0.0646277
0.177526
0.0790883
0.174828
0.0602094
0.0220011
4.90852
0.0296659
2.24139
0.0226161
0.0217482
0.0225669
0.0222321
0.0371574
0.293969
4.97739
0.555117
6.28565
0.47023
0.0218236
1.99207
0.0215137
0.022019
0.0229311
0.0217591
0.0306355
0.0219882
0.0683762
0.0218251
2.58118
0.022278
0.0224396
0.0217515
4.35644
0.858747
0.0935036
0.0215516
4.42666
0.134035
0.0777296
4.30998
0.0579039
1.29994
0.0220893
1.99976
0.180534
0.0300865
1.57828
0.0325102
0.0414399
0.737905
0.028163
16.5387
0.102712
6.80548
2.06088
0.0428769
0.0289827
0.02198
5.12437
0.0219976
3.12281
0.0219163
0.021894
0.0215226
0.0309514
7.12332
0.0238978
0.0219167
0.0221149
0.0432343
2.23585
0.103648
2.63283
0.216721
0.0698418
0.02199
0.0583723
0.0221847
0.0228617
7.26523
0.0319058
0.0380393
0.120541
3.08885
0.14806
0.0419747
0.0737761
0.061871
0.0244577
3.85014
0.0222123
6.90762
0.0252012
6.67181
0.0887729
3.58246
5.60126
0.0973985
4.9233
3.18121
0.147606
0.290695
0.0955103
0.652346
0.0220268
0.083274
0.0569457
10.8417
0.023083
1.86751
6.68209
0.0215048
0.0217603
5.4062
0.0223181
0.0219097
0.0216192
14.143
2.17922
3.11268
0.0267339
4.40927
0.657919
3.23817
1.7751
0.0799904
0.0220245
25.3995
3.09897
1.15417
0.455294
0.0219564
0.021838
0.0220134
0.0221127
0.799229
0.145136
5.32858
0.0887761
0.0221451
0.0219623
0.0222877
0.0314747
12.6233
0.0236611
3.63637
3.85227
0.0535961
0.0221225
4.68202
0.168687
2.57253
0.0219537
20.2855
0.0969064
0.0221564
6.2081
4.36753
0.0230385
0.0217653
0.0221053
0.0222557
0.0219824
0.154013
0.057641
0.313563
0.0423934
0.0225475
0.0303556
0.0220874
0.0257125
0.0219658
8.69673
16.9872
0.0348779
0.0220387
5.39883
0.021682
0.185378
0.56867
8.78575
3.95117
6.99325
0.0220583
0.0222774
0.0221261
0.245671
0.0226066
3.76418
0.0252978
0.0218929
0.0219927
0.158578
0.182535
0.0220745
4.46027
0.0750319
1.34721
10.1588
0.0221173
0.730784
3.8421
0.177964
0.0222877
0.0219791
0.137446
1.40119
20.5084
0.0231089
8.18644
0.0217404
0.0827573
2.3642
0.18596
0.0217246
7.39827
3.40517
6.97312
7.81544
0.0222766
0.0221985
0.0853543
0.152205
0.0417834
0.0229785
4.5661
0.0233852
7.29648
3.94439
0.0218841
8.13213
0.0218474
0.0852032
6.80775
0.0838023
0.0579732
2.49072
0.0239899
3.40914
0.0219925
1.12903
6.91842
2.70572
12.2008
0.0242478
0.0520063
0.0217052
6.58679
0.0229642
0.0217348
0.0473211
0.0523372
0.0482906
22.7314
5.16356
4.1662
0.205249
0.0306097
0.0385921
0.0262621
0.0339339
28.6949
0.0231996
0.419036
0.0227936
5.31946
0.641157
0.0222143
0.0221652
0.0422925
28.5469
0.0430214
0.0216109
0.021884
0.0298553
0.0264219
0.02824
0.0252691
4.45003
0.0238956
2.25145
0.0741047
0.02193
0.0666727
0.0665218
0.0405301
0.021839
0.0220586
2.13586
4.04891
4.41704
0.0418858
0.0459437
0.0533099
0.047524
0.0219179
0.0236025
4.03875
0.0485179
0.023894
4.17321
6.65745
0.233698
5.30956
0.0786762
0.0226464
6.82966
0.0652685
4.01667
0.021914
5.19418
0.0496312
0.0320776