/*--------------------------------*- C++ -*----------------------------------*\
| =========                 |                                                 |
| \\      /  F ield         | OpenFOAM: The Open Source CFD Toolbox           |
|  \\    /   O peration     | Version:  v2012                                 |
|   \\  /    A nd           | Website:  www.openfoam.com                      |
|    \\/     M anipulation  |                                                 |
\*---------------------------------------------------------------------------*/
FoamFile
{
    version     2.0;
    format      ascii;
    class       volScalarField;
    location    "700";
    object      ddt0(omega);
}
// * * * * * * * * * * * * * * * * * * * * * * * * * * * * * * * * * * * * * //

dimensions      [0 0 -2 0 0 0 0];


internalField   nonuniform List<scalar> 
18758
(
-0.00130946
2.04737
1.03184e-05
-0.513464
0.600042
-0.0956777
-0.145944
7.82824e-06
0.00469491
-9.38733e-06
-1.13106e-05
-0.330842
6.05494e-06
0.00225196
1.95149e-05
0.127188
-0.000184224
4.82903e-06
4.16567e-06
-2.09427e-05
-0.139357
4.55234e-07
-0.167899
0.0452885
-9.66256
8.36894e-06
-0.50186
0.566429
-0.266638
-9.33812
-0.000530939
-0.257378
2.88752e-06
-8.52863e-08
0.00621413
8.36239e-08
2.10179e-06
2.95305e-06
4.08741e-07
-1.73865e-05
2.92083e-06
1.92337e-05
5.89994e-06
2.17286e-05
10.7077
1.08019e-05
-0.134108
-1.14986e-05
-2.59642e-06
5.09078e-06
0.0204122
0.420503
7.93605e-06
-9.09442e-06
0.530032
0.833858
2.08613e-06
0.0366291
-4.19661e-06
0.00910243
-0.00257683
-0.113757
0.00652488
2.4388e-05
8.38305e-06
1.14389e-06
-0.000105198
3.13505e-06
5.07765e-06
0.375008
0.322532
7.01216e-06
5.21765e-06
1.65016
7.37024e-06
-2.09395e-06
0.0133388
0.589251
0.00970365
-0.080536
-0.452836
12.5251
0.0114396
0.0972243
0.00222352
-7.13594e-06
-0.240217
0.00658155
-0.112242
-2.0359e-06
0.157746
-4.22283e-06
-0.0869123
2.60557e-05
-0.462514
-0.0393986
0.0186817
7.30526e-06
-2.27995e-06
-0.144422
-2.23872e-05
0.233223
0.00297991
7.63704e-05
-0.240765
0.674343
-0.817266
0.627213
-2.6588e-06
5.62798e-06
-0.0729901
0.564074
7.43846e-06
1.64044e-05
-0.0791368
0.5294
0.426985
1.89065e-05
-0.235747
-0.377862
0.000144273
-3.5713e-06
-0.489121
-0.00124525
1.12112
15.3251
-1.74156
0.0400028
-0.0536862
5.84916e-06
-0.000186516
-0.136728
0.281976
-0.000456503
-0.0130442
3.5998e-05
0.0132989
5.42492e-05
-1.9484e-06
-0.00215431
0.00893465
-0.0173667
1.00648e-05
-0.221273
2.85986e-06
4.57494e-06
0.27367
-0.751266
-0.000870141
-0.0387267
20.2847
-1.04703
-2.14657e-06
1.61779e-06
-0.17729
-1.64021e-05
-0.168915
-9.90941e-06
1.56599e-05
3.99365e-07
4.80474e-06
0.00748899
-0.0283914
1.45352e-05
-0.00156197
-0.294845
3.33701e-06
-0.503558
-0.0867531
-0.03163
0.139007
4.68832e-06
-0.0433914
0.575851
0.00995798
0.0153588
-0.20734
2.46514e-05
-0.00156545
6.02686e-06
6.61965e-06
0.392171
-0.474497
4.05694e-06
-4.46727e-05
-0.0641027
-4.32984e-06
0.462063
5.99433e-06
-3.81295e-06
-0.000374279
-0.057467
1.98412e-05
-0.000824184
-4.41858e-05
0.00659682
-1.0547e-05
-0.14103
3.01241e-06
5.76074e-06
-7.79655e-05
-8.78169e-06
-1.26846e-05
0.00332465
6.42101e-06
-1.28e-05
0.00356751
1.07725e-06
-0.10202
5.945e-07
4.75419e-06
7.86843e-05
1.76666e-05
-2.0271e-05
-0.00468322
-0.431315
-0.0254148
-0.0625697
7.81263e-06
-0.135092
4.77793e-06
-3.00256e-06
0.0210217
0.088949
0.0521047
0.00324834
0.000844722
0.00109824
2.96677e-06
0.00324557
9.27101e-07
0.00547278
-0.130118
0.0357831
5.78923e-06
-4.41189e-06
2.66649e-06
1.10956e-05
-0.443555
2.52497e-05
3.75881e-06
2.13288
-0.794075
-6.45692e-06
-0.0330219
1.40504
0.0204533
-9.14716e-08
-0.458274
5.66274e-05
4.70485e-07
-0.550148
-1.63515e-05
3.45654e-05
1.29899e-05
0.00021879
-0.0045228
0.057176
-1.91831e-05
0.00199371
2.31511e-06
0.00181469
4.226e-06
0.00329079
5.56019e-06
0.0220047
0.108093
9.02441e-06
-1.49656e-06
0.0167839
2.49627e-07
-3.90143e-05
0.00327546
-0.378056
0.54732
7.85423e-06
0.000773602
7.16987
-15.1927
2.45258e-05
3.95401e-06
-1.03586e-05
3.63089e-05
9.52287e-06
7.47972
-2.68751
-0.078919
-0.055275
-0.174372
3.47375e-06
1.00055e-05
-0.00418525
-0.567703
8.04515e-05
0.00258863
0.00389323
-1.63841e-05
-0.37486
4.48037e-06
-0.501853
0.0360083
1.08588e-05
0.0205773
0.000200842
3.99024e-06
-1.49225e-05
0.00233167
7.66044e-06
4.39357e-07
-0.0686898
-0.0625682
4.32484e-07
-0.160769
-0.380614
0.015219
3.65087e-06
5.11433e-06
-1.62806
-5.31272e-06
4.20766e-06
3.93084e-06
7.07219e-06
0.0831674
0.00223075
-1.35993e-05
1.52873e-05
-3.74737e-05
-0.000180012
2.41664e-06
3.79901e-07
0.314124
0.000161512
-0.00763163
-0.403833
4.6548e-06
1.98884e-05
9.76584e-06
-0.491613
0.0879243
2.62649e-06
4.49553e-06
2.55533e-06
3.30684e-05
-0.000458344
0.139435
-3.15063e-06
2.33968e-06
4.37938e-06
0.507772
-0.0141153
0.0303706
-0.000733789
1.68331e-06
0.0112697
-0.00187912
8.67477e-05
-5.97255e-05
-0.290839
-0.10476
-0.149051
4.75857e-06
-9.83939e-06
1.2802
-0.392713
5.07212e-06
3.60213e-06
0.00110111
2.92438e-06
-5.7118e-05
0.909085
0.661187
0.00287846
-2.9678e-05
0.142921
-3.27215e-06
-8.59547e-06
9.55701e-07
-3.48029e-07
0.00433842
-1.53927e-05
-0.136252
-0.0318891
1.22657e-05
9.90165e-07
0.349785
0.00250153
0.0185728
-3.41095e-06
-0.000943703
4.33216e-06
1.59391e-05
-4.00541e-06
9.27827e-06
0.374565
-0.100576
0.179619
-0.169009
1.00246e-05
0.00480094
-0.0801447
0.000217185
7.52876e-06
-0.393509
4.43291e-06
5.00075e-06
6.84311e-06
0.0046164
-3.52344e-06
9.71117e-05
-0.00142518
-0.49449
4.71359e-06
0.566632
0.000424262
3.67608e-06
-4.60434e-05
-3.57606e-06
4.51043e-06
-1.82189e-05
0.00158154
-0.000508008
0.37719
0.000179887
2.474e-06
0.00594474
0.114419
-0.306455
0.163094
0.00307648
2.445e-05
9.04997e-06
3.06427e-06
1.80771e-05
0.00255082
2.95564e-05
-0.000289406
-7.01253e-05
-6.43929e-06
-0.344623
0.003155
-4.02256e-06
2.56748e-05
-0.0508746
2.86905e-05
0.646928
7.78236e-06
6.88706e-07
-1.29732
1.00844e-05
-1.55445e-06
0.0118678
0.00665837
-0.00161092
-0.0757991
-3.18838e-06
2.75438e-05
0.118111
-0.319262
8.39676e-05
6.36537e-05
0.00277619
-0.128102
1.90793
0.00730968
5.13341e-06
0.0174417
1.60879e-05
0.00272682
2.37004e-06
-0.119156
-0.00096222
-1.46262
-0.000256388
-0.00034944
1.09695e-05
0.0430446
5.43688e-06
-0.0278784
1.00969e-06
0.0604829
3.79511e-06
-0.565887
-3.71013e-05
3.29005e-06
-2.59177e-06
6.87625e-06
-0.102171
0.434101
-0.0625869
-0.000190514
-3.08755e-05
0.0024297
7.93549e-07
-2.11968e-07
0.46325
-2.34366e-06
1.26682e-06
0.00478123
5.5442e-06
-1.79261e-05
0.00234277
1.1022e-06
-3.36573e-06
6.00874e-05
2.73616e-05
-7.14331e-06
-0.0369255
-0.000451865
1.03735e-06
-1.41256e-05
2.68714e-06
-0.0389569
2.51663e-06
-9.97205e-07
-6.32786
0.449103
-0.000434886
-1.26908
6.90515e-06
-1.04789e-06
0.373846
3.9129e-06
0.349901
-0.0272745
3.70263e-06
-0.0439014
-0.0547014
0.00116915
1.28729e-05
-2.50389e-05
0.30838
2.80756e-06
5.02362e-06
1.57242e-05
6.41525e-06
4.30303e-06
1.21949e-05
-5.22316e-09
-0.44464
-2.16824e-05
-0.283438
-2.65364e-06
-0.000645946
1.3019
4.44697e-06
5.97969e-06
-1.94368e-05
3.22331e-06
2.36167e-05
1.73944e-05
6.64182e-06
0.00633134
0.37355
6.66717e-06
0.344587
0.442911
9.71311e-05
0.00823447
1.56609
2.35072e-05
-0.000376806
-2.84619e-05
0.371568
-2.16467e-05
-0.000623851
1.29553e-05
1.62831
0.000255638
-0.0175471
0.00878563
-0.141165
-2.02974e-05
1.14286e-06
0.000930603
9.04381
2.44101e-05
0.27268
7.40626e-06
-0.288351
2.20117e-05
4.79013e-06
6.96743e-06
5.29927e-06
0.456299
-0.223365
-3.07868e-06
0.0135037
8.50659e-05
-0.344932
0.0889432
-2.2222
1.6504
5.66695e-06
0.562108
-0.00110563
1.43181e-05
-4.72092e-05
0.397819
-1.81093
-8.72076e-07
4.31794e-06
1.552e-05
1.0229e-05
-0.496634
0.00603334
0.549484
-0.123138
-3.22654e-06
3.09763e-06
0.00108597
2.45092e-07
4.74963e-06
1.61559e-05
1.34563e-05
0.00648395
0.000226125
0.0251649
0.625711
-0.000138695
3.84948e-06
2.25675e-05
0.00198321
0.543288
-0.000647583
-6.48165
0.000594286
-2.88815e-06
0.0307473
0.0772158
2.09095e-05
3.18613e-06
-0.0156599
0.205727
0.281014
4.96285e-06
0.0456289
-0.0501077
2.30759
4.88394e-06
-0.109092
-0.0715786
-0.190913
-1.55268e-05
-9.07244e-08
-0.0886984
2.59701e-09
0.00810404
0.256463
0.0499722
-0.11414
0.00273939
-0.0863157
0.00178965
8.67166e-06
2.72498e-06
0.270721
-0.469084
-0.118133
0.540351
3.99241e-06
0.00729132
9.8432e-08
0.000859762
0.00214162
0.0108558
3.56953e-06
3.92354e-05
0.00791072
0.311026
0.228977
-0.157919
9.63311e-05
-2.83244e-05
-0.0107489
2.46623e-07
3.62268e-06
-1.39386e-07
-4.42521e-05
-0.000393958
2.0643e-06
0.00161627
2.59502e-06
5.0941e-06
4.82057e-06
0.601798
5.82287e-06
1.06332e-06
0.000861241
0.000734389
7.37369e-06
0.53526
3.02943e-06
2.0145e-06
0.000568896
-9.92375e-05
-3.44633e-05
9.98217e-06
-3.16645
0.00013501
-1.43474e-06
0.050596
8.79583e-06
-0.443614
2.61887e-05
0.00629442
-0.227091
-0.548217
2.52471e-06
0.354915
0.016359
9.38827e-06
0.0178297
3.22258e-06
4.7238e-06
0.000178274
4.92742e-06
-0.000954908
0.497513
5.78974e-06
0.0574243
5.24186e-06
0.000137159
-0.450241
6.59165e-06
0.313795
1.44284e-05
3.23173e-06
-3.69871e-06
-5.36217e-07
0.00403991
0.00232533
0.602752
0.000528764
-0.0312644
0.001116
1.72289e-06
0.0180915
-0.114167
2.0144
-0.00557212
-0.000667837
-0.00137299
-1.60984e-05
0.00458464
1.33152e-05
-15.5081
5.33838e-06
-0.0881394
-6.73268e-07
-0.00266084
4.38014e-05
-5.9785e-07
-0.0756531
-2.95897e-07
4.32983e-06
4.51732
1.99343e-05
4.28468e-06
0.00012757
0.00214944
-0.00884665
-5.01816
-0.596515
0.232724
3.31218e-06
-6.47006e-08
-0.0832653
1.40949e-06
-0.632093
0.00323923
-1.18334e-05
9.84534e-07
-1.50707e-05
-1.18069e-07
3.16791e-06
-9.01267e-05
-3.63934
-0.000657267
-0.00791328
0.00029095
2.88239e-06
0.000186894
-0.188601
2.9588e-06
0.00200702
-1.34712e-05
0.46192
2.15703e-05
-0.325337
5.74839e-06
0.345027
3.71369e-07
0.00295715
1.4434e-05
-3.83616e-05
-0.000307857
6.52561e-06
1.95699e-06
7.28842e-06
-0.0639711
1.84217
-0.000158097
0.28137
-3.25533e-06
6.39724e-06
-1.59128e-05
-0.0064494
-0.0852602
-0.000191526
5.05879e-06
-0.0183557
3.03074e-06
-3.53152e-06
-1.63988e-05
0.493268
-0.465947
-0.616253
-1.97732
-0.0135613
4.24115e-06
5.62399e-06
-17.7067
4.71837e-06
2.50908
-2.56177e-05
-1.64397e-07
0.566417
-0.199265
6.68453e-07
0.679282
-1.93699e-05
-0.0034423
-0.00210164
-1.13774
-0.175226
2.03031
6.98111e-06
1.08061e-05
0.616942
9.52531e-06
5.21996e-06
-2.85303e-05
8.76361e-06
-0.0277886
-0.0540659
0.00113865
-0.0399103
0.000468043
0.00580311
-1.25707e-05
5.6443e-06
9.21103e-06
6.41842e-06
0.548579
-0.807214
0.0456426
8.52386e-07
5.23111e-06
-0.000387586
9.05536e-06
0.000210887
3.58568e-06
-23.2196
0.544753
0.00173018
0.0115037
0.0220117
4.84157e-06
-0.00347257
6.78345e-06
-0.104977
0.0463339
-0.220742
0.0869538
1.09374e-05
-9.88654e-05
-22.1808
-0.0669095
-0.259228
0.00155826
-0.024467
0.275719
4.98739e-06
-0.021979
-0.131822
0.00265063
5.39654e-06
3.85379e-06
0.000218732
-0.103174
-0.0259513
-0.00122061
-1.65248e-06
-3.01968e-05
-5.44072e-05
-1.69122
-3.68858e-07
-0.566853
-3.83704e-08
2.50776e-05
0.0104435
2.76216e-06
4.1134e-06
-2.95673e-06
1.66057e-06
5.74345e-06
1.49922e-05
4.55872e-06
-0.895173
-0.198165
-0.62629
3.30753e-06
0.000484897
4.87797e-07
0.0147134
0.0342909
1.13919e-05
-2.27822e-07
1.09854e-06
-1.40581
0.00669413
-1.28838e-05
0.324347
0.00212007
-4.73946e-06
-3.00816e-06
-0.513316
-0.0678974
-0.000170062
7.53846e-06
-1.62052
2.90127e-06
0.000119013
6.73705e-06
0.829661
-0.21083
4.79231e-06
4.60176e-06
2.67481
2.3646e-06
-0.0710354
0.317663
2.75163e-05
8.35848e-07
5.16819e-08
6.24155e-06
6.31546e-06
1.13704
-0.477099
-0.0442841
4.20102e-06
0.0576579
9.6003e-06
-4.06321e-06
-0.221037
4.87449e-06
0.632365
6.71345e-06
2.96348e-05
2.40014e-05
-3.02442e-06
8.53974e-06
3.4392e-06
0.161562
-7.34877e-07
-1.6019e-07
0.000692065
0.0002116
4.68691e-06
0.000621866
-2.58784e-05
3.6783e-06
-0.018126
5.72016e-06
3.99923e-06
-0.339891
-0.00208072
-1.79031e-06
0.0315174
0.000725994
0.0014903
2.9442e-06
0.000694278
-0.00531169
-1.17795e-05
0.00116416
-6.82112e-08
3.31329e-06
4.30602e-06
-0.00118439
-1.86179e-05
-0.000744256
3.58746e-06
-1.84913e-05
-0.00115707
0.0221058
0.00531698
-4.20122e-06
6.07892e-06
1.0791e-05
-0.000529485
4.44357e-06
0.349812
1.11476e-06
8.85765e-06
6.33974e-06
-0.0773335
0.0625836
2.73932e-06
-1.21248e-05
4.64678e-06
0.00350505
5.3196e-06
-4.44231e-06
-0.155616
7.93582e-07
2.74142e-06
1.5567e-06
0.000210424
5.69745e-06
5.71217e-06
-0.31153
0.205364
0.0495831
0.00316755
0.194721
-0.000260005
5.47333e-07
-2.47144e-06
1.90358
-3.87827e-06
0.00156066
0.00253104
0.000259828
2.19526e-05
9.89966e-06
-2.48567e-05
2.33922e-05
7.77564e-06
0.117399
0.567654
-0.000141681
6.31428e-06
-0.117205
-0.000162862
-0.109121
1.16484
-0.00158586
2.68971e-06
1.32025e-05
9.41654e-06
0.000109511
2.62411e-06
8.28204e-06
-0.324387
0.00250037
-0.00105423
-2.07786e-06
-8.38329e-05
0.0403535
3.15561e-06
5.87945e-05
-3.50611e-06
-0.0775124
0.0018636
1.50697e-05
-6.73823e-06
0.000145392
5.26318e-06
-0.000127262
1.9875e-05
-69.3151
0.000909403
0.00530603
4.20067e-06
8.20863e-05
-0.0125947
-0.569808
-1.6054
0.000703531
0.368565
2.68665e-06
1.60915e-07
-3.73711e-06
0.00227706
3.67869e-09
8.36521e-06
7.76688e-05
-9.60095e-05
5.31968e-06
4.2653e-06
3.67781e-06
4.21907e-07
-0.139819
0.788291
2.1083
1.78124e-06
0.305494
-0.000122664
2.82207e-06
-0.000254024
1.43024e-05
0.00267751
2.28833e-06
-2.08012e-06
-0.0999567
1.03175
-0.0492147
6.75449e-06
1.4782
-2.08016e-06
-0.146072
-0.155881
1.06443e-05
0.000494593
-0.172925
7.67225e-06
6.20033e-06
3.17651
9.43834e-06
3.77716e-06
0.0783467
-8.54006
6.32632e-06
-1.14773e-05
2.90669e-06
-2.50254e-05
0.00710139
2.80092e-06
-0.192558
-0.000100395
4.40182e-06
-1.70213
-0.00178239
0.00263214
5.79091e-07
0.0873546
1.6406e-05
0.586543
-1.52211e-06
7.26067e-06
-0.279153
9.28231e-06
0.0416709
4.5566e-06
0.000685097
-0.10533
0.372507
1.20935e-05
7.74515e-06
4.27469e-06
1.66485e-05
-1.55012e-05
0.000129359
8.25465e-06
-0.200566
2.31194e-07
2.78314e-06
-0.0307305
-0.00751979
-8.95598e-05
6.0983e-06
1.71451
0.00290953
-3.9008e-07
1.95139e-05
-3.66134e-06
4.78554e-06
-0.247789
7.98622e-06
7.4217e-06
6.39834e-06
0.0295087
3.04627e-06
7.16738e-06
0.56909
-2.49292e-05
0.146846
-0.000220194
9.97083e-06
4.96195e-06
2.21728
-7.18616e-05
4.38324e-07
-0.12727
0.221966
5.90358e-06
-0.142062
0.00452618
4.75986e-06
-4.27033e-06
-0.00634889
8.76138e-07
-0.320242
-1.74105e-05
5.5719e-06
1.34982
-0.128169
0.0148083
8.98706e-06
-0.421853
4.06582e-07
-0.241625
-0.382008
-3.51734e-06
-0.245493
3.53866e-06
-9.07992e-05
-6.5768e-05
0.285003
9.4236e-06
9.76425e-06
-0.493722
4.53005e-07
9.30221e-05
9.84986e-06
1.13609e-05
0.270578
0.00176395
2.78265e-05
8.22487e-05
0.798059
1.29829e-06
-6.41738e-06
0.000895842
0.00641253
-4.07056e-05
-3.29183e-06
-1.45527e-06
2.67965e-06
-1.95589e-06
5.38744e-06
-8.79352e-05
-1.53663e-05
3.49967
5.26959e-06
-0.659719
1.36252e-05
-0.000159691
4.63479e-06
-3.41503e-05
1.04569e-05
-2.97678e-06
-0.123256
0.0574949
-1.08396e-05
3.13965e-06
-0.318989
-1.89288e-05
-0.316059
-6.96221e-05
0.0139433
-0.0325692
-0.203836
-0.481968
5.61942e-06
5.82263e-06
5.3794e-06
-0.63452
6.77637e-06
3.76261e-06
0.00199114
9.27506e-06
-2.53444e-07
2.60753e-06
0.32358
1.19201
1.28449e-06
0.30452
0.497018
-1.18939e-05
8.10623e-06
5.13113e-06
-0.202679
1.96045e-06
-0.00189891
3.38098e-07
5.50488e-06
4.92378e-06
6.86094e-06
0.00228329
2.93727e-06
4.38252e-06
4.41484e-06
1.07758e-05
0.0238386
7.80684e-06
4.6557e-06
4.29643e-06
-4.34891e-06
-0.00134513
-1.75566
-0.000679679
2.59049e-05
-5.04804e-06
-1.87887e-07
7.11599e-07
-0.108559
-5.26676e-06
-1.24221e-05
0.000294753
0.0443697
5.00967e-06
4.80787e-07
-0.24374
2.85649e-06
-0.00106071
0.00206295
-1.17837e-06
-0.142647
-0.160337
-3.21747e-05
-0.0399976
-1.84906e-05
0.00188832
3.53774e-06
3.50706
4.53286e-06
11.2288
2.63762e-06
6.34507e-06
0.0485862
13.842
-0.58131
-0.0479673
-1.29334e-08
-0.0460238
1.04842e-06
0.558215
0.000848947
6.17357e-06
3.41559e-06
6.47961e-06
0.000554382
-7.06682e-05
0.556551
-0.000310643
-1.55424e-06
9.22242e-06
4.05606e-06
0.539232
-0.00110488
-9.25602e-06
2.33894e-06
-1.20954e-07
9.55923e-06
-0.0614232
6.43127e-06
7.25124e-06
-0.000549618
-5.45222e-06
-1.17182e-05
-5.03735e-06
0.0011394
0.00703314
-1.34139e-05
-0.00269779
3.61813e-06
3.66531e-06
0.433429
9.7998e-05
0.00300027
0.0842808
6.87218e-06
0.499674
-0.0125261
-0.00183148
0.644048
-2.61298e-06
0.0507922
0.0489706
0.0027994
8.45201e-06
-0.492583
0.00802942
4.64348e-06
6.82014e-05
-0.25787
2.4181e-05
4.54959e-06
2.87777e-05
7.15726e-07
0.425213
-7.73001e-06
6.28743e-06
3.48751e-07
-1.16216e-07
-0.000319589
-0.000490265
0.462554
0.00129804
-0.270604
0.000450193
3.01278e-07
-2.06969e-06
2.43107
0.291969
-1.0879e-06
4.96973e-06
-0.00617273
4.2372e-06
0.0309832
0.0894176
-0.187697
-4.67577e-06
-3.0367e-06
0.481593
7.19853e-06
0.522549
0.507328
4.04914e-06
0.0555842
0.00106264
0.00468465
-1.91114e-08
0.206949
4.98279e-06
-0.0256614
8.11663e-06
0.000419238
4.70942e-06
7.38181e-06
-0.328098
1.98458e-06
-3.09382e-06
-6.7624e-06
-0.0974669
3.85012e-06
7.60368e-06
0.064833
-3.2985e-06
1.67753e-06
2.96527e-06
-3.97534e-05
1.84625e-06
-3.14991e-07
2.84654e-05
-3.90068e-07
-8.86949e-07
2.6822e-06
-0.0073796
-0.333778
0.0125517
-0.139569
-0.000139287
1.99975e-05
-1.70505e-06
5.03861e-06
1.76314e-06
-0.209326
-0.131831
5.3607e-06
4.01653e-07
-1.86289e-06
-0.499033
7.41772e-06
-0.00448553
-0.00612614
-0.219473
-0.0148878
0.120719
-0.0716107
2.693e-06
-0.301637
0.203159
0.0207159
1.63393e-05
-2.29846e-06
-0.000534154
1.10469e-05
-0.137106
0.00551768
0.00120334
-1.68602e-05
0.299044
1.48538e-07
1.0176e-05
0.114518
0.00877494
1.42546e-05
8.52995e-06
-0.000620809
2.7769e-06
-0.169399
1.59281
0.267468
-0.543797
0.00173061
1.02346
3.10107e-06
0.0167679
2.31034e-06
-2.46141e-06
2.5305e-06
-0.285679
5.30387e-06
7.20593e-06
-10.9754
-0.115581
0.232237
0.0078223
4.73568e-06
8.86444e-05
0.456191
0.321738
0.0483779
-0.154427
-0.00671321
0.00757857
-0.0225255
0.126945
0.000712026
-0.000848686
-1.59139e-06
-0.000169573
-0.000431161
2.62448e-06
-0.0556883
1.31598e-05
1.39229e-05
1.89958e-06
0.61835
-2.6689e-06
5.3219e-06
7.39649e-06
-1.03468e-06
-0.000559128
-0.00146434
-0.420527
2.03215e-06
-0.17404
6.48968e-06
-3.97577e-06
0.00311115
0.000277264
7.96678e-06
-0.193307
-0.000235686
0.468821
4.57803e-06
-0.0925974
0.000301765
-3.01447e-06
1.54172e-06
-4.73277e-06
0.232622
0.526238
-0.0467187
7.00619e-06
1.98907e-05
7.39176e-06
0.493425
-0.000124765
3.73601e-06
-0.0748388
-5.18395e-06
7.934e-07
-0.127264
2.71683e-06
-2.13423e-06
3.55213e-06
6.92764e-06
3.87316e-06
1.11299e-05
9.14624e-06
6.66454e-06
0.00184888
0.000145725
4.84302e-06
0.287577
-1.36136e-05
0.58596
0.295983
-0.000139938
-0.367409
0.487665
5.91874e-06
-0.000261847
5.01692e-06
6.45778e-06
0.454952
1.77929e-05
-0.0541483
1.2759e-05
0.00136421
8.24698e-06
2.90082e-05
2.57744e-06
-0.240183
-0.000321381
-0.13652
4.21601e-06
0.00386319
-0.000130954
6.51163e-06
2.95967e-05
-1.94716e-05
4.64857e-06
-0.272413
4.92592e-07
-0.000407802
4.83548e-06
1.58617e-05
4.76218e-06
0.0177515
3.8665e-06
0.00146372
19.8467
7.69964e-06
-0.000782577
2.58429e-06
0.492963
0.000699386
3.46117e-07
0.000765729
15.1525
0.540261
-6.06678e-07
-6.82939e-06
2.48634e-06
3.28231e-06
-1.08979e-06
0.0743617
-6.84857e-05
3.62257e-06
0.368746
2.35662e-06
7.21969e-06
2.19917e-05
0.519688
-3.1448e-06
0.258698
-0.431648
0.00257947
0.299732
-1.2904e-07
0.499947
-0.0164369
1.14688e-05
-0.000115236
-3.32076e-06
6.78633e-06
-1.9769e-05
-0.106106
0.000552766
2.00801
-0.118078
3.26199e-06
-0.0337208
2.41637e-06
-0.357538
7.34088e-07
-0.455639
-0.596494
1.4871e-06
4.96349e-06
-5.73829e-07
-0.000201957
0.00322661
5.27735e-06
0.375048
4.46446e-06
-0.000895461
-8.87536e-05
-4.56366e-07
8.77993e-06
0.421493
7.22363e-06
0.0171474
6.70393e-05
1.0876
4.27296e-06
1.11354e-06
-0.426759
1.04919e-05
6.95027e-06
-1.34568e-06
0.000822218
0.000625198
0.017451
3.67956e-05
6.63882e-06
-2.37159e-05
4.67857e-07
2.64587e-05
-0.0888002
8.63101e-06
2.58971e-06
-0.444389
0.012014
-2.6388e-06
0.00304854
1.41727e-05
-3.1006e-07
-0.0483218
-0.400523
0.00289771
1.55587e-06
-2.63713e-06
1.88389e-05
0.00212735
8.66119e-06
-0.000309087
2.69986e-06
1.70324e-06
4.80236e-06
4.35426e-06
-0.244405
8.73513e-06
-0.417277
0.178174
-8.44216e-06
7.23427e-06
0.0987899
-0.30471
1.36924e-05
-9.41748e-08
-0.406847
1.99045e-05
-0.000124535
-0.00128718
-1.38689
5.96552e-08
2.26496e-05
0.00045612
2.18691e-07
0.317557
0.0172567
5.78095e-06
-1.78534e-05
5.00467e-05
3.27632e-06
0.0125038
1.73793e-06
-0.000324327
2.04738e-06
-1.63149e-05
9.08198e-06
4.58901e-06
0.0124219
1.38261e-05
-0.45302
-0.0015591
-4.98654e-06
-5.69192e-06
5.08315e-06
5.48962e-08
-0.199654
4.0582e-07
0.0699041
3.36708e-06
1.22229e-05
0.00068811
0.371147
6.70245e-06
7.26555e-06
-1.78864e-06
1.36976e-05
6.40179e-06
1.31871e-05
-1.16214
-0.00019546
5.94895e-06
0.00715761
0.225101
1.9504e-05
-2.05304e-05
-0.157019
9.33462e-05
3.93247e-06
-6.08006
4.15218e-06
0.152807
-0.000995645
3.53944e-06
-0.000252836
5.00996e-06
-3.71239e-06
3.04593e-06
-0.471369
-4.44376e-06
-1.17849
0.257158
-0.0302573
-0.000251341
5.6815e-06
0.0558975
1.72007e-07
0.816015
6.73553e-06
-0.095639
2.57579e-05
-0.00154948
2.10452e-05
1.15336
-1.78965e-05
1.28027e-06
0.206558
0.154377
6.97553e-06
-2.15532
4.96406e-06
-1.73329e-05
5.08211e-06
-0.249936
0.276819
2.19496e-05
1.49155e-05
-0.0032228
-0.000325959
5.38976e-06
3.00223e-05
3.61135e-06
6.40271e-06
7.26586e-06
3.41626e-05
0.0812232
-0.261714
2.33358e-05
-0.000569959
2.32222e-05
-0.00184808
4.80308e-06
-0.363468
0.256463
0.307575
7.73888e-06
-0.179668
0.365778
3.58826e-05
1.79766e-05
-8.72317e-07
-0.00212985
0.232473
2.12855e-06
7.35035e-06
6.36007e-06
-2.28086e-05
8.06614e-06
7.57868e-07
0.156215
2.8061e-05
-0.00531973
-3.14875e-06
4.15714e-06
1.58129e-05
4.56163e-06
0.00776603
-0.429663
8.47364e-06
-0.000206877
4.32351e-06
0.566064
6.43092e-06
3.76828e-05
-0.00798255
2.49182
2.92851e-05
1.78947
-0.0581429
7.84759e-07
0.000762438
1.17091e-05
-0.000136519
1.71832e-06
2.87078e-06
0.00954986
0.00591774
-0.086195
0.00299294
0.000273294
1.25743
2.46085e-05
0.000255176
-1.01174e-06
-0.216206
-0.192952
1.18702
-3.11744e-06
8.90191e-06
0.0422611
0.205479
1.29996e-06
0.0927271
1.41472e-06
-1.64465e-05
7.96433e-06
5.38805e-06
3.77007e-06
7.2544e-06
-0.00475442
0.000119822
2.33456e-05
-1.29886e-06
1.87741e-07
1.07797e-05
5.10568e-06
6.43295e-06
7.4706e-07
1.40244e-06
0.0974352
-0.0595534
0.144395
-5.47953e-06
0.0492822
0.000981476
0.151444
0.0967098
0.00096307
3.52288e-06
2.1316e-06
-0.00546827
2.29001e-05
-0.146476
0.169216
1.252e-06
9.78158e-06
-0.00034139
0.250885
3.15832e-06
-0.64557
3.28157e-06
3.30824e-06
-0.044208
-3.11621e-06
3.47677e-05
2.28524e-06
-0.280506
3.2102e-06
-5.2747e-06
0.0111884
4.07425e-06
1.62921e-06
9.77875e-06
9.05854e-06
0.00101674
-2.82667e-06
0.306606
4.69442e-06
3.43306e-08
4.89934e-06
0.405734
7.50782e-06
1.86008e-05
-0.222925
3.35103e-06
2.25992e-06
0.00270438
0.312396
3.88383e-06
-0.37678
0.646191
-1.99502e-05
-0.0555391
3.4152e-06
4.19387e-06
-0.00185891
4.61784e-06
-0.215484
0.231318
6.5215e-06
-7.63979e-05
2.90773e-06
0.0104249
-0.693163
1.73145e-05
1.15361e-06
0.00955884
-1.37699e-05
0.000648468
-1.59408e-05
6.64377e-06
5.85951e-07
-2.49218e-06
4.54641e-06
-0.0564448
7.98963e-06
4.458e-06
0.000260722
1.13272
0.00140916
-0.612138
6.73918e-06
1.86418e-05
4.41607e-06
3.01308e-06
-1.79832e-06
6.55527e-06
1.03187e-06
-1.81714e-06
2.84762e-06
2.44433e-06
-1.87167e-05
1.28696e-05
1.57658e-06
1.23454e-05
0.115255
-0.210347
1.74391e-06
-2.56048e-06
0.100905
1.80156e-06
0.00221747
-0.300543
-0.285691
0.0679539
2.80936
0.113001
17.4268
-0.333606
2.91689e-06
7.83185e-06
2.51276e-06
0.000250901
-1.65533e-05
1.00383e-06
5.94936e-06
-0.341854
4.20733e-06
3.96464e-05
-0.44209
3.20956e-06
4.91946e-06
6.77926e-05
8.52777e-06
8.12501e-06
1.19658e-05
4.80293e-06
0.209835
0.144392
4.29786e-06
-5.46384e-06
1.46895e-06
2.07579e-05
-0.000242256
7.20299e-06
2.59221
0.00727637
4.5206e-07
-0.168321
-0.000149132
-4.89191e-06
-0.294717
3.40276e-06
-0.0022642
6.17211e-06
6.29529e-06
2.00552e-05
0.124887
-4.27366e-06
5.18259e-06
-1.3395e-05
-1.30891e-07
2.17004e-05
4.72205e-06
0.82382
0.000173276
-0.000655344
-0.371487
0.421448
0.00340384
-0.000229408
0.0234516
9.90567e-06
4.34258e-06
-2.69829e-05
0.207269
-0.00233386
0.00017669
-0.140513
4.99534e-06
9.08872
-0.0555223
-1.34072
1.58122e-07
-0.000177224
-4.68497e-07
0.00638428
-7.63034e-05
-0.0414224
0.279446
4.67184e-06
6.58828e-05
0.000127747
4.77914e-06
5.45453
-2.92558e-06
-0.000290564
0.00073556
0.00232623
-5.23416e-06
-4.15418e-10
1.03266e-06
0.000772339
7.00298e-06
6.1424e-06
-3.19476e-06
3.98797e-06
4.19655e-06
0.000261344
9.36452e-06
2.87236
-0.0378152
2.43339e-05
7.08077e-06
2.71093e-06
-8.32515e-05
0.000157103
1.65742e-06
0.228818
0.00247349
6.48773e-06
8.37176e-06
-0.326895
-0.0609269
6.12106e-06
0.0113561
3.08285e-05
2.61473e-06
0.091527
1.5459e-05
0.000826391
1.78093e-06
-0.185276
0.53904
8.91127e-07
-1.60324e-05
0.115762
1.97197e-05
0.737243
1.04092e-06
1.85707e-05
0.158858
-0.0392108
-2.20078e-05
2.64102e-05
1.40657e-05
-1.5331e-06
5.848e-06
-0.161112
-0.0514572
-0.310665
2.42442e-05
1.19648e-05
0.00032782
7.67133e-06
0.0152175
-6.73684e-06
0.242574
3.10024e-06
2.14647e-06
4.48445e-06
3.45798e-06
5.07487e-06
0.00202702
-0.123587
2.46893e-05
6.73356e-06
3.17145e-06
0.0810053
1.6779e-05
-5.97121e-06
2.30158e-06
9.28206e-05
-0.305926
9.5974e-06
5.82136e-06
6.01983e-06
0.00322499
7.78391e-07
0.000192034
3.81137e-06
1.17224e-05
0.0020816
1.98011e-05
-0.0428271
-0.56561
0.00435251
-0.328004
4.87491e-06
9.12467e-06
1.45352e-06
-0.219098
2.97511e-05
-0.609131
1.22451e-05
0.1462
0.000110023
7.55459e-07
5.19184e-06
2.22466e-05
0.450403
0.000862237
5.65387e-06
0.173044
0.00326255
2.21579e-06
-5.90487e-08
1.62365e-06
-2.60378e-05
0.0838972
-0.00131784
2.50235e-06
0.00497153
3.23272e-06
-0.174664
-5.32197e-06
-0.224186
-2.24411e-05
-0.223178
-0.00398487
0.000522869
-4.1516e-06
3.19957e-07
4.81681e-06
0.451059
5.0807e-06
-0.0006714
1.40739
9.22092e-06
-0.0826286
2.01448e-05
-3.94255e-06
-0.00171745
3.43945e-06
3.14065e-06
0.224914
-0.124327
-0.156183
-2.09264e-06
6.40561e-06
2.23312e-05
-1.7741e-05
-7.52644e-06
3.29483e-06
-0.0145956
-0.0021088
-0.391681
-2.11003e-06
-8.23408e-05
-14.4674
-0.0971398
1.4988e-05
7.12554e-06
0.0963304
7.77644e-06
0.112649
7.19536e-07
4.47306e-06
4.51776e-08
6.65381e-06
9.24321e-06
9.24804e-06
6.69654e-06
-6.83291e-05
-0.0410011
-2.46208e-06
0.01311
2.46835e-05
3.25354e-08
2.15398e-06
-0.0778027
1.87227e-07
-1.81305e-06
4.29858e-06
0.0464246
-0.0654233
7.05735e-06
1.40516e-05
9.2853e-07
-9.00885e-07
4.66135e-08
3.25135e-06
-3.01026e-06
-1.5854
1.2651e-05
5.93677e-06
0.00787145
4.80984e-06
-1.14271
0.00132624
-0.0015139
0.0122387
-1.24882e-05
2.01313e-06
0.0608769
6.99142e-06
-0.00275592
-0.000247822
7.23204e-06
0.000225616
4.61056e-06
-0.357551
4.58594e-06
3.30383e-06
0.654892
0.000914212
0.387864
7.76122e-06
0.00360817
0.0213337
6.43155e-07
-0.389001
5.45841e-06
7.1178e-06
4.43654e-06
0.000487584
1.03056e-05
0.494065
2.91383e-06
-0.00032638
-0.244603
0.0133612
1.28371e-06
-0.970363
6.37846e-05
-0.278265
2.89069e-05
-4.22367e-06
-1.2102e-05
-0.243919
-1.98122e-06
-4.25149e-07
-0.268214
2.2569e-06
3.47536e-05
8.56699e-06
-0.000894607
0.439963
-0.0141271
7.54122e-06
-0.00351417
2.27551e-06
0.013489
2.25699e-07
4.65177e-06
-0.00267751
0.264541
-5.18551e-05
4.15184e-06
1.51818e-05
-0.0833069
0.000437024
0.00252531
0.240466
4.12046e-06
0.0287779
2.08266e-05
-0.0161784
2.65333e-06
-1.84128e-05
-0.516356
1.85436e-05
2.67193e-06
-0.493788
-0.15795
0.325503
7.40961e-06
-0.226559
-0.123963
3.85179e-06
0.0161944
0.213525
2.77295e-07
7.50517e-06
-0.473462
6.38175e-06
1.90565e-05
6.16405e-06
-1.82454e-06
0.00595007
0.00327441
-0.00066825
-0.0667423
3.51543e-07
0.0022964
1.03156e-05
1.75657e-05
1.69272e-05
-0.000578709
1.30633e-05
1.50355e-06
-0.301199
-0.142085
-0.159877
4.13145e-06
0.000112759
2.43378e-06
-0.0029022
4.99652e-06
0.000192816
-0.11087
-0.032514
0.000431106
2.72467e-06
-0.283625
-0.304037
-0.403139
2.84935e-06
1.5188e-06
3.28489e-06
0.175752
0.00012432
0.00914593
-0.514252
7.43516e-06
2.48544e-06
0.225545
-1.33412e-06
0.00234142
1.30431e-06
-1.06575e-07
-7.32569e-07
-0.216465
-4.58251e-06
-0.00118039
1.18307e-05
2.65116e-06
6.64456e-06
-0.19064
0.188393
3.10426e-05
-0.123537
5.4354e-06
0.0457098
-2.17458e-06
-1.33011e-07
0.00198103
-2.8401e-06
-3.97079e-06
6.06249e-05
-0.000404959
-7.77417e-05
0.0070982
1.49913e-05
0.00130718
0.279576
2.94477e-06
1.39523e-05
-4.27224e-06
0.281185
2.17817e-05
-0.000599688
0.00243201
7.1527e-06
4.02268e-06
-0.000211759
-5.47199e-05
2.89716
-0.469142
-8.65825e-06
0.251855
1.4201
0.206921
0.000198834
1.55221e-05
6.81974e-06
-0.0418595
-0.275878
9.13053e-07
-1.67037e-05
-0.383645
9.0439e-07
0.0276019
14.7141
0.00648129
-4.23466e-06
-0.00273011
-2.33653e-06
5.45015e-07
3.5714e-06
0.299126
4.74757e-06
-0.00240406
-0.000899801
5.99594e-06
3.96212e-07
-0.0580239
5.37262e-06
6.21091e-06
-1.21862e-05
-0.00453789
-0.000295429
4.09777e-06
-2.45423e-05
0.773222
-0.279019
-7.78242e-05
-0.302293
0.000299157
-0.00232182
-0.000523042
2.46458e-06
-0.012559
0.000894352
5.89279e-06
4.29025e-06
2.2409e-05
-5.12394e-05
-0.0426632
0.221003
1.74416e-06
-1.68521
-0.000239141
3.55027
-0.224842
0.045589
0.0264146
0.00668412
-0.0903206
0.000550275
0.220573
-0.000266321
-6.24553e-07
1.67619e-05
-0.261975
-0.393408
0.00531107
-0.205085
8.06095e-06
-0.185528
0.127258
4.48763e-06
1.02355e-05
2.93442e-05
0.00124125
-0.0215935
0.580495
0.00104797
8.41504e-06
5.32521e-06
1.474e-06
-0.364248
1.66337e-05
-0.375709
-2.82658e-05
-0.111095
0.00732575
-0.0820484
-7.06092e-05
-0.0280067
5.01297e-06
1.06675e-05
1.67398e-05
1.40287e-06
-0.433889
0.00608504
-0.0363901
-1.51941e-06
0.196449
-0.012565
9.71101e-06
-8.55144e-05
0.220759
0.00056595
8.41957e-06
-7.51928e-05
3.86417e-06
0.28494
7.78335e-06
2.25681e-05
-0.490643
-6.19121e-05
0.00155874
0.000276584
8.19862e-06
1.73613e-06
-1.71541e-05
2.37249e-06
3.8914e-06
5.92931e-06
-7.17163e-05
0.228084
-9.02543
1.13783e-06
-0.000474153
0.284842
2.21703e-06
0.821295
0.301795
7.58066e-06
-0.275614
2.46579e-06
0.00403142
0.0338195
-1.45894e-06
4.72223e-07