/*--------------------------------*- C++ -*----------------------------------*\
| =========                 |                                                 |
| \\      /  F ield         | OpenFOAM: The Open Source CFD Toolbox           |
|  \\    /   O peration     | Version:  v2012                                 |
|   \\  /    A nd           | Website:  www.openfoam.com                      |
|    \\/     M anipulation  |                                                 |
\*---------------------------------------------------------------------------*/
FoamFile
{
    version     2.0;
    format      ascii;
    class       surfaceVectorField;
    location    "950";
    object      ddtCorrDdt0(Uf);
}
// * * * * * * * * * * * * * * * * * * * * * * * * * * * * * * * * * * * * * //

dimensions      [0 1 -2 0 0 0 0];


internalField   nonuniform List<vector> 
27907
(
(-0.00537223 -0.00133843 7.25418e-18)
(-0.00529709 -0.00163106 4.78322e-18)
(-0.00555044 -0.00149722 1.21447e-17)
(0.0133546 0.0192732 5.14571e-18)
(0.0129081 0.0201438 2.74742e-17)
(0.0127406 0.0206938 -7.47535e-18)
(3.00892e-05 -1.79749e-05 3.09422e-19)
(2.69519e-05 -1.45116e-05 -3.02843e-19)
(3.06235e-05 -1.40608e-05 -1.34298e-19)
(-0.127358 -0.0638292 -2.96995e-18)
(-0.121888 -0.0654744 -2.23499e-18)
(-0.120384 -0.0552388 -4.66636e-18)
(0.0119 0.0170989 -1.41107e-18)
(0.0117552 0.0182522 -4.80222e-19)
(0.0107621 0.0176999 -2.42409e-17)
(0.000475721 0.0134871 1.68014e-17)
(-0.00678879 0.0134381 6.88349e-18)
(0.00338695 0.0144563 -4.78374e-18)
(0.00191105 -0.000489321 7.31349e-18)
(0.00359658 -0.000284871 3.58576e-17)
(0.00172959 -0.000416842 1.12652e-17)
(-2.38791e-05 -0.000146215 1.27847e-19)
(-1.76319e-05 -0.000150144 -1.34837e-19)
(-2.71558e-05 -0.000153201 -1.79449e-19)
(-0.0205884 0.012593 1.36119e-17)
(-0.0193994 0.012876 3.41833e-18)
(-0.0203576 0.013975 -1.28088e-17)
(-0.00149223 -0.00024693 -7.36891e-20)
(-0.00154008 -0.000216351 -7.82548e-20)
(-0.00152018 -0.000270429 3.44515e-19)
(-0.000587556 -0.000675116 5.10893e-18)
(-0.000611365 -0.000695503 1.99922e-18)
(-0.000629245 -0.00067252 -1.9674e-18)
(-0.0179528 -0.0027579 3.37403e-17)
(-0.0180591 -0.00347812 -3.48943e-17)
(-0.0240826 -0.00284038 6.49728e-17)
(-5.7234e-05 -9.53345e-06 6.16164e-19)
(-6.5343e-05 -4.80436e-06 1.28228e-19)
(-6.108e-05 -7.06786e-06 -5.31295e-20)
(0.0120307 -0.0539846 2.3261e-18)
(0.00988156 -0.0532258 -5.56212e-18)
(0.0115282 -0.0513527 -1.64686e-17)
(0.00151621 -0.000210959 5.86027e-19)
(0.00152459 -0.000290477 5.20376e-19)
(0.00142947 -0.000249956 -8.47918e-19)
(-0.00449611 0.00752862 -5.46725e-18)
(-0.00403185 0.00750079 9.19606e-18)
(-0.00423912 0.00707596 -5.38959e-18)
(-0.00169088 -0.006515 5.38232e-19)
(-0.001388 -0.00640102 -5.36784e-18)
(-0.00167588 -0.00615389 -7.38733e-18)
(-6.4408e-05 3.40812e-05 4.13057e-19)
(-6.93201e-05 5.71459e-05 2.79917e-20)
(-6.75933e-05 2.21317e-05 -6.38463e-19)
(0.000321214 -0.000188097 2.82222e-19)
(0.000333766 -0.000208755 9.98349e-19)
(0.00034815 -0.000199845 -2.39554e-18)
(-0.0017911 -0.000284669 1.40893e-18)
(-0.00183122 -0.00024546 3.77859e-19)
(-0.00176328 -0.000231927 1.42536e-18)
(0.0481273 -0.00039556 -1.81733e-18)
(0.051751 -3.47964e-05 -1.39983e-17)
(0.0486322 -0.000270656 -1.74719e-17)
(-4.14465e-06 0.000119575 -6.93333e-19)
(-4.79906e-06 0.000169274 -3.72425e-18)
(-1.04884e-05 0.000138282 -4.12036e-19)
(-0.00546169 -0.00599635 7.7186e-18)
(-0.00713547 -0.0061309 -4.97532e-18)
(-0.00472476 -0.00557249 6.29826e-17)
(-0.045348 0.0136943 3.51561e-18)
(-0.0424191 0.0150822 -1.11547e-17)
(-0.0268073 0.0139718 -1.38139e-18)
(0.0128071 -0.00755963 1.19809e-17)
(0.0123276 -0.00847475 -1.77191e-17)
(0.0131184 -0.00779645 -3.45315e-17)
(-3.72135e-05 -0.000145157 6.1669e-20)
(-2.76566e-05 -0.000133939 -1.0306e-19)
(-0.00799606 0.00738223 -1.963e-18)
(-0.00880505 0.0081609 -6.03388e-19)
(-0.00768725 0.00795087 1.69538e-18)
(0.0021007 0.0201715 -1.81014e-18)
(0.0044138 0.0210211 -1.22139e-17)
(0.00356836 0.0200151 -2.8415e-17)
(0.00390867 0.0122508 5.4317e-18)
(0.00494118 0.0144446 1.27661e-18)
(0.0016449 0.0118345 3.03567e-17)
(-0.0123381 0.00370896 1.52247e-17)
(-0.00690551 0.00242389 2.64162e-17)
(-0.0176278 0.012556 2.52546e-17)
(0.000911648 -0.0189186 2.20014e-18)
(0.00015835 -0.0194995 1.64914e-17)
(-4.95052e-05 -0.0185269 6.39348e-18)
(0.0338163 -0.00448084 1.09431e-17)
(0.033851 -0.00541225 -8.06004e-18)
(0.0323379 -0.00589422 3.2857e-18)
(-5.20311e-05 1.52984e-05 1.53622e-18)
(-4.58887e-05 1.59968e-05 -1.69484e-18)
(-5.10839e-05 9.77582e-06 9.46625e-20)
(0.000253973 -0.000661521 -1.62563e-18)
(0.000283661 -0.000694779 -2.29144e-18)
(0.000290912 -0.000653392 3.76394e-19)
(-0.0183835 -0.0246328 -2.0886e-18)
(-0.0170032 -0.0249502 5.84031e-18)
(-0.0180592 -0.0262827 2.53135e-18)
(-5.2092e-05 0.000472505 8.86182e-19)
(-5.40692e-05 0.000442596 -1.8218e-18)
(-5.21484e-05 0.000447831 4.49254e-19)
(-2.5988e-05 2.70511e-05 -1.69961e-19)
(-2.08363e-05 2.28944e-05 1.70732e-18)
(-2.16635e-05 2.9433e-05 1.3183e-18)
(-0.00010375 -0.000359509 2.20925e-18)
(-0.0001143 -0.0003641 1.1504e-18)
(-0.000121757 -0.000385381 -4.956e-19)
(-0.000180277 -0.000457817 1.21322e-18)
(-0.000151214 -0.000438213 1.56565e-18)
(-0.000156774 -0.000437183 -2.08118e-18)
(-0.0029465 -0.00598925 1.14488e-17)
(-0.00270504 -0.00575329 2.22239e-18)
(-0.00260397 -0.00609313 4.43913e-18)
(-7.34273e-05 -0.000329946 4.69851e-19)
(-8.38762e-05 -0.000356401 2.35832e-18)
(-7.43328e-05 -0.000337783 -6.40853e-19)
(-0.00111359 0.000633695 -1.37988e-18)
(-0.00107158 0.000625172 5.4919e-18)
(-0.00110935 0.000593976 1.5545e-17)
(5.9935e-05 3.28495e-06 8.16822e-19)
(5.62518e-05 -9.18419e-06 4.36105e-19)
(6.22414e-05 1.07438e-06 4.91229e-19)
(-0.00126969 0.000175565 3.14242e-18)
(-0.00130188 0.000164106 -3.39602e-18)
(-0.00125687 0.000134404 -3.87787e-19)
(-0.0119582 -0.00333494 -1.55607e-18)
(-0.00938007 -0.000562883 -5.01383e-17)
(-0.0111015 -7.79469e-05 2.68293e-17)
(4.00725e-05 -1.34734e-05 -1.62608e-20)
(4.02541e-05 -8.79339e-06 5.96717e-20)
(4.05618e-05 -9.79362e-06 3.54616e-20)
(-0.00580881 -0.00632758 -2.06149e-17)
(-0.00466814 -0.00579632 8.59273e-18)
(-0.000837974 -0.000597876 -2.16424e-18)
(-0.000830454 -0.000608431 -2.23531e-18)
(-0.000802559 -0.00060172 -1.00713e-18)
(-0.00148835 -0.000213839 6.39187e-20)
(-0.0014425 -0.000245578 -2.58391e-19)
(6.97091e-05 3.41803e-05 -7.47436e-20)
(7.00563e-05 3.73503e-05 -2.52774e-19)
(6.79592e-05 3.56693e-05 2.50023e-19)
(0.00145656 -0.00241228 7.58379e-19)
(0.00174837 -0.00223837 -3.49616e-17)
(0.00177316 -0.00265737 -3.05514e-17)
(0.0160372 -0.00601059 8.92322e-18)
(0.0170241 -0.00441188 -1.26116e-17)
(0.01192 -0.00616644 -1.79602e-17)
(3.35768e-05 2.76791e-05 4.48163e-19)
(3.32289e-05 2.79272e-05 -8.70173e-20)
(3.30033e-05 2.69311e-05 -4.73119e-19)
(-0.000568026 -0.000652938 2.95012e-18)
(-0.000546542 -0.000666707 1.27794e-18)
(0.000936029 0.0186681 9.94697e-19)
(0.000528238 0.0197306 1.34918e-17)
(-0.0399153 -0.00540449 1.90241e-17)
(-0.0294903 -0.0088691 3.15285e-17)
(-0.0234206 -0.00861543 -2.02842e-17)
(-3.11634e-05 2.50869e-05 6.5665e-19)
(-3.12259e-05 3.22365e-05 -1.68516e-18)
(-0.00263373 0.00676267 5.29496e-18)
(-0.00255783 0.00644781 -4.16469e-18)
(-0.000324122 0.000504351 -1.26765e-18)
(-0.000349927 0.000471976 5.51721e-18)
(-0.000356085 0.000481945 -1.27953e-18)
(0.0054543 -0.0563507 1.67619e-17)
(0.00793693 -0.0548848 -4.37777e-18)
(0.00802026 -0.0578442 1.23009e-18)
(-0.00415495 -0.00205876 -4.00941e-18)
(-0.00433638 -0.00195975 5.30301e-18)
(-0.00434275 -0.002177 2.59626e-17)
(0.00191763 -0.00028137 -7.06626e-17)
(0.00172523 -0.000443312 -2.35878e-17)
(-0.0112779 0.00358129 1.93742e-18)
(-0.011923 0.00323439 -5.68236e-18)
(-0.0119333 0.0042682 -1.82607e-17)
(-0.000661094 0.000237211 -5.02141e-18)
(-0.000650617 0.000228754 -4.57652e-18)
(-0.00063736 0.000258861 1.94528e-18)
(3.58094e-05 2.77044e-05 -2.14544e-19)
(3.27155e-05 2.53063e-05 3.72824e-19)
(-5.87154e-05 -9.12405e-05 -4.56173e-18)
(-7.13839e-05 -0.000114398 4.52468e-19)
(-5.33328e-05 -0.000106037 -4.52746e-18)
(-0.00271188 -0.00678916 8.18704e-18)
(-0.00235451 -0.00713592 4.94327e-19)
(-0.00229177 -0.00665574 -3.73792e-18)
(-5.71327e-05 1.32594e-05 1.24267e-18)
(-5.49313e-05 1.95144e-05 1.41874e-18)
(-8.5056e-05 -0.000326534 -1.67039e-19)
(-8.33049e-05 -0.000328608 1.36604e-19)
(-6.3605e-05 -0.000317231 1.55254e-18)
(0.0197052 -0.00571072 2.35125e-17)
(0.0154135 -0.00724808 1.73117e-17)
(0.0238995 0.000272783 1.3488e-17)
(0.0237099 -0.000529609 3.58126e-19)
(0.0274794 -0.000168814 1.17362e-17)
(-0.000382164 0.000523824 1.1607e-19)
(-0.000408733 0.000490289 2.11607e-18)
(-0.000397413 0.000504126 3.37626e-18)
(6.88132e-05 2.92407e-05 -2.4794e-19)
(7.13054e-05 3.23369e-05 9.9204e-19)
(0.00131077 0.00718165 -6.73997e-17)
(-0.00278507 0.00290538 -7.47261e-17)
(-0.00203068 0.00244004 6.73845e-17)
(1.32064e-05 -0.000171315 1.72098e-19)
(8.51401e-06 -0.000180975 1.25015e-19)
(1.67088e-05 -0.000162312 6.2462e-20)
(-0.000360699 0.000383478 4.87588e-18)
(-0.000364233 0.000453583 7.09816e-18)
(-0.000293131 0.000449439 4.04579e-18)
(-0.0348353 -0.00492714 -1.58124e-17)
(-0.0337869 -0.00398397 -4.65178e-18)
(-0.0352157 -0.00301487 2.08574e-17)
(0.0148025 0.0154403 6.34657e-18)
(0.0157789 0.0147076 6.54217e-18)
(0.0142087 0.0159408 3.27035e-18)
(-0.0047064 0.00246065 1.14306e-18)
(-0.00475569 0.00223881 4.42778e-18)
(-0.00496044 0.00242037 -4.50685e-18)
(-0.00112841 -0.001913 -8.1622e-17)
(-0.00140217 -0.00213306 -1.06294e-17)
(-0.000489202 -0.00193179 -7.89298e-17)
(-0.0185694 -0.0132824 2.69786e-18)
(-0.0175923 -0.0131986 2.70789e-17)
(-0.0202674 -0.0139965 2.46339e-17)
(-0.012559 -0.00384953 -2.57174e-17)
(-0.0114822 -0.00252924 -1.34121e-17)
(-0.0171994 -0.00187805 -4.4442e-17)
(0.00380129 -0.0548764 6.36603e-18)
(0.00344683 -0.0577421 -1.63751e-18)
(-0.0125752 0.0164621 1.33037e-17)
(-0.00679221 0.0165704 2.93787e-17)
(-0.00579521 0.0176889 -6.06947e-18)
(-0.0353247 -0.00637725 -5.43124e-18)
(-0.0365665 -0.00556316 -7.90184e-18)
(-0.00131722 -0.00175733 -5.84825e-18)
(-0.00134359 -0.00164507 8.09311e-18)
(-0.00121657 -0.00170962 6.45269e-18)
(-0.0226191 0.00494253 7.98295e-18)
(-0.0238886 0.00462261 -3.33639e-17)
(-0.0262688 0.00622904 1.24359e-17)
(-0.0107696 0.0041225 2.93898e-17)
(-0.0107067 0.00317639 3.84187e-18)
(0.00297905 -0.000342638 -2.38793e-17)
(0.00282156 -0.000569245 3.40053e-17)
(0.00408112 -0.00018399 8.66443e-18)
(-0.0003686 0.000384256 -1.72206e-18)
(-0.000355018 0.000363117 -4.10064e-18)
(-0.0170703 0.016029 -1.91748e-17)
(-0.0183195 0.0154204 6.58565e-18)
(-0.000299829 0.000504109 -2.27398e-18)
(-0.000321472 0.000495683 -4.76032e-18)
(-0.00861021 0.000989414 3.13202e-17)
(-0.00829588 0.00103131 3.02445e-18)
(-0.0149615 0.00199947 3.1677e-17)
(-0.0011946 0.000647887 -1.43312e-17)
(-0.00112441 0.000711287 -6.5574e-18)
(-0.0208236 -0.0135258 -4.44729e-18)
(-0.0203836 -0.0138539 2.11376e-17)
(-0.0218681 -0.0140358 -7.96172e-18)
(-0.00882789 0.00149682 1.94643e-17)
(-0.00445295 0.000738087 1.68757e-17)
(-0.0361702 -0.00813302 1.51996e-17)
(-0.0341539 -0.00747819 2.04698e-17)
(1.51265e-05 -0.000161615 -1.84883e-19)
(9.32673e-06 -0.000180951 2.11765e-19)
(-0.000234012 0.000353631 5.85722e-19)
(-0.000230771 0.000367844 7.55345e-19)
(-0.000245444 0.00035786 2.76395e-19)
(0.0462242 -0.000784927 1.09614e-17)
(0.047923 -0.000865286 6.68419e-18)
(-0.00182013 -0.000390409 1.04644e-18)
(-0.00187091 -0.00038092 6.70496e-18)
(-0.00182155 -0.000366186 -1.44348e-18)
(-0.0209189 0.0156036 -1.98004e-17)
(-0.0254841 0.0146359 -1.11851e-17)
(-0.0247312 0.0146722 -2.68962e-18)
(-0.012376 -0.0091667 -8.49056e-19)
(-0.0115634 -0.00927375 -5.79994e-18)
(-0.0121408 -0.00997499 1.54548e-18)
(-0.00147383 -0.000947751 -8.11819e-18)
(-0.00151921 -0.000897908 -1.58938e-18)
(-0.00145063 -0.000887913 -3.16961e-18)
(0.0347947 -0.0033308 1.20301e-17)
(0.0334026 -0.00350055 3.11426e-18)
(-0.0133688 0.0025941 1.23757e-17)
(-0.0134354 0.00279897 -2.46653e-17)
(0.0130535 -0.0138891 5.14298e-18)
(0.0154473 -0.0117224 -4.7147e-18)
(0.0143717 -0.0151025 -3.95324e-18)
(0.0155434 0.0147992 -7.99017e-18)
(0.0146584 0.0159312 -2.77898e-17)
(-0.000425851 -0.000548022 1.01197e-19)
(-0.000392233 -0.000542483 5.79168e-19)
(-0.000410027 -0.000554178 -3.13726e-18)
(-0.000229126 0.000686655 4.12638e-19)
(-0.000209434 0.00066913 -6.65854e-20)
(-0.000169161 0.000680172 -3.61285e-18)
(-0.0154319 0.0030671 -3.85905e-17)
(-0.00930147 0.00193959 -1.86286e-17)
(-0.0062837 0.0111288 7.43216e-17)
(-6.76599e-05 -0.00012191 -3.61566e-19)
(-6.54457e-05 -0.000116445 1.78766e-19)
(-7.29344e-05 -0.00010624 -4.31911e-19)
(-0.000476251 -0.000345671 8.73191e-19)
(-0.000490947 -0.000353789 8.11326e-19)
(-0.000485011 -0.000357187 4.84117e-19)
(0.0486897 0.0274595 -3.13893e-17)
(0.0497667 0.0273054 5.51813e-18)
(0.0479812 0.0263103 1.2319e-17)
(-0.0516384 0.000252908 -4.05788e-18)
(-0.0522721 0.000291272 2.28705e-17)
(-0.0516582 0.000516238 4.54234e-17)
(-0.0343919 0.00355035 -5.43663e-18)
(-0.0358142 0.00348429 -2.67247e-18)
(-0.0357089 0.00474769 -2.36542e-17)
(0.00157149 -0.000152675 1.17854e-18)
(0.00147969 -0.000130391 -9.08612e-19)
(-0.00619551 -0.0028079 -6.83732e-18)
(-0.0115957 -0.00273081 3.19166e-17)
(-0.00649373 -0.00317275 2.194e-17)
(-0.0215409 -0.0128809 -4.29788e-17)
(-0.0206219 -0.0126245 -2.86362e-17)
(-0.00183668 -0.000738957 -3.42812e-18)
(-0.00180993 -0.000799486 -3.88973e-18)
(-0.00175525 -0.000751974 5.88739e-18)
(-0.000141296 0.000615611 4.3581e-18)
(-0.000153746 0.000629194 -1.76864e-18)
(-0.000151086 0.000643677 2.16023e-18)
(-0.0396847 -0.00993344 -3.51761e-17)
(-0.0383096 -0.0106441 3.19247e-17)
(-0.0381415 -0.010977 1.08159e-17)
(-0.00539141 0.00842835 1.11025e-17)
(-0.00575984 0.00792805 -9.72458e-18)
(-0.00607149 0.00852315 1.0748e-17)
(-0.00880821 -0.00333587 -1.5826e-17)
(-0.00925026 -0.00305448 9.11501e-18)
(-0.00930039 -0.00350868 -4.93095e-18)
(-0.0122495 -0.00220554 -1.0749e-18)
(-0.0117288 -0.00332581 1.02741e-17)
(0.0140367 0.0179555 -1.99856e-17)
(0.0128314 0.0182134 -3.7675e-18)
(-0.0252971 0.0224544 1.25076e-17)
(-0.0276238 0.0224344 -3.59823e-18)
(-0.0271063 0.0244067 1.36345e-17)
(-0.0074469 0.000636302 -1.81033e-17)
(-0.00428196 -2.22525e-05 5.75414e-18)
(-5.30103e-05 -2.80396e-07 -9.36724e-19)
(-5.24901e-05 -5.98347e-06 2.68187e-18)
(-4.23993e-05 -4.07216e-06 2.61765e-19)
(-0.00198764 -0.00657316 3.24536e-18)
(-0.0016951 -0.00686984 8.82788e-18)
(-0.00853279 0.00678369 -4.50123e-18)
(-0.00779659 0.00681082 5.08385e-19)
(0.048956 -0.00052342 -1.88012e-17)
(0.0494561 -0.000161192 -1.74561e-17)
(-0.00325288 0.00131955 2.57676e-18)
(-0.00320114 0.00147056 1.72069e-18)
(-0.00310012 0.00126827 -4.62126e-18)
(-0.00213207 0.0103794 9.05031e-18)
(-0.00206161 0.0111759 -1.04489e-17)
(-0.000899193 0.000153628 -6.48463e-19)
(-0.000939877 0.000170929 5.14441e-19)
(-0.000930017 0.000115315 1.1447e-19)
(-0.0329971 -0.00259471 2.23884e-18)
(-0.0323619 -0.00447263 -4.98574e-18)
(-0.00322785 -0.00622893 8.76952e-18)
(-0.00335431 -0.00579528 -1.67778e-18)
(-0.000246975 0.000334609 3.98332e-19)
(-0.000234044 0.000343934 -4.20342e-19)
(-0.00332981 0.00354754 -1.81903e-18)
(-0.00320086 0.00349109 1.8529e-17)
(-0.00324696 0.00371119 1.38853e-18)
(-0.00452043 0.0025138 -4.55514e-18)
(-0.00469933 0.00272114 -2.23664e-18)
(-0.00720376 0.00280758 -3.34223e-18)
(-0.00730431 0.00318052 -4.82213e-18)
(-0.00756634 0.00287479 -4.25917e-18)
(-0.000441327 -0.000108914 -4.50946e-19)
(-0.000445968 -0.000156149 -2.39377e-19)
(-0.00045816 -0.000118852 -4.33231e-18)
(-0.0463919 -0.00401675 -6.47679e-18)
(-0.0501418 -0.00368787 -9.44543e-18)
(-6.23627e-05 -0.000323632 -1.18302e-18)
(-8.05689e-05 -0.000337249 2.4111e-19)
(0.000450435 -0.000255065 -6.9598e-19)
(0.000458297 -0.000247486 3.0011e-19)
(0.000426775 -0.000235814 -1.75211e-18)
(0.0333058 0.000683795 3.36361e-19)
(0.0326128 0.00232145 -3.68601e-17)
(0.035715 0.000277362 -7.46104e-18)
(-0.0110196 -0.00374629 6.836e-19)
(-0.0136889 -0.00494538 3.2881e-18)
(-0.0140413 -0.00152311 1.30058e-18)
(0.00151527 -0.0182605 -2.9037e-19)
(0.00185656 -0.0192262 -4.73062e-18)
(0.0561208 0.0202235 5.1325e-19)
(0.0565363 0.0212523 1.17247e-17)
(0.0545326 0.0208822 9.92087e-18)
(-0.0120235 -0.00557285 -4.51616e-18)
(-0.0103865 -0.00422295 -1.97858e-17)
(-0.00745232 -0.0236135 -2.70086e-18)
(0.00280129 -0.0239065 -2.47311e-19)
(-0.00517117 -0.0260466 -3.74428e-18)
(-0.0013564 -0.00154772 -3.28849e-19)
(-0.00127502 -0.00150792 -4.88033e-18)
(-0.00137934 -0.00145335 5.03649e-18)
(2.45507e-06 0.000109123 -2.53815e-19)
(-7.45708e-06 0.000146237 -1.49085e-18)
(1.05866e-06 0.000120283 -1.76531e-18)
(-0.015349 -0.0109971 2.3572e-17)
(-0.0159743 -0.0116695 -5.66728e-18)
(-0.0156738 -0.0107378 -4.41392e-17)
(-0.00120656 -0.00102475 1.40186e-17)
(-0.00114675 -0.00101936 2.44238e-18)
(-0.00117174 -0.000979562 6.37758e-18)
(-0.00333068 -0.00217724 3.04257e-17)
(-0.00528531 -0.00200256 -4.29598e-17)
(-0.000850202 -0.000590474 -1.48698e-18)
(-0.000877237 -0.00059832 2.43614e-18)
(-0.000524734 6.7845e-05 2.39146e-18)
(-0.000541941 4.94561e-05 -2.55599e-18)
(-0.000532077 0.000104259 2.30601e-18)
(-1.22005e-06 9.49372e-05 -5.40196e-18)
(-2.02994e-06 4.65383e-05 -9.8717e-19)
(-1.72248e-06 4.76055e-05 -1.06412e-18)
(-0.000170196 -0.000107354 -3.88004e-19)
(-0.000171953 -0.000130105 -8.94884e-19)
(-0.000176019 -0.000101462 -4.68451e-19)
(-0.000517375 -0.0537696 -1.06605e-17)
(0.00148348 -0.0539243 -1.01549e-17)
(0.000182328 -0.0560153 -7.96972e-18)
(-0.0106323 0.00293359 -1.30814e-17)
(-0.0130319 0.00332962 9.8182e-18)
(-0.00607887 0.00206674 2.66876e-19)
(-0.000512035 7.46424e-05 -3.98074e-18)
(-0.000529145 4.40036e-05 1.06158e-18)
(-0.00397284 -0.00214651 4.2103e-18)
(-0.00399257 -0.00194922 -1.48565e-17)
(0.00524303 0.0117931 3.67029e-17)
(0.00267548 0.00974045 1.3497e-18)
(0.000305727 -0.0002199 -3.13844e-19)
(0.000313456 -0.000240461 -1.93497e-18)
(0.000287347 -0.000221316 -1.97419e-18)
(-0.0392202 -0.00918362 -1.99698e-17)
(-0.0415335 -0.00846031 -4.08661e-18)
(-0.0388147 -0.00868319 8.34819e-18)
(-0.00323867 -0.00580273 1.26293e-19)
(-0.00351213 -0.00557583 1.23743e-17)
(-0.0031973 -0.00543862 2.9074e-17)
(0.000490739 0.0168534 3.19095e-17)
(0.0100169 0.0178696 4.31037e-18)
(0.00867885 0.0170126 3.11948e-17)
(-0.0446065 -0.00363111 7.71657e-17)
(-0.0440497 -0.00391416 3.43507e-18)
(-0.0425049 -0.00459592 -9.27822e-18)
(-6.62787e-05 2.16105e-05 -5.49341e-19)
(-7.09694e-05 4.85124e-05 5.92855e-19)
(-0.0169741 0.00368955 -6.76844e-17)
(-0.00942156 0.00230133 -7.76677e-18)
(0.00460254 0.0197842 -2.95058e-19)
(0.00572922 0.01956 3.17215e-17)
(0.00649702 0.0207115 2.28598e-17)
(-0.00129217 -0.051842 -1.2699e-17)
(-0.0025795 -0.0538486 -1.16436e-18)
(-0.0478106 0.0114923 8.53726e-18)
(-0.0469535 0.0117921 -3.13537e-18)
(0.0238065 0.0196878 6.37657e-18)
(0.0210466 0.0174937 2.97637e-18)
(0.0221713 0.0193737 1.65951e-17)
(-0.000691062 0.000220706 2.56729e-18)
(-0.000665624 0.000264345 -1.16234e-18)
(-0.00321975 0.00335024 7.23136e-18)
(-0.00340581 0.00343077 -6.82663e-18)
(-0.00031796 -0.00051252 -5.30504e-19)
(-0.000323504 -0.000508057 2.66909e-19)
(-0.000303718 -0.000504434 -2.66005e-20)
(-8.70604e-05 -3.58024e-05 8.91568e-20)
(-8.74377e-05 -2.08605e-05 -3.4432e-19)
(-8.47627e-05 -3.63474e-05 -5.34861e-19)
(-0.0432928 0.00051829 1.70854e-17)
(-0.0427961 0.000482283 -9.6862e-18)
(-0.0272006 -0.025254 2.08335e-19)
(-0.011749 -0.0230598 1.78997e-17)
(0.000114094 5.38836e-06 1.3902e-18)
(0.000120365 2.56174e-06 -1.95411e-19)
(0.000119783 1.58076e-06 6.44691e-20)
(0.00105658 -0.00194786 -1.81579e-18)
(0.00114314 -0.00203223 3.60414e-18)
(0.00101599 -0.00203098 9.19726e-18)
(-0.0382012 -0.0198609 -2.06258e-17)
(-0.0574233 -0.0196353 1.00587e-18)
(-0.0529366 -0.0221476 5.84513e-18)
(-0.000251075 0.000493466 1.24956e-18)
(-0.000259317 0.000479483 1.00447e-19)
(-0.000254005 0.000473547 -1.16303e-18)
(-0.0516585 6.42937e-05 2.70163e-17)
(-0.0509583 0.000127901 -1.94354e-17)
(6.38251e-05 6.93041e-06 -2.11566e-19)
(6.49262e-05 1.75316e-05 -2.28028e-19)
(6.09346e-05 9.35018e-06 -4.30212e-19)
(-0.000224197 0.000507437 -4.20583e-18)
(-0.00021869 0.000515267 -1.58299e-18)
(-0.000221437 0.000510244 -1.10028e-18)
(-0.00331311 0.00115852 8.51324e-19)
(-0.00338224 0.00133325 2.22384e-18)
(-0.0232291 0.0227773 -1.10907e-17)
(-0.023608 0.0210522 -3.92664e-18)
(-0.000648894 -0.000444523 -1.47315e-18)
(-0.000667548 -0.000447481 -7.51092e-19)
(-0.000663105 -0.000430974 -4.15458e-19)
(0.00207168 -0.0175841 -2.04457e-20)
(0.00119244 -0.0173365 -2.03099e-18)
(-0.00216562 0.000411467 -4.08974e-18)
(-0.00223165 0.000461548 -2.57508e-18)
(-0.00223884 0.000396721 -3.76161e-18)
(-0.0101775 0.00457533 1.28483e-17)
(-0.0107407 0.00515271 2.29312e-17)
(-0.00179386 -0.000318992 -3.49995e-18)
(-0.00184947 -0.000288693 2.07878e-19)
(-0.00290237 -0.00614053 -7.16374e-18)
(-0.00337306 -0.00636217 -5.49972e-17)
(-8.58489e-05 0.000103072 1.36507e-18)
(-8.062e-05 0.000117144 -2.11677e-19)
(-8.13993e-05 0.000126478 1.37247e-18)
(6.42461e-05 5.61366e-06 -1.79317e-19)
(6.48037e-05 1.22257e-05 1.52347e-19)
(-0.00235421 0.00384914 2.16555e-17)
(-0.00256794 0.0038303 5.47681e-18)
(-0.00247258 0.00365916 1.4574e-17)
(-0.000863846 -0.000587364 7.29791e-19)
(-0.000823407 -0.00058046 2.96135e-19)
(-0.00177894 -0.000674499 -1.14864e-18)
(-0.00180644 -0.000653609 1.99553e-18)
(-0.00183738 -0.00068884 -5.15982e-18)
(-0.00717388 0.0016223 3.37634e-18)
(-0.00696511 0.00182173 2.28201e-17)
(-0.00729483 0.00185141 8.13381e-18)
(-5.70985e-05 -1.36536e-05 4.70641e-19)
(-5.13541e-05 -1.27541e-05 1.27171e-18)
(-0.00208991 0.000396144 -4.03752e-18)
(-0.0021297 0.000336766 5.74337e-19)
(-0.0126213 -0.00763135 -9.50181e-18)
(-0.0127392 -0.00679886 -1.68135e-17)
(-0.0134275 -0.00751272 -8.71102e-18)
(1.04279e-06 6.83055e-05 1.16674e-18)
(-2.87832e-07 0.000110041 -1.63528e-18)
(0.0469374 -0.00143808 6.53035e-18)
(0.0485601 -0.00057071 8.49556e-18)
(0.0474505 -0.00123565 -2.29934e-18)
(-0.0014629 -0.000188391 8.38765e-19)
(-0.00151452 -0.00016349 8.81976e-19)
(-7.38847e-05 7.32283e-05 1.04398e-19)
(-7.02888e-05 7.60072e-05 8.63208e-19)
(-5.93077e-05 6.64076e-05 6.8871e-19)
(-0.00147748 -0.00101218 -5.007e-18)
(-0.0014152 -0.000972615 -9.33877e-19)
(-0.000586121 -6.43035e-06 -1.5255e-18)
(-0.000585865 -5.97653e-05 -3.70018e-18)
(-0.000548155 2.94065e-06 -1.00303e-19)
(-0.00164948 -0.000678141 2.50494e-18)
(-0.0016409 -0.000698702 -1.91514e-18)
(-0.00168315 -0.000698291 -1.52192e-18)
(-0.00411674 0.00277179 1.19183e-18)
(-0.00389779 0.00276993 -3.9382e-18)
(-0.00403108 0.00258882 6.05332e-18)
(-0.0184752 -0.0117989 6.52357e-18)
(-0.0154961 -0.0113535 -2.8479e-18)
(-0.0158367 -0.0118897 -2.5329e-17)
(-0.00417034 0.00299078 -3.08355e-17)
(-0.00430095 0.00277968 1.28718e-18)
(-0.00312293 0.0071183 -2.32456e-18)
(-0.00345268 0.00716366 2.58594e-18)
(-0.00332864 0.00693843 5.5345e-18)
(3.95161e-05 -4.88745e-05 -2.24919e-19)
(3.88748e-05 -4.13933e-05 -2.28568e-19)
(3.65564e-05 -5.69185e-05 1.4907e-19)
(0.0082642 0.0139223 4.71281e-17)
(-0.00119714 0.012551 -1.94254e-17)
(-7.15892e-05 8.36353e-05 -7.36226e-19)
(-0.000444758 -0.000546897 4.53961e-19)
(-0.000461716 -0.000559771 3.4502e-19)
(-0.0333458 -0.0172322 1.28385e-17)
(-0.0345086 -0.0158505 1.90694e-17)
(-0.0324232 -0.0160171 3.4956e-18)
(0.0384639 0.00365116 -8.79867e-19)
(0.0296916 0.00547269 1.05971e-17)
(0.00281564 -0.00548123 2.89069e-19)
(0.00317773 -0.00586048 -3.8673e-18)
(0.0026798 -0.00584255 -1.71331e-17)
(-0.0125321 -0.00846362 -2.2787e-18)
(-0.0118924 -0.00776485 -7.2953e-18)
(-0.00186721 0.000532252 7.5426e-20)
(-0.00206514 0.000563558 2.56974e-17)
(-0.00195989 0.000393836 -1.33697e-18)
(-0.00311568 0.000465306 2.218e-19)
(-0.00320552 0.000409989 6.48463e-19)
(-0.00322933 0.000537537 -8.35636e-19)
(0.000120327 -3.91103e-05 5.22241e-19)
(0.000123552 -5.09999e-05 -8.97418e-19)
(0.000127761 -4.86853e-05 4.29269e-19)
(-0.00644467 0.00219614 4.9494e-18)
(-0.00605836 0.00239657 1.4034e-18)
(-0.00658503 0.00262264 -3.58106e-17)
(-6.79281e-05 -6.91727e-05 3.75937e-18)
(-7.12444e-05 -5.79074e-05 -2.90102e-18)
(-0.00960707 0.00405861 -1.96742e-17)
(-0.00954561 0.00496034 -1.13728e-17)
(-0.00633728 -0.00660885 -5.81554e-18)
(-0.00642544 -0.00705226 8.15601e-18)
(-0.0055163 -0.00645484 3.59286e-17)
(-0.0367106 -0.00949155 4.59573e-18)
(-0.0378736 -0.00869283 -2.20763e-18)
(-8.23039e-05 2.61659e-07 1.18631e-19)
(-7.03493e-05 -3.93598e-06 7.72094e-19)
(-0.000260452 0.00049385 -3.69379e-18)
(-0.000251704 0.000487079 2.95288e-18)
(0.000124258 -3.15768e-05 5.1113e-19)
(0.000114921 -3.70564e-05 8.57912e-19)
(3.62981e-05 -2.55372e-05 -9.91036e-21)
(3.34587e-05 -3.22165e-05 3.96901e-21)
(3.30385e-05 -2.82468e-05 5.833e-21)
(-0.0427627 -0.008761 3.65995e-17)
(-0.0416222 -0.00956045 5.59799e-18)
(-0.00148468 -0.000659067 -3.47902e-18)
(-0.00149107 -0.000670707 3.84614e-18)
(-0.00148459 -0.000673784 3.72591e-18)
(-0.000174765 5.93614e-05 -5.27135e-19)
(-0.000177185 6.00612e-05 -3.95441e-19)
(-0.000175141 3.47108e-05 -1.6772e-18)
(-0.00302456 -0.00952925 2.26554e-17)
(-0.00288891 -0.00982244 1.79514e-18)
(-0.00193165 -0.0107891 3.41335e-17)
(0.0133064 -0.0124702 6.48365e-18)
(0.0107941 -0.0159694 5.12849e-18)
(-0.000150042 -0.00070368 -1.47748e-18)
(-0.000160724 -0.000740598 -1.7899e-18)
(-0.000111457 -0.000712771 1.93476e-18)
(0.0550724 0.0193579 -8.87678e-18)
(0.0541017 0.0198127 9.93789e-19)
(-0.00304458 0.00524217 -1.4627e-17)
(-0.00375251 0.0055969 8.2486e-18)
(-0.00356784 0.00553645 -1.50638e-17)
(-0.0374921 -0.0111735 5.65338e-19)
(-0.0354106 -0.0106867 -1.29072e-18)
(-4.5843e-05 0.000492682 6.6614e-19)
(-4.44329e-05 0.000497138 1.79937e-18)
(-0.0190807 -0.0133553 -3.42294e-17)
(-0.0196042 -0.0134807 1.15323e-17)
(-0.021158 -0.0138358 -3.99981e-17)
(-0.00108264 0.00124687 1.06595e-17)
(-0.000968734 0.00133902 7.52342e-19)
(-0.000960842 0.00117596 6.41543e-19)
(-6.15576e-05 0.000382424 7.96898e-19)
(-7.02876e-05 0.000358239 -8.55036e-19)
(-7.59147e-05 0.000341704 -7.01048e-19)
(-0.0391244 -0.00956978 1.77062e-18)
(-0.035715 -0.00981502 3.22552e-17)
(-0.0013938 -0.00177269 -1.22442e-17)
(-0.0013054 -0.00186088 -1.66005e-17)
(-0.00114454 0.00132891 -4.94938e-18)
(-0.00117946 0.00122368 9.46514e-18)
(0.000967104 -0.000326366 9.97506e-19)
(0.00100298 -0.000312549 -2.12036e-18)
(0.00100217 -0.000349585 3.04832e-19)
(-0.0018402 -0.000556144 -1.73603e-18)
(-0.00183967 -0.000583512 -6.79722e-19)
(-0.00187668 -0.00057975 2.21582e-18)
(-0.0491593 2.73543e-05 2.97974e-18)
(-0.0504102 0.00183921 9.86023e-19)
(-0.0472833 0.00126969 1.97906e-18)
(-0.00330178 0.00748976 -1.09579e-17)
(-0.00289534 0.00734078 1.35979e-17)
(-0.00167226 -0.000653084 2.64625e-18)
(-0.00163576 -0.000648191 1.9594e-18)
(-0.00477987 0.00198538 5.6133e-18)
(-0.00500004 0.00190791 8.23613e-19)
(-0.004796 0.00174872 4.47807e-18)
(0.000232882 -0.000155011 -2.74838e-19)
(0.00024373 -0.000153267 -9.89165e-19)
(-0.00914975 -0.00661881 1.04163e-17)
(-0.00964279 -0.00707053 7.19624e-18)
(-0.00890377 -0.00733047 1.21126e-17)
(-0.000102862 -0.000213738 6.16154e-19)
(-0.000108092 -0.000201084 -7.69751e-19)
(-0.000108608 -0.000215384 -1.14386e-18)
(-0.007596 0.00126646 -1.08851e-17)
(-0.00705651 0.00119593 -1.04174e-17)
(-0.00145191 -0.000162855 -6.15358e-19)
(-0.00141437 -0.000197685 -5.84318e-20)
(-0.032427 -0.0187704 7.66712e-18)
(-0.034094 -0.0187077 -7.47708e-18)
(-0.0269614 -0.00322782 -1.66192e-17)
(-0.0247305 -0.00191335 4.8943e-17)
(-0.0283132 -0.0033261 1.51434e-17)
(3.84893e-05 -5.85258e-05 -1.78577e-20)
(4.32262e-05 -4.17148e-05 -1.19685e-19)
(-0.00034725 -0.000525353 -3.14884e-18)
(-0.000353833 -0.000535499 -2.01391e-18)
(-0.000370301 -0.000534485 -7.12138e-19)
(-0.0087024 0.00184321 7.71353e-18)
(-0.00888001 0.00140993 -5.35196e-18)
(-0.00920483 0.00190607 -2.3387e-18)
(-0.00032253 -0.000515689 2.49023e-20)
(-0.00033961 -0.000516277 -4.54568e-19)
(0.00109115 -0.00186167 -1.01522e-18)
(0.000986717 -0.0018754 -4.06896e-18)
(-0.00625932 0.00170833 -3.36092e-18)
(-0.0120457 -0.000689173 3.22933e-18)
(-0.012436 0.000988595 6.39441e-18)
(-0.0141008 -0.00133815 8.71554e-18)
(-0.0334115 0.00334488 1.50298e-17)
(-0.0338017 0.00243658 3.58404e-17)
(-0.00043809 -3.39215e-05 -1.37563e-18)
(-0.000430585 -3.7015e-05 2.87547e-18)
(-0.000431125 8.37333e-07 -8.12504e-19)
(0.00163148 -0.00158268 1.88855e-17)
(0.00140599 -0.00127307 1.70753e-18)
(0.00127076 -0.00164137 2.06307e-17)
(-0.0100763 0.0331553 -2.9854e-18)
(-0.0041474 0.0363 -2.01354e-18)
(-0.00413474 0.0233746 5.41527e-18)
(-0.0104084 -0.00191712 1.96619e-17)
(-0.00959254 -0.00324396 3.39547e-17)
(-0.000743563 -0.000410286 -1.45292e-18)
(-0.000736221 -0.000394806 -6.76796e-19)
(-0.000719604 -0.00041248 -1.48421e-18)
(0.000127514 -4.15822e-05 1.27095e-19)
(0.000131706 -5.52569e-05 1.694e-18)
(0.000142931 -4.55188e-05 2.68404e-19)
(-0.00127319 -0.000653691 -7.70784e-18)
(-0.00129274 -0.000648409 -4.27605e-18)
(-0.00127719 -0.000670181 -8.85453e-18)
(-0.00148024 -0.000645757 -7.49141e-18)
(-0.00148905 -0.000647434 -8.73221e-19)
(-0.000437196 -6.29055e-05 2.63802e-18)
(-0.000431028 -9.79369e-05 3.50102e-19)
(-0.0145696 0.0305178 2.86293e-18)
(-0.020997 0.0233846 1.3813e-18)
(-0.00337492 -0.00931914 9.66592e-19)
(-0.00376569 -0.00919309 -2.49627e-17)
(-0.117654 -0.10056 4.86344e-18)
(-0.121684 -0.0991271 2.84432e-17)
(-0.116922 -0.0978262 1.97354e-17)
(0.0495841 -0.000766466 8.51921e-18)
(-0.00840522 -0.00702353 -6.89256e-17)
(9.7425e-05 2.06398e-05 1.23427e-18)
(0.000104791 1.17997e-05 -5.66587e-19)
(9.98232e-05 1.77157e-05 8.65569e-19)
(3.26249e-05 -2.21241e-05 -1.46036e-19)
(3.42044e-05 -1.94942e-05 1.01485e-19)
(-0.00340985 0.000378165 5.16927e-19)
(-0.00345011 0.000510691 -8.96694e-19)
(-0.00357543 0.000416521 9.34496e-19)
(-0.0222494 -0.0118258 1.14341e-17)
(-0.0223808 -0.01152 -3.3389e-17)
(-0.000645295 0.000847426 -7.32371e-18)
(-0.000597801 0.000824606 4.3257e-18)
(-0.000638808 0.000791735 3.73272e-18)
(-0.00455527 0.00207024 4.77311e-19)
(-0.00405432 0.00551093 -4.32209e-19)
(-0.00461733 0.00544665 6.71137e-18)
(-0.0042967 0.00496663 -4.99765e-18)
(-0.00127533 -0.000624444 1.98594e-18)