/*--------------------------------*- C++ -*----------------------------------*\
| =========                 |                                                 |
| \\      /  F ield         | OpenFOAM: The Open Source CFD Toolbox           |
|  \\    /   O peration     | Version:  v2012                                 |
|   \\  /    A nd           | Website:  www.openfoam.com                      |
|    \\/     M anipulation  |                                                 |
\*---------------------------------------------------------------------------*/
FoamFile
{
    version     2.0;
    format      ascii;
    class       volVectorField;
    location    "650";
    object      U_0;
}
// * * * * * * * * * * * * * * * * * * * * * * * * * * * * * * * * * * * * * //

dimensions      [0 1 -1 0 0 0 0];


internalField   nonuniform List<vector> 
18758
(
(1.00421 0.00314496 0)
(0.943946 0.00298478 -6.5887e-22)
(1.00319 4.07763e-06 0)
(1.00449 0.0047261 1.70693e-21)
(1.02183 -0.0067305 -1.73106e-21)
(1.00729 0.00020358 -1.47022e-22)
(1.01565 -0.00500872 2.36176e-21)
(1.02645 -0.0171688 0)
(1.02072 -0.00587882 1.67836e-21)
(1.01984 -0.00410998 8.38255e-22)
(0.962854 0.0271524 1.13293e-21)
(0.908061 0.271586 0)
(1.08775 0.0281939 -4.0497e-22)
(1.03407 -0.0150895 0)
(1.01509 -0.0047767 -1.69698e-21)
(1.01237 -0.00221319 -8.22786e-22)
(0.923383 0.26546 0)
(1.01167 0.00167546 -3.57018e-23)
(1.01489 -0.00455885 -1.01171e-21)
(1.01502 -0.0199884 -4.70795e-22)
(0.866972 -0.0267234 4.479e-23)
(1.03236 -0.244337 1.44139e-20)
(1.0067 0.000140897 2.30628e-22)
(1.00665 0.000188627 -2.58915e-22)
(1.0297 -0.252029 -3.31528e-20)
(0.871708 -0.179554 0)
(0.902023 0.198057 0)
(1.02006 0.0508902 4.43903e-21)
(0.98733 -0.0664004 0)
(0.909867 -0.0212327 0)
(0.949808 -0.389537 -1.44564e-20)
(0.917635 0.246052 -7.8657e-21)
(1.02614 -0.0166354 1.68991e-21)
(0.977414 -0.28635 0)
(1.02217 -0.00926446 -1.00289e-21)
(0.906607 -0.00174856 -2.53098e-22)
(1.08069 0.0433912 0)
(1.02121 -0.00839898 1.03164e-22)
(0.838845 0.299647 -1.0163e-20)
(1.01384 0.00279454 0)
(0.897739 0.205953 0)
(1.02011 -0.000875318 2.21952e-21)
(0.990237 0.153385 2.11203e-21)
(1.01331 0.000662152 -9.77891e-22)
(1.01002 -0.000747594 1.02034e-21)
(1.00416 -0.370809 2.00558e-20)
(1.01869 -0.0012981 -2.083e-21)
(0.983069 -0.0534462 -1.19424e-21)
(0.217245 -0.207774 7.73021e-20)
(1.0077 0.00736362 0)
(0.956077 0.0398861 9.96628e-22)
(0.487177 -0.29625 0)
(1.00865 0.00849002 -1.08762e-21)
(1.00735 -0.00754917 -7.66708e-22)
(1.02309 -0.169915 -1.42767e-20)
(1.07963 0.0182035 -3.49672e-22)
(1.01144 0.000325724 -7.54905e-22)
(1.01478 -0.0190985 6.38585e-22)
(0.989169 -0.0462989 0)
(1.01124 0.0003751 6.62586e-22)
(1.00934 -0.000593919 0)
(1.01328 0.000365373 5.73133e-22)
(0.879248 -0.297279 -1.04388e-20)
(0.666081 0.316327 3.60866e-21)
(1.00884 -0.000540943 5.40469e-22)
(0.97206 -0.316818 4.11192e-20)
(1.00572 -0.000197315 2.06848e-22)
(1.01005 0.00149776 -4.62508e-22)
(1.02763 0.0499579 -6.89164e-21)
(1.01168 0.00174544 1.93259e-23)
(0.435228 -0.310356 -9.75094e-22)
(0.844296 -0.189448 2.52105e-21)
(1.01316 -0.00534583 -2.93836e-23)
(1.02124 -0.0270133 5.39071e-22)
(1.04366 -0.0719493 9.68535e-22)
(0.963144 -0.368143 2.87075e-20)
(0.867337 -0.249598 -7.28327e-21)
(0.964275 0.230372 8.52174e-21)
(1.02104 -0.0045029 0)
(1.00803 0.137723 0)
(1.0195 -0.111787 -1.68483e-20)
(0.872872 0.325318 1.35103e-20)
(0.969665 0.228448 -1.06989e-20)
(1.0354 -0.0472403 0)
(1.01385 0.00266292 1.89393e-22)
(1.03251 -0.150971 -2.90747e-20)
(1.04952 -0.0210242 9.86068e-21)
(1.02111 -0.0281851 -2.42494e-22)
(0.862112 -0.299656 9.45462e-21)
(1.03795 -0.149209 2.90689e-20)
(0.240046 -0.354266 -5.52378e-21)
(1.00941 -0.000506744 -1.12542e-21)
(1.03946 -0.0923511 0)
(0.246984 -0.209012 -6.43231e-20)
(1.01305 -0.00513019 -1.19011e-21)
(1.00741 -0.000917411 -3.32824e-22)
(1.01284 0.00244704 -1.36065e-22)
(1.01458 -0.0554652 1.7043e-20)
(0.923261 0.248467 9.82942e-21)
(1.0108 -0.00376811 -3.08068e-22)
(1.01706 -0.376694 -1.73266e-20)
(1.0085 -0.0291577 -9.70206e-22)
(1.0101 0.00152287 4.43704e-22)
(1.00735 -0.000874394 3.05099e-22)
(0.976234 -0.320144 1.75753e-20)
(0.873662 -0.0490716 1.33165e-21)
(0.983093 -0.0584014 1.23399e-21)
(0.265671 -0.356517 1.38551e-20)
(0.841818 -0.218446 4.05419e-21)
(0.855213 0.0343815 -1.18462e-21)
(1.01282 -0.00211524 -3.6483e-23)
(0.699499 0.328471 -2.12148e-21)
(1.00999 0.00717166 0)
(1.00432 -3.36679e-05 9.77293e-22)
(1.00703 -0.0288557 1.12001e-21)
(0.833077 0.139963 1.85739e-21)
(1.01436 -0.0522863 -9.16149e-21)
(1.01038 0.000798403 1.1969e-21)
(0.66779 0.128576 0)
(1.01275 0.0040899 0)
(1.00514 -6.91049e-05 0)
(0.860279 -0.256612 1.42617e-20)
(1.01332 0.00297896 -1.91993e-22)
(1.00875 0.000268948 -1.27387e-21)
(-0.0225734 -0.080214 0)
(1.00721 -0.00843678 0)
(1.01194 0.000408252 -7.33989e-22)
(1.00869 0.000240321 1.02072e-21)
(0.939725 -0.0908795 3.10638e-21)
(-0.0721797 0.0604854 0)
(0.988676 -0.0509779 1.59348e-21)
(1.00604 -0.00030508 0)
(1.02986 -0.0219455 -4.63792e-21)
(0.692966 -0.326282 -8.12489e-21)
(1.01394 0.00291705 -1.09042e-22)
(1.00537 -0.000117543 -1.49595e-24)
(0.875451 -0.288127 -2.091e-21)
(1.01205 0.00272298 0)
(0.937547 0.0359581 -6.29201e-21)
(1.01663 -0.107501 1.43592e-20)
(1.01101 0.00924495 0)
(0.873702 0.182145 5.89694e-21)
(1.03055 -0.0539456 -8.83558e-21)
(0.84668 -0.236259 3.26728e-21)
(-0.0311642 -0.060388 0)
(1.04975 -0.0699618 -1.38888e-20)
(0.932908 -0.321457 2.46263e-20)
(0.954953 -0.0894478 1.10458e-21)
(0.957585 0.0184385 -1.16155e-21)
(0.444013 -0.0604196 7.16967e-21)
(-0.0595398 0.06958 -2.78791e-22)
(-0.0368066 -0.000300115 -2.38351e-20)
(1.02589 -0.00500245 0)
(1.0206 -0.0116704 0)
(0.90342 0.219969 4.56655e-21)
(0.692515 0.265813 0)
(1.03671 -0.0899732 -5.16545e-21)
(0.935876 -0.0955187 -1.68738e-21)
(1.02748 -0.0543589 1.52454e-21)
(0.94529 0.0153948 -5.9777e-22)
(0.511738 -0.00233795 -1.12602e-20)
(1.00958 0.000161813 0)
(0.284419 -0.178319 2.97838e-21)
(0.934146 -0.324961 -2.40066e-21)
(1.02094 -0.285529 6.90778e-21)
(1.01095 0.000433218 6.31337e-22)
(1.00948 0.000200389 2.05523e-22)
(0.345468 -0.152401 0)
(-0.0685798 0.0573573 0)
(0.887293 0.279767 -3.78034e-21)
(0.024835 -0.042965 0)
(1.00229 6.96641e-05 -7.95918e-23)
(0.977208 -0.0667932 0)
(0.897828 0.00309139 0)
(0.819764 -0.214236 -1.83687e-21)
(1.01009 -0.00307681 0)
(1.01314 -0.00503649 -3.61647e-22)
(0.90539 -0.180038 0)
(0.969063 -0.274353 1.04834e-20)
(1.03556 -0.00708312 -1.64115e-20)
(1.0094 0.00119355 -3.97961e-22)
(1.00715 -0.0114434 -7.37357e-22)
(1.02035 -0.163492 3.27849e-22)
(1.04023 -0.0104395 0)
(0.378201 -0.0307386 3.25383e-22)
(1.0175 -0.00292241 1.96593e-21)
(0.907281 -0.0328831 1.60137e-22)
(0.990641 -0.0120408 0)
(0.303174 -0.22538 -6.7212e-20)
(1.03311 -0.228285 -4.06285e-21)
(-0.0336061 0.00372643 1.59462e-20)
(1.0173 -0.00295832 -4.53297e-23)
(1.02293 0.0112044 0)
(0.91848 -0.202836 0)
(1.00953 0.000973537 2.42305e-22)
(1.03848 -0.0104701 -2.23611e-21)
(0.925774 0.0542059 -2.42586e-20)
(1.02541 -0.0048038 2.00942e-21)
(0.33135 -0.236795 2.80863e-20)
(1.0057 0.000159827 5.47726e-22)
(1.01305 0.00380134 0)
(0.924436 -0.097936 1.00259e-21)
(1.02934 -0.134303 -7.56141e-22)
(1.01222 -0.00176413 0)
(1.01294 -0.0022676 3.60991e-21)
(0.323914 -0.195192 -1.99199e-20)
(1.00997 -0.000967705 -1.36247e-23)
(1.02208 -0.0109854 0)
(-0.0666573 0.0723182 0)
(-0.071652 0.059338 -4.64173e-21)
(1.00408 8.08492e-05 -3.78087e-22)
(1.02931 -0.0895979 0)
(1.01294 0.00449161 7.68327e-22)
(1.00927 -0.00115937 -5.43702e-22)
(1.0147 -0.0172846 -4.96599e-22)
(1.01292 0.00246873 1.32345e-22)
(1.01269 -0.000727231 -1.57157e-21)
(1.03242 -0.0883322 9.82345e-21)
(1.00806 0.000292406 -9.36028e-23)
(0.883147 0.127324 -1.06262e-21)
(0.917979 -0.190173 3.7673e-22)
(1.01021 0.000865711 0)
(1.02951 -0.0518395 0)
(0.91845 -0.0926459 -2.01971e-22)
(1.03773 -0.140211 4.9409e-22)
(0.897806 -0.146829 1.59289e-21)
(1.04111 -0.0789026 -9.47371e-22)
(1.0588 -0.151058 0)
(0.440344 -0.0677361 1.08513e-20)
(1.00983 -0.000930984 3.7764e-22)
(0.862909 -0.172029 1.13409e-21)
(1.04734 -0.0680627 2.10802e-20)
(0.821426 -0.197813 0)
(1.00485 -0.000115558 -1.8025e-22)
(1.00968 -0.00168588 0)
(1.01017 0.000843789 7.57274e-22)
(1.07683 -0.049064 0)
(0.141807 -0.186163 1.47602e-20)
(0.911363 0.0763333 0)
(1.02317 -0.0127628 1.12207e-22)
(1.01324 -0.0024553 0)
(1.07021 -0.0486928 -7.23147e-22)
(0.951001 0.0204499 -8.84012e-21)
(1.00339 6.01159e-05 -6.11315e-23)
(0.410671 -0.0685647 0)
(0.852328 -0.0306699 -7.63885e-21)
(1.00984 -0.00169118 0)
(1.00711 -0.000408265 -3.90445e-22)
(1.01121 -0.000574466 6.17035e-24)
(1.01079 -0.0037779 1.41542e-22)
(0.0431109 -0.0648345 -2.2134e-20)
(1.012 0.000904034 1.51933e-21)
(0.943592 -0.0393882 -4.36012e-22)
(1.0102 0.00108556 -3.84007e-22)
(1.00576 0.000115517 1.17178e-22)
(0.847115 0.0669701 0)
(1.0111 0.000360696 -1.23911e-21)
(0.831362 -0.193943 0)
(1.01343 -0.00090502 0)
(0.909696 0.282655 2.21155e-21)
(1.00842 0.00672598 -1.31828e-21)
(1.00895 0.000270997 1.73387e-21)
(1.00996 -0.00176171 4.38246e-22)
(1.02595 0.00813382 1.39142e-21)
(0.937694 0.123587 0)
(0.950767 0.0905713 1.99956e-20)
(1.00905 0.000240686 -1.55668e-21)
(0.938495 0.0242341 8.68876e-23)
(1.02627 -0.00485369 1.41401e-21)
(1.01186 -0.00517032 -9.74658e-23)
(0.661363 0.165475 0)
(0.828524 -0.26677 3.24872e-21)
(1.01184 -0.00521427 0)
(1.00951 -0.000779248 -1.22466e-21)
(1.01541 0.000516608 1.00793e-22)
(1.01474 -0.0164982 1.12484e-21)
(1.03158 -0.023054 -1.05407e-21)
(1.0085 0.000354016 0)
(1.00891 -0.00100314 1.18635e-21)
(1.03348 -0.0151951 0)
(1.00705 -0.000411057 3.94353e-22)
(1.00537 -0.000178291 0)
(1.01371 -0.00221186 0)
(0.8877 -0.327397 -9.86827e-21)
(1.0154 -0.00482676 1.07311e-21)
(1.00939 -0.000748127 -3.4954e-22)
(1.01053 0.00109589 9.28915e-24)
(0.951833 0.0110188 1.69268e-20)
(1.00738 -0.000848729 -6.11828e-22)
(1.00733 -0.000843562 0)
(1.0026 2.33002e-05 2.74149e-22)
(1.03473 -0.00923466 -4.19009e-21)
(1.01137 0.000385692 6.22852e-25)
(1.00504 9.02016e-05 -2.52512e-22)
(1.00382 2.81521e-05 -4.51202e-22)
(1.01108 -0.00191428 -1.42444e-21)
(0.899136 -0.159592 -6.69559e-22)
(1.00837 -0.000414916 0)
(1.00596 0.000124041 6.48149e-22)
(-0.00972272 -0.106425 -1.60282e-20)
(1.04074 -0.0197574 0)
(1.00514 3.13877e-05 -4.81108e-22)
(1.00518 4.22914e-05 0)
(0.862024 0.00654774 -1.88033e-20)
(1.01885 0.0463778 5.85368e-22)
(1.00944 0.00119403 3.58865e-23)
(0.996872 0.00562239 -1.46137e-21)
(0.870854 -0.0666885 -7.00815e-22)
(1.01377 0.000184839 0)
(1.07975 0.00616997 -2.65484e-22)
(1.01389 -0.00224111 0)
(0.905299 0.0982003 2.76278e-21)
(0.925098 0.0400236 1.67524e-20)
(0.980306 -0.00158941 -2.68734e-21)
(0.991282 -0.0693997 0)
(0.989052 -0.287586 0)
(1.01002 0.00147396 -4.77006e-23)
(0.867322 -0.150052 -1.58053e-20)
(0.901586 -0.0946986 5.45878e-22)
(1.00585 -0.000227187 0)
(0.985886 -0.00238653 0)
(1.0296 -0.0508406 -6.81835e-22)
(0.450445 -0.030954 -7.48187e-21)
(1.00946 -0.00199294 2.47022e-23)
(1.00997 0.00146329 -3.44194e-22)
(-0.0733794 0.0622592 2.95373e-20)
(0.905957 -0.0809133 0)
(1.00837 -0.000679748 -2.82508e-22)
(-0.00198465 -0.106647 2.27815e-20)
(1.06249 -0.042372 -9.02658e-22)
(1.01891 0.0110374 0)
(0.613405 -0.326044 0)
(1.00938 -0.00185477 -4.36291e-22)
(1.01111 0.00027795 6.59106e-22)
(1.0136 -0.00096728 0)
(1.00464 -2.10831e-05 -9.56248e-22)
(1.01261 -0.0102316 -3.18797e-22)
(1.01595 0.00507141 5.69871e-22)
(1.02698 -0.0172157 0)
(1.01022 -0.00106095 -7.08249e-22)
(1.01295 -0.0102668 6.73528e-22)
(1.02408 -0.0125559 3.90536e-21)
(0.785357 0.265148 0)
(0.827832 0.00356502 1.58041e-20)
(1.01152 0.00232667 0)
(0.879994 -0.0782501 0)
(0.93773 0.212566 -5.93797e-21)
(1.00826 -0.000657021 0)
(1.04096 -0.0399347 3.80248e-21)
(1.02489 0.0536105 1.31673e-22)
(1.05493 -0.24617 0)
(0.89946 0.195781 2.10717e-21)
(0.976603 0.0964782 2.6961e-20)
(1.01743 -0.00269651 4.84827e-24)
(0.0208265 -0.0996319 0)
(0.908756 0.304711 0)
(0.990611 0.00150026 1.06604e-21)
(1.02417 -0.0123241 -3.60241e-21)
(1.02064 0.00933561 0)
(1.00877 -0.00197747 5.33669e-22)
(1.01277 0.000679379 7.79729e-22)
(0.914117 0.0597788 0)
(0.902341 -0.211942 -3.01482e-21)
(0.933935 0.192898 2.80599e-21)
(1.04095 -0.0925102 3.93094e-22)
(0.906626 -0.223719 3.11551e-21)
(1.0098 -0.00175744 0)
(1.04176 -0.0251488 2.38579e-21)
(1.00643 -0.0120439 -8.17128e-22)
(1.01102 -0.0508601 0)
(0.16948 -0.189696 -3.49152e-20)
(0.867627 0.130683 8.35626e-21)
(0.798258 -0.183543 0)
(1.12634 0.0201779 -1.53532e-21)
(0.892793 0.18585 -2.60571e-21)
(0.976962 0.109525 -1.63556e-20)
(1.00521 0.00010057 0)
(1.01993 -0.311155 -4.22844e-20)
(0.950168 -0.0940609 0)
(0.987633 0.0468349 1.38798e-21)
(0.950436 0.197216 0)
(1.00644 -0.000260746 -2.25236e-22)
(1.00672 0.000187053 0)
(1.04155 -0.242238 -1.69659e-20)
(0.914812 0.209568 6.64293e-22)
(1.02223 -0.172596 -8.48354e-21)
(0.637395 0.181414 0)
(-0.0164875 -0.0850038 -3.88468e-20)
(1.02367 -0.0128758 -5.22201e-21)
(0.895043 0.284184 0)
(0.863781 0.056339 7.75688e-22)
(1.01255 -0.00223992 2.50283e-21)
(1.03199 -0.0151237 0)
(1.01281 -0.0155885 -2.49846e-22)
(1.0156 -0.00186123 2.01904e-22)
(1.00506 -7.93825e-05 -4.6398e-22)
(1.00853 -0.00237983 7.09792e-22)
(1.01945 -0.00278938 -2.13122e-21)
(1.0041 -0.000119809 0)
(1.00353 2.03307e-05 -5.48977e-22)
(1.01036 0.000245134 1.1609e-21)
(1.03252 -0.023181 0)
(0.915746 0.358383 1.04409e-20)
(1.04876 -0.0311042 -3.14578e-21)
(0.854434 -0.354348 0)
(0.866797 -0.361538 1.14732e-21)
(-0.0284779 -0.0260944 -1.40262e-20)
(0.938858 0.354022 -1.67827e-21)
(0.945598 -0.0703435 1.13609e-21)
(1.0109 -0.00126851 1.0626e-21)
(1.00655 0.000181899 0)
(0.97361 0.168546 -4.03692e-21)
(1.03149 -0.0152311 0)
(1.02258 -0.0130908 0)
(0.876676 -0.299476 -5.06346e-21)
(1.01098 -0.0476253 -1.02014e-21)
(0.941625 0.0679724 -1.47978e-21)
(1.01126 0.000251405 6.59608e-22)
(0.777106 0.26833 0)
(1.00993 -0.00071405 6.80368e-22)
(1.04066 -0.0203888 -4.25109e-21)
(1.00946 0.00109713 3.97019e-22)
(0.423627 -0.256278 0)
(0.900976 0.130089 0)
(0.886206 0.205805 -1.99997e-21)
(1.00384 4.20388e-05 -9.20348e-22)
(0.559134 -0.321899 1.54635e-20)
(1.04689 -0.0907029 1.6725e-20)
(1.01362 -0.000749475 1.65869e-21)
(1.01494 -0.0022196 5.91227e-22)
(1.00406 6.91331e-05 7.11345e-22)
(0.803975 -0.166104 5.1568e-22)
(1.0038 2.62712e-05 2.17243e-22)
(1.00508 0.000108056 -2.42907e-22)
(1.04389 -0.305113 0)
(1.04996 -0.0316263 3.8439e-21)
(1.02302 -0.013184 1.65667e-21)
(1.013 -0.00481924 0)
(1.02486 -0.0169283 0)
(1.02746 -0.0204393 0)
(0.758604 0.366959 1.17402e-21)
(0.921754 0.0411824 3.52458e-21)
(1.00316 7.30415e-05 1.92274e-22)
(1.00133 -0.314227 -6.74182e-20)
(1.0095 0.00108366 3.11175e-22)
(1.01629 0.00572125 -6.11506e-22)
(1.0614 -0.146675 -2.43546e-20)
(1.01613 -0.000538372 0)
(0.953363 -0.389239 -1.13089e-20)
(1.00309 0.00011697 5.54408e-24)
(1.02742 -0.0207837 0)
(1.00316 3.46563e-05 0)
(0.928786 0.129033 7.88286e-21)
(1.01037 -0.00316165 7.22374e-22)
(1.01913 -0.00277861 -1.23409e-21)
(0.0809742 -0.160042 1.42506e-20)
(1.00887 0.0493859 -7.62408e-22)
(1.01075 0.00125835 -1.04385e-23)
(1.04094 -0.0247894 4.79721e-21)
(1.01307 -0.00858613 -1.56291e-21)
(1.01232 -0.00191637 0)
(1.0047 4.31605e-05 -8.86849e-22)
(1.01296 -0.000543349 0)
(1.01415 0.071983 1.35662e-20)
(0.201405 -0.322391 -1.32403e-20)
(1.02663 -0.00758176 0)
(1.02644 -0.0309938 0)
(0.897513 -0.237161 -2.20937e-21)
(0.908345 -0.172272 0)
(0.88959 -0.181057 1.86241e-20)
(0.855202 -0.0164904 0)
(0.894099 -0.159741 -1.32738e-20)
(1.01016 0.000978833 6.48114e-22)
(0.952804 -0.0667545 -3.50925e-22)
(1.06758 -0.0421961 0)
(1.02939 -0.0283313 -4.968e-22)
(1.0256 -0.0165463 3.48543e-21)
(0.877613 0.125418 -3.16861e-21)
(1.02691 0.0308432 5.88528e-22)
(1.01306 0.00889884 -6.10625e-22)
(1.00567 2.06125e-05 -5.66858e-22)
(1.01562 -0.00511877 -1.84131e-21)
(1.00746 -0.000872469 -7.88516e-22)
(1.01596 -0.000516638 1.47694e-21)
(1.00741 -0.000826897 3.78954e-22)
(1.01568 -0.000228232 -1.53477e-21)
(1.08791 -0.0359561 3.08997e-23)
(1.00296 2.3234e-05 0)
(1.00935 0.000926834 -8.08397e-24)
(1.05387 -0.0903922 -1.0771e-20)
(1.00615 -0.000284563 0)
(1.00303 2.9971e-05 -6.2849e-22)
(1.01375 0.00257926 -2.58495e-22)
(1.01277 -0.00810798 -8.44779e-22)
(1.03088 0.0266448 -6.0179e-22)
(0.847391 -0.0150056 -2.8229e-23)
(1.01007 -0.00102056 4.12303e-22)
(0.965602 0.0479598 0)
(1.00654 0.000128252 4.65072e-23)
(1.04652 -0.0317643 1.3673e-20)
(0.979158 -0.138409 0)
(0.196747 -0.308625 0)
(1.12764 0.0354605 -2.34144e-21)
(1.01289 -0.000884961 -2.50215e-23)
(1.01767 -0.00265593 0)
(0.192697 -0.322098 8.59833e-21)
(0.636039 -0.321334 -8.92748e-21)
(1.02792 0.0150443 -1.15132e-21)
(1.01136 0.000279351 1.46161e-24)
(0.894184 0.0671859 -2.71739e-21)
(0.887606 -0.323423 -1.1517e-20)
(1.01067 0.00115516 0)
(1.00725 0.000174955 -3.7831e-23)
(0.486652 0.0286899 3.03511e-20)
(1.01549 -0.0177703 -5.27375e-22)
(1.01108 -0.108344 1.82304e-21)
(1.03006 0.0122912 2.61873e-22)
(1.01521 -0.00303719 -7.64427e-22)
(1.02579 -0.029937 0)
(1.00719 -0.000434277 0)
(1.0098 -0.00279633 0)
(1.01013 -0.000503034 -1.13981e-21)
(1.00554 8.19353e-05 2.26046e-22)
(1.00973 -0.000859534 -1.74462e-22)
(1.00976 -0.000663669 -2.03725e-21)
(0.923445 0.043132 -1.48696e-20)
(1.0085 0.000820012 4.79241e-22)
(0.954675 0.071327 -7.36498e-22)
(0.887848 -0.238259 0)
(1.0109 0.00132331 -5.14829e-24)
(1.0086 0.000871749 -5.03439e-22)
(1.00209 1.27995e-05 -2.83288e-22)
(1.03571 -0.0246154 0)
(1.00085 -0.0199105 -1.61418e-21)
(0.909622 0.0382658 -4.20339e-21)
(1.01092 -0.00392528 0)
(1.04619 -0.218705 7.14952e-21)
(1.03083 -0.0224639 -1.11957e-21)
(1.02862 -0.0286182 5.26029e-22)
(1.01052 -3.19917e-05 0)
(1.01045 0.000557689 -9.79816e-24)
(1.01138 -0.00104434 -1.0674e-21)
(1.02636 -0.00845733 -2.66568e-21)
(1.02626 -0.00812296 4.17464e-21)
(0.0406969 -0.20573 5.28922e-21)
(0.370584 -0.061481 -5.29643e-22)
(1.00697 -0.000382502 0)
(1.0096 -0.000838058 8.99985e-22)
(1.03403 -0.00886569 4.12321e-21)
(0.331771 -0.177883 -1.11322e-20)
(1.00956 0.00115766 -7.1921e-22)
(1.01314 0.00258941 -1.89486e-24)
(1.01562 -0.000231654 0)
(1.00933 0.000944746 -1.84494e-22)
(1.00921 -0.000671228 -7.32672e-22)
(1.01035 -2.42943e-05 -1.97643e-22)
(1.01358 -0.0141506 0)
(1.01225 -0.00205005 7.70408e-22)
(0.985072 -0.0426162 0)
(1.01094 -0.00391541 0)
(1.01404 0.00287762 2.6622e-22)
(1.09217 -0.00106452 3.91123e-21)
(0.202487 -0.298185 0)
(1.01489 0.00649561 2.98473e-22)
(1.01188 0.000539399 0)
(1.01048 -0.00347742 1.06795e-22)
(1.00228 -1.75752e-05 0)
(1.01323 -0.00428906 0)
(1.01205 0.00339894 0)
(0.966379 0.04127 0)
(0.996589 0.0844165 2.83925e-22)
(1.03516 -0.00816944 -4.26746e-21)
(0.809408 -0.0717971 1.51496e-21)
(1.01037 -0.00336723 -1.87614e-23)
(1.0409 -0.0416559 4.25226e-21)
(1.01237 0.000433777 7.58955e-22)
(1.00567 0.000137207 4.03646e-22)
(1.04446 -0.069552 -1.42171e-20)
(1.01159 0.00173923 -2.91365e-23)
(1.00542 7.61656e-05 2.09256e-23)
(0.894955 -0.131622 1.35454e-20)
(1.00333 3.34608e-05 0)
(1.03857 -0.0112034 -1.40239e-21)
(1.03322 -0.0918492 -6.01148e-22)
(1.00482 3.62647e-05 0)
(1.01647 -0.0034872 -1.65614e-21)
(0.389601 -0.244677 0)
(1.01034 0.000872839 0)
(1.08128 -0.0595691 1.00555e-22)
(1.03126 0.0257148 1.19063e-21)
(1.00464 8.20198e-05 -9.39895e-22)
(1.00311 1.99551e-05 -5.60852e-22)
(1.0328 -0.0450697 6.014e-22)
(1.02429 -0.0182965 2.73172e-21)
(1.0002 -0.0186046 3.69858e-22)
(1.00999 -0.00298091 -1.42399e-22)
(0.916276 0.292731 -2.4581e-21)
(0.790514 -0.0554108 5.00465e-22)
(0.922298 -0.13834 1.35511e-20)
(1.00732 -0.000489207 6.36967e-22)
(-0.00560842 -0.101513 0)
(1.00924 0.000803433 0)
(1.00403 6.46798e-05 -3.80511e-22)
(1.01128 -0.00416508 0)
(1.01248 0.00876267 0)
(1.03729 -0.248788 -5.15525e-21)
(1.09604 0.0265723 6.52317e-21)
(1.00985 0.000662566 0)
(1.03919 -0.0100951 -1.28033e-20)
(1.01351 0.0038377 0)
(0.792581 0.284457 -3.24986e-21)
(0.916568 0.0655355 2.56951e-21)
(1.01068 -0.00168149 1.30015e-23)
(0.993756 0.004752 0)
(1.03893 -0.0207741 -6.61599e-21)
(0.105596 -0.165064 1.59599e-20)
(1.02994 -0.0220704 3.01967e-21)
(1.02882 0.0137658 -2.23762e-22)
(1.00827 -0.000880316 2.66744e-22)
(1.01385 0.00891339 0)
(1.00837 -0.0425208 -3.07934e-21)
(1.00477 8.25691e-05 3.29394e-22)
(1.00835 -0.000863883 8.50689e-24)
(1.00949 0.00115551 -2.24075e-22)
(1.00788 -0.000565849 -5.06634e-22)
(1.03033 -0.0219958 -7.99772e-22)
(0.942498 0.0297859 8.44484e-22)
(0.947575 -0.0273816 0)
(0.932255 -0.158792 -1.36111e-20)
(1.03026 0.0103025 -2.26079e-22)
(1.01472 -0.00918123 0)
(1.01126 -0.00420037 0)
(1.00683 -0.000326441 0)
(0.952766 0.0830766 6.71029e-22)
(1.04698 -0.248163 1.83336e-20)
(1.01386 0.00267408 2.39451e-22)
(1.02568 -0.0493559 2.70001e-21)
(-0.0468472 0.0110951 -4.73396e-20)
(0.0334221 -0.192566 -7.06408e-21)
(1.00323 1.62697e-05 -5.01472e-22)
(1.00456 0.000129375 5.22708e-23)
(1.03406 -0.0510141 -6.12635e-22)
(0.898604 -0.185712 -8.06636e-21)
(1.0093 0.000800152 0)
(1.03471 0.046132 4.06729e-22)
(1.01124 -0.00439088 0)
(1.00434 -6.59143e-05 0)
(1.04263 -0.0343226 -1.29642e-20)
(1.01358 -0.000703131 3.53369e-21)
(1.02671 -0.00792707 6.88418e-22)
(1.01446 0.000457531 0)
(1.00715 -0.000554929 -1.9086e-22)
(1.0151 -0.00119907 -8.02743e-22)
(0.932571 0.0289227 0)
(1.04209 -0.0674708 -1.59826e-21)
(0.966651 -0.19507 1.92248e-20)
(1.00961 -0.000855584 1.63571e-21)
(1.00934 -0.000705096 0)
(0.731181 0.130516 0)
(1.01323 0.00262407 0)
(0.638029 0.145435 0)
(0.901826 0.00449298 7.36827e-21)
(1.01123 -0.00437896 6.05004e-24)
(0.877706 -0.28949 -4.54917e-22)
(1.01671 0.000147069 -1.89234e-22)
(1.01217 0.000776252 0)
(0.87576 -0.288403 -5.0059e-21)
(0.890349 -0.0342738 0)
(0.9071 -0.0388839 3.84246e-22)
(0.960031 0.111448 -4.3638e-21)
(1.02392 -0.0177324 0)
(0.942198 0.245937 -2.62416e-20)
(1.00836 0.000759538 -4.48253e-22)
(1.04397 -0.303159 0)
(-0.0205739 -0.0447471 0)
(0.99377 0.000890231 1.94468e-21)
(1.01011 0.00107291 -8.0276e-22)
(0.877138 0.26467 -4.48336e-21)
(1.0385 -0.0199553 0)
(0.996541 -0.0647406 1.19618e-21)
(0.816028 -0.0716991 1.38279e-21)
(0.539542 0.232385 1.34409e-21)
(1.02452 -0.00489263 -7.43858e-21)
(0.876466 0.184024 0)
(1.00533 0.000131282 -1.15268e-21)
(1.0226 -0.0486282 0)
(0.981986 -0.0691536 0)
(1.00552 3.00479e-05 0)
(1.03054 -0.0271531 7.33405e-21)
(0.864891 -0.236867 3.31703e-21)
(1.09316 -0.0518653 0)
(1.0164 -0.0256282 -1.25729e-23)
(1.01358 -0.0147275 0)
(1.00949 0.000982355 0)
(1.02465 -0.0122797 -4.21313e-21)
(1.01032 -0.00214996 -1.53304e-23)
(0.991645 -0.00942639 -1.66325e-21)
(1.06063 -0.0734439 1.17386e-21)
(1.00956 -0.000691791 0)
(0.763753 0.141649 -1.86362e-21)
(1.01409 -0.00876626 7.96826e-22)
(1.01179 -0.00502975 -1.01206e-22)
(1.04597 -0.0255021 -2.92358e-21)
(1.00865 0.000764131 -5.71576e-22)
(1.00158 -0.00366294 0)
(1.01359 -0.00229684 3.80895e-21)
(1.00799 -0.000573172 0)
(0.394441 -0.0368684 0)
(1.00685 -0.000339387 1.98226e-22)
(1.00859 -0.0013986 6.20389e-22)
(1.0121 0.141876 -3.04038e-21)
(1.04395 -0.0922469 -1.38775e-20)
(1.06215 -0.0981497 3.04434e-20)
(1.018 -0.00221716 5.05668e-21)
(1.01192 -0.00543331 2.18967e-23)
(1.02385 -0.0062658 0)
(1.01212 -0.00590375 -2.55532e-22)
(0.905632 -0.200412 8.15174e-21)
(1.04193 -0.0186032 2.30685e-22)
(1.01566 -0.0185463 5.59333e-22)
(1.03053 -0.0137836 -6.0395e-21)
(1.0116 -0.004682 8.67063e-23)
(1.00944 0.00091166 -3.96751e-22)
(0.396729 -0.0970205 0)
(1.00873 0.000805312 8.11435e-22)
(0.567541 -0.0731126 0)
(0.908904 -0.0999023 9.42446e-22)
(1.0357 -0.00788078 4.63475e-21)
(0.35758 -0.338791 0)
(1.00635 0.000185283 0)
(1.01665 0.00965805 0)
(1.01648 -0.0249141 3.20267e-22)
(0.833488 0.359023 -2.89541e-21)
(1.0431 -0.0174516 -7.46386e-21)
(0.946396 0.0555391 1.85048e-21)
(0.917699 0.224434 -4.27441e-21)
(1.00414 6.0438e-05 3.26091e-22)
(1.0281 0.128313 0)
(1.00654 6.84061e-05 0)
(0.828664 -0.0585081 1.87634e-21)
(1.01208 -0.00586984 2.69376e-22)
(1.02613 -0.0102324 0)
(0.782711 -0.305324 7.3047e-21)
(0.973582 0.173255 -1.61316e-21)
(1.01313 -0.00229103 4.60998e-23)
(1.01461 -0.00910412 9.63651e-22)
(1.02542 -0.017009 -3.4884e-21)
(1.00793 -0.000308773 3.6466e-22)
(1.01776 -0.00216386 -1.85987e-21)
(0.895934 0.154104 1.03912e-21)
(0.137723 -0.338126 -3.31013e-20)
(1.0101 0.000370608 -1.92953e-22)
(1.00781 -0.000294646 0)
(1.00653 7.27636e-05 6.42596e-22)
(0.765867 0.356099 -1.26258e-21)
(1.10027 0.0167723 8.8146e-22)
(1.04488 0.012904 -2.62439e-22)
(1.00716 -0.000508951 2.15739e-22)
(0.994478 0.0122621 0)
(1.0257 -0.0102443 7.69949e-24)
(1.01192 -0.00538792 0)
(1.04779 -0.0322978 -7.30099e-21)
(0.93414 0.254016 -9.71545e-21)
(1.01077 -0.00157596 -1.01653e-21)
(1.02663 -0.0517379 1.54648e-21)
(0.862885 0.0249096 2.01156e-21)
(1.01507 0.00106961 -2.07697e-22)
(1.01959 0.0416179 -1.75948e-22)
(1.01893 -0.00448809 2.30384e-21)
(1.02984 -0.0219467 1.62056e-22)
(1.01073 -0.0014322 1.02359e-21)
(1.01045 0.00105112 -3.41276e-22)
(1.04027 -0.0254824 -4.5607e-21)
(1.01184 -0.00499668 -1.68938e-22)
(1.00787 -0.0457626 4.54664e-22)
(1.01574 -0.00055657 -4.28902e-21)
(0.765303 -0.326726 0)
(1.00671 -0.000325105 1.08389e-23)
(1.04179 -0.0193969 3.9975e-21)
(0.988435 -0.0609337 -4.47718e-22)
(1.09608 -0.0256713 -5.57501e-22)
(1.02209 -0.0460548 0)
(1.0061 0.00017741 0)
(1.01153 -0.0046053 1.15068e-22)
(0.902037 0.231572 -2.60285e-21)
(0.993063 0.0169271 2.03211e-22)
(1.00104 -0.0616358 1.48206e-23)
(1.00798 -0.00120154 0)
(1.0106 -0.00361162 -7.0185e-23)
(1.02223 -0.0266047 -9.71467e-22)
(0.143488 -0.0512411 -2.20004e-20)
(0.991334 0.168363 2.82172e-21)
(1.01007 0.000345463 0)
(1.01299 -0.00258221 1.63564e-21)
(1.02117 -0.0136402 -6.7317e-23)
(1.01459 -0.00880912 0)
(1.01505 0.000183875 0)
(1.01262 -0.00454092 6.72554e-22)
(1.00457 4.44536e-05 0)
(0.910801 -0.16798 -1.19523e-20)
(1.0136 -0.00236645 -2.00862e-21)
(1.01672 -0.00365806 1.71418e-21)
(0.903891 0.231495 0)
(1.00735 -0.000457515 -6.89113e-22)
(0.840331 -0.0342002 3.30857e-21)
(1.05452 0.0241866 -4.36328e-21)
(0.792429 0.274543 2.68328e-21)
(0.489101 -0.0216017 0)
(0.877792 0.214104 5.79076e-21)
(0.126221 -0.327268 2.00724e-20)
(1.01291 -0.00450328 -1.51266e-21)
(1.01072 -0.0037405 -1.51054e-22)
(1.01341 -0.0161717 8.61815e-22)
(1.01008 0.000508432 -5.39846e-22)
(1.01084 -0.00208803 2.16896e-21)
(1.00593 3.36608e-05 -1.15346e-21)
(1.00536 7.00228e-05 0)
(1.02457 -0.011942 7.16406e-21)
(0.632493 0.30199 4.26325e-22)
(0.985119 -0.141188 -8.13738e-21)
(0.881063 0.0301328 -8.55911e-21)
(1.01737 -0.000514153 1.73959e-21)
(1.01042 -0.00335207 -5.11495e-22)
(1.031 -0.0221379 -3.6323e-22)
(1.03222 -0.0239869 5.0728e-22)
(1.02452 0.000171638 0)
(1.00323 2.45942e-05 8.01487e-22)
(1.01013 -5.18198e-05 -5.70166e-22)
(1.01045 0.00114859 1.01947e-21)
(0.162815 -0.2832 -1.40022e-20)
(0.934123 -0.168502 -3.23534e-22)
(0.962632 -0.0307372 0)
(1.00494 -0.000136161 -3.18254e-22)
(0.9774 -0.0609173 3.71475e-21)
(0.945057 -0.0781793 -8.49024e-22)
(1.02636 0.0379129 1.97478e-22)
(0.109216 -0.0403088 0)
(0.916913 0.257732 -1.5369e-21)
(1.01513 -0.0142001 1.55411e-21)
(1.01496 0.000107692 0)
(1.01409 0.00298201 -1.80948e-22)
(0.957036 -0.272999 1.06221e-20)
(1.01855 -0.00925504 -2.11858e-21)
(1.00858 0.000807871 4.46843e-22)
(0.992177 -0.0105025 0)
(0.902995 0.270047 0)
(1.01271 -0.00386657 0)
(0.951617 -0.0520139 0)
(0.91353 0.0385909 0)
(1.01403 -0.00211798 0)
(1.01178 -0.00421236 0)
(1.01424 -0.00187744 5.03221e-21)
(1.01004 -0.0031073 3.29207e-22)
(1.01518 -0.00519908 0)
(1.01474 -0.00709875 0)
(1.02995 -0.0253266 3.91437e-21)
(1.01406 -0.00572487 5.90751e-22)
(1.01842 -0.00947018 2.2914e-21)
(0.83196 -0.147268 1.79307e-20)
(0.139847 -0.269834 1.29851e-20)
(1.01461 -0.00449592 2.22734e-21)
(0.868962 0.0856979 -3.50844e-21)
(0.952465 -0.207084 -1.31746e-20)
(1.0119 -0.00934889 -6.34976e-24)
(1.00985 0.00136956 0)
(1.01011 0.000582521 -1.84589e-22)
(1.00815 0.000268502 -9.52724e-24)
(1.01146 -0.0130681 -3.92264e-23)
(1.01189 -0.00907365 0)
(1.00419 7.54751e-05 -1.36021e-21)
(1.02593 -0.00873282 0)
(1.0142 -0.00685202 -3.56999e-22)
(1.02 -0.00895131 -2.73156e-21)
(0.790673 -0.292081 -8.15003e-21)
(1.03109 -0.0229873 4.55133e-21)
(1.00486 4.52696e-05 -4.19106e-23)
(1.00995 -0.00293894 0)
(0.901317 -0.203698 -8.85186e-21)
(1.02503 -0.00505297 6.05408e-21)
(1.00872 0.000891416 0)
(0.885817 0.39704 1.33904e-21)
(1.01107 -0.00204202 0)
(1.02694 -0.0284188 5.8225e-21)
(1.03943 -0.0252352 3.43893e-21)
(1.01693 -0.00343659 0)
(1.00782 -0.00118568 -6.68573e-23)
(1.0082 -0.000108733 -3.63014e-22)
(1.01422 -0.0206349 2.65634e-22)
(1.05352 -0.0544641 6.70204e-21)
(1.00435 2.93715e-05 -6.62779e-22)
(0.877806 0.209211 2.26995e-21)
(1.022 0.00268415 -1.24435e-21)
(0.953043 -0.0594584 -3.48266e-22)
(0.926503 0.260066 -2.06172e-21)
(1.0209 -0.0131108 2.23593e-21)
(1.0678 -0.00749167 -3.74709e-22)
(1.00846 0.00081223 0)
(0.884155 0.0551826 3.59329e-21)
(1.03532 -0.0089287 9.56041e-21)
(1.00994 -0.00292635 -6.14256e-22)
(0.971737 -0.1496 -7.31817e-21)
(0.807484 0.0689718 0)
(1.01231 -0.00567045 1.83978e-22)
(0.77838 -0.136251 1.3306e-22)
(0.846565 -0.178368 -3.89471e-21)
(1.0065 0.000215844 -9.67161e-23)
(1.04268 -0.0328004 0)
(1.00885 0.0009474 -5.21196e-22)
(1.01304 -0.000571715 -3.19875e-21)
(1.03031 -0.0223572 -3.35046e-21)
(1.01347 -0.00472451 -5.33523e-22)
(1.00653 -0.000252662 0)
(1.03387 0.0156971 -2.71925e-22)
(1.01032 -0.00195222 3.56196e-24)
(1.00945 -0.000653791 4.30227e-22)
(0.904566 -0.272038 0)
(1.01082 -3.95928e-05 0)
(1.01081 -0.00219433 -1.1355e-21)
(1.00784 -0.00122472 1.18324e-22)
(0.828116 -0.281239 -4.92761e-21)
(1.00992 -0.00289225 0)
(1.01078 0.00228126 9.25056e-24)
(1.02997 -0.0245874 -4.40746e-21)
(1.03612 -0.152485 3.48967e-22)
(0.969303 -0.222313 -2.08957e-21)
(0.874921 0.067943 1.03616e-20)
(0.912835 0.107264 0)
(1.00989 -0.00289611 0)
(1.00898 0.000870136 1.66856e-22)
(1.01716 -0.00341199 0)
(0.573497 0.264761 -2.25455e-21)
(1.0032 -2.79816e-05 -5.35212e-22)
(1.00905 -0.00208431 1.81402e-22)
(1.03412 -0.0177046 2.59553e-21)
(1.01035 0.00115996 9.85387e-22)
(0.832033 -0.0370703 2.16003e-21)
(1.01979 -0.00948664 2.36058e-21)
(1.02258 -0.00660675 3.55952e-23)
(0.946239 -0.148799 0)
(1.01207 -0.0041513 1.13645e-21)
(1.05076 -0.0927835 5.71909e-21)
(0.999962 -0.37276 1.69027e-20)
(1.009 0.000848019 0)