/*--------------------------------*- C++ -*----------------------------------*\
| =========                 |                                                 |
| \\      /  F ield         | OpenFOAM: The Open Source CFD Toolbox           |
|  \\    /   O peration     | Version:  v2012                                 |
|   \\  /    A nd           | Website:  www.openfoam.com                      |
|    \\/     M anipulation  |                                                 |
\*---------------------------------------------------------------------------*/
FoamFile
{
    version     2.0;
    format      ascii;
    class       volVectorField;
    location    "550";
    object      ddtCorrDdt0(U);
}
// * * * * * * * * * * * * * * * * * * * * * * * * * * * * * * * * * * * * * //

dimensions      [0 1 -2 0 0 0 0];


internalField   nonuniform List<vector> 
18758
(
(-0.000522271 0.0024011 1.32739e-17)
(-0.0370419 -0.0291322 -1.20578e-17)
(3.38229e-06 5.41687e-06 -2.41567e-19)
(0.0788145 0.0854268 5.09512e-18)
(-0.0311108 0.0035956 8.60759e-18)
(-0.0199617 -0.0260161 -1.86567e-17)
(0.00473304 0.00121019 5.6108e-17)
(-9.1932e-05 6.14799e-05 1.62433e-19)
(0.0277214 0.00234617 -2.90929e-17)
(-0.000278994 0.000308579 1.01175e-18)
(-0.000347607 -7.01151e-05 -6.13265e-18)
(0.0138674 0.00575109 6.5545e-17)
(-3.55144e-05 1.46409e-05 -4.03614e-18)
(-0.0312008 0.0337892 1.41618e-19)
(-0.000659608 -0.000857403 -3.11908e-19)
(0.0019935 -0.00120619 1.03579e-17)
(-0.00183062 0.00476006 6.06712e-18)
(-7.62305e-05 -8.92166e-05 -7.28162e-19)
(-0.00028864 -0.000239393 -1.24073e-18)
(-0.000360157 0.000266093 -6.67192e-19)
(-0.0325049 0.00538414 -1.38897e-19)
(9.37336e-06 -0.000120382 -4.26816e-18)
(0.00989598 0.00760118 -6.35959e-17)
(0.0497021 0.0262838 -5.55489e-17)
(-0.0161909 -0.00512373 3.59177e-18)
(-8.73065e-05 6.47314e-05 -7.86425e-20)
(0.00357669 -0.000547862 1.79109e-19)
(-0.0349031 -0.00705111 1.87668e-17)
(-0.0486789 -0.0216931 2.21785e-18)
(0.00426416 0.00262682 1.68499e-17)
(-0.00995664 0.0131632 8.53793e-18)
(0.0115998 0.00931402 -1.2389e-17)
(2.82557e-05 -4.14478e-06 -3.13979e-18)
(-0.000612204 -0.000151031 -1.70193e-18)
(-0.00118684 0.0268863 -1.33165e-17)
(2.76246e-05 1.40119e-05 -9.76698e-19)
(1.70122e-05 -1.51451e-05 -1.81295e-18)
(-0.000324671 -0.000217295 9.52698e-19)
(-0.000376546 -0.000206837 -8.40752e-18)
(-0.000684404 0.00505473 -7.87821e-18)
(-0.000324725 -0.000236395 1.80915e-19)
(-1.9473e-05 0.000585739 -9.48329e-18)
(-0.000107117 -0.000234136 -7.00333e-19)
(-0.000127994 0.000499568 1.04875e-17)
(0.00158244 0.00451638 9.8691e-19)
(-5.74164e-05 -4.06638e-05 -4.73751e-20)
(0.0104616 0.00751526 4.88822e-17)
(-0.000304046 -5.75198e-05 -5.65239e-18)
(-0.0002714 0.000311447 -9.13754e-19)
(-7.58362e-05 -0.000201204 -2.28912e-19)
(-0.00482694 -0.00291122 7.56038e-18)
(0.0208652 0.02871 -1.28773e-17)
(-9.78988e-06 -6.6059e-05 1.69594e-19)
(-0.000356117 -8.30189e-05 -3.71324e-18)
(-0.035469 -0.00786066 -1.13309e-17)
(0.0102328 0.00261974 -2.67541e-17)
(1.99866e-05 -1.3715e-05 2.52578e-18)
(0.00108587 -0.00125017 5.72741e-18)
(-4.77002e-05 7.02313e-05 2.92774e-18)
(-0.0292627 0.0373692 -7.98941e-19)
(-0.00127803 0.00195391 1.19984e-17)
(0.00480889 0.00139359 -6.96798e-17)
(0.0131662 0.00258939 -4.34462e-17)
(-7.74922e-05 0.000652318 8.49507e-19)
(-1.49844e-05 -7.06712e-05 -2.45559e-21)
(-3.43751e-05 0.000219529 5.0516e-18)
(-0.0014421 0.00564232 -1.16659e-17)
(2.80407e-05 -2.2458e-06 4.46517e-18)
(-0.000308505 -0.000210802 9.4417e-19)
(0.0190091 0.0278989 1.46126e-17)
(-0.00380871 0.0222113 -1.13771e-17)
(-4.32866e-05 0.000480584 -3.11911e-18)
(-8.27969e-05 -0.000211278 4.60415e-19)
(0.0042459 0.0188295 -4.01154e-17)
(-0.00013902 -7.29339e-05 -3.50763e-21)
(-2.57543e-05 0.000129227 -9.04138e-18)
(0.0225282 0.0261466 2.56042e-18)
(-0.0279418 0.00780816 -1.06273e-17)
(0.00106464 0.000863565 -9.70276e-18)
(0.00583793 0.00489659 1.01517e-16)
(0.016334 0.00897731 1.38601e-17)
(0.0017459 0.00696209 2.52646e-17)
(-0.0271846 0.0380301 1.13115e-17)
(-0.0201337 -0.0246709 -2.798e-17)
(0.0214404 0.0280758 3.11062e-17)
(-9.54265e-05 0.000810333 -2.05203e-18)
(0.0247303 -0.0043442 3.00615e-17)
(0.0122991 0.00195487 4.43379e-17)
(-0.000168842 0.00152152 -1.18179e-17)
(-4.42839e-05 0.000156645 9.08195e-18)
(-0.0156042 -0.0231724 -6.09473e-17)
(-8.36e-05 5.9604e-05 2.6843e-19)
(0.011586 0.00135504 2.60914e-17)
(-2.10574e-05 0.000576319 7.61666e-19)
(0.0172928 0.00755858 -4.14996e-17)
(0.00936941 0.00122498 7.81982e-18)
(0.019736 0.0283331 -2.76029e-17)
(-0.000140726 -8.27501e-05 -1.11462e-19)
(-6.87544e-05 -8.67897e-05 -1.4981e-18)
(-0.0303954 0.00663088 4.60113e-18)
(-0.000425838 0.000236182 3.85522e-18)
(-0.0132028 -0.0205103 -1.03765e-17)
(0.00427576 0.0132452 -4.9718e-18)
(-0.00102468 -0.000636543 -1.2119e-17)
(0.0127365 0.00657744 4.56169e-18)
(0.00326623 0.00328163 -1.2923e-17)
(0.0157707 0.056897 9.53271e-19)
(-0.0243093 0.0101243 7.16711e-18)
(-0.000352101 -0.000118887 -3.60743e-18)
(-3.46027e-05 0.000454247 -7.84677e-18)
(0.0128207 -1.24693e-05 -1.76713e-17)
(0.00265937 -0.00717673 4.6328e-17)
(-6.52878e-05 0.000102023 -5.41408e-19)
(-0.000192205 0.000484629 1.49708e-19)
(-0.0577693 -0.0259591 1.26891e-17)
(0.0232058 -0.00208708 1.10476e-17)
(-0.014927 -0.00561609 3.14275e-17)
(-0.000615435 -0.000936832 2.49703e-18)
(0.00892998 0.00579074 -3.51774e-17)
(0.0191708 0.00674782 5.86536e-17)
(0.000509837 -0.000152632 2.18384e-18)
(-4.8113e-05 -0.000208411 1.9181e-18)
(0.00230221 0.00660505 -6.70959e-17)
(0.00292217 -0.00149911 1.42236e-17)
(0.000192372 0.00526872 -9.59813e-18)
(0.000342951 0.00546632 3.62254e-18)
(-0.024533 -0.0294374 3.23453e-17)
(0.0448395 -0.00031553 -2.39129e-17)
(0.00906163 0.0020302 -2.78473e-17)
(-3.82208e-05 1.44643e-06 1.83426e-18)
(-0.00179673 0.00507155 -1.99356e-18)
(0.00363399 -0.000225986 1.46549e-18)
(-0.0315608 0.00306941 2.80781e-17)
(0.000287516 0.000662999 -9.55317e-18)
(0.00101211 -0.00324404 2.37408e-17)
(-7.36389e-05 0.000645884 4.31038e-18)
(0.0221112 0.0248612 2.78564e-18)
(-0.000462039 0.00535251 3.53948e-18)
(-6.42957e-05 -6.95266e-05 6.37842e-20)
(0.000979287 0.000141089 -8.21313e-18)
(0.0010759 0.000770937 7.00404e-18)
(0.00213143 0.00155665 -2.04785e-18)
(-0.000125272 0.00047802 -8.144e-19)
(0.0213125 0.00136268 6.46275e-17)
(-0.000318899 -0.000251678 6.28146e-20)
(-0.000312875 -0.000248651 4.96998e-20)
(-0.0592247 0.00120257 -2.67099e-17)
(0.0711849 0.00749918 7.70147e-20)
(-0.0106401 0.0124348 -8.36855e-18)
(-0.047095 -0.00277866 -6.91415e-18)
(0.000415681 0.00832023 -5.08469e-17)
(0.0175663 0.0554439 -1.13693e-17)
(-1.55942e-05 0.000624567 1.19524e-17)
(-1.94404e-06 -0.000103253 6.37143e-19)
(0.0207049 0.00817541 6.24502e-18)
(-0.000125474 0.00012878 4.08081e-18)
(0.00681211 0.00542068 2.91506e-17)
(-0.000298027 -4.96488e-05 6.89347e-18)
(-0.000117464 0.000533156 -4.9023e-18)
(1.81153e-06 -5.96675e-05 1.86976e-18)
(-8.36037e-05 0.000202594 9.25253e-19)
(-0.0241729 0.0376214 5.6984e-18)
(0.0133768 -0.00178046 3.20784e-17)
(-0.00011212 0.000530776 -2.49098e-18)
(-0.00141216 0.00184578 -1.2141e-17)
(-0.0471541 -0.0214736 -1.05722e-17)
(-0.000326009 -0.000256194 -1.98121e-18)
(0.0111983 0.00779616 5.53463e-17)
(-0.0042741 0.00296569 -1.14647e-17)
(-0.0280199 -0.026865 -1.45454e-17)
(0.0318969 -0.0028984 9.77157e-18)
(-7.67884e-05 -8.3301e-05 8.5015e-19)
(0.0142466 -0.00124829 -1.16528e-16)
(-0.0346087 -0.00458042 1.93871e-17)
(-0.0228426 0.0372899 1.09493e-19)
(0.0480064 0.0274087 5.25269e-17)
(-0.0532102 -0.0297429 5.81258e-18)
(-8.03467e-05 0.000663341 4.42941e-18)
(0.000881437 0.000113527 7.98066e-18)
(-0.000296699 -1.80086e-05 -3.49177e-19)
(-3.83875e-05 6.80644e-05 -4.43811e-19)
(0.0126688 -0.000250336 -4.55604e-17)
(0.0187235 0.0528967 1.1539e-17)
(-9.41553e-05 -0.000191104 1.40414e-18)
(-0.00158639 0.00032022 6.43596e-18)
(0.019001 0.0489269 -5.53548e-18)
(-5.06627e-05 -0.000104534 -4.65061e-18)
(0.0234464 -0.00272973 -1.38258e-17)
(-9.82829e-05 -0.000216829 2.55446e-19)
(-4.79581e-05 -0.000173752 -3.87461e-18)
(0.000331282 0.000698082 -2.32759e-18)
(0.0420505 -0.00108084 -5.03855e-18)
(-0.000214211 0.000458509 -1.60052e-18)
(-0.0101762 0.0115435 -3.182e-18)
(-0.000110707 0.000520598 -1.40761e-18)
(0.0126466 0.000446803 1.44641e-17)
(-0.000378323 0.00025792 1.25136e-18)
(-0.00468709 0.00311403 -1.57683e-17)
(3.01284e-05 5.00562e-05 -1.13392e-18)
(-0.000104018 -0.000229135 1.01115e-19)
(0.000691476 -0.000145108 -2.72222e-17)
(-0.000289761 -3.43415e-05 -3.79322e-18)
(-0.000623653 -2.4789e-05 1.04376e-19)
(0.00749946 0.00075212 1.74138e-18)
(-3.95262e-05 1.88589e-05 2.91662e-18)
(-0.000104943 0.000489727 3.7537e-18)
(0.00629088 0.0123242 2.36471e-17)
(-4.58608e-09 -8.0902e-05 -4.71949e-19)
(-0.0243009 0.00511911 -1.41351e-18)
(-0.000257255 0.000339235 9.84988e-19)
(-6.80608e-05 -0.000104963 -1.97656e-18)
(-0.00112841 -0.000525442 -8.50126e-18)
(-0.000139596 0.000566648 -4.45593e-18)
(-0.000592612 -0.00014852 -3.69407e-19)
(0.00087414 0.000513163 -1.58543e-17)
(0.0141174 0.0102851 2.00032e-17)
(0.00100717 0.000547408 5.31945e-18)
(0.00158463 -0.00131106 4.00207e-17)
(-8.57266e-05 -0.000110498 6.60462e-20)
(-0.0218116 -0.0262294 5.31226e-17)
(-7.3016e-05 -0.000103905 8.64119e-19)
(-0.000336899 -0.000114267 3.57778e-18)
(0.0124292 0.0313642 -6.9092e-18)
(-0.057431 0.00154941 1.6337e-18)
(-0.00837857 -0.00126983 -4.2014e-18)
(0.00544629 0.0123673 -2.4199e-18)
(0.00151365 -0.00176745 6.36972e-18)
(-3.6442e-05 0.000790095 1.35763e-18)
(-4.31628e-05 -9.02344e-05 -1.62032e-18)
(0.00745026 -0.000318865 6.21881e-17)
(-3.69886e-05 0.000176953 -7.43322e-18)
(0.0123651 0.000127806 -1.24445e-17)
(0.0116479 0.00781681 -4.57655e-17)
(0.0197129 0.030699 3.24199e-17)
(-2.10793e-05 1.17757e-05 3.14868e-18)
(-6.00322e-05 -0.000130619 2.04612e-19)
(-4.99315e-05 -9.59106e-05 1.09015e-18)
(-7.14277e-05 -3.04303e-05 4.71402e-20)
(0.00256378 0.0056593 4.20167e-17)
(-0.000392375 -0.000430005 -1.44379e-17)
(-6.2408e-05 9.62752e-05 6.6207e-19)
(-0.00745891 0.00604811 -4.35142e-17)
(0.0175736 0.0569985 7.54374e-18)
(-0.000497385 -9.08617e-05 -2.24147e-18)
(-0.0435096 2.60805e-05 1.60995e-17)
(0.0173834 -0.00678531 -6.58253e-18)
(0.0182701 0.0309631 -1.87425e-17)
(2.32959e-05 -5.20849e-05 2.73108e-18)
(0.0168782 0.00803356 -6.12227e-17)
(6.81693e-05 0.000460531 1.46843e-17)
(3.42106e-05 0.000147567 2.02961e-18)
(0.0102885 0.00851407 1.11219e-17)
(-5.8853e-05 0.0008932 4.97817e-18)
(6.7709e-05 0.000457941 7.68266e-18)
(-0.000485843 -0.000485094 -7.16526e-18)
(0.000617974 -0.000455961 -2.2906e-17)
(0.0323738 0.0345579 -1.87949e-17)
(0.0013867 -0.0015118 3.11648e-17)
(-0.000590133 -0.000131486 4.28685e-18)
(0.000876431 0.00105124 -4.11592e-18)
(1.95194e-05 -6.63232e-05 -5.6987e-19)
(0.00379051 0.00962162 1.47928e-17)
(-5.1354e-05 0.000322428 -5.19113e-18)
(0.00737609 0.00121568 8.01532e-20)
(-0.000249376 0.000346575 -7.78329e-19)
(0.0113461 0.0318245 8.64665e-18)
(0.0322253 0.00210225 -1.49789e-17)
(-8.8582e-05 -0.000105181 -2.44084e-20)
(-0.000350087 -0.000135501 -8.88642e-19)
(0.00242934 0.00259473 -2.75817e-17)
(-0.000348051 -0.000138714 -2.05195e-19)
(-0.00151619 0.000272153 -6.73054e-18)
(0.0071107 0.000135258 -6.72377e-17)
(-0.032064 -0.010215 -7.55829e-18)
(-0.0166532 -0.00436425 -1.57199e-17)
(-0.00011778 0.000430194 1.15582e-19)
(-0.00381678 -0.00342601 3.67905e-17)
(0.0472189 -0.034326 6.88429e-18)
(-9.79294e-05 0.00760421 1.52114e-17)
(-0.000205966 0.000469854 3.89905e-18)
(-0.000186594 -0.000279616 7.90486e-19)
(-0.000229141 -0.000199095 -5.73971e-18)
(-0.00032571 -0.000470501 -1.09357e-17)
(-0.000123516 0.000448108 -3.63224e-19)
(0.0898061 -0.0152837 2.36615e-17)
(-0.00662157 0.00562463 2.06937e-17)
(0.108817 0.0591073 1.56313e-18)
(-0.0271455 0.0029797 -1.35401e-17)
(0.0108409 0.00809454 3.40677e-17)
(-8.00128e-05 -0.000183396 -1.24922e-19)
(2.74069e-06 6.75523e-06 3.90006e-19)
(-5.24597e-06 0.000898219 -3.41199e-18)
(0.0118653 0.0104106 1.09097e-17)
(6.54249e-06 0.000603364 3.24652e-18)
(0.000917295 0.000918255 6.02764e-18)
(0.00774406 -0.00478997 2.93937e-17)
(-0.000289409 -0.000176964 2.59057e-18)
(0.0183756 0.00819766 -3.37418e-17)
(-0.000272003 -0.00024178 5.56133e-19)
(-0.0188713 0.0632038 9.83796e-18)
(-0.021529 -0.0254557 3.5964e-17)
(-6.40222e-05 -3.63905e-05 -2.17617e-19)
(0.0467076 0.0317798 6.59789e-18)
(-5.53907e-06 0.000570705 4.70239e-18)
(-0.000309243 -0.000225353 -7.03712e-19)
(-0.000442772 -9.97186e-05 2.21474e-18)
(0.00206425 -0.00439843 -2.78913e-17)
(-0.000780054 -0.000372439 4.79498e-18)
(1.37261e-05 9.8305e-05 -3.22193e-19)
(0.0123271 0.00249964 2.23292e-17)
(0.101737 0.057876 -2.78932e-18)
(-6.69019e-05 -0.000183055 1.73234e-18)
(0.00966278 0.00156349 8.98622e-17)
(0.0189208 0.00752742 7.18945e-17)
(-0.00795316 -0.00169723 -5.08625e-18)
(-7.27588e-05 0.000263344 5.89085e-18)
(-1.81359e-05 -3.22796e-06 -1.44135e-18)
(-0.010097 0.0588698 -2.99839e-18)
(-0.000485373 -0.000105667 1.03389e-18)
(-9.25715e-05 -0.000191859 -8.2877e-19)
(-0.000220371 -0.000298066 -1.17705e-18)
(-2.50979e-05 0.000635542 6.15828e-18)
(-0.00396317 0.00327859 6.97147e-17)
(0.00174689 -0.00468395 2.30662e-17)
(-0.000262068 -0.00018615 -2.23392e-18)
(-0.000390859 -0.000365598 2.03769e-18)
(-0.000345839 0.000299825 -8.76405e-20)
(0.000218314 0.000749493 -3.56068e-18)
(1.10081e-05 -5.58858e-05 1.81656e-18)
(2.10048e-06 -0.000107663 1.09812e-17)
(0.0453312 0.00231227 1.83785e-17)
(-0.000893049 0.000831442 1.68635e-18)
(-0.00420388 -0.00358491 -2.33815e-17)
(0.0779157 0.0887589 -1.43888e-17)
(9.92034e-06 0.000602729 9.60655e-18)
(-0.000218426 0.000451804 3.90267e-19)
(-1.84378e-05 2.42088e-06 7.88276e-19)
(-0.0157622 0.0630006 -1.03966e-17)
(0.0547982 0.0341919 1.34627e-17)
(-5.68373e-05 -0.000121036 -2.57702e-19)
(-5.2817e-05 -0.000104935 1.21217e-18)
(-6.32499e-05 -0.000129409 7.71396e-19)
(-9.31694e-05 0.000655308 -6.42077e-18)
(-4.68002e-05 0.000726739 -3.34605e-18)
(-0.0154239 -0.00519543 2.13257e-17)
(-3.23673e-05 -0.000226065 -4.19453e-18)
(-1.61375e-05 0.000336422 2.80981e-18)
(-6.268e-05 -0.000176899 -2.22338e-19)
(0.00218173 -0.00135374 8.95554e-18)
(0.00196811 0.00158344 -1.99051e-18)
(0.00885191 -0.0105505 3.58238e-17)
(-0.00120061 0.00302968 3.11825e-19)
(-0.0007627 -0.000150297 4.78444e-18)
(0.0393312 -0.00494094 -2.63539e-17)
(-0.000413595 0.0022535 -1.9616e-17)
(-6.67065e-05 -0.000521413 3.06617e-19)
(9.24147e-05 0.000430519 -1.5015e-18)
(0.0121052 0.00559595 -3.49979e-17)
(-0.0504414 0.00352016 -8.12142e-18)
(0.0221555 0.0508818 -7.13072e-18)
(-3.45075e-05 9.71195e-05 -5.36569e-18)
(-0.000414886 0.000281224 -1.43833e-19)
(-0.0326151 -0.017044 1.78215e-17)
(-0.0311917 -0.00994816 2.04035e-17)
(-0.000277403 0.000245336 -1.76209e-19)
(-8.52797e-05 -0.000199206 1.71595e-18)
(0.00313551 -0.000324596 5.22879e-18)
(-0.000326212 -0.000285163 -3.49564e-18)
(-0.000408192 0.0012927 2.29996e-17)
(-0.0576005 -0.0272444 -5.67107e-17)
(0.104136 0.0934258 9.97684e-19)
(-0.014129 0.0257108 1.40946e-17)
(-0.000321058 0.000303787 -1.40193e-19)
(0.0316972 0.00250854 1.27472e-18)
(-3.85682e-05 0.000179698 7.16816e-18)
(-0.000273383 -2.35499e-05 4.05935e-18)
(-7.96593e-05 0.000217111 -2.69395e-18)
(-0.000361029 -0.000192133 6.86113e-18)
(-0.00289905 0.0231488 2.87458e-18)
(-0.000341125 -5.90533e-05 -2.81844e-18)
(0.00934814 0.00185108 -8.30089e-17)
(0.00224777 0.00111964 -6.92348e-18)
(-0.000462851 -0.000470044 4.72777e-18)
(-7.19569e-05 -0.000176962 1.76939e-18)
(0.00293585 -0.00574349 -1.92563e-17)
(-0.0131557 0.0249531 -1.33061e-17)
(0.027599 0.00376227 -6.56156e-19)
(-5.78644e-05 0.000153046 -4.961e-18)
(-0.00783517 0.00853777 1.74287e-18)
(-0.000181486 -0.000282074 -1.00734e-18)
(-2.69835e-05 0.000597457 1.56043e-17)
(-4.22409e-05 -0.000196053 5.04683e-18)
(-9.19243e-05 -9.12702e-05 -3.05967e-20)
(-0.0351918 -0.00373691 1.85381e-17)
(-0.0223327 0.00602798 2.4392e-18)
(0.00483068 0.00165823 2.83067e-17)
(0.0215172 -0.00266504 -3.86969e-17)
(-4.50703e-05 -2.98371e-06 4.13469e-19)
(0.0238493 0.0191553 3.35973e-17)
(-0.0159276 0.013739 4.2398e-18)
(0.000587674 -0.000454328 7.27843e-18)
(-6.96873e-05 0.000109137 4.63968e-20)
(0.0758333 0.0926469 -1.32798e-17)
(-0.0002324 -0.000293887 -2.30615e-18)
(-0.000333475 -0.000261776 2.63323e-18)
(-4.23322e-05 7.56579e-05 1.23243e-18)
(-0.00267279 0.0241443 -8.3921e-18)
(-3.65648e-05 -0.000222798 -2.95918e-18)
(-9.07349e-05 0.000495254 -1.6811e-18)
(-0.00128383 0.00282866 3.56584e-18)
(-0.00449565 0.00464649 6.32716e-17)
(-0.000212038 -0.000291218 2.02318e-18)
(-0.032502 0.00344979 -7.20062e-18)
(0.00182307 0.00317357 -1.31819e-18)
(-5.4398e-05 0.000293182 -5.55436e-18)
(-0.00115031 0.000625557 3.73064e-18)
(-4.98833e-05 0.000140863 -1.16006e-18)
(-5.75485e-05 -0.000123431 6.79254e-19)
(-0.000312586 -0.000166988 -3.57749e-19)
(0.00362184 0.00783666 6.10503e-18)
(0.000182954 0.000748681 -1.28273e-17)
(0.00709574 -0.0112044 -9.68289e-17)
(0.000600628 -0.000178767 1.75142e-18)
(-2.30743e-05 0.00045829 2.58103e-18)
(0.00239923 0.00238758 1.81197e-17)
(0.0398247 0.0479172 -1.13657e-17)
(0.0979207 0.0631113 1.00282e-17)
(0.031583 -0.00308313 9.18296e-17)
(-0.00652364 0.0232962 -1.50654e-17)
(-0.000193928 0.000504388 3.16636e-19)
(-9.19737e-05 -8.29651e-05 4.00106e-20)
(-5.46326e-05 7.74898e-05 -9.50459e-19)
(-0.000133903 0.000580575 9.89281e-18)
(-0.0157207 0.0253066 -4.79282e-18)
(-5.89559e-05 0.00406098 -5.12443e-18)
(-0.003271 0.00225737 -1.39377e-18)
(-3.04065e-05 0.000528499 4.97368e-18)
(5.92047e-06 0.000707271 -6.00025e-18)
(0.00627218 0.0539432 -1.35753e-17)
(0.00510656 0.0132575 3.20443e-18)
(-6.09877e-05 0.00012767 8.64402e-18)
(-0.000371901 -0.000364843 1.75693e-18)
(-5.38457e-05 0.00125436 2.12055e-17)
(-0.000169767 0.000622507 -2.09866e-18)
(0.103031 0.096992 4.47738e-18)
(-7.62616e-06 -2.98696e-06 -4.25008e-19)
(-1.12505e-06 0.000543305 -9.01351e-18)
(0.0952002 0.0153815 1.1285e-17)
(-3.26831e-05 0.000536723 -1.73087e-18)
(-0.000368018 -0.000172759 -5.06095e-18)
(0.030215 0.0357102 3.56941e-17)
(0.000168197 0.0268777 -6.97551e-18)
(-6.75489e-05 0.000866915 -9.90895e-20)
(0.00832289 0.00192699 -5.9348e-17)
(-6.35816e-05 0.000104862 4.40506e-18)
(-0.000136344 0.000629597 2.07081e-19)
(0.00175945 -0.00143191 -2.33362e-17)
(0.0120024 0.00643715 -9.58216e-17)
(0.000183689 0.000340216 7.46165e-18)
(-0.00230302 -0.000603647 1.31252e-17)
(-0.0330197 0.0346363 1.62939e-18)
(0.00601555 0.0520152 5.52928e-18)
(-0.00619839 -0.0013224 4.41569e-17)
(-0.0295426 0.034996 -1.23183e-18)
(-4.37931e-05 0.000468192 -1.6968e-18)
(0.00032772 -0.00819889 -1.1173e-17)
(-0.000184984 0.000507844 -1.86717e-19)
(-0.0165118 0.0260326 1.02783e-17)
(-0.000299832 8.29608e-06 3.72462e-19)
(0.0113866 0.00176943 6.14489e-17)
(-0.00817711 0.00799689 -2.8016e-18)
(-0.025081 -0.019022 3.88668e-17)
(-0.00310642 0.00221853 1.50212e-18)
(-0.0114147 0.0153304 -3.99871e-18)
(-6.67701e-05 -3.73551e-05 2.93148e-20)
(0.049967 0.0238269 -1.20343e-17)
(-9.0937e-05 -0.000218912 4.1134e-20)
(-0.0513353 0.00197586 6.9342e-18)
(-8.16096e-05 0.000235704 1.82161e-18)
(0.000340739 0.00433215 1.38352e-17)
(-2.64164e-05 0.000418843 -2.68048e-18)
(0.00551267 0.0603773 -9.69052e-18)
(-0.00033211 0.00139532 -1.35405e-17)
(-1.43768e-05 0.000380533 9.25432e-18)
(-6.43184e-05 -0.000116224 -7.78889e-19)
(-4.66796e-05 8.66554e-05 -7.48258e-19)
(0.0409473 0.0552407 -8.14035e-19)
(-0.0607814 0.000374117 -7.56719e-18)
(-0.0589549 -0.0272666 -2.47837e-17)
(-0.00223245 0.00575768 8.27394e-18)
(-0.00145299 0.000134777 2.36467e-18)
(0.00258049 -0.00456246 -3.65981e-19)
(2.5245e-06 -7.06935e-05 2.02013e-18)
(1.30142e-05 -8.13778e-05 -2.71884e-18)
(0.0169627 0.0281342 1.21588e-17)
(-6.27748e-05 -0.000117626 3.61891e-18)
(-9.38142e-06 0.000535217 -3.95604e-18)
(0.0073832 -0.00539418 -3.03997e-17)
(-3.67544e-05 8.80893e-05 6.26617e-18)
(-0.00215802 -0.000479681 9.8002e-18)
(0.00287653 -0.00421046 2.03482e-18)
(-1.20169e-05 0.000526523 -2.1744e-18)
(-3.71241e-05 -0.000218627 5.64216e-18)
(-5.94202e-06 0.000546707 4.31585e-18)
(-0.000153273 0.000619313 -2.85714e-19)
(-7.09491e-05 0.000142545 -7.01642e-18)
(-0.0405913 0.00432211 2.90723e-17)
(-0.00564008 -0.00177733 1.14053e-18)
(0.00018455 0.000367169 -1.80883e-17)
(-0.000344144 1.53591e-05 1.22577e-18)
(-2.66865e-05 0.00048071 2.81634e-18)
(0.00218491 -0.00315659 3.22526e-17)
(-4.52797e-06 0.000444397 -7.87477e-18)
(-0.000317594 -7.41844e-05 2.05527e-20)
(0.00248019 -0.00111987 1.31708e-17)
(0.0159354 -0.00329404 1.18205e-17)
(-0.0112982 0.014403 -3.61764e-18)
(0.00174325 0.0593206 -1.73519e-18)
(-0.000278064 0.000264847 -4.65207e-19)
(-0.0003281 -9.43055e-05 8.58099e-19)
(0.0144906 -0.00466723 -4.87689e-18)
(-0.000312522 -0.000251985 3.61334e-18)
(-0.0281934 -0.00361245 1.10133e-17)
(0.000388011 0.00400179 -6.77096e-18)
(-1.74811e-05 0.000413891 3.46508e-18)
(-0.0404241 0.00426193 -4.1785e-17)
(0.0424306 -0.00433003 1.31471e-17)
(0.00339826 -0.00010683 -5.6305e-18)
(-4.69114e-05 1.18466e-05 2.13822e-20)
(-0.00089495 0.000738181 -6.32812e-18)
(0.038207 0.0320192 -5.06991e-18)
(-0.000323321 -0.00023144 -1.09003e-18)
(-0.000288644 -0.000209032 4.82529e-19)
(-0.000737958 -0.000855371 2.58216e-18)
(-0.000764493 -0.000340409 -3.98494e-18)
(-0.000336582 -0.000251049 4.95776e-19)
(-7.02244e-05 -6.15638e-06 -1.79536e-19)
(7.95698e-06 -4.19387e-05 3.19842e-18)
(-0.00578197 0.00293629 -9.28097e-18)
(-0.000376019 0.000167921 6.34896e-18)
(-0.0474743 -0.0225075 4.44794e-17)
(-1.78584e-05 -0.000290924 3.54083e-18)
(-0.000908482 -0.00878412 1.49881e-17)
(-0.052929 -0.026889 8.48762e-17)
(-4.78474e-05 0.000346524 5.48738e-18)
(-0.000104887 -0.000225111 -3.99088e-19)
(-0.000290766 6.67645e-05 1.46781e-18)
(2.11572e-05 0.00010334 -1.287e-18)
(-0.000209757 0.000453888 8.88063e-19)
(-2.35814e-05 0.00069816 -8.06273e-18)
(-0.00029858 8.23891e-06 -1.05349e-18)
(0.0123031 0.00429409 8.77385e-18)
(0.00245651 -0.00120823 -1.52768e-17)
(-1.04119e-05 -7.12765e-05 -3.12994e-19)
(0.0336715 0.0313527 -4.60136e-18)
(-0.0392502 -0.00606673 1.82258e-17)
(0.000189814 0.000310288 4.36705e-18)
(0.000923498 -0.0083063 2.73657e-17)
(0.00460999 0.00257057 -1.31578e-17)
(-1.97597e-05 0.000592031 -1.29894e-17)
(-0.00526023 -0.00181305 -3.96119e-18)
(-0.000233357 0.000613183 4.22663e-18)
(-0.00268196 0.0224302 1.07951e-17)
(-0.000402168 0.000139735 -7.21773e-18)
(-0.00595514 0.00598958 4.03573e-18)
(-0.000139526 0.000495511 -2.83659e-18)
(0.111374 0.094735 -1.43315e-17)
(0.00130172 0.00135041 2.30513e-17)
(0.00181475 0.00179477 5.80021e-19)
(0.0139368 0.0157944 3.51479e-18)
(0.00412971 0.00108318 3.70353e-17)
(-0.000370977 9.5071e-05 6.60196e-18)
(-7.80282e-05 0.000290257 2.17341e-18)
(0.00196 -0.00151886 5.19168e-19)
(-0.0158868 -0.00249642 1.15014e-17)
(-0.000198974 0.000489577 -2.40424e-18)
(-0.000205004 0.00483818 -4.66137e-17)
(-5.82703e-05 0.000476093 1.88321e-18)
(0.0190998 0.0545053 -4.01247e-18)
(-0.000225344 0.000423651 9.25041e-19)
(-0.000243876 -0.000270184 1.28474e-18)
(-5.06741e-05 9.50255e-05 6.62417e-20)
(-3.07869e-05 7.49566e-05 1.03829e-18)
(-0.0400853 -0.00146278 -1.3114e-17)
(0.0217915 0.0540422 -2.07211e-18)
(-4.15028e-05 0.000159685 -1.32951e-20)
(-0.0181035 0.0481111 3.52349e-18)
(-1.83504e-05 0.000491161 -2.40911e-18)
(0.0932603 0.0637605 6.90131e-18)
(-0.058937 0.000105796 1.03394e-17)
(-0.0151679 0.0583853 1.48175e-18)
(-0.0023468 -0.0311551 -5.55815e-17)
(-8.33572e-05 -0.000220044 1.81989e-18)
(-0.0339758 -0.00728569 -2.06041e-17)
(-0.0107274 0.0108497 3.14706e-18)
(-0.000207032 0.000413208 4.35298e-19)
(-0.00105322 0.00582549 1.06624e-17)
(0.0131689 0.0269943 -7.94079e-18)
(0.0959146 0.00639312 2.69893e-18)
(-0.000596038 -0.000149378 2.44628e-18)
(6.37528e-06 0.000560349 1.06533e-17)
(-0.000191167 0.000466092 -2.42964e-18)
(6.60414e-06 -5.39522e-06 4.92118e-20)
(0.0650704 0.00763456 3.62599e-18)
(0.0121451 0.00592225 7.1144e-18)
(-0.0355621 -0.00556202 -2.57048e-17)
(-0.0181943 0.0118047 -8.24177e-18)
(-3.78899e-05 0.000169395 1.02646e-20)
(2.78898e-05 7.39833e-05 -1.3348e-18)
(0.00372174 0.00295418 -1.29458e-17)
(6.65147e-06 -9.29156e-05 6.63576e-18)
(-8.14618e-05 0.000190675 1.04657e-19)
(-3.71821e-05 0.000692472 -2.48538e-18)
(-0.00071548 -0.000646771 -1.2113e-18)
(0.0131583 0.00378139 -6.08243e-18)
(0.00110708 0.00142148 -1.47197e-17)
(-0.00488568 0.00243307 -3.36753e-17)
(-0.020323 0.0122941 5.41686e-18)
(-0.00226807 -0.000851103 4.81445e-18)
(-2.69279e-05 0.000428685 -2.08313e-18)
(-4.79174e-05 0.000518457 -9.13687e-18)
(-0.00401509 -0.00174593 -2.79616e-17)
(0.0014225 0.023379 -4.43796e-18)
(-0.00587068 0.00551757 -7.22112e-18)
(0.0056361 0.00564493 -6.62347e-17)
(0.00143375 -0.00113643 -7.40195e-18)
(-5.44253e-05 0.000207109 -9.85468e-19)
(-0.017083 0.0470496 -7.62692e-19)
(0.0948494 0.0478067 -1.78015e-17)
(-0.000221608 0.000439409 2.02432e-18)
(-8.1677e-05 -0.000152452 -3.35331e-18)
(0.0010571 -0.000575199 -2.27265e-17)
(-0.0157906 -0.0218989 -3.75734e-18)
(-0.00497747 0.00289534 1.18119e-17)
(-3.55084e-05 6.59817e-05 -1.85028e-18)
(-0.053285 0.00240233 -5.14178e-18)
(-0.0203726 0.0022727 -4.09261e-18)
(-0.0150204 -0.0011371 -1.33138e-17)
(-6.75952e-05 -0.000189908 -2.74078e-19)
(0.00141947 0.000727099 -1.67553e-17)
(0.0111973 0.00213062 2.2312e-17)
(0.0225847 -0.00324464 1.65548e-17)
(-0.000359095 -4.91578e-05 8.27957e-18)
(5.62892e-06 -0.00015838 4.53199e-18)
(-0.0582287 -0.03088 2.00487e-17)
(2.87302e-06 -3.81881e-05 2.17387e-18)
(-0.00264173 0.0363178 4.05299e-17)
(-0.0261205 -0.00544412 5.01033e-17)
(0.00990285 -0.0132566 3.31356e-17)
(0.00413955 0.00122655 -2.08375e-17)
(0.00241007 0.0148662 -4.3267e-18)
(-0.03574 0.00865856 -1.37216e-18)
(0.00425986 0.00770633 -1.22455e-17)
(-8.51097e-05 0.000490416 -3.08168e-18)
(-1.74691e-05 0.00053839 -5.51823e-18)
(0.0329873 -0.00125666 -3.83392e-17)
(0.0743907 0.0861012 -1.21748e-17)
(0.0118036 0.00203768 -1.23143e-18)
(0.0933812 0.0927574 3.02188e-18)
(-0.000307642 -0.000249728 1.53401e-18)
(-0.00156771 0.0357551 -1.92964e-18)
(2.27907e-06 -5.73992e-05 7.78808e-19)
(0.00137707 -0.00198566 -1.00479e-18)
(-0.00208847 0.017382 -9.45043e-18)
(-0.0045836 -0.00259682 9.59508e-19)
(-9.20606e-06 0.000393396 -3.31238e-18)
(-0.000133392 0.000555022 1.91746e-17)
(0.0223634 0.0187926 2.60062e-18)
(0.025299 0.0295367 4.20463e-18)
(0.0333413 -0.00113812 1.02447e-17)
(0.0163311 0.00155947 -1.36889e-19)
(-5.30089e-05 -0.000588567 3.88438e-18)
(-0.000426259 0.000192046 -3.25143e-18)
(0.0179791 0.0331927 -1.93539e-17)
(-3.89125e-05 0.000378211 -5.89753e-19)
(-0.000163001 -0.000272226 -8.39684e-19)
(-6.28622e-05 -0.000160778 -1.25628e-18)
(-0.00219457 -0.000821817 4.84719e-18)
(-0.0101192 0.0140093 7.78786e-18)
(-1.82997e-05 0.000404106 -5.97599e-18)
(-0.00230372 0.0163581 1.74342e-17)
(-5.34277e-05 -4.65667e-07 1.83171e-18)
(-3.62411e-05 5.4926e-06 -2.03791e-18)
(-4.74021e-05 -0.000104167 -2.67299e-18)
(-0.0327976 0.000544512 1.95924e-17)
(-3.95492e-05 0.000466976 1.07757e-17)
(2.95231e-06 -4.64556e-05 -9.40843e-19)
(0.00344665 0.0026061 2.27893e-17)
(0.00258235 0.000369737 6.85046e-18)
(-1.57855e-05 -8.17287e-05 5.30667e-19)
(-0.0374376 -0.00227516 -1.14375e-17)
(-0.000322127 -0.000289539 2.97311e-18)
(-1.42526e-05 -8.76538e-05 -1.27477e-18)
(0.000541388 -0.00179109 -7.51473e-18)
(0.000169706 0.000392003 4.96812e-18)
(-0.001528 0.000184545 4.88645e-18)
(-0.000251473 0.000187379 1.20501e-20)
(0.00161302 0.00674836 2.55978e-17)
(0.000241491 0.000318319 -7.46213e-18)
(-0.000553013 -3.34592e-05 -1.57298e-18)
(0.0890675 0.0496645 1.86402e-17)
(-0.000531576 -8.11179e-05 6.53087e-18)
(0.0728297 0.092042 -2.94821e-18)
(1.21996e-05 0.000591508 7.37159e-18)
(0.0125993 0.00547451 -8.71053e-18)
(0.0200592 -0.00442816 -3.37357e-17)
(0.0628608 0.00486716 -1.29201e-17)
(-7.95382e-05 -0.000144595 1.04698e-18)
(0.00207759 0.023838 5.74206e-18)
(0.0489428 0.0109336 -3.87279e-17)
(-9.07962e-05 1.08451e-05 2.64808e-19)
(-0.0528382 0.00248125 8.26538e-18)
(-2.6507e-05 0.000482721 5.48666e-18)
(-4.74415e-05 -0.000100818 -2.6287e-18)
(0.000972287 0.000774789 1.42742e-17)
(-6.96573e-05 -6.87857e-05 -1.022e-18)
(-0.00215068 0.00187824 8.66185e-18)
(-0.000813057 0.0228959 2.563e-18)
(-8.97024e-05 -0.00021365 8.43852e-19)
(0.0135092 -0.00169796 -9.64265e-17)
(-7.7034e-05 -0.000202846 3.28163e-18)
(0.000536984 -6.14374e-05 -1.4739e-17)
(0.0721765 0.0886585 1.93686e-18)
(-1.60811e-06 -4.68916e-05 4.42177e-19)
(-0.0209184 -0.0198913 3.03948e-17)
(-0.000251651 0.000342083 -7.57345e-19)
(-0.000338558 -0.000299082 2.34206e-18)
(-4.44902e-05 -0.000173699 -2.61764e-19)
(-6.2363e-05 -0.000174412 1.5214e-18)
(0.0147837 -0.0123433 1.32484e-17)
(0.000609027 -0.00016538 1.06716e-17)
(0.00444877 -0.00221158 -5.57814e-17)
(-0.00234054 -0.000917249 -2.30582e-17)
(-0.0136097 -0.0248035 1.36867e-17)
(0.00379891 0.00173332 -6.83481e-18)
(-2.33385e-05 0.000422316 1.9825e-18)
(0.0230448 0.0216946 2.55663e-17)
(0.0158001 0.00201823 -4.21535e-19)
(-0.0145465 -0.031939 3.14495e-17)
(0.000800804 -0.000115353 1.92096e-18)
(0.00979358 -0.00996455 -1.72465e-17)
(-0.0120932 0.0100942 6.84682e-18)
(-0.000249978 -0.000101173 1.31666e-18)
(0.013466 -0.0135588 2.40156e-17)
(-0.00027153 0.000240297 4.38996e-20)
(0.00423071 0.00634018 7.63044e-18)
(-3.85625e-05 3.86484e-05 2.60586e-19)
(0.00154401 0.000702328 4.43602e-17)
(-0.00063058 -0.000129155 -1.69313e-19)
(0.000779504 3.60545e-06 6.62078e-17)
(-2.70713e-06 0.000533138 -4.65987e-18)
(-0.000352107 -0.000168436 6.05354e-19)
(-0.0531338 -0.0236039 2.20781e-17)
(-1.5517e-07 0.000551246 -2.46183e-18)
(-6.95642e-05 0.000156032 6.6097e-19)
(-0.0193681 -0.0188589 -3.84261e-17)
(-0.000248212 0.000358468 -5.88309e-19)
(-5.14238e-05 -0.000116199 -4.57195e-19)
(0.000128912 0.0043167 -4.34381e-18)
(0.000979227 -0.00435997 4.28676e-18)
(0.0158505 -0.0126455 -7.13142e-18)
(-0.0160647 -0.00427125 -3.27868e-18)
(0.0188284 0.0600655 3.20626e-18)
(0.000372788 -0.00990606 1.20182e-17)
(2.45952e-05 8.35583e-05 1.5244e-18)
(-4.92303e-07 -0.000199815 1.48786e-18)
(-0.0529214 0.00264437 4.61814e-18)
(-5.01044e-05 7.72311e-05 4.55795e-19)
(-0.00581345 0.00623386 6.53343e-18)
(0.00284429 0.0158004 6.31403e-18)
(-0.00033847 -5.74432e-05 1.05447e-17)
(-6.18648e-06 0.000536238 1.14977e-17)