/*--------------------------------*- C++ -*----------------------------------*\
| =========                 |                                                 |
| \\      /  F ield         | OpenFOAM: The Open Source CFD Toolbox           |
|  \\    /   O peration     | Version:  v2012                                 |
|   \\  /    A nd           | Website:  www.openfoam.com                      |
|    \\/     M anipulation  |                                                 |
\*---------------------------------------------------------------------------*/
FoamFile
{
    version     2.0;
    format      ascii;
    class       volScalarField;
    location    "550";
    object      nut;
}
// * * * * * * * * * * * * * * * * * * * * * * * * * * * * * * * * * * * * * //

dimensions      [0 2 -1 0 0 0 0];


internalField   nonuniform List<scalar> 
18758
(
0.000105118
0.00202529
0.00671659
0.0114646
0.0103179
0.0115792
0.00110033
0.00671923
0.000304172
0.000525325
0.00137977
0.00439682
0.00672106
0.00083268
0.00305458
2.47346e-05
0.00101138
0.00671929
0.00433316
0.000447101
0.00352917
0.00672571
0.00767804
0.000499435
0.000428891
0.00671885
3.56831e-05
0.00994754
0.00768585
0.00011607
0.00122055
0.00529845
0.00672348
0.00243475
0.00062599
0.00672329
0.0067245
0.00327629
0.0026974
0.000846714
0.00314647
0.000485516
0.00673645
0.000623195
0.000177378
0.00671641
0.00779184
0.00119603
0.00062485
0.0067338
0.000224879
0.00927823
0.00671602
0.00150724
0.0110523
0.00165059
0.00672425
3.15536e-05
0.00415813
0.000780274
0.000159743
0.00150482
0.000316687
0.00119171
0.00671605
0.00672402
0.000890833
0.00672338
0.00374574
0.0098557
0.0104551
0.0018961
0.00673476
1.32591e-05
0.00672764
0.00401387
0.000334796
0.00997928
7.78542e-05
0.00577506
0.00979525
0.000275193
0.000794601
0.0120375
0.00033818
0.000892227
0.00224425
0.000379553
0.000155731
0.00416925
0.0113238
0.00430926
0.00219229
0.000484227
0.0103604
0.00228532
0.000375575
0.00672891
0.0067272
0.00480074
0.000385689
0.0116127
0.000545761
0.000322925
0.0032304
8.0729e-05
0.00140167
0.00922762
0.00184108
0.00172191
0.00199173
7.24656e-06
0.00671861
0.00275261
0.00865861
0.00212937
0.00381818
0.00310861
0.00529627
0.0109905
0.000566767
0.00524895
0.00640693
2.09937e-05
0.000123913
0.000167475
0.00120154
0.000573876
0.00253325
0.00673326
0.0010539
3.16865e-05
0.000943854
0.00015516
2.1897e-05
0.00085758
0.00041437
0.000953267
0.00672709
7.34894e-05
7.02605e-05
5.45547e-05
0.0033372
0.00245931
0.00332271
0.0043791
0.00288342
0.00355229
0.00127513
0.00695328
0.000200257
0.000451768
0.0008876
0.00672573
0.00992715
0.000923295
0.00566652
0.00122274
0.00233164
0.00672618
0.0067257
0.000764626
0.00193379
0.00209632
0.00016232
0.0087245
0.00380727
0.00610326
0.00014921
0.0110222
0.00870618
0.00671932
0.00209172
0.0104059
0.000676527
0.000510096
0.00886363
0.00127374
7.57309e-05
0.00278523
0.00671795
0.000182782
0.000506668
0.00675491
0.00185062
0.000600582
0.00633561
0.00299962
0.00673261
0.00627058
0.000149921
0.000556382
0.00185204
0.00130981
0.0003187
0.000340561
0.00042502
0.000156222
0.00672269
0.00673544
8.0409e-05
0.00126312
0.000388963
0.000394946
0.00672044
0.000341792
0.000522639
0.00672591
0.00300647
0.000554946
0.00671911
0.000322064
0.00220144
0.000374182
8.59256e-05
0.00860178
8.07561e-05
2.57826e-05
0.00672177
0.0114376
0.00671913
0.00195417
0.00041512
0.00419086
0.000213169
0.000513745
0.000397404
0.000180041
0.00675183
0.000325396
0.00672406
0.000355314
0.00810639
0.000414041
0.00672126
0.00650921
0.00675166
0.00671678
0.00661353
0.00048616
0.00672332
0.00031897
0.00149144
0.00211877
0.00608757
0.000452807
0.000381978
0.00672338
0.0102598
0.000341373
0.00672298
0.00714509
0.000957803
0.000315145
0.00344484
0.000585794
0.000462882
2.65376e-05
0.000405485
8.86999e-05
0.00679042
0.000578847
0.0067221
0.000395804
0.000619213
0.000445368
0.00153376
0.00672069
0.0021111
5.26828e-05
0.00216485
0.00186931
0.000358552
0.00859825
0.00252876
0.00349122
0.000210141
0.000302382
0.000159697
0.00162479
0.00588425
0.000704028
0.000477751
0.00396507
0.000508085
0.000300501
0.00554591
0.000266228
0.00806793
0.00674648
0.00671644
0.000167112
0.00877546
0.000562484
8.98619e-05
0.000323034
0.000645611
0.0105504
0.00445149
0.0004837
0.0111982
0.00671664
0.0103243
0.000244744
0.00346054
0.000485821
0.000312484
0.00289472
0.00672305
0.00218924
0.00527769
0.00672124
0.0011498
0.0107759
0.000202279
0.0067222
0.00674632
0.000500248
0.00193426
0.00675174
0.00507054
0.00101318
0.000141097
0.000270191
0.000690638
0.000465539
0.000433535
0.000164134
0.00678684
0.00672591
0.000565328
0.000202966
0.000208003
0.0114465
0.000528844
0.00192241
0.00678379
0.000372972
0.00992976
0.00675253
0.00671897
0.00675202
0.000986933
0.000197727
0.000408121
0.00522031
0.00199053
0.00673601
2.44871e-05
5.8799e-05
0.000257687
0.000110268
0.00241529
0.000533301
0.000111003
0.000528045
0.000289022
0.00530195
0.00485487
0.000581982
0.00672046
0.000394556
0.00206334
0.00807471
0.000813336
0.00674633
0.000434025
0.00373617
0.000999249
0.00451789
0.00910776
0.000808056
0.000446744
0.00224823
0.0034266
0.00118294
0.00507537
0.00254015
0.000679376
0.00133802
0.00154587
4.38904e-05
0.00339633
0.00672101
0.00483523
0.000862045
0.000300851
0.00326845
0.00135765
0.00595847
0.000535903
0.00493166
0.00672048
0.00362492
0.0034959
7.09491e-05
0.00232748
0.00672564
0.000343725
0.00913986
0.000486395
0.006719
0.0114107
0.00523601
0.00387877
0.00671819
0.000623737
0.00590114
0.000577379
0.000125137
0.00677674
0.00580235
0.0109437
0.000705546
0.00672226
0.00153677
0.00373661
0.00671903
0.000742803
0.000597809
0.00015401
0.00045396
0.00052956
0.00672298
4.77112e-05
0.00511396
0.0099863
0.00816001
0.000811684
0.00165747
0.00672021
0.00672271
0.00200456
0.00103824
0.000856274
0.0015209
0.000266102
0.000916211
0.000585604
0.000561721
0.00400503
0.000559381
0.000148926
0.00131071
0.00953723
0.00679061
0.00672246
0.00604201
0.000471927
0.00226081
0.000482536
0.000560119
0.000171987
0.00275841
0.00409411
0.00144203
2.40017e-05
0.00578882
0.000197974
0.000224368
0.000884695
0.000622734
0.000437551
0.000779732
0.00177785
0.000266841
0.0028754
0.00079781
0.0015385
0.00241139
0.00142002
0.00133726
0.00163474
0.00115945
0.00671643
0.000514477
0.00673473
0.00314203
0.00481832
7.88354e-05
0.00672253
0.000527357
0.00101306
0.00672245
0.00672601
0.00671828
0.00360519
0.00237115
0.00836571
0.00100872
0.00193392
0.000305988
0.00672578
0.00672612
0.00847078
0.00672634
0.00672279
0.000277481
0.00672033
0.000227182
0.000309911
0.00672279
0.00567717
0.000434956
0.00138028
0.000794773
0.00663962
0.00240286
0.000202274
0.000788455
0.00672295
1.58708e-05
0.00174994
0.00206546
3.33073e-05
0.00251441
0.00116156
0.000600907
0.000891256
0.00203537
0.00429925
0.00427548
0.00322446
8.54013e-05
0.00672242
0.00648373
0.000563687
0.00044768
0.00674377
0.00021419
0.00846978
0.00321142
0.00418428
0.00282341
0.00287282
0.00418255
0.0067291
0.00672631
0.00712413
0.00126191
0.00909989
0.00540569
0.000235752
0.00335307
0.0067222
0.00673325
0.00120363
0.00672226
0.00154421
0.000961157
0.00275392
0.000348364
2.42491e-05
0.00671941
0.00856529
0.0113738
0.000232946
0.000250325
9.54222e-05
0.000529887
0.00188376
0.00101821
0.0103529
0.00109896
0.00152284
0.0031391
0.00422816
0.000588619
5.00972e-05
0.000394218
0.00106256
0.00129012
0.0039944
0.000396745
0.000432232
0.00156563
0.000110973
0.00192896
0.002873
0.00139153
0.0051278
0.00671855
0.00672041
0.0112687
0.0032229
0.00285498
0.000707061
0.000359957
0.0104845
0.00415876
0.000551907
0.000837568
0.00495304
0.0109443
0.0013684
0.00324148
0.000843669
0.00993919
0.00432647
0.00256268
0.0013424
0.00295664
0.00671764
0.00338051
0.00035878
0.0113319
0.00795903
0.00285908
0.00672252
0.000530974
0.00672597
0.00672509
0.00103012
0.00298493
0.000301108
0.000678216
0.0001554
0.00886444
0.000233906
0.0067224
0.000465011
0.000206306
0.00884697
0.00127307
0.000532343
0.000416737
0.00317349
0.000714554
0.00510038
0.00180086
0.00675576
5.11768e-05
0.0123713
0.000151856
0.00672025
0.00341839
0.00027518
0.000456065
0.00673381
0.000672293
0.00194899
0.0020536
0.00125645
0.00672398
0.00895084
0.00672632
0.000586568
0.00522336
0.000260241
0.00137239
0.000618433
0.00745095
0.000559347
0.00239725
0.00145352
0.00513248
0.0119305
0.0014375
0.00930672
0.00428395
0.000487782
0.00672589
0.000356103
0.000738785
0.000200513
0.0067225
0.000668528
0.000325349
0.00956748
0.00599704
0.00108669
0.000499165
0.000421246
0.000417812
0.00183303
0.00672149
0.00672332
0.0023552
0.00117226
0.00672294
0.000741782
0.00672173
0.00673622
0.00671884
0.00995432
0.0016442
0.00672565
0.000550977
0.000474963
0.00672045
0.00222033
0.00401133
0.00679326
0.000377602
0.000212697
0.00194911
0.00147275
0.000431324
0.000199765
0.000387618
0.00495526
0.00042349
0.0120053
0.000539372
0.000375683
0.00161567
0.0021363
0.00675341
0.00991904
0.000570855
0.00671841
0.00732656
0.00672264
0.00671876
0.000647124
0.00671938
0.000150975
0.0100655
0.00673264
0.00159665
0.00491798
0.000640938
0.0120425
0.00671886
0.0120976
0.00109947
0.00366303
0.0067284
0.00672355
0.000267477
6.98955e-05
0.00176009
0.000232209
0.0103956
0.000505337
0.00672284
0.000369574
0.001538
0.00109881
7.54165e-05
0.000258987
0.00156052
0.000908375
0.00026789
0.00178498
0.000380595
0.00671997
0.000875014
0.00236035
8.48546e-05
0.000411674
0.00243913
0.006888
0.0013179
0.00672375
0.000959311
0.00111898
0.00671894
0.000810202
0.00028535
0.000290334
0.000541686
0.000777924
0.00826298
0.00672235
0.00672408
0.00471527
0.00672317
0.000320232
0.000597752
0.00146263
0.00672277
0.000403396
0.00672843
0.00379465
0.00127593
0.000273823
0.000163826
4.1422e-05
0.000230396
0.00672258
0.000939719
0.00963329
0.00672089
0.000741068
0.00154789
0.0100726
0.000929582
0.0100731
0.00671998
0.000586074
0.00672586
0.000564825
0.00324341
0.00207011
0.00202993
0.00671968
0.00679121
0.00672054
0.00413894
0.000313409
0.00123985
0.0122195
0.00311353
0.00089327
0.000949939
0.000298329
0.00559526
0.00124423
0.00672546
5.72956e-05
0.00672123
0.00322009
0.000929765
0.00290094
0.00709627
0.000646983
0.000542844
7.40279e-05
0.00117465
0.00518905
0.000314888
0.00671886
0.000870689
0.0010563
0.00672357
0.0081689
0.0102724
0.00672243
0.00255598
0.000716562
0.00139279
8.1188e-05
0.000583777
0.0107
0.000234821
0.00671968
0.00673049
0.00885669
0.00338095
0.00370769
0.00103642
0.00318863
0.00372729
0.000683851
0.000504611
0.0125516
0.00060756
0.000629584
0.00168393
0.00671967
0.006715
0.00671946
0.00254647
0.00260459
0.000754114
0.00672276
0.00672477
0.00202154
0.00530525
0.000642013
0.000624397
0.000187611
0.00847471
0.000724844
0.000401834
0.000776419
0.0040122
0.000262761
0.00418871
0.00599836
0.000572994
0.00663293
0.00725022
0.00283027
0.0012718
0.000130376
0.0125334
0.00601182
0.000133489
0.000206199
0.00635854
0.00672045
0.000394429
2.29188e-05
0.000898516
0.0067203
0.0033317
0.000720546
0.00779519
1.94474e-05
9.92101e-05
0.00590024
0.0022202
0.000349002
0.000314275
0.00242063
0.00021518
0.00672252
0.00142102
0.000227106
0.00672057
0.00672211
0.00141252
0.000582631
0.00671941
0.00179824
0.00673591
0.000848551
0.000622089
0.00546439
0.00675012
0.000130908
0.00672454
0.000346665
0.000311772
0.000300867
0.00672265
0.00259609
0.000121655
0.000386968
0.000978297
0.00389387
0.000955855
0.00388653
0.00282369
0.0119805
0.000220762
0.000206227
0.00672244
0.000491728
0.00672236
0.000639304
0.00673435
0.000357986
0.00995003
0.00671889
0.00406111
0.0010669
0.00373134
0.00580984
0.00281285
0.00108789
0.00189158
0.00672313
0.0067346
0.00671997
0.000408142
0.00121797
0.000210969
0.00159671
0.00881887
0.0067305
0.00672926
0.00766026
0.00592742
0.00948562
0.00671814
0.000383273
0.000943668
0.0067271
0.00509224
0.00672227
0.00786789
0.00219779
0.00672376
4.33104e-05
0.000696129
0.00671987
0.000370376
0.000418258
0.00672221
4.40562e-05
0.00671946
0.000324924
0.00993628
0.00150703
0.00672768
0.000825043
0.00102687
0.000286371
0.000625928
0.000774438
0.00643308
0.00112933
0.000487024
0.00672332
0.00675798
0.0067214
0.00199859
0.000430974
0.00143291
0.00456506
0.000976284
0.00148824
0.00301033
0.000480201
0.00635146
0.00672863
0.00137587
0.000157351
0.00672435
0.00285338
0.00672232
0.00341396
0.00672906
3.0917e-05
0.0124649
0.00672281
0.00164468
0.00671879
0.00056352
0.00671924
0.00464873
0.000594684
0.00672568
0.00676239
0.00672282
0.00023213
0.00671938
0.00408202
0.0104642
0.00152148
2.53989e-05
0.000140754
0.0123671
0.000136384
0.00672247
0.0067253
0.000612569
0.00478974
0.000609868
0.000638676
0.000623298
0.000577651
0.00362461
0.000441071
0.00138095
0.00672195
0.000241235
0.00890398
0.000252257
0.00671908
0.0048112
0.0010164
0.00174795
0.000511826
0.00127382
0.0067229
0.00676088
0.00678572
0.000915524
0.00672272
0.00558136
0.0123646
4.26823e-05
0.00186441
0.00672498
0.000221872
0.000795497
0.00672249
0.000604462
0.000390229
4.74559e-05
0.000600565
0.00299029
0.0015497
0.000676394
0.00671928
0.000224335
0.00198459
0.000196989
0.000404471
0.000308321
0.00527802
0.000540993
0.0123479
0.0111047
0.000357065
0.000211956
0.00216486
0.0067228
0.00672288
0.00194052
0.00028538
0.00672326
0.000964531
0.000342159
0.000901586
0.00672004
0.00671959
0.00395822
0.00672586
0.000694997
0.00894906
0.000692499
0.00672341
0.00235005
0.000326018
0.00672282
0.0013018
0.00677049
0.00032403
0.00155539
0.0055973
0.010519
0.00016581
0.0123159
0.00324233
0.000462476
0.00552945
0.0074123
0.010911
0.00674026
0.000785309
0.000695985
0.00672228
0.00671916
0.00227571
0.00375295
0.00672165
0.000230418
0.000413021
0.00672008
0.000885804
0.00672275
0.0012715
0.000416535
0.0067231
0.0115734
0.00100002
0.00671964
0.000418206
0.000184639
0.000594406
0.00672613
0.00073737
0.0026773
0.0101957
0.00609135
0.0067369
0.00394681
0.00671785
0.0124595
0.0067198
0.000412566
0.00836066
0.00834671
0.00299267
0.00163366
0.00672222
0.00103119
0.000869474
0.000438649
0.00671449
0.00115717
0.00672262
0.00379866
0.00023261
7.24375e-05
0.000260475
0.00671997
0.00454568
0.000366401
0.00229437
0.000223783
0.00672917
0.00566643
0.00916282
0.00672171
0.00673782
0.00492268
0.0122495
0.00528978
0.00643414
0.0110384
0.00129609
0.00733022
0.00123217
0.00671691
0.00671869
0.00165505
0.00209988
0.00672489
0.00919651
0.00832663
0.00671955
0.00819111
0.000299799
0.00479296
0.00300762
7.72161e-05
0.00672448
0.00044529
0.000390555
0.00672008
0.000645454
0.00264693
0.000351003
0.00408222
0.00328867
0.000451976
3.13728e-05
0.000566927
0.00557051
0.00204548
0.00672148
0.000285775
0.00203674
0.00981301
0.00671809
0.00343864
0.00053665
0.00672578
0.000203497
0.0067177
0.0023483
0.0065781
0.000285119
0.000638571
0.000565544
0.000730657
0.00179479
0.0015521
0.000472665
0.000481881
0.00152598
0.00579771
0.00672344
0.00672298
0.00201308
0.00671863
0.000342947
0.000751581
0.000388153
0.00672013
0.00112264
0.00304971
0.00157988
0.00672014
0.000310533
0.00230961
0.00672732
0.00696472
0.0116787
0.00116329
0.00672265
0.00245254
0.000768303
0.00402102
0.000210304
8.66134e-05
0.00794801
0.000924806
0.0102786
0.00268604
0.00428493
0.00671949
0.0113469
0.00479445
0.00672173
6.37862e-05
0.00484812
0.00672358
0.00672259
0.00138859
0.000780614
0.00672359
8.25972e-05
0.00765533
0.00162662
0.00671868
0.00197155
0.010489
0.00679294
0.00142709
0.00672617
0.00671971
0.00416558
0.00672907
0.000561437
0.00381386
0.00439384
0.00550487
0.0067262
0.000787036
0.00672165
0.00471854
0.00334769
0.00553565
0.000443619
0.000512839
0.000209663
0.00152425
0.00323772
0.00672373
0.00672455
0.0092897
0.00472545
0.000446826
0.000134762
0.00924055
0.00671948
0.00672143
0.0102162
0.00672226
0.000164523
0.000332962
0.00218534
0.0114472
0.0106706
0.000297572
0.00182659
0.00090197
0.000935479
0.0067314
0.000494691
0.00672093
0.000213184
0.00672293
0.00602146
0.000526614
2.50251e-05
0.00010766
4.29655e-05
0.00672168
0.00713655
0.00672349
0.00989458
0.000571097
0.00671871
0.0067337
0.00526074
0.00042459
0.000145867
0.0112454
0.00112653
0.00571795
0.00671818
0.00478198
0.00196644
7.07561e-05
0.000346771
0.00672288
0.006722
0.000803254
2.50482e-05
0.00485689
0.000400202
8.7304e-05
0.00516269
0.00165609
0.0010455
0.000481518
6.64389e-05
0.00114215
6.99129e-05
0.00674916
0.00672194
0.00360335
0.00045269
0.000356209
0.00056895
0.00672571
0.00267965
0.000194608
0.000126111
0.00834826
0.00672621
0.00475382
0.0051819
0.000796255
0.00671689
0.00832948
0.000420534
0.00672043
0.000800887
0.00754022
0.00158497
0.00672005
0.000430518
0.00672571
0.0029748
0.000339482
0.00403371
0.00672601
0.00672318
7.36879e-05
0.00183332
0.00282372
0.00099245
0.00615823
0.000249382
0.00672541
0.00672675
0.000297234
0.00192918
0.00534547
0.004389
0.000231213
0.00395766
0.000463167
0.00631491
0.00204274
0.00482435
0.00345696
0.00966896
0.00673679
0.00826105
0.000178992
0.00645445
0.00483168
0.000421659
9.25821e-05
0.00672601
0.000408448
0.00672061
2.18458e-05
0.00671547
0.000715473
0.00283503
0.00672716
0.00883566
0.00293963
0.00348677
0.00148755
0.00732907
0.00672242
0.00672175
0.00575165
0.00590413
0.00677835
0.00672241
0.00215128
0.00672283
0.0067235
0.000515852
0.00672337
0.000457694
0.00675392
8.01983e-05
0.00330272
6.66496e-05
0.00684989
0.00160784
0.000514364
0.00672842
0.00671919
0.00307836
0.00310044
0.00809632
0.00383786
0.00672588
0.00672416
0.000994084
0.00672107
0.000316445
0.00063896
0.010649
0.0124324
0.00401252
0.00804448
0.0067834
0.00977283
0.00730705
0.011884
0.00064354
0.00216482
0.00135954
0.00673192
0.00707382
0.000505677
0.000458441
0.000884451
0.00357856
0.00672671
0.00671656
0.00645368
0.000460803
0.0032523
0.00671541
0.00131456
0.00672217
0.00180161
0.00256897
0.00500896
0.00978826
0.000700101
0.000644371
0.00511196
0.00033609
0.00672274
0.00588331
0.006774
0.00535502
0.00260677
0.00502356
0.000239322
0.00700277
0.000253713
0.000381312
0.00153015
0.000473293
0.00257805
0.00173785
0.00469108
0.00725712
6.99093e-05
0.0124618
6.26149e-05
0.000564722
0.000543292
0.00180364
0.00672854
0.000299243
0.00178931
0.00672271
0.00311049
0.00673956
0.00309213
0.00672342
0.00934879
0.000624348
0.0067194
0.00529838
0.00648801
0.00012433
0.000109844
0.000742307
0.0026921
0.00533542
0.00671898
0.00669067
0.000420708
0.000124062
0.00671502
0.010692
0.00103431
0.0114239
0.00672032
0.00307916
0.000166289
0.00672703
0.00672281
0.00487701
0.00604111
0.0114481
0.00147328
0.00671937
0.00201251
0.00672045
0.0113109
0.000493846
0.00672264
0.000564747
0.00540954
0.00189295
0.00800721
0.00676578
0.00672865
0.00672251
0.00677543
0.00672844
0.00341264
0.00671408
0.00198719
0.000689344
0.00052265
0.00671926
0.00234051
0.00150265
0.0103427
0.00164729
0.000214405
0.0103096
0.0113808
0.00477579
0.00111275
0.00672051
0.00571711
0.00134964
0.000635077
0.005789
0.000449802
0.000962842
0.00257526
0.00100509
0.00671987
0.0105398
0.000174363
0.00683913
0.00380779
0.000303516
0.00144502
0.00671793
0.00085405
0.000911417
0.00672767
0.00918619
0.00672243
0.00120381
0.00672073
0.000416423
0.000309756
0.000470307
0.000607045
0.000742941
0.000656171
0.000884613
0.00172724
0.00676168
0.00757158
0.000369123
0.00672571
0.000296507
0.000576795
0.000671432
0.00637541
0.00189551
0.00672323
0.00674602
0.00394025
0.00975142
0.00126228
0.00672245
0.0026318
0.00672275
0.00672116
0.000655278
0.01014
0.00205522
0.00255098
0.0117142
7.50137e-05
0.00412763
0.00251152
0.0112344
0.000528976
0.00671676
0.00144956
0.00288337
0.00325189
0.000924539
0.00169134
0.000768369
0.0003991
0.000105402
0.00435923
0.00675257
0.00671999
0.0107677
0.00672581
0.00128024
0.011552
0.00672319
0.00557014
0.00672593
0.00134962
0.000401433
0.00671963
0.000893341
0.00269568
0.00176313
0.000261662
0.00146931
0.00672155
0.00896349
0.00673749
0.000597374
0.000462528
0.000638098
0.00672257
0.00507622
0.0110586
0.0067194
0.00672001
0.00202816
0.000381575
0.000631649
0.000298977
0.000805204
0.00672936
0.0012837
0.00248421
0.00162363
0.0123961
0.0067235
0.000313357
0.0116819
0.000493836
0.00626378
0.000351861
0.00676187
0.00672413
2.93496e-05
0.000254606
0.000356765
0.00672489
0.00672968
0.000652257
0.000684233
0.0039275
0.00200989
0.00504783
0.00256548
0.00671911
0.00398862
0.0106256
0.00671644
0.00766837
7.32224e-05
0.000955612
0.00672902
0.00501441
0.00878376
0.00675177
0.00672651
0.00566529
0.0019952
8.82695e-05
7.89023e-05
0.000467919
0.00672148
0.00122562
0.000446961
0.00672615
0.00926996
0.000253051
0.00503615
0.000493228
0.000511239
0.00672263
6.02488e-05
0.00672308
0.000132823
0.00164282
0.00112695
0.00671484
0.00476626
0.00032172
0.00325919
0.0122511
0.00171642
0.00331179
0.00350054
0.00672001
0.00673069
0.0119474
0.0067258
0.000228691
0.00671955
0.00673422
0.00040907
0.00802593
0.00672
0.00672046
0.00444479
0.00166714
0.000749975
0.000907465
0.00674733
0.00201501
0.00671807
0.000313808
0.0122771
0.00205116
0.00093231
0.00748409
0.000651748
0.002211
0.000516127
0.00673037
0.00399633
0.00189944
0.00672262
0.00108945
0.00423664
0.00672922
0.00393704
0.0104908
0.00310614
0.000594445
0.0122071
0.00051898
0.00197057
0.00671925
0.00633188
0.00672588
0.000568777
0.00673942
0.000777268
0.000552845
0.00167999
0.00131327
0.00799972
0.00088778
0.0067245
0.0068588
0.00550726
0.00672051
0.000518075
0.00672004
0.000457556
0.00625121
0.000133741
0.000542303
0.0019311
0.00274268
0.0104873
5.56924e-05
0.00671859
0.00100098
0.00672189
0.00671801
0.00672752
0.00079466
0.00436144
0.00147876
0.0017008
5.0036e-05
0.00309041
0.0018448
0.0067206
0.000141784
0.00616435
0.00243913
0.00126754
0.0125832
0.00332719
0.000735714
0.000835588
0.00672951
0.00344073
0.00609692
0.00307294
0.0067266
0.00672648
0.00100169
0.0067198
0.00672586
0.000515738
0.0011059
6.66144e-05
0.00280529
0.00672018
0.0068409
0.0067208
0.000267682
0.00570474
0.00671683
0.000994211
0.0067269
0.0111365
0.00472916
0.000764728
0.00621029
5.3142e-05
0.000533319
0.0054701
3.05278e-05
0.00672257
0.000215499
0.00234049
0.00116428
0.0067247
0.00671984
0.00038915
0.000378571
0.00971031
0.000824152
0.000219188
0.000791817
0.00290592
0.00065393
0.00230097
0.0121267
0.0106657
0.00766752
0.00623255
0.00671438
0.00446424
0.00732872
0.0067228
0.00509344
0.00672288
0.000905906
0.00671483
0.00407928
0.00464031
0.0049051
0.000369989
0.000187225
0.000421758
0.00526899
0.00672404
0.00671657
0.00671934
0.00671795
0.00672539
0.0067207
0.0103886
0.00838327
0.00876525
0.00122453
0.00696054
0.000448292
0.0106301
0.00678098
0.000478458
0.00672206
0.00193242
8.33432e-05
0.00177
0.00764669
0.00302994
0.00181601
0.00671745
0.0018025
0.00938433
0.00672195
0.0109856
0.00484851
0.00672238
0.0105582
0.006728
0.000391921
0.00672308
0.00764028
0.00675545
0.00511721
0.00026597
0.00674153
0.00672282
0.00429461
0.00671856
9.05023e-05
0.00609684
0.000374831
0.00672102
0.00672425
0.00672737
0.00301778
0.000519959
0.00214622
0.0122714
0.00672255
0.00675038
0.000695525
9.58172e-05
0.0023137
0.010665
0.00890798
0.000917935
0.00843163
0.00672197
0.00349811
0.00149647
0.00675048
0.00886745
0.00863335
0.00671832
0.00204561
0.00521716
0.00215844
0.000558212
0.000853081
0.00672294
0.000488443
0.000221735
0.00059872
0.000863374
0.00672045
0.00258541
0.00600808
0.00672365
0.00469128
0.00671466
0.00672308
0.000630154
0.00296149
0.00075678
0.0113032
0.0067202
0.000204534
0.00399517
0.00364254
0.00251423
0.00672615
0.00672304
0.00672416
0.00672252
0.0067232
0.00180708
0.00307952
0.00297544
0.00672541
0.00199577
0.0109691
0.00296778
0.00222588
0.00969785
0.00672413
0.000987878
0.00605872
0.000520658
0.010529
0.000235344
0.0101247
0.000565803
0.00315182
0.00563211
0.00077754
0.00555385
0.000354017
0.00120966
0.00672452
0.00532402
0.0022394
0.00674367
0.000322103
0.00543873
0.00674265
0.0063384
0.000251827
0.00671966
0.00444974
0.00673911
0.00329861
0.00923107
0.002231
0.00672187
0.00495355
0.00672283
0.00137026
0.000176426
0.00159876
0.000225584
0.000189997
0.00672373
0.011138
0.00118779
0.00561444
0.00628664
0.00674579
0.00365324
0.00672022
0.00209678
0.00180955
0.00920633
0.00402395
0.00671952
0.0017432
0.00240261
0.000771172
0.00673047
0.00882619
0.000511512
0.000187178
0.000849249
0.0088269
0.000697727
0.00128277
0.00645504
0.00303369
0.00672107
0.00131843
0.00982755
0.00356596
0.000362513
0.00354178
0.00671983
0.000312825
0.000226125
0.000835548
0.00672633
0.000248592
0.00673078
0.000259866
0.000232931
0.00051433
0.00807776
0.00672089
0.000581274
0.000508393
0.0038372
0.000292643
0.00534823
0.00179419
7.53551e-05
0.000318212
0.00562449
0.00672632
0.00672465
0.000410088
0.00671873
0.00373864
0.00566022
0.00672167
0.00675323
0.000219901
0.00671488
0.000360466
0.0096085
0.0016567
0.00673715
0.00674659
0.00027793
0.000260321
0.00672278
0.00587283
0.000123857
0.00672878
0.00671693
0.0116426
0.00965722
0.00671879
0.000593296
0.000231392
0.00672254
0.00357904
0.00382135
0.000287215
0.00672474
0.00254095
0.00884265
0.00672531
0.000897165
0.00810225
0.000521656
0.00531638
0.00672491
0.000677169
0.0104012
0.00681581
0.00124365
0.000596437
0.00152169
0.000686745
0.00283205
0.00465149
0.0096053
0.0103387
0.00255068
0.00318155
0.000780002
0.00428536
0.000252456
0.00098348
0.00304826
0.00675604
0.00672362
0.00561128
0.00445023
0.00671884
0.0006475
0.00851723
0.000447031
0.00672647
0.00672245
0.0014129
0.00113229
0.00120803
0.00672288
0.000726644
0.00689897
0.00671862
0.00424999
0.000889785
0.000411877
0.00672253
0.000631772
0.00175236
0.00107291
0.000978366
0.000423142
0.00756899
0.000479121
0.000165661
0.00644639
0.00671881
0.00417187
0.00144932
0.01178
0.00103222
0.000603227
0.00672407
0.00869458
0.00070343
0.00673078
0.000826294
0.00192764
0.0100554
0.000430717
0.000871589
0.000179157
0.000776297
0.00672296
0.00672389
0.00672489
0.00135761
0.00883945
0.00173279
0.00672271
0.000315023
0.00481155
0.0116426
0.00501612
0.0125826
0.000933566
0.0109401
0.000573365
0.000144329
0.00424442
0.00672538
0.00671881
0.00850254
0.00441423
0.00126009
0.00308924
0.00671445
0.00344014
0.000324418
0.00516853
0.00177951
0.0067196
0.00508078
0.00667189
0.00109277
0.00536958
0.00589813
0.00672529
0.00146138
0.00169395
0.00188238
0.00377713
0.0048045
0.00183846
0.000611068
0.00240422
0.000279806
0.000259387
3.55019e-05
0.00040251
0.00673785
0.00381028
0.0015344
0.00944298
0.00542343
0.00672116
0.00672825
0.00674006
0.0067145
0.00385282
0.00671862
0.000213884
0.00760742
0.000894389
0.00946844
0.000707724
0.00672408
0.00672279
0.000100217
0.00672397
0.00243379
0.00672195
0.00642826
0.00177563
0.00671898
0.00268303
0.00673214
0.00625883
0.00672587
0.0067226
0.00644816
0.000287761
0.00191809
0.00506731
0.000285486
0.0067307
0.000812292
0.00080688
0.0014165
0.000335658
0.00183964
0.00672264
0.00972529
0.00282767
0.00223228
0.0019683
0.00673894
0.00034688
0.00672128
0.0124901
0.00673789
0.00596542
0.00908544
0.000451832
0.00208238
0.00671853
0.000475265
0.000230783
0.000364854
0.0109071
0.00671852
0.00673728
0.00673969
0.000134278
0.00121637
0.000576779
0.0067228
0.00119455
0.00708928
0.000377897
0.00672387
0.000131538
0.000561873
0.00364377
0.000945431
0.00230994
0.00170394
0.00161217
0.00599967
0.00242629
0.0114588
0.00674987
0.000542797
0.00579676
0.000139638
0.00990767
0.00735825
0.00450518
8.15909e-05
0.00672379
0.000778994
0.00672443
0.00199826
0.00193701
0.000334285
0.000298141
0.00672119
0.000682158
0.00184257
0.00032253
0.00056916
0.0116595
0.00672212
0.00213802
0.00686168
0.000235643
0.00543968
0.00116083
0.0112192
0.000587571
0.00671993
0.000177575
0.00328852
0.00698412
0.00672735
0.0106708
0.000672588
0.00676892
0.000243821
0.00262937
0.0067259
0.00292982
0.000700849
0.00671907
0.00184736
0.00671801
0.00266157
0.000380087
0.000389713
0.0020562
0.00799803
0.0067257
9.53161e-05
0.000328095
0.00214704
0.000925323
0.0019008
0.00320848
0.00672462
0.00881575
0.00831502
0.00351799
0.00675353
0.000708277
0.00672273
0.0102424
0.00672192
0.000496801
0.0071963
0.00309823
8.72297e-05
0.00363862
0.00057026
0.00766736
0.000570732
0.00672202
0.00672277
0.00672377
0.0116843
0.000684253
0.000305975
0.0117183
0.00289019
0.00672404
0.00757186
0.000370939
0.000308446
0.00672343
0.00587214
0.0054369
0.000576603
0.00299184
0.00153795
0.00675961
0.00672273
0.00671857
0.00853693
0.00787938
0.0009458
0.000263056
0.0014698
0.000549491
0.00672482
0.00672211
0.000704067
0.00268114
0.00672818
0.000576923
0.000157287
0.001224
0.000232246
0.00282829
0.000634964
0.0118678
0.00243474
0.00678173
0.00296498
0.012192
0.000322812
0.000146404
0.000654427
0.00620289
0.00491812
6.93234e-05
0.0016814
0.000410424
0.00725945
0.000425359
0.0100673
0.00660418
0.00761359
0.000804068
0.00184281
0.0067198
0.000479128
0.0116507
0.00672258
0.000310123
0.00604081
0.00672251
0.000509487
0.000228126
0.00058471
0.0063458
0.00212776
0.00224431
0.00672245
0.00677274
2.44466e-05
0.00280428
0.00352294
0.00216773
0.00671935
0.00672352
0.00294121
0.00526127
0.0067262
0.000883395
0.000508034
0.00118812
0.006722
0.000327889
0.00335833
0.010595
0.00129169
0.00306131
0.0010798
0.000180656
0.000231139
0.0032807
4.75755e-05
0.000240233
0.00673629
0.00631642
0.00186967
0.00152892
0.000471744
0.00883072
0.00672432
0.00050033
0.000246375
0.000247309
0.00390259
0.00042854
0.0102289
0.000486543
0.00918192
0.000540194
0.00915162
0.00103318
0.00610579
0.00248129
0.0109896
0.0108335
0.000553795
0.00230448
0.00627087
0.00442149
0.00939606
0.00672129
0.00671724
0.000437639
0.000573273
0.00753206
0.00253804
0.000199147
0.00671745
0.00485664
0.00672432
0.00789463
0.000564913
0.0107032
0.00191401
0.00197004
0.0003066
0.0078079
0.00128593
0.010019
0.00672642
0.00672401
0.000642892
0.00672325
0.00928014
0.000266035
0.0102595
0.00271565
0.00647063
0.00362986
0.00671466
0.000261109
0.00793577
0.000148217
0.00671735
0.00184972
0.00672029
0.0107062
0.00671522
0.00182912
0.0101929
0.00113228
0.000156731
0.000473776
0.00671699
0.00200397
0.000328842
0.00345004
0.00675537
0.00671809
0.00110839
0.0058262
4.94038e-05
0.00672343
7.62375e-05
0.00615451
0.00672277
0.0046876
0.0057612
0.00682356
0.00478574
0.00672263
0.000481818
0.0069941
0.00672888
0.00672317
0.00242259
0.00150416
0.000934428
0.00671791
0.00777076
0.00320986
0.00983515
0.00672035
0.0080947
0.00438748
0.000607652
0.00611775
0.000315665
0.000333538
4.51739e-05
0.00865257
0.000157144
0.00233616
0.00828343
0.00186852
0.000841328
0.000618308
0.000674936