/*--------------------------------*- C++ -*----------------------------------*\
| =========                 |                                                 |
| \\      /  F ield         | OpenFOAM: The Open Source CFD Toolbox           |
|  \\    /   O peration     | Version:  v2012                                 |
|   \\  /    A nd           | Website:  www.openfoam.com                      |
|    \\/     M anipulation  |                                                 |
\*---------------------------------------------------------------------------*/
FoamFile
{
    version     2.0;
    format      ascii;
    class       volScalarField;
    location    "250";
    object      ddt0(omega);
}
// * * * * * * * * * * * * * * * * * * * * * * * * * * * * * * * * * * * * * //

dimensions      [0 0 -2 0 0 0 0];


internalField   nonuniform List<scalar> 
18355
(
0.00358101
7.76206e-06
1.10651
1.82508e-05
0.000999562
-0.00390329
-2.45655e-05
0.000860614
1.69788e-05
0.106286
0.000280666
-0.000658919
0.00338336
0.0172731
1.462e-05
2.23416e-06
2.0157e-05
-0.000135859
0.00145699
-1.08214e-05
0.000770373
3.29246e-05
9.09632e-06
-0.0148498
9.29043e-06
0.000105909
-3.81983e-05
1.74955e-05
1.69025e-05
0.000314525
-0.206945
0.00148536
-3.79994e-07
1.99593e-06
5.49925e-05
5.57662e-05
-0.000127934
6.46318e-05
0.000358837
-3.35923e-05
3.28224e-05
0.000318963
2.35067e-06
7.29903e-06
7.66177e-06
-0.746618
1.48631e-05
1.4618e-05
-0.140342
-1.4919e-05
-2.60737e-05
-0.982465
-1.58077e-05
-0.00198007
1.6143e-05
-2.48373e-05
-7.90029e-06
-0.130739
0.000112051
-0.174512
2.20185e-06
-0.00552819
-0.000754347
-3.78197e-05
0.000276758
-2.00568e-05
0.000207132
-0.000103065
8.88568e-07
-0.373101
-1.60504e-06
1.45366e-05
0.00163057
-0.000166342
0.104677
1.0873e-06
-0.530024
1.13397e-06
-1.9643e-07
0.0696622
0.000208791
0.0352823
1.01094e-06
0.000346077
0.000630737
-2.77024e-05
3.20571e-05
0.000386491
1.10939e-05
0.000436262
0.0971889
-0.0485162
0.0228618
-1.55851e-05
-0.0168895
-1.35166e-05
1.25028e-05
-0.000119508
-0.00522495
2.24676e-05
0.000660418
5.96216e-07
-1.43547e-05
-3.70154e-06
0.00024364
2.43634e-06
0.000397194
0.0740415
1.19728e-05
2.22705e-06
4.18634e-07
-5.63725e-05
0.00119623
0.000315073
0.0294164
0.000726389
1.95083e-06
0.124614
0.000125541
0.000186894
-0.330698
1.43579
0.0696034
0.000244199
0.103455
-0.609218
-3.28995e-05
1.90338e-05
-0.00484821
1.57797e-05
1.24814e-05
-0.504486
8.2145e-06
-0.00743306
-0.000603071
1.0882e-05
0.00239503
-0.150342
2.34297e-05
-0.0544584
0.000114583
0.000160528
1.29938e-05
-2.68614
-0.000762053
3.02325e-05
-0.215075
-2.31861e-05
0.00116425
0.00218293
1.73135e-05
0.000184122
-3.88811e-05
-0.000404021
2.50365e-06
8.89642e-06
1.81202e-05
-2.84562e-05
1.42704e-05
8.97456e-06
-6.95531e-05
5.03129e-06
2.21594e-06
1.64227e-05
-9.77754e-05
0.098315
-0.219778
0.00251096
-0.0268099
0.000116578
-4.74342e-05
-0.00676588
-3.69465e-05
-0.139249
1.92831e-05
3.46525e-05
-5.25908e-05
-7.21444e-06
2.94993e-05
0.000783176
-1.58339e-05
0.078032
2.08431e-05
1.50858e-05
0.0495121
-1.48831e-05
-5.34776e-07
0.000606247
2.31015e-05
-4.51033e-05
-0.943706
-0.00547723
8.8019e-06
-2.28634e-06
2.85069e-05
0.0698099
-1.36091e-05
0.00455224
8.70308e-06
0.00570428
-1.35759e-05
-0.00016875
0.000324058
-1.01857e-05
-0.014362
1.65759e-05
0.00964211
1.54332e-05
3.70153e-07
1.83071e-06
2.00916e-06
-0.00162933
6.21144e-05
2.33849e-05
-2.90767e-05
-0.0936272
0.000805012
-4.86588e-05
1.44178e-05
1.48856e-05
0.00010337
-1.4336e-06
0.000299366
-0.00409383
-0.0088781
-0.000340406
-1.75728e-06
-0.142941
-0.00307273
0.00136899
3.19849e-05
0.000239258
0.116497
-1.7531e-06
-0.000455139
-0.000940601
2.51505e-05
-0.743354
-8.84961e-05
7.47878e-06
8.85616e-06
3.03614e-05
-6.54601e-05
0.00123785
1.56917e-05
1.70053e-05
1.53505e-05
0.00107125
0.00136018
-5.28767e-06
-0.000255121
0.00301239
0.0118751
-0.00538934
-5.81119e-06
0.0283405
-7.86286e-05
2.80495e-05
-0.000563645
1.26433e-05
0.002454
-0.0927921
-0.00487372
-0.000518231
0.000409581
0.000535697
0.000554205
-0.00584591
1.2681e-05
1.68382e-05
-7.04217e-05
2.39972e-06
-0.000170014
-5.02648e-05
1.69787e-05
6.08889e-06
0.000141038
1.11585e-05
-0.000682998
-0.110034
-0.000142774
5.51728e-07
0.000810483
2.50219e-06
0.000194349
1.44841e-05
0.000891977
3.28144e-05
0.000802296
-0.0115257
-2.92743e-08
-0.00253327
0.000113486
0.000249584
0.000562676
1.73373e-05
-1.91692e-06
-0.000552041
4.27781e-06
0.000387835
-0.000176283
0.949428
-0.000236469
-0.00490831
-0.00017131
0.000377286
-8.90332e-06
-3.95753e-05
-0.000505986
-0.00249024
0.102576
0.522787
1.62513e-05
0.000143903
-0.00134166
0.00091534
1.68696e-05
1.4537e-05
1.62417e-05
-0.00282872
0.704606
-0.0648246
0.115052
0.000151082
8.25708e-05
0.000877806
-1.70575e-05
1.70224e-05
8.71048e-05
1.23338e-05
0.00135748
5.57687e-05
0.0119321
2.07848e-06
0.110427
3.03043e-05
-2.66097e-05
-0.000199131
0.00378523
-0.0148225
0.0012318
0.101398
1.02308e-05
1.16723e-05
1.23383e-05
0.000112845
0.180035
1.17653e-05
2.51081e-05
-0.00186138
1.14528e-05
1.06393e-05
0.0110152
0.0001159
1.53289e-05
2.67759e-05
0.00100062
3.0348e-05
0.00103254
-4.95675e-06
2.45772e-05
1.91139e-05
-0.137391
0.0621492
-4.67939e-06
1.30933e-05
0.00059089
1.62364e-05
-4.80535e-05
-0.00102256
0.0463655
0.000426976
1.2416e-05
2.71738e-05
0.00230165
3.25414e-05
0.0161858
-4.27626e-05
1.00306e-06
0.000187082
0.000969099
1.3264e-05
2.46516e-05
-0.000124251
2.16259e-05
0.000179579
2.81241e-05
0.00238915
-4.67901e-05
0.00014855
-3.11083e-05
1.5259e-05
-0.000159214
-7.94775e-05
-0.00544046
-0.281574
0.056826
6.80375e-05
0.0120869
-7.72022e-05
2.64508e-05
6.8798e-05
-0.00218231
2.17707e-05
0.000712871
-1.38891e-05
-9.18094e-05
0.00124057
-0.000767012
-0.0092521
-0.00447892
-3.60024e-06
-0.270935
2.36091e-05
1.70659e-05
-0.465435
2.82221e-05
1.42546e-05
0.000117874
-0.00035946
2.43623e-05
-0.0067144
-0.0933867
-0.00456646
2.6101e-06
8.86068e-06
-0.00489158
0.000126787
1.73163e-05
0.118742
-0.128886
1.67564e-05
-0.00226082
-0.0056004
8.4105e-06
-2.44877e-05
0.00115911
-0.162044
-0.000719817
1.03863e-05
-8.52489e-06
-0.00152514
1.98859e-05
1.51981e-06
1.69298e-05
-0.00666089
-0.245672
1.02738e-06
-1.66419e-05
2.90876e-05
0.00837497
0.000918402
-3.10283e-06
3.5419e-05
9.40121e-05
1.48036e-05
-0.000163607
-0.00583185
2.50914e-05
2.16653e-05
-0.000645172
-0.00486989
0.69656
1.17252e-06
0.00706856
2.35037e-05
1.08538e-06
-0.000218545
0.000142415
0.00420064
0.0015956
0.000165521
-0.000165307
3.35538e-05
0.00347057
0.000143991
-0.00043229
1.84839e-05
1.34722e-06
1.95354e-05
1.27189e-06
-0.00653288
-0.270615
-0.00041537
-0.000147622
-2.72338e-05
1.76746e-05
-3.52144e-06
-0.000168483
-0.000303392
1.40283e-05
1.8653e-05
2.91306e-05
8.4828e-06
-0.000310711
0.94982
-0.00750569
-0.00243384
1.27422e-05
-2.95381e-05
0.00112317
2.71756e-05
0.00508176
3.34525
0.000147491
0.000370071
-0.000225325
5.67033e-05
0.000134123
-0.298841
0.000762739
5.68619e-05
0.00987888
2.36888e-05
-0.0168631
-0.207404
-0.00013187
-2.71331e-05
-0.290675
1.69154e-05
-0.00603172
0.00139822
-0.0449869
0.000143647
1.86912e-05
1.38725e-05
0.105246
0.578447
-0.0413292
-0.0545958
-0.000175112
1.39013e-05
0.0003353
1.70176e-05
9.40653e-05
-0.0751829
-0.0834282
-0.314684
-0.10901
0.000284456
0.00148446
0.00134046
1.48653e-05
1.32405e-05
0.000312095
-8.49301e-05
1.42656e-05
1.7629e-05
0.209768
1.25832e-05
-0.11954
0.000167165
-0.0072108
-0.00317748
1.30782e-05
0.000322112
0.00543978
1.82134e-05
-0.4907
2.40457e-05
-0.0142494
0.000793503
3.20907e-05
0.00129006
-0.00601353
-0.00401614
-1.03522e-05
6.48255e-08
-0.00129183
-0.000153496
-0.00734479
2.32389e-05
-0.00537788
1.25468e-05
2.58317
7.55521e-05
2.00211e-05
0.365928
0.000121749
-0.000465911
9.01903e-06
0.000426784
0.000225183
0.0140845
-0.12921
6.99604e-05
0.000443439
-4.12435e-05
0.000810788
1.05383e-05
7.038e-05
-0.0875949
8.36507e-06
0.0622956
-4.53051e-06
-4.54615e-05
0.000162723
0.00480686
-0.000127463
0.000175133
-3.06423e-05
-0.00134657
-0.0685206
-2.22795e-05
1.54195e-05
0.000319311
0.000600053
0.86739
0.00157393
-2.27539e-05
1.85639e-05
-2.84592e-06
-0.000158719
8.63086e-06
-0.000667455
-0.00147232
-0.0351305
1.93864e-05
-0.0851519
-0.100687
0.000160668
1.85
1.58025e-06
-0.00680991
0.00678031
-4.82503e-05
-0.0583221
-0.00183003
-0.0968492
0.017621
2.68772e-05
-2.16372e-06
-3.45746e-05
0.0596866
-0.00281786
1.41658e-07
2.04652e-05
-0.0031576
2.06108e-05
-0.00208982
-1.04952e-05
-0.00150205
-0.458058
0.0934793
-0.00111123
-0.00481238
0.000731121
-0.562642
0.000363744
1.27888e-05
0.000625733
0.0257464
-0.000559378
-0.00234853
9.93788e-07
-0.00305143
2.84114e-05
-1.76723e-05
3.29632
-4.86752e-05
0.000707029
0.00117903
-0.00014068
1.62349e-05
2.36104e-05
0.000181331
0.000484219
-1.53313e-06
0.000220375
0.00151332
-0.000688089
0.000138588
1.1276e-05
0.000327019
-0.0768585
8.80578e-06
0.00277372
0.0396595
1.40219e-05
-0.0252113
-4.89358e-06
1.09755
1.63336e-05
0.00011045
0.374988
0.000166317
-0.247149
0.000127772
2.35281e-05
-0.0332851
1.57226e-05
2.68051e-06
2.73607e-05
1.23449e-05
0.000770053
0.000301336
-0.022226
2.21564e-07
-0.429238
0.000149971
0.0108477
-0.10058
-1.7794e-05
1.21444e-05
0.000418997
2.0796e-05
-0.00488595
1.3965e-05
2.25677e-06
2.44304e-07
1.80326e-06
1.81109e-05
1.59235
-0.000102099
-0.00282791
-1.01147e-05
0.000138643
-5.65423e-05
-0.00029376
-0.0621587
9.62904e-06
-0.00615727
0.000303345
-2.10515e-06
-0.0680285
-0.368216
-2.99292e-05
0.00375821
-2.47205e-05
0.0816066
-0.00140083
-4.88056e-05
-0.00131731
0.000550199
0.00824074
-3.37552e-05
-6.63814e-05
0.0534876
-0.00077928
-0.00263472
1.80453e-05
-0.189519
-0.00415266
-0.00380314
2.26021e-05
5.32412e-05
2.88255e-05
3.98444e-06
1.60394e-05
5.29776e-05
7.62213e-06
0.0100439
8.02336e-05
1.01628e-05
1.92349e-06
5.80151e-06
4.93156e-06
-3.35755e-05
-0.00446731
4.37687e-07
0.000491845
-1.76312e-05
-2.16505e-05
2.40425e-05
1.41026e-05
0.000520904
1.46203e-06
1.29921e-05
-3.61645e-07
1.36851e-05
-8.91565e-05
0.000570433
0.0178647
-0.084985
8.50513e-05
1.24401e-05
-0.00554495
2.13512e-06
1.53443e-06
0.000653315
-0.00323669
-7.91128e-05
0.000451792
1.31529e-06
8.99427e-06
-0.00010414
8.70373e-07
-0.00016496
1.53705e-05
1.52989e-05
1.5666e-05
5.50028e-05
0.00427201
1.2782e-05
2.82372e-05
1.88756e-05
0.0214547
-0.0678906
-0.000239376
6.92603e-06
-2.38349e-05
0.000159996
2.99524e-06
-0.277689
-1.45951e-05
-0.0234957
3.05603e-05
-0.092324
3.97217e-05
3.76629e-07
2.72761e-05
-0.0237649
1.52197e-05
-0.000293745
0.00403867
0.0238
0.00158247
3.18408e-05
1.0948e-05
3.80926e-05
9.1094e-06
-0.000513406
-0.00777121
0.00925663
-0.0021087
1.46716e-05
4.60629e-07
4.04521e-05
1.54544e-05
5.3418e-06
2.57749e-05
-0.00279463
0.000126298
-0.000815501
1.38701e-05
1.60609e-05
0.00147722
1.75202e-05
0.00956284
-0.00221085
0.00054697
0.0029925
-0.177297
0.000347166
1.45681e-05
4.44611e-07
1.77262e-05
2.48447e-05
-0.380805
-0.00286242
-0.00528709
1.21273e-06
1.2919e-05
0.000166106
2.99123e-06
-0.264614
-0.0311685
1.24492e-06
1.17647e-05
-2.38829e-05
1.60518e-05
1.18699e-05
2.80877e-05
0.414098
1.41797e-05
5.23851e-05
1.24811e-06
1.05333e-05
1.64933e-05
3.6565e-06
-0.000224778
1.03648e-05
-0.000119066
6.18482e-07
-0.00552826
1.55788
-0.000195729
0.00349874
8.59023e-05
2.22988e-05
-0.00587581
-0.0191537
2.95168e-05
6.48988e-06
9.55499e-06
-0.00243127
-3.44688e-06
0.000324144
0.0302051
3.09981e-06
7.87863e-05
1.54727e-05
-0.0907098
0.0999917
-1.75845e-07
-1.0265e-05
-0.000114561
-0.000284128
1.34234e-05
-0.00455137
1.38381e-05
-1.25771e-06
8.08209e-05
0.000514055
-0.0776696
0.145885
0.707836
-1.32074e-06
0.0290244
-0.00138479
-7.04682e-05
1.02494e-05
-0.00160195
0.000148372
0.00546763
-0.000168368
5.52263e-06
-9.98819e-07
1.5788e-05
6.30319e-06
-1.84571e-06
0.00629515
0.14194
2.91423e-06
1.53161e-06
1.1306e-05
-0.00155617
7.31076e-06
2.41529e-05
-0.00181415
-7.1495e-05
4.94643e-05
0.102756
-0.00786478
-0.00807487
2.56968e-05
2.01965e-06
2.60982e-06
-0.000294729
0.000190022
-0.000462902
1.09372e-05
5.64643e-06
4.61641e-05
-0.20061
8.88185e-06
1.93991e-05
-0.00377506
1.06654e-05
1.26085e-05
1.73699e-05
0.0884158
2.29724e-06
1.5956e-05
8.8593e-06
0.000643392
2.52403e-06
0.000184632
0.00524014
1.88156e-05
0.00106293
-5.74214e-06
0.120826
-0.00405319
1.64943e-05
-4.31161e-05
1.11108e-05
1.26926e-05
1.75404e-05
-0.372119
0.0220693
4.96308e-05
-0.000151391
-0.00524015
-0.00627133
-7.56506e-05
-0.00780264
0.00531893
-7.4914e-05
-6.42434e-06
-0.0783854
1.64885e-05
-8.14594e-06
-9.21429e-06
1.01291
-0.141227
-0.0274635
1.22326e-05
-0.00602613
-0.00345504
0.000128324
0.000480547
0.000237205
0.000165808
-0.00122162
0.0635899
-8.58357e-05
1.4654e-05
0.000208833
-0.624052
1.94999
8.59529e-06
-3.50452e-05
1.30026e-05
-0.100802
-0.000197716
-2.6655e-05
-0.0146943
0.000180185
0.00164965
0.000228702
-0.000326112
1.19507e-05
-0.0639249
4.26031e-05
-1.68694e-05
1.42181e-05
7.03044e-05
-1.53498e-05
1.16021e-05
1.1397e-05
2.81738
4.79965e-06
-0.086224
-0.000107042
1.75848e-05
-1.41398e-05
-0.00791354
1.09686e-05
-1.23536e-05
0.000224479
-0.224306
0.00308447
0.000165441
1.63113e-05
-0.0501553
1.13073e-05
-0.000321677
1.2358e-05
-0.0291473
0.000665913
-0.00613618
0.000472944
1.86795e-05
-0.000236692
-0.136413
-0.0648398
8.93824e-06
1.67602e-05
-0.00164506
-0.250556
-1.68721e-05
-0.00253371
-0.000111292
-0.00014106
1.12141e-05
-2.86962e-06
-5.51982e-05
4.89592e-05
-2.4356e-06
0.00165143
0.00153871
0.000180499
0.000903994
-0.0770449
5.59559e-05
0.0247956
-1.81949e-06
-0.00451811
-0.0927932
0.022537
-2.71461e-06
-5.35445e-05
1.13501e-05
0.838752
1.53523e-05
1.00019e-05
-0.00648604
4.91756e-06
1.38646e-05
3.13582e-05
4.18368e-05
1.37517e-05
-0.111184
-0.0045356
-0.00557664
1.24683e-05
2.43226e-05
-0.00423936
2.44006e-05
0.0247201
-2.84433e-05
1.03986e-05
2.33177e-05
8.92074e-05
-0.0476466
0.000142526
1.10462e-05
-0.00272817
-4.62275e-06
2.56086e-05
-0.00152681
-0.134283
0.0435053
1.58239e-05
-9.56935e-06
-0.737641
0.0116298
-0.00258525
-0.000448814
-0.0011585
0.0531472
-5.66878e-07
0.000523611
-8.10533e-05
-0.412575
0.000216005
2.78051e-05
-7.62415e-05
3.45306e-05
-0.130165
1.32695e-05
-2.3208e-05
-0.10267
0.000155738
0.0212307
2.92336e-05
0.000103605
-7.80222e-06
-3.7973e-05
1.30637e-06
-6.81606e-05
1.48128e-05
1.83697e-06
3.04309e-05
1.29218e-05
-0.00236631
-0.000103666
-0.000294378
-1.53087e-05
-0.00010596
1.56985e-05
-0.0106426
-3.18947e-05
-7.24373e-05
-3.23326e-05
2.52773e-05
5.0588e-06
0.000436336
2.60558e-05
7.72512e-06
2.68263e-06
1.18161e-06
0.0631139
-0.0282683
3.19412e-05
-0.126225
-0.00124526
-1.95705e-05
1.83703e-05
5.1528e-05
-0.0154789
8.87744e-06
-4.65206e-07
2.82973e-06
-2.25116e-06
-0.0153978
3.74988e-06
3.7868e-07
0.00358793
8.60016e-08
-8.58385e-05
0.00138042
0.00219066
-0.00342984
0.00434744
0.220727
1.53846e-05
-0.0112573
0.000151762
1.01004e-05
8.09926e-06
-0.000338345
1.41789e-05
0.000521531
-0.00460854
-0.000107907
-2.02837e-06
1.79081
0.00481479
-0.0106931
0.626664
-0.184255
-0.00190867
-8.04539e-05
2.70041
-0.026032
2.00462e-06
-0.0120555
1.21801e-05
5.58518e-05
0.00186829
1.63731e-05
-0.08229
0.000442673
0.000125711
9.19084e-05
-0.00145145
1.57843e-05
-0.00869174
1.29198e-05
1.93154e-06
-0.0124256
-9.50972e-05
-3.06178e-05
2.07907e-05
-0.00365345
2.23063e-05
2.90432e-05
0.000142236
-0.0326268
2.84966e-05
5.89691e-06
2.2217e-06
0.000149278
1.52499e-05
5.62146e-05
0.0419795
1.30976e-05
-0.00022451
2.08982e-05
0.00010172
0.000144393
1.63884e-05
2.1606e-05
-0.00581168
-2.02096e-05
3.62341e-06
0.000179396
-0.00109553
9.3302e-05
1.91352e-05
1.98581e-05
-2.88763e-05
-0.00362671
-1.4012e-05
1.922e-05
1.52607e-05
9.16322e-06
-3.81076e-05
-7.40822e-06
0.000283954
-0.000667196
-0.00421045
8.38755e-06
0.0307594
1.587e-05
-0.00206214
-0.110428
-0.00238535
-1.8744e-06
-0.00525135
-0.00222293
1.92477e-05
-0.216731
-2.57274e-05
-7.2289e-05
2.36398e-06
0.00769144
-5.70947e-06
-5.00552e-06
1.935e-06
0.0236212
-0.00566653
-1.54403e-05
-0.00662493
2.12008e-06
2.57317e-05
1.32996e-05
0.0187783
-4.70113e-05
1.1385e-05
0.00127717
0.000110153
1.74492e-05
4.04497e-06
7.66602e-06
-3.71236e-05
-5.12169e-07
1.12733e-05
-0.000111418
2.35789e-05
0.00343268
-0.00598074
2.63364e-06
-6.25944e-05
-6.61721e-05
1.25743e-05
1.44425e-05
-6.33432e-07
1.73373e-05
-0.000451491
-0.000105026
0.00113653
0.00109199
-2.23419e-05
-0.00507497
0.00735876
1.02071e-05
-4.88405e-05
-0.00763193
-0.00012277
-0.000750157
2.45428e-06
-0.000166253
9.36119e-05
0.000832424
0.000405971
-0.000177907
1.64452e-05
-0.0037056
6.62038e-06
-3.71911e-05
-7.27669e-05
-0.000334845
2.03038e-05
-5.64398e-05
0.000299227
-1.52214e-06
-0.318026
0.0341014
7.9101e-05
-0.000209778
0.000494097
4.21098e-05
0.000796309
3.88845e-06
-0.000523525
-0.0505125
-0.105409
0.00112335
-0.00605488
1.7485e-05
6.81931e-06
0.00057697
-8.11034e-06
-0.0182041
5.73627e-05
-5.96403e-05
6.01206e-06
-0.000109531
0.00162582
1.3504e-05
8.80879e-06
-0.0730905
2.29023e-05
1.11974e-05
-0.00170099
-0.00367758
2.01303e-06
-0.0041106
3.32171e-06
-0.00109159
-0.004309
1.57061e-05
1.64395e-05
-0.000253725
-1.69104
1.02609e-05
0.000252137
1.68138e-05
1.58175e-05
1.21714e-05
0.00681989
2.95979e-05
1.90721e-05
-4.47732e-06
-0.00325255
0.000212347
9.79004e-06
1.14328e-05
-0.00560715
1.43939e-05
8.91434e-06
-0.0199433
-0.227371
2.0778e-05
0.174875
-0.000380704
-0.00288143
-9.18207e-05
-0.00491249
-0.233318
0.000240316
-0.00055081
9.41511e-07
0.000166053
1.11348e-05
-0.0598154
0.0168091
9.68018e-06
8.80717e-05
3.66335e-06
2.47033e-05
2.64524
1.12404e-05
-1.69323e-05
9.49633e-05
0.00670286
1.60276e-05
1.45898e-05
-9.53864e-05
-0.15774
2.16767e-05
1.2856e-05
3.9544e-06
7.50989e-06
0.000144298
-0.00226878
-2.41929e-05
1.41498e-05
3.506e-05
2.4888e-05
8.42017e-07
-0.435372
-2.16177e-05
-7.53964e-06
1.49861e-05
-0.00496918
5.01159e-06
9.53672e-06
-0.000592388
2.95391e-05
0.000877431
8.87303e-06
1.5612e-05
0.0939065
0.0185156
-0.097073
-0.019943
-7.25975e-05
7.79372e-05
-0.105678
1.29989e-05
-0.00012183
1.8031e-05
0.00874403
-4.40997e-06
0.000185248
1.59373e-05
-0.149799
0.00157404
-0.00175741
-0.081817
0.000103568
8.47415e-05
2.09495e-05
-1.33481e-06
2.65809
-0.00119975
1.94727e-05
3.18238e-06
0.000125731
4.82193e-05
1.94652e-05
3.46292e-05
1.27983e-05
2.8447e-05
0.0268712
0.000566438
2.1933e-05
1.48967e-06
-0.162425
0.00141982
-8.89242e-05
-4.92374e-05
7.67996e-05
-6.43874e-05
2.22813e-05
-1.08582e-05
0.00901624
1.47243e-05
3.50273e-06
1.15124e-05
0.00635284
0.00123533
0.000149454
9.80207e-06
5.79077e-05
0.000475326
1.64304e-05
0.000496306
0.000605661
-0.00114476
7.83363e-05
-0.014914
3.04708e-06
1.34132e-05
1.77383e-05
5.41568e-05
2.1941e-05
1.25414e-05
0.0358374
1.72923e-05
0.0612295
-2.82104e-05
1.31797e-05
6.87313e-06
0.00125306
4.15616e-05
-0.00252675
-0.000374065
-1.90797e-06
3.15701
0.000642662
2.29763e-06
6.0124e-06
-0.139744
0.363861
1.27928e-05
9.10657e-06
-4.30707e-05
-1.91412e-05
0.0292892
-0.00137973
0.000710791
1.04522e-05
0.00470297
-0.151136
3.78284e-05
2.34249e-05
3.95334
5.97585e-05
0.0628875
-5.24987e-05
1.31189e-05
-0.00543569
-0.00198725
0.0535366
0.000748126
0.207662
4.16056e-06
2.39435e-05
-2.66349e-05
2.82337e-05
0.000112867
1.32329e-05
1.3166e-05
1.23283e-05
-4.20554e-05
0.000383354
0.000436883
-4.69221e-05
0.000111321
1.15173e-05
1.55784e-05
-1.13684e-05
0.000661812
-0.000213859
1.4805e-05
1.4426e-05
0.0104036
0.000492677
0.000428551
8.97019e-05
0.0035178
1.00276e-05
-0.00190555
3.21322e-06
1.55983e-06
-3.7602e-07
0.201324
0.00165812
4.38414e-05
-0.000161618
0.000182214
-4.15913e-05
1.37461e-05
0.000662562
0.00189122
1.93515e-05
-0.00758697
5.2298e-06
2.11195e-05
0.000373612
-3.08748e-06
-0.000489613
0.00510789
-0.632667
-0.00138545
2.01628e-06
3.00008e-05
2.15798e-05
0.0147772
2.88955e-05
-0.106369
1.23894e-05
1.56672e-05
1.87001e-05
-0.00675205
2.08336e-05
1.47462e-05
7.72989e-06
0.00232721
9.368e-06
0.329023
5.90091e-06
-0.000876132
2.91138e-06
-0.00061565
1.77151e-05
5.05559e-05
0.270475
0.000883697
2.08255e-06
0.000631688
1.43394e-05
-5.32176e-05
3.02496
0.210144
3.89308e-06
1.74636e-05
-7.49214e-05
2.38346e-06
-3.25918e-06
1.71326e-05
1.69913e-05
0.000323793
-0.00379837
5.40687e-05
-0.000104923
0.000908996
6.62278e-05
1.9502e-05
2.01824e-05
0.00075502
3.54091e-05
2.90195e-05
-0.027412
-3.18614e-05
-0.114628
-0.00149364
1.70822e-05
1.24248e-05
1.19609e-05
0.00384575
1.99953e-05
-0.000130505
-6.21834e-06
0.000295547
0.0461161
-2.22765e-05
2.73801e-05
1.68146e-05
9.93994e-06
1.06133e-05
8.6522e-06
-2.60745e-05
2.34476e-05
0.00072471
3.72783e-05
-4.96727e-06
0.0894422
0.000207534
0.114078
1.64903e-05
0.00124618
0.000111284
-0.0676892
-0.00332058
-0.00639485
-8.52285e-05
1.83541e-05
-0.00219381
-2.30684e-05
0.00914491
1.92896e-05
0.000974036
4.31247e-05
0.0128325
1.63437
0.00018893
3.0116e-05
1.1743e-05
1.01424e-05
1.63749e-05
1.80027e-05
2.04009e-05
0.000122071
1.24993e-05
0.00021819
0.00105013
-0.0784264
1.17184e-05
-0.00569796
2.6385e-06
1.5211e-05
2.34293e-05
-0.00513611
3.83996e-05
-0.000808694
2.28319e-05
3.65088e-05
0.732698
1.28986e-05
-9.89386e-05
1.67734e-05
0.000180189
-0.0150251
0.000247842
-0.271375
-0.000258475
-0.00289405
8.32516e-05
1.85103e-05
4.58374e-05
0.00018664
9.62949e-05
1.37787e-05
2.8079e-05
2.14622e-05
0.0727378
1.44299e-05
-0.170947
0.229445
-0.00490398
0.000441849
-0.00500985
0.00271646
3.81787e-05
-0.211809
1.56637e-05
0.0493507
1.75948e-05
9.10888e-05
-0.00731741
-0.00666567
0.000572506
-0.100977
2.41032e-05
-0.0409836
-2.46421e-06
-0.172528
2.40902e-06
7.63087e-05
0.0010209
0.000100101
1.11722e-05
3.79517e-05
9.6881e-06
0.00061776
0.0747335
0.000447575
-0.159065
2.53645e-05
0.0552065
1.65321e-05
1.54467e-05
3.06078e-05
-2.62641e-05
0.087247
-2.22776e-05
9.39863e-06
-0.00143961
1.59081e-05
0.0654492
-0.000553651
1.58316e-05
0.00109454
-0.000624471
1.10149e-05
1.36078e-05
0.000246626
2.10717e-06
-0.00396883
0.000439312
-8.11943e-05
-0.000146259
8.61341e-06
5.39824e-05
-0.00455641
-3.8509e-06
1.3697e-05
2.35205e-05
-0.000122289
-5.802e-07
-0.00555754
0.000722217
-0.341006
-9.0654e-05
-0.00358007
-0.000170676
1.44973e-05
0.000250768
0.000163916
1.66683e-05
0.0777
9.48456e-05
0.00127904
-0.00212201
0.000323532
-0.179619
0.300853
3.53085e-05
-0.000274282
-0.0269474
-0.441375
2.1945e-06
7.73466e-05
6.7207e-05
0.000683566
-0.158939
-0.000323125
4.55905e-05
-1.28319e-05
2.10277e-05
-0.00015205
-0.00159292
-0.000144474
0.00011472
-0.0242475
1.49721e-05
0.000151944
0.000238463
2.96904e-05
1.4724e-05
2.88759e-05
-0.00320986
-0.00359275
-6.90225e-06
-0.000158875
-0.381227
3.12424e-05
3.02711e-05
0.000190848
1.85789e-05
0.000560536
-0.17603
-0.000986685
-4.52031e-05
0.0317762
0.000131888
1.34553e-05
0.0329111
4.91521e-06
0.000646776
1.98808e-06
3.16554e-06
0.0726818
0.0266174
1.90723e-05
1.0688e-05
0.00068967
-0.0142319
3.84554e-05
8.86604e-06
-0.0929549
6.27454e-05
-0.00158113
2.69719e-06
-0.000176748
-1.725e-05
-0.000136925
0.000495466
2.03225e-05
0.640244
2.85486e-05
-0.000706156
-0.00231572
-0.0720177
-0.00239203
2.15445e-05
-0.0052751
-3.21353e-05
-0.000466537
7.5515e-05
9.80282e-07
8.90238e-06
0.000126514
0.0396933
1.08163e-05
0.0383038
1.04586e-05
0.0317884
3.26621e-06
2.62273e-05
2.81472
-1.29059e-05
0.0316107
0.000230528
2.04399e-05
-0.154146
-0.0187815
1.30841e-05
1.80411
0.00156022
1.32262e-05
1.03063e-06
-0.0357234
1.05118
8.98525e-07
1.85678e-06
-0.000290286
2.87034e-06
-0.0482333
-0.197817
-6.1342e-06
1.60037e-05
1.35705e-05
1.06891
-0.00269973
-0.00857198
1.43855e-06
-0.0564779
-2.44235e-05
-0.000131004
-0.158416
6.02343e-05
-4.34333e-06
-0.00011981
-0.00824338
2.56663e-06
2.13828e-05
1.95232e-06
1.19342e-05
-5.18004e-05
0.109708
0.000217655
1.45352e-05
1.65693e-05
-0.000254099
0.0739365
0.00205329
1.92267e-05
2.63163e-05
0.0113578
-0.00339839
3.0786e-05
-0.106606
0.000284301
0.000116604
3.36489
2.99695e-05
0.000551145
2.08862e-05
0.0641018
5.14547e-06
2.57662e-05
-0.00931739
-0.000342992
1.94773e-05
2.36013e-05
-1.50353e-05
0.00205839
-0.00358349
1.43198e-05
2.16474e-06
-1.20169e-05
-0.00319576
8.29257e-05
3.55782e-06
1.55815e-05
1.29874e-05
-0.00148389
-0.00226179
-2.46127e-05
2.27829e-05
3.52641
1.47764e-05
-0.109047
6.02314e-05
0.00082958
-0.00017166
7.83061e-05
1.22516e-05
0.0164402
-0.00153595
-0.00486029
0.121717
8.46371e-05
1.2993e-05
0.408949
1.41345e-06
-0.004918
0.000194598
0.000122012
1.84745e-05
0.000122442
-0.00678721
1.22077e-05
2.71644e-05
0.368283
1.75845e-05
0.000606944
0.000336367
3.20387e-05
2.92111e-07
-0.000453237
0.000162324
-1.18965e-06
1.77047e-05
-0.240094
1.22022e-05
-7.34746e-05
1.7269e-05
7.81407e-06
-1.75655
-0.00378754
0.000143877
2.60867e-05
2.89194e-05
-5.1856e-07
0.000965499
-0.00108603
-6.81144e-05
0.688226
0.00057116
0.000215081
0.107092
1.40833e-05
6.82931e-06
-6.01647e-07
9.85033e-06
2.57932e-05
6.5306e-06
-2.62192e-05
0.211396
5.79485e-06
1.52244e-05
3.69643e-05
6.04645e-06
-0.118807
1.8345e-05
-0.0364779
0.0474331
-0.00223269
-0.000519254
0.0387602
-0.000201572
1.26419e-05
-4.60991e-05
1.6821e-05
4.46994e-05
0.000147299
-2.77154e-05
1.06197
3.48265e-06
1.12054e-05
-0.00172689
0.0031192
1.94145e-05
1.39228e-05
-0.000168421
0.000122446
0.000363781
2.21271e-05
1.36327e-05
4.1261e-05
-0.013578
3.96047e-05
0.00316814
-0.00375656
0.000368854
1.38742e-05
4.10872e-05
1.75124e-05
0.0867923
-7.72993e-07
0.00183656
1.53089e-05
-0.108702
0.671663
-6.00934e-05
0.0116613
1.35389e-05
0.000144064
-0.000109964
0.0693631
-0.00293246
-0.000197923
-0.00019968
-0.123303
-2.26584e-05
0.00213625
1.58512e-05
0.00107616
0.00576683
0.0188979
2.13118e-05
0.000923493
-0.0538156
-0.0136666
0.000163403
0.000158867
0.0265897
0.0577447
9.75871e-06
-0.00320689
1.20822e-05
0.000276973
-4.20093e-06
3.1117e-05
2.80717e-05
0.034726
-2.64278e-05
1.5934e-05
-0.00485981
0.026542
0.521012
-0.00249743
-0.364272
1.10074e-05
0.0347397
-0.0054971
1.69518e-05
1.77683e-05
-0.00523551
4.87528e-05
1.43343e-05
2.56666e-05
0.000540082
1.2818e-05
1.75096e-05
-0.220446
9.21615e-06
2.19223e-05
1.93124e-05
1.91318e-05
4.2305e-05
-2.66945e-05
1.69483
0.00201276
-0.000102208
7.44679e-07
0.000904025
-0.0829525
1.782e-05
3.58029e-05
0.0505911
0.0264668
1.99668e-05
-1.46644e-05
1.38486e-05
1.56731e-05
0.000772803
0.0184082
1.54879e-05
3.98701e-05
-0.0465821
0.140782
-0.0777934
-0.0124425
-5.37217e-06
0.210096
1.7164e-05
-5.96137e-05
5.66396e-05
-1.0008e-05
0.129215
-0.161093
-0.00172345
-0.0100494
0.0895845
9.56581e-06
8.96774e-06
-6.23347e-05
0.000304985
-0.192885
3.35908e-06
0.00111074
-0.289955
-0.158944
1.69722e-05
4.28599e-05
0.227127
3.28575e-05
0.000255052
0.000517806
1.47979e-05
1.3992e-05
-8.85224e-05
-0.497977
-3.76341e-05
8.00397e-05
-1.43535e-07
0.00144746
0.000714433
-0.136829
1.19886e-05
1.3819e-05
-7.1969e-05
-4.18697e-05
0.00113228
-4.94008e-05
-0.00613902
-0.00174265
1.6848e-05
4.9867e-06
-0.74896
-0.123993
0.0173718
1.39142e-05
2.34167e-05
3.09866e-05
3.02244e-05
1.40182e-05
1.97948e-05
-0.00139431
3.07447e-05
1.04396e-05
1.09678e-05
-0.00232205
-0.000175646
0.00027333
0.00897783
-0.00583652
-0.00342084
0.00027933
0.00758264
-0.00251013
-0.000542372
0.000204046
0.000554198
1.54707e-05
0.379106
-0.000534919
3.36374e-06
-2.59401e-05
-0.0466428
1.69722e-05
-0.0908528
-6.94771e-06
2.47103e-06
0.00142665
1.23022e-05
1.34118e-05
1.32787e-05
0.00565834
0.000535633
-2.31989e-05
-1.19039e-05
4.72637e-05
0.100313
-0.00337117
0.067319
4.41325e-06
0.000442386
4.08979e-06
1.46581e-05
2.16661e-06
1.17544e-05
2.30894e-05
0.000363286
0.0108633
0.000120938
-0.000150705
-0.00320028
-0.144567
-0.000551197
1.38446e-05
-0.00762998
-0.00101781
-0.0331099
9.10525e-06
6.3243e-05
0.00327098
0.0899166
3.21499e-06
4.26912e-06
1.20837e-05
2.80572e-06
0.00035573
2.74421e-05
-0.000435145
0.000365239
2.833e-06
0.000608925
2.06857e-05
-0.0940478
-1.75953e-05
-0.00414799
1.4763e-05
-1.87338e-05
1.89338e-05
-0.00534046
0.0710817
2.51444e-05
0.00210714
-0.22764
1.98382e-05
5.07313e-06
-0.00227463
2.5181e-06
1.58686
-2.89507e-05
-7.47198e-07
-0.00496713
-1.11024e-06
-0.000295607
-3.39191e-05
9.61224e-06
2.66732e-06
3.2531e-05
-1.67502e-05
1.3015e-05
2.94955e-05
8.55187e-05
-0.0033329
8.46183e-05
-0.00308235
8.43692e-06
1.3018e-05
-0.000361464
-0.00203392
4.01788e-05
2.77126e-06
1.5529e-05
2.94139e-05
-0.00198187
0.216179
-0.00101009
3.15299e-05
2.426e-05
1.12739e-05
-0.000451708
1.29664e-05
3.27857e-05
-0.161854
-0.247148
-0.00249659
2.13374e-05
7.49561e-05
3.18622e-05
2.94547e-06
0.00190997
2.37838e-06
-0.00672398
3.70015e-05
0.0134233
-2.29543e-05
-0.13369
-2.14824e-05
-0.00450586
0.458155
0.00262425
-0.0420596
0.000347435
0.00921237
-0.0805809
2.57053e-05
-0.00119183
-0.202936
0.000260006
1.35523e-05
1.10648e-05
0.000281745
0.0110339
2.03013e-06
0.000183714
-0.212895
-5.63969e-06
1.62072e-05
-0.0260706
0.297707
-0.00166555
-0.0434298
0.123126
4.00686e-05
0.00032297
-0.000174129
-0.000188474
0.00405006
3.3369e-05
-0.183466
-0.00200353
-2.43533e-05
3.73481e-05
-6.93537e-05
-0.000978835
-7.3972e-06
0.680802
2.81401e-06
1.46639e-05
2.54931e-05
-0.0507161
0.143948
0.00198218
3.56835e-05
-7.31606e-05
-4.08823e-06
-0.167758
-3.35919e-05
7.68589e-05
0.000139684
0.00416904
1.32941e-05
-0.00694478
-0.354084
0.0950717
3.1336e-05
0.0888684
-6.88352e-05
0.0112395
3.05932e-06
0.0228371
0.00016524
-0.00334631
-0.000190788
-0.064843
-0.00328134
0.000103694
5.62154e-06
-0.0294022
0.000246117
1.50223e-05
1.30666e-05
0.000148406
8.53063e-05
-0.211362
-1.29498e-06
1.91647e-05
1.70477e-05
2.05292e-05
0.0305976
1.15324e-05
3.81467e-06
4.69074e-05
0.0657176
7.34572e-05
-0.00439751
0.000109764
3.6783e-05
-0.00782326
-0.000133529
1.8645e-05
-0.00319727
-0.00255214
3.98665e-06
0.00109891
6.26082e-05
-0.0985528
1.82324e-05
-0.0419202
0.000213848
9.39885e-06
3.78657e-06
3.54746e-06
1.4465e-05
1.9161e-05
0.110187
-0.00409883
8.2498e-08
2.21209e-05
1.38827e-05
3.10091e-05
-0.00022991
0.126683
7.97155e-05
0.000378273
9.8631e-05
0.0311073
-2.79021e-05
-0.00183739
1.84541e-05
1.8898e-05
0.000827791
1.62346e-05
6.32338e-07
-9.63987e-06
-0.000307975
-0.21536
2.32634e-05
1.1486e-05
-0.0262107
0.12496
0.000658031
0.000227281
-0.000251194
0.000193221
-0.00859318
8.99727e-05
1.92591e-05
-1.14507e-05
0.168575
1.72589e-05
-1.50012e-05
0.0111766
-1.24892e-05
-1.80074e-05
3.59886e-05
1.709e-05
-2.13981e-07
-0.00424031
0.000494923
1.19176e-05
1.43127e-05
1.16823e-05
1.42185e-05
-0.00442145
2.99127e-05