/*--------------------------------*- C++ -*----------------------------------*\
| =========                 |                                                 |
| \\      /  F ield         | OpenFOAM: The Open Source CFD Toolbox           |
|  \\    /   O peration     | Version:  v2012                                 |
|   \\  /    A nd           | Website:  www.openfoam.com                      |
|    \\/     M anipulation  |                                                 |
\*---------------------------------------------------------------------------*/
FoamFile
{
    version     2.0;
    format      ascii;
    class       volScalarField;
    location    "250";
    object      k;
}
// * * * * * * * * * * * * * * * * * * * * * * * * * * * * * * * * * * * * * //

dimensions      [0 2 -2 0 0 0 0];


internalField   nonuniform List<scalar> 
18355
(
0.000296847
0.000136992
0.00032332
0.000140994
0.000214104
0.000265585
0.000149716
0.000213697
0.00015036
0.000872289
0.000157713
0.00018831
0.000189392
0.000312858
0.000142721
0.000135549
0.000140978
0.000154498
0.000230026
0.000150386
0.000394308
0.000149152
0.000136956
0.000264254
0.000137037
0.000152037
0.000149623
0.00014118
0.000150678
0.000158967
0.00440438
0.000186938
0.000137982
0.000134449
0.000152
0.000153213
0.000160863
0.000153593
0.000159848
0.000148418
0.000151769
0.000158806
0.000134592
0.000136804
0.000136912
0.00126554
0.000141487
0.000141341
0.00585291
0.000145081
0.000144252
0.010609
0.000145221
0.000229263
0.00014325
0.000150539
0.00015394
0.000873528
0.000152764
0.0574171
0.000134546
0.000185653
0.000228588
0.000148116
0.000200455
0.000142227
0.000154908
0.000161
0.000134247
0.000912483
0.000143108
0.000143296
0.000177229
0.000157063
0.000437059
0.000134394
0.000928161
0.000134502
0.000142819
0.000356058
0.00015478
0.000328028
0.000134353
0.000157159
0.000186367
0.000147848
0.000153849
0.000176333
0.000140883
0.000176573
0.000595579
0.000345603
0.000301629
0.00014509
0.00751351
0.000153971
0.000140328
0.000149686
0.000195399
0.000148686
0.000183676
0.000142341
0.000144932
0.000131014
0.000155336
0.000135662
0.000199929
0.00588666
0.000168498
0.000135175
0.000148923
0.000151621
0.000168205
0.00015653
0.0261736
0.0001616
0.00014207
0.000534619
0.000152523
0.000154417
0.000394555
0.000356247
0.000517321
0.000182061
0.000483468
0.00753673
0.000149874
0.000141333
0.000304092
0.000147687
0.000140424
0.0174487
0.000143868
0.000191663
0.000220134
0.000140937
0.000229161
0.00447363
0.00014246
0.000366519
0.000157782
0.000212642
0.00014127
0.00201892
0.000221183
0.000146798
0.0604556
0.000132602
0.000167761
0.0028917
0.000141094
0.000154252
0.000145564
0.000175428
0.000134704
0.000138258
0.00014151
0.000147795
0.000141361
0.000139261
0.000154928
0.00014401
0.00013523
0.000190187
0.000157226
0.000750557
0.060562
0.000333694
0.0124772
0.000157741
0.00015253
0.000189874
0.000147784
0.00597825
0.000154227
0.000151132
0.000151094
0.00013081
0.000151735
0.000164003
0.000147826
0.0006141
0.000148483
0.000141507
0.000419518
0.000144923
0.00014831
0.000175695
0.00014338
0.000150101
0.00282506
0.000194634
0.000137284
0.000135391
0.000143902
0.0316495
0.000140775
0.000346995
0.000137091
0.000311043
0.000144701
0.000153738
0.000160109
0.000147592
0.00032244
0.000147
0.0115918
0.000141476
0.000137435
0.000144749
0.000146941
0.000231554
0.000154545
0.00015033
0.000132926
0.00702379
0.000164065
0.000157351
0.000147173
0.000141678
0.000167217
0.000134617
0.000174002
0.000200302
0.000207408
0.000165441
0.000134818
0.00420178
0.000269594
0.000172013
0.000148561
0.000155394
0.0019439
0.000134815
0.000191828
0.00019895
0.000149357
0.00378248
0.000156027
0.000150367
0.000137323
0.000151454
0.000147488
0.000170024
0.000147002
0.000143236
0.000141217
0.000232976
0.000248818
0.000144135
0.000151109
0.000247599
0.000205064
0.000207111
0.000130765
0.000362934
0.000156057
0.000147745
0.000165225
0.000139909
0.00290217
0.0010464
0.000191433
0.000162382
0.000161182
0.000187318
0.000201764
0.00019915
0.000139856
0.000143286
0.000150541
0.000135256
0.000154062
0.000157619
0.000140809
0.000146951
0.000169025
0.000140768
0.000206503
0.00933714
0.000165283
0.000147134
0.000162804
0.000135135
0.000176728
0.000146407
0.000165573
0.000149045
0.000164452
0.00283668
0.000137697
0.000175796
0.000152197
0.000167635
0.000199779
0.000144924
0.000135195
0.000203176
0.000146946
0.000210978
0.000160797
0.00631127
0.000177127
0.000192276
0.000153985
0.000171336
0.000144556
0.000154533
0.000161811
0.0001759
0.000916512
0.0251706
0.000142785
0.000161109
0.000221554
0.000163956
0.000142693
0.000141281
0.00014119
0.000174501
0.0240911
0.0443992
0.000902974
0.000167924
0.00015712
0.000259982
0.000132256
0.000146798
0.000157046
0.00014436
0.000172144
0.000151789
0.00040425
0.000135965
0.00052242
0.000143603
0.000148255
0.000155281
0.000193648
0.000366191
0.000170181
0.00074876
0.00014876
0.000141019
0.000144242
0.000158039
0.00131034
0.000141276
0.000145556
0.00314316
0.000148545
0.000141408
0.000201523
0.000156108
0.000141205
0.000147481
0.000166932
0.000152532
0.000166709
0.000136926
0.000145496
0.000148472
0.0534957
0.0010869
0.000136561
0.000141041
0.000180135
0.000141261
0.000148062
0.000278799
0.00126955
0.000172629
0.00014409
0.000149586
0.000190203
0.000151704
0.000396885
0.000154654
0.000136772
0.000175269
0.0001994
0.000148027
0.000144316
0.000154441
0.00014637
0.00015783
0.000143847
0.000220921
0.000147582
0.000153695
0.000145507
0.000141265
0.000153797
0.000152671
0.000182825
0.0515521
0.00164142
0.000160648
0.000205259
0.000171656
0.000143827
0.000150243
0.000173784
0.0001434
0.000174736
0.000148837
0.000160569
0.000260778
0.000244677
0.000356216
0.000195619
0.000131248
0.0404315
0.000148717
0.000140743
0.000666336
0.000143148
0.000168544
0.000158186
0.000208258
0.000143115
0.000188308
0.00191812
0.000188452
0.000145008
0.000137469
0.000189519
0.00015255
0.000144795
0.000826467
0.000403933
0.000140678
0.000174262
0.00018301
0.00013739
0.000149196
0.000168198
0.0113411
0.000175188
0.000148523
0.000144742
0.000169966
0.000144632
0.000136341
0.000146328
0.000222623
0.0533172
0.000136561
0.000149278
0.000145308
0.000195823
0.000197478
0.000135489
0.000168696
0.000174422
0.000145478
0.0363134
0.00018643
0.000148708
0.000146056
0.000173896
0.00019613
0.0023608
0.00013634
0.000375182
0.000142978
0.000136561
0.000179673
0.000152995
0.000226336
0.000177401
0.000154066
0.000158349
0.000149199
0.000200868
0.000152943
0.000160855
0.00014883
0.00013611
0.000148134
0.000136319
0.000187233
0.0524711
0.000207717
0.000155441
0.000147488
0.000148795
0.000146431
0.000153831
0.000150149
0.000137697
0.000143833
0.000176844
0.000137437
0.000150273
0.00107143
0.000354436
0.000223566
0.000147536
0.000148893
0.000168394
0.000148934
0.00306438
0.00211333
0.000160175
0.000157216
0.000160173
0.000150644
0.000154805
0.0599715
0.000169372
0.000151929
0.00636075
0.000147223
0.00035101
0.039408
0.000156696
0.000149039
0.0584239
0.000140882
0.000187352
0.00018823
0.00742536
0.000152933
0.000147988
0.000145348
0.00250461
0.00185725
0.00712649
0.00149591
0.000153966
0.000145204
0.000157172
0.000143288
0.000158995
0.000386663
0.0072922
0.0504491
0.0302595
0.000169589
0.00018317
0.000170208
0.00014155
0.000142566
0.00017183
0.000159314
0.000146604
0.000143229
0.000988727
0.000140244
0.0294463
0.00016336
0.000188405
0.000191595
0.000142614
0.000156517
0.000314988
0.000143791
0.0474177
0.000143631
0.000306186
0.000169474
0.000149658
0.000169614
0.000197963
0.000197261
0.000148197
0.000134361
0.000168717
0.000157037
0.000189288
0.00014357
0.00018564
0.000140187
0.00119908
0.000153439
0.000144556
0.000217577
0.000173658
0.000193097
0.000153405
0.000157945
0.000163622
0.000385801
0.0468751
0.000156056
0.000254025
0.000152779
0.000162598
0.000148148
0.000155675
0.0345048
0.000136749
0.00146117
0.00014694
0.00015245
0.000156248
0.00309419
0.000156098
0.000211033
0.00015458
0.000167806
0.00247813
0.000132526
0.000141282
0.000343463
0.000175619
0.000921025
0.000179077
0.000147872
0.00014323
0.000143623
0.000156832
0.000149071
0.000147753
0.000242709
0.0273764
0.00014428
0.0149426
0.0138413
0.000155996
0.000986841
0.000136572
0.000284253
0.00898215
0.000134191
0.00283917
0.000172043
0.0506093
0.000383613
0.000145589
0.000143665
0.000147881
0.000530795
0.000174196
0.000145508
0.000149218
0.000239737
0.000148479
0.000172824
0.000144509
0.000170335
0.0454199
0.00242542
0.000310518
0.00255759
0.000177606
0.00149264
0.000157235
0.000140925
0.000160472
0.000376049
0.000175573
0.000172289
0.000145225
0.000261291
0.000145495
0.000148017
0.00834255
0.000148858
0.000161533
0.000186706
0.000206175
0.000144806
0.000142937
0.000156064
0.000158756
0.000134836
0.000157184
0.00017213
0.000234089
0.000153578
0.000144949
0.000179693
0.00213387
0.000144612
0.00246057
0.0307892
0.00014536
0.000469443
0.000135676
0.000144834
0.000143808
0.000163275
0.000302427
0.000153402
0.00937623
0.000153216
0.000142953
0.000493366
0.000143785
0.000135013
0.000145847
0.000141039
0.000162399
0.000174186
0.000373345
0.000149535
0.0478391
0.000155174
0.00239774
0.00882878
0.000149296
0.000144203
0.000157956
0.000139901
0.000192181
0.000142771
0.000134921
0.000136155
0.000145302
0.000143708
0.00671851
0.000156036
0.000177554
0.000150648
0.000160897
0.000154065
0.000169329
0.00147288
0.000137388
0.000186251
0.00018246
0.000134997
0.00785986
0.0447937
0.000145704
0.0022218
0.000152965
0.00208695
0.000167675
0.000134202
0.000168993
0.000159549
0.00230901
0.000146961
0.000155281
0.00163255
0.000219977
0.000213583
0.000143673
0.000712358
0.000181434
0.0002788
0.000143584
0.000152536
0.000144884
0.000146355
0.000142522
0.000151962
0.000136743
0.00226966
0.000163383
0.000141129
0.000134393
0.000146317
0.000148282
0.000215279
0.000181386
0.000137686
0.000158741
0.000147086
0.000147314
0.000149524
0.000141162
0.0001873
0.00013444
0.000140548
0.000147993
0.000147308
0.000156063
0.000154313
0.0167309
0.000321632
0.000156327
0.000140386
0.000194118
0.000134811
0.000134492
0.000153896
0.000211819
0.000154922
0.000150343
0.000136403
0.000137172
0.000157338
0.000134197
0.0001606
0.000142659
0.000148228
0.00014239
0.000152329
0.000349272
0.000140871
0.000148894
0.000143604
0.000233357
0.00623415
0.000159847
0.000149055
0.000171727
0.000164308
0.000184861
0.0610777
0.000147774
0.00793146
0.000149001
0.0282677
0.000152833
0.000137094
0.000138514
0.00775971
0.000137686
0.000160107
0.000238167
0.000206769
0.000181099
0.000153994
0.000142369
0.00015129
0.000144408
0.000161302
0.000201206
0.000403655
0.000178664
0.000145714
0.00013426
0.000155345
0.000142293
0.000141327
0.000148577
0.00017773
0.00016094
0.000276521
0.000145621
0.000144569
0.000172662
0.000143286
0.000196626
0.000178819
0.000178939
0.000202165
0.0581061
0.00016292
0.000141553
0.000134312
0.000147786
0.000143019
0.00120727
0.000174518
0.000191991
0.000137015
0.000147167
0.000156514
0.000141643
0.0611904
0.00036714
0.000134547
0.000138253
0.000144078
0.000142543
0.000141352
0.000147474
0.00284536
0.000136659
0.000152229
0.000137032
0.000138003
0.000142688
0.000146162
0.000161003
0.000137957
0.000172627
0.000136402
0.00291743
0.00134775
0.000155023
0.000268209
0.00016132
0.000148965
0.000184699
0.000368396
0.000144658
0.000140119
0.000137068
0.000186591
0.00014891
0.000162827
0.000350649
0.000146569
0.000152312
0.000144854
0.0293343
0.000749588
0.00014959
0.000140344
0.000159901
0.000176874
0.000142733
0.000196295
0.000140364
0.000134598
0.000156597
0.000236591
0.00155025
0.00154307
0.00424847
0.000135162
0.000319712
0.00021739
0.000161871
0.000144395
0.000217742
0.00016023
0.000248462
0.000242745
0.000148762
0.000135196
0.000144904
0.000151848
0.000135411
0.000270016
0.000984027
0.000134698
0.000146758
0.000148842
0.000170008
0.000145018
0.000143065
0.000193182
0.000150567
0.000145923
0.00114057
0.000198754
0.000191378
0.000142839
0.000136009
0.000134907
0.000145773
0.000169368
0.00017712
0.000140995
0.00013901
0.000160135
0.000780128
0.000137081
0.000144061
0.000196387
0.000141453
0.000139396
0.00014373
0.0287419
0.000135826
0.000144669
0.000137147
0.000171195
0.000135821
0.000159434
0.000199704
0.0001441
0.000231666
0.000164417
0.0002924
0.000185809
0.000141017
0.000163321
0.000140844
0.00013925
0.00014098
0.000383295
0.00689654
0.000195517
0.000160972
0.00734383
0.000185003
0.00015256
0.000200107
0.000197983
0.000157758
0.0001369
0.0166816
0.000150339
0.000140765
0.000139135
0.0187317
0.025012
0.000390618
0.000139063
0.000188566
0.00889237
0.000171567
0.000167089
0.000155266
0.00015646
0.000166909
0.00168799
0.000151424
0.000150486
0.000156514
0.0396312
0.00688415
0.000144944
0.000154425
0.00014536
0.0532943
0.000155027
0.000148613
0.00760434
0.000159388
0.000175289
0.000155163
0.00279736
0.000138734
0.0252368
0.000149964
0.000137802
0.000141653
0.000136788
0.000137865
0.000141224
0.00014799
0.00265108
0.000138072
0.0269403
0.000160109
0.000147724
0.000142
0.000197845
0.000144141
0.000146869
0.000162693
0.00425402
0.000189651
0.000153413
0.000146589
0.0475709
0.0001387
0.000179253
0.000146383
0.000413732
0.000167882
0.00285089
0.000160378
0.000144807
0.0002061
0.00990357
0.000386636
0.000137791
0.000143661
0.000168841
0.0352855
0.00013204
0.000181826
0.000179022
0.000158936
0.000140817
0.000135494
0.000152191
0.000150176
0.000136541
0.000175725
0.000174556
0.000162097
0.000196014
0.0170581
0.000150481
0.000735279
0.000138851
0.000191163
0.0506466
0.000210459
0.000135291
0.000154461
0.000146171
0.00323654
0.00015346
0.000140558
0.000188305
0.00014656
0.000146403
0.000151646
0.000149755
0.00014316
0.0382742
0.00566378
0.00018518
0.000139357
0.000145467
0.000256505
0.00013924
0.000733012
0.000147558
0.000145981
0.000149433
0.000159778
0.000537427
0.000177307
0.000145342
0.00035718
0.000147122
0.000148573
0.000168941
0.0556778
0.00196976
0.000144577
0.000144537
0.037179
0.000345007
0.000306536
0.000145883
0.000166619
0.000230735
0.000137988
0.000185016
0.000151458
0.000410308
0.000154382
0.000146293
0.000150033
0.000137708
0.0493111
0.000145208
0.000139974
0.00416328
0.000181257
0.000403026
0.000137142
0.000151975
0.000137104
0.000133596
0.000136317
0.000151868
0.000146924
0.000148448
0.000137873
0.000148188
0.000181092
0.000160708
0.000170687
0.000141756
0.000153564
0.000142427
0.00270011
0.000147766
0.000149727
0.000147511
0.000138547
0.000148311
0.000171074
0.000144828
0.000143897
0.00014168
0.000136343
0.00460001
0.0020683
0.000145564
0.0495441
0.00016922
0.000147877
0.000147939
0.000150386
0.00779276
0.000147404
0.000138819
0.000134655
0.000135191
0.000328093
0.000145527
0.000137081
0.000244043
0.000134405
0.000136426
0.000203172
0.000215477
0.000229338
0.000202538
0.000636699
0.000138828
0.000306128
0.000158632
0.000143553
0.000136804
0.000164549
0.000143298
0.000165836
0.000186864
0.000152214
0.000149237
0.011328
0.000211435
0.000373262
0.001231
0.00117818
0.000245731
0.000141004
0.000852748
0.0278808
0.000135177
0.000306493
0.000139043
0.000151044
0.000192746
0.000141022
0.000427381
0.000158
0.000152591
0.000151078
0.000196373
0.000144011
0.0211853
0.000143048
0.000136629
0.00785217
0.000136859
0.000148125
0.000148753
0.000183538
0.000142323
0.000144144
0.000152967
0.000316049
0.000145191
0.000145464
0.000137254
0.000155265
0.000142605
0.000151033
0.000479841
0.000141909
0.000158541
0.000148066
0.000159247
0.00015848
0.000140583
0.000149108
0.000189619
0.00014725
0.00015009
0.000162171
0.0028131
0.000153253
0.000141899
0.000144085
0.000163992
0.000229262
0.000150153
0.000141076
0.000141798
0.000137828
0.000133559
0.000137153
0.000157699
0.000188314
0.000184554
0.000146765
0.000329427
0.000139931
0.000152601
0.0425246
0.000172945
0.000134852
0.000198555
0.00015633
0.000141059
0.000277691
0.000148251
0.00017923
0.000133172
0.000207015
0.000140232
0.000135685
0.000136077
0.000408381
0.000249228
0.000147038
0.000274743
0.000135904
0.000143567
0.000139208
0.000192133
0.000151737
0.000138599
0.000166642
0.000152126
0.000143088
0.000145964
0.00014081
0.000149555
0.000146764
0.000140712
0.00015338
0.00013725
0.000280785
0.000186307
0.0001369
0.000214623
0.000159181
0.000141097
0.000140163
0.000149216
0.000141387
0.000163033
0.000156533
0.000191053
0.000190798
0.000147723
0.000181997
0.000208291
0.000143452
0.000149975
0.000191973
0.000156519
0.00278794
0.000135694
0.000145937
0.00015709
0.000159202
0.000163909
0.000158203
0.000140648
0.000196758
0.000144908
0.000157259
0.000141172
0.000187426
0.000144941
0.0001552
0.000188135
0.000144367
0.00120944
0.00157105
0.000153602
0.000160182
0.000163996
0.00013484
0.000198116
0.000145773
0.000170198
0.00773114
0.0261525
0.000190036
0.000194524
0.00016534
0.000143242
0.000166871
0.000139534
0.0469366
0.000186616
0.000152581
0.000141043
0.000209048
0.000176424
0.000143055
0.000143726
0.0465521
0.000147737
0.000138507
0.000303491
0.000177269
0.000135055
0.00026722
0.000136061
0.000199855
0.000179319
0.000143145
0.000144485
0.000163665
0.00239045
0.000140474
0.000159932
0.000144458
0.000143153
0.000140079
0.000347402
0.000148585
0.000148447
0.000144189
0.000252003
0.000160387
0.00014067
0.000133662
0.000193073
0.000142508
0.000136928
0.000299254
0.0610496
0.000149075
0.0180724
0.000163329
0.000174822
0.000156149
0.000183139
0.00219412
0.000151799
0.000146927
0.000137293
0.000156256
0.000143172
0.00725156
0.000220978
0.000137516
0.000153179
0.000136356
0.000137914
0.00182425
0.000143275
0.000150406
0.000152387
0.000211752
0.000144711
0.00014792
0.000156577
0.00279121
0.000146514
0.00014849
0.000137345
0.000138339
0.000155677
0.00017254
0.000147744
0.000142561
0.000146115
0.00014562
0.000137316
0.0407646
0.000147861
0.000144283
0.000142263
0.000181024
0.000136532
0.000136946
0.000171974
0.000143554
0.000181259
0.000145237
0.000144677
0.000933264
0.0456408
0.0271545
0.00123512
0.000162804
0.000150351
0.0432752
0.000139907
0.000156473
0.000137158
0.000302656
0.00013082
0.000156077
0.000144813
0.00962045
0.000179372
0.000198965
0.0438032
0.00015416
0.000200528
0.000148167
0.000148857
0.0100898
0.000168891
0.00014224
0.000136012
0.000154762
0.000166383
0.000144117
0.000146195
0.00013986
0.000135801
0.000239692
0.00646321
0.000148125
0.00015353
0.0579579
0.000273942
0.000156356
0.00015302
0.000153314
0.000155639
0.000142404
0.000152999
0.000354423
0.000140483
0.000136251
0.000146367
0.00034357
0.000258371
0.000158635
0.000146787
0.000149137
0.000160851
0.000143845
0.000158746
0.000180234
0.000215605
0.000153419
0.00215576
0.000134809
0.000143077
0.000148627
0.00013621
0.000147087
0.000140363
0.000375624
0.000141059
0.000396076
0.00014562
0.000139144
0.000137571
0.000217762
0.000150592
0.00017346
0.00019354
0.000136779
0.0024458
0.000186605
0.000138022
0.000134095
0.00251986
0.000206519
0.00013438
0.000140857
0.000142815
0.000152559
0.000208477
0.000214126
0.000166836
0.000151966
0.000198319
0.0472132
0.000149416
0.00014269
0.00432474
0.000155068
0.00101753
0.000152356
0.000142772
0.000184117
0.000238015
0.0452856
0.00025201
0.00185925
0.000136895
0.000143595
0.000147784
0.000146787
0.000155016
0.000147869
0.000146443
0.000139748
0.000149438
0.000156701
0.000171993
0.000148063
0.000152787
0.000148783
0.000143775
0.000144585
0.000176119
0.00019016
0.000140577
0.000145502
0.000234776
0.000149561
0.000153576
0.000151101
0.000333392
0.000136962
0.000170825
0.000155434
0.000136323
0.000143853
0.0359288
0.000209621
0.000152078
0.000147809
0.000153905
0.000176323
0.000140276
0.000162467
0.000179526
0.000141322
0.000203872
0.000141325
0.000143283
0.000164782
0.000150425
0.000162683
0.000209009
0.0387212
0.000193974
0.000136599
0.000145113
0.000144147
0.000197759
0.000149307
0.00162961
0.000140021
0.000143987
0.000143601
0.000186853
0.000144161
0.000146826
0.000145248
0.000203904
0.000137041
0.000684356
0.000137002
0.000174329
0.00014484
0.000162717
0.000140921
0.000154517
0.00156502
0.000208278
0.00013663
0.000179218
0.000145497
0.000151738
0.00651804
0.00270557
0.000136161
0.000142872
0.00015751
0.000135976
0.00014411
0.00014873
0.000147892
0.000167639
0.000177549
0.000150296
0.000159731
0.000211447
0.000149726
0.000140911
0.000142209
0.000172482
0.0001642
0.000144232
0.03591
0.000142302
0.0440729
0.000168159
0.000139902
0.000140754
0.00014043
0.000210032
0.000146715
0.000153216
0.000146644
0.000157788
0.005101
0.000155906
0.000164015
0.000147553
0.000145787
0.000151995
0.000143744
0.000155681
0.000143505
0.000165278
0.000149527
0.000148403
0.00437322
0.000171875
0.00230422
0.00014108
0.000201566
0.000154278
0.00124568
0.000193985
0.000306581
0.000150362
0.00013659
0.000171661
0.000144212
0.00356736
0.000150039
0.000184825
0.000150671
0.0417601
0.00172588
0.000153873
0.000163867
0.000139628
0.000137543
0.00014886
0.000135374
0.000148184
0.000153162
0.000139696
0.000164221
0.000194891
0.00112634
0.000141077
0.000543709
0.000134742
0.000142642
0.000144483
0.000187981
0.000149915
0.000209626
0.000148261
0.000144697
0.000375189
0.000140496
0.000152519
0.000142869
0.000157867
0.000300915
0.00016645
0.0377683
0.00014597
0.000193122
0.000153062
0.00014189
0.000145518
0.00018481
0.000167606
0.000143254
0.000152179
0.000143236
0.00528206
0.000139184
0.0571983
0.000189579
0.000194306
0.000158016
0.000245676
0.000217354
0.00013517
0.00668233
0.000142578
0.0205032
0.000148603
0.000152124
0.00284665
0.00277043
0.000161427
0.0262015
0.000143626
0.00240812
0.000131761
0.0236663
0.000135306
0.000153435
0.000185382
0.000152781
0.000139327
0.000149431
0.000145552
0.000176034
0.00104526
0.000171621
0.00115253
0.000147438
0.000495277
0.000144533
0.000146895
0.000144834
0.000153197
0.00375494
0.000148429
0.000138138
0.00016789
0.000148436
0.00677082
0.00021032
0.000143106
0.000192257
0.000171175
0.000140899
0.000145032
0.000154979
0.000136567
0.000177938
0.000164554
0.000150648
0.000152948
0.000137199
0.000153496
0.000180009
0.000148827
0.000145178
0.000150598
0.000138675
0.000136139
0.000393173
0.000161538
0.0503552
0.000161011
0.000176581
0.000160485
0.000142434
0.000166484
0.00014831
0.000140931
0.000610669
0.000167466
0.000201525
0.000182008
0.000160834
0.0116562
0.00824838
0.000144571
0.000166765
0.000238868
0.0438973
0.000136414
0.00014468
0.000149725
0.000187535
0.00164745
0.000166231
0.00015493
0.000148188
0.000142121
0.000145263
0.00316435
0.000153454
0.000155416
0.00355309
0.000147096
0.000156579
0.000155551
0.000145181
0.000142988
0.000143862
0.000175857
0.000215605
0.000148378
0.000154131
0.0152269
0.000143417
0.000149716
0.000153866
0.00014703
0.00581001
0.00302804
0.000248296
0.000213223
0.000460015
0.000155406
0.000140026
0.000583877
0.000152747
0.000160735
0.000143531
0.000135433
0.00768663
0.000223095
0.000141532
0.000139815
0.00016315
0.000779395
0.000152928
0.000137706
0.038322
0.000152852
0.000169632
0.000135059
0.000161092
0.000132152
0.000152688
0.000158835
0.000142137
0.0281517
0.000149433
0.000173057
0.000216875
0.00141558
0.000210053
0.000142281
0.000181619
0.000156095
0.000165126
0.000154389
0.000149909
0.000145589
0.000155286
0.000464426
0.000152337
0.000421793
0.000140284
0.000208375
0.000135919
0.000149089
0.00500707
0.000156557
0.000207168
0.000159081
0.000149902
0.042733
0.0358363
0.000140291
0.000699842
0.000174452
0.000139003
0.000134556
0.000403186
0.000489601
0.000139489
0.000136202
0.000145466
0.000137269
0.0406141
0.0224989
0.000130707
0.000133894
0.000140185
0.00421338
0.00017382
0.00274336
0.000136083
0.0474084
0.00014776
0.000195778
0.0368209
0.000166414
0.000139522
0.000142847
0.0028122
0.000136624
0.000141321
0.000137004
0.000158747
0.000156117
0.030615
0.000164159
0.000148356
0.000142561
0.000159154
0.000229111
0.000186128
0.000141819
0.000142963
0.000206961
0.000176649
0.000152426
0.00692226
0.000160913
0.000152578
0.00462777
0.000152205
0.000159602
0.000148625
0.00125867
0.000145579
0.000148711
0.000336143
0.00016085
0.000141266
0.000143382
0.000132155
0.000177041
0.000216671
0.000141379
0.000136071
0.000149197
0.000178401
0.000155362
0.000135149
0.000142962
0.000139243
0.000155038
0.000171902
0.000146066
0.000143143
0.00474707
0.000142387
0.0113541
0.000166717
0.000170216
0.00015365
0.000154042
0.000145258
0.00027502
0.000208882
0.00018123
0.0296879
0.00016581
0.000140359
0.0295634
0.000136595
0.000182036
0.0392963
0.000155577
0.00014194
0.000155076
0.000186221
0.000143035
0.000143747
0.000322715
0.000143005
0.000173903
0.00015723
0.000147135
0.000137593
0.000206691
0.000189969
0.000136433
0.000141241
0.0190274
0.000142925
0.000138304
0.000141019
0.000141091
0.00344987
0.000162636
0.00015298
0.00015189
0.000149455
0.000140599
0.000177558
0.000184809
0.000160027
0.0204469
0.000178416
0.000154351
0.0300032
0.000140333
0.00013624
0.000143793
0.000140909
0.000148693
0.00013338
0.000152523
0.0334597
0.000144369
0.000142148
0.000157062
0.000141051
0.00175493
0.00014781
0.0349708
0.000213609
0.000236128
0.00016385
0.000432906
0.000164533
0.000143896
0.000152382
0.000140615
0.000150875
0.000150737
0.000148051
0.0212602
0.000135843
0.000144017
0.000177055
0.000257231
0.000148002
0.000139969
0.000227459
0.000153448
0.000253818
0.000143117
0.000140122
0.000151385
0.000428986
0.000148083
0.000250793
0.000182398
0.000197281
0.000139873
0.000144748
0.000156985
0.00110956
0.000136453
0.00018007
0.000142101
0.0370905
0.00313602
0.000151575
0.000205114
0.000146438
0.000152977
0.000157931
0.0347514
0.000168749
0.000158637
0.00016251
0.00112539
0.000147739
0.000175756
0.000144764
0.000195591
0.000208312
0.000232495
0.000143053
0.000164253
0.00205324
0.00777973
0.000156491
0.000155361
0.00937036
0.00885277
0.000140709
0.000176158
0.000144133
0.000155543
0.000146456
0.000153404
0.000152575
0.000272774
0.000147584
0.000148422
0.000182806
0.00155619
0.000787585
0.000199104
0.000294773
0.00014017
0.00916641
0.000185983
0.000142813
0.000141934
0.0079871
0.000163811
0.000145378
0.000142639
0.000178559
0.000138774
0.000142949
0.0609778
0.000145781
0.000148306
0.000141205
0.000143972
0.000151685
0.000140028
0.013084
0.000222675
0.000151795
0.000140043
0.000164331
0.0251461
0.000142528
0.000150343
0.00110644
0.000215281
0.000143568
0.00015559
0.000138846
0.00014058
0.000186062
0.000208229
0.000140631
0.000144853
0.00114538
0.000488154
0.0168349
0.000221128
0.00015302
0.00153443
0.000141277
0.000156731
0.000155496
0.000140736
0.00036738
0.0187355
0.000172005
0.000214875
0.0288263
0.000134684
0.000133845
0.000150805
0.000172103
0.00448648
0.000136414
0.000174891
0.000168653
0.0580557
0.000147372
0.000151494
0.028139
0.000144037
0.000155371
0.00674556
0.000141155
0.000142799
0.000141082
0.00948611
0.000144188
0.000166969
0.000148577
0.000211665
0.00016193
0.0036696
0.000143883
0.000142601
0.000164616
0.000148375
0.000200134
0.00015176
0.000192923
0.000193202
0.000140948
0.000144829
0.0388765
0.0546118
0.000417762
0.000139219
0.00014344
0.000153181
0.000145481
0.000143309
0.000144143
0.000186491
0.000148937
0.000139875
0.000139958
0.000190173
0.000155046
0.000169336
0.000397247
0.000187228
0.000177077
0.000156121
0.000190921
0.000233458
0.000164134
0.000163987
0.000159649
0.000142106
0.00119681
0.000147143
0.000135749
0.000142267
0.00364166
0.000142449
0.00343042
0.000148009
0.000135092
0.000187121
0.000143672
0.000142648
0.000143654
0.000234779
0.000267328
0.000148366
0.000140722
0.000152075
0.0154802
0.000176354
0.00736989
0.000143501
0.000174978
0.000148217
0.000145936
0.000136634
0.000139053
0.000143452
0.000171527
0.00328379
0.000156656
0.000155427
0.000199009
0.0182642
0.000194782
0.000141983
0.000203139
0.000164855
0.00778381
0.000137914
0.000146632
0.00022244
0.000357552
0.000132956
0.000145026
0.000139003
0.000136541
0.000195699
0.00015173
0.000198075
0.000172409
0.000132669
0.000209114
0.000144113
0.00903963
0.000143929
0.000228552
0.000148253
0.000160659
0.000149679
0.000184872
0.00833075
0.000142528
0.000186081
0.0596942
0.000141779
0.000146747
0.000172125
0.00013241
0.000743274
0.000170811
0.000143861
0.000181548
0.000134771
0.000146405
0.000156302
0.000148724
0.000136939
0.000150214
0.000141292
0.000138916
0.000145412
0.000150361
0.000176785
0.000137339
0.000223804
0.000138409
0.000140661
0.000160729
0.000181418
0.000149678
0.000132606
0.000142626
0.000152364
0.000179284
0.0080314
0.000165182
0.000149275
0.000149309
0.000139746
0.000163888
0.000140988
0.000153035
0.0570544
0.00560542
0.000173175
0.000141463
0.00015035
0.00015019
0.000132763
0.000185768
0.000134959
0.000250117
0.000149504
0.000235427
0.000159884
0.0539219
0.000148028
0.000192574
0.000593727
0.00595469
0.00338257
0.000158202
0.00701679
0.051298
0.00014893
0.000166211
0.0547246
0.000144127
0.000139174
0.000144142
0.000155928
0.000219411
0.000146171
0.000161108
0.0028798
0.000130709
0.000144764
0.0440684
0.00100946
0.000184604
0.00388838
0.00347713
0.00015022
0.000200169
0.000155364
0.000156677
0.000262202
0.000152988
0.0320183
0.000197146
0.000154433
0.000147635
0.00015054
0.000217823
0.000140224
0.000892774
0.000132813
0.000143025
0.000143334
0.0081745
0.0303148
0.000303204
0.000145933
0.000150017
0.000139308
0.0455862
0.000145738
0.000152296
0.000154486
0.00020782
0.000138746
0.000192472
0.0386484
0.00136169
0.000147673
0.000633662
0.000141062
0.000317938
0.000133316
0.000530163
0.000188281
0.00017833
0.000162054
0.0172104
0.000224525
0.000152178
0.000155559
0.000249771
0.00015488
0.000142202
0.000138842
0.000155991
0.00015023
0.000576587
0.000132463
0.000143565
0.00014437
0.000143888
0.000599632
0.000139507
0.000134684
0.000148589
0.00111011
0.000166072
0.00018057
0.000152127
0.000151565
0.000195688
0.000142662
0.000143289
0.00019813
0.000173735
0.000134699
0.000174852
0.000152853
0.00385858
0.000142826
0.000224294
0.000190378
0.000143712
0.000135317
0.00013498
0.000142582
0.000141478
0.0146503
0.000191772
0.000146938
0.000143166
0.000142801
0.000152022
0.000159808
0.0362024
0.000152879
0.000188182
0.000167478
0.00142172
0.000147626
0.000178913
0.000143157
0.000142842
0.000163002
0.000142746
0.00014598
0.000140956
0.000147016
0.0547569
0.000143631
0.00013944
0.00120212
0.00288117
0.000184122
0.000182971
0.000141264
0.000155592
0.0335176
0.000153769
0.000147996
0.000148095
0.0114905
0.000148752
0.000144863
0.000281451
0.000143673
0.000157197