/*--------------------------------*- C++ -*----------------------------------*\
| =========                 |                                                 |
| \\      /  F ield         | OpenFOAM: The Open Source CFD Toolbox           |
|  \\    /   O peration     | Version:  v2012                                 |
|   \\  /    A nd           | Website:  www.openfoam.com                      |
|    \\/     M anipulation  |                                                 |
\*---------------------------------------------------------------------------*/
FoamFile
{
    version     2.0;
    format      ascii;
    class       volScalarField::Internal;
    location    "250";
    object      V0;
}
// * * * * * * * * * * * * * * * * * * * * * * * * * * * * * * * * * * * * * //

dimensions      [0 3 0 0 0 0 0];


value           nonuniform List<scalar> 
18355
(
0.0152181
0.107578
0.00743429
0.0890511
0.0885494
0.0618719
0.0824391
0.0858893
0.100117
0.110049
0.0408213
0.00515784
0.00491158
0.0420361
0.112582
0.11928
0.0954718
0.0421848
0.00985056
0.066977
0.0188872
0.040625
0.110409
0.0607208
0.0979767
0.0721499
0.0993259
0.092047
0.096545
0.0331189
0.0500523
0.0242643
0.0932117
0.113758
0.112198
0.0441919
0.0150172
0.0430472
0.0317706
0.0424958
0.108363
0.0357755
0.107753
0.107457
0.102937
0.00358422
0.0797772
0.0788986
0.0605449
0.0950861
0.10619
0.0191185
0.0930596
0.0102075
0.0771734
0.0712201
0.113626
0.0291776
0.059912
0.00298894
0.109959
0.00772985
0.0136197
0.0829428
0.0229094
0.12675
0.0247551
0.0121487
0.106844
0.0694605
0.0896984
0.0583706
0.026763
0.0427219
0.0784578
0.112143
0.0272233
0.11568
0.0900451
0.0842677
0.0266195
0.0852146
0.104846
0.0225077
0.0149756
0.111482
0.119014
0.015629
0.0961815
0.0161106
0.043953
0.0251753
0.0950277
0.0893715
0.078019
0.0919104
0.0880624
0.095931
0.0120217
0.03493
0.0156759
0.0941726
0.0893552
0.111598
0.0235144
0.137351
0.0249539
0.0773886
0.0152904
0.125964
0.108121
0.105483
0.0284048
0.0236807
0.00434078
0.0244073
0.0967548
0.0872081
0.0288852
0.0255943
0.0652215
0.00606897
0.0503264
0.0176185
0.0797804
0.00351146
0.0883105
0.100546
0.0144283
0.0363673
0.0868099
0.0214552
0.0530385
0.00847989
0.012201
0.0847932
0.00829556
0.0622736
0.107449
0.0246974
0.0149834
0.0883291
0.0798609
0.0184895
0.0145157
0.0717643
0.00341301
0.122447
0.0300567
0.102605
0.0989042
0.0248085
0.0902851
0.0863934
0.104791
0.0966772
0.108145
0.087109
0.0540465
0.115233
0.0373501
0.0500518
0.099475
0.0807192
0.0400635
0.0853339
0.00283629
0.0163829
0.0218028
0.0176606
0.121822
0.0100757
0.12558
0.0636905
0.110613
0.0889883
0.102206
0.106348
0.0227257
0.0225485
0.106374
0.0890614
0.0386176
0.0784897
0.0891569
0.0916477
0.107003
0.0174994
0.0832035
0.0877062
0.00398854
0.0111068
0.108902
0.107406
0.111144
0.00556427
0.107053
0.0154712
0.103276
0.0509312
0.0985403
0.0440421
0.0323483
0.107104
0.0172229
0.0382942
0.0252113
0.070033
0.105264
0.0902367
0.0403905
0.0601249
0.100461
0.0975597
0.124724
0.0673715
0.0243988
0.0129161
0.0398844
0.0821763
0.0169031
0.105102
0.0162902
0.0950298
0.0633092
0.0900314
0.107463
0.0556754
0.0164793
0.0238554
0.081032
0.0206376
0.10043
0.10247
0.0803287
0.0692677
0.030556
0.00360049
0.0131364
0.0914198
0.113452
0.0204711
0.0938208
0.0256411
0.0413062
0.0743342
0.0782475
0.0587512
0.0489206
0.101927
0.0857208
0.0593253
0.00556328
0.0992118
0.115843
0.115431
0.0132527
0.105592
0.0976085
0.0818387
0.107511
0.0838433
0.0109824
0.00934667
0.0308836
0.0654207
0.0860374
0.0117451
0.0805268
0.0707544
0.0849436
0.102138
0.0426386
0.0120186
0.0950991
0.0388167
0.0456558
0.0849453
0.0121518
0.0689499
0.0489875
0.0409782
0.0272008
0.0990448
0.0178214
0.041182
0.0241336
0.0928354
0.0245266
0.123962
0.0902003
0.00997389
0.0283823
0.0878213
0.0896789
0.10548
0.103838
0.0125374
0.041879
0.0863692
0.0142171
0.040475
0.0145075
0.0109818
0.0445347
0.0439094
0.0857416
0.0163799
0.0114099
0.00966982
0.104781
0.00484013
0.0584952
0.0550611
0.0125071
0.0216031
0.073767
0.0816254
0.0826608
0.00816464
0.0048051
0.00678532
0.100951
0.0457752
0.0169644
0.0798295
0.116914
0.0428971
0.0182523
0.0543873
0.0221414
0.121958
0.0743737
0.108226
0.0756881
0.0929033
0.045231
0.0445999
0.00547626
0.0170375
0.0232325
0.102627
0.0392382
0.0919412
0.0537405
0.0698362
0.104584
0.0869777
0.0993021
0.114994
0.0368941
0.0877628
0.00489778
0.0611243
0.0759795
0.103084
0.0233647
0.099911
0.023528
0.0994012
0.0773123
0.0361968
0.00237638
0.106287
0.104821
0.0869124
0.0760917
0.0682864
0.103164
0.0740235
0.102334
0.0465921
0.053703
0.0250667
0.00456938
0.0894215
0.1156
0.0148852
0.105825
0.0690022
0.0656051
0.0393239
0.0871087
0.041651
0.0976803
0.063292
0.0880348
0.0234708
0.0892651
0.0259129
0.118083
0.0699662
0.0430848
0.0866328
0.00775196
0.00420681
0.109256
0.0940695
0.00655863
0.0870453
0.0868174
0.10218
0.0104784
0.079194
0.0396692
0.0711996
0.0430437
0.0641786
0.068195
0.0165709
0.0114429
0.113642
0.00821544
0.0368782
0.0858256
0.0176788
0.0894623
0.0763522
0.0869392
0.0222197
0.0764644
0.00862023
0.0802228
0.0115832
0.0536739
0.0900849
0.010052
0.0268617
0.0857006
0.105575
0.0853805
0.0884834
0.0101925
0.00818378
0.102746
0.0411298
0.0249992
0.0315366
0.0109306
0.0367309
0.0830495
0.00960556
0.083198
0.102816
0.111194
0.0724897
0.00386815
0.10683
0.105002
0.0891706
0.00490202
0.0677426
0.102523
0.0763317
0.01539
0.0413761
0.00358857
0.00770594
0.0361096
0.0827916
0.0112768
0.00438118
0.0364712
0.108071
0.0157534
0.104805
0.110024
0.0144978
0.0282659
0.0224005
0.0255042
0.0234416
0.0384766
0.0313639
0.00518707
0.0285326
0.0106657
0.0373987
0.101049
0.0273558
0.099892
0.00655146
0.0046719
0.0222632
0.0400192
0.0445361
0.0374392
0.0899401
0.0333598
0.0894
0.102532
0.0694661
0.0160005
0.107292
0.0883848
0.0130471
0.0132516
0.0117023
0.0345994
0.0893417
0.0223032
0.0386882
0.102396
0.00680741
0.0580812
0.0242005
0.0389922
0.0281207
0.0218076
0.00223117
0.0163857
0.0675589
0.0979774
0.101599
0.0163767
0.00832867
0.0116403
0.0365
0.00240038
0.0938631
0.00896303
0.0189235
0.096177
0.0292505
0.0347899
0.0517755
0.0795279
0.0446438
0.0996622
0.0757033
0.0430328
0.0485939
0.0219715
0.06987
0.052981
0.0194476
0.0603622
0.00414563
0.0272538
0.0510578
0.0267774
0.0282532
0.0778952
0.069024
0.0508517
0.0450428
0.0415776
0.0717906
0.0710609
0.0852306
0.0290029
0.0504738
0.00670426
0.00403257
0.0578782
0.0246215
0.0151123
0.0634686
0.00469418
0.0987684
0.0215906
0.017024
0.110778
0.0293964
0.010036
0.0112092
0.106944
0.104683
0.010726
0.0114012
0.00700036
0.0759044
0.00586787
0.082061
0.00678276
0.0834129
0.0620524
0.00622995
0.0853259
0.0645853
0.0908801
0.0244249
0.092146
0.077806
0.00495768
0.0161009
0.0968103
0.102804
0.0222052
0.0377768
0.0188417
0.0033159
0.094996
0.109456
0.0410893
0.12041
0.0198295
0.10502
0.0865337
0.0177816
0.0827849
0.00833993
0.0786175
0.113656
0.0747393
0.0142187
0.0166836
0.0125887
0.0232424
0.0447744
0.068473
0.0911285
0.0396145
0.0309632
0.10948
0.0161871
0.0188803
0.0602997
0.0334785
0.0323164
0.0297988
0.00574679
0.104151
0.0170884
0.102097
0.094742
0.0803734
0.0107779
0.00367118
0.0795383
0.0882973
0.0975526
0.119198
0.0907075
0.00823535
0.050595
0.0273727
0.0158677
0.0387059
0.00877224
0.0803207
0.00958029
0.00589489
0.0817744
0.0921267
0.0891052
0.0159963
0.0264724
0.0239758
0.0783525
0.0256897
0.0813038
0.0800887
0.00799766
0.0483902
0.0138916
0.0914663
0.0450621
0.0104071
0.101307
0.027489
0.0659077
0.0176075
0.0518307
0.0516593
0.019949
0.0239959
0.100125
0.103421
0.0310859
0.00847942
0.0232383
0.0957661
0.0175453
0.0762597
0.0652058
0.0895152
0.00361312
0.0455414
0.0135223
0.0974177
0.00736376
0.0548653
0.0883412
0.00563998
0.0275224
0.0293474
0.0263613
0.0655052
0.0129913
0.058535
0.109705
0.0894528
0.0824251
0.0273135
0.0159725
0.0168734
0.107113
0.00382538
0.0654034
0.0933836
0.0581762
0.0372928
0.0508033
0.0241814
0.109728
0.00574289
0.0633453
0.11195
0.0995353
0.0524577
0.0655879
0.00508868
0.0394841
0.00865199
0.0558555
0.0566359
0.0358877
0.0869412
0.0879476
0.0964401
0.00668466
0.0158211
0.107556
0.0491195
0.00648844
0.0806553
0.0837367
0.11193
0.0948939
0.00823685
0.0991574
0.0103862
0.0254363
0.0973197
0.0894023
0.0150724
0.0771383
0.0156732
0.0565412
0.0529368
0.0931057
0.0060183
0.0174226
0.0750747
0.0191023
0.0884822
0.0445431
0.0761285
0.0868015
0.0993827
0.0840148
0.0665917
0.104564
0.0987798
0.0944489
0.0416579
0.0181397
0.00656282
0.099726
0.0244832
0.0456839
0.0454021
0.0773236
0.0810224
0.0644323
0.108597
0.0821065
0.0887492
0.0369202
0.046232
0.0966919
0.00413971
0.023948
0.0179127
0.090051
0.00478379
0.112785
0.107216
0.0977653
0.0668209
0.0389421
0.100116
0.0999898
0.102427
0.0392759
0.0973606
0.0436389
0.0710609
0.0393944
0.076045
0.0193575
0.046456
0.0784271
0.0325681
0.10119
0.00676355
0.0964508
0.0120292
0.0303427
0.0741722
0.05017
0.0614831
0.00233169
0.0811501
0.0995755
0.0299458
0.0316069
0.0605311
0.104127
0.107598
0.0724367
0.103459
0.0115384
0.0966789
0.00486351
0.0295308
0.0923176
0.0791018
0.10362
0.0744301
0.00954724
0.00671951
0.0731725
0.0127227
0.039642
0.107488
0.103834
0.0792013
0.0851099
0.0272495
0.0079263
0.0721535
0.067115
0.0404242
0.0566499
0.0282935
0.0667171
0.00420922
0.0110683
0.0174945
0.00667976
0.00165101
0.0264809
0.096388
0.105461
0.0320662
0.0796342
0.0708952
0.00827682
0.00612392
0.0886503
0.0374573
0.0627495
0.0799231
0.00215914
0.0822214
0.100786
0.103591
0.0997934
0.0722616
0.0687877
0.0831711
0.004027
0.107477
0.0442114
0.0881281
0.0819124
0.0737212
0.0456158
0.0324848
0.0812011
0.0860471
0.0970187
0.115002
0.00536846
0.0423203
0.0694851
0.0884443
0.0295682
0.00792157
0.0884226
0.075193
0.100877
0.0815052
0.0851265
0.111451
0.0297351
0.088734
0.0455434
0.0599123
0.0564346
0.0348109
0.102297
0.0961031
0.109329
0.0456962
0.0109193
0.0663293
0.0101529
0.0872393
0.102328
0.0167752
0.0439279
0.0728161
0.0968397
0.00395495
0.105639
0.0994699
0.0242288
0.0485799
0.0706477
0.0232143
0.0587005
0.00924665
0.0422295
0.0869794
0.104128
0.0523609
0.0487969
0.10022
0.0594671
0.0934161
0.10261
0.0458724
0.0274745
0.0095646
0.0498373
0.0926515
0.0762686
0.065681
0.0911526
0.101562
0.00708134
0.00648721
0.0809771
0.0757772
0.111713
0.0996706
0.0835449
0.0790283
0.0840461
0.0976366
0.0870903
0.0976103
0.0940677
0.0650618
0.0112995
0.0776789
0.0812562
0.0525891
0.0215842
0.114435
0.0539666
0.0934547
0.101157
0.0988495
0.0164502
0.00543608
0.0639945
0.0102409
0.0133465
0.00401832
0.00989823
0.0857607
0.045124
0.0812705
0.0819264
0.0891327
0.0790543
0.0870772
0.0786551
0.0129504
0.0485916
0.00728803
0.0762313
0.00508056
0.0407915
0.0496782
0.0987728
0.0337525
0.0221391
0.1079
0.102788
0.00522751
0.0192754
0.0160485
0.0832055
0.00653417
0.099285
0.0855682
0.0311743
0.0229259
0.0640679
0.00980144
0.0959674
0.0335755
0.0210276
0.0271564
0.00636241
0.00514354
0.049869
0.104885
0.0861108
0.00472122
0.0441989
0.0288187
0.054506
0.0151617
0.0324044
0.0262976
0.0859536
0.0850843
0.0312439
0.0293734
0.107984
0.0633505
0.101507
0.108891
0.085078
0.037085
0.00750934
0.09732
0.031066
0.0139725
0.0326716
0.0852834
0.00584869
0.06399
0.0428753
0.0897438
0.0429919
0.0395287
0.0266555
0.0439564
0.00532153
0.0795836
0.0128083
0.0432625
0.0162552
0.0284842
0.100309
0.0185616
0.0931396
0.0802538
0.0301428
0.0882176
0.0840787
0.0582605
0.00847499
0.00382855
0.102168
0.0110056
0.0802059
0.0398093
0.0847621
0.102592
0.0845989
0.0280339
0.103041
0.0290018
0.023207
0.0582719
0.00518833
0.0345765
0.0265968
0.100708
0.104753
0.0056268
0.00338361
0.00426542
0.101427
0.0833104
0.0421141
0.0370715
0.109879
0.0987249
0.00615281
0.0449334
0.0425747
0.100106
0.027683
0.0584105
0.00799507
0.098881
0.00825164
0.0691364
0.0871713
0.01688
0.111706
0.0839752
0.0409626
0.0426637
0.0266928
0.0511543
0.00281352
0.0882407
0.0430305
0.0136865
0.0401526
0.0251379
0.00716493
0.004179
0.0957096
0.053328
0.0907904
0.00353261
0.079809
0.0156382
0.0996545
0.00969343
0.00420498
0.0918096
0.0618775
0.0314835
0.0802231
0.0270406
0.0802199
0.0667847
0.102931
0.00510832
0.0414949
0.0958624
0.0990413
0.0853814
0.0869202
0.108563
0.0210947
0.101314
0.086715
0.0897846
0.0429812
0.0367901
0.0361567
0.102272
0.0364543
0.012716
0.0384272
0.0863169
0.0953022
0.0391984
0.0734758
0.0945453
0.0415836
0.0699539
0.106809
0.109876
0.0385588
0.102253
0.0718767
0.0608149
0.0883586
0.0969233
0.0598448
0.0903606
0.0756468
0.00523931
0.0106956
0.105672
0.0298796
0.0260308
0.063297
0.0636624
0.103004
0.103872
0.104251
0.0158056
0.0403348
0.0983296
0.0104894
0.0969364
0.101208
0.101104
0.102844
0.0219307
0.0063189
0.0128388
0.101386
0.0463436
0.016426
0.0611609
0.0900265
0.0809092
0.0459488
0.0173692
0.00962408
0.0340069
0.0833457
0.00859041
0.0337603
0.0150062
0.0362886
0.0896908
0.0223187
0.0969422
0.00671529
0.019798
0.105928
0.0359432
0.0852246
0.0179599
0.00550738
0.0777486
0.0986542
0.0270115
0.0248745
0.06012
0.0610505
0.0525377
0.0300187
0.0678631
0.0955752
0.0598831
0.0968612
0.0984114
0.0302496
0.0089327
0.0806834
0.0878621
0.0270879
0.0873494
0.0714168
0.0435683
0.104104
0.0200294
0.067934
0.0204166
0.0935466
0.0645152
0.00976008
0.0295402
0.0554422
0.0990501
0.0838324
0.0296606
0.00629895
0.0450651
0.0486849
0.0589005
0.0966339
0.0614777
0.0765052
0.0698124
0.046819
0.0241945
0.0290429
0.0828779
0.0637078
0.0756953
0.0731587
0.104747
0.031552
0.0779822
0.0093194
0.0427716
0.0304423
0.0763126
0.104091
0.00345538
0.00909198
0.0983351
0.010466
0.104363
0.0628612
0.0782171
0.0492216
0.0137756
0.102688
0.00623487
0.0928224
0.0969744
0.0861899
0.0920522
0.0222576
0.0425813
0.0169736
0.0764834
0.0889489
0.0609602
0.00396294
0.106698
0.0806975
0.0950489
0.0298814
0.0757616
0.0451836
0.0821286
0.0400018
0.0417183
0.0855761
0.0283626
0.105379
0.0445998
0.00816331
0.105743
0.0495268
0.0133398
0.0745862
0.0712243
0.0985502
0.0779581
0.0113138
0.013052
0.042684
0.047465
0.0388091
0.00669454
0.00617501
0.0680834
0.0950678
0.00663062
0.0453881
0.0819377
0.13232
0.0951718
0.0841781
0.0946968
0.0984757
0.0122965
0.0848567
0.0991951
0.0603845
0.0496001
0.0957775
0.00487273
0.092653
0.0169897
0.081366
0.0818247
0.0804208
0.076944
0.0663224
0.040383
0.0158857
0.103664
0.0203828
0.04579
0.0131575
0.0698922
0.0190411
0.0569885
0.08249
0.040462
0.0791215
0.0163702
0.10247
0.00530164
0.0765304
0.0904739
0.0835337
0.050001
0.0227176
0.0527553
0.0616077
0.00311934
0.089567
0.0830137
0.0516224
0.00724151
0.1047
0.0159552
0.0960443
0.0606766
0.00803839
0.0754753
0.0574401
0.0827439
0.0200665
0.0837485
0.0160554
0.0591882
0.0830357
0.0863722
0.0530826
0.0854366
0.077015
0.074756
0.0162037
0.0161876
0.0845314
0.10534
0.00608917
0.0617666
0.0790823
0.0208205
0.00313823
0.0282842
0.00486487
0.0838006
0.00810551
0.0856307
0.00832588
0.0794313
0.0955515
0.0988634
0.0885505
0.0177759
0.0652198
0.0648677
0.0431911
0.0807228
0.0578331
0.094066
0.102658
0.0102278
0.062886
0.0281095
0.0222348
0.0325129
0.0538245
0.0354189
0.0117519
0.0794661
0.0849364
0.0628183
0.0988662
0.100384
0.0192221
0.00606559
0.0392049
0.068188
0.063372
0.0946463
0.0964866
0.00646482
0.0432365
0.0649629
0.0699449
0.00766631
0.0990019
0.0978842
0.012342
0.0841094
0.0398535
0.047596
0.0515889
0.105638
0.0021349
0.0205277
0.0969756
0.0848379
0.0682026
0.00661423
0.073457
0.0119393
0.102293
0.0502906
0.0785277
0.015068
0.0521883
0.0679943
0.0244365
0.0776894
0.00779022
0.0588034
0.0212411
0.029753
0.0311939
0.00976386
0.0108982
0.075422
0.100479
0.0197363
0.0447585
0.0683669
0.0625903
0.0724123
0.100738
0.00616543
0.08399
0.0314601
0.100519
0.00385916
0.0427602
0.04836
0.079847
0.0197544
0.012699
0.0779955
0.0882414
0.0995097
0.0814101
0.0948616
0.0411879
0.0991092
0.00979557
0.0165354
0.0309263
0.0621648
0.0180761
0.050364
0.0260542
0.0135009
0.0808182
0.0626905
0.0818956
0.100607
0.0478343
0.0291719
0.100703
0.104942
0.0851847
0.0887289
0.101297
0.0721304
0.0894072
0.0770674
0.0963506
0.100419
0.0292486
0.00823441
0.0134214
0.0977329
0.00875499
0.0749806
0.106474
0.102762
0.100101
0.00574481
0.102124
0.081383
0.0965643
0.0826057
0.00421346
0.0729318
0.0969577
0.0439461
0.00518487
0.00423747
0.0324088
0.0873018
0.00654811
0.0167825
0.0982582
0.0284816
0.0635861
0.00816117
0.0977405
0.00205813
0.0965608
0.058986
0.106974
0.0907443
0.091221
0.0787415
0.0192083
0.0351227
0.0344857
0.0848701
0.0397561
0.0962355
0.101244
0.0844688
0.0234188
0.0367574
0.0484549
0.0935511
0.045758
0.0964597
0.0821709
0.037565
0.00631508
0.0962801
0.0976927
0.0667239
0.045135
0.0881489
0.00907816
0.050159
0.091243
0.0794674
0.00677157
0.0448699
0.0833972
0.0966187
0.027225
0.0157318
0.0846818
0.0211472
0.0290998
0.0743234
0.00831045
0.0843029
0.0632351
0.0993653
0.0473358
0.0109355
0.0345986
0.0034052
0.0813669
0.0965174
0.0740081
0.0728204
0.0317765
0.0294687
0.0870835
0.0851214
0.0454031
0.0608875
0.00757335
0.0933461
0.0364275
0.0364513
0.00641692
0.0890972
0.014203
0.0970585
0.083099
0.0866068
0.00787934
0.0804651
0.0166421
0.0736006
0.0908187
0.101351
0.0360516
0.0413965
0.0774867
0.00930048
0.0608604
0.0952709
0.0710211
0.0496499
0.0828983
0.082388
0.0297567
0.0316371
0.0816316
0.00766792
0.0240236
0.0141
0.0803725
0.0603462
0.0738214
0.0775886
0.0936113
0.0125817
0.0699522
0.00228271
0.0930802
0.00791387
0.00668286
0.0988426
0.0868154
0.0818747
0.0398397
0.0806979
0.0302384
0.0466405
0.0981653
0.0558755
0.0494288
0.0681542
0.0343647
0.0441371
0.0175103
0.0584405
0.0506378
0.0792367
0.0985893
0.0284145
0.0379368
0.0622669
0.0837532
0.075269
0.0791689
0.0981269
0.0621112
0.101759
0.0115688
0.04891
0.0372581
0.101234
0.00819614
0.108937
0.0788941
0.022254
0.0452639
0.0282408
0.00638521
0.0117885
0.0263062
0.0680062
0.08783
0.0772274
0.0277434
0.0990615
0.0233107
0.0219832
0.0796712
0.0579152
0.0460496
0.0999559
0.0947611
0.0955677
0.101945
0.0708111
0.0714466
0.00559268
0.0546324
0.0533182
0.0966993
0.0856379
0.00970027
0.0808387
0.0329813
0.0689037
0.0572229
0.0497525
0.0561457
0.00764274
0.0989345
0.0118
0.0200555
0.0772122
0.0858971
0.0778861
0.098793
0.0638677
0.0164387
0.0705054
0.0596447
0.0868655
0.00372861
0.00565817
0.0104669
0.0255446
0.017901
0.103545
0.100091
0.0267019
0.0716405
0.0297633
0.0363086
0.0223821
0.106499
0.0969584
0.0204569
0.0274505
0.078441
0.0969439
0.100446
0.0192644
0.0937582
0.100297
0.037955
0.0848353
0.09
0.0304303
0.0552753
0.041611
0.0963477
0.0150686
0.0891617
0.106666
0.0455428
0.0590321
0.0621417
0.090471
0.10603
0.0767562
0.0437408
0.0912476
0.00783708
0.029576
0.0967042
0.0161327
0.0839055
0.0507767
0.0122577
0.0825033
0.0464778
0.0284802
0.0851126
0.00696048
0.0161467
0.0405541
0.0428897
0.101307
0.107397
0.00711744
0.0260185
0.0461156
0.0203961
0.0925626
0.0935628
0.0113124
0.0222946
0.00427787
0.0101663
0.00724086
0.0270034
0.0689857
0.0568143
0.0946318
0.0868934
0.0961168
0.0999353
0.0985239
0.0108419
0.0723873
0.00309312
0.0261362
0.0872481
0.0849779
0.0936649
0.00629668
0.0830969
0.0926673
0.0620425
0.0815019
0.0990363
0.0795625
0.0156029
0.0393372
0.0813276
0.105257
0.0821979
0.0307979
0.0989062
0.0789717
0.0364909
0.0590512
0.027112
0.0894743
0.0653785
0.0875459
0.00607633
0.0100532
0.0426751
0.0421749
0.00273321
0.0862443
0.0777751
0.0273844
0.0362333
0.0915209
0.0826813
0.0627254
0.0148968
0.0476694
0.0568163
0.0863089
0.0930668
0.0993065
0.0253977
0.080837
0.0732921
0.093156
0.0393952
0.0694957
0.0876652
0.0192139
0.0826333
0.0583211
0.0952067
0.00768234
0.0215602
0.00945884
0.115854
0.0261553
0.0991224
0.0433752
0.0266666
0.0801535
0.00172649
0.0280269
0.0128205
0.0123148
0.100003
0.0120113
0.0734374
0.00693756
0.0158663
0.0830928
0.0880576
0.0952327
0.0442114
0.0610233
0.0902967
0.0171516
0.0884188
0.0860657
0.0026876
0.0997248
0.0289517
0.00645458
0.0152256
0.002795
0.0937459
0.0235151
0.00379835
0.00774776
0.0900021
0.00778371
0.0242478
0.10789
0.102947
0.0167589
0.00937911
0.0924002
0.0866511
0.0961464
0.0984462
0.00692553
0.00270788
0.0964392
0.102156
0.0861161
0.0043161
0.00916767
0.10184
0.0955764
0.00435507
0.0342641
0.0127109
0.00808834
0.101235
0.098111
0.0988752
0.107173
0.0952885
0.0789246
0.0983714
0.0703697
0.0509662
0.00244789
0.0579835
0.0345699
0.0686987
0.0122085
0.00453635
0.0286051
0.0777877
0.0873479
0.00686899
0.00806029
0.0447671
0.0583575
0.0301699
0.0277712
0.00943385
0.0154422
0.0235958
0.0301871
0.0934034
0.0457097
0.0240554
0.0136315
0.0125777
0.0739972
0.0806917
0.102524
0.0286144
0.00990054
0.0958274
0.0876399
0.0288662
0.00577871
0.0963249
0.0958396
0.0669137
0.0821829
0.0941246
0.00806903
0.07586
0.0885323
0.00918467
0.0681069
0.0287394
0.0133945
0.0171203
0.0462149
0.0843783
0.0421719
0.00993773
0.0121803
0.00663892
0.00222182
0.0134208
0.0865553
0.00676378
0.0977122
0.00589374
0.00723029
0.0956308
0.0737021
0.0193401
0.00632022
0.0646262
0.0883116
0.00997182
0.0704758
0.0738231
0.0966835
0.0612209
0.0874502
0.0166983
0.00486874
0.0991045
0.0587747
0.0333254
0.0627186
0.098915
0.0839088
0.0802792
0.0182939
0.097548
0.0275887
0.102125
0.0261969
0.0982547
0.0393157
0.00436871
0.0156081
0.00452884
0.0613135
0.0263893
0.00222007
0.0832971
0.0920993
0.0764476
0.0821013
0.0316652
0.0973992
0.047885
0.00744966
0.0976569
0.0700269
0.096805
0.0808767
0.0874452
0.0343061
0.00856013
0.00647028
0.0971055
0.0109316
0.0856388
0.0843381
0.0613189
0.0273432
0.0851066
0.0314292
0.0941533
0.0395323
0.00706733
0.0980574
0.0512612
0.0113003
0.00980928
0.0355554
0.0868733
0.00428291
0.046116
0.0958625
0.0672633
0.087784
0.082185
0.0137369
0.0602837
0.00960832
0.00842261
0.101523
0.0877296
0.0851869
0.0684875
0.09766
0.0978907
0.0281343
0.0702454
0.00836823
0.00446265
0.0423265
0.00421049
0.0322289
0.0280415
0.0475212
0.00424569
0.0972849
0.0393192
0.0395357
0.0853039
0.0393423
0.0268747
0.0518458
0.0494845
0.0062591
0.00593419
0.087563
0.0173532
0.0971537
0.0623544
0.0570914
0.0216128
0.0877952
0.0936797
0.0838199
0.00573185
0.0614169
0.0229711
0.0462369
0.089079
0.0959259
0.00973598
0.0433636
0.0303532
0.00854396
0.0870842
0.0356172
0.00611554
0.0560478
0.0859245
0.0937756
0.0088153
0.0620068
0.0755325
0.0844454
0.0837446
0.0384419
0.0871901
0.0170235
0.0916761
0.0702474
0.00319375
0.0439606
0.0249302
0.0781569
0.0632859
0.0195007
0.0985165
0.00894818
0.0980718
0.0294948
0.091212
0.0279098
0.0227322
0.0878756
0.0537088
0.10007
0.00674352
0.04772
0.0145443
0.0936272
0.0832502
0.0505794
0.00498837
0.0799951
0.0842503
0.10195
0.063142
0.0340273
0.0888973
0.0817326
0.0899004
0.0755203
0.0124742
0.016538
0.0936786
0.0103584
0.0329493
0.0102545
0.0923953
0.0207968
0.102821
0.102049
0.0386718
0.0146401
0.0597483
0.0936073
0.0168696
0.0441665
0.00354592
0.035777
0.0233277
0.00435858
0.0853029
0.0239277
0.0861933
0.0781964
0.0445289
0.095094
0.00270763
0.0930029
0.0994071
0.0348426
0.0611317
0.0267764
0.0836972
0.06224
0.0662495
0.0404241
0.0405035
0.0988033
0.0445432
0.0061802
0.0050669
0.0876362
0.0476494
0.00377694
0.00472341
0.046003
0.088611
0.0828314
0.102471
0.097013
0.0543464
0.0684357
0.094176
0.0980025
0.0857882
0.0868361
0.0113302
0.0432306
0.0573652
0.0472371
0.00878127
0.00821071
0.0263415
0.0353479
0.0151266
0.0111806
0.0838467
0.0270283
0.0720662
0.0418662
0.114111
0.098944
0.0942638
0.0770529
0.0875985
0.0767447
0.0389169
0.0979928
0.0202619
0.0625957
0.0651813
0.0619695
0.0972191
0.0114327
0.0357343
0.0933577
0.0181895
0.0329104
0.00805998
0.0913194
0.0755003
0.0431297
0.0509495
0.0395307
0.09866
0.0992313
0.0796495
0.0989914
0.0909953
0.0818262
0.0837218
0.0062455
0.0343803
0.00496976
0.0877641
0.00808971
0.0096041
0.0657636
0.0825604
0.069249
0.0967749
0.0617298
0.099718
0.0465413
0.0890329
0.0874002
0.00536226
0.100222
0.0135774
0.0982603
0.0996913
0.0956261
0.0697522
0.0712479
0.0919049
0.0988202
0.0303325
0.0136184
0.024346
0.0084957
0.0915502
0.0666613
0.0273104
0.00287667
0.0804724
0.0428311
0.00845109
0.0989229
0.0101012
0.06437
0.0789004
0.00760076
0.101159
0.0904018
0.0853698
0.092773
0.0978973
0.0207884
0.0896957
0.0936553
0.0958886
0.0609484
0.00839078
0.0954042
0.00923177
0.0731908
0.08048
0.0100686
0.0109994
0.0302568
0.100976
0.0675965
0.100378
0.0133794
0.0237935
0.00854456
0.0281308
0.0282801
0.086606
0.0117635
0.0797116
0.0995486
0.00330636
0.00314342
0.00618975
0.0887129
0.0613398
0.0206912
0.0969103
0.0292449
0.100864
0.0159286
0.0279077
0.00655422
0.0169683
0.00352618
0.0408856
0.0106562
0.00967656
0.0911849
0.0845823
0.0183184
0.0825097
0.00454027
0.0292351
0.00805359
0.00554805
0.0963922
0.0907479
0.0503249
0.0246012
0.0417438
0.0464296
0.0585532
0.0631916
0.0920243
0.0537309
0.00409144
0.0340062
0.00459697
0.0862679
0.0768157
0.0217368
0.0156799
0.0424494
0.0429134
0.0573998
0.0991269
0.00322964
0.0626042
0.0153972
0.0607113
0.0433267
0.0971658
0.0923322
0.0139449
0.0988481
0.0649707
0.0843835
0.0687224
0.0023187
0.0886179
0.0682142
0.0377603
0.0895831
0.00767562
0.0838578
0.0567051
0.0202853
0.0407274
0.0934701
0.00899601
0.00753643
0.0965514
0.0619203
0.097289
0.0956705
0.0549656
0.100348
0.108956
0.0967049
0.00604772
0.0397636
0.0342609
0.0109263
0.0282174
0.0499851
0.0936031
0.0264295
0.0701464
0.0917811
0.0319645
0.0660899
0.0999643
0.0994423
0.0723494
0.0585337
0.0691161
0.0976707
0.0870058
0.0994209
0.0628302
0.10039
0.0537961
0.0077027
0.0273576
0.0205835
0.00860738
0.096851
0.0661722
0.0112876
0.0085198
0.0988255
0.0163892
0.0166819
0.100775
0.0702293
0.0796055
0.0960456
0.0580304
0.0946202
0.0969406
0.0483902
0.0681118
0.0224171
0.0106568
0.0428034
0.0679816
0.0637555
0.0991574
0.0122432
0.00683046
0.080132
0.0896254
0.0984136
0.0982923
0.0393743
0.0114735
0.0713044
0.0704635
0.02648
0.0691026
0.0471392
0.0881146
0.12713
0.00519877
0.0768933
0.0882459
0.0894415
0.0789661
0.0502199
0.0962349
0.0983263
0.0211973
0.00850072
0.019628
0.0336874
0.0472248
0.0244777
0.0281266
0.0578554
0.0100888
0.0912417
0.0146517
0.102074
0.04313
0.0936879
0.00847842
0.026354
0.0827364
0.0481227
0.0830868
0.0824442
0.0721533
0.102138
0.0623686
0.0991931
0.0302004
0.0977966
0.0454688
0.00620144
0.0848311
0.102358
0.0284342
0.00331543
0.0985682
0.0294789
0.00777335
0.0140577
0.0093614
0.0867737
0.0522226
0.0952891
0.0701309
0.0977269
0.0890576
0.0449636
0.00835281
0.0352506
0.00593474
0.00312881
0.0574023
0.0191424
0.0130438
0.0539027
0.100511
0.0469063
0.0559592
0.0870633
0.10122
0.026807
0.0967163
0.00559099
0.0546953
0.037811
0.0290825
0.0347899
0.0602695
0.0922569
0.00445683
0.0624765
0.00328897
0.0146448
0.031134
0.0104381
0.0547983
0.0871744
0.0506268
0.0812605
0.0302663
0.0955761
0.100079
0.0786397
0.0447144
0.0429153
0.0662253
0.0119589
0.0978125
0.00475007
0.0867953
0.0586086
0.0277555
0.10073
0.00395228
0.0176645
0.0328909
0.00660855
0.0994318
0.0184459
0.00726673
0.0981911
0.00567536
0.013296
0.0961876
0.0246071
0.0866751
0.0830999
0.00745018
0.0533898
0.0433795
0.0750647
0.0704037
0.0892848
0.0295587
0.00966698
0.0712625
0.0433069
0.0420015
0.012789
0.0514371
0.00635582
0.00646687
0.0114303
0.100227
0.00355153
0.050248
0.0895355
0.0112176
0.0107276
0.00229328
0.00647957
0.00251112
0.0962755
0.0352446
0.0956652
0.098744
0.00427021
0.0999681
0.0246174
0.0777066
0.0114913
0.089244
0.00887629
0.100509
0.097069
0.0788581
0.0121841
0.0143249
0.0857291
0.030103
0.094871
0.0288839
0.00817303
0.0276812
0.00712911
0.0681826
0.0144116
0.036849
0.0166268
0.0481625
0.0439495
0.0819146
0.0694739
0.00967374
0.0442302
0.00269032
0.0708877
0.0868015
0.0321181
0.0181808
0.064824
0.00258481
0.0709117
0.00921917
0.0447459
0.00855111
0.0776
0.00780602
0.0696675
0.0116833
0.0139429
0.0988371
0.0858721
0.0387835
0.00709553
0.0956419
0.0583844
0.056508
0.0976562
0.0152269
0.00301023
0.00834759
0.0513943
0.102742
0.0692607
0.0140456
0.0316753
0.00199307
0.0147987
0.101805
0.0966738
0.0543086
0.0840676
0.0175865
0.00490391
0.0958145
0.0168688
0.0292998
0.00328091
0.00603718
0.085932
0.0210276
0.0959566
0.0629339
0.0239008
0.0101702
0.0286802
0.00601317
0.0392619
0.006038
0.00853551
0.00571088
0.00844908
0.00321753
0.0432522
0.0479275
0.00247353
0.00286244
0.0492167
0.0152786
0.00964593
0.00954926
0.0960589
0.044638
0.0576551
0.0292466
0.08905
0.0852671
0.0108344
0.0416514
0.100653
0.0930286
0.0234465
0.00293113
0.0897633
0.100008
0.0962743
0.006791
0.0976231
0.0348616
0.0291247
0.0876766
0.0534087
0.095045
0.0553012
0.0290939
0.0247793
0.0604336
0.0112305
0.0956105
0.00410521
0.0110843
0.00716103
0.0866131
0.0403539
0.0840292
0.0369156
0.00613304
0.0687685
0.0228527
0.0711583
0.0992575
0.00602908
0.098386
0.0974477
0.0373344
0.0171166
0.0862245
0.00230912
0.0167388
0.0890812
0.0966044
0.0929917
0.0624287
0.00635053
0.00174782
0.0181665
0.00306432
0.00593812
0.037705
0.0190346
0.0372613
0.0572909
0.0967387
0.0917715
0.0700283
0.0140593
0.0890395
0.0025464
0.0985477
0.0518287
0.0513437
0.0835619
0.0590535
0.0776674
0.0408365
0.0105095
0.0966667
0.00425375
0.0107525
0.097363
0.0964657
0.0221439
0.00328629
0.0362003
0.00781165
0.106906
0.0448809
0.00176845
0.0213582
0.0378202
0.0913511
0.0712383
0.0487876
0.0450636
0.0574255
0.038806
0.0626289
0.00240158
0.0872326
0.0816492
0.0717303
0.0961053
0.00419155
0.0502907
0.102687
0.00593598
0.0783925
0.00234809
0.0462989
0.0485035
0.100919
0.0439119
0.0891993
0.100218
0.100225
0.00975448
0.0570033
0.0284115
0.0813392
0.0168598
0.0991876
0.0137962
0.0169423
0.00575243
0.0822796
0.0566374
0.0614981
0.0983815
0.0695707
0.0851779
0.100467
0.0878293
0.0661361
0.0979222
0.047317
0.0937343
0.0155477
0.0822632
0.0191795
0.0778418
0.073398
0.0947504
0.0463185
0.00650831
0.0979339
0.0652057
0.082373
0.0115483
0.0798892
0.00711271
0.00422066
0.0166233
0.091706
0.003432
0.00670503
0.0576318
0.0869865
0.0984206
0.0566026
0.00840692
0.00824773
0.0595003
0.0210344
0.0109148
0.00202249
0.0874738
0.0889777
0.0922114
0.0948738
0.0440108
0.0118111
0.0958551
0.0142023
0.101228
0.00413175
0.0917835
0.0219384
0.00857014
0.0221366
0.0990245
0.0565763
0.00230614
0.0541159
0.0902826
0.00648122
0.0031179
0.00932081
0.0962733
0.100179
0.00732379
0.00562036
0.0241619
0.00806725
0.0478343
0.0281093
0.0437254
0.00466687
0.0821936
0.096811
0.0852898
0.0880564
0.101719
0.00590401
0.0114834
0.0883095
0.0780724
0.0862257
0.00500044
0.0182383
0.0119362
0.0705763
0.0845689
0.00582981
0.042481
0.0626358
0.0726134
0.0989513
0.0632186
0.0988158
0.0997472
0.00571567
0.00653759
0.0966155
0.0106
0.0878916
0.0191745
0.0863367