/*--------------------------------*- C++ -*----------------------------------*\
| =========                 |                                                 |
| \\      /  F ield         | OpenFOAM: The Open Source CFD Toolbox           |
|  \\    /   O peration     | Version:  v2012                                 |
|   \\  /    A nd           | Website:  www.openfoam.com                      |
|    \\/     M anipulation  |                                                 |
\*---------------------------------------------------------------------------*/
FoamFile
{
    version     2.0;
    format      ascii;
    class       volScalarField;
    location    "450";
    object      k_0;
}
// * * * * * * * * * * * * * * * * * * * * * * * * * * * * * * * * * * * * * //

dimensions      [0 2 -2 0 0 0 0];


internalField   nonuniform List<scalar> 
18355
(
0.000296195
0.000137169
0.00044938
0.00014096
0.000207127
0.00761835
0.000152303
0.000207337
0.000151519
0.000794076
0.000159207
0.000186357
0.000187683
0.000388122
0.000143048
0.00013547
0.000140945
0.000155117
0.00022668
0.000157427
0.000393539
0.000149072
0.000137098
0.00830911
0.000137181
0.00014965
0.000152705
0.000141123
0.000151997
0.000160788
0.00302312
0.000191858
0.000137923
0.000134281
0.000154888
0.000151444
0.000160793
0.000151786
0.000161838
0.000148063
0.000151934
0.000160488
0.000134428
0.000136969
0.000137082
0.000367394
0.000141386
0.00014125
0.00242669
0.000147628
0.000141944
0.000421485
0.000147884
0.000228697
0.00014321
0.000158147
0.000151364
0.000795023
0.000150349
0.0480882
0.000134376
0.000183032
0.00022869
0.000149115
0.000206076
0.000140408
0.000155132
0.000160959
0.000134073
0.0140518
0.000144466
0.000143245
0.000180626
0.000157909
0.000253075
0.00013421
0.000854077
0.00013431
0.000144056
0.000250845
0.000155013
0.000254536
0.000134169
0.000157616
0.00018761
0.00014661
0.000154751
0.000176957
0.000141014
0.000177219
0.000687283
0.000348171
0.000252405
0.000147673
0.0134367
0.000153132
0.00014036
0.000149734
0.000193836
0.000148559
0.000184841
0.000143442
0.000147359
0.000130947
0.000155631
0.000135591
0.000205738
0.0124242
0.00016873
0.00013504
0.000147094
0.000146967
0.000171019
0.000156978
0.0165614
0.000162945
0.000143089
0.000264667
0.000152681
0.000154605
0.0136424
0.000529587
0.0006509
0.000182769
0.000264624
0.00235666
0.000152766
0.000141311
0.000302078
0.000147474
0.000140457
0.00246277
0.000143659
0.000189057
0.000223263
0.000141171
0.000226304
0.0140974
0.000142482
0.000372269
0.00015786
0.000208956
0.000141194
0.000615654
0.000224551
0.000146905
0.054899
0.000133036
0.000170611
0.00464147
0.00014104
0.000154432
0.00014629
0.000179279
0.000134536
0.000138387
0.000141493
0.000146544
0.000141277
0.000139397
0.000155935
0.000143782
0.000135108
0.00019151
0.000158596
0.000618221
0.0549652
0.000329069
0.0111433
0.000157827
0.000148026
0.000187656
0.000145823
0.00210358
0.000153579
0.000151289
0.000146257
0.000130765
0.000151665
0.000164991
0.000146954
0.000488354
0.00014834
0.000141425
0.000348555
0.000147318
0.000148247
0.000176492
0.000143397
0.000153625
0.000697359
0.000192863
0.000137477
0.000135084
0.000143935
0.0241428
0.000139462
0.000339764
0.000137274
0.000363099
0.000146929
0.000153498
0.000162275
0.000146923
0.00031984
0.000146763
0.00955286
0.000141393
0.000137268
0.000145205
0.000146609
0.000547216
0.000155477
0.000151311
0.000133504
0.0017067
0.000165092
0.000157288
0.000146939
0.000141556
0.000167439
0.000134412
0.000174512
0.000196731
0.000186329
0.000165661
0.000134582
0.0136977
0.000270173
0.000174203
0.000149615
0.000155676
0.00201785
0.00013458
0.000191995
0.000169836
0.000149266
0.00100868
0.000155902
0.000151276
0.000137517
0.000151385
0.000148431
0.000171859
0.000146755
0.000143208
0.00014114
0.000588321
0.00368434
0.000145771
0.000152172
0.00364536
0.000200422
0.000204719
0.000130738
0.000305284
0.000155939
0.0001479
0.00016505
0.000140011
0.00474749
0.000516763
0.000189947
0.000162081
0.000163575
0.000223691
0.00019979
0.000197309
0.000139973
0.00014325
0.000155025
0.000135101
0.000153799
0.000157549
0.000140762
0.000146648
0.000173498
0.000140995
0.000207917
0.000683604
0.000168097
0.00014681
0.000164378
0.000134979
0.000177182
0.00014617
0.000166806
0.000149166
0.000165489
0.00420001
0.000137586
0.000174855
0.000152301
0.000164692
0.000200057
0.000145385
0.000134909
0.000204422
0.000146634
0.000208585
0.000160694
0.0108808
0.000177334
0.000190745
0.000154102
0.000177282
0.000146606
0.000154429
0.000161539
0.000174974
0.00108906
0.0332175
0.000142526
0.000161001
0.000221666
0.000165687
0.000142447
0.000141199
0.00014112
0.000173375
0.0304692
0.0582216
0.00101598
0.000172374
0.000157172
0.000241667
0.000132676
0.000146554
0.0001571
0.000144227
0.000174366
0.000154877
0.000316534
0.000135901
0.00027288
0.000143655
0.000147893
0.000155453
0.000190901
0.000359435
0.000172051
0.000794183
0.000148637
0.00014115
0.000144119
0.000164588
0.00110472
0.000141359
0.000145659
0.00429246
0.000148391
0.000141537
0.000197856
0.000161338
0.000141131
0.000148702
0.000168256
0.00015274
0.000168088
0.000136489
0.000145596
0.000148322
0.0427959
0.00111582
0.000136183
0.000140984
0.000203165
0.000141185
0.000145608
0.00025657
0.00116464
0.000179292
0.000143972
0.000149498
0.000188226
0.000151232
0.000332115
0.000154551
0.000136681
0.000198349
0.000197917
0.000147829
0.00014438
0.000155165
0.000146757
0.000157183
0.00014388
0.0002353
0.000148444
0.000153824
0.000142752
0.000141185
0.0001534
0.000157176
0.000180805
0.0622769
0.00141559
0.000161492
0.000200483
0.000181569
0.000143883
0.000153776
0.000172958
0.000143412
0.000180887
0.00015109
0.000162511
0.00023903
0.000864591
0.000349093
0.000194391
0.000131162
0.048671
0.000148596
0.000140697
0.000492701
0.00014319
0.000179245
0.000156244
0.000214714
0.000143157
0.000186082
0.00217381
0.000187024
0.000144564
0.000137667
0.000188036
0.000152699
0.000145797
0.000684154
0.00021663
0.000140633
0.000173407
0.000181002
0.000137586
0.000149081
0.000169757
4.09977e-05
0.000175076
0.000148359
0.000146837
0.000169359
0.000144926
0.000136074
0.000147551
0.000208344
0.0632371
0.000136444
0.000148588
0.000145401
0.000193045
0.00019734
0.000135175
0.000179544
0.000174823
0.000145294
0.0281654
0.000183712
0.000148588
0.000146516
0.000173807
0.000194292
0.00432142
0.000136194
0.000367076
0.000143016
0.000136417
0.000179947
0.000153155
0.000237368
0.000180773
0.000154211
0.000159541
0.000149116
0.000196892
0.000153159
0.000160603
0.000148725
0.000135936
0.000147997
0.000136143
0.000184443
0.0629944
0.000214762
0.000156294
0.000146993
0.000148681
0.000146965
0.000154035
0.000150912
0.000137257
0.000143812
0.000177204
0.000137636
0.000150898
0.00311052
0.000346914
0.000223422
0.000147312
0.000147998
0.000169967
0.000148835
0.00516676
0.00515222
0.000159656
0.000157772
0.000161294
0.00015061
0.000154882
0.058354
0.000170192
0.000150075
0.00573353
0.00014747
0.00034581
0.0474837
0.000156556
0.000148838
0.059041
0.000140833
0.000185359
0.000193611
0.00112419
0.00015315
0.000147835
0.000145169
0.00333746
0.00322848
0.000820919
0.00135347
0.000153862
0.000145036
0.000157623
0.000143262
0.000158372
0.000377405
0.00139459
0.061481
0.0126079
0.000173363
0.000187258
0.000173575
0.000141438
0.000142424
0.000177379
0.00015953
0.000146363
0.00014321
0.000290102
0.000140302
0.0100683
0.000164116
0.000185643
0.000189977
0.000142474
0.000156967
0.000313334
0.000143771
0.0578202
0.000143669
0.000315302
0.000170325
0.000149789
0.00017296
0.000196086
0.000196205
0.000147601
0.00013417
0.000168202
0.000156889
0.00018652
0.000143582
0.000183026
0.000140262
0.00313234
0.000157417
0.000144005
0.000201125
0.000174811
0.000191676
0.000152108
0.00015861
0.000161728
0.000319941
0.0603373
0.000156071
0.000211871
0.00014836
0.000164107
0.000147944
0.000155687
0.0477467
0.000136906
0.00139388
0.000146573
0.000147625
0.00015636
0.00523115
0.000154164
0.000214152
0.000154357
0.000167226
0.00286842
0.000133002
0.000141198
0.000337284
0.000176393
0.00279647
0.000182241
0.000147464
0.00014322
0.000145158
0.000157834
0.000149004
0.000151205
0.000246321
0.0148132
0.000143783
0.00338764
0.00098492
0.000157179
0.0009712
0.000136298
0.000284108
0.00483808
0.00013532
0.00262618
0.000171302
0.0457499
0.000345102
0.000146487
0.000145165
0.000145791
0.00045129
0.000173095
0.000145004
0.000149121
0.000242175
0.000148333
0.00017203
0.000146449
0.000169701
0.0556507
0.003277
0.000191104
0.0030211
0.000178561
0.000852741
0.000157782
0.000140892
0.000161569
0.000349183
0.000179221
0.00017138
0.000144762
0.000262203
0.00014559
0.000147661
0.0267258
0.000146501
0.00016266
0.000209144
0.00020868
0.000144711
0.000142968
0.000156192
0.000159543
0.000134615
0.000151597
0.000176228
0.000233962
0.000153683
0.000145407
0.000180321
0.00187607
0.000144186
0.00290725
0.0212896
0.000145185
0.000449005
0.000135371
0.000152433
0.000143754
0.000161237
0.000265313
0.000153688
0.00022543
0.000153305
0.000142984
0.000473309
0.000143727
0.000134866
0.000145974
0.000140998
0.00016367
0.000174726
0.000362782
0.000149772
0.0585919
0.000154377
0.00305323
0.000710575
0.000149234
0.000144076
0.000158613
0.000139138
0.00018879
0.000142663
0.000134741
0.000135813
0.000144816
0.000143693
0.00804377
0.000157101
0.000176521
0.000157588
0.000160784
0.000154921
0.000171454
0.000699379
0.000137587
0.000183564
0.000183204
0.000134733
0.00127378
0.0558425
0.000142869
0.00290296
0.000149265
0.00205103
0.000167095
0.000135099
0.000168457
0.000160516
0.00298634
0.000143763
0.000155168
0.00223709
0.000225121
0.000286399
0.00014366
0.00112498
0.000179404
0.000279006
0.000143592
0.000152506
0.000145652
0.000146034
0.000142304
0.000154609
0.000136902
0.00303429
0.000172472
0.000141329
0.000134225
0.000145107
0.000148067
0.000219467
0.000179332
0.000137558
0.000159547
0.000146619
0.000146822
0.000150804
0.000141096
0.000230063
0.000134261
0.000140545
0.000147998
0.000147072
0.000155608
0.000151539
0.0094416
0.000327872
0.000156359
0.000140403
0.000192367
0.000134635
0.000134312
0.000151375
0.000287474
0.000155881
0.000148247
0.000136058
0.000137359
0.000158562
0.000134026
0.000162193
0.000142556
0.00014805
0.000142193
0.000152297
0.000376664
0.000140853
0.000148789
0.000143844
0.000236891
0.00112634
0.00015967
0.000148985
0.000181619
0.000165404
0.000228557
0.0573685
0.000146947
0.00192832
0.000148905
0.0182026
0.000151267
0.000136963
0.000137987
0.013082
0.000137255
0.000159922
0.000198052
0.000201501
0.000185432
0.000155549
0.0001426
0.000152621
0.000143995
0.000161027
0.000197574
0.0002903
0.000177978
0.000145545
0.000134082
0.000157707
0.000142114
0.000142194
0.000148458
0.000176714
0.000168495
0.000251822
0.000145462
0.000144479
0.000176863
0.000143268
0.000194541
0.000178097
0.000179739
0.000197395
0.0493533
0.000166061
0.000141446
0.000134129
0.000147618
0.000143062
0.0138191
0.000173402
0.000188485
0.000137033
0.000146919
0.000155713
0.000142577
0.0559915
0.000180015
0.000134356
0.000137692
0.000142293
0.000142325
0.000141398
0.000148488
0.00123745
0.000136477
0.00015048
0.000137077
0.000138204
0.000142443
0.000145845
0.00016235
0.000138157
0.000174028
0.000136054
0.00355686
0.00120696
0.000155275
0.00336445
0.000159591
0.000148867
0.000182495
0.000399434
0.000144736
0.000140136
0.000137215
0.000179395
0.000148754
0.000165958
0.000303312
0.000146226
0.000150168
0.000144763
0.0183912
0.000695747
0.000149717
0.000139341
0.00016029
0.000177025
0.000142548
0.000194973
0.000140554
0.000134401
0.000156633
0.000279924
0.00081315
0.00169518
0.00191638
0.00013488
0.000315961
0.000225526
0.000162654
0.000143979
0.000225572
0.000159635
0.000244215
0.000283805
0.00014758
0.000134914
0.000144802
0.000150552
0.000135106
0.00270395
0.000806426
0.000134555
0.000146406
0.000148727
0.000169341
0.000144537
0.000143527
0.000191083
0.000155169
0.000145472
0.00134269
0.000195756
0.000188685
0.000142877
0.000135965
0.000134757
0.000145358
0.000170615
0.000181719
0.000141184
0.00013903
0.000161226
0.00107422
0.00013725
0.000144031
0.000195404
0.000141543
0.000139523
0.000143688
0.0201941
0.000135755
0.00014457
0.000137323
0.000171744
0.000135777
0.000159589
0.000195507
0.000144064
0.00022859
0.000164507
0.000214147
0.000184519
0.000140963
0.000164554
0.000141189
0.000139387
0.000140933
0.000230135
0.00555213
0.000195421
0.000160898
0.0022981
0.000182632
0.000157181
0.000196772
0.000198663
0.000157542
0.000136477
0.00573081
0.000150244
0.00014008
0.000138214
0.0209527
0.0109062
0.00038331
0.000139266
0.000185585
0.00345745
0.000172253
0.000171757
0.000155983
0.000155646
0.000166381
0.00170624
0.00015172
0.00015039
0.000157702
0.0425791
0.00728483
0.000144462
0.000150085
0.00014653
0.0538107
0.000155077
0.000148302
0.00176691
0.00015952
0.000180871
0.000155899
0.00437182
0.000138944
0.0198098
0.000149901
0.000137281
0.000141536
0.00013754
0.000137347
0.000141369
0.000147779
0.00545778
0.000138076
0.0205058
0.000160035
0.000147559
0.000140702
0.000194772
0.000143754
0.000146426
0.000163611
0.00343214
0.000207127
0.000153695
0.000146338
0.0570948
0.000138918
0.000179487
0.000146133
0.000403345
0.00017297
0.00383359
0.000160906
0.000145718
0.00020375
0.000525488
0.000201999
0.000137984
0.000143623
0.000168175
0.0484815
0.000132186
0.000181048
0.000179184
0.000160395
0.000140989
0.000135181
0.000155919
0.000150122
0.000136168
0.000181363
0.000177283
0.000162352
0.000192138
0.00800326
0.00015044
0.000842521
0.00013821
0.00018774
0.0464279
0.000204377
0.000135004
0.000154101
0.000145918
0.00620905
0.00015251
0.000140745
0.000185439
0.000146229
0.000146159
0.000151895
0.000149685
0.000143075
0.0488271
0.00634029
0.000183265
0.000139495
0.000145559
0.000259989
0.000138562
0.000338506
0.000147037
0.000145735
0.000149339
0.000159485
0.000253893
0.000174896
0.000145173
0.000349575
0.000146764
0.000148451
0.000168268
0.0561026
0.00173418
0.000144477
0.000146424
0.0452993
0.000360398
0.000303723
0.000148881
0.000166106
0.000206726
0.000137944
0.000224186
0.000151774
0.000183198
0.000154842
0.000146463
0.000156958
0.000137451
0.0604502
0.00014505
0.000139503
0.00103143
0.000187467
0.000322782
0.000136972
0.000152063
0.00013668
0.000134384
0.000136083
0.000150934
0.000146724
0.000148273
0.000137529
0.000148001
0.000180345
0.000162583
0.000166923
0.000141453
0.000154135
0.000142229
0.00410524
0.000147241
0.000156016
0.000145699
0.000138006
0.000148117
0.000157244
0.000144212
0.000143614
0.000142617
0.000136133
0.0130262
0.00174231
0.000144704
0.0601516
0.000168719
0.000146861
0.000147787
0.000150339
0.00874637
0.00015005
0.000138175
0.000134503
0.000134904
0.000324601
0.000144991
0.000136978
0.000238009
0.00013421
0.000137888
0.000174601
0.00018495
0.000238464
0.000198078
0.00101724
0.000139555
0.0104358
0.000158748
0.000143338
0.000136966
0.000169443
0.000143245
0.000166418
0.000185471
0.00015254
0.000149309
0.0290603
0.000195846
0.000364116
0.0123384
0.000299035
0.00025146
0.000140376
0.00279743
0.0183774
0.000134985
0.00877961
0.000139258
0.000151005
0.00019046
0.00014151
0.000194137
0.000158799
0.000152717
0.000148723
0.000241838
0.000143951
0.0220935
0.000142967
0.000136283
0.00733439
0.000138756
0.000148252
0.000148654
0.000182336
0.00014234
0.000144168
0.000153144
0.000370755
0.000144454
0.000144931
0.000136887
0.000155364
0.000142516
0.000150997
0.000401932
0.000141811
0.000158373
0.000147888
0.000158633
0.000157864
0.000140542
0.000149012
0.000186461
0.000146783
0.000148921
0.000162354
0.00439768
0.000151008
0.000141863
0.000144058
0.000165253
0.000240209
0.000150355
0.000141041
0.000141724
0.000138025
0.000134147
0.000136722
0.000159131
0.000188659
0.000183318
0.000146466
0.000475319
0.000140233
0.000153606
0.0567076
0.000171986
0.000134623
0.000196901
0.000152485
0.000141024
0.000307532
0.000147922
0.000179618
0.000133989
0.000201961
0.000139775
0.000135378
0.000136059
0.00034371
0.000257217
0.000146593
0.000276583
0.000135855
0.000144068
0.000139354
0.000190874
0.000147022
0.000138833
0.000160697
0.000152238
0.00014306
0.000145658
0.000141529
0.00014871
0.000146401
0.000140985
0.000153915
0.000137004
0.000313569
0.000184276
0.000136555
0.000251838
0.00015912
0.000141043
0.000140456
0.000149384
0.000141901
0.000162804
0.000156412
0.000204156
0.00020531
0.000147296
0.000179845
0.000203494
0.000143245
0.000153674
0.00018898
0.000156232
0.00431625
0.000135642
0.00014461
0.000155832
0.000155214
0.000154423
0.000158047
0.000140604
0.000218435
0.000144442
0.000156859
0.000140592
0.00018586
0.00014508
0.000155087
0.000185863
0.000145812
0.00021129
0.00172503
0.000157668
0.000161481
0.000164475
0.000136549
0.000206061
0.000145472
0.000170108
0.00160665
0.0115283
0.000232352
0.000223725
0.000167239
0.000144088
0.000167451
0.000138694
0.0558032
0.000185253
0.000147663
0.000141841
0.000249288
0.000179116
0.000142943
0.000143459
0.0401466
0.000148219
0.000138736
0.011588
0.000175854
0.000134867
0.000269516
0.00013613
0.000244603
0.0001777
0.000143096
0.000144404
0.000162376
0.00122599
0.000141004
0.000160146
0.000144384
0.000143116
0.000140159
0.000384958
0.000148742
0.000149816
0.000145936
0.000254678
0.000160596
0.000141228
0.000134404
0.000189599
0.000142381
0.000137068
0.000305875
0.0580133
0.000148976
0.0117183
0.000162593
0.000173666
0.000156369
0.000181406
0.000879888
0.000152107
0.000148744
0.000137299
0.000156382
0.000142995
0.00246997
0.000556965
0.00013768
0.000151011
0.000136451
0.000137514
0.00959351
0.000143089
0.00015071
0.000152415
0.000167146
0.000144613
0.000147731
0.000156459
0.00175379
0.000146881
0.000150062
0.000137329
0.000138424
0.000155773
0.000171628
0.000147119
0.000142387
0.000144994
0.000146619
0.00013735
0.0467686
0.000147479
0.000146154
0.000142114
0.000179242
0.000136564
0.000137084
0.000171884
0.000143924
0.00019132
0.000144714
0.000144568
0.000908173
0.0574713
0.0189415
0.000518792
0.000165011
0.000148077
0.0579232
0.000140156
0.000156336
0.000136865
0.0116286
0.000130763
0.000156229
0.000144708
0.000919073
0.000182605
0.000195444
0.0581026
0.000151936
0.000209721
0.000148018
0.000148728
0.0286028
0.000168422
0.000142219
0.00013607
0.000154829
0.000168442
0.000144085
0.000145037
0.000140097
0.00013681
0.000244997
0.0047129
0.000147958
0.000151545
0.0601278
0.000303018
0.000155932
0.000154227
0.00015332
0.000155521
0.000142423
0.000151923
0.000368823
0.000140451
0.000136336
0.000146111
0.000352713
0.000234553
0.000158736
0.000146498
0.000147241
0.000161383
0.000143779
0.000159666
0.000181177
0.000214091
0.000157603
0.00225357
0.000134667
0.000142974
0.000148521
0.000137378
0.000147493
0.000140415
0.00036948
0.000141009
0.000265998
0.000146302
0.000139293
0.000137644
0.00018827
0.000150823
0.000172464
0.000194355
0.000136409
0.0122703
0.000179116
0.000137928
0.000135241
0.00120885
0.000324582
0.000135467
0.000141502
0.000142761
0.000151687
0.000203308
0.000215438
0.000161087
0.000150652
0.000194136
0.0608068
0.000149365
0.00014272
0.0124337
0.000155061
0.00109588
0.000152981
0.00014259
0.000182273
0.000228456
0.0568522
0.000240391
0.000391143
0.000136892
0.000144208
0.000146648
0.000146962
0.000155068
0.000147669
0.000146217
0.00013987
0.000148634
0.000150898
0.000159248
0.000149083
0.000152841
0.000148669
0.000143716
0.00014403
0.000183333
0.000189079
0.000140542
0.000145348
0.0002343
0.000147751
0.000153042
0.00014877
0.000362458
0.000137099
0.000170079
0.000154466
0.000136036
0.000145242
0.0503892
0.000227794
0.000151359
0.000147894
0.000154345
0.000176612
0.00014028
0.000163287
0.000187589
0.00014129
0.000200678
0.000142189
0.000143301
0.000155734
0.000149262
0.000162432
0.000221692
0.048635
0.000179055
0.000136277
0.000145172
0.000143724
0.000212782
0.000149219
0.000251086
0.000140117
0.000143927
0.00014359
0.000184362
0.00014485
0.000146599
0.000144728
0.000199401
0.000137175
0.00129642
0.000137057
0.000171144
0.000145251
0.000162407
0.000140874
0.000154495
0.000339921
0.000205325
0.00013632
0.00018832
0.000145342
0.000146771
0.0218737
0.000490349
0.000136239
0.000142847
0.000157283
0.000135964
0.000145743
0.000148623
0.000147745
0.000164914
0.00017616
0.000150254
0.000159664
0.00020623
0.000147704
0.000140875
0.000142195
0.000171715
0.000164287
0.000144277
0.0506289
0.000142054
0.0587
0.000167547
0.000139118
0.000141262
0.000140897
0.000295759
0.000146753
0.00015359
0.000146226
0.000150976
0.000779115
0.000155094
0.00017736
0.000147375
0.00014555
0.000151913
0.000143491
0.000154928
0.000143523
0.000164407
0.000149449
0.000148183
0.0127243
0.000173442
0.00327128
0.000141022
0.000170962
0.000151966
0.00467177
0.000193177
0.0115173
0.000150278
0.000136447
0.000170793
0.000142172
0.00345661
0.000149947
0.000195574
0.000150857
0.0551128
0.00592375
0.000154226
0.000177369
0.000139939
0.000137708
0.000148754
0.00013664
0.000148049
0.000153239
0.000139833
0.000165395
0.000208915
0.00452666
0.000141164
0.000436333
0.000134584
0.000142557
0.000143964
0.000185055
0.00014836
0.00025281
0.000148709
0.000144494
0.00159825
0.000140507
0.000152989
0.000142593
0.00015722
0.0111237
0.000168796
0.0434166
0.000145215
0.000192483
0.000153068
0.000141845
0.000145283
0.000184795
0.000169021
0.000143196
0.000152111
0.000143255
0.0132031
0.000139308
0.0496785
0.000190078
0.000192887
0.000158801
0.000251938
0.000189995
0.000136706
0.00074018
0.000142506
0.0213174
0.000148459
0.000152149
0.00388967
0.00384783
0.000162118
0.00327571
0.000143637
0.00790517
0.0001317
0.0156941
0.000135164
0.00015429
0.000196485
0.000151854
0.000139626
0.000149371
0.000144977
0.000183153
0.00108253
0.000172132
0.000271529
0.000147846
0.000567061
0.000144451
0.000148853
0.000145464
0.000149452
0.00362974
0.000147674
0.000138383
0.000167296
0.000148331
0.0085467
0.000214027
0.000143066
0.000209689
0.000171049
0.000141196
0.000144874
0.000155554
0.000136647
0.000176457
0.000165035
0.000150695
0.000152458
0.000137387
0.00015597
0.000178273
0.000148688
0.000145008
0.000150518
0.000142328
0.000135792
0.000382623
0.000162833
0.0614756
0.000160983
0.000175235
0.000162025
0.000142274
0.000168623
0.000144111
0.000140878
0.000527142
0.000168883
0.000176858
0.000181412
0.000153435
0.00391258
0.00773643
0.000144311
0.000168678
0.000259366
0.0524936
0.000136482
0.000141754
0.000147607
0.000181492
0.000772544
0.000171739
0.000154911
0.000147911
0.000142116
0.000146324
0.00416758
0.000153823
0.000156302
0.00327072
0.000146896
0.000154741
0.000156368
0.000145251
0.000142917
0.000143656
0.000174598
0.000214355
0.000148137
0.000153732
0.00467061
0.000143684
0.000149895
0.000154233
0.000146808
0.00627369
0.0011494
0.000232029
0.000216192
0.000560667
0.000153193
0.000140049
0.00055839
0.000151757
0.000162064
0.000144617
0.000135351
0.00774961
0.000829565
0.000141491
0.000140211
0.000163987
0.000381571
0.000159575
0.000138125
0.0509159
0.000152841
0.000168999
0.000134924
0.00016272
0.000132398
0.000152127
0.000159976
0.000142126
0.042075
0.000149345
0.000172936
0.000217022
0.00573925
0.000210183
0.000142286
0.000179711
0.000156019
0.000169485
0.000153417
0.000150306
0.000145353
0.000153123
0.000372888
0.000152254
0.00035801
0.000140772
0.00020756
0.000135967
0.000148997
0.0124624
0.000156509
0.000206237
0.000158699
0.000149809
0.0566461
0.0502282
0.000140307
0.00434331
0.000177188
0.000139142
0.000135983
0.000392713
0.00246586
0.000139611
0.000136227
0.00014463
0.000136901
0.0560535
0.0111839
0.000130648
0.000134773
0.000140192
0.00211699
0.000172754
0.00396399
0.000135883
0.0462494
0.000147151
0.000196568
0.0447227
0.000166523
0.000139089
0.000141776
0.00395177
0.000136724
0.000141297
0.000136639
0.000170651
0.000155509
0.0404819
0.000165335
0.000148182
0.000142504
0.000158986
0.00020773
0.000196771
0.000141784
0.000143325
0.000202256
0.000175357
0.000150897
0.00806282
0.000163443
0.000152846
0.0182612
0.000152143
0.000160536
0.000148522
0.0013771
0.00014529
0.000148598
0.000331034
0.000160654
0.000141234
0.000143406
0.000132423
0.000185567
0.000214978
0.000141284
0.00013609
0.000149122
0.000176918
0.000155052
0.000135105
0.000142907
0.000139396
0.000156705
0.000171017
0.0001495
0.000142971
0.0187332
0.000142225
0.000281672
0.000166874
0.000171173
0.000153601
0.000153333
0.000145106
0.00026585
0.00020915
0.000179244
0.0383329
0.000165996
0.000140362
0.0442491
0.000136342
0.000179905
0.0544051
0.000156153
0.000141896
0.000155139
0.000183731
0.000142875
0.000143518
0.000922536
0.00014298
0.000164933
0.000150394
0.000147798
0.000137608
0.00021028
0.000187654
0.000136071
0.000141182
0.0108515
0.000142777
0.000139621
0.000140967
0.000141805
0.00149142
0.000160501
0.000153254
0.000153761
0.000149369
0.000141245
0.000185252
0.000182996
0.000159984
0.0248851
0.000167757
0.000154778
0.038402
0.000140316
0.000136351
0.000145036
0.000141449
0.000148572
0.000134188
0.000151403
0.0498571
0.000144576
0.000142014
0.000157686
0.000141833
0.000271381
0.000147627
0.0472629
0.000200134
0.000235306
0.000163607
0.000413305
0.000167148
0.00014353
0.000153033
0.000140571
0.000151185
0.000148386
0.000147658
0.0364195
0.000135886
0.000143884
0.000176525
0.000241841
0.000147837
0.000139988
0.000208268
0.000151004
0.000231091
0.00014314
0.000140141
0.000152961
0.000411839
0.000146592
0.000227123
0.000181195
0.000195365
0.000139895
0.000144642
0.000168547
0.00132589
0.000136095
0.00018797
0.000141981
0.0473145
0.00153186
0.000150639
0.000200773
0.000146208
0.000153253
0.000157854
0.0306524
0.000159447
0.000159712
0.000164033
0.00104417
0.000147291
0.000184853
0.000144657
0.000211247
0.000203348
0.000234149
0.000142858
0.000166157
0.00731518
0.00468791
0.000154905
0.000155474
0.0059853
0.00722962
0.000141231
0.000174884
0.000143739
0.00015619
0.000146041
0.000153784
0.000152879
0.000283712
0.000147121
0.000148311
0.000181223
0.00143386
0.0108827
0.000194996
0.0128782
0.000140585
0.00626476
0.000184161
0.000142556
0.00014188
0.00432244
0.000165318
0.000145218
0.000142674
0.000179347
0.00013891
0.000142922
0.0582633
0.000145534
0.000148153
0.000141172
0.000143943
0.00015163
0.000139519
0.0312375
0.000181847
0.000152044
0.000140175
0.000166589
0.00327482
0.0001424
0.000148791
0.00115829
0.000204717
0.00014356
0.000155519
0.000138956
0.000140541
0.00019868
0.000202505
0.000140588
0.000144888
0.00327198
0.000259008
0.00853024
0.000221778
0.000154105
0.00134937
0.000141659
0.000156643
0.00015549
0.00014076
0.000612153
0.00963373
0.000171358
0.000209669
0.0200703
0.000135933
0.000134817
0.000151068
0.000172574
0.0125913
0.000136505
0.000176232
0.0113397
0.0574813
0.000147175
0.000151441
0.0247268
0.000144152
0.000155733
0.0033008
0.000141081
0.000142686
0.00014038
0.00266424
0.00014397
0.000168072
0.000148392
0.000204258
0.000163821
0.000601539
0.000143529
0.000142431
0.000167514
0.000147759
0.000173325
0.000150764
0.000189394
0.000189667
0.000140897
0.000144542
0.0467271
0.0568698
0.000545439
0.000139293
0.000143457
0.000156382
0.000145543
0.000143234
0.000144115
0.000199085
0.000149024
0.000140319
0.000140378
0.000189773
0.000154783
0.00017405
0.000450896
0.000185283
0.000175794
0.00015704
0.000212734
0.000232938
0.00016388
0.000161748
0.000160803
0.000141957
0.00176626
0.000149302
0.000135782
0.000142098
0.00313895
0.000142372
0.00268204
0.000147702
0.000134922
0.000192746
0.000143343
0.000142485
0.00014332
0.000211501
0.000265473
0.000147641
0.000140749
0.000152034
0.0244117
0.000175106
0.00835698
0.000144454
0.000181505
0.000147299
0.000145748
0.000136289
0.000139207
0.000143467
0.000152864
0.00170899
0.000155717
0.000153774
0.000194843
0.0115111
0.000190979
0.000141991
0.00019999
0.000164411
0.0121437
0.000138044
0.000146368
0.00022007
0.000249787
0.000133068
0.000144724
0.000139174
0.000136642
0.000191751
0.000153452
0.000199079
0.000162059
0.000132796
0.000173358
0.000144089
0.000764043
0.000142871
0.00022505
0.000148142
0.00016067
0.000149583
0.000183114
0.00738895
0.000142561
0.000195492
0.061556
0.000141755
0.000146415
0.000171234
0.000132633
0.00443093
0.000184906
0.000145211
0.000179843
0.000134532
0.000146312
0.000152229
0.000147657
0.000136599
0.000150143
0.000141883
0.000139049
0.000145468
0.000148092
0.000175547
0.000138182
0.000220424
0.000138625
0.000140653
0.000160518
0.00018083
0.00014966
0.000132918
0.000142557
0.000154414
0.000178685
0.00626031
0.000164725
0.000149189
0.000149216
0.000140085
0.000163682
0.000140942
0.000153236
0.0498341
0.00189956
0.000172193
0.000141445
0.000148137
0.000150116
0.000133113
0.00021229
0.000134792
0.000255701
0.000149424
0.000234933
0.000159874
0.0445079
0.000147326
0.000191271
0.00160302
0.00592834
0.00144233
0.000158599
0.00456997
0.0535786
0.000148835
0.000165697
0.0633267
0.000145725
0.000139273
0.000143999
0.000156289
0.000356866
0.00014584
0.000160769
0.0140351
0.000130652
0.000144669
0.0413311
0.00128212
0.0001826
0.00151875
0.00358471
0.000150157
0.000202785
0.000155115
0.000156615
0.00882362
0.000155445
0.0392185
0.000204184
0.000154341
0.000146237
0.000150667
0.00021163
0.000139798
0.00229865
0.000132931
0.00014296
0.000143385
0.00122542
0.0404173
0.000224105
0.000144937
0.000149815
0.000139545
0.0592515
0.000142886
0.000150199
0.000154568
0.000223269
0.000138866
0.000190148
0.044005
0.00193974
0.000148733
0.000561863
0.000140523
0.0107578
0.000133384
0.000438883
0.000179189
0.000176831
0.000163442
0.0104884
0.000222977
0.000152385
0.000154518
0.000265201
0.000155398
0.000142068
0.000138982
0.000157228
0.000148004
0.000891292
0.00013244
0.000143222
0.000144303
0.000143873
0.000707423
0.000139802
0.00013459
0.000146906
0.00112872
0.000167889
0.000178978
0.000152271
0.000151505
0.000193187
0.000141721
0.000143279
0.000197385
0.00017274
0.000134606
0.000176213
0.000152834
0.000745314
0.000142809
0.000251619
0.000181929
0.000143433
0.000135294
0.000134916
0.000142456
0.000141436
0.005925
0.000190645
0.000146591
0.000143189
0.000142588
0.000153793
0.000159656
0.0511134
0.000151981
0.00019278
0.000169064
0.00205433
0.000147139
0.000178378
0.00014315
0.000142834
0.000164932
0.000142694
0.000145654
0.000141481
0.000148937
0.0636768
0.000143641
0.000139754
0.000602575
0.00348613
0.000196366
0.000174193
0.000143591
0.000155749
0.0455601
0.000153795
0.000147828
0.000147324
0.00453489
0.000148648
0.000147043
0.00025769
0.000143227
0.000157158