/*--------------------------------*- C++ -*----------------------------------*\
| =========                 |                                                 |
| \\      /  F ield         | OpenFOAM: The Open Source CFD Toolbox           |
|  \\    /   O peration     | Version:  v2012                                 |
|   \\  /    A nd           | Website:  www.openfoam.com                      |
|    \\/     M anipulation  |                                                 |
\*---------------------------------------------------------------------------*/
FoamFile
{
    version     2.0;
    format      ascii;
    class       surfaceScalarField;
    location    "450";
    object      meshPhiCN_0;
}
// * * * * * * * * * * * * * * * * * * * * * * * * * * * * * * * * * * * * * //

dimensions      [0 3 -1 0 0 0 0];
oriented        oriented;


internalField   nonuniform List<scalar> 
27284
(
0.0011991
-0.00198473
0.000786282
-0.000967704
0.000889299
0.000109321
0.000711773
0.000597535
-0.00130905
-0.000639959
0.00101345
-0.000297909
0.000110373
0.0020632
-0.00216031
-0.0021763
-0.000613489
0.00279713
0.00133804
-0.0021339
0.000809923
0.00215648
-0.00203295
-0.000154139
0.00020745
2.66625e-06
0.00145259
-0.00170817
0.000261982
0.00324506
-0.0011008
-0.00213607
0.0012394
-0.000600832
-0.000638355
0.000437957
0.00080164
0.000857869
0.00156201
-0.00241779
-0.000357868
0.000352289
6.50245e-05
0.000522976
-0.000706522
0.000204123
-0.000858917
0.000308669
-0.00065769
0.00271925
-0.00205263
0.000767192
0.000797793
-0.00156452
0.00125763
0.00070973
-0.00195578
0.00099138
-0.00222674
0.00123637
0.00055325
-0.00261606
0.00208098
-0.000355121
0.000715314
-0.000319056
0.000531512
-0.00269706
0.000265147
-0.000582785
0.00195569
-0.00267623
0.00073822
0.000565315
0.00169646
-0.00223852
-0.00163812
0.000178955
0.00153057
-0.000113644
1.07099e-05
0.0030404
-0.0011868
-0.0018479
0.00119375
0.00101156
-0.00220533
0.000876344
-0.00246736
0.00159379
-0.000662118
-9.35259e-05
0.00077003
0.000388644
3.49262e-05
-0.000405971
1.77709e-06
1.51334e-06
-2.05507e-06
0.00167673
-0.00227967
0.000611436
0.00111905
0.000835691
-0.00195222
-0.000236031
0.00192256
0.00104661
0.00199878
-0.00269326
0.00234352
0.000363262
0.000199612
0.000221397
-0.000271767
0.00206448
6.54215e-05
0.00040488
-0.000452749
0.000794037
-0.000963131
0.000199436
-0.000143581
0.000806243
-0.00103006
0.000223882
-0.00160325
-0.000234091
0.00188334
0.00021273
-0.00177018
-0.00145454
0.00263093
-0.00042922
-0.0021705
0.000112998
-5.57553e-05
-3.90933e-05
0.00126187
-0.00207424
0.000812576
0.0021601
0.000493073
-0.000928887
0.00166332
-0.000733786
0.00265685
-0.000822117
-0.00177442
-0.000824643
0.00209427
3.16781e-05
-1.42496e-05
-9.57926e-06
-0.00232452
0.00268808
-0.000712756
-0.000958733
0.000336531
0.000622246
0.000471872
0.000549555
0.000706501
-0.00125563
-0.00181496
0.000886955
0.00116729
-0.000391443
-0.00076517
1.02244e-05
0.00167958
-0.00168787
-0.000107414
9.93395e-05
2.71882e-05
-0.000399224
-0.00146283
0.00186616
-0.000405845
0.00152697
0.000346147
5.04057e-05
-0.000381702
-0.00284556
0.00191062
0.000943248
-0.00158066
0.00205269
-0.000444949
0.00131104
0.00138724
-0.000422722
0.00228057
-0.0018541
0.00282646
-0.000701259
-0.00211817
-0.000281828
0.00193369
-0.00164451
0.000390081
6.13073e-05
-0.000435323
-0.00204595
-0.000278496
-3.42434e-05
0.000440771
-0.00192696
0.000372161
0.00174159
-0.00201569
0.00166095
-0.00205578
-0.00164203
0.00234168
-0.000692644
0.000422545
-0.0018311
-0.000162793
0.00199953
-0.00232479
0.000999455
0.00132711
6.84104e-05
2.49054e-05
-6.0377e-05
0.000413294
-0.000183213
-0.00012945
0.00053696
-0.00185977
0.00132538
0.00172316
0.000145502
-0.00182497
-0.00142006
0.00195976
-0.00025393
-0.00182869
0.00270533
-0.00181919
-0.000884818
0.000966278
-0.00260076
-0.00239949
0.0019988
0.00301393
-0.0011507
-0.00185744
-0.00119148
0.000444178
0.000757127
0.00168096
-0.000518208
-0.00111485
-0.000373747
-0.000806125
-0.00024218
0.00141154
-0.00116852
-0.00204499
-0.000217961
0.00227722
-0.00147915
-0.000844252
-0.00163195
-0.000268739
-0.000423617
-0.0019456
-8.61528e-06
1.26257e-05
-2.82408e-06
-3.99537e-05
0.00188535
-0.00184127
0.000803097
-0.0002542
0.00183329
-0.00182095
0.000890925
0.00211479
-0.00228507
0.00116314
0.00112385
2.11035e-05
0.000516293
-0.000517866
2.57506e-05
1.3207e-05
3.0559e-05
-2.75171e-05
1.24792e-05
-0.000318133
0.00185447
-0.00153407
0.000197501
-0.00202269
0.000945977
-0.00116498
0.000219097
0.00229951
-0.000541193
-0.00175381
-0.00203691
0.000432206
-0.000305529
0.002056
-0.000355482
0.0022275
-0.00186384
-0.00296103
0.0015033
-0.00126099
-0.00158199
-0.00048493
0.00119692
-0.00239617
-0.00224933
0.00110668
0.00114463
0.00158075
-0.00187838
-0.000917116
0.000808336
0.00010886
0.00192202
-0.000640293
-0.000130148
0.00200842
-0.000808772
-0.00258575
0.00237643
0.000224689
0.000458289
0.0012695
0.0024646
-0.00120248
0.00247698
-0.00163358
-0.000812238
-0.00178384
0.000808217
0.000976274
0.000617219
-0.00159519
0.000978674
-0.00148386
-0.000170034
0.00169072
0.00153852
-0.000770945
-0.00164659
-0.00071
0.00236098
-0.000669011
-2.3499e-05
0.000808339
0.00127311
0.00143325
5.11878e-05
-0.00141677
0.00136902
-0.000403028
-0.0017413
0.00215083
0.00151531
-0.00180624
0.000331655
-0.000930893
-0.0014305
-0.00118583
0.00180389
-0.000509142
0.0003609
0.000243342
0.000366327
0.000629491
-0.000995767
3.01115e-05
-1.10164e-05
-1.88733e-05
0.00164234
-0.00195813
-3.33033e-05
4.98479e-05
-1.66312e-05
-0.0015322
-2.98586e-05
-0.00118494
-0.00176847
0.00137414
-0.000427535
-0.000933565
0.000400227
0.00165989
-0.00205181
0.000511242
-8.85912e-05
-0.00041386
0.000244596
0.000209155
0.000134361
-0.000684805
-1.59453e-05
0.000110373
-8.47654e-07
0.00154611
-0.000166195
-0.000197036
-0.00252216
0.000551976
0.00197729
0.000708216
0.00179223
0.000433348
-0.000396795
0.00042307
0.00172644
-0.00213982
-0.00273096
0.000697067
0.00204145
-0.00104525
0.00150021
-0.00044966
-0.000441741
0.000808108
-0.000800383
0.00195465
-0.00115363
-0.00148415
-0.000727307
0.00221204
0.00166067
-0.00160544
2.05813e-05
1.72804e-05
-2.39275e-05
-0.000882799
-0.000900356
4.34712e-05
3.95532e-05
-5.26833e-05
0.0011007
-0.00255606
7.46119e-06
8.29868e-06
-1.00522e-05
-0.000197781
-0.000188151
-1.44584e-05
5.94287e-05
-1.54694e-05
7.227e-08
1.56382e-05
-0.00256729
0.00133086
0.00124288
-0.000679978
-0.00123572
0.0019195
4.7943e-05
4.83751e-05
-6.15471e-05
-0.00141522
0.000375447
0.00221027
0.000179297
-0.00237547
-0.000331321
0.00165943
-0.00127764
0.00139909
-0.00115664
-0.000234758
-0.00235166
0.00195687
-1.2096e-05
-0.00010465
0.000160647
-0.000505928
0.00200588
-0.0014971
0.00192152
-0.000384915
-0.00144808
0.00188106
-0.000162126
8.15516e-05
-0.00099858
-0.00134545
0.00110405
0.00116082
-0.000927591
-0.000199671
-0.000388544
-5.99431e-05
0.000460295
0.000717763
-0.000856736
0.000283258
0.000783878
-0.00120955
0.000425791
8.13713e-05
4.92884e-05
0.00119569
-0.0019782
0.000783051
-7.88179e-05
0.00100167
0.00290842
-0.00204816
-0.000275132
-0.00204991
0.000381911
0.00226024
-0.00263182
0.00297343
-0.00192188
-8.98998e-05
-8.41247e-06
0.000135267
-0.00197039
0.00117064
0.000830938
-0.002721
0.00191158
0.000649669
-0.00213339
0.0010952
-0.00138051
0.000706996
-0.000848709
0.000157516
0.00141705
-0.000387533
-0.00101516
0.0021608
-0.00227105
0.000128273
-0.00219878
0.00263164
-0.000425242
-0.00149725
0.000419018
0.00109056
-0.00051616
-0.000968933
2.105e-05
9.6563e-06
-0.00162461
0.00272452
0.00137632
-0.00205218
0.00142991
-0.00166478
0.000237732
-0.0029467
0.000839388
0.00212564
-0.00214939
0.000676158
0.0015173
-0.000923932
-0.00135858
0.000321102
6.65042e-05
-0.000377096
0.00134422
0.000523929
-0.00186526
-0.000125709
0.000892468
-0.000759118
-0.0027751
0.00231819
0.000461976
0.000448359
-0.00172878
0.0012928
6.88625e-05
0.000355331
-0.000413038
0.000612263
-0.0022576
-0.00108478
0.00221233
-0.00112673
-0.000249493
0.00209893
-0.00184601
0.00142823
-0.00167419
0.000263134
0.00162462
-0.000140911
-0.000695628
0.000840953
0.000400605
-0.00166371
0.00209454
-0.0022793
-0.000489974
0.00258789
-0.00056023
-0.00201513
0.000887872
-0.000313781
0.0014997
-0.00118323
-0.00143543
0.000930307
0.00133342
-0.000434558
-0.00086325
-0.00134213
-0.00121971
-0.00043724
-0.000985141
0.00197641
-0.000156192
-0.00181722
-0.0020927
0.00251823
-0.000721279
-0.00173667
-0.000198326
0.00164504
-0.00139745
-0.00262943
0.000437339
-0.00177646
0.00258278
-0.000802653
-0.00234339
0.00204718
0.000326293
0.000394242
0.000783158
0.000859424
-0.000674936
0.00117806
-0.000502905
0.000812973
-0.000930772
-1.21585e-05
-2.4803e-06
-3.70199e-05
0.00086444
-0.000819703
0.00123584
-0.00154694
0.000582316
-0.000519484
6.83281e-05
-0.00138204
0.00184396
0.000456891
0.00101007
-0.00142219
-3.8085e-05
4.82697e-06
-0.00184909
0.000408251
0.00144877
0.00207128
-0.00112855
-0.000941807
-0.00188368
0.00128447
0.000600569
0.00202174
0.00095629
0.000531202
0.0020423
-0.00256174
-0.000370605
0.00214273
-0.00176252
-0.000510533
-0.00100062
0.00151195
-0.000936645
0.00143728
0.001753
0.000175688
0.00176773
-0.00192278
-0.000472383
-7.09284e-05
0.000560547
-0.00216656
0.00255866
0.00165474
-0.000221471
0.00010972
0.0013385
-0.00137534
-1.59005e-05
-0.00204736
0.00208138
0.00346867
-0.00137784
-0.00208466
0.000261112
-0.00170701
-0.0018813
0.00100804
0.000874169
-0.00289661
0.00054263
0.0034354
-0.00140647
-0.00202073
-0.000162646
0.00233801
0.00264688
-0.000755512
-0.00188671
-0.000527597
7.20481e-05
-0.00201145
0.0014022
0.0006117
0.00212594
0.000339568
-0.00244289
-0.0029056
0.0015734
0.00133677
0.00053718
-0.000204297
-0.00152457
-3.68215e-05
-5.87128e-06
7.77718e-05
-0.000725811
0.000261342
-0.00130998
0.00104954
-0.00194931
0.00210607
-0.000148587
-0.00184713
0.000572432
0.00128678
0.00190568
-0.00226786
-0.000107021
-0.000188804
7.47806e-05
-0.000451876
-0.000838446
-0.00104173
0.00222393
-0.00222029
0.00174616
0.000847325
-0.001935
0.00109017
-0.00253815
-0.0001932
0.00169078
-0.00149566
0.000726647
7.69173e-05
0.00243002
-0.00249371
0.00138412
0.002091
0.00188663
-0.00220562
0.000344976
0.00174424
0.000180418
-0.00192081
-0.000905394
-0.000976348
0.00123769
-0.000975496
0.000160368
0.000685875
-0.00084219
-0.000390025
-0.000685065
0.00107522
-0.0026563
0.00148116
0.0012039
-0.00210227
-0.00047781
0.002588
0.00104938
-0.00183359
0.000785083
0.00126998
0.00138029
-0.00101215
-0.00160457
0.00185481
-0.00159454
0.000213804
0.00140161
-0.00155799
-0.000992695
-0.000473465
0.0014669
-0.00106362
0.00067373
0.000654216
0.000660869
-0.00131497
-0.000641354
0.000805675
0.00206346
-0.000329992
-0.00125711
0.00158971
5.56836e-05
0.00180315
-0.0018503
4.23796e-05
-3.39438e-05
-6.90287e-06
-0.00229215
-0.00040208
-0.00174399
-0.00232995
8.39731e-05
0.00228001
0.00173011
-1.10576e-06
3.93412e-06
-0.001659
-0.000340735
0.00200403
1.53745e-05
-0.000686959
0.000691593
0.0027152
-0.0011277
-0.000809117
0.000828746
0.000110028
-0.000411803
-0.00226601
-0.000249891
-0.00226655
0.0025278
0.0012358
-0.000532673
-0.000702917
-0.00113962
-0.000847602
0.0019878
-0.00180414
0.00165065
0.000162709
-0.000799919
0.00261544
-0.00210799
-0.000494344
0.00188074
-0.000113808
-0.000135978
-0.0021599
-0.00234219
0.00211859
0.000236129
0.000116395
0.00134263
0.000214195
0.00169591
-0.00186926
0.000364403
-0.00042894
0.000173028
-4.43031e-05
1.20492e-05
3.25305e-05
0.000488723
0.00189674
-0.00237489
-0.000202173
-0.00165363
0.00189149
-0.000668878
0.0011971
-0.000528054
-0.0022237
-0.00010448
-0.000161982
0.00154606
-0.00133493
-0.00206996
0.000294284
0.00179843
-0.000212217
0.00178968
0.000529324
-0.00018152
-0.000220659
0.00160724
-0.00181535
-0.000342482
-6.75218e-05
0.000418313
-9.82747e-05
0.000543802
-0.00232537
0.000294329
-0.000392398
-0.000566301
-0.000112661
0.000864605
-0.000747183
6.51209e-05
-0.000399294
0.00159117
0.00012729
-0.00167205
-0.00268019
0.00218613
0.000500211
-0.00107824
0.00133929
-6.3277e-05
8.41597e-05
3.31768e-06
-0.000307717
0.00194259
-0.00162792
0.000743353
-0.00085154
0.00341662
-0.00202622
0.00216941
-0.00218382
4.91236e-05
0.00105174
0.00154617
0.00113251
-0.00069437
0.00159053
-0.000502908
-0.00107455
-0.000876173
0.000846851
0.0018454
-9.88469e-05
-0.000649497
0.000798022
-0.000131246
-0.00261858
-4.94748e-05
-0.00133845
0.00226951
-0.000920614
0.00211977
0.000262253
-0.00236994
7.49003e-05
-0.000453
0.000471985
0.00204089
-0.00269062
0.00023806
-0.000264951
9.57122e-05
-0.00214856
-0.000203678
0.00236639
-0.000137128
0.000967574
0.00198753
-0.00205648
7.14059e-05
0.000949025
0.00288819
-0.00103294
-0.00184865
-3.81673e-05
-5.05785e-05
0.00128441
-0.00260854
0.000453086
-0.000212279
-0.00173263
0.0019657
-2.27443e-05
-0.00100264
0.0010259
-0.000742335
-0.000309906
0.00105231
0.000141918
0.00072638
0.000293627
0.00154882
-0.00182739
-0.00127415
0.000599467
-0.000725607
0.00249335
-0.00175591
-5.32538e-05
-0.000651208
-8.21609e-07
8.21609e-07
0.00198142
-0.00106489
-0.000915332
0.000646177
0.00135468
0.0015743
0.00184968
-0.00134487
-0.000778967
-0.00278408
0.00077545
0.00201538
-0.00144951
0.00151209
-0.002658
0.00253058
0.00013637
0.000833999
-0.00197297
0.000582465
0.00105686
-0.00163846
-9.04684e-06
1.06572e-06
0.000576045
0.000773875
-0.00134985
-0.0023815
0.00217872
-0.00113919
0.00131484
0.00214704
-0.00115462
0.000902239
4.2962e-05
-0.00164865
-0.000955978
-3.72056e-05
1.6146e-05
2.1067e-05
0.000189712
0.00164532
0.00110497
-0.00011708
-0.00166235
0.000780158
0.00178281
-0.00120902
-0.000569987
0.00205137
-0.000910821
-0.00113958
0.00261179
-0.00194615
-0.000641921
-0.00127607
0.000734478
0.000571216
0.000923675
0.00173767
-0.00208555
0.00137082
0.000349726
-0.0017034
-0.000547338
-0.001155
-0.00140086
-0.000440083
0.000157905
-0.00122958
0.000672373
0.00106042
-0.00108262
-0.000464623
-0.000780912
-0.00292557
0.000511594
0.00242557
4.85593e-05
-0.00184884
-0.0018118
-0.000581009
0.00239283
-0.00175863
0.000936878
0.000823074
-0.00185555
0.00235409
0.00254417
-0.000633556
0.00104085
-0.00161727
0.000577499
5.47083e-05
-0.000276313
0.0002782
0.000558124
9.81092e-05
-0.000641856
-0.00158968
-0.000456631
-0.000332671
-0.00101497
0.000272696
0.000111054
-0.000743555
6.60476e-05
-1.52871e-05
-1.77346e-05
-0.000515905
-0.000116499
0.000750767
0.000869161
0.000366813
0.000842332
-0.00216942
-7.91095e-05
-0.000367786
0.000457611
-0.00255519
0.000922945
-0.00066466
-0.0019955
0.00257367
-0.000553293
-8.7443e-05
0.000871403
-0.000788284
0.00133826
0.00260168
-0.000377019
-8.11166e-05
0.000376035
-0.000813952
-0.000943287
-0.000867763
-2.70768e-05
0.000894994
0.00148106
0.00080522
-0.00228586
0.000642089
4.73572e-05
-0.000672509
-0.000996598
-0.00103208
0.00202892
-0.000707852
0.000151625
0.000770671
-0.00059972
-0.00119471
0.00179603
-0.00229018
0.000445733
0.0018518
-4.10421e-05
0.00203089
0.00176613
-0.00218528
0.00170996
0.00213842
0.000694716
-0.00142067
0.00198734
-0.00124439
0.000575705
0.000379018
0.00185693
0.00175072
-0.000787692
-0.000961203
0.000444211
-0.00237156
0.00193769
0.000567309
8.50361e-05
-0.000636777
-0.00272138
0.00139753
0.00133504
0.000630335
-0.000492174
0.00128979
-0.000797229
0.000879451
-0.00118928
0.00182987
-0.00163836
0.00209639
0.000629739
-0.00283084
0.000643893
0.00219672
0.00235117
0.000473955
0.000955591
0.00188456
-0.00179774
0.000374764
0.000841205
-0.00120473
6.92791e-05
0.000294988
-0.000357805
0.00059016
0.00161407
-0.00214503
0.00189125
-0.000486955
0.000899283
-0.00078752
0.00117329
-0.00184767
0.00120615
0.000641805
0.00181046
-0.000614249
-0.000764781
-0.00215372
-0.000419995
4.92675e-05
4.3675e-05
0.00165925
1.72258e-07
-3.16391e-05
-5.56698e-06
-0.000818279
-0.000440549
0.00125904
0.000449303
-0.00253724
-0.000239951
0.00211158
-0.00186577
0.00216945
0.000350842
-0.00251238
-0.0023182
0.000209973
0.00211744
0.00219096
-0.000457674
-0.00172831
0.000557647
-0.000725386
0.000167763
-0.000671258
-0.00108526
0.00175803
0.00197078
-0.00271354
0.000764353
0.000760606
0.000143157
-0.000902426
0.000297646
0.000204141
0.00110762
-0.000856534
0.00143265
0.00179482
-0.00162598
-0.00016688
-0.00220246
-0.000710239
0.000691627
-0.000133957
0.00141444
-4.70442e-06
-0.000769337
-0.000892373
-0.000919802
0.0017982
-0.000565644
-0.000142068
0.000710655
0.00225028
-0.00186275
-0.000739383
-0.00196806
-0.00229945
-0.000251984
0.00258137
-0.00138793
0.00179862
-0.000405883
-0.00157622
0.000153491
-0.000716196
0.0016749
-0.00115477
-0.000516193
0.00255704
-0.000284762
7.86258e-05
-0.0023492
0.00179399
-0.0019513
-0.00231752
0.00165254
0.00206732
0.000495887
-0.00255386
-0.000952681
0.00109892
-0.00272274
4.56e-05
0.000833914
0.00210842
0.000175805
-0.00228278
0.00290692
-0.000539806
-0.00235578
-0.00193748
-0.000525842
-0.000258985
0.00190355
0.00161117
-0.00180066
-4.36408e-05
0.00181896
-0.00173107
0.0008482
0.00206523
0.00215891
-0.00270293
0.000554553
0.00244796
-0.000300951
-0.000590995
-0.00166669
0.00147397
0.0012454
0.000465105
0.00119056
-0.00160888
0.0022359
-0.000125944
0.00206375
0.000619268
-0.00267107
0.000385019
-0.00122476
0.000840169
0.00059822
0.000534446
-0.0015049
0.00149836
0.00208684
-0.00188328
0.000807041
0.00120188
-0.00133675
0.00197981
-0.000399554
-0.00067414
0.00107376
0.000599706
-0.000418949
0.00229282
-0.00058618
-0.00170518
0.0011675
-0.00183721
-0.000227059
0.000598452
0.00171864
-0.00197535
0.000901713
-0.00105081
0.00163412
-7.95827e-05
2.57051e-05
-7.90619e-05
0.000408909
-0.000316757
0.00105492
0.000563149
-0.00161669
0.000767806
0.001029
-0.000853659
0.00123912
0.00169983
-0.00131608
-0.000302798
-0.000470822
0.00117766
-0.00106792
0.0015776
0.00048563
-0.00130369
-2.00774e-07
-2.31672e-07
-0.00236339
0.000736384
0.00165659
-0.000418369
0.00116056
-0.00074201
-0.000506486
-0.00147697
0.00199569
-0.00260887
0.000334606
2.00943e-05
-7.69868e-06
0.00212653
-0.000303001
-0.00181848
0.00179971
-0.000559954
-0.00122721
0.000361712
-0.00201604
0.00121537
-0.000561075
-0.00235235
0.000978783
0.00137663
0.000138661
0.000760864
-2.65785e-05
3.68207e-05
5.03747e-07
0.0015477
-0.000285501
0.00234704
-0.00204993
-0.000597145
-0.0017507
-0.000364436
-0.000520853
0.000885319
0.00086877
-0.000260963
-0.000576759
0.000842954
-0.000697353
0.00206422
-0.00242424
0.000378819
5.17083e-05
-1.77986e-05
0.000591055
-0.00213112
0.00154458
2.66975e-06
-3.41891e-05
0.000405596
0.00119798
-0.0022434
0.00147407
0.000770528
0.000328981
0.00139544
-0.0017101
-0.000698213
0.00129398
-0.000594703
0.00176954
-0.000659768
-0.00110679
3.1773e-05
0.00139475
0.00203085
-0.00133481
-0.000695531
-0.00192319
-0.000234046
-0.0016134
-0.00215045
0.000468691
0.00168505
-0.00247912
-9.05294e-05
0.00258604
0.00209471
-0.000379839
-0.00165502
0.000758838
0.00132608
0.00193592
-0.00263041
0.00135842
-0.00229881
0.000950748
-2.71261e-05
-9.36398e-06
-0.000601354
0.00184302
-0.00124043
-0.00221948
0.00126612
0.000953494
-0.0018075
-0.000527907
-0.000590588
-0.0018874
0.00247831
-0.00240209
0.00184121
0.000623392
-0.00245747
-0.000481892
0.0012039
-0.00072183
-4.2857e-05
0.00061551
-0.0014404
-0.000543454
-0.000171554
0.000711963
-0.00053802
-1.75451e-05
-7.78517e-06
2.59892e-05
0.00119863
0.000573572
0.00186043
-0.00117624
-0.000682913
-0.000162482
-0.000681001
0.000843553
-0.00163457
0.00200108
-0.00143281
-0.000257474
0.00171308
-0.00154845
0.000112495
-4.02477e-05
0.000259448
0.00114662
0.000446977
-0.00143894
-0.00273715
0.00186163
0.000894154
0.00229347
-0.00191325
-0.000370062
0.00121071
-0.00181087
-0.00218797
0.000796553
-0.000219641
-0.00158902
0.00183231
-0.000597762
0.00163968
-0.000180677
-0.000783763
0.00096451
-0.00185855
0.00047527
0.00150742
0.000216257
-0.00171391
-0.00159835
-0.000253155
0.00162939
0.000379
-0.00226537
0.000219542
0.00185263
0.00135906
0.000364075
-0.00168217
0.00210663
-0.00232758
0.000226237
0.000369507
-0.00199905
0.0019123
-0.00150326
0.000682744
0.000740234
-0.00142222
0.0008675
0.00176211
-0.00184881
0.00076471
7.29303e-05
-0.000470238
0.00282141
-0.00241266
-0.000391638
-0.000331376
-0.0011183
0.00144983
-4.75301e-05
6.85536e-06
0.00259489
-0.000483521
-0.000416341
-0.00138057
-0.000861044
0.00215166
1.23244e-05
-0.00212703
-0.000484894
-0.000615667
0.00115691
0.00127072
0.000979646
-0.00224575
0.000339378
0.00179207
-7.88422e-05
0.000382305
-0.000293924
0.000121758
0.000807199
-0.000919188
0.000187757
0.00190144
-0.00208588
0.000124435
0.00153945
-0.00271381
0.00168681
0.000303792
-9.94463e-05
-0.000155862
-0.00152752
-0.000719739
0.00112573
-0.00217779
0.00263085
-0.000418056
0.000173336
-0.00176409
0.000858619
-0.00222111
0.00209738
-0.00136214
-0.000735015
-7.38472e-05
0.00039647
-0.000313971
0.00139821
-0.000800426
-0.0012191
0.0021537
-0.000892594
2.2078e-05
-5.68723e-06
0.000681541
-0.00109975
-0.00041449
0.00231652
-0.00189421
-0.00223111
0.00165002
-0.000621269
-0.00208558
-0.00131827
0.000904588
0.00142392
0.000673713
0.00102332
-0.00219923
-0.000464255
-4.43964e-05
0.000276604
0.000366905
-0.000358403
0.00175841
0.000695993
0.00190328
-0.00133306
0.00199071
-0.00115607
7.52241e-05
-8.90664e-05
5.87811e-05
-0.000885866
0.000486365
0.00215772
0.000327242
-0.00246897
-0.00162739
0.00180871
-0.0019464
-0.000948979
-0.00205421
0.00257662
0.00206564
0.00181355
-0.000324203
-5.38027e-05
0.000384943
-0.00083955
-0.000375738
0.00121559
-0.00192714
0.00235336
-0.000381126
-0.000465059
0.000561881
-7.85156e-05
0.000467366
8.20172e-05
-0.000537618
-0.0018496
0.000686177
-0.0019685
0.00115957
-0.000508152
-0.000651263
-0.00062637
0.000144614
0.00109395
-0.00127932
0.00200004
-0.00263518
0.00216455
-0.00228677
-0.000229519
-0.000483322
-0.00143141
0.00192707
0.00189055
-0.00147388
0.000759073
-0.00128007
0.00185173
-0.000743536
0.000437214
-7.04959e-05
0.00223967
-0.00113937
0.000881933
-0.00106253
-4.74146e-05
6.41102e-05
-7.13832e-06
0.00135975
-0.0017122
0.000358767
6.66708e-06
-2.44256e-05
2.77835e-05
-0.000823763
0.000686982
-0.00140613
0.000708925
-1.94838e-05
2.34519e-06
-0.00056107
-0.00207075
-0.000251392
0.000283267
-0.00190291
6.34959e-06
-4.25015e-05
-0.00144851
0.00197666
-0.000524558
0.00182133
-0.00126474
-0.000552482
-0.00235916
0.00149769
0.000862447
-0.00207527
-0.000547407
-0.00093738
0.00166752
0.000146174
-0.000743626
0.000600679
-0.00110434
0.00117971
-7.50138e-05
0.000772823
0.00148142
0.000296245
-0.0025409
0.00134135
0.00120395
-0.00163937
0.00022774
-0.00218603
0.00256744
-0.000358753
-0.000987814
0.00272441
-0.00169516
4.49964e-06
-1.89048e-06
-0.000271331
-0.000661603
0.00164958
-0.0024663
-7.77477e-05
0.000218162
-0.000284076
0.000117143
0.000369402
-0.000319112
-2.47049e-05
2.80313e-05
2.48815e-06
0.00264498
-0.000565974
-0.00206605
-0.0011045
-0.00125326
0.000222681
-0.0013266
0.000800402
-0.00181809
0.00216245
0.00283355
-0.000745162
-0.00207429
-0.000627677
-0.00218922
0.00172865
-0.000284269
-0.000168904
-0.00196675
0.00250918
-1.72807e-05
0.000382555
-0.000349591
0.000383844
0.00126053
-0.0015982
-9.76808e-05
0.000122022
-0.00282772
0.000690165
0.00209752
0.000475048
-0.00256177
0.000149266
0.000698696
-0.000839155
-0.000520705
-0.00064417
0.00047512
0.00240406
-0.0014218
0.00118569
-0.00165505
-0.00115277
0.000285163
6.38647e-05
0.000367605
-0.000679923
0.000838117
-0.0025947
0.000526161
0.00259982
0.000129495
-0.000800435
9.51536e-05
0.000504262
-0.00058726
-0.000972882
0.00264065
0.000362825
-0.000298833
0.00162454
0.00117992
-0.0027985
-0.0021084
0.000236044
-0.000192092
0.00263005
-0.000865822
-0.00172171
-0.00120338
-0.0013324
-0.000488991
-0.00208854
0.00257943
-0.00132527
0.00173076
0.00293942
-0.00194327
-0.000983248
0.000391284
-0.000268153
0.000375022
0.00116379
-0.000730473
0.000591326
0.00196051
-0.00120459
-0.000753822
-0.000993081
0.00236094
-0.00212987
0.0014139
0.00262256
-0.000549104
-0.000519215
-0.00193347
0.00246482
-0.000523873
-0.000201487
0.000109215
-3.49225e-05
0.000698657
-0.000542206
0.00153242
0.000875383
-0.00229858
0.00142497
-0.00204846
-0.000646508
0.00270786
-0.000211746
-0.000621115
-6.60259e-05
-0.000272032
0.000344196
0.00147667
-0.00262211
0.000356294
-0.000280484
0.00129315
0.000669282
-0.000730461
0.000675128
0.000522145
0.000347461
0.000289929
-0.000107148
-0.000112742
0.000186145
0.000158927
-5.15987e-06
-1.01551e-06
8.63789e-06
0.000272119
-0.00241171
0.000846911
-0.00141535
0.000604529
0.000811192
-0.00199332
0.00165675
0.000933141
-0.00178231
0.000850473
-0.00294841
0.00177021
0.00120213
-3.96639e-05
0.000375678
-0.000322105
-0.000168052
7.42952e-05
0.00257995
-0.000752628
-0.00178182
0.00188773
-0.000496334
-0.00136485
0.00175854
-0.00239722
0.000650567
0.00115709
-0.00101169
-0.00033042
0.00150166
-0.00101078
-0.00191472
0.0021476
-0.00242241
0.000315377
0.00190927
0.00155881
0.000842233
0.00176758
-0.000833308
0.00206633
-0.000434546
0.000808037
0.000472365
-0.00128013
-0.00025102
0.000587575
4.70612e-05
-0.00188442
0.00184096
-0.00182408
-0.000272558
0.000336832
0.00244199
-0.000606216
-0.00182202
0.000926425
-0.000231605
-0.000602891
0.00268574
-0.000768804
0.0009652
-0.00147429
0.000509843
0.000438988
-0.00127821
-0.000106063
0.000732139
-0.000610094
-0.00197175
0.000219649
-0.00235318
0.00061372
0.00129605
0.000179532
-0.000703379
-3.88667e-05
0.00155654
0.000362699
0.000382826
-8.11261e-05
0.000130535
-4.22102e-05
-6.69917e-05
0.00168239
-0.00127346
0.00151978
-0.00136122
0.00060907
0.00043369
-0.00104265
0.000265783
5.20327e-05
-0.000311609
-0.000294448
0.000634764
-0.000724955
-0.000480844
-0.000408927
0.000927444
0.00175268
-0.00250196
0.000338382
1.40427e-05
0.0021617
-0.00087192
0.000427677
-0.00202291
0.0015292
0.000574321
-1.06234e-05
-3.3411e-05
0.000678829
0.00219097
-0.00135212
0.00254477
-0.0011826
-0.000440043
-0.00139303
-0.00234828
0.00200484
0.000354502
0.00163494
-0.000573952
-0.00103907
-0.000182375
0.00122697
0.000567678
0.000235853
3.06805e-05
-0.000229605
-0.000408082
0.000705398
0.000419037
-0.00177408
0.00136608
-9.21992e-05
3.15008e-05
-0.00205669
0.00210784
-0.00138026
0.000231139
0.0026296
-0.00041647
-0.00218746
0.00266678
-0.000598325
-0.00205017
0.00217167
-0.00226352
-0.00171262
0.00259006
0.000781526
-0.000614628
7.16906e-05
4.9837e-05
-8.19939e-05
9.0097e-05
-0.000119522
5.16816e-05
0.00273118
-0.000560846
-0.00133795
0.00114616
-0.000202428
-0.00180024
0.00204447
0.00157797
-0.000520251
6.25664e-05
0.000337305
0.000373392
-0.000296648
0.00114973
0.0030466
-0.00199511
-0.00104577
0.000496099
0.00118236
-0.000860716
0.000169018
0.0010452
-0.000436026
-4.53061e-05
0.000433773
-0.000376701
0.000821337
8.28717e-05
-0.000896838
-0.000115111
0.00189983
-0.0017825
0.00294276
-0.000499378
-0.00243165
-0.00204649
0.00235483
0.00171689
0.00255306
-0.00208923
-0.000591872
0.00154617
-0.000953901
0.00121032
0.00184197
2.01188e-07
-2.00882e-05
0.000392979
-0.000426685
-3.56509e-05
0.00222345
0.00199074
-0.00269484
0.00071552
0.00038487
0.00118785
0.000957661
8.7923e-05
0.000400421
-0.0004704
0.00039321
0.00225976
0.000429767
0.00219525
0.00161504
-0.00102852
-0.000585432
-0.000725056
0.00195792
-0.0012094
0.00136073
0.000214853
-0.0015554
0.0016105
-0.00197778
0.000376139
-0.00131269
0.00150431
-0.0010071
0.0008991
0.000118988
-0.000171187
0.000984091
-0.00130218
0.000318562
0.000833389
-0.0012447
0.000411726
0.000331086
0.000692267
-0.000475138
0.000504521
-0.000518632
7.2955e-05
0.000127778
0.000550202
-0.000670703
0.00141248
-0.00188446
0.00209138
-0.000422221
-0.00165694
0.0015237
0.000236052
3.14319e-05
-0.000234173
-0.00142095
0.000752093
-0.000602511
0.000911321
-0.000604682
-0.000274692
0.00217272
-0.000377178
-0.00173817
-0.00168801
0.000638078
0.00152483
0.000437925
-0.00114967
0.000754811
-0.00153846
-0.000479053
0.00206013
-0.0024096
0.00117142
0.00123829
0.000138006
-0.000184188
0.00236996
0.000657544
0.000284554
-0.000147778
-0.000722091
0.000878478
0.000800335
-0.000543323
-0.000237017
-0.000230094
0.00176931
-0.00153512
-0.000464876
-0.000779302
0.000384961
0.00184245
0.0017057
-0.000907436
-0.00121868
-0.000581388
0.00180207
-0.00111619
0.000237071
0.000879236
0.00181038
-0.000852252
-0.000957256
-0.000109246
-0.00134763
0.00151882
0.000843145
0.0021061
-0.000279461
-0.00142667
0.00174157
0.00054545
0.000747604
-0.0012499
0.00121867
0.000150735
-0.00129823
-0.0015591
-0.000374048
0.00193751
-0.000181832
0.0021491
-0.000413519
0.0016852
0.000698028
0.00116614
-0.00186149
0.00108829
0.000547163
0.00157427
-0.000430891
-0.00286816
0.000863828
0.00200789
-0.00220957
-0.000436089
0.00265538
0.000359336
-0.000418617
0.000569021
-0.00245594
0.00202651
-0.00230427
0.00028406
0.00010495
-0.000152893
7.64276e-05
0.000110358
5.69838e-06
0.000516749
0.000642955
-0.00092962
-0.00128949
0.000834318
0.00115688
0.00094588
-0.00121152
0.000307235
-0.000818233
0.00129325
-0.000474651
0.000529263
0.000507433
-0.00197245
0.00200837
0.000190299
-0.00219324
-0.00090317
-0.00105886
0.00196647
0.00239257
-0.00161267
0.000207823
-0.000158004
-0.000662406
0.00109793
0.00128333
-0.00237034
0.00202538
0.0024256
-0.00057849
-0.00116234
0.000695905
0.00152762
-0.00222923
4.79777e-06
-2.09729e-05
0.00184487
-0.000456248
0.000628467
-0.00111482
0.000486459
0.000302326
0.000709175
0.00164762
0.00216271
-0.0014618
-0.00165879
0.00143246
-5.99706e-06
0.00211841
-0.00210881
0.00133319
-0.00223119
2.6961e-05
2.30379e-05
0.0008689
0.000293933
-0.00112139
0.000662074
-0.00237275
0.00243845
-0.00200099
-0.000426969
-5.41999e-05
0.000371594
-0.000309943
-0.000895177
0.0016039
-0.00016742
0.000214752
-4.38559e-05
-0.000378164
0.000331471
0.000266389
0.00227711
-0.00200321
0.000957911
0.000243275
2.96682e-05
-0.000241386
-0.00171045
0.0023745
-0.00125792
-0.000674598
0.00235093
-0.00194233
-0.000393328
7.65366e-05
7.25608e-05
-0.00111731
-0.000184571
0.00030941
-0.00232324
0.00266611
-0.000745486
-0.0019042
0.00196564
-0.000401786
-0.0014854
0.00249743
-0.00198513
-0.000879328
0.00184322
-0.00230576
-0.00027735
0.00261211
0.00111243
-0.000365677
-0.000746625
0.00112265
-0.000216906
0.00109251
0.000136369
-0.00242017
-0.00117483
0.00200962
-0.000156887
0.00216902
1.19025e-05
-1.19025e-05
0.00166645
0.000361596
-0.00202399
0.00182376
-0.00145573
0.000416795
0.00194417
0.000408337
-0.00235196