/*--------------------------------*- C++ -*----------------------------------*\
| =========                 |                                                 |
| \\      /  F ield         | OpenFOAM: The Open Source CFD Toolbox           |
|  \\    /   O peration     | Version:  v2012                                 |
|   \\  /    A nd           | Website:  www.openfoam.com                      |
|    \\/     M anipulation  |                                                 |
\*---------------------------------------------------------------------------*/
FoamFile
{
    version     2.0;
    format      ascii;
    class       surfaceVectorField;
    location    "450";
    object      Uf;
}
// * * * * * * * * * * * * * * * * * * * * * * * * * * * * * * * * * * * * * //

dimensions      [0 1 -1 0 0 0 0];


internalField   nonuniform List<vector> 
27284
(
(0.988381 0.235493 -3.80536e-22)
(0.986591 0.223576 -4.13584e-22)
(0.977756 0.230242 1.21149e-22)
(1.00461 0.00170036 -1.27777e-21)
(1.00464 0.00177219 7.02709e-23)
(1.00457 0.00166359 -1.64983e-21)
(1.18487 -0.0114658 1.53036e-22)
(1.19162 -0.00378446 -1.27343e-21)
(1.18052 -0.000534644 -2.45157e-21)
(1.01397 0.001118 0)
(1.01404 0.00120648 0)
(1.01407 0.00109711 -4.44704e-22)
(1.04905 0.0367817 2.00704e-23)
(1.04727 0.0412408 1.70879e-23)
(1.04471 0.0370659 0)
(0.883138 -0.0201423 5.55693e-22)
(0.89116 -0.010917 0)
(0.86447 -0.0136895 0)
(1.00641 0.0151851 -4.652e-22)
(1.00621 0.014262 0)
(1.00551 0.0145174 -1.14657e-23)
(1.05351 0.0363025 -1.94903e-21)
(1.04981 0.0323281 1.13181e-22)
(1.00422 0.000235548 4.19654e-22)
(1.00531 0.000472945 -3.98087e-22)
(1.0047 0.000337959 1.33796e-21)
(1.03149 0.0740629 1.0632e-22)
(1.02759 0.0650146 5.25058e-22)
(1.01965 0.0721918 0)
(1.00711 -0.00269661 1.16667e-21)
(1.00754 -0.000877268 2.52974e-21)
(1.00898 -0.0024854 -1.66367e-21)
(1.08676 0.0060529 -4.00427e-21)
(1.08645 0.00747859 -3.80492e-21)
(1.088 0.00698165 -6.16065e-22)
(1.08718 0.00443174 -3.64165e-21)
(1.08543 0.00502413 6.07799e-22)
(0.993041 0.185762 1.55302e-23)
(1.00481 0.197521 -3.70388e-22)
(1.00684 0.178642 -1.50831e-21)
(1.00695 0.000674189 -1.51612e-21)
(1.00744 0.000818686 -3.63607e-23)
(1.00709 0.000741037 -5.37288e-22)
(1.00468 -0.00191137 -9.34164e-23)
(1.00469 -0.00186706 -9.19776e-22)
(1.00476 -0.00201398 -1.05439e-21)
(1.01391 0.00102026 -1.16536e-21)
(1.01387 0.00112519 0)
(1.02107 -0.00474451 1.52121e-21)
(1.02204 -0.00559772 6.25633e-22)
(1.02224 -0.00431484 -2.93861e-22)
(1.16719 0.112628 3.22111e-21)
(1.16346 0.122263 8.90265e-22)
(1.1577 0.114176 3.33972e-21)
(1.02878 0.0136639 3.54805e-22)
(1.02928 0.0124787 5.53674e-22)
(1.02778 0.0126424 1.38748e-22)
(0.813771 0.119666 2.92272e-21)
(0.826164 0.118648 0)
(0.821846 0.131297 -2.27247e-21)
(1.02489 0.00991843 -9.06099e-23)
(1.02447 0.00961634 2.12331e-23)
(1.02445 0.0101752 -7.29343e-23)
(1.00522 0.00152405 -8.56266e-22)
(1.00518 0.00160725 -9.73069e-22)
(1.00512 0.00147352 -4.08548e-22)
(0.876042 -0.0299388 5.04489e-22)
(0.898496 -0.0266782 -2.59125e-21)
(1.00531 0.00157565 -3.13408e-22)
(1.00525 0.00143879 -9.87972e-22)
(1.0172 0.0023527 9.72356e-22)
(1.01751 0.00259032 6.69238e-22)
(1.01759 0.00201238 -3.82747e-22)
(1.0072 0.0157857 -9.59195e-22)
(1.00813 0.0165294 1.85913e-22)
(1.00815 0.0154666 -2.25104e-22)
(1.01465 0.00200174 0)
(1.0148 0.0020406 1.25005e-21)
(1.01475 0.00211503 2.50903e-22)
(1.00267 0.000115392 8.93778e-23)
(1.00386 0.000191764 -5.40701e-23)
(1.00713 -0.00646577 6.08546e-21)
(1.00703 -0.00465717 4.48966e-21)
(1.00895 -0.00593224 -1.17616e-21)
(0.775 -0.127722 -9.16781e-22)
(0.761603 -0.111916 0)
(0.776663 -0.105128 1.22168e-21)
(0.957417 0.0248872 1.9856e-21)
(0.961831 0.0267981 2.37735e-21)
(0.957902 0.0302251 -6.4337e-22)
(1.00475 -0.00301304 -3.74362e-22)
(1.00465 -0.00286229 1.76444e-23)
(1.00468 -0.00308012 7.73799e-22)
(1.00594 -0.00269601 -1.22573e-22)
(1.00605 -0.00271925 3.05658e-22)
(1.00591 -0.00254231 -1.00752e-21)
(1.0103 -2.31311e-05 -6.47517e-23)
(1.01026 -5.9008e-05 -2.14062e-22)
(1.00782 -7.80277e-05 -5.78659e-23)
(1.01855 0.00795276 -5.84488e-22)
(1.01871 0.00764528 -2.44903e-21)
(1.0189 0.00806803 0)
(1.05208 0.0288855 -7.7577e-22)
(1.05302 0.0282281 -1.52907e-22)
(1.05176 0.0278787 -3.97327e-21)
(1.01821 0.00783928 -2.4288e-21)
(1.01837 0.00836531 9.37066e-22)
(1.00734 -0.00850002 2.62034e-21)
(1.00527 -0.00701442 1.20154e-21)
(1.01984 0.00447766 1.84111e-22)
(1.01971 0.0044089 7.5162e-22)
(1.01987 0.00424935 3.31126e-22)
(1.01573 8.78584e-05 3.08274e-23)
(1.01566 0.000105503 3.05453e-22)
(1.01401 7.02355e-05 -9.03939e-23)
(1.00524 -0.00295829 -3.80801e-22)
(1.00582 -0.00264292 1.58196e-21)
(1.00571 -0.00258812 2.95693e-22)
(1.00569 -0.00246635 1.1986e-23)
(1.00458 0.00162492 -3.41936e-22)
(1.00454 0.00154504 0)
(1.0045 0.00151758 -7.13941e-22)
(1.00466 0.00172855 -3.2796e-22)
(1.06437 -0.0105063 -2.4462e-22)
(1.06731 -0.00958787 1.51081e-21)
(1.06414 -0.0081778 -2.2082e-22)
(1.01489 0.00306407 2.50638e-23)
(1.01504 0.00309901 -1.71396e-21)
(1.01504 0.00315913 -1.78956e-21)
(1.01474 0.0030286 3.43457e-21)
(1.01473 0.00296649 9.62898e-22)
(0.793526 -0.136596 -4.42781e-21)
(1.01795 0.0116977 -3.08751e-22)
(1.01725 0.0118869 1.19446e-21)
(1.01741 0.0111267 -3.01428e-22)
(1.00503 -0.000544262 -6.12023e-22)
(1.00432 -0.000407691 9.26977e-22)
(1.0045 -0.000408455 -1.14276e-21)
(0.772406 0.250365 -6.39603e-22)
(0.784055 0.237097 -5.90146e-22)
(0.786105 0.250936 1.38013e-21)
(1.01856 0.0123457 4.49605e-22)
(1.01871 0.0114314 -4.78186e-22)
(1.07307 0.159614 -1.71407e-22)
(1.07843 0.163644 1.5031e-21)
(1.07924 0.154385 -2.66668e-22)
(1.01878 0.00206054 1.87006e-22)
(1.01875 0.00194003 -2.14871e-22)
(1.01859 0.00197493 1.87086e-22)
(1.02821 0.0148938 1.49266e-21)
(1.02987 0.0147893 -1.45632e-22)
(1.0094 -0.000318931 5.76281e-22)
(1.00787 -0.000179672 -3.01584e-22)
(1.00802 -0.000171818 3.99199e-22)
(0.82836 -0.305182 8.6728e-22)
(1.01685 0.00222318 1.82456e-21)
(1.01689 0.00279468 5.44723e-24)
(0.741683 0.0237199 0)
(0.696164 0.0261762 -5.30046e-22)
(0.689333 0.0330757 9.75244e-23)
(1.00596 -0.00282863 1.26367e-21)
(1.09893 0.0191633 3.10834e-22)
(1.09777 0.0180885 4.07348e-21)
(1.09721 0.0200317 1.09334e-21)
(1.06672 0.1541 8.3038e-22)
(1.06536 0.16372 -1.83736e-22)
(1.00542 0.00339099 -1.2048e-21)
(1.00577 0.00307734 -2.75665e-21)
(1.00517 0.00275472 -1.26841e-21)
(0.950042 0.0538825 -4.7491e-21)
(0.949827 0.0602103 -3.13864e-22)
(0.955164 0.0556448 -1.9608e-22)
(1.00551 -0.000565814 -1.05978e-22)
(1.00615 -0.000726789 -1.32673e-21)
(1.00613 -0.000698558 -1.74149e-21)
(1.02483 0.0215641 1.09971e-22)
(1.02567 0.021388 1.54589e-22)
(1.02542 0.022593 8.16968e-23)
(1.05125 0.0295381 -2.44318e-22)
(1.05246 0.0299808 5.27195e-22)
(1.00703 -0.00358706 1.8215e-22)
(1.00717 -0.00361151 -1.18156e-21)
(1.00701 -0.0034087 -1.39788e-21)
(0.952744 -0.114044 4.35565e-22)
(0.921106 -0.125582 -6.99783e-23)
(0.936143 -0.124359 9.65458e-23)
(1.01154 0.00988545 2.47016e-22)
(1.01185 0.0103419 -3.53224e-22)
(1.01211 0.0100014 -1.05677e-21)
(1.01882 0.00213323 5.82912e-22)
(1.01896 0.00211135 2.63307e-22)
(0.974178 0.0244567 -2.0988e-21)
(0.970715 0.0222685 9.43685e-22)
(0.974912 0.0202688 8.49142e-22)
(1.02737 -0.00835851 -7.28474e-22)
(1.02571 -0.00773062 -1.70458e-21)
(1.02695 -0.0066827 2.81477e-21)
(1.0201 0.0681945 1.82575e-22)
(1.02289 0.0720613 -2.24429e-22)
(1.02388 0.0667124 -2.26583e-21)
(1.00673 -0.00347989 -3.09861e-22)
(1.00689 -0.00353803 1.38165e-21)
(1.00671 -0.00331587 -1.66015e-21)
(0.827172 -0.295531 -3.23113e-21)
(0.819336 -0.305259 -2.10421e-21)
(1.0066 -0.00343642 0)
(1.00677 -0.00366116 0)
(1.0113 0.00943354 5.31195e-23)
(1.01103 0.00971556 6.91731e-22)
(1.01604 0.0697576 -1.16521e-21)
(1.01725 0.064351 -4.99264e-23)
(1.02387 0.0219607 2.80328e-23)
(1.02416 0.0207495 1.31762e-22)
(1.00224 0.0634147 -1.65092e-24)
(1.00243 0.0675841 -4.46615e-24)
(1.00608 0.0649713 -1.53915e-24)
(1.00706 -0.00375641 1.61405e-21)
(1.01972 0.0239563 4.45348e-22)
(1.02045 0.0249331 8.95051e-22)
(1.01927 0.0251439 -4.50788e-23)
(1.01331 0.0787211 1.23835e-21)
(1.01516 0.0819109 1.78847e-21)
(1.01086 0.0809832 -4.20592e-22)
(1.00081 1.08071e-05 4.0902e-22)
(1.00076 -1.44561e-05 -3.2732e-22)
(1.00022 -3.16998e-06 1.37448e-21)
(1.01062 0.00047567 7.16935e-22)
(1.00953 0.000378133 -1.25365e-22)
(1.00924 0.00036239 5.90883e-22)
(1.03064 0.0655006 1.39059e-22)
(1.03224 0.0632681 -3.78504e-22)
(1.03337 0.066073 5.27942e-22)
(1.01398 0.00412022 -4.84618e-22)
(1.01381 0.00416254 1.33633e-21)
(1.01375 0.0040022 1.42203e-21)
(1.02776 0.0646773 -1.22903e-22)
(1.02858 0.0675747 1.60279e-22)
(0.868366 0.250907 7.83419e-22)
(0.875672 0.257182 -6.7103e-21)
(0.836351 0.0912271 -3.30458e-21)
(0.844342 0.0804085 -3.56254e-21)
(0.850779 0.0938214 -1.47986e-21)
(0.998121 0.061289 5.26117e-23)
(1.00142 0.0591027 0)
(1.01654 0.0120756 3.22266e-23)
(1.01708 0.0126939 9.96765e-22)
(0.912172 -0.135955 1.22463e-21)
(0.918492 -0.137288 7.57322e-21)
(0.947379 -0.11081 2.87883e-22)
(1.00224 0.00121157 8.02984e-22)
(1.00163 0.00109678 -9.93953e-22)
(1.00205 0.00199689 -1.7916e-21)
(1.01314 0.00312046 2.21646e-23)
(1.01311 0.00301918 -3.74021e-23)
(1.01295 0.00301314 -1.54731e-21)
(1.00285 0.00127653 7.98453e-22)
(1.00251 0.000585113 -6.43653e-23)
(1.09913 0.0763885 2.28345e-21)
(1.10115 0.0806387 2.55994e-21)
(1.09597 0.0791402 1.7739e-21)
(1.02309 0.00868895 -2.42747e-22)
(1.0234 0.00894554 -6.13101e-22)
(1.02308 0.00908149 -3.93673e-22)
(1.0122 0.0755928 3.82517e-22)
(1.0165 0.0765504 -1.1155e-22)
(1.01107 0.00900593 2.88909e-22)
(1.01155 0.00911872 -1.02883e-21)
(1.01584 0.0121102 -1.32082e-21)
(1.01613 0.0114546 -7.22047e-22)
(1.01706 -0.00032597 3.14101e-23)
(1.01719 -0.00036752 1.90326e-23)
(1.01705 -0.000404669 5.30442e-23)
(1.02311 0.0221882 4.62626e-24)
(1.02215 0.0224167 3.73375e-22)
(1.02248 0.021341 0)
(1.00468 -0.00195452 2.2253e-21)
(1.0046 -0.00179783 1.28887e-21)
(0.944034 0.0523138 0)
(0.949963 0.047736 0)
(0.907008 -0.131543 -1.9741e-21)
(0.881479 -0.155712 -1.51994e-21)
(1.04315 0.0473518 -6.1891e-22)
(1.04269 0.0489678 4.22396e-22)
(1.04477 0.0483651 -5.39059e-22)
(1.00503 -0.00221484 -4.97737e-22)
(1.00513 -0.00238846 3.63469e-22)
(1.00511 -0.00225207 -3.81209e-22)
(1.0105 -0.000411503 4.48448e-22)
(1.01059 -0.00040395 -4.39443e-22)
(1.00408 -0.000254661 1.33891e-23)
(1.00285 -0.000123896 3.99523e-22)
(1.00393 -0.000249093 9.38669e-22)
(0.987887 0.00379287 -4.62025e-21)
(0.985632 0.00561544 1.77107e-22)
(0.989221 0.00646006 -2.18918e-22)
(1.01904 0.0229137 5.22284e-22)
(1.02012 0.0228017 -8.27557e-22)
(0.96664 -0.0350263 -9.86145e-22)
(1.01324 -0.0369185 2.46956e-21)
(0.982757 -0.0307001 -1.58889e-21)
(1.00069 0.0179561 6.00481e-22)
(1.00235 0.0187834 1.2449e-21)
(1.00225 0.0168536 6.42789e-22)
(1.01082 0.00859726 9.4332e-22)
(1.01057 0.00885361 5.26478e-22)
(1.01167 0.071402 4.91962e-23)
(1.01455 0.0755161 3.79611e-22)
(1.02162 0.0155424 2.90092e-23)
(1.02092 0.0156207 -5.47774e-22)
(1.02117 0.0148404 4.86026e-22)
(1.02638 0.0208502 5.58723e-23)
(1.02687 0.0217351 1.726e-22)
(0.985276 -0.101726 -5.58761e-24)
(0.969838 -0.10436 1.32848e-22)
(1.17806 -0.0152657 1.79772e-21)
(1.17704 -0.0205767 1.49758e-21)
(0.867781 0.241482 -4.75744e-21)
(1.03142 0.0737747 2.64184e-22)
(1.02964 0.076611 -4.8288e-22)
(1.03361 0.0770063 -2.19593e-22)
(1.00792 0.0721785 0)
(1.00979 0.0675592 0)
(1.05951 -0.0160945 2.80781e-22)
(1.04101 -0.0145281 -1.48908e-22)
(1.05047 -0.0172782 2.57774e-22)
(1.0063 0.0162443 5.9753e-22)
(1.01386 0.000920214 -1.19583e-22)
(1.01395 0.0009186 -1.11496e-21)
(0.99018 0.247229 2.22934e-21)
(1.00012 0.239984 -7.65131e-22)
(1.02391 0.00711451 0)
(1.02401 0.00740354 -1.19855e-23)
(1.02366 0.0072344 0)
(1.01316 0.00322475 7.83515e-22)
(1.01333 0.00322413 7.65895e-22)
(0.756765 0.265871 0)
(0.753576 0.25084 0)
(1.01879 0.00342844 5.3176e-22)
(1.01865 0.00333355 4.51332e-22)
(1.01879 0.0033731 -1.52515e-21)
(1.10706 0.047582 -1.64891e-21)
(1.10904 0.0452873 0)
(1.10977 0.0488708 -4.64972e-22)
(0.982232 0.126619 -9.61719e-22)
(0.986328 0.12378 -7.89031e-22)
(0.986391 0.130522 7.35197e-22)
(1.01373 0.00451433 -8.06237e-22)
(1.01394 0.00447514 -2.44195e-24)
(1.01401 0.00464346 8.19184e-22)
(1.17455 0.110584 -3.17098e-21)
(1.16808 0.103571 0)
(0.990337 -0.100452 0)
(0.971448 -0.111007 1.81574e-22)
(0.957414 -0.119294 8.951e-22)
(1.01551 0.000663274 1.20233e-22)
(1.01561 0.000694983 1.13516e-24)
(1.01557 0.000772655 0)
(0.830651 0.106014 1.09541e-21)
(0.823076 0.0915302 2.79562e-21)
(1.04135 0.0267388 6.12522e-22)
(1.04166 0.0259028 -3.33568e-22)
(1.0423 0.0269299 4.49547e-22)
(1.01375 0.0470643 6.52507e-25)
(1.01113 0.0454109 5.96864e-22)
(1.01112 0.0490088 -3.8243e-22)
(1.01468 0.00328741 0)
(1.01453 0.00320059 0)
(1.01457 0.00327922 0)
(0.814107 0.285672 -1.81099e-21)
(0.805813 0.277595 -4.10583e-22)
(0.976996 0.12224 8.88616e-22)
(0.976689 0.129704 0)
(1.01606 0.000171806 -2.80294e-22)
(1.01652 0.00017284 1.57885e-22)
(1.01644 0.000199964 -5.63409e-22)
(0.640427 0.0166103 1.07898e-21)
(0.623932 0.0121405 3.13516e-22)
(0.680948 0.0110585 3.37795e-21)
(1.02275 -0.000805842 9.82393e-23)
(1.02237 -0.00103149 -9.12559e-23)
(1.02225 -0.000696325 8.35645e-24)
(0.986492 0.00099762 -1.26163e-21)
(0.989941 0.00182509 -8.73708e-22)
(1.02977 -0.0232427 4.95347e-22)
(1.01012 -0.032533 -1.00988e-21)
(1.02559 -0.0466634 -1.20979e-21)
(1.01454 0.00190105 0)
(1.01451 0.00197216 0)
(1.02711 0.0203912 -3.26599e-23)
(1.02602 0.0201106 0)
(1.00908 0.00172989 8.33376e-22)
(1.00875 0.00143008 -8.21778e-22)
(1.00843 0.001711 1.24656e-21)
(1.00521 0.03084 -2.10748e-22)
(1.00691 0.0322957 6.24639e-22)
(1.00705 0.0299458 -8.49104e-22)
(1.00572 -0.00269983 -4.96264e-22)
(1.00559 -0.00253159 -6.67576e-22)
(1.00482 0.000632081 -1.71987e-23)
(1.00487 0.000688704 -1.10514e-21)
(1.00499 0.000714133 7.9338e-22)
(1.01374 0.000918501 1.03794e-21)
(1.01375 0.000793325 8.76552e-22)
(1.00086 -1.83193e-05 -2.73628e-22)
(1.00139 -7.6062e-05 0)
(1.01476 0.00328977 5.09298e-22)
(1.01484 0.00335933 -5.70569e-22)
(1.00467 0.000548773 8.14881e-22)
(1.00453 0.000522925 3.66697e-23)
(1.01788 -0.00432489 1.12325e-22)
(1.01856 -0.00539104 8.14568e-23)
(1.01724 -0.00554835 6.61137e-22)
(1.01879 0.00347687 1.10323e-21)
(1.01893 0.00351479 1.08369e-21)
(1.00498 -0.00220892 4.57664e-22)
(1.00495 -0.00207901 0)
(1.00872 0.0382214 1.78909e-22)
(1.01098 0.0395147 -1.14924e-22)
(1.01082 0.0368329 3.82898e-22)
(1.02157 -0.00854186 0)
(1.02286 -0.00955153 1.85292e-21)
(1.02111 -0.0103751 0)
(1.03092 0.0436057 2.20038e-21)
(1.03623 0.0488618 1.35008e-22)
(1.03866 0.0421961 7.41452e-22)
(0.652425 0.0226367 0)
(0.598519 0.0246779 0)
(0.957441 0.244846 6.57152e-22)
(0.94685 0.251509 7.56516e-22)
(0.947626 0.238051 3.17168e-23)
(0.634472 -0.0668239 -1.25834e-20)
(0.623363 0.000863654 -1.03588e-20)
(0.637887 -0.0539956 1.29061e-21)
(1.04091 0.0277862 0)
(1.04031 0.026654 0)
(1.0057 -0.000288895 8.82623e-22)
(1.00564 -0.000302732 1.88231e-24)
(1.00406 -0.00014407 4.01494e-22)
(1.10405 0.0459164 -1.66362e-21)
(1.10434 0.0493343 1.19725e-21)
(1.00116 -9.22129e-05 -3.37417e-22)
(1.00114 -9.94686e-05 9.038e-22)
(1.00048 -5.52691e-05 1.45499e-21)
(0.809733 -0.135279 9.86732e-22)
(0.808728 -0.119981 1.0505e-21)
(1.00915 -0.000203521 6.37377e-24)
(1.00925 -0.000191286 1.13351e-22)
(1.00693 -9.50944e-05 0)
(1.01541 0.000134331 0)
(1.01528 0.000138588 4.45047e-22)
(1.00413 -0.000232136 -4.50373e-22)
(1.00506 -0.000415135 -1.17532e-21)
(1.01851 -0.000513315 0)
(1.0186 -0.000386773 0)
(1.01877 -0.000537583 -8.47355e-23)
(1.04083 0.00992762 5.28476e-23)
(1.04165 0.0100604 -1.45969e-21)
(1.0411 0.0105368 2.94894e-21)
(1.01024 0.0347351 9.52398e-22)
(1.01204 0.0349187 8.5552e-22)
(1.01071 0.0368053 8.16071e-22)
(1.00086 3.44282e-05 3.38742e-22)
(1.00085 3.43522e-05 -1.30375e-21)
(1.00023 2.10331e-06 -1.38439e-21)
(1.02633 0.038038 -1.0812e-21)
(1.02396 0.0436607 6.29852e-22)
(1.02441 0.00885053 -2.47512e-22)
(1.02402 0.00862202 -3.10102e-22)
(1.02432 0.00841413 7.69691e-24)
(1.0152 0.00242592 -8.28055e-22)
(1.01534 0.00247411 3.62892e-22)
(1.01522 0.00235681 1.51487e-21)
(1.02952 0.027013 -3.16203e-22)
(1.02562 0.0237019 7.89463e-22)
(1.03037 0.0221177 8.55158e-22)
(1.01512 0.01216 1.09279e-21)
(1.01552 0.0127801 3.08625e-22)
(1.00215 0.000185388 2.52658e-22)
(1.00174 0.00012876 -6.5335e-22)
(1.00266 0.000261947 6.43349e-22)
(1.02504 0.0635068 -1.16742e-21)
(1.0227 0.0654053 -5.60463e-22)
(1.02223 0.0623028 -2.53188e-23)
(1.01802 0.000362983 -1.88535e-22)
(1.01795 0.000287299 -3.66545e-22)
(1.01786 0.000351424 9.41722e-23)
(1.00805 0.0176162 5.44545e-22)
(1.00897 0.0171823 6.63519e-22)
(1.06315 -0.0136407 0)
(1.06805 -0.0158538 -3.56685e-22)
(1.09833 0.0724267 -1.43225e-21)
(1.10264 0.0741751 -6.09235e-22)
(1.00482 0.00207444 -1.18585e-21)
(1.00479 0.00198729 8.50858e-22)
(1.00488 0.00210817 -1.17897e-21)
(1.00894 -0.00620462 5.72932e-22)
(1.00876 -0.00616678 -1.93871e-21)
(1.00898 -0.00644954 -1.4255e-21)
(1.01705 -3.29964e-05 -8.77339e-23)
(1.01694 -2.19516e-05 3.62821e-22)
(1.01702 -7.96356e-05 1.5425e-23)
(0.938918 -0.0354151 -4.22736e-22)
(0.998452 -0.0384605 3.84624e-21)
(0.941311 -0.0416304 0)
(1.00547 -0.000635606 6.07891e-22)
(1.0056 -0.000661825 -5.27817e-22)
(0.96934 0.276846 -8.45069e-22)
(0.968468 0.263868 9.43512e-22)
(0.957201 0.271569 -8.40641e-22)
(1.00472 0.00187812 3.01394e-21)
(1.00468 0.00184178 1.33404e-21)
(0.974855 0.190081 5.62798e-22)
(0.98183 0.173604 2.4052e-21)
(1.01436 0.0120216 5.79815e-22)
(1.01481 0.0115242 -1.17881e-21)
(1.02644 0.000228793 6.0875e-22)
(1.02602 -0.000505684 -9.1815e-23)
(1.02551 0.000197137 2.62911e-22)
(1.00777 -0.0106382 4.28468e-21)
(1.00954 -0.00973915 0)
(1.00103 4.71039e-05 3.2236e-22)
(1.00132 6.72188e-05 -5.78549e-22)
(1.00184 0.000117799 -1.63599e-22)
(0.967752 0.237259 1.18707e-21)
(0.968168 0.251143 3.47013e-22)
(1.02411 0.0060678 -1.83224e-22)
(1.02423 0.00589278 5.96419e-23)
(1.02446 0.00615205 7.51955e-23)
(0.64642 -0.132614 7.36357e-21)
(0.632797 -0.0723775 8.85354e-21)
(1.01516 0.00247466 -4.1768e-22)
(1.01507 0.00236163 -1.16629e-22)
(1.00496 -0.00330751 -5.07076e-22)
(1.00501 -0.00323247 1.4207e-21)
(1.00509 -0.00346556 2.18155e-21)
(1.00868 0.000435421 8.04363e-22)
(1.00819 0.000340919 3.64289e-22)
(1.00816 0.000660955 9.00432e-22)
(1.02093 0.00580417 -7.57908e-23)
(1.02092 0.00563986 -7.74541e-23)
(1.02079 0.0056331 5.71168e-22)
(0.964282 -0.0456571 -8.04705e-22)
(0.949577 -0.0470106 -2.21267e-21)
(0.961828 -0.0387401 -2.11184e-21)
(1.00995 0.00384277 0)
(1.00999 0.00466543 -9.74822e-22)
(1.01095 0.00430448 4.32145e-22)
(1.00987 0.00319778 -8.38612e-22)
(1.00907 0.00349885 -1.22979e-21)
(1.02327 -0.000998491 2.67677e-23)
(1.02316 -0.000586679 -3.86506e-23)
(0.824905 -0.131962 -8.19172e-22)
(0.814599 -0.147864 1.64971e-21)
(1.00837 0.034056 -2.4745e-21)
(1.00994 0.0325105 4.2614e-23)
(1.05073 0.0211472 0)
(1.04995 0.0206043 0)
(1.04992 0.0215485 0)
(1.02395 0.00625989 -2.50782e-22)
(1.02377 0.0064085 0)
(1.02416 0.00653699 0)
(1.0151 0.00330317 4.66637e-22)
(1.01514 0.00336891 -2.40242e-22)
(1.01528 0.00338579 4.02709e-22)
(1.04375 0.0454714 0)
(1.04161 0.0461048 -2.07125e-22)
(1.01024 -0.00642109 -9.98684e-22)
(1.01046 -0.00640247 1.26026e-21)
(1.01019 -0.00614678 6.15437e-22)
(1.03634 0.0610751 5.50305e-23)
(1.03387 0.0609432 -3.28325e-22)
(1.03518 0.0585893 -8.57136e-23)
(0.99987 -0.0150585 2.91612e-22)
(1.00101 -0.0168673 1.49502e-21)
(1.00177 -0.0149027 1.31197e-21)
(1.05787 -0.026909 -4.15629e-22)
(1.06415 -0.0327069 -2.24833e-23)
(1.06518 -0.0244019 3.48553e-22)
(0.995207 0.0114554 6.92708e-22)
(0.996435 0.0120767 1.38413e-22)
(0.995127 0.0131153 6.23112e-22)
(1.01002 -0.00641368 -1.34622e-21)
(1.0098 -0.00638869 3.10734e-22)
(1.00976 -0.00613375 3.06291e-22)
(1.00572 -0.0866024 -1.4729e-21)
(1.01823 -0.0821462 0)
(0.991829 0.194068 -3.44112e-21)
(0.983315 0.200496 -6.53007e-23)
(0.981399 0.190494 -6.05714e-23)
(0.986453 0.0310009 6.31721e-23)
(0.983459 0.0296281 -2.28215e-21)
(0.986458 0.0276396 1.28862e-21)
(1.00232 0.00977835 -1.87372e-22)
(1.00272 0.00930538 -1.94364e-22)
(1.00217 0.00892137 -4.05045e-22)
(1.02371 0.0230219 -3.02595e-22)
(1.04738 -0.00868451 -8.90847e-22)
(1.04401 3.23713e-05 2.35281e-21)
(1.05125 -0.000190571 3.33682e-22)
(1.01029 -0.00668905 -5.82281e-22)
(1.00659 0.0369769 -2.01011e-22)
(1.00633 0.0396453 -8.49909e-24)
(1.05216 -0.0214791 -1.12659e-21)
(1.05095 -0.0277449 1.34912e-22)
(1.03485 0.00687214 2.69161e-22)
(1.03479 0.00630603 -1.03601e-22)
(1.03423 0.00660158 2.85655e-22)
(1.05562 -0.0115784 -5.09024e-22)
(1.05446 0.0135029 0)
(1.05528 0.0134276 2.81332e-22)
(1.0546 0.0127219 0)
(1.00964 0.00261654 -5.64962e-22)
(1.01052 0.00278313 -7.67272e-22)
(1.00475 0.00200771 0)
(1.00479 0.00204509 0)
(1.00471 0.00191462 3.59071e-22)
(1.04005 0.0098788 6.56893e-22)
(1.04056 0.00936017 -4.65058e-22)
(1.00939 0.00215866 5.96753e-22)
(1.00885 0.00247425 -8.12079e-22)
(0.989005 0.0321819 7.98598e-22)
(0.991889 0.0330697 -1.61158e-21)
(0.991759 0.0299455 3.33401e-22)
(1.02373 0.00599818 -2.30443e-22)
(1.01873 0.00183871 0)
(1.01871 0.00173594 0)
(1.01854 0.00176071 4.66172e-24)
(1.01472 0.00276885 0)
(1.01472 0.00283394 0)
(1.01458 0.00273008 8.48525e-22)
(0.972761 -0.0427974 2.85836e-21)
(0.968113 -0.0526737 3.74491e-21)
(0.93371 -0.044635 -8.11843e-24)
(0.919698 -0.042085 4.89609e-22)
(0.938125 -0.0375903 0)
(1.01121 0.0110283 1.64137e-22)
(1.0114 0.0115883 -4.2815e-22)
(1.01067 0.0112583 -1.40908e-21)
(1.00506 0.00371208 9.2304e-22)
(1.00576 0.00417338 8.90523e-22)
(0.934371 -0.0537919 -9.2764e-24)
(1.1305 -0.00433661 -4.42632e-22)
(1.12946 -0.00890997 -1.04236e-22)
(1.12614 -0.00552316 -6.69128e-22)
(0.997851 -0.0150435 -1.40579e-21)
(0.999272 -0.0132837 -1.26769e-21)
(1.01826 -0.000468327 -4.42035e-23)
(1.01839 -0.000629499 0)
(1.0057 -0.0225547 1.49621e-21)
(1.00804 -0.0243393 0)
(1.00794 -0.0208728 0)
(1.05443 0.0144595 -2.70593e-21)
(1.05369 0.0137372 0)
(1.01618 0.000301269 1.6942e-22)
(1.01555 0.000248428 -7.42446e-22)
(1.01591 0.000316335 -6.83589e-22)
(0.995446 0.00978473 -3.97053e-22)
(0.993951 0.0106285 0)
(1.01213 0.00324906 -4.13589e-22)
(1.0123 0.00324233 3.61712e-22)
(1.01212 0.00312366 -1.6471e-21)
(1.04784 -0.0170326 -3.32691e-22)
(1.03523 -0.000218985 7.52838e-22)
(0.980944 -0.0245376 -8.37575e-22)
(0.980595 -0.029717 0)
(0.975539 -0.0269453 4.19087e-22)
(1.09543 0.0702229 -2.74373e-21)
(1.0937 0.0671886 -1.26117e-21)
(1.09214 0.0710846 1.74958e-21)
(1.06536 0.0206974 -3.23236e-21)
(1.06596 0.0211964 7.3986e-22)
(1.06626 0.0203509 -6.58959e-21)
(1.00588 -0.0115501 -2.31435e-22)
(1.00822 -0.0128632 1.90354e-21)
(1.00626 -0.0270997 -2.8164e-21)
(1.00188 -0.0257788 -1.71545e-21)
(1.00554 -0.0222741 -2.6741e-21)
(1.01853 0.0432421 -5.48379e-22)
(1.01618 0.0451569 -3.34975e-22)
(1.01595 0.0417731 -5.78639e-22)
(1.1029 0.0844479 -1.30135e-21)
(1.09998 0.0881086 -2.04529e-21)
(1.10559 0.0893111 -1.15774e-21)
(1.01196 0.00325497 7.76069e-22)
(1.01215 0.00337611 7.76458e-24)
(1.01893 0.00191783 3.01782e-22)
(1.01091 0.0187386 4.7936e-22)
(1.00986 0.0191592 1.52073e-22)
(1.00993 0.0179476 1.69805e-22)
(1.00531 -0.00258562 1.78487e-22)
(1.00522 -0.00253084 7.85219e-22)
(1.00532 -0.0026881 9.32997e-22)
(1.0267 0.000931942 2.29608e-22)
(1.02742 0.000290598 -1.28386e-21)
(1.05146 0.02164 -2.69419e-21)
(1.05147 0.020739 0)
(1.01399 0.00185329 1.08934e-21)
(1.01412 0.00187993 3.33353e-22)
(1.01403 0.00177265 3.13827e-22)
(1.02139 0.00596082 -4.86402e-22)
(1.02153 0.00593054 -4.29794e-22)
(1.02155 0.00613786 -3.97393e-24)
(1.05243 -0.00455589 2.80897e-21)
(1.04922 -0.00618867 1.26757e-22)
(1.04942 -0.00228908 2.13774e-21)
(1.01352 0.0045587 -8.17088e-22)
(1.01347 0.0043844 -1.01416e-21)
(1.02271 0.117284 2.16175e-22)
(1.02549 0.121711 -3.84555e-22)
(1.01984 0.121603 3.0635e-22)
(0.863238 -0.133907 -9.28959e-22)
(0.86778 -0.136983 0)
(1.0462 -0.00768841 -4.02731e-21)
(1.04271 -0.00847321 -9.47748e-22)
(1.04368 -0.00516667 -3.7309e-22)
(1.02108 0.00599397 0)
(1.02092 0.00598677 -5.46004e-22)
(0.997371 0.0158086 -3.5527e-23)
(0.999181 0.0170226 2.90438e-21)
(0.99905 0.0147301 3.69007e-22)
(1.0053 -0.00248254 -5.88023e-22)
(1.00541 -0.00264267 -7.32476e-22)
(1.03772 0.0632065 0)
(1.03919 0.065881 0)
(1.03634 0.0661784 1.61472e-22)
(1.02423 0.00520727 9.45253e-23)
(1.02392 0.00516402 -1.392e-22)
(1.024 0.00496078 0)
(1.00627 0.0345221 -9.15355e-22)
(1.00394 0.0351933 9.68446e-22)
(1.00631 0.036838 -9.41328e-22)
(1.01635 0.00012739 -3.67443e-22)
(1.01555 8.61346e-05 -3.22913e-22)
(1.0065 0.0327602 -7.3636e-22)
(0.833701 -0.0264044 2.90921e-22)
(0.825323 -0.0576169 -1.63613e-21)
(1.00484 -0.00314987 -1.35397e-21)
(1.0048 -0.00293816 -1.71091e-22)
(1.07886 0.0392888 0)
(1.07839 0.0379439 -2.23054e-21)
(1.08003 0.0382502 8.75777e-22)
(1.02363 0.0153625 -6.86129e-23)
(1.0234 0.0160993 0)
(1.02297 0.0153632 5.24284e-22)
(0.995512 0.00455201 1.11238e-21)
(0.994787 0.00337702 4.08427e-22)
(0.994115 0.00483678 -2.01032e-22)
(1.02143 0.044729 5.6199e-22)
(1.02084 0.0413262 -4.28401e-22)
(1.00668 0.000570369 -5.60129e-23)
(1.00621 0.000503998 -5.43021e-22)
(1.00915 -0.00625719 2.00522e-21)
(1.00892 -0.00597739 1.27683e-21)
(1.0255 0.113014 0)
(1.02018 0.113045 0)
(1.02123 0.00598873 -4.79272e-22)
(1.02122 0.00578718 -4.80432e-22)
(1.01655 0.0488605 1.71599e-22)
(1.05389 0.0276271 7.06754e-22)
(1.0537 0.0265944 1.22653e-21)
(1.05488 0.0269751 -2.88901e-21)
(0.875598 0.267512 -1.13843e-20)
(1.04748 0.0646773 4.43562e-22)
(1.04632 0.0674011 4.7936e-22)
(1.04467 0.064637 0)
(1.09897 0.0684234 2.22006e-25)
(1.02435 -0.00257613 2.06101e-21)
(1.02551 -0.00285225 -3.77744e-22)
(1.02497 -0.00183964 3.17204e-22)
(1.05563 -0.00225027 -1.66703e-21)
(1.0552 -0.0074719 8.10128e-22)
(1.01807 0.010181 -1.88949e-22)
(1.01746 0.00985357 6.8893e-22)
(1.01753 0.010487 7.32147e-22)
(1.05158 0.0113314 -3.16537e-22)
(1.051 0.0119093 1.5228e-21)
(1.05081 0.0109935 -3.46554e-21)
(1.06477 0.0198101 -5.94321e-22)
(1.06432 0.0207759 -6.69871e-22)
(1.07973 0.0406802 0)
(1.07788 0.0404217 0)
(1.03142 0.00537771 -1.57364e-21)
(1.03359 0.000195349 -3.99684e-22)
(1.03014 -0.000160914 2.29558e-21)
(1.0242 -0.0508653 -1.60444e-21)
(1.05377 -0.0432529 -4.48046e-21)
(0.990746 -0.0571646 4.06124e-23)
(1.01631 0.00374776 -4.37871e-22)
(1.01647 0.00379891 0)
(1.01637 0.00379303 -7.77705e-22)
(1.01489 0.0116363 9.66071e-22)
(1.01551 0.0126753 9.87217e-22)
(1.01421 0.0127583 -4.26687e-22)
(1.06169 0.149401 1.2029e-21)
(1.05683 0.144473 6.03671e-22)
(1.05475 0.151693 4.91702e-22)
(0.995634 0.0150197 1.19731e-22)
(0.995801 0.0173304 8.64966e-22)
(1.01628 0.00367444 5.0779e-22)
(1.01616 0.00366708 -3.15346e-23)
(1.01474 0.00308915 1.16881e-21)
(1.01459 0.00299258 5.18049e-22)
(1.01474 0.00251623 0)
(1.01472 0.00258283 7.63676e-22)
(1.01459 0.00246698 6.44358e-22)
(1.08268 0.0247823 -1.99092e-21)
(1.08269 0.0239801 -3.82216e-21)
(1.08344 0.0244437 0)
(1.0588 -0.0444321 1.94038e-21)
(0.99649 -0.0569468 -5.76499e-22)
(0.766308 -0.132975 5.72434e-21)
(0.792475 -0.124557 -1.45e-21)
(0.833071 -0.106292 -1.92448e-22)
(1.02765 0.00923211 -2.46812e-21)
(1.03154 0.0113518 -8.00094e-22)
(1.04827 -0.0104223 -2.20756e-21)
(1.04209 0.0248672 -4.27114e-22)
(1.04261 0.0240348 -7.05197e-22)
(1.0431 0.0252966 6.71261e-22)
(0.989935 0.0511928 0)
(0.986353 0.0513786 0)
(0.988113 0.0479596 0)
(1.02203 -0.00125551 1.0698e-22)
(1.02156 -0.0011655 1.33077e-22)
(1.02167 -0.00147574 2.86626e-22)
(1.024 0.0056364 1.15264e-22)
(1.02435 0.00567845 -1.5941e-22)
(1.04107 0.0246611 -2.1645e-22)
(1.02071 0.00311069 4.43634e-24)
(1.02091 0.00312757 -2.80239e-22)
(1.02088 0.00326249 -2.79574e-23)
(0.986453 0.0342686 4.28397e-22)
(1.00988 1.21108e-05 0)
(1.01186 -3.27313e-05 7.36856e-23)
(0.967849 0.0642459 -4.72971e-23)
(0.97052 0.06738 2.83653e-23)
(0.966668 0.0681868 -2.30839e-22)
(1.00462 -0.00189 -1.09426e-21)
(1.00468 -0.00199156 -5.06735e-22)
(1.00468 -0.00206177 -1.65567e-21)
(1.00436 0.0748983 0)
(1.003 0.0715074 1.89399e-24)
(1.01688 0.000296743 6.19268e-23)
(1.01697 0.000316633 7.63837e-22)
(1.01688 0.000325905 9.29785e-22)
(1.01982 0.00469083 -9.10989e-22)
(1.01991 0.00450287 -8.15296e-22)
(1.02664 -0.00305528 6.12774e-22)
(1.02724 -0.00220916 -7.14119e-22)
(1.02802 -0.00329556 1.78581e-21)
(1.09298 -0.00278717 -2.93927e-21)
(1.09189 -0.000592636 -1.89649e-21)
(1.09443 -0.000787128 -1.81535e-21)
(0.926506 0.250284 -5.74968e-22)
(0.936245 0.257905 4.91109e-22)
(0.92493 0.264112 1.0014e-21)
(0.99441 0.0336693 -1.93458e-21)
(0.992041 0.0359484 -8.18458e-22)
(1.02399 0.0116297 1.63646e-21)
(1.02457 0.00667445 7.57718e-22)
(1.02041 0.00773705 1.68611e-21)
(1.02053 0.00746765 -7.57633e-22)
(1.02065 0.00785995 -1.12178e-21)
(1.01424 0.00422983 -1.61693e-21)
(1.01415 0.00407377 -1.93613e-21)
(1.0205 0.00308999 6.06955e-22)
(1.02053 0.00295759 2.60849e-23)
(1.03281 0.000151726 -3.59824e-22)
(1.03455 -0.00095415 -5.22732e-22)
(1.03426 0.00118579 -4.74714e-22)
(1.04227 0.0747717 4.68773e-22)
(1.03425 0.0855729 4.19665e-22)
(1.01455 0.00403421 0)
(1.0146 0.00415233 2.39714e-22)
(1.01435 0.00403929 0)
(1.0146 0.00054351 5.88341e-23)
(1.01396 0.000422418 6.0676e-22)
(1.01469 0.00051048 -3.75533e-22)
(1.09206 -0.00758612 0)
(1.09401 -0.000936997 3.72547e-23)
(1.09258 -0.0136077 0)
(1.0212 0.00790202 2.5955e-22)
(1.0214 0.00823295 1.77235e-22)
(1.02148 0.00790294 5.80105e-22)
(1.01467 0.00427413 5.50178e-23)
(1.0145 0.00432588 1.14168e-23)
(1.01477 0.0044182 7.71352e-22)
(1.11376 -0.00943608 -1.65142e-22)
(1.11225 -0.0129291 0)
(1.10987 -0.0101142 -5.91415e-22)
(1.03124 0.000980557 7.54364e-23)
(1.0316 -0.00062571 2.95645e-23)
(1.01472 0.00264368 9.4485e-22)
(1.01472 0.00270538 2.15238e-22)
(1.01458 0.00259921 5.28933e-24)
(1.00401 0.00995007 -2.69502e-22)
(1.00328 0.00958337 0)
(1.00357 0.0105133 0)
(1.00184 0.0346578 -1.25888e-21)
(1.00222 0.0374321 -2.12816e-22)
(1.01534 0.000403657 9.47291e-22)
(1.01439 0.000396629 1.15043e-23)
(1.01432 0.000411333 7.08133e-22)
(0.999433 0.0344984 2.91357e-22)
(1.00143 0.0322907 -8.76544e-22)
(1.01266 -0.00917289 -3.11484e-22)
(1.01235 -0.00922299 0)
(1.01271 -0.00953913 -6.78718e-22)
(1.01452 0.000554811 -2.94434e-22)