/*--------------------------------*- C++ -*----------------------------------*\
| =========                 |                                                 |
| \\      /  F ield         | OpenFOAM: The Open Source CFD Toolbox           |
|  \\    /   O peration     | Version:  v2012                                 |
|   \\  /    A nd           | Website:  www.openfoam.com                      |
|    \\/     M anipulation  |                                                 |
\*---------------------------------------------------------------------------*/
FoamFile
{
    version     2.0;
    format      ascii;
    class       surfaceVectorField;
    location    "450";
    object      Uf_0;
}
// * * * * * * * * * * * * * * * * * * * * * * * * * * * * * * * * * * * * * //

dimensions      [0 1 -1 0 0 0 0];


internalField   nonuniform List<vector> 
27284
(
(0.987037 0.2352 3.61609e-22)
(0.985316 0.223304 1.22115e-22)
(0.976466 0.22991 2.9045e-22)
(1.00461 0.00169584 -3.1669e-22)
(1.00464 0.00176745 -3.13486e-22)
(1.00457 0.00165889 -1.03565e-21)
(1.18611 -0.00984811 -1.74569e-22)
(1.19273 -0.00204892 2.05808e-21)
(1.18148 0.001019 0)
(1.01397 0.00111923 5.08813e-22)
(1.01403 0.00120785 1.53137e-21)
(1.01407 0.00109837 1.04897e-21)
(1.04885 0.0369332 -1.73124e-23)
(1.04705 0.0413685 -4.4037e-24)
(1.04451 0.0371849 9.43609e-23)
(0.882897 -0.020819 -1.69595e-22)
(0.890872 -0.011572 3.59111e-22)
(0.864176 -0.0144149 -3.75636e-22)
(1.00636 0.0151494 -1.7208e-23)
(1.00617 0.0142274 -5.61973e-22)
(1.00546 0.0144784 2.32924e-22)
(1.05331 0.0364867 2.02035e-21)
(1.04963 0.0324961 6.53223e-23)
(1.00421 0.000235333 9.23857e-23)
(1.00531 0.000472556 -1.26474e-21)
(1.00469 0.000337658 -1.41715e-21)
(1.03094 0.0741797 1.96702e-22)
(1.02708 0.0651082 -3.6956e-22)
(1.0191 0.0722172 -4.94592e-22)
(1.00721 -0.00278979 -3.2295e-22)
(1.00763 -0.000969457 2.92027e-21)
(1.00908 -0.00256539 -9.98747e-22)
(1.08748 0.00608767 -5.20986e-21)
(1.08714 0.00750844 -6.02668e-21)
(1.0887 0.00704465 -2.88616e-21)
(1.08794 0.0044778 1.29274e-21)
(1.08618 0.00503282 1.10362e-21)
(0.992036 0.185073 0)
(1.00369 0.196737 0)
(1.00578 0.178017 -5.19344e-22)
(1.00694 0.000673849 5.74168e-22)
(1.00744 0.000818297 -1.51277e-21)
(1.00708 0.000740603 5.47292e-22)
(1.00468 -0.00191596 -9.83381e-22)
(1.00469 -0.00187133 -7.74242e-22)
(1.00476 -0.00201841 -1.596e-21)
(1.01391 0.00102137 -4.22437e-22)
(1.01386 0.00112641 -1.5872e-21)
(1.02117 -0.0047221 1.57131e-21)
(1.02214 -0.00556616 -1.70229e-22)
(1.02233 -0.00428275 2.61178e-22)
(1.16658 0.114048 0)
(1.16275 0.12363 0)
(1.15708 0.115472 0)
(1.02874 0.0137363 -4.16767e-22)
(1.02924 0.0125534 -2.12755e-22)
(1.02774 0.012709 -5.08598e-22)
(0.812829 0.118522 5.67654e-22)
(0.825259 0.117581 -2.50893e-21)
(0.820867 0.130246 4.07762e-22)
(1.02488 0.00991232 3.63723e-22)
(1.02446 0.00960972 -2.14388e-23)
(1.02444 0.0101675 -3.87985e-23)
(1.00521 0.00152138 -4.02848e-22)
(1.00517 0.00160437 -6.06782e-23)
(1.00512 0.00147091 1.31252e-22)
(0.875839 -0.0306226 1.01947e-21)
(0.898337 -0.0273047 -1.24806e-22)
(1.0053 0.00157292 4.69726e-22)
(1.00525 0.00143632 -7.13981e-22)
(1.01721 0.00233066 -6.85066e-22)
(1.01753 0.00257339 -5.77871e-22)
(1.01761 0.00199481 -1.94402e-21)
(1.00715 0.0157534 -6.83474e-22)
(1.00807 0.0165006 -8.33363e-23)
(1.0081 0.0154391 -1.4293e-22)
(1.01464 0.00200421 -6.70768e-22)
(1.01479 0.00204315 -5.2622e-22)
(1.01475 0.00211766 -8.3735e-22)
(1.00267 0.000115256 1.36388e-21)
(1.00385 0.000191558 1.29172e-21)
(1.00727 -0.00655608 2.47841e-21)
(1.00715 -0.00474887 -3.39431e-23)
(1.00908 -0.00600939 1.12837e-21)
(0.776038 -0.128729 0)
(0.762629 -0.11345 0)
(0.777652 -0.106353 0)
(0.957321 0.0244464 1.32742e-21)
(0.961725 0.026388 4.18071e-22)
(0.957771 0.0297916 -6.61152e-22)
(1.00475 -0.00302193 8.60961e-23)
(1.00465 -0.0028716 -1.61525e-21)
(1.00468 -0.00308975 -8.14565e-22)
(1.00595 -0.00269975 -4.18454e-22)
(1.00606 -0.00272297 3.96007e-22)
(1.00592 -0.00254582 -1.29234e-21)
(1.01029 -2.25322e-05 4.07312e-23)
(1.01026 -5.84195e-05 1.15764e-22)
(1.00782 -7.77204e-05 5.77983e-23)
(1.01852 0.0079433 5.83902e-22)
(1.01868 0.00763823 0)
(1.01886 0.00806213 0)
(1.05205 0.0289793 0)
(1.05299 0.0283231 0)
(1.05173 0.0279678 -8.70999e-22)
(1.01818 0.00782613 1.53938e-21)
(1.01833 0.00835284 1.60552e-22)
(1.00749 -0.00858696 -2.26325e-21)
(1.00541 -0.00711975 1.97345e-21)
(1.01986 0.0044756 2.11738e-23)
(1.01973 0.00440593 9.30901e-23)
(1.01989 0.00424867 -8.91199e-22)
(1.01573 8.7995e-05 2.9519e-22)
(1.01567 0.000105642 -1.47522e-22)
(1.01401 7.03223e-05 2.98437e-22)
(1.00535 -0.00306531 -1.0284e-21)
(1.00582 -0.00264665 1.2665e-21)
(1.00571 -0.00259184 3.17265e-22)
(1.0057 -0.00246987 3.21831e-22)
(1.00458 0.0016206 -6.269e-22)
(1.00454 0.00154091 -2.69619e-22)
(1.0045 0.00151325 -6.18843e-22)
(1.00465 0.0017242 1.77719e-21)
(1.06541 -0.0109042 -2.09838e-22)
(1.06839 -0.00998167 -2.25481e-22)
(1.06516 -0.00860954 -5.511e-23)
(1.01488 0.00306735 -6.75484e-22)
(1.01503 0.0031024 -5.13009e-23)
(1.01504 0.00316252 2.11787e-21)
(1.01473 0.0030318 -2.59782e-21)
(1.01473 0.00296965 -9.62443e-22)
(0.794509 -0.137136 0)
(1.01791 0.0117193 3.25616e-22)
(1.01721 0.0119054 -1.37806e-22)
(1.01738 0.0111469 -4.84855e-22)
(1.00504 -0.000544765 5.94024e-22)
(1.00433 -0.000408062 -2.11599e-22)
(1.0045 -0.000408809 -7.0747e-22)
(0.770641 0.250292 7.04889e-22)
(0.782522 0.23662 1.27055e-21)
(0.784605 0.250498 -1.64249e-23)
(1.01852 0.0123692 2.42592e-22)
(1.01868 0.0114562 -4.84957e-22)
(1.07208 0.160038 -1.81806e-21)
(1.07741 0.164106 -8.2314e-22)
(1.07829 0.154865 -1.3946e-21)
(1.01878 0.00206193 1.27577e-21)
(1.01875 0.0019414 7.10539e-22)
(1.01859 0.00197633 5.77314e-23)
(1.02816 0.0149634 5.83087e-22)
(1.02982 0.0148684 -4.75521e-22)
(1.0094 -0.000318321 -1.03522e-21)
(1.00787 -0.00017924 4.9625e-22)
(1.00803 -0.000171393 -7.80656e-22)
(0.829041 -0.304698 1.47204e-21)
(1.01687 0.0021969 1.22986e-21)
(1.0169 0.00277023 -9.65897e-23)
(0.741358 0.0229297 -8.21357e-22)
(0.695866 0.0253028 -3.00457e-21)
(0.688905 0.0321954 -2.49578e-21)
(1.00596 -0.00283258 2.29092e-21)
(1.09942 0.0195126 1.85091e-21)
(1.09827 0.0184058 -2.08027e-21)
(1.09767 0.0203558 2.13979e-21)
(1.06578 0.154473 0)
(1.06434 0.164072 1.39809e-21)
(1.00539 0.00338258 -8.81229e-22)
(1.00574 0.00307139 -1.8724e-22)
(1.00514 0.00274461 -6.33725e-22)
(0.949747 0.0534192 -2.10498e-21)
(0.949494 0.0597498 3.77519e-21)
(0.954864 0.0552202 -3.26266e-21)
(1.00552 -0.000566182 9.53732e-22)
(1.00616 -0.000727298 -2.37883e-22)
(1.00614 -0.000698982 1.55386e-21)
(1.02478 0.0215471 0)
(1.02562 0.021375 5.96916e-23)
(1.02536 0.0225781 -5.37177e-24)
(1.05121 0.0296316 2.85039e-21)
(1.05243 0.0300803 -1.65e-21)
(1.00704 -0.00359122 -1.46525e-22)
(1.00718 -0.00361553 -1.18035e-21)
(1.00701 -0.00341262 -1.06511e-21)
(0.953624 -0.113925 -2.08334e-22)
(0.921883 -0.125636 -1.72636e-22)
(0.937042 -0.124199 3.92024e-22)
(1.01151 0.00988266 0)
(1.01182 0.0103397 6.77647e-22)
(1.01208 0.0100007 3.90515e-22)
(1.01882 0.00213466 -1.24407e-22)
(1.01896 0.00211272 8.02941e-22)
(0.974095 0.0241297 -1.91147e-21)
(0.970648 0.0219171 -4.22388e-21)
(0.974858 0.0199441 0)
(1.02749 -0.00827856 3.43687e-21)
(1.02583 -0.00766517 -3.18728e-22)
(1.02705 -0.00660706 1.38393e-21)
(1.01985 0.0681218 -7.06736e-23)
(1.02262 0.0719851 -2.88905e-22)
(1.02361 0.0666582 -2.27278e-21)
(1.00674 -0.00348423 3.71711e-23)
(1.00689 -0.00354228 2.52006e-21)
(1.00672 -0.00331997 1.51923e-21)
(0.827915 -0.295184 -2.65592e-21)
(0.820163 -0.304672 -7.58649e-21)
(1.00661 -0.00344084 -1.83508e-21)
(1.00678 -0.00366575 -1.47353e-21)
(1.01127 0.00943045 4.94088e-22)
(1.011 0.00971074 -3.53734e-22)
(1.01579 0.0696678 0)
(1.01701 0.0642795 -8.00362e-24)
(1.02381 0.0219393 0)
(1.02411 0.02073 0)
(1.00204 0.0633098 -1.30203e-22)
(1.00222 0.0674708 2.49462e-22)
(1.00587 0.0648707 1.46763e-22)
(1.00706 -0.00376081 -3.62085e-23)
(1.01965 0.0239144 -4.49308e-22)
(1.02038 0.0248948 -9.22826e-22)
(1.0192 0.0250998 -8.17268e-22)
(1.01291 0.0786813 -5.78689e-22)
(1.01474 0.0818881 -2.39027e-22)
(1.01044 0.0809311 4.46109e-22)
(1.00081 1.0443e-05 -5.44612e-22)
(1.00076 -1.48216e-05 1.87237e-22)
(1.00022 -3.34427e-06 -5.79317e-22)
(1.01062 0.000475907 -9.92017e-22)
(1.00952 0.000378252 1.76942e-22)
(1.00924 0.000362526 -9.79031e-22)
(1.03035 0.0655598 -4.81865e-22)
(1.03197 0.063335 -1.09081e-22)
(1.03308 0.0661515 8.31203e-23)
(1.01398 0.00412641 0)
(1.01381 0.00416874 2.69321e-24)
(1.01374 0.00400799 0)
(1.02747 0.0647172 -4.66373e-22)
(1.02827 0.0676248 -9.8641e-22)
(0.868131 0.250251 7.67907e-21)
(0.875437 0.256351 -5.94088e-21)
(0.835606 0.0901344 -2.47613e-21)
(0.84369 0.0793248 -2.89522e-21)
(0.850064 0.0928148 -1.13792e-21)
(0.997926 0.0611803 -1.15432e-22)
(1.00123 0.0590038 -1.11369e-22)
(1.0165 0.0120911 -6.78454e-22)
(1.01704 0.0127107 -3.09948e-22)
(0.913157 -0.134821 -3.76881e-21)
(0.919498 -0.136313 5.18122e-22)
(0.948498 -0.10948 1.73509e-21)
(1.00222 0.00117919 -8.02437e-22)
(1.00161 0.00105922 0)
(1.00202 0.00196212 3.21396e-24)
(1.01313 0.00312414 -7.6975e-22)
(1.01311 0.00302267 -7.8396e-22)
(1.01294 0.00301667 7.44634e-22)
(1.00283 0.00124862 -1.67824e-21)
(1.00249 0.000554956 6.60168e-23)
(1.0989 0.0770204 0)
(1.10089 0.0813002 -1.65246e-21)
(1.09572 0.0797422 1.78201e-22)
(1.02308 0.00868054 -3.45912e-22)
(1.02339 0.00893741 -3.47869e-22)
(1.02307 0.00907219 1.95564e-22)
(1.01182 0.0755431 -5.71649e-22)
(1.01613 0.0765286 -8.4441e-22)
(1.01104 0.00900258 1.88477e-22)
(1.01153 0.00911719 6.72021e-22)
(1.0158 0.0121229 -5.90002e-22)
(1.01609 0.0114693 5.37422e-22)
(1.01705 -0.000321696 -2.80358e-23)
(1.01718 -0.0003628 -6.38449e-23)
(1.01704 -0.000400275 5.46508e-23)
(1.02306 0.022163 0)
(1.0221 0.0223871 3.78227e-22)
(1.02243 0.0213131 -3.07901e-22)
(1.00468 -0.00195947 9.53561e-22)
(1.0046 -0.00180265 1.58169e-21)
(0.943744 0.0518087 -2.05188e-21)
(0.949708 0.0472667 -5.85734e-22)
(0.907988 -0.130233 -2.22715e-21)
(0.882227 -0.154836 -5.53415e-21)
(1.04299 0.0474548 -1.49616e-23)
(1.04253 0.0490719 -8.12524e-23)
(1.04461 0.04848 1.69438e-22)
(1.00503 -0.00221873 0)
(1.00514 -0.00239255 0)
(1.00511 -0.00225586 0)
(1.0105 -0.000410683 1.15076e-22)
(1.0106 -0.000403117 -1.69759e-22)
(1.00408 -0.000254731 -1.34694e-23)
(1.00286 -0.000123927 -1.07346e-21)
(1.00394 -0.000249187 -1.87987e-21)
(0.987953 0.00355315 -1.61729e-21)
(0.985685 0.00535729 3.31033e-22)
(0.989271 0.00623003 -9.9568e-22)
(1.01898 0.0228686 -4.97016e-24)
(1.02006 0.0227621 7.14318e-24)
(0.967575 -0.0352022 -9.04361e-22)
(1.01426 -0.0369969 -7.48521e-22)
(0.983592 -0.030889 -8.9917e-22)
(1.00066 0.0178043 1.26382e-21)
(1.00231 0.0186419 -1.37874e-22)
(1.00222 0.0167116 2.54232e-21)
(1.01079 0.00859363 6.50108e-23)
(1.01054 0.00884843 -1.10084e-21)
(1.01143 0.0712975 0)
(1.01429 0.0754052 2.39766e-22)
(1.02159 0.015515 3.42482e-22)
(1.02089 0.0155901 3.53199e-22)
(1.02115 0.0148118 -2.96629e-22)
(1.02633 0.0208394 5.97569e-23)
(1.02681 0.0217264 1.84122e-22)
(0.986197 -0.10146 -4.73926e-21)
(0.970697 -0.104267 -1.51869e-22)
(1.17931 -0.0137533 2.31752e-23)
(1.17879 -0.0189244 7.88921e-22)
(0.86743 0.240872 -3.23371e-21)
(1.03108 0.0738499 2.39363e-22)
(1.02927 0.0766792 0)
(1.03325 0.0771018 -9.91305e-23)
(1.00769 0.0720634 -2.31671e-22)
(1.00956 0.0674591 0)
(1.06045 -0.0164499 -4.71235e-22)
(1.04164 -0.0148904 5.95477e-22)
(1.05127 -0.0176043 5.57786e-22)
(1.00625 0.0162068 -6.00181e-22)
(1.01385 0.000921203 -1.9253e-22)
(1.01395 0.000919599 1.22039e-21)
(0.98877 0.24691 0)
(0.998718 0.239738 -1.70864e-21)
(1.0239 0.00711138 -2.82916e-22)
(1.02401 0.00740002 -1.96918e-22)
(1.02365 0.0072306 1.02207e-22)
(1.01315 0.00322865 8.15018e-22)
(1.01332 0.003228 0)
(0.754752 0.266183 0)
(0.7515 0.25104 3.6251e-22)
(1.0188 0.00343127 -1.46332e-22)
(1.01866 0.00333644 9.84566e-22)
(1.01879 0.00337578 4.38909e-22)
(1.10718 0.0482103 7.7657e-22)
(1.10921 0.0459306 2.24246e-21)
(1.1099 0.0495349 -1.2969e-21)
(0.981508 0.126405 -1.81142e-21)
(0.985623 0.123593 -1.17493e-21)
(0.985643 0.130337 7.35376e-22)
(1.01372 0.00452123 -2.02034e-22)
(1.01393 0.00448215 -1.65621e-21)
(1.014 0.00465087 2.09564e-22)
(1.174 0.112109 3.19994e-21)
(1.16759 0.105009 -2.90274e-21)
(0.991484 -0.0996591 1.80227e-22)
(0.972538 -0.110409 7.09023e-22)
(0.9585 -0.118614 8.51077e-22)
(1.01551 0.000663924 0)
(1.01561 0.000695658 1.21835e-21)
(1.01557 0.000773424 -6.35118e-22)
(0.829817 0.104939 2.20653e-21)
(0.82231 0.0903448 1.25561e-21)
(1.04129 0.0267892 -2.11531e-21)
(1.04161 0.0259531 -1.04478e-21)
(1.04225 0.0269845 -8.30851e-22)
(1.01357 0.0470201 -2.7027e-22)
(1.01096 0.045359 2.53407e-22)
(1.01094 0.0489512 -4.83766e-22)
(1.01468 0.00329079 7.52684e-25)
(1.01452 0.00320393 2.13019e-22)
(1.01456 0.00328266 -5.44052e-22)
(0.812962 0.285168 2.71827e-21)
(0.804626 0.277071 2.01434e-21)
(0.976298 0.121992 -1.84486e-21)
(0.975945 0.129456 9.37897e-22)
(1.01606 0.000172012 -5.5475e-22)
(1.01652 0.000173078 2.81344e-22)
(1.01644 0.000200205 -2.74893e-22)
(0.64044 0.0155846 0)
(0.624069 0.0110631 7.99115e-22)
(0.681083 0.0101127 2.10577e-21)
(1.02274 -0.000787736 -6.43028e-23)
(1.02236 -0.0010141 1.20643e-22)
(1.02224 -0.000679515 -7.94754e-24)
(0.986577 0.000745269 -3.55642e-21)
(0.990021 0.00160232 1.89586e-23)
(1.02995 -0.0220297 1.34961e-22)
(1.01033 -0.0312734 4.50811e-22)
(1.02584 -0.0454978 -2.45829e-21)
(1.01454 0.00190336 -1.51822e-23)
(1.0145 0.00197452 8.11546e-22)
(1.02706 0.0203833 0)
(1.02598 0.0200987 8.77056e-23)
(1.00907 0.0017524 0)
(1.00875 0.0014503 1.64276e-21)
(1.00842 0.00172865 -8.2935e-22)
(1.0051 0.030782 2.40395e-22)
(1.00679 0.0322436 2.38733e-22)
(1.00695 0.0298969 -1.1753e-22)
(1.00573 -0.00270374 -1.49719e-22)
(1.0056 -0.00253529 0)
(1.00481 0.000631009 0)
(1.00487 0.000687531 4.39795e-22)
(1.00499 0.000712938 0)
(1.01373 0.00091948 -1.38472e-21)
(1.01374 0.000794142 -3.4682e-22)
(1.00086 -1.87116e-05 0)
(1.00139 -7.66463e-05 -3.73549e-22)
(1.01475 0.00329316 1.4573e-25)
(1.01483 0.00336278 6.59381e-25)
(1.00466 0.000547842 0)
(1.00452 0.000522001 -6.08754e-22)
(1.01799 -0.00433041 1.72729e-21)
(1.01867 -0.00538921 -3.55532e-21)
(1.01736 -0.00555783 -6.3928e-22)
(1.01879 0.00347987 -1.03445e-21)
(1.01893 0.00351755 -1.60275e-21)
(1.00498 -0.00221299 0)
(1.00495 -0.00208277 0)
(1.00858 0.0381703 2.04344e-22)
(1.01083 0.039471 0)
(1.01068 0.0367924 0)
(1.0217 -0.00851203 -6.43631e-22)
(1.023 -0.00950922 1.64808e-21)
(1.02126 -0.0103471 2.0019e-21)
(1.03054 0.0437373 -3.42434e-22)
(1.03581 0.0490268 5.97316e-22)
(1.03829 0.0423878 6.53004e-22)
(0.652324 0.0216367 4.548e-22)
(0.598458 0.0235463 3.60167e-22)
(0.956133 0.244393 -4.02079e-22)
(0.945546 0.251001 2.17508e-22)
(0.946366 0.237574 -3.89088e-22)
(0.635656 -0.0734008 -7.16879e-21)
(0.623991 -0.00561092 -2.67428e-21)
(0.638871 -0.0610573 1.28378e-22)
(1.04085 0.0278372 -1.83168e-21)
(1.04025 0.0267004 -3.72324e-22)
(1.00571 -0.000288747 0)
(1.00565 -0.000302608 -8.27363e-22)
(1.00406 -0.000144002 0)
(1.10419 0.0465025 -1.8973e-21)
(1.10443 0.0499398 -3.21646e-22)
(1.00117 -9.24954e-05 5.20173e-23)
(1.00115 -9.97822e-05 1.31337e-22)
(1.00048 -5.54082e-05 -1.24088e-21)
(0.810643 -0.135489 0)
(0.809627 -0.120446 -5.23314e-22)
(1.00916 -0.000202975 -1.27359e-22)
(1.00925 -0.00019071 2.6998e-23)
(1.00693 -9.48089e-05 -4.25373e-23)
(1.01541 0.000134486 -2.12426e-23)
(1.01528 0.000138731 1.39901e-23)
(1.00414 -0.000232173 1.09441e-21)
(1.00507 -0.000415271 5.92858e-22)
(1.0185 -0.000505223 -7.79863e-23)
(1.0186 -0.000378647 7.45532e-23)
(1.01876 -0.000528918 8.62098e-23)
(1.04082 0.00995103 0)
(1.04164 0.0100852 0)
(1.04109 0.0105612 -9.81942e-22)
(1.01011 0.034643 -8.05579e-22)
(1.01192 0.0348382 6.18516e-22)
(1.01058 0.0367147 2.13451e-21)
(1.00086 3.40461e-05 0)
(1.00085 3.39611e-05 0)
(1.00023 1.91369e-06 0)
(1.026 0.0381496 -7.16514e-22)
(1.02359 0.0437456 1.34484e-21)
(1.02441 0.00884508 1.37507e-22)
(1.02401 0.00861613 -5.69899e-23)
(1.02431 0.00840929 6.41288e-23)
(1.01519 0.00242907 -2.53292e-21)
(1.01534 0.00247739 -1.18964e-21)
(1.01522 0.00235991 3.63148e-22)
(1.02927 0.0271665 1.16827e-21)
(1.02542 0.0238375 1.28603e-21)
(1.03017 0.0222829 7.75407e-22)
(1.01508 0.0121696 -1.08022e-21)
(1.01548 0.0127905 3.8136e-22)
(1.00215 0.000184981 5.79863e-22)
(1.00174 0.000128458 9.52339e-22)
(1.00266 0.000261422 9.75366e-23)
(1.02476 0.0635271 9.75841e-22)
(1.02241 0.0654136 5.68301e-22)
(1.02195 0.062304 2.12886e-23)
(1.01802 0.000363782 -1.79347e-22)
(1.01795 0.000288067 -7.49949e-22)
(1.01786 0.000352175 9.49281e-23)
(1.00799 0.0175854 5.65126e-22)
(1.00891 0.0171567 1.3083e-23)
(1.06416 -0.0140238 -2.35117e-22)
(1.06916 -0.016208 -1.36738e-21)
(1.09815 0.0730375 0)
(1.10245 0.0748438 -6.1637e-22)
(1.00482 0.00206925 -1.06123e-21)
(1.00479 0.00198237 -3.06324e-22)
(1.00487 0.00210311 8.36932e-23)
(1.00895 -0.00620969 -1.59549e-22)
(1.00877 -0.00617221 3.31331e-23)
(1.009 -0.00645499 -1.59077e-22)
(1.01705 -3.26422e-05 -1.05434e-22)
(1.01694 -2.16467e-05 0)
(1.01702 -7.92785e-05 2.64078e-22)
(0.940077 -0.0355767 0)
(0.999748 -0.0384377 -1.8581e-21)
(0.942646 -0.0417131 0)
(1.00547 -0.000636239 6.07241e-22)
(1.0056 -0.000662437 -5.27344e-22)
(0.967875 0.276337 2.47608e-23)
(0.967054 0.2634 6.92367e-24)
(0.955793 0.271033 2.8898e-22)
(1.00471 0.00187331 0)
(1.00467 0.00183681 0)
(0.973927 0.18935 0)
(0.980908 0.17297 1.7701e-22)
(1.01432 0.0120282 1.34767e-22)
(1.01477 0.0115332 1.60412e-22)
(1.02648 0.000294012 7.33349e-22)
(1.02607 -0.00044342 -1.03205e-21)
(1.02555 0.000254229 -3.21117e-22)
(1.00793 -0.0107213 -3.69465e-21)
(1.0097 -0.00980943 -5.46463e-22)
(1.00103 4.67399e-05 -3.21976e-22)
(1.00131 6.67727e-05 -2.88247e-22)
(1.00183 0.000117184 3.66957e-22)
(0.966453 0.236866 -3.79721e-22)
(0.966807 0.250714 -2.73678e-23)
(1.0241 0.00606667 1.79203e-22)
(1.02422 0.00589205 -2.3552e-23)
(1.02445 0.00615123 -4.70093e-23)
(0.647814 -0.138624 1.06422e-20)
(0.634054 -0.0785394 9.98748e-21)
(1.01516 0.00247783 2.36116e-22)
(1.01507 0.00236465 -1.22885e-21)
(1.00497 -0.00331562 1.59873e-22)
(1.00502 -0.00324003 -1.774e-21)
(1.0051 -0.00347328 -2.12768e-21)
(1.00869 0.000456123 -6.52574e-24)
(1.0082 0.000358202 7.88429e-22)
(1.00817 0.000677844 5.21387e-22)
(1.02093 0.00579984 -1.19634e-21)
(1.02092 0.00563623 4.37398e-22)
(1.0208 0.00562931 9.46059e-24)
(0.964562 -0.0461379 -1.4434e-21)
(0.949753 -0.0475227 -2.22052e-21)
(0.962083 -0.0392613 -5.15296e-21)
(1.00992 0.00387024 0)
(1.00995 0.00469208 0)
(1.01092 0.00433957 0)
(1.00984 0.00322464 0)
(1.00905 0.0035197 0)
(1.02326 -0.000978832 1.01723e-22)
(1.02315 -0.000567699 0)
(0.825669 -0.131982 0)
(0.815518 -0.147841 0)
(1.00824 0.0339497 -2.58065e-22)
(1.00982 0.0324162 -4.13777e-22)
(1.05072 0.0212126 6.99238e-22)
(1.04994 0.0206664 3.32677e-22)
(1.0499 0.0216129 -1.12991e-21)
(1.02394 0.00625829 3.50194e-22)
(1.02377 0.00640641 4.10774e-22)
(1.02415 0.00653521 -1.55013e-22)
(1.01509 0.0033066 5.79814e-22)
(1.01513 0.00337238 1.7401e-21)
(1.01527 0.00338931 2.10138e-22)
(1.04361 0.0455736 3.20212e-22)
(1.04147 0.0461974 -1.30361e-22)
(1.01026 -0.0064234 -6.48862e-22)
(1.01047 -0.00640423 2.02689e-23)
(1.01021 -0.00614878 -1.26902e-21)
(1.03609 0.061165 -5.95333e-23)
(1.03362 0.0610157 1.2926e-22)
(1.03494 0.0586667 5.32447e-23)
(0.999969 -0.0151065 -1.62033e-21)
(1.00113 -0.0169068 -6.96248e-22)
(1.00186 -0.0149346 8.02644e-23)
(1.05812 -0.0266129 2.14635e-22)
(1.06448 -0.0323511 1.0869e-21)
(1.06539 -0.0240499 -3.46314e-22)
(0.995184 0.0113659 -1.05064e-21)
(0.996408 0.0119938 1.03298e-21)
(0.995096 0.0130236 7.02138e-22)
(1.01004 -0.0064165 -6.78408e-24)
(1.00981 -0.00639203 0)
(1.00977 -0.00613674 0)
(1.00689 -0.0856014 -5.50359e-22)
(1.01937 -0.0812765 3.42252e-22)
(0.990699 0.193876 -2.24775e-23)
(0.982162 0.200254 2.76496e-22)
(0.980304 0.190247 1.3786e-22)
(0.986336 0.0307571 -1.55704e-21)
(0.98335 0.0293648 -1.11329e-21)
(0.986362 0.0273941 1.566e-21)
(1.0023 0.0097307 0)
(1.0027 0.00926162 0)
(1.00215 0.0088749 -3.66189e-22)
(1.02365 0.0229993 0)
(1.04737 -0.00816537 2.15581e-21)
(1.04393 0.00051385 3.33386e-21)
(1.05115 0.000382647 6.57622e-22)
(1.0103 -0.00669169 1.3579e-21)
(1.00646 0.0369186 2.00828e-22)
(1.00619 0.0395835 8.11321e-24)
(1.05237 -0.0212202 0)
(1.05123 -0.0275073 0)
(1.03485 0.00688449 1.75448e-21)
(1.03478 0.00631812 1.02241e-21)
(1.03423 0.00661307 3.71863e-23)
(1.05644 -0.0120025 -2.12217e-23)
(1.05447 0.0135524 -1.45026e-22)
(1.0553 0.0134776 1.81746e-22)
(1.05462 0.0127692 -1.83798e-21)
(1.00963 0.00264242 -7.81967e-22)
(1.0105 0.00281606 -4.74553e-22)
(1.00475 0.00200227 5.91108e-22)
(1.00478 0.00203979 -2.13665e-22)
(1.00471 0.00190942 5.73687e-22)
(1.04005 0.00990116 0)
(1.04055 0.00938265 0)
(1.00938 0.00218292 -7.72523e-22)
(1.00884 0.00249437 -2.17077e-22)
(0.988882 0.0319558 8.03143e-22)
(0.991762 0.0328631 -1.57144e-21)
(0.991652 0.0297363 3.35331e-22)
(1.02372 0.00599673 4.35714e-23)
(1.01873 0.00184005 2.5819e-22)
(1.01871 0.00173723 2.71233e-23)
(1.01854 0.00176204 -2.15329e-22)
(1.01471 0.00277194 8.41611e-22)
(1.01472 0.00283705 8.64383e-22)
(1.01457 0.00273306 1.92404e-21)
(0.973078 -0.0432331 2.89047e-21)
(0.968431 -0.0531158 -5.55713e-22)
(0.933775 -0.0451892 -7.94507e-22)
(0.919684 -0.0426788 -6.50932e-22)
(0.938171 -0.0381641 -9.98895e-22)
(1.01117 0.0110224 1.59764e-23)
(1.01137 0.0115825 -3.91013e-22)
(1.01064 0.0112499 -5.38947e-22)
(1.00502 0.00369999 5.74356e-23)
(1.00572 0.00416693 -8.95492e-22)
(0.934471 -0.0543223 -1.01127e-21)
(1.13148 -0.00352053 1.42175e-21)
(1.13052 -0.00810486 3.11747e-22)
(1.12713 -0.004777 7.23214e-22)
(0.99795 -0.0151098 -6.22492e-22)
(0.999356 -0.0133386 -4.39886e-22)
(1.01826 -0.0004609 -2.17141e-23)
(1.01839 -0.00062157 -7.18387e-23)
(1.00585 -0.022546 -7.66846e-22)
(1.0082 -0.0243049 -1.07324e-21)
(1.00808 -0.020843 -1.72795e-21)
(1.05444 0.0145118 -7.88126e-22)
(1.0537 0.0137865 2.555e-21)
(1.01618 0.000301574 3.14918e-22)
(1.01555 0.00024865 0)
(1.01591 0.000316665 0)
(0.995431 0.00969764 -2.11916e-22)
(0.993932 0.010532 5.03112e-22)
(1.01212 0.00325284 -1.48078e-23)
(1.01229 0.00324618 4.21792e-22)
(1.01211 0.00312727 -4.03927e-22)
(1.048 -0.0158959 -1.49161e-21)
(1.03534 0.000973348 3.72124e-22)
(0.981145 -0.0247349 4.33717e-22)
(0.980817 -0.0299122 9.49635e-22)
(0.975727 -0.0271788 4.29932e-22)
(1.09526 0.0708033 -1.33125e-21)
(1.09356 0.067742 1.96543e-22)
(1.09195 0.0716362 2.93281e-22)
(1.06541 0.0207893 -5.4857e-22)
(1.06601 0.0212921 1.50435e-21)
(1.06632 0.0204421 3.79429e-21)
(1.00606 -0.0116482 0)
(1.0084 -0.01294 -1.96045e-21)
(1.00652 -0.0272448 4.78418e-22)
(1.00213 -0.0259661 1.78345e-22)
(1.00576 -0.0224272 -4.42634e-22)
(1.01836 0.0432239 2.9995e-22)
(1.016 0.0451257 0)
(1.01579 0.041746 1.88702e-22)
(1.10261 0.0851365 3.59342e-22)
(1.09964 0.0887712 1.97419e-21)
(1.10525 0.0900333 8.32849e-22)
(1.01195 0.00325866 -4.31183e-22)
(1.01214 0.00338007 4.40778e-22)
(1.01893 0.00191915 -3.45108e-22)
(1.01085 0.0187197 5.60532e-22)
(1.00979 0.0191347 6.07984e-22)
(1.00987 0.0179254 6.21524e-22)
(1.00532 -0.00258978 -1.81708e-22)
(1.00522 -0.00253507 0)
(1.00533 -0.0026925 7.39519e-22)
(1.02674 0.000999505 3.81078e-22)
(1.02746 0.000364336 1.7564e-21)
(1.05145 0.0217087 3.90812e-22)
(1.05146 0.020805 -2.05879e-21)
(1.01399 0.00185533 -9.43208e-22)
(1.01412 0.00188204 3.60432e-22)
(1.01403 0.00177463 -1.32378e-21)
(1.02139 0.00595666 2.39163e-22)
(1.02153 0.00592669 4.24038e-22)
(1.02155 0.00613333 4.03737e-24)
(1.05249 -0.00425241 -1.43074e-21)
(1.0493 -0.00591201 -2.06607e-21)
(1.04945 -0.00201182 -4.73587e-22)
(1.01352 0.00456544 -7.94976e-22)
(1.01347 0.00439083 1.31307e-23)
(1.02206 0.117334 -1.06785e-22)
(1.02481 0.121781 0)
(1.01915 0.121633 0)
(0.863388 -0.134094 -1.9575e-21)
(0.867853 -0.137133 0)
(1.04629 -0.00744069 -1.28752e-21)
(1.04282 -0.00825221 -1.20506e-21)
(1.04376 -0.00493802 8.33982e-22)
(1.02108 0.00598914 -8.55302e-22)
(1.02093 0.00598165 5.64902e-23)
(0.997354 0.0156338 0)
(0.999156 0.0168604 4.69557e-23)
(0.999041 0.0145664 0)
(1.0053 -0.00248647 -1.40684e-21)
(1.00541 -0.00264678 -7.24124e-22)
(1.03746 0.0633085 1.69989e-23)
(1.03891 0.0659979 1.6059e-23)
(1.03606 0.0662755 -2.80974e-22)
(1.02423 0.00520743 -8.28985e-23)
(1.02391 0.00516396 -1.42544e-22)
(1.024 0.00496104 -1.18881e-22)
(1.00614 0.0344052 2.02433e-21)
(1.00381 0.0350656 6.14335e-22)
(1.00616 0.0367223 -5.47342e-22)
(1.01635 0.000127582 3.96751e-22)
(1.01555 8.62748e-05 4.55818e-22)
(1.00638 0.032643 -2.04985e-22)
(0.833819 -0.024965 2.77542e-21)
(0.825406 -0.0562601 -3.91694e-21)
(1.00485 -0.00315835 2.65737e-21)
(1.0048 -0.00294641 1.83227e-21)
(1.07892 0.0395738 -1.92913e-23)
(1.07845 0.0382148 -1.18989e-21)
(1.0801 0.0385386 1.75083e-21)
(1.02361 0.0153442 2.50146e-23)
(1.02337 0.016079 -2.29532e-22)
(1.02294 0.0153419 -2.33989e-23)
(0.995527 0.00447068 0)
(0.994809 0.00329158 -4.13992e-22)
(0.994129 0.00474549 7.94896e-22)
(1.02125 0.0447201 1.47149e-22)
(1.02067 0.0413213 4.2456e-22)
(1.00667 0.00057011 0)
(1.0062 0.000503709 0)
(1.00916 -0.00626186 0)
(1.00893 -0.0059821 6.85212e-22)
(1.02488 0.113082 -1.60659e-22)
(1.01955 0.113076 8.21518e-23)
(1.02123 0.00598419 5.29875e-22)
(1.02122 0.00578337 -2.51124e-22)
(1.01636 0.0488233 0)
(1.05387 0.0277228 5.79091e-22)
(1.05368 0.0266855 -1.22419e-21)
(1.05486 0.0270717 5.74664e-22)
(0.875606 0.272028 2.30227e-21)
(1.04723 0.0648457 4.4166e-22)
(1.04605 0.0675673 0)
(1.04442 0.0647869 0)
(1.09883 0.0690328 0)
(1.02442 -0.0025274 2.01987e-21)
(1.02558 -0.0027929 6.18248e-22)
(1.02504 -0.00178615 2.49165e-21)
(1.05566 -0.00191754 7.4162e-22)
(1.05528 -0.00713741 1.5592e-21)
(1.01805 0.010204 -2.92637e-24)
(1.01744 0.00987403 -1.59441e-21)
(1.0175 0.0105077 -1.47645e-21)
(1.05159 0.0113718 3.15825e-22)
(1.05101 0.0119503 -4.59694e-21)
(1.05082 0.0110322 3.1043e-22)
(1.06481 0.0198966 3.31655e-23)
(1.06436 0.0208667 -2.12686e-21)
(1.07978 0.0409839 8.6917e-22)
(1.07792 0.0407061 -1.05449e-21)
(1.03131 0.00567449 -3.62245e-21)
(1.03353 0.000537824 4.9018e-21)
(1.03008 0.000118414 1.25218e-21)
(1.02743 -0.0493765 3.52072e-22)
(1.05701 -0.0415746 0)
(0.994144 -0.055617 0)
(1.01631 0.00375209 -4.37685e-22)
(1.01647 0.00380336 0)
(1.01636 0.0037973 0)
(1.01482 0.0115837 -1.02881e-21)
(1.01544 0.0126277 -1.01619e-21)
(1.01414 0.0126995 -7.60879e-23)
(1.06079 0.149738 0)
(1.05597 0.144772 4.81277e-22)
(1.05384 0.151968 -5.21608e-24)
(0.995624 0.0148353 0)
(0.995775 0.0171467 -3.23054e-21)
(1.01628 0.00367883 -1.46474e-21)
(1.01615 0.00367126 -3.15896e-23)
(1.01474 0.00309237 -9.10181e-22)
(1.01459 0.0029957 3.13354e-22)
(1.01473 0.00251921 -6.79426e-23)
(1.01472 0.00258583 1.80996e-22)
(1.01459 0.00246984 2.10393e-22)
(1.08288 0.0249498 0)
(1.08289 0.0241353 -2.8812e-21)
(1.08366 0.0246109 -5.18882e-21)
(1.06183 -0.042959 1.69119e-21)
(0.999673 -0.055658 -1.94563e-21)
(0.770798 -0.130608 -4.15871e-21)
(0.797026 -0.121781 5.15832e-22)
(0.837464 -0.103658 4.10526e-21)
(1.0275 0.00947718 1.60566e-23)
(1.03137 0.0116653 -3.9047e-22)
(1.04839 -0.0101519 0)
(1.04205 0.024917 -1.22895e-21)
(1.04257 0.0240848 -3.3006e-22)
(1.04306 0.0253508 -1.27137e-21)
(0.989765 0.0510739 6.84313e-22)
(0.986181 0.0512522 1.93685e-23)
(0.987949 0.0478372 2.21128e-23)
(1.02202 -0.00123882 3.54403e-22)
(1.02155 -0.00114986 1.33329e-22)
(1.02166 -0.00145969 2.79776e-22)
(1.024 0.0056358 1.17743e-22)
(1.02435 0.00567814 1.01449e-22)
(1.04102 0.024707 6.91904e-22)
(1.02071 0.0031116 3.39531e-23)
(1.02091 0.00312845 0)
(1.02088 0.0032633 7.55406e-23)
(0.986315 0.0340264 4.30806e-22)
(1.00988 1.26558e-05 -4.25132e-22)
(1.01186 -3.19077e-05 -4.08039e-23)
(0.967635 0.0641207 -6.57576e-22)
(0.970312 0.0672598 -1.51061e-22)
(0.966456 0.0680676 -3.48816e-22)
(1.00462 -0.0018955 0)
(1.00468 -0.00199681 0)
(1.00468 -0.00206736 3.93376e-22)
(1.00414 0.0747724 -1.4966e-23)
(1.00278 0.0713867 2.23301e-21)
(1.01688 0.000297097 4.55876e-22)
(1.01697 0.000317028 9.69657e-24)
(1.01688 0.000326304 6.20867e-22)
(1.01984 0.00468768 2.3909e-21)
(1.01993 0.0045018 1.01499e-21)
(1.02671 -0.0029852 -6.01556e-22)
(1.0273 -0.00213415 -3.69535e-22)
(1.02809 -0.00321317 -1.4755e-21)
(1.09389 -0.00263083 -7.09663e-22)
(1.09276 -0.000451794 1.57817e-21)
(1.0953 -0.000596807 -5.71714e-22)
(0.92525 0.249719 6.81781e-22)
(0.934947 0.25735 1.04002e-21)
(0.923649 0.26351 -9.36412e-22)
(0.994281 0.0334793 -4.52725e-22)
(0.991897 0.0357423 -3.5434e-21)
(1.02379 0.0118142 -1.05234e-21)
(1.02443 0.00685895 -6.52625e-23)
(1.02041 0.0077222 5.73935e-22)
(1.02053 0.00745461 -4.51449e-22)
(1.02065 0.0078458 -7.92169e-22)
(1.01423 0.00423642 8.59397e-22)
(1.01414 0.00407986 0)
(1.0205 0.00309095 -3.08451e-22)
(1.02053 0.00295861 3.39272e-23)
(1.03286 0.000246318 7.66625e-23)
(1.0346 -0.000847038 6.44949e-22)
(1.03429 0.00129179 -8.80167e-22)
(1.04174 0.0750237 4.53797e-22)
(1.03366 0.0857189 0)
(1.01454 0.00404016 -7.18352e-22)
(1.01459 0.00415872 4.49747e-22)
(1.01434 0.0040453 -8.48164e-22)
(1.0146 0.000544004 -9.6731e-23)
(1.01396 0.000422798 0)
(1.01469 0.000510946 1.29252e-21)
(1.09215 -0.00702216 0)
(1.09406 -0.000316309 -1.22954e-22)
(1.09271 -0.0129757 -6.85373e-23)
(1.0212 0.00788997 1.269e-21)
(1.0214 0.00822056 5.79555e-23)
(1.02148 0.00789191 1.03797e-21)
(1.01466 0.00428098 2.64818e-22)
(1.01449 0.00433285 -1.43221e-22)
(1.01476 0.0044256 -9.44065e-22)
(1.11481 -0.00890874 3.67371e-22)
(1.11336 -0.0124297 -2.30021e-22)
(1.11092 -0.00965275 -3.77543e-22)
(1.03127 0.00106629 7.48125e-23)
(1.03165 -0.000541347 3.04509e-23)
(1.01472 0.00264672 0)
(1.01471 0.00270844 0)
(1.01457 0.00260213 0)
(1.00398 0.00991187 -2.02474e-22)
(1.00326 0.00954242 5.22496e-22)
(1.00354 0.0104717 -6.97093e-22)
(1.00171 0.0345161 1.73987e-22)
(1.00208 0.037291 -7.10621e-22)
(1.01534 0.000403931 0)
(1.01439 0.000396834 0)
(1.01432 0.00041151 -4.92166e-22)
(0.999301 0.0343407 -1.68818e-21)
(1.00131 0.0321459 1.22654e-21)
(1.01268 -0.00917339 7.09814e-22)
(1.01237 -0.00922444 6.97764e-22)
(1.01272 -0.00954011 -1.0419e-21)
(1.01452 0.000555344 -3.86074e-22)
(1.01478 0.000607483 6.11916e-24)
(1.02306 0.00831006 2.87551e-22)
(1.02278 0.00839665 -1.88379e-22)
(0.783677 0.0194021 -1.25286e-22)
(0.792545 0.014922 1.4177e-22)