/*--------------------------------*- C++ -*----------------------------------*\
| =========                 |                                                 |
| \\      /  F ield         | OpenFOAM: The Open Source CFD Toolbox           |
|  \\    /   O peration     | Version:  v2012                                 |
|   \\  /    A nd           | Website:  www.openfoam.com                      |
|    \\/     M anipulation  |                                                 |
\*---------------------------------------------------------------------------*/
FoamFile
{
    version     2.0;
    format      ascii;
    class       surfaceScalarField;
    location    "100";
    object      meshPhiCN_0;
}
// * * * * * * * * * * * * * * * * * * * * * * * * * * * * * * * * * * * * * //

dimensions      [0 3 -1 0 0 0 0];
oriented        oriented;


internalField   nonuniform List<scalar> 
27907
(
6.05976e-05
0.000142299
-0.00020291
0.000124971
-0.000166426
4.14525e-05
-0.000184804
-8.69861e-05
0.000233498
-9.77208e-05
0.000185096
-8.73775e-05
-0.000102086
0.000156866
-5.47799e-05
7.70555e-05
-0.000153033
7.5977e-05
0.000101443
-0.00011326
1.18162e-05
0.000528348
1.41059e-05
-0.00056025
5.42523e-05
0.000128625
-0.000182886
0.000216973
-0.000377447
0.000160233
0.000560832
-0.000286188
-0.000275426
-8.0275e-05
-6.19478e-05
0.000142222
-8.54918e-05
3.77625e-05
2.69254e-05
-0.000164093
-6.3304e-05
0.000227372
-6.96675e-05
-0.00040513
0.000473629
8.64701e-05
-0.000179403
9.29316e-05
-0.000368637
0.000273
9.55024e-05
-0.000693419
0.000198311
0.000484293
0.000607292
-0.000579541
-3.094e-05
-0.000107499
-0.000236607
0.000343935
6.72901e-05
-0.000112677
4.53867e-05
-5.45201e-05
-4.73325e-05
0.000100351
-9.21326e-05
0.000149522
-5.73898e-05
0.000105289
3.99598e-05
-0.000145252
0.000202948
-0.000115933
-8.70182e-05
-2.3832e-05
0.000532767
0.000164033
-9.23056e-05
-7.17286e-05
-0.000118786
0.000154702
-3.5916e-05
-0.000131123
0.000169682
-3.85606e-05
0.000131859
-1.40598e-05
-0.0001178
0.000195683
-0.000315055
0.000119305
-0.000118598
4.87197e-05
6.98778e-05
-1.91423e-05
-1.08734e-05
1.96388e-05
1.7983e-05
-0.000485457
0.000466063
-9.76011e-05
0.000247559
-0.000149982
-7.93082e-05
-0.000268964
0.000347167
1.58156e-06
2.44998e-05
-3.32487e-05
-0.00012182
0.000602302
-0.000483089
-0.000573624
2.34393e-05
0.000548452
-0.00038208
0.000145731
0.000236207
-0.000273546
-0.000377423
0.000648304
-0.000267273
-0.000195497
0.000462548
0.000676379
-0.000166356
-0.000517925
-0.00038692
-8.38485e-06
0.000395062
0.000138121
7.99897e-06
-0.000146122
3.20724e-05
0.000205689
-0.000263639
2.58528e-05
-0.000117986
-0.000360603
-9.81422e-05
0.000458135
-0.000210136
0.00042683
-0.000585744
2.71371e-05
0.000549344
0.000158216
5.96232e-05
-0.000217855
-0.000114052
-4.02817e-05
0.000154333
0.000168478
-0.000421107
0.000232606
0.000193603
0.000366317
-0.000120705
1.91819e-06
-0.000175737
8.76603e-05
8.80751e-05
3.16141e-05
-3.70904e-05
0.000134462
7.85443e-05
-0.000489418
0.00059899
-0.000110976
-2.79887e-05
0.000231494
-0.000203528
0.000262548
-8.25931e-05
-0.00017997
-2.07809e-05
0.000122224
0.000189969
3.8583e-05
-0.000228571
-0.000245385
0.000541856
-0.000296898
-0.000186994
0.000337578
-7.00147e-05
-0.000495892
0.000564984
-0.000354585
-2.15929e-05
0.000376025
8.80874e-06
-3.66526e-05
-0.000674352
8.64082e-05
0.000584655
-0.00012709
1.30378e-05
4.14656e-05
7.35619e-05
-0.000115028
-0.000544552
6.15969e-05
0.00048246
-3.3562e-05
-0.000560914
-8.931e-05
0.000123948
-3.46384e-05
-0.000653491
6.28403e-05
0.000580117
0.000463053
-0.000646522
0.000181793
-4.46063e-05
0.00021965
-0.000175052
0.000131886
-0.000124889
-6.99702e-06
-0.00016578
0.000248112
-8.23441e-05
3.8565e-05
8.48611e-05
-0.000123426
-6.60492e-05
-7.21192e-05
0.000138168
8.82709e-05
5.76802e-05
-0.000145953
0.000146905
-0.00017491
-0.000172164
8.25985e-05
8.95651e-05
0.000143237
-0.000187852
-0.000290139
-0.000153661
0.000443546
-7.0274e-05
-7.38736e-05
0.000144147
-6.3214e-05
0.000253165
6.88417e-05
4.27085e-05
-0.00011155
0.000662596
-0.000201345
-8.71271e-05
-8.50373e-05
-0.000621487
0.000130567
-4.3958e-05
-0.000108311
0.000152268
0.00018884
-0.000456335
-0.000106373
-4.18585e-05
0.000148231
7.29482e-05
-0.000116906
-7.03777e-05
0.000213606
-0.000191576
-0.000470939
0.000744667
-0.00023279
-0.00051451
0.000120411
-5.31212e-05
0.000162171
-0.000344187
0.000181857
0.000168876
-5.92834e-05
-0.000109592
-0.00020193
0.00025638
-5.44882e-05
-0.000301925
6.99233e-05
0.000231943
-7.25242e-05
-4.60734e-05
-2.40246e-05
0.000155883
-7.72164e-05
-8.46733e-05
0.000161888
-2.82485e-05
0.000160134
-0.000492907
0.000623501
-0.000131852
0.000515838
-2.47827e-05
-0.000491243
0.000142168
-6.92197e-05
2.03524e-05
-0.000564712
0.000510343
3.64869e-05
-0.000645684
0.000122303
0.000521654
5.81183e-05
8.28725e-05
-0.000140992
9.29211e-05
-0.000103435
1.0514e-05
-7.80612e-05
-4.72306e-05
0.000125292
-0.000480963
0.000410146
-9.98739e-05
0.000151433
-5.15592e-05
6.74633e-06
-0.00011312
-0.000419183
0.000301755
0.000117253
0.000105234
0.000337546
-0.000443475
0.000151406
-1.37817e-05
-0.000137626
-0.000142974
0.000115756
2.72171e-05
0.000176281
-9.67999e-05
-7.94843e-05
-4.21077e-05
0.000180227
-4.65708e-05
0.000171539
0.00019425
-2.94423e-05
-0.000164812
1.83576e-05
-0.000126669
2.21583e-05
-3.50132e-06
-4.4478e-05
-0.000251833
-0.00011693
9.37837e-05
7.02487e-05
-6.83226e-05
-4.43542e-05
8.00813e-05
-0.000246967
0.000166852
1.1657e-05
9.58708e-05
-7.09317e-05
-0.000317908
0.000388511
1.38588e-05
0.000205782
-0.000202501
-0.000179706
7.20643e-05
0.000668955
0.000264907
-0.000204701
-6.02142e-05
3.46494e-07
-0.000166135
0.000193401
-0.000143727
-4.96785e-05
0.000368668
0.000207154
-0.00057758
-6.64542e-05
-0.000109285
0.000221551
-0.000497251
-0.000531511
-7.9729e-06
0.00053671
8.50531e-05
2.76111e-05
-0.000112664
-8.64008e-05
0.000145334
-5.89334e-05
0.000301988
-0.000106371
0.000170789
-2.65777e-05
-0.000144213
-6.75833e-05
0.000155853
0.000139097
-0.000160318
2.12177e-05
-0.000218908
0.00043709
-0.000218477
7.7053e-05
4.33194e-06
-8.58786e-05
4.53146e-05
7.5235e-05
-0.00012055
-0.00046522
0.000310429
0.000154456
-0.00012772
2.78455e-05
7.02284e-05
-0.000431435
0.000703967
-0.000385856
-0.000319105
-2.59214e-07
-2.72246e-05
2.63922e-05
0.000656891
-0.00015654
-0.00050692
9.16136e-05
9.42195e-05
-0.000185848
6.50286e-05
7.17519e-05
-0.000136781
0.000276748
0.000426076
6.35045e-05
0.000199026
-1.85893e-05
-0.000112534
0.000618883
-0.000617228
-4.51442e-06
-5.97629e-05
0.000152613
-9.28512e-05
-0.00010899
-7.96571e-05
0.00018864
-0.00014982
7.50249e-05
7.47946e-05
-4.8575e-05
-7.46669e-05
0.000123242
-0.000320396
-0.000381521
0.000140266
-7.5238e-05
-8.57107e-05
-5.15878e-05
0.000137298
0.000194158
-0.000102559
0.000186179
-8.08934e-05
5.94435e-05
-0.000158792
9.93476e-05
0.000170226
-0.000415956
9.62772e-05
0.000168619
1.99845e-06
-0.000526565
0.000522723
-0.000519466
6.5232e-05
0.000436447
6.4952e-05
4.47104e-05
0.000145875
-6.78065e-06
0.000748575
-0.000240968
-0.000514044
0.00050502
-0.000132806
-0.000372774
-0.000218398
0.000153805
6.45893e-05
-0.00011829
-0.000463884
0.000579977
-4.22132e-05
0.000135134
-0.000623627
2.86285e-05
0.000585239
-5.45454e-05
0.000589279
-0.00053655
0.000220526
-0.000140472
-4.75214e-06
0.000198997
0.000543112
-0.000207048
-0.000337036
0.000211392
9.052e-05
0.000328088
-0.000294477
-3.36841e-05
0.00015858
-0.000221811
0.000217477
-0.000325137
8.4512e-05
-0.00019351
-4.38752e-05
0.000272807
-0.000238833
0.000628322
3.87793e-05
-0.000239525
0.000105552
0.000133966
-0.000431945
0.000501457
0.000236262
8.55033e-05
-0.000321905
0.000246409
-1.64171e-05
-0.000230026
-7.15495e-05
-3.19659e-05
6.69404e-05
0.000261054
0.000242703
1.35049e-05
-0.000256242
-3.92273e-07
7.45457e-05
4.28627e-05
-0.000110936
6.80729e-05
0.000171736
-0.000382138
-0.00067438
0.00019493
0.000469091
-0.000227952
-7.40256e-05
-0.000626597
0.000427773
0.000197726
0.000164209
9.68749e-05
-0.00026118
-0.000151499
-0.000101698
0.000253184
0.000170833
-8.31427e-05
-8.7691e-05
-0.000194183
4.26733e-05
-0.000178188
0.000100744
7.74434e-05
0.000694447
-0.000320277
-0.000387523
0.00014878
-7.17245e-05
-0.000486145
-2.4984e-05
-0.000468961
-2.38357e-05
-0.000155686
0.000179511
-4.24486e-05
0.000127502
0.000198199
-0.000128582
-6.96234e-05
-1.78746e-05
0.000260538
-0.000317354
-1.38763e-05
0.000331162
0.000167795
9.1812e-05
-0.000259652
0.00035964
0.000219807
-0.000585785
0.000291336
-6.54743e-05
-0.000225897
0.000433672
-0.000504457
0.000251339
-9.27836e-05
0.000120875
2.24794e-06
-0.000123123
0.000110056
-0.000180441
3.44508e-05
-1.4568e-05
0.000523678
-0.000644309
-0.000329728
0.000682674
-7.8186e-06
-0.000259238
0.000241891
0.000168314
-1.69091e-05
7.68903e-05
0.000204325
-0.000281357
0.000613739
-0.000598292
-2.14993e-05
0.00019936
-0.000116542
-8.28219e-05
-0.000147703
7.04843e-05
0.000256774
-0.000471723
0.000214041
1.00396e-05
0.000160748
-0.000116756
5.24074e-05
6.43489e-05
-7.26805e-05
0.000182728
0.000304761
-0.000384898
-5.0557e-05
-8.75246e-05
0.000138081
0.000195989
-0.000360542
0.000164484
-0.000309825
0.000417958
-0.000109357
8.61917e-05
-0.000145955
-0.000351957
6.15901e-05
-0.00019706
0.000392976
0.00060125
-0.000189931
-0.000412795
-0.000389097
0.000346976
4.19762e-05
4.74951e-05
-0.000173714
0.000126214
-5.48095e-05
-0.000123379
-0.000144599
0.000308699
-0.000129235
-0.000107538
0.000236759
0.000659078
-0.000648334
0.00010145
-0.000294145
0.000192639
-0.000482945
-0.000134407
0.000612815
-4.06751e-05
0.000287046
-0.000233731
0.000405192
0.000124309
-0.000148154
9.60509e-05
-0.000110755
1.47037e-05
0.000182304
0.000495162
0.000606469
-0.000162195
-0.000445493
3.93276e-05
0.000115561
-0.000154892
0.000451202
0.000153908
0.000343017
0.000161461
0.000274879
-0.000144836
0.000167745
-2.29103e-05
2.41513e-05
-0.000102212
-0.000631794
0.000643032
-1.30596e-05
-0.000284172
0.000194724
8.94224e-05
3.74117e-05
-9.49702e-05
5.75584e-05
-9.59881e-05
0.000153667
-0.000189305
-0.000312822
0.000501264
0.000682806
-0.000676754
-1.03237e-05
-1.15465e-05
-0.000272025
0.000283302
-0.000240068
0.000316796
-0.000213981
0.000580933
-8.02211e-05
0.000117633
9.15179e-05
0.000107838
0.000189627
-0.000145598
-4.40337e-05
4.13398e-05
0.000146727
4.29868e-05
-0.000626893
0.000576724
-0.000249191
3.72017e-05
0.000288377
-0.000153787
-0.000134624
8.37845e-05
8.70485e-05
-7.68724e-05
-0.000350743
0.000427518
0.000118862
-0.000183496
-5.11633e-05
0.000234634
0.000410225
-0.000107007
-0.000303462
-0.000116606
4.88981e-05
0.00055552
-3.71654e-05
0.0001466
-0.00010944
-6.72217e-05
-0.00023926
0.000243703
0.000148051
-0.000101935
-4.61161e-05
0.000199266
9.65914e-05
-0.000295928
-0.000539134
-0.000138441
2.05653e-05
-0.000339872
0.000319102
-0.000279666
6.60701e-06
0.000273027
0.000277723
0.000185126
-0.00046431
9.14558e-05
-0.000402664
-9.1752e-05
-2.83932e-05
0.000120145
3.54026e-05
0.000154218
0.00011183
0.000459089
-0.000574714
0.000112225
-2.21805e-06
-0.000110007
-0.000129383
0.000123764
7.44282e-05
0.000585303
7.02981e-05
-0.000659375
-4.13204e-06
0.000107559
3.46393e-05
-0.000142202
0.00054582
-0.000290121
0.000671961
6.99976e-05
0.000708155
-0.000268012
-0.000443385
0.000471275
-4.47796e-05
-0.000426654
0.000108167
-0.000187832
-5.82157e-05
-0.000221476
-0.000307532
0.000295692
0.000390646
-0.000186455
0.000112326
-0.000349098
0.00036443
-0.000143942
0.000568749
8.58494e-05
7.75073e-05
-7.88383e-05
-0.000175547
0.000146101
0.000290682
-0.000168827
-0.000121894
-0.000195194
-8.89945e-05
5.34151e-05
-0.000151137
-0.000374848
0.000297895
0.000200255
0.000341812
2.71881e-05
-5.543e-06
-5.25647e-05
9.94934e-05
-0.000136664
8.41848e-05
6.38653e-05
0.000274645
-0.000610382
-0.000659308
0.000179154
0.000469599
-0.000332059
0.000600616
0.000311037
-0.000382291
-0.000150754
0.000318499
8.93156e-05
0.000113628
0.000613296
-0.000509042
2.11167e-06
0.000497886
-0.000500267
1.23698e-05
-0.00058065
0.000559706
0.000186456
-9.99869e-05
0.000140164
5.32327e-05
8.0467e-05
-0.000221573
0.000141095
0.000277136
-0.000160627
-0.000116521
0.000183864
0.000309106
-0.000494505
-0.000145379
0.00017643
-3.10546e-05
0.000226379
-0.000165796
-0.000377232
0.000253074
0.000124003
0.00033653
-0.000172935
-0.000163644
7.11572e-05
-7.90192e-05
-4.3247e-05
0.000122266
-7.89623e-05
-0.00013944
0.000293012
-0.000297013
-9.54392e-06
0.00023599
9.82704e-05
-0.000334407
0.000189771
-0.000105828
-8.39452e-05
-7.96652e-06
-0.00013687
-0.000500252
0.000325276
0.000174588
0.000611008
-0.000575079
-0.00011233
0.000280116
-0.000167844
-0.000263584
-0.000373542
0.000634475
-0.000387055
0.000296254
9.05058e-05
0.000119212
-0.000178561
5.93464e-05
5.93017e-05
9.33912e-05
-0.000152694
0.000233414
-1.95627e-05
-0.000213878
-0.000249579
0.000361731
-3.86454e-05
0.000134696
-0.000457058
0.000600194
-0.000144215
-0.00043679
4.12414e-06
-0.000590797
0.00051312
7.54705e-05
4.79964e-05
-0.000623419
-0.000285977
0.000138686
0.000147263
0.000301737
-0.000453833
0.000151514
-1.00089e-05
0.000122234
5.18779e-05
0.000113997
-0.000165879
0.000185928
0.000413988
0.000609335
-0.000501572
-0.000134875
7.21873e-05
6.26881e-05
-3.15488e-05
0.00026493
0.00015933
-0.000105084
-0.000592649
0.000134547
0.000229942
-0.000282732
5.27059e-05
0.000615242
6.32192e-05
-0.000193413
0.000440745
-0.000247535
-0.000151385
0.000488574
0.000582079
-0.000413437
-9.7507e-05
-2.73839e-05
0.000124891
9.86637e-05
-5.5801e-05
-5.00716e-05
-6.41405e-05
0.000114212
7.18932e-05
7.34145e-05
-8.89631e-05
-1.32264e-05
0.00021671
-0.000159344
-5.73762e-05
-0.000147251
7.08248e-05
7.64261e-05
-0.000281095
-0.00010813
-0.000149015
-0.000431124
0.0002099
-0.000156487
-0.000633291
0.000624066
5.08649e-06
1.63657e-05
0.000504376
-0.000523332
-5.63433e-05
-0.000480309
-0.000127271
-0.000158728
0.000541113
-0.000567269
2.52541e-05
6.01599e-05
-0.000447333
0.000144071
0.00013305
0.000166466
-8.29149e-05
-8.35521e-05
0.000100283
0.000603778
-0.000124535
2.24488e-05
-0.00025287
-5.58901e-05
0.000308655
0.000604632
-2.40051e-05
0.000487685
-0.000240098
-0.00024807
-0.000136349
-0.00051032
0.000645208
-0.000474139
8.24188e-05
0.000327557
-0.000166882
-9.05249e-05
0.000257354
0.000181156
0.000183217
-5.57673e-05
-6.09891e-05
-0.000238021
-0.000181254
-0.000168153
-0.000354874
0.000521587
0.000136265
-9.69407e-05
6.00801e-05
8.46167e-05
-0.000144698
-0.000179744
0.000124027
5.57145e-05
7.92894e-05
-0.000127864
0.000259484
-9.31507e-05
-0.000166363
-0.000189155
-0.000344459
0.000532693
0.000466394
0.000100432
3.03728e-05
0.000576462
-0.000541632
-8.58899e-05
-0.000275494
0.000255899
-0.000340107
0.000207634
0.000132352
0.000339907
2.58878e-05
-0.000366067
-0.000145451
0.000344638
-0.000372802
0.0001886
-8.57307e-05
-0.000102873
-0.000219838
0.000368048
-0.000505501
0.000117637
0.000272835
-6.9063e-05
0.000137905
0.000301258
-0.000469178
0.000167338
0.000173146
-0.000113846
-3.7496e-06
5.19079e-06
0.000589407
-0.000128159
8.69666e-05
4.11928e-05
0.000255327
-0.000347172
9.17257e-05
-0.000411613
0.000578927
-0.00016865
-0.000135956
0.000183446
0.000126315
-0.000223939
0.000153063
0.000135283
0.00013504
-0.000116683
-0.000232541
-0.00041499
-0.000186109
0.000498626
-0.00031311
-7.86589e-05
-0.00014056
7.86121e-05
0.000410504
-0.000303166
-0.000107378
0.000139866
9.01262e-05
-0.000230028
7.25943e-05
-0.000236708
6.50564e-05
0.000123539
0.000111314
-6.2605e-05
-4.87086e-05
0.000168166
-0.000565977
2.09413e-05
6.94122e-05
-0.000203075
0.000133646
-2.5334e-05
-0.000622038
-6.83848e-05
-0.000207138
-0.00049406
0.000381857
0.000111343
-1.22477e-05
0.000147287
-7.52258e-05
0.000305072
0.000110733
7.9035e-05
-6.31777e-05
0.000402789
0.000323977
-0.000200605
-0.00012343
-0.000272053
0.000137951
-9.7994e-05
0.000579998
-0.000622743
4.76021e-06
-8.37794e-05
-8.14392e-05
-0.000511356
0.00014677
-4.84136e-06
-0.000141932
-0.000250528
0.000555902
-0.000309017
9.86973e-05
6.16158e-05
-0.000160317
-0.000300739
-8.65463e-05
-1.52305e-05
-0.000476355
0.000486268
-0.000803519
0.000567683
-0.000484961
0.000413302
-9.64577e-05
0.000178653
-8.21968e-05
0.0001227
-0.000106765
-1.59346e-05
0.000131183
-7.30657e-05
-0.000274524
0.000373791
-9.94107e-05
-0.000472031
0.000144233
0.00032714
0.00023534
-0.000228759
5.89471e-05
-5.97703e-06
-5.56045e-05
-3.92862e-05
5.01383e-05
-1.02152e-05
-7.66105e-05
-6.85559e-05
0.000145166
-0.000353902
-0.000452556
-0.00053877
0.000534394
3.60776e-06
-0.000265601
8.20798e-05
0.00026011
1.6587e-05
0.00028387
-0.000144046
-4.69479e-05
0.000282251
-0.0005456
6.18825e-06
0.000625887
-8.61051e-05
-0.000405226
0.000222862
0.000182251
-0.000259428
0.000559983
-0.0002052
-0.0002603
-0.000152741
0.000162779
0.000491985
-0.0002213
-0.000270991
0.000229662
0.000180789
-0.000475532
0.000161215
0.000313982
0.000302823
-0.000472533
-0.000127795
4.79337e-06
0.000123001
-0.0004318
0.000596823
-0.000165367
0.000561266
-0.000100575
-0.00046175
-1.86099e-05
0.000130322
-0.000111712
0.000102879
-0.000119783
1.69044e-05
0.000156402
0.000167516
1.95588e-05
-0.000131552
0.000111991
-0.00025267
-0.000247909
0.000535088
0.000130383
-2.75045e-05
2.89521e-05
0.000586812
0.000115959
-6.46393e-05
-5.13192e-05
-4.59272e-05
0.000192691
0.000458629
-0.000520258
5.7008e-05
-6.92146e-06
-0.000145821
-0.000150135
-0.000261267
0.000148883
8.20172e-05
-9.77764e-05
-1.56241e-05
0.000111517
0.000179122
0.000155951
-0.000108098
-4.7854e-05
-0.0005014
-0.000606895
6.07262e-05
0.000543157
0.000104196
-0.000510649
-0.000199833
0.000476026
-0.000489464
-4.39451e-05
-7.59223e-05
-8.99326e-05
0.00013213
-3.92862e-05
8.63819e-05
8.00832e-05
0.000389364
4.99111e-05
-0.000439766
8.93992e-05
-0.000107989
7.73521e-06
0.000531342
-0.000539851
0.000139199
7.14078e-05
-0.00021062
-4.72159e-05
-0.00059569
0.000109015
-5.3002e-06
0.000530105
-0.000118029
-0.000412647
7.14932e-05
-0.000238069
0.000159633
0.000282931
-0.000473027
-0.000200975
0.000400057
-0.000199293
0.000529387
-0.000529253
-0.00025069
9.50411e-06
0.000241162
0.000142459
4.39969e-05
-0.000582184
2.85347e-05
0.000537275
-0.0001228
-2.12424e-05
0.000144042
5.13787e-05
7.17556e-05
-0.000123135
0.000115228
-0.000303482
0.000188221
0.000189654
-0.000120256
7.43659e-05
-0.000124438
-0.000389088
0.000228678
0.000262939
0.000311135
-0.000432958
0.000121491
8.66594e-05
-4.51939e-05
-8.87524e-05
0.000477522
0.000351789
-0.000233996
-0.000117928
-7.22415e-05
0.000567669
-0.000497176
-8.35519e-05
0.000155552
-7.20009e-05
0.000399729
-0.000100609
-0.000299256
-6.68811e-06
0.000146846
0.000164446
-0.000244983
8.05188e-05
8.11487e-05
-0.00010193
0.000440747
-0.000586277
2.04321e-05
0.000563944
-0.00025069
0.000333949
-8.33234e-05
-0.000145924
-3.77163e-05
0.000183637
-0.000502852
0.000108931
6.73455e-05
0.000236348
-0.000599604
0.000362624
-8.10752e-05
-6.66292e-05
0.000289729
-0.000492896
0.000202369
0.000689236
-0.000706072
1.26244e-05
-0.000458476
-4.13172e-05
0.000204313
-0.000240153
1.90155e-05
5.31054e-05
7.07482e-05
-0.000123854
5.86141e-05
-0.000139691
-0.000475766
-0.00011811
0.000176227
5.92121e-07
-0.000176828
0.000129021
0.000201601
-0.000330731
-0.000101995
-7.77521e-05
9.38194e-06
0.000113318
0.000187019
-7.94641e-05
-0.000126909
0.000161686
-3.47796e-05
0.000744468
-0.000370612
-0.000376241
8.94923e-05
6.52093e-05
-8.59906e-05
0.000297305
-0.000655933
0.000132055
0.000521884
-8.29828e-05
-0.000271714
-0.000116893
-7.14083e-05
-5.67513e-05
-0.000495789
0.000512271
-0.0004406
0.000531896
-9.13667e-05
-4.35279e-05
0.000532148
-0.000490172
-0.000127036
0.000190582
-9.47331e-05
-0.000107829
-2.20629e-05
0.000129892
-0.000234434
-2.17483e-05
0.000256157
-0.000121627
-6.73895e-05
-7.98615e-05
0.000507616
2.29949e-06
-0.000510623
0.000180307
-0.000231702
0.00029239
-0.000221341
-7.11147e-05
-6.82187e-05
1.31641e-05
9.61244e-05
0.000554088
-0.000443941
0.000242689
-0.000450894
-5.07808e-05
0.000500293
-0.000212126
8.24117e-05
0.000317169
-0.000185011
4.65466e-05
0.000138456
-9.98792e-05
-3.8059e-05
0.000137938
-0.000205361
0.000295442
0.00028038
-0.000534838
0.000437509
-0.000182334
-0.000230843
9.9105e-05
0.000131722
-0.000101019
-3.54018e-05
0.000136421
0.000149036
0.000202612
0.000145942
-1.04547e-05
-0.000135489
-0.000345552
0.000120423
0.000225047
-0.000596299
0.000119387
-4.31928e-05
0.000219409
0.000130283
4.05051e-06
-0.000134335
-0.000533481
0.00032549
0.000838156
-0.000332833
-0.000511129
8.12018e-05
-0.000186335
0.000105132
8.17482e-05
-0.000100506
-9.09647e-06
0.000200175
6.69758e-05
-0.000110223
5.61045e-05
5.35579e-05
1.38477e-05
-0.000159774
-0.000550176
0.000568188
7.32416e-05
3.28031e-05
-0.000106045
-2.7485e-05
-0.000103529
0.000131014
6.63921e-05
-0.000181071
0.000482245
-2.1239e-05
0.000311144
-4.88151e-05
-0.00010778
0.000156594
3.59465e-05
-3.59465e-05
7.49892e-05
0.00011055
-0.000185552
5.66478e-05
5.93107e-05
-0.000174526
0.00022924
-5.47237e-05
0.000135264
-5.41157e-05
-0.000246736
0.000181305
6.53935e-05
5.05431e-05
6.01702e-05
-0.000110713
8.8509e-05
-0.000255441
0.000187206
0.000351461
-0.000539687
-0.000502592
6.19054e-05
5.42164e-05
5.98115e-05
-0.000114028
4.45894e-05
-0.000177358
0.000132766
-0.000119237
-7.29779e-05
0.000166368
-0.00055352
0.000179739
-0.000104761
6.28337e-05
-4.35238e-06
-7.05757e-05
-0.000246837
0.000248078
-9.18879e-05
-0.000156228
-0.000112277
0.000270474
0.000528065
-7.44205e-05
-0.000408992
-3.62433e-05
0.000445004
0.000172947
4.37521e-05
-0.000127753
4.9528e-06
-6.7324e-05
0.00012154
0.000117817
-8.21977e-06
-0.000109597
-0.000271956
-0.0001054
0.000312267
-0.000150211
0.000108056
-0.000180744
-0.000467178
0.000469039
-0.000606225
0.000589295
1.27305e-05
-0.000515107
0.000601433
-8.89631e-05
0.000544541
-0.000241999
-0.000303143
-0.000158707
-0.000242132
0.000471792
-0.000230561
8.9775e-05
0.000158263
0.000699192
-0.000588654
-0.000117525
1.68461e-05
-4.51827e-05
-0.000631851
0.00011319
0.000507303
-6.673e-05
-7.04413e-05
0.000137171
0.000542807
-2.71772e-05
4.32545e-05
-5.07447e-05
4.16817e-06
0.000208068
8.4249e-05
-0.000348611
0.000236701
0.000111815
-0.000183969
-0.000410537
-1.00034e-06
-9.65066e-05
0.000226641
-0.000492496
0.000568873
-0.00054079
-3.07497e-05
-0.000286672
0.000115291
0.000171327
-0.000362096
0.000157693
0.000204358
-0.000129532
6.41852e-06
0.000441867
-0.000449109
0.000151055
-5.11461e-06
-0.000187972
9.4041e-05
0.000184072
-0.000278253
-4.04597e-05
0.000170741
-0.000193283
0.00028718
0.000164328
4.55694e-05
0.000437499
-0.000224952
-0.000143546
7.94749e-05
6.40711e-05
-6.75469e-06
-0.000101074
0.0005002
0.00014192
-6.83587e-05
7.53284e-05
-0.000175691
0.000100359
0.000461041
-0.000471195
-8.26376e-06
0.000129001
-7.88625e-05
-5.01386e-05
-0.000602646
0.000579887
2.01013e-05
-0.000591113
0.000109818
0.000470432
-0.000226902
0.000361141
-0.000134375
-9.87239e-05
0.000571612
0.000139063
7.38131e-05
-0.000212893
2.83115e-05
-0.000129331
0.000599133
-7.86974e-05
-6.48492e-05
0.000333576
0.000408435
0.000368436
-6.68325e-05
0.000178778
-0.000134192
-0.000552952
6.05073e-05
0.000475733
0.000133434
-8.33512e-05
-5.00833e-05
-0.000388991
-0.000116289
0.000504744
0.000575529
-8.75235e-05
-0.000489934
5.77514e-05
-0.000628076
0.000567909
-0.000639615
0.000122563
8.00735e-06
-0.000206437
0.000198422
-0.000173507
-6.60247e-05
0.000117363
-9.91656e-06
-0.000107446
3.40367e-05
-0.000239434
-5.29305e-05
-0.000100103
-6.25826e-05
-0.000246383
0.000308893
-0.000597783
-0.000190747
-1.9865e-05
0.000210602
1.18668e-06
0.00011663
-0.000160923
3.40111e-05
0.000241236
-0.000135693
0.000215383
-0.000134926
-0.000193526
-8.79539e-05
0.000281407
-0.000391115
-3.31365e-05
0.00042392
0.000189747
-0.000181746
0.000590724
-0.000334168
-0.000257334
8.26151e-05
-0.0001502
0.000136564
-0.00014611
-6.33302e-06
-5.40499e-05
0.000127291
-0.00048896
2.5267e-06
7.83125e-05
0.000162915
-0.00017654
-0.000228805
0.0005437
-0.00012725
-0.000417681
6.07206e-05
0.000108959
-0.000645665
0.000589231
4.9392e-05
0.000182459
-7.17289e-05
6.26513e-05
-0.000452119
-0.000462594
-0.000122235
-0.000217992
-0.000175018
-0.000100542
0.000275529
-0.000161061
-4.53824e-05
-0.000153652
0.0001335
9.4453e-06
-0.000142947
-0.000119672
4.78733e-05
7.17989e-05
0.000243669
0.000208413
-4.70796e-05
0.000114055
-0.000713022
0.000419975
0.000291925
0.000137197
3.73703e-06
-0.000140937
-0.000175204
-7.15645e-05
-0.000452559
0.000165688
-0.000503766
-4.22985e-05
0.000246553
-0.000226133
0.000480622
0.000293962
8.44643e-05
0.00048874
-0.000168608
0.000411751
-0.000243425
-4.13274e-05
0.000178521
0.000163063
-0.000116524
0.000175097
-9.38966e-05
-0.000262368
0.00017106
9.12753e-05
1.11581e-05
-0.00032451
0.000307275
-0.00012942
0.000261499
-0.000132142
0.000157144
-9.77017e-05
-0.000147562
0.000637102
-0.000495905
0.000155466
-0.000247392
0.00056506
-0.000426323
-0.000139424
0.000106125
-9.02123e-06
-9.71038e-05
-0.000478522
7.37892e-05
0.00040451
-0.000113181
2.44977e-05
8.86827e-05
0.000115567
3.99277e-06
-4.16967e-05
-0.000133854
4.30694e-05
-1.1224e-06
0.000305125
-0.000244894
-6.02797e-05
-0.000290065
-0.000367436
0.000232649
0.000311211
-0.000464521
0.000223784
0.000240389
-0.000540254
5.43403e-05
0.00051094
-0.000200756
-0.00041388
0.000597964
-0.000151429
5.49692e-05
7.59772e-05
3.36852e-05
-0.000177036
-0.000218097
0.000394893
5.0387e-05
8.30471e-05
-0.000510514
-8.65892e-05
0.000349637
-0.000142133
-0.000112331
0.000422401
-6.48547e-05
0.000182686
-0.000117837
-7.61038e-05
0.000114669
0.000163435
-0.000340673
0.00050062
-0.000551713
4.01763e-05
0.000128987
-0.00013568
0.000544875
-0.000551853
4.04132e-05
0.000435946
-0.000323975
-0.000112306
-9.16331e-05
-4.32423e-05
-0.000101036
0.000157155
-5.61193e-05
-0.000119303
-6.19983e-05
0.000181298
-0.000121261
0.000155897
-0.000159902
-1.36092e-05
-2.13159e-05
0.000492448
-0.000377512
-0.000279495
0.000654498
-7.33999e-05
0.000156014
-0.000488566
0.000176615
-0.0001297
-4.69183e-05
-0.000438616
0.000294749
0.00014353
-7.50341e-06
0.000343671
-0.000336321
-0.000152651
8.34765e-05
6.91738e-05
-7.70547e-05
-6.92593e-05
0.000146313
0.000485678
1.86892e-06
0.000115494
-0.000241358
-0.000234469
0.000176559
4.31771e-05
-0.000219777
-0.000221125
0.000113576
-0.000101705
7.17243e-05
-0.000103646
0.000168944
-6.5301e-05
-3.13735e-07
8.82541e-05
-0.000110129
8.86192e-05
-0.000225536
0.000100084
-8.94447e-05
0.000146274
-5.68293e-05
-0.00051046
-0.000123169
0.000615235
-0.000531862
-0.000127841
-0.000116686
0.000594021
-0.000478801
9.70626e-05
4.74976e-05
-0.000144562
-0.000200957
0.000148578
5.23677e-05
-0.000283991
-5.33756e-05
-8.07938e-05
0.000134169
-0.00034914
9.6163e-05
4.61408e-05
0.000201398
0.000104138
0.000460191
0.000135098
-0.000477465
0.000330659
-0.000455021
0.000365652
6.23258e-05
0.000513167
-0.000610331
8.30402e-05
5.94609e-05
5.18526e-05
-0.000108464
-9.77401e-05
-0.000115035
0.000212764
1.9113e-05
-0.000523357
-4.98225e-05
0.000539132
-0.000236169
-0.000597074
0.00051618
7.78616e-05
-0.000344055
0.000117027
-0.000369434
0.000429348
-0.000138097
-0.000151001
6.81096e-05
8.28913e-05
0.000260094
-0.000170361
0.000218449
-5.01618e-05
-0.000168295
8.02406e-05
-0.00017799
-0.000549288
-6.03622e-05
-7.96308e-06
0.000197701
0.000229762
-0.000609589
-4.28588e-05
0.000201953
-0.000126629
5.98018e-05
-0.000133124
7.33215e-05
-0.000165209
5.62685e-05
0.000108938
-0.000462066
1.00178e-05
0.000218551
-0.000387437
-9.8354e-05
0.000141015
-4.26617e-05
-6.43296e-05
-6.48215e-05
0.000129151
-8.07589e-05
-0.000126368
-0.000144538
0.000270895
-0.000105799
-0.00012506
7.68331e-05
5.35501e-05
0.000255255
-9.73573e-06
-6.13918e-05
0.00016944
-5.06362e-05
-9.23382e-05
0.000149247
-0.000217659
-7.05771e-07
6.0438e-05
-0.000255492
0.000337768
-6.89009e-05
-5.30183e-05
0.000121919
-9.54392e-05
-3.23558e-05
0.000143157
6.57187e-05
-0.000208891
-6.86172e-06
0.000557157
-0.000551082
-0.0004895
0.000287391
0.000201473
-0.000107461
-0.000238054
0.000345477
-5.07758e-05
0.000103183
0.000439684
0.000102607
0.000120453
-0.000180384
5.99275e-05
-0.000623586
2.94088e-05
0.000589814
-0.000446061
-0.000174781
-3.06234e-05
0.000205395
0.000563222
6.75236e-05
-3.92423e-05
-0.000539626
0.000576198
-0.000469179
-2.54648e-05
0.000153897
-0.000387881
-0.000474936
0.000111713
0.000350935
0.000331632
0.000258243
-0.000546052
-2.2583e-05
0.00015608
0.00013191
5.10019e-05
-0.000182923
5.79483e-05
8.73857e-05
3.85057e-05
-0.000293826
0.000162695
0.000131104
5.19047e-05
-0.000550978
0.000498568
-0.000176896
0.000205896
-7.72793e-05
-0.000277841
0.000335198
-5.74415e-05
-7.40144e-05
-0.000553525
-0.000298191
0.000480648
-0.000165213
6.84099e-05
2.80085e-05
-0.000171174
0.000143146
-0.000294967
-0.000138285
-7.85389e-05
0.000127606
-4.90674e-05
-0.000125118
0.000274332
-0.000254266
0.000526542
-1.96524e-05
-1.30329e-05
0.000102396
-5.96879e-05
-0.000219717
0.00028728
-6.75994e-05
-2.3379e-05
0.000471845
-0.000461311
5.00534e-05
-0.000146239
9.61816e-05
0.000303422
-0.000285612
-2.35244e-05
0.000272082
9.6184e-05
0.000300864
0.000213926
-0.000520685
-0.00016731
-1.95173e-05
0.000186824
-6.78663e-05
0.000519211
-4.49952e-05
-0.00048447
-0.00048428
0.000473821
-0.000139871
-3.21052e-05
0.000171973
2.68374e-05
-0.000614723
0.000156424
-9.43519e-05
-6.2073e-05
-7.69566e-05
0.000123408
-4.64518e-05
-0.000107632
-0.000200552
0.000308109
-0.000492136
-0.000289041
0.0004221
-0.000133786
0.000591432
-0.000297379
9.51513e-05
5.70522e-06
-5.48312e-05
-8.08933e-05
0.000168552
-0.000135583
-0.000170866
-0.000357873
0.000527785
6.01108e-05
6.88901e-05
4.09327e-06
4.59254e-05
0.000483467
-0.000539662
-0.000114794
-4.39991e-05
-0.000638364
0.000610857
2.29654e-05
7.42027e-05
8.26625e-05
-0.000497184
1.16295e-05
0.000468526
0.000384975
-0.000227613
-0.000157453
-7.86703e-05
-0.00066527
0.000115163
0.000548191
0.000267613
0.000273112
-0.000543631
0.000295352
1.46079e-06
-0.000128599
5.39319e-05
0.00016175
-0.000574745
0.000327926
-0.000335592
-0.000232488
0.000144116
8.83685e-05
6.53869e-05
-0.000321017
-5.98093e-05
-0.000448842
0.000499832
-0.000119913
-0.000166813
0.000338002
-0.000101868
-0.000231736
-1.24142e-05
-9.18523e-05
-0.000351133
-9.19779e-06
-0.000268716
0.000104508
-8.00103e-05
-0.000221656
0.000257589
-3.59723e-05
-0.000600932