/*--------------------------------*- C++ -*----------------------------------*\
| =========                 |                                                 |
| \\      /  F ield         | OpenFOAM: The Open Source CFD Toolbox           |
|  \\    /   O peration     | Version:  v2012                                 |
|   \\  /    A nd           | Website:  www.openfoam.com                      |
|    \\/     M anipulation  |                                                 |
\*---------------------------------------------------------------------------*/
FoamFile
{
    version     2.0;
    format      ascii;
    class       volScalarField;
    location    "100";
    object      ddt0(k);
}
// * * * * * * * * * * * * * * * * * * * * * * * * * * * * * * * * * * * * * //

dimensions      [0 2 -3 0 0 0 0];


internalField   nonuniform List<scalar> 
18758
(
-7.91591e-06
-8.48873e-05
-3.17054e-07
-6.73539e-06
1.8119e-06
2.92822e-07
-8.06688e-08
-6.29569e-07
1.78697e-06
1.66537e-06
0.000191058
-0.000733317
0.000125649
-1.74758e-07
-6.61752e-08
-1.3452e-07
-8.94317e-05
5.82237e-08
-7.3465e-08
-5.94279e-07
-0.000198152
5.53458e-07
3.03915e-07
9.76368e-08
-9.93934e-07
-3.80709e-05
0.00791788
1.05349e-05
4.33287e-06
0.00046817
-0.000905654
0.0102712
-5.83704e-07
0.000447678
1.74392e-06
0.000593736
8.49058e-05
1.77361e-06
-0.012205
-9.36355e-07
-0.00044884
1.53581e-06
0.00066154
-7.70876e-07
-1.30832e-07
0.00842936
1.45334e-06
4.68955e-06
-0.00605492
-6.40708e-06
0.000363399
-0.0345968
-5.71481e-06
4.22411e-07
3.07927e-06
4.76994e-05
-3.05434e-08
-4.41563e-07
4.44858e-06
-4.03837e-08
-1.18856e-07
-6.67814e-07
0.000534797
0.000323268
-1.19321e-07
-0.00047426
-1.25399e-07
1.64898e-08
1.37406e-05
4.93844e-08
-0.0275585
4.79787e-05
-4.92912e-08
-1.35302e-06
-1.21443e-06
-0.00188112
0.000676718
0.00586984
1.57927e-06
0.000857445
3.31668e-06
-0.0146406
0.00497916
-2.5861e-06
-1.30824e-06
3.20821e-06
2.22747e-07
-1.4268e-06
2.72919e-05
2.99967e-06
0.00205653
-8.6217e-08
2.57348e-06
-0.00624423
-5.3988e-08
-6.78318e-08
-5.15215e-09
3.06167e-06
0.00669851
-7.54104e-08
0.00167839
-8.57246e-07
9.41466e-09
-6.38319e-08
0.000510169
5.54512e-05
4.29717e-06
-0.00269697
6.83614e-05
0.00336079
-1.26416e-07
-0.000365983
-2.29225e-06
-1.44408e-07
-8.87604e-07
-0.0229717
2.88929e-06
-1.64252e-07
-0.0162993
-3.83993e-07
-7.29819e-08
0.00088674
-1.3565e-06
-2.00546e-08
-0.000821171
3.56463e-07
-6.43399e-07
-2.02279e-08
4.88921e-06
-0.000325212
4.46364e-06
4.1834e-08
-4.5067e-07
-0.0106626
-1.45141e-07
-1.00876e-07
0.0112411
-4.06232e-07
8.708e-08
3.347e-06
-2.4205e-06
-0.00159503
2.11279e-06
0.00025405
-0.000511021
1.75315e-06
0.00124997
4.88678e-06
1.79432e-06
-0.00911411
0.00037458
-0.00205766
-1.78648e-07
1.7879e-06
-0.00028153
-0.000895726
2.60241e-06
4.70943e-06
-2.31529e-06
0.000153519
0.000744228
1.79373e-08
-0.00983837
0.000105962
0.0374351
-3.97022e-07
1.7454e-08
0.00911491
-0.000110069
-0.00192829
-0.00402477
-2.91427e-07
4.36373e-06
-0.00062312
6.25848e-05
-9.4413e-08
-6.32434e-08
-2.21598e-06
-6.25984e-05
-1.08196e-07
-2.30272e-08
2.05561e-07
3.42561e-06
-6.78337e-08
0.0113986
-1.17262e-07
0.00069914
3.53863e-08
-0.00641668
0.0223287
-0.00279904
-1.11357e-07
6.25342e-06
0.000146361
-3.55566e-08
-8.65557e-08
6.51829e-05
-1.74615e-07
-0.00645373
-3.33031e-08
2.61394e-06
4.14506e-06
5.29742e-06
-1.46907e-07
-1.44505e-07
-0.00852727
2.21684e-07
1.88322e-06
7.74273e-05
-0.00101477
-1.1124e-07
2.77426e-06
3.24711e-06
-1.209e-06
-3.54699e-07
-6.26055e-08
-1.37038e-07
2.74752e-06
1.64808e-07
-0.000672881
4.679e-05
2.40791e-07
2.03169e-06
4.18146e-06
1.51378e-05
0.00115044
-9.9376e-07
2.07896e-06
0.00229532
1.80132e-07
-7.68934e-05
1.85329e-06
3.06203e-05
-1.12882e-07
-9.9413e-08
2.50226e-07
-9.64188e-08
-0.00504597
-0.000343991
-3.52127e-07
-1.24432e-07
-7.18792e-07
9.32096e-06
-3.63387e-07
-0.0030468
1.98822e-05
-1.00547e-07
-4.13152e-08
-8.27392e-07
-9.20662e-08
-0.00447538
-7.44003e-07
0.000901981
2.91684e-07
4.44465e-07
-0.00545715
-6.16473e-07
0.00032578
-1.50931e-07
-0.00558374
-2.22997e-06
-1.23698e-08
-1.16281e-07
6.02852e-06
-0.010552
-0.0112834
-1.29872e-08
-6.05094e-06
-1.74507e-07
1.17395e-07
-0.00775292
-0.0059872
1.06625e-07
8.2199e-08
-1.47054e-05
-3.32797e-07
2.61876e-07
1.3752e-07
-1.42895e-06
-1.82276e-07
-4.48678e-08
6.2798e-08
-1.26375e-07
-0.00272698
-6.82408e-08
7.15088e-08
7.24969e-09
3.53412e-06
-6.64314e-08
-6.29351e-08
-4.0079e-07
-1.34348e-07
-1.96708e-08
-2.30481e-07
-2.91777e-07
-6.58715e-06
0.000985703
-5.05187e-08
1.22652e-07
-3.81725e-05
6.41067e-08
-1.37563e-07
-1.48023e-07
-0.000200841
0.000849953
-2.66999e-08
1.87837e-05
4.35372e-05
-9.43509e-07
4.9765e-05
-1.22841e-07
-0.010476
3.54815e-05
6.40983e-06
3.94895e-06
0.000648535
-9.67573e-09
-0.00113519
3.75259e-06
-1.13406e-07
6.11352e-06
-2.35753e-06
-0.00678116
-8.8838e-08
-3.27088e-09
-0.000738924
-6.61823e-05
-8.22986e-09
-0.00174264
-1.36385e-06
-4.4133e-06
-0.0124233
-8.89722e-08
-5.65313e-07
-1.49052e-07
-1.37596e-07
1.00382e-07
3.67378e-06
-6.15208e-07
2.9708e-07
7.75608e-08
-3.36816e-07
0.000125131
-0.000380565
-3.79639e-07
-0.000938151
0.00711294
-8.9835e-09
1.16521e-06
0.00105679
2.98275e-06
-0.00075345
-0.000332479
-1.16504e-07
-0.00285393
-0.00561669
3.76678e-07
-3.28475e-07
-5.57733e-06
-1.36061e-06
-8.3348e-07
0.000187728
0.000126805
0.000422811
-4.53971e-07
0.000491774
-1.01099e-07
2.7565e-07
1.24865e-07
3.25485e-06
-0.00548998
-0.0277967
4.17259e-05
0.000244475
-0.000559515
-0.00207865
4.56713e-07
0.00126969
5.19284e-06
0.000732782
0.00068659
-8.81201e-08
1.03567e-07
1.4932e-06
-0.000344276
-0.00254011
-0.00387564
-0.00133159
-3.62516e-07
-0.000995256
0.00231947
-1.33388e-07
-2.14043e-07
-1.94847e-07
-4.42894e-07
-7.10352e-08
-1.43065e-06
-1.26825e-07
1.29115e-07
-3.6335e-07
-3.07991e-06
-2.22089e-06
-0.00967014
5.31856e-07
0.00588381
0.0043325
0.000692228
-0.0077421
5.47613e-06
-4.59908e-06
1.44306e-07
0.000537965
-2.28023e-07
-3.76897e-07
0.00753835
3.10676e-06
7.67115e-05
-6.03944e-07
0.000136153
-1.32283e-07
7.24377e-08
-3.71531e-08
-0.00586538
-0.0108818
-0.00132089
-2.88076e-07
-0.0127307
2.22535e-06
-1.35822e-07
8.54975e-08
-5.08338e-08
2.32566e-05
-1.84088e-07
-2.18062e-07
0.0352307
5.74423e-07
-3.83664e-07
-6.51673e-08
-6.24666e-07
-1.2491e-06
0.00512067
-6.73449e-06
3.65617e-07
-5.00934e-05
-3.88517e-08
1.93851e-06
1.84236e-06
-1.51412e-07
0.00232401
3.53675e-07
-1.32252e-06
-3.14035e-07
-0.0146755
-1.04708e-05
-1.31805e-07
-0.0039674
0.000876251
1.31062e-08
3.00887e-07
2.6722e-07
-1.464e-07
-1.98039e-07
-9.1149e-08
-0.00596758
0.00489576
-1.86924e-07
1.64232e-06
0.00133729
1.39296e-06
0.00199089
6.15723e-05
0.00160393
-1.15179e-07
5.04307e-06
-1.03926e-06
-2.09156e-06
-5.81047e-07
-0.000775927
0.000315443
-2.04351e-06
-7.58438e-08
-7.12308e-08
-5.85697e-08
-1.52971e-07
-6.23431e-08
-1.68819e-07
-0.000290813
-2.48129e-07
-3.08039e-08
2.00394e-06
2.3507e-08
-3.20397e-07
-8.95619e-07
1.45584e-08
0.000302698
-0.000817171
2.55303e-07
0.000534597
4.24795e-07
5.85771e-07
4.6032e-06
0.00241295
0.000561171
-1.39269e-07
-1.2056e-07
0.00440898
-0.0112021
0.000174425
-2.53118e-07
4.54895e-07
-0.00335804
1.08644e-08
3.81869e-07
0.00374978
-4.21492e-07
3.54254e-06
0.000143049
-8.20246e-07
1.67719e-06
-4.17052e-08
-6.35957e-08
-7.18145e-08
2.61264e-07
1.44164e-07
-1.29578e-07
-0.000467345
-1.52666e-08
2.91409e-05
0.000898091
1.6646e-08
-1.53035e-08
-2.38837e-07
2.68858e-07
-2.9436e-07
-6.89342e-06
-7.26771e-08
0.021958
-1.94608e-06
-2.09867e-06
-1.3175e-07
-1.95212e-06
-1.17793e-06
-2.17917e-07
-2.0108e-07
0.000575833
0.0112632
-4.70554e-08
1.13576e-07
-1.29243e-07
0.00878566
-3.69574e-08
-2.43205e-08
-1.69795e-07
-3.2609e-08
3.37515e-08
-1.08683e-07
-1.47293e-07
-1.44693e-07
4.76363e-06
-9.13512e-08
-9.08825e-07
4.76457e-06
0.00117892
-1.6087e-06
-6.47414e-07
-9.85389e-08
-3.9619e-07
-7.00599e-08
3.03138e-07
7.61833e-06
0.00120222
-1.10236e-07
0.0109147
-9.583e-08
1.19817e-06
-7.27517e-07
2.64919e-09
1.95077e-06
4.70218e-08
2.56189e-07
-0.00398321
-2.95088e-07
-7.608e-08
-1.0613e-06
-1.91086e-07
-1.11903e-07
-0.0060986
-1.48515e-07
-0.0014317
0.000365747
-2.48737e-07
-3.58039e-07
-2.447e-06
-8.37222e-07
-2.3072e-07
-8.65924e-08
-0.00568604
0.0114802
0.000980977
-4.00287e-08
0.000330559
-2.66166e-08
-9.78272e-08
-9.52964e-08
-5.45217e-06
0.0357414
2.25141e-05
-2.15915e-07
-7.85485e-08
-2.52486e-06
0.000498925
-4.57441e-06
-1.28119e-07
3.39115e-05
5.33292e-08
-0.00439998
-2.46089e-07
-3.16686e-06
-2.66212e-08
-6.46665e-06
3.26622e-06
-2.3685e-07
-1.76974e-08
-3.2919e-08
-2.76014e-08
-3.51906e-07
-3.64511e-06
0.000697373
-0.0034677
1.31793e-05
8.06537e-07
-8.46026e-08
-4.32112e-08
-8.68719e-08
3.12142e-06
-1.43024e-06
2.14934e-06
-0.00177328
0.000423058
-8.13737e-08
3.42179e-07
-2.50697e-06
0.00281954
-2.71417e-08
0.000985203
-7.19638e-08
1.00867e-07
8.03635e-07
-1.37796e-07
-1.94152e-07
-1.21284e-06
-5.53554e-08
-1.20134e-06
-3.76533e-06
1.95747e-06
-0.00254081
-1.19163e-06
5.40233e-08
-0.0225391
-1.54834e-07
-0.00992868
-0.00295477
-7.4568e-08
0.0103326
-3.45855e-06
-7.47904e-07
0.0108249
-0.000241058
-0.00051351
-0.00951637
-7.23917e-07
0.0101386
-1.43347e-08
0.00333182
0.000716899
4.45149e-07
2.18821e-07
-0.0027183
3.46942e-08
-8.93675e-07
5.12162e-07
0.00709621
-1.66935e-07
0.00357684
-3.23906e-08
2.45717e-06
4.7674e-06
-1.10768e-07
9.32917e-07
0.000372224
-0.00176156
-9.274e-07
-1.74729e-07
-3.74339e-08
-3.21827e-07
-8.67166e-06
1.45108e-07
-1.17728e-07
6.8235e-08
-0.0196964
6.67957e-07
8.75913e-08
3.37895e-07
-2.06432e-08
0.000197063
-1.3023e-07
-2.12245e-08
0.00710057
-4.47987e-08
-1.48584e-06
8.30926e-06
2.33478e-06
1.94177e-06
-1.17696e-07
1.32064e-07
4.13749e-06
1.06772e-07
0.00263737
6.96716e-08
-4.66292e-07
-2.55773e-07
-1.76225e-08
-3.15757e-08
0.0056782
-2.01768e-08
-0.000675685
1.84644e-06
-1.09227e-07
-0.0159892
1.68289e-08
-1.96892e-06
-9.1978e-07
0.00846129
5.67332e-08
6.64306e-05
0.000451607
1.04451e-07
-9.35499e-05
-3.23433e-08
-3.79067e-06
1.30329e-07
-2.34039e-07
-0.0223536
0.000646428
-1.39318e-07
1.79262e-08
-6.37103e-07
-4.60607e-08
-1.17194e-07
-0.000430038
-0.000351606
1.77507e-07
-4.78764e-08
-3.26224e-08
0.00742797
9.98605e-06
-3.94459e-05
-4.90653e-08
0.000222653
-2.37227e-07
1.41655e-07
6.23766e-07
0.00359077
-1.332e-07
2.27666e-06
-8.53592e-06
-7.57141e-06
0.000181829
-1.24857e-07
-6.98339e-07
-1.30928e-07
-2.02213e-07
2.80138e-07
8.86839e-08
3.40654e-06
-1.57094e-07
-0.00870089
-5.37433e-08
6.92962e-08
4.27067e-06
-0.000420626
2.33358e-06
1.74061e-07
-3.31399e-08
-0.000234017
0.000383312
-1.2673e-06
-7.49358e-08
-8.63034e-08
-1.45413e-06
-0.0118348
0.000546784
1.31152e-07
-1.13848e-07
-3.74257e-07
2.73301e-08
-2.0109e-06
-8.62729e-08
-2.02659e-07
0.0012936
-1.25655e-07
-1.04384e-07
0.000126675
-3.49786e-08
5.77868e-05
1.06544e-05
0.000184677
-0.0151293
-0.00175226
-0.000182281
-7.91192e-08
-8.60944e-08
-2.65531e-07
1.77108e-07
-1.18255e-07
-6.41079e-08
-1.2088e-07
-2.97379e-07
0.00221279
4.18156e-06
-7.81262e-06
-6.04313e-06
-8.99816e-08
-1.75352e-06
-2.20459e-06
5.00555e-06
-1.34247e-07
-1.18546e-06
-2.11029e-07
-0.00651087
-6.21639e-07
-0.0015072
-1.25135e-07
5.09257e-06
5.18667e-06
0.000600778
-0.010166
-0.0064188
-1.899e-07
-1.05409e-05
4.24062e-07
-0.000126422
-1.28632e-07
-6.84013e-10
5.424e-06
-0.00271734
-9.70878e-08
0.00101411
0.000458163
-1.2156e-07
-9.62373e-08
-1.47153e-07
-2.77145e-07
-4.46431e-08
7.80675e-07
7.82928e-07
-4.57919e-08
-1.18771e-07
-0.00436603
-0.00537626
-7.08722e-08
-0.0010443
3.59308e-06
1.99365e-07
5.42852e-07
2.20263e-07
3.17239e-07
-1.65563e-08
2.74448e-07
-2.53262e-07
-2.18272e-07
5.53311e-07
-1.65548e-07
-0.0215692
2.31414e-07
-1.93066e-07
-2.92253e-07
0.000772638
-1.75475e-07
-1.70915e-10
0.0186448
-1.23699e-07
1.58168e-06
3.01592e-07
-1.01345e-07
-6.55561e-08
-5.10962e-08
-6.02042e-07
1.27905e-06
-2.1994e-07
-0.00210158
5.2553e-06
4.71688e-06
-0.00439165
-3.40861e-07
2.73669e-05
-1.34406e-08
-5.58939e-06
-1.21317e-07
-1.67213e-07
3.70092e-06
-0.0211972
5.15612e-07
2.66708e-05
5.30167e-05
1.74742e-09
7.11955e-07
1.69296e-09
-1.03085e-07
-1.80589e-07
1.12653e-06
-9.26026e-08
0.000240075
-8.75576e-08
3.82874e-08
4.27407e-05
-1.77976e-07
-1.41894e-07
-6.99472e-08
-0.00681477
-3.42752e-07
1.02222e-06
7.66753e-07
7.19807e-05
-0.000841193
-0.00286847
0.00118435
-7.6087e-08
-2.42624e-08
-9.91535e-08
0.00630732
-2.44075e-07
-4.82345e-08
-1.69696e-07
-1.91834e-07
-3.77254e-06
-1.7024e-07
-1.68887e-07
-1.96805e-06
-9.3996e-08
2.07462e-06
-0.00223412
-2.43935e-08
-4.54354e-08
0.000436781
-2.65813e-07
0.00140636
0.00075084
-4.47204e-08
-1.33326e-07
-0.00114666
-5.77351e-08
-1.41069e-07
-0.00273037
3.5285e-08
0.00166598
-1.38122e-07
-2.26705e-07
-6.4973e-08
-2.07584e-06
1.18925e-06
-0.00227831
-7.97168e-08
-9.10648e-08
-0.00016914
0.000808949
1.38439e-06
-2.08874e-06
0.000206327
-0.00653765
3.90376e-05
-2.45795e-08
-0.00596808
-8.70908e-08
0.0034457
-0.00477079
2.12974e-07
-3.13085e-07
-1.81148e-07
0.00272096
-3.95359e-08
0.0137477
-1.59242e-07
6.28839e-06
3.60205e-06
-8.13186e-08
-5.04406e-08
-7.68574e-08
2.40581e-05
-3.2288e-06
-8.79093e-08
0.000207773
-8.49002e-08
-1.39072e-07
0.00123745
-1.00569e-07
8.43781e-06
-5.64153e-08
-2.56449e-07
-8.81221e-08
-3.80109e-08
-9.43962e-08
-3.41529e-08
7.78561e-06
-2.02723e-06
-2.15052e-06
1.19311e-06
5.6619e-07
-8.12168e-08
-0.00281808
-1.40989e-07
-0.000960024
-1.57645e-07
0.00168896
2.3665e-07
0.00012228
-4.23826e-07
-7.22491e-07
-1.08368e-07
-0.0180137
3.10841e-07
-0.00361849
-2.31617e-06
-1.52288e-07
2.96329e-07
-1.45893e-07
-4.66812e-08
-3.54593e-08
-1.72649e-10
-0.00161979
-9.06597e-08
-1.99551e-07
-5.7903e-08
-1.6291e-07
0.00622486
0.000338378
1.10523e-07
-8.13483e-08
1.41754e-06
4.59792e-07
-1.06235e-07
-1.04755e-05
-6.58268e-08
-7.99262e-08
-1.22234e-07
-3.67897e-07
3.53871e-06
3.71587e-06
-3.48548e-07
-1.52407e-07
0.0120204
-7.05591e-07
-0.032508
2.63127e-05
-2.60134e-07
-0.00806839
-4.5666e-08
-3.58077e-07
-9.63234e-07
-8.45337e-07
-1.67652e-05
-2.1203e-07
1.34425e-06
-0.000790459
3.99499e-06
0.0075414
0.00892228
0.000875035
-3.6314e-07
-1.64711e-07
-1.29079e-07
-0.00360458
-1.94637e-07
-3.33385e-07
8.68188e-07
0.000330725
-2.34259e-07
-8.62917e-08
-0.00236556
3.36289e-08
2.24688e-06
-2.07376e-06
-2.12504e-07
1.87253e-06
-1.20326e-07
7.63293e-08
-6.35168e-08
3.34949e-08
3.12179e-06
-2.16953e-07
4.30477e-07
-0.00242654
-1.50784e-07
-9.08445e-08
-0.00229118
-5.72563e-08
-1.92871e-07
-2.6585e-07
-2.62783e-07
1.87585e-06
0.00420311
4.98557e-06
-0.00335466
0.00184674
0.00728883
7.14662e-05
1.66728e-06
0.00421894
-0.00251946
1.0338e-07
-1.39589e-07
-3.7458e-07
-1.21474e-07
-2.64518e-07
-7.09292e-07
-5.70874e-07
1.93436e-05
-3.53996e-07
-2.95795e-08
-1.41092e-06
3.17614e-06
0.000288832
-1.56621e-07
-5.90799e-08
-1.02252e-07
-0.00108583
-0.000210101
7.73693e-07
-0.0120485
-8.47439e-08
-1.03779e-07
5.56069e-06
-1.97862e-06
-1.03574e-07
1.19371e-05
6.01423e-07
-3.15326e-07
0.00296308
8.51194e-06
1.63063e-07
-1.87823e-07
-1.32227e-07
-2.72563e-07
-2.03887e-08
-0.00215892
6.7665e-06
-0.0147833
1.31369e-05
-0.00312096
5.45135e-07
-0.00916753
0.00786938
0.00855344
3.24832e-06
-0.0367343
1.39334e-06
0.000962994
4.95685e-06
3.61838e-08
4.3926e-08
-7.21287e-08
1.58057e-07
-1.53805e-06
-6.65158e-08
-1.88153e-07
0.000227673
0.00288508
-0.0158869
-0.0015852
3.50847e-06
0.00386105
-1.91731e-06
-1.34684e-06
-9.21156e-08
0.00120294
2.21524e-05
3.84245e-07
8.47176e-07
0.00335339
-0.00333438
-0.00153654
6.61841e-07
-2.31045e-06
-2.21091e-08
0.000992711
-1.49784e-07
-0.00173588
0.00107187
-4.80065e-07
4.31075e-06
5.05389e-06
-1.31917e-07
-4.60279e-08
-0.00153969
2.74238e-05
3.49516e-06
5.5825e-07
-3.26892e-06
-5.02715e-08
-0.000246509
-1.59591e-07
0.000489134
-2.4451e-07
0.00128279
0.00122177
-1.08929e-06
-4.48257e-05
-1.59556e-06
0.000447924
-2.17701e-08
2.31695e-07
0.00954258
4.36824e-07
-1.31297e-07
0.00631142
-0.0017741
-8.24697e-08
-1.38151e-07
0.000477651
3.17594e-06
-1.84029e-07
0.000172301
1.42419e-05
-5.45352e-08
7.01676e-07
0.000634716
8.79222e-07
-6.97195e-07
-7.24367e-07
4.97228e-05
-1.05987e-06
-4.06917e-08
-6.53195e-08
-5.08937e-08
-6.34758e-08
-0.00867581
-5.43553e-08
-5.08104e-08
1.18999e-05
-9.41652e-07
-8.93711e-08
0.000294726
-2.90836e-08
-3.58266e-07
-4.69066e-08
-9.36775e-08
-1.36736e-07
3.09929e-06
1.87237e-07
0.00149933
2.85039e-06
0.00533518
0.0019457
-8.75223e-07
-4.14819e-08
-6.8115e-08
0.00881059
8.10897e-08
2.61572e-08
0.000815684
-3.25559e-07
-0.0227457
2.53242e-07
-5.52339e-08
-4.82076e-08
-1.65611e-08
-2.64988e-07
6.80258e-09
-7.71222e-07
-1.36161e-06
-1.0569e-07
0.000947465
1.96126e-05
0.000465603
-3.99776e-07
-4.10073e-08
-1.24655e-05
0.00503455
0.000262785
0.00528388
-0.00982771
-0.0037064
8.91657e-06
0.00457379
-3.06783e-06
2.28265e-07
2.45759e-06
-0.00276867
-6.45651e-08
0.000186557
0.000572231
4.49826e-06
-6.84387e-08
0.0046482
-9.51156e-08
-1.37579e-07
3.89564e-07
8.37638e-07
-0.00143986
0.000687993
-1.61023e-07
3.84258e-08
-3.02083e-07
-3.4845e-08
-1.27696e-06
-1.20695e-07
0.00509059
4.81455e-06
-7.17335e-06
6.32762e-07
-7.62978e-08
-1.6687e-07
0.00173662
8.6438e-07
9.41831e-08
-4.77308e-07
-3.38132e-08
-3.51672e-08
-1.11094e-07
-3.31707e-08
-2.42524e-07
-1.29086e-07
-1.20623e-07
-4.88747e-08
7.48383e-05
-6.80202e-08
-0.0064732
-1.55858e-07
-1.67458e-07
2.00006e-06
-1.56801e-06
4.0524e-05
-1.75067e-07
2.03656e-06
0.000191846
0.000177704
1.17336e-07
1.03729e-05
0.00101196
-2.36419e-06
-2.18192e-06
-7.63517e-08
-9.03118e-08
-1.1793e-08
-8.45934e-08
-5.6912e-07
2.47287e-07
-6.7649e-09
-3.26914e-07
-1.7033e-08
3.26939e-07
1.97172e-06
0.00565932
-2.5679e-08
1.91493e-06
-4.25041e-06
3.32044e-06
-1.26039e-06
-3.28067e-07
-6.29936e-08
-0.00115675
-1.33472e-06
-7.85614e-08
-8.2821e-08
4.23836e-06
-4.73871e-08
-4.18545e-08
0.00241549
4.17136e-06
-1.23718e-06
-8.0548e-07
1.1004e-06
-0.0118204
7.202e-08
0.000422214
0.00949961
-8.42394e-08
-5.51065e-08
-0.00107204
-7.37231e-07
1.11129e-05
-2.61479e-07
2.20826e-05
-1.371e-05
-8.02734e-08
-3.96178e-07
-9.63084e-06
2.86891e-07
0.00126064
0.00185693
1.44887e-06
-0.00308348
-0.000863552
-1.16195e-07
0.00170633
0.0156631
3.81766e-06
0.00873067
-8.23024e-08
3.63095e-06
4.93433e-06
-0.00461317
1.42759e-05
-6.1149e-05
-2.02182e-06
-0.00203067
-9.49086e-08
1.82699e-09
0.00238401
-3.99845e-08
-8.24449e-08
-1.10259e-07
3.86383e-07
-2.89727e-07
-3.28142e-07
-6.47529e-08
-8.14535e-08
-0.00514698
0.000705132
-9.94183e-08
-9.44193e-07
8.64317e-05
-0.00216009
-2.74945e-08
1.53682e-06
2.79951e-05
2.6637e-06
1.26424e-07
-8.95025e-08
0.00169735
3.27933e-07
4.41768e-06
5.4462e-06
-3.53104e-08
6.26705e-06
-0.00853106
-2.26119e-07
-0.000467293
0.00597884
0.0103495
-2.98252e-07
-2.30734e-07
-9.54053e-08
-2.17383e-07
-1.24923e-07
0.00105879
-1.86952e-06
-1.14398e-08
-3.62294e-05
2.0458e-06
-2.32213e-07
-1.65767e-07
-1.32214e-07
0.00249411
-8.75134e-05
1.18566e-05
-1.05901e-05
-6.33416e-08
-0.0117561
-0.0011056
-4.88025e-08
-1.00266e-07
2.49711e-07
1.42854e-06
0.00573634
-0.00011254
-9.83726e-08
-1.82146e-05
-0.00137519
6.58841e-06
-8.29306e-08
-1.76317e-07
-3.64483e-07
-7.45005e-08
-3.79783e-07
-3.73152e-08
1.21885e-05
-0.00029701
9.27619e-09
-7.33213e-08
1.32362e-06
-4.11538e-08
-1.07283e-07
-6.89478e-07
0.00160326
-4.49613e-08
-6.66414e-07
0.00201272
7.6241e-06
-4.48745e-07
3.49701e-06
-2.68e-07
-5.43826e-06
-9.90085e-07
-2.70516e-08
-1.1673e-07
2.62364e-08
3.39676e-05
1.07966e-05
-4.091e-07
-3.36389e-06
-1.9473e-07
9.89002e-06
4.66761e-05
-5.59935e-08
-0.00355705
-4.35216e-08
-2.13441e-07
3.74324e-06
0.00552753
9.21943e-07
-3.36204e-07
4.82645e-08
6.70369e-06
-8.25996e-08
0.000151685
0.00261611
-4.81566e-08
5.09083e-06
-0.000147648
3.22823e-08
-4.59235e-07
0.00217262
4.71585e-06
-1.77428e-07
9.70119e-05
9.32123e-08
-8.52748e-08
0.00730013
1.18133e-07
0.000141287
-1.2593e-07
0.00758423
-1.3691e-06
-1.91501e-07
3.91618e-06
8.35242e-07
1.97474e-06
6.53317e-06
-0.00194954
0.000641144
2.70985e-06
-2.14336e-08
-4.63623e-08
0.000609619
0.000530203
7.17793e-06
-0.000390855
5.80158e-08
-0.00803895
6.25169e-08
-7.5039e-08
2.81359e-06
-3.9838e-07
0.000253445
0.000901209
-2.09232e-07
-0.00540257
0.0366228
-0.00311377
5.55969e-07
5.08229e-06
-2.50735e-08
-4.33599e-07
-1.98884e-07
-2.44938e-08
3.71238e-05
0.0161928
-0.00680693
-2.3166e-05
2.41523e-05
0.000721705
0.00793928
-1.07304e-07
-7.21217e-06
0.0126947
4.02357e-06
8.61013e-08
-8.44104e-08
7.9542e-05
-2.12228e-05
-1.16055e-06
-8.06498e-08
-8.21967e-08
2.3729e-05
-8.06791e-08
2.50486e-07
0.000543057
-7.95692e-07
-0.000643409
6.19462e-08
-0.00237177
-3.1837e-05
-0.0184895
-8.34718e-07
-0.00110617
1.3985e-06
-9.62746e-08
-3.9833e-07
-0.00197761
5.94357e-07
-0.00480447
-2.96308e-07
-9.50573e-08
-1.38061e-07
-0.000399959
-1.9602e-07
4.84324e-06
0.00012533
-0.00187061
0.000216616
-5.44986e-08
1.19453e-07
-0.000921543
-2.43442e-08
8.56224e-08
-9.53891e-07
-4.46687e-08
-1.2564e-07
-5.60646e-08
-1.01058e-07
-3.49491e-08
-1.26031e-07
-2.01332e-06
-1.34544e-06
-1.96564e-06
0.00342689
-0.00282156
-1.36926e-06
-3.00817e-08
-1.03821e-07
-1.87986e-05
-1.12361e-07
-1.01265e-07
-1.58626e-09
2.60724e-06
-1.97683e-07
-1.15268e-08
-7.19371e-07
0.000164189
0.000553619
-2.65242e-08
-6.26384e-06
-4.22763e-05
-1.7e-06
-2.70209e-07
0.000273416
-1.49689e-07
-5.89614e-08
6.6239e-05
4.05029e-05
-6.33568e-08
-0.00245403
-1.7241e-06
-1.07301e-07
0.000467328
2.2561e-08
5.65696e-06
-0.00324004
-0.00489199
-0.0062118
-1.41383e-07
-1.3776e-07
0.00347907
-1.1268e-06
0.00291094
1.55505e-05
-0.00330437
-0.00265763
-9.02821e-07
1.74062e-06
-9.80301e-08
0.000128283
6.77935e-06
-0.00891788
-6.52174e-08
2.73584e-08
1.53838e-06
4.80614e-07
-0.00706122
-4.33755e-07
0.000834537
0.023859
2.63643e-06
-3.98843e-05
-0.00229852
-3.16683e-08
-5.61526e-08
-6.21538e-08
-2.53845e-05
0.00041242
-2.65324e-07
-7.63853e-08
-1.45631e-07
-3.01397e-08
1.63475e-05
-2.56344e-08
-4.67733e-08
1.36375e-05
-2.18212e-07
-4.08445e-08
9.14733e-07
0.00585978
0.0385818
0.0109432
-1.63808e-07
-1.48923e-06
6.00811e-06
2.38925e-07
2.6831e-06
-0.000905405
-0.00211107
-4.31928e-06
-1.13019e-06
-2.99538e-08
1.63439e-06
1.91475e-05
3.80762e-06
-0.00410564
-2.27602e-07
8.68036e-06
-1.36991e-07
0.000454801
7.17705e-05
-4.47922e-08
-5.08112e-07
-1.41903e-07
-1.47823e-07
0.000450759
1.00027e-08
-2.23741e-08
-1.29347e-07
4.74385e-07
-7.10948e-09
-5.02679e-07
-1.02885e-07
4.17573e-07
-1.1749e-07
-1.41593e-07
0.00302261
0.00568624
8.50595e-05
5.42156e-08
-7.17328e-08
-1.60011e-07
-1.78691e-08
-1.17715e-08
-1.27938e-06
-4.23703e-09
-4.56975e-08
-9.07075e-08
-7.82219e-08
8.63826e-07
-1.44801e-07
0.0155221
0.00649165
1.97689e-06
0.0125853
-1.6501e-07
0.00135368
-2.7793e-05
1.9405e-06
-2.98219e-08
-0.00150023
-1.66728e-07
-4.42815e-08
6.64823e-08
-1.30591e-06
5.82974e-06
-7.20702e-08
-4.59383e-05
5.8932e-08
-7.07792e-08
-4.075e-05
0.00247064
-1.38367e-06
-4.24601e-08
-1.35593e-06
3.43234e-06
5.39462e-06
0.0111873
-7.16516e-08
-1.14219e-06
-2.46523e-08
1.7764e-06
1.39493e-06
0.000123775
-1.40491e-06
-2.87797e-08
0.000172109
6.80966e-06
-4.8797e-06
-1.13525e-07
-9.61783e-07
0.00292032
-1.10386e-07
-1.56108e-07
-2.06976e-06
2.63935e-05
7.39468e-08
-4.78436e-08
-2.16496e-08
-1.95484e-06
-8.11367e-07
-0.00231109
7.49719e-08
2.46283e-07
6.64414e-07
-0.00564179
-2.10198e-08
-5.05868e-08
-3.89577e-08
9.91716e-07
-2.8655e-08
-0.000774879
-0.00179608
-1.6627e-06
0.000379434
-1.10107e-07
0.000311888
4.5111e-08
-4.80359e-08
-3.20586e-05
-2.02364e-06
-6.15388e-06
0.000214968
-0.0168813
-2.47476e-06
-1.70238e-06
1.64521e-06
-2.17981e-07
-2.4061e-05
1.42004e-08
-1.26877e-06
0.00135342
-2.11409e-07
0.000872998
0.000629695
0.000501754
-0.00307244
-0.000440802
-0.00260529
0.000459168
3.76203e-06
-4.61954e-06
1.30953e-05
-4.75666e-08
-2.90007e-08
-8.8982e-08
-0.0284662
-0.0243746
0.000436404
-1.35843e-06
-1.0955e-06
0.000439318
-7.53877e-08
-1.85662e-05
-5.50509e-08
1.75577e-06
-1.32113e-07
-8.83053e-09
-7.88273e-07
1.75682e-06
0.00115573
-1.17741e-06
5.46023e-07
-2.63415e-08
1.76161e-06
-0.0116525
-1.7774e-07
-1.73917e-06
1.27562e-05
-2.4855e-08
2.21034e-06
-4.99563e-08
-0.000570886
-1.2579e-06
8.70744e-05
-1.44206e-07
-1.51613e-07
1.65462e-06
-2.33975e-05
0.00353538
-9.09436e-06
0.000313523
-6.44984e-08
1.72182e-08
4.11418e-08
-1.64396e-07
-2.7964e-08
-1.09708e-07
0.00273855
-6.91581e-05
-1.61683e-06
2.01038e-07
3.68938e-07
-1.49979e-06
-1.63495e-07
-3.00219e-07
5.67103e-06
0.000373727
0.000932656
-3.13913e-07
0.000207875
-4.31334e-08
3.08563e-06
-1.02108e-07
1.97695e-06
-0.00395711
0.00119929
0.00186993
-8.71347e-09
3.60841e-09
-8.91106e-08
-7.61135e-08
-3.04282e-08
-9.5753e-08
0.00894476
-1.04403e-07
-1.66389e-06
-2.76192e-07
-1.43206e-06
-1.44407e-07
0.000607832
-0.0026605
-0.00167092
1.0068e-07
-0.000258323
-2.71989e-08
0.00200589
-1.31798e-06
-2.04351e-06
-0.0020599
3.73405e-08
3.17681e-06
-1.32083e-07
-1.93142e-06
6.4953e-07
-2.33159e-06
6.10681e-06
-0.00377665
-2.08583e-05
3.95343e-06
1.86938e-06
-2.39252e-07
-7.5138e-08
0.00919045
-1.70984e-07
-0.00505273
1.3934e-07
-0.00592551
0.022486
-0.00239562
-4.79021e-07
-2.71744e-06
-7.15235e-07
3.77743e-07
-1.05503e-07
-6.28384e-07
3.73449e-06
-1.0218e-07
0.00143895
6.06721e-06
5.49572e-06
-1.4188e-07
4.81258e-07
-0.0077673
-0.00129567
0.00184515
6.05244e-08
1.88434e-05
-0.0517033
-7.15792e-06
-2.09901e-07
-1.30893e-06
0.0019433
3.60006e-06
0.00983993
-4.42332e-07
-1.94557e-06
-6.91511e-05
-2.06486e-07
0.00114048
2.36102e-06
-5.94675e-08
0.00109997
-0.00182452
0.0143979
2.52179e-06
5.49671e-06
-9.61792e-06
-5.20282e-08
3.84193e-06
-4.66841e-08
2.96135e-06
-6.92157e-07
0.0112778
-0.00276893
0.00270597
0.000704495
3.61886e-06
0.0246634
2.22656e-08
8.21886e-05
0.000463753
-0.0148497
-1.23349e-07
3.90697e-07
-6.01258e-08
6.32318e-07
-6.83829e-08
-1.25301e-07
0.0329216
-9.23541e-08
-2.71575e-08
-2.11803e-06
5.12231e-07
-5.2893e-09
2.48877e-06
0.00169512
1.8957e-06
-2.41478e-07
-2.22634e-11
7.6307e-07
-2.43295e-07
-9.21872e-08
-8.59655e-08
-5.41003e-08
-0.00631168
1.18752e-07
-3.78894e-06
-1.22838e-06
-4.79876e-08
-8.84227e-09
-0.00274902
5.31645e-06
-1.94502e-05
2.09766e-05
-2.1849e-07
1.73306e-06
-7.65164e-08
4.85838e-07
-1.99365e-06
0.000846404
3.86807e-05
1.07839e-08
-1.70118e-07
-2.007e-06
0.00236439
-0.00130309
-0.000716506
2.17494e-08
-2.00501e-07
-4.26455e-08
-3.25807e-08
-5.30028e-07
-0.00643152
-2.0104e-08
-0.000730346
-8.2094e-09
-2.70251e-07
6.92132e-06
-5.50714e-08
-0.00717888
6.98525e-06
-0.00367021
-1.73929e-07
5.80306e-07
2.13594e-06
-0.0228876
-1.6971e-07
-1.06949e-06
-3.14109e-05
0.000671048
0.00478117
-0.0034796
-0.000209027
-5.2705e-07
2.99919e-06
2.02099e-08
2.50735e-05
-0.0263542
9.07096e-06
-5.61082e-08
-1.49391e-07
-7.03614e-08
-2.36914e-05
-0.0086531
-1.38142e-06
-0.0035851
-9.62204e-08
-5.49674e-08
-1.55289e-07
-1.22065e-06
6.88847e-05
0.000205859
-1.31891e-07
-3.23568e-07
4.05903e-07
-0.000688179
-2.64068e-08
0.000181581
-8.99299e-07
5.13646e-06
0.012048
-7.70309e-08
-7.81132e-07
-0.00961244
0.00635881
0.00168647
4.90323e-07
2.66472e-08
1.78245e-06
-0.00336243
-2.05698e-05
4.30092e-08
0.000821471
0.000544306
-2.38467e-08
-1.08819e-07
0.0337115
-5.55111e-08
-0.000175855
0.00291419
-2.69648e-08
-3.79087e-08
-1.19036e-06
1.19782e-06
-0.00897142
-4.32345e-08
5.68189e-07
-3.45227e-07
-0.0081046
-0.0100045
-1.00216e-07
-1.34443e-07
2.15056e-06
-1.28865e-06
-1.3455e-07
-7.87688e-08
-8.41793e-08
3.66679e-06
-1.56902e-07
-2.04123e-06
-6.76451e-08
-1.13929e-07
-1.01749e-06
-5.74343e-07
-2.84951e-06
-9.91373e-07
-0.00865897
0.000172417
-0.000505409
-1.47838e-07
-2.55705e-08
0.00126579
7.70255e-07
3.20377e-06
0.023961
4.37128e-06
9.02952e-05
0.00203431
-3.09975e-08
0.00379908
0.000166692
-3.08848e-07
-5.67154e-08
-1.3133e-07
-1.33319e-07
0.00372806
6.7649e-05
-2.66535e-08
0.00785343
0.00442259
-0.0037686
-1.41516e-07
-4.36049e-08
-0.00429418
-8.28457e-08
-8.39717e-08
-6.35762e-08
-7.86408e-08
-6.77207e-06
-7.44784e-08
-0.0260293
-0.000315589
2.0902e-07
0.0111968
-1.87419e-07
-0.0474371
0.000177679
-1.08318e-07
-1.05433e-06
-2.52965e-06
1.9619e-07
-0.00357011
0.000448039
-1.49078e-07
-1.18877e-07
5.03606e-06
-5.48975e-08
-0.0596572
-0.00662428
-7.23138e-08
-1.0074e-05
-2.943e-08
-0.00259276
-1.50382e-07
0.00133023
-3.47876e-07
0.00679405
-0.0205272
0.00255488
0.000429805
-6.74204e-08
2.70972e-05
-0.0083246
-3.064e-07
-0.0105601
-2.38002e-07
-1.34815e-08
-5.44354e-08
-1.68361e-06
-1.08214e-06
-1.64956e-07
-6.87301e-08
-2.68181e-07
2.27804e-06
3.58151e-06
0.00556924
4.63467e-06
3.60394e-08
-1.1796e-06
4.17751e-06
-1.14705e-07
2.55605e-06
0.000557913
0.00208622
0.00212062
-4.84128e-07
2.9553e-08
-4.43073e-07
-3.94627e-06
-6.93044e-07
-1.33897e-07
-6.0423e-05
0.00827613
-0.00284987
2.46429e-06
-1.56457e-07
2.74174e-06
0.00430167
-1.29502e-06
-5.49678e-08
-5.89501e-07
-5.34497e-07
2.21118e-06
-4.56429e-08
0.000701814
-1.30278e-07
-0.00574925
-4.4599e-08
0.000614577
-2.60361e-05
0.00949236
1.06764e-07
1.79896e-06
3.40982e-08
-2.81403e-08
6.27762e-06
0.00453821
-7.01585e-08
-1.53636e-07
0.0034708
-4.18547e-09
4.8698e-06
-0.00402996
-1.23038e-06
0.00380847
-6.50204e-08
0.00528004
6.9137e-07
-0.0345678
-2.51667e-08
1.74905e-07
-0.00128875
-5.74647e-08
-0.000947445
-1.13156e-06
-2.05637e-06
0.00940519
-4.76766e-07
-1.24295e-07
-2.11683e-07
-8.98028e-08
0.0127207
-0.00579422
-2.8376e-08
0.00020345
2.8065e-06
0.00655612
-5.93111e-08
-3.79611e-06
0.000847755
-9.74348e-07
7.71802e-07
-1.03127e-07
0.00567515
-1.94556e-08
0.00833869
-2.47322e-08
-1.03881e-06
-7.63976e-07
-1.61987e-07
-5.92359e-08
-5.8579e-07
-3.09859e-07
-6.82052e-08
0.000100056
-2.41724e-08
-2.45953e-06
2.37264e-07
0.000863423
-1.53014e-05
2.05767e-08
-1.93732e-06
-6.56982e-08
-9.3769e-08
-1.12971e-06
0.00264142
-0.000740319
7.59718e-05
-1.81444e-06
-5.05336e-08
-2.00501e-07
-3.41257e-07
-7.18989e-08
-3.26877e-08
-0.0676165
-5.87263e-09
-1.52911e-06
5.02423e-06
1.88558e-07
0.00019013
-1.62725e-07
-5.17673e-08
-0.00639273
0.00678332
-1.68662e-07
1.60999e-06
-4.38661e-08
-0.00245411
-9.73702e-08
-6.12213e-07
0.00113623
8.83917e-07
-0.000635706
2.81936e-05
-1.45961e-07
-3.62574e-07
3.46008e-06
-9.18234e-07
4.3471e-06
-9.71946e-07
0.0149114
-7.50306e-07
5.39138e-06
-2.52868e-06
-4.93281e-05
1.13458e-07
-0.00645451
-0.00727958
0.00713447
0.00164978
9.68097e-07
-1.01804e-07