/*--------------------------------*- C++ -*----------------------------------*\
| =========                 |                                                 |
| \\      /  F ield         | OpenFOAM: The Open Source CFD Toolbox           |
|  \\    /   O peration     | Version:  v2012                                 |
|   \\  /    A nd           | Website:  www.openfoam.com                      |
|    \\/     M anipulation  |                                                 |
\*---------------------------------------------------------------------------*/
FoamFile
{
    version     2.0;
    format      ascii;
    class       volVectorField;
    location    "550";
    object      ddtCorrDdt0(U);
}
// * * * * * * * * * * * * * * * * * * * * * * * * * * * * * * * * * * * * * //

dimensions      [0 1 -2 0 0 0 0];


internalField   nonuniform List<vector> 
9793
(
(-0.00366244 0.0642392 -3.8263e-19)
(0.00377599 0.0985659 2.80876e-19)
(0.00239152 0.0660646 3.25075e-18)
(-0.000145098 1.25275e-05 1.34277e-19)
(0.00136082 -0.00968561 -1.3908e-20)
(0.00292233 -0.00554555 -3.36516e-19)
(1.65336e-06 3.46244e-06 -6.62491e-19)
(0.000368054 0.00025056 1.65596e-19)
(-0.0016561 -0.000129966 -3.85206e-19)
(-0.0424901 -0.000685927 -1.85964e-19)
(-0.033687 -0.0122116 -1.62477e-18)
(0.0507307 -0.0473214 6.15206e-19)
(-0.000145221 9.77225e-06 -6.38907e-20)
(-0.000535135 0.00270154 -2.3585e-19)
(-5.70827e-05 -2.43789e-06 4.68764e-19)
(0.000250627 0.00249921 4.57763e-19)
(-0.00177556 0.00442376 -8.51945e-20)
(-0.00188017 0.00526349 2.79545e-19)
(0.0500994 0.0955237 2.84129e-18)
(-2.24662e-05 0.00285082 1.69745e-20)
(0.0424304 -0.0136448 -1.71912e-20)
(0.00151247 0.007185 1.06707e-18)
(0.0362932 -0.030285 7.94682e-19)
(0.000263492 0.00023966 3.31338e-21)
(-0.003932 0.00452776 -1.71852e-19)
(-0.000142038 1.55187e-05 -6.03284e-21)
(0.00155399 0.00283024 -3.97104e-19)
(-0.00232389 0.00141545 -3.66126e-19)
(-0.0299781 0.0136298 -2.5263e-20)
(-0.00159013 -6.2668e-05 5.77231e-19)
(0.00411078 -0.023604 -3.19774e-18)
(0.0301989 -0.0289584 -6.24187e-19)
(-0.0527869 0.0105394 7.44409e-19)
(-2.01679e-05 8.39556e-06 9.304e-19)
(-0.0321 0.0189754 1.54808e-18)
(0.0510104 -0.015139 -1.36982e-19)
(-1.95397e-05 2.83142e-06 3.53027e-19)
(0.00215618 0.00694555 2.58791e-18)
(0.000849346 0.000489412 1.00357e-19)
(-0.00013608 1.16031e-05 -2.74447e-19)
(0.00174683 -0.0230243 3.20347e-18)
(-8.90119e-05 -3.74833e-06 3.99e-19)
(-0.000146032 1.12014e-05 -8.21321e-20)
(-1.72084e-06 6.78698e-07 6.9582e-19)
(-0.00015205 6.79425e-06 4.48317e-19)
(-0.000141005 9.87708e-06 4.87871e-21)
(-0.0327753 0.014259 -6.7667e-19)
(-0.0333081 -0.0101126 -3.75073e-19)
(-0.0320664 -0.032433 3.7688e-19)
(-0.000145567 1.62689e-05 1.07914e-20)
(-0.0345585 0.0201349 -1.25796e-18)
(-0.0394463 -0.00819782 6.00359e-19)
(0.00507788 -0.00422193 5.93946e-20)
(-0.0012985 0.00130704 -1.64619e-18)
(-0.0966561 0.0124015 1.22224e-18)
(0.0559558 -0.0252806 3.43547e-20)
(-0.000681958 -0.000166634 -1.86698e-18)
(-0.0338089 -0.0350851 -6.38565e-19)
(-0.0416658 0.0560378 4.50965e-19)
(0.000780423 0.000411862 -1.25056e-19)
(-0.000108127 1.09262e-05 -1.32109e-19)
(0.006115 -0.00187776 -2.97475e-21)
(-0.0689305 -0.0111865 5.52787e-19)
(-0.000244226 2.24789e-05 8.51161e-19)
(0.0287532 -0.0209701 1.56249e-18)
(-0.0493212 -0.00344179 -2.60136e-20)
(-0.0598008 -0.00482073 -7.64863e-19)
(-0.0484486 -0.0217132 1.49941e-20)
(0.0396492 -0.0492773 5.12819e-19)
(-0.0335134 -0.00984445 2.96917e-19)
(-0.108635 0.0212089 -3.77619e-19)
(-0.000101018 -8.70485e-06 -4.39412e-21)
(-0.000116347 -0.000281066 -2.7859e-19)
(-0.00500236 0.0422078 -2.26347e-20)
(-0.0360909 0.0248986 3.37921e-19)
(-0.0434269 0.0388977 -3.67495e-19)
(-0.000726012 -0.00011107 -1.51169e-18)
(0.00146246 0.00249925 -2.35183e-21)
(-0.00418129 -0.00403361 1.27196e-18)
(-0.00346732 0.000607444 3.25683e-19)
(-0.0522082 -0.00917409 -5.20908e-19)
(-0.00190573 -0.00507713 -2.75096e-19)
(0.00150155 0.108441 -7.05155e-19)
(-0.0114247 -0.0173334 -6.82304e-19)
(0.00202013 -0.0195966 7.27245e-19)
(-0.0248386 -0.0140521 -9.41341e-19)
(-0.00401653 0.000892121 -2.33789e-19)
(-0.000766075 -4.1691e-05 -2.59146e-18)
(0.0047585 -0.00161589 3.71734e-20)
(0.000212077 -0.00584856 -3.36056e-19)
(-0.00293162 0.106452 1.36786e-18)
(-0.0547819 -0.0783564 8.98369e-19)
(0.000602957 -0.000735888 3.49592e-19)
(0.0250373 -0.0360956 3.10257e-20)
(0.00553538 -0.00144227 -7.69702e-21)
(-0.00842909 -0.0192145 4.46108e-19)
(0.0524877 -0.0261068 3.63121e-20)
(0.000380073 0.110797 -3.43e-19)
(0.000529603 -0.000563112 4.87066e-19)
(-0.00036444 -0.00045858 -4.45502e-19)
(-0.000438321 -0.000403571 -6.12747e-20)
(0.00312303 -0.00353788 5.0242e-19)
(0.000272319 0.000556449 -6.68082e-19)
(0.000183093 0.000494187 2.02184e-19)
(0.00103314 0.00231197 1.56768e-20)
(0.000192565 -0.0185411 -1.10902e-18)
(0.00442022 -0.0011797 -7.54421e-21)
(-0.000130008 -5.92478e-06 -6.15852e-19)
(0.00457078 -0.00353958 -1.31795e-19)
(-0.0489031 0.00700101 -4.46341e-19)
(-9.4452e-05 -5.73087e-06 8.41225e-21)
(0.0414914 -0.0265966 -7.61146e-19)
(-0.000529218 -0.000144739 -1.34009e-18)
(0.0538945 -0.0194843 -1.04189e-18)
(-0.041223 -0.0051557 -1.23208e-18)
(-0.000727705 -0.000149928 6.01156e-19)
(-0.0453756 -0.0057028 4.81412e-20)
(-0.0335551 0.0276281 -5.44003e-19)
(-0.00252708 -0.0058594 7.53293e-19)
(0.0193157 -0.0341973 1.56105e-18)
(-0.0502094 -0.000668249 3.5313e-19)
(-2.22896e-05 -1.47054e-07 2.81527e-20)
(-0.000459782 0.000325608 -1.00393e-18)
(0.002949 -0.0064668 5.5251e-19)
(-0.00238508 0.00232249 1.05209e-17)
(0.0418945 -0.0167203 -4.74813e-19)
(-0.0163289 -0.0133358 -9.66061e-18)
(-0.022058 -0.0184762 -1.26593e-19)
(-0.00514602 -0.00451269 -1.819e-19)
(-7.66883e-06 0.000112571 3.55749e-19)
(-7.93375e-05 -6.4944e-06 -9.89729e-20)
(-0.000776679 -8.69065e-05 2.36454e-18)
(1.87585e-05 0.000104335 1.30553e-19)
(0.0050263 -0.000901848 8.5748e-19)
(-0.00145413 -9.72781e-05 -4.04823e-18)
(-0.000796128 4.59827e-05 -2.75474e-18)
(-0.000266664 1.54333e-05 4.09385e-19)
(-2.90116e-06 -1.94644e-06 2.05142e-20)
(-0.000513374 -0.000131117 -2.01557e-18)
(0.000115291 -2.19939e-05 -7.60071e-19)
(-0.000422351 0.000312213 1.4914e-18)
(-0.00251258 0.00480872 -6.41651e-19)
(-0.000102744 2.87818e-05 -7.72843e-20)
(-0.000962424 -0.000335725 -4.00936e-19)
(-0.000932057 0.00302766 -2.75494e-21)
(-0.00147947 0.00412834 -4.70403e-19)
(0.0122053 0.0397487 7.14645e-20)
(-0.000909854 -0.000453261 -2.77343e-19)
(0.000635031 -0.000171071 5.55105e-19)
(-0.0419691 -0.0937039 -8.64582e-18)
(-0.115523 0.156621 -4.25325e-18)
(-7.46021e-05 -6.72274e-06 3.91412e-20)
(-0.12477 0.144594 -1.26008e-18)
(-0.0779957 0.0248035 -6.47059e-19)
(0.000537886 -9.20738e-05 -4.8845e-19)
(-6.35967e-05 -5.84556e-06 3.79792e-20)
(5.63481e-05 -2.38059e-05 -2.04014e-19)
(-0.00189601 0.00448649 2.37843e-19)
(-0.000678523 -0.000406375 -1.25164e-19)
(-9.83498e-05 2.99103e-05 -1.59476e-20)
(0.00044457 0.000257716 -3.5265e-19)
(-0.00206727 0.00176131 -1.60192e-19)
(0.00155168 0.00153895 -2.1271e-19)
(0.119633 0.0133751 5.13255e-18)
(0.00482187 0.0479355 -6.43338e-20)
(0.0458617 -0.0127396 -3.72536e-20)
(-0.0307494 -0.0154489 -2.24122e-19)
(-0.00663811 0.012029 1.33028e-18)
(0.00160943 0.00235377 2.43208e-20)
(0.00212891 -0.00221953 2.20084e-19)
(-0.00170651 -0.000714394 -2.71234e-19)
(0.039284 0.0103898 -7.03782e-20)
(0.00780963 0.0532577 5.87147e-19)
(0.0373773 0.0096715 6.4619e-19)
(-0.00245553 0.00180616 -1.27659e-18)
(0.103733 0.0406027 -6.71382e-18)
(-0.000811827 -8.14728e-06 6.06106e-19)
(1.93372e-05 0.000216324 -5.21665e-20)
(9.84301e-05 1.72219e-05 4.13708e-20)
(-0.0148349 0.00330929 -2.45704e-18)
(0.252431 -0.0227531 2.49695e-18)
(-0.00463062 -0.000390992 -3.39437e-18)
(-0.000596198 -0.000495934 -3.03939e-19)
(-0.00321116 0.00426482 -3.7724e-20)
(-0.0233239 -0.011237 1.21146e-18)
(-0.000149952 -0.000242842 2.40472e-19)
(-0.0353606 -0.0379025 1.19056e-18)
(6.93689e-05 -2.14871e-05 -2.68526e-19)
(-0.000305965 0.000410909 -3.28037e-19)
(0.00122498 0.00169673 -1.14352e-19)
(-0.00261212 0.00162374 1.23077e-18)
(-0.000384406 -2.11907e-05 1.74142e-19)
(-0.0355454 -0.0269352 1.14099e-18)
(0.0414389 -0.023113 2.86976e-19)
(-0.0578938 -0.0252469 -1.11884e-19)
(-0.0139417 0.00304573 -2.25598e-20)
(0.0270002 0.0932695 -2.81585e-18)
(0.000500166 -0.00283847 3.52712e-19)
(-0.0800003 0.0362849 7.58011e-19)
(0.000107121 -2.21385e-05 8.42467e-19)
(-0.0014029 -4.80664e-05 4.03655e-18)
(0.0917156 0.00977975 -1.00503e-18)
(0.057117 -0.0221623 2.47347e-19)
(-3.54906e-05 0.000160357 8.33162e-20)
(-0.000840435 8.99339e-05 -8.17832e-20)
(0.00108388 0.00174957 1.41756e-19)
(0.0479157 -0.0151559 9.30391e-20)
(-0.0010306 0.00113439 4.19449e-19)
(0.000626387 -0.0159002 -4.08989e-19)
(-0.00421906 0.00319999 -1.29795e-18)
(-0.0177679 0.00950233 2.66181e-19)
(-0.0375434 -0.0206447 -1.72482e-18)
(-0.0313484 -0.0401549 -3.26496e-19)
(-0.0014744 0.00138123 -6.58628e-19)
(-0.00904564 0.109465 1.65896e-18)
(4.82626e-05 -2.56915e-05 -4.91167e-19)
(0.00316568 -0.00140282 -6.57401e-19)
(-0.0269219 -0.0252403 3.89687e-18)
(0.000777828 0.00162227 -1.50229e-19)
(-0.0635906 -0.19853 6.41616e-20)
(-0.0337251 0.0464088 4.11318e-19)
(-0.000610191 0.000166305 1.06374e-18)
(-0.00259169 0.00212912 1.16755e-18)
(-0.000378598 -2.83513e-05 -2.88344e-19)
(-0.0144935 -0.0200148 -5.85082e-20)
(0.104048 0.0122753 -5.63943e-18)
(0.00359606 -0.00495472 -3.12048e-19)
(0.000476708 7.7174e-05 -1.13052e-18)
(-0.0370493 0.0421779 -1.34956e-19)
(-0.0314988 -0.00474561 -2.74749e-19)
(0.000252508 0.00037067 4.83826e-22)
(0.000150651 0.000244293 -1.11473e-20)
(-0.00486023 -0.000590179 -1.92944e-18)
(9.12307e-05 -2.28676e-05 -1.13165e-19)
(-0.0218139 -0.0135988 3.49624e-18)
(-0.0700905 -0.16557 -7.39181e-19)
(-0.000500016 -9.10417e-05 3.56657e-19)
(-0.00129612 -0.000343434 -3.58626e-19)
(0.0504297 -0.030029 1.24063e-19)
(0.00129569 -0.00406352 3.27065e-19)
(-0.000836529 -0.0149346 6.27836e-20)
(-0.00136108 0.0022272 1.98807e-18)
(-0.00124789 9.55173e-05 8.44465e-20)
(-0.0556463 0.00316431 4.5609e-19)
(-0.00102322 -0.000234504 -1.36474e-19)
(0.00055947 -0.000309086 6.41488e-19)
(0.000337147 0.000202629 -2.52386e-19)
(-0.00114542 0.00479446 9.10381e-19)
(0.00064601 -0.00042842 5.73023e-19)
(-1.90505e-05 1.11125e-05 4.01811e-19)
(0.000736001 0.00240539 1.16325e-19)
(-0.0083057 0.00447747 -1.12399e-18)
(-0.0390566 -0.00249049 7.45564e-19)
(-0.018837 -0.0136639 -4.45722e-18)
(-0.000879925 0.000154666 -1.54535e-19)
(0.00507682 0.00741884 2.91006e-19)
(-0.00128061 -0.000818111 -3.38055e-19)
(-0.00887604 0.00496255 4.17748e-18)
(-0.00167936 -0.00722177 3.88428e-19)
(-0.00101612 0.00071562 -1.18745e-19)
(-0.0440894 -0.0228402 -2.1884e-19)
(-0.00109994 -0.000342716 1.57305e-19)
(-0.0401305 0.00076273 6.96498e-19)
(6.46325e-05 9.20729e-06 1.89031e-19)
(-0.00783092 0.0124913 -1.72469e-18)
(0.000612357 0.000853952 8.47812e-20)
(0.000423852 0.000814023 -7.86286e-20)
(-0.0172436 0.0110117 2.39109e-18)
(0.0883562 0.00290695 2.31892e-18)
(0.00349429 -0.0012961 -7.6386e-20)
(-0.00113699 0.000556739 -3.07479e-19)
(0.000637436 0.000633427 -5.80596e-19)
(0.00371308 0.0144716 6.82653e-19)
(-0.000675052 0.000113273 -1.50607e-19)
(-0.00399938 0.0926207 1.63927e-18)
(0.00228454 0.0864072 -1.38955e-18)
(-9.15687e-06 0.000153653 5.55052e-19)
(0.0444023 -0.0219606 3.22947e-20)
(-0.000343842 7.2761e-06 -4.36368e-19)
(-0.0174109 -0.0143942 5.55607e-18)
(-0.000683814 0.0043802 -1.02965e-18)
(0.000212949 0.000547226 7.82832e-20)
(-0.000107461 -7.67445e-06 5.78586e-19)
(-0.000131229 1.48932e-05 3.82707e-19)
(-0.0150504 -0.0136477 1.25916e-17)
(-0.000592542 0.00020676 -3.20525e-18)
(0.000941605 0.00230768 -1.34986e-18)
(-0.00829912 0.00978277 -2.34559e-19)
(-3.97307e-06 1.8931e-05 2.31501e-19)
(-0.000816206 0.000147823 -1.3013e-18)
(-0.000523983 -0.000106551 2.80121e-19)
(-0.0465419 0.000418931 -1.27404e-18)
(0.00340229 -0.00291224 1.07526e-19)
(-1.52401e-05 1.75999e-06 -6.21235e-19)
(-6.58572e-05 -5.18561e-06 7.53412e-20)
(0.00493669 -0.00163994 -5.50599e-19)
(-0.00196702 0.00352719 -1.43669e-18)
(-0.00904776 0.0102816 -5.10935e-19)
(-0.000329149 4.30046e-05 8.94286e-21)
(0.0928192 -0.0278108 2.01853e-17)
(0.000569917 3.74358e-05 1.12808e-18)
(-0.0106755 -0.189792 1.12188e-18)
(-0.0223889 -0.00911091 -5.06361e-19)
(-0.000124335 -3.88532e-06 -1.15557e-19)
(-5.0271e-05 -1.33196e-05 -1.69477e-19)
(-0.00117684 -1.01689e-05 2.927e-19)
(0.00448919 0.0157598 -1.0789e-18)
(-0.00311555 0.0101763 -9.46064e-19)
(0.000286056 0.00404019 6.90132e-19)
(-0.0164965 -0.176527 9.02612e-19)
(-0.000335019 -3.7425e-07 -4.35537e-19)
(-0.00111954 0.000127205 2.91812e-19)
(-0.00262475 0.0108612 5.07155e-19)
(0.00209144 0.0022489 -3.61185e-19)
(-5.47481e-05 0.00160612 1.41434e-18)
(0.000445896 -0.00501908 8.39338e-19)
(-0.0174646 -0.0166536 9.66156e-19)
(-0.00120386 0.00116875 5.33791e-19)
(0.00142829 0.0134654 -2.52434e-18)
(-0.00463093 0.00317875 1.13166e-18)
(-0.000706749 0.00074393 -2.70891e-19)
(-0.00235238 0.0483568 5.42042e-20)
(0.038617 0.118247 2.80647e-18)
(-0.00214661 0.0387415 -6.35808e-20)
(0.000650493 0.00130772 -4.32522e-20)
(0.259561 -0.015906 -1.7732e-18)
(-0.00159417 0.00415603 1.27427e-18)
(-0.0515161 0.0665501 7.60834e-19)
(-0.036576 0.0330223 8.45966e-19)
(0.00118129 0.000891571 2.02165e-19)
(-0.00621119 -0.00239468 8.65888e-19)
(-0.0336876 0.0365059 -6.93118e-19)
(0.00286769 -0.00288039 -2.49982e-18)
(-0.000253895 -0.0127504 4.48597e-19)
(-0.0399652 -0.0139947 4.34595e-19)
(0.000307127 0.000109628 -1.1999e-18)
(-0.000138799 9.36435e-06 2.58018e-19)
(-0.00130325 -4.1956e-05 7.5661e-19)
(1.0987e-05 1.62594e-05 3.98345e-19)
(-0.00276311 0.00141994 6.40783e-19)
(0.0167071 0.0793629 1.11709e-18)
(8.48604e-05 -8.99817e-05 7.7432e-20)
(-0.000662218 0.00060897 8.86745e-19)
(0.0994029 -0.0576033 -1.93352e-17)
(0.00188069 -0.00371684 1.18705e-18)
(0.00069398 0.0024814 3.62e-20)
(0.000788452 0.00110603 3.45498e-20)
(0.000521259 0.00516113 2.39018e-18)
(0.000356391 0.00014433 3.7694e-19)
(0.000877045 0.0964178 1.37277e-18)
(-0.00224505 0.0029114 4.11049e-18)
(-0.000466394 0.000624046 6.94265e-20)
(0.00157183 0.00162852 1.41051e-18)
(0.00254544 -0.00402552 -2.95537e-19)
(0.0620124 -0.0141992 -1.32378e-18)
(-0.00130194 0.00113928 -2.4212e-19)
(0.0203798 0.0033634 4.65305e-20)
(8.26634e-05 0.000276879 -2.08342e-20)
(-0.024676 0.00287168 -8.46919e-19)
(-0.117152 0.00850259 -1.1388e-18)
(-0.0391369 -0.0366478 6.08425e-18)
(-0.0264154 0.00282238 -8.18852e-19)
(0.00081235 0.0047599 -2.00219e-18)
(0.0065899 -0.0010316 -1.42356e-18)
(-0.0195869 0.135789 2.09719e-18)
(-0.000112309 9.93767e-06 4.95108e-19)
(-0.0481898 -0.0332636 3.22913e-18)
(-5.18078e-05 -0.00447177 -1.5056e-18)
(8.66152e-05 -2.32165e-05 3.1283e-19)
(-0.0293973 -0.0121905 2.49065e-18)
(-0.00132906 -0.011842 1.63286e-19)
(-0.044305 0.151873 -4.04867e-18)
(-0.000504602 0.000573742 4.76635e-19)
(-0.0232709 -0.0145676 -3.43319e-18)
(0.0525512 -0.0131225 -1.1339e-18)
(-0.00918138 -0.000340909 9.90238e-20)
(-0.000156406 -0.000153276 -3.53608e-19)
(-0.0485387 0.00791115 8.908e-19)
(-0.0116787 0.000316035 4.40218e-19)
(0.00775293 0.0426938 2.9918e-20)
(0.00434477 0.00788248 4.5254e-19)
(-0.00135428 0.00086226 8.22434e-19)
(-0.012095 -0.0346377 -1.76131e-18)
(-0.000318007 3.78299e-05 3.57841e-19)
(-0.00106119 0.00480246 2.39466e-18)
(7.58506e-05 1.29228e-06 2.96121e-19)
(-0.000132625 6.51334e-06 4.13769e-20)
(0.00102926 0.00296123 -1.94874e-19)
(-0.001427 0.000999982 -7.86798e-19)
(0.0035193 0.00726031 -4.00158e-19)
(0.0567295 -0.0117256 3.22978e-18)
(-0.00224142 0.00129004 -3.70279e-18)
(0.00683946 -0.194774 2.34923e-18)
(0.00165719 -0.0616216 4.39574e-19)
(0.0216944 0.111747 4.81117e-19)
(-0.0300443 -0.00698228 -9.90389e-19)
(0.00206559 0.0296338 -4.71517e-21)
(-7.37659e-05 2.32122e-05 1.83144e-19)
(-0.00127425 -0.000100904 -1.76208e-19)
(-0.205468 0.095463 5.94859e-19)
(-0.00808237 -0.0620509 -1.70394e-19)
(-0.00171135 0.00197675 6.6034e-19)
(-0.00291189 -0.000330687 -5.25276e-18)
(0.0693243 -0.0390128 5.1995e-18)
(0.000764854 0.00055914 7.73608e-19)
(0.0522697 -0.0191125 -2.08491e-19)
(-0.00137964 -0.000482307 4.11701e-19)
(0.00283345 0.00761237 -1.69159e-18)
(0.000736104 0.00044052 4.1387e-19)
(-0.0179606 0.0146017 -1.01099e-18)
(5.16733e-05 -0.000122477 -7.20225e-19)
(-0.0125196 0.000456275 4.97943e-19)
(0.0443824 -0.0188609 1.16068e-19)
(-0.00119514 0.000961394 -4.74527e-19)
(0.0399488 -0.0245436 -6.86195e-19)
(0.0047941 0.0116297 3.83618e-19)
(-0.00230095 0.00330991 2.36653e-18)
(0.0031337 0.0122943 3.84572e-20)
(0.000197696 -0.0038441 1.17761e-18)
(0.00384325 -0.00107779 1.20287e-19)
(-0.00211465 0.0037342 -3.73393e-19)
(0.0622471 0.027213 -6.08817e-18)
(-0.000345841 1.30447e-05 1.09655e-19)
(2.05131e-05 0.00173119 -3.70744e-20)
(-0.0413059 -0.0113187 2.12897e-18)
(-0.00136967 0.000606557 5.55028e-19)
(-0.00274985 -0.00714272 -5.07815e-19)
(-0.00198912 0.00395356 -1.21212e-18)
(0.00151032 0.0012443 3.90606e-19)
(-0.0156502 0.00431691 4.5885e-18)
(-6.7852e-05 3.04262e-05 6.5235e-20)
(0.000240993 0.00176529 -5.487e-19)
(0.000730641 8.73194e-05 9.59596e-19)
(0.0481181 -0.0219491 -9.75094e-20)
(-0.000908739 0.00372017 -1.4132e-19)
(0.0498566 -0.0226244 -3.04646e-19)
(0.00244884 -0.00186335 -7.02099e-19)
(-0.0453353 -0.0130888 8.08678e-20)
(-0.000160473 5.46253e-06 -1.82861e-19)
(0.00226366 -0.0027562 1.70498e-18)
(-3.31632e-05 -6.7813e-06 -5.93696e-21)
(-0.00212685 0.00134138 5.48647e-18)
(-0.0381227 0.0169524 -9.03656e-19)
(3.91147e-05 -0.00293826 -2.98475e-19)
(-0.137292 0.018462 9.6123e-19)
(0.00119376 0.00202064 2.74741e-20)
(-0.00191337 -0.000755387 -7.21496e-20)
(-0.00154455 0.0046352 -4.46111e-19)
(0.0604714 -0.0355337 -3.86587e-19)
(0.00443032 -0.0259858 -1.71132e-18)
(-0.069789 -0.00819058 -3.58263e-18)
(-0.0414033 -0.0157965 -4.91509e-19)
(0.00451653 -0.00508677 2.83705e-19)
(-0.000356386 0.000109656 -6.71939e-19)
(0.0249257 0.00248749 -1.69684e-19)
(-0.0153523 0.00561175 2.09788e-18)
(-0.0159335 0.0144192 1.75545e-18)
(0.00535246 0.0990139 1.00063e-18)
(0.0108836 0.137456 -6.19485e-18)
(-0.000333079 8.40882e-07 -7.19791e-19)
(0.00244901 0.00941804 -3.28389e-19)
(-0.0251472 -0.0133639 -5.67448e-18)
(-0.000438736 0.000392292 6.84702e-19)
(-0.00070628 -0.00595425 4.47364e-20)
(-0.00035742 0.000392162 -1.88591e-19)
(0.000371738 0.000496537 -6.66949e-19)
(-0.000103025 6.15731e-06 -7.29043e-19)
(0.0559279 -0.01506 -2.46456e-18)
(-0.0127506 0.00149243 3.24294e-18)
(-0.0233778 -0.0344835 -1.00622e-18)
(0.000498057 0.000541957 -2.3917e-19)
(0.00642366 0.0156926 -2.48636e-19)
(3.17448e-05 0.000169827 1.86889e-20)
(-9.79297e-06 1.14524e-05 -9.34616e-19)
(-1.33568e-05 -1.12971e-05 6.45153e-20)
(-0.00113395 -0.00519847 1.89179e-19)
(0.0247819 0.000610594 1.19406e-19)
(0.00294129 -0.00186786 -5.64977e-20)
(0.00157466 0.0083115 2.16168e-19)
(0.00105131 0.000241665 -5.94434e-19)
(-0.000241954 3.47613e-05 -7.42427e-19)
(-0.00464009 -0.00783195 -1.79867e-19)
(-0.0468565 -0.00513809 -1.36903e-19)
(-9.15394e-06 2.1562e-05 2.20233e-19)
(-0.000355575 0.00010144 -1.98964e-19)
(-0.0237093 8.71077e-05 2.2365e-18)
(-0.00072878 -0.0101366 1.13524e-18)
(-0.00249447 0.00268894 -8.35476e-19)
(-0.0720393 0.000752332 2.54087e-19)
(-0.0413826 -0.0170772 7.27576e-19)
(8.33962e-05 -3.68409e-07 4.23382e-19)
(5.77709e-05 6.68929e-06 3.48241e-19)
(-0.000963718 0.00531941 -1.98174e-18)
(-0.00347067 -0.00818589 9.85108e-19)
(0.000321025 0.00188481 -3.14013e-19)
(-0.000166538 7.68881e-06 -3.86046e-20)
(-0.000294041 2.3904e-05 9.15558e-20)
(0.000827224 -0.00309567 -3.09059e-19)
(-0.00149236 -0.000905624 -1.36988e-19)
(-0.000979768 9.69955e-05 1.12253e-19)
(0.0154738 0.0298719 -6.02413e-22)
(-0.0444748 0.00110517 -1.75307e-18)
(7.11419e-05 -1.90399e-05 7.54776e-20)
(-0.027671 0.00879208 -4.02521e-18)
(0.00217602 0.0251422 8.17431e-19)
(0.000116691 -0.000537968 -6.74423e-19)
(0.00375765 -0.00233594 2.53624e-20)
(-0.00349183 -0.00451755 6.50238e-19)
(0.0383934 -0.0279834 1.06449e-18)
(2.03818e-05 0.00449527 -6.49453e-19)
(0.0835016 -0.0117005 -2.35829e-18)
(0.00120033 0.00110457 -3.56749e-19)
(-0.00123239 -6.76278e-05 2.73148e-19)
(-0.0347123 -0.00543695 -4.61643e-19)
(-0.000289584 0.000380152 8.19436e-19)
(-0.0204342 -0.00148487 2.31883e-18)
(-0.0303576 -0.00275387 -7.90705e-19)
(0.00204784 0.014644 1.16283e-18)
(-4.94848e-07 -0.000568644 -7.53765e-19)
(0.0295911 -0.181519 2.54735e-18)
(-0.00157653 -0.00933468 -1.5012e-18)
(-0.000705186 -0.000208651 -2.2244e-19)
(-0.00228757 0.000537378 4.93684e-19)
(-0.0185903 -0.0215887 9.09684e-18)
(0.000176503 0.000906676 -4.74569e-19)
(-0.000640491 -0.00014839 1.6757e-19)
(-0.000350371 3.02336e-05 -1.43346e-18)
(0.000127398 0.000830201 -4.12249e-19)
(-0.0505318 0.00127818 1.08342e-18)
(-0.0201297 -0.0146361 -1.29596e-18)
(0.00236325 0.023747 -1.51248e-18)
(0.00378424 -0.00354379 -3.20539e-20)
(-0.00200914 0.000637785 -5.65341e-19)
(-0.000921617 0.00093757 1.06874e-19)
(-0.00106567 0.00071182 -4.46963e-18)
(-8.11142e-05 -8.69995e-06 -7.69674e-20)
(-0.000347128 2.80653e-05 1.5749e-19)
(0.0316239 -0.0267907 1.22477e-18)
(-0.0389298 -0.0384599 1.57034e-18)
(0.000628639 0.000767575 6.43448e-19)
(0.00771553 0.00268021 3.04301e-19)
(-0.202288 0.0746423 -1.952e-19)
(0.000874821 -7.80807e-05 -3.81328e-19)
(-0.0188034 0.00994048 -2.42073e-19)
(0.0215317 0.00490511 -5.13767e-20)
(-8.79638e-05 -8.72892e-06 -1.11853e-20)
(-0.0364298 -0.0131845 1.2276e-18)
(-0.0138458 -0.0360549 7.90438e-19)
(-0.000656727 0.000157609 3.04617e-19)
(-0.0129679 -0.0491248 3.40634e-17)
(0.000116558 0.000609757 -1.11106e-19)
(0.0536526 -0.0222849 4.27269e-19)
(-0.00861751 0.00815033 2.64729e-19)
(-0.0374443 -0.0195573 3.3249e-18)
(-0.000126308 -0.000178618 4.87763e-19)
(-0.00111437 0.000168757 2.83394e-20)
(-0.00249233 0.00380203 3.47428e-19)
(-0.0129894 0.113271 1.99371e-18)
(0.00709703 -0.000503413 1.56994e-18)
(-0.0646245 0.0220323 -5.31739e-19)
(-0.0580587 -0.0133489 -1.34754e-19)
(-0.0237196 -0.0728968 9.52616e-19)
(-0.0217533 -0.00148502 7.00135e-18)
(0.0905806 -0.01954 -9.22472e-19)
(-0.0147513 0.0160947 -3.47385e-19)
(-7.66779e-05 -3.32049e-06 -4.02391e-19)
(-0.0162434 -0.00384314 -7.50315e-19)
(0.00722831 0.001915 -2.59127e-20)
(-0.0501022 0.00438159 3.05847e-18)
(-0.000854034 0.00149208 4.60493e-18)
(-0.0481199 -0.0112101 -6.5119e-20)
(0.000720071 -0.000488713 1.28222e-19)
(-0.0275279 0.0302695 6.4029e-19)
(-0.000115194 -8.44844e-06 -5.10594e-19)
(-0.00332793 -0.000835092 -8.49667e-18)
(-0.000867208 0.000766851 -1.82813e-19)
(-0.020632 -0.0540228 -4.07288e-18)
(0.000981139 -0.000245604 4.02213e-19)
(8.61283e-05 8.49731e-06 1.45085e-19)
(-0.00474291 0.000675143 -3.84086e-18)
(-0.00452954 0.00434678 -2.63526e-18)
(-0.013678 0.00162948 -9.08209e-20)
(-5.26576e-05 -0.000249806 -2.0776e-19)
(-0.000256127 0.000298617 -9.30976e-20)
(0.000756769 2.33829e-05 7.41621e-19)
(0.000640073 -2.78829e-05 -9.38176e-19)
(-0.0159933 0.162179 1.55766e-17)
(-0.000148682 1.46259e-05 -1.47927e-19)
(0.00575255 0.144984 8.88927e-18)
(0.0535197 -0.0237618 6.86453e-19)
(-0.000147334 1.43391e-05 1.11485e-19)
(-0.000125007 -6.93266e-06 -1.21461e-18)
(0.00708356 0.0167143 -9.37355e-19)
(-0.00295717 -0.000135706 -6.74322e-19)
(-0.000384917 0.000337001 4.25857e-19)
(0.00146801 0.00232523 1.46749e-18)
(-0.0090728 -0.00157384 2.91937e-19)
(-0.00917844 0.00763569 1.2028e-18)
(-0.00427036 -0.00101394 1.54714e-18)
(-0.00483691 0.00412274 2.45125e-19)
(-0.000401488 -0.000119051 4.57823e-19)
(-0.00345362 -0.00548459 -1.33752e-19)
(0.000510896 0.0042575 4.08195e-19)
(-0.00857902 0.00602865 -1.05459e-18)
(0.00198607 0.00195607 -8.23612e-19)
(0.000652262 0.00561704 1.67616e-18)
(0.0108025 0.232961 2.80354e-18)
(0.000548635 0.00052751 1.25739e-18)
(0.0702621 0.032074 4.38021e-18)
(-0.010636 -0.000716279 7.92973e-18)
(-2.89967e-06 5.65963e-06 9.72002e-20)
(-0.000264545 0.000322286 -5.00304e-20)
(0.000390567 -0.000131479 -5.81084e-19)
(0.0058713 -0.00390599 -1.39901e-18)
(0.00698116 -0.00385942 1.32577e-18)
(-0.00106669 -0.000110518 -7.05382e-20)
(0.00267045 -0.00110748 2.06791e-18)
(7.36109e-05 9.68101e-05 -2.83513e-21)
(-0.00112753 0.000952611 -3.83371e-19)
(0.00248164 -0.00148604 -1.56386e-18)
(-0.000258873 9.60263e-05 7.92765e-19)
(0.00566123 0.00596514 1.66261e-19)
(0.000127872 -5.16495e-05 9.70469e-19)
(-0.00343834 -0.000633499 2.38708e-18)
(-5.37096e-05 7.44116e-06 -4.65866e-19)
(-0.00144609 0.000719592 -1.15515e-18)
(0.0055048 0.00516425 -4.24519e-19)
(-0.00451506 -0.00104952 8.17035e-18)
(-0.0174497 -0.00400132 -5.97204e-18)
(-6.21492e-05 -8.37831e-06 4.01693e-19)
(-0.000677785 -2.28572e-05 1.52443e-19)
(-0.000301614 0.00030972 5.21514e-19)
(-0.000459637 -0.000246852 -8.37399e-19)
(0.000281371 -0.00157572 -2.6364e-19)
(6.41627e-05 -1.414e-05 -1.74638e-19)
(0.000476752 -0.0017642 8.27475e-19)
(-0.000544081 0.000585022 -3.69794e-19)
(0.000512492 0.000602948 -3.08223e-19)
(0.000933237 -0.000372644 -8.23517e-19)
(-0.0214458 0.0105433 3.73984e-18)
(-8.12874e-05 2.24917e-05 4.55308e-20)
(-8.78757e-05 -9.87068e-06 -3.86749e-19)
(-0.000522463 0.000302103 1.68865e-18)
(-0.0560457 -0.0013842 -8.29269e-19)
(-0.000158756 3.07394e-05 -4.83855e-20)
(0.000820401 0.000349703 1.84589e-19)
(-0.0306248 -0.0138618 3.7306e-18)
(-1.05447e-05 0.000543809 1.50257e-19)
(-0.00205508 -0.00288612 4.39197e-20)
(-0.0328227 -0.0591349 7.30723e-19)
(-0.00445299 0.00390759 1.20916e-18)
(-0.000133735 8.74457e-06 7.4191e-21)
(-2.24487e-05 -1.18653e-05 -1.57483e-19)
(-0.0302867 -0.0353627 -8.16649e-19)
(0.000411413 -6.55658e-05 1.21824e-18)
(-0.0268199 -0.0144312 1.37494e-18)
(-0.0192276 -0.0506354 -6.56412e-19)
(-0.0225012 0.0275325 -4.69105e-18)
(-0.0394789 -0.0118389 -6.51244e-20)
(-0.0017299 -0.00263366 1.48006e-19)
(-0.000519904 0.00039888 6.46631e-19)
(-0.00765052 0.11093 8.50122e-19)
(0.00279985 0.00440569 -2.03004e-19)
(0.000807793 0.000157054 -7.36682e-19)
(0.0052294 0.0332416 -1.59566e-21)
(-0.0424277 -0.0154953 -9.11843e-20)
(-0.166762 0.0324477 -1.28056e-18)
(-0.0003189 0.000333856 -5.9174e-19)
(-0.0198326 -0.0232251 -4.62141e-18)
(-0.000541939 0.000354777 -9.17547e-19)
(-0.00049263 0.000290829 -1.16955e-18)
(0.0512983 -0.0201197 3.03454e-18)
(-0.000271006 9.62948e-05 -1.35159e-18)
(0.0373732 -0.00431227 -7.77856e-21)
(-0.00147005 -0.0059299 -1.4273e-18)
(-0.0454848 0.00510825 -7.82203e-19)
(-0.000618259 2.29638e-05 -9.04329e-20)
(-0.00350933 0.00755949 -1.19375e-18)
(0.000696299 0.00389919 7.14939e-19)
(-0.0155061 -0.0520598 -1.78872e-17)
(-0.00721974 -0.342778 -8.73351e-18)
(-0.00164972 -0.00050796 1.91201e-19)
(-0.000890664 -0.00525106 6.44576e-19)
(-0.0111742 -0.00481561 2.99499e-18)
(-0.000519649 0.000479743 2.0043e-19)
(-0.00106326 -0.00802925 -2.37647e-19)
(-0.0287879 -0.0128047 -3.6265e-18)
(0.209995 -0.0213659 -5.65215e-19)
(-0.000203634 -0.000172472 -2.10532e-19)
(-0.0181809 0.0135185 1.55311e-19)
(0.00222636 0.00473761 -2.39064e-19)
(-0.0415578 0.0513488 -3.56351e-18)
(-0.0152422 0.0143478 -8.69355e-20)
(-0.0416809 -0.000620489 -1.7233e-18)
(0.010837 0.0678584 -6.82759e-20)
(-0.00382205 -0.000868016 4.85991e-19)
(0.00975563 -0.0117922 -6.59413e-19)
(-0.000525802 -0.207405 -5.31473e-19)
(-0.000161314 2.15097e-05 5.1091e-19)
(-0.00023635 0.000108716 4.10484e-20)
(-0.000125486 -2.31902e-07 5.07987e-20)
(-0.00569647 -0.00209313 -1.75297e-19)
(0.000856071 -0.000160577 5.95818e-19)
(0.060231 -0.0155699 1.12717e-19)
(0.000744891 -3.35191e-06 -4.60058e-19)
(0.018331 0.144759 -6.11576e-18)
(-0.00600234 -0.00199335 1.25606e-18)
(-0.0182917 -0.0286375 -6.95023e-19)
(-0.0358946 -0.00797123 -9.10029e-19)
(-0.00117378 0.000725008 3.02229e-18)
(-0.0756398 0.00186522 -7.64083e-19)
(0.0333512 -0.0249646 2.18621e-19)
(-0.00207699 0.00222922 -1.15807e-17)
(-0.0212731 -0.0294797 6.37126e-18)
(0.00963674 -0.0104215 7.82799e-19)
(-0.0243801 -0.0284669 -7.30835e-19)
(0.000870296 -5.00285e-05 1.05435e-19)
(-6.00152e-06 0.000474021 5.33625e-21)
(-0.0266961 0.00733938 4.48188e-18)
(0.000625235 -0.000917404 6.5135e-20)
(0.0128118 -0.301827 1.88329e-18)
(-8.78727e-05 3.76556e-05 -5.69474e-20)
(0.0126156 0.0928771 3.73614e-19)
(-0.000461589 0.000555198 6.36734e-19)
(-0.0391383 -0.0103098 8.41721e-20)
(-0.0263437 0.0212997 -8.33834e-18)
(-0.00393923 -0.000388191 -2.19633e-19)
(0.0853091 -0.138236 7.54132e-18)
(-0.000334808 4.21674e-06 3.32469e-19)
(-0.00505338 0.000518073 -2.05279e-19)
(-0.0233236 0.000979471 1.34833e-17)
(0.043917 -0.0203278 1.48856e-18)
(0.0443835 -0.0242363 -4.62697e-19)
(-0.000440695 -0.00187465 -4.23672e-19)
(-0.000460067 0.000692007 -3.69307e-19)
(0.000982444 0.000371392 -7.05616e-19)
(-0.0215837 0.00162188 -1.36651e-18)
(0.089602 -0.0648144 -3.8334e-18)
(-0.000313302 1.52626e-05 -4.67121e-19)
(0.00649182 -0.00768944 -4.61619e-19)
(-0.0215604 0.00837195 1.92179e-19)
(0.000957364 0.000140461 6.31309e-19)
(-0.000265436 -3.47846e-05 -8.31493e-20)
(0.00560712 -0.000606514 -9.10512e-19)
(0.038338 -0.00169857 3.48547e-20)
(-0.0139087 0.00177418 -3.2071e-19)
(0.000869553 -0.00118338 -4.19191e-19)
(1.52594e-05 1.8207e-05 -5.6361e-19)
(0.000632707 0.00028316 -3.57507e-20)
(-0.0428162 -0.0173858 -2.31928e-20)
(-0.185893 0.0553579 1.87624e-19)
(0.00898818 0.0218053 5.35315e-20)
(-0.000535132 -0.000242925 2.80359e-21)
(-0.000135808 2.47629e-05 1.74768e-20)
(-0.0635392 0.00975533 6.85448e-19)
(-0.000247293 0.000111083 -8.39346e-19)
(-0.028989 -0.0307624 -5.89584e-18)
(-0.0295993 0.010244 -3.00516e-19)
(0.0189755 0.146768 1.59458e-17)
(-0.0508487 0.0153828 3.36189e-19)
(0.00942491 0.0857379 2.62941e-18)
(0.000129037 0.00057125 -4.81228e-19)
(-0.00124911 0.000613741 -1.96838e-18)
(-0.00750896 0.00206402 4.60678e-18)
(-0.00418803 0.000665193 -4.03947e-18)
(-0.00910088 0.00647153 -3.18997e-18)
(-0.000311376 5.79189e-05 -1.22284e-18)
(-0.0217943 -0.0226682 -5.55329e-18)
(-0.0112906 0.113063 8.09275e-19)
(-9.80085e-05 0.000517232 -2.53054e-18)
(0.033572 -0.0164244 2.00826e-19)
(0.000599132 0.000223701 1.34292e-19)
(0.0400751 -0.0181699 -1.14468e-19)
(-0.00204075 8.22806e-05 -1.12572e-18)
(-0.0522694 0.0361777 8.44259e-19)
(0.00846112 0.00579106 2.74245e-19)
(-0.0105594 0.00064726 4.35981e-19)
(-0.000331656 -0.000344796 -1.1697e-19)
(-0.0029035 -0.00386392 6.7179e-19)
(-0.00358251 0.0166034 -6.11653e-19)