/*--------------------------------*- C++ -*----------------------------------*\
| =========                 |                                                 |
| \\      /  F ield         | OpenFOAM: The Open Source CFD Toolbox           |
|  \\    /   O peration     | Version:  v2012                                 |
|   \\  /    A nd           | Website:  www.openfoam.com                      |
|    \\/     M anipulation  |                                                 |
\*---------------------------------------------------------------------------*/
FoamFile
{
    version     2.0;
    format      ascii;
    class       volVectorField;
    location    "550";
    object      U_0;
}
// * * * * * * * * * * * * * * * * * * * * * * * * * * * * * * * * * * * * * //

dimensions      [0 1 -1 0 0 0 0];


internalField   nonuniform List<vector> 
9793
(
(1.13221 -0.0187869 1.24559e-21)
(1.01068 -0.0379862 1.72018e-22)
(1.13586 -0.0289974 4.52313e-21)
(1.01566 -0.00113606 6.00627e-22)
(0.53073 0.288277 2.44561e-21)
(1.00613 -0.0154205 -7.90798e-22)
(1.0106 -0.000373673 0)
(1.01399 -0.00255304 1.06786e-21)
(1.03286 0.00173008 -9.79985e-22)
(0.540688 0.270351 -5.16712e-21)
(1.04128 0.00689497 6.72145e-22)
(0.860403 -0.0538085 -4.57305e-22)
(1.01552 -0.00105247 -7.1272e-22)
(1.02186 0.0012399 -1.95413e-22)
(1.0028 -3.3734e-05 0)
(1.02117 -0.000208356 0)
(1.02436 0.00434625 -7.8338e-22)
(1.02643 0.00470401 7.58784e-22)
(1.17281 -0.220204 -2.22137e-20)
(1.02217 0.000252403 1.90344e-22)
(0.974545 -0.120641 3.23924e-22)
(1.04221 -0.0197193 5.04552e-21)
(0.924877 -0.0576616 1.54085e-21)
(1.01809 0.00291892 0)
(1.02597 0.00338049 0)
(1.01552 -0.000832897 2.26375e-22)
(1.02197 -0.00278191 3.10035e-23)
(1.01762 0.00487519 1.55984e-21)
(1.0661 0.0119316 0)
(1.0324 0.00140388 -8.58149e-22)
(0.965838 -0.0136182 0)
(0.933145 -0.0474849 -1.25715e-21)
(0.909323 0.185709 5.77532e-21)
(1.00765 3.50895e-05 1.48903e-21)
(1.0725 0.0148467 2.98136e-21)
(0.971133 -0.156867 0)
(1.00856 -5.79464e-05 -3.31839e-23)
(1.04098 -0.0207595 0)
(1.01498 -0.003911 -1.32909e-21)
(1.0107 9.43711e-06 -1.3447e-21)
(0.96761 -0.00861231 -6.78499e-22)
(1.00472 -5.82014e-05 1.17198e-21)
(1.01423 -0.000559416 5.9305e-22)
(1.01018 -0.000303578 6.8973e-22)
(1.01364 -0.000504385 4.02889e-23)
(1.0151 -0.000684293 4.9931e-23)
(1.06716 0.0145572 -1.57272e-21)
(0.978324 0.0743632 1.52361e-22)
(0.915467 0.0971634 3.39068e-21)
(1.0156 -0.00122936 0)
(1.07375 0.0174459 -5.6786e-22)
(1.04171 0.0149804 -2.12166e-22)
(1.00923 -0.0211268 4.50257e-22)
(1.03337 -0.00410491 0)
(1.01647 0.0862495 0)
(0.891573 -0.157401 0)
(1.02458 0.00188941 0)
(1.01395 -0.0134408 0)
(0.881912 0.262203 -8.59384e-21)
(1.0147 -0.00366683 2.29633e-21)
(1.0092 -3.81089e-05 0)
(1.01485 -0.0242884 -3.84785e-24)
(0.857759 0.18324 -2.91509e-21)
(1.01754 -0.000462171 -1.29841e-21)
(0.497815 0.299169 -4.86854e-21)
(0.910158 0.13622 0)
(0.873582 0.172823 2.26482e-21)
(0.885824 0.143147 -3.84004e-22)
(0.871095 -0.0393923 0)
(1.04346 0.00779761 0)
(1.03319 0.090468 0)
(1.01302 0.000397739 0)
(1.01721 -0.00487707 0)
(1.05475 0.015142 0)
(1.0795 0.0202549 0)
(0.884811 0.242025 4.08965e-22)
(1.02516 0.00143438 3.49137e-21)
(1.02366 0.00319682 -6.03571e-23)
(1.00664 0.00729972 3.66248e-21)
(1.01589 0.00674024 1.64561e-21)
(0.894639 0.135017 0)
(1.00407 0.0022922 -1.1203e-21)
(0.969497 -0.0663174 0)
(0.981479 0.0308819 -2.18658e-21)
(0.975151 -0.0101813 3.5254e-22)
(0.975647 0.0585773 -2.13094e-21)
(1.01677 0.00790751 -1.63864e-21)
(1.02573 0.000933946 0)
(1.01573 -0.0206662 2.75815e-22)
(1.00227 -0.00241734 -2.16212e-21)
(1.0127 -0.00421739 -1.9013e-22)
(0.451807 0.141158 1.13904e-20)
(1.0129 -0.000710663 -5.46255e-22)
(0.921692 -0.0342312 0)
(1.01615 -0.0228655 0)
(0.977366 0.0249161 -2.51572e-21)
(0.905499 -0.148257 8.24152e-23)
(0.981846 -0.0436429 -2.22181e-21)
(1.01306 -0.000598165 -1.12119e-21)
(1.01323 0.000897015 -1.93541e-21)
(1.01337 0.00100962 1.75118e-21)
(1.00692 -0.00879542 0)
(1.01463 -7.14367e-05 -9.99312e-22)
(1.01435 5.31528e-05 -9.82548e-22)
(1.02321 0.0037253 1.73696e-23)
(0.977668 -0.00641322 -3.23564e-22)
(1.01709 -0.0197845 -5.64905e-22)
(1.00917 -8.38133e-05 -7.38792e-22)
(1.01097 -0.0198806 2.71783e-22)
(1.00781 0.111858 0)
(1.01207 0.000256618 0)
(0.929571 -0.104884 0)
(1.02274 0.00163406 0)
(0.911504 -0.190578 0)
(1.04427 0.0181964 2.18382e-22)
(1.02513 0.00177372 0)
(0.947209 0.170659 -4.1775e-21)
(1.08306 0.0168961 0)
(1.00266 0.0036034 0)
(0.930018 -0.0236614 2.33423e-21)
(0.993197 0.117256 0)
(1.00598 9.48977e-05 0)
(1.02409 -0.00208739 0)
(1.00396 -0.0153843 9.76896e-22)
(1.03902 -0.0055307 1.47107e-20)
(0.963494 -0.117572 -7.01445e-23)
(1.05329 -0.00579701 -1.60541e-20)
(0.968193 0.0536449 -2.33263e-21)
(1.00594 0.00929261 -1.23284e-21)
(1.01896 -0.00427024 0)
(1.01102 0.000232664 0)
(1.02575 0.00128072 -4.07207e-21)
(1.01899 -0.00444889 0)
(1.01278 -0.0130597 0)
(1.03161 0.00168617 9.43422e-22)
(1.02623 0.000392821 -3.85278e-21)
(1.01682 -0.000344612 0)
(1.01033 -0.000291868 -2.76696e-22)
(1.0224 0.00146825 6.2315e-22)
(1.01264 0.000140128 -1.16574e-21)
(1.02364 -0.00206986 -2.79599e-21)
(1.02644 0.000876868 -7.44819e-22)
(1.01371 -0.000695403 -3.7154e-22)
(1.01412 0.00206185 9.83588e-22)
(1.02279 0.00200093 0)
(1.02544 0.00292117 1.54846e-21)
(1.05137 -0.0305152 0)
(1.01389 0.00194877 8.60888e-22)
(1.01356 -0.000758106 0)
(0.426389 0.117169 5.47767e-21)
(0.704167 0.231573 -3.36218e-20)
(1.01055 0.000196675 0)
(0.702439 0.229906 2.77645e-20)
(0.587167 0.251006 0)
(1.01357 -0.000594679 0)
(1.00893 0.000237196 -9.69507e-23)
(1.01111 0.00013541 -9.58824e-22)
(1.02561 -8.89946e-05 -4.94807e-22)
(1.01367 0.00150133 -1.59079e-21)
(1.01368 -0.000683979 5.25006e-23)
(1.01404 -0.00274186 -6.72681e-22)
(1.01831 0.00441526 -1.69167e-21)
(1.01851 -0.00269577 -1.28478e-21)
(1.13238 -0.219162 0)
(1.05647 -0.00821668 2.65587e-22)
(0.977794 -0.133344 -2.15267e-22)
(0.968109 0.0700526 1.66633e-21)
(1.05839 -0.0117695 1.15635e-21)
(1.02074 -0.00283927 -1.44331e-21)
(1.00949 -0.00659108 -1.91465e-21)
(1.01568 -0.00197717 0)
(0.903293 -0.219323 -5.6589e-21)
(1.05623 -0.0141399 -4.09848e-22)
(0.912185 -0.212118 5.59149e-21)
(1.0384 -0.00423012 0)
(1.15942 -0.212599 2.50009e-20)
(1.02627 0.000753856 0)
(1.0172 0.00285669 0)
(1.01883 -0.00524385 9.76968e-22)
(1.05613 -0.000601067 -9.99793e-21)
(0.515418 -0.202149 0)
(1.04448 0.00114851 -1.09042e-21)
(1.01346 0.00136782 -3.37932e-21)
(1.0254 0.00211123 -1.31309e-21)
(0.909686 0.244548 0)
(1.01713 -0.00456803 0)
(1.00711 -0.0137555 0)
(1.01853 -0.00516376 0)
(1.02353 -0.0029946 2.5094e-21)
(1.01888 -0.00206831 -1.70564e-21)
(1.03869 -0.0036271 -7.93299e-21)
(1.01994 0.00014416 0)
(0.920634 0.107105 1.43068e-21)
(0.940935 -0.110053 0)
(0.870606 0.149432 2.22693e-22)
(1.05553 -0.000952306 -9.134e-21)
(1.19581 -0.0471586 0)
(1.00817 -0.00293326 0)
(0.600949 0.261444 0)
(1.01247 0.000155134 5.34064e-22)
(1.03122 0.00140805 -2.05708e-21)
(1.08935 -0.197259 7.87747e-21)
(0.892719 -0.171683 1.32522e-21)
(1.01922 -0.00395363 0)
(1.02679 0.000166702 -4.68122e-21)
(1.02216 0.00338443 0)
(0.968486 -0.143117 0)
(1.0178 0.00221085 0)
(0.983642 -0.00831188 -4.3667e-21)
(1.04456 -0.00564858 0)
(1.06131 -3.41598e-05 6.67726e-21)
(0.946166 0.103378 3.22919e-22)
(0.891806 0.097166 2.22e-21)
(1.03409 -0.00407938 0)
(1.20684 -0.0517497 -1.37333e-20)
(1.01132 0.000165097 -9.11806e-22)
(1.01137 -0.00891173 -2.03461e-21)
(0.916477 0.239476 -9.31491e-22)
(1.02168 0.00375841 0)
(0.747191 0.110448 4.875e-21)
(1.10552 0.0156928 0)
(1.02468 -0.000722439 -9.57039e-23)
(1.03927 -0.0048458 0)
(1.01978 0.000181366 0)
(0.97201 0.0385924 0)
(1.11125 -0.203773 0)
(1.0074 -0.0172093 0)
(1.0137 -0.000488263 -9.48282e-22)
(1.09994 0.0208246 0)
(1.04883 0.00859313 7.60577e-21)
(1.01827 0.00311477 4.57737e-23)
(1.01774 0.00289875 4.19815e-23)
(1.04514 0.00137683 5.12936e-21)
(1.01214 0.000153754 0)
(1.0485 -0.00380666 0)
(0.763045 0.118152 0)
(1.02215 0.00101804 2.81591e-21)
(1.01615 -0.002373 -7.04169e-22)
(0.904455 -0.13438 5.165e-22)
(1.0058 -0.00479793 1.9317e-21)
(0.98595 -0.00531018 5.70316e-21)
(1.02095 0.00281709 2.09844e-22)
(1.0167 -0.00196774 0)
(0.902434 0.169789 0)
(1.01623 -0.00263885 2.37298e-22)
(1.01335 -0.000638096 0)
(1.01376 -0.00239794 -9.99737e-22)
(1.02614 -0.00144239 2.3333e-21)
(1.01327 -0.000791449 1.0136e-21)
(1.00869 3.02496e-05 0)
(1.03073 -0.01159 2.25722e-21)
(1.05184 -0.00462557 0)
(1.04836 0.0171115 6.72192e-21)
(1.05115 -0.00531422 1.39639e-20)
(1.0165 -0.00227131 -4.21618e-22)
(1.03957 -0.0272925 1.21168e-21)
(1.01551 -0.00294958 6.00062e-22)
(1.05273 -0.00465069 0)
(1.00259 -0.00454036 3.79043e-21)
(1.01669 0.00222439 -1.5931e-21)
(0.91026 0.22506 -7.0678e-21)
(1.01614 -0.00268792 0)
(1.05147 0.0196117 -2.05239e-21)
(1.00879 -1.98344e-05 -1.92996e-22)
(1.05965 -0.0108479 8.40617e-21)
(1.01983 0.0034289 5.93176e-24)
(1.0195 0.00356633 0)
(1.06265 -0.000935471 0)
(1.07492 -0.206077 -1.10023e-20)
(1.01674 -0.0174417 -2.1272e-22)
(1.01638 0.00243957 0)
(1.01561 -0.000805542 7.59523e-22)
(1.05527 -0.0292468 0)
(1.02515 -0.000261095 0)
(1.03562 0.0115732 -1.46097e-21)
(1.04041 -0.00929939 8.54908e-22)
(1.01924 -0.00418164 1.4953e-21)
(0.941397 -0.122682 8.40903e-22)
(1.01932 -0.000228709 0)
(1.05207 -0.00666577 3.00319e-20)
(1.02518 -0.00222167 -1.83232e-21)
(1.0186 0.00342689 0)
(1.00761 -6.48832e-05 0)
(1.01086 2.56344e-06 1.44286e-21)
(1.05451 -0.00661082 2.81623e-20)
(1.02464 -0.000952561 -2.02052e-21)
(1.03002 -0.0120089 3.90346e-21)
(1.05672 -0.00849338 0)
(1.01236 -0.000543777 0)
(1.02675 -0.000204914 -4.53949e-21)
(1.02249 0.00118965 -3.65233e-21)
(0.933908 0.168606 -2.06596e-21)
(1.01249 -0.0168677 2.02546e-22)
(1.00854 -0.000202855 3.2507e-23)
(1.0103 0.000178651 0)
(1.01117 -0.0127723 -1.05089e-21)
(1.03998 -0.00850029 -2.74632e-21)
(1.05801 -0.00819388 0)
(1.01909 -0.00057848 -1.37868e-21)
(1.03176 -0.332358 1.82546e-20)
(1.01377 -0.000644381 0)
(0.819714 0.0654145 2.22589e-20)
(0.948867 0.22904 5.40266e-21)
(1.00758 3.70106e-05 -3.72569e-22)
(1.00928 -0.000225093 8.15988e-23)
(1.01511 0.0025292 0)
(1.05709 -0.0309416 0)
(1.05283 -0.0152372 0)
(1.02426 -0.00392621 0)
(0.828055 0.112503 -1.26445e-20)
(1.01886 -0.000240819 2.94948e-21)
(1.01533 0.00240618 2.67042e-21)
(1.05317 -0.0162958 1.89434e-21)
(1.02838 -0.0151877 -2.76449e-21)
(1.02955 -0.00773368 -5.47905e-21)
(1.00395 -0.00287148 3.50578e-21)
(0.977476 0.0442153 4.76541e-21)
(1.0185 -0.00147986 -1.63601e-22)
(1.05446 -0.0248828 -2.47049e-21)
(1.04532 -0.00526434 0)
(1.01725 -0.00209889 5.4104e-22)
(1.05763 0.0114132 0)
(1.20884 -0.119709 8.45412e-21)
(1.05423 0.00573745 3.31092e-24)
(1.02077 0.00369275 7.41446e-23)
(0.622591 -0.179942 0)
(1.04039 -0.0101639 2.53296e-21)
(0.869438 0.277959 -1.47678e-21)
(1.08878 0.021233 0)
(1.0166 -0.00190412 -3.93312e-22)
(1.04951 0.00279237 -3.42103e-22)
(1.09345 0.0173259 -7.02825e-22)
(1.00823 -0.00822886 -1.81301e-21)
(0.990598 -0.00706337 2.56525e-21)
(1.03574 0.0118269 -1.93654e-21)
(1.01334 -0.00220178 -1.13339e-21)
(1.01408 -0.000543595 0)
(1.03053 0.0014486 -3.63006e-21)
(1.01016 3.14442e-05 3.20783e-21)
(1.01756 0.00571719 -2.68417e-21)
(1.16784 -0.0229644 3.19615e-21)
(1.01838 -0.00540726 0)
(1.01694 -0.00215763 -4.94339e-22)
(1.01307 -0.330524 -8.4686e-21)
(1.00644 -0.00607919 -3.94983e-21)
(1.02112 -0.00104577 -1.51467e-21)
(1.02056 0.00346442 -1.4107e-22)
(1.03889 -0.0155459 6.32528e-21)
(1.01354 -0.00238941 -9.96039e-22)
(1.19185 -0.0236544 0)
(1.03955 -0.00696151 0)
(1.02621 -0.0032945 0)
(1.02667 -0.0128543 -2.61708e-21)
(1.00592 -0.00760668 2.16657e-21)
(0.87138 -0.175669 0)
(1.03278 -0.00361333 -5.53449e-21)
(1.02412 -0.060648 0)
(1.01757 0.00299428 -1.76509e-22)
(1.05707 0.00593544 -3.2662e-22)
(0.92837 0.0950348 0)
(1.00567 -0.00524006 0)
(1.05666 0.0071102 -5.10307e-21)
(1.03753 -0.0154395 -4.15628e-21)
(1.01285 -0.0165438 1.68815e-21)
(1.20691 -0.0693795 1.51048e-20)
(1.00891 -3.81113e-05 0)
(0.901597 0.210824 7.04234e-21)
(1.0051 -0.00175901 -1.15764e-21)
(1.01197 0.000183709 3.29155e-22)
(0.958283 0.223483 1.24899e-21)
(0.992659 -0.00479176 -3.74952e-21)
(1.19777 -0.119994 -1.20331e-20)
(1.02625 -0.00309322 1.14064e-21)
(1.04664 -0.00391949 6.22284e-21)
(0.982545 -0.161509 -2.16986e-21)
(1.01728 0.0126434 1.68845e-21)
(1.01714 -0.00414487 -9.21793e-22)
(0.924238 0.184363 6.23381e-21)
(1.05349 -0.000787599 9.80648e-21)
(1.05418 -0.0169272 1.50505e-22)
(1.04116 -0.0260283 -3.4244e-21)
(1.03235 -0.00257568 0)
(0.925694 0.271479 -9.10948e-21)
(1.019 -0.000535027 0)
(1.04074 -0.0120454 3.17039e-21)
(1.00755 9.89352e-06 1.17042e-21)
(1.00987 -2.49975e-05 -6.34961e-22)
(1.0223 -0.00176625 1.46793e-21)
(1.033 -0.00302719 0)
(1.0404 -0.0238613 3.3546e-21)
(0.874004 -0.187549 0)
(1.03693 -0.00301551 0)
(0.161246 -0.0473092 -1.88684e-21)
(0.883884 0.013193 9.2435e-22)
(1.2086 -0.0876315 -8.37099e-21)
(1.04779 0.00629575 -1.66643e-21)
(1.052 -0.00745997 0)
(1.0108 5.4628e-06 0)
(1.03023 0.00165431 2.2086e-21)
(0.992027 0.0898589 -3.29727e-22)
(0.883051 0.0319064 1.16859e-22)
(1.0204 0.00351075 -2.18225e-22)
(1.03909 0.00201086 0)
(0.983751 -0.257481 9.23642e-21)
(1.01544 -0.00101486 0)
(0.924272 -0.19796 0)
(1.01598 -0.00240144 1.23838e-21)
(1.04176 -0.0227061 0)
(1.01502 -0.000927509 0)
(1.06622 -0.000871922 0)
(1.01813 -0.00527907 4.60676e-22)
(1.05387 -0.000657948 -7.14492e-21)
(0.953409 -0.126979 0)
(1.01745 0.00254226 1.85119e-21)
(0.933987 -0.0705771 0)
(1.0405 -0.0123301 0)
(1.04036 -0.00765626 -9.99224e-22)
(1.04176 -0.00899255 9.74617e-22)
(1.00624 -0.00228604 5.04999e-22)
(1.01752 -0.0185828 6.3531e-23)
(1.02466 0.00425944 -1.66037e-21)
(1.09103 -0.146183 0)
(1.01933 -0.00025728 5.40122e-21)
(1.02989 -0.00820046 7.90153e-21)
(1.03728 0.0151926 2.11318e-21)
(1.03188 -0.00159416 5.91947e-21)
(1.00276 -0.00208563 -2.87022e-21)
(1.04082 -0.00923696 8.5448e-21)
(1.01768 -0.00259275 1.29291e-21)
(1.05675 -0.000342996 9.89807e-21)
(1.01322 -0.00057921 -1.09813e-21)
(1.02941 -0.00889387 4.88515e-21)
(1.01393 -0.000793726 1.73453e-22)
(0.981493 -0.124499 0)
(1.02437 0.00186125 -9.42121e-23)
(0.991497 -0.134102 0)
(1.01025 -0.00731029 0)
(0.947924 0.127462 -6.28037e-23)
(1.01189 -0.000200019 0)
(1.00845 -0.006931 4.08253e-21)
(1.0081 -0.000168039 7.31131e-23)
(1.03649 -0.00336648 1.18386e-21)
(0.895896 0.235745 -4.11127e-22)
(1.008 -0.00189097 0)
(0.943603 0.100236 -6.37017e-21)
(1.01983 -0.00202295 1.69639e-21)
(1.01562 -0.00162659 6.30369e-22)
(1.04126 -0.0110106 -7.09974e-21)
(0.968256 -0.251552 -7.53149e-21)
(0.959723 -0.0144293 0)
(0.929077 0.082777 -1.51293e-21)
(0.954264 0.109062 -1.17655e-21)
(1.00723 -0.0195541 0)
(1.02064 -0.00104015 0)
(1.02123 -0.072896 0)
(1.05729 -0.00100452 7.55286e-21)
(1.06558 -0.0029597 0)
(0.996039 -0.0620941 1.69713e-21)
(1.05843 -0.0487714 -1.53063e-20)
(1.01912 -0.000246227 1.84228e-21)
(1.03572 -0.00812991 -2.62854e-22)
(1.04601 -0.00144535 -1.73328e-20)
(1.02443 -0.00245822 0)
(1.00223 -0.000451012 -1.20118e-21)
(1.02375 -0.00271505 0)
(1.01454 -0.000241259 -5.04847e-24)
(1.00753 6.02514e-05 -7.65551e-22)
(0.887006 -0.195866 -4.30938e-21)
(1.05428 -0.000896276 -5.83712e-21)
(0.923928 0.249259 9.29709e-22)
(1.01479 -0.000436562 -4.83795e-24)
(1.05579 -0.0345558 -3.55978e-21)
(1.01711 0.00270503 0)
(1.00877 2.02549e-05 -1.75344e-21)
(1.00914 0.000111259 0)
(1.00373 0.000546687 -1.201e-21)
(1.01677 -0.0713273 -1.65209e-22)
(1.01035 -0.00843898 0)
(1.03342 -0.0065847 -2.79033e-22)
(1.01469 -0.00147483 -1.45698e-21)
(1.01806 -0.000629986 -1.4638e-21)
(1.00161 0.00220438 1.30588e-21)
(0.986927 0.104227 -5.93949e-22)
(1.01234 -0.000546118 -8.25929e-22)
(1.02041 -0.00100209 0)
(0.942091 0.225974 -4.94778e-21)
(0.996367 -0.00632749 3.72182e-21)
(1.03987 -0.00620188 -8.38245e-21)
(0.852832 0.202502 0)
(0.937866 0.122629 1.11444e-21)
(1.00867 7.784e-06 -8.88004e-22)
(1.00723 7.50731e-05 0)
(1.04161 -0.0129669 3.46925e-23)
(1.00065 -0.000369857 3.90482e-21)
(1.0298 -0.00932783 3.38429e-21)
(1.01409 -0.000409756 0)
(1.01789 -0.00046894 -2.52135e-21)
(1.00768 -0.00369283 0)
(1.01532 -0.00262929 0)
(1.01653 -0.00225989 0)
(1.04602 -0.0377949 2.26725e-22)
(1.05059 0.0243399 1.82477e-21)
(1.01102 9.11018e-05 6.38146e-22)
(0.902884 0.242413 0)
(1.07436 -0.0301762 -2.17625e-21)
(1.01295 9.84297e-05 1.08913e-21)
(1.01395 -0.0179074 -1.18581e-22)
(1.00548 0.00579672 0)
(0.929558 -0.0930738 1.19558e-21)
(1.02532 -0.00345946 -1.08094e-21)
(0.839041 -0.14964 0)
(1.01722 -0.0019757 0)
(1.01647 -0.00214056 8.00245e-22)
(1.04725 0.0112054 0)
(1.02307 -0.00291422 0)
(1.05456 0.00215331 -3.728e-21)
(0.967126 0.226476 8.95852e-21)
(1.05643 -0.026288 0)
(1.01295 0.000306601 -1.05378e-21)
(0.141788 -0.0923175 -1.7192e-20)
(0.998092 -0.00455797 -3.27546e-21)
(1.01272 0.000875194 0)
(1.01784 -0.000189938 4.86572e-23)
(1.04737 -0.0149715 -3.84968e-20)
(1.01665 -0.00297723 -4.3334e-22)
(1.01274 0.000800972 0)
(1.01931 -0.000464164 4.64381e-21)
(1.01646 -0.00288396 -1.50602e-23)
(0.915408 0.152166 0)
(1.04947 -0.00578267 0)
(1.07122 -0.0300937 0)
(1.01092 -0.0177961 -4.63282e-22)
(1.01793 -0.000556105 -7.33541e-22)
(1.01783 -0.00186324 0)
(1.03038 -0.00244026 0)
(1.01183 0.000301457 4.47051e-22)
(1.01927 -0.000396936 -4.49423e-21)
(0.940834 -0.0770955 2.64983e-21)
(0.996752 -0.00440971 2.20776e-21)
(1.01605 -0.00082182 -7.75102e-22)
(1.02145 -0.0189089 -7.8155e-23)
(0.891965 0.117451 0)
(1.01983 -0.00904508 -1.01331e-21)
(1.03531 0.0372634 3.99186e-22)
(1.02789 -0.0640462 0)
(1.01225 0.000383043 0)
(1.03824 0.00855929 -1.51005e-20)
(0.922598 0.260143 0)
(1.02514 -0.000559571 3.76713e-21)
(1.00927 -0.0626205 5.41158e-20)
(1.01857 0.0035934 -3.68411e-22)
(0.909542 -0.176261 -1.45188e-21)
(1.05511 -0.00743377 0)
(0.955726 0.255264 0)
(1.01726 -0.00444359 8.42995e-22)
(1.01672 -0.00204034 0)
(1.02311 0.00569998 1.93652e-21)
(0.997754 0.0564662 5.69399e-21)
(1.01416 -0.0178389 -6.61981e-22)
(0.862374 0.214028 0)
(0.879125 0.151274 -3.34716e-21)
(0.410884 0.242579 -3.84408e-21)
(1.05438 0.00293935 0)
(0.81737 -0.148628 0)
(1.06705 -0.00465792 4.60108e-21)
(1.00451 -4.17504e-05 7.50237e-22)
(1.05415 6.9181e-05 -1.23854e-20)
(1.01968 -0.0178068 -1.15463e-21)
(0.954039 0.214136 3.56673e-21)
(1.03195 -0.00550982 2.84783e-21)
(0.951591 0.145799 -1.38162e-21)
(1.01281 -0.000521895 1.37854e-21)
(1.05783 0.0533042 3.36222e-22)
(1.00852 -5.0504e-05 0)
(1.04118 0.00313176 8.97407e-21)
(1.01746 -0.00195675 -5.36235e-22)
(0.990498 -0.0577108 4.43423e-21)
(1.01345 -0.00117792 0)
(1.01071 -1.87725e-05 0)
(1.04447 -0.000949912 2.90034e-22)
(1.04619 -0.00722455 9.1377e-23)
(1.05472 -0.000729756 -6.24099e-21)
(1.01746 -0.00505596 -6.3377e-22)
(1.02181 -0.00265961 2.17045e-21)
(1.02014 -0.00851943 1.30619e-21)
(1.0198 -0.0080311 -9.94802e-22)
(1.17775 -0.191239 1.71276e-20)
(1.01578 -0.00144996 -5.44285e-22)
(1.05187 -0.0214873 6.69348e-21)
(0.945191 -0.215802 0)
(1.01576 -0.00135889 0)
(1.00891 -9.03309e-05 1.68811e-21)
(1.05795 -0.0359914 -2.24802e-21)
(1.03919 0.00140761 1.44809e-20)
(1.02346 -0.00234915 -4.325e-23)
(1.02934 -0.0135316 0)
(1.01477 0.0122602 -1.80126e-21)
(1.05526 -0.00627212 3.308e-21)
(1.0442 0.0026032 0)
(1.04661 -0.00643542 -3.1259e-21)
(1.01233 0.000344281 -2.11789e-22)
(1.00359 0.0055772 0)
(1.03677 -0.0141075 0)
(1.05335 -0.00558606 0)
(1.02746 -0.0145341 5.29872e-21)
(1.03991 -0.0162006 1.71121e-21)
(1.03282 -0.133531 -1.82313e-20)
(1.0225 -0.00778474 0)
(1.10526 -0.151965 0)
(1.05285 -0.000291286 -6.68676e-21)
(1.01048 -0.000341466 -5.84654e-22)
(1.02221 -0.00273276 -4.43822e-21)
(1.01273 -0.00233436 7.55179e-22)
(1.0065 -0.0149798 -1.20223e-21)
(1.00668 -0.0173103 2.36502e-21)
(1.01636 -0.00242529 0)
(1.0129 -0.00451498 0)
(1.01721 0.00250226 0)
(1.01803 -0.0016339 0)
(1.01213 -0.00430479 1.28229e-21)
(1.01874 -0.00127321 6.47659e-22)
(1.03578 -0.0274973 -1.21436e-21)
(1.01277 0.000237187 0)
(1.04134 0.00251719 0)
(1.0073 -1.75855e-05 -8.54979e-22)
(1.03249 -0.00195871 0)
(1.03385 -0.0265058 -1.34503e-21)
(1.04501 0.00249096 0)
(1.05389 0.00029899 -1.2478e-22)
(1.00754 4.43899e-06 0)
(1.01618 -0.00265401 0)
(1.02241 -0.00250605 0)
(1.01224 0.000294355 -2.17426e-21)
(1.011 0.000736045 3.65656e-22)
(1.01011 0.000170835 -1.3677e-21)
(1.01065 0.000284252 -3.81809e-22)
(1.01672 -0.00222291 5.97161e-22)
(1.02287 -0.00768396 0)
(1.01317 -0.00103516 -2.97302e-21)
(1.06304 0.00299334 5.61572e-21)
(1.01066 9.12202e-06 -1.54317e-21)
(1.00786 -4.93422e-05 -1.33258e-21)
(1.02453 -0.00177733 -1.67252e-25)
(0.974527 0.133324 0)
(1.01663 -0.00221083 -5.92078e-22)
(1.01481 -0.00105065 0)
(1.04134 0.00251509 -8.49588e-21)
(1.01816 0.0036157 -6.64931e-23)
(1.01173 -0.002672 -9.93041e-22)
(0.98261 -0.0601865 -3.48517e-20)
(1.02485 0.00435944 1.31684e-21)
(1.01196 -0.000377386 1.82128e-23)
(1.00955 0.000154006 0)
(1.01726 -0.0198458 0)
(1.01291 -0.00240701 2.26467e-21)
(1.04387 -0.00118644 1.17563e-20)
(0.435538 0.260429 4.99317e-21)
(0.968929 0.230865 -1.53938e-21)
(0.915116 0.105688 -8.24025e-22)
(1.01226 -0.00330683 0)
(1.02511 -0.0021868 1.07936e-21)
(1.0744 0.000847625 5.7951e-21)
(1.0248 -0.00424452 0)
(1.01422 -0.000964709 0)
(1.05279 -0.0135755 0)
(0.939468 0.141819 6.66723e-23)
(0.777766 0.141111 -3.01825e-21)
(1.02282 -0.00256654 0)
(1.04432 -0.016402 -2.67545e-21)
(1.02506 -0.00198231 2.17249e-21)
(1.02415 -0.00180699 0)
(0.900823 -0.199085 0)
(1.01889 -0.00121933 3.27672e-21)
(1.01551 -0.0933491 1.54622e-22)
(1.00473 0.00378036 -1.09362e-21)
(1.05472 0.0266099 3.58598e-22)
(1.01612 -0.00258031 0)
(1.04916 -0.0120507 2.37223e-22)
(1.03549 -0.0139604 2.84025e-21)
(0.99899 -0.0662279 -2.16128e-20)
(0.779853 -0.0264304 0)
(1.01599 -0.00193205 -4.12446e-22)
(1.00583 0.00266871 0)
(1.0544 0.000315495 0)
(1.01647 -0.00224692 0)
(1.00084 -0.00576996 -3.00328e-21)
(1.04368 0.00170089 0)
(0.641878 -0.125199 -3.43139e-22)
(1.01693 -0.00400498 3.58932e-22)
(1.04184 0.0337155 2.61418e-22)
(1.02542 -0.00305247 -1.45573e-21)
(1.00757 0.193417 6.37099e-21)
(1.04521 0.0266807 0)
(0.94214 0.197475 -4.58149e-21)
(1.09055 -0.0319756 -5.3229e-21)
(1.01293 0.00706838 1.07581e-21)
(0.990022 -0.0307381 1.51554e-22)
(0.833019 0.0155181 -2.23173e-20)
(1.01663 -0.00237699 1.44223e-21)
(1.01862 -0.00151512 0)
(1.00734 -2.56626e-05 0)
(1.01099 0.0107913 -6.44028e-22)
(1.01351 -0.000936239 -1.79776e-22)
(0.882174 -0.181206 -1.33354e-21)
(1.01372 -0.000774519 -1.80508e-22)
(1.0314 -0.0948147 0)
(1.04875 0.00258439 -1.35714e-20)
(0.946627 0.0475808 0)
(1.04394 0.0111451 0)
(1.03103 -0.00232942 0)
(1.01165 0.0876134 0)
(0.953338 -0.204048 0)
(1.03798 -0.00563073 -7.83452e-21)
(0.937862 0.272086 9.65371e-21)
(0.993201 -0.0306094 7.22483e-22)
(1.03305 -0.0183596 -1.88975e-20)
(1.01375 -0.00101056 1.767e-22)
(1.01787 0.00348841 -3.90363e-22)
(0.928165 0.250771 0)
(1.01694 -0.00850254 -4.46847e-22)
(0.760051 -0.0813501 7.31676e-21)
(1.01366 -0.000723456 2.73324e-22)
(1.07789 -0.049209 0)
(1.01464 0.00108282 -1.05874e-21)
(0.97553 0.0866189 1.88237e-21)
(0.934558 0.246225 0)
(1.01401 0.00746176 1.2676e-23)
(0.118079 -0.189633 3.93239e-20)
(1.01925 -0.000203986 1.05171e-21)
(1.0452 -0.000658392 3.15134e-22)
(1.05534 0.00399439 1.1938e-20)
(0.913601 -0.230953 0)
(0.923527 -0.236502 0)
(1.01057 0.00249647 0)
(1.01506 0.00115411 -5.17986e-22)
(1.01499 -0.00137829 1.4706e-21)
(0.96325 0.23578 1.54228e-21)
(0.997511 -0.298328 0)
(1.01672 -0.00032895 2.79092e-21)
(1.00083 -0.0243716 -1.2484e-21)
(1.02965 0.0441803 -3.28319e-22)
(1.01432 -0.00125312 3.66716e-22)
(1.01596 -0.00260864 1.92726e-23)
(1.01358 -0.0144187 -5.94042e-22)
(1.0239 -0.093998 2.38448e-24)
(1.02182 0.0216718 2.12251e-21)
(1.01639 -0.00949324 -4.55046e-22)
(1.01066 1.03735e-05 -1.52092e-21)
(1.01427 -0.00325061 0)
(0.899253 0.11046 9.07348e-22)
(0.877353 0.120436 3.22269e-21)
(1.06113 -0.0234587 4.13001e-22)
(1.01237 0.000471268 0)
(1.01455 -0.000947704 0)
(0.989359 0.133464 -4.73227e-22)
(1.01878 -0.00145776 0)
(0.942484 0.259308 0)
(1.06313 0.0108925 3.86855e-21)
(1.01311 -0.120518 0)
(1.01745 0.122343 0)
(1.08726 -0.0336424 0)
(1.01557 -0.00263367 7.3983e-23)
(1.03117 -0.00178357 -1.51228e-22)
(1.04965 -0.00260623 -9.51806e-21)
(1.04304 -0.000863702 7.9653e-21)
(1.05431 -0.00555507 0)
(1.01901 -0.000794718 0)
(1.04219 -0.0137513 1.99041e-20)
(1.07061 0.0256411 2.29851e-21)
(1.01435 0.000486662 -1.96567e-21)
(0.944043 -0.200289 -4.51293e-21)
(1.01406 -0.00311402 0)
(0.96784 -0.11983 1.54662e-21)
(1.03513 0.00078306 7.36663e-22)
(1.03715 0.131837 5.61667e-21)
(1.03374 -0.0337147 1.01188e-21)
(1.01699 0.02145 2.00447e-21)
(1.01659 -0.00423022 -3.16286e-23)
(1.00676 0.00824688 4.64905e-22)
(1.05251 0.00395608 0)
(1.02057 0.133822 -7.22869e-21)
(0.824058 -0.0345251 6.87599e-21)
(1.02117 -0.0101715 1.81866e-22)
(1.06984 -0.00394291 0)
(1.02122 -0.00260131 0)
(1.03992 -0.017475 -2.53536e-21)
(1.05018 -0.0121566 -5.22699e-21)
(0.642967 -0.157052 -2.57009e-21)
(1.01167 -0.000217234 0)
(1.03087 -0.0144382 1.58769e-20)
(1.01538 -0.00247122 0)
(1.05484 0.000171843 -1.23951e-20)
(1.01577 -0.00281339 -6.82811e-22)
(1.01276 0.000207797 0)
(1.00821 1.10902e-05 2.46032e-21)
(1.01465 -0.000973945 -4.62239e-23)
(0.419103 0.177194 0)
(1.01851 -0.00177386 0)
(1.04401 -0.0137165 1.56496e-21)
(1.00856 -0.000123235 0)
(1.0085 0.000271585 2.1715e-22)
(1.01302 -0.000723419 1.44366e-21)
(1.09594 0.00127809 -1.11382e-21)
(1.00902 -5.47714e-05 -1.57818e-21)
(1.04256 0.00322683 0)
(1.01587 -0.00270501 -2.89821e-22)
(1.01608 -0.00276878 0)
(1.01143 -0.0880343 0)
(1.01684 -0.00206771 4.19672e-24)
(0.961565 -0.106692 1.95858e-22)
(1.01468 0.000448012 2.05005e-21)
(1.05051 0.02135 2.43807e-22)
(1.0107 1.48456e-05 -2.97806e-21)
(1.02917 -0.0832326 0)
(1.0098 5.30966e-05 -7.50131e-22)
(0.874247 -0.0640477 -2.71488e-21)
(1.02668 -0.0118698 -1.6924e-22)
(1.01699 -0.0091725 4.66697e-22)
(1.01435 -0.00102913 -8.84477e-24)
(0.934605 -0.21729 -7.87222e-21)
(1.01461 -0.0462087 1.75085e-20)
(0.970986 -0.133079 -1.74005e-21)
(0.678919 0.0123005 -9.36051e-21)
(1.0003 0.146707 -2.60285e-21)
(1.01642 -0.00805099 -2.63578e-22)
(1.04897 -0.00306257 2.20977e-21)
(1.00888 0.0679905 4.82991e-21)
(1.01241 -0.00118921 0)
(0.949324 0.227939 -3.73275e-21)
(0.937444 0.213201 -5.39248e-21)
(1.09974 -0.00417147 -1.70794e-21)
(1.07962 0.0742087 2.8448e-21)
(1.0419 -0.0151167 0)
(0.982139 -0.142679 -1.06881e-20)
(1.00116 0.0071724 -2.06019e-21)
(1.00145 -0.185571 0)
(0.997977 0.0160276 5.2441e-21)
(1.04304 -0.0127428 -8.27302e-21)
(1.03246 -0.00606847 -2.97401e-21)
(0.986774 -0.106848 -3.82622e-21)
(1.03932 -0.344691 0)
(1.01514 -0.000171593 -2.43236e-21)
(1.03758 -0.0262667 4.29583e-23)
(1.01906 -0.000851919 -3.37894e-21)
(1.02753 -0.0111909 -1.26578e-21)
(1.05449 -0.00301734 -1.44801e-20)
(1.01013 9.58147e-05 1.90472e-21)
(1.01098 0.0013928 1.07892e-21)
(1.04376 -0.000540585 1.12753e-21)
(1.05907 0.0164292 0)
(1.05478 0.00414004 -6.09101e-21)
(1.01297 -0.0233014 8.47323e-23)
(0.991747 0.210687 0)
(1.01446 -0.00104816 9.20573e-24)
(1.01085 -0.000397534 3.86752e-22)
(1.05321 0.0667792 2.55372e-22)
(1.03084 -0.181858 9.09681e-21)
(1.05549 -0.0045893 0)
(1.01794 -0.000247869 -2.49901e-21)
(1.05855 -0.0111586 0)
(1.01435 0.00151189 -2.06555e-21)
(1.01211 -0.000810183 0)
(0.951726 0.185453 -3.20907e-21)
(1.01263 -0.00063312 -1.50034e-21)
(1.04099 -0.0141836 -5.55295e-21)
(0.95932 -0.158811 1.49323e-20)
(0.955336 -0.186824 -2.56479e-20)
(1.01079 0.00731044 2.14503e-21)
(0.963965 -0.157887 1.85956e-21)
(0.923022 0.0901881 8.20246e-21)
(0.940865 -0.0870897 -3.99787e-21)
(1.07089 0.0235681 0)
(0.58676 -0.164283 -4.19316e-21)
(1.01507 -0.000440845 1.39655e-21)
(0.887366 0.125304 -2.51803e-21)
(1.02751 -0.0134175 -3.16782e-22)
(1.01511 -0.00239075 -1.29237e-22)
(1.0246 -0.00566536 3.20991e-21)
(1.00879 -5.87794e-05 8.95839e-22)
(1.02228 -0.00283463 0)
(0.217636 -0.185405 7.49378e-21)
(1.01727 0.0106845 0)
(0.946398 0.208757 6.71869e-21)
(1.007 0.00534123 -4.50608e-22)
(1.07803 -0.0468686 2.23483e-21)
(1.02938 -0.014694 0)
(1.0546 -0.00403297 0)
(1.01249 0.0180389 0)
(1.0117 -0.0101105 2.07123e-21)
(1.06142 0.0114289 -7.72897e-21)
(1.00653 0.00383032 4.48937e-22)
(1.01142 -0.000406729 1.84094e-22)
(1.06818 0.0429039 -3.18002e-21)
(1.02821 -0.00950833 2.53252e-22)
(1.05955 -0.000978133 0)
(1.01605 0.00916375 1.79885e-21)
(1.01664 -0.000494885 0)
(1.05665 -0.100032 -2.04445e-20)
(0.947379 -0.206121 -6.58539e-21)
(1.00442 0.0147502 2.02925e-21)
(1.01726 0.00266267 0)
(1.01687 0.00239532 0)
(1.02007 -0.00564829 -3.92723e-22)
(1.00759 0.0107044 3.77317e-21)
(1.19455 -0.169562 0)
(1.06108 0.041307 -2.90947e-21)
(1.0649 0.0452625 2.77705e-21)
(1.06462 0.00034106 6.18082e-21)
(0.92249 0.226246 6.64414e-21)
(1.0137 -1.83608e-05 2.09843e-21)
(1.02864 -0.0474087 0)
(0.998795 -0.0265559 0)
(1.05064 -0.00343477 -8.37786e-21)
(1.09549 0.0739727 0)
(1.01677 -0.00445157 3.1215e-23)
(1.01635 -0.00241535 -2.60905e-22)
(0.989318 -0.135369 0)
(1.06258 0.00462544 -8.78275e-21)
(0.458869 -0.193457 9.20327e-21)
(1.01657 -0.00370733 0)
(0.985284 0.217577 3.57828e-21)
(0.95409 0.192355 1.86928e-20)
(1.01371 -0.000148331 2.12901e-21)
(1.05068 -0.00255379 2.43636e-20)
(1.0501 0.00183337 -1.42259e-20)
(1.18938 -0.139576 0)
(1.01162 -0.000390821 1.36146e-23)
(1.05241 -0.000666578 1.37391e-20)
(1.08484 0.0449701 8.38673e-21)
(1.00062 -0.0126439 -3.86427e-21)
(1.01664 -0.00393306 2.33445e-22)
(1.05869 -0.00415164 0)
(1.02576 -0.0132191 1.21099e-21)
(1.01236 0.000375918 0)
(1.01604 -0.00263576 2.86108e-22)
(0.714076 0.00357161 -9.39749e-21)
(1.02461 -0.0145511 0)
(1.05431 0.00148803 1.16186e-20)
(0.961492 -0.0813873 -7.287e-22)
(1.05133 -0.00158863 -1.15664e-22)
(1.03607 -0.0352061 -9.68012e-22)
(1.07146 -0.00629046 -3.81506e-21)
(0.965158 0.015454 -3.07428e-21)
(0.862688 0.145903 3.39045e-21)
(0.965866 0.0237086 2.97076e-21)
(1.01168 -0.000927528 -1.88254e-22)
(1.03067 -0.0050064 4.9566e-21)
(1.04227 -0.000479832 -7.46688e-21)
(1.00972 0.0173231 1.26651e-21)
(1.00992 3.98859e-05 0)
(0.982666 0.150164 1.63014e-21)
(1.09287 -0.00879499 0)
(1.05022 0.00235073 1.54487e-20)
(0.954651 -0.114948 4.60388e-22)
(1.05394 0.0239719 2.57191e-22)
(0.941418 0.101703 0)
(1.03116 -0.00554139 0)
(1.08771 -0.0461204 0)