/*--------------------------------*- C++ -*----------------------------------*\
| =========                 |                                                 |
| \\      /  F ield         | OpenFOAM: The Open Source CFD Toolbox           |
|  \\    /   O peration     | Version:  v2012                                 |
|   \\  /    A nd           | Website:  www.openfoam.com                      |
|    \\/     M anipulation  |                                                 |
\*---------------------------------------------------------------------------*/
FoamFile
{
    version     2.0;
    format      ascii;
    class       surfaceVectorField;
    location    "550";
    object      Uf_0;
}
// * * * * * * * * * * * * * * * * * * * * * * * * * * * * * * * * * * * * * //

dimensions      [0 1 -1 0 0 0 0];


internalField   nonuniform List<vector> 
14516
(
(1.1347 -0.0238233 4.64509e-21)
(1.13585 -0.0143958 5.18888e-22)
(1.12646 -0.0184206 -7.32219e-22)
(1.0121 -0.020218 -2.17118e-22)
(1.00186 -0.0510439 1.03821e-21)
(1.01697 -0.0457332 1.45886e-22)
(1.13125 -0.0329031 -2.70462e-21)
(1.14407 -0.0299837 -5.0302e-21)
(1.01561 -0.00109048 1.3299e-22)
(1.01563 -0.00118887 2.88664e-22)
(1.01574 -0.00110442 5.36594e-22)
(0.53542 0.278113 3.97838e-21)
(0.548682 0.29787 1.17251e-21)
(0.520403 0.288113 7.86329e-22)
(1.00503 -0.0154939 9.02488e-22)
(1.00666 -0.0162922 -4.01113e-22)
(1.00667 -0.0142318 -7.22597e-22)
(1.00956 -0.000166831 -1.73491e-23)
(1.01047 -0.000359567 -3.30378e-22)
(1.01114 -0.000498397 -5.8472e-22)
(1.01402 -0.00266096 1.21307e-22)
(1.01388 -0.00248312 1.33193e-22)
(1.0141 -0.00252205 -1.19682e-22)
(1.03268 0.00161372 -9.21488e-22)
(1.03268 0.0020861 -4.99675e-21)
(1.03337 0.00165053 -3.74934e-22)
(0.564507 0.261206 -2.60666e-21)
(0.537508 0.254906 1.22753e-20)
(1.04237 0.00735333 3.41065e-22)
(1.0395 0.00781594 -8.53971e-21)
(1.04126 0.0044939 -4.37837e-21)
(0.865923 -0.0463588 -2.22925e-22)
(0.867554 -0.0588942 -1.85227e-21)
(0.846887 -0.0581656 6.4362e-22)
(1.01553 -0.000953859 -1.9151e-22)
(1.01546 -0.00104693 -3.48477e-23)
(1.02205 0.000750762 5.01741e-23)
(1.02229 0.00158675 -9.96849e-23)
(1.02119 0.00132595 -9.91132e-23)
(1.00379 -6.86063e-05 5.81472e-22)
(1.00383 -7.19907e-06 4.19379e-22)
(1.02165 -1.06731e-05 9.69283e-23)
(1.02119 -0.000640167 -7.79519e-22)
(1.02055 1.89155e-05 1.02082e-22)
(1.02535 0.00458973 -3.65665e-22)
(1.02364 0.00510971 1.0789e-21)
(1.02388 0.00361258 -3.88717e-22)
(1.02707 0.00371617 3.0212e-22)
(1.02681 0.00581072 -3.01624e-22)
(1.16547 -0.216597 6.96355e-21)
(1.17594 -0.20454 -9.99184e-22)
(1.16148 -0.231917 -1.08346e-20)
(1.02289 6.20731e-05 8.95538e-22)
(0.968923 -0.119099 2.23356e-22)
(0.976209 -0.126243 2.4183e-21)
(0.978448 -0.11613 1.57821e-22)
(1.04166 -0.0202246 2.56847e-21)
(1.04305 -0.0199367 1.50074e-21)
(1.04178 -0.0188007 2.78897e-21)
(0.928283 -0.0537929 8.3034e-21)
(0.930572 -0.0643755 7.05016e-22)
(0.914798 -0.0601115 1.19482e-21)
(1.01817 0.003004 2.31636e-23)
(1.0179 0.00293708 2.18694e-23)
(1.02564 0.00267693 -6.76863e-22)
(1.02534 0.00393883 7.49858e-22)
(1.02719 0.00367245 0)
(1.0153 -0.000736686 1.29776e-22)
(1.01555 -0.00082591 1.1102e-22)
(1.02132 -0.00284385 -2.55398e-22)
(1.02218 -0.00226358 7.71764e-22)
(1.02255 -0.00333444 3.37403e-22)
(1.01804 0.00463126 -1.19491e-22)
(1.0176 0.00534614 -4.94954e-22)
(1.01704 0.00450522 2.03363e-21)
(1.06667 0.0127696 -7.32563e-22)
(1.06422 0.0114402 2.19017e-21)
(1.06697 0.0107438 0)
(1.03199 0.00155218 8.51214e-23)
(1.03265 0.00112765 -4.09188e-22)
(0.966304 -0.0117021 -3.03722e-22)
(0.962393 -0.0137485 0)
(0.967857 -0.0170238 0)
(0.927117 -0.0409725 -6.32814e-22)
(0.942442 -0.046131 -5.88677e-22)
(0.905871 0.177394 2.8092e-21)
(0.917836 0.184899 6.02195e-21)
(0.902459 0.196516 2.26149e-21)
(1.00825 4.59576e-05 6.69368e-22)
(1.00822 1.68189e-05 -3.74104e-22)
(1.00591 3.01778e-05 6.77344e-22)
(1.06955 0.0147403 8.96076e-22)
(1.07314 0.0161414 1.1173e-21)
(1.07346 0.0129741 -9.09763e-22)
(0.970031 -0.1503 0)
(0.978341 -0.159433 -1.23307e-21)
(0.96543 -0.162126 -6.39303e-22)
(1.00853 -0.000129947 -8.65048e-24)
(1.00677 -1.05899e-05 -1.58339e-23)
(1.04132 -0.0216486 0)
(1.04014 -0.0204299 0)
(1.01483 -0.0037649 7.90686e-22)
(1.01498 -0.00411449 -6.88152e-22)
(1.01526 -0.00390467 -1.22526e-21)
(1.01073 1.49383e-05 8.51599e-23)
(1.01025 -2.34816e-05 -9.52199e-22)
(1.01114 4.63048e-05 7.25352e-22)
(0.971292 -0.00941598 -2.47825e-22)
(0.966177 -0.00457167 1.45713e-21)
(1.00638 -1.25928e-05 -1.52526e-22)
(1.00347 -6.97155e-05 2.08334e-22)
(1.01406 -0.000609778 -8.38026e-22)
(1.01468 -0.000574543 2.34907e-22)
(1.01405 -0.000579486 2.72732e-22)
(1.01013 -0.000287382 -1.26952e-22)
(1.00935 -0.000305391 3.43778e-22)
(1.01105 -0.000298461 1.33759e-21)
(1.01172 -0.00034987 2.63987e-22)
(1.01419 -0.000524473 -3.09699e-22)
(1.01508 -0.0006833 -8.48611e-23)
(1.0657 0.0160051 7.5402e-24)
(0.972967 0.0721635 7.64257e-22)
(0.976465 0.0817847 -4.6421e-21)
(0.985664 0.0708624 -2.9482e-21)
(0.917785 0.102098 2.87081e-21)
(0.903778 0.0974191 2.80254e-21)
(0.926289 0.0916323 2.88522e-21)
(1.01566 -0.00130733 0)
(1.01553 -0.00126002 9.94051e-23)
(1.07685 0.0186836 -2.85333e-22)
(1.07158 0.0201043 1.70393e-21)
(1.04282 0.0166107 4.4442e-23)
(1.03954 0.0152342 9.82698e-22)
(1.04294 0.0128302 -1.0644e-22)
(1.01006 -0.0205208 3.64567e-22)
(1.00834 -0.0204155 2.45684e-22)
(1.00929 -0.0223825 -2.90796e-22)
(1.03379 -0.00400375 0)
(1.03306 -0.00384544 -2.83565e-21)
(1.03325 -0.00446444 0)
(1.0183 0.0876849 0)
(0.969057 0.0901091 4.29534e-21)
(1.05348 0.0830346 1.78624e-21)
(0.898589 -0.152479 4.21597e-23)
(0.891925 -0.16508 6.79913e-22)
(0.883131 -0.155052 -4.44161e-22)
(1.02483 0.00184204 0)
(1.02433 0.00177527 0)
(1.01094 -0.0143122 0)
(1.01633 -0.0173463 0)
(1.01615 -0.0106515 5.59005e-21)
(0.882973 0.252004 -4.26664e-21)
(0.876417 0.270159 -4.98917e-21)
(0.887523 0.262719 -4.20312e-22)
(1.01474 -0.00353882 8.08406e-22)
(1.01453 -0.00362166 1.03468e-21)
(1.00898 -3.66823e-05 0)
(1.00839 5.22266e-05 -3.86808e-22)
(1.0099 -5.13918e-05 0)
(1.01551 -0.0235588 -1.88668e-24)
(1.01393 -0.0238046 3.91451e-23)
(1.01518 -0.0254982 -1.30499e-23)
(0.8645 0.178644 1.06613e-21)
(0.855098 0.193817 -1.33892e-21)
(0.84909 0.175341 3.60529e-22)
(1.01721 -0.000421212 -6.43022e-22)
(1.01781 -0.000556377 -1.37009e-21)
(1.0169 -0.000416665 1.75247e-21)
(0.463912 0.281954 2.03122e-20)
(0.504356 0.298659 -9.85676e-22)
(0.901513 0.135552 0)
(0.912608 0.145464 0)
(0.917461 0.129183 0)
(0.871971 0.159602 2.94716e-22)
(0.881994 0.174393 1.16473e-21)
(0.878026 0.146394 -2.50268e-22)
(0.886557 0.134411 -1.44168e-21)
(0.89253 0.146856 3.91234e-22)
(0.865004 -0.0339209 0)
(0.880867 -0.0383004 0)
(1.04358 0.0095654 0)
(1.04501 0.0065269 2.78942e-21)
(0.979669 0.0912854 0)
(1.06211 0.0915194 0)
(1.0125 0.000338746 0)
(1.01298 0.000410768 0)
(1.01375 0.0005955 0)
(1.01718 -0.00471267 0)
(1.01738 -0.00497439 -3.61437e-22)
(1.01711 -0.00494307 1.96215e-22)
(1.05619 0.0133438 0)
(1.05432 0.010169 1.65751e-24)
(1.0533 0.0235103 -1.04081e-22)
(1.08126 0.018522 0)
(1.07966 0.0238857 -1.50335e-23)
(0.890953 0.238868 2.50721e-22)
(0.879078 0.238895 3.95933e-22)
(1.02515 0.00160766 1.71135e-21)
(1.02548 0.00135246 -5.97065e-22)
(1.02488 0.00132491 1.70239e-21)
(1.02343 0.00346426 -2.22396e-23)
(1.02339 0.00282931 2.19467e-23)
(1.02429 0.00328539 -5.71028e-23)
(1.00633 0.0082216 7.03133e-22)
(1.00602 0.00659518 1.90997e-21)
(1.00745 0.00719717 -8.63727e-23)
(1.01634 0.00728723 2.06462e-23)
(1.01511 0.00672503 -1.89304e-21)
(1.01615 0.0062632 3.06614e-22)
(0.88723 0.142769 -1.59746e-21)
(0.893609 0.12571 0)
(1.0034 0.00286974 -5.54159e-22)
(1.00381 0.00141125 -1.67981e-21)
(1.00491 0.00262551 2.16273e-21)
(0.975781 -0.0556383 -1.08118e-21)
(0.968218 -0.083992 0)
(0.960648 -0.0600819 -1.00639e-21)
(0.979084 0.0278919 -2.35139e-21)
(0.97657 0.0348029 -1.01988e-21)
(0.986507 0.0307423 2.87217e-21)
(0.976451 -0.0082556 1.91755e-23)
(0.976645 -0.013402 1.87349e-21)
(0.971513 0.0561206 -2.23225e-21)
(0.971901 0.0642892 -2.0041e-22)
(0.982664 0.0563678 3.25669e-21)
(1.01637 0.00861583 1.84732e-22)
(1.0177 0.00783075 -1.8264e-21)
(1.02574 0.00111217 -2.0929e-21)
(1.026 0.000844262 0)
(1.02544 0.000834207 -1.19963e-22)
(1.01593 -0.0218867 1.28973e-22)
(1.01648 -0.0201953 -2.68313e-22)
(1.01506 -0.0202184 7.8083e-23)
(1.00317 -0.00269317 2.97807e-22)
(1.0022 -0.00138434 -1.66284e-21)
(1.00152 -0.00320974 -1.35927e-21)
(1.00424 0.00589624 2.726e-21)
(1.01946 0.00719151 -6.24967e-22)
(0.440421 0.128738 8.28531e-21)
(0.433683 0.161484 5.46328e-21)
(0.490392 0.136135 4.72178e-21)
(1.01298 -0.00065998 -8.39489e-22)
(1.01293 -0.000875174 -2.7204e-22)
(1.0128 -0.000554194 -2.226e-23)
(0.926083 -0.0285113 1.15925e-21)
(0.910941 -0.0340105 0)
(1.01711 -0.0232712 0)
(0.971452 0.024698 -5.84821e-21)
(0.981825 0.0214277 -1.80571e-21)
(0.904922 -0.141498 -5.87115e-22)
(0.912651 -0.150921 4.14244e-23)
(0.988715 -0.0539706 6.04767e-21)
(0.98249 -0.0224073 -2.38816e-21)
(1.01316 -0.000688463 -8.05766e-23)
(1.01304 -0.000465468 4.35781e-22)
(1.01328 0.000948611 -1.87016e-22)
(1.01319 0.000951222 -9.06679e-22)
(1.01321 0.000770167 -4.04994e-22)
(1.01342 0.0011828 -7.92356e-22)
(1.01337 0.000967658 8.55813e-22)
(1.0076 -0.00851309 -9.27982e-22)
(1.00639 -0.00818763 1.10264e-21)
(1.00683 -0.00972612 -5.93574e-22)
(1.01449 -1.95809e-06 -9.90955e-22)
(1.0146 -0.000153735 -4.73418e-22)
(1.01479 -5.54029e-05 4.90332e-22)
(1.01422 3.39308e-05 -4.96681e-22)
(1.01437 0.000124398 -2.07104e-23)
(1.02266 0.00353778 8.36646e-24)
(1.02335 0.00412049 4.19383e-22)
(0.980719 -0.00748929 -2.37709e-21)
(0.976692 -0.00304882 1.5497e-21)
(1.0173 -0.0191698 -2.75673e-22)
(1.01786 -0.0204691 2.57445e-23)
(1.0084 2.4993e-05 -5.51698e-22)
(1.00896 -8.8155e-05 5.76751e-22)
(1.00983 -0.000103808 2.56578e-22)
(1.01095 -0.0188409 -1.09937e-22)
(1.01184 -0.0204707 1.03068e-22)
(0.999516 0.114683 0)
(1.0119 0.118126 0)
(1.01225 0.100884 -2.06957e-22)
(1.0122 0.000337606 0)
(1.01108 0.000168658 1.26781e-22)
(0.935325 -0.107502 0)
(0.929566 -0.0988384 6.11704e-22)
(0.923249 -0.108863 0)
(1.0226 0.00159004 2.81987e-22)
(1.02297 0.00157608 1.62567e-21)
(0.919227 -0.194233 0)
(0.910434 -0.18377 -7.13525e-22)
(0.905842 -0.194705 0)
(1.04629 0.0178133 3.30327e-21)
(1.04331 0.020485 1.17728e-21)
(1.02542 0.00188093 2.30851e-24)
(0.94028 0.169529 -3.0439e-21)
(0.949391 0.178422 -3.68335e-21)
(0.95299 0.164372 1.94814e-21)
(1.08594 0.0192752 0)
(1.08268 0.0140373 1.1604e-21)
(1.00305 0.00461758 0)
(1.0017 0.00329085 6.62909e-22)
(0.939904 -0.0243006 7.5778e-21)
(0.925932 -0.0167737 9.97499e-22)
(0.990441 0.109533 -3.28927e-22)
(0.984225 0.127086 -2.77653e-22)
(1.00758 0.000162195 -5.24899e-23)
(1.00468 6.03026e-05 0)
(1.0048 5.63616e-05 0)
(1.02385 -0.00208981 -1.45406e-21)
(1.02424 -0.00224895 0)
(1.02416 -0.00194056 0)
(1.00339 -0.0142111 4.63543e-22)
(1.00324 -0.016524 7.87864e-22)
(1.0392 -0.00516861 6.97518e-21)
(1.03949 -0.00591424 2.76141e-21)
(1.03847 -0.00559238 2.93338e-21)
(0.95865 -0.122058 -3.65241e-23)
(0.962481 -0.112176 6.32347e-23)
(1.05276 -0.00636019 5.49974e-21)
(1.05419 -0.00631183 9.18994e-21)
(1.05337 -0.0050992 -7.9934e-21)
(0.973034 0.0486366 -3.11545e-21)
(0.960572 0.0554955 -2.23337e-21)
(1.00669 0.0100176 1.29617e-21)
(1.00494 0.00950099 -3.09958e-22)
(1.01898 -0.00439098 0)
(1.01911 -0.00421789 8.34454e-22)
(1.01881 -0.00418365 0)
(1.0107 0.000224626 0)
(1.01027 0.000229299 -2.06143e-23)
(1.01193 0.00034026 0)
(1.02604 0.0013816 -1.8733e-21)
(1.01887 -0.00452167 3.12268e-22)
(1.01915 -0.00458635 2.23361e-22)
(1.01198 -0.0129158 -5.31513e-22)
(1.01317 -0.0138292 -3.18157e-22)
(1.01318 -0.0122523 0)
(1.0314 0.00153195 -6.57614e-22)
(1.03152 0.00193801 4.62107e-22)
(1.02625 0.000575502 -1.90403e-21)
(1.02653 0.00027204 -4.29504e-21)
(1.02595 0.000306414 1.7965e-21)
(1.0152 -0.00023499 1.11198e-21)
(1.01739 -0.000379891 0)
(1.00947 -0.000160633 -1.36098e-22)
(1.01091 -0.00037883 3.49874e-22)
(1.02245 0.00131685 -1.69996e-21)
(1.02217 0.0015296 3.1524e-22)
(1.01254 0.000145184 -2.76684e-22)
(1.01269 0.000143981 1.72936e-22)
(1.0126 0.00013032 -5.46337e-22)
(1.02355 -0.00220875 -1.42739e-21)
(1.02348 -0.00191775 6.01195e-23)
(1.02598 0.000324007 -6.17447e-22)
(1.02597 0.00151878 -9.24114e-22)
(1.02748 0.000886936 -2.40636e-22)
(1.01367 -0.000690284 -1.80039e-22)
(1.01388 -0.000709225 -4.93336e-22)
(1.01355 -0.000663976 -1.62265e-22)
(1.01402 0.00201052 9.71001e-22)
(1.01413 0.00190807 1.04188e-21)
(1.0143 0.00230181 1.1823e-21)
(1.02358 0.00195774 -4.76725e-23)
(1.02257 0.00249995 -1.6106e-21)
(1.02508 0.00360122 -8.80962e-23)
(1.02489 0.00236836 7.40728e-22)
(1.02639 0.00292048 1.19239e-21)
(1.05312 -0.0238132 7.43252e-23)
(1.04864 -0.0342056 1.19349e-22)
(1.04793 -0.0397094 6.09484e-23)
(1.01378 0.00173004 -2.51884e-22)
(1.01381 0.00208506 4.2609e-22)
(1.01356 -0.000672107 0)
(1.01345 -0.000694621 0)
(1.01368 -0.000872587 -5.01334e-22)
(0.44837 0.102582 2.23765e-21)
(0.390535 0.11953 -5.25242e-21)
(0.703194 0.230811 -3.75724e-21)
(0.726616 0.208337 -2.06317e-20)
(0.68258 0.252398 -1.41439e-20)
(1.01151 0.000363024 0)
(1.00945 9.64047e-05 0)
(0.729157 0.213218 1.29528e-20)
(0.678306 0.249291 1.28472e-20)
(0.594604 0.255879 0)
(0.606632 0.232393 4.71769e-22)
(1.01367 -0.000621945 0)
(1.01347 -0.000515291 -2.50664e-22)
(1.00964 0.000243171 1.13016e-23)
(1.00955 0.000246073 -1.67054e-22)
(1.01117 0.000153914 -9.35595e-22)
(1.01056 9.81075e-05 4.74997e-22)
(1.01157 0.000197748 -4.54193e-22)
(1.02591 -0.000742304 1.04429e-21)
(1.02479 1.82711e-05 -2.23052e-22)
(1.01355 0.00143174 -2.51088e-21)
(1.01368 0.00140905 -7.58992e-22)
(1.01374 -0.000731415 -1.09531e-22)
(1.01345 -0.000570453 2.56138e-23)
(1.0142 -0.00283025 -4.99573e-22)
(1.01395 -0.00278948 2.62601e-22)
(1.01806 0.00390766 -4.24096e-22)
(1.01885 0.00456665 -1.17972e-21)
(1.01874 -0.00237964 -1.44997e-21)
(1.01808 -0.00267128 -3.58114e-22)
(1.0188 -0.00310374 -6.31228e-22)
(1.14743 -0.215519 1.37189e-20)
(1.12177 -0.210126 0)
(1.12611 -0.232716 1.1108e-20)
(1.05627 -0.010887 -3.07483e-21)
(1.05729 0.00232607 1.22146e-22)
(1.05495 -0.0132099 6.11938e-21)
(0.973296 -0.138522 -1.07556e-22)
(0.983967 -0.13442 -1.03819e-22)
(0.96002 0.0737229 1.63231e-21)
(1.05905 -0.0112787 4.96354e-21)
(1.05735 -0.0113615 -1.4469e-21)
(1.05849 -0.0127569 -2.15821e-22)
(1.02026 -0.0023872 1.56385e-22)
(1.02053 -0.00326874 -1.44155e-21)
(1.00985 -0.00695717 -9.29276e-22)
(1.00898 -0.00680346 1.66443e-21)
(1.00958 -0.00601505 -9.17865e-22)
(1.01565 -0.00179265 3.60191e-22)
(1.01547 -0.00232756 0)
(1.01586 -0.00193708 -2.1882e-22)
(0.907953 -0.215629 1.55259e-22)
(0.905079 -0.224852 -4.55594e-21)
(0.897378 -0.215685 6.79393e-21)
(1.05689 -0.00656001 -1.74677e-22)
(1.05382 -0.0240556 -1.90856e-22)
(0.915986 -0.213642 3.64169e-21)
(0.912363 -0.205655 2.53164e-21)
(1.03857 -0.00393203 -3.89184e-21)
(1.03892 -0.00461733 0)
(1.03788 -0.00430497 0)
(1.16114 -0.196936 7.27496e-21)
(1.02658 0.000850042 -3.09918e-21)
(1.01738 0.00292283 -8.67766e-23)
(1.01715 0.00277818 0)
(1.01709 0.00287914 3.0046e-22)
(1.01869 -0.00520172 4.79261e-22)
(1.01894 -0.00542686 -5.32863e-24)
(1.0189 -0.00508026 2.03311e-22)
(1.05585 -0.000806011 -9.59277e-21)
(1.05648 -0.000499654 -2.73066e-22)
(1.05581 -0.000267093 -4.14382e-21)
(0.577191 -0.186127 0)
(0.454641 -0.211974 -1.05965e-20)
(0.519512 -0.211436 0)
(1.04487 0.00134367 2.17755e-21)
(1.04409 0.001388 4.99012e-24)
(1.0445 0.000776596 -4.77233e-21)
(1.0134 0.00145705 -9.59255e-22)
(1.0245 0.00196792 -9.40169e-22)
(0.912828 0.241608 -4.6914e-22)
(0.906695 0.243459 0)
(0.910963 0.248333 2.62575e-22)
(1.01721 -0.00452536 4.29117e-22)
(1.01701 -0.00446338 3.56851e-22)
(1.00607 -0.00920943 0)
(1.00493 -0.017078 0)
(1.01846 -0.00528715 0)
(1.01848 -0.00494183 5.92444e-22)
(1.02364 -0.00285482 1.25463e-21)
(1.02329 -0.00295649 1.25408e-21)
(1.02365 -0.00318581 -1.01259e-22)
(1.01933 -0.00207392 3.81309e-22)
(1.01853 -0.0017528 -8.43334e-22)
(1.03924 -0.00356977 -1.0588e-21)
(1.03826 -0.00330263 -3.26242e-21)
(1.01987 0.000160953 0)
(1.01992 7.53398e-05 2.6178e-21)
(1.02006 0.000192235 0)
(0.933235 0.105533 -1.27519e-21)
(0.913849 0.113793 1.86128e-21)
(0.941187 -0.116206 4.11906e-22)
(0.94628 -0.106257 -9.88733e-23)
(0.861314 0.142689 -3.66092e-22)
(1.055 -0.000800941 -7.53039e-21)
(1.05548 -0.00132606 -2.24222e-22)
(1.20175 -0.0502913 -7.23209e-21)
(1.19323 -0.0344456 0)
(1.18514 -0.051594 1.74103e-21)
(1.00805 -0.00241258 0)
(1.00793 -0.00330696 0)
(1.00859 -0.00304853 -9.97232e-22)
(0.593612 0.277453 -5.91162e-22)
(0.635316 0.240918 2.60205e-21)
(1.01249 0.000152836 3.6e-22)
(1.01229 0.000127752 6.05128e-22)
(1.03089 0.00146709 -2.81067e-21)
(1.03139 0.00111875 2.50434e-21)
(1.09983 -0.201076 3.73256e-21)
(1.08242 -0.202184 3.11934e-21)
(1.08856 -0.184671 8.78796e-21)
(0.900845 -0.173831 2.21341e-23)
(0.887231 -0.175897 -2.56137e-21)
(1.01923 -0.00408144 8.02554e-22)
(1.01907 -0.00385861 0)
(1.01936 -0.00392394 -7.17528e-22)
(1.02677 -1.92445e-05 -4.61035e-21)
(1.02709 0.000257925 2.3966e-22)
(1.02187 0.00362109 0)
(1.02199 0.00313355 0)
(0.961584 -0.141341 0)
(1.01764 0.00238163 9.56136e-22)
(1.01761 0.00195227 0)
(1.01828 0.00235368 7.59867e-22)
(0.984883 -0.0067105 2.29649e-21)
(0.984616 -0.0109394 -6.06785e-22)
(1.04499 -0.00541449 0)
(1.04459 -0.0061049 -2.49257e-21)
(1.04406 -0.00532167 0)
(1.06205 -0.000495305 3.24247e-21)
(1.06038 -0.00048578 3.22989e-21)
(1.06148 0.000837356 -1.15901e-21)
(0.949922 0.106248 -4.29548e-22)
(0.956635 0.0972545 1.20233e-21)
(0.88933 0.0904941 -4.35853e-22)
(0.884421 0.104927 -2.13253e-21)
(1.03445 -0.00445948 2.11281e-21)
(1.03439 -0.00371755 -1.44428e-21)
(1.20632 -0.0598955 3.63762e-21)
(1.20074 -0.0357899 6.1311e-21)
(1.01088 0.000186903 -4.37569e-22)
(1.01172 0.000202761 2.79636e-22)
(1.01085 -0.00867207 -1.00706e-21)
(1.01154 -0.00951512 1.32738e-23)
(1.01173 -0.00849368 -1.98987e-21)
(0.920549 0.244351 -3.12105e-22)
(0.914969 0.23378 -3.17005e-21)
(1.02124 0.00367769 3.51869e-23)
(1.02183 0.00408938 0)
(0.755891 0.115295 2.37894e-21)
(0.750963 0.135913 9.61557e-22)
(0.737701 0.0789897 -1.34369e-21)
(1.1026 0.018413 0)
(1.10482 0.012003 0)
(1.1104 0.0176782 2.22359e-22)
(1.02468 -0.000860587 -1.19771e-21)
(1.02492 -0.000639113 1.95365e-21)
(1.02444 -0.00063981 -4.12494e-21)
(1.03983 -0.00482223 0)
(1.01979 0.000247632 0)
(1.01968 0.000125801 -7.80951e-23)
(0.974348 0.0414179 2.38489e-21)
(0.964948 0.0390557 0)
(1.11801 -0.18975 4.61356e-21)
(1.00731 -0.0184149 0)
(1.00851 -0.0168058 0)
(1.01374 -0.000566581 -4.51485e-22)
(1.01359 -0.000428407 -4.65265e-22)
(1.01379 -0.000484852 8.00248e-23)
(1.09696 0.0191845 -3.24967e-22)
(1.10039 0.0248369 6.21912e-22)
(1.04819 0.00743729 2.99613e-21)
(1.04815 0.00968774 4.03464e-21)
(1.05005 0.00863473 1.42638e-21)
(1.01823 0.00317596 -1.85538e-22)
(1.01848 0.00308199 -3.8502e-23)
(1.01765 0.00294768 -7.192e-23)
(1.01767 0.00279537 1.76698e-22)
(1.04527 0.00175286 -1.39209e-21)
(1.04555 0.00109578 1.01121e-20)
(1.01204 0.000164617 1.68397e-22)
(1.01232 0.000145684 8.22524e-23)
(1.01196 0.000146205 -3.92609e-23)
(1.04757 -0.00395873 3.22756e-21)
(1.04892 -0.00481996 0)
(1.04888 -0.00310548 -6.40016e-21)
(0.764207 0.0956263 0)
(0.774208 0.139215 1.35948e-21)
(1.02232 0.00110141 -4.45279e-22)
(1.02195 0.00106807 1.37871e-21)
(1.02219 0.000893804 -1.25412e-22)
(1.01615 -0.00254372 -3.44643e-22)
(1.01607 -0.0023761 1.50604e-22)
(1.01625 -0.00222377 -7.61994e-22)
(0.897241 -0.130382 2.70001e-22)
(0.910941 -0.1303 2.26612e-23)
(1.00609 -0.00544358 -1.06904e-21)
(1.0062 -0.00414128 -1.14769e-21)
(1.005 -0.00483577 8.95091e-22)
(0.988295 -0.00628479 4.50305e-21)
(0.985347 -0.00264408 2.75109e-21)
(1.0207 0.00316664 3.62148e-23)
(1.02158 0.00292232 -1.10394e-21)
(1.02055 0.002429 6.56208e-22)
(1.01658 -0.00205544 4.06182e-22)
(1.01671 -0.00200182 0)
(1.01681 -0.00179822 0)
(0.909005 0.160367 0)
(0.892173 0.170963 2.10235e-21)
(1.01619 -0.00265512 1.17451e-22)
(1.01629 -0.0025298 1.16134e-22)
(1.01622 -0.00276009 4.62507e-23)
(1.01331 -0.000715276 4.93562e-22)
(1.01329 -0.000530974 0)
(1.01366 -0.0023938 -9.97946e-22)
(1.01374 -0.00228208 -4.65631e-22)
(1.02564 -0.00187844 9.15467e-22)
(1.02706 -0.00168808 8.03681e-23)
(1.01335 -0.00093983 -3.18023e-23)
(1.00942 -5.8967e-05 5.97576e-23)
(1.00801 7.56292e-05 0)
(1.0304 -0.0117913 3.05404e-21)
(1.0306 -0.011114 7.68411e-22)
(1.03119 -0.0118211 9.77382e-24)
(1.05231 -0.0046716 0)
(1.05163 -0.00414494 4.38601e-21)
(1.05149 -0.00492167 3.30871e-21)
(1.04982 0.0183911 2.25828e-21)
(1.04896 0.0151856 -1.04124e-21)
(1.05157 -0.00597045 2.18365e-20)
(1.0503 -0.00557545 6.76446e-21)
(1.0513 -0.0046487 -2.2142e-22)
(1.01652 -0.00226277 -2.08616e-22)
(1.01643 -0.00234471 -3.59957e-22)
(1.01657 -0.00222662 4.30984e-23)
(1.04046 -0.0266255 -1.2001e-21)
(1.03857 -0.0267863 6.25409e-22)
(1.03985 -0.0285529 -3.86442e-22)
(1.01541 -0.00279631 2.791e-22)
(1.01566 -0.0028576 -3.63665e-22)
(1.01541 -0.00325235 4.39865e-22)
(1.05298 -0.00507514 0)
(1.05303 -0.00424691 0)
(1.00257 -0.0032998 4.41263e-22)
(1.0017 -0.00514457 1.11994e-21)
(1.00376 -0.00515282 1.11869e-21)
(1.0165 0.00234216 -7.06573e-22)
(1.01709 0.00240806 2.52147e-22)
(1.01657 0.00200379 -3.32157e-22)
(0.905868 0.218191 -2.11369e-21)
(0.91633 0.225637 -1.37942e-22)
(0.907447 0.233181 -4.72643e-22)
(1.01606 -0.00285459 2.49838e-22)
(1.05106 0.0219636 -4.00931e-22)
(1.05326 0.0188436 -2.91695e-21)
(1.00806 7.27995e-05 -9.80757e-23)
(1.00955 -4.50646e-05 -9.01376e-23)
(1.0086 -2.02942e-05 -8.60074e-22)
(1.05954 -0.00985739 3.72715e-21)
(1.06085 -0.0112437 1.23651e-21)
(1.01968 0.00348948 3.25878e-24)
(1.02016 0.00347381 -1.0645e-22)
(1.01973 0.00332174 1.50106e-23)
(1.0195 0.0036986 1.24126e-22)
(1.01924 0.00344716 0)
(1.06366 -0.00026763 3.18208e-21)
(1.06244 -0.00160001 3.21791e-21)
(1.06542 -0.202218 -5.13416e-21)
(1.07396 -0.218766 -1.46752e-20)
(1.01715 -0.0181236 -5.55613e-23)
(1.016 -0.0171745 -4.98647e-23)
(1.01726 -0.0166834 -6.74318e-23)
(1.01652 0.0027038 0)
(1.01609 0.0023128 0)
(1.01553 -0.000911356 3.80661e-22)
(1.01583 -0.000822969 -1.48961e-22)
(1.01544 -0.00067492 1.02574e-21)
(1.05624 -0.0301675 0)
(1.05593 -0.0276813 0)
(1.05366 -0.0296408 0)
(1.02515 -0.000417743 1.97065e-21)
(1.0254 -0.000192967 1.91437e-21)
(1.0249 -0.000161651 0)
(1.03805 0.00116079 -7.15057e-22)
(1.03765 0.026314 -6.70529e-22)
(1.0301 0.0121351 1.80437e-21)
(1.03939 -0.0241224 -6.2436e-21)
(1.04552 -0.0100529 3.51663e-22)
(1.0194 -0.00428798 -3.03221e-23)
(0.947293 -0.124812 4.23708e-22)
(0.935666 -0.1272 1.68456e-22)
(1.01933 -0.000243862 2.86703e-21)
(1.01928 -0.000215045 5.79111e-22)
(1.01933 -0.000183537 -1.16085e-21)
(1.05214 -0.00735322 7.03432e-21)
(1.02531 -0.00289141 -1.42316e-21)
(1.02448 -0.00195285 -9.64965e-22)
(1.01859 0.00352126 -2.08131e-22)
(1.01843 0.00333712 -4.98918e-23)
(1.01881 0.00340615 0)
(1.00814 -8.6225e-05 0)
(1.00591 -5.04216e-05 -7.84306e-22)
(1.00812 -4.61396e-05 0)
(1.01121 -2.11253e-05 4.94886e-22)
(1.01038 4.18638e-05 1.56609e-22)
(1.02449 -0.00111632 -2.15952e-21)
(1.02488 -0.00108695 -2.403e-21)
(1.03009 -0.0125008 1.98289e-21)
(1.02961 -0.011744 2.31984e-21)
(1.05738 -0.0083355 0)
(1.05591 -0.00795743 0)
(1.0564 -0.00904506 0)
(1.01231 -0.000543588 -4.28707e-22)
(1.01198 -0.00043198 7.40796e-24)
(1.0125 -0.000617252 5.29158e-22)
(1.02647 -0.000277766 -4.36234e-21)
(1.02701 -0.000326901 -1.40663e-22)
(1.02271 0.00113741 -1.72995e-21)
(0.929086 0.1757 1.81822e-21)
(0.932531 0.160721 2.84892e-22)
(1.01317 -0.0173699 6.11352e-24)
(1.01171 -0.0173306 -1.35173e-22)
(1.01251 -0.0160565 7.38451e-23)
(1.00678 -0.00021563 -2.85451e-22)
(1.01111 0.000205842 2.2997e-22)
(1.00935 0.00023071 1.15271e-22)
(1.01015 0.000193466 0)
(1.01094 -0.0120149 -7.8811e-22)
(1.01059 -0.0135891 1.26462e-21)
(1.04018 -0.00806933 -1.85984e-21)
(1.0404 -0.00885931 3.03715e-21)
(1.03942 -0.00855578 -1.39978e-21)
(1.05879 -0.00869379 0)
(1.05811 -0.00736587 -1.78699e-21)
(1.01905 -0.000545409 -6.81163e-22)
(1.0191 -0.000635505 1.55526e-21)
(1.01915 -0.000541095 -5.9202e-22)
(1.02264 -0.331521 6.0651e-21)
(1.0355 -0.339138 8.40216e-21)
(1.04222 -0.31797 4.34116e-21)
(1.0139 -0.00072163 0)
(0.824247 0.0906049 4.00245e-21)
(0.826598 0.0404655 -2.23525e-21)
(0.81032 0.0589399 1.17165e-20)
(0.95342 0.226239 3.37037e-21)
(0.945626 0.227483 1.81754e-22)
(0.948961 0.232837 -1.545e-21)
(1.00609 2.68306e-05 1.68772e-23)
(1.00795 4.33492e-05 -1.50394e-22)
(1.00839 -8.26272e-05 3.89811e-23)
(1.00917 -0.000206743 -4.62941e-22)
(1.00992 -0.000303288 -5.78387e-23)
(1.01521 0.00246583 1.32048e-21)
(1.01491 0.00236852 -7.38504e-22)
(1.0151 0.00275424 -1.13675e-21)
(1.05641 -0.0326484 -1.70414e-21)
(1.05871 -0.0304521 0)
(1.05304 -0.0157794 9.30923e-22)
(1.05345 -0.014572 9.14798e-23)
(1.05179 -0.0151136 5.41532e-21)
(1.02478 -0.00372459 -5.52814e-22)
(1.0237 -0.00362178 1.40882e-23)
(1.02423 -0.00448246 1.05905e-21)
(0.828307 0.130044 -6.51974e-21)
(0.839823 0.116932 -5.82195e-21)
(1.01894 -0.000242707 2.38773e-21)
(1.01853 -0.000308564 -1.43656e-21)
(1.01904 -5.96639e-05 1.38369e-21)
(1.01551 0.00251012 5.98295e-24)
(1.01525 0.00215707 5.32403e-23)
(1.0527 -0.0171097 1.65433e-21)
(1.0544 -0.0166151 8.81698e-22)
(1.02792 -0.0148793 1.27346e-21)
(1.02889 -0.0149377 -1.36669e-21)
(1.02833 -0.0158039 -1.36721e-21)
(1.02974 -0.00800257 1.72257e-21)
(1.02914 -0.00769439 -4.75654e-21)
(1.02979 -0.00744445 -7.70332e-22)
(1.00455 -0.00227271 8.65397e-22)
(1.00402 -0.00379261 1.74213e-21)
(0.983525 0.0431457 -2.07467e-21)
(1.01826 -0.00155272 -8.00036e-23)
(1.0186 -0.00131048 -8.99886e-23)
(1.01863 -0.00160603 3.83437e-22)
(1.05549 -0.0255979 -1.17648e-21)
(1.0532 -0.0251319 -1.05695e-21)
(1.05495 -0.0235409 -2.81541e-21)
(1.04579 -0.00537536 -2.084e-21)
(1.04516 -0.00473901 0)
(1.01709 -0.00212388 1.85457e-23)
(1.01735 -0.00203372 -3.85987e-23)
(1.01729 -0.00215886 2.7149e-22)
(1.05737 0.0182188 -5.27618e-22)
(1.20318 -0.119568 -2.03186e-21)
(1.20844 -0.103369 1.84675e-21)
(1.19957 -0.122847 5.11005e-21)
(1.05455 -0.00122908 -2.74423e-22)
(1.05265 0.00877288 -1.1184e-22)
(1.02064 0.00356586 1.95685e-22)
(1.02057 0.00391431 2.1787e-22)
(0.628411 -0.170645 -1.31447e-21)
(0.695982 -0.166123 3.9481e-21)
(1.04063 -0.00969489 5.60967e-21)
(1.04083 -0.0105769 -2.44674e-21)
(1.03978 -0.0102318 1.28233e-21)
(0.869493 0.289136 -7.75766e-21)
(0.86031 0.275057 -2.93421e-21)
(1.091 0.0194734 -3.19242e-22)
(1.08969 0.0250207 4.99367e-22)
(1.01689 -0.00195946 -1.97979e-22)
(1.01641 -0.00166471 2.87415e-22)
(1.01643 -0.0020604 -6.60518e-23)
(1.04914 0.002712 -6.94486e-21)
(1.0499 0.002548 8.15928e-21)
(1.09301 0.0140967 -6.88157e-23)
(1.00836 -0.00755793 1.48552e-21)
(1.00875 -0.00875594 -1.05021e-21)
(0.991682 -0.0058663 -1.78138e-21)
(0.991251 -0.00921858 2.52306e-21)
(1.03654 0.0133038 -3.82488e-22)
(1.03707 0.0101464 -8.93951e-21)
(1.03387 0.0121734 6.65907e-21)
(1.01344 -0.00228248 -1.07084e-21)
(1.01335 -0.00211847 7.13851e-23)
(1.01324 -0.00217788 -5.12826e-22)
(1.01302 -0.000294621 0)
(1.01438 -0.00064247 6.24274e-24)
(1.03033 0.00158349 -4.3979e-22)
(1.03034 0.00117248 5.46166e-22)
(1.01041 1.8139e-05 8.11912e-22)
(1.01047 2.83171e-05 -6.82736e-23)
(1.00925 3.49215e-05 2.98288e-21)
(1.01813 0.00614529 6.9664e-22)
(1.0169 0.00578073 -1.66111e-21)
(1.17947 -0.0226063 1.62565e-21)
(1.15893 -0.0288304 -1.44536e-22)
(1.16379 -0.0148218 1.00809e-21)
(1.01824 -0.00533804 2.48437e-22)
(1.01846 -0.0055659 7.81344e-22)
(1.01683 -0.00219278 1.70551e-23)
(1.01691 -0.0021341 -2.47288e-22)
(1.0071 -0.313574 -4.23013e-21)
(1.00619 -0.0068556 -1.07298e-21)
(1.00713 -0.00592968 -1.86908e-21)
(1.02168 -0.0013665 -5.52606e-22)
(1.02056 -0.00119496 -8.46209e-22)
(1.02067 0.00327272 -3.62669e-22)
(1.03829 -0.0154825 1.7678e-21)
(1.03948 -0.0159884 3.90927e-21)
(1.03913 -0.0148661 5.96981e-21)
(1.01352 -0.00247939 2.42254e-22)
(1.19553 -0.0153815 -2.13357e-21)
(1.03997 -0.00731952 -5.2439e-22)
(1.03973 -0.00656945 -4.33128e-21)
(1.039 -0.00701379 0)
(1.02625 -0.00321211 5.63896e-22)
(1.02647 -0.0034578 -2.35879e-21)
(1.02601 -0.00350534 0)
(1.02668 -0.0123685 -1.40821e-21)
(1.0271 -0.0131354 -1.44953e-21)
(1.02622 -0.0130387 -6.82928e-22)
(1.00507 -0.00788606 -4.7852e-22)
(0.872579 -0.182765 0)
(0.859715 -0.170592 2.91822e-21)
(0.878547 -0.169735 -1.04503e-21)
(1.03291 -0.00332505 -2.75491e-21)
(1.03235 -0.00371379 6.6183e-22)
(1.02599 -0.0624903 0)
(1.02505 -0.0578013 0)
(1.02154 -0.0609911 -5.95301e-23)
(1.0176 0.003083 -2.31058e-23)
(1.05686 0.00642081 -2.77598e-21)
(1.05612 0.00505506 5.69265e-21)
(1.05772 0.00568502 -1.49798e-21)
(0.934147 0.0974399 -3.08754e-21)
(0.859474 0.098125 0)
(1.0013 -0.00516219 1.12017e-21)
(1.00837 -0.00273074 0)
(1.05733 0.00797249 1.90999e-22)
(1.0554 0.0072828 8.08909e-22)
(1.03711 -0.0146876 -1.95568e-21)
(1.03714 -0.0159422 -2.16459e-21)
(1.01353 -0.0172943 3.8673e-22)
(1.01321 -0.0153389 1.18774e-22)
(1.01199 -0.0165129 -1.74999e-21)
(1.20817 -0.0783193 3.4363e-21)
(1.19303 -0.0596838 -1.94634e-21)
(1.00825 -0.000104119 4.72846e-22)
(1.00967 5.08571e-05 2.65297e-22)
(0.893848 0.208239 3.3154e-21)
(0.904077 0.201183 3.25428e-21)
(1.00567 -0.00206783 -3.6814e-22)
(1.00512 -0.000926955 7.32866e-22)
(1.01152 0.000173394 -7.1561e-22)
(1.01212 0.000199717 1.63469e-22)
(0.962742 0.224974 5.166e-21)
(0.957884 0.217735 -2.9456e-21)
(0.994557 -0.00565578 4.07466e-23)
(0.99226 -0.00267794 -4.59231e-22)
(1.1928 -0.13003 -5.62198e-21)
(1.18032 -0.0966169 4.40635e-24)
(1.02596 -0.00300028 5.64567e-22)
(1.02644 -0.00298587 2.22887e-21)
(1.04625 -0.00267243 -5.59158e-21)
(1.04617 -0.00499592 9.03674e-22)
(0.987116 -0.158252 -6.69527e-21)
(0.983124 -0.169757 -2.2478e-21)
(1.01599 0.0124503 -7.71929e-23)
(1.01786 0.0140472 8.30653e-22)
(1.01792 0.0117001 1.03913e-21)
(1.01721 -0.00427519 1.12803e-22)
(1.01703 -0.00407436 -2.79762e-22)
(1.01719 -0.00407095 -5.24718e-22)
(0.926262 0.192164 -1.06841e-20)
(1.0537 -0.000749026 9.73856e-22)
(1.05333 -0.000614579 -1.98137e-22)
(1.05335 -0.000945115 3.31038e-21)
(1.05392 -0.0118309 7.12553e-23)
(1.04076 -0.0249555 -6.03614e-22)
(1.04233 -0.0264978 -1.63696e-21)
(1.03267 -0.00278319 0)
(1.03243 -0.00225986 0)