/*--------------------------------*- C++ -*----------------------------------*\
| =========                 |                                                 |
| \\      /  F ield         | OpenFOAM: The Open Source CFD Toolbox           |
|  \\    /   O peration     | Version:  v2012                                 |
|   \\  /    A nd           | Website:  www.openfoam.com                      |
|    \\/     M anipulation  |                                                 |
\*---------------------------------------------------------------------------*/
FoamFile
{
    version     2.0;
    format      ascii;
    class       volScalarField;
    location    "850";
    object      ddt0(k);
}
// * * * * * * * * * * * * * * * * * * * * * * * * * * * * * * * * * * * * * //

dimensions      [0 2 -3 0 0 0 0];


internalField   nonuniform List<scalar> 
18758
(
1.24598e-06
3.15506e-05
1.6201e-08
2.30086e-06
-1.44125e-06
2.33165e-09
3.92589e-08
1.89822e-08
-1.49468e-06
-1.60127e-06
0.000474769
-0.000558318
5.28435e-05
-1.31179e-07
4.46675e-08
1.66345e-08
-7.16748e-05
2.19427e-08
4.34743e-08
6.85312e-07
0.000841726
-3.26815e-05
3.34147e-09
5.50144e-08
-7.22435e-06
-0.00988452
0.00755111
-5.62734e-06
5.89817e-06
0.000309545
0.000541159
0.0102751
3.25629e-08
-0.00792551
-1.21995e-06
0.000360545
9.57728e-05
-1.21991e-06
-0.00315905
4.60149e-08
-0.00101722
-1.79439e-06
0.00144259
-3.89502e-07
-5.66013e-10
0.000447057
-1.82628e-06
5.46945e-06
0.00629167
6.76072e-07
0.000811335
0.0107576
1.1709e-06
9.3761e-07
5.00544e-06
1.34698e-05
4.20323e-08
6.60641e-07
3.2885e-06
6.50532e-08
-3.56899e-09
-4.78068e-07
0.00920329
0.0146729
-5.36943e-09
-0.0241201
-4.41678e-08
2.77596e-08
-5.73081e-06
1.40857e-08
0.00900294
-0.0421687
2.5878e-08
4.02416e-07
-4.58446e-06
-0.000123408
0.0102444
-0.000519166
-1.62927e-06
0.00150089
5.52717e-06
-0.00551054
-0.000525006
-1.13685e-06
3.46329e-07
5.83796e-06
-2.14307e-07
4.88709e-07
0.00682921
5.98164e-06
0.00533435
2.11706e-08
3.25807e-06
0.00332201
2.12226e-08
-7.71564e-09
3.0168e-09
2.37758e-06
-0.000108411
-3.30713e-08
-0.00020968
1.19178e-06
3.13037e-08
-8.13885e-09
-0.026607
0.000843015
5.94118e-06
0.00477583
0.010744
0.000123921
2.13366e-08
0.00478516
2.44903e-06
-4.68944e-08
1.28252e-06
0.014436
2.23136e-06
9.16732e-08
0.0465731
1.80733e-06
3.2801e-10
0.00883674
9.08081e-07
1.86216e-08
0.0045973
1.10244e-06
-3.12284e-07
1.38549e-08
1.07941e-05
0.00372648
3.92176e-06
3.05043e-08
-8.98504e-07
-0.0146186
3.04269e-08
1.29352e-08
-0.0083666
1.11738e-06
1.16399e-05
5.2409e-06
3.28246e-06
-0.00159087
7.80987e-07
0.0104804
0.00466692
1.63527e-06
-0.0258332
8.90807e-06
0.000187569
-0.0116456
0.00438021
0.00443663
-9.36022e-09
-7.57736e-07
-0.000655414
0.010486
3.46673e-06
1.19371e-05
-1.34715e-06
0.000160366
0.00417913
2.66957e-08
-0.00766136
-0.0266514
0.000404394
1.45359e-07
2.89782e-08
0.00537161
0.00400292
-0.00181887
0.00198931
1.30975e-08
7.18314e-06
-0.000676035
0.0078813
6.96625e-08
2.79184e-08
0.00059634
-0.00580484
-7.47878e-08
2.82481e-08
1.38394e-06
6.18472e-06
-1.28743e-07
-0.0166418
-1.65895e-08
0.000451215
2.83079e-06
-7.37799e-05
-0.000184828
0.0041624
-1.49741e-08
-5.8463e-06
-0.00955631
9.15791e-09
-1.18045e-07
0.000108858
-4.28424e-09
-0.00100692
-7.77531e-09
1.31693e-06
8.71282e-06
-3.72952e-05
1.3982e-08
2.42348e-08
-0.00843529
6.77153e-08
-1.20026e-06
0.00408877
0.00333798
-9.15978e-09
3.75747e-06
1.90583e-06
4.87413e-07
5.23065e-07
5.63326e-09
1.32807e-08
3.53647e-06
-7.27883e-09
-0.00131236
-0.00991241
9.68384e-08
6.76314e-07
7.89925e-06
-2.66698e-05
0.00271033
-6.57609e-06
4.99888e-06
0.00976225
6.29711e-08
-0.00977201
1.72664e-06
0.00797404
-2.03408e-10
2.06029e-09
1.07445e-07
-5.49479e-06
0.00854508
0.00185151
7.72518e-08
2.53238e-08
-4.82376e-06
2.34864e-06
7.2792e-09
-0.0135373
-0.00126613
4.53846e-10
1.46243e-08
6.40631e-08
-3.31534e-08
0.00169784
-1.49198e-07
9.69772e-05
6.97803e-08
4.869e-08
0.0182322
9.85764e-08
-0.0375528
2.26445e-08
-0.00370602
3.37601e-06
2.54083e-08
-1.44895e-09
-5.46411e-06
0.000101263
-3.64568e-05
2.29909e-08
7.30802e-06
-4.03518e-09
-1.05482e-07
0.0509623
-0.0213445
-1.06657e-07
8.63858e-08
7.13739e-07
5.2112e-07
-7.13525e-07
-5.93492e-09
6.85613e-07
-1.25135e-07
1.2153e-08
3.04303e-08
2.60069e-08
-0.0265248
4.12992e-08
7.75208e-08
4.82792e-09
2.43353e-06
-8.77931e-09
-8.73206e-09
4.87401e-09
-8.75691e-08
-4.04455e-08
3.91945e-08
4.26127e-08
-2.39451e-08
0.0025229
5.24704e-08
6.71991e-08
0.00450295
-2.81046e-07
1.19493e-08
1.28327e-08
0.000528031
0.000553977
2.91966e-08
-4.14235e-05
0.00101946
-7.67838e-07
9.10943e-06
2.44237e-08
8.02958e-06
3.9972e-05
-3.83939e-06
5.50071e-06
-0.0075229
3.81266e-08
0.00165293
1.06316e-05
-4.18192e-08
-4.53533e-06
-1.06612e-06
-0.0117148
4.60216e-09
3.54355e-08
0.00344669
0.0007513
9.84531e-09
0.00518084
-3.73719e-06
4.0541e-06
-0.00518811
7.07552e-09
6.17552e-08
2.34269e-08
-5.05214e-08
1.61036e-07
9.73007e-07
-1.23186e-08
4.57037e-08
1.37509e-07
5.46955e-08
0.0147417
0.000494107
7.72396e-07
0.000995587
-3.62504e-05
1.09753e-08
-2.64415e-07
0.00070676
4.98158e-06
-0.000681136
9.58298e-05
-1.52965e-08
0.00679154
-0.00494371
3.73241e-06
5.14691e-08
3.45016e-07
7.02866e-07
-3.74737e-07
0.000455373
-0.00157427
0.000608838
-9.02682e-06
-0.00100334
-2.17655e-11
-3.78198e-07
1.40722e-06
2.03762e-06
0.00692136
0.0120128
0.00564023
-8.26981e-06
-0.00116766
0.000193035
5.16779e-08
-0.0207889
9.1757e-06
0.000703027
0.000903053
-1.50737e-10
5.14868e-08
-6.75492e-06
-0.000246113
-0.00464774
0.0472476
0.00485113
7.11878e-08
-0.00123019
-0.000305386
1.86642e-08
-1.07165e-07
6.80581e-07
-2.93797e-07
-1.06367e-08
8.40973e-07
-1.37865e-08
4.41098e-08
-9.23258e-09
5.79124e-07
-1.01814e-06
-0.0142378
-1.94281e-07
-0.018769
-0.0222818
0.00596638
-0.0158052
1.03997e-05
7.49556e-08
4.54354e-08
0.00129258
-1.00649e-07
9.95405e-08
0.015937
1.65569e-06
-0.00381782
5.80013e-08
0.0181909
6.58088e-10
-2.86409e-07
2.6466e-08
-0.006824
0.000174001
-0.00132484
4.40625e-08
0.00106168
3.12721e-06
1.92564e-08
-2.02103e-06
-4.2663e-09
0.00568611
6.8875e-09
3.28578e-08
-0.000112324
-2.09411e-07
9.17449e-08
2.30788e-08
9.45903e-08
-1.20986e-07
-0.0103791
-0.000242241
3.30664e-08
-0.024988
2.61685e-08
5.30497e-07
4.99484e-06
-2.78991e-10
0.00200907
2.88315e-08
-1.55803e-07
8.00923e-09
0.0020956
-1.2192e-06
-1.55719e-08
0.00848656
0.000644849
2.01413e-09
-3.87613e-07
1.39038e-08
1.57325e-08
-2.41666e-08
1.50622e-08
-3.00953e-05
0.00915006
-3.41607e-08
-2.00841e-06
0.00500772
0.000404599
0.0023542
-0.000963605
0.00200503
6.81869e-08
1.00514e-05
-4.22255e-06
-2.2493e-07
6.23113e-08
-0.00162632
0.000462343
2.42321e-07
2.92733e-09
4.63271e-08
-1.31975e-08
-1.37185e-09
-1.24063e-08
3.962e-09
4.23206e-06
-3.88447e-08
1.22556e-08
2.97983e-06
3.47524e-08
-4.70449e-09
5.76216e-08
1.36872e-07
0.000414697
0.000518479
4.14888e-08
0.000919777
5.49478e-08
-2.59262e-07
6.90824e-06
0.00803821
-8.89854e-06
1.80035e-08
-1.62523e-08
0.00896815
-0.00978595
8.36629e-05
6.42279e-08
-0.00340023
-0.02563
6.8146e-09
5.44881e-08
-0.00162113
5.43138e-07
5.84695e-06
7.30996e-05
-2.15067e-06
-1.99407e-06
1.44956e-08
6.59677e-08
1.36384e-08
4.02606e-08
8.29304e-08
-1.76948e-09
0.00338125
4.75618e-09
-0.00297002
0.00982609
2.86641e-09
4.9744e-09
-3.57263e-08
-5.35246e-07
1.68907e-06
-0.000805427
-3.91331e-08
-7.38075e-05
-8.45408e-07
-1.98622e-07
-1.01799e-07
4.14507e-07
6.5375e-09
-3.20937e-08
-3.47641e-08
0.00316054
-0.0162277
1.24506e-08
7.20953e-08
-7.93248e-08
0.00948398
3.03901e-08
1.33259e-08
2.52816e-09
1.55153e-08
8.25103e-08
-9.09322e-08
6.33344e-07
1.39966e-08
2.57086e-06
-3.63836e-08
1.46653e-07
-6.73708e-06
0.00774599
-9.77815e-07
-2.36776e-07
6.57425e-09
4.35273e-10
3.36932e-08
1.44717e-06
-0.000507806
0.00136315
-8.29012e-08
0.00175614
1.17157e-08
-1.55926e-07
-3.49492e-07
1.74121e-08
1.76592e-06
5.71661e-09
4.9584e-08
0.00718577
1.93573e-08
-1.28444e-07
-7.56915e-06
1.82491e-08
-2.67457e-09
-0.00588184
8.86546e-08
-1.84495e-05
0.000210444
-1.69327e-08
4.49745e-09
-9.2103e-07
1.396e-07
1.68899e-06
6.67729e-08
-0.00361246
0.00143955
0.00152528
1.08153e-08
0.00505286
4.09138e-09
-1.13927e-08
-3.23425e-08
4.65861e-07
-0.000177853
-8.22413e-06
-1.13032e-07
-1.19692e-07
1.40545e-06
0.0108805
0.000103084
-3.85226e-09
-8.01949e-05
-2.99067e-07
0.0084485
-9.41308e-07
2.363e-05
-2.08494e-08
4.44429e-07
3.92431e-07
-2.2213e-08
-2.23181e-08
3.0939e-08
1.72417e-08
-6.32529e-07
-0.000262637
-7.80869e-06
0.00968599
1.87835e-05
-2.70064e-07
-3.74445e-08
1.66373e-08
-0.00370489
-1.7531e-05
8.33544e-08
8.25616e-07
0.00420793
0.00306438
-1.20712e-09
3.38664e-08
-1.43509e-06
0.0027001
-9.47916e-11
0.000648897
-3.89333e-08
4.07636e-08
-3.76086e-07
1.76895e-08
-3.4511e-08
-1.05231e-06
-1.01408e-09
9.80869e-07
-0.000450913
1.8507e-06
-0.00374691
3.45425e-07
8.75532e-08
0.049293
4.17088e-09
0.0442961
0.00154943
-3.30904e-08
-0.00443056
-1.28552e-06
-2.20584e-07
-0.00362051
2.91536e-05
0.000104862
-1.41343e-06
1.41647e-07
0.0114026
5.87751e-10
-0.00732453
0.00619645
3.31136e-06
-1.65925e-08
-0.00207852
-2.93029e-07
-3.8469e-06
0.00417202
-0.000812912
-8.23477e-09
0.00398171
-1.06184e-08
9.24643e-07
6.6573e-06
1.67193e-08
-1.26409e-06
0.011948
2.38042e-05
7.02332e-07
6.42348e-07
1.20817e-08
4.41328e-08
-6.33079e-07
3.16337e-06
-6.29317e-06
1.1603e-07
0.0353529
-2.10139e-07
-7.5723e-08
-2.98771e-07
1.52327e-08
-0.00010168
2.61966e-08
1.59299e-08
-0.0158932
1.46287e-08
8.52219e-07
0.000442423
3.21894e-06
3.05364e-06
-1.26107e-08
-1.22816e-07
-4.32402e-06
-1.16373e-07
0.00232943
-2.52474e-07
5.94382e-07
-5.78515e-08
4.50398e-10
6.44133e-09
0.00691237
1.60617e-08
0.0163146
1.79356e-05
-8.37961e-08
0.00674006
2.25869e-08
1.14325e-06
7.09719e-07
-0.015166
-2.28023e-07
-0.00263403
0.000407979
8.26824e-08
0.000235031
9.71899e-09
0.00204127
-1.34289e-07
-2.19476e-08
-0.00982419
0.00107293
2.6119e-08
7.88015e-08
6.21022e-08
-2.21287e-08
-1.34141e-08
-0.000952426
0.00286612
1.25241e-07
-2.36994e-08
1.06313e-08
-0.00797028
-8.77451e-06
7.17328e-05
2.34896e-09
-0.000140904
-2.08356e-08
-1.27016e-07
-2.66078e-07
1.57958e-05
-2.56664e-09
8.77908e-07
-0.005181
-1.74655e-07
0.000303937
-2.51551e-08
-9.09884e-07
-3.09543e-09
6.63735e-08
-4.33361e-07
-8.38081e-08
1.15258e-06
-3.70589e-09
-0.0219233
-1.19145e-08
-2.61414e-07
5.86275e-06
-1.61854e-05
7.1705e-07
4.76518e-08
9.43637e-09
-0.000517587
-0.000160828
-3.71525e-06
9.89455e-09
-2.21192e-08
3.87276e-07
-0.00684212
0.000946809
1.1941e-07
2.34194e-08
1.56548e-07
6.85396e-08
-1.20034e-06
1.37657e-08
2.00135e-08
0.00186034
2.5456e-08
-6.59575e-09
-0.000262275
1.7443e-08
-0.00535479
-6.45669e-06
0.0137748
-0.00662257
-0.00179414
0.00224593
2.36235e-08
-2.69513e-08
6.37353e-07
9.11332e-08
-4.15698e-09
1.21428e-08
-2.4915e-08
3.11951e-08
0.0190131
7.32652e-06
-0.00436071
1.77525e-06
-1.66186e-08
-1.01641e-06
-8.93888e-07
-4.8357e-06
-1.90985e-09
2.74101e-07
5.9104e-08
0.00754861
-0.0203602
0.00540726
-1.31721e-08
6.72251e-06
1.01081e-05
0.000578242
-0.00629896
-0.0113543
4.85976e-07
-2.69474e-06
-6.2279e-08
-0.00595968
1.02262e-07
-2.78371e-08
-4.55224e-06
-0.00254132
2.06461e-08
-0.000373903
-0.00170657
2.3751e-08
-1.27938e-08
1.98801e-08
1.05756e-07
4.88458e-08
-2.93828e-07
-1.28568e-06
5.00796e-08
1.15207e-07
0.00588482
0.00643886
4.45441e-08
-0.00213591
5.369e-06
7.02755e-08
-2.89099e-07
1.11526e-07
2.64114e-08
7.71456e-07
-1.69281e-08
-3.62533e-08
-2.93185e-08
-2.28717e-07
4.77773e-08
-0.0111409
-7.38978e-07
-3.64652e-08
7.83879e-08
-0.00776869
-8.52211e-09
-2.69138e-08
-0.0575299
-1.36427e-09
-1.91036e-06
-4.44926e-07
-1.09313e-08
3.16224e-09
-4.92274e-08
7.49526e-07
7.71516e-07
-2.27328e-08
-0.00233302
-5.03908e-06
9.63692e-06
-0.00600086
1.50236e-07
-3.865e-06
6.68391e-10
-0.00450856
-8.85318e-08
8.30831e-08
7.92102e-06
0.0289928
-3.28484e-07
0.0038491
-0.0342828
8.52553e-09
-4.14462e-07
-2.65967e-08
1.21928e-08
-7.34291e-07
-8.19476e-07
-4.66632e-09
0.000114804
-4.96956e-09
1.06034e-07
0.000714395
-1.34691e-07
-4.94208e-09
9.52352e-10
-0.0197956
7.90495e-08
-7.52642e-08
-1.26658e-06
-4.31059e-05
-0.00191108
0.00991367
0.00435309
6.76494e-08
1.64912e-08
-1.38969e-08
-0.000429752
-5.08427e-08
3.0092e-09
-1.97671e-07
7.18608e-08
-0.000618255
7.6299e-08
-3.36521e-08
-0.00972198
1.92259e-09
3.14047e-06
-9.45968e-05
1.5914e-08
4.75586e-08
0.0121021
5.55559e-07
0.00645469
-0.00465872
1.55403e-08
-2.60484e-08
-7.97509e-06
-3.37862e-09
-2.16793e-07
-0.00419554
2.59178e-08
0.00220449
2.3513e-08
9.23278e-08
4.90905e-08
-1.05157e-06
-8.65604e-07
0.00410028
1.66423e-08
1.13078e-09
0.00474976
0.000707817
8.008e-07
1.31515e-06
9.08718e-05
-0.00081238
-6.20641e-05
-9.95761e-10
-0.000375499
-5.26288e-09
0.00480371
0.00820801
8.39575e-08
1.36347e-07
9.50573e-08
0.00264304
-3.3474e-08
-0.0203829
-1.0907e-07
-0.0181764
6.21161e-06
-2.07747e-08
3.33885e-09
3.11465e-08
0.00563551
-0.00124794
-1.25715e-08
-0.00780766
5.18683e-09
-3.12021e-09
0.00285838
1.14798e-08
4.10227e-05
-2.69785e-08
-2.09741e-07
1.1448e-08
-3.18796e-08
-2.60837e-09
-3.5945e-08
-6.11843e-06
4.13283e-06
-4.22671e-08
-1.73508e-06
-3.53253e-07
3.88693e-08
-0.00146439
1.58475e-08
0.00473907
3.50965e-09
-0.000195742
-5.3274e-07
9.11338e-05
7.87199e-08
6.93822e-08
-3.91719e-09
0.0143521
3.95923e-08
1.01365e-05
-2.75773e-06
-2.63255e-09
-2.9728e-07
1.91073e-08
1.2927e-08
1.00541e-06
8.91377e-08
-0.000782855
-8.11812e-09
5.54667e-07
-6.37168e-08
-1.4534e-07
-0.027811
-0.00910742
-1.20991e-07
6.26027e-09
2.65228e-07
-2.99147e-07
-7.49232e-09
-1.25977e-06
2.32218e-07
2.68933e-08
7.79856e-08
1.16323e-07
5.6513e-06
5.42334e-06
-1.50374e-08
6.79429e-08
-1.09041e-05
4.43233e-07
0.00212442
-0.0208507
7.15245e-09
-0.00991868
-3.20941e-08
1.35702e-07
3.40821e-07
9.53816e-08
1.26682e-05
1.01972e-07
-1.73377e-06
-0.00284654
-8.64398e-07
-1.25854e-05
-0.0118626
0.00527932
1.7838e-06
-3.35463e-08
-2.44445e-08
-0.00285811
6.13595e-08
-3.31558e-08
-9.50062e-07
0.000172333
-3.89644e-08
4.33813e-09
0.00618483
-2.06808e-07
9.24834e-07
1.16036e-06
-2.27481e-07
5.17445e-07
-2.74153e-08
-2.45418e-07
-6.5086e-08
2.22996e-06
1.18393e-06
-3.0065e-08
-2.67046e-07
0.000369494
-3.02106e-08
3.28919e-08
-0.00311335
-1.15837e-09
-3.58226e-08
3.62434e-08
-3.91838e-08
6.42666e-07
0.00297598
9.33699e-06
-0.00269582
0.00138116
-0.00945325
0.00104554
8.31959e-07
0.00232518
-0.00309689
-1.03613e-07
-7.65662e-08
-7.14639e-09
-2.55792e-08
-4.32985e-08
5.04565e-07
-6.00624e-06
-7.83361e-06
-3.36755e-08
6.19782e-09
-1.47711e-07
1.25106e-06
0.00177992
3.37199e-09
2.54342e-07
-1.98824e-08
0.00579246
0.0061201
-1.17179e-06
-0.0228297
-3.58863e-08
-2.69776e-08
-4.03036e-06
5.40429e-08
-2.69238e-08
-7.46509e-06
-4.01504e-07
2.17291e-07
0.0029939
-6.42989e-06
2.21087e-06
5.80656e-09
-3.97373e-08
8.44638e-08
4.1071e-08
-0.0037879
-5.96253e-06
0.0118197
-0.00136919
-0.0118706
-3.50979e-07
-0.00586671
0.00689283
-0.0118246
6.07678e-06
0.00300981
-1.86902e-06
0.00137076
9.12624e-06
2.4734e-06
1.5046e-08
-4.52018e-09
-1.39009e-07
4.15607e-07
5.25858e-09
1.1246e-08
0.000101277
0.000980257
0.00102997
-0.0023825
5.43112e-06
-0.00237904
7.72943e-07
-4.12606e-07
2.77025e-08
0.00340717
0.000193367
1.89648e-08
-1.35298e-06
-0.0144752
0.00740638
0.00436697
-2.07417e-06
-3.01374e-06
1.58502e-08
0.00626849
-3.14849e-08
-0.00384664
-0.00109709
1.72435e-06
8.50949e-06
1.08146e-05
-2.53172e-08
3.20834e-08
0.00082535
-0.0014774
6.0061e-06
-3.56753e-07
4.84014e-07
1.0167e-06
-0.00185003
3.87207e-08
-0.00337598
2.84678e-09
0.00118451
0.00107706
3.659e-07
0.00896457
-4.94976e-06
0.00413973
1.67851e-08
2.71853e-06
0.0102357
-9.23245e-07
2.00158e-08
0.000180009
0.000582042
-1.90524e-08
1.96704e-08
0.000141225
1.53798e-06
-3.40028e-07
-0.0316036
0.00292201
-7.69612e-07
-4.17071e-07
-0.01371
-1.02136e-06
2.35043e-07
1.80965e-07
0.000283723
4.37829e-07
4.58047e-08
3.8462e-08
0.00673157
-5.51105e-09
0.00295574
-1.82882e-08
8.41202e-10
8.4925e-05
-9.30919e-08
-4.02307e-08
0.000171144
6.09277e-09
-1.85405e-07
-4.68294e-08
-5.07565e-09
1.78974e-08
5.04461e-06
2.29798e-07
-0.003988
5.56197e-06
-0.00226311
-0.0131751
-1.84808e-07
1.69471e-08
-3.88259e-09
0.0108616
-6.09292e-07
-2.2515e-08
-0.00385636
-1.657e-06
0.00156279
3.04252e-08
-1.23383e-08
1.43439e-08
8.14341e-08
-9.08391e-08
5.56881e-08
4.9276e-07
7.72617e-07
2.86373e-09
0.000969433
-2.88467e-07
-0.0017748
7.49655e-07
-4.3788e-08
-2.79042e-06
-0.0135491
0.00423536
0.00304442
-0.0263386
-0.000460219
-6.94132e-06
0.00563456
-1.64837e-06
3.2288e-06
-9.44623e-08
0.00646635
3.22905e-08
0.0040631
0.000755939
1.68374e-05
1.72415e-08
0.00163548
-2.31937e-08
2.20277e-08
3.0149e-08
-3.1813e-07
0.007689
-0.00722062
-5.72244e-09
7.32274e-10
1.11697e-07
-8.71475e-09
-4.559e-06
-1.03449e-08
0.00632728
-4.37134e-06
1.52216e-06
-4.23233e-07
-1.0769e-08
5.1999e-08
0.00573108
-1.65487e-05
7.40202e-08
-3.46011e-08
0.0061777
-7.08113e-09
-1.37925e-08
1.63087e-08
-6.32571e-08
1.16585e-08
-4.68464e-08
-4.64028e-08
-0.0020142
-1.92034e-07
0.00193381
3.65885e-08
-1.24709e-08
-1.22253e-06
3.15115e-07
9.77887e-07
-1.0039e-08
1.84467e-06
-0.000498196
0.000896811
3.27454e-06
-6.59132e-06
0.00597703
5.46464e-07
-8.79983e-08
2.01264e-08
2.48885e-08
7.65049e-08
1.45984e-08
-2.01717e-05
-2.40482e-06
-2.92638e-07
-3.86735e-05
7.11477e-08
2.72257e-07
-2.57196e-06
0.000230019
-1.50665e-09
8.31435e-07
-0.0100044
6.46784e-06
4.43902e-05
1.50965e-08
1.21685e-07
0.00408125
-1.93732e-06
1.75402e-08
-2.64982e-08
8.50927e-06
1.10739e-08
1.24313e-08
-0.0124606
-1.30821e-06
4.5469e-07
5.3393e-07
-3.27418e-07
0.00515998
-2.20582e-07
0.00545044
-0.00290868
3.98926e-08
5.65518e-08
0.00912928
-1.69162e-06
1.74009e-06
-5.48695e-08
3.63568e-06
-3.10725e-06
9.77474e-09
6.90428e-07
-1.61316e-05
-2.78035e-06
0.0048619
0.00122919
-5.91604e-07
-0.0037426
0.00593952
-2.79499e-07
0.00400803
-0.010491
1.93181e-06
-0.0160579
-3.55914e-08
-8.29492e-06
3.44995e-06
0.00301704
2.70762e-06
3.29583e-05
-1.06587e-07
-0.00175319
-2.09725e-08
-2.91446e-08
-0.0126744
8.38201e-07
-3.95003e-09
2.58409e-08
-2.33558e-07
6.79612e-09
1.65782e-07
3.03557e-08
1.91383e-08
-0.0202139
0.0132189
-1.24328e-08
6.12344e-08
0.00334225
-0.00233571
1.40819e-08
-0.000211781
5.01443e-06
3.44349e-07
-1.20101e-07
2.16498e-09
0.00551229
-1.78732e-07
-4.75035e-06
4.5564e-06
1.50261e-08
1.55449e-06
-0.0176641
4.06192e-08
-0.00177453
-0.00148525
0.00789354
1.76627e-07
4.0575e-08
6.72421e-09
-7.9712e-09
2.70143e-08
-0.00221169
-0.000498777
-2.14101e-09
-0.000493757
-7.24048e-06
-4.28744e-08
-3.43639e-08
2.49159e-08
0.00251173
0.00245799
-1.02285e-05
4.63862e-06
-1.91001e-07
-0.0176937
-0.00184355
1.207e-08
3.20522e-08
-6.02264e-07
-5.07055e-07
0.00499516
-0.00325448
1.87601e-08
0.00164825
-0.0018492
-9.1085e-07
1.92321e-08
-2.8727e-08
5.8887e-07
4.44908e-08
1.27047e-07
1.88948e-08
5.70815e-05
0.000391984
5.65766e-08
1.30052e-07
-1.77841e-06
7.81606e-09
2.60969e-08
2.1826e-07
0.00203813
1.57897e-08
-4.06067e-07
0.00919561
-2.66282e-05
1.23714e-05
5.55612e-06
4.55391e-07
-1.08948e-06
6.64023e-07
5.56549e-08
-3.07857e-09
1.93174e-07
0.00396903
-2.80658e-06
4.12969e-08
3.29157e-06
7.11131e-08
0.0066664
-1.60847e-05
-6.00695e-08
-0.00456975
4.93116e-08
-1.1632e-07
1.61065e-05
-0.0102448
-1.27413e-06
-2.13779e-07
-1.96838e-07
2.11686e-05
5.74806e-09
-0.0297016
-0.00556516
1.14989e-08
4.13814e-06
7.40794e-05
-8.70961e-09
1.75031e-08
0.00297327
8.6046e-07
5.09176e-08
-0.00137813
-3.08416e-07
2.96928e-08
-0.000437254
7.50856e-07
-0.00173613
9.992e-09
-0.00196449
8.36127e-07
1.65904e-08
-4.24091e-06
-1.34815e-06
6.98339e-07
-2.88882e-05
-0.0138032
0.000282922
-2.02876e-06
3.54902e-06
1.39376e-08
-0.0259624
-0.00205605
3.92984e-05
-0.00173139
-3.42156e-08
0.00406778
-5.99275e-08
3.05632e-08
-5.60808e-07
1.15467e-07
0.000182484
0.00100952
-2.8052e-08
-0.0347766
0.000529785
0.00329929
-9.37721e-07
-4.01877e-06
-5.94035e-10
4.1072e-07
-2.02906e-07
-8.25919e-09
0.00230507
-0.0205089
-0.0229927
0.00137416
-7.97826e-06
0.000821235
-0.0119997
1.40008e-08
-3.61196e-07
-0.00488731
-5.85353e-07
-8.44879e-08
-7.36923e-09
1.6129e-05
2.06363e-05
-6.27274e-07
3.60401e-08
9.61671e-08
-2.81054e-05
-2.45568e-08
-6.27131e-06
0.000237889
7.20454e-08
-0.0117788
3.41026e-08
0.0192585
-0.00360775
-0.00624667
-4.19243e-07
0.000422383
2.04629e-08
6.62813e-08
2.27307e-08
0.00449422
-2.3513e-06
0.00326104
4.27267e-08
-3.21672e-08
-1.78281e-05
-0.0152485
-2.28461e-08
7.27408e-06
-0.00466184
-0.00335275
0.0102298
7.2116e-09
-1.01749e-07
-0.00287357
-3.43304e-09
3.48742e-08
-2.21003e-07
-6.63835e-08
-1.25069e-08
-9.73374e-09
-4.67376e-09
-3.1095e-07
2.32175e-08
2.50308e-09
-3.42237e-06
3.77124e-07
-0.0217667
0.00682286
6.07529e-08
8.60549e-09
9.2048e-09
-5.57268e-06
-1.60579e-08
2.86068e-08
6.93422e-08
5.22204e-06
9.66991e-08
-2.52093e-08
1.91305e-07
0.000178441
0.000616518
1.14443e-08
-1.26742e-05
5.26905e-06
-5.09095e-07
2.19377e-05
0.000362039
-1.02368e-07
2.74391e-08
2.89074e-05
1.82736e-05
3.56025e-08
-0.000125589
0.000254454
6.04958e-09
0.0183871
2.10252e-07
-5.32909e-06
-6.16724e-05
0.0060264
0.00771381
6.72901e-07
-2.52977e-09
0.0241011
-5.18425e-07
0.00309909
-1.19393e-05
0.000197959
0.0202312
-2.62291e-08
6.61264e-07
-2.56888e-08
-0.000104487
-4.624e-06
0.0110395
3.73279e-08
1.61728e-08
-6.81392e-06
-3.07205e-07
0.0023502
1.0495e-07
-3.86138e-05
-0.0139387
-1.20272e-06
-0.043085
0.0060666
6.34737e-08
6.43798e-09
3.01619e-08
0.0040339
0.000248779
7.31e-08
2.60999e-08
2.39556e-07
9.8194e-09
1.14184e-06
7.01454e-08
-8.52697e-09
8.92982e-05
-1.0771e-08
8.55646e-09
-1.1815e-06
-0.0122275
0.00120093
0.006463
-2.88519e-08
-0.000205163
8.45885e-07
-2.48632e-07
5.51444e-06
-1.56835e-05
0.0051787
2.67382e-07
-2.00342e-06
1.48191e-08
-1.01596e-06
-8.81966e-06
-2.14875e-06
-0.000160147
-5.12241e-08
-6.50477e-06
3.29481e-08
0.000166662
0.000692675
-4.14688e-09
6.39995e-08
-4.67091e-08
-4.84298e-08
0.00573349
3.4061e-08
8.12095e-08
-6.96443e-08
-3.02046e-07
-8.59908e-10
4.15799e-08
5.31545e-09
-2.70181e-07
-1.05719e-08
1.48733e-09
0.00316171
0.00229301
-0.0410383
-5.23554e-08
1.10302e-08
1.29919e-08
-1.21567e-08
-1.15547e-08
7.84903e-07
-9.35018e-09
1.50791e-08
3.0963e-08
1.73976e-08
-7.91493e-07
1.77915e-08
-1.29212e-05
0.00340947
3.30366e-07
-0.0021758
-3.301e-08
-0.0010556
2.21764e-05
1.81648e-06
-3.88941e-08
0.00307488
2.23823e-08
3.79503e-08
-2.55123e-08
-0.000406628
5.60508e-06
2.45723e-08
-4.22903e-06
2.01918e-06
-1.05131e-08
8.33298e-06
0.00228548
8.91035e-07
1.3219e-08
1.69445e-07
-8.85033e-06
-1.06885e-07
-0.0256732
2.43131e-08
6.99694e-07
7.81982e-08
1.21759e-06
-1.9983e-06
0.000129338
7.9553e-07
4.44303e-08
0.0198766
8.8715e-06
-5.2514e-07
-4.50464e-09
4.31775e-07
-0.0147253
-2.52642e-07
-4.32006e-08
-3.92963e-07
0.00273055
1.74189e-08
-8.35911e-08
6.76421e-08
3.13706e-07
-1.55968e-07
0.000568732
-5.2735e-08
-2.37002e-07
-1.14389e-06
-0.0200789
3.94543e-08
-1.85025e-08
2.05362e-08
-1.50163e-06
8.40111e-09
-0.0110386
0.00064391
3.81402e-07
-0.000759681
1.00486e-08
0.0208722
3.84421e-08
1.50116e-08
8.61087e-07
-3.34459e-06
-3.22667e-05
-0.00347468
0.00257183
0.000271974
-1.28598e-06
-1.26128e-06
4.20553e-07
-0.00335368
6.24425e-08
3.15681e-08
-1.02093e-05
-1.88495e-08
0.000874757
0.000235101
-0.000432679
-0.00381574
-0.00274698
8.39093e-06
0.00111893
5.96006e-06
-2.06908e-07
-1.22102e-05
6.18148e-08
4.67584e-08
-1.59631e-08
0.0155043
0.00545583
0.000599769
3.72109e-08
-4.46814e-09
-7.91222e-05
2.01113e-08
7.68729e-06
-1.16431e-08
-2.55547e-06
2.3974e-08
-9.51807e-09
5.52958e-07
8.95412e-07
0.0188024
9.25135e-07
-1.04517e-06
5.89067e-08
5.54259e-06
-0.0125273
6.32292e-08
-3.72007e-06
0.00049665
-5.9284e-09
2.94624e-06
1.23015e-08
0.00190519
-1.31839e-08
-1.01127e-05
2.65567e-07
-8.34939e-09
-1.65639e-06
1.29349e-05
0.00505172
6.20801e-06
8.1974e-05
-1.45806e-07
3.87782e-08
5.25308e-10
2.69389e-09
4.23785e-08
1.46621e-09
0.00335408
-0.0125842
-8.99088e-07
2.34981e-07
1.47176e-06
7.42753e-07
1.09494e-08
3.84267e-08
4.47963e-06
0.000630317
0.00151861
4.02913e-08
-0.000831781
1.50921e-08
3.69161e-06
-1.41701e-07
4.17865e-07
0.00635886
0.00113801
0.00304866
-3.05375e-09
2.63296e-08
1.22613e-08
-7.22133e-09
7.14482e-08
-1.34404e-09
0.00851783
-4.60056e-10
-1.1751e-07
1.55979e-07
5.16612e-07
1.10054e-08
0.00394913
-0.0148447
3.66798e-05
-7.92884e-08
-0.0102773
3.96936e-08
0.00249583
0.000138773
6.78075e-07
-0.000549124
-2.67129e-07
3.83992e-06
-1.08113e-07
-3.96977e-07
-4.6505e-07
-1.77891e-06
6.63319e-06
-4.85932e-05
-5.62032e-05
9.6307e-06
-1.97662e-06
-4.0733e-08
-5.58192e-08
0.000149581
-2.20249e-07
0.00621552
1.00848e-07
-0.0325495
-0.00853478
-0.0025796
6.67977e-08
-0.00295596
-1.65524e-07
3.97404e-08
3.2702e-08
2.282e-07
4.93177e-06
2.40566e-08
0.00146666
-1.21798e-05
9.52881e-06
1.59804e-10
1.34865e-06
0.00678985
-0.00287097
0.00190932
-4.15227e-07
2.45248e-06
0.0064809
-0.0028393
-1.53319e-08
-2.29897e-06
0.00236167
4.49081e-06
-1.39835e-05
-5.34827e-07
-4.62329e-07
-0.00226577
4.82769e-08
-0.000110578
1.99738e-06
6.10716e-08
0.00090082
-0.00180793
-0.0466682
2.42803e-06
1.04773e-05
1.42737e-06
-1.90424e-08
-2.77591e-06
-3.55962e-08
2.29041e-05
-7.99652e-08
0.00050183
0.00182889
-0.00257159
0.00031782
6.72987e-06
-0.0271529
-3.14718e-07
4.30401e-05
0.00161881
0.00971077
-1.28472e-07
-2.00842e-07
5.52997e-08
7.565e-07
5.5821e-08
-7.7719e-09
-0.00467293
-2.02842e-08
3.01937e-08
-1.32421e-07
-3.19857e-07
-1.27238e-08
1.02144e-05
0.0188741
2.93145e-06
5.37575e-09
7.39849e-08
-7.78849e-07
4.21509e-07
-2.09224e-08
1.28561e-08
-8.01293e-09
-0.0120795
-5.04566e-07
5.72115e-05
6.42207e-07
-4.92422e-08
-1.24208e-08
0.0116044
4.48796e-06
0.00886016
3.47644e-06
-1.92545e-08
-2.53909e-06
1.84873e-08
-2.02079e-07
-0.00130966
-1.60046e-05
8.18563e-06
-1.81564e-07
4.61349e-08
-6.87717e-07
0.00520395
-0.00239138
-0.000151291
-4.59351e-07
6.33222e-08
1.63891e-08
-3.76306e-07
3.49208e-06
-0.00403559
5.95237e-08
-0.00257495
-1.33628e-08
4.19014e-08
-5.20978e-06
1.99017e-09
0.00366255
-4.42239e-06
0.00114409
2.88728e-08
2.67136e-06
4.96943e-07
0.00874861
4.94181e-08
-5.79661e-07
-9.45095e-05
0.00119263
0.0238357
-0.000280413
0.00546615
3.11481e-07
9.289e-06
-5.04172e-07
-4.70015e-07
0.0166241
-1.26214e-06
4.35899e-08
1.05784e-08
1.41141e-08
-0.0115663
-0.0310314
-9.67682e-08
-0.00716
2.55824e-08
4.58967e-08
-2.91948e-08
2.858e-06
3.62956e-05
-0.011599
-9.23331e-09
7.0325e-08
-1.95171e-06
2.75318e-05
3.64055e-08
0.000461509
-1.9232e-07
-2.13198e-07
0.000337848
1.95069e-08
0.000669506
0.00330948
-0.000349116
0.00228397
-9.40913e-08
-2.17599e-07
2.26668e-08
0.00776934
6.19088e-06
2.87216e-08
0.00500885
0.0003095
-8.10221e-09
-1.39292e-07
-0.026219
-1.34182e-08
0.00466302
0.00295062
-4.38203e-07
2.20749e-08
4.55751e-08
-1.87085e-06
-0.0253494
1.64966e-08
3.0112e-06
-8.09524e-07
0.000653477
0.00684452
3.39316e-08
4.0887e-08
1.29623e-05
3.90415e-07
1.40139e-08
-7.64911e-08
2.02476e-08
-4.77343e-07
-1.75159e-07
-0.0137328
2.24545e-09
-5.15895e-08
-2.60667e-07
2.02253e-07
1.35113e-06
-3.8777e-07
0.00175981
0.00140785
-0.000547
-4.47223e-08
3.29239e-08
-0.00229457
1.99752e-07
4.21913e-06
-0.0214751
7.36767e-06
0.000136573
0.001475
1.95469e-08
-0.00319952
0.000196092
-3.28405e-08
-1.46776e-08
-6.92325e-09
-1.08508e-08
-0.000935062
-0.00333015
7.74238e-08
-0.0165665
0.0106189
-0.0114071
2.21447e-08
-7.89533e-09
0.000299643
2.1537e-08
8.1042e-08
3.24079e-08
4.07809e-08
0.00118656
2.79319e-08
0.0158365
0.0001761
1.83444e-07
-1.53924e-05
2.03604e-05
-0.00199809
0.0515317
8.80472e-09
1.66635e-07
-9.49919e-07
9.83336e-05
0.0512524
0.000321399
2.15843e-07
-1.01542e-08
6.75832e-06
-1.61667e-08
-0.00143485
0.00639319
2.34743e-08
-0.00913746
4.74659e-08
0.00506654
2.26025e-07
-0.00428599
8.93397e-09
-0.000702544
0.008734
0.00476846
0.00471559
8.82418e-09
0.00158618
-0.00988824
8.32621e-08
0.0129631
-7.81244e-09
8.27668e-09
-6.55709e-08
-6.02412e-07
5.46308e-08
-2.55179e-08
1.52042e-08
0.000149862
1.11484e-07
-3.94161e-06
-0.0168395
-4.14634e-06
1.73467e-06
5.50942e-07
-4.87608e-06
3.25402e-08
5.25729e-06
2.53558e-05
1.11481e-05
0.00219038
-8.95083e-07
-1.88368e-07
4.20214e-08
4.95331e-06
9.85212e-08
-1.65332e-09
0.00504982
0.0203707
-0.013567
-3.53382e-06
-7.06983e-09
-2.61272e-06
2.91364e-05
4.7261e-07
-9.91296e-09
-6.72982e-07
2.2347e-07
-3.85637e-07
5.31246e-08
-0.000224619
-1.01913e-08
0.00463506
-1.16714e-08
0.000439405
0.0147492
-0.0160113
-6.87416e-08
4.56393e-06
2.49818e-08
5.47043e-08
-5.06422e-06
0.0208554
4.58241e-08
-7.67514e-08
0.00583041
2.25323e-08
-4.49727e-06
-0.000182122
6.71027e-07
0.000117716
7.7065e-08
0.012207
-1.15929e-06
0.00296483
2.87201e-08
3.85721e-08
-0.0296443
-1.83014e-08
-0.0025353
1.09608e-07
-8.5972e-07
0.00350198
8.98748e-08
-1.10003e-08
-5.3264e-08
-1.80914e-08
0.000765169
0.00409781
5.03058e-08
-0.00113689
9.92244e-06
5.50202e-06
-5.38328e-08
0.00257049
0.00120954
-6.82601e-07
-5.30483e-07
-1.6466e-08
-0.0157563
1.37544e-08
0.00885397
2.46596e-08
-2.78435e-07
-1.24316e-07
4.62884e-10
9.29152e-10
-5.53651e-06
-1.62234e-07
3.34201e-08
-0.00304204
6.03767e-08
-2.53067e-06
-4.61228e-07
-0.00955124
8.60765e-06
-6.06627e-08
7.73996e-08
2.56633e-08
1.16631e-08
1.08882e-07
0.00298657
-0.000101589
-0.00228341
0.000739099
-6.52232e-09
2.91354e-08
3.61294e-08
2.47015e-08
-2.31728e-08
-0.000917633
4.55425e-08
2.4004e-07
1.04981e-05
8.96714e-08
0.00286854
5.57435e-10
-8.96656e-09
-0.00563231
-4.68936e-06
1.93698e-09
1.68896e-06
4.31334e-08
0.000503859
-2.07237e-08
2.10352e-07
-0.00196363
2.68185e-08
-0.000258925
-6.89877e-05
-8.29019e-08
2.64173e-08
3.44677e-05
4.14132e-07
-4.53729e-06
-1.77662e-05
-0.0258057
-9.80189e-08
1.76574e-06
-1.19135e-06
-0.00386432
-3.78937e-08
0.00760128
0.00235564
-0.00369075
0.00427404
2.6643e-07
-9.59261e-09
2.22979e-08
0.00114694
0.00316004
0.0471829
0.0046392
-7.86932e-08
-0.00914817
3.35681e-07
-0.0154318
-4.6053e-08
-2.62101e-06
8.07081e-06
-7.02286e-07
-8.03502e-08
5.31884e-06
-5.03253e-07
8.55016e-09
-6.57899e-08
-5.39973e-06
-1.29197e-07
3.98609e-08
0.000363547
1.62756e-07
-9.21653e-09
1.47526e-08
-0.0154993
1.55273e-07
0.000311557
-5.3362e-07
-1.4256e-07
0.00550079
-1.24117e-08
-6.54213e-06
5.06313e-08
2.69853e-08
-0.0307077
0.0042358
0.00590033
3.23455e-07
4.18962e-07
-0.0145189
-6.40941e-06
6.2169e-06
0.00065881
-0.00192331
-0.00288776