/*--------------------------------*- C++ -*----------------------------------*\
| =========                 |                                                 |
| \\      /  F ield         | OpenFOAM: The Open Source CFD Toolbox           |
|  \\    /   O peration     | Version:  v2012                                 |
|   \\  /    A nd           | Website:  www.openfoam.com                      |
|    \\/     M anipulation  |                                                 |
\*---------------------------------------------------------------------------*/
FoamFile
{
    version     2.0;
    format      ascii;
    class       volScalarField;
    location    "850";
    object      k_0;
}
// * * * * * * * * * * * * * * * * * * * * * * * * * * * * * * * * * * * * * //

dimensions      [0 2 -2 0 0 0 0];


internalField   nonuniform List<scalar> 
18758
(
0.000182728
0.0044955
0.000148298
0.000182172
0.000163669
0.00013968
0.000143443
0.000152526
0.000162004
0.000160199
0.00332158
0.00730003
0.000246898
0.000151517
0.000143228
0.000141829
0.00736655
0.000130724
0.000143094
0.000155232
0.00352102
0.000256958
0.000140699
0.000139885
0.00027142
0.00255605
0.00285919
0.000201405
0.000182028
0.0060815
0.000555538
0.00398999
0.000152128
0.00151234
0.000165626
0.00604571
0.000260811
0.000164484
0.000990384
0.000134892
0.00652727
0.000161327
0.005249
0.000145402
0.000144917
0.000607362
0.000159525
0.000180936
0.0412814
0.000178237
0.00398198
0.0423061
0.000176931
0.000153117
0.000208922
0.000229788
0.000139894
0.000154668
0.0001785
0.000139592
0.000146872
0.000145116
0.00292985
0.0411317
0.000147232
0.018383
0.000146909
0.000133414
0.000202016
0.000130921
0.037244
0.0214941
0.000142998
0.000161229
0.000208465
0.000577187
0.0103969
0.0070876
0.000161812
0.00482864
0.000188619
0.00125517
0.00685107
0.000182712
0.000148901
0.000200883
0.0001555
0.00016247
0.0023301
0.000200355
0.0272166
0.000153159
0.00018112
0.0428198
0.000142879
0.000139013
0.000132595
0.000173719
0.0075919
0.000142347
0.000584748
0.000164526
0.00013334
0.000138983
0.0189857
0.00363688
0.000181571
0.0275805
0.00663279
0.00179628
0.000142009
0.0400755
0.000165205
0.00014624
0.000164532
0.00323839
0.000173037
0.000138178
0.033794
0.000152875
0.000144942
0.0107948
0.000149519
0.000138162
0.0273523
0.000153426
0.000143488
0.000138174
0.000202512
0.0253376
0.000179094
0.000153265
0.000161241
0.0515372
0.00013514
0.000145936
0.0222667
0.000148853
0.000212464
0.000187572
0.000172075
0.00582432
0.000169809
0.00731878
0.0269223
0.000173628
0.0249332
0.000196502
0.00359296
0.0485307
0.0244147
0.0289885
0.000146318
0.000166531
0.00669627
0.00464408
0.000180745
0.000204481
0.00018653
0.00449905
0.00351919
0.000139516
0.0411293
0.026454
0.000520183
0.000140116
0.000139402
0.0118295
0.0252022
0.00731973
0.0336986
0.000148883
0.000184348
0.00374878
0.00469493
0.000142499
0.000142812
0.000196501
0.00126993
0.000149103
0.000132413
0.000153938
0.000206909
0.000150775
0.0327493
0.000143612
0.00624923
0.000169179
0.044522
0.000423934
0.0295662
0.000143549
0.000186243
0.0142704
0.000131464
0.000150542
0.000260166
0.000146134
0.0454565
0.000141603
0.000148717
0.000211571
0.000284915
0.000141778
0.000142047
0.0419935
0.000142587
0.000167675
0.0246263
0.0260495
0.000145089
0.000181145
0.00015109
0.000148396
0.000153151
0.000132812
0.000144534
0.000180726
0.000136803
0.00560084
0.0139152
0.000141575
0.000169355
0.00021296
0.000283984
0.00591687
0.000214072
0.000200537
0.00629178
0.000142327
0.00249999
0.000173414
0.00460478
0.000148042
0.000140741
0.000142037
0.00020915
0.0372807
0.000870845
0.000149252
0.000142157
0.000204313
0.000198894
0.000146761
0.042241
0.00449463
0.000140813
0.000138248
0.000143504
0.000142411
0.0347562
0.000144282
0.00626086
0.000142589
0.000144394
0.0136337
0.000139908
0.0339357
0.000142912
0.0102627
0.000166908
0.000138477
0.000140896
0.00018551
0.000362071
0.000365343
0.000138603
0.000206484
0.000146448
0.000146059
0.0300962
0.0547874
0.000145809
0.000141524
0.000144753
0.000152646
0.000158424
0.000135679
0.000149212
0.000151514
0.000138239
0.000153311
0.000142384
0.0333289
0.000143324
0.000141329
0.000130332
0.000195253
0.000138912
0.000138915
0.000148018
0.000149472
0.000139709
0.000142805
0.000145985
0.000148989
0.00625741
0.00015751
0.000141546
0.0268642
0.000154261
0.000142342
0.000142383
0.000666992
0.00157619
0.000132358
0.000240295
0.00391224
0.000146009
0.000225149
0.000142415
0.000405376
0.000231101
0.000185066
0.000181727
0.00178807
0.000133064
0.000886101
0.000228821
0.000146849
0.000184416
0.000183823
0.0506325
0.000140728
0.000133134
0.0257214
0.00364984
0.000139628
0.0285803
0.000196019
0.00018351
0.0536604
0.000140658
0.000140383
0.000142694
0.000145911
0.000148685
0.000154607
0.000152646
0.000143074
0.000148521
0.000149187
0.0203488
0.000675696
0.00014803
0.000754968
0.00750315
0.000139441
0.000163113
0.00187699
0.000261312
0.00605572
0.000251913
0.000143594
0.0312231
0.0091582
0.00017119
0.000149154
0.000180034
0.000148939
0.00014461
0.000430968
0.0152306
0.00583141
0.000229001
0.0152529
0.000140816
0.000156627
0.000154785
0.000173488
0.0393154
0.00316599
0.00334637
0.000227663
0.00619024
0.000265353
0.000144722
0.00900819
0.000198522
0.00239989
0.00577702
0.000142375
0.000139677
0.000254633
0.00619763
0.00424737
0.0311268
0.02797
0.000149395
0.00766984
0.00174391
0.000141911
0.000151348
0.000152537
0.000150865
0.000145329
0.000149553
0.000144129
0.000156641
0.000146811
0.000143532
0.000166728
0.0042297
0.00015904
0.0102052
0.00883995
0.0252014
0.00501837
0.000195246
0.000146861
0.000140396
0.00558295
0.00015136
0.000149391
0.0225732
0.000172969
0.00557904
0.00014015
0.0198942
0.000144461
0.000154432
0.000131961
0.0471903
0.00041154
0.00611048
0.000145547
0.0529221
0.000180807
0.000144139
0.000150318
0.00014547
0.00336056
0.000145986
0.000142386
0.000525235
0.000159299
0.000149506
0.00014269
0.000152265
0.000156378
0.0323273
0.00740869
0.00014851
0.0131282
0.000131889
0.000157141
0.000199108
0.000143661
0.000218199
0.000148252
0.000156863
0.000147792
0.000658892
0.000153165
0.000144077
0.0335485
0.0018035
0.000130394
0.000156621
0.000155996
0.000141798
0.000143812
0.000150909
0.000347753
0.0272954
0.000147384
0.000165131
0.0150297
0.000220444
0.00531453
0.00282838
0.00483637
0.0001375
0.000192528
0.000198943
0.000165846
0.000151995
0.00544036
0.000901655
0.000169103
0.000140094
0.000143458
0.000138974
0.000143645
0.000138938
0.000143764
0.00024996
0.000149408
0.000131521
0.000180545
0.000152326
0.000148036
0.000134858
0.000154918
0.000814709
0.0035923
0.000142813
0.00371126
0.000142179
0.000159269
0.000203649
0.0284626
0.000229804
0.000142985
0.000143664
0.0280915
0.0526528
0.000348429
0.000139994
0.0147877
0.0314716
0.00013031
0.000140891
0.00348195
0.000153411
0.000188558
0.000317056
0.000153132
0.000165195
0.000138334
0.000141939
0.000152508
0.000143351
0.000142032
0.000146941
0.00453601
0.000132199
0.00632827
0.0142194
0.00013039
0.000132206
0.000150524
0.00015726
0.000162175
0.00998692
0.0001424
0.000381882
0.000163954
0.000165872
0.000141236
0.000142523
0.000144417
0.000147627
0.000147493
0.0288359
0.0310334
0.000138173
0.000141791
0.000149261
0.012854
0.000132091
0.000133074
0.000144008
0.000131596
0.00014091
0.000141011
0.000151135
0.000141792
0.000179212
0.000142316
0.000135745
0.000210698
0.0288508
0.00016275
0.000143637
0.000142565
0.000148874
0.0001425
0.000150695
0.00439538
0.00367162
0.00014929
0.00209055
0.000142431
0.000163826
0.000144033
0.000141837
0.000173683
0.000130936
0.000143639
0.00302225
0.000147735
0.000150717
0.000228733
0.000143743
0.000143355
0.0463893
0.000137997
0.000250269
0.000708589
0.000143462
0.000148096
0.00018038
0.000153494
0.000162178
0.000142285
0.00969772
0.00184203
0.00463112
0.000138516
0.0263899
0.000131365
0.000145466
0.000142291
0.000173158
0.000467058
0.000216164
0.00014423
0.000150538
0.000151611
0.0238993
0.0109995
0.000141195
0.000269133
0.000154593
0.0355427
0.000160826
0.000214243
0.000139655
0.000170856
0.000172949
0.000143283
0.000139722
0.000132144
0.000139021
0.000158818
0.00180835
0.00606986
0.00458852
0.000207071
0.000157739
0.000142394
0.000137845
0.00648831
0.000260794
0.000135152
0.000169423
0.0280943
0.0284326
0.000146764
0.00014538
0.000185492
0.00689472
0.000131272
0.00167451
0.000143869
0.00015527
0.000160746
0.000144916
0.000147515
0.000147163
0.000138532
0.000148891
0.00292318
0.000173438
0.0052846
0.000147991
0.000141138
0.0199106
0.000133317
0.0365592
0.00396327
0.000144063
0.0242275
0.000152445
0.00014412
0.0201499
0.00370585
0.00357565
0.000351173
0.000152979
0.00418962
0.000132273
0.00281636
0.0251966
0.000168235
0.00014316
0.00683982
0.000154235
0.000205916
0.00731062
0.0480408
0.000145861
0.00635438
0.000142019
0.000169995
0.000183806
0.000141046
0.000161966
0.0096573
0.000255685
0.000159644
0.000151562
0.000131539
0.000149146
0.00015136
0.000167786
0.000215791
0.000141687
0.0121732
0.000156941
0.00014597
0.000156837
0.000131869
0.00027704
0.000142292
0.000139079
0.0380383
0.000138026
0.000149833
0.00449881
0.000181114
0.000182788
0.000143777
0.000145688
0.000178103
0.000145363
0.00729891
0.000153851
0.000153918
0.000150521
0.000145788
0.000131394
0.0081601
0.000131871
0.00569901
0.000225687
0.000149338
0.0311161
0.000140176
0.000174651
0.000158942
0.0301999
0.000153485
0.00540509
0.00667206
0.000145637
0.00448485
0.000135725
0.00965836
0.000145585
0.00014831
0.0582028
0.00511596
0.000142144
0.000146667
0.000152404
0.000137969
0.000143715
0.00579008
0.0311117
0.000141216
0.000137843
0.000135822
0.031278
0.000216903
0.000263992
0.000138474
0.000411166
0.000148295
0.000145907
0.000159518
0.00745494
0.000141208
0.000169908
0.0139622
0.000142305
0.00158546
0.000144163
0.000161156
0.000141211
0.00013842
0.000156869
0.00014625
0.000173422
0.000143549
0.0465702
0.000146272
0.000154126
0.000180693
0.00024938
0.000169492
0.000141381
0.000145678
0.00713136
0.000738673
0.00019882
0.000139575
0.000142357
0.000161274
0.0350476
0.00504374
0.000140881
0.000142075
0.000149718
0.000146422
0.000148486
0.000142477
0.000144545
0.00503843
0.000142258
0.000143439
0.0070174
0.000138449
0.00778552
0.000198194
0.0228293
0.0557308
0.00633289
0.0311836
0.000142513
0.000142484
0.000152797
0.00014102
0.000141262
0.000138998
0.000140908
0.000148951
0.0424555
0.000203178
0.0135259
0.000148602
0.000141949
0.000164393
0.000166315
0.00018161
0.000146903
0.000148339
0.000138214
0.0322817
0.00880614
0.00219127
0.000147862
0.000183535
0.000197257
0.00139404
0.0350418
0.0177726
0.000150669
0.000148618
0.000136217
0.0011313
0.000146688
0.000132902
0.000181247
0.0106441
0.000142218
0.00622108
0.00378152
0.000142479
0.000142207
0.000142571
0.000143996
0.000143364
0.000154414
0.000161856
0.000143375
0.000146792
0.002781
0.0315536
0.000142998
0.00501021
0.000258092
0.000148839
0.000145185
0.000141369
0.000137949
0.000151408
0.000148767
0.000144492
0.000147647
0.00015349
0.000146615
0.0584942
0.000158809
0.000143382
0.000144047
0.00103364
0.000146034
0.000132875
0.0158054
0.000141336
0.000164568
0.000156889
0.000143472
0.000139426
0.000137961
0.000155895
0.000168037
0.000144525
0.00614807
0.000182229
0.000190723
0.0191421
0.000149445
0.000216116
0.000132276
0.0140678
0.000149508
0.000143216
0.000209794
0.0235608
0.00014774
0.00228648
0.016197
0.000138959
0.000160036
0.000132943
0.000149343
0.000159422
0.000150602
0.000142895
0.000458335
0.000141038
0.000141414
0.00753081
0.000141763
0.000141263
0.000139435
0.0554785
0.000144247
0.000144589
0.000161682
0.000298606
0.00684987
0.00504386
0.00546269
0.000142131
0.000131708
0.000143541
0.0457114
0.000149626
0.000140956
0.000152938
0.000137842
0.0109191
0.000146978
0.000145791
0.00124644
0.000142177
0.000181058
0.000571369
0.000131683
0.000143285
0.00752601
0.000152356
0.024024
0.000726603
0.000137801
0.000144345
0.000261489
0.000138611
0.00015301
0.00436364
0.000136054
0.00688771
0.000142483
0.000143684
0.000143241
0.000165795
0.000150898
0.00469347
0.00015419
0.000140798
0.0035355
0.00681015
0.000168352
0.000169916
0.00039708
0.0374493
0.000315232
0.000131295
0.0362225
0.000147626
0.00443066
0.00418339
0.000141177
0.000163881
0.000147134
0.00694134
0.00013964
0.0293233
0.000141772
0.00210266
0.000204154
0.000140066
0.000131565
0.000142546
0.00343724
0.0108804
0.000143981
0.00872766
0.000146224
0.00014121
0.00693249
0.000143146
0.000267298
0.000139917
0.000153549
0.000140582
0.000139982
0.000140869
0.000139712
0.000194668
0.00017474
0.00016885
0.000164075
0.000148403
0.000142738
0.0065955
0.000142658
0.00578192
0.000145482
0.0068643
0.000157252
0.00537415
0.000139716
0.000140912
0.000141062
0.0361872
0.000144291
0.00382871
0.000195878
0.000143571
0.000156426
0.000142618
0.000138121
0.000152426
0.000141285
0.00672378
0.000144124
0.000151005
0.000143674
0.000151707
0.0283249
0.00983913
0.00014551
0.000139497
0.000145531
0.000148015
0.000141897
0.000154587
0.000148334
0.000142459
0.000137664
0.000139179
0.000221071
0.000187529
0.000146467
0.000137752
0.000250458
0.000150661
0.00126194
0.00957133
0.000148532
0.0416749
0.000152838
0.000139702
0.000142938
0.000153649
0.000196594
0.000138473
0.000164066
0.00532005
0.000200541
0.000248928
0.0299929
0.0283413
0.000164263
0.000145911
0.000144418
0.00577723
0.000137661
0.000146783
0.000161034
0.000602447
0.000144141
0.000140194
0.0298488
0.000153144
0.000149422
0.000150474
0.000153605
0.000201087
0.000144433
0.000153827
0.000143889
0.000164712
0.000151937
0.000147735
0.000147372
0.00351793
0.000147628
0.000142791
0.00623823
0.000131606
0.000143253
0.000146038
0.000150096
0.000147236
0.00379433
0.000194583
0.00650431
0.00658198
0.0317413
0.00384364
0.000147997
0.0440204
0.00588712
0.000145228
0.000149231
0.0001476
0.00014447
0.000150377
0.000150101
0.000216597
0.000216263
0.000147027
0.000135458
0.00018357
0.000151621
0.0042021
0.000143009
0.000148537
0.000142096
0.00287338
0.00564083
0.000161368
0.0484313
0.000142305
0.000142202
0.000181718
0.000164389
0.00014186
0.00021139
0.000148187
0.000162974
0.00659205
0.000195046
0.000163773
0.000147116
0.000147912
0.000148685
0.000138773
0.00562672
0.000194071
0.0337542
0.00427331
0.0406036
0.000148067
0.0409503
0.0241881
0.0308958
0.000198034
0.00163306
0.00015913
0.00401928
0.000190977
0.000167361
0.000130686
0.00014253
0.000145751
0.000180559
0.0001395
0.000145364
0.000405768
0.00196416
0.000865718
0.00489501
0.000184976
0.00747585
0.000168662
0.000151882
0.000142842
0.00267193
0.00110216
0.000140742
0.000162321
0.000796988
0.0325189
0.0278282
0.000168199
0.00018729
0.000131773
0.0246487
0.000147615
0.00525743
0.0030839
0.000164356
0.00020212
0.000193072
0.000144254
0.000143111
0.00385045
0.00515354
0.000221396
0.000147896
0.000144357
0.000153003
0.00590561
0.000163643
0.00446258
0.000148404
0.00402513
0.00280093
0.000157714
0.0121094
0.000209245
0.027238
0.000131778
0.000169227
0.0207874
0.000159888
0.000141924
0.0015529
0.00372786
0.000142303
0.000142609
0.00577756
0.000152159
0.000150489
0.0416058
0.00362591
0.000145528
0.000159793
0.00756473
0.000161451
0.00015316
0.000152831
0.00588284
0.000157563
0.000140194
0.000141405
0.0100499
0.000139201
0.0560837
0.000136926
0.000138547
0.00406869
0.000145627
0.000142405
0.000512924
0.000131385
0.000153495
0.000137781
0.000142384
0.000144685
0.000188041
0.000144577
0.00396444
0.000209312
0.00800057
0.0387979
0.000155444
0.000137762
0.000139207
0.0218909
0.000157878
0.00014352
0.00521098
0.0001668
0.00103137
0.000136581
0.000136754
0.000137781
0.000141004
0.000144098
0.000134204
0.000149425
0.000149203
0.000143175
0.00281897
0.000166804
0.00380958
0.000150001
0.000137889
0.000161404
0.00696641
0.0262704
0.00734577
0.0470987
0.00368088
0.000214986
0.0254473
0.000150125
0.000172947
0.000169602
0.0302083
0.000141194
0.00142331
0.00270516
0.000228432
0.000142593
0.00710144
0.000141742
0.00014257
0.000144577
0.000160921
0.0377984
0.0531836
0.000145705
0.000131156
0.00013891
0.000134815
0.000178219
0.00014341
0.0261195
0.000178551
0.000189536
0.00014852
0.000142321
0.000133801
0.0305894
0.000257618
0.000144762
0.000142887
0.0077512
0.000134696
0.00014351
0.000135963
0.000143919
0.000144536
0.000145748
0.00013784
0.00465768
0.000152365
0.000685686
0.000163478
0.000146726
0.000238562
0.000146404
0.000291469
0.000146825
0.000173665
0.000612383
0.00312107
0.000170752
0.000198607
0.0287167
0.000151633
0.000169983
0.00015258
0.000142306
0.000138544
0.000140506
0.000243743
0.000171235
0.0001542
0.000249094
0.000138304
0.00014495
0.000168471
0.00158981
0.000131266
0.000169297
0.000212729
0.000198543
0.000305806
0.000149572
0.000146384
0.027201
0.000174134
0.00013981
0.000142297
0.000199322
0.000137576
0.000138424
0.0356932
0.000175168
0.000148776
0.000149354
0.000146937
0.0293589
0.000153504
0.0256352
0.0299809
0.000142728
0.000141811
0.00326611
0.000167463
0.000167338
0.000150514
0.00018252
0.000161365
0.000139579
0.000154422
0.000230861
0.000173961
0.0236288
0.00674922
0.000164309
0.00428051
0.00211048
0.000140724
0.00539348
0.0302554
0.000155644
0.0230622
0.000146606
0.000225976
0.000181656
0.00178871
0.000177153
0.000251073
0.000166121
0.00682221
0.000141846
0.000132957
0.0377816
0.000151927
0.000142229
0.00014216
0.000147892
0.00013453
0.000149316
0.000141325
0.000142422
0.0431665
0.00981115
0.000142512
0.00014615
0.00133837
0.00664216
0.000131582
0.00026197
0.000217592
0.000170045
0.000145459
0.000140799
0.0307238
0.000148143
0.000179239
0.000183584
0.000138538
0.000163896
0.0493748
0.000143033
0.00662444
0.0176222
0.02149
0.00014903
0.000142964
0.000143237
0.000144836
0.000142258
0.00309401
0.000311
0.000138147
0.00670727
0.000266458
0.000150136
0.000145925
0.000142206
0.00542859
0.0286162
0.000202218
0.000201557
0.000152335
0.051546
0.00471682
0.000138712
0.000142454
0.000157656
0.000164533
0.045544
0.0061003
0.000140523
0.0133631
0.00432082
0.000152271
0.000139886
0.000145971
0.0001537
0.000141814
0.000149594
0.000138358
0.000241051
0.00336068
0.000144596
0.00014651
0.000164191
0.000138604
0.000142586
0.000147045
0.00442117
0.000137936
0.000152814
0.027884
0.00022984
0.000265075
0.00018573
0.000148432
0.000147056
0.000147793
0.000137514
0.000141334
0.000148468
0.00434319
0.000186532
0.000150419
0.00018709
0.000138097
0.00466261
0.000226079
0.000143505
0.0542845
0.000140432
0.000151507
0.00021918
0.0282997
0.000153187
0.000153905
0.000153176
0.000216538
0.000132007
0.0417758
0.00184295
0.000138167
0.000181006
0.00772876
0.000144792
0.000151082
0.00534781
0.000178665
0.000146872
0.00508409
0.00015471
0.000142398
0.00476104
0.000246482
0.00418251
0.000140943
0.0166855
0.000171804
0.000133592
0.000178007
0.000162215
0.000146462
0.000208755
0.00844687
0.00593707
0.000180869
0.000203355
0.000138026
0.00592
0.00368404
0.000230683
0.0279726
0.000144885
0.00120674
0.000144982
0.000141817
0.000170181
0.000149707
0.000748765
0.0039107
0.000146798
0.0390217
0.000475692
0.0310269
0.000160078
0.00017922
0.000131285
0.000147911
0.000153213
0.000131113
0.00137377
0.0109006
0.0440076
0.00657741
0.000221029
0.00581396
0.0280267
0.000144093
0.000151785
0.0303015
0.000175476
0.000145105
0.000142146
0.000246362
0.000211422
0.000160185
0.000142806
0.000146064
0.000217701
0.000142388
0.000215089
0.00366386
0.000134407
0.0396472
0.000137344
0.00938145
0.00162092
0.0616104
0.000148644
0.00359973
0.00014609
0.000142647
0.000150501
0.0289187
0.000170331
0.00153778
0.000147333
0.000142389
0.000253453
0.00483041
0.000146731
0.000200981
0.0210187
0.000747754
0.0058502
0.000140194
0.000145322
0.00573593
0.000131227
0.000138027
0.000155959
0.000143707
0.000146995
0.00013995
0.00014199
0.00015454
0.000142036
0.00016742
0.000178796
0.000141984
0.0297103
0.0305859
0.000157893
0.000135578
0.00014312
0.000196758
0.00014358
0.000142754
0.000144572
0.000197184
0.000143492
0.000155223
0.000153317
0.000551484
0.00560986
0.000140847
0.000214617
0.000227972
0.000160155
0.000251823
0.0007857
0.000140669
0.00014263
0.000265428
0.000228816
0.000158088
0.000284399
0.000198371
0.000143097
0.0101882
0.000148651
0.000192115
0.000340756
0.00191181
0.0410213
0.000152059
0.000141303
0.0131822
0.000150662
0.00114392
0.000174158
0.00327991
0.00973391
0.000140662
0.000168494
0.000141948
0.000431811
0.000187458
0.0341988
0.00014154
0.000144712
0.000218146
0.000147587
0.00744067
0.000140459
0.00669633
0.0135332
0.000169812
0.0302068
0.0295853
0.000140566
0.000140693
0.000144113
0.00346522
0.00571476
0.000148485
0.000154678
0.000148228
0.000135658
0.000163935
0.000140846
0.000136761
0.000249844
0.000148015
0.000136525
0.000153004
0.030617
0.000295584
0.0205371
0.000145763
0.000342144
0.000157448
0.000155752
0.000200673
0.000262596
0.0290814
0.000138078
0.000186622
0.000131587
0.000165141
0.000177225
0.000174125
0.00323019
0.000149161
0.000195349
0.000137311
0.00621487
0.00592597
0.000136813
0.000151268
0.000151615
0.000152071
0.0257494
0.000144403
0.000144636
0.000149043
0.00014756
0.000139398
0.00015136
0.000143198
0.000148308
0.000143409
0.000141654
0.0010698
0.00731677
0.034559
0.000135413
0.000131942
0.00013279
0.000135911
0.000133015
0.000175969
0.000132699
0.000138078
0.000142866
0.000139812
0.000160717
0.000142619
0.000256589
0.000837225
0.000167858
0.0301158
0.000146019
0.000145234
0.000223448
0.000235563
0.000139649
0.00378819
0.000150155
0.000144235
0.000145001
0.000454502
0.000188588
0.000140364
0.000201813
0.000161361
0.000142619
0.00022637
0.0050473
0.000168439
0.000140619
0.00015091
0.000264635
0.000153981
0.00780646
0.00014045
0.000148827
0.000144477
0.00015343
0.000166966
0.00419267
0.000171461
0.000136873
0.0160829
0.000179945
0.000199423
0.000141211
0.000156837
0.0354123
0.000140714
0.000147928
0.000163702
0.00169579
0.000134261
0.000142571
0.000138099
0.000170779
0.000144815
0.00366968
0.000145093
0.000155791
0.000161435
0.045176
0.000138669
0.000136887
0.000131719
0.000163173
0.000135529
0.03506
0.000170834
0.00016908
0.00659303
0.000142952
0.0139697
0.000145218
0.0001378
0.000212956
0.000189931
0.000234832
0.00588769
0.0502256
0.000214211
0.000173512
0.000164867
0.000150153
0.00718491
0.000144726
0.000151
0.000235142
0.000147556
0.00598481
0.00605236
0.00534451
0.0043177
0.00630608
0.000343005
0.00395718
0.000185727
0.000149182
0.000199621
0.000144414
0.000137035
0.000141533
0.0488301
0.0360418
0.00552666
0.000158282
0.000155287
0.00589808
0.000140519
0.000199964
0.000136679
0.000169312
0.000142216
0.000132995
0.000148888
0.000169066
0.00820608
0.00016761
0.000160572
0.000137721
0.000193585
0.00139883
0.000137337
0.000201329
0.000129683
0.000131185
0.000179245
0.000137681
0.0289641
0.000146263
0.000297775
0.00014843
0.000145967
0.000160112
0.000211453
0.0286049
0.000177315
0.0062725
0.000151101
0.000144638
0.000144916
0.000145037
0.000136748
0.000143279
0.0276723
0.039835
0.000177425
0.00014352
0.000155536
0.000151579
0.00014588
0.000147098
0.000184646
0.00543976
0.0047714
0.000144112
0.00541825
0.000137682
0.000180499
0.000151167
0.000168269
0.0335496
0.0072547
0.00569258
0.000133169
0.000144268
0.00014051
0.000142415
0.00014444
0.000142078
0.0238937
0.000146106
0.000146892
0.000148803
0.000176493
0.000141686
0.0277363
0.0446118
0.00733384
0.000145209
0.0440732
0.000136602
0.00641078
0.000310739
0.000149785
0.00730651
0.0001539
0.000180402
0.000140401
0.00014825
0.000159299
0.000190849
0.00019234
0.00297132
0.000213523
0.000208008
0.000173513
0.000149975
0.000143781
0.00156739
0.000153269
0.00360041
0.000148628
0.04314
0.0149191
0.00629541
0.000150939
0.0121765
0.000154594
0.000144839
0.000136021
0.000152694
0.000180567
0.000142746
0.00755782
0.000199896
0.00019452
0.000141386
0.000155083
0.0481498
0.00631615
0.00463974
0.000155748
0.000164692
0.0557538
0.0130073
0.000147917
0.000193131
0.00470182
0.000179435
0.00025544
0.000157649
0.000160964
0.000815909
0.000133997
0.00651789
0.000173754
0.000144242
0.00252317
0.00571203
0.0223436
0.00015876
0.000200513
0.000187466
0.000136843
0.000173946
0.000149288
0.000245669
0.000138991
0.00073967
0.0306651
0.000967439
0.00375067
0.000198175
0.00714494
0.000154583
0.000255517
0.00412046
0.0508943
0.000150904
0.000149439
0.000141941
0.00015546
0.000134389
0.000141261
0.000218431
0.00014165
0.000138409
0.000167063
0.000149614
0.000132646
0.000186102
0.0161974
0.000180927
0.000145853
0.000144708
0.000160138
0.000150571
0.000141558
0.000140583
0.000136543
0.0186266
0.000156686
0.000230315
0.000160948
0.000143439
0.000132891
0.0302906
0.000220324
0.00682844
0.000168494
0.000147441
0.000167747
0.000140601
0.000158275
0.000248476
0.000307175
0.000185831
0.000152514
0.000137478
0.000162734
0.00632462
0.00520529
0.00525728
0.0001562
0.000137998
0.000137936
0.000155317
0.000263572
0.0477753
0.000138078
0.00354201
0.000132876
0.000143991
0.000189978
0.00014024
0.00804762
0.000190419
0.000676877
0.000133423
0.000168722
0.000168405
0.034504
0.000137816
0.00014574
0.000234457
0.00418462
0.0187157
0.00293015
0.00266035
0.000151338
0.000225948
0.000156721
0.000176665
0.0435443
0.000155877
0.000140877
0.000145565
0.000135245
0.00440774
0.0418641
0.000156987
0.00293649
0.000135887
0.000141009
0.000145775
0.000208796
0.000245524
0.00566322
0.000143661
0.000149017
0.000167431
0.000573926
0.000136486
0.00537031
0.000140724
0.000150534
0.000695044
0.000139888
0.000129552
0.000964211
0.00731229
0.000355347
0.000144185
0.000153143
0.000153097
0.0321462
0.000200582
0.000145097
0.0242514
0.000975512
0.000131142
0.00015116
0.00304186
0.000136823
0.0267662
0.00130619
0.000156142
0.000131791
0.000155757
0.000156182
0.0453834
0.00013776
0.000167003
0.000148563
0.000716918
0.0306727
0.000142694
0.000136438
0.000214115
0.000159611
0.000144611
0.000142645
0.000140054
0.000173581
0.000152294
0.00382494
0.00014876
0.000148122
0.000141575
0.000151855
0.000154753
0.000149438
0.000636156
0.00409539
0.00716838
0.000148096
0.000136354
0.00435559
0.00015611
0.00018107
0.0112488
0.000197375
0.00408701
0.00176245
0.000135981
0.00231915
0.000907316
0.000150544
0.000139999
0.000143665
0.000143592
0.0287404
0.00516315
0.000144591
0.0244158
0.00299782
0.0404606
0.000132672
0.000138449
0.00064595
0.00014012
0.000145894
0.000164326
0.000141934
0.000140461
0.00015547
0.0409543
0.00530166
0.000141674
0.000262924
0.000252996
0.0599153
0.0291511
0.000143025
0.000156056
0.000172662
0.000230872
0.0201407
0.0010306
0.000147874
0.000143748
0.000184676
0.000136838
0.0627033
0.00536795
0.000140533
0.00203478
0.000137169
0.0296333
0.000146562
0.00412026
0.000150278
0.0294366
0.00192968
0.0314729
0.0246942
0.000135118
0.0011087
0.0405527
0.000148912
0.0355934
0.000148353
0.000133439
0.00014359
0.000160885
0.000155156
0.00014559
0.000141168
0.000189108
0.000168482
0.000176501
0.0177377
0.000176125
0.000161126
0.00014817
0.00018719
0.000136302
0.000196763
0.000570588
0.000311791
0.00502288
0.000149343
0.000152838
0.000150727
0.000182054
0.000152712
0.000141255
0.0263099
0.00905071
0.0445816
0.000147985
0.000145535
0.000170326
0.000302487
0.000147578
0.000136626
0.000148485
0.000151713
0.000168088
0.000143331
0.00631005
0.000147356
0.0276323
0.000138314
0.0014612
0.00460394
0.0122621
0.000135588
0.000195872
0.000144837
0.000137374
0.000183005
0.00751114
0.000141649
0.000149428
0.0311977
0.000144056
0.000177444
0.00342557
0.000161036
0.00517238
0.000145642
0.0189033
0.000161272
0.0597575
0.000136247
0.000140868
0.0486729
0.000139929
0.00660624
0.000156191
0.000164521
0.0217078
0.000150837
0.000143751
0.000149734
0.000141471
0.000344897
0.0310685
0.000137355
0.00578681
0.000203092
0.00026913
0.000143989
0.00668325
0.00376936
0.00016028
0.000160105
0.000143972
0.0292028
0.000133646
0.0248342
0.000136126
0.000139963
0.000154539
0.000145784
0.000138483
0.000221773
0.0001531
0.000141662
0.00432759
0.000137889
0.000182638
0.00015668
0.00128787
0.000195716
0.000140024
0.000171165
0.000141132
0.000140508
0.000155645
0.0014086
0.00355199
0.00355521
8.61307e-05
0.000136472
0.000143362
0.000144358
0.000140284
0.000135526
0.0626032
0.000133378
0.000152463
0.000228382
0.00014881
0.0232556
0.00014474
0.000136545
0.0487157
0.000306826
0.000146002
0.00017336
0.000164859
0.000321234
0.000141531
0.000152256
0.000969112
0.000146399
0.00261438
0.000637334
0.000149464
0.000150205
0.000254967
0.000156178
0.000177397
0.000260305
0.00643195
0.00015409
0.000152567
0.000173536
0.000836729
0.000149213
0.00502044
0.00692252
0.000436379
0.030955
0.000138932
0.000144169
0.000142194
0.00409282
0.00171388
0.0154099
0.0294994
0.000135474
0.00242576
0.000139345
0.0280959
0.000143242
0.000172698
0.000191444
0.000147785
0.000149799
0.000200813
0.00015711
0.000148133
0.000148873
0.000189554
0.000153387
0.000140697
0.00025513
0.000148518
0.000148422
0.000143249
0.0160132
0.000183308
0.0041664
0.000163766
0.000152738
0.0309898
0.000157605
0.000198689
0.000137177
0.000142258
0.0323701
0.0277662
0.00398814
0.0001461
0.000155511
0.016482
0.00019867
0.000187112
0.00281291
0.000859071
0.00124187
0.000136339
0.000409102
0.000140159
0.000178554
0.00315397
0.000197028
0.00019729
0.000151466
0.0429525
0.000182922
0.00334857
0.000268147
0.000141669
0.000143342
0.000144194
0.00307177
0.000137317
0.00341012
0.00017924
0.00669331
0.000135597
0.0356521
0.0320869
0.00678965
0.00424631
0.000150292
0.000147171
0.000142215
0.000155879
0.000144291
0.000157159
0.0329409
0.000145047
0.000150776
0.0295151
0.00643817
0.00636511
0.000159297
0.000167613
0.00013968
0.0343972
0.000147696
0.0535535
0.000168625
0.00171232
0.00016738
0.000196981
0.0142477
0.000142949
0.000142317
0.0252106
0.0036424
0.000235174
0.00020959
0.000170542
0.000141109
0.000219787
0.000143844
0.00387703
0.000143592
0.000151062
0.00420966
0.000149492
0.00019692
0.000137571
0.029665
0.0142368
0.00016536
0.000164047
0.0387301
0.000156428
0.000136027
0.0304323
0.0285561
0.0329698
0.000140052
0.000148182
0.00227473
0.00571993
0.0231215
0.000145996
0.000154015
0.00014607
0.000159425
0.000148209
0.00013843
0.0196783
0.000140815
0.034457
0.000154305
0.0129199
0.0001357
0.00156701
0.00644009
0.000196679
0.000272263
0.00288901
0.000138527
0.000184353
0.0289376
0.000139741
0.000147839
0.000144927
0.0323157
0.0255277
0.000144508
0.0272804
0.000174573
0.000142671
0.0408721
0.000152079
0.000181166
0.0315511