/*--------------------------------*- C++ -*----------------------------------*\
| =========                 |                                                 |
| \\      /  F ield         | OpenFOAM: The Open Source CFD Toolbox           |
|  \\    /   O peration     | Version:  v2012                                 |
|   \\  /    A nd           | Website:  www.openfoam.com                      |
|    \\/     M anipulation  |                                                 |
\*---------------------------------------------------------------------------*/
FoamFile
{
    version     2.0;
    format      ascii;
    class       surfaceScalarField;
    location    "850";
    object      phi;
}
// * * * * * * * * * * * * * * * * * * * * * * * * * * * * * * * * * * * * * //

dimensions      [0 3 -1 0 0 0 0];
oriented        oriented;


internalField   nonuniform List<scalar> 
27882
(
0.510683
-0.367315
-0.143369
0.4817
-0.243345
-0.238356
0.271673
-0.532647
0.260971
0.158934
0.351749
-0.228469
0.350264
-0.121796
-0.426068
-0.102113
0.52818
0.185861
0.187245
-0.37311
0.119723
-0.331304
0.211581
-0.342386
0.113917
0.251988
-0.376009
0.12402
0.349162
-0.537882
0.18872
0.562437
-0.277847
-0.28459
-0.399229
0.0971732
0.302055
0.332445
-0.165964
-0.166482
0.105538
-0.430224
0.324682
-0.428044
0.148155
0.279884
0.211341
0.351096
-0.313423
-0.168239
0.381668
-0.276135
0.174027
0.137889
-0.311917
-0.400702
0.207424
0.193278
0.039292
-0.0957253
0.0564333
0.0868029
-0.512871
-0.333756
0.540284
-0.206529
0.0923749
-0.053083
0.130177
-0.0598566
-0.0703201
-0.34496
0.121194
0.223766
0.272649
-0.157859
-0.11479
-0.177028
0.0258417
0.151186
0.457867
-0.366794
-0.0910735
-0.243021
0.199823
0.0431978
-0.163827
-0.181133
0.307575
-0.187853
0.0591531
-0.108318
0.0491645
-0.173064
0.33904
-0.165976
0.255803
0.202064
-0.303972
-0.095257
0.177199
0.0261436
0.204937
-0.231081
0.394715
-0.476277
0.0815615
0.493314
-0.242834
-0.25048
-0.189282
-0.166056
0.355337
0.530355
-0.2619
-0.268455
0.470027
-0.335964
-0.134064
0.519806
-0.361066
-0.158747
-0.214323
0.0276966
0.186626
-0.338403
0.14912
-0.189593
0.0383485
0.151244
-0.0291722
0.0204968
0.00867545
0.509147
-0.361261
-0.147887
0.559131
-0.209969
0.0113903
-0.0264484
0.0150581
0.183383
0.325764
-0.392257
0.171578
0.220678
0.0562541
-0.115664
0.0594104
0.389566
-0.292393
0.484877
-0.462192
-0.0226865
-0.155676
0.329702
-0.189391
0.158947
0.0304437
0.365879
0.118997
0.488467
-0.078937
-0.409536
0.334598
0.135428
0.170886
-0.260072
-0.0518662
-0.123432
0.175299
0.0243172
0.464143
0.0893499
-0.0706266
-0.0187233
-0.0181405
0.401556
-0.38342
0.625571
-0.298996
-0.326576
0.0795599
0.193089
-0.544801
0.231377
-0.0138298
0.0252201
0.0323199
0.0594086
-0.0917285
0.145265
-0.398668
0.253399
0.167415
-0.282843
0.115428
0.248897
-0.271392
0.0224949
-0.0947516
-0.148269
0.0547738
0.0964068
-0.151181
-0.351975
-0.0976864
0.449662
-0.0903988
0.385156
0.145199
0.133491
-0.138353
0.00486143
-0.185983
0.212127
-0.3724
0.0204244
-0.00336563
0.217318
-0.213953
-0.544472
0.263312
0.28116
-0.119276
0.0247502
0.0945257
0.195705
0.054499
-0.13515
0.302564
-0.0902433
0.261129
-0.122042
0.00276577
-0.00561227
0.034317
-0.0287047
-0.34934
0.508224
-0.158892
0.13599
-0.15115
0.0151598
-0.0202135
-0.00895871
-0.248169
0.39343
0.522822
-0.101566
-0.421259
-0.339328
-0.134683
0.474011
0.180047
-0.163885
-0.0161621
0.423915
-0.364051
-0.0598641
0.177818
-0.380064
0.202243
-0.0845876
-0.129735
0.320526
-0.22037
-0.100156
0.316169
0.309402
0.428191
0.0946273
0.0551641
0.0341858
-0.292558
-0.108144
-0.145916
-0.0436762
-0.023901
0.0182887
-0.106562
0.204583
-0.098021
0.416727
-0.247774
-0.168954
-0.138469
0.441155
-0.302692
0.0758705
-0.127737
0.27959
-0.473167
0.193576
0.476387
-0.472865
-0.00352502
0.118303
0.202222
-0.184637
-0.0106417
0.195279
0.174531
0.00551679
0.555039
-0.26421
-0.29083
0.0275836
0.13858
-0.166164
-0.343894
0.495495
-0.151601
0.550493
-0.386746
-0.163751
0.141922
-0.0871486
-0.211966
-0.332507
-0.50765
0.0739031
0.433745
0.0129726
-0.0201612
0.0071886
-0.224021
-0.168237
-0.504506
0.342272
0.162233
-0.421921
-0.08573
-0.0736967
-0.0794878
0.153184
0.013211
-0.0130304
-0.151043
-0.525815
0.274347
0.251461
-0.23423
0.245285
-0.0110559
0.0300194
-0.0370747
0.00705528
-0.141544
0.536259
-0.351903
0.481062
-0.129163
0.206344
-0.0078319
-0.198512
-0.403632
-0.0657805
0.469412
-0.180191
-0.00363277
0.183823
0.127199
0.00629237
0.439283
-0.159694
0.535431
-0.329303
-0.206128
0.19793
-0.18131
-0.0166206
-0.195406
0.0888443
0.0185016
-0.00552904
0.167718
-0.15845
-0.00926814
0.0771492
-0.021985
-0.0440331
0.150527
-0.106494
-0.236737
-0.301145
-0.0599842
0.0914916
-0.0315074
-0.0132165
0.00435367
0.00886282
-0.0133099
0.0177214
-0.00441147
0.0541795
-0.258543
0.204362
-0.373279
0.0959341
0.277344
0.158893
0.334421
0.127502
-0.138176
0.151104
-0.0151147
0.0513139
-0.125011
-0.239888
-0.0197991
0.259687
0.244963
-0.0450932
0.119895
-0.0748013
0.355546
0.0300562
-0.385603
-0.00570122
0.021814
-0.0161128
0.0461163
0.0310328
-0.180038
0.0246139
0.155424
-0.547307
0.247546
0.299761
0.413897
-0.0583528
-0.0896769
0.0334769
0.0562
0.0111426
0.00206836
0.494048
-0.317245
-0.176803
-0.0140806
-0.00305575
0.0171363
0.407969
-0.136297
-0.158186
0.170915
-0.0127288
-0.120712
-0.304993
0.121846
0.0827365
0.135926
-0.391701
0.255774
0.142401
-0.390573
0.0613008
-0.109369
0.0480685
0.0995582
-0.0404051
0.229025
0.0473876
0.520359
-0.245025
-0.275335
-0.132864
-0.173554
0.306418
-0.0579712
0.114225
0.142082
0.164396
-0.0990065
0.071932
0.0270746
0.42106
-0.316169
-0.104895
-0.280018
-0.086776
0.348126
-0.282669
-0.0654574
-0.00660976
-0.0136037
-0.161687
-0.0267676
0.188455
0.00254482
-0.0158548
0.277162
0.143894
0.07526
-0.187913
0.112653
0.0909713
0.0788258
-0.169797
-0.539243
0.219526
0.319717
0.235176
-0.314367
0.0791899
-0.156992
-0.0188462
0.175838
0.317072
-0.262894
-0.0230132
0.0164034
-0.494061
0.0768926
0.417167
-0.195229
-0.255145
0.450374
0.170532
-0.119218
-0.113297
-0.0834536
0.19675
-0.147925
0.426879
-0.27896
-0.401128
0.262653
-0.0239424
0.0182412
0.0941151
-0.36426
0.270143
-0.0342403
0.0120688
-0.0121486
0.554572
-0.375518
-0.179054
-0.103826
0.143795
-0.039969
-0.467186
0.271955
-0.137456
0.425719
-0.288264
0.106356
-0.324819
0.218463
0.16394
-0.503268
0.00222288
0.389519
-0.39175
0.0472784
0.341858
-0.443971
-0.216442
0.462188
-0.245747
-0.107944
0.198915
-0.172422
-0.279787
0.452208
0.175663
0.0222668
0.0364852
0.134046
0.0801159
-0.193413
-0.299047
0.39309
-0.0940424
0.244634
0.00426234
-0.0693038
0.121578
-0.0522744
0.0720876
-0.117181
0.345433
-0.25132
0.0426511
0.0875255
0.152384
0.0153338
0.215287
-0.0934413
0.0619877
-0.413894
-0.482436
0.147743
0.334689
0.275033
-0.447456
0.0419014
-0.209954
0.168053
-0.0244334
0.0192723
0.0051611
-0.153778
-0.0357303
0.189508
-0.342952
0.262076
0.0808754
0.102405
0.322185
-0.424596
-0.158046
0.199947
-0.00301862
-0.201691
0.20471
-0.342087
-0.170023
0.512108
0.021792
-0.0817762
0.180891
-0.0791397
-0.101751
-0.477065
0.341336
0.135724
-0.261379
-0.19982
0.461196
-0.203978
0.495156
-0.291179
0.370102
-0.192286
-0.0172039
0.00312333
0.51656
-0.253731
-0.26283
0.332639
-0.513184
0.180544
-0.172303
0.447335
0.463105
-0.0731848
-0.38992
0.123565
0.0397502
-0.163315
0.379684
-0.572977
0.193292
0.0872365
-0.0549166
-0.395917
-0.0275513
0.423462
-0.224791
0.151763
-0.230573
-0.242595
-0.363342
0.437243
-0.102428
-0.374642
-0.119602
0.194862
0.23303
-0.133148
-0.0998823
0.0777686
0.155261
0.028334
-0.391677
-0.183209
0.0669385
-0.325483
-0.226023
0.356946
-0.130924
0.130153
-0.181018
0.0508652
-0.0279172
-0.0222166
0.0501337
-0.353813
0.127788
0.0885388
-0.332127
0.243587
0.12072
0.350915
-0.471635
0.315126
-0.208771
0.21707
-0.0283345
-0.188736
0.492727
-0.150869
-0.420083
0.282626
0.161554
0.17089
0.200435
-0.461817
-0.311199
-0.175973
0.487166
-0.433877
0.378724
0.055148
-0.0597187
0.0221078
0.037611
-0.244366
0.355915
-0.267379
0.397351
-0.435752
0.0384003
-0.166985
-0.0347065
-0.151531
0.378213
-0.226685
0.276657
-0.438958
0.0968701
0.0951608
-0.292693
0.197531
-0.121786
-0.340407
-0.534376
0.258809
0.275566
-0.558385
0.262967
0.295417
0.206898
0.250335
-0.457234
-0.448505
0.149458
-0.437216
0.0878685
-0.45428
0.120524
0.0213912
-0.0119423
-0.00944893
0.114302
-0.233109
0.118806
-0.597553
0.338305
0.259246
-0.392776
-0.20478
0.0962682
-0.223971
0.127703
0.30371
-0.497573
0.193863
0.280619
0.23974
-0.165423
-0.233953
0.399375
-0.249375
-0.0431827
-0.0943302
0.428927
0.122693
0.266872
-0.404705
-0.0291769
-0.228802
0.152751
0.0760509
-0.160625
0.0769584
-0.168538
0.0915793
-0.0748539
-0.102174
-0.0430084
-0.0653091
-0.616473
0.299842
0.31663
0.254756
-0.23649
-0.0182651
-0.155418
0.149362
0.00605516
0.0402263
-0.424157
0.383926
-0.1072
0.184158
-0.209217
-0.0306709
0.055304
0.0361876
0.161284
-0.458452
0.297163
-0.300304
0.00425491
0.444109
-0.110279
0.0630462
0.339909
-0.402958
0.0155862
-0.0209164
0.00533014
-0.0236473
0.194551
-0.170904
0.425055
-0.29158
-0.133475
0.027133
-0.0310312
0.00389818
0.447867
-0.286586
-0.167624
-0.365144
-0.0307793
0.120747
0.355638
-0.196887
0.315903
-0.119017
0.0429424
0.329935
-0.372878
-0.0850946
-0.24621
0.156282
-0.410818
0.254534
-0.297971
0.101082
-0.172129
0.269411
-0.0972828
0.0836494
-0.0938957
0.224498
-0.12823
-0.0779534
-0.32568
0.0307848
0.358295
0.0656193
-0.266834
0.329878
-0.0299506
0.173708
-0.143757
0.504591
-0.200881
0.098248
-0.0593233
-0.0389246
0.557888
-0.299098
-0.25879
0.181821
-0.184491
0.00266911
-0.417013
0.100841
0.0204755
-0.0186406
-0.00183489
0.0840771
-0.245909
0.161832
0.11451
-0.32749
0.212979
-0.273089
0.10096
0.299289
0.125764
-0.409048
0.298721
0.110326
0.140177
-0.476142
-0.172624
-0.104771
0.183596
0.586098
-0.32002
-0.266079
0.214669
-0.201686
-0.012984
0.0672781
-0.172049
-0.141105
0.229502
-0.0217315
-0.207771
0.150435
-0.2833
0.187055
-0.0125243
-0.00393663
-0.00206196
-0.182575
0.0795184
0.135769
-0.213686
0.217699
-0.00401306
0.241329
-0.484163
-0.00544028
0.187262
-0.01457
0.477675
0.0320056
-0.0716454
0.0396398
-0.123521
0.334378
-0.512799
0.17842
0.303902
0.282196
0.377584
-0.395729
0.223231
0.317053
-0.0526484
-0.0430769
0.237868
-0.106936
0.397067
-0.290131
0.191188
-0.0610351
-0.00457494
-0.0735426
0.216201
0.224076
0.192651
-0.281123
-0.146926
0.301267
-0.197935
-0.103333
-0.353952
0.158254
0.195697
0.461831
-0.298027
-0.163805
0.284702
0.265788
-0.372489
-0.0365603
0.266987
-0.40712
0.14013
-0.420673
0.109469
-0.53415
0.294695
0.239453
0.158581
-0.486878
0.328297
0.263574
-0.256197
-0.0073776
0.0405419
-0.203729
0.163187
-0.210951
0.186366
0.0245847
-0.122276
0.185982
-0.0637063
0.0572759
-0.179552
0.0100093
0.00784808
-0.0178574
0.231132
0.0291357
-0.154545
0.125409
-0.267142
0.47404
0.430643
-0.0356652
-0.394978
-0.419648
0.157748
0.158149
0.143118
-0.345164
0.211859
0.133303
-0.263138
0.12908
0.170573
0.0164818
0.406592
-0.246746
-0.159846
-0.373164
-0.199813
0.10889
-0.0252409
0.284279
0.235521
0.211122
-0.0968199
0.558949
-0.288416
-0.270533
0.00604808
0.0190006
-0.0250487
-0.151034
0.236333
-0.206328
-0.352058
0.0278579
-0.000724867
0.128221
-0.141991
0.0137698
-0.503285
0.401773
0.101503
0.31824
0.14359
-0.252197
0.469486
-0.21729
0.183328
-0.103809
0.221682
-0.513128
0.291445
-0.356614
-0.177764
-0.165801
-0.0142365
-0.0144266
-0.196524
-0.0830886
0.383816
-0.241418
-0.310337
0.209024
0.101312
0.165042
0.0773285
-0.242371
0.0384103
-0.103121
0.0647103
-0.214468
-0.12709
0.341557
-0.608113
0.359978
0.248134
-0.038621
0.225885
0.333064
-0.317013
0.359955
0.0354109
0.121795
0.293565
-0.415366
0.193882
0.00594128
-0.242001
-0.366112
0.25892
-0.0938789
0.526429
-0.228989
-0.297443
-0.197208
0.195146
0.196394
-0.493745
0.297351
0.353122
-0.0861376
-0.0224793
0.0192398
0.00323956
-0.171726
-0.325847
0.127514
0.373387
-0.500901
0.191374
0.0381284
-0.00636261
-0.292496
0.298858
0.285051
-0.432982
-0.464961
0.0822424
0.382717
0.502387
-0.323447
-0.178947
-0.0160637
0.199065
-0.183002
-0.0633877
0.0333503
0.0300374
0.21351
0.0754878
-0.288999
0.238215
-0.118121
-0.120094
0.212392
-0.145114
0.110427
-0.0491263
0.360125
-0.356853
-0.00327125
0.0479141
0.132977
-0.0539229
0.414048
-0.509767
0.330769
0.178997
0.155329
-0.126193
-0.181693
0.244309
0.0163042
-0.260613
0.220168
0.0874061
-0.464354
0.247912
0.409799
-0.38326
-0.0265395
0.143547
0.295734
-0.514315
0.21799
0.296323
0.309807
-0.122564
0.457283
-0.120914
-0.336372
0.430342
-0.308553
0.0803323
0.376948
0.0111526
0.333605
0.277116
-0.377948
0.100832
-0.317099
-0.1584
0.475497
-0.543967
0.365186
0.178781
0.123188
-0.136363
0.0131753
-0.152238
-0.373583
-0.259379
0.455367
-0.19599
0.358197
0.125883
-0.48408
0.238494
-0.244857
0.0344939
0.375305
-0.208514
0.415937
-0.207979
0.196039
0.363091
0.347085
0.0352438
-0.382329
-0.199215
0.025313
0.173902
-0.138388
0.0942411
0.0441469
-0.0556211
0.0635224
-0.00790131
-0.248114
0.0344271
0.385041
-0.382825
-0.355806
-0.0612107
-0.0308011
-0.0325865
-0.00101181
0.518987
-0.323217
-0.195771
0.508293
-0.142415
0.151668
-0.334459
0.18279
-0.0136024
0.524866
-0.137103
0.484188
-0.112945
0.0463216
0.0666234
-0.139243
-0.185577
0.134804
-0.00760487
0.199978
0.319008
0.491355
-0.173116
0.112197
0.126017
-0.45733
0.257507
-0.133517
-0.254875
0.38839
-0.503977
0.216652
0.287317
-0.53045
0.309435
0.221014
0.046877
0.298554
0.0804847
-0.441558
0.349873
-0.388817
0.0389449
0.266465
-0.439371
0.172905
0.281728
0.124864
0.152884
0.0595076
0.493018
-0.119632
-0.163861
0.430326
-0.423474
0.106372
-0.250698
0.184196
0.0665017
0.335566
-0.140764
-0.194802
0.0247524
-0.239221
-0.247672
-0.132394
-0.0149779
-0.146709
-0.184028
0.230288
-0.0462604
0.236314
0.00799429
0.296671
0.100302
-0.396974
0.468646
-0.310066
-0.471121
-0.187348
0.272467
-0.08512
-0.290683
0.103334
-0.0175857
0.0184141
-0.000828389
-0.0530735
-0.045933
-0.246583
0.447015
-0.285252
0.285483
-0.190323
-0.0286414
-0.0610355
-0.533183
0.244767
-0.284375
0.448314
0.356419
-0.345274
-0.429808
-0.114159
-0.135758
-0.254048
0.389804
0.451993
-0.155323
-0.124124
-0.186761
0.310883
0.433201
-0.0117356
0.170683
-0.376208
0.128533
0.335574
-0.477118
0.215728
-0.2261
0.0103719
-0.00505801
-0.0505631
-0.429179
0.2922
0.136978
-0.218064
-0.286443
0.427831
-0.268969
-0.158865
-0.393794
0.134413
0.269526
0.119838
-0.389367
-0.409676
-0.424627
0.268173
0.156454
-0.513301
0.192619
0.320682
-0.307067
0.220205
0.0868615
0.127376
-0.270238
0.142861
0.292378
0.135451
0.13676
-0.16671
0.482448
0.0571063
-0.401534
0.344427
0.155818
-0.00343438
-0.210052
-0.334749
-0.232885
-0.297565
-0.241152
-0.105534
0.346686
-0.110376
-0.422273
-0.0140407
0.249216
0.021094
0.193575
0.503153
-0.133497
-0.369659
-0.125727
0.389364
-0.263641
-0.0169651
0.223185
0.331854
-0.363945
0.253687
0.110258
0.49412
-0.198703
-0.295417
-0.518933
0.165741
0.353191
0.249517
0.27691
-0.199376
0.19601
0.0827021
-0.293829
0.211127
0.209539
0.126026
0.387998
-0.252075
-0.149677
0.277053
-0.365149
0.466841
0.159913
0.302011
-0.461926
0.0151157
0.00627546
0.490665
-0.216697
-0.273968
0.27597
0.278601
0.24515
-0.38242
0.137267
0.502433
-0.354775
-0.147659
0.171473
-0.198241
0.257158
-0.184413
-0.0727444
0.28342
0.163083
-0.446504
-0.172285
0.283528
0.0562176
0.0486941
-0.104912
0.336408
-0.184741
-0.27161
-0.160761
0.432366
0.243258
-0.408682
0.0564745
-0.227715
0.17124
-0.00320704
-0.0693823
-0.164848
0.446019
-0.31527
-0.13075
0.0821517
-0.349701
0.267547
0.25319
0.249242
-0.175473
0.160803
0.0146691
-0.337771
-0.181164
0.339677
-0.257527
-0.360288
-0.172896
-0.0465713
-0.340224
0.386793
-0.0743469
-0.154703
0.22905
-0.169806
-0.144688
0.314494
0.474757
-0.142118
-0.344656
0.309474
0.136545
0.120664
0.218831
-0.339496
0.384762
-0.139614
0.184137
-0.482631
0.298491
0.451433
-0.169706
0.0455996
-0.11808
0.168251
-0.192617
0.0243664
0.00685638
0.010865
-0.0176104
2.47681e-05
-0.390539
0.138342
-0.434406
0.484112
-0.0497066
0.00810072
-0.286948
0.341933
-0.054985
0.195194
0.29547
0.17776
0.32683
0.24038
-0.366872
0.12649
-0.14633
0.0193866
-0.185981
0.166594
-0.130613
-0.372679
-0.0771745
0.368512
-0.462843
-0.445111
0.315168
0.12994
-0.466029
0.168001
-0.296896
0.148688
0.00713016
0.280268
0.122247
-0.402515
0.268964
0.156754
0.220156
0.189628
-0.162045
-0.469887
0.185512
-0.042438
0.395673
-0.045801
0.36801
-0.127631
-0.331897
0.486596
-0.1547
0.298495
0.176404
-0.184236
0.284392
-0.405105
-0.149211
0.299894
-0.217192
0.0984796
-0.262307
0.289247
0.159509
-0.448757
0.0354142
0.0462793
-0.0816935
-0.00746523
0.0174746
0.319923
-0.205413
-0.444451
0.272147
-0.294184
-0.0230616
0.254723
-0.198249
-0.194578
-0.0643065
0.258884
0.0723495
-0.192064
0.119714
0.0602201
0.0611327
-0.121353
-0.106484
-0.224856
0.331338
-0.335277
0.380633
-0.045356
-0.0879564
-0.406105
0.184394
-0.0161433
-0.132344
-0.494711
0.204798
0.289912
0.0787834
-0.194222
0.115438
-0.0989994
-0.08683
-0.0748665
-0.162298
0.237164
0.140689
-0.264814
-0.174058
-0.134412
-0.138678
0.446728
0.228603
0.119522
0.272046
-0.201936
-0.0701099
0.153472
-0.402565
0.249091
0.178986
-0.171834
0.215824
0.14112
0.0251283
0.161038
-0.186167
0.298531
0.13547
-0.434002
0.351169
0.0978464
-0.449015
0.149312
0.229406
-0.316378
0.269805
0.0937239
0.486716
-0.310547
-0.176172
-0.121364
0.577577
-0.298006
-0.279571
-0.0229285
0.142566
-0.00805436
0.208665
-0.326358
0.11769
0.232898
-0.356449
0.12355
-0.0501811
0.216017
-0.165836
0.237609
-0.361758
0.124147
0.0722981
-0.359246
0.164866
-0.243008
0.0781417
-0.29492
0.291427
-0.124807
-0.166621
0.338335
-0.345563
0.00722704
-0.262949
0.482475
0.105564
0.433583
-0.135053
0.0255381
-0.118932
-0.0780428
0.0238681
-0.00789972
-0.0159684
-0.290163
0.347269
0.139146
-0.430727
0.164214
-0.239081
-0.0466361
-0.0621695
0.108806
0.169494
-0.242713
0.0732191
0.149646
-0.396393
0.00117858
-0.333847
0.332668
-0.44555
0.000985536
0.444564
0.241249
0.336328
-0.473511
0.311855
0.161654
0.208013
-0.135663
0.354487
-0.11688
0.319527
-0.232634
-0.0868946
0.0265933
0.0106269
-0.0372202
0.598246
-0.294345
-0.298729
0.148517
-0.335428
0.186911
-0.0901693
0.131136
-0.409001
0.277864
0.37387
-0.165209
0.279156
0.183032
-0.0173887
-0.00520316
0.0225918
-0.291574
0.457917
-0.166343
-0.271194
0.402329
-0.161276
-0.312237
-0.0603123
0.0987225
0.0451947
0.211963
0.427807
-0.293122
-0.134685
-0.458239
0.140939
0.317298
0.242505
-0.398625
0.15612
0.23167
0.0878567
-0.120917
-0.0128492
-0.461737
0.162645
-0.434261
-0.0169539
0.0445763
-0.232146
0.18757
-0.329429
0.450149
0.484865
-0.292945
-0.19192
-0.102704
-0.233005
0.335706
0.0488106
0.196474
-0.284224
0.446864
0.496809
-0.331135
-0.165675
0.21194
-0.0205669
-0.133191
0.349014
-0.00489996
-0.130557
0.430969
-0.300419
0.0323282
-0.0442745
0.0119463
0.507155
-0.355491
-0.15167
-0.068243
0.0052698
-0.0969226
-0.281026
0.163943
0.0204503
0.482774
-0.0521317
0.349516
-0.0111821
0.16839
0.229427
-0.397817
-0.156974
0.399478
0.0510874
-0.245666
0.286026
0.152494
-0.438524
-0.430903
0.290868
0.140033
-0.012028
-0.270816
0.0163389
-0.00618335
0.30024
0.177309
-0.468884
-0.449336
0.173292
0.27604
0.105505
-0.31525
0.209743
0.318237
-0.169722
-0.0875161
0.456027
-0.135136
-0.256414
0.391547
-0.419071
0.373323
-0.224016
-0.39026
0.26453
0.327283
-0.464654
0.181758
0.282893
0.0449944
-0.124134
0.0111693
-0.20272
0.191551
-0.0468882
0.102192
-0.323678
-0.128962
0.45264
0.00160985
-0.0189985
-0.249589
0.393559
-0.143974
-0.060804
-0.239568
-0.114385
0.290207
0.167709
0.264517
-0.439468
0.174946
0.502152
-0.323522
-0.178632
-0.41503
0.453789
-0.0387601
-0.261863
0.12745
-0.13857
0.0151379
-0.0773576
-0.0610304
0.191142
-0.146566
-0.47943
0.312576
0.166854
-0.153319
-0.252533
0.405849
-0.233102
0.0490743
0.206465
0.0571082
-0.0706265
-0.132834
0.20346
-0.445005
0.0694854
-0.417608
0.146747
0.27086
0.180979
0.315829
0.0133455
0.00932174
-0.0226672
-0.110161
-0.0849679
0.195129
0.228674
0.443792
-0.458036
0.0142405
0.127239
-0.126205
-0.0283402
0.210124
0.274741
0.00899685
0.315397
-0.254717
-0.0606802
0.189227
-0.295466
0.106238
0.522714
-0.1718
0.497707
-0.162133
0.0436653
0.0558929
0.196121
0.0976826
-0.293805
0.324421
0.157709
-0.482131
-0.0632127
-0.126526
0.189739
0.148298
-0.134085
-0.261216
0.395298
-0.221966
-0.291217
-0.202414
0.401954
-0.199541
-0.241299
-0.16341
-0.136561
-0.254086
0.390644
0.235925
-0.397868
0.161937
0.159855
-0.387265
0.227409
0.09663
0.250618
-0.347251
0.14298
-0.341251
0.19827
0.212647
-0.199335
-0.0133124
0.338394
-0.354444
0.0160477
-0.0879526
0.284073
-0.222938
-0.106321
0.329259
-0.00713571
0.0204812
0.0127332
0.368932
-0.27753
-0.186824
0.0359741
0.0606075
-0.0965816
0.321371
-0.294855
-0.0265175
-0.447102
0.267713
0.179387
0.451263
-0.161057
0.32214
-0.459243
-0.12303
0.306019
-0.18299
0.0220104
0.29936
-0.417874
0.453416
-0.0355441
0.12369
0.148777
0.336906
-0.193927
-0.110436
0.294364
-0.18393
-0.0189371
0.0455304
-0.0238582
0.240928
-0.521553
0.299324
0.222228
0.233447
0.132775
-0.366224
-0.0241125
-0.248365
0.272477
0.210586
0.284969
-0.461879
0.17691
0.125238
-0.0569797
0.284709
0.143587
-0.428301
-0.0826973
0.194894
0.197032
0.0149081
-0.398167
0.257681
0.140483
0.270336
-0.4286
0.158261
0.215264
-0.431166
0.215901
0.309108
-0.17122
0.140564
0.00836063
-0.148925
-0.0458587
-0.419104
0.0366112
-0.360289
-0.190228
0.126687
0.028642
0.265861
0.049536
0.308088
-0.202583
-0.348918
0.242411
0.106507
-0.150124
-0.215894
-0.118565
-0.072489
-0.161019
0.380443
-0.219426
0.0711753
0.0510655
-0.122241
-0.0445313
0.168096
0.26592
-0.394709
0.128788
-0.205749
0.0826942
0.123055
0.10206
-0.42546
-0.0337066
0.459166
0.195212
-0.175825
-0.163192
0.44816
0.371767
-0.224351
0.150004
0.0973414
-0.293106
0.195763
-0.2825
0.322723
0.487919
-0.190686
-0.297234
-0.319
0.454402
-0.135407
0.385901
-0.23243
-0.303692
0.381451
0.491757
-0.391456
-0.153185
0.417698
-0.159547
0.42988
-0.0468542
0.367361
-0.133915
0.282475
0.154859
-0.437335
0.188789
0.0238575
0.232379
-0.152263
0.0961233
-0.369568
0.273445
0.182575
-0.142825
-0.0221914
-0.366626
0.254479
0.497226
-0.428798
-0.0684284
-0.287751
-0.11042
0.114836
-0.0546161
0.277766
-0.517926
0.240158
-0.314448
0.439987
-0.125542
-0.256315
0.195884
0.0604308
0.500998
-0.32002
0.282349
-0.0743361
0.206702
0.106316
-0.313019
0.212047
0.111287
-0.323336
-0.0832379
-0.129581
0.212819
0.268284
0.125068
-0.393355
-0.0188029
-0.179339
0.412152
0.0850734
0.340534
-0.00214164
-0.200338
0.118008
0.0823293
0.0755565
-0.0180215
0.0165079
-0.257555
0.233443
-0.291222
0.475356
-0.0898292
0.32444
-0.234614
-0.281919
0.368407
-0.086489
-0.405382
-0.0397316
-0.0684608
-0.187855
0.24082
-0.347757
0.198736
0.274768
-0.473504
0.175088
0.0895654
-0.264654
-0.380773
0.139468
-0.210618
0.370471
0.421307
-0.0350282
-0.221169
0.287668
-0.190327
-0.230521
0.336341
-0.10582
0.108798
-0.432254
-0.467917
0.329086
0.138827
-0.12445
-0.288122
0.412572
0.328462
0.140754
-0.000190353
0.228992
0.07789
-0.306883
0.314796
0.173123
0.0127587
0.00551682
-0.0182755
0.0299714
0.202408
-0.195834
0.491308
-0.295474
-0.00444524
0.0766172
-0.463367
-0.0695151
-0.0434299
-0.328472
0.171474
0.498607
-0.245417
-0.0845087
0.291209
0.392952
-0.320654
0.114672
-0.352486
0.237812
0.068097
-0.114733
0.360913
0.130843
-0.193399
0.125221
-0.100471
-0.384215
-0.030817
0.306722
0.138774
-0.445497
0.404597
-0.135074
-0.0224211
0.208227
0.0741216
0.230021
0.137987
0.366599
-0.153393
0.453667
-0.311135
-0.142537
-0.418448
0.257682
0.28733
-0.112242
-0.122848
-0.2679
0.390744
-0.0576116
0.0935857
0.205254
-0.388459
0.183202
-0.256961
0.0804791
0.176482
0.158147
0.289716
0.354571
-0.149319
-0.141321
-0.326599
0.348485
-0.233815
0.200546
-0.189377
0.33536
-0.106368
0.245314
-0.0707469
-0.174567
-0.209648
0.0302521
0.179396
0.13745
-0.391871
0.25442
0.220966
-0.375554
0.154585
0.496607
-0.206304
-0.290303
0.179037
0.245331
-0.424373
-0.342637
0.112117
-0.0252987
-0.425793
0.451083
-0.161059
-0.12373
-0.126968
0.230761
-0.474106
0.135128
0.499636
-0.340228
-0.159409
-0.41054
0.0915358
0.0132359
0.00346996
-0.0167059
-0.383542
-0.0508638
0.0454769
0.350197
0.213108
0.013388
-0.226496
0.299779
-0.14992
0.175048
-0.247925
0.426956
-0.201598
0.487884
-0.28629
-0.144752
-0.171114
0.315865
0.126861
0.263044
-0.389906
0.212017
0.345137
-0.115117
0.295764
-0.106538
0.23981
-0.369299
0.129487
0.0576923
-0.223657
0.0563773
-0.118547
0.252067
0.217445
0.13704
0.271004
-0.436575
0.165567
0.270283
-0.440901
0.170618
0.384967
-0.247518
-0.139905
-0.261342
0.401243
-0.314773
-0.178972
0.199286
-0.310928
0.11164
0.155005
-0.286583
0.189904
0.289537
-0.479441
-0.104857
0.0511774
0.0536797
0.00992908
0.124875
-0.36841
-0.151277
0.482045
0.189706
-0.209324
0.0196176
0.0240051
-0.287315
0.263309
-0.16389
-0.0162255
0.180115
-0.192912
-0.122497
-0.142044
0.26454
-0.0210143
-0.00292812
-0.337839
-0.156914
0.494748
0.437449
0.321211
0.173945
-0.0916987
-0.202131
0.286184
-0.427976
0.141792
0.167466
-0.431676
0.105746
-0.188444
0.373304
-0.104527
-0.268777
0.430074
-0.285545
-0.144529
0.209376
-0.0196696
0.0494582
-0.0134985
-0.0359597
0.0267078
-0.00829374
-0.318142
0.177378
-0.316228
0.171799
0.144427
0.0894835
0.193513
-0.282999
0.168041
0.165462
-0.333503
0.206377
0.29462
0.529276
-0.219425
-0.309852
0.173714
-0.190573
0.0168586
0.303434
-0.376045
-0.0418298
-0.176011
0.00278605
0.0176894
0.163517
-0.238021
0.0745028
0.0382809
-0.334459
0.296177
-0.163272
-0.316159
-0.179691
-0.0772702
0.345089
0.0849848
0.247559
-0.337391
-0.0735147
0.372459
-0.132651
0.257331
0.0348072
-0.292138
0.533187
-0.203252
0.258697
-0.135008
0.230293
0.107431
-0.337725
-0.196677
0.398503
-0.201826
0.256947
-0.246339
-0.0106092
0.250964
-0.399528
0.14856
-0.0740223
0.35429
0.417498
-0.110776
-0.217328
-0.304226
-0.285744
-0.202617
0.48836
-0.000172902
-0.221044
0.221216
0.435048
-0.164766
-0.139347
0.287869
-0.148521
0.0243219
-0.126143
-0.318489
0.35678
-0.0382915
-0.0188358
-0.0842848
-0.374636
0.264357
-0.303646
0.341926
-0.089207
-0.0493634
-0.362369
0.288347
0.236144
-0.36278
0.126635
0.0953047
0.190178
-0.144264
-0.197211
0.286692
-0.173158
0.172985
0.271113
-0.247109
0.0787801
0.193266
0.209057
0.0066714
0.294982
0.234293
-0.51005
0.186077
0.323971
-0.249849
0.293224
-0.0433758
0.198727
-0.401271
0.0266354
-0.291224
0.509212
0.314561
-0.115276
-0.422144
0.268822
0.146845
0.291554
-0.416005
0.23471
-0.155926
0.0147071
0.0305593
-0.0452664
0.248199
0.136561
-0.219904
-0.170413
-0.285633
0.146908
0.251696
-0.398607
-0.180906
0.414275
-0.148357
0.181593
0.0792584
0.313693
0.194026
-0.212768
0.0187422
-0.0683551
0.325685
-0.156145
0.377827
0.446775
-0.0452223
-0.210004
-0.0974701
0.307473
0.158013
0.248755
-0.40677
0.363067
0.0124361
0.18811
-0.00235252
0.0155884
-0.201978
-0.222649
-0.0594893
-0.0222869
0.269601
0.144672
0.0178151
0.00399895
-0.0284413
-0.0250481
0.0534894
0.00913368
0.0403245
0.131279
-0.0668373
-0.0644418
-0.182468
-0.0129728
-0.325431
-0.343006
-0.170295
-0.150629
0.131491
0.0191375
-0.247862
-0.415525
0.247285
0.249679
0.136735
-0.386417
-0.139005
-0.0329209
-0.216928
-0.157599
-0.137061
-0.376068
0.0501488
-0.373366
-0.0681973
0.114519
-0.168752
-0.0171675
0.18592
-0.454355
0.269642
0.184712
-0.140136
0.121781
0.0183551
0.259424
0.019886
-0.27931
0.431345
0.150044
-0.414014
0.263969
0.127635
0.266872
-0.394511
0.0503794
-0.110444
0.158358
0.374309
-0.447494
0.223648
-0.0348592
0.179751
0.0141305
0.0025158
-0.0211564
0.0175309
-0.0106745
-0.0497202
-0.149833
0.199553
-0.0184936
0.205226
-0.186733
0.201319
0.232264
-0.0101734
0.254797
0.00214948
0.300502
0.0965643
0.167632
-0.370046
-0.21789
-0.100253
0.0112109
0.108048
-0.119258
-0.0239417
0.221734
-0.0645282
-0.334141
0.221418
-0.429932
0.417818
-0.0530365
-0.0518206
-0.277611
-0.117099
-0.165667
-0.312361
0.167608
0.247893
0.125411
0.433789
-0.417809
-0.0159904
-0.413226
0.0712241
0.342002
-0.282762
0.160264
-0.419297
0.0672326
0.352065
-0.342549
0.535168
0.301337
-0.155875
-0.145463
-0.337377
0.137462
0.199915
-0.192612
0.0192786
-0.0133522
-0.00592638
-0.22748
0.228147
-0.33139
0.103243
-0.0703021
0.0360619
0.0342402
-0.212377
0.17995
0.032427
0.160027
-0.082955
-0.292273
0.375228
-0.176796
0.398214
0.250089
0.136145
-0.386237
-0.160103
0.425242
-0.265145
-0.281254
-0.187485
-0.189492
-0.277695
0.503103
-0.205647
-0.297456
0.0835112
0.00372536
0.275431
0.149128
-0.42456
-0.163683
0.027425
0.167787
0.112747
-0.274833
0.162085
0.197017
-0.0233036
-0.304031
0.0994933
0.204537
0.195416
0.104477
0.300351
0.158519
-0.45887
0.10587
0.195467
-0.140436
-0.250219
0.390653
-0.25784
-0.151657
0.409494
0.189141
0.147268
-0.331417
0.480958
-0.149544
-0.0610781
0.127585
-0.0665069
0.180193
0.278235
-0.45843
-0.143074
-0.270945
-0.180757
0.451702
-0.255362
-0.174858
0.430219
-0.128012
0.325768
-0.27562
-0.479647
-0.0816396
-0.175311
0.25695
0.255804
0.127181
-0.382987
-0.411624
0.142653
0.328855
-0.0605124
-0.0778404
0.268729
0.101154
-0.369884
0.329074
-0.424452
0.0953774
-0.0313258
-0.0843387
-0.00899795
0.268422
-0.0428279
0.0122234
0.0306045
0.165146
0.0806218
-0.245768
0.452161
-0.291026
-0.161137
-0.42747
0.0960504
-0.0330879
-0.0372141
-0.171866
0.143531
-0.281369
0.414933
-0.0858594
0.23907
-0.170697
-0.0683732
-0.184978
0.485487
-0.163347
0.472502
-0.185661
-0.286843
-0.168961
0.461116
-0.292158
0.383056
-0.256196
-0.27536
0.360622
-0.0852628
0.314522
0.132215
-0.446738
0.418123
-0.147011
-0.202764
-0.169725
0.131928
0.266623
-0.398555
0.514275
-0.179898
-0.216409
0.459193
-0.242784
0.0611739
-0.42049
0.359316
0.238803
0.264299
0.403246
-0.147443
-0.425191
-0.00862396
0.433815
-0.0362312
-0.0128099
-0.0222497
0.0350596
0.0579554
-0.393233
-0.0331865
0.0478936
0.404221
-0.358744
0.206245
0.00281112
-0.0412512
-0.419414
-0.0993439
-0.18287
0.16398
0.0188898
-0.00362525
0.0211931
-0.0175678
-0.146577
-0.263803
0.410377
-0.249972
-0.0856488
0.335621
-0.31676
0.118857
0.0305048
0.248676
0.349947
-0.425345
0.0753983
0.406605
-0.2597
-0.144853
0.448137
-0.361335
-0.0182124
-0.167769
-0.0469223
0.122793
0.020376
0.0650443
-0.0854203
0.110492
-0.33535
-0.487303
0.27725
0.457002
0.496938
-0.34476
-0.152179
0.104087
-0.32414
0.220053
-0.27618
0.393603
-0.117428
-0.00693419
-0.0464926
0.191822
-0.145329