/*--------------------------------*- C++ -*----------------------------------*\
| =========                 |                                                 |
| \\      /  F ield         | OpenFOAM: The Open Source CFD Toolbox           |
|  \\    /   O peration     | Version:  v2012                                 |
|   \\  /    A nd           | Website:  www.openfoam.com                      |
|    \\/     M anipulation  |                                                 |
\*---------------------------------------------------------------------------*/
FoamFile
{
    version     2.0;
    format      ascii;
    class       volScalarField;
    location    "650";
    object      p;
}
// * * * * * * * * * * * * * * * * * * * * * * * * * * * * * * * * * * * * * //

dimensions      [0 2 -2 0 0 0 0];


internalField   nonuniform List<scalar> 
18355
(
0.0048602
0.00449023
-0.0387786
0.00347714
0.00780653
3.83355e-05
0.0050783
0.00759209
0.00471876
-0.00411395
0.00937834
-0.0372969
-0.036557
0.00672116
0.00462197
0.00394835
0.00352767
0.00853848
-0.0289957
0.0062802
0.0249092
-0.00193392
0.00455996
-0.00035564
0.00456741
0.00675822
0.00514893
0.003654
0.00462419
0.0100772
-0.0324028
0.0171887
0.00402392
0.00364967
0.000274078
0.00738525
-0.0168994
0.00744097
0.0105034
0.00431442
0.000661197
0.00982926
0.00369651
0.00447393
0.00448985
-0.0266361
0.00453823
0.00451393
-0.0384008
0.00561511
0.00330868
-0.00858101
0.0056707
-0.00840653
0.000594037
0.00621015
0.00179416
-0.0291811
0.00692123
-0.0107986
0.00367262
-0.0337948
-0.00587379
0.00411645
0.0181544
0.00321677
-0.00242047
-0.0164352
0.00349823
-0.00633578
0.00525306
0.000553079
0.0145662
0.0091488
0.0057524
0.00355978
-0.0265063
0.00358018
0.00521006
0.00577471
-0.00189524
0.00345104
0.00352636
0.000116948
0.00415566
0.00411367
0.0040813
-0.00239999
0.00509196
-0.0014558
-0.0439786
0.0269963
0.00230894
0.00559934
-0.00832011
0.00422862
0.00478007
0.00418213
-0.017804
-0.000868344
0.00374095
0.00519978
0.00554515
0.000246071
-0.00116574
0.00396598
0.0184112
-0.011354
-0.00852809
0.00385011
0.00182061
0.00311135
0.0123051
0.000263532
-0.0144999
0.00767883
0.00516404
0.00468431
-2.09327e-05
-0.00325065
-0.00669715
-0.0375315
-0.0494624
-0.0011978
0.00408617
-0.0214409
0.0050832
0.00346937
0.0024508
-0.00159647
0.00482205
-0.0181378
0.0022006
-0.0259256
0.0107563
0.0051587
-0.0306222
-0.00379386
0.0022365
0.0276779
-0.0112726
0.0059332
0.00477895
-0.014529
0.0115061
0.000802123
-0.00524712
0.00032171
0.0124505
-0.00133811
0.00365365
-0.00330752
0.00430942
0.00499189
0.00372277
0.00451794
0.00350023
0.00401097
0.00479179
0.00451513
0.00866537
0.00226333
0.00387028
0.00530752
0.009474
-0.0012067
-0.00197295
0.00684123
-0.0157535
-0.0107614
0.00271159
-0.0254083
0.00393418
-0.0399862
0.00134662
0.000829971
0.0030501
0.000199538
-0.0138393
0.00363612
0.00426449
-0.000123323
-0.00178759
0.00372205
0.00169191
0.00551166
0.00452012
0.000141946
0.000161094
0.00520192
-0.0235126
-0.0187146
0.0045405
0.00347904
0.000564611
-0.0203839
0.00335469
0.00244505
0.0045043
0.00517025
0.00546848
0.00789923
0.0106819
0.00438837
0.00577886
-0.00214303
-0.0137838
0.00378003
0.00396583
0.00445928
0.00135642
0.00333476
0.00410696
0.00411625
0.000301797
-0.0461284
0.00421121
-0.0176874
-0.00183169
0.004747
-0.0085664
0.00326762
-0.00374276
0.00448926
0.00482923
0.00468798
0.00333237
-0.00081794
0.00731701
0.0113928
0.00486579
-0.00164557
-0.00340946
0.00330688
0.00522751
0.00472743
-0.00970753
-0.0246752
-0.0231128
0.00418524
0.00452615
-0.0135673
0.004227
0.00996294
-0.00185446
0.000474753
0.00432378
0.00354825
0.000568928
0.00524378
0.00414364
-0.000458432
-0.0299455
0.00440815
0.000234231
0.00407156
-0.0224119
0.00122235
0.00462749
0.0048249
-0.00261919
0.00587845
-0.0189608
-0.028716
0.0110813
0.00643607
0.00611914
-0.0181452
0.0048429
0.000451127
0.00526685
0.00383182
0.00794607
-0.0183299
0.0038156
0.00059296
0.00958988
0.00512296
0.00272439
-0.0768115
0.00957053
0.00127754
0.00881967
0.00381217
-0.00419086
-0.00220862
0.00511619
0.000725695
0.00479
-0.00601859
0.00400141
-0.0247954
-0.00122479
0.00484039
0.00607038
0.00462299
0.0034501
0.00248397
0.000832915
0.00587112
-0.0184174
-0.0310635
-0.00653125
-0.0195646
0.00817319
0.00968274
0.00563265
-0.0208884
-0.0280432
-0.0239697
0.000996797
-0.0468761
0.00487764
0.00851726
-0.00466234
0.00946029
0.00481727
0.00456364
0.00408956
-0.0362568
-0.0468277
-0.0895669
0.000191594
0.00978957
-0.0119632
0.000721831
0.00047672
-0.00216555
-0.011327
-0.000315679
0.0108084
0.000166056
-0.0136759
0.00399119
0.00548552
0.000777557
0.00409573
0.00848207
-0.0320116
0.0069121
0.00930027
0.00161722
0.00164861
0.00512632
-0.000176584
0.00631513
-0.0060265
0.00514998
0.00264646
0.00132028
0.000801884
0.00521759
-0.0287813
0.00620866
0.00420353
0.00493503
0.00638413
0.00156885
0.00700168
0.00335283
0.00266367
-0.000700184
-0.0115716
0.00192675
0.00329901
0.00468594
0.00599074
0.00404638
0.00388279
-0.000679235
0.00244442
0.00958186
0.00011608
-0.00995813
-0.0352846
0.00490869
0.0040986
-0.0215781
0.00397794
0.00582344
0.00642742
-0.000676272
0.00280411
0.00847611
0.00451757
0.00695909
0.000533874
0.0221091
0.00428668
-0.00410123
0.00321463
0.00415916
0.00782116
0.00521076
-0.0308608
-0.0145776
0.00118345
0.00477269
-0.0308356
0.00623309
0.00078369
-2.96161e-05
-0.0249234
0.00010257
0.00957305
0.00509362
0.00994346
0.000804036
0.00323998
0.00865159
-0.0151375
0.000181423
-0.115253
-0.00123278
0.00388836
0.0234275
0.000739815
0.00674337
0.000633361
0.0194845
0.000744006
-0.0260744
0.00226962
-0.0194161
0.00402693
0.00450666
-0.0199097
-0.000475848
0.00495092
-0.00460572
0.00597473
0.00389847
-0.025385
-0.0301059
0.00450796
0.00434725
0.00832738
-0.0480107
-0.0118326
0.00112793
0.00568363
-0.025305
0.00455435
0.00380745
0.00491266
0.00362628
-0.0137963
0.00395558
0.00420171
0.0010892
-0.031047
0.0063957
0.00341793
0.0067551
-0.00468489
-0.00284682
-0.0188578
-0.033048
-0.00200292
0.00449631
-0.0117877
-0.0313922
-0.0240094
0.00391402
-0.00265088
0.00226518
0.00393577
-0.00553388
-0.00114267
0.0231497
0.0138707
-0.00399862
0.00945193
-0.00229847
-0.0293773
0.000273719
-0.0281626
0.000337966
0.00387664
-0.00597245
0.00389355
-0.0317896
-0.0194703
0.0204754
0.00888022
0.00418401
0.000679303
0.00442218
0.00816205
0.00415907
0.00314311
-0.000649279
-0.0051703
0.00452748
0.00414391
-0.0246313
0.000402462
-0.00627875
-0.00169501
0.00420411
0.00768219
-0.0018324
-0.000642974
-0.0455039
0.00825368
0.00192585
0.00918909
-0.00552905
-0.00828408
-0.0116606
0.000381202
0.00703061
-0.031713
0.00411741
0.00596228
-0.108389
-0.0241078
0.00427079
-0.0111741
0.00380868
-0.0255929
0.0178818
0.00222805
0.000779214
-0.00577839
-0.00248024
0.00482318
-0.0256219
0.00319724
0.00493902
0.0080341
-0.00225208
-0.000494946
0.000351244
0.00829712
0.0255043
-0.0474391
-0.0209634
-0.00126412
0.00936841
0.0160386
0.0133831
0.0044875
0.00303653
0.00949133
0.00866161
-0.00245391
0.000375447
0.00430588
0.00482396
-0.00342001
0.0088381
-0.0291543
-0.0345299
0.0029508
0.000854285
0.00189079
-0.000590367
-0.0290972
0.00292683
0.0278817
0.00111455
0.000646704
0.0135828
-0.0188278
-0.0145419
0.00433292
0.00343284
-0.0242216
-0.0246174
-0.0286697
7.53544e-05
-0.0341342
0.00484744
-0.0448128
1.69985e-05
0.00537636
-0.030577
0.00449673
0.00572285
0.00150078
0.00302267
0.00493287
-0.0107346
-0.0888559
-0.0131366
0.00431669
0.00254114
0.00827403
0.00012528
-0.0130577
0.00150705
0.00448883
0.000340813
0.00211273
0.00264269
-0.00859094
-0.000410076
0.00489091
0.0103633
0.00481782
-0.0313476
-0.00202683
0.000444767
0.00427164
-0.00390211
-0.000869128
-0.0263575
0.0135757
0.00382281
0.00029823
0.00526201
0.00919207
0.00240605
0.000652179
0.0127815
-0.0321462
0.00528132
-0.0593281
-0.0513173
0.00826587
-0.0320647
0.0038232
0.00557998
0.00430735
0.000354769
-0.00568121
-0.0255041
-0.0104532
-0.0127473
0.00488388
0.00523884
0.00383803
0.00121507
-0.0352609
0.00437481
-0.0106031
0.0114915
-0.00139768
-0.0258506
0.00531222
-0.026219
-0.0928171
0.00604294
0.00564189
0.00549127
0.000672922
-0.0264638
0.00131368
0.00479725
0.0058871
-0.008758
0.00482838
-0.0378189
0.00413441
0.00701641
0.00107118
0.00357283
-0.0742747
0.00380677
0.00595382
0.00558235
0.0100348
-0.00256733
0.000674609
-0.00741312
0.00353546
0.00323063
0.00414457
0.0144492
-0.0105125
-0.004747
0.00459345
-0.00167887
-0.00058779
0.00429903
0.0060036
-0.0129979
-0.00259721
-0.00364146
0.00328337
-0.0414977
-0.000451608
0.000482057
-0.029749
0.00162084
-0.0414913
-0.00488845
0.000634165
-0.00530578
-0.000328348
0.00381091
0.00167147
0.00482392
0.00657874
-0.00283215
0.00924678
0.00451989
-0.0275063
0.00671328
0.00648355
-0.0769928
0.00417229
-8.41215e-07
0.00241108
0.00330507
-0.0312427
0.00226321
0.00374621
0.00364262
0.00426765
-0.000446916
-0.0346119
0.00915817
-0.0239915
0.00623525
0.0084407
0.00833442
0.00446311
0.00627183
0.00454154
-0.0324807
-7.10306e-05
0.00336805
-0.0528795
-0.0985713
0.0027881
0.00691023
0.00223703
-0.00248983
-0.0305523
0.000246885
-0.0251592
0.00530396
0.00669782
0.0028156
-0.0226334
0.00476391
0.015967
0.00531108
-0.000421008
0.00116348
-0.0378624
0.00678475
6.54138e-06
-0.0115899
0.00488484
0.00114789
0.00466093
0.000400999
0.0044736
0.00714399
0.00607739
0.00462234
0.00362023
0.00161061
0.00155514
0.0157743
-0.0373286
0.00398657
0.00415725
0.00362807
0.00400723
0.00484674
0.00471029
0.00593912
0.00359899
0.00473734
0.00446644
-0.00145538
0.00810836
0.00394717
-0.0179147
0.0276445
-0.0124276
0.00475215
-0.0326714
0.00372323
0.00361885
0.00389426
0.00474368
0.00875225
0.00387597
0.00368678
0.0045226
0.00947454
0.00347137
0.00962443
0.00232622
-0.000851906
0.00450732
-0.0113661
-0.000120305
0.00483131
-0.00273236
0.00461956
-0.0336499
0.00143934
-0.0239655
0.00268686
0.00591025
0.00906825
0.00587757
-0.0110847
0.00430543
0.00383746
-0.0027443
-0.00470478
0.00731987
0.00396347
0.00311975
-0.00743374
0.00311254
-0.0244811
0.00430606
-0.0282032
0.0154329
0.00442447
0.00462944
0.000630845
0.00430204
-0.0286594
-0.027686
-0.0111546
-0.0173869
-0.00441469
0.00345181
0.00410557
0.00434812
0.00515219
-0.00427328
-0.023446
0.00608656
-0.000253011
-0.00419051
-0.00209424
0.0143575
0.000274428
-0.0308226
-0.0184981
0.000218766
-0.0306462
-0.00431288
0.0112266
0.00467043
0.00347467
-0.00587608
0.00120343
-0.010986
-0.0333743
-0.0311575
0.00406265
-0.00150232
0.00689085
0.00516946
-0.0123119
0.00596302
0.00359754
0.00321155
0.00371034
0.0045816
0.00515068
0.00487498
-0.022212
0.0029551
0.00712026
0.00407576
0.00474078
0.00473515
0.00126922
0.00937476
0.00473097
0.00466946
0.00366419
0.00194017
-0.0307363
0.00845702
0.00344392
0.0047831
-0.00927875
-0.02967
0.000715038
0.00122515
0.00439043
0.00458923
0.00500882
0.00443627
0.0111688
0.00221317
0.00154559
0.00708681
-0.00260546
-0.00356776
0.00144887
0.00450183
0.0036808
0.00873589
-0.0074909
0.00342764
-0.0165929
0.00466265
0.00324116
-0.012657
0.0116875
0.00212104
-0.00139375
-0.0207623
0.00348838
0.00356367
0.0224022
0.00892227
0.00441737
0.0215695
0.00826181
-0.0314989
0.0108872
0.0015712
0.00350862
-0.00279614
0.0071291
0.00349686
0.00456059
-0.00201591
0.00376804
0.00169695
0.00180664
-0.0279155
0.00456047
0.00484164
0.00418357
0.00530658
0.00417737
-0.000611871
-0.0262636
-0.0279109
0.00119761
0.00400748
0.00379051
0.00380189
0.0045795
0.00525531
0.00514917
0.00433246
0.00463388
0.00153064
0.00456289
-0.000893514
-0.0131939
0.00520673
0.00477702
-0.00045855
-0.0154918
0.00397122
-0.0023139
0.00456642
0.00401874
0.00401955
-0.00907209
-0.02967
-0.0010147
-0.0297658
-0.0118657
-0.024242
-0.0199338
0.00386933
0.00913808
0.00517095
0.00477877
0.00360138
-0.0142628
-0.0310494
0.00586532
-0.0177752
0.00689652
-0.0298251
0.00524658
-0.0274051
0.00876098
0.00838313
0.00337023
-0.0614316
-0.0141749
0.004045
0.00327241
-0.0367898
-0.0218447
0.0078555
0.00482395
-0.0320509
0.00394035
0.00460004
0.0110568
0.00567073
0.00677342
-0.0301666
-0.00155016
0.00695186
-0.0147274
0.00841003
-0.109521
-0.0327915
0.00458661
0.00246456
0.00496074
-0.0195105
0.00831083
0.00435665
0.0073619
-0.00975705
0.0153279
0.00587537
-0.000885918
0.00480037
-0.00216431
-0.00592101
0.0032809
0.00479834
0.00253704
0.00330436
0.00517821
-0.000351455
-0.0429979
0.004286
-0.004519
-0.0182305
-0.00655741
0.00374523
-0.0264503
0.00437529
0.0032734
0.00466132
-0.0318823
0.00886546
0.00111221
-0.00161715
-0.0570859
0.00480543
-0.00635489
-0.00140218
0.00799269
0.0114055
-0.00147718
-0.00100915
0.00491612
0.00552422
-0.028493
0.00561933
0.00470455
-0.00032667
-0.0318455
0.00234483
0.000222643
-0.0172408
0.000374202
0.00969745
0.00510068
0.00343934
0.00517643
-0.00585906
0.0032777
0.0152765
0.0123072
0.00834409
-0.0304816
-0.0701797
-0.00523931
0.00127907
0.00331117
-0.0317875
-0.0146238
-0.0297497
0.00338125
0.00480345
-0.000957497
-0.0268267
0.00126817
0.00459955
-0.0316718
0.00128423
-0.00195008
0.0012607
-0.00555468
0.00139934
-0.115336
-0.0360404
-0.0259643
0.00478986
0.0027756
0.0143872
0.00324695
0.00598804
0.00439161
-0.00101486
-0.0108492
0.0084925
-0.027872
0.000432491
-0.00293639
-0.00465976
0.00204588
-0.00407416
-0.0327381
-0.0159757
-0.000589375
-0.0020272
0.00527511
-0.00565516
-0.0107924
0.00606943
0.00264351
-0.0303229
-0.0256812
0.00403732
0.00636383
0.00694693
-0.00888879
0.00337505
0.00332721
0.00577848
0.00292186
-0.0652201
-0.00270749
0.0037353
0.00183889
0.00606387
0.0012678
0.00291678
-0.0015833
0.00327789
0.000288054
0.00383837
0.00710857
-0.00651354
0.00174461
0.00296639
-0.000202677
-0.0166175
0.00986273
0.00493628
0.00410739
0.00818781
0.00442279
-0.00484992
0.00456309
0.0057543
0.00402102
0.00315035
0.00124558
0.00349774
0.0058221
0.0031775
0.00515317
0.00386053
-0.00334124
0.00657584
0.00595264
-0.0606714
-0.02349
0.00418077
-0.00603648
-0.00602265
0.00395213
0.0060995
0.00328753
0.00374395
0.00342611
0.00330692
0.00464845
0.00397978
-0.0311886
0.00346004
0.000185245
0.00383744
0.00370589
0.0236496
-0.0303192
-0.013155
0.000244032
-0.00714837
-0.00993342
0.00266494
0.00449033
0.00492564
0.000669892
-0.00249475
-0.0203124
0.0075268
0.00444433
-0.0796287
0.00799468
0.000229357
0.00331673
0.00258881
0.0252278
0.00373844
-0.0478758
-0.00732437
0.00376733
-0.00552592
0.00483312
-0.00764978
-0.0332826
0.00486006
0.00601171
0.0047209
-0.00147131
0.00673215
0.0062476
-0.000968827
-0.00384913
0.00150237
0.00371228
0.00447461
0.000184352
0.00374032
-0.00908907
-0.0205415
0.00151763
0.000650152
-0.000645848
0.00199204
0.00588917
0.00468325
0.00373873
-0.00820856
0.00225519
-0.00726855
0.000636563
0.00516076
-0.0249514
-0.00240068
0.00832207
0.00354004
0.0040708
-0.00980267
-0.0318526
0.00378643
0.00663394
0.00836552
-0.00134864
0.00718809
0.00244277
-0.000781785
0.0091505
0.0242808
0.00501694
0.00327812
0.0051273
0.00471448
0.000214389
0.00330191
0.00881345
0.00497535
-0.0207729
0.000457717
0.00347801
0.00474695
0.00297337
0.000104026
-0.0370582
0.00325692
-0.0169996
0.00325146
0.00334844
-0.0134343
0.00383023
-0.00486832
0.00171856
-0.0314368
0.00373581
0.0033057
0.00405266
0.00170246
0.0261504
0.00341915
0.0156977
0.00402134
0.00484927
0.00478925
-0.0349213
0.0028153
0.00481034
0.00409025
-0.000792059
0.000742842
0.00114362
0.00514534
0.00628022
0.00195702
0.00512822
0.00797829
0.00295532
0.0081841
-0.0262382
0.00374783
0.0107344
-0.0172729
0.00479348
0.00474752
0.00448141
0.00486113
-0.0228722
-0.0225543
0.0110195
0.011154
0.00379613
-0.0358856
-0.0319646
0.00272577
0.0052516
-0.0284757
0.00821644
-0.00214659
0.00398799
0.0038138
0.00493959
0.00402557
0.00345487
-0.0243836
0.00401392
0.000522539
0.00442944
0.00825555
0.00375172
-0.0386022
0.00434414
-0.0218656
0.0044464
0.00512945
-0.00911026
0.00334741
0.00648544
0.00950186
-0.00332577
0.00205594
0.0199417
0.00125161
-0.0135112
0.00367371
-0.0350008
0.00670977
0.000980232
0.00930342
0.00554296
-0.00202579
0.00364327
-0.0531233
0.00466495
0.00304229
0.00515208
0.0101006
0.0126931
0.00194299
0.00318538
-0.0105943
0.00442736
0.00479343
-0.00649857
-0.0344692
0.00374767
0.0146398
0.00424216
0.00650985
-0.0318972
0.000903917
-0.00196904
0.0046602
0.025984
0.00512503
-0.00765471
-0.00190128
0.000761917
0.00482652
0.0018246
0.00100119
0.00494713
0.00560441
0.0132429
-0.00815242
0.00515855
0.00198053
-0.0307222
0.00286075
0.00453931
0.026786
-0.00416755
-0.0100715
-0.0196204
0.00474146
-0.0343204
0.00474791
-0.0265214
-0.0109348
0.00372488
0.00289482
0.00404434
-0.00794404
0.0026756
0.00168823
0.00683291
0.00466296
0.00718566
0.00427398
0.00306181
-0.0551947
0.00261666
0.00518914
-0.00625373
0.00963289
-0.00239347
-0.00220591
-0.0220007
-0.0100444
0.00457991
0.00494101
0.00423122
0.00441783
-0.00875134
-0.038951
0.00510338
0.00354319
0.00602471
0.00491715
0.00406312
-0.111673
0.00357125
0.00533382
0.0036677
-0.0310822
0.0042548
0.00454019
-0.01266
0.00482084
0.00983316
0.00481207
-0.00213559
0.00150275
-0.00867663
0.0102855
0.00101945
0.00476521
0.00669131
-0.100343
0.0047133
-0.0240652
0.00302208
-0.00816743
0.000236099
-0.00691398
-0.00261729
-0.0744015
0.0143758
0.00388318
-0.0897448
0.00726854
0.0204738
-0.0044532
0.00274468
-0.0804888
-0.022574
0.00186881
0.00422427
-0.00886798
0.00935831
-0.000907646
0.00601982
0.00469766
0.00236826
-0.0369183
-0.0232353
-0.00276756
0.00369227
-0.0109973
0.0101431
0.00813505
0.00401865
-0.0102375
-0.0232945
0.00144355
0.00480438
0.00457174
0.00437591
0.00425762
-0.00113752
0.00443603
-0.0330885
-0.0105842
0.000224693
0.00653696
-0.00135344
-0.000373579
0.00523201
0.000477372
0.00754485
0.0064705
0.00707854
0.00378981
0.00185217
-0.0100499
0.00241278
0.00440879
0.00484692
0.00366536
0.00359519
0.00412422
0.00435218
0.00467057
0.00436342
0.00405351
0.00263192
-0.0332644
-0.000477581
0.00360809
-0.0590585
0.00444974
0.0041935
0.00195624
0.00141542
-0.0455383
0.00206629
0.00517839
0.00415698
0.0048195
-0.0301786
0.00727147
0.0041365
0.00718315
-0.0300305
-0.0819085
-0.00147173
0.00214665
-0.0543816
-0.0136199
0.000685597
0.00728384
0.00332101
-0.0266836
0.00434664
-0.0119247
0.0044603
0.00998307
0.00422025
0.00487701
0.00420459
0.00330501
-0.010023
-0.00181725
-0.00414267
0.00482488
0.00619799
0.00418024
0.00354035
0.00415877
-0.00560996
0.001316
-0.00034313
0.0041826
0.00968714
0.00432513
0.00438315
-0.00394869
-0.0356631
0.00380541
0.00380951
0.00674649
0.00333336
0.00452935
-0.0281429
0.00784667
0.00378034
0.00558809
-0.0814764
0.0116856
0.00487635
0.00367054
0.00344853
-0.00616299
0.00462526
0.00224252
0.0160329
0.00303121
-0.0259994
0.00516885
0.000246938
0.00351109
0.00671592
-0.0235564
0.00804961
-0.00233335
0.00509685
0.00376286
0.000605481
0.00570001
0.00984372
-0.00815033
0.00423897
0.00484504
-0.000883766
-0.000293763
-0.0289879
0.00488071
-0.00396534
0.00474297
-0.0309959
0.0045295
-0.0165542
0.00430899
0.0049017
0.00448745
-0.0283793
0.00367483
-0.014077
0.0100253
0.00676214
0.00378689
0.00985255
-0.00392393
0.00300144
-0.0691952
0.00741572
0.00425921
0.00107738
0.00834726
0.00405274
0.00562018
-0.0107648
-0.0067267
0.00485119
-0.0318461
-0.00447568
-0.0173579
0.0068243
0.00661758
0.00347694
0.00182683
0.00405219
-0.0111874
0.000588119
0.0056651
0.00413564
-0.0941786
-0.0375371
0.00332218
0.00487574
0.00485477
0.00746096
0.00463792
0.00786298
0.00290553
0.0034858
0.00615052
0.00797998
0.00659511
-0.00617168
-0.000823008
-0.0165176
0.00294923
0.00792679
0.000164228
0.00397765
-0.00558047
0.00267586
-0.00912763
0.00445105
0.00411134
0.00379807
0.0038125
0.00725523
0.00564988
-0.0129758
-0.00803574
0.00635373
0.00291135
-0.0328999
0.00360529
-0.00435594
-0.0130271
0.0110017
0.00227112
-0.081842
-0.0324013
0.00197325
0.00658264
0.00496705
0.00467542
-0.0112761
0.00224917
-0.00575693
-0.00549382
0.00483942
0.00839572
0.011249
0.00628255
0.00510665
0.0045854
0.00374423
0.00212446
0.00575817
-0.0329877
0.00665904
0.00984153
0.00428786
0.00477383
-0.0485781
0.0047701
0.00762269
0.00527841
0.00703484
-0.00450284
0.00841336
-0.111527
0.00377551
-0.0117033
-0.00974631
0.00259002
0.00479612
0.00427664
0.00247537
0.000815534
-0.0148186
0.000274452
-0.00452079
0.0046603
-0.00464182
-0.0470809
-0.0172845
0.00413699
0.0216753
0.00376089
0.00218197
-0.0277394
0.00206972
-0.00304146
0.000152013
-0.00584492
-0.00404006
-0.00340471
0.000964855
-0.0108791
0.000140243
0.00702586
0.000217932
0.014451
0.0038491
0.0036318
0.0107526
0.0042617
0.00492042
-0.00180528
0.00500698
0.00947592
0.00416056
-0.00369875
0.00345531
0.000916911
-0.0241486
-0.00203899
0.00605082
0.00485654
0.00223353
-0.0061607
0.00573113
0.00473419
-0.0366587
-0.00977916
-0.0136488
0.0146517
0.000890673
0.0111254
-0.0135797
0.00516817
-0.0018559
0.00429932
0.00417768
-0.0345213
-0.00380991
0.00648968
0.00757514
0.00450137
0.000489376
-0.032034
0.00297664
-0.00207556
-0.012829
0.000879783
0.00362008
-0.00473516
0.00711934
-0.0316425
-0.015656
-0.0354248
0.00953228
0.00355577
0.00834897
0.00338629
0.00387322
0.00231411
0.00257583
0.00366572
-0.0159017
0.00419333
-0.0178777
-0.0153484
0.00477135
0.00460431
0.00471069
-0.0937676
0.00417775
0.00333319
0.0066199
0.00441013
0.00302099
0.00498785
-0.01418
0.00300136
0.00185748
0.000111692
0.000842185
0.00804537
0.00372984
-0.00579422
-0.00688293
0.00733732
0.00650088
0.000700097
0.00145459
0.00474012
-0.039129
-0.0136995
0.00297262
0.00786384
-0.0203813
0.00480611
0.000894897
0.00248492
-0.00426639
-0.0347038
-0.0190347
0.00293145
0.0103094
-0.0309697
0.00729202
0.0046361
0.00443656
0.00370645
0.00754499
0.00556692
0.00393979
-0.011127
0.00691029
0.00291155
0.00501621
0.0026259
0.00590623
0.00647385
0.000179314
-0.113312
-0.0106493
-0.0269825
0.00383502
0.00979551
0.000276627
0.00746117
0.00678427
0.00189144
-0.0436337
-0.00895861
-0.0126658
-0.00439089
0.00690922
-0.0055144
0.00158591
-0.031366
-0.0186974
0.00481461
0.00492858
0.00365438
-0.000409934
0.00731871
0.00121987
-0.0168425
0.000958088
0.00509912
-0.02912
0.00420858
-0.00805086
-0.0522612
-0.0169818
-0.0301632
0.00362458
-0.0124856
0.0054586
-0.11434
0.00470378
-0.0538033
0.013
0.00474954
0.00202413
0.00995361
-0.0480199
0.00410855
0.00410808
0.00381295
0.00375388
-0.101473
-0.0196673
0.000179559
0.00200299
0.00461481
-0.0220962
-0.0371379
-0.00492477
0.00385677
-0.0204709
0.00505246
-0.000249179
-0.115617
0.000744791
0.00400764
0.00378553
-0.00465862
0.00423238
0.00300036
0.00372089
0.00655991
0.00806278
-0.018021
0.00840584
0.000287346
0.00190129
-0.0239349
-0.0251925
0.0163896
0.00249996
0.00481609
-0.0312536
-0.03181
0.00725307
-0.0313907
0.0108618
0.00231405
-0.0690952
-0.0145109
0.00466354
-0.00861352
7.62943e-05
0.00114114
-0.00306905
-0.00125859
-0.0236299
0.00310767
0.000274258
0.000394614
0.0108027
-0.0156294
0.00464367
0.00410624
0.00392649
-0.0428594
0.00367028
0.00403612
0.00128124
0.00466886
0.00392611
-0.0339269
0.00577017
0.00470143
-0.0644381
0.00365737
-0.0346729
-0.00943058
0.00152113
0.00797759
0.0049568
-0.00314885
-0.032262
-0.00390734
-0.036092
-0.0325514
-0.00949798
0.00467302
-0.0734483
0.00384086
-0.0364463
-0.0952261
0.00389553
0.00248638
-0.00942916
-0.029767
0.00258983
0.00473719
-0.0403969
0.000859606
0.00412326
0.00343392
0.00610372
0.00404335
0.0139457
-0.0350967
0.0036123
0.00359027
-0.0740429
0.00263082
0.00255487
0.0037256
0.0052027
0.0250203
0.00400461
0.00173587
0.00464145
-0.00860394
0.00262818
0.00985733
-0.0408932
-0.0166311
-0.0371043
0.00424859
0.00286262
-0.0291921
0.00450425
0.00439738
0.00560357
0.00519753
-0.00236176
0.00180738
0.00725451
-0.0946553
0.00457512
0.00358719
0.00225411
0.00516535
0.00400786
-0.00355156
-0.117277
-0.0360944
0.00451503
-0.0215859
0.000819882
0.00471551
0.00445431
0.00711815
0.00396091
0.00330575
0.00386346
0.00406384
-0.0731838
0.00421136
0.00062304
-0.0173504
-0.0291782
-0.00413755
0.00459612
-0.0260006
0.00701209
0.0043254
0.000429439
0.00464725
0.000663928
-0.000416787
0.00633017
-0.0339748
-0.0213572
0.00296552
0.00458674
0.0047911
0.00665057
0.00374591
0.00363136
0.0160528
0.00341282
-0.116699
-0.0235851
0.00700375
-0.0276889
-0.00396626
0.00222666
0.00844567
-0.02029
0.00407659
0.00942604
0.00920816
-0.0112777
0.00400505
0.0107622
-0.00244406
0.0116917
-0.0319472
-0.0355699
0.00469545
0.00989275
0.00672011
0.00627064
0.00701571
-0.00749844
0.0014837
0.000203373
0.00516353
-0.0400045
0.00448023
0.0046942
0.00295545
0.00250505
0.00228959
-0.0375894
0.00398383
-0.0099607
-0.0256224
-0.0158894
0.00226889
-0.0304339
-0.00141696
0.00507519
0.00260165
-0.0244421
0.00530233
0.00263653
-0.023494
0.0046469
-0.00336264
0.00129131
-0.000861934
0.00473686
0.000976856
-0.00226998
-0.00058321
-0.00290996
0.00315363
-0.00083993
-0.0120881
0.00372764
-0.0858891
0.00424096
0.00726297
0.00410624
0.0109069
-0.0106676
0.00465648
0.00676599
0.00419543
-0.0361902
-0.000293583
-0.0185702
0.00468979
0.00417893
0.0111019
-0.0290361
0.00423081
0.00479958
0.00486604
0.00683911
-0.0781365
0.0046359
0.00408543
-0.00761136
0.0048055
-0.0198437
-0.0137137
0.00410924
-0.0244012
-0.0685852
-0.0230032
0.00477451
0.0148594
0.00209875
0.00192989
0.00641335
-0.004256
-0.0144999
0.00425332
0.00548043
-0.037671
-0.0107668
-0.00600889
-0.0115559
-0.0229838
0.00479431
-3.81075e-05
-0.00310342
0.00453802
0.00230586
0.003742
-0.0204165
0.00417257
0.00224723
0.00256521
0.00739308
0.0099212
-0.0062839
0.00425229
0.00343714
0.00963387
0.00535223
0.00358506
0.00706563
-0.0305447
-0.0314356
0.00373317
0.00206015
-0.00715705
-0.0213254
-0.0263025
0.00467193
0.000183517
0.00462132
0.000604853
0.00102428
-0.000772012
0.000628255
0.000658997
0.00486551
0.00504392
-0.0103525
0.00810718
0.00824922
-0.0315075
-0.0246578
-0.0300401
0.00680184
0.0100957
-0.00557029
-0.0224433
0.00492071
0.0069515
0.00402673
-0.0242152
0.00044604
0.00419393
0.00413478
-0.0104624
0.00464711
-0.0120688
0.00277969
0.00378643
0.017497
0.00424271
0.0032281
0.00434211
0.00365686
-0.00986309
0.00566879
0.00410633
-0.0113619
-0.02582
-0.0308509
-0.0087396
0.00558025
0.00973554
0.00596452
-0.00457218
0.00373324
0.00477174
0.000125607
0.00368413
0.00427863
0.00497484
0.00492458
-0.0304585
-0.0822416
-0.0309816
0.00460893
-0.0247024
-0.0346675
-0.0137184
0.00450985
0.0042029
0.00291249
0.00718233
0.00246687
0.00199532
0.00478157
0.00425446
-0.0307171
0.00464098
0.000920263
0.0035691
0.00240076
0.0041385
-0.000639263
-0.00496121
0.00402364
0.00294837
-0.00966452
-0.0144775
-0.0122302
-0.0251313
-0.00588162
0.00127454
0.0165417
-0.000580715
0.00245399
0.00119453
-0.032128
0.00200445
-0.0505634
0.00698496
0.00513197
-0.0287382
0.00340179
0.0037286
0.00233825
0.00147279
0.00376929
-0.0100338
0.00420823
0.00473879
0.000631878
0.00661226
-0.0291219
0.00260303
-0.0250636
0.00456848
0.00475672
-0.0243872
-0.0148411
-0.000899806
0.00188902
0.00194807
0.00462423
-0.0166607
-0.00882499
-0.0357059
-0.00594779
-0.010036
0.00499256
-0.0200792
0.00472748
0.000756824
-0.00553309
-0.0199992
-0.0397065
0.00287829
0.00669134
-0.0101362
0.00190169
0.00990647
0.00376429
0.02134
-0.0059677
-0.0362436
-0.015196
-0.00899313
0.00547974
-0.017061
-0.0216646
-0.0331081
0.00588364
-0.0022488
-0.0235426
-0.0255045
-0.00758114
-0.0353674
-0.0327339
0.00257878
0.00471256
0.000502576
-0.000148745
0.00768242
0.00151268
0.00805277
-0.00260435
0.000216621
-0.002522
-0.0204279
-0.0259758
-0.0402281
0.00566337
-0.00476546
-0.00801366
0.00982644
0.00813235
0.00837068
0.00232242
0.00461806
-0.00632917
0.0052846
-0.0197318
0.00623588
0.00629498
0.00423435
0.00375156
-0.0192975
0.00245817
0.00131999
0.00112178
0.00412639
-0.0211197
0.00476714
0.00601495
0.00607229
0.00414283
-0.0921044
0.00334758
0.00708144
-0.00775599
0.00891532
0.00468482
-0.0237288
-0.105017
0.00232876
0.0061505
0.00251091
0.00375658
-0.00877324
0.00263083
0.00464975
0.00391096
-0.0418974
0.00916701
-0.0858213
-0.0154141
0.00198319
0.00788657
0.00452156
0.00375838
0.00348871
0.00474837
0.00863114
0.00659355
0.00268489
0.000154284
0.00556392
-0.00170032
-0.00050443
0.00240535
0.00494278
0.00385168
0.00644493
0.00162412
0.00952404
-0.0286287
0.000600803
-0.0125417
-0.0237803
0.00377214
0.000204069
-0.0123036
-0.0314603
0.00385485
0.00473755
-0.0112212
0.00272579
0.00105802
0.00543345
0.00394081
0.00332751
0.00410073
0.00397337
0.00278659
0.00299077
-0.000636208
-0.015834
0.00161247
0.000382566
0.00383177
0.00461212
-0.0217972
-0.0832123
0.00424879
0.00619945
0.00271619
0.00303405
0.00419491
-0.0156513
0.000423241
0.000939901
0.010288
0.00158147
0.00160538
0.00425588
0.000168629
-0.0271592
6.82674e-05
0.00494275
0.00161342
0.0021822
0.0107484
0.00381922
0.000157296
-0.00616301
-0.113448
-0.00960484
-0.00381752
0.00569233
-0.0032696
-0.0105441
0.00536957
-0.030724
0.00414133
-0.0164188
0.00460592
-0.00190385
0.00362607
-0.0254174
0.00729704
0.00474117
0.000950355
0.00456072
0.00451355
-0.00225499
0.00460985
-0.000808386
0.00238639
-0.000717504
0.00399016
0.00284008
-0.0333075
0.00476219
0.00236671
0.00394234
-0.015301
0.00170833
-0.00128535
-0.029399
-0.0151964
-0.0279178
0.00485502
0.00603782
0.00496155
-0.000407407
0.00309217
0.00219158
0.000831282
-0.0259551
-0.00170192
-0.0408016
-0.0115516
-0.00145946
0.0014325
-0.00204292
0.00305888
0.00305293
-0.00733165
-0.00828254
0.00441518
0.00378758
0.000121694
0.00384633
-0.0329335
0.00918658
-0.00315978
-0.00299267
-0.00355723
0.00356995
0.0045099
-0.0463099
0.000441322
0.000489994
-0.0163783
0.00330688
-0.0298083
7.57852e-05
0.00436931
0.0061748
0.00428218
-0.00934653
0.0026708
0.00177334
-0.00531232
0.00690898
0.00694535
-0.000485825
-0.0246331
0.00382213
-0.0803924
0.0048512
0.00369808
0.000770355
0.00393422
-0.0112475
-0.00425688
0.0095428
-0.101132
0.00246068
0.00362263
-0.0897005
0.00449139
-0.0519415
-0.0227544
0.00464232
-0.00201254
0.00431734
-0.0167577
-0.0954252
0.00596241
0.00826352
-0.00581499
0.00418808
0.0047399
0.00692382
-0.0752307
-0.00241359
0.00306739
0.00696993
-0.00273431
0.00808857
-0.0370323
-0.0352201
-0.0108962
0.00389342
-0.0117661
0.00603678
0.00220681
-0.0116161
-0.0218145
-0.00360373
-0.070335
-0.0215258
0.00438559
-0.085386
0.000498243
0.00244062
-0.0196565
0.00188397
-0.00322291
0.00279569
-0.0107812
0.00473881
-0.027244
0.00395092
0.00399489
-0.00443441
-0.0219561
-0.0157836
-0.0168616
-0.0091284
0.00412081
-0.00823026
-0.0247278
0.00703605
-0.031023
-0.000644081
-0.0144812