/*--------------------------------*- C++ -*----------------------------------*\
| =========                 |                                                 |
| \\      /  F ield         | OpenFOAM: The Open Source CFD Toolbox           |
|  \\    /   O peration     | Version:  v2012                                 |
|   \\  /    A nd           | Website:  www.openfoam.com                      |
|    \\/     M anipulation  |                                                 |
\*---------------------------------------------------------------------------*/
FoamFile
{
    version     2.0;
    format      ascii;
    class       volScalarField::Internal;
    location    "650";
    object      V0;
}
// * * * * * * * * * * * * * * * * * * * * * * * * * * * * * * * * * * * * * //

dimensions      [0 3 0 0 0 0 0];


value           nonuniform List<scalar> 
18355
(
0.0152178
0.107589
0.00743413
0.0890609
0.0885522
0.0618722
0.0824441
0.0858921
0.100131
0.110051
0.0408209
0.00515771
0.00491145
0.042036
0.112597
0.119289
0.0954838
0.0421851
0.00985032
0.0669801
0.0188869
0.0406248
0.110422
0.0607211
0.0979886
0.0721537
0.0993321
0.0920554
0.0965579
0.033119
0.0500523
0.0242638
0.0932183
0.113766
0.112199
0.0441936
0.0150167
0.0430489
0.0317705
0.0424967
0.10837
0.0357756
0.107761
0.107469
0.102948
0.00358416
0.0797846
0.0789061
0.0605451
0.0950925
0.106198
0.0191183
0.0930658
0.0102072
0.077178
0.0712235
0.11363
0.0291771
0.059915
0.0029889
0.109967
0.00772962
0.0136194
0.0829472
0.0229089
0.126759
0.0247547
0.0121483
0.106851
0.0694617
0.089706
0.0583738
0.0267626
0.0427222
0.0784596
0.11215
0.027223
0.115687
0.0900529
0.0842696
0.0266189
0.0852168
0.104853
0.0225072
0.0149751
0.111494
0.119029
0.0156284
0.0961904
0.0161101
0.0439526
0.0251749
0.0950303
0.0893775
0.0780201
0.0919147
0.0880715
0.0959359
0.0120214
0.0349301
0.0156754
0.0941808
0.0893617
0.111599
0.0235139
0.137363
0.0249534
0.0773896
0.0152898
0.125973
0.108125
0.10549
0.0284044
0.0236802
0.0043407
0.0244069
0.0967636
0.08721
0.028885
0.0255938
0.0652227
0.00606883
0.0503259
0.017618
0.0797822
0.00351139
0.0883159
0.100557
0.0144281
0.0363678
0.0868187
0.021455
0.0530413
0.00847957
0.0122008
0.084801
0.00829536
0.0622746
0.107458
0.0246971
0.014983
0.0883317
0.0798681
0.0184893
0.0145154
0.0717692
0.00341296
0.122447
0.0300563
0.102605
0.0989134
0.0248082
0.0902901
0.0863966
0.104799
0.0966899
0.108157
0.0871186
0.0540515
0.115249
0.0373503
0.0500543
0.0994821
0.080722
0.0400636
0.0853363
0.00283626
0.0163826
0.0218024
0.0176601
0.121829
0.0100754
0.125592
0.0636908
0.110616
0.0889945
0.102213
0.106348
0.0227253
0.022548
0.106387
0.0890639
0.0386177
0.078496
0.08916
0.0916542
0.107017
0.0174989
0.0832086
0.0877115
0.00398847
0.0111065
0.108913
0.107412
0.111149
0.00556418
0.107061
0.0154709
0.103287
0.0509311
0.0985477
0.0440428
0.0323483
0.107116
0.0172226
0.0382951
0.0252109
0.0700387
0.105272
0.090242
0.0403914
0.0601256
0.100466
0.0975645
0.124725
0.0673718
0.0243984
0.0129157
0.0398852
0.0821837
0.0169026
0.105107
0.0162897
0.0950332
0.0633111
0.0900353
0.107468
0.0556765
0.0164789
0.0238549
0.081037
0.0206371
0.100432
0.102475
0.0803314
0.0692696
0.0305559
0.00360043
0.013136
0.0914243
0.113464
0.0204707
0.0938258
0.0256405
0.0413071
0.0743387
0.0782547
0.058752
0.0489213
0.101935
0.085725
0.0593262
0.00556313
0.0992153
0.115843
0.115435
0.0132523
0.1056
0.0976127
0.0818476
0.107511
0.0838462
0.010982
0.00934634
0.0308835
0.0654221
0.08604
0.0117447
0.0805355
0.0707585
0.0849485
0.102146
0.0426393
0.0120182
0.0951088
0.0388175
0.0456564
0.0849535
0.0121515
0.06895
0.0489877
0.0409791
0.0272004
0.0990526
0.0178208
0.0411829
0.0241331
0.0928412
0.024526
0.123962
0.0902068
0.00997356
0.028382
0.0878254
0.0896817
0.105495
0.103844
0.012537
0.0418798
0.0863717
0.0142166
0.0404743
0.014507
0.0109815
0.0445352
0.04391
0.0857483
0.0163794
0.0114095
0.00966952
0.104784
0.00484004
0.0585
0.0550628
0.0125067
0.0216027
0.0737738
0.0816332
0.0826682
0.00816435
0.00480501
0.00678523
0.100953
0.045776
0.0169639
0.0798318
0.116915
0.042898
0.0182517
0.054389
0.0221409
0.121958
0.0743752
0.108235
0.0756898
0.0929105
0.0452319
0.0446003
0.00547613
0.0170373
0.023232
0.10263
0.0392385
0.0919498
0.0537423
0.0698392
0.104586
0.0869857
0.0993116
0.114994
0.0368944
0.0877705
0.00489767
0.0611268
0.0759865
0.10309
0.0233643
0.0999188
0.0235275
0.0994053
0.0773198
0.036197
0.00237635
0.106289
0.104825
0.0869202
0.0760943
0.0682925
0.103173
0.0740256
0.102336
0.0465927
0.0537051
0.0250666
0.00456927
0.0894261
0.115603
0.0148848
0.105832
0.0690044
0.0656073
0.0393243
0.087118
0.0416512
0.0976934
0.0632945
0.0880391
0.0234704
0.0892698
0.0259125
0.118092
0.0699726
0.0430856
0.0866375
0.00775171
0.00420676
0.109258
0.094074
0.00655846
0.0870486
0.0868228
0.10218
0.010478
0.0791989
0.039669
0.0712038
0.0430439
0.0641805
0.0681966
0.0165706
0.0114425
0.113643
0.00821541
0.0368782
0.0858344
0.0176786
0.0894686
0.0763547
0.0869392
0.0222193
0.0764696
0.00861995
0.0802244
0.0115828
0.0536769
0.0900944
0.0100517
0.0268614
0.0857069
0.105577
0.0853835
0.0884929
0.0101922
0.00818352
0.102757
0.0411303
0.0249986
0.0315364
0.0109302
0.0367312
0.0830556
0.00960518
0.0832094
0.102823
0.111201
0.0724916
0.0038681
0.106837
0.105014
0.0891778
0.0049019
0.0677449
0.102529
0.0763342
0.0153894
0.0413773
0.0035885
0.00770571
0.0361096
0.0828025
0.0112763
0.00438108
0.036471
0.108078
0.0157533
0.104814
0.110032
0.0144973
0.0282656
0.0224002
0.0255037
0.0234412
0.0384767
0.0313637
0.00518694
0.0285323
0.0106653
0.0373988
0.101056
0.0273559
0.0998991
0.00655126
0.00467183
0.0222628
0.0400194
0.0445376
0.0374393
0.0899448
0.0333602
0.0894047
0.102535
0.0694694
0.0159999
0.107303
0.0883894
0.013047
0.0132513
0.011702
0.0345999
0.0893515
0.0223026
0.0386881
0.102397
0.00680728
0.0580829
0.0242
0.0389926
0.0281203
0.0218072
0.00223115
0.0163852
0.0675618
0.0979781
0.101612
0.0163765
0.00832863
0.0116399
0.0365005
0.00240036
0.093872
0.00896273
0.0189232
0.0961785
0.0292502
0.0347902
0.0517769
0.0795297
0.0446435
0.0996637
0.0757049
0.0430334
0.0485953
0.021971
0.0698741
0.0529827
0.0194473
0.0603624
0.00414558
0.0272535
0.051059
0.0267769
0.0282526
0.0779024
0.0690289
0.0508529
0.045044
0.0415783
0.071795
0.0710625
0.0852397
0.0290027
0.0504753
0.00670404
0.00403246
0.0578823
0.024621
0.0151121
0.0634716
0.00469413
0.098779
0.0215903
0.0170235
0.110785
0.0293959
0.0100357
0.0112088
0.106957
0.10469
0.0107256
0.0114008
0.00700013
0.0759088
0.00586768
0.0820696
0.00678261
0.0834131
0.0620567
0.00622983
0.0853293
0.0645872
0.0908827
0.0244244
0.0921504
0.0778077
0.00495762
0.0161005
0.0968135
0.102809
0.0222049
0.0377771
0.0188412
0.00331587
0.0950069
0.109458
0.0410903
0.120416
0.019829
0.10502
0.0865382
0.0177812
0.0827895
0.00833959
0.0786188
0.113656
0.0747462
0.0142184
0.0166831
0.0125886
0.023242
0.0447752
0.0684772
0.0911362
0.0396147
0.0309633
0.10948
0.0161867
0.0188801
0.0603038
0.0334783
0.0323162
0.0297986
0.00574667
0.104157
0.017088
0.102099
0.0947424
0.0803745
0.0107774
0.00367113
0.07954
0.0883035
0.0975609
0.11921
0.0907104
0.00823505
0.0505978
0.0273727
0.0158673
0.0387061
0.00877191
0.0803269
0.00957992
0.00589483
0.0817763
0.0921302
0.0891076
0.0159957
0.0264722
0.0239754
0.0783601
0.0256891
0.0813056
0.0800917
0.00799738
0.048393
0.0138913
0.0914733
0.0450629
0.0104069
0.101316
0.0274886
0.0659097
0.017607
0.0518322
0.0516628
0.0199485
0.0239955
0.100129
0.103426
0.0310854
0.00847917
0.023238
0.0957791
0.0175447
0.076261
0.0652098
0.0895178
0.00361305
0.0455427
0.0135222
0.097422
0.0073636
0.0548676
0.0883414
0.00563987
0.0275221
0.0293473
0.0263609
0.0655096
0.0129912
0.0585375
0.109714
0.0894605
0.0824326
0.0273131
0.0159719
0.0168731
0.107126
0.00382534
0.0654064
0.0933862
0.0581764
0.0372933
0.050805
0.024181
0.109731
0.00574272
0.0633499
0.111959
0.099541
0.0524607
0.0655911
0.00508857
0.0394841
0.00865166
0.0558581
0.0566375
0.0358878
0.0869449
0.0879506
0.0964501
0.00668444
0.0158207
0.107562
0.0491196
0.00648837
0.0806599
0.0837392
0.111935
0.0948957
0.00823654
0.0991576
0.0103858
0.0254358
0.0973225
0.0894077
0.015072
0.07714
0.0156729
0.0565422
0.0529395
0.0931074
0.0060181
0.0174222
0.075079
0.0191019
0.0884883
0.0445444
0.0761355
0.0868021
0.099394
0.0840172
0.0665942
0.104578
0.0987869
0.094452
0.0416584
0.0181394
0.00656259
0.0997331
0.0244828
0.0456854
0.0454036
0.0773283
0.08103
0.0644337
0.108605
0.0821148
0.0887608
0.0369209
0.0462332
0.0966961
0.00413963
0.0239475
0.0179123
0.0900602
0.00478369
0.112793
0.107223
0.0977696
0.0668221
0.0389422
0.10012
0.0999957
0.102438
0.0392761
0.097367
0.0436395
0.0710664
0.0393946
0.076052
0.0193571
0.0464559
0.0784346
0.0325682
0.101204
0.00676339
0.0964524
0.0120288
0.0303431
0.0741751
0.0501713
0.0614846
0.00233167
0.0811594
0.099577
0.0299456
0.0316066
0.0605333
0.104134
0.107601
0.0724377
0.103463
0.0115379
0.096682
0.00486339
0.0295303
0.0923301
0.0791128
0.103622
0.074435
0.00954689
0.00671932
0.0731739
0.0127223
0.0396426
0.107494
0.103847
0.0792086
0.085118
0.0272495
0.00792599
0.0721565
0.0671168
0.0404251
0.0566518
0.028293
0.0667211
0.00420912
0.0110679
0.0174939
0.00667959
0.00165099
0.0264808
0.0963965
0.105468
0.0320665
0.0796404
0.0708964
0.00827652
0.00612374
0.0886572
0.0374581
0.0627522
0.079931
0.00215912
0.0822248
0.100792
0.103594
0.0998024
0.0722683
0.0687941
0.0831764
0.00402691
0.10748
0.0442131
0.088135
0.0819223
0.0737279
0.0456172
0.0324848
0.0812109
0.0860506
0.0970245
0.115002
0.00536835
0.0423207
0.0694867
0.0884488
0.0295682
0.0079213
0.088425
0.0751991
0.10089
0.0815152
0.0851303
0.111465
0.029735
0.0887372
0.0455447
0.059915
0.056436
0.0348106
0.1023
0.0961154
0.109339
0.0456972
0.0109189
0.0663345
0.0101525
0.0872508
0.102333
0.0167747
0.0439284
0.0728175
0.0968416
0.00395487
0.105645
0.0994733
0.0242283
0.0485807
0.0706523
0.0232138
0.0587022
0.00924644
0.0422299
0.0869819
0.104134
0.0523623
0.0487987
0.100225
0.0594685
0.0934185
0.102618
0.0458736
0.0274747
0.00956424
0.0498401
0.0926581
0.0762716
0.0656849
0.0911576
0.101564
0.0070811
0.00648699
0.080984
0.0757835
0.111722
0.0996742
0.0835485
0.0790313
0.0840539
0.0976483
0.0870946
0.0976121
0.0940788
0.0650647
0.0112991
0.0776857
0.0812655
0.0525917
0.0215841
0.114445
0.0539683
0.0934654
0.101161
0.0988585
0.0164497
0.00543594
0.0639971
0.0102407
0.013346
0.00401823
0.00989789
0.0857686
0.0451251
0.0812783
0.0819361
0.0891415
0.0790559
0.0870777
0.0786578
0.01295
0.0485925
0.00728778
0.0762355
0.00508038
0.0407917
0.0496795
0.098777
0.0337522
0.0221389
0.107911
0.102795
0.00522742
0.0192751
0.0160483
0.0832152
0.00653397
0.0992863
0.0855718
0.0311742
0.0229257
0.0640707
0.00980108
0.0959693
0.0335759
0.0210273
0.0271561
0.00636235
0.00514343
0.0498718
0.10489
0.086117
0.00472114
0.0441995
0.028819
0.054507
0.0151612
0.0324039
0.0262975
0.0859536
0.0850946
0.0312437
0.0293732
0.107988
0.0633561
0.101509
0.108895
0.085086
0.0370853
0.00750918
0.0973314
0.0310658
0.013972
0.0326719
0.0852913
0.00584854
0.0639944
0.0428769
0.0897482
0.0429919
0.0395288
0.0266552
0.0439573
0.00532145
0.0795932
0.0128078
0.0432634
0.016255
0.0284841
0.100309
0.0185612
0.0931464
0.0802564
0.0301426
0.0882212
0.0840887
0.0582635
0.00847469
0.00382852
0.102168
0.0110051
0.0802059
0.0398094
0.08477
0.102597
0.0846036
0.0280336
0.103045
0.0290014
0.0232065
0.0582736
0.00518819
0.0345763
0.0265965
0.10071
0.104757
0.00562663
0.00338356
0.00426535
0.101432
0.0833152
0.0421152
0.0370713
0.109882
0.0987382
0.00615261
0.0449346
0.0425757
0.100114
0.0276829
0.0584138
0.00799501
0.0988813
0.00825134
0.0691443
0.0871798
0.0168797
0.111709
0.0839781
0.040964
0.0426649
0.0266927
0.0511559
0.00281347
0.088241
0.0430317
0.0136863
0.0401536
0.025138
0.00716469
0.00417893
0.0957115
0.0533298
0.0907975
0.00353258
0.0798107
0.0156379
0.0996555
0.00969309
0.00420489
0.0918161
0.0618791
0.0314838
0.0802248
0.0270404
0.0802301
0.0667884
0.102934
0.00510825
0.041496
0.0958666
0.0990429
0.0853846
0.0869231
0.108566
0.0210945
0.101318
0.0867154
0.0897908
0.0429823
0.0367905
0.036157
0.102274
0.0364546
0.0127155
0.0384275
0.0863212
0.095308
0.0391984
0.0734827
0.0945453
0.0415847
0.0699578
0.10682
0.10988
0.0385592
0.102255
0.071882
0.0608182
0.0883671
0.09693
0.0598456
0.0903634
0.075652
0.00523924
0.0106951
0.105684
0.0298799
0.0260305
0.0632981
0.0636661
0.103007
0.103881
0.104257
0.0158054
0.040337
0.0983364
0.0104891
0.0969423
0.101208
0.101106
0.102846
0.0219303
0.00631873
0.0128387
0.101387
0.0463438
0.0164255
0.0611642
0.0900369
0.0809128
0.0459514
0.0173686
0.00962375
0.0340071
0.0833563
0.0085903
0.0337601
0.015006
0.0362885
0.0896931
0.0223183
0.0969461
0.00671515
0.0197977
0.105935
0.0359435
0.0852346
0.0179596
0.00550724
0.0777557
0.0986578
0.0270111
0.0248742
0.0601234
0.0610517
0.0525398
0.0300185
0.067867
0.0955812
0.0598841
0.0968614
0.0984151
0.0302496
0.00893239
0.08069
0.0878658
0.0270877
0.0873518
0.0714221
0.0435707
0.10411
0.0200289
0.0679393
0.0204163
0.0935496
0.064521
0.00975975
0.0295402
0.055444
0.0990536
0.0838416
0.0296606
0.00629875
0.0450665
0.0486872
0.0589021
0.0966338
0.0614804
0.0765125
0.0698156
0.04682
0.0241941
0.0290431
0.0828868
0.0637137
0.0757044
0.0731588
0.104751
0.0315518
0.077985
0.00931907
0.0427725
0.0304422
0.0763196
0.104092
0.00345535
0.00909166
0.0983397
0.0104657
0.104364
0.062868
0.0782186
0.0492225
0.0137751
0.102689
0.0062347
0.0928266
0.0969787
0.0861968
0.0920552
0.0222573
0.0425827
0.0169732
0.0764898
0.0889554
0.0609678
0.00396284
0.106704
0.0807069
0.0950529
0.0298811
0.0757665
0.0451851
0.082137
0.040003
0.0417194
0.0855844
0.0283628
0.105382
0.0445999
0.00816304
0.10575
0.0495274
0.0133394
0.074593
0.0712309
0.0985628
0.077965
0.0113134
0.0130516
0.0426845
0.0474655
0.0388098
0.00669431
0.00617485
0.0680878
0.0950735
0.00663041
0.0453893
0.0819376
0.132331
0.0951754
0.0841824
0.094701
0.0984779
0.0122961
0.084866
0.0991953
0.0603879
0.0496015
0.0957815
0.00487261
0.092665
0.0169893
0.081369
0.0818311
0.0804225
0.0769455
0.0663255
0.0403831
0.0158852
0.103665
0.0203825
0.0457917
0.013157
0.0698934
0.019041
0.0569897
0.0824901
0.040463
0.0791281
0.0163697
0.102479
0.00530155
0.0765332
0.0904798
0.083542
0.0500016
0.0227171
0.0527588
0.0616116
0.00311929
0.0895789
0.0830235
0.0516228
0.00724126
0.104708
0.0159548
0.096054
0.0606777
0.00803812
0.07548
0.0574419
0.0827481
0.0200662
0.0837569
0.0160549
0.0591902
0.083041
0.0863812
0.0530825
0.0854428
0.0770197
0.074762
0.0162033
0.0161871
0.0845398
0.105342
0.00608899
0.0617712
0.0790918
0.0208202
0.00313819
0.0282842
0.00486478
0.0838047
0.00810522
0.0856353
0.00832559
0.0794327
0.0955554
0.0988644
0.0885569
0.0177755
0.0652241
0.0648687
0.0431909
0.0807328
0.0578358
0.0940752
0.102661
0.0102277
0.06289
0.0281096
0.0222344
0.0325129
0.0538262
0.0354193
0.0117515
0.0794676
0.0849477
0.0628222
0.0988774
0.100396
0.0192215
0.00606538
0.0392064
0.0681935
0.0633765
0.094653
0.0964936
0.00646477
0.0432373
0.064968
0.069951
0.00766605
0.0990134
0.0978966
0.0123415
0.0841154
0.039854
0.0475987
0.0515907
0.105641
0.00213488
0.0205275
0.0969758
0.0848419
0.0682063
0.00661416
0.0734635
0.0119389
0.102297
0.0502911
0.078528
0.0150676
0.0521899
0.0679943
0.024436
0.0776923
0.00779011
0.0588061
0.0212408
0.0297532
0.0311945
0.00976376
0.0108978
0.0754288
0.100489
0.0197359
0.0447596
0.0683699
0.0625948
0.0724186
0.10074
0.00616528
0.0839909
0.0314602
0.100523
0.0038591
0.0427603
0.0483613
0.0798509
0.019754
0.0126986
0.0780018
0.0882459
0.099511
0.0814191
0.0948709
0.0411888
0.0991104
0.00979537
0.0165349
0.0309269
0.0621683
0.0180757
0.0503663
0.0260537
0.0135005
0.0808207
0.0626933
0.0818981
0.100615
0.0478375
0.029172
0.100705
0.104956
0.0851934
0.0887318
0.101306
0.072132
0.0894121
0.0770777
0.0963625
0.100421
0.0292486
0.00823411
0.013421
0.0977379
0.00875483
0.0749836
0.106485
0.102764
0.100103
0.00574469
0.102126
0.0813911
0.09657
0.0826099
0.00421334
0.072934
0.0969618
0.0439479
0.00518473
0.00423741
0.0324088
0.0873095
0.00654798
0.0167821
0.0982605
0.0284817
0.063591
0.00816087
0.0977431
0.00205812
0.0965634
0.0589874
0.106986
0.090751
0.0912309
0.0787513
0.0192078
0.035123
0.0344862
0.0848793
0.0397573
0.0962398
0.101247
0.0844733
0.0234184
0.0367577
0.048457
0.0935563
0.0457582
0.0964633
0.0821798
0.0375658
0.00631493
0.0962843
0.0976966
0.0667276
0.045135
0.0881601
0.00907782
0.0501606
0.0912491
0.079474
0.00677147
0.0448703
0.0834014
0.0966223
0.0272248
0.0157312
0.0846911
0.0211468
0.0290994
0.0743308
0.00831022
0.084311
0.0632388
0.0993675
0.0473378
0.0109351
0.0345984
0.00340517
0.0813705
0.0965235
0.074012
0.072826
0.0317763
0.0294687
0.0870858
0.0851304
0.0454049
0.060891
0.00757311
0.0933527
0.036428
0.0364533
0.00641675
0.0891086
0.0142029
0.0970702
0.0831031
0.0866119
0.00787905
0.0804731
0.0166417
0.0736023
0.0908215
0.101357
0.0360522
0.0413976
0.0774916
0.00930038
0.0608618
0.0952806
0.0710263
0.0496511
0.0829057
0.0823945
0.0297567
0.0316374
0.0816353
0.00766763
0.0240234
0.0140995
0.080375
0.0603497
0.0738298
0.0775953
0.093615
0.0125813
0.0699558
0.0022827
0.0930859
0.00791378
0.00668263
0.0988458
0.0868233
0.0818824
0.0398395
0.0807025
0.0302386
0.0466419
0.0981677
0.0558769
0.0494303
0.0681569
0.034365
0.0441384
0.01751
0.0584438
0.0506393
0.0792414
0.0985932
0.0284144
0.0379373
0.0622677
0.0837566
0.0752706
0.0791763
0.0981284
0.0621139
0.10176
0.0115684
0.0489102
0.0372587
0.101237
0.00819585
0.108947
0.0788955
0.0222538
0.0452644
0.0282408
0.00638512
0.0117884
0.026306
0.0680089
0.0878394
0.0772371
0.0277434
0.0990633
0.0233109
0.0219829
0.0796798
0.0579168
0.0460502
0.0999567
0.0947701
0.0955705
0.101953
0.0708166
0.071452
0.00559251
0.0546352
0.0533188
0.0967115
0.0856437
0.00970011
0.0808469
0.0329814
0.0689092
0.0572252
0.0497528
0.0561472
0.0076427
0.0989381
0.0117996
0.0200551
0.0772195
0.0859027
0.0778892
0.098802
0.0638714
0.0164384
0.0705096
0.0596455
0.0868778
0.00372856
0.00565805
0.0104665
0.0255443
0.0179007
0.103546
0.100093
0.0267016
0.0716463
0.029763
0.0363088
0.0223817
0.106499
0.0969585
0.0204564
0.0274503
0.0784453
0.0969446
0.100446
0.0192641
0.0937655
0.100301
0.0379554
0.0848392
0.0900096
0.0304302
0.0552782
0.0416113
0.0963488
0.0150681
0.089164
0.106668
0.0455426
0.0590341
0.0621454
0.0904773
0.106034
0.0767574
0.0437423
0.0912578
0.0078368
0.0295761
0.0967045
0.0161325
0.0839109
0.0507775
0.0122572
0.0825113
0.0464792
0.0284799
0.0851202
0.00696024
0.0161462
0.0405546
0.0428905
0.101317
0.107398
0.00711718
0.0260189
0.046117
0.0203958
0.092563
0.0935682
0.0113122
0.0222943
0.00427782
0.0101659
0.00724061
0.0270037
0.0689915
0.0568158
0.0946342
0.0869021
0.0961191
0.0999447
0.0985257
0.0108415
0.0723905
0.00309307
0.0261358
0.087254
0.0849818
0.0936672
0.00629662
0.0831044
0.0926698
0.062046
0.0815054
0.0990382
0.0795659
0.0156026
0.0393378
0.0813345
0.105257
0.082198
0.0307982
0.0989099
0.0789732
0.0364912
0.0590537
0.0271118
0.0894793
0.0653827
0.0875519
0.00607612
0.0100529
0.0426757
0.0421757
0.00273317
0.0862504
0.0777807
0.0273841
0.0362337
0.0915211
0.0826822
0.0627272
0.0148964
0.0476691
0.0568188
0.086319
0.0930693
0.09931
0.0253974
0.0808437
0.0732987
0.0931566
0.0393951
0.0695021
0.0876743
0.0192135
0.0826362
0.0583237
0.095207
0.00768228
0.0215597
0.00945847
0.115863
0.0261556
0.0991231
0.0433761
0.0266662
0.0801606
0.00172649
0.0280268
0.01282
0.0123145
0.100003
0.012011
0.0734431
0.00693733
0.0158659
0.0830965
0.0880621
0.0952364
0.0442128
0.061026
0.0902993
0.0171512
0.0884213
0.0860744
0.00268754
0.0997347
0.0289517
0.00645445
0.0152251
0.00279495
0.0937493
0.023515
0.00379831
0.00774769
0.0900116
0.00778356
0.0242473
0.107904
0.102949
0.0167587
0.00937895
0.0924064
0.0866586
0.0961501
0.0984518
0.00692546
0.00270785
0.0964395
0.102157
0.086126
0.00431601
0.00916735
0.10184
0.0955832
0.004355
0.0342653
0.0127105
0.00808828
0.101242
0.098121
0.098879
0.107172
0.0952971
0.0789331
0.0983771
0.0703726
0.0509676
0.00244788
0.0579851
0.0345702
0.0687044
0.0122081
0.00453625
0.0286048
0.077795
0.0873541
0.00686881
0.00806001
0.0447689
0.0583582
0.0301697
0.027771
0.00943368
0.0154419
0.0235954
0.0301872
0.0934054
0.0457114
0.0240555
0.0136312
0.0125772
0.0740046
0.0806964
0.102525
0.0286142
0.00990028
0.0958361
0.0876478
0.0288665
0.00577853
0.0963285
0.0958494
0.0669182
0.0821938
0.0941278
0.00806875
0.0758645
0.0885385
0.00918458
0.0681126
0.0287392
0.0133941
0.0171198
0.0462155
0.0843824
0.0421731
0.00993755
0.01218
0.00663871
0.00222181
0.0134203
0.0865644
0.00676367
0.0977186
0.00589354
0.00723019
0.0956341
0.0737091
0.0193397
0.00632001
0.0646307
0.0883176
0.00997166
0.0704806
0.0738263
0.0966859
0.0612245
0.0874565
0.016698
0.00486861
0.09911
0.05878
0.0333252
0.0627229
0.0989165
0.0839166
0.0802871
0.0182936
0.097551
0.0275885
0.102139
0.0261968
0.0982559
0.0393158
0.00436859
0.0156076
0.00452876
0.061316
0.0263891
0.00222006
0.0833065
0.0921102
0.076454
0.0821093
0.0316652
0.0974013
0.0478866
0.00744956
0.0976695
0.0700331
0.0968129
0.0808847
0.0874475
0.0343065
0.00856006
0.00647012
0.097108
0.0109311
0.0856412
0.084342
0.0613233
0.0273434
0.0851158
0.0314292
0.0941566
0.0395332
0.00706721
0.0980675
0.0512632
0.0112999
0.00980907
0.0355556
0.0868837
0.00428282
0.0461182
0.0958651
0.0672674
0.0877941
0.082186
0.0137367
0.0602873
0.00960811
0.00842231
0.101524
0.0877403
0.0851928
0.0684904
0.097661
0.0978961
0.0281339
0.0702516
0.00836817
0.00446256
0.0423278
0.00421039
0.0322294
0.0280414
0.0475223
0.00424562
0.097288
0.0393194
0.0395361
0.0853055
0.039343
0.0268746
0.0518475
0.0494852
0.00625893
0.00593406
0.0875691
0.017353
0.0971544
0.0623556
0.0570938
0.0216123
0.0877965
0.0936807
0.0838282
0.00573165
0.0614212
0.022971
0.0462383
0.0890871
0.0959341
0.00973581
0.0433646
0.0303533
0.00854365
0.0870856
0.035617
0.00611537
0.0560489
0.0859333
0.0937768
0.00881499
0.0620117
0.0755396
0.0844456
0.0837485
0.0384427
0.0871976
0.0170229
0.0916879
0.0702522
0.00319371
0.0439619
0.0249303
0.0781649
0.0632887
0.0195003
0.0985209
0.00894809
0.0980747
0.0294951
0.0912178
0.0279093
0.0227319
0.0878819
0.0537114
0.100071
0.00674335
0.0477228
0.0145439
0.0936397
0.0832592
0.0505802
0.00498825
0.0800038
0.084256
0.101951
0.0631436
0.034027
0.0889005
0.0817366
0.0899025
0.0755268
0.0124738
0.0165376
0.0936845
0.0103583
0.0329491
0.0102541
0.0923985
0.0207967
0.102823
0.102051
0.0386722
0.0146396
0.0597492
0.0936162
0.0168691
0.0441663
0.00354586
0.0357774
0.0233273
0.0043585
0.0853088
0.0239273
0.0861947
0.0782041
0.0445322
0.0950979
0.00270758
0.0930079
0.0994152
0.034843
0.0611336
0.0267761
0.0836985
0.0622444
0.0662549
0.0404243
0.0405046
0.098805
0.0445446
0.00618002
0.00506677
0.0876445
0.0476512
0.00377691
0.00472333
0.0460029
0.0886226
0.0828363
0.102484
0.0970181
0.0543493
0.0684388
0.0941763
0.0980073
0.0857968
0.086845
0.0113298
0.0432314
0.0573667
0.047237
0.00878095
0.00821042
0.0263412
0.0353479
0.0151262
0.0111801
0.0838506
0.0270279
0.0720726
0.0418659
0.114111
0.098954
0.0942695
0.0770542
0.0876048
0.076746
0.0389175
0.0980005
0.0202616
0.0626003
0.0651863
0.061974
0.0972207
0.0114324
0.0357355
0.0933636
0.0181891
0.0329102
0.00805969
0.0913201
0.0755067
0.04313
0.050952
0.0395313
0.0986663
0.0992427
0.0796543
0.098993
0.0909975
0.0818303
0.0837262
0.00624532
0.03438
0.00496962
0.0877704
0.00808947
0.00960377
0.0657645
0.0825715
0.0692532
0.0967753
0.0617314
0.0997217
0.0465432
0.0890433
0.0874084
0.00536211
0.100235
0.0135771
0.0982625
0.099695
0.0956289
0.0697556
0.0712489
0.0919146
0.0988207
0.0303327
0.0136179
0.0243459
0.00849539
0.091551
0.0666671
0.0273101
0.00287664
0.0804799
0.042832
0.00845079
0.0989258
0.010101
0.0643723
0.0789069
0.00760049
0.101165
0.0904053
0.0853737
0.0927757
0.0979033
0.0207882
0.0897016
0.0936673
0.0958931
0.060952
0.00839047
0.0954056
0.00923152
0.0731973
0.0804879
0.0100682
0.010999
0.0302567
0.100978
0.067602
0.100391
0.0133789
0.0237932
0.00854427
0.0281308
0.02828
0.0866152
0.011763
0.0797188
0.0995553
0.00330631
0.00314336
0.00618955
0.0887221
0.0613432
0.020691
0.0969125
0.0292449
0.100872
0.0159282
0.0279076
0.00655407
0.0169677
0.00352613
0.040887
0.0106558
0.00967644
0.0911856
0.0845845
0.018318
0.0825105
0.0045402
0.0292352
0.00805331
0.00554798
0.0963932
0.0907596
0.0503268
0.0246007
0.0417437
0.046431
0.058555
0.0631926
0.0920248
0.0537324
0.00409137
0.034006
0.00459684
0.08627
0.0768169
0.0217366
0.0156795
0.0424502
0.0429142
0.057401
0.0991404
0.00322962
0.0626056
0.0153968
0.0607151
0.0433272
0.0971683
0.0923364
0.0139447
0.098852
0.0649749
0.0843901
0.0687235
0.00231869
0.0886208
0.0682189
0.0377608
0.0895894
0.00767553
0.0838641
0.0567077
0.0202848
0.0407275
0.0934827
0.00899569
0.00753638
0.0965524
0.0619239
0.0972913
0.0956745
0.054966
0.100352
0.10896
0.0967076
0.00604752
0.0397641
0.0342606
0.010926
0.0282173
0.0499866
0.0936054
0.0264292
0.0701526
0.0917929
0.0319644
0.0660937
0.0999661
0.0994426
0.0723552
0.0585356
0.0691195
0.0976727
0.0870152
0.0994303
0.0628339
0.100393
0.0537972
0.00770243
0.0273574
0.0205831
0.00860711
0.0968548
0.0661763
0.0112872
0.00851949
0.0988348
0.0163888
0.0166815
0.100777
0.0702345
0.0796085
0.0960482
0.0580341
0.0946302
0.0969502
0.0483939
0.0681181
0.0224169
0.0106564
0.0428043
0.0679858
0.0637607
0.0991708
0.0122428
0.00683035
0.0801356
0.0896285
0.0984235
0.0982932
0.0393753
0.011473
0.071309
0.0704687
0.0264797
0.0691078
0.0471408
0.0881206
0.12713
0.00519871
0.0768977
0.0882554
0.0894417
0.0789676
0.0502208
0.0962374
0.0983264
0.0211968
0.00850065
0.0196275
0.0336876
0.0472268
0.0244774
0.0281267
0.0578596
0.0100886
0.091247
0.0146512
0.102088
0.0431309
0.0936927
0.00847811
0.0263536
0.0827444
0.0481251
0.0830915
0.0824533
0.0721552
0.102152
0.0623715
0.0991971
0.0302003
0.0978064
0.0454714
0.00620123
0.0848391
0.102367
0.028434
0.00331538
0.09857
0.0294788
0.00777307
0.0140573
0.00936119
0.08678
0.0522251
0.0952901
0.0701344
0.0977292
0.08906
0.0449653
0.0083527
0.0352503
0.00593455
0.00312876
0.0574044
0.0191421
0.0130436
0.0539056
0.100514
0.0469067
0.0559598
0.0870732
0.101227
0.0268068
0.0967198
0.00559087
0.0546961
0.0378109
0.0290832
0.0347903
0.0602732
0.0922691
0.00445678
0.0624779
0.00328894
0.0146443
0.0311341
0.010438
0.0548005
0.0871845
0.0506292
0.0812694
0.0302663
0.0955763
0.100081
0.0786413
0.0447162
0.0429168
0.0662285
0.0119585
0.097816
0.00475001
0.0868036
0.0586126
0.0277554
0.100739
0.00395225
0.017664
0.0328907
0.0066085
0.0994319
0.0184454
0.00726663
0.0982039
0.00567531
0.0132955
0.0962004
0.024607
0.0866854
0.0831008
0.00745008
0.0533925
0.0433805
0.0750664
0.0704102
0.0892947
0.0295586
0.00966691
0.0712636
0.0433083
0.0420029
0.0127886
0.0514387
0.00635562
0.00646665
0.01143
0.100236
0.00355148
0.0502503
0.089538
0.0112172
0.0107272
0.00229326
0.00647946
0.00251111
0.096287
0.0352443
0.0956656
0.0987482
0.00427012
0.0999702
0.0246173
0.077713
0.0114909
0.0892526
0.00887606
0.100519
0.0970705
0.0788597
0.0121836
0.0143244
0.0857303
0.0301031
0.094881
0.028884
0.00817277
0.0276811
0.00712893
0.0681858
0.0144111
0.0368494
0.0166265
0.0481641
0.0439513
0.0819193
0.0694749
0.00967341
0.0442318
0.00269031
0.0708933
0.0868064
0.0321179
0.0181806
0.0648271
0.00258479
0.070916
0.009219
0.0447475
0.00855079
0.0776072
0.00780574
0.0696708
0.0116829
0.0139425
0.0988384
0.0858823
0.0387842
0.00709542
0.0956535
0.0583862
0.0565095
0.0976594
0.0152265
0.00301017
0.00834734
0.0513962
0.102744
0.0692665
0.0140452
0.0316751
0.00199306
0.0147983
0.101806
0.096677
0.0543089
0.0840772
0.0175861
0.00490378
0.0958242
0.0168685
0.0292997
0.0032809
0.00603703
0.0859408
0.0210273
0.0959689
0.0629389
0.0239003
0.0101698
0.0286801
0.00601303
0.0392621
0.00603783
0.0085352
0.00571069
0.00844878
0.00321748
0.0432533
0.0479285
0.00247352
0.00286243
0.0492175
0.0152783
0.00964585
0.00954908
0.096062
0.0446394
0.0576591
0.0292463
0.0890595
0.0852732
0.010834
0.0416517
0.100657
0.0930409
0.0234462
0.00293109
0.0897734
0.100016
0.0962777
0.00679081
0.0976259
0.0348613
0.0291248
0.0876864
0.0534107
0.0950489
0.0553024
0.0290936
0.024779
0.0604371
0.0112301
0.0956204
0.00410513
0.011084
0.00716078
0.0866218
0.0403539
0.0840388
0.0369161
0.00613294
0.0687748
0.0228522
0.07116
0.0992671
0.00602891
0.0983988
0.0974509
0.0373349
0.0171162
0.086231
0.0023091
0.0167384
0.0890835
0.0966047
0.093004
0.0624297
0.00635033
0.00174781
0.0181659
0.00306431
0.00593797
0.0377056
0.0190342
0.0372618
0.0572924
0.0967421
0.0917827
0.0700338
0.0140588
0.0890419
0.00254638
0.0985574
0.051831
0.0513441
0.0835621
0.0590575
0.0776773
0.0408364
0.0105091
0.0966705
0.00425367
0.0107521
0.0973676
0.0964695
0.0221435
0.00328624
0.0362007
0.00781137
0.106906
0.0448813
0.00176845
0.0213578
0.0378208
0.091356
0.0712436
0.0487902
0.0450652
0.0574272
0.0388063
0.0626325
0.00240157
0.0872436
0.0816538
0.0717368
0.0961057
0.00419149
0.0502936
0.102691
0.00593593
0.0784023
0.00234807
0.0463
0.0485057
0.100921
0.0439136
0.089208
0.100226
0.100226
0.00975428
0.0570059
0.0284113
0.0813439
0.0168595
0.0991927
0.0137958
0.0169421
0.0057523
0.0822847
0.0566392
0.0614998
0.0983841
0.0695719
0.0851796
0.100474
0.0878405
0.0661409
0.0979292
0.0473176
0.0937358
0.0155472
0.0822647
0.0191791
0.0778468
0.0734045
0.0947624
0.0463184
0.00650819
0.0979358
0.0652111
0.0823813
0.0115479
0.0798938
0.00711263
0.00422064
0.0166228
0.0917145
0.00343198
0.00670485
0.0576337
0.0869893
0.0984222
0.0566033
0.00840662
0.00824745
0.0595024
0.0210342
0.0109144
0.00202248
0.0874802
0.0889888
0.0922236
0.0948778
0.0440118
0.0118107
0.0958587
0.0142018
0.101234
0.00413167
0.0917875
0.021938
0.00857007
0.0221365
0.0990284
0.0565778
0.00230612
0.054119
0.090294
0.00648106
0.00311786
0.00932065
0.0962762
0.100181
0.0073237
0.0056202
0.0241615
0.00806696
0.0478365
0.028109
0.0437269
0.00466675
0.0822011
0.0968144
0.0852914
0.0880671
0.101733
0.0059039
0.011483
0.0883194
0.0780724
0.0862348
0.00500041
0.0182378
0.0119358
0.0705798
0.0845773
0.00582965
0.0424814
0.0626406
0.0726182
0.0989539
0.0632215
0.0988282
0.0997592
0.00571555
0.00653753
0.0966279
0.0105996
0.0878979
0.0191741
0.0863439
0.0433149
0.0835982