/*--------------------------------*- C++ -*----------------------------------*\
| =========                 |                                                 |
| \\      /  F ield         | OpenFOAM: The Open Source CFD Toolbox           |
|  \\    /   O peration     | Version:  v2012                                 |
|   \\  /    A nd           | Website:  www.openfoam.com                      |
|    \\/     M anipulation  |                                                 |
\*---------------------------------------------------------------------------*/
FoamFile
{
    version     2.0;
    format      ascii;
    class       surfaceScalarField;
    location    "650";
    object      meshPhiCN_0;
}
// * * * * * * * * * * * * * * * * * * * * * * * * * * * * * * * * * * * * * //

dimensions      [0 3 -1 0 0 0 0];
oriented        oriented;


internalField   nonuniform List<scalar> 
27907
(
-0.000242406
-0.000569233
0.000811684
-0.000499881
0.000665699
-0.000165809
0.000735978
0.000345957
-0.000929606
0.000390875
-0.00074037
0.000349502
0.000408337
-0.000627451
0.000219116
-0.000308217
0.000612121
-0.000303903
-0.000405766
0.00045303
-4.72638e-05
-0.00211133
-5.63286e-05
0.00223995
-0.000217014
-0.000514512
0.000731558
-0.00086889
0.00151151
-0.000641639
-0.00224853
0.00114734
0.00110426
0.000321095
0.000247787
-0.00056888
0.000353967
-0.000158644
-0.000107729
0.000656368
0.000253215
-0.00090949
0.000279158
0.00162374
-0.0018978
-0.000345876
0.000717601
-0.000371722
0.00147505
-0.00109234
-0.000382115
0.00284473
-0.000814088
-0.0019895
-0.00244071
0.00232683
0.000124225
0.00043033
0.000947144
-0.00137691
-0.000269155
0.000450699
-0.000181543
0.000223423
0.000194352
-0.000411837
0.000368524
-0.000598078
0.000229555
-0.000421158
-0.00015984
0.00058101
-0.000811786
0.000463728
0.00034807
9.53189e-05
-0.00212817
-0.000656124
0.000369216
0.00028691
0.000475136
-0.000618797
0.000143662
0.000524484
-0.000678719
0.00015424
-0.000527428
5.62383e-05
0.000471193
-0.000782842
0.0012604
-0.000477287
0.000474382
-0.000194875
-0.000279506
8.04407e-05
4.58698e-05
-8.29805e-05
-7.20488e-05
0.00194474
-0.00186715
0.000390418
-0.000990276
0.000599948
0.000321609
0.00109037
-0.001408
-6.80141e-06
-0.00010673
0.000144296
0.000488387
-0.00241547
0.0019359
0.00230229
-9.40743e-05
-0.00220083
0.00152877
-0.000583122
-0.000945124
0.00109753
0.00151381
-0.00260195
0.00107033
0.000782883
-0.00185241
-0.00271714
0.000668493
0.002081
0.0015499
3.35861e-05
-0.00158254
-0.000552479
-3.19955e-05
0.000584481
-0.000126628
-0.00081105
0.00104083
-0.000103409
0.000471934
0.00144556
0.000393367
-0.00183664
0.000841621
-0.00170944
0.00234684
-0.000108666
-0.00220035
-0.000632894
-0.000238502
0.000871463
0.000456199
0.000161124
-0.000617321
-0.000671106
0.00167791
-0.000926583
-0.000776268
-0.00146869
0.00048281
-7.67261e-06
0.00070294
-0.000350637
-0.000352296
-0.000134972
0.000158449
-0.000537844
-0.000314176
0.00197257
-0.00241444
0.000447158
0.000111953
-0.000925968
0.000814101
-0.00105029
0.000330402
0.000719939
8.31222e-05
-0.000488889
-0.000759932
-0.000154346
0.000914359
0.000984197
-0.00217347
0.00119093
0.000744983
-0.00134453
0.000282814
0.00200317
-0.00228269
0.0014187
8.63964e-05
-0.00150456
-3.7107e-05
0.00015433
0.00270827
-0.000346995
-0.00234864
0.000508351
-5.21502e-05
-0.000165859
-0.000294242
0.000460102
0.00218628
-0.000247284
-0.0019372
0.000134567
0.00224839
0.000357233
-0.000495784
0.000138551
0.00261876
-0.000251816
-0.00232434
-0.0018662
0.0026054
-0.000732804
0.000178428
-0.000878621
0.000700224
-0.000527536
0.000499549
2.79876e-05
0.000663153
-0.000992501
0.000329391
-0.000154257
-0.000339438
0.000493696
0.000264192
0.000288472
-0.000552662
-0.00035308
-0.000230718
0.000583803
-0.000587612
0.000699627
0.000688644
-0.000330389
-0.000358254
-0.000572957
0.000751416
0.00116172
0.000615199
-0.00177588
0.000281091
0.000295489
-0.000576578
0.00025287
-0.00101272
-0.000275362
-0.000170831
0.000446193
-0.0026708
0.000811361
0.000348502
0.000340143
0.00250459
-0.000526384
0.000175829
0.000433235
-0.000609063
-0.000756217
0.00182731
0.000425484
0.000167431
-0.000592914
-0.000291788
0.000467617
0.000281514
-0.000854437
0.000767695
0.00188744
-0.00301285
0.000941978
0.00208098
-0.000481636
0.000212481
-0.000649216
0.0013778
-0.000728038
-0.00067549
0.000237129
0.000438362
0.00080781
-0.00102564
0.000217975
0.00120807
-0.00027978
-0.000928071
0.000290091
0.00018429
9.60971e-05
-0.000623522
0.000308861
0.000338689
-0.000647542
0.000112992
-0.000640527
0.00197833
-0.00250296
0.000528932
-0.00206976
9.94392e-05
0.00197052
-0.00056866
0.000276874
-8.1408e-05
0.00226721
-0.00204763
-0.000146541
0.00259624
-0.00049171
-0.00209766
-0.000232471
-0.000331487
0.000563962
-0.000371677
0.000413733
-4.20553e-05
0.000312239
0.000188919
-0.000501158
0.00192708
-0.00164291
0.000399489
-0.000605721
0.000206233
-2.69848e-05
0.00045247
0.00167773
-0.00120781
-0.000469312
-0.000424106
-0.00136023
0.00178704
-0.000605615
5.51257e-05
0.000550493
0.000571887
-0.000463018
-0.000108867
-0.000705124
0.000387199
0.000317937
0.000168429
-0.000720901
0.000186283
-0.000686154
-0.000777004
0.00011777
0.00065925
-7.34291e-05
0.000506665
-9.42888e-05
1.43882e-05
0.000185612
0.00100765
0.000467886
-0.000375129
-0.000280991
0.000273285
0.000177414
-0.000320379
0.000988038
-0.000667539
-4.6627e-05
-0.000383476
0.000284317
0.00127408
-0.00155727
-5.54369e-05
-0.000823149
0.000810202
0.000719018
-0.000291511
-0.00270729
-0.0010597
0.000818858
0.000240871
-1.38606e-06
0.000664573
-0.00077361
0.00057491
0.000198714
-0.00148399
-0.000833808
0.00232446
0.000265813
0.000437133
-0.000889237
0.00199454
0.00213329
3.20383e-05
-0.00215587
-0.000340206
-0.000110442
0.000450648
0.000345597
-0.000581326
0.000235729
-0.00120812
0.000425543
-0.00068315
0.000106309
0.000576845
0.00027033
-0.000623404
-0.000556379
0.00064126
-8.4869e-05
0.000876425
-0.00175007
0.000874806
-0.000323418
-1.81387e-05
0.000359917
-0.000181255
-0.000300934
0.00048219
0.00186298
-0.00124305
-0.000618566
0.00051087
-0.00011138
-0.000281505
0.00172902
-0.00282926
0.00155049
0.00128249
1.06206e-06
0.000111574
-0.000108105
-0.00265491
0.000632587
0.00204899
-0.000366448
-0.000376871
0.00074338
-0.00026011
-0.000287003
0.000547114
-0.00111256
-0.00171256
-0.000254043
-0.000796188
7.43563e-05
0.000450131
-0.00248572
0.00247787
1.81287e-05
0.000239047
-0.000610443
0.000371399
0.00043597
0.000318636
-0.000754578
0.00059927
-0.000300095
-0.000299173
0.000194296
0.000298662
-0.000492958
0.00131437
0.00156408
-0.000561055
0.000300947
0.000342837
0.000206347
-0.000549183
-0.00077662
0.00041023
-0.000744719
0.000323575
-0.000237771
0.000635161
-0.000397385
-0.0006827
0.00166824
-0.00038514
-0.000674524
-8.02626e-06
0.00211454
-0.00209917
0.00209266
-0.000262847
-0.00175679
-0.000259803
-0.000178838
-0.00058349
2.71222e-05
-0.00300354
0.000966123
0.00206767
-0.0020227
0.000531803
0.00149289
0.00087358
-0.000615208
-0.000258352
0.00047784
0.00187334
-0.0023426
0.00016885
-0.000540527
0.00250231
-0.000114829
-0.0023473
0.000220339
-0.00238051
0.00216688
-0.000882267
0.000561978
1.90087e-05
-0.000795996
-0.00218013
0.000831001
0.00135327
-0.000845687
-0.000362132
-0.00131317
0.00117861
0.000134813
-0.000634342
0.000887285
-0.000870628
0.0013015
-0.000338054
0.000774052
0.000180902
-0.00112511
0.000982583
-0.00252283
-0.000155687
0.000958176
-0.000422238
-0.000535912
0.00173135
-0.00201054
-0.000945564
-0.000342192
0.00128823
-0.000985775
6.56765e-05
0.000920208
0.000306103
0.000132758
-0.000267944
-0.0010449
-0.000970934
-5.40269e-05
0.00102509
1.63939e-06
-0.000311405
-0.000171448
0.000443734
-0.000272286
-0.000687854
0.00153044
0.00276892
-0.000800603
-0.0019289
0.000912074
0.000296194
0.00251767
-0.00171911
-0.000794665
-0.000657202
-0.000387686
0.00104528
0.000606036
0.000406823
-0.00101281
-0.000683322
0.000332565
0.000350758
0.000776777
-0.000170703
0.000712745
-0.000402972
-0.00030977
-0.00277325
0.00127949
0.00154833
-0.000595108
0.000286893
0.00199342
0.000100292
0.00188121
9.53428e-05
0.000622743
-0.000718048
0.000169791
-0.000509997
-0.000792807
0.000514332
0.000278498
7.15068e-05
-0.00104229
0.00126976
5.55201e-05
-0.00132504
-0.000671372
-0.000367337
0.00103887
-0.00144118
-0.000880841
0.00234722
-0.0011655
0.000261931
0.000903676
-0.00175165
0.0020372
-0.00100539
0.000371142
-0.000483489
-8.99158e-06
0.000492482
-0.000440226
0.000721769
-0.00014239
6.23299e-05
-0.00211605
0.002603
0.00132011
-0.0027334
3.09396e-05
0.00102658
-0.000957564
-0.000673246
6.76352e-05
-0.000307771
-0.000817894
0.00112619
-0.00248819
0.00242564
8.71239e-05
-0.000797438
0.000466164
0.000331286
0.000590803
-0.000281933
-0.0010298
0.0018919
-0.000858416
-4.0158e-05
-0.000642987
0.000467017
-0.000209626
-0.000257391
0.000290724
-0.00073092
-0.00123636
0.00156072
0.000202224
0.000350092
-0.000552315
-0.000784512
0.00144318
-0.000658436
0.00125639
-0.00169526
0.000443337
-0.000344761
0.000583812
0.00140915
-0.000246605
0.000788763
-0.00157304
-0.00241134
0.000761674
0.00165562
0.00155713
-0.00138875
-0.000168001
-0.000189979
0.000694851
-0.000504854
0.000219235
0.000493511
0.000578769
-0.00123552
0.000516971
0.000430172
-0.000947094
-0.00264101
0.00259688
-0.000405861
0.00117674
-0.000770663
0.0019619
0.000546042
-0.00249214
0.000162726
-0.00114837
0.000936172
-0.001623
-0.000497237
0.000592611
-0.000384196
0.00044301
-5.88137e-05
-0.000727733
-0.00197635
-0.00243377
0.000650758
0.00178782
-0.00015731
-0.000462241
0.000619565
-0.00181027
-0.000617636
-0.00137393
-0.000646795
-0.00109969
0.000579335
-0.000670971
9.16398e-05
-9.66032e-05
0.000408842
0.00254304
-0.00258853
5.25769e-05
0.00113674
-0.000778941
-0.000357711
-0.000149644
0.000379874
-0.000230229
0.000383948
-0.00061466
0.000759781
0.00125594
-0.00201245
-0.00274748
0.00272788
4.15385e-05
4.62372e-05
0.00108929
-0.00113451
0.000960874
-0.00126804
0.00086136
-0.00233882
0.000320879
-0.000470523
-0.000366072
-0.000431351
-0.000758496
0.000582381
0.000176132
-0.000165356
-0.000586898
-0.00017207
0.00250709
-0.00230545
0.000993471
-0.000148492
-0.00115373
0.00061526
0.000538584
-0.000335132
-0.000348188
0.000307873
0.00140479
-0.00171233
-0.000475479
0.00073405
0.000204669
-0.000938643
-0.00164275
0.000428537
0.00121516
0.000466417
-0.000196464
-0.00223204
0.00014866
-0.000586391
0.000437752
0.000268882
0.000945988
-0.000962508
-0.000592192
0.000407733
0.000184461
-0.000797473
-0.000386556
0.00118426
0.00216378
0.000555814
-8.23239e-05
0.00136043
-0.00127741
0.00111877
-2.64294e-05
-0.0010922
-0.0011124
-0.00074242
0.00185898
-0.000370936
0.00163232
0.000367001
0.000113571
-0.000480572
-0.000141608
-0.000616865
-0.000454076
-0.0018642
0.00233285
-0.000448892
8.87202e-06
0.00044002
0.000517524
-0.000495065
-0.000297717
-0.00237387
-0.000285083
0.0026758
1.75828e-05
-0.000430228
-0.000138554
0.000568797
-0.00218896
0.00116353
-0.00268906
-0.000281045
-0.00285684
0.00107973
0.00178856
-0.00188926
0.000179488
0.0017102
-0.000432679
0.000751343
0.000232892
0.000885988
0.00123154
-0.0011842
-0.00156371
0.000746354
-0.000449663
0.0013974
-0.00145802
0.000575883
-0.00227843
-0.000343608
-0.000317255
0.000322764
0.000702192
-0.000584407
-0.00116296
0.000675434
0.000487665
0.000780806
0.000355993
-0.000213656
0.000604536
0.00150117
-0.00119302
-0.000804037
-0.00137183
-0.000110207
2.2515e-05
0.000213319
-0.000397969
0.000546649
-0.000336733
-0.000255456
-0.00109754
0.00244125
0.00270512
-0.000734452
-0.00192995
0.00132569
-0.00240027
-0.00124697
0.00153241
0.00060321
-0.00127439
-0.00035726
-0.000454511
-0.00247236
0.00205201
-8.48081e-06
-0.00200025
0.00200923
-4.95155e-05
0.00232412
-0.00223973
-0.000745815
0.000399942
-0.00056066
-0.000212933
-0.000321881
0.000886327
-0.000564402
-0.00110858
0.000642529
0.000466097
-0.000736859
-0.00123879
0.00198183
0.000581523
-0.000705728
0.00012422
-0.000905582
0.000663231
0.00151001
-0.00101309
-0.000496433
-0.00134697
0.000692172
0.000654959
-0.000284624
0.000316071
0.000172985
-0.000489055
0.000315845
0.000557752
-0.00122342
0.00123897
3.98099e-05
-0.000944652
-0.000393357
0.0013385
-0.000759079
0.000423309
0.000335778
3.18656e-05
0.000547473
0.00200441
-0.0013033
-0.00069955
-0.00244715
0.0023042
0.000449446
-0.00112082
0.00067158
0.00105768
0.0014956
-0.00254327
0.00154955
-0.00118632
-0.00036241
-0.000476844
0.000714236
-0.000237384
-0.000237201
-0.000373556
0.000610761
-0.00093367
7.82517e-05
0.000855518
0.000999156
-0.00144819
0.000154579
-0.000538775
0.00184023
-0.00241683
0.000580562
0.00175042
-1.65314e-05
0.00238246
-0.00206945
-0.000304419
-0.000192582
0.00250187
0.00114394
-0.00055477
-0.00058908
-0.00120975
0.00181962
-0.00060741
4.0035e-05
-0.000488927
-0.000207512
-0.000455988
0.000663514
-0.0007454
-0.0016595
-0.00247487
0.00203641
0.000539492
-0.000288744
-0.000250748
0.000126198
-0.00105975
-0.000637335
0.000420346
0.00238582
-0.000541791
-0.000919839
0.00113099
-0.000210842
-0.00247102
-0.000254373
0.000774568
-0.00176523
0.000991395
0.00060992
-0.00196868
-0.00232376
0.00165141
0.000390021
0.000109533
-0.000499554
-0.000394648
0.0002232
0.000200283
0.000256557
-0.000456839
-0.000287568
-0.000313029
0.000379262
5.578e-05
-0.000866878
0.000637399
0.000229514
0.000588993
-0.000283294
-0.000305699
0.00112487
0.000432722
0.000598026
0.00173182
-0.000839581
0.000625933
0.00253757
-0.00250311
-2.03882e-05
-6.57861e-05
-0.00202633
0.00210099
0.000226865
0.00193586
0.000509098
0.000634932
-0.00218228
0.00228771
-0.000101867
-0.000240999
0.00179189
-0.00057631
-0.000532224
-0.000665854
0.000331654
0.000334203
-0.000404669
-0.00243323
0.000498131
-8.97936e-05
0.00101185
0.000223643
-0.0012351
-0.00245254
9.74384e-05
-0.00195324
0.000961604
0.000993483
0.000549261
0.00205504
-0.00259859
0.00194263
-0.000330037
-0.00131181
0.000667659
0.000362164
-0.00102962
-0.000724814
-0.00073305
0.000223065
0.000243952
0.000952695
0.000725496
0.000680445
0.00143578
-0.00211098
-0.000545061
0.000387762
-0.000240316
-0.000338461
0.000578781
0.000718968
-0.000496102
-0.000222855
-0.000317152
0.000511448
-0.00103802
0.000372633
0.0006655
0.000759535
0.00138314
-0.00213935
-0.00186068
-0.000400936
-0.000123187
-0.00233693
0.00217606
0.000345048
0.00110199
-0.00102362
0.00136091
-0.00083084
-0.000529607
-0.00136042
-0.000103602
0.00146491
0.000582115
-0.00137932
0.00149263
-0.000754385
0.000342916
0.000411484
0.000879446
-0.00148296
0.0020365
-0.0004709
-0.00109217
0.000276247
-0.000551608
-0.00120896
0.00188259
-0.000671453
-0.000692567
0.000455371
1.51989e-05
-2.09261e-05
-0.00237652
0.00051263
-0.000347861
-0.000164769
-0.00102243
0.00139018
-0.0003673
0.00165178
-0.00232327
0.000676717
0.000543818
-0.000733778
-0.000505274
0.000895778
-0.000612377
-0.000541236
-0.000540151
0.000466723
0.000937182
0.00167217
0.000746855
-0.00200131
0.00125659
0.000314631
0.000562232
-0.000314443
-0.00164269
0.00121316
0.000429675
-0.000559585
-0.000360573
0.000920278
-0.000290377
0.000946827
-0.000260221
-0.000494145
-0.000445246
0.000250415
0.000194831
-0.000672663
0.0022721
-8.40833e-05
-0.000277674
0.000812364
-0.000534631
0.000101875
0.00250093
0.000273541
0.000828553
0.00198161
-0.00153164
-0.000446573
4.89899e-05
-0.000589139
0.000300934
-0.00122045
-0.00044293
-0.000316139
0.000252868
-0.00161224
-0.00129605
0.000802499
0.00049377
0.00107612
-0.000551808
0.000391978
-0.0023259
0.00249843
-1.90405e-05
0.000335111
0.000328336
0.00206189
-0.000587082
1.93655e-05
0.000567731
0.00101881
-0.0022601
0.00125593
-0.000394781
-0.000246458
0.000641254
0.00120392
0.000346473
6.21598e-05
0.00194409
-0.00198657
0.00325149
-0.00229793
0.00195198
-0.00166267
0.000385823
-0.000714597
0.000328781
-0.000490789
0.000427052
6.37372e-05
-0.000524727
0.00029226
0.00109844
-0.00149575
0.000397786
0.00189103
-0.000577816
-0.00131057
-0.000941395
0.000915082
-0.0002475
2.49543e-05
0.000232773
0.000160104
-0.000204098
4.16051e-05
0.000306436
0.000274218
-0.000580653
0.00143211
0.00183068
0.00217481
-0.00215794
-1.45655e-05
0.00106249
-0.000328359
-0.00108691
-6.93068e-05
-0.00113573
0.000576304
0.000187803
-0.00112908
0.00220153
-2.49752e-05
-0.00252445
0.000347226
0.00162255
-0.0008924
-0.000729747
0.00104113
-0.00224734
0.000821745
0.00104253
0.000610958
-0.000651112
-0.00196856
0.000885413
0.00108431
-0.000919023
-0.000723475
0.00190437
-0.000645638
-0.00125739
-0.00122559
0.0019118
0.00051117
-1.91731e-05
-0.000491997
0.00173304
-0.0023956
0.000663578
-0.002253
0.000403813
0.001853
7.44382e-05
-0.000521278
0.000446842
-0.000411507
0.000479124
-6.76163e-05
-0.000625685
-0.000670144
-7.82336e-05
0.0005262
-0.000447954
0.0010124
0.000993343
-0.00214909
-0.000521523
0.000110016
-0.000116302
-0.00235798
-0.000463826
0.000258553
0.000205273
0.00018371
-0.000770773
-0.00186905
0.00211798
-0.00023231
2.76855e-05
0.000583277
0.000600545
0.00104534
-0.000595698
-0.000326074
0.000387867
6.21474e-05
-0.000446163
-0.000716634
-0.000623794
0.000432383
0.000191413
0.00200954
0.0024349
-0.000243685
-0.0021785
-0.000417366
0.00204547
0.000799821
-0.00190841
0.00196565
0.000176411
0.000300678
0.000356012
-0.000523705
0.000160104
-0.000345522
-0.000320328
-0.00155981
-0.000199944
0.00176152
-0.000357592
0.000431952
-3.11693e-05
-0.00214099
0.00217475
-0.000556836
-0.000285652
0.000842538
0.000188862
0.00241779
-0.000442919
2.12806e-05
-0.00212377
0.000472855
0.00165287
-0.0002962
0.000985904
-0.000662737
-0.00113532
0.00189818
0.000805738
-0.00160387
0.000798928
-0.00212621
0.00212562
0.00100285
-3.80206e-05
-0.000964747
-0.000569827
-0.000175985
0.00232312
-0.000113808
-0.00214421
0.000491191
8.49681e-05
-0.000576158
-0.000205511
-0.000287017
0.000492529
-0.000461103
0.00121442
-0.000753213
-0.000758687
0.000481063
-0.000297459
0.000497744
0.00155812
-0.000914979
-0.00105214
-0.00124587
0.0017336
-0.000486489
-0.000346631
0.000180772
0.000355602
-0.00191348
-0.0014078
0.000936257
0.000471914
0.00029068
-0.00228403
0.00200002
0.000334202
-0.000622199
0.000287998
-0.00159979
0.000402618
0.00119757
2.67527e-05
-0.000587394
-0.000657825
0.000979994
-0.000322098
-0.000324589
0.000407711
-0.00176624
0.00236176
-8.23231e-05
-0.00227198
0.001003
-0.00133609
0.000333349
0.000583688
0.000150864
-0.000734541
0.00201854
-0.000435726
-0.000269383
-0.00094936
0.00240842
-0.00145645
0.000324296
0.000266513
-0.00116235
0.00197747
-0.000811854
-0.0027609
0.00282824
-5.06013e-05
0.00184621
0.000166238
-0.000856824
0.00100544
-7.96974e-05
-0.000212418
-0.000282988
0.000495406
-0.000234453
0.000558755
0.00191501
0.000475465
-0.000704899
-2.36844e-06
0.0007073
-0.00051648
-0.000807076
0.00132392
0.000407973
0.000311004
-3.75271e-05
-0.000453262
-0.000748061
0.000317849
0.000507635
-0.000646743
0.000139118
-0.00298264
0.00148562
0.00150759
-0.000357963
-0.000260832
0.000344015
-0.00118941
0.00263662
-0.000530779
-0.00209803
0.000332004
0.00108708
0.000467561
0.000285629
0.000227001
0.00198656
-0.00205271
0.00176703
-0.00213319
0.000366391
0.000174974
-0.00213954
0.00197064
0.000504173
-0.000757061
0.000375697
0.000431307
8.82497e-05
-0.000519556
0.000937837
8.70019e-05
-0.00102474
0.000486499
0.000269553
0.00031944
-0.00204196
-9.25092e-06
0.00205371
-0.000745198
0.000955392
-0.00117007
0.00088574
0.000284579
0.000279697
-5.38918e-05
-0.000388652
-0.00223975
0.00177986
-0.000973069
0.00180802
0.000203605
-0.00200697
0.000848586
-0.000329848
-0.00126944
0.000740058
-0.00018619
-0.000553835
0.00039951
0.000152234
-0.000551743
0.000821583
-0.00118201
-0.00114061
0.00217499
-0.00175208
0.000730182
0.000923428
-0.000396436
-0.000526923
0.00040407
0.000141605
-0.000545674
-0.000596472
-0.000810789
-0.000583761
4.18185e-05
0.000541948
0.00138264
-0.000481852
-0.000900459
0.00239981
-0.00048048
0.00017277
-0.000877629
-0.000521123
-1.62018e-05
0.000537332
0.00214079
-0.0013058
-0.00334899
0.00133166
0.00204326
-0.00032481
0.00074535
-0.000420532
-0.000326987
0.000402029
3.81568e-05
-0.000840767
-0.000267898
0.000440883
-0.000224414
-0.000214228
-5.53903e-05
0.00063909
0.00220277
-0.00227418
-0.000292961
-0.00013121
0.000424171
0.000109938
0.000414109
-0.000524047
-0.000265564
0.000725986
-0.00193326
8.56699e-05
-0.0012553
0.000195258
0.000431114
-0.000626367
-0.000146432
0.000146432
-0.000299954
-0.000442197
0.000742199
-0.000226587
-0.000237238
0.000698127
-0.000916996
0.000218903
-0.000541047
0.000216459
0.000987062
-0.000725314
-0.000261604
-0.000202169
-0.000240676
0.000442845
-0.000354113
0.00102197
-0.000752702
-0.00141299
0.00216957
0.00201558
-0.000248291
-0.000216862
-0.000239241
0.000456103
-0.000178354
0.000709416
-0.000531051
0.000476939
0.000291905
-0.000665456
0.00222136
-0.000718951
0.000419041
-0.000263691
1.83924e-05
0.000282375
0.000987578
-0.000992438
0.000367595
0.000624986
0.000449139
-0.00108196
-0.00215357
0.000303196
0.00163864
0.000145202
-0.00178293
-0.000691822
-0.000175016
0.000511004
-1.98108e-05
0.000269291
-0.000486152
-0.000471259
3.28785e-05
0.00043838
0.00108857
0.000421865
-0.00125012
0.00060131
-0.000432224
0.000722977
0.00187538
-0.0018834
0.00243253
-0.00236379
-5.11106e-05
0.00208638
-0.00243479
0.000360396
-0.00218022
0.000968853
0.00121377
0.000634907
0.000979472
-0.00190884
0.000932538
-0.000359146
-0.000633132
-0.00283817
0.00238936
0.000476937
-6.70787e-05
0.000183185
0.00258613
-0.000462398
-0.00207907
0.000266915
0.00028176
-0.000548675
-0.00217827
0.00010903
-0.00017675
0.000206976
-1.70579e-05
-0.000832637
-0.000337144
0.0013949
-0.000947117
-0.000447406
0.000734631
0.00163837
4.00127e-06
0.000386019
-0.000910335
0.00197587
-0.00227318
0.00216404
0.000122938
0.001147
-0.000461299
-0.000685505
0.00144897
-0.000631049
-0.000817763
0.000518837
-2.57528e-05
-0.00177284
0.00180158
-0.000604215
2.04582e-05
0.000752172
-0.000376401
-0.000736737
0.00111365
0.000161836
-0.00068295
0.000773621
-0.00114949
-0.000657296
-0.000182274
-0.00175184
0.000899895
0.000574175
-0.000317894
-0.00025628
2.70182e-05
0.000404288
-0.0019987
-0.00056767
0.000273429
-0.000301315
0.000702768
-0.000401437
-0.00183881
0.00187987
3.29685e-05
-0.000515994
0.000315444
0.000200551
0.00244469
-0.00235315
-8.15507e-05
0.00241205
-0.000447484
-0.00192146
0.000908099
-0.00144532
0.000537781
0.00040566
-0.00235035
-0.000556305
-0.000295279
0.000851639
-0.000113244
0.000517315
-0.00240161
0.000314784
0.000259392
-0.00133571
-0.00163481
-0.00147469
0.000267491
-0.000715096
0.000536755
0.00220569
-0.000241317
-0.00189731
-0.000533728
0.000333399
0.000200329
0.0015595
0.000466185
-0.00202366
-0.00230634
0.000351005
0.00196658
-0.000233424
0.00253878
-0.00229598
0.0025908
-0.000496118
-3.20303e-05
0.000825768
-0.000793707
0.000694079
0.000264121
-0.000469443
3.96655e-05
0.000429778
-0.000136167
0.000957863
0.000211718
0.000400404
0.000250433
0.000985907
-0.00123608
0.00241777
0.000763012
7.94629e-05
-0.000842441
-4.74665e-06
-0.000466512
0.000643689
-0.000136044
-0.000965018
0.000542808
-0.000861566
0.000539728
0.000774239
0.000351882
-0.00112584
0.00156664
0.000132726
-0.00169818
-0.000759007
0.000727005
-0.00237061
0.00134094
0.00103264
-0.000330456
0.000600791
-0.000576618
0.000615033
2.6798e-05
0.000216196
-0.000509156
0.00195877
-1.01212e-05
-0.000313273
-0.000651713
0.000706832
0.000916136
-0.00218122
0.000510619
0.00167596
-0.00024288
-0.000435833
0.0026122
-0.00238378
-0.000199915
-0.000729833
0.000286914
-0.000251203
0.00181258
0.00189047
0.000489089
0.000872241
0.000700167
0.000402237
-0.00110229
0.000644261
0.000181534
0.000614602
-0.000533989
-3.77805e-05
0.00057178
0.00047868
-0.00019149
-0.00028719
-0.00100972
-0.000840999
0.000188315
-0.000456213
0.00288352
-0.00169905
-0.00118063
-0.000548787
-1.49481e-05
0.000563745
0.000700891
0.000286292
0.00181427
-0.000664226
0.00203202
0.000170647
-0.000986986
0.000905158
-0.00193276
-0.00118224
-0.000338534
-0.00195713
0.000675084
-0.00164849
0.000974596
0.000165309
-0.000714085
-0.000652267
0.000466102
-0.000700391
0.000375588
0.0010497
-0.000684394
-0.000365183
-4.58924e-05
0.00133518
-0.00126532
0.000517763
-0.00104617
0.000528643
-0.000628568
0.000390802
0.000599213
-0.00258858
0.00201453
-0.000621941
0.000989682
-0.00226453
0.00170831
0.000558834
-0.000424491
3.60842e-05
0.000388407
0.00191843
-0.000295858
-0.00162174
0.000452715
-9.79889e-05
-0.000354725
-0.000487705
-1.67541e-05
0.000166787
0.000535416
-0.000176397
4.5732e-06
-0.00122069
0.000979719
0.000241154
0.00116601
0.00147676
-0.000931458
-0.00124613
0.00185866
-0.000895414
-0.000961887
0.00215477
-0.000217445
-0.0020427
0.000801889
0.0016532
-0.00238764
0.000605703
-0.000219873
-0.000303903
-0.000134738
0.000708543
0.000872934
-0.00158061
-0.000201544
-0.000332183
0.00205444
0.000348412
-0.00139909
0.000568739
0.000449798
-0.0016915
0.000259425
-0.000730763
0.000471361
0.00030441
-0.000458667
-0.000654132
0.00136347
-0.0019988
0.00220281
-0.000160421
-0.000515955
0.000542725
-0.00221213
0.00222061
-0.00016265
-0.00174567
0.00129727
0.00044969
0.000366525
0.000172966
0.000404139
-0.00062861
0.000224474
0.000477212
0.000247993
-0.000725194
0.000485035
-0.000623576
0.000639652
5.44404e-05
8.54628e-05
-0.00197431
0.0015222
0.0011267
-0.00263956
0.000293596
-0.000624047
0.00199123
-0.000706462
0.000518799
0.000187673
0.00175648
-0.00118036
-0.00057477
3.032e-05
-0.00138874
0.00135824
0.000610594
-0.000333901
-0.000276691
0.000308214
0.000277033
-0.000585244
-0.0019585
-7.47554e-06
-0.000461968
0.000966487
0.000938938
-0.000706236
-0.000172706
0.000879103
0.000884537
-0.000454324
0.000406812
-0.000286892
0.000414581
-0.000675775
0.000261203
1.29864e-06
-0.000363003
0.000457956
-0.000353088
0.000898504
-0.000398348
0.000357773
-0.000585085
0.000227313
0.00205453
0.000495687
-0.00247155
0.00213607
0.000511923
0.000469546
-0.00239069
0.00192689
-0.000388244
-0.000189987
0.000578239
0.000803824
-0.00059431
-0.00020947
0.00113641
0.000213498
0.000323169
-0.000536667
0.00139707
-0.000384799
-0.00018457
-0.000805622
-0.000417307
-0.00184461
-0.000561224
0.0019821
-0.00137444
0.00181267
-0.00145562
-0.000248017
-0.00206858
0.0024615
-0.000334735
-0.000237839
-0.000207407
0.000433847
0.000390949
0.000460125
-0.000851031
-7.70799e-05
0.00211024
0.000198901
-0.00215246
0.000944918
0.00240272
-0.00207732
-0.000313309
0.00137695
-0.000468361
0.00148
-0.00172003
0.000552382
0.000603994
-0.000272433
-0.000331559
-0.00104052
0.000681538
-0.000873788
0.000200644
0.000673172
-0.000320953
0.000711938
0.00220563
0.00024226
3.18533e-05
-0.000790829
-0.000926621
0.00245738
0.000171432
-0.000807816
0.000506517
-0.000239203
0.000532485
-0.000293281
0.000660827
-0.000225072
-0.000435749
0.00185177
-4.01681e-05
-0.000874982
0.00155116
0.00039341
-0.000564051
0.000170644
0.000257314
0.000259281
-0.000516594
0.00032303
0.000505583
0.000578272
-0.00108381
0.000423221
0.000500261
-0.000307327
-0.000214196
-0.00106774
4.06913e-05
0.000245567
-0.000677762
0.000202542
0.000369346
-0.00059699
0.000870633
2.95381e-06
-0.000242458
0.00102258
-0.00135195
0.000275598
0.000212069
-0.000487667
0.00038175
0.000129421
-0.000572671
-0.000262893
0.000835616
2.76496e-05
-0.00224569
0.0022206
0.0019598
-0.00115074
-0.000806642
0.000430169
0.000952986
-0.001383
0.000203099
-0.000412725
-0.00176457
-0.000411769
-0.000481814
0.000721538
-0.00023971
0.00252998
-0.000119286
-0.00239353
0.00178996
0.000699159
0.0001225
-0.000821625
-0.00228875
-0.000274504
0.000159223
0.00218935
-0.00233651
0.00188167
0.000102135
-0.000616403
0.00155349
0.00197306
-0.000464291
-0.00146042
-0.0013309
-0.00103635
0.00218679
9.03303e-05
-0.000624309
-0.000527626
-0.000204002
0.000731672
-0.000231789
-0.000349537
-0.000153889
0.00117552
-0.000650913
-0.000524514
-0.000209242
0.00222102
-0.00201046
0.000707605
-0.000823606
0.000309125
0.00111196
-0.00134153
0.000229884
0.00030036
0.00224519
0.00119466
-0.00192562
0.00066085
-0.000273639
-0.000112043
0.000684741
-0.000572636
0.00118098
0.000553654
0.00031415
-0.000510416
0.000196266
0.000500472
-0.00109734
0.00102478
-0.00211844
7.9047e-05
5.21307e-05
-0.000409578
0.000238747
0.000879059
-0.00114938
0.000270456
9.34679e-05
-0.00188599
0.00184486
-0.00020021
0.000584946
-0.000384719
-0.00124997
0.00117641
9.69447e-05
-0.00108906
-0.000385017
-0.00120712
-0.000858465
0.00208998
0.000669233
7.80683e-05
-0.000747288
0.00027146
-0.00210853
0.000182838
0.00196631
0.00194628
-0.00190577
0.000559482
0.000128421
-0.000687893
-0.000108093
0.00247615
-0.000625689
0.000377403
0.00024829
0.000307821
-0.000493624
0.000185804
0.000430597
0.000802324
-0.00123264
0.00197501
0.00116987
-0.00170888
0.000541354
-0.00237356
0.00119375
-0.000401963
-2.42893e-05
0.000219321
0.000323569
-0.000674199
0.000542355
0.000685475
0.00143563
-0.00211746
-0.000240439
-0.000275555
-1.77036e-05
-0.000195636
-0.00195359
0.00218002
0.00045917
0.000175994
0.00256185
-0.00245257
-9.21886e-05
-0.000296806
-0.000330644
0.00198228
-4.63587e-05
-0.00186787
-0.00154128
0.000911259
0.000630344
0.000315368
0.00268908
-0.000465452
-0.00221631
-0.00107791
-0.00109951
0.00218951
-0.00121659
-6.01418e-06
0.000514386
-0.000215723
-0.000649065
0.00230604
-0.00132574
0.00135585
0.000929959
-0.000576469
-0.000353478
-0.000261685
0.00128469
0.000245373
0.00184112
-0.00205132
0.000479765
0.000667414
-0.00135283
0.000407701
0.000957883
5.14158e-05
0.000367409
0.00145692
3.68109e-05
0.0010754
-0.000418024
0.000320036
0.000886638
-0.00103037
0.000143893
0.00242581
-0.00213729
-0.000281958
0.000827102
-0.000829432
0.00107117
-0.000821027
-0.000249972
0.000535154
-0.00108954
0.000554497
0.00104599
-0.0016614
-0.00111293
0.00047636
0.000636802
0.000471363
-0.000251083
-0.00143103
0.00168427
-0.000146763
0.00113291
-0.00235957
-6.4695e-05
0.00274969
-0.00248314
-0.000234133
0.00264219
-0.000177874
-0.00244486
-0.0015881
0.000894411
0.000694279
-0.00111472
0.000727383
-8.02743e-05
0.00101682
0.00246656
-0.00227154
-0.000182336
-0.00120755
-0.000536732
0.00111853
0.000601888
-0.000354099
-0.00024779
-0.000628191
-0.00238411
1.13773e-05
0.00146573
-0.0025176
0.00107711
0.0013174
-0.000209127
0.000748419
-0.000539232
0.00224999
0.000274156
-0.00047888
0.000204724
-1.18961e-05
-0.00227754
0.00229921
-0.00172142
-0.00106213