/*--------------------------------*- C++ -*----------------------------------*\
| =========                 |                                                 |
| \\      /  F ield         | OpenFOAM: The Open Source CFD Toolbox           |
|  \\    /   O peration     | Version:  v2012                                 |
|   \\  /    A nd           | Website:  www.openfoam.com                      |
|    \\/     M anipulation  |                                                 |
\*---------------------------------------------------------------------------*/
FoamFile
{
    version     2.0;
    format      ascii;
    class       surfaceVectorField;
    location    "600";
    object      Uf;
}
// * * * * * * * * * * * * * * * * * * * * * * * * * * * * * * * * * * * * * //

dimensions      [0 1 -1 0 0 0 0];


internalField   nonuniform List<vector> 
27274
(
(1.10012 0.0798039 5.64742e-21)
(1.09693 0.0780334 9.08757e-21)
(1.09696 0.081987 2.36761e-21)
(0.0905826 -0.01767 1.46537e-20)
(0.101195 -0.0206395 6.23697e-21)
(0.074369 -0.0154991 1.32509e-20)
(1.00409 0.0223588 -7.55197e-23)
(1.00383 0.0217096 8.85778e-22)
(1.00444 0.0219164 4.10846e-21)
(1.01464 0.00471593 4.54426e-22)
(1.015 0.00475058 1.33753e-21)
(1.01494 0.00504715 -5.48418e-22)
(1.04246 -0.00452455 0)
(1.04274 -0.0037819 -4.90891e-21)
(1.04346 -0.0046192 -6.60507e-21)
(1.14165 -0.0695293 7.34129e-21)
(1.14319 -0.0667178 1.66366e-20)
(1.14528 -0.0701394 3.03738e-20)
(1.00402 0.00708677 4.52656e-22)
(1.00381 0.00685958 -1.55357e-22)
(1.00399 0.00681345 -2.87259e-24)
(1.15517 0.0240858 -1.56538e-20)
(1.15703 0.0211524 2.58053e-20)
(1.1535 0.0213587 -3.2338e-20)
(0.940284 -0.00567659 0)
(0.937821 -0.0064033 -1.30089e-20)
(0.0158062 -0.0110404 0)
(-0.00247568 -0.0100278 0)
(0.0162194 -0.0106048 0)
(1.02182 0.000585691 1.99272e-21)
(1.02203 0.000844857 2.03309e-21)
(1.02156 0.000781331 -3.21841e-22)
(-0.224506 -0.00907502 1.21444e-20)
(-0.231445 -0.00866711 -1.63226e-20)
(-0.250616 -0.00533992 -6.7545e-21)
(1.18947 0.0183255 4.32422e-20)
(1.19104 0.0166235 3.35076e-20)
(1.19227 0.0194083 7.86091e-21)
(0.987163 0.00543343 -2.64355e-21)
(0.987442 0.00603006 -2.13247e-22)
(0.987827 0.00531235 1.62459e-21)
(1.02575 0.0344182 -1.43774e-21)
(1.02653 0.0335756 -2.18852e-21)
(1.02524 0.0332584 1.5953e-22)
(0.989823 0.0693575 3.83689e-21)
(0.988235 0.0711276 1.16378e-21)
(0.987413 0.0687231 6.46295e-22)
(-0.273848 0.0128982 4.19917e-20)
(-0.24869 0.0149943 -6.19173e-20)
(-0.264129 0.0125964 2.48277e-20)
(1.01525 0.00967832 1.00444e-21)
(1.0157 0.00994527 5.1112e-22)
(1.01511 0.0100179 -1.38481e-21)
(1.00481 0.0351432 -1.67529e-21)
(1.00536 0.0360473 -2.94379e-22)
(1.00594 0.0350418 -3.19056e-21)
(0.64365 -0.123881 1.46106e-20)
(0.65596 -0.128354 -8.41114e-21)
(0.601604 -0.109805 2.33774e-20)
(0.970314 0.0860908 -1.76683e-21)
(0.970406 0.0889807 1.02769e-20)
(0.967374 0.0867226 0)
(0.976457 0.0339794 -3.98839e-21)
(0.97531 0.032944 -5.49082e-21)
(0.975013 0.0345325 8.24548e-21)
(0.11976 -0.018845 -5.53991e-21)
(0.152644 -0.0209851 5.5084e-20)
(0.137075 -0.0197097 -1.17121e-21)
(1.04225 -0.00518303 3.87443e-21)
(1.04164 -0.00442692 8.22054e-21)
(1.05064 -0.0195586 -3.31963e-21)
(1.05073 -0.0211215 -5.98879e-22)
(0.999297 0.00411999 2.9254e-22)
(0.999386 0.00414802 -4.55442e-22)
(0.999387 0.00394227 3.36339e-23)
(0.99637 -4.91297e-05 -3.48605e-21)
(0.996188 7.80649e-05 2.89435e-21)
(0.944228 0.00659583 9.14695e-22)
(0.942243 0.00680302 -9.82111e-21)
(0.943277 0.00469924 1.82768e-21)
(0.0476748 0.211781 -3.11758e-21)
(0.0557131 0.204216 1.7722e-20)
(0.0657505 0.203728 3.79246e-20)
(0.994376 0.0241047 1.43443e-21)
(0.993555 0.0242751 2.80869e-21)
(0.99417 0.0251648 8.60201e-21)
(1.03519 -0.00489674 5.25395e-21)
(1.0358 -0.00454717 -2.95799e-22)
(1.03581 -0.00522342 3.51552e-21)
(1.04919 -0.00833787 -2.80949e-21)
(1.04825 -0.00845723 -3.63747e-21)
(1.04896 -0.00948312 5.55165e-21)
(1.01483 0.0093957 -7.88916e-22)
(1.01535 0.00932659 6.86527e-22)
(1.00946 0.000492325 2.75691e-23)
(1.00968 0.00055264 -5.44539e-22)
(1.01004 0.00066914 -2.84775e-22)
(1.13308 0.125827 9.91939e-21)
(1.13715 0.130084 -1.57336e-20)
(1.1389 0.124756 2.32898e-20)
(1.10294 0.0785479 -2.68796e-21)
(1.10283 0.082319 -1.32208e-20)
(0.956661 -0.00307051 8.01082e-21)
(0.954965 -0.0021626 0)
(1.19291 0.261167 8.60219e-21)
(1.18359 0.266276 7.30801e-21)
(1.18496 0.254889 4.1012e-20)
(0.946243 0.00695986 -1.98857e-20)
(0.944698 0.00890821 -1.70783e-21)
(1.02226 0.00106905 0)
(1.02214 0.00134164 1.70424e-22)
(1.0226 0.00130059 0)
(0.986813 0.00497312 -6.2039e-21)
(0.986542 0.00566734 -7.29723e-21)
(0.941438 0.31816 -7.66699e-22)
(0.950574 0.326463 -2.9266e-21)
(0.953749 0.31241 -1.43538e-21)
(1.00435 0.022995 -7.82708e-22)
(1.00372 0.0227694 -2.69412e-21)
(-0.0634898 -0.00299851 2.91105e-20)
(-0.044986 -0.00591047 8.98649e-20)
(-0.0662292 -0.00298755 2.79215e-21)
(1.01482 -2.69054e-05 -2.41392e-22)
(1.01501 -3.28865e-05 2.3618e-22)
(1.01397 0.000122389 2.38875e-21)
(1.20054 0.257184 4.16125e-21)
(1.19968 0.26827 -3.40905e-20)
(1.1436 0.0728833 -5.07755e-22)
(1.14533 0.0702654 4.36936e-20)
(1.14754 0.0738555 1.67231e-20)
(0.936157 0.0275186 -5.34044e-21)
(0.934263 0.0256787 -3.84532e-21)
(0.937121 0.0247589 6.82619e-21)
(1.13561 0.0721638 1.73774e-22)
(1.13335 0.0754839 -1.86595e-20)
(1.13157 0.0717494 -7.97061e-21)
(1.01464 0.010962 1.28741e-23)
(1.01506 0.0111783 1.27152e-21)
(1.01483 0.0106656 -2.87067e-21)
(1.01935 0.00284787 0)
(1.01915 0.0026277 0)
(1.01953 0.00264254 0)
(1.01699 0.0211398 -2.21287e-22)
(1.01707 0.0217653 1.84002e-22)
(1.0164 0.0213483 1.71814e-22)
(0.999994 0.000672221 1.51066e-21)
(0.999974 0.000658874 1.38611e-21)
(0.999993 0.000419219 1.24416e-21)
(0.264465 -0.0453988 3.58595e-20)
(0.287088 -0.0476007 4.70776e-20)
(0.304608 -0.0508543 3.06355e-21)
(1.00049 0.00590515 -1.09e-21)
(1.00058 0.0059838 0)
(1.00053 0.00576613 9.45848e-22)
(1.00181 0.000328906 1.17217e-21)
(1.00194 0.000325567 5.82547e-22)
(1.00177 0.000191135 1.15219e-21)
(1.08119 -0.144719 -5.63095e-22)
(1.08559 -0.145231 1.67035e-20)
(1.08242 -0.149636 -5.92328e-21)
(1.02504 0.0349259 -1.12463e-21)
(1.0262 0.0351155 7.93896e-22)
(0.113794 0.445995 7.17677e-20)
(0.0999728 0.49238 5.33607e-20)
(0.146358 0.468902 -2.51472e-20)
(1.22279 0.130653 -4.60807e-20)
(1.21998 0.125738 5.23425e-21)
(1.21584 0.130518 -4.75788e-20)
(1.01425 0.0107103 -4.46418e-22)
(1.01438 0.0113059 9.17747e-22)
(1.1463 -0.0312835 -1.0664e-20)
(1.14717 -0.0282199 2.19065e-21)
(1.1436 -0.0289593 5.3768e-21)
(1.01619 0.00890086 -1.39659e-21)
(1.01615 0.00929373 3.5149e-23)
(1.01661 0.00921451 -4.42383e-22)
(1.01855 0.196942 -5.11347e-21)
(1.01752 0.190096 -8.86815e-23)
(1.02409 0.192369 -2.10408e-21)
(-0.202784 -0.0129345 0)
(-0.220378 -0.00977434 0)
(1.0937 0.076478 -1.30975e-20)
(1.09656 0.0745178 -2.74626e-21)
(0.054057 0.198451 -8.42247e-21)
(0.0728771 0.183424 -1.4625e-20)
(0.0461074 0.165252 9.14329e-21)
(0.861497 0.0552629 1.02887e-20)
(0.856176 0.0583278 8.34714e-21)
(0.856331 0.0504242 9.37854e-21)
(0.996612 0.00018556 3.23103e-21)
(0.977725 0.0349949 1.30705e-22)
(0.977924 0.0334561 -1.89516e-21)
(1.1593 0.0986793 -1.05817e-20)
(1.16176 0.0942286 -1.12156e-20)
(1.15705 0.095354 1.29335e-20)
(1.00008 0.000542439 1.52429e-21)
(1.00006 0.000458028 -7.23722e-22)
(1.00007 0.00043329 6.5417e-22)
(1.22537 0.135984 0)
(1.22921 0.129421 0)
(1.01169 0.0110328 -5.97643e-23)
(1.0113 0.0109048 -2.79537e-23)
(1.01149 0.0113227 -4.91881e-23)
(1.15315 0.0272005 3.4769e-21)
(1.15702 0.0271707 -1.39233e-20)
(1.00412 0.00732325 -5.56563e-23)
(1.00426 0.00728172 2.21229e-22)
(0.650307 -0.0803571 0)
(0.683597 -0.0808883 -9.76608e-21)
(0.622713 -0.0755973 -1.02739e-20)
(1.04948 -0.00644187 3.43858e-21)
(1.04988 -0.00552348 1.00386e-20)
(1.05065 -0.00679064 1.19481e-20)
(1.05927 -0.0267569 -4.04526e-21)
(1.05966 -0.0282507 -4.53175e-21)
(1.06085 -0.0272052 -1.14398e-21)
(1.01649 0.0190824 -4.9697e-22)
(1.01628 0.0184436 0)
(1.01584 0.0187703 -3.9964e-22)
(1.00359 0.00656994 5.02724e-22)
(1.00359 0.00684126 -8.02426e-22)
(1.25444 0.343455 0)
(1.26124 0.350089 1.48589e-20)
(1.24943 0.355403 2.4562e-20)
(0.970246 0.0826767 1.03085e-20)
(0.973605 0.0848552 -4.97905e-21)
(1.06478 0.179181 -6.27985e-21)
(1.06801 0.184655 8.25888e-21)
(1.07047 0.178149 2.99564e-21)
(0.999221 0.00411461 3.96328e-21)
(0.999233 0.00430777 -7.46842e-22)
(1.18788 0.0208611 -4.92305e-20)
(1.18649 0.0178139 -1.22099e-20)
(0.22994 0.016143 3.29192e-21)
(0.264216 0.00752974 -9.14441e-21)
(0.254571 0.00088978 2.97537e-21)
(0.621904 -0.114272 4.76623e-21)
(0.686837 -0.136644 -1.03714e-20)
(0.033824 0.219369 -1.65725e-20)
(0.0423903 0.218986 3.08435e-21)
(0.279738 -0.0364463 2.56749e-20)
(0.239993 -0.0314305 -1.28195e-20)
(0.266388 -0.0339489 1.23655e-20)
(1.22975 -0.0659517 0)
(1.22728 -0.0685628 -2.19047e-20)
(1.22496 -0.0649364 0)
(1.01464 -4.76293e-05 9.70357e-22)
(1.01522 4.36366e-05 -1.25139e-21)
(1.00007 0.00552379 -4.49608e-21)
(1.00001 0.00537245 -3.31469e-21)
(1.00009 0.00532897 -1.97943e-21)
(1.01847 0.000677113 7.41198e-23)
(1.01875 0.000734613 -2.66133e-21)
(1.01857 0.000535309 -3.84078e-21)
(-0.0060826 0.222107 -1.31151e-20)
(-0.00745383 0.227742 2.62741e-20)
(0.103917 -0.0175108 -3.2753e-20)
(0.089707 -0.015883 -3.1113e-20)
(1.02487 0.0151469 3.09287e-22)
(1.02517 0.0146643 -1.91239e-21)
(1.02555 0.0153943 2.73125e-21)
(1.07091 -0.00290724 0)
(1.07149 -0.00150467 0)
(1.07271 -0.00336975 1.57706e-20)
(0.242493 -0.0441741 -1.85857e-21)
(0.227141 -0.0419444 2.4938e-20)
(-0.205288 0.0152188 -2.05515e-20)
(-0.195423 0.0146959 0)
(-0.180776 0.0194925 2.50639e-20)
(0.00369166 0.267529 -1.60415e-20)
(0.00596936 0.265857 -3.75896e-21)
(0.00126154 0.272098 2.57049e-21)
(-0.218939 0.0128201 4.18215e-20)
(-0.229458 0.0115941 2.52703e-20)
(-0.205227 0.0160074 6.34589e-21)
(1.09747 0.137641 -6.49702e-21)
(1.10372 0.13651 -1.0427e-20)
(1.0984 0.132497 0)
(1.11744 -0.0695182 -1.49572e-20)
(1.08699 -0.0713216 -1.71098e-20)
(1.15019 -0.0715581 3.17754e-20)
(1.04163 -0.0091484 -2.53294e-21)
(1.0419 -0.00844881 -1.79173e-21)
(1.04253 -0.00925559 0)
(1.17957 -0.0365966 0)
(1.17986 -0.0395722 2.65037e-22)
(1.18256 -0.0374459 -9.08357e-22)
(-0.283515 -0.00324994 -1.2788e-21)
(-0.286393 -0.0034933 8.92554e-21)
(-0.31591 -0.00123608 6.80515e-20)
(1.13409 0.308417 3.55199e-20)
(1.12767 0.300459 0)
(1.13885 0.29729 4.47373e-21)
(1.10189 0.0235851 -1.42644e-20)
(1.10374 0.0249173 2.65549e-21)
(1.10413 0.0221881 -1.12071e-20)
(0.490623 -0.282313 0)
(0.466237 -0.307398 -3.6833e-20)
(0.998181 0.0233582 -3.3133e-21)
(0.998785 0.0237258 -3.58103e-24)
(0.998181 0.0242562 1.09722e-21)
(0.950505 0.0175791 -5.69147e-21)
(0.95253 0.0172657 4.74787e-21)
(0.951869 0.0194213 4.51716e-21)
(0.999118 0.00343008 -1.67057e-21)
(0.999104 0.00359754 4.52363e-21)
(0.998999 0.00355268 2.47019e-21)
(0.9489 0.0161141 -1.51469e-20)
(0.948366 0.0183371 -8.89061e-21)
(0.291823 -0.0557011 -9.98218e-21)
(0.255459 -0.0482152 -7.95884e-21)
(0.277234 -0.052244 -3.23271e-20)
(1.00287 0.000729126 0)
(1.00305 0.000794032 -4.84871e-22)
(1.0029 0.000945233 0)
(0.0737611 -0.278804 4.60713e-20)
(0.0641017 -0.311507 4.55015e-20)
(0.0500157 -0.301814 4.97637e-20)
(0.676945 -0.0856026 1.6887e-20)
(0.61981 -0.07977 9.86182e-21)
(0.0802328 0.340956 3.50016e-21)
(0.0720862 0.36861 -1.12823e-19)
(0.052307 0.366521 -9.57731e-20)
(1.09202 0.13924 1.04414e-21)
(1.09729 0.143854 -4.45208e-21)
(0.035238 -0.0124373 0)
(0.0155464 -0.0112327 0)
(1.33986 0.0893969 -6.3495e-21)
(1.3538 0.0868357 2.2229e-20)
(1.35011 0.0946827 -5.09348e-20)
(1.04934 -0.0074473 -1.2131e-20)
(1.0485 -0.00633602 -1.52429e-21)
(1.15712 0.101282 1.93815e-23)
(1.16136 0.101033 1.69707e-20)
(1.02423 0.0148725 -1.45163e-21)
(1.02454 0.0156321 -2.32245e-21)
(1.12991 0.31829 4.77491e-21)
(1.14113 0.315268 2.35422e-21)
(1.01685 0.0203745 7.2002e-22)
(1.01767 0.0207725 -4.80798e-22)
(1.00001 0.00116497 0)
(1.00001 0.00121405 -2.37134e-21)
(1 0.00091574 3.8141e-21)
(1.39042 0.232923 1.29269e-20)
(1.38362 0.234167 2.46677e-20)
(1.35873 0.213333 2.74408e-20)
(1.01833 0.000861861 5.0468e-21)
(1.01817 0.000597363 3.25553e-21)
(1.01916 0.00301785 8.84138e-22)
(1.01955 0.00302997 2.50052e-21)
(1.16987 -0.0326714 -1.97119e-21)
(1.18374 -0.0316721 2.30237e-21)
(1.11504 -0.0336668 5.75093e-20)
(1.13278 -0.00820884 -5.41615e-22)
(1.13037 -0.00960307 5.85591e-21)
(1.13055 -0.00691086 1.09622e-20)
(1.0706 -0.004656 2.69017e-21)
(1.06925 -0.00279087 4.88488e-21)
(0.915383 0.194474 6.88219e-21)
(0.913443 0.185995 -1.6073e-20)
(0.921691 0.188732 -6.44385e-21)
(1.00002 0.00115552 0)
(1 0.00143302 1.96339e-21)
(1.02201 0.027268 -1.68238e-21)
(1.02234 0.0267356 -5.60167e-22)
(1.02298 0.0271737 -2.03641e-22)
(1.02167 0.000341019 1.58818e-21)
(1.02202 0.00035169 -2.67038e-21)
(0.992572 0.0142385 5.80634e-21)
(0.991859 0.0142884 -6.65169e-21)
(0.992138 0.0151846 -7.93461e-22)
(1.16735 0.167072 2.84874e-20)
(1.1609 0.169726 -9.09244e-21)
(1.16167 0.16321 -1.80579e-20)
(0.00329515 0.261484 -1.36684e-20)
(0.000588431 0.26943 4.83511e-21)
(-0.021083 0.236261 0)
(-0.0213006 0.240266 1.28032e-20)
(-0.0269963 0.234843 -5.066e-21)
(0.999419 0.0460748 3.35236e-22)
(0.998205 0.0472336 -2.08229e-21)
(1.00026 0.0474782 -3.82985e-22)
(0.998143 0.0226739 -2.48984e-21)
(0.99758 0.0231537 -2.46545e-21)
(0.392655 0.0287963 0)
(0.365493 0.0302173 6.54348e-20)
(0.379891 0.0551027 0)
(0.975374 0.0313754 -9.37996e-21)
(0.975105 0.0299097 -9.39391e-22)
(0.976471 0.0305673 -5.90658e-21)
(0.912065 0.00310396 -1.08958e-20)
(0.909977 0.00603477 1.26398e-21)
(0.90825 0.00233606 -9.21292e-21)
(0.20135 0.052261 5.61792e-21)
(0.244166 0.0354926 0)
(0.191858 0.0397383 -1.23438e-20)
(1.0604 0.00922024 -2.04034e-21)
(1.06098 0.00822425 -1.16461e-21)
(1.06184 0.00954927 3.06842e-21)
(0.20508 0.0640621 3.92675e-21)
(0.145565 0.0665612 -1.66461e-20)
(1.04238 0.0015329 3.57978e-21)
(1.04341 0.00147482 0)
(1.04268 0.00077716 -4.69672e-21)
(0.974156 0.0320178 -8.1442e-21)
(1.13096 0.122785 1.13797e-21)
(1.12947 0.126599 2.86624e-20)
(0.133557 0.40261 7.23468e-20)
(0.0852625 0.400955 0)
(1.10956 -0.0971177 7.27016e-21)
(1.1129 -0.0957721 -1.42276e-21)
(1.11213 -0.100292 1.48433e-20)
(1.00004 0.000501535 -1.99211e-21)
(1.00004 0.000614949 1.60565e-21)
(1.00001 0.000413174 -2.1528e-21)
(1.15993 -0.0337259 6.69676e-21)
(1.2043 -0.0325979 -1.72839e-20)
(0.100482 0.322713 1.17135e-19)
(0.0713334 0.313006 5.57648e-20)
(1.00005 0.000583364 -1.102e-21)
(1.00004 0.000420719 -4.53519e-22)
(1.15342 -0.0259382 -1.30804e-21)
(1.15042 -0.0275095 1.85312e-20)
(1.15359 -0.0291462 5.70686e-21)
(1.01418 0.100943 1.15546e-22)
(1.01133 0.102308 3.59121e-22)
(1.01498 0.104026 9.76585e-22)
(1.05129 0.0620601 0)
(1.05232 0.0598959 5.36429e-21)
(1.04978 0.0602039 0)
(0.911279 0.0924802 5.56182e-21)
(0.906233 0.0931082 -2.33711e-20)
(0.910697 0.0976959 -1.40323e-20)
(1.07034 -0.00604308 7.18304e-21)
(1.07199 -0.00625771 5.83567e-21)
(1.15073 -0.170947 -1.10055e-20)
(1.14596 -0.172059 -2.34502e-20)
(1.14822 -0.167 3.42545e-21)
(0.501316 0.71551 -8.62632e-21)
(0.527274 0.673235 -1.06947e-20)
(0.470771 0.663752 3.37249e-21)
(0.14863 0.0465629 8.98895e-20)
(0.202366 0.0519669 4.82857e-20)
(0.264883 0.0625666 4.32116e-20)
(1.12379 0.0867963 8.5057e-21)
(1.12709 0.0837428 2.41071e-20)
(1.12206 0.0828317 7.68702e-21)
(1.22488 0.00964859 -4.85232e-20)
(1.22735 0.0111028 -2.26639e-20)
(1.22421 0.012082 -8.26721e-23)
(1.0134 0.0107415 2.12936e-22)
(1.0138 0.0106681 0)
(1.0137 0.0111031 -8.62162e-22)
(-0.0798748 0.141644 -1.51403e-20)
(-0.0759798 0.139533 -1.31715e-20)
(-0.0799651 0.150632 -1.65534e-20)
(0.0841249 -0.0168133 1.69874e-20)
(0.0638005 -0.0151589 3.43614e-20)
(0.0549939 -0.0134301 -1.30371e-20)
(1.021 0.00137416 -2.13409e-21)
(1.02058 0.00143995 -7.33522e-22)
(1.02063 0.00112778 0)
(1.02137 0.00138296 2.70864e-22)
(1.02178 0.0013535 2.22057e-21)
(1.02139 0.00106873 -3.35681e-22)
(0.991464 0.0675657 1.37093e-21)
(0.992403 0.0698229 3.41681e-22)
(0.128557 -0.0150493 0)
(0.111304 -0.0105295 5.06757e-21)
(0.104169 -0.00991129 -2.01616e-20)
(1.07073 -0.088905 8.2829e-21)
(1.07398 -0.0877171 2.49907e-21)
(1.07126 -0.0851725 -2.74397e-22)
(1.00035 0.00540532 -4.22047e-22)
(1.00043 0.00543518 -1.5879e-21)
(1.0004 0.00563349 4.57268e-21)
(1.3832 0.21969 -2.3191e-20)
(1.36861 0.228391 -2.54542e-20)
(0.276931 0.146578 4.95797e-20)
(0.558575 0.265708 -1.99485e-20)
(0.40778 0.190106 4.98487e-20)
(0.655756 -0.110342 0)
(0.67067 -0.118716 -7.02919e-22)
(0.671962 -0.101821 0)
(1.22313 0.00804227 -6.60438e-20)
(1.22595 0.00730315 -2.47489e-20)
(1.08373 0.00500414 -3.13646e-21)
(1.08404 0.00678108 1.29109e-20)
(1.08584 0.00490152 -1.10287e-20)
(1.00526 0.00653548 7.42352e-22)
(1.0055 0.00671387 3.93154e-23)
(1.00541 0.0063894 9.59486e-22)
(1.17975 -0.151686 1.96172e-20)
(1.18033 -0.148037 -1.72231e-20)
(1.18385 -0.149681 -1.41312e-20)
(0.128644 -0.0115912 -1.22067e-20)
(0.145365 -0.0148351 -9.64359e-21)
(0.153586 -0.0186631 2.60028e-20)
(0.21313 -0.0272341 -1.16745e-22)
(0.236288 -0.0277586 2.62277e-20)
(0.253409 -0.0288876 2.62026e-21)
(1.21661 -0.0563658 -5.88545e-20)
(1.2141 -0.058931 -5.21356e-20)
(1.213 -0.0556666 -8.05476e-21)
(0.938832 0.00429702 -2.94812e-21)
(0.940025 0.0067735 -1.10701e-21)
(0.93669 0.00672956 1.00255e-20)
(-0.281236 0.0116574 7.5669e-20)
(-0.29341 0.0107562 8.03544e-20)
(1.07934 -0.140607 -3.67384e-22)
(1.00462 0.0237165 2.54752e-21)
(1.00416 0.0241104 4.12073e-22)
(1.00484 0.0243545 -1.99421e-22)
(1.07003 -0.00754115 -1.05065e-20)
(1.06884 -0.00588834 4.47891e-21)
(1.08731 -0.0818408 9.5876e-21)
(1.0288 -0.0809564 5.86884e-21)
(1.05225 -0.0832324 2.38062e-21)
(0.90012 0.215881 -2.01425e-20)
(0.898549 0.206488 0)
(0.889131 0.211692 1.41889e-20)
(0.977994 0.0363175 8.13221e-22)
(0.976735 0.0374546 -5.9246e-21)
(0.978671 0.0379703 6.37768e-21)
(1.27266 -0.00440397 -5.02807e-21)
(1.25053 -0.00969399 -1.59917e-20)
(1.27806 -0.00330337 -1.09487e-20)
(1.08373 0.00288737 6.2167e-22)
(1.08182 0.00476373 1.05677e-20)
(1.11133 -0.011911 -1.4312e-20)
(1.11187 -0.00960261 -4.32392e-21)
(1.11391 -0.0119813 -9.09048e-21)
(1.02132 0.0016542 -3.3075e-21)
(1.0532 0.0159893 5.03792e-21)
(1.05263 0.0149572 4.74147e-21)
(1.05399 0.0151679 -4.17118e-21)
(0.944438 0.0447891 -5.89022e-21)
(0.941492 0.0443503 -5.07672e-21)
(0.943104 0.0476882 -5.10062e-21)
(0.194216 0.0914995 -1.22183e-20)
(0.123891 0.0674089 1.10158e-20)
(0.0728335 0.0542719 7.65602e-21)
(0.192969 -0.0236429 -1.98506e-20)
(0.179916 -0.0224848 2.2488e-20)
(-0.232055 0.000738409 0)
(-0.252131 -0.00217133 0)
(-0.229521 -0.000927126 0)
(0.999154 0.116768 -9.35277e-22)
(0.996618 0.113572 1.12533e-21)
(1.00097 0.111995 3.21378e-22)
(0.10484 -0.268825 -8.73589e-20)
(0.0814809 -0.242796 6.24101e-21)
(-0.0543954 -0.0120317 -9.15617e-22)
(-0.0788239 -0.0109703 8.37286e-20)
(-0.0916887 -0.00969481 -3.02696e-22)
(-0.0236614 -0.0267196 1.93164e-20)
(-0.0402987 -0.0284432 -2.90849e-21)
(-0.0549187 -0.0274172 1.96364e-20)
(1.11082 -0.0147494 7.99576e-21)
(1.10864 -0.012388 3.03144e-22)
(1.02138 0.0278226 0)
(1.02196 0.0284635 0)
(1.04161 0.0014244 -8.70767e-22)
(1.04213 0.00220218 4.02443e-21)
(0.604144 -0.107048 2.74665e-21)
(0.58891 -0.0989244 1.38965e-20)
(0.645776 -0.121043 -2.32642e-20)
(0.998835 0.0447511 -2.24005e-22)
(1.00058 0.0452898 -3.02185e-21)
(1.01313 0.010299 2.28453e-22)
(1.01296 0.010685 -1.68056e-23)
(1.25894 0.332165 0)
(1.24908 0.337338 0)
(1.05115 -0.231222 1.84219e-20)
(1.07874 -0.234177 1.53018e-20)
(1.08969 -0.239199 -9.37652e-21)
(0.565301 -0.0935893 1.10831e-20)
(0.999202 0.00330604 -2.42165e-21)
(0.999126 0.00329954 -2.41398e-21)
(1.05902 0.00884981 -5.11225e-21)
(1.05964 0.0103733 -1.70837e-20)
(1.28862 0.232477 4.87945e-20)
(1.28231 0.231207 1.96392e-20)
(1.28852 0.222948 0)
(0.993399 0.0155748 1.43946e-21)
(0.993979 0.0156508 6.14784e-22)
(0.993658 0.0163912 -4.34854e-21)
(1.06229 0.172711 -1.02576e-20)
(1.05836 0.179175 -1.02963e-20)
(1.02298 0.0261206 -7.23934e-22)
(1.02181 0.0259595 1.32686e-21)
(0.0632492 0.0411576 -1.4736e-19)
(0.110866 0.046842 -5.0632e-21)
(0.986228 0.0359488 -2.75267e-21)
(0.985468 0.0347676 -2.75657e-21)
(0.984775 0.0362087 5.72449e-21)
(-0.106161 0.00237503 -3.43735e-20)
(-0.122289 0.000218438 -6.60025e-20)
(-0.137531 0.000525392 1.33502e-20)
(0.161931 -0.00941338 1.83673e-20)
(0.188229 -0.0169703 -3.39438e-20)
(0.17989 -0.0117549 -8.74147e-22)
(0.557332 0.00404991 -4.04134e-20)
(0.537086 0.00142993 4.71697e-20)
(0.547819 0.022203 -8.97225e-20)
(1.02063 0.0285251 0)
(1.02055 0.0272823 0)
(1 0.000665459 -2.21358e-21)
(0.999971 0.000897776 -2.82311e-22)
(1.05885 -0.0253158 -4.24348e-21)
(1.05774 -0.0262172 -3.75868e-22)
(1.03171 0.0882238 4.5012e-22)
(1.03227 0.0910886 2.05083e-21)
(1.03499 0.088914 2.26817e-21)
(-0.086925 0.00322283 -3.53147e-20)
(-0.0663826 0.00171709 5.40849e-20)
(1.01597 0.0545229 1.51827e-22)
(1.01545 0.056069 1.13583e-23)
(1.01748 0.0557573 1.32005e-21)
(0.999466 0.00451321 3.49904e-22)
(0.999549 0.00451475 -2.36268e-21)
(0.999531 0.00432926 -2.54413e-21)
(1.00029 0.00542108 -4.71337e-21)
(1.00032 0.00523928 -4.40936e-21)
(1.16071 0.309604 1.19841e-20)
(1.16723 0.317234 -2.25469e-20)
(1.1718 0.306229 2.25054e-20)
(1.25287 -0.0967783 0)
(1.2545 -0.100325 0)
(1.24573 -0.101672 -3.20547e-20)
(-0.23191 0.00463649 4.10807e-20)
(1.09986 0.0215434 1.02936e-20)
(1.09922 0.0242444 8.77742e-21)
(1.22933 0.0152339 1.03516e-19)
(1.22898 0.0188963 5.18193e-21)
(1.22614 0.0173371 -8.84851e-21)
(1.03616 -0.00635054 6.02199e-21)
(1.03583 -0.0056883 1.08457e-21)
(1.01249 0.0112928 -6.83875e-23)
(1.01273 0.0109973 -5.04788e-23)
(1.01299 0.0114332 1.78124e-22)
(0.981736 0.0364995 -1.30714e-21)
(0.9826 0.035023 4.20728e-22)
(0.983272 0.0364169 6.87392e-21)
(0.144861 -0.00666864 4.60733e-20)
(0.129776 -0.00259706 1.14766e-20)
(1.34559 0.0725205 -3.41163e-20)
(1.32922 0.0670115 -2.973e-20)
(1.3118 0.0706042 -2.95734e-21)
(0.0603377 -0.0820053 -5.57769e-20)
(0.0801783 -0.101805 -9.52813e-20)
(0.0597503 -0.113951 1.18071e-21)
(1.106 -0.0986272 -1.89192e-20)
(1.10656 -0.0941695 -2.71478e-21)
(1.01405 0.0975757 0)
(1.01775 0.0994993 -3.11851e-23)
(1.05355 0.0169521 0)
(1.05212 0.0166346 -8.00482e-21)
(0.231498 0.789869 -6.55459e-21)
(0.180847 0.872231 1.16559e-21)
(0.297345 0.858371 -6.67333e-21)
(1.08374 0.0011601 3.56647e-21)
(1.08572 0.00126768 1.26849e-20)
(-0.00459866 -0.0283758 4.97844e-20)
(0.0166118 -0.0307852 -4.70699e-20)
(0.990863 0.0345992 -1.50323e-21)
(0.990051 0.0353281 1.65951e-21)
(0.991255 0.0357918 -7.39174e-21)
(-0.221006 0.00961569 1.22518e-19)
(-0.236695 0.0096011 4.19975e-20)
(-0.207436 0.0108807 2.25904e-20)
(0.95999 -0.221973 1.30943e-20)
(0.943002 -0.220118 -1.14293e-20)
(0.994976 -0.235284 1.4756e-20)
(1.15271 -0.0224437 -1.61068e-20)
(1.15579 -0.0242349 -1.17171e-20)
(1.00001 0.0283313 -1.86026e-21)
(0.999309 0.028686 0)
(0.999393 0.0277637 1.41368e-21)
(1.00597 0.000474762 1.12834e-22)
(1.00626 0.000479834 -1.6899e-22)
(1.00552 0.000251107 -3.25262e-22)
(1.09092 0.0784227 -8.31161e-21)
(1.0909 0.0748363 -2.80589e-20)
(1.16589 0.0932428 4.57186e-20)
(1.17 0.0918909 2.28342e-20)
(1.16961 0.0964173 2.36836e-20)
(0.285097 0.115534 6.52302e-20)
(0.368123 0.131863 8.39018e-20)
(1.13495 -0.00955635 -1.20278e-20)
(1.1351 -0.00673968 -5.82832e-21)
(1.00827 0.00624399 -8.81002e-24)
(1.00812 0.0064346 -1.78284e-22)
(1.00849 0.00657328 -2.48057e-23)
(1.01287 0.00993772 2.94324e-22)
(1.01246 0.0098617 5.29316e-23)
(1.01263 0.0095676 2.43788e-22)
(0.999982 0.000861247 0)
(0.999988 0.000700684 0)
(0.999975 0.00100112 -1.43901e-21)
(1.22971 0.0125179 4.52558e-20)
(1.23044 0.00982767 1.23414e-20)
(1.09456 0.257322 7.1081e-21)
(1.09656 0.263464 -1.02041e-20)
(1.08808 0.260962 -1.83216e-20)
(0.596325 -0.0285466 6.48809e-20)
(0.576276 -0.0334201 5.7248e-20)
(0.590233 -0.0488506 6.24865e-20)
(0.982961 0.0519745 2.23258e-21)
(0.983132 0.0540133 -5.44222e-21)
(0.984934 0.052629 1.11936e-20)
(0.168593 0.119758 -1.40948e-20)
(0.161322 0.108231 2.30712e-21)
(0.145344 0.133716 3.23331e-20)
(1.2188 -0.054708 3.27695e-20)
(1.21916 -0.0581458 -2.64209e-20)
(1.1791 -0.0336273 0)
(1.17662 -0.0360747 0)
(1.0378 0.0280669 6.99309e-22)
(1.03766 0.0270131 2.3355e-21)
(1.0389 0.0275861 -6.33716e-22)
(1.26931 -0.00367583 2.00909e-20)
(1.27956 -0.00253286 5.10619e-20)
(1.01666 0.0197489 7.0254e-22)
(1.01717 0.0194118 -5.08378e-22)
(0.996138 0.00945451 7.5275e-21)
(0.99579 0.00963944 1.78466e-21)
(0.996136 0.00994941 -4.84921e-21)
(1.05871 0.843404 -5.38191e-21)
(1.05575 0.797784 -8.30022e-21)
(1.10764 0.817478 -2.88792e-20)
(1.00858 0.000642127 -3.96539e-22)
(1.00886 0.000812801 -2.19692e-22)
(1.00864 0.000507104 5.87961e-23)
(1.00424 0.00766847 3.60954e-22)
(1.00402 0.00743937 -3.07263e-22)
(1.18268 -0.0282934 2.81206e-20)
(1.18054 -0.0304754 -1.02679e-20)
(1.18368 -0.032477 -7.92863e-21)
(1.00326 0.0159322 5.87377e-22)
(1.00307 0.0163144 -1.54252e-21)
(1.00353 0.0164925 0)
(-0.0236429 0.231512 5.67425e-21)
(-0.0170791 0.238749 0)
(-0.01658 0.231942 0)
(1.08375 -0.000665348 -1.92199e-21)
(1.08205 0.000948668 -7.32199e-21)
(0.928309 0.0167438 6.66898e-21)
(0.925667 0.0182776 -7.09276e-21)
(0.92615 0.0147587 -2.11936e-20)
(1.00823 0.000424858 3.38279e-22)
(1.00841 0.000860398 -1.56633e-22)
(1.12117 0.0889901 4.99764e-21)
(1.12565 0.089613 -1.36508e-21)
(-0.214025 -0.010004 5.53515e-20)
(-0.239417 -0.00767652 2.84157e-21)
(-0.231965 -0.00862647 -5.2399e-22)
(1.0502 -0.00846363 -2.32262e-21)
(1.01439 0.00448097 9.29692e-22)
(1.01432 0.00475431 9.25182e-22)
(0.989563 -0.000117855 -4.05438e-21)
(0.989055 0.000199137 -1.43126e-20)
(0.989662 0.000395071 -1.88737e-21)
(1.18545 -0.0670582 6.04918e-21)
(1.1848 -0.0637017 -1.5435e-20)
(1.18193 -0.066397 -1.84033e-20)
(0.148116 -0.0308986 6.66546e-21)
(0.144477 -0.0310906 -1.06303e-20)
(0.120904 -0.0259959 -1.30315e-20)
(1 0.000786286 0)
(0.999987 0.00112363 -1.26127e-21)
(1.00002 6.66131e-05 0)
(1.00001 4.08281e-05 8.10836e-22)
(1.00002 4.76244e-05 -5.54059e-22)
(1.02421 -0.228131 -2.18163e-20)
(1.01116 -0.223185 3.45444e-20)
(1.10827 0.135892 -8.27279e-21)
(1.11 0.13163 5.59431e-21)
(1.11309 0.135756 1.5796e-20)
(1.10354 -0.101365 -2.24969e-21)
(1.1006 -0.104454 2.12641e-20)
(1.10526 -0.104406 0)
(0.637124 0.389599 0)
(0.656332 0.409615 0)
(0.62385 0.414446 0)
(0.996154 0.0089583 3.00951e-21)
(0.996459 0.00927771 3.2523e-21)
(1.16299 0.0902097 -1.07719e-20)
(0.963852 0.0277915 1.22369e-21)
(0.965468 0.0287433 2.15136e-21)
(0.963694 0.0300817 -7.49299e-21)
(1.00003 9.06551e-05 -1.39925e-21)
(1.00005 9.42822e-05 0)
(0.653192 0.365325 1.39099e-20)
(0.622593 0.365866 3.70338e-20)
(1.15504 -0.170834 0)
(1.15211 -0.176309 1.74387e-20)
(1.12043 -0.227316 -3.45516e-20)
(1.12238 -0.22166 -1.97776e-20)
(1.11406 -0.222924 3.67192e-21)
(1.18625 -0.0696583 0)
(1.18896 -0.0671731 -1.74633e-20)
(1.01824 0.00104957 -2.42606e-22)
(1.01853 0.00108626 8.35144e-22)
(0.643967 -0.098075 -3.57852e-20)
(0.640912 -0.115437 4.67258e-20)
(1.04079 -0.00917138 -6.35887e-22)
(1.04008 -0.00858128 2.24897e-21)
(1.00358 0.0350798 0)
(1.00433 0.0341255 -4.56535e-22)
(1.35379 0.082831 1.04638e-20)
(1.34952 0.0782265 -4.06346e-22)
(1.00079 0.0217364 2.4226e-21)
(1.00023 0.0214594 7.24599e-22)
(1.00071 0.020952 2.39852e-21)
(1.2325 0.0138536 -1.05098e-20)
(0.933084 0.307132 3.8074e-21)
(0.926857 0.320809 1.08234e-20)
(1.00013 0.00566132 1.54529e-21)
(1.00003 0.00571368 2.14118e-21)
(1.01658 0.00328227 1.36277e-21)
(1.01653 0.00307021 5.11519e-23)
(1.01683 0.0031906 6.89403e-22)
(1.2288 0.0215872 -1.98944e-20)
(1.23146 0.0195204 -8.23343e-20)
(0.0771947 0.0465121 1.52873e-20)
(0.0305638 0.0430194 1.26797e-20)
(0.0954159 0.0253672 -1.7871e-20)
(-0.0280918 -0.0140978 3.53841e-23)
(-0.0110835 -0.0115847 -5.01607e-20)
(1.01901 0.0390182 5.9697e-22)
(1.0183 0.0400114 -9.646e-22)
(1.01793 0.0386532 -8.6667e-22)
(0.916869 0.091842 2.04643e-20)
(0.912949 0.087149 2.18094e-20)
(-0.0661748 -0.0036643 -2.3051e-20)
(-0.0918234 -0.000945004 8.62943e-21)
(1.02884 0.00135351 4.28394e-21)
(1.02923 0.00169488 1.90298e-21)
(1.02861 0.00174434 3.33018e-21)
(1.25314 -0.0941232 0)
(1.25128 -0.0924204 0)
(1.05405 -0.0286281 -3.19697e-22)
(1.05536 -0.0279168 8.45003e-21)
(1.05384 -0.0272821 7.0081e-21)
(0.966308 0.146518 0)
(0.960423 0.145341 -8.29522e-21)
(0.964382 0.140735 0)
(1.25117 -0.0888028 2.83058e-20)
(1.24566 -0.0924435 0)
(1.01809 0.00121574 -2.83481e-21)
(1.01795 0.000982825 -1.16779e-21)
(0.529048 0.771014 1.48335e-21)
(0.457197 0.75994 0)
(1.00222 0.0336553 5.32647e-22)
(1.00292 0.0329379 9.73182e-22)
(1.00195 0.0326152 1.29711e-23)
(0.907267 0.20091 7.36186e-21)
(0.916954 0.203791 -7.48079e-21)
(1.00121 0.000311343 4.72969e-22)
(1.00111 0.000251982 1.32885e-22)
(1.00111 0.000396882 1.22089e-21)
(1.10185 -0.0987023 -2.07754e-21)
(-0.227112 -0.00395359 4.74602e-21)
(-0.249173 -0.00324241 7.36422e-20)
(-0.227817 -0.00398588 3.8937e-20)
(0.999958 0.000220226 2.14898e-24)
(0.999951 0.000221529 -4.00743e-21)
(0.99993 0.000316313 1.53014e-21)
(0.0832062 0.0931874 -4.70167e-20)
(0.170069 0.118544 3.00758e-20)
(1.1129 0.0250639 -3.21801e-22)
(1.1136 0.0226089 1.32388e-20)
(1.11597 0.0248271 3.79895e-22)
(0.99535 0.00257667 0)
(0.995061 0.00250705 -2.82012e-24)
(0.995155 0.00285518 5.59681e-24)
(1.1397 0.0723072 -1.95898e-21)
(1.14152 0.0762499 -1.63165e-20)
(1.1483 -0.0334182 0)
(1.14475 -0.0341148 0)
(1.05846 -0.0648219 -3.08707e-20)
(1.03171 -0.0631336 -3.02942e-20)
(1.10672 -0.0642473 -9.42804e-21)
(0.293364 -0.0540118 0)
(0.320077 -0.0568007 0)
(0.338338 -0.0582097 8.92288e-21)
(1.12342 -0.0798046 4.38066e-20)
(1.14614 -0.0838167 2.84708e-20)
(0.991696 0.0340606 4.85187e-21)
(0.990592 0.0335901 3.38444e-21)
(1.01623 0.00869543 2.03743e-22)
(1.01587 0.00873895 1.15775e-21)
(0.105569 -0.0236375 8.49089e-21)
(0.0743624 -0.0188263 -8.34742e-21)
(0.0881493 -0.0234928 -1.45829e-20)
(0.704096 -0.0660639 0)
(0.690445 -0.0675313 0)
(0.701168 -0.0795552 -2.00587e-20)
(0.9998 0.00529913 -1.12973e-21)
(0.999847 0.00511288 1.00699e-21)
(0.999772 0.00513894 -5.22325e-21)
(1.01346 0.0524392 1.70035e-23)
(1.01375 0.0510897 2.00893e-25)
(1.01207 0.0513421 -1.19333e-22)
(1.12855 -0.231535 5.6251e-21)
(1.1195 -0.231862 -4.49495e-21)