/*--------------------------------*- C++ -*----------------------------------*\
| =========                 |                                                 |
| \\      /  F ield         | OpenFOAM: The Open Source CFD Toolbox           |
|  \\    /   O peration     | Version:  v2012                                 |
|   \\  /    A nd           | Website:  www.openfoam.com                      |
|    \\/     M anipulation  |                                                 |
\*---------------------------------------------------------------------------*/
FoamFile
{
    version     2.0;
    format      ascii;
    class       surfaceScalarField;
    location    "350";
    object      meshPhi;
}
// * * * * * * * * * * * * * * * * * * * * * * * * * * * * * * * * * * * * * //

dimensions      [0 3 -1 0 0 0 0];
oriented        oriented;


internalField   nonuniform List<scalar> 
27882
(
2.34759e-05
5.50236e-05
-7.78868e-05
-1.26325e-05
6.31406e-05
-5.02237e-05
-6.06917e-06
1.55384e-06
7.03234e-06
8.07866e-05
-5.66631e-05
-0.000205365
1.15251e-05
0.00019469
-1.09403e-06
1.35671e-06
-1.92094e-08
-0.00018582
0.000172681
1.64845e-05
-0.000197
7.77073e-05
0.000120072
-1.2992e-05
-0.00019155
0.000177779
-9.55141e-06
-0.000167457
4.6328e-05
1.21204e-05
-5.8131e-05
-8.02368e-06
0.00013056
-0.000122398
7.61569e-05
-0.000219216
0.000143534
8.38051e-06
0.000150887
-0.000158543
-0.000210321
4.82093e-05
0.000166809
3.25984e-05
-0.000102001
7.46306e-05
-0.000129265
0.000121367
5.28272e-07
-5.28272e-07
-7.49268e-05
-0.000131377
-0.000228752
0.000195506
3.41049e-05
1.76158e-06
0.000140161
-0.000141555
8.05435e-05
-1.81624e-05
-6.23753e-05
-9.62208e-07
1.6086e-07
-2.13261e-06
1.213e-07
2.48929e-06
3.56239e-05
4.49243e-05
1.735e-05
-8.32995e-05
6.59607e-05
-0.000124135
0.000196739
-7.2611e-05
-2.59168e-05
-8.27418e-05
0.00010872
-3.61537e-05
0.00010858
-7.23724e-05
-2.93545e-06
5.12062e-05
-4.80755e-05
-9.7923e-05
-6.12351e-05
0.000159176
-0.000200401
7.62948e-05
-4.73486e-05
-0.000148844
-6.32418e-05
-1.36549e-06
6.46118e-05
-0.000201615
6.5893e-05
0.000136393
-6.11823e-05
5.84918e-05
-0.000109564
0.000186137
-0.000189247
0.000199826
-0.000169518
-3.03074e-05
3.15572e-06
1.34609e-06
-4.39256e-06
5.70298e-06
-5.34494e-05
4.77374e-05
-0.000208683
0.000180363
2.90877e-05
-7.4422e-06
5.38474e-05
-4.62416e-05
-1.52819e-05
-9.60875e-05
0.000112558
-3.30692e-06
-2.99019e-05
4.06696e-05
9.98118e-06
-0.000148177
0.00013823
-6.60368e-05
-0.000141917
5.29492e-05
-0.000120052
6.71615e-05
-6.4282e-05
5.07876e-05
1.34947e-05
2.20007e-05
5.37214e-05
-7.5115e-05
-1.22152e-05
5.88489e-05
9.84724e-05
-1.78267e-05
-8.06417e-05
7.69049e-05
-5.42768e-05
1.67256e-05
-0.000165032
0.000149167
-7.50939e-05
3.4941e-06
7.16125e-05
-4.28682e-05
-0.000175824
-2.20995e-05
-3.32609e-05
5.62505e-05
-0.00018006
-4.77668e-05
5.16865e-05
7.18042e-05
-0.000123423
4.45745e-05
-6.56712e-05
-2.20914e-05
3.69096e-05
-8.84592e-06
9.66459e-05
-0.000110718
-0.000230415
9.85581e-05
0.000136586
-9.40386e-05
-4.25291e-05
-2.66747e-05
1.18014e-05
-8.20268e-06
-4.35569e-05
5.17616e-05
2.96017e-05
-1.44467e-05
-1.03838e-05
9.23509e-07
-1.64641e-05
1.60711e-05
-0.000113399
8.75494e-05
5.10472e-08
5.09809e-07
6.27971e-05
3.56805e-05
9.70949e-05
-8.43241e-05
-1.27601e-05
-0.000207782
7.59398e-05
0.000135074
0.000187353
-5.90674e-05
-0.000127877
0.000115772
4.72667e-05
-0.000162851
-0.00016493
6.70211e-05
0.000180667
-0.000153387
-2.72415e-05
-0.000109302
0.000125435
-1.60318e-05
0.000165484
4.5778e-05
-5.30505e-05
-5.65107e-05
-3.42181e-05
9.07586e-05
0.000153663
4.61724e-05
4.81274e-06
-0.000113993
-0.000170334
9.90047e-05
7.15575e-05
1.54012e-05
-0.000112733
9.83728e-05
-5.74513e-05
9.71774e-05
-3.97089e-05
7.04626e-05
-0.000161082
0.000164222
2.35991e-05
-0.000143219
-8.71747e-05
2.66058e-05
-8.40401e-05
-0.000111403
4.70872e-05
6.43164e-05
-2.1891e-05
1.62408e-06
2.82283e-05
-9.64089e-05
-3.68004e-06
0.000100131
-5.23718e-05
-1.19103e-05
-0.000151059
-5.31553e-05
-5.05775e-05
7.61059e-05
-2.19756e-05
3.08026e-06
-2.93642e-06
-6.10162e-08
-7.71061e-05
-3.90736e-05
0.000116258
-1.80145e-05
-0.000113162
0.00013125
0.000192901
-1.76229e-05
-0.000172177
0.000113076
-0.000103069
4.00039e-05
0.000107131
-0.000146725
-1.50367e-05
1.64939e-05
2.6939e-05
-7.37401e-05
4.73164e-05
-5.55168e-05
0.000111364
-0.00010932
-5.60908e-05
0.000109093
-2.83962e-05
-8.30062e-05
0.000210629
-8.01657e-05
-0.00013034
-4.0364e-05
0.000183651
-0.000142933
0.000117818
-3.68707e-05
-7.51025e-05
0.00011205
2.45517e-05
0.000160765
3.50071e-06
-0.000163212
7.9193e-06
6.2515e-06
-1.10683e-05
0.000149707
-0.00010928
-8.4758e-05
0.000136942
-5.21436e-05
5.91579e-05
-0.000136172
-1.0944e-05
5.64407e-05
-4.45232e-05
-0.000136595
9.32564e-05
4.33696e-05
-0.000105178
-1.62979e-05
0.000122478
-1.69793e-06
-1.42328e-05
1.9675e-05
6.69548e-05
0.000113753
0.000114481
-9.80303e-05
-5.67431e-05
8.16955e-05
-2.32954e-05
3.77599e-05
-5.58285e-05
1.80684e-05
0.000160798
-0.000143257
1.13786e-05
9.54335e-05
-0.000105482
2.05594e-05
-7.57696e-05
0.000125463
-8.68541e-05
-3.85734e-05
5.22257e-05
-4.3753e-05
-6.83014e-05
3.74466e-06
-1.58352e-05
1.82972e-05
-8.50963e-05
-7.10181e-05
0.000156433
7.33215e-05
-2.15863e-05
-5.17333e-05
3.64763e-06
-4.29924e-07
-1.69996e-05
-2.71966e-08
2.07852e-05
0.000151294
-0.000180635
2.93107e-05
-8.45214e-05
0.000126444
-4.0701e-05
-8.56237e-05
0.000128709
-4.30383e-05
5.53023e-05
-0.000111778
-2.82897e-05
0.000190117
-1.67301e-05
9.59719e-05
-7.90774e-05
-8.39989e-05
-3.59108e-05
0.000120007
3.54366e-05
0.000175261
5.44902e-05
-1.67304e-05
-6.6917e-05
-3.89773e-05
0.000105957
2.90037e-06
4.44178e-05
0.000127038
-5.42027e-05
-7.27985e-05
6.06761e-05
-4.82347e-05
0.000128401
-5.22516e-05
-7.61364e-05
-5.12211e-05
1.07891e-05
4.04318e-05
-4.66006e-05
4.94399e-05
-2.83921e-06
-0.000192497
0.000112996
8.07858e-05
8.40202e-05
-0.00020808
0.000124909
4.33787e-05
-3.76777e-05
-3.23038e-05
-0.000126835
1.4612e-05
-0.000110975
9.1695e-05
3.3797e-05
-0.00011122
0.000173921
-6.24177e-05
4.83229e-05
-7.46702e-05
-3.43258e-05
0.000108994
-7.28904e-05
8.57986e-05
-1.15672e-05
-3.63017e-05
5.62987e-05
-1.99968e-05
5.43142e-05
-5.14117e-05
3.82251e-05
-0.000158283
0.000120107
1.46081e-05
-6.05325e-05
4.67991e-05
7.42614e-06
-7.89964e-05
3.3135e-05
6.50862e-05
-9.82202e-05
4.08572e-05
1.13684e-05
-2.46352e-05
-0.000111487
0.000136088
-3.24552e-05
-1.32675e-05
4.57228e-05
-3.44439e-07
-3.78752e-06
-6.42176e-05
-4.4405e-05
0.000108667
-8.87679e-07
8.87679e-07
-0.000215797
0.00013576
-0.000152581
4.10823e-05
0.000113693
-0.000171465
2.37626e-05
-8.55103e-05
2.023e-05
6.52915e-05
1.07327e-05
-7.39693e-05
9.30551e-05
-0.00019837
4.16747e-07
1.43241e-05
-1.41754e-05
0.000190138
-0.000162968
-2.64414e-05
-8.83626e-05
1.32836e-05
-0.00016038
0.000141314
6.45345e-05
-0.000128472
6.39469e-05
-6.38425e-05
-7.28319e-05
0.000139978
-1.79492e-05
6.93628e-05
-7.28765e-05
-9.97e-05
0.000173083
-3.73249e-05
-1.50464e-05
-0.000142128
0.000169984
-2.77857e-05
-4.88118e-06
-4.17195e-05
9.74752e-05
-0.000157472
-0.000177032
5.00286e-05
0.000127124
-0.000186072
0.000156451
2.97102e-05
3.00458e-06
-9.80508e-06
7.26207e-06
0.0001323
3.198e-05
-0.000163562
-8.06412e-05
0.000127154
-4.64701e-05
-5.27753e-05
-0.000137926
-5.73616e-05
2.00374e-05
-2.27335e-06
5.26769e-06
-2.11224e-06
8.92644e-05
-8.02896e-05
-8.09338e-06
5.06869e-05
4.10275e-05
0.000165107
-0.0001662
1.2159e-06
8.96252e-05
-1.92026e-05
-6.47332e-05
4.22991e-05
8.10777e-05
-5.43562e-05
1.80549e-05
-0.000162102
5.3578e-05
0.000110453
0.000150544
4.42338e-05
-2.92102e-05
-1.13647e-07
-2.43165e-06
3.5906e-06
-0.000120189
2.34975e-05
9.67349e-05
1.20868e-05
7.8073e-05
0.000165445
-3.66179e-05
-0.000127542
-0.000194143
5.18799e-05
0.000143079
2.8843e-06
2.77404e-07
5.19259e-05
-2.35394e-05
-2.0193e-05
-0.00010553
1.42285e-06
1.79186e-07
6.39917e-05
-1.6354e-05
-4.75014e-05
-0.000146474
-3.94872e-05
9.55799e-05
-8.4246e-05
-1.01306e-05
4.97365e-05
-0.000133628
9.43295e-05
-4.36199e-05
0.000148195
1.70338e-05
6.54243e-06
-2.07176e-07
-6.26951e-06
-5.48924e-05
0.00017086
-8.32457e-05
1.8502e-05
6.47586e-05
-0.000100434
2.5763e-05
-6.36355e-05
-9.64638e-05
7.46657e-05
-5.73053e-05
5.61486e-05
-0.000122993
-8.40803e-05
-0.000131588
-1.71001e-05
4.03462e-06
2.71008e-05
-8.09073e-05
5.85182e-05
7.94017e-05
1.73637e-05
-0.000171091
5.36947e-05
0.000117531
-5.81773e-05
4.49862e-05
1.31912e-05
-7.9873e-05
0.000120531
-4.06207e-05
0.000113262
8.85527e-05
-0.000200734
-0.000139541
8.26243e-05
6.27887e-05
-0.000113279
-5.76643e-05
0.000126169
-7.76437e-05
-4.84674e-05
-4.02098e-06
5.3673e-06
2.28663e-07
7.32658e-05
5.51526e-05
-3.52615e-05
0.000109453
-7.41658e-05
4.85805e-05
4.58907e-05
-8.93704e-05
-6.30416e-05
8.53189e-05
-1.89395e-05
6.79269e-05
-1.67447e-05
-5.03926e-05
6.53162e-05
0.000130058
-4.57968e-05
1.33417e-05
-2.3061e-05
0.000116242
-9.18477e-05
-2.8471e-06
2.09761e-07
2.66218e-06
9.50284e-05
-1.45248e-05
-2.31934e-07
6.27901e-07
-2.3888e-07
7.92948e-05
-0.000121507
4.22411e-05
4.29098e-05
1.58416e-05
-5.78809e-05
3.27925e-05
6.43122e-05
3.68243e-05
-4.37826e-05
1.38414e-05
-1.39478e-05
-0.000178286
-0.000140769
0.000145184
7.06927e-05
1.25986e-05
7.96933e-05
-2.68226e-05
-0.000120146
-5.67545e-05
5.87756e-05
-0.000131643
7.28996e-05
0.000140034
-8.12242e-05
7.77114e-05
-5.55633e-06
4.05913e-05
0.000136256
-2.19954e-05
-0.000161638
-7.92507e-06
0.000171158
0.000115829
2.04536e-05
-0.000136256
5.76879e-05
-7.95289e-05
2.18455e-05
1.05732e-05
-0.000170568
-0.000150515
6.53371e-05
8.71373e-05
-8.31671e-06
6.79655e-06
1.6111e-06
-5.0164e-05
-0.000143143
9.90036e-05
-0.000175741
7.70557e-05
-1.03244e-08
1.62152e-06
4.51997e-05
0.00012142
-0.000119971
0.000128937
-7.68482e-05
1.72178e-05
-1.44547e-05
1.96746e-05
3.88601e-07
9.3591e-05
3.01692e-05
-0.000118109
-9.61681e-06
-5.06612e-05
6.028e-05
-0.00013385
-4.74714e-05
-0.000101055
9.13022e-07
2.7398e-07
-1.12517e-06
4.6245e-05
-0.000123838
-8.88135e-05
3.2795e-05
5.91949e-05
-5.82937e-05
6.02421e-08
-2.65335e-06
-0.000173428
5.48049e-05
0.000119402
-5.72048e-05
2.46994e-05
8.96065e-07
-5.60318e-06
6.1228e-06
5.63378e-07
-3.08717e-06
3.86098e-06
-7.14368e-05
6.14148e-05
1.08242e-05
9.59888e-07
5.60753e-06
1.88602e-06
-1.58093e-05
4.89402e-07
-2.07755e-06
6.31482e-05
-2.36194e-05
-3.95292e-05
0.000170326
-1.26121e-05
-0.00015731
2.76515e-06
1.0488e-05
-1.09039e-05
-8.96476e-06
1.40653e-05
-0.000205422
0.000104534
0.000100874
4.47707e-05
9.61839e-06
-5.40888e-05
-8.20658e-06
8.97987e-06
0.000139176
-0.000125813
-1.26704e-05
-5.16332e-05
0.000163259
0.000120282
-2.2391e-05
-0.000192155
0.000149745
-2.08938e-05
0.000119791
-8.52434e-05
-6.0994e-05
0.000146264
4.8111e-05
-0.000160643
4.52301e-05
0.000115492
-9.62415e-05
6.01297e-05
5.49055e-05
-5.6267e-05
-6.20114e-07
1.52537e-05
-1.41727e-05
4.96138e-05
9.27167e-05
-0.000142347
-5.47159e-05
-4.71912e-05
0.000101932
3.06051e-05
-1.36468e-05
-1.19848e-05
-0.000106251
-5.42999e-05
8.36548e-05
-0.000194584
-0.000122176
6.99395e-05
-0.000106978
3.38571e-05
7.72711e-05
-1.5205e-05
2.34839e-05
1.3164e-07
-3.37535e-06
-0.000117899
8.37678e-05
3.65662e-05
3.88395e-05
-5.58232e-05
1.69836e-05
0.000168846
-5.63158e-05
-0.00011238
-2.94368e-05
-0.000136287
0.000166585
8.09135e-05
-3.16578e-05
-4.92542e-05
-2.27538e-05
-7.99155e-05
5.83505e-05
-1.34508e-05
5.629e-05
1.46829e-05
-4.49421e-06
-0.000179413
5.29224e-06
0.000175147
0.000106624
-4.54917e-05
-6.03915e-05
0.00017423
-9.58186e-05
-0.000158703
5.10172e-05
0.000109521
2.04826e-05
-0.000198737
-0.000210424
5.36368e-05
0.000157748
-0.00011702
-3.57013e-06
-7.51312e-05
-0.000130265
-0.000123719
4.01327e-05
0.000154137
0.000105126
-0.000123072
-6.23927e-05
-5.3613e-05
0.000132409
-4.23659e-05
-8.99134e-05
-9.94555e-06
5.50016e-05
1.59714e-05
4.9197e-05
-6.51642e-05
-4.7337e-06
8.4542e-05
-7.96886e-05
7.6906e-05
3.54486e-05
-0.000112314
0.000100423
-0.000169166
5.44752e-05
-4.19217e-05
-1.25535e-05
0.0001752
2.7802e-06
-0.000178009
-0.0001873
5.5567e-05
0.00013222
-3.36136e-05
-0.000175756
0.000136825
-0.000165394
6.72172e-05
0.000116275
-0.000182197
-0.000109147
1.42918e-05
4.73196e-05
0.000179315
-2.2769e-05
-9.0468e-07
7.50851e-05
-7.40506e-05
-6.50654e-05
-0.000101143
0.00016637
0.000178011
1.3742e-06
7.70556e-05
-0.000101079
0.000137871
-3.6533e-05
0.00016837
2.24195e-05
-5.89903e-05
0.000118227
-7.38932e-06
-0.000133253
4.85356e-05
-0.000214549
0.000130621
8.00604e-05
7.87012e-05
-0.000158667
-6.4064e-05
1.07089e-05
0.000118972
-4.20231e-05
-2.29263e-07
1.19492e-07
8.22982e-05
-3.07117e-05
-5.1584e-05
4.02159e-05
4.5962e-05
1.03675e-05
-5.60201e-05
-7.1774e-05
7.0996e-05
2.04456e-05
1.37249e-05
2.10282e-06
-1.56861e-06
5.05277e-05
-6.86853e-05
7.04609e-05
0.000126386
-2.6901e-05
-9.9264e-05
1.96763e-05
9.61782e-05
-1.69891e-05
0.000167822
0.000105913
-0.00017702
0.000137007
-7.33449e-05
0.00011123
5.34427e-06
0.000111767
-0.000116618
5.92549e-05
-0.000207164
0.000148812
-1.27267e-05
-9.31361e-05
0.000106808
1.49961e-05
-1.33579e-05
-6.629e-05
0.000134497
-0.000157782
6.38053e-06
0.000154908
7.67852e-07
-1.00538e-05
7.43228e-07
-3.92011e-06
4.79742e-06
-5.81071e-05
1.59247e-05
4.28628e-05
-6.91818e-05
-9.65868e-05
0.000166091
0.000185932
-5.85098e-05
-0.000127451
9.62461e-05
5.17489e-05
-0.000147799
-0.000182435
8.13606e-05
0.000101058
-0.000118288
-6.41557e-05
6.31804e-06
4.2309e-05
-4.86273e-05
1.5669e-05
-0.000114166
5.14521e-05
6.27513e-05
-5.58046e-05
-1.48739e-05
-1.26379e-06
2.44951e-06
-7.89017e-07
3.53893e-06
5.04398e-05
0.000151236
-0.000145255
7.269e-05
0.000122516
-0.000194138
2.53367e-05
-0.000179661
6.31145e-05
-0.000122022
-2.74312e-05
-0.000143937
0.000171784
-4.09907e-05
5.76815e-05
1.49648e-05
-0.000131997
-2.61306e-05
2.88202e-05
5.33997e-05
0.000117239
2.83826e-07
9.30103e-06
-9.20915e-06
4.1983e-05
1.54066e-05
-5.73888e-05
5.48132e-05
6.79623e-05
4.87469e-06
-2.95431e-06
4.83945e-05
3.25204e-05
9.4561e-05
1.73102e-05
-0.000111828
-1.70583e-05
-2.77021e-05
5.3445e-05
9.45128e-05
-0.000106275
-2.22667e-06
6.39606e-07
2.30438e-06
-9.49388e-05
-0.00011955
-2.65497e-06
7.71928e-07
3.02158e-06
-5.34929e-06
7.71278e-06
-0.000107855
0.000146126
0.0001237
-2.72874e-05
0.00016214
-3.0182e-05
-0.0001381
4.85851e-05
0.000129542
-0.000177401
0.000163592
-0.00018401
2.08964e-05
0.000107857
-4.39475e-06
-0.000103459
0.000189934
-0.000176113
-1.35278e-05
-1.26814e-08
-1.41686e-07
4.16585e-07
3.87436e-05
-9.2093e-06
9.90309e-06
5.48916e-05
5.24729e-05
-7.61789e-05
-0.000100691
7.11197e-05
3.56537e-05
0.000112029
-0.000173243
4.19432e-07
-1.8007e-07
4.25128e-06
0.000159758
-3.75283e-07
7.90726e-06
-5.17242e-06
-8.5461e-05
-4.77491e-05
-7.3899e-05
2.78152e-05
4.66957e-05
-1.25896e-05
-0.000142243
-5.58864e-05
4.363e-05
1.22564e-05
5.501e-05
-4.50905e-05
-1.01754e-06
9.01074e-07
1.6586e-07
3.6356e-05
-0.00013719
-0.000206948
8.07275e-05
0.000127364
6.94038e-05
2.56793e-05
-4.76943e-06
1.13023e-05
-4.69061e-06
3.2019e-06
-2.30483e-05
2.71255e-05
0.000155942
-5.26144e-05
-0.000103276
2.91995e-05
4.96445e-05
-7.88449e-05
0.000160195
-0.000177634
1.872e-05
4.74017e-06
9.99521e-05
-0.000104546
0.000121133
5.6901e-05
-1.96523e-05
-6.58476e-05
5.09175e-05
1.81086e-05
-6.90498e-05
-0.000113974
7.87413e-05
6.72866e-05
-1.64391e-05
7.32717e-06
4.18334e-05
-4.82519e-05
-4.92248e-05
-6.49019e-05
5.57072e-05
-0.000128245
0.000165015
-3.64088e-05
0.000127008
-0.000173634
1.37091e-05
5.03792e-05
-9.5945e-05
-3.3905e-05
0.000130419
-0.000165283
0.000137928
2.40649e-06
-1.21212e-05
1.18059e-05
5.1102e-05
0.000123872
-4.26646e-05
9.18525e-05
-4.60217e-05
-3.12557e-05
-6.29744e-05
-7.02163e-05
3.0237e-05
-6.52863e-05
4.4594e-05
0.000144181
4.32799e-05
-0.000187034
-7.18028e-06
9.74438e-06
2.05565e-07
3.86233e-06
6.27763e-06
-9.6787e-06
7.0201e-05
3.18431e-05
-0.000102005
2.40679e-05
-1.39687e-05
-5.31766e-06
1.32682e-06
5.73509e-06
4.13666e-06
-5.12009e-06
1.05971e-06
-9.84279e-05
-0.000107737
-0.000127944
3.25349e-05
0.000165539
-2.50259e-05
-0.000103337
-5.79157e-05
4.60056e-05
2.17919e-07
-1.93147e-07
4.03699e-08
7.06554e-05
-0.000138481
6.80097e-05
-1.28833e-06
-6.86509e-05
6.99571e-05
6.50674e-05
-5.28966e-06
-5.97789e-05
-5.76258e-05
0.000137769
3.54679e-05
2.41625e-05
-3.78139e-05
0.000141709
6.18793e-05
-3.26805e-05
4.16649e-05
1.48842e-05
5.21385e-05
-6.66005e-05
-1.44561e-05
5.99026e-05
-0.000223119
8.36344e-05
0.000139782
4.46992e-05
-7.37148e-08
2.82917e-07
-2.12246e-08
3.76756e-05
6.47593e-05
-0.000102434
0.00021076
-0.000158021
-4.45072e-05
9.98407e-05
-6.70942e-05
8.25044e-05
-7.86994e-06
0.000103264
-9.90987e-05
0.000103984
2.04735e-05
6.81796e-05
0.00015898
-0.000126061
-3.04138e-05
5.97661e-06
-2.09256e-05
2.33837e-05
-2.63676e-08
-7.48216e-07
1.09435e-06
-0.000163445
0.000101895
-3.21101e-05
9.95371e-06
9.95169e-05
2.30018e-05
-0.000122473
1.15153e-05
3.4522e-07
-1.12988e-05
0.000156421
-0.000183409
-5.65847e-05
0.000177736
-7.23024e-08
1.00194e-06
1.20075e-05
2.56448e-08
1.18369e-07
-4.79014e-06
1.43592e-05
0.000135919
-0.00014995
1.79162e-05
0.00013212
-0.000149556
0.000185017
5.13876e-06
-0.000155039
0.000139824
-0.000122095
-1.99899e-05
0.000107644
6.61423e-05
-0.000173485
3.89117e-05
-0.000166837
-9.73307e-05
9.42183e-05
4.33682e-06
-1.31738e-05
-4.42646e-05
1.28704e-05
-0.000180732
2.6977e-05
0.000154868
-1.27462e-05
-0.000166779
-8.2321e-06
5.65168e-05
-4.82851e-05
0.000103584
-3.9043e-05
-5.91962e-05
-1.42196e-05
-9.59933e-05
-4.63952e-05
-0.000126215
-5.97775e-05
9.29131e-05
-2.18473e-06
1.19176e-05
2.9533e-06
-3.09931e-08
-2.37372e-05
-3.42038e-05
-4.41169e-06
8.65317e-06
0.000127654
-9.72254e-05
-2.86154e-05
-1.21201e-05
-8.37869e-05
0.000188053
-0.000159536
-2.76573e-05
-2.72086e-05
0.000120024
-4.8156e-05
8.70302e-06
-0.000160924
3.25637e-06
4.42024e-07
9.45353e-05
5.7081e-05
-0.000151507
8.09716e-05
-1.59058e-05
2.83217e-05
0.000135308
-0.000162672
0.000102685
-9.00609e-05
-5.10276e-05
-0.000107155
0.000160651
-5.55828e-07
-3.11436e-06
0.000134566
-0.000158524
2.75297e-05
2.22349e-05
2.36703e-05
0.000150651
-0.000173832
1.38346e-05
-5.79252e-05
4.43604e-05
6.6732e-05
0.000102154
-0.00016812
0.000158463
2.78768e-05
-0.000186137
9.74316e-05
-0.000146144
9.09097e-05
4.16178e-05
-1.24376e-05
4.41803e-06
-1.54282e-06
-2.1549e-06
-4.82769e-05
0.000104486
1.55199e-06
-1.46893e-06
1.07861e-06
-8.01499e-07
0.000191216
-0.000158136
-3.30825e-05
9.21501e-06
-5.18015e-06
0.000170412
-3.75002e-05
-0.000154677
8.97634e-05
-2.47385e-06
1.23198e-05
-7.71479e-06
0.000153734
-4.27622e-05
-0.000107419
-1.53779e-05
-5.01397e-05
4.01051e-05
3.91179e-05
0.000148196
-0.00018691
-9.75294e-06
5.09899e-05
-4.09207e-05
1.32738e-06
-5.42378e-06
5.4047e-06
6.52682e-06
-4.76297e-06
-0.000103347
-6.67765e-05
-0.000173899
4.40407e-05
0.000130499
-0.000117069
0.000135433
-3.85368e-05
-0.00011179
0.000172648
-1.40592e-05
-5.01633e-05
-2.00863e-05
-8.35902e-05
6.29666e-05
2.36669e-05
2.41938e-05
3.8954e-05
-1.39551e-06
8.57511e-06
-6.76132e-06
3.20424e-06
-2.26521e-06
0.000135566
1.37195e-05
-0.000146581
1.60552e-05
5.18173e-05
-6.73437e-05
0.000122217
4.78385e-05
-5.32748e-05
-9.00599e-05
0.000143434
8.12138e-05
-9.45344e-05
1.43277e-05
-0.000127724
9.91399e-05
0.000112149
-0.000140172
2.80112e-05
-4.0929e-05
-0.00018187
-6.75783e-05
8.78277e-05
-1.45962e-05
0.000125059
1.47865e-05
-0.000176289
6.98732e-05
0.000106799
-1.09001e-05
-0.000151307
6.64602e-05
-2.54949e-05
-0.000138576
0.00016482
0.000133702
-3.94967e-05
-9.17561e-05
-6.88328e-05
8.55541e-05
5.37728e-05
6.99756e-05
-0.000123665
-4.55836e-06
7.14102e-06
4.17515e-05
9.42054e-05
7.8674e-06
-9.69006e-06
0.000112553
-7.19298e-05
-3.79218e-05
0.000156702
-0.00013487
-2.15128e-05
0.000207485
-0.000173895
-3.32541e-05
6.84904e-08
-2.89982e-06
2.71598e-05
0.000138204
-0.000162948
-0.000228722
0.000159134
7.07004e-05
-9.22566e-06
0.00014736
-6.50721e-05
1.82475e-05
5.01642e-05
-1.58874e-05
0.000172676
6.65033e-05
5.57882e-06
6.38604e-05
7.15873e-05
-0.000135338
2.76978e-05
2.17421e-05
-4.26351e-05
3.44027e-05
-6.06886e-08
-1.42165e-06
5.59028e-07
2.02601e-07
-4.86662e-07
0.000182909
6.82187e-05
2.19344e-06
-7.03163e-05
-7.26441e-06
6.27384e-06
-5.16443e-05
4.19737e-05
0.000161585
1.73679e-05
-0.000176769
-1.0055e-05
-0.000136638
5.70911e-05
7.97127e-05
-2.94341e-05
1.88884e-05
0.000148507
0.000106805
1.46406e-05
3.90047e-05
4.16887e-05
-7.74861e-05
1.23413e-05
-0.000104486
3.16889e-05
6.10744e-05
-0.000109288
0.00011234
-0.000128156
1.58804e-05
0.000128217
-0.000163552
8.18881e-05
-4.89173e-05
-8.76424e-05
5.42836e-07
2.503e-06
0.000113732
-2.17162e-05
0.000121256
3.62723e-06
0.000159844
-9.8142e-05
-1.24674e-05
0.000111564
8.08484e-05
-8.84958e-05
-9.21395e-05
-8.52793e-07
-2.32607e-08
2.43293e-05
-4.11853e-05
-0.000132033
-0.000173558
-2.68106e-05
1.18921e-05
-1.26378e-05
1.40337e-06
7.40919e-05
-5.31568e-05
-2.09325e-05
-4.21321e-05
4.84498e-05
-4.64258e-05
-0.00014038
1.77505e-05
7.8362e-05
3.70734e-05
-0.000148529
-3.59002e-05
-0.000139934
-0.000125403
0.000159187
-3.35454e-05
-0.000200289
5.93299e-05
0.000141091
0.00011164
-9.81766e-05
-1.34534e-05
0.000190248
-0.000146416
-4.19559e-05
-0.000102719
-2.47674e-05
0.000127501
-3.01119e-06
1.48083e-06
-5.84323e-05
0.000122392
4.4403e-05
2.99978e-06
-1.26383e-05
1.17911e-05
-0.000153934
2.46888e-05
0.000129443
-0.000117897
0.000183696
-0.00021982
0.000118004
0.000102287
0.000164089
2.47625e-05
9.69765e-06
-0.000186932
0.000154246
-1.18045e-05
0.000122588
-0.000194918
-2.64011e-05
-0.000113668
0.000140209
-0.000122565
3.02683e-05
9.38894e-05
8.80637e-05
-0.000146927
0.000159129
-0.000165482
-0.000156549
9.28898e-05
6.38907e-05
1.10076e-05
-9.8959e-06
-5.55996e-07
2.2906e-06
-3.07001e-06
7.82987e-07
0.000139491
-0.00010373
6.27818e-05
5.17607e-05
-5.51939e-05
-1.69582e-05
-4.7437e-05
6.77689e-05
0.000162627
1.4036e-06
6.83507e-05
-6.96106e-05
9.09196e-05
-2.95631e-05
9.42042e-05
-0.00013964
1.67049e-05
0.000126115
0.00018478
-1.9989e-05
-0.000163195
0.000156699
-6.67863e-05
-8.97768e-05
0.000175819
5.03717e-06
-0.000179021
6.83485e-05
3.37574e-09
0.000155812
-2.89666e-06
-0.000152527
3.15026e-05
7.54649e-06
0.000158354
-0.000165135
-0.000117866
-3.53489e-05
0.000154689
-7.69971e-06
-1.6903e-06
-3.53467e-05
1.52454e-06
9.96566e-06
-7.69766e-05
3.96343e-05
0.000160522
3.84529e-05
-8.54079e-05
4.69559e-05
2.59369e-06
2.42591e-06
-0.000163619
2.82173e-05
-0.000114555
-0.000104785
-7.4148e-05
0.000125183
-5.104e-05
0.000144588
1.13655e-05
-0.000155556
-0.000174542
3.10569e-05
6.55828e-05
-2.90222e-05
-3.65502e-05
1.02013e-06
-1.04954e-06
6.03924e-07
-7.15465e-05
7.31049e-05
5.69029e-06
1.97431e-05
-2.33802e-05
-9.72263e-05
-0.000102938
1.44184e-05
0.000162999
-8.09057e-05
-8.362e-05
0.000165497
-5.11674e-05
7.41035e-05
-2.29333e-05
7.11283e-06
-7.87847e-05
-9.0936e-05
-0.00018333
6.30765e-05
0.000121556
0.000176307
-7.76894e-05
1.47925e-05
6.46901e-05
-5.84163e-06
-0.000130202
4.67006e-05
-6.29263e-05
2.76094e-05
-6.08035e-05
3.31939e-05
-8.90213e-05
8.46439e-06
8.16298e-05
-6.1379e-05
-1.44992e-05
2.60652e-05
-1.83761e-05
0.000133531
-2.56723e-05
-0.000146293
9.313e-05
-2.48804e-05
-0.000136691
0.000162218
1.9926e-05
-6.69218e-05
4.98465e-05
0.000120114
1.91268e-05
-0.000138565
7.67375e-05
-0.000156677
0.000197209
0.000122568
1.23514e-05
-7.67252e-05
1.49986e-05
0.000121422
-0.00020076
5.26712e-05
0.000148255
-5.28246e-06
-2.94405e-06
-9.76498e-06
-6.90279e-05
7.91909e-05
0.000180162
-0.000126495
-5.1001e-05
-0.000183754
0.000113091
-5.50684e-05
-1.56315e-05
-9.59454e-06
-4.16112e-05
5.20364e-05
-0.000113234
0.00014985
0.000162942
-2.36203e-06
0.000116966
9.05191e-05
-2.41024e-05
-5.96391e-05
6.97424e-05
-1.72113e-05
-5.25292e-05
-2.9446e-06
-2.03884e-05
2.87212e-05
0.000143564
-0.000128401
0.00018678
-0.000143077
7.07467e-05
-0.000129072
4.55738e-07
-1.35413e-06
2.38519e-05
-0.000140339
-6.63253e-05
4.54943e-05
2.09294e-05
0.000132356
-1.16504e-05
-0.000165895
4.07462e-05
7.53322e-05
-7.76212e-05
6.27232e-06
7.43247e-05
9.53892e-05
-0.000167061
-0.000148916
9.02393e-05
4.36692e-05
-3.07698e-05
7.55639e-05
-8.55719e-05
-2.2223e-06
3.40031e-05
-0.000120742
9.18516e-05
-0.000199685
6.55194e-05
0.000135224
-4.54245e-05
-0.000136557
0.000117484
-9.59963e-06
0.000163997
-0.000132567
-2.81537e-05
1.71016e-05
4.27122e-05
0.000101875
4.2452e-05
0.000114717
-2.28344e-05
1.85331e-05
-8.2072e-05
6.64263e-05
8.91424e-05
2.03285e-05
-0.000144686
6.49542e-05
7.98268e-05
-7.52149e-05
-4.69464e-05
9.75113e-05
-7.8389e-05
-1.89993e-05
6.07572e-05
-3.31481e-05
-0.00013782
-1.72926e-05
0.000158426
0.000141923
-0.000139219
0.000199348
9.33506e-05
-8.37384e-05
8.30573e-05
6.96107e-06
-8.52952e-05
-3.0113e-06
-1.1885e-05
1.70315e-05
8.43986e-06
2.07167e-06
-8.95793e-06
-5.80303e-05
-0.000128079
3.18392e-05
-0.00012586
-7.8766e-05
7.74978e-05
-8.48896e-05
-0.000115682
6.58467e-06
3.18408e-05
-3.80169e-05
0.000151048
-0.000123387
-2.48308e-05
-1.71411e-05
0.000125012
0.000103008
-0.000171878
0.000167531
-0.000112111
-5.52906e-05
6.18677e-07
-1.98461e-06
3.62861e-05
-0.000160402
0.000125329
-5.01782e-05
4.14146e-05
4.7591e-05
1.67119e-05
-6.43023e-05
-0.00014721
0.000177113
-2.9796e-05
-0.000187731
9.94752e-06
8.89117e-06
-1.47999e-05
6.47331e-05
-5.39402e-05
0.000105427
-6.93859e-05
5.99747e-05
1.51738e-05
-0.000139563
-4.32691e-05
0.00018291
0.000157633
2.87612e-05
-0.000185506
-4.81938e-07
7.34627e-06
-7.66026e-08
3.36434e-06
6.89878e-05
-5.82504e-05
0.000162762
-0.000176276
1.48724e-05
1.97627e-05
-1.92212e-05
2.45083e-07
0.000148878
-0.000100864
-4.79278e-05
-0.000178244
0.000143424
-0.000111401
-2.84887e-05
4.69225e-06
-4.45778e-06
0.000176991
-3.49345e-05
-0.000141649
-0.000106616
9.01204e-05
0.000154879
-0.000130155
-2.1569e-05
0.000104313
1.01199e-05
-0.000108574
-0.000160984
2.5507e-05
0.000137244
-0.000205429
0.000126942
8.17324e-05
-0.000179009
5.5249e-05
0.00012464
-5.95603e-05
-0.000111612
0.000171436
-0.000100684
-3.44014e-05
0.000137181
0.000166712
-2.72526e-06
0.000193736
-0.00016309
-3.06191e-05
-1.56569e-05
6.32484e-05
-0.000152775
8.11424e-05
6.71172e-05
-5.33107e-05
7.69304e-05
-5.93655e-05
-1.75571e-05
-0.00013674
-5.11651e-05
0.00018896
6.14557e-06
8.45488e-05
-8.9778e-05
7.28695e-06
8.71451e-05
3.0382e-07
4.84388e-08
0.000187767
-3.0272e-05
-0.00015665
-0.000179788
4.40667e-05
5.38096e-06
1.42298e-06
-5.37989e-06
0.000188887
-0.000160718
-4.19433e-05
-0.000136164
0.000177656
-2.55616e-05
-0.000150674
-7.59441e-05
2.4781e-05
0.000160362
-6.1027e-05
2.22031e-07
-6.23785e-06
7.49466e-06
0.000151392
-0.000174336
2.47859e-05
0.000183281
-0.000144584
-3.86771e-05
0.0001392
1.75623e-05
-8.34088e-07
-1.61047e-05
-5.5792e-05
-6.85288e-05
8.47095e-05
-9.58151e-05
1.65238e-05
-0.00015123
5.2286e-05
2.40124e-05
-0.000137011
4.76032e-05
0.000110464
-0.0001545
8.02054e-05
-5.99822e-06
-7.08062e-05
-8.1882e-05
1.78423e-05
6.58566e-05
4.35904e-05
0.000152592
9.59955e-05
-0.000123572
2.76545e-05
-6.85551e-06
3.75016e-06
8.32329e-05
1.43771e-05
4.75038e-05
6.58973e-05
-0.000115081
5.29264e-05
-0.00019242
-4.21389e-05
-0.000156442
4.07289e-05
0.000145418
-0.000185692
1.28124e-05
-0.000100353
0.000184254
0.000157666
0.000160422
-2.33937e-05
-0.000135111
-8.0968e-05
9.02356e-05
-9.25049e-06
0.000117652
-3.83297e-05
0.000113757
6.75471e-05
-0.000180028
-3.27074e-05
0.000163086
-0.000130313
-9.64892e-06
3.30416e-06
-4.50193e-06
1.99629e-06
-5.81904e-05
-7.82696e-05
1.89294e-05
-7.21911e-07
-1.9042e-05
3.3163e-05
0.000123823
0.000225715
-6.96444e-05
-0.000155037
2.02774e-05
1.39775e-05
-1.0486e-05
4.91826e-05
-3.83629e-05
-7.74633e-05
1.42381e-07
8.15428e-05
-3.07957e-05
-9.02357e-05
-0.000101261
-1.36486e-05
4.92436e-05
4.62863e-05
9.43447e-05
-6.77037e-06
8.49623e-05
-1.21452e-06
-1.82523e-05
-3.19631e-06
0.000156135
8.07247e-05
-8.48921e-05
5.08177e-06
9.43737e-05
-0.000153699
8.16588e-05
6.66307e-05
-0.000115491
2.15821e-05
9.40566e-05
-3.76591e-05
-8.38178e-05
0.000126352
-0.000103301
0.000122867
-7.42641e-06
-3.31586e-06
1.12626e-05
-9.66397e-05
0.000147537
-3.18368e-07
0.000111961
-7.41356e-06
1.74247e-06
8.56604e-06
-0.000116409
-1.09736e-05
0.000129784
4.86602e-05
9.90306e-05
-0.000147261
-8.10113e-06
-4.1232e-05
6.75616e-05
-0.000164635
0.000159696
-0.000175094
1.6737e-05
0.000156093
-0.000170196
1.58248e-05
0.000174277
-0.000140655
-3.34929e-05
0.000131141
-0.000154444
2.67402e-05
8.75447e-05
-5.18292e-05
3.37608e-06
-1.02893e-05
3.72361e-05
-0.000135851
7.83295e-05
-0.000213172
0.000134889
-0.000188558
-5.09679e-05
1.37535e-05
4.33776e-05
0.0001399
-4.76972e-05
-1.3995e-05
0.000210722
-6.45038e-05
-0.00014329
-0.000144906
-4.03286e-05
0.000185609
-2.16944e-05
6.33045e-05
0.000156743
-0.000107629
0.000109761
1.67429e-05
-3.42579e-06
3.18736e-06
7.34855e-07
0.000137043
-0.00016201
2.50667e-05
1.67361e-06
-0.000103021
-0.00013424
-2.49979e-05
-3.43226e-05
-0.000167965
7.16667e-05
6.95919e-05
0.000157128
0.000142561
-1.91141e-05
-0.000123409
-2.03253e-05
6.38351e-06
3.83145e-05
6.57725e-05
-0.000100093
0.000179488
-0.000149731
-2.92835e-05
4.28749e-05
-1.47751e-05
0.000110842
0.000155598
-0.000186867
3.20833e-05
3.77509e-05
-4.79033e-05
3.51909e-05
1.19556e-05
-4.71464e-05
0.000145287
-6.35162e-05
6.41181e-06
-1.01717e-06
-5.00085e-06
-1.06057e-05
-1.49769e-05
4.57141e-06
0.000102463
-6.47875e-05
3.56312e-05
-7.59754e-05
1.42592e-05
-8.23661e-05
0.000184386
-2.33534e-05
3.64515e-05
3.19475e-05
0.000133
-3.76052e-05
-9.28626e-05
-0.000129518
5.53678e-05
-3.89244e-05
8.93146e-05
2.71743e-05
3.24177e-05
6.47786e-05
-2.87559e-06
1.27955e-05
7.42536e-06
-8.22359e-06
1.10212e-06
-1.07722e-05
0.000148577
-0.000127588
-0.000100674
0.000168398
0.000160975
-0.000155461
8.1742e-05
-0.000158573
-7.04373e-06
-1.9015e-05
3.1209e-05
1.75554e-05
7.57388e-05
-1.0874e-05
0.000147933
0.000149011
-0.000114865
-3.04859e-05
5.69511e-05
1.99867e-05
0.000111571
3.09512e-06
-0.000112117
4.56804e-05
-0.000164047
0.000118838
-9.68875e-05
7.83073e-05
1.15721e-05
0.000102078
0.000107239
-6.49182e-05
4.03724e-05
9.50403e-05
-7.02894e-05
-7.4291e-05
-1.43968e-05
0.000170689
0.000103324
-0.000177082
7.40452e-05
6.07874e-05
-0.000148043
8.74468e-05
-0.00018051
4.14161e-05
0.000140426
0.000140653
4.8235e-06
-0.000141837