/*--------------------------------*- C++ -*----------------------------------*\
| =========                 |                                                 |
| \\      /  F ield         | OpenFOAM: The Open Source CFD Toolbox           |
|  \\    /   O peration     | Version:  v2012                                 |
|   \\  /    A nd           | Website:  www.openfoam.com                      |
|    \\/     M anipulation  |                                                 |
\*---------------------------------------------------------------------------*/
FoamFile
{
    version     2.0;
    format      ascii;
    class       volScalarField;
    location    "800";
    object      ddt0(k);
}
// * * * * * * * * * * * * * * * * * * * * * * * * * * * * * * * * * * * * * //

dimensions      [0 2 -3 0 0 0 0];


internalField   nonuniform List<scalar> 
9793
(
7.63742e-05
-0.000325017
0.000163463
4.34206e-08
-0.00635806
-2.22416e-07
-9.6743e-09
-5.99398e-08
-1.58015e-08
-0.0108797
1.29971e-06
1.96174e-05
5.01124e-08
-6.72753e-07
5.38436e-08
-5.76145e-07
8.3171e-08
-7.97589e-06
-0.0103977
-6.4528e-07
0.00273183
-8.57641e-07
0.00368775
-2.65617e-09
1.13607e-06
4.00664e-08
-1.97766e-06
2.72227e-07
9.15465e-07
-2.22022e-08
3.98623e-07
0.00295517
-0.000986776
-1.89029e-08
1.45581e-06
0.0297212
-8.73963e-08
-9.26485e-07
-1.94657e-07
3.13234e-08
2.22683e-07
7.14929e-08
5.65766e-08
-4.48001e-08
3.11347e-08
5.00098e-08
1.23428e-06
-0.00227473
-8.96772e-05
4.34768e-08
7.55572e-07
1.34605e-06
-4.0482e-07
-2.09572e-07
-3.57204e-05
0.0108109
1.47184e-08
1.43615e-06
-0.00818094
-1.66907e-07
-2.61145e-08
-6.87592e-07
-0.00191281
-6.32472e-09
-0.0238737
-0.00375376
-0.00523619
0.000376085
8.11681e-06
1.313e-06
-5.43446e-06
-1.6597e-08
1.3383e-07
0.000166141
3.00673e-06
-0.00691581
1.52875e-08
3.72482e-06
6.8776e-07
2.27547e-07
-0.00522015
1.39407e-07
-0.00119636
-6.59874e-05
4.88943e-07
0.000287105
1.19501e-07
4.68641e-09
-5.77834e-07
2.95812e-07
4.12489e-05
-0.0131746
-1.04554e-07
0.00227301
-6.51942e-07
9.94369e-06
0.0105172
-0.000489951
-1.27661e-07
9.2251e-08
1.20946e-07
-5.48984e-07
-1.43157e-07
-9.29197e-08
2.38771e-06
1.78307e-07
-6.3297e-07
1.4065e-07
-4.55028e-07
-0.000480299
1.26306e-08
0.000586283
-3.92031e-09
0.0392049
1.13403e-06
1.41923e-08
0.00102344
3.10165e-06
-1.27812e-07
0.00167846
-0.000928742
1.4117e-08
-1.19678e-08
-8.58705e-08
-1.41514e-07
0.00155207
1.08042e-06
0.000352547
8.61949e-07
3.74937e-08
5.00477e-08
9.2532e-09
3.53539e-08
-8.67634e-07
-4.83802e-08
-1.35869e-08
-6.22435e-09
-3.42368e-08
9.86855e-10
-2.15587e-08
-1.47842e-09
9.86993e-07
6.28545e-08
2.27684e-07
-6.44614e-07
-1.0356e-05
6.53675e-05
2.63236e-07
-1.70698e-07
0.00197415
0.0222385
6.01476e-08
0.025019
-0.00881936
-1.60282e-07
2.7414e-08
-2.34492e-08
7.06156e-07
1.98846e-07
6.00461e-08
-7.02219e-08
2.48802e-07
-4.87173e-07
-0.011977
0.000111656
0.00678014
-0.00110498
6.80211e-07
-1.18527e-06
-5.70994e-07
5.40516e-07
0.000633171
6.93245e-05
-0.00153766
-9.55176e-08
-0.0108011
-7.55125e-09
-4.95247e-08
3.79041e-08
7.69354e-07
0.000338032
1.07654e-07
1.52506e-07
9.53596e-07
-0.000924748
1.20127e-07
2.12393e-06
3.95519e-08
-2.58486e-08
-4.67028e-07
-5.63216e-08
6.62163e-08
-5.26741e-05
0.00104203
-0.000298498
7.53658e-07
-0.0191667
-4.15174e-08
-0.000234171
-2.58215e-08
-4.7314e-08
-0.00968485
0.0201849
2.25924e-08
-3.20003e-08
6.89891e-07
0.0146096
4.02995e-08
1.97683e-07
2.40206e-07
1.0926e-06
-1.37797e-05
-7.31822e-05
-1.91566e-07
-0.0211494
-1.46627e-08
-7.098e-07
-0.000194797
-1.73755e-06
-6.39239e-05
3.06294e-06
1.58053e-09
-7.64317e-08
7.06247e-08
1.69835e-05
-0.0116899
-2.34594e-07
-1.50884e-07
3.63525e-06
1.20418e-06
2.93644e-08
-3.10636e-08
1.38309e-07
-3.52127e-08
1.14509e-06
-3.77471e-05
2.95322e-08
3.48058e-07
0.00455797
-3.58189e-07
2.96272e-07
4.01552e-07
2.65747e-07
-0.00216557
2.59627e-07
-1.56625e-07
-5.18637e-08
6.96295e-07
-1.41633e-07
-1.37794e-08
-5.87296e-07
3.83075e-07
1.52795e-06
1.13458e-06
1.54355e-07
-1.37869e-06
4.45039e-07
4.69882e-07
2.84713e-07
2.63421e-07
-0.00063528
3.01088e-07
1.56743e-06
4.35574e-08
7.82473e-07
-1.65486e-07
3.35013e-09
1.11007e-06
-0.0107922
-6.14012e-07
3.28156e-07
-1.73974e-07
-6.14532e-07
6.37859e-09
9.84599e-05
7.5494e-06
3.12282e-08
0.00281123
8.87211e-08
1.09957e-06
3.68087e-07
1.2148e-07
1.50947e-07
2.08862e-08
1.05107e-06
2.97525e-09
-6.03036e-07
5.5416e-07
3.45589e-09
-3.94833e-08
4.44199e-09
-0.000105047
-4.02689e-07
-7.66292e-08
8.40446e-08
-8.56004e-07
-2.36837e-07
6.97925e-07
4.41399e-08
-0.0201718
-1.62874e-07
0.000865601
-0.000580092
1.00086e-07
1.06319e-07
3.07753e-07
-7.20863e-07
2.50352e-07
9.94033e-08
0.0006097
1.5045e-07
3.04492e-07
3.06135e-07
-7.82688e-07
-3.51562e-07
-5.55005e-08
0.000149194
2.30266e-07
-3.47265e-07
2.2024e-07
6.90247e-08
0.000210658
-0.00757278
9.27832e-05
-7.09035e-07
7.66355e-05
-3.29873e-07
-0.0115779
-2.45094e-06
-2.75948e-07
3.02565e-07
-3.36381e-06
-7.04946e-07
3.95586e-07
1.49822e-06
-4.06384e-08
9.68066e-08
-8.53243e-08
3.97405e-08
1.64715e-07
0.00018995
7.18058e-08
7.27787e-08
-0.0185643
-3.42005e-07
-5.40008e-07
-6.07905e-07
-7.2676e-07
-5.40316e-08
-0.0090624
-2.14423e-07
-9.50078e-08
-6.00998e-07
-5.51577e-07
0.0115098
-1.94662e-07
-1.30023e-06
-3.21938e-08
1.01936e-06
2.08503e-05
1.57464e-06
1.02005e-06
-7.94334e-07
-6.39274e-07
-0.0158293
-2.57097e-08
-0.000956087
1.53716e-07
-3.68608e-08
0.000211257
2.79992e-07
-0.00447302
-9.65631e-08
1.25245e-06
0.0329644
3.87583e-07
1.01032e-07
-0.000334111
6.03656e-07
6.76286e-05
-1.37804e-06
-1.42922e-07
0.000304282
6.25445e-08
-4.05408e-07
-2.60242e-08
3.55882e-08
-2.08083e-06
-1.52686e-07
-1.27601e-06
0.0116536
-8.47053e-08
2.64099e-05
0.00146647
-0.0135629
1.24476e-06
0.000140576
-6.35061e-08
-8.40033e-08
-0.0420639
0.00147295
3.84677e-07
1.56003e-08
-0.0223538
-1.78983e-07
0.0374019
3.90832e-07
-1.14865e-06
-1.73569e-07
1.20271e-06
7.38627e-08
6.49839e-07
0.00443344
1.40304e-07
0.00401153
-2.37039e-06
-1.90784e-07
-1.91524e-06
-1.36134e-07
-6.78181e-07
-4.56997e-06
0.00489918
8.65167e-08
-3.65153e-07
1.40146e-06
-1.10803e-07
2.74934e-07
-2.0607e-07
-4.40286e-07
8.59583e-07
4.44647e-08
-4.01938e-07
-1.46684e-07
-0.00278854
-4.77001e-06
-0.00284783
-5.56243e-07
-0.000901263
5.77884e-09
-4.67439e-07
4.02916e-08
-1.00767e-07
-0.0034582
-1.92722e-08
0.000410299
-5.19078e-07
5.73533e-07
-2.76767e-07
-0.0216682
-3.49227e-07
-4.62428e-05
2.73365e-05
-3.5338e-07
2.30103e-08
1.94372e-06
8.54863e-07
1.11899e-06
-0.00103228
-0.00211539
1.4611e-07
2.79556e-07
1.24341e-06
-3.16214e-08
4.1272e-07
-2.43268e-08
-1.49294e-07
-6.15488e-08
0.0311423
6.764e-07
0.00122949
-1.86578e-07
-9.5245e-07
-3.05282e-08
1.33965e-08
8.97729e-08
2.58739e-07
1.7355e-06
-7.20557e-07
6.30418e-07
-2.1766e-07
5.56542e-09
3.95776e-07
-0.00152786
4.19419e-09
2.14338e-08
-0.00139639
1.07733e-07
-1.21299e-07
-0.00528989
0.00082325
-3.91601e-08
1.63286e-08
-3.63629e-07
3.61773e-07
-4.21095e-07
-2.75102e-08
6.85002e-08
-2.09185e-07
4.75861e-07
1.87847e-07
0.00025407
7.11821e-07
-3.39638e-08
-0.00165925
7.33788e-07
-5.91319e-08
-5.20481e-07
3.65357e-07
0.000199575
3.47306e-07
0.0017797
-2.66235e-07
2.91593e-07
1.2839e-06
-1.91993e-08
1.008e-06
0.00224748
-2.92604e-07
-3.65804e-08
-0.00147187
2.28285e-07
1.81485e-07
6.08936e-07
1.32485e-06
-8.37862e-08
1.5699e-07
4.13103e-08
-7.9648e-08
-0.00182946
1.23302e-06
5.32312e-07
-3.57881e-07
5.12056e-07
1.39483e-07
-1.34483e-07
8.29014e-08
6.19472e-08
1.08414e-05
-4.40318e-07
-1.72049e-07
-3.66108e-07
-0.0437945
-9.45055e-08
-0.000603342
-1.73311e-06
7.36555e-08
1.52605e-06
-0.000948294
3.00771e-09
1.91446e-06
1.32802e-07
0.0310456
5.27365e-07
0.0039125
1.08482e-07
2.21586e-07
1.67823e-07
0.000489594
-5.56148e-07
-0.0109034
-0.00555647
-0.0521416
1.01849e-06
0.000955904
1.13193e-06
5.36712e-08
9.08702e-07
-4.41727e-07
2.43537e-05
-2.77015e-07
-0.00889995
-1.23322e-07
0.000109247
1.27126e-07
8.22469e-08
9.97182e-08
2.83928e-06
-1.67458e-07
-4.88517e-09
1.01917e-07
2.62547e-07
7.35539e-07
1.19731e-07
7.72388e-10
-7.7372e-08
-4.57023e-08
-0.00576132
5.46308e-08
-0.000777261
-0.000480157
4.21387e-08
1.15527e-07
-8.17591e-07
4.24416e-08
-3.8397e-09
-6.86486e-07
4.43785e-07
5.11659e-07
1.39048e-07
2.0806e-07
9.32314e-08
-2.54124e-07
-7.28146e-07
4.33102e-07
-7.32881e-07
-7.0161e-07
0.000583881
-1.36785e-07
-0.00107104
5.16589e-07
-5.76135e-08
5.95675e-10
-4.52218e-08
-8.28599e-08
5.99831e-07
2.47581e-07
-8.47559e-08
-2.00182e-08
1.74575e-07
-1.3641e-07
1.85789e-08
-1.35442e-06
-2.50864e-08
6.95639e-08
-9.08199e-08
-1.1831e-07
-1.34879e-06
1.5694e-07
8.94072e-07
7.33262e-08
1.53618e-07
1.94022e-09
1.22365e-07
-3.05028e-08
-3.02263e-08
-1.07827e-07
5.6693e-08
-1.40981e-07
-1.56814e-07
1.16134e-06
-5.34494e-08
1.05003e-07
-1.82152e-08
-0.00791174
4.4813e-08
-1.76185e-07
1.23874e-06
1.12534e-07
3.53314e-07
1.63822e-06
1.0433e-06
9.57299e-08
1.06018e-07
1.53365e-06
-5.53223e-08
1.22795e-06
-0.0421561
0.00378879
-0.0049273
3.81554e-07
-3.04109e-08
7.6706e-05
-6.63528e-08
-1.66697e-07
0.00020093
-0.00946191
-0.0359703
-9.25716e-10
1.3279e-06
-2.83558e-08
-8.66072e-09
0.0383147
1.80799e-08
0.00432199
1.26263e-06
1.87134e-06
1.33145e-07
2.17069e-07
-7.64723e-07
3.23323e-06
9.01749e-05
4.76292e-07
2.30669e-06
6.38747e-07
6.36077e-08
2.75388e-07
1.22553e-06
1.13262e-05
1.1457e-07
-0.0011544
-4.55827e-07
0.00305163
-0.000591639
0.000180593
0.000196569
6.2106e-07
-1.3336e-07
0.00185929
4.33809e-08
2.33894e-08
6.37648e-08
-6.67065e-07
-1.70327e-07
0.0199556
-1.46767e-07
-0.00253369
2.85247e-07
0.000472454
1.32039e-06
-1.36322e-07
7.75053e-06
-0.00834355
-2.00366e-07
0.00290039
-3.73381e-07
8.53416e-07
-1.67865e-07
-1.82936e-10
-0.000557105
2.7006e-08
0.000167896
4.72921e-08
0.000126231
2.74971e-08
-0.00248042
-0.000219242
5.63592e-07
0.000346308
1.01149e-07
1.37862e-07
1.10841e-06
0.000287125
-0.00726758
3.94351e-07
3.22851e-08
-2.12224e-07
0.00289069
-0.0188246
7.94732e-08
-3.4694e-07
-0.00109278
-1.96878e-07
8.70027e-08
-8.54555e-07
0.00201399
2.82975e-07
-1.38168e-07
4.95048e-08
-1.28906e-07
-0.00221973
-0.0254004
-0.000120182
1.45956e-07
5.60899e-08
-0.0063455
2.59528e-08
0.00293589
1.40593e-06
-0.00263756
4.71544e-05
0.000196679
-4.36596e-08
-1.17904e-07
2.82654e-07
2.95868e-08
4.57064e-07
4.79621e-08
1.50866e-06
0.000120875
-5.31119e-08
-0.00793433
-1.22857e-07
0.00424439
4.93336e-09
0.000616132
-1.38784e-06
2.39522e-06
1.62232e-07
-1.05851e-06
-0.000416588
0.0024601
0.00248927
-2.39171e-07
1.22016e-06
-3.07301e-07
-8.46741e-07
2.26442e-07
5.78728e-05
-1.72038e-07
1.41042e-06
-2.10079e-08
6.56311e-07
3.8277e-07
-2.28956e-08
-7.33907e-08
5.73471e-08
-0.062338
2.47667e-08
-2.08204e-07
-2.99122e-08
7.7589e-08
-1.31587e-07
2.36257e-06
9.29122e-08
1.07773e-07
-6.05665e-08
9.54996e-08
2.02142e-05
4.07616e-08
0.000529387
-9.13959e-09
-0.000894879
3.26658e-08
0.00328073
-1.01998e-08
3.29507e-05
-5.35946e-07
-3.96853e-08
5.29427e-08
-0.00148335
0.000250062
-0.00112384
1.14694e-05
-0.00134935
4.389e-08
2.98955e-07
0.00063229
-1.7654e-07
-3.65805e-05
-0.00015585
4.78086e-06
5.30258e-06
-5.06797e-07
-0.00108156
3.48908e-07
-0.0023328
0.000121549
-2.80393e-07
-3.04868e-07
-9.37782e-05
-0.0209292
9.34389e-08
-1.38761e-06
3.30515e-08
1.60558e-07
9.24634e-07
-1.74744e-08
-3.13773e-08
5.93078e-08
-0.000568914
1.07178e-06
-6.22291e-07
0.00315946
5.45445e-08
-1.0305e-07
0.000142756
0.00187846
9.67461e-07
1.3993e-07
-0.000367959
1.298e-07
-1.75551e-07
0.00118603
-1.29725e-07
-5.23642e-07
-0.00158902
-0.00146568
8.70604e-07
-0.00365981
-2.34174e-05
3.88332e-05
0.000330269
3.82643e-05
-7.18036e-08
0.000324326
-6.49133e-07
-1.3871e-08
-1.03296e-07
7.45106e-08
-8.50215e-07
-0.000100071
9.91756e-07
-0.000180772
-8.76475e-07
1.35752e-06
-7.68908e-07
9.68675e-07
2.56207e-06
-8.56327e-07
1.29111e-06
-5.31471e-07
-2.40912e-07
2.98685e-06
2.43246e-06
9.2604e-07
-3.04174e-07
-1.49705e-07
-0.000255699
0.00464069
1.29443e-05
-2.9939e-08
-1.00779e-08
7.60748e-07
9.10158e-07
-0.00466536
4.67907e-06
0.000518378
1.17281e-06
-0.000403963
6.67347e-07
-1.46483e-06
-3.00128e-07
3.59367e-07
5.63113e-06
1.47484e-07
1.37725e-07
0.0107775
1.13865e-06
0.000140038
1.26916e-07
0.00399963
0.00193573
-8.78554e-08
1.14723e-06
3.44005e-07
-0.00340831
-2.67824e-08
5.09832e-07
0.000701241
3.89382e-08
1.33463e-07
-0.000322731
-6.10564e-07
1.011e-07
1.19717e-07
-4.99832e-06
-6.74202e-07
5.16164e-07
0.0045643
1.12095e-06
-1.44419e-06
1.23821e-06
0.000181954
-0.00624004
5.54044e-05
-2.15364e-07
-2.43221e-07
3.15613e-08
-6.84268e-07
-7.43356e-08
-0.00320035
0.000240204
3.48977e-07
0.00933491
-0.000777125
-0.00405156
-2.66875e-07
0.000181275
1.12977e-09
-0.00148181
1.09661e-06
6.88889e-08
-0.00149678
-0.00120077
5.2866e-08
-1.2505e-07
3.90235e-08
5.5339e-06
-0.00148391
7.02796e-07
-5.39209e-06
-0.000617334
6.23213e-05
8.55662e-05
0.000511774
-1.41739e-07
2.2516e-08
-1.15563e-05
-0.0058727
8.84761e-08
9.20063e-08
1.58953e-07
-6.75166e-07
-4.77161e-07
4.75287e-07
0.0198057
-3.68099e-08
3.63038e-07
-0.00510066
-2.6173e-08
5.89448e-08
-1.41045e-06
-0.00159428
-1.51389e-07
1.09759e-06
5.29209e-05
-2.49577e-07
-2.05343e-07
-3.09843e-07
5.52067e-08
-9.93646e-07
-0.000220817
-0.00590075
1.04404e-06
0.000446581
9.52623e-07
-0.000181642
1.00141e-08
-7.82208e-08
-8.71961e-07
-6.80572e-07
-6.88495e-05
-1.12838e-07
2.77733e-08
4.76501e-07
6.38064e-07
-8.02991e-07
4.96824e-07
9.71133e-09
1.36767e-06
-2.33004e-07
4.04691e-08
0.00430578
1.24013e-07
0.000377469
-4.1609e-07
4.32053e-08
-0.00202084
5.86127e-07
9.28544e-07
0.00300503
2.09263e-08
0.00672418
1.10612e-07
2.81613e-08
-0.0220165
-0.0128925
1.89309e-08
-1.48681e-07
-2.05021e-08
-2.57581e-08
1.2819e-06
-9.03303e-07
5.98496e-07
7.52162e-08
2.73316e-08
6.72067e-08
-2.51167e-08
-3.29403e-08
8.53138e-08
2.44457e-08
-0.00172698
-1.32897e-06
-2.71764e-08
1.12349e-06
-1.28693e-07
-0.00378126
-0.000608077
9.51462e-07
-1.5089e-07
1.02661e-09
1.04867e-06
-1.27717e-06
5.25673e-08
-6.14498e-07
0.00114809
-5.04249e-07
1.75115e-08
-4.70536e-08
1.08168e-06
3.19234e-06
1.6853e-08
-0.00244382
1.19408e-06
-2.83394e-07
-3.36506e-07
-2.49671e-05
-1.39154e-07
-1.51603e-06
-0.00434061
-4.21779e-07
8.06147e-06
-3.57246e-05
-2.27861e-05
-2.23109e-08
-2.97831e-08
-5.53981e-08
-5.25596e-08
-2.60601e-07
1.40809e-07
-1.8528e-06
-3.42786e-06
-4.84204e-08
-2.61794e-07
2.43791e-06
8.19142e-08
-1.15696e-08
1.07798e-07
-4.84529e-07
0.00760684
-6.3543e-08
-8.46201e-08
-0.000387037
3.95306e-07
-3.90685e-08
6.52559e-06
1.36059e-07
-2.34495e-08
1.20355e-08
-6.78247e-08
9.87998e-06
1.10463e-07
6.03439e-06
-1.79598e-06
-4.85758e-08
1.34297e-08
-6.67432e-08
-5.3567e-06
7.62063e-08
-1.42221e-06
1.2525e-08
1.94834e-07
1.30736e-05
-1.69347e-08
8.46425e-07
-8.14847e-09
-1.20462e-08
2.79041e-05
0.00322857
1.23973e-07
1.07451e-07
8.10637e-08
0.000539472
8.46591e-05
9.55953e-08
0.00394417
0.000747191
4.71221e-08
-0.000474046
0.00182875
1.54456e-07
0.000126212
5.51121e-06
0.00185525
7.64192e-09
-4.60919e-08
1.92022e-06
-6.79077e-08
5.39731e-05
0.000102939
2.15181e-08
0.00101787
0.00514539
-1.75968e-07
0.000834283
4.43083e-08
7.09624e-07
1.82036e-06
2.5884e-08
-1.99513e-05
3.59785e-08
1.1611e-06
5.23443e-06
9.93808e-09
1.20118e-06
-7.29377e-07
1.40886e-07
1.07701e-06
3.72254e-07
1.59555e-05
-0.000688873
-1.72189e-07
4.22458e-07
1.34789e-05
-4.38246e-08
4.73561e-07
-2.76917e-08
0.000263923
-0.000966969
1.86766e-06
-6.40444e-07
4.69314e-07
2.04892e-05
-9.84941e-05
8.01066e-07
-2.19702e-08
4.29708e-08
-0.000573851
0.00847029
-8.07253e-05
-1.00535e-06
-1.30791e-06
5.73457e-07
-1.65652e-07
6.48975e-08
-1.17973e-07
-1.23734e-06
-1.92684e-07
-5.53144e-08
-0.00195407
0.00467708
8.86787e-08
1.82168e-06
-1.40549e-06
0.00245485
0.000818845
-1.31214e-06
0.000960996
0.00171574
-2.46459e-09
1.35326e-06
1.465e-06
-0.00133834
4.99602e-05
-7.93381e-09
1.46993e-06
0.00125006
1.59043e-06
-9.18824e-09
-0.000223626
0.000450896
8.03253e-08
5.18586e-07
4.5622e-07
1.96748e-08
1.43984e-06
-5.648e-08
1.03903e-07
3.01104e-08
1.82395e-07
-6.62537e-07
-8.46378e-08
-1.21663e-06
4.92975e-07
0.0001014
-1.19991e-07
0.000646147
-2.52234e-08
5.66509e-07
-8.04289e-08
-0.000702091
0.00411518
1.00424e-08
1.63441e-06
-7.9603e-07
-6.6329e-09
7.76107e-08
1.51199e-07
1.51374e-07
-1.06404e-05
-6.67426e-08
0.000840522
2.86102e-07
7.52065e-08
-0.00217427
-6.83977e-08
3.25232e-08
2.23538e-08
1.01731e-08
0.00338815
1.16062e-06
0.00275359
-2.74998e-07
-0.000804705
-8.33567e-08
4.57617e-08
-5.18331e-07
4.1357e-07
5.2668e-06
1.3977e-06
-0.000704768
4.90511e-08
2.07798e-06
4.18464e-08
0.000988371
9.23453e-05
4.73408e-07
0.000568105
0.0199081
2.58366e-08
1.65916e-06
-1.22344e-07
1.19215e-06
4.18837e-07
1.50646e-06
1.17638e-06
2.12773e-08
0.00322162
-0.00638174
-6.29249e-08
2.50445e-07
7.10803e-08
1.90526e-06
1.45579e-06
-2.99628e-08
0.00592869
-1.60597e-08
0.0145251
8.88765e-07
1.98201e-07
7.21515e-08
6.1206e-09
9.01964e-05
1.32399e-08
-0.00450556
4.43411e-07
-6.10034e-08
-4.94585e-08
1.30409e-06
-1.22242e-06
-0.000936056
3.5332e-07
-1.67436e-07
-3.19864e-07
6.77234e-07
2.84415e-07
-9.84021e-08
-0.000260079
6.02611e-08
1.9736e-08
0.000490953
-0.000599178
-1.5263e-07
1.37788e-07
4.21967e-07
-0.0147818
1.67281e-06
2.35323e-08
2.53584e-05
5.57579e-07
-3.16467e-05
0.000106713
8.45993e-08
4.1972e-08
1.57162e-06
9.35485e-08
-3.27863e-08
3.21976e-08
1.25637e-06
-0.000116773
-1.76414e-05
-3.63788e-08
2.09088e-08
8.05534e-08
0.00238343
-3.27978e-06
-2.85005e-08
4.59601e-08
1.2482e-07
0.000251362
0.0108433
0.00706645
2.38454e-09
1.48209e-06
1.72163e-08
1.41888e-07
-7.31497e-07
3.10292e-08
1.17235e-06
1.61335e-08
9.05868e-05
0.00138217
0.00257401
4.158e-07
-9.68748e-08
-8.54621e-08
1.29636e-06
3.28886e-08
1.17311e-07
-2.0487e-07
-1.89021e-07
-3.9442e-08
-9.6396e-07
1.23011e-07
-1.38433e-07
0.000507098
1.13366e-06
-3.44517e-08
3.30881e-07
3.17924e-07
3.20458e-07
-0.00911939
9.4333e-09
1.08261e-08
-9.99851e-08
1.33306e-07
-1.11543e-07
-1.99246e-07
-1.0293e-05
-6.90064e-06
-8.08463e-08
1.32478e-07
1.43146e-07
-1.56947e-07
-1.38118e-06
1.33414e-05
1.25358e-07
1.36835e-05
3.25296e-08
-3.89017e-07
3.61316e-09
3.29171e-07
-7.90982e-08
2.06537e-05
-3.70444e-08
-1.76356e-07
-9.76125e-09
4.24926e-05
2.36805e-07
0.000286121
-0.000462988
-6.59979e-07
-9.66174e-08
4.12176e-08
5.81549e-09
-1.79868e-05
1.46259e-07
5.11729e-07
-0.012395
-4.79989e-08
-0.000129167
5.66203e-05
2.88565e-07
9.81271e-07
-4.00525e-07
3.44566e-07
1.20122e-07
-6.14068e-08
-7.10042e-09
9.77575e-09
0.000160944
-4.30172e-07
-8.90417e-09
-0.0047411
4.68987e-06
3.03633e-08
0.00123812
-7.2611e-08
-3.74937e-07
-4.36187e-08
7.57113e-08
-0.0088305
-2.51467e-07
5.73833e-08
-1.09985e-07
2.73957e-05
1.63676e-06
-3.83665e-07
9.53991e-08
-1.04555e-06
0.000463819
0.00665605
1.0466e-06
6.00449e-07
-1.19483e-07
-3.36977e-09
0.00109429
-6.40479e-07
9.31816e-07
2.43834e-06
0.00441329
-1.9749e-07
1.04558e-06
-3.76309e-07
-4.55246e-07
-6.88725e-07
9.71918e-07
-3.77284e-08
9.35753e-08
7.73269e-08
6.36658e-07
-0.00244953
2.76815e-06
-2.19292e-09
4.82543e-07
1.26819e-06
2.76995e-07
1.14149e-06
-6.47454e-08
-2.41827e-07
9.33788e-09
-2.46845e-05
-0.00465719
-1.22297e-05
-3.02849e-07
-0.00104752
-1.08235e-07
7.60838e-07
-8.86372e-08
1.16674e-08
2.64458e-08
-1.95925e-07
2.01673e-05
6.17359e-07
2.59351e-07
9.06055e-08
-8.93637e-08
-1.5928e-07
4.42083e-07
4.18056e-09
1.57807e-08
-1.69982e-07
-0.00301871
-0.000134249
-1.18116e-07
3.61323e-07
-4.68489e-08
-0.000802921
-8.01401e-07
0.000273204
-1.86e-07
1.03085e-05
-1.34183e-07
-6.06129e-07
2.07475e-06
-1.78791e-07
9.8538e-07
-1.4099e-08
9.84453e-08
-8.08979e-08
-9.0928e-07
1.34815e-06
-7.38891e-07
1.06122e-07
-0.000727767
-4.81825e-07
-1.10933e-06
3.89334e-08
-4.81917e-07
3.16121e-07
-3.15339e-07
5.52121e-06
-3.48086e-08
-1.04931e-08
6.92611e-08
-0.00222719
4.40065e-07
0.0045801
-2.16683e-07
-6.45376e-07
0.0002217
0.000773932
-0.00133922
5.40843e-07
-1.29997e-06
-0.00178886
-2.79729e-07
-0.00165563
-5.32894e-07
1.32795e-06
1.08722e-07
0.000396795
0.00195271
-7.52613e-09
-1.8731e-08
6.7694e-07
-1.08069e-06
1.90568e-07
-0.00117189
4.8212e-08
-0.00162563
-3.63342e-08
7.80262e-09
-3.19081e-07
3.72504e-07
-4.09329e-07
-8.88611e-07
-6.20756e-08
2.00526e-08
1.39459e-08
-5.49333e-07
1.21468e-08
0.00293563
0.00215298
-0.00285362
-3.03058e-07
-1.24419e-06
3.85119e-07
-8.01825e-08
-5.43081e-08
1.35878e-06
1.18415e-06
-2.70276e-07
5.02364e-08
0.00769714
2.35173e-07
-0.00128291
-0.00276648
-1.08715e-06
-7.17736e-08
2.34341e-08
-1.44795e-05
-0.0053368
-5.6913e-08
-1.84266e-09
3.58353e-06
1.518e-06
1.24851e-06
0.00417673
-5.17858e-08
1.7546e-07
1.5687e-07
-1.18097e-07
-2.43752e-08
-0.00182579
0.00274353
0.026399
1.05421e-08
-0.00542702
-1.98737e-07
-3.64447e-07
-1.40534e-07
4.57754e-08
-9.00504e-08
3.45097e-06
-1.16292e-08
-1.29082e-09
-9.49128e-08
4.24027e-08
-1.64577e-07
3.23123e-07
6.36936e-07
-0.000724599
1.92487e-05
-3.67626e-09
-1.12449e-07
2.01048e-08
4.08249e-08
-7.78121e-08
0.00025142
5.54951e-08
9.54384e-08
9.3902e-08
-0.00154544
1.13723e-08
1.17356e-07
5.67803e-06
2.74658e-08
-4.21615e-08
0.00386823
3.11107e-07
1.74983e-08
4.84881e-08
-8.69123e-05
1.83785e-05
1.63842e-06
-2.68739e-07
0.0200526
-7.89026e-07
1.18227e-07
1.71404e-08
-3.45073e-08
5.23137e-08
1.19725e-08
3.43353e-08
1.13326e-06
-8.88815e-08
-0.00271158
1.61752e-06
9.92913e-07
6.96899e-09
0.00166761
8.73711e-07
-2.93357e-07
2.38334e-08
-3.00545e-08
-5.40175e-08
-7.90812e-08
-0.0025133
5.52803e-08
1.89791e-06
1.51487e-08
-5.12521e-08
-0.0439577
1.06505e-07
-0.00279177
1.19302e-06
-7.21624e-08
5.17334e-06
1.64447e-08
1.45975e-07
9.32409e-09
-1.51117e-07
-2.6387e-08
-8.22056e-08
-8.03249e-08
-1.72589e-07
1.91251e-05
-1.67414e-07
5.49606e-08
6.80753e-08
-1.75202e-08
1.09207e-08
5.20295e-09
1.03429e-08
1.07751e-07
6.29661e-08
-4.33715e-08
2.00096e-08
-2.82824e-08
-4.28966e-07
-0.0202387
-6.20585e-07
2.81466e-08
-2.33561e-05
-0.000628904
1.85681e-07
1.02658e-05
8.57815e-08
8.12121e-07
-6.1176e-08
-2.00492e-07
0.00809667
-0.000486633
3.52844e-08
-1.22237e-06
0.000419881
-4.60205e-07
1.1458e-05
-0.0108732
-1.39249e-07
0.00437689
-1.19662e-07
4.53669e-06
-3.3822e-07
-3.18193e-05
-0.00599997
0.00908276
7.25183e-08
4.944e-08
6.22419e-07
-5.21697e-07
-1.02799e-05
-1.23938e-06
5.38022e-06
0.00281101
8.87372e-08
1.85152e-05
2.4947e-06
1.43215e-06
1.15318e-08
-1.01164e-06
-2.12506e-07
-6.40181e-08
1.28071e-07
2.17502e-07
7.94193e-08
1.81102e-07
-1.77442e-07
1.83503e-07
-7.83165e-08
-0.004541
1.66842e-07
7.60239e-08
1.68245e-08
9.89995e-06
-1.39321e-07
-1.01421e-07
1.22255e-05
0.000175881
-0.00048991
1.43286e-07
-4.69454e-08
-3.67567e-11
9.73756e-07
1.65668e-08
-3.97681e-07
3.78236e-06
-4.3866e-07
-0.000256421
6.56925e-08
-0.00137205
2.12925e-07
1.5685e-06
-0.000335859
-0.00642412
6.00951e-08
6.50219e-09
1.55433e-08
-6.8485e-06
1.13565e-08
6.53567e-08
1.01746e-08
-1.14773e-06
0.0128334
-0.000299034
-3.70206e-08
2.25958e-07
0.000207687
1.23454e-06
-0.0011882
2.18994e-06
-1.15432e-06
1.09813e-06
0.00029173
-0.000948136
2.89246e-08
2.70168e-08
6.25167e-08
-2.45652e-06
1.03147e-05
-7.67354e-06
8.16837e-08
-1.97097e-08
2.55801e-07
2.01631e-07
1.39848e-08
3.07899e-07
1.16735e-07
1.39525e-06
8.70471e-08
9.40901e-09
-8.59066e-08
-9.95989e-07
0.011949
-1.40657e-06
2.08156e-07
-9.41458e-08
-0.0088311
-3.39308e-06
-9.04807e-08
6.46773e-08
-1.00441e-05
-0.000250369
-4.59394e-07
-5.40011e-07
-6.78049e-05
3.08804e-07
1.11042e-07
1.01119e-07
-1.30694e-08
2.73711e-06
5.65687e-08
-2.30664e-07
2.81654e-08
-5.63094e-07
2.56778e-08
4.14431e-08
3.53486e-08
-1.82012e-08
-5.32724e-08
4.15965e-05
2.63717e-08
-4.93276e-09
-2.99569e-05
1.05995e-05
-2.91675e-06
1.33156e-06
9.53025e-08
0.00116977
5.4787e-08
-1.13375e-05
5.2617e-08
-4.22108e-05
2.92605e-07
1.62666e-08
1.18858e-07
-4.84053e-05
-1.59212e-07
7.46526e-09
0.00188293
1.49334e-07
1.3412e-07
1.98231e-07
1.78009e-07
8.1469e-07
9.92842e-08
-0.00670343
-1.03661e-07
9.20617e-05
1.40488e-06
5.9874e-08
8.67925e-07
4.71565e-08
2.17832e-07
2.07398e-08
0.0329027
6.94423e-06
-2.00382e-06
6.73353e-07
-0.00833997
5.6887e-07
-3.13565e-06
-1.60064e-07
-7.43303e-08
8.78941e-08
-1.46025e-05
-2.25465e-05
6.1448e-08
4.69571e-07
-1.29547e-07
1.28402e-07
0.00230611
1.17056e-07
-6.33565e-08
0.00061633
-6.77098e-06
-0.00242923
9.64466e-09
1.16188e-07
-3.21345e-05
8.21612e-08
8.49411e-07
0.00182704
2.56743e-07
-3.29098e-05
0.00854239
-0.017895
5.47897e-09
-1.08322e-06
1.60336e-08
3.26363e-08
1.11125e-05
-1.65817e-08
2.30056e-08
-1.17459e-06
-3.102e-08
-8.44564e-05
-1.29321e-07
-1.2129e-06
-2.17129e-07
0.00413698
-2.09513e-08
-5.6953e-07
2.02561e-06
-0.00123317
1.93516e-07
-8.26304e-06
-5.68634e-07
-3.93623e-08
8.66032e-08
1.03261e-07
-6.93984e-08
1.7136e-06
7.83457e-06
2.78468e-07
-5.5149e-08
-5.26327e-07
7.06343e-08
1.57414e-07
2.18356e-07
-1.95597e-07
4.17352e-08
4.89157e-07
-4.44285e-07
-1.12243e-07
-0.00752131
1.44061e-08
-3.46607e-07
4.63504e-06
-2.37703e-07
-1.86791e-08
-0.000803878
-0.00431967
-0.00978866
-0.0160991
1.43371e-06
2.19797e-07
-9.48813e-07
-0.00496877
0.00131456
-0.00113252
-0.000997371
-0.000822884
-9.54075e-08
0.000644687
-0.00306713
-4.22344e-07
8.5386e-07
-4.75091e-07
-0.000469667
-7.43318e-05
0.0306431
-8.03126e-07
1.26529e-07
-9.45472e-06
1.61855e-07
1.33268e-07
0.000964357
0.00276068
-5.35711e-08
8.7501e-09
4.03637e-07
0.0131681
2.63585e-07
2.00292e-07
1.90786e-08
7.23166e-08
1.14376e-07
4.5085e-05
6.10602e-08
8.85504e-08
1.00586e-07
-1.16871e-06
-0.00239359
0.00163117
-6.07974e-08
2.73686e-07
-1.14583e-06
-6.15241e-08
9.89786e-08
2.14367e-08
0.0151802
1.01221e-07
1.20493e-06
1.69952e-08
4.29194e-08
-5.8367e-08
-9.21116e-08
-0.010239
-0.000185605
1.02859e-07
2.84272e-08
-0.000591977
-0.0104821
-9.39691e-05
-0.000530743
-1.084e-08
-1.24308e-06
5.98118e-08
1.01038e-07
2.17497e-07
1.54844e-07
8.881e-08
-9.13456e-09
-5.2386e-07
1.25408e-05
-1.20781e-07
-0.0035213
0.00269306
-2.16186e-09
-8.7158e-06
-1.54287e-06
-6.69558e-07
2.53627e-08
4.37504e-08
-6.32352e-07
1.85518e-07
-0.00124477
6.36544e-08
2.93439e-07
-0.00323152
7.78205e-08
-4.40385e-08
7.4933e-08
-2.54814e-06
1.30525e-08
9.97686e-09
0.00369639
-1.97059e-08
4.74242e-08
2.27839e-07
-5.18195e-05
-1.50685e-08
3.75625e-08
6.75795e-08
-1.37722e-07
-0.0040954
0.000767445
1.30138e-07
0.000609785
9.01132e-08
-3.80326e-08
-5.08308e-07
-0.000409632
2.43328e-05
-1.5901e-08
6.85812e-07
-5.19903e-08
4.81515e-08
2.59218e-07
4.80605e-08
-0.00129568
-0.000962965
-1.34079e-08
-5.47136e-07
2.0716e-05
6.26936e-08
1.75122e-07
-1.33456e-07
-1.36416e-06
0.0027074
-3.09934e-08
-1.3075e-06
0.00298873
7.03248e-08
-1.45503e-07
-6.3257e-06
0.0114375
-3.70686e-08
8.83754e-08
5.83573e-07
3.41634e-07
9.26812e-08
-0.00113002
1.5655e-07
0.00422884
-0.000236323
5.08036e-08
-3.71191e-08
-0.00067076
2.19069e-06
-0.0017424
-0.00156245
-0.000435486
-1.02108e-06
8.66947e-09
8.32851e-08
-9.27803e-05
3.8109e-08
-9.81816e-06
9.36833e-08
-1.71026e-08
3.43751e-08
1.01182e-07
5.11231e-08
-0.00604088
-5.36738e-07
0.0019948
-0.0026001
1.03843e-06
-0.0112015
8.2311e-08
2.75862e-08
2.37609e-07
-0.000465484
1.30888e-08
1.69984e-05
-1.83295e-05
-2.6625e-08
7.81035e-08
-0.000757696
6.48936e-08
-7.22378e-07
-0.00065468
1.15219e-07
-0.000245914
-5.57046e-07
-1.2007e-06
-0.000238616
1.41148e-08
7.11664e-08
9.40055e-07
0.000295183
3.64315e-07
2.7633e-07
-8.01548e-10
1.51086e-06
2.5486e-08
-0.00272267
1.22336e-07
3.16153e-07
-2.47936e-05
1.19909e-07
-0.00190381
1.11115e-08
2.92307e-08
4.18041e-07
-0.00223216
1.02538e-07
3.70911e-08
0.00329566
-0.000232516
-7.61369e-05
8.18463e-07
1.23231e-07
-7.71614e-07
-3.30172e-05
-0.000111784
8.63091e-08
1.46324e-07
1.56874e-07
-4.87994e-07
-3.11589e-08
-1.2171e-07
-4.57466e-07
3.36333e-07
-2.9383e-09
-5.95811e-06
-7.35644e-08
6.48811e-08
2.84982e-08
-4.341e-07
7.26511e-08
-5.85835e-07
-2.89805e-05
-0.00141517
8.7663e-08
-2.02821e-06
-0.000315728
0.0048188
7.56687e-08
8.42551e-08
-5.33216e-07
1.32526e-06
-3.2173e-08
9.67722e-07
6.27018e-08
1.17478e-07
3.5971e-08
1.29267e-06
4.9946e-08
0.00155007
9.329e-09
-1.57558e-07
-4.61681e-06
-2.3585e-07
8.17731e-07
-1.0634e-07
-7.12594e-10
-0.00114907
0.000511619
-3.87776e-07
-2.47536e-08
2.02679e-06
7.53496e-08
-3.70791e-09
1.14373e-07
9.68663e-07
6.01958e-08
1.28397e-08
3.16416e-06
8.2649e-08
-1.48807e-06
-1.27779e-07
1.42811e-07
-6.67401e-08
0.000538068
0.000418335
8.09195e-05
0.000162104
-2.54024e-07
8.5323e-08
1.8372e-08
6.05814e-08
5.85423e-07
-9.53467e-08
0.000325046
0.00835456
-1.22895e-06
-2.81256e-06
-0.0010317
-1.07803e-07
0.00087712
-1.10114e-06
0.00205835
6.72137e-06
-4.13687e-08
-6.12327e-08
-3.2872e-07
7.06955e-08
-0.000390332
0.00152022
-5.38694e-05
3.29745e-07
-4.67214e-08
2.7341e-08
-0.000549684
-8.87358e-07
7.01581e-05
3.63632e-08
-1.98448e-08
-6.63541e-05
1.54465e-07
-0.000601992
0.000293406
1.26568e-08
-1.4388e-07
8.3231e-08
5.58735e-07
-0.000408516
-0.00729508
1.42927e-08
1.78211e-07
4.97438e-08
-0.00086292
1.43956e-08
3.82533e-07
1.21284e-06
2.58494e-05
0.00739172
-0.000261503
-0.00283544
1.5763e-08
7.96596e-07
-5.85515e-08
2.30367e-07
2.64789e-07
0.000157785
6.79192e-08
3.02073e-07
0.000202942
2.4536e-07
-3.07855e-07
-0.00133696
-1.04827e-07
2.37616e-07
0.000238034
1.94036e-05
-9.67155e-08
-1.13695e-09
1.13498e-06
-0.00115799
1.86424e-06
-0.00580299
9.37092e-07
-0.000790126
6.26371e-08
-9.29401e-05
-0.000142139
0.010004
0.00172864
-1.77026e-05
0.00245532
0.000336706
4.60209e-06
5.15542e-08
4.66368e-08
1.78933e-07
5.04589e-08
0.000474462
-1.68227e-08
2.65202e-06
1.22816e-07
-6.52157e-07
1.90857e-07
-0.00179715
6.66864e-08
7.74835e-05
-3.60109e-07
3.25926e-06
8.30859e-05
-8.47491e-05
0.000281929
5.055e-08
-3.25306e-08
1.68889e-09
0.000111741
1.61483e-07
-3.00598e-05
0.000405363
4.75411e-06
-0.00380134
-2.11816e-08
-0.00394413
-2.06661e-07
1.03736e-05
-1.35839e-07
-7.74683e-05
3.82312e-08
4.63872e-08
1.83007e-08
0.000627562
-3.36413e-07
9.48961e-07
0.00115276
-2.13047e-06
0.00036174
5.33851e-08
-3.17448e-08
-3.79213e-05
9.27099e-07
-0.00128607
0.000982005
-1.36318e-07
0.000194968
-0.00205339
9.06611e-07
-2.11579e-08
0.000913808
-0.000370606
-3.19227e-08
-2.60177e-05
-1.11118e-08
-0.00128088
0.000824309
0.00109345
0.000952947
3.06761e-10
-7.62034e-09
-2.61976e-07
2.01267e-08
2.39484e-06
-4.90143e-08
1.03703e-07
-8.45602e-08
0.00984717
-7.36633e-07
-3.5194e-08
-1.77674e-07
-0.000404314
0.000555227