/*--------------------------------*- C++ -*----------------------------------*\
| =========                 |                                                 |
| \\      /  F ield         | OpenFOAM: The Open Source CFD Toolbox           |
|  \\    /   O peration     | Version:  v2012                                 |
|   \\  /    A nd           | Website:  www.openfoam.com                      |
|    \\/     M anipulation  |                                                 |
\*---------------------------------------------------------------------------*/
FoamFile
{
    version     2.0;
    format      ascii;
    class       surfaceVectorField;
    location    "800";
    object      ddtCorrDdt0(Uf);
}
// * * * * * * * * * * * * * * * * * * * * * * * * * * * * * * * * * * * * * //

dimensions      [0 1 -2 0 0 0 0];


internalField   nonuniform List<vector> 
14516
(
(-0.0499674 -0.0452717 9.42035e-19)
(-0.0456516 -0.0491295 2.83697e-19)
(-0.043035 -0.0415641 2.48821e-18)
(-0.0247319 -0.00960914 3.17833e-20)
(-0.0214074 0.00386971 -7.67423e-19)
(-0.0286254 0.00366012 -2.79748e-18)
(-0.0549517 -0.041127 -2.02187e-18)
(-0.0600935 -0.050096 -7.79034e-20)
(-5.48175e-05 9.37477e-06 6.76408e-21)
(-5.25405e-05 9.30865e-06 1.98663e-20)
(-5.41471e-05 1.15135e-05 3.30639e-20)
(0.129188 -0.102097 -1.0798e-18)
(0.101669 -0.139043 2.21448e-18)
(0.142515 -0.0897805 -2.26425e-18)
(0.00587591 0.00440343 5.20846e-20)
(0.00513442 0.00460525 2.13551e-20)
(0.00520342 0.00380676 -3.91844e-20)
(-8.7288e-05 8.21788e-06 4.86719e-19)
(-9.5493e-05 9.91986e-06 -3.23087e-19)
(-8.93625e-05 1.7161e-05 -2.25153e-19)
(-0.00034835 0.000272068 2.68763e-20)
(-0.000313338 0.000237107 -3.56098e-20)
(-0.000363404 0.000203623 -7.7286e-20)
(7.43611e-05 -0.00107421 -3.1764e-19)
(0.000175531 -0.00104405 -5.87346e-18)
(0.000104727 -0.00117088 -1.96041e-18)
(0.121176 -0.107282 -8.33462e-19)
(0.147792 -0.0728831 -5.95687e-18)
(0.0170923 -0.0219697 -1.3736e-18)
(0.0187837 -0.0228598 -1.06203e-18)
(0.0184936 -0.0201639 -3.09702e-18)
(0.052066 -0.00585011 -2.32724e-19)
(0.0553484 -0.00455819 1.2634e-19)
(0.0543862 -0.00882043 1.50451e-19)
(-5.50358e-05 5.43997e-06 -3.45519e-20)
(-5.1286e-05 6.80074e-06 4.88914e-22)
(-0.00240017 -0.00142704 2.39834e-20)
(-0.00230093 -0.00181276 -1.79288e-19)
(-0.0019891 -0.00153581 1.12697e-20)
(-1.25198e-05 1.90601e-06 -9.88474e-20)
(-1.43718e-05 1.86127e-06 5.44741e-20)
(-0.00242801 -0.00107053 2.47754e-19)
(-0.00241739 -0.000724489 2.14724e-19)
(-0.00207325 -0.000907169 7.79252e-22)
(-0.00454557 -0.00307272 -1.4208e-19)
(-0.00365507 -0.00315263 9.84242e-19)
(-0.00402835 -0.00246672 -6.83003e-19)
(-0.00544211 -0.002827 5.61175e-20)
(-0.00503535 -0.00383342 1.77333e-19)
(-0.0559812 -0.0358645 -1.79305e-18)
(-0.0520521 -0.0429178 1.66037e-18)
(-0.0295316 -0.0269155 8.90379e-19)
(-0.00284128 -0.00128129 -2.26431e-19)
(0.0574974 0.0650242 -6.67134e-19)
(0.0372307 0.086446 -2.44864e-18)
(0.047059 0.0655095 -1.62629e-18)
(-0.00754604 -0.000101558 -1.86626e-19)
(-0.00783394 -0.000675269 2.94652e-20)
(-0.00712429 -0.000647172 -2.98999e-19)
(0.0287537 0.0468862 -1.72936e-19)
(0.0219267 0.0600303 -6.75379e-19)
(0.0309963 0.0505712 -5.85088e-19)
(-0.000589758 0.000236094 7.45615e-20)
(-0.000507602 0.000194883 9.64913e-20)
(-0.00288 -0.00443474 -5.54277e-19)
(-0.0025126 -0.00493649 -1.17513e-19)
(-0.00336814 -0.00508262 -1.31696e-19)
(-6.03917e-05 1.88588e-06 -5.49747e-20)
(-6.19406e-05 4.23322e-06 -1.67863e-19)
(-0.00282504 0.000170353 1.18911e-19)
(-0.00302239 -0.000197308 -3.63019e-19)
(-0.00329637 0.000189382 -7.43694e-20)
(-0.00136267 -0.00240105 -1.52519e-19)
(-0.0010625 -0.00271253 4.86912e-20)
(-0.000954213 -0.00226785 1.80907e-19)
(0.000289626 -0.0287893 2.72246e-19)
(0.00124425 -0.0272501 1.26626e-18)
(-0.000944825 -0.0277222 6.45991e-20)
(4.27278e-05 -0.00100291 1.31847e-18)
(5.53439e-06 -0.00109739 1.30189e-19)
(0.0218552 0.00304841 1.18196e-19)
(0.0234571 0.00355533 2.05974e-19)
(0.0215967 0.0051187 3.4083e-19)
(0.0351575 0.0314368 -4.59083e-20)
(0.0263287 0.0413666 -1.64752e-19)
(0.0571196 -0.0599732 -1.82981e-18)
(0.0519499 -0.0840909 1.5604e-18)
(0.0562131 -0.0607435 2.62417e-19)
(-2.80316e-05 1.07981e-06 -3.75345e-19)
(-2.68856e-05 6.62227e-07 2.66225e-19)
(-2.43458e-05 -2.31602e-07 1.35698e-19)
(-0.000911165 -0.0308321 -6.22129e-19)
(-0.00259394 -0.0328699 1.18109e-19)
(-0.00396883 -0.0311613 6.04737e-19)
(-0.0564742 0.166274 7.98377e-18)
(-0.121391 0.196014 5.06576e-18)
(-0.109118 0.213842 9.73481e-19)
(-7.94681e-05 7.31472e-06 3.1254e-19)
(-7.26674e-05 5.00858e-06 7.406e-19)
(-0.00790222 0.000468447 -4.87108e-19)
(-0.00714758 0.000457858 -5.84214e-19)
(-0.000594821 0.00054333 -1.24227e-19)
(-0.000659083 0.000662814 -1.32814e-19)
(-0.000727569 0.000518624 -3.8193e-19)
(-4.16911e-05 -1.09322e-05 1.87863e-19)
(-3.62295e-05 -9.27879e-06 1.39274e-19)
(-3.96713e-05 -1.42333e-05 -5.68829e-20)
(0.0198529 0.0024318 9.38235e-20)
(0.0216688 0.000569098 6.33232e-20)
(-1.01212e-05 2.9986e-06 2.21431e-19)
(-1.11423e-05 1.12517e-06 5.41435e-20)
(-6.77318e-05 1.76474e-06 -4.1909e-20)
(-6.28602e-05 1.30601e-06 1.68224e-20)
(-6.77552e-05 -1.30641e-06 -2.52753e-19)
(-7.11925e-05 1.41613e-05 -2.22726e-19)
(-7.79455e-05 1.06572e-05 -1.7936e-19)
(-7.6316e-05 1.83864e-05 -2.58737e-19)
(-7.08061e-05 5.16496e-07 4.32187e-20)
(-7.03694e-05 4.26086e-06 1.92467e-20)
(-5.99046e-05 1.6175e-06 1.65551e-20)
(0.00178112 -0.0304012 -1.0567e-18)
(0.0246967 -0.0220598 1.04254e-18)
(0.0249489 -0.0260085 -2.09677e-18)
(0.0204781 -0.0234342 8.16522e-20)
(0.0295996 -0.0307834 -5.9798e-19)
(0.0321841 -0.0277414 -1.62679e-19)
(0.0292715 -0.0265123 8.8259e-20)
(-4.74037e-05 1.29489e-05 8.64892e-20)
(-4.91154e-05 6.71158e-06 4.43139e-21)
(-0.00388247 -0.0350992 -3.08448e-19)
(-0.00045455 -0.0345687 2.02151e-19)
(0.0163412 -0.0276601 6.3107e-19)
(0.0182417 -0.02683 -8.42735e-19)
(0.0163937 -0.025372 2.5616e-19)
(0.00349232 0.00607562 1.81502e-20)
(0.0042414 0.00617724 -5.87528e-20)
(0.0037231 0.00691753 -1.50842e-19)
(-0.00121435 -0.0013892 -1.84821e-18)
(-0.00112283 -0.00126489 1.79242e-18)
(-0.00130328 -0.00126251 1.82128e-18)
(0.0175555 -0.0633051 1.63338e-19)
(0.0213448 -0.0639382 -3.38375e-19)
(0.0179414 -0.059771 4.79558e-19)
(0.0865812 0.0518793 -3.15735e-20)
(0.0591573 0.0893784 1.71837e-18)
(0.104794 0.0195027 1.58291e-18)
(4.69778e-05 -0.000305525 2.54444e-19)
(4.43897e-05 -0.000275801 6.22672e-19)
(0.0342673 -0.0173751 2.74676e-18)
(0.0330487 -0.0155316 9.77155e-19)
(0.0320015 -0.0178626 1.6466e-17)
(0.0662595 0.00636825 4.65055e-19)
(0.059442 0.0190345 -1.125e-18)
(0.0556204 0.00915538 9.77163e-19)
(-0.000554919 0.000465309 2.4954e-19)
(-0.000505794 0.000540216 1.24329e-19)
(-4.35027e-05 -2.96184e-06 -2.93342e-19)
(-4.2303e-05 -2.14825e-06 -1.24093e-19)
(-4.85429e-05 -3.27194e-06 3.32752e-19)
(0.000994826 0.0067286 -7.13203e-20)
(0.00163468 0.00702171 1.8718e-20)
(0.000947817 0.00758922 -2.85728e-20)
(0.0575936 -0.019355 9.07147e-19)
(0.0593522 -0.0142355 -2.51582e-19)
(0.0521337 -0.0218855 3.17368e-20)
(-0.000106282 -1.09511e-06 1.38909e-20)
(-0.00010686 -3.1775e-06 4.33558e-19)
(-0.000108094 -2.61693e-06 3.74589e-19)
(0.192199 -0.0157784 -6.12342e-19)
(0.164479 -0.0509806 -1.50993e-18)
(0.053711 -0.0352549 2.96674e-19)
(0.0520805 -0.0516101 -2.97511e-18)
(0.0481345 -0.0456615 -2.73706e-18)
(0.0525302 -0.0263865 -8.42334e-20)
(0.0625385 -0.0216042 -1.55022e-19)
(0.0473207 -0.0305556 3.42283e-18)
(0.0420499 -0.0344517 -1.20043e-18)
(0.049432 -0.0332472 6.25249e-19)
(0.0491262 -0.00689368 -2.65984e-19)
(0.0491446 -0.00344312 2.80433e-19)
(0.0162218 -0.0232026 1.49711e-18)
(0.015476 -0.0213018 -4.37342e-19)
(0.0177922 -0.0665495 -9.72574e-19)
(0.0132528 -0.0631238 -2.73078e-19)
(-4.35906e-05 3.86329e-06 -9.19985e-22)
(-4.60341e-05 7.3386e-06 -2.66698e-21)
(-5.02729e-05 2.6297e-06 3.96536e-21)
(0.000369253 0.000267144 7.69037e-20)
(0.000368462 0.000324006 5.81321e-20)
(0.000443051 0.000297469 9.89005e-20)
(-0.038699 -0.0153277 1.93833e-18)
(-0.0358578 -0.0121879 6.75273e-19)
(-0.0346379 -0.0204611 -8.59556e-19)
(-0.00599276 -0.0366717 -2.79541e-20)
(-0.00327969 -0.0390243 -9.9019e-20)
(0.0727583 -0.0162631 1.64627e-20)
(0.0737067 0.00226211 7.72551e-19)
(1.89351e-05 -0.000338357 -7.72758e-19)
(-9.72585e-06 -0.000373749 6.72923e-20)
(-3.98147e-06 -0.000332516 9.17279e-19)
(-0.00313221 0.000685655 3.38014e-19)
(-0.00307355 0.00113814 -1.02484e-19)
(-0.0036599 0.000831633 -1.34779e-19)
(0.00467645 -0.00298301 -1.89174e-20)
(0.00459729 -0.00231553 4.04195e-19)
(0.00399825 -0.00268076 -4.92153e-19)
(-0.000130001 -0.00347797 4.2095e-19)
(0.000327663 -0.00314349 2.4399e-19)
(-0.000246835 -0.0030217 -5.18986e-19)
(0.0564367 -0.0277068 1.96055e-19)
(0.0523697 -0.0252573 1.58218e-19)
(0.00540798 -0.000560262 4.02707e-19)
(0.00505054 -2.45609e-05 1.66856e-19)
(0.00465263 -0.000603298 -1.64403e-19)
(-0.00879762 0.00382668 1.00244e-19)
(-0.00652771 0.0163301 6.45675e-20)
(-0.00194044 0.00468931 -2.17971e-19)
(0.0199405 -0.00833428 -2.86235e-19)
(0.0192739 -0.012424 1.37085e-18)
(0.0173081 -0.00982021 6.01983e-19)
(0.0178705 0.00211451 5.68413e-19)
(0.017931 0.00407066 4.62085e-19)
(0.0200281 -0.0203472 -1.1647e-18)
(0.0226023 -0.0203791 -1.47058e-19)
(0.0174366 -0.0204171 3.05533e-19)
(7.13876e-05 -0.00406905 -1.28909e-19)
(-0.000649546 -0.00383795 3.80945e-19)
(-3.86621e-05 -0.000400972 5.24782e-19)
(-7.24919e-05 -0.000429814 4.41963e-19)
(-6.37418e-05 -0.00038779 5.49877e-19)
(0.000925691 0.00599081 5.86262e-20)
(0.000889302 0.00528874 2.25143e-20)
(0.00141599 0.00548346 2.06288e-20)
(0.0049869 0.00171366 4.52543e-19)
(0.00555539 0.00126945 -7.71618e-20)
(0.00572208 0.00209768 2.77495e-19)
(-0.0214218 -0.0215727 -6.15069e-20)
(-0.0278243 -0.0221299 3.00401e-19)
(0.0590493 -0.0664884 3.92391e-19)
(0.118968 -0.0119204 1.24756e-18)
(0.0656434 -0.0587398 2.46477e-18)
(0.000747628 0.00101985 3.186e-19)
(0.000813342 0.00119376 1.54919e-19)
(0.000932841 0.00102596 4.30058e-19)
(0.0391637 0.0171618 3.70388e-19)
(0.0418884 0.0197038 -6.53647e-19)
(0.000320059 0.00642901 2.52823e-21)
(0.0228921 -0.00695183 1.73649e-19)
(0.0193578 -0.0052901 6.77304e-20)
(0.0933499 0.0303418 3.6045e-18)
(0.0697557 0.080533 -1.53139e-18)
(-0.0150957 0.00365339 -6.05807e-20)
(-0.0113952 -0.00952522 -1.75567e-19)
(0.00057457 0.000979013 2.94151e-19)
(0.000673184 0.000866753 1.24897e-20)
(0.000770137 -2.27475e-05 -3.88863e-20)
(0.000858367 3.40375e-05 -9.18499e-20)
(0.000721779 6.44098e-05 8.35168e-20)
(0.000811203 -0.000132457 -2.46991e-19)
(0.000683116 -8.59639e-05 -7.7688e-20)
(0.00241088 0.00364129 -6.08095e-19)
(0.00300403 0.00365599 7.4161e-20)
(0.00268414 0.00427703 3.25337e-19)
(-0.000630924 0.000182875 1.93698e-19)
(-0.00064802 0.000285282 -5.30975e-20)
(-0.000729412 0.000208944 7.57636e-20)
(-0.000545449 0.000164803 2.08691e-20)
(-0.00061056 0.000100116 7.07206e-19)
(-0.00272101 0.000602078 7.8967e-20)
(-0.00313258 0.000245277 -3.03494e-20)
(0.0161854 0.00185678 -2.60354e-19)
(0.0177428 0.000221435 -1.1273e-19)
(0.000640006 0.00482723 -4.09715e-20)
(0.000309492 0.00522267 -3.89431e-20)
(-9.77976e-06 -3.99875e-06 2.63826e-19)
(-5.64022e-06 -4.25698e-06 -1.47822e-19)
(-5.39803e-06 -7.42418e-06 -3.14211e-19)
(0.00320181 0.00532307 -7.69107e-21)
(0.00273325 0.00589584 -2.39331e-20)
(0.0204363 -0.0465764 1.31668e-19)
(0.0145068 -0.0535085 3.84411e-19)
(0.0143145 -0.0443103 8.56237e-22)
(-4.34597e-05 1.73082e-06 -6.03115e-20)
(-3.85832e-05 3.6128e-06 1.56939e-20)
(0.0736355 0.0333922 2.29744e-19)
(0.0658428 0.0280382 -6.32679e-19)
(0.0785052 0.024592 1.49264e-18)
(4.54323e-05 -0.000180957 -6.11236e-19)
(4.63202e-05 -0.000200236 -6.4525e-19)
(-0.121502 0.316955 -5.92569e-18)
(-0.0667446 0.270273 3.47752e-18)
(-0.0889486 0.310901 -1.74578e-18)
(0.0144032 -0.0283975 -1.81601e-18)
(0.016203 -0.0298041 8.10921e-19)
(4.67827e-05 -0.000351318 -2.65433e-19)
(0.0358673 -0.111189 -1.86772e-18)
(0.0240014 -0.132708 -6.09798e-19)
(0.0227881 -0.118892 -3.64171e-18)
(-0.00787126 -0.0388904 2.91845e-19)
(-0.00832421 -0.0350695 3.26032e-19)
(0.00574805 -0.00124537 6.93031e-21)
(0.00623351 -0.000573848 3.79124e-20)
(0.0360476 0.015415 2.8851e-19)
(0.0412614 0.00692013 -4.38777e-20)
(0.0234401 -0.0406953 -1.87239e-19)
(0.0270778 -0.0480125 5.54596e-19)
(-4.48957e-05 1.9177e-06 2.41222e-21)
(-4.3733e-05 -5.7961e-07 1.11629e-20)
(-4.66569e-05 -2.10748e-08 7.6723e-21)
(-0.000341492 -0.000255308 2.43605e-19)
(-0.000377309 -0.000278301 8.99003e-20)
(-0.000338637 -0.000278639 2.58125e-19)
(0.00663446 0.0039805 -5.38045e-20)
(0.00661574 0.00491055 -5.21424e-20)
(-0.00174723 -0.00255943 1.24104e-18)
(-0.00201058 -0.00264562 -1.21394e-19)
(-0.00188217 -0.00235606 -1.89605e-18)
(0.0676358 0.0618591 -3.90123e-19)
(0.0608559 0.053859 -5.08398e-19)
(0.0150649 -0.00915598 -3.34576e-18)
(0.0145469 -0.00832289 -8.37655e-18)
(0.0140565 -0.00925392 -1.68958e-18)
(0.018694 -0.0192651 -5.84667e-19)
(0.0228818 -0.0204361 -3.5078e-19)
(0.00474749 -0.00376059 -1.03233e-18)
(0.00546191 -0.00337184 8.45544e-20)
(-3.68314e-05 0.000254307 4.79124e-19)
(-6.78344e-05 0.000226034 1.73193e-19)
(-3.37744e-05 0.000230429 1.37801e-19)
(-3.9607e-05 1.77475e-06 -3.13448e-20)
(-4.11603e-05 2.53622e-06 -4.18529e-20)
(-4.26931e-05 -1.36561e-07 1.37386e-19)
(-1.13179e-05 -0.000415749 -5.36663e-19)
(-5.94303e-06 0.000277355 5.69619e-20)
(-4.3128e-05 0.000279797 -3.24582e-20)
(2.12166e-05 0.00497769 3.73728e-19)
(-0.000579719 0.00521538 -1.46723e-19)
(-0.000451611 0.00449096 3.72728e-19)
(1.67258e-05 -0.000932262 -5.87369e-19)
(9.26302e-05 -0.000912851 9.44374e-19)
(-0.00010857 -0.000457597 -1.05435e-18)
(-0.000151995 -0.000488308 -1.05891e-19)
(-0.000134713 -0.000441492 -4.14851e-19)
(-9.7968e-05 -2.76721e-06 -6.86259e-19)
(-0.000107386 -2.58829e-06 -2.0491e-19)
(-6.50305e-05 1.14556e-05 3.05987e-19)
(-6.19138e-05 2.08258e-05 -1.88825e-19)
(3.3804e-05 -0.000177817 8.62571e-19)
(4.53351e-05 -0.000168508 6.32319e-20)
(-2.89363e-05 1.99759e-05 2.31187e-19)
(-2.76508e-05 2.65233e-05 1.76988e-20)
(-3.42518e-05 2.10379e-05 1.88564e-19)
(-0.000342003 -0.000229311 3.43335e-19)
(-0.000315397 -0.000242425 5.97295e-19)
(-0.00351127 -0.00343385 7.35737e-20)
(-0.00325197 -0.00394156 -7.7909e-19)
(-0.00402817 -0.00389462 -2.61443e-19)
(-0.000101196 -1.52563e-05 -1.69798e-19)
(-9.58686e-05 -1.83222e-05 -3.16888e-20)
(-9.852e-05 -1.26938e-05 -2.34424e-19)
(0.000880284 -0.000568806 2.25027e-19)
(0.000756059 -0.000587303 -1.96742e-19)
(0.000832151 -0.000751412 -5.32368e-20)
(-0.0026942 -0.00216734 4.73509e-19)
(-0.00219501 -0.00221292 7.12769e-19)
(-0.00291072 -0.00308147 -5.13066e-21)
(-0.00308966 -0.00255488 1.03008e-18)
(-0.00356682 -0.00300988 -9.50145e-19)
(-0.0400425 0.00888126 -2.32025e-19)
(-0.0365912 0.0171384 -2.49511e-18)
(-0.039174 0.0195318 -1.00913e-17)
(0.000873817 -0.000411242 -2.99779e-20)
(0.00104076 -0.000534726 1.18106e-19)
(0.000138326 0.000814583 -1.36691e-20)
(0.000269265 0.000877653 2.11619e-19)
(0.000114003 0.000949232 1.27703e-19)
(0.0293986 -0.0896077 9.55802e-19)
(0.0630143 -0.0627716 2.28346e-18)
(-0.150737 -0.255663 1.40598e-19)
(-0.145539 -0.196616 3.38915e-19)
(-0.160987 -0.238505 -1.59976e-18)
(-3.72067e-05 -1.48435e-06 -2.06062e-19)
(-3.8325e-05 1.06771e-06 -8.14046e-20)
(-0.116076 -0.245203 -1.98298e-19)
(-0.13244 -0.285886 -7.511e-19)
(0.1036 -0.134332 2.65664e-19)
(0.123729 -0.0934442 -1.29636e-18)
(1.10909e-05 0.000745574 -7.9987e-20)
(0.000139277 0.000707729 -2.17383e-19)
(-3.97723e-05 2.75351e-06 -1.17261e-21)
(-3.82488e-05 4.01289e-06 -7.6132e-21)
(-1.09743e-05 3.80994e-06 -1.2376e-20)
(-1.3836e-05 3.01423e-06 3.08245e-19)
(-1.23577e-05 5.78141e-06 -2.26317e-19)
(-0.00372196 -0.00292441 3.08591e-19)
(-0.00312155 -0.00309872 -6.39382e-19)
(0.000858846 -0.000255057 -3.80738e-19)
(0.000746878 -0.000311127 4.27085e-20)
(-0.000103595 -1.65071e-05 6.46176e-20)
(-0.000103976 -1.2085e-05 2.99954e-20)
(-0.000394645 0.000300853 1.51001e-19)
(-0.00033451 0.000335667 -5.9055e-20)
(-0.00148596 -0.00207225 3.45664e-19)
(-0.00173327 -0.00244991 -4.04317e-19)
(-0.00191522 0.000374547 -2.15018e-19)
(-0.00172415 0.000594874 -2.9821e-20)
(-0.00203686 0.0006729 -7.53259e-20)
(-0.0622838 -0.0283578 2.49963e-18)
(-0.077287 -0.0186817 1.08803e-20)
(-0.0498357 -0.0189301 8.24272e-21)
(-0.0430332 -0.0017559 -2.73406e-19)
(-0.0413745 -0.0093189 1.84279e-19)
(-0.0409466 0.00106362 5.51381e-19)
(0.00616251 0.118244 -1.20988e-19)
(-0.000142192 0.111153 2.75341e-18)
(0.0281276 -0.0210687 -1.22152e-19)
(-0.00889298 -0.0106553 9.40005e-19)
(-0.00838131 -0.00980116 9.70301e-19)
(-0.0095647 -0.0097017 2.89832e-19)
(-0.00242215 0.000141159 6.03174e-19)
(-0.00263865 0.000491571 4.81189e-19)
(0.00142878 0.00268467 -5.7545e-19)
(0.00186714 0.00274557 3.82455e-19)
(0.00161535 0.00234373 -4.92049e-19)
(0.00114339 -0.00123472 1.08263e-19)
(0.00119542 -0.000972378 -2.33779e-19)
(0.000975994 -0.00114684 2.02676e-19)
(0.00304858 0.203411 2.58437e-18)
(0.00929373 0.208164 -5.36555e-18)
(0.0105352 0.197336 4.05678e-18)
(-0.0439427 -0.00650135 1.92632e-20)
(-0.0437646 0.00552027 -2.73949e-19)
(-0.00362104 0.204567 -5.81027e-18)
(-0.00332191 0.195799 3.09154e-19)
(-0.00130026 -0.00241665 -4.07982e-18)
(-0.00151502 -0.00252039 1.50902e-19)
(-0.0014115 -0.00224589 -3.61573e-18)
(-0.0691657 -0.036145 -1.85384e-18)
(-7.895e-05 -0.000476494 -4.08575e-19)
(-0.000488707 3.55307e-05 -4.82441e-20)
(-0.000415559 3.4493e-05 1.80191e-20)
(-0.000450211 -1.3182e-05 -1.911e-20)
(8.9364e-05 0.000388143 -2.86321e-19)
(6.71092e-05 0.000422988 -2.90905e-20)
(3.89021e-05 0.000364461 -1.34029e-19)
(0.00124454 -0.012846 2.85648e-18)
(0.00092567 -0.0135969 -6.82285e-20)
(0.00197272 -0.0132691 -1.86956e-18)
(0.0765043 -0.00281941 -9.32247e-18)
(0.0794643 -0.000908701 1.1103e-17)
(0.0753341 0.00327686 1.16976e-18)
(0.00111679 -0.00352633 1.67248e-18)
(0.000986842 -0.00330685 5.46708e-19)
(0.000843734 -0.00356265 1.91419e-18)
(0.000978917 -0.000205968 -2.78446e-19)
(-0.00256498 -0.00393517 -7.70593e-19)
(0.0452458 -0.146569 -1.84135e-18)
(0.049457 -0.097762 -8.68635e-19)
(0.0301486 -0.159201 -5.32965e-18)
(0.000310997 0.000244498 5.0995e-20)
(0.000364669 0.000210047 -1.39747e-19)
(0.0357716 -0.0195032 2.45286e-18)
(0.0367003 -0.0167864 -1.37509e-18)
(0.000144731 0.000405225 1.31846e-20)
(0.000100956 0.00034609 -1.11265e-19)
(-0.000411347 -0.00019361 -4.58087e-19)
(-0.000397357 -0.000161295 -2.24928e-19)
(-0.000438011 -0.000164879 -1.77743e-19)
(-0.00205907 0.000144238 4.88215e-20)
(-0.00175193 0.000124872 -2.59771e-19)
(-0.00119523 -0.00261577 -3.7007e-20)
(-0.00108933 -0.00235975 3.61674e-19)
(-2.0288e-06 -8.16246e-05 -2.28398e-19)
(-1.46894e-05 -8.95709e-05 -1.13051e-18)
(-7.42128e-06 -9.33707e-05 1.07611e-18)
(0.0264507 -0.0339893 -1.35068e-19)
(0.0304415 -0.0353388 -5.98135e-19)
(0.0782839 0.041441 -8.08962e-19)
(0.0654087 0.040667 2.62597e-19)
(0.0438755 -0.0301333 6.66684e-19)
(0.00180863 -0.0119183 3.66263e-18)
(0.000716068 -0.0122426 7.80273e-19)
(-0.0198978 -0.0522359 1.47813e-18)
(-0.0294722 -0.0549191 2.02737e-18)
(-0.0374259 -0.0476804 -1.41065e-18)
(0.00259662 0.00109217 1.02912e-19)
(0.00259728 0.00146502 -5.78317e-20)
(0.00227751 0.00128363 7.12446e-19)
(0.0679141 -0.178467 2.16469e-18)
(0.0820844 -0.150571 -6.47757e-19)
(-2.44984e-05 1.71953e-05 5.58841e-19)
(-2.9608e-05 1.53504e-05 1.66271e-19)
(-9.88762e-06 -0.000882343 -8.7116e-19)
(-3.61306e-05 -0.000945159 -5.52851e-19)
(-0.0972125 -0.000944482 9.47395e-20)
(-0.10713 0.0159069 2.78144e-18)
(-0.117926 0.0180654 1.15299e-20)
(0.00351612 0.179962 4.983e-18)
(0.0334465 0.137294 -7.39234e-18)
(-9.15768e-05 0.000202678 -3.09364e-19)
(-8.84454e-05 0.000179396 -8.70119e-20)
(-0.000114764 0.000176765 -5.53472e-19)
(-0.000195369 -0.000512081 1.2394e-18)
(-0.0001652 -0.000534347 7.86449e-19)
(-0.00233286 0.000485866 -2.03096e-20)
(-0.00232268 0.000852378 -1.24529e-20)
(0.0146028 0.118831 -6.6343e-19)
(-0.000484458 -0.00141001 1.36953e-19)
(-0.000612204 -0.00125229 3.23846e-19)
(-0.000728046 -0.00149784 -1.25398e-20)
(0.0145692 0.00155512 8.03572e-20)
(0.0146705 0.00319028 1.65461e-19)
(-0.00212461 -0.00456209 2.74525e-19)
(-0.00246765 -0.00433626 5.9248e-19)
(-0.00203353 -0.00412972 9.89212e-19)
(-0.00295797 -0.0178828 -7.28e-19)
(-0.00200304 -0.0168851 -3.69854e-19)
(-0.00182383 -0.0183398 1.0147e-19)
(0.0231047 -0.0366781 8.37788e-20)
(0.0233672 -0.0316949 1.08598e-18)
(0.0347219 -0.0249574 -4.81413e-20)
(0.0349056 -0.0291694 -2.49605e-19)
(-0.00129547 -0.00151648 -2.49828e-18)
(-0.00112496 -0.0015085 -2.3328e-18)
(-0.0171005 -0.0599753 -2.54995e-18)
(-0.00169872 -0.0595871 5.70177e-19)
(-1.05735e-05 2.16222e-06 -8.67627e-20)
(-6.57345e-06 4.55705e-06 3.90499e-19)
(0.000865997 0.00327117 5.64922e-19)
(0.00050054 0.00353976 -3.59732e-19)
(0.000477551 0.00306053 3.89742e-19)
(0.037886 -0.192878 1.3077e-18)
(0.0580325 -0.134301 4.34511e-18)
(-0.00205531 0.00039427 4.21706e-20)
(-0.00237775 0.00016057 1.51499e-19)
(0.0442817 -0.0197576 -1.39685e-19)
(0.0430498 -0.0198048 2.75768e-19)
(0.0438543 -0.0203763 8.04214e-19)
(-0.0156572 -0.0459955 3.99008e-19)
(-0.0192768 -0.0442012 1.15147e-18)
(-0.0195527 -0.0490967 -2.59925e-18)
(-0.000246604 -0.000354423 3.23549e-19)
(-0.00022408 -0.000374197 -2.58773e-19)
(-0.000210934 -0.000338847 -7.80344e-19)
(-0.0016529 -0.00279262 3.05521e-18)
(9.81674e-06 -7.65717e-05 -1.97998e-19)
(3.26591e-06 -6.92922e-05 3.65685e-19)
(0.0183115 -0.0164065 1.12933e-18)
(0.0216358 -0.0152132 8.4587e-19)
(-0.0939203 -0.0119406 -7.96192e-19)
(0.00477994 0.00542808 -2.67378e-19)
(0.00433092 0.00469227 -1.1736e-20)
(-7.57908e-05 0.000675742 1.13494e-19)
(-5.2091e-05 0.000583762 2.27742e-19)
(-0.000162476 0.000598327 6.43011e-19)
(-0.0127606 -0.0434696 5.14387e-20)
(-0.012578 -0.0478908 -4.5227e-19)
(0.0129615 -0.0215912 1.85988e-18)
(0.0129486 -0.0231357 -1.96141e-18)
(0.0115648 -0.0223031 1.15278e-19)
(-0.000698656 0.000172034 4.11659e-21)
(-0.000692561 0.000328904 1.57985e-19)
(-0.000529001 9.94632e-05 -3.33646e-20)
(-0.000451367 0.000164977 4.48714e-20)
(0.00136827 -0.00349846 -2.15457e-18)
(0.00122737 -0.0037936 9.41526e-19)
(-2.02944e-05 1.15291e-05 -2.95323e-20)
(-2.16006e-05 1.63456e-05 3.09653e-19)
(-2.60603e-05 1.11463e-05 -2.25182e-21)
(0.016703 -0.0136091 7.91745e-18)
(0.0162981 -0.0123686 7.21347e-18)
(0.0153007 -0.0134374 -6.36618e-19)
(0.0446947 -0.0196814 -2.87185e-19)
(0.0444101 -0.0201709 -7.37592e-19)
(4.64458e-06 -0.000167725 2.38805e-19)
(1.32461e-05 -0.00015787 -1.71164e-19)
(-1.79563e-07 -0.00017451 -6.12164e-19)
(0.000632872 -0.000767313 -1.46918e-19)
(0.000742189 -0.000890411 -2.51474e-19)
(0.00058687 -0.000932988 6.73746e-21)
(0.104783 0.00511679 3.59269e-18)
(0.100311 0.0215663 -1.16278e-18)
(0.00334785 0.00253376 -1.88572e-19)
(0.00339785 0.00199763 -1.56959e-19)
(0.00393796 0.00241749 -1.56709e-19)
(0.013195 0.00135068 -4.60785e-20)
(0.0144262 2.57983e-05 4.7772e-19)
(-0.00134436 -0.00217567 -4.72097e-20)
(-0.00174646 -0.0022241 8.6868e-19)
(-0.00148666 -0.00187327 -8.47783e-19)
(0.000285236 -0.000966485 5.74844e-20)
(0.000144778 -0.000966604 3.6325e-20)
(0.000186361 -0.00111326 1.94807e-20)
(0.0552696 -0.0567086 9.42456e-19)
(0.0604657 -0.0412026 7.73297e-19)
(0.000536456 -0.000674709 6.52843e-20)
(0.000414454 -0.000703387 2.79449e-19)
(0.000450402 -0.000576472 2.26827e-19)
(0.000415714 0.000935854 2.14443e-19)
(0.000385467 0.000803241 -8.02501e-20)
(-0.000265081 0.000252845 5.9074e-19)
(-0.000280736 0.000194142 2.25384e-19)
(-0.00385042 -0.00237495 3.25669e-19)
(-0.00439447 -0.00268041 -6.80274e-19)
(0.000429806 0.00109862 2.17597e-19)
(-2.80807e-05 2.23729e-06 -2.05125e-19)
(-2.96367e-05 8.08542e-07 -7.15533e-20)
(-0.00248122 0.00045342 -3.75423e-19)
(-0.00239158 0.000246771 -3.16377e-19)
(-0.00264163 0.000306366 -2.5613e-19)
(-0.00200951 -0.00863879 -1.00257e-18)
(-0.00145418 -0.00824442 -1.02267e-18)
(-0.00211034 -0.00809498 1.19711e-18)
(0.0122587 -0.0289816 -6.56586e-18)
(0.0126932 -0.026875 7.1679e-19)
(0.0155554 -0.0102292 2.38744e-18)
(0.0159612 -0.0112261 5.03332e-18)
(0.014842 -0.0111474 -1.68363e-18)
(7.69042e-05 -0.000737955 -8.95898e-20)
(4.51326e-05 -0.000645027 -1.54997e-19)
(-2.50225e-05 -0.000726388 -8.36409e-20)
(-0.00914115 0.00269819 -2.02855e-19)
(-0.0084677 0.00335454 5.12466e-20)
(-0.00948785 0.00365578 -1.97692e-20)
(0.00120469 -0.00076273 -1.47625e-19)
(0.00103627 -0.000696815 1.74863e-20)
(0.00120935 -0.000569876 2.64058e-20)
(-0.00256236 -0.00907933 -4.93197e-19)
(-0.00181939 -0.00924095 -1.03377e-18)
(0.00739897 -0.000277354 -6.51999e-20)
(0.00768591 0.000496737 -2.50896e-19)
(0.00681527 0.000402292 6.93155e-20)
(-9.53712e-05 -0.00120825 -7.99202e-20)
(-0.000297544 -0.00133267 1.44338e-19)
(-0.00024162 -0.00110071 -2.49238e-19)
(0.0420148 -0.0587498 7.03829e-19)
(0.0358772 -0.0758127 6.14054e-19)
(0.0361911 -0.070835 -7.40155e-19)
(0.000664943 -0.000608456 -2.02529e-19)
(0.0118873 -0.0311513 -5.30766e-18)
(0.0102143 -0.0295165 2.73928e-18)
(-3.65352e-05 -1.32142e-06 1.22809e-19)
(-3.7116e-05 -2.62236e-06 -1.54692e-20)
(-3.56373e-05 -1.78788e-06 -5.86539e-19)
(-0.00810999 -0.011608 1.96245e-18)
(-0.00958002 -0.0118008 3.71468e-19)
(-0.00130906 0.00033074 -3.32734e-20)
(-0.00149868 0.000422532 1.4648e-20)
(-0.00125205 0.000486766 -4.01091e-21)
(-0.00129336 0.000147453 2.67226e-20)
(-0.00112942 0.000258027 1.39052e-19)
(-0.00382544 -0.0190058 -6.89996e-19)
(-0.00409009 -0.0175268 -9.30362e-20)
(-0.120753 0.0380342 -6.62118e-19)
(-0.0905489 0.0149948 8.11424e-19)
(0.000770721 0.00442488 -2.50174e-20)
(0.00123916 0.00419761 -8.09392e-21)
(0.000799895 0.00388377 1.0985e-19)
(2.88196e-05 -0.00133911 3.09393e-19)
(3.7856e-05 -0.00112132 -1.20078e-19)
(-0.000757068 0.0001878 1.08129e-19)
(-0.000821478 0.000103326 7.79971e-20)
(-0.000708805 8.85177e-05 9.6159e-20)
(-0.0167837 -0.00143879 1.25504e-19)
(-0.0156165 -0.00236754 -3.80752e-20)
(-0.0154114 -0.000747481 -2.5869e-20)
(-0.000206394 -0.00038908 1.03352e-18)
(-0.000183102 -0.000407259 1.15133e-18)
(-0.000169103 -0.00036932 8.20157e-19)
(-0.0361548 -0.0184482 -4.37933e-19)
(-0.0353665 -0.0308765 -2.148e-18)
(-0.0323635 -0.0244467 -3.85451e-19)
(-0.0380163 -0.00482141 -5.12688e-19)
(-0.0399924 -0.0111814 -8.90282e-19)
(-9.87018e-05 0.000226605 2.26668e-19)
(0.0766421 0.0562648 -2.0211e-18)
(0.0860508 0.0482255 -1.18821e-18)
(-2.301e-05 -3.95336e-05 -1.56105e-19)
(-1.98531e-05 -3.40454e-05 -3.16049e-19)
(-1.3731e-05 -4.18623e-05 3.08545e-20)
(0.0161644 -0.00923389 1.78115e-18)
(-0.0039516 -0.00183844 1.4411e-19)
(-0.00342795 -0.00214231 7.80042e-19)
(-0.000934189 5.71474e-05 -1.23176e-19)
(-0.000814423 0.000132194 -8.49644e-20)
(-0.000952515 0.000192115 -1.27708e-19)
(-3.70966e-06 -5.66051e-07 -1.76302e-19)
(-8.00509e-06 2.55359e-07 -3.75377e-19)
(-3.4658e-06 5.63479e-07 -3.3633e-19)
(-4.8262e-05 -1.25189e-05 5.83708e-19)
(-4.29286e-05 -8.07973e-06 -3.88699e-19)
(-0.000260283 -0.00033288 -1.81397e-19)
(-0.000276067 -0.000368262 1.23911e-18)
(-0.00254506 0.000686936 -5.39408e-19)
(-0.0023122 0.000597056 2.43624e-19)
(-0.00638715 -0.0109016 -7.07736e-19)
(-0.00548538 -0.0103611 -2.95625e-18)
(-0.00655414 -0.0102062 5.63668e-19)
(-0.000112277 1.30823e-05 1.34852e-19)
(-0.000107169 1.44168e-05 4.84461e-20)
(-0.000108474 2.02562e-05 -1.41633e-19)
(-0.000221907 -0.000491406 -5.57712e-19)
(-0.000243949 -0.000537117 -5.49356e-19)
(3.51784e-06 -0.000205516 2.5113e-19)
(0.0440067 -0.100208 9.25574e-19)
(0.0432552 -0.0912414 -1.75553e-18)
(0.00235986 0.00454197 9.94799e-21)
(0.00296971 0.00465728 3.65947e-20)
(0.00269594 0.00410614 3.82877e-20)
(-6.8782e-05 5.79106e-06 1.51661e-19)
(-3.47302e-05 -4.32142e-06 1.75716e-19)
(-3.93255e-05 -2.6227e-07 1.45365e-20)
(-3.38216e-05 -1.98239e-06 1.44275e-19)
(0.000590183 0.00473103 4.71822e-19)
(0.00061649 0.00548532 -2.57167e-20)
(-0.00288035 -0.00264508 9.78127e-19)
(-0.00322022 -0.00261389 2.22642e-19)
(-0.00297855 -0.00234786 2.63616e-19)
(-0.00730402 -0.0115106 3.15358e-19)
(-0.00596676 -0.0117706 1.50589e-19)
(-7.69037e-05 -3.6231e-05 -2.72434e-19)
(-8.12397e-05 -4.26899e-05 -5.82294e-19)
(-7.31876e-05 -4.31276e-05 -1.50918e-19)
(0.0461098 -0.0527107 -2.64466e-19)
(0.0524366 -0.0549563 -3.92828e-18)
(0.0361776 -0.0497195 -6.91452e-18)
(-0.000121311 0.000776975 -3.75746e-21)
(0.0393499 -0.0203189 -3.89226e-18)
(0.0377405 -0.0323612 3.66272e-18)
(0.0431689 -0.0263731 6.68912e-19)
(0.00272167 -0.191582 7.31196e-18)
(0.00829931 -0.189686 3.51097e-18)
(0.00359973 -0.197291 5.15269e-18)
(-1.27951e-05 -1.22932e-06 5.82817e-19)
(-1.33174e-05 -3.01976e-06 1.67653e-20)
(-1.65823e-05 6.25559e-06 1.52163e-19)
(-1.71467e-05 9.58037e-06 -4.95503e-19)
(-6.44376e-06 1.16952e-05 -8.08757e-20)
(0.000465725 -0.00100195 5.9278e-19)
(0.000558623 -0.000893763 -2.31061e-19)
(0.000655921 -0.00108554 3.70461e-19)
(-0.0179779 -0.000345604 2.23009e-21)
(-0.0181405 -0.00238802 -6.69464e-20)
(-0.00928017 -0.00595008 -1.01401e-20)
(-0.00887342 -0.0064771 -6.19841e-19)
(-0.00840907 -0.00554641 3.80505e-19)
(-0.00391667 -0.00137719 1.83005e-19)
(-0.00348654 -0.00123528 8.63844e-19)
(-0.00386425 -0.000916479 1.46665e-19)
(0.0425424 -0.0101992 2.39224e-20)
(0.0355259 -0.0138921 3.0364e-19)
(-1.45528e-05 -2.1667e-05 -9.06278e-20)
(-1.6059e-05 -1.83048e-05 2.20595e-19)
(2.08144e-07 -2.54802e-05 -3.33889e-19)
(0.000353489 -0.00109366 3.17385e-19)
(0.000331568 -0.000905655 9.11456e-19)
(-0.00975923 -0.00539869 3.37339e-19)
(-0.0101723 -0.00640894 6.65304e-19)
(-0.00242921 0.0017662 -1.56711e-19)
(-0.0026948 0.00160069 2.24088e-19)
(-0.00267989 0.00196133 -1.03546e-19)
(-0.00167824 -0.000206487 9.35242e-19)
(-0.00153802 -0.000168966 7.26175e-20)
(-0.00158607 -0.000311428 1.33218e-18)
(0.0043507 0.00141216 9.24842e-20)
(0.00447756 0.00208091 3.67103e-19)
(0.0152875 -0.017438 3.79591e-19)
(-0.000717532 -0.00133526 3.88442e-20)
(-0.000779721 -0.00152644 7.7365e-20)
(-0.000918358 -0.00135888 2.89037e-19)
(-0.0145367 -0.00316161 -2.92464e-21)
(-0.0133266 -0.00251985 1.27188e-19)
(-0.0133623 -0.00387375 1.14526e-20)
(-0.00214031 -0.00489381 2.79947e-18)
(-0.00176418 -0.00470795 -1.3154e-18)
(-0.0005104 -0.000785518 -1.06513e-19)
(-0.000551409 -0.000899092 -1.81764e-19)
(-0.000626386 -0.000798151 4.26447e-20)