/*--------------------------------*- C++ -*----------------------------------*\
| =========                 |                                                 |
| \\      /  F ield         | OpenFOAM: The Open Source CFD Toolbox           |
|  \\    /   O peration     | Version:  v2012                                 |
|   \\  /    A nd           | Website:  www.openfoam.com                      |
|    \\/     M anipulation  |                                                 |
\*---------------------------------------------------------------------------*/
FoamFile
{
    version     2.0;
    format      ascii;
    class       volScalarField;
    location    "650";
    object      omega_0;
}
// * * * * * * * * * * * * * * * * * * * * * * * * * * * * * * * * * * * * * //

dimensions      [0 0 -1 0 0 0 0];


internalField   nonuniform List<scalar> 
18355
(
0.173953
0.0204286
0.184279
0.0210098
0.0398141
0.703925
0.0214829
0.0383306
0.0219419
0.387392
0.0248047
0.098156
0.105651
0.442115
0.0210686
0.0202041
0.021006
0.0239069
0.133874
0.0227442
1.52425
0.021862
0.020459
0.706007
0.0204698
0.0220093
0.0215146
0.0210177
0.0221372
0.0254103
0.645765
0.0453317
0.0203576
0.0200646
0.0211152
0.0221179
0.0270324
0.0221755
0.0257838
0.0218452
0.0221604
0.0252596
0.0200837
0.020415
0.0204256
0.303515
0.0209926
0.0209811
0.689174
0.0212509
0.0208221
1.63451
0.021308
0.112343
0.0212838
0.0227392
0.021114
0.977329
0.022066
4.40419
0.020075
0.0723129
0.110638
0.0215649
0.0602717
0.0206188
0.0234376
0.0271162
0.0200199
0.324443
0.0209218
0.0212838
0.0361888
0.0248726
0.438819
0.0200388
0.960414
0.0200485
0.0208946
0.451257
0.0233743
0.459632
0.0200301
0.0242501
0.0485049
0.0217017
0.0222961
0.0386881
0.0208817
0.038718
1.01124
1.01802
0.45862
0.0212349
0.108311
0.0217305
0.0208623
0.0214165
0.070427
0.0217944
0.045679
0.020866
0.0211876
0.0195601
0.0235635
0.0202153
0.059488
0.10062
0.0321873
0.020155
0.0207347
0.0214089
0.0296653
0.0240009
1.49964
0.0261252
0.0208435
0.462097
0.0226537
0.0232654
0.202097
0.188101
1.02809
0.0448902
0.462857
0.603179
0.0215169
0.0210399
0.18385
0.0216408
0.0208668
1.69383
0.0212673
0.0717763
0.0882795
0.020874
0.133965
0.126629
0.0211944
1.41528
0.0249515
0.0657189
0.0209549
1.61666
0.0892979
0.021654
4.32223
0.0196078
0.0293614
0.284157
0.0210102
0.0232065
0.0214274
0.0269504
0.0200948
0.020579
0.0210538
0.0216957
0.0209616
0.0206749
0.0241188
0.0212733
0.0201638
0.0288529
0.0250923
0.34524
4.35797
0.207154
0.536438
0.024923
0.0212805
0.0676532
0.0215915
0.712192
0.0211729
0.0221227
0.0213299
0.0195233
0.0225819
0.0275914
0.0217401
0.298681
0.0217552
0.0210424
0.216757
0.0211648
0.0217349
0.0375001
0.0213497
0.021593
0.356503
0.0706175
0.0204586
0.020056
0.0214112
1.94474
0.0205346
0.218471
0.0204382
0.615401
0.0211284
0.0233037
0.0260026
0.0216487
0.196506
0.0215697
0.508051
0.0210375
0.0203058
0.0213275
0.0215413
0.535889
0.0228804
0.0223705
0.0196189
0.737854
0.027605
0.0250336
0.0215841
0.0209943
0.0309857
0.0199783
0.0365581
0.0247876
0.0369385
0.0232253
0.0199993
0.0954822
0.146324
0.0325429
0.0213676
0.0236004
0.30469
0.0199908
0.0283653
0.0350381
0.0219501
0.425809
0.0245303
0.0223817
0.0204545
0.0224848
0.0218152
0.0311932
0.0215648
0.02129
0.020984
0.484115
0.698593
0.0209888
0.021881
0.676384
0.130281
0.0257794
0.0195288
0.0414176
0.0245094
0.0217499
0.0231804
0.020813
0.283289
0.0328227
0.0644676
0.0289314
0.0264646
0.0348924
0.0281267
0.0767783
0.0208057
0.0212912
0.0217467
0.0201523
0.023314
0.0251728
0.0209768
0.0215466
0.0301013
0.0208622
0.0751089
0.816748
0.0283748
0.0215665
0.0266974
0.0201409
0.0394815
0.0215229
0.0284485
0.0218758
0.0277994
0.309291
0.0203346
0.042877
0.0225672
0.0231487
0.0317231
0.0212906
0.020041
0.0708592
0.0215433
0.0707056
0.0270982
0.171513
0.0402126
0.0655704
0.0235528
0.0311322
0.0211985
0.023772
0.0284918
0.0427906
0.189991
0.695266
0.0210785
0.0238992
0.0994971
0.027261
0.0210739
0.0209725
0.0209965
0.0446906
0.830593
3.03443
0.176725
0.0296251
0.0246652
0.414461
0.019606
0.0215493
0.0246045
0.0213653
0.0326913
0.0210058
0.521817
0.0202369
0.457477
0.0213535
0.0218007
0.0239366
0.115436
0.234002
0.0313688
0.138322
0.0218513
0.0208911
0.0213563
0.0241704
0.411535
0.0209134
0.0214853
0.274622
0.021795
0.020917
0.133466
0.0237474
0.0209905
0.0212525
0.0293042
0.0222729
0.0290724
0.0200638
0.0214767
0.02176
4.36463
0.206372
0.0200386
0.02094
0.0293712
0.0210047
0.021501
0.457073
0.212122
0.0317849
0.0213395
0.021996
0.105931
0.0221703
0.0456838
0.0238152
0.0202759
0.0281196
0.0358559
0.0216893
0.0213536
0.0239262
0.0214607
0.0230836
0.0214061
0.0736003
0.0218449
0.0230305
0.0208623
0.0209978
0.0231892
0.0219624
0.0586985
3.83731
0.255946
0.0225674
0.129904
0.0292244
0.0213723
0.0209527
0.0403847
0.0213492
0.0325833
0.0213805
0.0264795
0.41106
0.0436389
0.222419
0.0695319
0.019569
3.04817
0.0217962
0.0209664
1.55475
0.0213178
0.0264919
0.0206553
0.067948
0.0213125
0.0653314
0.442155
0.060051
0.0212906
0.0204562
0.0622484
0.0226644
0.0210015
0.365222
0.0299169
0.0209603
0.0409299
0.058989
0.0204523
0.0220502
0.0299676
1.26403
0.039099
0.0217946
0.021251
0.0360226
0.0212836
0.0201937
0.0211302
0.0412029
3.88541
0.0202593
0.0220944
0.0214986
0.12547
0.0348355
0.0200424
0.0265845
0.0371176
0.0214799
2.27894
0.0722991
0.0217894
0.0214451
0.0377515
0.130839
0.576519
0.0202342
0.246984
0.0212403
0.0202499
0.0429412
0.0227921
0.0798897
0.0364353
0.0231566
0.0254382
0.0218723
0.129959
0.022781
0.0277986
0.0218353
0.0202086
0.0217143
0.0202238
0.0721864
3.81118
0.0669896
0.024325
0.0216076
0.0218332
0.0216029
0.0235658
0.0216277
0.0200175
0.0213887
0.0395856
0.0204613
0.0216064
0.386207
0.226599
0.103283
0.0216214
0.0219555
0.0301959
0.0218301
0.287328
0.198551
0.0235634
0.024245
0.0257637
0.022187
0.0235169
4.35509
0.0317644
0.0219004
0.381778
0.021591
0.220947
3.01323
0.0249384
0.0220057
4.30194
0.0209836
0.0627842
0.0460615
0.161827
0.0227752
0.0216929
0.0214661
0.354924
0.685087
0.151144
0.44046
0.0234173
0.021456
0.0242747
0.0212984
0.0234102
1.35297
0.755969
3.75652
1.41752
0.0273124
0.0416409
0.0308334
0.0210016
0.021153
0.0288706
0.0243725
0.0215379
0.0212962
0.446153
0.0208483
1.40583
0.024831
0.0706545
0.114477
0.0211591
0.0239828
0.193296
0.0213836
3.6274
0.0212801
0.318582
0.0317962
0.0219523
0.0304168
0.0761471
0.0707468
0.0218357
0.0200079
0.0345445
0.0251488
0.0711361
0.0213766
0.0723351
0.0208404
0.196629
0.0212164
0.0211774
0.176953
0.0249649
0.0328321
0.0210608
0.0245332
0.023147
0.518219
3.26773
0.0241927
0.0263738
0.0211486
0.0266284
0.0217151
0.0240065
3.77669
0.0204186
0.253983
0.0215374
0.0212512
0.0241182
0.28703
0.022663
0.0769429
0.0220527
0.0344305
0.436694
0.0196141
0.020992
0.223337
0.0375831
0.354664
0.0382968
0.0217046
0.0213024
0.0209625
0.024853
0.0219392
0.020365
0.114223
1.80951
0.0211614
1.34801
1.31401
0.0241691
0.201187
0.0202097
0.162647
0.306759
0.0196819
0.426951
0.0382821
3.70096
0.532366
0.0210759
0.0209527
0.0215741
0.266797
0.0438957
0.0213173
0.0219334
0.111217
0.0217551
0.0394372
0.0210472
0.0363302
3.30155
0.359791
0.0402661
0.274755
0.0394352
0.99963
0.0242638
0.0209199
0.0256346
0.521326
0.0268872
0.0416749
0.0213025
0.139257
0.021516
0.0217399
0.41858
0.02171
0.0261282
0.0311261
0.0716787
0.0214727
0.0212912
0.024004
0.024876
0.0199717
0.0214241
0.031935
0.119149
0.0230055
0.0212615
0.0421178
0.434366
0.0212494
0.275345
1.85027
0.0214717
0.335211
0.0200071
0.185802
0.0213509
0.0206961
0.178577
0.0229204
1.21079
0.0228904
0.0212932
0.35433
0.0213475
0.0201349
0.0215303
0.0209293
0.0265426
0.0366246
0.242939
0.0220003
3.66964
0.0227763
0.327018
0.814391
0.0220702
0.0213488
0.0245476
0.0201339
0.0904476
0.0211933
0.0201106
0.0201358
0.0213027
0.0213733
0.231161
0.0245736
0.0451261
0.0227834
0.0239093
0.0237637
0.0238871
0.0979494
0.0204644
0.0716423
0.0450586
0.0200124
0.772269
3.27221
0.0207766
0.337675
0.0211635
0.309907
0.0343589
0.0196643
0.0347888
0.0251928
0.320694
0.0208487
0.0241369
0.440363
0.0841425
0.211458
0.0213694
0.161976
0.0642523
0.155602
0.0213759
0.0227835
0.0210247
0.0214751
0.0210712
0.0210342
0.0204125
0.353752
0.0254047
0.0208784
0.0200563
0.0205531
0.0217579
0.0791647
0.0634666
0.0203262
0.0248622
0.0215394
0.0215728
0.0214409
0.0209494
0.0347862
0.0200524
0.0208877
0.0217152
0.0215964
0.0233205
0.0216307
0.740343
1.02382
0.0242863
0.0208703
0.124427
0.0201002
0.0200603
0.0216462
0.152643
0.0241219
0.0214054
0.0201595
0.0204483
0.0251064
0.0200119
0.0262972
0.0211838
0.021719
0.0210709
0.0227094
0.841513
0.0209119
0.0218195
0.0211784
0.141351
0.132861
0.0267477
0.0219379
0.028392
0.0252239
0.03337
4.42465
0.0217051
0.208917
0.0218357
1.35518
0.0221057
0.0202861
0.0200471
0.142526
0.0200122
0.0270206
0.0245089
0.149039
0.0394872
0.0223051
0.0210013
0.0208945
0.0212355
0.0282419
0.0923939
0.513538
0.0447825
0.0215278
0.0200091
0.0225509
0.0210731
0.0208103
0.021768
0.0451134
0.0247513
0.449172
0.0215226
0.0214408
0.0324093
0.0213045
0.130688
0.0449047
0.0409468
0.115652
4.38188
0.0275951
0.020989
0.0200173
0.0216697
0.0212814
0.47055
0.0438011
0.0889005
0.0203182
0.0215788
0.0229203
0.0208286
4.47159
0.0328797
0.0200569
0.0200475
0.0209725
0.0210798
0.020923
0.021252
0.275707
0.0199559
0.0219598
0.0203257
0.0205851
0.0210803
0.0214574
0.0262037
0.0205799
0.025029
0.0201526
0.265117
0.203913
0.0239413
0.0649744
0.022605
0.021875
0.0615465
0.192153
0.0214304
0.0207338
0.020473
0.0251838
0.0219041
0.027567
0.16344
0.0214928
0.0219405
0.0214831
1.37885
0.12488
0.0220227
0.0205945
0.0246577
0.040264
0.0211492
0.0705019
0.0208329
0.0199685
0.0243964
0.507824
0.44053
0.267174
0.290009
0.0200498
0.0472757
0.0768037
0.0253194
0.0212289
0.0774593
0.0235345
0.15076
0.617992
0.020746
0.0200589
0.0214805
0.0220309
0.0200637
0.0568849
0.372564
0.0201077
0.0215158
0.0218734
0.0362597
0.0212712
0.0208758
0.0295547
0.0217853
0.0209337
0.231512
0.0851248
0.0752036
0.0212677
0.020246
0.0201241
0.0212786
0.0238957
0.0280444
0.0208829
0.0206201
0.0225126
0.134934
0.0204607
0.0214195
0.0693326
0.0209245
0.0207636
0.021351
1.46412
0.0202253
0.0214491
0.0204637
0.0233425
0.0202357
0.0257322
0.120018
0.0214201
0.134981
0.0291387
0.200551
0.0559648
0.0209919
0.0259549
0.0208553
0.0207475
0.0210035
0.496258
0.385191
0.028209
0.0271844
0.406495
0.0633396
0.0219738
0.0887241
0.0437315
0.0236581
0.0200718
1.38042
0.0222139
0.0207354
0.0203919
0.550121
1.74559
0.258062
0.0207146
0.0774965
0.275954
0.0243879
0.0297291
0.0236301
0.022908
0.0334103
0.286982
0.0228465
0.0222548
0.0242934
3.05065
0.252607
0.0212605
0.0213503
0.0210465
3.71789
0.0238002
0.0218935
0.45405
0.0257418
0.0340387
0.0236038
0.282924
0.0206768
1.10715
0.0220404
0.0200578
0.0209891
0.0199947
0.0200721
0.020904
0.0216852
0.203736
0.020522
1.0753
0.0266167
0.0216688
0.0207503
0.0826892
0.0212127
0.0215116
0.0227444
0.621101
0.041092
0.022926
0.0215268
3.17889
0.020672
0.0427824
0.0215108
0.278727
0.0301643
0.284696
0.0258282
0.0210036
0.0567137
1.14913
0.0286453
0.0205558
0.0213436
0.0358791
3.79872
0.0195704
0.0485159
0.0211402
0.0257505
0.0208723
0.0200492
0.0218277
0.0220832
0.0200285
0.0343738
0.0342979
0.024102
0.109312
1.39991
0.0221451
0.147287
0.0200983
0.0900416
3.73607
0.142552
0.0200269
0.0220407
0.0214893
0.443945
0.0210595
0.0208272
0.0764007
0.0214964
0.0215177
0.0221571
0.0219944
0.0212471
2.93584
0.377606
0.0591663
0.020758
0.0214658
0.128932
0.0200914
0.162367
0.0216093
0.0214759
0.0219783
0.0236623
0.261493
0.0211014
0.0214765
0.233982
0.0215631
0.0217673
0.0358769
3.87941
0.288325
0.0214317
0.0210325
3.56535
0.516469
0.181757
0.0207471
0.0330806
0.179881
0.0203649
0.0333948
0.0228427
0.399781
0.0232498
0.0215519
0.0221137
0.0199961
3.39511
0.0214674
0.0204928
0.11257
0.0304355
0.181465
0.0199688
0.0225061
0.0200436
0.019646
0.0202039
0.0223228
0.0216126
0.0217992
0.0200029
0.0217186
0.0477427
0.0264985
0.0239611
0.0206225
0.0235796
0.0210801
0.302502
0.0216519
0.0220126
0.0215595
0.020051
0.0217595
0.0211688
0.021177
0.0212389
0.0208219
0.0202136
0.245398
0.216159
0.0212498
3.37144
0.0347843
0.0216908
0.0216904
0.0221325
0.176553
0.0219411
0.0200879
0.0200993
0.0200341
0.205301
0.0213064
0.0202945
0.149619
0.0200159
0.0197563
0.0232756
0.0239881
0.0883714
0.116826
0.373519
0.0200716
0.309626
0.0253459
0.0212321
0.020421
0.0239635
0.0212819
0.029318
0.0580183
0.0231084
0.0218667
0.510293
0.0505837
0.245101
0.072876
0.0972889
0.101917
0.0205018
0.196302
1.52974
0.0201285
0.34798
0.0207112
0.0223036
0.11553
0.0207272
0.0269571
0.0245457
0.0226726
0.0218513
0.0420536
0.0213797
0.514298
0.0212373
0.0201769
0.294774
0.0197779
0.0216402
0.021836
0.0526983
0.0212044
0.0214454
0.0227796
0.146854
0.0212063
0.0212999
0.0202196
0.0236982
0.0211829
0.022301
0.251413
0.0209748
0.0260307
0.0216887
0.0234096
0.0225082
0.0209412
0.0219048
0.0828075
0.0215706
0.0217677
0.0240762
0.285682
0.0220725
0.0211295
0.0214269
0.0260706
0.0890207
0.0223348
0.0210241
0.0209688
0.0205602
0.0196315
0.020056
0.0247566
0.0286292
0.0544365
0.021524
0.364568
0.0206498
0.0218804
4.00596
0.0421274
0.0199818
0.0755269
0.0220784
0.021022
0.534704
0.0218015
0.0423841
0.0197364
0.127235
0.0205594
0.0200177
0.0202602
0.200527
0.10969
0.0215389
0.147423
0.0202402
0.0209158
0.0207419
0.118388
0.0212201
0.0206542
0.022235
0.022545
0.0212717
0.0214406
0.0207965
0.0218527
0.0215127
0.0208534
0.0235141
0.0199785
0.421367
0.0615445
0.0202039
0.216506
0.0260228
0.0209372
0.0206633
0.021857
0.0207498
0.0290142
0.0247808
0.0430893
0.0431895
0.0216708
0.0633186
0.127342
0.0212243
0.0216068
0.0762517
0.0235281
0.285511
0.0202235
0.0211156
0.0226569
0.0218975
0.0209072
0.0257814
0.0209502
0.0227261
0.0212649
0.0234405
0.0205678
0.0980054
0.0213502
0.0241071
0.0276371
0.0209778
0.333794
0.454893
0.023222
0.025954
0.0281464
0.0198668
0.0539261
0.0214249
0.0343057
0.538937
1.82688
0.0354583
0.0230982
0.0266475
0.0210398
0.0300908
0.0205296
3.0383
0.0278747
0.0214524
0.0208025
0.163284
0.0358248
0.0212245
0.0212273
3.54982
0.0216131
0.0206447
0.350391
0.0492775
0.0201177
0.139437
0.020307
0.0449894
0.052031
0.021265
0.0214368
0.0228962
1.52719
0.0208
0.0259446
0.0214411
0.0212737
0.0208307
0.787586
0.0218242
0.0213329
0.0211431
0.123629
0.0262295
0.0208139
0.019771
0.0893128
0.0211551
0.0204565
0.185075
4.30835
0.0219035
0.700441
0.0229158
0.0445068
0.0222094
0.0554825
0.329983
0.0218077
0.0208264
0.0203294
0.024111
0.0212065
0.551216
0.0610391
0.0205291
0.022074
0.0203318
0.0200147
0.281986
0.0212136
0.0224042
0.0226548
0.0482537
0.0214557
0.0216703
0.0247932
0.260903
0.021466
0.0213394
0.020444
0.0205655
0.023887
0.0420122
0.0215957
0.0211325
0.0212708
0.0210797
0.0203376
3.0787
0.0217064
0.0210319
0.0211052
0.0550528
0.0203719
0.020459
0.0359099
0.0209242
0.0357268
0.0212736
0.0214369
0.163962
4.16102
1.46369
0.0848765
0.0230331
0.0217229
3.13833
0.0206422
0.0248116
0.0199796
0.383374
0.0195452
0.0239975
0.021464
0.810461
0.0382821
0.0313305
3.07336
0.0222228
0.0568067
0.0217075
0.0219107
0.534897
0.034466
0.0211771
0.0202993
0.0235169
0.0269687
0.021427
0.0212724
0.0206369
0.0199213
0.145888
0.371242
0.021698
0.0219973
3.96685
0.467417
0.0233351
0.0224594
0.0230153
0.0243047
0.0212155
0.0224053
0.0436551
0.0209106
0.0203218
0.0215044
0.0436573
0.167441
0.0253616
0.0215307
0.0215511
0.0260832
0.021346
0.0248601
0.0422898
0.0426584
0.0232272
0.27279
0.0201193
0.0212279
0.0218282
0.0199656
0.0215536
0.0208587
0.0558998
0.0210112
0.463028
0.0214494
0.0207199
0.0204863
0.024861
0.0222573
0.0419837
0.0588569
0.0201564
0.265157
0.0233602
0.0205006
0.0198023
0.134743
0.182998
0.0198224
0.0208183
0.0207412
0.022375
0.149808
0.0392282
0.0221799
0.022041
0.118423
3.337
0.0219136
0.0212179
0.22064
0.0237589
0.199912
0.0231244
0.0211564
0.0578592
0.0258422
4.17125
0.0268777
0.306117
0.0203994
0.0209146
0.0217083
0.0216029
0.0236524
0.0216626
0.0215507
0.0207957
0.0218536
0.0213756
0.0211912
0.0215764
0.0227681
0.0218502
0.0213418
0.0208258
0.0331159
0.0244582
0.0209195
0.0215131
0.142807
0.021381
0.0218466
0.0218446
0.839735
0.0204605
0.0375616
0.0227754
0.0201844
0.0211036
2.02249
0.0638874
0.022191
0.0216138
0.0231205
0.0393692
0.0208716
0.0267827
0.0367066
0.0210593
0.0927608
0.0208191
0.0213343
0.0209427
0.0218307
0.0289099
0.0506471
3.67762
0.0250453
0.0201928
0.0215015
0.02112
0.0443024
0.0219255
0.0435761
0.0208231
0.0213754
0.0213593
0.0665029
0.020955
0.0215715
0.0212793
0.116024
0.0204688
0.362739
0.0204251
0.0244664
0.021346
0.029272
0.0209943
0.0235433
0.36023
0.0348771
0.0202021
0.0343257
0.0215103
0.0213581
0.536584
0.297704
0.0203171
0.0212463
0.0236692
0.0202559
0.0211476
0.0218534
0.0216912
0.0232614
0.048536
0.0220996
0.0263895
0.0306295
0.0216238
0.0209997
0.0211775
0.0232201
0.0289966
0.0214309
3.88831
0.0206742
3.142
0.0358354
0.0201355
0.0207146
0.0206951
0.0543046
0.0215997
0.0234286
0.0214852
0.0207448
0.362959
0.0229563
0.0261243
0.0216503
0.0214612
0.0227017
0.0212353
0.0229568
0.0213698
0.022761
0.0219465
0.0218099
0.112179
0.0243475
0.412271
0.0210011
0.0231121
0.0222282
0.224193
0.0648767
0.306482
0.0224661
0.0199477
0.0395666
0.0208938
0.236785
0.0221264
0.0379689
0.0222588
2.72907
0.429713
0.0230756
0.0260832
0.0207525
0.0205321
0.0218789
0.0198953
0.0217187
0.0228838
0.0207885
0.0246272
0.0450018
0.230793
0.0209001
0.05911
0.0201035
0.0211898
0.021145
0.079208
0.0216506
0.194201
0.021684
0.0211114
0.229609
0.0208799
0.0232138
0.0210492
0.0230973
0.311789
0.0255433
2.95503
0.0212549
0.0635108
0.0229191
0.0211223
0.0211892
0.0268675
0.0239246
0.0212742
0.0227301
0.0213274
0.114195
0.0207329
4.25411
0.185146
0.0686625
0.0245619
0.113998
0.0242275
0.019892
1.08832
0.0211883
0.674539
0.0217916
0.0225769
0.293044
0.286836
0.0262754
1.34993
0.0213865
0.313543
0.0196085
1.46462
0.0201615
0.0221194
0.0381877
0.0215244
0.020722
0.0219161
0.0212877
0.0329672
0.0875441
0.0341938
0.0716851
0.0206719
0.969227
0.0214441
0.0218012
0.0210199
0.0210981
0.331092
0.0216572
0.0205625
0.035355
0.0217972
0.391601
0.0743769
0.0212659
0.0460135
0.0353477
0.0208649
0.0214391
0.0234622
0.0203222
0.0508303
0.0285201
0.0225587
0.022918
0.0204436
0.0212094
0.053412
0.0219099
0.0214495
0.0222554
0.0199314
0.0201278
0.264016
0.0261273
3.72425
0.0270434
0.0483977
0.0262372
0.0211228
0.0255195
0.0204202
0.0209836
0.0901721
0.0239101
0.0227114
0.0481298
0.0215252
0.629223
0.451349
0.021108
0.0235098
0.027765
3.22096
0.0203118
0.0202781
0.0216232
0.0252714
0.0853533
0.0246608
0.0237383
0.0217736
0.0211712
0.02005
0.269296
0.0235129
0.0221695
0.172358
0.0216259
0.0226773
0.0237636
0.0214959
0.0212353
0.0210373
0.0487191
0.0980435
0.0218088
0.0231985
0.980115
0.0209188
0.021947
0.0230736
0.0215877
0.384035
0.39489
0.376627
0.0801052
0.967588
0.0224311
0.0208451
0.0875288
0.0220175
0.0257511
0.0210684
0.020195
0.385708
0.0604773
0.0210824
0.0207557
0.0271468
0.119731
0.0232785
0.019986
2.94276
0.022874
0.035938
0.0201442
0.0264478
0.0195852
0.0228151
0.0249307
0.021171
3.15282
0.0219573
0.0371036
0.0934784
0.264043
0.0843625
0.0211948
0.0564713
0.0244234
0.0239079
0.022422
0.0218559
0.021441
0.0224219
0.222445
0.0228238
0.190369
0.0207886
0.199152
0.0202896
0.0218855
0.231811
0.0245821
0.192942
0.0225651
0.0220933
3.97656
2.69564
0.0208664
0.235012
0.034131
0.0207234
0.0198408
0.262893
0.227903
0.0204873
0.0202825
0.0211304
0.0202256
2.86434
1.61186
0.0195226
0.0197868
0.0208629
0.275233
0.0438989
0.298684
0.020198
3.28265
0.0216066
0.062293
2.89461
0.0239808
0.0205911
0.0205942
0.300145
0.0203379
0.0210609
0.0201984
0.0246225
0.0231301
2.97773
0.0246936
0.0217518
0.0211938
0.0264093
0.178775
0.0406555
0.0211216
0.0208735
0.129903
0.0467984
0.0220529
0.809167
0.026581
0.0227163
0.33459
0.0227292
0.0252407
0.0218109
0.23892
0.0214102
0.0217871
0.214717
0.0275199
0.021052
0.0213532
0.0195917
0.0345416
0.100993
0.0209756
0.0202749
0.0220275
0.0579598
0.0223002
0.0202031
0.021241
0.0207273
0.022099
0.0400593
0.021484
0.020969
0.42297
0.0211152
1.20759
0.0307908
0.0323323
0.0234061
0.0224202
0.021481
0.197139
0.0824868
0.0606143
2.68259
0.0299816
0.0208752
1.08644
0.0202195
0.0641105
2.62833
0.0221031
0.0211302
0.0236524
0.0660944
0.0211991
0.0210319
0.222186
0.0212628
0.0222344
0.0207272
0.021763
0.0203486
0.0703437
0.104158
0.0201396
0.0210266
1.42057
0.0211911
0.0201792
0.0209999
0.0208336
1.53716
0.0224958
0.0228115
0.0222303
0.0219563
0.020317
0.0340109
0.0853922
0.0264812
0.478725
0.0224467
0.0232365
2.69261
0.0208865
0.0203644
0.021107
0.0208388
0.0217863
0.0197496
0.0222637
1.91494
0.021176
0.0211
0.0227612
0.0208115
0.0558301
0.0216605
2.73004
0.160067
0.0261452
0.0296839
0.220676
0.0233662
0.0211908
0.0231267
0.0209501
0.0223544
0.0214714
0.021752
0.713345
0.020286
0.021321
0.0424089
0.162611
0.0216862
0.0208432
0.175461
0.022182
0.0263345
0.0213122
0.0208542
0.0209807
0.28695
0.021431
0.165707
0.0513543
0.0229906
0.0208343
0.0210774
0.0241995
0.109394
0.020147
0.0370956
0.0211039
2.90657
0.257332
0.0222312
0.155031
0.0215467
0.0228101
0.0238756
1.83248
0.0223719
0.0254626
0.0265648
0.423117
0.0216679
0.0340364
0.0214536
0.0476213
0.125267
0.140199
0.0209636
0.0274299
0.2969
0.329415
0.0227516
0.0237221
0.340541
0.363065
0.0208242
0.0497536
0.0212062
0.0236626
0.0214625
0.0223766
0.0222833
0.203624
0.0216361
0.021798
0.0545526
0.435153
0.0719158
0.105183
0.142
0.0207892
0.338734
0.0593071
0.021042
0.0211231
0.430855
0.0229956
0.0214899
0.0212445
0.040803
0.0206984
0.0212547
4.27215
0.0214554
0.0217219
0.0210427
0.0214051
0.0225327
0.0204905
0.643551
0.0231667
0.0229362
0.0205261
0.0275184
1.3208
0.0209061
0.0217097
0.0977067
0.156421
0.0213559
0.0241448
0.0207099
0.0209335
0.03844
0.145463
0.0209345
0.0210801
0.179201
0.424348
1.40563
0.0277292
0.0224775
0.410132
0.0207407
0.0247636
0.023969
0.0205733
0.248227
1.4281
0.0379099
0.0262112
1.10364
0.0198462
0.0197823
0.022619
0.0347825
0.560033
0.0203297
0.0358254
0.243073
4.02218
0.0216313
0.0224756
1.36515
0.0209914
0.0235666
0.380981
0.0209619
0.0211934
0.0204917
0.595446
0.020828
0.0239133
0.0218401
0.0386339
0.0263912
0.265294
0.0211982
0.0211398
0.0281388
0.0217424
0.0225942
0.0222281
0.0882942
0.100445
0.0209934
0.021337
3.58825
3.78181
0.94107
0.0207578
0.0213601
0.0226203
0.0215347
0.0212692
0.0214348
0.0217096
0.0218693
0.0206691
0.0207674
0.0585207
0.0235108
0.0264599
0.879847
0.0618982
0.0467434
0.0239629
0.0414964
0.115114
0.0298775
0.0230022
0.0252461
0.0210764
0.797854
0.0202201
0.0202758
0.0206802
0.216591
0.0209007
0.244158
0.0217278
0.0201318
0.0450815
0.0211845
0.021151
0.0211774
0.0257609
0.157444
0.0216601
0.0205685
0.0226445
0.13865
0.0460971
0.387659
0.0210726
0.0322986
0.0215349
0.0215379
0.0201833
0.0207248
0.0213595
0.0215777
0.294519
0.0226818
0.022627
0.103805
1.41949
0.108459
0.0208486
0.0909258
0.0318834
0.223047
0.0205474
0.0210023
0.0226492
0.364243
0.0197869
0.0213509
0.0207161
0.0203375
0.106941
0.0221034
0.0646559
0.0212014
0.0197711
0.0232503
0.0214346
0.423313
0.0211176
0.0250776
0.0217722
0.0267348
0.0220402
0.0579977
0.3775
0.0212313
0.0408425
4.25913
0.0211213
0.0215165
0.0399595
0.0197222
0.250109
0.0279426
0.0209393
0.0543314
0.0200157
0.0214284
0.0214509
0.0207095
0.0202129
0.0221327
0.0207084
0.0207151
0.0215297
0.0217862
0.0460661
0.0200698
0.120574
0.0205235
0.0208973
0.0275026
0.047521
0.0219697
0.0197195
0.0211957
0.0222752
0.0449733
0.425059
0.0322227
0.0219005
0.0219455
0.0207583
0.0295736
0.0209318
0.0222848
4.22699
0.395721
0.0434214
0.0210795
0.0217163
0.0221287
0.0197271
0.0392531
0.0201197
0.118535
0.0219468
0.145707
0.0263178
4.23929
0.0216064
0.0649239
0.308386
0.380081
0.177308
0.0247905
0.370509
3.5254
0.0218521
0.0332805
3.78948
0.0204524
0.0207493
0.0213313
0.0237713
0.0577285
0.0214527
0.0236874
0.163986
0.0195267
0.0214665
2.92806
0.851838
0.0835286
0.196913
0.392981
0.0221145
0.0640848
0.0235129
0.0238898
0.112964
0.0223437
3.14452
0.0363868
0.0236901
0.0213898
0.0225419
0.0239142
0.0205595
0.381644
0.019782
0.0212427
0.0213104
0.512118
2.9592
0.0274391
0.0212798
0.022327
0.0204921
3.2871
0.0209757
0.0219426
0.023378
0.050939
0.0206961
0.0711714
2.99257
0.16546
0.021901
0.098467
0.0205755
0.55654
0.0198176
0.0607607
0.0220782
0.0569612
0.026266
1.40961
0.111173
0.02259
0.0227672
0.0284665
0.0234191
0.021108
0.020705
0.0241996
0.0217863
0.107106
0.0196521
0.0210771
0.0214333
0.0214047
0.115713
0.0207417
0.0201339
0.0214851
0.20438
0.0265697
0.0522114
0.0225522
0.0225084
0.0775725
0.0206065
0.021311
0.0707756
0.0419244
0.020136
0.0359108
0.0228785
0.0844271
0.0212459
0.0382854
0.0222421
0.0212203
0.020229
0.0201775
0.021163
0.0210749
0.4662
0.0636126
0.0215381
0.0213198
0.0211383
0.0221241
0.0266886
1.98533
0.0215466
0.0320034
0.0238819
0.144922
0.0216348
0.0445658
0.0212942
0.0212535
0.0268372
0.0212173
0.0214358
0.0206894
0.0202144
3.83403
0.0213857
0.0207325
0.0942052
0.365096
0.0369636
0.0218132
0.0199293
0.0237703
2.70308
0.0231631
0.0216828
0.0215755
0.436159
0.0218525
0.0210895
0.198458
0.0207585
0.0248925
0.0226824
0.0215332
0.0201624
0.0522781
0.0249031
0.0206228
0.0212785
0.0214618
0.0208956
0.475752
0.0226077
0.0213985
0.0197635
0.0219264
0.0201823
0.0212431
0.0670857
0.0206401
0.0239253
0.0231345
2.35074
0.0197245
0.0223588
0.051341
0.0267271
0.146072
0.020978
0.021533
0.0527035
0.0214048
0.0201227
0.125404
0.0214022
0.312402
0.0831946
0.0577635
3.81666
0.0214185
0.0266598
0.288379
0.0212452
0.0199838
0.452614
0.678537
0.0208933
0.0201382
0.0225549
0.0207711
0.191705
0.145299
0.0896525
0.0214842
0.0216378
0.0212256
0.0210987
3.53311
0.441517
3.63435
0.0245901
0.0222874
0.258364
0.0213351
0.0208922
0.022737
0.0209263
0.0218368
0.239541
0.0197215
0.17468
0.0219144
0.0220634
0.0213965
0.026364
0.0207772
3.36867
0.0206782
0.0212065
0.0224747
0.0201627
3.47681
0.024225
0.0249852
3.12601
0.260164
0.0319694
2.5541
0.0212956
3.42449
0.0267809
0.0207646
0.0222596
0.0216569
0.357737
1.79537
0.0214916
0.0236796
0.501378
0.0210743
0.0205677
0.0234266
0.794845
0.413334
0.0215115
0.0221413
0.0904766
0.0229963
0.0596394
0.0595107
0.0692546
0.020148
4.25224
0.0215799
0.123599
0.0599337
0.0347243
4.13224
1.18672
2.74022
0.0203623
1.25236
0.0200074
0.0197718
0.619042
0.0197564
0.0221158
0.0211469
0.0649921
0.0206078
0.121725
0.0201662
0.0251843
0.143455
0.0261588
0.0248991
0.413381
0.0218032
0.0202415
0.0218451
0.0860969
0.023557
0.119183
0.0214198
0.0260418
0.0217134
0.200999
0.0214219
0.0216154
0.0213705
0.456545
0.0310389
0.0215117
2.56838
0.0210951
0.0214401
0.0240617
0.917164
0.021397
4.14416
0.0214943
0.308789
0.0214156
0.0412935
0.0209866
0.0493892
0.021428
0.063394
0.0246928
0.0302555
0.0208928
0.0216951
0.596878
0.020364
0.0237145
0.0265706
0.020053
0.0682022
3.42251
0.117985
0.0220677
0.019732
0.0211858
0.111614
0.0232378
4.22768
0.0240428
0.109705
0.0210677
0.600269
0.020535
0.0313935
0.0969458
0.0228045
0.191608
0.023103
2.61561
0.141364
0.0207761
1.44006
0.0222539
0.0211489
0.0227931
0.0821459
0.023027
0.141413
0.0243199
0.0967033
0.041419
0.056585
0.0447752
2.24119
0.0214567
0.0215251
2.38386
2.43879
0.0346279
0.0234855
0.967451
0.201971
0.0211375
0.0214289
0.0212183
1.40314
0.0207084
0.0209338
0.0333599
0.0586198
0.0198152
0.0206118
0.0221425
4.16925
0.0205036
0.0239461
0.0198142
0.109747
0.0227733
0.77148
0.0218173
0.0206442
0.0213324
0.0202793
0.0604414
0.0326995
0.380478
0.0213264
0.0289286
0.0202069
0.211591
0.140909
0.0469092
0.0207988
0.0530854
0.0208849
0.0215797
1.85854
0.0210818
0.023794
0.495628
0.0201503
0.0961859
0.020752
0.0198236
0.0215492
0.169984
0.0207938
4.17568
0.109233
0.226726
0.327155
0.0207103
0.559221
0.0574346
3.56331
0.034339
2.35325
0.159104
0.0215625
0.0344176
0.0216827
0.0277562
0.0209674
0.0228204
0.0212042
0.0258387
0.232155
4.19852
0.0239016
0.0232692
0.667575
0.420859
0.0212131
0.0214616
0.0656952
0.0362368
0.0204291
0.620274
0.0379983
0.0221532
0.0203803
0.02238
3.54311
0.0216167
0.0552883
0.0195916
0.763193
2.82579
0.10908
0.0222657
0.0215759
0.0211757
0.0212939
0.0214604
0.0242246
0.0223028
0.021552
3.32705
0.020836
0.0215753
0.0210659
0.313105
3.86279
0.0212463
0.0213278
3.20279
0.020483
4.25197
0.0215209
0.021382
0.0197196
0.0216766
0.0205934
0.0227586
0.020314
0.164279
0.0217926
0.0730893
0.0213548
0.218135
0.021469
0.0245365
0.674342
0.16529
0.0212387
0.0214479
0.0319002
0.0197206
0.418401
0.211462
0.0224799
0.0207589
0.021233
0.0203409
0.0375388
0.297041
0.0415354
0.426541
0.0384806
0.0214011
0.0211846
0.0205279
0.735114
0.361538
0.0215966
0.0211388
0.0208209
0.0274626
0.0213812
2.88268
3.24212
0.0306831
0.020275
2.53985
0.111864
0.0214455
0.314513
0.0215326
0.729386
0.032907
0.0329808
0.0260129
1.34768
0.0330279
2.57811
0.020844
0.0205246
0.0206977
0.0203204
0.0214965
0.0287366
0.0205324
0.0256212
0.0200077
0.299319
0.021049
0.0283327
2.70469
0.0220595
0.0197978
0.0280383
4.20634
0.0212638
0.0206015
0.156093
4.1887
0.209505
0.0213673
0.019729
2.33531
0.106222
0.0235526
0.0513995
0.0214045
0.0309662
0.0215168
0.10454
0.0206644
0.0209791
0.385107
0.020419
0.0226965
1.85713
0.0597944
0.0206343
0.0215754
0.0207488
3.20198
0.0239929
0.0262785
0.0214284
0.0207757
0.104383
0.0305788
0.021164
0.0212935
0.0197271
0.0227731
0.0206445
0.0227304
0.17104
3.1419
0.0232014
0.040086
0.0207963
0.044907
0.0212186
0.0215468
0.0207596
0.271309
0.040067
0.0200099
0.0226426
1.0043
0.0374585
3.89067
0.0486434
0.0212932
0.0207771
0.0263813
0.0225526
4.11628
0.0205285
2.76067
4.16627
0.0209
0.0382508
1.55953
0.0249446
1.23858
0.0902115
0.0214011
4.13158
0.025762
0.0204648
2.52412
2.29473
0.0845653
0.0216835
1.14338
0.214459
0.0213414
0.156464
1.30065
0.0213822
0.0207097
0.0218102
0.0200264
0.0215591
0.495036
4.3082
0.0214264
0.0232602
2.69094
2.59111
0.0316711
0.503603
0.0210735
0.025408
4.11629
0.0559716
2.47308
4.06534
0.0212537
0.0214397
0.0210501
0.0218076
4.09763
0.313277
0.0210045
0.035843
3.90229
0.209408
0.0563002
0.0211374
0.0214727
0.0219322
0.49756
0.0221889
0.0359821
0.0299146
0.0220089
0.325121
0.0234279
0.416328
0.118221
3.76237
0.0212162
0.0212093
0.0225586
0.0333527
0.204298
0.207724
0.0218634
2.85882
4.15336
0.0314305
0.0320281
3.72165
0.378796
0.315669
3.34775
0.0213247
0.350676
0.0895025
0.0298141
0.0265099
0.107662
0.0224391
0.0964674
0.0232912
0.020946