/*--------------------------------*- C++ -*----------------------------------*\
| =========                 |                                                 |
| \\      /  F ield         | OpenFOAM: The Open Source CFD Toolbox           |
|  \\    /   O peration     | Version:  v2012                                 |
|   \\  /    A nd           | Website:  www.openfoam.com                      |
|    \\/     M anipulation  |                                                 |
\*---------------------------------------------------------------------------*/
FoamFile
{
    version     2.0;
    format      ascii;
    class       volVectorField;
    location    "350";
    object      U_0;
}
// * * * * * * * * * * * * * * * * * * * * * * * * * * * * * * * * * * * * * //

dimensions      [0 1 -1 0 0 0 0];


internalField   nonuniform List<vector> 
18758
(
(1.08719 -0.300275 4.31728e-20)
(1.23677 -0.0451879 -2.79248e-20)
(1.0152 -0.000170458 -1.93619e-21)
(0.580064 0.208835 3.99975e-20)
(0.172492 0.0607358 2.84659e-20)
(0.188295 0.00846995 0)
(-0.209967 -0.0107235 1.49437e-19)
(1.01176 -0.00495327 9.79042e-23)
(1.24905 0.0481295 1.60175e-20)
(1.01396 -0.103802 -1.74695e-21)
(1.05396 -0.0406072 0)
(0.193666 -0.0445861 1.07253e-19)
(1.00191 -0.000303149 9.13416e-22)
(1.05538 0.137396 -5.48458e-20)
(1.04586 0.00840241 4.64844e-21)
(0.590072 -0.49468 6.15192e-20)
(1.1046 0.0228197 1.99408e-20)
(1.00379 -0.00732728 -6.64797e-22)
(1.03671 -0.0056711 0)
(1.02289 -0.123259 3.37257e-21)
(-0.0113877 0.0192324 -4.14346e-20)
(1.00004 -0.000776873 3.43746e-22)
(-0.0234555 -0.0141357 2.59745e-20)
(1.25058 0.120428 0)
(1.30509 -0.144236 6.96014e-20)
(1.01145 -0.00477062 -8.10008e-22)
(0.787665 -0.673732 1.00953e-23)
(0.125644 0.0406091 1.71368e-20)
(0.827154 -0.0150197 0)
(1.0728 -0.68706 1.19106e-20)
(1.09353 0.0738219 0)
(0.185179 0.0322249 -3.10494e-20)
(1.00043 -0.000136982 0)
(1.05011 -0.0124492 0)
(1.13223 0.112059 2.79265e-20)
(0.999279 -0.00170163 5.97924e-21)
(1.00018 -0.000209371 0)
(1.03327 -0.0225467 0)
(1.03943 -0.0255294 1.36843e-20)
(1.1133 0.0204945 2.13028e-20)
(1.03408 -0.0210188 0)
(0.937223 -0.0766336 2.14962e-20)
(1.02134 -0.00751456 -4.86633e-21)
(0.974151 -0.0904028 -1.56681e-20)
(1.19016 -0.490058 5.8981e-21)
(1.01297 -0.00147636 0)
(-0.0436612 -0.012442 0)
(1.04788 -0.0540292 3.77047e-21)
(1.01184 -0.101329 2.30388e-21)
(1.02102 -0.00569996 0)
(1.20835 -0.143967 -7.91284e-20)
(0.408977 0.117674 -4.95569e-21)
(1.01551 -0.00187358 1.42981e-21)
(1.05247 -0.0393211 -6.54932e-21)
(0.086444 0.0348491 2.20017e-21)
(1.24914 -0.223294 0)
(1.00023 -0.000233018 -1.2473e-21)
(0.51826 -0.33411 2.38884e-20)
(0.99311 -0.0225634 8.49527e-21)
(1.05968 0.144544 -1.96061e-20)
(1.10468 -0.257781 2.72821e-20)
(-0.195517 -0.0137724 -1.66105e-19)
(1.20242 0.0207993 1.67192e-20)
(0.969082 -0.0437883 6.48443e-21)
(1.01532 -0.00194758 -3.16959e-21)
(0.993986 -0.00440939 -5.96626e-21)
(1.11011 0.0265277 -2.36335e-21)
(1.00048 -0.000173253 0)
(1.0314 -0.0205555 1.14892e-20)
(0.390719 0.115219 0)
(0.265632 0.0904425 2.82435e-20)
(0.970937 -0.0255472 0)
(1.02135 -0.00606608 3.05705e-21)
(-0.0160324 -0.0899547 1.64914e-19)
(1.01667 -0.00840052 -2.2703e-21)
(0.994751 -0.0232361 0)
(1.21094 0.113184 -1.32482e-19)
(0.182339 0.0632304 0)
(0.902048 -0.321802 -2.49762e-20)
(-0.0701025 -0.0249261 -2.12643e-19)
(0.0670276 0.00103762 -1.07597e-19)
(1.25403 -0.460264 5.50378e-20)
(1.06417 0.145913 5.3606e-20)
(0.144445 0.0099645 0)
(1.20684 0.119021 0)
(1.09394 -0.0259052 -5.16735e-21)
(0.587945 -0.204915 0)
(1.20132 0.0177696 1.67407e-20)
(-0.0588605 -0.0310287 8.52805e-20)
(0.995289 -0.0237902 4.72826e-21)
(0.100567 0.00777033 -7.94388e-20)
(0.99265 -0.0220875 -1.08928e-20)
(0.144552 -0.0707586 0)
(0.934794 -0.0801951 -2.96293e-20)
(0.0719028 0.00172266 4.37151e-20)
(0.095736 -0.0574565 0)
(1.20116 0.119636 0)
(1.01711 -0.008684 2.16417e-21)
(1.0016 -0.0177021 -1.65596e-21)
(0.0114439 0.0242928 0)
(1.03393 -0.126909 9.3013e-21)
(0.0356475 0.00576906 0)
(1.14928 0.0601678 0)
(1.11279 -0.127137 -4.28994e-20)
(0.164589 0.021786 0)
(1.08586 -0.656439 0)
(1.03264 0.184924 0)
(0.215803 0.0715799 0)
(1.04156 -0.0354313 0)
(0.964312 -0.0113907 1.49479e-21)
(0.175571 -0.0746659 -2.939e-20)
(0.471937 -0.653292 -3.01147e-19)
(1.01011 -0.00527843 -1.2033e-21)
(1.00834 -0.0351099 -5.70458e-22)
(0.712201 0.037277 -6.03263e-20)
(-0.259335 -0.000810972 1.95003e-20)
(-0.245048 -0.00259242 -5.90755e-20)
(1.04554 0.00903275 9.22239e-21)
(0.0483487 -0.0302019 5.2437e-20)
(0.0459132 0.00356468 -1.26272e-20)
(1.11489 -0.0536549 1.74445e-20)
(0.987358 -0.0108444 1.67746e-21)
(0.597421 -0.0388171 -9.88684e-20)
(0.641483 -0.639151 1.1694e-20)
(1.17575 -0.380628 -9.76702e-21)
(1.18768 -0.469941 0)
(1.2786 -0.0524586 0)
(1.29059 0.0582939 -1.51993e-19)
(0.084852 -0.053576 0)
(1.00319 -0.000121051 9.05226e-22)
(1.10613 0.0245276 0)
(0.816837 -0.653514 0)
(-0.0438694 0.0100974 -4.47865e-20)
(0.928348 -0.215678 7.11325e-21)
(0.209513 -0.695049 8.2731e-20)
(0.968394 -0.0629466 0)
(1.21025 0.109219 1.02703e-19)
(1.11577 0.0219806 2.29904e-20)
(1.00202 -0.0176568 6.54443e-22)
(0.782872 -0.259749 -1.97811e-20)
(0.887262 -0.317663 2.80009e-20)
(0.947558 -0.449794 4.90916e-21)
(1.0035 -0.0305165 0)
(1.13694 -0.198099 7.04257e-20)
(1.03488 -0.020766 0)
(1.03846 -0.00341783 0)
(-0.167193 0.0108013 -8.80994e-20)
(0.390968 0.0356973 0)
(1.09043 0.0727636 0)
(0.674543 0.0767016 -2.87298e-20)
(1.26043 -0.444743 1.75197e-21)
(1.18353 0.198411 7.41899e-20)
(1.09397 -0.0306381 5.68468e-22)
(0.999957 -0.00071664 0)
(-0.0365224 -0.000397626 0)
(1.08418 -0.0454179 -3.57383e-20)
(0.0100484 -0.0307346 0)
(1.04716 -0.0558449 0)
(0.990337 -0.0362714 0)
(1 -0.000305306 0)
(1.01045 -0.0128321 9.82539e-22)
(1.07091 0.144872 -4.34295e-20)
(0.195165 -0.107237 1.18722e-19)
(0.991568 -0.0360625 -4.77756e-21)
(1.10571 -0.253172 -2.66536e-20)
(0.745858 -0.00637428 1.67317e-20)
(1.0379 -0.00745376 0)
(0.526195 -0.0547332 8.1757e-20)
(1.20059 -0.245708 0)
(0.21843 0.0120055 7.68138e-20)
(-0.142721 0.000271499 0)
(1.00372 -0.00750196 1.82102e-21)
(0.208831 -0.0982057 1.03904e-19)
(0.135842 0.0448275 -6.46637e-20)
(1.07419 0.144348 -3.03862e-20)
(1.26484 0.123814 -5.44653e-21)
(0.658388 0.00666865 -1.79206e-22)
(0.968055 -0.0453467 -1.27627e-20)
(0.797572 -0.257329 0)
(1.03008 -0.0311516 -3.3556e-23)
(1.00859 -0.00502136 1.35406e-21)
(-0.216436 -0.00287271 0)
(1.19799 0.194981 -5.66248e-20)
(1.02595 -0.00554009 -4.11116e-21)
(1.06598 0.00185788 0)
(1.20446 0.184128 3.22558e-20)
(0.996924 -0.0186941 -2.4881e-21)
(-0.244278 -0.000582487 -5.95479e-20)
(1.02021 -0.00662672 2.50137e-21)
(0.99494 -0.0167292 5.04915e-21)
(0.934572 -0.219869 0)
(1.28845 0.0547836 7.92731e-20)
(1.01031 -0.0471745 -3.38187e-22)
(1.09037 0.0694991 0)
(0.971868 -0.149022 0)
(1.20533 0.0137068 -1.85097e-20)
(1.02607 -0.12588 -3.5257e-21)
(1.20925 -0.24482 -5.62544e-20)
(1.00063 -0.00208036 7.94879e-22)
(1.02105 -0.00711641 6.71742e-23)
(0.75048 -0.209934 0)
(1.0451 -0.0558163 -1.16608e-20)
(1.06828 -0.129212 -2.26548e-20)
(1.18248 -0.00206191 0)
(1.00192 -0.00046514 0)
(0.973894 -0.145292 2.6982e-21)
(1.15848 0.0561812 2.12752e-20)
(0.999966 -0.000560827 0)
(0.021466 0.0184753 3.78314e-20)
(1.0078 -0.102158 -8.40084e-22)
(1.0042 -0.00738769 -1.2811e-21)
(1.11667 -0.130083 -1.59656e-20)
(0.992736 -0.0383934 2.75471e-22)
(1.07655 -0.1188 0)
(0.861155 -0.288378 0)
(0.074485 -0.00648191 -1.00283e-19)
(0.858662 -0.300765 0)
(0.533951 -0.439855 -4.65476e-20)
(1.01529 -0.00485222 -1.68119e-21)
(0.208537 0.00804695 -6.0609e-20)
(1.00408 -0.00756129 2.11789e-21)
(1.04125 -0.0367761 0)
(1.17687 0.127038 -3.52391e-20)
(-0.146578 0.0131288 1.07094e-19)
(1.24301 -0.168619 0)
(1.15458 0.0562399 -7.43345e-20)
(1.15605 -0.0602104 -3.37223e-20)
(0.980934 -0.208228 0)
(1.02538 -0.00289289 0)
(1.18569 -0.00862656 5.88218e-20)
(0.993681 -0.00466692 0)
(1.20433 0.0105604 0)
(-0.0445626 -0.0106161 0)
(1.20046 0.126856 2.78015e-20)
(1.00177 -0.000229688 -2.43945e-21)
(0.996747 -0.0181019 0)
(1.02517 -0.00316443 4.11466e-21)
(1.01243 -0.00172478 -1.87852e-21)
(0.6793 -0.0577612 1.03533e-19)
(1.0934 -0.0975461 3.37161e-20)
(1.00841 -0.0127061 -4.019e-22)
(1.26292 -0.259643 4.69859e-20)
(1.01318 0.185717 0)
(1.05314 -0.0230448 -7.59924e-21)
(0.728248 0.0868962 -2.68129e-20)
(0.0422108 -0.0528598 0)
(1.19576 0.127083 0)
(0.999373 -0.00166175 -4.97463e-21)
(0.0679573 0.00198678 4.399e-20)
(0.895265 -0.0757524 0)
(0.999102 -0.00201022 6.2558e-21)
(0.467879 -0.0421225 -5.85784e-20)
(1.09521 -0.0243899 0)
(0.89521 -0.0816258 0)
(1.04344 0.00396905 9.78607e-21)
(1.12189 -0.0579861 -4.49786e-20)
(1.24207 0.142305 -3.61047e-20)
(0.495242 -0.432141 -6.16864e-20)
(1.07265 -0.117672 0)
(0.928533 -0.314865 1.56133e-22)
(1.02886 0.00207333 -5.87041e-21)
(1.14626 0.0428151 3.64056e-20)
(0.999196 -0.00706866 0)
(1.1797 -0.000208932 -1.32983e-20)
(1.00587 -0.0992514 0)
(1.17336 0.128658 4.07653e-20)
(-0.271946 -0.00347441 1.80235e-20)
(1.01501 -0.00470396 2.80435e-21)
(1.04088 -0.0331784 8.37151e-21)
(1.03687 -0.470292 0)
(1.03982 -0.0322657 3.98982e-21)
(1.06501 0.00106374 0)
(1.1819 -0.00694623 0)
(0.638379 -0.0128065 1.34672e-19)
(-0.263734 -0.00290939 1.37371e-19)
(1.00168 -0.0295515 3.90134e-21)
(1.20121 -0.132452 -3.23171e-20)
(0.280199 0.00559509 3.88999e-20)
(1.22683 -0.458393 -6.87502e-21)
(1.00797 -0.0517422 0)
(1.02938 -0.00895807 -2.89737e-21)
(1.07582 -0.0742034 -2.37877e-20)
(1.09593 -0.0956711 1.66185e-20)
(1.00331 -0.0298692 1.8758e-21)
(0.342859 0.0277869 5.90753e-20)
(1.25464 -0.254264 1.71144e-19)
(1.031 0.212534 2.53718e-20)
(-0.0586511 0.00752129 -6.49776e-22)
(-0.0213651 -0.0138324 0)
(1.02436 -0.00528262 3.64617e-21)
(1.01528 -0.000144825 6.06785e-21)
(0.985331 -0.225073 1.91728e-21)
(0.132931 -0.00868772 9.21807e-20)
(0.921238 -0.0421404 -2.96725e-20)
(0.913965 -0.311464 -5.93384e-21)
(1.20725 -0.0248908 0)
(1.07033 -0.0802105 1.78789e-20)
(0.0389007 0.00181886 -5.2475e-20)
(1.03594 -0.00595204 0)
(1.04883 0.194122 -2.08541e-20)
(0.166042 0.00931339 4.05865e-20)
(1.01275 -0.00151228 1.76092e-21)
(0.503358 0.125174 0)
(0.959798 -0.167119 0)
(1.03226 -0.0209587 -1.05256e-20)
(1.06529 -0.110574 1.67903e-20)
(1.18868 -0.0632625 5.66395e-20)
(1.04849 0.00138407 6.1495e-21)
(0.999131 -0.00194975 -6.78233e-21)
(-0.237017 -0.00787119 1.73748e-20)
(1.0373 0.210968 -5.76228e-20)
(1.00143 -0.0132679 5.15966e-21)
(-0.246634 -0.00544468 1.68377e-19)
(0.0431374 0.00237696 -2.33758e-20)
(1.23815 -0.165391 0)
(0.997777 -0.00748965 -7.16502e-21)
(1.00203 -7.78628e-05 -9.95802e-22)
(1.10352 0.206102 0)
(1.05221 -0.0238745 -6.28695e-21)
(1.02535 -0.00555904 5.14026e-21)
(1.02986 -0.0105081 4.23695e-21)
(0.946331 -0.0135135 1.98672e-20)
(1.1982 -0.253878 -6.04563e-20)
(1.19147 -0.06623 -6.11657e-20)
(1.07381 -0.0754425 2.12216e-20)
(1.08967 -0.0962454 -9.31018e-21)
(1.01875 -0.125204 -2.43043e-21)
(0.943436 -0.220623 -1.13867e-20)
(1.02845 0.00167878 0)
(0.999992 -0.000587361 0)
(1.28943 0.0648022 2.21855e-20)
(1.06687 -0.203716 0)
(1.20679 -0.13264 -4.45276e-20)
(0.562391 0.215391 2.74643e-20)
(0.917935 -0.0443039 1.16935e-20)
(1.01096 -0.0457612 6.41188e-23)
(1.0052 -0.000147526 2.43482e-22)
(1.04577 0.194011 4.32884e-20)
(0.55868 0.136242 3.54171e-20)
(1.0256 -0.00369171 -4.37564e-21)
(1.00462 -0.00742621 -1.59474e-21)
(1.02536 -0.00398815 4.27593e-21)
(0.967881 -0.0608403 0)
(0.978207 -0.200776 0)
(1.29155 -0.142411 -2.36929e-20)
(0.987913 -0.0106232 0)
(0.968379 -0.0112944 1.04054e-20)
(1.02194 -0.00503907 0)
(0.603601 -0.541842 -1.51392e-20)
(0.948692 -0.438172 6.06695e-21)
(1.23626 -0.0315551 -1.39079e-19)
(1.12834 -0.300304 -3.54245e-20)
(1.05158 -0.00628423 -1.72045e-20)
(1.28728 0.0444799 -2.24023e-20)
(1.07604 -0.299344 9.53663e-21)
(1.10551 -0.0785492 0)
(0.888667 -0.0905496 2.20228e-20)
(0.141314 -0.0398379 0)
(-0.0960708 0.015155 1.14002e-20)
(1.21201 0.189169 -3.39052e-20)
(1.00183 -0.0021914 5.86392e-22)
(1.02877 -0.134132 4.02991e-21)
(1.23918 -0.0815405 -3.61649e-21)
(0.573522 -0.00359652 -1.72289e-19)
(1.01862 -0.0819731 -8.87006e-22)
(1.02423 -0.00571633 -7.53858e-21)
(1.15661 -0.031698 -1.07118e-20)
(1.03684 -0.0110932 0)
(1.09371 -0.014297 0)
(1.08917 -0.0300423 -5.54663e-20)
(0.430215 0.235923 0)
(1.09296 0.113203 -5.92737e-21)
(1.01551 -0.122185 -1.88072e-21)
(-0.257985 -0.00276704 -6.24563e-20)
(0.988274 -0.0234743 1.02064e-20)
(1.04442 -0.0575044 9.33287e-21)
(1.00216 -0.0232368 -9.77092e-22)
(1.03954 -0.026604 -6.27979e-21)
(1.12547 0.100178 -5.01771e-20)
(1.05862 -0.0413743 1.00101e-20)
(-0.232492 -0.00886392 -1.58849e-19)
(0.906101 -0.459722 -1.14108e-21)
(1.04288 0.00353856 0)
(1.00125 -0.0128575 4.93687e-21)
(-0.224893 -0.000603938 0)
(1.09516 0.110795 0)
(1.24633 0.0516636 -3.74864e-20)
(0.987964 -0.0228354 -9.94575e-21)
(1.09179 0.0559033 2.64347e-20)
(1.02868 -0.00903124 -2.78856e-21)
(0.937355 -0.0692023 7.36928e-21)
(0.987288 -0.0112761 -4.14726e-21)
(1.01468 -0.00480732 1.63645e-21)
(-0.240378 0.000963598 3.22781e-20)
(0.0341254 0.0210779 0)
(1.03238 -0.750471 1.56594e-20)
(0.424807 -0.14876 2.53029e-20)
(1.0053 -0.000437633 -2.08952e-23)
(1.21949 0.0918089 -4.3108e-20)
(0.127824 0.0521144 -4.98282e-20)
(1.12369 -0.0599565 2.68155e-20)
(1.01035 -0.00552334 1.28021e-21)
(0.571521 0.220304 -2.31834e-20)
(1.02813 -0.0129701 6.49831e-21)
(1.03934 -0.00154989 1.2195e-20)
(1.00879 -0.00531995 -6.39852e-22)
(1.12664 0.103447 3.19206e-20)
(0.990229 -0.012414 0)
(0.970651 -0.0891953 7.63668e-21)
(1.12467 -0.290777 0)
(0.599819 -0.0322726 2.18085e-20)
(1.02945 -0.010134 -1.76064e-21)
(0.153255 0.0607398 -1.61853e-20)
(1.13057 -0.000463208 0)
(0.997998 -0.00727441 6.27473e-21)
(1.07235 -0.00687055 -7.17245e-21)
(0.991465 -0.0234068 -2.04751e-21)
(1.00451 -0.00761534 0)
(1.06824 -0.0779714 9.13196e-21)
(1.1452 0.0332818 2.26338e-20)
(0.949941 -0.216723 -1.66102e-20)
(0.124586 0.0378054 6.53845e-20)
(1.11803 -0.0538225 2.68052e-20)
(0.996226 -0.00390615 -5.488e-21)
(1.01783 -0.462323 -1.7347e-20)
(0.773198 0.170746 -4.76685e-20)
(0.845935 0.201277 8.03761e-20)
(-0.154654 -0.000198425 0)
(1.11369 0.102425 0)
(1.00542 -0.0502853 3.83731e-22)
(1.01441 -0.00463641 -2.95901e-21)
(1.00826 -0.0123506 4.06596e-22)
(0.991791 -0.039284 -6.79471e-21)
(1.08853 0.113008 4.4835e-20)
(1.11475 0.0113655 0)
(1.08325 0.0187698 -5.29981e-20)
(0.960073 -0.160646 6.91392e-21)
(1.09534 -0.0289593 -2.34874e-20)
(1.16552 0.200687 -6.46612e-20)
(1.15299 0.0601883 -1.43084e-20)
(0.991392 -0.0225484 2.387e-21)
(1.08723 -0.0941995 -1.90531e-20)
(-0.0608565 -0.0342924 6.50118e-20)
(0.987636 -0.0536496 3.9773e-21)
(0.43277 0.238304 2.31103e-20)
(1.00326 -0.000104139 -3.24286e-22)
(0.99671 0.000439414 1.11464e-22)
(0.458045 0.0690994 0)
(0.947236 -0.0980314 1.78636e-20)
(1.0418 -0.0293355 1.66328e-22)
(1.23518 0.144616 3.34715e-20)
(1.13663 0.111693 0)
(0.989503 -0.22017 0)
(0.0764164 -0.0592348 -6.05666e-20)
(0.994023 -0.0233346 0)
(0.986034 -0.0490413 -1.42032e-22)
(0.541646 -0.487937 6.08564e-20)
(0.134771 -0.0350778 2.74211e-20)
(0.866642 -0.120948 -2.57037e-20)
(1.14746 -0.159256 -1.36503e-20)
(1.05189 0.139443 2.25554e-20)
(1.15933 0.193532 -3.11288e-20)
(-0.296397 0.000181103 -1.21918e-21)
(1.05903 0.139586 5.79204e-20)
(0.970358 -0.0241642 0)
(1.22082 -0.07604 0)
(1.00735 -0.0354062 0)
(1.08679 0.115298 -6.25758e-20)
(1.03793 -0.050424 0)
(0.139641 -0.0633434 0)
(1.08951 0.0550983 -1.29564e-20)
(1.28566 -0.088088 1.02796e-19)
(1.08336 0.0176428 4.08546e-20)
(1.09198 0.0821126 3.04857e-20)
(1.01267 -0.00172494 0)
(1.25751 0.115622 -5.03475e-20)
(1.02107 -0.00640335 -2.76156e-21)
(-0.1113 0.0108586 -1.50101e-20)
(1.00185 -0.0237948 -1.12371e-21)
(1.13761 -0.383557 -8.29756e-20)
(0.999202 -0.00567637 0)
(1.08044 0.204433 -2.38087e-20)
(1.09588 -0.0134748 0)
(0.999856 -0.00471183 -3.82943e-21)
(1.0013 -0.0171518 -1.46088e-21)
(1.00913 -0.00530205 -8.79788e-22)
(0.92318 0.192228 0)
(-0.200783 0.00781634 0)
(0.73751 0.0348695 1.07172e-19)
(1.1062 0.0296193 0)
(1.06276 0.00107426 0)
(1.19141 -0.0587894 0)
(1.00001 -0.000557276 -1.99038e-21)
(1.00004 -0.000290503 -1.01036e-21)
(0.393994 0.11543 4.96219e-20)
(1.00089 -0.0172563 3.41516e-21)
(0.996008 -0.000923321 0)
(1.20991 -0.028208 0)
(1.00193 -0.00215546 0)
(1.14201 -0.160352 0)
(1.18925 -0.0553809 0)
(0.995802 -0.000777134 0)
(0.990423 -0.0130693 0)
(0.933885 -0.0887269 -3.35164e-20)
(0.987544 -0.0518537 3.1015e-22)
(1.0866 -0.0462186 -2.31263e-20)
(0.740978 0.0889339 -2.61764e-20)
(1.06046 0.0291975 -1.59374e-20)
(0.874438 -0.121024 2.1568e-20)
(1.04399 -0.0852883 1.80411e-20)
(0.9964 -0.00367204 -5.52876e-21)
(0.393893 -0.735603 -2.48397e-21)
(0.965171 -0.0160438 6.44613e-21)
(1.03938 -0.0380156 -5.11386e-21)
(0.851052 -0.755364 -4.68628e-20)
(-0.259246 -0.00392969 1.15612e-19)
(1.0911 0.0791879 -5.80188e-20)
(1.11329 0.212879 -6.63733e-20)
(1.01769 -0.0840102 8.08622e-22)
(1.03965 -0.0370172 4.24457e-21)
(-0.237114 -0.00277309 -7.66214e-20)
(1.03724 -0.00694937 6.28857e-22)
(-0.25135 0.00122958 -1.37968e-19)
(1.12505 -0.377301 5.25101e-20)
(0.999568 -0.00486725 -5.11898e-21)
(0.702871 0.0918428 6.97103e-21)
(1.29112 0.0478807 -2.50745e-20)
(1.1582 -0.028273 0)
(1.00822 -0.000437808 3.60018e-22)
(1.06612 -0.1972 1.03761e-20)
(0.489182 0.129234 4.00368e-20)
(1.03408 -0.0222313 0)
(1.02887 -0.019287 0)
(1.04677 0.00841183 0)
(1.04835 0.000645332 -1.79518e-22)
(1.03898 -0.0036848 0)
(1.01163 -0.000822664 -1.38537e-21)
(1.00003 -0.000141434 0)
(0.71938 -0.0450603 -1.85934e-20)
(1.07074 -0.0336568 0)
(0.736961 -0.00614886 1.85573e-20)
(0.987232 -0.00886735 -1.07933e-20)
(1.227 -0.0829037 -4.10894e-20)
(1.15574 -0.0383284 8.33649e-20)
(0.999112 -0.00678999 -1.4522e-21)
(1.02048 -0.00704132 2.47934e-21)
(1.06857 -0.0377763 0)
(1.00084 -0.00223811 -2.20267e-21)
(1.00876 -0.0531782 1.78445e-22)
(0.950986 -0.0364263 1.99686e-20)
(1.02895 -0.0313984 4.05217e-21)
(1.1949 0.0273102 -1.67127e-20)
(0.638404 -0.554726 6.32122e-20)
(1.01715 -0.00237069 -5.36764e-23)
(0.464831 0.127205 5.24484e-21)
(0.0260155 0.0306624 1.11673e-19)
(0.863634 -0.105635 0)
(1.22071 -0.0727507 -1.0098e-21)
(0.978728 -0.751346 -2.48256e-20)
(0.934855 -0.0719658 1.7119e-20)
(1.06004 0.0280611 0)
(1.08776 -0.0279413 3.23851e-20)
(0.275276 0.0941098 -3.43858e-20)
(1.06902 -0.0342601 -4.55094e-23)
(1.09113 0.0429947 1.13081e-20)
(1.00492 -0.0329101 -3.08496e-21)
(0.406884 0.131517 0)
(1.12432 -0.0208908 -2.33924e-20)
(0.971738 -0.422912 -5.57828e-21)
(1.18807 0.0745181 2.0092e-20)
(-0.203212 -0.0112033 5.1454e-20)
(1.06778 -0.0366819 0)
(0.998907 -0.0260366 0)
(1.15678 -0.0526932 0)
(1.29845 -0.153692 -2.93919e-21)
(1.0062 -0.0518732 1.45536e-21)
(1.16838 -0.369436 4.26495e-20)
(0.977203 -0.0288759 0)
(0.940521 0.179253 0)
(1.01153 -0.0546029 -1.30487e-22)
(1.02807 -0.014729 5.78864e-21)
(1.00934 -0.00557813 -1.22791e-22)
(1.00185 -0.00162379 -2.53896e-22)
(0.047057 0.0394043 0)
(0.917579 0.179029 5.931e-21)
(0.986643 -0.0225017 0)
(1.08304 0.171093 0)
(0.952031 -0.120973 -4.39403e-21)
(0.795187 0.196784 -7.955e-20)
(-0.178845 0.0113606 0)
(1.09839 0.202662 2.66002e-20)
(1.29808 -0.0416768 2.70436e-20)
(1.03477 0.00241369 -5.50179e-21)
(0.176507 0.0438507 -1.63114e-20)
(1.08766 0.0683018 1.25014e-20)
(1.01415 -0.0320279 9.2989e-22)
(1.11306 0.0265712 -1.27152e-20)
(0.366197 0.110233 6.80675e-21)
(0.442963 0.0575408 3.02797e-20)
(1.04972 -0.0135272 0)
(0.955178 -0.00776573 6.45955e-22)
(1.01101 -0.0335729 0)
(1.01493 -0.000375417 -2.29456e-21)
(0.362925 0.0303139 -2.03763e-20)
(1.19127 0.0339828 -6.50036e-20)
(0.105769 0.0405231 7.98013e-20)
(0.0999268 0.043075 -1.83018e-21)
(0.981368 -0.019785 -7.64799e-21)
(1.00072 -0.00217563 1.06108e-21)
(1.14912 -0.0026466 -1.83758e-20)
(1.00003 -0.000557739 0)
(1.01027 -0.0124476 -7.91582e-22)
(0.951388 -0.0348437 0)
(1.04663 0.00600339 0)
(1.19948 0.0262303 -5.20288e-20)
(1.12179 -0.0198934 4.33228e-20)
(1.20683 -0.229651 2.79005e-20)
(0.236377 0.0767355 6.30254e-20)
(1.14911 -0.151865 1.10969e-20)
(0.999191 -0.00540452 2.67939e-21)
(0.948538 -0.0944771 -1.66536e-20)
(1.19288 -0.153871 0)
(0.331574 0.100608 2.68876e-20)
(1.08964 0.0410375 -1.7634e-20)
(1.28413 -0.36087 8.98265e-21)
(1.14671 -0.0560327 0)
(0.985867 -0.0229108 1.85208e-22)
(1.08626 0.168976 0)
(0.940765 0.196958 6.83748e-20)
(1.01118 -0.0484957 0)
(1.02599 -0.00454669 2.39636e-21)
(0.649567 -0.285886 4.17884e-22)
(0.0774209 0.00839893 7.52416e-20)
(1.21197 -0.238495 6.06301e-20)
(1.00195 -0.00159227 0)
(-0.118665 0.0118219 -1.00093e-19)
(-0.0341581 0.00531628 -4.46707e-20)
(1.30377 -0.158278 0)
(1.02124 -0.00536335 2.83878e-21)
(-0.152725 -0.0188083 -1.38916e-19)
(-0.2355 -0.00613715 0)
(0.527083 -0.19735 3.11679e-21)
(1.05899 -0.0396976 -1.11616e-20)
(0.999376 -0.000177473 -9.61221e-21)
(0.723655 0.0233156 -1.13571e-19)
(1.00001 -0.000118998 4.07051e-21)
(1.12876 0.141684 -1.96932e-20)
(-0.222183 0.0022698 -1.74941e-20)
(1.24823 -0.0299755 -9.25389e-20)
(-0.18952 -0.0134154 -3.87465e-20)
(1.14156 0.067451 -2.42565e-20)
(0.0127383 0.03344 -3.96427e-20)
(1.14893 0.0324808 -4.53571e-20)
(0.98935 -0.0326487 0)
(0.956119 -0.0067894 0)
(-0.208794 -9.21753e-05 6.70206e-20)
(0.703483 0.220673 -2.25005e-20)
(-0.251428 -0.00568874 0)
(0.461804 0.228261 3.34524e-21)
(1.03739 -0.00619861 -6.64563e-22)
(1.13223 0.14003 4.24225e-20)
(1.00002 -0.000442832 0)
(1.15846 -0.0633977 -7.56343e-22)
(1.12514 0.0796921 -2.34166e-20)
(1.20302 -0.146562 7.87746e-20)
(0.999675 -0.00473786 4.34637e-21)
(0.96763 -0.0793484 1.87598e-20)
(1.2142 0.0901885 4.19398e-20)
(0.421277 0.116825 0)
(-0.193934 0.000296499 0)
(-0.265954 -0.00315839 0)
(1.10847 -0.0800343 -2.19778e-20)
(1.03784 -0.1266 1.66426e-22)
(1.19425 0.133882 0)
(0.967077 -0.0119138 -2.3199e-20)
(1.02763 -0.00850868 -1.82341e-22)
(0.996486 -0.0123808 0)
(1.05788 0.0136173 -1.03956e-20)
(1.09417 0.0766375 3.2383e-20)
(0.995759 -0.00412456 0)
(1.12354 0.0759919 -4.24626e-20)
(1.00708 -0.0121462 5.20234e-22)
(1.00283 -0.000185459 -1.01835e-21)
(1.00505 -0.00741569 1.12837e-21)
(0.161803 0.0542379 7.02149e-20)
(0.964171 -0.013151 -1.66127e-21)
(1.00002 -0.000392831 0)
(1.1456 -0.00432571 1.77949e-20)
(1.14622 -0.0278766 -2.93886e-20)
(1.01732 -0.00254534 2.47601e-21)
(-0.259233 0.0013129 -3.93274e-20)
(1.03732 -0.0106688 6.8369e-21)
(1.03002 0.00138755 -1.1643e-20)
(1.1493 -0.0762466 -4.18578e-20)
(0.884761 -0.131069 0)
(1.0637 0.00179497 0)
(1.02574 -0.0529881 1.4265e-22)
(1.30289 -0.358014 -4.37924e-21)
(0.862023 -0.111154 -1.28171e-21)
(1.06326 -0.120291 0)
(0.961804 0.199619 -6.73059e-20)
(1.06676 -0.119159 0)
(0.612945 0.222623 1.81603e-20)
(0.907245 -0.0182801 -2.60506e-20)
(1.195 0.0328574 8.93206e-20)
(0.532456 -0.247625 -6.09131e-20)
(0.338507 0.0198266 0)
(1.02549 -0.00442606 -2.05692e-21)
(0.299627 0.0960193 4.69338e-20)
(1.28226 0.0848953 1.0155e-20)
(1.01211 -0.00387784 -1.91599e-21)
(-0.0893294 0.0216298 0)
(0.997946 -0.0045897 0)
(1.00549 -0.00738371 7.86011e-22)
(1.11939 -0.0304644 0)
(1.00366 -0.00694469 0)
(1.1361 -0.242214 -5.71453e-20)
(0.308545 0.0973901 0)
(1.02051 -0.00631722 -2.57824e-21)
(0.219043 -0.125083 -1.36063e-19)
(1.03417 0.00230221 1.00571e-20)
(1.11392 -0.0505951 -8.76795e-21)
(0.712063 0.224545 -4.14332e-20)
(1.01714 -0.00196076 2.6357e-21)
(0.0563673 0.0130037 0)
(1.01274 -0.0671895 8.78229e-22)
(1.03683 -0.0141805 -2.90637e-21)
(0.997187 -0.0170202 -4.36462e-21)
(0.996182 -0.0126668 0)
(1.25207 -0.013892 0)
(0.735866 -0.201551 5.40675e-20)
(-0.271105 -0.000950414 1.1637e-19)
(1.15419 -0.15101 -1.30536e-20)
(0.139025 0.00691885 4.19415e-20)
(1.15115 -0.00876093 5.26452e-20)
(0.995949 -0.00389806 5.33496e-21)
(1.21481 0.100383 -2.647e-20)
(-0.252435 -0.00585967 0)
(1.27737 -0.03708 0)
(0.751093 -0.225214 0)
(1.2354 -0.0270845 2.86391e-20)
(1.08266 0.0685398 -3.25124e-20)
(1.06784 -0.0616171 1.27713e-20)
(1.25311 -0.0198325 0)
(1.02317 -0.0508109 -2.34509e-21)
(1.26916 -0.437859 1.40302e-21)
(1.00204 -0.0010092 -3.59609e-22)
(-0.140867 -0.0250366 1.65246e-19)
(1.05113 -0.0119819 -4.01452e-21)
(0.768256 -0.23315 2.99245e-20)
(0.929334 -0.0877688 0)
(1.03952 -0.0290863 -8.84416e-21)
(0.935057 -0.0207296 -5.43487e-20)
(0.954895 -0.00474695 1.20716e-21)
(1.00961 -0.0119968 -4.20838e-23)
(1.30356 -0.0960353 -4.6275e-20)
(1.01071 -0.0677036 -9.22554e-22)
(1.00493 -0.00762116 5.59307e-22)
(1.11707 0.0129081 -2.4867e-20)
(1.18819 -0.0739283 -6.49287e-20)
(1.25538 -0.0119733 -3.98642e-20)
(1.30688 -0.149465 0)
(1.10255 0.216314 -8.7296e-21)
(-0.170358 -0.000468591 0)
(1.00077 -0.00216203 0)
(0.999468 -0.000239124 -3.8517e-21)
(-0.108325 0.0142589 4.78085e-20)
(0.995213 -0.0078921 0)
(1.25515 -0.280627 -1.27945e-19)
(1.14365 0.0711915 2.61854e-20)
(1.05564 -0.0400946 -2.36703e-21)
(0.995909 -0.000429285 1.34951e-21)
(1.0613 -0.110796 -1.92131e-22)
(0.990482 -0.000544645 0)
(1.03589 -0.0140421 -2.74314e-21)
(1.08438 -0.00146271 1.15832e-20)
(1.25244 -0.272573 1.11555e-19)
(1.21037 -0.225469 -9.9287e-20)
(0.650098 -0.303763 -1.02738e-19)
(1.12206 -0.171576 1.07393e-20)
(1.00059 -0.00309194 1.77774e-22)
(1.11617 0.0493375 4.60324e-20)
(0.685418 0.00972734 -7.28913e-20)
(1.00663 -0.0116089 2.99008e-22)
(1.1229 0.0825527 2.3486e-20)
(1.06127 -0.027027 -1.05625e-20)
(0.312595 0.0991556 -6.80514e-20)
(0.954616 -0.0390338 9.72614e-21)
(0.0254908 -0.00154736 1.03325e-19)
(1.00212 -0.000898983 0)
(1.28766 0.0682718 0)
(1.00002 -0.000295179 9.23163e-22)
(1.15489 0.0481672 -2.24223e-20)
(1.01363 -0.0326756 -7.78241e-22)
(1.05711 0.0128317 -1.01381e-20)
(1.06079 0.0259107 1.52887e-20)
(1.01732 -0.0021326 0)
(1.02948 0.00146256 7.46376e-21)
(1.01656 -0.00352315 1.49738e-21)
(0.885257 0.184926 0)
(-0.204091 -0.00401242 0)
(1.09093 0.0100799 -5.52954e-20)
(0.09978 0.0147567 -8.69663e-20)
(0.984966 -0.0223743 -2.02752e-22)
(1.11221 0.0126576 -1.13074e-20)
(1.08392 -0.043132 4.2716e-20)
(1.24442 0.0703768 3.72585e-20)
(-0.054494 -0.0266066 1.16393e-19)
(1.09053 0.011833 3.03366e-20)
(1.01943 -0.00243749 0)
(0.99003 -0.426662 -2.12382e-20)
(1.00699 -0.0117973 -2.8289e-22)
(0.984617 -0.0216982 0)
(1.08502 -0.0385835 -1.94711e-20)
(-0.255056 0.000238867 0)
(0.632142 -0.0232328 -8.94578e-20)
(1.3029 -0.0266837 -7.70294e-22)
(1.10731 0.206057 2.90954e-20)
(0.722268 -0.202661 -5.53811e-20)
(0.948346 -0.0149809 -2.22566e-20)
(1.00549 -0.0253695 -1.13336e-21)
(1.28339 -0.426369 -6.36126e-20)
(1.00537 -0.00758402 -1.01322e-21)
(1.30101 -0.0682807 7.56767e-20)
(1.08448 -0.0257603 -2.93821e-20)
(0.999219 -0.000408609 -3.0452e-21)
(0.399305 0.0974697 -5.79944e-20)
(0.305593 0.0108838 1.80525e-20)
(0.996992 0.000453842 4.00373e-21)
(-0.25547 -0.00305458 -1.41488e-19)
(1.04444 -0.0877286 0)
(1.04045 0.10081 6.3421e-21)
(0.932026 -0.330379 0)
(1.11128 0.211994 3.40408e-20)
(0.27617 0.0108206 -8.84228e-21)
(1.25034 -0.328479 0)
(1.00268 -0.000689207 2.1539e-21)
(1.01514 -2.00767e-05 5.17385e-22)
(0.255907 0.0812526 3.38949e-20)
(1.00132 -0.030256 -5.0253e-21)
(1.03062 -0.0211508 0)
(1.08673 -0.0258457 -1.08037e-20)
(0.999813 -0.0308804 0)
(0.945754 0.198141 -3.6453e-20)
(1.09299 0.163069 -3.60847e-20)
(1.152 -0.00469002 3.75304e-20)
(0.0389916 0.00123548 -5.29088e-20)
(1.13339 -0.002271 -1.34721e-20)
(1.12959 0.109309 -5.18875e-20)
(1.06048 -0.026267 0)
(1.0028 -0.00419619 0)
(1.0152 -0.00149841 2.40683e-21)
(1.00968 -0.00672203 0)
(-0.262716 -0.000282039 -1.41471e-19)
(0.368637 0.0258937 1.62098e-20)
(1.061 0.171357 0)
(0.9957 -0.000247247 0)
(1.0192 -0.00221477 6.46903e-22)
(1.06122 0.0269879 0)
(1.0155 -0.0219445 -9.73853e-22)
(1.12112 -0.0331667 2.35916e-20)
(0.970426 -0.0846472 -1.34766e-20)
(1.22568 -0.475821 0)
(0.432785 0.119153 7.1127e-20)
(1.1259 0.0731205 -6.49748e-20)
(1.18761 0.143285 6.02806e-20)
(1.06433 0.173272 0)
(1.02969 -0.0197528 0)
(1.25007 -0.0219492 0)
(1.00589 -0.0257936 0)
(-0.0462174 -0.0251182 1.31657e-19)
(1.28684 0.0788102 0)
(0.0135921 -0.0220363 -1.40391e-19)
(0.873452 0.0128443 -5.47527e-20)
(1.04741 0.00582882 0)
(1.08446 0.000438469 -2.48958e-20)
(1.16814 -0.654573 6.64529e-20)
(0.0355237 0.00105356 2.79096e-21)
(0.0451382 -0.025929 7.82382e-20)
(0.789635 -0.101848 0)
(1.19785 -0.156722 6.04671e-22)
(-0.200927 -0.00190796 2.73434e-20)
(1.00183 -0.00190569 -1.4147e-22)
(1.18978 0.134112 1.32431e-20)
(0.583267 -0.634744 1.70903e-20)
(1.08244 0.11693 2.15342e-20)
(1.00192 -0.00185461 8.12243e-24)
(1.03237 -0.0220468 0)
(1.1216 -0.0165033 0)
(0.0600513 0.0391385 -2.87625e-20)
(0.345394 -0.669015 -3.84286e-20)
(1.0186 -0.309067 -1.21762e-20)
(0.988319 -0.00738853 8.66973e-21)
(1.05675 0.0110123 0)
(0.889633 -0.0551769 -2.83462e-20)
(0.188885 -0.210903 0)
(1.03853 -0.0283582 0)
(1.23585 -0.299091 3.16898e-20)
(1.00379 -0.0146919 -1.98203e-21)
(0.985835 -0.050725 -4.29941e-21)
(1.23987 -0.0840912 0)
(1.00653 -0.0112983 -5.65247e-22)
(0.99838 -0.00738073 4.39897e-22)
(1.03901 -0.0514442 5.51181e-21)
(1.00199 -0.0998681 0)
(1.0031 -0.00422765 1.19899e-21)
(1.0236 -0.0500337 2.56543e-21)
(1.02178 -0.00539954 -3.23108e-21)
(1.11135 0.215714 -9.0027e-21)
(1.02021 0.174052 0)
(0.405909 0.0484463 0)
(1.02493 -0.00514078 4.06395e-21)
(0.872635 -0.204199 2.31202e-20)
(0.993083 -0.00167006 1.42826e-20)
(1.21563 0.105014 -2.98314e-20)
(1.24734 0.0433641 -3.64696e-20)
(1.02714 -0.155357 -1.1305e-20)
(1.00345 -0.0147675 2.05308e-21)
(1.05128 -0.0072461 1.24581e-20)
(1.16895 -0.393053 3.51574e-20)
(1.1765 0.0759041 -4.22009e-20)
(1.08992 -0.0277921 0)
(-0.229901 0.00479822 -6.03432e-20)
(1.07889 0.11536 1.83896e-20)
(0.991908 -0.0221296 -5.86943e-21)
(0.981824 -0.020708 2.05057e-22)
(0.653349 0.217534 1.98625e-20)
(-0.0751587 -0.0364811 1.20194e-22)
(1.10599 -0.189464 0)
(1.01645 -0.00476687 0)
(1.07937 0.198475 2.57417e-20)
(1.00073 -0.0029599 -2.66689e-21)
(1.11071 -0.0502288 1.87435e-20)
(1.02007 -0.00860334 1.89194e-21)
(1.28999 -0.165277 0)
(-0.022892 -0.000418936 -5.87041e-20)
(1.00669 -0.00779362 -5.26416e-23)
(1.03865 -0.00269862 -6.40289e-21)
(1.29094 -0.0609059 0)
(0.99852 -0.0267528 -3.66606e-22)
(0.774861 0.109581 -5.90484e-20)
(-0.247047 0.00115224 0)
(1.11211 0.0520124 1.66181e-20)
(0.965733 -0.0107891 1.0534e-20)
(0.99902 -0.00100905 -1.88212e-21)
(1.02024 -0.00840099 0)
(1.00203 -0.000732415 1.23332e-21)