/*--------------------------------*- C++ -*----------------------------------*\
| =========                 |                                                 |
| \\      /  F ield         | OpenFOAM: The Open Source CFD Toolbox           |
|  \\    /   O peration     | Version:  v2012                                 |
|   \\  /    A nd           | Website:  www.openfoam.com                      |
|    \\/     M anipulation  |                                                 |
\*---------------------------------------------------------------------------*/
FoamFile
{
    version     2.0;
    format      ascii;
    class       surfaceVectorField;
    location    "850";
    object      ddtCorrDdt0(Uf);
}
// * * * * * * * * * * * * * * * * * * * * * * * * * * * * * * * * * * * * * //

dimensions      [0 1 -2 0 0 0 0];


internalField   nonuniform List<vector> 
27882
(
(-0.00480028 0.00253855 -2.83819e-19)
(-0.00531663 0.00182069 -5.65095e-19)
(-0.00437316 0.00168007 -6.87982e-19)
(-0.0552981 0.0197209 1.5157e-19)
(-0.0592048 0.0106524 1.16278e-18)
(-0.0536334 0.00714208 -9.90844e-20)
(9.13947e-06 -1.44511e-06 1.51355e-19)
(1.71955e-05 -2.09549e-06 -3.06076e-19)
(1.88982e-05 -5.85423e-06 -5.51212e-19)
(-0.00501565 0.00364902 -2.0202e-19)
(-0.00400463 0.00317102 7.77643e-20)
(0.00672034 -0.00234163 3.0731e-19)
(0.00677124 -0.00342162 2.89884e-19)
(0.00776651 -0.00260226 3.98532e-21)
(-3.1771e-05 5.29678e-08 1.23599e-19)
(-3.25835e-05 1.8349e-07 1.55753e-20)
(-3.18341e-05 1.8018e-06 2.77054e-20)
(-6.16352e-07 0.000108753 5.50973e-19)
(4.92566e-06 0.000112891 -5.80997e-19)
(-3.56618e-06 0.000123101 4.21207e-19)
(0.00113082 0.0010908 -6.40326e-19)
(0.00114139 0.00123056 -1.54579e-18)
(0.00130081 0.00117079 3.17182e-20)
(0.00666368 -0.00141513 5.64442e-19)
(0.00588279 -0.00217724 -9.45878e-19)
(0.00644581 -0.000654431 3.11882e-19)
(0.00616887 6.48242e-05 -1.0242e-18)
(0.00556843 -0.000669667 -3.7903e-19)
(-0.0391065 0.0427864 -1.02788e-18)
(-0.0427709 0.0317068 -5.28227e-20)
(-0.034869 0.0342315 2.07429e-18)
(0.0110719 0.230409 6.01131e-18)
(-0.001041 0.25232 5.36338e-18)
(-0.0023246 0.233735 -2.84866e-18)
(0.0501495 0.00874959 -1.50763e-19)
(0.0458663 0.00463532 -4.87058e-19)
(0.0518233 0.0023088 5.45442e-19)
(-0.000726893 0.000911261 -5.41787e-18)
(-0.00083502 0.000897692 -1.00992e-18)
(-0.000761954 0.00080076 1.22457e-18)
(1.43636e-07 7.79806e-05 -1.20935e-19)
(3.42406e-08 9.39545e-05 8.17305e-19)
(2.3012e-06 7.53439e-05 -7.62237e-20)
(-1.94623e-05 -2.74698e-05 7.36705e-20)
(-2.14036e-05 -3.29023e-05 -2.66599e-19)
(-2.21462e-05 -3.86604e-05 2.40283e-19)
(0.0314527 0.196563 6.14939e-18)
(0.0205886 0.215256 5.3997e-18)
(1.10401e-05 7.95455e-05 -2.44441e-20)
(1.14074e-05 7.5291e-05 -4.05603e-20)
(7.78249e-07 6.17688e-05 -4.00621e-19)
(-3.96177e-06 8.28538e-05 2.96653e-20)
(5.39204e-05 -0.00272725 2.03737e-20)
(2.28411e-05 -0.00310002 -3.83902e-20)
(0.000423485 -0.00281927 9.83461e-21)
(-0.0845221 -0.0183085 -6.53619e-19)
(-0.0894666 -0.00869647 5.67448e-18)
(-0.0799879 -0.0071482 -9.25308e-19)
(-0.0312945 -0.0828895 -3.30306e-18)
(-0.0227978 -0.0790849 4.70993e-18)
(-0.0255879 -0.079253 -3.55399e-18)
(-3.16709e-05 -4.06356e-07 1.92905e-20)
(-3.2008e-05 -1.70498e-06 -1.95057e-20)
(-5.73981e-06 -3.9599e-06 -9.12055e-20)
(-6.56516e-06 -5.45979e-06 -3.25481e-19)
(-4.50005e-06 -5.67908e-06 -1.40288e-19)
(-0.0377661 -0.0863829 5.97478e-18)
(-0.0342518 -0.086407 -7.9023e-18)
(-0.0219941 -0.0499493 -2.83151e-18)
(-0.0430815 -0.0496471 -2.64559e-19)
(0.0017332 -0.0548567 1.58864e-18)
(0.00342934 -0.080301 4.09153e-18)
(-0.00713681 -0.0604791 6.44077e-19)
(0.0101382 -0.0417387 2.84136e-18)
(0.0346694 0.0634356 -9.70759e-19)
(0.0285421 0.0631231 -7.19617e-19)
(0.0330849 0.0699459 2.10515e-18)
(-0.0397382 0.0083092 -7.97735e-19)
(-0.0428078 0.0100395 1.56051e-18)
(-0.0395235 0.011265 4.41878e-19)
(-0.0682801 0.00275449 -3.5629e-19)
(-0.0674108 -0.0136432 2.36085e-18)
(-0.0656784 -0.0126756 1.60935e-18)
(0.116578 0.0324981 3.40489e-18)
(0.132045 0.0457251 5.60874e-18)
(0.120595 0.0550479 2.26993e-18)
(0.0151607 -0.093508 1.55661e-18)
(-0.00724496 -0.0992159 -1.10846e-18)
(0.00112751 0.000966567 1.3702e-19)
(0.000982222 0.00101773 -5.10129e-19)
(0.124971 -0.074834 5.60818e-19)
(0.137186 -0.0762242 2.45226e-19)
(0.158011 -0.0757617 -3.01957e-19)
(0.0067594 -0.00450273 1.10969e-19)
(0.00681568 -0.00547944 7.07303e-19)
(0.00790346 -0.00473323 1.21479e-19)
(-0.0661172 0.0205388 -1.02986e-18)
(-0.0668512 0.0235529 1.212e-18)
(0.047879 0.0142118 2.26406e-19)
(0.0553035 0.0121638 6.38918e-20)
(0.00586881 -0.0040915 -1.55823e-19)
(0.0407189 -0.0386993 -3.51505e-18)
(0.0201561 -0.0400241 1.48457e-18)
(0.0264959 -0.0512946 1.72238e-18)
(-0.000183918 -5.83742e-06 7.41212e-21)
(-0.000139449 -5.82697e-05 3.2048e-20)
(-0.000135197 1.30298e-05 -9.84847e-20)
(-0.0178958 0.176457 -2.09851e-18)
(-0.0225184 0.163946 -1.63947e-18)
(-0.0161142 0.16565 1.51965e-18)
(0.00618569 0.00213928 5.982e-19)
(0.00707101 0.00265382 1.80586e-19)
(0.00698517 0.00153989 2.54494e-19)
(0.0236273 0.10143 -3.7368e-18)
(0.0123572 0.122295 -1.51686e-19)
(0.0134692 0.110828 -5.24347e-19)
(0.00118451 0.000589446 -2.93954e-19)
(0.00102424 0.000708182 1.14106e-19)
(0.00124864 0.000799483 -1.17834e-19)
(-9.53267e-05 -1.86624e-05 6.01118e-20)
(-8.72042e-05 -1.83706e-05 -1.23092e-19)
(-9.55507e-05 -2.50911e-05 -8.63813e-21)
(0.124739 0.0023817 -1.29241e-19)
(0.134653 0.00755221 7.78172e-19)
(0.138263 0.0235663 -7.25774e-19)
(0.00552316 0.00241828 2.0688e-19)
(0.00538265 0.00161204 -1.30642e-19)
(-0.0399448 0.0173081 -3.93446e-19)
(-0.0367309 0.0186069 1.37974e-18)
(-0.0399655 0.0209718 4.77859e-19)
(0.0898042 -0.0947439 -3.98714e-18)
(0.0664554 -0.100546 1.86991e-17)
(0.0718257 -0.114449 -1.23713e-17)
(-0.00209915 0.00456231 3.88601e-19)
(-0.00285494 0.00438759 1.33849e-19)
(-0.00216575 0.00365246 1.88962e-19)
(-0.0344543 0.052408 -6.76509e-19)
(-0.0433569 0.0525353 -3.63066e-18)
(-0.0183066 -0.22321 -1.00963e-18)
(-0.0151702 -0.226075 4.66975e-19)
(-0.0236187 -0.216266 1.48957e-18)
(-0.00159839 0.00558534 1.23073e-19)
(-0.00125892 0.00460337 2.4038e-19)
(-0.00288711 0.00160082 6.30427e-20)
(-0.00246049 0.00174945 1.85542e-19)
(-0.0028286 0.00211165 -1.28665e-19)
(-0.0338023 -0.0466428 -2.38486e-18)
(-0.0311725 -0.0484897 2.70712e-18)
(-0.0341009 -0.0498199 -3.17561e-19)
(0.0415908 0.000698831 1.27267e-19)
(0.0398707 0.00571406 6.87256e-19)
(-8.69536e-05 -0.000674331 -1.91448e-19)
(-5.18973e-07 -0.000679112 4.54924e-20)
(6.77487e-06 -0.00078395 -7.98033e-20)
(0.000107926 -0.0023692 -9.46722e-20)
(-0.000269135 -0.00255913 2.57944e-20)
(-0.0336221 0.0194089 4.35012e-19)
(-0.0330821 0.0226689 2.42506e-20)
(-0.0306476 0.0202658 -2.59407e-19)
(-0.000201202 -0.000684228 -1.42503e-19)
(-0.000168317 -0.000574029 1.14365e-19)
(-9.54228e-05 -1.73285e-05 7.12452e-20)
(-0.000102526 -1.71599e-05 -3.44948e-20)
(-9.39143e-05 -1.6451e-05 -6.97065e-20)
(0.00128826 0.000431399 -1.76228e-19)
(0.00108548 0.000403075 -5.66641e-20)
(0.0229464 0.117448 2.57958e-18)
(0.0383895 0.138359 -2.79337e-18)
(-0.243385 0.510611 3.16351e-18)
(-0.232357 0.484229 4.44554e-18)
(-0.20348 0.464948 -3.11419e-19)
(-8.66441e-05 -1.12457e-05 -1.15884e-20)
(-0.000101695 -1.58029e-05 1.86866e-19)
(0.187612 -0.0751091 -1.11511e-18)
(0.187346 -0.0722557 -6.71911e-19)
(0.187227 -0.072181 -8.02566e-19)
(-0.000131198 7.96874e-06 -5.5909e-20)
(-0.000124812 5.48976e-06 -1.0654e-20)
(-0.000128014 5.45568e-06 -7.84568e-20)
(-5.27173e-05 9.53626e-05 2.19844e-19)
(-4.75513e-05 9.58663e-05 1.04222e-19)
(-5.45846e-05 9.32214e-05 -1.63265e-19)
(0.0346325 0.0568034 -1.08652e-18)
(0.0399253 0.0620342 -2.53247e-19)
(5.78253e-06 8.9948e-05 -1.38494e-20)
(1.08189e-05 8.51519e-05 2.77336e-21)
(-0.0167844 -0.228492 2.92246e-18)
(-0.0193816 -0.21862 1.93271e-18)
(-0.00511468 -0.091493 4.11026e-18)
(-0.0109415 -0.0752733 9.26526e-18)
(0.00922051 -0.0799037 1.77995e-18)
(-1.8606e-05 -0.000151416 -4.97381e-20)
(-1.3111e-05 -0.000142477 3.0686e-19)
(-2.00524e-05 -0.000164728 -1.02696e-19)
(0.00450554 -0.00463563 8.37661e-20)
(0.00467615 -0.00409489 2.38214e-20)
(0.00397176 -0.00430812 3.81968e-20)
(0.027806 -0.029558 4.48263e-20)
(0.0293693 -0.026337 -6.33396e-19)
(0.0254734 -0.0263633 3.72348e-19)
(0.109097 0.00420778 -2.35234e-18)
(0.0977465 0.00555094 -1.9301e-18)
(-0.122084 -0.357334 7.0912e-18)
(-0.132027 -0.334554 3.43041e-18)
(-0.115185 -0.416333 5.14285e-18)
(0.0548836 0.146189 6.48276e-18)
(0.0475851 0.152845 1.03668e-18)
(0.0614209 0.118825 4.51272e-18)
(0.0074076 -0.000647933 6.22125e-19)
(0.0314516 0.0853451 -5.59517e-19)
(0.0324537 0.0780269 -8.23317e-19)
(-0.0334134 -0.0190626 -3.50801e-18)
(-0.0316315 -0.0205121 -5.93675e-19)
(-0.0339411 -0.021493 -6.45921e-18)
(0.0553554 -0.0373252 4.32871e-18)
(0.0551765 -0.0173612 -1.71285e-18)
(0.0507788 0.166585 -8.57243e-18)
(0.0594148 0.142243 -4.60767e-18)
(0.0169989 -0.0134735 5.69572e-19)
(0.0180116 -0.0152993 -2.97848e-20)
(0.0191131 -0.0133673 6.23264e-19)
(0.000891162 0.00220316 -3.64247e-19)
(0.00104553 0.00184203 -3.06451e-20)
(0.00133425 0.00226529 -4.13889e-19)
(-0.0277287 -0.0389676 2.15759e-18)
(-0.0297036 -0.0406964 2.33099e-18)
(-0.0303681 -0.0379756 -3.31194e-18)
(-0.00312165 -0.000426505 3.9554e-18)
(-0.00288147 -0.00043362 6.75552e-19)
(0.00521663 -0.0051806 -1.73424e-19)
(0.00430961 -0.00534402 8.26563e-20)
(-0.00144739 0.125795 -2.70319e-18)
(0.00907361 0.0936482 -3.15273e-18)
(-0.0253171 -0.0390196 1.06582e-17)
(-0.0264674 -0.0365406 5.43209e-18)
(-0.0217122 -0.213612 -6.28915e-18)
(-0.0150168 -0.198338 6.05997e-18)
(-0.0308854 -0.206724 1.9419e-18)
(-3.82966e-05 -8.67572e-06 5.61828e-19)
(-4.53957e-05 -8.48113e-06 -2.82058e-19)
(-4.92727e-05 -1.31241e-05 -4.14515e-19)
(-0.0220104 -0.0135704 4.92621e-19)
(-0.0207915 -0.0145515 3.71411e-18)
(-0.0225417 -0.0149157 1.07608e-17)
(0.112941 -0.087228 -7.332e-18)
(0.1069 -0.0782921 -6.0381e-18)
(-1.51793e-05 -0.000145175 3.79791e-20)
(-1.95146e-05 -0.000159593 -9.29542e-21)
(-0.00014362 -1.60217e-05 -1.00242e-19)
(-0.000144195 -1.99977e-05 -3.7114e-20)
(-0.000141718 -2.33261e-05 -2.50813e-20)
(-2.72379e-05 0.000105249 3.69001e-21)
(-1.9893e-05 0.000105253 -1.11133e-20)
(-2.54247e-05 0.00011672 -3.18718e-20)
(-0.0223416 0.00720144 1.73267e-19)
(-0.0221574 0.00554866 3.86629e-18)
(-0.0240032 0.00667523 5.54171e-18)
(0.0404291 0.127338 2.70014e-18)
(0.0358524 0.160566 5.41541e-18)
(0.0256451 0.163839 7.90995e-18)
(-7.05589e-05 -4.75158e-05 -4.26305e-20)
(-7.74669e-05 -5.53346e-05 1.24002e-20)
(-8.39306e-05 -4.64761e-05 1.60695e-20)
(0.115437 -0.00460263 1.47452e-18)
(0.110767 -0.024704 -1.05785e-18)
(-0.0024443 -0.00865838 -2.29028e-19)
(-0.00177588 -0.00918275 1.09328e-18)
(-0.00167243 -0.00804041 -6.58823e-19)
(-4.84724e-05 9.44192e-05 -6.33196e-20)
(-5.78567e-05 9.37966e-05 4.08355e-20)
(-0.000144833 -5.3367e-06 -5.54472e-20)
(-0.000143115 -1.12582e-05 -1.83094e-19)
(0.185471 -0.0779326 -1.02789e-18)
(0.186508 -0.0749858 -6.20733e-19)
(-0.0846445 -0.0289693 6.57355e-18)
(-0.075594 -0.0246913 2.50976e-18)
(-0.0395246 0.0143935 -1.32501e-18)
(-0.0429694 0.0163131 -6.40707e-19)
(-0.0322093 -0.227601 2.12696e-18)
(-0.0168498 -0.221522 -6.46174e-18)
(-0.142459 -0.155104 7.13424e-19)
(-0.134457 -0.102979 -4.89535e-18)
(-0.142309 -0.197656 -9.1551e-20)
(-0.0863406 -0.0122285 -2.62177e-18)
(-0.0850749 -0.0243228 1.05735e-17)
(-0.0778516 -0.0203441 -1.24478e-18)
(-1.58269e-05 3.37645e-06 3.90088e-19)
(-1.74281e-05 -4.65722e-06 4.26801e-19)
(-1.8196e-05 7.16433e-06 4.09331e-19)
(-0.249824 0.526111 1.17016e-17)
(-0.266054 0.526163 2.70905e-18)
(-0.00147075 0.00904641 5.93394e-19)
(-0.00270202 0.00802287 5.86423e-19)
(-0.001491 0.00745443 2.63377e-19)
(-3.58568e-05 1.86592e-06 -9.74882e-20)
(-3.58046e-05 6.35808e-07 4.58836e-20)
(-3.3091e-05 1.40332e-06 1.06822e-19)
(-0.00340367 -0.00937745 6.16735e-19)
(-0.00312434 -0.00814698 -1.18368e-18)
(0.0959637 0.153741 1.21474e-18)
(0.0846711 0.166183 7.79244e-18)
(0.116632 0.137199 4.37439e-18)
(-0.0222628 0.00907252 -1.18605e-18)
(-0.020669 0.00785105 -1.33517e-18)
(-0.0005049 -0.000112736 7.9089e-20)
(-0.000500454 -0.000190289 3.70927e-20)
(-0.000429954 -0.000147219 2.94514e-20)
(-0.105057 0.276323 1.03014e-17)
(-0.179331 0.322055 -1.40327e-18)
(-0.225372 0.322767 4.21995e-18)
(-0.000106855 0.00285289 -7.98666e-21)
(0.000384769 0.00300053 2.76079e-20)
(-5.86219e-05 0.00345093 -3.21432e-20)
(-3.13771e-05 4.9832e-06 -1.35331e-19)
(-3.165e-05 6.07261e-06 -5.83701e-20)
(-2.99067e-05 5.63948e-06 -1.78855e-20)
(-0.121283 -0.292068 4.35945e-18)
(-0.114143 -0.40052 1.17948e-18)
(0.000656855 0.0026158 -1.31695e-19)
(0.000486365 0.00213749 -4.54868e-20)
(7.5775e-05 0.000156537 -4.14923e-20)
(7.98078e-05 0.000155208 -1.84811e-19)
(7.46999e-05 0.00015329 -5.1673e-19)
(-0.0897041 -0.103085 -2.37345e-18)
(-0.0769359 -0.106578 -3.52974e-18)
(-0.0919041 -0.124546 8.83784e-18)
(-0.00324467 0.00141582 -9.50871e-20)
(-0.0027603 0.00114729 -8.02912e-20)
(0.000577936 0.000566803 5.28741e-19)
(0.000689431 0.000529466 -1.1882e-19)
(0.000563276 0.00044624 1.24666e-19)
(7.64167e-05 0.000157607 5.70811e-19)
(7.03382e-05 0.000156377 4.4616e-19)
(-0.0822459 0.00382633 -4.52347e-19)
(-0.0757796 0.00267964 1.37315e-19)
(-0.0797666 0.00890306 1.09841e-19)
(-0.0911055 0.0167129 1.08158e-17)
(-0.0820424 0.0174847 7.58585e-18)
(-0.0336954 0.0165829 -6.30301e-20)
(-8.3441e-05 4.65911e-06 -9.48135e-21)
(-8.94856e-05 2.63141e-06 -1.31905e-20)
(-7.90681e-05 6.60741e-07 -2.18832e-20)
(0.00295837 0.0061882 -3.64993e-20)
(0.00352668 0.00599252 -1.34101e-19)
(0.00345491 0.00666672 1.91022e-19)
(0.141718 -0.147207 -2.0596e-18)
(0.140481 -0.138993 6.06239e-19)
(0.135954 -0.146434 1.10063e-19)
(-0.000241628 -3.47486e-05 1.40958e-19)
(-0.000230631 4.71035e-05 6.49497e-20)
(-6.87831e-05 2.02657e-05 9.1594e-21)
(-6.21574e-05 2.25649e-05 3.7399e-20)
(-6.35101e-05 2.63507e-05 4.9205e-22)
(-0.0683837 -0.591078 -2.0882e-18)
(-0.0739688 -0.602503 -9.59896e-18)
(-0.0778809 -0.611943 -1.97924e-17)
(-0.000278876 0.00201636 -1.17699e-19)
(-0.000197568 0.00241097 -1.19786e-19)
(7.80771e-05 0.00206104 7.44035e-20)
(-0.0297642 0.0989099 5.08949e-19)
(-0.0295064 0.109042 3.31238e-18)
(-0.0199028 0.101826 1.87761e-19)
(-0.0354908 -0.0176716 -5.67144e-19)
(-0.0332208 -0.01676 -7.87241e-19)
(5.65197e-05 0.00960429 3.83952e-20)
(-0.00152708 0.010726 -7.23085e-19)
(-0.0466194 0.15737 -1.12518e-18)
(-0.0505194 0.145931 3.80514e-19)
(-0.0560542 0.132788 -5.91931e-19)
(-0.0159085 0.00212975 1.29988e-18)
(-0.0153938 0.00111228 -1.49945e-18)
(-0.0169695 0.00142984 -1.04057e-18)
(-0.146545 -0.254799 6.3816e-19)
(-0.136776 -0.126796 -5.04566e-18)
(-0.0999992 -0.0971545 -1.55829e-18)
(-0.0898805 -0.083518 8.58915e-18)
(-0.0145027 -0.00768278 -3.38392e-18)
(-0.0136423 -0.00830112 -9.17281e-19)
(-0.0147788 -0.00875336 -1.09132e-17)
(0.183226 -0.0813642 -4.2045e-19)
(0.182492 -0.0792041 -3.85783e-19)
(-0.0707324 0.00315346 -3.35817e-20)
(-0.0672107 0.00695037 -2.60347e-19)
(-0.0649366 0.00110931 3.87546e-19)
(-0.0495441 0.0276043 -1.14805e-18)
(-0.0435105 0.0216618 -7.1275e-19)
(-0.238641 0.100949 -8.71176e-19)
(-0.275353 0.139234 -7.55635e-19)
(-0.261155 0.0992065 1.18496e-19)
(-0.104743 0.0149749 -5.96703e-18)
(-0.11219 0.00333213 -5.0926e-18)
(-0.110547 0.0125257 -3.58372e-18)
(-0.0088198 0.0064182 -8.40379e-18)
(-0.0221755 0.00279859 3.74964e-18)
(-0.0169537 -0.00872412 1.13166e-18)
(-0.00018854 -5.27946e-05 1.06379e-18)
(-0.000201848 -4.97592e-05 2.968e-19)
(-0.000196067 -4.35398e-05 -6.8679e-19)
(0.00632967 -0.00631295 7.24695e-19)
(0.00509553 -0.00622707 -2.99188e-19)
(0.00566016 -0.00750706 -4.14243e-19)
(-0.0153576 0.186186 6.20645e-18)
(-0.015309 0.182816 2.41443e-18)
(-0.0223907 -0.0737071 -8.72437e-19)
(-0.0363641 -0.0514982 -6.05682e-19)
(-0.0233105 -0.0122665 1.81642e-19)
(-0.0216007 -0.0121515 7.79055e-19)
(-0.0888585 0.00252839 -5.41821e-19)
(-0.0817893 -0.00133266 -8.63077e-19)
(0.0148018 -0.0188251 6.88523e-20)
(0.0159485 -0.0212656 1.78425e-19)
(0.0132654 -0.0206829 7.27051e-20)
(-0.0538303 0.0343926 -1.90156e-19)
(0.224021 0.0543658 -7.26287e-19)
(0.258282 0.0493026 6.77575e-19)
(0.19246 0.0875072 -1.23728e-18)
(0.000119076 0.00013716 5.8923e-20)
(0.00013173 0.000128802 6.3799e-19)
(0.000129529 0.0001385 1.04551e-18)
(0.14268 -0.0289043 3.138e-18)
(0.138867 -0.0234614 -1.52851e-18)
(0.139465 -0.0207582 2.37562e-18)
(0.177519 -0.0853393 1.23437e-18)
(0.182336 -0.0808905 2.13903e-19)
(0.119993 -0.0378228 9.43151e-19)
(0.125564 -0.0371709 2.86982e-19)
(0.13704 -0.0204221 -3.4467e-19)
(-0.000873598 -0.000594039 -4.72019e-19)
(-0.000888921 -0.000413624 -4.40466e-19)
(-0.00105641 -0.000521629 1.96174e-21)
(0.000109266 0.000137119 -1.5198e-19)
(0.000106822 0.000145361 -3.69142e-19)
(0.179738 -0.0254779 5.55835e-19)
(0.207105 -0.0134903 1.4553e-18)
(0.170505 -0.038954 3.25149e-18)
(-0.0990716 0.0161147 -1.7507e-17)
(-0.0974857 0.00418158 -6.79951e-18)
(-0.00926455 0.258531 -1.32807e-18)
(-0.0207571 0.243139 -2.42813e-18)
(-0.0130331 0.25854 -7.51178e-18)
(0.0569861 -0.0019478 -1.37427e-18)
(0.062048 0.00828884 -6.21277e-18)
(0.041868 0.000486826 -7.51762e-18)
(1.94471e-06 -8.55007e-07 8.52343e-19)
(-8.39278e-06 -2.73214e-07 3.58086e-19)
(-0.0455592 0.0112934 8.41464e-19)
(-0.0460316 0.0146789 3.08347e-19)
(-0.0493961 0.012524 -4.28541e-19)
(-0.00251826 0.00699493 1.13977e-19)
(0.00245491 0.00667713 1.10928e-19)
(-0.124674 -0.0637217 6.67732e-19)
(-0.118093 -0.0228531 2.30743e-18)
(-0.000180513 -4.78388e-05 -1.35004e-19)
(-0.000174752 -5.22677e-05 -1.37306e-20)
(-0.000192214 -6.42769e-05 5.84791e-20)
(-1.5248e-05 -0.000139081 1.15215e-19)
(-1.1215e-05 -0.00012772 -1.99877e-19)
(-0.119528 -0.0656926 -1.81853e-18)
(-0.113319 -0.0699289 -2.93347e-19)
(-0.0930249 -0.0574868 4.03285e-18)
(0.114421 -0.0750388 3.6371e-19)
(0.0637971 -0.0820117 9.24646e-19)
(-0.000693807 4.52993e-06 -7.03101e-19)
(-0.000647796 -1.12178e-05 2.01933e-18)
(-1.83973e-05 6.88661e-05 -1.51306e-19)
(-2.19555e-05 7.79031e-05 -2.85642e-20)
(-1.94053e-05 7.49385e-05 3.77378e-20)
(-0.00357471 -3.14508e-05 2.66992e-19)
(-0.00315301 -0.000110148 3.97651e-20)
(-0.00331731 0.00030796 4.61667e-19)
(-0.0339496 -0.0438923 -2.06534e-18)
(-0.0365493 -0.0450124 -4.92817e-18)
(-0.00110084 1.60011e-05 -3.05019e-18)
(-0.00118862 2.38377e-05 -5.48216e-20)
(-0.116759 0.071589 1.8299e-18)
(-0.173457 0.1065 -1.01325e-19)
(-0.125166 0.107321 -4.37323e-19)
(-8.119e-05 4.37291e-06 4.20477e-20)
(-8.59593e-05 -7.59916e-06 4.25323e-19)
(-8.3559e-05 3.11174e-06 -3.62866e-20)
(-0.0646153 -0.0306256 -4.31676e-20)
(-0.0662512 -0.0200193 1.74472e-19)
(-0.0136194 0.00170342 9.74933e-19)
(-0.0131228 3.40355e-05 4.81644e-19)
(-0.0153237 0.000615311 5.58229e-19)
(0.127568 -0.0888913 -1.06814e-18)
(0.133164 -0.0762565 -4.52877e-18)
(0.0828302 -0.0726708 -9.33474e-20)
(0.0908659 -0.0689417 -1.07342e-19)
(0.089868 -0.0733167 4.58079e-19)
(-0.000441685 0.0179764 1.88703e-17)
(0.00637139 0.00725165 4.38826e-18)
(-8.18789e-05 2.25603e-05 -2.52597e-19)
(-7.82344e-05 1.47091e-05 -5.03649e-19)
(0.0158673 0.0384065 1.02692e-18)
(0.0134433 0.0412341 5.05067e-19)
(0.0179542 0.040856 -4.81502e-19)
(0.0195238 -0.230698 2.67374e-18)
(-0.00448122 -0.278592 -2.24988e-18)
(0.0555426 -0.213831 4.36592e-19)
(-1.70369e-06 -4.09699e-05 -1.44203e-19)
(-2.61034e-06 -4.52539e-05 5.59429e-20)
(-2.92554e-06 -4.86434e-05 5.64145e-20)
(-0.00106748 0.000119235 1.70766e-19)
(-0.00105596 5.62157e-05 -1.20254e-18)
(-0.000990763 9.6721e-05 1.41729e-19)
(-0.0275834 0.119758 3.44062e-19)
(-0.0237204 0.131229 -2.83232e-19)
(-0.0155393 0.122817 -1.02755e-19)
(-0.000175961 -5.45521e-05 3.11228e-18)
(-0.000185386 -6.49484e-05 1.43934e-20)
(0.140742 -0.0859811 1.02252e-18)
(0.120666 -0.102286 5.67248e-18)
(-4.535e-05 5.7064e-06 -9.51724e-20)
(-4.64443e-05 9.39311e-06 3.07361e-19)
(-4.15772e-05 7.32592e-06 -9.37139e-20)
(0.000961838 0.00157048 -2.25287e-19)
(0.000834079 0.0012626 1.51747e-19)
(0.00121476 0.00121839 -2.48124e-19)
(-0.0942766 0.00385953 2.00461e-19)
(-0.0948822 -0.00285612 -7.43019e-19)
(0.0433471 -0.0611285 -5.6472e-19)
(0.039342 -0.0580619 2.57802e-19)
(0.0386724 -0.0642721 7.15192e-20)
(-2.16966e-05 -2.2946e-05 1.80023e-19)
(-2.3936e-05 -2.74276e-05 -4.08501e-19)
(-2.21232e-05 -1.92205e-05 4.70271e-19)
(-1.6165e-05 1.22531e-05 -5.86268e-20)
(-1.44125e-05 3.95764e-07 -3.48425e-19)
(0.143642 -0.0345088 3.21231e-18)
(0.145576 -0.0374108 1.00326e-17)
(1.12148e-05 0.00016326 4.21927e-19)
(5.41693e-05 0.000161868 -4.05021e-20)
(2.28207e-05 0.000127927 -1.66701e-19)
(0.00752843 -0.00671148 -6.62943e-20)
(-0.0647908 0.0286712 -3.92803e-18)
(-0.0536083 0.0243701 -3.63709e-18)
(-4.13019e-05 -8.04866e-07 -2.18113e-20)
(-3.8166e-05 -1.47459e-06 -2.05719e-20)
(-4.67792e-05 -1.90219e-06 -2.6736e-19)
(-0.0249397 -0.0115987 2.85253e-18)
(-0.0264571 -0.0110543 1.84734e-18)
(-0.0259864 -0.0129431 8.48384e-19)
(0.000685183 0.001933 2.92122e-19)
(0.00124619 0.00202191 -2.59401e-19)
(-0.0022496 0.00136961 -4.53785e-19)
(-0.00187363 0.00136877 -2.40755e-19)
(-0.00198544 0.00108217 -1.12406e-19)
(-0.000233682 -0.00177165 -3.69249e-20)
(-6.55243e-05 -0.00193757 3.55363e-20)
(-0.000339375 -0.0020494 7.36313e-21)
(-3.91471e-05 0.000102617 2.05684e-20)
(-2.75297e-05 8.64053e-05 7.4639e-21)
(-2.31787e-05 1.31803e-05 -9.56481e-19)
(-1.8885e-05 7.94698e-06 -3.25005e-19)
(-2.33452e-05 1.19724e-05 -3.34271e-19)
(-0.023678 -0.0103388 -3.49571e-18)
(-3.28328e-05 9.62739e-07 -5.8544e-20)
(-3.332e-05 -1.58717e-06 -2.79973e-20)
(-0.0369957 0.114425 3.12685e-18)
(-0.0387426 0.128199 2.8081e-18)
(-0.0434997 0.105804 7.64648e-19)
(0.03466 -0.184752 2.74217e-18)
(-0.0112151 -0.223507 -4.83995e-18)
(-0.000256136 0.000184388 9.45741e-21)
(-0.000178428 0.000140649 1.62583e-19)
(-0.000165979 0.000186571 -1.42482e-19)
(-0.0161752 0.00324912 -3.07174e-18)
(-0.0150062 0.00265332 -7.87164e-19)
(-0.101512 0.00476383 2.22915e-18)
(-0.0947295 0.0115552 -4.55373e-19)
(0.0482563 -0.0639157 -1.83389e-18)
(0.0472308 -0.0578936 3.11064e-19)
(-0.0147739 -0.11737 5.30072e-19)
(-0.0198897 -0.10184 5.00422e-20)
(-0.0177479 -0.113581 3.69003e-18)
(0.025664 -0.0325526 9.4488e-19)
(0.0298974 -0.0328906 1.28073e-19)
(-0.0173035 -0.0381228 2.35536e-18)
(-0.0190159 -0.0392657 1.98017e-18)
(-0.0168399 -0.0403465 6.16543e-18)
(0.224179 0.0154246 -6.54927e-19)
(0.189418 0.0488366 -2.34042e-18)
(-1.54524e-05 0.000166922 1.04579e-19)
(7.8238e-07 0.000182134 5.33046e-19)
(-0.0226411 -0.0593316 3.40809e-18)
(-0.0370829 -0.0435374 -4.31505e-18)
(-0.0153833 -0.00704828 4.37292e-18)
(-0.0143415 -0.00667854 4.48876e-19)
(-0.109696 -0.0422244 -3.64847e-19)
(-0.129883 -0.100981 2.89271e-18)
(-7.14654e-05 1.43982e-05 1.42258e-19)
(-7.612e-05 1.90527e-05 2.9827e-19)
(-0.000105171 -1.75987e-05 1.26786e-19)
(-0.000105472 -8.47856e-06 2.77311e-21)
(-0.000108251 -7.98693e-06 4.5164e-20)
(-0.000335866 0.000235765 -4.81287e-20)
(-0.000344358 0.000148069 1.53434e-19)
(0.0406971 -0.0107187 2.38524e-19)
(0.0433535 -0.00887348 -4.33782e-19)
(0.0432759 -0.0126409 -4.97162e-19)
(0.0467688 -0.106001 4.07304e-18)
(0.0252971 -0.109071 -1.74628e-17)
(0.0266494 -0.125403 -2.43438e-17)
(-0.019381 0.145054 -9.56624e-19)
(-0.0203675 0.160823 -1.16375e-18)
(-0.00440194 0.147913 -2.55989e-18)
(0.000449723 0.000448365 1.3105e-18)
(0.000487146 0.000409327 -1.18992e-18)
(0.0004166 0.000410084 -7.25724e-19)
(-1.61701e-05 2.14817e-05 1.02261e-19)
(-1.41477e-05 1.4554e-05 8.01902e-20)
(-1.4894e-05 3.11517e-05 -1.1111e-19)
(0.0381502 -0.00893685 4.18407e-19)
(0.0381549 -0.0122548 8.38785e-20)
(-0.0294051 0.0896057 -9.59006e-19)
(-0.0288728 0.0799379 4.71476e-19)
(-0.0209141 0.0828893 -1.23441e-18)
(-2.66336e-05 3.16633e-06 -6.59901e-20)
(-2.66924e-05 5.39925e-06 -2.27507e-19)
(-2.46385e-05 4.57204e-06 -1.03259e-19)
(-0.210369 0.105297 -1.55118e-19)
(-0.198542 0.06399 4.10371e-19)
(-0.159585 0.0932963 -2.59354e-18)
(-0.177364 0.0827226 -1.88887e-18)
(-0.148172 0.0786448 3.63795e-19)
(-0.000104789 -3.00193e-05 -6.23505e-20)
(-0.000110681 -2.40773e-05 5.97692e-20)
(-0.000107069 -2.21803e-05 -2.61797e-20)
(-7.44675e-05 0.000123589 4.04036e-20)
(-7.30042e-05 0.000129218 1.57856e-20)
(-6.68058e-05 0.000120302 1.19185e-19)
(-0.00170767 -0.00157147 1.29267e-19)
(-0.00179267 -0.00121408 6.96961e-19)
(-0.00142044 -0.00134415 -5.04251e-21)
(-7.59756e-05 -3.46422e-05 -5.94541e-21)
(-7.21695e-05 -5.93626e-05 3.17116e-20)
(0.0767158 -0.00227033 1.08702e-17)
(0.0524236 -0.012606 -1.39603e-20)
(0.000535389 0.000830169 -2.75313e-19)
(0.000449059 0.000977731 -6.69716e-20)
(0.000355833 0.000810914 1.58895e-19)
(-0.036171 -0.0289592 -6.05304e-20)
(-0.0338892 -0.0406398 -6.56499e-20)
(-0.0384378 -0.0323566 -1.75293e-19)
(-0.000441188 0.000309605 -2.15315e-20)
(-0.000311592 0.000320261 -7.06458e-20)
(-2.5014e-05 1.71468e-06 3.77097e-20)
(-2.55427e-05 3.22098e-06 -3.25385e-20)
(-2.7221e-05 1.44421e-06 -6.86459e-20)
(-0.170669 0.209949 1.26695e-18)
(-0.11294 0.189104 -1.13505e-18)
(-0.178248 0.192789 -3.2343e-19)
(-0.000711492 -0.00064444 -5.71893e-19)
(-0.000565526 -0.000669328 -7.23869e-20)
(-0.000593187 -0.000513159 -2.40065e-20)
(-0.0183341 -0.105369 -2.96199e-18)
(0.000938496 -0.10919 -6.96315e-18)
(-3.50745e-05 2.29304e-05 -2.24355e-19)
(-3.53701e-05 2.01991e-05 -8.29525e-19)
(-3.33044e-05 1.98679e-05 6.55039e-19)
(0.0163404 0.421666 4.194e-18)
(0.00461691 0.471442 1.37925e-17)
(-0.00331416 0.00699551 -3.63283e-19)
(-0.00402474 0.00845425 4.37033e-19)
(8.70371e-05 0.000154583 5.9048e-20)
(8.42665e-05 0.000148992 2.18741e-19)
(-0.000103126 -3.56039e-05 -8.65413e-20)
(-0.000101453 -3.50838e-05 9.16857e-20)
(0.0135718 0.0360033 -1.70125e-19)
(0.0179527 0.0355849 1.02797e-18)
(0.0973553 -0.0425105 -1.18408e-18)
(0.100601 -0.0392447 -4.20895e-19)
(0.0994401 -0.04181 -1.19556e-18)
(0.0930212 -0.0457911 4.33028e-20)
(0.0956627 -0.0445866 -3.84443e-20)
(9.14819e-05 0.00015281 -3.61185e-19)
(8.94322e-05 0.000157024 -1.32397e-19)
(-0.037973 0.094318 -2.42748e-19)
(-0.000220538 -4.5613e-05 -1.4959e-18)
(-0.000209246 -5.47737e-05 -4.64721e-19)
(0.000189895 -8.15788e-05 -2.35477e-20)
(0.000211483 -9.57148e-05 -1.47424e-19)
(0.000231826 -7.60422e-05 1.34631e-19)
(-0.116839 0.312629 2.21461e-18)
(-0.153809 0.317549 -1.24865e-17)
(-0.0244765 0.256994 -8.30507e-18)
(0.0577402 -0.164972 2.81063e-18)
(0.0522312 -0.1548 5.60923e-18)
(0.0453265 -0.16651 -1.67893e-18)
(0.000168159 -7.54096e-05 -1.2091e-20)
(0.000152794 -8.93939e-05 1.33879e-19)
(-6.51536e-05 0.000174986 8.87106e-20)
(-5.89251e-05 0.000170082 3.50614e-19)
(-7.25345e-05 0.000165427 -3.32338e-19)
(-0.000166026 -0.00160121 -2.51422e-21)
(-0.000303783 -0.00196939 -1.29047e-19)
(0.000130048 -0.00190723 1.51259e-19)
(-0.000391282 -0.00160288 -4.25974e-20)
(-0.000163565 -0.00155351 4.91433e-21)
(-0.000256407 0.00506008 -7.46816e-19)
(-0.00039876 0.00466858 6.22709e-19)
(-0.000721521 0.00496655 -1.05965e-18)
(-3.18437e-05 3.84875e-06 2.15543e-21)
(-3.22964e-05 1.92356e-06 -7.35129e-21)
(-0.00262857 0.00131721 2.16874e-19)
(-0.0024938 0.00171793 2.65417e-20)
(-0.000631114 0.000919681 -1.89469e-18)
(-0.000695938 0.00102418 -6.57064e-19)
(-7.47033e-05 0.000116963 8.95518e-20)
(-8.15955e-05 0.000123055 1.16335e-19)
(-8.82147e-05 3.07033e-06 1.05001e-19)
(-8.28609e-05 1.49795e-06 1.489e-19)
(-8.76323e-05 4.26872e-06 1.52231e-20)
(-2.81465e-05 5.84689e-05 7.47155e-20)
(-2.5938e-05 4.59102e-05 2.88634e-19)
(-2.9122e-05 5.36696e-05 3.79272e-20)
(0.17294 -0.0907035 2.41773e-18)
(0.17055 -0.093564 3.06014e-19)
(0.16661 -0.0975308 2.24473e-18)
(-5.33421e-06 0.000109442 -9.65736e-21)
(-7.84696e-05 0.000174971 5.98746e-20)
(-6.34415e-05 0.00018997 1.48666e-19)
(-2.34875e-06 5.92713e-05 1.3941e-20)
(-5.73659e-06 5.8464e-05 2.11487e-20)
(-2.97021e-06 5.61629e-05 -6.00277e-21)
(-0.0356116 0.0771108 1.51775e-19)
(-0.0285904 0.0728921 2.68268e-19)
(-0.000141318 6.2881e-06 2.00873e-19)
(-0.000140205 1.75955e-05 -1.47747e-19)
(-0.000145205 3.91715e-06 1.52787e-19)
(-0.000141688 7.47588e-06 -8.6538e-20)
(-2.92007e-05 1.85599e-06 1.11946e-19)
(-2.8594e-05 1.18795e-06 1.89327e-19)
(-0.000664396 0.000129374 -1.86887e-18)
(-0.000709632 0.000122431 -6.00121e-18)
(-0.000704687 0.000161029 2.14165e-19)
(2.57428e-05 -0.000602832 4.4111e-19)
(8.37612e-05 -0.000683732 3.27903e-19)
(-1.66891e-05 3.97173e-06 -3.61062e-19)
(-1.59922e-05 2.19446e-06 7.9601e-20)
(-1.7028e-05 2.13073e-06 5.65004e-20)
(-1.69116e-05 -1.16848e-06 2.22894e-19)
(-1.82018e-05 -8.89643e-07 -1.50554e-20)
(-1.90435e-05 -3.348e-06 -2.60799e-19)
(-0.0024783 -0.0021896 -3.46363e-19)
(-0.00295442 -0.00260213 -3.12774e-19)
(-0.00226631 -0.00274199 -8.30347e-19)
(-0.0110577 -0.128986 -4.58296e-19)
(-0.0127052 -0.119464 2.21222e-18)
(-3.74328e-05 -4.80069e-06 7.2515e-19)
(-5.1614e-05 -5.25835e-06 4.85797e-19)
(-5.05128e-06 -2.30536e-06 1.43413e-19)
(-7.1759e-06 -2.68667e-06 1.49921e-19)
(-0.140836 -0.182752 -3.69687e-18)
(-0.119721 -0.160769 6.51326e-18)
(-0.122634 -0.186464 4.81931e-18)
(-0.00228955 0.000974903 -9.03605e-19)
(-0.0022804 0.000786777 -4.35434e-19)
(-0.00213738 0.000920442 -1.58146e-18)
(2.58475e-05 -9.61638e-06 -3.15642e-20)
(2.25418e-05 -1.44743e-05 3.61769e-19)
(2.1921e-05 -8.78642e-06 -1.9258e-19)
(2.7513e-05 -5.859e-06 -7.2811e-20)
(3.0437e-05 -1.02407e-05 1.6935e-19)
(0.0141406 0.000643976 -2.53792e-18)
(0.0191578 0.0140675 -1.22829e-18)
(0.0286442 -0.00157843 3.25233e-18)
(0.0175502 0.0355958 -4.12438e-19)
(0.0111044 0.0376842 2.23097e-19)
(0.0144513 0.0303522 1.19842e-19)
(-1.55039e-05 5.98999e-05 -1.05062e-19)
(-1.79949e-05 6.36857e-05 -1.9033e-19)
(-0.0134647 0.00391023 1.22675e-19)
(-0.0114969 0.00314415 3.69051e-20)
(-0.0116806 0.00510787 1.32882e-19)
(-0.0801502 -0.0407202 2.2458e-18)
(-0.0889663 -0.0358459 -2.38704e-19)
(0.00154906 0.000433607 6.85546e-20)
(0.00138611 0.000242734 3.02445e-19)
(0.0379166 -0.0026537 -9.26689e-19)
(0.0428301 -0.00439738 2.34384e-19)
(-3.22484e-05 6.71716e-05 -7.10297e-19)
(-2.87003e-05 6.40037e-05 -9.33348e-19)
(0.0892788 -0.0479591 -5.58339e-19)
(0.0874759 -0.0476806 2.78985e-21)
(0.0839075 -0.0497908 -4.44544e-19)
(-0.0388654 0.115317 2.10249e-19)
(-0.0168958 0.0516809 -8.85598e-19)
(-0.0215877 0.0519788 -8.67608e-19)
(-0.0177122 0.055779 -6.86361e-19)