/*--------------------------------*- C++ -*----------------------------------*\
| =========                 |                                                 |
| \\      /  F ield         | OpenFOAM: The Open Source CFD Toolbox           |
|  \\    /   O peration     | Version:  v2012                                 |
|   \\  /    A nd           | Website:  www.openfoam.com                      |
|    \\/     M anipulation  |                                                 |
\*---------------------------------------------------------------------------*/
FoamFile
{
    version     2.0;
    format      ascii;
    class       volVectorField;
    location    "750";
    object      ddtCorrDdt0(U);
}
// * * * * * * * * * * * * * * * * * * * * * * * * * * * * * * * * * * * * * //

dimensions      [0 1 -2 0 0 0 0];


internalField   nonuniform List<vector> 
18758
(
(-0.00903682 0.0019397 2.39615e-18)
(-0.00790658 -0.0183633 -8.8009e-18)
(8.4022e-05 -2.64019e-05 -1.04637e-19)
(-0.0120912 0.0858277 3.43827e-19)
(-0.0172442 0.0201574 8.27609e-19)
(-0.0372033 -0.0143175 -2.91692e-17)
(0.0101829 0.000690166 3.40618e-17)
(-0.000194816 -0.000136695 6.97983e-20)
(0.0071273 0.0175042 2.81887e-19)
(-0.00284143 0.000195878 1.61151e-18)
(-0.00158349 -0.00126197 4.78218e-18)
(-0.00264424 0.00374895 1.8633e-18)
(-0.000151446 1.25029e-05 2.88471e-18)
(-0.0404467 -0.0209039 4.131e-18)
(0.00121736 -0.00193328 1.31988e-18)
(-0.00319261 0.00901642 -6.96491e-17)
(-0.00490664 -0.00272484 2.52351e-17)
(-0.000229765 -5.00092e-05 -9.11424e-19)
(4.62417e-05 -0.000831196 -6.98239e-19)
(-0.00339139 0.000122082 3.16371e-19)
(0.00904183 0.00443663 -5.06327e-18)
(-1.55686e-06 3.66693e-05 -6.18492e-20)
(0.00848963 0.00232858 9.07825e-18)
(-0.00306826 0.0381921 -2.90243e-17)
(-0.00748396 -0.0199052 7.43491e-17)
(-0.00019482 -0.000118219 -8.48709e-19)
(-0.00551607 0.0105677 3.12748e-19)
(-0.0279951 0.0150924 5.27e-18)
(-0.0683671 -0.0218844 2.55704e-17)
(-0.00886675 0.0131947 6.10635e-18)
(-0.013899 -0.00760152 5.6486e-18)
(0.042251 0.00615353 -3.12979e-18)
(-3.24649e-05 1.40707e-05 1.9217e-18)
(-0.000585769 -0.00142893 6.19177e-19)
(-0.0229497 0.00478299 -4.28769e-18)
(-4.12671e-05 0.000704768 2.01848e-18)
(-9.22795e-06 1.62375e-05 4.1397e-18)
(-0.000728726 -0.000965454 5.22141e-19)
(-0.000903474 -0.00110028 -1.25389e-18)
(-0.00494797 -0.00175889 3.98769e-18)
(-0.000676312 -0.000975941 8.62397e-20)
(-0.00171305 0.00195381 3.547e-17)
(-9.12784e-05 -0.000434613 -1.89464e-20)
(-0.00222294 0.00115632 1.765e-18)
(-0.0141879 0.00461112 1.43802e-17)
(-3.2019e-05 -8.91249e-05 4.38272e-19)
(0.00955045 0.00212082 7.12419e-18)
(-0.00185813 -0.00105601 -7.6424e-18)
(-0.00276599 0.000225745 -7.49348e-19)
(-1.21155e-05 -0.000330532 2.37065e-20)
(-0.00555036 -0.00760781 5.62158e-17)
(0.0189132 0.0227488 2.89632e-19)
(4.67209e-05 -9.31724e-05 7.13924e-20)
(-0.00152717 -0.00125497 5.06634e-18)
(-0.034169 0.0133991 -1.43517e-17)
(-0.0309755 -0.0042315 5.96583e-19)
(-1.37896e-05 2.03269e-05 9.49527e-19)
(-0.00199525 0.00815285 2.83583e-17)
(-0.000628344 0.000888765 2.1313e-18)
(-0.0431963 -0.0177684 -6.95537e-18)
(-0.00853755 0.000309864 2.54226e-17)
(0.0096399 0.00091444 -5.66104e-17)
(0.000997515 0.00673003 -8.38451e-18)
(-0.00113452 0.00146491 -1.15386e-17)
(4.10582e-05 -9.97219e-05 -1.22914e-19)
(-0.000154925 0.000264722 4.15134e-18)
(-0.00551287 -0.00223147 6.66996e-18)
(-3.92484e-05 1.91795e-05 -1.16015e-18)
(-0.000642053 -0.000919194 1.48124e-19)
(0.0182888 0.0221467 -1.99271e-18)
(0.00731949 0.0207366 -9.84086e-18)
(-0.000687035 0.00158847 -1.20035e-17)
(-2.44721e-05 -0.000354154 -1.21582e-19)
(0.00499999 0.00372877 1.82753e-16)
(-0.000217241 -0.000401913 -1.87764e-19)
(-0.000642166 0.00084778 3.7975e-18)
(-0.0122718 0.0227523 1.02965e-17)
(-0.0138699 0.0208987 8.5423e-18)
(-0.00551578 0.00509612 1.78874e-17)
(0.00836464 0.00285051 1.60455e-17)
(-0.000455769 -0.00563106 -1.87303e-17)
(-0.0159365 0.00564004 1.1685e-17)
(-0.0430159 -0.0155815 -1.42301e-17)
(-0.0363911 -0.00795113 -1.19931e-17)
(-0.0139826 0.0233385 -4.02964e-18)
(-0.00226212 -0.00167275 1.9844e-18)
(0.00536243 0.000215021 -3.49457e-17)
(0.00112047 0.00616162 1.95653e-18)
(0.00474403 0.000920139 6.55566e-17)
(-0.000668743 0.000851732 -6.22295e-18)
(-0.0387523 -0.00818903 -3.0266e-17)
(-0.000610458 0.000879819 -4.21164e-18)
(0.00496823 0.00290107 -8.28145e-17)
(-0.00177704 0.00200585 -2.66769e-17)
(-0.00234815 -0.0075285 2.98183e-18)
(0.00476815 0.00273769 2.88353e-17)
(-0.0152444 0.0223656 -8.88753e-18)
(-0.000221231 -0.000419218 -2.14226e-19)
(-0.000489858 0.000423853 3.75557e-18)
(0.0097623 0.00566574 2.66659e-18)
(-0.0036116 -8.8716e-05 3.8427e-19)
(-0.0437831 -0.00726312 -2.05378e-17)
(-0.00987732 0.00430082 -1.03616e-17)
(-0.00412846 -0.00235501 -4.75401e-18)
(0.0450364 0.00428209 -4.74677e-19)
(-0.0109415 0.0156457 -3.34418e-18)
(0.0388299 0.0337997 -1.23342e-18)
(-0.00878453 0.0223983 -9.53242e-18)
(-0.00126459 -0.00109483 -2.52561e-18)
(-0.000328026 0.00175986 -8.24811e-19)
(0.00554856 0.00213428 -2.54676e-17)
(0.00286564 0.00591667 -2.52806e-16)
(-0.000220634 -1.68322e-05 1.44614e-18)
(-0.0010728 0.000277954 9.11573e-19)
(-0.0293257 0.0128717 -2.87279e-17)
(-0.0333317 -0.00319847 5.58808e-17)
(-0.0642518 -0.00314359 -8.38427e-17)
(0.00132819 -0.00193172 1.78416e-19)
(0.00487343 0.0034364 -1.89274e-17)
(-0.000571719 -0.00790219 4.59318e-18)
(-0.00230653 -0.00167475 2.54502e-17)
(-0.00028848 0.000661914 5.15585e-18)
(-0.0424311 -0.00643065 -4.77666e-17)
(-0.00355094 0.0100999 -3.52842e-18)
(-0.0133803 0.00371291 1.0776e-17)
(-0.0143014 0.00836981 -2.49138e-17)
(0.00730589 -0.0183408 -2.66533e-17)
(0.0153988 0.0264971 7.88719e-19)
(0.00471333 0.00283642 8.11961e-17)
(-0.000158979 -4.55579e-06 -3.84856e-18)
(-0.00516693 -0.00265866 -1.82854e-17)
(-0.00563883 0.0102454 9.53572e-19)
(0.0118836 0.00200907 -5.72524e-18)
(-0.00429973 0.00322603 7.67286e-18)
(-0.000993056 0.0106732 -4.03776e-17)
(-0.00159166 0.00132351 -2.5072e-18)
(-0.0114247 0.0220292 -1.10515e-17)
(-0.00515201 -0.00157838 -1.37902e-18)
(-0.000490323 0.000420918 -1.60269e-18)
(-0.00349222 0.00556239 3.90173e-17)
(-0.00526022 0.005221 -3.12168e-17)
(-0.00749592 0.00698095 -9.01805e-19)
(-0.000927515 0.000572116 8.95757e-19)
(-0.0319634 -0.00104108 -2.91996e-17)
(-0.000667884 -0.000989405 2.30827e-19)
(0.000179255 -0.000923518 -2.45776e-18)
(-0.0345937 0.0041578 -2.29573e-18)
(0.0949627 0.0223775 -2.44517e-19)
(-0.0134904 -0.008366 -5.43867e-18)
(0.00511669 0.0322221 -1.36065e-17)
(-0.0175518 0.00634875 -2.37242e-17)
(-0.0303349 0.0328644 1.34471e-17)
(-0.00223067 -0.00163174 -1.07866e-17)
(2.51208e-06 3.04288e-05 -2.41884e-18)
(0.00869735 -0.00373434 1.67465e-17)
(-0.00216305 -0.00153631 -1.60014e-18)
(0.00637759 0.00334218 -8.46581e-18)
(-0.00189851 -0.00102651 6.49751e-18)
(-0.00101687 0.0010065 -3.90115e-18)
(-1.47933e-07 5.32033e-06 -1.02685e-19)
(-0.00041722 0.000143119 -4.91639e-18)
(-0.0418922 -0.012554 8.07734e-19)
(0.00695389 0.000717002 8.03801e-18)
(-0.00101753 0.000975338 4.1406e-18)
(-0.00841414 0.000168115 -1.1429e-17)
(-0.064385 -0.0223949 -7.3791e-18)
(-6.90071e-05 -0.000903493 1.65088e-18)
(-0.0316314 -0.00158362 6.15652e-20)
(-0.0118363 -0.00326713 1.64719e-18)
(-0.0355592 -0.00873295 1.38927e-17)
(-0.0102927 -0.0100716 -1.6296e-17)
(-0.000233786 -5.09535e-05 8.48864e-19)
(0.00677961 0.00094559 2.28344e-17)
(-0.0256395 0.0165825 1.37566e-17)
(-0.0410933 -0.011259 -1.0888e-18)
(-0.00503985 0.0370739 2.39999e-17)
(-0.0537634 -0.017831 -2.64762e-17)
(-0.0011685 0.00147431 6.77149e-19)
(-0.00348594 0.00553505 -4.02362e-17)
(-0.00102588 -0.000837791 -5.85226e-19)
(-0.000206828 5.35539e-05 -1.89192e-18)
(-0.0279837 -0.000983853 -4.39636e-17)
(-0.0397592 0.0328244 -1.56357e-17)
(3.54488e-05 -0.000402401 1.49667e-19)
(-0.000860158 -0.00273912 -2.48949e-18)
(-0.0326274 0.031967 8.32892e-19)
(-0.000503995 0.000573728 -6.96343e-18)
(-0.0323302 -0.00466614 -1.58285e-17)
(-6.10421e-05 -0.000380653 -8.88322e-20)
(-0.00044435 0.00051539 -1.13525e-18)
(-0.00448604 0.00321477 -1.61707e-17)
(0.0151052 0.0246558 -1.90896e-17)
(-0.00140606 9.10496e-05 8.7576e-19)
(-0.0125887 -0.00826831 8.64015e-18)
(-0.00352525 0.00157895 -1.97929e-18)
(0.00199539 0.00590793 -1.39754e-17)
(-0.00349114 0.00010161 -3.13412e-19)
(-0.0122277 -0.00364888 2.84941e-17)
(-7.81351e-05 0.000251874 9.09536e-21)
(-7.50532e-05 -0.000411758 -1.63319e-21)
(-0.00250965 0.00557825 -3.42729e-17)
(-0.001873 -0.000982547 1.69188e-18)
(-0.0039287 -0.000933504 -5.41973e-20)
(-9.54702e-05 0.00247715 -1.85426e-18)
(-0.000148829 1.59789e-05 1.54165e-18)
(-0.00344895 0.00150117 1.64927e-18)
(-0.00843701 0.00556312 8.87096e-18)
(3.89041e-06 1.97401e-05 2.16982e-18)
(0.0169596 0.00423561 -3.41679e-18)
(-0.00274967 0.000339985 5.23903e-19)
(-0.000225484 -3.73247e-05 -2.4946e-18)
(-0.00420327 -0.00224118 5.75613e-18)
(-0.00108822 0.000909861 -2.87863e-18)
(-0.00369971 -0.00119461 3.70984e-18)
(-0.00455582 0.00506625 8.55178e-18)
(0.00104818 -0.00149041 1.0456e-16)
(-0.00468183 0.00528078 -8.35878e-20)
(-0.002562 0.0087546 -3.03092e-17)
(-8.50598e-05 -0.000275246 9.28017e-19)
(-0.0379362 -0.0152011 4.89913e-17)
(-0.000229192 -3.83557e-05 2.46558e-18)
(-0.00129895 -0.00107973 1.98292e-18)
(-0.0207355 0.0178704 1.27054e-17)
(-0.0337065 0.00542274 5.47013e-18)
(-0.00926229 -0.010345 -8.36854e-18)
(-0.00879194 0.00494384 4.51093e-18)
(-0.00124939 -0.00222262 -2.12571e-17)
(-0.00488202 0.0021257 -1.91764e-18)
(0.000140789 -0.000305052 4.64591e-19)
(0.000632419 0.00178689 -2.79148e-17)
(-0.000156869 0.000247606 -1.86919e-18)
(0.00210426 0.00527756 -1.83546e-18)
(0.00976154 0.00142061 5.80769e-17)
(-0.0166782 0.0235423 1.26877e-17)
(-0.000147287 1.25489e-05 -2.23652e-18)
(-0.00048681 0.000539284 5.89232e-18)
(0.000126427 -0.000305247 5.58969e-20)
(-6.53817e-05 -9.86493e-05 3.95653e-19)
(-0.0437315 -0.00657722 4.47582e-17)
(-0.00319207 -0.00167902 -1.14961e-17)
(-0.000390157 0.000222262 -6.50068e-18)
(-0.0155576 -0.0038689 5.09722e-17)
(0.0430803 0.0325675 -8.81947e-19)
(-0.00106914 -0.00139919 7.14746e-19)
(0.00736785 0.0347391 2.17667e-17)
(0.0237101 -0.00543557 -6.57743e-17)
(-0.0176242 0.0225755 5.14608e-18)
(-3.69677e-05 0.000657182 -2.4824e-18)
(-0.00130322 -0.00683835 4.57152e-17)
(-0.00151711 0.00273924 1.77467e-17)
(-6.72611e-05 0.000784775 4.93455e-18)
(-0.0304018 -0.00164545 -2.00217e-17)
(-0.0022803 -0.00168231 -2.76928e-18)
(-0.00161529 0.00275169 5.49045e-18)
(0.000738922 -0.00145082 4.5012e-18)
(-0.00225819 -0.00179588 -7.60179e-18)
(-0.0137982 0.0337929 4.82588e-18)
(-0.0021943 0.00892188 1.3932e-17)
(-0.00366055 -0.00112204 2.56001e-18)
(-0.00585031 0.00466179 -3.09524e-18)
(0.000449526 -0.000460495 2.74623e-18)
(-0.00729633 0.00268187 8.28614e-18)
(-0.000256261 0.000243137 5.44898e-19)
(-0.000460708 0.00248963 1.16587e-17)
(-0.00266622 0.000361411 1.60933e-18)
(-0.0217945 0.0173296 1.05318e-17)
(0.0126606 -0.00139134 -2.43265e-17)
(-8.46151e-05 -0.000266706 1.63994e-19)
(-0.00118099 -0.00109662 3.13267e-19)
(-0.00941495 0.00709945 1.14796e-17)
(-0.00114272 -0.00108049 -8.10778e-19)
(-0.000808162 -0.00265445 2.53464e-18)
(7.39699e-05 0.00190341 4.56669e-17)
(-0.0598169 -0.0204459 -5.42562e-17)
(-0.0656854 -0.00229622 3.38608e-17)
(-0.00088393 0.000657324 3.01706e-18)
(-0.00441958 -0.00714057 1.56678e-17)
(0.156565 0.0503316 1.97334e-18)
(-0.0167124 0.00587452 -1.67866e-17)
(-0.00151081 0.000170514 -1.15491e-18)
(-0.000106094 -0.000621442 -8.35784e-19)
(-0.00255413 -0.00136827 2.17768e-18)
(-0.00312084 -0.00171742 -8.50152e-18)
(-0.000904626 0.000586721 7.87388e-19)
(0.15095 0.0849322 -6.0987e-18)
(-0.0151848 -0.00371605 7.46499e-17)
(-0.0245968 0.0103062 -5.03778e-18)
(0.00813739 0.000767139 5.37271e-18)
(0.00854918 0.00185803 -5.3082e-17)
(3.49003e-05 -0.000354342 -3.89595e-19)
(8.82983e-05 -2.90511e-05 3.34015e-19)
(-0.00529146 0.00228369 -1.74044e-18)
(-0.00576262 -0.00163301 -8.28633e-18)
(-0.00094869 0.00230692 7.56545e-18)
(-0.00556349 0.00478151 -1.0161e-17)
(0.00359242 4.32884e-05 -4.971e-17)
(-0.0026591 -0.00125557 -1.80943e-17)
(0.00213343 -0.00595801 3.22134e-17)
(3.44389e-05 -0.000796079 -1.94606e-19)
(-0.0176231 -0.0103686 2.69008e-18)
(-0.0359974 -0.00935067 1.25731e-17)
(-4.42757e-05 -9.0035e-05 1.07771e-18)
(0.0317146 0.0190912 -2.70733e-18)
(-0.00379863 0.00201934 -1.68063e-18)
(-0.000661972 -0.000936462 3.00231e-19)
(-0.00340416 -0.000975469 -5.61876e-18)
(0.000378007 -0.00347804 3.05274e-18)
(0.00031893 -0.00175437 2.42863e-18)
(-6.10162e-05 0.000765943 -4.10488e-18)
(0.0140629 0.000976813 -6.44012e-17)
(-0.0297038 0.0053653 6.7817e-18)
(-0.000357817 0.00011708 -4.93386e-18)
(0.0135645 0.000636789 -1.3851e-16)
(0.000996443 -0.00690872 -5.21783e-17)
(-0.00858582 -0.010092 -7.59593e-18)
(-0.000258712 0.000206105 2.23436e-18)
(-0.000103985 -8.34101e-07 3.79723e-18)
(0.00278651 0.00724075 9.67582e-18)
(-0.00107289 -0.00136994 2.82239e-18)
(2.87715e-05 -0.000390818 -7.84044e-20)
(-0.000186252 -0.000689949 -1.22317e-20)
(-0.000358154 0.00204161 8.50844e-18)
(-0.0120287 -0.00276365 -4.83941e-17)
(0.000394451 -0.00378664 -2.36921e-18)
(-0.0025776 -0.0013397 2.2361e-18)
(-0.00317936 -0.00158802 7.34504e-18)
(-0.00340014 0.000254893 -6.14413e-19)
(-0.00465315 0.00296226 1.17565e-17)
(0.000418107 -0.000439118 -2.93075e-18)
(-1.094e-07 2.53846e-05 -6.15882e-18)
(0.0132112 0.0278444 8.75943e-18)
(-0.00614739 6.69482e-05 1.88373e-17)
(-0.00446961 -0.00752209 -6.8842e-18)
(-0.0191032 0.0908882 -1.21254e-18)
(-0.000987655 0.00235575 2.53535e-17)
(-0.00137621 6.79614e-05 -5.07852e-19)
(-0.000157222 2.10082e-06 3.31096e-19)
(-0.0187536 -0.0106593 -9.03584e-18)
(0.0308577 0.019898 5.32305e-18)
(0.000116267 -0.00032902 3.90588e-20)
(-0.000222745 -1.91888e-05 3.89746e-18)
(9.97158e-05 -0.000331469 -3.47475e-19)
(-0.00152927 0.00134963 -1.74405e-18)
(-0.0046873 0.00205309 3.00074e-18)
(-0.00596244 -0.0186058 3.59201e-17)
(-0.000281195 0.000606505 6.29192e-19)
(-0.000321749 0.00164415 -4.69303e-18)
(2.31961e-05 -0.000302546 9.26809e-20)
(-0.00316006 0.00959183 -2.37248e-18)
(-0.00738591 0.00672362 -4.65769e-19)
(0.0081014 -0.00181799 -1.78481e-17)
(-0.0103292 0.00107099 -2.14513e-17)
(-0.000333805 -0.00163152 -3.62175e-18)
(0.0168758 0.0216635 2.49556e-17)
(-0.00868753 0.00209048 9.426e-18)
(-0.00274416 -0.00185375 4.5262e-18)
(-0.00175261 0.00288192 -1.7399e-18)
(0.000225722 0.00369279 -3.63615e-17)
(-0.0186547 0.0051745 7.90567e-18)
(-0.0364791 0.0330993 1.87322e-17)
(-0.000159666 6.92441e-05 -1.59343e-18)
(-0.00371523 5.79909e-05 7.54367e-19)
(-0.0442418 -0.0218589 2.94951e-17)
(-0.0584185 -0.0210041 5.89453e-17)
(-0.00232403 -9.9426e-05 7.21617e-19)
(1.53553e-05 -0.000371737 -1.21738e-19)
(-0.00121341 -0.00075923 -3.09357e-17)
(-0.000246608 -0.000907593 3.25045e-19)
(-0.00240354 -0.00187273 1.06714e-17)
(-0.0553481 -0.0188736 1.12542e-17)
(-0.0435407 0.132183 -6.61406e-18)
(-0.0269435 -0.00730909 9.01015e-19)
(-0.00328964 0.000307521 -1.2148e-18)
(0.0115308 -0.00190359 4.74615e-17)
(-0.000651605 0.00108572 -4.65124e-18)
(-0.00190686 -0.000949659 -2.47921e-18)
(-0.000684287 0.000627018 9.72115e-19)
(-0.000946189 -0.00110169 -1.09957e-18)
(-0.0203986 0.00176575 9.43433e-18)
(-0.00167443 -0.00132706 2.52695e-18)
(0.0129322 0.000953304 1.09091e-16)
(-0.00672518 0.00736821 3.61688e-18)
(0.000708495 -0.0013826 -1.58434e-18)
(-0.000353434 8.95297e-05 4.85927e-18)
(-0.0519771 -0.00424312 -1.53625e-17)
(-0.0257662 -0.00682083 9.8581e-19)
(0.00591121 0.0179107 -5.57662e-18)
(-0.000627916 0.0010788 3.9177e-18)
(-0.00931558 -0.00699071 -1.41227e-18)
(-0.000113014 -0.000606691 3.20059e-19)
(-0.00155853 0.0019551 -8.74461e-18)
(-0.00029963 0.000687191 -9.01142e-18)
(-0.000100447 -0.00026484 -9.21035e-19)
(-0.0665017 0.000358989 -3.1805e-17)
(0.0182944 0.00497052 2.40998e-18)
(-0.00852214 0.0135402 4.43206e-18)
(0.00610996 0.00118529 7.8825e-18)
(-0.000139242 9.14366e-07 -1.80945e-18)
(-0.00626584 0.0210912 -1.33357e-17)
(0.014174 0.0114928 -3.49279e-18)
(-0.00225956 -0.00183437 5.69758e-18)
(-0.000226713 -2.5624e-05 -7.12809e-19)
(-0.0290668 0.0892385 -3.97594e-19)
(-0.000299548 -0.000734543 -9.77179e-19)
(0.000298372 -0.000996426 -1.58927e-18)
(-0.00021443 5.26648e-05 2.6151e-18)
(-0.0211825 0.00225885 -3.12191e-19)
(-0.000327084 0.000525069 -5.65716e-19)
(-0.0021757 0.00124054 5.649e-18)
(-0.0100097 0.000828575 5.48796e-18)
(-0.0483854 -0.00968088 4.70949e-17)
(-0.00016279 -0.000669514 3.88676e-19)
(-0.0191219 0.0201353 1.54062e-18)
(-0.00335511 -0.000395654 -2.85842e-18)
(-0.000256905 0.000226565 -2.54275e-18)
(-0.00146157 -0.00228013 5.27784e-18)
(-0.000649213 0.000961859 4.6101e-18)
(-0.000227796 -2.06149e-05 -3.89054e-18)
(-0.00260667 -0.00125532 2.22223e-18)
(-0.00605347 0.00208898 2.29048e-17)
(-0.00460506 0.00281573 -4.64773e-18)
(0.00595195 0.00150349 -2.92747e-17)
(-0.00228335 -0.00168457 1.33262e-17)
(-0.000163164 0.000454321 -7.32129e-18)
(-0.00892772 0.00695348 -4.44651e-18)
(0.0557271 0.023906 -6.11126e-18)
(-0.00298656 0.0363996 1.39756e-18)
(-0.0124557 -0.00958623 -2.63214e-18)
(-0.0219028 -0.00129889 7.39308e-18)
(-0.00146026 0.000280277 1.108e-18)
(-0.000100946 -0.00025438 3.42815e-19)
(-0.000375025 0.000217838 4.13458e-18)
(-0.00110549 0.000925676 -3.17645e-18)
(-0.0269634 -0.00913888 -2.43127e-18)
(-0.00420382 -0.00146204 5.0383e-19)
(-0.00292041 -0.00431177 7.29712e-18)
(-0.00364661 0.00195093 6.08343e-18)
(-0.00226003 -0.00163427 -1.52547e-17)
(-0.0466412 0.0260019 -2.61799e-17)
(-0.00959834 0.00494008 1.67458e-17)
(-0.000623745 0.000941678 -3.3466e-18)
(-0.00308912 -0.00155759 -6.9198e-18)
(0.00387016 0.00110419 5.64798e-17)
(-0.00145673 0.000881449 -2.83413e-18)
(-0.0517246 0.130387 8.97556e-19)
(-0.000106694 2.29418e-06 1.0188e-19)
(-2.65543e-05 0.000770199 -4.17251e-19)
(0.0871639 0.0586304 -2.53219e-18)
(-0.00223896 0.00178082 -4.2237e-18)
(-0.00106803 -0.00113503 1.04322e-18)
(-0.0154657 0.0329391 2.36884e-18)
(-0.0223514 0.00593016 2.80482e-18)
(-0.00522328 0.00211196 -2.83244e-18)
(0.00441142 0.00281283 7.85449e-18)
(-0.000649806 0.000867117 2.56484e-18)
(-0.0013349 0.000978716 7.19747e-18)
(-0.00267269 0.00914315 2.23589e-17)
(-0.000187916 0.00369473 -1.83266e-17)
(-0.00215869 0.00335385 3.18996e-18)
(-0.00571419 -0.00339364 3.59515e-18)
(-0.0418144 -0.0226422 -8.0081e-18)
(-0.0440061 0.0246095 1.01733e-17)
(-0.0607445 -0.000612177 3.85401e-17)
(-0.0409037 -0.0187539 -2.06257e-18)
(-0.0006453 0.00160576 1.44546e-17)
(0.00204429 -0.00685377 1.43423e-17)
(-0.00107485 0.000319508 1.07718e-18)
(-0.0280021 -0.00956217 8.6669e-18)
(-0.00165913 -0.000871879 7.81195e-19)
(0.00398341 0.00292083 -9.12491e-18)
(-0.00894211 -0.00741902 3.397e-18)
(-0.0173193 -0.0228453 -1.03953e-16)
(-0.00285919 -0.00413587 -5.07535e-18)
(-0.0162413 -0.00827954 2.65253e-19)
(-5.29411e-05 -0.000101166 -1.71804e-19)
(-0.0012968 0.0374778 2.64418e-17)
(-4.13617e-05 -0.000371804 -7.84389e-21)
(-0.0158268 0.00240932 -4.34429e-18)
(-0.000700485 0.000646202 -1.51051e-18)
(-0.0120011 0.00406489 -3.28179e-17)
(-0.000224871 0.000422916 -6.37635e-19)
(0.0131979 0.000807204 -6.94512e-18)
(-0.0024762 -0.00185052 -1.01285e-17)
(-0.000191165 0.000525553 -8.06875e-19)
(-0.000471184 0.000391227 2.92282e-18)
(-0.000216937 3.9171e-05 6.59999e-19)
(0.0506452 0.022805 6.99054e-18)
(-0.0443795 0.0040876 6.03639e-19)
(-0.0312916 0.0117991 7.24546e-19)
(-0.00576176 -0.00283112 6.13483e-18)
(-0.000614847 -0.00258107 4.56681e-18)
(0.000781478 -0.00321839 -3.78723e-17)
(-9.86467e-07 1.9686e-05 -7.57069e-19)
(-1.54105e-06 1.15745e-05 -3.78857e-18)
(0.0173774 0.0234181 8.30902e-18)
(-0.000473231 0.000398792 -9.00634e-19)
(-6.8769e-05 0.000616808 2.65114e-18)
(0.0038279 -0.000320137 1.65425e-17)
(-0.000161772 5.75366e-05 7.44614e-19)
(-0.00571143 -0.00313132 -9.46787e-18)
(0.000748397 -0.00285323 3.57448e-17)
(-6.34586e-05 0.000591812 -3.61791e-18)
(-0.000343762 0.000544052 -1.48719e-18)
(-0.00193663 0.00204165 -9.88541e-18)
(-0.00141452 0.000898743 -5.77644e-18)
(-0.00220386 -0.00153715 -7.41189e-18)
(0.0107802 0.0352094 -1.22203e-17)
(0.000785467 -0.00769378 -1.30943e-18)
(-0.0021909 0.00327561 1.34565e-17)
(-0.00259808 -0.000715059 -4.2281e-18)
(-0.000153871 0.000493983 -5.84853e-19)
(-0.00194143 0.010882 1.97792e-19)
(-0.000441684 0.00173078 -1.7377e-19)
(-0.00132609 -0.00103288 9.94082e-19)
(-0.00581571 0.0123649 1.78912e-17)
(-0.0428348 -0.00413278 2.9698e-17)
(-0.0153485 -0.00842593 5.84071e-18)
(0.0234035 0.0100372 3.53621e-18)
(-0.00238125 -7.20425e-05 1.21109e-18)
(-0.00128902 -0.00104532 -1.48364e-19)
(-0.0431069 -0.00537247 -1.77104e-17)
(-3.14644e-05 -0.000870739 -2.65378e-18)
(-0.0665255 -0.00042075 1.24415e-17)
(-0.0114874 0.00389011 2.06449e-17)
(-0.000197667 0.000526012 -6.23225e-20)
(0.0124765 0.0344635 -3.06373e-19)
(0.0174222 0.0233765 -3.00178e-17)
(-0.0011742 -0.000525963 5.85862e-18)
(-0.000157781 7.28662e-08 -1.68111e-20)
(-0.00593329 -2.50651e-05 -3.9907e-18)
(0.0253258 0.0215521 -3.39483e-18)
(-0.000716578 -0.000980969 6.15541e-19)
(-0.000582446 -0.0008512 -5.25356e-19)
(0.0011628 -0.00203016 -9.19335e-19)
(0.000262716 -0.00170189 -2.06697e-18)
(0.000148978 -0.000956389 2.71653e-18)
(-8.48737e-05 -4.19812e-05 6.39842e-19)
(-3.73232e-07 4.39846e-06 4.07283e-18)
(-0.051683 -0.0100788 -1.20291e-17)
(-0.00175517 -0.00153849 3.39177e-18)
(-0.0633909 -0.0217999 3.97427e-17)
(-0.000238812 0.000598544 -3.14672e-18)
(0.00181091 -0.00810054 -2.6682e-17)
(-0.0420717 -0.0190963 5.05147e-17)
(-0.00024566 0.000278873 -1.08246e-18)
(-7.67251e-05 -0.000403904 1.24618e-20)
(-0.00181608 -0.00147966 6.97473e-19)
(-0.000103552 0.000246452 -3.38518e-18)
(-0.00155212 0.000136645 -7.79051e-19)
(-0.00089781 0.00185829 8.2607e-18)
(-0.00102842 -0.000797372 -5.13898e-19)
(-0.000630834 0.00713021 -8.41604e-18)
(-0.00380199 0.00960365 -8.72263e-18)
(5.78002e-05 -0.000119933 1.95335e-19)
(0.0236561 0.0219799 -1.87685e-18)
(-0.0404786 0.0121781 1.27713e-17)
(-0.00189747 0.00336283 -1.02265e-17)
(0.00246543 -0.00654205 3.91922e-18)
(-0.00831028 0.0137056 2.98261e-17)
(-0.00161296 0.00200486 -6.67368e-18)
(0.00092362 -0.00737254 -9.80149e-18)
(-0.00211194 -0.00168279 1.54061e-17)
(0.00730986 0.021399 1.11249e-17)
(-0.00174151 -0.00152023 -3.0607e-18)
(-0.00664815 -0.00601129 2.81482e-18)
(-0.000998521 0.000481835 -1.43465e-18)
(0.000940228 0.134719 -2.51184e-18)
(-0.00250883 -0.00105706 -1.4765e-17)
(-0.00773147 0.00632379 1.26789e-18)
(-0.00803637 0.0126536 3.43639e-18)
(0.0096205 0.000660479 -1.14794e-19)
(-0.0017731 -0.00149008 4.18473e-19)
(-0.000755528 0.000767116 5.66356e-18)
(-0.00122477 -0.00193017 -9.46823e-18)
(-0.00809244 -0.0180313 -6.74478e-17)
(-0.00150469 0.000241792 2.02368e-18)
(-0.0130461 0.00312887 2.20565e-17)
(-0.000786096 0.00142165 -3.70797e-18)
(0.0452012 0.0312241 1.59712e-17)
(-0.001604 2.7809e-05 -6.82703e-19)
(-0.000378037 -0.000775335 1.18537e-19)
(-0.000224497 3.56148e-05 9.12222e-20)
(-0.000153168 5.2502e-05 7.08514e-19)
(-0.0350395 0.0149175 -5.30867e-18)
(0.0465372 0.0301598 -6.25226e-18)
(-0.000610488 0.00111345 -6.67156e-18)
(-0.050544 -0.00251153 2.24854e-19)
(-0.00276087 0.00179523 1.24957e-17)
(0.00127547 0.0410942 1.16924e-17)
(-0.043726 0.00465139 9.71685e-18)
(-0.0102823 0.0063485 -2.17263e-19)
(0.0245082 -0.0125164 -4.62359e-17)
(0.000592966 -0.000740856 2.17811e-19)
(-0.0209198 0.015846 -7.74632e-18)
(-0.0121242 -0.00891272 -7.0924e-18)
(-0.00101288 -4.02093e-05 2.03355e-20)
(-0.00559816 -0.00195788 -9.64391e-18)
(0.0155015 0.0223379 -8.17903e-19)
(0.105234 0.0608118 9.11857e-18)
(-0.000625198 -0.00140112 3.63275e-18)
(-0.000239313 0.00193268 1.5509e-17)
(-0.00104662 0.000137684 3.22695e-18)
(6.99364e-05 -2.58277e-05 -1.50077e-19)
(0.0857894 0.0132879 3.11615e-18)
(-0.00186376 0.00763928 1.07659e-17)
(-0.0302623 0.0152314 -1.52949e-17)
(0.0155726 0.00967431 7.40932e-18)
(-0.000535794 0.0012676 6.03266e-19)
(-8.97926e-05 0.000257203 2.15312e-18)
(-0.00260385 0.000589323 1.3761e-17)
(2.51428e-08 1.83082e-05 -9.42791e-19)
(-0.000405271 0.000144394 3.61323e-18)
(-0.000861019 0.00186601 1.0799e-17)
(0.000862925 -0.00185243 4.13196e-21)
(0.000150377 0.0073714 1.72129e-18)
(-0.00260281 -0.00109109 -3.08982e-19)
(-0.0114724 -0.00424213 1.14204e-17)
(-0.00464638 0.0231047 5.3689e-18)
(-0.00544191 -0.0035964 1.76417e-17)
(-0.000213962 0.000466135 -6.30287e-21)
(-0.00215996 0.00172907 -3.38543e-18)
(-0.00607917 -0.00628344 -1.90941e-17)
(0.00995379 0.0239508 -7.85596e-19)
(-0.00617614 -0.00601358 -9.73861e-18)
(-0.018236 0.000151527 5.72623e-17)
(-0.00166041 -0.00192641 1.0836e-17)
(-0.000627576 0.00114761 6.12474e-18)
(-0.048496 -0.00196654 -1.87643e-18)
(0.0365727 0.0158822 3.19831e-18)
(-0.00144324 4.60325e-05 3.20345e-19)
(7.41951e-05 -0.000368865 3.6212e-19)
(-0.00252037 0.00700824 3.34583e-17)
(-0.0405375 -0.00693116 4.53276e-17)
(-0.0120549 -0.00405657 -3.69616e-17)
(-0.000155848 4.19764e-05 -2.4523e-18)
(-0.0193899 0.00483327 5.77595e-18)
(0.0130953 0.00122047 4.79494e-18)
(-0.0116179 -0.0186901 8.19731e-17)
(3.81354e-06 -0.000312377 -3.1765e-20)
(0.00653365 0.000514061 6.17794e-17)
(0.0135736 0.000825143 -2.48607e-17)
(0.00621793 1.31304e-05 7.31507e-17)
(-0.00164543 -0.00134731 -7.04783e-19)
(1.6317e-06 0.000573906 8.2752e-19)
(-0.0422906 -0.000601727 -1.81339e-19)
(-1.59659e-07 3.32799e-06 9.98113e-18)
(-0.0318561 0.00780809 3.09768e-18)
(-0.0649489 -0.00055838 2.30201e-17)
(0.0106819 -0.00227477 9.68139e-18)
(0.00904666 0.000834176 3.55533e-17)
(-0.0117879 0.00338185 4.32228e-18)
(-0.000465707 0.00844854 1.72718e-18)
(-0.00575338 0.00248668 -1.23197e-17)
(-0.000917234 0.00107276 2.14288e-18)
(-0.000208133 0.00192038 -1.06836e-17)
(-0.0105869 -0.0061573 6.05837e-17)
(-0.0358571 0.0607985 -4.93427e-18)
(0.0144837 0.000718575 4.54335e-17)
(-0.0239859 0.121549 -3.76993e-18)
(1.42941e-05 -0.000870471 -5.69274e-19)
(-0.0308119 0.0084594 -1.90942e-18)
(-9.93885e-07 1.23738e-05 3.40987e-18)
(-0.00125128 -0.00231416 2.33009e-17)
(-0.0152813 0.000489161 1.42227e-18)
(-0.00569125 -0.00697436 -7.24691e-17)
(-0.000191667 0.000543434 1.92808e-19)
(-0.00193405 0.00130196 1.07324e-17)
(-0.00693537 0.0197714 -2.32367e-19)
(0.0210504 0.0212851 3.04916e-18)
(-0.00830804 -0.00676971 -8.11179e-18)
(0.0158601 0.000407977 2.71134e-17)
(-0.00275584 -0.00191145 1.13016e-17)
(-0.00361442 -0.000177628 9.72134e-19)
(-0.0192057 0.0232347 -3.55945e-19)
(-0.00034081 0.00167977 8.41696e-18)
(-9.15807e-05 -0.000563903 2.4882e-19)
(-0.00033837 0.000176435 -7.34964e-19)
(0.000648759 -0.00376682 -3.46683e-18)
(-0.0147551 -0.00752656 -7.44853e-19)
(-0.000166588 0.000386864 -3.09239e-19)
(-0.0145025 -1.54694e-05 -5.73978e-18)
(-0.000355825 0.000211169 -5.39025e-19)
(-0.000147867 -6.94985e-07 3.75547e-18)
(-0.000221356 3.65434e-06 4.5808e-18)
(-0.0196504 0.0189907 3.21873e-18)
(-0.000370506 0.00176751 -3.18442e-20)
(-5.51777e-07 1.32842e-05 1.82185e-18)
(-0.00269487 0.00032227 -2.01882e-17)
(-0.00175705 -0.000713465 -9.15969e-18)
(5.31066e-05 -0.000129258 4.01893e-20)
(-0.0670237 0.000414686 9.26356e-18)
(-0.000225668 -0.0009152 1.29192e-19)
(0.000432847 -0.000495445 -1.99028e-19)
(-0.00201303 -0.00271791 7.51649e-18)
(-0.00243222 0.0031595 1.50018e-18)
(-0.00067735 -0.00267084 -5.65003e-18)
(-0.00164588 -0.000493373 2.83664e-19)
(-0.0192713 0.00101571 -5.25383e-17)
(-0.00201661 0.0034224 -1.67243e-17)
(-0.0036474 -0.000871197 6.73689e-18)
(0.0385887 0.0146843 -5.38401e-18)
(-0.00362427 -0.000947139 -4.63576e-18)
(-0.0352807 0.0799736 -1.27643e-18)
(-0.000419331 0.00253855 3.3583e-17)
(-0.0011441 0.00787189 -1.41536e-17)
(0.00898002 -0.00108366 4.92408e-17)
(0.0862339 0.00889621 -2.68998e-18)
(8.1972e-05 -0.000355245 5.54302e-19)
(0.0100067 0.0215764 1.48527e-17)
(0.00815431 0.0328196 -1.82313e-17)
(-0.000148135 -0.000157918 5.09166e-19)
(-0.0300492 0.00837597 -8.72721e-18)
(-0.000184734 0.000540848 -1.6041e-18)
(-0.000219733 2.66436e-05 1.42763e-19)
(-0.0023562 -0.00132607 -1.07345e-17)
(-0.000226835 -5.51567e-05 -2.4672e-19)
(-0.00901298 -0.00104393 -5.09185e-17)
(0.00806967 0.0233877 2.54872e-18)
(-4.41149e-05 -0.000364711 2.80714e-20)
(0.00895541 -0.000270852 -4.38853e-17)
(0.000569573 -0.000720584 -1.40177e-18)
(-0.00228865 -0.00164414 -1.86685e-17)
(-0.0456349 0.058499 1.12933e-18)
(7.06426e-05 -0.000100575 4.85989e-20)
(-0.0425405 -0.00156431 -3.80845e-17)
(-0.00193122 9.889e-07 2.71794e-20)
(-0.000392532 -0.000959377 2.0097e-19)
(-0.000458254 0.000455262 -3.87701e-18)
(-0.000344936 0.000200885 3.05055e-18)
(0.012353 0.00156132 -1.0107e-17)
(-0.00231326 0.00573135 1.85731e-17)
(-0.0525549 -0.00187427 3.07985e-17)
(-0.00542834 -0.00380797 -3.31879e-17)
(-0.0370659 -0.0143992 2.09835e-17)
(-0.00218652 0.000371872 -3.93004e-18)
(-0.000159411 0.000423009 2.12162e-18)
(-0.00887899 0.0216252 8.17005e-18)
(0.015208 0.000628755 -1.2652e-17)
(0.0187034 -0.0127595 2.21716e-17)
(-0.00280837 0.00573539 2.96762e-18)
(0.00813209 -0.000921295 1.90377e-17)
(-0.0118385 -0.0103686 2.80389e-18)
(-0.0022292 -0.00130417 5.40681e-18)
(0.0124023 -7.99567e-05 -2.32961e-17)
(-0.00157907 -0.000437889 -4.65443e-20)
(-0.0165386 0.00467503 1.56185e-19)
(-0.000152622 2.19779e-05 -4.86045e-18)
(0.0059978 0.000619464 -5.60349e-17)
(-0.000595376 -0.00147031 -2.40125e-18)
(-0.00297851 0.0055646 -2.22535e-17)
(-0.00191173 0.00213302 -1.0229e-17)
(-0.00103149 -0.0010912 -3.70057e-19)
(-0.0720727 -0.0211938 -2.79065e-18)
(-0.000166039 0.00194476 1.10832e-18)
(-0.000385682 0.000167848 -1.13194e-19)
(-0.00555004 -0.0234246 3.06437e-17)
(-0.00192631 6.9002e-05 3.57235e-19)
(-0.000226272 6.3961e-07 -2.6789e-18)
(-0.00434649 -0.00128905 -8.3255e-19)
(-0.00023796 -0.00412492 2.27207e-17)
(0.0132672 0.00197983 5.04923e-18)
(-0.0114408 -0.018801 -8.4117e-17)
(0.0406886 0.0138107 -1.38995e-19)
(-0.052374 -0.00632799 -5.99773e-18)
(-9.52002e-05 0.00024692 1.00867e-18)
(7.67973e-08 0.000508233 -1.0777e-18)
(-0.021906 0.00564312 -1.90184e-17)
(-0.000242655 0.000173626 2.55685e-18)
(-0.016767 -0.00405982 -3.06131e-17)
(-0.0123298 0.00400484 -1.73876e-17)
(-0.00159397 -0.00128794 -3.27883e-18)
(-5.22417e-05 0.000618871 3.7881e-18)
(-0.00338352 -0.00088558 1.75243e-18)
(-3.55002e-05 0.000285593 6.53109e-18)
(-0.000377583 -0.000931413 -1.203e-18)