/*--------------------------------*- C++ -*----------------------------------*\
| =========                 |                                                 |
| \\      /  F ield         | OpenFOAM: The Open Source CFD Toolbox           |
|  \\    /   O peration     | Version:  v2012                                 |
|   \\  /    A nd           | Website:  www.openfoam.com                      |
|    \\/     M anipulation  |                                                 |
\*---------------------------------------------------------------------------*/
FoamFile
{
    version     2.0;
    format      ascii;
    class       pointVectorField;
    location    "750";
    object      pointDisplacement;
}
// * * * * * * * * * * * * * * * * * * * * * * * * * * * * * * * * * * * * * //

dimensions      [0 1 0 0 0 0 0];


internalField   nonuniform List<vector> 
19220
(
(0 0 0)
(-0 -1.92329e-06 -0)
(-0 -1.92329e-06 -0)
(0 0 0)
(-0 -1.92329e-06 -0)
(-0 -1.92329e-06 -0)
(0 0 0)
(0 0 0)
(0 0 0)
(0 0 0)
(0 0 0)
(0 0 0)
(0 0 0)
(0 0 0)
(0 0 0)
(0 0 0)
(0 0 0)
(0 0 0)
(0 0 0)
(0 0 0)
(0 0 0)
(0 0 0)
(0 0 0)
(0 0 0)
(0 0 0)
(0 0 0)
(0 0 0)
(0 0 0)
(0 0 0)
(0 0 0)
(0 0 0)
(0 0 0)
(0 0 0)
(0 0 0)
(0 0 0)
(0 0 0)
(0 0 0)
(0 0 0)
(0 0 0)
(0 0 0)
(0 0 0)
(0 0 0)
(0 0 0)
(0 0 0)
(0 0 0)
(0 0 0)
(0 0 0)
(0 0 0)
(0 0 0)
(0 0 0)
(0 0 0)
(0 0 0)
(0 0 0)
(0 0 0)
(0 0 0)
(0 0 0)
(0 0 0)
(0 0 0)
(0 0 0)
(0 0 0)
(0 0 0)
(0 0 0)
(0 0 0)
(0 0 0)
(0 0 0)
(0 0 0)
(0 0 0)
(0 0 0)
(0 0 0)
(0 0 0)
(0 0 0)
(0 0 0)
(0 0 0)
(0 0 0)
(0 0 0)
(0 0 0)
(0 0 0)
(0 0 0)
(0 0 0)
(0 0 0)
(0 0 0)
(0 0 0)
(0 0 0)
(0 0 0)
(0 0 0)
(0 0 0)
(0 0 0)
(0 0 0)
(0 0 0)
(0 0 0)
(0 0 0)
(0 0 0)
(0 0 0)
(0 0 0)
(0 0 0)
(-0 -1.92329e-06 -0)
(-0 -1.92329e-06 -0)
(-0 -1.92329e-06 -0)
(-0 -1.92329e-06 -0)
(-0 -1.92329e-06 -0)
(-0 -1.92329e-06 -0)
(-0 -1.92329e-06 -0)
(-0 -1.92329e-06 -0)
(-0 -1.92329e-06 -0)
(-0 -1.92329e-06 -0)
(-0 -1.92329e-06 -0)
(-0 -1.92329e-06 -0)
(-0 -1.92329e-06 -0)
(-0 -1.92329e-06 -0)
(-0 -1.92329e-06 -0)
(-0 -1.92329e-06 -0)
(-0 -1.92329e-06 -0)
(-0 -1.92329e-06 -0)
(-0 -1.92329e-06 -0)
(-0 -1.92329e-06 -0)
(-0 -1.92329e-06 -0)
(-0 -1.92329e-06 -0)
(-0 -1.92329e-06 -0)
(-0 -1.92329e-06 -0)
(-0 -1.92329e-06 -0)
(-0 -1.92329e-06 -0)
(-0 -1.92329e-06 -0)
(-0 -1.92329e-06 -0)
(-0 -1.92329e-06 -0)
(-0 -1.92329e-06 -0)
(-0 -1.92329e-06 -0)
(-0 -1.92329e-06 -0)
(-0 -1.92329e-06 -0)
(-0 -1.92329e-06 -0)
(-0 -1.92329e-06 -0)
(-0 -1.92329e-06 -0)
(-0 -1.92329e-06 -0)
(-0 -1.92329e-06 -0)
(-0 -1.92329e-06 -0)
(-0 -1.92329e-06 -0)
(-0 -1.92329e-06 -0)
(-0 -1.92329e-06 -0)
(-0 -1.92329e-06 -0)
(-0 -1.92329e-06 -0)
(-0 -1.92329e-06 -0)
(-0 -1.92329e-06 -0)
(-0 -1.92329e-06 -0)
(-0 -1.92329e-06 -0)
(-0 -1.92329e-06 -0)
(-0 -1.92329e-06 -0)
(-0 -1.92329e-06 -0)
(-0 -1.92329e-06 -0)
(-0 -1.92329e-06 -0)
(-0 -1.92329e-06 -0)
(-0 -1.92329e-06 -0)
(-0 -1.92329e-06 -0)
(-0 -1.92329e-06 -0)
(-0 -1.92329e-06 -0)
(-0 -1.92329e-06 -0)
(-0 -1.92329e-06 -0)
(-0 -1.92329e-06 -0)
(-0 -1.92329e-06 -0)
(-0 -1.92329e-06 -0)
(-0 -1.92329e-06 -0)
(-0 -1.92329e-06 -0)
(-0 -1.92329e-06 -0)
(-0 -1.92329e-06 -0)
(-0 -1.92329e-06 -0)
(-0 -1.92329e-06 -0)
(-0 -1.92329e-06 -0)
(-0 -1.92329e-06 -0)
(-0 -1.92329e-06 -0)
(-0 -1.92329e-06 -0)
(-0 -1.92329e-06 -0)
(-0 -1.92329e-06 -0)
(-0 -1.92329e-06 -0)
(-0 -1.92329e-06 -0)
(-0 -1.92329e-06 -0)
(-0 -1.92329e-06 -0)
(-0 -1.92329e-06 -0)
(-0 -1.92329e-06 -0)
(-0 -1.92329e-06 -0)
(-0 -1.92329e-06 -0)
(-0 -1.92329e-06 -0)
(-0 -1.92329e-06 -0)
(-0 -1.92329e-06 -0)
(-0 -1.92329e-06 -0)
(-0 -1.92329e-06 -0)
(-0 -1.92329e-06 -0)
(-0 -1.92329e-06 -0)
(-0 -1.92329e-06 -0)
(-0 -1.92329e-06 -0)
(-0 -1.92329e-06 -0)
(-0 -1.92329e-06 -0)
(-0 -1.92329e-06 -0)
(-0 -1.92329e-06 -0)
(-0 -1.92329e-06 -0)
(-0 -1.92329e-06 -0)
(-0 -1.92329e-06 -0)
(-0 -1.92329e-06 -0)
(-0 -1.92329e-06 -0)
(-0 -1.92329e-06 -0)
(-0 -1.92329e-06 -0)
(-0 -1.92329e-06 -0)
(-0 -1.92329e-06 -0)
(-0 -1.92329e-06 -0)
(-0 -1.92329e-06 -0)
(-0 -1.92329e-06 -0)
(-0 -1.92329e-06 -0)
(-0 -1.92329e-06 -0)
(-0 -1.92329e-06 -0)
(-0 -1.92329e-06 -0)
(-0 -1.92329e-06 -0)
(-0 -1.92329e-06 -0)
(-0 -1.92329e-06 -0)
(-0 -1.92329e-06 -0)
(-0 -1.92329e-06 -0)
(-0 -1.92329e-06 -0)
(-0 -1.92329e-06 -0)
(-0 -1.92329e-06 -0)
(-0 -1.92329e-06 -0)
(-0 -1.92329e-06 -0)
(-0 -1.92329e-06 -0)
(-0 -1.92329e-06 -0)
(-0 -1.92329e-06 -0)
(-0 -1.92329e-06 -0)
(-0 -1.92329e-06 -0)
(-0 -1.92329e-06 -0)
(0 0 0)
(0 0 0)
(0 0 0)
(0 0 0)
(0 0 0)
(0 0 0)
(0 0 0)
(0 0 0)
(0 0 0)
(0 0 0)
(0 0 0)
(0 0 0)
(0 0 0)
(0 0 0)
(0 0 0)
(0 0 0)
(0 0 0)
(0 0 0)
(0 0 0)
(0 0 0)
(0 0 0)
(0 0 0)
(0 0 0)
(0 0 0)
(0 0 0)
(0 0 0)
(0 0 0)
(0 0 0)
(0 0 0)
(0 0 0)
(0 0 0)
(0 0 0)
(0 0 0)
(0 0 0)
(0 0 0)
(0 0 0)
(0 0 0)
(0 0 0)
(0 0 0)
(0 0 0)
(0 0 0)
(0 0 0)
(0 0 0)
(0 0 0)
(0 0 0)
(0 0 0)
(0 0 0)
(0 0 0)
(0 0 0)
(0 0 0)
(0 0 0)
(0 0 0)
(0 0 0)
(0 0 0)
(0 0 0)
(0 0 0)
(0 0 0)
(0 0 0)
(0 0 0)
(0 0 0)
(0 0 0)
(0 0 0)
(0 0 0)
(0 0 0)
(0 0 0)
(0 0 0)
(0 0 0)
(0 0 0)
(0 0 0)
(0 0 0)
(0 0 0)
(0 0 0)
(0 0 0)
(0 0 0)
(0 0 0)
(0 0 0)
(0 0 0)
(0 0 0)
(0 0 0)
(0 0 0)
(0 0 0)
(0 0 0)
(0 0 0)
(0 0 0)
(0 0 0)
(0 0 0)
(0 0 0)
(0 0 0)
(0 0 0)
(-0 -1.92329e-06 -0)
(-0 -1.92329e-06 -0)
(-0 -1.92329e-06 -0)
(-0 -1.92329e-06 -0)
(-0 -1.92329e-06 -0)
(-0 -1.92329e-06 -0)
(-0 -1.92329e-06 -0)
(-0 -1.92329e-06 -0)
(-0 -1.92329e-06 -0)
(-0 -1.92329e-06 -0)
(-0 -1.92329e-06 -0)
(-0 -1.92329e-06 -0)
(-0 -1.92329e-06 -0)
(-0 -1.92329e-06 -0)
(-0 -1.92329e-06 -0)
(-0 -1.92329e-06 -0)
(-0 -1.92329e-06 -0)
(-0 -1.92329e-06 -0)
(-0 -1.92329e-06 -0)
(-0 -1.92329e-06 -0)
(-0 -1.92329e-06 -0)
(-0 -1.92329e-06 -0)
(-0 -1.92329e-06 -0)
(-0 -1.92329e-06 -0)
(-0 -1.92329e-06 -0)
(-0 -1.92329e-06 -0)
(-0 -1.92329e-06 -0)
(-0 -1.92329e-06 -0)
(-0 -1.92329e-06 -0)
(-0 -1.92329e-06 -0)
(-0 -1.92329e-06 -0)
(-0 -1.92329e-06 -0)
(-0 -1.92329e-06 -0)
(-0 -1.92329e-06 -0)
(-0 -1.92329e-06 -0)
(-0 -1.92329e-06 -0)
(-0 -1.92329e-06 -0)
(-0 -1.92329e-06 -0)
(-0 -1.92329e-06 -0)
(-0 -1.92329e-06 -0)
(-0 -1.92329e-06 -0)
(-0 -1.92329e-06 -0)
(-0 -1.92329e-06 -0)
(-0 -1.92329e-06 -0)
(-0 -1.92329e-06 -0)
(-0 -1.92329e-06 -0)
(-0 -1.92329e-06 -0)
(-0 -1.92329e-06 -0)
(-0 -1.92329e-06 -0)
(-0 -1.92329e-06 -0)
(-0 -1.92329e-06 -0)
(-0 -1.92329e-06 -0)
(-0 -1.92329e-06 -0)
(-0 -1.92329e-06 -0)
(-0 -1.92329e-06 -0)
(-0 -1.92329e-06 -0)
(-0 -1.92329e-06 -0)
(-0 -1.92329e-06 -0)
(-0 -1.92329e-06 -0)
(-0 -1.92329e-06 -0)
(-0 -1.92329e-06 -0)
(-0 -1.92329e-06 -0)
(-0 -1.92329e-06 -0)
(-0 -1.92329e-06 -0)
(-0 -1.92329e-06 -0)
(-0 -1.92329e-06 -0)
(-0 -1.92329e-06 -0)
(-0 -1.92329e-06 -0)
(-0 -1.92329e-06 -0)
(-0 -1.92329e-06 -0)
(-0 -1.92329e-06 -0)
(-0 -1.92329e-06 -0)
(-0 -1.92329e-06 -0)
(-0 -1.92329e-06 -0)
(-0 -1.92329e-06 -0)
(-0 -1.92329e-06 -0)
(-0 -1.92329e-06 -0)
(-0 -1.92329e-06 -0)
(-0 -1.92329e-06 -0)
(-0 -1.92329e-06 -0)
(-0 -1.92329e-06 -0)
(-0 -1.92329e-06 -0)
(-0 -1.92329e-06 -0)
(-0 -1.92329e-06 -0)
(-0 -1.92329e-06 -0)
(-0 -1.92329e-06 -0)
(-0 -1.92329e-06 -0)
(-0 -1.92329e-06 -0)
(-0 -1.92329e-06 -0)
(-0 -1.92329e-06 -0)
(-0 -1.92329e-06 -0)
(-0 -1.92329e-06 -0)
(-0 -1.92329e-06 -0)
(-0 -1.92329e-06 -0)
(-0 -1.92329e-06 -0)
(-0 -1.92329e-06 -0)
(-0 -1.92329e-06 -0)
(-0 -1.92329e-06 -0)
(-0 -1.92329e-06 -0)
(-0 -1.92329e-06 -0)
(-0 -1.92329e-06 -0)
(-0 -1.92329e-06 -0)
(-0 -1.92329e-06 -0)
(-0 -1.92329e-06 -0)
(-0 -1.92329e-06 -0)
(-0 -1.92329e-06 -0)
(-0 -1.92329e-06 -0)
(-0 -1.92329e-06 -0)
(-0 -1.92329e-06 -0)
(-0 -1.92329e-06 -0)
(-0 -1.92329e-06 -0)
(-0 -1.92329e-06 -0)
(-0 -1.92329e-06 -0)
(-0 -1.92329e-06 -0)
(-0 -1.92329e-06 -0)
(-0 -1.92329e-06 -0)
(-0 -1.92329e-06 -0)
(-0 -1.92329e-06 -0)
(-0 -1.92329e-06 -0)
(-0 -1.92329e-06 -0)
(-0 -1.92329e-06 -0)
(-0 -1.92329e-06 -0)
(-0 -1.92329e-06 -0)
(-0 -1.92329e-06 -0)
(-0 -1.92329e-06 -0)
(-0 -1.92329e-06 -0)
(-0 -1.92329e-06 -0)
(-0 -1.92329e-06 -0)
(0 -1.92675e-06 0)
(0 -1.92328e-06 0)
(0 -1.92327e-06 0)
(0 -1.92334e-06 0)
(0 -1.92371e-06 0)
(0 -1.92333e-06 0)
(0 -1.93383e-06 0)
(0 -1.92346e-06 0)
(0 -1.92328e-06 0)
(0 -1.92327e-06 0)
(0 -1.92331e-06 0)
(0 -1.94331e-06 0)
(0 -1.93049e-06 0)
(0 -1.92339e-06 0)
(0 -6.26234e-07 0)
(0 -1.34332e-06 0)
(0 -1.85115e-06 0)
(0 -9.40152e-07 0)
(0 4.80669e-08 0)
(0 -7.89403e-07 0)
(0 -5.48215e-07 0)
(0 -7.7597e-07 0)
(0 -1.01557e-06 0)
(0 -1.92332e-06 0)
(0 -1.941e-06 0)
(0 -1.92326e-06 0)
(0 -1.92331e-06 0)
(0 -1.93908e-06 0)
(0 -1.9268e-06 0)
(0 -1.92379e-06 0)
(0 -1.92358e-06 0)
(0 -1.92348e-06 0)
(0 -1.92328e-06 0)
(0 -6.69126e-07 0)
(0 -5.36068e-07 0)
(0 -4.42693e-07 0)
(0 -1.92361e-06 0)
(0 -1.92394e-06 0)
(0 -1.92326e-06 0)
(0 -6.42499e-07 0)
(0 -3.78971e-07 0)
(0 -6.23419e-07 0)
(0 -6.62716e-07 0)
(0 -3.84682e-07 0)
(0 -1.13913e-06 0)
(0 -1.52007e-06 0)
(0 -1.57924e-06 0)
(0 -3.90934e-07 0)
(0 -7.28559e-07 0)
(0 -1.92326e-06 0)
(0 -3.23098e-07 0)
(0 -2.94564e-07 0)
(0 -1.96401e-07 0)
(0 -8.38487e-07 0)
(0 3.67133e-07 0)
(0 -6.61234e-07 0)
(0 -9.44787e-07 0)
(0 -2.71904e-07 0)
(0 -7.73514e-07 0)
(0 -4.46847e-07 0)
(0 -2.62354e-07 0)
(0 -1.57188e-07 0)
(0 -4.7511e-07 0)
(0 -9.75738e-07 0)
(0 -1.1465e-06 0)
(0 -1.37868e-06 0)
(0 -1.53435e-06 0)
(0 -1.68263e-06 0)
(0 -1.78947e-06 0)
(0 -1.84173e-06 0)
(0 -1.86311e-06 0)
(0 -1.83451e-06 0)
(0 -1.77215e-06 0)
(0 -1.68916e-06 0)
(0 -1.68635e-06 0)
(0 -1.43287e-06 0)
(0 -1.39936e-06 0)
(0 -1.1845e-06 0)
(0 -1.13466e-06 0)
(0 -9.92435e-07 0)
(0 -9.55791e-07 0)
(0 -8.59636e-07 0)
(0 -8.05628e-07 0)
(0 -7.16951e-07 0)
(0 -6.31357e-07 0)
(0 -5.26351e-07 0)
(0 -4.37976e-07 0)
(0 -3.13826e-07 0)
(0 -4.35561e-07 0)
(0 -2.28062e-07 0)
(0 -3.47589e-07 0)
(0 -1.14723e-07 0)
(0 -2.05647e-07 0)
(0 7.1588e-08 0)
(0 2.3214e-08 0)
(0 3.51812e-07 0)
(0 3.68012e-07 0)
(0 7.13788e-07 0)
(0 7.76712e-07 0)
(0 1.12394e-06 0)
(0 1.2136e-06 0)
(0 1.05512e-06 0)
(0 1.45966e-06 0)
(0 1.40334e-06 0)
(0 1.75068e-06 0)
(0 1.62916e-06 0)
(0 1.9486e-06 0)
(0 1.75557e-06 0)
(0 2.01829e-06 0)
(0 1.80148e-06 0)
(0 2.00529e-06 0)
(0 1.78245e-06 0)
(0 1.95229e-06 0)
(0 2.131e-06 0)
(0 1.76565e-06 0)
(0 1.9088e-06 0)
(0 1.77539e-06 0)
(0 1.89617e-06 0)
(0 1.77668e-06 0)
(0 1.87402e-06 0)
(0 1.75042e-06 0)
(0 1.84236e-06 0)
(0 1.72945e-06 0)
(0 1.8211e-06 0)
(0 1.73366e-06 0)
(0 1.82305e-06 0)
(0 1.87927e-06 0)
(0 1.7716e-06 0)
(0 1.85905e-06 0)
(0 1.82249e-06 0)
(0 1.90431e-06 0)
(0 1.84296e-06 0)
(0 1.92377e-06 0)
(0 1.82897e-06 0)
(0 1.9135e-06 0)
(0 1.8095e-06 0)
(0 1.89623e-06 0)
(0 1.79511e-06 0)
(0 1.86588e-06 0)
(0 1.77433e-06 0)
(0 1.83437e-06 0)
(0 1.7389e-06 0)
(0 1.79201e-06 0)
(0 1.68755e-06 0)
(0 1.73165e-06 0)
(0 1.61383e-06 0)
(0 1.65211e-06 0)
(0 1.52154e-06 0)
(0 1.55774e-06 0)
(0 1.42746e-06 0)
(0 1.45454e-06 0)
(0 1.9564e-06 0)
(0 1.33416e-06 0)
(0 1.35392e-06 0)
(0 1.63597e-06 0)
(0 1.24081e-06 0)
(0 1.25848e-06 0)
(0 1.14627e-06 0)
(0 1.18569e-06 0)
(0 1.06985e-06 0)
(0 1.13411e-06 0)
(0 1.02159e-06 0)
(0 1.09586e-06 0)
(0 9.87772e-07 0)
(0 1.06436e-06 0)
(0 9.86165e-07 0)
(0 9.70302e-07 0)
(0 1.04277e-06 0)
(0 9.60664e-07 0)
(0 1.02334e-06 0)
(0 9.42054e-07 0)
(0 1.01213e-06 0)
(0 9.27205e-07 0)
(0 1.00944e-06 0)
(0 1.74837e-06 0)
(0 9.23897e-07 0)
(0 1.01235e-06 0)
(0 8.24391e-07 0)
(0 1.67635e-06 0)
(0 9.29392e-07 0)
(0 1.0182e-06 0)
(0 9.47341e-07 0)
(0 1.04667e-06 0)
(0 9.89334e-07 0)
(0 1.10525e-06 0)
(0 1.15248e-06 0)
(0 1.22082e-06 0)
(0 1.25417e-06 0)
(0 1.31493e-06 0)
(0 1.29099e-06 0)
(0 1.38452e-06 0)
(0 1.39026e-06 0)
(0 1.46959e-06 0)
(0 1.47139e-06 0)
(0 1.57632e-06 0)
(0 1.56121e-06 0)
(0 1.69092e-06 0)
(0 1.71177e-06 0)
(0 1.84453e-06 0)
(0 1.87845e-06 0)
(0 2.02983e-06 0)
(0 1.97357e-06 0)
(0 2.17765e-06 0)
(0 2.10305e-06 0)
(0 2.32193e-06 0)
(0 2.42345e-06 0)
(0 2.58694e-06 0)
(0 2.70322e-06 0)
(0 2.87891e-06 0)
(0 2.7424e-06 0)
(0 3.02751e-06 0)
(0 3.16576e-06 0)
(0 3.31897e-06 0)
(0 3.1216e-06 0)
(0 3.46718e-06 0)
(0 3.62724e-06 0)
(0 3.80695e-06 0)
(0 3.61828e-06 0)
(0 3.98135e-06 0)
(0 4.17747e-06 0)
(0 4.38427e-06 0)
(0 4.16094e-06 0)
(0 4.59888e-06 0)
(0 4.83173e-06 0)
(0 5.06525e-06 0)
(0 5.30548e-06 0)
(0 5.5463e-06 0)
(0 5.29387e-06 0)
(0 5.79237e-06 0)
(0 6.04447e-06 0)
(0 6.31431e-06 0)
(0 6.03769e-06 0)
(0 6.58933e-06 0)
(0 6.87914e-06 0)
(0 7.19435e-06 0)
(0 7.49988e-06 0)
(0 7.84943e-06 0)
(0 7.53868e-06 0)
(0 8.1977e-06 0)
(0 8.52992e-06 0)
(0 8.88691e-06 0)
(0 8.51277e-06 0)
(0 9.22245e-06 0)
(0 9.5916e-06 0)
(0 9.95485e-06 0)
(0 9.50114e-06 0)
(0 1.03311e-05 0)
(0 1.07389e-05 0)
(0 1.11396e-05 0)
(0 1.06547e-05 0)
(0 1.15299e-05 0)
(0 1.20078e-05 0)
(0 1.23695e-05 0)
(0 1.18916e-05 0)
(0 1.27206e-05 0)
(0 1.31949e-05 0)
(0 1.35746e-05 0)
(0 1.30696e-05 0)
(0 1.39589e-05 0)
(0 1.44473e-05 0)
(0 1.4337e-05 0)
(0 1.24061e-06 0)
(0 1.63929e-06 0)
(0 8.52535e-07 0)
(0 1.31076e-06 0)
(0 9.45147e-07 0)
(0 1.38773e-06 0)
(0 1.03202e-06 0)
(0 1.41185e-06 0)
(0 1.09039e-06 0)
(0 1.37391e-06 0)
(0 1.0997e-06 0)
(0 1.32969e-06 0)
(0 1.09587e-06 0)
(0 1.07493e-06 0)
(0 -7.31073e-07 0)
(0 -6.39057e-07 0)
(0 -7.32044e-07 0)
(0 -6.40746e-07 0)
(0 -7.38848e-07 0)
(0 -6.43002e-07 0)
(0 -7.4737e-07 0)
(0 -8.38688e-07 0)
(0 -8.46241e-07 0)
(0 -7.5263e-07 0)
(0 -8.46537e-07 0)
(0 -7.51604e-07 0)
(0 -8.41149e-07 0)
(0 -7.43665e-07 0)
(0 -8.3198e-07 0)
(0 -9.30568e-07 0)
(0 -7.2941e-07 0)
(0 -8.19479e-07 0)
(0 -9.15891e-07 0)
(0 -9.03614e-07 0)
(0 -8.02529e-07 0)
(0 -8.85085e-07 0)
(0 -9.9314e-07 0)
(0 -7.79189e-07 0)
(0 -8.56713e-07 0)
(0 -7.45369e-07 0)
(0 -8.19776e-07 0)
(0 -7.04485e-07 0)
(0 -7.80988e-07 0)
(0 -8.90929e-07 0)
(0 -8.53487e-07 0)
(0 -9.57218e-07 0)
(0 -9.17353e-07 0)
(0 -1.01414e-06 0)
(0 -9.70994e-07 0)
(0 -1.0631e-06 0)
(0 -1.01399e-06 0)
(0 -1.10455e-06 0)
(0 -1.05287e-06 0)
(0 -1.14097e-06 0)
(0 -1.0911e-06 0)
(0 -1.17744e-06 0)
(0 -1.12257e-06 0)
(0 -1.21078e-06 0)
(0 -1.15305e-06 0)
(0 -1.24306e-06 0)
(0 -1.18666e-06 0)
(0 -1.27419e-06 0)
(0 -1.2181e-06 0)
(0 -1.30058e-06 0)
(0 -1.24433e-06 0)
(0 -1.32118e-06 0)
(0 -1.26379e-06 0)
(0 -1.33959e-06 0)
(0 -1.278e-06 0)
(0 -1.35411e-06 0)
(0 -1.28845e-06 0)
(0 -1.36543e-06 0)
(0 -1.30034e-06 0)
(0 -1.3765e-06 0)
(0 -1.31255e-06 0)
(0 -1.38293e-06 0)
(0 -1.31837e-06 0)
(0 -1.38472e-06 0)
(0 -1.31822e-06 0)
(0 -1.38268e-06 0)
(0 -1.30986e-06 0)
(0 -1.37745e-06 0)
(0 -1.30141e-06 0)
(0 -1.37071e-06 0)
(0 -1.29644e-06 0)
(0 -1.36005e-06 0)
(0 -1.27524e-06 0)
(0 -1.34645e-06 0)
(0 -1.27231e-06 0)
(0 -1.33149e-06 0)
(0 -1.25571e-06 0)
(0 -1.31137e-06 0)
(0 -1.23532e-06 0)
(0 -1.28863e-06 0)
(0 -1.21397e-06 0)
(0 -1.26324e-06 0)
(0 -1.18738e-06 0)
(0 -1.2358e-06 0)
(0 -1.15601e-06 0)
(0 -1.20764e-06 0)
(0 -1.12166e-06 0)
(0 -1.17666e-06 0)
(0 -1.08594e-06 0)
(0 -1.14221e-06 0)
(0 -1.04882e-06 0)
(0 -1.10453e-06 0)
(0 -1.00898e-06 0)
(0 -1.06042e-06 0)
(0 -9.58688e-07 0)
(0 -1.00856e-06 0)
(0 -8.98456e-07 0)
(0 -9.51323e-07 0)
(0 -8.35359e-07 0)
(0 -8.88794e-07 0)
(0 -7.66393e-07 0)
(0 -8.20758e-07 0)
(0 -6.91329e-07 0)
(0 -7.47326e-07 0)
(0 -6.10646e-07 0)
(0 -6.68196e-07 0)
(0 -5.27072e-07 0)
(0 -5.83408e-07 0)
(0 -4.33656e-07 0)
(0 -4.92445e-07 0)
(0 -3.33438e-07 0)
(0 -3.95579e-07 0)
(0 -2.25543e-07 0)
(0 -2.88344e-07 0)
(0 -1.05937e-07 0)
(0 -1.62563e-07 0)
(0 2.10543e-08 0)
(0 -3.46358e-08 0)
(0 1.57283e-07 0)
(0 9.23142e-08 0)
(0 -1.09143e-07 0)
(0 2.93057e-08 0)
(0 2.32417e-07 0)
(0 1.59278e-07 0)
(0 -3.4382e-08 0)
(0 8.46779e-08 0)
(0 2.98516e-07 0)
(0 2.14069e-07 0)
(0 1.14313e-08 0)
(0 1.44251e-07 0)
(0 3.56316e-07 0)
(0 2.85499e-07 0)
(0 5.12457e-07 0)
(0 4.33993e-07 0)
(0 2.07733e-07 0)
(0 3.50283e-07 0)
(0 5.89261e-07 0)
(0 4.97532e-07 0)
(0 7.52636e-07 0)
(0 6.55069e-07 0)
(0 3.74864e-07 0)
(0 5.61388e-07 0)
(0 8.16331e-07 0)
(0 7.20674e-07 0)
(0 -6.43396e-07 0)
(0 4.76625e-07 0)
(0 6.31852e-07 0)
(0 8.81572e-07 0)
(0 7.96405e-07 0)
(0 5.41577e-07 0)
(0 7.0602e-07 0)
(0 9.75447e-07 0)
(0 8.81723e-07 0)
(0 1.16856e-06 0)
(0 1.07141e-06 0)
(0 4.49341e-07 0)
(0 -1.0042e-06 0)
(0 -1.21892e-06 0)
(0 -1.23247e-06 0)
(0 -1.15092e-06 0)
(0 -1.00535e-06 0)
(0 -1.15793e-06 0)
(0 -9.91072e-07 0)
(0 -7.13037e-07 0)
(0 -2.61061e-07 0)
(0 1.37584e-06 0)
(0 1.27616e-06 0)
(0 1.59864e-06 0)
(0 1.49541e-06 0)
(0 -1.22882e-06 0)
(0 1.83643e-06 0)
(0 1.73313e-06 0)
(0 1.39277e-06 0)
(0 1.63088e-06 0)
(0 1.29709e-06 0)
(0 1.53329e-06 0)
(0 1.20478e-06 0)
(0 1.43867e-06 0)
(0 1.11572e-06 0)
(0 1.34773e-06 0)
(0 1.02863e-06 0)
(0 1.26141e-06 0)
(0 1.59418e-06 0)
(0 1.51157e-06 0)
(0 1.17595e-06 0)
(0 1.09452e-06 0)
(0 2.09765e-06 0)
(0 2.19546e-06 0)
(0 -1.3602e-06 0)
(0 -1.22349e-06 0)
(0 2.48218e-06 0)
(0 2.57582e-06 0)
(0 -1.42523e-06 0)
(0 2.88449e-06 0)
(0 2.98104e-06 0)
(0 3.31105e-06 0)
(0 3.41097e-06 0)
(0 -1.4437e-06 0)
(0 -1.34969e-06 0)
(0 -7.4101e-07 0)
(0 3.76605e-06 0)
(0 3.85971e-06 0)
(0 4.23425e-06 0)
(0 4.32707e-06 0)
(0 1.46105e-05 0)
(0 1.50544e-05 0)
(0 1.38129e-05 0)
(0 1.33982e-05 0)
(0 1.25884e-05 0)
(0 1.52793e-06 0)
(0 1.57948e-06 0)
(0 1.22352e-05 0)
(0 1.14153e-05 0)
(0 1.17205e-05 0)
(0 1.05901e-05 0)
(0 1.08871e-05 0)
(0 9.81853e-06 0)
(0 9.53528e-06 0)
(0 8.81335e-06 0)
(0 4.70908e-06 0)
(0 4.81792e-06 0)
(0 9.12027e-06 0)
(0 8.16348e-06 0)
(0 7.88744e-06 0)
(0 7.30724e-06 0)
(0 7.5488e-06 0)
(0 6.76314e-06 0)
(0 6.54799e-06 0)
(0 6.06062e-06 0)
(0 8.80663e-07 0)
(0 5.84493e-06 0)
(0 5.4157e-06 0)
(0 5.58305e-06 0)
(0 5.00287e-06 0)
(0 2.18284e-07 0)
(0 -6.22331e-07 0)
(0 4.82761e-06 0)
(0 4.46395e-06 0)
(0 4.55974e-06 0)
(0 4.09401e-06 0)
(0 3.96107e-06 0)
(0 3.63118e-06 0)
(0 3.71624e-06 0)
(0 3.29214e-06 0)
(0 3.14775e-06 0)
(0 2.84291e-06 0)
(0 2.93576e-06 0)
(0 2.55013e-06 0)
(0 2.38342e-06 0)
(0 2.11949e-06 0)
(0 -6.33313e-07 0)
(0 -5.4442e-07 0)
(0 1.85143e-06 0)
(0 1.5193e-06 0)
(0 1.73837e-06 0)
(0 1.0903e-06 0)
(0 8.21505e-07 0)
(0 4.0299e-07 0)
(0 5.99925e-07 0)
(0 -7.34298e-08 0)
(0 -3.35498e-07 0)
(0 -7.94762e-07 0)
(0 -5.71013e-07 0)
(0 -1.25462e-06 0)
(0 -1.49136e-06 0)
(0 -1.88468e-06 0)
(0 -1.64141e-06 0)
(0 -2.17783e-06 0)
(0 -1.8976e-06 0)
(0 -2.33788e-06 0)
(0 -2.03523e-06 0)
(0 -2.43469e-06 0)
(0 -2.6858e-06 0)
(0 -2.82497e-06 0)
(0 -2.57466e-06 0)
(0 -3.02444e-06 0)
(0 -2.76424e-06 0)
(0 -3.23544e-06 0)
(0 -2.97458e-06 0)
(0 -3.45515e-06 0)
(0 -3.70317e-06 0)
(0 -3.95393e-06 0)
(0 -3.68569e-06 0)
(0 -4.19546e-06 0)
(0 -3.86849e-06 0)
(0 -4.34475e-06 0)
(0 -3.93619e-06 0)
(0 -4.36975e-06 0)
(0 -4.75911e-06 0)
(0 -4.69853e-06 0)
(0 -4.24682e-06 0)
(0 -4.4749e-06 0)
(0 -3.99666e-06 0)
(0 -4.14446e-06 0)
(0 -4.5837e-06 0)
(0 -4.20001e-06 0)
(0 -3.78939e-06 0)
(0 -3.82805e-06 0)
(0 -3.45847e-06 0)
(0 -3.50577e-06 0)
(0 -3.81796e-06 0)
(0 -3.55426e-06 0)
(0 -3.25593e-06 0)
(0 -3.35714e-06 0)
(0 -3.07232e-06 0)
(0 -3.20196e-06 0)
(0 -3.44288e-06 0)
(0 -2.9398e-06 0)
(0 -3.10751e-06 0)
(0 -2.85304e-06 0)
(0 -3.08491e-06 0)
(0 -2.83649e-06 0)
(0 -3.13482e-06 0)
(0 -2.89545e-06 0)
(0 -3.25632e-06 0)
(0 -3.00296e-06 0)
(0 -3.4342e-06 0)
(0 -3.43751e-06 0)
(0 -3.18225e-06 0)
(0 5.20136e-06 0)
(0 5.10981e-06 0)
(0 5.38322e-06 0)
(0 4.93587e-06 0)
(0 5.41423e-06 0)
(0 5.03033e-06 0)
(0 5.51743e-06 0)
(0 5.13483e-06 0)
(0 5.62231e-06 0)
(0 5.22135e-06 0)
(0 5.70784e-06 0)
(0 5.2909e-06 0)
(0 -3.67252e-06 0)
(0 -3.43957e-06 0)
(0 -2.68532e-06 0)
(0 5.78596e-06 0)
(0 5.37566e-06 0)
(0 -3.91908e-06 0)
(0 -3.67361e-06 0)
(0 -2.49429e-07 0)
(0 -2.68504e-06 0)
(0 6.1542e-06 0)
(0 5.85825e-06 0)
(0 5.44191e-06 0)
(0 -4.11584e-06 0)
(0 -4.31751e-06 0)
(0 -3.82792e-06 0)
(0 -4.45846e-07 0)
(0 5.91862e-06 0)
(0 5.49196e-06 0)
(0 -3.25962e-07 0)
(0 -6.01513e-07 0)
(0 1.87184e-06 0)
(0 -1.76838e-06 0)
(0 -1.79687e-06 0)
(0 -1.78201e-06 0)
(0 -1.80725e-06 0)
(0 -1.79367e-06 0)
(0 -1.81687e-06 0)
(0 -1.80331e-06 0)
(0 -1.82511e-06 0)
(0 -1.8108e-06 0)
(0 -1.83131e-06 0)
(0 -1.78827e-06 0)
(0 -1.81646e-06 0)
(0 -1.83595e-06 0)
(0 -4.45814e-06 0)
(0 -4.59751e-06 0)
(0 -1.73687e-06 0)
(0 5.97198e-06 0)
(0 5.52566e-06 0)
(0 1.75472e-06 0)
(0 -1.82069e-06 0)
(0 -1.83821e-06 0)
(0 -1.60493e-06 0)
(0 -5.55026e-07 0)
(0 -8.69275e-07 0)
(0 5.09282e-06 0)
(0 5.11332e-06 0)
(0 5.56232e-06 0)
(0 5.13842e-06 0)
(0 -4.70222e-06 0)
(0 -4.75688e-06 0)
(0 -1.81949e-06 0)
(0 8.06925e-07 0)
(0 -1.82208e-06 0)
(0 -1.83792e-06 0)
(0 1.60024e-06 0)
(0 1.62092e-06 0)
(0 1.78481e-06 0)
(0 1.64361e-06 0)
(0 4.7227e-06 0)
(0 4.73602e-06 0)
(0 1.47067e-06 0)
(0 1.48206e-06 0)
(0 5.17488e-06 0)
(0 4.75129e-06 0)
(0 6.45389e-06 0)
(0 -1.82035e-06 0)
(0 -1.83584e-06 0)
(0 -1.80324e-06 0)
(0 4.33339e-06 0)
(0 4.33696e-06 0)
(0 1.82447e-06 0)
(0 1.30421e-06 0)
(0 1.32267e-06 0)
(0 4.77106e-06 0)
(0 4.35461e-06 0)
(0 3.93753e-06 0)
(0 3.95729e-06 0)
(0 3.56085e-06 0)
(0 3.57823e-06 0)
(0 -8.62987e-07 0)
(0 -1.20254e-06 0)
(0 -4.88891e-06 0)
(0 -4.8669e-06 0)
(0 3.20912e-06 0)
(0 3.23539e-06 0)
(0 2.8823e-06 0)
(0 2.92243e-06 0)
(0 2.57355e-06 0)
(0 2.61654e-06 0)
(0 2.27929e-06 0)
(0 2.3257e-06 0)
(0 2.0075e-06 0)
(0 2.05799e-06 0)
(0 1.75823e-06 0)
(0 1.81377e-06 0)
(0 2.11282e-06 0)
(0 1.87088e-06 0)
(0 1.59371e-06 0)
(0 1.65221e-06 0)
(0 1.39424e-06 0)
(0 1.45511e-06 0)
(0 1.21018e-06 0)
(0 1.27454e-06 0)
(0 1.03754e-06 0)
(0 1.10137e-06 0)
(0 8.73438e-07 0)
(0 9.40968e-07 0)
(0 7.18935e-07 0)
(0 7.89047e-07 0)
(0 5.76399e-07 0)
(0 6.51904e-07 0)
(0 4.50895e-07 0)
(0 5.3566e-07 0)
(0 3.47194e-07 0)
(0 4.35203e-07 0)
(0 2.5947e-07 0)
(0 3.4754e-07 0)
(0 1.78845e-07 0)
(0 2.60608e-07 0)
(0 9.78957e-08 0)
(0 1.75612e-07 0)
(0 2.47563e-08 0)
(0 1.11973e-07 0)
(0 -3.05184e-08 0)
(0 6.7798e-08 0)
(0 2.36459e-07 0)
(0 1.78342e-07 0)
(0 3.06571e-08 0)
(0 1.3768e-07 0)
(0 2.18519e-09 0)
(0 1.03126e-07 0)
(0 -2.38905e-08 0)
(0 7.44574e-08 0)
(0 -4.33232e-08 0)
(0 5.48249e-08 0)
(0 -5.37249e-08 0)
(0 4.48758e-08 0)
(0 -5.82539e-08 0)
(0 4.05256e-08 0)
(0 5.10474e-07 0)
(0 1.44403e-07 0)
(0 1.40842e-07 0)
(0 4.19318e-08 0)
(0 1.48109e-07 0)
(0 5.59216e-08 0)
(0 1.73019e-07 0)
(0 8.70061e-08 0)
(0 2.13493e-07 0)
(0 1.30173e-07 0)
(0 2.63069e-07 0)
(0 2.92812e-07 0)
(0 1.77359e-07 0)
(0 3.15778e-07 0)
(0 2.21835e-07 0)
(0 3.54978e-07 0)
(0 2.57985e-07 0)
(0 3.83161e-07 0)
(0 2.91401e-07 0)
(0 1.03452e-06 0)
(0 4.20757e-07 0)
(0 3.35089e-07 0)
(0 4.72184e-07 0)
(0 3.91716e-07 0)
(0 2.94281e-07 0)
(0 5.39421e-07 0)
(0 4.6445e-07 0)
(0 3.30501e-06 0)
(0 -1.81712e-06 0)
(0 -1.83214e-06 0)
(0 1.71213e-06 0)
(0 -1.84912e-06 0)
(0 -1.84536e-06 0)
(0 -1.82682e-06 0)
(0 -1.84009e-06 0)
(0 -1.85965e-06 0)
(0 -1.85177e-06 0)
(0 -1.83308e-06 0)
(0 -1.84392e-06 0)
(0 -1.8607e-06 0)
(0 -1.85317e-06 0)
(0 -1.86794e-06 0)
(0 -1.86116e-06 0)
(0 -1.87449e-06 0)
(0 -1.86828e-06 0)
(0 -1.88048e-06 0)
(0 -1.87444e-06 0)
(0 -1.88547e-06 0)
(0 -1.8794e-06 0)
(0 -1.88955e-06 0)
(0 -1.88345e-06 0)
(0 -1.87192e-06 0)
(0 -1.87601e-06 0)
(0 -1.88681e-06 0)
(0 -1.87995e-06 0)
(0 -1.88981e-06 0)
(0 -1.88302e-06 0)
(0 -1.89246e-06 0)
(0 -1.88582e-06 0)
(0 -1.89494e-06 0)
(0 -1.88883e-06 0)
(0 -1.89737e-06 0)
(0 -1.89145e-06 0)
(0 -1.89943e-06 0)
(0 -1.89349e-06 0)
(0 -1.88439e-06 0)
(0 -1.88634e-06 0)
(0 -1.8951e-06 0)
(0 -1.88768e-06 0)
(0 -1.89646e-06 0)
(0 -1.8889e-06 0)
(0 -1.89743e-06 0)
(0 -1.89e-06 0)
(0 -1.89812e-06 0)
(0 -1.89088e-06 0)
(0 -1.88177e-06 0)
(0 -1.883e-06 0)
(0 -1.89167e-06 0)
(0 -1.88376e-06 0)
(0 -1.8921e-06 0)
(0 -1.88381e-06 0)
(0 -1.8921e-06 0)
(0 -1.88357e-06 0)
(0 -1.87461e-06 0)
(0 -1.87431e-06 0)
(0 -1.88335e-06 0)
(0 -1.87413e-06 0)
(0 -1.88322e-06 0)
(0 -1.87437e-06 0)
(0 -1.88337e-06 0)
(0 -1.87481e-06 0)
(0 -1.88365e-06 0)
(0 -1.87522e-06 0)
(0 -1.88412e-06 0)
(0 -1.87583e-06 0)
(0 -1.86572e-06 0)
(0 -1.86657e-06 0)
(0 -1.86429e-06 0)
(0 -1.87683e-06 0)
(0 -1.8678e-06 0)
(0 -1.87797e-06 0)
(0 -1.86893e-06 0)
(0 -1.87897e-06 0)
(0 -1.86995e-06 0)
(0 -1.85846e-06 0)
(0 -1.85954e-06 0)
(0 -1.87082e-06 0)
(0 -1.86054e-06 0)
(0 -1.87159e-06 0)
(0 -1.86137e-06 0)
(0 -1.87227e-06 0)
(0 -1.86201e-06 0)
(0 -1.84957e-06 0)
(0 -1.85019e-06 0)
(0 -1.8624e-06 0)
(0 -1.85049e-06 0)
(0 -1.86252e-06 0)
(0 -1.85045e-06 0)
(0 -1.86246e-06 0)
(0 -1.85028e-06 0)
(0 -1.83634e-06 0)
(0 -1.83612e-06 0)
(0 -1.85019e-06 0)
(0 -1.836e-06 0)
(0 -1.85048e-06 0)
(0 -1.83602e-06 0)
(0 -1.81958e-06 0)
(0 -1.81957e-06 0)
(0 -1.83628e-06 0)
(0 -1.81994e-06 0)
(0 -1.83674e-06 0)
(0 -1.82047e-06 0)
(0 -1.83738e-06 0)
(0 -1.82101e-06 0)
(0 -1.83815e-06 0)
(0 -1.82154e-06 0)
(0 -1.80205e-06 0)
(0 -1.8023e-06 0)
(0 -1.82212e-06 0)
(0 -1.80284e-06 0)
(0 -1.78036e-06 0)
(0 -1.7808e-06 0)
(0 -1.80325e-06 0)
(0 -1.78069e-06 0)
(0 -1.80318e-06 0)
(0 -1.78025e-06 0)
(0 -1.80287e-06 0)
(0 -1.77997e-06 0)
(0 -1.80164e-06 0)
(0 -1.7798e-06 0)
(0 -1.80164e-06 0)
(0 -1.77984e-06 0)
(0 -1.75399e-06 0)
(0 -1.80275e-06 0)
(0 -1.77986e-06 0)
(0 -1.80281e-06 0)
(0 -1.77957e-06 0)
(0 -1.8008e-06 0)
(0 -1.80354e-06 0)
(0 -1.77926e-06 0)
(0 -1.75281e-06 0)
(0 -1.75193e-06 0)
(0 -1.77871e-06 0)
(0 -1.75104e-06 0)
(0 -1.7781e-06 0)
(0 -1.75013e-06 0)
(0 -1.72052e-06 0)
(0 -1.71887e-06 0)
(0 -1.74932e-06 0)
(0 -1.7169e-06 0)
(0 -1.74819e-06 0)
(0 -1.71568e-06 0)
(0 -1.74711e-06 0)
(0 -1.71555e-06 0)
(0 -1.74633e-06 0)
(0 -1.71461e-06 0)
(0 -1.74578e-06 0)
(0 -1.71236e-06 0)
(0 -1.68197e-06 0)
(0 -1.74562e-06 0)
(0 -1.71115e-06 0)
(0 -1.67747e-06 0)
(0 -1.74584e-06 0)
(0 -1.70993e-06 0)
(0 -1.74545e-06 0)
(0 -1.70864e-06 0)
(0 -1.74445e-06 0)
(0 -1.70726e-06 0)
(0 -1.6672e-06 0)
(0 -1.66493e-06 0)
(0 -1.70573e-06 0)
(0 -1.66232e-06 0)
(0 -1.70383e-06 0)
(0 -1.65882e-06 0)
(0 -1.70125e-06 0)
(0 -1.6545e-06 0)
(0 -1.60664e-06 0)
(0 -1.60061e-06 0)
(0 -1.6494e-06 0)
(0 -1.59367e-06 0)
(0 -1.64303e-06 0)
(0 -1.58497e-06 0)
(0 -1.63528e-06 0)
(0 -1.57462e-06 0)
(0 -1.62724e-06 0)
(0 -1.54741e-06 0)
(0 -1.56444e-06 0)
(0 -1.61652e-06 0)
(0 -1.55095e-06 0)
(0 -1.603e-06 0)
(0 -1.82395e-06 0)
(0 -1.53345e-06 0)
(0 -1.58935e-06 0)
(0 -1.77292e-06 0)
(0 -1.82363e-06 0)
(0 -1.85231e-06 0)
(0 -1.87582e-06 0)
(0 -1.51523e-06 0)
(0 -1.57331e-06 0)
(0 -1.50435e-06 0)
(0 -1.78152e-06 0)
(0 -1.49555e-06 0)
(0 -1.56283e-06 0)
(0 -1.43105e-06 0)
(0 -1.86899e-06 0)
(0 -1.68095e-06 0)
(0 -1.89218e-06 0)
(0 -1.47042e-06 0)
(0 -1.52654e-06 0)
(0 -1.64559e-06 0)
(0 -1.43783e-06 0)
(0 -1.49581e-06 0)
(0 -1.84591e-06 0)
(0 -1.58039e-06 0)
(0 -1.54582e-06 0)
(0 -1.45932e-06 0)
(0 -1.51263e-06 0)
(0 -1.90466e-06 0)
(0 -1.41537e-06 0)
(0 -1.46939e-06 0)
(0 -1.5628e-06 0)
(0 -1.51855e-06 0)
(0 -1.41613e-06 0)
(0 -1.46573e-06 0)
(0 -1.56229e-06 0)
(0 -1.50981e-06 0)
(0 -1.60039e-06 0)
(0 -1.54761e-06 0)
(0 -1.44805e-06 0)
(0 -1.57915e-06 0)
(0 -1.60472e-06 0)
(0 -1.62432e-06 0)
(0 -1.84414e-06 0)
(0 1.1478e-06 0)
(0 1.18999e-06 0)
(0 -1.90438e-06 0)
(0 6.29533e-07 0)
(0 5.63877e-07 0)
(0 4.79101e-06 0)
(0 -1.89927e-06 0)
(0 4.92004e-06 0)
(0 3.17739e-06 0)
(0 -5.03483e-06 0)
(0 -4.95575e-06 0)
(0 -4.96998e-06 0)
(0 -4.6988e-06 0)
(0 -4.74049e-06 0)
(0 -4.44269e-06 0)
(0 -4.43798e-06 0)
(0 -4.13418e-06 0)
(0 -4.09379e-06 0)
(0 -3.80197e-06 0)
(0 -3.73218e-06 0)
(0 -3.43291e-06 0)
(0 -3.35805e-06 0)
(0 -3.07998e-06 0)
(0 -3.04844e-06 0)
(0 -2.83883e-06 0)
(0 -2.84493e-06 0)
(0 -2.73739e-06 0)
(0 -2.75026e-06 0)
(0 -2.73755e-06 0)
(0 -2.70115e-06 0)
(0 -2.74514e-06 0)
(0 -2.74706e-06 0)
(0 -2.70354e-06 0)
(0 -2.76815e-06 0)
(0 -2.76341e-06 0)
(0 -2.83708e-06 0)
(0 -2.88312e-06 0)
(0 1.97768e-06 0)
(0 1.97713e-06 0)
(0 -1.88034e-06 0)
(0 -1.26417e-06 0)
(0 -1.62953e-06 0)
(0 1.01767e-06 0)
(0 1.08738e-06 0)
(0 1.25381e-06 0)
(0 1.15809e-06 0)
(0 9.69981e-07 0)
(0 1.3182e-06 0)
(0 1.20829e-06 0)
(0 1.04656e-06 0)
(0 1.08448e-06 0)
(0 9.21009e-07 0)
(0 9.62474e-07 0)
(0 1.13106e-06 0)
(0 1.02298e-06 0)
(0 8.42547e-07 0)
(0 9.20179e-07 0)
(0 -1.74147e-06 0)
(0 4.88363e-07 0)
(0 -1.89954e-06 0)
(0 -1.88678e-06 0)
(0 -1.87298e-06 0)
(0 -1.87338e-06 0)
(0 -1.84651e-06 0)
(0 7.44149e-07 0)
(0 6.84379e-07 0)
(0 -1.83588e-06 0)
(0 -1.7556e-06 0)
(0 7.32605e-07 0)
(0 -3.50335e-06 0)
(0 -3.33554e-06 0)
(0 -2.51066e-06 0)
(0 9.44902e-07 0)
(0 8.23949e-07 0)
(0 9.01407e-07 0)
(0 7.49386e-07 0)
(0 8.31876e-07 0)
(0 6.47198e-07 0)
(0 7.33712e-07 0)
(0 5.3115e-07 0)
(0 6.13424e-07 0)
(0 4.51457e-07 0)
(0 -1.60016e-06 0)
(0 3.40801e-07 0)
(0 2.84349e-07 0)
(0 -2.95282e-06 0)
(0 -3.01045e-06 0)
(0 -2.09407e-06 0)
(0 -3.04683e-06 0)
(0 -4.17648e-06 0)
(0 -2.84866e-06 0)
(0 -1.5494e-07 0)
(0 2.47091e-07 0)
(0 1.11469e-06 0)
(0 1.02871e-06 0)
(0 -1.56573e-06 0)
(0 -2.02575e-06 0)
(0 6.20572e-07 0)
(0 1.69721e-06 0)
(0 -1.41453e-06 0)
(0 1.28122e-06 0)
(0 8.66568e-07 0)
(0 8.75177e-07 0)
(0 -5.14132e-06 0)
(0 -5.0281e-06 0)
(0 -4.73203e-06 0)
(0 -3.09563e-06 0)
(0 -3.12195e-06 0)
(0 -4.11137e-10 0)
(0 -1.8945e-06 0)
(0 1.80326e-07 0)
(0 1.20801e-07 0)
(0 3.07634e-06 0)
(0 -1.73369e-06 0)
(0 -1.37865e-06 0)
(0 9.71344e-07 0)
(0 8.96327e-08 0)
(0 3.75475e-07 0)
(0 -1.68157e-06 0)
(0 -1.22744e-07 0)
(0 1.67851e-07 0)
(0 -3.62306e-06 0)
(0 -1.09523e-06 0)
(0 -3.23674e-06 0)
(0 -3.24232e-06 0)
(0 1.63094e-05 0)
(0 3.2235e-06 0)
(0 -3.14809e-06 0)
(0 -3.28145e-06 0)
(0 -3.38427e-06 0)
(0 -3.48864e-06 0)
(0 1.63691e-05 0)
(0 1.54268e-05 0)
(0 1.53572e-05 0)
(0 1.45156e-05 0)
(0 -5.17407e-06 0)
(0 -5.01467e-06 0)
(0 8.0894e-07 0)
(0 1.00289e-06 0)
(0 1.23359e-06 0)
(0 -1.01593e-08 0)
(0 -1.07746e-07 0)
(0 6.82369e-08 0)
(0 1.45307e-05 0)
(0 1.3675e-05 0)
(0 1.36115e-05 0)
(0 1.28162e-05 0)
(0 -2.83858e-06 0)
(0 6.20636e-07 0)
(0 -1.97028e-06 0)
(0 -2.45737e-06 0)
(0 -3.414e-06 0)
(0 -3.70162e-06 0)
(0 -3.80525e-06 0)
(0 -4.08759e-06 0)
(0 -3.1908e-06 0)
(0 8.25982e-07 0)
(0 6.98277e-07 0)
(0 9.43899e-07 0)
(0 7.98292e-07 0)
(0 1.06571e-06 0)
(0 9.14389e-07 0)
(0 1.18169e-06 0)
(0 1.03025e-06 0)
(0 1.31362e-06 0)
(0 1.16325e-06 0)
(0 1.49189e-06 0)
(0 1.34667e-06 0)
(0 1.72381e-06 0)
(0 1.02178e-06 0)
(0 1.60707e-06 0)
(0 2.02253e-06 0)
(0 1.94777e-06 0)
(0 2.38335e-06 0)
(0 -1.06622e-06 0)
(0 1.28683e-05 0)
(0 1.20297e-05 0)
(0 1.1955e-05 0)
(0 1.11843e-05 0)
(0 -2.83204e-06 0)
(0 -1.79347e-06 0)
(0 -1.43305e-06 0)
(0 -3.97856e-06 0)
(0 -4.40845e-06 0)
(0 -4.54698e-06 0)
(0 -4.87728e-06 0)
(0 -5.02155e-06 0)
(0 -5.29291e-06 0)
(0 -5.08345e-06 0)
(0 -5.37929e-06 0)
(0 -5.60106e-06 0)
(0 -5.56225e-06 0)
(0 1.12359e-05 0)
(0 1.04034e-05 0)
(0 1.0368e-05 0)
(0 9.62194e-06 0)
(0 9.58202e-06 0)
(0 8.88065e-06 0)
(0 8.91102e-06 0)
(0 8.22518e-06 0)
(0 8.23428e-06 0)
(0 7.60563e-06 0)
(0 7.5988e-06 0)
(0 7.58712e-06 0)
(0 2.44465e-06 0)