/*--------------------------------*- C++ -*----------------------------------*\
| =========                 |                                                 |
| \\      /  F ield         | OpenFOAM: The Open Source CFD Toolbox           |
|  \\    /   O peration     | Version:  v2012                                 |
|   \\  /    A nd           | Website:  www.openfoam.com                      |
|    \\/     M anipulation  |                                                 |
\*---------------------------------------------------------------------------*/
FoamFile
{
    version     2.0;
    format      ascii;
    class       volVectorField;
    location    "750";
    object      U;
}
// * * * * * * * * * * * * * * * * * * * * * * * * * * * * * * * * * * * * * //

dimensions      [0 1 -1 0 0 0 0];


internalField   nonuniform List<vector> 
18758
(
(1.08441 -0.306484 -1.05208e-20)
(1.30172 0.0262799 -1.29129e-19)
(1.01517 -0.000181762 4.49549e-22)
(0.291837 -0.00826657 -3.02066e-21)
(0.252183 0.0765115 0)
(0.210917 0.0702113 0)
(-0.217626 -0.0125187 2.65417e-22)
(1.01193 -0.00517295 0)
(1.17808 0.0620329 0)
(1.0136 -0.104658 1.55118e-21)
(1.05432 -0.0407863 5.96886e-21)
(0.148228 -0.0569205 1.11393e-19)
(1.00194 -0.00033883 -1.39937e-21)
(1.12573 0.0355409 0)
(1.0482 0.0101531 0)
(0.583011 -0.487058 -8.75869e-20)
(1.10656 0.00922081 1.20667e-20)
(1.00391 -0.00716013 2.07297e-21)
(1.0375 -0.00516734 0)
(1.0225 -0.124098 0)
(0.101471 0.00821535 0)
(1.00001 -0.00043691 5.10788e-22)
(-0.0484285 -0.0324984 0)
(1.13938 0.0949916 -9.87906e-21)
(1.34821 -0.143061 -4.57784e-20)
(1.01161 -0.00499672 -8.45119e-22)
(0.773963 -0.667305 -8.6394e-23)
(0.19787 0.0789397 0)
(0.924192 0.0320095 0)
(1.05459 -0.68974 0)
(1.11246 0.0338568 0)
(0.189667 0.00713254 7.19313e-21)
(1.00033 -0.000118288 1.85854e-22)
(1.05153 -0.0124147 0)
(1.11959 0.0387734 1.27055e-20)
(0.999191 -0.00139794 6.90847e-21)
(1.00013 -0.00015986 0)
(1.03387 -0.0222884 1.30168e-21)
(1.04011 -0.0253062 5.10632e-21)
(1.11197 0.00680864 0)
(1.0347 -0.0206792 0)
(0.936544 -0.0774702 0)
(1.02159 -0.0069739 6.14071e-23)
(0.9736 -0.0913616 -1.08593e-20)
(1.17924 -0.50439 0)
(1.01311 -0.0013932 5.71032e-24)
(-0.0689474 -0.0307021 -2.83158e-20)
(1.04804 -0.0542319 0)
(1.01148 -0.102176 0)
(1.02121 -0.00519689 -5.18262e-23)
(1.22003 -0.140645 7.82637e-20)
(0.399679 0.050391 1.28782e-20)
(1.01552 -0.0016894 7.40365e-22)
(1.05288 -0.0394658 1.69491e-21)
(0.15773 0.0733125 9.3179e-22)
(1.2025 -0.234739 2.85324e-20)
(1.00017 -0.000185221 -3.01696e-21)
(0.514286 -0.326896 -2.48862e-20)
(0.992998 -0.0223683 0)
(1.12473 0.0332234 -1.67907e-20)
(1.10437 -0.263542 6.52266e-20)
(-0.203675 -0.0159537 0)
(1.16772 0.021995 1.07422e-20)
(0.968834 -0.0449772 0)
(1.01536 -0.00175737 -1.95894e-21)
(0.994017 -0.00501159 -6.65815e-21)
(1.11061 0.0108865 0)
(1.00038 -0.000157188 0)
(1.03198 -0.0202513 -4.89453e-22)
(0.384741 0.0488183 -1.96281e-20)
(0.311592 0.0458622 -6.51554e-21)
(0.970776 -0.0261975 1.22128e-20)
(1.02155 -0.00554397 1.58839e-22)
(-0.0187214 -0.0812682 1.19865e-19)
(1.01696 -0.00834744 -1.66564e-22)
(0.994634 -0.0231853 -1.18213e-20)
(1.13226 0.0608746 3.62354e-20)
(0.261079 0.0682226 5.58596e-24)
(0.896495 -0.322049 -4.40874e-20)
(-0.0831228 -0.0345971 -6.41007e-20)
(0.0222133 -0.0265271 -1.07417e-19)
(1.24081 -0.477429 5.65302e-20)
(1.12359 0.0327846 1.10852e-20)
(0.162873 0.0741389 7.97797e-22)
(1.1293 0.060727 -4.83516e-20)
(1.09327 -0.0282968 -3.27075e-21)
(0.516111 -0.191488 0)
(1.16857 0.0198411 0)
(-0.0569508 -0.033212 -9.50489e-21)
(0.995176 -0.023815 4.75443e-21)
(0.106134 0.0683334 -9.10267e-22)
(0.992631 -0.0218717 2.62115e-21)
(0.112258 -0.0714803 2.40016e-20)
(0.934087 -0.0809839 0)
(0.0236695 -0.0245152 4.43168e-20)
(0.0703669 -0.057947 -6.22229e-20)
(1.12776 0.0591424 4.36729e-20)
(1.01741 -0.00861058 0)
(1.00161 -0.0172813 6.2042e-21)
(0.119475 0.0107281 -3.62098e-23)
(1.03369 -0.12774 -2.36369e-21)
(0.0318493 0.0605 5.01174e-20)
(1.13013 0.0280133 0)
(1.11426 -0.126615 -2.16185e-20)
(0.16766 0.00426286 1.14565e-21)
(1.07024 -0.661447 1.85095e-20)
(1.01373 0.0670954 -1.04428e-20)
(0.289445 0.0729599 -2.9967e-21)
(1.04205 -0.0354684 0)
(0.964223 -0.0118291 1.58381e-21)
(0.140477 -0.0720956 0)
(0.457971 -0.639477 -2.18398e-19)
(1.0102 -0.0055535 -2.75565e-22)
(1.00844 -0.0363249 -3.12015e-21)
(0.86135 0.114512 0)
(-0.351899 0.00367805 1.53318e-20)
(-0.252197 0.0123557 0)
(1.04781 0.0110084 -4.61631e-21)
(0.0229567 -0.0428391 -4.76775e-20)
(-0.00584872 -0.0210407 0)
(1.11295 -0.053388 -3.64314e-20)
(0.987338 -0.0100303 -1.90345e-21)
(0.556225 -0.0576139 -1.18809e-19)
(0.631046 -0.630239 0)
(1.1686 -0.393879 -8.50201e-21)
(1.1785 -0.484982 4.21778e-21)
(1.32131 0.0189155 1.24601e-19)
(1.18454 0.0915335 1.23142e-20)
(0.0599765 -0.0561267 2.6497e-20)
(1.00323 -0.000128587 0)
(1.10783 0.0101488 1.4212e-20)
(0.803245 -0.64805 6.36451e-23)
(0.0702324 0.00338371 2.1574e-20)
(0.925599 -0.216235 8.31364e-21)
(0.206081 -0.680898 1.10097e-20)
(0.967947 -0.0641997 5.4821e-21)
(1.13405 0.0599051 -4.69031e-20)
(1.11373 0.0076183 0)
(1.00202 -0.017281 -1.27219e-21)
(0.778467 -0.257684 -2.17083e-20)
(0.881787 -0.317574 3.80487e-20)
(0.937924 -0.45112 1.03419e-21)
(1.00348 -0.0315608 0)
(1.05374 -0.20352 -9.90967e-20)
(1.03548 -0.020384 -9.54694e-22)
(1.03938 -0.00292565 0)
(-0.0186205 0.0126334 0)
(0.219194 0.0123072 -1.10668e-21)
(1.11151 0.0343098 0)
(0.804132 0.113574 1.2703e-20)
(1.2524 -0.464021 -5.41123e-20)
(1.1032 0.0566257 0)
(1.09315 -0.0325252 4.37174e-22)
(0.999964 -0.000427204 0)
(-0.0877696 -0.0245377 2.48785e-20)
(1.08377 -0.0460677 -1.10367e-20)
(-0.00977457 -0.0419023 1.51782e-19)
(1.04729 -0.0560648 0)
(0.990251 -0.0373193 -8.15622e-21)
(0.999998 -0.0001453 -4.68452e-21)
(1.01052 -0.0133002 0)
(1.12153 0.0328769 -5.91572e-21)
(0.159086 -0.100023 0)
(0.991497 -0.0371033 -7.01817e-21)
(1.10583 -0.258708 -6.42229e-22)
(0.84039 0.0386493 3.27379e-20)
(1.03875 -0.00693871 4.22608e-21)
(0.467193 -0.0740266 0)
(1.20693 -0.256242 3.35592e-21)
(0.262094 0.0802527 5.77054e-20)
(-0.243752 0.00226375 -1.10159e-20)
(1.00383 -0.00732941 -2.52257e-21)
(0.170586 -0.0916841 -1.00019e-19)
(0.211116 0.077957 2.73315e-20)
(1.12094 0.0332105 -2.45834e-20)
(1.13584 0.0914478 1.84532e-20)
(0.779911 0.0737145 5.48328e-20)
(0.967799 -0.0465672 -1.01816e-20)
(0.79345 -0.255234 0)
(1.03051 -0.031413 0)
(1.00862 -0.00517048 -2.30819e-21)
(-0.273647 -0.000776122 0)
(1.1052 0.0579291 0)
(1.02619 -0.00504819 -1.5457e-21)
(1.06983 2.60757e-05 3.99814e-21)
(1.10356 0.0606156 0)
(0.996869 -0.0181622 -1.13507e-20)
(-0.336863 0.00495969 0)
(1.02044 -0.00611863 -1.74932e-22)
(0.994907 -0.0160432 -8.1223e-21)
(0.931614 -0.220531 -1.76847e-20)
(1.18643 0.0879558 2.2812e-20)
(1.01035 -0.0484153 4.4195e-21)
(1.11073 0.0336053 0)
(0.970636 -0.149907 -7.09558e-21)
(1.1724 0.0191061 -4.96637e-20)
(1.02572 -0.126702 0)
(1.21652 -0.25617 2.5519e-20)
(1.00051 -0.00209549 -8.30353e-21)
(1.0213 -0.00658658 4.15373e-23)
(0.747369 -0.207066 -5.84663e-20)
(1.04522 -0.0560704 0)
(1.06854 -0.129707 3.60221e-21)
(1.16278 0.000130092 0)
(1.00196 -0.00051201 1.53076e-21)
(0.972683 -0.146124 1.32232e-20)
(1.13461 0.0278508 0)
(0.99997 -0.000335099 0)
(0.116615 0.00827304 -4.71326e-21)
(1.00741 -0.103042 2.1673e-21)
(1.0043 -0.00716142 0)
(1.11846 -0.129744 0)
(0.992628 -0.0395733 1.50215e-20)
(1.07687 -0.119026 0)
(0.856435 -0.287715 -5.08882e-21)
(0.035017 -0.0341784 -9.39069e-20)
(0.853621 -0.300017 3.25277e-21)
(0.528418 -0.432136 -4.98092e-20)
(1.01548 -0.00464038 -1.6163e-24)
(0.237749 0.0691885 5.13806e-20)
(1.00419 -0.00732391 0)
(1.04169 -0.0368251 1.27524e-21)
(1.12165 0.0506989 0)
(-0.00129592 0.0154854 0)
(1.2625 -0.171113 0)
(1.13291 0.0272399 -1.38925e-20)
(1.15247 -0.0556352 2.54025e-20)
(0.978839 -0.209679 0)
(1.0255 -0.00263324 -4.17235e-22)
(1.16704 -0.00407799 1.95696e-20)
(0.993699 -0.00514814 0)
(1.17347 0.0166233 4.46919e-20)
(-0.0727346 -0.0301798 0)
(1.12514 0.0596411 -1.16458e-20)
(1.00176 -0.000256759 0)
(0.996712 -0.0175122 0)
(1.02531 -0.00289146 -3.31425e-22)
(1.01259 -0.0016765 0)
(0.635859 -0.0737156 1.54609e-19)
(1.09351 -0.0970604 0)
(1.00844 -0.0128511 1.92544e-22)
(1.27509 -0.279791 -1.28197e-19)
(0.989559 0.0663181 0)
(1.05407 -0.023172 0)
(0.8535 0.119227 0)
(0.00293377 -0.0283487 -9.86872e-20)
(1.12409 0.0580031 5.60855e-21)
(0.999297 -0.00120426 0)
(0.0212871 -0.0246023 8.83802e-20)
(0.894541 -0.0760038 -3.65794e-20)
(0.998985 -0.00203555 0)
(0.412432 -0.0634014 7.73091e-20)
(1.09441 -0.0269918 -4.35808e-21)
(0.894306 -0.081786 0)
(1.04506 0.00491642 4.39956e-21)
(1.11977 -0.0569787 -3.58096e-20)
(1.12287 0.0774581 0)
(0.490339 -0.423868 -6.52453e-20)
(1.07297 -0.117905 9.47203e-21)
(0.923314 -0.31585 0)
(1.0289 0.00222764 0)
(1.13066 0.0198577 2.12396e-20)
(0.999227 -0.00790043 8.22061e-21)
(1.15995 0.000682584 -8.96469e-21)
(1.00549 -0.10014 0)
(1.12038 0.0497742 2.2583e-20)
(-0.356797 -0.00910486 -1.75003e-20)
(1.01521 -0.0045036 1.16982e-21)
(1.0414 -0.0331685 6.39671e-21)
(1.02555 -0.474573 0)
(1.04034 -0.0322457 1.49578e-21)
(1.0687 -0.000594889 6.41913e-21)
(1.16357 -0.00362824 -3.77123e-20)
(0.687589 0.00368011 -1.05778e-19)
(-0.266492 0.00875812 5.85231e-21)
(1.00167 -0.0304266 -8.48833e-21)
(1.21095 -0.127258 -1.14927e-19)
(0.146564 0.0656346 -3.29387e-20)
(1.21959 -0.476305 6.08696e-21)
(1.00795 -0.052988 5.44161e-21)
(1.02983 -0.00830925 -7.38865e-22)
(1.07562 -0.074112 -6.80913e-21)
(1.09591 -0.0950666 -3.32469e-20)
(1.0033 -0.0308232 -4.21765e-21)
(0.125611 0.0638823 -2.21344e-20)
(1.26534 -0.272454 -1.56517e-19)
(0.761907 0.0152986 6.71587e-21)
(0.0364615 0.00198871 -2.3909e-20)
(-0.0485523 -0.0336034 2.07881e-20)
(1.02457 -0.00480319 0)
(1.01525 -0.000156565 1.07464e-22)
(0.982965 -0.226773 -2.90362e-21)
(0.0945307 -0.0367749 -2.40744e-21)
(0.92079 -0.0428302 0)
(0.908781 -0.312018 1.16051e-20)
(1.19057 -0.00923559 -4.22597e-20)
(1.07024 -0.0801833 -5.63645e-21)
(-0.00956442 -0.0245045 -3.3011e-21)
(1.03667 -0.00543322 0)
(1.04638 0.0179912 -6.05966e-21)
(0.189146 0.0741588 0)
(1.0129 -0.00144283 -1.12158e-21)
(0.403536 0.0282413 0)
(0.95814 -0.16794 0)
(1.03285 -0.020639 1.69911e-21)
(1.06528 -0.110798 1.13722e-20)
(1.18531 -0.0521451 0)
(1.05074 0.00188216 0)
(0.99907 -0.00185388 -1.22228e-22)
(-0.262916 -0.01304 0)
(0.812728 0.0184001 0)
(1.00149 -0.0127621 4.58268e-21)
(-0.265737 -0.00789913 1.55008e-19)
(-0.00739564 -0.0232153 -1.42447e-19)
(1.25663 -0.166825 0)
(0.997858 -0.00821948 0)
(1.00204 -7.06272e-05 -1.31716e-21)
(1.06576 0.0250178 -7.81974e-21)
(1.05311 -0.0239558 6.37443e-21)
(1.02559 -0.00506568 1.03596e-21)
(1.03039 -0.00984699 0)
(0.946243 -0.0143653 2.0801e-20)
(1.20362 -0.264963 5.14553e-20)
(1.18905 -0.0545804 0)
(1.07369 -0.0753919 -1.22868e-20)
(1.08976 -0.0958922 5.83802e-21)
(1.01831 -0.126047 -2.09473e-22)
(0.940717 -0.221555 1.93692e-20)
(1.02851 0.0018111 -1.45352e-21)
(0.999987 -0.000288589 0)
(1.17835 0.092046 -6.14827e-20)
(1.06673 -0.206344 0)
(1.21759 -0.127355 7.82591e-20)
(0.27484 -0.0121041 -6.50306e-21)
(0.917493 -0.0449473 2.57377e-20)
(1.01103 -0.0469907 0)
(1.00519 -0.000154219 -1.05369e-21)
(1.03964 0.0176527 1.27242e-20)
(0.438347 0.0307786 -1.06722e-23)
(1.02576 -0.0033568 0)
(1.0047 -0.00715926 8.07627e-21)
(1.02553 -0.00363375 0)
(0.967505 -0.0621016 5.40112e-21)
(0.976229 -0.202073 1.87384e-21)
(1.33185 -0.140007 9.02802e-20)
(0.987914 -0.00979645 0)
(0.968342 -0.0115217 -1.12309e-20)
(1.0221 -0.00457617 -1.04502e-23)
(0.595657 -0.533795 -1.71043e-20)
(0.939578 -0.4397 2.10169e-21)
(1.22087 -0.0015154 1.56173e-22)
(1.12682 -0.308736 0)
(1.0535 -0.00633512 0)
(1.19441 0.08459 0)
(1.07312 -0.305055 -1.48747e-20)
(1.10502 -0.077695 -1.2199e-20)
(0.887625 -0.0905479 2.10063e-20)
(0.103151 -0.0515418 0)
(0.0482095 0.0131018 0)
(1.10375 0.0618913 -2.06748e-20)
(1.00185 -0.00243896 -8.52892e-21)
(1.02842 -0.135007 0)
(1.28661 -0.0452607 3.61238e-21)
(0.622795 0.0112802 1.27453e-19)
(1.01848 -0.0827345 -1.41593e-21)
(1.02445 -0.00520504 -1.04645e-21)
(1.14838 -0.0296665 0)
(1.03763 -0.0105185 3.99978e-21)
(1.09368 -0.0180682 8.34535e-21)
(1.20133 0.0356549 -5.22243e-20)
(0.112225 -0.0235455 -1.45539e-20)
(1.11781 0.037035 0)
(1.01506 -0.123039 -2.17078e-21)
(-0.341384 -0.00970869 6.06301e-20)
(0.988134 -0.0234853 -1.14687e-20)
(1.04448 -0.0577815 1.3959e-21)
(1.00212 -0.0235367 -1.93432e-21)
(1.04016 -0.0264295 -2.28778e-21)
(1.11997 0.0364416 2.41388e-20)
(1.05894 -0.0415848 5.25671e-21)
(-0.251056 -0.0120411 -1.83189e-19)
(0.896478 -0.459611 1.45311e-21)
(1.04442 0.00446642 -2.48653e-21)
(1.00132 -0.0123869 -1.31962e-20)
(-0.274066 0.0135962 0)
(1.11766 0.0371078 0)
(1.17436 0.0620713 -4.45678e-20)
(0.987875 -0.022777 1.27484e-20)
(1.10738 0.029176 1.11632e-20)
(1.02913 -0.00837566 6.46995e-22)
(0.936771 -0.0700656 -8.44106e-21)
(0.987244 -0.0104713 -4.76387e-21)
(1.01488 -0.00464642 -1.53476e-21)
(-0.190241 0.012892 7.14654e-20)
(0.125327 0.00802494 0)
(1.0145 -0.75048 -3.97808e-20)
(0.363194 -0.138709 9.16267e-20)
(1.00538 -0.000429543 0)
(1.14399 0.0605081 0)
(0.202026 0.0215773 1.29441e-20)
(1.12168 -0.0589503 -1.88038e-20)
(1.01046 -0.00582099 1.23934e-21)
(0.288198 -0.021362 5.33391e-21)
(1.02865 -0.0123733 -1.29774e-21)
(1.04034 -0.00102631 4.86929e-21)
(1.00883 -0.00549004 0)
(1.11992 0.0370354 -1.49594e-20)
(0.990207 -0.0116273 6.83204e-22)
(0.970067 -0.0901512 0)
(1.12356 -0.298766 0)
(0.575478 -0.047961 6.64194e-20)
(1.02995 -0.00948198 -4.42966e-22)
(0.236466 0.0737608 0)
(1.12392 -0.00774336 -8.88515e-21)
(0.998065 -0.00806175 0)
(1.07476 -0.00924468 8.5903e-21)
(0.991339 -0.0234074 -1.09384e-20)
(1.0046 -0.00733672 -4.32332e-21)
(1.06822 -0.0779715 -5.35033e-21)
(1.13115 0.0148985 3.98411e-20)
(0.947353 -0.217718 1.2125e-20)
(0.106598 0.046518 1.17877e-19)
(1.11592 -0.0534855 8.19709e-23)
(0.99623 -0.00503982 -6.27837e-21)
(1.00682 -0.46607 0)
(0.706903 0.0602963 -1.2722e-20)
(0.533968 0.0134432 0)
(-0.256485 0.00287898 -9.04933e-20)
(1.11834 0.0363841 0)
(1.00539 -0.0515775 -1.36439e-20)
(1.01462 -0.00449724 0)
(1.00827 -0.0124458 3.13801e-22)
(0.991697 -0.04045 2.3262e-22)
(1.11802 0.0373398 -2.77546e-20)
(1.11243 0.000601257 0)
(1.09037 0.0108629 4.70503e-22)
(0.958531 -0.161392 1.23851e-20)
(1.09442 -0.0310487 -1.50433e-20)
(1.10312 0.0451273 -9.03908e-21)
(1.13163 0.0285406 7.89893e-21)
(0.991308 -0.022481 6.96526e-21)
(1.0873 -0.0938276 -4.41984e-21)
(-0.0598681 -0.0365796 5.79877e-20)
(0.987479 -0.0550197 5.53782e-21)
(0.119386 -0.0315177 6.62901e-21)
(1.00324 -9.65639e-05 0)
(0.996699 -0.000756298 -7.42704e-21)
(0.231446 0.0299377 8.73408e-21)
(0.946364 -0.0988599 1.08024e-20)
(1.0424 -0.0292211 1.70662e-21)
(1.12057 0.0748507 0)
(1.1201 0.0392298 0)
(0.98734 -0.221863 -2.73266e-21)
(0.0535292 -0.061596 2.75334e-20)
(0.993958 -0.0232729 2.37451e-22)
(0.985856 -0.0503839 1.81061e-20)
(0.535416 -0.47963 1.42902e-20)
(0.0964721 -0.0492608 -1.26818e-19)
(0.865169 -0.120485 0)
(1.15175 -0.159711 3.32432e-20)
(1.12711 0.0350475 0)
(1.10183 0.044574 0)
(-0.324162 0.00452517 -5.71705e-20)
(1.12487 0.034612 0)
(0.970216 -0.0247685 7.5628e-22)
(1.22397 -0.0570691 0)
(1.00743 -0.0366534 4.3851e-22)
(1.11832 0.0372306 9.75674e-21)
(1.03815 -0.0507724 -1.32098e-21)
(0.107254 -0.0654765 0)
(1.10628 0.0295363 -1.43821e-20)
(1.33216 -0.0500148 -5.2273e-20)
(1.09009 0.00993327 1.33568e-23)
(1.11389 0.0356791 7.80178e-21)
(1.01282 -0.00165738 -6.16538e-22)
(1.14266 0.0952161 2.30186e-20)
(1.02129 -0.00587357 5.44702e-24)
(0.0366798 0.00993123 0)
(1.00181 -0.0241379 -1.99659e-21)
(1.13086 -0.394109 1.47035e-20)
(0.999178 -0.00668875 0)
(1.00615 0.023493 6.37215e-21)
(1.0956 -0.0174853 -1.8058e-20)
(0.999791 -0.00553904 0)
(1.0013 -0.0166712 0)
(1.00918 -0.00550856 0)
(0.842366 0.0543163 0)
(-0.0587138 0.0115542 1.77717e-20)
(0.88942 0.113989 2.37502e-20)
(1.10865 0.0132453 -9.18535e-21)
(1.06638 -0.000179183 6.86271e-21)
(1.18694 -0.0469441 0)
(1.00001 -0.000358806 0)
(1 -6.85874e-05 0)
(0.394634 0.0530705 1.09359e-20)
(1.00089 -0.016771 0)
(0.995999 -0.00218854 0)
(1.19452 -0.0111548 4.95452e-20)
(1.00196 -0.00238405 7.95705e-21)
(1.1459 -0.160993 1.7907e-20)
(1.18388 -0.0442022 0)
(0.995805 -0.00202792 2.8299e-21)
(0.990394 -0.0122829 2.54646e-21)
(0.933065 -0.089424 0)
(0.987356 -0.0531986 -1.01199e-20)
(1.08605 -0.0469121 0)
(0.860677 0.112718 -1.07198e-20)
(1.07622 0.0302707 0)
(0.872903 -0.120668 -2.34834e-20)
(1.04399 -0.0856558 -3.3766e-21)
(0.996402 -0.00483473 6.39004e-21)
(0.386764 -0.721851 -2.92534e-21)
(0.965037 -0.0165346 1.03574e-20)
(1.03976 -0.0381688 2.67691e-21)
(0.834279 -0.748941 1.40166e-20)
(-0.338025 0.00358083 0)
(1.11317 0.0353104 1.55583e-20)
(1.03259 0.0306358 0)
(1.01754 -0.0848105 -2.57881e-21)
(1.04007 -0.0371174 -3.22281e-21)
(-0.312423 0.00688462 -2.12639e-20)
(1.03807 -0.00643112 -5.81179e-21)
(-0.22138 0.0125871 1.20677e-20)
(1.11844 -0.387064 1.04038e-20)
(0.999526 -0.00579259 0)
(0.820684 0.115085 -2.84711e-21)
(1.19252 0.0884379 0)
(1.14921 -0.0265349 0)
(1.00829 -0.000467952 0)
(1.06609 -0.199592 -1.53274e-20)
(0.430405 0.0415443 -1.36536e-20)
(1.03469 -0.0219213 0)
(1.02943 -0.0190194 -1.28076e-21)
(1.0493 0.0101059 2.76834e-21)
(1.05054 0.00107978 0)
(1.03996 -0.00321342 -4.07599e-22)
(1.01179 -0.000820926 -1.05616e-21)
(1 -2.88782e-05 0)
(0.695356 -0.0562286 9.32319e-20)
(1.07105 -0.0344601 -1.31839e-20)
(0.833766 0.0407131 -7.16498e-20)
(0.987206 -0.00803145 -5.99704e-21)
(1.23337 -0.0633382 0)
(1.25331 0.0280652 2.595e-20)
(0.999151 -0.00768034 -9.32659e-21)
(1.02073 -0.00653195 1.25363e-22)
(1.06876 -0.0383553 -1.44091e-20)
(1.00073 -0.00240631 -9.43473e-21)
(1.00873 -0.0543954 1.37671e-21)
(0.950703 -0.0375458 0)
(1.02938 -0.0317265 0)
(1.16093 0.0239179 1.06164e-20)
(0.629999 -0.547038 1.94678e-20)
(1.01716 -0.00216433 -5.44415e-22)
(0.421411 0.0444628 -2.3202e-21)
(0.107031 0.0618201 -2.57822e-20)
(0.86222 -0.105115 0)
(1.22255 -0.0532232 0)
(0.960752 -0.749689 2.5905e-20)
(0.934223 -0.0727916 0)
(1.07489 0.029428 -8.28832e-21)
(1.08754 -0.0298679 -1.34909e-20)
(0.319315 0.0497958 7.83983e-21)
(1.06941 -0.0349807 1.41083e-20)
(1.10318 0.023884 -2.58048e-20)
(1.00491 -0.0340542 -7.62715e-21)
(0.0546184 0.0294982 -1.84308e-21)
(1.11986 -0.0240387 0)
(0.962909 -0.425228 0)
(1.14144 0.0425905 2.09974e-20)
(-0.209402 -0.0126503 -5.18489e-21)
(1.06815 -0.0372746 1.97604e-20)
(0.998825 -0.0264754 -4.29216e-21)
(1.15204 -0.0484667 2.73015e-20)
(1.33966 -0.157089 -2.33467e-20)
(1.00616 -0.053143 3.2682e-22)
(1.16263 -0.382154 6.9041e-20)
(0.977046 -0.0295683 -1.59837e-20)
(0.918819 0.0691823 -1.25912e-20)
(1.01153 -0.0557818 0)
(1.02859 -0.0142342 1.05695e-21)
(1.0094 -0.00580892 1.03246e-21)
(1.00186 -0.00181438 0)
(0.136297 0.0627617 0)
(0.891169 0.0683238 1.50599e-21)
(0.986517 -0.0224504 -3.38356e-21)
(1.11593 0.0272214 -5.46374e-23)
(0.95094 -0.121685 5.61631e-21)
(0.491586 0.0124469 1.83023e-20)
(-0.040643 0.0162732 0)
(1.08475 0.0231626 0)
(1.30669 0.0351339 2.3718e-20)
(1.03518 0.0029144 -1.52122e-21)
(0.247633 0.0842324 0)
(1.10975 0.03404 6.89525e-21)
(1.01433 -0.0331761 -1.01498e-21)
(1.11244 0.0106482 -7.67248e-21)
(0.373603 0.0496268 -6.36077e-21)
(0.212666 0.0348725 0)
(1.05108 -0.0134892 -4.91703e-21)
(0.955081 -0.00846885 6.7234e-22)
(1.01115 -0.0347878 -2.39999e-21)
(1.0149 -0.000353755 3.91942e-23)
(0.212825 0.00750552 1.56901e-20)
(1.15656 0.0262622 0)
(0.1811 0.0747912 -3.25121e-20)
(0.179861 0.0176016 1.35665e-20)
(0.98126 -0.0196971 0)
(1.0006 -0.00225556 6.62372e-21)
(1.13784 -0.00770109 2.43443e-20)
(1.00001 -0.000301544 1.41441e-21)
(1.01034 -0.0128809 -2.31064e-21)
(0.95115 -0.0359224 -1.22027e-20)
(1.04895 0.00720277 3.47511e-21)
(1.16409 0.0245931 -1.11134e-20)
(1.1177 -0.0231985 7.14292e-21)
(1.21518 -0.239285 4.79284e-20)
(0.305766 0.0714577 9.31767e-21)
(1.15348 -0.151685 -2.74178e-20)
(0.999174 -0.00641844 3.61729e-21)
(0.947781 -0.0952842 1.03168e-20)
(1.20233 -0.152637 3.80017e-20)
(0.366697 0.059837 -8.0294e-22)
(1.10177 0.0232204 0)
(1.25765 -0.378079 -1.30719e-19)
(1.143 -0.0529928 2.21923e-20)
(0.985769 -0.0229746 0)
(1.11567 0.0284263 0)
(0.717362 0.0333942 0)
(1.01123 -0.049707 -2.11421e-21)
(1.02621 -0.00414352 -9.17256e-22)
(0.645368 -0.281094 6.26404e-20)
(0.0821075 0.0672635 0)
(1.2202 -0.249454 0)
(1.00197 -0.0017635 -6.59198e-22)
(0.0303271 0.0105171 -2.82297e-20)
(0.0496906 0.00203474 1.08575e-20)
(1.34254 -0.16357 -1.21256e-20)
(1.0214 -0.00487916 0)
(-0.153398 -0.0192003 0)
(-0.258606 -0.0103093 0)
(0.463041 -0.185379 -8.59362e-20)
(1.05936 -0.0399369 -6.01014e-21)
(0.999365 0.000534393 -9.88589e-21)
(0.869705 0.104482 -4.37024e-20)
(1 -1.73576e-05 -1.40975e-20)
(1.11476 0.0394504 7.75899e-21)
(-0.197227 0.0186893 -5.28422e-20)
(1.23212 0.00726018 -4.877e-20)
(-0.196204 -0.0151734 0)
(1.12638 0.0297727 -6.55231e-21)
(0.129335 0.0179785 -9.88714e-21)
(1.13334 0.014832 -2.7422e-20)
(0.989231 -0.0335095 -5.24732e-23)
(0.956096 -0.00743632 -4.24601e-21)
(-0.313218 0.000198211 0)
(0.411548 -0.0136731 -5.15676e-21)
(-0.27569 -0.00963243 -8.94787e-21)
(0.145097 -0.0179006 0)
(1.03822 -0.00568454 0)
(1.11526 0.0401722 1.73097e-20)
(1.00001 -0.000283902 0)
(1.15536 -0.0583686 -3.08876e-20)
(1.12071 0.0325121 3.6676e-20)
(1.21393 -0.143888 -6.90256e-20)
(0.999609 -0.00559499 -3.04649e-21)
(0.967158 -0.0803609 3.02007e-20)
(1.14318 0.0573406 1.38266e-20)
(0.396555 0.0417623 -1.32763e-21)
(-0.297574 -0.000213663 0)
(-0.30206 -0.00612491 1.07818e-20)
(1.10797 -0.0790485 1.53672e-20)
(1.03761 -0.127345 -1.4398e-22)
(1.12163 0.0581012 -2.16417e-20)
(0.967013 -0.0122028 0)
(1.02803 -0.00786645 0)
(0.996524 -0.0119361 3.25425e-21)
(1.06417 0.0143331 1.1853e-20)
(1.11318 0.0343332 -3.48613e-20)
(0.995769 -0.00515912 3.63993e-21)
(1.12026 0.0314858 0)
(1.00709 -0.012034 -1.34191e-21)
(1.00287 -0.000201722 0)
(1.00511 -0.00713027 4.80292e-21)
(0.240468 0.0764011 -2.51295e-20)
(0.964045 -0.0136015 -6.91196e-21)
(1.00001 -0.000262675 -6.06471e-21)
(1.13538 -0.00941777 0)
(1.13895 -0.0278994 1.00988e-20)
(1.01735 -0.00231408 3.34142e-22)
(-0.203029 0.00916434 -1.10796e-19)
(1.03811 -0.0100801 2.57592e-21)
(1.03016 0.00159452 1.12075e-21)
(1.14802 -0.0721643 0)
(0.883176 -0.130843 -2.57378e-20)
(1.06749 0.000364657 -7.87673e-21)
(1.02581 -0.0537083 3.092e-22)
(1.28816 -0.378717 1.26287e-19)
(0.860516 -0.110661 0)
(1.06344 -0.120699 7.10057e-22)
(0.74844 0.0324522 -1.92329e-21)
(1.06691 -0.119462 -6.76573e-21)
(0.332286 -0.0214374 -4.41298e-21)
(0.907012 -0.0188562 7.40894e-22)
(1.15928 0.0268768 0)
(0.477186 -0.234228 5.49619e-20)
(0.193937 0.0041982 -1.60885e-20)
(1.02571 -0.00404053 0)
(0.333036 0.0465409 0)
(1.1635 0.0959774 5.13943e-21)
(1.01229 -0.00396694 1.73723e-21)
(0.0481506 0.0241719 1.93307e-20)
(0.997938 -0.00573076 0)
(1.00555 -0.00709794 0)
(1.11597 -0.0323121 0)
(1.00377 -0.00683289 0)
(1.13805 -0.248479 0)
(0.348667 0.0566273 -8.17427e-22)
(1.02072 -0.00580422 0)
(0.185099 -0.11805 0)
(1.03456 0.002762 -4.05071e-21)
(1.11185 -0.0505334 1.94916e-20)
(0.422292 -0.0186635 4.6257e-21)
(1.01714 -0.00181277 3.58754e-22)
(0.0739989 0.0701625 2.79254e-20)
(1.01269 -0.0681687 6.87208e-21)
(1.0376 -0.0136056 -1.16706e-21)
(0.997155 -0.0163847 6.43514e-21)
(0.996236 -0.0121841 -2.06426e-21)
(1.22461 0.0248757 0)
(0.733062 -0.198573 5.52352e-20)
(-0.324613 0.00452813 1.08123e-19)
(1.15885 -0.150724 -1.07315e-20)
(0.142793 0.0661241 3.44418e-20)
(1.14022 -0.0120047 0)
(0.995956 -0.00497075 -6.2036e-21)
(1.13876 0.0602295 6.55487e-21)
(-0.287426 -0.0100433 4.26514e-20)
(1.30449 0.0424504 -2.56458e-20)
(0.747571 -0.222362 0)
(1.21747 0.00211377 -2.12496e-20)
(1.1087 0.035579 -1.8022e-20)
(1.06774 -0.0617118 8.51566e-21)
(1.22933 0.0200766 0)
(1.02332 -0.0516596 6.71157e-22)
(1.24963 -0.4539 5.77126e-20)
(1.00207 -0.00111118 2.00985e-21)
(-0.142311 -0.0252857 9.26075e-21)
(1.05258 -0.0120228 0)
(0.764661 -0.230708 0)
(0.928516 -0.0883893 2.61614e-20)
(1.04009 -0.028982 0)
(1.04115 0.032793 -5.26057e-20)
(0.954834 -0.00542555 0)
(1.00966 -0.0123262 -2.91345e-21)
(1.3468 -0.0606426 0)
(1.01065 -0.0686925 -9.08116e-21)
(1.00501 -0.00732446 0)
(1.11413 0.00159106 2.76132e-22)
(1.1874 -0.063539 5.61092e-21)
(1.22576 0.0284951 -3.02715e-20)
(1.34684 -0.150846 2.64282e-20)
(0.989179 0.0349958 1.65038e-20)
(-0.212782 0.0240832 0)
(1.00066 -0.00227449 0)
(0.999471 0.000548738 -3.95556e-21)
(0.0375339 0.0134731 1.33582e-20)
(0.995259 -0.00814439 0)
(1.26311 -0.301124 0)
(1.12674 0.0312514 7.00013e-21)
(1.05597 -0.0403068 -5.73158e-21)
(0.995905 -0.00169206 1.00218e-20)
(1.06134 -0.11111 -7.31174e-21)
(0.990505 -0.000441604 0)
(1.03663 -0.0134525 -2.01096e-21)
(1.08677 -0.00607414 1.44652e-20)
(1.26061 -0.292135 1.0991e-20)
(1.21953 -0.234816 -3.03988e-20)
(0.645442 -0.298833 -7.1942e-20)
(1.12472 -0.173128 8.51573e-21)
(1.00047 -0.00328515 5.09772e-21)
(1.11632 0.0223257 -2.07375e-20)
(0.812072 0.0801226 -6.29678e-20)
(1.00664 -0.0113993 0)
(1.12016 0.0331368 -6.09034e-21)
(1.06203 -0.0275757 1.71465e-20)
(0.347998 0.0544089 -1.03884e-20)
(0.954338 -0.0401173 0)
(-0.0186605 -0.0287204 1.51361e-19)
(1.00216 -0.000988284 -1.98418e-22)
(1.17817 0.0973077 0)
(1.00001 -0.000196427 4.722e-21)
(1.13415 0.0236449 0)
(1.0138 -0.033839 -2.81399e-21)
(1.06304 0.0136493 1.10443e-20)
(1.07408 0.0267729 0)
(1.01732 -0.00196427 -2.66297e-22)
(1.0296 0.00164178 0)
(1.01666 -0.00320278 0)
(0.812266 0.0560637 -7.60231e-21)
(-0.13521 -0.00116755 2.94352e-20)
(1.09427 0.00240755 -1.66025e-20)
(0.123201 0.0758785 5.5689e-20)
(0.984841 -0.0223797 -2.04949e-21)
(1.11067 0.00166508 -1.37908e-20)
(1.08353 -0.0438508 -5.2337e-21)
(1.16232 0.0674781 4.02958e-20)
(-0.0674899 -0.0360318 6.98617e-20)
(1.09438 0.00382346 1.83464e-20)
(1.01946 -0.00226225 1.6845e-23)
(0.980883 -0.429511 0)
(1.00701 -0.0116643 0)
(0.984525 -0.0216533 1.78315e-21)
(1.08466 -0.0396174 -1.26442e-20)
(-0.300084 0.0103257 0)
(0.632074 -0.0310222 0)
(1.27955 0.0516577 -1.26917e-21)
(1.07277 0.0268844 -3.73451e-21)
(0.719414 -0.199615 0)
(0.948271 -0.0157363 -1.18132e-20)
(1.0055 -0.0261132 0)
(1.26973 -0.445123 -5.55413e-20)
(1.00544 -0.00729555 3.02196e-21)
(1.33446 -0.00873224 -7.08227e-20)
(1.08456 -0.027714 6.17494e-21)
(0.999204 0.000151469 -3.66859e-21)
(0.445941 0.0815313 0)
(0.372145 0.0748965 -7.55481e-20)
(0.996986 -0.000681997 0)
(-0.312192 0.0045171 -1.11762e-19)
(1.04443 -0.0881173 3.74039e-21)
(1.12292 0.0488764 1.90891e-20)
(0.926373 -0.331491 7.76179e-21)
(1.03302 0.0294135 8.79861e-21)
(0.333358 0.075418 8.44075e-21)
(1.25389 -0.350033 0)
(1.00277 -0.000734755 0)
(1.01513 -3.49577e-05 0)
(0.320068 0.0689717 -2.39956e-20)
(1.0013 -0.0311852 8.23991e-21)
(1.0312 -0.0209079 -2.12258e-21)
(1.08667 -0.0278918 6.78755e-21)
(0.999766 -0.0317945 0)
(0.813442 0.0433386 0)
(1.11505 0.0308514 -6.42449e-21)
(1.1403 -0.00885807 -2.50137e-20)
(-0.00979185 0.0395459 0)
(1.12615 -0.00899622 8.80389e-21)
(1.11977 0.0381705 -2.38801e-20)
(1.06137 -0.0267652 -1.08566e-20)
(1.00291 -0.00436367 2.02087e-21)
(1.0152 -0.00135681 0)
(1.00974 -0.00700096 0)
(-0.284266 0.010244 -5.02198e-20)
(0.204534 0.00784952 -6.97267e-22)
(1.12345 0.0240854 0)
(0.9957 -0.00150801 -1.40863e-20)
(1.01922 -0.00206966 1.08534e-22)
(1.07527 0.0275194 0)
(1.01574 -0.0228733 0)
(1.11763 -0.0345948 1.6077e-20)
(0.969896 -0.0856248 1.79418e-20)
(1.21478 -0.492225 0)
(0.428057 0.0583546 -3.58226e-22)
(1.12092 0.0307331 -2.30826e-20)
(1.11729 0.0557082 -1.18479e-20)
(1.12231 0.0237176 0)
(1.03026 -0.0194649 -2.05303e-22)
(1.22837 0.0160335 0)
(1.00589 -0.0266413 0)
(-0.0612881 -0.0360545 0)
(1.16828 0.0947405 2.07764e-20)
(-0.00971208 -0.0376823 7.68458e-20)
(1.02658 0.0943079 -2.25392e-20)
(1.04987 0.00698024 1.65593e-21)
(1.08716 -0.00447081 -1.88628e-20)
(1.14899 -0.6606 7.2197e-20)
(-0.0184706 0.035392 0)
(0.0187665 -0.0408368 -7.14311e-20)
(0.788146 -0.100081 0)
(1.20819 -0.155886 0)
(-0.279228 0.0115421 -1.38245e-19)
(1.00185 -0.00212368 -8.10464e-21)
(1.12074 0.0567814 2.21622e-20)
(0.573954 -0.625074 -2.52185e-20)
(1.11859 0.0374164 -1.22932e-21)
(1.00195 -0.00205736 6.40454e-21)
(1.03297 -0.0217876 -1.22528e-21)
(1.11738 -0.0205618 7.65579e-21)
(0.159162 0.0182717 8.03152e-21)
(0.33974 -0.656135 4.17923e-20)
(1.0142 -0.312775 0)
(0.988312 -0.00665808 0)
(1.06207 0.0116279 -5.69782e-21)
(0.889088 -0.0554527 4.93507e-20)
(0.169796 -0.19385 0)
(1.03911 -0.0282461 0)
(1.23862 -0.317121 1.03862e-20)
(1.0038 -0.0142546 0)
(0.985611 -0.0520787 1.31077e-20)
(1.25019 -0.060829 0)
(1.00655 -0.0110647 -3.01464e-21)
(0.998445 -0.00816289 5.38524e-21)
(1.03921 -0.0518113 -2.05628e-21)
(1.00157 -0.100789 0)
(1.00322 -0.00431589 -1.94155e-21)
(1.0238 -0.0508291 3.09158e-22)
(1.02195 -0.0049099 -3.41416e-22)
(1.01462 0.0341173 -1.97129e-20)
(1.14238 0.0210248 -5.00418e-21)
(0.238384 0.0144748 1.8051e-20)
(1.02515 -0.00468302 0)
(0.869768 -0.203704 0)
(0.993103 -0.00230317 5.64834e-21)
(1.13656 0.0615451 -1.39606e-20)
(1.18053 0.058639 2.4383e-21)
(1.02664 -0.156514 5.99667e-22)
(1.00347 -0.0143064 0)
(1.05311 -0.00728409 0)
(1.16081 -0.40579 -3.51212e-20)
(1.1367 0.0393511 0)
(1.08953 -0.0298165 0)
(-0.158408 0.0168882 3.02002e-20)
(1.11877 0.0379951 0)
(0.991885 -0.0219734 8.30878e-21)
(0.981712 -0.0206794 0)
(0.367303 -0.0148396 7.92856e-21)
(-0.0749498 -0.0388804 1.91724e-19)
(1.10772 -0.19195 0)
(1.01662 -0.00442931 0)
(1.07649 0.0200007 -1.06569e-20)
(1.00061 -0.00319206 -4.49204e-21)
(1.10884 -0.0503786 1.28787e-20)
(1.02037 -0.0081969 -1.75548e-22)
(1.32661 -0.172892 0)
(-0.0712358 -0.0253797 -5.63635e-20)
(1.00671 -0.00760855 -4.06969e-21)
(1.03956 -0.00220185 -2.72064e-21)
(1.32816 0.0045093 0)
(0.998463 -0.0272589 0)
(0.871801 0.107623 -8.51551e-22)
(-0.351999 -0.000596842 0)
(1.11483 0.0238778 4.60863e-21)
(0.965701 -0.011147 -1.45919e-20)
(0.998951 -0.000781627 -1.03656e-20)
(1.02053 -0.00794201 -5.50471e-23)
(1.00207 -0.000808464 -4.14596e-21)
(-0.38268 0.000807184 6.30971e-20)
(1.23589 -0.234776 -1.38645e-20)
(1.2207 -0.135616 -4.24499e-20)
(1.03374 -0.0485759 0)
(0.0700913 0.0301538 9.12859e-21)
(1.00499 -0.000253066 -3.6123e-22)
(0.994971 -0.0154058 0)
(0.692755 0.0692263 7.66947e-20)
(1.02661 -0.0125599 -4.16836e-23)