/*--------------------------------*- C++ -*----------------------------------*\
| =========                 |                                                 |
| \\      /  F ield         | OpenFOAM: The Open Source CFD Toolbox           |
|  \\    /   O peration     | Version:  v2012                                 |
|   \\  /    A nd           | Website:  www.openfoam.com                      |
|    \\/     M anipulation  |                                                 |
\*---------------------------------------------------------------------------*/
FoamFile
{
    version     2.0;
    format      ascii;
    class       volScalarField;
    location    "100";
    object      k_0;
}
// * * * * * * * * * * * * * * * * * * * * * * * * * * * * * * * * * * * * * //

dimensions      [0 2 -2 0 0 0 0];


internalField   nonuniform List<scalar> 
10042
(
0.000147256
0.000148185
0.000147844
0.00015866
0.0878142
0.000148343
0.0379589
0.000152761
0.000147077
0.000147896
0.0389357
0.00015853
0.000144679
0.000144428
0.000151565
0.000148056
0.000147994
0.000149698
0.000147278
0.000171318
0.000147137
0.000207027
0.000145543
0.000145278
0.000148237
0.000158496
0.000148793
0.000150227
0.000147178
0.00014949
0.000147992
0.00707964
0.000147975
0.000149194
0.000155206
0.000145358
0.000157649
0.000162497
0.000145355
0.000157552
0.000171975
0.000150994
0.0417831
0.000148243
0.0875792
0.00017611
0.000149292
0.000188428
0.000156595
0.000173856
0.00014903
0.000149345
0.000150973
0.00015093
0.000157656
0.000148288
0.000147195
0.000149196
0.000149159
0.000150663
0.000148153
0.000147849
0.000155439
0.000147756
0.000149019
0.000149172
0.000148362
0.000165766
0.0806925
0.000147589
0.000150824
0.000173593
0.000148255
0.00015747
0.000148262
0.000145277
0.0934939
0.000147334
0.000156706
0.0563598
0.000155888
0.0747271
0.000148282
0.000150338
0.00014838
0.000149381
0.000147169
0.000182862
0.000147881
0.000147154
0.000148866
0.0713578
0.000150389
0.000149118
0.000149373
0.000147648
0.000147363
0.000147536
0.000156928
0.000147238
0.000149933
0.000177477
0.000151821
0.000149299
0.000149956
0.000164745
0.000147319
0.000147323
0.000147198
0.000144407
0.000145854
0.000147064
0.000154566
0.0707246
0.000148983
0.000147057
0.000147557
0.000147309
0.000147612
0.0425745
0.000147834
0.000149663
0.000148393
0.00014777
0.00017753
0.000148284
0.000164259
0.000157227
0.000164414
0.000147114
0.000157167
0.000148227
0.0464839
0.000203815
0.000147238
0.00016792
0.0297341
0.000148916
0.000189208
0.000185156
0.000150206
0.000147548
0.000149667
0.000187435
0.000148052
0.000147045
0.000168742
0.000145424
0.00014763
0.000153943
0.000147254
0.000149676
0.0763611
0.0467946
0.000149182
0.000144641
0.000149831
0.000147793
0.000167866
0.0144842
0.0345755
0.000188764
0.000147761
0.000147238
0.000148546
0.000148144
0.00016519
0.016786
0.00703419
0.0517807
0.00015001
0.00014675
0.0520765
0.000174277
0.000160004
0.0396014
0.0251396
0.000148323
0.00016707
0.000159405
0.000150107
0.0102734
0.000148593
0.000157093
0.000150785
0.0438236
0.000208199
0.000148583
0.0415084
0.000152243
0.000320224
0.000149678
0.0758
0.0173269
0.000184877
0.000565941
0.000154498
0.000147366
0.000144661
0.000151503
0.000159485
0.00014868
0.000147049
0.000174746
0.000148513
0.000146016
0.000385901
0.000148976
0.000149712
0.00014959
0.000505786
0.000148674
0.000164362
0.000190462
0.000149772
0.000211822
0.000148021
0.000147746
0.000171507
0.000146413
0.000154709
0.000150099
0.000202504
0.00016336
0.000153675
0.000159386
0.000249661
0.000147048
0.000194341
0.000151328
0.000147094
0.000172457
0.0001468
0.000151272
0.000147975
0.000154192
0.000146207
0.000144408
0.000151254
0.00015597
0.000147813
0.000148413
0.000148377
0.000154641
0.000147018
0.000148043
0.000145349
0.000150118
0.00015042
0.000149773
0.000144691
0.000147506
0.000152624
0.000215008
0.000188817
0.0321688
0.00016016
0.000159955
0.000151799
0.000178165
0.0158881
0.000150852
0.000147335
0.000144582
0.000151402
0.000146161
0.000217317
0.000151499
0.000147137
0.000149646
0.000160017
0.000150541
0.000188105
0.000160059
0.000188896
0.000152345
0.00015593
0.000146129
0.000154257
0.000148148
0.000160024
0.000147669
0.000158526
0.052113
0.000145993
0.000147597
0.0138805
0.000176366
0.000148444
0.000148147
0.000152315
0.0372189
0.000171276
0.000188719
0.000149138
0.000144648
0.00014708
0.000147171
0.000249403
0.000147321
0.000148108
0.000146766
0.000148024
0.000163446
0.000151914
0.000169975
0.0963279
0.000150312
0.00780713
0.000146965
0.000153957
0.000148732
0.0185577
0.000178209
8.6814e-06
0.0219681
0.000145205
0.000151538
0.00014764
0.000152198
0.000159421
0.00014958
0.00015972
0.000145806
0.000144724
0.000148338
0.000171081
0.000149884
0.000151743
0.000148045
0.000151693
0.0433737
0.000147
0.000149114
0.000147745
0.000147622
0.000163535
0.000185107
0.000159925
0.000215401
0.000163714
0.000156173
0.000148128
0.000144284
0.000149109
0.000149767
0.000253569
0.000147689
0.000149197
0.000194263
0.000147064
0.000153066
0.000150557
0.00019473
0.000147889
0.000153453
0.00016376
0.000159507
0.000151414
0.000147416
0.00126271
0.000169001
0.000149214
0.000163239
0.000147454
0.000146819
0.00014744
0.000153005
0.000365521
0.000153499
0.000149634
0.000150267
0.000149944
0.00014979
0.000171272
0.000147391
0.000145726
0.0332704
0.000146695
0.000245838
0.000262603
0.000157764
0.0522413
0.0275385
0.000156056
0.00017267
0.000148988
0.000174555
0.000149938
0.00014903
0.000230802
0.000148307
0.00015255
0.000818356
0.000149305
0.000147149
0.00016232
0.000287855
0.000148997
0.000145343
0.0079838
0.000178184
0.000146735
0.000165711
0.00537605
0.000146415
0.00014974
0.000145704
0.000147051
0.000144469
0.000145914
0.00259256
0.000188108
0.000149135
0.0827119
0.000144453
0.000147289
0.00026711
0.000148434
0.000688792
0.000172634
0.000150343
0.000145555
0.000145235
0.000176023
0.000150264
0.000156114
0.000149464
0.0437639
0.000149527
0.00582051
0.000151248
0.000147365
0.000147085
0.000250992
0.000147476
0.000153735
0.000147334
0.000147798
0.0115675
0.000154618
0.000147491
0.000146399
0.0125867
0.00014708
0.000154952
0.000151345
0.000146174
0.0608561
0.0524057
0.000147004
0.000148814
0.000153742
0.000144677
0.000147887
0.00014772
0.0174711
0.000147851
0.00014719
0.00015628
0.000184179
0.000170205
0.000149771
0.000159198
0.00883346
0.00016497
0.00014759
0.00014744
0.000202849
0.000148999
0.000147411
0.000156269
0.00014733
0.000145904
0.000150376
0.000145005
0.000160381
0.000147316
0.000147506
0.0316746
0.00014617
0.000149822
0.000148321
0.000149294
0.000159799
0.000147032
0.000147518
0.000184503
0.000149772
0.0791836
0.000150764
0.000149868
0.000149831
0.000181003
0.000147583
0.000147533
0.000147923
0.00014945
0.000155565
0.0374508
0.000147101
0.000160322
0.000388527
0.000164863
0.000149718
0.000147621
0.000148503
0.000149306
0.000146986
0.0323228
0.0253144
0.000148377
0.000157261
0.00015852
0.000157966
0.000148301
0.000145521
0.000226902
0.000175365
0.000329941
0.000145472
0.000148671
0.000148289
0.000146729
0.0842994
0.000161019
0.000149456
0.000147547
0.000146848
0.000148162
0.000216611
0.00015463
0.000148847
0.0122363
0.000237725
0.000195387
0.000165206
0.000147943
0.000147274
0.000178186
0.000167549
0.0568662
0.0305334
0.000152962
0.000153992
0.000149356
0.000151629
0.000148826
0.00014928
0.036772
0.000145289
0.000146961
0.000175523
0.000149357
0.000225007
0.000150419
0.0001928
0.000157201
0.000149604
0.000151238
0.000155247
0.000167499
0.000165265
0.000168382
0.000149871
0.000173901
0.000150621
0.000147623
0.000148692
0.000149196
0.000148099
0.000153225
0.000170285
0.000160427
0.00014887
0.000149937
0.000147892
0.000147438
0.000171647
0.000147326
0.000151279
0.000203837
0.000145008
0.000167636
0.000186312
0.000148124
0.0389575
0.000167599
0.000149356
0.000212229
0.000148222
0.000149772
0.000147999
0.000147738
0.000149945
0.000152354
0.000148196
0.000220352
0.000150197
0.000147642
0.000148977
0.000160005
0.000161907
0.000147746
0.000153106
0.000147273
0.00016173
0.000147835
0.000157254
0.000145808
0.000150508
0.000145165
0.000147342
0.0844636
0.000145744
0.000170498
0.000147692
0.000150318
0.00014605
0.000161987
0.000148382
0.000168269
0.000148409
0.000206711
0.000149728
0.0246935
0.000145399
0.000151451
0.000149794
0.000148105
0.000147536
0.000152282
0.000148093
0.000170625
0.0147227
0.000227023
0.000152363
0.000159718
0.00014703
0.000160669
0.000176164
0.000147919
0.000156075
0.000168692
0.0612587
0.000186672
0.0105699
0.000156069
0.000148713
0.000149506
0.000153807
0.000152351
0.000165304
0.00014521
0.000151439
0.000186069
0.000149742
0.000147444
0.000153618
0.105164
0.000151219
0.000158582
0.000178129
0.000149652
0.0622133
0.000145328
0.000146696
0.000149536
0.000147374
0.0213174
0.000179545
0.0956174
0.000148237
0.00157007
0.0295144
0.000256405
0.000165035
0.000178603
0.000194402
0.000161661
0.000148043
0.00014738
0.000156692
0.0205098
0.000147012
0.000156723
0.0924623
0.000147306
0.000147177
0.000147691
0.000150556
0.000147478
0.000148091
0.000180124
0.0104553
0.000147976
0.000147823
0.0447153
0.0685015
0.000147065
0.000147595
0.000148946
0.000147071
0.000274241
0.000179541
0.00018591
0.00014997
0.000147136
0.000147147
0.00015016
0.000148215
0.00016167
0.000149924
0.10581
0.000147873
0.000148378
0.000162465
0.000146936
0.000163085
0.000165241
0.000150858
0.00865626
0.0811756
0.000148732
0.000146986
0.0257068
0.0300716
0.000159842
0.000148108
0.000140122
0.000175854
0.000153666
0.000147953
0.000147795
0.00014728
0.000193865
0.000152291
0.000168662
0.000149772
0.0506032
0.000346043
0.000147639
0.00014775
0.000170004
0.000148929
0.000146033
0.000153532
0.0697487
0.0579111
0.0700831
0.000149483
0.000174958
0.000161229
0.000145428
0.000147734
0.000149239
0.000191706
0.000149322
0.000147606
0.000174984
0.00014825
0.000170974
0.000148633
0.000148611
0.000145762
0.000148929
0.000199917
0.000149271
0.000147448
0.00016681
0.000164273
0.000189707
0.000149357
0.000178471
0.0625209
0.0786056
0.000150543
0.0195086
0.0137134
0.000147308
0.00014476
0.000150035
0.000151041
0.0443616
0.000151453
0.00014872
0.000149324
0.068728
0.000160366
0.000149299
0.00014886
0.000147575
0.00016379
0.000146123
0.000146846
0.000160928
0.000150383
0.000149315
0.000147063
0.000239684
0.000147592
0.000150261
0.000148059
0.000149402
0.000186876
0.000149306
0.000150732
0.000148353
0.000153901
0.000207595
0.000149941
0.000189015
0.000154685
0.0482307
0.000146229
0.000151547
0.000160577
0.000178194
0.00016241
0.000149898
0.0171729
0.002909
0.000149649
0.000147058
0.000259095
0.000148407
0.000149648
0.000146192
0.00014958
0.000169554
0.000149948
0.00014995
0.000165172
0.000156674
0.000157263
0.000157472
0.000150093
0.0851364
0.000151138
0.000214506
0.000147052
0.000175374
0.00016033
0.0873625
0.000152653
0.07716
0.000149779
0.000154717
0.000148136
0.000148554
0.000147644
0.000191992
0.000160354
0.000172837
0.0279743
0.000148699
0.000140679
0.000155159
0.000147014
0.000157162
0.000159141
0.0764051
0.000147712
0.000155736
0.000163444
0.000151378
0.000160565
0.000149882
0.000144967
0.000149879
0.000187724
0.000148812
0.000147861
0.000146196
0.00014599
0.000147375
0.000147747
0.000149177
0.000146857
0.000148934
0.000149524
0.000153832
0.000157244
0.000147818
0.0531938
0.000148143
0.00127787
0.000159566
0.0508323
0.000162678
0.000154456
0.00927608
0.000162226
0.000190661
0.0560413
0.000163563
0.000149275
0.000146789
0.000150568
0.00018777
0.000147678
0.0631706
0.000147543
0.0084873
0.0267151
0.000176971
0.000150363
0.0381802
0.0451474
0.000150829
0.000147739
0.00014974
0.000153046
0.0001449
0.000145687
0.000167231
0.000235083
0.000148401
0.000147641
0.000149288
0.000252343
0.000179372
0.000148976
0.000153922
0.000180069
0.000149625
0.000148028
0.0579004
0.000149178
0.000147315
0.000560347
0.000152208
0.000147936
0.00535789
0.0697852
0.0453233
0.000147421
0.000150947
0.00025549
0.000146219
0.000147615
0.000149887
0.000159269
0.000148147
0.000148631
0.000151751
0.000161511
0.000176949
0.000146481
0.000147823
0.000148407
0.00014742
0.000149827
0.00014512
0.000190229
0.000156643
0.000148025
0.000147731
0.000146361
0.000147655
0.000149505
0.0720088
0.000158156
0.000145305
0.000147385
0.000160463
0.0788365
0.000148148
0.000147706
0.000148056
0.00014527
0.00935474
0.000172712
0.000146824
0.000148311
0.000158373
0.00017154
0.00014906
0.000149876
0.000153317
0.000148206
0.000155136
0.000149392
0.00592677
0.000161037
0.000148337
0.000154832
0.0516326
0.000155934
0.000196538
0.00015378
0.000259367
0.00014979
0.000148779
0.000153789
0.000178901
0.00014746
0.000147489
0.000149596
0.000150106
0.000169711
0.000173692
0.000191046
0.00015003
0.000147776
0.000156233
0.000148106
0.000148084
0.00514143
0.000151848
0.000148225
0.000147763
0.000184769
0.000236149
0.000147766
0.000148573
0.000182529
0.000147278
0.000148584
0.00014758
0.000182308
0.000150866
0.000155128
0.00664482
0.000149148
0.000149057
0.0627528
0.000147165
0.000175965
0.000147198
0.000151481
0.000162202
0.000148146
0.000148482
0.000149039
0.000151552
0.0197073
0.000147343
0.000148809
0.000178898
0.000153873
0.000236445
0.0906836
0.000163871
0.000149369
0.000227783
0.000147627
0.0238453
0.000149056
0.00014834
0.000147016
0.012137
0.000149369
0.000149333
0.000148993
0.000162057
0.0585393
0.000156416
0.000166755
0.00014768
0.000148811
0.000162984
0.000157662
0.000146703
0.000154023
0.000147306
0.0821394
0.0527716
0.000148849
0.000150442
0.000149448
0.000213051
0.000148981
0.00922892
0.000147753
0.000147457
0.000146841
0.000149558
0.000152116
0.000149792
0.000147772
0.000148199
0.000218923
0.000186485
0.000147598
0.000153135
0.000152539
0.000161722
0.000147563
0.000153855
0.000150549
0.00014801
0.000150879
0.000160373
0.000149855
0.000147211
0.000154866
0.000146959
0.000185403
0.000150948
0.000177018
0.000148643
0.000148104
0.000147622
0.0001835
0.000161968
0.000146354
0.000153236
0.00017786
0.000149571
0.000146399
0.000154349
0.000149449
0.0133604
0.000181232
0.000153558
0.0233823
0.000150756
0.000162655
0.000180325
0.00016076
0.00016266
0.0096853
0.000159713
0.00019184
0.000148283
0.000150678
0.000147492
0.000147908
0.00015552
0.000146834
0.000176955
0.00014824
0.000148181
0.000168986
0.000147474
0.00017368
0.000155295
0.000154038
0.00014757
0.000161108
0.000229786
0.000143873
0.000160375
0.0685241
0.000160644
0.000147129
0.000159686
0.000147787
0.00014701
0.0137033
0.000146731
0.000146315
0.000169738
0.000148059
0.000156315
0.00014695
0.000147837
0.065293
0.000147573
0.000145807
0.000153272
0.000147438
0.00014528
0.000149649
0.0148027
0.000148775
0.000148445
0.000145382
0.000182879
0.000149442
0.000153071
0.000147559
0.000159416
0.000150102
0.000147501
0.000150553
0.00014856
0.000146293
0.000172847
0.000163811
0.000157379
0.000151343
0.000165422
0.000178069
0.000155138
0.000155597
0.000150527
0.0885467
0.000147841
0.000148215
0.000147285
0.000149549
0.00015943
0.000147127
0.051095
0.043391
0.000340496
0.000148443
0.000153328
0.000161544
0.000144962
0.000167949
0.000163585
0.000283069
0.000178882
0.067424
0.00017792
0.000198871
0.0406893
0.00015654
0.000150761
0.000153979
0.000146915
0.0659738
0.000149887
0.000156317
0.000146603
0.000153644
0.000148154
0.0532245
0.0797726
0.000149302
0.0169957
0.00027025
0.000205343
0.000167896
0.000171582
0.000145817
0.0731769
0.000148101
0.0151379
0.0376998
0.000149308
0.000147668
0.000147844
0.000151262
0.000153897
0.000162349
0.000201411
0.000148738
0.000148112
0.000153931
0.000149362
0.000148091
0.000154743
0.000146756
0.000148261
0.000225926
0.000171636
0.000148128
0.0400195
0.000150632
0.000149798
0.000151228
0.000214222
0.000147558
0.000146157
0.000184692
0.000187621
0.000147326
0.000153953
0.000328202
0.000170555
0.0585404
0.000146478
0.000198413
0.0862249
0.0972025
0.000148439
0.000147728
0.000177138
0.000154517
0.000162629
0.000149316
0.0908718
0.000169366
0.000197095
0.000148482
0.000147662
0.017673
0.000213896
0.00014893
0.000149799
0.057665
0.000147449
0.000145681
0.000147526
0.000151598
0.000149254
0.000156534
0.00014867
0.000152133
0.000145393
0.000161494
0.021282
0.00016742
0.000161783
0.024727
0.000175951
0.000145702
0.000146985
0.000147656
0.000149877
0.000183626
0.000156563
0.000148612
0.000148178
0.000147694
0.000145161
0.000158133
0.0001453
0.00016263
0.000152616
0.000148735
0.0882006
0.0444398
0.000148578
0.085914
0.000158992
0.000160332
0.000149741
0.000145553
0.0226675
0.000175656
0.000147272
0.000146225
0.000147562
0.000155444
0.000149728
0.000197035
0.000144671
0.000148265
0.000148366
0.0500465
0.063361
0.00014505
0.000148214
0.00017874
0.000199772
0.000152803
0.0606253
0.0957408
0.00014739
0.000148857
0.000148728
0.000150757
0.0440268
0.000148102
0.000149886
0.000188668
0.000179588
0.00014937
0.000147614
0.000165674
0.000149881
0.000148375
0.000178959
0.00018018
0.0522942
0.000147711
0.00018443
0.000160789
0.000174284
0.00015076
0.000155775
0.000147392
0.000149738
0.000171475
0.000154349
0.000147808
0.000153505
0.0364188
0.000144935
0.000146877
0.000144915
0.000169321
0.000147447
0.000148455
0.000144017
0.000147441
0.000278596
0.103357
0.000149004
4.43848e-06
0.0810474
0.0573341
0.0001474
0.000147884
0.000146701
0.00014725
0.000148681
0.00014893
0.000145349
0.00014843
0.000146307
0.000152506
0.0224475
0.000160257
0.000226801
0.000159553
0.000148056
0.000150995
0.000159204
0.000148878
0.000146862
0.000162087
0.000158921
0.000263314
0.000167695
0.000144893
0.0458475
0.000150271
0.000144573
0.000147628
0.000225937
0.000167835
0.000150167
0.000154551
0.00014836
0.000148523
0.000157953
0.000167155
0.000158197
0.0074286
0.000148445
0.000148049
0.000261467
0.000161038
0.000153745
0.000190169
0.000151073
0.000167178
0.000210941
0.000172661
0.0114574
0.00014739
0.000147222
0.000147401
0.000148187
0.00014852
0.000151057
0.000166228
0.0001748
0.0419507
0.00014837
0.0613629
0.0118405
0.000153559
0.000380927
0.000149056
0.000180177
0.0230345
0.000147196
0.000182936
0.000145613
0.000259883
0.00014926
0.000204702
0.000147008
0.000237621
0.00016637
0.0412724
0.000146786
0.000197777
0.000146456
0.000151096
0.000225533
0.000146734
0.0119198
0.0892801
0.000229234
0.0170461
0.000184315
0.0629314
0.000162906
0.000147967
0.000163094
0.000168167
0.00811599
0.000148397
0.000147958
0.000150162
0.000166189
0.000147931
0.00014906
0.000149057
0.0372632
0.056628
0.000147676
0.0424953
0.000165397
0.000145993
0.000161699
0.000155557
0.0641592
0.000157863
0.000146913
0.00019948
0.000148356
0.000147384
0.000148483
0.000183807
0.00017457
0.000147311
0.000154864
0.000148633
0.000149714
0.000146379
0.0585093
0.000149895
0.000146501
0.000226819
0.000206799
0.000152573
0.000147385
0.0402915
0.000156072
0.000151189
0.000148034
0.000163458
0.000151136
0.000156748
0.000153373
0.00412478
0.000163204
0.000174178
0.000144797
0.000162075
0.000171527
0.000157507
0.00014948
0.0936517
0.000149651
0.00019827
0.000147106
0.00014924
0.000161558
0.000201588
0.000151686
0.000154099
0.000148663
0.000160198
0.000176161
0.000186376
0.000156206
0.000149945
0.00014758
0.000155593
0.000185886
0.000147387
0.000168256
0.000147935
0.000147421
0.0489129
0.000147275
0.0693092
0.00014787
0.000154963
0.000180213
0.000147917
0.00015783
0.000191226
0.00018328
0.000148043
0.000185088
0.000149917
0.000149737
0.000147565
0.0333088
0.0737456
0.000147238
0.000147551
0.000146285
0.000147063
0.000182867
0.0785054
0.000147933
0.0002367
0.00014614
0.000146412
0.000147078
0.000190244
0.000150467
0.000152068
0.000147505
0.000148181
0.00014772
0.000149685
0.000149706
0.000160755
0.0061856
0.00014609
0.000147826
0.0001606
0.000173957
0.000146537
0.00829129
0.000168728
0.000146876
0.00014526
0.000149013
0.000189041
0.000146732
0.000183516
0.000157319
0.000152176
0.000146806
0.000168259
0.000144703
0.000173395
0.000155927
0.000149476
0.000264785
0.000201953
0.000143938
0.00014703
0.0192702
0.000186994
0.000179783
0.000153305
0.000183433
0.000145476
0.0906031
0.00018094
0.000147397
0.0324145
0.0716152
0.000151128
0.000165309
0.000170997
0.000146843
0.0940663
0.000148916
0.000156266
0.00015835
0.000149149
0.000148185
0.000163805
0.00014695
0.000147037
0.000146937
0.00154988
0.000147407
0.000147391
0.000146745
0.000147059
0.00014749
0.000149501
0.000173838
0.000161426
0.000151985
0.00014964
0.000444132
0.000149194
0.000146784
0.000147194
0.000146202
0.000148451
0.000147628
0.000158206
0.000183848
0.000149455
0.00015963
0.000162909
0.000146835
0.000155874
0.0621671
0.000150214
0.000144991
0.000148417
0.000166991
0.000149306
0.000149297
0.000152872
0.000153466
0.000798189
0.0135468
0.0001466
0.000146854
0.000147415
0.000166105
0.00015934
0.000146897
0.000155875
0.0001681
0.000148892
0.000155139
0.0001488
0.00018042
0.000207963
0.000150597
0.000174269
0.000154653
0.0598294
0.000149322
0.00014709
0.0972544
0.000171323
0.000153014
0.000200525
0.000168022
0.0200204
0.000162272
0.000201433
0.000154872
0.000154224
0.0211406
0.000155156
0.000216951
0.000159941
0.000182906
0.0468066
0.000149951
0.000148776
0.000147661
0.000198296
0.000144062
0.0125172
0.000164637
0.024907
0.000150675
0.000170648
0.00019999
0.000147455
0.000148991
0.000166562
0.000157766
0.000148471
0.000154523
0.000167417
0.000178406
0.00017572
0.000188336
0.0201295
0.000180684
0.000148662
0.000149284
0.0898787
0.00016651
0.000150162
0.000160805
0.0623535
0.000149192
0.000152491
0.000147405
0.000156648
0.000148116
0.000148596
0.000159876
0.000148639
0.000155642
0.0376245
0.0147049
0.000145921
0.000154152
0.000156269
0.000188086
0.000162186
0.000149457
0.000147302
0.00016969
0.0106926
0.000147367
0.000153375
0.000148606
0.0208322
0.000146972
0.000158419
0.000233571
0.000232019
0.000149801
0.000173534
0.000173918
0.000172586
0.000154143
0.000147982
0.100559
0.00014686
0.000155836
0.000149069
0.000158605
0.0001457
0.000146085
0.000148657
0.000173885
0.000146982
0.000147672
0.000147117
0.000148377
0.000146942
0.000148435
0.000179781
0.0161423
0.0561376
0.000154618
0.000148247
0.000157717
0.00015205
0.0570107
0.000149892
0.000175814
0.000145601
0.00014784
0.000149618
0.000161724
0.0780784
0.000147631
0.04463
0.000149101
0.00014472
0.000151032
0.0531086
0.000151411
0.000161409
0.0746171
0.00014989
0.000148908
0.0150842
0.000147277
0.0320546
0.000148472
0.000160964
0.0178621
0.000150136
0.000148542
0.000146812
0.0169893
0.000156049
0.000147034
0.000207175
0.000147531
0.000150254
0.000177854
0.0502287
0.000179572
0.0850155
0.00991629
0.000167153
0.000151682
0.000177144
0.000207532
0.000147511
0.000147377
0.000150589
0.000156761
0.000167102
0.000147757
0.000153799
0.000147142
0.000147541
0.0515447
0.000149463
0.0286632
0.000145252
0.000161944
0.000179789
0.000146585
0.000144677
0.0758113
0.079048
0.000171133
0.000148422
0.000153775
0.000175778
0.000146314
0.000163384
0.000182469
0.000166461
0.000160301
0.0289549
0.0451939
0.000144801
0.000148793
0.000145462
0.000149234
0.000150517
0.000157307
0.0137171
0.000148699
0.000147651
0.000170645
0.0337274
0.000145336
0.000406129
0.000145811
0.000189728
0.000173086
0.10309
0.000182374
0.000163758
0.000164034
0.000145
0.000144595
0.000207624
0.000154395
0.000148471
0.000384531
0.000146914
0.000148445
0.000145407
0.000169317
0.000182286
0.000266497
0.00017304
0.000157955
0.000157655
0.000148367
0.0417912
0.000214333
0.000150984
0.000147664
0.000146931
0.00018844
0.102953
0.0001599
0.0927614
0.000150453
0.000146833
0.0480007
0.000147983
0.0907068
0.0599426
0.000146382
0.00015806
0.000235678
0.000152665
0.000159712
0.000147263
0.0627879
0.00015583
0.000176079
0.0129115
0.0219534
0.000157543
0.000158221
0.000148828
0.000184566
0.0538393
0.00015088
0.000152512
0.0580431
0.000162894
0.000165996
0.000149739
0.000963817
0.0168738
0.000168574
0.000147922
0.000156089
0.000147078
0.000749624
0.000177942
0.000161731
0.0414648
0.0551256
0.000145061
0.000193049
0.000148571
0.00590052
0.000168858
0.000156457
0.00015453
0.000333153
0.000143725
0.000179663
0.0161588
0.0810832
0.000150926
0.000148058
0.000146387
0.000169586
0.00129364
0.000193127
0.0836535
0.000190407
0.000163964
0.000147161
0.0686176
0.000180117
0.000156586
0.000178505
0.00671036
0.0378154
0.0255466
0.0339435
0.0489689
0.0244714
0.000148548
0.000156306
0.000160667
0.000148069
0.0360338
0.000359287
0.000147973
0.045469
0.000148782
0.000147807
0.000146248
0.000160131
0.000146924
0.0573531
0.000164302
0.000222887
0.000147031
0.000265059
0.000162668
0.000262643
0.0213569
0.000150283
0.00015732
0.000161165
0.00016527
0.000147009
0.000146078
0.000147047
0.0504742
0.000146386
0.000147003
0.000221847
0.000151526
0.0504588
0.000148159
0.0689142
0.000147568
0.000148264
0.000148086
0.000148179
0.000156736
0.000153165
0.0638779
0.000157646
0.000165524
0.100033
0.000147221
0.095532
0.000146588
0.0970526
0.00025532
0.0736486
0.000176057
0.000148176
0.0001498
0.0933818
0.000148519
0.000155889
0.00014865
0.000159491
0.0846587
0.000147018
0.000146809
0.000147245
0.000149746
0.0322422
0.078286
0.00014736
0.00014403
0.0643277
0.0998988
0.000146912
0.0185958
0.000149742
0.102319
0.0836397
0.000180775
0.000198233
0.000219241
0.000167841
0.0423393
0.000185126
0.000148074
0.000144975
0.000146362
0.101302
0.0874711
0.00015088
0.000155884
0.0429098
0.000147008
0.0329421
0.000147591
0.000148127
0.000145747
0.00544403
0.000182782
0.000146828
0.0566534
0.000149657
0.00308599
0.0791339
0.000146658
0.000148632
0.000187495
0.000147577
0.000149367
0.00014663
0.0732929
0.000158095
0.000148058
0.000148781
0.0766331
0.000147853
0.000162127
0.00014772
0.0630443
0.000148567
0.000172584
0.000161712
0.0529394
0.031862
0.0001591
0.00018583
0.000172949
0.000148375
0.000169888
0.0680329
0.000146905
0.000180426
0.000146316
0.000264221
0.000147129
0.0785052
0.0763742
0.00017047
0.0439278
0.0570894
0.000160484
0.000149945
0.00183995
0.000147336
0.0601391
0.000153801
0.0003722
0.000147484
0.000158561
0.000165844
0.000157232
0.000148659
0.000147867
0.000149243
0.0140434
0.000175895
0.0491327
0.0504132
0.000155414
0.000145508
0.000164583
0.0597404
0.000158831
0.000147125
0.000148416
0.0091974
0.00376261
0.039869
0.0357627
0.00016254
0.000149193
0.000146383
0.000170874
0.000167788
0.000322691
0.000147818
0.000148334
0.0115718
0.000173646
0.000149894
0.000177756
0.000334798
0.000184678
0.00014607
0.000163008
0.00026595
0.000368053
0.0436331
0.000205063
0.000147287
0.000149778
0.000150764
0.00014989
0.00014798
0.000148493
0.000158989
0.000179439
0.000161425
0.000157442
0.00015697
0.00014919
0.000154494
0.000149976
0.000159819
0.000158576
0.000147253
0.00015691
0.000147498
0.000146697
0.000149815
0.000148703
0.000211341
0.000145518
0.000167387
0.000316856
0.00042004
0.0702896
0.0426306
0.000153309
0.000149534
0.000147127
0.102003
0.000147926
0.000144365
0.000149104
0.0770287
0.00015769
0.000162144
0.000260696
0.000151438
0.000148071
0.000158002
0.000146978
0.000163094
0.000149894
0.000159423
0.000146947
0.000147856
0.00015076
0.000151638
0.000154464
0.000306981
0.00016581
0.000174186
0.000171952
0.000191754
0.000164967
0.000173832
0.000147819
0.0410668
0.000152659
0.00015492
0.000147892
0.000150264
0.000175747
0.000147777
0.0001673
0.00618209
0.000156349
0.000185999
0.000178957
0.000164557
0.000168861
0.000166157
0.000147453
0.000157591
0.00014849
0.000171558
0.000166495
0.0990244
0.000146346
0.000166049
0.000154501
0.0674904
0.00019895
0.000167994
0.000148548
0.000168101
0.000145007
0.000176253
0.000150426
0.0816688
0.00014575
0.00015403
0.000147947
0.000160592
0.000193502
0.000158574
0.0116192
0.000148124
0.000160801
0.000166221
0.000147938
0.00107696
0.10463
0.000194927
0.000176222
0.000166999
0.000147468
0.000147086
0.0255509
0.00017674
0.00014633
0.000149787
0.000153164
0.000147534
0.000221442
0.000146938
0.102863
0.000188029
0.000193114
0.000161516
0.000149333
0.000145729
0.000147444
0.000182887
0.000167417
0.000154673
0.037069
0.000149102
0.000150919
0.00015522
0.0917418
0.000144941
0.000216911
0.000143716
0.0935431
0.000147177
0.00014716
0.000159672
0.00014772
0.000149061
0.000189855
0.000148554
0.000149296
0.000147129
0.000165133
0.000154432
0.0406891
0.000147812
0.000148655
0.000146739
0.000190065
0.000146563
0.00015605
0.00016765
0.0887111
0.0522546
0.000522066
0.000212159
0.000227546
0.000164157
0.000165645
0.000155117
0.000149649
0.000148706
0.0910857
0.00016465
0.000144768
0.000147566
0.000147497
0.000157241
0.000172482
0.00014965
0.000156848
0.000187521
0.000198309
0.000174258
0.000147582
0.00014955
0.0611941
0.000152196
0.000145666
0.0762302
0.0290289
0.000146143
0.000144123
0.000155219
0.000148227
0.000159704
0.000149627
0.000387191
0.000149801
0.0409575
0.000148165
0.0134918
0.000158215
0.000147996
0.000178812
0.00014543
0.000148247
0.000149745
0.000160926
0.000259081
0.000147384
0.00019619
0.000149895
0.00014927
0.00017046
0.000146909
0.000148762
0.000148571
0.00014444
0.000148117
0.000144858
0.000149047
0.000353996
0.000146854
0.000146987
0.000165388
0.000145669
0.00014741
0.000149056
0.000148941
0.0912187
0.000188898
0.000148377
0.000150718
0.000147966
0.000149895
0.000203306
0.000148229
0.000147712
0.00976183
0.000147538
0.000167787
0.000177209
0.000160698
0.000147695
0.000203647
0.000147751
0.000237525
0.0001655
0.000147789
0.0263374
0.0345349
0.000155734
0.000172303
0.00014736
0.000147246
0.000162301
0.000204478
0.000147041
0.000146805
0.000149013
0.000164079
0.000148591
0.000160655
0.000148645
0.000166866
0.000136222
0.000161266
0.000202376
0.000147362
0.00015429
0.000156486
0.00016208
0.000145926
0.00014756
0.000150673
0.000160801
0.000166662
0.00014945
0.000190401
0.00014791
0.099689
0.000144878
0.00014635
0.000174729
0.000149795
0.000179749
0.000187578
0.000161417
0.000148127
0.000150687
0.00014806
0.000161676
0.000148548
0.000163657
0.000155143
0.000148862
0.000146089
0.000155599
0.0810846
0.00015921
0.000163985
0.0776636
0.00024414
0.000161654
0.000145005
0.0959796
0.000148085
0.000151975
0.000149501
0.000186542
0.000147956
0.000160207
0.00015564
0.000151745
0.000148709
0.000154239
0.000149272
0.000174554
0.000147351
0.000149186
0.000148145
0.000157111
0.000558651
0.000148317
0.0179179
0.000167382
0.00014426
0.0835792
0.000232526
0.000147543
0.000151474
0.000187619
0.00014679
0.000147411
0.0724905
0.000148026
0.0865465
0.000153715
0.000153389
0.000150026
0.000149615
0.000147852