/*--------------------------------*- C++ -*----------------------------------*\
| =========                 |                                                 |
| \\      /  F ield         | OpenFOAM: The Open Source CFD Toolbox           |
|  \\    /   O peration     | Version:  v2012                                 |
|   \\  /    A nd           | Website:  www.openfoam.com                      |
|    \\/     M anipulation  |                                                 |
\*---------------------------------------------------------------------------*/
FoamFile
{
    version     2.0;
    format      ascii;
    class       volScalarField;
    location    "100";
    object      p;
}
// * * * * * * * * * * * * * * * * * * * * * * * * * * * * * * * * * * * * * //

dimensions      [0 2 -2 0 0 0 0];


internalField   nonuniform List<scalar> 
10042
(
0.0282533
0.0264171
-0.019024
-0.0011338
-0.475994
0.025077
-0.304361
-0.274519
-0.0124465
0.0175176
-0.481258
-0.0014912
-0.00106509
-0.00151515
0.0637803
0.0235048
0.0236104
0.0178379
0.0280923
0.245674
0.0135609
-0.227456
-0.000516823
0.00106294
0.0263817
-0.0766663
0.0279493
0.027574
-0.00211817
0.0196434
0.0300198
-0.444911
0.0174259
0.000766627
-0.0511509
0.00150191
-0.0723146
-0.0869881
0.00172232
0.0103661
0.26716
0.0552996
-0.305518
0.0310521
-0.478401
-0.135566
0.04819
-0.154582
-0.065465
-0.0904965
0.0163467
-0.024545
0.0653946
-0.03246
-0.0722828
0.0248774
-0.00306845
0.0476204
7.3976e-05
0.0631398
0.02846
0.0285086
-0.0521178
-0.018032
0.0609769
-0.0028703
0.0532183
0.235478
-0.406194
0.0221852
-0.0315915
0.27404
0.0323684
0.151717
0.0524711
0.000806361
-0.473036
0.0284388
0.114911
-0.305608
-0.0628173
-0.46667
0.0145838
0.0530351
0.0535589
0.02093
0.0271834
-0.21004
0.0393555
0.0266508
-0.0138586
-0.476383
0.0263207
-0.0238449
0.0209543
0.00494513
0.0237217
0.0113476
0.0102026
-0.0080129
0.0176149
-0.199862
-0.27526
0.020754
0.0344506
-0.0511968
0.0315959
0.0235657
0.013595
-0.00664997
0.00526297
0.0173543
-0.0205241
-0.405882
0.0600314
0.0206738
0.0358069
0.028578
0.00424047
-0.467543
0.0392987
-0.271997
0.0271556
0.0333284
-0.196381
0.0154317
-0.273148
-0.0663306
-0.0420193
0.0258365
0.116382
0.0464421
-0.486166
-0.243377
-0.00703422
-0.113991
-0.467107
-0.0139698
-0.161541
-0.223263
0.04084
0.0363179
0.0401223
-0.247289
-0.0203613
0.0176603
-0.133129
-0.0104852
0.0114469
0.00662968
-0.0148196
0.0168886
-0.306541
-0.477843
0.0267343
-0.00104764
0.0738408
0.0288871
-0.113999
-0.449406
-0.464728
-0.220827
0.0309413
-0.0142961
0.0103597
0.0457209
0.0337557
-0.435232
-0.448495
-0.476632
-0.0308332
0.0147989
-0.467644
0.226775
0.0974353
-0.318086
-0.39955
0.0292634
0.242292
-0.0500045
0.076126
-0.445029
0.0540764
-0.0637228
0.0554751
-0.466558
-0.264861
-0.000441714
-0.455469
-0.0377575
-0.0707143
0.0421464
-0.311696
-0.462414
-0.192729
-0.406307
-0.0562092
0.030629
-0.000778856
-0.010129
0.120775
-0.0016663
0.0156683
0.200377
0.0545277
-0.00079246
-0.122556
0.0268504
0.0184685
0.0251507
-0.391099
-0.00167513
0.0413736
-0.135199
0.0718763
-0.271388
0.0491404
0.021856
-0.159376
0.00910692
-0.0240299
0.0740066
-0.227662
-0.089731
0.0778067
-0.0803592
-0.264395
0.0191548
-0.246156
-0.0327633
-0.0132659
0.109734
0.0152843
-0.0319981
-0.0195568
0.00348064
0.00141218
-0.00197709
-0.039383
-0.0463303
0.0311352
0.0286742
0.0105655
-0.0199045
0.0202186
0.0296929
0.00164982
0.0336866
-0.0314508
0.0176999
-0.000706299
0.0215439
0.0284147
-0.246249
-0.222267
-0.454763
0.103985
0.0827798
0.0640165
-0.146427
-0.298429
-0.0374416
0.0315022
-0.00178545
-0.00777628
0.00167647
-0.232613
-0.0398507
0.0264952
0.0249979
0.129584
-0.0326536
-0.140155
0.0884266
-0.245051
-0.0382384
-0.0452273
0.00268483
-0.0550211
-0.0212773
-0.0537458
0.0343693
-0.0762015
-0.487923
-0.000371993
-0.0151839
-0.298894
-0.140472
-0.000333661
0.0290272
0.0277342
-0.306805
-0.144971
-0.255058
0.016387
-0.000821892
0.0188052
-0.0125563
-0.261582
0.0297858
0.028294
0.0155582
0.0493113
-0.0850473
0.0550658
-0.117189
-0.393089
0.0619745
-0.315388
0.0203034
-0.0530682
0.0281344
-0.478694
-0.20221
-0.416793
-0.401458
3.6581e-05
-0.0405093
0.0216593
0.0439269
-0.0801997
0.0207291
-0.0419465
0.00486586
-0.00225497
0.0307001
-0.124372
0.0237492
-0.0354291
0.0455694
0.0529611
-0.404062
0.0207232
0.0268332
0.0140381
-0.0174547
-0.0702462
-0.194834
0.0733825
-0.307826
-0.0867195
-0.0599501
0.0463522
-0.00173654
-0.0188592
0.0180034
-0.293023
0.0338931
-0.00200957
-0.14248
0.0164083
0.0393639
0.053003
-0.148398
-0.0215125
0.0765295
-0.0396728
-0.0368432
-0.0129058
0.0320363
-0.315127
-0.139624
-0.0292992
-0.0701082
0.0202289
0.0151782
0.0198476
0.0420561
-0.39117
-0.0432061
0.0200243
0.0598841
0.0181844
0.0237143
0.228706
0.0309984
-0.00692756
-0.467629
0.0117346
-0.280517
-0.294044
0.150038
-0.324557
-0.452454
0.0105846
0.128814
0.0272126
-0.0956802
0.0245098
0.048559
-0.193189
0.0212421
0.0462004
-0.164769
-0.000642386
0.0138695
0.216374
-0.0416577
-0.00237877
-0.00999447
-0.44622
-0.206384
0.0149052
0.241869
-0.487062
0.00857787
0.020062
-0.00308129
0.0240854
-0.00217819
-0.00035181
-0.315811
-0.275449
0.049148
-0.412042
-0.0013019
0.0297198
-0.347844
-0.0241456
-0.284974
-0.151005
0.0551347
-0.00795852
-0.00952773
-0.110108
-0.0319117
0.0151347
0.0275817
-0.480103
0.0698377
-0.438671
0.0608126
0.0168084
0.0202353
-0.309104
0.0175158
0.112275
0.0260966
-0.0206058
-0.446793
-0.056512
0.0358598
0.00452894
-0.457949
0.0249999
-0.0579811
-0.00320065
0.0023814
-0.404363
-0.320863
0.0133381
0.0580547
-0.0449699
-0.000593305
0.0232278
0.0345478
-0.462399
0.0331005
-0.00150187
0.0456385
-0.268233
-0.148835
0.0183169
-0.0510673
-0.464772
-0.0880647
0.0379544
0.031716
-0.245834
-0.0282498
0.0167358
0.117742
-0.0136674
6.70696e-06
0.0759402
-0.00227815
0.0487285
0.0320941
0.0179006
-0.479884
0.00750138
-0.0293801
0.0205201
0.0264696
-0.044719
0.0135285
-0.0164365
-0.411738
0.0229492
-0.307117
-0.0361855
0.0177318
0.017471
-0.217626
0.0357603
0.036062
0.0146569
-0.0305169
0.0700621
-0.297824
0.0256951
0.0563574
0.0145156
-0.0870017
0.019198
0.0342576
-0.0244741
0.0212428
0.0218148
-0.335843
-0.467052
0.02126
-0.0660192
-0.0672546
-0.0651312
0.053709
0.00302171
-0.258163
-0.116192
-0.0131863
-0.00742008
-0.025555
-0.0231175
0.0120642
-0.458462
-0.0639893
-0.0303501
-0.00183202
0.00650537
0.0517877
-0.264332
-0.0577936
0.0280074
-0.462721
-0.00789225
-0.122292
-0.0598747
0.0232137
-0.00686686
-0.0884195
-0.125381
-0.339778
-0.435974
0.078241
0.115816
0.0198772
-0.0348822
0.0569458
0.0200166
-0.470797
0.00134382
0.020697
-0.127978
0.0214372
-0.230021
-0.0343051
-0.207368
-0.00410802
0.0253214
-0.0398806
-0.0535771
-0.0662231
-0.062824
0.0187364
0.0247448
-0.0883149
-0.0114196
0.00634615
0.0182079
-0.0188271
0.0312932
0.0793837
-0.148447
0.162563
0.0282563
0.0241115
0.0145018
0.0357222
0.148508
0.0140176
0.00130785
-0.219945
-0.00194173
-0.125513
-0.0996195
0.0294053
-0.463869
-0.112439
0.0224589
-0.281056
-0.0214865
0.0186572
0.0471699
0.0329169
0.023011
-0.035824
0.0528704
-0.0103648
0.0384284
0.0337256
-0.00569643
-0.0494713
-0.0905007
0.0337375
-0.0484778
-0.00611204
-0.0836295
0.0461487
-0.00075338
-0.00754059
0.0811846
-0.00887968
0.0191928
-0.349561
-0.00258723
0.152697
0.0346566
-0.0351398
0.00677445
-0.089911
0.0206161
-0.115769
-0.00172481
-0.27469
0.023946
-0.306525
-0.0104696
0.0540882
0.0260882
0.0501705
0.0205073
-0.0341174
0.0310678
0.283377
-0.433627
-0.224877
-0.0470081
0.069126
0.0140716
0.028747
-0.135557
0.0170992
0.111614
0.0190422
-0.334735
-0.0944303
-0.437288
-0.0571099
0.0247892
0.0206985
-0.0516504
-0.0373523
-0.0647712
0.000301962
-0.0167981
-0.217588
0.0168303
0.0359311
-0.0502643
-0.334403
0.0519241
-0.047589
-0.0850367
0.0254208
-0.306933
0.000606065
0.0144134
0.0178877
-0.013758
-0.477275
-0.140975
-0.337757
0.0149324
-0.397281
-0.449054
-0.285034
-0.0652861
-0.148883
-0.240787
-0.00194549
0.0460662
0.026645
0.11987
-0.485055
0.0122707
0.0472555
-0.311282
0.0321897
0.0181125
0.0070293
0.034324
0.0208699
-0.0227335
-0.20837
-0.423576
-0.0217705
0.0215751
-0.486702
-0.314581
0.0147722
0.0373072
0.016397
0.0248169
-0.357724
-0.139191
-0.110022
0.0368218
0.0182624
-0.0148969
0.0781025
0.0282381
-0.08714
0.0579258
-0.406763
0.0240173
0.0176864
-0.04286
0.0123407
-0.0723952
0.0972827
-0.0381525
-0.441286
-0.329076
0.0264995
0.0215234
-0.312212
-0.48602
0.0216269
-0.0205977
-0.279713
0.156475
0.107785
0.0452402
0.0141302
0.013991
-0.16396
-0.0455891
0.176915
0.0190259
-0.395842
-0.380848
0.0342779
0.0275461
0.278094
0.0267688
0.00638591
0.0198853
-0.486981
-0.323722
-0.355274
-0.028484
-0.142332
-0.000411722
0.00219807
0.00687814
0.0268724
-0.170082
0.0190265
0.0336329
-0.140612
0.0523348
-0.153515
0.0159348
0.0281458
0.00457492
0.0280991
-0.23733
0.0191779
0.0221515
-0.113434
0.0557834
0.0481677
0.021941
-0.197821
-0.313693
-0.31234
0.0575933
-0.47241
-0.446363
0.0318635
-0.000795353
0.041446
0.0779571
-0.313787
-0.00549763
0.018055
0.0194378
-0.31083
0.0288418
-0.0272186
0.0180402
0.0375233
-0.0778662
0.00709254
0.00872492
-0.0806853
0.0352584
0.0267856
-0.00911055
0.046168
-0.0143636
0.0302451
0.031562
0.0232067
-0.243795
0.0217239
0.0473566
0.0295877
-0.0537663
0.15187
0.018868
0.0483469
-0.0257296
-0.317696
-0.00020044
-0.0120589
-0.0776919
-0.197154
0.213274
0.0583062
-0.444896
-0.28757
0.0649231
0.00414215
-0.284545
0.0298009
0.0204985
0.00476804
0.0202347
-0.13602
0.0167208
0.0235132
0.109205
-0.00259864
-0.000581935
0.0925632
0.0742169
-0.392806
-0.0393642
0.0172539
0.023866
-0.129656
0.0216589
-0.312062
-0.0458597
-0.464955
0.0194175
-0.0471191
0.0157537
0.024039
0.0367642
-0.201983
0.146314
-0.0808613
-0.457732
0.0186651
-0.331134
-0.0452469
-0.00315223
0.146757
-0.0773144
-0.330511
0.0279757
0.0739865
0.0622032
-0.00111959
0.170576
0.0183355
0.000233664
0.0180231
-0.0756145
0.0264929
0.0177963
0.00570924
0.00552943
0.0195744
0.0222266
-0.00627219
0.0182758
0.0271078
0.0695149
0.0170233
0.087177
0.0332223
-0.315394
0.0202147
-0.392253
0.11318
-0.358053
-0.0872173
-0.0456044
-0.450564
-0.0932338
-0.101645
-0.309041
-0.0783859
0.0195915
0.0155026
0.0172638
-0.2516
0.00805156
-0.48676
0.0178204
-0.418648
-0.299938
-0.0797204
-0.0331261
-0.466795
-0.386984
0.0838719
0.0333781
0.0259495
-0.0482316
1.98008e-05
0.00329855
-0.104225
-0.191214
0.0295671
0.00905149
0.0675226
-0.315001
-0.0936493
0.0253842
-0.0238665
-0.192858
0.0265149
0.0220833
-0.486223
0.0381124
0.0291773
-0.225886
0.0246423
0.0482216
-0.444302
-0.33488
-0.463839
0.0352093
0.0468128
-0.28676
0.00544499
-0.0012267
0.0232486
-0.0573008
0.0278953
0.0158456
-0.0328896
0.208428
0.0230561
0.0103071
0.0444382
0.0299927
-0.000938938
0.0397906
0.00114813
-0.232703
0.0152324
0.0314007
0.0303399
0.00856431
0.0159104
-0.0142437
-0.487644
-0.0735573
-0.0100433
0.0316861
0.15478
-0.310619
0.0307562
0.0158701
0.0313512
-0.00940921
-0.443639
-0.0838065
0.000647957
0.015123
-0.0745163
-0.0460749
0.0279771
0.0242424
0.0262174
-0.0148907
-0.0582773
0.0411706
-0.28942
-0.063492
0.0286385
-0.0432387
-0.459061
0.0657522
-0.210893
-0.0123862
-0.28608
0.0198591
-0.0255216
-0.0522883
-0.133166
0.0349068
-0.0182104
0.0222201
-0.0338255
0.173741
-0.0787456
-0.237174
-0.0313619
0.0142368
0.0299585
0.0301439
0.0325677
-0.285677
0.0240427
-0.000955873
0.032936
-0.0488597
-0.389121
0.0137647
0.011786
-0.184747
-0.0158944
0.029288
0.0380806
-0.178815
-0.0253608
-0.0586528
-0.435408
0.0274211
0.0270839
-0.315391
0.0149126
0.0221036
0.0107973
-0.0159723
-0.0110702
0.0436673
0.0185676
-0.0262983
-0.0364017
-0.449502
0.0308756
0.0177895
0.0451462
0.0755853
-0.252667
-0.461847
-0.0470282
0.0204336
-0.331166
-0.0192612
-0.402571
0.0267138
0.0093312
-0.00197224
-0.459724
0.0204216
0.0422973
0.0281212
-0.0900177
-0.314134
0.0061171
-0.117798
0.031095
0.0181735
-0.0896147
-0.0452087
0.0136487
-0.0382166
0.0304362
-0.310721
-0.486241
0.0262808
0.0780234
0.0224612
-0.242398
0.0248799
-0.43205
0.034083
-0.0132243
0.000342979
-0.0134839
-0.0419375
0.0170463
0.0302162
0.0527682
-0.279268
-0.188006
0.00196476
-0.0482531
-0.0464339
0.00466014
-0.014966
0.111568
-0.0090016
0.0468375
0.0842901
-0.0674169
0.017119
0.0148501
0.0608294
-0.00818739
-0.231959
-0.0125971
-0.143218
0.0483093
0.02891
-0.0190187
-0.101411
-0.0351777
0.00876629
-0.0498103
-0.163166
0.0426041
0.00915804
-0.0410568
0.0166647
-0.472963
-0.0681619
0.00044842
-0.483097
0.0790575
-0.0903623
-0.198419
0.00722335
-0.069451
-0.448644
-0.0600459
-0.196436
-0.0148544
-0.0240155
0.0101621
0.0471198
-0.0603425
0.00242981
0.167651
0.0194145
0.0446467
-0.0833695
0.0320085
-0.126545
-0.0466889
0.0104323
0.0169073
0.108107
-0.171575
-0.00319397
-0.0833699
-0.487587
0.189591
-0.0143411
-0.0611801
0.0165075
0.00178969
-0.444046
0.0149743
0.00853119
-0.132666
0.0260923
-0.0617697
-0.00342313
0.0236364
-0.31213
0.000168965
-0.000114407
-0.026523
0.0359335
-0.00998817
0.0168949
-0.4455
0.0462945
0.0178417
-0.00718925
-0.162569
0.063668
-0.00749747
0.038418
0.0277944
0.0311973
0.0357852
0.000337504
0.0284102
0.00841156
-0.0636042
-0.0850853
-0.0408567
0.0797635
-0.104313
-0.168778
0.110459
0.109643
0.059474
-0.308817
0.0461036
0.00424437
0.0136807
0.0167469
0.0491779
0.0111492
-0.413728
-0.489629
-0.302429
0.0186625
-0.0286929
-0.0215653
-0.00576812
0.162216
-0.0247018
-0.326492
-0.130858
-0.489075
-0.167804
-0.216714
-0.318363
-0.00596503
-0.0376249
-0.0130534
0.00561626
-0.317166
-0.0168045
0.0987529
0.0121695
0.0236309
0.0271737
-0.460136
-0.318924
0.0182681
-0.456935
-0.350929
-0.203095
-0.123201
-0.156395
0.000197722
-0.491768
0.0288041
-0.314647
-0.489206
0.0186169
0.0315635
0.0168467
0.0577548
-0.0522466
-0.0862014
-0.236152
0.0184882
0.0274802
-0.0363016
-0.0231629
0.0155335
0.0142943
0.0160334
0.0283961
-0.177772
-0.15767
0.026802
-0.306952
-0.0366424
0.0264424
0.0869965
-0.288591
0.0365345
0.00531697
-0.210464
-0.236066
-0.0113316
-0.0250827
-0.373744
-0.142369
-0.485984
0.00977034
-0.202878
-0.395515
-0.442794
0.0221644
0.0356279
-0.131964
0.0535478
-0.0467758
0.0395443
-0.483409
-0.13085
-0.254812
0.0264402
0.0155565
-0.460667
-0.177054
0.0251372
0.0267642
-0.479707
0.0355576
-0.00819717
-0.018124
-0.0381063
0.0183945
0.103818
0.044692
-0.0452606
-0.000375204
-0.0866117
-0.426556
-0.103383
-0.0848553
-0.448982
-0.180504
-0.0019854
0.00242288
0.00270024
0.0167001
-0.233694
0.108543
-0.0243861
0.0268823
0.0333357
0.00136287
0.0693879
0.000178617
0.0798641
-0.0471363
0.0206043
-0.317724
-0.458362
0.0202349
-0.311248
0.0478157
-0.0592623
0.0263014
-0.00247957
-0.446872
-0.175681
0.0156504
0.00448988
0.0376356
-0.0502749
0.0196174
-0.195608
-0.00245873
0.0288691
0.00388674
-0.312038
-0.482631
-0.00848378
0.0531956
-0.16572
-0.113846
0.0810514
-0.311167
-0.471651
-0.0172863
0.017685
0.0499397
0.0501304
-0.315397
0.0277654
0.0190495
-0.248541
-0.201637
0.0269097
0.0371768
0.257606
0.0186761
0.0283072
-0.210801
-0.173727
-0.478891
0.0155227
-0.10369
0.10099
-0.131227
0.0792392
0.0238764
0.0252273
-0.00147147
0.104032
0.0174425
0.0281907
-0.00873846
-0.483932
-0.00458413
0.0146364
-0.00532788
-0.0807173
0.0233632
0.0174722
-0.00224152
0.0252262
-0.357826
-0.44132
0.0500076
-0.295551
-0.435245
-0.487468
0.0287117
0.0451575
0.0143214
0.0302664
0.027977
0.0256244
0.000961828
0.0173214
0.00859878
0.079561
-0.458658
0.00793897
-0.221654
-0.0751947
0.0217717
0.0524436
-0.0279181
0.0494544
0.0185794
-0.0295386
-0.0187975
-0.363488
-0.112431
-0.00817129
-0.440975
0.0172533
-0.00465511
0.000680462
-0.261514
-0.117925
0.0766584
-0.0169444
0.0300528
0.0227859
0.0928431
-0.108199
-0.0560461
-0.299512
0.0228059
0.0144304
-0.342954
-0.0189046
0.0134965
-0.219134
-0.0324497
-0.0537975
-0.256091
-0.164635
-0.467877
0.010205
-0.0162878
0.01723
0.0304786
0.0295162
-0.0114444
-0.109973
-0.0820698
-0.449437
0.0197352
-0.311371
-0.375748
-0.042637
-0.368662
0.0383263
-0.20576
-0.45182
0.0153006
-0.191247
-0.0110351
0.0686316
0.0187604
-0.240263
0.0225857
-0.306747
-0.0879697
-0.46365
0.0146304
-0.229476
-0.013901
-0.0342683
-0.245937
0.0141427
-0.466828
-0.434882
-0.231933
-0.384063
-0.183189
-0.488678
-0.0790609
0.0303448
-0.022702
-0.126746
-0.298505
0.0218842
0.0142028
-0.0182029
-0.111465
0.0462991
0.0436129
0.0302233
-0.448258
-0.315996
0.035823
-0.392426
-0.00849239
0.00580247
-0.0430943
0.041665
-0.316693
-0.0288879
0.00414919
0.193161
0.0298475
0.0163515
0.0181614
-0.22851
-0.15659
-0.0106507
0.0559547
0.0292474
0.0188149
0.00897974
-0.467717
0.025199
0.00917805
-0.267049
-0.245471
-0.0442522
-0.00112561
-0.318471
0.0658741
0.0487865
0.0247001
0.0745844
-0.0326713
-0.063755
0.0037889
-0.300968
-0.0413307
-0.151483
-0.00773541
-0.0591841
-0.0887735
-0.063289
0.0454993
-0.355368
0.0167642
-0.203597
0.0253294
0.0264903
-0.0563134
-0.233848
-0.0369548
-0.0530896
0.0205424
0.0443654
-0.157932
-0.15089
0.024944
0.0196594
0.0139352
0.11294
-0.141762
0.024297
-0.117877
0.0220505
0.0281485
-0.466292
0.0309581
-0.482589
0.0468452
0.105383
-0.146385
0.0283198
-0.0716156
-0.140192
-0.209594
0.0196121
-0.134821
-0.0307913
0.0224764
0.0333589
-0.468387
-0.311964
0.0278445
0.0378567
-0.0133437
0.0130393
-0.190192
-0.308691
0.0239548
0.093758
0.00560062
0.00911991
0.0203289
-0.262145
0.00271984
0.0300588
0.0317088
0.0094681
0.0366125
0.0175572
0.0181401
-0.0827793
-0.368585
-0.0109732
0.0275332
0.192234
-0.170613
0.0115429
-0.308075
-0.137354
0.00992355
-0.0101284
-0.0265002
-0.191474
-0.00115863
-0.141095
-0.0262992
-0.0396808
0.0100454
-0.125318
-0.00229995
0.042206
0.0386575
0.0442829
-0.274428
-0.287657
-0.00331958
0.023082
-0.472887
-0.220931
-0.168299
-0.0407025
-0.143641
-0.0104824
-0.468274
-0.102938
-0.0171194
-0.333186
-0.326666
0.0428845
-0.103643
-0.140886
0.0038402
-0.421279
0.0419681
-0.0665143
-0.0486694
0.0359782
0.0153365
0.0359495
0.019409
0.0126345
0.0184923
-0.267182
0.0141955
0.0125782
0.00295535
0.0206208
0.014295
0.0222103
-0.125642
0.210609
-0.0438277
0.0224663
-0.356263
0.029469
0.00910106
0.0274269
-0.0128226
0.0281186
0.0141708
-0.0741788
-0.177588
0.0268276
-0.080247
0.11171
-0.00269707
0.0335752
-0.326392
-0.0079511
-0.00154635
0.0255595
0.225357
0.0222363
0.0179343
0.00431614
0.0295637
-0.301187
-0.450998
0.0109775
0.0110288
0.0215229
0.0859892
-0.00163159
0.0115423
0.0981113
-0.0482453
0.0403271
0.0682963
0.028257
-0.217016
-0.21092
-0.0364284
-0.0942706
-0.0119678
-0.455977
0.0264117
0.0211965
-0.455322
0.0827558
-0.00955474
-0.197239
0.194524
-0.427956
0.0735378
0.236294
-0.0575607
-0.0519329
-0.458
0.0398075
-0.18758
-0.0648633
-0.231204
-0.452568
0.0249552
0.0388455
0.0264692
-0.197486
-0.00231411
-0.443401
-0.0971538
-0.433738
0.0621687
0.210239
-0.276917
0.0128729
0.0347082
0.20992
-0.0182291
0.0297296
-0.0404522
0.0486051
-0.175455
-0.184033
-0.1853
-0.442636
-0.195089
0.0171114
0.0176374
-0.311964
0.180881
0.00326012
0.0143241
-0.371946
-0.00910959
-0.0461104
0.0232878
0.0309761
0.0171423
0.0180982
0.185454
0.0471696
0.00140389
-0.485556
-0.4265
0.00598804
0.0675517
-0.0648487
-0.24061
0.0141887
-0.0233525
0.0160358
0.114151
-0.392229
0.0288849
0.108559
0.00206886
-0.302185
0.01779
-0.0408527
-0.257534
-0.251006
0.0252098
0.0668442
-0.173248
-0.148138
0.0551414
0.0150067
-0.464791
0.0152857
-0.0605028
0.0453804
-0.0727392
-0.00787695
-0.0115014
-0.0105025
-0.168327
0.0156027
0.0152165
-0.00525076
-0.0234682
0.0197028
0.00240896
-0.196921
-0.39316
-0.313011
-0.0557808
0.0301802
0.127106
-0.0403346
-0.476112
0.0227473
0.128638
0.000295367
0.0325082
-0.0291449
-0.0793318
-0.312937
0.034775
-0.471751
-0.0215946
-0.00331526
-0.0152139
-0.315585
0.0445222
0.197658
-0.487686
0.0260504
0.0465884
-0.466814
0.0303586
-0.431048
0.0295397
-0.0865483
-0.4595
-0.0339896
0.0251407
0.0109271
-0.441344
-0.0645117
0.0235752
0.121317
0.0256667
-0.0346975
-0.187724
-0.446512
-0.0467885
-0.416493
-0.414932
0.0322345
0.0293116
0.0466874
-0.282466
-0.0186462
0.0216308
0.0194083
-0.058229
0.195424
0.0267771
0.0644175
0.0176354
0.023051
-0.311125
0.0209461
-0.454101
-0.00725183
-0.0610021
-0.10253
0.00952929
-0.00353786
-0.45042
-0.491369
-0.15664
0.024963
-0.0202037
-0.0869772
0.00846708
-0.0938332
-0.20695
-0.108558
-0.00202006
-0.458097
-0.44448
-0.000503852
0.0174638
0.00251232
0.0177389
-0.0353141
-0.0557767
-0.415299
0.0170257
0.0347434
-0.0844553
-0.442458
-0.00755202
-0.380241
-0.0109425
-0.2277
-0.149838
-0.323292
-0.104774
0.0953
0.101313
-0.00859429
-0.00279675
-0.28745
-0.010773
0.0252218
-0.389675
0.0175345
0.0276716
-0.000753865
-0.13248
-0.0844395
-0.35911
0.186576
-0.0721591
-0.0210502
-0.023529
-0.457189
-0.205226
-0.00276009
0.0310884
-0.00733631
-0.141383
-0.457639
0.0437283
-0.449181
0.0790229
0.00590377
-0.483679
0.0266332
-0.443126
-0.432052
0.00103441
-0.0359473
-0.204592
0.0310403
0.0607314
0.0112529
-0.488578
-0.0632475
-0.00169546
-0.453427
-0.414583
-0.069719
-0.0571923
0.0230571
-0.230025
-0.463848
-0.0366127
-0.0449992
-0.484426
0.100461
0.0567809
0.0167141
-0.279543
-0.454591
0.210602
0.0422254
-0.0653587
0.0166613
-0.412675
-0.17115
-0.0860966
-0.361347
-0.464098
-0.00909779
-0.244134
0.0230815
-0.406765
0.106969
-0.0558825
-0.0539314
-0.381505
-0.0031711
-0.113426
-0.468259
-0.384652
0.00180228
0.0172367
0.00934519
-0.0268469
-0.407305
-0.262015
-0.451616
-0.132838
-0.0853519
0.00138046
-0.4572
-0.174178
0.0208796
-0.0244171
-0.444284
-0.469115
-0.461197
-0.457188
-0.444675
-0.457051
0.0224905
0.0938414
-0.0701145
-0.0202285
-0.454113
-0.379513
0.0170162
-0.306494
0.0233355
0.0325218
0.00813931
-0.0835638
0.0187584
-0.452668
0.22174
-0.214804
-0.0157139
-0.352388
0.0926526
-0.293493
-0.459979
-0.03397
-0.0704223
-0.00751701
0.193048
-0.00634982
-0.0113636
0.016782
-0.470698
0.00952223
-0.00353225
-0.159122
-0.0420033
-0.448535
0.0154366
-0.484983
0.0345901
0.016304
0.0225109
0.0283833
-0.0586183
-0.0179766
-0.476043
0.0725556
-0.084105
-0.31723
0.0103413
-0.475208
0.011601
-0.446767
-0.235956
-0.49043
-0.162246
0.0217875
0.0272743
-0.31226
-0.0245463
-0.060224
0.0230741
-0.0752933
-0.489079
0.0112167
0.0168594
0.0280173
0.0273862
-0.425519
-0.441612
0.00619686
-0.00297354
-0.444956
-0.457741
0.0193455
-0.30141
0.0266476
-0.466459
-0.475755
-0.134239
-0.203291
0.142664
0.143985
-0.485031
-0.131509
0.0441042
-0.00502512
0.00919847
-0.458762
-0.432362
-0.000280278
0.102307
-0.483308
0.0186944
-0.481985
-0.0189037
-0.0225626
-0.00644102
-0.395874
-0.134527
-0.00175534
-0.489364
0.0167113
-0.294336
-0.299397
-0.00146535
0.0290749
-0.213679
0.0340525
-0.00207799
0.0110867
-0.314164
0.0627892
0.0168399
0.0203737
-0.326799
0.0417013
-0.0180158
0.0264129
-0.484619
0.018263
-0.0869804
-0.00210597
-0.483548
-0.30292
-0.0443474
-0.144467
-0.146024
0.0278419
-0.098488
-0.490474
-0.00552832
-0.182408
0.00829688
-0.353979
0.0254336
-0.491765
-0.335919
0.0754211
-0.485296
-0.487181
0.179425
-0.0326313
-0.417371
0.0137287
-0.466506
0.0724022
-0.388804
0.0202816
0.0521499
-0.105512
0.0810823
0.0433159
0.0470518
0.0180517
-0.446111
-0.177994
-0.485983
-0.314782
0.100857
-0.00302219
0.014644
-0.470333
0.0619332
-0.00452331
0.019968
-0.436941
-0.382089
-0.462662
-0.484003
-0.084323
0.0437574
0.00939496
-0.138341
-0.129418
-0.375284
0.0267086
0.0281835
-0.44642
-0.165639
0.0198702
-0.13764
-0.388053
-0.209213
-0.0122446
0.0563255
-0.363351
-0.388226
-0.29491
-0.244487
0.027453
0.0242105
-0.00244606
0.0194423
0.0434954
0.0278077
0.0406992
0.0703835
-0.0745822
-0.0643835
0.00478555
0.0278752
0.0667151
-0.0326783
0.0147562
0.0591586
0.00936581
-0.0108035
0.03327
0.0108058
0.0204317
0.0290308
-0.269564
-0.00701531
0.0642956
-0.365073
-0.368112
-0.479355
-0.452847
0.00424615
0.0166195
0.0205864
-0.319602
-0.0192809
-0.00446364
0.0245503
-0.307758
0.0795431
-0.0878297
-0.293807
0.0476828
0.0300432
-0.0261492
0.0188357
0.0439119
0.0267362
0.0356686
0.00728101
0.0306209
0.00868837
0.0433071
-0.054007
-0.361415
-0.104435
-0.112784
-0.158952
-0.196107
-0.0978422
-0.170297
-0.0196596
-0.48435
0.10142
0.0693814
0.0315214
-0.0348371
-0.130439
0.0336833
-0.063948
-0.450507
0.129989
0.256354
-0.206829
0.00332755
-0.103915
-0.0407755
0.0344887
-0.0394744
0.0273571
-0.150134
-0.105324
-0.318125
0.00763098
-0.105647
0.105367
-0.362436
-0.263566
-0.127119
0.0256985
-0.132199
-0.00129334
-0.167022
0.00892557
-0.315968
-0.00155509
0.104487
0.0239945
-0.0114932
-0.190446
-0.0287281
-0.364205
0.0297802
-0.0614165
-0.0307579
0.0247624
-0.289177
-0.449591
-0.231665
-0.0990987
-0.121904
-0.0179138
-0.0101679
-0.356175
-0.194201
-0.0134304
-0.0323515
0.104757
0.0354943
-0.307556
0.00474917
-0.436656
-0.244688
-0.224097
-0.0357555
0.0470253
0.000341234
-0.0123988
-0.211791
0.132507
0.110099
-0.483682
0.0255466
0.0700665
0.095889
-0.327719
-0.00862821
-0.255489
-0.00300274
-0.414662
0.0174906
0.026119
0.163646
0.0152022
0.0402052
-0.235924
0.0418589
0.0352348
-0.00884818
-0.0984302
-0.00402509
-0.315401
0.0328928
0.0389776
0.0109148
-0.218881
0.0121106
0.107472
-0.116191
-0.309004
-0.383384
-0.283939
0.0760995
-0.325891
-0.0913359
0.0539442
0.11289
0.0219764
0.0288586
-0.485356
0.0750606
-0.00169095
0.0252263
0.0170428
-0.0694709
-0.16237
0.0274252
0.13072
-0.214649
-0.228354
-0.104693
0.0226987
0.0166517
-0.314508
-0.0450701
-0.0103079
-0.313218
-0.30799
-0.000442935
-0.00536975
0.0493422
0.0287638
0.176219
0.0165871
-0.243811
0.0270405
-0.315585
-0.00182335
-0.448036
-0.0338879
0.0279455
-0.113644
-0.00642793
-0.0233307
0.0269302
-0.0775384
-0.352002
0.019926
-0.236322
0.020312
0.0173638
0.19113
-0.0155184
0.0189456
0.0178375
-0.00242135
0.0240256
-0.00763008
0.0238082
-0.289496
0.0166576
-0.00994897
-0.0194281
-0.00423585
0.0297292
0.0253291
-0.00827726
-0.376173
0.201449
-0.0041107
-0.0368645
-0.0208439
0.0272557
-0.217923
0.0162023
0.0162463
-0.448667
0.0239087
-0.12402
-0.103618
0.0367026
-0.0191138
-0.241451
0.0278862
-0.255526
0.218693
-0.0197367
-0.31625
-0.33982
0.121239
0.0386488
0.0112073
0.0269079
0.0622459
-0.237956
-0.00737451
0.0114934
-0.0114826
-0.0911451
0.0248167
-0.0057004
0.0224911
-0.11964
-0.287927
0.0127749
-0.208599
0.0151514
-0.0427563
0.000744336
-0.00241569
0.00150169
0.0324278
0.0151794
-0.00186038
0.0311537
0.0365268
-0.128308
-0.0215182
-0.403903
-0.00204273
0.00905386
-0.177872
0.022239
-0.210176
-0.134248
-0.0316858
-0.0224694
0.0129923
-0.0215135
-0.0461714
0.0444115
0.154105
-0.0606296
0.0351515
-0.00322803
0.0563418
-0.311197
-0.0243268
0.023321
-0.31227
-0.218203
-0.0156059
-0.000967036
-0.424691
0.0172355
-0.0412129
0.0590048
-0.18749
-0.0137443
0.00153197
0.0930446
0.035599
0.0173418
-0.00370439
0.0171263
-0.151982
0.0247359
0.0245121
0.014484
-0.0285322
-0.291949
0.0120927
-0.444984
0.257336
-0.00506377
-0.340539
-0.249728
-0.0190201
-0.0374509
-0.130491
0.0108356
0.0347859
-0.315631
0.0149029
-0.37453
0.106972
-0.00244064
0.0716321
-0.0311087
0.0245056
-0.0180372
0.214063
0.0697981
0.0169538
0.0262912
-0.0269195
-0.445305
-0.0240294
0.00949877
0.121407
-0.224721
0.180829
0.0203448
-0.0084908
0.0455904
-0.018515
0.0729041
0.0678155
-0.0688229
-0.296807
-0.0174488
-0.0337712
-0.333468
0.010014
-0.114337
-0.250566
0.0233279
0.0227282
-0.210835
-0.179399
-0.153359
-0.453865
-0.320969
-0.232569
-0.294279
-0.0164236
-0.0414542
0.00412669
0.0254703
-0.304334
0.0514234
-0.14526
-0.0953695
-0.0553158
0.0690471
-0.353534
0.0261636
0.0222174
-0.00733109
0.027705
0.0308843
-0.0116752
-0.0241828
-0.163036
0.0342022
0.0476186
0.00637943
0.11262
0.0168719
-0.332007
0.0347823
-0.0375852
0.00968436
0.0272287
0.00689563
0.00818483
-0.0538206
0.0739408
0.0299694
-0.0138193
-0.00337282
0.0219862
0.0247806
0.124187
-0.0245177
0.0304538
0.0298455
0.0292728
-0.074959
0.0310859
0.0317739
-0.183981
0.0287302
0.0225346
-0.0476515
-0.316956
-0.139704
-0.0313428
-0.108122
-0.467705
-0.189084
-0.236707
0.0402965
-0.00147681
-0.0671284
-0.197975
-0.00889635
-0.216284
-0.0294836
0.0124163
-0.0213813
0.0234616
-0.172322
-0.180484
-0.163435
0.00423978
0.0107492
-0.034935
0.0468752
0.0791503
-0.0194719
-0.0392253
0.0955232
0.165497
-0.131711
0.018155
-0.0399379
-0.329077
0.0748177
0.0222478
-0.460424
-0.341924
0.0132246
-0.0271627
-0.0385237
-0.178493
-0.467256
0.0308857
-0.277994
-0.305021
0.173616
-0.153993
-0.0152638
-0.0354979
-0.0336208
-0.172593
0.0272047
0.12761
-0.0442968
-0.244766
0.0274846
0.0299053
-0.309117
-0.0447009
0.0765415
-0.00398114
0.02745
-0.0567664
-0.466159
0.00206927
0.0309676
-0.316838
-0.11834
-0.0242634
0.0302557
0.0171963
0.00167153
-0.016339
-0.216461
0.0245445
-0.0145317
0.064949
-0.129727
0.0423516
0.00379322
0.0190416
-0.0040836
0.00921014
-0.152097
-0.0208469
-0.0331176
0.00188446
0.0202998
-0.429311
-0.071309
-0.0252286
-0.48509
-0.0314196
0.0362159
-0.424173
-0.131438
-0.481242
0.0258552
-0.0400753
0.0237819
-0.0292167
-0.00468611
-0.483831
-0.0311824
-0.176608
-0.0118975
-0.0251095
-0.0396675
-0.0061437
0.135513
-0.358362
-0.353629
0.0256834
0.00535064
-0.281112
0.0720214
-0.00919258
0.0470355
-0.0681435
-0.322124
-0.161188
-0.012608
-0.311054
-0.121616
0.0360678
-0.0107446
-0.0201058
0.0892181
-0.489948
0.0256058
-0.0913381
-0.0361418
0.0282306
-0.00989495
-0.027777
-0.456773
0.102521
-0.0052661
0.0337394
0.0293025
0.102925
-0.00598171
-0.0387409
0.000576337
-0.0384999
-0.322947
0.0248349
0.026177
-0.180327
-0.00676207
-0.00928956
-0.307048
0.020639
-0.481816
-0.444712
-0.460683
0.0350593
0.0419662
-0.00409807
0.0168066
-0.0046528
0.0156991
-0.210407
-0.127931
-0.317544
-0.18847
0.00736386
-0.0104659
-0.0389485
0.00154837
0.0274488
0.0372043
-0.00890727
0.0028235
-0.0198381
-0.43378
0.0243101
0.0110252
0.020526
-0.0129353
-0.324507
-0.000320113
0.126697
-0.00449376
-0.132807
-0.0406807
0.0269073
-0.123712
-0.00284094
-0.0427669
-0.479467
0.0303529
0.034074
0.0338745
-0.32701
-0.463255
-0.0139511
-0.00222718
-0.0435671
0.04052
-0.014528
0.0120576
0.0160624
0.0291421
0.0162157
0.0121021
-0.039713
-0.44469
0.158925
0.0307083
0.0346555
-0.0255724
-0.0172957
0.0279985
0.0489984
0.118093
-0.460046
-0.0527079
0.0327714
-0.0303793
0.0270932
-0.184241
-0.00615456
0.0219505
0.07259
-0.0331052
0.0977642
-0.479146
0.0080412
-0.0641794
0.0193289
0.00537749
0.0290953
-0.0127674
-0.0396777
-0.192286
-0.172367
-0.00458171
-0.103411
-0.17598
0.0271857
-0.0886648
-0.0726656
-0.39152
0.0166443
0.0209655
-0.0318995
-0.00600311
-0.16816