/*--------------------------------*- C++ -*----------------------------------*\
| =========                 |                                                 |
| \\      /  F ield         | OpenFOAM: The Open Source CFD Toolbox           |
|  \\    /   O peration     | Version:  v2012                                 |
|   \\  /    A nd           | Website:  www.openfoam.com                      |
|    \\/     M anipulation  |                                                 |
\*---------------------------------------------------------------------------*/
FoamFile
{
    version     2.0;
    format      ascii;
    class       volScalarField;
    location    "400";
    object      ddt0(k);
}
// * * * * * * * * * * * * * * * * * * * * * * * * * * * * * * * * * * * * * //

dimensions      [0 2 -3 0 0 0 0];


internalField   nonuniform List<scalar> 
18355
(
-2.47442e-07
0.000888046
3.01072e-08
-1.25876e-07
-8.78773e-09
-1.7237e-06
-9.39828e-08
-8.30479e-07
-1.78202e-08
-0.00114653
-1.35992e-07
0.00091729
-1.66286e-06
-2.11029e-08
-1.15149e-07
-8.12052e-08
0.000454689
-9.42731e-08
5.81002e-10
0.0263073
-1.06581e-07
1.48519e-08
-0.00555018
-1.16301e-08
3.32027e-07
-1.91285e-08
2.86719e-09
-2.95637e-08
-0.000273193
4.79908e-08
-8.53217e-08
8.88483e-08
-9.7447e-08
-2.09256e-07
-2.98133e-07
-2.3116e-07
-2.25202e-08
2.12806e-06
-1.93599e-08
-1.46048e-07
-2.01829e-08
-4.00442e-07
2.81631e-08
-0.0021735
-1.65522e-07
1.87868e-06
-1.80136e-07
-1.76176e-08
-2.25621e-07
-7.73225e-08
-1.55708e-07
-5.73784e-08
-3.86476e-09
0.00329463
-4.83381e-08
-8.95937e-08
5.31221e-07
-1.13554e-07
4.7469e-06
-1.86137e-07
-7.4723e-08
-1.19158e-06
-1.00652e-07
3.66023e-08
0.000770581
-2.25836e-07
-0.00169397
-8.88029e-08
2.36018e-09
2.46831e-08
-3.15599e-07
-2.05191e-08
-2.2616e-07
-6.99027e-08
-7.56743e-07
-9.29607e-08
0.0104972
8.08105e-08
5.21418e-07
-5.40353e-08
-9.32351e-08
1.47482e-05
-9.42922e-08
-1.76221e-07
-2.37466e-08
-1.69949e-06
0.00283196
0.0271478
-0.00106524
-0.00194143
0.00038731
-1.7581e-07
-3.02228e-08
-1.39184e-07
-0.00143469
-0.00523345
-1.20062e-07
1.67718e-07
0.00263661
0.000177129
-0.00267947
0.000252051
-2.16661e-07
0.000227479
1.54067e-08
-3.53701e-06
0.00123147
-1.9247e-06
-1.15203e-07
-6.08604e-06
4.69781e-08
-4.24746e-09
-7.50979e-09
-7.59621e-09
0.00645664
-1.09603e-07
-4.92349e-08
0.0112936
2.42483e-07
-5.3243e-08
-0.00109002
0.00326743
7.11815e-08
-2.0977e-07
-1.19384e-07
-5.32526e-06
-6.69559e-08
5.77206e-09
-0.0257072
-1.40478e-07
-1.53601e-07
-0.0166889
-5.475e-07
1.5723e-07
-1.20311e-07
-8.73121e-09
-1.03602e-07
-1.37165e-07
-1.14908e-08
-9.42045e-07
-0.0032127
-0.00342081
-3.53423e-08
4.29199e-08
-3.40068e-06
2.90557e-08
7.05662e-08
-0.000668192
3.8162e-08
-0.00265316
-2.49718e-08
2.70042e-08
-9.86843e-08
-7.79338e-07
-4.30311e-07
-1.30053e-08
-0.0158291
-8.19671e-08
-1.19486e-08
-1.43968e-06
-1.13585e-07
-1.35395e-07
1.67608e-08
1.94661e-07
-4.60849e-06
-2.14491e-05
0.00337502
-2.8702e-07
-4.48782e-06
-7.81877e-08
-0.00336803
-0.00487042
-1.27747e-07
-1.39283e-07
-8.41666e-08
0.00126449
1.11992e-06
-2.96922e-08
-0.00411674
0.00140728
-1.11248e-06
-4.27821e-06
7.67424e-08
-1.01624e-07
-2.02055e-05
0.00156166
-0.00457925
-1.4473e-05
-2.11814e-08
0.000386883
1.16561e-06
3.40424e-08
1.86753e-07
0.00654028
5.53016e-07
1.89969e-08
-0.00830662
7.66568e-08
-1.65826e-07
-1.3463e-07
-1.8549e-08
-3.4586e-08
0.0010626
-0.00440939
0.00062223
-1.01374e-07
2.34207e-07
0.00237549
0.00108632
-1.34571e-07
-8.97621e-08
-3.12845e-08
0.0244348
-2.55754e-08
-7.88773e-08
-8.79554e-05
0.00435958
0.0240545
3.7804e-09
3.30576e-08
1.73479e-05
-1.86479e-08
-1.55607e-07
-1.0639e-07
0.0029663
3.30976e-08
0.00202232
0.00151083
7.83963e-06
-8.72226e-08
-4.79562e-09
5.12613e-07
-1.58742e-07
0.00233156
-1.10201e-07
-1.58795e-08
-3.29214e-08
1.78526e-06
-0.016899
0.000234787
-9.63485e-08
-3.15605e-06
-8.55855e-08
-7.11824e-08
3.40903e-08
0.000766831
-0.00605878
2.05404e-06
-4.36509e-07
-1.10768e-07
-1.85967e-08
-8.97223e-07
1.07978e-07
0.00147063
3.78107e-08
0.00120992
0.0120777
-1.47092e-06
4.97383e-08
-1.52139e-07
-1.88434e-07
-4.01849e-07
0.00126367
-6.74166e-07
-1.01843e-07
-8.62107e-08
-1.42272e-08
-7.0836e-06
-5.05313e-07
-6.39916e-06
-3.1194e-08
-0.00320326
-1.09066e-05
-3.36434e-06
-1.18656e-07
-0.0144006
-5.74053e-08
-7.87276e-08
-0.00917193
-1.85677e-07
-8.87538e-08
-3.01899e-06
-3.0932e-08
-0.00251903
1.11019e-07
-2.19221e-08
-1.88546e-07
-1.18793e-07
0.00103333
8.75898e-08
-1.38418e-07
-6.90293e-09
-5.39729e-06
0.00109748
-2.57522e-09
-9.99454e-09
0.0111584
-3.1632e-07
-1.77954e-07
-1.21613e-05
-7.97926e-08
-3.83664e-07
1.00442e-08
-1.73519e-08
9.44749e-06
-8.56919e-06
1.68713e-05
-5.4484e-06
-1.42983e-07
1.81233e-06
-8.18261e-09
5.96318e-09
-0.0176948
2.986e-08
-7.88164e-06
-1.13027e-06
-3.21613e-08
-1.57482e-07
-2.16086e-06
-0.00426489
0.00286611
-9.29047e-08
1.2453e-08
-0.00213526
-1.47245e-07
-0.02084
5.73194e-07
2.26014e-07
0.0124626
-1.46186e-07
-0.000124958
2.51499e-08
-8.4473e-08
-7.49355e-08
-2.91763e-07
0.00126078
6.23411e-10
0.000590707
-2.28165e-07
-1.84227e-08
-1.27576e-07
-1.3039e-06
-0.00132833
0.00633618
0.00615657
3.99378e-08
-1.1302e-07
-0.00510387
5.26101e-07
-2.32863e-08
-9.04015e-08
-2.2379e-05
-1.44094e-05
-1.10176e-05
-0.0054959
-1.87173e-08
-1.47127e-08
3.56544e-06
4.70988e-08
-1.03592e-07
-1.43344e-05
-1.26929e-07
1.21825e-07
-0.00381532
-4.89385e-09
4.98259e-07
2.26074e-05
0.00043672
-1.48774e-07
4.59373e-08
-5.48495e-08
-1.12119e-07
1.38883e-06
-1.13717e-07
-1.25107e-07
-5.8713e-08
-1.42314e-07
-2.03221e-08
-1.80457e-08
-1.04189e-07
-3.18521e-08
-1.12168e-07
-1.05514e-07
-8.57575e-08
1.2407e-06
-6.90586e-05
-1.09418e-07
0.0012077
-3.32194e-07
-0.000521925
6.8874e-09
-9.11045e-07
1.91418e-08
-0.00343538
-2.01262e-08
-1.08145e-07
-1.96566e-08
-1.4108e-07
0.00462781
-9.59376e-08
-1.60913e-07
-5.02252e-07
-3.19828e-07
4.60605e-08
-1.5219e-07
0.0028366
2.00935e-08
-6.10225e-08
-6.0046e-06
-4.22595e-08
5.10132e-06
0.000269332
8.49844e-06
-1.71873e-08
9.09189e-09
0.000909528
-2.01782e-08
-3.67178e-08
-7.56772e-06
-1.77161e-08
-1.25985e-07
0.000439929
-6.95079e-08
0.00130121
4.37013e-07
8.01113e-07
0.000342643
1.71543e-08
-5.25193e-08
0.0150781
-1.76825e-06
-0.00311099
-0.0011396
-6.73078e-08
-1.00848e-07
2.99493e-08
0.0255282
-5.17975e-07
-3.41748e-09
-1.78087e-08
-1.92317e-08
7.08298e-07
3.59494e-06
-1.55818e-07
3.23739e-08
-4.67615e-09
1.98677e-09
0.00146454
0.00163307
0.00125055
-0.00963113
-1.14711e-07
1.1814e-07
-0.0020745
-5.67866e-08
-8.59434e-08
1.20495e-10
-1.05362e-07
1.11802e-06
-6.747e-08
-1.60977e-07
0.000155986
-5.18089e-08
-1.5176e-07
-0.00129433
3.40736e-07
0.000973565
-1.85301e-08
-1.03491e-07
4.23941e-08
-9.2462e-08
-1.10551e-08
9.96759e-09
-7.66388e-08
-0.00307964
-9.83855e-08
-1.50552e-07
-0.000830403
-3.77804e-07
-8.40391e-08
4.52741e-08
4.41196e-07
0.0130726
-7.70893e-08
-1.22303e-07
-0.000936332
-2.78238e-08
0.000106164
6.1858e-07
-1.04893e-07
1.0261e-05
-3.60108e-07
-1.02782e-07
0.00213524
-0.00342078
0.00241688
-1.03193e-07
-1.25813e-07
-1.44669e-07
-4.88436e-06
1.05334e-08
-0.00206986
0.0216232
0.000972493
-0.000374926
-1.42911e-07
5.07242e-07
0.00314642
-0.00522455
0.0176965
4.05622e-08
-1.4391e-07
-1.45975e-07
-0.00292753
0.000244814
0.000172382
3.09108e-08
-2.71112e-08
-1.04009e-08
-8.76177e-08
-7.53353e-08
0.0168177
-9.31567e-08
0.00829819
2.12882e-08
-6.71496e-09
-1.39632e-07
-6.2377e-08
-2.73771e-07
0.00224198
-5.76863e-08
-3.35213e-06
0.000978742
5.28375e-07
4.74457e-08
-2.39196e-08
7.04463e-07
-1.18909e-08
-1.81901e-07
-1.12017e-07
4.64673e-07
-4.49932e-07
-9.96093e-08
-1.05727e-07
1.88128e-09
4.53729e-09
-1.81158e-08
1.29417e-07
-1.22321e-06
-1.25992e-08
-1.29133e-08
0.00850497
-1.49425e-07
3.04155e-07
2.67278e-09
-4.98498e-07
-2.71733e-08
0.00394469
-8.06715e-08
-0.00159913
-5.27351e-08
-1.7807e-08
0.0160652
0.00625465
-0.00397461
5.65194e-07
-9.5539e-08
-1.01617e-07
-4.3581e-08
-2.47438e-06
-5.12668e-07
-1.79501e-07
-7.51813e-07
-0.00323455
-3.16504e-06
-1.50218e-07
0.00345009
-0.0162698
5.08206e-08
-2.58885e-08
1.88449e-07
-0.00193557
-1.38769e-07
-2.23641e-08
4.70558e-07
-7.45071e-07
-1.8472e-07
-2.96692e-09
0.000147186
1.39454e-07
-2.75598e-06
-0.00151499
0.021249
0.00121329
2.83592e-09
-3.25295e-06
5.90376e-08
-9.02292e-08
6.47648e-08
4.53679e-08
-5.24706e-06
7.19651e-06
0.00179442
1.68432e-06
0.000587752
0.00230532
5.09009e-07
-8.57954e-08
0.000731647
-0.00249366
-1.45855e-07
2.31076e-06
-0.00197734
-0.0221669
-1.64628e-07
-1.51392e-07
1.37538e-07
2.26482e-07
6.9402e-07
-1.62364e-06
3.46259e-08
-0.0013494
-8.72505e-08
-7.10629e-08
-0.00303449
-7.07461e-10
-2.38235e-07
0.0209806
-6.34095e-08
-1.26139e-07
-0.00379777
-1.42915e-07
-3.25281e-06
-1.47165e-07
-0.00111156
5.66403e-07
1.63718e-07
-5.43858e-07
-1.2823e-07
-4.63953e-06
2.70487e-08
-0.00540669
-5.99731e-07
-7.24116e-08
-0.00177567
2.61635e-07
-0.000224131
0.00082714
0.00061245
-0.00059762
4.20133e-08
-1.33689e-07
-0.00343053
-2.56097e-08
-1.89413e-07
-3.72006e-08
5.99058e-08
-0.0107759
-0.00347651
-4.33625e-08
-0.000980439
-1.08772e-06
-1.21781e-07
-1.52335e-07
-3.53382e-08
-5.87699e-07
-3.94426e-07
-1.31854e-07
0.000554544
-1.28798e-07
-3.27171e-07
-1.69209e-07
0.00162731
0.00247682
5.02835e-08
-1.46444e-07
-1.63498e-06
-2.06029e-08
-1.03712e-07
0.00315782
-3.63136e-06
1.52971e-08
-3.72475e-08
-1.76303e-06
-3.76776e-07
5.93322e-07
1.33225e-07
-3.1906e-08
0.00389694
-7.56552e-07
3.7368e-08
-5.529e-06
-0.00475866
-9.5317e-08
-0.003139
-1.27211e-07
-6.80225e-08
6.83614e-09
5.40139e-07
0.00252321
-2.07242e-07
-0.00110035
-7.42784e-08
0.012929
0.00097416
3.94008e-08
0.000592528
4.57505e-08
0.00054585
4.69824e-08
0.000497244
0.000853709
9.48097e-09
2.21682e-06
-1.35335e-07
-5.47102e-08
-0.0089147
-4.32539e-08
0.000935297
-7.55623e-08
0.00392893
-1.09491e-09
-0.00234227
-3.44792e-08
-1.25288e-07
6.14015e-07
-6.03678e-08
-1.72439e-07
-3.86495e-07
0.00249417
-0.0203759
-9.88985e-08
-2.92451e-06
4.06896e-08
-5.87004e-08
-1.35047e-08
-3.98642e-08
-4.7466e-06
-0.00438482
-1.73847e-07
-2.7526e-07
-7.73918e-08
0.00539114
-1.36737e-07
3.1597e-08
-5.46099e-08
1.74743e-08
-6.70745e-08
-0.00108793
9.12653e-09
-4.75493e-05
5.3132e-07
-0.0169682
0.00225957
-0.00166364
-1.66463e-07
7.16059e-07
2.72051e-08
-1.10096e-07
1.39963e-07
-0.002249
-1.13907e-07
-9.89614e-08
-1.74881e-07
-0.00201483
-2.78021e-08
-7.6138e-08
-2.30504e-07
-1.3087e-07
-0.00440705
0.00123503
-8.33514e-08
-2.46593e-08
-0.00442432
4.11602e-08
0.000571825
0.0013808
0.00257809
4.52163e-07
7.60431e-06
0.0236204
6.23467e-07
7.43299e-09
-6.81349e-08
1.99389e-08
2.01496e-08
-2.58257e-08
1.8422e-08
-0.0133122
-0.00163902
-1.18942e-07
-4.90716e-07
-1.31013e-07
-1.21743e-07
-3.44815e-07
-3.70641e-08
-7.21096e-08
-1.24013e-07
2.21805e-06
1.84113e-06
-5.40291e-07
0.000951828
-3.38472e-07
-0.00212522
-1.79124e-07
0.0218977
-0.00124826
-7.27036e-07
0.000243472
-7.2435e-06
0.000845337
-8.88717e-08
-6.45169e-08
-8.92134e-08
2.11671e-07
0.022498
-8.64835e-08
4.37024e-09
-1.44028e-06
-1.36521e-07
-3.13114e-07
1.8324e-07
-2.94229e-08
0.0252974
-6.19304e-08
-2.19036e-08
-2.58016e-06
-1.18331e-07
-1.0472e-06
-1.25548e-05
1.16532e-08
2.90218e-08
-5.76646e-08
-2.92524e-07
-1.0815e-07
-1.27504e-07
-0.00084269
-1.3762e-08
-0.00505558
-1.1031e-07
-0.00557508
2.3167e-07
-8.89098e-07
-8.75351e-08
6.19348e-07
-2.68603e-07
-2.52971e-10
4.97709e-09
-0.00541653
-2.06087e-08
0.000919038
0.00110497
-2.3951e-08
-7.45291e-08
-4.5657e-08
-1.62698e-07
0.00352448
-3.4837e-08
-0.00591378
-0.00148449
-2.87287e-07
0.00158543
-2.1413e-07
2.22536e-08
0.00289533
-0.00122844
-3.58156e-08
-8.15181e-08
4.41566e-08
-7.76112e-08
7.3738e-08
1.81226e-07
-2.63062e-05
-1.36262e-07
-0.000472269
-2.83773e-06
0.00588501
-1.4461e-08
-9.26018e-08
-0.000847343
-0.0037063
-2.68396e-07
-8.25155e-08
4.02281e-08
-0.00244738
-7.00965e-08
-0.000564175
1.42105e-06
-1.71735e-08
-1.29452e-07
-1.67369e-07
-1.63006e-07
-1.25421e-07
-1.41414e-07
-1.56215e-07
4.74137e-08
-0.00252531
-2.47973e-08
1.11292e-06
-0.00141202
4.05891e-08
-3.94719e-08
-3.09662e-07
-0.000520398
-2.34485e-08
-0.00369489
-1.91826e-08
-1.53717e-07
-1.27901e-08
0.000199233
6.61595e-06
-4.35741e-07
-2.30867e-07
1.52687e-09
2.02548e-08
-0.00345586
-1.31894e-07
0.0258522
1.16974e-07
0.00341394
-3.80153e-08
-1.28144e-07
6.38521e-06
2.98051e-08
-0.00231013
-5.45298e-08
-2.15466e-07
-1.56226e-08
-8.59249e-08
-4.0345e-08
3.1488e-06
0.000800917
-1.60392e-07
-5.92917e-08
6.17972e-09
-6.72294e-08
-1.33657e-07
4.46862e-09
-2.20002e-06
-5.53836e-08
0.016092
-1.14959e-07
0.000391116
-9.0809e-08
-1.62552e-07
-0.000347794
-0.00087793
-0.00336968
-9.84933e-08
0.00370059
-8.6991e-08
-0.00161289
1.13573e-08
-1.43876e-06
-6.08008e-08
0.00257601
1.58238e-08
-1.25625e-07
-1.66401e-08
4.08842e-08
-1.13936e-08
0.0101909
0.00264003
0.00502526
-4.95054e-09
2.56157e-07
-1.37874e-07
-8.84838e-08
-1.39734e-07
-1.34911e-07
-8.27487e-08
-7.74184e-07
-3.93262e-08
-0.00178062
-1.10152e-06
-8.4562e-08
-8.16665e-10
-0.00155938
-2.59065e-06
-3.04799e-08
-1.35603e-07
6.3365e-08
0.000852578
-4.80713e-07
-0.000459664
1.04683e-06
-9.10727e-07
-6.05153e-06
-5.85762e-09
9.1514e-09
-1.52913e-06
-2.5064e-08
-8.65751e-08
-0.00445922
-2.39246e-07
0.000528218
-5.66327e-08
8.73647e-06
-3.34352e-07
-5.21666e-07
-1.01581e-07
-1.31816e-08
-0.000538697
-8.91302e-08
-0.00132056
2.16371e-09
-1.36104e-08
0.000801099
-7.38623e-09
4.12913e-07
-0.00725935
-1.59504e-08
-3.2108e-06
-0.00157213
-2.66308e-08
-4.49949e-07
-0.00131688
-6.26377e-08
1.11136e-08
-8.59109e-08
8.33631e-08
-3.1708e-08
-6.83583e-07
0.0163063
7.91161e-08
-1.1865e-07
0.00188495
-1.5918e-07
0.000203785
2.24437e-07
-1.20851e-07
-0.000918695
4.59175e-05
-1.46566e-07
-3.56166e-08
-4.61817e-08
-1.10935e-07
-1.19362e-07
-0.0107281
-7.06632e-09
4.68648e-07
-1.57068e-07
-1.68049e-06
-1.05316e-07
4.76811e-06
-2.80903e-08
3.50834e-08
-0.000858883
-9.85663e-08
-8.19444e-08
3.98266e-09
-0.00196837
-1.19328e-07
-1.40497e-07
-8.25739e-08
-1.20306e-07
2.46784e-08
-3.0409e-06
0.00300219
0.0012582
0.00197511
-2.70519e-08
4.91712e-09
2.90499e-07
3.94891e-08
-1.27666e-07
2.94092e-06
-0.00315218
-1.20244e-07
-9.00615e-08
-0.00116648
-2.84066e-08
-1.97482e-08
0.00668513
-1.67814e-06
0.00711033
-2.58288e-08
-1.06784e-07
0.00141709
1.60426e-08
-1.30038e-08
-2.80998e-08
3.94567e-07
-7.57741e-09
-9.46369e-07
-2.13835e-06
3.08059e-07
-4.71916e-08
0.00177968
-4.48308e-09
-1.3439e-07
-3.57201e-08
2.59905e-09
2.3009e-08
-1.15514e-07
0.013928
-9.41691e-08
-0.00237614
-1.14029e-07
1.35123e-07
-0.000716168
-1.37499e-07
1.17772e-05
-4.07554e-08
-1.31851e-07
-2.06952e-08
-1.10091e-06
-5.84333e-08
-9.43279e-08
-3.70471e-08
1.68253e-08
-3.8418e-07
-1.22158e-07
1.17588e-08
-2.79447e-08
-4.38611e-08
-3.77195e-07
0.000757031
0.00985208
0.0258835
-0.0123878
-2.80538e-06
-5.68001e-07
-0.0112737
0.024327
-1.52831e-07
2.72906e-08
-1.39633e-07
5.98052e-06
0.0284192
-1.54502e-07
-1.38439e-07
-1.53617e-07
4.70092e-09
-4.45399e-08
-1.17935e-08
-0.000737488
0.00121067
0.000301462
-1.36372e-06
-3.39051e-08
-3.16926e-08
-2.68712e-08
0.00109524
-0.000409972
-8.68082e-08
-3.15825e-06
-1.21881e-07
-1.8416e-07
7.14155e-08
-1.33497e-07
-1.68928e-07
0.000918306
-4.25402e-08
1.98614e-06
-1.43984e-07
-1.38592e-07
-2.95219e-07
-6.41288e-08
-9.35369e-08
-4.98148e-07
-1.38677e-05
-3.44191e-08
-4.04816e-07
-6.87119e-08
-1.53983e-08
-7.72588e-08
-1.67068e-08
0.00471366
-1.65024e-07
-7.70755e-08
1.8326e-08
-0.00100831
-6.88122e-06
-1.52031e-08
-9.26383e-09
-8.70104e-08
0.000575548
-2.30015e-06
0.00336532
-2.0848e-06
1.33929e-06
-4.06248e-06
-5.75728e-06
-3.02419e-07
0.00128837
-1.57051e-07
-4.72142e-08
2.86229e-08
-8.0313e-06
3.71047e-08
0.000926494
-1.18946e-07
3.00608e-09
0.000798802
-4.91297e-07
1.05218e-08
7.05878e-07
-9.94445e-08
-1.31947e-08
-1.2156e-05
-1.16795e-05
-7.67875e-08
1.04985e-05
-4.15643e-07
-0.000269199
0.0124421
-3.97975e-08
0.00079524
-8.03098e-08
-5.04146e-07
-1.07668e-07
-1.02228e-07
0.00051843
-4.2615e-07
-1.34561e-07
3.45062e-08
0.00155256
-1.36431e-07
-0.0065187
-0.00834507
-1.12691e-08
-1.34386e-07
-1.75621e-08
0.0137143
-1.57979e-07
8.8522e-08
1.35681e-08
-1.15879e-05
-8.76485e-09
-8.13532e-08
-8.76217e-08
-8.44601e-08
-1.5953e-08
-5.17279e-08
-0.0107508
-1.25992e-06
-3.80984e-06
0.00116787
-1.15763e-07
0.0026475
-3.28507e-07
1.28824e-08
-3.22248e-08
-5.97872e-08
-4.88138e-08
-1.35482e-07
-1.17543e-07
0.000741481
-5.42561e-07
0.00158076
-1.25385e-06
-2.6872e-06
7.53046e-10
-2.77101e-06
0.00339351
-2.88555e-07
1.02305e-07
-1.65051e-07
0.00303428
0.00653371
-8.12632e-08
-3.79323e-06
-4.53719e-09
-0.00295585
-1.16192e-07
-1.90245e-08
-2.88839e-08
-1.07534e-07
-1.36742e-07
-1.24595e-06
0.00216188
-1.65807e-08
-0.000530052
0.00137722
-0.00250944
0.000772502
2.04117e-09
0.00743076
4.04398e-07
1.96407e-07
-0.00194114
-9.65704e-08
-2.42446e-07
-1.3802e-07
-2.27672e-08
0.00230009
3.94321e-08
-0.00538372
-1.18155e-07
-1.59925e-07
0.0296539
5.1444e-08
0.00212724
-1.27479e-07
-1.72546e-05
-2.73824e-08
1.68535e-09
-0.00589602
2.58893e-07
-9.25651e-07
-1.04899e-07
-1.20556e-07
-1.01888e-05
4.69724e-06
-3.10959e-08
-3.81783e-08
-9.3795e-06
6.97498e-07
1.75723e-06
-6.6188e-09
-8.20782e-08
-1.53283e-07
1.24449e-08
2.34447e-07
2.86873e-07
-1.57653e-07
0.00343833
1.32874e-08
-5.48104e-08
-2.81065e-07
-0.00236928
9.57361e-06
2.1114e-07
-1.34457e-07
8.08467e-09
-1.48374e-06
-1.07692e-06
6.22775e-06
-0.013948
3.32316e-07
-1.66391e-08
-1.53711e-06
-6.96013e-08
-2.19416e-07
-0.000461088
-1.20868e-07
-1.2798e-05
-0.00468914
3.42048e-05
-0.00730483
0.000979483
-1.72667e-06
4.28806e-08
0.00125056
-1.06654e-07
3.13451e-07
6.54159e-07
-4.18146e-08
-2.21465e-06
-2.19352e-07
2.62581e-08
-6.37529e-07
0.000358216
4.29167e-08
-9.62526e-08
-9.83022e-08
-0.00192197
4.43104e-07
-0.00281256
1.81416e-08
0.00368341
-1.33975e-07
-5.41853e-07
-1.36991e-06
3.57079e-08
0.00108542
-8.66011e-08
-1.1213e-07
3.72088e-08
-7.27281e-08
-0.00409031
-1.4103e-06
-1.37878e-08
-0.00365473
-1.34113e-08
0.000629938
-1.25651e-07
-0.00103085
-2.40914e-07
2.26929e-06
1.55061e-08
2.26012e-08
-1.25072e-07
-8.73674e-08
1.94131e-05
8.47005e-07
-6.88378e-08
-1.87786e-07
-0.00315807
-0.000950107
3.88699e-07
0.0218702
-0.00737908
2.78207e-08
0.000792438
-1.09712e-07
-9.7401e-07
-1.15243e-07
1.60281e-08
-4.38425e-08
-8.13881e-07
-0.0251808
-1.33837e-05
-8.67301e-07
0.00219874
1.18535e-05
-1.84277e-05
-0.000638897
-7.06862e-08
-7.70861e-07
0.00069114
-1.57132e-07
-6.21079e-07
-0.00782598
-9.54578e-06
2.77723e-08
0.0138483
8.17728e-07
0.000255622
-0.0110225
-9.31551e-08
-8.6832e-06
7.88117e-08
-4.57836e-08
-1.58656e-07
0.000971568
-2.0133e-06
-1.71295e-06
-2.52603e-06
-1.02244e-07
-0.00146418
-4.86618e-07
-1.74384e-07
3.21169e-09
-1.23461e-06
-3.19819e-08
-4.15287e-09
-7.05668e-09
0.000263059
-7.95484e-08
-2.05415e-07
0.00102319
-1.30411e-07
-7.80384e-08
-0.00255287
-1.60523e-07
3.29487e-09
4.55718e-07
-7.53929e-07
1.87017e-06
4.95405e-08
8.67507e-07
1.7047e-07
6.00987e-07
-1.06875e-07
-1.28583e-07
8.64068e-07
-1.50052e-05
-2.34347e-07
-0.00171032
4.33298e-06
-1.209e-07
-6.0396e-06
0.0286144
-1.27921e-06
-1.33169e-07
-4.94126e-08
5.68985e-06
5.46483e-08
-0.00346472
7.88897e-06
-4.73475e-08
-0.00197109
-8.42049e-08
-3.34213e-06
0.0158329
3.12496e-08
-5.44997e-08
-4.39947e-08
-1.11359e-07
-0.00757149
-0.000103236
9.73136e-08
-3.00668e-06
-1.4027e-05
-3.8677e-07
-1.17194e-07
8.26794e-08
-1.27452e-07
-1.46455e-07
-8.18934e-08
0.0136056
3.68428e-08
1.04739e-05
-7.14364e-08
-8.79132e-08
-1.52683e-08
8.04261e-08
-2.22166e-07
-2.24522e-07
-1.17896e-07
-1.3405e-08
-0.00457507
-0.00262249
-2.98199e-06
-0.0340617
-1.97739e-09
-5.9619e-08
-0.00558657
-1.61275e-06
0.00162533
1.38403e-07
2.07942e-08
-5.48056e-07
-9.8194e-08
-6.07798e-08
-1.30705e-07
-1.77428e-07
-7.56763e-07
-0.00346526
-1.53935e-06
-0.0100648
-1.11988e-07
-1.12502e-07
-5.95406e-08
-2.84262e-06
0.00122629
-9.88848e-06
2.9774e-06
4.73806e-09
0.00112868
4.10394e-08
-9.27862e-08
-1.46556e-07
3.59439e-08
0.000440071
-9.63535e-09
-1.30697e-06
-1.38549e-07
-4.11505e-06
-4.69102e-08
-0.00389396
-5.7088e-08
-5.27127e-08
2.67543e-07
-1.05233e-07
-2.51552e-06
-3.10799e-07
-0.00596306
-5.74823e-07
-1.39227e-07
-0.00626052
1.42706e-07
3.31392e-08
-1.27566e-07
-1.27163e-07
-1.90461e-08
-1.63693e-07
0.000124427
-1.21996e-07
-8.73857e-07
-4.91403e-07
-8.30842e-08
0.0026209
-1.38669e-07
1.24605e-07
-1.9111e-08
-7.89958e-08
-1.41546e-07
-8.25408e-08
-3.227e-08
7.42827e-09
-1.29448e-07
-1.20969e-07
-1.31568e-07
2.05667e-06
0.00587164
2.41344e-09
3.78388e-07
0.002892
-1.37455e-07
-3.04244e-08
-1.66169e-07
-2.93122e-06
-8.01555e-08
-8.57425e-07
-0.0183112
-6.89475e-08
0.00238052
-0.00107393
3.2761e-08
-1.26617e-07
5.74645e-08
-1.50701e-07
0.0152541
0.0221895
-0.00228479
-1.89719e-08
1.68705e-07
-1.32198e-07
1.29597e-06
-1.39912e-07
-1.02966e-06
-1.71653e-08
-2.35922e-06
0.000592953
6.20092e-08
5.33264e-08
-0.0310585
0.000643335
-0.0036777
3.56399e-09
-8.47992e-08
0.00308219
4.6588e-07
-7.72687e-08
1.82239e-10
-6.69851e-06
-1.30471e-07
-1.28312e-05
-1.44434e-06
-1.02765e-07
-1.2824e-07
-0.0175761
-1.09055e-06
2.20191e-08
-1.75526e-07
-1.6812e-07
-1.35742e-08
-1.0576e-06
5.36364e-09
-1.09024e-07
2.30742e-08
6.45407e-08
-4.43756e-08
-1.08475e-06
-1.27582e-07
-9.72093e-08
0.019112
0.00116627
-0.00210719
-4.0366e-08
-6.56791e-09
-2.90489e-08
3.6427e-08
-7.05239e-08
1.77843e-08
-1.35477e-07
-1.04962e-07
-0.00615861
-8.37147e-08
4.29617e-08
4.33844e-08
-8.96814e-08
0.000396914
0.00209574
-1.20924e-07
-4.83699e-08
-8.74165e-08
7.36721e-07
0.00116941
-2.38165e-08
-4.57835e-09
-1.85858e-08
9.96755e-08
4.17544e-07
-0.000156886
0.000319243
-1.11557e-07
2.93713e-05
-0.00426276
-2.36096e-07
-1.81451e-07
-1.99388e-07
-6.27625e-08
-3.19058e-07
-1.52301e-07
-8.19838e-08
-6.92972e-07
9.39249e-09
-2.51075e-06
-2.42935e-07
2.02549e-09
-8.95376e-08
0.0244763
3.55605e-08
-2.76557e-07
-8.45712e-06
-3.8068e-07
-0.00583196
0.000572396
-9.21447e-08
-5.46193e-06
0.00021732
-4.01839e-06
-1.40411e-07
-1.04674e-07
-2.95624e-08
0.000783173
-5.16969e-07
-7.42692e-08
-1.34889e-08
-1.535e-06
7.25995e-08
0.00230417
-4.61142e-08
-1.35252e-07
2.98649e-08
-2.53675e-05
-0.000151166
-5.26308e-08
-4.87096e-07
-9.33469e-08
-2.19549e-08
-4.8546e-08
0.00103295
-9.76916e-07
3.92662e-08
-4.8416e-08
-0.00686874
-1.63163e-08
-8.47031e-08
1.66216e-08
-2.22134e-07
5.62068e-08
-4.46153e-08
-6.04624e-08
-0.00356985
-1.36224e-07
-1.04216e-07
-4.56512e-08
-5.57755e-08
6.62042e-06
-8.24155e-08
-7.94587e-08
0.00535641
-0.00558172
-2.61037e-08
-1.93069e-08
4.2104e-08
4.42136e-07
2.03383e-06
-1.03693e-07
-0.00347846
-1.44005e-07
-7.76163e-08
-5.46786e-08
-0.00252862
0.000836087
5.34389e-06
-1.16106e-07
0.00299542
-0.00275935
-0.0341462
0.00556803
-1.42618e-07
4.17738e-08
-1.16447e-07
-4.95031e-08
2.03071e-08
2.14932e-08
-1.73736e-07
9.74274e-06
1.56344e-09
-0.0022346
-1.30937e-07
-0.000793068
-7.57744e-08
-0.00324211
5.26794e-08
-1.41288e-07
-1.1487e-07
-1.18186e-07
-2.87348e-07
-4.84736e-05
-1.09028e-07
-7.06379e-08
-1.33003e-07
-0.00166174
-8.13156e-08
-6.0504e-08
2.25967e-09
-3.55196e-07
-0.00276008
1.69191e-06
-8.70656e-08
-1.20899e-07
-9.59446e-07
-1.16507e-07
-0.00237018
0.000570197
-1.35792e-07
-0.00552657
-0.00259989
4.2933e-08
-1.37907e-07
-5.12001e-07
-1.54231e-07
-4.03897e-07
-1.29905e-07
0.00102771
-7.12499e-08
-4.70099e-07
-1.62303e-07
-1.1992e-07
3.08452e-07
0.00044398
-0.015099
0.000312871
-3.30822e-07
0.000799455
-1.8624e-07
0.00947993
-8.16899e-08
-5.81572e-07
-9.46349e-08
-2.39229e-07
0.00274289
-1.92639e-08
-1.94206e-06
6.88721e-09
-1.31781e-07
0.00276055
-0.0139388
-1.1388e-07
0.00534705
-8.77471e-08
-0.00578837
-7.26156e-08
-0.00370182
0.00084656
-8.20313e-08
-3.25275e-05
-1.49397e-07
-0.00283503
-2.04736e-08
-1.0233e-07
-3.60825e-08
-1.19643e-07
-7.71545e-08
1.62769e-05
-1.05665e-07
0.00399062
-2.27346e-06
0.000278204
-5.57662e-08
-1.17597e-07
-0.000385084
5.16146e-08
1.68567e-07
2.8488e-08
4.69814e-06
-1.41173e-07
5.30325e-08
-0.00275341
4.66348e-08
-7.52917e-08
-8.35019e-08
1.37026e-08
0.00690802
-2.75087e-07
-1.16831e-07
-0.00258298
1.42511e-05
1.29223e-05
-1.36503e-07
-7.17668e-07
-1.31276e-06
-1.05352e-07
-4.71048e-09
-8.32018e-08
-5.06542e-08
-9.42965e-08
2.72079e-08
-1.43746e-07
2.5495e-07
0.00279759
-6.88332e-06
-2.28925e-05
-7.73851e-09
-8.45816e-08
0.0242342
7.45653e-07
-6.23885e-08
-6.28727e-08
-0.00440427
-0.0031324
5.18445e-08
0.00378437
-1.91212e-07
1.92207e-06
-3.18633e-09
0.00285256
-1.32179e-07
4.39281e-08
-4.92423e-08
-1.42473e-07
-2.64823e-08
-0.00248567
-1.03416e-07
-0.00451548
-3.51671e-06
-0.000419812
-0.0062422
-4.7801e-08
3.15992e-08
0.0290336
-2.74511e-07
-2.17345e-06
-5.81324e-08
2.5496e-07
-1.01284e-07
-0.000501222
-0.00277113
0.00950318
-8.17775e-08
0.00229254
0.00178633
0.00665126
-8.47321e-06
4.20379e-07
8.05778e-08
-1.3639e-08
-0.00208105
-0.00443804
3.47427e-07
0.00541228
-1.38888e-07
-1.66357e-08
9.54119e-08
-0.0147154
-9.02663e-08
-0.000443301
-9.68419e-08
-0.0196103
2.23418e-08
-5.7059e-07
-1.75348e-07
-1.10035e-07
-9.48553e-06
-1.97695e-08
-1.03804e-07
-3.98928e-07
-1.51436e-05
-1.56034e-07
-8.01206e-08
-0.00264369
-0.000927924
-1.0497e-07
0.00128379
-9.67151e-08
-7.99407e-08
0.0036135
-0.0015311
-1.52287e-08
4.36711e-05
-1.09126e-07
-6.22444e-08
-4.72872e-07
-0.00344104
-7.56973e-08
0.0297508
-1.35536e-07
3.77713e-08
0.000415888
-5.18139e-08
-9.09691e-07
-1.1716e-07
-3.97382e-06
-5.35294e-08
0.00044323
-8.42229e-08
1.2937e-07
-8.91987e-08
-2.34951e-08
-4.25195e-06
-0.00268249
-1.76965e-07
-0.0132329
3.02298e-07
0.00866887
-0.0146086
0.00525559
-6.47765e-08
0.00101592
-0.00479018
-0.0031991
-0.00013315
1.19007e-08
-6.12248e-08
-8.06316e-08
-0.129997
3.59062e-08
-4.85487e-08
0.00776865
-2.4142e-08
-0.00226312
-1.28865e-07
0.0115469
4.10332e-08
-2.33356e-08
-3.96501e-06
-1.79431e-07
-2.38621e-07
7.91633e-09
-1.54737e-07
-6.16606e-07
-0.00339309
-1.03098e-07
3.58366e-08
-0.00330503
0.00223459
-1.35828e-08
-1.60083e-07
-2.25208e-07
-1.29395e-07
0.000180988
-0.00213225
-0.000209945
-2.01362e-06
0.00102494
0.0227651
-9.46598e-06
-1.44195e-07
-1.04361e-07
-6.2769e-08
-8.8205e-08
8.15686e-09
0.00123498
0.00400173
-5.13502e-08
-1.29109e-07
3.21415e-08
-0.00570393
-0.0102346
0.0526615
-0.00431466
4.71939e-08
-0.00495596
0.00285443
-3.99556e-08
-0.000777443
-4.94478e-07
-1.15363e-07
-0.00531659
0.00506103
-0.00166981
-5.3092e-09
-1.26914e-07
-4.75011e-07
0.000533061
-4.02192e-08
4.49359e-08
-2.58275e-08
-1.69405e-07
-2.65676e-09
0.00418851
-1.05091e-07
-1.29616e-07
0.00125486
-4.23628e-08
-0.00174969
-3.50707e-07
-0.000766283
-0.00011673
-9.67222e-08
-0.000856666
5.29295e-06
5.36961e-06
-3.71334e-08
2.03498e-07
-8.04072e-08
-1.01087e-08
0.000694348
-6.03826e-06
4.58137e-08
-3.89805e-08
-9.98401e-08
-2.10561e-06
-8.56872e-08
-1.72972e-08
-7.90947e-08
-7.35609e-08
-0.00342975
-8.20568e-08
0.0294217
0.000448984
-1.61755e-08
-9.29923e-08
-0.00151343
-6.52336e-08
-1.40656e-07
-4.54476e-06
-1.31464e-07
-1.36278e-07
-1.09259e-07
2.9074e-06
0.00126909
-1.17464e-07
-1.65006e-08
-8.91952e-08
-0.00230065
-0.00343746
-2.91228e-07
6.59414e-07
2.13744e-08
-8.12218e-08
-1.31258e-07
-1.23106e-07
5.13328e-07
3.80972e-07
5.20117e-08
-1.11274e-07
-1.88865e-08
3.40679e-08
-7.73542e-08
-3.30014e-08
9.68335e-06
0.00186739
-0.0175639
-2.82688e-06
0.0173496
1.9707e-05
-1.35036e-07
0.000959855
-0.00592046
0.0196444
1.18896e-09
-1.4226e-07
-2.21724e-06
-0.0174144
-4.14717e-06
-6.92244e-07
-0.0123835
-5.00901e-08
8.67954e-09
0.00831938
-1.18794e-07
-3.40061e-06
-2.27119e-06
7.37664e-09
0.000728825
0.0240567
-1.55637e-08
4.15858e-05
-0.00160232
-3.90351e-07
1.70233e-05
3.26499e-08
0.00303874
-6.82696e-06
-0.00341717
-1.19791e-07
8.75091e-09
-0.0023215
-1.53587e-07
9.32681e-08
-1.09878e-07
-4.62575e-07
1.75176e-08
0.00124105
-0.000138791
4.48622e-08
4.81959e-08
1.51926e-08
0.00135616
-4.94931e-07
3.46352e-08
3.15567e-08
0.0259581
2.81631e-08
4.71534e-08
-9.61029e-07
-3.66919e-06
-9.332e-08
1.6047e-06
-5.62399e-07
-8.10449e-08
-7.35709e-07
-8.81663e-08
-5.32782e-08
3.63465e-07
-8.74156e-08
8.5118e-07
-0.0048639
-3.02036e-05
-3.86152e-08
0.00169622
-0.000808388
-8.03092e-06
0.000582722
1.26969e-07
8.94314e-08
-6.26793e-05
3.49607e-07
-2.26571e-08
3.34055e-08
-1.423e-06
-6.38291e-08
-1.52601e-07
-4.77485e-08
-1.11842e-05
-0.000194561
0.00252927
0.00295362
-1.34436e-07
-1.55396e-08
-2.66396e-07
1.18026e-05
-0.000162315
-6.50092e-08
0.0284831
-9.52271e-08
0.00110894
-1.5278e-07
-0.0025713
-1.08419e-08
0.00126595
-0.00109001
-2.57212e-06
-0.00341875
1.78654e-07
-9.82476e-08
2.65679e-07
0.000298712
-0.00238826
4.0251e-09
-1.58594e-08
-1.08051e-07
4.46657e-08
-9.58282e-08
7.12142e-09
-9.82932e-08
-6.00931e-08
-1.09691e-06
-3.81608e-08
-0.00493203
-3.22506e-08
-0.00211078
-1.22248e-07
-6.41625e-06
0.00342201
-2.29568e-08
0.0186377
-7.19928e-08
-1.44282e-07
-1.26597e-07
-7.36158e-11
4.97197e-08
-1.45026e-05
5.81265e-06
-5.83626e-08
-1.24458e-09
-1.80443e-08
0.0217392
-2.54725e-08
-2.16949e-07
-1.36846e-05
-3.5981e-09
-6.74987e-07
2.46536e-08
-4.17892e-08
-3.32501e-07
-7.49329e-09
-7.65235e-07
0.00361881
-7.00925e-08
-0.0034658
2.40712e-08
2.42563e-08
-9.79775e-08
-0.000163903
-3.43092e-08
-0.002872
1.44425e-05
-6.39724e-10
-0.000392452
-2.43817e-06
-0.00536858
2.90268e-07
-1.0853e-07
-3.60279e-08
-4.83555e-07
0.018119
-1.76346e-08
-2.01192e-07
1.21372e-08
3.14514e-07
2.72924e-06
-0.00319155
0.00455774
0.000211929
-8.93373e-08
-0.00308356
-1.26557e-07
-0.00247949
-3.69187e-05
1.7854e-08
1.66314e-05
-1.1928e-06
-1.55746e-07
3.76664e-07
-4.12391e-08
-9.22602e-08
-7.83066e-08
2.76121e-08
0.00463794
-8.71607e-05
-1.59355e-06
-0.035806
-6.33923e-08
0.00762335
-4.56455e-08
-8.59983e-08
-4.40793e-07
-0.00340242
-1.28243e-07
0.00114753
8.76779e-08
-1.01431e-06
0.000510757
-3.97781e-08
-1.07422e-07
-0.00155587
-1.28798e-07
-1.18028e-07
-2.12653e-06
-4.74623e-09
-5.30642e-08
-2.11853e-08
1.13236e-05
0.00319377
-1.19785e-07
-4.56648e-09
0.00182591
0.00319389
-1.60465e-08
-2.02899e-08
0.0109053
-0.00644157
-6.60391e-08
1.13048e-05
-4.55374e-07
2.78899e-09
7.81645e-07
-1.14118e-07
0.0285868
-9.20742e-08
-0.000229483
0.00470293
0.00328715
-1.37905e-07
1.06987e-07
-9.81417e-08
-8.66884e-08
-0.00259003
-4.30908e-08
-0.00219091
0.0127348
-5.79717e-08
-1.13606e-07
-1.18282e-07
-5.6457e-06