/*--------------------------------*- C++ -*----------------------------------*\
| =========                 |                                                 |
| \\      /  F ield         | OpenFOAM: The Open Source CFD Toolbox           |
|  \\    /   O peration     | Version:  v2012                                 |
|   \\  /    A nd           | Website:  www.openfoam.com                      |
|    \\/     M anipulation  |                                                 |
\*---------------------------------------------------------------------------*/
FoamFile
{
    version     2.0;
    format      ascii;
    class       volVectorField;
    location    "850";
    object      cellDisplacement;
}
// * * * * * * * * * * * * * * * * * * * * * * * * * * * * * * * * * * * * * //

dimensions      [0 1 0 0 0 0 0];


internalField   nonuniform List<vector> 
10042
(
(0 0.00215255 0)
(0 0.0122606 0)
(0 0.0119512 0)
(0 0.00454005 0)
(0 0.00150914 0)
(0 0.00928158 0)
(0 0.0143325 0)
(0 0.00366364 0)
(0 0.00166972 0)
(0 0.0135933 0)
(0 0.00416745 0)
(0 0.012255 0)
(0 0.0142972 0)
(0 0.00495588 0)
(0 0.0115295 0)
(0 0.00491864 0)
(0 0.00909762 0)
(0 0.00424323 0)
(0 0.0137602 0)
(0 0.0121971 0)
(0 0.0142678 0)
(0 0.00208644 0)
(0 0.00426038 0)
(0 0.00629125 0)
(0 0.00653155 0)
(0 8.86599e-05 0)
(0 0.0135419 0)
(0 0.0010607 0)
(0 0.00924836 0)
(0 0.00653069 0)
(0 0.000669558 0)
(0 0.0146122 0)
(0 0.00153614 0)
(0 0.00145562 0)
(0 0.00371259 0)
(0 0.00382953 0)
(0 0.00156976 0)
(0 0.00187927 0)
(0 0.000916468 0)
(0 0.000150947 0)
(0 0.00644344 0)
(0 0.00158253 0)
(0 0.0146369 0)
(0 0.0124885 0)
(0 0.00586363 0)
(0 0.00671443 0)
(0 0.000655448 0)
(0 0.0113376 0)
(0 0.0140214 0)
(0 0.0146156 0)
(0 0.0146302 0)
(0 0.00302621 0)
(0 0.00912844 0)
(0 0.0136751 0)
(0 0.0138706 0)
(0 0.0147708 0)
(0 0.014218 0)
(0 0.00407974 0)
(0 0.0115308 0)
(0 4.70821e-05 0)
(0 0.0139805 0)
(0 0.0139818 0)
(0 0.0146221 0)
(0 0.00355033 0)
(0 0.00711437 0)
(0 0.00856394 0)
(0 0.0120109 0)
(0 0.00242776 0)
(0 0.000693365 0)
(0 0.00237299 0)
(0 0.0146502 0)
(0 0.0119599 0)
(0 0.00309008 0)
(0 0.0114158 0)
(0 0.00838374 0)
(0 0.0146554 0)
(0 0.00764682 0)
(0 0.000679114 0)
(0 0.00775177 0)
(0 0.0137986 0)
(0 0.0125458 0)
(0 0.00638487 0)
(0 0.000377755 0)
(0 0.0025877 0)
(0 0.0131055 0)
(0 0.0140866 0)
(0 0.0119107 0)
(0 0.0118752 0)
(0 0.00616945 0)
(0 0.00734112 0)
(0 0.0141472 0)
(0 0.0116202 0)
(0 0.0145987 0)
(0 0.0140754 0)
(0 0.00680903 0)
(0 0.00935593 0)
(0 0.0149019 0)
(0 0.0121041 0)
(0 0.00789396 0)
(0 0.0113493 0)
(0 0.0140974 0)
(0 0.0137212 0)
(0 0.0113517 0)
(0 0.0145584 0)
(0 0.0137977 0)
(0 0.0108565 0)
(0 0.0146227 0)
(0 0.00830779 0)
(0 0.0143004 0)
(0 0.0110413 0)
(0 0.0111826 0)
(0 0.0142579 0)
(0 0.0136629 0)
(0 0.00359174 0)
(0 0.00701508 0)
(0 0.000755717 0)
(0 0.00970157 0)
(0 0.000793575 0)
(0 0.00401536 0)
(0 0.0007125 0)
(0 6.29692e-05 0)
(0 0.0121404 0)
(0 0.0121255 0)
(0 0.00617367 0)
(0 0.0074438 0)
(0 0.00646962 0)
(0 0.00664365 0)
(0 0.0139007 0)
(0 0.0147469 0)
(0 0.00963558 0)
(0 0.00208012 0)
(0 0.00771478 0)
(0 0.00688459 0)
(0 0.00820016 0)
(0 0.0142272 0)
(0 0.0145717 0)
(0 0.0117332 0)
(0 0.0145656 0)
(0 0.0130973 0)
(0 0.00794592 0)
(0 0.014533 0)
(0 0.000633947 0)
(0 0.0145999 0)
(0 0.00100647 0)
(0 0.0134588 0)
(0 0.00197529 0)
(0 0.0130644 0)
(0 0.000656288 0)
(0 0.0114724 0)
(0 0.00987911 0)
(0 0.00811984 0)
(0 0.00047569 0)
(0 0.0132593 0)
(0 0.0143944 0)
(0 0.00671025 0)
(0 0.0134556 0)
(0 0.014731 0)
(0 0.0147786 0)
(0 0.00699333 0)
(0 6.01409e-05 0)
(0 0.000994009 0)
(0 0.000119295 0)
(0 0.014545 0)
(0 0.00635746 0)
(0 0.012806 0)
(0 0.00978884 0)
(0 0.00304587 0)
(0 0.0145661 0)
(0 0.00379178 0)
(0 0.00133377 0)
(0 0.00650908 0)
(0 0.0065981 0)
(0 0.0119678 0)
(0 0.00140917 0)
(0 0.0136403 0)
(0 0.0120313 0)
(0 0.0068395 0)
(0 0.00193169 0)
(0 0.00752898 0)
(0 0.000689952 0)
(0 0.0129955 0)
(0 0.0137046 0)
(0 0.0114723 0)
(0 0.00059088 0)
(0 0.00019124 0)
(0 0.0142682 0)
(0 0.0120492 0)
(0 4.48234e-05 0)
(0 0.0146829 0)
(0 0.000842938 0)
(0 0.0123222 0)
(0 0.0141865 0)
(0 0.0021951 0)
(0 0.013659 0)
(0 0.013896 0)
(0 0.0115604 0)
(0 0.0148367 0)
(0 0.00621679 0)
(0 0.0148934 0)
(0 0.00234318 0)
(0 0.0147657 0)
(0 0.0145675 0)
(0 0.0104821 0)
(0 0.000421692 0)
(0 0.00794509 0)
(0 0.00671115 0)
(0 0.00600932 0)
(0 0.0143577 0)
(0 0.0109927 0)
(0 0.00836008 0)
(0 0.0146004 0)
(0 0.000463968 0)
(0 0.0104774 0)
(0 0.0105902 0)
(0 0.00146728 0)
(0 0.00237472 0)
(0 0.000382168 0)
(0 0.0116458 0)
(0 0.00212098 0)
(0 0.0147505 0)
(0 0.0148381 0)
(0 0.00641261 0)
(0 0.0148345 0)
(0 0.00234825 0)
(0 0.00486569 0)
(0 0.0145914 0)
(0 0.0109935 0)
(0 0.0116307 0)
(0 0.0134663 0)
(0 0.0114599 0)
(0 0.00201657 0)
(0 0.00677105 0)
(0 0.0142343 0)
(0 0.000558419 0)
(0 0.00686141 0)
(0 0.00370325 0)
(0 0.0113111 0)
(0 0.0148965 0)
(0 0.0133985 0)
(0 0.00624681 0)
(0 0.0113883 0)
(0 0.00685848 0)
(0 5.37288e-05 0)
(0 0.00015487 0)
(0 0.0136925 0)
(0 0.00156567 0)
(0 0.00679801 0)
(0 0.0133125 0)
(0 0.013323 0)
(0 0.00122801 0)
(0 0.0137589 0)
(0 0.00226207 0)
(0 0.00943882 0)
(0 0.0137764 0)
(0 0.0113251 0)
(0 0.0112062 0)
(0 0.000694995 0)
(0 0.0111692 0)
(0 0.0149013 0)
(0 0.00267993 0)
(0 0.0073278 0)
(0 0.00225095 0)
(0 0.00297176 0)
(0 0.000701663 0)
(0 0.0143394 0)
(0 0.0137201 0)
(0 0.00722592 0)
(0 0.00940823 0)
(0 0.000322238 0)
(0 0.00677437 0)
(0 0.00821996 0)
(0 0.0145937 0)
(0 0.00493803 0)
(0 0.0146728 0)
(0 0.0110201 0)
(0 0.00377414 0)
(0 0.0131473 0)
(0 0.00605429 0)
(0 0.000314565 0)
(0 0.0138659 0)
(0 0.00114983 0)
(0 0.00710414 0)
(0 0.0148431 0)
(0 0.0130312 0)
(0 0.00068035 0)
(0 0.0148461 0)
(0 0.00929602 0)
(0 0.00100052 0)
(0 0.00195527 0)
(0 0.000389165 0)
(0 0.0141026 0)
(0 0.00901635 0)
(0 0.000645069 0)
(0 0.00710688 0)
(0 0.0072154 0)
(0 0.00466093 0)
(0 0.0128787 0)
(0 0.0115235 0)
(0 0.00829794 0)
(0 0.000393722 0)
(0 0.013166 0)
(0 0.0105848 0)
(0 3.05741e-05 0)
(0 0.0114776 0)
(0 0.00936163 0)
(0 0.0139586 0)
(0 0.00516212 0)
(0 0.000121629 0)
(0 0.0128627 0)
(0 0.00716967 0)
(0 0.00111136 0)
(0 0.00781942 0)
(0 0.00923675 0)
(0 0.00468152 0)
(0 0.00893017 0)
(0 0.00189142 0)
(0 0.000679726 0)
(0 0.000175257 0)
(0 0.00624486 0)
(0 0.000722644 0)
(0 0.000167786 0)
(0 0.0146672 0)
(0 0.00371061 0)
(0 0.0028767 0)
(0 0.000299909 0)
(0 0.00120825 0)
(0 0.00562797 0)
(0 0.00740868 0)
(0 0.0114202 0)
(0 0.0140491 0)
(0 0.00662405 0)
(0 0.00998527 0)
(0 0.00217866 0)
(0 0.000540913 0)
(0 0.00610328 0)
(0 0.00200323 0)
(0 0.0146126 0)
(0 0.00283173 0)
(0 0.00237496 0)
(0 0.00971295 0)
(0 0.0145088 0)
(0 0.0141716 0)
(0 7.05665e-05 0)
(0 0.00590749 0)
(0 0.000853608 0)
(0 0.00196824 0)
(0 0.00468468 0)
(0 0.00157805 0)
(0 0.00836527 0)
(0 0.0148991 0)
(0 0.0124201 0)
(0 0.00691023 0)
(0 0.00826112 0)
(0 0.00199328 0)
(0 0.0139561 0)
(0 0.00573031 0)
(0 0.0110874 0)
(0 0.000195753 0)
(0 0.0147841 0)
(0 7.46937e-05 0)
(0 0.0107408 0)
(0 0.00161734 0)
(0 0.0127601 0)
(0 0.00643031 0)
(0 0.00961732 0)
(0 0.0129213 0)
(0 0.00202273 0)
(0 0.00802226 0)
(0 0.00812619 0)
(0 0.0139863 0)
(0 5.43559e-05 0)
(0 0.000430988 0)
(0 0.00509017 0)
(0 2.92113e-06 0)
(0 0.0140427 0)
(0 0.00552365 0)
(0 0.00386035 0)
(0 0.011103 0)
(0 0.0135405 0)
(0 0.0140584 0)
(0 0.0102062 0)
(0 0.0111999 0)
(0 0.0134026 0)
(0 0.00721656 0)
(0 0.0145313 0)
(0 0.00074455 0)
(0 0.00136201 0)
(0 0.000662804 0)
(0 0.0075883 0)
(0 0.000977859 0)
(0 0.0109169 0)
(0 0.0147912 0)
(0 0.0123723 0)
(0 0.00545183 0)
(0 0.00954812 0)
(0 0.0138151 0)
(0 0.00577922 0)
(0 0.00367298 0)
(0 0.00124957 0)
(0 0.0145979 0)
(0 0.00276126 0)
(0 0.0148412 0)
(0 0.00102346 0)
(0 0.0138978 0)
(0 0.0148886 0)
(0 0.00205521 0)
(0 0.0144763 0)
(0 0.00223822 0)
(0 0.0113179 0)
(0 0.0107609 0)
(0 0.00871466 0)
(0 0.0136746 0)
(0 0.00696076 0)
(0 0.0122185 0)
(0 0.00334615 0)
(0 0.00893317 0)
(0 0.0135482 0)
(0 0.0139603 0)
(0 0.000809482 0)
(0 0.00886994 0)
(0 0.000527626 0)
(0 0.00946262 0)
(0 0.00204864 0)
(0 0.000565176 0)
(0 0.0145602 0)
(0 0.00974104 0)
(0 0.0132607 0)
(0 0.00869462 0)
(0 0.00263259 0)
(0 0.0142045 0)
(0 0.00962435 0)
(0 0.000743766 0)
(0 0.0136609 0)
(0 0.00380028 0)
(0 0.0022342 0)
(0 0.0126284 0)
(0 0.0143946 0)
(0 0.00392437 0)
(0 0.000154174 0)
(0 0.0147791 0)
(0 0.000973486 0)
(0 0.00879134 0)
(0 0.0117313 0)
(0 0.0146875 0)
(0 0.0145945 0)
(0 0.000154136 0)
(0 0.00330344 0)
(0 0.0145188 0)
(0 0.00358943 0)
(0 0.000558726 0)
(0 0.00362498 0)
(0 0.0126651 0)
(0 0.0125994 0)
(0 0.0145068 0)
(0 0.00392873 0)
(0 0.00485028 0)
(0 0.00691347 0)
(0 0.014801 0)
(0 0.000641168 0)
(0 0.000148483 0)
(0 0.000705753 0)
(0 0.00575445 0)
(0 0.00328249 0)
(0 0.00337793 0)
(0 0.00743972 0)
(0 0.000339957 0)
(0 0.00206839 0)
(0 0.0130953 0)
(0 0.00872244 0)
(0 0.0066078 0)
(0 0.0144896 0)
(0 0.00165472 0)
(0 0.0148114 0)
(0 0.0144071 0)
(0 0.00761888 0)
(0 0.000615692 0)
(0 0.0142354 0)
(0 0.000209526 0)
(0 0.0138133 0)
(0 0.00889803 0)
(0 0.00612368 0)
(0 0.0121715 0)
(0 0.00788866 0)
(0 0.000554292 0)
(0 0.0138071 0)
(0 0.000106111 0)
(0 0.00356102 0)
(0 0.0083433 0)
(0 0.000191181 0)
(0 0.00170706 0)
(0 0.00801623 0)
(0 0.012443 0)
(0 0.00221827 0)
(0 0.0060209 0)
(0 0.0116103 0)
(0 0.0144487 0)
(0 0.00193624 0)
(0 0.00611795 0)
(0 0.00711255 0)
(0 0.0143677 0)
(0 0.0106417 0)
(0 0.000817652 0)
(0 0.00700118 0)
(0 0.0123756 0)
(0 0.0139886 0)
(0 0.00961747 0)
(0 0.000814076 0)
(0 0.000113997 0)
(0 0.0132334 0)
(0 0.0133313 0)
(0 0.0131657 0)
(0 0.0059633 0)
(0 0.00193807 0)
(0 0.00370748 0)
(0 0.0112961 0)
(0 0.00717594 0)
(0 0.00603719 0)
(0 0.0112247 0)
(0 0.00543826 0)
(0 0.0103979 0)
(0 0.00179198 0)
(0 0.0134891 0)
(0 0.00970471 0)
(0 0.0114549 0)
(0 0.0125745 0)
(0 0.0100189 0)
(0 0.00631223 0)
(0 0.0128393 0)
(0 0.0113455 0)
(0 0.00808219 0)
(0 0.000141091 0)
(0 0.0143808 0)
(0 0.0104167 0)
(0 0.00124134 0)
(0 0.0115145 0)
(0 0.00956139 0)
(0 0.0094489 0)
(0 0.0129887 0)
(0 0.00200442 0)
(0 0.0137205 0)
(0 0.00220614 0)
(0 0.0135371 0)
(0 0.00303955 0)
(0 0.014845 0)
(0 0.0061267 0)
(0 0.0142375 0)
(0 0.00179133 0)
(0 0.00282686 0)
(0 0.00999129 0)
(0 5.85536e-05 0)
(0 0.0110219 0)
(0 0.0140342 0)
(0 0.00164078 0)
(0 0.00523792 0)
(0 0.0146075 0)
(0 0.0115918 0)
(0 0.00661184 0)
(0 0.000503524 0)
(0 0.00122978 0)
(0 0.000567848 0)
(0 0.00120366 0)
(0 0.00341053 0)
(0 0.0111151 0)
(0 0.0124163 0)
(0 0.00919351 0)
(0 2.91811e-05 0)
(0 0.014198 0)
(0 0.0137615 0)
(0 0.00347863 0)
(0 0.00014447 0)
(0 0.00218709 0)
(0 0.0141774 0)
(0 0.00636945 0)
(0 0.00296871 0)
(0 0.0058706 0)
(0 0.00763322 0)
(0 0.014241 0)
(0 0.00153068 0)
(0 0.0017114 0)
(0 0.00820719 0)
(0 0.00784679 0)
(0 0.0106902 0)
(0 0.000708256 0)
(0 0.01485 0)
(0 0.011963 0)
(0 0.0134056 0)
(0 0.00540382 0)
(0 0.00275709 0)
(0 0.00072228 0)
(0 0.0129204 0)
(0 0.0115528 0)
(0 0.00162669 0)
(0 0.00576697 0)
(0 0.000269314 0)
(0 0.00631553 0)
(0 0.000781777 0)
(0 0.0136009 0)
(0 0.00188762 0)
(0 0.0020345 0)
(0 0.00191494 0)
(0 0.00119273 0)
(0 0.00270767 0)
(0 0.014798 0)
(0 0.000691192 0)
(0 0.0058441 0)
(0 0.00558041 0)
(0 0.0136326 0)
(0 3.73463e-06 0)
(0 0.00804752 0)
(0 0.000641354 0)
(0 0.0121134 0)
(0 0.00604895 0)
(0 0.00717122 0)
(0 0.000625319 0)
(0 0.00731762 0)
(0 0.0132626 0)
(0 0.00701396 0)
(0 0.00268901 0)
(0 0.00158207 0)
(0 0.0148967 0)
(0 0.0125196 0)
(0 0.00820339 0)
(0 0.0106574 0)
(0 0.0139978 0)
(0 0.00208528 0)
(0 0.0127673 0)
(0 0.00156771 0)
(0 0.00629566 0)
(0 0.0101156 0)
(0 0.00810321 0)
(0 0.00196877 0)
(0 0.00670018 0)
(0 0.00736488 0)
(0 0.0101334 0)
(0 0.00696261 0)
(0 0.0120395 0)
(0 0.00553544 0)
(0 0.0147001 0)
(0 0.0115198 0)
(0 0.00633745 0)
(0 0.00540016 0)
(0 0.0107155 0)
(0 0.00168763 0)
(0 0.00208358 0)
(0 0.00103852 0)
(0 0.00703231 0)
(0 0.0129831 0)
(0 9.82185e-05 0)
(0 0.014797 0)
(0 0.00858494 0)
(0 0.0128437 0)
(0 0.000124584 0)
(0 0.0129848 0)
(0 0.00601055 0)
(0 0.000912321 0)
(0 0.00614793 0)
(0 0.00722879 0)
(0 0.00764349 0)
(0 0.0134117 0)
(0 0.0105504 0)
(0 3.40521e-05 0)
(0 0.000535143 0)
(0 0.00596378 0)
(0 0.00411393 0)
(0 0.00842109 0)
(0 0.0130549 0)
(0 0.0124538 0)
(0 0.0111884 0)
(0 0.00606576 0)
(0 0.00591431 0)
(0 0.00640561 0)
(0 0.0120187 0)
(0 0.00827005 0)
(0 0.000328965 0)
(0 0.00455892 0)
(0 0.00666308 0)
(0 0.0146165 0)
(0 0.000213061 0)
(0 0.0110624 0)
(0 0.000706933 0)
(0 0.0149004 0)
(0 0.0142631 0)
(0 0.00850036 0)
(0 0.0130708 0)
(0 0.00017269 0)
(0 0.0139107 0)
(0 0.006568 0)
(0 0.00532457 0)
(0 0.000597794 0)
(0 0.0073955 0)
(0 0.00347148 0)
(0 0.00510462 0)
(0 0.0140964 0)
(0 0.00721299 0)
(0 7.64624e-05 0)
(0 0.00581395 0)
(0 0.0074974 0)
(0 0.0147818 0)
(0 0.0148407 0)
(0 0.000974463 0)
(0 0.00578435 0)
(0 0.000495758 0)
(0 0.000187569 0)
(0 0.00205206 0)
(0 0.00881323 0)
(0 0.00788312 0)
(0 0.0146605 0)
(0 0.00604105 0)
(0 0.00428943 0)
(0 0.00168453 0)
(0 0.00400323 0)
(0 0.00975691 0)
(0 7.98246e-05 0)
(0 0.00897112 0)
(0 0.0122289 0)
(0 0.00554333 0)
(0 0.0137685 0)
(0 0.00825017 0)
(0 0.00657167 0)
(0 0.0120333 0)
(0 0.000281794 0)
(0 0.00118568 0)
(0 0.0147676 0)
(0 0.00517908 0)
(0 0.00579025 0)
(0 0.00106713 0)
(0 0.000425915 0)
(0 0.0058222 0)
(0 0.00723918 0)
(0 0.0104954 0)
(0 0.00182635 0)
(0 0.0138056 0)
(0 0.00419204 0)
(0 0.00342964 0)
(0 0.0140386 0)
(0 0.00615156 0)
(0 0.0137401 0)
(0 0.00355151 0)
(0 6.3499e-05 0)
(0 0.00320797 0)
(0 0.0146828 0)
(0 0.00022255 0)
(0 0.0111002 0)
(0 0.00535263 0)
(0 0.00780658 0)
(0 0.00582404 0)
(0 0.0109692 0)
(0 0.0108429 0)
(0 0.00861637 0)
(0 0.0128217 0)
(0 0.000994511 0)
(0 0.00265916 0)
(0 0.0142962 0)
(0 6.35249e-05 0)
(0 0.00114961 0)
(0 0.00148909 0)
(0 0.0116488 0)
(0 0.000229928 0)
(0 0.00891006 0)
(0 0.0118932 0)
(0 0.0105463 0)
(0 0.010205 0)
(0 0.00600735 0)
(0 0.0146604 0)
(0 0.0134118 0)
(0 0.000691651 0)
(0 0.00322638 0)
(0 0.0016766 0)
(0 0.00592315 0)
(0 0.0073433 0)
(0 0.0133255 0)
(0 0.00530265 0)
(0 0.0138703 0)
(0 0.0120731 0)
(0 0.0132493 0)
(0 0.0141529 0)
(0 0.0121022 0)
(0 0.00718945 0)
(0 0.0133107 0)
(0 0.000583569 0)
(0 0.0123266 0)
(0 0.0139841 0)
(0 0.0010432 0)
(0 0.0133137 0)
(0 0.00583343 0)
(0 0.0121589 0)
(0 0.00441931 0)
(0 0.00191512 0)
(0 0.0132329 0)
(0 0.0139649 0)
(0 0.000813765 0)
(0 0.0113596 0)
(0 7.65925e-05 0)
(0 0.00088313 0)
(0 0.00612495 0)
(0 0.00524628 0)
(0 0.000586603 0)
(0 0.000242861 0)
(0 0.00243294 0)
(0 0.0113572 0)
(0 0.00182117 0)
(0 3.97345e-05 0)
(0 0.00968236 0)
(0 0.00394939 0)
(0 0.0111354 0)
(0 0.00438272 0)
(0 0.00636339 0)
(0 0.000514751 0)
(0 0.00979573 0)
(0 0.000237216 0)
(0 0.0136857 0)
(0 0.0015125 0)
(0 0.0138756 0)
(0 0.0143673 0)
(0 0.014787 0)
(0 0.00769857 0)
(0 0.00988159 0)
(0 0.0144614 0)
(0 0.00825007 0)
(0 0.0016253 0)
(0 0.000101654 0)
(0 0.00114676 0)
(0 0.00813898 0)
(0 0.0129221 0)
(0 0.0120124 0)
(0 0.0148074 0)
(0 0.00801285 0)
(0 0.00318644 0)
(0 0.00573049 0)
(0 0.00585149 0)
(0 0.00747929 0)
(0 0.0111198 0)
(0 0.0112233 0)
(0 0.0136879 0)
(0 0.0128948 0)
(0 0.0148341 0)
(0 0.0112148 0)
(0 0.00652793 0)
(0 0.0104878 0)
(0 0.0017726 0)
(0 0.000811149 0)
(0 0.00970738 0)
(0 7.30162e-05 0)
(0 0.0109294 0)
(0 0.00592606 0)
(0 0.0134426 0)
(0 0.00692764 0)
(0 8.258e-05 0)
(0 0.0141784 0)
(0 0.00988483 0)
(0 0.0140034 0)
(0 0.00784363 0)
(0 0.00261805 0)
(0 7.97174e-05 0)
(0 0.0126503 0)
(0 0.00985939 0)
(0 0.00670021 0)
(0 0.00843343 0)
(0 0.0141839 0)
(0 0.0043648 0)
(0 0.0143676 0)
(0 0.00793602 0)
(0 0.0116988 0)
(0 0.00705614 0)
(0 0.0124785 0)
(0 0.00392283 0)
(0 0.0146409 0)
(0 0.000262537 0)
(0 0.000977917 0)
(0 0.00884378 0)
(0 0.000733003 0)
(0 0.00660729 0)
(0 0.0014632 0)
(0 0.0116623 0)
(0 0.0126884 0)
(0 0.00604584 0)
(0 0.0120387 0)
(0 0.000383936 0)
(0 0.00163526 0)
(0 0.00615109 0)
(0 0.000426039 0)
(0 0.00194682 0)
(0 0.0119465 0)
(0 0.00255054 0)
(0 0.012383 0)
(0 0.0131325 0)
(0 0.013208 0)
(0 0.0140772 0)
(0 0.0126029 0)
(0 0.00534169 0)
(0 0.00934559 0)
(0 0.0148913 0)
(0 0.0148961 0)
(0 0.00569166 0)
(0 0.0131649 0)
(0 0.0147659 0)
(0 0.0144033 0)
(0 0.0141829 0)
(0 8.77317e-05 0)
(0 0.00370205 0)
(0 0.000560813 0)
(0 0.0108129 0)
(0 0.00156895 0)
(0 0.0062429 0)
(0 0.0139719 0)
(0 0.000594104 0)
(0 0.0144497 0)
(0 0.00756334 0)
(0 0.000290917 0)
(0 0.000598381 0)
(0 0.000452677 0)
(0 0.000112469 0)
(0 0.0116446 0)
(0 0.00916479 0)
(0 0.00827364 0)
(0 0.0020691 0)
(0 0.0140774 0)
(0 0.00778325 0)
(0 0.00872888 0)
(0 0.00100742 0)
(0 0.0147646 0)
(0 0.0121946 0)
(0 0.0062905 0)
(0 0.00141444 0)
(0 0.000781349 0)
(0 0.0112712 0)
(0 0.00236996 0)
(0 0.012847 0)
(0 0.0111275 0)
(0 0.00842515 0)
(0 0.00438518 0)
(0 0.0117203 0)
(0 0.0123302 0)
(0 0.0136416 0)
(0 0.0121538 0)
(0 0.0147811 0)
(0 0.0144993 0)
(0 0.00559067 0)
(0 0.0144574 0)
(0 0.0100591 0)
(0 0.00721571 0)
(0 0.0122183 0)
(0 0.011499 0)
(0 0.00891621 0)
(0 0.0140156 0)
(0 0.014546 0)
(0 0.005908 0)
(0 0.0117836 0)
(0 0.00902955 0)
(0 0.00619183 0)
(0 0.000185439 0)
(0 0.0144853 0)
(0 0.00583861 0)
(0 0.00613682 0)
(0 0.0148922 0)
(0 0.00485833 0)
(0 0.00359789 0)
(0 0.0131969 0)
(0 0.014018 0)
(0 0.0042296 0)
(0 0.000789738 0)
(0 0.0103921 0)
(0 0.0123055 0)
(0 0.0138228 0)
(0 0.000976813 0)
(0 0.0138791 0)
(0 0.00629535 0)
(0 0.0063894 0)
(0 0.00166507 0)
(0 0.0141089 0)
(0 0.0126923 0)
(0 0.00561727 0)
(0 0.00739484 0)
(0 0.0071304 0)
(0 5.71877e-05 0)
(0 0.00444506 0)
(0 0.0138679 0)
(0 0.00867757 0)
(0 0.00956274 0)
(0 0.0105768 0)
(0 0.0125953 0)
(0 0.00158463 0)
(0 0.0120653 0)
(0 0.00977206 0)
(0 0.00667772 0)
(0 0.0143316 0)
(0 0.00895061 0)
(0 0.00974252 0)
(0 0.00801013 0)
(0 0.00184385 0)
(0 0.000753921 0)
(0 0.0129511 0)
(0 0.00636752 0)
(0 0.00663189 0)
(0 0.00318514 0)
(0 0.0114225 0)
(0 0.00120242 0)
(0 0.0134112 0)
(0 0.00500681 0)
(0 0.0111255 0)
(0 0.0145925 0)
(0 0.00947039 0)
(0 0.00171459 0)
(0 0.0118545 0)
(0 0.0140794 0)
(0 0.00185739 0)
(0 0.0045892 0)
(0 0.00324073 0)
(0 0.0144185 0)
(0 8.25983e-05 0)
(0 0.00413911 0)
(0 0.00608262 0)
(0 0.00708708 0)
(0 0.0135059 0)
(0 0.00212408 0)
(0 0.00337742 0)
(0 0.00167074 0)
(0 0.0125038 0)
(0 0.00744594 0)
(0 0.00146382 0)
(0 0.0143833 0)
(0 0.00431478 0)
(0 0.00994013 0)
(0 0.0134047 0)
(0 0.00645163 0)
(0 0.0110223 0)
(0 0.000902815 0)
(0 0.0124536 0)
(0 0.00420372 0)
(0 0.00979578 0)
(0 0.00773067 0)
(0 0.0122798 0)
(0 0.0104875 0)
(0 0.0148101 0)
(0 0.0128211 0)
(0 0.00610122 0)
(0 0.000745071 0)
(0 0.00546676 0)
(0 0.000449327 0)
(0 0.012191 0)
(0 0.0129949 0)
(0 0.00238454 0)
(0 0.00568058 0)
(0 0.00185452 0)
(0 0.0126134 0)
(0 0.00423276 0)
(0 0.0136843 0)
(0 0.00599917 0)
(0 0.00132453 0)
(0 0.0142714 0)
(0 0.011166 0)
(0 0.00114974 0)
(0 0.0116458 0)
(0 0.0148398 0)
(0 0.00234531 0)
(0 0.00897774 0)
(0 0.00822394 0)
(0 0.00340394 0)
(0 0.0141614 0)
(0 0.000725472 0)
(0 0.0131171 0)
(0 0.00541516 0)
(0 0.00180964 0)
(0 0.00818908 0)
(0 0.00230723 0)
(0 0.000986869 0)
(0 0.0145587 0)
(0 0.01471 0)
(0 0.0033307 0)
(0 0.00311439 0)
(0 0.00840278 0)
(0 0.00703461 0)
(0 0.0040225 0)
(0 0.00938903 0)
(0 0.00241808 0)
(0 0.00389739 0)
(0 0.0060897 0)
(0 0.0132582 0)
(0 8.26084e-05 0)
(0 0.0125928 0)
(0 0.0012328 0)
(0 0.0019982 0)
(0 0.00713727 0)
(0 0.0102222 0)
(0 0.00193329 0)
(0 0.00590329 0)
(0 0.00319453 0)
(0 0.000341931 0)
(0 0.0134559 0)
(0 0.0133706 0)
(0 0.0145423 0)
(0 0.0131399 0)
(0 0.0124484 0)
(0 0.00416455 0)
(0 0.0146932 0)
(0 0.013136 0)
(0 0.000352595 0)
(0 0.0139888 0)
(0 0.00829306 0)
(0 0.0118118 0)
(0 0.00407243 0)
(0 9.45817e-05 0)
(0 0.00312229 0)
(0 0.00554934 0)
(0 0.00203899 0)
(0 0.00724018 0)
(0 0.00111755 0)
(0 0.0113174 0)
(0 0.0145298 0)
(0 0.00462703 0)
(0 0.0018137 0)
(0 0.003512 0)
(0 0.0018772 0)
(0 0.00151923 0)
(0 0.000145984 0)
(0 0.000510567 0)
(0 0.00332226 0)
(0 0.00492138 0)
(0 0.0032844 0)
(0 0.00626382 0)
(0 0.00245236 0)
(0 0.000955076 0)
(0 0.012324 0)
(0 0.0138666 0)
(0 0.00833258 0)
(0 0.00216734 0)
(0 0.00674793 0)
(0 0.00030437 0)
(0 0.0133893 0)
(0 0.00884583 0)
(0 0.0114195 0)
(0 0.000884059 0)
(0 0.00834409 0)
(0 0.014553 0)
(0 0.0145648 0)
(0 0.0101117 0)
(0 0.00402975 0)
(0 0.00157377 0)
(0 0.0061088 0)
(0 0.00765065 0)
(0 0.00166243 0)
(0 0.00592604 0)
(0 0.00594401 0)
(0 0.00309055 0)
(0 0.00850956 0)
(0 0.0147704 0)
(0 0.0029147 0)
(0 0.00719838 0)
(0 0.0148248 0)
(0 0.0144324 0)
(0 0.0030189 0)
(0 0.00387332 0)
(0 4.10883e-05 0)
(0 0.00172624 0)
(0 0.0144248 0)
(0 0.0052212 0)
(0 0.00789149 0)
(0 0.0128642 0)
(0 0.00502761 0)
(0 0.00231821 0)
(0 0.00387097 0)
(0 0.0144542 0)
(0 0.0124209 0)
(0 0.0121254 0)
(0 0.0135131 0)
(0 0.00600324 0)
(0 0.0131966 0)
(0 0.00656673 0)
(0 0.00331825 0)
(0 0.00727175 0)
(0 0.00299628 0)
(0 0.0134538 0)
(0 0.00209023 0)
(0 0.0114112 0)
(0 0.0112811 0)
(0 0.0139099 0)
(0 0.00631968 0)
(0 0.013763 0)
(0 0.00514889 0)
(0 0.012914 0)
(0 0.0118784 0)
(0 0.00989035 0)
(0 0.0113247 0)
(0 0.00026458 0)
(0 0.0144262 0)
(0 0.00723472 0)
(0 0.00447991 0)
(0 0.008098 0)
(0 0.00200725 0)
(0 0.00711202 0)
(0 0.0130162 0)
(0 0.00494932 0)
(0 0.00571909 0)
(0 0.000763586 0)
(0 0.0146227 0)
(0 0.00573725 0)
(0 0.00630459 0)
(0 0.00353126 0)
(0 0.000813944 0)
(0 0.0138314 0)
(0 0.000350425 0)
(0 0.00326077 0)
(0 0.00544344 0)
(0 0.000735106 0)
(0 0.00637549 0)
(0 0.0118089 0)
(0 0.0140592 0)
(0 0.00298566 0)
(0 0.0102125 0)
(0 0.011017 0)
(0 0.00111155 0)
(0 0.0101762 0)
(0 0.0147594 0)
(0 0.00218302 0)
(0 0.0112501 0)
(0 0.0147535 0)
(0 0.00139854 0)
(0 0.0029518 0)
(0 0.00493504 0)
(0 0.00197791 0)
(0 0.00860287 0)
(0 0.00119051 0)
(0 0.0127619 0)
(0 0.00619306 0)
(0 0.00697838 0)
(0 0.000246085 0)
(0 0.000678711 0)
(0 0.0109071 0)
(0 0.0130063 0)
(0 0.00227823 0)
(0 0.0144627 0)
(0 0.00163785 0)
(0 0.00522933 0)
(0 0.000786175 0)
(0 0.00707599 0)
(0 0.000223944 0)
(0 0.0133385 0)
(0 0.00191895 0)
(0 0.0136481 0)
(0 0.0028099 0)
(0 0.011583 0)
(0 0.00176792 0)
(0 0.0145417 0)
(0 0.00202539 0)
(0 0.00593195 0)
(0 0.01462 0)
(0 0.000371086 0)
(0 0.00131644 0)
(0 0.0146459 0)
(0 0.0130571 0)
(0 0.00996392 0)
(0 0.0143846 0)
(0 0.0131102 0)
(0 0.00195757 0)
(0 0.0135532 0)
(0 0.00469314 0)
(0 0.00112433 0)
(0 0.0062382 0)
(0 0.0144379 0)
(0 0.00595871 0)
(0 0.0093731 0)
(0 0.0141088 0)
(0 0.00586195 0)
(0 0.00743188 0)
(0 0.00204857 0)
(0 0.0108152 0)
(0 0.00400592 0)
(0 0.00414762 0)
(0 0.0124149 0)
(0 0.00777816 0)
(0 0.0145309 0)
(0 0.00554628 0)
(0 0.000518196 0)
(0 0.00395049 0)
(0 0.0147282 0)
(0 0.0126935 0)
(0 0.0130132 0)
(0 5.68908e-05 0)
(0 0.00466164 0)
(0 0.0141327 0)
(0 0.0129473 0)
(0 0.00617996 0)
(0 0.0145065 0)
(0 0.00243618 0)
(0 0.00714289 0)
(0 0.00036724 0)
(0 0.0148962 0)
(0 0.00410632 0)
(0 0.0125672 0)
(0 0.00644208 0)
(0 0.00342842 0)
(0 0.00171034 0)
(0 0.0037732 0)
(0 0.00424823 0)
(0 0.00185017 0)
(0 0.00071351 0)
(0 0.00569658 0)
(0 0.00684955 0)
(0 0.0116997 0)
(0 0.0072232 0)
(0 0.00149409 0)
(0 0.0139845 0)
(0 0.0116852 0)
(0 0.00404118 0)
(0 0.00373584 0)
(0 0.00368197 0)
(0 0.014817 0)
(0 0.0141049 0)
(0 0.00970733 0)
(0 0.00396784 0)
(0 0.00164064 0)
(0 0.0131527 0)
(0 0.0139855 0)
(0 0.00157655 0)
(0 0.00563768 0)
(0 0.0139544 0)
(0 0.00581876 0)
(0 0.00143614 0)
(0 0.0057525 0)
(0 0.00527458 0)
(0 0.0135025 0)
(0 0.00393796 0)
(0 0.0122785 0)
(0 0.00807163 0)
(0 0.00493973 0)
(0 0.00710375 0)
(0 0.00983391 0)
(0 0.00178041 0)
(0 0.0135986 0)
(0 0.0149009 0)
(0 0.0010333 0)
(0 0.00480221 0)
(0 0.0058165 0)
(0 0.0148002 0)
(0 0.00411576 0)
(0 0.0139357 0)
(0 0.000527661 0)
(0 0.00315975 0)
(0 0.00934931 0)
(0 0.00600776 0)
(0 0.0121896 0)
(0 0.00867726 0)
(0 0.00778647 0)
(0 0.00106795 0)
(0 0.0146872 0)
(0 0.0091284 0)
(0 0.013987 0)
(0 0.00198164 0)
(0 0.0134586 0)
(0 0.0139391 0)
(0 0.000941755 0)
(0 0.0145417 0)
(0 0.00291103 0)
(0 0.0140801 0)
(0 0.0141162 0)
(0 0.00288035 0)
(0 0.00419234 0)
(0 0.010761 0)
(0 0.0137658 0)
(0 0.0139805 0)
(0 0.0146789 0)
(0 0.000477781 0)
(0 0.00181328 0)
(0 0.0086933 0)
(0 0.0140187 0)
(0 0.00545925 0)
(0 0.0138617 0)
(0 0.0144137 0)
(0 0.00164525 0)
(0 0.00537977 0)
(0 0.000131483 0)
(0 0.0114129 0)
(0 0.0123649 0)
(0 0.00269967 0)
(0 0.00788638 0)
(0 0.00383118 0)
(0 0.014773 0)
(0 0.00103735 0)
(0 0.0126485 0)
(0 0.00599959 0)
(0 0.00668914 0)
(0 0.0135379 0)
(0 0.0125316 0)
(0 0.00448027 0)
(0 0.0132107 0)
(0 0.0138653 0)
(0 0.0102515 0)
(0 0.00578794 0)
(0 0.00431492 0)
(0 0.0148117 0)
(0 0.00145477 0)
(0 0.014768 0)
(0 0.0145069 0)
(0 0.0144169 0)
(0 0.00956574 0)
(0 0.0141606 0)
(0 0.0122176 0)
(0 0.00563639 0)
(0 0.00207027 0)
(0 0.00168829 0)
(0 0.0143295 0)
(0 0.0127343 0)
(0 0.0138441 0)
(0 0.00620568 0)
(0 0.014894 0)
(0 0.013795 0)
(0 0.00173063 0)
(0 0.00229152 0)
(0 0.0147706 0)
(0 4.94667e-05 0)
(0 0.0059076 0)
(0 0.0147513 0)
(0 0.0148831 0)
(0 0.0147371 0)
(0 0.00115927 0)
(0 0.0142019 0)
(0 0.000808276 0)
(0 0.0101682 0)
(0 0.00172433 0)
(0 0.0139421 0)
(0 0.000872562 0)
(0 0.0119005 0)
(0 0.0140092 0)
(0 0.0148177 0)
(0 0.013979 0)
(0 0.00186534 0)
(0 0.00138732 0)
(0 0.0110191 0)
(0 0.00128153 0)
(0 0.00174937 0)
(0 0.0118264 0)
(0 0.014881 0)
(0 0.00426712 0)
(0 0.000459776 0)
(0 0.0134159 0)
(0 0.00988673 0)
(0 0.0144904 0)
(0 0.0093155 0)
(0 0.00266778 0)
(0 0.00566341 0)
(0 0.0120744 0)
(0 0.00108683 0)
(0 0.00607298 0)
(0 0.0140144 0)
(0 0.00021327 0)
(0 0.00716962 0)
(0 0.00107863 0)
(0 0.00276975 0)
(0 0.000903607 0)
(0 0.0148901 0)
(0 0.00391438 0)
(0 0.00139283 0)
(0 0.00039362 0)
(0 0.0019845 0)
(0 0.00722987 0)
(0 0.0135113 0)
(0 0.00215739 0)
(0 0.0147851 0)
(0 0.0146969 0)
(0 0.0113208 0)
(0 0.00109364 0)
(0 0.00205667 0)
(0 0.00545979 0)
(0 0.0018305 0)
(0 0.0145202 0)
(0 0.0141905 0)
(0 0.0148799 0)
(0 0.00582657 0)
(0 0.0033084 0)
(0 0.0144893 0)
(0 0.0121756 0)
(0 0.0109858 0)
(0 0.0141205 0)
(0 0.0117645 0)
(0 0.00708025 0)
(0 0.0108566 0)
(0 0.000189574 0)
(0 5.8735e-05 0)
(0 0.00309105 0)
(0 0.00605869 0)
(0 0.00850047 0)
(0 0.0145346 0)
(0 0.0128908 0)
(0 0.00176611 0)
(0 0.0144611 0)
(0 0.0145759 0)
(0 0.0015555 0)
(0 0.00584965 0)
(0 0.00133087 0)
(0 0.0122781 0)
(0 0.00604387 0)
(0 0.00710804 0)
(0 0.0125827 0)
(0 0.00542372 0)
(0 0.0147641 0)
(0 0.00581191 0)
(0 0.00516928 0)
(0 0.0141356 0)
(0 0.0129918 0)
(0 0.0144284 0)
(0 0.0125323 0)
(0 0.0032352 0)
(0 0.00205501 0)
(0 0.0146801 0)
(0 0.0101782 0)
(0 0.00126645 0)
(0 0.0140777 0)
(0 0.00700604 0)
(0 0.0145623 0)
(0 0.00566934 0)
(0 0.00448862 0)
(0 0.000269495 0)
(0 0.0134818 0)
(0 0.0119964 0)
(0 0.0135129 0)
(0 0.000836436 0)
(0 0.00459336 0)
(0 0.0133555 0)
(0 0.0135592 0)
(0 7.67866e-05 0)
(0 0.0121041 0)
(0 0.0143893 0)
(0 0.00385036 0)
(0 0.00890755 0)
(0 0.0069738 0)
(0 0.000262794 0)
(0 0.0138006 0)
(0 0.000535916 0)
(0 0.0137676 0)
(0 0.0144863 0)
(0 0.00473169 0)
(0 0.00440731 0)
(0 6.68919e-05 0)
(0 0.0142576 0)
(0 0.0145445 0)
(0 0.0139684 0)
(0 0.0128573 0)
(0 0.0131257 0)
(0 0.0118928 0)
(0 0.012959 0)
(0 0.0137304 0)
(0 0.0134351 0)
(0 0.0116733 0)
(0 0.00419841 0)
(0 0.000917389 0)
(0 0.00217132 0)
(0 0.0128489 0)
(0 0.0138219 0)
(0 0.00671816 0)
(0 0.0145994 0)
(0 0.0058334 0)
(0 0.0146722 0)
(0 0.0145513 0)
(0 0.00175931 0)
(0 0.000605042 0)
(0 0.00259823 0)
(0 0.00078183 0)
(0 0.00188548 0)
(0 0.014512 0)
(0 0.0114413 0)
(0 0.0134887 0)
(0 0.0145227 0)
(0 0.0076976 0)
(0 0.0134963 0)
(0 0.0114097 0)
(0 0.0134482 0)
(0 0.00406857 0)
(0 0.00564371 0)
(0 0.0131794 0)
(0 0.00533186 0)
(0 0.00512761 0)
(0 0.00895321 0)
(0 0.0135442 0)
(0 0.000383682 0)
(0 0.0105473 0)
(0 0.00423792 0)
(0 0.00429309 0)
(0 0.0132757 0)
(0 0.00112743 0)
(0 0.00535112 0)
(0 0.00130534 0)
(0 0.0145654 0)
(0 0.0108082 0)
(0 0.0145484 0)
(0 0.0127707 0)
(0 0.0106835 0)
(0 0.0143942 0)
(0 0.00464652 0)
(0 0.0145887 0)
(0 0.00425547 0)
(0 0.00998526 0)
(0 0.0123994 0)
(0 0.0144648 0)
(0 0.00194197 0)
(0 0.000396633 0)
(0 0.0145435 0)
(0 0.013852 0)
(0 0.00691723 0)
(0 0.0137074 0)
(0 0.00404535 0)
(0 0.0148855 0)
(0 0.0111984 0)
(0 0.00421181 0)
(0 8.10142e-05 0)
(0 0.0148062 0)
(0 0.0147922 0)
(0 0.00441732 0)
(0 0.0123212 0)
(0 0.0131218 0)
(0 0.00404956 0)
(0 0.0136214 0)
(0 0.0126113 0)
(0 0.00565787 0)
(0 0.00800942 0)
(0 0.014504 0)
(0 0.000520841 0)
(0 0.0123663 0)
(0 0.0056388 0)
(0 0.0127823 0)
(0 0.0137537 0)
(0 0.00957264 0)
(0 0.0141661 0)
(0 0.0130445 0)
(0 0.0073143 0)
(0 0.0126887 0)
(0 0.0145427 0)
(0 0.0147747 0)
(0 0.00786319 0)
(0 0.0131252 0)
(0 0.0125468 0)
(0 0.0132162 0)
(0 0.0146788 0)
(0 0.0146933 0)
(0 0.0139308 0)
(0 0.0131603 0)
(0 0.00204956 0)
(0 0.0133927 0)
(0 0.0135571 0)
(0 0.0146542 0)
(0 0.00480401 0)
(0 0.0133241 0)
(0 0.00522158 0)
(0 0.0132568 0)
(0 0.00149062 0)
(0 0.0134603 0)
(0 0.005698 0)
(0 0.000844618 0)
(0 0.0121996 0)
(0 0.014673 0)
(0 0.0135122 0)
(0 0.0137673 0)
(0 0.00107398 0)
(0 0.0133825 0)
(0 0.00557647 0)
(0 0.00701901 0)
(0 0.000968468 0)
(0 0.0104642 0)
(0 0.0148845 0)
(0 0.00685654 0)
(0 0.0134577 0)
(0 0.0108222 0)
(0 0.00344252 0)
(0 0.000193299 0)
(0 0.00805247 0)
(0 0.00145205 0)
(0 0.00487426 0)
(0 0.000834137 0)
(0 0.0109183 0)
(0 0.00529067 0)
(0 0.0144384 0)
(0 0.0102669 0)
(0 0.0145626 0)
(0 0.0126809 0)
(0 0.0124592 0)
(0 0.0141078 0)
(0 0.013176 0)
(0 0.013413 0)
(0 0.00416026 0)
(0 0.0119895 0)
(0 0.0120844 0)
(0 0.00509105 0)
(0 0.00367424 0)
(0 0.0127346 0)
(0 0.00531137 0)
(0 0.00294209 0)
(0 0.00107114 0)
(0 0.0125962 0)
(0 0.00695205 0)
(0 0.0130881 0)
(0 0.00208596 0)
(0 0.0147957 0)
(0 0.00195995 0)
(0 0.00653777 0)
(0 0.0132932 0)
(0 0.00359727 0)
(0 0.0130191 0)
(0 0.00195198 0)
(0 0.013873 0)
(0 0.0109774 0)
(0 0.0126046 0)
(0 0.0144334 0)
(0 0.000327453 0)
(0 0.00680283 0)
(0 0.00297478 0)
(0 0.0148035 0)
(0 0.00133208 0)
(0 0.0049603 0)
(0 0.0132262 0)
(0 0.011769 0)
(0 0.013175 0)
(0 0.00716204 0)
(0 0.00797971 0)
(0 0.0109136 0)
(0 0.00486425 0)
(0 0.00119171 0)
(0 0.00387333 0)
(0 0.0119379 0)
(0 0.0069577 0)
(0 0.014416 0)
(0 0.0117233 0)
(0 0.00385208 0)
(0 0.00704759 0)
(0 0.0145057 0)
(0 0.00670231 0)
(0 0.00423822 0)
(0 0.0143453 0)
(0 0.0116697 0)
(0 0.0122607 0)
(0 0.00244012 0)
(0 0.0114945 0)
(0 0.00370588 0)
(0 0.00315492 0)
(0 0.0109611 0)
(0 0.00128359 0)
(0 0.00823338 0)
(0 0.0115386 0)
(0 0.0127926 0)
(0 0.0112589 0)
(0 0.0146685 0)
(0 0.0129648 0)
(0 0.00816265 0)
(0 0.0139336 0)
(0 0.00861344 0)
(0 0.0140851 0)
(0 0.000622983 0)
(0 0.000894748 0)
(0 0.0138837 0)
(0 0.00458531 0)
(0 0.00919184 0)
(0 0.002821 0)
(0 0.0143969 0)
(0 0.0148812 0)
(0 0.00272881 0)
(0 0.0143192 0)