/*--------------------------------*- C++ -*----------------------------------*\
| =========                 |                                                 |
| \\      /  F ield         | OpenFOAM: The Open Source CFD Toolbox           |
|  \\    /   O peration     | Version:  v2012                                 |
|   \\  /    A nd           | Website:  www.openfoam.com                      |
|    \\/     M anipulation  |                                                 |
\*---------------------------------------------------------------------------*/
FoamFile
{
    version     2.0;
    format      ascii;
    class       surfaceVectorField;
    location    "850";
    object      ddtCorrDdt0(Uf);
}
// * * * * * * * * * * * * * * * * * * * * * * * * * * * * * * * * * * * * * //

dimensions      [0 1 -2 0 0 0 0];


internalField   nonuniform List<vector> 
14885
(
(-0.000489746 0.0219617 4.22867e-19)
(0.00182302 0.0204947 -1.18334e-18)
(0.00318033 0.0247051 1.06916e-18)
(0.0381374 0.0401164 3.0895e-18)
(0.0413927 0.0371569 -2.29319e-19)
(0.0484873 0.0360208 1.55879e-18)
(-0.0169525 -0.0298853 2.04855e-19)
(-0.0212787 -0.0304117 -1.25087e-19)
(-0.0191659 -0.0256188 -3.66893e-19)
(0.000230548 5.71579e-05 -1.39506e-19)
(0.00022722 6.37796e-05 1.76295e-19)
(0.000238397 5.78767e-05 -2.46142e-19)
(0.00024168 2.00624e-05 2.90615e-19)
(0.000236718 2.08281e-05 -9.41562e-20)
(0.000237188 2.74137e-05 8.43616e-20)
(-0.00584727 0.219652 6.57519e-19)
(0.0112493 0.203993 2.03866e-18)
(-0.00801327 0.20268 8.30263e-18)
(0.0627862 0.0222515 7.15832e-19)
(0.0664802 0.0202916 2.54373e-19)
(0.061663 0.0178412 2.1292e-19)
(0.00231511 -0.136051 3.07968e-18)
(0.000298442 -0.139567 -5.17289e-18)
(0.00713125 -0.125939 2.59586e-18)
(0.000376403 -0.000169444 6.484e-19)
(0.000431 -0.000193253 -5.08443e-19)
(0.000371707 -0.000208819 -5.45198e-19)
(0.011124 0.0309378 1.52957e-19)
(0.0142908 0.0312431 -2.28792e-20)
(0.0124189 0.0341215 -4.76651e-19)
(-0.0298841 -0.00325876 -2.47101e-19)
(-0.0316398 -0.00652102 -3.44337e-18)
(-0.02827 -0.00671146 -3.68761e-19)
(0.0296596 0.0358525 -6.01866e-19)
(0.0287381 0.0419916 -1.76904e-18)
(0.0154924 -0.0101527 2.18932e-18)
(0.0150631 -0.0115609 -1.13227e-18)
(0.0139502 -0.0104988 1.73429e-18)
(0.00136396 -0.00113226 -1.02866e-18)
(0.00114146 -0.00110701 -1.04023e-18)
(0.00129558 -0.00139205 4.33749e-19)
(0.00103702 -0.000548079 -3.57867e-20)
(0.00104041 -0.000615095 -6.59625e-20)
(0.00111176 -0.00057466 -1.70636e-19)
(0.00164657 -0.00113088 -1.5399e-19)
(0.00137096 -0.000895269 -1.59515e-19)
(-0.0227756 0.202291 -4.04087e-18)
(-0.0154616 0.21467 3.11263e-18)
(-0.0277587 0.175236 -3.97058e-18)
(-0.0274028 -0.00118451 3.18502e-19)
(-0.0317295 -0.00036944 9.90083e-20)
(0.00445649 -0.00360987 -5.0059e-19)
(0.00434033 -0.00404531 1.96855e-18)
(0.0048493 -0.0040126 1.59523e-18)
(-0.0121258 0.00307925 5.18102e-19)
(-0.0125191 0.00460524 -7.72211e-19)
(-0.0138427 0.0032062 6.36282e-19)
(0.0155714 -0.00870275 2.93067e-19)
(0.0169735 -0.00967842 2.83853e-18)
(-0.00334606 0.0236983 -4.12337e-19)
(-0.00345742 0.0194947 -9.23045e-20)
(0.000234568 4.95726e-05 1.77302e-20)
(0.000222174 5.50804e-05 3.36244e-19)
(0.0144824 0.0150641 8.95203e-19)
(0.0241273 0.0112462 1.57775e-18)
(0.013167 0.00628241 1.4931e-18)
(0.000511311 -0.000273361 -1.94305e-19)
(0.000450067 -0.000262292 5.26748e-20)
(0.000478195 -0.000227838 -4.57622e-19)
(3.56602e-06 4.16172e-07 -2.92357e-19)
(-9.35245e-06 4.4791e-07 -7.73339e-20)
(-1.86669e-05 -1.2704e-06 4.55944e-19)
(0.00947529 0.0284427 1.27991e-18)
(0.00782988 0.0309652 5.3351e-19)
(0.000258092 -4.19156e-06 1.21482e-19)
(0.000285829 -4.67416e-06 -9.21643e-19)
(0.000266567 1.05771e-05 -5.47045e-19)
(-0.0169092 0.213738 3.59573e-19)
(-0.00428267 0.232526 -7.79587e-19)
(0.0156377 0.0187417 5.89527e-18)
(0.0167371 0.00478625 3.70115e-18)
(0.00580377 0.00830753 1.04869e-17)
(7.72291e-05 2.86593e-05 7.60294e-19)
(8.1102e-05 1.96643e-05 -1.76936e-19)
(9.7118e-05 1.81225e-05 1.05219e-18)
(0.00208595 -0.0199876 1.81077e-18)
(0.00326111 -0.0209273 -7.16617e-19)
(0.00158826 -0.0215028 -2.90618e-20)
(0.000377803 -0.000104688 -6.79613e-19)
(0.000379321 -0.000138623 4.45406e-19)
(0.000426877 -0.000117522 -7.1978e-20)
(0.00037434 -8.03045e-05 -6.55488e-19)
(0.000340288 -9.89671e-05 -1.48759e-19)
(0.00465644 -0.130883 -3.80497e-18)
(-0.0030934 -0.141526 -4.32046e-18)
(-0.00947713 -0.156948 1.33512e-17)
(-0.0090225 -0.158034 9.0185e-18)
(-0.00995264 -0.153443 7.5601e-18)
(0.000286536 -6.46854e-06 1.47595e-19)
(0.000278527 -8.09596e-06 -3.05098e-20)
(0.000274556 -1.01608e-05 -6.38101e-19)
(-1.03504e-05 -3.04733e-05 -5.31012e-19)
(9.53683e-07 -2.7924e-05 2.81108e-19)
(9.01634e-06 -3.27691e-05 3.43296e-19)
(6.07643e-05 4.01114e-05 5.16662e-19)
(7.89615e-05 3.82642e-05 -5.42018e-19)
(0.00135039 0.00288187 -1.45905e-19)
(0.00120038 0.00242139 6.61613e-20)
(0.00181495 0.00249158 -1.25036e-21)
(0.0156823 0.0217079 1.53449e-18)
(0.0263641 0.0256784 -2.23539e-18)
(0.000336533 -0.000156337 7.16889e-20)
(0.0541928 -0.0470891 -2.50635e-19)
(0.0480673 -0.0439084 3.91302e-18)
(0.0498542 -0.0522255 2.0673e-18)
(-0.000270889 0.0286084 -2.04426e-19)
(-0.00717771 0.0243678 -6.9563e-19)
(-0.0069433 0.0266637 3.37843e-19)
(0.000134787 -9.81733e-06 -2.36156e-19)
(0.000149833 -1.8152e-05 -9.82962e-20)
(0.000148495 1.31678e-06 -3.02044e-19)
(0.000564681 -0.000276994 4.0873e-19)
(0.000537903 -0.000313293 -4.63205e-19)
(-4.89496e-05 0.000139644 9.23158e-20)
(-3.11361e-05 0.00014435 1.99078e-19)
(-2.71983e-05 0.00012204 4.83205e-19)
(0.000960068 -0.000510844 -6.9638e-20)
(0.00102704 -0.000471183 -4.96654e-19)
(0.0300383 0.0179006 -1.45862e-19)
(0.0320898 0.0165617 -4.15217e-19)
(0.0294258 0.0152916 -3.74985e-19)
(0.114918 -0.0219943 2.25039e-18)
(0.115711 -0.0255189 9.5048e-18)
(0.112082 -0.0357032 -1.05928e-17)
(0.064173 -0.0507897 4.26018e-18)
(0.0589112 -0.0421293 5.0408e-19)
(0.000218784 -1.61806e-05 7.90935e-19)
(0.00021598 -1.17751e-05 1.52975e-19)
(0.000214589 -1.59437e-05 -2.53457e-19)
(-0.0308594 0.186652 1.85825e-20)
(0.0045914 -0.00321753 -1.9256e-19)
(0.00414169 -0.003303 -4.59779e-19)
(0.082063 0.0278431 5.52417e-18)
(0.103236 0.00647634 4.49435e-18)
(0.0763327 0.0678033 1.37387e-17)
(0.0692727 -0.12077 2.0064e-17)
(0.0129823 -0.137436 5.90411e-18)
(0.019081 -0.153021 1.9261e-17)
(0.01565 -0.0073969 -7.67355e-19)
(0.0144118 -0.00795716 -8.12453e-19)
(-0.018256 -0.00812621 1.42908e-19)
(-0.0190698 -0.00561012 5.23954e-19)
(-0.0204652 -0.00838327 2.44558e-19)
(0.00132211 0.000614653 3.63063e-19)
(0.00143226 0.000667728 -1.91858e-20)
(0.00130554 0.000752544 -4.84231e-20)
(4.72428e-05 -3.24308e-05 3.89511e-21)
(4.29372e-05 -3.40498e-05 4.4511e-21)
(4.36973e-05 -3.2713e-05 1.58746e-20)
(0.0278398 0.0192618 4.75417e-19)
(0.0304629 0.0206954 2.79778e-20)
(0.123276 -0.0412944 3.86673e-19)
(0.123643 -0.048067 3.28134e-18)
(0.116506 -0.044919 -8.7403e-19)
(0.0459587 -0.0395009 1.19562e-19)
(0.0416632 -0.0440497 -1.30511e-17)
(0.0206053 -0.102133 -3.24877e-19)
(0.0195261 -0.106258 -1.37106e-19)
(0.0256256 -0.0940563 1.42239e-18)
(-0.014137 -0.0320604 3.46958e-19)
(-0.0228358 -0.0331042 -5.03745e-20)
(-0.0209741 -0.0388275 -2.08162e-19)
(0.00244637 -0.000521132 8.16657e-19)
(0.00252856 -0.000821072 -3.19892e-19)
(0.00280598 -0.000528621 -8.31572e-19)
(-0.0110706 0.000763227 -3.00913e-19)
(-0.0117139 0.00191904 5.6026e-19)
(-0.0124905 0.000449906 -6.85784e-20)
(0.0182928 0.023063 -8.34146e-20)
(0.0222199 0.0246118 8.97231e-19)
(0.0207645 0.01983 -1.10146e-18)
(-0.000128121 0.000126574 3.55346e-19)
(-0.000114981 0.0001392 -2.08582e-19)
(-0.00014815 0.00014844 4.38151e-19)
(0.0145517 0.0213443 1.6722e-19)
(0.0159402 0.0255782 4.08874e-19)
(0.0734523 -0.0539155 1.04839e-18)
(0.0850891 -0.056399 -9.15866e-18)
(0.0779564 -0.0478537 -7.62718e-18)
(-0.00190309 0.00421974 3.80438e-20)
(-0.00244051 0.00428019 1.77552e-19)
(-0.002115 0.00374735 -1.60354e-20)
(-0.000100129 0.000225163 -5.78973e-19)
(-5.48596e-05 0.000260707 1.55578e-19)
(-5.10267e-05 0.000190809 6.27346e-20)
(0.00133449 0.000486955 -2.52278e-20)
(0.00121791 0.000565944 2.23887e-19)
(0.00215984 -0.000516609 6.46068e-19)
(0.00237098 -0.00027458 7.02499e-19)
(0.0689888 -0.0588141 9.04896e-18)
(-0.0265645 -0.00369964 6.21014e-19)
(-0.0233816 -0.00545334 -6.52751e-19)
(-0.0269746 -0.00740136 9.00955e-19)
(-7.30721e-05 0.000159505 -6.87383e-19)
(-6.80816e-05 0.000135539 -1.0356e-19)
(-0.0257921 -0.000735009 1.62605e-18)
(-0.0287666 -0.00165124 5.33218e-19)
(0.00393189 -0.00407816 4.96426e-19)
(0.00424512 -0.00448815 1.82336e-18)
(0.00228355 0.0284705 1.05059e-18)
(-0.00061942 0.0210849 6.21115e-19)
(0.00468983 0.0171584 1.31036e-18)
(0.000167357 4.68148e-06 4.2295e-19)
(0.000214991 8.57785e-06 5.64396e-19)
(0.000167522 4.85471e-06 4.87614e-19)
(0.000256111 -3.14788e-06 1.39503e-19)
(0.000260002 1.06737e-06 5.72674e-19)
(0.000263009 -4.96373e-06 4.98406e-19)
(-0.00758579 0.0230988 4.40849e-19)
(-0.00961511 0.0246294 -1.00509e-18)
(-0.00649044 0.0255195 1.63676e-19)
(0.0429346 0.0278671 -8.35909e-19)
(0.040517 0.0266091 -1.0246e-19)
(0.0439581 0.0252802 -2.95368e-19)
(-0.00982068 0.000963882 4.21671e-19)
(-0.0104434 -0.000274852 -2.94253e-19)
(-0.0132713 -0.0296536 4.49017e-19)
(-0.0140844 -0.0342053 4.6168e-19)
(-0.000482029 0.00131756 1.3425e-18)
(-0.000421778 0.0011789 -3.28815e-19)
(-0.000589845 0.00118401 -3.13139e-19)
(-0.0234272 -0.0155004 9.8304e-20)
(-0.0231799 -0.0196811 -2.65441e-19)
(-0.0182175 -0.0162919 5.05894e-20)
(0.00960182 -0.006948 1.85103e-18)
(0.0104161 -0.00740364 1.78318e-18)
(0.00936221 -0.00781051 3.64902e-18)
(0.000989117 -0.00066311 -1.95458e-19)
(0.00106716 -0.000699479 -1.42106e-19)
(0.0431069 -0.0356132 -3.21303e-18)
(0.0492629 -0.0345847 6.11207e-18)
(0.0421076 0.0310253 8.25288e-20)
(0.0452982 0.0294321 -1.12693e-19)
(0.00802851 -0.0287475 -1.81885e-18)
(0.00157708 -0.0341121 -1.11747e-19)
(0.00678165 -0.0357614 -3.029e-19)
(-0.000427868 0.000322606 -1.27177e-19)
(-0.000526537 0.000343528 -6.64976e-20)
(-0.000480032 0.000258351 -4.98258e-19)
(-0.0168895 0.0427524 -1.02043e-17)
(0.0079364 0.0468485 -1.42616e-17)
(-0.0107244 0.00323715 5.05769e-19)
(-0.0438168 -0.00192694 2.59012e-18)
(-0.038025 -0.00277237 9.53168e-19)
(-0.0433102 -0.0214355 3.72807e-18)
(0.0013241 0.000375497 -5.73817e-19)
(0.00131103 0.00026818 7.62459e-20)
(0.00121572 0.000345089 5.96968e-20)
(0.00894564 -0.00654775 1.10842e-19)
(0.00979367 -0.006096 -1.66709e-18)
(0.019458 0.0408511 -5.75175e-19)
(0.022499 0.0429988 -9.90608e-19)
(0.0224027 0.0387876 -7.27475e-19)
(-0.000310513 0.00213652 2.97946e-20)
(-0.000574643 0.00216673 2.58258e-20)
(-0.000464368 0.00193296 6.94574e-20)
(0.00237237 -0.0170125 -6.16175e-18)
(0.00216778 -0.0158143 -7.52861e-18)
(0.00684184 -0.0032292 -1.06303e-18)
(0.0073532 -0.00295561 -9.56724e-20)
(0.00735135 -0.00365096 -4.67877e-19)
(1.65174e-05 0.00139288 1.58415e-21)
(3.21936e-05 0.00124332 8.1477e-20)
(-0.000116412 0.0013038 1.50918e-19)
(-0.189318 -0.350498 -5.64067e-18)
(-0.144019 -0.337191 -4.76659e-19)
(-0.189233 -0.351483 -5.77978e-18)
(0.00187449 -0.000494824 -3.94154e-19)
(0.00193755 -0.00073408 -1.10483e-18)
(0.0593945 0.0237714 1.3752e-18)
(0.062738 0.0262442 2.63842e-18)
(0.000181326 0.00145826 -6.13525e-20)
(-9.29082e-07 0.00156327 -6.6946e-20)
(0.000972792 0.000717993 -2.09997e-19)
(0.00106416 0.000789927 -1.47564e-19)
(0.00110075 0.0006373 -4.91722e-19)
(0.0560532 0.0250358 -8.14166e-19)
(0.0554692 0.0218547 1.01535e-18)
(0.0156971 0.0380104 8.85876e-19)
(0.015575 0.0426569 3.94699e-19)
(0.0203944 -0.0975954 -4.1624e-18)
(0.0148536 -0.107426 -1.60415e-18)
(-0.00613681 -0.0288294 -2.17505e-19)
(-0.0084956 -0.0257677 8.8619e-20)
(-0.000244673 9.96688e-05 4.39131e-19)
(-0.000221502 0.000123764 -1.59407e-19)
(-0.000268316 0.000127951 4.51347e-19)
(0.0177589 0.0102102 1.16776e-18)
(0.0170766 0.00849085 3.00239e-19)
(0.0191298 0.00881091 -1.76001e-18)
(0.000155544 1.84309e-05 -1.36677e-19)
(0.00014208 2.59321e-05 -5.68522e-19)
(0.000151934 3.20744e-05 -5.75677e-19)
(-0.0173233 -0.0102464 8.08092e-20)
(-0.0165279 -0.00762767 3.11248e-19)
(-0.000277634 3.79358e-05 -1.38696e-19)
(-0.000244842 1.49204e-05 -1.51292e-19)
(-0.000286143 -4.18936e-06 -8.88866e-19)
(5.02219e-05 -2.92042e-05 1.61112e-20)
(5.17161e-05 -3.31692e-05 -5.0535e-21)
(-0.0040883 -0.00546146 -1.804e-18)
(0.0127831 0.0144613 6.41609e-19)
(0.00302528 -0.0108859 -2.56416e-18)
(-0.0111526 -0.00383941 7.31818e-19)
(-0.0236468 -0.0413006 -4.16471e-19)
(0.000118921 7.28755e-07 -3.09305e-19)
(0.000120166 -2.43651e-05 7.9198e-20)
(-0.0232826 -0.0123712 2.77263e-19)
(-0.0281793 -0.0149018 -7.41703e-19)
(-0.000632644 0.00169793 -4.61984e-19)
(-0.000560033 0.00148344 -4.52375e-19)
(-0.000771511 0.00150692 -2.26591e-18)
(-0.000697702 0.00188266 1.65787e-18)
(-0.00043717 0.0018013 6.15078e-19)
(0.0884519 -0.00328456 5.57936e-18)
(0.0474523 0.0557064 6.19697e-18)
(0.0162914 -0.0632556 -6.31598e-18)
(0.0210475 -0.0682388 -3.23149e-17)
(0.012585 -0.0644471 -2.81943e-17)
(0.0184797 0.0123463 -1.41476e-18)
(0.0162006 0.0117872 -4.07995e-19)
(-7.9691e-05 -0.000145219 6.71559e-20)
(-4.57205e-05 -0.000125279 5.8472e-19)
(-4.21766e-05 -0.000157499 2.99594e-20)
(0.00161101 0.000182905 1.20959e-18)
(0.00177368 0.000278809 -1.50612e-19)
(0.00175238 5.25406e-05 6.75016e-21)
(-0.00159031 0.00242985 1.28696e-19)
(-0.0016536 0.00208247 3.06334e-19)
(-0.00199053 0.00238656 1.86844e-19)
(0.00118905 -0.000951782 -1.45054e-19)
(0.00116846 -0.000802951 3.22028e-19)
(0.00133013 -0.000820891 6.17744e-19)
(0.0539624 0.0271846 4.39391e-19)
(0.0566342 0.0281328 -5.33772e-19)
(0.0807243 -0.0216886 -8.49181e-19)
(0.0861707 -0.0269391 4.83992e-19)
(0.0748691 -0.0279457 -1.32025e-18)
(-0.0101387 -0.00394919 1.29443e-18)
(-0.011222 -0.00305196 1.31688e-18)
(-0.0113553 -0.00464208 8.4942e-19)
(-0.133753 -0.307703 2.76004e-18)
(-0.155904 -0.285801 1.78497e-18)
(0.0039061 -0.000420323 7.25942e-19)
(0.00426901 -0.000470907 -2.64433e-18)
(0.00393984 -0.000746222 -5.69293e-19)
(-0.0483463 -0.00106754 1.61263e-18)
(-0.0444529 0.00935669 2.67305e-18)
(0.0343647 -0.0244689 -4.09914e-18)
(0.0333126 -0.0279129 5.02784e-19)
(0.0305434 -0.0254546 7.22509e-20)
(0.00013961 -1.73549e-05 -1.44262e-19)
(0.000144182 -1.86808e-05 7.0945e-19)
(0.000140777 -2.26604e-05 2.86698e-19)
(-0.196541 -0.347571 2.27355e-18)
(-0.187865 -0.343824 -1.12793e-18)
(0.00024859 -1.55671e-05 1.0315e-18)
(0.000234287 -1.59451e-06 2.63652e-19)
(0.00885187 0.00623522 -2.04844e-19)
(0.00842306 0.00561606 -3.3264e-19)
(0.00936004 0.00540413 -8.64429e-19)
(-2.16305e-05 -3.79938e-05 -1.32137e-18)
(-3.23389e-05 -2.81812e-05 -3.86521e-19)
(-0.00553116 0.021747 4.38081e-19)
(-0.00802993 0.0210661 -6.57138e-19)
(-0.000118466 0.00010567 -2.39251e-19)
(-0.000146044 0.000111019 -5.38665e-20)
(-0.003446 0.00173741 -1.76717e-19)
(-0.00337716 0.0021678 -3.18551e-19)
(-0.00383074 0.00192756 2.08414e-19)
(0.0383172 0.0308356 4.31782e-18)
(0.0443633 0.010944 3.60537e-18)
(0.0358633 0.00585748 3.94812e-18)
(0.00165816 -0.000476124 5.89055e-19)
(0.00184288 -0.000341031 8.33057e-19)
(0.000126008 -1.16674e-05 2.7389e-19)
(0.000125979 -1.57782e-05 6.4707e-20)
(0.000129471 -1.33885e-05 9.25926e-19)
(0.00486776 -0.000718092 4.686e-19)
(0.00458636 -0.000584533 -1.29327e-18)
(0.00456668 -0.000966324 -4.58243e-19)
(0.0172241 -0.0139405 1.15961e-18)
(0.0178298 -0.0151326 4.26141e-18)
(0.0160031 -0.0150324 1.86919e-18)
(0.0125257 -0.0235478 5.35837e-19)
(0.00841639 -0.0235766 1.65904e-19)
(0.0084542 0.00712241 3.72771e-19)
(0.00961403 0.00687999 -4.64165e-19)
(0.0144355 -0.0577476 1.21942e-17)
(0.020401 -0.0606161 2.01019e-17)
(0.115972 -0.103307 7.39263e-18)
(0.116066 -0.0928011 -3.41149e-18)
(-0.0015114 0.00282683 3.00659e-19)
(-0.00125076 0.00246215 4.84943e-19)
(1.33543e-05 1.06132e-06 -2.42449e-19)
(2.75156e-05 1.24497e-06 -2.04405e-19)
(0.000245531 3.48376e-06 6.49056e-19)
(0.000239982 4.38861e-06 -2.1398e-20)
(0.000240722 4.87271e-06 3.20206e-19)
(0.00161761 0.00338604 1.10939e-20)
(0.000874145 0.0031789 5.28894e-22)
(0.0761547 -0.0151149 -2.43468e-19)
(0.0841291 -0.014202 -1.30424e-18)
(-0.000357887 0.00143919 1.08799e-18)
(0.0032241 -0.000121901 5.67773e-19)
(0.00330726 -0.000360042 -3.66844e-19)
(0.00303241 -0.000337313 -3.58345e-19)
(0.0382012 0.0682334 -6.17036e-19)
(0.0258112 0.0679577 2.41722e-19)
(-0.000137849 0.000187888 -1.75744e-20)
(-0.000183898 0.000260247 -1.98959e-19)
(0.00226179 -0.0186187 2.35393e-19)
(0.00358897 -0.0177377 2.56946e-18)
(-0.0056244 -0.151062 -1.06259e-17)
(-0.0100217 -0.152636 -8.97899e-19)
(0.000359459 -5.27424e-05 9.25731e-20)
(0.000344326 -3.81974e-05 -1.59965e-19)
(0.000326665 -5.58574e-05 4.15966e-20)
(0.0215814 -0.0163642 -1.12151e-18)
(0.0216256 -0.0212466 -6.12632e-19)
(0.025877 -0.0187542 -3.84402e-19)
(0.014353 -0.0214514 -2.96427e-18)
(0.0234849 -0.0088472 -1.89913e-21)
(-0.0486334 -0.0950717 4.14535e-18)
(-0.0647442 -0.14398 -9.56296e-18)
(-0.0641376 -0.117776 -1.52689e-17)
(0.000402065 -5.56245e-05 -5.56092e-19)
(0.00501565 -0.00311019 1.47713e-19)
(0.00464386 -0.00282038 -9.15925e-19)
(-0.0365138 -0.0746992 1.29307e-17)
(-0.0338699 -0.0510645 1.59484e-17)
(0.000319388 -0.000293032 -2.26375e-20)
(0.000285537 -0.000294617 1.88742e-19)
(0.000285547 -0.000249987 9.30481e-20)
(-3.09654e-05 -4.76559e-05 -7.54966e-19)
(-6.52372e-06 -4.71567e-05 1.87354e-20)
(0.00147555 0.000293866 3.18502e-19)
(0.00142715 0.000123332 5.07186e-19)
(-0.000107264 0.000156593 -2.9307e-19)
(-9.35385e-05 0.000134424 -2.93449e-19)
(0.00359695 -0.000403662 3.79209e-19)
(0.00384317 -0.000117039 1.18468e-18)
(0.00803038 -0.00129141 -5.59825e-19)
(0.00857464 -0.00103941 6.68735e-19)
(0.00848779 -0.00171794 -1.7738e-18)
(0.00143588 0.000400521 -1.24497e-19)
(-0.000155753 2.48723e-05 5.28265e-20)
(-0.000174993 3.80816e-05 1.39353e-19)
(-0.000145868 4.51155e-05 -2.6638e-20)
(0.0172405 0.0203685 1.29551e-18)
(0.0211701 0.0203591 -4.65133e-19)
(0.0199277 0.0224119 -5.50217e-20)
(0.00690072 -0.00944611 -6.78029e-19)
(0.00612046 -0.00957729 6.07703e-19)
(0.0067534 -0.01027 4.07174e-18)
(-0.0014394 0.00413691 -5.38196e-20)
(-0.00163859 0.00470946 -2.07327e-20)
(3.93459e-05 -3.16006e-05 -3.24602e-20)
(3.99078e-05 -3.33657e-05 -2.29372e-20)
(3.63365e-05 -3.10775e-05 -3.27014e-20)
(0.0163406 -0.115258 -9.05925e-19)
(0.0295905 -0.10909 -1.55288e-18)
(-0.10414 -0.184762 7.17469e-18)
(-3.78059e-05 -3.65242e-06 -3.97703e-19)
(-4.41096e-05 -6.42565e-06 -1.05195e-18)
(-3.80136e-05 -7.41277e-06 -7.01004e-19)
(0.0390861 0.0307004 -6.42337e-18)
(0.0169227 -0.00674726 -3.14285e-18)
(0.0156043 -0.00613604 3.35389e-18)
(-0.00011684 -0.000164954 6.00892e-20)
(-0.000116322 -0.000125795 -1.58356e-19)
(0.00750545 -0.00165211 4.13677e-19)
(0.00753624 -0.00103307 -1.03581e-18)
(-0.0276992 0.125623 1.26878e-18)
(0.00932943 0.0932688 -4.13458e-18)
(0.0204055 0.0530775 2.77864e-18)
(0.000924104 -0.000636949 7.92123e-20)
(0.000949882 -0.000708363 -4.89644e-19)
(-0.251157 -0.0993952 -6.6056e-18)
(-0.268088 -0.104041 -1.34459e-17)
(-0.250329 -0.116609 -8.79467e-18)
(0.0237066 -0.00441652 2.34562e-20)
(0.0260544 -0.00740747 -3.0696e-20)
(0.0278403 -0.00358907 1.76088e-19)
(-0.0684868 0.034616 4.6366e-18)
(-0.0918403 0.029339 -6.6321e-18)
(-0.0850306 0.0216305 -1.30997e-17)
(0.000251547 -1.05507e-06 -4.53423e-19)
(0.000252435 -5.44066e-06 3.21031e-19)
(0.0262653 -0.0748232 7.9068e-18)
(0.0263858 -0.0809581 3.78262e-19)
(0.0192534 -0.0736161 2.39445e-17)
(0.0393813 -0.0332295 9.86414e-19)
(0.0365092 -0.0300844 1.12304e-18)
(0.0416947 -0.0295084 -5.71015e-18)
(0.0400544 0.0051493 -5.43291e-20)
(0.0397801 0.00244329 2.65403e-21)
(0.0375016 0.00455714 -2.73679e-19)
(0.000124451 4.25423e-05 5.01704e-20)
(0.000122458 3.44907e-05 -4.7203e-20)
(0.000131583 3.69085e-05 2.42264e-19)
(-0.0302339 -0.00389956 -1.61745e-19)
(-0.0326454 0.00911578 2.32762e-18)
(-0.00173867 0.00178765 7.35651e-19)
(-0.00140637 0.00186662 -2.07126e-19)
(0.0476115 0.0209453 7.44111e-19)
(0.0438581 0.0338395 -9.83643e-19)
(0.0515356 0.032149 3.40776e-18)
(0.0162191 -0.012543 -1.44868e-18)
(0.0180991 -0.0122812 1.11769e-18)
(0.000879752 0.000618273 1.14222e-19)
(0.000850067 0.000757812 1.43235e-19)
(0.00123709 -0.00107738 3.45168e-20)
(0.0010675 -0.00103217 -2.91675e-19)
(0.000724734 -0.0190649 5.41771e-18)
(0.000125862 5.10854e-05 3.37592e-19)
(0.000116403 4.80607e-05 6.32075e-19)
(0.0425395 0.00585306 2.22796e-19)
(0.0402636 0.00770937 1.91681e-19)
(0.0393149 -0.000181188 1.2487e-19)
(0.0362629 -0.000692818 1.90095e-19)
(0.0387384 -0.00338743 3.34596e-20)
(0.00028553 3.86159e-07 -2.36092e-20)
(0.000278459 3.57159e-06 1.49956e-19)
(0.000282593 1.16661e-06 -6.51501e-20)
(0.0124151 0.0194033 -9.44255e-20)
(0.0130218 0.0179706 4.10731e-19)
(0.00943283 0.018224 5.133e-19)
(7.73946e-05 4.90082e-05 1.70332e-19)
(6.90426e-05 4.43765e-05 5.77156e-20)
(6.56007e-05 5.72234e-05 -5.99619e-19)
(-0.0834811 -0.211481 -6.3527e-19)
(-0.0938208 -0.198082 -5.25166e-18)
(-0.0929368 -0.209716 9.54944e-18)
(0.000222784 1.50758e-05 -4.56453e-20)
(0.000221257 1.50549e-05 2.51778e-19)
(0.000227555 1.91148e-05 -2.31135e-19)
(0.030223 -0.0719037 -2.31196e-17)
(-0.270995 -0.108072 4.51699e-18)
(-0.265166 -0.0943056 -1.77701e-17)
(-0.280559 -0.112479 -1.63728e-18)
(0.0209488 -0.0129144 1.54289e-19)
(0.0177307 -0.0149128 1.20883e-18)
(-0.250131 -0.0959318 -2.79089e-19)
(-0.278108 -0.123718 1.39543e-18)
(0.0104249 0.0204476 9.62463e-20)
(0.000223547 6.98525e-05 1.67618e-19)
(0.000216393 6.80113e-05 7.42584e-20)
(0.0372909 -0.0368581 7.9585e-18)
(-0.0025683 0.00103432 -1.94553e-19)
(-0.00281548 0.000782237 -3.31661e-19)
(-0.00245268 0.000706962 2.37911e-19)
(-0.00911668 -0.00452474 -1.72742e-19)
(-0.00910778 -0.00320222 -2.99498e-19)
(0.00594421 0.0254479 -9.42365e-19)
(0.00849697 0.0257991 -1.05381e-18)
(0.00740259 0.02323 -5.28995e-19)
(-0.000126981 0.00212131 6.41823e-20)
(-0.000216554 0.00234675 6.26938e-21)
(-3.93715e-05 -6.25708e-05 -1.09188e-18)
(-5.78228e-05 -4.88151e-05 8.84755e-19)
(-0.000925037 0.00204223 3.74679e-19)
(-0.000703214 0.00216208 7.99602e-19)
(0.00702414 -0.00861549 -7.33919e-19)
(0.00769158 -0.00915209 -3.14187e-18)
(0.000162954 1.31352e-05 8.44295e-19)
(0.000147719 1.01705e-05 -2.80318e-19)
(0.000353143 -0.000290951 1.28262e-19)
(0.000369764 -0.000340786 -5.44624e-19)
(-0.00326121 -0.14249 4.97942e-18)
(-0.00595378 -0.00590897 -3.43882e-19)
(-0.00690984 -0.00556455 3.37229e-19)
(-0.00648335 -0.00677058 -5.28786e-19)
(-0.0437218 0.0399697 1.86019e-17)
(-0.0275646 0.0297972 -2.39282e-18)
(0.00761036 0.00538317 -5.42739e-20)
(0.00812522 0.00473225 -8.28942e-19)
(0.0346187 0.0164386 4.19709e-18)
(0.0340443 0.0108208 2.55349e-18)
(-0.0120388 -0.14547 -1.11647e-20)
(0.0263568 -0.094055 -3.44799e-18)
(0.00938851 -0.129941 2.77582e-18)
(0.0351586 -0.115022 3.21167e-18)
(0.0307792 -0.134705 5.35431e-18)
(0.0362936 -0.118677 -3.93443e-18)
(5.53422e-05 -2.30924e-05 -2.10274e-20)
(4.72307e-05 -2.46642e-05 4.49315e-20)
(0.00182277 0.00396646 -1.62838e-19)
(0.00234928 0.00348605 3.22832e-20)
(0.00884531 0.231626 1.50597e-17)
(-0.0419655 0.320674 -1.21134e-17)
(-0.032538 0.279 -1.50834e-17)
(0.000244981 1.4906e-05 -2.94257e-20)
(0.000244398 1.94054e-05 5.06729e-19)
(0.0410898 -0.08745 -5.81476e-19)
(0.0325378 -0.109464 -6.51899e-19)
(0.00677934 0.00496378 -4.96359e-19)
(0.00690496 0.00587136 7.65057e-20)
(0.00515193 -0.00096382 -1.32071e-19)
(0.00518491 -0.000594583 3.25777e-20)
(0.000232575 1.60755e-05 3.22569e-19)
(0.000230431 2.13926e-05 -5.79151e-19)
(0.00628942 -0.00352188 7.46553e-19)
(0.00630113 -0.00290872 -5.17524e-19)
(-0.000161046 -0.000191119 -3.2984e-19)
(-0.000113175 -0.000208476 -4.10868e-19)
(0.0370049 0.0397093 6.21856e-19)
(0.0400633 0.04772 1.6045e-19)
(0.0446403 0.0374694 6.77905e-19)
(0.115795 0.0705941 -4.34089e-19)
(0.124414 0.0283086 2.85992e-18)
(0.114196 0.0505539 4.73295e-18)
(-0.00301094 0.00155074 3.87888e-19)
(-0.00341635 0.00128344 7.04812e-19)
(-0.00496346 -0.00607864 2.16646e-19)
(-0.00554007 -0.00510209 -1.19923e-19)
(-3.68584e-05 -2.06537e-07 -3.78937e-20)
(-2.77493e-05 -1.49536e-06 4.24143e-19)
(-0.00371155 1.14448e-05 5.98812e-19)
(-0.00422472 -7.03192e-05 4.8444e-20)
(-0.00398556 0.000440527 -2.41656e-19)
(0.0267232 0.0393721 -8.9233e-18)
(0.0256419 0.051286 -1.86842e-17)
(0.000214077 1.09901e-05 -5.10895e-19)
(0.000214209 1.56473e-05 1.59893e-19)
(0.000217015 1.33345e-05 -5.88068e-20)
(-0.0237275 -0.0237485 -1.69844e-20)
(-0.0294059 -0.0228286 -2.11829e-19)
(-9.95618e-06 -1.25897e-06 -5.22962e-19)
(-7.43072e-06 8.22814e-06 3.49626e-19)
(7.01576e-06 -4.37349e-06 -1.44243e-19)
(0.000223326 -2.14096e-05 -5.01539e-19)
(0.00022233 -1.59467e-05 1.85686e-19)
(-7.31516e-06 0.000146616 3.96176e-19)
(-2.70169e-05 0.000169252 -9.83769e-19)
(0.0143631 -0.0127137 -8.49145e-18)
(0.0818715 0.140358 -2.6085e-18)
(0.107877 0.100287 -5.26558e-18)
(-0.023181 -0.0284301 3.20878e-19)
(-0.0169561 -0.0237918 8.87302e-19)
(0.0324439 0.0356017 4.171e-19)
(0.0308001 0.0412259 1.23821e-18)
(6.63174e-05 9.38549e-06 2.87241e-19)
(6.84408e-05 7.33447e-06 -2.65983e-19)
(6.94051e-05 1.21285e-05 1.09778e-19)
(-0.00110844 0.00193956 -4.45935e-19)
(-0.00108809 0.00222358 3.69218e-19)
(0.000440029 -0.000134671 -1.75199e-20)
(0.000426201 -0.000118614 -7.31127e-20)
(0.000451981 -0.000118452 2.73891e-22)
(0.100448 -0.0244296 1.62809e-19)
(0.108595 -0.0153291 -1.12239e-19)
(-5.31111e-05 -0.0011134 -7.35315e-19)
(-6.60175e-05 -0.000951031 -5.86803e-19)
(9.29985e-05 -0.00102806 1.14056e-18)
(0.0913159 -0.0632262 -9.98003e-19)
(0.0826669 -0.0697044 -4.99808e-19)
(-0.00344276 -0.000335432 7.17076e-19)
(-0.00325017 0.000101825 -2.36611e-19)
(-0.00959543 -0.0135537 -3.30219e-19)
(-0.0127561 -0.0128669 1.1154e-19)
(-0.0123588 -0.0155931 3.19522e-19)
(0.00214721 -0.00189473 -1.81708e-18)
(0.00208932 -0.00208835 -3.35154e-19)
(0.00232394 -0.00204877 -1.04259e-18)
(0.00021081 -0.000110471 -8.75681e-19)
(0.000191204 -0.000109842 -4.1996e-20)
(0.0002135 -0.000136212 6.40235e-19)
(5.90565e-05 1.67098e-05 2.17555e-19)
(6.01948e-05 4.10313e-06 -4.5226e-19)
(-0.0762297 0.199826 8.52642e-18)
(0.000310342 1.3898e-06 5.28012e-19)
(0.000300625 -1.65397e-05 -6.16375e-19)
(0.014494 -0.144694 5.22815e-18)
(0.00721293 -0.151382 -5.46542e-19)
(0.00280932 -0.140016 3.58482e-19)
(-0.206587 -0.0998882 8.81739e-18)
(-0.256159 -0.0843951 6.62143e-19)
(0.00220145 -0.00169762 8.35447e-19)
(0.00199714 -0.00174832 1.08064e-19)
(0.000218597 -1.44408e-05 2.54046e-19)
(0.000189418 -8.03341e-06 -1.63386e-19)
(0.000176393 -6.15064e-06 -4.26791e-20)
(-0.177405 -0.066965 -4.29798e-18)
(-0.175721 -0.079145 7.84721e-18)
(-0.143586 -0.0543018 1.46808e-17)
(0.012964 0.0160701 -2.96716e-19)
(0.0106986 0.0167942 -2.42689e-19)
(0.0127878 0.0182476 3.89726e-19)
(7.28891e-06 0.000300451 1.28463e-19)
(-4.32661e-05 0.00030656 4.71375e-19)
(-1.34811e-05 0.000340118 7.0237e-20)
(-0.0113732 0.0166022 3.95405e-19)
(-0.00908828 0.0201868 2.57929e-18)
(-0.00858341 0.0172251 1.28014e-18)
(0.000121926 -1.0973e-05 -8.22853e-19)
(0.000123011 -9.03285e-06 1.71175e-19)
(0.0153176 -0.00372793 2.13721e-18)
(0.0166224 -0.00412722 -1.35546e-19)
(0.0155585 -0.00492973 5.1642e-18)
(0.00611753 0.0136443 7.39087e-20)
(0.00678149 0.012103 -9.04721e-19)
(0.00772498 0.0137987 2.86079e-19)
(0.000242017 -8.13417e-07 1.9145e-19)
(0.000293824 -3.0177e-06 8.14282e-20)
(0.000239103 -1.0054e-06 3.69631e-19)
(0.0141982 -0.167278 1.6901e-19)
(0.0190487 -0.174509 -7.71695e-18)
(0.0227606 -0.160124 -4.43902e-18)
(-0.0303412 -0.0330127 -3.49862e-19)
(0.00160666 -0.000310391 1.34254e-19)
(0.00179494 -0.000199462 -1.65152e-19)
(0.00152769 -9.46584e-05 1.72473e-19)
(-0.0434405 0.0299219 3.05694e-19)
(-0.0392204 0.03565 4.89162e-19)
(-0.0444329 0.0260207 1.98806e-19)
(-0.00796741 -0.00520144 4.64098e-19)
(-0.00883739 -0.00600358 -8.39236e-19)
(0.000425066 -0.000148285 4.12188e-20)
(0.000453179 -0.000149542 -9.12502e-21)
(8.68556e-05 4.31723e-05 3.51226e-19)
(8.51062e-05 5.523e-05 9.76582e-19)
(0.00455108 -0.000188515 -3.43959e-18)
(0.0425483 0.000317191 -1.6579e-20)
(3.92359e-05 -2.97006e-05 2.55435e-20)
(4.15311e-05 -3.22598e-05 1.49542e-20)
(-0.0485395 -0.187236 6.36199e-18)
(-0.0281326 -0.15267 3.13594e-18)
(0.0145356 0.0150067 7.90267e-19)
(0.0124268 0.0140703 2.28882e-19)
(0.128777 -0.0349643 -2.10732e-18)
(0.1141 -0.029785 -2.01361e-18)
(-1.21653e-05 -0.00130055 -1.959e-19)
(8.47751e-06 -0.00153448 1.0058e-18)
(0.00022468 -0.00141225 1.17329e-18)
(0.00128146 0.00440649 -9.0816e-21)
(0.00211972 0.00466468 -3.33516e-20)
(-0.0449168 0.0320416 -1.16176e-18)
(-0.0459498 0.0242391 -2.3132e-19)
(0.00826999 -0.15891 5.91679e-18)
(0.00606281 -0.170043 1.85625e-18)
(0.000284737 -2.27219e-06 -3.98424e-20)
(0.000289671 -3.97281e-06 6.17621e-19)
(0.00113751 -0.000659513 -3.1935e-19)
(0.00122476 -0.000542053 2.79579e-19)
(0.00109136 -0.000506907 -3.6456e-19)
(-0.000363103 0.000374759 1.39483e-19)
(-0.000334917 0.000292601 9.43867e-20)
(0.00163624 -0.000522487 5.20554e-19)
(0.00143163 -0.000383499 -2.04622e-18)
(0.00441518 0.0135678 -3.63457e-19)
(0.00554128 0.0152664 -4.89325e-19)
(-0.0127385 0.0132021 1.8353e-18)
(-0.0143485 0.0156846 -1.19559e-18)
(7.44932e-06 0.000147504 3.87794e-19)
(7.34042e-06 0.000130817 5.04574e-19)
(0.014835 0.018976 6.71025e-19)
(0.0140633 0.0197694 8.1434e-19)
(0.0435447 0.0209784 -5.06662e-18)
(0.0503124 0.0177621 -3.43397e-18)
(0.0508265 0.0252816 -2.61274e-18)
(-0.000260884 7.1187e-05 1.79215e-19)
(-0.000218399 7.54558e-05 -8.77654e-20)
(0.00013068 5.48535e-06 4.59161e-20)
(0.000127094 6.2238e-06 1.91087e-20)
(0.000114421 2.79731e-06 -2.91844e-19)
(0.0628994 -0.0817998 -3.12899e-18)
(0.102618 -0.0536044 1.36689e-17)
(-0.00649015 -0.0132667 -2.01672e-19)
(-0.00768022 -0.0113881 2.33241e-18)
(0.0352854 0.0152664 1.94293e-19)
(0.0364381 0.0161942 -2.91858e-19)
(0.0394784 0.0136306 -1.35651e-20)
(0.0242893 0.0208121 -1.10449e-19)
(0.0275392 0.0218947 -1.14606e-19)
(0.0274156 0.0213686 -4.62168e-19)
(0.000288187 -1.35375e-06 6.00269e-20)
(0.000288304 -2.8808e-06 3.57879e-20)
(0.0123138 0.00185331 -1.94273e-18)
(0.0110451 0.00280349 -9.25957e-19)
(0.0106764 0.00124589 -9.29703e-19)
(0.00135791 0.000398332 -1.05495e-18)