/*--------------------------------*- C++ -*----------------------------------*\
| =========                 |                                                 |
| \\      /  F ield         | OpenFOAM: The Open Source CFD Toolbox           |
|  \\    /   O peration     | Version:  v2012                                 |
|   \\  /    A nd           | Website:  www.openfoam.com                      |
|    \\/     M anipulation  |                                                 |
\*---------------------------------------------------------------------------*/
FoamFile
{
    version     2.0;
    format      ascii;
    class       volScalarField;
    location    "850";
    object      nut;
}
// * * * * * * * * * * * * * * * * * * * * * * * * * * * * * * * * * * * * * //

dimensions      [0 2 -1 0 0 0 0];


internalField   nonuniform List<scalar> 
10042
(
0.00690088
0.0132773
0.00408522
0.00671044
0.00675117
0.0139503
0.00229799
0.02261
0.00670702
0.00153619
0.0132584
0.014415
0.000939528
0.00685893
0.00678715
0.00685924
0.0140504
0.0118593
0.00187221
0.00284849
0.000941078
0.00802737
0.00671002
0.0107383
0.00673805
0.00699855
0.00157898
0.00669092
0.0145847
0.0104593
0.00697159
0.000825092
0.00670135
0.006699
0.0221326
0.0213631
0.00682499
0.0066933
0.0068763
0.00702814
0.00927075
0.0067031
0.00171595
0.013013
0.00671852
0.00674233
0.00668337
0.00677942
0.00130946
0.00222038
0.0016018
0.00671048
0.0134292
0.00208769
0.0267344
0.0374095
0.000985917
0.0107338
0.00680627
0.00668034
0.00133779
0.0169561
0.00129449
0.0223796
0.00849226
0.00689255
0.00331879
0.00602448
0.00668287
0.00664073
0.00164455
0.00640366
0.00672732
0.00680214
0.00687765
0.00167256
0.00593546
0.00668334
0.00512159
0.00185721
0.0081028
0.00874694
0.00707679
0.00671138
0.00153381
0.00201973
0.0037545
0.00427653
0.00676913
0.00541696
0.00112601
0.00678724
0.00137912
0.00206642
0.00769411
0.00676839
0.0364325
0.00307596
0.0115417
0.00679646
0.00126226
0.00196919
0.00680424
0.000853321
0.00176067
0.00679343
0.0199025
0.00685868
0.00230674
0.00679878
0.00679439
0.00243385
0.00200259
0.0221178
0.00736343
0.00668615
0.00609447
0.00694162
0.008948
0.00668759
0.00667977
0.0182896
0.0183526
0.00672051
0.00608821
0.00679223
0.00680242
0.0264559
0.00142624
0.0063738
0.00670316
0.00683231
0.00685574
0.00682106
0.00244016
0.00179293
0.00381913
0.0148417
0.00298864
0.0103764
0.00101154
0.00675738
0.0159387
0.00669087
0.0015959
0.00669422
0.00172069
0.00668257
0.00677515
0.0154344
0.00684401
0.00687223
0.00277545
0.00085129
0.00719116
0.0017173
0.00148609
0.0381652
0.0068657
0.00699755
0.00689364
0.00710119
0.00186055
0.00677883
0.00387791
0.0159436
0.00672541
0.00080568
0.0218238
0.00669482
0.00757634
0.0117092
0.0249721
0.00669587
0.00204489
0.0225749
0.00673814
0.00669419
0.00681372
0.00668278
0.00328976
0.00168752
0.00680107
0.00668253
0.00779325
0.00105546
0.00611372
0.00669073
0.004438
0.00685841
0.00816032
0.000996437
0.00670545
0.00185259
0.0282939
0.00678541
0.0123058
0.0076295
0.0405647
0.00671315
0.00141452
0.00122167
0.00528017
0.00676309
0.011731
0.00683494
0.0162627
0.000884013
0.00678715
0.00682519
0.000773469
0.00673854
0.0051486
0.00533177
0.00683782
0.00371724
0.0067557
0.0240459
0.00674705
0.00144661
0.0269517
0.00751107
0.0294479
0.00476373
0.00671125
0.00111452
0.00679355
0.00427638
0.00139967
0.00680615
0.00669625
0.00681791
0.00120467
0.0070236
0.00673888
0.0224469
0.0050707
0.0380379
0.0018009
0.0118674
0.011827
0.0204509
0.00667954
0.00715174
0.024111
0.00676112
0.017001
0.00205648
0.00256791
0.00681778
0.00171143
0.00670958
0.00987418
0.0261076
0.00678047
0.00583327
0.00691724
0.00677525
0.0347806
0.00671825
0.00830461
0.00669857
0.0067095
0.00668404
0.000868952
0.0259161
0.00705182
0.00622734
0.00701026
0.00682113
0.00672867
0.00187941
0.00679521
0.00225305
0.00678526
0.00634611
0.00315388
0.00672315
0.00701601
0.030461
0.00669098
0.0251578
0.0105504
0.00359645
0.00688529
0.0404689
0.00656544
0.0066895
0.00883444
0.0069318
0.00106538
0.00693388
0.00689708
0.0252902
0.0100432
0.00686261
0.0241732
0.00439242
0.00672943
0.0067656
0.0028649
0.00528935
0.00669167
0.0137455
0.00640467
0.0160886
0.00682432
0.00743447
0.0245005
0.024879
0.00686686
0.00680154
0.00676284
0.00686075
0.00697187
0.00950144
0.00668416
0.00733446
0.00968586
0.00668558
0.00696714
0.00218364
0.0060686
0.00839366
0.00673635
0.00686528
0.0077185
0.00680626
0.0049986
0.00112213
0.00683037
0.00676083
0.00408496
0.00688167
0.0151955
0.0104412
0.0137101
0.00944373
0.00671272
0.016161
0.00104017
0.000976291
0.00667997
0.0076693
0.00695795
0.00669558
0.00676045
0.00676281
0.00720234
0.0396372
0.00507514
0.00815224
0.0072357
0.00691745
0.0217297
0.00782699
0.00679177
0.00706702
0.00422001
0.00695063
0.00678936
0.00683026
0.00397094
0.00991866
0.016038
0.00344053
0.00672513
0.00720441
0.00719863
0.0245909
0.00668234
0.00708583
0.00680597
0.00702856
0.00182063
0.00684072
0.00695736
0.0073969
0.0165064
0.00171428
0.00677237
0.00806106
0.00145664
0.00679343
0.000818459
0.00668889
0.00679545
0.00668496
0.0068873
0.00668893
0.0067855
0.0375875
0.00516835
0.00780867
0.0159713
0.0247205
0.00671506
0.0223349
0.00684211
0.000749264
0.006711
0.0377453
0.00701478
0.0247811
0.0344603
0.00691344
0.00100882
0.00715701
0.00900726
0.00679667
0.00889208
0.00142555
0.0240212
0.00561939
0.0155812
0.00698588
0.00152275
0.0249823
0.00668651
0.00697782
0.00685179
0.0156834
0.0066994
0.00668256
0.00100367
0.00690486
0.00156708
0.00843538
0.00671643
0.000963453
0.00691604
0.00668393
0.00144991
0.0214552
0.00706173
0.00435277
0.00197843
0.00788887
0.00697732
0.037355
0.00669105
0.00705826
0.00330639
0.00385224
0.00172141
0.0148782
0.0136042
0.00190342
0.0223991
0.00668339
0.00602566
0.0250341
0.0250883
0.000815807
0.00670961
0.00676833
0.00702341
0.0381632
0.00668357
0.00682312
0.0069997
0.00671473
0.0069802
0.00701952
0.00686871
0.00379011
0.00992995
0.00331299
0.00709595
0.00764183
0.00190407
0.00673949
0.0370601
0.0019676
0.0150612
0.00685351
0.0013006
0.00699255
0.0226967
0.00673461
0.00768278
0.00585627
0.00985609
0.00678824
0.0017134
0.00682435
0.00608134
0.00596027
0.00697995
0.00671999
0.00680907
0.00995757
0.00669752
0.00766159
0.00463857
0.00103354
0.00686146
0.00764272
0.0251438
0.00209889
0.00677414
0.0069673
0.0244441
0.0118266
0.00108553
0.0125164
0.00686882
0.00553228
0.00155846
0.00157804
0.00233738
0.0168187
0.00684561
0.00670939
0.00680458
0.0246309
0.00671838
0.00813154
0.00671391
0.00676244
0.006743
0.00153894
0.00981832
0.00680668
0.00447608
0.00656306
0.00764737
0.00190983
0.00680553
0.00685811
0.0045413
0.00207879
0.00677849
0.00670708
0.00439098
0.00677607
0.00675135
0.00844017
0.00669869
0.0251589
0.00671998
0.00139816
0.00764997
0.0360461
0.0067191
0.00125479
0.00676403
0.00671622
0.00776698
0.0066802
0.00777377
0.00105029
0.00670067
0.00749889
0.00998959
0.0151919
0.00716208
0.00687943
0.00670674
0.00668201
0.00710267
0.00669778
0.00679899
0.026493
0.00675588
0.00678409
0.00169717
0.00168505
0.00637728
0.00697365
0.00670826
0.00183185
0.00766984
0.00753718
0.0170833
0.00672517
0.00121412
0.00673831
0.00670355
0.00682726
0.00680566
0.00678445
0.00687179
0.0401529
0.00668891
0.00213352
0.00671849
0.00743183
0.00668463
0.00207632
0.0195682
0.00669781
0.00672119
0.00629964
0.00755483
0.00668563
0.0196471
0.00673265
0.00626571
0.00669338
0.00685164
0.0067134
0.00624908
0.00668505
0.00678686
0.00685919
0.021412
0.00706831
0.00682702
0.00688103
0.0058179
0.00671615
0.00673657
0.00674731
0.00673671
0.00212118
0.00674049
0.0073353
0.00674809
0.0336398
0.0156201
0.0049613
0.00679734
0.0016646
0.0067414
0.00535359
0.00682228
0.00908461
0.00554759
0.00746046
0.00692441
0.0150487
0.0067244
0.0067665
0.0216963
0.00541698
0.00771997
0.000831225
0.00679824
0.00971257
0.00672891
0.0067792
0.00674827
0.00669562
0.00688331
0.0228189
0.00355337
0.00697323
0.0382077
0.00674675
0.00750346
0.00696768
0.003618
0.00772046
0.00684315
0.0129867
0.00682071
0.0067897
0.00174231
0.00676851
0.00673471
0.00698702
0.00674314
0.00670888
0.0119638
0.00999409
0.0209237
0.0067718
0.00675935
0.00673944
0.010668
0.0058814
0.00687764
0.00679741
0.00674114
0.0137623
0.00297199
0.00935383
0.00678813
0.00687207
0.0287658
0.0011909
0.00721121
0.00162371
0.0233635
0.0184513
0.0128426
0.0067269
0.00687627
0.00683569
0.0204133
0.00672418
0.00150122
0.00686478
0.00668167
0.00768718
0.00697725
0.00826165
0.0185097
0.0066905
0.00671798
0.00668199
0.0124074
0.00669509
0.0100745
0.00716745
0.00380168
0.00675258
0.00683752
0.00669866
0.00670945
0.00675605
0.00673933
0.00673582
0.00569128
0.00780149
0.00183857
0.00622307
0.0067207
0.00395918
0.0229789
0.00685245
0.0381337
0.00671784
0.00682867
0.0068779
0.00691529
0.0175498
0.00686448
0.00680806
0.00675368
0.030725
0.00681887
0.0177694
0.00110156
0.00676169
0.00202088
0.0220776
0.00693221
0.00673099
0.000904013
0.00707968
0.00793665
0.00770913
0.00342661
0.0077471
0.00676641
0.00678071
0.00687816
0.00203066
0.0067526
0.00676792
0.00208711
0.00668259
0.00717243
0.00681784
0.00336671
0.00707117
0.0110321
0.00671127
0.00678306
0.00550769
0.00674739
0.000905489
0.00145218
0.00689117
0.0129684
0.00807501
0.00677708
0.0070013
0.00146969
0.00683239
0.0222333
0.0062021
0.00148025
0.00142251
0.0295326
0.00695693
0.00165594
0.00746562
0.00536857
0.00105391
0.00669115
0.00143241
0.00679827
0.00579653
0.00685963
0.00675117
0.00284103
0.00124253
0.00693665
0.0067849
0.0162496
0.00669296
0.00675569
0.00671585
0.00668301
0.00995417
0.00733975
0.00675833
0.00455373
0.0186528
0.00675517
0.00606995
0.00861709
0.00673534
0.00681132
0.00668254
0.00962947
0.0229647
0.00180026
0.00673146
0.00123586
0.00219199
0.0371281
0.00707266
0.00613574
0.00178445
0.00582932
0.00805428
0.00675066
0.00724791
0.00479718
0.00262529
0.00644433
0.0379954
0.00638619
0.0121034
0.0183394
0.00684745
0.00452908
0.00860429
0.00498381
0.0249124
0.00185873
0.0401388
0.00676988
0.0118968
0.00676771
0.00513845
0.00694626
0.00669723
0.00669013
0.00678797
0.00672022
0.0114798
0.00683062
0.00668524
0.00831485
0.00675294
0.00129129
0.00712073
0.00607951
0.00693275
0.00423395
0.00681872
0.00685199
0.00674172
0.00138837
0.00671181
0.00214923
0.00526287
0.00452416
0.00684399
0.0241376
0.00670681
0.000875011
0.0103592
0.0067768
0.00675048
0.00668497
0.00684557
0.00683586
0.0212755
0.00224764
0.00674615
0.0297231
0.00687105
0.00677901
0.0143512
0.0066826
0.00677592
0.029975
0.00670981
0.0151022
0.00293816
0.00194097
0.00133662
0.00240524
0.00760193
0.00676342
0.0208554
0.0235029
0.00672026
0.00157501
0.00564238
0.0019669
0.00240807
0.00700927
0.00676301
0.00770905
0.00678912
0.00779018
0.0086867
0.00167019
0.00668236
0.000908279
0.0156299
0.0228416
0.0066825
0.00668201
0.00698082
0.00680466
0.0163721
0.0065624
0.0067979
0.0014446
0.0158825
0.00687539
0.00690147
0.0316788
0.00459167
0.00830907
0.00750156
0.00686348
0.00677833
0.00725069
0.000904036
0.00466565
0.00685722
0.0120542
0.0289962
0.0276513
0.00187551
0.00491423
0.0336087
0.000830085
0.0205394
0.00097147
0.00676674
0.00680291
0.0284745
0.0123672
0.00696458
0.00153631
0.000861708
0.00681064
0.00459311
0.00696083
0.00679924
0.00697486
0.000852692
0.00677684
0.00672405
0.0402156
0.00678155
0.00675597
0.00146294
0.00144894
0.0115973
0.00695794
0.00680912
0.0271117
0.00123576
0.00690726
0.00111871
0.010892
0.00674207
0.00671376
0.00140267
0.00466402
0.00673246
0.00696274
0.00679867
0.00691401
0.00685499
0.0280342
0.00688961
0.00384283
0.00677381
0.00233559
0.00685362
0.00626579
0.0063147
0.0137099
0.00204627
0.00675212
0.00690232
0.0131307
0.00827583
0.00737483
0.00382287
0.0110631
0.00674761
0.00745926
0.00405158
0.00721528
0.00253598
0.00671332
0.00422863
0.012134
0.00169422
0.00695384
0.00680237
0.00129323
0.0062185
0.00675186
0.00672919
0.000869858
0.00669257
0.00673071
0.00728683
0.00694161
0.0145814
0.00671636
0.00673643
0.00675702
0.00226879
0.00701551
0.00753104
0.00201942
0.00673587
0.00682479
0.0103606
0.00681352
0.00435305
0.00693584
0.0155334
0.0100494
0.00688799
0.0151019
0.0028855
0.00677756
0.0119143
0.00398752
0.00678639
0.00668347
0.00672024
0.00707412
0.0280393
0.00160024
0.0226933
0.0194504
0.0134334
0.00118288
0.00963772
0.00193963
0.00713688
0.00669643
0.00112077
0.00677819
0.00683799
0.00680232
0.0274693
0.0231998
0.00675713
0.00474641
0.00674589
0.00244667
0.00685553
0.00251465
0.0071011
0.00614694
0.00509105
0.00672753
0.00668871
0.00189293
0.00118319
0.0070046
0.00752522
0.00913081
0.00696938
0.0183886
0.0150331
0.00670645
0.00672639
0.00675049
0.0020559
0.00692235
0.00440932
0.00684489
0.00710622
0.00698578
0.00681806
0.00704223
0.00793405
0.0119149
0.00670432
0.00451824
0.00258815
0.000781433
0.00174297
0.00234308
0.00670952
0.0007472
0.00196595
0.00675039
0.00108941
0.00811147
0.00679468
0.0067307
0.00699315
0.0110305
0.0200498
0.00678034
0.0246014
0.0068217
0.00679799
0.00186326
0.00682113
0.00696634
0.00675071
0.00701722
0.00776464
0.0113421
0.00699736
0.00683199
0.00671587
0.00685577
0.00672132
0.0221483
0.00668905
0.00249161
0.0175947
0.0127786
0.00669977
0.0150022
0.00680041
0.00262345
0.00700207
0.00491384
0.00669092
0.00622045
0.0031967
0.00846091
0.00675655
0.0066506
0.0128666
0.00701526
0.00701918
0.0126682
0.00679798
0.0158807
0.0103407
0.00718604
0.00252909
0.0124559
0.0243512
0.0380354
0.00160042
0.0103923
0.00673199
0.00703501
0.0130522
0.00114193
0.00671581
0.0127789
0.00382213
0.00672232
0.00686451
0.00558157
0.00111084
0.0023795
0.0107982
0.00150031
0.00117786
0.0030435
0.00673736
0.00689899
0.024004
0.0123119
0.00145327
0.0173707
0.00680269
0.0067752
0.00118693
0.00937878
0.00123468
0.00672669
0.00846694
0.0275519
0.00686901
0.00455271
0.00676762
0.000905196
0.00533501
0.00680474
0.0115877
0.0134038
0.0067224
0.00338551
0.00671677
0.0170143
0.00695989
0.00168999
0.00761057
0.00673965
0.00683574
0.00669015
0.00116464
0.00679616
0.00724966
0.0071805
0.00745705
0.00893669
0.00680573
0.00128095
0.0102757
0.0068388
0.00422374
0.00686889
0.00675797
0.0330089
0.0211314
0.00678838
0.00190997
0.00734616
0.0125538
0.00677963
0.00698497
0.00708423
0.00688396
0.00220402
0.00810436
0.00699366
0.00698477
0.0130788
0.00446714
0.00269038
0.023281
0.00165568
0.0132827
0.00671946
0.00668411
0.0170549
0.00682735
0.00857579
0.0138233
0.00162511
0.0148862
0.00680643
0.00697805
0.00182177
0.0147913
0.00678758
0.00173176
0.00708442
0.00676525
0.000932061
0.0033041
0.00681668
0.000856088
0.00244363
0.00691664
0.00219747
0.00671113
0.00687222
0.00572781
0.000965394
0.0167009
0.0067503
0.00120447
0.00673646
0.00672388
0.0177934
0.00676622
0.0150517
0.0132089
0.00502799
0.0149621
0.00089481
0.00860748
0.00668214
0.0166285
0.00127272
5.2925e-05
0.00283548
0.00701721
0.00674991
2.19859e-05
0.00277866
0.00725241
0.000875928
0.00671867
0.0225288
0.00668183
0.0409688
0.00670959
0.00359549
0.00682871
0.00671885
0.00671434
0.0197615
0.00671053
0.00680366
0.00669761
0.00673493
0.00672243
0.00381433
0.0237461
0.00686413
0.00141691
0.00678405
0.00670957
0.00670505
0.0172004
0.0394049
0.00145433
0.00677652
0.00670746
0.00674753
0.00228319
0.00153905
0.00670915
0.0163076
0.0273738
0.0080419
0.00683711
0.00673809
0.00671637
0.00232858
0.00673249
0.0056685
0.00672824
0.00672392
0.00561223
0.00688108
0.00743593
0.0242944
0.031124
0.00717127
0.00671273
0.00681207
0.0328822
0.00691839
0.00122611
0.00698104
0.00672494
0.00677508
0.00672111
0.0165214
0.00686112
0.0142384
0.0209534
0.000762773
0.00674692
0.00152338
0.0164078
0.00221801
0.00113407
0.00692086
0.000893572
0.00672172
0.00136511
0.00244531
0.013221
0.00677542
0.00676511
0.0223128
0.0016166
0.000739602
0.00703096
0.0126217
0.00673971
0.00146043
0.00959789
0.0134526
0.00101621
0.00688525
0.00682666
0.00684049
0.00678533
0.00255906
0.0155871
0.0139023
0.00672603
0.0234441
0.00689193
0.00354411
0.015591
0.00673668
0.0193129
0.00324099
0.00672609
0.00210318
0.00115773
0.00681203
0.0131789
0.00671111
0.0389241
0.00724045
0.0359056
0.00185289
0.000815763
0.00678177
0.00137087
0.00594571
0.00673242
0.00671075
0.00677561
0.0021761
0.00417023
0.00117833
0.00350029
0.0275186
0.00118549
0.00752325
0.00683828
0.0357603
0.00672452
0.00584647
0.00355407
0.0323303
0.0016812
0.0231177
0.0079332
0.00669393
0.00680825
0.00670912
0.00153774
0.00692791
0.0252242
0.00160051
0.0313437
0.00136356
0.00682119
0.00682797
0.00677132
0.00669387
0.0123384
0.0177623
0.0398922
0.00679069
0.00705556
0.00222199
0.00688247
0.00127577
0.00673726
0.0168136
0.0168864
0.00677243
0.00718828
0.0016568
0.00138836
0.0107224
0.0249988
0.00684371
0.0140677
0.00692767
0.0409387
0.00670953
0.0056514
0.00686997
0.0114725
0.0051457
0.0165818
0.0184367
0.0313122
0.00131654
0.00492485
0.00720487
0.00712615
0.0203358
0.0142033
0.00129587
0.00126151
0.0321496
0.0073663
0.0151699
0.000821208
0.0175033
0.00512512
0.00101963
0.00924842
0.00701467
0.00583744
0.00708301
0.00673517
0.00671909
0.00673583
0.00683815
0.00239505
0.00380815
0.0138546
0.00128
0.00153825
0.0151062
0.016584
0.00680519
0.00552223
0.00745856
0.011188
0.00229731
0.0156971
0.0354772
0.0170083
0.00672593
0.00105094
0.00258945
0.00123236
0.000311799
0.0134622
0.0170198
0.000792171
0.0068036
0.00684301
0.00258741
0.00958719
0.000775584
0.00791988
0.00671061
0.00576902
0.00241566
0.0193092
0.00230973
0.00671203
0.00671303
0.00267296
0.0252449
0.0192734
0.00587052
0.00111988
0.018639
0.00702477
0.0147459
0.00618128
0.00122919
0.00694299
0.00121894
0.00197708
0.00671066
0.00680446
0.00701358
0.0020517
0.00118888
0.00107808
0.00379408
0.00299744
0.00680502
0.0235357
0.00122609
0.00229839
0.00679929
0.0124239
0.00692891
0.0226512
0.00354106
0.00124469
0.00674547
0.00179751
0.00789765
0.000750848
0.00489774
0.00694354
0.00691038
0.0174539
0.00697955
0.0145893
0.00187873
0.00679172
0.00252536
0.00192483
0.00672576
0.0255752
0.0067961
0.0134268
0.0177621
0.0079039
0.00284173
0.00671763
0.00671222
0.00674216
0.00202014
0.00668728
0.00680215
0.00671015
0.00672295
0.00242466
0.00686612
0.00701177
0.00683722
0.00183877
0.00676102
0.0077803
0.00416728
0.00675586
0.00200466
0.00671063
0.0181669
0.0105672
0.00680229
0.00512312
0.000832528
0.0130577
0.00709131
0.00322533
0.00129734
0.0070278
0.025006
0.00676549
0.0384498
0.00678384
0.0120462
0.00675396
0.0379818
0.0369169
0.0112506
0.00529116
0.00266138
0.00670857
0.00221899
0.00347775
0.0067677
0.00672731
0.000794854
0.00693313
0.023772
0.00928993
0.00404792
0.0012272
0.00673904
0.00133401
0.00328972
0.00672344
0.00421406
0.00230371
0.0364308
0.00299023
0.00273183
0.00464357
0.00291128
0.00127528
0.02818
0.00133774
0.0140652
0.0142804
0.00261566
0.00219579
0.00110119
0.00671978
0.00242277
0.00737982
0.00286996
0.01503
0.00255616
0.0166684
0.00702032
0.00604817
0.00110326
0.00244529
0.00199201
0.00688093
0.00177544
0.0104015
0.00705525
0.0070468
0.00680071
0.0407071
0.0141538
0.00208613
0.00679679
0.00670326
0.00699693
0.00687431
0.00622263
0.00671585
0.00705868
0.00676571
0.00726322
0.00100244
0.00680676
0.00555002
0.00438424
0.00490642
0.00063387
0.00262885
0.00211171
0.0109487
0.00682763
0.0186896
0.0067242
0.00670502
0.00411724
0.00738501
0.00671513
0.0198424
0.00449927
0.00675303
0.0112589
0.0184063
0.0377922
0.0146984
0.0118218
0.00193039
0.00672199
0.00304362
0.0152733
0.00131953
0.00709611
0.00430975
0.000931928
0.00786579
0.00879412
0.0067019
0.0299157
0.0123708
0.00671462
0.0019351
0.00682055
0.00323963
0.0214257
0.00230883
0.00677163
0.00672247
0.00669212
0.0180631
0.00674832
0.0159439
0.000889264
0.00679896
0.00670933
0.00675757
0.00791866
0.00820313
0.00671021
0.00208539
0.0082519
0.0057281
0.0226907
0.00679211
0.00672748
0.0067021
0.00679127
0.0067984
0.00689433
0.00681193
0.00365684
0.00680274
0.000976549
0.00312399
0.0053342
0.00117206
0.00673844
0.00237347
0.00669756
0.00704456
0.00136003
0.00671205
0.0127179
0.00671233
0.00126304
0.0283072
0.0067006
0.00213717
0.0147812
0.00677962
0.00680041
0.00684535
0.00547438
0.00678461
0.0109771
0.0160884
0.00699134
0.00137891
0.00111399
0.00237912
0.00685693
0.00862235
0.00680518
0.00801063
0.00227257
0.00251533
0.0108018
0.00689291
0.00126015
0.0128909
0.00150166
0.00677049
0.000760632
0.00319381
0.000906103
0.00672076
0.00689511
0.01627
0.00143204
0.0109707
0.00780339
0.00706149
0.0135106
0.0067014
0.00692261
0.00677205
0.00145792
0.00160878
0.0189657
0.0282798
0.000884415
0.00151527
0.0263765
0.00701353
0.00671
0.00684977
0.00682789
0.0068755
0.00159999
0.00673552
0.0256104
0.00128018
0.00685854
0.00677923
0.00671656
0.00671357
0.00254238
0.00678934
0.00151238
0.0068435
0.0250188
0.00701934
0.00676772
0.00671964
0.000944861
0.00697664
0.0029102
0.0110495
0.0190539
0.00213916
0.00392269
0.00672129
0.00671023
0.00674974
0.0144641
0.00680098
0.00681732
0.00752502
0.00676718
0.00415813
0.00701903
0.00245357
0.0267737
0.00707777
0.0226707
0.00860868
0.0067178
0.00677768
0.00250259
0.0236748
0.00179818
0.0150106
0.00190264
0.00677587
0.0067141
0.00919404
0.00180646
0.00682275
0.00740321
0.00681341
0.00231866
0.0115196
0.0109406
0.00653263
0.00131566
0.00594013
0.00531352
0.0257041
0.00677715
0.00671047
0.00673873
0.00893888
0.00670973
0.00164826
0.025717
0.0102053
0.00672688
0.00675814
0.00672541
0.00679132
0.00685975
0.00179016
0.00544017
0.00357282
0.00202794
0.008968
0.0187924
0.00695512
0.00679765
0.0067842
0.00671252
0.00672007
0.00675858
0.00679397
0.0168476
0.0229246
0.00692034
0.00670341
0.00679871
0.00680348
0.0167662
0.00181675
0.0272084
0.0125576
0.00783713
0.00113862
0.0067146
0.00681211
0.00671634
0.00679906
0.0106752
0.00676929
0.00170587
0.0025189
0.0184801
0.0234673
0.00270791
0.00191025
0.0160405
0.00672327
0.00193465
0.0245694
0.00558361
0.00677878
0.00701467
0.00705388
0.00678425
0.00678971
0.0154423
0.00677758
0.00680387
0.00645251
0.00175861
0.0287686
0.00672177
0.00670096
0.00196724
0.00252265
0.00518336
0.021433
0.00703331
0.0245145
0.000907633
0.00671534
0.0138218
0.00671625
0.00186433
0.00679939
0.00674733
0.0360098
0.0136272
0.0201461
0.00162688
0.00898491
0.00241729
0.0063986
0.00672853
0.00679785
0.00340363
0.00672369
0.0068105
0.00287399
0.00677331
0.0222469
0.00679033
0.0131683
0.00777255
0.00669446
0.0218122
0.00693089
0.00671234
0.0028753
0.00332134
0.00378312
0.00412626
0.00533282
0.0156751
0.00679769
0.00672085
0.00700073
0.000720989
0.00892514
0.00670938
0.00678782
0.00777893
0.0128651
0.00671855
0.00659995
0.0070437
0.00684264
0.00676177
0.00682308
0.0198068
0.00190893
0.00706227
0.00310827
0.00672003
0.00213236
0.00961691
0.00679866
0.00816587
0.0130345
0.00677744
0.00217875
0.0160373
0.0130371
0.00126391
0.00669358
0.00673983
0.0203438
0.0019727
0.0250868
0.00165205
0.00831352
0.00502294
0.0220318
0.0142893
0.0215188
0.00904549
0.0266376
0.0196736
0.00782862
0.0067983
0.0224159
0.0069779
0.0223487
0.00273642
0.00482058
0.00708994
0.0204449
0.014289
0.00685989
0.00679966
0.00704388
0.0222133
0.0069894
0.00670622
0.00680445
0.00675049
0.00219097
0.0069185
0.000783121
0.0265381
0.0223746
0.00231482
0.00690178
0.00141832
0.00681163
0.00675583
0.0114406
0.00684269
0.00231518
0.00677438
0.0118019
0.00103066
0.0210672
0.00700999
0.00562717
0.00628059
0.000905045
0.00781417
0.033812
0.00612896
0.0245159
0.00671193
0.00678387
0.00113442
0.00676753
0.00681313
0.00680187
0.00679939
0.00240218
0.00703812
0.00671049
0.0131842
0.00731426
0.0125766
0.00677867
0.0183021
0.0231615
0.00646073
0.00221437
0.0228632
0.00502712
0.0107996
0.0343782
0.00682264
0.00679032
0.00574523
0.0024472
0.0191154
0.00671298
0.00696872
0.0192527
0.0067159
0.00671648
0.00679687
0.00687483
0.0118132
0.00679565
0.00110871
0.00680543
0.0256769
0.00671871
0.0361651
0.0175663
0.0155589
0.0292241
0.00670908
0.00708891
0.00679814
0.00676826
0.0093239
0.00484869
0.00678411
0.0179134
0.00674265
0.00624567
0.00263142
0.00677226
0.0154804
0.00673083
0.00122585
0.0197685
0.0186069
0.00501791
0.00672008
0.00679522
0.0258889
0.00736102
0.00786427
0.0084632
0.00760723
0.025281
0.00698456
0.00679507
0.00672819
0.00679813
0.0115072
0.00684404
0.00908521
0.00673639
0.00679745
0.0116533
0.00688112
0.0107668
0.0039269
0.00679711
0.00708687
0.0212431
0.00670317
0.00705825
0.015866
0.00678301
0.00678798
0.000818242
0.0364384
0.00198007
0.00586163
0.00672211
0.0251957
0.0117455
0.00174817
0.00679862
0.0067034
0.00393504
0.00679707
0.0147563
0.015606
0.0150003
0.0234369
0.00674179
0.00646504
0.00673433
0.00239607
0.00677795
0.00756022
0.0145003
0.00677949
0.00634247
0.00672434
0.0190042
0.000855197
0.0067137
0.00670861
0.00673432
0.00671359
0.00675507
0.00668434
0.00636097
0.0304099
0.00680495
0.00669997
0.00117201
0.0066925
0.00679664
0.00370287
0.00671124
0.00676141
0.0128344
0.00360714
0.00671798
0.00272377
0.0036459
0.00676765
0.0197014
0.0209646
0.00677336
0.0067442
0.00697113
0.00801536
0.00678169
0.00679651
0.00406871
0.00146227
0.00673032
0.00458521
0.0144431
0.00681153
0.00832961
0.00671906
0.00675794
0.00671355
0.00671021
0.00672453
0.0067567
0.0266754
0.0202834
0.00670138
0.00705243
0.00704179
0.00574233
0.00420671
0.00131227
0.0067565
0.00498253
0.00626568
0.00675718
0.0245461
0.00525123
0.00671608
0.00686005
0.0196351
0.00426096
0.0211894
0.00240904
0.00671255
0.0113379
0.0303893
0.0154695
0.00663163
0.00724245
0.00428381
0.00671537
0.0156961
0.00679626
0.0063672
0.00292017
0.00676275
0.006726
0.00253694
0.00670492
0.00155494
0.00908546
0.00463207
0.00678082
0.0383801
0.00671375
0.00534076
0.00670537
0.00734634
0.00494058
0.0173759
0.00671563
0.00672825
0.0040656
0.0242957
0.00644876
0.0176484
0.000367617
0.006746
0.00675129
0.00616113
0.00283491
0.00671691
0.00688077
0.00708685
0.00671166
0.0305136
0.00222808
0.00672993
0.0076905
0.00672531
0.00673051
0.00670184
0.00676246
0.00671587
0.00230044
0.00672738
0.0167063
0.00679684
0.00510024
0.00679571
0.00680481
0.00671079
0.00674712
0.00707161
0.00671944
0.00437613
0.0132293
0.00499085
0.00457722
0.00515521
0.00441374
0.00682761
0.00669218
0.00671381
0.00669226
0.0039302
0.0121965
0.00691071
0.00344307
0.0101585
0.00679441
0.0160852
0.00691005
0.0067108
0.00680936
0.00515786
0.00560678
0.0257415
0.0374522
0.00704641
0.00503384
0.00506748
0.00684959
0.00671452
0.0067067
0.0013159
0.00123372
0.00600372
0.0375916
0.00123758
0.00671111
0.00363173
0.00671163
0.0051203
0.00682755
0.0091653
0.00370893
0.00503034
0.000880986
0.00436816
0.00703014
0.00539766
0.00271614
0.0279393
0.00670992
0.00671322
0.00676713
0.0067625
0.007976
0.00674534
0.00679627
0.00270911
0.00672843
0.0197798
0.0166613
0.00358119
0.00684358
0.00680162
0.00358784
0.0112389
0.00671421
0.00671448
0.00635217
0.00671501
0.00675565
0.0113921
0.00696719
0.0109005
0.0149323
0.0138309
0.00124855
0.00676306
0.00683771
0.00137472
0.00671042
0.00674876
0.00594681
0.0202807
0.00710086
0.00679782
0.00670978
0.00384238
0.0279641
0.00678721
0.0034844
0.00679683
0.00670972
0.00672744
0.00549267
0.00713145
0.00673701
0.00684396
0.00451992
0.00670294
0.00285382
0.0153605
0.00559311
0.00678618
0.00681427
0.00682936
0.00677374
0.0137888
0.00672005
0.0178443
0.00315807
0.00670951
0.00671629
0.021627
0.00670248
0.00675017
0.00671697
0.0113784
0.00707722
0.00573569
0.00673538
0.00671155
0.00676719
0.0182965
0.00677245
0.00679917
0.00119346
0.0131851
0.00562302
0.00669286
0.0144096
0.00669058
0.00655555
0.00671211
0.00678187
0.00671839
0.00677499
0.0068134
0.0168526
0.00120149
0.0220185
0.000797553
0.00569238
0.00816124
0.00675572
0.0121253
0.0125411
0.00698587
0.00514352
0.00311709
0.00600603
0.00671459
0.00549244
0.00677357
0.00673273
0.0071037
0.00145285
0.00367966
0.00153136
0.0151952
0.0336234
0.0056052
0.00671661
0.00248631
0.000899772
0.0102338
0.00564023
0.00702825
0.00678263
0.00086032
0.0159859
0.00673021
0.0204843
0.0046159
0.00596595
0.00671701
0.00672417
0.00160168
0.0016105
0.0148373
0.0299513
0.00596167
0.00671433
0.00682802
0.00565229
0.0127149
0.0189773
0.00670758
0.00704362
0.00670455
0.00670927
0.00670939
0.0108402
0.00568899
0.00577541
0.0058807
0.0154153
0.00868546
0.00672896
0.00678785
0.00704494
0.00676255
0.00273059
0.00672345
0.0068611
0.00677251
0.00670901
0.00223222
0.0158244
0.00669684
0.00673185
0.00672522
0.0208882
0.00573613
0.00222386
0.00583159
0.0196965
0.00484381
0.00678186
0.00172372
0.00524151
0.00672515
0.0134518
0.00681349
0.00678999
0.00676814
0.0114478
0.00670926
0.00670441
0.00706053
0.00679736
0.00676723
0.00674102
0.0221703
0.0264402
0.0144145
0.0067943
0.00675712
0.0128572
0.00672395
0.00675446
0.00670807
0.0125412
0.0067153
0.0216337
0.00669244
0.00672905
0.00215997
0.00505547
0.00672996
0.00499797
0.0242422
0.0159219
0.00672636
0.00668223
0.00670673
0.0159206
0.00706415
0.00495745
0.00639396
0.00678654
0.00670389
0.00679408
0.00683166
0.0251723
0.00674327
0.00675059
0.00673274
0.00308109
0.016017
0.00675691
0.00672171
0.00673915
0.0102975
0.00101182
0.0212442
0.00704996
0.00733054
0.00680369
0.00675647
0.00557627
0.0233899
0.00671416
0.0067998
0.0137729
0.00217359
0.00670925
0.0067484
0.00670603
0.00679038
0.00674691
0.0111146
0.00694059
0.00708807
0.0194752
0.00980843
0.00685174
0.00809789
0.00693436
0.00593409
0.00704727
0.00469689
0.00672396
0.00534478
0.00671414
0.00672681
0.0175969
0.00720219
0.00138875
0.0173437
0.00682004
0.00702948
0.0130745
0.0124395
0.0052968
0.0067202
0.00671518
0.00528319
0.0067334
0.00670463
0.00742143
0.00245631
0.00670905
0.0154966
0.0169009
0.00672262
0.00710049
0.00704058
0.00675924
0.0067831
0.00670881
0.00677171
0.0132207
0.00492577
0.00706572
0.00670349
0.00674346
0.0067254
0.0067425
0.00734643
0.00467467
0.00677958
0.00978016
0.00680868
0.00672657
0.00186901
0.00670646
0.0066972
0.00691886
0.0153743
0.00672353
0.00204474
0.00733967
0.0101574
0.00683027
0.0133403
0.0154486
0.0226002
0.00700944
0.00676631
0.0130531
0.0067948
0.0152401
0.00671255
0.00728573
0.0071498
0.00677726
0.0224557
0.00147706
0.0199119
0.0142459
0.00716891
0.00670476
0.00670737
0.0195716
0.0078037
0.0067124
0.00672944
0.00673643
0.00675685
0.00671297
0.011287
0.0067157
0.00670325
0.00679269
0.00695539
0.0054954
0.0013298
0.0069936
0.00670384
0.0067003
0.0243993
0.00723091
0.00670786
0.00676411
0.00653925
0.00737717
0.00742099
0.00582309
0.00673545
0.00727982
0.012947
0.0130996
0.00596246
0.00673745
0.00672447
0.0048651
0.0153846
0.00725604
0.00682744
0.00731331
0.00677438
0.00471625
0.00728416
0.00735423