/*--------------------------------*- C++ -*----------------------------------*\
| =========                 |                                                 |
| \\      /  F ield         | OpenFOAM: The Open Source CFD Toolbox           |
|  \\    /   O peration     | Version:  v2012                                 |
|   \\  /    A nd           | Website:  www.openfoam.com                      |
|    \\/     M anipulation  |                                                 |
\*---------------------------------------------------------------------------*/
FoamFile
{
    version     2.0;
    format      ascii;
    class       surfaceVectorField;
    location    "550";
    object      Uf_0;
}
// * * * * * * * * * * * * * * * * * * * * * * * * * * * * * * * * * * * * * //

dimensions      [0 1 -1 0 0 0 0];


internalField   nonuniform List<vector> 
27284
(
(0.967649 0.202473 -4.82273e-22)
(0.96675 0.191718 1.07147e-22)
(0.958417 0.197253 0)
(1.00876 -0.000197662 6.27561e-22)
(1.00887 -0.000218043 -6.05424e-23)
(1.00886 -0.000211415 1.29743e-22)
(1.14356 0.0220515 3.47109e-22)
(1.14769 0.0280392 -3.55118e-21)
(1.14017 0.0293747 -3.3208e-21)
(1.01109 0.00102512 3.65494e-23)
(1.01115 0.00111049 5.11405e-22)
(1.01119 0.00101394 4.33464e-22)
(0.995322 0.0163124 1.81283e-21)
(0.992299 0.0143986 5.49957e-22)
(0.995879 0.0121704 -3.30692e-21)
(0.958539 -0.0934246 2.12393e-22)
(0.948553 -0.0873956 0)
(0.950189 -0.103026 0)
(1.0131 -0.000231321 -1.68708e-22)
(1.01296 -2.42455e-05 3.00972e-22)
(1.01333 -8.10753e-05 3.16996e-22)
(0.995935 0.0204079 -3.5276e-22)
(0.998913 0.0173477 7.53813e-22)
(1.00467 2.51766e-05 2.34074e-22)
(1.00582 0.00015028 -1.28566e-22)
(1.00506 9.85799e-05 -2.44771e-22)
(1.09363 0.00765993 -9.77604e-22)
(1.0868 0.00805046 4.39102e-22)
(1.08857 0.0263905 2.87501e-21)
(1.01081 0.00298146 0)
(1.01074 0.00426176 -3.36496e-22)
(1.01192 0.00339098 0)
(1.07747 0.0333731 -2.19743e-21)
(1.07766 0.0343024 5.59945e-22)
(1.07848 0.0336116 -4.4195e-21)
(1.07737 0.0321977 -4.03843e-22)
(1.07636 0.0329928 1.91926e-21)
(0.93182 0.13691 0)
(0.941283 0.146856 -8.19759e-23)
(0.944169 0.131184 -5.41106e-22)
(1.00704 0.000197053 -2.35671e-22)
(1.00753 0.000220373 -3.93981e-22)
(1.0073 0.000196138 -4.76915e-22)
(1.00981 -0.000344573 -2.67276e-22)
(1.00966 -0.000336001 1.69902e-22)
(1.0098 -0.000320946 -6.1518e-22)
(1.01106 0.00093062 -8.74929e-22)
(1.011 0.00101685 -4.48883e-22)
(1.01908 0.00378375 0)
(1.01978 0.00350798 0)
(1.01954 0.00421864 6.4773e-22)
(1.12445 0.113232 5.93489e-23)
(1.12092 0.120392 3.63318e-21)
(1.11714 0.11366 3.37851e-21)
(1.0112 0.00547095 -1.91747e-22)
(1.01161 0.00565057 8.68457e-22)
(1.01149 0.00502815 1.01983e-21)
(0.814898 0.0721852 0)
(0.827906 0.0729911 0)
(0.821243 0.0848361 2.32449e-21)
(1.02269 0.0115104 -4.93958e-22)
(1.02228 0.0112586 0)
(1.02227 0.0118031 -1.07313e-22)
(1.00789 5.68525e-06 1.49379e-23)
(1.00796 -1.42445e-05 1.21129e-22)
(1.00789 -1.06504e-05 -2.7367e-22)
(0.966934 -0.0958917 4.34479e-22)
(0.96867 -0.0839485 2.83555e-21)
(1.00789 2.3441e-05 -3.14845e-22)
(1.00783 2.19185e-05 -6.27701e-22)
(1.01299 0.00223929 -4.07624e-22)
(1.01303 0.00250525 8.35228e-23)
(1.01326 0.00221214 -4.68593e-22)
(1.01288 -0.000328753 -4.75363e-22)
(1.01265 -0.00046162 0)
(1.01246 -0.000161864 0)
(1.0115 0.00187856 -2.65522e-22)
(1.01163 0.00193587 -1.99772e-22)
(1.01157 0.00199012 1.6872e-22)
(1.00304 -4.54385e-06 9.01586e-22)
(1.0044 4.64248e-06 8.54106e-22)
(1.01157 0.000456319 0)
(1.01112 0.00165612 0)
(1.01258 0.00112057 0)
(0.932171 -0.255749 0)
(0.919831 -0.25108 3.7481e-21)
(0.931133 -0.238971 0)
(0.96753 0.0143602 -1.43093e-21)
(0.970763 0.0168544 -4.28137e-21)
(0.966822 0.0188927 4.6459e-22)
(1.01149 -0.000248701 -2.38492e-22)
(1.01156 -0.000255284 0)
(1.01164 -0.000225709 4.38154e-22)
(1.00929 -0.000111285 2.50417e-22)
(1.00925 -0.000114909 -1.0639e-21)
(1.00916 -0.000110203 -7.57515e-22)
(1.00653 -7.98459e-05 -7.01471e-24)
(1.00648 -9.48883e-05 0)
(1.00498 -7.93875e-05 0)
(1.01175 0.00608948 -2.92121e-23)
(1.012 0.00602095 3.80469e-22)
(1.0119 0.00634364 -1.07329e-22)
(1.04609 0.0313669 -7.88782e-22)
(1.04706 0.0309616 -3.13545e-21)
(1.04599 0.0304104 -5.32271e-23)
(1.0116 0.0058379 -4.28379e-22)
(1.01144 0.00619198 6.80613e-22)
(1.01211 -0.000844708 0)
(1.01045 -0.000285492 -9.39282e-22)
(1.01691 0.00777984 1.6587e-22)
(1.01687 0.00782956 -5.2265e-23)
(1.01686 0.00764495 2.8193e-22)
(1.01382 0.000171772 1.81771e-22)
(1.01372 0.000190429 3.62464e-23)
(1.01211 0.000122599 -2.88277e-22)
(1.00963 0.00247188 0)
(1.00932 -0.000112741 7.02675e-22)
(1.00935 -0.000116378 -1.8141e-22)
(1.00923 -0.000112197 -1.84021e-22)
(1.00867 -0.000178439 4.15647e-22)
(1.00858 -0.000160867 6.49426e-22)
(1.00866 -0.000172326 4.09984e-22)
(1.00868 -0.000182762 2.36517e-22)
(1.05411 0.0245326 0)
(1.05609 0.0258053 0)
(1.05347 0.0272898 0)
(1.01125 0.00266793 4.57487e-22)
(1.01137 0.00273656 -8.89068e-22)
(1.01134 0.00276544 -3.49739e-22)
(1.01114 0.00259676 9.12563e-22)
(1.01117 0.00257103 3.9447e-22)
(0.946627 -0.260621 0)
(1.01096 0.00217873 -5.90247e-22)
(1.01089 0.00200667 1.0029e-21)
(1.01097 0.0021386 4.52998e-22)
(1.00669 -6.10257e-05 -3.45084e-22)
(1.00602 -2.98691e-05 4.9946e-22)
(1.00605 -1.72461e-05 -6.4731e-22)
(0.740164 0.223404 2.3732e-21)
(0.756678 0.204888 6.65551e-22)
(0.757802 0.220577 3.95256e-21)
(1.0109 0.00224055 -3.90003e-22)
(1.01104 0.00236184 5.9857e-22)
(1.0458 0.142925 0)
(1.05001 0.146661 0)
(1.05134 0.139071 3.027e-22)
(1.01635 0.00307324 -1.1633e-22)
(1.01635 0.00291568 -1.71238e-23)
(1.01614 0.00295298 -4.43746e-22)
(1.01067 0.00524638 -7.48036e-22)
(1.01073 0.00597861 4.43245e-22)
(1.00604 -0.000109366 5.71386e-22)
(1.00506 -4.98038e-05 -8.04091e-23)
(1.00511 -5.23862e-05 5.74373e-22)
(0.88108 -0.283981 -4.65203e-21)
(1.01291 0.00203343 -8.35522e-22)
(1.01269 0.00238877 -2.97056e-22)
(0.894482 0.0314681 -6.9966e-22)
(0.849869 0.0326842 3.16722e-22)
(0.841656 0.0398281 3.17043e-22)
(1.00941 -0.000113272 8.74271e-22)
(1.08479 0.0389406 6.11663e-22)
(1.08428 0.0382857 -1.21449e-21)
(1.08381 0.0392369 5.82236e-21)
(1.041 0.137726 0)
(1.03905 0.14566 0)
(1.01811 0.000368178 5.09915e-22)
(1.01772 -4.65754e-05 5.06226e-22)
(1.01728 0.000336249 7.22539e-22)
(0.955418 0.0373354 1.81148e-21)
(0.95411 0.04266 3.1205e-22)
(0.959514 0.0399257 -2.18633e-22)
(1.00652 -7.22702e-05 2.98014e-24)
(1.00721 -9.23099e-05 3.80145e-22)
(1.00701 -0.000103821 -2.21333e-24)
(1.02232 0.0218218 5.82862e-22)
(1.02307 0.021709 9.18324e-22)
(1.02277 0.0227374 2.20287e-22)
(1.04522 0.0318242 0)
(1.04624 0.0324684 0)
(1.00945 -0.000224168 0)
(1.00942 -0.000249799 0)
(1.00933 -0.000223701 0)
(1.09749 0.0191213 0)
(1.09661 0.00723205 0)
(1.10037 0.0330897 -1.90959e-22)
(1.01067 0.00124954 0)
(1.01075 0.00125514 1.16144e-21)
(1.01068 0.00132381 3.27539e-22)
(1.01636 0.00317091 -5.8037e-23)
(1.01654 0.00314889 -1.30868e-22)
(0.981272 0.0174811 -1.24507e-21)
(0.978983 0.0150335 1.85867e-21)
(0.982688 0.0142371 -1.20443e-21)
(1.02333 0.00327907 2.0476e-21)
(1.02231 0.00320913 1.95098e-21)
(1.02255 0.00404484 1.99758e-21)
(0.962162 -0.0252417 1.97718e-21)
(0.953479 -0.0220797 1.28239e-21)
(0.965543 -0.0171918 6.12133e-21)
(1.00951 -0.000177932 1.75083e-22)
(1.00949 -0.000200964 1.66608e-22)
(1.00939 -0.000177336 -3.27155e-23)
(0.88153 -0.278678 3.3538e-21)
(0.876591 -0.28165 -4.55372e-21)
(1.00955 -0.000161748 0)
(1.00965 -0.000180826 2.07842e-22)
(1.01059 0.00124955 0)
(1.01066 0.00118138 0)
(0.960579 -0.0339639 -1.09386e-21)
(0.970958 -0.0285766 -4.93132e-22)
(1.02147 0.0221238 1.85737e-22)
(1.02179 0.0211042 -3.99011e-23)
(0.984031 -0.053499 3.36787e-21)
(0.974631 -0.0594379 -1.65704e-21)
(0.977013 -0.0486909 3.48701e-22)
(1.00958 -0.000227976 9.28955e-22)
(1.01781 0.0235526 8.75695e-24)
(1.01834 0.0244096 -2.84028e-22)
(1.01734 0.0245027 -2.06402e-22)
(1.00518 0.068426 0)
(1.00628 0.071411 -6.99953e-24)
(1.00276 0.0700304 0)
(1.00414 5.52351e-05 0)
(1.00403 -6.7712e-06 0)
(1.00281 1.01813e-05 4.67612e-22)
(1.008 0.000317337 -8.41791e-22)
(1.00692 0.000254856 1.40547e-25)
(1.00669 0.000239822 -8.55681e-22)
(1.02174 0.059698 -3.33005e-22)
(1.0234 0.0580566 -5.03877e-22)
(1.02397 0.0605713 0)
(1.01034 0.00191943 1.73841e-22)
(1.01026 0.00183983 -3.45549e-22)
(1.01024 0.00185386 -1.37721e-22)
(1.01944 0.0586181 4.72345e-22)
(1.0197 0.0611861 -1.47073e-21)
(0.852186 0.272852 -8.13278e-21)
(0.860388 0.264688 -4.71168e-21)
(0.842947 0.0481765 -2.25426e-21)
(0.853185 0.0392308 -3.53623e-21)
(0.856365 0.0536661 -2.60488e-22)
(0.992125 -0.0563142 1.1699e-21)
(0.994303 -0.0469969 7.7491e-22)
(1.01086 0.00185729 -2.99757e-23)
(1.01081 0.00187365 1.44095e-21)
(1.05528 0.173511 8.06732e-22)
(1.07248 0.153141 9.7104e-21)
(1.05238 0.156808 -2.55164e-21)
(1.01584 0.00233542 4.3115e-22)
(1.01573 0.00282993 -5.2703e-22)
(1.01649 0.00287724 4.61616e-22)
(1.00997 0.00176118 0)
(1.00997 0.00175616 0)
(1.00988 0.00167522 -4.64001e-22)
(1.01592 0.00187297 4.28717e-22)
(1.01529 0.00190069 3.76253e-22)
(1.07581 0.078594 2.38348e-21)
(1.07681 0.0821496 3.53264e-22)
(1.07298 0.0802354 3.25617e-21)
(1.0209 0.0105531 1.75607e-22)
(1.02122 0.0107547 -5.25947e-22)
(1.02092 0.0109324 -1.05987e-21)
(1.00475 0.0656468 -1.34813e-22)
(1.00826 0.0670125 0)
(1.0105 0.00124436 2.64114e-22)
(1.01052 0.00131036 0)
(1.01084 0.00172405 -1.30892e-21)
(1.01087 0.00186228 -6.98855e-22)
(1.01102 -0.000638627 6.36697e-24)
(1.01107 -0.000694916 4.50399e-23)
(1.01097 -0.000652194 0)
(1.02081 0.022279 0)
(1.01997 0.0224205 0)
(1.02033 0.0215338 -4.31241e-22)
(1.00997 -0.000361319 6.09979e-22)
(1.00983 -0.000372356 1.25087e-22)
(0.950583 0.0347887 -5.50507e-22)
(0.956536 0.0320938 2.87899e-21)
(1.03744 0.191922 -5.99409e-23)
(1.05398 0.187923 1.92434e-21)
(1.03509 0.0461185 9.14184e-22)
(1.03442 0.0474198 -2.48829e-21)
(1.03631 0.0472392 1.81133e-21)
(1.00962 -0.000232221 4.58297e-22)
(1.00973 -0.000213774 -5.01557e-22)
(1.00956 -0.000206042 0)
(1.00682 -0.000120084 -3.6207e-22)
(1.00681 -0.000132941 6.14657e-22)
(1.00453 -4.0212e-05 6.21343e-22)
(1.00323 -2.76384e-05 3.05771e-22)
(1.0045 -4.74989e-05 -4.20978e-23)
(0.99608 0.00398007 0)
(0.994023 0.00483085 -3.4639e-22)
(0.996615 0.00626461 0)
(1.01732 0.0226571 4.5446e-22)
(1.01823 0.0226306 2.79001e-22)
(1.05985 -0.00903369 -1.7825e-22)
(1.06903 -0.00674968 -1.29535e-21)
(1.06044 -0.00514169 -1.14739e-21)
(1.00331 0.0169616 -8.05068e-22)
(1.00447 0.0178157 5.7119e-22)
(1.00464 0.0163171 0)
(1.01041 0.00123232 2.55592e-22)
(1.01048 0.00117542 -3.68925e-22)
(0.958123 -0.0437954 8.4687e-23)
(0.946007 -0.0414017 -7.31598e-21)
(1.01982 0.0166711 -1.15406e-22)
(1.01923 0.0167433 2.2176e-23)
(1.01945 0.0160935 2.13649e-22)
(1.02375 0.0212679 1.34419e-23)
(1.02409 0.0220637 -7.19036e-22)
(1.09381 0.029715 0)
(1.09329 0.0119011 0)
(1.13818 0.0186235 2.72438e-21)
(1.14738 0.0160797 2.73284e-21)
(0.83645 0.263872 -3.10856e-21)
(1.02119 0.0667369 1.01036e-21)
(1.01928 0.0689013 9.738e-23)
(1.02256 0.0697766 2.81359e-22)
(0.958496 -0.0543984 2.23971e-21)
(0.966987 -0.0452771 3.5892e-21)
(1.05509 0.0184611 -3.33127e-21)
(1.05346 0.0174988 1.412e-21)
(1.0555 0.0155843 -2.36722e-21)
(1.01337 -0.000530043 -3.93342e-22)
(1.01102 0.000836013 8.10983e-23)
(1.01111 0.00084523 -6.35697e-22)
(0.968713 0.212991 -1.64205e-21)
(0.977875 0.206972 -5.05245e-22)
(1.02163 0.0088021 8.98312e-23)
(1.02175 0.00909325 6.15662e-23)
(1.02138 0.00896989 -6.21232e-22)
(1.00997 0.00175905 0)
(1.01007 0.00184365 0)
(0.720949 0.240128 -1.41645e-21)
(0.719043 0.222172 -1.29377e-21)
(1.01563 0.004765 3.90032e-23)
(1.01549 0.00460701 4.95347e-24)
(1.01568 0.0047023 -1.10969e-23)
(1.08597 0.0582121 -2.96476e-21)
(1.08769 0.0568517 -3.44956e-21)
(1.08774 0.059455 4.37981e-22)
(0.972006 0.105426 1.23223e-21)
(0.975896 0.103501 6.4393e-22)
(0.975142 0.109384 -5.59162e-22)
(1.01023 0.00174651 -1.37391e-22)
(1.01031 0.00181563 5.47706e-22)
(1.01035 0.00180515 4.04598e-22)
(1.13064 0.112312 1.30728e-21)
(1.12582 0.106349 -1.34657e-21)
(1.08496 0.0839072 -3.93108e-22)
(1.09389 0.0714986 -2.85175e-22)
(1.0923 0.0890542 1.22381e-21)
(1.01274 0.000799204 -1.33336e-22)
(1.01287 0.00085125 3.79224e-23)
(1.0128 0.000938862 3.69811e-23)
(0.834609 0.0617133 0)
(0.830172 0.0456073 1.59471e-21)
(1.03661 0.027797 -3.09932e-21)
(1.03701 0.0270943 -4.1168e-21)
(1.03745 0.0281031 -2.15632e-21)
(0.999849 -0.0189555 -3.51626e-22)
(1.00398 -0.0198884 1.76257e-21)
(1.00084 -0.0235905 -4.49167e-23)
(1.01095 0.00261721 -4.5622e-23)
(1.01087 0.00252557 -8.90122e-24)
(1.01086 0.00254246 4.32846e-23)
(0.795556 0.246349 0)
(0.784569 0.240141 8.41889e-22)
(0.968006 0.100939 3.12424e-23)
(0.966727 0.107411 -6.9254e-22)
(1.01402 0.000277987 3.00399e-22)
(1.0145 0.000301979 -8.11891e-24)
(1.01439 0.000329185 1.60086e-22)
(0.793556 0.0255103 0)
(0.776526 0.0220538 -1.65172e-22)
(0.835262 0.0204839 0)
(1.01343 -0.0021687 0)
(1.0132 -0.0021156 -5.27228e-23)
(1.01328 -0.00204633 -2.86428e-23)
(0.995598 0.00151582 0)
(0.997974 0.00297512 -2.82843e-22)
(1.01193 -0.121762 -1.16157e-22)
(0.999483 -0.133031 5.86679e-23)
(1.00156 -0.133415 0)
(1.01144 0.00178145 0)
(1.01138 0.0018314 -3.18888e-22)
(1.0244 0.0208899 2.24689e-22)
(1.02347 0.02062 -7.97212e-23)
(1.01608 -0.00397294 0)
(1.01536 -0.00381225 5.18778e-22)
(1.01567 -0.00340449 7.57182e-22)
(1.01556 -0.00879284 1.00189e-21)
(1.014 -0.00960876 3.20636e-22)
(1.01417 -0.00766032 2.15469e-22)
(1.00947 -0.000118081 0)
(1.00938 -0.000122915 3.99035e-22)
(1.00737 3.11444e-05 -5.0868e-22)
(1.0075 2.72492e-05 -1.23735e-22)
(1.0075 3.49135e-05 -4.2669e-22)
(1.01091 0.000820893 3.49751e-22)
(1.01092 0.000718098 2.08775e-22)
(1.00424 2.16618e-05 0)
(1.00498 -0.000101268 1.16388e-21)
(1.01102 0.00266069 4.99056e-23)
(1.01104 0.00268311 -3.10229e-22)
(1.00713 2.98248e-05 0)
(1.00711 1.59012e-05 -2.00509e-22)
(1.01738 0.0035166 -1.68995e-21)
(1.01797 0.00303659 -1.12644e-21)
(1.0173 0.00272976 -5.09964e-22)
(1.01558 0.00481654 4.57986e-23)
(1.01577 0.004912 3.1973e-23)
(1.00969 -0.00025674 3.76517e-22)
(1.00954 -0.000247154 -2.72787e-22)
(1.01036 -0.0140619 -3.65484e-22)
(1.00781 -0.0140738 0)
(1.00926 -0.0117015 1.15562e-21)
(1.02037 0.00183081 4.85496e-22)
(1.02135 0.00157588 -1.08356e-21)
(1.02062 0.000733371 -1.0092e-21)
(1.06942 -0.00865572 0)
(1.07623 -0.0138086 0)
(1.06878 -0.0198072 0)
(0.8057 0.031144 -3.51087e-22)
(0.747802 0.032889 2.6792e-22)
(0.939134 0.209576 -3.14935e-22)
(0.92904 0.215272 3.80123e-22)
(0.930378 0.202834 1.15042e-23)
(0.740333 -0.240097 6.37142e-21)
(0.715286 -0.185788 1.29325e-20)
(0.744485 -0.24392 1.76413e-20)
(1.03606 0.02869 -2.18635e-23)
(1.03567 0.027584 8.8613e-22)
(1.00484 -5.84927e-05 -2.44915e-22)
(1.00489 -6.20067e-05 0)
(1.00346 -3.96929e-05 0)
(1.08405 0.0565711 -2.49387e-21)
(1.08369 0.0590719 1.07206e-21)
(1.00434 -2.28711e-05 2.14311e-23)
(1.00437 -3.83199e-05 1.89168e-23)
(1.00293 -2.53128e-05 -4.60727e-22)
(0.962914 -0.263077 0)
(0.961865 -0.245544 2.43506e-21)
(1.00565 -0.000100128 -2.29071e-22)
(1.0057 -9.90823e-05 -1.77747e-22)
(1.00427 -5.05075e-05 -1.78542e-22)
(1.01338 0.000212399 0)
(1.01322 0.000215443 0)
(1.00446 -2.95171e-05 6.42983e-22)
(1.00546 -9.26219e-05 9.86261e-22)
(1.0117 -0.0011345 -1.33545e-23)
(1.01181 -0.00114238 9.77055e-24)
(1.01182 -0.00120607 -3.58204e-23)
(1.03815 0.0120389 1.96936e-21)
(1.03895 0.0122496 4.1033e-22)
(1.03835 0.0126386 -2.03659e-21)
(1.00886 0.0314445 -3.14979e-22)
(1.01033 0.0318118 3.83563e-22)
(1.00901 0.033141 8.99087e-23)
(1.00407 -1.16584e-05 0)
(1.0041 -8.98418e-07 4.07583e-22)
(1.00276 -1.95107e-05 0)
(1.06343 -0.00512686 0)
(1.06825 0.00242469 0)
(1.02219 0.0105216 1.17377e-22)
(1.0218 0.0103442 -6.3786e-22)
(1.02208 0.0100964 -6.15577e-22)
(1.01187 0.00233696 6.78068e-24)
(1.01199 0.00240223 9.46294e-24)
(1.01192 0.0022859 5.63688e-22)
(1.05289 -0.0154835 0)
(1.04905 -0.01196 0)
(1.04786 -0.0183925 0)
(1.01083 0.00159419 3.17122e-22)
(1.01082 0.00157706 -4.73417e-22)
(1.00476 2.18429e-05 -7.60304e-22)
(1.00432 -3.14452e-05 2.07268e-22)
(1.00548 4.46372e-05 -1.03875e-21)
(1.0173 0.0572461 6.69572e-22)
(1.01509 0.0585355 -5.25743e-22)
(1.01512 0.0558541 2.25633e-22)
(1.0161 0.000827168 0)
(1.01606 0.000730293 0)
(1.01594 0.000790144 3.17558e-22)
(1.01287 -0.000810306 6.56904e-22)
(1.01243 -0.00054162 -1.11112e-21)
(1.05437 0.0217083 -1.6178e-21)
(1.05672 0.0201427 -5.06765e-21)
(1.07571 0.0753603 2.22629e-21)
(1.07882 0.0774427 -1.47368e-21)
(1.00899 -0.000241633 -2.01278e-22)
(1.00888 -0.000224903 -2.06384e-22)
(1.00889 -0.000220386 -4.56624e-22)
(1.0106 -0.000559241 1.43968e-22)
(1.01065 -0.000519776 6.88671e-22)
(1.01075 -0.000559371 6.99234e-22)
(1.01531 0.000157767 -2.63654e-22)
(1.0152 0.000141657 5.54891e-22)
(1.01531 0.000113784 6.5844e-22)
(1.05214 -0.0135304 2.91859e-21)
(1.07231 -0.0110127 1.10087e-21)
(1.05736 -0.0172023 3.59794e-22)
(1.0072 -4.19467e-05 3.45935e-22)
(1.00718 -7.09472e-05 -8.59661e-22)
(0.949027 0.239215 3.44075e-22)
(0.948559 0.227328 3.73752e-22)
(0.93802 0.234122 2.7197e-22)
(1.00887 -0.000223104 -6.63303e-22)
(1.00898 -0.000239953 2.51246e-22)
(0.914588 0.140446 0)
(0.921593 0.125022 0)
(1.01084 0.00148204 0)
(1.01083 0.00161626 -7.21453e-22)
(1.01998 0.00703132 -7.58088e-22)
(1.02005 0.00664826 5.63949e-22)
(1.01956 0.00678284 -1.8093e-22)
(1.01289 -0.00218618 0)
(1.01376 -0.00125073 0)
(1.00417 -3.84629e-05 4.51963e-22)
(1.00453 -1.56146e-05 -5.56896e-22)
(1.0053 1.63805e-05 -9.22811e-22)
(0.948955 0.203098 -1.05392e-23)
(0.948663 0.215766 -2.19182e-23)
(1.02184 0.00763757 -1.28765e-21)
(1.02197 0.0074277 -7.49198e-22)
(1.0222 0.00768545 5.00317e-22)
(0.75996 -0.275051 -6.93603e-21)
(0.735542 -0.226638 -3.51591e-21)
(1.01182 0.00236266 0)
(1.01177 0.00224907 0)
(1.01137 -0.000226931 -1.05471e-22)
(1.01122 -0.00023383 -1.00264e-21)
(1.01132 -0.00021231 -2.7333e-22)
(1.01393 -0.00423595 0)
(1.01338 -0.00388818 2.80456e-22)
(1.01383 -0.0037183 2.46543e-22)
(1.01836 0.00805111 -3.71706e-24)
(1.01832 0.00784168 1.43526e-22)
(1.01818 0.00789343 1.30896e-22)
(1.01776 -0.0559418 3.12508e-21)
(1.00899 -0.0635766 -4.14085e-22)
(1.0103 -0.0561725 6.18099e-22)
(1.01961 -0.00379314 0)
(1.02067 -0.00337483 0)
(1.02048 -0.00454986 2.40573e-22)
(1.01859 -0.00396109 -9.90349e-22)
(1.01873 -0.00312589 -2.29815e-22)
(1.01358 -0.00232765 0)
(1.01368 -0.00223623 1.63967e-23)
(0.982016 -0.261897 -1.9652e-21)
(0.962255 -0.278074 7.38671e-21)
(1.00741 0.030612 -5.0412e-24)
(1.00881 0.0296052 -4.7589e-22)
(1.04621 0.0240376 2.07226e-21)
(1.04555 0.0234047 3.60292e-22)
(1.04537 0.0242734 2.20236e-21)
(1.02167 0.00787017 -1.20804e-21)
(1.02149 0.00805914 -6.13598e-22)
(1.02189 0.00814428 -5.89252e-22)
(1.0113 0.00282957 -8.85649e-23)
(1.01129 0.00285868 0)
(1.01141 0.00292638 2.77637e-22)
(1.03591 0.044592 6.76703e-22)
(1.03397 0.0448449 -3.7759e-22)
(1.01043 -0.000746633 1.88565e-22)
(1.0104 -0.000760931 -3.53007e-22)
(1.01029 -0.000728576 -1.71729e-22)
(1.0272 0.0567858 1.25148e-22)
(1.02513 0.0562969 -9.57409e-22)
(1.02658 0.0545067 -1.9092e-21)
(1.00792 -0.0036164 -2.43981e-22)
(1.00799 -0.00511156 1.17767e-21)
(1.00933 -0.00425421 1.55898e-22)
(1.03918 0.0143384 -1.76944e-22)
(1.04448 0.0160523 -1.38783e-22)
(1.03864 0.0186365 0)
(1.01744 0.0033538 3.90593e-22)
(1.01703 0.00252216 -5.39762e-22)
(1.01835 0.00291464 1.05882e-21)
(1.01045 -0.000727357 3.64728e-22)
(1.01047 -0.000701702 -1.74257e-22)
(1.01034 -0.00068909 0)
(1.07541 0.0918678 -1.94782e-21)
(1.07797 0.0763634 -1.58105e-22)
(0.973395 0.165863 2.72701e-21)
(0.965335 0.171005 1.18331e-22)
(0.964396 0.161856 2.81079e-23)
(0.99005 0.0249612 -2.93856e-21)
(0.987871 0.0233555 -1.20954e-21)
(0.990621 0.0222466 9.71565e-22)
(1.01323 0.000894287 -1.08965e-21)
(1.01287 0.00079092 4.94377e-22)
(1.01299 0.00095288 -4.36463e-23)
(1.02126 0.0230071 -1.66523e-22)
(1.05806 -0.0185965 -7.541e-23)
(1.05859 -0.00732014 0)
(1.06385 -0.0117554 0)
(1.01056 -0.000765018 9.08689e-22)
(1.01302 -0.0139454 1.43704e-23)
(1.01241 -0.0167421 6.09919e-22)
(1.03531 0.0134683 6.26598e-23)
(1.03908 0.0102939 -3.16311e-22)
(1.03255 0.00854533 3.60253e-21)
(1.03253 0.00799464 8.17931e-22)
(1.03196 0.00823975 1.20673e-22)
(1.05234 0.0235475 -1.35848e-21)
(1.05118 0.017385 2.57286e-21)
(1.05205 0.0174743 -3.22294e-21)
(1.05145 0.016636 0)
(1.0177 -0.00405531 -5.1101e-22)
(1.01828 -0.00484994 -2.71325e-22)
(1.00918 -0.000281848 -1.19208e-21)
(1.00908 -0.00026144 -1.11528e-21)
(1.00908 -0.000264818 -1.56836e-22)
(1.0374 0.0119281 2.72568e-22)
(1.03795 0.0114769 2.45635e-22)
(1.01681 -0.00402558 4.57075e-22)
(1.01707 -0.00341717 4.6448e-22)
(0.991939 0.0263538 -1.18774e-21)
(0.994133 0.027549 7.27594e-22)
(0.994504 0.0249943 7.89972e-22)
(1.02144 0.0076087 -4.79974e-22)
(1.01637 0.0027807 1.02991e-22)
(1.01638 0.00264397 3.25348e-22)
(1.01617 0.00266908 -1.97033e-22)
(1.01126 0.0024607 2.13671e-23)
(1.01123 0.00249965 -7.38131e-22)
(1.01115 0.00239596 9.93602e-24)
(1.02256 -0.0483397 8.74365e-22)
(1.02498 -0.0536441 8.62609e-22)
(0.998744 -0.0718519 -1.76886e-21)
(0.989756 -0.0786504 -9.33696e-22)
(0.991828 -0.0692311 -1.44551e-21)
(1.0109 0.00108669 -5.58334e-22)
(1.01098 0.00105075 -6.27655e-22)
(1.01101 0.000979414 0)
(1.01852 0.000931329 4.36114e-22)
(1.01905 0.000447098 0)
(1.00702 -0.0719793 2.35373e-22)
(1.1062 0.0243712 -1.12456e-21)
(1.10561 0.0210925 -4.07675e-21)
(1.10309 0.0234483 3.03969e-21)
(1.00673 -0.00274124 8.14147e-22)
(1.00824 -0.00217832 7.32163e-23)
(1.01159 -0.00105218 -1.21436e-23)
(1.01159 -0.00111234 -2.99425e-24)
(1.00942 -0.0111587 -4.1988e-22)
(1.01129 -0.0137719 0)
(1.01162 -0.01074 0)
(1.05099 0.0183258 -2.65242e-21)
(1.05036 0.0174711 2.70812e-21)
(1.01385 0.000461526 0)
(1.01317 0.000372548 0)
(1.01352 0.000463563 -2.43679e-22)
(1.0164 0.0037254 -2.26711e-22)
(1.01756 0.00438371 3.66958e-22)
(1.0095 0.00133425 0)
(1.00957 0.0013936 0)
(1.00948 0.00132741 -2.55663e-22)
(1.02184 -0.110075 -7.57214e-23)
(1.02162 -0.104078 -1.46526e-21)
(0.987781 0.0195398 -6.93152e-22)
(0.982491 0.0178313 0)
(0.985048 0.0242201 -3.23336e-22)
(1.07386 0.0733485 1.16395e-22)
(1.07297 0.0707175 -5.21875e-21)
(1.07111 0.0735493 3.43086e-21)
(1.06056 0.0267183 -2.97579e-21)
(1.06099 0.0273127 3.88435e-21)
(1.06153 0.026603 -5.26869e-21)
(1.01185 -0.00320264 9.67953e-22)
(1.01368 -0.00351234 -6.46594e-22)
(1.02578 -0.0162461 -1.09307e-21)
(1.02313 -0.0189644 -8.02217e-22)
(1.02261 -0.0150961 -1.37588e-21)
(0.999279 -0.0114902 2.86493e-22)
(0.999556 -0.0148803 1.20465e-21)
(1.00231 -0.0126023 1.05262e-23)
(1.07773 0.0853681 -1.96451e-21)
(1.07505 0.0878283 -1.91797e-21)
(1.07924 0.0894491 -1.80545e-21)
(1.00943 0.00128036 0)
(1.00952 0.0013425 -5.5375e-22)
(1.01657 0.00289284 5.50128e-22)
(1.01188 -0.000754121 8.29135e-23)
(1.01232 -0.00109867 6.1181e-22)
(1.01217 -0.000658772 -3.66193e-22)
(1.00976 -0.00017701 -1.23909e-22)
(1.00981 -0.000199202 -7.36823e-23)
(1.00991 -0.000182098 9.21476e-22)
(1.0198 0.00737849 1.0044e-21)
(1.02038 0.00731563 2.13321e-22)
(1.04682 0.0246401 0)
(1.04701 0.0237831 1.52023e-21)
(1.01094 0.00165051 -2.10181e-22)
(1.01106 0.00169309 1.09178e-22)
(1.011 0.00159056 -1.28083e-22)
(1.0189 0.00806933 0)
(1.01906 0.00798382 -1.01902e-22)
(1.0191 0.00822633 -2.31308e-24)
(1.03564 0.0134855 1.07422e-21)
(1.03455 0.0114796 -5.12263e-22)
(1.03296 0.0137991 -6.00522e-22)
(1.01015 0.00168131 -5.60231e-22)
(1.01012 0.00168765 -6.84867e-22)
(1.00801 0.102308 2.51947e-22)
(1.00985 0.10639 0)
(1.00505 0.105625 5.29714e-23)
(1.02689 -0.147034 1.86731e-20)
(1.00932 -0.101817 1.13319e-20)
(1.03331 0.00951477 1.06833e-22)
(1.03166 0.00806301 -1.15864e-21)
(1.03089 0.0102252 1.02342e-21)
(1.01856 0.00822114 -1.21935e-22)
(1.01839 0.00827688 -2.40414e-22)
(1.00109 0.0147949 2.37522e-22)
(1.00228 0.0160051 -1.18807e-21)
(1.00253 0.0142249 6.76808e-22)
(1.00963 -0.000173393 -5.41044e-22)
(1.00972 -0.000159261 -4.05162e-22)
(1.02804 0.0587662 1.31054e-21)
(1.02891 0.0612473 -1.06071e-23)
(1.02644 0.0610576 0)
(1.022 0.00665441 1.73604e-22)
(1.02167 0.00663811 5.66306e-22)
(1.02177 0.00639613 -1.63868e-22)
(1.00563 0.0307507 -3.31608e-22)
(1.00359 0.0310491 -2.57965e-22)
(1.00528 0.0326313 4.66799e-23)
(1.01445 0.000237259 0)
(1.01367 0.000163541 0)
(1.00609 0.0293386 8.27449e-23)
(0.909526 -0.151858 -3.23506e-22)
(0.905901 -0.171702 -2.9689e-21)
(1.01142 -0.000241443 5.60742e-22)
(1.01133 -0.000266005 -9.16835e-24)
(1.06686 0.0465467 0)
(1.06685 0.0453425 4.48091e-23)
(1.06803 0.0461269 0)
(1.02157 0.0164827 -3.15272e-22)
(1.02135 0.0171236 3.75867e-22)
(1.02098 0.0164986 -3.32877e-22)
(1.01329 0.00452084 2.41926e-24)
(1.01281 0.0052015 -2.19482e-22)
(1.01394 0.00556478 5.11949e-22)
(0.996181 -0.00995436 6.52661e-22)
(0.999449 -0.00821909 -3.90316e-22)
(1.00667 0.000165776 -3.88031e-23)
(1.00632 0.000137405 -3.53336e-22)
(1.01056 -0.000599094 -7.40557e-22)
(1.01045 -0.000558058 -7.35629e-22)
(1.01092 0.0990104 -6.54943e-23)
(1.00639 0.0984002 2.13628e-23)
(1.01873 0.0081572 0)
(1.0187 0.00791566 0)
(0.995976 -0.0178418 0)
(1.048 0.0305794 -1.32066e-21)
(1.04803 0.0295946 -2.32757e-23)
(1.04904 0.0301782 -1.57147e-21)
(0.932001 0.33114 -1.60466e-21)
(1.03606 0.0614027 -2.45009e-23)
(1.03464 0.0634861 -1.96704e-21)
(1.03369 0.0609544 0)
(1.07685 0.0724326 -1.98261e-21)
(1.02001 0.00540754 -1.17805e-21)
(1.02063 0.00552497 -2.83847e-22)
(1.02006 0.00585537 -9.82923e-22)
(1.03653 0.0159794 6.44588e-22)
(1.0383 0.0129877 9.68866e-22)
(1.01113 0.00232048 4.88475e-22)
(1.01108 0.0022069 2.17811e-22)
(1.01102 0.00218793 1.67046e-21)
(1.04865 0.0148014 1.42991e-21)
(1.04799 0.0152649 3.17321e-21)
(1.04793 0.0143603 4.95233e-21)
(1.06019 0.0257246 5.41006e-21)
(1.05949 0.02655 -4.7977e-21)
(1.06718 0.0479163 0)
(1.06578 0.0471358 -2.57604e-21)
(1.0471 0.00512537 4.54674e-22)
(1.0482 -0.00158338 -4.30335e-21)
(1.04359 -4.62212e-05 6.28463e-22)
(1.12683 -0.00584558 1.34852e-21)
(1.14379 0.000926289 4.39231e-21)
(1.10497 -0.0069875 1.14393e-21)
(1.01214 0.0034809 0)
(1.01223 0.00355515 0)
(1.01213 0.00350615 4.229e-22)
(1.00803 0.00597066 -3.85275e-22)
(1.00785 0.00685833 -8.18988e-22)
(1.00712 0.00627152 8.67903e-22)
(1.0373 0.133378 0)
(1.03374 0.128794 0)
(1.03131 0.13459 6.54707e-22)
(0.999905 0.0139484 -9.75111e-22)
(0.999655 0.0157558 2.22425e-21)
(1.01216 0.00342802 -2.4897e-22)
(1.01204 0.00338804 2.4485e-22)
(1.01111 0.00261786 -3.35784e-22)
(1.01103 0.00252232 4.9364e-22)
(1.01139 0.0022954 5.35819e-22)
(1.01134 0.00234022 7.86661e-22)
(1.01127 0.00222635 4.86662e-23)
(1.07499 0.0371288 -2.74363e-21)
(1.07542 0.036587 1.05017e-20)
(1.07572 0.037276 5.67065e-21)
(1.14169 -0.00161221 3.58551e-21)
(1.10985 -0.0125258 8.9889e-22)
(0.877418 -0.0489293 3.95671e-21)
(0.897716 -0.0384468 -4.64699e-21)
(0.94048 -0.0266507 -1.40146e-20)
(1.04392 0.0104483 2.44163e-22)
(1.04953 0.0109321 3.0247e-21)
(1.03556 0.00876369 -8.00781e-22)
(1.03754 0.0261975 -2.31498e-21)
(1.03812 0.025511 2.98683e-22)
(1.03843 0.0267329 -1.5652e-21)
(1.02495 -0.0443191 -5.16963e-22)
(1.03045 -0.0465268 0)
(1.03209 -0.0380982 0)
(1.01299 -0.0020684 -2.51164e-23)
(1.01284 -0.00196186 7.23549e-23)
(1.01278 -0.00202384 -9.02574e-24)
(1.02175 0.00716431 1.3915e-22)
(1.02211 0.00717422 0)
(1.03661 0.0258735 1.30714e-21)
(1.01833 0.00443792 2.46407e-22)
(1.01856 0.00444456 6.46559e-22)
(1.01849 0.00462492 3.42719e-22)
(0.989501 0.0275934 -1.88358e-21)
(1.00632 -5.83857e-05 -9.39732e-24)
(1.00754 -0.000120314 -5.22166e-23)
(1.0697 -0.0857289 3.95898e-22)
(1.05754 -0.103548 3.84354e-21)
(1.06967 -0.102016 1.36071e-21)
(1.01017 -0.00038716 -3.21544e-22)
(1.01012 -0.000365831 -2.22016e-22)
(1.01028 -0.000369147 -1.36202e-22)
(0.950266 -0.0633935 1.21318e-22)
(0.964096 -0.0618032 2.64074e-22)
(1.01483 0.000482001 2.10728e-22)
(1.01493 0.000535981 -3.21685e-23)
(1.0148 0.000525316 -1.04748e-22)
(1.01697 0.00789859 -2.86967e-22)
(1.0169 0.00768256 -2.01645e-22)
(1.02126 0.00571749 -6.06049e-24)
(1.02124 0.00625275 -2.03728e-22)
(1.02199 0.0059479 1.58013e-21)
(1.0801 0.0264364 -4.83812e-21)
(1.07963 0.0280436 -4.13234e-21)
(1.08135 0.0275946 -8.09293e-23)
(0.910039 0.213334 -1.10736e-22)
(0.918954 0.220883 6.29723e-22)
(0.90805 0.22634 2.91271e-22)
(0.996062 0.028426 -1.40903e-21)
(0.993832 0.0298436 1.80459e-22)
(1.04064 0.0145505 -1.08616e-21)
(1.03917 0.00934136 1.1518e-22)
(1.01835 0.0102291 -1.15301e-23)
(1.01839 0.00995171 0)
(1.01857 0.010274 -1.59621e-22)
(1.01045 0.0019782 0)
(1.01042 0.0019974 4.75429e-22)
(1.01809 0.00442412 -5.22906e-22)
(1.01816 0.00424724 -4.14393e-23)
(1.01809 0.00649519 5.27592e-22)
(1.01919 0.00719996 -1.04127e-21)
(1.01788 0.0073839 4.74277e-22)
(1.09578 -0.0119399 -1.27532e-21)
(1.09762 0.0101321 -4.02689e-22)
(1.01062 0.00218451 5.37318e-22)
(1.01063 0.00214819 -2.40765e-22)
(1.01052 0.00208729 8.84798e-22)
(1.01172 0.000599065 9.78558e-24)
(1.01103 0.000469498 -1.17909e-25)
(1.01181 0.000575011 -1.67215e-22)
(1.03545 -0.0475993 9.14705e-23)
(1.04123 -0.0494008 5.01528e-22)
(1.03355 -0.0572817 5.0445e-22)
(1.01905 0.010175 4.1434e-22)
(1.01928 0.0104378 4.36231e-25)
(1.0193 0.0101112 -2.08881e-22)
(1.01065 0.00212695 -6.36977e-22)
(1.01056 0.00204187 0)
(1.01068 0.00210734 0)
(1.09433 0.0206424 3.58349e-22)
(1.09326 0.0181789 2.64197e-21)
(1.09154 0.0202393 2.24385e-21)
(1.01735 0.0060207 0)
(1.01838 0.0057661 0)
(1.01132 0.00238216 5.19303e-23)
(1.01129 0.00242099 7.24311e-24)
(1.01121 0.002315 -3.13141e-22)
(1.01256 0.000563388 0)
(1.01274 0.000669903 1.33951e-21)
(1.01294 0.000591314 0)
(1.00194 0.030323 0)
(1.00192 0.0325627 -7.14665e-23)
(1.01271 0.000498474 -1.38325e-22)
(1.0117 0.000452553 6.82066e-23)
(1.01169 0.000456559 3.90045e-24)
(1 0.0298444 6.28634e-22)
(1.00194 0.0283643 -1.41989e-22)
(1.01151 -0.00108706 3.9079e-22)
(1.01151 -0.00107708 3.79479e-22)
(1.01163 -0.00112693 -3.78225e-22)
(1.01163 0.000598331 5.89467e-23)
(1.01192 0.000664014 0)
(1.02085 0.0101905 1.1074e-22)
(1.02059 0.0103276 3.11597e-22)
(0.933558 0.0280996 -5.196e-22)
(0.941704 0.0241181 -5.27644e-22)
(1.02396 -0.024725 -2.21912e-23)
(1.02854 -0.0264235 1.23822e-22)
(1.02786 -0.0203611 2.06429e-22)
(1.01149 -0.0010845 0)
(1.01138 -0.00104309 3.70102e-22)
(1.01079 0.00244051 -8.88401e-23)
(1.01069 0.00236658 5.59491e-22)