/*--------------------------------*- C++ -*----------------------------------*\
| =========                 |                                                 |
| \\      /  F ield         | OpenFOAM: The Open Source CFD Toolbox           |
|  \\    /   O peration     | Version:  v2012                                 |
|   \\  /    A nd           | Website:  www.openfoam.com                      |
|    \\/     M anipulation  |                                                 |
\*---------------------------------------------------------------------------*/
FoamFile
{
    version     2.0;
    format      ascii;
    class       volScalarField;
    location    "150";
    object      nut;
}
// * * * * * * * * * * * * * * * * * * * * * * * * * * * * * * * * * * * * * //

dimensions      [0 2 -1 0 0 0 0];


internalField   nonuniform List<scalar> 
18355
(
0.000535514
0.0076736
0.00601381
0.00672296
0.00346357
0.000382276
0.00672037
0.000455911
0.000961337
0.00717306
0.00674041
0.00478214
0.000362072
0.00522686
0.00284119
0.000934902
0.00201895
0.00672953
0.00284349
0.00784286
0.000635871
0.00164621
0.0148957
0.00406784
0.00215283
0.00672272
0.00672267
0.00104849
0.00467267
0.00389089
0.00504495
0.00278526
0.00672812
0.00673881
0.0002872
0.000538343
0.00137568
0.000135103
0.00102297
0.00674245
0.00511208
9.35922e-05
0.00561459
0.00350119
0.00679217
0.000134065
0.000451259
0.000799143
0.000436235
0.00672907
0.00672942
0.00590842
0.00672597
0.0130287
0.00672165
0.00672165
0.000368555
0.00296865
3.60141e-05
0.000274212
0.0067285
0.000461579
0.00672981
0.0002485
0.00585167
0.000593191
0.000712131
0.000263668
0.0067226
0.00172885
0.000343696
0.00672532
0.00022885
0.00672521
0.000479396
0.00672041
0.0123228
0.00244661
0.00150367
0.00605333
0.00672037
0.000285959
0.000621376
0.000267205
0.00672265
0.000344943
0.00604292
0.00679235
0.00517338
0.0141702
0.000474976
0.00679087
0.00672199
0.00672555
0.000206386
0.0142342
0.00545339
0.0012507
0.0132258
0.00139501
0.00126256
0.00158992
0.000348905
0.00830052
0.00388459
0.000358399
0.00207492
0.000118787
0.000710647
3.03821e-05
0.00453169
0.00113225
0.00672276
0.00116749
0.0115261
0.0067195
5.37377e-05
0.0128531
4.86716e-05
0.000318157
0.00821086
0.00022566
0.00299046
0.000387716
0.00486892
0.000113586
0.00501401
0.00672569
0.000203595
0.00672449
0.00672927
0.0075977
0.000553604
0.00148315
0.000172151
0.00672557
0.00361584
0.00674039
0.00546149
0.000223533
0.00256867
0.00735454
0.00173728
0.00449831
3.47778e-05
0.00191998
0.000582654
0.00262363
0.00188994
0.00217121
0.00381758
0.00171371
0.000343866
3.70078e-05
0.000387915
0.00672575
0.00727837
5.325e-05
0.00672566
0.00044006
0.000584007
0.00100994
0.000336313
0.00139291
0.000321753
2.25219e-05
0.00495578
0.000423389
0.000379404
0.00672708
0.0114124
0.0133205
0.00673444
0.0067377
0.000986242
0.00436228
0.000546431
0.00672185
0.0001488
0.00193979
6.89343e-05
0.000368176
0.000984542
0.00671996
0.000324725
0.00488948
0.0154935
0.000326714
0.000820903
0.00137891
0.000373345
0.00555774
0.00150255
0.00907868
0.000146102
0.00160721
0.00239172
0.00113528
0.000640142
0.00673652
0.00211713
0.000753158
0.00299186
0.0131485
0.000408691
0.000527854
5.0668e-05
0.0110397
0.0123465
0.000683215
0.00352509
0.00328087
0.00778813
0.00187763
0.00672662
0.000280381
0.0013848
0.00802992
0.00672292
0.00173214
0.000377944
0.00601507
0.000248914
0.003905
0.00486188
0.00201535
0.00967271
0.00460389
5.0512e-05
0.00338793
0.00672591
0.00162602
0.00069467
0.00982709
0.00134347
0.00672265
0.00672203
0.000107866
0.00143301
0.00024619
0.000754078
0.000370841
0.00490359
0.00672673
0.00184357
0.00293979
0.00126301
6.79565e-05
0.000416259
0.000573109
0.00219259
1.55666e-05
0.00105109
0.0126238
0.00240567
0.00647885
0.00249305
0.000425242
0.00364871
0.00673254
0.000590091
0.000314028
0.00303122
0.000538083
0.00672011
0.00672514
0.00672581
0.000392658
0.000164802
5.64511e-05
0.00129457
0.000838646
0.000319882
0.00032342
0.00251937
0.00245166
0.00591882
0.0067257
3.21275e-05
0.00672752
0.00672058
0.000330765
0.00672793
0.00317925
0.00112829
0.000742174
0.00673073
0.000470313
0.00599467
0.00273063
0.00672216
0.00636601
0.000297913
0.0115255
0.00672576
0.00672586
0.0019235
0.000336144
0.000414132
3.58769e-05
0.00672511
0.000331089
0.0014025
0.00672565
3.65142e-05
0.000303961
0.000351239
0.000323474
0.00672468
6.90927e-05
0.00436829
0.00274552
0.000471327
0.00565241
0.000400983
8.95411e-05
0.00672191
0.00672293
0.000399055
0.000392763
0.0112355
0.00227881
0.000355534
0.00264921
0.00678256
0.00189618
0.00174595
0.000302806
0.000815635
0.00672374
2.00669e-05
0.00306009
0.000159109
0.00672205
0.000488384
0.00648609
0.0067257
0.0017105
0.00070257
0.00672318
0.000422617
0.000438789
0.00972026
0.0116848
0.00781563
0.00272857
0.00672944
0.0143004
8.99214e-05
0.00672219
0.00175273
0.000362277
0.00028841
1.72556e-05
0.0149834
0.00672201
0.00181796
6.17439e-05
0.0049085
0.00158527
0.000313403
0.000684894
0.00181052
0.000405695
0.00672594
0.000135834
0.000357824
0.000161758
0.00672178
0.00316842
0.00673118
0.00537368
8.70402e-05
0.00566865
0.000402253
0.00673045
0.000941989
0.00672209
0.000908429
0.00468237
0.00283822
0.00624839
0.00554712
0.00110792
4.83256e-05
0.00962629
0.0035885
0.0103153
0.000259134
0.0102562
0.000902129
0.000395792
0.00194084
0.0108058
0.00147034
0.0067196
0.00672247
0.0067253
0.0100604
0.00127739
0.006772
0.000550804
0.000472716
0.00465443
0.006784
0.00965654
0.00191294
0.00555305
2.43892e-05
0.00672627
6.22123e-05
0.00111228
0.00031263
0.000558515
0.0038697
0.00760828
0.00672503
0.00673005
2.49153e-05
0.00672576
0.00673358
0.00144346
0.00672554
0.00728334
0.000692558
0.000493452
0.00169969
0.00155028
0.00672924
0.00914478
0.000402744
0.0117868
0.00823211
0.00672902
0.00671997
0.00175159
0.00402984
0.000182948
0.00272737
0.00672586
0.00207327
0.000110521
5.44848e-05
0.000526084
0.00209482
0.00672594
0.00080836
0.00059734
0.0118795
0.00668756
0.0110034
0.00011106
0.000132815
0.00553335
0.00427355
0.00672162
0.00673072
0.00345084
8.80065e-05
0.00672373
0.00676982
0.00103092
0.000101947
0.000443899
0.0150947
0.000100957
0.00319007
0.00439461
0.00491745
0.00443116
0.00672028
0.00672602
0.00672605
0.0067248
0.00781803
0.00239294
0.00672449
0.000230688
0.000285076
0.00672166
0.00270703
0.000120618
7.07952e-05
0.00105807
0.00542152
0.0099611
0.000788911
0.00129139
0.00163864
0.00534606
0.00110243
0.000271943
0.00672543
0.0126123
0.00457453
0.00730605
0.00517136
0.00592912
0.000728277
0.000302554
0.0017721
0.000850094
0.00316707
0.0111114
0.000209674
0.00672533
0.000684234
0.00866043
0.0142049
0.00891143
0.00224235
0.00055271
0.000610532
0.00974537
0.0016501
0.000495452
0.00210573
0.00480989
0.00672245
0.000187273
0.00672438
0.00948215
0.000582718
0.0118727
0.00392864
0.00215311
0.00672855
0.000268667
0.0004119
0.000421695
0.00672555
0.000376829
6.35773e-05
0.00114176
0.00364149
0.000815642
0.00122468
0.00672588
0.00065359
0.000659457
0.00119543
0.000222787
0.00159541
0.00672486
0.0067292
0.00672588
0.000463543
0.00188675
0.000428744
0.00455622
0.00361431
0.0105334
0.00672307
0.000237769
0.00130653
0.000159524
0.000716572
0.0130512
0.00217231
0.000320588
0.000518374
0.000762929
0.00304597
0.0104094
0.00417142
0.00121554
0.00134767
0.00528259
0.00594322
0.000324669
0.000418259
0.000316651
0.000140468
0.00740879
0.00032168
0.00672109
0.0113151
0.00791081
0.00275537
0.00673439
0.000232525
0.0127269
0.000587263
0.0067247
9.67997e-05
0.000219035
0.000292097
0.000300501
2.98153e-05
0.00140731
0.000313912
0.00320009
0.00118728
0.000709071
0.000127865
0.000112668
0.00105098
0.0067209
0.00272898
0.00414211
3.77552e-05
3.44419e-05
0.00624357
4.53044e-05
0.00828227
0.00200939
9.30467e-05
0.000875498
0.00496933
0.0064038
0.00674231
5.3241e-05
0.0010331
0.00668419
0.000492512
0.00672257
0.00140804
0.00144853
0.00119074
0.000406321
0.00594675
0.000316992
0.000996385
0.000710279
0.0105661
0.0051054
0.000395865
0.00847624
0.0067282
0.00173533
0.0134955
0.00671876
0.000335408
0.006724
0.00341938
0.00111184
0.00070871
0.000297199
0.000892446
0.000321073
0.00064712
0.00180971
0.000446605
0.0048252
0.00224289
0.000683852
2.14981e-05
0.00244475
0.000261122
0.000364762
0.0052205
0.00672775
0.00388566
0.00072408
0.000735373
0.0067252
0.00105793
0.0109051
0.0142957
0.000458537
0.000543513
8.8061e-05
0.00112801
0.00672333
0.0067249
0.00054936
0.00014369
0.00676445
0.00259141
0.000458129
0.000334144
0.00681047
0.0125647
0.00972366
0.00362228
0.00674072
0.000389794
0.0067253
0.00672627
0.00436821
5.10393e-05
0.00157672
0.00632662
0.000343914
0.000456666
0.0014682
8.92949e-05
0.00303801
0.00956234
0.000516768
0.00211687
3.5843e-05
0.01301
0.00672076
0.0141297
0.00672308
0.00672776
0.00170346
0.000208035
0.00911151
0.00059551
0.00425703
0.000385459
0.00836412
0.000149493
0.00108409
0.00741406
0.00300103
0.00660151
0.00271426
0.00389473
0.00756951
0.00222042
2.79694e-05
0.000803001
0.000526742
0.00524605
6.39895e-05
0.00870977
0.00672281
0.0121236
0.00491524
0.00314185
0.00360238
0.000533455
0.00114183
0.00672765
0.00672623
0.000501709
0.00941484
0.00565246
0.00671983
4.51039e-05
0.00105324
0.00672751
0.00672234
0.000406903
0.000302417
0.00641239
0.000616169
0.00679844
0.000693906
0.011247
0.000581533
0.00559653
0.00672906
0.00058176
0.000822041
0.000588529
0.00530187
9.17229e-05
0.000137694
0.00763707
0.00725604
0.000717363
0.00672106
0.000513151
0.00534207
0.00205091
0.00107607
0.00233745
0.00671968
0.00517458
0.00676701
0.00654388
0.000956398
0.00583816
0.000468428
0.000600148
0.0156973
0.00299928
0.00672264
0.00546166
0.0152635
0.00217536
0.0128703
0.00902539
0.0102341
4.07829e-05
4.09977e-05
0.00649062
0.0010051
0.00672314
0.00672619
0.00290051
0.00186686
0.00672205
0.00177208
0.00751259
0.000480783
0.00260497
5.98578e-05
0.006719
0.00108015
0.000413851
0.00672164
0.000680191
0.0015631
3.43248e-05
4.60885e-05
0.000368315
0.00983544
0.000120269
0.000924208
0.000124263
0.00832925
0.013852
0.000521196
7.67383e-05
0.000312103
0.0026504
0.00546738
0.00672991
0.00672012
0.00138588
0.0056829
0.00672627
0.00672588
0.000386997
0.00671873
0.00022047
0.000228373
0.00672436
0.00519683
0.00509752
0.00520307
0.000305819
0.00672651
0.000315101
3.20985e-05
0.00240599
0.00332061
0.00672659
0.000115145
0.00672003
0.0012768
0.000214767
0.00602553
0.0128894
0.00274261
0.0150384
0.00190151
0.000345106
0.00672549
0.000437858
0.0004434
0.00672331
0.00237363
0.0150604
0.00544323
0.00214086
0.00272224
0.00131206
0.00672189
0.00672151
0.00672855
0.00528905
0.00659402
0.0155764
0.000338737
0.000328792
0.00431139
0.00674294
0.00643854
0.0113345
0.0132537
0.000623786
0.00672215
0.00466249
0.00672612
0.00312407
0.000145413
2.71979e-05
0.000922059
0.00136012
4.85965e-05
0.0010772
0.000240206
0.00396243
0.002167
0.0110612
0.000459211
0.00672529
0.00223197
0.0147188
0.0067241
0.00328285
0.000103187
0.00672531
0.000450526
0.0067521
0.000818739
0.000800047
0.00671849
0.00672167
0.00328937
0.00395356
0.00672455
0.000535398
0.0053158
0.00239645
0.00672709
0.000137741
0.003476
0.000822717
0.0125353
0.00148367
0.00672831
0.000830267
0.00332278
3.6725e-05
4.28884e-05
0.00675635
0.00027834
0.00325632
0.0114735
0.00674622
0.00519596
0.00013507
0.00667605
0.00672377
0.00671859
4.14961e-05
0.00572348
0.00266605
0.00446085
2.78941e-05
0.0067254
0.00672517
0.00073318
7.95328e-05
0.00462897
0.000673131
0.00241175
0.00153792
0.00493611
0.00676538
0.00672602
0.000354051
0.00185509
0.00833752
0.0010743
0.0122925
0.00509939
0.00672876
0.000290552
0.0132166
0.0135535
0.00173851
0.00695235
0.0048954
0.000335199
0.00137715
0.000353551
0.00626324
0.00570002
0.00673422
0.000731225
0.00672295
0.00516567
0.00672564
0.0112026
0.00623517
0.00859467
0.000228684
0.00144687
0.000980695
0.00672025
0.00672121
0.00671885
0.00104052
0.000304512
0.00396879
0.000522132
0.000354586
0.00672213
0.00127819
0.00035959
0.000335337
0.00102896
0.00102595
0.000278771
0.00453988
0.000534389
0.00574477
0.00052297
0.000424783
4.41292e-05
0.00624608
0.00575945
0.000361952
0.000177359
0.00534153
0.00962513
0.000391638
0.00351332
0.00176555
3.3262e-05
0.000222488
0.000376096
0.000507128
0.00672261
0.000207739
0.00399184
0.000592007
0.00320278
0.00672281
0.0122748
0.000833233
0.00158256
0.00558611
0.00503438
5.96239e-05
0.00268967
0.00626087
0.000145259
0.00387643
0.00123867
0.00547038
0.00418052
0.00175032
0.001427
0.000401413
0.00300659
0.00295698
0.00058488
0.00539615
0.00673496
0.00110505
0.0021368
0.00131177
0.000286983
0.00152193
0.00671862
0.00672686
0.00138096
0.00673763
0.00672339
0.0111441
0.00672585
0.0016121
0.00672313
9.79623e-05
0.00672431
5.03194e-05
2.84057e-05
0.00313806
0.0107099
0.00671986
0.0013638
0.00443045
0.00891845
0.000486248
0.00671859
0.00672279
0.00247932
0.00593438
0.000370935
0.00898371
0.00269638
0.00452584
0.00672392
0.00152156
0.000428414
0.00203446
0.00674642
2.34148e-05
0.00812705
0.000937113
0.0035855
0.0030794
0.00672458
0.00672385
0.00935046
0.00037813
0.00164928
0.000994418
0.00388927
0.00862634
0.00198642
0.00022234
0.0067246
0.00113107
0.00539087
0.000398879
0.000387781
0.000701893
0.00672183
0.0040983
0.00122576
0.0067185
0.00674515
0.00312624
0.0055226
0.0029373
0.0130519
0.00181734
0.0110125
0.00233389
0.00103062
0.0136614
0.00671864
6.84109e-05
0.00110491
0.00671873
0.000907942
0.000409662
0.00672234
0.00491125
0.00672239
0.00425171
0.000495396
0.00672384
0.00154207
0.000357123
0.0067217
0.000383435
0.00120626
0.00843427
0.00643561
0.010393
0.000351731
0.000383857
0.00863367
0.00751958
0.00679482
0.00184757
0.00672338
5.11846e-05
0.00531974
0.000273178
0.000776865
0.00672808
0.00419093
0.00672297
0.00172487
0.00134506
0.00278092
0.000997317
0.000425466
0.00672192
0.00672483
0.00672311
0.00474067
0.000267148
0.00491888
4.73983e-05
0.00672341
0.000648588
0.00286852
0.000288837
0.000650629
0.000307178
0.000993514
5.31985e-05
0.00674473
0.0067185
0.000217603
0.00672508
0.00672098
0.000462626
0.000285586
0.00672246
8.63198e-05
0.00672433
0.00518167
0.00672355
0.00579816
0.0116986
0.000462129
0.00116846
0.00239386
0.00988058
4.5023e-05
0.0067223
0.00025002
0.000810814
0.00384527
7.29134e-05
0.0105707
0.000338624
0.000500442
0.000307962
0.000300803
0.000143192
0.00691854
0.00672229
0.0067258
0.00552596
4.71688e-05
0.00196521
0.0022453
0.00493585
0.00229591
0.0125153
0.000437477
0.00149784
7.2159e-05
0.00672092
0.00108196
0.000296143
5.10008e-05
0.00672675
0.000362915
0.000313378
0.000526337
0.0109799
0.0067274
0.00529179
0.00672282
0.000150679
0.00671983
0.0067199
0.00774645
0.000149795
0.00114304
0.00408116
0.00924834
0.000804151
0.0105237
0.0111567
0.0067258
0.00674111
0.000640383
0.0112313
7.60778e-05
0.000682526
0.000293725
0.000314647
0.00576374
0.00228632
0.00536205
0.00386915
0.000956987
0.0001091
0.00783192
0.000422092
0.000314866
0.00590323
0.00672071
0.007286
0.000272659
0.000110127
0.00672383
0.00672837
0.00672605
0.00671854
0.00671895
0.000385034
0.000159627
0.0138459
0.000507511
0.000368917
0.00202856
0.000367213
0.00811081
0.00258282
0.00141079
0.00671946
0.00453699
0.00888624
0.000236311
0.000313554
0.00461449
0.00185811
0.00169556
0.000665986
0.000680695
0.000122074
0.00674758
0.000411875
0.00995048
0.00672596
0.000469923
0.00262963
0.0137468
0.00038254
0.000481643
0.00129798
9.93938e-05
0.000104734
0.00728734
0.00496962
0.000310196
0.00678432
0.0067252
0.00660298
0.00340878
0.0151448
0.00672424
0.00679549
0.00593384
0.00422433
0.00415791
0.00160536
3.13958e-05
0.00179551
0.00672356
0.0154915
0.00207515
0.000440502
0.00671975
0.00548976
0.000286094
4.04907e-05
0.00672212
0.00039086
0.000213585
0.000497689
4.57111e-05
0.00672567
0.00672641
0.00672432
0.00614874
0.00146014
0.000108936
0.00672278
0.00960423
0.00673357
0.00672208
0.000333516
0.00454518
8.2388e-05
0.00108183
0.00671892
0.00422325
0.000408459
4.1624e-05
0.000116396
0.00213614
0.00151406
0.000452386
0.00032121
0.00500047
0.000302674
0.0100223
0.00671887
0.000329095
0.00293855
0.00069883
0.000826338
0.0131177
0.000385367
0.00242411
0.00770568
0.000591315
0.000662579
0.000132418
0.00460968
0.000358179
0.00674834
0.00359854
0.000546838
0.00157468
0.000266508
0.00671977
0.000362418
0.00308392
7.71352e-05
0.00522241
0.00572294
0.0064916
0.0067495
0.00015704
0.000332164
0.00502733
0.00517841
0.004944
0.00671945
0.00255467
0.00340273
0.0142803
0.000395475
0.00672548
0.0126197
0.00672224
0.00281653
0.00674355
0.00375295
0.000121899
8.68067e-05
0.00065405
0.00436326
0.00672395
0.00672845
0.000444171
0.000113639
0.00672236
0.000639348
0.00387277
0.0141652
0.000674689
0.00823967
0.0112972
0.00438231
0.00311794
0.00672052
0.000325489
0.00672168
0.00244587
0.00419771
0.000371562
0.00617206
0.00030012
0.000316491
0.00917094
3.24388e-05
7.15372e-05
0.00875467
0.00672237
0.000222799
0.00200064
0.00672371
0.000521821
0.0107277
0.0003379
0.00601427
0.00860317
8.78037e-05
0.00297254
0.000888938
0.000897727
7.63072e-05
0.00141883
0.00438833
0.00672154
0.00554976
0.000354565
3.43461e-05
0.000363205
0.00672006
0.00444246
0.000264779
0.00671658
0.00153858
0.000452207
0.00150437
0.00672438
0.00672589
0.000227482
0.00672143
0.000271745
0.00201011
0.00672086
0.00672148
0.000660172
0.00671892
0.00015409
0.00155542
0.000141149
3.95946e-05
0.00430674
0.000509818
0.00106794
0.000119923
0.000864415
0.000998884
6.03935e-05
3.07242e-05
0.000430507
0.00578654
6.42043e-05
0.00265924
0.000305728
0.00585943
0.000408372
0.00671889
0.00672208
4.71387e-05
0.00362391
0.0141701
3.15031e-05
0.000894589
0.00793361
0.00145198
0.000359847
0.00342668
0.00333855
0.0067222
0.0067215
0.00671933
0.00641893
0.000376872
0.00139944
0.000365861
0.000342798
0.000426849
0.00290408
0.00180654
0.000330172
0.00672158
0.00672225
0.00681942
0.00270384
2.52063e-05
0.00672279
0.00672027
0.00672582
0.000127819
0.00027121
0.000518894
0.00251309
0.00194465
0.0149603
0.00987948
4.00912e-05
4.43094e-05
0.000526956
0.0023743
0.0156117
0.000352984
0.00269223
0.000100864
0.00644157
0.000432861
0.000574952
0.00245939
0.00671898
5.65025e-05
0.000419097
0.00778775
0.00034379
0.000672385
0.0023487
0.00127611
0.00469944
0.000312342
0.00196517
0.00029909
5.57009e-05
0.00593933
0.010609
0.00271415
0.00672016
0.000954506
0.00210142
0.000290236
0.00508386
0.000385274
0.00672139
4.33578e-05
0.000244927
0.000792765
0.00255022
0.00363055
0.00213131
0.0067258
0.000385901
5.34142e-05
0.0156021
0.000474028
0.00672669
0.0160082
9.40624e-05
0.0047774
0.000172251
0.0061419
0.00141344
0.00672254
0.000273034
0.000988018
0.000425247
0.000460745
0.00674082
0.00483485
0.00672608
0.0013868
0.00155004
0.00129284
0.0067187
0.00338189
0.000828855
0.00672605
0.000932419
0.00672439
0.00116399
4.3616e-05
0.00197249
0.00145125
0.000605603
0.0122944
0.00671866
0.00672318
0.000439497
0.000324037
0.00327455
0.000450913
0.00405285
0.00116718
0.0136639
0.00141322
0.00474208
0.00185526
0.000175693
0.00672373
0.00801116
0.00569304
0.00763207
0.00195047
0.00105906
0.00674215
4.3539e-05
0.00040322
2.89126e-05
0.0067251
0.000131279
0.00163406
0.000382347
0.00178261
0.0014217
0.00216768
0.00895625
0.00154967
0.00673952
0.00669204
4.28545e-05
0.00672347
0.00672254
3.02483e-05
0.00170218
0.000357158
3.98265e-05
0.00672354
0.00170098
0.00415348
0.000429174
0.00271029
0.00671613
0.000370233
0.00169618
0.000509213
0.00673211
0.00285841
0.00338049
0.0033857
0.00672159
0.000304582
0.00567989
0.00063589
0.00824085
0.00654543
0.00289042
0.00624446
0.000123125
0.000426335
0.00252327
0.000695929
0.000682706
0.00671846
0.000921067
0.0112945
0.000136648
0.00405254
0.0031359
0.00553461
0.00270545
0.01364
0.00656738
0.0027651
0.00672016
0.000517605
0.00549021
0.000751713
0.00025858
0.00672273
0.000117253
0.0013835
0.000355746
0.000784063
0.00200246
0.000333502
0.0143186
0.000321957
0.00677161
0.000292019
0.000862505
0.000187378
0.000645945
0.00504166
0.00037159
0.000436607
3.80731e-05
0.000183434
0.00207407
0.00260495
0.00745277
0.00220202
0.00682731
0.000306405
0.000149956
0.0161625
0.00271818
0.00515778
3.66356e-05
0.000338121
3.74158e-05
0.000158127
0.000920513
0.00672222
0.00296158
0.000132099
0.00481489
0.000122514
0.000419282
3.66625e-05
0.00813147
0.0067214
0.000408835
0.00166875
0.000299387
0.000283
0.00672382
0.000352133
0.000558789
0.000903826
0.00672357
0.00182271
0.000400926
0.00451116
0.00137325
0.0115667
0.00672544
0.00672041
0.00107984
7.7203e-05
0.00317576
0.00672303
0.00142729
0.000628565
0.000721897
0.00439568
0.00672637
0.00501009
5.03372e-05
0.00672249
0.00672387
0.000868697
0.0159336
0.00477136
0.00672573
0.000515452
0.00111474
8.53345e-05
0.00254081
0.00654016
0.0067185
0.00131366
0.000846528
0.0150387
0.001922
3.95872e-05
0.00064309
0.0101552
0.00752489
0.00189403
0.0120541
0.000954104
0.00432544
0.00673647
0.00019002
0.00651575
0.0047836
0.00679549
5.02468e-05
0.0046385
0.00359787
0.000796659
0.0149817
0.00477399
0.0130342
0.00343364
0.000677132
0.00672578
0.00127808
0.000165399
0.000349921
0.00228033
0.00672353
0.000911386
0.0143183
0.00672138
0.000662796
0.00672376
0.000375453
0.00283893
3.52533e-05
6.08451e-05
0.000439884
0.000343058
0.00267955
0.00943522
0.00123213
0.0067186
0.0148865
0.00846347
0.00488377
0.00673739
0.000433467
0.000685362
0.000436594
0.00672051
0.00500576
0.000232389
0.000393609
0.00674541
0.00671906
0.00148825
0.0030334
0.00288877
0.00221638
0.000519206
0.00385022
0.000188217
0.00170441
0.00361434
3.92136e-05
0.00671978
0.000645687
0.000248988
0.0010384
0.000402936
0.00490018
0.000844109
0.00784145
0.00330987
0.00671922
0.000270803
0.00672038
0.0154108
0.00672455
0.0156204
0.00484241
0.00490534
0.0062733
0.000746467
0.00643217
0.00555392
0.000669952
0.00112638
0.000184776
0.00672057
0.000255224
0.00672034
0.0103739
0.000375451
0.014085
0.00673582
0.00672704
0.000464941
0.00217182
0.000286202
0.00571019
6.44322e-05
0.000910731
0.00403387
0.00705284
0.00271986
0.00672418
0.00246008
0.00230848
0.00986877
0.000385504
0.00671906
0.00610183
9.8261e-05
3.09367e-05
0.00679603
0.000302178
4.464e-05
0.00433876
0.001096
0.00234132
0.00672208
0.00671981
0.00361567
0.00063642
0.00109148
0.0108874
4.16764e-05
5.3126e-05
0.00672593
0.00672367
0.00662903
0.000882744
0.00672487
0.00247469
0.00175352
0.0139839
0.00346954
0.0133611
0.000232479
3.36663e-05
0.00672592
0.00994179
0.00671916
0.00325179
0.00672176
0.00671847
0.000904656
0.00485854
0.00672409
0.0124497
0.000340651
4.1726e-05
0.0097057
0.00672181
0.00312647
0.00537087
0.000122027
6.06305e-05
0.00672929
0.000353944
0.00215146
0.0135398
0.00638554
0.00848897
0.00673084
0.0124307
0.00331886
0.011664
3.53454e-05
0.00051418
0.000165886
0.00513051
0.000463049
0.0150574
0.00111054
0.0102153
0.0067188
0.00672333
0.000131083
0.00813167
0.000249907
0.000380694
0.0067197
0.00630427
0.000668148
0.000116473
0.0067204
0.000388335
3.88727e-05
0.00672349
0.000668707
0.000535798
0.000309105
0.00676913
0.00672147
0.0110256
0.00739583
0.000912004
0.0067176
0.000200968
0.00672245
0.00608832
0.00271336
0.00672216
0.000402719
0.00672606
0.00673551
0.000569748
0.00962115
0.00191574
0.00653791
0.00115569
0.00488018
0.00289696
0.00290864
0.000423163
0.00671923
4.29429e-05
0.00672324
0.00310767
0.00654563
0.000101354
0.00508098
0.000397175
3.87319e-05
0.0141275
0.000115048
0.00482816
0.00110462
0.0116069
0.0085109
0.00923115
0.00672297
0.00300153
0.0060613
0.0039926
0.000518527
0.0015702
0.00672373
0.00397334
0.00026327
0.00441062
0.00351916
0.000960603
0.00672493
0.0031537
0.00132462
0.0114848
0.00377152
0.00672474
0.000330827
0.00673937
0.000562835
0.00622477
0.000115429
0.000336402
0.00917895
0.00672032
0.00552123
0.0146163
0.00373971
0.00672533
0.000625883
0.00069661
0.00159099
0.00113082
0.00754356
0.01382
0.000361746
0.00583472
0.00317396
0.000292658
0.00671865
0.00672072
0.00130096
0.00672055
0.00024919
0.00386215
0.00764807
0.00672154
0.00118098
0.0026992
0.00175887
0.0100972
0.00010887
0.000159524
0.00252087
0.000152643
0.0106869
0.000429055
0.0103449
0.000540155
0.00272457
0.0155329
0.0074728
0.000787112
0.00672413
0.00136391
0.000434865
0.000290106
0.00657071
0.00279974
0.0067249
0.00672006
0.00672326
0.00932085
0.000991024
0.00672102
0.00247697
0.00672188
0.00595315
0.000519555
0.00631813
0.000585716
0.00671959
0.0144055
4.58404e-05
3.41105e-05
0.00128986
0.00106742
0.00672119
0.00103101
0.00275535
0.000298131
0.000250242
0.00237984
0.00672073
4.66034e-05
0.00150235
0.00672253
0.000412179
0.00672406
0.0108515
0.00671987
0.00684337
0.00283042
0.000923893
0.00671987
0.00294161
0.00672283
0.00678606
2.17144e-05
0.000844794
0.00115311
0.000301391
3.61315e-05
0.013286
0.000343547
0.000888713
0.0020006
0.0089538
0.00884944
0.00683131
0.000844997
0.00629814
0.00517288
0.0011421
0.00675986
6.58669e-05
0.00110442
0.00288057
0.00253838
0.00672203
0.00475457
0.00481161
0.00672804
2.90008e-05
0.0063062
0.008335
0.000172518
0.00235579
2.89444e-05
0.000931978
0.0049699
0.00287269
0.00340742
0.00672256
0.00679479
4.10787e-05
0.000624573
0.000111101
0.000275364
0.00944302
0.00672168
0.0060369
0.0106821
0.00671981
0.000322121
0.000356866
0.00274023
0.00138052
0.00661516
0.00672543
0.00107061
0.00397267
4.34833e-05
3.99297e-05
0.00203438
0.00120672
0.000372183
0.0152344
0.00671921
8.19959e-05
0.00942894
0.00671946
0.000669533
0.0067962
0.000486397
0.00251307
0.00470364
0.000267342
0.00299797
0.00206696
0.00151682
0.00763604
0.000528846
0.00228188
0.00198024
0.0044785
0.00562274
0.00206696
0.000144157
3.63762e-05
0.00159243
6.84656e-05
0.000107811
0.006724
0.000332019
0.00327828
0.00673182
0.00145272
0.00672453
0.00123028
0.0134002
0.000273801
0.00672669
0.00348799
0.00532798
5.38e-05
0.00206906
0.000653291
0.00198491
0.00704892
0.00149174
0.000701603
0.00031818
0.000153581
0.00500323
0.00675529
0.00672195
0.000111695
0.00784715
0.012579
0.0132199
0.00671867
0.000522727
0.000303456
7.33055e-05
0.00806389
0.00672237
0.00562833
0.0018782
0.00272593
0.00676543
0.00687487
0.0012224
0.00381639
0.00453106
0.000400723
0.0100264
0.000104049
0.00672009
6.60868e-05
0.00211336
0.00343462
0.00106928
0.00160007
0.00671922
0.00236272
0.000812134
0.00672618
0.000964672
0.00672556
0.000450299
0.00672551
0.0150228
0.00672442
0.0090951
0.00673587
0.000294719
0.00517588
0.00105074
0.00669281
0.00672126
0.000696423
0.00245467
0.0067239
0.00445862
3.42138e-05
0.000100118
0.00674042
0.00070328
0.00538585
0.00806842
0.000827964
0.000222826
0.000305822
0.00475935
0.000516249
0.00310213
0.00119949
0.000119742
0.00672234
0.000222859
0.00566146
0.0067214
0.0135227
0.000507329
0.00583926
0.00672941
0.00227473
0.00672788
0.014377
5.43541e-05
0.00672569
0.00547643
0.000352152
0.0108312
0.00147847
0.00067935
0.00672192
0.000405668
0.00390855
0.00672254
0.000341553
0.00272476
0.000374125
3.90866e-05
0.00826515
0.00922565
0.00186663
0.000483442
0.00780491
0.00218952
0.00964884
0.000465909
0.00104804
0.000286116
0.000434709
0.00673106
0.000142748
0.00672608
0.00628182
0.00074631
0.00459524
0.000547596
2.29391e-05
0.000321863
0.00320692
0.00672117
0.000285992
0.00672159
0.00672427
0.000547538
0.0110806
0.0061212
0.00675516
6.03986e-05
0.000355088
0.0030019
0.00280897
0.000448749
0.00412582
0.000171713
0.00333289
3.36912e-05
0.00488892
0.00672228
0.00672498
2.44498e-05
0.00427742
0.000887142
0.00672227
0.00796841
0.00487588
0.00175549
0.00672524
0.00129029
0.0163007
0.00202933
3.21982e-05
0.000259335
0.00673147
0.00120298
0.00672675
0.00508076
0.00672027
0.00688924
0.00978831
0.0117157
0.000898824
0.000301667
0.00541032
0.00672258
0.00560425
0.00672594
0.00260233
0.0107955
0.000254445
0.00671949
0.00674096
3.32177e-05
5.37064e-05
0.000103614
0.0091934
0.000345658
0.00791765
0.0022453
0.0110749
2.39773e-05
0.00136246
3.12829e-05
0.0134131
0.00212453
0.00273224
0.00083575
0.00672675
0.00503746
0.000267658
2.36124e-05
0.00672844
0.000454661
0.006722
0.000118809
0.0084575
0.00323526
0.0012693
0.00704346
0.00920158
0.00317377
0.00844127
0.00369578
0.00640035
0.0067246
0.0137986
0.00672292
0.00210898
0.00672212
0.00285711
0.00672414
0.00350734
0.00279775
0.000359602
0.0067383
0.00943931
0.00359404
0.00671699
0.00673935
0.000187568
9.51154e-05
0.000371654
0.000309372
0.00100806
0.0111819
0.01047
0.0120808
0.000363997
0.00100188
0.000280967
0.000254194
0.00361942
0.00264323
0.00631658
0.000367115
0.000525649
0.00101644
0.00338421
9.20738e-05
0.000361925
0.00672358
0.000684717
0.00372686
0.00672176
0.000510952
2.91032e-05
0.00110751
0.000568009
0.00314916
0.0015444
0.0142431
3.24771e-05
0.00675014
0.000690139
0.00222991
0.000332197
0.00121063
4.18175e-05
0.00465215
0.000457123
0.000286298
0.00869901
0.00129534
0.00735387
0.000369177
0.0058402
0.00672286
0.00672265
0.0102012
0.00570036
0.00633412
0.00901713
0.00789122
0.000229123
0.000376674
0.000841927
0.00742494
0.00428883
0.00672059
0.000566901
0.000348207
0.000190439
0.00501874
0.00114417
3.89917e-05
0.00690176
0.00455185
0.000358503
0.0068327
3.91261e-05
0.00025587
0.000583385
0.00580032
0.0076756
0.00851101
4.19349e-05
0.000702318
0.00454911
0.00268614
0.00112289
0.000243636
0.00413839
0.00657204
0.00257077
0.0001178
0.00673121
0.000344753
0.000590451
0.0110584
0.00672178
0.0014539
0.000264701
0.00535239
0.00672161
0.00214538
0.00019577
0.000418924
0.00176509
0.00654115
0.00454089
0.00647627
0.00672617
0.000357045
0.00883439
0.00256965
0.000445313
0.00283197
0.00176173
0.0067256
0.0109909
0.000474893
2.43351e-05
0.00109546
0.00678822
0.00674429
0.00671731
0.00673023
0.00672074
0.00671976
0.00886565
3.07295e-05
0.00670003
0.00672416
0.0062639
0.00842242
0.00110009
0.00783092
0.000338267
0.00678948
3.63001e-05
0.000296567
0.00071241
0.00554915
0.00140951
0.000533395
3.43006e-05
0.000407031
0.0067234
3.46453e-05
0.0067206
2.90372e-05
0.00256958
0.000294475
0.00673356
0.00384034
3.75489e-05
0.00672557
0.00620428
0.00672266
0.0057464
0.0117494
0.000463619
0.000724562
8.71541e-05
0.000611857
0.00682762
0.00677216
0.00496269
0.000254319
0.000550363
4.20847e-05
3.42642e-05
0.0018912
0.000930157
0.000213191
0.00306478
0.000296923
0.00598807
0.00060279
0.00495805
0.00194258
0.00672482
0.0017443
0.000223193
0.00680928
0.00672092
0.00852188
4.61986e-05
0.00560144
0.00399566
0.00672537
2.757e-05
0.0103778
0.00326613
0.00672614
3.86834e-05
0.0102684
0.000951743
0.000351445
4.27109e-05
0.00816007
0.000862447
0.00106213
3.33596e-05
0.000537861