/*--------------------------------*- C++ -*----------------------------------*\
| =========                 |                                                 |
| \\      /  F ield         | OpenFOAM: The Open Source CFD Toolbox           |
|  \\    /   O peration     | Version:  v2012                                 |
|   \\  /    A nd           | Website:  www.openfoam.com                      |
|    \\/     M anipulation  |                                                 |
\*---------------------------------------------------------------------------*/
FoamFile
{
    version     2.0;
    format      ascii;
    class       surfaceScalarField;
    location    "150";
    object      phi;
}
// * * * * * * * * * * * * * * * * * * * * * * * * * * * * * * * * * * * * * //

dimensions      [0 3 -1 0 0 0 0];
oriented        oriented;


internalField   nonuniform List<scalar> 
27274
(
0.131757
0.0310963
-0.162852
0.00286747
-0.00299352
0.000126052
0.230854
-0.309403
0.078563
-0.322217
0.517968
-0.195675
0.289319
-0.245129
-0.0441809
0.136582
-0.128858
-0.00772362
0.362278
-0.41684
0.0546063
-0.167687
0.0808674
0.0868195
-0.144791
0.15233
0.00204701
0.000972017
-0.00301903
0.434999
-0.210897
-0.22406
-0.0074749
0.00853489
-0.00105999
-0.0362824
0.0948635
-0.058581
0.219722
0.0910785
-0.310801
-0.0558424
0.282811
-0.226958
0.0330114
0.14838
-0.181389
-0.00785152
-0.00252056
0.0103721
0.038001
0.249595
-0.287553
-0.295288
0.250557
0.0447384
0.0596651
-0.0451879
-0.0144772
-0.119429
0.164612
-0.0451823
-0.0398581
-0.142542
0.182403
-0.000835369
-0.00205136
0.00288673
0.257852
0.0314744
-0.224814
-0.0239663
0.373986
0.0368987
-0.410868
-0.421867
0.169364
-0.158056
0.164603
-0.00654692
-0.00854384
0.000957516
0.00758632
-0.217236
-0.0556147
0.27286
0.138317
-0.269473
0.131169
-0.272376
0.108539
0.163843
-0.293892
0.331943
0.208973
-0.52974
0.32091
-0.0511355
-0.0793875
0.130523
0.166129
-0.0343714
-0.21549
0.0804401
0.065632
-0.108879
0.0432475
-0.199581
0.0415254
0.420703
-0.312477
-0.108189
-0.0215308
0.241254
-0.0960358
0.071499
0.0245369
0.308708
-0.07784
0.0069322
-0.00223542
-0.00469678
-0.52589
0.364247
0.161786
0.0812349
-0.0156029
-0.127121
0.151953
-0.0248318
0.0608662
0.10768
-0.168546
0.129201
-0.154183
0.0249832
-0.479651
0.212597
0.267089
-0.416072
0.0827245
0.333396
0.186133
0.130758
-0.316872
0.28643
0.171321
-0.457749
0.00730011
-0.0131011
0.00580101
-0.0784074
0.38354
-0.305109
-0.461208
0.487258
-0.025969
0.0711883
-0.124467
0.0532785
-0.196256
0.140422
-0.0222872
0.0142462
0.00804094
-0.0477068
0.11775
-0.0700431
-0.242865
-0.236753
0.148567
-0.15753
0.00896264
0.0596589
-0.354432
0.294814
-0.00478156
-0.117625
0.122407
-0.000220857
-0.00725404
-0.142168
0.173265
-0.00841557
0.00690044
0.00151513
-0.119839
0.122995
-0.00315637
-0.239583
0.16028
-0.200135
-0.137437
0.104404
0.0330327
0.560149
-0.320177
-0.239956
-0.104599
0.0568926
0.400031
-0.285286
-0.114707
-0.0868139
-0.0808722
0.0648569
0.297456
0.0385005
-0.0221958
-0.0163047
0.28458
-0.24679
-0.0377852
0.025096
0.159978
-0.185072
0.184667
0.15447
-0.339117
-0.340556
-0.0762374
0.0691424
0.0153803
-0.0845227
-0.170948
0.0515205
-0.125508
0.0110982
0.11441
0.057348
0.316651
-0.0927024
0.0564201
-0.000672745
0.0141579
-0.0134852
0.0365773
0.0230877
-0.00968539
0.00114155
0.00586668
0.00422286
-0.0100895
-0.0635982
0.118546
-0.0549478
-0.442363
-0.0833346
0.480077
-0.163748
-0.31631
-0.300928
-0.117872
0.418866
-0.0105208
0.0105208
-0.0011665
0.000331136
-0.361414
0.244416
0.117015
0.212948
-0.21743
0.00448466
0.0102897
-0.00298961
-0.00719274
0.00832487
-0.00113213
-0.00972098
0.0112377
-0.00151674
0.0102217
-0.00782938
-0.00239229
-0.174772
0.120854
0.0539181
-0.0835519
0.0487659
0.0347859
0.303749
-0.224522
-0.0792184
-0.0673003
0.119135
-0.0518342
-0.00980316
0.0100232
-0.000220008
-0.0261925
-0.0624002
0.0885928
-0.00483188
-0.117533
0.122366
-0.0380675
0.0165609
-0.316369
0.110466
0.205912
0.161034
-0.206925
0.0458911
-0.434653
0.0634263
0.37123
-0.0114684
0.172503
0.00648944
0.00682707
-0.0133165
-0.411915
0.549489
-0.13748
-0.0107686
0.0125447
-0.00177611
0.0178956
0.020605
-0.014071
0.0135972
0.000473857
-0.145925
-0.0288461
-0.00123006
0.00327708
0.0430987
0.044568
-0.0876666
0.211576
0.0730091
-0.102183
-0.0352535
-0.143996
-0.217401
-0.088372
0.0621795
-0.156074
0.342229
0.280249
0.195072
-0.475325
0.0405987
-0.0820328
0.041434
-0.414965
0.114114
-0.308652
-0.10737
0.072961
-0.0618638
-0.0110972
-0.0224629
0.131267
-0.108804
0.193018
0.0199328
0.0794896
-0.108564
0.0290747
-0.171939
0.452194
-0.192209
0.00609071
0.18613
0.273913
0.161121
-0.219242
-0.0460993
0.265348
0.0591454
-0.121628
0.0624828
-0.000654322
-0.00906666
0.00656881
0.0021659
-0.00873471
-0.217232
-0.0376055
0.254842
-0.268089
-0.0482718
-0.0247472
0.0207806
0.00396665
0.258164
-0.10613
-0.152032
-0.156429
0.0411925
0.115236
0.0127396
0.00105354
-0.0137931
-0.132436
0.210185
-0.0777455
0.0151126
-0.00237298
-0.143889
-0.119496
0.263395
0.115625
0.0414207
-0.092556
-0.0149298
-0.00735734
0.105899
-0.133426
0.0275276
0.0349123
0.425067
-0.459972
0.0583602
0.0146008
-0.00445591
-0.0096151
0.35009
-0.315169
-0.150587
0.0397149
0.110872
0.00443807
-0.121911
0.117474
-0.029265
0.190567
-0.161299
-0.138696
0.0192459
0.11945
0.219695
-0.0266741
-0.0437037
0.100092
-0.0563885
0.0299642
0.00988286
-0.039847
-0.00565831
0.0124927
-0.00683441
-0.175408
0.145322
0.0300869
0.115345
-0.0537802
-0.0615645
-0.347022
0.320623
0.0264329
-0.00327024
0.000251692
0.00301854
-3.00839e-05
0.000769958
-0.000739873
0.00256735
-0.383153
0.380647
-0.372012
-0.016876
0.388937
-0.159
0.192013
-0.00157097
0.004696
-0.00312503
0.140772
-0.147222
0.00645065
-0.360496
0.0214392
0.339073
0.0918173
-0.0512186
-0.0106363
-0.014507
0.0251432
0.0422786
0.0137824
-0.0560611
0.0634017
0.0519431
0.199041
-0.201733
0.00269429
-0.44195
0.371128
0.0708743
0.104568
-0.0529305
-0.0516379
-0.00277103
0.00719586
-0.00442483
-0.00172019
0.00829703
-0.00657684
-0.03734
0.109466
-0.0721259
-0.0288091
-0.136622
0.165431
-0.0104516
0.00260004
-0.036198
-0.187326
-0.138158
0.325497
0.191022
0.0286753
-0.035246
-0.0297289
0.0649749
0.110013
-0.0749272
-0.0350854
-0.283823
0.129712
0.154113
-0.0969139
0.0317749
0.065139
0.178606
0.0204363
0.170642
-0.155212
-0.0154295
-0.369396
-0.273926
0.106936
0.166997
-0.182332
0.0353719
0.146961
-0.00387048
0.00757957
-0.00370909
-0.00450637
0.00278618
-0.00956763
0.00223253
0.0073351
0.170024
-0.198409
0.0283854
-0.000128623
-0.01064
-0.00133357
0.00239939
-0.00106582
-0.00101521
-0.000107399
0.00112261
0.151759
0.0188839
-0.385713
0.193514
0.0808805
-0.224761
-0.0553264
0.0359956
0.0193308
-0.243437
0.0262114
0.0829537
-0.429929
0.0938904
-0.024748
0.0309475
-0.0801804
0.0492329
-0.018749
-0.366628
-0.0680291
0.0835169
-0.215949
-0.0411641
-0.0488135
0.0899776
-0.025314
-0.276244
0.301567
0.0104516
-0.135959
0.233283
-0.227178
0.000584197
-0.00624251
0.118589
-0.259334
0.140749
0.00129561
-0.00348495
0.00218933
-0.00434766
-0.00576734
0.010115
-0.042931
0.0362059
0.00672501
-0.159193
-0.226508
-0.189554
0.475987
-0.169827
0.194926
-0.152714
-0.0124241
0.165139
0.00259085
-0.00129523
-0.146194
-0.062381
0.208579
0.340997
0.071738
-0.41272
0.0299109
-0.390389
-0.0512613
-0.032883
0.0841443
-0.119627
0.0681201
0.0515069
-0.00956763
0.15497
-0.159801
0.0703364
-0.119058
0.0487212
-0.0336483
-0.242054
-0.415809
0.153863
0.261991
0.11982
-0.239796
0.11998
-0.00690422
0.00255655
-0.0422842
0.0799558
-0.0376716
-0.00274167
-0.00314867
0.00589034
0.132046
-0.0261465
-0.140725
0.145165
-0.148152
-0.125768
-0.0269366
-0.00483669
0.0317733
0.20453
-0.025923
-0.00120892
0.000193712
-0.286486
0.0638705
0.22262
-0.00969894
0.00450379
0.00519515
-0.0825476
0.0554524
0.0270951
-0.0812783
-0.0693084
0.126683
0.126418
-0.253093
-0.48899
0.444392
0.0447171
-0.16234
0.0201732
-0.0251439
0.106196
-0.0810523
-0.0173195
0.013449
0.104375
-0.126837
0.127469
-0.415343
0.287935
0.282117
-0.381259
0.0991852
0.0767008
-0.352506
0.275814
-0.115166
0.0613858
0.0649442
0.0191541
-0.0840982
-0.0473141
0.043688
0.00362617
-0.233812
0.21372
0.0200943
0.0127297
-0.00672562
-0.0060041
-0.0981218
0.0607818
-0.106179
0.0388789
-0.240626
0.012069
0.228565
-0.0565979
-0.040316
-0.157946
0.342634
-0.436968
0.159629
0.277349
-0.0574231
-0.0132878
0.0707108
-0.575507
0.313938
0.261681
0.308227
-0.243338
-0.1374
0.0788199
0.0585799
-0.266763
-0.0455255
0.312307
-0.00324576
0.0095768
-0.00633104
0.174034
0.0304976
-0.178261
0.129417
0.0488442
-0.296793
-0.278597
-0.136202
-0.0392057
-0.00345165
-0.0057043
0.00915594
-0.0607957
0.0914769
-0.413616
-0.124898
0.282786
-0.15789
0.0635742
-0.112994
0.0494199
0.00199009
-0.00396542
0.00197533
-0.34587
0.422572
0.400879
-0.462227
0.061354
0.0666415
-0.0356939
-0.157924
0.0873873
0.0705374
-0.103085
0.130245
-0.0271598
-0.0595865
0.0376642
0.0219223
-0.251393
-0.185564
0.0792606
-0.0386307
-0.163227
0.20186
-0.000850562
0.401741
-0.0221785
-0.037408
-0.096652
0.0529484
0.048013
-0.0927359
0.044723
0.115892
-0.0523182
-0.302087
-0.112809
-0.015926
0.0582046
-0.125206
-0.181556
-0.0870356
-0.208244
-0.0868498
0.0445657
0.33814
-0.110096
-0.228031
-0.0448295
-0.0669357
-0.0291001
0.239739
0.240355
-0.398648
0.120976
0.277734
-0.0808509
-0.0382065
0.00892323
-0.00256346
-0.00635977
-0.0001524
-0.00118116
0.254545
-0.0119803
-0.242558
-0.00212213
-0.136573
0.00677324
0.000158963
0.347983
-0.137962
-0.210004
-0.0679725
-0.0516544
0.174868
-0.189695
0.0148298
0.133915
-0.0397765
-0.0941377
-0.107012
0.0390398
-0.419854
0.117839
0.0431338
-0.0131696
0.181651
0.0972311
-0.278874
-0.0353591
0.114849
0.533428
-0.357793
-0.175577
0.0289615
0.00647628
0.000730736
-0.00720702
-0.390723
-0.0135839
0.404308
0.000957264
-0.0115935
-0.159482
0.182643
-0.0231612
-0.388487
0.238201
0.150289
0.0139357
-0.141056
0.025631
0.122937
0.0787325
-0.0451336
-0.0335989
-0.00188519
0.0157729
-0.0138877
-0.0737696
0.0385237
-0.0604138
-0.226067
0.256892
-0.197201
0.00142236
0.000171415
-0.00159378
-0.0789239
0.0472127
0.0317112
0.404278
-0.253114
-0.15115
0.171782
0.0280437
-0.199822
-0.0381512
0.0861642
0.067185
0.0373835
-0.0353987
0.00846207
0.00337317
-0.00195081
-0.251464
-0.0381597
0.289629
0.238716
-0.209348
-0.0293641
0.00356734
-0.00580468
0.00223734
0.30354
-0.193064
-0.204947
0.0587575
0.0976944
-0.0290041
-0.0686903
-0.15547
0.13968
0.0157907
0.254102
-0.0316752
-0.222423
0.00455838
0.00436485
0.266683
0.211276
-0.477955
0.083373
-0.0932405
0.00986764
0.0440133
-0.0851774
-0.00818623
0.00818623
-0.307139
0.398692
0.269777
-0.16532
-0.104453
-0.351481
0.289318
0.0621685
0.371323
-0.197589
-0.173714
-0.089119
0.0666636
0.0224555
0.218952
0.152387
-0.0993271
0.149189
-0.049861
-0.231646
-0.119827
0.0506042
0.13614
-0.186742
0.138232
-0.38969
0.0347033
-0.179495
-0.123661
0.268943
-0.145264
0.0149209
-0.216798
0.201885
0.307456
-0.266765
-0.040677
0.285851
0.021624
-0.0224115
-0.165827
0.18824
-0.0480017
0.011932
0.0360697
0.00133981
-0.00639813
0.00505832
0.078751
0.154542
-0.0457614
0.053783
-0.00802158
-0.133049
0.0446621
0.0883877
0.00736192
-0.00602211
-0.150102
-0.0275111
0.177614
0.135173
-0.078587
-0.0565862
-0.0957997
0.215623
-0.0412884
0.0706822
-0.0293939
-0.125366
-0.437283
0.0254539
-0.0151266
0.356135
0.382777
-0.153273
-0.229452
-0.00923832
0.00735313
-0.000639108
-0.183217
0.183859
0.459297
-0.0949413
-0.0160516
-0.116828
0.13288
-0.147518
0.0481914
0.127981
0.175569
0.182471
0.165525
-0.00093763
-0.000349693
0.00128732
-0.123541
-0.313999
-0.0265705
0.28381
-0.383076
0.0992871
-0.00440651
0.00166484
0.00638385
-0.00903659
0.00265275
0.0551821
0.0425124
-0.0192772
-0.137152
0.178553
0.00329218
-0.00674383
0.270886
0.28928
-0.238004
-0.104218
0.342239
-0.014909
-0.0204897
-0.366893
-0.0866895
0.453598
-0.329727
-0.0533906
-0.0035083
-0.00694326
0.300282
0.0997852
-0.00106695
0.00754323
0.139055
-0.12994
-0.00911419
-0.142138
0.142618
-0.000479315
-0.00308658
0.00947042
0.0181379
0.178411
-0.196548
-0.336
0.0980132
0.0102819
-0.0334057
0.0231238
0.125407
0.0111747
0.000918794
-0.0429715
-0.0405803
0.34707
-0.207308
-0.139757
-0.345225
-0.0966675
-0.26528
0.159153
-0.0366534
-0.031749
0.0684024
0.0525197
0.0611583
-0.113678
0.0143944
0.23617
-0.443999
0.3885
0.0555109
-0.224603
-0.0188282
0.0182473
0.0651257
-0.00376221
0.00732955
0.20393
-0.149595
-0.054334
-0.139786
-0.125491
-0.285562
0.398156
-0.112592
-0.176917
0.0268163
0.113328
-0.0767181
-0.0366095
-0.00252124
0.00451133
-0.00713895
-0.00255999
-0.0501133
0.0526928
-0.00257949
0.0595471
-0.0757336
0.0161866
0.0667833
0.0172484
-0.0840316
0.00263269
-0.00486811
-0.19478
-0.0640657
0.258856
-0.404489
0.277241
0.127291
-0.26985
-0.194513
0.273278
-0.0841346
0.0555145
0.0286202
0.369386
-0.217767
-0.151611
0.181299
-0.00888482
0.00169209
-0.0351051
0.0533525
0.143137
0.0144033
-0.00853661
0.0698392
-0.0102921
-0.00470076
0.00192974
-0.212331
-0.0715893
0.283932
0.162209
0.125311
0.185013
-0.310315
0.108005
-0.448519
0.0116144
-0.455607
-0.475123
-0.40685
0.155468
0.00123981
0.00805752
-0.00929733
0.0541142
0.200438
0.396665
-0.283548
-0.113054
-0.0467168
0.0898155
0.121867
-0.0843973
-0.0374699
-0.320374
-0.0840784
0.15668
-0.237086
0.0804121
-0.0972271
0.0210288
0.0761984
0.00844043
-0.0658635
0.021634
-0.180631
0.0548352
0.216535
-0.271352
0.035761
-0.195849
0.0135179
-0.0116741
0.01275
-0.00107588
-0.0346096
-0.401176
0.203606
-0.000174708
0.0065177
-0.00634299
0.0686663
0.053201
0.10455
0.268322
-0.372825
0.00195289
-0.00261583
0.000662939
-0.00756277
-0.00123748
0.00880024
-0.000477546
0.00150876
-0.00103121
-0.194004
-0.207153
0.266546
-0.211692
0.0028546
-0.155567
-0.10565
0.113571
-0.00792111
-0.134191
-0.0823671
0.216559
0.00238368
0.010346
-0.073409
0.0367556
0.0177181
-0.0634795
-0.0291512
0.0867409
-0.0575897
0.135301
0.247528
0.0136888
0.125367
-0.00754775
0.000177197
0.00737056
-0.00119659
0.00991007
-0.0273357
0.0174256
0.21319
-0.276428
0.0632408
0.126308
0.035686
-0.161993
0.0344411
-0.15635
-0.00409194
0.0039526
0.000139348
0.00571474
0.00450692
-0.0938789
0.0302807
-0.126388
0.244981
0.0227122
-0.241951
0.376464
-0.0850887
-0.291373
-0.0486252
0.101145
-0.226347
-0.180491
-0.0361089
0.0463908
-0.105709
0.140151
-0.0109436
0.017433
-0.294132
0.229387
0.0647486
-0.274336
0.0497404
-0.426327
-0.0625513
-0.118578
-0.00126034
-0.0224915
-0.119253
0.141745
0.0711209
0.0422067
-0.270918
0.381018
-0.110081
0.126373
-0.0699774
-0.0563956
0.0119953
0.0362499
-0.0482452
-0.15861
0.17692
-0.0183081
0.302748
-0.176056
0.210791
-0.127677
-0.0831132
0.183134
-0.168211
-0.0149209
0.487283
-0.249727
-0.237548
0.131814
-0.164931
0.0331178
-0.0037101
-0.173441
0.0148319
-0.0421266
-0.0469712
0.0890979
-0.0331607
-0.296076
0.400679
-0.199305
-0.500374
0.109652
-0.147476
0.0112755
0.188952
0.0651541
-0.117814
0.0873593
-0.299677
0.133689
0.124169
0.00223521
0.268771
0.140755
-0.409457
0.0181842
0.0797759
-0.0979602
0.186876
-0.195484
0.0086087
-0.0557629
-0.0428668
0.0986297
-0.171088
-0.0071729
-0.0131075
0.00386918
-0.262705
0.086418
0.176293
0.00862692
-0.00862692
0.133134
0.0267415
-0.159875
-0.0918735
0.15274
-0.0670405
-0.0155071
0.00380134
-0.0354676
-0.0256252
0.0610929
0.14096
0.035962
0.19313
-0.193765
-0.395126
0.201141
0.213515
0.109135
-0.322638
-0.13547
0.0752903
0.0601794
0.152389
-0.127635
-0.0247531
-0.0431243
0.131981
-0.0888559
-0.106271
0.0697993
0.0364721
0.00780863
-0.0437915
0.102256
-0.0584642
-0.356435
0.506108
-0.149561
0.000367518
-0.00263966
0.00227214
-0.00506028
0.0431668
-0.0381065
0.144828
-0.229324
0.0845022
0.23907
-0.0255506
-0.0589981
0.0771823
0.00683637
-0.00261351
-0.134902
-0.0274369
-0.277127
-0.137031
0.414174
-0.0811001
0.0245413
0.0565588
-0.0958063
0.0536797
-0.143214
0.0638273
0.103009
0.0105322
-0.113541
-0.0380797
-0.00948637
0.0475661
-0.165491
-0.0519359
0.0643936
0.0355734
-0.0999669
-0.00181982
0.0014508
0.000369025
-0.0673305
-0.0396817
-0.0422819
0.0987418
-0.0577212
-0.0410205
0.0312591
-0.0825204
0.148519
-0.185921
0.0374036
-0.402281
-0.0588496
-0.101956
-0.31869
0.101464
-0.0023502
-0.022397
0.0194442
0.0150602
-0.0345044
0.00353372
-0.00510469
-0.0105049
-0.0374968
-0.00487652
0.00648886
-0.00161233
0.00568192
-0.00610715
0.000425235
-0.07041
-0.01069
-0.0335722
0.181954
-0.00030344
-0.00236259
0.00266603
0.00743645
0.0286144
-0.0360509
0.209838
0.0239195
-0.0477036
0.0237842
0.000216063
0.00810898
-0.00832504
0.0514255
0.0112471
-0.0626726
0.0815592
0.122371
-0.106965
0.402512
-0.295487
-0.194455
0.0289675
-0.213082
0.185216
0.0278691
0.156959
0.0261761
-0.0632464
-0.0610617
0.124308
0.0760902
0.262062
0.00739546
-0.00739546
-0.189553
0.167143
0.143943
0.0158227
-0.159764
-0.000977695
-0.00311425
-0.219748
-0.0951619
0.314925
-0.146743
0.124252
0.0330932
-0.0231832
-0.241158
-0.0948233
0.0278574
0.182729
-0.210582
0.000459549
-0.000182146
-0.000277402
-0.113337
0.416493
-0.303058
0.0453303
0.081043
-0.151026
-0.00879587
0.00423174
0.00456413
0.187001
-0.0460394
0.131515
-0.142644
0.01113
0.0907909
-0.193825
0.0468472
0.14698
0.0106705
-0.116321
-0.109014
0.00418392
0.10483
0.0152835
-0.000170896
0.115409
-0.123363
0.00795371
0.15052
-0.27279
0.122285
0.00867393
-0.00870967
3.57384e-05
0.148352
-0.0168366
0.00505403
0.0122772
-0.00477161
-0.00750564
0.0419566
-0.0886734
0.041828
-0.082659
-0.185424
0.136744
0.232612
-0.369306
-0.00862699
0.00106422
0.103166
0.107625
-0.027256
0.159071
0.442827
-0.30582
-0.136984
-0.053213
-1.38303e-05
-0.0500994
-0.0139831
-0.0121247
0.0261078
0.00171279
0.00120795
0.00741897
-0.0331174
-0.0510172
0.133902
-0.185676
0.0517771
-0.382069
0.275162
0.165725
-0.129203
0.113152
0.108853
-0.0439086
0.328988
-0.20284
-0.126127
0.0345463
-0.0700139
0.135514
0.0345112
-0.0370698
-0.455186
0.443325
0.0120117
0.000743974
0.00165322
0.182138
-0.237746
-0.329311
-0.12539
0.0116188
0.113771
0.168888
-0.474692
-0.104253
0.372619
-0.00545985
-0.000148479
0.00560833
0.0358515
-0.225735
0.178534
0.0472028
-0.254848
0.363994
-0.047061
0.111633
-0.0645719
-0.0342993
-0.119884
-0.0224062
0.182386
-0.021651
-0.0572729
-0.215028
0.229957
0.00239124
-0.00993899
-0.128517
0.0179717
0.110545
0.101012
0.155495
-0.256503
0.0306442
-0.0164517
-0.0141925
0.000472681
0.000297277
0.257283
-0.40226
0.14501
-0.0301454
0.0161622
0.238135
0.279887
-0.331813
0.0906736
-0.243859
0.109668
-0.0843444
-0.014891
0.0992354
-0.00052821
-0.00166029
0.0021885
-0.035303
-0.124178
-0.00112281
-0.00069701
0.0311043
0.109683
-0.140787
0.00856979
-0.0237998
0.01523
-0.0741729
0.0450217
-0.163258
-0.0226608
-0.00509738
0.108104
0.161678
0.0139327
-0.0283023
0.0143697
-0.0726379
0.00942829
-0.010101
0.00238473
0.000482739
0.0739462
0.172271
-0.246212
-0.014187
0.0265147
-0.0123277
0.166574
-0.192963
0.0263905
0.00305258
0.130082
-0.0235396
0.0537562
-0.0302166
0.0193327
-0.0604229
0.0410902
-0.00277858
0.00607076
-0.392102
0.289029
0.103117
-0.00538129
-0.00772621
-0.146393
0.320057
-0.173658
-0.00837225
0.0236557
0.0396193
0.167014
-0.206624
-0.211807
0.106099
-0.172173
0.00396354
-0.344634
0.191337
0.153329
0.198141
-0.499579
0.301586
-0.0242184
-0.110792
0.135011
0.066484
-0.0192202
0.0706458
-0.442094
0.0969195
0.00755287
-0.00794784
0.000394969
-0.185266
0.0220103
-0.242128
-0.102475
0.10843
0.268038
0.062733
0.0747333
-0.137466
0.0590807
0.0529918
-0.112072
0.0218124
-0.045352
0.111729
-0.147031
-0.158012
0.367091
0.137409
-0.170854
0.0334467
-0.0033792
0.0102063
-0.130247
-0.328355
0.218271
0.338387
-0.147026
-0.0356237
0.173034
-0.0165246
-0.147899
0.164426
0.000775365
0.00662009
-0.317371
0.0976378
-0.0508816
0.0724952
-0.0216136
0.048214
0.0617988
0.045347
-0.0504073
-0.000425974
-5.15706e-05
-0.0034679
-0.00494767
-0.111398
-0.28609
0.397557
0.0290868
-0.153331
0.124245
0.121397
0.235263
-0.199286
-0.0359709
-0.195191
0.172217
0.0229755
0.00864948
-0.00843341
-0.316811
-0.0652082
0.382088
-0.163487
-0.231621
-0.499278
0.214795
0.284627
0.0357451
0.1099
0.0539353
-0.163834
0.251171
-0.100642
0.101353
0.0405772
-0.141929
0.0274416
-0.162343
-0.004293
0.0108551
-0.00656207
-0.00220878
-0.00759438
0.365612
-0.229309
-0.136279
0.172326
0.128623
-0.300945
0.00400403
-0.158319
0.000922028
-0.00143959
0.000517561
4.89627e-05
-0.00304248
0.00128371
0.000443494
-0.0017272
-0.0605973
0.0384188
-0.041643
-0.0181105
0.0597535
0.0833818
-0.0476112
-0.0357706
0.0148299
-0.418229
0.0515959
-0.115491
0.275233
-0.0935746
0.168658
0.0492604
-0.217916
0.143982
0.260309
-0.0570754
0.021469
0.0289408
-0.0504098
-0.0027074
-0.00781336
-0.242799
0.0021798
-0.0177034
-0.0355781
0.0532815
0.0988218
0.318526
-0.417262
-0.0695748
0.203479
-0.121135
-0.0263826
0.299614
-0.378003
-0.0270038
-0.140374
0.168234
0.00652553
0.0142551
-0.00815912
0.00501045
0.0925694
-0.142632
0.0500627
0.00199786
-0.00477644
0.0848485
-0.0180651
0.00180187
0.00509857
-0.0604639
0.0796181
0.0525077
-0.0165121
-0.00010708
-0.00205921
0.00216629
-0.122615
-0.00590108
0.0543406
-0.0423452
-0.0989256
0.0551342
0.00599082
0.00628642
0.222032
-0.301964
0.0799464
0.115429
0.334254
-0.448924
0.114716
-0.0220585
0.0653239
-0.0331163
-0.0322076
0.365113
-0.476646
0.0929745
0.383668
0.0989392
-0.00517179
-0.0937672
-0.234908
0.398724
-0.163743
-0.0868217
0.0820404
0.0151445
-0.132769
-0.533979
0.310572
0.223428
-0.0785412
0.0566466
0.0218946
0.192382
-0.282245
0.0898786
0.263405
-0.107631
0.0605705
-0.270097
-0.0991096
0.369255
-0.046884
0.0875561
-0.040672
-0.0127939
0.0322381
0.282902
-0.107709
-0.175188
-0.243771
0.171658
0.0721173
-0.350608
0.108512
-0.100793
0.0678659
0.032927
-0.272232
0.399765
0.0605774
0.150687
-0.211262
0.0332997
0.0538803
-0.0871799
-0.134577
-0.159131
0.293708
-0.000972242
-0.000372309
0.00134455
-0.203563
-0.0624073
0.26598
0.00233172
0.00104146
0.237296
-0.0192596
-0.218033
0.0798039
-0.12651
0.0467066
-0.238766
0.329126
-0.0903433
0.00370758
-0.113875
0.110168
-0.150079
0.028945
-0.350015
-0.0682143
0.171015
0.111891
-0.00323885
0.00226661
0.236481
-0.261787
-0.00602643
-0.00464702
0.0106734
-0.00751311
0.0102849
-0.00277175
-0.16928
-0.0645297
0.296227
0.237251
0.303116
0.0804419
0.387747
-0.0606065
-0.327096
-0.000273518
-0.00518634
0.101602
-0.356439
0.00527107
-0.00293934
0.00766067
0.00286009
-0.0146596
0.102047
0.0017573
-0.00156764
-0.00018965
-0.398596
-0.131006
0.228563
0.0820331
-0.310582
0.000215119
0.000141886
-0.000248966
0.0655915
-0.174606
0.130454
0.225552
-0.355989
-0.147827
0.273146
-0.27602
0.0717175
-0.242126
0.170413
0.0757775
-0.100444
0.024667
-0.00623432
-0.0175619
0.0237962
0.167845
-0.165484
-0.00235945
-0.00929042
0.00991578
-0.00236292
0.043142
-0.0843094
0.0411675
0.122087
-0.0417031
-0.0803833
-0.27974
0.248318
0.0314327
-0.00775001
-0.000172208
0.00792222
0.00281281
-0.0397995
0.141153
-0.325253
0.0865029
-0.275829
0.107482
0.16835
0.0015376
0.00299007
-0.00452767
0.143047
-0.00343147
-0.0053644
-0.0336044
-0.525381
0.341037
0.184354
-0.0604267
0.12316
0.187972
0.177384
-0.365245
-0.0528466
0.164577
-0.218427
0.122429
0.0960002
-0.400891
0.166074
-0.104069
-0.282926
0.387066
0.256106
-0.184384
0.00810483
-0.00711353
-0.000991299
-0.091513
-0.306883
0.398411
0.0124046
-0.00263054
0.00360255
-0.0947068
-0.18112
0.0576343
-0.324377
-0.0724283
-0.0208121
-0.00936564
0.00456343
0.00480221
0.14755
-0.172321
0.0247723
-0.000713535
0.00110737
-0.000393832
-0.235883
0.110516
0.0791489
0.125195
-0.154004
-0.00102193
0.000718486
0.0201452
0.0104989
0.0103122
-0.00466768
-0.00564448
-0.445253
0.0468014
-0.0155687
-0.190155
0.287394
-0.00229892
0.00158539
-0.352925
0.127928
0.225027
-0.0473065
-0.0312347
0.093026
0.00558069
-0.00585421
-0.102524
-0.291965
0.394513
0.137265
0.311786
-0.448965
-0.0591184
0.0174755
-0.326534
0.0594293
0.267113
0.00839541
-0.00029058
0.0678816
-0.262649
0.0104151
-0.0246021
-0.175281
-0.109292
-0.271924
-0.0273996
0.13508
-0.0847476
0.0338661
-0.0088525
0.00320373
0.00564877
0.151802
-0.164225
0.166437
0.0775411
-0.243971
-0.169403
0.187543
-0.0803946
0.218403
0.110606
-0.0590468
-0.417602
-0.112768
0.0736184
0.0391499
0.280325
-0.129503
-0.150819
0.0132978
0.0138155
-0.0271133
0.00739419
-0.162226
0.154834
-0.00049115
0.00141318
0.216735
0.0766203
-0.293344
-0.292501
0.39521
-0.102676
-0.0399491
0.0863504
-0.0464013
-0.00104853
0.000385475
0.000663058
0.0158324
-0.0336908
0.0178585
-0.19531
-0.0175272
0.212842
0.0160523
-0.00189442
-0.0613284
0.278074
0.0126054
-0.00534084
-0.00726454
0.139781
0.0702501
0.0204922
-0.0907422
-0.172776
0.327267
-0.00224973
0.00182375
0.0884243
0.232367
-0.320776
-0.114674
-0.103752
-0.217393
-0.171092
0.332559
-0.237229
-0.0953184
0.278133
0.209157
0.00789231
-0.0188359
0.0456699
0.0365248
-0.0821947
-0.00776479
-0.00684607
0.0146109
0.0652525
0.0568341
-0.194265
0.170439
0.0238272
0.148523
-0.177786
-0.469608
0.148586
0.321062
-0.410009
0.10294
-0.424401
0.311158
-0.167916
0.0393204
-0.0862044
0.251319
-0.211688
0.01151
-0.00692335
-0.00458662
-0.0578581
-0.0577688
0.115627
0.348145
-0.217673
0.155296
0.0315801
0.00623916
0.00636622
-0.0786559
-0.0568135
-0.0579533
0.167855
0.147969
0.0426006
0.110615
-0.123645
0.0130303
-0.00196106
-0.00691969
0.00888075
0.0947347
-0.118952
0.023244
-0.0158076
-0.0185313
-0.12869
0.117193
-0.119312
0.00211903
-0.0371529
-0.0234444
0.148206
0.223166
0.0994273
-0.322578
-0.110805
0.0475587
-0.0851802
-0.0233837
0.298666
-0.0662596
0.0249713
0.0412292
0.0876429
-0.128872
0.00611367
-0.00714808
0.00103441
0.146195
0.134135
-0.0230073
-0.102298
0.0179539
-0.120468
0.017239
0.103229
0.167405
-0.041096
0.388194
-0.201309
-0.186884
0.0467918
-0.249908
0.210721
0.0391943
0.00476643
0.00674355
0.22193
-0.222797
0.000866529
0.170802
-0.000917935
0.000810537
-0.029366
0.170005
-0.19441
0.0244076
0.028131
0.216526
-0.308213
0.0917016
-0.00196356
-0.0453506
0.00229808
-0.00326305
0.000964973
0.0877607
0.058913
-0.0820395
0.0231266
-0.000855177
0.00315326
0.170201
0.0259595
-0.196158
-0.0941895
-0.211127
-0.0387729
0.0300121
0.153217
-0.183226
-0.157061
0.212171
-0.0551057
-0.0180167
-0.0755017
0.0465
0.0290018
-0.0770359
-0.165085
-0.0210977
-0.140341
0.16144
0.0171059
-0.323542
-0.136741
0.460425
0.000753373
-0.00858275
0.18765
0.0496498
-0.146156
0.206736
0.0429823
0.0489768
-0.0919591
0.00545337
-0.00562808
-0.10871
0.427443
-0.318634
0.341464
-0.217179
0.0601214
0.0831187
0.257039
-0.340127
0.477426
-0.16891
-0.308453
0.014112
-0.0334636
0.0193516
-0.239666
0.506355
-0.187148
0.0173238
-0.286318
-0.112266
-0.0654738
0.0718337
-0.00635985
-0.392358
0.0963353
-0.000566751
-0.0423642
-0.0306537
0.0244194
-0.155406
-0.0883588
0.00228131
-0.000938839
-0.00134247
-0.327752
-0.114294
-0.179766
-0.0231184
0.202888
-0.0618401
-0.211477
0.273328
-0.000983299
0.00371086
-0.00272756
-0.0760364
-0.399553
0.400813
-0.00117518
0.120888
0.22826
-0.349133
-0.239586
0.192687
0.0469065
-0.0828046
-0.229185
0.312004
-0.085766
-0.0516335
-0.000762574
0.000234365
0.00256413
0.00745904
-0.00273894
0.00449623
0.0706143
0.279451
-0.35005
0.0444722
-0.213874
-0.107376
0.111084
0.208447
0.00474494
-0.268197
-0.0846999
-0.0386662
0.0485491
-0.00232921
-0.00329894
0.00562816
-0.133875
0.141271
-0.076101
-0.135016
-0.00130284
-0.00644718
-0.325866
-0.208093
-0.30481
0.375436
-0.0159573
0.00819254
1.76029e-05
-0.0370384
0.0279819
0.00732547
-0.28705
0.00461159
-0.00567855
-0.073135
-0.138718
0.211854
-0.126793
0.0428146
0.0839784
-0.37886
0.287363
0.157782
-0.175566
0.0177855
-0.287004
0.148255
0.138748
0.0891432
0.0460303
0.11944
-0.0491896
0.112638
0.0357148
0.349564
0.0750856
-0.424622
-0.00618178
0.00778172
-0.00159993
-0.0816928
-0.125232
-0.411859
0.0123863
-0.426817
0.426912
0.0215056
0.200425
-0.218987
-0.107536
0.0745549
-0.278109
-0.0441973
0.0107916
0.019661
-0.214966
0.0255487
-0.260537
0.0659352
0.194609
-0.0211549
-0.00172546
0.000676924
0.176216
-0.387634
0.211507
0.00215461
0.0541742
-0.0563288
-0.021625
-0.135871
0.157497
0.38464
-0.20834
0.095802
-0.187675
-0.118639
-0.00181496
0.120455
-0.402213
0.136965
0.265259
0.385088
-0.221337
-0.163734
-0.0914824
0.388461
-0.296957
-0.134413
-0.159715
-0.0956648
0.121433
-0.0257674
0.427886
-0.144793
-0.283036
0.0944386
-0.23944
0.145004
-0.12318
0.121058
-0.0687729
0.418364
-0.115638
0.00301813
-0.00904456
-0.0102941
0.0188639
0.0360753
-0.0232541
0.0373661
-0.0273591
-0.0909066
-0.0295612
0.0154364
-0.0363838
0.0209474
-0.0225332
0.0591727
-0.0366394
-0.00749959
0.409842
-0.402196
-0.189813
0.239076
0.162945
-0.399188
0.2363
0.0124556
0.0282302
-0.0406859
-0.0222832
0.0573206
-0.0350374
-0.136805
0.106627
0.0301778
0.16943
-0.362935
0.0704776
-0.270428
0.208599
-0.100352
-0.304971
0.405351
0.15739
0.081329
-0.0467084
0.0322015
-0.00908659
-0.00823287
-0.00761059
-0.001426
0.0132436
0.0832901
-0.0965334
0.373858
-0.3524
-0.387434
0.516178
-0.128717
-0.091522
-0.288886
0.380425
-0.00791307
-0.0547118
0.0880115
-0.310632
0.203331
0.107318
-0.00598011
0.0043884
0.00159171
0.281811
-0.141147
-0.0237828
0.254713
-0.146167
0.106419
-0.130418
0.0239991
0.0209084
-0.162055
0.0931439
-0.0501616
-0.149589
0.127966
0.0431212
-0.413485
0.0901052
-0.403025
0.282607
0.120503
0.0956897
-0.0365442
0.0972686
-0.368166
0.325191
0.162125
-0.1228
0.0271361
0.0486112
-0.107976
0.0593649
0.289378
-0.38084
0.0183906
-0.0796283
0.0612378
0.272412
-0.373633
0.101242
0.204554
-0.226083
-0.380735
0.088617
0.292158
-0.24608
0.199987
0.0474807
-0.0269719
-0.0205088
0.11922
0.0307512
-0.14997
-0.194742
0.0289177
-0.178311
0.105177
0.00105125
-0.0405036
0.0101966
0.0303069
-0.397881
0.193014
0.204869
-0.103453
-0.0233394
0.138447
0.00740168
-0.00128801
0.0222834
0.0477709
-0.0700543
1.21926e-05
0.000573841
-0.000586032
-0.0603587
-0.126834
-0.106276
0.116946
0.11026
-0.0511796
0.038848
0.070005
0.00590382
-0.00791434
0.00201052
-0.28765
0.408693
-0.117559
-0.265497
-0.118129
-0.210214
0.0329129
0.003293
-0.0842977
2.30702e-05
-0.00902564
0.00900257
-0.173389
-0.0933619
-0.163551
0.237503
-0.000654181
-0.000263754
0.0204938
0.0819712
-0.102465
0.204149
-0.0256132
0.057845
-0.0440626
0.37182
-0.114508
0.138
-0.149468
0.0377388
0.0473158
-0.0850547
-0.0346992
0.0729941
-0.0382949
-0.22669
-0.105104
-0.0413121
-0.0470069
0.088319
-0.108735