/*--------------------------------*- C++ -*----------------------------------*\
| =========                 |                                                 |
| \\      /  F ield         | OpenFOAM: The Open Source CFD Toolbox           |
|  \\    /   O peration     | Version:  v2012                                 |
|   \\  /    A nd           | Website:  www.openfoam.com                      |
|    \\/     M anipulation  |                                                 |
\*---------------------------------------------------------------------------*/
FoamFile
{
    version     2.0;
    format      ascii;
    class       volScalarField;
    location    "50";
    object      ddt0(omega);
}
// * * * * * * * * * * * * * * * * * * * * * * * * * * * * * * * * * * * * * //

dimensions      [0 0 -2 0 0 0 0];


internalField   nonuniform List<scalar> 
18758
(
0.000584575
0.0843043
-7.56468e-05
0.000525599
2.95674e-05
-5.24927e-05
3.31958e-06
4.58737e-05
-2.1896e-05
-1.40582e-05
0.0408161
-0.148306
-0.00377182
-1.14277e-05
3.27353e-06
1.57508e-06
-0.0947429
8.13052e-05
3.29509e-06
0.000130695
0.0163537
-0.679582
-6.36988e-05
9.41531e-05
-2.26302
-0.112582
-0.381649
-0.00660397
-0.00176064
0.136014
-0.223701
0.0194054
4.21944e-05
-0.162149
7.3273e-05
0.135334
-0.00549747
5.44074e-05
-0.373133
8.94423e-05
0.0264983
-0.000163547
0.0239684
-0.000198404
3.67584e-06
-0.255689
-0.000121724
-0.00303769
0.104687
0.000465901
0.0432985
-0.191468
0.000413466
-0.00015489
0.00666847
-0.00335967
-3.26742e-05
0.000111452
-0.00313839
-3.2502e-05
6.05864e-06
3.14105e-05
0.00962257
2.87065
6.89906e-06
0.125844
6.47987e-06
-2.94317e-05
-0.00686578
-6.26076e-05
-0.134874
-0.0144995
5.14123e-07
0.000436526
-0.00231287
-0.291087
0.60214
0.0212378
-4.77296e-05
0.0190557
0.00213626
-0.390779
0.122029
0.000418251
-0.000350867
0.00586123
-0.000116663
0.000516736
0.034286
0.00623653
0.15565
1.13108e-05
0.000565063
0.343701
3.47583e-07
-7.91174e-07
-0.000160292
-0.00191591
-0.0160883
3.02987e-06
-0.390104
0.000603004
0.000151735
-1.51344e-06
0.120841
0.0207909
-0.0023871
0.123339
0.500927
-0.132119
1.88497e-06
1.66756
-4.68496e-05
-9.81464e-05
0.000595958
0.0132357
-0.00182409
-0.000356552
2.13988
-0.00036987
-0.0002087
0.611514
-0.000345851
9.36808e-05
-0.922528
-0.000148205
-0.000191805
0.000107157
0.00664579
-0.77977
-0.00299438
1.74674e-05
-9.62076e-05
0.477199
0.000117132
1.27291e-05
1.37258
-0.000366427
0.00194372
0.00163776
0.000222996
0.0177041
-0.00116767
0.545615
-1.05354
-0.00026127
0.0970509
0.00316664
0.0497276
-0.203635
-0.94508
-0.393436
-3.66209e-07
8.16526e-06
0.02663
-1.09937
0.000483271
0.00784909
0.000365296
0.0729658
0.538267
0.000208634
1.04398
0.07997
-0.398718
-0.000122634
0.000188177
0.476399
-0.861947
-0.243169
0.0348413
-6.34394e-05
-0.00138587
-0.000140665
0.187374
2.55348e-06
9.66141e-07
-1.48834
-0.28052
-2.96381e-06
0.000101282
-8.73553e-05
0.00675695
-1.37184e-05
-0.529104
7.92438e-07
0.133845
0.000453122
0.607335
-1.22205
-0.285359
1.04347e-06
-0.00431552
0.328349
5.98758e-05
-1.08226e-05
0.0108501
-2.72016e-07
0.657655
-1.09743e-05
0.000352911
0.0123334
-0.034382
1.42864e-06
2.12691e-06
1.00487
1.08037e-05
-5.14269e-06
-0.884581
-0.521111
5.17014e-05
0.000273054
0.000365637
-4.91387e-05
6.45423e-05
-0.000113968
3.48054e-06
0.000245226
-9.15738e-05
0.0949803
0.299461
0.000134464
-0.00114182
0.00858387
-0.0104105
-0.000122244
-0.00380743
0.00642879
0.566507
9.02962e-06
-0.0988633
-0.000402365
-0.045825
2.05043e-05
1.89653e-06
0.000120594
-0.00328062
-0.189568
0.0358839
1.64919e-05
2.14569e-06
-0.00278033
-0.0023413
5.93488e-05
-0.338336
1.39097
1.60585e-06
1.69458e-05
-7.50665e-05
4.43067e-06
0.0938017
-0.000312428
0.00022002
0.000182566
-2.04329e-05
1.173
-0.000106708
-0.00525092
2.80702e-06
0.565152
-7.06197e-05
0.000102212
1.58131e-06
-0.00406487
-0.0337243
-0.048894
0.000126986
0.00174627
-1.52945e-07
5.1774e-06
1.12612
0.0213984
1.61396e-07
5.25627e-06
0.000138118
5.2133e-05
-0.000155964
-8.25465e-05
-5.43273e-05
-1.02764e-05
1.82124e-06
2.08827e-05
2.47395e-06
0.00808796
3.3818e-06
2.58551e-06
-8.37192e-05
-0.00263417
-1.33466e-06
-1.18016e-06
4.6029e-05
-4.38825e-06
-3.15663e-05
8.43836e-05
3.1957e-05
0.00010029
-4.6406e-05
1.84738e-05
0.000104981
-0.744068
-7.88215e-05
-4.45183e-05
-8.81693e-05
-0.912689
0.00627395
9.97738e-05
0.000859383
0.0273194
0.0003227
0.00111196
2.45757e-06
-0.0363915
0.00963332
-0.00570827
-0.00182068
-0.22047
0.00018478
-1.2216
0.0232437
1.17528e-05
-0.00552232
0.000562819
-0.12517
2.82104e-06
0.000168811
-0.608611
-0.000180028
7.49505e-06
-0.694702
-0.00170665
-6.33029e-06
0.633095
2.66469e-06
-7.48608e-05
2.72735e-06
-7.55476e-05
-2.06518e-05
-0.000284803
4.08402e-05
1.08701e-05
-1.81121e-05
1.37761e-05
1.12492
-0.673357
-0.000396283
-1.26785
-0.203526
6.33732e-06
-0.000630954
0.00640923
-0.851546
-0.00105824
0.00485672
7.90407e-07
-0.492333
-0.0658846
7.96353e-05
1.3455e-05
-5.78831e-05
-3.15326e-05
-0.000185541
0.0296495
0.741286
-0.0310054
-0.00796454
0.718388
1.80045e-06
-0.000180153
-6.1591e-05
-0.00220635
-0.0240152
0.0294434
-0.569932
-0.00743046
0.0377912
0.00401859
-6.58813e-06
0.017072
0.0040393
0.0163483
-0.0828262
7.48429e-06
8.18352e-05
-0.617844
-0.0244032
0.0957926
1.67673
-0.804373
1.73463e-05
-0.201212
-0.126178
1.68253e-06
-3.59903e-06
2.71792e-05
0.00024742
-0.000253222
-2.66895e-05
-1.92482e-08
2.89412e-05
-1.74533e-06
-0.000131328
0.000140588
-0.372453
-0.000273046
-0.441658
-0.497949
-1.75848
-0.31715
0.00196975
4.39483e-05
1.01263e-05
0.0295162
-1.53775e-06
1.99515e-05
0.810747
-0.00217499
0.033508
-6.46726e-05
1.14867
3.38628e-06
-8.4007e-05
-5.11143e-06
0.878357
-0.047799
-0.00108076
2.82041e-05
0.568317
0.000722903
3.04928e-06
0.000178054
5.03503e-05
-0.322329
6.99714e-06
8.90047e-05
-0.636744
-0.000282673
2.0642e-05
5.91781e-07
5.7293e-05
0.000102709
0.242536
0.518472
-2.24658e-05
0.115333
-5.8858e-06
-0.000361748
0.00599705
1.05743e-06
-0.223597
-2.09278e-05
0.000130756
-3.69236e-05
0.0102732
0.000283505
-6.38327e-08
-0.371123
0.00803987
-0.000109044
-0.000182345
0.000142998
1.54079e-06
1.68612e-06
4.50987e-06
-0.0260412
0.020974
-8.61138e-08
-0.00107217
0.844552
-0.979393
0.0298711
0.95064
0.0327109
-0.000332412
0.00078774
-0.00221175
0.00044187
4.61702e-05
0.0927423
0.00353489
-2.25344e-05
-3.28587e-05
3.43563e-06
3.66694e-06
1.06839e-06
6.36224e-06
1.29019e-06
-0.0144501
1.64844e-05
-2.34741e-05
0.000845869
1.811e-05
5.29212e-06
7.61964e-05
0.000126075
-0.000525026
0.0416645
1.09997e-05
0.0344634
2.87636e-05
-0.000303123
0.00819685
-0.027609
-0.00546203
2.66185e-06
6.11619e-07
0.000548259
0.65177
0.00073842
-4.51663e-05
0.997715
0.0269813
-6.43107e-05
4.5329e-05
0.397049
7.97093e-05
0.00189602
0.000980393
0.000242323
-0.00106742
5.86335e-06
2.67456e-07
5.76308e-06
-2.85385e-05
5.13603e-06
4.74046e-06
-0.0955058
-0.000189588
0.316841
0.856472
-4.39086e-05
-0.000141144
-1.08667e-05
-0.000190002
0.000249934
0.624609
1.61993e-06
-2.1553
4.82631e-05
0.000524332
0.000271514
-0.000215936
-0.000114714
9.15817e-08
9.32636e-08
0.107231
-0.626507
1.23135e-05
3.90798e-06
-3.39281e-06
0.49239
1.03346e-05
-5.64289e-05
1.39985e-06
-2.68104e-05
1.79808e-05
0.000324407
1.17466e-05
1.41122e-06
-0.00353201
1.04587e-06
0.000106879
-0.00458141
-0.0150376
-0.000194234
-0.000232523
7.47884e-06
-4.13277e-06
1.73972e-06
-0.000369647
0.293363
0.0196469
-3.79776e-06
-0.255356
6.96545e-06
-0.000668317
-0.000163596
-3.55248e-05
-0.000397938
-0.000116048
-1.61756e-05
-0.483388
-9.03592e-05
-1.30135e-05
-0.00724393
-0.000108822
2.13549e-06
0.888017
-0.000351621
0.0158342
0.00238285
-4.5951e-05
-2.01894e-05
0.000709964
9.15724e-05
0.000189577
1.80176e-06
0.184401
-0.245915
0.0222842
6.51937e-07
-0.586048
5.3325e-05
7.94228e-05
-1.54452e-06
2.22149e-05
-0.973614
-0.00641652
-7.28582e-05
-1.16078e-05
-0.000380602
0.985708
0.667819
1.05924e-06
0.000632813
-8.32019e-05
-0.282058
-0.000113631
0.00064656
3.33185e-06
-4.20936e-05
-0.00250693
-5.75133e-05
3.72955e-06
2.44605e-05
1.32727e-05
-8.31624e-05
0.115609
0.000238152
-0.601138
0.000234174
0.000143304
-1.3153e-06
2.3584e-05
0.343206
-0.932875
9.00928e-05
-0.00136079
-0.465403
0.0768269
5.63633e-05
-3.71874e-05
0.000234771
-0.0273156
4.15294e-05
0.00509924
6.23852e-06
2.55152e-05
-0.000449789
3.31074e-06
-2.6139e-07
0.000184557
-4.17785e-06
0.000301546
0.211163
-0.000628171
0.10209
-5.61311e-05
1.89379e-05
0.406669
-2.69555e-05
2.27721
-0.0397171
8.04283e-06
1.1198
0.000195474
-0.000257583
1.23469
-0.000159938
-0.000205828
-0.0293597
8.01466e-05
-0.0263945
-0.000238073
-0.157497
-1.44958
-5.44588e-05
0.000209178
-0.288176
-7.4248e-05
-0.000584209
-0.163077
0.857729
-5.02283e-07
-0.216144
7.27361e-06
-0.00157914
-0.00170145
-0.000110115
-0.000537951
0.637917
0.000175163
0.000356601
1.58571e-05
2.81053e-05
1.26359e-05
0.000286303
0.00025527
-0.00399834
1.24421e-05
0.173304
0.000139401
8.6306e-06
-0.000176789
-3.74751e-05
6.22733e-06
2.41183e-06
5.21556e-06
-0.379018
2.25924e-05
-4.77081e-05
-0.108638
0.000726286
0.00163944
5.13458e-07
-2.86778e-06
-0.00272963
-8.39917e-06
-0.0303521
-6.89216e-05
9.36895e-05
2.40463e-06
1.68371e-05
7.16166e-05
0.526229
1.96487e-05
-2.09317
0.023984
-4.11629e-06
0.0201473
-5.13184e-05
-0.000134913
0.000301275
-0.556377
-6.12517e-05
0.125966
0.0186892
6.99224e-05
-0.105816
-8.25959e-05
-0.164968
-9.02534e-06
2.94137e-06
0.0898413
-0.0858125
2.26207e-06
-2.67578e-07
5.44257e-05
-0.000181869
4.86027e-07
0.0781131
-0.0331536
-0.000168402
-0.000139974
-6.97267e-05
0.204573
-0.00454632
0.000746621
-8.5027e-06
-0.00231144
3.0901e-06
-2.90859e-06
-0.000315256
0.0448593
1.11839e-06
-0.00138413
0.04875
0.000133684
0.00414443
7.43962e-07
-6.22611e-05
1.16769e-06
-0.000286133
-0.000188189
1.30732e-05
-0.00254698
1.16228e-06
0.102398
9.39091e-06
-7.76097e-05
-0.00243308
-0.0166667
-0.00149974
-4.94234e-06
1.69444e-05
0.0377106
-0.00749517
-0.00035541
2.18776e-06
5.47045e-06
0.000436338
1.30266
-0.100194
-0.000144001
1.94676e-06
2.62239e-05
6.2667e-09
0.000441097
-3.13781e-08
-9.57803e-05
0.0307148
2.27472e-06
1.9976e-06
0.0315835
2.00049e-05
2.08814
-0.00465175
1.01841
-0.0353894
-0.00530646
-0.033443
7.78016e-07
5.04899e-06
4.23074e-05
-0.000124105
6.31751e-07
-8.10632e-05
-7.20866e-05
1.00574e-05
2.23243
0.0069594
0.377615
-6.37383e-05
4.86221e-06
-3.55522e-05
0.000130801
-0.00340654
5.66512e-05
-8.4711e-05
-0.00024364
-0.189701
-0.0299374
-0.399877
2.03742e-05
-0.00215965
0.00310224
0.00287905
1.2159
1.2939
1.83137e-05
0.000108877
8.11722e-05
-0.151371
6.32489e-06
-8.99118e-05
-0.00486134
0.690368
1.27161e-06
0.000201056
-0.0835743
2.46211e-06
-1.78692e-06
2.53925e-06
-4.35724e-06
3.39632e-06
0.000103553
-0.000482825
2.2189e-06
6.64371e-06
-0.443934
-0.20688
3.15754e-06
0.114273
-0.655238
-3.52115e-05
0.000257656
-4.81385e-05
6.5008e-05
-1.33961e-05
-3.92428e-05
-7.48993e-05
7.71838e-07
9.72664e-05
5.5253e-06
0.0574674
-0.000166397
-7.19968e-05
-6.52106e-06
-0.350528
-3.99019e-07
-0.000470799
0.103718
7.48336e-07
-0.000909787
-0.000193346
1.72488e-06
8.27136e-07
0.000302848
0.000164903
-0.000422192
9.2254e-06
-0.00262328
-0.00368981
-0.00033515
1.29983
2.32468e-05
-1.80379e-05
-0.000209934
0.94256
-4.69922e-06
-2.87627e-06
0.00696858
1.82272
-1.40126e-05
-0.284083
-0.0336917
-9.79563e-05
-0.000389247
-0.000460225
3.63142e-06
-0.000111511
-6.45059e-06
6.65251e-06
0.00148791
9.69111e-07
1.87779e-05
0.0157818
0.000316179
6.40228e-07
1.68582e-06
0.0391519
-7.57941e-06
0.000327065
-0.000418218
-0.104526
0.0398089
0.314097
-0.163264
9.2596e-07
4.91518e-05
1.43176e-06
0.526912
6.59572e-06
1.283e-06
-2.4171e-05
-0.000270056
-0.155246
6.53111e-06
2.22743e-08
-0.222109
-7.16816e-07
0.000873029
-0.415181
5.48804e-05
2.06107e-06
0.388145
3.79679e-05
-1.54536
-0.363828
1.8677e-05
3.9638e-07
-0.0134214
9.44964e-07
-3.11636e-05
0.0832391
6.61728e-05
0.184165
2.58958e-06
-4.83791e-06
3.36958e-06
1.4205e-05
-1.02311e-05
0.120398
5.1546e-06
2.60025e-06
0.119619
0.0246938
-0.000514086
0.000186796
0.00119288
0.46255
-0.352895
6.20287e-05
0.364046
-0.000223429
0.489992
-0.542831
5.93338e-05
-0.000242412
7.38665e-06
-0.0225839
2.32761e-06
-0.552588
0.000334479
-0.12697
0.00586808
-7.83158e-05
0.000229177
1.44311e-06
-0.260218
-0.161937
9.15197e-06
-0.0529744
7.58041e-06
9.60545e-07
0.190585
2.59789e-06
-1.57585
1.7996e-06
-1.70788e-05
2.58401e-06
2.65153e-06
2.52003e-06
4.69639e-06
-0.00395558
0.000354163
0.000682584
-0.000745237
9.21391e-06
2.89247e-06
-0.293804
2.4713e-06
0.157604
1.62097e-06
0.0125619
-0.000196821
0.109223
-6.44068e-05
-1.509e-05
1.13134e-06
-0.0543102
-4.41916e-05
0.0165555
-0.000967734
1.09609e-06
-0.000162509
2.56571e-06
3.71136e-06
-1.29134e-05
-6.95459e-06
-0.18777
1.05967e-05
1.99085e-05
-5.21107e-07
-1.5518e-05
-0.354509
-0.0297442
-6.82318e-06
8.29317e-07
0.000307761
7.84295e-06
-7.87015e-07
0.000159374
7.44002e-07
1.13018e-06
-0.00035173
-0.000313619
-0.0192991
0.0014223
-1.69717e-05
-0.000316455
-0.00850583
7.30254e-05
-0.93217
-0.0252547
6.35732e-06
0.933295
2.04877e-05
-0.000292541
-0.000102686
8.83689e-05
0.000425339
-0.000396608
-0.000819362
0.0463675
-0.00066496
-0.0112143
0.288128
0.151784
0.00037465
5.14156e-07
-8.15257e-08
-0.348234
-0.000223548
-4.56089e-05
-0.000508425
0.00196736
-8.1795e-05
-4.60533e-05
-0.590122
-5.29863e-05
-0.000302851
-1.06547e-05
-2.61342e-05
-0.000831073
2.4016e-07
-7.01025e-05
1.14154e-06
0.000215216
-0.000305945
8.45604e-07
-2.32262e-05
0.0902286
2.28987e-07
2.81787e-06
0.0795174
0.000245319
-5.99366e-05
3.26314e-06
4.00734e-06
0.000309886
-0.0104674
0.0016932
-0.331239
-0.00228581
0.0123246
-0.000171706
-0.000289718
1.1026
0.0897199
-8.75404e-06
-3.04907e-06
1.01363e-05
-6.1059e-09
5.39501e-06
6.37497e-05
-0.00460563
-0.00535956
-4.09861e-05
-0.00012233
0.00120396
-0.000325825
-0.000151523
-3.67988e-05
-1.54862e-06
4.54995e-06
0.15796
0.233395
-0.000482504
0.112197
-6.57544e-07
3.94466e-06
-0.00499707
-0.000100359
2.50179e-06
-0.00393872
-1.43268e-05
-0.000246901
-0.0175566
-0.00503441
8.22831e-05
1.23516e-05
1.55953e-05
1.38637e-05
-2.82552e-05
0.0928914
-0.0037617
-0.0671806
0.258566
-0.437624
-7.20063e-06
1.03405
0.285229
0.264154
0.00519015
-1.60638
-0.000152795
0.0253935
-0.00045236
0.000368148
3.25415e-05
-1.53294e-06
-7.84066e-06
0.00125952
8.61348e-07
-1.4496e-05
0.000817644
0.418312
-0.998108
0.0351031
0.000503141
0.110389
-0.000170567
-0.000142286
2.8546e-06
0.549635
0.276336
-2.73872e-05
-0.000455967
-0.509866
-0.420078
-0.587882
-0.000630585
-0.000907196
3.32889e-05
-1.9382
2.07934e-07
0.0860666
-0.0899899
0.00042485
0.00704287
0.000695036
6.29123e-07
9.08905e-07
0.0795797
0.307497
-0.00855445
-1.73598e-05
-4.5503e-05
-9.5387e-06
0.0251655
1.53909e-05
0.0332617
6.07195e-06
-0.0010163
0.0125912
0.000262745
0.462103
-0.00345469
0.0486446
6.33457e-05
0.000109922
0.389029
-0.000330568
1.81134e-06
-0.146997
0.0567678
-2.13408e-06
2.63674e-06
0.000229408
0.000358898
0.000122924
-0.0158991
0.196383
9.25081e-05
-0.000371987
-0.128059
-0.00053113
9.59675e-05
8.17175e-05
0.0493447
0.000260601
-2.66867e-05
1.86607e-06
0.451613
3.43603e-06
0.309464
0.000226734
-6.11979e-06
0.034139
-0.000239743
-1.9135e-07
0.00143895
1.87545e-05
-5.78749e-06
0.000281254
6.61073e-06
8.05444e-07
0.00200761
0.000127877
0.0256398
0.00596071
0.14544
-0.189759
4.88837e-05
6.98987e-06
4.22996e-06
0.345383
-0.000131218
-2.7371e-05
0.0316684
-0.000337223
-1.71693
7.11859e-05
0.00019635
1.26708e-05
2.03714e-06
-1.14242e-05
6.06887e-05
4.70953e-05
-1.74787e-05
2.20372e-06
0.0165142
-0.000108054
-0.00292993
0.000133378
0.000258867
0.000199815
-0.0372082
0.182627
-0.231307
0.0594483
0.0494866
-0.00442664
0.230078
0.000110961
0.00030006
-0.00173631
-0.512764
2.03904e-06
0.00931867
0.0209135
0.0184456
1.96737e-07
-0.261873
3.10789e-06
2.61387e-06
-4.18944e-05
-0.000441469
1.64175
0.0294017
-4.10526e-07
-0.000138691
-0.000359209
-0.00011825
5.00925e-06
1.3059e-06
0.203406
-0.00410686
0.000168311
-2.84548e-06
-1.81852e-06
-1.73847e-05
-0.0106184
-0.00715208
4.80755e-05
-0.000107888
-0.132368
-9.89497e-05
1.32661e-06
-2.51977e-05
-8.56572e-06
5.59366e-07
-0.000112869
0.000339233
0.0337116
-3.27558e-05
0.0134653
1.57107e-05
-1.28105e-07
0.0361785
0.000350257
-2.89598
-1.10468e-07
-0.000680752
4.18933e-05
-0.093656
0.000385013
-0.0049406
0.123271
0.000496909
0.000744601
1.03543e-05
1.22677e-06
-1.12848e-06
2.13657e-06
0.00183114
-0.000747361
-6.64151e-05
0.00748447
-1.77006e-05
8.94864e-05
-0.00102427
-0.165718
5.402e-05
-0.00101546
-0.359802
0.00512398
-0.716011
-0.000101102
5.27271e-06
-0.666052
0.000184153
1.40622e-06
-2.13275e-06
0.00532247
3.36019e-07
-4.8293e-06
-0.552572
-0.00334242
-6.81685e-05
4.53113e-05
0.000280339
0.0513739
-6.32407e-05
-1.64323
0.104786
2.82106e-06
1.22136e-06
0.00148815
-0.000357976
0.000310893
2.67162e-06
0.000548766
-0.000171934
1.55073e-06
8.73049e-05
0.0405348
-0.000926079
-1.22107
-0.00970631
-0.000862129
0.092034
-0.00361415
-3.16946e-05
-0.170121
-0.526664
0.000365036
0.238251
9.43768e-06
0.0582539
-0.00362531
0.00115012
0.000470049
0.000961452
0.000542826
0.00747278
3.94431e-06
-0.000300439
-0.162012
-1.08997e-05
-1.28457e-06
2.12726e-06
1.59778e-05
7.26393e-05
2.17976e-05
2.50397e-06
4.53454e-07
0.00287438
0.46156
6.64175e-06
-0.000295149
0.0131514
-0.00532895
2.90925e-05
0.176416
-0.000973992
-0.00181145
-9.6612e-06
2.8068e-06
-0.00446895
2.76308e-05
-0.00299081
-0.00330739
1.13613e-05
0.000238574
0.344384
1.9925e-05
0.0289836
1.05895
0.364621
1.9251e-05
3.60057e-05
2.55021e-06
-8.16383e-05
2.33105e-06
0.0292818
-0.653095
-9.56549e-05
0.458992
-1.07124
-2.47279e-06
1.22872e-07
2.26661e-06
-0.0161772
-0.0556549
0.000300097
0.000433891
-3.1816e-05
0.31557
0.094751
-7.65535e-05
6.43802e-06
-0.000207587
-0.000856722
1.29812
0.0279691
-9.81948e-05
0.671908
0.0523464
-7.88722e-05
9.07971e-07
-5.30233e-07
7.20912e-05
2.81755e-06
2.3841e-05
1.99097e-05
0.000530545
-0.0554247
1.10937e-06
5.35987e-06
-0.000799259
-7.16536e-06
7.07672e-06
-4.31428e-05
0.0176658
2.30844e-05
0.000204142
-0.0200684
0.0266961
-0.0301641
0.000958556
6.88868e-05
-0.000155761
-0.000362598
-2.33439e-06
6.27305e-07
-9.73163e-06
0.196461
8.37311e-05
2.1409e-05
-0.000679969
-0.000307879
-0.138401
-0.00338105
-4.10062e-06
0.182662
-2.02334e-05
-6.98462e-06
0.0294756
-0.527923
-0.000175901
-9.87435e-06
-5.47446e-05
7.49909e-05
-2.58865e-05
-0.0115317
-0.299113
-1.56053e-07
-0.00345626
0.0097043
-3.32387e-06
2.40635e-05
0.0638862
-0.00375207
5.71173e-06
0.0106486
-9.53646e-05
1.57708e-06
0.0132438
0.056648
-0.0189814
-0.000115244
1.21928
0.00103128
-0.000131553
-0.00242101
-0.000404199
0.000300827
-0.0027819
-0.120856
-0.00315027
-0.000488163
0.000219081
1.10832e-05
-0.0339698
0.00905373
0.0398424
1.14797
-5.07068e-06
0.0147057
-6.77154e-06
4.17963e-06
-0.00200199
2.49366e-05
0.00394271
-0.0123456
1.01354e-06
0.016544
-0.502438
-0.0455018
-0.000364952
-0.00460765
5.95891e-05
-7.24039e-05
-2.1482e-05
1.05439e-05
-0.616646
-0.386277
0.0271923
0.418329
-0.00572515
0.0310823
-0.585252
1.14781e-05
-0.000104189
-0.336911
-0.00323292
-8.03561e-06
-1.3156e-06
0.00262907
-9.47139e-06
3.02213e-05
2.9813e-06
5.51208e-06
-0.000301757
-2.43228e-06
-0.00372359
-0.00158425
3.93522e-05
-0.197614
6.07119e-05
-1.2459
0.942619
-0.0876646
-0.000103557
0.0115524
0.000326879
3.65282e-06
1.89097e-05
-0.501291
-0.000782785
0.00747439
2.26957e-05
-2.18125e-06
-0.012136
-0.0680098
1.10427e-06
0.00652168
1.32904
-0.503662
0.394009
1.833e-06
-9.1268e-06
0.0566335
3.59663e-05
1.97199e-05
5.73814e-05
-3.64077e-06
1.37562e-05
1.56158e-06
-7.36649e-07
-6.97882e-05
1.95313e-06
0.000653763
0.000428069
-0.000250592
-0.385441
-0.522097
0.000220747
-0.000105018
2.50653e-06
0.00104674
1.13283e-06
2.83178e-06
2.23533e-06
0.0051378
-3.11088e-06
2.68818e-05
9.49895e-05
0.00373141
0.110075
1.78744e-06
0.000944207
0.000384106
8.85874e-05
-0.0165366
0.00527828
-0.000277725
1.05203e-06
0.000930308
0.000730264
2.62441e-05
-0.0111798
-1.19239
2.31014e-06
0.6597
-1.37338e-05
-0.00345066
-0.230837
0.0096241
0.0154181
1.99289e-05
8.94115e-07
0.219004
-0.000131818
-0.588531
6.67611e-06
-0.00410281
-1.03817
-3.60675e-05
-0.00084835
3.42969e-06
0.00249357
-0.0059955
-0.163839
2.48216e-06
-1.83154e-06
-0.00425695
-1.85316e-05
0.414755
-2.90352e-05
0.000627769
-0.0848584
-0.00194601
-0.00197134
-0.609587
-6.98618e-07
1.72744e-06
3.41019e-06
0.132305
0.114789
1.19596e-05
1.01779e-05
6.69955e-06
-8.95328e-05
-4.47815e-05
-3.13099e-06
0.000183301
0.000594808
3.57762e-06
6.84182e-05
-0.000185533
-0.631643
-0.241918
0.381074
-5.07441e-07
0.0202285
0.000139686
-0.000129667
0.00561297
-0.0289576
-0.563353
9.57518e-05
-0.00117893
-1.58376e-05
-0.0010613
1.52477e-05
-0.0030471
-0.0327433
5.19652e-06
-0.00497886
-0.000151936
0.115095
0.0410857
0.000151473
3.55324e-05
1.54308e-05
1.31984e-05
-1.24951
-3.77624e-07
3.72373e-06
-2.32062e-06
-2.06415e-05
-4.19034e-05
3.23664e-05
2.39898e-06
2.16989e-05
1.12902e-06
1.46027e-06
-0.650322
-0.260503
0.00459759
0.000190799
-2.82369e-05
-4.80085e-05
-1.96291e-05
-5.4021e-05
0.00116951
-0.000331542
2.19289e-05
2.90228e-06
1.94007e-06
-0.000484958
2.57407e-06
-0.0081023
0.489977
-0.00122807
-0.122509
6.17502e-07
-0.404917
0.0011438
0.0137541
-3.27314e-05
0.051046
2.91515e-06
3.65114e-06
-4.64048e-06
0.0365371
-0.00262928
9.95936e-07
0.00110583
4.51285e-05
-1.99301e-06
0.000640202
0.0149574
0.000863093
1.82875e-06
-0.000113042
-0.00389633
-8.94062e-05
-0.601233
1.05532e-06
5.5714e-06
3.82291e-06
9.32109e-05
-0.000420511
0.0962409
0.00105131
-1.53068e-05
0.92023
-0.000136066
-0.00041937
7.77952e-07
0.000244801
-0.0253591
-3.26722e-05
-5.17937e-07
0.000312871
-0.396046
7.13119e-05
-6.75647e-06
9.75191e-07
0.000897475
-0.000363803
0.0938717
-6.25972e-06
-0.000129357
-0.00032054
0.0816423
-3.17543e-05
0.000267697
-5.30421e-05
-0.000565609
-0.000116161
-0.584539
0.000337407
0.000838556
0.0069216
2.48611e-06
1.00115
-2.9152e-07
1.54502e-05
0.000336687
-0.00115748
0.0351891
0.0179133
0.184711
-1.24164
0.000301221
-0.00103444
1.97048e-05
0.495575
1.61271e-06
-0.000395357
-0.00793335
2.10539e-06
0.00283717
0.000222891
0.000281926
0.116457
0.00923211
-0.532383
0.00550998
0.000479931
4.94021e-05
-0.000186713
3.98117e-06
-1.17147e-05
3.43805e-06
0.0525395
-0.232648
0.117696
0.000228549
0.000108235
-0.00362169
1.48969e-06
0.000924509
0.000192076
-0.00110546
2.26523e-06
-3.5587e-05
-0.000239237
-0.000931606
0.555733
0.000819992
-0.00035572
2.40033e-07
0.00061761
-0.432102
-0.000262642
-0.00169612
-0.687415
2.90578e-05
0.000434632
1.27711e-05
-0.107877
-0.000184893
-3.2907
6.70806e-06
3.04207e-06
-6.59041e-05
0.000585264
0.0675214
-7.88098e-05
0.102618
-1.77709e-05
-2.31502e-07
-2.57008e-06
1.44629e-06
-1.58806e-05
2.35827e-06
0.538741
-0.190363
7.43294e-05
-0.000161502
-0.000181539
-0.000118835
1.59016e-07
2.12608e-05
-0.0034944
0.0990934
0.0133377
-7.04209e-06
0.00488247
-1.11574e-05
-0.000182366
-1.57262e-05
-0.00115287
1.45098
-0.0103705
0.0278944
-4.23481e-05
-8.11023e-07
2.28824e-06
-1.70653e-06
3.95265e-06
-6.20722e-07
0.295784
6.73983e-06
0.000393101
1.69274e-05
0.00117507
1.31548e-06
0.133294
0.345387
0.00121412
-7.90611e-06
0.0800115
-1.45826e-05
0.00771184
-1.29409
0.000430338
0.00627436
-7.02245e-05
-0.00062757
-0.000211307
-0.0003468
-0.000343065
-5.56524e-07
-0.00090718
-0.0273393
0.0178326
0.00673724
-0.000389968
2.84531e-06
2.59832e-06
-0.157035
-2.89972e-05
-0.474312
-2.64535e-05
0.0245804
0.313499
0.00266045
3.20977e-05
-0.142218
3.14889e-05
-4.77318e-05
-0.000137562
8.39455e-05
-0.0012799
2.71342e-06
-0.0464081
-0.0020968
-0.000591707
1.16464e-06
-0.000204803
0.41786
0.0599625
-0.0171099
-0.000109095
-1.45023e-05
-0.253887
0.923431
2.65376e-06
0.000448496
0.048362
-0.00140599
-0.00681609
-4.96788e-05
0.000144808
0.831049
-3.92903e-05
0.000145111
-0.000979386
3.9929e-06
0.0129573
0.0207501
-0.0973517
0.000285917
0.00518173
0.000719925
0.000245833
-0.00301035
1.27618e-05
-0.175426
7.52493e-05
-0.317463
-0.0951742
-0.214249
-0.00896803
0.00472675
-0.248796
-7.9569e-05
0.000819454
0.00449737
0.294048
-1.2195e-05
5.08949e-05
2.02135e-06
-0.000247101
5.675e-05
4.90157e-07
-0.195534
3.41851e-06
-1.62282e-05
0.000625118
4.21504e-05
-0.000381444
-9.08591e-05
0.361117
0.00108508
-3.7311e-05
2.5136e-06
-0.000430342
2.45154e-05
2.17195e-06
2.47072e-06
0.000166045
1.40716
-0.000149405
0.000920174
0.000440296
-4.5205e-06
-2.32332e-05
2.05118
0.0213988
0.187617
-2.50702e-05
1.62251e-06
-0.0010959
1.79182e-06
-0.000231726
-0.45623
-0.0151616
2.50536e-05
-4.10532e-05
-0.000173369
0.000160584
-0.213831
0.0588937
0.0396942
-0.000121735
-0.000194064
2.7607e-05
-8.97976e-05
-0.0433161
0.787573
3.38396e-05
0.0254142
-1.64426e-05
6.22181e-05
-0.00611059
1.8446e-06
0.410705
-0.00618598
-0.106108
-0.000117382
-0.000396631
-0.00131422
-0.0351899
-0.000175372
0.000345399
0.0740276
0.0141043
0.596576
-0.0493347
0.181429
8.41267e-05
0.042713
-0.000107128
-0.000111865
0.00740632
-7.1932e-05
4.91867e-07
2.16221e-07
8.35868e-05
-0.241224
0.0119195
0.000138928
-0.250719
-0.00010265
3.47264e-07
1.42662e-06
2.42122e-06
0.00107217
-0.0888041
6.35861e-07
1.50136e-05
-0.000550736
-0.763753
-1.34799e-05
0.0696794
-0.000126203
-8.10812e-05
0.213832
9.22846e-07
-0.460411
-0.00227868
-0.278196
-1.1716
0.000237331
-5.32918e-05
-9.59913e-05
-0.446638
0.000355674
-1.31833e-06
-1.22014
0.00333584
-6.46583e-06
-1.51754e-05
-0.253638
0.000194998
-0.981024
0.507424
-8.81888e-05
-3.02823e-05
0.000138473
-0.000209188
0.0474021
1.46409e-05
-0.000253216
-9.17704e-05
-1.32391
-0.031698
2.85679e-06
-0.000194931
0.0115893
0.000352431
5.40971e-07
-5.7997e-06
1.35424e-06
-0.00281605
-2.17375e-05
-0.196942
1.00284e-05
1.2346e-05
-0.00021183
6.21704e-05
6.74293e-05
-0.00011264
-0.0472546
0.0114848
-0.0411875
-6.93104e-07
-1.61619e-05
-0.107113
-0.000287539
-0.000276977
-0.293875
0.00390083
0.0206133
0.526178
-2.93883e-05
-0.124461
0.00498169
8.53305e-06
1.17042e-06
6.81359e-07
7.41579e-07
0.684421
0.000390603
3.93195e-06
0.23962
0.157627
0.162603
-8.6276e-05
-0.000353068
-0.838325
1.3457e-06
5.28702e-06
3.07645e-05
3.75378e-06
-0.343574
1.86565e-05
-0.0126462
0.0428822
-9.58828e-05
-0.0152046
-0.00878314
-0.187147
1.16323
2.40483e-06
0.000170004
0.000397642
-0.868103
0.494776
0.00467272
7.19072e-06
4.93498e-07
-0.00256877
0.000223925
-0.0990936
-0.0727264
1.19963e-06
-0.314093
-8.54441e-06
-0.423095
-0.000148078
0.00936775
1.38401e-05
0.143272
0.0118313
-0.00905844
-1.05755
0.000178799
-0.504374
0.859519
1.5469e-05
-0.141997
4.64939e-06
-1.39993e-05
-2.88861e-06
8.08134e-05
0.000116994
-5.57211e-07
3.29535e-06
-0.0607588
-0.00149456
-0.00217298
0.171021
-0.00360336
4.61731e-05
-3.19857e-05
-0.00281925
-0.000166214
0.00547685
-0.453054
-0.0170456
0.0358652
-0.000105766
-4.74635e-05
2.51026e-05
-3.60755e-05
6.77361e-05
1.26249e-06
-1.24897
0.128167
0.553381
9.31404e-05
-4.41221e-07
-0.00211916
-0.0165329
0.000240171
0.000182363
-0.00010565
5.97769e-05
-0.00150456
2.65346e-06
-0.00100907
9.82162e-07
0.131549
-0.00035307
0.00759628
-0.016828
-0.239368
0.000190197
0.00578295
-1.09824e-06
-1.92194e-05
-0.0050592
0.0313276
1.83359e-06
-3.52416e-06
-0.00455276
-9.38249e-07
-0.00381397
-0.0583821
0.000447477
0.0530838
5.01014e-06
0.73341
-0.000439614
0.0928615
-1.91057e-05
-2.84957e-05
0.010236
1.22359e-06
0.0144759
0.000166339
8.28223e-05
0.302028
3.40007e-05
4.59904e-07
5.12926e-07
2.95561e-06
-0.377328
-0.0698077
1.71893e-06
0.0106747
8.93881e-05
-0.00645124
4.45856e-06
0.392883
0.0260584
-2.33648e-05
-0.000413647
1.69332e-06
0.195806
7.20081e-05
0.244398
-2.039e-05
-0.000147319
4.68954e-05
-2.01865e-07
2.13328e-06
-0.000622387
-4.36661e-06
3.2856e-06
0.000704626
-1.72513e-05
-0.000557905
-0.000165911
-0.313828
0.00101172
-2.44415e-05
0.000837575
2.51266e-06
2.29531e-06
0.000145551
-0.286117
0.00032388
0.00088156
-0.785505
0.000140672
-3.83563e-06
-8.49652e-06
1.01814e-06
-0.000431544
-0.0428083
0.000171194
-0.000123493
0.0575435
-3.11877e-05
1.82205
1.47175e-06
0.000162172
0.808818
-0.0209029
-8.65843e-08
-0.000285782
3.46818e-05
0.00185573
8.53998e-07
7.12727e-05
-0.213483
7.69832e-06
0.000308301
0.159565
-4.0321e-06
1.63329e-05
-1.06577
0.000203963
-0.00360867
-1.19392
-0.176648
4.55479e-05
-5.12448e-05
0.000287364
-0.316986
5.65818e-05
-0.363676
0.391827
-0.245909
0.000615614
6.0307e-05
2.23807e-06
1.32029e-06
0.0336538
0.0155204
0.104855
0.0922516
0.000166213
-0.261373
0.000179094
0.229216
-4.1104e-06
-0.00096148
-0.00126028
-8.35572e-05
6.33872e-05
0.00598421
-6.72128e-05
5.88337e-06
-1.87828e-06
-0.00309033
1.69216e-05
7.13974e-07
-0.766003
1.49481e-05
4.71771e-06
-2.68304e-06
0.0530224
0.000601817
0.057795
0.000273158
-1.76835e-06
0.00317967
0.000189818
-0.00527454
-1.58068e-05
1.70704e-06
0.0181402
-0.737009
0.0984941
-0.00015904
0.000184427
0.149562
-0.00624542
-0.00225668
0.000377791
-0.1445
-0.170414
9.75822e-05
0.00294292
-8.59212e-05
-0.00173734
-0.110524
0.00551393
0.00514318
5.90142e-06
0.135648
-0.00519542
0.00624043
0.00517705
2.11212e-06
1.34535e-06
3.18108e-06
-0.130194
-0.000360077
-0.0514169
-0.00243386
0.0101235
-0.000406861
-0.401904
0.0212698
0.00363884
0.0812965
7.87757e-06
9.32469e-07
5.70097e-06
-0.000228883
2.0719e-06
0.000198279
0.0788891
3.44206e-05
2.02907e-05
0.0563051
0.00461344
0.000692666
0.000333469
0.000245322
1.74582e-06
-0.319471
-0.00028542
0.248529
-0.00168129
0.000313264
0.000764972
0.00536815
0.176833
2.33305e-06
2.0986e-06
-1.06188
0.000283268
0.000185941
-0.0038139
-0.00217318
-0.000425669
-0.0011237
7.2482e-07
0.183932
6.75595e-07
-1.77218e-05
0.0281031
1.00381e-06
0.00571723
9.94875e-06
0.0353211
-0.199524
-3.17012e-05
-8.49229e-05
-0.103938
-0.000274585
-3.05365e-05
-0.0427549
0.0313892
-0.383938
1.36751e-06
8.57627e-06
-0.77846
-0.0810783
-1.78713
4.06726e-06
0.000114968
3.99485e-08
8.37495e-05
1.06989e-05
3.32406e-06
1.1879
6.76452e-07
-0.119071
0.000133782
-0.128705
0.000164485
-0.218424
-0.183597
0.00427929
-2.55972
0.043969
-5.07583e-05
-0.00562618
1.38588
1.93279e-06
5.02277e-06
-7.9908e-06
-0.157998
-0.953928
6.82787e-07
-0.894565
-0.000500698
2.68641e-06
-0.0537198
-1.94972e-05
-0.00510259
-0.158634
0.400811
1.86344e-05
0.210545
-8.29767e-05
-0.000214206
-0.502538
-0.000288189
0.063078
-0.0975689
0.000460775
0.0434716
0.0947514
0.000192234