/*--------------------------------*- C++ -*----------------------------------*\
| =========                 |                                                 |
| \\      /  F ield         | OpenFOAM: The Open Source CFD Toolbox           |
|  \\    /   O peration     | Version:  v2012                                 |
|   \\  /    A nd           | Website:  www.openfoam.com                      |
|    \\/     M anipulation  |                                                 |
\*---------------------------------------------------------------------------*/
FoamFile
{
    version     2.0;
    format      ascii;
    class       surfaceScalarField;
    location    "50";
    object      phi;
}
// * * * * * * * * * * * * * * * * * * * * * * * * * * * * * * * * * * * * * //

dimensions      [0 3 -1 0 0 0 0];
oriented        oriented;


internalField   nonuniform List<scalar> 
27882
(
0.512733
-0.367209
-0.145525
0.477394
-0.197012
-0.280382
0.27226
-0.533831
0.261568
0.162151
0.350581
-0.227628
0.348356
-0.120729
-0.423715
-0.101223
0.524938
0.186093
0.188135
-0.374231
0.119569
-0.331813
0.212244
-0.340568
0.112938
0.251557
-0.374182
0.122624
0.370997
-0.523627
0.15263
0.567226
-0.269543
-0.297683
-0.378176
0.0909743
0.287201
0.333677
-0.166497
-0.167181
0.105471
-0.43148
0.326004
-0.429468
0.148466
0.280996
0.215245
0.35198
-0.309012
-0.167545
0.382707
-0.27724
0.175197
0.137914
-0.313112
-0.415199
0.241794
0.173404
0.030221
-0.0978645
0.0676436
0.0862402
-0.509956
-0.332381
0.537721
-0.20534
0.0922973
-0.0620763
0.136916
-0.0604708
-0.0764455
-0.326021
0.0923621
0.233659
0.260882
-0.160767
-0.100115
-0.185457
0.0291593
0.156298
0.477602
-0.330338
-0.147263
-0.207934
0.162193
0.0457408
-0.13042
-0.195602
0.308128
-0.18856
0.0569989
-0.0912131
0.0342142
-0.171778
0.336982
-0.165204
0.194527
0.283074
-0.291909
-0.0862673
0.176577
0.0266196
0.191788
-0.218407
0.391309
-0.469414
0.078104
0.486323
-0.30552
-0.180803
-0.190381
-0.163109
0.353489
0.487672
-0.234701
-0.252971
0.468417
-0.331586
-0.136833
0.521596
-0.362429
-0.159174
-0.178222
0.0220306
0.156191
-0.337601
0.147219
-0.196171
0.0360948
0.160077
-0.0106163
0.0118025
-0.00118621
0.508285
-0.359095
-0.149191
0.531748
-0.160751
-0.0160801
-0.0216526
0.0377327
0.184589
0.323695
-0.394304
0.17103
0.223273
0.0644268
-0.121223
0.0567966
0.373833
-0.282859
0.485109
-0.463976
-0.0211333
-0.155968
0.331164
-0.194584
0.167203
0.027381
0.368067
0.11704
0.489899
-0.0790282
-0.410877
0.330098
0.138318
0.127615
-0.231497
0.0238511
-0.205795
0.181944
0.0242273
0.465664
0.0633263
-0.0481543
-0.015172
-0.018038
0.401968
-0.383935
0.620996
-0.298388
-0.322609
0.0676239
0.193258
-0.538971
0.229959
-0.0315416
0.0154614
0.0232448
0.0684953
-0.0917401
0.145131
-0.399557
0.254424
0.166185
-0.282414
0.116228
0.238088
-0.267179
0.0290915
-0.0856102
-0.122323
-0.00787167
0.169391
-0.161519
-0.320479
-0.122227
0.442706
-0.0890115
0.343143
0.144529
0.140701
-0.142895
0.00219464
-0.170857
0.197477
-0.360502
0.0400234
0.000424421
0.212177
-0.212601
-0.539717
0.264133
0.275582
-0.120493
0.0196157
0.100878
0.196721
0.0552344
-0.136288
0.302473
-0.112528
0.240143
-0.128185
0.00769215
0.0285165
0.0144696
-0.0429861
-0.350711
0.510153
-0.15945
0.141931
-0.155214
0.0132829
-0.0116341
0.00101782
-0.249248
0.394375
0.522938
-0.101211
-0.42173
-0.333583
-0.134665
0.468247
0.183865
-0.168509
-0.0153567
0.43788
-0.35085
-0.0870302
0.179018
-0.380903
0.201882
-0.0682215
-0.11
0.322664
-0.223224
-0.0994398
0.312367
0.308628
0.428632
0.0943019
0.0355084
0.0278179
-0.287729
-0.12747
-0.153639
-0.0425327
-0.0117664
0.0402828
-0.156121
0.24318
-0.0870583
0.45321
-0.268851
-0.184359
-0.138739
0.442619
-0.303886
0.172047
-0.148196
0.284922
-0.474372
0.189449
0.47674
-0.473283
-0.00346027
0.117676
0.204987
-0.18955
0.0217444
0.167805
0.17988
0.00398498
0.554539
-0.261573
-0.292967
-0.0183009
0.191254
-0.172954
-0.338047
0.490161
-0.152115
0.550814
-0.386998
-0.16382
0.140597
-0.148469
-0.212487
-0.32723
-0.507089
0.0727801
0.434308
-0.00107068
-0.00815163
0.00922231
-0.224081
-0.170224
-0.502319
0.338356
0.163962
-0.422371
-0.0847197
-0.0778589
-0.0876506
0.16551
0.0155631
-0.0107287
-0.158489
-0.527064
0.274916
0.252141
-0.235008
0.244567
-0.00955928
0.00826742
-0.0168687
0.00860128
-0.137368
0.528677
-0.352179
0.481401
-0.129225
0.122872
0.113402
-0.236274
-0.398457
-0.0672824
0.465738
-0.196567
0.016881
0.179686
0.131427
0.00927366
0.438555
-0.153634
0.47918
-0.216834
-0.262346
0.201637
-0.184895
-0.0167424
-0.23913
0.0830088
0.00687554
-0.00794622
0.171874
-0.160849
-0.0110253
0.0522702
-0.0167619
-0.0456297
0.160704
-0.115074
-0.193224
-0.330403
-0.0369538
0.115237
-0.0782831
-0.0156274
0.011233
0.00439441
-0.0111192
0.0141456
-0.00302641
0.0544563
-0.259411
0.204953
-0.371879
0.0965652
0.275313
0.193878
0.292445
0.13311
-0.140657
0.155347
-0.0134155
0.0583619
-0.136221
-0.234556
-0.0255437
0.2601
0.28417
-0.0159524
0.0752286
-0.0592762
0.356809
0.0286093
-0.38542
-0.0122065
0.0160731
-0.00386656
0.0275271
0.0247431
-0.154657
0.0298946
0.124762
-0.547258
0.244334
0.302923
0.41392
-0.0571114
-0.0616623
0.00832694
0.0533353
0.00792635
0.00763679
0.518949
-0.370626
-0.148324
-0.0150648
0.000774971
0.0142898
0.408795
-0.136537
-0.167489
0.17824
-0.010751
-0.216001
-0.259569
0.147102
0.0960771
0.135325
-0.392024
0.256697
0.142392
-0.391644
0.0767658
-0.12636
0.0495943
0.086419
-0.0294201
0.229685
0.047815
0.516853
-0.242053
-0.274801
-0.132806
-0.175422
0.308227
-0.0547339
0.119161
0.142853
0.16484
-0.105734
0.0464093
0.0593244
0.422457
-0.317274
-0.105187
-0.325709
-0.00462936
0.353412
-0.288462
-0.0649507
-0.0109777
-0.000656444
-0.131982
-0.0393244
0.171306
0.00217241
-0.0132916
0.278191
0.144262
0.0643881
-0.182485
0.118097
0.146861
0.0249237
-0.171785
-0.53496
0.216827
0.318133
0.235928
-0.315611
0.0796825
-0.173768
0.00508514
0.168682
0.318089
-0.263634
-0.0118884
0.000910762
-0.493026
0.0769333
0.416092
-0.19504
-0.255104
0.450143
0.189658
-0.131296
-0.126223
-0.0651265
0.19135
-0.148274
0.428377
-0.280108
-0.402518
0.263774
-0.0147325
0.00252598
0.092591
-0.362764
0.270171
-0.0348981
0.0119951
-0.00857871
0.553811
-0.375158
-0.178654
-0.104966
0.148156
-0.0431895
-0.466627
0.271586
-0.135716
0.426005
-0.29029
0.106855
-0.326087
0.219231
0.163539
-0.497121
0.00232017
0.391129
-0.393457
0.0503806
0.339819
-0.441043
-0.103352
0.421591
-0.318239
-0.069013
0.215874
-0.173343
-0.279575
0.452916
0.179407
0.0222304
0.0433964
0.146261
0.0612483
-0.187472
-0.322174
0.444042
-0.121868
0.243149
-0.00506177
-0.0661268
0.12404
-0.0579134
0.0598886
-0.075841
0.344016
-0.251427
0.0408971
0.0960192
0.154819
0.0170554
0.243066
-0.0959639
0.0620176
-0.414201
-0.483605
0.147812
0.335788
0.274954
-0.448298
0.0435008
-0.202361
0.15886
-0.0098817
0.0102777
-0.000395989
-0.17174
-0.00853881
0.180279
-0.343683
0.262872
0.0808105
0.102533
0.323413
-0.425952
-0.150818
0.194319
0.0136126
-0.215576
0.201963
-0.342535
-0.170133
0.512666
0.0634037
-0.100357
0.20067
-0.0731843
-0.127485
-0.478201
0.34244
0.135756
-0.261551
-0.19955
0.461098
-0.200252
0.4954
-0.295149
0.371081
-0.192065
-0.0137813
-0.00128353
0.514084
-0.254487
-0.259599
0.317043
-0.542909
0.225866
-0.173145
0.448098
0.460729
-0.0726389
-0.38809
0.162728
0.00961678
-0.172345
0.382387
-0.573191
0.190803
0.0881928
-0.064948
-0.397523
-0.0277846
0.4253
-0.228985
0.0375847
-0.234896
-0.239477
-0.36454
0.437319
-0.102374
-0.375832
-0.124257
0.188645
0.205298
-0.113998
-0.0913003
0.0631038
0.142194
0.0271939
-0.391736
-0.182954
0.0670745
-0.326487
-0.227195
0.357443
-0.13025
0.179943
-0.188642
0.00869903
-0.0376501
-0.00403025
0.0416803
-0.354349
0.127152
0.0874838
-0.33085
0.243364
0.116536
0.348894
-0.46543
0.316384
-0.20953
0.218493
-0.0295807
-0.188912
0.489294
-0.149475
-0.420634
0.284916
0.162051
0.171625
0.200216
-0.46177
-0.311925
-0.176306
0.488225
-0.435231
0.38014
0.0550855
-0.0387583
0.0186581
0.0201002
-0.24539
0.354717
-0.267236
0.394362
-0.431626
0.0372646
-0.166606
-0.04897
-0.152064
0.378627
-0.226567
0.276565
-0.439472
0.0969357
0.0956348
-0.293764
0.198129
-0.123511
-0.340466
-0.534601
0.258752
0.275848
-0.558394
0.262915
0.295477
0.202575
0.256749
-0.459324
-0.508327
0.186153
-0.438936
0.0882172
-0.452316
0.119934
0.00329173
-0.0133621
0.0100704
0.114947
-0.234337
0.11939
-0.598961
0.33905
0.259909
-0.393609
-0.205354
0.0855306
-0.209208
0.123678
0.29226
-0.468598
0.176338
0.277944
0.238909
-0.159008
-0.232286
0.391293
-0.271625
-0.0161042
-0.0981829
0.42828
0.118777
0.255055
-0.406167
-0.0290697
-0.199974
0.139829
0.060145
-0.156887
0.0658171
-0.16837
0.102552
-0.079348
-0.10611
-0.0397152
-0.0514979
-0.611909
0.298994
0.312914
0.248607
-0.216878
-0.0317293
-0.17585
0.164827
0.0110234
0.0403903
-0.424764
0.384369
-0.116287
0.182104
-0.209336
-0.025221
0.0244701
0.0907668
0.16116
-0.459331
0.298166
-0.299542
0.00704818
0.494899
-0.199434
0.0623926
0.339875
-0.40227
0.00292645
-0.00880822
0.00588177
-0.025168
0.189688
-0.164521
0.421873
-0.295268
-0.126606
0.00416428
-0.00974346
0.00557918
0.448764
-0.287608
-0.164872
-0.366714
-0.0308143
0.120747
0.35599
-0.1981
0.316999
-0.1189
0.0420654
0.329868
-0.371934
-0.0848569
-0.246957
0.154403
-0.409148
0.254743
-0.298948
0.100846
-0.172839
0.270207
-0.097369
0.045653
-0.118762
0.215562
-0.130031
-0.0754913
-0.322967
0.0393986
0.332147
0.105733
-0.266851
0.329242
-0.0302734
0.175755
-0.145482
0.47446
-0.182201
0.100183
-0.0681446
-0.0320381
0.500529
-0.211035
-0.289494
0.186874
-0.172151
-0.0147236
-0.418405
0.101127
0.0106444
-0.0101409
-0.000503506
0.169881
-0.233353
0.0634721
0.111289
-0.331382
0.220093
-0.273889
0.101049
0.302047
0.119825
-0.409548
0.300805
0.108742
0.142427
-0.474014
-0.166655
-0.184815
0.209738
0.51904
-0.250414
-0.268627
0.214449
-0.190893
-0.0235555
-0.0129611
-0.171854
-0.141169
0.230935
-0.0217857
-0.20915
0.152425
-0.285232
0.190813
-0.0109324
0.0019208
-0.0286768
-0.160873
0.0882383
0.154828
-0.196238
0.203962
-0.00772395
0.148721
-0.454241
0.0157513
0.171123
-0.0145556
0.475284
0.0188708
-0.052428
0.0335572
-0.13328
0.335883
-0.485693
0.14981
0.253372
0.265669
0.37806
-0.396103
0.222246
0.315474
-0.0617336
-0.036131
0.250115
-0.247434
0.457378
-0.209944
0.206503
-0.0265605
-0.00522518
-0.0734771
0.249406
0.233884
0.219326
-0.282256
-0.147218
0.302292
-0.198491
-0.103801
-0.355503
0.158809
0.196693
0.462183
-0.293519
-0.168666
0.284883
0.265928
-0.374148
-0.035401
0.267903
-0.408491
0.140584
-0.421637
0.109707
-0.534929
0.295018
0.23991
0.153757
-0.486493
0.332736
0.261437
-0.255175
-0.00626204
0.0611387
-0.191598
0.130459
-0.212999
0.187864
0.0251351
-0.0628356
0.155296
-0.09246
0.0898137
-0.152649
0.019929
-0.00675351
-0.0131755
0.21399
0.0266184
-0.164457
0.137838
-0.272168
0.474742
0.428527
-0.0353347
-0.393192
-0.386902
0.152201
0.158879
0.143413
-0.345946
0.212578
0.133367
-0.282448
0.192459
0.176069
0.0147434
0.427409
-0.282185
-0.145225
-0.375488
-0.197703
0.135678
-0.0900245
0.285186
0.236404
0.21228
-0.0973336
0.55504
-0.285452
-0.269588
0.00929457
0.0023873
-0.0116819
-0.136871
0.268144
-0.206224
-0.352171
0.00512773
-0.000963452
0.129325
-0.145931
0.0166057
-0.505463
0.40343
0.102024
0.314219
0.147963
-0.251883
0.468706
-0.216824
0.199784
-0.111546
0.221455
-0.512755
0.291299
-0.356996
-0.177607
-0.137861
-0.0167963
-0.0149366
-0.198063
-0.0830754
0.384815
-0.242426
-0.310843
0.20962
0.101222
0.165575
0.0768477
-0.242423
0.134571
-0.137887
0.00331625
-0.210869
-0.157891
0.368759
-0.606484
0.359207
0.247277
-0.0292835
0.223367
0.331672
-0.316378
0.358442
0.0408529
0.122345
0.29473
-0.417082
0.16188
0.000312987
-0.241101
-0.365383
0.258921
-0.0933468
0.527636
-0.229565
-0.298074
-0.201807
0.17313
0.191376
-0.495626
0.30425
0.354314
-0.0864136
-0.00932543
0.0086251
0.000700328
-0.147542
-0.321056
0.12552
0.370602
-0.496122
0.192673
0.0382617
-0.00624017
-0.292727
0.298966
0.286182
-0.434462
-0.466135
0.0825228
0.383611
0.504606
-0.324987
-0.179626
-0.0188992
0.179736
-0.160837
-0.0662833
0.0210124
0.0452709
0.214153
0.0757577
-0.289912
0.240495
-0.117868
-0.122628
0.1712
-0.184162
0.128323
-0.0515568
0.400038
-0.309625
-0.0904133
0.0325016
0.168168
0.0419402
0.358098
-0.509167
0.332843
0.176324
0.163433
-0.136814
-0.175987
0.243514
0.0155709
-0.259086
0.220834
0.0872924
-0.431205
0.327853
0.401538
-0.367282
-0.0342564
0.138471
0.300083
-0.515591
0.218586
0.297003
0.310878
-0.122746
0.457215
-0.120453
-0.336765
0.432139
-0.3098
0.07998
0.377232
0.0112776
0.335033
0.26089
-0.364612
0.103722
-0.31751
-0.158714
0.476222
-0.539765
0.363227
0.176538
0.124279
-0.140214
0.0159352
-0.152515
-0.374555
-0.259956
0.45641
-0.196456
0.355192
0.122349
-0.477542
0.238749
-0.24499
0.0425996
0.358938
-0.17541
0.417204
-0.208362
0.157512
0.374235
0.345004
0.035014
-0.380018
-0.201088
0.0257103
0.175377
-0.148018
0.103623
0.0443954
-0.0692398
0.0640476
0.00519225
-0.232974
0.0367362
0.386669
-0.384357
-0.357047
-0.0613614
-0.0423825
-0.0239008
-0.00147604
0.51193
-0.321318
-0.190612
0.508644
-0.140578
0.122822
-0.362333
0.23951
-0.0112312
0.519881
-0.136055
0.48106
-0.0705926
0.0163245
0.054268
-0.13999
-0.186098
0.142015
-0.010588
0.202699
0.30923
0.492506
-0.178287
0.111682
0.128813
-0.457199
0.257646
-0.132897
-0.255839
0.388733
-0.506016
0.217492
0.288516
-0.528168
0.308121
0.220046
0.0457129
0.298301
0.0806812
-0.443118
0.274868
-0.406068
0.1312
0.266026
-0.437165
0.171138
0.327654
0.0997549
0.201464
-0.0302641
0.488211
-0.117609
-0.162022
0.428047
-0.424052
0.106539
-0.252125
0.185818
0.0663069
0.339655
-0.142808
-0.196848
0.0549777
-0.265847
-0.248836
-0.132069
-0.000241362
-0.131741
-0.182429
0.229657
-0.0472287
0.234922
0.00859157
0.298149
0.098044
-0.396194
0.467655
-0.313899
-0.47242
-0.187945
0.273322
-0.0853789
-0.291576
0.10363
-0.0285554
0.00244601
0.0261094
-0.0367969
-0.0689369
-0.246804
0.447016
-0.285139
0.286501
-0.190867
-0.00622036
-0.0554419
-0.52964
0.244188
-0.279157
0.442696
0.35809
-0.346819
-0.4273
-0.112466
-0.134802
-0.253833
0.388634
0.451594
-0.153447
-0.124447
-0.18767
0.312116
0.434643
-0.00725494
0.174458
-0.376984
0.128145
0.333139
-0.470507
0.205798
-0.213036
0.00723747
-0.0202229
-0.0490169
-0.427826
0.295529
0.132297
-0.219139
-0.283181
0.428265
-0.269976
-0.158291
-0.39461
0.134653
0.27059
0.11987
-0.390464
-0.40533
-0.444694
0.297608
0.147086
-0.471584
0.163294
0.30829
-0.308189
0.22085
0.0873375
0.138724
-0.300259
0.161535
0.293337
0.134925
0.138606
-0.168879
0.480781
0.0571824
-0.400538
0.343355
0.159637
-0.00481805
-0.206648
-0.332322
-0.231755
-0.296413
-0.213385
-0.123363
0.336749
-0.110698
-0.423135
-0.0142932
0.25022
0.0305689
0.18388
0.50431
-0.133884
-0.370428
-0.125976
0.390642
-0.26467
-0.00259387
0.220588
0.333949
-0.352791
0.236456
0.116335
0.474356
-0.186833
-0.287523
-0.519723
0.165908
0.353813
0.250112
0.277522
-0.195194
0.195618
0.0826114
-0.294182
0.21157
0.211904
0.127751
0.388322
-0.252999
-0.166629
0.305352
-0.398751
0.394151
0.15961
0.302129
-0.461742
0.0168345
-0.0135428
0.487035
-0.214272
-0.272764
0.275641
0.278169
0.246223
-0.383273
0.137047
0.500024
-0.352393
-0.147632
0.140043
-0.179368
0.2403
-0.177737
-0.0625631
0.283541
0.164105
-0.447647
-0.172759
0.277673
0.136861
-0.0282093
-0.108652
0.353692
-0.23087
-0.272683
-0.16103
0.433707
0.241911
-0.400919
0.0566017
-0.228877
0.172275
0.000952264
-0.0706888
-0.164319
0.440257
-0.317715
-0.122543
0.0829221
-0.349722
0.266798
0.251986
0.248038
-0.178536
0.166315
0.0122214
-0.338406
-0.181318
0.339623
-0.256703
-0.356997
-0.172644
-0.0461139
-0.340244
0.386356
-0.0733039
-0.155901
0.229205
-0.158952
-0.166771
0.325723
0.493699
-0.176656
-0.332056
0.310395
0.129861
0.120977
0.218384
-0.339362
0.385588
-0.139367
0.184077
-0.482619
0.298538
0.46751
-0.139857
0.0384491
-0.114221
0.17217
-0.196055
0.0238847
0.00628909
0.00785653
-0.00780088
-0.0207545
-0.390052
0.138168
-0.4326
0.482201
-0.0496006
0.00284077
-0.260248
0.363203
-0.102955
0.193026
0.294009
0.167814
0.306646
0.241577
-0.367442
0.125862
-0.146726
0.0195152
-0.187835
0.168319
-0.131104
-0.374366
-0.0774241
0.362822
-0.461006
-0.445047
0.315427
0.129617
-0.465497
0.171978
-0.316843
0.151351
0.00828559
0.160861
0.262082
-0.422943
0.271124
0.15488
0.219913
0.171657
-0.189958
-0.46381
0.184653
0.00261243
0.409221
-0.134352
0.368618
-0.127043
-0.325898
0.485131
-0.159234
0.294944
0.244896
-0.131494
0.237725
-0.453727
-0.132897
0.300345
-0.217734
0.122866
-0.253286
0.28877
0.157814
-0.446585
0.0226037
0.0421016
-0.0647053
0.0111338
0.00879513
0.322453
-0.211165
-0.445377
0.27223
-0.297554
-0.0730717
0.255936
-0.199335
-0.190938
-0.0739341
0.264872
0.0836988
-0.207544
0.123845
0.1605
0.0156334
-0.176133
-0.106892
-0.225496
0.332386
-0.327703
0.409928
-0.082225
-0.0878707
-0.405156
0.187498
-0.0153279
-0.138329
-0.495693
0.205267
0.290424
0.0777051
-0.195272
0.117567
-0.0697396
-0.0919012
-0.0737229
-0.163499
0.237221
0.141445
-0.265892
-0.171734
-0.135024
-0.138865
0.448124
0.234503
0.118909
0.264908
-0.19141
-0.0734987
0.152511
-0.401018
0.248505
0.193401
-0.171751
0.216954
0.140487
0.0254815
0.162083
-0.187565
0.297851
0.133859
-0.431711
0.358141
0.088507
-0.446647
0.150071
0.230063
-0.315827
0.269711
0.109813
0.486727
-0.310688
-0.176042
-0.119831
0.513204
-0.267112
-0.246091
-0.025889
0.146532
-0.0113112
0.209342
-0.327545
0.1182
0.234161
-0.357161
0.122998
-0.0432705
0.211671
-0.168401
0.238818
-0.362493
0.123672
0.106614
-0.366862
0.165653
-0.244262
0.0786084
-0.295959
0.292363
-0.125067
-0.167297
0.338168
-0.346229
0.00805937
-0.261877
0.478704
0.0682156
0.431241
-0.133391
0.0209376
-0.132454
-0.0785045
0.00963718
0.0186161
-0.0282533
-0.289081
0.346263
0.133525
-0.428793
0.165385
-0.239108
-0.0628756
-0.0161757
0.0790513
0.170213
-0.243953
0.0737395
0.137928
-0.420113
0.0241344
-0.340021
0.315886
-0.444161
0.000937031
0.443223
0.234851
0.278352
-0.474513
0.312346
0.162166
0.227262
-0.143564
0.35523
-0.116413
0.320427
-0.233378
-0.0870494
0.0339742
-0.00938696
-0.0245872
0.526822
-0.273451
-0.299992
0.148505
-0.336257
0.187751
-0.0900088
0.131553
-0.408737
0.277182
0.375176
-0.165837
0.328804
0.0927867
-0.0341751
0.0171793
0.0169958
-0.290846
0.458407
-0.167562
-0.270607
0.402158
-0.161788
-0.312727
0.0260726
0.108498
0.0386835
0.201616
0.419484
-0.292952
-0.126533
-0.458206
0.140697
0.317505
0.23959
-0.3892
0.14961
0.232441
0.0879842
-0.12019
-0.0132237
-0.473077
0.162965
-0.435655
-0.0166484
0.027204
-0.258852
0.231648
-0.326751
0.443286
0.468338
-0.282952
-0.185386
-0.102918
-0.23386
0.336776
0.0473644
0.197202
-0.285328
0.448287
0.495681
-0.333404
-0.162278
0.213135
-0.020462
-0.13252
0.349473
-0.00246749
-0.131131
0.432815
-0.301691
0.0121566
-0.0246926
0.0125361
0.508054
-0.356235
-0.151825
-0.0686841
0.00265925
-0.0980723
-0.26654
0.168054
0.0194437
0.480523
-0.0519966
0.350108
-0.0119414
0.115216
0.25905
-0.374266
-0.148924
0.388514
0.0589727
-0.249911
0.286762
0.152386
-0.439152
-0.431318
0.291871
0.139445
-0.0113261
-0.271088
0.0128792
-0.0111059
0.25971
0.178557
-0.469405
-0.450752
0.173586
0.27716
0.105527
-0.315975
0.210447
0.319041
-0.170538
-0.0919034
0.454724
-0.135112
-0.257448
0.392557
-0.356811
0.374697
-0.224631
-0.391527
0.265548
0.309094
-0.464425
0.181472
0.28295
0.0707242
-0.143908
0.00374263
-0.191358
0.187615
-0.104229
0.128699
-0.197511
-0.193601
0.391112
-0.0210126
-0.0131625
-0.25062
0.394627
-0.14401
-0.06024
-0.240563
-0.11494
0.289689
0.168717
0.265579
-0.440789
0.175205
0.503335
-0.324173
-0.179164
-0.415898
0.454833
-0.0389372
-0.262672
0.127647
-0.15354
-0.0522557
-0.0788651
-0.0691532
0.206093
-0.178889
-0.47307
0.311041
0.162029
-0.1529
-0.253615
0.406512
-0.23232
0.0498911
0.205341
0.0560957
-0.0618249
-0.136683
0.198507
-0.444548
0.0693888
-0.417612
0.14452
0.27309
0.177509
0.318171
-0.00851271
0.00796883
0.000543877
-0.0797918
-0.119792
0.199583
0.1979
0.444198
-0.45841
0.0142084
0.135707
-0.137293
-0.0271639
0.207672
0.260666
0.00130677
0.232575
-0.281471
0.0488963
0.190057
-0.296484
0.106426
0.516215
-0.167321
0.490762
-0.157623
0.0304882
0.0559308
0.19694
0.0976817
-0.294623
0.324456
0.155662
-0.480118
-0.0546684
-0.13439
0.189059
0.0492398
-0.134159
-0.262246
0.396401
-0.21661
-0.326299
-0.210357
0.430034
-0.219678
-0.242312
-0.163859
-0.136474
-0.255121
0.391592
0.237006
-0.399392
0.162381
0.159093
-0.387542
0.228448
0.0965319
0.251636
-0.348171
0.142564
-0.340844
0.19828
0.212888
-0.201471
-0.0114167
0.339126
-0.35553
0.0164018
-0.0879387
0.284877
-0.208699
-0.127467
0.336166
-0.00499784
-0.00351487
0.0124954
0.370208
-0.142023
-0.289182
0.0309771
0.0737349
-0.104712
0.321873
-0.296065
-0.0258091
-0.448053
0.267994
0.180058
0.451808
-0.162121
0.319878
-0.455934
-0.123223
0.307377
-0.184155
0.0213414
0.300531
-0.418659
0.454328
-0.0356708
0.124147
0.149174
0.33676
-0.194197
-0.110503
0.295196
-0.184694
0.00094991
0.0330243
-0.0226784
0.241171
-0.522705
0.299907
0.222796
0.234618
0.131843
-0.366463
-0.0296261
-0.234654
0.26428
0.211195
0.284968
-0.459827
0.174858
0.0817996
-0.0377075
0.285804
0.143823
-0.429633
-0.0854478
0.197129
0.198351
0.0147839
-0.399477
0.258684
0.140789
0.27104
-0.429149
0.158106
0.216326
-0.431282
0.214954
0.310348
-0.172435
0.141786
0.0095495
-0.151336
-0.0460031
-0.420134
0.115213
-0.312725
-0.186082
0.138314
0.0251189
0.278995
-0.0464202
0.30885
-0.203324
-0.337775
0.232473
0.105302
-0.148395
-0.26107
-0.101263
-0.0729147
-0.160283
0.380682
-0.220401
0.0806852
0.0504641
-0.131149
-0.0117314
0.17446
0.266917
-0.394881
0.127962
-0.221558
0.0902552
0.131303
0.109392
-0.423995
-0.0338393
0.457834
0.196952
-0.177437
-0.160898
0.445866
0.373495
-0.22452
0.151215
0.0988818
-0.293647
0.194764
-0.282757
0.323144
0.47255
-0.182875
-0.289676
-0.32011
0.455641
-0.135536
0.384504
-0.231995
-0.264722
0.307203
0.489659
-0.391617
-0.153368
0.418943
-0.159309
0.430346
-0.0367002
0.367669
-0.133052
0.282695
0.155161
-0.437857
0.19054
0.0223477
0.213511
-0.152263
0.192552
-0.417516
0.224964
0.178901
-0.169284
-0.0874108
-0.318657
0.255423
0.493399
-0.42649
-0.0669093
-0.2888
-0.110681
0.151977
0.00852272
0.278162
-0.518602
0.240438
-0.315295
0.440114
-0.124821
-0.257253
0.196813
0.0604392
0.49963
-0.322122
0.30829
-0.0810283
0.207524
0.106349
-0.313874
0.212776
0.11156
-0.324338
-0.109929
-0.106796
0.216725
0.269342
0.125022
-0.394367
-0.0216525
-0.153832
0.409828
0.0835704
0.341573
-0.00244945
-0.240117
0.150084
0.0900332
0.0758196
-0.0121633
0.0271095
-0.2548
0.225174
-0.291323
0.475397
-0.0900138
0.325477
-0.235466
-0.265374
0.351184
-0.0858105
-0.405597
-0.0394522
-0.0685029
-0.188751
0.132043
-0.379477
0.197427
0.27344
-0.470867
0.191385
0.102882
-0.294268
-0.382234
0.139916
-0.211602
0.370693
0.422532
-0.0358959
-0.21928
0.28804
-0.189159
-0.194853
0.356185
-0.161332
0.109291
-0.434287
-0.468839
0.330114
0.138721
-0.0982757
-0.292234
0.390509
0.333228
0.143048
-0.00126177
0.233579
0.0755946
-0.309174
0.304522
0.168028
0.0151553
-0.00178215
-0.0133732
0.0106044
0.202907
-0.193862
0.487842
-0.293981
0.00137404
0.076659
-0.463661
-0.0562842
-0.0143084
-0.332062
0.172233
0.496598
-0.244613
-0.0844878
0.29201
0.410577
-0.303964
0.115488
-0.352654
0.237163
0.0158445
-0.0787201
0.361222
0.128436
-0.189721
0.128714
-0.109098
-0.385137
-0.0307621
0.305199
0.136638
-0.441837
0.405716
-0.135129
-0.0217736
0.226685
0.0816054
0.231199
0.137417
0.313224
-0.0588806
0.454719
-0.311975
-0.142749
-0.419767
0.258732
0.316542
-0.125157
-0.123048
-0.268971
0.392015
-0.0712526
0.10223
0.205993
-0.388523
0.182528
-0.257757
0.0803546
0.177402
0.158058
0.290702
0.354648
-0.148657
-0.141197
-0.327646
0.348591
-0.233106
0.190432
-0.18669
0.337853
-0.104275
0.242941
-0.0686965
-0.174245
-0.209847
0.028333
0.181513
0.136549
-0.391967
0.255416
0.221916
-0.376761
0.154841
0.484049
-0.231867
-0.252182
0.179566
0.246411
-0.425982
-0.359369
0.164515
-0.025394
-0.427767
0.453152
-0.145257
-0.12486
-0.127265
0.284959
-0.481971
0.133155
0.500421
-0.342845
-0.157576
-0.411777
0.0916634
-0.0171305
0.0154739
0.00165663
-0.382041
-0.0505597
0.158377
0.250843
0.204854
0.0192557
-0.22411
0.301002
-0.150786
0.176268
-0.249041
0.428601
-0.20143
0.487933
-0.286506
-0.145129
-0.17231
0.317438
0.126304
0.262133
-0.388439
0.186366
0.345767
-0.11457
0.296863
-0.106807
0.240932
-0.369956
0.129022
0.0580174
-0.224514
0.06296
-0.0791357
0.293276
0.218684
0.136545
0.271749
-0.437168
0.165415
0.270416
-0.441164
0.170748
0.385119
-0.248571
-0.139891
-0.262358
0.402246
-0.318263
-0.177364
0.20025
-0.311888
0.111636
0.155093
-0.28858
0.192923
0.286495
-0.479418
-0.109321
0.0594782
0.0498424
0.0122567
0.129758
-0.369022
-0.148254
0.481095
0.173981
-0.193552
0.0195712
0.0235316
-0.287641
0.264108
-0.157546
-0.0106128
0.168159
-0.188805
-0.123042
-0.142315
0.265357
-0.00561298
-0.00911953
-0.33846
-0.157103
0.495558
0.437257
0.325489
0.16991
-0.091528
-0.202654
0.285562
-0.423283
0.137721
0.170103
-0.431676
0.105111
-0.190558
0.451095
-0.211165
-0.23993
0.437651
-0.288256
-0.149397
0.192602
-0.0186213
0.033023
-0.00839219
-0.0246308
0.0358706
-0.0334246
-0.322018
0.179209
-0.317215
0.172445
0.144768
0.0898305
0.194101
-0.283934
0.220745
0.124337
-0.345082
0.20293
0.296699
0.530223
-0.219774
-0.310451
0.175902
-0.191822
0.0159202
0.291481
-0.376865
-0.041795
-0.176544
0.00259662
0.00804781
0.164146
-0.239224
0.0750777
0.0388398
-0.334887
0.296047
-0.158393
-0.314678
-0.18061
-0.0771473
0.350223
0.0874276
0.24842
-0.338436
-0.0740495
0.373112
-0.132182
0.259967
0.0365208
-0.296488
0.532581
-0.202714
0.259525
-0.135378
0.231582
0.106796
-0.338379
-0.262176
0.409172
-0.146996
0.257857
-0.247088
-0.0107706
0.252032
-0.400801
0.148766
-0.198792
0.359653
0.413944
-0.108745
-0.21772
-0.304986
-0.285758
-0.2025
0.488257
-3.39214e-07
-0.221851
0.22185
0.435051
-0.164636
-0.167391
0.314815
-0.147424
0.0234114
-0.0768086
-0.293658
0.406169
-0.112511
-0.0836484
-0.0542384
-0.442455
0.243021
-0.303661
0.3425
-0.186024
0.0324842
-0.371555
0.172763
0.237302
-0.363575
0.126271
0.0957472
0.190753
-0.144455
-0.197814
0.287642
-0.173605
0.173604
0.27131
-0.247779
0.0825644
0.182344
0.197265
0.00853363
0.295451
0.23477
-0.511126
0.186625
0.324499
-0.248664
0.298102
-0.0494381
0.197693
-0.427866
-0.0145892
-0.291908
0.510491
0.315563
-0.115314
-0.422853
0.26995
0.170362
0.297779
-0.396056
0.235507
-0.157803
0.0169627
0.00989986
-0.0268625
0.249309
0.136276
-0.220974
-0.170955
-0.289356
0.146599
0.252768
-0.39937
-0.174352
0.414463
-0.147547
0.18022
0.132533
0.278045
0.191511
-0.202086
0.0105745
-0.0702799
0.330246
-0.156114
0.377568
0.447274
-0.0453105
-0.210789
-0.0974755
0.308264
0.157762
0.248468
-0.406232
0.394125
0.0060683
0.184364
-0.0142145
-0.002916
-0.201474
-0.243221
-0.0486488
-0.0517087
0.270657
0.143804
0.00722662
0.00884647
-0.00672816
-0.0427479
0.0494761
0.00595481
0.0270681
0.136283
-0.0661975
-0.0700852
-0.168241
-0.0145166
-0.323085
-0.341748
-0.129837
-0.157438
0.144113
0.0133248
-0.251942
-0.411696
0.244151
0.250691
0.136662
-0.387356
-0.138479
-0.0286634
-0.220001
-0.157404
-0.136825
-0.375931
0.0441896
-0.365508
-0.0552024
0.0715269
-0.156484
-0.0146736
0.171157
-0.415746
0.138297
0.277449
-0.146867
0.126604
0.0202631
0.210828
0.0758094
-0.286638
0.429053
0.146467
-0.413023
0.266555
0.127819
0.267962
-0.395785
0.0189444
-0.133172
0.165673
0.37201
-0.444649
0.223586
-0.0330468
0.151589
0.0102908
0.000519375
-0.0106603
0.0126387
-0.00634961
-0.0523127
-0.146997
0.199309
-0.0180996
0.200161
-0.182062
0.201218
0.230023
-0.0189169
0.25559
0.00226683
0.235806
0.221572
0.188485
-0.398842
-0.221201
-0.100817
0.0142984
0.115382
-0.12968
-0.0191244
0.222556
-0.0643692
-0.33519
0.269236
-0.444646
0.435535
-0.0609964
-0.0483243
-0.278401
-0.116481
-0.161005
-0.314023
0.168893
0.242793
0.208301
0.435886
-0.419807
-0.01609
-0.464401
0.170348
0.294053
-0.283642
0.160598
-0.464423
0.171052
0.293371
-0.333819
0.497113
0.301687
-0.155673
-0.146015
-0.347125
0.102774
0.244351
-0.184615
0.0211157
0.00483294
-0.0259486
-0.225273
0.234673
-0.336115
0.101441
-0.0598733
0.0471303
0.012743
-0.213065
0.181684
0.0313802
0.160358
-0.0926622
-0.318113
0.410775
-0.1312
0.400435
0.251136
0.136024
-0.387163
-0.160622
0.42694
-0.266325
-0.255504
-0.220197
-0.188887
-0.277741
0.504475
-0.209823
-0.294653
0.0972505
-0.00905773
0.28984
0.126694
-0.416534
-0.164513
0.0274878
0.169464
0.198222
-0.282395
0.084173
0.198304
-0.0224023
-0.304488
0.0995594
0.204927
0.195872
0.104473
0.303609
0.11651
-0.420119
0.106499
0.195187
-0.140162
-0.249418
0.389578
-0.258808
-0.151171
0.409977
0.23391
0.119782
-0.332029
0.48135
-0.149324
-0.0180636
0.15087
-0.132806
0.180808
0.277826
-0.458636
-0.142781
-0.122641
-0.282365
0.405006
-0.256278
-0.171522
0.427799
-0.127678
0.316278
-0.272089
-0.47615
-0.0814251
-0.176177
0.257602
0.254789
0.128423
-0.383213
-0.412101
0.142123
0.329978
-0.0604106
-0.0824849
0.266978
0.10039
-0.367369
0.297452
-0.466422
0.16897
-0.0369048
-0.0843186
-0.069701
0.280529
-0.0248252
0.00815612
0.0166691
0.165892
0.0801317
-0.246024
0.452138
-0.291028
-0.161113
-0.427921
0.0958883
-0.0126364
-0.0472369
-0.172852
0.143271
-0.281273
0.470436
-0.172984
0.238984
-0.168671
-0.0703133
-0.167096
0.481794
-0.161916
0.472898
-0.186241
-0.286659
-0.168935
0.461224
-0.292293
0.381739
-0.255436
-0.27652
0.360525
-0.0840068
0.313317
0.129064
-0.442381
0.419135
-0.147826
-0.202639
-0.171509
0.132203
0.267688
-0.399895
0.481362
-0.145479
-0.209939
0.45314
-0.243202
0.167938
-0.469789
0.301852
0.242189
0.262286
0.403411
-0.148624
-0.427603
-0.0118018
0.439404
-0.0298244
-0.0348446
-0.00154062
0.0363852
0.100109
-0.427812
-0.0137062
0.0306688
0.419381
-0.261004
0.195453
0.00181103
-0.0415727
-0.417802
-0.0967087
-0.185652
0.168283
0.0173691
-0.00293288
0.00683645
-0.00390357
-0.146149
-0.264774
0.410919
-0.240685
-0.0671961
0.307881
-0.328181
0.136944
0.0278824
0.249699
0.295749
-0.426453
0.130704
0.407368
-0.260772
-0.145233
0.446076
-0.359836
-0.0184658
-0.169369
0.00729302
0.164754
0.0166152
0.0921315
-0.108747
0.110917
-0.336415
-0.481895
0.275246
0.456597
0.497578
-0.345501
-0.152079
0.106346
-0.327226
0.220879
-0.277225
0.394997
-0.117776
-0.0271031
-0.0394767
0.191379