/*--------------------------------*- C++ -*----------------------------------*\
| =========                 |                                                 |
| \\      /  F ield         | OpenFOAM: The Open Source CFD Toolbox           |
|  \\    /   O peration     | Version:  v2012                                 |
|   \\  /    A nd           | Website:  www.openfoam.com                      |
|    \\/     M anipulation  |                                                 |
\*---------------------------------------------------------------------------*/
FoamFile
{
    version     2.0;
    format      ascii;
    class       volScalarField;
    location    "450";
    object      omega_0;
}
// * * * * * * * * * * * * * * * * * * * * * * * * * * * * * * * * * * * * * //

dimensions      [0 0 -1 0 0 0 0];


internalField   nonuniform List<scalar> 
18355
(
0.0338131
5.57979
0.021894
0.021658
0.0223201
0.0735075
0.0219567
0.054525
0.0233134
5.6601
0.0215246
6.08923
0.0871607
0.0219764
0.0220493
0.0235208
7.38289
0.0217294
0.0219985
4.99996
0.0254375
0.0223525
4.77432
0.022325
0.0246441
0.0221469
0.0220717
0.0230943
2.03908
0.0219599
0.0219527
0.0230046
0.0217312
0.0217945
0.0528941
0.0347879
0.0225413
0.169335
0.022976
0.0215407
0.0219766
0.0843575
0.0218943
8.0552
0.0217741
0.178424
0.0494971
0.0237779
0.0443413
0.0217507
0.0215555
0.0218172
0.0222771
4.66426
0.0220844
0.0220741
0.112929
0.0220745
3.64465
0.133283
0.0217565
0.0590263
0.0217121
0.0431179
5.52135
0.032788
7.83368
0.0321678
0.0220779
0.022294
0.0601045
0.0222568
0.143006
0.0217972
0.0546201
0.021953
5.69033
0.0229734
0.0273691
0.0218003
0.0219684
0.851548
0.0252096
0.0456897
0.0221387
0.0856938
7.43611
5.00538
2.05845
4.77189
0.284405
0.0218344
0.0221087
0.0214833
21.6038
4.6702
0.0217636
0.0253908
4.58674
6.41118
6.99506
6.7853
0.0421655
4.73509
0.0225143
0.0923089
9.58203
0.139441
0.0310493
0.339026
0.0219319
0.022771
0.0221486
0.0228929
4.57744
0.0220032
4.7122
5.65088
4.48748
0.0423039
5.3092
1.68218
0.0229104
0.0596966
0.0217638
0.151058
0.0218136
0.0222619
6.30739
0.0214899
0.021562
3.50209
0.0454564
0.0251704
0.0419941
0.0222579
0.0218984
0.0215226
0.0219615
0.0782355
4.2973
2.15217
0.0223071
0.0219317
0.420211
0.0222515
0.025626
8.99526
0.0233868
8.67898
0.0221737
0.0222738
0.0496913
3.6891
0.0753601
0.0222699
3.4149
3.63971
0.0222675
0.0625816
0.026807
0.0244002
0.0298728
0.0255308
0.195486
2.11566
10.4149
0.0419789
0.182058
0.0217657
2.37771
4.60731
0.021528
0.0215325
0.0235089
7.86392
0.0603254
0.0221006
3.93128
24.0399
0.0770582
0.180856
0.027216
0.0219123
0.217808
7.34894
4.87945
0.186388
0.0233737
8.54283
0.110641
0.0218932
0.0253527
5.25653
0.0482797
0.0223217
1.87018
0.026896
0.0373736
0.0215353
0.0227259
0.0240298
13.0225
4.74392
23.0054
0.0283846
3.45588
5.46281
5.48754
0.0369263
0.0218999
0.0221215
4.99114
0.0222451
0.021768
0.777128
4.52147
4.98275
0.0221561
0.023324
0.582046
0.0219543
0.0442567
0.0218805
9.00964
0.0221648
5.13536
7.65255
0.122622
0.0218993
0.022274
0.0268566
0.0260658
5.40882
0.0226774
0.0221397
0.0221097
0.202065
0.940928
30.8733
0.0303803
0.181957
0.0220012
0.021779
0.0222199
10.0144
5.4757
3.3188
0.0746869
0.0266901
0.0227338
6.94217
0.0274279
5.83131
0.0220912
4.97595
4.77722
0.0626763
0.0219428
0.0219111
0.0318294
0.0656371
16.0126
0.0469417
0.0218291
0.0217688
0.0222634
0.19912
0.082496
0.102445
0.0226974
5.06539
0.201799
0.0889459
0.0221727
1.98247
0.0218032
0.0219873
10.3485
0.0218089
0.0219513
0.0901713
0.0219115
4.08224
0.0271957
0.0242601
0.0218276
0.0419877
5.45333
0.0230443
0.0216653
0.0219845
0.112807
4.60849
0.0222672
0.0222792
4.64704
0.0446819
0.0767871
0.245052
0.0219917
0.0611966
0.0225071
0.0222689
0.223104
0.204232
0.428696
0.119882
0.0214992
0.0867506
0.0224066
0.0219984
3.04708
0.0219166
0.203502
0.0835087
0.0221009
0.0215859
0.190328
12.0107
5.87424
0.0221053
0.0290498
9.14438
0.021661
0.982716
0.0268587
0.0330442
0.379282
0.0215018
3.17261
0.0219717
0.0445961
0.022123
0.0756476
5.24188
0.0222708
18.7158
0.034464
0.0220407
0.0480517
0.0601556
5.15014
4.6977
4.71977
0.0220778
0.0217059
4.85311
0.0621166
0.0221172
0.0224683
0.85758
0.216421
4.2231
5.03409
0.0220941
0.0232392
3.46424
0.0219268
0.0225817
0.23959
0.037408
0.023827
10.2904
0.0222757
0.0467137
0.694928
33.4936
0.0216604
0.0220052
0.0219662
0.0217716
0.0657251
0.0217709
0.0398025
0.021969
0.0241589
0.0220975
0.0231838
0.0217785
0.0219842
0.0217697
0.0217655
0.0231959
0.125418
3.71975
0.021879
5.91344
0.0347229
3.41227
0.0315917
0.0698717
0.0222659
5.66944
0.0224602
0.0220082
0.0221328
0.0216299
4.61944
0.0239557
0.0216688
0.0416368
0.0392666
0.0219257
0.0216567
5.79518
0.0222823
0.0218079
4.93856
0.0219136
3.61334
8.80917
0.236989
0.0252703
0.0224972
4.98452
0.0222455
0.0219376
4.42637
0.0222693
0.0215298
8.97852
0.0217898
5.05872
0.0433063
0.065064
7.46139
0.022413
0.0219386
5.62565
0.0725529
2.48375
4.44594
0.0219741
0.0219217
0.0222394
4.87937
0.0438051
0.0220222
0.0222749
0.0222317
0.0493457
3.79401
0.0272246
0.0222028
0.0222754
0.0310744
0.311074
4.56809
4.97816
6.29844
0.0525959
0.0471478
6.41706
0.0219676
0.0218374
0.0219843
0.0218755
0.0634309
0.0220117
0.0216185
7.05043
0.050317
0.0455655
4.88009
0.0547969
9.53045
0.0218669
0.0217708
0.0219458
0.0219735
0.0222834
0.0222813
0.0219968
2.00262
0.0221032
0.0215357
1.29357
0.13492
0.0218463
0.0227157
0.0568033
12.0067
0.0232733
0.0217601
5.38452
0.0237321
3.06282
0.0271274
0.0217809
6.71815
0.134301
0.0217249
6.2813
2.92612
6.51114
0.0217814
0.0217482
0.0255882
0.109639
0.0223562
4.42964
4.78899
5.79475
1.23725
0.0216218
0.0426464
5.17595
4.68311
4.82077
0.0221268
0.0265682
0.0267758
4.87701
6.33063
0.306948
0.0221689
0.0219608
0.022124
0.0445603
0.0220013
5.61471
0.0271041
4.62211
0.0219814
0.022187
0.021911
0.0313701
0.0318094
0.300883
0.0219274
0.0882865
4.82635
0.0296843
0.0219412
0.023863
0.0305118
0.022272
0.0318469
0.0378891
0.0293918
0.144726
0.0225554
0.0217211
0.0219895
0.0222786
0.0404787
0.0237928
0.0594272
0.0218617
0.0223254
3.67699
0.0215125
0.0321645
0.0224667
0.15389
0.0240253
4.59773
0.0224078
28.9164
0.0258005
0.0238544
4.80623
3.704
10.9277
0.0297231
0.0237619
0.0217907
0.0219599
0.100365
0.0466638
0.0329726
0.080878
2.08272
0.198219
0.0219256
6.47498
5.25927
0.0228282
0.0219574
0.0320982
4.66801
0.0319548
0.0222168
0.0604066
0.134376
0.0544816
0.0301024
3.67327
0.0251516
0.0860614
8.53983
0.445954
3.75434
0.0560129
0.170225
0.0267463
0.0220783
0.022862
0.0219546
0.322742
0.317862
6.32973
0.118334
4.91655
5.37326
0.0550141
0.0237863
7.36896
11.6375
0.0215366
0.133233
6.76334
6.27281
0.0273461
0.021608
0.0250807
0.0255176
0.0301412
0.0776276
0.0219138
29.3171
0.023267
0.0246938
4.75714
0.0218625
0.0322375
4.91509
0.0219434
0.0227852
4.92771
0.0217572
0.0883891
0.0215109
4.01297
0.0299478
0.0406672
0.0334473
0.0250991
0.106894
0.0248953
7.53866
0.0734148
0.0219017
9.20511
0.041389
3.70158
7.9151
0.679793
0.278674
0.0219298
0.0216342
3.33782
0.0239726
0.0323753
0.0222396
0.0268522
6.19519
6.26302
0.0410154
17.2192
0.0615955
0.0233531
0.0216095
0.0222298
0.0428749
0.080655
0.0216827
10.522
0.028837
0.0446232
0.0219914
5.86699
5.42599
0.0219616
0.0215418
0.0735978
0.0222467
0.0217213
5.61832
0.142535
0.0223407
0.0219575
0.138311
0.0443146
0.0277891
0.0595401
0.0219773
4.85873
0.0492249
0.0221475
0.348968
4.59564
0.0219564
6.40212
0.0216551
0.0219452
0.022331
0.0348889
5.62424
0.0339441
7.5592
0.0323886
4.81352
1.62161
0.0266679
5.05358
0.0220153
10.8124
0.0228073
9.53697
5.5952
0.0221204
4.48037
0.0249441
0.0261225
11.5116
0.0777485
4.86979
0.0218137
4.62735
0.0219688
7.45856
0.0220527
0.0272501
0.0298664
0.0218023
0.0216111
0.0511022
5.21023
5.09197
0.0219278
2.40915
0.0264113
0.0218097
0.0221168
0.0278402
0.113219
11.5313
0.0328547
0.0220381
0.026938
4.55853
0.0271165
0.0219204
0.021799
0.0274975
0.0294708
16.3927
0.021859
0.837697
0.0488723
3.89237
6.4299
7.81873
0.0215845
0.0599941
0.0218925
0.0222477
0.0274629
4.05459
0.0218341
0.0217913
0.0217769
11.1328
0.0232264
0.0219242
0.0328002
0.0310681
4.99499
7.74753
0.0219329
0.0219767
4.84558
0.0221441
5.59262
5.07377
5.54535
0.183114
0.224631
5.09881
0.0303455
0.0221654
0.021787
0.0219921
0.0222615
0.0221089
0.0222891
9.4389
13.3148
0.0221848
0.0901848
0.0217684
0.0234216
0.0386663
0.0220847
0.0248876
0.0228825
0.472862
3.10433
0.0602914
4.85714
0.0502183
6.45316
0.0870779
5.03449
5.62795
0.0497047
4.41413
0.206939
7.27289
0.0217843
0.0219713
0.021976
0.0256894
4.97232
0.0217639
0.0222764
0.0740678
0.0218353
0.0439785
0.0411317
0.0222174
4.94007
0.0218799
0.0219765
0.143098
0.0216867
0.162413
0.37905
0.0220677
0.0226719
0.0218118
0.0627125
0.0218286
0.0234501
1.04951
0.0219815
4.96177
0.0220971
5.00436
0.024326
0.106138
0.0219589
0.0749367
0.037664
0.0221724
0.0220732
5.13657
0.0219556
9.01861
7.92975
0.0226835
0.0221127
0.0220772
0.0215725
6.20745
0.0219572
5.21689
16.1609
0.0443701
7.73857
0.0218252
0.0218972
5.93965
5.30743
0.0244864
0.0219987
0.0219424
0.0217763
0.0229783
0.04407
1.10863
0.0247995
3.44401
2.60351
4.3308
0.033078
0.0218592
9.69209
2.25265
0.0329672
0.0219614
0.0221127
5.91015
0.0220066
4.0083
0.0636604
0.0222529
0.0280037
0.0216228
0.0325119
0.0264623
0.0218382
0.0215208
0.0228615
7.4322
0.0222227
0.0616981
6.61087
0.0220841
0.0219136
0.0452972
2.37446
0.0305895
4.75638
0.0224474
0.0215652
0.023421
9.50733
0.399679
1.83575
0.0218738
0.0308213
0.0219699
4.69479
0.0216545
4.95151
0.0473527
6.2047
0.0221918
0.0219212
0.222063
0.0219318
9.0362
0.0219353
3.29076
0.0222563
0.0217755
0.0240568
0.640773
5.135
0.0263433
0.0223834
0.0224366
0.0219013
0.0216766
0.0222809
0.0990953
0.0222946
4.76279
0.0236485
5.26778
0.0218302
0.0215894
0.794417
5.36313
6.51732
0.0224224
6.83295
0.021852
15.0997
0.0224861
0.167776
0.0217954
7.45585
0.0218857
0.0264295
0.0220462
0.0219011
0.0222619
4.70398
3.75375
5.27177
0.0334377
0.0256616
0.02452
0.0219885
0.0216661
0.0217575
0.0232428
0.154337
0.0220133
22.4259
0.100558
0.0219962
0.0225224
13.0359
0.100659
0.0233276
0.0243993
0.0329829
5.35776
0.0528526
11.2824
0.0607435
0.0720473
0.159847
0.0219821
0.021861
0.0738305
0.0415064
0.0218047
5.26805
0.0286045
5.24243
0.022309
0.291743
0.0335727
0.0616439
0.0272324
0.0220565
0.935086
0.0219094
16.7448
0.0220086
0.0220503
5.35724
0.0311547
0.026355
11.365
0.0218505
0.0964419
9.30008
0.0219552
0.0718125
7.71436
0.0228183
0.0218628
0.0219228
0.023885
0.0238944
0.0746394
4.83253
0.0230147
0.0264188
7.74908
0.0216073
7.76088
0.0242414
0.0233399
0.376062
6.80948
0.0217461
0.021911
0.0237155
0.0216918
0.0216736
7.5017
0.0222708
0.0265144
0.0215953
0.056153
0.0217249
0.113419
0.943783
0.0226961
4.75568
0.0219364
0.0235844
0.0218828
5.12646
0.0282704
0.0218673
0.021993
0.0220911
0.0218812
0.0909356
6.18856
8.33552
9.26965
0.0221848
0.0224097
0.0782614
0.0221448
0.0216603
1.72844
5.14509
0.0236319
0.0218979
7.83885
0.0222263
0.022187
4.94452
0.0747534
4.47499
0.0232013
0.0218555
4.88113
0.02217
0.0325354
0.0222226
0.0291254
0.0219765
0.0697827
0.158599
0.0416149
0.0221004
10.509
0.0226976
0.0218718
0.022148
0.0220117
0.0219341
0.0220576
5.62777
0.0223339
5.87107
0.0222177
0.0276836
5.66166
0.0218066
0.305775
0.0231452
0.021797
0.0235738
0.0713868
0.0220324
0.0218015
0.0221279
0.0219781
0.0538535
0.0216859
0.0224099
0.0290466
0.0220921
0.0319104
11.6957
4.90637
5.09416
7.32577
0.0889807
0.0614168
8.91558
5.01437
0.0218651
0.0222568
0.0216321
0.124402
5.07182
0.0383123
0.0253435
0.0215919
0.0218892
0.0221597
0.0232334
26.7084
16.9682
10.2365
0.062099
0.0221033
0.0222361
0.0221574
6.02861
2.24506
0.021795
2.50402
0.0216668
0.031779
0.0229029
0.0407199
0.0311777
0.339247
0.0231449
0.120489
0.0216452
0.0219031
0.0832393
0.0219307
0.0220647
0.054304
0.185884
0.0221297
0.07622
0.0219314
0.0219778
0.0218017
0.0219625
6.03714
0.0298781
0.0230081
0.0221365
4.91952
0.159088
0.0220738
0.0321338
0.0300609
5.23963
0.869686
6.21279
0.174616
0.0653396
0.0994538
0.119928
0.0803926
5.00243
0.0215835
0.0219191
0.0219235
0.161766
0.0221757
9.15502
0.0217642
0.0221206
5.47651
0.0531175
0.0223921
0.0760795
0.0219519
0.0230105
0.794038
0.317153
0.0219509
0.681504
0.129422
20.5186
4.78236
0.0219976
5.85258
0.0219265
0.0657609
0.0218696
0.0218433
5.5345
0.0447159
0.0235209
0.0219066
4.88901
0.0249411
5.72306
6.50522
0.0222632
0.0216423
0.0246104
5.68076
0.233859
0.0400669
0.0331064
0.195384
0.0219774
0.0224093
0.0217926
0.0218854
0.0231731
0.0548508
9.46086
0.0622781
0.0966259
5.18538
0.0220018
5.34901
0.129707
0.0498297
0.0221932
0.0219833
0.021922
0.0219177
0.0219434
24.4103
0.162446
4.6238
0.0623852
0.0832495
0.022177
0.0866178
6.87608
0.0235756
0.0248625
0.0218586
12.4208
5.2073
0.0943154
0.0985286
0.0219774
5.32211
0.0226982
0.0245521
0.0386206
0.0811536
0.0216443
0.0699251
5.21337
0.0222776
25.8182
20.4229
5.55784
24.6497
0.0355443
0.795623
0.0564353
0.0537459
5.67599
0.0218014
0.0331868
0.0216798
0.0222514
7.07689
0.0228274
5.17903
0.0216976
0.0218897
5.10432
0.0219291
15.7539
0.0227681
0.403533
0.0231485
0.0221856
4.94311
0.0244575
0.0650179
0.0218754
0.0217594
0.199674
0.209375
0.0220563
0.0281771
0.820708
0.0634243
2.48422
0.0222622
0.0219528
0.0215268
0.0219342
0.0258416
0.056887
0.0216319
6.45919
0.0218822
0.0220381
0.0591371
6.7081
0.179823
0.02804
0.021769
0.0224506
0.073962
2.04768
1.30466
11.9601
0.0260039
0.0363015
0.209997
0.0218603
0.0541889
4.88459
0.0219402
0.175773
4.75211
0.41879
0.369655
5.96447
0.0715917
0.0221028
4.48853
0.0264868
0.0419372
0.163372
0.02185
0.100251
0.0218664
0.0219858
0.048606
7.97127
0.0345281
0.0219426
0.0409852
7.72085
0.0824589
2.98909
0.0219323
7.04467
0.021651
0.0777611
0.106473
0.0219046
5.45969
0.0218019
0.0218413
0.0220723
0.0219153
5.12767
0.0748111
0.0222532
4.77585
0.0220799
6.3725
0.0216596
2.39479
0.0475099
0.254632
0.0246759
0.0218978
0.0216779
0.0220771
0.248971
0.122233
0.0221297
0.0409593
3.16077
6.01292
0.0419522
5.03815
6.70386
0.021902
7.60975
0.0217894
0.201979
0.0220052
0.0220828
0.0220028
0.066241
3.56423
0.200233
0.0960897
5.27251
0.43234
0.275961
5.18345
0.0218756
0.0768756
8.52169
0.0215382
0.0480092
6.18732
0.176057
0.0218979
4.76276
0.0665032
2.24078
2.02247
0.0267343
0.230786
0.0247032
0.0218489
0.0215874
4.99748
0.157589
0.270534
0.146708
0.0219079
2.29364
0.034606
0.0215082
0.0224496
0.0595226
0.0239242
0.0222167
0.0222692
0.990895
0.0218984
0.0425662
9.96431
0.0216807
0.0218942
1.44717
0.0218509
0.0435008
0.0267125
0.133455
2.2506
0.0219226
0.0643036
0.0277601
0.0781402
0.0271266
0.0247374
0.0950282
0.85866
0.0493872
5.59931
0.0860822
0.0220939
0.198557
5.07655
0.0702812
0.0217828
0.0220479
0.130823
0.0229107
6.45005
0.653192
0.0279782
1.98798
0.0234221
0.169004
4.85655
0.0219507
0.0221282
0.0220684
0.0219916
2.93923
0.310566
0.0248908
0.169242
0.306922
0.0466348
0.0220619
0.0237326
0.0587056
0.0219365
0.0218722
4.90987
0.0226381
4.44072
0.0218216
0.0219972
0.0222726
0.0718196
0.0383368
0.0392615
0.0220527
0.0229812
5.34858
2.58335
2.79999
2.9983
0.0256858
0.0224523
5.43544
0.0836577
4.66899
0.0526479
0.0218853
0.052919
0.0265937
0.0223234
0.0217942
0.0939574
0.0733558
5.10537
0.0774726
0.313367
0.02214
0.0228893
0.0219043
0.104469
9.83815
0.186341
3.58602
0.0218567
4.95203
0.0227209
0.0219698
0.0240435
0.0221519
0.809696
0.0219674
0.07728
0.021675
2.91357
0.032747
6.11733
0.0224011
0.0220012
0.024409
0.0217089
0.0833145
3.7391
5.17021
0.0529889
0.0216307
5.40827
0.0585541
0.0219375
0.0679172
0.0217356
0.0238345
0.0215247
0.870763
0.024722
0.0673746
0.0511645
0.0217575
13.9715
0.0216328
0.0250415
0.0223711
0.0237429
0.0217476
0.0219066
0.0301089
0.0222817
0.0251197
0.0216892
0.0237906
2.12911
4.59166
0.0224887
0.0427468
6.78906
0.0219158
0.0221579
0.030905
0.104016
0.0219159
0.0556522
2.07108
0.0229906
4.8659
3.1356
0.0219547
0.0225265
0.0604281
0.0214691
5.20184
4.93852
5.47487
0.02298
0.0279358
0.0214965
2.11758
0.028478
0.472301
0.0222428
0.144843
8.88058
0.0781787
0.0234302
1.53499
7.82532
4.85277
0.0224127
0.0217518
7.59479
2.67725
0.0218093
0.0221019
0.384933
0.0224884
0.203798
1.9587
0.0217372
0.0225203
2.58205
0.0659256
0.0225606
0.0214991
0.0421806
0.0222949
0.23586
0.0218831
0.0221055
0.0219431
0.0229538
0.0220638
0.101143
0.0217416
0.0257468
4.81567
4.93904
8.51397
0.0218129
0.0808567
0.0771742
0.0220914
0.0246545
0.0393426
0.021907
0.0237631
6.2441
0.0558734
0.0219558
0.0220134
0.0217706
5.50157
4.71825
0.0217227
0.0222714
0.0219848
0.0590977
5.60151
0.02366
0.0774216
0.0221434
0.0629184
0.0271556
0.299236
11.5308
0.0222439
0.840985
5.10046
0.0407199
0.0218217
0.0412305
0.0284517
0.0438555
0.0264938
0.0218043
0.10546
0.0271252
1.54022
0.0423713
0.0221798
0.022283
5.00821
0.0221172
0.0233909
0.184412
0.0428753
6.14427
2.2719
0.0217818
0.273817
0.600973
0.324032
0.0449643
0.0237211
0.0220617
2.93262
0.0454705
0.0218272
0.0724581
0.0637564
2.19129
5.83759
0.0220617
0.0280236
0.022234
0.196571
0.99206
0.0221877
0.0592951
0.0257915
0.0232748
0.022189
9.50878
0.0674304
0.0219556
0.023701
6.50858
0.0222614
0.0220088
0.0261405
0.0709063
0.0219742
0.0221615
0.0235449
5.86794
0.0298582
0.0218194
0.0218328
0.0218841
0.121354
0.0219955
0.0219463
0.673976
5.80358
0.021856
0.0222647
0.0560722
0.0294734
0.0916455
0.0221273
2.32301
0.0219045
0.0227807
0.0289059
6.29629
10.5842
0.458331
0.0406253
5.93567
1.97489
8.16754
6.02063
0.0244138
0.0219516
0.0216867
0.0417031
0.0218931
0.0219562
0.0219144
0.189713
0.021872
7.88031
0.0314179
4.84438
0.0218774
4.53809
0.021987
0.0276606
0.0216902
0.0229306
0.0407965
0.679098
0.0221568
0.0218495
0.0249048
4.61291
0.0219095
0.0389825
0.0221939
0.0383238
4.40456
0.241507
3.76876
0.0306514
0.191299
0.0221258
4.97581
10.5018
0.0218825
4.74477
1.99769
0.0219013
0.021525
0.045416
0.0305459
0.0431689
0.0216946
5.9593
0.0329638
0.0602913
0.0216166
0.0219554
0.0261862
5.6372
1.68284
5.73261
0.0413277
5.76561
0.0391748
9.94255
0.021936
2.64657
0.0219727
0.026893
0.918053
0.0231579
0.192962
0.0218676
0.0245034
6.60922
2.94156
0.021965
1.99487
0.0220005
4.8795
0.0218005
4.95343
5.14246
0.0218115
6.20074
0.0273004
5.66619
0.0219758
0.0263452
0.0228145
0.0875778
0.0220208
0.471344
0.0218051
6.86633
0.0780621
4.98682
0.0221371
0.0216895
1.65859
0.0230729
0.0317379
0.0218853
0.085715
0.0244992
0.0219736
2.59481
0.022023
0.0219401
0.0222731
0.022073
4.75408
0.0388173
0.0219531
5.79734
4.17431
0.536247
0.0216839
0.0897989
3.40786
0.021832
0.0258837
0.0223538
0.0220417
0.0219508
0.0219981
0.0271485
0.0282877
5.7545
0.354837
0.247985
0.0222777
0.0219549
5.00426
0.0353978
0.0219281
0.0223218
4.00237
5.21837
0.0219831
4.9829
0.0390351
0.535085
0.0222785
5.86417
0.0217533
0.0227801
0.0221008
0.021886
0.0234137
6.54436
0.0217335
4.58189
0.151558
3.88307
5.06854
0.0221025
0.0220086
5.08234
0.0677047
0.0996252
0.02198
0.113058
0.0221799
5.68169
5.73089
5.57598
0.0220719
6.28897
12.0498
4.68798
0.519909
0.0256915
0.133073
0.0218544
0.328308
4.71784
0.0288636
4.69977
0.0218199
0.0220413
0.0707431
3.85222
0.0402878
1.06208
0.0219875
8.89424
0.039634
0.0519854
0.0218216
0.0407645
0.272623
0.0220379
0.0384255
0.0400536
0.21593
0.0215827
0.0219037
4.69854
5.03308
0.0237645
5.0582
0.0394936
0.0219932
8.85244
9.31018
0.0220967
0.536522
0.0217024
0.0220745
0.045815
4.83416
0.0222607
5.1649
0.0234663
0.0219359
5.40132
0.0221591
0.0670114
0.0218568
2.49977
0.022023
5.38899
0.0217656
0.0551022
0.0218431
0.0275439
0.217428
5.38676
0.049116
7.45228
0.0285815
4.77418
8.75329
4.97623
0.0218732
9.80043
11.6773
3.44742
0.301438
0.0224001
0.0218516
0.0219394
10.1557
0.0219526
0.0220349
0.952194
0.0222412
8.36351
0.0229972
5.76122
0.0219359
0.0222302
0.0989775
0.0215575
0.0544275
0.0218558
0.0753987
0.0925442
2.07968
0.0218138
0.0219011
5.51003
13.4565
0.0222449
0.030266
0.0344766
0.0225636
7.32299
5.0247
6.04145
0.136341
4.98179
4.74402
0.198843
0.0218986
0.0217909
0.0228082
0.0219409
0.0328335
6.70961
7.9207
0.0220895
0.0237808
0.0226458
1.28783
7.83582
8.63827
2.85613
0.0220591
2.83343
5.76229
0.0264219
4.80622
0.047275
0.0220961
4.8577
6.56251
7.83703
0.0222079
0.0229572
0.042788
0.332403
0.0218112
0.022024
0.0222428
0.0218298
0.0220413
7.29696
0.0238073
0.0216892
8.67281
0.0221056
5.49511
0.0409454
5.30492
0.346273
0.0219792
6.46052
0.15716
0.969321
0.0226904
0.0282186
0.0220126
0.0229984
6.80771
0.129383
0.0794102
0.022435
0.0219318
0.144177
0.0232713
0.0220617
0.0272841
0.0219376
4.66662
0.0219989
5.18155
7.78706
0.0233199
0.021981
7.89443
0.0218711
0.0216745
1.27387
0.0245197
0.0236703
0.0833776
1.83897
6.44125
0.0337804
0.0234502
0.0222397
4.79231
2.09402
0.0234242
0.0359098
0.021881
0.0217981
0.0239188
0.0217092
0.303982
0.0292296
0.0220067
0.0222217
0.0220931
0.0218936
0.0218328
0.0219142
2.5504
7.18058
8.31226
0.381634
4.65644
0.445913
0.0247681
5.2784
4.08488
4.76832
0.0220944
0.0216706
3.69324
3.75225
0.447928
0.228601
7.79916
0.0220963
0.021937
4.60261
0.0218455
0.131084
0.1287
0.0224902
10.5862
4.98849
0.0222611
10.9521
7.74518
0.164485
0.696913
0.0221831
4.30677
0.575208
5.11805
0.0218531
0.0658543
2.72908
0.0219141
0.040264
0.0217235
0.0491636
0.0220659
6.14482
0.725506
0.0220224
0.0231913
0.0223743
4.90256
0.0419289
0.0221257
0.0222132
5.0065
0.0219262
0.0231959
0.118357
0.451225
0.022456
0.0815643
0.049704
0.0219488
0.142387
0.0219089
0.0219644
0.0267754
0.0219683
0.0306927
4.59465
0.209224
0.0220016
13.7725
3.26949
0.30235
7.53265
0.0408729
0.0234561
5.13339
0.0263449
0.0241584
0.0464606
0.0782597
0.0218667
0.021723
0.0221107
0.518134
5.48205
6.84785
4.68394
0.0218238
0.0259261
0.0774237
0.168718
4.94599
0.0221385
5.05346
0.0223112
7.73327
0.0215727
5.64675
0.0227037
15.891
7.39245
0.0817272
4.69288
0.0596307
0.0218379
0.0851379
5.63217
16.1725
0.0261869
0.0223624
0.0219553
0.0220978
0.0291699
0.0222868
0.023517
0.0218214
0.056922
0.0220093
4.70941
0.0222243
5.07639
0.0216745
0.137273
10.1539
0.0229399
5.08677
0.0220152
0.0273073
0.0221357
0.0222004
0.0219224
0.351421
0.223416
0.0217932
0.0242794
0.0219757
4.87148
0.0307359
0.534554
0.184369
0.021976
0.0485716
0.0226074
0.0228414
0.0464532
0.0221071
0.0557379
10.1866
0.0220278
4.54299
0.0273665
0.0218897
0.0217203
9.32875
0.0219947
5.4872
0.190986
0.0222691
3.37091
0.103683
5.85642
0.0258158
0.0251153
0.022102
0.0612878
4.89324
0.022137
0.0458484
0.0220637
0.103109
3.02179
2.00388
7.57231
22.6448
0.0294731
2.41359
0.0221275
4.94331
0.524222
0.0264281
0.48565
0.0648811
0.0215752
0.0487802
0.022005
0.0217546
0.0242287
0.0219573
0.804636
2.05621
0.148301
1.54779
0.0220762
2.02774
0.0220579
0.0219711
0.0426424
4.6786
0.0217289
5.17468
0.0978893
0.106248
6.62593
0.0222122
0.0455769
7.50891
0.0446273
0.0219314
0.401465
0.0219711
0.0221306
0.0222417
2.05506
11.1266
0.02561
0.0221017
5.42516
11.6769
0.0222853
0.022236
1.20721
5.71505
0.0221929
0.333304
0.122737
0.0218883
0.030441
0.0216979
5.07268
0.021983
10.588
7.72314
6.62719
0.0248528
0.032372
0.0217928
0.0218017
2.92707
0.021847
9.16663
4.76346
0.0798154
0.0218497
0.0216856
0.726842
0.32487
0.0526063
8.76193
0.0894603
4.03177
0.0229506
5.10625
2.61021
0.0267834
0.375564
7.00657
2.21156
0.0220376
7.28597
0.0217367
4.41969
0.252788
1.17767
0.0216303
0.0415458
0.022106
1.14791
5.2258
0.0225942
0.0228147
10.8293
5.03166
0.021952
5.0806
3.53809
2.80346
0.0222167
6.49373
0.0221533
5.29957
0.0221126
0.022628
0.0222061
0.0219914
8.97236
0.499489
0.0217145
4.93935
5.69634
0.0215388
0.0216853
0.0420873
0.0674838
0.0996106
0.0491011
27.396
4.66358
4.93451
7.44953
0.0966406
0.023024
0.140313
0.114766
5.27371
4.74367
6.14049
0.0941792
0.0543718
0.0245514
5.74925
0.090031
0.633498
0.0221853
0.0255463
11.4961
0.0220948
0.0291843
0.544845
0.0241192
0.0419593
0.0219946
0.0231227
5.06016
0.360315
0.0216366
0.0255391
11.0826
0.265761
0.0310954
1.83458
2.9771
0.0437319
0.170692
4.8554
0.0225806
5.18898
0.0991054
2.4478
0.022146
0.0214752
3.05732
4.95916
5.08227
8.54478
5.41625
0.0404031
0.0760059
0.0238486
4.86803
0.0218722
0.0220272
0.0450598
0.0716693
0.104846
5.82332
0.0227924
4.88912
5.64745
0.0222739
0.0850371
0.0232397
0.215558
0.13262
0.0406809
6.20094
4.96335
5.51321
2.01803
0.0322005
0.0219698
0.0225691
0.0275703
0.680298
6.58574
5.1954
8.68514
0.0527806
0.0217989
0.252989
0.0398898
4.76123
0.0220967
11.3996
0.0581156
5.62331
0.0220937
4.56353
0.095946
0.0701922
0.904669
0.0217163
1.99456
6.16649
0.0218195
0.0844226
4.86141
0.0223726
0.341786
0.0231371
0.0230102
0.0222587
4.81534
0.0458921
1.6757
0.0289819
9.11131
0.0217415
0.021521
0.0218896
0.022065
0.0219573
8.8084
0.409873
5.6348
0.0222115
0.0217627
8.48784
0.0287333
5.5256
0.0905564
0.021903
1.07872
0.0305606
0.0386508
5.73236
0.0265915
39.8136
0.730855
0.0276127
0.0216189
0.265332
0.0215369
0.665241
8.69755
0.183442
0.0217857
6.78793
0.367446
0.0219819
1.9292
0.0221309
5.57618
6.07571
0.0280825
0.0250156
0.0744669
0.0385319
0.0222187
0.021636
0.0219762
22.1627
0.0253107
2.41815
0.670082
9.8565
0.391713
0.121225
0.0219643
0.187309
8.8546
0.0249702
0.0218593
0.023905
0.022227
8.68851
0.0844611
5.14292
0.0219997
6.53099
2.95067
5.06888
8.36043
0.0219844
3.06022
2.63681
0.0219471
0.022281
1.88029
4.61074
0.0263809
0.345468
3.51712
8.3324
0.029241
0.02288
0.442656
0.0418384
0.0230825
0.0274068
0.0221218
0.0792131
4.79174
0.0590001
0.0227965
10.9705
0.131824
0.0216429
0.170616
0.225917
0.0738859
0.0573829
0.0216548
0.021789
2.24227
3.20949
0.0404105
0.0218355
4.4089
0.467218
0.590261
4.47944
0.0234786
0.0216489
0.0220971
0.0222041
0.0294638
5.15738
0.0881716
0.022344
0.112572
0.022068
5.00976
0.0230503
4.71248
0.0228347
1.14922
0.0553713
4.85645
0.0219253
0.0219477
0.0218031
5.52531
0.0262979
4.60638
4.48331
0.0587916
0.0221257
0.0275161
0.0308478
0.0222105
7.05347
0.021599
5.07448
5.07897
4.40873
0.0285831
0.0219761
0.0222775
0.0220169
0.022181
0.085798
7.53274
5.83998
24.0957
0.823795
2.50873
0.0234851
0.344943
0.0685999
0.0531785
0.021977
0.0216495
0.201495
0.0229812
0.0216422
4.90735
0.819634
0.481204
5.21641
4.24427
0.0220998
0.022128
0.0227075
0.0440652
4.97833
0.0220568
0.0449857
0.508237
1.21303
0.0437297
0.0221395
0.361026
0.0271746
5.1288
0.0220697
0.0217251
0.0219907
0.0219764
0.0226326
5.16811
0.39531
0.0838526
0.121862
0.0818224
0.021843
0.0514399
0.0226807
0.022103
0.0270391
7.85699
4.78948
0.0218037
0.326992
0.0218591
0.0542073
0.0232111
0.0284766
0.0221034
0.0797292
0.0567796
5.65513
9.86424
8.71273
8.58759
24.0317
4.76593
1.14361
0.0217094
5.60281
0.0217138
7.57338
0.0257287
4.39461
0.0220928
0.0791572
0.0220581
0.0217637
0.0242148
0.0219465
1.66491
0.0216577
0.0219116
0.0216327
0.0217007
0.0218005
0.0297328
0.0221269
4.64715
0.0494102
0.0219611
4.56638
0.0220368
0.0218555
0.0641818
5.05963
0.0390395
0.0287106
0.021758
0.0216023
4.77839
0.0221806
0.0256077
0.164085
5.7902
9.51904
4.85066
4.98683
5.01463
18.3046
3.17195
7.99384
0.0753756
1.18649
0.0222276
0.021998
0.0698453
0.0260109
2.62503
0.0221207
0.0444075
0.0496867
0.369685
0.0769566
0.0385472
0.0233894
0.0219856
0.0480936
0.022056
0.0217183
0.432763
0.0222132
4.78939
6.457
0.104705
0.021778
5.51763
0.0231406
5.45519
0.474367
0.0218378
6.24119
4.78395
0.0617995
0.0706664
0.0307699
4.51886
4.7068
0.0236581
18.6516
0.0531575
0.0403259
5.31298
0.0221169
3.78565
0.0220378
0.0220597
0.0218175
2.02999
0.210884
0.341871
4.58499
0.0249718
0.0461878
3.27529
0.0217837
6.07572
0.0216802
1.89437
5.06941
9.65836
0.122292
9.99992
0.0219325
0.0221627
0.0238008
6.48954
0.0465515
0.0224083
0.0219449
0.0214683
0.0218897
0.0650583
0.182463
0.0746311
0.181496
0.060604
0.0219719
4.5615
0.0298725
2.23892
0.0226242
0.0217457
0.022535
0.0222322
0.0380098
0.275842
5.01633
0.553362
5.07713
0.452293
0.0218151
2.00234
0.0215174
0.0220107
0.0228811
0.0217521
0.0310397
0.021988
0.0691001
0.0218258
5.05308
0.0222781
0.0224209
0.0217447
4.94844
0.617924
0.0936245
0.0215544
4.64814
0.135251
0.0811119
4.66518
0.0567218
0.837445
0.022076
2.10096
0.174359
0.030119
0.779667
0.032667
0.0414148
0.762256
0.0281144
17.2513
0.103664
6.93435
1.16325
0.0430922
0.0290593
0.0219767
4.6986
0.0219965
3.08407
0.0219245
0.021894
0.0215253
0.0314239
6.00925
0.0239085
0.0219201
0.022114
0.0436274
2.12236
0.100912
2.60011
0.194214
0.0697585
0.0219935
0.059156
0.0221851
0.0228451
6.68495
0.032611
0.0385041
0.112249
3.48339
0.157466
0.0420807
0.0713515
0.0621272
0.0244904
2.92752
0.0221707
6.41709
0.0252391
4.07872
0.0851677
2.63411
4.94998
0.0930276
4.88846
4.91655
0.130915
0.261495
0.0951666
0.569582
0.0220254
0.0797196
0.0557417
10.2887
0.0230256
4.04435
7.41211
0.021508
0.0217537
4.89757
0.0222839
0.0219141
0.0216182
14.928
2.02376
2.46301
0.0267871
4.35648
0.494375
2.6105
1.7749
0.080326
0.0220236
26.5625
3.06113
0.659479
0.461511
0.0219592
0.0218378
0.0220121
0.0221128
0.566982
0.13682
3.44867
0.0843601
0.0221445
0.0219725
0.0222878
0.0313919
10.9367
0.0236802
4.20605
4.81809
0.0531384
0.022121
5.09302
0.183018
2.55057
0.021942
20.8741
0.097693
0.0221564
6.87682
4.67607
0.0230351
0.0217645
0.0221037
0.022256
0.0219851
0.160881
0.0579345
0.283748
0.042509
0.0225542
0.0304664
0.0220853
0.0256767
0.0219403
8.36474
18.1089
0.0347998
0.0220294
5.50471
0.0216793
0.188812
0.552468
10.1048
4.6965
5.97183
0.0220548
0.0222424
0.0221247
0.249311
0.0225517
3.72866
0.0253439
0.0218929
0.0219919
0.140379
0.186367
0.0220723
5.1046
0.075869
1.07569
11.3264
0.0221159
0.714196
4.86322
0.160078
0.0222877
0.0219812
0.139464
1.39547
21.1232
0.0231049
8.34702
0.0217344
0.0841507
2.34323
0.187556
0.0217215
7.65407
2.53754
6.75644
9.20971
0.0222767
0.0221578
0.0884811
0.161414
0.0421358
0.0229624
4.75573
0.0234057
8.59918
4.67159
0.0218864
7.85584
0.0218491
0.0797483
7.94892
0.0848554
0.0571637
2.38774
0.0239806
3.00748
0.0219865
0.704562
6.81245
2.85647
12.0923
0.0242715
0.055314
0.0217029
7.02432
0.0229504
0.021731
0.0475794
0.0530107
0.0475793
23.239
5.114
4.78455
0.195412
0.0306702
0.0388054
0.0262251
0.0350992
29.3923
0.0231665
0.413862
0.0227373
5.34462
0.656477
0.0222095
0.0221656
0.0424653
29.3802
0.0431925
0.0216141
0.021885
0.0299208
0.0264714
0.0282177
0.0252716
4.54797
0.0238466
3.77925
0.0747297
0.0219406
0.068375
0.0710111
0.0406114
0.0218339
0.0220561
2.0146
4.72363
4.73671
0.0418069
0.0460645
0.0534993
0.0476875
0.0219202
0.0235682
5.78111
0.0486486
0.0238474
4.81766
7.52354
0.229766
2.95846
0.0795068
0.022612
7.55939
0.0657879