/*--------------------------------*- C++ -*----------------------------------*\
| =========                 |                                                 |
| \\      /  F ield         | OpenFOAM: The Open Source CFD Toolbox           |
|  \\    /   O peration     | Version:  v2012                                 |
|   \\  /    A nd           | Website:  www.openfoam.com                      |
|    \\/     M anipulation  |                                                 |
\*---------------------------------------------------------------------------*/
FoamFile
{
    version     2.0;
    format      ascii;
    class       volScalarField;
    location    "500";
    object      nut;
}
// * * * * * * * * * * * * * * * * * * * * * * * * * * * * * * * * * * * * * //

dimensions      [0 2 -1 0 0 0 0];


internalField   nonuniform List<scalar> 
18355
(
0.000538508
0.00718948
0.00610055
0.00672042
0.00314482
0.000617748
0.00671977
0.000551266
0.000973438
0.00680529
0.00673693
0.00556181
0.000497593
0.00542614
0.00292111
0.000943733
0.00195747
0.0067269
0.00294467
0.0127871
0.000635589
0.00168303
0.0142981
0.00362284
0.00180147
0.00672308
0.00672256
0.00105409
0.00802566
0.00396412
0.0046389
0.00247071
0.00672547
0.00673467
0.000273565
0.000553298
0.00140201
0.000120888
0.00103261
0.00673883
0.00528321
9.08467e-05
0.00569382
0.0034606
0.00679176
0.000119763
0.000466049
0.000818654
0.000446897
0.00672645
0.00672687
0.00601296
0.00672592
0.0148513
0.00672158
0.00672174
0.000419587
0.00295448
3.54321e-05
0.000222751
0.00672624
0.000687157
0.0067269
0.000239179
0.00678825
0.000598497
0.000703616
0.000263356
0.0067225
0.00179043
0.000328318
0.00672531
0.000184311
0.0067239
0.000556168
0.00671977
0.0116758
0.00221433
0.00137302
0.00626381
0.00671973
0.000263217
0.000626321
0.000253985
0.00672297
0.000425832
0.00470655
0.0114094
0.0077718
0.015115
0.000744055
0.00679128
0.00672215
0.00672343
0.000273214
0.0138736
0.00567657
0.00127268
0.0144416
0.00137086
0.0012239
0.00154881
0.000332465
0.00287007
0.0032021
0.000717557
0.00234285
0.000109537
0.000773282
3.04046e-05
0.00459778
0.00115299
0.00672308
0.00118964
0.0138049
0.00671941
5.49195e-05
0.0127362
4.80944e-05
0.000306622
0.00782629
0.000297672
0.00267965
0.000355982
0.00515486
0.000104659
0.00519867
0.00672563
0.000323619
0.00672223
0.00672659
0.0012863
0.000711443
0.00149241
0.000168936
0.00672552
0.00365558
0.00673675
0.00559815
0.000199195
0.0024697
0.00797095
0.00177762
0.00451615
3.46205e-05
0.00194602
0.000589477
0.00206901
0.00189453
0.00133741
0.0036143
0.00174804
0.000317065
3.67101e-05
0.000529496
0.00672573
0.00141229
5.24429e-05
0.00672564
0.000681447
0.000579493
0.00102597
0.000335013
0.00139475
0.000466146
2.30598e-05
0.00542792
0.000429701
0.000424641
0.00672506
0.0114902
0.0131697
0.00673143
0.0067344
0.000996392
0.00386812
0.000616185
0.00672197
0.000316865
0.00211783
6.88937e-05
0.000423279
0.00105133
0.00671944
0.000622475
0.00437729
0.0149675
0.000946169
0.000831031
0.00133818
0.000424175
0.00561926
0.00149304
0.00487169
0.000143037
0.00163459
0.000619012
0.00120493
0.000769521
0.00673349
0.00214039
0.000763375
0.00319349
0.0137317
0.000477048
0.000522084
5.14043e-05
0.0111217
0.0117677
0.00082236
0.00360036
0.00321197
0.0118307
0.0019313
0.00672467
0.000321871
0.00681884
0.0124494
0.00672324
0.00176522
0.000341875
0.00608179
0.000238223
0.00403003
0.00540544
0.00205708
0.0100131
0.00407931
5.02675e-05
0.0034949
0.00672583
0.00146838
0.000695659
0.0101838
0.0013708
0.006723
0.00672221
9.92551e-05
0.000644995
0.000259894
0.000818822
0.000377706
0.00429957
0.00672491
0.00186838
0.00250089
0.00101889
7.01427e-05
0.000565906
0.000571818
0.00220445
1.55919e-05
0.00111503
0.012083
0.00244717
0.00670194
0.00908005
0.000633733
0.0037543
0.00673121
0.000599366
0.00029848
0.00313393
0.000699143
0.00671947
0.00672344
0.00672575
0.000409547
0.000152522
5.61035e-05
0.00132036
0.0016385
0.00100186
0.000622973
0.00257375
0.000684572
0.00611676
0.00672395
8.03671e-05
0.00672547
0.00671993
0.000598446
0.00672795
0.00342233
0.00119975
0.000753123
0.00672858
0.000463287
0.00676594
0.00240463
0.00671974
0.00656105
0.000668396
0.0117438
0.0067257
0.00672586
0.00697317
0.000322551
0.000568379
3.57936e-05
0.00672338
0.000309272
0.00141583
0.00672564
3.61442e-05
0.000459423
0.000340336
0.000752619
0.00672271
6.89175e-05
0.00366692
0.00284954
0.000372912
0.00575413
0.000387463
8.72049e-05
0.00672199
0.00672056
0.000358576
0.00027972
0.011182
0.0023453
0.00035505
0.00268976
0.00677754
0.000683817
0.001506
0.000298624
0.000362283
0.00672164
2.05268e-05
0.00314459
0.000156313
0.00672208
0.000599625
0.00702818
0.00672568
0.00168642
0.000788906
0.00672263
0.000432025
0.00066272
0.00406637
0.0147856
0.00320612
0.00277297
0.00672679
0.0138538
8.98054e-05
0.00672242
0.00177418
0.000708698
0.000509288
1.72e-05
0.0140907
0.00672188
0.00183528
6.4019e-05
0.00496827
0.00161356
0.000881368
0.000826408
0.00175535
0.000355367
0.00672588
0.000134008
0.000301403
0.000162121
0.00671937
0.00320599
0.00672997
0.0055604
8.53696e-05
0.00586805
0.000403349
0.0067292
0.000950412
0.00672201
0.000920036
0.00487744
0.00291176
0.00633182
0.00572858
0.00112066
4.81687e-05
0.00559804
0.00366824
0.00677458
0.000254457
0.00646139
0.00101206
0.000418698
0.00194175
0.00486146
0.00149843
0.00671953
0.00672277
0.00672253
0.0135076
0.00130093
0.00677127
0.000642072
0.000460509
0.00470234
0.0067789
0.0100264
0.00198243
0.00573401
2.39329e-05
0.0067261
6.66723e-05
0.00107141
0.000875507
0.000563422
0.00326179
0.00850044
0.00672503
0.00672975
2.48346e-05
0.00672572
0.00673067
0.00141795
0.00672405
0.00781471
0.000795749
0.000578593
0.00164114
0.00158321
0.00672874
0.0095806
0.000632376
0.0114493
0.00301695
0.0067275
0.00671944
0.00178536
0.00770088
0.000179503
0.00279748
0.00672584
0.00211357
0.000109568
5.56616e-05
0.000522073
0.00210315
0.00672588
0.000908484
0.000682657
0.012317
0.00691741
0.0052695
0.000110004
0.00013093
0.005338
0.0040736
0.00672102
0.00672966
0.00355738
8.67574e-05
0.00672225
0.00676867
0.00100658
0.00010089
0.000445014
0.0152061
9.99276e-05
0.00275673
0.00453429
0.00508877
0.00447516
0.00671972
0.006726
0.00672599
0.00672313
0.00906876
0.00243974
0.00672242
0.000258511
0.000246744
0.00672111
0.00251974
0.000117544
6.91352e-05
0.00106566
0.00561999
0.00418887
0.000799013
0.00395266
0.00145979
0.00553858
0.00108093
0.000226547
0.00672315
0.0118959
0.00478545
0.00797555
0.00533628
0.00613194
0.000726994
0.000654525
0.00180487
0.00213871
0.00730439
0.00604559
0.000185652
0.00672253
0.000793073
0.00856527
0.0138267
0.0136552
0.0022879
0.000552338
0.000611307
0.00961218
0.00159958
0.000691453
0.00215669
0.00484111
0.00672247
0.000181917
0.00672274
0.00936905
0.000577057
0.0141599
0.00400016
0.00219175
0.00672774
0.000268913
0.000404032
0.000667878
0.00672514
0.000742819
6.85053e-05
0.00115452
0.00372126
0.000825003
0.00115907
0.00672584
0.000686688
0.000789312
0.00118484
0.000186004
0.00161117
0.0067226
0.00672814
0.00672586
0.000464465
0.00183646
0.000641764
0.00470239
0.00319566
0.00853906
0.00672112
0.000238808
0.00132915
0.000138897
0.000724747
0.0144021
0.00222315
0.000276585
0.000523995
0.000770684
0.0100457
0.00823076
0.00415515
0.00117967
0.00137526
0.00545271
0.00627887
0.000483716
0.000421575
0.000311665
0.000132084
0.00830348
0.00042039
0.00672066
0.011097
0.00184287
0.0025802
0.00673366
0.000234232
0.0141482
0.000592105
0.00672476
9.6318e-05
0.000181271
0.000274786
0.000301128
3.07442e-05
0.00142746
0.000577491
0.00320468
0.000408667
0.000637006
0.000125091
0.000103128
0.00113585
0.00672093
0.00247438
0.00417933
3.74989e-05
3.42888e-05
0.00571856
4.50862e-05
0.00924994
0.00238725
9.28803e-05
0.000885087
0.00436453
0.00679073
0.00673849
5.28104e-05
0.00107544
0.00203227
0.000489808
0.00672014
0.00144286
0.00144939
0.00115111
0.000567562
0.00596001
0.000267825
0.00101031
0.000715602
0.0103692
0.00523934
0.000387846
0.0130926
0.00672754
0.00174781
0.0133103
0.0067177
0.000650996
0.00672201
0.00356808
0.00111132
0.000839226
0.000292169
0.000904056
0.000666067
0.000654631
0.00115797
0.000604388
0.0045692
0.00264406
0.00081399
2.13705e-05
0.00240683
0.00026502
0.000755822
0.00521945
0.00672479
0.00403035
0.000733452
0.000815866
0.00672519
0.00112783
0.0045937
0.0109567
0.000452317
0.000776015
8.66724e-05
0.00113985
0.00672074
0.00672493
0.000646242
0.000134934
0.00675969
0.0025885
0.000457493
0.000321009
0.00681117
0.0120392
0.0100517
0.0036843
0.00673712
0.000617648
0.00672528
0.00672373
0.00245152
5.04552e-05
0.00160379
0.00647908
0.000437117
0.000456031
0.00133131
8.92703e-05
0.0031235
0.00986247
0.000706403
0.00215901
3.53829e-05
0.0129521
0.00672006
0.0103848
0.0067205
0.006727
0.00174615
0.000208462
0.00957381
0.000687146
0.00401125
0.000376462
0.0113939
0.000131431
0.00113924
0.0084321
0.00305933
0.00691287
0.00252427
0.00276991
0.00710641
0.00227911
2.77493e-05
0.000805663
0.000528991
0.00548262
6.37407e-05
0.00950999
0.00672192
0.0146109
0.00500682
0.00213203
0.00345171
0.000529481
0.00112609
0.00672617
0.00672376
0.000675931
0.00437088
0.00178737
0.00671931
4.50103e-05
0.00111274
0.0067261
0.00672231
0.000407433
0.000690486
0.00672708
0.000677543
0.00679135
0.000685071
0.0131537
0.000576452
0.00564874
0.00672716
0.000580684
0.000895961
0.000847094
0.00544572
0.000103498
0.000135061
0.00123252
0.00795131
0.000752292
0.00671888
0.000596033
0.00545001
0.00208824
0.0011457
0.00246573
0.00671904
0.00533205
0.00676207
0.00691503
0.00097708
0.0053121
0.00045601
0.000606129
0.0150851
0.00341766
0.00672198
0.00573326
0.0150506
0.00221696
0.0123701
0.00878551
0.0104741
4.01957e-05
4.03779e-05
0.00796471
0.00099756
0.00672349
0.00672458
0.00298441
0.00190043
0.0067222
0.0018041
0.00552782
0.000591253
0.00264954
5.8927e-05
0.00671802
0.00109796
0.000410485
0.00672159
0.000682298
0.0015803
3.40603e-05
4.6926e-05
0.000361197
0.0104873
0.000118467
0.00103964
0.000116216
0.0116323
0.0128934
0.000712741
7.87517e-05
0.000424881
0.00263456
0.00537516
0.00672842
0.0067196
0.00138099
0.0112192
0.00672431
0.00672584
0.000418147
0.0067181
0.000212243
0.000220551
0.00672436
0.00730888
0.00481006
0.00534998
0.000395492
0.00672368
0.0002565
3.20517e-05
0.00247294
0.00288784
0.00672532
0.000111601
0.00671937
0.00130207
0.000158143
0.00621592
0.0130995
0.00280382
0.01418
0.0017257
0.000450533
0.00672422
0.000525858
0.000434589
0.00672365
0.00244539
0.0140547
0.00555472
0.0021322
0.00277681
0.00133793
0.00672193
0.00672138
0.00672589
0.00229103
0.00673164
0.0142454
0.000357023
0.00031463
0.00493021
0.00673866
0.00651833
0.0112336
0.0128319
0.000628507
0.00672089
0.00471572
0.0067244
0.00263893
0.000143546
2.74204e-05
0.000934941
0.00326881
4.81788e-05
0.00565414
0.00023984
0.00404697
0.00256974
0.0117104
0.000454065
0.00672398
0.00228126
0.0130666
0.00672254
0.00324461
0.000101152
0.0067253
0.00044932
0.00675113
0.000878402
0.000816758
0.00671789
0.00671985
0.00278093
0.00399626
0.00672456
0.000587572
0.00502872
0.00243848
0.00672708
0.000136513
0.00607229
0.000916558
0.0128406
0.00151196
0.00672572
0.000846433
0.00282368
3.68934e-05
4.33544e-05
0.00675155
0.000278714
0.00333474
0.0121058
0.00674202
0.00713106
0.00013314
0.00254773
0.00672381
0.00671819
4.08574e-05
0.00567044
0.00280213
0.00427364
2.75401e-05
0.00672539
0.00672353
0.000741134
8.25411e-05
0.00469692
0.000669699
0.00244216
0.00156477
0.00464957
0.00676036
0.00672598
0.000470431
0.00188091
0.0123076
0.00107519
0.0122163
0.00496557
0.00672595
0.000252436
0.0127514
0.00926782
0.00177086
0.00556158
0.00473717
0.000329227
0.00139042
0.000337276
0.00645435
0.00633927
0.00673413
0.000756393
0.00672243
0.00524567
0.0067256
0.0145531
0.00155206
0.00856195
0.000228463
0.00141728
0.000987745
0.00671975
0.00671894
0.0067178
0.00105421
0.000253989
0.00381537
0.000538264
0.000318152
0.00672087
0.00129813
0.000351214
0.000533641
0.0010449
0.00104308
0.000275064
0.00458625
0.000727725
0.0061675
0.000609435
0.000600959
4.35715e-05
0.00647095
0.00591263
0.000490371
0.000174377
0.00520149
0.00332403
0.00039075
0.00355325
0.00180619
3.31187e-05
0.000223452
0.000383873
0.000505861
0.00672217
0.000164052
0.00403968
0.000735959
0.00332995
0.00672236
0.0121243
0.00093287
0.00145554
0.0056898
0.00517757
5.93072e-05
0.00264309
0.00638602
0.000136606
0.00377078
0.00126819
0.00561765
0.00415516
0.00173963
0.00147981
0.0005634
0.00978608
0.00253234
0.000585415
0.00397763
0.006733
0.00106767
0.00191308
0.00133528
0.00063135
0.00157494
0.00671747
0.00672686
0.00142355
0.00673382
0.00672093
0.00745254
0.00672579
0.00145846
0.00672073
9.80206e-05
0.00672216
4.99724e-05
2.78573e-05
0.0027693
0.0104034
0.00671934
0.00139877
0.00455023
0.00851454
0.000483628
0.00671801
0.00672136
0.00252254
0.00606976
0.000641215
0.00952163
0.00302549
0.00497221
0.00672411
0.00155465
0.000530564
0.0020799
0.00674222
2.3497e-05
0.00824285
0.000951321
0.00369288
0.00366612
0.00672458
0.00672405
0.00999484
0.000603697
0.00673407
0.000993177
0.00405962
0.00914789
0.00204169
0.000222971
0.00672461
0.00114563
0.00555668
0.000413627
0.000374269
0.000812132
0.00672193
0.00446508
0.00124286
0.00671796
0.00674553
0.00323534
0.00560686
0.00299089
0.0127932
0.00185031
0.00526469
0.00239874
0.00109525
0.0127576
0.00671792
6.57414e-05
0.00112654
0.006718
0.00091714
0.000614761
0.00672128
0.00507117
0.00672261
0.00429851
0.000674083
0.00672137
0.00156791
0.000356593
0.00672172
0.000378801
0.00119688
0.0101805
0.00816715
0.00664577
0.000669535
0.000364979
0.00736434
0.0118052
0.0067935
0.00187875
0.00672069
5.08587e-05
0.0104887
0.00026488
0.000778968
0.00672528
0.00432048
0.00672304
0.0017487
0.00160993
0.00294599
0.000973718
0.000618715
0.00672203
0.00672482
0.00672336
0.00542751
0.000342504
0.00501202
4.73348e-05
0.00672084
0.000695636
0.00252879
0.00027563
0.000686932
0.000671046
0.00100519
5.29978e-05
0.00674248
0.00671804
0.000195584
0.00672452
0.00672103
0.000631498
0.000636536
0.00672269
8.42249e-05
0.00672372
0.0052854
0.00672246
0.00593058
0.00858865
0.000455285
0.00118058
0.00244006
0.0094742
4.47655e-05
0.00672198
0.000250832
0.000891292
0.00394876
7.65459e-05
0.0103989
0.000370835
0.000577362
0.000619884
0.00070559
0.000133431
0.00733346
0.00672005
0.00672559
0.00558887
4.70227e-05
0.00201767
0.00269711
0.0051704
0.00236005
0.0122204
0.000489486
0.00152604
7.21894e-05
0.00672021
0.00111063
0.000256955
4.93821e-05
0.00672577
0.000304986
0.000251689
0.000594811
0.014666
0.00672603
0.00613686
0.00672222
0.000142213
0.00671931
0.00671931
0.00728125
0.000147067
0.00114975
0.00416038
0.00971218
0.000805681
0.00453688
0.0067667
0.00672574
0.00673724
0.000644962
0.0108156
7.19793e-05
0.000816325
0.000289951
0.000791684
0.00595758
0.00232502
0.00527539
0.00389909
0.00097829
0.000108318
0.00671573
0.000593101
0.000619928
0.00610048
0.00672064
0.00317054
0.000237192
0.000109277
0.00672387
0.00672673
0.00672576
0.00671812
0.00671859
0.000432258
0.000138829
0.0147131
0.000695585
0.000579034
0.00207819
0.00073592
0.00838621
0.00292777
0.00143689
0.00671887
0.00483964
0.00911507
0.000202799
0.000588699
0.00474703
0.001729
0.00173306
0.00067209
0.000822791
0.000115675
0.00674345
0.000614979
0.0102412
0.00672593
0.000505275
0.00292593
0.0125262
0.000426213
0.000477442
0.000438524
9.7969e-05
0.000104713
0.0068408
0.00514117
0.000304767
0.00677998
0.00672519
0.00730509
0.00283871
0.0140396
0.0067218
0.00679516
0.0110598
0.00429025
0.00464844
0.00163429
3.15091e-05
0.00183521
0.00672365
0.014557
0.00182996
0.000637103
0.00671922
0.00569838
0.000524131
3.98419e-05
0.00672151
0.000390345
0.000196642
0.00058873
4.64377e-05
0.00672562
0.00672532
0.00672223
0.00620306
0.00142726
0.000106314
0.00672019
0.00948391
0.0067335
0.00672112
0.000315738
0.00481094
7.84191e-05
0.00113874
0.00671793
0.00356541
0.00049384
4.16994e-05
0.000131477
0.002672
0.00143895
0.000445482
0.0003926
0.00476317
0.000285279
0.00967058
0.00671851
0.000579096
0.00259432
0.000501593
0.000523629
0.0122868
0.000618576
0.00246041
0.00308073
0.000589702
0.000791253
0.000118805
0.00474018
0.000456886
0.00674444
0.00366798
0.000740625
0.00152406
0.000262401
0.00671926
0.000351441
0.00365519
7.65502e-05
0.00513991
0.00576879
0.00504736
0.00674513
0.00014609
0.000293638
0.005061
0.00528887
0.00500109
0.00671884
0.00259577
0.0034958
0.013583
0.000608174
0.00672545
0.0128639
0.00672198
0.00278605
0.00673946
0.00587167
0.000120937
8.20916e-05
0.000665097
0.00445366
0.0067214
0.00672878
0.000846613
0.000105387
0.00672239
0.000791952
0.00393359
0.0127421
0.000793316
0.0110421
0.00706237
0.00447104
0.00376257
0.00671956
0.000399871
0.00672163
0.00249679
0.00399143
0.000382829
0.00100061
0.000544263
0.000282231
0.00958223
3.27162e-05
6.81408e-05
0.00833766
0.00672195
0.000200454
0.00195457
0.0067216
0.000697383
0.00567067
0.000728559
0.0060993
0.0119151
8.6043e-05
0.00640636
0.000334862
0.000933346
7.252e-05
0.00144997
0.00452568
0.00671928
0.00568957
0.000404081
3.41209e-05
0.000394569
0.00671956
0.000902024
0.000260422
0.00671538
0.00156194
0.000644199
0.00154515
0.00672453
0.00672584
0.000203421
0.00672098
0.000259706
0.00235894
0.00671873
0.00672105
0.000405633
0.00671811
0.000152147
0.00142098
0.000126985
3.91456e-05
0.00438588
0.000581679
0.0011324
0.000113669
0.000894465
0.00101689
6.02847e-05
3.0637e-05
0.000434584
0.00686279
6.41259e-05
0.00269939
0.000965235
0.0106938
0.000632642
0.00671804
0.00672128
4.68878e-05
0.00292786
0.010045
3.09787e-05
0.000956256
0.0111082
0.00148475
0.000444832
0.00973713
0.00341857
0.00672227
0.00672125
0.0067192
0.000912589
0.00071377
0.00143305
0.000499231
0.000258377
0.000421943
0.00295857
0.00178741
0.0003108
0.00672106
0.00672187
0.0043634
0.00254905
2.48049e-05
0.006722
0.00671981
0.00672577
0.000121119
0.000263467
0.000551374
0.00256477
0.00197825
0.0137321
0.00806769
3.98495e-05
1.71738e-05
0.000530263
0.00241504
0.01401
0.000408189
0.00225007
0.000100727
0.00654471
0.000469786
0.000572629
0.00249968
0.00671817
5.55409e-05
0.000600042
0.00839004
0.00042999
0.000403981
0.00239377
0.00129552
0.00450112
0.000504367
0.00218303
0.000520524
5.7604e-05
0.0060942
0.011062
0.00255354
0.00671962
0.000965793
0.00215369
0.000266225
0.00523203
0.000584454
0.00671913
4.29716e-05
0.000245007
0.00122664
0.00258039
0.0036393
0.00186982
0.00672331
0.000677743
5.18274e-05
0.0143578
0.000535289
0.00672379
0.014287
9.33425e-05
0.00484463
0.00016264
0.00641749
0.0014534
0.00672058
0.00023176
0.00100305
0.000507996
0.000524274
0.00673685
0.00502562
0.00672317
0.00141746
0.00158014
0.0013252
0.00671756
0.0034743
0.000917163
0.00672602
0.00093484
0.00672188
0.00118213
4.45292e-05
0.00811551
0.00145524
0.000714102
0.0110307
0.00671821
0.00672344
0.000431704
0.000516575
0.00336303
0.000577524
0.000477073
0.00118239
0.0152175
0.00358001
0.00476613
0.00187556
0.000165537
0.00672154
0.00579735
0.0115595
0.00727999
0.00199354
0.00112268
0.00673808
4.36902e-05
0.000402484
2.90575e-05
0.0067251
0.000117948
0.00161633
0.000483733
0.00178578
0.000328366
0.00210951
0.00956461
0.0015861
0.00673559
0.00720239
4.23185e-05
0.0067225
0.00672236
3.04319e-05
0.00172729
0.000964986
3.9265e-05
0.00672163
0.00172506
0.000764046
0.000639495
0.00258478
0.00671497
0.000352517
0.00172978
0.000614572
0.00673208
0.00291279
0.00346947
0.0027801
0.00672117
0.000295159
0.00591177
0.000635045
0.0124676
0.00679054
0.00309414
0.00643656
0.000116971
0.000536615
0.00256107
0.00070085
0.000822077
0.00671801
0.000936122
0.00592992
0.000132889
0.00414456
0.00318103
0.00549272
0.0027046
0.0150402
0.00675661
0.00278403
0.00671968
0.000656953
0.00614903
0.000759518
0.00023283
0.0067231
0.000113811
0.00132818
0.00073033
0.000768413
0.0020378
0.000292172
0.0136488
0.000311469
0.00676673
0.000281898
0.000928097
0.0001815
0.000642598
0.00504973
0.000491685
0.000436044
3.75481e-05
0.000179024
0.00213243
0.00264545
0.0118974
0.00225788
0.00685106
0.000831758
0.000148184
0.0129809
0.00599199
0.00525241
3.61699e-05
0.000294966
3.72217e-05
0.000153892
0.000922119
0.00672168
0.000770555
0.00013112
0.00481526
0.000116974
0.000650321
3.59351e-05
0.00873249
0.00672108
0.000408845
0.00170962
0.000644661
0.000221967
0.00672382
0.000348293
0.000558909
0.000914859
0.00672357
0.00186252
0.000468615
0.00454617
0.00141913
0.00702789
0.00672543
0.00671999
0.00114207
7.67208e-05
0.00324929
0.00672311
0.00146942
0.000807553
0.000756491
0.00452348
0.00672552
0.00474488
5.00066e-05
0.00672113
0.00672298
0.000418457
0.0137274
0.00489946
0.00672568
0.000667642
0.00113645
8.24441e-05
0.00260691
0.00697503
0.00671802
0.00133085
0.000916536
0.0128389
0.00231744
3.87754e-05
0.000791484
0.0103889
0.00917477
0.00179511
0.00901776
0.000958671
0.00435272
0.00673267
0.000186247
0.00661477
0.00481549
0.00679645
4.911e-05
0.0047756
0.00356843
0.000858073
0.0152264
0.00461609
0.0129506
0.00345273
0.00067289
0.0067231
0.00130673
0.000163453
0.000358466
0.00231937
0.00672303
0.000926727
0.0146196
0.00672092
0.000802261
0.00672385
0.000360733
0.00299717
3.4987e-05
5.92207e-05
0.000433149
0.000893931
0.00273434
0.00910218
0.001205
0.00671806
0.0143102
0.0110856
0.00497179
0.00673435
0.000433908
0.00071927
0.000434644
0.00671856
0.00573069
0.000233168
0.000397187
0.00674372
0.00671874
0.00143431
0.00320646
0.00045683
0.00219761
0.000587126
0.00385288
0.000185298
0.00206257
0.00372618
3.85208e-05
0.00671936
0.000641772
0.000320854
0.00105461
0.000351565
0.00503985
0.000847253
0.00851047
0.000693093
0.00671893
0.000175136
0.00671991
0.014582
0.00672335
0.0151488
0.00491163
0.00494876
0.00582746
0.000740497
0.00663079
0.00572459
0.000666956
0.00115893
0.000166716
0.00672019
0.000249169
0.00671952
0.010113
0.000633391
0.0152062
0.00673628
0.0067241
0.000721804
0.00211181
0.000287404
0.00582202
6.40372e-05
0.000916628
0.00408201
0.00590113
0.00277556
0.00672337
0.00250369
0.00237204
0.0109356
0.000372344
0.00671873
0.00636698
0.000108084
3.00569e-05
0.0067918
0.000266132
4.40864e-05
0.00445835
0.00115285
0.00238667
0.00672115
0.00671931
0.0037194
0.00065581
0.00114111
0.0109975
4.08433e-05
5.14909e-05
0.00672589
0.00672258
0.0117353
0.000917312
0.00672439
0.00250323
0.00245499
0.0133241
0.00346829
0.0151722
0.000226826
3.32283e-05
0.00672588
0.0102745
0.00671803
0.0028138
0.00672185
0.00671796
0.000916587
0.00502698
0.00672207
0.0123787
0.0004563
4.40078e-05
0.00350315
0.00672191
0.00321898
0.0104904
0.000117214
6.04306e-05
0.00672771
0.000425179
0.00219369
0.0127234
0.00651872
0.00863674
0.00673119
0.0117608
0.00358023
0.0147226
3.47662e-05
0.000520337
0.000144437
0.00528702
0.000651222
0.0147209
0.00113964
0.0110617
0.00671811
0.00672276
0.000124977
0.00125758
0.000241913
0.000718276
0.00671941
0.00410826
0.000807205
0.000114757
0.00671949
0.000371666
3.80893e-05
0.00672292
0.000810201
0.00059353
0.000531422
0.0067632
0.00672102
0.0107446
0.00869649
0.000917078
0.00708412
0.000197319
0.0067211
0.00664224
0.00263612
0.00672203
0.000305702
0.0067234
0.00673583
0.000745096
0.0096752
0.00195297
0.0104228
0.00117097
0.00495606
0.00295685
0.00293348
0.000618873
0.00671867
4.26475e-05
0.00672201
0.00317092
0.00674165
0.000100432
0.00488498
0.000399132
3.86654e-05
0.013243
0.000114519
0.00266727
0.00114349
0.0148776
0.00606281
0.009604
0.00672262
0.00265429
0.00643608
0.00418215
0.000390212
0.00159309
0.00672323
0.00395662
1.23304e-05
0.00445301
0.00352276
0.000320976
0.00672492
0.00321787
0.00133846
0.0105487
0.00385641
0.00672474
0.000638774
0.00673822
0.000730503
0.00638909
0.000110715
0.000305804
0.00965749
0.00671956
0.00559956
0.0133716
0.00392666
0.00672532
0.000634355
0.000771125
0.00160169
0.0011139
0.00868294
0.0125999
0.000390449
0.00598529
0.00751764
0.000507995
0.00671814
0.00671977
0.0013209
0.00671993
0.000246642
0.00418556
0.0080214
0.00672158
0.00120004
0.00256788
0.00036727
0.00695408
7.73814e-05
0.000179966
0.00257046
0.000169378
0.0108054
0.000432052
0.0100401
0.000716241
0.00278932
0.0148637
0.00570013
0.000803924
0.00672431
0.00138161
0.000439527
0.000681274
0.00673675
0.00284807
0.0067249
0.0067192
0.00672292
0.00930689
0.000994607
0.00671893
0.00274589
0.006722
0.00701798
0.000579378
0.00757513
0.00029637
0.00671928
0.0125059
4.53332e-05
3.39898e-05
0.00131033
0.00112735
0.00672037
0.00105015
0.00273131
0.000542887
0.000222257
0.00239336
0.00672014
4.63316e-05
0.00153682
0.00672216
0.000413922
0.00672334
0.0108469
0.00671961
0.0109257
0.0035541
0.000936203
0.00671948
0.00348086
0.00672247
0.00678172
2.16188e-05
0.000848289
0.00117131
0.000269714
3.55947e-05
0.01211
0.000335652
0.000900794
0.00204098
0.0100627
0.00923163
0.00685662
0.000900671
0.00638133
0.00513959
0.00115717
0.00675544
6.32769e-05
0.00113807
0.00293564
0.00256661
0.0067219
0.00483717
0.00480703
0.00672804
2.84968e-05
0.00421706
0.00469781
0.000166319
0.00602796
2.87156e-05
0.000933318
0.00504647
0.00284247
0.00731869
0.00672238
0.00679029
4.06748e-05
0.000560377
0.000109715
0.000211203
0.00666795
0.00672175
0.00610351
0.0127479
0.00671921
0.000478784
0.000400417
0.00264244
0.00138654
0.0117588
0.00672542
0.00122922
0.0036904
4.30245e-05
3.90798e-05
0.00206347
0.00597623
0.000320653
0.0150769
0.00671863
8.15676e-05
0.00741038
0.00671896
0.000809537
0.00649894
0.000542213
0.00257301
0.00504902
0.000255904
0.00304001
0.00201761
0.00154412
0.00803534
0.000612221
0.00233917
0.00202449
0.00955591
0.00568746
0.00202625
0.000130267
3.63678e-05
0.00163126
6.81999e-05
0.000107813
0.006723
0.000392251
0.00338815
0.00673054
0.00139217
0.00672308
0.001132
0.0132035
0.000718646
0.00672538
0.00377404
0.00412757
5.20111e-05
0.00203026
0.00078441
0.0019128
0.00827388
0.00141465
0.000713019
0.000295642
0.000143376
0.00478792
0.00675242
0.00672208
0.000116377
0.00740997
0.0116266
0.0149136
0.00671801
0.000525574
0.000270232
7.02528e-05
0.00927056
0.0067224
0.00990354
0.0019169
0.00282177
0.00675998
0.00685035
0.00123853
0.00425159
0.00407994
0.000635433
0.0108817
0.000102119
0.00671948
6.57743e-05
0.00210472
0.00412566
0.00112025
0.00163191
0.00671889
0.00240923
0.000875199
0.00672617
0.000977237
0.00672453
0.000636032
0.00672431
0.0146045
0.00672441
0.00871444
0.00673221
0.000531135
0.00560327
0.00107376
0.00558399
0.00672045
0.000705807
0.00251169
0.006724
0.00453035
3.42982e-05
9.26392e-05
0.00673675
0.000710403
0.00548728
0.012563
0.000922124
0.000237679
0.000895015
0.00491275
0.000693672
0.00276737
0.00121933
0.000119205
0.0067222
0.00020969
0.00613879
0.00672059
0.0134432
0.000505578
0.00594985
0.00672648
0.00280801
0.00672662
0.0127196
5.29506e-05
0.00672565
0.00417389
0.000489189
0.00467877
0.0014277
0.000679876
0.00672202
0.00041407
0.010652
0.00672287
0.000327644
0.00277864
0.000429846
3.88526e-05
0.00940661
0.00887137
0.00220882
0.000477222
0.00667557
0.00227285
0.00928527
0.000349681
0.00112
0.000271071
0.000657714
0.00672815
0.00013957
0.00672478
0.00657942
0.000752391
0.00463505
0.000393027
2.3538e-05
0.000384082
0.000406293
0.00672118
0.000410161
0.00672103
0.00672282
0.000614357
0.0117991
0.00638494
0.00746908
6.08425e-05
0.00048094
0.00333294
0.00283101
0.000471398
0.00391229
0.000167677
0.00341553
3.35412e-05
0.00497408
0.00672236
0.00672498
2.43154e-05
0.00468749
0.00090735
0.00672215
0.00761138
0.00526065
0.00179234
0.00672523
0.000346482
0.0140405
0.00207622
3.178e-05
0.000217177
0.00673158
0.00113216
0.00672406
0.0101715
0.00671972
0.0071981
0.00911381
0.0112847
0.000912499
0.000301284
0.0054945
0.00672157
0.0047915
0.00672542
0.00276649
0.0145884
0.0002233
0.00671889
0.00673696
3.22455e-05
5.1872e-05
0.000103502
0.00759547
0.000344208
0.00226133
0.00218924
0.011321
2.39644e-05
0.00134305
3.13792e-05
0.0112965
0.00588189
0.00277783
0.000812364
0.0067244
0.00405539
0.00083591
2.33254e-05
0.00672586
0.000464447
0.00672214
0.000136215
0.0103319
0.00286552
0.00128723
0.00737244
0.00895835
0.0032554
0.00848572
0.00386747
0.00142615
0.00672471
0.0121016
0.00672331
0.00232919
0.00672231
0.00263545
0.00672414
0.00354884
0.00284839
0.000467682
0.00673443
0.0104149
0.00359039
0.00671558
0.00673544
0.000183884
9.3093e-05
0.000445264
0.000300527
0.00126774
0.0110508
0.0109444
0.0105212
0.000485281
0.00101823
0.000413979
0.000215701
0.00369942
0.00770037
0.00592
0.000578776
0.000670461
0.00102481
0.00337394
8.90301e-05
0.000309396
0.00672363
0.000683835
0.00405664
0.00672179
0.000504956
2.93154e-05
0.00112142
0.000681179
0.00320085
0.00158088
0.0151792
3.2088e-05
0.00674591
0.000691076
0.00253754
0.000307615
0.0011297
4.15233e-05
0.00487643
0.000482267
0.000650199
0.00908578
0.00131839
0.00803665
0.000533469
0.00625102
0.00672283
0.00672039
0.00705492
0.00588919
0.00664579
0.00861251
0.00741726
0.000221757
0.000640401
0.000847296
0.00773652
0.00432209
0.00672028
0.000734608
0.00043075
0.000167019
0.00554121
0.00116885
3.86148e-05
0.00683877
0.00385108
0.000653435
0.00685225
3.86349e-05
0.000212006
0.000696216
0.00562933
0.00835905
0.00822244
4.22281e-05
0.000776124
0.00460887
0.00258246
0.00116807
0.000423201
0.0048538
0.00726667
0.00301815
0.000115719
0.00672904
0.00083597
0.000665769
0.0118186
0.00672185
0.00154568
0.000244997
0.00654023
0.00672167
0.00671295
0.000173283
0.000566884
0.000492763
0.00675801
0.00864169
0.00598593
0.00672517
0.000328841
0.00951885
0.00257227
0.000617963
0.00243494
0.00178593
0.00672555
0.0141566
0.000520873
2.45488e-05
0.00113858
0.00718499
0.00673992
0.00671597
0.00673038
0.00672077
0.00671928
0.00750472
3.08658e-05
0.00671527
0.00672425
0.00649879
0.00830088
0.00114772
0.00605594
0.000536641
0.00678147
3.58312e-05
0.000297302
0.000840053
0.00666406
0.00137147
0.000591841
3.35512e-05
0.000409079
0.0067208
3.40685e-05
0.00671881
2.84964e-05
0.00300844
0.000675512
0.00673081
0.0044251
3.71538e-05
0.00672391
0.00981946
0.00672258
0.00675407
0.0114708
0.000459336
0.000724522
8.50817e-05
0.000681007
0.00682465
0.00676685
0.00513982
0.000376014
0.000556206
4.16554e-05
3.34104e-05
0.00238222
0.000548811
0.000181151
0.00314447
0.000523305
0.00647486
0.000611548
0.00509994
0.0018461
0.00672489
0.00188032
0.000196786
0.00811109
0.00672019
0.00421654
4.69594e-05
0.00572022
0.00350419
0.00672364
2.76895e-05
0.00825917
0.0033327
0.00672612
3.81832e-05
0.0133489
0.00097599
0.000290618
4.24316e-05
0.00823337
0.000939673
0.00108271
3.33691e-05