/*--------------------------------*- C++ -*----------------------------------*\
| =========                 |                                                 |
| \\      /  F ield         | OpenFOAM: The Open Source CFD Toolbox           |
|  \\    /   O peration     | Version:  v2012                                 |
|   \\  /    A nd           | Website:  www.openfoam.com                      |
|    \\/     M anipulation  |                                                 |
\*---------------------------------------------------------------------------*/
FoamFile
{
    version     2.0;
    format      ascii;
    class       volVectorField;
    location    "900";
    object      U_0;
}
// * * * * * * * * * * * * * * * * * * * * * * * * * * * * * * * * * * * * * //

dimensions      [0 1 -1 0 0 0 0];


internalField   nonuniform List<vector> 
18355
(
(1.08611 0.152923 1.19861e-21)
(1.01449 0.00181214 -1.40819e-22)
(1.06071 0.025623 0)
(1.01125 0.000643448 -3.16363e-22)
(1.04955 0.00399746 2.63042e-22)
(0.898781 0.058982 -5.68068e-22)
(1.01948 -0.0061016 0)
(1.05258 -0.000797893 3.67542e-22)
(1.00923 1.78692e-05 0)
(0.954656 0.0397799 0)
(0.999266 0.0178193 -5.27034e-22)
(1.07279 0.0526953 -1.30425e-20)
(1.07216 0.0537264 -1.37026e-20)
(1.13902 0.0596675 0)
(1.01136 -9.41927e-05 4.64046e-22)
(1.0097 0.00357715 -7.28159e-22)
(1.0112 0.000586914 2.7757e-22)
(1.00373 0.00524152 0)
(1.09505 0.0392005 -1.15355e-21)
(1.022 -0.00745132 1.19216e-21)
(0.952812 0.154272 1.33886e-21)
(1.02271 0.0142509 -2.40925e-21)
(1.01303 0.000412259 0)
(0.89517 0.0459153 0)
(1.01298 0.000341011 -8.50375e-23)
(1.00878 -0.00192401 -2.03181e-23)
(1.01885 -0.00536862 0)
(1.01143 0.00114195 -1.01296e-22)
(1.00764 -7.62158e-05 0)
(0.996743 0.0159948 7.96634e-22)
(0.756951 0.135672 1.1345e-20)
(0.987992 0.0593944 0)
(1.011 0.00502403 2.35288e-22)
(1.00735 0.00282595 0)
(1.00426 -0.000230257 -3.24742e-23)
(1.01202 0.00325066 -6.45342e-22)
(1.05049 0.0294946 2.24498e-21)
(1.01189 0.00341526 6.94579e-22)
(0.995085 0.0160634 -2.57605e-21)
(1.0124 0.00953749 -2.29935e-22)
(1.01322 0.000209386 2.06984e-25)
(0.997555 0.0180317 6.0088e-22)
(1.00768 0.00293187 8.27268e-22)
(1.01398 0.00167665 0)
(1.01425 0.00163958 -1.98428e-24)
(1.06676 0.0705547 0)
(1.01141 0.000538298 2.90659e-22)
(1.01138 0.000459065 -2.93859e-22)
(0.757114 0.0871066 -3.1292e-21)
(1.01774 -0.00417694 7.49946e-22)
(1.00396 0.000332665 -2.59824e-22)
(0.94165 0.232157 -3.09137e-22)
(1.01795 -0.00433131 0)
(1.09042 0.079695 -7.62397e-23)
(1.01577 0.00310427 7.62617e-22)
(1.02271 -0.00706313 -5.36248e-22)
(1.00201 -0.000110682 3.46828e-22)
(0.757754 -0.0179603 -1.96734e-20)
(1.00852 -0.00140538 0)
(0.881153 0.0909318 -1.518e-21)
(1.00754 0.00297232 0)
(1.07077 0.0442388 -6.22266e-21)
(1.08783 0.0827101 -2.04726e-21)
(1.01113 0.0123651 -2.98266e-22)
(0.995982 0.0775527 7.14749e-22)
(1.0039 0.000337276 0)
(1.02701 0.0266202 1.19372e-21)
(1.05016 0.030176 6.72391e-22)
(1.00643 0.00282023 -5.64686e-22)
(0.952174 -0.11209 -3.90302e-22)
(1.01724 -0.00326564 -6.43294e-22)
(1.01588 0.00324157 -1.00449e-21)
(0.993256 0.0505624 -7.84054e-22)
(1.00332 0.000616744 2.45231e-21)
(1.01908 0.0636164 2.69422e-21)
(1.00678 0.00300013 0)
(0.7302 0.0346449 -1.80265e-21)
(1.00697 0.0031719 0)
(1.01719 -0.00314989 6.40271e-22)
(1.00905 0.0580743 -1.59062e-21)
(1.026 0.0265557 -9.37575e-22)
(0.975453 0.0433623 -3.67493e-21)
(1.00662 0.00299425 5.75778e-22)
(1.02351 0.0309365 1.86368e-21)
(1.03731 0.0683647 0)
(1.0056 0.000204606 2.18697e-22)
(1.00862 0.000103748 -1.82711e-22)
(1.04289 0.0549186 0)
(1.01245 -0.00136229 0)
(1.04139 0.0561337 -1.61413e-21)
(0.990614 0.204843 -1.58045e-20)
(0.955015 0.131025 0)
(0.971781 0.0324699 3.30645e-21)
(1.01792 -0.00404519 -1.57052e-21)
(1.04213 -0.198358 0)
(1.00883 0.00774905 0)
(1.01166 -0.000600343 6.18807e-22)
(1.00959 0.00789979 3.08468e-22)
(1.07239 0.0495725 4.77623e-21)
(1.02072 0.0133677 -1.16273e-21)
(1.03651 0.0664272 0)
(1.01691 -0.00300477 0)
(1.01772 -0.00392212 1.56867e-21)
(1.00825 -0.0022503 0)
(1.02483 0.0276759 -1.32415e-22)
(1.00994 0.00372128 2.09378e-22)
(0.992317 0.076217 0)
(1.04144 -0.223535 0)
(1.04598 0.0432443 -2.20719e-21)
(1.00891 0.00336098 4.69597e-22)
(1.0026 -0.000177687 0)
(1.00176 7.27543e-05 -3.89847e-22)
(0.99213 0.034347 -1.30244e-21)
(1.02282 0.0297882 -2.19074e-21)
(1.05015 0.06184 0)
(1.00742 0.0341416 0)
(1.01687 -0.00287901 0)
(0.997555 0.0704561 1.19028e-22)
(1.02109 0.0218363 6.34341e-22)
(1.02777 0.0257887 2.42903e-21)
(0.960289 -0.0995678 -5.39081e-22)
(1.05816 0.0259163 -7.00467e-23)
(0.983088 0.264539 -4.27896e-21)
(1.04531 0.0606737 -4.29643e-21)
(0.988139 0.0640466 2.18769e-21)
(1.06289 0.0707438 -9.2015e-21)
(1.0191 -0.00594719 0)
(1.01123 0.000532638 -3.46972e-22)
(1.09571 0.153277 0)
(1.02136 0.0108971 2.51511e-21)
(1.01174 -0.000677832 -6.44555e-22)
(0.93152 0.231486 2.42371e-22)
(1.01443 0.00474405 6.31371e-22)
(1.07063 0.0426217 -8.59994e-22)
(1.03974 0.101303 0)
(1.01286 -0.00166439 -6.18496e-22)
(1.09378 0.0357722 0)
(0.99267 -0.12734 -1.20263e-21)
(1.0126 0.000808302 0)
(0.950523 0.137883 0)
(1.04199 0.0281885 -1.07827e-20)
(1.00575 0.016807 1.36309e-21)
(1.0115 -0.000106057 0)
(0.964266 0.272889 -3.21844e-21)
(1.0364 0.10342 0)
(1.01405 0.000353217 0)
(0.830579 0.0881776 -7.30232e-21)
(1.00903 -0.00667694 7.14041e-23)
(0.991139 0.0324585 4.21927e-22)
(0.920554 -0.0439493 0)
(1.01137 0.00104734 9.20589e-23)
(1.02774 0.025149 0)
(1.01947 0.0160965 0)
(1.0109 -0.00259975 0)
(1.00788 0.00306938 -7.10141e-22)
(1.0121 0.000248228 -2.13695e-23)
(1.01117 0.000482286 2.62051e-22)
(1.00615 0.000233609 -4.57185e-22)
(1.01151 -6.20209e-05 2.98729e-25)
(1.0119 0.000216166 1.79369e-23)
(1.00196 0.00849818 6.92199e-22)
(1.01442 0.00491231 -6.00242e-22)
(1.00904 0.00334898 0)
(1.00936 0.00559526 6.73753e-22)
(1.00017 0.00378437 -1.62769e-21)
(0.973355 0.0480957 -1.57485e-22)
(0.808973 0.0905808 0)
(1.07439 0.179534 2.54507e-21)
(0.842432 0.192922 0)
(1.04133 0.0286961 -5.30475e-21)
(1.00146 1.64227e-05 0)
(1.07036 0.0427899 7.25171e-22)
(1.00466 0.000151413 2.37413e-22)
(0.740496 0.0252766 0)
(1.00233 -0.000137346 -1.29785e-22)
(1.01341 0.000279277 0)
(1.00207 9.056e-05 3.41089e-22)
(1.00876 -0.00400689 1.38513e-23)
(1.04058 0.0135141 5.39554e-21)
(1.02095 0.0421697 -1.157e-21)
(1.00612 0.00015025 -2.78131e-22)
(0.97534 0.041567 3.77341e-22)
(1.02203 0.0127056 0)
(1.01161 0.00147805 2.58497e-22)
(0.99288 0.0434528 6.7552e-23)
(1.01786 -0.00384986 0)
(1.00897 0.000178234 2.9409e-22)
(1.03765 0.0563451 2.64549e-21)
(1.01585 0.00112833 0)
(1.01856 -0.00524206 -3.85212e-22)
(1.06344 0.0697887 8.19852e-21)
(1.0721 0.0482106 -1.73589e-21)
(1.01509 0.00151287 0)
(1.006 0.00396248 -9.73682e-22)
(1.01523 0.00027544 0)
(1.04226 0.0567701 0)
(1.00456 0.000429703 -5.3147e-22)
(1.10409 0.188047 -3.61358e-21)
(1.01477 0.00178316 0)
(1.13926 0.103811 0)
(1.0177 -0.00375332 6.73309e-22)
(1.00906 0.00260473 1.54045e-21)
(0.994288 0.0137953 0)
(1.00782 0.000203324 -2.2199e-22)
(1.08236 0.171702 -1.03208e-21)
(1.0219 0.009197 2.60132e-21)
(0.836416 0.183933 0)
(1.01155 0.00139743 -5.10492e-24)
(1.01058 0.00480934 5.62625e-22)
(1.02331 0.0147584 -7.09825e-23)
(1.01664 0.00933428 1.07613e-21)
(0.939285 0.00426819 -1.54608e-23)
(1.0145 0.0199467 -1.2802e-22)
(1.01547 0.0185412 1.31725e-22)
(1.00914 -0.00702876 -8.65888e-24)
(0.745045 -0.0371867 0)
(1.01959 0.0417312 1.07561e-21)
(1.04893 0.0236672 -1.3439e-21)
(1.02149 0.00971518 -2.4008e-21)
(1.01148 0.000291802 -3.67529e-22)
(1.04525 0.0421649 -6.50803e-22)
(1.00475 0.00239505 2.97217e-24)
(1.0434 0.0516013 1.87827e-21)
(1.01893 -0.00238409 -6.86406e-23)
(1.01145 -0.0489472 0)
(1.02536 -0.0158381 0)
(1.00505 0.00283155 1.49883e-22)
(1.00324 -0.118306 1.37392e-21)
(1.06932 0.134639 7.3879e-22)
(1.00306 0.0491303 -3.61327e-23)
(1.02358 -0.00669266 1.12877e-21)
(1.02577 0.0277219 2.63693e-21)
(1.05519 0.0343265 0)
(1.00486 0.00266302 -4.70362e-22)
(1.00643 0.00338141 -7.49786e-22)
(1.01013 -0.0433109 4.9642e-22)
(1.03378 0.00987326 -6.30104e-21)
(1.06553 0.0711541 4.9032e-21)
(1.05356 0.0168941 -6.55245e-21)
(1.01718 0.018924 -1.63389e-23)
(1.01538 0.00189093 0)
(1.03991 0.0131504 0)
(1.01771 0.017468 -1.73948e-23)
(1.00713 0.0480656 2.31707e-23)
(1.02146 0.00930054 2.22383e-21)
(1.01584 0.00284547 0)
(1.01134 0.000647427 -2.1574e-22)
(0.942937 -0.00290037 2.40685e-22)
(0.920381 0.0153134 -3.55962e-21)
(1.01791 -0.00357915 -1.17278e-21)
(1.01024 0.0128935 -2.86426e-22)
(0.922186 0.00518979 3.93002e-21)
(1.06098 0.0409923 3.17443e-21)
(1.01746 -0.00319858 -2.50978e-22)
(1.00855 -0.00376498 0)
(1.02832 -0.00196003 -2.1538e-22)
(1.05291 0.0173921 -6.26118e-21)
(1.01324 0.000450088 9.38509e-22)
(1.02752 -0.0162596 3.24644e-22)
(1.01196 -0.000815033 2.38741e-22)
(0.924768 -0.0600384 2.71653e-22)
(1.09269 -0.0220714 0)
(1.07009 0.047907 -2.39175e-22)
(1.06235 0.0253779 5.32844e-21)
(0.992514 0.0135583 -3.30369e-21)
(0.98106 -0.00977704 -2.32203e-21)
(1.01421 0.0142743 1.2233e-21)
(1.07508 0.050811 0)
(1.01204 -0.000867035 6.65439e-24)
(1.01594 0.00300765 -1.74918e-21)
(1.01833 -0.00451361 0)
(1.00886 0.00356735 0)
(1.00965 0.00198683 -9.98591e-22)
(1.0498 0.0237911 -1.52028e-21)
(1.01118 0.000721758 1.86933e-23)
(1.0178 0.00957794 0)
(1.01228 -0.0150527 -2.30626e-21)
(1.01283 -0.00159459 0)
(1.05519 0.0844083 -1.51776e-21)
(0.81817 -0.303893 0)
(1.0088 -0.011778 0)
(1.01682 0.00972747 -8.55237e-24)
(1.00432 0.03461 3.27626e-22)
(1.00865 0.00343327 7.43854e-23)
(1.046 0.0537511 0)
(1.0217 0.00799417 4.81198e-21)
(1.01761 0.0438795 -1.8034e-21)
(1.01395 0.000264349 5.46723e-24)
(1.01779 0.0428581 0)
(0.934324 -0.0613979 2.42157e-22)
(1.01083 0.00491055 -3.23654e-22)
(1.06519 0.039236 -1.58111e-20)
(1.02317 0.0212397 0)
(1.03576 -0.0134311 1.10986e-23)
(1.01829 0.0150986 -1.11656e-21)
(1.01079 -5.3024e-05 -3.22192e-22)
(1.0058 0.00366387 3.11716e-22)
(1.05308 0.0817891 1.49089e-21)
(1.01743 0.00950461 -1.3212e-21)
(1.01064 0.0186865 0)
(1.05198 0.0286407 2.52176e-21)
(0.969235 -0.300978 -2.1158e-20)
(1.05026 0.0524107 0)
(1.07084 0.0478164 4.12605e-21)
(1.00694 0.00326236 1.11687e-21)
(1.01279 -0.0177284 4.21858e-23)
(1.01707 -0.00421619 4.12376e-22)
(1.05026 0.014934 2.47898e-21)
(1.06153 0.0249736 0)
(1.06473 0.0397258 -7.6271e-21)
(1.04318 0.0324592 1.65942e-22)
(1.03555 0.0144592 0)
(1.01163 0.0009901 -2.89886e-22)
(1.01198 0.00788096 -2.71455e-21)
(1.07983 0.0832947 1.79404e-21)
(1.00302 0.0356042 -8.18142e-23)
(1.01162 0.00100695 -2.03609e-22)
(1.01138 0.000335976 6.2468e-22)
(1.01133 0.000889648 -1.74169e-22)
(1.07263 0.0363434 6.97263e-21)
(1.03809 0.0180781 3.02598e-21)
(0.692476 -0.0176275 -1.02326e-20)
(1.04005 0.0367835 -1.69781e-22)
(1.00872 -0.0141921 2.30057e-21)
(1.0425 0.0266716 -1.55745e-21)
(0.96741 -0.0080558 0)
(1.00851 -0.00609521 -7.98399e-23)
(1.02183 0.00880587 2.24556e-21)
(1.04168 0.0270566 7.16638e-21)
(1.01791 0.00505701 1.67359e-22)
(1.00539 0.0501128 3.87327e-23)
(1.00497 -0.000278949 -7.00174e-24)
(0.871127 -0.0338008 -1.53161e-21)
(1.01025 0.00403271 2.67691e-22)
(0.971745 0.0663733 0)
(1.01457 0.000589751 0)
(1.01277 0.00952532 1.86437e-22)
(1.00722 0.00121579 3.43685e-22)
(1.06698 0.0522356 1.00599e-20)
(1.06736 0.199646 -3.16315e-21)
(1.00923 0.0487602 -2.32541e-22)
(1.03404 0.0352048 4.6995e-23)
(1.01661 0.0131699 5.61551e-22)
(1.01245 -0.00140243 0)
(1.01763 0.00486667 -1.58196e-22)
(1.01703 -0.016201 -9.67947e-22)
(0.949391 0.0473938 -3.94477e-23)
(1.01234 -0.00134381 0)
(1.01143 0.000514567 8.60244e-22)
(0.967448 -0.0303404 5.36689e-22)
(1.01796 0.0129781 1.59982e-21)
(1.01258 -0.00160055 -6.00147e-22)
(1.06065 0.0466202 -1.41763e-20)
(1.01597 -0.014759 -1.13956e-22)
(1.01133 0.000772507 0)
(1.02219 -0.00595011 4.3636e-22)
(1.01583 0.0454194 6.66592e-22)
(1.01196 0.000492391 1.05088e-22)
(1.01398 0.0448153 1.16632e-21)
(1.00345 0.0024194 5.36712e-22)
(1.01163 0.000547507 -1.44937e-21)
(1.02034 0.0128588 0)
(0.940184 0.0852607 0)
(1.04704 0.00825209 0)
(1.00348 0.00205738 -6.73924e-22)
(1.01144 -7.27524e-05 1.68145e-22)
(1.01533 -0.0305334 0)
(1.01137 0.000984442 3.44862e-23)
(1.00475 0.000222139 5.72866e-22)
(0.954293 -0.0199595 2.47975e-21)
(1.04577 0.00328171 -4.65689e-23)
(1.01736 -0.0184177 2.35149e-21)
(1.01713 0.0047216 -2.45183e-21)
(1.03424 0.0103508 -7.93309e-21)
(1.07092 0.0534393 -1.34277e-20)
(1.03721 0.00783663 1.97091e-22)
(1.02689 -0.00395671 0)
(1.05107 0.0148206 -2.81561e-21)
(1.01045 0.00458474 -1.38277e-22)
(1.01387 -0.0273806 0)
(1.03274 0.0108673 -7.9222e-22)
(1.02011 0.0118333 0)
(1.01157 0.00057163 5.75766e-22)
(1.00335 0.00650289 -1.16202e-21)
(1.00995 -4.3281e-06 -5.72931e-22)
(1.00504 -0.00477961 -1.03912e-21)
(1.01525 0.000321616 3.92948e-24)
(0.952284 0.0458536 0)
(1.01926 0.017547 7.91867e-23)
(1.02876 0.0239574 -2.44461e-21)
(1.00334 0.00025914 0)
(1.01135 0.000870523 1.13718e-22)
(1.01022 0.00216422 0)
(1.01795 -0.00539967 -1.02201e-21)
(1.07022 0.0414754 -1.17267e-20)
(0.553015 0.0604142 -1.09964e-21)
(1.0496 0.00863145 -8.46887e-23)
(1.02323 -0.0130182 -2.35102e-22)
(1.06184 0.0400426 -6.62771e-21)
(1.01971 0.00589378 5.07922e-22)
(1.01453 0.000524091 -6.69909e-22)
(1.00549 -0.000379902 -6.19656e-24)
(1.06458 0.0382035 3.9799e-21)
(1.01598 0.00122736 -1.77789e-21)
(1.01841 -0.0206883 -5.69542e-21)
(1.01965 -0.00581759 0)
(0.999794 -0.00240731 0)
(0.968164 0.000419291 -4.24852e-21)
(1.00326 -0.0598404 1.91254e-21)
(1.05615 0.193778 6.64634e-21)
(1.07145 0.0533486 4.02425e-22)
(1.00839 -0.00211793 4.33494e-24)
(0.320286 -0.129121 0)
(1.0213 0.0133537 2.41323e-21)
(1.01114 0.000648705 7.021e-24)
(0.944551 0.153852 1.24919e-22)
(1.01472 0.000678603 0)
(1.01521 -0.0241739 0)
(1.00772 -0.0129265 -8.94581e-23)
(0.989136 0.08066 0)
(1.01469 0.000728277 0)
(1.06985 0.0426281 0)
(1.02049 0.167133 2.99013e-21)
(1.06837 0.0468344 4.55754e-21)
(1.01282 0.00440432 -1.00309e-22)
(1.01595 0.00245202 1.57462e-24)
(1.06921 0.0468453 9.74967e-21)
(1.02193 0.0219542 2.34165e-21)
(1.02073 -0.00427829 -5.10153e-24)
(0.96188 0.0415688 0)
(1.08462 -0.0203684 0)
(1.0111 0.000579415 -1.2827e-23)
(1.06513 0.0385901 8.17361e-21)
(1.06974 0.0415592 3.27051e-22)
(1.01567 0.00232639 0)
(1.01207 0.0115849 1.98627e-22)
(1.01092 0.0465648 -3.54538e-22)
(0.823238 -0.235729 -9.8173e-21)
(1.05472 0.046778 0)
(1.01743 0.0128716 -7.805e-22)
(1.01713 -0.00443304 4.45842e-22)
(1.06323 0.0355048 3.29552e-21)
(1.01063 -2.90828e-05 1.74498e-22)
(1.00925 0.0046596 5.93045e-22)
(1.02164 -0.00531125 -1.97167e-22)
(1.00363 -0.0545559 -2.26137e-21)
(0.592009 0.0629904 -4.62926e-23)
(1.01024 0.00445866 1.37027e-22)
(1.00298 8.26712e-05 0)
(1.01378 0.000540732 -7.29038e-23)
(1.06594 0.0529845 0)
(1.02993 0.0110522 1.9847e-21)
(1.00528 0.00357605 3.19349e-22)
(1.01738 -0.0230248 0)
(1.04514 0.0519087 -2.24522e-21)
(1.02212 0.00534447 -5.13996e-21)
(1.03633 0.0594498 1.08065e-21)
(1.07028 0.0439916 1.2267e-20)
(1.02249 0.013197 6.44709e-22)
(1.01038 -3.58848e-05 6.73364e-22)
(1.0538 0.0459512 -4.1768e-21)
(1.06657 0.0552453 1.93017e-20)
(1.02494 -0.199942 7.90289e-21)
(1.00992 0.00436347 -3.42553e-23)
(1.1456 0.208091 -2.94596e-21)
(1.01245 0.000707484 0)
(1.01014 0.0044825 1.34354e-22)
(1.05058 0.0555539 0)
(1.02344 0.0229516 -8.86746e-22)
(0.95038 0.050493 -1.32807e-21)
(0.996095 0.0521314 0)
(1.02887 0.0247323 0)
(1.00263 -0.000776849 0)
(1.02332 0.0142238 3.19336e-21)
(1.06125 0.0452071 5.06371e-22)
(1.02071 0.0227102 1.35766e-21)
(1.06113 0.0233454 -2.37954e-21)
(1.01881 0.0136989 -2.2413e-21)
(1.00959 0.00427803 -2.19632e-22)
(1.02785 0.00924576 0)
(1.00981 0.0043953 3.34176e-22)
(1.06996 0.0431551 -6.5016e-21)
(0.579604 0.0518411 1.18432e-21)
(0.985332 0.0789762 1.26589e-21)
(1.00281 0.00436368 7.68827e-22)
(1.01287 0.0073666 0)
(1.01825 0.0135879 4.28013e-22)
(1.02367 0.0162852 6.09169e-23)
(1.00636 0.00401906 -1.38469e-21)
(1.00985 0.0107011 -2.98907e-22)
(1.00273 -0.000632064 0)
(1.01751 0.001572 -1.17153e-21)
(1.0477 0.0538323 0)
(1.01569 0.0020195 0)
(1.00942 0.00970592 0)
(0.71696 -0.0575271 -2.86792e-22)
(1.12039 0.191205 5.73966e-21)
(1.08314 0.0810246 -1.43811e-21)
(1.02147 0.0104854 -5.24519e-21)
(1.00501 0.000111194 0)
(1.01278 0.0471494 -4.80589e-22)
(1.02232 0.0136954 -1.25064e-21)
(0.928674 -0.0452896 1.32183e-22)
(1.06743 0.0153832 1.35736e-21)
(1.01125 0.00695607 2.57216e-21)
(1.01977 0.0307127 0)
(1.00942 -0.00451135 0)
(1.02906 0.0168812 6.48701e-22)
(1.03586 0.0245632 -4.06907e-21)
(0.611729 0.102381 1.81211e-20)
(1.03262 0.0491577 0)
(1.01168 0.00272689 -8.09211e-22)
(0.986398 -0.0780107 -3.64593e-21)
(1.00986 9.19646e-05 0)
(1.07839 0.19294 -8.83728e-21)
(0.311705 -0.147626 0)
(1.05483 0.0179444 1.90701e-21)
(1.01223 0.0112257 1.18001e-22)
(0.573905 0.103686 -1.13088e-20)
(1.01122 0.000804985 0)
(1.06952 0.0426889 7.44268e-21)
(0.984798 0.058887 1.89007e-22)
(1.0083 0.0720097 0)
(1.01976 0.0225927 2.34504e-21)
(1.02751 0.00891913 0)
(1.02151 0.00545639 3.64073e-23)
(1.10612 -0.0943343 -1.23229e-20)
(1.02085 -0.144334 -1.9234e-20)
(1.00399 0.0664652 0)
(1.07266 0.120369 -4.78152e-21)
(1.00838 0.00253216 -5.87426e-22)
(1.0211 0.00530432 3.65021e-23)
(1.02471 0.0309623 0)
(1.01601 0.00278226 0)
(1.01382 0.00625645 1.31492e-21)
(0.956328 0.146405 0)
(0.73754 -0.0888115 -8.878e-21)
(0.532019 0.0510183 1.57038e-21)
(0.823926 -0.0170504 -6.55974e-21)
(1.01165 0.0153311 8.47949e-22)
(0.9907 0.05688 0)
(0.988061 0.0332342 -5.27583e-22)
(1.01142 0.000668296 0)
(1.01277 0.00299657 -5.05668e-22)
(1.01115 0.0175128 0)
(1.01715 0.000759729 0)
(1.02215 0.00823939 -1.78084e-21)
(1.0159 0.00260766 0)
(0.965473 0.0761166 -1.84421e-21)
(1.01181 -0.00073943 -4.50994e-22)
(0.807557 -0.0196094 5.56217e-21)
(1.01425 0.00957751 1.57518e-21)
(1.06968 0.0421123 2.47587e-21)
(1.07005 0.0541796 1.49968e-20)
(1.01287 0.00306284 -3.115e-22)
(1.02162 0.0297239 3.42156e-21)
(1.1007 0.162277 0)
(1.01742 0.00168973 3.69746e-21)
(0.432774 0.0350631 0)
(1.01155 0.000560552 2.66208e-22)
(0.956843 0.117025 -8.10474e-22)
(1.0312 0.0492908 1.22626e-21)
(1.0138 0.000275411 2.21852e-21)
(0.986878 0.0310897 5.08458e-22)
(1.07429 0.0494499 -3.47101e-21)
(1.07218 0.0551855 7.32089e-22)
(1.00636 7.29743e-05 1.41549e-22)
(1.006 0.00298194 0)
(1.06177 0.0348237 5.98877e-21)
(1.05566 0.0181905 1.59952e-20)
(1.06977 0.0419864 -4.98417e-21)
(1.01605 0.000842336 4.70272e-22)
(1.07114 0.044781 -8.73797e-21)
(1.01189 -0.000806773 -7.15064e-22)
(1.07005 0.0164621 -9.04152e-22)
(1.00446 -0.000203828 4.23746e-24)
(1.01169 0.00118058 4.12927e-22)
(1.05445 0.0380539 2.79944e-22)
(1.01307 -0.0123687 -9.56567e-22)
(1.01415 -0.0390408 2.32518e-21)
(1.00254 -0.000170262 0)
(1.01774 0.0316541 -7.84634e-22)
(1.03996 -0.00798867 -1.29548e-22)
(0.891241 -0.0432178 0)
(0.660675 -0.0145337 1.10128e-20)
(1.04297 0.0241952 5.5674e-23)
(1.02118 -0.00383254 4.4722e-22)
(1.00173 -1.36761e-05 -4.84151e-22)
(1.00623 0.0353497 -2.3279e-23)
(1.01893 0.0121822 -5.82453e-24)
(1.04256 0.0235471 2.99073e-21)
(0.293938 0.107062 -6.42666e-21)
(1.01361 0.00128569 6.54005e-22)
(1.0514 0.0150177 2.85969e-23)
(1.01553 0.00893242 9.33784e-22)
(1.00171 1.02738e-05 -2.13073e-22)
(1.03729 0.0268583 2.41987e-21)
(0.934778 -0.0549326 1.53373e-22)
(1.03937 0.00900263 -8.36284e-23)
(1.03479 0.0940974 -5.14126e-22)
(1.03047 -0.00907095 4.02944e-22)
(1.06705 0.0312256 0)
(0.984975 0.179892 -4.44881e-21)
(1.00865 -0.00642666 9.01132e-24)
(1.01135 0.000751535 0)
(1.14752 0.178923 -1.3342e-20)
(1.03941 0.0552901 0)
(0.775624 -0.0326393 -6.24004e-21)
(0.999683 0.0566217 0)
(1.01322 0.00902191 0)
(1.01594 0.00238126 0)
(1.0175 -0.00340542 0)
(1.00246 0.00197899 -8.7907e-22)
(1.01541 0.0135377 -6.58796e-22)
(1.00794 -0.0124109 0)
(1.03909 0.120052 0)
(0.910265 0.22799 1.31664e-22)
(1.0117 0.0011973 -3.85269e-22)
(0.857878 -0.256957 -1.98713e-21)
(0.834409 -0.236804 7.54475e-21)
(1.0023 0.0175366 9.53333e-22)
(1.05182 0.0343108 1.22513e-21)
(1.0095 0.00476435 -2.55153e-22)
(1.08241 0.143426 2.60164e-21)
(0.988676 0.0731969 0)
(1.00919 -0.00835318 -5.19134e-23)
(0.965061 0.188482 -5.8245e-21)
(1.06425 0.0368887 0)
(0.970263 0.0645699 0)
(0.893686 -0.0632537 -7.88591e-22)
(1.02251 -0.0047325 -1.16501e-22)
(1.01769 -0.00343926 1.19363e-21)
(1.00522 0.000206861 -2.2837e-22)
(0.986863 0.0453196 -6.64178e-23)
(1.0718 0.0361786 -1.42026e-20)
(1.01263 0.00430953 -4.59369e-24)
(1.03479 0.0080961 -1.89898e-21)
(1.04366 0.116884 2.16872e-21)
(1.02145 0.0127769 -2.26218e-21)
(1.06476 0.0372641 0)
(1.01784 -0.00363839 1.91174e-22)
(1.06407 0.0353496 0)
(0.387343 -0.0410158 -6.741e-21)
(1.11754 -0.0712571 8.13496e-21)
(1.07858 0.022116 -1.52117e-21)
(1.11512 -0.0684655 0)
(1.0379 0.0585219 0)
(0.72684 0.00322522 0)
(1.02105 0.030876 -1.53988e-21)
(1.01156 -0.000380802 -2.19153e-22)
(1.01189 0.0342124 5.41912e-22)
(0.913 -0.0684736 0)
(1.00985 -0.00479534 0)
(1.07321 0.0341548 -1.74084e-20)
(1.01277 0.00444796 3.00448e-23)
(1.07346 0.12787 0)
(1.0137 0.000510672 0)
(1.01352 0.00980495 1.12957e-22)
(0.814127 -0.0547789 0)
(1.00367 8.83733e-05 -6.56333e-22)
(1.01253 0.0359489 2.88506e-22)
(1.01203 -0.0343197 -1.36439e-21)
(1.0343 0.0901425 -4.5379e-22)
(1.02118 0.00160259 -2.00748e-21)
(1.01486 0.00116048 0)
(1.03548 0.0269883 0)
(1.01697 0.0328845 0)
(1.00437 0.00208873 6.51993e-22)
(1.01468 0.0032502 -5.70216e-22)
(0.9822 0.0287909 0)
(1.09457 0.0800366 4.11242e-21)
(1.0298 0.0235657 -5.98856e-21)
(1.01083 2.14624e-06 -3.56541e-22)
(1.04429 0.0588628 1.59663e-21)
(1.00111 0.179717 -3.14393e-21)
(1.01249 0.00368465 -1.57497e-23)
(1.11671 -0.0521417 0)
(1.04373 0.0617867 3.43293e-21)
(1.02171 0.005256 4.64323e-21)
(1.09772 0.24882 -7.41541e-22)
(1.00402 0.00226939 -5.24978e-22)
(1.06244 0.0223343 -3.73061e-22)
(1.01756 0.00329515 0)
(1.00803 -0.0137125 6.8783e-23)
(1.05463 0.0402362 -2.723e-21)
(1.01828 0.0232625 -1.07045e-21)
(0.793391 -0.18948 -8.21946e-21)
(1.02974 0.0228347 2.62932e-21)
(1.01492 0.00111357 2.76828e-21)
(1.0569 0.232725 -1.01559e-20)
(1.01737 0.00330889 0)
(1.00858 0.00325401 -5.36857e-22)
(1.01282 0.000529212 -1.96e-21)
(1.01157 -0.000351373 0)
(1.01139 0.0372729 0)
(1.04219 0.0529508 1.72438e-21)
(1.0462 0.199789 -1.98042e-21)
(1.00746 2.77684e-05 0)
(0.449528 0.0429882 3.00431e-22)
(1.00735 -0.0068292 -9.69672e-22)
(1.12306 -0.0303397 0)
(0.799826 -0.278795 7.66141e-21)
(1.01235 0.0122382 0)
(1.01739 0.00491689 2.7523e-21)
(1.0191 0.0318924 9.79396e-22)
(1.00195 -0.000434107 -5.53931e-22)
(1.0676 0.044195 -3.38538e-21)
(1.01365 0.00328135 2.38105e-22)
(1.00815 0.00337294 1.33899e-22)
(1.00772 0.00496113 0)
(1.01267 0.00427321 -2.44898e-23)
(1.01714 0.00166304 -1.20801e-21)
(1.05056 0.0297045 3.64128e-22)
(1.00136 0.0048317 8.8421e-22)
(1.06544 0.0405516 0)
(1.022 -0.00825571 2.23597e-21)
(1.01309 0.0076634 -1.37718e-21)
(1.00311 0.00911203 0)
(1.01968 -0.0165412 6.5301e-22)
(1.09809 -0.00863267 0)
(1.0154 0.00162937 0)
(1.07034 0.043392 1.72902e-21)
(1.04399 0.062412 4.51139e-21)
(1.00519 0.00311145 0)
(0.749656 -0.144375 2.15881e-20)
(0.391922 -0.0535814 6.11681e-21)
(1.00267 9.96408e-05 -6.43683e-22)
(1.11507 0.0169455 7.66858e-21)
(1.00168 -3.91605e-05 0)
(1.0546 0.0253513 -4.17142e-22)
(1.06636 0.0314712 6.13874e-21)
(1.00944 -0.00824252 6.12049e-23)
(1.06267 0.0347477 -1.14062e-20)
(1.01304 0.0331971 -1.27593e-22)
(1.12 -0.0159691 0)
(1.0024 0.000108384 5.81438e-22)
(1.05257 0.0156135 -4.33998e-21)
(1.11349 -0.00606366 0)
(1.01425 0.100001 7.56692e-23)
(0.953665 -0.00098162 4.73611e-21)
(1.01708 0.0017518 -1.42633e-21)
(1.02854 0.0535238 3.74736e-22)
(1.07409 0.0438618 0)
(1.07314 0.142288 -7.00534e-22)
(1.0162 0.000946457 -1.46089e-21)
(1.0385 0.0178467 1.37687e-22)
(1.02251 -0.00416996 1.03714e-22)
(1.01679 0.00836857 0)
(1.01163 0.0011858 1.96042e-23)
(1.00456 -0.000276121 -6.43638e-23)
(1.01377 0.0015437 0)
(1.12081 0.00577534 -5.20846e-21)
(1.01765 -0.0198304 0)
(1.01169 6.98081e-06 0)
(1.0072 0.00282007 2.26224e-24)
(1.00324 -0.000278918 1.85162e-22)
(1.01667 0.0121346 -1.14517e-21)
(1.01373 0.0966917 -1.06941e-22)
(1.07378 0.0434108 0)
(1.01077 0.00489917 -5.92478e-22)
(1.01553 0.0325632 0)
(1.01352 0.00752994 0)
(1.01309 0.00732484 0)
(1.02328 -0.00742083 -3.90383e-22)
(1.01145 -3.45544e-05 9.30605e-23)
(0.981052 -0.014917 -7.66343e-22)
(1.00709 0.0029917 0)
(1.01154 -0.000438813 0)
(1.00874 0.000154798 0)
(1.021 0.010138 3.61829e-21)
(1.01472 0.00159374 6.89655e-22)
(1.01648 0.00594627 -1.57879e-22)
(1.05165 0.0600296 0)
(0.95137 0.123178 0)
(1.04229 0.0250837 8.6465e-21)
(1.01159 -0.000526983 -1.96403e-22)
(1.06796 0.0551586 -1.219e-20)
(1.00794 0.00324401 1.32277e-22)
(1.00724 0.00300259 -2.77956e-22)
(1.01681 0.00679833 -1.51082e-22)
(0.957903 -0.00636752 -3.35896e-21)
(1.00213 0.00712209 -6.65388e-22)
(1.01605 0.00727462 0)
(1.00824 0.00511039 0)
(1.0148 0.00156733 0)
(1.00086 0.0022278 0)
(1.00628 0.00277523 0)
(1.00311 -0.0038022 1.02201e-21)
(1.0135 0.00314503 0)
(1.02049 0.0123083 2.65324e-22)
(1.01165 0.00136734 2.85383e-22)
(1.03797 0.0175286 0)
(1.12376 0.167995 5.16303e-21)
(1.01162 -0.000480764 0)
(1.02366 0.0134027 0)
(1.01082 -3.8314e-05 -4.56945e-22)
(1.09542 0.033426 2.95646e-22)
(1.01496 0.0709975 3.92198e-22)
(1.05671 0.02406 -1.55535e-22)
(1.01495 0.0133929 0)
(1.0219 0.00559521 6.51967e-22)
(1.01551 0.0101791 -1.56703e-21)
(0.986537 -0.0213181 0)
(0.67657 0.10004 -1.88269e-21)
(1.00697 0.000193186 1.86662e-22)
(0.997644 0.0669013 0)
(1.02373 0.0137734 0)
(0.862438 -0.0364337 2.78822e-21)
(1.01268 0.0033437 -1.79376e-21)
(1.01047 0.00470901 2.84326e-22)
(1.00272 -0.00173085 0)
(1.01558 -0.193515 0)
(1.00279 -0.00103695 0)
(1.0575 0.0242839 -4.04102e-23)
(1.0226 -0.00258667 1.5163e-22)
(1.05908 0.0469198 0)
(0.990134 0.0530618 7.11841e-22)
(1.00828 8.89135e-06 2.93599e-22)
(1.01151 -1.51072e-05 0)
(1.00431 -0.000286031 -1.705e-23)
(1.01242 0.0035126 3.00015e-23)
(1.06179 0.0238574 2.65446e-21)
(1.07389 0.0398436 0)
(0.873239 -0.0131355 5.77953e-22)
(1.06169 0.0446287 0)
(1.02446 0.00254776 -3.33053e-21)
(1.00614 0.00288366 7.06823e-23)
(1.00751 9.83855e-05 2.08534e-22)
(1.01168 0.00154487 0)
(1.01615 -0.00260421 0)
(1.02579 0.0117724 -8.95739e-22)
(1.06503 0.0410083 8.75971e-21)
(1.01605 -0.0182424 7.57087e-22)
(0.955196 -0.0103405 0)
(1.02402 0.00250948 -3.16578e-21)
(1.02034 0.00258981 0)
(0.983333 0.0313855 0)
(1.01605 0.00253952 0)
(1.06565 0.0544094 -6.12235e-21)
(1.06266 0.0441319 0)
(1.04015 0.0595432 0)
(1.06458 0.0398131 9.61793e-22)
(0.869558 0.0907278 -2.34964e-20)
(0.991042 0.00434139 -1.63326e-21)
(1.01145 0.000344657 3.14218e-22)
(1.0063 0.00293844 -7.19923e-23)
(1.02752 0.00807391 2.30961e-21)
(1.01397 0.000696236 0)
(0.936097 -0.116783 5.71617e-22)
(1.07053 0.0366142 0)
(1.06792 0.0435944 3.21176e-22)
(1.01114 0.0048788 7.89883e-23)
(1.021 0.00975499 0)
(1.00605 -0.0052545 2.17556e-21)
(1.01639 -0.00272626 -6.9053e-22)
(0.709473 0.0992139 0)
(1.0849 0.0183559 1.69883e-21)
(1.00713 0.00317064 0)
(1.00251 -0.000420727 0)
(1.00551 0.000357277 2.80655e-22)
(1.01166 0.00137637 1.96986e-23)
(1.01224 -0.00126762 0)
(1.02305 -0.00594508 -4.88575e-22)
(1.05187 0.0540789 5.25693e-22)
(1.00331 -0.00167506 -3.34946e-22)
(1.0119 0.00299879 2.45349e-21)
(1.01129 0.00493601 2.36339e-22)
(1.0132 -0.000499493 2.29576e-22)
(1.01164 0.001196 4.05018e-22)
(1.01656 0.00804909 0)
(1.00837 -0.005399 -1.27597e-21)
(1.01322 -0.000451526 0)
(1.01273 -0.0100059 0)
(1.00802 0.00517218 0)
(0.976198 -0.0277567 0)
(1.05179 0.0371323 0)
(1.00651 0.00211958 -3.6131e-22)
(0.983454 -0.0689939 0)
(1.03388 -0.0115533 -8.96995e-23)
(1.03293 0.00868927 -3.34334e-21)
(1.0701 0.0419418 5.26877e-21)
(0.968053 0.0153282 -5.4787e-22)
(1.01372 0.000541963 0)
(1.01119 0.00042477 -2.35945e-22)
(1.01306 0.000291175 -4.14945e-22)
(1.04639 -0.013882 0)
(1.00714 -2.54787e-05 -7.13821e-22)
(0.99151 0.00219207 0)
(0.993684 0.0383204 0)
(1.01627 0.00855414 -9.75714e-22)
(1.01035 0.00183518 0)
(1.0213 0.00105081 -1.93905e-21)
(0.854802 -0.0460366 -2.53808e-21)
(1.03037 0.0383458 -2.13237e-23)
(1.00735 7.65541e-05 -6.66385e-22)
(1.00617 0.000544625 6.6227e-23)
(1.01735 -8.75803e-05 0)
(1.05123 0.0511868 8.39638e-24)
(1.01251 0.00297294 -3.09284e-22)
(1.07247 0.0521459 0)
(1.01171 -0.000106363 4.685e-24)
(1.00459 0.00220815 0)
(1.04275 0.0256947 8.50328e-22)
(1.01487 0.0859574 -1.26576e-21)
(1.05225 0.137354 0)
(1.052 0.0373506 1.53221e-22)
(1.05185 0.0562788 0)
(1.00623 0.00385308 3.75277e-22)
(1.0299 0.00668548 5.597e-22)
(0.977088 0.0812887 -2.79709e-21)
(1.01947 0.000532628 0)
(1.01232 0.00334752 -1.83654e-22)
(0.981383 0.0831645 -1.21669e-21)
(1.01019 0.00683266 0)
(1.10728 0.0408884 0)
(1.0196 0.0930918 2.56767e-21)
(1.00291 -0.000253698 -3.98646e-22)
(1.00644 0.00394392 -7.6224e-23)
(1.02159 0.00156967 0)
(1.01296 0.00314697 1.55345e-21)
(1.00623 0.00406729 7.99679e-23)
(0.99257 -0.0674316 0)
(0.965827 0.0500029 -8.15035e-23)
(1.00812 0.00283243 1.43555e-22)
(1.01608 0.00883054 9.68809e-22)
(1.01628 0.0134094 -1.7513e-21)
(1.06524 0.0344634 1.47623e-20)
(1.01238 0.00362608 1.52551e-22)
(1.02221 -0.00253304 8.86531e-23)
(1.00558 -0.0148502 -1.43762e-21)
(1.01837 -0.00405546 -5.58105e-22)
(1.01155 0.00473237 0)
(1.04908 0.0323978 -1.71219e-22)
(1.07357 0.041516 0)
(1.07006 0.0417387 0)
(1.014 0.000790533 -1.25611e-21)
(1.01039 0.00405454 3.7385e-22)
(1.00838 0.00312794 6.60512e-22)
(1.01051 0.0131584 0)
(1.01815 -0.0147924 -4.57469e-22)
(1.01018 -0.000503552 6.50634e-22)
(1.01272 -0.00159311 6.16822e-22)
(1.0111 0.000552618 0)
(1.02494 -0.013471 2.5323e-22)
(1.02293 0.0554739 0)
(1.01385 0.000721849 3.49986e-22)
(1.01804 0.00111865 1.31484e-21)
(1.07075 0.0564826 -7.58758e-22)
(1.01245 -0.00149922 0)
(1.01197 -0.000721416 -9.1169e-22)
(1.01741 0.00291519 2.98963e-21)
(0.898109 0.19928 0)
(1.01003 0.00388592 -6.35594e-22)
(1.02073 0.00259859 4.77796e-22)
(1.01408 0.000776572 0)
(1.01903 0.00432796 -1.57761e-22)
(1.01032 0.00383838 0)
(1.04028 0.0320567 -4.0868e-21)
(1.06271 0.0451236 0)
(1.01827 0.00126127 -1.33654e-21)
(1.09904 0.0408483 1.51715e-22)
(1.04743 0.0371413 0)
(1.0585 0.0579761 -8.27343e-21)
(1.06707 0.0456752 -3.42976e-22)
(1.01128 0.000886031 0)
(1.02094 0.00037407 9.0166e-22)
(1.0133 -0.00187056 0)
(1.01204 -0.000719779 4.61232e-22)