/*--------------------------------*- C++ -*----------------------------------*\
| =========                 |                                                 |
| \\      /  F ield         | OpenFOAM: The Open Source CFD Toolbox           |
|  \\    /   O peration     | Version:  v2012                                 |
|   \\  /    A nd           | Website:  www.openfoam.com                      |
|    \\/     M anipulation  |                                                 |
\*---------------------------------------------------------------------------*/
FoamFile
{
    version     2.0;
    format      ascii;
    class       surfaceVectorField;
    location    "900";
    object      Uf;
}
// * * * * * * * * * * * * * * * * * * * * * * * * * * * * * * * * * * * * * //

dimensions      [0 1 -1 0 0 0 0];


internalField   nonuniform List<vector> 
27284
(
(1.09176 0.152506 2.02563e-21)
(1.08523 0.147971 2.8397e-21)
(1.08403 0.15633 3.2996e-21)
(1.01437 0.00171351 5.86277e-23)
(1.01464 0.00179209 7.00373e-23)
(1.01447 0.0019094 -8.94695e-23)
(1.05862 0.0257277 0)
(1.06069 0.0238282 3.99086e-22)
(1.06124 0.0268959 4.5503e-22)
(1.01122 0.000616993 6.8214e-23)
(1.01125 0.000674923 5.12068e-23)
(1.01127 0.000639734 1.99559e-22)
(1.05145 0.00128504 -8.77045e-24)
(1.05162 0.0074629 -1.08479e-22)
(1.04542 0.00398026 -2.4623e-22)
(0.897988 0.0529097 -2.59573e-22)
(0.910333 0.0628194 -2.65749e-22)
(0.887007 0.0649388 2.67785e-21)
(1.0193 -0.00602219 -1.8901e-22)
(1.01955 -0.00588894 2.79393e-22)
(1.01966 -0.00643013 -3.18835e-23)
(1.05682 -0.00182101 -2.16302e-21)
(1.04872 -0.00388065 7.42512e-23)
(1.00846 -7.86519e-05 8.50263e-23)
(1.00994 3.69504e-05 5.55902e-23)
(1.00892 1.95328e-05 9.67607e-23)
(0.951966 0.0442257 -1.96541e-23)
(0.958529 0.0415897 1.33456e-22)
(0.952355 0.0352031 0)
(0.998382 0.018101 -3.60909e-22)
(0.999977 0.0188571 1.42818e-22)
(0.999708 0.0169703 2.8669e-22)
(1.07221 0.0533586 1.06149e-20)
(1.0732 0.0529439 -7.07245e-21)
(1.07232 0.0522222 7.33446e-21)
(1.07121 0.0536885 6.09781e-21)
(1.07216 0.0543922 9.53456e-22)
(1.13963 0.0766597 2.02227e-21)
(1.13392 0.035476 0)
(1.13932 0.055631 9.40498e-22)
(1.01106 -6.07189e-05 5.69701e-22)
(1.01156 -0.00012119 1.3346e-22)
(1.01142 -9.7381e-05 4.06662e-22)
(1.00982 0.00364171 0)
(1.00963 0.00346975 0)
(1.00964 0.00359394 0)
(1.01121 0.000556338 -1.04773e-22)
(1.01117 0.000569613 -1.38919e-22)
(1.00347 0.00593216 6.4117e-22)
(1.00321 0.00488311 6.2828e-22)
(1.00431 0.00507574 -9.54018e-22)
(1.094 0.0366574 -3.17453e-22)
(1.09641 0.0392295 5.45526e-22)
(1.09302 0.0402837 3.50316e-22)
(1.02227 -0.00733765 2.86894e-22)
(1.02207 -0.00796413 -1.23588e-21)
(1.0214 -0.00730701 7.59359e-25)
(0.949372 0.154332 0)
(0.955307 0.150582 7.45514e-22)
(0.956191 0.158087 0)
(1.02314 0.0142277 3.93803e-22)
(1.02255 0.0139401 5.94869e-22)
(1.02266 0.0146676 3.05221e-22)
(1.013 0.000369255 4.14151e-24)
(1.01314 0.000421658 -5.29185e-22)
(1.01297 0.000438535 -1.28184e-23)
(0.886774 0.0395016 2.17659e-21)
(0.904481 0.0401539 1.61662e-21)
(1.01303 0.000307517 -2.46369e-22)
(1.01288 0.000330128 2.15229e-22)
(1.00863 -0.00160067 3.76716e-22)
(1.00905 -0.00180194 3.77429e-22)
(1.00872 -0.0023091 2.01841e-22)
(1.01896 -0.00565921 0)
(1.0187 -0.00529262 2.06762e-22)
(1.01887 -0.00518271 0)
(1.0114 0.00109421 -8.57269e-23)
(1.01147 0.00119276 -3.08377e-23)
(1.01143 0.00115167 2.71666e-23)
(1.00604 -6.11879e-05 1.57103e-22)
(1.00812 -8.39723e-05 -2.553e-22)
(0.995912 0.0162036 -5.41158e-22)
(0.997113 0.0170699 -5.11015e-23)
(0.997221 0.0152865 -6.41185e-23)
(0.758935 0.117994 0)
(0.767217 0.167614 0)
(0.755384 0.13168 6.23109e-21)
(0.98636 0.0592218 0)
(0.989517 0.0582976 0)
(0.988932 0.0617368 0)
(1.01092 0.00496581 -1.55623e-22)
(1.01104 0.00505181 -1.57022e-22)
(1.01105 0.00505544 1.71075e-22)
(1.00745 0.00290281 1.29362e-22)
(1.00728 0.00282352 2.83605e-22)
(1.00733 0.00272603 1.04901e-22)
(1.00458 -0.000260364 -3.37407e-24)
(1.00444 -0.000262429 3.24733e-23)
(1.00341 -0.000148095 -1.91125e-23)
(1.01199 0.00333712 0)
(1.01198 0.00311565 1.53862e-22)
(1.01221 0.00336094 0)
(1.05034 0.0298418 6.78611e-22)
(1.05105 0.0294023 -1.72871e-21)
(1.0501 0.029103 4.4257e-21)
(1.01177 0.00332215 -5.65066e-22)
(1.01206 0.00365664 -6.79016e-22)
(0.994631 0.0150383 6.23618e-23)
(0.994614 0.0172569 -3.98042e-22)
(1.01258 0.00956987 -7.79125e-23)
(1.01229 0.00980415 -7.04877e-24)
(1.01228 0.00933496 8.94907e-23)
(1.01363 0.000228793 -4.91291e-22)
(1.01351 0.000244977 -2.79117e-23)
(1.01193 0.000156883 -5.38117e-22)
(0.997205 0.0191878 -7.19515e-22)
(1.00762 0.00295228 1.4028e-22)
(1.00779 0.0030026 1.36937e-22)
(1.00767 0.00284728 -1.47153e-24)
(1.01412 0.00165405 2.1223e-22)
(1.01388 0.0015975 1.85835e-23)
(1.01396 0.00176665 1.13415e-22)
(1.01427 0.00153954 -6.54422e-23)
(1.06592 0.0711558 0)
(1.0667 0.0701075 7.34439e-21)
(1.06742 0.0717769 0)
(1.01139 0.000499232 3.94619e-23)
(1.01141 0.000606156 -1.35324e-22)
(1.01142 0.000519566 -1.58717e-22)
(1.01138 0.000400355 1.68696e-22)
(1.01136 0.000483797 1.64865e-22)
(0.750112 0.0607878 -4.63887e-21)
(1.01784 -0.00425865 -4.06071e-22)
(1.01784 -0.00412125 8.18431e-22)
(1.0175 -0.00417437 0)
(1.00426 0.000364078 -2.64367e-22)
(1.00379 0.000296533 3.69226e-22)
(1.00368 0.000303912 -2.06912e-22)
(0.938117 0.232401 1.12831e-22)
(0.945739 0.226614 1.43285e-22)
(0.945927 0.23733 -2.61953e-22)
(1.01821 -0.00434357 -1.2345e-22)
(1.01783 -0.0044526 1.27503e-22)
(1.08972 0.0801917 -1.10024e-21)
(1.09274 0.079416 -9.38507e-22)
(1.08934 0.0762094 -2.49079e-21)
(1.01583 0.00319842 3.31346e-22)
(1.01585 0.00305334 8.67746e-22)
(1.01563 0.00304994 -2.4659e-22)
(1.02256 -0.00669285 -1.48266e-23)
(1.02339 -0.00740917 1.07605e-21)
(1.00231 -0.000152825 -1.69804e-22)
(1.0018 -9.09726e-05 7.98659e-23)
(1.00187 -9.81625e-05 -2.72943e-22)
(0.743208 0.0169691 0)
(1.00824 -0.00138694 -7.87462e-22)
(1.00867 -0.00098339 -2.68405e-22)
(0.914773 0.0888024 -6.7242e-22)
(0.871801 0.0901628 -9.10346e-21)
(0.860343 0.0933565 4.66212e-21)
(1.00757 0.00306163 0)
(1.0703 0.044129 7.53123e-22)
(1.07079 0.0445161 -6.94898e-21)
(1.0708 0.0437525 -3.14266e-21)
(1.0855 0.081191 7.35936e-22)
(1.08855 0.0850513 8.37967e-22)
(1.01073 0.012695 0)
(1.01153 0.0127704 -1.95295e-22)
(1.01116 0.0118674 1.44563e-22)
(0.99475 0.0769928 -7.45481e-22)
(0.996969 0.0804382 8.22064e-22)
(0.998029 0.0756175 3.75329e-22)
(1.00362 0.000293677 -8.695e-23)
(1.0042 0.000389426 -2.35088e-22)
(1.0039 0.000329405 -9.74914e-23)
(1.02665 0.0265693 -9.31234e-22)
(1.02735 0.0261451 0)
(1.02744 0.0273666 0)
(1.0497 0.0302965 -3.05681e-22)
(1.05059 0.0306777 -1.60868e-21)
(1.00653 0.00291259 -5.3008e-23)
(1.00636 0.0027995 2.70945e-22)
(1.00643 0.00273484 1.28797e-22)
(0.95572 -0.104817 -1.16962e-21)
(0.943713 -0.114278 -2.74273e-21)
(0.956866 -0.11859 -3.80236e-22)
(1.01721 -0.00321268 -1.58224e-22)
(1.01736 -0.00333433 -6.57753e-22)
(1.01712 -0.00325555 -5.62769e-22)
(1.01582 0.0032879 1.71949e-22)
(1.01602 0.00330536 0)
(0.994922 0.0514768 -6.9465e-22)
(0.991969 0.0518559 -3.21316e-22)
(0.993388 0.0489149 -5.28352e-22)
(1.00288 -1.77513e-05 -9.49556e-23)
(1.00273 0.00136555 -2.34317e-21)
(1.00405 0.00066699 -8.18204e-22)
(1.01521 0.0610814 -1.44833e-21)
(1.02349 0.0713592 -7.51259e-22)
(1.02415 0.0574148 5.20264e-21)
(1.00688 0.00308563 -3.24155e-23)
(1.0067 0.0029992 -2.99466e-22)
(1.00677 0.00291056 7.57163e-23)
(0.728775 0.0228379 2.00879e-21)
(0.721789 0.0745641 0)
(1.00706 0.00317241 1.03156e-23)
(1.00701 0.00327264 -3.06869e-23)
(1.01705 -0.00308249 -1.62082e-22)
(1.0173 -0.00316827 1.13685e-24)
(1.00434 0.0647356 3.51122e-21)
(1.00884 0.0511353 -7.69428e-22)
(1.02594 0.0272289 4.663e-22)
(1.02581 0.0260226 -1.96552e-22)
(0.973935 0.0387593 9.42952e-22)
(0.970102 0.048592 0)
(0.982079 0.0462765 8.56233e-22)
(1.00664 0.00308311 7.96169e-23)
(1.02323 0.0303814 1.00924e-21)
(1.02419 0.0309435 -2.01759e-23)
(1.02333 0.031512 -6.01738e-22)
(1.03712 0.0672588 5.86551e-22)
(1.03907 0.0682341 6.88557e-22)
(1.03664 0.0690929 5.60333e-22)
(1.00599 0.000284233 1.26948e-22)
(1.00595 0.0001914 -9.08789e-23)
(1.00423 0.000113911 1.11371e-22)
(1.00928 8.49947e-05 8.08621e-23)
(1.00802 0.000102957 -1.88572e-23)
(1.00789 8.96672e-05 1.19048e-23)
(1.04232 0.055384 -1.26803e-21)
(1.04264 0.0537628 2.80834e-21)
(1.04391 0.0550148 2.71479e-21)
(1.01244 -0.00138416 2.11749e-23)
(1.01251 -0.00140535 -4.37793e-22)
(1.01237 -0.00128538 -1.20754e-22)
(1.04052 0.0556085 -1.61491e-21)
(1.04179 0.0569501 -9.85522e-22)
(0.988465 0.227981 1.10625e-20)
(1.0076 0.172906 4.40458e-21)
(0.953419 0.134547 -1.21152e-21)
(0.953696 0.127383 -5.95859e-22)
(0.960813 0.131901 2.99614e-24)
(0.966515 0.0285373 4.20635e-21)
(0.97645 0.0289116 8.17178e-22)
(1.01781 -0.00398089 1.7124e-22)
(1.01814 -0.00404093 1.25019e-21)
(1.04047 -0.210993 -2.00582e-21)
(1.02506 -0.196641 0)
(1.05155 -0.185437 -1.18181e-21)
(1.00921 0.00789289 4.13075e-23)
(1.00879 0.00726757 1.5884e-22)
(1.00855 0.00822955 -1.88145e-22)
(1.0117 -0.000638278 2.25557e-22)
(1.01162 -0.00056446 1.96881e-22)
(1.01165 -0.000599876 0)
(1.00967 0.00841554 2.05646e-22)
(1.00983 0.00759867 -3.05652e-22)
(1.07207 0.0485449 0)
(1.07328 0.0492079 -3.03634e-23)
(1.0718 0.0497982 0)
(1.02055 0.0131238 7.41335e-22)
(1.02102 0.0133683 1.77245e-21)
(1.02065 0.013661 6.69291e-23)
(1.03539 0.0659251 5.55082e-22)
(1.03795 0.0651735 1.11356e-22)
(1.01688 -0.00294441 1.40646e-22)
(1.01679 -0.00299975 0)
(1.0178 -0.00389647 -4.30299e-22)
(1.01752 -0.0039112 -1.08818e-21)
(1.00831 -0.00218377 -5.89476e-24)
(1.0083 -0.00238458 -5.0683e-23)
(1.0081 -0.00217591 -4.8796e-23)
(1.02538 0.027694 1.29979e-21)
(1.02466 0.0281973 1.88002e-22)
(1.02455 0.0271437 6.61779e-23)
(1.01 0.00381876 6.96126e-23)
(1.01001 0.00370755 -1.12831e-22)
(0.99101 0.0786842 0)
(0.992307 0.0738298 -6.54685e-22)
(1.05315 -0.220737 5.47261e-21)
(1.02414 -0.236493 -2.97909e-21)
(1.04567 0.0426448 1.27306e-21)
(1.04566 0.0436556 1.1308e-21)
(1.0468 0.043053 -9.3322e-22)
(1.009 0.00335436 3.30642e-22)
(1.00897 0.00346981 0)
(1.00882 0.003279 0)
(1.00272 -0.000185893 -4.56871e-23)
(1.00276 -0.000202048 1.79141e-22)
(1.00193 9.07582e-05 3.55305e-23)
(1.00127 3.48139e-05 -3.7314e-22)
(1.00198 8.68365e-05 2.26592e-22)
(0.991866 0.0335584 7.26445e-22)
(0.991589 0.0359367 -4.69207e-23)
(0.993859 0.0342582 6.44069e-22)
(1.0223 0.0297576 1.67589e-22)
(1.02312 0.0292492 1.62961e-21)
(1.04627 0.0620919 9.95728e-22)
(1.05057 0.0610095 -8.38152e-21)
(1.04929 0.064241 -4.83478e-22)
(1.0069 0.0348414 -6.82554e-23)
(1.00838 0.03454 2.35995e-22)
(1.00732 0.0333383 -9.78702e-24)
(1.01673 -0.00280921 -2.26909e-23)
(1.01699 -0.00289328 -3.16677e-23)
(0.992097 0.0675977 -1.64483e-22)
(1.00023 0.0806569 3.12071e-22)
(1.02157 0.0219067 -5.70049e-22)
(1.02093 0.0222868 -6.90685e-22)
(1.02085 0.0213824 -2.4145e-22)
(1.0278 0.0255188 0)
(1.02849 0.0261977 0)
(0.967207 -0.0980408 3.6086e-21)
(0.955753 -0.0940488 1.22972e-22)
(1.05716 0.0276957 0)
(1.05603 0.0247748 7.35483e-22)
(0.997526 0.272212 8.08489e-21)
(1.04492 0.0595737 -2.2729e-21)
(1.04476 0.0614034 -7.46177e-22)
(1.04685 0.060604 5.0811e-22)
(0.981159 0.0665872 -8.37292e-22)
(0.989386 0.0558525 9.48737e-21)
(1.06289 0.0706269 2.97131e-21)
(1.06334 0.0725196 -1.05542e-20)
(1.06152 0.0707016 -3.95793e-21)
(1.01899 -0.00624657 1.12003e-22)
(1.0112 0.000506081 4.03115e-23)
(1.01125 0.00054 9.25404e-24)
(1.09907 0.156529 -2.58608e-21)
(1.09964 0.147807 -9.26028e-22)
(1.02143 0.0106948 -1.47727e-21)
(1.02158 0.0110808 -1.12759e-22)
(1.0211 0.0109051 -4.91943e-23)
(1.01177 -0.000715446 4.54461e-22)
(1.01174 -0.00068015 -1.8235e-23)
(0.928689 0.236181 -1.59733e-23)
(0.930238 0.226367 -4.16379e-23)
(1.01442 0.00483447 9.04602e-22)
(1.01434 0.00464734 3.44316e-22)
(1.01452 0.00477081 2.61298e-22)
(1.07025 0.0425715 3.63625e-21)
(1.0702 0.0422161 6.1583e-21)
(1.07058 0.0424395 -3.14216e-21)
(1.03876 0.102063 0)
(1.03971 0.0989381 0)
(1.04234 0.102192 -4.66536e-22)
(1.01284 -0.00163045 -3.1457e-22)
(1.01278 -0.00162967 3.06434e-22)
(1.01294 -0.00174717 2.01759e-23)
(1.09422 0.0337013 -2.90324e-22)
(1.09075 0.0351727 1.35934e-22)
(0.998051 -0.122966 -2.90342e-22)
(0.983899 -0.122499 -3.75084e-21)
(0.991927 -0.137852 -1.12529e-21)
(1.01253 0.000748158 -4.72698e-23)
(1.01265 0.000799611 -5.41961e-22)
(1.01259 0.000880786 -3.19136e-22)
(0.954452 0.142929 6.07612e-22)
(0.946961 0.138275 -5.25701e-22)
(1.04172 0.0283796 -5.59053e-21)
(1.04191 0.0276919 -2.76297e-21)
(1.04251 0.0284684 -1.14813e-21)
(1.0085 0.0178842 6.75764e-22)
(1.00588 0.0142906 -5.77428e-22)
(1.00348 0.0192376 1.65156e-21)
(1.0115 -7.28869e-05 1.09029e-22)
(1.01147 -6.78109e-05 9.00736e-24)
(1.01151 -0.000167082 2.30167e-22)
(0.972731 0.276865 -3.37738e-21)
(0.961991 0.264524 -3.81691e-22)
(1.03458 0.101882 -2.18195e-22)
(1.0373 0.105621 -3.19132e-22)
(1.01376 0.000333873 -3.32533e-22)
(1.01425 0.000370562 -9.2135e-23)
(1.01412 0.000390929 2.51269e-22)
(0.820132 0.0895754 6.35394e-21)
(0.804022 0.0897822 3.77788e-21)
(0.863223 0.087796 -2.9149e-22)
(1.00907 -0.00684034 -1.86077e-23)
(1.00881 -0.00654231 0)
(1.00913 -0.00659578 -1.41018e-23)
(0.989677 0.0330357 -4.80309e-22)
(0.991909 0.0312071 -7.80999e-23)
(0.922595 -0.050744 7.01422e-24)
(0.919417 -0.0462389 5.72972e-23)
(0.920055 -0.0265157 6.18254e-24)
(1.01137 0.00104622 3.97266e-23)
(1.01134 0.00100325 -4.44344e-23)
(1.02834 0.0249108 0)
(1.02723 0.0249052 -5.77085e-22)
(1.01942 0.016815 0)
(1.02024 0.0159918 0)
(1.01897 0.0155944 0)
(1.01032 -0.00364058 0)
(1.01059 -0.00141121 -3.56753e-22)
(1.01208 -0.00267267 2.86205e-22)
(1.00792 0.00315165 0)
(1.00797 0.00304969 1.48087e-22)
(1.01201 0.000236412 -1.89871e-22)
(1.01213 0.000269873 -5.27231e-23)
(1.01217 0.000242774 5.06115e-23)
(1.01114 0.000471395 5.03242e-23)
(1.01113 0.000437789 -1.08417e-22)
(1.00602 0.000262967 4.71335e-22)
(1.00695 0.00018908 -7.26754e-23)
(1.01149 -6.34263e-06 1.44953e-22)
(1.01152 -8.51366e-05 1.64004e-22)
(1.01179 0.000191823 1.94517e-22)
(1.01173 0.000206927 -1.47275e-22)
(1.00252 0.00890764 -1.1278e-22)
(1.00198 0.00789247 -6.4963e-22)
(1.00133 0.00897893 -6.11555e-22)
(1.01432 0.00488329 2.69164e-22)
(1.01451 0.00501245 -6.85144e-23)
(1.00916 0.00345158 -7.84283e-23)
(1.00904 0.00326855 -1.74008e-22)
(1.008 0.00461267 3.12764e-22)
(1.00956 0.00740376 -2.46637e-22)
(1.01088 0.00475443 6.89183e-22)
(1.00072 0.00442706 0)
(1.0004 0.00306521 9.00053e-22)
(0.999221 0.00413991 0)
(0.974482 0.0451866 -1.81982e-23)
(0.969904 0.0493883 3.03513e-23)
(0.976249 0.0512993 -2.73478e-22)
(0.83107 0.0922554 -1.21298e-20)
(0.772851 0.0939439 4.15309e-21)
(1.07988 0.17539 -1.30172e-21)
(1.07745 0.185151 -1.63178e-21)
(1.07016 0.177284 -1.25967e-21)
(0.840481 0.1891 2.11239e-22)
(0.850717 0.190075 1.8901e-22)
(0.841617 0.198646 4.38519e-22)
(1.04149 0.0292486 3.82667e-22)
(1.04087 0.0283842 3.53849e-22)
(1.0016 1.88766e-05 2.36652e-22)
(1.00165 2.66874e-05 -8.79048e-24)
(1.00103 -2.47243e-07 -3.42359e-23)
(1.06981 0.042512 1.63781e-22)
(1.07003 0.0429143 3.01768e-21)
(1.00499 0.000196367 1.14014e-22)
(1.00514 0.000189531 -6.61686e-24)
(1.00342 7.54072e-05 1.22152e-23)
(0.743625 -0.000673947 -3.2488e-21)
(0.735962 0.0305952 -4.32107e-21)
(1.00246 -0.000162956 -4.05455e-23)
(1.00254 -0.000173053 1.20467e-22)
(1.00184 -8.10981e-05 6.4082e-23)
(1.01314 0.00025591 6.85244e-22)
(1.01296 0.000256288 -2.52849e-23)
(1.00181 8.24564e-05 4.44584e-23)
(1.00247 0.000114495 2.44898e-22)
(1.00864 -0.00389791 1.65931e-23)
(1.00891 -0.00402391 -7.60519e-24)
(1.00872 -0.00412976 -1.79174e-23)
(1.04022 0.0132184 0)
(1.04104 0.0133472 1.65781e-21)
(1.0405 0.0138188 -2.95004e-22)
(1.02045 0.0419398 2.4723e-22)
(1.02173 0.0413384 1.73786e-21)
(1.02149 0.0433193 3.74601e-22)
(1.00662 0.000168026 7.80227e-24)
(1.00657 0.00019001 8.985e-24)
(1.00468 6.95592e-05 -9.19788e-24)
(0.978925 0.0412881 0)
(0.973603 0.0386866 -1.87991e-22)
(1.02228 0.012962 0)
(1.02174 0.0127463 0)
(1.02209 0.0123982 1.33718e-21)
(1.01158 0.00143725 1.30499e-24)
(1.01164 0.00152749 -1.15805e-22)
(1.01161 0.00147201 5.49819e-23)
(0.990077 0.0446661 -4.03502e-23)
(0.993497 0.0410095 0)
(0.995256 0.0455748 0)
(1.01777 -0.00379719 -1.79945e-23)
(1.01803 -0.00385489 3.76065e-22)
(1.00878 0.000160235 1.37906e-22)
(1.0081 4.36301e-05 -7.54882e-22)
(1.00967 0.000243652 5.43204e-22)
(1.03872 0.0556845 9.52584e-22)
(1.03792 0.0573384 1.55236e-22)
(1.03675 0.0557321 -2.65346e-22)
(1.01591 0.00117803 0)
(1.01589 0.00108133 0)
(1.01574 0.00111301 -8.17177e-22)
(1.01844 -0.00540627 -5.77416e-22)
(1.0185 -0.00497977 -1.43357e-22)
(1.06433 0.0707785 7.79495e-21)
(1.06301 0.0692542 8.35988e-21)
(1.07133 0.0477424 2.05776e-21)
(1.07262 0.0473834 0)
(1.01526 0.00156734 1.22493e-22)
(1.01494 0.00153493 1.37884e-22)
(1.0151 0.00138414 -4.46112e-23)
(1.00591 0.00381658 7.89176e-23)
(1.00613 0.00402287 0)
(1.00599 0.00407983 -8.10532e-23)
(1.01525 0.000305714 -2.08167e-22)
(1.01515 0.000261962 -6.95485e-22)
(1.01528 0.000258161 5.20442e-22)
(1.03773 0.059179 3.99097e-22)
(1.04529 0.0571262 -2.40748e-22)
(1.03726 0.0557003 -1.47577e-21)
(1.00476 0.000486694 -1.35888e-22)
(1.0046 0.00044229 1.78222e-22)
(1.11427 0.189429 -3.11995e-22)
(1.10019 0.17957 -3.70716e-21)
(1.10153 0.193632 2.23882e-22)
(1.01479 0.00166728 0)
(1.01492 0.00186116 -3.01424e-22)
(1.13529 0.10713 -2.63677e-21)
(1.13578 0.114208 -1.1201e-20)
(1.01774 -0.00373022 -2.87164e-22)
(1.01752 -0.00372785 1.2193e-22)
(1.00928 0.00229814 -3.96831e-22)
(1.00868 0.0025649 2.65198e-22)
(1.00909 0.00303181 6.07024e-22)
(0.993381 0.0138867 9.3649e-22)
(0.994829 0.0131329 1.14488e-22)
(1.00711 0.00011144 -4.71303e-22)
(1.0077 0.00018369 2.01697e-22)
(1.0086 0.000309686 4.91388e-22)
(1.08197 0.165117 -1.11856e-21)
(1.0887 0.172318 0)
(1.0217 0.00925408 -2.29187e-21)
(1.02187 0.00901457 -7.11075e-22)
(1.02216 0.00935081 1.3046e-23)
(0.829946 0.188304 -4.67498e-22)
(0.841552 0.176122 0)
(1.01154 0.0013692 -1.8863e-23)
(1.01152 0.00131971 -1.84181e-23)
(1.01068 0.00485428 7.31093e-23)
(1.01053 0.00476201 2.81156e-22)
(1.01054 0.00482271 5.91923e-22)
(1.02355 0.0154639 3.75084e-23)
(1.02401 0.0143835 1.60533e-22)
(1.02267 0.0144414 1.34092e-23)
(1.01674 0.00953482 6.87575e-22)
(1.01674 0.00919977 1.44502e-22)
(1.01646 0.00928596 1.73866e-21)
(0.941148 0.00130162 -7.39838e-22)
(0.930853 0.00514417 1.27148e-22)
(0.943539 0.00982591 -6.12871e-22)
(1.01507 0.0192848 3.60175e-23)
(1.01362 0.0195824 5.14542e-23)
(1.01508 0.0209746 5.80142e-23)
(1.01643 0.0187705 -5.94506e-23)
(1.01512 0.0177593 4.02308e-23)
(1.00898 -0.00708923 1.05893e-23)
(1.00931 -0.00716181 -2.70001e-23)
(0.739751 -0.0595458 4.26083e-21)
(0.759426 -0.0387681 1.2321e-20)
(1.01895 0.0423972 -2.33116e-22)
(1.01956 0.040497 -5.57257e-22)
(1.04938 0.023683 0)
(1.04873 0.0231974 -6.1317e-22)
(1.04868 0.023991 7.34453e-21)
(1.02148 0.00951862 -4.40086e-22)
(1.02124 0.00973916 1.15746e-21)
(1.02175 0.00988001 1.54807e-22)
(1.01146 0.00032063 3.56368e-23)
(1.01149 0.000231893 -2.4075e-22)
(1.01149 0.000350069 -8.18062e-23)
(1.04575 0.0413949 2.687e-22)
(1.04449 0.0420374 7.41611e-22)
(1.00481 0.00253989 2.29324e-22)
(1.00468 0.00230956 1.49547e-22)
(1.00479 0.00235075 2.25361e-22)
(1.04433 0.0516573 6.43986e-22)
(1.04294 0.0521611 -1.52567e-21)
(1.04314 0.0505465 -4.10699e-21)
(1.01817 -0.00281536 -1.64468e-22)
(1.01994 -0.00319534 -6.25137e-22)
(1.0188 -0.00147384 -5.2517e-22)
(1.01052 -0.04613 6.86743e-22)
(1.00748 -0.0515825 2.19524e-22)
(1.01519 -0.049151 0)
(1.0262 -0.0160489 -1.34738e-22)
(1.02511 -0.014535 -7.66002e-22)
(1.02446 -0.0167283 9.04345e-22)
(1.00496 0.00275432 -7.12921e-23)
(1.00513 0.00297992 6.06376e-25)
(1.00508 0.0027728 8.14329e-23)
(1.01037 -0.121984 0)
(1.00166 -0.109805 0)
(1.07262 0.130665 -1.27026e-21)
(1.0719 0.13741 2.09234e-21)
(1.06558 0.133902 1.62038e-21)
(1.00447 0.049702 8.90969e-23)
(1.00217 0.0501878 9.3019e-23)
(1.00298 0.0477632 -5.58269e-23)
(1.0234 -0.00707805 1.99012e-22)
(1.02329 -0.0063173 6.13118e-23)
(1.02399 -0.00667163 1.43952e-22)
(1.02617 0.0282431 -1.80943e-22)
(1.05496 0.0292974 1.5378e-22)
(1.05359 0.0355792 -6.34246e-22)
(1.0551 0.0355615 1.54497e-22)
(1.00483 0.0027374 -2.44868e-22)
(1.00692 0.00194545 -1.96203e-23)
(1.00432 0.00436688 1.76347e-22)
(1.01197 -0.041186 -4.66979e-22)
(1.00618 -0.042591 -1.0174e-22)
(1.03404 0.0101346 5.65567e-21)
(1.03397 0.00953234 1.51471e-21)
(1.03338 0.0098497 -1.46242e-21)
(1.06597 0.0729038 -9.64413e-21)
(1.05324 0.017116 3.28726e-21)
(1.05404 0.0171364 3.1166e-21)
(1.05346 0.0163911 -2.46579e-22)
(1.01751 0.0182098 6.39297e-23)
(1.01786 0.0197906 -5.43932e-23)
(1.01555 0.00194477 1.29377e-22)
(1.0154 0.00174022 1.28122e-22)
(1.01522 0.00192231 -1.36942e-22)
(1.03944 0.0131776 -1.57924e-21)
(1.03994 0.0126502 -1.09349e-21)
(1.01859 0.0175291 -8.59195e-24)
(1.01726 0.0168432 -7.89045e-23)
(1.00637 0.0492194 2.24296e-23)
(1.00844 0.0484718 2.12617e-23)
(1.00705 0.0466718 0)
(1.0212 0.00917293 -4.0249e-22)
(1.0159 0.00293308 4.61632e-22)
(1.01593 0.0028146 0)
(1.01571 0.00279334 0)
(1.01134 0.000702736 1.02032e-22)
(1.01134 0.000634405 -2.06981e-23)
(1.01131 0.000606615 -3.48502e-23)
(0.948468 -0.00129141 2.4505e-21)
(0.939823 -0.00792842 1.96706e-21)
(0.920681 0.0119455 -7.86416e-21)
(0.913114 0.0184502 -1.61124e-21)
(0.92772 0.0202093 -6.18688e-22)
(1.01779 -0.00350946 4.34153e-23)
(1.01794 -0.00362503 1.74514e-22)
(1.01802 -0.00361613 -5.30462e-22)
(1.00992 0.0124395 1.45181e-22)
(1.01025 0.0136059 -7.21702e-23)
(0.917916 -0.000219418 2.03617e-21)
(1.0609 0.0405807 1.57982e-21)
(1.0596 0.0408112 0)
(1.06076 0.0417792 -7.14584e-22)
(1.01709 -0.00413939 -8.93844e-23)
(1.0168 -0.00246244 -3.0631e-23)
(1.00861 -0.00364128 4.22509e-23)
(1.00841 -0.00372935 2.94818e-23)
(1.02774 -0.00305028 2.57227e-22)
(1.03079 -0.00236513 2.77217e-22)
(1.02701 -0.000570868 1.42416e-21)
(1.05313 0.0180263 3.29193e-21)
(1.05249 0.0172705 -1.36453e-21)
(1.01354 0.000471266 -3.87182e-22)
(1.01285 0.00038653 1.74326e-22)
(1.01322 0.000470855 -4.1712e-22)
(1.02802 -0.0152537 3.07773e-23)
(1.0279 -0.0176933 8.70122e-23)
(1.01199 -0.000842396 3.69271e-22)
(1.01196 -0.000829861 2.48422e-23)
(1.0119 -0.000776165 1.2816e-22)
(0.926664 -0.0509777 4.75101e-22)
(0.926763 -0.0730741 2.11832e-22)
(1.08837 -0.0220139 -2.60226e-21)
(1.09537 -0.01605 -6.20101e-22)
(1.09303 -0.028427 -1.45282e-21)
(1.07031 0.0476176 1.38686e-23)
(1.06943 0.0470398 -2.26535e-21)
(1.06957 0.0482488 -2.22227e-22)
(1.06193 0.0251884 4.749e-22)
(1.06229 0.0256986 1.24289e-21)
(1.06275 0.025087 -8.11869e-21)
(0.991944 0.0147311 6.03527e-22)
(0.9921 0.0124767 8.39399e-22)
(0.980825 -0.0121307 -2.28581e-21)
(0.979039 -0.00808441 -4.8922e-22)
(0.98352 -0.00849582 1.59333e-21)
(1.01649 0.0147314 -6.26763e-22)
(1.01262 0.0164918 -6.1522e-22)
(1.01395 0.0122262 3.88963e-22)
(1.07447 0.0497083 -1.41149e-21)
(1.07454 0.0511966 -1.49152e-21)
(1.07619 0.0502302 -3.06805e-21)
(1.01203 -0.000853354 1.3044e-22)
(1.01209 -0.00091055 -1.37608e-22)
(1.01609 0.00307772 -7.55247e-22)
(1.01835 -0.00423686 -2.98578e-22)
(1.01816 -0.00457096 1.25975e-22)
(1.01841 -0.00460167 -3.40112e-22)
(1.00876 0.00349842 1.43582e-22)
(1.00893 0.00355494 1.39586e-22)
(1.00891 0.00364641 -4.28061e-23)
(1.00989 0.00206688 -8.81337e-22)
(1.00961 0.00154611 -6.45549e-22)
(1.04999 0.0241401 0)
(1.05004 0.0233733 0)
(1.01115 0.000684671 8.89231e-24)
(1.0112 0.000763312 4.84531e-24)
(1.01117 0.000719581 3.44186e-23)
(1.01763 0.00955 1.66401e-22)
(1.0179 0.00942652 1.47486e-21)
(1.01791 0.00979187 -8.15352e-23)
(1.01233 -0.0163696 -1.72845e-22)
(1.01019 -0.0147084 2.28792e-21)
(1.01325 -0.0141644 -1.76699e-21)
(1.0129 -0.00163032 -4.49688e-22)
(1.01275 -0.00152653 0)
(1.05442 0.0827474 6.93865e-22)
(1.05716 0.0837311 -7.04155e-22)
(1.05463 0.0857611 5.30099e-22)
(0.807152 -0.288664 -3.88883e-21)
(0.828327 -0.314005 -4.85569e-21)
(1.00859 -0.0128801 2.16448e-21)
(1.00718 -0.0110593 -1.80467e-21)
(1.00982 -0.0110892 2.65022e-22)
(1.01703 0.00979514 -5.87475e-22)
(1.01671 0.00989794 -4.35807e-22)
(1.00371 0.0353182 -4.25364e-22)
(1.00547 0.0350855 -1.52772e-22)
(1.00415 0.0337619 -4.05339e-22)
(1.00862 0.00334773 -2.56821e-22)
(1.00859 0.00344851 0)
(1.04562 0.0525591 3.45336e-21)
(1.04694 0.0536562 -1.12898e-21)
(1.04553 0.0544575 9.53092e-22)
(1.02193 0.00811929 9.23575e-22)
(1.02153 0.00805485 1.22855e-21)
(1.02166 0.00778964 7.43087e-23)
(1.01782 0.0434 8.50876e-22)
(1.01671 0.0445509 -1.50326e-21)
(1.0189 0.0448974 1.86825e-21)
(1.01427 0.00031227 -7.06339e-22)
(1.01351 0.000217305 7.58866e-22)
(1.01713 0.0421992 -5.13567e-23)
(0.931472 -0.075289 -8.68826e-22)
(0.933817 -0.0353916 -9.00916e-22)
(1.01081 0.00490656 -2.8361e-22)
(1.01079 0.00487253 1.57706e-22)
(1.06491 0.0393897 -3.88421e-21)
(1.06503 0.0387874 1.95052e-21)
(1.06555 0.0393442 -6.5917e-21)
(1.02346 0.0209095 -1.04911e-21)
(1.02349 0.0217808 1.09227e-21)
(1.0228 0.0211798 -1.54874e-21)
(1.03475 -0.0125015 -5.43579e-23)
(1.03688 -0.0129658 -5.21879e-23)
(1.03534 -0.0149499 -5.67024e-22)
(1.01968 0.0172092 6.35054e-22)
(1.01959 0.0130231 5.62428e-22)
(1.01058 -5.90808e-05 4.72891e-22)
(1.01025 -6.00008e-05 3.00236e-23)
(1.0057 0.00361122 2.00413e-24)
(1.00582 0.00357777 2.36677e-22)
(1.05408 0.0799277 2.15e-21)
(1.05172 0.0816843 7.47916e-22)
(1.01733 0.0096867 -7.17598e-22)
(1.01734 0.00931569 -7.82151e-23)
(1.01168 0.0217 0)
(1.05175 0.0289965 -3.95333e-21)
(1.05165 0.028212 1.26344e-22)
(1.05254 0.0285775 -4.28824e-21)
(0.97591 -0.298119 7.24392e-21)
(1.05093 0.0515434 1.96201e-21)
(1.05088 0.0531118 0)
(1.04955 0.0519769 1.04408e-21)
(1.07079 0.0467897 6.38249e-23)
(1.00652 0.0037296 -8.89155e-22)
(1.00665 0.00269999 3.63138e-23)
(1.00729 0.00333426 -1.06851e-22)
(1.0148 -0.0181148 1.14038e-21)
(1.01105 -0.0190666 -1.15077e-21)
(1.01709 -0.00433468 -1.15126e-22)
(1.01687 -0.00414191 0)
(1.0172 -0.00417843 0)
(1.05067 0.0148516 0)
(1.05009 0.0153719 -8.52207e-21)
(1.04996 0.0144884 5.87741e-21)
(1.0616 0.0243157 -1.01541e-21)
(1.06099 0.0250542 -1.14449e-21)
(1.06499 0.0400624 1.10206e-21)
(1.06435 0.039585 9.98296e-22)
(1.04198 0.0345333 2.33685e-23)
(1.04623 0.0323306 5.26062e-23)
(1.04121 0.0295546 0)
(1.03472 0.0159389 -3.45787e-21)
(1.04381 0.0136475 6.23847e-22)
(1.01063 0.0158853 2.58779e-21)
(1.01163 0.0010225 9.27847e-23)
(1.01164 0.0011048 3.19689e-22)
(1.01162 0.000941743 -2.02081e-22)
(1.01167 0.00744954 2.28675e-22)
(1.01264 0.00776392 1.36629e-23)
(1.01193 0.0084737 -1.07327e-21)
(1.08177 0.081513 -8.38118e-22)
(1.0781 0.0817166 9.2817e-24)
(1.08007 0.0853272 -1.9628e-22)
(1.00216 0.0355797 -3.63487e-25)
(1.00347 0.0369449 -1.85517e-22)
(1.01162 0.001099 -1.50287e-22)
(1.01159 0.000951903 -3.6593e-24)
(1.0114 0.000309488 3.35556e-24)
(1.01137 0.000301105 2.40239e-22)
(1.01135 0.000943086 -8.7818e-24)
(1.01134 0.000879312 3.61019e-23)
(1.01131 0.0008472 -9.64795e-23)
(1.0721 0.0362317 -5.53176e-21)
(1.07271 0.0359991 -4.30606e-21)
(1.07256 0.0366708 5.97479e-21)
(1.0466 0.0201162 -5.75866e-22)
(1.02652 0.01861 -1.54505e-21)
(0.669571 -0.0136344 1.68642e-21)
(0.675209 -0.0223699 -5.65514e-22)
(0.735591 -0.0150561 -2.51811e-21)
(1.03717 0.0359665 -1.02448e-21)
(1.04168 0.0395339 1.41668e-22)
(1.00708 -0.0149417 -7.51711e-22)
(1.04219 0.0268086 1.08308e-21)
(1.04257 0.0260941 1.43552e-21)
(1.04304 0.0271154 -3.59739e-21)
(0.967834 -0.00291873 -8.74334e-22)
(0.960914 -0.00871139 -1.03794e-21)
(0.971023 -0.0103064 1.074e-21)
(1.00857 -0.00625232 1.45019e-23)
(1.00859 -0.00602186 1.37452e-23)
(1.00832 -0.00596818 -2.22452e-23)
(1.0216 0.00867645 0)
(1.02205 0.00873308 -2.80437e-21)
(1.04131 0.0266911 2.82861e-21)
(1.01777 0.00496374 5.60886e-23)
(1.01804 0.00502684 1.17496e-21)
(1.01793 0.00519274 1.22372e-21)
(1.00589 0.0515612 2.01866e-23)
(1.00457 -0.000229925 -1.21046e-24)
(1.00545 -0.00039752 -1.35018e-23)
(0.881186 -0.0379029 1.41467e-21)
(0.871446 -0.0224698 -3.39161e-22)
(0.860293 -0.0372353 2.91099e-22)
(1.01035 0.00404744 0)
(1.01016 0.00395729 6.20263e-23)
(1.01029 0.00412228 0)
(0.969151 0.0719104 0)
(0.96756 0.0605712 0)
(1.01455 0.000560898 -8.95592e-22)
(1.01465 0.000629801 1.27931e-21)
(1.01451 0.00059677 9.05714e-22)
(1.0129 0.00974932 -2.09655e-22)
(1.01281 0.00928211 -7.79534e-23)
(1.00676 0.00170511 -3.59819e-22)
(1.00762 0.00134458 -1.9117e-22)
(1.00699 0.000592963 4.05391e-22)
(1.06614 0.0528565 -5.29294e-21)
(1.06734 0.0527328 -2.43284e-21)
(1.06669 0.0516135 -2.22517e-21)
(1.0626 0.196566 5.80212e-22)
(1.07498 0.196129 -4.76018e-21)
(1.07195 0.207663 -6.64157e-21)
(1.01017 0.0476961 -5.23831e-23)
(1.00971 0.0501727 -1.02431e-22)
(1.03252 0.0366824 -4.08636e-22)
(1.03277 0.0324358 -1.10426e-21)
(1.01645 0.0133578 -1.42927e-23)
(1.01651 0.0128299 3.71022e-22)
(1.01689 0.0133042 -1.10749e-21)
(1.01252 -0.00148269 3.83096e-22)
(1.01237 -0.00134941 1.43463e-22)
(1.0175 0.00489565 4.45635e-23)
(1.01761 0.00473406 -1.23025e-21)
(1.01639 -0.0154115 -1.49447e-22)
(1.01643 -0.0171925 -9.58084e-23)
(1.01785 -0.0159402 -6.587e-22)
(0.951181 0.053091 -6.852e-22)
(0.943081 0.0464546 -1.35607e-22)
(1.01227 -0.00130066 0)
(1.01239 -0.0014263 0)
(1.01232 -0.00131855 0)
(1.01156 0.000548449 2.90395e-22)
(1.01087 0.000431027 9.0771e-22)
(1.01165 0.000530178 -5.52199e-22)
(0.971839 -0.0285442 -6.55241e-23)
(0.967389 -0.0349523 2.04333e-22)
(0.963621 -0.0269436 1.48299e-21)
(1.0177 0.0129366 3.65709e-22)
(1.01811 0.013292 3.99854e-22)
(1.01809 0.0127512 0)
(1.01251 -0.00154707 -2.8645e-22)
(1.01258 -0.00157911 -5.47157e-23)
(1.01265 -0.00168766 -6.73941e-22)
(1.0605 0.0460385 3.34303e-22)
(1.05943 0.0468946 3.39119e-21)
(1.0607 0.0473924 3.45366e-21)
(1.01608 -0.014104 -5.99653e-23)
(1.015 -0.014859 4.1671e-23)
(1.01134 0.000825873 6.55787e-23)
(1.01134 0.000764434 0)
(1.01131 0.000730029 0)
(1.0219 -0.0056408 -1.01158e-22)
(1.02263 -0.00595388 0)
(1.02205 -0.0062712 -1.79867e-22)
(1.01514 0.0451213 -5.29419e-22)
(1.0164 0.0469447 -6.88529e-22)
(1.01242 0.000483214 -5.08012e-22)
(1.01139 0.000440926 4.31572e-23)
(1.01137 0.000448034 -1.10936e-22)
(1.01354 0.0460659 -8.2779e-23)
(1.01391 0.0437277 2.26547e-22)
(1.00348 0.00225633 -1.23588e-23)
(1.00356 0.00261081 1.78939e-22)
(1.00333 0.00246579 9.19883e-23)
(1.01149 0.000539722 -5.01502e-22)