/*--------------------------------*- C++ -*----------------------------------*\
| =========                 |                                                 |
| \\      /  F ield         | OpenFOAM: The Open Source CFD Toolbox           |
|  \\    /   O peration     | Version:  v2012                                 |
|   \\  /    A nd           | Website:  www.openfoam.com                      |
|    \\/     M anipulation  |                                                 |
\*---------------------------------------------------------------------------*/
FoamFile
{
    version     2.0;
    format      ascii;
    class       volScalarField;
    location    "850";
    object      k_0;
}
// * * * * * * * * * * * * * * * * * * * * * * * * * * * * * * * * * * * * * //

dimensions      [0 2 -2 0 0 0 0];


internalField   nonuniform List<scalar> 
18355
(
0.00033159
0.000136989
0.000232799
0.000140872
0.000211481
0.0105833
0.000146297
0.000234815
0.000151746
0.000957848
0.00015757
0.000197255
0.000198314
0.00732155
0.000142789
0.000135457
0.000140858
0.00015674
0.000229992
0.000153081
0.0302467
0.000148736
0.000136936
0.00958969
0.000137013
0.000148739
0.000146286
0.000140988
0.000152453
0.000159051
0.0141703
0.000176845
0.000137568
0.00013425
0.000145321
0.000148935
0.000159748
0.000149131
0.000159683
0.00014901
0.000151252
0.000158324
0.0001344
0.000136805
0.000136911
0.000229542
0.000141091
0.000140971
0.0142938
0.000144331
0.000142111
0.00318717
0.000144686
0.000229704
0.000143044
0.000153118
0.000145142
0.0230033
0.000148892
0.0296235
0.000134346
0.000192441
0.000227873
0.000145435
0.000190904
0.000140228
0.000153606
0.000159827
0.000134015
0.000355238
0.000142131
0.000143076
0.000169149
0.000159489
0.00328301
0.000134162
0.0252088
0.000134262
0.000141881
0.00345339
0.000153509
0.0038461
0.000134113
0.000155309
0.000181392
0.000148958
0.000153556
0.000172672
0.000140568
0.00017281
0.00408088
0.0221444
0.00352564
0.000144248
0.00414023
0.000147474
0.00014008
0.000145074
0.000195843
0.00014842
0.000179135
0.000141539
0.000143949
0.000130558
0.000153928
0.000135578
0.000190018
0.00542719
0.000166155
0.000135014
0.00014203
0.00014705
0.000162972
0.000154818
0.000326982
0.000158057
0.000141307
0.00352842
0.000151698
0.00015323
0.000313666
0.000232295
0.00327718
0.000178284
0.00369089
0.000309819
0.000146393
0.000141213
0.000363192
0.000147374
0.000140162
0.00221113
0.000143475
0.000195103
0.000218774
0.00014061
0.000230893
0.000331732
0.000142398
0.0285185
0.000156447
0.000240434
0.000140884
0.00672065
0.000220283
0.000146553
0.0294492
0.000131362
0.000162802
0.00376177
0.000140908
0.000153071
0.000144888
0.000180157
0.000134508
0.000138256
0.000141386
0.00014888
0.000140958
0.00013928
0.00015701
0.000143597
0.000135084
0.000195143
0.000159734
0.000826094
0.0335498
0.00176079
0.00987771
0.000156409
0.000146248
0.000192907
0.000147983
0.0144925
0.000145832
0.000150612
0.000146342
0.000130232
0.000151177
0.000160431
0.000149153
0.000666376
0.000148154
0.00014126
0.000411139
0.00014385
0.000149805
0.000171635
0.000143293
0.000146658
0.00023666
0.000195282
0.000137274
0.000134944
0.000143821
0.000364041
0.000139356
0.000832021
0.000137086
0.00544527
0.000143582
0.000154928
0.00016052
0.000148895
0.000652326
0.000146661
0.0120157
0.000141225
0.000137011
0.000144249
0.000146797
0.000797086
0.000152069
0.000148839
0.000131533
0.0134678
0.000160433
0.000156492
0.000146845
0.000141224
0.000164846
0.000134109
0.000170644
0.000185018
0.000222803
0.000157773
0.000134323
0.000285412
0.000296448
0.000165785
0.000145683
0.000153976
0.00123582
0.00013428
0.000197423
0.000213842
0.000148949
0.00025969
0.000155526
0.000148918
0.000137311
0.000150913
0.00014649
0.000164495
0.000146667
0.00014305
0.000140901
0.000624188
0.00286252
0.000142815
0.000147401
0.00212984
0.000213212
0.000187958
0.000130262
0.000232864
0.000155516
0.00014747
0.000157291
0.000139692
0.00323693
0.000528235
0.000191934
0.000162152
0.000161303
0.000196795
0.000185001
0.000199615
0.00013964
0.000143088
0.000147286
0.000135063
0.000155047
0.000156771
0.000140634
0.000146749
0.000171913
0.000140456
0.000202176
0.00157093
0.000167992
0.000147023
0.000158863
0.000134944
0.000173374
0.000146067
0.000161462
0.000148663
0.000160724
0.004132
0.000137292
0.000176221
0.00015142
0.000158801
0.000187006
0.000145117
0.000134741
0.000199244
0.000146759
0.000269373
0.000159804
0.0104033
0.00017425
0.000192789
0.000155856
0.000174115
0.000144016
0.00015402
0.000161565
0.000176272
0.000630332
0.000256656
0.000142104
0.000156581
0.000220279
0.000159562
0.000142036
0.000140915
0.000140923
0.000176951
0.000256381
0.000358234
0.000632614
0.000170549
0.00015593
0.00106137
0.000131261
0.000146454
0.000155843
0.00014406
0.00016602
0.000144593
0.00438731
0.000135876
0.00420672
0.000143502
0.000148764
0.000157047
0.000203164
0.0148293
0.00016472
0.000539456
0.000148841
0.000140689
0.000143951
0.000161002
0.00143354
0.000140917
0.000145375
0.00104514
0.000148502
0.000141048
0.000210724
0.000158407
0.000140912
0.000144981
0.000162486
0.000151901
0.000162201
0.000135486
0.00014531
0.000148231
0.0221457
0.000624487
0.000135195
0.0001407
0.000187749
0.000140989
0.000147528
0.00122181
0.00073654
0.000175581
0.000143795
0.000149157
0.000199399
0.000148988
0.000245347
0.000154164
0.000136542
0.000181991
0.000191465
0.000147798
0.000144168
0.00015672
0.000146295
0.000154086
0.000143768
0.000196245
0.000146583
0.000152637
0.000142638
0.000140969
0.000154512
0.000148747
0.000186776
0.0240948
0.00098639
0.00015389
0.000213496
0.000191805
0.000143719
0.000144183
0.000174089
0.000143305
0.000177788
0.00014572
0.000163264
0.00137427
0.000236877
0.0163445
0.000194929
0.000130704
0.00133882
0.000148416
0.000140567
0.0297738
0.000143064
0.00017395
0.000137444
0.000197952
0.00014303
0.00019151
0.00467618
0.000188972
0.000144278
0.000137452
0.000190186
0.00015171
0.000143259
0.000944431
0.000251637
0.00014051
0.000174628
0.000186979
0.000137376
0.000149983
0.000163217
0.00389233
0.000173134
0.000148532
0.000144369
0.000169998
0.000144547
0.000135937
0.000144228
0.000232902
0.0226159
0.000136328
0.000150948
0.000145156
0.000204584
0.000187313
0.00013492
0.000174347
0.000171285
0.000145221
0.000439442
0.000192762
0.00014835
0.000146017
0.000171894
0.000204651
0.00977996
0.000136085
0.00302859
0.000142902
0.000136288
0.000176612
0.000152073
0.000198243
0.000169338
0.000152944
0.000160862
0.00014877
0.000210302
0.000152032
0.000160631
0.000148691
0.000135836
0.000147754
0.000136026
0.000193264
0.0175598
0.00019715
0.000157847
0.000147527
0.000148709
0.000145666
0.000155808
0.000146144
0.000135472
0.000143724
0.000173651
0.000137421
0.000146022
0.00478093
0.00160133
0.000222544
0.000147213
0.000150458
0.000163483
0.000148574
0.00318334
0.000243636
0.000154998
0.000155289
0.000161859
0.000150068
0.000153684
0.0563271
0.000165605
0.000147986
0.00462155
0.000147032
0.00670256
0.00103367
0.000156247
0.000149796
0.0564326
0.000140699
0.000190161
0.000177513
0.00477777
0.00015203
0.000147609
0.000145085
0.00372025
0.00957046
0.00437375
0.00463652
0.000155408
0.000144947
0.000155334
0.000143106
0.000154676
0.0288862
0.0105677
0.0191233
0.000764556
0.000168492
0.000173888
0.000164706
0.000141149
0.000142278
0.000171965
0.000158264
0.000146263
0.000143058
0.00393881
0.000140002
0.000620192
0.000159961
0.000193549
0.000200762
0.000142331
0.000154797
0.000319501
0.00014368
0.0225641
0.000143502
0.00440756
0.000165607
0.000149233
0.000164559
0.000198634
0.000196442
0.000149743
0.00013407
0.000168541
0.000156601
0.000193983
0.000143495
0.000192322
0.000139948
0.000242426
0.000146598
0.000143404
0.00022343
0.000169731
0.000205418
0.000144766
0.000155773
0.000156476
0.00299819
0.000397759
0.000155019
0.000201129
0.000145339
0.000158739
0.000148019
0.00015466
0.0399075
0.00013675
0.000867676
0.000146848
0.00014579
0.000154933
0.00257849
0.000152151
0.000207019
0.000149543
0.000168318
0.00493477
0.000131393
0.000140962
0.000504993
0.000171666
0.00110654
0.000171233
0.000148203
0.000143074
0.000142503
0.000159311
0.000149314
0.000136575
0.000252064
0.00124619
0.000143211
0.0013337
0.00200654
0.000155928
0.000229836
0.000136143
0.000322677
0.00627233
0.00013241
0.00522266
0.000172197
0.001922
0.0024289
0.000143807
0.000142511
0.000147925
0.000553344
0.000176292
0.000144689
0.000148845
0.000248658
0.000148172
0.000173141
0.000143169
0.000170425
0.00338766
0.00335046
0.000240561
0.00269031
0.000173364
0.02264
0.00015532
0.000140595
0.000157374
0.00165417
0.000179957
0.000174315
0.000144472
0.000280025
0.000145337
0.000148398
0.000352437
0.00014867
0.00015817
0.000195437
0.000201294
0.000144658
0.000142842
0.00015472
0.000156331
0.000134167
0.000147357
0.000166673
0.000235042
0.000152553
0.000145323
0.000175971
0.0050069
0.000143821
0.00246412
0.000441492
0.000145108
0.0273079
0.00013473
0.000233896
0.000143614
0.000138088
0.000222808
0.000152397
0.00566666
0.000152254
0.000142859
0.0291499
0.000143584
0.00013484
0.000145727
0.00014069
0.000158748
0.000170774
0.0230749
0.000151513
0.022811
0.000152934
0.00256686
0.00239764
0.000150021
0.000143902
0.000155813
0.000136512
0.000200494
0.00014252
0.000134704
0.000135711
0.000144491
0.000143594
0.000237559
0.000158494
0.000178013
0.000153372
0.00015659
0.000156023
0.000162689
0.000831608
0.000137375
0.00019263
0.000178482
0.0001345
0.008917
0.00287425
0.000141785
0.00218591
0.000145333
0.00129386
0.000168175
0.00013223
0.000168912
0.000156768
0.0023675
0.000142561
0.000154792
0.00423465
0.000214957
0.000297148
0.000143559
0.000411653
0.000187653
0.000312174
0.000143503
0.000151815
0.000143374
0.000146061
0.000141925
0.00014474
0.000136746
0.00242069
0.000168089
0.000141172
0.000134192
0.000140462
0.000148367
0.000210382
0.000187405
0.000137257
0.000156277
0.000147007
0.000147278
0.000146253
0.000140798
0.000198214
0.000134221
0.000140276
0.000149431
0.000147007
0.000154799
0.000147457
0.000248232
0.0167651
0.000155224
0.000140134
0.000203296
0.000134601
0.000134275
0.000147319
0.000259696
0.000157149
0.000145743
0.000135946
0.000137164
0.000159938
0.000133959
0.000163042
0.000142422
0.000147987
0.000141848
0.000151615
0.00245261
0.000140548
0.000148495
0.000143497
0.000236319
0.00381367
0.000159273
0.000149326
0.000191154
0.000161393
0.000193544
0.0525973
0.000149127
0.00512567
0.00014859
0.00029796
0.000149069
0.000136761
0.000135868
0.00293972
0.000135472
0.000159597
0.000196681
0.000213626
0.000171951
0.000154258
0.000142445
0.000143449
0.000143638
0.00016114
0.000205402
0.00517765
0.000177832
0.000145484
0.000134
0.000155402
0.000141802
0.000140729
0.000148158
0.000178157
0.000164449
0.00157886
0.000145408
0.000144416
0.00016681
0.000143119
0.000205323
0.000178197
0.000174907
0.000210081
0.0293234
0.00016452
0.000141128
0.000134059
0.000147422
0.000142937
0.000386285
0.000176385
0.000199771
0.000136922
0.000146847
0.000153447
0.000140985
0.051022
0.00025586
0.000134312
0.000135772
0.000143047
0.000141962
0.000140987
0.000144981
0.000225288
0.000134917
0.000148291
0.000136973
0.000137904
0.000142039
0.00014585
0.000163029
0.000137861
0.000169949
0.000135941
0.000696004
0.000228813
0.000156942
0.000252968
0.000153705
0.000148587
0.000188784
0.000362619
0.000144535
0.00014022
0.000137043
0.000171924
0.000150651
0.000164741
0.000342153
0.00014634
0.000148059
0.000144706
0.000280147
0.000541148
0.000151582
0.000139563
0.00015919
0.000174136
0.000142364
0.000196026
0.000140295
0.000134042
0.000155462
0.00686876
0.00485824
0.00102975
0.000225174
0.000134765
0.000230154
0.000205225
0.000161121
0.000143589
0.000206761
0.000154874
0.000246197
0.00759732
0.000142034
0.000134815
0.000144748
0.000149001
0.000134978
0.000246322
0.00111223
0.000134533
0.000146587
0.000148979
0.000170297
0.000144132
0.000142177
0.000196322
0.000147508
0.000142234
0.000730376
0.000202301
0.000196346
0.000142758
0.000135947
0.000134731
0.000145142
0.00016287
0.000185398
0.000140669
0.000139068
0.00015356
0.000354314
0.000137069
0.000143963
0.000195018
0.000141087
0.000139216
0.000143555
0.000930535
0.000135733
0.00014451
0.000137135
0.000158362
0.000135772
0.000157775
0.000208552
0.000143997
0.000233681
0.000162604
0.000216256
0.000186253
0.000140807
0.000162841
0.000140502
0.000139077
0.000140823
0.000832423
0.00493294
0.000193535
0.000159926
0.00350939
0.000189502
0.000148812
0.000204146
0.00020324
0.000156096
0.000135539
0.000712473
0.000149946
0.000140666
0.000137996
0.000244844
0.00134099
0.0289454
0.000138878
0.000195495
0.00606571
0.000166113
0.000169487
0.000153997
0.000153474
0.000167237
0.00101816
0.000153237
0.000150097
0.000156135
0.00419708
0.000236139
0.000144029
0.00014663
0.000143628
0.00126396
0.000156545
0.000149291
0.00308247
0.000157777
0.000169452
0.000153932
0.00380009
0.000138571
0.000263164
0.000149459
0.000135723
0.000141201
0.000135778
0.00013577
0.00014088
0.000147802
0.000242014
0.000138109
0.000264613
0.000159116
0.000147384
0.000141066
0.000201218
0.00014338
0.000146735
0.000155245
0.0133222
0.000195273
0.000152399
0.000146247
0.000287847
0.000138536
0.00017631
0.000146037
0.0305317
0.00017011
0.00337241
0.00015793
0.0001433
0.000228629
0.00871648
0.000273654
0.000137715
0.000143486
0.000169619
0.041079
0.000130918
0.000181055
0.000141464
0.000161613
0.000140505
0.000134943
0.00014817
0.000149641
0.00013513
0.000169509
0.000167495
0.000157039
0.000205313
0.000570772
0.000149912
0.000489779
0.000136151
0.000199358
0.00159131
0.00021554
0.000134713
0.000149387
0.000145819
0.0103679
0.000144743
0.000140581
0.00019496
0.000146323
0.00014606
0.000151163
0.000149265
0.000142904
0.000714763
0.00407054
0.000187765
0.000139175
0.000145285
0.000282788
0.000136194
0.00052028
0.000147545
0.000145624
0.000149041
0.000155953
0.000217862
0.000140727
0.000145106
0.000155934
0.000147079
0.000148157
0.000169685
0.00183275
0.00119486
0.000144401
0.000143153
0.0377429
0.00127625
0.000460807
0.000141194
0.000166909
0.000214335
0.0001376
0.000193746
0.000153209
0.000501954
0.000153144
0.000146049
0.000149267
0.000135643
0.000395986
0.00014498
0.000139132
0.00227382
0.000192519
0.000413932
0.000135246
0.000151239
0.000135407
0.000131948
0.000135948
0.000150953
0.000146618
0.000148584
0.000135655
0.00014801
0.000180158
0.000163422
0.000161653
0.000139976
0.000155657
0.000141898
0.00454296
0.000147817
0.000148566
0.000147805
0.000135876
0.000148342
0.000146131
0.000144146
0.000143406
0.000141006
0.000135999
0.00547954
0.00141107
0.000144791
0.000466954
0.000168935
0.000149141
0.000147574
0.000149833
0.00433161
0.000148549
0.000136116
0.000134479
0.000134722
0.000784462
0.000144582
0.000136787
0.000240652
0.000134126
0.000133262
0.000164096
0.000168691
0.000219855
0.00021034
0.0227528
0.000135821
0.00367467
0.000157131
0.000143157
0.000136804
0.000161368
0.000143075
0.000162809
0.000187438
0.000154168
0.000151081
0.000349368
0.000217438
0.00299891
0.000246666
0.0010696
0.000242744
0.000139247
0.000245681
0.000759307
0.000134937
0.00337592
0.000138855
0.000150418
0.000201978
0.000140584
0.000272547
0.000155656
0.000151762
0.000148051
0.000205703
0.000143839
0.000258086
0.000142805
0.000136163
0.00425568
0.000133549
0.00014818
0.000148398
0.000183944
0.000142249
0.000144064
0.000152054
0.000317013
0.00014442
0.000144515
0.000136735
0.000154066
0.000142384
0.000150401
0.000501227
0.00014143
0.000158072
0.000147709
0.000154704
0.000158268
0.000140395
0.000148728
0.000197187
0.000147247
0.000147731
0.000156928
0.00470846
0.000148585
0.000141783
0.000143994
0.000163292
0.000218407
0.000151127
0.000140958
0.000141345
0.000137749
0.000131789
0.000135462
0.000157006
0.000195467
0.000185051
0.00014651
0.00734725
0.000139741
0.000148272
0.0468285
0.000174879
0.000134238
0.0001985
0.000150276
0.00014094
0.00121594
0.000148746
0.000175989
0.000132668
0.000214457
0.000139614
0.000134803
0.00013605
0.000419802
0.000256413
0.00014698
0.000334592
0.000135845
0.000142535
0.000139034
0.0002011
0.000145557
0.000138438
0.000152785
0.000151374
0.000142904
0.00014561
0.000140324
0.0001487
0.000146608
0.000140395
0.000155471
0.000135263
0.0078012
0.000189158
0.00013641
0.00112176
0.000158163
0.00014074
0.000139946
0.000151018
0.000140873
0.000162373
0.000156005
0.000217948
0.000226742
0.000147978
0.000187834
0.000215354
0.000143068
0.000146687
0.000196771
0.000155613
0.00449131
0.000135638
0.000143691
0.000152289
0.000149397
0.000142946
0.000157696
0.000140458
0.000152571
0.000144052
0.000155236
0.000139715
0.000196262
0.000144766
0.000154707
0.000190519
0.000142916
0.000451548
0.00452666
0.000155727
0.000162253
0.000161274
0.000134437
0.000183134
0.000145401
0.000168471
0.00243503
0.00138147
0.000199383
0.000155525
0.00016496
0.000142813
0.000163708
0.000138891
0.000311287
0.000190372
0.000147466
0.000140505
0.000628404
0.000169096
0.000142782
0.000143256
0.00114593
0.000147676
0.000138354
0.00678572
0.000180408
0.000134823
0.000309897
0.000136083
0.000203788
0.000182513
0.000142931
0.000144341
0.000155555
0.0307704
0.000140089
0.000158098
0.000144325
0.000142954
0.000139851
0.00352648
0.000148301
0.000145554
0.000143658
0.000271386
0.000158552
0.000140263
0.000133104
0.00020089
0.000142246
0.00013691
0.00332013
0.0339288
0.000148703
0.000236561
0.000155744
0.000176977
0.00015059
0.000185458
0.00105214
0.000148171
0.000142081
0.000137126
0.000154929
0.00014283
0.00261732
0.000254029
0.000137461
0.000148552
0.000136378
0.000135576
0.000348256
0.000142919
0.000151381
0.000151568
0.000198841
0.000144557
0.000147572
0.00015603
0.00217886
0.000146439
0.000145571
0.000137361
0.000138363
0.000154457
0.000174598
0.000147344
0.000142198
0.000144895
0.000143819
0.000137184
0.00201381
0.000148197
0.000143054
0.000141925
0.00018453
0.00013654
0.000136926
0.000170128
0.000142543
0.000196002
0.000144225
0.000144492
0.000616598
0.0495203
0.0128104
0.000206259
0.000156685
0.000147405
0.000418113
0.000139731
0.000156028
0.000135194
0.00815834
0.000130395
0.000154715
0.000144652
0.00398451
0.000171166
0.000203166
0.000339757
0.000149159
0.00018654
0.000147762
0.000149208
0.000386019
0.000168492
0.000142123
0.000136033
0.000153663
0.000166049
0.000144021
0.000144862
0.000139688
0.000135041
0.000232845
0.00474546
0.000147749
0.000152632
0.00489406
0.00769693
0.000154889
0.000150007
0.000152463
0.000155122
0.000142325
0.000150223
0.000327327
0.000140259
0.000136273
0.000146021
0.000317917
0.000258854
0.000157149
0.000146529
0.000146471
0.000158353
0.000143627
0.000156173
0.000175976
0.000231368
0.000155693
0.00169557
0.000134645
0.00014281
0.000148306
0.000135453
0.000147002
0.000140106
0.000246332
0.000140895
0.00429228
0.000144938
0.000139046
0.000137591
0.00018224
0.000150548
0.000175044
0.000189497
0.000136223
0.000314124
0.000166594
0.000138043
0.000133593
0.00113282
0.000246883
0.000133847
0.000140406
0.000140796
0.000149953
0.000217327
0.000254369
0.000153221
0.000149002
0.0002069
0.000436564
0.00014901
0.000142626
0.000256438
0.000154144
0.000600195
0.000153974
0.000142418
0.000186786
0.000196796
0.0486136
0.000209547
0.00315769
0.000136903
0.000142534
0.000148965
0.000146526
0.000153931
0.000147549
0.000146142
0.00013954
0.000148714
0.000147015
0.000146355
0.000145532
0.000151901
0.000148819
0.000143563
0.000141551
0.000180132
0.000172477
0.000140341
0.000145292
0.00023174
0.000145465
0.00014868
0.000147888
0.00236537
0.000136942
0.000171377
0.000152401
0.000135905
0.000143374
0.000302445
0.000100167
0.000149179
0.00014784
0.000152812
0.000173304
0.000140049
0.000159348
0.000172766
0.000141219
0.000207181
0.000140731
0.000143185
0.000143231
0.000148105
0.000162125
0.000217875
0.039479
0.000172018
0.000136139
0.000144947
0.000143528
0.000193754
0.000148876
0.00130046
0.000139794
0.00014381
0.00014348
0.00019142
0.000142896
0.000146494
0.000144268
0.000211272
0.000137018
0.0160482
0.000137018
0.00016465
0.000144308
0.000162537
0.00014076
0.000153672
0.00323525
0.000183916
0.000136173
0.000189594
0.000145291
0.000146582
0.000466803
0.00325179
0.000136182
0.0001427
0.000156045
0.000135967
0.000143679
0.000148417
0.000147552
0.000159009
0.000180061
0.000149755
0.000158718
0.000173343
0.0001468
0.000140785
0.000142103
0.000158769
0.000162359
0.000144121
0.042003
0.000140347
0.000485887
0.000169296
0.000136528
0.000140343
0.000140078
0.000232452
0.000145691
0.000155271
0.000146443
0.000141115
0.00349287
0.000153228
0.000173415
0.000147216
0.000145429
0.000151506
0.000143295
0.000153249
0.000143431
0.000154725
0.000149063
0.000148711
0.00581866
0.000165937
0.00430585
0.000140872
0.000162924
0.000149242
0.00501612
0.000192806
0.00469621
0.000151837
0.000134898
0.000172928
0.000142582
0.00498337
0.000149642
0.000198657
0.000150509
0.000304817
0.00414413
0.000152745
0.000173096
0.00013937
0.000137486
0.000148545
0.000134745
0.000147797
0.000152213
0.000139488
0.000159211
0.000236964
0.0047427
0.000140741
0.000297768
0.000134557
0.000142425
0.000143801
0.000195512
0.000146881
0.00049253
0.000148155
0.000143422
0.000305639
0.000140228
0.000154487
0.000142173
0.00015398
0.00492246
0.00016241
0.00129487
0.000144961
0.000191531
0.000152217
0.00014176
0.000143961
0.000186208
0.000165246
0.000143025
0.000151607
0.000143137
0.00547791
0.000139068
0.0198191
0.000249595
0.000194238
0.000155738
0.000263823
0.000170039
0.000134739
0.0140665
0.000142377
0.000258146
0.000148461
0.000151336
0.00351193
0.00342227
0.000158615
0.0020026
0.000143557
0.00623715
0.000131113
0.0179116
0.000135129
0.000152175
0.000201475
0.000146114
0.000139091
0.00014901
0.000144425
0.000180002
0.000471096
0.000168286
0.000994304
0.000141371
0.00323368
0.000144393
0.000147817
0.000143348
0.000145009
0.00574235
0.000147618
0.000138051
0.000168884
0.000148134
0.00539709
0.000206482
0.000142904
0.000217246
0.000169455
0.000140566
0.00014477
0.000153587
0.000136607
0.000181325
0.000161819
0.000152218
0.000153637
0.000137191
0.000146176
0.000183341
0.000149229
0.000144909
0.000150136
0.000134897
0.000135686
0.00459641
0.000158052
0.0172752
0.000159792
0.000179569
0.000162924
0.000142093
0.000162301
0.000138955
0.000140728
0.000447796
0.000165237
0.000160334
0.000180813
0.000148627
0.000272234
0.0135574
0.000143373
0.000160646
0.000204688
0.00258231
0.000136452
0.000138174
0.000146887
0.000177467
0.000622889
0.0001647
0.000154054
0.000148543
0.000142035
0.000135249
0.000961758
0.000155588
0.00015275
0.00445983
0.000146781
0.000151258
0.000154408
0.000145008
0.000142758
0.000142886
0.000179276
0.000214564
0.000148741
0.00015462
0.000436804
0.000142484
0.000149359
0.000152754
0.00014669
0.00420136
0.00456752
0.000967299
0.000210068
0.00257216
0.000150117
0.000139824
0.000326082
0.000152836
0.000157442
0.000143076
0.000135341
0.0059219
0.000255261
0.000141415
0.000139515
0.000159881
0.000551509
0.000156264
0.000135068
0.000499921
0.00015208
0.00016987
0.000134901
0.00016348
0.000131065
0.000153154
0.000156204
0.000142041
0.0215976
0.000149001
0.000171202
0.000214731
0.00536099
0.000207448
0.000142193
0.000185322
0.000155373
0.000160971
0.000150614
0.000149963
0.00014522
0.000150055
0.000512858
0.000151826
0.000457474
0.000139925
0.000211045
0.000135941
0.000148683
0.000253452
0.0001557
0.000210445
0.000158605
0.000149502
0.0464008
0.000446698
0.000140054
0.000303043
0.000167248
0.000138846
0.000134119
0.0306389
0.000299745
0.000138887
0.000136222
0.000143841
0.000136744
0.000372697
0.000687408
0.000130214
0.000133339
0.000139968
0.000226222
0.000176085
0.0041127
0.000135777
0.000478953
0.000147432
0.000192287
0.000894258
0.000164545
0.000139352
0.000139922
0.00376426
0.000136658
0.000141228
0.0001365
0.000165661
0.000154052
0.025675
0.000159359
0.00014824
0.000142377
0.000158667
0.000215528
0.000176626
0.00014171
0.000142149
0.000214436
0.000178943
0.00014889
0.000733994
0.000162578
0.000151827
0.000346227
0.000151616
0.000156878
0.000148271
0.000768371
0.000145179
0.000148307
0.000279469
0.000160323
0.00014116
0.000143302
0.000131114
0.000177874
0.000216016
0.000140984
0.000136092
0.000149826
0.00018373
0.00015568
0.000135102
0.00014275
0.00013915
0.000151605
0.000173337
0.000145681
0.000142398
0.000439178
0.000142032
0.00584401
0.000164539
0.000166296
0.000155276
0.000150455
0.000145049
0.000286419
0.000206079
0.000186666
0.0235791
0.00016365
0.000140118
0.000283704
0.000136182
0.000188119
0.000327219
0.000152248
0.000141813
0.000153962
0.000191004
0.000142716
0.000142834
0.000301168
0.000142827
0.000157023
0.000140904
0.000147794
0.000137365
0.000200802
0.000199075
0.000135939
0.000141052
0.000430266
0.000142623
0.000136757
0.000140832
0.000140613
0.030681
0.000159166
0.000152079
0.000153407
0.000149016
0.000137477
0.000181656
0.000193118
0.000158915
0.000245173
0.000159229
0.000153099
0.023808
0.000140111
0.000136247
0.000143375
0.000140501
0.000148312
0.00013286
0.000150369
0.000323581
0.000144707
0.00014184
0.000156219
0.000140527
0.00144209
0.000147427
0.000535228
0.000226433
0.000196411
0.00016314
0.000459605
0.000158437
0.000143141
0.00015388
0.000140445
0.000150916
0.000146365
0.000148474
0.000281954
0.00013586
0.000143699
0.000176013
0.000255696
0.000147609
0.000139777
0.000215575
0.000149328
0.000208974
0.000143016
0.000139909
0.000144183
0.0199542
0.000145782
0.000252539
0.000182906
0.000157118
0.000139691
0.000143425
0.000163064
0.00037107
0.000135966
0.000172822
0.000141828
0.000629333
0.000226316
0.000150467
0.000211542
0.000146131
0.000152109
0.000156835
0.000260688
0.000158626
0.000161037
0.000164026
0.00126377
0.000147969
0.000176585
0.000144597
0.000226919
0.000214905
0.000232376
0.000142369
0.000159879
0.00609459
0.00402297
0.000152055
0.000154132
0.00665224
0.00649455
0.00014032
0.000179927
0.000143333
0.00015397
0.000146206
0.000152796
0.00015202
0.000291423
0.000147742
0.000148123
0.000184761
0.0016503
0.00025101
0.000207332
0.000317424
0.000139844
0.00650814
0.000188042
0.000142144
0.000141791
0.00636462
0.000156555
0.000145164
0.000142566
0.000174602
0.000138632
0.00014277
0.0302094
0.000145413
0.000147922
0.000141095
0.000143867
0.000151074
0.000139102
0.000375292
0.0001858
0.000153639
0.000139201
0.000160488
0.00292524
0.000141978
0.000147194
0.00165443
0.000226177
0.000143448
0.000154875
0.000138709
0.000140371
0.000226628
0.000214693
0.000140408
0.00014345
0.00419451
0.00334658
0.000579174
0.000195737
0.000150177
0.00169589
0.000140841
0.000156032
0.000154544
0.00013954
0.000384766
0.000452665
0.000171833
0.000193856
0.0224128
0.000134135
0.000133332
0.000152363
0.00016893
0.000416636
0.000136441
0.000169793
0.00536093
0.00610378
0.000147039
0.00015089
0.000251534
0.000142923
0.000153938
0.00517099
0.000140812
0.000142542
0.000139209
0.00026845
0.00014147
0.000164797
0.000148871
0.000186041
0.000158838
0.00450572
0.000143181
0.000142255
0.000167282
0.000148348
0.000159561
0.000150435
0.000200349
0.000202294
0.000140767
0.000144373
0.0372946
0.000949277
0.00198285
0.000139073
0.00014336
0.000155287
0.000145294
0.000143058
0.000144053
0.000146531
0.000148547
0.000139588
0.000139641
0.000188284
0.00015558
0.000166208
0.00149538
0.00018956
0.000179043
0.000154701
0.000191002
0.00023474
0.000163483
0.000156588
0.000156708
0.000141717
0.0076117
0.000136037
0.000135764
0.000140374
0.00459817
0.000141956
0.00368178
0.000148279
0.000134885
0.000176451
0.000143008
0.000142321
0.000142957
0.000177869
0.00027544
0.000147653
0.000139508
0.000151406
0.00327093
0.000178363
0.00556026
0.000143093
0.00017851
0.000146509
0.000145691
0.000136165
0.000138886
0.000143368
0.000149866
0.0021421
0.000152084
0.000151744
0.000206687
0.000469927
0.000203861
0.000141604
0.000205718
0.000165353
0.00184444
0.000137907
0.000142684
0.000164333
0.0030454
0.000132421
0.000144565
0.000138834
0.000136569
0.000204597
0.00015291
0.00019401
0.000145294
0.000132211
0.00018029
0.000144028
0.00336041
0.000144137
0.000172162
0.000147969
0.000159323
0.000149299
0.000187048
0.00617672
0.00014246
0.000176649
0.0445751
0.000141688
0.00014654
0.000173363
0.000131978
0.000336821
0.000183189
0.000142583
0.000184296
0.000134382
0.000146383
0.000147914
0.00014183
0.000136443
0.000149718
0.000140763
0.000138766
0.00014523
0.000147787
0.000178476
0.000136247
0.000224043
0.000138344
0.000140371
0.000160239
0.000180066
0.000149289
0.000132125
0.000142427
0.000153833
0.000178301
0.0162953
0.000165747
0.000148836
0.000148911
0.000139467
0.000163021
0.000140652
0.000152474
0.0154315
0.000234556
0.000175559
0.00014138
0.000147264
0.000149702
0.00013226
0.000187331
0.000134758
0.000268141
0.00014904
0.000234817
0.00015867
0.0147279
0.000147325
0.000192484
0.000196194
0.00432858
0.00280444
0.000156242
0.0051003
0.000654256
0.000148529
0.000166918
0.00553178
0.000138671
0.000139022
0.000143816
0.000154366
0.000246483
0.000145852
0.000155271
0.000324925
0.000130238
0.000144614
0.000531618
0.00686186
0.000192832
0.00326994
0.00584906
0.000149693
0.000194777
0.000155706
0.000156842
0.000263233
0.000154305
0.0322576
0.000205899
0.000153866
0.000145523
0.000152071
0.0001701
0.000139638
0.0123383
0.000132321
0.000142799
0.000143246
0.00236432
0.0248526
0.000214669
0.000145039
0.000151314
0.000138942
0.000655873
0.000143306
0.000148057
0.000153383
0.000232878
0.000138612
0.000195074
0.00165935
0.000576652
0.000148489
0.000466441
0.000139741
0.0133565
0.000132698
0.000284966
0.000152981
0.000183452
0.000163252
0.000525512
0.000223729
0.000151523
0.000152318
0.000206801
0.000153481
0.000141904
0.000138695
0.000156315
0.000147896
0.000325913
0.000131594
0.0001429
0.000144241
0.000143799
0.000426512
0.000139259
0.00013458
0.00014611
0.000657746
0.000165181
0.000183069
0.000151402
0.000150984
0.000198572
0.000139979
0.000143136
0.000196725
0.000175107
0.000134595
0.000169855
0.000152083
0.00197209
0.000142665
0.000258911
0.000152801
0.000143218
0.000135286
0.000134912
0.00014232
0.000141357
0.0212179
0.000191217
0.000146809
0.000143067
0.000142353
0.00015287
0.000159127
0.000303238
0.000146268
0.000193961
0.000165182
0.00327008
0.000147742
0.000177683
0.000143003
0.000142692
0.000159348
0.000142554
0.000145638
0.000140668
0.00013595
0.00875437
0.000143559
0.000139192
0.000214424
0.00454631
0.000219821
0.000149533
0.000134838
0.000154261
0.000510575
0.00015284