/*--------------------------------*- C++ -*----------------------------------*\
| =========                 |                                                 |
| \\      /  F ield         | OpenFOAM: The Open Source CFD Toolbox           |
|  \\    /   O peration     | Version:  v2012                                 |
|   \\  /    A nd           | Website:  www.openfoam.com                      |
|    \\/     M anipulation  |                                                 |
\*---------------------------------------------------------------------------*/
FoamFile
{
    version     2.0;
    format      ascii;
    class       volVectorField;
    location    "50";
    object      ddt0(U);
}
// * * * * * * * * * * * * * * * * * * * * * * * * * * * * * * * * * * * * * //

dimensions      [0 1 -2 0 0 0 0];


internalField   nonuniform List<vector> 
18758
(
(-0.00802938 -0.000405426 -5.71299e-18)
(-0.0153109 -0.0151684 -2.14582e-17)
(0.00145947 -6.54414e-05 3.35368e-19)
(0.0478616 0.0849014 -2.4188e-19)
(-0.0102888 0.0248925 -9.09631e-18)
(-0.0459084 -0.0131748 5.91832e-17)
(0.0121387 0.000958377 5.16895e-17)
(0.000674861 -5.42712e-05 -1.12079e-19)
(0.0141082 0.027527 1.3279e-17)
(-0.00187966 0.000326363 9.36213e-19)
(-0.00102041 -0.000338489 -6.32114e-18)
(-0.00877819 0.00558064 3.95094e-17)
(0.000659365 1.5228e-05 -7.24035e-19)
(-0.0435632 0.00418696 2.13744e-18)
(8.80088e-05 -0.00268614 6.5899e-18)
(-0.00395253 0.00869153 1.03423e-17)
(-0.0059429 0.0020355 2.17103e-17)
(0.000301002 2.07281e-05 1.47071e-18)
(-5.05514e-06 -0.00111588 -1.17363e-19)
(-0.00232833 5.2759e-05 -1.48724e-19)
(0.0149072 0.00441222 -3.4808e-18)
(5.71483e-05 1.61185e-05 -1.91814e-18)
(0.00814801 0.0022321 2.43764e-17)
(-0.000493207 0.0528822 3.56728e-18)
(-0.000673375 -0.0265165 -4.54157e-18)
(0.000742374 -4.94645e-05 4.81402e-20)
(-0.00686955 0.00980528 1.19001e-18)
(-0.0252139 0.0208867 -1.28137e-17)
(-0.0852729 -0.0218545 -2.88805e-17)
(-0.00992651 0.00929053 -1.43193e-17)
(-0.0177969 0.0026044 2.191e-17)
(0.0489031 0.006214 3.41716e-18)
(0.000355032 9.12814e-06 4.08781e-18)
(-0.000836236 -0.00111695 1.43527e-18)
(-0.0212588 0.0172465 1.61401e-18)
(3.22646e-05 0.000443343 -4.68408e-18)
(0.000260594 9.91295e-06 -5.28865e-19)
(-0.00048168 -0.000418828 -4.12637e-18)
(-0.000630131 -0.000483786 -4.57387e-20)
(-0.0052535 0.00322738 1.68072e-19)
(-0.000452239 -0.000478668 6.06879e-19)
(-0.00132885 0.00175217 -8.34469e-18)
(0.000469239 -0.000396473 1.19342e-18)
(-0.00161399 0.00110333 9.17477e-18)
(-0.0156699 0.000824096 3.46426e-17)
(0.00111158 -6.09913e-05 -9.5947e-20)
(0.00955717 0.00177294 -3.74306e-17)
(-0.00107557 -0.000205197 8.15964e-18)
(-0.00184007 0.000367781 -8.03824e-20)
(0.00054816 -0.000417796 -2.66163e-20)
(7.37888e-05 -0.00970766 7.76698e-17)
(0.0316192 0.0228225 -1.96927e-17)
(0.00102914 -0.000171119 -2.31048e-19)
(-0.00100004 -0.000350184 -3.88701e-18)
(-0.0329506 0.0192374 1.25992e-17)
(-0.0551416 -0.00104727 -2.06578e-17)
(0.000257611 1.26907e-05 3.83475e-19)
(-0.00238977 0.00795384 -2.29965e-17)
(-0.000275376 0.000404151 1.5303e-18)
(-0.044052 0.00742688 -3.17072e-18)
(-0.00701244 -0.00193284 -1.94615e-17)
(0.0111593 0.00121383 -5.99681e-17)
(0.00628827 0.0139774 -1.94964e-18)
(-0.000745527 0.00110022 1.8225e-17)
(0.00104176 -0.000161948 5.1945e-19)
(-4.0283e-05 0.000474193 9.3374e-18)
(-0.0063062 0.00307106 -3.56772e-18)
(0.000386 1.27017e-05 -5.35127e-18)
(-0.000311432 -0.000422392 -2.99956e-18)
(0.0304975 0.0223701 2.0765e-17)
(0.0182972 0.0206153 -2.73181e-18)
(-0.000419425 0.000971132 1.0134e-17)
(0.000538996 -0.000426283 -2.36603e-19)
(0.000999063 -0.0087076 3.17399e-17)
(0.00045388 -0.000176425 -2.59422e-20)
(-0.000249396 0.000374625 6.50115e-19)
(-0.0088797 0.0338802 1.51548e-17)
(-0.00541329 0.0242195 -2.23529e-17)
(-0.00554376 0.003957 -7.49151e-18)
(0.00847681 0.0037967 5.12744e-17)
(-0.00424384 -0.0092841 5.05993e-17)
(-0.0156308 0.00193727 2.88878e-17)
(-0.0430489 0.00883662 9.21593e-20)
(-0.0446114 -0.00389543 -2.94081e-17)
(-0.0107062 0.0341788 8.61682e-18)
(-0.00150789 0.000354083 -1.81922e-18)
(-0.0103851 0.00530054 -9.57922e-18)
(0.00646224 0.013193 -1.93915e-17)
(0.0062818 0.000162034 5.54696e-17)
(-0.00029464 0.000375283 -4.5588e-18)
(-0.0464561 -0.00411061 2.81735e-17)
(-0.000246869 0.000400021 -1.25973e-18)
(-0.000271365 0.00365886 9.7101e-17)
(-0.00139028 0.0018041 1.65128e-17)
(-0.0073562 -0.0117658 2.19915e-17)
(0.000647969 0.00319435 -4.84023e-17)
(-0.0119159 0.0330866 -1.10653e-17)
(0.000456528 -0.000187124 -6.22362e-21)
(-0.000112697 0.000145323 2.44542e-18)
(0.0158971 0.00567321 2.40235e-18)
(-0.00231713 -0.000161947 2.16895e-18)
(-0.0519885 -0.00420546 -4.47646e-18)
(-0.00832913 0.0129732 1.39564e-17)
(-0.00143343 -0.00255668 2.12114e-18)
(0.0513793 0.00421964 5.83785e-19)
(-0.0125855 0.0116887 4.33219e-18)
(0.0560451 0.0359245 4.59449e-18)
(0.000222895 0.0256802 1.98401e-17)
(-0.00085758 -0.000309942 -2.55412e-18)
(-0.000219159 0.00105938 7.52557e-20)
(-0.00063681 0.00322909 1.0427e-17)
(-0.000135763 0.0101151 -3.74244e-17)
(0.000695929 -3.07002e-05 1.96065e-18)
(-0.000538252 0.000314386 -8.5951e-19)
(-0.0322941 0.0208629 3.02883e-18)
(-0.044225 -0.00343729 1.3708e-16)
(-0.0750015 -0.00273239 2.67861e-17)
(0.000187762 -0.00275485 5.38044e-19)
(0.00198647 0.00448 -1.29605e-17)
(-0.00481344 -0.0119297 4.02765e-18)
(-9.07808e-05 0.00012301 -1.76283e-18)
(-0.000108635 0.000414096 -4.11377e-18)
(-0.0644204 -0.0092515 -1.54219e-16)
(-0.00502377 0.00966854 4.05729e-18)
(-0.0132148 -0.000128096 -1.68876e-17)
(-0.0133861 0.00576094 -3.23478e-17)
(0.00786564 -0.0152963 4.46388e-17)
(0.0241607 0.0394235 -1.09233e-17)
(0.00085659 0.00357265 -3.97513e-17)
(0.000769584 -6.3147e-07 -1.46285e-19)
(-0.00617798 0.00230709 -8.61887e-18)
(-0.00707968 0.00933479 -2.67609e-18)
(0.0171951 0.00207507 -1.45978e-17)
(-0.00389377 0.00248134 2.59091e-18)
(-0.00148387 0.0113123 -1.47174e-17)
(-0.00111594 0.00117076 1.32669e-18)
(-0.00791121 0.033021 -1.52639e-17)
(-0.00535458 0.00360075 9.97493e-18)
(-6.72768e-05 0.000138597 1.02643e-18)
(-0.00363607 0.00493019 9.6946e-18)
(-0.00531661 0.00414965 9.06661e-18)
(-0.00808657 0.00526535 -5.11168e-18)
(-0.000428896 0.000349244 1.52702e-18)
(-0.0615841 0.00314236 6.29335e-17)
(-0.000438134 -0.000507808 2.48536e-18)
(-4.23661e-07 -0.00129362 6.12139e-19)
(-0.0310085 0.00473871 -2.62056e-17)
(0.10209 0.0194014 -6.17628e-18)
(-0.0178361 0.00173363 -9.11181e-18)
(0.00996778 0.0442042 1.54153e-17)
(-0.0173627 0.00156297 2.46145e-17)
(-0.0150381 0.0386143 8.34165e-18)
(-0.0013031 0.000283698 1.61237e-17)
(0.000167411 1.35903e-05 1.08586e-18)
(0.0069901 -0.00654373 4.12082e-17)
(-0.00105888 -0.000121108 5.76298e-18)
(0.00451693 0.00443681 3.66532e-17)
(-0.00110331 -0.000191268 -5.1814e-18)
(-0.000569883 0.000635234 1.28567e-18)
(4.57278e-05 -6.11506e-07 -1.89562e-19)
(0.000187006 1.35089e-05 -1.32761e-18)
(-0.0411056 0.0101891 1.44311e-17)
(-0.000139973 0.00369908 3.28384e-17)
(-0.000566252 0.000613812 1.47819e-18)
(-0.00676438 -0.0020593 -8.34424e-18)
(-0.0813083 -0.0227199 -2.26131e-17)
(-0.000146378 -0.00108285 -1.40462e-18)
(-0.0516046 -0.00258113 -7.27018e-17)
(-0.00908118 -0.00693819 3.58267e-17)
(-0.0436475 -0.00535277 5.40609e-17)
(-0.0186816 -0.0116812 -8.22408e-18)
(0.000288092 2.41141e-05 -4.33734e-20)
(-0.000324674 0.00344424 -3.38877e-17)
(-0.0217432 0.0225651 2.37456e-17)
(-0.0401746 0.0107726 -4.40796e-18)
(-0.0025094 0.0511795 7.65594e-18)
(-0.065807 -0.0145468 -1.67483e-17)
(-0.00077252 0.00112939 -5.0948e-18)
(-0.0035951 0.00489565 8.21678e-19)
(-0.00058607 -0.000167416 -4.17447e-19)
(0.000657504 -2.463e-05 -7.39627e-19)
(-0.0363695 -0.00166626 1.0602e-17)
(-0.0316772 0.0398422 -3.59127e-18)
(0.000488111 -0.000637065 5.87053e-19)
(-0.00217479 -0.00180161 1.04894e-18)
(-0.0301355 0.0401624 -5.75135e-18)
(-0.000161531 0.00024903 -3.36699e-18)
(-0.0433129 -0.00498448 -8.61169e-17)
(0.00051695 -0.000365071 1.33538e-19)
(-0.000170378 0.000266026 -4.64832e-18)
(-0.00407576 0.00243704 3.34117e-19)
(0.0239536 0.0369933 -1.62044e-17)
(-0.00080001 0.000355932 -2.82433e-18)
(-0.016963 0.00136418 2.46521e-18)
(-0.00280583 0.00122107 -9.68551e-18)
(0.00768678 0.0127807 -1.79427e-17)
(-0.00233389 8.89234e-06 -1.48727e-18)
(-0.00938432 -0.00748256 -5.59785e-18)
(0.000307482 0.000176891 -5.91217e-19)
(0.000487936 -0.000391776 -4.40512e-19)
(-0.00266107 0.0051587 1.3123e-17)
(-0.00109743 -0.000166118 -1.4876e-18)
(-0.00215843 -0.00103736 7.782e-18)
(0.00463268 0.00799395 -1.52167e-18)
(0.000695264 2.10758e-05 -4.88591e-19)
(-0.00271922 0.00117914 6.35288e-18)
(-0.0062834 0.0140264 -7.71356e-18)
(0.00010575 7.65489e-06 -9.0197e-19)
(0.0227072 0.00445567 5.7224e-18)
(-0.00185712 0.00045132 -3.8416e-18)
(0.000310031 2.12019e-06 2.03191e-18)
(-0.0013475 -0.00261601 -3.59302e-18)
(-0.000605492 0.000616198 -6.15569e-19)
(-0.00180293 -0.00112601 4.17123e-18)
(-0.00459866 0.00417845 -2.56944e-18)
(-0.00146266 -0.00418873 1.6521e-17)
(-0.00475418 0.00437069 7.83126e-18)
(-0.0031272 0.00854409 2.00873e-17)
(0.000706447 -0.000168717 7.86482e-20)
(-0.0464314 -0.0138184 -7.5629e-17)
(0.000316824 7.6768e-06 -9.74021e-19)
(-0.000878673 -0.000286923 1.68896e-18)
(-0.0173624 0.0288223 -2.83596e-18)
(-0.0291919 0.00597343 3.1722e-17)
(-0.00326646 -0.0145739 -5.11706e-18)
(-0.00688694 0.0133792 -1.6545e-17)
(0.00265222 -0.000212467 -2.00573e-17)
(-0.00414398 0.00128769 -1.95461e-18)
(0.000627797 -0.000646307 -4.23883e-19)
(0.00543879 0.00706426 4.41363e-17)
(-4.78451e-05 0.000458579 3.87761e-18)
(0.00786344 0.0119384 1.35293e-17)
(0.00998851 0.000850145 -4.18624e-17)
(-0.0134173 0.0339212 -1.42374e-17)
(0.000659625 1.31896e-05 3.48399e-19)
(-0.000154234 0.000242107 7.89448e-19)
(0.000569711 -0.000632781 5.15462e-19)
(0.00108516 -5.43334e-05 2.72505e-21)
(-0.0663357 -0.00931193 1.14427e-16)
(-0.00102509 -0.00116733 -7.4581e-19)
(0.000250971 1.59123e-05 1.79173e-18)
(-0.0117594 -0.00968286 8.79107e-17)
(0.0591588 0.0347346 -6.9906e-18)
(-0.00100026 -0.000698758 -9.86556e-19)
(0.0140219 0.0474246 -1.47972e-17)
(0.00492711 -0.000477534 3.98275e-17)
(-0.0144007 0.0329889 1.33251e-17)
(1.13211e-05 0.000404697 1.93083e-18)
(-0.00555856 -0.0105872 7.96509e-17)
(-0.00127689 0.00249957 -7.52723e-18)
(3.49035e-05 0.000517781 -4.01085e-18)
(-0.0486106 -0.00304043 2.40639e-17)
(-0.00154124 0.000419614 8.56563e-18)
(-0.00136195 0.00250962 -2.35249e-17)
(9.19267e-05 -0.0020269 -4.0903e-18)
(0.000267512 -2.86837e-05 -3.5953e-17)
(-0.0121118 0.0450583 3.30019e-19)
(-0.0027487 0.00872063 -1.54505e-17)
(-0.00183631 -0.0010313 -9.52218e-18)
(-0.00575657 0.00341976 -4.90257e-18)
(0.000822772 -0.000851511 -2.05374e-19)
(-0.00578633 0.0101738 1.29452e-17)
(7.24538e-05 0.000394815 6.46992e-19)
(0.00394106 0.00808921 3.19037e-18)
(-0.00180318 0.000487725 2.87198e-18)
(-0.0183516 0.0283485 -3.65584e-19)
(0.00960861 -0.00185075 -2.94623e-18)
(0.00083098 -0.000161544 2.58063e-20)
(-0.000800759 -0.000339231 -3.98319e-18)
(-0.0101062 0.00475758 1.92971e-17)
(-0.000726477 -0.000340181 1.5651e-18)
(-0.00208884 -0.00177959 1.82405e-18)
(0.00481842 0.00712919 -3.52792e-19)
(-0.0786876 -0.0232205 2.01001e-17)
(-0.0763091 -0.00208427 -4.8129e-18)
(-0.000400371 0.000358931 -6.02323e-18)
(0.00129852 -0.00866801 8.76106e-18)
(0.153021 0.0432881 2.68844e-17)
(-0.0145175 -0.000474634 -1.89457e-17)
(-0.000895898 0.000415645 -1.14132e-18)
(0.000166049 -0.000702237 1.9323e-18)
(-0.00104057 -0.000501008 6.64992e-18)
(-0.000901889 -0.00115192 -8.34983e-19)
(-0.000410875 0.000339681 -6.68447e-19)
(0.139261 0.0759138 -1.80159e-17)
(-0.0122254 -0.00954804 1.79298e-17)
(0.03358 0.0359522 2.04849e-18)
(0.0136608 0.00104317 1.33824e-17)
(0.00829219 0.00149933 3.80166e-17)
(0.000485198 -0.00057292 1.33882e-19)
(0.00144697 -7.15156e-05 -6.19439e-19)
(-0.00456381 0.00129738 -4.75943e-18)
(-0.00960724 -0.00405777 1.86052e-17)
(-0.000734095 0.00200402 4.36658e-18)
(-0.00550295 0.00362838 6.65415e-18)
(0.0101035 0.00464023 2.39025e-17)
(-0.00118576 -0.000519115 1.05045e-17)
(-0.00129413 -0.00953772 -7.61658e-17)
(6.58482e-05 -0.00107283 -4.42034e-18)
(0.031211 0.0160693 -2.18275e-18)
(-0.0440793 -0.00612459 2.01399e-17)
(0.00108891 -5.62952e-05 9.90921e-20)
(0.0464374 0.0210687 -1.00103e-18)
(-0.00315467 0.00152852 8.91107e-18)
(-0.000354297 -0.00043577 2.58343e-18)
(-0.00176472 -0.00076516 -6.80651e-18)
(0.00617889 -0.00138344 -5.8956e-18)
(-0.000551198 -0.00202709 1.58119e-18)
(3.96661e-05 0.000497731 4.01159e-18)
(0.0165097 0.00112644 2.17752e-17)
(0.0290827 0.0337088 -6.6969e-18)
(4.36592e-07 9.73931e-05 1.0587e-18)
(0.0163998 0.000706021 3.32659e-17)
(-0.00292544 -0.010664 -9.29772e-17)
(-0.00266897 -0.0138916 2.54613e-18)
(9.42099e-05 0.000398947 -6.0545e-18)
(0.000969703 2.28297e-07 1.26019e-18)
(0.0440247 0.0193249 -1.20121e-18)
(-0.000981908 -0.000672073 -1.24475e-18)
(0.000499712 -0.000612543 -1.32037e-18)
(2.55152e-05 -0.000674255 -1.95023e-18)
(-0.000230913 0.00147589 2.07311e-18)
(-0.00949839 -0.00652649 2.87888e-18)
(0.00635043 -0.00185603 2.20491e-17)
(-0.00107987 -0.00051038 2.29207e-18)
(-0.00110358 -0.00105488 -7.063e-18)
(-0.00236186 0.000204428 1.87234e-19)
(-0.00417133 0.00213386 1.925e-20)
(0.000806219 -0.000823065 -1.58186e-19)
(4.5585e-05 9.13848e-06 4.17503e-18)
(0.0214372 0.0410232 6.59406e-18)
(-0.00453948 -0.0011518 -5.34264e-18)
(0.00144011 -0.00916532 -2.71906e-17)
(0.0455519 0.0890957 4.29211e-18)
(-0.000770207 0.00206472 5.5659e-18)
(-0.000781725 0.000337574 5.26189e-19)
(0.000999601 1.57736e-07 -5.35505e-19)
(0.0304755 0.0168924 1.40186e-18)
(0.0469984 0.0222275 3.32567e-18)
(0.000501345 -0.000648946 -1.39362e-19)
(0.000316634 -1.11571e-05 1.21405e-18)
(0.000466683 -0.000632973 6.45229e-19)
(-0.00106848 0.00117301 -8.11433e-18)
(-0.00395041 0.00128135 -8.65129e-20)
(0.00496206 -0.0256732 7.17948e-17)
(-0.000101392 0.000399203 8.86091e-19)
(-0.000199697 0.000948425 -1.29373e-18)
(0.000566775 -0.000468038 9.45068e-19)
(-0.00413341 0.00915879 4.72367e-18)
(-0.00788348 0.00499427 2.07e-18)
(0.0169407 0.00280066 1.42507e-17)
(-0.0090176 -0.00180203 7.63992e-18)
(-0.000836765 -0.00147646 9.31968e-19)
(0.0261944 0.0330314 1.76634e-17)
(-0.00773477 -0.000139263 7.06534e-18)
(-0.000455957 -0.00082383 8.13868e-19)
(-0.00149882 0.0026302 3.00135e-18)
(-0.0050646 0.0051819 5.64136e-17)
(-0.0126092 0.00612409 -1.00704e-17)
(-0.035525 0.0407972 8.74143e-18)
(0.000444594 9.92586e-05 5.04841e-19)
(-0.00248484 -2.98529e-05 3.14203e-19)
(-0.0708821 -0.0213675 8.3073e-18)
(-0.0767603 -0.0235563 -2.97075e-17)
(-0.00146818 0.000266227 6.79992e-19)
(0.000464963 -0.000559046 4.54264e-19)
(0.0024657 0.00263246 -4.73529e-18)
(-0.000231846 -0.000896532 -4.86187e-19)
(-0.00213335 0.000439648 4.81226e-18)
(-0.0769689 -0.0166506 -1.14461e-17)
(0.0449021 0.110672 -1.08765e-17)
(-0.0284982 0.00834138 7.49674e-18)
(-0.00227104 0.000233075 -1.4035e-18)
(0.00930097 -0.00220802 5.61272e-17)
(-0.000338492 0.000534532 -1.0988e-18)
(-0.00108658 -0.000151835 1.28302e-18)
(-0.000219714 0.000252319 5.59678e-18)
(-0.000684464 -0.000455685 3.08309e-18)
(-0.0197441 0.0137791 -2.67082e-18)
(-0.00105903 -0.000346611 -5.85051e-18)
(0.0152892 0.00120465 -8.17063e-18)
(-0.00740829 0.00587905 -3.49951e-18)
(0.000149062 -0.00197982 2.79358e-18)
(1.07067e-05 0.000102036 2.26776e-18)
(-0.0632255 -0.00392918 2.66687e-17)
(-0.0273302 0.00837652 -6.53518e-18)
(0.0126427 0.02817 -2.98377e-17)
(-0.000331675 0.000529265 2.26412e-18)
(-0.0132502 0.000686719 -8.34457e-18)
(0.000187164 -0.000672401 -7.55773e-19)
(-0.00119568 0.00174054 1.24556e-17)
(-0.000151808 0.000416944 5.02005e-18)
(0.000828172 -0.000145974 3.21933e-20)
(-0.0734193 0.00131383 -2.72154e-17)
(0.0241467 0.0051262 -9.19378e-18)
(-0.0121613 0.0107755 -3.31521e-17)
(-0.00674949 0.00450947 1.97568e-17)
(0.00100928 1.89226e-07 4.96014e-19)
(-0.00217177 0.0318308 2.60555e-18)
(0.0216447 0.0115574 -2.37131e-18)
(0.000400629 -0.000118142 1.9825e-17)
(0.000682849 -3.21606e-05 -1.45521e-18)
(0.040754 0.0922629 2.80607e-19)
(-5.73111e-05 -0.000531667 -8.0254e-19)
(4.38725e-05 -0.0014302 -1.29917e-18)
(0.000668963 -2.50373e-05 6.34087e-19)
(-0.0203247 0.0144939 -1.88928e-18)
(-0.000141238 0.000353895 9.87122e-19)
(-0.00160475 0.00117437 -1.74059e-18)
(-0.00859672 -0.0019403 4.74464e-19)
(-0.0706055 -0.0124443 2.5187e-17)
(0.000167385 -0.000671817 -1.44943e-19)
(-0.0118461 0.0244091 2.42458e-18)
(-0.00182205 0.00394721 7.0707e-18)
(8.10541e-05 0.000409086 5.23766e-18)
(-0.00212949 -0.000946221 4.97313e-18)
(-0.000299156 0.000450806 6.77667e-18)
(0.000317472 -6.5242e-06 -2.36029e-18)
(-0.00118969 -0.000502818 2.82642e-18)
(-0.00446492 0.00891609 3.95833e-18)
(-0.0040768 0.00199974 2.32112e-18)
(-0.000794295 0.00991408 -5.05497e-17)
(5.29944e-05 0.000149276 -2.51082e-17)
(5.68595e-06 0.000564798 5.72417e-18)
(-0.00961028 0.00474608 4.41471e-18)
(0.0730436 0.0249519 -5.06992e-18)
(0.0405908 0.0500278 6.88145e-18)
(-0.0211596 -0.0109815 1.65231e-17)
(-0.0221326 0.0115809 9.76451e-18)
(-0.0008706 0.000457399 -5.37407e-18)
(0.000815667 -0.000137633 1.69472e-20)
(0.000207091 1.21197e-05 -1.37849e-18)
(-0.000629815 0.000636979 -3.04346e-18)
(-0.0291854 0.00703799 4.78103e-18)
(-0.00403724 0.00298856 -7.58605e-19)
(-0.00526037 -0.0012272 5.51526e-18)
(-0.00300011 0.00150966 -1.55082e-17)
(-0.00135648 0.000364749 -6.60711e-18)
(-0.0341064 0.0348778 7.25733e-18)
(-0.00780261 0.0136035 -1.24703e-17)
(-0.000290119 0.000437582 3.75039e-18)
(-0.00110638 -0.000993161 -2.20907e-18)
(0.0045488 -0.000715086 -2.76665e-17)
(-0.000928404 0.000793793 -1.24201e-17)
(0.0406643 0.113513 4.32972e-19)
(0.00113482 1.22782e-06 -7.25105e-20)
(-5.7654e-06 0.00068221 -3.2348e-18)
(0.0985569 0.0502488 -8.90364e-18)
(-0.00175233 0.00161353 5.25803e-18)
(-0.000755797 -0.000430187 5.58451e-19)
(-0.0137112 0.0438618 -2.35022e-17)
(-0.0204154 0.0181194 7.28309e-19)
(-0.00444725 0.00114359 4.76436e-19)
(0.000883712 0.00373154 -1.36197e-17)
(-0.000296072 0.000394381 1.9094e-18)
(-0.000845589 0.000799941 6.60205e-18)
(-0.00338163 0.00895081 -6.19214e-17)
(-0.00474186 0.00504984 -6.35545e-17)
(-0.00194966 0.0030325 -2.12746e-18)
(-0.00227286 -0.00464786 1.93949e-17)
(-0.0450978 0.00374864 -2.18594e-18)
(-0.0357204 0.0342933 -5.07731e-18)
(-0.0715315 -0.000246654 -2.51363e-18)
(-0.0430254 0.00587839 8.12459e-18)
(-0.000394992 0.000975356 -1.13431e-18)
(0.00991607 -0.00564218 9.39577e-18)
(-0.000540452 0.000331477 9.24165e-19)
(-0.0301744 0.00710266 -1.27396e-17)
(-0.00096804 -9.96381e-05 -5.51737e-19)
(-0.00132506 0.00387097 2.36457e-17)
(-0.0131541 8.33331e-05 6.84066e-18)
(-0.0286402 -0.0233931 4.60843e-17)
(-0.00505942 -0.00113769 -6.88999e-18)
(-0.0202337 0.00315206 -1.06774e-17)
(0.00108939 -6.01399e-05 -1.71161e-20)
(0.00194583 0.0521607 -1.49655e-17)
(0.000522605 -0.000408515 -3.12689e-19)
(-0.0100094 0.00466869 7.17064e-18)
(-0.000251357 0.000267989 -5.14896e-18)
(-0.0116382 0.000642974 -2.58846e-17)
(5.72872e-05 0.000473858 7.04591e-19)
(0.051681 0.0171112 1.63999e-18)
(-0.00214925 0.000579951 -1.45497e-18)
(0.000131631 0.000465648 -4.1052e-19)
(-0.000105508 0.000140114 -2.36644e-18)
(0.000664364 -2.54251e-05 3.00373e-19)
(0.0707581 0.0251465 2.57654e-18)
(-0.0422557 0.00459207 -3.73181e-18)
(-0.0351093 0.019497 2.0665e-17)
(-0.00702476 0.0025472 -3.46276e-18)
(-0.00181625 -0.00189611 -5.94407e-18)
(0.00688072 -0.000903425 -1.55339e-17)
(0.0001016 8.84051e-06 -2.95882e-18)
(-2.40183e-05 1.51737e-06 -9.75617e-19)
(0.0298658 0.0232572 1.40271e-17)
(-9.57739e-05 0.000147149 -9.67642e-19)
(2.12928e-07 0.000642611 2.42188e-18)
(0.0106646 0.0039515 -2.23944e-17)
(0.000533826 9.08051e-05 -3.75505e-19)
(-0.00242157 -0.00433812 -1.35397e-17)
(0.00666841 -0.000287248 1.48561e-17)
(-4.13361e-06 0.000636558 6.76094e-19)
(-0.000121342 0.000349756 1.20769e-19)
(-0.00154408 0.00184133 -7.86609e-19)
(-0.000889654 0.000785862 1.14911e-17)
(-0.000990231 -8.93282e-05 1.35441e-17)
(0.0196539 0.0497335 -6.24258e-18)
(-0.00473305 -0.00664357 1.21093e-17)
(-0.00193793 0.00297938 -4.1797e-17)
(-0.00144178 -0.000202952 -5.54539e-18)
(2.6475e-05 0.000579689 1.42297e-18)
(-0.0031588 0.0114455 -1.44827e-17)
(-0.000265974 0.00105548 -4.00834e-18)
(-0.000831794 -0.000240105 2.27453e-19)
(-0.00652976 0.0129882 2.16617e-17)
(-0.0540125 -0.00416083 -5.19608e-17)
(-0.0195296 0.00259087 4.5763e-18)
(0.0581271 0.0209116 6.04753e-19)
(-0.00149688 0.000278223 7.07988e-19)
(-0.000863097 -0.000259362 3.78089e-19)
(-0.0546057 -0.00551624 4.78908e-17)
(-7.33812e-05 -0.00108249 2.77601e-18)
(-0.0751017 0.00039843 -2.24691e-17)
(-0.0111435 0.000677678 3.61547e-17)
(0.000121263 0.000486296 -1.73764e-18)
(0.021583 0.0448461 1.5089e-17)
(0.0267899 0.0352245 -3.12807e-17)
(0.00252834 0.00306337 -3.08416e-18)
(0.00114825 -5.6187e-06 -5.53083e-19)
(-0.00431486 -0.00115938 1.4433e-18)
(0.03922 0.0226126 -8.94063e-18)
(-0.000488954 -0.000449126 -1.49864e-18)
(-0.000257774 -0.000377771 -8.73645e-19)
(-6.63833e-05 -0.00274296 -3.14894e-18)
(-0.000566956 -0.0019519 -4.92215e-19)
(3.32104e-05 -0.00130533 -4.82518e-19)
(0.00122445 -2.27734e-05 -2.00633e-19)
(4.26403e-07 -3.62188e-07 1.24679e-18)
(-0.073758 -0.0138749 3.51904e-17)
(-0.00125703 -0.000334897 4.3166e-18)
(-0.0797628 -0.0214311 -2.45195e-17)
(-9.85842e-05 0.000411346 -9.31132e-18)
(0.0100849 -0.00748134 1.5602e-18)
(-0.0629348 -0.0159176 4.41088e-17)
(7.2254e-05 0.00041458 -1.38356e-18)
(0.000481217 -0.000368357 1.81194e-20)
(-0.00118947 -0.000313012 -4.39735e-18)
(0.000301344 0.000187461 -2.17564e-19)
(-0.000920247 0.000406657 9.61996e-19)
(-0.00063451 0.00142796 9.54476e-18)
(-0.000578752 -0.000139693 -5.40986e-19)
(0.00411187 0.0146031 9.85653e-18)
(-0.00463581 0.00908152 -1.92578e-17)
(0.0009368 -0.000257914 4.05853e-19)
(0.0370542 0.0227974 -6.83803e-18)
(-0.0382088 0.0162495 3.86956e-18)
(-0.00171313 0.00307321 8.55922e-18)
(0.0103783 -0.00510289 1.05178e-17)
(-0.0102024 0.010898 3.25046e-17)
(-0.00124669 0.00179287 -1.38064e-17)
(-0.0043409 -0.00648744 5.80234e-18)
(-0.00146608 9.77792e-05 1.13396e-17)
(0.0183713 0.0214694 -1.91377e-18)
(-0.0012464 -0.000351511 -4.51224e-18)
(-0.0100595 -6.20963e-05 -4.06948e-18)
(-0.000479419 0.000352572 2.0454e-18)
(0.0664695 0.0899477 -9.24984e-19)
(-0.000694859 0.00211481 1.20382e-17)
(-0.00812666 0.0044881 -1.64345e-18)
(-0.00453636 0.0223154 1.46831e-17)
(0.0113426 0.000949982 6.31673e-18)
(-0.00122786 -0.000342264 1.10308e-17)
(-0.000315149 0.000352995 -3.56944e-18)
(0.00276137 0.000489174 1.85891e-17)
(0.000767503 -0.0261743 2.11547e-17)
(-0.00090304 0.000448644 4.41714e-18)
(-0.0124994 -0.000668537 -4.92531e-17)
(-0.000454233 0.000845494 1.22493e-18)
(0.0599926 0.0334802 -3.84835e-18)
(-0.000949021 0.000362723 1.22624e-19)
(-8.45081e-05 -0.00047876 -1.28388e-18)
(0.000662063 -2.60033e-05 5.63895e-19)
(0.000523915 7.44531e-05 -1.36384e-19)
(-0.0308822 0.0192187 -1.17894e-17)
(0.0619772 0.0322952 -1.09588e-19)
(-0.000290851 0.000551519 6.46863e-18)
(-0.0440146 0.0192189 7.40018e-19)
(-0.00219698 0.00158213 8.25564e-18)
(0.0428749 0.0526548 3.77931e-18)
(-0.0412832 0.00536592 1.08774e-18)
(0.0334146 0.0187641 3.09085e-18)
(0.0372159 -0.00637128 2.93692e-17)
(0.000632001 -0.00130577 -3.80202e-19)
(-0.0180246 0.0224225 3.30689e-17)
(-0.016887 0.000544237 2.36679e-18)
(-0.000477483 0.000184393 6.07445e-19)
(-0.00616084 0.00347066 5.50077e-18)
(0.0276048 0.0221189 1.07621e-18)
(0.108838 0.0531352 1.13279e-18)
(-0.000830987 -0.00105709 -4.83924e-19)
(-0.000149668 0.00127295 -1.21394e-17)
(-0.000507459 0.000255482 1.5289e-18)
(0.0014017 -6.50921e-05 -3.14154e-19)
(0.091995 0.01121 1.0281e-17)
(0.00251236 0.0153783 -1.21741e-17)
(-0.0269769 0.021113 -3.56378e-17)
(0.0224636 0.00973029 4.377e-18)
(-0.000289807 0.000657663 -7.15841e-19)
(0.000308163 0.000185873 1.02596e-19)
(3.59743e-05 0.00531572 2.80525e-18)
(3.2549e-05 5.95494e-06 2.79565e-18)
(0.000219206 9.59163e-06 7.85105e-19)
(-0.00059325 0.00141393 -4.14695e-18)
(-0.000147691 -0.0024241 2.04202e-18)
(0.00518927 0.0148795 -1.28319e-17)
(-0.000937693 0.00205995 3.56744e-18)
(-0.00834032 -0.00811843 -6.02503e-18)
(0.00512305 0.0258375 -1.15957e-17)
(-0.00189145 -0.00471344 -6.20099e-18)
(7.92426e-05 0.000489043 -2.09488e-18)
(-0.0016702 0.00157739 -1.44614e-17)
(-0.00126668 -0.00836384 2.87877e-17)
(0.0218215 0.0244467 2.57662e-18)
(-0.00961498 -0.000345442 3.62019e-18)
(-0.0265987 -0.00141533 4.56529e-17)
(0.00191154 0.000219579 -1.95851e-18)
(-0.000308076 0.000575612 -8.55156e-18)
(-0.0418276 0.0191861 3.58175e-18)
(0.065921 0.0237961 3.57779e-18)
(-0.000826328 0.000344008 -8.06999e-20)
(0.000482155 -0.00065473 1.00394e-18)
(-0.00285595 0.0066166 -9.57894e-18)
(-0.0494539 -0.00237365 -3.06762e-17)
(-0.00907736 -0.00808005 1.3109e-17)
(0.000475817 6.69435e-05 3.67792e-19)
(-0.0141475 0.00489973 4.16182e-18)
(0.018531 0.00203491 -3.48251e-18)
(-0.0077187 -0.0264806 -1.60305e-17)
(0.000564931 -0.000431761 3.17129e-19)
(0.00797384 0.000592391 -1.35069e-16)
(0.0159862 0.000990586 5.87697e-17)
(-0.00826861 0.00446384 4.24229e-17)
(-0.00105498 -0.000363371 2.89559e-18)
(-2.1044e-06 0.00033499 1.847e-18)
(-0.0492767 0.00515052 1.69264e-17)
(1.8438e-07 -8.26958e-07 9.63531e-18)
(-0.0279939 0.0217182 1.62013e-17)
(-0.0735484 0.000616752 -1.61979e-17)
(0.0205122 0.00283977 2.18308e-17)
(0.0104316 0.00113577 6.42812e-17)
(-0.0107592 0.0125724 -2.94694e-18)
(0.00621797 0.00845337 -5.71866e-18)
(-0.00389501 0.00933252 -2.08341e-17)
(-0.000496653 0.000622231 6.4672e-18)
(-0.000127946 0.00124845 1.31951e-17)
(-0.0187506 -0.00719731 8.90627e-18)
(0.0256216 0.0777571 -1.12351e-17)
(0.0173898 0.000815477 -2.1019e-17)
(0.0529458 0.103655 3.6313e-18)
(-4.19537e-05 -0.00112338 -1.8497e-18)
(-0.0270372 0.0220168 -8.90084e-18)
(2.40394e-05 4.87441e-06 3.07201e-18)
(0.00282834 -0.000492094 2.70223e-17)
(-0.015371 0.0108948 4.96113e-18)
(-0.000290869 -0.0090811 -7.99031e-17)
(0.000107949 0.000484325 -1.43594e-18)
(-0.00140498 0.00122022 -9.99721e-20)
(-0.0029173 0.0302847 -1.16665e-17)
(0.03388 0.0218999 7.16375e-18)
(-0.0161467 -0.00804678 4.76957e-18)
(0.018764 0.000359464 2.87758e-17)
(-0.000353349 -0.000894331 1.33685e-17)
(-0.00228112 -0.000237131 -2.75812e-18)
(-0.0158905 0.0336979 8.48335e-18)
(-0.000210183 0.000985812 -2.08702e-17)
(0.000165708 -0.000643024 -1.10094e-18)
(-1.86904e-05 0.000235975 -1.94544e-18)
(-0.00184746 -0.00368269 -6.80806e-18)
(-0.0185216 0.00302739 -1.71522e-20)
(-3.33479e-05 0.000539615 -4.4018e-18)
(-0.0148129 0.0100585 -1.04912e-18)
(0.000217406 7.41644e-06 -1.32529e-19)
(0.000796243 3.64737e-06 1.20896e-18)
(0.000359646 -2.05518e-05 -3.85474e-18)
(-0.0136978 0.0242393 -1.55748e-17)
(-0.000235395 0.00107088 -1.35703e-18)
(0.000122397 6.27833e-06 -2.7453e-18)
(-0.000222585 0.0048714 -9.64924e-18)
(0.00133017 0.00267367 -4.67436e-19)
(0.00100928 -0.000267578 -1.01238e-18)
(-0.0736821 0.00110931 3.563e-17)
(-0.000229706 -0.000932856 3.74517e-19)
(0.000692779 -0.000938101 -3.47823e-18)
(0.00183085 -0.001377 -9.49938e-18)
(-0.00217342 0.0028266 4.46995e-18)
(-0.00200483 -0.001911 -5.04972e-19)
(-0.00098432 0.000111618 -1.02065e-18)
(-0.0250822 -0.002797 -4.05792e-17)
(-0.00183437 0.00312355 -1.12724e-20)
(-0.00198212 -0.000829627 4.98228e-18)
(0.0684038 0.0227793 -2.98063e-18)
(-0.00190712 -0.000878959 -8.80263e-19)
(0.0313233 0.0892083 -9.3361e-18)
(-0.000319728 0.00222007 -1.11032e-18)
(0.00349013 0.0156273 -2.2795e-18)
(-0.00442258 0.00350032 5.53042e-17)
(0.0925622 0.00744758 -7.43166e-18)
(0.000444464 -0.000640523 -7.95645e-19)
(0.0214057 0.0212946 5.71906e-18)
(0.0152109 0.0469917 8.55894e-18)
(0.000849688 -6.43473e-05 3.16996e-19)
(-0.0244641 0.00919279 1.63029e-17)
(4.13643e-05 0.000562508 1.50005e-18)
(0.000379674 -2.66393e-05 9.88317e-19)
(-0.00049365 0.00133092 1.684e-18)
(0.000305569 2.93679e-05 1.43236e-20)
(-0.00689688 -0.00350267 3.2536e-17)
(0.0196414 0.0236249 -1.11483e-18)
(0.000531844 -0.000384 -4.90937e-19)
(0.00146369 0.00203986 5.39281e-18)
(0.000671366 -0.00127059 1.69588e-18)
(-0.00017208 0.000229815 2.48565e-17)
(0.0196286 0.079451 9.72695e-18)
(0.000989844 -0.000251571 9.34501e-21)
(-0.0502626 0.00383827 4.30678e-17)
(-0.00119081 0.000366148 -6.51422e-19)
(-0.000251447 -0.000784781 -8.49488e-19)
(-0.000140793 0.000218896 -7.82871e-18)
(-6.04424e-05 0.000236466 1.45127e-18)
(0.0224444 0.00779506 1.72397e-17)
(-0.00246996 0.0052193 4.87322e-18)
(-0.0640725 -0.00155246 -3.08864e-17)
(-0.00173836 -0.00495572 1.08985e-17)
(-0.0460107 -0.0135284 4.51796e-18)
(0.000711828 0.00479091 7.27839e-18)
(-5.50775e-05 0.000555629 -3.58466e-19)
(-0.00508326 0.0323847 -1.33524e-17)
(0.0176679 0.000674336 -5.80576e-17)
(0.0257549 -0.00621033 -3.80592e-17)
(-0.00288682 0.00524709 -3.85677e-18)
(0.0168116 0.00404501 -2.61605e-17)
(-0.0174069 -0.000886822 8.66165e-18)
(-0.00109956 -0.000333508 2.60183e-18)
(0.0225377 0.00651598 4.3211e-17)
(-0.000930347 0.000135764 -1.0854e-19)
(-0.0202226 0.00199167 -2.66591e-17)
(0.000544009 3.9236e-05 -1.80494e-18)
(0.00697561 0.000854289 9.45058e-17)
(-0.000868082 -0.00114386 -4.56258e-19)
(-0.00306735 0.00501763 -8.80188e-18)
(-0.00152823 0.00192578 -2.19657e-18)
(-0.000693544 -0.000398033 -2.30587e-18)
(-0.0899673 -0.0206222 2.27733e-17)
(-9.98073e-05 0.00127919 3.41211e-18)
(0.000241452 7.65626e-06 3.25866e-20)
(-0.00847781 -0.024902 1.73392e-17)
(-0.0011986 0.000401868 1.95126e-18)
(0.000317227 -1.75803e-05 1.94767e-18)
(-0.0040919 0.00335511 1.29967e-18)
(0.00554153 -0.00263024 -5.96819e-19)
(0.023172 0.00812922 -1.26809e-17)
(-0.00934162 -0.0254592 -1.44668e-17)
(0.0673152 0.0223983 -1.40715e-17)
(-0.0631824 -0.00583569 2.79905e-17)
(0.000323132 0.00018215 -8.18352e-19)
(-4.38673e-06 0.000290692 -6.69865e-19)
(-0.0164575 0.00603614 7.0139e-18)
(-9.91107e-05 0.000377818 2.05394e-18)
(-0.0134019 -0.0092479 9.63689e-18)
(-0.0111063 0.0134404 1.09902e-17)
(-0.0010173 -0.0003471 5.85888e-18)
(-8.75496e-06 0.000645642 2.1812e-18)
(-0.00180439 -0.000686296 -1.26476e-18)
(-5.8987e-05 0.000434869 6.38151e-19)
(-0.00024783 -0.000761515 1.13667e-18)
(-0.00291835 -0.000330714 -3.80494e-19)
(-0.0128024 -0.0088553 6.44362e-19)
(-0.00806979 -0.0085098 -3.51189e-17)
(-0.00306395 0.00679874 -5.98047e-18)