/*--------------------------------*- C++ -*----------------------------------*\
| =========                 |                                                 |
| \\      /  F ield         | OpenFOAM: The Open Source CFD Toolbox           |
|  \\    /   O peration     | Version:  v2012                                 |
|   \\  /    A nd           | Website:  www.openfoam.com                      |
|    \\/     M anipulation  |                                                 |
\*---------------------------------------------------------------------------*/
FoamFile
{
    version     2.0;
    format      ascii;
    class       volScalarField;
    location    "350";
    object      nut;
}
// * * * * * * * * * * * * * * * * * * * * * * * * * * * * * * * * * * * * * //

dimensions      [0 2 -1 0 0 0 0];


internalField   nonuniform List<scalar> 
18758
(
0.000103061
0.00262867
0.00671632
0.00818872
0.0119397
0.0134369
0.00112157
0.00671869
0.000313
0.000514804
0.00133589
0.00428834
0.00672086
0.000436567
0.00337426
2.4236e-05
0.00073054
0.00671988
0.00437638
0.00044079
0.00387867
0.0067258
0.00742408
0.000927385
0.000411199
0.00671831
3.55453e-05
0.0117167
0.0077496
0.000124052
0.000567428
0.00579651
0.0067235
0.00239624
0.000374259
0.0067232
0.0067245
0.00329569
0.00272372
0.000615946
0.00313667
0.000483055
0.00673747
0.000615095
0.00018207
0.0067167
0.00758944
0.00117039
0.000618864
0.0067349
0.000243757
0.0087169
0.00671666
0.00147538
0.0127542
0.00149097
0.00672426
3.14658e-05
0.00414547
0.000414222
0.000158509
0.00153609
0.000293191
0.00119679
0.00671671
0.006725
0.000631447
0.00672339
0.00377157
0.00979643
0.010545
0.00193896
0.00673587
1.33774e-05
0.00672773
0.00399985
0.000289213
0.0109864
7.67421e-05
0.0056757
0.00968254
0.000282368
0.000375604
0.0138872
0.000259888
0.000800485
0.00229313
0.000324748
0.000153358
0.00439996
0.0130369
0.00414551
0.00223308
0.000478734
0.0104146
0.00230438
0.000295419
0.00672915
0.0067264
0.00532565
0.000379688
0.0130203
0.000386881
0.000324266
0.0036948
7.31014e-05
0.00354648
0.0106523
0.00180921
0.00173479
0.00203138
7.16056e-06
0.0067181
0.00273021
0.0109152
0.00198597
0.00348829
0.00355503
0.00501434
0.0108041
0.000537936
0.00542045
0.00624433
2.06723e-05
0.000121856
0.000178016
0.00143664
0.000748771
0.00253795
0.00673247
0.000747606
3.16899e-05
0.00115889
0.000152082
2.17526e-05
0.000858165
0.000317067
0.000674739
0.00672623
7.29709e-05
6.90373e-05
5.30676e-05
0.00341882
0.0021823
0.00337712
0.00451568
0.00265374
0.00383721
0.000581927
0.00957027
0.000219295
0.000515165
0.000808234
0.00672579
0.00976855
0.000872446
0.00545437
0.00120016
0.00242844
0.00672622
0.00672421
0.000418817
0.00196906
0.00210115
0.000162355
0.0086746
0.00379248
0.00602804
0.000150481
0.0131949
0.00836253
0.00671991
0.00213019
0.0122591
0.000384186
0.00096504
0.00942771
0.00127108
7.54533e-05
0.00276579
0.00671776
0.00018792
0.000482258
0.00675616
0.00172146
0.000544347
0.00646441
0.00279842
0.00673353
0.00626028
0.000148071
0.000619377
0.0018423
0.000601594
0.000316312
0.000320066
0.000418437
0.000158752
0.00672261
0.00673639
7.9274e-05
0.00124181
0.000386087
0.000354128
0.00672031
0.000340264
0.000377256
0.00672596
0.00380545
0.00054545
0.00671967
0.000323596
0.00222497
0.000369079
8.47609e-05
0.008326
7.94734e-05
2.5526e-05
0.00672209
0.0133747
0.00671971
0.00193393
0.000329144
0.00398486
0.000229214
0.000378455
0.000390816
0.000177457
0.00675285
0.000302398
0.00672515
0.000324517
0.00791238
0.000305491
0.00672121
0.00648429
0.00675265
0.0067168
0.00645504
0.000478155
0.00672218
0.000319627
0.00368436
0.00208253
0.0082657
0.000451987
0.000311348
0.0067233
0.0102264
0.0003378
0.00672275
0.0069662
0.000863533
0.000310284
0.00363113
0.000565851
0.000598196
2.63971e-05
0.000399225
8.73215e-05
0.00678917
0.000419487
0.00672249
0.000365047
0.000612449
0.00031944
0.00156352
0.00672091
0.00209886
5.1304e-05
0.00215081
0.00175824
0.000335901
0.00833665
0.00229771
0.00359561
0.000225431
0.000257369
0.000158776
0.00161191
0.00597443
0.000684512
0.000470144
0.00413907
0.000354867
0.000312566
0.000564113
0.000294448
0.00780874
0.00674772
0.00671604
0.000165268
0.00847556
0.000563101
8.85972e-05
0.000326483
0.000627257
0.0103118
0.00449216
0.00055214
0.0132702
0.00671681
0.00727841
0.000242139
0.00350206
0.000478671
0.000324895
0.00295362
0.0067229
0.00224988
0.000557517
0.00672249
0.00117425
0.0105574
0.000216291
0.00672317
0.00674563
0.000591012
0.00189051
0.00675312
0.0050362
0.00100048
0.000141008
0.000282244
0.000671877
0.000455949
0.000425502
0.000162653
0.00678604
0.00672598
0.000657779
0.000201788
0.000224488
0.00830632
0.000521721
0.00190915
0.00678344
0.000679601
0.00753671
0.00675377
0.00671948
0.00675316
0.000977445
0.000195878
0.000403084
0.00515635
0.00199285
0.00673718
2.42066e-05
5.75834e-05
0.000279499
0.000108269
0.00235497
0.000598318
0.00010936
0.000511825
0.000287271
0.00509198
0.00461262
0.000452813
0.00672034
0.000391595
0.00194811
0.00785539
0.000801951
0.0067476
0.000404295
0.00375437
0.000871824
0.00521356
0.0086943
0.000425755
0.000439137
0.00229317
0.00358339
0.00116349
0.005198
0.00251568
0.000390768
0.00129234
0.00157981
4.28937e-05
0.00359971
0.00672233
0.00441819
0.000452603
0.00029657
0.00331527
0.000691731
0.00600712
0.000534203
0.00492488
0.00672062
0.00328658
0.00432946
6.25899e-05
0.00237543
0.0067253
0.000300583
0.00920782
0.000469001
0.00671845
0.00830614
0.00534571
0.00392078
0.00671792
0.000390833
0.00578926
0.000576472
0.000123899
0.00656274
0.0058403
0.0122341
0.000586084
0.00672303
0.00141168
0.00372939
0.0067196
0.000724773
0.000448982
0.000152813
0.000467835
0.000495123
0.00672317
4.62723e-05
0.00576289
0.00528401
0.0077835
0.000439974
0.0016431
0.00672031
0.00672175
0.00200076
0.000491094
0.000667323
0.00112586
0.00026453
0.000833618
0.000568193
0.000396823
0.00418392
0.000548994
0.000145641
0.0012881
0.00894371
0.0065826
0.0067223
0.00577595
0.000468096
0.00224405
0.000604387
0.000355404
0.00017042
0.00274636
0.00411709
0.00144449
2.35833e-05
0.0055208
0.000196782
0.000228926
0.000437828
0.000482197
0.000407757
0.00041241
0.00178486
0.000297847
0.0029304
0.000410904
0.00151175
0.00242187
0.000707816
0.00131083
0.00129689
0.000538531
0.00671655
0.00110753
0.00673575
0.00293915
0.0049522
7.69879e-05
0.00672226
0.000550746
0.000877495
0.0067219
0.00672576
0.00671794
0.00453394
0.0021305
0.0106062
0.000696707
0.00181958
0.000312869
0.00672582
0.00672616
0.00831072
0.00672608
0.00672266
0.000284414
0.00672022
0.000231146
0.000315472
0.00672274
0.00559115
0.000430999
0.00139517
0.000744766
0.00941398
0.00211563
0.000200131
0.000781832
0.00672304
1.57941e-05
0.00177382
0.00206494
3.22597e-05
0.00231821
0.000532337
0.000511962
0.00088505
0.00203473
0.00393467
0.00429132
0.00292793
8.30653e-05
0.00672188
0.00953141
0.000662865
0.000417027
0.00674345
0.00021329
0.00706345
0.00322805
0.00422908
0.00308618
0.00297168
0.00430866
0.00672914
0.00672633
0.00691921
0.00119136
0.00953542
0.00540715
0.000267251
0.00404919
0.00672245
0.00673421
0.00113345
0.00672215
0.0015277
0.000959642
0.00275615
0.000305812
2.42844e-05
0.00672017
0.00739178
0.012275
0.000234512
0.000278172
9.70655e-05
0.00052772
0.00170777
0.000929366
0.0105527
0.00104285
0.00086838
0.00320913
0.00138308
0.000519791
4.89523e-05
0.000299851
0.00108391
0.00123155
0.00414953
0.000382374
0.000405345
0.00155195
0.000109095
0.00195619
0.00513825
0.00136335
0.00517214
0.00671815
0.0067203
0.0121934
0.00541032
0.00294325
0.000431936
0.000354937
0.00609192
0.00401922
0.000594649
0.000967581
0.00521044
0.0130007
0.000617923
0.00328043
0.000606915
0.00919312
0.00400831
0.0025357
0.00136061
0.0029724
0.00671771
0.00372523
0.000326718
0.0127191
0.00827408
0.0029143
0.00672244
0.000451201
0.00672605
0.00672358
0.00104897
0.00322757
0.000262647
0.000599272
0.000158455
0.0100888
0.000238165
0.00672205
0.000466462
0.000219059
0.00933534
0.000763451
0.000517433
0.000401843
0.00326736
0.000439174
0.00306829
0.00178997
0.00675714
5.07301e-05
0.0136657
0.000153612
0.00672014
0.00319612
0.000300567
0.000446076
0.00673493
0.000679913
0.00199269
0.00210047
0.00120457
0.00672396
0.0103542
0.00672633
0.000367294
0.00480107
0.000288164
0.0014023
0.000409647
0.00764003
0.000427013
0.0024437
0.00147228
0.00486865
0.00705622
0.00146447
0.00852683
0.00432444
0.000334207
0.00672592
0.000351431
0.00043749
0.00021471
0.00672196
0.000659964
0.000274994
0.00798178
0.00570953
0.00112008
0.000485194
0.000417597
0.000300158
0.00183522
0.00676607
0.00672527
0.00244997
0.00054576
0.00672337
0.000443187
0.0067212
0.00673563
0.00671931
0.0116119
0.00164236
0.00672567
0.000466094
0.00043577
0.00672118
0.00198661
0.00406734
0.00679151
0.000374317
0.000210989
0.00182251
0.00145764
0.000418828
0.000198128
0.000382461
0.00286621
0.000418619
0.00792888
0.000536989
0.000312567
0.00166658
0.00240329
0.00675479
0.00918154
0.000690733
0.00671802
0.00720719
0.00672234
0.00671914
0.000583585
0.00671991
0.000151607
0.0106991
0.00673362
0.0016413
0.00504538
0.000600979
0.00694432
0.00671947
0.0134656
0.00108224
0.00369258
0.00672843
0.00672548
0.000290948
6.91728e-05
0.0015944
0.000238273
0.0120864
0.000438502
0.00672323
0.000297363
0.00158882
0.00168354
7.48674e-05
0.000279327
0.000643199
0.000883736
0.000296183
0.00178508
0.000383422
0.00671987
0.000884674
0.00232271
8.44695e-05
0.000409805
0.00243154
0.00737316
0.00132193
0.00672249
0.000904898
0.00110521
0.00671943
0.000634259
0.000294177
0.00031633
0.000477567
0.00071537
0.00779548
0.00672225
0.00672406
0.00452067
0.00672484
0.000314357
0.000394831
0.00143066
0.00672269
0.00039429
0.00672847
0.00382804
0.00109326
0.000288261
0.000167238
4.08698e-05
0.000232371
0.00672235
0.00058846
0.0103255
0.00672068
0.000434617
0.00146701
0.0105171
0.000925282
0.00981124
0.00671987
0.000976693
0.00672587
0.000416574
0.00327109
0.00207956
0.00181593
0.00672033
0.0067897
0.00672129
0.00525001
0.000267873
0.00100575
0.0136999
0.00319126
0.000682543
0.000893849
0.000278956
0.00544668
0.00096664
0.00672622
5.57978e-05
0.00672085
0.0032926
0.000867683
0.00263411
0.00688235
0.00078185
0.000579028
7.41312e-05
0.00117543
0.00529335
0.000286343
0.00671927
0.000893008
0.000971157
0.00672357
0.0101483
0.0118139
0.00672227
0.00234754
0.000698358
0.000466071
7.99456e-05
0.000532037
0.0125558
0.000293865
0.00671959
0.00672981
0.00998286
0.00345593
0.00375196
0.000949439
0.00326668
0.00356796
0.000401769
0.000440579
0.0132487
0.0005071
0.000370965
0.00161326
0.00671977
0.00671559
0.00671889
0.0023025
0.00284689
0.000439935
0.00672272
0.00672543
0.00176986
0.00536829
0.000582951
0.00061529
0.000176319
0.00878308
0.000443646
0.00031748
0.000480632
0.0040648
0.000284201
0.00432467
0.00585319
0.000826145
0.00634523
0.00903857
0.00301798
0.00108608
0.000135854
0.0131531
0.00567103
0.000132234
0.000218897
0.00588172
0.00672034
0.000312354
2.27335e-05
0.000402612
0.00672019
0.00337647
0.000618047
0.0081176
1.93699e-05
9.75761e-05
0.00581073
0.00228241
0.000345036
0.000332372
0.00240799
0.000215197
0.00672253
0.00141762
0.000261218
0.00672047
0.00672287
0.00138832
0.000573751
0.00671955
0.00181449
0.0067371
0.000660599
0.000411703
0.00575076
0.00675143
0.000129396
0.00672511
0.000299226
0.000298902
0.000296741
0.00672276
0.00256936
0.000121565
0.000310031
0.000887982
0.00357067
0.000443718
0.00414624
0.00287899
0.00760509
0.000218355
0.000206362
0.00672301
0.000649419
0.00672217
0.000598673
0.00673521
0.000344163
0.00975914
0.00671904
0.00415315
0.0011618
0.0038293
0.00844345
0.00274089
0.000640137
0.00191458
0.00672307
0.0067354
0.00671988
0.000388504
0.00108359
0.000228897
0.00157408
0.00880982
0.00672965
0.00672978
0.00816143
0.00608248
0.0112253
0.00671859
0.000380491
0.000938631
0.00672815
0.00514382
0.00672206
0.0075011
0.00218142
0.00672376
4.28508e-05
0.000598598
0.00672046
0.000369274
0.000415529
0.00672209
4.31074e-05
0.00671962
0.000320331
0.00964713
0.000560751
0.00672931
0.000488778
0.00048723
0.000297242
0.000619051
0.000509847
0.00704347
0.00109841
0.000431059
0.00672516
0.00675833
0.00672226
0.000956272
0.000427937
0.000800792
0.0046064
0.000916197
0.000632984
0.00307936
0.000349947
0.00644543
0.0067272
0.00133559
0.000158762
0.00672304
0.00276415
0.00672433
0.0034393
0.00672765
3.03213e-05
0.013224
0.00672276
0.00159096
0.00671912
0.000384136
0.00671896
0.00462357
0.000565592
0.00672569
0.00676253
0.0067224
0.000256747
0.00671893
0.00414564
0.0066615
0.00132128
2.49051e-05
0.000140684
0.0133538
0.000134545
0.00672439
0.00672527
0.00055305
0.00477827
0.000450425
0.000420552
0.000565288
0.000577195
0.00381483
0.000435245
0.00136669
0.00672241
0.000283952
0.0096343
0.000251256
0.00671864
0.00796081
0.000699761
0.00179173
0.000687075
0.00048551
0.00672258
0.00676014
0.00678428
0.000569094
0.0067223
0.00551175
0.0132975
4.23648e-05
0.000962327
0.00672519
0.000223982
0.000436006
0.00672193
0.000598835
0.000384882
4.71198e-05
0.000442757
0.00299638
0.00151707
0.000610182
0.00671903
0.000223227
0.00197001
0.000211357
0.000392346
0.000313468
0.00537456
0.000521381
0.0133472
0.00795247
0.000347462
0.000212363
0.00210014
0.00672244
0.00672478
0.00191659
0.000297371
0.00672324
0.000962702
0.000338085
0.000554087
0.00672011
0.00672025
0.00403225
0.00672587
0.000406277
0.00822889
0.000910331
0.00672505
0.00233292
0.000321536
0.00672277
0.000998355
0.00677137
0.000320948
0.0015332
0.00548815
0.0103974
0.00016437
0.0126778
0.00330779
0.00043638
0.0054808
0.00779527
0.0108032
0.00673942
0.000524999
0.000412172
0.00672281
0.00671933
0.000673319
0.00395244
0.00672225
0.000263625
0.000393534
0.00671996
0.000784474
0.00672269
0.0012025
0.00031209
0.00672308
0.0115483
0.000712654
0.00672026
0.000402879
0.000184126
0.000425819
0.00672619
0.000435361
0.00267307
0.0112018
0.00597333
0.00673605
0.00376813
0.00671736
0.0131485
0.00672045
0.0003972
0.00925204
0.00707278
0.00297142
0.00166435
0.00672277
0.00103174
0.000840543
0.00043833
0.00671463
0.00117373
0.00672248
0.00384931
0.000255683
7.09332e-05
0.000258436
0.00671986
0.00216941
0.000338641
0.00227658
0.000224086
0.00672902
0.00581389
0.00944414
0.00672209
0.00673709
0.00502745
0.0134821
0.00533728
0.00653303
0.0123808
0.00121956
0.00712556
0.000951157
0.00671694
0.00671901
0.00207259
0.00211314
0.00672554
0.0104558
0.00794389
0.00671906
0.00838813
0.000287655
0.00486257
0.00305899
7.51639e-05
0.00672455
0.000632792
0.0003857
0.00671998
0.000626366
0.00262794
0.000303376
0.0041115
0.00368325
0.000445972
3.09602e-05
0.000532652
0.00569204
0.00228202
0.00672225
0.000284225
0.00194951
0.00820277
0.00671766
0.00361957
0.000549603
0.00672586
0.000201055
0.00671724
0.00239215
0.00609068
0.000296949
0.000633149
0.000546942
0.000957529
0.00181567
0.00152276
0.000426914
0.000333443
0.00140365
0.00573949
0.00672447
0.00672271
0.0019921
0.00671872
0.000339394
0.000744064
0.000382162
0.00672016
0.000978013
0.00306048
0.00134492
0.00672067
0.000306149
0.00232169
0.00672845
0.00734633
0.0117502
0.0011353
0.00672204
0.00223714
0.000762838
0.00382464
0.000209343
8.57593e-05
0.00794232
0.000937386
0.0085353
0.00273429
0.00436439
0.00671908
0.00802582
0.0048705
0.00672226
6.24815e-05
0.0048969
0.00672354
0.00672228
0.001391
0.0011411
0.00672354
7.99519e-05
0.0075622
0.00154243
0.00671873
0.00202432
0.00735965
0.00679149
0.000501862
0.00672618
0.00671983
0.00425139
0.00672807
0.000413631
0.00383171
0.00443412
0.00568606
0.00672645
0.000437597
0.00672229
0.0047785
0.00333019
0.00556406
0.000331176
0.000634242
0.000207816
0.00151233
0.00329207
0.0067237
0.00672464
0.0091794
0.00481933
0.000441947
0.000133376
0.00929224
0.00671999
0.00672243
0.0100247
0.00672214
0.000165962
0.00032934
0.00216831
0.0114054
0.00864032
0.000296072
0.00188355
0.000838361
0.000436716
0.00673108
0.000354223
0.00672078
0.000232746
0.006723
0.00614915
0.00158937
2.55544e-05
0.000107432
4.24962e-05
0.00672242
0.0095386
0.0067234
0.0121309
0.000480842
0.00671898
0.00673334
0.00555652
0.000409428
0.000143988
0.0126262
0.00078939
0.00585049
0.00671824
0.00489684
0.00184281
6.9247e-05
0.000343333
0.00672266
0.00672275
0.000743496
2.51214e-05
0.00512982
0.000395316
8.62774e-05
0.00526321
0.00159319
0.0010457
0.000427184
6.49864e-05
0.00111564
6.8941e-05
0.00675007
0.00672274
0.00327119
0.000443722
0.000339906
0.00161161
0.00672649
0.00248096
0.000172087
0.000124849
0.010038
0.00672762
0.00302351
0.00589755
0.000424607
0.00671686
0.00813552
0.000324581
0.00672086
0.000665919
0.00718672
0.0015779
0.00672065
0.000421928
0.00672572
0.00272997
0.000335384
0.00413784
0.00672603
0.00672284
7.2038e-05
0.00134814
0.00264168
0.000478582
0.00656162
0.000256776
0.00672546
0.00672818
0.000273721
0.00178379
0.00548594
0.00447793
0.000258043
0.00408956
0.000335723
0.00350477
0.00242201
0.00482862
0.00362606
0.0121264
0.00673641
0.00836437
0.00018246
0.00650959
0.00538509
0.000396981
9.1108e-05
0.00672764
0.000408349
0.0067205
2.17861e-05
0.00671586
0.000578522
0.00292512
0.00672722
0.00889414
0.00294199
0.00357284
0.00145946
0.00735351
0.0067219
0.00672243
0.00578787
0.00602112
0.00677832
0.00672216
0.00219074
0.00672268
0.00672351
0.000509953
0.00672336
0.000445191
0.00675397
7.80527e-05
0.00372269
6.52437e-05
0.00733583
0.00138041
0.000508904
0.00672709
0.00671904
0.00308381
0.00357028
0.00834038
0.00389025
0.00672588
0.00672501
0.00103901
0.00672176
0.00031501
0.000488393
0.00749065
0.0129708
0.00374615
0.00823125
0.00678269
0.00484995
0.00699112
0.0120086
0.000636057
0.00216685
0.000849518
0.00673221
0.00125253
0.000350624
0.000411084
0.000851564
0.00324993
0.00672721
0.00671641
0.00384345
0.000343061
0.00326622
0.00671595
0.000801219
0.00672202
0.00177286
0.00063506
0.00478028
0.00850129
0.000444402
0.000674943
0.00517146
0.000290663
0.00672214
0.00577411
0.00677449
0.00583646
0.00259058
0.00513449
0.000247587
0.00683962
0.000296373
0.000307259
0.00150455
0.000463792
0.00233878
0.00171776
0.00333813
0.00702817
6.86546e-05
0.0130819
6.10086e-05
0.000629329
0.000490277
0.00102185
0.00672714
0.000297261
0.00138691
0.00672269
0.00280637
0.00673937
0.00309205
0.00672491
0.0114338
0.00062429
0.00671909
0.00536938
0.0063648
0.000123128
0.000108172
0.00103724
0.002693
0.00535644
0.00671949
0.00666041
0.00036567
0.000122646
0.00671532
0.00856938
0.000740195
0.0124493
0.00672084
0.00305934
0.000164772
0.0067278
0.00672267
0.00488307
0.00572492
0.0128377
0.00151731
0.00671927
0.00201808
0.00672122
0.0123864
0.000487271
0.00672222
0.000692093
0.00539363
0.00185754
0.0082987
0.006766
0.00672999
0.00672206
0.00677425
0.00672817
0.00362978
0.00671451
0.00200821
0.000445103
0.00050512
0.00671914
0.00233234
0.00144032
0.0112714
0.0016483
0.000213346
0.0100493
0.0124512
0.00483175
0.000779048
0.00672043
0.00581215
0.0015788
0.00062785
0.00829511
0.000444188
0.000441233
0.00265793
0.000988662
0.00672067
0.00761108
0.000172946
0.00664078
0.00379697
0.000298654
0.00121464
0.00671779
0.000712571
0.000702672
0.00672852
0.00942058
0.00672226
0.000820392
0.00672103
0.000410688
0.000310799
0.000336367
0.000599557
0.000462153
0.000654395
0.000813102
0.00104615
0.00676202
0.00960466
0.000362777
0.00672575
0.000304551
0.000546419
0.00123988
0.00627044
0.00185711
0.00672322
0.0067469
0.00405206
0.00984597
0.00110388
0.00672186
0.00237002
0.0067222
0.00672189
0.000647261
0.0108523
0.00203292
0.00232612
0.00625693
7.38166e-05
0.00383034
0.00247921
0.0123144
0.000564048
0.00671706
0.00123446
0.00293777
0.00330802
0.000733167
0.00173856
0.000520603
0.000396942
0.000103404
0.00453336
0.00949584
0.00672069
0.00725368
0.00672584
0.00133241
0.00787366
0.006723
0.00567982
0.00672599
0.00106351
0.000351044
0.00672003
0.00139956
0.00273874
0.000972481
0.000269674
0.00144608
0.00672138
0.00862949
0.00673691
0.000371119
0.000456582
0.000607419
0.00672255
0.00524198
0.00730665
0.00671893
0.00671933
0.00201174
0.000376059
0.000522111
0.000283587
0.000804666
0.00672825
0.001225
0.0024926
0.00161294
0.0127979
0.00672324
0.000313639
0.0116498
0.000330149
0.00615028
0.000337363
0.00676202
0.0067241
2.8923e-05
0.000291009
0.000339038
0.00672491
0.00658861
0.000652315
0.000434657
0.00395504
0.00180713
0.00522586
0.0025849
0.00671908
0.00398121
0.0078739
0.00671712
0.00736957
7.31889e-05
0.000941498
0.00672932
0.00365081
0.00843153
0.00675228
0.0067281
0.00543671
0.00198839
8.83612e-05
7.70067e-05
0.000435317
0.0067225
0.00122452
0.000429001
0.00672757
0.0116775
0.000280712
0.00508673
0.000483939
0.000504337
0.00672203
5.84692e-05
0.00672286
0.000131409
0.00162199
0.00108423
0.00671538
0.00502917
0.000281729
0.00328386
0.0125171
0.000633437
0.00336064
0.00355846
0.00672041
0.00672862
0.0120199
0.00672583
0.000260453
0.00672017
0.00673407
0.000397371
0.00697586
0.00671934
0.00672125
0.00467727
0.00164596
0.000714984
0.000866107
0.00579017
0.00187632
0.00671818
0.000287853
0.013167
0.002045
0.000818919
0.00782763
0.000608998
0.00217594
0.00045584
0.00672999
0.00367207
0.000997096
0.00672224
0.000516234
0.00429448
0.00672935
0.00394941
0.00846929
0.00315154
0.000608563
0.0131066
0.000551523
0.00182469
0.00671942
0.00320502
0.00672594
0.000546191
0.00673997
0.000446225
0.000548477
0.000599587
0.00131616
0.00693468
0.000808578
0.00672452
0.0063924
0.00528933
0.0067213
0.000627504
0.00672036
0.000449915
0.00642664
0.000139967
0.000618114
0.00192798
0.0027577
0.00812635
5.44201e-05
0.00671875
0.000995376
0.00672223
0.0067179
0.00672726
0.000788206
0.00442267
0.00139634
0.00169535
4.90427e-05
0.00372538
0.00064753
0.00672101
0.000149304
0.00580537
0.00240418
0.00124809
0.0131898
0.00313767
0.0007274
0.000777042
0.00672771
0.000986718
0.00572708
0.00306994
0.00672625
0.00672535
0.000940343
0.00672052
0.0067273
0.000513375
0.00110126
6.504e-05
0.00287267
0.00672113
0.00684333
0.00672067
0.0002611
0.00566941
0.00671676
0.000698314
0.00672766
0.0125145
0.00482091
0.000767448
0.00605017
5.464e-05
0.00053238
0.00328096
2.99801e-05
0.00672246
0.000215905
0.00238467
0.000926859
0.00672471
0.00672079
0.000308001
0.000323611
0.00942748
0.000434642
0.000217858
0.000709112
0.00335784
0.000581481
0.00224969
0.0122803
0.00875772
0.00584797
0.00611339
0.00671479
0.00435651
0.00692645
0.0067224
0.00329014
0.00672252
0.000875338
0.00671506
0.00415044
0.00458608
0.00500659
0.000291548
0.000185661
0.000413591
0.00517311
0.00672448
0.00671654
0.00671912
0.0067179
0.00672544
0.00672201
0.010378
0.00843993
0.00838262
0.00120482
0.00884334
0.000408026
0.0129154
0.00873151
0.000437095
0.00672194
0.00195597
8.14053e-05
0.00176237
0.0018721
0.0028541
0.00174747
0.00671698
0.00143297
0.00921361
0.00672345
0.0111583
0.00488229
0.00672191
0.0126375
0.00672855
0.000389372
0.00672303
0.00774411
0.00675577
0.00511741
0.000296247
0.00674276
0.00672274
0.00438264
0.00671809
8.9535e-05
0.00622135
0.000374227
0.00672117
0.00672423
0.00672698
0.00286757
0.000509829
0.00216964
0.0125027
0.00672199
0.00675039
0.000383129
8.06179e-05
0.00237304
0.0119056
0.0103577
0.000884935
0.00848367
0.00672184
0.00353328
0.000495745
0.00675176
0.00860024
0.00832849
0.00671843
0.00199165
0.00535775
0.0022169
0.000538775
0.000652004
0.00672262
0.000540045
0.000219475
0.000503055
0.000836804
0.00672036
0.0025504
0.00616371
0.00672243
0.00601276
0.00671435
0.00672202
0.00055832
0.00278508
0.000460636
0.0120214
0.00672006
0.000201998
0.00403274
0.00367453
0.00252975
0.00672509
0.00672278
0.00672478
0.00672198
0.0067232
0.00170234
0.00306304
0.00298084
0.00672543
0.00205594
0.0127607
0.00297407
0.00218528
0.00673308
0.00672414
0.000457767
0.00643382
0.000419631
0.0128958
0.000280427
0.0125543
0.000601657
0.00354756
0.00566526
0.000733625
0.00571395
0.000350924
0.00117813
0.00672457
0.0054528
0.00256446
0.00674488
0.000323843
0.00539282
0.00674359
0.006477
0.000259727
0.0067192
0.00457231
0.00673892
0.00331364
0.00888622
0.00228568
0.00672199
0.00498749
0.00672276
0.00135119
0.000174717
0.00157697
0.000273467
0.000201303
0.00672371
0.0110508
0.000961997
0.00561761
0.00592637
0.00674682
0.000906422
0.00671957
0.00207418
0.00178209
0.00886182
0.00411647
0.00671996
0.00167098
0.00236101
0.000721985
0.00672819
0.00769497
0.000483895
0.000185257
0.000787362
0.0112429
0.000410478
0.000988364
0.00293625
0.00309781
0.0067218
0.00124449
0.00992339
0.000972914
0.000359848
0.0030273
0.00672028
0.000315611
0.000260319
0.00137597
0.00672679
0.000246484
0.00672866
0.000272173
0.000231738
0.000571811
0.0106858
0.00672115
0.000561123
0.00050515
0.00388482
0.000322732
0.00533423
0.00143049
7.37652e-05
0.000320736
0.00529746
0.00672634
0.0067247
0.000396657
0.00671882
0.00382262
0.00550014
0.00672139
0.00675461
0.000217831
0.00671551
0.000342472
0.00958528
0.00164587
0.00673689
0.00674679
0.000276112
0.000258285
0.00672231
0.00543494
0.000122339
0.00672758
0.00671704
0.0116095
0.00951197
0.00671906
0.000370414
0.000229446
0.00672368
0.00364256
0.00379359
0.000296712
0.00672477
0.00234376
0.0110681
0.00672532
0.000749727
0.00797985
0.000510205
0.00772204
0.00672494
0.000671184
0.0105788
0.00919558
0.00116831
0.000592103
0.00148336
0.000687393
0.002864
0.00530564
0.00953327
0.00626424
0.0028702
0.00317619
0.000528723
0.00442772
0.000307468
0.000963682
0.00282256
0.00675612
0.00672362
0.00571713
0.00451722
0.00671886
0.000427252
0.00989376
0.000441846
0.00672722
0.00672198
0.00145962
0.00111289
0.00118768
0.00672282
0.000652869
0.00651162
0.00671813
0.00432013
0.000704072
0.000356282
0.00672232
0.000537838
0.0017621
0.00105902
0.000448442
0.000422377
0.0105385
0.000454122
0.000163483
0.00602832
0.00671893
0.00421916
0.00142742
0.0133855
0.00102849
0.00050229
0.00672393
0.0086234
0.000639771
0.0067284
0.000806782
0.00193117
0.0097417
0.000403451
0.000802576
0.000192691
0.0004138
0.00672278
0.0067239
0.00672493
0.00128479
0.00880327
0.000768628
0.0067221
0.000273908
0.00485868
0.0133071
0.00513426
0.0132044
0.000843357
0.0126013
0.000641174
0.00014312
0.00429838
0.00672598
0.00671903
0.0108833
0.00453905
0.000702319
0.0055891
0.00671499
0.00349813
0.000319857
0.00512882
0.000563574
0.00672032
0.00511763
0.00628805
0.00111235
0.00526608
0.0060268
0.00672424
0.00144533
0.00159405
0.00184249
0.00382046
0.00437982
0.000565124
0.000627205
0.0023642
0.000277526
0.000207317
3.55345e-05
0.000401448
0.00673766
0.00387413
0.00151103
0.00947605
0.00561402
0.00672126
0.00672936
0.00674079
0.00671505
0.00406847
0.00671824
0.000211975
0.00956197
0.000755742
0.00952313
0.00069966
0.00672409
0.00672228
9.85814e-05
0.00672431
0.00241675
0.00672192
0.00644645
0.00179256
0.00671852
0.00295641
0.00672962
0.00614598
0.0067259
0.00672228
0.00654028
0.0002844
0.00194163
0.00521963
0.000315334
0.00672839
0.00153872
0.000461712
0.000475489
0.000300473
0.00174541
0.0067223
0.00664351
0.00282556
0.000593725
0.00180417
0.00673775
0.000346228
0.00672107
0.0132127
0.00673912
0.00601594
0.0106593
0.000416086
0.00200001
0.006718
0.000356167
0.000258333
0.000361846
0.00712667
0.00671884
0.00673726
0.00674087
0.000132588
0.00124083
0.000875105
0.00672398
0.000814333
0.00676394
0.000296846
0.00672479
0.000132212
0.000561789
0.00411623
0.000941231
0.00228399
0.00161119
0.00290484
0.00591753
0.00241049
0.011399
0.00675011
0.000539656
0.00584764
0.000137787
0.00936683
0.00932605
0.00459014
8.02634e-05
0.00672512
0.000445457
0.00672488
0.00197303
0.000523924
0.000329301
0.000295726
0.00672225
0.000674118
0.00187665
0.00032454
0.000400114
0.0136737
0.00672278
0.00189662
0.00686275
0.000265306
0.00547572
0.00110766
0.0114585
0.000584271
0.00672079
0.00017216
0.00387672
0.00919701
0.00672725
0.00868606
0.0004471
0.00676914
0.000275894
0.00244497
0.00672596
0.0030603
0.000533087
0.00671927
0.00182697
0.00671805
0.00267793
0.000308415
0.000341427
0.00146224
0.00804533
0.00672577
9.42541e-05
0.000329843
0.0021901
0.000930124
0.00138662
0.00320285
0.00672466
0.00899484
0.00811907
0.00331729
0.00675479
0.000635045
0.00672247
0.00988908
0.00672187
0.000476061
0.00799387
0.00315543
8.6045e-05
0.00368094
0.000445545
0.007738
0.000766449
0.00672343
0.00672231
0.0067227
0.0138619
0.000622239
0.000291745
0.0123682
0.00289182
0.00672405
0.00706477
0.000370349
0.000313525
0.00672332
0.00604353
0.00541987
0.000550822
0.00303676
0.000731728
0.00675976
0.00672214
0.00671825
0.00827926
0.00744878
0.000937081
0.000273852
0.0014481
0.000551755
0.00672525
0.00672249
0.000435245
0.0027223
0.0067285
0.000573477
0.000157353
0.00106218
0.0002566
0.00285386
0.000456188
0.0133453
0.0024832
0.00678177
0.00301552
0.013133
0.000322876
0.000144975
0.000420371
0.00632547
0.00497365
6.79766e-05
0.00150015
0.000423005
0.0069929
0.000421017
0.00994174
0.00472261
0.00716132
0.00055728
0.00186221
0.00671967
0.000341876
0.0116309
0.0067222
0.000307649
0.00635323
0.00672228
0.000341923
0.000279097
0.000373994
0.00631137
0.000517951
0.00226304
0.00672235
0.00677283
2.42618e-05
0.00281203
0.000893177
0.00130734
0.00671935
0.00672348
0.00299544
0.00536821
0.00672713
0.000653895
0.000829601
0.000858094
0.00672262
0.000325995
0.0070253
0.00749379
0.00113025
0.00721199
0.000483042
0.000182267
0.000232305
0.00328178
4.67558e-05
0.00023913
0.00673725
0.00643767
0.00186883
0.00138721
0.000336482
0.00841127
0.00672434
0.000595479
0.000253722
0.000255217
0.00386682
0.000318711
0.0100398
0.000324269
0.0091892
0.000485888
0.00877613
0.000589126
0.00603712
0.00246277
0.012499
0.00619065
0.00036844
0.00331131
0.00636634
0.00818635
0.00941181
0.00672128
0.0067172
0.000430868
0.00046075
0.00748877
0.00229725
0.000207238
0.00671772
0.0049193
0.00672435
0.00774125
0.000566983
0.00481196
0.00181671
0.0020163
0.000278364
0.00786355
0.00113067
0.00698953
0.00672489
0.00672426
0.000635071
0.00672308
0.00906614
0.000289402
0.00972381
0.00272241
0.00613708
0.00264658
0.00671527
0.00025919
0.00743393
0.000146544
0.00671763
0.00170254
0.00672121
0.0107868
0.00671495
0.00182818
0.0102375
0.000989466
0.000154482
0.000466613
0.00671705
0.00202639
0.000327406
0.00345947
0.00675662
0.00671815
0.000960034
0.00557397
5.10357e-05
0.00672534
7.47175e-05
0.00567466
0.00672221
0.00733211
0.00529388
0.00682192
0.0046324
0.00672219
0.000362836
0.00352483
0.00673033
0.00672304
0.00242601
0.000526187
0.0009092
0.00671814
0.00817931
0.003248
0.00994037
0.00672024
0.00772308
0.0044474
0.00060797
0.00626648
0.000283068
0.000330836