/*--------------------------------*- C++ -*----------------------------------*\
| =========                 |                                                 |
| \\      /  F ield         | OpenFOAM: The Open Source CFD Toolbox           |
|  \\    /   O peration     | Version:  v2012                                 |
|   \\  /    A nd           | Website:  www.openfoam.com                      |
|    \\/     M anipulation  |                                                 |
\*---------------------------------------------------------------------------*/
FoamFile
{
    version     2.0;
    format      ascii;
    class       pointVectorField;
    location    "350";
    object      pointDisplacement;
}
// * * * * * * * * * * * * * * * * * * * * * * * * * * * * * * * * * * * * * //

dimensions      [0 1 0 0 0 0 0];


internalField   nonuniform List<vector> 
19220
(
(0 0 0)
(0 3.59013e-06 0)
(0 3.59013e-06 0)
(0 0 0)
(0 3.59013e-06 0)
(0 3.59013e-06 0)
(0 0 0)
(0 0 0)
(0 0 0)
(0 0 0)
(0 0 0)
(0 0 0)
(0 0 0)
(0 0 0)
(0 0 0)
(0 0 0)
(0 0 0)
(0 0 0)
(0 0 0)
(0 0 0)
(0 0 0)
(0 0 0)
(0 0 0)
(0 0 0)
(0 0 0)
(0 0 0)
(0 0 0)
(0 0 0)
(0 0 0)
(0 0 0)
(0 0 0)
(0 0 0)
(0 0 0)
(0 0 0)
(0 0 0)
(0 0 0)
(0 0 0)
(0 0 0)
(0 0 0)
(0 0 0)
(0 0 0)
(0 0 0)
(0 0 0)
(0 0 0)
(0 0 0)
(0 0 0)
(0 0 0)
(0 0 0)
(0 0 0)
(0 0 0)
(0 0 0)
(0 0 0)
(0 0 0)
(0 0 0)
(0 0 0)
(0 0 0)
(0 0 0)
(0 0 0)
(0 0 0)
(0 0 0)
(0 0 0)
(0 0 0)
(0 0 0)
(0 0 0)
(0 0 0)
(0 0 0)
(0 0 0)
(0 0 0)
(0 0 0)
(0 0 0)
(0 0 0)
(0 0 0)
(0 0 0)
(0 0 0)
(0 0 0)
(0 0 0)
(0 0 0)
(0 0 0)
(0 0 0)
(0 0 0)
(0 0 0)
(0 0 0)
(0 0 0)
(0 0 0)
(0 0 0)
(0 0 0)
(0 0 0)
(0 0 0)
(0 0 0)
(0 0 0)
(0 0 0)
(0 0 0)
(0 0 0)
(0 0 0)
(0 0 0)
(0 3.59013e-06 0)
(0 3.59013e-06 0)
(0 3.59013e-06 0)
(0 3.59013e-06 0)
(0 3.59013e-06 0)
(0 3.59013e-06 0)
(0 3.59013e-06 0)
(0 3.59013e-06 0)
(0 3.59013e-06 0)
(0 3.59013e-06 0)
(0 3.59013e-06 0)
(0 3.59013e-06 0)
(0 3.59013e-06 0)
(0 3.59013e-06 0)
(0 3.59013e-06 0)
(0 3.59013e-06 0)
(0 3.59013e-06 0)
(0 3.59013e-06 0)
(0 3.59013e-06 0)
(0 3.59013e-06 0)
(0 3.59013e-06 0)
(0 3.59013e-06 0)
(0 3.59013e-06 0)
(0 3.59013e-06 0)
(0 3.59013e-06 0)
(0 3.59013e-06 0)
(0 3.59013e-06 0)
(0 3.59013e-06 0)
(0 3.59013e-06 0)
(0 3.59013e-06 0)
(0 3.59013e-06 0)
(0 3.59013e-06 0)
(0 3.59013e-06 0)
(0 3.59013e-06 0)
(0 3.59013e-06 0)
(0 3.59013e-06 0)
(0 3.59013e-06 0)
(0 3.59013e-06 0)
(0 3.59013e-06 0)
(0 3.59013e-06 0)
(0 3.59013e-06 0)
(0 3.59013e-06 0)
(0 3.59013e-06 0)
(0 3.59013e-06 0)
(0 3.59013e-06 0)
(0 3.59013e-06 0)
(0 3.59013e-06 0)
(0 3.59013e-06 0)
(0 3.59013e-06 0)
(0 3.59013e-06 0)
(0 3.59013e-06 0)
(0 3.59013e-06 0)
(0 3.59013e-06 0)
(0 3.59013e-06 0)
(0 3.59013e-06 0)
(0 3.59013e-06 0)
(0 3.59013e-06 0)
(0 3.59013e-06 0)
(0 3.59013e-06 0)
(0 3.59013e-06 0)
(0 3.59013e-06 0)
(0 3.59013e-06 0)
(0 3.59013e-06 0)
(0 3.59013e-06 0)
(0 3.59013e-06 0)
(0 3.59013e-06 0)
(0 3.59013e-06 0)
(0 3.59013e-06 0)
(0 3.59013e-06 0)
(0 3.59013e-06 0)
(0 3.59013e-06 0)
(0 3.59013e-06 0)
(0 3.59013e-06 0)
(0 3.59013e-06 0)
(0 3.59013e-06 0)
(0 3.59013e-06 0)
(0 3.59013e-06 0)
(0 3.59013e-06 0)
(0 3.59013e-06 0)
(0 3.59013e-06 0)
(0 3.59013e-06 0)
(0 3.59013e-06 0)
(0 3.59013e-06 0)
(0 3.59013e-06 0)
(0 3.59013e-06 0)
(0 3.59013e-06 0)
(0 3.59013e-06 0)
(0 3.59013e-06 0)
(0 3.59013e-06 0)
(0 3.59013e-06 0)
(0 3.59013e-06 0)
(0 3.59013e-06 0)
(0 3.59013e-06 0)
(0 3.59013e-06 0)
(0 3.59013e-06 0)
(0 3.59013e-06 0)
(0 3.59013e-06 0)
(0 3.59013e-06 0)
(0 3.59013e-06 0)
(0 3.59013e-06 0)
(0 3.59013e-06 0)
(0 3.59013e-06 0)
(0 3.59013e-06 0)
(0 3.59013e-06 0)
(0 3.59013e-06 0)
(0 3.59013e-06 0)
(0 3.59013e-06 0)
(0 3.59013e-06 0)
(0 3.59013e-06 0)
(0 3.59013e-06 0)
(0 3.59013e-06 0)
(0 3.59013e-06 0)
(0 3.59013e-06 0)
(0 3.59013e-06 0)
(0 3.59013e-06 0)
(0 3.59013e-06 0)
(0 3.59013e-06 0)
(0 3.59013e-06 0)
(0 3.59013e-06 0)
(0 3.59013e-06 0)
(0 3.59013e-06 0)
(0 3.59013e-06 0)
(0 3.59013e-06 0)
(0 3.59013e-06 0)
(0 3.59013e-06 0)
(0 3.59013e-06 0)
(0 3.59013e-06 0)
(0 3.59013e-06 0)
(0 0 0)
(0 0 0)
(0 0 0)
(0 0 0)
(0 0 0)
(0 0 0)
(0 0 0)
(0 0 0)
(0 0 0)
(0 0 0)
(0 0 0)
(0 0 0)
(0 0 0)
(0 0 0)
(0 0 0)
(0 0 0)
(0 0 0)
(0 0 0)
(0 0 0)
(0 0 0)
(0 0 0)
(0 0 0)
(0 0 0)
(0 0 0)
(0 0 0)
(0 0 0)
(0 0 0)
(0 0 0)
(0 0 0)
(0 0 0)
(0 0 0)
(0 0 0)
(0 0 0)
(0 0 0)
(0 0 0)
(0 0 0)
(0 0 0)
(0 0 0)
(0 0 0)
(0 0 0)
(0 0 0)
(0 0 0)
(0 0 0)
(0 0 0)
(0 0 0)
(0 0 0)
(0 0 0)
(0 0 0)
(0 0 0)
(0 0 0)
(0 0 0)
(0 0 0)
(0 0 0)
(0 0 0)
(0 0 0)
(0 0 0)
(0 0 0)
(0 0 0)
(0 0 0)
(0 0 0)
(0 0 0)
(0 0 0)
(0 0 0)
(0 0 0)
(0 0 0)
(0 0 0)
(0 0 0)
(0 0 0)
(0 0 0)
(0 0 0)
(0 0 0)
(0 0 0)
(0 0 0)
(0 0 0)
(0 0 0)
(0 0 0)
(0 0 0)
(0 0 0)
(0 0 0)
(0 0 0)
(0 0 0)
(0 0 0)
(0 0 0)
(0 0 0)
(0 0 0)
(0 0 0)
(0 0 0)
(0 0 0)
(0 0 0)
(0 3.59013e-06 0)
(0 3.59013e-06 0)
(0 3.59013e-06 0)
(0 3.59013e-06 0)
(0 3.59013e-06 0)
(0 3.59013e-06 0)
(0 3.59013e-06 0)
(0 3.59013e-06 0)
(0 3.59013e-06 0)
(0 3.59013e-06 0)
(0 3.59013e-06 0)
(0 3.59013e-06 0)
(0 3.59013e-06 0)
(0 3.59013e-06 0)
(0 3.59013e-06 0)
(0 3.59013e-06 0)
(0 3.59013e-06 0)
(0 3.59013e-06 0)
(0 3.59013e-06 0)
(0 3.59013e-06 0)
(0 3.59013e-06 0)
(0 3.59013e-06 0)
(0 3.59013e-06 0)
(0 3.59013e-06 0)
(0 3.59013e-06 0)
(0 3.59013e-06 0)
(0 3.59013e-06 0)
(0 3.59013e-06 0)
(0 3.59013e-06 0)
(0 3.59013e-06 0)
(0 3.59013e-06 0)
(0 3.59013e-06 0)
(0 3.59013e-06 0)
(0 3.59013e-06 0)
(0 3.59013e-06 0)
(0 3.59013e-06 0)
(0 3.59013e-06 0)
(0 3.59013e-06 0)
(0 3.59013e-06 0)
(0 3.59013e-06 0)
(0 3.59013e-06 0)
(0 3.59013e-06 0)
(0 3.59013e-06 0)
(0 3.59013e-06 0)
(0 3.59013e-06 0)
(0 3.59013e-06 0)
(0 3.59013e-06 0)
(0 3.59013e-06 0)
(0 3.59013e-06 0)
(0 3.59013e-06 0)
(0 3.59013e-06 0)
(0 3.59013e-06 0)
(0 3.59013e-06 0)
(0 3.59013e-06 0)
(0 3.59013e-06 0)
(0 3.59013e-06 0)
(0 3.59013e-06 0)
(0 3.59013e-06 0)
(0 3.59013e-06 0)
(0 3.59013e-06 0)
(0 3.59013e-06 0)
(0 3.59013e-06 0)
(0 3.59013e-06 0)
(0 3.59013e-06 0)
(0 3.59013e-06 0)
(0 3.59013e-06 0)
(0 3.59013e-06 0)
(0 3.59013e-06 0)
(0 3.59013e-06 0)
(0 3.59013e-06 0)
(0 3.59013e-06 0)
(0 3.59013e-06 0)
(0 3.59013e-06 0)
(0 3.59013e-06 0)
(0 3.59013e-06 0)
(0 3.59013e-06 0)
(0 3.59013e-06 0)
(0 3.59013e-06 0)
(0 3.59013e-06 0)
(0 3.59013e-06 0)
(0 3.59013e-06 0)
(0 3.59013e-06 0)
(0 3.59013e-06 0)
(0 3.59013e-06 0)
(0 3.59013e-06 0)
(0 3.59013e-06 0)
(0 3.59013e-06 0)
(0 3.59013e-06 0)
(0 3.59013e-06 0)
(0 3.59013e-06 0)
(0 3.59013e-06 0)
(0 3.59013e-06 0)
(0 3.59013e-06 0)
(0 3.59013e-06 0)
(0 3.59013e-06 0)
(0 3.59013e-06 0)
(0 3.59013e-06 0)
(0 3.59013e-06 0)
(0 3.59013e-06 0)
(0 3.59013e-06 0)
(0 3.59013e-06 0)
(0 3.59013e-06 0)
(0 3.59013e-06 0)
(0 3.59013e-06 0)
(0 3.59013e-06 0)
(0 3.59013e-06 0)
(0 3.59013e-06 0)
(0 3.59013e-06 0)
(0 3.59013e-06 0)
(0 3.59013e-06 0)
(0 3.59013e-06 0)
(0 3.59013e-06 0)
(0 3.59013e-06 0)
(0 3.59013e-06 0)
(0 3.59013e-06 0)
(0 3.59013e-06 0)
(0 3.59013e-06 0)
(0 3.59013e-06 0)
(0 3.59013e-06 0)
(0 3.59013e-06 0)
(0 3.59013e-06 0)
(0 3.59013e-06 0)
(0 3.59013e-06 0)
(0 3.59013e-06 0)
(0 3.59013e-06 0)
(0 3.59013e-06 0)
(0 3.59013e-06 0)
(0 3.59013e-06 0)
(0 3.59737e-06 0)
(0 3.5901e-06 0)
(0 3.59007e-06 0)
(0 3.59012e-06 0)
(0 3.59018e-06 0)
(0 3.59022e-06 0)
(0 3.5996e-06 0)
(0 3.59075e-06 0)
(0 3.59008e-06 0)
(0 3.59007e-06 0)
(0 3.59017e-06 0)
(0 3.60159e-06 0)
(0 3.59608e-06 0)
(0 3.59038e-06 0)
(0 2.71461e-06 0)
(0 5.31429e-06 0)
(0 7.14942e-06 0)
(0 3.39815e-06 0)
(0 -6.65929e-07 0)
(0 3.15023e-06 0)
(0 2.11324e-06 0)
(0 3.18012e-06 0)
(0 4.26636e-06 0)
(0 3.59024e-06 0)
(0 3.60136e-06 0)
(0 3.58993e-06 0)
(0 3.5902e-06 0)
(0 3.60314e-06 0)
(0 3.592e-06 0)
(0 3.59145e-06 0)
(0 3.59104e-06 0)
(0 3.59053e-06 0)
(0 3.5901e-06 0)
(0 2.87807e-06 0)
(0 2.40989e-06 0)
(0 1.3052e-06 0)
(0 3.59117e-06 0)
(0 3.59123e-06 0)
(0 3.59002e-06 0)
(0 2.85254e-06 0)
(0 1.79663e-06 0)
(0 2.3606e-06 0)
(0 2.74855e-06 0)
(0 1.55911e-06 0)
(0 4.53903e-06 0)
(0 5.92968e-06 0)
(0 6.009e-06 0)
(0 1.79369e-06 0)
(0 3.14203e-06 0)
(0 3.58977e-06 0)
(0 1.44818e-06 0)
(0 1.04838e-06 0)
(0 3.42583e-07 0)
(0 2.94156e-06 0)
(0 -1.95589e-06 0)
(0 2.73945e-06 0)
(0 3.99987e-06 0)
(0 1.22955e-06 0)
(0 3.3361e-06 0)
(0 2.08993e-06 0)
(0 1.08376e-06 0)
(0 6.70789e-07 0)
(0 1.76628e-06 0)
(0 3.63548e-06 0)
(0 4.34495e-06 0)
(0 5.16369e-06 0)
(0 5.81518e-06 0)
(0 6.30429e-06 0)
(0 6.77326e-06 0)
(0 6.88029e-06 0)
(0 7.02646e-06 0)
(0 6.80919e-06 0)
(0 6.49237e-06 0)
(0 6.11961e-06 0)
(0 6.18399e-06 0)
(0 5.04601e-06 0)
(0 5.017e-06 0)
(0 4.04667e-06 0)
(0 3.942e-06 0)
(0 3.2618e-06 0)
(0 3.21207e-06 0)
(0 2.71032e-06 0)
(0 2.60195e-06 0)
(0 2.11697e-06 0)
(0 1.88578e-06 0)
(0 1.32921e-06 0)
(0 1.08782e-06 0)
(0 4.5229e-07 0)
(0 8.19664e-07 0)
(0 -4.1982e-08 0)
(0 3.16177e-07 0)
(0 -6.51346e-07 0)
(0 -4.03577e-07 0)
(0 -1.55312e-06 0)
(0 -1.47126e-06 0)
(0 -2.82486e-06 0)
(0 -2.99984e-06 0)
(0 -4.42027e-06 0)
(0 -4.77919e-06 0)
(0 -6.21126e-06 0)
(0 -6.6656e-06 0)
(0 -5.8239e-06 0)
(0 -7.60498e-06 0)
(0 -7.29516e-06 0)
(0 -8.82749e-06 0)
(0 -8.25653e-06 0)
(0 -9.67593e-06 0)
(0 -8.82338e-06 0)
(0 -1.00129e-05 0)
(0 -9.06302e-06 0)
(0 -1.00212e-05 0)
(0 -9.04118e-06 0)
(0 -9.87022e-06 0)
(0 -1.0663e-05 0)
(0 -9.03836e-06 0)
(0 -9.75965e-06 0)
(0 -9.14634e-06 0)
(0 -9.776e-06 0)
(0 -9.21996e-06 0)
(0 -9.75413e-06 0)
(0 -9.18577e-06 0)
(0 -9.69606e-06 0)
(0 -9.17651e-06 0)
(0 -9.68439e-06 0)
(0 -9.26687e-06 0)
(0 -9.76579e-06 0)
(0 -1.00574e-05 0)
(0 -9.4936e-06 0)
(0 -9.98569e-06 0)
(0 -9.77577e-06 0)
(0 -1.02435e-05 0)
(0 -9.93027e-06 0)
(0 -1.03966e-05 0)
(0 -9.94994e-06 0)
(0 -1.04304e-05 0)
(0 -9.95629e-06 0)
(0 -1.04377e-05 0)
(0 -9.98584e-06 0)
(0 -1.03926e-05 0)
(0 -9.98372e-06 0)
(0 -1.0345e-05 0)
(0 -9.91769e-06 0)
(0 -1.02496e-05 0)
(0 -9.79212e-06 0)
(0 -1.00792e-05 0)
(0 -9.57902e-06 0)
(0 -9.84448e-06 0)
(0 -9.29323e-06 0)
(0 -9.55374e-06 0)
(0 -9.00316e-06 0)
(0 -9.22345e-06 0)
(0 -1.08058e-05 0)
(0 -8.71743e-06 0)
(0 -8.90354e-06 0)
(0 -9.46418e-06 0)
(0 -8.43163e-06 0)
(0 -8.60066e-06 0)
(0 -8.13845e-06 0)
(0 -8.39168e-06 0)
(0 -7.91978e-06 0)
(0 -8.27228e-06 0)
(0 -7.81324e-06 0)
(0 -8.20276e-06 0)
(0 -7.76093e-06 0)
(0 -8.15748e-06 0)
(0 -7.4762e-06 0)
(0 -7.77563e-06 0)
(0 -8.15372e-06 0)
(0 -7.82487e-06 0)
(0 -8.16347e-06 0)
(0 -7.84158e-06 0)
(0 -8.20868e-06 0)
(0 -7.87571e-06 0)
(0 -8.28723e-06 0)
(0 -9.40271e-06 0)
(0 -7.95692e-06 0)
(0 -8.38974e-06 0)
(0 -7.37703e-06 0)
(0 -1.00585e-05 0)
(0 -8.07397e-06 0)
(0 -8.50557e-06 0)
(0 -8.24056e-06 0)
(0 -8.71022e-06 0)
(0 -8.50137e-06 0)
(0 -9.03328e-06 0)
(0 -9.19728e-06 0)
(0 -9.55707e-06 0)
(0 -9.66195e-06 0)
(0 -9.9899e-06 0)
(0 -9.92511e-06 0)
(0 -1.03533e-05 0)
(0 -1.03393e-05 0)
(0 -1.07367e-05 0)
(0 -1.07838e-05 0)
(0 -1.1243e-05 0)
(0 -1.11366e-05 0)
(0 -1.17332e-05 0)
(0 -1.18634e-05 0)
(0 -1.24239e-05 0)
(0 -1.26074e-05 0)
(0 -1.32388e-05 0)
(0 -1.29648e-05 0)
(0 -1.38503e-05 0)
(0 -1.35063e-05 0)
(0 -1.4444e-05 0)
(0 -1.48991e-05 0)
(0 -1.55657e-05 0)
(0 -1.60819e-05 0)
(0 -1.67957e-05 0)
(0 -1.61989e-05 0)
(0 -1.73997e-05 0)
(0 -1.80027e-05 0)
(0 -1.86237e-05 0)
(0 -1.7776e-05 0)
(0 -1.92233e-05 0)
(0 -1.99133e-05 0)
(0 -2.06382e-05 0)
(0 -1.98312e-05 0)
(0 -2.13361e-05 0)
(0 -2.21732e-05 0)
(0 -2.29966e-05 0)
(0 -2.20477e-05 0)
(0 -2.38444e-05 0)
(0 -2.48311e-05 0)
(0 -2.57519e-05 0)
(0 -2.67692e-05 0)
(0 -2.77168e-05 0)
(0 -2.66474e-05 0)
(0 -2.86815e-05 0)
(0 -2.97479e-05 0)
(0 -3.08054e-05 0)
(0 -2.96413e-05 0)
(0 -3.18785e-05 0)
(0 -3.30944e-05 0)
(0 -3.43224e-05 0)
(0 -3.5601e-05 0)
(0 -3.6961e-05 0)
(0 -3.56622e-05 0)
(0 -3.83144e-05 0)
(0 -3.96968e-05 0)
(0 -4.10819e-05 0)
(0 -3.95378e-05 0)
(0 -4.23854e-05 0)
(0 -4.39097e-05 0)
(0 -4.53222e-05 0)
(0 -4.34525e-05 0)
(0 -4.67858e-05 0)
(0 -4.84654e-05 0)
(0 -5.00188e-05 0)
(0 -4.80304e-05 0)
(0 -5.15205e-05 0)
(0 -5.34903e-05 0)
(0 -5.48812e-05 0)
(0 -5.29216e-05 0)
(0 -5.62382e-05 0)
(0 -5.81848e-05 0)
(0 -5.96506e-05 0)
(0 -5.75686e-05 0)
(0 -6.11208e-05 0)
(0 -6.31303e-05 0)
(0 -6.25664e-05 0)
(0 -8.70368e-06 0)
(0 -8.60038e-06 0)
(0 -5.17345e-06 0)
(0 -7.14148e-06 0)
(0 -5.62654e-06 0)
(0 -7.52994e-06 0)
(0 -6.05016e-06 0)
(0 -7.70176e-06 0)
(0 -6.35617e-06 0)
(0 -7.62253e-06 0)
(0 -6.46313e-06 0)
(0 -7.51634e-06 0)
(0 -6.51535e-06 0)
(0 -8.46114e-06 0)
(0 -1.20699e-06 0)
(0 -1.56853e-06 0)
(0 -1.20451e-06 0)
(0 -1.56301e-06 0)
(0 -1.17876e-06 0)
(0 -1.5552e-06 0)
(0 -1.14614e-06 0)
(0 -7.85996e-07 0)
(0 -7.57539e-07 0)
(0 -1.12673e-06 0)
(0 -7.5832e-07 0)
(0 -1.13272e-06 0)
(0 -7.82089e-07 0)
(0 -1.16653e-06 0)
(0 -8.21166e-07 0)
(0 -4.23768e-07 0)
(0 -1.2257e-06 0)
(0 -8.73508e-07 0)
(0 -4.91512e-07 0)
(0 -5.43118e-07 0)
(0 -9.43633e-07 0)
(0 -6.19903e-07 0)
(0 -1.86667e-07 0)
(0 -1.03946e-06 0)
(0 -7.36563e-07 0)
(0 -1.17781e-06 0)
(0 -8.88138e-07 0)
(0 -1.34517e-06 0)
(0 -1.04771e-06 0)
(0 -6.09818e-07 0)
(0 -7.64203e-07 0)
(0 -3.49368e-07 0)
(0 -5.14242e-07 0)
(0 -1.25001e-07 0)
(0 -3.03836e-07 0)
(0 6.78747e-08 0)
(0 -1.35002e-07 0)
(0 2.31204e-07 0)
(0 1.83945e-08 0)
(0 3.75232e-07 0)
(0 1.69713e-07 0)
(0 5.19357e-07 0)
(0 2.93662e-07 0)
(0 6.50816e-07 0)
(0 4.12998e-07 0)
(0 7.77447e-07 0)
(0 5.44097e-07 0)
(0 8.99028e-07 0)
(0 6.661e-07 0)
(0 1.00144e-06 0)
(0 7.67221e-07 0)
(0 1.08057e-06 0)
(0 8.41267e-07 0)
(0 1.15115e-06 0)
(0 8.94095e-07 0)
(0 1.20569e-06 0)
(0 9.3127e-07 0)
(0 1.24685e-06 0)
(0 9.74537e-07 0)
(0 1.2871e-06 0)
(0 1.01962e-06 0)
(0 1.30858e-06 0)
(0 1.03845e-06 0)
(0 1.31113e-06 0)
(0 1.03261e-06 0)
(0 1.29819e-06 0)
(0 9.93062e-07 0)
(0 1.27259e-06 0)
(0 9.53815e-07 0)
(0 1.24108e-06 0)
(0 9.29626e-07 0)
(0 1.1937e-06 0)
(0 8.3793e-07 0)
(0 1.13458e-06 0)
(0 8.23117e-07 0)
(0 1.07045e-06 0)
(0 7.51602e-07 0)
(0 9.85261e-07 0)
(0 6.64592e-07 0)
(0 8.89561e-07 0)
(0 5.74347e-07 0)
(0 7.8303e-07 0)
(0 4.6272e-07 0)
(0 6.67898e-07 0)
(0 3.31095e-07 0)
(0 5.49871e-07 0)
(0 1.86794e-07 0)
(0 4.19792e-07 0)
(0 3.68792e-08 0)
(0 2.74942e-07 0)
(0 -1.18847e-07 0)
(0 1.17566e-07 0)
(0 -2.8519e-07 0)
(0 -6.58122e-08 0)
(0 -4.93581e-07 0)
(0 -2.78322e-07 0)
(0 -7.40291e-07 0)
(0 -5.11608e-07 0)
(0 -9.97828e-07 0)
(0 -7.66278e-07 0)
(0 -1.27872e-06 0)
(0 -1.04302e-06 0)
(0 -1.58363e-06 0)
(0 -1.34091e-06 0)
(0 -1.91052e-06 0)
(0 -1.66157e-06 0)
(0 -2.24891e-06 0)
(0 -2.00547e-06 0)
(0 -2.62775e-06 0)
(0 -2.37422e-06 0)
(0 -3.03369e-06 0)
(0 -2.76626e-06 0)
(0 -3.47019e-06 0)
(0 -3.19984e-06 0)
(0 -3.95425e-06 0)
(0 -3.70877e-06 0)
(0 -4.46656e-06 0)
(0 -4.22492e-06 0)
(0 -5.01585e-06 0)
(0 -4.73531e-06 0)
(0 -3.90668e-06 0)
(0 -4.46396e-06 0)
(0 -5.29928e-06 0)
(0 -4.98721e-06 0)
(0 -4.19135e-06 0)
(0 -4.66954e-06 0)
(0 -5.54521e-06 0)
(0 -5.18759e-06 0)
(0 -4.35835e-06 0)
(0 -4.8913e-06 0)
(0 -5.75892e-06 0)
(0 -5.45858e-06 0)
(0 -6.38691e-06 0)
(0 -6.05506e-06 0)
(0 -5.13042e-06 0)
(0 -5.70299e-06 0)
(0 -6.67872e-06 0)
(0 -6.29456e-06 0)
(0 -7.33461e-06 0)
(0 -6.92719e-06 0)
(0 -5.78599e-06 0)
(0 -6.53731e-06 0)
(0 -7.57517e-06 0)
(0 -7.17826e-06 0)
(0 -1.7481e-06 0)
(0 -6.18539e-06 0)
(0 -6.80944e-06 0)
(0 -7.82526e-06 0)
(0 -7.46922e-06 0)
(0 -6.4344e-06 0)
(0 -7.09227e-06 0)
(0 -8.18549e-06 0)
(0 -7.79491e-06 0)
(0 -8.95795e-06 0)
(0 -8.55377e-06 0)
(0 -6.05097e-06 0)
(0 -2.82936e-07 0)
(0 6.08512e-07 0)
(0 6.91034e-07 0)
(0 3.88057e-07 0)
(0 -1.77786e-07 0)
(0 3.3814e-07 0)
(0 -3.62545e-07 0)
(0 -1.51006e-06 0)
(0 -3.34582e-06 0)
(0 -9.78712e-06 0)
(0 -9.3726e-06 0)
(0 -1.06778e-05 0)
(0 -1.02486e-05 0)
(0 6.40721e-07 0)
(0 -1.16278e-05 0)
(0 -1.11974e-05 0)
(0 -9.82221e-06 0)
(0 -1.07718e-05 0)
(0 -9.4236e-06 0)
(0 -1.03654e-05 0)
(0 -9.03897e-06 0)
(0 -9.97137e-06 0)
(0 -8.66836e-06 0)
(0 -9.59291e-06 0)
(0 -8.30692e-06 0)
(0 -9.23435e-06 0)
(0 -1.05745e-05 0)
(0 -1.02309e-05 0)
(0 -8.88037e-06 0)
(0 -8.54367e-06 0)
(0 -1.26702e-05 0)
(0 -1.30803e-05 0)
(0 1.19165e-06 0)
(0 7.09786e-07 0)
(0 -1.42247e-05 0)
(0 -1.46191e-05 0)
(0 1.46799e-06 0)
(0 -1.58508e-05 0)
(0 -1.62576e-05 0)
(0 -1.75738e-05 0)
(0 -1.79956e-05 0)
(0 1.55856e-06 0)
(0 1.20623e-06 0)
(0 -1.2124e-06 0)
(0 -1.94114e-05 0)
(0 -1.98103e-05 0)
(0 -2.13034e-05 0)
(0 -2.1701e-05 0)
(0 -6.40663e-05 0)
(0 -6.59348e-05 0)
(0 -6.09567e-05 0)
(0 -5.91965e-05 0)
(0 -5.60357e-05 0)
(0 -8.44341e-06 0)
(0 -8.07746e-06 0)
(0 -5.45123e-05 0)
(0 -5.13005e-05 0)
(0 -5.26215e-05 0)
(0 -4.80556e-05 0)
(0 -4.93356e-05 0)
(0 -4.50175e-05 0)
(0 -4.37864e-05 0)
(0 -4.09364e-05 0)
(0 -2.32238e-05 0)
(0 -2.36869e-05 0)
(0 -4.22487e-05 0)
(0 -3.83541e-05 0)
(0 -3.71486e-05 0)
(0 -3.48393e-05 0)
(0 -3.59064e-05 0)
(0 -3.26728e-05 0)
(0 -3.16969e-05 0)
(0 -2.97586e-05 0)
(0 -7.98945e-06 0)
(0 -2.87681e-05 0)
(0 -2.7064e-05 0)
(0 -2.78704e-05 0)
(0 -2.5428e-05 0)
(0 -5.28178e-06 0)
(0 -1.66365e-06 0)
(0 -2.4581e-05 0)
(0 -2.31267e-05 0)
(0 -2.36468e-05 0)
(0 -2.16339e-05 0)
(0 -2.09643e-05 0)
(0 -1.96272e-05 0)
(0 -2.01e-05 0)
(0 -1.82405e-05 0)
(0 -1.75323e-05 0)
(0 -1.62812e-05 0)
(0 -1.6782e-05 0)
(0 -1.50734e-05 0)
(0 -1.42724e-05 0)
(0 -1.31797e-05 0)
(0 -1.60038e-06 0)
(0 -1.93955e-06 0)
(0 -1.19635e-05 0)
(0 -1.05929e-05 0)
(0 -1.16241e-05 0)
(0 -8.82094e-06 0)
(0 -7.60533e-06 0)
(0 -5.87053e-06 0)
(0 -6.78389e-06 0)
(0 -3.89048e-06 0)
(0 -2.71048e-06 0)
(0 -7.95168e-07 0)
(0 -1.81758e-06 0)
(0 1.13124e-06 0)
(0 2.21125e-06 0)
(0 3.87716e-06 0)
(0 2.77587e-06 0)
(0 5.15322e-06 0)
(0 3.91049e-06 0)
(0 5.90612e-06 0)
(0 4.57959e-06 0)
(0 6.4139e-06 0)
(0 7.53504e-06 0)
(0 8.2135e-06 0)
(0 7.10387e-06 0)
(0 9.1488e-06 0)
(0 8.00694e-06 0)
(0 1.01463e-05 0)
(0 9.00636e-06 0)
(0 1.11891e-05 0)
(0 1.2277e-05 0)
(0 1.34496e-05 0)
(0 1.22804e-05 0)
(0 1.4593e-05 0)
(0 1.31836e-05 0)
(0 1.53681e-05 0)
(0 1.36267e-05 0)
(0 1.56439e-05 0)
(0 1.73069e-05 0)
(0 1.72356e-05 0)
(0 1.53258e-05 0)
(0 1.65099e-05 0)
(0 1.45073e-05 0)
(0 1.53503e-05 0)
(0 1.71984e-05 0)
(0 1.58144e-05 0)
(0 1.40748e-05 0)
(0 1.44741e-05 0)
(0 1.28938e-05 0)
(0 1.33388e-05 0)
(0 1.46809e-05 0)
(0 1.37862e-05 0)
(0 1.25082e-05 0)
(0 1.31624e-05 0)
(0 1.19413e-05 0)
(0 1.27035e-05 0)
(0 1.37327e-05 0)
(0 1.15749e-05 0)
(0 1.24854e-05 0)
(0 1.13886e-05 0)
(0 1.25533e-05 0)
(0 1.14788e-05 0)
(0 1.29083e-05 0)
(0 1.18653e-05 0)
(0 1.35433e-05 0)
(0 1.24289e-05 0)
(0 1.43341e-05 0)
(0 1.43962e-05 0)
(0 1.32615e-05 0)
(0 -2.52148e-05 0)
(0 -2.48216e-05 0)
(0 -2.59731e-05 0)
(0 -2.41866e-05 0)
(0 -2.61245e-05 0)
(0 -2.45922e-05 0)
(0 -2.65652e-05 0)
(0 -2.50396e-05 0)
(0 -2.70158e-05 0)
(0 -2.54169e-05 0)
(0 -2.73914e-05 0)
(0 -2.57294e-05 0)
(0 1.54426e-05 0)
(0 1.43867e-05 0)
(0 1.04716e-05 0)
(0 -2.77402e-05 0)
(0 -2.6106e-05 0)
(0 1.65111e-05 0)
(0 1.53954e-05 0)
(0 3.07839e-07 0)
(0 1.10281e-05 0)
(0 -2.91706e-05 0)
(0 -2.80682e-05 0)
(0 -2.64098e-05 0)
(0 1.73556e-05 0)
(0 1.82998e-05 0)
(0 1.60604e-05 0)
(0 1.2235e-06 0)
(0 -2.83506e-05 0)
(0 -2.66505e-05 0)
(0 7.14525e-07 0)
(0 1.9514e-06 0)
(0 -1.09558e-05 0)
(0 2.95557e-06 0)
(0 3.07209e-06 0)
(0 3.00966e-06 0)
(0 3.11337e-06 0)
(0 3.0559e-06 0)
(0 3.15157e-06 0)
(0 3.09396e-06 0)
(0 3.18392e-06 0)
(0 3.12324e-06 0)
(0 3.20809e-06 0)
(0 3.03036e-06 0)
(0 3.14507e-06 0)
(0 3.2259e-06 0)
(0 1.89001e-05 0)
(0 1.95928e-05 0)
(0 2.8264e-06 0)
(0 -2.86064e-05 0)
(0 -2.68268e-05 0)
(0 -1.05387e-05 0)
(0 3.1611e-06 0)
(0 3.23393e-06 0)
(0 5.70172e-06 0)
(0 1.73633e-06 0)
(0 3.13361e-06 0)
(0 -2.50594e-05 0)
(0 -2.51813e-05 0)
(0 -2.70157e-05 0)
(0 -2.53233e-05 0)
(0 2.0031e-05 0)
(0 2.03706e-05 0)
(0 3.16476e-06 0)
(0 -7.42338e-06 0)
(0 3.16548e-06 0)
(0 3.23149e-06 0)
(0 -9.99954e-06 0)
(0 -1.00515e-05 0)
(0 -1.0626e-05 0)
(0 -1.01097e-05 0)
(0 -2.36216e-05 0)
(0 -2.37162e-05 0)
(0 -9.49706e-06 0)
(0 -9.51017e-06 0)
(0 -2.55136e-05 0)
(0 -2.38212e-05 0)
(0 -3.05265e-05 0)
(0 3.15708e-06 0)
(0 3.22175e-06 0)
(0 3.08601e-06 0)
(0 -2.21071e-05 0)
(0 -2.2164e-05 0)
(0 -1.07486e-05 0)
(0 -8.87501e-06 0)
(0 -8.91828e-06 0)
(0 -2.39463e-05 0)
(0 -2.228e-05 0)
(0 -2.05644e-05 0)
(0 -2.06884e-05 0)
(0 -1.90538e-05 0)
(0 -1.91663e-05 0)
(0 3.08512e-06 0)
(0 4.58082e-06 0)
(0 2.08973e-05 0)
(0 2.09204e-05 0)
(0 -1.76424e-05 0)
(0 -1.77891e-05 0)
(0 -1.63308e-05 0)
(0 -1.65329e-05 0)
(0 -1.509e-05 0)
(0 -1.53028e-05 0)
(0 -1.39067e-05 0)
(0 -1.41316e-05 0)
(0 -1.2812e-05 0)
(0 -1.30514e-05 0)
(0 -1.18048e-05 0)
(0 -1.20626e-05 0)
(0 -1.33077e-05 0)
(0 -1.23261e-05 0)
(0 -1.11675e-05 0)
(0 -1.14347e-05 0)
(0 -1.03528e-05 0)
(0 -1.06275e-05 0)
(0 -9.5988e-06 0)
(0 -9.88575e-06 0)
(0 -8.8906e-06 0)
(0 -9.17372e-06 0)
(0 -8.21732e-06 0)
(0 -8.51475e-06 0)
(0 -7.58289e-06 0)
(0 -7.88984e-06 0)
(0 -6.99642e-06 0)
(0 -7.32378e-06 0)
(0 -6.47737e-06 0)
(0 -6.83979e-06 0)
(0 -6.04333e-06 0)
(0 -6.41542e-06 0)
(0 -5.6714e-06 0)
(0 -6.04221e-06 0)
(0 -5.32768e-06 0)
(0 -5.6725e-06 0)
(0 -4.98281e-06 0)
(0 -5.31055e-06 0)
(0 -4.6697e-06 0)
(0 -5.03656e-06 0)
(0 -4.42932e-06 0)
(0 -4.83945e-06 0)
(0 -5.55903e-06 0)
(0 -5.29623e-06 0)
(0 -4.66639e-06 0)
(0 -5.10575e-06 0)
(0 -4.52811e-06 0)
(0 -4.94281e-06 0)
(0 -4.39966e-06 0)
(0 -4.8046e-06 0)
(0 -4.29816e-06 0)
(0 -4.70207e-06 0)
(0 -4.23354e-06 0)
(0 -4.63771e-06 0)
(0 -4.19239e-06 0)
(0 -4.59568e-06 0)
(0 -6.73245e-06 0)
(0 -5.04394e-06 0)
(0 -5.00229e-06 0)
(0 -4.57651e-06 0)
(0 -5.00357e-06 0)
(0 -4.60744e-06 0)
(0 -5.07524e-06 0)
(0 -4.70657e-06 0)
(0 -5.20928e-06 0)
(0 -4.85326e-06 0)
(0 -5.37894e-06 0)
(0 -5.76445e-06 0)
(0 -5.01499e-06 0)
(0 -5.55953e-06 0)
(0 -5.16437e-06 0)
(0 -5.68405e-06 0)
(0 -5.2793e-06 0)
(0 -5.76349e-06 0)
(0 -5.38246e-06 0)
(0 -8.91982e-06 0)
(0 -5.87943e-06 0)
(0 -5.52458e-06 0)
(0 -6.04791e-06 0)
(0 -5.71602e-06 0)
(0 -5.55554e-06 0)
(0 -6.27686e-06 0)
(0 -5.96977e-06 0)
(0 -1.81101e-05 0)
(0 3.14252e-06 0)
(0 3.20536e-06 0)
(0 -1.17054e-05 0)
(0 3.2774e-06 0)
(0 3.26081e-06 0)
(0 3.18221e-06 0)
(0 3.23781e-06 0)
(0 3.32079e-06 0)
(0 3.28672e-06 0)
(0 3.20729e-06 0)
(0 3.25261e-06 0)
(0 3.32396e-06 0)
(0 3.2912e-06 0)
(0 3.35402e-06 0)
(0 3.32422e-06 0)
(0 3.38094e-06 0)
(0 3.35322e-06 0)
(0 3.40534e-06 0)
(0 3.37826e-06 0)
(0 3.42546e-06 0)
(0 3.39826e-06 0)
(0 3.44172e-06 0)
(0 3.41439e-06 0)
(0 3.36514e-06 0)
(0 3.38155e-06 0)
(0 3.42761e-06 0)
(0 3.39734e-06 0)
(0 3.4392e-06 0)
(0 3.40912e-06 0)
(0 3.44898e-06 0)
(0 3.41935e-06 0)
(0 3.45767e-06 0)
(0 3.43022e-06 0)
(0 3.46598e-06 0)
(0 3.4394e-06 0)
(0 3.47272e-06 0)
(0 3.44631e-06 0)
(0 3.40833e-06 0)
(0 3.41517e-06 0)
(0 3.45161e-06 0)
(0 3.41973e-06 0)
(0 3.45605e-06 0)
(0 3.42401e-06 0)
(0 3.45912e-06 0)
(0 3.42803e-06 0)
(0 3.46138e-06 0)
(0 3.43144e-06 0)
(0 3.39372e-06 0)
(0 3.39889e-06 0)
(0 3.43488e-06 0)
(0 3.40253e-06 0)
(0 3.43731e-06 0)
(0 3.4036e-06 0)
(0 3.43843e-06 0)
(0 3.40389e-06 0)
(0 3.36598e-06 0)
(0 3.36607e-06 0)
(0 3.40451e-06 0)
(0 3.36682e-06 0)
(0 3.40564e-06 0)
(0 3.3693e-06 0)
(0 3.40791e-06 0)
(0 3.37254e-06 0)
(0 3.41068e-06 0)
(0 3.37565e-06 0)
(0 3.41406e-06 0)
(0 3.37943e-06 0)
(0 3.33594e-06 0)
(0 3.34051e-06 0)
(0 3.3249e-06 0)
(0 3.38462e-06 0)
(0 3.34647e-06 0)
(0 3.39023e-06 0)
(0 3.35198e-06 0)
(0 3.3952e-06 0)
(0 3.35694e-06 0)
(0 3.30766e-06 0)
(0 3.31283e-06 0)
(0 3.36131e-06 0)
(0 3.31769e-06 0)
(0 3.36526e-06 0)
(0 3.32183e-06 0)
(0 3.36872e-06 0)
(0 3.32516e-06 0)
(0 3.27181e-06 0)
(0 3.27517e-06 0)
(0 3.32756e-06 0)
(0 3.27727e-06 0)
(0 3.32894e-06 0)
(0 3.27804e-06 0)
(0 3.3296e-06 0)
(0 3.27829e-06 0)
(0 3.2188e-06 0)
(0 3.21893e-06 0)
(0 3.27882e-06 0)
(0 3.21936e-06 0)
(0 3.28084e-06 0)
(0 3.22027e-06 0)
(0 3.15078e-06 0)
(0 3.15164e-06 0)
(0 3.22205e-06 0)
(0 3.15387e-06 0)
(0 3.22447e-06 0)
(0 3.15665e-06 0)
(0 3.22754e-06 0)
(0 3.15934e-06 0)
(0 3.23105e-06 0)
(0 3.16189e-06 0)
(0 3.08051e-06 0)
(0 3.08202e-06 0)
(0 3.16467e-06 0)
(0 3.08468e-06 0)
(0 2.99108e-06 0)
(0 2.99346e-06 0)
(0 3.08695e-06 0)
(0 2.99375e-06 0)
(0 3.0874e-06 0)
(0 2.99269e-06 0)
(0 3.08684e-06 0)
(0 2.99227e-06 0)
(0 3.08235e-06 0)
(0 2.99219e-06 0)
(0 3.08281e-06 0)
(0 2.99283e-06 0)
(0 2.88429e-06 0)
(0 3.08775e-06 0)
(0 2.99329e-06 0)
(0 3.08827e-06 0)
(0 2.99241e-06 0)
(0 3.07256e-06 0)
(0 3.09151e-06 0)
(0 2.99148e-06 0)
(0 2.88228e-06 0)
(0 2.8791e-06 0)
(0 2.98953e-06 0)
(0 2.87584e-06 0)
(0 2.98727e-06 0)
(0 2.87241e-06 0)
(0 2.75062e-06 0)
(0 2.74428e-06 0)
(0 2.86926e-06 0)
(0 2.73646e-06 0)
(0 2.86462e-06 0)
(0 2.73153e-06 0)
(0 2.85994e-06 0)
(0 2.73085e-06 0)
(0 2.8563e-06 0)
(0 2.72672e-06 0)
(0 2.85336e-06 0)
(0 2.71701e-06 0)
(0 2.59315e-06 0)
(0 2.85175e-06 0)
(0 2.71129e-06 0)
(0 2.57534e-06 0)
(0 2.85147e-06 0)
(0 2.7054e-06 0)
(0 2.84857e-06 0)
(0 2.69912e-06 0)
(0 2.84309e-06 0)
(0 2.6925e-06 0)
(0 2.53129e-06 0)
(0 2.52145e-06 0)
(0 2.6854e-06 0)
(0 2.51039e-06 0)
(0 2.67709e-06 0)
(0 2.4961e-06 0)
(0 2.66642e-06 0)
(0 2.47893e-06 0)
(0 2.28649e-06 0)
(0 2.26285e-06 0)
(0 2.45904e-06 0)
(0 2.23595e-06 0)
(0 2.43457e-06 0)
(0 2.20247e-06 0)
(0 2.40504e-06 0)
(0 2.16277e-06 0)
(0 2.37477e-06 0)
(0 2.04864e-06 0)
(0 2.12406e-06 0)
(0 2.33412e-06 0)
(0 2.0723e-06 0)
(0 2.28251e-06 0)
(0 3.17464e-06 0)
(0 2.00476e-06 0)
(0 2.23036e-06 0)
(0 2.96518e-06 0)
(0 3.17444e-06 0)
(0 3.29026e-06 0)
(0 3.37123e-06 0)
(0 1.93397e-06 0)
(0 2.1684e-06 0)
(0 1.88194e-06 0)
(0 2.99533e-06 0)
(0 1.85721e-06 0)
(0 2.1287e-06 0)
(0 1.59693e-06 0)
(0 3.35062e-06 0)
(0 2.58877e-06 0)
(0 3.44587e-06 0)
(0 1.75854e-06 0)
(0 1.98539e-06 0)
(0 2.45762e-06 0)
(0 1.63008e-06 0)
(0 1.86454e-06 0)
(0 3.25931e-06 0)
(0 2.20307e-06 0)
(0 2.06683e-06 0)
(0 1.72095e-06 0)
(0 1.93621e-06 0)
(0 3.48947e-06 0)
(0 1.5479e-06 0)
(0 1.76572e-06 0)
(0 2.13871e-06 0)
(0 1.96405e-06 0)
(0 1.55535e-06 0)
(0 1.75497e-06 0)
(0 2.14039e-06 0)
(0 1.93239e-06 0)
(0 2.29382e-06 0)
(0 2.08457e-06 0)
(0 1.6875e-06 0)
(0 2.21163e-06 0)
(0 2.31471e-06 0)
(0 2.39395e-06 0)
(0 3.26251e-06 0)
(0 -8.29144e-06 0)
(0 -8.43306e-06 0)
(0 3.49521e-06 0)
(0 -6.59556e-06 0)
(0 -6.32845e-06 0)
(0 -2.40732e-05 0)
(0 3.47957e-06 0)
(0 -2.42551e-05 0)
(0 -1.74724e-05 0)
(0 2.15624e-05 0)
(0 2.13459e-05 0)
(0 2.11914e-05 0)
(0 2.0339e-05 0)
(0 2.05566e-05 0)
(0 1.93653e-05 0)
(0 1.93866e-05 0)
(0 1.81497e-05 0)
(0 1.80165e-05 0)
(0 1.68055e-05 0)
(0 1.65605e-05 0)
(0 1.53103e-05 0)
(0 1.50606e-05 0)
(0 1.39038e-05 0)
(0 1.38471e-05 0)
(0 1.2996e-05 0)
(0 1.31032e-05 0)
(0 1.2704e-05 0)
(0 1.28278e-05 0)
(0 1.28574e-05 0)
(0 1.26045e-05 0)
(0 1.29406e-05 0)
(0 1.29808e-05 0)
(0 1.26737e-05 0)
(0 1.31348e-05 0)
(0 1.29302e-05 0)
(0 1.33951e-05 0)
(0 1.32864e-05 0)
(0 -1.02441e-05 0)
(0 -1.06692e-05 0)
(0 3.40677e-06 0)
(0 4.81733e-06 0)
(0 6.41921e-06 0)
(0 -7.81247e-06 0)
(0 -8.06694e-06 0)
(0 -8.66147e-06 0)
(0 -8.32382e-06 0)
(0 -7.64655e-06 0)
(0 -8.89005e-06 0)
(0 -8.49533e-06 0)
(0 -7.91928e-06 0)
(0 -8.04191e-06 0)
(0 -7.45601e-06 0)
(0 -7.59433e-06 0)
(0 -8.1975e-06 0)
(0 -7.80705e-06 0)
(0 -7.15237e-06 0)
(0 -7.43507e-06 0)
(0 2.82779e-06 0)
(0 -6.20157e-06 0)
(0 3.4683e-06 0)
(0 3.42832e-06 0)
(0 3.37396e-06 0)
(0 3.35882e-06 0)
(0 3.25711e-06 0)
(0 -7.01128e-06 0)
(0 -6.76996e-06 0)
(0 3.21403e-06 0)
(0 2.88862e-06 0)
(0 -6.74875e-06 0)
(0 1.1621e-05 0)
(0 1.39004e-05 0)
(0 6.89773e-06 0)
(0 -8.33937e-06 0)
(0 -7.77201e-06 0)
(0 -8.17803e-06 0)
(0 -7.47911e-06 0)
(0 -7.91272e-06 0)
(0 -7.07365e-06 0)
(0 -7.52823e-06 0)
(0 -6.60966e-06 0)
(0 -7.05035e-06 0)
(0 -6.18016e-06 0)
(0 2.61082e-06 0)
(0 -5.73162e-06 0)
(0 -5.38822e-06 0)
(0 1.36775e-05 0)
(0 1.35314e-05 0)
(0 4.85101e-06 0)
(0 9.21786e-06 0)
(0 1.44363e-05 0)
(0 1.36206e-05 0)
(0 -3.83703e-06 0)
(0 -5.45947e-06 0)
(0 -8.14341e-06 0)
(0 -7.84007e-06 0)
(0 6.16365e-06 0)
(0 8.12973e-06 0)
(0 -6.61071e-06 0)
(0 -9.45701e-06 0)
(0 1.45858e-06 0)
(0 -8.39911e-06 0)
(0 -7.26178e-06 0)
(0 -7.49189e-06 0)
(0 2.19361e-05 0)
(0 2.13755e-05 0)
(0 2.05395e-05 0)
(0 1.38629e-05 0)
(0 1.36453e-05 0)
(0 -4.33484e-06 0)
(0 3.46424e-06 0)
(0 -4.96088e-06 0)
(0 -4.59797e-06 0)
(0 -1.66593e-05 0)
(0 6.82919e-06 0)
(0 5.25722e-06 0)
(0 -8.59606e-06 0)
(0 -4.95156e-06 0)
(0 -6.14951e-06 0)
(0 2.62109e-06 0)
(0 -4.04131e-06 0)
(0 -4.90476e-06 0)
(0 1.61351e-05 0)
(0 2.0285e-07 0)
(0 1.40699e-05 0)
(0 1.38233e-05 0)
(0 -7.11179e-05 0)
(0 -1.72037e-05 0)
(0 1.34265e-05 0)
(0 1.37296e-05 0)
(0 1.41475e-05 0)
(0 1.43757e-05 0)
(0 -7.13811e-05 0)
(0 -6.76346e-05 0)
(0 -6.73288e-05 0)
(0 -6.40049e-05 0)
(0 2.20022e-05 0)
(0 2.12579e-05 0)
(0 -7.22696e-06 0)
(0 -7.96007e-06 0)
(0 -8.58806e-06 0)
(0 -4.05702e-06 0)
(0 -3.53733e-06 0)
(0 -4.4894e-06 0)
(0 -6.40889e-05 0)
(0 -6.06764e-05 0)
(0 -6.03975e-05 0)
(0 -5.72466e-05 0)
(0 1.31133e-05 0)
(0 -6.5136e-06 0)
(0 7.89361e-06 0)
(0 9.96709e-06 0)
(0 1.40494e-05 0)
(0 1.50609e-05 0)
(0 1.54882e-05 0)
(0 1.64654e-05 0)
(0 1.41401e-05 0)
(0 -8.00744e-06 0)
(0 -7.50128e-06 0)
(0 -8.5885e-06 0)
(0 -8.01353e-06 0)
(0 -9.18664e-06 0)
(0 -8.59094e-06 0)
(0 -9.75831e-06 0)
(0 -9.16361e-06 0)
(0 -1.039e-05 0)
(0 -9.796e-06 0)
(0 -1.11998e-05 0)
(0 -1.06212e-05 0)
(0 -1.22118e-05 0)
(0 -9.22739e-06 0)
(0 -1.17486e-05 0)
(0 -1.34909e-05 0)
(0 -1.31966e-05 0)
(0 -1.50174e-05 0)
(0 3.46412e-06 0)
(0 -5.74759e-05 0)
(0 -5.41238e-05 0)
(0 -5.38003e-05 0)
(0 -5.07383e-05 0)
(0 1.28607e-05 0)
(0 7.05265e-06 0)
(0 5.45228e-06 0)
(0 1.60032e-05 0)
(0 1.75904e-05 0)
(0 1.81706e-05 0)
(0 1.93354e-05 0)
(0 1.99466e-05 0)
(0 2.08784e-05 0)
(0 1.99868e-05 0)
(0 2.10527e-05 0)
(0 2.20022e-05 0)
(0 2.16716e-05 0)
(0 -5.0966e-05 0)
(0 -4.76302e-05 0)
(0 -4.74615e-05 0)
(0 -4.44897e-05 0)
(0 -4.42996e-05 0)
(0 -4.15031e-05 0)
(0 -4.16497e-05 0)
(0 -3.88823e-05 0)
(0 -3.89388e-05 0)
(0 -3.63956e-05 0)
(0 -3.63438e-05 0)
(0 -3.63363e-05 0)
(0 -1.52585e-05 0)
(0 -1.36832e-05 0)
(0 2.28079e-05 0)
(0 2.21015e-05 0)
(0 -1.48106e-05 0)
(0 -6.9148e-06 0)
(0 -8.35285e-06 0)
(0 -5.39937e-06 0)
(0 2.16488e-05 0)
(0 2.07785e-05 0)
(0 -2.76914e-06 0)
(0 -2.07703e-06 0)
(0 -1.29725e-05 0)
(0 -3.40575e-05 0)
(0 -3.39832e-05 0)
(0 -6.20334e-06 0)
(0 -7.74978e-06 0)
(0 4.95534e-06 0)
(0 -9.08759e-06 0)
(0 -9.32872e-06 0)
(0 1.99052e-05 0)
(0 6.87138e-06 0)
(0 5.24521e-06 0)
(0 3.40622e-06 0)
(0 -7.1805e-06 0)
(0 -6.97257e-06 0)
(0 -6.53424e-06 0)
(0 -6.28246e-06 0)
(0 -1.89119e-06 0)
(0 9.71873e-06 0)
(0 1.16653e-05 0)
(0 1.99448e-05 0)
(0 -8.92977e-06 0)
(0 -1.04604e-05 0)
(0 -3.57363e-05 0)
(0 1.55888e-05 0)
(0 2.33069e-05 0)
(0 2.24705e-05 0)
(0 2.09608e-05 0)
(0 2.13787e-05 0)
(0 -2.99095e-05 0)
(0 -3.41585e-05 0)
(0 -2.89655e-05 0)
(0 -3.28122e-05 0)
(0 -2.80636e-05 0)