/*--------------------------------*- C++ -*----------------------------------*\
| =========                 |                                                 |
| \\      /  F ield         | OpenFOAM: The Open Source CFD Toolbox           |
|  \\    /   O peration     | Version:  v2012                                 |
|   \\  /    A nd           | Website:  www.openfoam.com                      |
|    \\/     M anipulation  |                                                 |
\*---------------------------------------------------------------------------*/
FoamFile
{
    version     2.0;
    format      ascii;
    class       volVectorField;
    location    "350";
    object      U_0;
}
// * * * * * * * * * * * * * * * * * * * * * * * * * * * * * * * * * * * * * //

dimensions      [0 1 -1 0 0 0 0];


internalField   nonuniform List<vector> 
18758
(
(1.08748 -0.302511 1.60654e-20)
(1.22062 -0.0378643 0)
(1.01511 -0.00016499 0)
(0.543071 0.215313 -1.18279e-20)
(0.16623 0.0823622 2.83015e-20)
(0.164324 0.0122351 7.63382e-20)
(-0.211116 -0.0051627 1.49382e-19)
(1.01175 -0.00492045 1.04467e-22)
(1.25062 0.0678752 3.21296e-20)
(1.01454 -0.104093 1.03058e-21)
(1.05429 -0.0400441 3.84237e-21)
(0.17176 -0.038444 0)
(1.00191 -0.000308322 7.67183e-22)
(1.0425 0.1249 1.69067e-20)
(1.04562 0.00864356 0)
(0.588699 -0.494301 -9.38151e-21)
(1.10246 0.0244171 -1.99637e-20)
(1.00386 -0.00739607 6.55396e-22)
(1.03657 -0.00531498 0)
(1.0236 -0.123647 -2.63771e-22)
(0.00314559 0.0266629 -4.07151e-20)
(1.00004 -0.000774744 0)
(-0.0304338 -0.0103211 0)
(1.25109 0.153696 9.0604e-20)
(1.31694 -0.151643 1.43051e-19)
(1.01145 -0.00473716 0)
(0.784943 -0.674082 0)
(0.109523 0.0601456 5.2362e-20)
(0.793602 -0.0129324 0)
(1.07133 -0.690938 8.95721e-20)
(1.0871 0.0720219 0)
(0.211483 0.0384083 -2.73434e-20)
(1.00042 -0.000134752 0)
(1.05002 -0.0118807 -1.10533e-20)
(1.11832 0.11427 -2.72811e-20)
(0.999277 -0.00165631 1.17413e-20)
(1.00018 -0.000206295 1.17495e-21)
(1.03336 -0.0222491 0)
(1.03954 -0.0251357 -1.39528e-20)
(1.11101 0.0226651 -3.24049e-20)
(1.03415 -0.020701 0)
(0.937375 -0.0769869 0)
(1.02129 -0.00734599 0)
(0.974463 -0.0907508 -1.52769e-20)
(1.19062 -0.494802 5.47914e-21)
(1.01294 -0.00145457 -2.08395e-21)
(-0.0497498 -0.00876895 0)
(1.04836 -0.0536549 0)
(1.0124 -0.101612 0)
(1.02095 -0.00553416 7.38327e-23)
(1.21338 -0.14574 3.98951e-20)
(0.430365 0.133382 -7.41818e-20)
(1.01544 -0.00181528 1.48183e-21)
(1.05278 -0.0387703 -1.68925e-20)
(0.0667945 0.0531991 0)
(1.21903 -0.221988 3.04477e-20)
(1.00023 -0.000229326 2.33634e-21)
(0.517484 -0.333715 -2.3774e-20)
(0.99324 -0.0224802 -7.32101e-21)
(1.04534 0.132157 -1.78993e-20)
(1.10558 -0.25995 -1.21608e-21)
(-0.197131 -0.00826077 -1.10668e-19)
(1.20304 0.031253 0)
(0.969245 -0.0439108 -1.33609e-20)
(1.01526 -0.00189005 4.10381e-21)
(0.994016 -0.00477541 -6.99979e-23)
(1.10765 0.0284871 -1.63985e-20)
(1.00047 -0.000170543 -7.06565e-22)
(1.03147 -0.0202801 0)
(0.412013 0.130263 7.82706e-20)
(0.280948 0.107079 -4.5522e-20)
(0.971042 -0.0255563 3.08252e-22)
(1.02128 -0.00589471 -2.67677e-21)
(-0.0205216 -0.0779081 1.5505e-19)
(1.01667 -0.00832617 3.75055e-21)
(0.994884 -0.0231416 0)
(1.1969 0.130444 -1.03814e-19)
(0.180018 0.0849378 1.251e-19)
(0.901476 -0.322844 1.10266e-20)
(-0.0741742 -0.0193533 1.41132e-19)
(0.0529437 -0.00046691 -1.08541e-19)
(1.25298 -0.464715 -1.25636e-19)
(1.04928 0.134085 2.4431e-20)
(0.118093 0.017427 0)
(1.19156 0.135904 9.99819e-20)
(1.09409 -0.0243757 -1.59623e-20)
(0.554036 -0.191752 -9.35142e-20)
(1.20226 0.0279037 0)
(-0.0585148 -0.0267486 8.51769e-20)
(0.995426 -0.0236903 1.51203e-21)
(0.071308 0.0149735 0)
(0.992775 -0.0220082 8.52073e-21)
(0.130066 -0.0642122 5.30527e-20)
(0.934945 -0.0805646 0)
(0.0567249 -0.000851124 0)
(0.0836984 -0.051044 -6.89091e-20)
(1.18535 0.135468 -1.20707e-19)
(1.01711 -0.00860464 2.27965e-21)
(1.00172 -0.0176267 0)
(0.026166 0.0323478 5.64297e-22)
(1.03475 -0.127307 -1.388e-21)
(0.00193416 0.0130613 7.6761e-20)
(1.14299 0.0658586 0)
(1.11484 -0.127276 0)
(0.191998 0.0276979 0)
(1.08603 -0.661078 -6.98012e-20)
(1.05141 0.209502 -7.2007e-20)
(0.21688 0.0943056 -1.09708e-19)
(1.04179 -0.0350516 -4.29304e-21)
(0.964357 -0.0113993 0)
(0.159692 -0.0671562 0)
(0.466282 -0.646341 -2.3784e-19)
(1.01012 -0.00522785 -1.36743e-22)
(1.00854 -0.0350535 2.85916e-22)
(0.709435 0.0550005 -7.13859e-20)
(-0.299342 0.00333303 0)
(-0.292565 0.00255926 -1.22662e-19)
(1.0453 0.00926459 0)
(0.0379989 -0.0245068 5.22122e-20)
(0.0317778 0.00107984 6.41424e-21)
(1.11615 -0.0519101 1.77408e-20)
(0.987425 -0.0109386 -1.66165e-21)
(0.550706 -0.0373845 -1.42246e-19)
(0.639225 -0.638621 0)
(1.17496 -0.384058 -1.13875e-20)
(1.18857 -0.474682 0)
(1.27257 -0.0465549 0)
(1.29552 0.0862538 4.54739e-20)
(0.073257 -0.0473946 0)
(1.00321 -0.000123789 0)
(1.10385 0.0261875 4.73026e-20)
(0.814227 -0.654044 -1.1355e-20)
(-0.0271196 0.0165779 5.64072e-21)
(0.928311 -0.216526 4.84454e-21)
(0.208604 -0.692981 9.19915e-20)
(0.968619 -0.0631866 0)
(1.19714 0.126178 1.00915e-19)
(1.11346 0.0244558 1.11603e-20)
(1.00214 -0.0175742 6.26632e-22)
(0.782354 -0.260174 0)
(0.886669 -0.318618 -6.27136e-23)
(0.946294 -0.451278 0)
(1.00367 -0.0304279 1.47864e-21)
(1.08804 -0.192439 3.55933e-20)
(1.03494 -0.020434 -3.20225e-21)
(1.03828 -0.00307168 5.80318e-21)
(-0.180281 0.0191907 1.12638e-19)
(0.416557 0.0439752 0)
(1.08432 0.0706751 0)
(0.684379 0.104752 2.93466e-20)
(1.26161 -0.449996 6.08741e-20)
(1.16246 0.213017 -6.92958e-20)
(1.09427 -0.0291388 2.03701e-20)
(0.999957 -0.00071466 0)
(-0.0457362 -0.000569734 0)
(1.08476 -0.0442901 -1.83907e-20)
(0.00255784 -0.024879 -2.78516e-20)
(1.04766 -0.0554933 0)
(0.990514 -0.0362504 0)
(1 -0.000307294 -3.39185e-21)
(1.01051 -0.0127132 9.53333e-22)
(1.05539 0.134257 0)
(0.177876 -0.0977605 -1.1914e-19)
(0.991745 -0.0360401 9.18584e-21)
(1.10669 -0.255291 -3.95213e-20)
(0.713682 -0.00530478 3.56159e-20)
(1.03778 -0.00706364 -8.67743e-23)
(0.481847 -0.0510406 8.31103e-20)
(1.20249 -0.249342 0)
(0.197051 0.0190784 8.23422e-20)
(-0.17009 0.000433919 0)
(1.00378 -0.00757419 8.21683e-23)
(0.191396 -0.0890232 1.07562e-19)
(0.121936 0.0649666 -3.45658e-20)
(1.05851 0.134333 4.49401e-22)
(1.25876 0.155788 -8.81486e-20)
(0.637423 0.0108512 6.61506e-20)
(0.968222 -0.0454837 0)
(0.797064 -0.257846 0)
(1.03027 -0.0309443 0)
(1.00861 -0.00495947 -7.18914e-22)
(-0.245042 0.00247541 0)
(1.16971 0.208761 7.65268e-20)
(1.02584 -0.00531397 8.29758e-23)
(1.06557 0.00243538 1.35804e-20)
(1.1709 0.198223 0)
(0.997046 -0.0186482 -5.0471e-21)
(-0.283725 0.00304028 0)
(1.02016 -0.00647465 2.57751e-21)
(0.995052 -0.0167459 -5.14994e-22)
(0.934559 -0.220752 -1.37081e-20)
(1.29374 0.0815441 0)
(1.01059 -0.0471828 1.59102e-22)
(1.08465 0.0675968 0)
(0.972217 -0.149651 6.60585e-21)
(1.20691 0.0240018 7.59323e-20)
(1.02682 -0.126289 3.7513e-21)
(1.21128 -0.248675 0)
(1.00062 -0.00206549 0)
(1.021 -0.00695134 0)
(0.750076 -0.210257 1.89066e-20)
(1.04558 -0.0554999 -1.19729e-20)
(1.06952 -0.129519 -1.68912e-20)
(1.18375 0.00507419 1.62222e-20)
(1.00192 -0.000473562 -8.81436e-22)
(0.974257 -0.145908 -1.01973e-20)
(1.15284 0.0630594 2.10895e-20)
(0.999967 -0.000560109 3.37692e-23)
(0.0391993 0.0259675 3.32992e-20)
(1.00834 -0.10246 0)
(1.00427 -0.00743192 -1.16433e-21)
(1.11881 -0.130297 0)
(0.992931 -0.038387 0)
(1.07788 -0.11892 -1.76257e-20)
(0.860637 -0.289178 -2.31269e-20)
(0.0608083 -0.00553076 -1.03266e-19)
(0.858072 -0.301553 0)
(0.532762 -0.439314 4.62208e-20)
(1.01526 -0.00478811 8.49009e-24)
(0.185633 0.0112539 -7.39025e-20)
(1.00415 -0.00761117 0)
(1.04149 -0.0364073 0)
(1.15921 0.137532 0)
(-0.158766 0.0222545 -1.02325e-19)
(1.24826 -0.172666 0)
(1.14886 0.0626265 -3.12614e-20)
(1.15883 -0.0576139 -3.44258e-20)
(0.981205 -0.209205 -2.24454e-21)
(1.02522 -0.00273115 -4.78996e-21)
(1.18784 -0.00179358 0)
(0.993713 -0.00503012 3.37041e-21)
(1.20623 0.0204548 -3.39379e-20)
(-0.0507996 -0.00720428 3.47828e-21)
(1.18312 0.142579 -5.2913e-20)
(1.00177 -0.000232962 -4.60935e-22)
(0.996867 -0.0180722 -4.78511e-21)
(1.02502 -0.00299581 0)
(1.0124 -0.00170658 -4.06752e-21)
(0.631096 -0.0557509 1.22608e-19)
(1.0949 -0.0971508 3.44373e-20)
(1.00849 -0.0125795 2.29131e-22)
(1.26553 -0.265307 -4.6103e-20)
(1.03307 0.209546 2.66852e-20)
(1.0532 -0.0224181 0)
(0.739293 0.115929 6.71192e-21)
(0.0109881 -0.0303909 8.89846e-22)
(1.17826 0.141844 5.17321e-20)
(0.999371 -0.00161049 0)
(0.0533815 -3.87659e-05 4.45073e-20)
(0.89532 -0.0761379 -3.20642e-20)
(0.999101 -0.00199164 -9.72345e-21)
(0.425433 -0.0387481 -7.95345e-20)
(1.09532 -0.0228232 -7.077e-21)
(0.895269 -0.0820243 -7.06323e-22)
(1.04319 0.00424918 2.18565e-22)
(1.12341 -0.0561638 4.57638e-20)
(1.22111 0.167352 7.12665e-20)
(0.494196 -0.431496 6.31532e-20)
(1.07392 -0.117784 3.8558e-21)
(0.928063 -0.316034 0)
(1.0286 0.00209968 0)
(1.14197 0.0480329 7.1321e-20)
(0.999234 -0.00732722 0)
(1.18072 0.0067201 -1.34997e-20)
(1.00639 -0.0995421 0)
(1.15522 0.138402 5.13924e-20)
(-0.285375 0.000437374 -2.75382e-20)
(1.01498 -0.00464324 4.46017e-23)
(1.04109 -0.0327983 -8.55581e-21)
(1.0355 -0.472378 0)
(1.04001 -0.0318989 0)
(1.06463 0.00164854 -1.16901e-20)
(1.18357 -0.000191298 0)
(0.599647 -0.0143792 1.25566e-19)
(-0.311612 0.00228899 1.42926e-19)
(1.00185 -0.0294533 0)
(1.20626 -0.133529 -6.87233e-20)
(0.316861 0.0217379 3.89739e-20)
(1.22877 -0.463793 5.93067e-20)
(1.00827 -0.0517817 -6.37758e-22)
(1.0293 -0.00866415 0)
(1.07679 -0.0736256 -2.28931e-20)
(1.09744 -0.0952136 -3.18162e-20)
(1.00348 -0.0297749 -9.71161e-22)
(0.380834 0.0561682 6.24662e-20)
(1.25657 -0.259463 -1.4092e-21)
(1.01039 0.189339 4.62224e-20)
(-0.0477107 0.0134431 6.93492e-22)
(-0.0286251 -0.0104067 0)
(1.02426 -0.00507825 0)
(1.0152 -0.000142847 6.79529e-22)
(0.98556 -0.226159 6.69279e-22)
(0.114621 -0.00766811 2.87298e-21)
(0.921308 -0.0424255 -9.62121e-21)
(0.913476 -0.312546 -1.97841e-21)
(1.21215 -0.0178958 3.76321e-20)
(1.0713 -0.0797905 -9.4498e-21)
(0.0262137 0.000266186 -5.64216e-20)
(1.0358 -0.00560119 0)
(1.028 0.174363 3.78313e-20)
(0.140965 0.0159838 0)
(1.01271 -0.00149261 0)
(0.522097 0.128788 8.89026e-21)
(0.960048 -0.167826 -7.56171e-21)
(1.03234 -0.0206719 -2.2135e-21)
(1.06641 -0.110631 1.72363e-20)
(1.1934 -0.0601013 -2.84729e-20)
(1.04825 0.00176422 6.18711e-21)
(0.999131 -0.00192186 6.59127e-21)
(-0.239215 -0.00277711 1.39652e-19)
(1.01727 0.187574 -5.1738e-20)
(1.00154 -0.0133329 -2.42973e-21)
(-0.247912 2.027e-06 -1.63328e-19)
(0.0296797 0.000318204 0)
(1.2434 -0.169103 -3.87594e-20)
(0.997823 -0.00779147 -7.26937e-21)
(1.00204 -7.88152e-05 0)
(1.07104 0.19288 -3.85062e-20)
(1.05229 -0.0232644 0)
(1.02524 -0.00533858 1.01855e-20)
(1.02981 -0.010207 0)
(0.946373 -0.01363 0)
(1.19991 -0.257533 0)
(1.19646 -0.0632166 3.16958e-20)
(1.07477 -0.0749067 2.03824e-20)
(1.09109 -0.0958608 -9.51436e-21)
(1.01944 -0.125636 0)
(0.943459 -0.22154 0)
(1.02821 0.0017097 0)
(0.999992 -0.000587498 0)
(1.29275 0.093458 0)
(1.06787 -0.204997 0)
(1.21206 -0.133845 -9.55273e-22)
(0.522536 0.221796 -2.45897e-20)
(0.918008 -0.0446 -3.56599e-20)
(1.01124 -0.0457603 -4.52349e-22)
(1.00522 -0.000146628 0)
(1.02534 0.173894 -2.98661e-22)
(0.577055 0.139255 -7.86035e-21)
(1.02546 -0.00350558 0)
(1.00469 -0.00744645 0)
(1.02522 -0.0037967 4.3656e-21)
(0.968096 -0.0610739 -8.78948e-21)
(0.978483 -0.201703 2.05534e-21)
(1.3032 -0.149263 0)
(0.98798 -0.0107359 0)
(0.968436 -0.0112842 1.05118e-20)
(1.02185 -0.0048658 1.98618e-22)
(0.601948 -0.541516 0)
(0.947508 -0.439689 -3.8168e-21)
(1.24477 -0.0238586 3.40785e-22)
(1.12888 -0.303047 0)
(1.0514 -0.00575309 0)
(1.29465 0.0695647 9.31397e-20)
(1.07629 -0.301475 2.24443e-20)
(1.10705 -0.077591 0)
(0.888699 -0.0909654 0)
(0.123529 -0.0336342 -9.96932e-20)
(-0.0972083 0.0245233 1.05864e-20)
(1.18158 0.20486 3.12611e-20)
(1.00184 -0.00223658 -2.0559e-21)
(1.02955 -0.134618 4.25855e-21)
(1.20851 -0.0799562 -3.71921e-22)
(0.536195 -0.005778 -1.32537e-19)
(1.01914 -0.0820978 3.99148e-21)
(1.02413 -0.00550826 -3.85569e-21)
(1.15842 -0.0277806 1.08938e-20)
(1.03677 -0.0106968 0)
(1.09347 -0.0127488 -2.80616e-20)
(1.05637 -0.0231888 -1.24197e-19)
(0.384455 0.248594 -4.53333e-20)
(1.08084 0.108722 0)
(1.01616 -0.122591 3.39393e-21)
(-0.271313 0.000777821 0)
(0.988399 -0.023402 1.00466e-20)
(1.04492 -0.0572109 9.58112e-21)
(1.0023 -0.0231081 -8.08782e-22)
(1.03967 -0.0262121 1.98558e-20)
(1.11381 0.101604 0)
(1.05897 -0.0407277 0)
(-0.234107 -0.00336729 1.98951e-19)
(0.904728 -0.460961 -1.90206e-21)
(1.04263 0.00381873 5.34474e-21)
(1.00135 -0.0129432 -2.48346e-21)
(-0.269842 0.00409419 6.11812e-20)
(1.08339 0.10679 0)
(1.24694 0.0714248 1.86398e-23)
(0.988084 -0.0227655 -7.33108e-21)
(1.08745 0.0550207 3.22793e-20)
(1.02862 -0.00874734 2.84446e-21)
(0.937498 -0.0695324 0)
(0.987358 -0.011358 0)
(1.01465 -0.00475404 3.57875e-21)
(-0.282814 0.00766615 -3.32218e-20)
(0.0527799 0.0287652 0)
(1.03127 -0.754623 -4.68951e-20)
(0.396027 -0.137233 -6.83017e-22)
(1.00535 -0.000436602 -2.0106e-23)
(1.21046 0.109953 -2.87536e-20)
(0.14561 0.0627712 -4.55167e-20)
(1.12533 -0.0581857 0)
(1.01036 -0.00547216 -2.09312e-21)
(0.52889 0.224239 2.07647e-20)
(1.02812 -0.0127075 0)
(1.03913 -0.00122664 1.23251e-20)
(1.00882 -0.00525586 0)
(1.11439 0.104901 -3.05892e-20)
(0.99031 -0.0125256 -9.06532e-21)
(0.970948 -0.0895449 1.56508e-20)
(1.1253 -0.293427 0)
(0.553743 -0.0320002 2.02127e-19)
(1.02939 -0.00983689 -1.79498e-21)
(0.146517 0.0815821 0)
(1.12989 0.00298357 5.63814e-20)
(0.998041 -0.00756982 6.16379e-21)
(1.07202 -0.0060017 0)
(0.991595 -0.0233208 -5.8288e-21)
(1.00458 -0.00764084 0)
(1.06917 -0.0775309 9.34592e-21)
(1.14196 0.0383247 2.1757e-20)
(0.95001 -0.217639 6.9133e-21)
(0.112032 0.0467072 -1.31419e-19)
(1.11937 -0.0520276 2.72625e-20)
(0.996248 -0.00421923 5.4253e-21)
(1.0164 -0.464285 0)
(0.79968 0.188396 0)
(0.819113 0.189977 0)
(-0.183421 0.000456626 -1.00098e-19)
(1.10216 0.101944 -2.25811e-20)
(1.0057 -0.0503279 1.17692e-21)
(1.01439 -0.00458599 0)
(1.00833 -0.012227 -1.48616e-22)
(0.991989 -0.0392869 -4.21711e-21)
(1.07687 0.107768 -1.84043e-20)
(1.11324 0.0138396 0)
(1.0819 0.0192554 -3.05908e-21)
(0.960329 -0.161322 6.80744e-21)
(1.09558 -0.0274065 2.40389e-20)
(1.12812 0.203647 -2.91696e-20)
(1.14673 0.0663605 7.03822e-21)
(0.99152 -0.0224648 -2.50549e-21)
(1.08859 -0.0937939 -1.94754e-20)
(-0.0609417 -0.0305627 0)
(0.987883 -0.0537674 -5.39353e-21)
(0.385481 0.249292 4.11813e-20)
(1.00327 -0.00010402 0)
(0.99671 0.000228995 -7.16655e-21)
(0.477479 0.0882408 0)
(0.947448 -0.0984461 0)
(1.04196 -0.0289209 4.4431e-21)
(1.21288 0.168199 -6.44861e-20)
(1.12264 0.114669 5.61314e-20)
(0.989776 -0.221246 1.39235e-21)
(0.0656213 -0.0528729 -6.05691e-20)
(0.994155 -0.0232412 0)
(0.986261 -0.0491344 0)
(0.540362 -0.487326 -3.83289e-20)
(0.116766 -0.0295206 -2.75808e-20)
(0.866611 -0.121401 -5.00581e-20)
(1.1502 -0.160365 -2.75199e-20)
(1.03906 0.126139 1.84123e-20)
(1.12463 0.196528 2.85969e-20)
(-0.343077 0.00584715 -8.18322e-20)
(1.04556 0.127531 1.82395e-20)
(0.970456 -0.0241703 -1.06202e-20)
(1.22828 -0.0736908 0)
(1.00755 -0.0353582 0)
(1.07484 0.109618 1.93767e-20)
(1.03833 -0.0501782 -4.59202e-21)
(0.125063 -0.0567717 0)
(1.08538 0.05404 -3.07833e-20)
(1.27794 -0.0889073 1.03493e-19)
(1.08208 0.0181884 2.22882e-23)
(1.08462 0.0796004 1.49378e-20)
(1.01264 -0.0017043 1.26916e-22)
(1.25702 0.148355 5.15595e-20)
(1.02101 -0.0062357 -3.64495e-22)
(-0.110919 0.0190873 -6.89804e-21)
(1.00199 -0.0236675 9.46779e-22)
(1.13722 -0.386674 8.39386e-20)
(0.999223 -0.00588683 0)
(1.05178 0.186028 -2.10422e-20)
(1.09562 -0.0118488 -2.88093e-20)
(0.999861 -0.00482579 -1.79661e-21)
(1.00142 -0.0170939 0)
(1.00915 -0.00524071 0)
(0.94372 0.205959 -3.20999e-20)
(-0.221424 0.0160539 0)
(0.734219 0.051962 1.12889e-19)
(1.1035 0.0311874 0)
(1.06242 0.00161775 -1.23605e-20)
(1.19624 -0.0552423 6.77267e-20)
(1.00001 -0.000555472 1.91766e-21)
(1.00004 -0.000292785 1.98292e-21)
(0.414718 0.132799 4.55776e-20)
(1.00101 -0.0172013 3.29861e-21)
(0.996015 -0.00120834 0)
(1.21525 -0.0213745 -3.92408e-20)
(1.00194 -0.00220076 2.03631e-21)
(1.14461 -0.161428 0)
(1.19383 -0.0516559 -5.96457e-20)
(0.995809 -0.0010753 -1.77791e-22)
(0.990507 -0.013165 6.27625e-21)
(0.934037 -0.0891265 2.89036e-21)
(0.987788 -0.051959 3.63398e-21)
(1.08724 -0.0450745 2.34735e-20)
(0.753867 0.117716 -8.46631e-20)
(1.06021 0.0282773 -1.54737e-20)
(0.874429 -0.121501 2.21663e-20)
(1.04473 -0.0852163 0)
(0.996419 -0.00397229 0)
(0.392022 -0.733804 2.44247e-21)
(0.965236 -0.0160543 0)
(1.03964 -0.0376823 -5.23652e-21)
(0.847863 -0.756749 0)
(-0.302628 0.000325852 -3.03659e-20)
(1.08418 0.0767502 0)
(1.08145 0.201902 0)
(1.01822 -0.0841469 -1.42686e-21)
(1.0399 -0.0366761 0)
(-0.280338 0.000895133 2.67003e-20)
(1.03711 -0.00657068 -5.01192e-21)
(-0.29596 0.00766863 3.5125e-22)
(1.12458 -0.380228 -5.31063e-20)
(0.999576 -0.0050074 0)
(0.716036 0.121001 1.10725e-19)
(1.29809 0.0742266 -1.02619e-19)
(1.15992 -0.0241292 0)
(1.00823 -0.000432799 0)
(1.06715 -0.198402 2.31976e-20)
(0.511654 0.13996 3.54576e-20)
(1.03417 -0.0219181 0)
(1.02894 -0.0190498 -7.10724e-21)
(1.04654 0.00865841 5.64045e-21)
(1.04812 0.0010381 -6.56329e-21)
(1.03881 -0.00332726 0)
(1.01161 -0.000815664 0)
(1.00003 -0.000143006 0)
(0.670841 -0.0441261 -1.90248e-20)
(1.07099 -0.0327473 0)
(0.70592 -0.00485691 -1.18818e-19)
(0.987287 -0.00899854 -5.34871e-21)
(1.23494 -0.0812562 -4.85454e-20)
(1.12495 -0.0308959 1.17192e-19)
(0.999146 -0.00704402 -1.62815e-21)
(1.02043 -0.00688625 0)
(1.06892 -0.0369144 0)
(1.00083 -0.00223955 3.13764e-21)
(1.00907 -0.0532218 -3.11737e-22)
(0.95109 -0.0365909 6.47732e-21)
(1.02914 -0.0312094 0)
(1.19428 0.0376399 -1.692e-20)
(0.636743 -0.554514 0)
(1.01706 -0.00228908 3.59961e-21)
(0.487427 0.139577 -4.52453e-21)
(0.00409546 0.0472741 -1.0379e-19)
(0.86361 -0.106058 -2.42258e-20)
(1.22819 -0.0700706 1.08267e-21)
(0.976622 -0.754792 5.56876e-20)
(0.934998 -0.0723095 0)
(1.05982 0.0272422 -1.40735e-20)
(1.08794 -0.0265901 -2.18397e-20)
(0.290646 0.111174 -6.36307e-20)
(1.06928 -0.0333761 -4.61285e-23)
(1.08801 0.0427814 0)
(1.0051 -0.0328409 -3.29967e-22)
(0.41024 0.213397 6.57173e-21)
(1.12465 -0.0181119 -4.60599e-20)
(0.97064 -0.424561 1.20717e-20)
(1.18064 0.0862014 -1.90411e-20)
(-0.204376 -0.00569861 -5.14276e-20)
(1.06808 -0.0358206 0)
(0.999055 -0.0259234 0)
(1.1594 -0.0497355 -1.83077e-20)
(1.31014 -0.161315 0)
(1.0065 -0.0519211 -4.07521e-22)
(1.16803 -0.372868 9.07559e-21)
(0.977329 -0.0288657 0)
(0.96274 0.203669 1.19981e-20)
(1.01187 -0.0546386 0)
(1.02809 -0.0144783 -5.92341e-21)
(1.00936 -0.00551524 -1.38614e-22)
(1.00185 -0.00165694 1.79514e-21)
(0.0299718 0.0573635 0)
(0.94051 0.202625 4.96075e-20)
(0.986759 -0.0224353 0)
(1.06175 0.159849 1.88256e-20)
(0.952272 -0.121476 -4.318e-21)
(0.769047 0.188571 -2.47336e-20)
(-0.198719 0.0201521 2.81057e-20)
(1.06721 0.189318 4.56611e-20)
(1.30688 -0.033439 -1.15939e-19)
(1.0345 0.00256868 5.5656e-21)
(0.163993 0.064315 -1.66318e-20)
(1.08225 0.0661718 1.81021e-20)
(1.01434 -0.0319567 -8.19697e-22)
(1.11055 0.028779 1.26459e-20)
(0.38602 0.126661 6.12751e-21)
(0.467283 0.0782468 0)
(1.04965 -0.0129573 -1.02769e-20)
(0.955213 -0.00782102 6.43197e-22)
(1.01121 -0.0335128 -2.75157e-23)
(1.01485 -0.000359809 1.48475e-22)
(0.388287 0.0363032 6.46898e-20)
(1.18967 0.0441955 1.61211e-20)
(0.0891403 0.0598183 -4.07808e-20)
(0.118102 0.0529617 -2.50679e-20)
(0.981466 -0.019735 0)
(1.00071 -0.00216653 2.01928e-21)
(1.14899 0.00194697 -1.83201e-20)
(1.00003 -0.000558359 2.82543e-21)
(1.01033 -0.0123292 -4.61867e-22)
(0.951485 -0.0349979 -1.09445e-20)
(1.04638 0.00628577 -1.17269e-20)
(1.19939 0.0368825 3.52294e-20)
(1.12198 -0.0171547 8.8469e-20)
(1.20923 -0.233323 -5.49381e-20)
(0.240573 0.0994225 3.00594e-20)
(1.15197 -0.152794 8.12167e-20)
(0.99921 -0.00559941 0)
(0.948748 -0.0948802 8.41694e-21)
(1.19707 -0.155597 0)
(0.347264 0.120826 0)
(1.08675 0.0408374 0)
(1.27373 -0.362806 1.81524e-19)
(1.14901 -0.0535028 0)
(0.985985 -0.0228426 -2.85391e-21)
(1.06514 0.158541 0)
(0.947102 0.187452 7.81981e-21)
(1.01147 -0.0485051 0)
(1.02587 -0.00433589 7.093e-21)
(0.648825 -0.285859 -2.74042e-20)
(0.0467036 0.0164697 0)
(1.2142 -0.242389 0)
(1.00195 -0.00162561 -2.12419e-21)
(-0.120864 0.0204109 -9.33922e-20)
(-0.0197877 0.0126276 4.00915e-20)
(1.31293 -0.165865 1.2797e-20)
(1.02116 -0.00519656 0)
(-0.153801 -0.0131989 4.6329e-20)
(-0.237484 -0.000854755 -1.43921e-19)
(0.49664 -0.185158 0)
(1.05931 -0.039033 1.13438e-20)
(0.999375 -0.000121352 9.53248e-21)
(0.713962 0.0354495 0)
(1.00001 -0.000120634 7.94728e-21)
(1.10946 0.142013 -1.85697e-20)
(-0.266144 0.00910524 2.57561e-22)
(1.25843 -0.0215485 3.20014e-20)
(-0.191074 -0.00793075 3.87255e-20)
(1.13431 0.0721085 0)
(0.0224042 0.0433234 0)
(1.14583 0.0378646 0)
(0.989513 -0.0326056 -5.51797e-21)
(0.956149 -0.00683389 0)
(-0.237408 0.00204553 0)
(0.656898 0.214145 5.89351e-20)
(-0.253084 -0.000470103 -1.64043e-19)
(0.417891 0.240789 2.38951e-20)
(1.03725 -0.00582762 0)
(1.11313 0.141075 1.21124e-19)
(1.00002 -0.000442174 0)
(1.16145 -0.0608867 4.18551e-20)
(1.11654 0.0818568 0)
(1.20778 -0.148264 -6.09768e-20)
(0.999681 -0.00486123 1.05612e-21)
(0.967892 -0.0796704 4.32387e-21)
(1.20511 0.107211 0)
(0.442777 0.129748 0)
(-0.221059 0.00190413 3.96444e-21)
(-0.268823 0.0019765 1.15348e-20)
(1.1101 -0.0790656 -4.45121e-20)
(1.0387 -0.126981 2.15569e-20)
(1.17557 0.1484 -1.30353e-20)
(0.967131 -0.0119025 0)
(1.02756 -0.00824 1.86174e-22)
(0.996578 -0.0125668 0)
(1.05758 0.0137364 1.15267e-20)
(1.08734 0.0747381 -3.1895e-20)
(0.995784 -0.00446137 3.12441e-21)
(1.11548 0.078051 2.02413e-20)
(1.00717 -0.0120361 1.65872e-22)
(1.00285 -0.000189092 0)
(1.00512 -0.00741276 -2.57303e-23)
(0.152982 0.0754572 7.23969e-20)
(0.96422 -0.0131598 0)
(1.00002 -0.000391228 -2.1921e-21)
(1.14546 -2.30484e-05 -1.81791e-20)
(1.14746 -0.0242684 7.43417e-20)
(1.01724 -0.00245884 -2.63953e-21)
(-0.301583 0.00776327 -4.03009e-20)
(1.03725 -0.0102684 6.93721e-21)
(1.02977 0.00146889 -3.8312e-21)
(1.15214 -0.0744895 4.27439e-20)
(0.884763 -0.131572 -2.28514e-20)
(1.06333 0.00233883 0)
(1.02611 -0.0529089 -5.39564e-21)
(1.29781 -0.361739 -1.39459e-19)
(0.862003 -0.111585 2.45026e-20)
(1.0644 -0.120492 1.13541e-20)
(0.967295 0.190018 1.36747e-20)
(1.06794 -0.119328 0)
(0.567505 0.222931 -1.59367e-20)
(0.907274 -0.0185595 0)
(1.19374 0.0435169 1.83387e-20)
(0.504383 -0.23515 -1.82594e-19)
(0.364875 0.0255037 -7.65856e-20)
(1.02537 -0.00422034 -6.40917e-21)
(0.31644 0.112616 8.55576e-20)
(1.28298 0.11618 -1.21989e-19)
(1.01209 -0.00385252 0)
(-0.0988578 0.0328855 0)
(0.997964 -0.00482212 0)
(1.00556 -0.00735942 -6.3538e-22)
(1.11999 -0.0280956 4.47448e-20)
(1.00372 -0.0070226 0)
(1.1375 -0.244609 -5.80936e-20)
(0.323731 0.116988 3.13461e-21)
(1.02045 -0.0061594 -5.45011e-21)
(0.202126 -0.116186 0)
(1.03391 0.00245331 -1.01788e-20)
(1.11506 -0.0488037 9.41525e-21)
(0.661612 0.216099 0)
(1.01705 -0.00189088 -9.16345e-22)
(0.0252784 0.0233599 9.43718e-20)
(1.01315 -0.0672773 2.93944e-22)
(1.03681 -0.0137825 0)
(0.997304 -0.017021 1.08154e-21)
(0.996275 -0.0128393 -1.50193e-21)
(1.26195 -0.00268306 7.18872e-20)
(0.735479 -0.201803 -2.55362e-20)
(-0.317059 0.00399034 1.21924e-19)
(1.1572 -0.151958 -6.54501e-20)
(0.111967 0.0105782 -4.52738e-20)
(1.1515 -0.00423435 5.35699e-20)
(0.995971 -0.00422652 -5.27391e-21)
(1.20374 0.117981 0)
(-0.255521 -0.00083741 4.56618e-20)
(1.27707 -0.0275605 1.23498e-19)
(0.750652 -0.225554 1.71667e-20)
(1.24358 -0.0188586 -8.73857e-20)
(1.07759 0.065795 0)
(1.06854 -0.060976 1.91084e-21)
(1.2635 -0.00955401 0)
(1.02352 -0.0507413 -2.4818e-21)
(1.26441 -0.440855 6.03839e-20)
(1.00204 -0.00103019 0)
(-0.142369 -0.0194123 0)
(1.05103 -0.0114058 0)
(0.76778 -0.233516 4.36896e-20)
(0.929478 -0.0881702 -2.54604e-20)
(1.03967 -0.0287103 -4.46905e-21)
(0.899924 -0.017037 0)
(0.954919 -0.0047992 1.88516e-20)
(1.00968 -0.0118762 3.33774e-22)
(1.30723 -0.0990155 -1.44193e-19)
(1.01112 -0.0678059 -8.58117e-22)
(1.005 -0.00762403 1.7398e-21)
(1.11546 0.0155328 -2.48778e-20)
(1.19304 -0.0715057 -2.95833e-20)
(1.26555 -0.000273107 -1.23273e-19)
(1.31546 -0.156862 -1.12028e-19)
(1.08515 0.21067 6.28968e-20)
(-0.214069 0.00411862 1.52206e-20)
(1.00077 -0.00215724 -9.31131e-22)
(0.999468 -0.00018481 0)
(-0.112142 0.0235747 7.87264e-20)
(0.995266 -0.00821675 -5.36774e-21)
(1.25711 -0.285961 -9.96098e-20)
(1.1359 0.0760841 0)
(1.05597 -0.0395025 -2.40984e-21)
(0.995915 -0.000717586 0)
(1.06238 -0.110882 -1.03136e-20)
(0.990491 -0.000881346 -4.39118e-21)
(1.03587 -0.0136576 -8.37722e-21)
(1.08377 -0.000342902 -4.82205e-20)
(1.25402 -0.277757 9.95518e-20)
(1.21294 -0.22918 -3.45182e-20)
(0.649333 -0.303743 -3.45508e-20)
(1.12411 -0.172735 1.00084e-20)
(1.00059 -0.00309146 0)
(1.11147 0.0512413 0)
(0.665861 0.0151141 -1.41889e-19)
(1.00671 -0.0115133 0)
(1.11397 0.0842748 0)
(1.0614 -0.0262689 -1.0939e-20)
(0.328919 0.117669 -6.25465e-20)
(0.954734 -0.0391994 -2.96041e-20)
(0.0145809 -0.00180777 -5.20242e-20)
(1.00213 -0.000918089 0)
(1.29168 0.0983733 0)
(1.00002 -0.000294506 2.85553e-21)
(1.15008 0.0544835 0)
(1.01382 -0.0326057 -1.67334e-21)
(1.05682 0.0129764 -6.21395e-22)
(1.0605 0.0252886 1.51303e-20)
(1.01723 -0.00205668 1.92154e-21)
(1.02924 0.00152905 -4.64729e-21)
(1.0165 -0.00343353 0)
(0.908071 0.200856 3.38939e-20)
(-0.228386 0.00193595 1.31326e-19)
(1.08977 0.0112222 0)
(0.0714789 0.0254456 -9.24888e-20)
(0.985082 -0.022312 1.64374e-21)
(1.11063 0.0149449 0)
(1.08444 -0.0419851 3.48329e-20)
(1.24141 0.0917534 3.77741e-20)
(-0.0591869 -0.0209205 0)
(1.08926 0.0129052 -1.49234e-20)
(1.01932 -0.00234142 0)
(0.988937 -0.428411 -2.17964e-20)
(1.00708 -0.0116918 0)
(0.984729 -0.0216376 0)
(1.08545 -0.0373759 1.00627e-20)
(-0.301323 0.00534575 0)
(0.587407 -0.0242828 0)
(1.31875 -0.0148488 -8.14635e-22)
(1.07452 0.19389 0)
(0.721876 -0.202872 -8.09909e-21)
(0.948392 -0.0150964 -1.08729e-20)
(1.00564 -0.0252463 0)
(1.28127 -0.430505 -6.40243e-20)
(1.00544 -0.00756475 0)
(1.30787 -0.0663303 -1.31299e-19)
(1.08459 -0.0244918 0)
(0.999219 -0.000352957 6.27433e-21)
(0.412861 0.123148 5.55979e-20)
(0.286774 0.0140647 0)
(0.996992 0.000275765 0)
(-0.301048 0.0013941 -1.48408e-19)
(1.0452 -0.0876757 0)
(1.03471 0.0891414 0)
(0.931474 -0.331602 -1.24791e-21)
(1.07851 0.200039 0)
(0.256579 0.0144328 0)
(1.25256 -0.333898 5.46924e-20)
(1.0027 -0.000703237 0)
(1.01506 -2.05745e-05 0)
(0.262913 0.103864 0)
(1.00148 -0.0301643 2.07696e-21)
(1.0307 -0.0208942 0)
(1.08684 -0.0245147 2.13774e-20)
(0.999982 -0.0307958 0)
(0.961241 0.202277 -1.62065e-20)
(1.0722 0.154542 0)
(1.1521 2.99308e-05 -9.38467e-21)
(0.00807565 0.00131543 1.01393e-19)
(1.13286 0.00130196 -5.28821e-20)
(1.11629 0.111213 -1.63288e-20)
(1.06058 -0.0255135 -5.07353e-21)
(1.00284 -0.00428048 3.27387e-23)
(1.01513 -0.00144995 0)
(1.0097 -0.00664856 9.66672e-22)
(-0.310161 0.00517121 -7.44045e-20)
(0.395309 0.0326349 -1.56633e-20)
(1.0423 0.156308 4.26449e-20)
(0.995706 -0.000551343 3.01152e-21)
(1.01909 -0.00212753 -2.62011e-21)
(1.06089 0.0262851 0)
(1.01561 -0.0218504 1.06357e-21)
(1.12187 -0.030782 -4.78004e-20)
(0.970713 -0.0849832 -1.72067e-20)
(1.22615 -0.480726 0)
(0.454132 0.138081 -8.55763e-20)
(1.11816 0.0755687 -2.17044e-20)
(1.16631 0.155888 -8.68005e-20)
(1.04496 0.15856 0)
(1.02976 -0.0195044 0)
(1.26014 -0.0121832 0)
(1.00604 -0.0256742 -1.34617e-22)
(-0.051179 -0.01963 -9.8273e-20)
(1.28766 0.10912 7.75994e-20)
(0.00521165 -0.0173314 8.37425e-20)
(0.859178 0.0239915 -2.92722e-20)
(1.04716 0.00612199 1.35722e-20)
(1.08378 0.00152508 -6.0966e-21)
(1.16693 -0.658549 6.70007e-20)
(0.00523483 0.000464574 9.49651e-20)
(0.0345622 -0.0209036 2.59103e-20)
(0.78952 -0.102151 -2.40965e-20)
(1.20211 -0.158644 -6.43857e-22)
(-0.242166 0.00140939 2.8647e-20)
(1.00184 -0.00194441 1.88371e-21)
(1.17072 0.147787 0)
(0.581232 -0.63383 0)
(1.07062 0.110524 -2.26968e-20)
(1.00193 -0.00189365 -1.99888e-21)
(1.03246 -0.0217642 0)
(1.12159 -0.0138378 0)
(0.0747578 0.0489765 3.70709e-21)
(0.34405 -0.667393 3.71523e-20)
(1.01848 -0.310768 1.2545e-20)
(0.988368 -0.00757715 -8.72154e-21)
(1.05646 0.0112196 1.04185e-20)
(0.889651 -0.0555257 9.88394e-21)
(0.173308 -0.192443 1.13822e-19)
(1.03868 -0.0279975 4.51249e-21)
(1.23652 -0.303632 -4.5795e-20)
(1.0039 -0.0146332 -7.81565e-23)
(0.986074 -0.0508303 -8.66574e-21)
(1.24903 -0.0828706 3.3257e-20)
(1.00661 -0.0112079 1.40935e-22)
(0.998425 -0.0076667 4.31562e-22)
(1.03942 -0.0511885 -6.52166e-21)
(1.00248 -0.10018 0)
(1.00314 -0.00430223 0)
(1.02393 -0.0499593 2.31249e-21)
(1.0217 -0.00522489 -3.52143e-21)
(1.08641 0.207498 -5.78393e-20)
(1.00523 0.153121 2.26997e-20)
(0.429 0.0565429 0)
(1.02482 -0.00493019 -4.15269e-21)
(0.872449 -0.204854 0)
(0.993096 -0.00204941 0)
(1.20346 0.122995 0)
(1.24947 0.062146 4.07684e-21)
(1.02789 -0.156029 1.54977e-20)
(1.00356 -0.0147179 1.94355e-21)
(1.05112 -0.00670718 -1.26652e-20)
(1.16801 -0.396373 -4.80951e-20)
(1.16832 0.0857461 4.17643e-20)
(1.09009 -0.0263783 0)
(-0.269173 0.0124036 -1.22887e-19)
(1.06759 0.108572 -1.71678e-20)
(0.992031 -0.0220521 0)
(0.981926 -0.0206552 0)
(0.609381 0.215596 -1.75061e-20)
(-0.0756496 -0.0326468 -1.07221e-19)
(1.10761 -0.19081 0)
(1.01641 -0.00467866 -2.34497e-22)
(1.05253 0.182224 -2.3315e-20)
(1.00072 -0.00296649 5.17618e-21)
(1.11178 -0.0485301 -5.57857e-20)
(1.02005 -0.00846634 0)
(1.29957 -0.172525 0)
(-0.0320922 -0.000419982 1.17816e-19)
(1.00675 -0.00772425 0)
(1.03846 -0.0023645 6.65172e-21)
(1.29092 -0.0570357 1.05481e-19)
(0.99867 -0.0266432 1.49661e-21)
(0.791898 0.141026 -7.29129e-21)
(-0.272346 0.00447853 -8.96642e-21)
(1.10727 0.053367 0)
(0.965784 -0.0107908 1.22001e-20)
(0.99902 -0.000969049 -1.89646e-21)
(1.02021 -0.0082589 0)
(1.00203 -0.000747494 0)
(-0.340863 0.00294067 3.83805e-20)
(1.24755 -0.222071 0)
(1.2144 -0.141591 -7.6294e-22)
(1.03385 -0.047927 7.20839e-21)
(-0.0711532 0.0400564 0)
(1.00495 -0.000260244 2.4063e-23)
(0.995088 -0.0161442 7.0583e-21)
(0.556466 0.0086301 2.30973e-19)
(1.02614 -0.0128509 -5.67278e-21)
(0.233118 0.0890924 1.2444e-19)
(1.01698 -0.00151766 0)
(0.921567 -0.0917168 0)