/*--------------------------------*- C++ -*----------------------------------*\
| =========                 |                                                 |
| \\      /  F ield         | OpenFOAM: The Open Source CFD Toolbox           |
|  \\    /   O peration     | Version:  v2012                                 |
|   \\  /    A nd           | Website:  www.openfoam.com                      |
|    \\/     M anipulation  |                                                 |
\*---------------------------------------------------------------------------*/
FoamFile
{
    version     2.0;
    format      ascii;
    class       volScalarField;
    location    "650";
    object      nut;
}
// * * * * * * * * * * * * * * * * * * * * * * * * * * * * * * * * * * * * * //

dimensions      [0 2 -1 0 0 0 0];


internalField   nonuniform List<scalar> 
18758
(
0.00692807
0.0129939
0.00685
0.00694222
0.00636748
0.00681587
0.00673997
0.00620989
0.00641663
0.00643639
0.0126516
0.00989188
0.00442088
0.00474094
0.00673677
0.00670947
0.0107282
0.00668733
0.0067334
0.00443246
0.00944254
0.000336312
0.00682618
0.00681107
0.000358626
0.000644845
0.014074
0.000690995
0.000564516
0.0167535
0.00240939
0.0134509
0.00646218
0.00063939
0.00592464
0.0172485
0.00462221
0.00636984
0.00499452
0.0067807
0.0134266
0.00635227
0.0169095
0.00676862
0.00676688
0.00208717
0.00641037
0.000588093
0.0112077
0.00700833
0.014682
0.017161
0.00703426
0.00661703
0.000348052
0.0041001
0.00679412
0.00470263
0.000670538
0.00679453
0.00679256
0.00677326
0.0134249
0.0125739
0.00680253
0.00256299
0.00684399
0.00671739
0.00075572
0.00669033
0.0182367
0.000878543
0.00674486
0.00301258
0.00141844
0.00260754
0.00416005
0.0126362
0.00640042
0.0171196
0.000470767
0.0048324
0.0118737
0.00140044
0.00673434
0.000377551
0.00244561
0.00279327
0.0128258
0.000380085
0.0175575
0.00685739
0.000628833
0.0107513
0.00674231
0.006702
0.0067335
0.000922051
0.0136622
0.0067457
0.00220502
0.00232616
0.0067165
0.00670157
0.00187971
0.00926895
0.000597684
0.0180926
0.00844989
0.00689611
0.00670998
0.00970636
0.00666535
0.00684713
0.00234139
0.0138214
0.000989778
0.00678194
0.0214235
0.00674315
0.00681953
0.00620886
0.00674129
0.00674712
0.0133693
0.00660557
0.00679138
0.00674697
0.000480114
0.0124897
0.000643245
0.00688078
0.00596018
0.00673035
0.00678296
0.00683405
0.00272388
0.00675206
0.000796273
0.000500168
0.00659983
0.0122542
0.00118408
0.00813577
0.0133796
0.000794311
0.0031009
0.000470558
0.0120873
0.0206838
0.0124493
0.0112867
0.00678492
0.00625402
0.0138271
0.0146236
0.000614329
0.000403805
0.00143275
0.0142362
0.00936826
0.00678018
0.00823745
0.00260853
0.0021363
0.00679845
0.00677781
0.0114266
0.0126326
0.00875511
0.00979635
0.00683558
0.000526607
0.0171143
0.0105903
0.00676602
0.00673941
0.000494093
0.000578409
0.00485531
0.00669251
0.00549975
0.000374619
0.00390107
0.0136177
0.00672382
0.0169018
0.00230583
0.0103977
0.0022004
0.0108596
0.0067237
0.000853854
0.00260828
0.00667867
0.00441871
0.00108292
0.00677975
0.0103207
0.00682012
0.00681603
0.000439204
0.00213047
0.00670766
0.00671091
0.00854905
0.00680551
0.00588569
0.0124738
0.0118953
0.00682941
0.000580692
0.00682535
0.00679451
0.00542018
0.0067387
0.00675063
0.000685299
0.00678338
0.014433
0.00265116
0.00680526
0.00122846
0.000495664
0.00206715
0.0216017
0.00144295
0.000366754
0.0102117
0.00680078
0.000689986
0.000893589
0.00999927
0.00686336
0.00670653
0.00680524
0.00111671
0.0118808
0.00175254
0.00681304
0.00671297
0.00110763
0.000655298
0.00683326
0.0193805
0.000989222
0.00670634
0.00670322
0.00680243
0.00674833
0.00980322
0.0067811
0.0154299
0.00680496
0.00686297
0.00375163
0.00679916
0.00075815
0.00672149
0.00294181
0.00661656
0.00675597
0.00670663
0.0008451
0.0149308
0.013372
0.00675889
0.000713742
0.00678628
0.0068201
0.0221655
0.00138827
0.00681956
0.00679075
0.00669344
0.00603274
0.00619078
0.00676895
0.00679216
0.00523264
0.00670236
0.00687648
0.00671192
0.00351052
0.00673746
0.00678578
0.00667186
0.000629513
0.00670378
0.00670222
0.00682993
0.00504137
0.00679388
0.00682459
0.00684167
0.00685416
0.0210185
0.00689641
0.00682787
0.0140279
0.00363636
0.00681129
0.00680719
0.0107436
0.0111128
0.00669182
0.00699246
0.00966541
0.00675721
0.00415733
0.00671226
0.0140277
0.000813921
0.000608558
0.000552711
0.000742059
0.00671103
0.013451
0.000542426
0.00684037
0.00063125
0.00148237
0.0209544
0.00671148
0.00671204
0.0121557
0.0196704
0.00673676
0.0130952
0.00111565
0.00612324
0.00802783
0.00671002
0.00679859
0.00671606
0.00683766
0.00680984
0.00687632
0.00575046
0.00680935
0.00681501
0.00681132
0.00635099
0.00890289
0.00675457
0.0133538
0.0142511
0.00673228
0.00176227
0.012783
0.000338757
0.0126416
0.00142542
0.00672299
0.0121311
0.00302664
0.00236122
0.00681141
0.00631299
0.00679789
0.00677649
0.000550224
0.00322696
0.0130863
0.001545
0.00282552
0.00670677
0.00280812
0.00492744
0.000960864
0.0114113
0.00976929
0.0110267
0.00107097
0.0136007
0.00198138
0.00685388
0.00135056
0.000423324
0.0126018
0.0134036
0.00676922
0.00681384
0.000336469
0.0127229
0.0119806
0.0224491
0.0130946
0.00680605
0.00947351
0.00637455
0.00671018
0.00490383
0.00606007
0.00674372
0.00683814
0.00679633
0.00673076
0.00688864
0.00683801
0.00682502
0.00316878
0.0039837
0.00210136
0.00206849
0.00212388
0.0119214
0.00381329
0.000458604
0.00683278
0.00681836
0.0164972
0.0057495
0.00681085
0.00803439
0.000962863
0.00626587
0.00679747
0.00899475
0.00676192
0.00351738
0.00668545
0.00956338
0.0155084
0.0121844
0.00683035
0.00889206
0.000667692
0.00674078
0.00674307
0.0068343
0.0105568
0.00684215
0.0068154
0.00202828
0.00176706
0.00680694
0.0067368
0.0060521
0.00572313
0.000625025
0.00486723
0.00684975
0.00152734
0.00668447
0.00692053
0.00041602
0.00671242
0.00224573
0.00682713
0.00554034
0.00684414
0.00550523
0.00687372
0.00672997
0.0124054
0.0119458
0.00667336
0.0031853
0.0066637
0.00670786
0.00682507
0.00682975
0.00955492
0.0148934
0.00680674
0.0027841
0.00273757
0.000531239
0.0184126
0.000873685
0.0185267
0.00677263
0.000481079
0.00106625
0.00265211
0.00629799
0.014152
0.00452541
0.00664451
0.00678495
0.00674203
0.00670576
0.00671202
0.006706
0.00671221
0.00425225
0.00685056
0.00667809
0.000616558
0.00686981
0.0068401
0.00677141
0.00668929
0.00460194
0.00998018
0.00680568
0.0150617
0.00684565
0.00204031
0.000366957
0.0145156
0.00101224
0.00672666
0.00672306
0.0149117
0.00753613
0.00420955
0.00679561
0.0099537
0.00374682
0.00667214
0.00683351
0.00840813
0.00532515
0.000489196
0.00428519
0.00673875
0.00302354
0.00670549
0.00675444
0.00685468
0.0068457
0.00679905
0.00679515
0.0154021
0.00667851
0.00640149
0.00221844
0.00667393
0.00667889
0.00684111
0.00429458
0.00280142
0.0042218
0.0067457
0.00219284
0.00471734
0.00265784
0.00680201
0.00681792
0.00680439
0.00681109
0.00680901
0.014824
0.0140028
0.0067002
0.00679336
0.00520508
0.0119248
0.0066887
0.00674663
0.00671857
0.00667803
0.00677855
0.00679914
0.00675343
0.00670877
0.000634798
0.00674286
0.00678512
0.000890152
0.0142755
0.00669844
0.0067887
0.00675801
0.00683706
0.00672831
0.0067401
0.00653471
0.0165478
0.00506562
0.00868301
0.00675586
0.00168252
0.00678402
0.00682568
0.000861869
0.00668918
0.00683917
0.0149004
0.00684795
0.00429592
0.00168224
0.00681879
0.00672539
0.00974122
0.00678062
0.00431049
0.00720421
0.00682709
0.00684648
0.0015261
0.00561172
0.00272645
0.00676115
0.00299007
0.00867876
0.0180784
0.00670752
0.0141128
0.0066751
0.00683934
0.00673848
0.00700112
0.00213981
0.000918097
0.00680106
0.0038354
0.00673802
0.00261567
0.00807477
0.00670591
0.00705059
0.00370604
0.0119926
0.00599866
0.0051433
0.00673045
0.00703907
0.00100011
0.00681838
0.00673259
0.00668924
0.00672263
0.00618574
0.00174461
0.0151631
0.0147769
0.00544361
0.00660988
0.00674174
0.00669896
0.00571204
0.000336542
0.00677802
0.00114978
0.0115283
0.0147056
0.00683815
0.00683584
0.0014165
0.0171335
0.00667437
0.0119601
0.00678449
0.00688538
0.00213625
0.00675268
0.00680799
0.00674175
0.00670319
0.00674941
0.00120604
0.000818374
0.0128146
0.00679217
0.00678425
0.0188758
0.0067516
0.0221712
0.0155792
0.00678912
0.0056124
0.00666528
0.00678216
0.00327638
0.0188747
0.0184167
0.0135823
0.005868
0.0139819
0.00667831
0.00110205
0.0114547
0.00253956
0.00680428
0.00886713
0.00419131
0.00175415
0.0100304
0.0137766
0.00677403
0.0156294
0.00681918
0.00114549
0.000550491
0.00679209
0.00574544
0.00429907
0.00426078
0.00301758
0.00673841
0.00667873
0.00681136
0.00685848
0.00240479
0.00128885
0.00679901
0.0186295
0.00663002
0.00682197
0.00251198
0.00667689
0.00801955
0.00671221
0.00672412
0.0163576
0.00669881
0.00679184
0.0133518
0.000582091
0.000542273
0.00672273
0.00681645
0.00128264
0.0068098
0.0162389
0.00347697
0.00499757
0.00587455
0.00682177
0.00667631
0.0104893
0.00667712
0.0107933
0.000545677
0.00492385
0.0186745
0.00681555
0.0064455
0.00362379
0.00139099
0.00328343
0.00676483
0.0162515
0.00684401
0.013349
0.00668972
0.0089804
0.00681183
0.00681398
0.00404311
0.0135146
0.00671158
0.00682471
0.00597533
0.00672145
0.00672156
0.014328
0.0162222
0.0068079
0.00671845
0.0066907
0.000524525
0.00090065
0.00466108
0.00670376
0.00579926
0.00681519
0.0068177
0.00212433
0.0126157
0.00670554
0.00127258
0.00917541
0.00672764
0.00577038
0.00674031
0.00598401
0.00670565
0.00678717
0.00361122
0.00682259
0.000945149
0.00671123
0.00564884
0.0068108
0.00331947
0.000610893
0.00424725
0.00124649
0.00682149
0.00682084
0.0142077
0.0040326
0.00166488
0.00670395
0.00674895
0.00310281
0.00468416
0.0138928
0.00680904
0.00671312
0.00680496
0.00682078
0.00672063
0.0067329
0.0068329
0.0181729
0.00671316
0.00672704
0.0148934
0.00670866
0.000868283
0.00073945
0.00348948
0.0217275
0.0117044
0.0160414
0.00673175
0.00675112
0.00599492
0.00680729
0.00670765
0.00676037
0.00679008
0.00681439
0.0136732
0.000383483
0.00770514
0.00690465
0.00673868
0.00450555
0.00321612
0.00104044
0.00683968
0.00678451
0.00678503
0.0144948
0.00242867
0.0161016
0.0068571
0.000529324
0.00044967
0.00538397
0.00540471
0.00581749
0.00677465
0.00670135
0.00678797
0.000571039
0.00681808
0.00668622
0.000739353
0.00257986
0.00672307
0.0127826
0.00684541
0.00671198
0.00673144
0.00671125
0.0068062
0.00674136
0.0066748
0.00578975
0.00675053
0.00681992
0.0132248
0.0144802
0.00673277
0.014673
0.000400846
0.00680149
0.00680344
0.00680596
0.00680186
0.006734
0.00680126
0.00682374
0.00681253
0.00670605
0.00681085
0.00344246
0.00616119
0.00682887
0.0068068
0.00846139
0.00677846
0.0066879
0.0013485
0.00670726
0.00321104
0.00292311
0.00672572
0.00670454
0.00672735
0.00405054
0.00112528
0.00683328
0.0117121
0.00087572
0.000481472
0.00636527
0.00681049
0.00377711
0.00667846
0.00928738
0.00488893
0.00679124
0.000402384
0.00874007
0.00681365
0.0110813
0.000816283
0.00679657
0.00227079
0.00669093
0.00681356
0.00612511
0.00673791
0.00677676
0.00545351
0.00670717
0.00679343
0.0145335
0.00680511
0.00670858
0.00670541
0.00162989
0.00680803
0.00679172
0.00582775
0.00223943
0.00874474
0.00323984
0.0155891
0.00675855
0.00667699
0.00672616
0.0110749
0.00685796
0.00674383
0.00484347
0.00677956
0.0089155
0.0068196
0.00677935
0.00264007
0.00672783
0.000593858
0.00246071
0.00667682
0.00674866
0.0106346
0.00605494
0.00963243
0.00845271
0.00669751
0.00674374
0.00490109
0.00670325
0.00475647
0.0126506
0.00676815
0.0113902
0.00671165
0.00680008
0.00673863
0.00385433
0.00672701
0.0138361
0.00686919
0.00671095
0.0100409
0.0162593
0.00103473
0.00651384
0.00479249
0.00904467
0.00228059
0.00667416
0.00901334
0.0068678
0.00900755
0.0137356
0.00680551
0.006957
0.00682151
0.0167351
0.00672446
0.00137469
0.00680556
0.00260728
0.000364122
0.0067841
0.0066838
0.00673052
0.0107964
0.00977323
0.00678939
0.0035382
0.00680126
0.00670609
0.0121146
0.0067244
0.000428821
0.006725
0.00537158
0.00670985
0.00672724
0.00671116
0.00672665
0.000756569
0.00644981
0.00202493
0.00552333
0.00680543
0.00672538
0.00889822
0.00671087
0.0141722
0.00675452
0.0112994
0.00359316
0.0148539
0.00679634
0.00679545
0.00670672
0.0152987
0.0068518
0.0151259
0.00133112
0.00671139
0.0025604
0.00671041
0.00669855
0.00661362
0.00679457
0.00927235
0.00679267
0.00676032
0.0067758
0.00477068
0.0014018
0.00452438
0.00681317
0.00670415
0.00678066
0.00681158
0.0067225
0.00689294
0.00682419
0.00672931
0.00677411
0.00679471
0.000339872
0.000475835
0.00683594
0.00677764
0.00167948
0.006783
0.00991385
0.00245427
0.00681663
0.00828912
0.00687399
0.00679717
0.00680814
0.00569061
0.00653754
0.00678701
0.00379528
0.00827438
0.00686477
0.00148607
0.00682276
0.0147845
0.0025113
0.00678404
0.00674327
0.00918316
0.00677781
0.0068384
0.00364838
0.00613943
0.00683175
0.00678137
0.0124834
0.00316941
0.00683888
0.00690155
0.0052355
0.00684948
0.00674572
0.00324259
0.00678117
0.00254702
0.00685442
0.0068129
0.00681796
0.0115073
0.00621118
0.00672415
0.0115391
0.00668594
0.00681948
0.00683287
0.00644768
0.00678337
0.00815187
0.000451585
0.00890889
0.0171273
0.000694384
0.0203694
0.00683467
0.0114236
0.0118774
0.00680631
0.00536026
0.00682761
0.00674508
0.00625481
0.00679227
0.00140524
0.000908496
0.00685141
0.00668809
0.00166001
0.00684748
0.021501
0.00681232
0.00681946
0.00674166
0.00184316
0.00906325
0.00582259
0.00460952
0.00674063
0.00674318
0.000627068
0.00667856
0.00673294
0.000835031
0.00680534
0.00697409
0.0176135
0.000712685
0.0030412
0.00682938
0.00683985
0.00682058
0.00672665
0.0121234
0.000778904
0.0159208
0.00632557
0.0193859
0.0068102
0.00803279
0.0163565
0.00690964
0.000367967
0.0109817
0.00640167
0.0164007
0.000499879
0.00229551
0.00668483
0.00673757
0.00681497
0.00160959
0.00670478
0.00682845
0.00402146
0.00731713
0.00898812
0.014018
0.000533846
0.00695715
0.00656489
0.00674894
0.00672291
0.00881032
0.00091466
0.00683233
0.00576349
0.00219567
0.0120982
0.011912
0.00479924
0.00114741
0.00667664
0.0102826
0.0068011
0.0108538
0.00693007
0.00251784
0.000398743
0.000496722
0.00674231
0.00674685
0.0110111
0.00666232
0.000338763
0.00681084
0.00682445
0.00601313
0.00646694
0.00684407
0.0139951
0.00681747
0.0189178
0.0152638
0.00376089
0.010975
0.00135347
0.0145311
0.00667722
0.00239183
0.0142563
0.00600901
0.00670912
0.00737656
0.0112479
0.00673508
0.00670958
0.0164898
0.00681766
0.00676518
0.000809014
0.00855495
0.00680051
0.00239261
0.00260159
0.00357953
0.00554172
0.00577449
0.0158359
0.00375719
0.00677284
0.00673666
0.00907064
0.00670352
0.0219325
0.00669943
0.00670395
0.0165112
0.00676205
0.00674382
0.00367372
0.00667579
0.00570714
0.0067267
0.00675205
0.00673617
0.000428716
0.00679828
0.0131117
0.000325742
0.00715283
0.00804589
0.00603736
0.00669974
0.00670272
0.0144456
0.00624811
0.00680271
0.0124145
0.00541732
0.0104807
0.0067858
0.00669454
0.00669639
0.00678795
0.00680412
0.00674713
0.00680079
0.00679856
0.0067221
0.0143485
0.00683543
0.0155767
0.00677669
0.00673026
0.00696641
0.00139882
0.0181605
0.015094
0.00356666
0.014671
0.000960625
0.0173225
0.00669656
0.00235656
0.00131169
0.0131105
0.00673096
0.0119301
0.0126353
0.000529386
0.00673532
0.0139337
0.00673079
0.00671182
0.00685892
0.00202526
0.00945283
0.00143535
0.0067693
0.00669461
0.00679199
0.00669091
0.00623134
0.00671945
0.0170802
0.000839389
0.00612507
0.00680005
0.00673372
0.00674008
0.0145747
0.00192398
0.00684004
0.00684299
0.00858411
0.00668937
0.00672463
0.00669457
0.00680446
0.00673364
0.00683472
0.00672489
0.00678762
0.00420285
0.00303895
0.00347461
0.00679231
0.000323336
0.00676806
0.000360169
0.00679439
0.000851895
0.00719317
0.00964873
0.00238901
0.000737365
0.0133934
0.0067032
0.0019047
0.00684688
0.00672505
0.00676877
0.0067103
0.00209255
0.00279578
0.00416269
0.00211784
0.00676279
0.00679444
0.00412665
0.00706327
0.0066742
0.00104412
0.000602889
0.000379878
0.00264368
0.00683759
0.00681752
0.012142
0.00631891
0.00670571
0.00673669
0.000408373
0.00669621
0.00670577
0.0180821
0.000892934
0.00678805
0.00680208
0.00680083
0.0188365
0.0031739
0.0134971
0.00107201
0.00672629
0.00674962
0.0150909
0.00442772
0.00642382
0.00595476
0.00582038
0.00694671
0.00670447
0.00477679
0.000775159
0.00205725
0.00976517
0.0166944
0.00199568
0.0141076
0.0151024
0.0067968
0.015895
0.00135028
0.00683274
0.00512955
0.00682069
0.000410264
0.000583956
0.0131684
0.00603308
0.00473942
0.00263031
0.009408
0.00673485
0.00668895
0.00795079
0.00671425
0.0067301
0.00671304
0.0068153
0.00677712
0.00681415
0.00673323
0.00673051
0.00652116
0.00883864
0.00675416
0.00675559
0.00945228
0.0115365
0.00667625
0.00066944
0.00431816
0.00125265
0.00680902
0.00671163
0.0152286
0.00681323
0.00107271
0.000559325
0.00670956
0.00657612
0.00651517
0.00682818
0.00791597
0.00327005
0.0151623
0.00681827
0.0068206
0.00672614
0.00683278
0.00671321
0.0141547
0.0027483
0.0067835
0.00648439
0.000319732
0.00684066
0.00678304
0.00670976
0.01661
0.0145911
0.00650813
0.00564102
0.00426149
0.00573877
0.0148363
0.00675981
0.00675902
0.00473801
0.00213246
0.0128945
0.0115329
0.00678492
0.0103319
0.0149046
0.0069356
0.00670542
0.00678109
0.00521257
0.00674691
0.00680713
0.00670713
0.00461811
0.0100892
0.00678432
0.00682005
0.00548194
0.00670834
0.00676111
0.00680145
0.0194201
0.00669856
0.00675414
0.014377
0.000633915
0.00236659
0.000513593
0.00678195
0.00682554
0.00674554
0.00673971
0.00670821
0.00681868
0.00871547
0.00662103
0.00675559
0.0067564
0.00678344
0.0105679
0.00418582
0.00676823
0.0207883
0.00677823
0.00496698
0.000432311
0.0173394
0.00659051
0.0056148
0.0030349
0.00509283
0.00669674
0.000533284
0.000900388
0.00669969
0.000596772
0.0137338
0.00679306
0.00646348
0.0192893
0.000679259
0.00681608
0.00418276
0.00313023
0.00672614
0.000879145
0.000330255
0.00673495
0.00678423
0.00123647
0.00184773
0.0067381
0.0013451
0.00579203
0.0067954
0.00462344
0.00252176
0.0103393
0.00350836
0.00640808
0.00669808
0.000794462
0.0151271
0.000598441
0.0021844
0.0067962
0.015159
0.00679932
0.00674428
0.00128608
0.00680304
0.00565817
0.0186243
0.00680445
0.00183102
0.00217363
0.0163723
0.00549464
0.0007329
0.00667383
0.00677388
0.00515864
0.00667308
0.00870098
0.0021392
0.0055717
0.00723791
0.000996323
0.0134677
0.0164872
0.00679411
0.00686144
0.00138338
0.000843074
0.00680289
0.00672892
0.00455082
0.00634983
0.00608965
0.00672506
0.00680687
0.00639918
0.00673802
0.00123916
0.0168371
0.00676899
0.00829106
0.00678479
0.0111738
0.000826811
0.00383531
0.00676676
0.00994958
0.0067762
0.00676813
0.00672667
0.0136565
0.00318666
0.0136246
0.00683393
0.00673981
0.00196405
0.000761774
0.00680355
0.000394028
0.000927917
0.000807598
0.0105163
0.00672404
0.006806
0.00878102
0.00667375
0.00679483
0.00617057
0.00677362
0.00684597
0.00672153
0.0067247
0.0042362
0.00671178
0.00226857
0.00631763
0.00681724
0.00142645
0.0127953
0.00534215
0.00668866
0.00672302
0.00673607
0.0067251
0.00672088
0.00678196
0.00043037
0.00679737
0.00687312
0.0055382
0.00372146
0.0121833
0.00673992
0.00681149
0.00510569
0.0056611
0.00227566
0.00390215
0.00679027
0.0067341
0.00453878
0.00482805
0.00688426
0.00417062
0.000400333
0.00672026
0.0139008
0.00681346
0.000845409
0.00420218
0.0157295
0.011565
0.00651672
0.00670684
0.0101846
0.00675403
0.0121552
0.0068702
0.0090766
0.0112099
0.00679884
0.0012028
0.00673626
0.00480021
0.000584676
0.0143253
0.00673937
0.00679006
0.00119317
0.00681555
0.00899416
0.00679677
0.00857841
0.00211631
0.00135854
0.000683805
0.012807
0.00677994
0.00673672
0.00675365
0.00957568
0.0165238
0.00682274
0.0068589
0.00682719
0.00668939
0.0067849
0.00678648
0.00670435
0.00412565
0.00681673
0.00670307
0.00659597
0.0169855
0.00213181
0.0149201
0.00677588
0.00277128
0.00678979
0.0024847
0.000366758
0.00460788
0.0133854
0.0067681
0.00349133
0.0066778
0.00222497
0.00678053
0.000984714
0.00885379
0.00685596
0.000729697
0.00677596
0.0152813
0.0157997
0.006707
0.00659695
0.00687097
0.00687924
0.0138434
0.00678085
0.00677849
0.00559363
0.0068156
0.00680074
0.00650998
0.0067233
0.00680839
0.0067186
0.00671239
0.0135746
0.0150259
0.000642648
0.00674806
0.00669404
0.00671846
0.00675029
0.00668641
0.00187297
0.00668908
0.00670044
0.00672419
0.0067064
0.00322062
0.00670967
0.00131425
0.00567984
0.00140383
0.00146451
0.00678697
0.00963448
0.00625045
0.000334429
0.00679204
0.00844924
0.00681518
0.00675803
0.00679742
0.00221306
0.00051551
0.00671224
0.0070182
0.00292861
0.00674077
0.00533939
0.0167554
0.00196554
0.0067337
0.00676372
0.00187397
0.00696201
0.00216632
0.00671394
0.00680467
0.00677323
0.00686133
0.00416645
0.0173169
0.00179493
0.00672315
0.0120472
0.00721067
0.00632351
0.00670709
0.00396481
0.00709367
0.00679668
0.00680369
0.00342419
0.0105623
0.00677203
0.00678645
0.00675581
0.00187454
0.00677425
0.0116912
0.00680016
0.00241276
0.00588442
0.00662786
0.00672451
0.0067039
0.00668133
0.00564073
0.00668855
0.018623
0.00770318
0.00200196
0.00661742
0.0067184
0.0124942
0.00679972
0.00669687
0.00585177
0.00108004
0.000616083
0.0112856
0.00644441
0.000495514
0.00640313
0.00242986
0.00679038
0.00581418
0.00678629
0.00700158
0.00107166
0.00681423
0.0125074
0.0171446
0.0117966
0.0136877
0.0102469
0.00419681
0.00878309
0.000511596
0.00684517
0.00676055
0.00676676
0.006727
0.00672746
0.0117769
0.0192117
0.0129871
0.00436376
0.00550627
0.00866347
0.0067133
0.00667861
0.00669473
0.00387655
0.00670914
0.00667903
0.00680202
0.0012529
0.0145098
0.00228683
0.00593692
0.00674475
0.00658979
0.00441428
0.00677183
0.00139098
0.000438037
0.00667354
0.000648697
0.00669559
0.0145582
0.00680313
0.000328098
0.00682347
0.00679157
0.00642375
0.00606193
0.00114036
0.00713133
0.0146335
0.00397126
0.00678689
0.00679462
0.00674283
0.0067209
0.00672495
0.00108529
0.00827029
0.00639534
0.00680798
0.00490739
0.00677045
0.0067711
0.006828
0.000532089
0.0140926
0.0173928
0.00680709
0.00524712
0.00669981
0.000643076
0.00427358
0.00131348
0.00417675
0.014118
0.0192138
0.00667965
0.00677847
0.00670834
0.00673512
0.00676994
0.00672573
0.0154997
0.00680355
0.00675412
0.00682203
0.00175667
0.00670691
0.0146164
0.00825597
0.0124637
0.00680319
0.0017398
0.00671761
0.0163969
0.00276838
0.00673052
0.0104316
0.0034615
0.000617298
0.00678428
0.00692775
0.00249173
0.00139788
0.000535502
0.00809528
0.000798021
0.000392473
0.00388008
0.00641251
0.00678018
0.00785901
0.00505025
0.0119776
0.00680975
0.00152006
0.00210632
0.0116739
0.00669996
0.0103297
0.00609695
0.00685695
0.00674893
0.00583284
0.000624208
0.00671992
0.0148955
0.00481617
0.000542997
0.00670675
0.00520417
0.00679469
0.00987575
0.0168877
0.00464421
0.00661012
0.013506
0.00758077
0.00681737
0.00171742
0.0193534
0.000656422
0.00137515
0.00629312
0.00471102
0.000902027
0.00674523
0.0142105
0.000854651
0.00676305
0.0141637
0.0120656
0.00136358
0.00688536
0.000462474
0.00693594
0.00670174
0.00102281
0.00685461
0.00050063
0.00678137
0.00606954
0.0151226
0.00482859
0.0173524
0.000427963
0.00237067
0.00406707
0.00486751
0.0190931
0.00995975
0.00465666
0.00679158
0.00675163
0.00514096
0.0067516
0.00671075
0.00220848
0.00672956
0.0067221
0.0022264
0.00678401
0.00668635
0.00726731
0.00940739
0.000601607
0.00685029
0.00678415
0.00332643
0.00677968
0.0067258
0.00671062
0.00669323
0.00165156
0.0048325
0.00331408
0.00305261
0.00676493
0.00667865
0.00277539
0.000593606
0.00947953
0.00667964
0.0068138
0.0044821
0.0067137
0.00196123
0.00280702
0.00836902
0.00612876
0.00315831
0.00677675
0.00489227
0.0144717
0.0137365
0.0143397
0.00472649
0.0067834
0.00669904
0.00477149
0.00231029
0.00985248
0.00675251
0.0074891
0.00667886
0.00682745
0.000605258
0.00672596
0.00951999
0.000619212
0.00813673
0.00673353
0.00260932
0.0012791
0.0183016
0.00678304
0.00676347
0.000815203
0.00839651
0.00926455
0.00770396
0.00958722
0.00676899
0.000366346
0.00584731
0.00678001
0.0136289
0.00692413
0.00673022
0.00676235
0.00673363
0.00439108
0.00230189
0.00569574
0.00127395
0.00674717
0.00673282
0.00678277
0.000743343
0.00491753
0.0011207
0.00671705
0.00681578
0.00531497
0.00504109
0.0067156
0.0143099
0.00680601
0.00692856
0.00510407
0.00670602
0.00269899
0.015881
0.0138203
0.000741587
0.00680436
0.00332366
0.00686704
0.0124554
0.00639837
0.00679839
0.0122167
0.00832182
0.00667392
0.00463426
0.00226301
0.00669648
0.013828
0.00703296
0.00548227
0.00668194
0.00502528
0.00648111
0.00449185
0.00669942
0.00262082
0.00675701
0.00903528
0.0170975
0.00672202
0.00675686
0.000397643
0.00299169
0.00673535
0.00678732
0.00670552
0.000971749
0.00440932
0.0028319
0.00683327
0.00684371
0.0068077
0.00622839
0.00683744
0.00676188
0.0136946
0.017813
0.0122444
0.0067655
0.00671271
0.00556945
0.0050221
0.000627982
0.00214999
0.000403524
0.0168591
0.00771945
0.00669579
0.00684583
0.00620153
0.00595934
0.00672345
0.00671637
0.0067174
0.00187703
0.0138801
0.00677503
0.00504757
0.016804
0.00822402
0.0067144
0.00673199
0.00715357
0.00670702
0.00680244
0.0068578
0.00674863
0.000622097
0.0068702
0.0147698
0.0136135
0.0068134
0.00140213
0.00230735
0.0187502
0.0216839
0.00672022
0.00461432
0.00182388
0.000408382
0.0223997
0.00828592
0.00682811
0.00671993
0.000534492
0.00669724
0.0123926
0.0103217
0.0067144
0.00378823
0.0067295
0.0136755
0.00678536
0.0108301
0.00669984
0.000433772
0.0120264
0.0159959
0.0123768
0.00673166
0.00717793
0.0078437
0.00681811
0.0141279
0.0068164
0.00668122
0.00677194
0.00603405
0.00527239
0.00677092
0.00672623
0.00257994
0.00139609
0.00153087
0.00401636
0.000993181
0.00297909
0.00680015
0.00093523
0.00675522
0.000400273
0.00418663
0.0054364
0.0161828
0.00674856
0.00307018
0.00668855
0.0072133
0.00599681
0.00670591
0.0135931
0.012003
0.00856933
0.00674457
0.00676539
0.00141893
0.00592896
0.00675968
0.0066932
0.0067626
0.00628437
0.00153794
0.00674762
0.00764691
0.00679591
0.0184883
0.00672858
0.00993491
0.0161405
0.00199994
0.00675302
0.00039488
0.00679174
0.00673746
0.000706606
0.0136628
0.00674366
0.00546392
0.0159187
0.0067732
0.000972246
0.00830947
0.0027417
0.000561716
0.0067962
0.00731179
0.00584999
0.0207691
0.00671087
0.00682201
0.000734128
0.00672314
0.0105015
0.00487504
0.00433135
0.0159577
0.00672872
0.00672042
0.00603471
0.00672472
0.00226264
0.0162378
0.00673408
0.00461982
0.00720266
0.00566956
0.00678531
0.0043448
0.0160382
0.0060694
0.00262301
0.0067392
0.00582705
0.00668245
0.0155027
0.0067082
0.00680789
0.00600155
0.00677044
0.00670002
0.00190411
0.00551796
0.00674113
0.0161279
0.00675054
0.00129881
0.0036159
0.00794463
0.00669625
0.0067953
0.00188343
0.00672796
0.00670752
0.00494361
0.00904864
0.00670249
0.017834
0.000426756
0.00669384
0.00679549
0.00680843
0.00671178
0.00670225
0.0133953
0.00672085
0.00675412
0.000362412
0.00680437
0.000822524
0.00673939
0.00669572
0.00951748
0.00448005
0.00677578
0.000768526
0.00686753
0.0159216
0.00672202
0.00598685
0.00502772
0.00679859
0.00562034
0.000826107
0.00525544
0.00678441
0.000396038
0.00422814
0.00101058
0.000344299
0.00236833
0.00593114
0.00683587
0.00183538
0.000492092
0.0067984
0.0114675
0.007089
0.00233452
0.0165289
0.00680493
0.00674697
0.00672189
0.0159317
0.012326
0.0205042
0.0150036
0.00675206
0.00276935
0.00680602
0.00585621
0.00676023
0.00229885
0.000520017
0.00676663
0.00678738
0.000356165
0.00633356
0.00682046
0.00553255
0.000855072
0.00588231
0.00672477
0.00263737
0.00682411
0.00681555
0.0067954
0.00196298
0.0070495
0.0176243
0.0032821
0.00550529
0.0161894
0.00452246
0.000740152
0.00673262
0.00672128
0.00233316
0.0136218
0.0108717
0.00678208
0.00445313
0.00424442
0.000692347
0.000521997
0.00795096
0.00462663
0.00485053
0.0066926
0.010699
0.00680142
0.000677447
0.0050966
0.000423691
0.00038194
0.00682894
0.0113402
0.000721225
0.0170922
0.00390652
0.00672788
0.00671716
0.0067695
0.00634946
0.00669619
0.00791504
0.000672764
0.0160757
0.00670478
0.00616896
0.00151036
0.00874114
0.016161
0.00653714
0.00679403
0.00674591
0.00491759
0.00674975
0.00373124
0.00648575
0.00683477
0.00649924
0.0148909
0.00931145
0.00900009
0.00342288
0.00277335
0.0067234
0.012701
0.00674206
0.00496342
0.00146318
0.00608833
0.00216006
0.000375039
0.00309945
0.00671768
0.00672054
0.0128887
0.00706041
0.00420654
0.000425126
0.00132535
0.00679359
0.00158606
0.00671813
0.00398472
0.00671671
0.00411731
0.0153676
0.00651368
0.000390125
0.00669529
0.00271888
0.00191719
0.00697602
0.00542803
0.0133213
0.00475824
0.00670666
0.0167698
0.00186991
0.0127614
0.00670494
0.00682805
0.0129799
0.000977961
0.00875482
0.00679619
0.0067186
0.00677655
0.00592629
0.00682373
0.00669902
0.00341488
0.00672714
0.0190054
0.00493096
0.00849287
0.00675824
0.00073453
0.0036265
0.000390263
0.000328249
0.0119896
0.00672467
0.000689173
0.00537639
0.0067041
0.00681913
0.00679932
0.0148856
0.0128144
0.00673216
0.013628
0.00190538
0.00671803
0.01288
0.00535136
0.000754952
0.0149167
0.0107329
0.00686946
0.0162246
0.00698251
0.00677057
0.0138811
0.00130267
0.0189358
0.0025743
0.00662907
0.0107348
0.00689636
0.00444572
0.00253282
0.00133866
0.0151459
0.00554946
0.00672007
0.00672096
0.0064345
0.0137588
0.00127915
0.0196008
0.0122354
0.00265311
0.00671776
0.0068274
0.00479545
0.0086368
0.00670883
0.0169526
0.0155208
0.0066941
0.00623334
0.0138688
0.000881551
0.00125687
0.000866337
0.00672761
0.012825
0.0193198
0.00196313
0.00478448
0.00481824
0.00456629
0.00677164
0.0068663
0.000409695
0.006925
0.00637017
0.0101085
0.00681469
0.000535049
0.00176168
0.00115093
0.00135033
0.00860034
0.000666436
0.00138644
0.00672115
0.0136651
0.00452147
0.00158319
0.00614606
0.00669595
0.00682286
0.00704317
0.0020709
0.00684846
0.0150413
0.0068507
0.00674289
0.0114482
0.0103687
0.00670417
0.00672032
0.0057395
0.0145918
0.0067357
0.00677978
0.00748516
0.00588462
0.000755045
0.000605712
0.00669744
0.000418189
0.00680054
0.0168445
0.00824064
0.0167245
0.0067638
0.00385095
0.00736544
0.0165876
0.00677923
0.00598582
0.000322158
0.000357023
0.00679475
0.00589586
0.01071
0.000406284
0.00186174
0.0190162
0.00671757
0.00248554
0.00687224
0.0010281
0.000648745
0.0151591
0.000562192
0.00672174
0.00682465
0.00525058
0.0191161
0.00673627
0.00501013
0.0152371
0.00247491
0.00670066
0.0184576
0.00233856
0.00106855
0.00633572
0.00676565
0.00679753
0.00435737
0.00188422
0.0225785
0.000436543
0.00677999
0.00673802
0.0121744
0.00032433
0.00671787
0.0176571
0.00484895
0.00688246
0.0147282
0.00103251
0.00675151
0.00158116
0.000663325
0.0162728
0.0170074
0.00673564
0.00528783
0.000602915
0.00679782
0.00726623
0.000504454
0.017371
0.0121287
0.00629206
0.00673975
0.00630622
0.000768511