/*--------------------------------*- C++ -*----------------------------------*\
| =========                 |                                                 |
| \\      /  F ield         | OpenFOAM: The Open Source CFD Toolbox           |
|  \\    /   O peration     | Version:  v2012                                 |
|   \\  /    A nd           | Website:  www.openfoam.com                      |
|    \\/     M anipulation  |                                                 |
\*---------------------------------------------------------------------------*/
FoamFile
{
    version     2.0;
    format      ascii;
    class       surfaceVectorField;
    location    "650";
    object      Uf_0;
}
// * * * * * * * * * * * * * * * * * * * * * * * * * * * * * * * * * * * * * //

dimensions      [0 1 -1 0 0 0 0];


internalField   nonuniform List<vector> 
27882
(
(1.00801 0.00426196 8.62727e-22)
(1.0072 0.00349112 5.49582e-23)
(1.00825 0.00299547 4.70529e-22)
(0.93671 0.0343346 -1.80764e-21)
(0.92843 0.0258136 -5.02669e-21)
(0.939976 0.0208982 -8.79926e-22)
(1.00293 1.53294e-05 1.86041e-22)
(1.00349 -9.8666e-06 1.37511e-22)
(1.00399 -4.38003e-05 0)
(1.00815 0.00587553 -9.17081e-22)
(1.00913 0.00493381 -6.96997e-23)
(1.01766 -0.00916652 0)
(1.01742 -0.0103284 -4.18663e-22)
(1.01884 -0.00976055 9.76317e-22)
(1.00686 0.000138103 0)
(1.00753 0.000245677 0)
(1.00709 0.000185714 0)
(1.01559 -0.00518908 1.05639e-21)
(1.0157 -0.00538269 -1.04237e-21)
(1.01585 -0.00527054 8.14522e-22)
(1.0273 -0.0179457 1.01911e-21)
(1.02787 -0.0182708 3.24113e-21)
(1.0274 -0.0186441 1.02819e-21)
(1.01788 -0.00814618 -2.7319e-22)
(1.01674 -0.00871269 7.90597e-22)
(1.0178 -0.00731456 1.35079e-22)
(1.01765 -0.00650582 9.80164e-22)
(1.01678 -0.00712085 1.88383e-22)
(0.961271 0.0585218 9.23905e-22)
(0.957406 0.0456472 3.36022e-22)
(0.968972 0.0479707 -6.89271e-22)
(0.95984 0.243401 6.68454e-21)
(0.940401 0.261114 4.23815e-21)
(0.952413 0.242458 0)
(1.09206 0.00367198 1.02887e-22)
(1.08373 -0.00593583 1.01906e-22)
(1.09586 -0.0106902 4.07082e-21)
(1.03516 -0.0149541 -3.28925e-21)
(1.03591 -0.0150695 4.8554e-21)
(1.0354 -0.014385 -3.63142e-21)
(1.01503 -0.00490543 0)
(1.01532 -0.00507023 1.21647e-21)
(1.01508 -0.0051425 4.31257e-22)
(1.01246 -0.00232503 -8.24787e-22)
(1.01231 -0.00222413 4.06536e-22)
(1.01232 -0.00237938 4.00779e-22)
(0.984879 0.219645 5.2583e-21)
(0.964897 0.237315 -1.66144e-21)
(1.01132 0.00147425 -1.34274e-22)
(1.01117 0.00141581 -6.0699e-23)
(1.01476 -0.00478039 7.61504e-23)
(1.01498 -0.00470327 3.35302e-22)
(1.0138 -0.0207237 0)
(1.01332 -0.0214973 0)
(1.01449 -0.0215084 0)
(0.873898 -0.00868888 3.14435e-22)
(0.867706 0.0116007 -9.62963e-21)
(0.88562 0.0108755 -6.16329e-21)
(1.01541 -0.230088 -1.94386e-21)
(1.02249 -0.225958 1.50608e-20)
(1.01502 -0.22307 9.77028e-21)
(1.00587 9.5751e-05 5.996e-23)
(1.00665 0.000142398 -8.31946e-23)
(1.00624 0.000127417 0)
(1.00659 0.000163026 0)
(1.00699 0.000210146 0)
(1.0095 -0.233867 -3.91601e-21)
(1.01723 -0.237621 2.52856e-21)
(0.864083 -0.137738 -5.69281e-22)
(0.875543 -0.140451 1.88737e-22)
(0.864803 -0.150239 -1.11829e-23)
(0.906968 0.0756409 -1.07285e-21)
(0.875059 0.038076 -4.80023e-21)
(0.900522 -0.00688516 -1.12192e-21)
(1.05703 0.034079 -3.76993e-22)
(1.04994 0.0313378 -1.23901e-21)
(1.05265 0.0416506 8.06076e-22)
(0.998913 -0.0551909 -2.03397e-21)
(0.994023 -0.0540387 1.83703e-21)
(0.997903 -0.0508835 2.03627e-21)
(0.897935 0.0222972 -1.10584e-22)
(0.895856 0.00520478 2.46663e-22)
(0.905501 0.00479459 -4.34655e-24)
(0.947207 -0.369036 -1.3691e-21)
(0.935098 -0.348865 6.09781e-21)
(0.924687 -0.372941 3.64143e-21)
(0.929647 0.106579 -7.93645e-21)
(0.905146 0.150756 6.05415e-21)
(1.02675 -0.0176767 3.7633e-22)
(1.02717 -0.0174122 3.01386e-23)
(0.957211 -0.25372 -4.60115e-21)
(0.966675 -0.261212 1.29851e-20)
(0.957516 -0.266561 -2.98838e-21)
(1.01702 -0.0115316 -9.5723e-22)
(1.01675 -0.0127232 -3.16372e-22)
(1.01835 -0.0122332 -4.60339e-22)
(0.90732 0.0403915 -5.71696e-22)
(0.898374 0.0468084 7.37964e-21)
(1.08611 0.014797 4.33635e-21)
(1.09695 0.0137819 -4.01528e-22)
(1.0161 -0.0107288 3.60429e-22)
(0.862602 0.351916 -1.30871e-20)
(0.84297 0.338893 -2.82339e-21)
(0.837926 0.340898 8.24992e-21)
(1.01357 0.00292673 1.67625e-23)
(1.01345 0.00281203 0)
(1.01342 0.00281811 0)
(0.907693 0.240256 -8.15349e-22)
(0.904103 0.23269 1.79381e-21)
(0.902928 0.237945 -4.0913e-21)
(1.01806 -0.00437278 2.19743e-22)
(1.01923 -0.00393404 -5.54593e-22)
(1.01891 -0.00508884 7.36577e-22)
(1.01205 0.141856 4.90456e-23)
(0.994204 0.165011 -6.74688e-21)
(1.00466 0.151302 2.83778e-21)
(1.01404 -0.000595003 -2.29812e-22)
(1.01385 -0.000426534 -2.07649e-22)
(1.01435 -0.00040438 -2.53983e-22)
(1.00991 -0.000731761 1.1911e-21)
(1.00987 -0.000726394 -4.76613e-22)
(1.01024 -0.00081988 7.39689e-22)
(0.969042 -0.326939 -5.49509e-21)
(0.963057 -0.302133 -3.70864e-22)
(0.951651 -0.31732 -1.6596e-21)
(1.01735 -0.00404932 0)
(1.01705 -0.00486531 -6.66132e-22)
(0.994664 -0.0435792 -1.04066e-21)
(0.997935 -0.0405479 -1.07567e-21)
(0.993143 -0.0391223 -1.87525e-24)
(0.1985 -0.234631 -8.50982e-21)
(0.158068 -0.228097 4.80879e-21)
(0.185838 -0.241864 0)
(1.01205 0.00627905 -2.63022e-22)
(1.01104 0.00629481 -3.94181e-22)
(1.01163 0.00510022 9.90567e-23)
(0.966436 0.0703275 5.25731e-22)
(0.952604 0.0712495 2.53488e-22)
(0.366122 -0.262649 -5.13636e-22)
(0.398582 -0.266235 6.8883e-23)
(0.406498 -0.249624 -5.03081e-21)
(1.01305 0.00756318 -5.27649e-22)
(1.01307 0.0061081 -1.22005e-22)
(1.00738 -0.00818291 4.70476e-23)
(1.00798 -0.00773208 8.06704e-23)
(1.00739 -0.00726213 -5.82795e-22)
(1.01624 -0.150062 0)
(1.02082 -0.154582 0)
(1.01449 -0.156164 0)
(1.07454 -0.0131156 9.19238e-23)
(1.07151 -0.00333965 6.08976e-21)
(1.01058 -6.62766e-06 9.45276e-23)
(1.01067 -9.32318e-05 3.72273e-22)
(1.01079 -0.000178918 9.84307e-22)
(1.01429 -0.0199743 -7.85974e-23)
(1.01318 -0.01989 7.77104e-23)
(1.00108 -0.0381681 -1.47338e-21)
(1.00028 -0.0341157 8.70253e-23)
(1.00406 -0.035677 6.51268e-22)
(1.01049 7.94821e-05 -3.44134e-22)
(1.01039 0.00016686 -9.97008e-22)
(1.00909 -0.000559507 0)
(1.00963 -0.000707126 -4.26374e-22)
(1.00916 -0.00052559 2.2219e-22)
(1.01413 -0.000810232 -3.07235e-22)
(1.0137 -0.000751511 -1.47051e-22)
(0.869167 -0.194782 -2.34719e-21)
(0.880933 -0.235478 1.05707e-20)
(0.65172 0.337544 -2.88029e-22)
(0.637144 0.32501 -1.12826e-21)
(0.650335 0.331884 -1.87707e-22)
(1.00812 -0.000430196 0)
(1.009 -0.000579019 -2.43317e-22)
(0.946392 -0.296923 8.24327e-21)
(0.962607 -0.295587 0)
(0.920392 -0.295838 4.4185e-21)
(1.00653 -0.000177993 1.17086e-22)
(1.00584 -0.000117372 1.51037e-22)
(1.00589 -0.000130453 -1.40734e-22)
(1.01015 0.00118038 -2.14891e-22)
(1.01004 0.00115449 -1.98966e-22)
(1.0102 0.00119153 2.32882e-22)
(1.0594 0.026219 -5.80807e-22)
(1.06422 0.0353408 1.20594e-21)
(1.0113 0.00152381 -2.90813e-23)
(1.01147 0.00157099 -1.18692e-23)
(0.327991 -0.277055 -4.11003e-22)
(0.335925 -0.261741 1.04359e-21)
(0.837033 -0.148297 1.0897e-21)
(0.843643 -0.141744 6.26362e-22)
(0.846889 -0.154647 -2.19559e-22)
(1.01296 -0.00547715 -6.17123e-22)
(1.01317 -0.00565621 7.51139e-22)
(1.01295 -0.00565759 -9.21669e-22)
(1.01915 -0.0304773 -4.30631e-23)
(1.02011 -0.0298512 7.09055e-22)
(1.01893 -0.0292434 -1.32292e-22)
(1.02643 -0.0839101 0)
(1.03121 -0.0813427 3.97197e-22)
(1.0263 -0.0774254 -2.17028e-22)
(0.967892 -0.366712 4.49838e-21)
(0.955283 -0.388474 9.7913e-22)
(0.824378 -0.260338 -5.54911e-22)
(0.824666 -0.247531 -3.47572e-22)
(0.840162 -0.248968 2.6742e-21)
(1.01715 0.179896 1.84898e-21)
(0.998524 0.191292 -3.854e-21)
(1.02407 0.155546 6.02142e-22)
(1.01894 -0.0075221 -1.05788e-21)
(1.01752 0.1241 -6.36784e-22)
(1.02851 0.11617 6.34856e-21)
(1.01942 -0.0961468 1.52755e-21)
(1.02314 -0.09853 0)
(1.0187 -0.100982 1.50325e-20)
(0.883157 0.36053 -1.42638e-20)
(0.880074 0.34934 -4.67704e-21)
(1.00925 0.195402 6.64976e-22)
(1.02995 0.170808 -1.40483e-22)
(1.02688 -0.0534958 -2.87276e-22)
(1.02673 -0.0567206 2.44069e-22)
(1.02968 -0.0552431 -3.01131e-22)
(1.01497 0.00118657 0)
(1.01493 0.00074191 1.39025e-22)
(1.01558 0.00113616 -1.26898e-22)
(1.03124 -0.13633 2.17001e-21)
(1.02668 -0.139405 -2.1252e-20)
(1.02621 -0.133713 -2.18829e-20)
(1.05081 -0.0198845 4.98901e-21)
(1.05049 -0.0184899 5.65514e-21)
(1.01945 -0.0319745 -5.84211e-23)
(1.01799 -0.0310824 6.74857e-23)
(0.84402 -0.232341 1.40245e-20)
(0.857049 -0.147642 -9.30951e-21)
(1.03618 -0.137153 1.23103e-20)
(1.03399 -0.131598 1.32205e-20)
(0.202937 -0.293759 9.09375e-21)
(0.201215 -0.278748 -1.12192e-20)
(0.187013 -0.2934 1.07946e-20)
(1.00892 -0.000527188 -7.57079e-23)
(1.00925 -0.000510041 -9.68757e-23)
(1.01014 -0.000584456 -5.78891e-22)
(1.03956 -0.0810116 -1.5918e-21)
(1.04257 -0.0825012 2.40602e-21)
(1.0391 -0.0842571 -5.2577e-21)
(0.236167 -0.23929 -3.06374e-20)
(0.204558 -0.228333 -6.97561e-21)
(1.01297 -0.00533136 0)
(1.01278 -0.00529829 3.4491e-22)
(1.00781 -0.000611429 -1.19848e-22)
(1.00788 -0.000652465 1.88733e-22)
(1.00782 -0.000634787 -5.62023e-23)
(1.01254 0.00227075 5.32169e-23)
(1.01238 0.00218506 -4.72122e-23)
(1.01257 0.00226766 -6.89552e-23)
(1.02197 -0.046312 5.9635e-21)
(1.02359 -0.0484826 -6.34511e-21)
(1.02028 -0.0484034 1.13898e-20)
(0.977193 0.168271 1.50412e-20)
(0.974828 0.200549 5.22239e-21)
(0.952449 0.204774 -1.28876e-21)
(1.01049 -0.00363345 -6.70393e-23)
(1.01055 -0.00371626 0)
(1.01043 -0.00354133 0)
(0.97594 -0.348589 3.04646e-22)
(0.987317 -0.330508 -2.8751e-22)
(1.00457 -0.0292398 -5.9071e-22)
(1.00541 -0.0306826 0)
(1.00621 -0.0287412 2.3154e-22)
(1.01009 0.00116513 0)
(1.01025 0.00120487 0)
(1.00779 -0.000578408 -5.5382e-23)
(1.00773 -0.000563422 3.52448e-23)
(0.923006 -0.299402 -2.64225e-22)
(0.961223 -0.293144 8.18621e-21)
(0.871251 -0.0262349 -9.06422e-23)
(0.887805 -0.0220423 -4.59314e-22)
(0.996454 -0.0470293 -1.1789e-21)
(0.991601 -0.046106 -1.26609e-22)
(0.206777 -0.307711 7.17062e-22)
(0.221359 -0.294346 8.18087e-21)
(0.795882 -0.225523 1.22299e-21)
(0.780926 -0.209001 -3.4469e-21)
(0.806833 -0.206936 1.6228e-21)
(0.866517 0.0943072 1.8276e-21)
(0.84866 0.0888661 7.56105e-23)
(0.86582 0.0735047 -4.89495e-22)
(1.01291 -0.00230809 -1.85618e-21)
(1.01273 -0.00220965 7.99282e-22)
(1.01288 -0.00213864 -4.77188e-22)
(0.668417 0.34215 -2.27339e-21)
(0.659409 0.339105 -6.9948e-22)
(1.01462 0.0136425 8.65771e-22)
(1.01267 0.0125226 -1.71991e-22)
(1.01411 0.0113757 5.23488e-22)
(1.00508 -5.48168e-05 -3.06788e-23)
(1.0051 -5.30175e-05 4.98802e-23)
(1.00418 -3.63981e-05 -2.42441e-22)
(1.0028 -0.0296065 -5.89614e-22)
(1.00384 -0.0276295 1.44202e-21)
(0.935463 0.141733 -4.97805e-21)
(0.882993 0.152985 -9.101e-21)
(0.94265 0.144206 -6.09812e-21)
(1.02052 -0.044066 -5.95809e-21)
(1.02317 -0.0441422 -6.7182e-21)
(1.00992 0.00104172 3.07569e-22)
(1.00996 0.000940736 2.82021e-22)
(1.00989 0.000918457 -4.66282e-22)
(0.765178 0.16075 7.16739e-21)
(0.71531 0.173288 3.74731e-21)
(0.712311 0.158073 -4.72563e-22)
(1.01421 0.00211897 3.42111e-22)
(1.01487 0.00218865 -9.40464e-22)
(1.01462 0.00278122 -3.08957e-22)
(1.00567 -8.50624e-05 8.66839e-22)
(1.00544 -8.51054e-05 3.54315e-22)
(1.0062 -7.92664e-05 4.62458e-22)
(0.812911 -0.27279 -2.7473e-21)
(0.829334 -0.270346 -2.7045e-21)
(1.01494 0.00169334 -6.07191e-22)
(1.0144 0.00119922 0)
(1.00934 -0.000205869 4.69401e-23)
(1.00946 -0.000204438 -6.58291e-22)
(1.00931 -0.000191585 -6.02126e-22)
(-0.0279621 -0.129696 -2.24276e-21)
(-0.0230001 -0.140758 2.62176e-21)
(-0.0215143 -0.146235 5.07792e-21)
(1.00689 -0.00867006 -3.16202e-22)
(1.00766 -0.00900057 -5.86832e-23)
(1.01288 -0.000417534 -3.79637e-22)
(1.01303 -0.000488381 4.79895e-23)
(1.01266 -0.000520234 -4.87659e-22)
(1.00937 -0.000217646 1.12157e-21)
(1.00921 -0.000200639 6.48826e-22)
(0.946736 -0.0699535 1.45367e-21)
(0.954441 -0.0699727 3.54064e-22)
(0.948417 -0.0632929 3.68111e-22)
(-0.0657185 -0.00526494 -1.38562e-21)
(-0.067578 -0.00968956 4.52847e-21)
(1.00242 -0.0416313 6.60877e-22)
(1.00612 -0.000282096 -4.93557e-23)
(1.00524 -0.000144711 -3.79613e-23)
(1.0067 -0.000372403 -1.66888e-23)
(1.03357 -0.0245508 9.58759e-22)
(1.03339 -0.0247093 -9.4865e-22)
(1.03372 -0.0248254 -1.45456e-21)
(0.585739 -0.305279 -2.38931e-20)
(0.628731 -0.304192 1.23287e-20)
(0.640465 -0.306158 -3.44837e-21)
(1.01369 0.00305683 1.27611e-25)
(1.01369 0.00306429 3.28425e-23)
(1.0057 -0.000118729 1.98825e-22)
(1.00592 -9.86229e-05 -5.86583e-23)
(1.00637 -7.25591e-05 7.53112e-23)
(0.867479 -0.311354 -2.02311e-21)
(0.863739 -0.306665 3.38682e-22)
(0.870722 -0.302315 5.25157e-21)
(1.01345 0.00121271 3.14998e-22)
(1.01382 0.0016209 5.28455e-22)
(1.01388 0.0011878 0)
(0.975653 0.0433978 -7.56042e-22)
(0.971541 0.0527525 -3.29144e-21)
(0.983383 0.0499347 5.86571e-21)
(1.01518 -0.0941217 1.57746e-21)
(1.01907 -0.0917789 2.82499e-22)
(1.01693 0.0140867 -8.27001e-22)
(1.01513 0.0158957 -5.3656e-22)
(0.894612 0.20593 -4.444e-22)
(0.87975 0.203417 4.27905e-21)
(0.886067 0.184637 -1.01341e-21)
(1.03517 -0.0467553 -3.72845e-21)
(1.03674 -0.0478523 -3.38677e-21)
(1.03442 -0.0486062 -3.40514e-21)
(0.813337 -0.238245 -5.04927e-22)
(0.787862 -0.24681 -3.1773e-21)
(-0.0294116 -0.118465 -1.88904e-20)
(-0.0347423 -0.113007 -1.02592e-20)
(1.05049 -0.0619014 0)
(1.05307 -0.0623083 -6.2584e-21)
(1.05101 -0.0647201 0)
(0.899557 -0.300025 -3.02439e-21)
(0.872281 -0.297668 -8.39481e-22)
(0.961021 -0.0704773 0)
(0.963373 -0.065152 2.10564e-22)
(0.967861 -0.0708335 0)
(0.94656 0.0420643 -3.18592e-21)
(0.957503 0.0345077 -9.217e-22)
(0.418176 0.0229436 3.60122e-21)
(0.442206 0.0388399 1.52041e-21)
(0.446601 0.0107392 8.80804e-21)
(-0.056273 0.00697313 1.66099e-20)
(-0.0502231 -0.00301781 -1.46496e-21)
(-0.0472847 0.0115348 -1.82722e-21)
(-0.0359371 -0.0613702 -3.09651e-21)
(-0.0430799 -0.0576009 2.03539e-20)
(-0.0326546 -0.0752895 -6.56673e-21)
(1.02608 -0.00478681 -5.70508e-22)
(1.0265 -0.00480203 -2.61381e-21)
(1.02635 -0.00514958 -7.08757e-22)
(1.01587 -0.0134224 1.01051e-21)
(1.01438 -0.0127722 4.55868e-22)
(1.01461 -0.0144899 -3.64595e-22)
(0.906662 0.243104 5.91584e-21)
(0.91268 0.238625 -4.67852e-21)
(0.626559 0.211366 -9.68021e-22)
(0.633902 0.244734 8.72721e-21)
(1.03607 -0.07908 3.19568e-21)
(1.03935 -0.0774781 -6.12113e-21)
(0.938938 -0.0705082 -4.66767e-22)
(0.946397 -0.0763151 -1.77208e-21)
(1.01945 -0.0582907 0)
(1.01887 -0.0622741 -3.67234e-22)
(1.0159 -0.0591667 3.3431e-22)
(0.93753 0.0508479 9.03433e-22)
(0.555515 0.119104 -2.79362e-22)
(0.599272 0.165964 -1.84115e-20)
(0.623982 0.167195 -5.68779e-21)
(1.01017 -0.000338432 1.01025e-22)
(1.01032 -0.000377787 -8.95976e-22)
(1.01023 -0.000359077 -5.14348e-22)
(0.275847 -0.207893 -1.81986e-21)
(0.239014 -0.196987 1.82488e-20)
(0.267332 -0.198398 1.37726e-20)
(0.870964 -0.300952 1.695e-20)
(0.917047 -0.297624 -8.34569e-21)
(0.981112 -0.263971 4.69279e-21)
(0.976048 -0.252126 2.20804e-21)
(0.966732 -0.262488 1.07477e-21)
(1.01005 0.000708455 0)
(1.01002 0.000954973 -5.44888e-22)
(1.00996 0.000937716 0)
(1.01011 -0.00030864 9.88614e-22)
(1.01002 -0.000296276 3.84729e-22)
(0.393689 -0.0201498 3.4938e-23)
(0.432107 0.0236997 -1.85424e-21)
(0.381604 -0.0212824 1.04203e-20)
(-0.0615767 0.00172629 -1.03605e-20)
(-0.0608546 -0.0161962 -2.49927e-20)
(0.925778 0.270852 4.06448e-21)
(0.91657 0.266869 0)
(0.914769 0.279985 -2.47955e-21)
(0.0330415 -0.11091 1.03972e-20)
(0.0266024 -0.0966565 2.85344e-20)
(0.0133165 -0.095415 5.18951e-20)
(1.0025 4.05387e-05 1.6845e-22)
(1.00182 6.69984e-05 -1.49105e-22)
(0.990108 -0.0536463 2.80316e-22)
(0.988426 -0.0492613 1.26165e-21)
(0.984786 -0.053206 1.03657e-21)
(0.878131 0.036627 1.02445e-21)
(0.885315 0.0344623 -1.96109e-22)
(0.7694 -0.1913 -5.6981e-21)
(0.755276 -0.207086 -7.91792e-21)
(1.00976 -0.00249483 1.43913e-22)
(1.00982 -0.00259824 -4.93907e-24)
(1.00979 -0.00251351 5.42054e-23)
(1.01294 -0.00515176 9.11789e-22)
(1.01315 -0.00532752 8.49497e-22)
(0.904586 -0.143282 0)
(0.906308 -0.15201 0)
(0.894789 -0.148496 -1.37534e-21)
(0.947483 -0.246696 -4.41593e-21)
(0.955186 -0.242889 -4.79123e-21)
(1.03634 -0.0070079 9.28969e-22)
(1.03588 -0.00630224 -4.28119e-21)
(1.00943 0.000956282 3.60419e-22)
(1.00946 0.000985534 -1.23417e-22)
(1.00933 0.000942214 -9.18311e-23)
(1.0065 -0.0116725 -8.42961e-23)
(1.00727 -0.0117938 -8.49527e-23)
(1.00693 -0.0109118 -9.37101e-25)
(1.01707 -0.144802 -7.37668e-21)
(1.01161 -0.146023 0)
(1.04056 -0.0095035 1.09496e-21)
(1.04137 -0.0100459 2.20432e-21)
(0.386973 0.0646192 0)
(0.395299 0.0694129 3.09743e-21)
(0.410312 0.110293 1.41187e-21)
(1.01759 -0.00296812 -1.57556e-21)
(1.01766 -0.00285152 0)
(1.01782 -0.00303877 0)
(0.897979 -0.0126772 -3.19339e-21)
(0.889874 -0.000279433 5.41058e-23)
(0.991746 -0.0076563 2.15653e-22)
(0.992045 -0.0101375 -1.25318e-21)
(0.989155 -0.00880193 -2.41291e-21)
(0.272072 -0.248899 -3.39259e-21)
(0.27307 -0.242606 -2.17933e-20)
(1.00055 -0.2155 3.88401e-22)
(0.992761 -0.227667 0)
(0.984603 -0.215916 -7.28877e-22)
(-0.0377735 -0.0490644 -2.13737e-20)
(-0.0247879 -0.069514 -1.72241e-20)
(1.0175 -0.00311462 -6.60758e-22)
(1.01735 -0.00290782 -1.65323e-21)
(1.04326 -0.000647258 -4.53377e-22)
(1.03988 0.00173111 0)
(1.04472 0.00260079 0)
(0.886224 -0.182595 0)
(0.878223 -0.19266 -1.61152e-22)
(0.895135 -0.191429 -2.32223e-22)
(1.00938 0.000784535 -1.1834e-22)
(1.00935 0.000758606 -2.62725e-22)
(1.00947 0.000808832 1.39537e-22)
(1.0395 -0.0102013 -3.32445e-21)
(1.03976 -0.00955183 -5.20736e-21)
(1.03891 -0.00956453 -6.84109e-21)
(0.969404 0.0630622 -6.19974e-21)
(0.968053 0.0747217 -8.64649e-22)
(0.979304 0.0708623 7.00793e-21)
(1.02558 -0.00485088 8.77422e-22)
(1.02572 -0.00450881 2.19536e-21)
(0.317654 -0.25532 2.10825e-20)
(0.275029 -0.256501 2.54873e-20)
(1.00552 0.000140959 -2.5068e-22)
(1.00616 0.000181571 3.74968e-23)
(1.00547 0.000118835 -9.65164e-23)
(1.01426 0.00175268 1.66102e-22)
(1.0138 0.00140285 -3.878e-22)
(1.01438 0.00128568 -8.33398e-22)
(0.93218 -0.0690887 -4.96056e-22)
(0.931553 -0.0772001 0)
(1.00444 -0.138568 0)
(1.0043 -0.130163 0)
(0.995035 -0.133649 0)
(1.01227 -0.00192031 7.90738e-22)
(1.01213 -0.00182386 7.90079e-22)
(1.01227 -0.00177394 4.30885e-22)
(1.01306 -0.00239035 -1.11655e-21)
(1.01292 -0.00245016 -1.27579e-21)
(0.319855 -0.216308 -1.71032e-20)
(0.290027 -0.217716 3.0436e-21)
(1.01127 -0.000421597 -4.02242e-22)
(1.01142 -0.00040263 -1.66592e-22)
(1.01144 -0.000454518 -7.34723e-23)
(1.01722 -0.0143846 9.02667e-22)
(-0.0709365 -0.00226257 -2.52301e-20)
(-0.067879 -0.0126936 -2.783e-20)
(1.00408 6.83804e-05 1.68488e-23)
(1.0037 4.51075e-05 2.44542e-23)
(1.00472 0.000112087 2.29862e-23)
(1.03277 -0.0787157 1.18284e-20)
(1.02928 -0.0784241 3.40199e-21)
(1.03115 -0.0818419 8.76645e-22)
(1.01412 0.00226682 3.41728e-22)
(1.01492 0.00227614 3.02486e-22)
(1.00967 0.00231943 -3.2568e-22)
(1.01018 0.00218726 2.84632e-22)
(1.00979 0.00173372 4.44495e-23)
(1.01398 -0.0178526 1.24256e-22)
(1.01425 -0.0186036 0)
(1.01346 -0.0184554 0)
(1.0127 0.00236231 7.56811e-23)
(1.01251 0.00226417 9.85763e-23)
(1.01284 -0.000844513 8.83709e-24)
(1.01245 -0.000696893 -6.90329e-22)
(1.01265 -0.000698063 1.05854e-21)
(1.03433 -0.0759394 -7.75826e-21)
(1.00808 0.000290335 6.3559e-23)
(1.00791 0.00026064 -1.72428e-22)
(0.892736 0.183175 1.04416e-21)
(0.902071 0.191759 -2.38006e-21)
(0.893289 0.16791 -1.42797e-21)
(0.895436 -0.171104 0)
(0.878732 -0.170676 -5.60502e-23)
(1.01103 2.38973e-05 -2.81175e-22)
(1.01096 -4.95034e-05 2.61931e-22)
(1.01106 4.01628e-05 -8.11344e-22)
(1.03325 -0.0457676 -8.1248e-22)
(1.03533 -0.044695 0)
(0.923635 -0.068396 2.80415e-22)
(0.931544 -0.0605859 -5.08585e-22)
(1.00552 -0.147048 0)
(1.01378 -0.142287 7.15775e-23)
(0.88952 -0.119572 0)
(0.88342 -0.0977305 4.15625e-23)
(0.892804 -0.113271 1.85914e-22)
(1.02056 -0.0855691 6.96391e-22)
(1.02542 -0.0905056 0)
(1.0544 -0.136911 0)
(1.05 -0.139118 -5.66915e-21)
(1.05478 -0.142288 0)
(0.491592 0.0693276 -4.53795e-21)
(0.509877 0.0693496 1.29559e-20)
(1.01112 -0.000420644 8.13642e-23)
(1.01111 -0.000389074 -1.92612e-22)
(0.852478 -0.135688 5.80557e-22)
(0.862921 -0.126122 -6.48068e-22)
(1.04779 -0.0617207 0)
(1.04946 -0.0594402 0)
(0.759122 -0.169802 6.93601e-21)
(0.787119 -0.177124 -1.50489e-21)
(1.00476 -6.80712e-05 1.86351e-22)
(1.00562 -8.90917e-05 -6.63593e-23)
(1.00972 -0.00165424 2.02933e-22)
(1.00962 -0.00153113 -1.75166e-22)
(1.00962 -0.00163363 0)
(1.01111 0.000115849 0)
(1.01101 -3.24293e-05 0)
(1.06245 -0.0687332 3.94554e-23)
(1.06819 -0.0677131 4.72748e-22)
(1.0652 -0.0740651 3.32033e-24)
(0.128983 -0.221737 4.39458e-21)
(0.0986688 -0.213184 0)
(0.116003 -0.227111 -1.23497e-20)
(0.964765 0.0867413 -3.57603e-21)
(0.954854 0.100589 7.34583e-23)
(0.974231 0.096017 -9.69971e-21)
(1.02403 -0.0134376 1.58031e-21)
(1.02357 -0.0136931 -1.18088e-21)
(1.02355 -0.0130627 1.32843e-21)
(1.01322 -0.00248004 1.57703e-21)
(1.01324 -0.00266468 7.44819e-22)
(1.01342 -0.00258509 -2.8342e-23)
(1.05957 -0.0641191 -6.94524e-23)
(1.05699 -0.0691348 -2.34034e-23)
(0.979328 0.0346449 -6.35807e-21)
(0.983894 0.0261351 0)
(0.989788 0.0317822 0)
(1.00306 3.39533e-05 0)
(1.00405 7.62472e-05 4.61966e-22)
(1.00343 5.70651e-05 0)
(0.400557 0.0439423 8.79245e-22)
(0.397519 0.00663403 -1.87249e-21)
(0.882179 0.0152972 -5.34581e-21)
(0.871841 0.00878695 2.14833e-21)
(0.884598 0.00180044 -4.83198e-21)
(1.00989 -0.0016709 -1.41892e-22)
(1.00978 -0.00166621 6.55899e-22)
(1.00978 -0.00155639 3.78393e-22)
(1.00776 -0.000272201 -1.02988e-22)
(1.00785 -0.000282377 2.21199e-22)
(1.00779 -0.000278417 0)
(1.00945 -1.20808e-05 1.72554e-22)
(1.0094 0.000470882 -4.30538e-23)
(1.00972 0.000105647 1.29868e-22)
(1.01042 -0.00357291 1.32402e-22)
(1.01053 -0.00376582 -1.19244e-22)
(0.0606572 -0.125825 -1.79658e-20)
(0.0399424 -0.125926 -4.80604e-20)
(1.01319 -0.000165744 9.37571e-22)
(1.01326 -1.39724e-05 -3.80665e-22)
(1.0129 -0.00014717 -2.82688e-22)
(0.946032 -0.00633569 -9.08175e-21)
(0.94424 -0.0197157 4.77957e-22)
(0.935853 -0.00863695 4.40678e-22)
(1.01116 0.000234843 0)
(1.01123 0.000250079 4.32143e-22)
(1.00536 0.00010591 -1.16856e-22)
(1.00621 0.000129671 4.14982e-23)
(1.00515 8.18699e-05 3.90177e-23)
(0.862882 0.0971352 -3.11243e-21)
(0.901982 0.0971624 -5.09013e-21)
(0.872342 0.0890488 -7.90438e-21)
(1.01015 0.000529005 0)
(1.01023 0.000382233 -3.59549e-22)
(1.01015 0.000599749 0)
(0.827337 -0.144324 -6.10218e-22)
(0.831883 -0.159252 1.18921e-21)
(1.0136 -0.000969159 -4.96907e-22)
(1.01344 -0.000832239 1.09029e-23)
(1.01346 -0.000961425 1.0783e-22)
(0.89741 0.274222 -1.92997e-21)
(0.891571 0.275364 -4.9908e-21)
(1.0114 0.0112914 -1.15638e-21)
(1.011 0.0134881 -5.18251e-22)
(1.00963 -0.000234888 -1.21429e-22)
(1.00957 -0.000215939 -4.42413e-22)
(1.00996 -0.00178377 -4.31583e-22)
(1.00997 -0.00168846 -1.35177e-22)
(1.04142 -0.00356079 2.79169e-22)
(1.04602 -0.00335245 5.0349e-22)
(1.06546 -0.0984837 3.17201e-21)
(1.07822 -0.0833667 1.22669e-20)
(1.03113 -0.0378643 -1.45772e-20)
(1.04452 -0.108167 8.21393e-22)
(1.09412 -0.159207 3.26407e-21)
(1.00976 -0.000262689 -3.34915e-22)
(1.00966 -0.000251164 4.91509e-22)
(0.969046 0.0358204 -4.72881e-21)
(1.02687 -0.00500944 8.19446e-22)
(1.02675 -0.00460237 1.60298e-21)
(1.01116 -0.00524176 0)
(1.0111 -0.00512095 1.50166e-22)
(1.01119 -0.0053075 0)
(0.719771 0.203415 0)
(0.717523 0.186571 0)
(0.770539 0.186036 -1.77465e-21)
(0.781955 -0.23295 1.26355e-21)
(0.807656 -0.219055 0)
(0.775779 -0.221257 0)
(1.01122 -0.00537153 0)
(1.01114 -0.00517998 3.15169e-23)
(1.01073 -0.000430557 0)
(1.01084 -0.000431848 0)
(1.01085 -0.000454075 -2.38169e-22)
(1.01405 0.00208441 -4.32844e-22)
(1.01391 0.00183439 3.4707e-22)
(1.01426 0.0016272 -2.67135e-24)
(1.01373 -0.0171739 -1.41522e-22)
(1.01441 -0.0173754 1.18658e-22)
(1.03491 -0.0238215 -2.07701e-21)
(1.0351 -0.0235727 -2.10061e-21)
(1.0353 -0.0239419 -2.14528e-21)
(1.00827 0.000312858 5.9599e-23)
(1.00854 0.000343185 -6.61611e-23)
(1.00917 0.00240104 -2.30933e-22)
(1.00962 0.00301158 -1.86366e-27)
(1.03455 -0.0148178 0)
(1.03496 -0.0154858 0)
(1.00768 -0.000264556 -3.12714e-22)
(1.00773 -0.000272149 2.42963e-22)
(1.00485 -0.000149595 -3.2329e-22)
(1.00635 -0.000202037 1.09185e-22)
(1.00534 -0.000151948 8.45865e-23)
(1.01389 -0.00231594 1.12566e-21)
(1.01372 -0.002365 -1.84785e-21)
(1.01374 -0.00217129 -3.17103e-23)
(0.846393 -0.301224 1.10754e-20)
(0.863812 -0.300779 0)
(0.815419 -0.301263 -1.05834e-20)
(1.01548 -0.00494218 -1.21046e-21)
(1.01061 -0.000434267 2.52781e-22)
(1.0106 -0.000406563 -3.00863e-22)
(1.01028 0.00098163 5.07292e-24)
(1.01021 0.000976873 -3.13981e-23)
(1.01019 0.000924278 7.73455e-24)
(0.977705 0.0209048 -3.88688e-22)
(0.986758 0.0191763 0)
(1.00782 -0.000560389 1.80621e-22)
(1.00786 -0.000536782 1.60634e-22)
(1.00789 -0.00058463 1.77673e-22)
(1.00774 -0.00053571 0)
(1.00276 5.17829e-05 6.86258e-22)
(1.00202 -2.99654e-05 0)
(1.03516 -0.00862766 0)
(1.03583 -0.00861728 4.90839e-21)
(1.03562 -0.00919654 0)
(1.01061 -4.28802e-05 0)
(1.01079 -0.00016882 -1.29699e-23)
(1.00512 8.82761e-05 -2.35202e-22)
(1.00474 8.13631e-05 -1.14644e-22)
(1.00548 8.2374e-05 1.5275e-22)
(1.00388 2.94708e-05 6.87222e-22)
(1.00336 4.11092e-05 5.77001e-23)
(1.00433 3.1399e-05 3.28858e-22)
(1.0086 -0.000398965 -8.6411e-24)
(1.00804 -0.000690848 1.81472e-22)
(1.00869 -0.00122045 8.07719e-22)
(0.894037 -0.139743 0)
(0.886638 -0.123769 0)
(1.00872 -0.000423009 -7.17572e-22)
(1.00691 -0.000334385 -1.295e-22)
(1.00598 0.000124141 0)
(1.00543 8.38227e-05 7.31337e-24)
(-0.00370439 -0.159805 -7.35978e-21)
(-0.012062 -0.15499 1.41831e-20)
(-0.0053397 -0.171962 0)
(1.04259 -0.0191132 -2.40221e-21)
(1.043 -0.0184467 -2.11888e-21)
(1.04207 -0.0185011 0)
(1.00542 -2.21093e-05 0)
(1.00574 -5.41806e-05 3.24148e-22)
(1.00493 -7.72047e-06 0)
(1.00517 -1.7218e-05 -1.56956e-22)
(1.00589 -1.33982e-05 1.66358e-22)
(0.837257 0.187238 -3.0673e-21)
(0.862599 0.150609 3.03038e-21)
(0.863211 0.225084 -2.56422e-20)
(1.03745 0.0556933 1.04223e-22)
(1.02853 0.0565563 -2.54286e-22)
(1.03485 0.0473733 0)
(1.00941 0.000936202 -2.59681e-23)
(1.0095 0.000980133 3.85831e-23)
(1.00019 0.00601805 0)
(1.0022 0.00467181 1.68011e-22)
(1.00254 0.00712788 -3.25482e-22)
(0.876722 -0.0438145 -1.16571e-21)
(0.859408 -0.0357483 4.34461e-22)
(1.01464 -0.000890988 6.59024e-22)
(1.01421 -0.00104285 0)
(1.06636 -0.018774 -3.29842e-22)
(1.07573 -0.0236433 1.71089e-22)
(1.01404 -0.00227104 3.26445e-22)
(1.01403 -0.00245523 1.93547e-21)
(1.01712 -0.110702 -1.85101e-21)
(1.04302 -0.174531 1.38498e-20)
(0.9915 -0.115455 7.77893e-23)
(0.96066 0.0542333 -1.22557e-20)
(1.0061 0.00235802 1.04707e-21)
(1.00097 0.000858826 -4.74715e-22)
(1.00358 0.00670738 7.99812e-22)
(1.00199 -0.056107 -2.43959e-21)
(0.998938 -0.0592605 -1.94683e-23)
(0.974977 -0.269521 1.12787e-20)
(0.973646 -0.25742 -5.75066e-21)
(1.01003 0.00114468 -1.94358e-22)
(1.01013 0.00117004 1.86977e-23)
(1.00999 0.0011252 -3.15729e-22)
(0.866237 0.0676651 1.75169e-20)
(0.869222 -0.00326624 2.66125e-21)
(0.83978 0.0124533 9.32184e-21)
(0.916187 -0.067762 2.11115e-21)
(0.91491 -0.058301 -1.44199e-21)
(0.905967 -0.0655382 4.61841e-21)
(1.00666 -0.000183148 -2.33296e-22)
(1.00603 -0.000174681 -7.27393e-23)
(1.00594 -0.000151738 -2.32682e-22)
(1.00813 -0.00215448 0)
(1.01105 0.00246727 -4.56769e-22)
(1.02328 -0.0576843 3.20301e-22)
(1.02065 -0.0550361 0)
(0.467861 0.0526954 1.77103e-21)
(0.442751 0.069979 1.92164e-21)
(1.00938 -0.00178301 9.67283e-23)
(1.00947 -0.00189236 0)
(1.0094 -0.00185676 3.45851e-24)
(1.00992 0.00112972 -2.44001e-22)
(-0.0696229 -0.0066972 -1.1249e-20)
(0.890469 -0.00926588 -1.05971e-21)
(0.886593 -0.0414202 -1.07413e-21)
(1.00921 -0.000335286 3.9797e-22)
(1.00934 -0.000331986 0)
(1.00932 -0.000337292 -3.37177e-22)
(-0.016174 -0.151913 -6.45354e-21)
(-0.00463276 -0.163041 -6.50169e-21)
(-0.00742204 -0.168512 1.06179e-20)
(1.0573 -0.0602926 6.30827e-22)
(1.05264 -0.0607148 4.97143e-23)
(1.05484 -0.0566942 -1.90311e-22)
(1.02635 0.0131772 8.12258e-22)
(1.02379 0.0139896 -8.82763e-22)
(1.02582 0.0159707 -1.86268e-22)
(0.498696 -0.31068 2.07042e-20)
(0.545972 -0.308564 -1.68205e-20)
(0.545408 -0.312345 5.71785e-21)
(1.0093 -0.00168019 -1.44217e-23)
(1.00937 -0.00170444 -1.24603e-22)
(1.01011 0.00045989 2.14425e-22)
(1.01372 -0.000947389 9.506e-22)
(1.01368 -0.00107097 -1.78347e-21)
(1.00559 -2.85534e-05 -2.24142e-22)
(1.00493 -4.74273e-05 2.08869e-23)
(1.01242 -0.0108547 7.31092e-23)
(1.01216 -0.0105962 3.45982e-22)
(1.0122 -0.0110487 1.18209e-22)
(1.01702 0.00178791 4.3616e-22)
(1.01661 0.00116151 1.09362e-21)
(1.01623 0.00176579 -6.62811e-22)
(1.02835 -0.0186696 0)
(1.0283 -0.0180066 4.32989e-22)
(1.01155 -0.000397159 -7.22923e-22)
(1.0117 -0.000374138 7.10223e-23)
(1.01176 -0.000428216 -7.68129e-23)
(1.01273 -0.0111211 -1.43371e-22)
(1.01264 -0.0106852 8.43875e-23)
(1.02472 -0.0130527 -1.02942e-21)
(1.02439 -0.013311 -1.29153e-22)
(1.02498 -0.0134113 -2.90938e-22)
(0.718577 0.281261 -3.61878e-21)
(0.736141 0.271055 5.63117e-21)
(0.817987 0.229079 1.36616e-21)
(0.805294 0.149995 1.31428e-20)
(1.01316 0.000899088 5.52131e-23)
(1.01311 0.00121174 -1.94101e-22)
(0.890746 0.132491 2.73133e-20)
(0.975079 0.13025 2.76058e-22)
(1.00134 0.129048 6.7637e-21)
(1.00909 -0.000329909 -2.43235e-22)
(1.00911 -0.000331503 7.71164e-23)
(1.04438 -0.037017 3.87162e-21)
(1.04376 -0.0358319 0)
(1.0451 -0.0359953 4.00416e-21)
(1.04709 0.0518869 1.67438e-22)
(1.03968 0.0644044 3.66688e-21)
(1.03522 -0.231413 9.5393e-21)
(1.04137 -0.234016 -1.61574e-20)
(1.04055 -0.226911 1.38866e-20)
(0.930865 0.196555 2.54797e-21)
(0.910984 0.203444 7.87676e-22)
(0.92263 0.182876 -1.48432e-21)
(1.03494 0.0968979 5.07878e-21)
(1.02385 0.0942549 1.6223e-20)
(1.03315 0.0847163 1.09768e-20)
(1.01777 -0.00267376 -1.63859e-21)
(1.0175 -0.00260594 1.7992e-21)
(0.00449055 -0.150896 -1.03508e-20)
(0.0221182 -0.161786 -8.96971e-21)
(0.0100839 -0.144413 -2.23504e-20)
(0.899034 0.278498 -1.92087e-21)
(0.899897 0.286288 -5.28828e-21)
(0.894959 0.280856 6.62567e-22)
(0.995414 0.003524 1.10583e-21)
(0.992702 0.00317344 1.70914e-21)
(0.993847 0.00622477 -7.25546e-22)
(1.02501 -0.0128145 -2.22173e-21)
(1.02444 -0.0127296 4.34573e-22)
(1.02862 0.0119527 3.80791e-22)
(1.02619 0.0104797 0)
(1.00849 0.00122619 0)
(1.00884 0.00185943 3.1993e-22)
(1.00899 0.00122929 0)