/*--------------------------------*- C++ -*----------------------------------*\
| =========                 |                                                 |
| \\      /  F ield         | OpenFOAM: The Open Source CFD Toolbox           |
|  \\    /   O peration     | Version:  v2012                                 |
|   \\  /    A nd           | Website:  www.openfoam.com                      |
|    \\/     M anipulation  |                                                 |
\*---------------------------------------------------------------------------*/
FoamFile
{
    version     2.0;
    format      ascii;
    class       surfaceScalarField;
    location    "50";
    object      meshPhi;
}
// * * * * * * * * * * * * * * * * * * * * * * * * * * * * * * * * * * * * * //

dimensions      [0 3 -1 0 0 0 0];
oriented        oriented;


internalField   nonuniform List<scalar> 
27882
(
-0.000323059
-0.000757551
0.00107218
0.000170009
-0.000850145
0.000676276
8.36964e-05
-2.1434e-05
-9.69753e-05
-0.00111187
0.000779743
0.00299145
-0.000167915
-0.0028379
1.45254e-05
-1.80081e-05
2.54918e-07
0.00272342
-0.00253161
-0.000241656
0.00292057
-0.00115228
-0.0017802
0.000189304
0.00278968
-0.00258954
0.000139188
0.00244061
-0.000622614
-0.000162971
0.000781284
0.00011241
-0.00183018
0.00171595
-0.00111199
0.00319761
-0.00209559
-0.000124539
-0.00224283
0.00235589
0.00307938
-0.000706476
-0.00244285
-0.000472513
0.00147163
-0.00107801
0.00180984
-0.00169907
-6.97847e-06
6.97847e-06
0.00109605
0.00192315
0.00337356
-0.00288351
-0.000503186
-2.48478e-05
-0.00197587
0.00199548
-0.00120688
0.000272152
0.000934628
1.2777e-05
-2.13625e-06
2.83465e-05
-1.61208e-06
-3.30785e-05
-0.000533795
-0.00067317
-0.000259785
0.0012473
-0.000987705
0.00181227
-0.00287244
0.00105969
0.000386545
0.0012342
-0.00162184
0.000540837
-0.00162433
0.00108255
3.95382e-05
-0.000689995
0.000647805
0.00145398
0.000909009
-0.00236333
0.00292592
-0.0011144
0.000701798
0.00220651
0.000947545
2.04596e-05
-0.000968092
0.0029366
-0.000959231
-0.00198746
0.000823663
-0.000787448
0.00160051
-0.00272156
0.00275453
-0.00293968
0.0024936
0.000446019
-4.16193e-05
-1.77528e-05
5.79339e-05
-7.65411e-05
0.00071767
-0.000641014
0.00304452
-0.00263072
-0.000424049
9.96567e-05
-0.000721358
0.000619481
0.000212817
0.00133898
-0.00156836
4.78823e-05
0.00043232
-0.000588354
-0.000148168
0.002199
-0.00205149
0.000963891
0.00207042
-0.000791901
0.00179529
-0.00100439
0.000963324
-0.000761103
-0.000202227
-0.000301786
-0.000737635
0.00103148
0.00016408
-0.000790844
-0.00147432
0.000266914
0.00120733
-0.00105396
0.000743897
-0.000245225
0.00241727
-0.00218614
0.0011249
-5.2343e-05
-0.00107277
0.000624675
0.00256236
0.000299167
0.000450441
-0.000761942
0.00265484
0.000704038
-0.000772843
-0.00107356
0.00184525
-0.000603052
0.000888262
0.000320888
-0.000536205
0.00012838
-0.00134507
0.00154103
0.00340152
-0.00145529
-0.00203846
0.0014035
0.000634629
0.000387018
-0.000171441
0.000122919
0.000652713
-0.000775669
-0.000421392
0.000205517
0.000147929
-1.22588e-05
0.000218599
-0.000213363
0.00169095
-0.00130561
-6.7413e-07
-6.73056e-06
-0.000940231
-0.000534186
-0.00145385
0.00126259
0.00019107
0.00303758
-0.00111082
-0.00197485
-0.00277228
0.000874131
0.00189179
-0.00171689
-0.00070115
0.00241512
0.00244927
-0.00099547
-0.00267181
0.00226814
0.000402966
0.00152861
-0.00175422
0.000224122
-0.0024109
-0.000612738
0.000710094
0.000846108
0.000512356
-0.00135897
-0.00226087
-0.000679041
-6.73423e-05
0.00159446
0.00252538
-0.00146788
-0.00106122
-0.00021512
0.00157372
-0.00137354
0.000860589
-0.00145567
0.000594794
-0.00105198
0.00240457
-0.00243048
-0.000349148
0.0021146
0.00128659
-0.000398552
0.00125886
0.00166813
-0.000705059
-0.000963117
0.000312754
-2.34032e-05
-0.000406712
0.00144336
5.50979e-05
-0.00149912
0.000784837
0.000178489
0.00220822
0.000776644
0.000721834
-0.00108507
0.000313969
-4.06826e-05
3.87892e-05
8.05879e-07
0.00115287
0.000584262
-0.00173843
0.00025185
0.00158282
-0.00183592
-0.00281012
0.000256776
0.00250763
-0.00167901
0.00153036
-0.000590468
-0.00158175
0.00216589
0.000199584
-0.000218909
-0.000384187
0.00105397
-0.000709036
0.000831914
-0.0015716
0.00154272
0.000838941
-0.00163176
0.000425225
0.0012429
-0.00311254
0.00118431
0.00192629
0.000581005
-0.00264638
0.00205877
-0.00172592
0.000538573
0.00109999
-0.00167226
-0.000366476
-0.0023032
-5.01752e-05
0.00233827
-0.000110972
-8.76268e-05
0.000155076
-0.00220962
0.00161261
0.00126531
-0.00204427
0.000778274
-0.000884416
0.00203574
0.000147756
-0.000762332
0.000601325
0.00203977
-0.00139257
-0.000647732
0.00147076
0.000227828
-0.00171311
2.3828e-05
0.000199801
-0.000276219
-0.000989966
-0.00168252
-0.00159964
0.0013695
0.000785361
-0.00113026
0.000322263
-0.000565895
0.000836677
-0.000270782
-0.00235873
0.00210023
-0.00015866
-0.00132994
0.00147007
-0.000284632
0.00104891
-0.00187772
0.00129987
0.000577255
-0.000782734
0.000655749
0.00102135
-5.38216e-05
0.00022699
-0.000262592
0.0012656
0.00105595
-0.00232663
-0.00109858
0.000323435
0.000775112
-4.81069e-05
5.67045e-06
0.000239491
3.82649e-07
-0.000292807
-0.00223919
0.00267375
-0.000433966
0.00118173
-0.00176771
0.000568856
0.00127929
-0.00192307
0.000642933
-0.000827966
0.00167348
0.000405106
-0.00272367
0.000229634
-0.00131799
0.00108594
0.00125608
0.000537029
-0.00179473
-0.000523861
-0.00258992
-0.000816628
0.000250736
0.00100175
0.000583553
-0.00158634
-4.34618e-05
-0.000665609
-0.00190129
0.000811142
0.00108951
-0.000816231
0.000648904
-0.00192002
0.000781262
0.00113852
0.000767679
-0.000161701
-0.000605975
0.000698423
-0.000740976
4.25521e-05
0.00283471
-0.0016649
-0.00119025
-0.00122237
0.00302579
-0.00181605
-0.000582011
0.000505489
0.000481093
0.00188936
-0.000218745
0.00166137
-0.00137234
-0.000505855
0.00164799
-0.00257725
0.000924621
-0.000650005
0.00111721
0.000513532
-0.00163074
0.00100907
-0.00118787
0.000160226
0.000544046
-0.000843741
0.000299691
-0.000813886
0.000770384
-0.000567135
0.00234783
-0.00178156
-0.000197639
0.000818322
-0.000632917
-0.00010275
0.00109357
-0.000495811
-0.000973828
0.00146961
-0.000612348
-0.000170384
0.000345514
0.0015644
-0.00190932
0.000486415
0.000198845
-0.000685263
4.74864e-06
5.22443e-05
0.000960691
0.000664249
-0.0016257
1.16879e-05
-1.16879e-05
0.00318708
-0.0020048
0.00220444
-0.000593978
-0.00164232
0.0025058
-0.000347465
0.0012805
-0.000302955
-0.000977738
-0.000160802
0.00110825
-0.00138042
0.00294177
-5.52775e-06
-0.000190045
0.000188114
-0.00279302
0.00239301
0.000388149
0.00132362
-0.000198979
0.00238562
-0.00210223
-0.000965
0.00192094
-0.000956088
0.000932351
0.00106211
-0.00204341
0.000242002
-0.000934823
0.00107007
0.00146512
-0.00254182
0.000559341
0.000225485
0.00210797
-0.00252129
0.000412009
7.31566e-05
0.000625266
-0.00142595
0.00230136
0.00263949
-0.000746066
-0.00189536
0.00275331
-0.00231499
-0.000439741
-3.98007e-05
0.000129867
-9.61921e-05
-0.00196712
-0.000475504
0.00243123
0.00120489
-0.00189988
0.000694226
0.000776813
0.00203027
0.000859597
-0.000300271
3.0378e-05
-7.03635e-05
2.82117e-05
-0.00122202
0.00109887
0.000110721
-0.000758594
-0.000614079
-0.0024479
0.00246385
-1.80233e-05
-0.00128989
0.00027482
0.000931509
-0.000622277
-0.00118979
0.000814619
-0.000270581
0.00229927
-0.000759978
-0.00156598
-0.00219114
-0.000662958
0.000437789
1.52244e-06
3.26081e-05
-4.8122e-05
0.00179916
-0.000351728
-0.00144813
-0.000165505
-0.00106861
-0.00237462
0.000525384
0.00183052
0.00286144
-0.000764668
-0.00210828
-3.80808e-05
-3.6632e-06
-0.000745836
0.000337602
0.000290213
0.00157966
-1.88818e-05
-2.37866e-06
-0.000860154
0.000219728
0.000638552
0.00216743
0.000584144
-0.00131415
0.00115838
0.000139191
-0.000743681
0.00199796
-0.00141176
0.000652778
-0.00219746
-0.000252607
-8.61386e-05
2.72816e-06
8.25559e-05
0.000813866
-0.00253391
0.00124712
-0.00027718
-0.00097019
0.00150268
-0.000385495
0.000902339
0.0013685
-0.00111796
0.000858004
-0.000840457
0.00184103
0.0012415
0.00194377
0.000241053
-5.69436e-05
-0.000396347
0.00118039
-0.000854623
-0.00109161
-0.000238888
0.00254172
-0.000797862
-0.00174604
0.000871848
-0.00067417
-0.000197682
0.00119343
-0.00180095
0.000606857
-0.00167206
-0.00130762
0.00295976
0.00205129
-0.00121425
-0.000920745
0.00168287
0.000856469
-0.00188504
0.00116
0.000723993
5.46115e-05
-7.28649e-05
-3.10101e-06
-0.00109553
-0.000824783
0.000527423
-0.00163728
0.00110943
-0.000710366
-0.000670647
0.00130659
0.000889532
-0.00120377
0.00026741
-0.000918691
0.000226451
0.00068164
-0.000951316
-0.00189507
0.000686367
-0.000199955
0.000321852
-0.0016231
0.00128261
3.75039e-05
-2.76302e-06
-3.50737e-05
-0.00130625
0.000199527
3.07484e-06
-8.325e-06
3.16849e-06
-0.00118512
0.00181602
-0.000631404
-0.000580791
-0.000214367
0.0007826
-0.000491004
-0.000963012
-0.000532577
0.000631322
-0.000200043
0.000204654
0.00261484
0.0020185
-0.00208178
-0.000978012
-0.000174213
-0.00116656
0.000392822
0.00179137
0.000846016
-0.000874803
0.00195941
-0.0010853
-0.00208433
0.0012087
-0.00107514
7.69105e-05
-0.000606564
-0.00200866
0.000324091
0.00235484
0.000115409
-0.00249375
-0.00172914
-0.000305387
0.00203404
-0.00086403
0.00119111
-0.000327178
-0.000154098
0.00248468
0.00213408
-0.00092658
-0.00123539
0.000109683
-8.96262e-05
-2.12455e-05
0.000739225
0.00210997
-0.0014738
0.00261611
-0.00114738
1.36949e-07
-2.15132e-05
-0.000649101
-0.00174314
0.00178242
-0.00191622
0.00108456
-0.000242815
0.00020704
-0.000281898
-5.57167e-06
-0.00136816
-0.000440579
0.00172564
0.000144104
0.000759118
-0.000903257
0.00196134
0.000672989
0.00143304
-1.20855e-05
-3.62687e-06
1.48972e-05
-0.000691029
0.00185013
0.00126357
-0.000466049
-0.000842136
0.000830438
-8.18966e-07
3.60259e-05
0.00257251
-0.000813154
-0.00177178
0.000774639
-0.000334667
-1.21237e-05
7.57886e-05
-8.2807e-05
-7.60606e-06
4.1677e-05
-5.21068e-05
0.000965391
-0.000829788
-0.000146318
-1.26362e-05
-7.38182e-05
-2.69959e-05
0.000225745
-6.50565e-06
2.76241e-05
-0.000946344
0.000353965
0.000592384
-0.002539
0.000188018
0.00234457
-3.81294e-05
-0.000144569
0.000150325
0.000123686
-0.000194003
0.0030271
-0.00154067
-0.00148609
-0.000599489
-0.000128846
0.000724279
0.000108837
-0.000119068
-0.00195724
0.00176926
0.000178085
0.000729111
-0.00230432
-0.00167384
0.000311419
0.0027969
-0.00218159
0.000305419
-0.00175022
0.00126866
0.000907621
-0.00217664
-0.000718952
0.00239922
-0.00067565
-0.00172489
0.00143972
-0.000899597
-0.00082269
0.000843074
8.22972e-06
-0.000202429
0.000188088
-0.000731498
-0.00136746
0.00209921
0.000818893
0.000706221
-0.00152553
-0.000436281
0.000194585
0.000170848
0.00158691
0.000810835
-0.00123995
0.0028832
0.0018266
-0.0010456
0.00154821
-0.000489554
-0.00111922
0.000201824
-0.000351966
-1.73294e-06
4.44242e-05
0.0016711
-0.00118706
-0.000518588
-0.000582069
0.000836592
-0.000254522
-0.00250837
0.000836442
0.0016695
0.000420687
0.00194875
-0.00238164
-0.0012123
0.000474325
0.000737944
0.000329715
0.00115587
-0.000790078
0.00019451
-0.000815376
-0.000205588
6.28881e-05
0.00262993
-7.76062e-05
-0.00256883
-0.001454
0.000620163
0.000824402
-0.0025841
0.00142106
0.00225029
-0.000723119
-0.00155226
-0.000300371
0.00291391
0.00310654
-0.000791984
-0.00233275
0.00174508
5.32494e-05
0.00110684
0.00191988
0.00173033
-0.000561441
-0.002272
-0.00146902
0.00171969
0.000884612
0.000759499
-0.00197881
0.000633046
0.00134373
0.000133114
-0.000736457
-0.000239331
-0.000737228
0.000976484
6.49101e-05
-0.00115989
0.00109317
-0.00114809
-0.000529269
0.00167664
-0.00146314
0.00246564
-0.000816404
0.000628267
0.000188137
-0.00257159
-4.08227e-05
0.00261273
0.00275087
-0.000815752
-0.00193995
0.000496607
0.00259269
-0.0019545
0.00236293
-0.000965968
-0.00167019
0.00261712
0.00152097
-0.000199265
-0.000707134
-0.00265331
0.000336822
1.2394e-05
-0.00102918
0.00101476
0.000964774
0.00149999
-0.00246747
-0.00263413
-2.03401e-05
-0.00112709
0.00150809
-0.00205742
0.000545118
-0.0024738
-0.000329497
0.000881848
-0.0017676
0.000110738
0.0019893
-0.000724691
0.00316721
-0.00192788
-0.00119201
-0.00117152
0.00236194
0.000860226
-0.000143864
-0.0017761
0.000627246
3.04071e-06
-1.58378e-06
-0.00123327
0.000460229
0.000772993
-0.000601926
-0.000616532
-0.000139135
0.000751477
0.000982815
-0.000972399
-0.000290884
-0.000195469
-2.79444e-05
2.08517e-05
-0.00075714
0.00102921
-0.000965926
-0.00175682
0.000373734
0.00137982
-0.00029371
-0.00143591
0.000254611
-0.00248163
-0.00148445
0.00254609
-0.00197143
0.00106708
-0.00161941
-7.93633e-05
-0.00166012
0.00173166
-0.000872395
0.00304968
-0.00218921
0.000176667
0.00129322
-0.00148362
-0.000210447
0.000187423
0.000952939
-0.00193342
0.002306
-9.32169e-05
-0.00226496
-1.09895e-05
0.000143996
-1.0105e-05
5.32958e-05
-6.52161e-05
0.000785496
-0.000215267
-0.000578919
0.00102754
0.00143488
-0.00246763
-0.00273309
0.000860271
0.00187314
-0.00143822
-0.000773242
0.00220822
0.00270638
-0.00120679
-0.00149941
0.00175457
0.000951913
-9.46867e-05
-0.000634078
0.000728768
-0.000230245
0.00170808
-0.000769859
-0.000938851
0.000754538
0.000201014
1.68009e-05
-3.25584e-05
1.04889e-05
-4.74296e-05
-0.00067572
-0.00224582
0.00215637
-0.00107312
-0.00181056
0.00286622
-0.00037488
0.00265748
-0.000943434
0.00182388
0.000393879
0.00206779
-0.00246774
0.00055454
-0.000781135
-0.000223125
0.00196834
0.000378831
-0.000417862
-0.000795984
-0.001748
-3.76348e-06
-0.000123342
0.000122113
-0.000629137
-0.000230872
0.000859996
-0.000815922
-0.000932459
-6.58299e-05
3.9918e-05
-0.00072507
-0.000487253
-0.00141584
-0.000259199
0.00167438
0.000245708
0.000399327
-0.000770755
-0.00131155
0.00147419
2.9795e-05
-8.55364e-06
-3.08285e-05
0.00140118
0.00176517
3.56986e-05
-1.0381e-05
-4.0612e-05
7.2411e-05
-0.000104377
0.00160057
-0.00216851
-0.00184884
0.0004078
-0.00239655
0.000440899
0.00201796
-0.000719891
-0.00191906
0.00262788
-0.00242707
0.00272969
-0.00031007
-0.00161024
6.56196e-05
0.00154453
-0.00279219
0.00258876
0.000198784
1.68554e-07
1.88238e-06
-5.53611e-06
-0.000580596
0.000122091
-0.000131301
-0.000748866
-0.000714903
0.00114124
0.00145848
-0.00103055
-0.000517101
-0.00166254
0.00257114
-5.57617e-06
2.39481e-06
-6.30616e-05
-0.00237041
5.16989e-06
-0.000108959
7.12925e-05
0.00127584
0.000712716
0.000998314
-0.000375854
-0.000630707
0.000184021
0.00207743
0.000837524
-0.000653852
-0.000183676
-0.000737233
0.000604309
1.34676e-05
-1.19219e-05
-2.19466e-06
-0.000542379
0.00204647
0.00300028
-0.00117085
-0.00184576
-0.000999652
-0.000371698
6.55413e-05
-0.000155224
6.44069e-05
-4.60686e-05
0.000331124
-0.000390046
-0.00232084
0.000782861
0.0015369
-0.000437291
-0.000743437
0.00118073
-0.00236346
0.00261864
-0.000276237
-7.07441e-05
-0.001492
0.00156035
-0.00179235
-0.000842194
0.000294274
0.000986044
-0.000687686
-0.000244706
0.000932685
0.00170459
-0.00117765
-0.000908666
0.000221901
-9.88342e-05
-0.000564052
0.000650558
0.000736409
0.000971017
-0.000827763
0.00190155
-0.00244728
0.000539991
-0.00188219
0.00257301
-0.000184355
-0.000677132
0.001341
0.000474122
-0.00182307
0.00236581
-0.00197422
-3.31528e-05
0.000166952
-0.000162574
-0.000749202
-0.00181648
0.000606089
-0.00130508
0.000653507
0.000452252
0.000912098
0.000996726
-0.000429488
0.000946405
-0.000646385
-0.00210013
-0.000630376
0.00272169
0.00010026
-0.00013596
-2.86208e-06
-5.11779e-05
-8.31689e-05
0.000128224
-0.00105124
-0.000476867
0.00152748
-0.000346334
0.000201002
7.31926e-05
-1.82524e-05
-7.89209e-05
-5.45591e-05
6.75395e-05
-1.39788e-05
0.00142635
0.00156252
0.00178792
-0.000454477
-0.0023335
0.000352556
0.00146588
0.000777609
-0.000617665
-2.8869e-06
2.55936e-06
-5.34854e-07
-0.00105566
0.0020687
-0.00101605
1.92922e-05
0.00102797
-0.00104757
-0.000974543
7.92228e-05
0.000895335
0.000858157
-0.00205158
-0.000510247
-0.00034813
0.000551233
-0.00206684
-0.000926725
0.00048944
-0.000624278
-0.000202929
-0.000711264
0.000908183
0.000195565
-0.000811051
0.00327746
-0.00122883
-0.00205288
-0.000669813
9.75801e-07
-3.74777e-06
2.81178e-07
-0.000563565
-0.000968606
0.00153213
-0.00310718
0.00233025
0.000666317
-0.00149482
0.000914143
-0.00112458
0.000109182
-0.00143365
0.00147871
-0.00155183
-0.000288838
-0.000962435
-0.00229439
0.00182005
0.000438825
-8.592e-05
0.000301511
-0.000336589
3.50602e-07
9.94992e-06
-1.45509e-05
0.00231788
-0.00144476
0.000464141
-0.00014376
-0.00138781
-0.000320935
0.00170792
-0.000153126
-4.59217e-06
0.000150258
-0.00224486
0.0026323
0.000836997
-0.00262969
9.56716e-07
-1.32544e-05
-0.00015966
-3.40891e-07
-1.65609e-06
6.68458e-05
-0.000214085
-0.00202624
0.00223499
-0.000263666
-0.00194513
0.00220184
-0.00272024
-7.5579e-05
0.00225869
-0.0020375
0.00181062
0.00029653
-0.00159939
-0.000982506
0.00257701
-0.000576839
0.00247336
0.00135295
-0.00130967
-6.03146e-05
0.000177946
0.000598426
-0.000174057
0.00266755
-0.000398174
-0.00228824
0.000188101
0.00245858
0.000123355
-0.000846868
0.000723518
-0.00154898
0.000583878
0.000835393
0.000200789
0.00136142
0.000688021
0.00187152
0.00089454
-0.00139038
2.89747e-05
-0.000158054
-3.89831e-05
4.09145e-07
0.000343636
0.000496043
5.84658e-05
-0.000114678
-0.00180954
0.00137788
0.00040543
0.000168396
0.00116475
-0.00276534
0.0023442
0.000406321
0.000390421
-0.00179456
0.00071992
-0.000126783
0.00234407
-4.29497e-05
-5.82971e-06
-0.00140669
-0.000849532
0.00225441
-0.00121276
0.00023824
-0.000405211
-0.00193502
0.00232638
-0.0014325
0.00125648
0.000740449
0.00155589
-0.00233345
7.65297e-06
4.28636e-05
-0.00196652
0.00231635
-0.000402411
-0.000311028
-0.000340238
-0.0021644
0.0024974
-0.000185468
0.00077624
-0.000594422
-0.000989993
-0.00151559
0.00249337
-0.00228495
-0.000401986
0.00268468
-0.00141319
0.00211896
-0.00135866
-0.000622084
0.000173229
-5.89111e-05
2.05817e-05
2.87295e-05
0.000722564
-0.00156402
-2.04933e-05
1.94004e-05
-1.43417e-05
1.06584e-05
-0.00275844
0.00228128
0.000477
-0.000127153
7.14978e-05
-0.0025344
0.000557545
0.00229289
-0.00133071
3.41436e-05
-0.000170079
0.000106531
-0.00224506
0.000623965
0.00156725
0.00023045
0.000676624
-0.000541253
-0.000569397
-0.00215686
0.0027197
0.000130451
-0.000682268
0.000547554
-1.80583e-05
7.37638e-05
-7.35017e-05
-8.98863e-05
6.55958e-05
0.00153223
0.000989774
0.00257538
-0.000652417
-0.00193282
0.00172192
-0.00199204
0.000556385
0.0016155
-0.00248849
0.000202685
0.000677387
0.000271086
0.00118031
-0.000889322
-0.000334389
-0.000362567
-0.00058377
1.84819e-05
-0.00011357
8.95531e-05
-4.29036e-05
3.03365e-05
-0.00197514
-0.000199905
0.00213534
-0.000219515
-0.000708883
0.000921498
-0.00181283
-0.000709748
0.000793209
0.00134113
-0.002136
-0.00111769
0.00130103
-0.000197316
0.00189933
-0.00138564
-0.00167293
0.00209099
-0.000417919
0.000600937
0.0026715
0.000977337
-0.00126978
0.000210779
-0.0017588
-0.000208059
0.00262694
-0.00104145
-0.00159164
0.000163352
0.00225026
-0.00098869
0.000363922
0.00197902
-0.00235351
-0.00189723
0.000560213
0.00130204
0.000940485
-0.0011687
-0.00080373
-0.00104581
0.00184815
6.20506e-05
-9.71872e-05
-0.000592913
-0.00133721
-0.000104339
0.000128502
-0.00159263
0.00101787
0.000536165
-0.00233089
0.0020059
0.000319907
-0.00304971
0.00255588
0.000488582
-9.02385e-07
3.81953e-05
-0.000391996
-0.0019718
0.00232513
0.00331924
-0.00230855
-0.00102663
0.000134402
-0.00214725
0.000917724
-0.000257526
-0.000707547
0.000227894
-0.0024781
-0.000996545
-7.35777e-05
-0.000954671
-0.0010703
0.00202315
-0.000415118
-0.000325858
0.000638876
-0.000515518
8.12393e-07
1.90225e-05
-7.43391e-06
-2.69407e-06
6.47258e-06
-0.00271191
-0.000922584
-2.96469e-05
0.000950816
9.62122e-05
-8.30875e-05
0.000690974
-0.000561566
-0.00235097
-0.000252776
0.00257219
0.000144181
0.00204113
-0.00085297
-0.00119084
0.000423655
-0.000272083
-0.0021937
-0.00148618
-0.000203854
-0.000551783
-0.000589512
0.00109596
-0.000171442
0.00145056
-0.00046598
-0.000914021
0.00163555
-0.00156165
0.00178147
-0.000220874
-0.00183911
0.00234584
-0.00116061
0.000730369
0.00130878
-7.16429e-06
-3.30287e-05
-0.00169835
0.000302688
-0.00169101
-5.27551e-05
-0.00232529
0.00136573
0.000173411
-0.00155289
-0.00112776
0.00130963
0.00136406
1.12333e-05
3.06333e-07
-0.000362177
0.000609753
0.00195518
0.00253363
0.000391582
-0.000158254
0.000168196
-1.86829e-05
-0.00111031
0.000796572
0.000313687
0.000631415
-0.000726097
0.000682301
0.0020643
-0.000244153
-0.00107702
-0.000520515
0.00208467
0.000534797
0.00208483
0.00185489
-0.00235479
0.000496079
0.00295304
-0.000874983
-0.00207978
-0.00166712
0.001466
0.00020092
-0.00279933
0.00215353
0.000617145
0.00143545
0.000345934
-0.0017818
4.02534e-05
-1.97939e-05
0.0008734
-0.00182967
-0.000664322
-4.15803e-05
0.000175092
-0.000163294
0.00229523
-0.000368219
-0.00193029
0.00174333
-0.00267629
0.00324786
-0.00174374
-0.00151082
-0.00241501
-0.00036451
-0.000128486
0.00276226
-0.00228104
0.000159423
-0.00180013
0.00286416
0.000391791
0.00168712
-0.00208113
0.00173328
-0.000428155
-0.001327
-0.00131459
0.00213306
-0.00231665
0.00240889
0.002337
-0.0013868
-0.000953925
-0.000146109
0.000131353
7.38235e-06
-3.0115e-05
4.03654e-05
-1.02962e-05
-0.00204195
0.00151777
-0.000888859
-0.000732223
0.000825193
0.000239628
0.000669852
-0.00095753
-0.00233653
-1.91915e-05
-0.000934981
0.000952066
-0.00136135
0.000442768
-0.00141097
0.00203833
-0.00024381
-0.00184062
-0.00269428
0.000291573
0.00237918
-0.0023365
0.0009956
0.0013386
-0.00256744
-7.35805e-05
0.00261371
-0.000924459
-4.5677e-08
-0.00232295
4.31875e-05
0.00227355
-0.000464704
-0.000111938
-0.00234964
0.00244954
0.00171293
0.000514103
-0.0022495
0.000101979
2.23854e-05
0.00052882
-2.02297e-05
-0.000132281
0.00115232
-0.000593222
-0.0023821
-0.000575728
0.0012788
-0.000703082
-3.45866e-05
-3.23342e-05
0.00233979
-0.000403672
0.00169237
0.00154872
0.00110738
-0.00186951
0.000762156
-0.00215581
-0.000169467
0.00231891
0.00250762
-0.000446391
-0.000879141
0.000389149
0.000489843
-1.35736e-05
1.39724e-05
-8.03532e-06
0.000977742
-0.000999201
-7.86682e-05
-0.000272797
0.000323136
0.00143315
0.00151807
-0.000210476
-0.00238062
0.00119583
0.00123579
-0.00244887
0.000766406
-0.00110997
0.000343517
-9.73491e-05
0.00107855
0.00133464
0.00269476
-0.000927462
-0.00178725
-0.00261296
0.00108563
-0.000206816
-0.000903845
8.52609e-05
0.0019004
-0.000627147
0.000845119
-0.000413614
0.000910874
-0.00049726
0.00122664
-0.000116573
-0.00112486
0.000857851
0.000202503
-0.00036047
0.000254216
-0.00199354
0.000383207
0.0021777
-0.00138635
0.00035473
0.00194984
-0.00231392
-0.000281696
0.000945668
-0.000704345
-0.00168753
-0.000268854
0.00194666
-0.00113446
0.00231334
-0.00287578
-0.00183158
-0.000172828
0.0011104
-0.000217318
-0.00181561
0.00295261
-0.000775034
-0.00218005
6.96699e-05
3.88298e-05
0.0001334
0.000942982
-0.00108216
-0.00263516
0.00185011
0.000745217
0.00273146
-0.00168113
0.000796472
0.000225607
0.000129327
0.000561118
-0.000701747
0.00168916
-0.00223581
-0.00237233
3.43761e-05
-0.00174848
-0.00130843
0.000348022
0.000861904
-0.00104499
0.00025789
0.000787061
4.18571e-05
0.000290175
-0.000409407
-0.00214071
0.00192044
-0.00272319
0.00208403
-0.00105733
0.00192903
-6.05866e-06
1.80061e-05
-0.00034643
0.00203853
0.000889815
-0.000610312
-0.0002809
-0.00185961
0.000163597
0.00245365
-0.000602826
-0.00107187
0.0011052
-8.9512e-05
-0.00108195
-0.0013871
0.00242998
0.00220369
-0.00133567
-0.000654495
0.000461163
-0.00103391
0.00117906
3.06376e-05
-0.000499601
0.00177193
-0.0013445
0.00294905
-0.000968097
-0.00199689
0.000667481
0.00200671
-0.00163471
0.000133494
-0.00239472
0.00193557
0.000410951
-0.00023106
-0.00062528
-0.00148866
-0.000620273
-0.00167629
0.000306224
-0.000261674
0.0011585
-0.00093794
-0.00133347
-0.000304119
0.0021555
-0.000967846
-0.00118921
0.00112454
0.000701808
-0.00133913
0.00107653
0.000260786
-0.000910215
0.000496603
0.0020132
0.00025254
-0.00231454
-0.00206648
0.00205121
-0.00293516
-0.00128496
0.00115255
-0.00119962
-0.000100663
0.00123144
4.15459e-05
0.000164067
-0.000235053
-0.00011573
-2.83908e-05
0.00012286
0.000857766
0.00189134
-0.000475263
0.00187844
0.00117952
-0.00116057
0.00124816
0.00170206
-8.77953e-05
-0.000424423
0.000506741
-0.00219644
0.00179414
0.000360777
0.000254731
-0.0018578
-0.00152963
0.00255212
-0.00249798
0.00167169
0.000824228
-8.30137e-06
2.66236e-05
-0.000520311
0.00229922
-0.00179651
0.000676024
-0.000558002
-0.000713087
-0.000250399
0.000963473
0.00217836
-0.00262083
0.000440794
0.00270539
-0.000141181
-0.000126232
0.000209916
-0.000968273
0.000807152
-0.00157759
0.000947444
-0.0008192
-0.000227418
0.00204406
0.00063399
-0.00267923
-0.00231797
-0.000423019
0.00272524
6.35487e-06
-9.6859e-05
1.01047e-06
-4.43779e-05
-0.00103359
0.000872705
-0.00239888
0.00260094
-0.000219253
-0.000263594
0.000256398
-3.27022e-06
-0.00222362
0.00150652
0.000715715
0.00261216
-0.00209395
0.00162606
0.000415739
-6.17995e-05
5.87059e-05
-0.00254719
0.000502539
0.0020389
0.0015573
-0.00131569
-0.0022579
0.00189722
0.000314348
-0.00151816
-0.000147055
0.00157825
0.00231899
-0.000367677
-0.00197677
0.00300954
-0.00185968
-0.00119795
0.0026018
-0.00080338
-0.00181171
0.000887527
0.0016635
-0.00255531
0.00147447
0.00050375
-0.00200969
-0.00245463
4.01601e-05
-0.00279481
0.00235273
0.000441493
0.000234604
-0.000947703
0.00223238
-0.00118596
-0.000902991
0.000717288
-0.00115235
0.000889216
0.000262993
0.00200251
0.000749921
-0.00276851
-8.45276e-05
-0.00116221
0.00123397
-0.000100252
-0.00119966
-4.02432e-06
-6.41623e-07
-0.0027571
0.000444231
0.0022996
0.00263325
-0.000645172
-7.34802e-05
-1.94197e-05
7.34579e-05
-0.002789
0.00237052
0.000609358
0.00197897
-0.00261592
0.000376449
0.00221857
0.0011375
-0.000371164
-0.00238742
0.000908298
-3.03919e-06
8.53339e-05
-0.000102523
-0.00217654
0.00250676
-0.000356702
-0.00266812
0.00210491
0.000562826
-0.00204907
-0.000234059
1.11204e-05
0.000214652
0.000833536
0.00102395
-0.00122558
0.00138605
-0.00023923
0.00225612
-0.000779995
-0.000358175
0.00204345
-0.000696384
-0.00161462
0.00225795
-0.0011493
8.58781e-05
0.00101556
0.00113963
-0.000248466
-0.000916464
-0.000642774
-0.00225106
-0.00143656
0.001849
-0.000413858
9.4253e-05
-5.15571e-05
-0.00114307
-0.000197545
-0.000708457
-0.000985746
0.00172147
-0.000774829
0.00281785
0.000621717
0.00230948
-0.000592548
-0.00211489
0.00269995
-0.000170484
0.00147484
-0.00270735
-0.00234003
-0.00231125
0.000336809
0.00194654
0.00121248
-0.0013513
0.000138532
-0.00175839
0.000572793
-0.00165958
-0.000986338
0.00262869
0.000482551
-0.00240554
0.00192184
0.000144467
-4.40915e-05
6.00854e-05
-2.66293e-05
0.00086912
0.00116913
-0.00025225
9.61716e-06
0.000273932
-0.000493418
-0.00184203
-0.0032929
0.0010163
0.00225927
-0.000289201
-0.000199318
0.000140163
-0.000657631
0.000512974
0.00112953
-2.08575e-06
-0.00118845
0.000435428
0.00127695
0.00140311
0.000189009
-0.000684305
-0.000643532
-0.001364
9.77339e-05
-0.00121582
1.74092e-05
0.000273389
4.59123e-05
-0.0022447
-0.00110705
0.0011641
-6.97276e-05
-0.00140606
0.00228976
-0.00121066
-0.000988097
0.00160197
-0.000299521
-0.00130464
0.000562772
0.00125272
-0.00176388
0.00144206
-0.0017728
9.84673e-05
4.39766e-05
-0.000149352
0.00141421
-0.00215928
4.75357e-06
-0.00167195
0.000103673
-2.4338e-05
-0.00011969
0.00166951
0.000157393
-0.00185937
-0.000723764
-0.00147287
0.00218979
0.000109092
0.000555483
-0.000995406
0.0024262
-0.00235077
0.00257936
-0.000246311
-0.00229644
0.00250302
-0.000232812
-0.0025789
0.00208138
0.000495492
-0.00191238
0.00225189
-0.00039003
-0.00131096
0.000769842
-4.47521e-05
0.000136409
-0.000545162
0.00198802
-0.00115783
0.00315011
-0.00199306
0.00277843
0.00076385
-0.000206121
-0.000631709
-0.00203647
0.000672678
0.000197246
-0.0030903
0.000944541
0.00210108
0.00211428
0.000588054
-0.00270842
0.000306921
-0.000895398
-0.00233194
0.00160096
-0.00152575
-0.00023286
4.55142e-05
-4.23308e-05
-9.76017e-06
-0.00193936
0.00229271
-0.000354904
-2.43924e-05
0.00150344
0.00193403
0.000359861
0.000502387
0.0024951
-0.00106491
-0.00101498
-0.0022948
-0.00201287
0.000269724
0.00174231
0.000291878
-9.16357e-05
-0.000555114
-0.000951114
0.00144882
-0.0025658
0.00214044
0.000418394
-0.000574693
0.000221093
-0.00165889
-0.0022379
0.00268816
-0.000461695
-0.000504433
0.000640107
-0.000527412
-0.00017918
0.000706588
-0.00215375
0.000941482
-8.49454e-05
1.34778e-05
6.62675e-05
0.000158951
0.000210221
-6.41961e-05
-0.0015328
0.000969199
-0.000514267
0.00104453
-0.000194678
0.00112557
-0.00271007
0.000343582
-0.000492912
-0.000432244
-0.00188826
0.000533851
0.00131733
0.00193436
-0.000827018
0.000540575
-0.00124067
-0.00040222
-0.000485602
-0.000970389
3.94636e-05
-0.000175469
-9.83629e-05
0.000108929
-1.45997e-05
0.00015739
-0.0021716
0.00188276
0.00148264
-0.00248062
-0.00234052
0.00226068
-0.0011857
0.0023006
0.000101509
0.000274212
-0.000450163
-0.000253963
-0.0010942
0.000153803
-0.00209339
-0.00217673
0.00167734
0.000445362
-0.000853098
-0.000299377
-0.00158948
-4.40741e-05
0.00159637
-0.000679233
0.00243861
-0.00176685
0.00140548
-0.0011365
-0.000164817
-0.001454
-0.00155615
0.000943053
-0.00057276
-0.00134929
0.00104696
0.00110679
0.000206942
-0.00245442
-0.00153096
0.00262387
-0.00109746
-0.000906338
0.00220684
-0.00130366
0.0026299
-0.000603507
-0.00204551
-0.00205548
-7.05006e-05
0.00207313
0.000377099
0.00154246
-0.00192353
0.00141481
-0.00127673
-0.000220428
-0.00029094
-0.00172208
0.000503038
-0.000386933
-0.00024343
0.00174082
0.00192829
-0.00214735
-0.000658662
-0.000195186
0.000738431
0.000131619
0.000688365
-0.00083118
-4.12348e-05
0.00110761
-0.0012293
0.000553164
0.000676111
4.12965e-06
-1.5314e-05
0.00166628
-0.00136402
-0.00177405
0.00256163
-0.000791082
-0.00094967
0.00137902
0.000954366
0.00110669
0.000222261
-0.00091557
0.000179023
0.000687988
-0.00280874
0.00230595
0.000489995
0.00165581
-0.00122398
-0.0004534
0.0020884
-0.000250587
-0.00211485
0.000355345
-0.00268774
-0.00215176
-0.000289974
0.00241071
-0.00207473
-0.000175028
-0.00109956
-0.000769897
0.00108759
-0.00271603
0.00248023
-0.00123606
1.75033e-05
0.00116138
-0.00110778
3.75458e-05
0.00105939
0.00053537
0.00207434
-0.00207083
0.0015681
0.000452153
0.000178865
-0.000559136
-0.00229698
-0.00033471
0.00261858
0.00212215
0.000565619
-0.000711383
0.000827346
-0.000128282