/*--------------------------------*- C++ -*----------------------------------*\
| =========                 |                                                 |
| \\      /  F ield         | OpenFOAM: The Open Source CFD Toolbox           |
|  \\    /   O peration     | Version:  v2012                                 |
|   \\  /    A nd           | Website:  www.openfoam.com                      |
|    \\/     M anipulation  |                                                 |
\*---------------------------------------------------------------------------*/
FoamFile
{
    version     2.0;
    format      ascii;
    class       surfaceScalarField;
    location    "50";
    object      phi;
}
// * * * * * * * * * * * * * * * * * * * * * * * * * * * * * * * * * * * * * //

dimensions      [0 3 -1 0 0 0 0];
oriented        oriented;


internalField   nonuniform List<scalar> 
27882
(
0.520605
-0.371112
-0.149484
0.468858
-0.201228
-0.267626
0.272441
-0.534418
0.262012
0.167177
0.353437
-0.224376
0.347927
-0.123534
-0.423822
-0.101228
0.525053
0.182885
0.19089
-0.373732
0.118204
-0.331914
0.213723
-0.338754
0.114393
0.248234
-0.37115
0.122929
0.360592
-0.517637
0.15705
0.565489
-0.214296
-0.351192
-0.370162
0.115055
0.255118
0.33282
-0.164063
-0.168747
0.101902
-0.430368
0.32854
-0.428365
0.14665
0.281795
0.158403
0.407087
-0.309011
-0.167658
0.381158
-0.279194
0.170732
0.145137
-0.315858
-0.425294
0.257632
0.167667
0.0511006
-0.103951
0.0528508
0.0862379
-0.510056
-0.3325
0.537877
-0.205371
0.102861
-0.0517606
0.136141
-0.0807408
-0.0554003
-0.243816
-0.0521279
0.295945
0.24709
-0.133845
-0.113244
-0.1736
0.0341576
0.139444
0.462627
-0.330532
-0.132092
-0.134448
0.192966
-0.0585177
0.00279828
-0.246614
0.308526
-0.190308
0.0543177
-0.118607
0.0642893
-0.168931
0.337049
-0.168106
0.203354
0.259276
-0.263007
-0.107146
0.179012
0.167245
0.0823865
-0.249632
0.391565
-0.469453
0.0778887
0.485762
-0.286971
-0.198792
-0.187003
-0.16222
0.349235
0.498555
-0.251736
-0.246817
0.46963
-0.332459
-0.137154
0.520679
-0.362291
-0.158279
-0.195462
0.0875623
0.107901
-0.333031
0.146041
-0.176387
0.0281087
0.148279
-0.029755
0.00580761
0.0239474
0.515426
-0.3616
-0.153818
0.528938
-0.168342
0.0650976
-0.070405
0.00530748
0.190365
0.325069
-0.390255
0.164039
0.22623
0.0493807
-0.118796
0.0694157
0.36885
-0.253785
0.484417
-0.465618
-0.0187873
-0.162174
0.332922
-0.176901
0.154987
0.0219154
0.369894
0.114537
0.4888
-0.0783428
-0.410369
0.330914
0.138732
-0.0339415
-0.163069
-0.040082
-0.0561544
0.0962367
0.0238141
0.465093
0.113426
-0.0900508
-0.0233747
-0.0176886
0.401542
-0.383785
0.621339
-0.298807
-0.322525
0.0851095
0.161982
-0.5391
0.23009
-0.00432974
0.0694274
0.061271
0.0447322
-0.106003
0.141463
-0.397874
0.256462
0.173086
-0.289894
0.116812
0.271375
-0.3036
0.0322258
0.0168766
-0.151325
0.149757
0.0744651
-0.224222
-0.352549
-0.0704187
0.422969
-0.090507
0.341344
0.157214
0.128317
-0.141683
0.0133664
-0.0700634
0.237309
-0.351486
-0.00106137
0.00151539
0.228228
-0.229739
-0.540421
0.264294
0.276141
-0.127686
0.035175
0.0925117
0.196995
0.0515368
-0.137823
0.310916
-0.219322
0.18538
-0.1226
-0.00508642
-0.0617548
0.0500441
0.0117107
-0.350477
0.509332
-0.158732
0.129583
-0.151798
0.0222156
-0.00950348
-0.0202515
-0.251521
0.393043
0.521955
-0.100284
-0.421622
-0.333505
-0.134846
0.468352
0.17163
-0.162116
-0.00951293
0.425556
-0.393742
-0.0318137
0.181848
-0.380568
0.198775
-0.131165
-0.0642968
0.332024
-0.223407
-0.10861
0.312287
0.309059
0.428602
0.0934045
0.0743912
0.0390343
-0.290043
-0.135248
-0.143843
-0.0325439
-0.0421844
-0.0195704
-0.0263181
0.2238
-0.19748
0.435061
-0.177169
-0.257884
-0.136646
0.441439
-0.304702
0.0372664
-0.0773481
0.28489
-0.467676
0.182802
0.477308
-0.473672
-0.00359154
0.128847
0.203185
-0.121359
-0.0227979
0.144158
0.172528
-0.000896623
0.553986
-0.25962
-0.294353
0.0195529
0.088349
-0.107901
-0.339245
0.490676
-0.151416
0.551122
-0.38734
-0.163729
0.220938
-0.0711795
-0.212262
-0.328144
-0.509159
0.0738033
0.435378
0.00552809
-0.00546509
-6.30017e-05
-0.216211
-0.17403
-0.503565
0.339399
0.164183
-0.423435
-0.0857029
-0.0510154
-0.0883274
0.139343
-0.00617804
0.0015933
-0.148792
-0.526207
0.274283
0.252015
-0.233104
0.245151
-0.0120427
0.0397964
-0.070498
0.0307016
-0.137185
0.528751
-0.352339
0.48139
-0.128997
0.208982
-0.0325895
-0.176394
-0.399659
-0.0667053
0.466381
-0.156155
0.00171499
0.154441
0.131907
-0.00358971
0.430339
-0.145435
0.433706
-0.203369
-0.230334
0.191644
-0.180569
-0.0110732
-0.255724
0.229407
0.00385833
0.00166975
0.164419
-0.160465
-0.00395242
0.106006
-0.0316148
-0.024949
0.136541
-0.111592
-0.197646
-0.319987
0.0144265
0.0598977
-0.074324
0.00604265
-0.00495994
-0.00108271
0.00103542
0.000577712
-0.00161313
0.0514118
-0.257464
0.206071
-0.375233
0.09961
0.275635
0.180176
0.305586
0.161822
-0.0549068
0.151882
-0.0222989
0.0635689
-0.114584
-0.25523
-0.0242659
0.2795
0.271216
-0.0548706
0.0336678
0.0212028
0.357476
0.0293576
-0.386816
0.00954188
0.0125939
-0.0221358
0.0649808
0.0410254
-0.213727
0.0627712
0.150956
-0.546019
0.241895
0.304136
0.415455
-0.0579602
-0.0190357
0.0489966
-0.0299609
-0.00117551
-0.00500253
0.515418
-0.41796
-0.0974589
0.000157511
-0.00212377
0.00196626
0.409134
-0.136667
-0.157229
0.158907
-0.0016768
-0.215936
-0.259327
0.0227187
0.201083
0.132967
-0.390806
0.25787
0.139367
-0.390835
0.0435239
-0.107054
0.0635304
0.10896
-0.0546418
0.230747
0.0445833
0.517106
-0.241926
-0.275172
-0.124661
-0.181048
0.305719
-0.0691024
0.118483
0.139851
0.166693
-0.0423439
-0.0148043
0.0571483
0.421069
-0.318235
-0.102787
-0.307746
-0.0227836
0.342292
-0.29277
-0.0495171
0.0174657
-0.0269692
-0.193713
-0.0590109
0.252725
0.00207309
-0.00103767
0.279585
0.141542
0.0821496
-0.178702
0.0965536
0.110649
0.127861
-0.238509
-0.53513
0.216729
0.318407
0.237379
-0.314262
0.076892
-0.132279
-0.0109175
0.143197
0.317053
-0.265616
-0.0171376
0.0346033
-0.493231
0.0770491
0.416193
-0.192421
-0.260327
0.452761
0.170136
-0.106567
-0.145181
-0.0943437
0.239527
-0.146647
0.427452
-0.280722
-0.401277
0.264718
-0.0203944
0.0299363
0.0916899
-0.36219
0.270526
-0.0381736
-0.0034196
-0.00180415
0.553917
-0.375254
-0.178649
-0.111968
0.144743
-0.0327745
-0.469824
0.277414
-0.131716
0.423565
-0.291828
0.102516
-0.327316
0.224812
0.163731
-0.497235
0.00314822
0.390093
-0.393119
0.0399152
0.339945
-0.44117
-0.129988
0.429179
-0.299189
-0.164808
0.275458
-0.172564
-0.2828
0.45538
0.174931
0.0167153
0.0513765
0.11876
0.0919208
-0.237099
-0.321648
0.443721
-0.122072
0.275709
-0.00433178
-0.0782417
0.126758
-0.0485161
-0.0242389
-0.0306317
0.343488
-0.25177
0.0635839
0.0725575
0.154897
0.00952265
0.220528
-0.197808
0.0618141
-0.414097
-0.482457
0.146315
0.336217
0.278331
-0.450879
0.0669225
-0.232703
0.165783
-0.0185642
0.00400441
0.0145598
-0.124822
-0.0243105
0.149133
-0.342746
0.264576
0.0781847
0.100116
0.324372
-0.424408
-0.15515
0.222074
0.00192496
-0.178689
0.176765
-0.342789
-0.170148
0.512959
0.0633756
-0.0489488
0.14795
-0.0447889
-0.103161
-0.476722
0.342654
0.134147
-0.262092
-0.198811
0.46095
-0.196729
0.493287
-0.296547
0.371516
-0.189634
-0.00399142
0.00414894
0.515203
-0.254759
-0.260426
0.316662
-0.542693
0.226031
-0.172388
0.450735
0.460756
-0.0726396
-0.388114
0.107813
0.0213645
-0.129177
0.383659
-0.572168
0.188522
0.119061
-0.0577901
-0.396277
-0.0284335
0.424818
-0.230732
0.03345
-0.236461
-0.231202
-0.36503
0.438855
-0.100979
-0.37568
-0.10638
0.188531
0.115569
-0.0117006
-0.103867
-0.0359615
0.151531
0.0279915
-0.393001
-0.15423
0.0691384
-0.326584
-0.22918
0.356387
-0.127187
0.0688076
-0.108858
0.0400512
-0.0516397
-0.0438476
0.0954874
-0.353248
0.124092
0.0866679
-0.330393
0.243752
0.116171
0.34927
-0.465439
0.316976
-0.214451
0.216544
-0.0293023
-0.187237
0.489442
-0.149494
-0.418134
0.286438
0.160148
0.17268
0.199519
-0.461563
-0.311678
-0.175778
0.487537
-0.433183
0.380153
0.0531132
-0.088671
0.0348057
0.0538654
-0.247425
0.354441
-0.267744
0.394515
-0.43173
0.0372161
-0.143827
-0.0348615
-0.152936
0.378701
-0.225719
0.275716
-0.439676
0.0969063
0.0928185
-0.29235
0.19954
-0.125862
-0.339746
-0.534958
0.258802
0.276176
-0.558592
0.262929
0.295682
0.198537
0.258293
-0.456818
-0.507893
0.186245
-0.438158
0.0877987
-0.452416
0.119924
0.0074985
-0.000870678
-0.00662783
0.116795
-0.233069
0.11628
-0.599827
0.339751
0.260109
-0.394346
-0.205449
-0.0521005
-0.145571
0.197671
0.288586
-0.470132
0.18155
0.277933
0.239178
-0.157183
-0.237398
0.394591
-0.277472
-0.0125695
-0.0986645
0.429596
0.138333
0.230524
-0.40603
-0.0270787
-0.0907263
0.138219
-0.0474922
-0.130563
0.0679039
-0.152537
0.0846341
-0.0799829
-0.0936168
-0.0402767
-0.0783301
-0.612239
0.299408
0.312838
0.288216
-0.159887
-0.128329
-0.156616
0.130335
0.0262815
0.0407211
-0.424592
0.383942
-0.100283
0.168189
-0.225576
-0.029649
-0.00753963
0.0674377
0.159287
-0.458122
0.298897
-0.299946
-0.00457315
0.494553
-0.199421
0.0614559
0.340421
-0.401841
0.00535735
-0.00749789
0.00214054
-0.043771
0.212425
-0.168652
0.41311
-0.290656
-0.122442
0.0293238
-0.0611638
0.03184
0.447742
-0.288392
-0.162349
-0.366343
-0.0298406
0.121025
0.356315
-0.202239
0.316748
-0.114491
0.0486467
0.329239
-0.377876
-0.0837902
-0.248113
0.153442
-0.408426
0.255008
-0.298343
0.0961195
-0.175881
0.271312
-0.0954157
0.157911
-0.142954
0.172234
-0.224334
-0.0762117
-0.323434
0.142644
0.355356
0.0702015
-0.267276
0.328762
-0.0259421
0.171201
-0.145257
0.47781
-0.18922
0.106448
-0.0584359
-0.0480122
0.46403
-0.205484
-0.258544
0.140199
-0.152118
0.011919
-0.416418
0.0982408
0.00684576
-0.00418342
-0.00266234
0.216471
-0.231069
0.0145981
0.0960175
-0.316888
0.220871
-0.274622
0.0987546
0.29562
0.117503
-0.407169
0.302533
0.104658
0.142671
-0.475113
-0.135738
-0.138011
0.265874
0.497444
-0.249281
-0.248162
0.247774
-0.223763
-0.0240083
0.114338
-0.252348
-0.139739
0.227076
-0.0192027
-0.20787
0.158866
-0.283518
0.178641
-0.00611144
-0.0127566
0.0156671
-0.137026
-0.033357
0.253888
-0.234854
0.197748
0.0371082
0.173231
-0.4602
-0.0175036
0.157704
-0.014558
0.475316
0.0446577
-0.0854764
0.0408187
-0.113276
0.329372
-0.484515
0.155147
0.258385
0.239061
0.378062
-0.395686
0.22235
0.315533
-0.0507481
-0.0532032
0.21475
-0.225212
0.399366
-0.174151
0.103646
-0.0348377
-0.000107741
-0.0714185
0.301122
0.153674
0.281394
-0.283042
-0.14524
0.30171
-0.196727
-0.104974
-0.355623
0.153491
0.20214
0.464361
-0.293861
-0.170486
0.285215
0.265954
-0.374944
-0.0322109
0.265141
-0.40809
0.143
-0.420993
0.109392
-0.535289
0.295122
0.240189
0.151383
-0.484219
0.332845
0.267718
-0.255711
-0.0120035
0.182692
-0.238488
0.0557952
-0.20834
0.187101
0.021242
0.00520027
0.0979664
-0.103167
0.106423
-0.101224
-0.00291803
0.00286263
5.53934e-05
0.232623
0.0135107
-0.13881
0.1253
-0.273654
0.472201
0.428607
-0.0353057
-0.393296
-0.393424
0.141689
0.160227
0.141493
-0.345694
0.214776
0.130926
-0.229321
0.0392835
0.16786
0.0107821
0.388024
-0.289914
-0.0981054
-0.37695
-0.195206
0.138353
0.0195577
0.284301
0.236466
0.211621
-0.0948227
0.555299
-0.285418
-0.269876
-0.014299
0.038974
-0.0246749
-0.126687
0.228224
-0.206234
-0.35234
0.0520221
-0.0226983
0.134855
-0.141741
0.00688633
-0.504937
0.402334
0.102736
0.314778
0.149597
-0.251944
0.468795
-0.216842
0.166272
-0.199629
0.221443
-0.512863
0.291436
-0.35735
-0.177588
-0.147974
-0.0657522
-0.011454
-0.196884
-0.0811072
0.383889
-0.244471
-0.311552
0.211674
0.0998921
0.166378
0.0771315
-0.243503
0.0506168
-0.0971145
0.0464978
-0.152436
-0.164956
0.317396
-0.606464
0.359186
0.247281
-0.0453931
0.223299
0.332006
-0.315606
0.364262
0.0302157
0.120532
0.295535
-0.415975
0.105354
0.0876128
-0.241102
-0.365358
0.260645
-0.0942615
0.52819
-0.22972
-0.298438
-0.143299
0.158966
0.186888
-0.491296
0.304416
0.353852
-0.0886689
-0.0135873
0.00476421
0.0088231
-0.153775
-0.316354
0.125493
0.370754
-0.496247
0.191361
0.0357187
-0.00781146
-0.293485
0.301312
0.286882
-0.43345
-0.466828
0.0828425
0.384011
0.503851
-0.324812
-0.178927
-0.0958607
0.172043
-0.0761811
-0.00375049
0.032455
-0.0287045
0.216438
0.0730138
-0.289431
0.233753
-0.114227
-0.119524
0.329151
-0.214811
0.106558
-0.0630342
0.420477
-0.313739
-0.106738
0.0198576
0.128093
0.057085
0.363391
-0.508785
0.333889
0.174908
0.140006
-0.126494
-0.198919
0.251835
0.0137508
-0.265579
0.222667
0.0858702
-0.438339
0.308353
0.392181
-0.363492
-0.0286819
0.133119
0.297233
-0.516345
0.218709
0.297665
0.311527
-0.120602
0.456461
-0.119396
-0.337019
0.43107
-0.31044
0.0791884
0.377311
0.0101621
0.335292
0.243145
-0.376174
0.133034
-0.317876
-0.158775
0.47669
-0.539928
0.363501
0.176434
0.128344
-0.135634
0.00728994
-0.151941
-0.374174
-0.260284
0.456893
-0.196585
0.355461
0.122162
-0.477622
0.238727
-0.246532
0.039123
0.353065
-0.166033
0.423671
-0.208725
0.163808
0.365134
0.345055
0.0350121
-0.380066
-0.197013
0.0221771
0.174838
-0.138734
0.0848272
0.0539068
0.0155069
0.0126902
-0.0281971
-0.226578
-0.00827479
0.386609
-0.38334
-0.357381
-0.0589838
0.0203986
-0.0241491
-0.0213673
0.518406
-0.320137
-0.198264
0.507988
-0.138082
0.0790254
-0.294172
0.215152
-0.0236902
0.520009
-0.136075
0.48113
-0.0306838
0.0510738
-0.0203899
-0.135908
-0.191395
0.129731
0.00217688
0.197973
0.320441
0.495463
-0.180673
0.108984
0.124771
-0.456983
0.25822
-0.130477
-0.257184
0.387702
-0.505062
0.216787
0.2884
-0.528236
0.30814
0.2201
0.0448201
0.298698
0.080049
-0.442228
0.28014
-0.395172
0.115033
0.266345
-0.43737
0.171032
0.317763
0.0702657
0.211198
0.117953
0.488328
-0.117574
-0.161901
0.428253
-0.424362
0.106521
-0.249332
0.185051
0.0642845
0.34173
-0.135089
-0.206636
0.0800261
-0.232459
-0.250964
-0.12956
-0.00726378
-0.186449
-0.186446
0.230314
-0.0438637
0.24187
0.00997169
0.298691
0.0986913
-0.397365
0.46585
-0.314458
-0.470373
-0.190551
0.273598
-0.0830316
-0.291608
0.101076
-0.00302236
0.0137261
-0.0107038
0.0224457
-0.0647895
-0.247315
0.446882
-0.285545
0.285293
-0.192463
-0.0461971
0.0271614
-0.529926
0.244513
-0.279064
0.442796
0.357134
-0.346859
-0.427569
-0.112354
-0.134149
-0.254367
0.388541
0.452983
-0.154273
-0.119859
-0.192428
0.312301
0.433611
-0.00336774
0.158356
-0.37623
0.125308
0.333396
-0.470581
0.200154
-0.238272
0.0381193
0.0328966
-0.0173897
-0.420947
0.292456
0.1285
-0.219459
-0.284088
0.426767
-0.271159
-0.155572
-0.39493
0.134669
0.272537
0.117137
-0.389614
-0.405937
-0.419002
0.301969
0.117042
-0.475194
0.172144
0.303053
-0.306576
0.222019
0.0845681
0.240434
-0.321274
0.080842
0.294301
0.132498
0.138349
-0.164289
0.482088
0.0572727
-0.400679
0.343416
0.152901
0.00199735
-0.206606
-0.332494
-0.231781
-0.296451
-0.120907
-0.206115
0.327022
-0.110692
-0.423692
-0.0115421
0.24893
0.0281067
0.219669
0.505006
-0.133892
-0.371085
-0.123335
0.389616
-0.266228
-0.0314366
0.218988
0.33501
-0.37132
0.221497
0.149825
0.476342
-0.190939
-0.285399
-0.520204
0.165945
0.354277
0.25052
0.2777
-0.20733
0.20885
0.0815516
-0.295557
0.214017
0.204936
0.136799
0.387158
-0.254158
-0.0827678
0.323199
-0.402716
0.382776
0.158847
0.302647
-0.46145
0.00185335
0.00564515
0.48721
-0.214199
-0.273005
0.275765
0.278166
0.248099
-0.382465
0.134403
0.506069
-0.353629
-0.152433
0.19124
-0.25025
0.265317
-0.160872
-0.104444
0.287262
0.16373
-0.450978
-0.174401
0.278427
0.0732331
0.0937204
-0.166954
0.29638
-0.217351
-0.27334
-0.159402
0.432824
0.248836
-0.40601
0.0538035
-0.226281
0.172482
-0.00958291
-0.0687085
-0.164391
0.429755
-0.308498
-0.121249
0.0840605
-0.349854
0.265828
0.250563
0.255515
-0.167089
0.157673
0.00941739
-0.338819
-0.181368
0.339791
-0.255696
-0.357027
-0.172894
-0.0452003
-0.340775
0.386015
-0.07397
-0.154588
0.228563
-0.112982
-0.173973
0.28696
0.493546
-0.176884
-0.315625
0.299712
0.130054
0.120588
0.219995
-0.340568
0.384833
-0.136695
0.183584
-0.48257
0.299034
0.419173
-0.101404
0.0557002
-0.11399
0.167515
-0.186344
0.0188301
-0.0016712
0.00224891
-0.00998649
0.00696413
-0.390076
0.138142
-0.432625
0.482233
-0.0496043
0.00265629
-0.259891
0.38092
-0.121028
0.192965
0.29425
0.173176
0.304637
0.243676
-0.366434
0.122792
-0.146636
0.0161543
-0.183635
0.167483
-0.131437
-0.3734
-0.0751522
0.363417
-0.462065
-0.444472
0.315705
0.128813
-0.467179
0.173332
-0.277933
0.1511
0.00180213
0.143575
0.246074
-0.389648
0.272394
0.151191
0.220317
0.127573
-0.108019
-0.463896
0.184833
-0.0205089
0.40108
-0.12094
0.36796
-0.124258
-0.326013
0.486335
-0.160308
0.295761
0.166865
-0.199455
0.23748
-0.453416
-0.107561
0.301716
-0.220149
0.229592
-0.226793
0.289109
0.157678
-0.446779
0.0470042
0.0453955
-0.0923997
-0.00484477
0.00192674
0.309705
-0.213687
-0.448277
0.275904
-0.292109
-0.125851
0.253855
-0.200044
-0.219731
-0.0605346
0.280269
-0.00854746
-0.195687
0.204237
0.0495364
0.0220375
-0.0715738
-0.103846
-0.227657
0.331531
-0.358219
0.410252
-0.052033
-0.0879447
-0.405276
0.178238
-0.0107207
-0.123071
-0.496424
0.205404
0.29105
0.0764802
-0.191677
0.1152
-0.181258
-0.128173
-0.0810523
-0.164051
0.24511
0.14655
-0.266395
-0.171624
-0.137648
-0.136962
0.445189
0.239141
0.103153
0.30595
-0.212683
-0.0932653
0.152087
-0.401035
0.24897
0.104776
-0.172882
0.218839
0.137569
0.022123
0.162481
-0.1846
0.298181
0.133748
-0.431922
0.358325
0.0882164
-0.446542
0.152168
0.228069
-0.315263
0.270092
0.0485715
0.486625
-0.311124
-0.175453
-0.115582
0.523068
-0.275107
-0.247959
-0.0169422
0.142482
-0.00244811
0.206901
-0.326975
0.120124
0.236629
-0.356592
0.119989
-0.0541244
0.210384
-0.156258
0.241353
-0.361575
0.120249
0.139923
-0.399812
0.167199
-0.242915
0.0757211
-0.29807
0.292089
-0.122969
-0.16911
0.335694
-0.345959
0.0102847
-0.262133
0.478868
0.0247577
0.431467
-0.13328
-0.0283304
-0.10524
-0.0758187
0.0596154
-0.0531406
-0.00647477
-0.289162
0.346443
0.129424
-0.42007
0.165199
-0.246245
-0.0824704
-0.0696733
0.152144
0.171758
-0.242498
0.0707459
0.0999735
-0.389883
0.00483583
-0.331735
0.326899
-0.444187
0.000922979
0.443271
0.24058
0.28249
-0.475211
0.313156
0.162083
0.190989
-0.199536
0.354619
-0.113246
0.319234
-0.234519
-0.0846989
0.0633159
0.0142305
-0.0775463
0.521847
-0.263461
-0.301066
0.144918
-0.335045
0.190145
-0.0888713
0.131245
-0.40928
0.27806
0.374765
-0.167809
0.313079
0.116101
-0.00273228
-0.0212988
0.0240311
-0.293587
0.461086
-0.167484
-0.271437
0.402707
-0.161683
-0.313501
-0.0489035
0.0995204
0.0754222
0.189896
0.409409
-0.279546
-0.129853
-0.457869
0.140021
0.31789
0.246909
-0.392736
0.145836
0.233505
0.085746
-0.116593
-0.00990994
-0.46416
0.161508
-0.434765
-0.0114108
-0.0242492
-0.220589
0.244842
-0.327047
0.443219
0.477147
-0.293375
-0.183767
-0.099919
-0.235798
0.335753
0.0497564
0.195401
-0.285757
0.447356
0.494945
-0.334336
-0.160598
0.209307
-0.0179429
-0.1297
0.348555
0.000771833
-0.129467
0.431833
-0.302264
0.0450944
-0.077491
0.0323967
0.507424
-0.35606
-0.151286
-0.0658643
-0.00439806
-0.130859
-0.245309
0.162808
0.0154315
0.480634
-0.0520218
0.349707
-0.0139923
0.134903
0.246
-0.380901
-0.143726
0.390643
0.0462339
-0.26596
0.28736
0.151229
-0.43853
-0.429423
0.29287
0.136593
-0.0133224
-0.276567
0.00395925
0.00409112
0.246742
0.178335
-0.471905
-0.449663
0.171438
0.278298
0.102855
-0.316001
0.213157
0.318081
-0.173143
-0.0925943
0.456026
-0.132235
-0.259353
0.391634
-0.345631
0.374936
-0.2227
-0.390531
0.267248
0.31508
-0.464254
0.180791
0.283505
0.0615676
-0.106356
0.0298023
-0.200484
0.170683
-0.0781801
0.0706407
-0.205227
-0.162008
0.367237
0.0195968
-0.0223291
-0.252624
0.393908
-0.141234
-0.0578723
-0.245765
-0.109851
0.292805
0.168296
0.266507
-0.440059
0.173622
0.504086
-0.324874
-0.179182
-0.416314
0.45549
-0.0391548
-0.263635
0.125999
-0.0727591
0.016605
-0.0876832
-0.0510501
0.161489
-0.185734
-0.473727
0.311411
0.162321
-0.150253
-0.255169
0.405464
-0.233153
0.0467101
0.206351
0.0613717
-0.0754202
-0.121751
0.197173
-0.444595
0.0693555
-0.41474
0.140933
0.273826
0.176029
0.318928
0.00227761
0.021187
-0.0234646
-0.164047
-0.0930954
0.257144
0.0735128
0.444181
-0.458157
0.0140339
0.126363
-0.12661
-0.0121998
0.205339
0.271814
0.00681125
0.20694
-0.213842
0.00690202
0.194611
-0.297074
0.102476
0.516256
-0.166985
0.490843
-0.157446
0.0591069
0.0498527
0.199851
0.0947986
-0.294634
0.324943
0.155411
-0.480344
-0.0560735
-0.119517
0.175592
0.0926771
-0.131668
-0.26376
0.39548
-0.216206
-0.326486
-0.148345
0.406851
-0.258503
-0.243784
-0.162182
-0.133715
-0.256948
0.390707
0.238397
-0.398708
0.160394
0.156623
-0.386608
0.230009
0.093036
0.253598
-0.346576
0.141823
-0.340751
0.19894
0.210159
-0.197928
-0.0122273
0.337124
-0.355842
0.0187493
-0.0852344
0.285101
-0.118362
-0.217303
0.335665
-0.0161973
0.0184749
0.00996154
0.371249
-0.171838
-0.266499
0.0511168
0.0524305
-0.103547
0.317695
-0.296697
-0.0209796
-0.451635
0.272153
0.179494
0.454556
-0.161735
0.319961
-0.456035
-0.117632
0.306633
-0.188988
0.0170317
0.30068
-0.419011
0.454832
-0.0358014
0.12688
0.146736
0.336813
-0.194976
-0.107749
0.294967
-0.187198
-0.0362991
0.099615
-0.0230204
0.239569
-0.523348
0.300141
0.223228
0.236374
0.129185
-0.365531
-0.168765
-0.146306
0.31507
0.213233
0.285391
-0.460062
0.174679
0.157333
-0.0785394
0.286745
0.142093
-0.428757
-0.0828815
0.191868
0.196648
0.0126625
-0.398383
0.260309
0.138129
0.271713
-0.428742
0.157082
0.216175
-0.432035
0.215885
0.315347
-0.170202
0.144102
0.0038038
-0.147904
-0.0461801
-0.420625
0.0846563
-0.289882
-0.181798
0.125245
0.0147612
0.205008
0.00193309
0.309102
-0.20623
-0.338165
0.214813
0.123357
-0.148253
-0.241519
-0.0526484
-0.0703228
-0.157849
0.37976
-0.221881
0.0595301
0.0648189
-0.124349
-0.023944
0.131757
0.267621
-0.392138
0.124532
-0.26475
0.196643
0.0681075
0.108316
-0.424136
-0.0339214
0.458068
0.192894
-0.176737
-0.160667
0.446067
0.372525
-0.223399
0.149433
0.100816
-0.292687
0.191888
-0.282309
0.323082
0.474537
-0.186112
-0.28842
-0.320932
0.455006
-0.134004
0.384572
-0.232465
-0.24921
0.329212
0.491434
-0.392725
-0.151663
0.418228
-0.158109
0.42987
-0.0879387
0.366998
-0.130601
0.287347
0.15366
-0.440994
0.18708
0.023082
0.286633
-0.194711
0.184857
-0.371523
0.186668
0.140868
-0.119503
-0.0660462
-0.329125
0.256717
0.493488
-0.426743
-0.0667383
-0.290182
-0.108149
0.0620897
-0.0125532
0.278323
-0.519073
0.240791
-0.316288
0.43936
-0.123044
-0.255659
0.197052
0.0586136
0.499043
-0.323003
0.338507
-0.147516
0.210289
0.103619
-0.313892
0.215163
0.108849
-0.323986
-0.0828162
-0.182116
0.264934
0.271173
0.122321
-0.393445
-0.0133956
-0.114288
0.410071
0.0834241
0.341915
-0.00475793
-0.207971
0.0038621
0.20411
0.071219
7.49363e-05
-0.00186287
-0.303225
0.134461
-0.291794
0.475426
-0.0865429
0.324251
-0.237667
-0.235287
0.355447
-0.120156
-0.405627
-0.0388095
-0.0664448
-0.189207
0.111906
-0.337116
0.197444
0.273603
-0.47104
0.20749
0.104622
-0.312109
-0.381704
0.137998
-0.213107
0.369759
0.421643
-0.031857
-0.22385
0.286998
-0.186164
-0.186013
0.363827
-0.177813
0.108761
-0.433434
-0.467548
0.330646
0.13696
-0.106514
-0.260873
0.367393
0.319918
0.13992
0.00418291
0.239553
0.067371
-0.306914
0.304047
0.170494
-0.0011476
0.00877248
-0.00762488
0.0328246
0.25381
-0.19382
0.48802
-0.294195
-0.00513902
0.0765324
-0.463818
0.0203496
-0.0510334
-0.324477
0.17177
0.501707
-0.251134
-0.0816275
0.291928
0.455826
-0.315903
0.116703
-0.352731
0.236066
0.059363
-0.141833
0.362331
0.129119
-0.246862
0.131733
-0.0965575
-0.385734
-0.0305598
0.305474
0.136527
-0.441997
0.405125
-0.132539
-0.0984772
0.182396
0.156112
0.233255
0.134731
0.305546
-0.045968
0.453933
-0.311768
-0.14209
-0.418861
0.259532
0.331016
-0.123526
-0.120493
-0.270629
0.391176
-0.0502979
0.101415
0.206978
-0.388059
0.181113
-0.256427
0.0787182
0.177715
0.156359
0.291445
0.354401
-0.147394
-0.139301
-0.32819
0.348706
-0.23197
0.202054
-0.17225
0.334788
-0.0952268
0.253067
-0.071445
-0.181617
-0.206127
0.0293602
0.17677
0.133519
-0.389781
0.256281
0.224017
-0.376329
0.152369
0.480926
-0.272251
-0.208672
0.177743
0.247532
-0.425195
-0.368965
0.182952
-0.0259424
-0.42666
0.45274
-0.193081
-0.125061
-0.124267
0.26789
-0.469114
0.13105
0.499667
-0.344928
-0.154727
-0.411117
0.0902529
0.0221675
0.0194418
-0.0416093
-0.382072
-0.0505497
0.146631
0.25445
0.227944
0.021216
-0.249156
0.3017
-0.151417
0.173543
-0.249951
0.427777
-0.200824
0.487805
-0.286932
-0.13892
-0.177558
0.316488
0.125961
0.262681
-0.38862
0.129739
0.345363
-0.112085
0.297368
-0.102745
0.242919
-0.368915
0.126028
0.0595683
-0.223626
0.0967345
-0.166408
0.282457
0.221318
0.133323
0.27249
-0.436671
0.164235
0.275373
-0.444518
0.169155
0.383284
-0.249745
-0.13738
-0.263778
0.401207
-0.317241
-0.174051
0.20388
-0.311827
0.10796
0.152549
-0.289784
0.194557
0.284195
-0.47874
-0.110084
0.0459278
0.0641559
0.000525577
0.129206
-0.369324
-0.146698
0.480599
0.219533
-0.184695
-0.034837
0.0210296
-0.287411
0.266396
-0.191389
0.0856485
0.105741
-0.257902
-0.125765
-0.140346
0.266124
-0.0323698
0.0119754
-0.338254
-0.156724
0.495049
0.436463
0.32614
0.167157
-0.0908418
-0.204703
0.278244
-0.421033
0.142798
0.171706
-0.431314
0.103102
-0.185982
0.387338
-0.19365
-0.193685
0.445587
-0.291619
-0.153959
0.192753
0.0267807
0.0581245
-0.0149743
-0.0431502
0.00506401
0.00866209
-0.327383
0.1923
-0.317197
0.175253
0.141972
0.0930399
0.19174
-0.284743
0.249967
0.0994629
-0.349429
0.201653
0.297401
0.530664
-0.219893
-0.310753
0.173432
-0.187924
0.0144955
0.290235
-0.377327
-0.0416648
-0.176565
0.00229458
0.00455118
0.165571
-0.237725
0.0721602
0.0337495
-0.333846
0.300105
-0.158866
-0.314856
-0.18098
-0.0754397
0.356005
0.0895888
0.250405
-0.336905
-0.0711512
0.37225
-0.129306
0.247577
0.0473605
-0.29493
0.537666
-0.208418
0.26038
-0.133487
0.233821
0.103186
-0.336992
-0.272508
0.411247
-0.138737
0.255732
-0.247446
-0.00827058
0.254151
-0.400344
0.146252
-0.205352
0.348928
0.414087
-0.108609
-0.217858
-0.305471
-0.285869
-0.202506
0.488391
0.00228846
-0.223225
0.220948
0.43815
-0.162766
-0.151003
0.353506
-0.2025
0.00993237
-0.0421411
-0.294255
0.390884
-0.0966273
-0.0313916
-0.0657228
-0.442182
0.242761
-0.308631
0.34239
-0.0522766
-0.0204823
-0.363434
0.158083
0.239762
-0.362803
0.123069
0.0929699
0.192333
-0.144537
-0.195495
0.288572
-0.172167
0.174464
0.270376
-0.249331
0.097551
0.208401
0.227852
-0.0276963
0.295605
0.235077
-0.511893
0.186537
0.325383
-0.270525
0.309371
-0.0388403
0.203829
-0.427476
-0.0147068
-0.292463
0.5112
0.315474
-0.111577
-0.421546
0.271336
0.116558
0.257421
-0.36393
0.231858
-0.155374
0.0371602
0.0451023
-0.0822625
0.251249
0.133626
-0.222724
-0.156356
-0.287817
0.144073
0.254349
-0.398385
-0.162849
0.411952
-0.144316
0.18611
0.162607
0.29322
0.172847
-0.205525
0.0326795
-0.0788704
0.326451
-0.156133
0.377587
0.447054
-0.0454576
-0.213397
-0.0948068
0.308225
0.157165
0.24907
-0.406203
0.357981
0.0315433
0.170512
-0.0154539
0.0376214
-0.161676
-0.257318
0.0144403
-0.0633889
0.271534
0.140435
0.0182964
-0.00570248
-0.050509
0.0393405
0.0111686
0.00799949
0.0501251
0.135598
-0.0752056
-0.0603924
-0.105629
-0.0144454
-0.318576
-0.334872
-0.140318
-0.134199
0.127724
0.00647483
-0.245405
-0.411828
0.24417
0.252509
0.133925
-0.38639
-0.135249
-0.0413251
-0.229195
-0.156196
-0.136803
-0.376046
0.0537048
-0.373834
0.0128767
0.0381971
-0.18435
0.0869839
0.0973661
-0.423071
0.165974
0.257098
-0.135005
0.125169
0.00983727
0.176502
0.133965
-0.310466
0.421894
0.142965
-0.408582
0.265631
0.125259
0.269844
-0.39504
0.0540173
-0.106386
0.126244
0.372092
-0.444729
0.221337
-0.0342527
0.171674
-0.0663188
0.00558726
-0.00977068
0.00107102
-0.00274222
-0.0453842
-0.150867
0.196255
-0.0347673
0.218003
-0.183234
0.201516
0.229958
0.00293756
0.255755
-8.13521e-06
0.197714
0.201656
0.24164
-0.389982
-0.217182
-0.110195
-0.00156944
0.114043
-0.112473
-0.00895289
0.224365
-0.0618232
-0.336016
0.279326
-0.445354
0.401949
-0.048933
-0.0611505
-0.278305
-0.113823
-0.15807
-0.313726
0.174818
0.194331
0.19301
0.434992
-0.419131
-0.0156975
-0.458961
0.159493
0.299469
-0.284398
0.15865
-0.448904
0.171579
0.277324
-0.328494
0.500641
0.306184
-0.159654
-0.146521
-0.289619
0.0857152
0.203908
-0.206047
0.00527273
-0.00938582
0.00411309
-0.225221
0.236776
-0.323694
0.0869137
-0.00637071
-0.0360299
0.0424006
-0.210099
0.179181
0.0309215
0.158485
-0.187189
-0.222937
0.41013
-0.121754
0.401084
0.253036
0.133377
-0.386369
-0.158964
0.426058
-0.266996
-0.255235
-0.220327
-0.18682
-0.282992
0.507873
-0.212098
-0.295763
0.0954575
0.023604
0.262905
0.121208
-0.384108
-0.164361
0.0242229
0.168674
0.185018
-0.236692
0.0516764
0.194535
-0.0211007
-0.306236
0.0981426
0.208107
0.198588
0.103142
0.293798
0.132202
-0.425999
0.105498
0.200696
-0.139844
-0.250029
0.389894
-0.260052
-0.148865
0.408958
0.204722
0.0916614
-0.332538
0.480938
-0.148353
-0.00646091
0.0791407
-0.0726794
0.180588
0.278704
-0.45926
-0.142127
-0.140228
-0.270084
0.410312
-0.256519
-0.172114
0.428647
-0.124942
0.324504
-0.270793
-0.476327
-0.0800448
-0.176696
0.256748
0.255952
0.128064
-0.383993
-0.410618
0.139496
0.328714
-0.0676482
-0.0740346
0.267768
0.100314
-0.368065
0.310204
-0.472191
0.161988
-0.0266215
-0.0921746
-0.12927
0.305773
-0.0565971
0.00854672
0.0480503
0.166285
0.0799172
-0.246195
0.452275
-0.291546
-0.160689
-0.427451
0.0949666
-0.0420623
0.0356916
-0.171563
0.142265
-0.284533
0.471145
-0.16094
0.235928
-0.17127
-0.0646548
-0.0987017
0.481907
-0.161946
0.473519
-0.186046
-0.287439
-0.168507
0.461255
-0.292702
0.381961
-0.255979
-0.277502
0.359413
-0.0818867
0.313816
0.128811
-0.442622
0.420556
-0.150165
-0.200359
-0.174576
0.129695
0.269371
-0.399008
0.482265
-0.152889
-0.209694
0.453143
-0.243449
0.161119
-0.458627
0.297508
0.244375
0.26351
0.404362
-0.148389
-0.422651
-0.0145643
0.43722
-0.0384721
0.038977
-0.0576738
0.0186969
0.0650563
-0.423276
-0.0524794
0.0896397
0.397327
-0.250696
0.195794
0.0320593
-0.0115319
-0.418592
-0.0801145
-0.17639
0.162097
0.0142945
-0.00514817
0.0103059
-0.00515771
-0.143975
-0.265975
0.409993
-0.199975
-0.0857091
0.285688
-0.320703
0.121214
0.00912182
0.251705
0.296364
-0.405235
0.108872
0.406374
-0.262257
-0.143227
0.446097
-0.359856
-0.0148398
-0.168793
-0.0392344
0.076501
-0.00856771
0.102997
-0.0944289
0.108061
-0.33569
-0.482001
0.275397
0.455913
0.498182
-0.346238
-0.151926
0.102264
-0.332334
0.230078
-0.278904
0.394071
-0.115098
0.0385121
-0.041124