/*--------------------------------*- C++ -*----------------------------------*\
| =========                 |                                                 |
| \\      /  F ield         | OpenFOAM: The Open Source CFD Toolbox           |
|  \\    /   O peration     | Version:  v2012                                 |
|   \\  /    A nd           | Website:  www.openfoam.com                      |
|    \\/     M anipulation  |                                                 |
\*---------------------------------------------------------------------------*/
FoamFile
{
    version     2.0;
    format      ascii;
    class       pointVectorField;
    location    "50";
    object      pointDisplacement;
}
// * * * * * * * * * * * * * * * * * * * * * * * * * * * * * * * * * * * * * //

dimensions      [0 1 0 0 0 0 0];


internalField   nonuniform List<vector> 
19270
(
(0 0 0)
(0 0 0)
(0 0 0)
(0 0 0)
(0 0 0)
(0 0 0)
(0 0 0)
(0 0 0)
(0 0 0)
(0 0 0)
(0 0 0)
(0 0 0)
(0 0 0)
(0 0 0)
(0 0 0)
(0 0 0)
(0 0 0)
(0 0 0)
(0 0 0)
(0 0 0)
(0 0 0)
(0 0 0)
(0 0 0)
(0 0 0)
(0 0 0)
(0 0 0)
(0 0 0)
(0 0 0)
(0 0 0)
(0 0 0)
(0 0 0)
(0 0 0)
(0 0 0)
(0 0 0)
(0 0 0)
(0 0 0)
(0 0 0)
(0 0 0)
(0 0 0)
(0 0 0)
(0 0 0)
(0 0 0)
(0 0 0)
(0 0 0)
(0 0 0)
(0 0 0)
(0 0 0)
(0 0 0)
(0 0 0)
(0 0 0)
(0 0 0)
(0 0 0)
(0 0 0)
(0 0 0)
(0 0 0)
(0 0 0)
(0 0 0)
(0 0 0)
(0 0 0)
(0 0 0)
(0 0 0)
(0 0 0)
(0 0 0)
(0 0 0)
(0 0 0)
(0 0 0)
(0 0 0)
(0 0 0)
(0 0 0)
(0 0 0)
(0 0 0)
(0 0 0)
(0 0 0)
(0 0 0)
(0 0 0)
(0 0 0)
(0 0 0)
(0 0 0)
(0 0 0)
(0 0 0)
(0 0 0)
(0 0 0)
(0 0 0)
(0 0 0)
(0 0 0)
(0 0 0)
(0 0 0)
(0 0 0)
(0 0 0)
(0 0 0)
(0 0 0)
(0 0 0)
(0 0 0)
(0 0 0)
(0 0 0)
(0 0 0)
(0 0 0)
(0 0 0)
(0 0 0)
(0 0 0)
(0 0 0)
(0 0 0)
(0 0 0)
(0 0 0)
(0 0 0)
(0 0 0)
(0 0 0)
(0 0 0)
(0 0 0)
(0 0 0)
(0 0 0)
(0 0 0)
(0 0 0)
(0 0 0)
(0 0 0)
(0 0 0)
(0 0 0)
(0 0 0)
(0 0 0)
(0 0 0)
(0 0 0)
(0 0 0)
(0 0 0)
(0 0 0)
(0 0 0)
(0 0 0)
(0 0 0)
(0 0 0)
(0 0 0)
(0 0 0)
(0 0 0)
(0 0 0)
(0 0 0)
(0 0 0)
(0 0 0)
(0 0 0)
(0 0 0)
(0 0 0)
(0 0 0)
(0 0 0)
(0 0 0)
(0 0 0)
(0 0 0)
(0 0 0)
(0 0 0)
(0 0 0)
(0 0 0)
(0 0 0)
(0 0 0)
(0 0 0)
(0 0 0)
(0 0 0)
(0 0 0)
(0 0 0)
(0 0 0)
(0 0 0)
(0 0 0)
(0 0 0)
(0 0 0)
(0 0 0)
(0 0 0)
(0 0 0)
(0 0 0)
(0 0 0)
(0 0 0)
(0 0 0)
(0 0 0)
(0 0 0)
(0 0 0)
(0 0 0)
(0 0 0)
(0 0 0)
(0 0 0)
(0 0 0)
(0 0 0)
(0 0 0)
(0 0 0)
(0 0 0)
(0 0 0)
(0 0 0)
(0 0 0)
(0 0 0)
(0 0 0)
(0 0 0)
(0 0 0)
(0 0 0)
(0 0 0)
(0 0 0)
(0 0 0)
(0 0 0)
(0 0 0)
(0 0 0)
(0 0 0)
(0 0 0)
(0 0 0)
(0 0 0)
(0 0 0)
(0 0 0)
(0 0 0)
(0 0 0)
(0 0 0)
(0 0 0)
(0 0 0)
(0 0 0)
(0 0 0)
(0 0 0)
(0 0 0)
(0 0 0)
(0 0 0)
(0 0 0)
(0 0 0)
(0 0 0)
(0 0 0)
(0 0 0)
(0 0 0)
(0 0 0)
(0 0 0)
(0 0 0)
(0 0 0)
(0 0 0)
(0 0 0)
(0 0 0)
(0 0 0)
(0 0 0)
(0 0 0)
(0 0 0)
(0 0 0)
(0 0 0)
(0 0 0)
(0 0 0)
(0 0 0)
(0 0 0)
(0 0 0)
(0 0 0)
(0 0 0)
(0 0 0)
(0 0 0)
(0 0 0)
(0 0 0)
(0 0 0)
(0 0 0)
(0 0 0)
(0 0 0)
(0 0 0)
(0 0 0)
(0 0 0)
(0 0 0)
(0 0 0)
(0 0 0)
(0 0 0)
(0 0 0)
(0 0 0)
(0 0 0)
(0 0 0)
(0 0 0)
(0 0 0)
(0 0 0)
(0 0 0)
(0 0 0)
(0 0 0)
(0 0 0)
(0 0 0)
(0 0 0)
(0 0 0)
(0 0 0)
(0 0 0)
(0 0 0)
(0 0 0)
(0 0 0)
(0 0 0)
(0 0 0)
(0 0 0)
(0 0 0)
(0 0 0)
(0 0 0)
(0 0 0)
(0 0 0)
(0 0 0)
(0 0 0)
(0 0 0)
(0 0 0)
(0 0 0)
(0 0 0)
(0 0 0)
(0 0 0)
(0 0 0)
(0 0 0)
(0 0 0)
(0 0 0)
(0 0 0)
(0 0 0)
(0 0 0)
(0 0 0)
(0 0 0)
(0 0 0)
(0 0 0)
(0 0 0)
(0 0 0)
(0 0 0)
(0 0 0)
(0 0 0)
(0 0 0)
(0 0 0)
(0 0 0)
(0 0 0)
(0 0 0)
(0 0 0)
(0 0 0)
(0 0 0)
(0 0 0)
(0 0 0)
(0 0 0)
(0 0 0)
(0 0 0)
(0 0 0)
(0 0 0)
(0 0 0)
(0 0 0)
(0 0 0)
(0 0 0)
(0 0 0)
(0 0 0)
(0 0 0)
(0 0 0)
(0 0 0)
(0 0 0)
(0 -4.62928e-05 0)
(0 -3.59491e-05 0)
(0 -4.49428e-05 0)
(0 -3.83792e-05 0)
(0 -4.12074e-05 0)
(0 -2.6364e-05 0)
(0 -2.93874e-05 0)
(0 -3.31457e-05 0)
(0 -1.53021e-05 0)
(0 -2.37454e-05 0)
(0 -4.85831e-06 0)
(0 -2.92005e-05 0)
(0 3.50082e-07 0)
(0 -4.05768e-05 0)
(0 -2.20686e-05 0)
(0 -2.26225e-05 0)
(0 -1.8705e-05 0)
(0 -1.7706e-05 0)
(0 -4.3627e-05 0)
(0 -1.44187e-05 0)
(0 -1.18298e-05 0)
(0 -9.07524e-06 0)
(0 -1.32919e-07 0)
(0 -4.43837e-05 0)
(0 -3.57569e-05 0)
(0 -3.52776e-05 0)
(0 -2.81829e-05 0)
(0 -2.61757e-05 0)
(0 -8.1601e-06 0)
(0 -5.96665e-06 0)
(0 -2.50211e-05 0)
(0 -7.68056e-06 0)
(0 -5.40246e-07 0)
(0 -3.38454e-05 0)
(0 -1.90058e-05 0)
(0 -2.43853e-05 0)
(0 -3.22396e-05 0)
(0 -3.73325e-05 0)
(0 -2.85262e-05 0)
(0 -2.04087e-05 0)
(0 -5.29316e-06 0)
(0 -3.51439e-06 0)
(0 -1.35952e-05 0)
(0 -5.99181e-07 0)
(0 -2.72473e-05 0)
(0 -3.86825e-05 0)
(0 -2.92277e-05 0)
(0 -4.32695e-05 0)
(0 -3.70322e-05 0)
(0 -4.37021e-05 0)
(0 -3.547e-06 0)
(0 -1.00448e-05 0)
(0 -1.31857e-05 0)
(0 -2.62071e-05 0)
(0 -2.66956e-05 0)
(0 -4.43835e-05 0)
(0 -3.42242e-05 0)
(0 -2.50139e-05 0)
(0 -4.75142e-05 0)
(0 -3.93659e-05 0)
(0 -3.80327e-05 0)
(0 -4.37168e-05 0)
(0 -2.86835e-05 0)
(0 -2.65126e-05 0)
(0 -2.6068e-05 0)
(0 -2.21584e-05 0)
(0 -1.66108e-05 0)
(0 -1.40309e-05 0)
(0 -9.50946e-06 0)
(0 -1.36909e-06 0)
(0 -0.000867344 0)
(0 -0.00111071 0)
(0 -0.00124867 0)
(0 -0.00127786 0)
(0 -0.00130278 0)
(0 -0.00132337 0)
(0 -0.00133791 0)
(0 -0.00134738 0)
(0 -0.00135114 0)
(0 -0.00134899 0)
(0 -0.00134143 0)
(0 -0.00132777 0)
(0 -0.00130913 0)
(0 -0.00128614 0)
(0 -0.00126 0)
(0 -0.00123028 0)
(0 -0.00119664 0)
(0 -0.00115735 0)
(0 -0.0011136 0)
(0 -0.00108434 0)
(0 -0.00106716 0)
(0 -0.00107099 0)
(0 -0.00105406 0)
(0 -0.001057 0)
(0 -0.00104042 0)
(0 -0.00104252 0)
(0 -0.00102617 0)
(0 -0.00102757 0)
(0 -0.00101137 0)
(0 -0.00101196 0)
(0 -0.000995921 0)
(0 -0.000994644 0)
(0 -0.000995806 0)
(0 -0.00097976 0)
(0 -0.000978985 0)
(0 -0.000962648 0)
(0 -0.000961254 0)
(0 -0.000976912 0)
(0 -0.000958535 0)
(0 -0.000973536 0)
(0 -0.000943011 0)
(0 -0.00093975 0)
(0 -0.000924079 0)
(0 -0.000920576 0)
(0 -0.000904893 0)
(0 -0.000900674 0)
(0 -0.000545885 0)
(0 -0.000522313 0)
(0 -0.000537701 0)
(0 -0.000514803 0)
(0 -0.000528233 0)
(0 -0.000507177 0)
(0 -0.000520811 0)
(0 -0.000500172 0)
(0 -0.000514943 0)
(0 -0.000493625 0)
(0 -0.000508447 0)
(0 -0.000487232 0)
(0 -0.000502135 0)
(0 -0.000480924 0)
(0 -0.000496352 0)
(0 -0.000474868 0)
(0 -0.000490341 0)
(0 -0.00046946 0)
(0 -0.000484843 0)
(0 -0.000464642 0)
(0 -0.000479608 0)
(0 -0.000459253 0)
(0 -0.000474595 0)
(0 -0.000454272 0)
(0 -0.000469563 0)
(0 -0.00044716 0)
(0 -0.00046501 0)
(0 -0.000445934 0)
(0 -0.000461458 0)
(0 -0.000442354 0)
(0 -0.000458072 0)
(0 -0.000438799 0)
(0 -0.000454667 0)
(0 -0.000435462 0)
(0 -0.000451267 0)
(0 -0.000431994 0)
(0 -0.000447946 0)
(0 -0.000429111 0)
(0 -0.000445121 0)
(0 -0.000426588 0)
(0 -0.000442254 0)
(0 -0.000423779 0)
(0 -0.000439424 0)
(0 -0.000420938 0)
(0 -0.000462097 0)
(0 -0.000437273 0)
(0 -0.000419053 0)
(0 -0.00040181 0)
(0 -0.000402268 0)
(0 -0.000384073 0)
(0 -0.000385422 0)
(0 -0.000367543 0)
(0 -0.000366 0)
(0 -0.000351524 0)
(0 -0.000349698 0)
(0 -0.000335871 0)
(0 -0.00033433 0)
(0 -0.00032063 0)
(0 -0.000319767 0)
(0 -0.000305785 0)
(0 -0.000305577 0)
(0 -0.000291812 0)
(0 -0.000292124 0)
(0 -0.000278741 0)
(0 -0.000279628 0)
(0 -0.000266352 0)
(0 -0.000267415 0)
(0 -0.000254593 0)
(0 -0.00025583 0)
(0 -0.000243427 0)
(0 -0.000244817 0)
(0 -0.000232689 0)
(0 -0.000234246 0)
(0 -0.00022249 0)
(0 -0.000224135 0)
(0 -0.000212828 0)
(0 -0.000214483 0)
(0 -0.000203629 0)
(0 -0.000205416 0)
(0 -0.00019501 0)
(0 -0.000197042 0)
(0 -0.000187097 0)
(0 -0.000189386 0)
(0 -0.000179779 0)
(0 -0.000182278 0)
(0 -0.000172899 0)
(0 -0.00017549 0)
(0 -0.000166096 0)
(0 -0.000169101 0)
(0 -0.000159701 0)
(0 -0.000163559 0)
(0 -0.000153751 0)
(0 -0.000156482 0)
(0 -0.000147995 0)
(0 -0.000151068 0)
(0 -0.000142807 0)
(0 -0.000146581 0)
(0 -0.000138019 0)
(0 -0.000141123 0)
(0 -0.000133563 0)
(0 -0.000435772 0)
(0 -0.000319635 0)
(0 -0.000235615 0)
(0 -0.000450168 0)
(0 -0.000277489 0)
(0 -0.000177546 0)
(0 -0.000144426 0)
(0 -0.000220286 0)
(0 -0.000144378 0)
(0 -0.000177046 0)
(0 -0.000883093 0)
(0 -0.000880229 0)
(0 -0.00086366 0)
(0 -0.000859832 0)
(0 -0.000844138 0)
(0 -0.000848134 0)
(0 -0.000838977 0)
(0 -0.000854192 0)
(0 -0.000823681 0)
(0 -0.000817558 0)
(0 -0.000802208 0)
(0 -0.000795554 0)
(0 -0.000780093 0)
(0 -0.000773402 0)
(0 -0.000757988 0)
(0 -0.000751044 0)
(0 -0.000735576 0)
(0 -0.000728262 0)
(0 -0.00048114 0)
(0 -0.000712483 0)
(0 -0.000719252 0)
(0 -0.000704862 0)
(0 -0.000719918 0)
(0 -0.000696065 0)
(0 -0.000710295 0)
(0 -0.000681276 0)
(0 -0.000672141 0)
(0 -0.000657561 0)
(0 -0.000648204 0)
(0 -0.000633829 0)
(0 -0.000624308 0)
(0 -0.000610152 0)
(0 -0.00060042 0)
(0 -0.000586511 0)
(0 -0.000576442 0)
(0 -0.0005897 0)
(0 -0.000562839 0)
(0 -0.000552616 0)
(0 -0.000572754 0)
(0 -0.000539182 0)
(0 -0.000528924 0)
(0 -0.000428019 0)
(0 -0.00051569 0)
(0 -0.000505312 0)
(0 -0.000492225 0)
(0 -0.000481745 0)
(0 -0.00046878 0)
(0 -0.000458192 0)
(0 -0.000470343 0)
(0 -0.000446731 0)
(0 -0.000457836 0)
(0 -0.000434953 0)
(0 -0.000506796 0)
(0 -0.000423568 0)
(0 -0.000412065 0)
(0 -0.000400915 0)
(0 -0.000389548 0)
(0 -0.00037856 0)
(0 -0.000367391 0)
(0 -0.000356492 0)
(0 -0.000472119 0)
(0 -4.70817e-05 0)
(0 -5.26256e-05 0)
(0 -4.99545e-05 0)
(0 -5.58844e-05 0)
(0 -5.31921e-05 0)
(0 -6.03549e-05 0)
(0 -5.65902e-05 0)
(0 -6.32276e-05 0)
(0 -6.00276e-05 0)
(0 -6.68622e-05 0)
(0 -6.37672e-05 0)
(0 -7.10322e-05 0)
(0 -6.79031e-05 0)
(0 -7.56288e-05 0)
(0 -7.23774e-05 0)
(0 -6.47885e-05 0)
(0 -6.9225e-05 0)
(0 -6.18623e-05 0)
(0 -6.62781e-05 0)
(0 -5.91135e-05 0)
(0 -6.36681e-05 0)
(0 -5.68692e-05 0)
(0 -6.12809e-05 0)
(0 -5.40625e-05 0)
(0 -5.91661e-05 0)
(0 -5.28548e-05 0)
(0 -5.74209e-05 0)
(0 -5.12821e-05 0)
(0 -5.58882e-05 0)
(0 -4.99286e-05 0)
(0 -5.46914e-05 0)
(0 -4.90332e-05 0)
(0 -6.82413e-05 0)
(0 -5.37759e-05 0)
(0 -4.82851e-05 0)
(0 -5.30212e-05 0)
(0 -4.75467e-05 0)
(0 -5.89502e-05 0)
(0 -6.957e-05 0)
(0 -5.24465e-05 0)
(0 -4.72294e-05 0)
(0 -5.21152e-05 0)
(0 -4.70157e-05 0)
(0 -5.20516e-05 0)
(0 -4.71179e-05 0)
(0 -5.22729e-05 0)
(0 -4.75687e-05 0)
(0 -5.27362e-05 0)
(0 -4.81521e-05 0)
(0 -5.78041e-05 0)
(0 -4.4264e-05 0)
(0 -5.34191e-05 0)
(0 -4.89282e-05 0)
(0 -5.43402e-05 0)
(0 -4.9908e-05 0)
(0 -4.47271e-05 0)
(0 -4.58645e-05 0)
(0 -4.09524e-05 0)
(0 -4.22057e-05 0)
(0 -3.75417e-05 0)
(0 -3.8804e-05 0)
(0 -3.38181e-05 0)
(0 -3.57596e-05 0)
(0 -3.15593e-05 0)
(0 -3.31117e-05 0)
(0 -2.92325e-05 0)
(0 -3.06464e-05 0)
(0 -2.70114e-05 0)
(0 -2.84633e-05 0)
(0 -2.51215e-05 0)
(0 -2.6575e-05 0)
(0 -2.34359e-05 0)
(0 -3.44277e-05 0)
(0 -5.10763e-05 0)
(0 -2.77632e-05 0)
(0 -4.66357e-05 0)
(0 -4.2561e-05 0)
(0 -8.04054e-05 0)
(0 -0.000345613 0)
(0 -0.000356284 0)
(0 -0.00047896 0)
(0 -0.00036742 0)
(0 -0.000334679 0)
(0 -0.000324009 0)
(0 -0.00031311 0)
(0 -0.000302648 0)
(0 -0.000291722 0)
(0 -0.00028154 0)
(0 -0.000467524 0)
(0 -0.000490895 0)
(0 -0.000472812 0)
(0 -0.000495824 0)
(0 -0.000477271 0)
(0 -0.000270702 0)
(0 -0.000279551 0)
(0 -0.000454248 0)
(0 -0.000458285 0)
(0 -0.000480986 0)
(0 -0.000461619 0)
(0 -0.000148223 0)
(0 -0.000150698 0)
(0 -0.000157726 0)
(0 -0.000160374 0)
(0 -0.000152398 0)
(0 -0.000162125 0)
(0 -0.000169992 0)
(0 -0.000171482 0)
(0 -0.000179317 0)
(0 -0.000180447 0)
(0 -0.000188378 0)
(0 -0.000189355 0)
(0 -0.000197431 0)
(0 -0.000198823 0)
(0 -0.000190112 0)
(0 -0.000200045 0)
(0 -0.000209235 0)
(0 -0.000210783 0)
(0 -0.000220302 0)
(0 -0.000221904 0)
(0 -0.000231323 0)
(0 -0.000232996 0)
(0 -0.000242436 0)
(0 -0.000244069 0)
(0 -0.000253927 0)
(0 -0.000255345 0)
(0 -0.000244376 0)
(0 -0.000255701 0)
(0 -0.000266784 0)
(0 -0.000267698 0)
(0 -0.000279018 0)
(0 -0.000280819 0)
(0 -0.000292435 0)
(0 -0.000295249 0)
(0 -0.000307138 0)
(0 -0.000310999 0)
(0 -0.000298116 0)
(0 -0.000314735 0)
(0 -0.000327664 0)
(0 -0.000332088 0)
(0 -0.000345019 0)
(0 -0.000350029 0)
(0 -0.000363073 0)
(0 -0.00036845 0)
(0 -0.000381432 0)
(0 -0.000387008 0)
(0 -0.000399898 0)
(0 -0.000405681 0)
(0 -0.000418779 0)
(0 -0.000424809 0)
(0 -0.000438284 0)
(0 -0.000444481 0)
(0 -0.000458329 0)
(0 -0.000464526 0)
(0 -0.000478634 0)
(0 -0.000484855 0)
(0 -0.000499094 0)
(0 -0.000505467 0)
(0 -0.000520058 0)
(0 -0.00052668 0)
(0 -0.000541949 0)
(0 -0.000548766 0)
(0 -0.000564625 0)
(0 -0.0005716 0)
(0 -0.000587663 0)
(0 -0.000594667 0)
(0 -0.00061076 0)
(0 -0.000617792 0)
(0 -0.00063382 0)
(0 -0.000640876 0)
(0 -0.000656635 0)
(0 -0.000663893 0)
(0 -0.000679494 0)
(0 -0.000687027 0)
(0 -0.000702515 0)
(0 -0.000710119 0)
(0 -0.000725297 0)
(0 -0.000732736 0)
(0 -0.000748192 0)
(0 -0.000755237 0)
(0 -0.000771125 0)
(0 -0.000777751 0)
(0 -0.000794226 0)
(0 -0.000800745 0)
(0 -0.000817996 0)
(0 -0.000824554 0)
(0 -0.000842741 0)
(0 -0.00084923 0)
(0 -0.000829911 0)
(0 -0.000854127 0)
(0 -0.000874073 0)
(0 -0.000878255 0)
(0 -0.00089821 0)
(0 -0.00090213 0)
(0 -0.000881068 0)
(0 -0.000904711 0)
(0 -0.000925849 0)
(0 -0.000927844 0)
(0 -0.000810953 0)
(0 -0.000905519 0)
(0 -0.000927655 0)
(0 -0.000950041 0)
(0 -0.000948941 0)
(0 -0.000971694 0)
(0 -0.000969824 0)
(0 -0.000946017 0)
(0 -0.00096625 0)
(0 -0.000990266 0)
(0 -0.000985912 0)
(0 -0.0010098 0)
(0 -0.00100503 0)
(0 -0.000980828 0)
(0 -0.000999002 0)
(0 -0.000719023 0)
(0 -0.00102388 0)
(0 -0.00101707 0)
(0 -0.000991752 0)
(0 -0.00100933 0)
(0 -0.00103509 0)
(0 -0.00102683 0)
(0 -0.00105239 0)
(0 -0.00104374 0)
(0 -0.00101743 0)
(0 -0.00103406 0)
(0 -0.00105993 0)
(0 -0.00105019 0)
(0 -0.00102363 0)
(0 -0.00103929 0)
(0 -0.00106546 0)
(0 -0.00105397 0)
(0 -0.00107974 0)
(0 -0.00106784 0)
(0 -0.00104135 0)
(0 -0.00105458 0)
(0 -0.00108073 0)
(0 -0.00106658 0)
(0 -0.00109165 0)
(0 -0.00107756 0)
(0 -0.00105096 0)
(0 -0.00106214 0)
(0 -0.00108831 0)
(0 -0.00107288 0)
(0 -0.000602008 0)
(0 -0.00104514 0)
(0 -0.00105576 0)
(0 -0.00108303 0)
(0 -0.00106601 0)
(0 -0.00109252 0)
(0 -0.0010757 0)
(0 -0.00104833 0)
(0 -0.00105823 0)
(0 -0.00108352 0)
(0 -0.00106664 0)
(0 -0.00103965 0)
(0 -0.00104852 0)
(0 -0.00107471 0)
(0 -0.00105636 0)
(0 -0.00108208 0)
(0 -0.00106324 0)
(0 -0.00103579 0)
(0 -0.00104233 0)
(0 -0.00106913 0)
(0 -0.00104801 0)
(0 -0.00107404 0)
(0 -0.00105328 0)
(0 -0.00102662 0)
(0 -0.00103206 0)
(0 -0.00105963 0)
(0 -0.00103772 0)
(0 -0.00101044 0)
(0 -0.00101488 0)
(0 -0.00104145 0)
(0 -0.00101786 0)
(0 -0.00104344 0)
(0 -0.00102046 0)
(0 -0.000990916 0)
(0 -0.00099786 0)
(0 -0.00102312 0)
(0 -0.000999858 0)
(0 -0.000974916 0)
(0 -0.000975764 0)
(0 -0.00100122 0)
(0 -0.00097711 0)
(0 -0.000491006 0)
(0 -0.000951297 0)
(0 -0.000952837 0)
(0 -0.00100175 0)
(0 -0.000926392 0)
(0 -0.000927994 0)
(0 -0.00039275 0)
(0 -0.00090078 0)
(0 -0.000902652 0)
(0 -0.000874481 0)
(0 -0.000876647 0)
(0 -0.000694374 0)
(0 -0.000847407 0)
(0 -0.000849662 0)
(0 -0.000844527 0)
(0 -0.000877952 0)
(0 -0.000850949 0)
(0 -0.000878245 0)
(0 -0.000851439 0)
(0 -0.000823522 0)
(0 -0.000823994 0)
(0 -0.000301794 0)
(0 -0.0008515 0)
(0 -0.000824217 0)
(0 -0.000796095 0)
(0 -0.000796647 0)
(0 -0.000768041 0)
(0 -0.000769109 0)
(0 -0.000850927 0)
(0 -0.000190716 0)
(0 -0.000740077 0)
(0 -0.00074161 0)
(0 -0.000712061 0)
(0 -0.000713821 0)
(0 -0.000742771 0)
(0 -0.000715261 0)
(0 -0.000685801 0)
(0 -0.000687516 0)
(0 -0.000743437 0)
(0 -0.000657604 0)
(0 -0.000659686 0)
(0 -0.000602602 0)
(0 -0.000629453 0)
(0 -0.000631774 0)
(0 -0.000412277 0)
(0 -0.000601252 0)
(0 -0.000603647 0)
(0 -0.000598316 0)
(0 -0.000633248 0)
(0 -0.000605301 0)
(0 -0.000302887 0)
(0 -0.00105855 0)
(0 -0.000575508 0)
(0 -0.000577387 0)
(0 -0.000513244 0)
(0 -0.000260895 0)
(0 -0.000270789 0)
(0 -0.000250375 0)
(0 -0.00043892 0)
(0 -0.000441992 0)
(0 -0.000337578 0)
(0 -0.000250989 0)
(0 -0.000633965 0)
(0 -0.000483998 0)
(0 -0.000547532 0)
(0 -0.000549594 0)
(0 -0.000710285 0)
(0 -0.000240968 0)
(0 -0.000230723 0)
(0 -0.00041929 0)
(0 -0.000422136 0)
(0 -0.000532285 0)
(0 -0.000195606 0)
(0 -0.000519711 0)
(0 -0.000521825 0)
(0 -0.000221637 0)
(0 -0.000211733 0)
(0 -0.000399369 0)
(0 -0.000401985 0)
(0 -0.000491839 0)
(0 -0.000493992 0)
(0 -0.000523127 0)
(0 -0.000495442 0)
(0 -0.000523575 0)
(0 -0.000496084 0)
(0 -0.000468069 0)
(0 -0.000468848 0)
(0 -0.000440922 0)
(0 -0.000441797 0)
(0 -0.000468681 0)
(0 -0.000441879 0)
(0 -0.000202811 0)
(0 -0.000193321 0)
(0 -0.000201044 0)
(0 -0.000379155 0)
(0 -0.00038159 0)
(0 -0.000404014 0)
(0 -0.000383441 0)
(0 -0.000376205 0)
(0 -0.000405447 0)
(0 -0.000384693 0)
(0 -0.000406269 0)
(0 -0.000385378 0)
(0 -6.88927e-05 0)
(0 -7.45841e-05 0)
(0 -7.2203e-05 0)
(0 -7.81442e-05 0)
(0 -7.58904e-05 0)
(0 -8.20354e-05 0)
(0 -7.97913e-05 0)
(0 -8.62263e-05 0)
(0 -8.40735e-05 0)
(0 -9.07702e-05 0)
(0 -8.89197e-05 0)
(0 -9.57152e-05 0)
(0 -9.36735e-05 0)
(0 -0.000100781 0)
(0 -9.85813e-05 0)
(0 -0.000363761 0)
(0 -0.000364371 0)
(0 -0.000415145 0)
(0 -0.00041554 0)
(0 -0.000106257 0)
(0 -0.000104197 0)
(0 -0.00048901 0)
(0 -0.000112107 0)
(0 -0.000110346 0)
(0 -0.000153347 0)
(0 -0.00024383 0)
(0 -0.000182864 0)
(0 -0.000187988 0)
(0 -0.000175594 0)
(0 -0.000118315 0)
(0 -0.000116921 0)
(0 -0.00012514 0)
(0 -0.00012396 0)
(0 -0.000132806 0)
(0 -0.000131575 0)
(0 -0.000406474 0)
(0 -0.000389054 0)
(0 -0.000389776 0)
(0 -0.000342689 0)
(0 -0.000343243 0)
(0 -0.000467587 0)
(0 -0.000355899 0)
(0 -0.000352582 0)
(0 -0.000191514 0)
(0 -0.000205253 0)
(0 -0.000198785 0)
(0 -0.000212711 0)
(0 -0.000206206 0)
(0 -0.000220704 0)
(0 -0.000213891 0)
(0 -0.000229232 0)
(0 -0.000221969 0)
(0 -0.000237682 0)
(0 -0.000230427 0)
(0 -0.000215113 0)
(0 -0.000223609 0)
(0 -0.000208813 0)
(0 -0.000216658 0)
(0 -0.000232505 0)
(0 -0.000225758 0)
(0 -0.000209901 0)
(0 -0.000219362 0)
(0 -0.000204148 0)
(0 -0.000213311 0)
(0 -0.000198601 0)
(0 -0.000207613 0)
(0 -0.000192861 0)
(0 -0.000202293 0)
(0 -0.000187519 0)
(0 -0.000197349 0)
(0 -0.000183011 0)
(0 -0.000192869 0)
(0 -0.000178999 0)
(0 -0.000188967 0)
(0 -0.00017586 0)
(0 -0.000185679 0)
(0 -0.000217387 0)
(0 -0.000199375 0)
(0 -0.000196114 0)
(0 -0.000210307 0)
(0 -0.000206865 0)
(0 -0.00021815 0)
(0 -0.00017354 0)
(0 -0.000241894 0)
(0 -0.000221427 0)
(0 -0.000217564 0)
(0 -8.05056e-05 0)
(0 -0.000165543 0)
(0 -0.000158642 0)
(0 -0.000140976 0)
(0 -0.000363614 0)
(0 -0.000364591 0)
(0 -0.000321525 0)
(0 -0.000322033 0)
(0 -0.000232675 0)
(0 -0.000228497 0)
(0 -1.46272e-06 0)
(0 -2.16582e-06 0)
(0 -1.47778e-06 0)
(0 -2.19352e-06 0)
(0 -1.52631e-06 0)
(0 -2.22284e-06 0)
(0 -1.59419e-06 0)
(0 -2.31333e-06 0)
(0 -1.69904e-06 0)
(0 -2.45245e-06 0)
(0 -1.72389e-06 0)
(0 -2.6158e-06 0)
(0 -1.94651e-06 0)
(0 -2.83096e-06 0)
(0 -2.11271e-06 0)
(0 -3.04718e-06 0)
(0 -2.32542e-06 0)
(0 -3.27741e-06 0)
(0 -2.57929e-06 0)
(0 -3.54569e-06 0)
(0 -2.83285e-06 0)
(0 -3.83304e-06 0)
(0 -2.94669e-06 0)
(0 -4.19518e-06 0)
(0 -3.44739e-06 0)
(0 -4.67938e-06 0)
(0 -3.96216e-06 0)
(0 -5.49919e-06 0)
(0 -4.1818e-06 0)
(0 -5.19895e-06 0)
(0 -4.48777e-06 0)
(0 -3.17093e-06 0)
(0 -5.77767e-06 0)
(0 -5.027e-06 0)
(0 -6.45128e-06 0)
(0 -5.63823e-06 0)
(0 -4.20426e-06 0)
(0 -4.93488e-06 0)
(0 -6.39017e-06 0)
(0 -5.67307e-06 0)
(0 -4.36263e-06 0)
(0 -5.09187e-06 0)
(0 -3.86438e-06 0)
(0 -4.64204e-06 0)
(0 -3.47314e-06 0)
(0 -4.28269e-06 0)
(0 -3.19191e-06 0)
(0 -5.60094e-06 0)
(0 -4.01219e-06 0)
(0 -2.96046e-06 0)
(0 -3.80377e-06 0)
(0 -2.81044e-06 0)
(0 -4.17078e-05 0)
(0 -9.78348e-05 0)
(0 -0.00123681 0)
(0 -0.000332203 0)
(0 -0.000328568 0)
(0 -0.000139746 0)
(0 -0.000149569 0)
(0 -2.04135e-06 0)
(0 -0.000149052 0)
(0 -0.000142428 0)
(0 -5.16741e-05 0)
(0 -0.000338669 0)
(0 -0.000339873 0)
(0 -0.000336668 0)
(0 -0.00036469 0)
(0 -0.000340271 0)
(0 -0.000130356 0)
(0 -0.000244113 0)
(0 -0.000248229 0)
(0 -0.000239943 0)
(0 -0.000300289 0)
(0 -0.0003008 0)
(0 -0.000322017 0)
(0 -0.000300825 0)
(0 -0.000321458 0)
(0 -0.000300322 0)
(0 -0.000320379 0)
(0 -0.000299317 0)
(0 -0.000315628 0)
(0 -0.000316334 0)
(0 -0.000165956 0)
(0 -1.31075e-06 0)
(0 -0.000154622 0)
(0 -0.000279282 0)
(0 -0.000278365 0)
(0 -0.000318828 0)
(0 -0.000491985 0)
(0 -0.000138725 0)
(0 -0.000129293 0)
(0 -2.4921e-06 0)
(0 -0.00013335 0)
(0 -6.98332e-05 0)
(0 -0.000185021 0)
(0 -7.18248e-06 0)
(0 -0.000906239 0)
(0 -0.000150815 0)
(0 -0.000211742 0)
(0 -0.000786427 0)
(0 -0.000138874 0)
(0 -0.00103693 0)
(0 -0.000915887 0)
(0 -0.000340037 0)
(0 -0.000316334 0)
(0 -0.000292918 0)
(0 -0.0002932 0)
(0 -0.00025582 0)
(0 -0.000308085 0)
(0 -0.000304194 0)
(0 -0.000378302 0)
(0 -0.000126718 0)
(0 -0.000456102 0)
(0 -0.000451926 0)
(0 -0.000471522 0)
(0 -0.000467459 0)
(0 -0.000487289 0)
(0 -0.000481996 0)
(0 -0.000502909 0)
(0 -0.000498857 0)
(0 -0.000518426 0)
(0 -0.000513226 0)
(0 -0.000494138 0)
(0 -0.000533247 0)
(0 -0.000539009 0)
(0 -0.000553841 0)
(0 -0.000560142 0)
(0 -0.000574896 0)
(0 -0.000581666 0)
(0 -0.000596165 0)
(0 -0.000603845 0)
(0 -0.000617633 0)
(0 -0.000626075 0)
(0 -0.000639048 0)
(0 -0.000647504 0)
(0 -0.000660814 0)
(0 -0.000669854 0)
(0 -0.000682955 0)
(0 -0.000692338 0)
(0 -0.000705469 0)
(0 -0.000714977 0)
(0 -0.000728263 0)
(0 -0.000737811 0)
(0 -0.000724404 0)
(0 -0.000747236 0)
(0 -0.000760988 0)
(0 -0.000770818 0)
(0 -0.000784776 0)
(0 -0.000794991 0)
(0 -0.000808937 0)
(0 -0.000819379 0)
(0 -0.000833292 0)
(0 -0.000843983 0)
(0 -0.000857953 0)
(0 -0.000756914 0)
(0 -0.000868702 0)
(0 -0.000882801 0)
(0 -0.000893526 0)
(0 -0.000907342 0)
(0 -0.000918182 0)
(0 -0.000931363 0)
(0 -0.000942058 0)
(0 -0.000954793 0)
(0 -0.000854327 0)
(0 -0.000965402 0)
(0 -0.000977762 0)
(0 -0.000988529 0)
(0 -0.0010005 0)
(0 -0.000952623 0)
(0 -0.00101137 0)
(0 -0.00102297 0)
(0 -0.00103376 0)
(0 -0.00104508 0)
(0 -0.00105586 0)
(0 -0.00106709 0)
(0 -0.00105603 0)
(0 -0.00107781 0)
(0 -0.00106641 0)
(0 -0.00108786 0)
(0 -0.00109927 0)
(0 -0.00110887 0)
(0 -0.00109739 0)
(0 -0.00111765 0)
(0 -0.00112903 0)
(0 -0.00113702 0)
(0 -0.00114818 0)
(0 -0.00115565 0)
(0 -0.000967063 0)
(0 -0.00116638 0)
(0 -0.00117334 0)
(0 -0.00116246 0)
(0 -0.00117955 0)
(0 -0.00119015 0)
(0 -0.00119553 0)
(0 -0.00118475 0)
(0 -0.00120005 0)
(0 -0.00121057 0)
(0 -0.00121473 0)
(0 -0.00122475 0)
(0 -0.00122881 0)
(0 -0.00121826 0)
(0 -0.00123207 0)
(0 -0.00124241 0)
(0 -0.00124499 0)
(0 -0.00123389 0)
(0 -0.00124609 0)
(0 -0.00125725 0)
(0 -0.00125777 0)
(0 -0.00126881 0)
(0 -0.00126903 0)
(0 -0.00125716 0)
(0 -0.00126802 0)
(0 -0.00128004 0)
(0 -0.00127847 0)
(0 -0.0012905 0)
(0 -0.00128852 0)
(0 -0.00127597 0)
(0 -0.00128536 0)
(0 -0.00129794 0)
(0 -0.00129396 0)
(0 -0.00130619 0)
(0 -0.00130174 0)
(0 -0.0012891 0)
(0 -0.00129624 0)
(0 -0.00130875 0)
(0 -0.00130251 0)
(0 -0.000547748 0)
(0 -0.00131455 0)
(0 -0.00130787 0)
(0 -0.00129517 0)
(0 -0.00130012 0)
(0 -0.00131233 0)
(0 -0.00130409 0)
(0 -0.00129124 0)
(0 -0.00129473 0)
(0 -0.00130722 0)
(0 -0.00129747 0)
(0 -0.00130928 0)
(0 -0.00129935 0)
(0 -0.000634287 0)
(0 -0.00128715 0)
(0 -0.00128874 0)
(0 -0.0013006 0)
(0 -0.00128949 0)
(0 -0.00130088 0)
(0 -0.00128956 0)
(0 -0.00127786 0)
(0 -0.00127794 0)
(0 -0.00128889 0)
(0 -0.0012766 0)
(0 -0.00104411 0)
(0 -0.001287 0)
(0 -0.00127395 0)
(0 -0.00126185 0)
(0 -0.00125989 0)
(0 -0.00127092 0)
(0 -0.00125658 0)
(0 -0.000872376 0)
(0 -0.00124498 0)
(0 -0.00124127 0)
(0 -0.00125254 0)
(0 -0.00123716 0)
(0 -0.00124786 0)
(0 -0.00123255 0)
(0 -0.00122127 0)
(0 -0.00121658 0)
(0 -0.00122752 0)
(0 -0.00121142 0)
(0 -0.000630221 0)
(0 -0.00122174 0)
(0 -0.00120558 0)
(0 -0.00119464 0)
(0 -0.00118878 0)
(0 -0.00119908 0)
(0 -0.00118219 0)
(0 -0.00117148 0)
(0 -0.00116481 0)
(0 -0.00115351 0)
(0 -0.0011468 0)
(0 -0.00115747 0)
(0 -0.00113963 0)
(0 -0.00112824 0)
(0 -0.00112133 0)
(0 -0.00113212 0)
(0 -0.00111382 0)
(0 -0.00110234 0)
(0 -0.00109466 0)
(0 -0.00108248 0)
(0 -0.00107468 0)
(0 -0.0010863 0)
(0 -0.00106609 0)
(0 -0.00105383 0)
(0 -0.00104493 0)
(0 -0.00103238 0)
(0 -0.00102345 0)
(0 -0.00101047 0)
(0 -0.00100229 0)
(0 -0.000988729 0)
(0 -0.000980416 0)
(0 -0.000966828 0)
(0 -0.000957697 0)
(0 -0.00115873 0)
(0 -0.000798685 0)
(0 -0.000718457 0)
(0 -0.0011059 0)
(0 -8.38096e-05 0)
(0 -8.88664e-05 0)
(0 -0.0012462 0)
(0 -0.000268884 0)
(0 -0.000469984 0)
(0 -0.000245368 0)
(0 -0.00019867 0)
(0 -0.000132951 0)
(0 -0.00107705 0)
(0 -0.00015843 0)
(0 -0.000114357 0)
(0 -0.000944 0)
(0 -0.000934876 0)
(0 -0.000270045 0)
(0 -0.00027064 0)
(0 -0.00123372 0)
(0 -9.90651e-07 0)
(0 -0.000279034 0)
(0 -6.23309e-05 0)
(0 -0.00101681 0)
(0 -0.000137935 0)
(0 -0.000128461 0)
(0 -7.35199e-06 0)
(0 -0.000251742 0)
(0 -0.00025836 0)
(0 -0.000257549 0)
(0 -0.000921018 0)
(0 -0.000911834 0)
(0 -0.000897588 0)
(0 -0.00088838 0)
(0 -0.000118181 0)
(0 -0.00087318 0)
(0 -0.000864628 0)
(0 -8.22389e-05 0)
(0 -0.000111713 0)
(0 -0.000267675 0)
(0 -9.25243e-05 0)
(0 -9.7814e-05 0)
(0 -0.000816801 0)
(0 -0.000813029 0)
(0 -0.000784808 0)
(0 -0.000779931 0)
(0 -0.000751437 0)
(0 -0.000745933 0)
(0 -0.000716543 0)
(0 -0.00071034 0)
(0 -0.000680128 0)
(0 -0.000672967 0)
(0 -0.000642151 0)
(0 -0.000634135 0)
(0 -0.000665314 0)
(0 -0.000625684 0)
(0 -0.000657094 0)
(0 -0.000616461 0)
(0 -0.000647685 0)
(0 -0.000606316 0)
(0 -0.000637313 0)
(0 -0.000595311 0)
(0 -0.000626309 0)
(0 -0.000602937 0)
(0 -0.00058357 0)
(0 -0.000614483 0)
(0 -0.000571279 0)
(0 -0.000602324 0)
(0 -0.000558487 0)
(0 -0.000589904 0)
(0 -0.000564411 0)
(0 -0.000544948 0)
(0 -0.000576198 0)
(0 -0.000620257 0)
(0 -0.000606558 0)
(0 -0.000561326 0)
(0 -0.000591553 0)
(0 -0.000545837 0)
(0 -0.000576051 0)
(0 -0.000621087 0)
(0 -0.000606181 0)
(0 -0.000560689 0)
(0 -0.000591346 0)
(0 -0.00054548 0)
(0 -0.000576245 0)
(0 -0.000621234 0)
(0 -0.000606361 0)
(0 -0.000560661 0)
(0 -0.000591004 0)
(0 -0.00063536 0)
(0 -0.000620641 0)
(0 -0.000575338 0)
(0 -0.000604914 0)
(0 -0.000559098 0)
(0 -0.000588595 0)
(0 -0.000632421 0)
(0 -0.000617514 0)
(0 -0.000572743 0)
(0 -0.000602431 0)
(0 -0.000646034 0)
(0 -0.000630359 0)
(0 -0.0005866 0)
(0 -0.000613962 0)
(0 -0.000569893 0)
(0 -0.000596893 0)
(0 -0.000640342 0)
(0 -0.000622892 0)
(0 -0.000578889 0)
(0 -0.000604967 0)
(0 -0.000560692 0)
(0 -0.000586425 0)
(0 -0.000630139 0)
(0 -0.000610874 0)
(0 -0.000567191 0)
(0 -0.000590922 0)
(0 -0.000546898 0)
(0 -0.000569676 0)
(0 -0.000612239 0)
(0 -0.000591196 0)
(0 -0.000547377 0)
(0 -0.000569093 0)
(0 -0.000611031 0)
(0 -0.000589385 0)
(0 -0.000546341 0)
(0 -0.000566549 0)
(0 -0.000523199 0)
(0 -0.000542737 0)
(0 -0.000584958 0)
(0 -0.000561023 0)
(0 -0.000518946 0)
(0 -0.000537176 0)
(0 -0.000495465 0)
(0 -0.000513693 0)
(0 -0.000554181 0)
(0 -0.000530858 0)
(0 -0.000490783 0)
(0 -0.000508009 0)
(0 -0.000546587 0)
(0 -0.000523836 0)
(0 -0.000485823 0)
(0 -0.000501675 0)
(0 -0.000464491 0)
(0 -0.000480269 0)
(0 -0.000443986 0)
(0 -0.000459741 0)
(0 -0.000560588 0)
(0 -0.000424094 0)
(0 -0.000439518 0)
(0 -0.000474459 0)
(0 -0.000453587 0)
(0 -0.000419113 0)
(0 -0.000431969 0)
(0 -0.000397798 0)
(0 -0.000409243 0)
(0 -0.00037517 0)
(0 -0.000385395 0)
(0 -0.0004873 0)
(0 -0.000351719 0)
(0 -0.00036122 0)
(0 -0.000394549 0)
(0 -0.000370418 0)
(0 -0.000337369 0)
(0 -0.00034684 0)
(0 -0.0003145 0)
(0 -0.000324353 0)
(0 -0.000292772 0)
(0 -0.000302396 0)
(0 -0.000402809 0)
(0 -0.000271535 0)
(0 -0.000280578 0)
(0 -0.000310879 0)
(0 -0.000289429 0)
(0 -0.000259349 0)
(0 -0.000268876 0)
(0 -0.000239436 0)
(0 -0.000249227 0)
(0 -0.000221209 0)
(0 -0.000230276 0)
(0 -0.00040737 0)
(0 -0.000513234 0)
(0 -0.000203718 0)
(0 -0.000211706 0)
(0 -0.000341465 0)
(0 -0.000238262 0)
(0 -0.000219158 0)
(0 -0.000193299 0)
(0 -0.000199958 0)
(0 -0.000175578 0)
(0 -0.000180508 0)
(0 -0.000318853 0)
(0 -0.000655085 0)
(0 -0.000157107 0)
(0 -0.000160658 0)
(0 -0.000138536 0)
(0 -0.000141843 0)
(0 -0.000121689 0)
(0 -0.000125169 0)
(0 -0.000611286 0)
(0 -0.000571976 0)
(0 -0.000580353 0)
(0 -0.000540936 0)
(0 -0.000549514 0)
(0 -0.000510109 0)
(0 -0.00051888 0)
(0 -0.000479325 0)
(0 -0.000470574 0)
(0 -0.000488084 0)
(0 -0.000448277 0)
(0 -0.00045728 0)
(0 -0.000145629 0)
(0 -0.00012929 0)
(0 -0.000110005 0)
(0 -0.000114661 0)
(0 -0.000283527 0)
(0 -0.000279367 0)
(0 -8.08035e-07 0)
(0 -9.57185e-05 0)
(0 -0.000101411 0)
(0 -0.000338993 0)
(0 -0.000417273 0)
(0 -0.000426572 0)
(0 -0.000261918 0)
(0 -0.000236221 0)
(0 -0.000248088 0)
(0 -0.000247738 0)
(0 -0.000248687 0)
(0 -0.000246193 0)
(0 -0.00124249 0)
(0 -8.24763e-05 0)
(0 -8.90634e-05 0)
(0 -0.00010836 0)
(0 -9.67749e-05 0)
(0 -7.72876e-05 0)
(0 -8.57121e-05 0)
(0 -0.000270648 0)
(0 -0.000249041 0)
(0 -0.000299859 0)
(0 -0.000274793 0)
(0 -0.000295083 0)
(0 -0.000269762 0)
(0 -0.000289722 0)
(0 -0.000264206 0)
(0 -0.000848741 0)
(0 -0.00084038 0)
(0 -0.000103766 0)
(0 -6.6233e-05 0)
(0 -7.53918e-05 0)
(0 -0.000245195 0)
(0 -0.000237608 0)
(0 -0.000236921 0)
(0 -0.000256186 0)
(0 -0.000235644 0)
(0 -0.00025424 0)
(0 -0.000233797 0)
(0 -0.000227406 0)
(0 -0.000228049 0)
(0 -0.000102174 0)
(0 -0.000137409 0)
(0 -0.000127767 0)
(0 -0.000147243 0)
(0 -0.00122969 0)
(0 -0.000970772 0)
(0 -9.77104e-05 0)
(0 -0.000104901 0)
(0 -0.000215287 0)
(0 -0.000213608 0)
(0 -0.000823956 0)
(0 -0.000815529 0)
(0 -0.000251691 0)
(0 -0.00090258 0)
(0 -5.65584e-05 0)
(0 -6.64427e-05 0)
(0 -8.49507e-05 0)
(0 -7.65225e-05 0)
(0 -5.93156e-05 0)
(0 -6.96296e-05 0)
(0 -5.36823e-05 0)
(0 -6.32452e-05 0)
(0 -0.000194726 0)
(0 -0.000427359 0)
(0 -0.000427122 0)
(0 -0.000448118 0)
(0 -0.000447508 0)
(0 -0.000468736 0)
(0 -0.000467667 0)
(0 -0.000489084 0)
(0 -0.000487511 0)
(0 -0.000509094 0)
(0 -0.000119198 0)
(0 -0.000118331 0)
(0 -0.00038609 0)
(0 -0.000395833 0)
(0 -0.000376936 0)
(0 -0.00106622 0)
(0 -0.00105426 0)
(0 -0.00107624 0)
(0 -0.00106413 0)
(0 -0.00108581 0)
(0 -0.000149716 0)
(0 -0.000206796 0)
(0 -0.000207738 0)
(0 -0.000831569 0)
(0 -0.000806502 0)
(0 -0.000790052 0)
(0 -0.000780949 0)
(0 -0.000764165 0)
(0 -0.000755209 0)
(0 -0.000737781 0)
(0 -0.000729286 0)
(0 -0.000711634 0)
(0 -0.000703373 0)
(0 -0.000191733 0)
(0 -0.000101779 0)
(0 -0.000107315 0)
(0 -0.0001156 0)
(0 -0.000270323 0)
(0 -9.00783e-05 0)
(0 -9.497e-05 0)
(0 -4.85115e-05 0)
(0 -5.61629e-05 0)
(0 -0.000258487 0)
(0 -0.000103202 0)
(0 -0.00123798 0)
(0 -7.00824e-05 0)
(0 -6.17722e-05 0)
(0 -4.84217e-05 0)
(0 -5.31981e-05 0)
(0 -4.01399e-05 0)
(0 -0.000548099 0)
(0 -0.000409721 0)
(0 -0.000796591 0)
(0 -0.000686014 0)
(0 -0.000677334 0)
(0 -0.00011311 0)
(0 -0.000108591 0)
(0 -9.27225e-05 0)
(0 -0.00035735 0)
(0 -0.000686031 0)
(0 -0.000465944 0)
(0 -0.000485305 0)
(0 -0.000463619 0)
(0 -0.000642556 0)
(0 -0.000461101 0)
(0 -0.000457612 0)
(0 -0.000429699 0)
(0 -0.000425455 0)