/*--------------------------------*- C++ -*----------------------------------*\
| =========                 |                                                 |
| \\      /  F ield         | OpenFOAM: The Open Source CFD Toolbox           |
|  \\    /   O peration     | Version:  v2012                                 |
|   \\  /    A nd           | Website:  www.openfoam.com                      |
|    \\/     M anipulation  |                                                 |
\*---------------------------------------------------------------------------*/
FoamFile
{
    version     2.0;
    format      ascii;
    class       volVectorField;
    location    "200";
    object      ddt0(U);
}
// * * * * * * * * * * * * * * * * * * * * * * * * * * * * * * * * * * * * * //

dimensions      [0 1 -2 0 0 0 0];


internalField   nonuniform List<vector> 
18758
(
(0.0079047 -0.00279643 -3.481e-17)
(0.0250921 0.0213621 -7.40781e-17)
(0.000267001 2.77879e-05 1.28235e-18)
(-0.0149885 -0.0809511 3.39691e-17)
(0.0350359 -0.0182423 1.2573e-17)
(0.0256552 0.022549 5.63875e-17)
(-0.00987174 -0.000926592 -7.53299e-18)
(0.000424306 9.05684e-05 6.48291e-20)
(-0.0180549 -0.0132526 2.5312e-17)
(0.00264965 -0.000406495 1.02216e-18)
(0.00163429 0.00106577 -1.037e-17)
(-0.00317845 -0.00497396 2.57422e-17)
(0.00032503 -1.57185e-05 -2.27989e-19)
(0.0407493 0.0125798 -2.20587e-17)
(-0.000669337 0.00203052 -1.51866e-18)
(0.00206454 -0.00740863 -5.38933e-17)
(0.00491392 0.000847458 -8.70601e-18)
(0.000360152 4.63708e-05 2.89552e-19)
(0.00024602 0.000830275 4.82394e-18)
(0.00315946 -0.000383965 -2.98484e-18)
(0.000494 -0.0066914 -2.52645e-17)
(1.18915e-05 6.07043e-06 8.61869e-19)
(-0.0107547 -0.00485443 -3.34367e-17)
(-0.013447 -0.0421295 6.06469e-17)
(0.0116036 0.0172736 -5.32587e-17)
(0.000440588 7.51866e-05 2.30745e-20)
(0.00267595 -0.00928524 4.26635e-18)
(0.0438048 -0.00803218 -2.74494e-17)
(0.0696915 0.0193087 2.9885e-17)
(0.0118316 -0.0147816 2.83894e-17)
(0.0151755 0.00265064 -1.41237e-18)
(-0.0526989 -0.0102609 1.83471e-17)
(0.000101884 -1.05905e-05 -2.39768e-18)
(0.000874482 0.00129756 -1.53125e-18)
(0.0219334 -0.0128698 -1.27251e-17)
(4.58039e-05 -0.000607456 -2.62328e-18)
(5.44265e-05 -8.51692e-06 2.29956e-19)
(0.000887954 0.000870128 7.5544e-18)
(0.00105574 0.000983945 -1.45532e-17)
(0.00455393 -6.90459e-05 1.12895e-17)
(0.000847742 0.000891282 -3.66345e-18)
(0.00152961 -0.00199608 -7.78152e-18)
(0.000317528 0.000453462 4.55145e-18)
(0.0020228 -0.00127957 -3.64207e-18)
(0.0123078 -0.0123919 -9.75983e-18)
(0.000359352 8.87423e-05 9.08279e-20)
(-0.0117762 -0.00437237 -1.83807e-17)
(0.00185339 0.000851398 -6.118e-19)
(0.00257451 -0.000432336 1.80988e-19)
(0.000239129 0.000361437 2.21761e-19)
(0.00677226 0.00704112 -3.91761e-18)
(-0.0299005 -0.0385574 2.01089e-17)
(0.000237244 0.000109454 -7.19522e-19)
(0.0015949 0.00106427 -1.29238e-19)
(0.0479648 -0.00646983 3.06063e-17)
(0.0199973 0.00115583 1.53967e-17)
(5.73208e-05 -1.24693e-05 -9.40479e-19)
(0.0013194 -0.00665685 -1.11284e-17)
(0.000634234 -0.000854459 -1.40635e-18)
(0.0434573 0.010083 -3.21394e-19)
(0.00777868 -0.00127835 4.04057e-18)
(-0.00944564 -0.00116831 7.31735e-17)
(-0.00562172 -0.00589075 -2.33871e-17)
(0.00106073 -0.00156482 -5.4802e-18)
(0.000249998 0.000114476 -1.08394e-18)
(0.000170509 -0.000352816 -1.01311e-18)
(0.00530115 0.000114642 7.01179e-18)
(0.000115241 -1.55614e-05 3.19221e-18)
(0.000825294 0.000832911 -3.53279e-18)
(-0.0297075 -0.0370948 1.80329e-18)
(-0.00587047 -0.0319049 -1.94454e-17)
(0.000653719 -0.00160452 1.45009e-17)
(0.000253389 0.00038377 3.65217e-19)
(-0.00171055 0.0213729 1.53293e-17)
(0.000435703 0.000355346 -1.04144e-18)
(0.0006737 -0.000829524 2.88518e-19)
(0.00114296 -0.0319764 6.08439e-17)
(0.0295806 -0.0219837 3.22167e-17)
(0.00432722 -0.00486589 -9.77415e-18)
(-0.00851665 -0.0046076 7.03057e-18)
(-0.00492132 0.00197388 8.56234e-17)
(0.0132625 -0.00822259 2.25983e-17)
(0.0434313 0.00820175 4.39026e-18)
(0.0313043 0.0179384 2.58369e-17)
(0.00348442 -0.0336989 -3.74657e-17)
(0.00214528 0.00119344 2.93387e-17)
(-0.0153932 0.00127373 -1.85906e-18)
(-0.00544553 -0.00521898 2.16681e-17)
(-0.00370433 -0.00117607 1.20886e-16)
(0.000680579 -0.000840345 -3.73662e-19)
(0.0336965 0.0170376 -8.95739e-18)
(0.000624118 -0.000841941 -1.52235e-19)
(-0.00908891 -0.00220119 5.90739e-17)
(0.00158103 -0.00203926 -1.04585e-18)
(-0.00375664 0.00437786 1.66631e-17)
(-0.00819168 -0.00205046 -7.68237e-17)
(0.00562874 -0.0330122 1.13167e-17)
(0.000440213 0.000373611 -3.01138e-18)
(0.00054192 -0.000383831 2.95611e-20)
(-0.000869068 -0.00856604 8.57536e-18)
(0.00336252 -0.000188575 3.7144e-18)
(0.0394169 0.0144051 -3.49329e-17)
(0.00711103 -0.00826956 -4.8423e-18)
(0.00418929 0.00179781 -1.33178e-17)
(-0.0554479 -0.00706646 9.99009e-18)
(0.00677566 -0.0135556 -2.27086e-17)
(-0.0416992 -0.0590447 -1.00085e-17)
(0.0248813 -0.0245309 -3.11129e-17)
(0.00136558 0.000932615 2.28506e-18)
(0.000308168 -0.00174009 1.67371e-19)
(-0.0103009 -0.000975063 7.99747e-17)
(-0.000489852 -0.00700969 1.82293e-17)
(0.000442327 -2.54933e-05 -6.24917e-21)
(0.00109804 -0.000454156 -3.15602e-19)
(0.0324528 0.0067992 -4.56478e-17)
(0.0200187 0.00380489 -5.69311e-18)
(0.0586391 0.0046902 5.1645e-17)
(-0.000779704 0.00205687 -4.9748e-18)
(-0.00748312 -0.00462056 4.33233e-18)
(-0.0066718 0.00467999 -1.07111e-18)
(0.00206461 0.00152899 1.47715e-17)
(0.000304368 -0.000575146 -2.53269e-18)
(0.0330126 0.00348996 -1.05424e-17)
(0.00212646 -0.0081737 1.02988e-17)
(0.0112865 -0.00494771 2.32758e-17)
(0.0110959 -0.0100522 1.10041e-17)
(0.00658507 0.0236465 6.86371e-17)
(-0.0307628 -0.0167748 -1.12253e-17)
(-0.00769835 -0.00250103 -5.29097e-17)
(0.000375705 2.66725e-06 1.24632e-19)
(0.0051158 0.000661813 -4.01301e-18)
(0.0033644 -0.00903934 4.11952e-18)
(-0.00323779 -0.00343246 7.65126e-18)
(0.00362299 -0.0031801 9.1418e-18)
(0.000402052 -0.00810411 1.43399e-17)
(0.00145444 -0.00146568 2.32007e-18)
(0.00057713 -0.0304416 -4.82116e-17)
(0.0046605 -0.000350836 1.44527e-17)
(0.000552582 -0.000387141 -1.44617e-18)
(0.00267416 -0.00495473 2.16153e-17)
(0.00410221 -0.00492917 7.30245e-18)
(0.00563952 -0.00673551 -1.11323e-17)
(0.00094332 -0.000701691 2.38755e-19)
(0.0171534 0.00233075 -2.35152e-17)
(0.000843452 0.000908074 2.04159e-19)
(0.00012775 0.000925154 9.53144e-19)
(0.0536989 -0.00385661 8.03261e-17)
(-0.116414 -0.0172242 8.08011e-18)
(0.0149906 0.0035059 3.82729e-18)
(0.00369326 -0.015319 -1.77156e-17)
(0.0144462 -0.0077684 -7.37543e-18)
(-0.0314929 -0.0624583 -6.68842e-17)
(0.00210144 0.00121215 -5.35401e-18)
(4.84661e-05 6.44544e-06 -8.18459e-20)
(-0.0143712 0.000928193 -8.5181e-18)
(0.00212617 0.00117503 -3.39574e-17)
(-0.00593047 -0.00473743 -2.31751e-18)
(0.00188263 0.0008183 9.9321e-19)
(0.00100009 -0.00110885 -7.08809e-18)
(1.04253e-05 1.36999e-05 1.20173e-18)
(0.000546956 -0.000208634 -8.07466e-19)
(0.042756 0.00542059 -1.21085e-17)
(-0.0112718 0.000632444 1.60538e-17)
(0.000997104 -0.0010818 2.30387e-18)
(0.00773768 -0.00111559 -7.87337e-18)
(0.0668694 0.0198509 2.53735e-17)
(0.000331598 0.00089034 8.8644e-18)
(0.0208082 -0.00041373 -3.28758e-17)
(0.0116342 0.00116973 8.04606e-18)
(0.0275425 0.0199402 5.45957e-17)
(-0.00168097 0.00941973 2.01628e-18)
(0.000362265 4.5391e-05 -6.60447e-19)
(-0.0117606 0.000102402 -3.44457e-17)
(0.0421488 -0.0105822 2.17632e-17)
(0.0421446 0.00411934 2.51935e-17)
(-0.014022 -0.0441832 -2.58475e-17)
(0.0573775 0.0205378 2.99964e-17)
(0.00109324 -0.00157956 3.47102e-18)
(0.00271072 -0.00491839 -2.7525e-17)
(0.00113078 0.00067771 4.79867e-19)
(0.000408625 -7.63329e-05 4.28372e-19)
(0.0183277 0.000841069 9.24088e-18)
(-0.0214479 -0.0608802 7.1293e-17)
(0.000197651 0.000432601 -3.58176e-18)
(0.00142014 0.00229092 5.05438e-18)
(0.00847128 -0.0564 1.07521e-19)
(0.000534631 -0.000518688 -1.63406e-18)
(0.0193617 0.00461993 -4.3039e-17)
(0.000291853 0.000402367 -2.0464e-18)
(0.000467763 -0.000447707 -2.62742e-18)
(0.00376948 -0.00318488 1.53102e-18)
(-0.0330329 -0.0152007 6.13785e-18)
(0.00139628 -0.000306445 5.53332e-19)
(0.0140631 0.00365502 -1.28845e-17)
(0.003122 -0.00169586 6.02473e-18)
(-0.00628011 -0.0044638 -2.06527e-17)
(0.00324217 -0.000350214 2.77567e-18)
(0.0121093 0.00146069 3.71167e-17)
(0.00014161 -0.000231969 5.24943e-19)
(0.000303307 0.00043308 -1.62896e-18)
(0.00197417 -0.00489949 -3.38059e-18)
(0.00185484 0.000776096 1.0714e-17)
(0.00375392 0.000626752 -6.65969e-19)
(-0.00262663 -0.00182516 2.8202e-17)
(0.000327322 -2.02351e-05 9.68797e-19)
(0.00305828 -0.00161859 -9.28296e-19)
(0.00506973 -0.00906724 1.28129e-17)
(2.65655e-05 8.17151e-06 -2.5087e-20)
(-0.0122494 -0.00545649 7.15331e-18)
(0.00255504 -0.00054287 -1.37183e-18)
(0.000359496 4.23569e-05 2.09601e-19)
(0.00438716 0.00192044 1.8349e-17)
(0.00106575 -0.00103804 2.19431e-18)
(0.00357313 0.000902573 6.25196e-18)
(0.00357145 -0.00471117 1.2688e-17)
(-0.00451775 -0.00205084 1.706e-17)
(0.00363307 -0.00489748 -3.31572e-19)
(0.00147297 -0.0069976 -6.64368e-17)
(0.000331687 0.000268399 -1.7701e-18)
(0.0251801 0.0234393 -8.93838e-17)
(0.000364591 4.21774e-05 -1.14663e-18)
(0.00139041 0.000915439 -1.30316e-18)
(0.0154968 -0.0291735 1.34198e-17)
(0.0521648 -0.00459443 -9.02752e-17)
(0.0110383 0.00839094 -1.87556e-17)
(0.00570456 -0.00853635 -6.04253e-18)
(0.00104645 0.00261766 1.6236e-17)
(0.00424832 -0.00229726 -2.83683e-19)
(8.40142e-05 0.000330489 1.2607e-18)
(-0.00277664 -0.00102581 1.21276e-17)
(0.000170489 -0.000326756 -8.49695e-19)
(-0.00607286 -0.00377911 2.11327e-17)
(-0.0122519 -0.00370192 -6.53991e-17)
(0.00717368 -0.0352289 3.32154e-17)
(0.000312355 -1.47218e-05 -1.59658e-19)
(0.000517756 -0.000479601 -2.20533e-18)
(8.57936e-05 0.000329998 1.11914e-18)
(0.000391019 9.22542e-05 -4.84691e-19)
(0.0344198 0.00405454 3.22358e-17)
(0.00309039 0.00146298 2.23536e-17)
(0.000522909 -0.000247816 -2.44901e-20)
(0.0168892 0.00136789 -1.18071e-16)
(-0.0428658 -0.0590451 -4.9074e-17)
(0.00124986 0.00122246 -6.14105e-18)
(0.00126379 -0.0178689 2.55426e-17)
(-0.0172543 0.00989308 -9.97229e-17)
(0.00946814 -0.0341632 -1.53552e-17)
(3.73179e-05 -0.000546491 4.04874e-18)
(-0.00456906 0.00322732 1.64245e-17)
(0.00131918 -0.00262856 -7.47694e-18)
(7.05308e-05 -0.000719068 -6.58395e-18)
(0.0204076 -0.000713303 -6.15761e-18)
(0.00215068 0.00117669 -4.33875e-17)
(0.00140642 -0.00264239 7.24895e-18)
(-0.000310384 0.00148369 7.56507e-18)
(0.0020022 0.00171281 2.84374e-17)
(-0.00497913 -0.0493461 -6.29977e-18)
(0.00144972 -0.00701009 3.36249e-17)
(0.00353473 0.000843408 -7.26894e-18)
(0.00467534 -0.0045678 1.07297e-18)
(-0.000228029 0.0004954 -2.66749e-18)
(0.00496623 -0.00550522 -1.55136e-17)
(0.000309533 -0.000339289 1.5687e-18)
(-0.00210217 -0.00215129 -2.36711e-17)
(0.00247638 -0.000557957 1.66084e-19)
(0.0171098 -0.028788 1.18381e-17)
(-0.0201154 0.000593881 1.45193e-17)
(0.00036245 0.000259257 -1.69459e-18)
(0.00128494 0.000943747 -1.70581e-18)
(0.00719452 -0.00721848 -1.51992e-18)
(0.00124241 0.000932258 3.54572e-18)
(0.00135261 0.00223471 -9.68981e-18)
(-0.00242599 -0.00119171 -9.80026e-18)
(0.0596583 0.0175298 -3.91203e-17)
(0.0601346 0.00371377 -3.31947e-17)
(0.000897995 -0.000758517 8.70765e-19)
(0.00562798 0.00683553 3.41056e-17)
(-0.125545 -0.0220396 -3.07682e-17)
(0.0144817 -0.00791198 4.19397e-17)
(0.00147607 -0.000385533 3.29391e-19)
(0.000327726 0.000640358 -2.23757e-18)
(0.00246756 0.00115744 5.118e-18)
(0.00301146 0.00151185 -5.22288e-17)
(0.000922326 -0.00070299 6.79275e-19)
(-0.149512 -0.0473143 1.47732e-17)
(0.0156533 0.00158691 -2.05444e-16)
(0.0134332 0.00538125 -2.54614e-17)
(4.85997e-05 -0.00235322 3.028e-17)
(-0.010898 -0.00447234 6.01252e-17)
(0.000184027 0.000387049 -9.4997e-19)
(0.000253263 3.05354e-05 -2.19314e-19)
(0.00457376 -0.00247636 -2.09122e-19)
(0.00216592 -0.00186649 7.47715e-17)
(0.000844294 -0.00229477 1.23802e-17)
(0.00441704 -0.00462137 -2.72235e-18)
(-0.00509432 0.00227345 5.64066e-18)
(0.00256075 0.00103945 -3.0576e-20)
(-0.008072 0.00251349 -5.96792e-17)
(0.000243073 0.00079799 -7.57026e-18)
(0.0728227 0.0162624 -1.05055e-17)
(0.0293586 0.0193678 -3.71706e-17)
(0.000368196 8.76836e-05 -1.62252e-18)
(-0.0660153 -0.033793 3.19036e-18)
(0.00331037 -0.00209122 -3.59834e-18)
(0.000847116 0.000851412 2.92641e-18)
(0.00323919 0.000723565 9.78421e-18)
(-0.000377734 0.00460546 -2.56358e-17)
(0.000177474 0.00169152 -8.8386e-18)
(7.18569e-05 -0.000689135 6.11972e-18)
(-0.0160115 -0.00152546 2.27642e-17)
(0.0401914 0.014839 1.90491e-17)
(0.000431085 -8.99338e-05 1.02549e-18)
(-0.0146197 -0.000931887 -1.04705e-16)
(-0.00747373 0.00365611 -1.8274e-17)
(0.010399 0.00828931 -4.69804e-17)
(0.00031171 -0.000302173 -8.97228e-19)
(0.000348684 1.44189e-06 -2.35636e-19)
(0.0365609 -0.0222027 -2.96753e-18)
(0.00124784 0.00120061 1.02461e-17)
(0.000198837 0.000421974 3.72732e-18)
(0.000414371 0.000698407 1.69206e-19)
(0.000344487 -0.00205514 1.52902e-17)
(0.0116649 0.000703577 3.09078e-17)
(-0.000255805 0.00494569 -1.73209e-18)
(0.00249449 0.00112749 -4.30778e-19)
(0.00307509 0.00136158 -7.3206e-18)
(0.00313251 -0.000459778 1.97505e-18)
(0.00395467 -0.00299067 5.23777e-18)
(-0.000199298 0.000470574 -3.55116e-18)
(1.03319e-05 1.067e-05 -5.15731e-18)
(-0.0305318 -0.0198623 -2.94916e-17)
(0.00564854 -0.000602822 2.13293e-17)
(0.00584939 0.00716453 2.44115e-17)
(-0.000688087 -0.0840655 -4.48653e-17)
(0.000876852 -0.00233607 2.63836e-18)
(0.00137112 -0.00028219 -2.44829e-19)
(0.000428661 -1.84757e-06 -1.99857e-19)
(0.0732041 0.0179042 2.52967e-18)
(-0.0686089 -0.0361155 2.91264e-17)
(9.46283e-05 0.000356421 -9.50724e-20)
(0.000355713 3.0594e-05 -2.96997e-19)
(0.000108365 0.000359078 -1.53829e-18)
(0.00141244 -0.00148542 -2.57851e-18)
(0.00408424 -0.0022061 1.18615e-18)
(0.0114399 0.0164011 1.20562e-17)
(0.000299089 -0.00052278 4.25238e-18)
(0.000311005 -0.00160347 1.27381e-18)
(0.00020152 0.000334991 1.80489e-18)
(0.00197461 -0.00779394 5.41398e-18)
(0.00560496 -0.00652547 1.31251e-17)
(-0.00866135 0.00623699 5.73986e-17)
(0.00923177 -0.0023137 -2.3133e-17)
(0.000688511 0.00148844 1.03668e-17)
(-0.033153 -0.0112949 -1.06505e-17)
(0.00757329 -0.00286782 -1.44487e-17)
(0.00261203 0.00168864 1.58505e-17)
(0.0015105 -0.00275118 -3.29571e-19)
(-0.00474753 -0.00493123 6.94084e-18)
(0.0359695 -0.00645072 -2.8009e-17)
(-0.0146374 -0.0604842 3.48783e-17)
(0.000283033 -9.37988e-05 -1.43584e-18)
(0.003434 -0.000355599 2.51579e-18)
(0.0369387 0.0232436 -2.71576e-17)
(0.0580627 0.0175274 3.50693e-17)
(0.00220655 -0.000106969 1.74703e-18)
(0.000203441 0.000404253 -2.11868e-18)
(0.000261799 0.000978361 -2.60866e-17)
(0.000484 0.000887682 6.85288e-18)
(0.00235742 0.00122481 1.61248e-17)
(0.0670891 0.0184936 -4.73754e-19)
(0.0514738 -0.12652 2.26418e-17)
(0.0280207 -0.000196566 -1.72185e-18)
(0.00302565 -0.000530011 1.03003e-18)
(-0.0198591 0.000701293 -5.04302e-17)
(0.000639452 -0.00105926 4.33695e-19)
(0.00188096 0.000742763 -1.07133e-17)
(0.000722085 -0.000658911 -3.86077e-19)
(0.00108255 0.00097684 1.23013e-17)
(0.0195558 -0.00879814 -2.53866e-17)
(0.00170793 0.00112123 -5.9448e-18)
(-0.0139452 -0.00137494 1.33935e-16)
(0.00493662 -0.00688373 2.5369e-19)
(-0.000290461 0.00141868 1.99906e-18)
(0.000425024 -6.89525e-05 -1.40888e-18)
(0.0428179 0.00546694 7.80598e-18)
(0.0267125 -0.000573779 2.02826e-18)
(-0.0171322 -0.014218 -2.60996e-17)
(0.000621332 -0.00104471 -1.62241e-18)
(0.0105684 0.00336653 -1.97048e-17)
(0.000334523 0.000626605 2.19233e-18)
(0.00139755 -0.00199867 6.40563e-19)
(0.000304631 -0.000598312 2.61983e-18)
(0.000379202 0.000251532 -1.37394e-19)
(0.0688036 0.00150961 5.16124e-17)
(-0.00941624 -0.00548191 -3.14447e-17)
(0.00261061 -0.0183821 2.47192e-17)
(-0.014054 0.000936435 7.37482e-17)
(0.000415017 -1.99039e-06 -7.18543e-20)
(-0.00534575 -0.0264424 -1.7448e-18)
(-0.011126 -0.0171328 -2.34903e-17)
(0.00204409 0.00171691 -3.10799e-17)
(0.000448729 -2.07744e-05 -3.91287e-19)
(0.0118518 -0.073631 5.8859e-17)
(0.000508925 0.000722318 -2.67301e-18)
(1.82815e-05 0.0010014 -2.41328e-18)
(0.000422056 -7.81409e-05 3.76614e-19)
(0.0203347 -0.00954487 1.26891e-18)
(0.000339044 -0.000452876 6.96489e-19)
(0.00197672 -0.00135311 1.21535e-18)
(0.00897983 -0.00204165 2.4465e-17)
(0.0396862 0.0064138 -3.77862e-17)
(0.000403797 0.000679464 -1.19466e-18)
(0.0364388 -0.018353 -6.93106e-18)
(0.00239297 -0.000565904 7.11397e-18)
(0.000303499 -0.000325407 8.58236e-19)
(0.00179339 0.00178382 -2.3667e-18)
(0.000648946 -0.00093849 6.10885e-18)
(0.00036133 3.1753e-05 7.59033e-20)
(0.0025209 0.00104409 3.30982e-18)
(0.00396597 -0.00434022 2.78725e-17)
(0.00392635 -0.00285955 -3.09877e-18)
(-0.00802575 -0.000206138 1.10248e-16)
(0.00207343 0.00154246 2.2668e-17)
(0.000181182 -0.000568921 2.18648e-18)
(0.00678686 -0.00700656 1.30191e-18)
(-0.0531899 -0.0536572 -1.24555e-17)
(-0.0471628 -0.0284575 2.75957e-17)
(-2.60314e-05 0.00849513 -1.35739e-17)
(0.0218468 -0.0057148 -6.8489e-18)
(0.001426 -0.000489267 1.6249e-18)
(0.000373724 0.000239434 1.03603e-18)
(0.000494131 -0.000235601 -4.62449e-21)
(0.00107921 -0.00105517 -2.68283e-19)
(0.0283543 0.00174979 2.44958e-17)
(0.00373061 -6.18823e-06 -3.89998e-19)
(0.00368482 0.00302377 -2.09439e-17)
(0.0031852 -0.00201022 5.1333e-18)
(0.00211681 0.00119086 -5.44122e-18)
(0.0181843 -0.0512753 -5.33336e-18)
(0.00654662 -0.00885533 -1.24258e-17)
(0.000624237 -0.000910219 6.93727e-18)
(0.00298864 0.00133956 -1.6513e-17)
(-0.0033052 -0.00128192 -8.26178e-17)
(0.00138547 -0.00105901 2.40069e-18)
(0.065238 -0.106955 3.86254e-17)
(0.000396555 -4.05366e-07 -1.35362e-20)
(2.97237e-05 -0.000847745 -3.27818e-18)
(-0.120605 -0.0428646 -2.82165e-17)
(0.00198593 -0.00184479 1.83748e-18)
(0.00119414 0.00099616 -8.29297e-18)
(-0.000620254 -0.0490352 5.624e-17)
(0.0210026 -0.0141295 -1.66309e-18)
(0.00453064 -0.00232075 -8.28154e-19)
(-0.00715695 -0.00255066 -3.70404e-17)
(0.00066258 -0.000849496 1.5619e-18)
(0.00127189 -0.0011318 3.87732e-18)
(0.00178588 -0.00715 6.49429e-17)
(-0.00420657 -0.00537969 -1.46051e-17)
(0.00180455 -0.00314862 -3.78647e-18)
(0.00596816 0.00278272 -8.49056e-18)
(0.0416971 0.0140367 1.78887e-17)
(0.0400851 -0.0447081 1.64422e-17)
(0.0510856 0.00113699 -6.00251e-17)
(0.0412836 0.0108069 -1.09526e-17)
(0.000617035 -0.00161549 -5.07029e-18)
(-0.00080017 0.0086166 -4.92728e-18)
(0.00109948 -0.000497509 7.55591e-20)
(0.0295389 0.00210908 -2.95879e-17)
(0.00167078 0.000674013 -3.90799e-18)
(-0.00826881 -0.00246569 2.65921e-18)
(0.0103547 0.00388251 -5.60718e-19)
(0.0157833 0.0247035 5.3966e-17)
(0.0035597 0.00282382 1.73829e-17)
(0.0176509 0.00271472 9.17733e-18)
(0.00037849 9.71741e-05 4.83273e-19)
(-0.0129905 -0.0404689 4.15549e-18)
(0.00027054 0.000398957 1.66161e-18)
(0.033736 -0.0043028 2.69005e-17)
(0.000733276 -0.000682132 3.71951e-19)
(0.00998778 -0.00518329 2.08633e-17)
(0.000258941 -0.00051356 -1.21813e-18)
(0.0425958 -0.00560168 -2.0983e-17)
(0.00239442 0.00117556 -2.4027e-17)
(0.00023167 -0.000577581 -6.19381e-19)
(0.000522412 -0.000347367 -1.58362e-20)
(0.000424748 -6.95957e-05 -5.92304e-19)
(-0.0559908 -0.0572106 -1.006e-17)
(0.0623782 -0.00283671 2.78818e-17)
(0.0346995 0.00742155 -4.09206e-17)
(0.00577328 0.000598068 -3.07545e-17)
(0.00119252 0.00221725 -6.90675e-18)
(-0.000887484 0.00449516 6.12081e-17)
(2.20585e-05 5.50723e-06 -7.91944e-20)
(-8.90044e-06 1.498e-05 1.37627e-19)
(-0.0247473 -0.0393447 6.80269e-17)
(0.000525113 -0.000354232 6.11087e-19)
(8.3047e-05 -0.000726506 2.2788e-18)
(-0.00515973 0.00292053 -1.24414e-17)
(0.000308278 -8.09042e-05 1.69761e-18)
(0.0059129 0.00252464 1.55681e-17)
(-0.000991397 0.00408912 -6.24069e-17)
(7.88475e-05 -0.000707397 -6.20198e-18)
(0.000364806 -0.000469648 8.61027e-18)
(0.00171042 -0.00206165 4.96022e-18)
(0.00134824 -0.00106723 -6.07458e-18)
(0.00208707 0.00117898 1.3677e-17)
(-0.00197265 -0.0209555 -1.1925e-17)
(0.00140668 0.00719345 6.45682e-18)
(0.00186125 -0.00306497 -3.15898e-17)
(0.00249184 0.00049082 5.48264e-18)
(0.000179719 -0.000606828 5.59249e-20)
(0.000791993 -0.00843993 -7.01832e-18)
(0.000422411 -0.00172354 -1.23249e-18)
(0.00140879 0.000857508 1.62971e-18)
(0.000852068 -0.0134889 2.0837e-17)
(0.0304863 0.00424259 4.33631e-17)
(0.0168241 0.00308992 -3.38719e-18)
(-0.0149898 -0.0403902 -4.78086e-18)
(0.00225998 -0.00014559 -3.22909e-19)
(0.00137741 0.000877106 1.79105e-18)
(0.0313768 0.00580257 -1.9457e-17)
(0.000309959 0.000862569 -1.33524e-17)
(0.0659171 0.00194387 -1.44172e-17)
(0.00957575 -0.00497029 -3.78009e-17)
(0.000244775 -0.000591461 -2.23548e-18)
(-0.00221446 -0.0208214 1.7928e-19)
(-0.0325978 -0.0124149 2.15537e-17)
(0.00012246 0.000734555 -2.86407e-18)
(0.0004722 -5.45764e-06 -2.48395e-19)
(0.00549519 -0.000485824 7.54704e-18)
(-0.0494171 -0.0402612 3.00364e-17)
(0.000879216 0.000890903 3.42426e-18)
(0.000758706 0.000774475 3.62397e-18)
(-0.00057929 0.00211178 6.04571e-18)
(0.000227681 0.00163428 1.13039e-17)
(0.000154383 0.000952583 -1.74102e-18)
(0.000443038 3.67673e-05 -1.01019e-18)
(-2.26399e-06 9.57484e-06 2.95027e-19)
(0.0442524 0.00772112 1.94098e-17)
(0.0017936 0.00125456 -1.07972e-17)
(0.0659364 0.0199215 3.69962e-18)
(0.000251829 -0.000522017 3.20253e-18)
(-0.000126753 0.00975211 -2.18309e-18)
(0.0565068 0.0190288 -8.19102e-19)
(0.000300029 -0.000375973 -1.4997e-18)
(0.000304684 0.000424079 2.63926e-18)
(0.00184212 0.00122471 1.24124e-17)
(0.000171158 -0.000244826 -5.31716e-19)
(0.00151482 -0.000352678 -4.77006e-19)
(0.000834257 -0.00191545 7.11553e-18)
(0.00113187 0.000633446 -4.71231e-18)
(-0.00408324 -0.00702458 -4.1611e-17)
(0.00232091 -0.00784263 -5.23722e-18)
(0.000208108 0.000140132 -1.22558e-18)
(-0.0435131 -0.0403248 -4.91558e-17)
(0.054181 -0.00695702 5.89814e-17)
(0.0015732 -0.00314993 1.92929e-17)
(-0.00134024 0.00842589 4.14111e-17)
(0.00350663 -0.0140282 -3.25113e-17)
(0.00143906 -0.00204004 -9.57291e-18)
(0.00116906 0.0069383 9.73505e-18)
(0.00206375 0.00125769 -2.88499e-18)
(-0.00567805 -0.032572 7.96083e-18)
(0.00179592 0.00124899 7.42077e-18)
(0.00771081 0.00326071 1.20185e-17)
(0.00101503 -0.000629299 1.83622e-19)
(-0.129199 -0.117242 1.14739e-17)
(0.00191322 0.000557241 -1.37794e-18)
(0.00594177 -0.0062501 -1.3196e-18)
(0.0014946 -0.0170076 -3.40821e-17)
(-0.0091673 -0.000820178 -1.33049e-16)
(0.00182114 0.00123472 -8.76037e-18)
(0.000770665 -0.000812406 -1.88512e-18)
(0.00075892 0.00226817 -1.63182e-17)
(0.0129406 0.0151038 4.86724e-17)
(0.00146689 -0.000453654 -1.116e-18)
(0.0110673 -0.0047224 1.21296e-17)
(0.000753857 -0.00145351 7.57028e-19)
(-0.0439114 -0.0571371 1.86241e-17)
(0.00156725 -0.000249953 -1.96481e-19)
(0.000581744 0.000744778 -7.48175e-19)
(0.0004339 -6.93642e-05 4.54724e-20)
(0.000296088 -7.12872e-05 6.2885e-20)
(0.0506132 -0.0111062 -3.73341e-17)
(-0.0455101 -0.0568671 2.95111e-17)
(0.000609276 -0.00107753 4.91849e-18)
(0.0535499 -0.00228852 3.20907e-18)
(0.00241444 -0.00185655 -3.38764e-18)
(-0.0503593 -0.0351555 -5.6335e-17)
(0.0611413 -0.00339611 -2.94453e-17)
(0.0555613 -0.0160214 3.4384e-18)
(-0.0128232 0.0211121 -1.1068e-17)
(-0.000316546 0.00078979 -2.11174e-18)
(0.0382897 -0.00837181 1.2846e-17)
(0.0137982 0.00440815 1.94354e-17)
(0.00106748 -0.000153442 -4.15151e-19)
(0.00524607 -0.000176812 -2.55748e-17)
(-0.0227705 -0.0370704 -7.59307e-17)
(-0.131925 -0.0415543 -4.93691e-17)
(0.000901854 0.00126681 -1.25173e-18)
(0.000226606 -0.00193045 1.16153e-17)
(0.00108141 -0.000327077 1.69556e-19)
(0.000282479 2.91134e-05 -9.89844e-19)
(-0.109333 -0.0110041 2.57787e-18)
(-0.00301038 -0.00821456 -2.68853e-17)
(0.045668 -0.00899901 -4.14548e-17)
(-0.0110303 -0.0142122 -1.0503e-17)
(0.00052694 -0.00121777 -1.95134e-18)
(0.000154713 -0.000244482 -2.84816e-18)
(0.00109122 -0.00118611 1.28042e-18)
(4.88938e-06 1.2661e-05 -1.2828e-18)
(0.000541221 -0.000205242 1.87218e-19)
(0.000799102 -0.00191919 9.13436e-19)
(-0.000327387 0.00188317 -2.67418e-18)
(-0.00494212 -0.00701154 1.81656e-17)
(0.00203677 0.000567552 7.17007e-18)
(0.0115414 0.00229403 3.68709e-18)
(0.0202293 -0.0268021 1.53381e-17)
(0.00573859 0.00305723 1.08633e-18)
(0.000253995 -0.000552408 1.5646e-18)
(0.00192338 -0.00180093 -7.7851e-18)
(0.00703667 0.00555691 -1.50089e-17)
(-0.00526479 -0.0355533 -1.70383e-17)
(0.0072802 0.00340878 -7.46946e-18)
(0.0123233 -0.00420645 5.39166e-17)
(0.00129503 0.00211205 -6.43693e-18)
(0.00062807 -0.00112196 -4.63844e-18)
(0.051776 -0.00355318 -1.21387e-17)
(-0.0710592 -0.0390847 -1.13136e-17)
(0.00143295 -0.000263915 -5.56443e-19)
(0.000149729 0.000396852 1.92704e-19)
(0.00175887 -0.00591763 -1.35601e-17)
(0.0366226 0.0153567 -5.30916e-17)
(0.012112 0.00204136 1.60927e-17)
(0.000289403 -5.96549e-05 -5.37765e-20)
(0.038125 -0.00522603 1.15668e-16)
(-0.0075622 -0.00296961 -5.27957e-18)
(0.0147429 0.0154308 -4.72572e-17)
(0.000222819 0.000344703 1.744e-18)
(-0.00571817 -0.000499596 1.23542e-17)
(-0.0151822 -0.00133856 -6.4847e-17)
(-0.0155539 0.000519733 -3.72411e-17)
(0.00168705 0.00113863 -4.70655e-18)
(2.19174e-06 -0.000440805 -1.40221e-18)
(0.0453553 0.0135883 -3.1439e-17)
(-8.37967e-07 9.4638e-06 1.22481e-18)
(0.0329835 -0.0178596 2.93897e-17)
(0.0642055 0.00290116 1.38999e-17)
(-0.0108834 0.0076859 2.37123e-17)
(-0.00868245 -0.000978931 1.03974e-16)
(0.00956509 -0.00799929 -1.74007e-17)
(0.0119564 -0.0118574 -1.39431e-17)
(0.00348088 -0.0046299 1.03426e-17)
(0.000900258 -0.00115131 -5.80302e-19)
(0.000206745 -0.00191406 -1.24479e-17)
(-0.00151969 0.00563838 2.19756e-17)
(0.00304584 -0.0394708 -4.24683e-17)
(-0.0161585 -0.00115891 -5.47695e-18)
(0.0302114 -0.124442 -2.13095e-17)
(0.00026907 0.000865184 -4.47834e-18)
(0.0313753 -0.0186594 -2.10491e-17)
(3.30905e-06 7.52461e-06 1.04454e-19)
(0.00109691 0.00281883 -7.04712e-19)
(0.0142829 -0.00607734 1.63082e-17)
(0.00680291 0.00652173 -1.52186e-17)
(0.000233806 -0.00059885 1.81284e-18)
(0.00176511 -0.00142764 1.13378e-17)
(-0.00372846 -0.0252254 -1.45731e-17)
(-0.0375493 -0.0380495 5.69741e-17)
(-0.00360215 0.00617226 1.83083e-18)
(-0.0188878 -0.000650309 -6.58089e-18)
(0.00263303 0.00176886 1.4096e-17)
(0.00337142 -9.30349e-05 -1.02333e-18)
(0.0118504 -0.0360508 2.2214e-17)
(0.000324953 -0.00165122 6.44205e-18)
(0.000298971 0.000587253 -2.59017e-18)
(0.000380945 -0.000161696 -1.27558e-18)
(0.000350037 0.00356538 7.01039e-19)
(0.0160018 0.00236653 -4.47976e-18)
(0.000177868 -0.00050091 -4.21081e-19)
(0.0135863 -0.00528855 2.64881e-18)
(0.00047546 -0.000207787 -1.81158e-19)
(0.000368647 -2.14176e-06 1.07944e-19)
(0.000366911 1.28576e-05 2.06258e-19)
(0.0374681 -0.0156408 2.60558e-17)
(0.000349303 -0.00174776 4.66457e-18)
(3.0081e-05 3.67225e-06 -2.07135e-18)
(0.00131652 -0.000946506 5.59466e-18)
(0.000881563 0.000660314 2.28276e-18)
(0.000231777 0.000152035 9.70656e-19)
(0.0698117 0.000830851 -6.64891e-17)
(0.000469193 0.000897066 -3.95094e-19)
(-0.00023063 0.000531207 1.46148e-18)
(0.00192736 0.00291894 -1.95475e-17)
(0.00206355 -0.00297386 -1.13905e-17)
(0.00124807 0.00227722 4.39666e-18)
(0.00163028 0.000280506 -6.5978e-19)
(0.0147875 -0.00655093 -7.63054e-17)
(0.00164937 -0.00319908 -1.76246e-17)
(0.0034905 0.000594699 -1.52878e-17)
(-0.0677827 -0.0399896 1.54211e-17)
(0.00347127 0.000675576 -3.40685e-18)
(0.0115856 -0.0606161 -1.44067e-17)
(0.000380523 -0.00248813 -4.7595e-18)
(-0.00396042 -0.00811031 3.87168e-17)
(-0.0151106 0.00389111 -6.25081e-17)
(-0.108809 -0.00703882 -1.45655e-17)
(0.000126119 0.000383326 1.61103e-18)
(-0.0111288 -0.0335121 2.21287e-17)
(-0.0225989 -0.0288676 -1.18114e-17)
(0.00042048 0.000125851 2.3198e-18)
(0.0480292 -0.00798694 1.91075e-17)
(0.000212622 -0.000636098 -5.48831e-18)
(0.000363122 -8.65508e-06 1.78477e-19)
(0.00190483 0.000952884 -5.99788e-18)
(0.000352713 4.43989e-05 -2.49551e-19)
(0.00852498 -0.000143961 -1.41696e-17)
(-0.00385515 -0.034282 7.13818e-18)
(0.000274636 0.000389626 -4.41427e-18)
(-0.013307 0.00154065 -2.26638e-18)
(-0.000304128 0.00076562 2.33987e-18)
(0.00200122 0.00148042 -4.51396e-18)
(0.0136999 -0.0316067 -1.97358e-17)
(0.000195612 0.000117456 -1.93213e-19)
(0.0434223 0.0109058 -3.21697e-17)
(0.00185879 -0.000221897 1.70596e-18)
(0.000602169 0.00092499 2.5765e-18)
(0.000487814 -0.000395723 -1.86224e-18)
(0.000385934 -0.000179535 3.36626e-18)
(-0.014281 0.00482805 9.77586e-17)
(0.0018405 -0.00491134 -3.16458e-17)
(0.0420648 0.00239862 8.27083e-17)
(0.00577048 0.00324778 -1.17057e-17)
(0.0266328 0.0218523 2.14038e-17)
(0.000753659 -0.000734024 4.67525e-18)
(0.000163809 -0.000536085 -6.52187e-18)
(-0.00232746 -0.0284689 -1.14481e-17)
(-0.0182193 -0.00102415 1.44013e-17)
(0.000143801 0.0204205 2.20761e-17)
(0.00210569 -0.0050177 1.92814e-17)
(-0.00909204 0.00537869 -3.67609e-17)
(0.0139042 0.00586247 7.59705e-18)
(0.00218362 0.00109521 -9.82868e-18)
(-0.0137157 0.00646309 5.03757e-17)
(0.00157797 0.000218796 1.68679e-18)
(0.011402 -0.00928033 -2.27782e-17)
(0.000302753 -3.29779e-05 9.58818e-20)
(-0.0053501 -0.000575001 4.50759e-17)
(0.000882262 0.00132279 -4.48356e-19)
(0.00228844 -0.00489793 -1.92359e-17)
(0.0016767 -0.00213656 -3.81093e-18)
(0.00116323 0.000957651 -7.81961e-18)
(0.0741897 0.0192501 -1.84738e-17)
(0.000162686 -0.00194056 8.49684e-18)
(0.000518339 -0.000215464 1.45714e-19)
(0.00678388 0.0248695 -8.8497e-18)
(0.00185148 -0.000287017 -1.73498e-18)
(0.00035602 1.62792e-05 7.24906e-20)
(0.00378991 -0.000239772 6.73782e-18)
(0.00052499 0.00504335 5.32286e-19)
(-0.0153289 0.00465562 -7.64209e-17)
(0.0134781 0.0160866 6.16178e-17)
(-0.0506151 -0.0512084 -3.38443e-17)
(0.0434832 0.00873955 2.24451e-17)
(0.000167107 -0.000238801 2.18556e-18)
(4.13303e-06 -0.000371368 -1.55043e-18)
(0.0404004 -0.00622541 -1.20406e-16)
(0.000258463 -0.000228836 5.645e-18)
(0.0159653 -1.83291e-05 -1.85235e-17)
(0.00992135 -0.00891679 1.89153e-18)
(0.00164622 0.00108531 1.46915e-17)
(6.3708e-05 -0.000731539 3.48867e-18)
(0.00321933 0.000630749 1.3879e-18)
(3.35539e-05 -0.000308678 -5.95867e-18)
(0.000594679 0.00090152 3.0056e-18)
(0.00248934 0.0017457 -3.32926e-17)
(0.0145077 3.46327e-05 8.00283e-18)
(0.0115371 0.00259898 3.29328e-18)
(0.00183123 -0.00605204 8.80206e-18)
(0.00594789 0.001598 -1.92223e-17)
(0.000168184 -0.00038243 1.54283e-18)
(0.00862669 -0.00151501 3.15963e-17)
(0.0568036 0.019569 -2.53669e-17)
(0.000461995 -0.000172054 -1.0888e-19)