/*--------------------------------*- C++ -*----------------------------------*\
| =========                 |                                                 |
| \\      /  F ield         | OpenFOAM: The Open Source CFD Toolbox           |
|  \\    /   O peration     | Version:  v2012                                 |
|   \\  /    A nd           | Website:  www.openfoam.com                      |
|    \\/     M anipulation  |                                                 |
\*---------------------------------------------------------------------------*/
FoamFile
{
    version     2.0;
    format      ascii;
    class       volScalarField;
    location    "500";
    object      k_0;
}
// * * * * * * * * * * * * * * * * * * * * * * * * * * * * * * * * * * * * * //

dimensions      [0 2 -2 0 0 0 0];


internalField   nonuniform List<scalar> 
9793
(
0.000149421
0.0151977
0.000147575
0.0273375
0.000149704
0.000203542
0.000172476
0.0467342
0.000149106
0.00816087
0.000149247
0.000149181
0.000147318
0.0474263
0.000147347
0.000159971
0.000172155
0.000147507
0.0317166
0.000145012
0.000146147
0.000149939
0.0258963
0.0477711
0.0494682
0.000154789
0.000148564
0.000149722
0.000145066
0.000175982
0.0181027
0.000241708
0.000147992
0.000147559
0.00014707
0.000161219
0.000156339
0.000153147
0.03833
0.000161606
0.000173447
0.0890487
0.0388765
0.000149793
0.000147699
0.000148174
0.022709
0.000149885
0.000147544
0.000147555
0.000161058
0.000146891
0.00016756
0.000149769
0.000158592
0.0292705
0.000147372
0.000188785
0.000147542
0.000149937
0.000154904
0.000169069
0.000147635
0.000169245
0.000147579
0.000148813
0.0080063
0.000154392
0.000157374
0.0390276
0.000148097
0.000168708
0.0415547
0.105033
0.0470778
0.000149724
0.000161807
0.0813544
0.00014781
0.000149783
0.000162575
0.0321375
0.000172038
0.00015241
0.000157389
0.000202537
0.000149714
0.000185613
0.0387312
0.000168652
0.0298123
0.000583834
0.000921899
0.000165183
0.0381345
0.000147341
0.0488098
0.000170263
0.000154594
0.000149769
0.0371088
0.00016626
0.0759787
0.000147723
0.0505025
0.0779456
0.0989673
0.000147026
0.000147836
0.000149878
0.000149514
0.0277852
0.000400851
0.0137468
0.000147992
0.000148657
0.000156186
0.000148234
0.0317077
0.000148078
0.0499764
0.000186526
0.0604654
0.000171001
0.00015639
0.000148111
0.00017362
0.0220235
0.000565745
0.000525976
0.000154332
0.000146649
0.000149175
0.000152871
0.000159618
0.00018402
0.00746586
0.000156247
0.000149807
0.000174962
0.0327765
0.000160195
0.000147854
0.000180338
0.0210117
0.000211823
0.000148112
0.0468189
0.000146656
0.000148074
0.000148372
0.038773
0.00015388
0.000148518
0.000147695
0.000319533
0.000173378
0.000147599
0.000828964
0.00014772
0.000183522
0.000154584
0.000146188
0.000184752
0.000149421
0.0768916
0.0710387
0.000150147
0.000147031
0.000149396
0.000147938
0.0114109
0.0274894
0.0469256
0.000147277
0.000202452
0.000174734
0.000201019
0.000147725
0.000154386
0.0532808
0.0181224
0.000189994
0.000148128
0.000148378
0.000146986
0.0676207
0.0384826
0.0171882
0.0792153
0.000148442
0.0151447
0.000191397
0.000153647
0.00014795
0.000151362
0.000313338
0.000145186
0.000147496
0.000149298
0.000148213
0.0001464
0.00016258
0.00015712
0.0345363
0.000147836
0.000159331
0.000150186
0.000149317
0.000190503
0.000174112
0.0332618
0.000145373
0.0373309
0.000152447
0.000178522
0.000147413
0.000183743
0.000148715
0.000162287
0.000171309
0.000146388
0.000255443
0.052563
0.000164482
0.000147302
0.000174948
0.0600333
0.000162525
0.000162709
0.0351783
0.000194413
0.000176658
0.000169902
0.000187655
0.000146513
0.0292036
0.016251
0.000145189
0.000149432
0.0879485
0.000147581
0.0001495
0.000198373
0.000201431
0.000148732
0.000154507
0.000160148
0.000160955
0.000154891
0.000147759
0.000164706
0.0279123
0.000146289
0.0489386
0.000149721
0.000149058
0.000145662
0.0300827
0.000147771
0.00328404
0.0403651
0.000148582
0.000148784
0.01458
0.000148192
0.000149558
0.000147944
0.0390899
0.000180455
0.000153316
0.000191482
0.000186374
0.0719116
0.0234332
0.000150216
0.0191897
0.000149737
0.0617391
0.000601015
0.0405331
0.0493082
0.000195074
0.000154505
0.000170458
0.000156349
0.000148201
0.000150672
0.000191107
0.000154929
0.000148842
0.000149881
0.000145366
0.000146935
0.000146288
0.0274154
0.000146972
0.000147198
0.000148995
0.000147326
0.0228298
0.000214854
0.000164598
0.000150474
0.000180248
0.000150126
0.0670065
0.0312701
0.000147747
0.0416647
0.000167449
0.000147679
0.011575
0.0891848
0.000148045
0.00016511
0.000755352
0.000148718
0.000158295
0.000147218
0.00014902
0.0659674
0.000161388
0.000147615
0.000148047
0.000150245
0.000178973
0.00040755
0.000147598
0.000146987
0.000147444
0.00955338
0.0278292
0.0356378
0.000146337
0.000162103
0.000158554
0.00026971
0.0001805
0.000146622
0.000147095
0.000147438
0.000170235
0.000148485
0.0481259
0.000148488
0.000146517
0.0670414
0.0283767
0.036426
0.000147637
0.0367176
0.000153537
0.000410786
0.0494178
0.0346353
0.000152075
0.000162478
0.0102061
0.0304553
0.0283919
0.000154456
0.000149732
0.000153689
0.000147326
0.000146864
0.000148372
0.000148442
0.000149941
0.051493
0.000149319
0.000173141
0.000161457
0.0885721
0.00014662
0.000152645
0.0212086
0.000198511
0.0515462
0.000179625
0.00014651
0.000152241
0.00014759
0.000215538
0.00014485
0.0366719
0.000175513
0.000172176
0.032483
0.0669129
0.000148821
0.000147267
0.0237973
0.000216575
0.000147819
0.0449277
0.000148779
0.000149095
0.000502228
0.000145359
0.000188588
0.000146539
0.0702371
0.000148526
0.000149486
0.0632989
0.000168133
0.000184322
0.000153727
0.000148381
0.000147039
0.0556881
0.000169776
0.000145709
0.00014923
0.000159169
0.000158562
0.000184313
0.0162444
0.000149237
0.000147539
0.000186566
0.000148425
0.0294803
0.000199678
0.000148324
0.000148026
0.000150515
0.000148673
0.000147368
0.0377887
0.000162627
0.0295713
0.000156165
0.000153782
0.000170877
0.000152874
0.032341
0.000154371
0.000149763
0.000154485
0.000209962
0.000147928
0.00014775
0.00014812
0.00014487
0.000147815
0.000147259
0.000148188
0.000148966
0.000150554
0.000156218
0.00019912
0.000149689
0.000265811
0.000154008
0.000179768
0.0224552
0.000148205
0.0707423
0.00017245
0.000147964
0.000144885
0.000147893
0.0583608
0.000186166
0.00014486
0.000148706
0.000149249
0.00016483
0.00017581
0.0813595
0.000147672
0.000147706
0.00015749
0.0205094
0.0398331
0.00015175
0.000153318
0.0502506
0.0778825
0.00173756
0.000148856
0.000146583
0.0353585
0.000147395
0.000174883
0.0890282
0.000145581
0.000178833
0.00015805
0.0350288
0.000147015
0.0328384
0.000203341
0.000159156
0.0100185
0.000147363
0.000262027
0.000148531
0.000147225
0.000149438
0.000147591
0.0439321
0.000147316
0.000147353
0.000150414
0.000146367
0.000146597
0.000164716
0.0001505
0.000168382
0.000148091
0.00014812
0.0238435
0.000166023
0.000151668
0.0481129
0.000155423
0.00014893
0.000147794
0.000147381
0.0412092
0.000147337
0.000148321
0.0199921
0.0871287
0.000161231
0.000147369
0.000149883
0.000149345
0.000149566
0.0489044
0.000148877
0.0898908
0.000155531
0.000284003
0.000149721
0.0107351
0.000152989
0.000184206
0.000147442
0.000200395
0.0241261
0.000148589
0.0868117
0.000147491
0.000149404
0.000145995
0.0583824
0.0340516
0.000147934
0.000158859
0.000147335
0.0512778
0.000148429
0.000165045
0.0334765
0.000153455
0.000148022
0.000161863
0.000149599
0.000149565
0.00014751
0.000197228
0.00014754
0.0531967
0.000148216
0.000148577
0.000172837
0.000166631
0.0643268
0.000147057
0.0114719
0.000147236
0.000180177
0.000147639
0.000150025
0.000147363
0.000148201
0.000149766
0.000180409
0.000176669
0.0845806
0.00018358
0.000158892
0.000159156
0.000394082
0.000153476
0.0479909
0.0312999
0.000186392
0.0448366
0.0882565
0.000179156
0.000149603
0.000479117
0.000172795
0.000149628
0.000193981
0.000149642
0.000191536
0.000160325
6.47266e-05
0.000155255
0.030029
0.0309562
0.000171013
0.000119845
0.000149384
0.000208457
0.000150463
0.000147453
0.000148404
0.000154408
0.000168641
0.0358807
0.000182833
0.0286242
0.000152825
0.00015152
0.0352663
0.000184562
0.000152649
0.000177521
0.000149385
0.000470803
0.0661092
0.000148285
0.000164661
0.000182652
0.0301487
0.000147544
0.000154141
0.0622106
0.000161899
0.0746715
0.000199677
0.088637
0.000154226
0.000153697
0.000148117
0.000147677
0.0084086
0.000149884
0.0207503
0.00018805
0.000171008
0.000149706
0.000149443
0.000154479
0.000149855
0.000146723
0.000147602
0.000181568
0.0615093
0.0496417
0.000149849
0.000198869
0.000147538
0.0293424
0.000175538
0.000161819
0.000158392
0.00020124
0.000146122
0.000148311
0.000161169
0.000147415
0.000149143
0.000175839
0.0383924
0.0001464
0.00701551
0.0403198
0.000155155
0.0630881
0.0407122
0.000147408
0.00017195
0.000161028
0.000148389
0.000145864
0.000168786
0.0408101
0.0391043
0.000148002
0.000148007
0.000146124
0.000157059
0.000150526
0.000152116
0.000196753
0.000175558
0.000148922
0.0593618
0.000162589
0.000158313
0.000148967
0.00626881
0.000154174
0.000147274
0.000171478
0.0003199
0.000145912
0.000148226
0.000147617
0.000158228
0.000146091
0.000171234
0.0038317
0.000148871
0.000197587
0.000152079
0.000148727
0.0652495
0.0309412
0.0153333
0.000148407
0.000146151
0.0940406
0.000153967
0.0823617
0.000145652
0.000147517
0.0163637
0.0862601
0.000160731
0.000191335
0.000164551
0.000147284
0.000149793
0.000148142
0.0347444
0.000148238
0.000149947
0.0315078
0.000155137
0.000206691
0.000157819
0.000147436
0.0309326
0.000149765
0.000147567
0.000148078
0.000157534
0.0249671
0.000148999
0.000147737
0.000147404
0.000147309
0.000147482
0.00014821
0.0550356
0.000157996
0.000150331
0.000148637
0.000158012
0.000173971
0.000159954
0.000155748
0.000149883
0.000146059
0.000151694
0.0316709
0.0675433
0.000153411
0.0352531
0.000149379
0.000153784
0.000188469
0.000322095
0.000147317
0.000149131
0.000187199
0.000175124
0.000147199
0.000149623
0.0525287
0.000149767
0.000172959
0.000147995
0.000199069
0.000149615
0.000152841
0.00014875
0.000160098
0.000149638
0.000152846
0.000154208
0.000174625
0.000146937
0.000147887
0.000149633
0.000147187
0.000149496
0.000148991
0.000161831
0.000148642
0.000177445
0.0545741
0.000168866
0.000176128
0.000149284
0.000147519
0.0149458
0.0949461
0.000145754
0.0604347
0.0187375
0.000146229
0.000147717
0.000147088
0.000175302
0.000178511
0.000317278
0.000146894
0.000154536
0.000146894
0.000149145
0.000152503
0.000171279
0.000149409
0.00020085
0.000148527
0.0001651
0.000147139
0.000150932
0.000147622
0.000174462
0.000164177
0.0225912
0.104715
0.0588491
0.000173273
0.000147543
0.000303125
0.00041429
0.000181441
0.000149059
0.000148467
0.000297145
0.000147047
0.0255582
0.000146688
0.000163741
0.000149778
0.000149779
0.000147354
0.0911317
0.0360045
0.0260067
0.000165801
0.0198034
0.000147625
0.0551919
0.0750338
0.000149785
0.00014847
0.000146019
0.0819837
0.000145433
0.0452152
0.000157823
0.000194491
0.000149246
0.000239089
0.0124649
0.000288754
0.000156984
0.000163283
0.000148122
0.044107
0.000145438
0.000203205
0.000178459
0.000165635
0.0830046
0.0401564
0.000154118
0.00015186
0.000147494
0.000205694
0.0478213
0.0153406
0.00014611
0.000416298
0.00015922
0.000202268
0.000171154
0.0393594
0.040827
0.000147101
0.000154318
0.000164075
0.000155496
0.000155132
0.0699402
0.000149248
0.0769922
0.000147721
0.000146884
0.000172845
0.000192598
0.0813582
0.000150915
0.0194193
0.0390896
0.000218228
0.000154719
0.00014951
0.000150897
0.000149466
0.000147679
0.000233182
0.0689219
0.000149199
0.000147667
0.000165697
0.000279376
0.000155367
0.000147657
0.000189685
0.000147568
0.000149816
0.000145572
0.000182423
0.000148094
0.00015701
0.0215675
0.000173427
0.000153341
0.000482141
0.000171159
0.00014754
0.000152753
0.00016479
0.000149724
0.000147644
0.000146875
0.0698065
0.0462847
0.000148983
0.000165829
0.000159065
0.000209169
0.000147916
0.052683
0.000146919
0.000146165
0.000203035
7.63989e-05
0.000178841
0.000148287
0.000147196
0.0187339
0.0387606
0.000193704
0.00032133
0.000148588
0.000154858
0.000148014
0.0126617
0.00015249
0.076074
0.000150139
0.000148124
0.000154349
0.000146408
0.000147004
0.000166
0.000146471
0.0554525
0.000147903
0.000148852
0.000145842
0.000156979
0.0499723
0.0261719
0.0001793
0.0240379
0.000147754
0.000160376
0.00015334
0.0835454
0.000148395
0.00014692
0.0794837
0.000159284
0.000158039
0.000148649
0.000598532
0.0905432
0.0397303
0.00014869
0.000158602
0.000219525
0.000166083
0.000366315
0.000187534
0.000172886
0.000147268
0.000149882
0.000181662
0.000166751
0.000147801
0.000204143
0.000146073
0.000149147
0.000149096
0.000146905
0.000147564
0.000147834
0.000210506
0.000155297
0.000151595
0.000164675
0.000146351
0.000147614
0.000163181
0.0421264
0.000167124
0.000171032
0.0619522
0.000149517
0.0527261
0.000157467
0.0144054
0.000166116
0.000149283
0.000149291
0.000153282
0.0444367
0.000283046
0.000166016
0.000175835
0.000145951
0.000147655
0.000149619
0.000149278
0.0191365
0.000156564
0.000148612
0.000196523
0.000183393
0.0664581
0.000151072
0.0762841
0.000163361
0.000169397
0.000166626
0.00019126
0.000187358
0.000149144
0.0418823
0.000820119
0.000159934
0.039747
0.000172472
0.000149801
0.000149735
0.000147593
0.000150935
0.000154999
0.0199289
0.000175324
0.000147031
0.000159571
0.000147893
0.025215
0.000458575
0.000147587
0.0228461
0.000147803
0.000147106
0.000149283
0.0409076
0.0503974
0.000176012
0.000157292
0.000147542
0.000208427
0.000149497
0.000159926
0.000148505
0.000148742
0.000148337
0.069825
0.000150333
0.000160726
0.000157261
0.000149354
0.000185303
0.000182128
0.000168495
0.000154081
0.000153937
0.0342021
0.0651464
0.000148718
0.00014692
0.00014871
0.000150014
0.0242463
0.0679181
0.000197609
0.00015438
0.000146544
0.0744566
0.0951318
0.000149005
0.034626
0.000146057
0.000178328
0.0115913
0.00014624
0.016544
0.0491614
0.000181642
0.0220027
0.0723558
0.000147204
0.00015009
0.000296717
0.0361365
0.000149806
0.0285389
0.000154874
0.000147537
0.000149808
0.000152843
0.000169381
0.00015558
0.000182768
0.0221169
0.000179174
0.000158517
0.000148392
0.0001682
0.000330751
0.000146801
0.00044181
0.000166902
0.000149415
0.000153216
0.000149572
0.00014887
0.000157534
0.000316065
0.000151001
0.000146464
0.0272804
0.0399831
0.000184441
0.000149716
0.000171717
0.00014761
0.000147361
0.0657609
0.0600534
0.000147301
0.000144443
0.0530534
0.0243956
0.000167265
0.000149034
0.0783272
0.000151522
0.00014737
0.000155208
0.000147377
0.00014589
0.000145302
0.0829028
0.00310561
0.000154663
0.000260197
0.000173702
0.0380601
0.070078
0.04045
0.000208174
0.000147868
0.00014955
0.000150205
0.000147793
0.000166689
0.000147057
0.000169446
0.000160532
0.0760691
0.00014822
0.031996
0.000159075
0.0415505
0.000147326
0.000271535
0.000164283
0.00021493
0.000205078
0.00016029
0.000145277
0.0705813
0.00017409
0.000285254
0.000145655
0.0743072
0.00014809
0.0381713
0.00020951
0.000161221
0.000147566
0.000148477
0.0464944
0.0137072
0.000165435
0.000146392
0.0686116
0.000171398
0.000171296
0.0990484
0.000167106
0.000147749
0.0903358
0.000147613
0.000166903
0.000146603
0.0597118
0.000146598
0.000154392
0.000237587
0.000486623
0.000149429
0.000173426
0.000155716
0.000167226
0.000147042
0.00019276
0.000151376
0.00016622
0.000147837
0.000147744
0.0325545
0.000161843
0.0407744
0.0981289
0.0215098
0.00015018
0.000146664
0.000146998
0.000156456
0.000167364
0.000162832
0.0190422
0.00015298
0.0368706
0.000161887
0.000149861
0.000148035
0.000184399
0.000938733
0.0139395
0.000147571
0.0333775
0.000146916
0.0602467
0.00026173
0.000173744
0.000147879
0.000146902
0.00016712
0.000711812
0.00015359
0.00014977
0.000154866
0.000171485
0.000152446
0.000244279
0.03206
0.00048229
0.000148955
0.000157447
0.0755545
0.000149174
0.000164235
0.00014739
0.000192868
0.000160322
0.000147648
0.000162218
0.00017541
0.000148901
0.063955
0.000147559
0.00019392
0.00018166
0.00205962
0.000183604
0.000149029
0.000148926
0.0215484
0.000148742
0.000161531
0.000186875
0.000152937
0.000145368
0.0792112
0.000153099
0.000191196
0.000153923
0.00016547
0.000149848
0.000188259
0.000153594
0.000154728
0.0659998
0.000223092
0.0001485
0.000149802
0.000175481
0.0415621
0.00029451
0.000208553
0.000163682
0.000147678
0.000146822
0.0416179
0.000148829
0.0679409
0.000175357
0.0699866
0.000148596
0.000146086
0.000146492
0.00016865
0.000180316
0.000407651
0.0408507
0.000141557
0.000148461
0.000145126
0.000335639
0.000151069
0.000184737
0.000152039
0.000167375
0.000163829
0.000147613
0.000145083
0.000183306
0.000145634
0.000163858
0.000165015
0.028305
0.0543023
0.000173303
0.0402479
0.000147042
0.000146642
0.000148372
0.000176005
0.000164652
0.000168226
0.000178727
0.0234176
0.000161025
0.000174632
0.000147435
0.000151413
0.0358041
0.000148311
0.000182905
0.00014439
0.000147221
0.0567967
0.00018389
0.000147359
0.00017627
0.000196642
0.0416656
0.0714575
0.000154407
0.000187027
0.000177311
0.0334928
0.000148502
0.0619987
0.0325174
0.000151727
0.000159196
0.000145609
0.000190826
0.000147737
0.000147803
0.0417204
0.000149097
0.000145392
0.000192601
0.000183694
0.0392878
0.0391619
0.000415985
0.0306226
0.000146892
0.000147576
0.000147362
0.000149307
0.0911826
0.000148633
0.0317382
0.000151034
0.0368439
0.000152666
0.000148682
0.000145665
0.000149013
0.000157492
0.000148977
0.000145238
0.000635931
0.000146793
0.000179206
0.000149619
0.0192148
0.000152701
0.000148409
0.000148921
0.000173717
0.000147219
0.000146212
0.000148495
0.000149376
0.000156543
0.000147252
0.000151864
0.000157398
0.0872073
0.0420337
0.0303909
0.0301801
0.000146398
0.000147878
0.00014768
0.000144106
0.000147604
0.000146207
0.0015697
0.000147181
0.000149647
0.000148334
0.000148193
0.000148184
0.0480713
0.000155741
0.000147691
0.0398931
0.00017357
0.000145868
0.040929
0.0206037
0.000148007
0.00019923
0.000208105
0.00014843
0.000161688
0.000152075
0.000144878
0.000156134
0.000150597
0.000175107
0.00014793
0.000149614
0.000146307
0.00445832
0.000163053
0.000161923
0.000148068
0.000149746
0.0377291
0.000153987
0.00014812
0.000152877
0.000153683
0.00014965
0.000178262
0.0224735
0.000295778
0.0398231
0.000177786
0.000160311
0.000149708
0.0504112
0.000186027
0.000150518
0.000175893
0.000149949
0.000147461
0.000149607
0.0744196
0.0001629
0.000147872
0.000148186
0.000203915
0.000146158
0.000192502
0.000147931
0.000265369
0.000201455
0.085337
0.000148418
0.00015104
0.000157588
0.000159809
0.000149256
0.00016062
0.000167134
0.0883218
0.000149728
0.000191943
0.0747649
0.000145497
0.0406281
0.000161576
0.000185006
0.000178741
0.000147574
0.000156666
0.000170721
0.000145685
0.000155607
0.000144816
0.0946267
0.000496815
0.000158545
0.000146669
0.000185663
0.000165974
0.000336858
0.000183415
0.000151777
0.000161467
0.000147645
0.000147766
0.000170495
0.000163253
0.0341137
0.000146763
0.000191294
0.000154915
0.0878941
0.000189997
0.053719
0.000145103
0.000150583
0.00030578
0.000280038
0.000161183
0.0316686
0.000152433
0.000180687
0.000147265
0.000147209
0.0283505
0.0292018
0.000157124
0.000148528
0.000166773
0.000301118
0.000175461
0.000165583
0.000146436
0.000147981
0.000145899
0.000323898
0.0281014
0.000146863
0.000173867
0.0513911
0.000175976
0.000189823
0.032228
0.0153134
0.0615709
0.000147037
0.000152132
0.0358992
0.00014717
0.000162644
0.000254357
0.0441947
0.000151314
0.000156882
0.0215876
0.000205577
0.00028317
0.0451307
0.039486
0.0383842
0.000148641
0.000145545
0.000147841
0.000151282
0.0115488
0.000163212
0.000186867
0.000185995
0.000164052
0.00014836
0.0198415
0.000146986
0.000163973
0.000147329
0.000160806
0.0143682
0.002143
0.000148342
0.000145529
0.000174359
0.0986978
0.00018802
0.0414528
0.000161592
0.000148502
0.000166648
0.000144412
0.000168213
0.000157571
0.000147609
0.0998229
0.00017453
0.000191682
0.000167973
0.000149175
0.000145918
0.00635386
0.000153382
0.000145522
0.000148876
0.000149677
0.00014564
0.00876493
0.0834312
0.0329424
0.000261646
0.0357695
0.000155286
0.000147625
0.074684
0.000155331
0.000203355
0.0787529
0.000146936
0.0472649
0.0291851
0.000171372
0.000158423
0.000209487
0.000151158
0.000294398
0.000162455
0.0287431
0.000146842
0.000150665
0.000161611
0.000447147
0.000184679
0.000165553
0.0279268
0.0624507
0.000165549
0.000199884
0.000413869
0.000153851
0.000188489
0.00837494
0.000160742
0.000164733
0.0577565
0.000166453
0.000160356
0.000148591
0.00016794
0.000170114
0.000168109
0.000148493
0.0824657
0.000174028
0.0300081
0.0234608
0.0318774
0.000161114
0.000269261
0.0801738
0.000146803
0.0262633
0.0957195
0.0908202
0.000156597
0.000152392
0.0418887
0.0711149
0.000145699
0.000178504
0.000146156
0.000147255
0.000467321
0.000153582
0.0298302
0.0413421
0.0334406
0.0895034
0.000145262
0.00016695
0.000148226
0.000146781
0.000170327
0.000175514
0.000158355
0.000383944
0.0323047
0.000149803
0.000158109
0.000245715
0.00015348
0.00019056
0.000161921
0.0367901
0.0373817
0.00029834
0.0794713
0.0173199
0.0304694
0.0380656
0.0346573
0.000167169
0.000153411
0.000172219
0.000171894
0.050281
0.090057
0.000148784
0.000155685
0.0369539
0.0279306
0.000156442
0.0306146
0.000147786
0.000217435
0.0641388
0.0965926
0.000147333
0.0309168
0.000260475
0.00015591
0.000159659
0.0492983
0.0432893
0.0259502
0.0350987
0.000148197
0.0291193
0.033891
0.000160537
0.000184134
0.000169289
0.000146017
0.000157601
0.0251195
0.0422235
0.000154623
0.000149068
0.0393675
0.000167508
0.0338678
0.000172777
0.000270724
0.0390003
0.000147854
0.0793863
0.000149891
0.000165262
0.000148419
0.000148375
0.000145778
0.000162653
0.000182596
0.000144477
0.00759549
0.000189915
0.0708776
0.0442815
0.0296912
0.000147232
0.0604814
0.000271934
0.0314664
0.000159699
0.000147619
0.0031013
0.00021058
0.0421252
0.000163177
0.00015142
0.000145663
0.0102125
0.0164187
0.000159089
0.0054173
0.000157142
0.000148847
0.0374757
0.000162913
0.0240151
0.000148157
0.000164766
0.0316115
0.0278897
0.0366123
0.000441364
0.0372043
0.0334409
0.0592545
0.000148227
0.0193877
0.0001634
0.000147067
0.000145296
0.000147758
0.0182742
0.000162255
0.0378095
0.0361551
0.000172342
0.0001736
0.000197892
0.0298239
0.000181054
0.0509009
0.030287
0.000250354
0.000168362
0.000146238
0.0339536
0.000163926
0.000206893
0.0368751
0.0425423
0.000276878
0.000148519
0.000153866
0.000162245
0.000148281
0.000148383
0.000158065
0.0386123
0.000163538
0.000158015
0.0353511
0.000190313
0.000186753
0.00134406
0.0401908
0.00020478
0.0421077
0.0299042
0.0314219
0.00016476
0.000163119
0.000148601
0.000252581
0.000178459
0.000202648
0.000164425
0.000163977
0.000144095
0.000199435
0.0797204
0.000160247
0.00014503
0.000152665
0.0286759
0.000147034
0.000148077
0.000170502
0.0347019
0.000163089
0.000163349
0.000176181
0.000156978
0.000180397
0.000147387
0.000147797
0.000164893
0.00019332
0.000149012
0.000160114
0.000180071
0.0815389
0.000148666
0.0749944
0.000148228
0.0396574
0.000151079
0.000151303
0.00014488
0.000190436
0.000169619
0.0131455
0.0461527
0.000164968
0.000148997
0.000148823
0.0541254
0.0165378
0.000148165
0.000187892
0.0357767
0.000169355
0.000166149
0.000144119
0.000150222
0.000147554
0.0382942
0.000166982
0.000148225
0.0519932
0.000149372
0.000163736
0.000179673
0.000146031
0.000168965
0.000171076
0.0480244
0.000149472
0.000154327
0.000151293
0.00016946
0.000143885
0.000147313
0.0809722
0.000207996
0.000175786
0.000149435
0.040064
0.000149361
0.000149392
0.000147547
0.000203453
0.0525173
0.000153045
0.0754417
0.00262381
0.000170575
0.0266129
0.0446369
0.034862
0.0706593
0.000178419
0.000184587
0.000197711
0.000167982
0.000147499
0.000156688
0.00016325
0.0519008
0.000148434
0.0438135
0.000147777
0.000191853
0.000175836
0.000150748
0.000158605
0.0309728
0.0197528
0.0198857
0.0320279
0.00014659
0.000188783
0.0370798
0.000157898
0.0825741
0.00016055
0.000169219
0.0392774
0.000170459
0.000147818
0.000181897
0.000185616
0.000147657
0.0349444
0.000175091
0.000145888
0.000149556
0.000148701
0.000147939
0.0416202
0.000149095
0.000168018
0.000148045
0.000150528
0.000157616
0.000147618
0.0391972
0.000178554
0.000148793
0.000145584
0.000184566
0.000152691
0.000163294
0.0118018
0.0306405
0.000166527
0.000182864
0.000160573
0.00014521
0.000191914
0.0536711
0.000161835
0.0360088
0.0879263
0.00016604
0.000162948
0.000162636
0.000173575
0.000160432
0.0507813
0.000148663
0.000148919
0.00014816
0.0416189
0.0702972
0.000159838
0.000205529
0.000148044
0.00016028
0.00020098
0.000207398
0.000147682
0.000167815
0.0386343
0.000167461
0.000147854
0.000147791
0.0394287
0.0222781
0.000147594
0.000178172
0.000165269
0.000200318
0.00836615
0.000146962
0.0249949
0.000162779
0.000148016
0.0723121
0.000200958
0.000147527
0.000148999
0.000181961
0.000146821
0.000148183
0.000141298
0.000160825
0.000161681
0.0234731
0.000155645
0.000176052
0.0387065
0.000147768
0.0888702
0.0407376
0.000155529
0.000183685
0.000205187
0.00014812
0.000196928
0.000144276
0.0651694
0.000259954
0.000147911
0.0884846
0.0666641
0.000147863
0.000147889
0.000197769
0.000173121
0.0319923
0.0317471
0.000148526
0.000166711
0.0273662
0.000151479
0.000175464
0.00018576
0.000159097
0.0750038
0.00012184
0.000153674
0.00020149
0.0460634
0.000161374
0.107309
0.000147258
0.000144824
0.000149761
0.000160796
0.0722574
0.000148302
0.00016856
0.0102988
0.0300415
0.000149397
0.000158689
0.000283436
0.0408093
0.000149449
0.0867846
0.000164303
0.000175538
0.00016574
0.000151184
0.000156601
0.000148002
0.000147701
0.0834455
0.000147381
0.000162574
0.000147813
0.0446058
0.000153662
0.000155198
0.000145193
0.000153577
0.000147785
0.0001671
0.0176258
0.0478753
0.000163283
0.000160811
0.000147619
0.000157473
0.000172232
0.0650802
0.0344812
0.000146694
0.000131152
0.000148066
0.00036333
0.0360084
0.0243505
0.000146691
0.000171595
0.000181804
0.04967
0.000177672
0.000147184
0.0696904
0.000182813
0.000159491
0.0862236
0.00014966
0.000148248
0.000160628
0.0609391
0.000147751
0.0868061
0.000158415
0.00123739
0.000167429
0.000153851
0.0653615
0.000156959
0.00014855
0.000211102
0.000148055
0.000330497
0.0841597
0.000214682
0.000155269
0.000173339
0.000147832
0.000178491
0.000166939
0.0889259
0.000148303
0.00014633
0.000155793
0.000158674
0.000172296
0.0504543
0.104092
0.000158945
0.000177865
0.000146855
0.107123
0.0849596
0.000181943
0.00014769
0.000149708
0.000153241
0.0734355
0.000148472
0.000158088
0.0689952
0.00018694
0.000148139
0.000180236
0.000184215
0.000147847
0.000154392
0.0001816
0.000276898
0.000169847
0.000165455
0.041579
0.040084
0.0270146
0.000155492
0.000148667
0.000153487
0.000152814
0.000185039
0.000173964
0.000160237
0.000184051
0.0474543
0.000152151
0.000147881
0.0284852
0.000183189
0.0322393
0.000159721
0.000154664
0.000151688
0.00015181
0.000146788
0.0001475
0.00017209
0.000145328
0.000150501
0.00014995
0.000150788
0.000151818
0.000147642
0.000159988
0.000171423
0.000149134
0.000147615
0.000148693
0.000150156
0.000149304
0.000181406
0.000148263
0.000151267
0.000251069
0.000146873
0.000151307
0.000149071
0.000159388
0.0280926
0.0503576
0.0288788
0.0575426
0.0775036
0.000198807
0.000147112
0.000171244
0.000148253
0.00461878
0.000153047
0.000156972
0.000148858
0.000173927
0.000147648
0.000162568
0.000146481
0.069385
0.000188983
0.000148414
0.0426172
0.0723697
0.00014956
0.00020134
0.000147618
0.000145472
0.00969567
0.000149273
0.000173311
0.000194737
0.000148594
0.000145215
0.00017558
0.0353985
0.000153161
0.000153087
0.0324736
0.000147555
0.0282164
0.000172182
0.0383443
0.000145763
0.0337099
0.000147709
0.000148771
0.000191943
0.000175722
0.0318964
0.0344007
0.0169565
0.0731661
4.9595e-05
0.000182048
0.000148172
0.000178203
0.000149119
0.000146651
0.000168025
0.00014733
0.000147814
0.000145464
0.000145201
0.000181324
0.100521
0.0334214
0.00020213
0.0407526
0.00015324
0.000156842
0.000151824
0.000150324
0.000182095
0.000148321
0.000147726
0.000146707
0.000153445
0.000150868
0.000175195
0.000195017
0.000168521
0.000148631
0.000163113
0.000163392
0.0329273
0.0281678
0.000154662
0.000169265
0.00014848
0.0733108
0.0424931
0.000147537
0.000147399
0.000153732
0.000149364
0.0411101
0.00023824
0.0351298
0.000148641
0.106686
0.000148546
0.0288213
0.00017195
0.000146556
0.000157545
0.0883942
0.000154838
0.000157686
0.000163321
0.000178079
0.0668478
0.000147945
0.000147276
0.000156021
0.000391208
0.000147351
0.0328248
0.104453
0.000148005
0.000144033
0.0124518
0.000186129
0.000147709
0.000638524
0.00740762
0.0663227
0.0905961
0.000160519
0.000278659
0.000148365
0.0297763
0.0751871
0.000209308
0.000186094
0.000152754
0.0280675
0.000153949
0.000146993
0.000144092
0.00247006
0.000145524
0.0798778
0.000151626
0.000148707
0.00015336
0.0357911
0.000152897
0.000150628
0.000148359
0.0869107
0.0227818
0.0749064
0.0409616
0.000174804
0.000147773
0.000152194
0.00559661
0.000169518
0.000147844
0.00017724
0.00108933
0.0936983
0.000148408
0.0254323
0.03135
0.000172155
0.000148286
0.000152951
0.00014766
0.000147151
0.000147621
0.000148124
0.000150028
0.000168399
0.000148544
0.000205636
0.000149846
0.000150218
0.0224654
0.000188581
0.000153903
0.000150521
0.0308902
0.000145509
0.000156754
0.000155324
0.000146588
0.0776876
0.00016489
0.0001504
0.000161135
0.000148099
0.000158741
0.000148398
0.000200661
0.000146709
0.000147633
0.0827542
0.000154076
0.00015844
0.000164491
0.000151723
0.000190148
0.000143885
0.000148492
0.000150067
0.0469208
0.000154279
0.000147656
0.000302064
0.000148131
0.000145489
0.000147055
0.000188742
0.000157847
0.000210213
0.000158125
0.000157041
0.000162266
0.000152819
0.000156217
0.000161956
0.0310733
0.00014899
0.000157284
0.00014723
0.000181821
0.000205104
0.000147188
0.000163423
0.0740326
0.000156587
0.000145236
0.0519916
0.000154977
0.000167573
0.0273824
0.000161454
0.000147566
0.000158967
0.000147645
0.000155739
0.000147216
0.000151505
0.0001551
0.000147633
0.000148318
0.000157436
0.000148697
0.000180755
0.000148086
0.000151687
0.000147816
0.00016429
0.0331633
0.00014857
0.000148628
0.000168173
0.000153053
0.000148004
0.00603973
0.0508039
0.0251794
0.000148459
0.000153627
0.000169416
0.000149595
0.000148744
0.000165679
0.000176289
0.000144702
0.000163153
0.000148108
0.000147155
0.000147334
0.000144738
0.00015188
0.000167206
0.000165396
0.000159069
0.0352026
0.0001538
0.000156582
0.000146828
0.0592711
0.0654774
0.0708297
0.000148343
0.000170473
0.000158009
0.000148182
0.000148706
0.000160798
0.0366075
0.0289795
0.000148789
0.000160216