/*--------------------------------*- C++ -*----------------------------------*\
| =========                 |                                                 |
| \\      /  F ield         | OpenFOAM: The Open Source CFD Toolbox           |
|  \\    /   O peration     | Version:  v2012                                 |
|   \\  /    A nd           | Website:  www.openfoam.com                      |
|    \\/     M anipulation  |                                                 |
\*---------------------------------------------------------------------------*/
FoamFile
{
    version     2.0;
    format      ascii;
    class       volVectorField;
    location    "500";
    object      U;
}
// * * * * * * * * * * * * * * * * * * * * * * * * * * * * * * * * * * * * * //

dimensions      [0 1 -1 0 0 0 0];


internalField   nonuniform List<vector> 
9793
(
(0.958246 -0.0130453 1.46442e-20)
(-0.296146 -0.0189227 3.50923e-20)
(0.991185 -0.00740411 1.18023e-20)
(-0.0346703 0.150473 8.96089e-20)
(0.999932 1.69173e-05 0)
(1.21338 -0.147629 3.63974e-22)
(1.06249 -0.258432 -2.23455e-20)
(-0.116371 0.0422066 -2.62163e-20)
(1.0207 -0.0456666 3.2558e-21)
(-0.113702 -0.0238599 1.32263e-19)
(0.999907 -0.00130067 9.24505e-21)
(0.999879 -0.00146373 1.08892e-20)
(1.00187 -0.0107609 1.49463e-20)
(-0.00475636 0.0464975 1.25476e-19)
(1.02169 -0.0271277 -6.40406e-21)
(1.09741 -0.00605014 1.81594e-20)
(1.13307 -0.130761 -4.4064e-20)
(0.993403 -0.0100057 0)
(-0.0761795 -0.0312582 0)
(1.02033 -0.00563401 5.43715e-22)
(1.02724 -0.0113972 0)
(0.999998 -1.50558e-05 0)
(-0.035829 0.189782 3.25269e-20)
(-0.109537 0.0408484 6.27025e-20)
(0.0293521 0.0407976 -1.40018e-19)
(0.911093 -0.050754 -5.22809e-20)
(0.999635 -0.00351268 5.47604e-21)
(1.00001 -0.000369755 0)
(1.02016 -0.00596934 6.74196e-22)
(1.12314 -0.197336 -4.16075e-20)
(-0.233102 0.00460446 0)
(1.24688 -0.179109 -4.39447e-20)
(0.99582 -0.00409311 0)
(0.996352 -0.0104341 -4.4149e-21)
(1.00612 -0.00064989 1.00771e-22)
(1.09913 -0.0608569 3.45931e-20)
(1.08451 -0.0128337 3.63607e-21)
(0.91175 0.0120667 -2.88706e-20)
(-0.142309 0.0406084 0)
(1.07527 -0.104594 0)
(1.11582 -0.192125 3.43982e-20)
(0.470992 -0.0268455 -4.98593e-20)
(-0.103233 -0.0128472 1.07934e-19)
(1.00001 -0.00026594 4.75732e-22)
(0.991681 -0.000666408 -9.34349e-21)
(0.996277 0.000139948 -3.85731e-21)
(-0.163269 0.0311972 0)
(0.999998 -0.000133882 -9.19377e-21)
(1.03816 -0.00875499 -4.43897e-21)
(0.993185 -0.00945249 0)
(1.10088 -0.0572644 -2.05178e-22)
(1.0066 -0.000803023 9.37068e-21)
(1.11508 -0.0913766 -1.41712e-20)
(0.999975 -0.000272738 -9.02877e-21)
(0.884313 -0.109972 0)
(-0.0411674 0.142752 -2.81473e-20)
(1.00228 -0.00980669 0)
(1.20124 -0.0763303 -3.81282e-20)
(1.03796 -0.00973653 1.54355e-21)
(1 -6.91131e-05 8.71669e-21)
(0.894621 -0.00581391 7.42404e-20)
(0.795455 -0.303071 -4.99068e-20)
(0.992973 -0.00736792 0)
(1.13246 -0.0324609 -1.01654e-20)
(1.00313 -0.00151993 3.34025e-21)
(1.02008 -0.0436834 -6.0625e-21)
(-0.106627 0.0153067 1.03893e-19)
(1.05746 -0.0644816 0)
(1.08799 -0.00842595 0)
(-0.0646198 -0.0221868 -5.86555e-20)
(0.976441 -0.00978364 1.61617e-20)
(0.58211 0.0657334 -7.1594e-20)
(-0.138377 0.0430336 -9.32144e-22)
(0.396244 -0.0330642 -1.61459e-20)
(-0.0371316 -0.0202302 4.34536e-20)
(0.999974 -0.000464668 0)
(0.783733 -0.10999 6.85087e-20)
(0.383252 -0.020182 1.98589e-19)
(0.993949 -0.0041026 0)
(0.999968 -0.000128453 6.34867e-22)
(0.768392 -0.111386 -9.06532e-20)
(-0.0812717 -0.0326875 -4.43633e-20)
(1.13139 -0.123801 0)
(0.970489 -0.0727976 4.53515e-20)
(1.08803 -0.0115813 1.6673e-20)
(1.18314 -0.236723 2.58721e-21)
(0.999943 -0.000127675 0)
(1.19137 -0.0305056 -1.15474e-20)
(-0.147206 0.0422804 -5.53392e-20)
(0.783351 -0.284285 -3.3123e-21)
(-0.045843 0.159071 0)
(1.25199 -0.27694 5.72225e-20)
(1.251 -0.28629 -5.67616e-21)
(1.06711 -0.154875 0)
(-0.0987242 -0.0207498 -4.48953e-20)
(0.99488 -0.0139018 1.03607e-20)
(-0.0142732 -0.0207193 -4.64119e-20)
(1.11612 -0.143759 5.00799e-20)
(1.03744 -0.0834806 -4.89619e-22)
(0.999961 -1.90896e-05 0)
(-0.100215 0.0867809 3.11997e-20)
(1.11066 -0.0897046 0)
(-0.129511 -0.173903 -6.90191e-20)
(0.99227 -0.000655706 1.42452e-20)
(-0.100148 -0.0189171 0)
(0.169468 0.0141888 1.03327e-20)
(0.522942 -0.0112745 0)
(1.00498 -0.00844278 -1.03438e-20)
(0.99398 -0.00364187 0)
(0.999988 -8.59772e-06 8.87658e-21)
(1.00005 -0.000747494 2.9949e-22)
(-0.0402701 0.177908 1.49503e-19)
(0.0941966 -0.0619142 -2.66941e-19)
(-0.227626 -8.07828e-05 -1.45505e-20)
(0.977246 -0.0104295 -2.1686e-20)
(0.998714 -0.00199592 -6.32587e-21)
(1.0775 0.00790811 1.01062e-20)
(0.996555 -0.000739545 -8.97477e-21)
(-0.0539068 0.124646 1.12598e-19)
(0.995701 0.000504808 -2.03096e-20)
(-0.13994 -0.0165183 -7.14011e-20)
(1.19696 -0.0348195 -4.93266e-20)
(0.0808083 -0.0192113 -1.11234e-19)
(1.13834 -0.078253 0)
(1.08435 -0.0161201 -1.52597e-20)
(0.995962 0.000745636 1.92432e-20)
(1.13344 -0.145693 -2.77152e-20)
(-0.219361 0.00549195 0)
(1.27475 -0.0229289 -1.0972e-19)
(1.27349 -0.0153028 9.87902e-20)
(1.07257 -0.0363305 0)
(1.00717 -0.0170403 5.88663e-21)
(0.959999 -0.014296 -2.50294e-22)
(1.05259 -0.0568548 2.98026e-21)
(1.09174 -0.0607329 0)
(1.12169 -0.276731 -3.4634e-20)
(1.20971 -0.123861 5.54258e-20)
(1.07884 0.00533055 3.34553e-23)
(0.999993 -0.000351708 0)
(1.15003 -0.126837 0)
(-0.0849442 -0.0354558 -4.5028e-20)
(1.09546 -0.0616087 -1.83902e-20)
(0.981742 -0.0199519 0)
(1.17455 -0.0331007 0)
(-0.154042 0.0277636 8.28353e-20)
(1.04439 -0.438799 -7.5861e-20)
(0.996058 0.00139978 5.16655e-21)
(-0.0208501 -0.0172528 1.31489e-19)
(1.0068 -0.0174502 0)
(0.995826 0.00115332 -2.68926e-21)
(0.998675 -0.00397659 5.72554e-21)
(0.0992629 -0.0551894 5.92658e-20)
(1.03582 -0.0799288 -9.80043e-22)
(0.999561 -0.00348499 0)
(0.984171 -0.00272576 0)
(1.25203 -0.309553 5.2045e-20)
(1.13951 -0.131562 7.18568e-20)
(0.992974 -0.00801785 6.64426e-22)
(1.26587 -0.180282 0)
(0.982468 -0.0113227 0)
(1.18553 -0.0344122 0)
(1.07374 -0.0391436 0)
(1.02685 -0.011992 2.26662e-22)
(0.55476 -0.373075 1.0777e-19)
(1.04722 -0.0226902 -5.76314e-21)
(0.573395 -0.0512753 -3.49342e-21)
(-0.134452 -0.206656 8.4879e-20)
(1.04962 -0.0282419 -7.25557e-21)
(1.00506 -0.00774856 1.2536e-20)
(0.999914 -0.000974017 8.96317e-21)
(0.980781 -0.0192908 -1.40341e-20)
(-0.177467 -0.00877716 -2.51781e-19)
(0.317506 -0.181711 0)
(-0.209476 0.00689472 -7.2807e-20)
(1.00215 -0.0112442 1.65834e-20)
(1.21092 -0.143142 -4.95975e-21)
(0.957993 -0.352159 3.75355e-21)
(0.520426 -0.464219 0)
(0.993385 -0.005077 0)
(1.06097 -0.059543 4.39161e-21)
(-0.0753234 -0.019301 0)
(-0.153024 0.0262225 -9.79987e-20)
(1.20337 -0.0325925 4.13697e-20)
(0.995925 -4.37617e-05 -1.35992e-20)
(0.997268 -1.51731e-05 8.52857e-21)
(1.00526 -0.00820233 -8.79909e-21)
(0.137613 -0.0159315 8.67556e-20)
(-0.149857 0.0426783 -6.22821e-20)
(0.760772 -0.381848 0)
(-0.122061 -0.153189 8.36312e-20)
(1.01786 -0.0409748 -3.68183e-21)
(-0.111992 0.36967 7.65044e-20)
(0.387424 -0.101699 -9.39132e-20)
(0.907507 -0.0112517 -2.04528e-20)
(1.04094 -0.00553279 4.46925e-21)
(0.95328 -0.049277 -4.22372e-21)
(0.177705 0.147485 2.30002e-19)
(1.0175 -0.005883 8.4834e-23)
(0.993102 -0.0104707 0)
(0.999654 -0.000440023 1.22678e-20)
(0.973679 -0.00992152 0)
(1.02998 -0.0103081 2.94907e-22)
(1.10743 -0.0534479 0)
(1.08677 -0.033583 -8.96208e-21)
(-0.0753595 0.0471435 0)
(0.980714 -0.00110948 0)
(1.06763 -0.0944935 1.66766e-20)
(1.05134 -0.026885 4.67669e-21)
(0.964708 -0.027386 -2.21099e-20)
(0.748138 -0.508267 1.35066e-20)
(1.14439 -0.125742 3.07201e-20)
(-0.08571 -0.0359414 8.87635e-20)
(1.01549 -0.00557875 -2.99239e-22)
(-0.0744894 -0.0230555 3.54435e-20)
(0.96587 -0.0722407 -2.2269e-20)
(1.14153 0.0372262 0)
(1.02156 -0.0282858 0)
(1.12764 -0.268724 -1.9773e-20)
(0.998851 -0.00172736 0)
(0.731797 -0.0256282 0)
(1.1216 -0.146486 -8.69528e-20)
(1.02982 -0.0109294 -4.91678e-22)
(0.377618 0.508353 0)
(-0.221811 -0.0283197 1.20443e-19)
(1.06073 -0.151905 0)
(0.993907 -0.0158287 1.10993e-20)
(1.15417 -0.082481 0)
(-0.194532 -0.0889518 1.73285e-19)
(0.744461 -0.0546294 3.17223e-20)
(0.740641 -0.0649769 -1.07245e-21)
(-0.0819533 0.0824345 8.06059e-20)
(1.23398 -0.0269695 -5.48931e-20)
(1.13838 0.0319668 -1.1784e-20)
(1.13703 -0.0320513 -2.5966e-20)
(0.395956 -0.0787487 1.65276e-19)
(1.03309 -0.00379099 0)
(-0.157763 0.228497 1.20914e-19)
(-0.212123 -0.0010039 0)
(1.01713 -0.00571677 0)
(0.999759 -9.76797e-05 3.2702e-22)
(0.551992 -0.0292355 9.57581e-20)
(0.986018 -0.0148708 -4.10255e-21)
(1.00004 -0.000687808 0)
(1.21463 -0.0678469 -2.08174e-20)
(1.21706 -0.078258 9.30235e-20)
(1.01807 -0.0430763 3.50862e-21)
(1.06368 -0.0589149 1.87816e-20)
(1.07131 -0.0970086 -1.22903e-20)
(0.920498 -0.16894 0)
(1.0694 -0.0518121 -1.40363e-20)
(0.993423 -0.00455077 0)
(1.03327 -0.187912 -5.66221e-21)
(-0.0333668 0.0525238 -1.65927e-19)
(1.02876 -0.0109501 5.2089e-23)
(-0.212858 -0.00287919 2.9688e-20)
(0.999973 -0.000336553 2.72088e-21)
(0.999799 -0.00177792 4.86405e-21)
(1.01354 -0.00107532 -4.21281e-21)
(-0.0448298 0.132812 -2.75345e-20)
(0.993234 0.000890535 -1.20565e-20)
(1.23352 -0.300671 3.18185e-20)
(-0.0931434 -0.0138169 1.53466e-20)
(1.00042 -0.00281352 0)
(0.999001 -0.00170226 -6.47093e-21)
(1.15799 -0.209302 -4.72334e-20)
(1.01355 -0.000680128 -3.43259e-21)
(0.999884 -0.000353629 1.02305e-20)
(1.01429 -0.000630907 1.21105e-23)
(-0.0988999 -0.013367 -3.55116e-20)
(0.55895 -0.339657 -1.56403e-19)
(0.925027 -0.0478425 -1.04728e-21)
(0.839192 -0.475321 -1.73375e-20)
(1.19422 -0.0835237 -3.37729e-20)
(-0.148366 -0.184827 -8.90545e-20)
(-0.049547 0.230956 2.70994e-19)
(1.05043 -0.0304326 1.88276e-21)
(-0.0759984 -0.111448 1.26657e-21)
(0.999978 -0.000348713 9.87366e-21)
(-0.168361 -0.102239 -1.71274e-19)
(0.357537 -1.06004 -5.51227e-21)
(-0.163876 0.0440281 0)
(-0.129304 -0.0162125 0)
(1.22922 -0.0299593 4.623e-20)
(1.07445 -0.0336475 0)
(1.12524 -0.122127 0)
(1.0836 -0.0335185 1.61385e-20)
(1.04213 -0.00370722 -4.51432e-21)
(1.05622 -0.020698 1.60269e-21)
(0.775504 -0.482643 6.45642e-21)
(0.90693 -0.053538 7.08296e-20)
(0.999112 -0.00146127 7.42353e-21)
(1 -8.81097e-05 -7.61953e-21)
(1.01587 -0.00577745 -1.38127e-21)
(1.01894 -0.000117665 1.31827e-21)
(1.02842 -0.0115637 0)
(-0.0518559 0.195947 0)
(1.00506 -0.00970482 9.34626e-21)
(1.01936 -0.0263987 -4.65206e-22)
(1.01873 -0.0002013 0)
(1.00224 -0.0102551 0)
(-0.0224867 0.0137341 8.10115e-20)
(1.05806 -0.430767 6.57244e-20)
(0.686295 0.10123 0)
(0.94296 -0.00899843 3.93264e-20)
(1.17421 -0.0391935 2.36873e-20)
(1.01802 -0.000126861 -7.03326e-22)
(0.839455 0.028152 0)
(0.0144047 -0.0310225 0)
(0.992605 -3.50276e-05 -1.31952e-20)
(-0.0749797 -0.0173471 -1.1312e-20)
(1.12606 -0.0390444 -2.4398e-21)
(0.991269 -0.00112554 2.03096e-20)
(-0.192304 -0.0100561 0)
(0.675583 0.0081575 0)
(0.996133 -0.00414782 1.13707e-21)
(1.03114 -0.194852 0)
(0.372406 1.09536 -1.89119e-20)
(0.970565 -0.0257024 9.20214e-21)
(0.830429 0.0380426 -4.5158e-20)
(1.02069 -0.0261391 7.04189e-21)
(0.965433 -0.0229135 0)
(-0.0749818 -0.117626 5.1531e-20)
(0.872135 -0.162924 0)
(0.996477 -0.00979456 4.02561e-21)
(0.995432 -0.000754278 0)
(0.945751 -0.00862415 0)
(1.01211 -0.363221 -3.24577e-20)
(0.0933103 -0.144631 0)
(0.991173 -0.00669605 0)
(1.00514 -0.00889927 9.62035e-21)
(1.03352 -0.0184754 -6.73758e-23)
(-0.185708 -0.00810191 1.98832e-19)
(-0.0800783 -0.0643777 -6.84192e-20)
(-0.0387677 -0.0165561 0)
(1.03213 -0.00492373 1.67499e-21)
(0.87173 -0.175201 3.46115e-20)
(0.826534 0.0475604 3.02945e-20)
(0.780087 -0.664982 0)
(1.17985 -0.0887846 0)
(1.03362 -0.000847891 -2.40273e-22)
(1.036 -0.00337847 0)
(1.03262 -0.0189264 1.90923e-22)
(1.12393 -0.116218 2.6971e-21)
(0.985721 -0.0376449 1.76251e-20)
(-0.0213402 -0.007973 -3.7257e-20)
(0.997916 -0.00168174 -1.41817e-20)
(1.00947 -0.0167286 1.00007e-20)
(-0.206932 -0.0886651 4.29601e-20)
(-0.0576627 0.193854 0)
(-0.0855536 -0.0205296 7.04944e-20)
(1.01867 -0.00011036 0)
(-0.101345 0.0881511 0)
(0.970266 -0.0839757 -1.32424e-20)
(0.220422 -0.584348 -1.05296e-19)
(-0.0476058 0.00210182 0)
(-0.0756643 0.0804173 0)
(0.983684 -0.0731479 0)
(1.07619 -0.108648 1.86796e-20)
(1.20292 -0.126393 -6.10353e-20)
(-0.0483406 0.156486 0)
(-0.0412887 0.16883 -7.23212e-22)
(0.900175 0.0309265 1.76229e-20)
(1.00002 -0.000404693 0)
(0.920155 -0.0470367 5.21962e-20)
(1.03711 -0.00701082 0)
(1.0058 -0.00964592 0)
(0.985436 -0.0355875 -5.80597e-21)
(0.999729 -0.0040803 1.10879e-20)
(1 -3.53984e-05 0)
(0.0173301 -0.0145231 -5.84403e-20)
(0.999896 -0.00116729 0)
(1.12787 -0.157677 0)
(1.07978 -0.0969122 2.77035e-20)
(0.476794 -0.0164819 5.14443e-20)
(1.03348 -0.000188095 0)
(0.971839 -0.0764697 -2.0913e-20)
(-0.0195811 0.11487 9.83627e-20)
(0.355619 0.022262 0)
(-0.0158136 0.0239688 0)
(1.17427 -0.0884381 -3.27097e-20)
(1.00915 -0.0159119 -1.08102e-20)
(0.98549 -0.0761878 -1.04743e-20)
(0.991757 -0.00762367 2.78913e-21)
(1.12327 -0.354404 0)
(1.01615 -0.00173675 0)
(-0.0899689 -0.0177278 -5.26029e-20)
(0.905212 -0.384423 9.90828e-21)
(1.05203 -0.26234 2.19676e-20)
(-0.0773856 -0.0106337 0)
(-0.0792616 -0.13456 -1.87208e-19)
(1.00033 -0.00217143 2.37596e-21)
(0.995228 -0.016 1.6612e-20)
(1.11153 -0.101093 0)
(1.13144 -0.344496 5.04754e-20)
(0.98121 -0.000257873 5.83702e-21)
(-0.087855 0.00573876 0)
(1.00033 -0.00232278 1.18282e-21)
(0.999495 -0.000878218 0)
(0.478388 -0.77457 4.33381e-20)
(1.01552 -0.00531215 -1.24229e-21)
(1.20015 -0.0822194 3.93377e-20)
(1.03311 -0.00464226 -3.62595e-21)
(-0.123529 -0.213599 0)
(0.998089 -0.0015903 1.64275e-20)
(1.04816 -0.021354 -3.87787e-21)
(-0.211822 -0.0649767 -1.2443e-20)
(0.606214 0.0646758 6.95796e-20)
(1.16383 0.0320607 2.8666e-20)
(0.906451 -0.0157435 6.43187e-20)
(1.00062 -0.00331798 0)
(1.00028 -0.0221356 1.33449e-20)
(0.0461644 -0.0189385 1.35517e-19)
(1.11021 -0.148235 4.15154e-20)
(1.02818 -0.00673435 0)
(0.999515 -2.17465e-05 -1.17184e-20)
(0.875456 -0.107369 4.02241e-20)
(0.833027 0.0658536 0)
(1.16091 0.0375388 2.49855e-20)
(-0.142343 0.0212967 -4.58967e-20)
(0.999575 -0.00040761 -1.1435e-20)
(0.995962 -0.0107744 -1.18921e-23)
(0.621992 -0.41854 0)
(1.00067 -0.00326655 1.86306e-20)
(-0.0398424 0.0593654 9.03701e-20)
(0.563918 -0.461454 -8.66066e-21)
(0.996985 -0.000166095 -9.13948e-21)
(0.996387 -0.00471094 -9.80311e-21)
(1.05462 -0.0215616 1.80907e-22)
(1.00042 -0.00262637 3.14955e-21)
(1.03325 -0.0169534 1.63549e-21)
(-0.107748 0.0809019 -5.6455e-20)
(0.728028 -0.0397066 -3.10518e-20)
(1.01939 -0.181201 -5.77867e-20)
(0.884151 0.0469256 -7.89265e-22)
(1.0717 -0.00739311 1.01429e-20)
(1.1357 -0.0828408 0)
(0.915936 0.0123766 -9.7056e-21)
(-0.0585229 0.126165 -1.04531e-19)
(0.898098 -0.0101188 -7.60399e-20)
(0.999948 5.2001e-05 0)
(1.06042 -0.0635781 -1.10492e-20)
(1.06579 -0.406234 0)
(0.978375 -0.0133417 0)
(0.981418 -0.0112452 0)
(0.974859 -0.00916024 -2.35884e-20)
(1.01585 -0.00168893 0)
(0.998334 -0.0078323 0)
(1.01635 -0.0284024 -2.88396e-21)
(0.996367 -0.000543306 9.27577e-21)
(1.00025 -0.00178413 1.30766e-20)
(0.963702 -0.0492624 2.57878e-20)
(1.0819 -0.0369617 -1.62193e-20)
(1.2166 -0.0636134 -7.42128e-20)
(1.0173 -0.000373678 0)
(0.215516 0.171639 -1.6469e-19)
(0.913519 -0.0399546 -1.79441e-20)
(0.912056 -0.408556 -1.51694e-20)
(-0.0569599 0.248534 -1.97181e-19)
(1.04234 -0.00492631 -4.38289e-21)
(-0.186318 -0.0857232 0)
(1.06362 -0.247128 1.25068e-20)
(1.04097 -0.00671289 -4.10826e-21)
(1.01609 -0.00237864 -1.03595e-22)
(0.982201 -0.0223761 -2.56002e-20)
(-0.116577 -0.0242068 5.65833e-20)
(1.19336 -0.089215 3.51505e-20)
(1.01628 -0.00224025 0)
(0.998475 -0.000411066 0)
(0.999625 -0.000554185 5.7715e-21)
(0.713278 0.156798 0)
(0.947583 -0.372924 -6.35172e-22)
(0.290695 -0.00540846 -8.47421e-20)
(1.00286 -0.00147511 -3.35261e-21)
(0.984379 -0.00191888 -2.18352e-22)
(0.851756 -0.0253265 7.84587e-22)
(-0.165923 0.0283236 0)
(-0.155921 0.0498294 0)
(0.930926 -0.0206151 1.83493e-20)
(1.06854 -0.028567 2.17981e-20)
(-0.220277 -0.0124063 0)
(0.621643 -0.0547599 0)
(1.26139 -0.0766979 9.30619e-21)
(0.972488 -0.0311649 0)
(1.0083 -0.0169466 6.08811e-21)
(-0.0854369 0.0429737 0)
(0.99329 -0.0130834 0)
(0.978671 -0.350829 -6.85264e-21)
(0.440528 -0.0173922 7.57033e-20)
(1.02763 -0.00620832 0)
(0.59123 -0.329957 1.25416e-19)
(1.06494 -0.0875174 2.01213e-21)
(-0.0801804 0.107956 1.46247e-21)
(1.00067 -0.0215143 -1.7759e-20)
(-0.0781527 -0.0162221 -5.38184e-21)
(1.21081 -0.196982 6.11669e-20)
(1.09466 -0.00830553 -2.06086e-20)
(1.18669 -0.210054 0)
(0.994416 -0.0134699 3.00859e-21)
(0.808288 -0.624021 0)
(0.997959 -0.00109037 3.36703e-21)
(0.996415 -0.0160562 6.86438e-21)
(0.999937 -0.000919675 0)
(0.993631 -0.00873379 1.10235e-20)
(-0.0658331 -0.0191772 -9.26101e-20)
(0.994724 -0.0146603 2.46912e-22)
(1.0364 -0.0108315 0)
(0.945108 -0.0156318 -2.86163e-20)
(1.03204 -0.00571105 -1.82636e-22)
(1.00792 -0.0173711 -6.3755e-21)
(1.01599 -0.204167 2.23625e-21)
(0.976373 -0.0569605 -1.83599e-20)
(1.13075 -0.0383781 3.54878e-20)
(1.00143 -0.00411731 5.92996e-21)
(1.0013 -0.00390972 -9.81344e-21)
(-0.0248208 0.104741 -8.33783e-20)
(0.644282 0.067753 5.64025e-20)
(0.933805 -0.0201366 -1.43893e-20)
(-0.214196 -0.000278874 0)
(1.07872 -0.0366496 1.68329e-20)
(0.979653 -0.0392889 0)
(0.993543 0.00132698 8.24243e-21)
(1.03409 -0.0165416 6.99183e-22)
(0.0176317 -0.0216286 2.9507e-22)
(1.03654 -0.00990099 2.30136e-21)
(1.00134 -0.000566563 -1.80338e-21)
(-0.212251 0.0191736 -8.5543e-20)
(0.534238 -0.0364824 1.31014e-19)
(0.931805 -0.172626 -1.21211e-21)
(1.00191 -0.0103167 -1.19041e-20)
(0.999987 -3.80227e-05 0)
(1.03846 -0.036323 7.4701e-22)
(0.999924 -0.000562855 0)
(-0.197955 0.00122039 -3.24613e-20)
(0.968481 -0.0255866 -1.06309e-20)
(-0.0519005 -0.116952 1.07194e-20)
(1.08031 -0.0202308 0)
(0.316446 0.49542 0)
(0.999952 -0.00018409 0)
(-0.166338 0.0193645 -1.35418e-19)
(1.00959 -0.000398202 9.83168e-21)
(1.02625 -0.376063 2.16262e-20)
(0.992294 -0.0120957 7.78429e-21)
(1.20898 0.0105704 -4.4692e-20)
(-0.0234777 0.0555846 -5.51891e-20)
(0.998174 -0.000893325 -1.61156e-20)
(0.264782 -0.00830452 1.16415e-19)
(0.988621 -0.0140559 0)
(1.00013 -0.000103005 8.09274e-21)
(1.0266 -0.010559 0)
(0.00147265 -0.019517 -3.54415e-20)
(-0.0687822 0.0577904 4.31496e-20)
(0.981196 -0.0214361 1.44618e-20)
(1.0683 -0.0900396 -5.07779e-21)
(1.03692 -0.00797931 2.58601e-21)
(-0.215266 -0.0183633 -1.29324e-19)
(1.0178 -0.000456485 0)
(1.04013 -0.186502 6.93604e-21)
(-0.0851271 -0.0156294 8.01353e-20)
(0.909658 0.0159035 6.17262e-20)
(1.00185 -0.00103019 3.82906e-21)
(0.792775 -0.124336 6.90992e-20)
(1.00007 -0.000454862 9.91828e-21)
(1.04039 -0.0365521 -3.19028e-21)
(1.03194 -0.0209268 1.15248e-22)
(1.2129 -0.0573083 4.22498e-20)
(1.00317 -0.00417839 -9.43475e-21)
(-0.230181 -0.0316764 -1.17804e-19)
(1.00113 -0.00380944 5.33569e-22)
(0.988415 -0.0402991 0)
(1.14451 -0.02123 -1.47688e-20)
(0.744907 -0.22061 6.46829e-20)
(0.887402 -0.0469553 -1.04033e-19)
(1.01866 -0.0250825 -5.5074e-22)
(-0.143454 0.0193548 0)
(0.995697 -0.016448 -1.74116e-20)
(0.961403 -0.391766 -6.95073e-23)
(0.98546 -0.00762422 0)
(1.0506 -0.0248448 6.43252e-21)
(0.993635 -0.0136392 -1.06518e-20)
(1.00106 -0.00387265 -5.43658e-22)
(0.99996 -8.25282e-05 9.459e-21)
(0.954814 -0.408872 1.40099e-21)
(1.1404 0.0266374 3.00144e-20)
(0.222462 -0.00662791 -5.79168e-20)
(1.16539 -0.181722 -1.47565e-21)
(0.826311 -0.0440694 2.86335e-20)
(0.893374 -0.126496 1.4079e-20)
(0.537802 -0.748851 -1.41964e-20)
(1.05509 -0.0586697 0)
(-0.187629 0.00974604 0)
(-0.105235 -0.0419284 -1.4915e-19)
(1.02204 -0.394554 1.78145e-20)
(0.861077 -0.181742 -1.41509e-21)
(0.571099 -0.0244909 -3.35761e-20)
(0.991576 -0.368311 1.92587e-20)
(1.04156 -0.0356456 3.0494e-21)
(0.0622876 -0.11855 6.23673e-20)
(1.14443 -0.0165293 -1.16058e-21)
(1.04824 -0.0244101 -4.90242e-21)
(1.03702 -0.406104 -3.94866e-20)
(1.00005 -0.0004038 -1.02303e-20)
(0.813917 -0.496144 2.4275e-20)
(0.939079 -0.161179 -2.61182e-20)
(1.24798 -0.108814 -8.99066e-20)
(0.887311 0.0365772 9.90456e-21)
(-0.0564696 0.179006 0)
(-0.124277 -0.0177241 1.15884e-19)
(1.13936 -0.0241489 -2.33797e-20)
(1.23662 -0.103669 8.56768e-20)
(0.999719 -0.000190666 -1.22729e-20)
(0.970439 -0.491249 1.7842e-20)
(0.945693 0.0164701 0)
(0.992663 -0.0116263 -1.59052e-20)
(0.983527 -0.0347975 -6.41204e-21)
(1.07001 0.00607384 9.75307e-21)
(1.10445 -0.144621 -4.23579e-20)
(-0.0912566 0.0749556 -1.43434e-19)
(0.834211 -0.438714 1.70524e-20)
(-0.143336 0.0177458 0)
(1.04981 -0.0583753 2.60764e-21)
(0.95185 -0.0518191 3.97955e-20)
(-0.0789662 0.10599 2.10961e-20)
(0.42014 0.153667 -8.24086e-20)
(1.0645 -0.0305153 -9.47349e-21)
(1.16581 -0.0938335 -6.80606e-20)
(0.963064 -0.0285708 0)
(0.236536 -0.687766 0)
(-0.201808 -0.0711787 0)
(0.996856 -0.000529807 9.2218e-21)
(0.692009 0.114932 -5.00785e-20)
(0.64556 -0.382526 0)
(-0.119652 -0.0297981 -1.24298e-19)
(1.00326 -0.00134316 -4.10705e-21)
(0.917011 -0.0525945 3.43047e-20)
(0.0459496 -0.0101289 -7.21297e-20)
(1.10447 -0.0497454 0)
(0.195624 -0.0137541 -1.47297e-19)
(1.21114 0.00424762 4.79053e-20)
(0.503014 -0.0154837 -4.93085e-20)
(0.940304 -0.0763647 -2.95555e-20)
(1.05483 -0.0623268 0)
(1.02116 -0.0360463 0)
(0.984802 -0.00336535 8.67012e-21)
(1.22793 -0.0089014 -7.4836e-20)
(0.999994 -0.000117998 1.17678e-21)
(1.13197 0.00083746 0)
(1.18587 -0.169824 3.57418e-20)
(1.02429 -0.271265 0)
(1.00003 -0.000200353 -6.18442e-21)
(1.00009 -0.000829085 0)
(1.07417 -0.00321745 0)
(1.05044 -0.000111855 5.30353e-21)
(1.00669 -0.00120397 -6.42187e-21)
(0.985548 -0.0138615 0)
(1.15834 -0.179884 6.55318e-21)
(-0.105762 -0.0274973 2.74373e-20)
(0.0526538 0.0403624 1.25289e-19)
(1.00001 -0.000247107 0)
(1.10853 -0.356827 -6.51456e-20)
(1.00149 -0.00896753 0)
(-0.105671 -0.0501143 3.81057e-20)
(1.15678 -0.0459311 0)
(0.771292 -0.0754979 0)
(0.834935 0.0561849 2.76805e-20)
(1.20995 -0.19024 0)
(1.01035 -0.00606991 0)
(0.998572 -0.00436334 -1.64211e-24)
(0.807902 -0.123217 -1.01921e-19)
(0.992548 -0.0129995 0)
(1.037 -0.0353 1.35838e-21)
(1.15371 -0.115082 -2.79317e-20)
(-0.0514783 0.0855903 3.59626e-20)
(1.03064 -0.0100795 0)
(1.25031 -0.0140681 -2.56856e-20)
(-0.166026 0.0344665 -4.60787e-20)
(1.07022 -0.054863 0)
(-0.123665 -0.100142 -4.93239e-20)
(-0.169006 0.0263105 4.86343e-20)
(1.01679 -0.0297532 -3.11317e-21)
(1.12739 -0.141835 2.73272e-20)
(1.10093 -0.0069122 -3.57576e-20)
(1.0164 -0.0403422 -5.01866e-21)
(1.02565 -0.0105022 5.78454e-22)
(0.610626 -0.0968838 1.12776e-19)
(-0.169839 0.0370706 9.12223e-20)
(-0.132853 0.0293284 8.82502e-20)
(0.977268 -0.0142863 -1.45793e-20)
(0.995223 -0.000502235 0)
(1.0226 -0.0141435 0)
(1.07886 0.0135258 5.78238e-22)
(0.979634 -0.0572594 0)
(0.965053 -0.0679597 7.4809e-21)
(0.525433 0.474989 2.19141e-21)
(1.15786 -0.0406653 -2.98283e-20)
(1.00025 -0.00192349 -1.1954e-20)
(0.809139 -0.0883349 1.63761e-19)
(1.1058 -0.0571444 1.8856e-20)
(0.836237 -0.0470362 -1.13537e-20)
(1.03741 -0.0334335 -1.28339e-21)
(-0.261461 0.00372014 0)
(1.07301 -0.0311841 0)
(1.00426 -0.00319173 4.55839e-21)
(1.03493 -0.270888 -1.22572e-20)
(0.150063 0.158217 0)
(1.02918 -0.00678782 9.05611e-22)
(0.996502 -0.000125269 -9.26149e-21)
(0.992389 -0.00709713 -2.86238e-21)
(1.0909 -0.00646527 0)
(1.01042 -0.00572859 0)
(1.1399 -0.0286317 3.97192e-20)
(1.24408 -0.145492 0)
(0.990527 -0.044321 0)
(1.21494 -0.0537352 0)
(1.06196 -0.0301928 0)
(1.03565 -0.0319465 -5.07221e-22)
(0.848631 -0.0467264 -5.48508e-20)
(-0.0875024 -0.0481362 -7.23866e-20)
(1.17113 -0.0492046 -1.59439e-20)
(0.998844 -0.00395362 -3.28751e-21)
(1.03069 -0.00656072 -1.43812e-21)
(0.338669 -0.0222839 3.64309e-20)
(0.903793 -0.00811555 0)
(0.755773 -0.0132117 8.8424e-20)
(1.0287 -0.0052937 4.87359e-22)
(0.987692 -0.0139001 0)
(-0.217698 -0.000623855 0)
(-0.0716271 -0.136774 0)
(1.07078 -0.102829 -2.70372e-21)
(1.20721 -0.0747622 4.76009e-20)
(0.68988 0.0533162 0)
(0.99445 -0.0164101 -7.63676e-21)
(1.00002 -0.000170491 0)
(1.01249 -0.0390775 0)
(-0.09644 -0.0331582 1.49882e-19)
(1.00147 -0.000709698 -1.80937e-21)
(0.999997 -4.25674e-05 0)
(-0.0528101 0.146213 0)
(0.892471 0.0366955 0)
(1.18978 -0.235173 -6.25546e-20)
(0.840139 0.0374031 -6.75301e-20)
(1.00203 -0.00937852 5.97542e-21)
(-0.0823519 -0.0450405 1.39935e-19)
(0.999995 -0.000313992 -6.25965e-21)
(0.987003 -0.00971924 1.69722e-20)
(1.01129 -0.0382604 0)
(0.907648 -0.106446 5.42527e-20)
(-0.0271563 0.146146 1.19175e-20)
(0.999837 -0.00195599 5.41412e-21)
(0.992704 0.000893652 -1.36859e-20)
(0.992138 -0.0134465 0)
(0.994025 -0.0149687 -1.14726e-20)
(1.0017 -0.009391 0)
(1.02069 -0.0373001 0)
(0.761718 -0.156395 0)
(0.900276 -0.110218 -6.42896e-20)
(0.964011 -0.0458889 -2.4677e-20)
(0.999841 -0.00325397 -1.5845e-20)
(0.892234 -0.104209 -1.32022e-20)
(1.13897 -0.143319 -2.06862e-20)
(1.09649 -0.0023262 0)
(0.883418 0.0422142 7.66707e-20)
(1 -7.74548e-05 0)
(1.02262 -0.0134458 -1.9338e-21)
(0.997662 -0.0721721 0)
(-0.0509491 0.0542343 0)
(0.103635 -0.066752 1.44861e-19)
(1.06935 -0.00600201 9.52279e-21)
(-0.135835 0.0208289 -6.81424e-20)
(0.999695 -4.18127e-05 0)
(0.940597 -0.0710252 0)
(1.21208 -0.359272 -3.924e-20)
(0.153532 -0.111313 -1.32934e-19)
(1.02355 -0.0255826 0)
(0.999837 -0.00154635 1.10685e-20)
(0.434608 0.25184 0)
(1.15657 -0.0789998 0)
(1.00455 -0.00327383 8.98955e-21)
(0.999909 -0.000266967 0)
(-0.229073 -0.0258229 5.75986e-20)
(1.00002 -0.000125888 -7.75476e-21)
(1.10739 -0.196799 0)
(0.996084 -0.00466247 0)
(0.346229 0.0606848 -9.33773e-20)
(0.999916 -0.000351911 -1.08111e-20)
(1.01063 -0.000246073 -1.05225e-21)
(0.9986 -0.000525478 4.48086e-22)
(1.04255 -0.121506 3.67883e-21)
(1.04896 0.000459049 0)
(0.927753 -0.0427067 0)
(0.903789 0.0282648 3.43618e-20)
(0.539648 0.138723 -1.79907e-19)
(1.00489 -0.00997159 0)
(0.998573 -0.00766215 1.78401e-21)
(1.00005 -0.000279538 2.18185e-21)
(0.996805 -0.0164667 1.70472e-21)
(1.04284 -0.0329464 0)
(1.04681 -0.0127799 3.63641e-24)
(1.07981 -0.101874 1.25239e-21)
(0.998267 -0.000549173 0)
(1.16663 -0.0503623 0)
(0.0248213 0.0117449 -4.48579e-20)
(1.1182 -0.114424 4.81202e-21)
(1.15661 -0.120172 3.45708e-20)
(0.999615 -0.000274356 1.29398e-20)
(1.03292 -0.0203889 4.31004e-22)
(-0.210794 -0.00147639 0)
(0.136999 -0.0384472 0)
(1.02527 -0.00970897 -6.00229e-22)
(-0.137181 -0.0720446 5.91762e-20)
(-0.233875 0.00637862 0)
(1.03095 -0.00701026 1.43079e-21)
(0.992385 0.000426042 1.36372e-20)
(1.00094 -0.0149299 8.61585e-21)
(1.08496 -0.252613 -9.50104e-22)
(1.16961 -0.0479048 0)
(0.135422 -0.0718247 1.30823e-19)
(1.00554 -0.00993764 0)
(1.0124 -0.0938098 -1.55466e-21)
(1.0059 -0.00737064 0)
(0.964033 -0.0243656 -5.3683e-22)
(1.00971 -0.000337801 1.08465e-21)
(1.00613 -0.287503 3.92378e-21)
(1.04352 -0.0315808 -1.4949e-21)
(1.17803 -0.243389 0)
(0.999087 -0.00337927 0)
(0.887019 -0.241938 0)
(1.00414 -0.00915052 -4.6016e-21)
(0.957053 -0.0486008 -2.78663e-20)
(0.985292 -0.00966241 0)
(1.13617 0.0220201 0)
(0.728769 0.155666 0)
(-0.211637 0.0192 -3.11832e-22)
(0.155655 -0.105685 -5.17701e-20)
(-0.16843 -0.0662413 0)
(1.14791 -0.0823489 0)
(0.987135 -0.0149236 0)
(0.548504 -0.699622 0)
(0.0739622 -0.0810903 3.46486e-19)
(1.18032 -0.0492699 0)
(1.04078 -0.0293416 -5.1216e-21)
(0.999645 -0.00394475 2.62535e-23)
(0.171594 0.277543 1.38339e-19)
(1.00122 -0.0155009 -8.78094e-21)
(-0.028833 0.151356 -6.03549e-20)
(1.03399 -0.00335622 0)
(1.1134 -0.0262866 0)
(1.04689 -0.0312226 9.24957e-21)
(0.999955 0.000183856 0)
(1.02326 -0.0268582 0)
(0.403841 -0.0172468 6.00395e-22)
(-0.0898401 -0.0311268 -9.98119e-20)
(-0.0309612 0.16035 -4.97107e-20)
(0.662079 0.0741981 1.60183e-20)
(-0.180364 -0.00449939 9.86697e-20)
(0.993535 -0.00816497 6.86605e-22)
(-0.168482 -0.0230314 0)
(0.138651 0.0180874 0)
(1.00002 -8.88409e-05 0)
(0.987848 -0.0383008 1.03419e-20)
(1.01186 -0.00794846 0)
(0.681785 -0.023795 0)
(1.02672 -0.00626817 0)
(-0.11654 0.0321823 -1.37573e-19)
(0.843532 -0.0304269 0)
(1.20214 -0.139923 2.77764e-21)
(1.00303 -0.0500502 0)
(1.16135 -0.377211 0)
(-0.123212 -0.000551299 2.66741e-20)
(0.163619 0.0712645 -1.29324e-19)
(0.92262 -0.106485 -3.82002e-20)
(1.09345 -0.0933207 -2.0507e-20)
(1.00168 -0.001064 2.26172e-21)
(0.375705 -0.137784 1.11929e-19)
(1.02809 -0.0042075 0)
(0.406538 0.349099 -1.45011e-19)
(1.22041 -0.148221 6.56694e-22)
(0.783675 -0.22574 9.94162e-20)
(0.186466 0.0126641 2.67451e-20)
(-0.0613375 -0.0206617 2.71397e-20)
(1.06621 -0.0510706 8.41769e-22)
(1.00402 -0.0729379 0)
(1.0033 -0.00453314 4.36531e-21)
(1.21257 0.0239637 -2.12128e-20)
(-0.113967 0.0438945 8.35265e-22)
(-0.146222 -0.0126404 8.57006e-20)
(1.01101 -0.00754301 3.62227e-21)
(0.215369 0.663403 -1.60643e-19)
(1.09291 -0.000929459 0)
(1.2184 -0.0731649 -5.25751e-20)
(0.565882 0.141556 2.4465e-19)
(-0.0540793 0.0808005 -6.15873e-20)
(-0.0370865 0.0749465 5.72945e-20)
(1.03592 -0.0024577 0)
(0.909862 -0.0432187 -4.30194e-20)
(1.11367 -0.0492433 -2.08173e-20)
(1.08111 -0.0172812 1.35931e-20)
(1.07646 -0.00204927 -6.58141e-21)
(0.152926 -0.0824577 -1.65557e-19)
(0.999662 -0.000705473 -1.08364e-20)
(0.313018 -0.0149623 0)
(1.01767 -0.000352429 -2.85712e-21)
(1.03484 -0.00205396 -2.37972e-21)
(1.07678 -0.235192 -1.5497e-20)
(1.21242 -0.0795122 -9.60155e-20)
(0.732021 -0.0252251 -6.79017e-20)
(1.04411 -0.0468917 0)
(0.793491 -0.376245 1.10555e-19)
(0.864681 -0.216276 -4.49434e-20)
(1.18727 -0.328666 -1.28677e-19)
(0.895645 0.0298213 0)
(1.00009 -0.000426273 5.40591e-21)
(1.04216 -0.0477615 0)
(1.00011 -0.000440729 -2.75599e-21)
(0.983354 -0.010594 0)
(1.18426 -0.341211 3.49994e-20)
(0.859557 -0.00333185 -5.30078e-20)
(1.02255 -0.0461964 -4.06412e-21)
(0.984525 -0.00803702 -1.02345e-20)
(1.11986 -0.0444407 2.1074e-20)
(0.191443 -0.11723 -2.01228e-19)
(1.0031 -0.0991829 -7.22958e-21)
(0.98612 -0.000217328 -2.84428e-21)
(0.383968 0.146634 0)
(0.992374 -0.00859684 -6.63042e-22)
(0.999969 0.000124214 0)
(1.02875 -0.00461027 0)
(1.18029 -0.0305188 0)
(0.995803 -0.000541448 0)
(1.08756 -0.0215446 -8.63778e-21)
(-0.0303888 0.217656 2.07307e-19)
(1.13303 -0.154717 3.53156e-20)
(1.00608 -0.000223968 -4.26042e-21)
(0.139389 0.638973 4.13606e-20)
(0.570491 0.0897589 -3.81304e-20)
(0.992476 -0.00934973 6.16543e-22)
(1.06715 -0.0074581 -1.68895e-21)
(1.102 -0.0919138 1.16745e-20)
(1.00003 -0.000135286 8.53169e-21)
(1.00102 -0.00849463 1.43899e-21)