/*--------------------------------*- C++ -*----------------------------------*\
| =========                 |                                                 |
| \\      /  F ield         | OpenFOAM: The Open Source CFD Toolbox           |
|  \\    /   O peration     | Version:  v2012                                 |
|   \\  /    A nd           | Website:  www.openfoam.com                      |
|    \\/     M anipulation  |                                                 |
\*---------------------------------------------------------------------------*/
FoamFile
{
    version     2.0;
    format      ascii;
    class       surfaceVectorField;
    location    "500";
    object      Uf;
}
// * * * * * * * * * * * * * * * * * * * * * * * * * * * * * * * * * * * * * //

dimensions      [0 1 -1 0 0 0 0];


internalField   nonuniform List<vector> 
14470
(
(0.95909 -0.0136376 7.54669e-21)
(0.957165 -0.0132619 -5.58695e-21)
(0.958677 -0.0115279 9.16898e-21)
(-0.239454 -0.0148418 1.62364e-20)
(-0.248803 -0.0136432 1.50422e-20)
(0.991179 -0.00702001 5.39714e-21)
(0.991484 -0.00748128 7.59385e-21)
(0.990845 -0.00770798 5.53286e-21)
(-0.0366313 0.147517 4.67707e-20)
(-0.0315605 0.150819 3.26154e-21)
(-0.0329676 0.155998 1.71864e-20)
(0.999946 -2.64711e-06 0)
(0.99994 3.51415e-05 0)
(0.999901 1.09573e-05 0)
(1.21241 -0.145815 -2.12786e-21)
(1.21743 -0.148144 5.3532e-22)
(1.21195 -0.151111 -2.52704e-20)
(1.0559 -0.260192 2.8415e-22)
(1.063 -0.252713 -5.23194e-21)
(1.0687 -0.263186 -9.55959e-21)
(-0.111393 0.0417077 2.42134e-20)
(-0.106908 0.0423573 -1.37363e-20)
(-0.131661 0.0424114 6.69471e-21)
(1.02043 -0.0447162 -8.26186e-22)
(1.02187 -0.0459789 -1.16426e-21)
(1.01972 -0.0466012 3.67574e-21)
(0.999897 -0.00138875 1.01363e-20)
(0.999901 -0.00123177 4.5199e-21)
(0.999919 -0.00126337 -3.70578e-22)
(0.999856 -0.00150752 1.09788e-20)
(0.99989 -0.00156425 -3.12039e-21)
(1.00202 -0.0110148 1.58075e-20)
(1.00191 -0.0105023 6.6274e-22)
(1.00164 -0.0108203 6.60779e-21)
(0.0131245 0.0433666 -1.37957e-20)
(-0.0157343 0.0509618 5.07143e-21)
(-0.0121911 0.0440467 7.39587e-20)
(1.02162 -0.0278373 -2.84069e-21)
(1.02112 -0.0266872 1.67198e-21)
(1.02261 -0.0269916 -2.80656e-21)
(1.09594 -0.00727573 -7.46567e-22)
(1.09941 -0.00691704 -1.14423e-20)
(1.09686 -0.00403549 8.38744e-21)
(1.13205 -0.126745 -2.05918e-20)
(1.13644 -0.131641 2.35392e-20)
(1.1301 -0.133448 -2.06544e-20)
(0.993303 -0.00975133 0)
(0.993215 -0.0102633 0)
(0.993738 -0.00999512 0)
(-0.0785551 -0.0318142 -2.01893e-20)
(-0.0751141 -0.0273261 -2.79338e-20)
(-0.0737675 -0.0351139 3.5198e-20)
(1.02022 -0.00580928 6.15108e-22)
(1.02013 -0.00533923 1.44846e-23)
(1.02061 -0.00558058 6.29821e-22)
(1.027 -0.0117237 1.2863e-22)
(1.02788 -0.0114725 0)
(1.0269 -0.0109474 0)
(0.999991 -1.48132e-05 4.43277e-21)
(0.999991 -2.36473e-05 0)
(-0.0383698 0.184069 8.9191e-20)
(-0.0363604 0.195765 1.43767e-20)
(-0.0320054 0.190158 4.0864e-22)
(-0.0934887 0.0377336 1.69116e-21)
(-0.122523 0.040024 8.4065e-20)
(0.0416826 0.0407412 1.72413e-21)
(0.0471987 0.033868 -6.39756e-20)
(0.908752 -0.0523389 1.8333e-20)
(0.914058 -0.0516403 -9.25383e-21)
(0.910354 -0.0465472 -4.72218e-20)
(0.999591 -0.00346731 2.47857e-21)
(0.999649 -0.00374977 2.46467e-21)
(0.999678 -0.00336191 2.7074e-21)
(1.00002 -0.000309675 2.55732e-22)
(1.00002 -0.000352983 3.92428e-21)
(1.00003 -0.000444888 -4.99172e-21)
(1.0199 -0.00595701 3.23138e-22)
(1.02035 -0.00621848 -2.74176e-22)
(1.11977 -0.195162 -7.98042e-21)
(1.12705 -0.196085 -1.6986e-20)
(1.1222 -0.202957 -1.91437e-20)
(-0.226764 0.00502576 0)
(-0.228122 0.00493091 0)
(-0.248077 0.00520624 -6.99756e-20)
(1.25744 -0.179873 -1.93811e-20)
(1.2392 -0.174175 3.91615e-20)
(1.24362 -0.183362 -3.03431e-20)
(0.995979 -0.0041198 5.75266e-22)
(0.995843 -0.00381232 6.38222e-21)
(0.995611 -0.00435009 -5.45302e-21)
(0.996403 -0.0101255 -3.88332e-22)
(0.996144 -0.0106141 -1.90065e-21)
(0.996558 -0.0106764 3.63457e-21)
(1.00635 -0.000744145 4.65066e-21)
(1.00602 -0.000737363 -1.42938e-21)
(1.0058 -0.000425247 -6.65988e-21)
(1.09985 -0.0592696 1.92598e-20)
(1.09722 -0.0612555 7.52198e-21)
(1.10061 -0.0623788 2.02407e-21)
(1.0863 -0.0122158 1.03149e-20)
(1.08444 -0.0143421 -5.03514e-21)
(1.08301 -0.0119555 2.70083e-21)
(0.914048 0.0122075 -1.89332e-20)
(0.910721 0.0143778 2.33276e-20)
(0.910541 0.00932013 -3.93199e-20)
(-0.144986 0.0413776 -2.78252e-20)
(-0.138693 0.0446084 4.6239e-21)
(-0.141611 0.0360921 0)
(1.07582 -0.107398 1.06265e-20)
(1.07278 -0.103938 -1.35458e-21)
(1.07771 -0.103093 6.83469e-22)
(1.11152 -0.194537 1.66454e-20)
(1.11614 -0.1883 4.45348e-20)
(0.509708 -0.0284299 1.8517e-20)
(0.510285 -0.0315461 5.79333e-20)
(0.376773 -0.0143175 -2.18737e-20)
(-0.101025 -0.0163395 3.9558e-20)
(-0.0990683 -0.00824197 5.23555e-20)
(-0.110143 -0.0126397 2.68257e-20)
(1.00001 -0.00019926 4.91685e-21)
(1.00001 -0.000294092 -5.70131e-22)
(0.991978 -0.000659955 2.02533e-21)
(0.991489 -0.000926556 6.25659e-21)
(0.991575 -0.000312794 -1.56113e-20)
(0.996092 4.13811e-05 -9.07431e-21)
(0.996391 -1.40904e-05 -6.78681e-21)
(0.996378 0.000350986 2.82708e-21)
(-0.158305 0.0284362 -5.07433e-20)
(-0.16385 0.0293182 0)
(-0.163329 0.0344368 7.92823e-20)
(0.999987 -0.000202639 -9.11213e-21)
(0.999999 -9.97904e-05 -4.52564e-22)
(1 -0.000103353 -9.33237e-21)
(1.03808 -0.00927901 -1.19443e-21)
(1.03751 -0.00832806 -7.8059e-22)
(1.03894 -0.00852902 9.96947e-22)
(0.993417 -0.00907791 5.74491e-21)
(0.99284 -0.00941263 2.95272e-22)
(1.10372 -0.0570913 1.03267e-20)
(1.09955 -0.055569 -8.75327e-21)
(1.00664 -0.00103166 1.46962e-21)
(1.00671 -0.000693933 4.79436e-21)
(1.1128 -0.0909172 -7.35153e-21)
(1.11477 -0.0954615 3.3209e-21)
(1.1174 -0.0899455 -5.02999e-21)
(0.999972 -0.000304647 -2.56422e-21)
(0.999964 -0.000294763 7.98026e-22)
(0.87916 -0.107299 2.30661e-20)
(0.888553 -0.106834 -6.53908e-21)
(0.884697 -0.116437 -1.68737e-20)
(-0.0429681 0.137705 -2.78003e-20)
(-0.0439676 0.143361 -4.0032e-20)
(1.00226 -0.0100478 0)
(1.00212 -0.00957421 3.23882e-21)
(1.00248 -0.00979559 8.02642e-22)
(1.20068 -0.0793769 1.94127e-21)
(1.20437 -0.0755085 6.75763e-21)
(1.19904 -0.0739642 -1.94203e-20)
(1.03728 -0.00981257 1.90819e-21)
(1.03859 -0.0100907 9.67014e-22)
(0.999997 -9.78328e-05 4.81312e-21)
(0.896439 -0.00787785 -1.25649e-21)
(0.891233 -0.00606549 2.86071e-20)
(0.896232 -0.00212563 1.20615e-20)
(0.788627 -0.293526 -2.56874e-20)
(0.80475 -0.303751 -2.98528e-20)
(0.780076 -0.321435 -3.20567e-20)
(0.992962 -0.00766809 3.25456e-22)
(0.992667 -0.00725923 -1.44514e-21)
(0.993249 -0.00709376 -6.46841e-21)
(1.13491 -0.0324278 -1.88399e-20)
(1.13111 -0.035732 1.35161e-20)
(1.13075 -0.0304925 -4.78953e-21)
(1.00298 -0.00149555 -7.97758e-23)
(1.00319 -0.00140261 -7.85366e-22)
(1.00322 -0.00169484 1.53618e-21)
(1.01904 -0.0433794 -1.25862e-21)
(1.02088 -0.0430016 -2.97463e-21)
(-0.13784 0.017198 -1.90596e-20)
(-0.125183 0.0172581 5.08691e-20)
(1.05899 -0.0639961 -5.94589e-21)
(1.05614 -0.0634182 0)
(1.05724 -0.066609 -5.45916e-21)
(1.08812 -0.0100451 8.51992e-21)
(1.08945 -0.00746891 0)
(1.08621 -0.00739994 0)
(-0.0703485 -0.0223706 -5.52057e-21)
(-0.0633268 -0.0213955 -1.82621e-20)
(-0.0568124 -0.0225694 3.70149e-20)
(0.976844 -0.00996845 -1.81661e-21)
(0.975606 -0.00950761 -3.21097e-21)
(0.976836 -0.00884218 7.26127e-21)
(0.596455 0.0649954 1.0059e-21)
(0.577728 0.0796324 -5.44329e-20)
(0.574457 0.0518717 7.07894e-21)
(-0.144076 0.0427669 -3.20984e-20)
(-0.126903 0.0437088 -9.79336e-23)
(-0.142325 0.0416376 3.36122e-20)
(0.452682 -0.0202184 -8.70792e-21)
(0.332858 -0.0441637 1.60734e-20)
(0.399485 -0.0281266 -7.13517e-21)
(-0.0251895 -0.0203891 -3.0583e-21)
(-0.0520518 -0.019504 -2.71724e-20)
(-0.0296706 -0.0197873 8.9095e-21)
(0.999984 -0.000409158 0)
(0.99998 -0.000435821 4.58674e-21)
(0.999989 -0.000566452 -6.25004e-21)
(0.775266 -0.109931 -3.11555e-20)
(0.788625 -0.117986 6.88204e-20)
(0.787871 -0.102352 -3.19109e-20)
(0.473032 -0.0325841 1.03064e-19)
(0.330504 -0.0132168 4.05635e-20)
(0.349196 -0.0174121 -1.49873e-20)
(0.993965 -0.00387483 0)
(0.993702 -0.00431711 0)
(0.994159 -0.00417557 -6.00397e-21)
(0.999954 -0.000130165 3.19834e-22)
(0.999958 -0.000154584 3.14254e-22)
(0.999981 -9.72627e-05 2.10351e-23)
(0.764311 -0.115374 2.72952e-20)
(0.764047 -0.0987252 -3.35732e-20)
(-0.0825362 -0.0360677 1.16639e-21)
(-0.0829843 -0.0300872 2.13262e-20)
(1.1282 -0.123046 0)
(1.13383 -0.121261 0)
(0.968124 -0.0725867 1.04614e-20)
(0.971145 -0.0747361 1.0265e-20)
(0.972114 -0.0710397 9.96026e-21)
(1.08963 -0.0125461 -5.62313e-22)
(1.18631 -0.236337 -3.32434e-20)
(1.18036 -0.240265 1.21073e-21)
(1.1817 -0.231514 3.05211e-20)
(0.99995 -0.000103486 4.57938e-21)
(0.99992 -0.00015996 0)
(1.19413 -0.0326298 -3.02857e-20)
(1.18831 -0.0325939 -5.63176e-21)
(1.19154 -0.0273351 -3.61784e-20)
(-0.150921 0.0386563 7.32697e-21)
(-0.146938 0.0463874 -6.82154e-20)
(0.786332 -0.273958 2.10082e-20)
(0.763493 -0.290522 -1.31402e-21)
(-0.0471098 0.157761 0)
(-0.0433017 0.164301 -3.89011e-22)
(-0.0474772 0.154717 -6.43193e-20)
(1.24986 -0.280967 2.99542e-20)
(1.25952 -0.273116 -4.15514e-20)
(1.22758 -0.26663 5.36261e-20)
(1.24687 -0.290954 -2.41766e-21)
(1.24443 -0.28517 -2.96692e-21)
(1.06318 -0.153403 0)
(1.06723 -0.160793 -6.85796e-21)
(1.0704 -0.153333 -1.15162e-20)
(-0.101128 -0.0257689 -4.47081e-22)
(-0.0915915 -0.020173 -2.08573e-20)
(0.994638 -0.0136739 6.51572e-21)
(0.99479 -0.0143043 4.97756e-21)
(0.995211 -0.0137396 6.38264e-21)
(-0.02004 -0.0179464 7.42817e-20)
(0.0105584 -0.0200203 -2.18342e-20)
(1.119 -0.145375 -2.49838e-20)
(1.11323 -0.146006 4.57633e-20)
(1.11586 -0.140391 2.45548e-20)
(1.03669 -0.081919 -7.09907e-22)
(1.03943 -0.0839097 -1.57467e-21)
(1.03599 -0.0853709 3.25877e-22)
(0.999979 -1.33229e-05 4.52312e-21)
(0.999945 -3.91355e-05 -5.24062e-21)
(-0.101289 0.0872816 1.42357e-20)
(-0.103304 0.0838826 -9.06897e-21)
(-0.0932505 0.0896625 -4.5761e-20)
(1.10843 -0.0922399 0)
(1.11029 -0.087393 -1.64875e-20)
(-0.125917 -0.163563 7.95789e-21)
(-0.13899 -0.178998 -7.89707e-20)
(-0.116408 -0.179736 -3.83351e-20)
(0.992441 -0.000304593 -5.85701e-22)
(0.992424 -0.000871448 -4.73125e-21)
(-0.0895712 -0.0183978 0)
(-0.11531 -0.01871 0)
(-0.0997014 -0.0181389 -1.39e-20)
(0.227021 0.00557889 -3.4949e-20)
(0.153849 0.0158856 4.85841e-21)
(0.136889 0.0179963 1.08036e-20)
(0.607737 -0.0006309 0)
(0.524857 -0.00932681 0)
(1.00512 -0.0083318 -9.58012e-21)
(1.00506 -0.00868099 -1.98275e-22)
(1.00476 -0.00831972 2.60919e-21)
(0.993749 -0.00356217 -8.02413e-22)
(0.994226 -0.00343254 -7.35268e-21)
(0.999993 8.7802e-07 4.14623e-21)
(1.00004 -0.00070014 1.34152e-22)
(1.00006 -0.000688898 1.48047e-22)
(1.00006 -0.00083721 -2.65133e-21)
(-0.0407565 0.172968 6.95613e-20)
(-0.04213 0.176051 6.53262e-21)
(0.11612 -0.0665638 -6.75677e-20)
(0.0822413 -0.0727064 8.56897e-20)
(0.0825319 -0.0340744 -1.1216e-19)
(-0.220506 -0.000491531 -7.88191e-21)
(-0.222899 -0.000353308 -7.7518e-21)
(-0.241624 0.000771922 1.09012e-19)
(0.978034 -0.0102263 -1.44183e-20)
(0.976999 -0.0108989 8.24956e-21)
(0.998784 -0.00186586 -3.24317e-21)
(0.998737 -0.00217437 9.77533e-22)
(0.998618 -0.00206556 -7.09005e-21)
(1.0782 0.00650297 4.71119e-21)
(1.07602 0.00790656 1.0276e-20)
(1.07904 0.00964807 8.36321e-21)
(0.996459 -0.000639994 3.16441e-22)
(0.996716 -0.000632116 3.36953e-22)
(0.996483 -0.000958422 -4.3365e-21)
(-0.0496823 0.128617 4.51505e-20)
(-0.0561077 0.125426 6.97628e-21)
(-0.0556812 0.119779 1.10888e-19)
(0.995853 0.000592863 -2.21133e-21)
(0.995714 0.000260583 -8.58111e-22)
(0.995521 0.000488238 -4.94529e-21)
(-0.132928 -0.015932 -3.18208e-20)
(-0.135273 -0.018198 2.36029e-20)
(-0.153074 -0.0134566 -7.09586e-20)
(1.20041 -0.0336051 -6.74207e-22)
(1.19663 -0.0391114 -2.2412e-20)
(0.10469 -0.0162396 -2.63891e-20)
(0.0609954 -0.0202982 2.89431e-20)
(0.0742577 -0.0174201 -4.59493e-20)
(1.13727 -0.0806682 0)
(1.14119 -0.07791 0)
(1.13679 -0.0756121 4.52977e-21)
(1.0825 -0.0169114 -1.13301e-21)
(1.08609 -0.0173423 5.3862e-21)
(0.995886 0.000933996 7.69159e-21)
(0.996139 0.000742802 1.0869e-20)
(1.1304 -0.143921 -8.21304e-22)
(1.13693 -0.144206 -2.35659e-20)
(1.13315 -0.150552 6.77597e-21)
(-0.227537 0.00580729 0)
(-0.206284 0.00558782 -3.54575e-20)
(1.27421 -0.0193008 -1.19341e-20)
(1.26398 -0.0201355 -8.29161e-20)
(1.27385 -0.0273745 -3.27078e-20)
(1.26194 -0.0140652 3.65071e-20)
(1.27427 -0.00736298 7.43089e-20)
(1.07315 -0.0377233 0)
(1.07358 -0.0349883 0)
(1.07105 -0.0361963 3.35872e-22)
(1.00697 -0.0172432 2.67492e-21)
(1.00758 -0.0172215 -6.1e-22)
(1.00706 -0.016654 3.02601e-21)
(0.961274 -0.0136102 -9.1788e-21)
(0.959866 -0.0153526 -1.33833e-20)
(1.05382 -0.0578471 1.44995e-21)
(1.05119 -0.0576363 2.78917e-21)
(1.05265 -0.0553559 2.95847e-21)
(1.09383 -0.0615381 -1.08312e-20)
(1.09133 -0.0589124 6.72851e-22)
(1.0899 -0.0624201 -7.92154e-21)
(1.12388 -0.272591 -2.74778e-20)
(1.11467 -0.275689 -2.6169e-20)
(1.12392 -0.284258 -1.73463e-20)
(1.20045 -0.125274 -3.90199e-21)
(1.16063 -0.108024 2.59455e-20)
(1.23169 -0.128616 -3.12684e-21)
(1.0808 0.0055627 1.5095e-23)
(1.07754 0.0038228 -1.13741e-20)
(0.999993 -0.000401985 -4.04586e-21)
(0.999992 -0.000261523 0)
(1.14754 -0.126732 1.28462e-20)
(1.15218 -0.126193 0)
(1.14986 -0.131347 2.02834e-21)
(-0.0854574 -0.0362246 2.09123e-20)
(-0.0842871 -0.0370987 1.45101e-22)
(-0.0851642 -0.0327243 -2.18414e-20)
(1.09539 -0.0645091 -7.41863e-21)
(0.981189 -0.0193827 -7.70591e-21)
(0.981439 -0.0207861 8.11377e-21)
(0.982477 -0.0196824 4.58237e-21)
(1.17443 -0.0362529 1.22316e-20)
(1.17743 -0.0318301 0)
(1.17203 -0.0315504 0)
(-0.15328 0.0268726 -9.14606e-21)
(-0.147797 0.0242591 1.36368e-20)
(-0.15522 0.0302061 5.92079e-21)
(1.05155 -0.434472 -1.91571e-22)
(1.03843 -0.435621 -1.1874e-20)
(1.04127 -0.45096 -3.43e-20)
(0.995953 0.00124339 9.50744e-22)
(0.996233 0.00139004 2.17128e-21)
(-0.0135776 -0.0158711 5.04042e-20)
(-0.0320077 -0.0177269 1.55296e-20)
(1.00643 -0.0173318 0)
(1.00695 -0.0178507 -2.35555e-21)
(0.995628 0.0011352 -1.27267e-21)
(0.998616 -0.00419414 2.51733e-21)
(0.998769 -0.00395964 8.78021e-22)
(0.998658 -0.00373862 6.58331e-21)
(0.0515097 -0.0445122 2.75229e-20)
(0.239142 -0.0905954 8.60105e-20)
(0.119133 -0.0572623 -2.48622e-20)
(1.03369 -0.0796515 2.10725e-22)
(1.03695 -0.0783988 -8.34998e-23)
(0.999554 -0.00328432 5.4959e-21)
(0.999506 -0.00359876 4.49433e-21)
(0.984282 -0.00223854 -1.25146e-22)
(0.98448 -0.00299912 4.01946e-21)
(0.983644 -0.00280958 -6.50057e-21)
(1.24442 -0.302557 4.11854e-20)
(1.24186 -0.306115 6.79793e-20)
(1.24392 -0.313949 2.37614e-21)
(1.14206 -0.128594 5.09008e-20)
(1.14057 -0.135887 5.43167e-20)
(0.993262 -0.00809774 6.75891e-22)
(0.992685 -0.00830726 -3.8633e-24)
(1.26299 -0.177433 0)
(1.26427 -0.183492 0)
(0.981935 -0.0112192 0)
(0.982885 -0.010977 0)
(0.982693 -0.0120192 0)
(1.18286 -0.0323749 0)
(1.1855 -0.037608 1.23704e-20)
(1.07541 -0.0392881 0)
(1.07273 -0.0403438 3.64159e-21)
(1.0272 -0.0123878 3.07469e-24)
(1.02635 -0.0119585 -1.85041e-22)
(0.556953 -0.359278 -1.75948e-21)
(0.565932 -0.388291 9.4524e-20)
(0.530052 -0.378389 -8.6589e-20)
(1.04777 -0.0219786 -4.74429e-21)
(1.0477 -0.0234871 -5.54737e-21)
(1.0461 -0.0226694 -2.85035e-22)
(0.601712 -0.0546772 -1.66346e-21)
(0.631134 -0.0650299 1.77726e-20)
(-0.141708 -0.196359 1.18814e-21)
(-0.128953 -0.209588 3.88941e-20)
(-0.123745 -0.21447 9.58123e-21)
(1.05061 -0.0275518 -1.09004e-21)
(1.05001 -0.0293158 -2.79302e-21)
(1.04845 -0.0279925 -2.22167e-21)
(1.00517 -0.00797198 1.46442e-21)
(1.00517 -0.00762205 5.87837e-21)
(1.00484 -0.0076415 8.39105e-21)
(0.999905 -0.00107502 4.27646e-21)
(0.999927 -0.000944279 4.29658e-21)
(0.999918 -0.000909546 -1.10777e-21)
(0.980874 -0.0184856 9.40382e-22)
(0.979884 -0.0193538 -1.13957e-20)
(-0.182275 -0.00816923 -7.55644e-21)
(-0.161552 -0.0109663 -8.00889e-20)
(-0.18892 -0.00630171 -4.17667e-20)
(0.516346 -0.273769 0)
(0.331292 -0.191514 -6.94412e-21)
(0.215574 -0.142156 0)
(-0.211126 0.00334922 -3.8578e-20)
(-0.204183 0.0104986 3.17521e-20)
(-0.208995 0.00705425 -5.6404e-20)
(1.002 -0.0116209 4.29579e-22)
(1.00239 -0.0112843 -1.05775e-20)
(1.20843 -0.143963 -4.04435e-20)
(1.2123 -0.140435 -1.83586e-22)
(0.952846 -0.361157 1.73761e-21)
(0.969075 -0.351708 -1.69343e-21)
(0.952808 -0.343054 -7.56304e-22)
(0.541133 -0.462226 -4.07646e-21)
(0.503714 -0.494946 5.28442e-20)
(0.504886 -0.43471 -4.34731e-20)
(0.993405 -0.00480725 0)
(0.993655 -0.00515518 6.17285e-21)
(0.9931 -0.00530748 -4.17242e-21)
(1.06247 -0.0591965 1.23193e-20)
(1.06061 -0.0616553 -3.27834e-21)
(1.05963 -0.0582978 -1.63029e-21)
(-0.0557614 -0.0195064 -2.03602e-22)
(-0.0732373 -0.0202705 -2.9461e-20)
(-0.136269 0.0216781 7.20514e-20)
(1.20379 -0.0298534 2.84211e-20)
(1.20629 -0.0357245 3.85377e-20)
(0.995865 -0.000308396 -6.54781e-21)
(0.995833 3.73085e-05 3.89519e-21)
(0.997128 -9.27533e-05 -5.5646e-22)
(0.99733 0.000165165 4.18702e-21)
(0.997348 -0.000109361 4.47047e-21)
(1.00549 -0.00830115 -2.24551e-21)
(0.168129 -0.0151695 -3.67314e-20)
(0.149831 -0.0152619 4.54164e-20)
(-0.14662 0.0427275 -1.34446e-20)
(-0.157002 0.0411849 -6.81381e-20)
(0.770307 -0.374534 5.76405e-20)
(0.900363 -0.452521 0)
(-0.098465 -0.144988 4.42438e-20)
(-0.134573 -0.148423 4.15395e-20)
(1.01793 -0.0420613 -5.13638e-22)
(1.01682 -0.0406601 -4.43386e-21)
(1.01857 -0.0403624 -1.58702e-21)
(-0.145123 0.302002 9.11362e-20)
(-0.0619776 0.340106 3.79059e-20)
(-0.187074 0.344495 3.99675e-20)
(0.391839 -0.0914279 2.77621e-20)
(0.369318 -0.105081 -7.77154e-20)
(0.398019 -0.117159 -1.51248e-19)
(0.906941 -0.0134953 2.30499e-20)
(0.905528 -0.0095221 -9.42412e-21)
(0.910197 -0.0100582 1.37424e-20)
(1.04162 -0.00525361 -1.68617e-22)
(1.04098 -0.00613805 9.55007e-23)
(1.04027 -0.00522509 4.42942e-22)
(0.952526 -0.0507407 2.12774e-20)
(0.955069 -0.0489314 -1.53242e-20)
(0.952068 -0.0472798 -1.2427e-20)
(0.196217 0.15944 3.57847e-20)
(0.161973 0.153439 1.01786e-19)
(0.186937 0.120772 1.765e-19)
(1.01731 -0.00581896 4.17081e-23)
(1.01777 -0.00593666 1.53314e-21)
(1.0175 -0.00617324 -3.02391e-21)
(0.992872 -0.0106711 0)
(0.993337 -0.0108069 0)
(0.999613 -0.000424859 1.53739e-22)
(0.999639 -0.000498406 8.91852e-21)
(0.999703 -0.000384029 1.1011e-20)
(0.97436 -0.00956199 -1.20318e-20)
(0.972984 -0.00970195 0)
(0.973938 -0.0108566 0)
(1.02989 -0.0105771 4.36288e-23)
(1.03036 -0.0101737 1.26396e-22)
(1.02959 -0.00981174 1.79729e-22)
(1.10592 -0.0515367 0)
(1.10653 -0.055369 9.84061e-21)
(1.10998 -0.0532962 0)
(1.08518 -0.0336042 3.07869e-21)
(1.08753 -0.0356311 -1.07475e-20)
(1.08765 -0.0323531 -1.09359e-20)
(-0.0802491 0.0451193 0)
(-0.07192 0.053038 2.3122e-20)
(-0.0710565 0.0423454 1.58772e-20)
(0.980965 -0.000735314 2.7986e-21)
(0.980081 -0.00125413 0)
(0.981096 -0.00165886 7.50939e-21)
(1.06943 -0.0959658 8.47487e-22)
(1.06801 -0.0924996 6.43452e-21)
(1.06541 -0.0956045 8.0951e-21)
(1.051 -0.0259468 5.48029e-21)
(1.05248 -0.0271693 -5.38273e-22)
(0.96378 -0.0280629 -9.40903e-21)
(0.964315 -0.0257264 -1.0236e-20)
(0.965939 -0.027657 -1.12949e-20)
(0.760607 -0.49451 1.03892e-20)
(0.725075 -0.496851 -1.81986e-21)
(0.750473 -0.53536 -2.38712e-21)
(1.14381 -0.123517 7.0668e-21)
(-0.0848972 -0.0342385 4.23467e-20)
(-0.0867104 -0.0377547 7.74043e-20)
(1.01569 -0.00570863 -9.03524e-22)
(1.0155 -0.00542551 -7.97336e-22)
(1.01525 -0.0056407 2.33626e-23)
(-0.0802352 -0.0222264 5.31293e-20)
(-0.0743022 -0.0242985 -1.98235e-20)
(0.965393 -0.0701082 -7.42811e-21)
(0.964042 -0.0737965 -6.90656e-21)
(1.14002 0.0347033 -5.62749e-21)
(1.14493 0.0371641 -2.99618e-20)
(1.13959 0.0399874 9.93954e-21)
(1.02083 -0.0285984 -6.39514e-22)
(1.0223 -0.0287601 6.77855e-22)
(1.13363 -0.270285 3.93312e-20)
(1.1261 -0.263189 -1.78767e-20)
(0.998924 -0.00171946 -3.37081e-21)
(0.99885 -0.00162125 -6.55135e-21)
(0.729895 -0.0336393 -1.70814e-20)
(0.740795 -0.0239347 2.75852e-20)
(0.722724 -0.0181143 0)
(1.12415 -0.144378 -3.48546e-20)
(1.12165 -0.150376 -3.06727e-20)
(1.02933 -0.0109394 -2.40309e-22)
(1.03025 -0.011262 2.08198e-22)
(0.341573 0.504699 0)
(0.392072 0.484631 0)
(0.387741 0.540063 0)
(-0.21822 -0.0232421 -9.7878e-21)
(-0.226108 -0.0297516 -4.93443e-22)
(-0.217564 -0.0327984 5.83462e-20)
(1.05846 -0.15511 2.0603e-21)
(1.06008 -0.149293 0)
(0.994187 -0.0161218 1.11251e-21)
(0.994004 -0.0153917 -5.71075e-22)
(0.993422 -0.0160617 -2.23793e-21)
(1.15556 -0.0804899 0)
(1.1512 -0.0824727 0)
(1.15567 -0.0860507 0)
(-0.182508 -0.0958851 5.13201e-21)
(-0.193907 -0.0816589 1.42471e-19)
(-0.206372 -0.0888234 7.85323e-20)
(0.742568 -0.0608693 1.28818e-20)
(0.735408 -0.0468233 -2.24421e-21)
(0.75248 -0.0523227 1.25612e-20)
(0.729851 -0.0689701 4.55364e-20)
(0.746325 -0.0729724 2.72153e-20)
(-0.078693 0.0812527 3.69354e-20)
(-0.0863644 0.0785705 -3.17272e-20)
(-0.0798235 0.088154 6.30805e-20)
(1.23122 -0.0287 -2.89021e-21)
(1.23164 -0.0228223 -5.82255e-21)
(1.24229 -0.0285131 2.50681e-20)
(1.13963 0.0293006 8.79008e-21)
(1.13519 0.0325941 3.97995e-21)
(1.13834 -0.0303899 8.04047e-21)
(1.13851 -0.0352448 -1.10345e-20)
(0.411029 -0.0738455 8.3191e-20)
(0.381149 -0.0642695 7.54853e-20)
(1.03312 -0.00422272 -1.83295e-21)
(1.03354 -0.00358201 0)
(1.03261 -0.00354524 -9.15479e-22)
(-0.111625 0.222594 1.87768e-20)
(-0.198708 -0.00165672 9.68861e-20)
(-0.219358 -0.000502908 0)
(1.0169 -0.00571851 -1.9408e-21)
(1.01718 -0.00552137 0)
(0.999738 -0.000143075 -6.10368e-21)
(0.999725 -7.14852e-05 1.5784e-22)
(0.999803 -7.45399e-05 -1.13088e-23)
(0.496722 -0.0241927 4.57932e-20)
(0.646093 -0.0404044 4.62047e-20)
(0.985756 -0.0142959 -1.90771e-21)
(0.986619 -0.0148601 -1.98314e-21)
(0.985566 -0.0154862 -1.03983e-20)
(1.00003 -0.000619946 5.59254e-21)
(1.00004 -0.000746179 -3.51598e-21)
(1.21565 -0.0655864 -4.94326e-20)
(1.21673 -0.0707905 -3.7858e-20)
(1.21156 -0.0678686 1.52415e-20)
(1.21762 -0.0755771 1.61348e-20)
(1.21475 -0.0788427 -2.91622e-21)
(1.21868 -0.0810325 4.06825e-20)
(1.01725 -0.0436494 7.72264e-22)
(1.06406 -0.0572588 2.95431e-23)
(1.06492 -0.0606346 7.799e-21)
(1.07101 -0.0995064 -7.81124e-21)
(1.07352 -0.0957423 -1.33221e-20)
(0.926246 -0.170824 -6.1543e-22)
(0.918916 -0.162349 0)
(0.916021 -0.173407 0)
(1.06982 -0.0533774 -6.60052e-21)
(1.06792 -0.0514395 -6.83588e-21)
(1.07052 -0.0506675 -1.83934e-20)
(0.993131 -0.00448692 -6.73928e-21)
(1.03219 -0.191185 -2.82192e-21)
(1.03711 -0.187124 1.38647e-21)
(1.03009 -0.184334 -2.78334e-21)
(-0.0366927 0.0560313 -3.44038e-20)
(-0.0280511 0.0541578 -1.06721e-19)
(-0.0362887 0.0462187 -5.50238e-20)
(1.02858 -0.0112564 2.58981e-23)
(1.02838 -0.0104415 -3.38694e-22)
(-0.216496 -0.0078816 1.43731e-20)
(-0.213823 -0.0016391 1.36985e-20)
(-0.205068 -0.000663009 -2.78456e-21)
(0.999955 -0.000405013 2.75662e-21)
(0.999975 -0.000300054 -1.3539e-21)
(0.999816 -0.00186855 5.15532e-21)
(0.999827 -0.00165478 8.179e-21)
(0.999763 -0.00184728 5.30192e-21)
(1.01355 -0.000950413 -3.86047e-21)
(1.01333 -0.00117561 -3.25996e-21)
(1.01372 -0.0011789 1.36885e-21)
(-0.0420459 0.131227 -1.29576e-20)
(0.993391 0.00111736 -1.59516e-21)
(0.992967 0.000892063 -1.28896e-20)
(0.993339 0.000672865 -5.94351e-21)
(1.23589 -0.296026 1.60026e-20)
(1.20905 -0.299779 -4.21895e-21)
(-0.0965862 -0.0133073 -1.25252e-20)
(-0.0858541 -0.0155979 4.70723e-21)
(-0.0989363 -0.0128401 7.04319e-20)
(1.00042 -0.00271541 1.57558e-21)
(1.00038 -0.00275162 5.34505e-21)
(1.00048 -0.00295102 -3.14871e-21)
(0.999074 -0.00157622 8.97056e-22)
(0.999004 -0.0018284 -3.26004e-21)
(1.08616 -0.198706 -5.75502e-20)
(1.16603 -0.207234 -2.43724e-20)
(1.21278 -0.221105 3.3213e-20)
(1.01305 -0.000580741 -1.83498e-21)
(1.01357 -0.000587034 4.23327e-22)
(0.999896 -0.000308462 5.10675e-21)
(0.9999 -0.000353734 -6.03361e-22)
(0.999853 -0.000411775 -8.74464e-22)
(1.01462 -0.000692258 -1.0336e-21)
(1.01434 -0.000717539 5.78863e-24)
(1.01333 -0.000435684 1.77609e-21)
(-0.0973121 -0.0135615 4.70135e-20)
(-0.105127 -0.0115288 -3.67566e-20)
(0.573442 -0.335205 -3.21156e-20)
(0.540362 -0.323828 -7.27832e-20)
(0.922418 -0.0474231 2.73311e-20)
(0.926424 -0.0452327 -5.14956e-22)
(0.926325 -0.0500674 -2.70448e-20)
(0.825748 -0.486902 4.75221e-21)
(0.836671 -0.457469 -3.94946e-22)
(0.85823 -0.479857 -8.4695e-21)
(1.1972 -0.0828897 3.34623e-21)
(1.19373 -0.086546 2.84926e-21)
(1.19196 -0.0812947 -2.69515e-20)
(-0.158072 -0.177812 -1.35247e-20)
(-0.0517188 0.237627 3.11233e-20)
(-0.0393216 0.235753 -6.73407e-21)
(-0.0507564 0.217164 1.027e-19)
(1.04965 -0.0311881 8.35664e-22)
(1.05191 -0.0306632 8.65511e-22)
(-0.0800763 -0.0905406 -3.07255e-20)
(-0.0393248 -0.106315 1.27359e-19)
(-0.115514 -0.0988673 6.0613e-22)
(0.99999 -0.000320961 4.61434e-22)
(0.999963 -0.000434547 4.07752e-21)
(0.999977 -0.000292769 1.45764e-21)
(-0.144638 -0.100674 -1.06252e-19)
(-0.169883 -0.111194 -2.6632e-20)
(0.431468 -0.930825 1.56098e-20)
(0.19369 -0.907038 -2.05573e-20)
(0.427862 -1.04246 -2.80338e-21)
(-0.159173 0.0470072 0)
(-0.166781 0.0407269 4.42769e-20)
(-0.164494 0.0442057 0)
(-0.135816 -0.0132032 0)
(1.22655 -0.0292891 1.3864e-20)
(1.2311 -0.0337165 -3.02028e-20)
(1.07375 -0.032443 0)
(1.07599 -0.0337851 -2.47265e-22)
(1.12457 -0.11914 1.33459e-21)
(1.12279 -0.124378 1.09809e-20)
(1.08274 -0.0353406 -9.91568e-22)
(1.08283 -0.0320121 7.80972e-21)
(1.04229 -0.00434172 -4.44627e-21)
(1.04271 -0.00325809 6.27846e-22)
(1.04132 -0.00337233 -1.53988e-21)
(1.05527 -0.0212379 8.94898e-22)
(1.05713 -0.0215465 2.11937e-21)
(1.05622 -0.0194545 -2.039e-21)
(0.796876 -0.490402 1.71528e-20)
(0.772582 -0.464639 -9.51773e-21)
(0.906955 -0.0573399 1.97451e-20)
(0.904118 -0.0516926 3.10695e-20)
(0.999112 -0.00136272 3.49885e-21)
(0.99918 -0.00143587 3.26319e-21)
(1.00001 -0.000131347 -3.62254e-21)
(1 -6.33309e-05 -3.79046e-21)
(1 -6.83717e-05 5.83529e-22)
(1.01611 -0.00582977 2.38931e-21)
(1.01583 -0.00604538 -7.7278e-22)
(1.01875 -0.000107533 6.97296e-22)
(1.01857 -0.000190667 -5.62271e-22)
(1.01904 -0.000213795 1.16179e-21)
(1.02879 -0.0119473 -1.26113e-22)
(-0.0540598 0.195775 0)
(-0.0527537 0.202246 0)
(-0.0494236 0.192504 0)
(1.00495 -0.00985918 3.66656e-21)
(1.00532 -0.00983123 4.43004e-21)
(1.00497 -0.00945456 4.24219e-22)
(1.02 -0.0262704 3.20972e-21)
(1.01902 -0.0257151 -5.08582e-22)
(1.01897 -0.0269529 -2.32761e-22)
(1.01846 -0.000190124 -2.98006e-22)
(1.0184 -0.00021429 -6.31672e-22)
(1.01895 -0.00015353 -9.83938e-23)
(1.00208 -0.0102773 -5.88792e-21)
(1.00244 -0.0105135 3.07046e-21)
(-0.0266423 0.00832076 -6.36057e-21)
(-0.0243861 0.0185809 3.66702e-20)
(-0.0147702 0.015852 -2.33939e-20)
(1.0614 -0.419402 3.62127e-20)
(1.06776 -0.438716 -1.65485e-20)
(0.689443 0.108808 -2.74717e-20)
(0.692041 0.0931346 -1.10784e-20)
(0.672467 0.0977251 -4.86541e-20)
(0.944365 -0.00881125 2.05501e-20)
(0.942545 -0.0104618 -2.46442e-20)
(0.941989 -0.00722361 1.7259e-20)
(1.17711 -0.0411656 -2.84783e-20)
(1.17175 -0.0403696 1.2642e-20)
(1.01647 -5.45399e-05 -9.91706e-22)
(0.755302 0.0184978 0)
(0.91415 0.0323871 4.29241e-21)
(0.845333 0.0310182 -2.81058e-20)
(-0.0326124 -0.018163 -9.16984e-20)
(0.0184958 -0.0304064 0)
(0.992492 0.000193412 2.95801e-22)
(0.992882 -2.33579e-05 -1.28309e-20)
(-0.0702152 -0.0183613 -5.21623e-20)
(-0.0690487 -0.0175961 -5.45565e-21)
(1.1285 -0.0387996 1.77769e-20)
(1.12521 -0.0419543 6.16664e-22)
(1.1242 -0.0370386 -3.92446e-21)
(0.991316 -0.00142849 4.01986e-21)
(0.990949 -0.00112504 8.98524e-21)
(-0.220307 -0.0159281 0)
(0.671493 0.00470284 0)
(0.996106 -0.00439638 5.73957e-22)
(0.99629 -0.00390472 -9.41067e-23)
(1.02569 -0.195795 0)
(1.03447 -0.198871 7.06816e-21)
(0.282404 0.442723 -8.80348e-21)
(0.359222 1.17903 -1.16112e-19)
(0.969481 -0.0256274 -1.21197e-21)
(0.971168 -0.0264934 -8.57193e-24)
(0.971097 -0.0245528 4.41134e-21)
(0.828397 0.0426962 -7.83022e-21)
(0.83527 0.0377168 -5.60032e-20)
(0.827607 0.0339986 1.10788e-20)
(1.02094 -0.0253984 3.20544e-21)
(0.964758 -0.0236983 -2.89074e-22)
(0.966508 -0.0231346 7.8757e-21)
(0.964968 -0.0216398 3.22282e-21)
(-0.0763255 -0.125994 -6.54303e-20)
(-0.0995135 -0.10945 1.6155e-21)
(-0.0406708 -0.116613 -1.11553e-20)
(0.871526 -0.16942 1.82459e-20)
(0.87849 -0.160703 -4.09718e-21)
(0.865215 -0.159254 0)
(0.99671 -0.0096713 -3.28286e-21)
(0.996338 -0.00958389 -2.27355e-21)
(0.995319 -0.000624737 0)
(0.995612 -0.000649633 0)
(0.995338 -0.00098484 -5.65443e-21)
(0.946318 -0.00684249 9.08449e-21)
(0.946861 -0.0100552 1.88929e-20)
(1.0191 -0.369998 -4.02091e-21)
(1.00274 -0.366091 -5.32466e-21)
(1.01413 -0.353845 -2.32946e-20)
(0.0783308 -0.128358 3.40678e-20)
(0.110227 -0.144089 0)
(0.0832631 -0.172455 0)
(0.990845 -0.0065942 -1.02297e-21)
(0.991522 -0.0064641 0)
(1.00537 -0.00901163 4.91979e-21)
(1.00501 -0.00902829 8.91998e-22)
(1.03306 -0.0186912 -1.06787e-23)
(1.03334 -0.0177196 1.44382e-21)
(1.03415 -0.0188911 -1.89588e-21)
(-0.201306 -0.00434871 8.60758e-20)
(-0.178583 -0.00979541 3.64901e-20)
(-0.0715028 -0.0573459 -3.19407e-20)
(-0.0850559 -0.0620645 -3.2771e-20)
(-0.0612049 -0.0147592 0)
(-0.0114252 -0.018054 1.44576e-22)
(-0.0391006 -0.0167918 4.61134e-20)
(1.03261 -0.00480136 -1.19186e-21)
(1.0321 -0.00530778 7.69932e-22)
(1.0317 -0.00466938 1.45822e-22)
(0.879139 -0.179232 -1.43555e-20)
(0.863788 -0.179574 3.21369e-20)
(0.83053 0.0519471 2.93415e-20)
(0.821423 0.0494117 1.46115e-20)
(0.79376 -0.641442 0)
(0.750921 -0.660327 8.95752e-21)
(0.801017 -0.692072 0)
(1.17731 -0.0888571 -1.43763e-20)
(1.18136 -0.0877434 0)
(1.18083 -0.0927997 -3.26631e-20)
(1.03354 -0.000490585 -1.10099e-22)
(1.03418 -0.00102132 2.35892e-21)
(1.03317 -0.00109466 -1.09387e-21)
(1.03596 -0.00289916 0)
(1.0355 -0.00361581 0)
(1.03658 -0.00363625 2.07552e-22)
(1.03274 -0.0196729 3.20969e-22)
(1.03197 -0.0185163 2.3469e-25)
(1.12105 -0.115367 3.75081e-21)
(1.12618 -0.113931 2.25123e-20)
(0.98554 -0.036611 5.81701e-21)
(0.986784 -0.0380122 1.40693e-20)
(0.984819 -0.0384716 4.83537e-21)
(-0.0064583 -0.0121928 -4.61482e-20)
(-0.0218367 -0.00773869 -1.71742e-20)
(-0.0488628 -0.00521893 8.81395e-21)
(0.998021 -0.00162434 4.6859e-22)
(0.997885 -0.00150568 -5.39153e-21)
(0.997864 -0.00186829 -6.45732e-21)
(1.00932 -0.0163053 -3.24203e-22)
(1.00925 -0.0169622 4.66656e-21)
(1.00994 -0.0168555 1.85274e-21)
(-0.19709 -0.0869453 2.20615e-20)
(-0.20881 -0.085032 -1.28808e-21)
(-0.212218 -0.0957549 -3.96277e-21)
(-0.0575766 0.186536 0)