/*--------------------------------*- C++ -*----------------------------------*\
| =========                 |                                                 |
| \\      /  F ield         | OpenFOAM: The Open Source CFD Toolbox           |
|  \\    /   O peration     | Version:  v2012                                 |
|   \\  /    A nd           | Website:  www.openfoam.com                      |
|    \\/     M anipulation  |                                                 |
\*---------------------------------------------------------------------------*/
FoamFile
{
    version     2.0;
    format      ascii;
    class       surfaceVectorField;
    location    "900";
    object      ddtCorrDdt0(Uf);
}
// * * * * * * * * * * * * * * * * * * * * * * * * * * * * * * * * * * * * * //

dimensions      [0 1 -2 0 0 0 0];


internalField   nonuniform List<vector> 
27907
(
(-0.000990453 -0.00212441 6.91901e-18)
(-0.000934005 -0.00227237 -3.04927e-18)
(-0.0010522 -0.00223068 3.75509e-18)
(0.00349915 -0.00310376 2.57792e-17)
(-0.0133931 -0.00328199 1.6777e-17)
(0.00131716 -0.00292962 -4.34276e-17)
(3.0066e-05 -1.89248e-05 1.64372e-19)
(2.59527e-05 -2.29913e-05 6.9859e-19)
(2.77602e-05 -1.68099e-05 -6.12214e-20)
(0.0518787 0.0205178 5.57851e-19)
(0.0506476 0.0208494 -1.00489e-17)
(0.0513103 0.0199763 7.6094e-18)
(-0.00407571 0.0102054 -1.20661e-18)
(-0.00167376 0.0108252 3.70162e-18)
(-0.00526987 0.00976995 -1.19555e-17)
(-0.0190908 -0.00405662 -9.01119e-18)
(-0.0187269 -0.00403898 1.62744e-17)
(-0.0188898 -0.00357733 -2.71486e-17)
(0.00474723 0.000400076 -1.31235e-18)
(0.00572488 0.000262899 -2.40583e-18)
(0.00486772 0.000366924 -1.82018e-17)
(7.39297e-07 5.87014e-05 3.63067e-21)
(-3.19725e-06 6.61748e-05 -1.23511e-19)
(1.72113e-07 6.24772e-05 3.47783e-19)
(0.0103011 0.0143693 1.93525e-17)
(0.0106322 0.0135918 -1.30039e-18)
(0.0111114 0.0142976 1.92711e-17)
(0.000240362 -9.19384e-06 2.17608e-21)
(0.000239284 -4.05178e-05 -2.14896e-19)
(0.000266282 -2.24147e-05 -2.68345e-19)
(0.000110888 0.000488544 -5.04809e-18)
(0.000125525 0.000502562 1.73538e-18)
(0.000142888 0.00049418 -3.15617e-18)
(-0.00897297 0.00163172 -1.07423e-17)
(-0.00891869 0.00152487 7.0615e-18)
(-0.0137011 0.00189141 1.87641e-17)
(2.72813e-06 5.28683e-06 -6.61746e-19)
(5.80208e-06 3.1447e-06 3.20146e-19)
(3.26411e-06 3.6879e-06 -7.83449e-19)
(-0.0136826 0.0155082 2.01578e-18)
(-0.0132469 0.0153835 7.16771e-19)
(-0.0135211 0.0149965 -9.92212e-18)
(-0.000907755 -0.00100584 -1.58276e-18)
(-0.000950437 -0.000963658 1.10954e-18)
(-0.000865352 -0.000948326 2.53813e-18)
(-0.00156719 0.00143939 -6.40374e-21)
(-0.00137536 0.00144385 1.50049e-17)
(-0.00145942 0.00128131 4.26231e-17)
(-0.00197698 0.00426564 -6.73745e-18)
(-0.00207061 0.00407351 -3.22965e-18)
(-0.00182489 0.00409031 -1.48906e-17)
(-1.83668e-05 2.43093e-05 1.2675e-18)
(-1.76949e-05 1.08647e-05 5.59316e-20)
(-1.65054e-05 2.90248e-05 -4.23468e-19)
(-0.000279744 -0.000382977 2.96528e-19)
(-0.000297665 -0.000380469 6.7049e-20)
(-0.000290649 -0.000401215 2.42537e-18)
(0.000327446 -0.000251737 -7.93521e-19)
(0.000271671 -0.000230367 -7.74544e-19)
(0.000318167 -0.000186213 -5.50347e-19)
(0.0061878 0.002496 -9.06147e-19)
(0.00591567 0.00155527 -2.54027e-18)
(0.00527222 0.00245103 5.24841e-18)
(6.91408e-07 -2.17434e-05 8.05212e-19)
(6.40423e-07 -3.11575e-05 -1.06421e-18)
(1.91367e-06 -2.54157e-05 4.56711e-19)
(0.00116132 0.000144378 -8.14314e-20)
(-0.000402866 0.000284814 1.19202e-17)
(0.00133585 0.000238511 2.04391e-17)
(0.00808056 0.0243787 -4.70733e-18)
(0.00891634 0.0243151 -1.68175e-17)
(0.00886675 0.0252708 -1.38405e-17)
(0.00843941 -0.0104155 2.70323e-17)
(0.00576046 -0.0103273 1.41827e-17)
(0.00488364 -0.0100311 1.29455e-17)
(4.26907e-06 5.04136e-05 -1.43739e-19)
(1.73791e-06 5.53228e-05 5.08459e-20)
(-0.00296008 0.00134786 -1.59209e-18)
(-0.00273212 0.00136235 -2.32609e-19)
(-0.00270823 0.001337 -4.47013e-18)
(-0.0117298 0.00721544 -4.30414e-19)
(-0.00909527 0.00788177 9.4642e-18)
(-0.0106121 0.0076302 -1.06936e-18)
(-0.0380927 -0.00623066 -2.8587e-17)
(-0.040119 -0.00573056 -1.57656e-17)
(-0.039303 -0.00646378 -1.21723e-17)
(-0.00227299 -0.00262442 1.29369e-17)
(-0.00417601 -0.00056115 2.09313e-17)
(-0.00461235 -0.00456118 2.25026e-17)
(-0.00713028 0.00796966 2.19776e-18)
(-0.00703733 0.00832338 9.41821e-18)
(-0.00673162 0.00807756 -3.1806e-18)
(0.0237269 0.00261782 1.38857e-18)
(0.022953 0.00338349 6.37652e-18)
(0.023859 0.00339989 -3.77451e-18)
(9.71388e-06 -2.98642e-06 -6.33809e-19)
(8.53618e-06 -3.09663e-06 1.64274e-18)
(9.51784e-06 -1.89571e-06 1.87839e-18)
(-0.000485848 1.35477e-06 2.3081e-18)
(-0.000514443 -7.11656e-06 5.70157e-19)
(-0.00050201 -3.65666e-05 3.4338e-19)
(-0.0046936 0.0142819 5.08319e-18)
(-0.00497004 0.0139188 -2.27283e-19)
(-0.00514467 0.0143329 -9.70959e-18)
(1.01407e-05 -0.000109744 -1.62263e-18)
(1.05842e-05 -0.000104454 1.86634e-19)
(1.02514e-05 -0.000105222 -3.94965e-18)
(4.78748e-06 -5.08584e-06 1.29382e-18)
(3.83007e-06 -4.27493e-06 -4.8023e-20)
(3.98502e-06 -5.5025e-06 7.98036e-19)
(-0.000134398 0.000237312 -1.05413e-18)
(-0.000125323 0.00024573 8.19693e-19)
(-0.000122044 0.000262752 -1.65599e-18)
(-0.000127237 0.000290187 1.54324e-19)
(-0.000145906 0.000265378 2.3101e-18)
(-0.000135699 0.00027481 7.59318e-19)
(-0.00118372 0.00468391 -4.27777e-18)
(-0.00109561 0.00448345 -8.37342e-18)
(-0.00136308 0.00450896 -7.85337e-18)
(-0.000156158 0.000193898 -8.64509e-19)
(-0.000146083 0.000220322 -1.13374e-19)
(-0.000150435 0.000200549 -2.33598e-19)
(-0.000115392 0.000121828 -4.79405e-18)
(-0.000110101 0.000124529 1.37295e-17)
(-0.000101357 0.000115866 7.04961e-18)
(-8.23955e-05 -6.30196e-05 9.47223e-19)
(-8.32843e-05 -4.47901e-05 -9.81994e-19)
(-8.54646e-05 -6.82954e-05 -8.57248e-19)
(9.37542e-06 7.27706e-05 6.42218e-20)
(1.91894e-05 6.85244e-05 4.71121e-18)
(2.3562e-05 7.86524e-05 2.19097e-18)
(-0.00228872 -0.00324185 1.79293e-18)
(-0.00133445 -0.000669998 -3.02948e-18)
(-0.0031864 -0.00186359 1.53123e-17)
(-3.72788e-05 1.25281e-05 -6.14331e-19)
(-3.8364e-05 8.1062e-06 -2.39586e-19)
(-3.83692e-05 9.82838e-06 -4.78714e-19)
(0.00110737 9.91552e-05 8.18951e-18)
(0.00226753 7.32834e-05 -5.49705e-18)
(0.000299435 0.000434106 -1.33314e-18)
(0.000299098 0.000445667 2.67211e-18)
(0.000274069 0.000443361 2.51774e-18)
(0.000218021 1.98727e-06 -2.73879e-19)
(0.00024025 1.62847e-05 1.10314e-19)
(-6.98002e-05 -0.00013553 -8.30363e-19)
(-6.49643e-05 -0.000149081 2.59951e-19)
(-6.64453e-05 -0.000130384 2.80532e-19)
(0.0041189 -0.00394779 -1.03325e-17)
(0.00436705 -0.00396631 -1.2247e-17)
(0.00421956 -0.004224 -1.20183e-18)
(0.0222228 0.0124708 -1.283e-19)
(0.021024 0.0123284 -2.92693e-18)
(0.0249519 0.0132937 -2.86182e-17)
(-2.25508e-05 -6.88266e-05 3.33474e-19)
(-1.95677e-05 -7.81442e-05 4.43373e-19)
(-1.7638e-05 -7.47618e-05 1.38321e-18)
(9.7871e-05 0.000475559 -2.70191e-18)
(7.91573e-05 0.000477266 2.61436e-20)
(-0.0142691 0.00627737 6.9376e-19)
(-0.0132246 0.00654732 -2.50565e-17)
(-0.0332092 0.000605232 -1.80767e-17)
(-0.0273083 -0.00188399 7.69276e-18)
(-0.0226761 -0.00258803 -5.83141e-18)
(5.75445e-06 -4.75439e-06 3.61779e-19)
(5.77246e-06 -6.11075e-06 1.99581e-19)
(-0.000918839 0.00126209 2.47317e-17)
(-0.00086764 0.00117304 -7.48977e-18)
(2.00274e-05 -0.000256587 -1.27492e-19)
(2.4138e-05 -0.000252276 2.18207e-18)
(2.47234e-05 -0.000256693 3.76579e-19)
(-0.0125662 0.015954 -1.22753e-17)
(-0.0129456 0.0157083 -4.85305e-18)
(-0.012999 0.0161892 3.75565e-18)
(-0.000250682 -0.00242568 -7.55833e-19)
(-0.000361592 -0.00237259 7.01538e-18)
(-0.00033751 -0.00251311 2.1885e-18)
(0.00468989 0.000333481 -1.75032e-17)
(0.00406756 0.000503413 -1.69603e-17)
(0.00641327 0.00842564 -8.26158e-18)
(0.00615052 0.00885858 2.16887e-18)
(0.00667789 0.00877866 -4.11273e-18)
(5.17291e-07 -2.5272e-05 -4.75811e-18)
(6.03551e-06 -3.53504e-05 -1.15655e-18)
(8.13908e-07 -4.15639e-05 7.33669e-19)
(-2.66414e-05 -6.34985e-05 -1.46976e-18)
(-2.4512e-05 -6.05746e-05 -6.65848e-20)
(-2.73011e-06 0.000191976 -1.64079e-18)
(-4.61731e-07 0.00019452 -8.65153e-19)
(-3.39632e-06 0.000193131 -1.29656e-18)
(-0.00170294 0.00490575 -1.32701e-17)
(-0.00202619 0.0048648 1.17768e-17)
(-0.00179554 0.00465627 9.16343e-18)
(1.06769e-05 -2.59868e-06 -1.64051e-18)
(1.02802e-05 -3.80926e-06 -2.63411e-18)
(-0.000133245 0.000217888 -1.24096e-18)
(-0.000125414 0.000229726 2.63427e-18)
(-0.000136744 0.000205691 2.30228e-18)
(0.0201722 0.0117838 4.23553e-18)
(0.0229873 0.0125145 9.50268e-18)
(0.0135112 0.0109819 -1.37841e-18)
(0.0143711 0.0109686 -2.5706e-18)
(0.0119821 0.00997402 5.9782e-18)
(-8.05991e-06 -0.000214147 4.07934e-20)
(-4.81042e-06 -0.00019981 -2.06752e-18)
(-4.46421e-06 -0.000213867 -4.88976e-18)
(-7.41986e-05 -0.000120267 -1.72152e-18)
(-7.29581e-05 -0.000140435 -6.67567e-19)
(-0.000485306 0.0113651 3.52616e-17)
(-0.00533489 0.016604 3.94842e-17)
(0.00353098 0.0114118 1.14895e-17)
(-4.88779e-05 0.00012356 3.31469e-19)
(-4.38141e-05 0.000126387 7.33531e-19)
(-4.79799e-05 0.000118136 7.67801e-19)
(3.18303e-05 -0.000239074 -1.88391e-18)
(3.01221e-05 -0.000252923 -2.71137e-18)
(1.69287e-05 -0.000247204 -2.266e-18)
(0.00200956 0.0189023 -5.13249e-17)
(0.00254165 0.0185116 -5.80273e-18)
(0.00265364 0.0190848 -1.94921e-17)
(-9.88045e-07 0.0112045 5.80508e-18)
(-0.0024657 0.00999735 2.87241e-17)
(-0.0013004 0.0106567 -2.12727e-18)
(-0.00127267 -0.000267215 6.20876e-18)
(-0.00125191 -0.000359067 4.61554e-18)
(-0.00135516 -0.000333532 -1.8888e-18)
(0.00197854 0.00122393 -4.03279e-17)
(0.00198019 0.00115448 2.36858e-18)
(0.00269828 0.00107917 -7.13965e-17)
(-0.00510331 -0.00399655 1.74647e-17)
(-0.00494831 -0.00367423 -1.35821e-17)
(-0.00867603 -0.00373918 6.84053e-18)
(-0.00305402 -0.0042101 4.09938e-17)
(-0.00490988 -0.0022662 -2.97942e-17)
(-0.00887706 -0.00492109 3.19862e-17)
(-0.0122714 0.0157628 -4.04824e-18)
(-0.0123114 0.0161952 8.88676e-19)
(-0.0180698 -0.00166043 1.86709e-17)
(-0.0174961 -0.00180869 -8.72244e-18)
(-0.0172462 -0.00119946 3.9086e-17)
(0.00143937 0.0189562 -2.6661e-18)
(0.00173823 0.0195922 1.35119e-18)
(0.00033548 0.00156182 -9.09328e-18)
(0.000422043 0.00150077 5.73196e-18)
(0.000285426 0.00147559 1.07801e-17)
(-0.0144415 0.0041252 2.60762e-17)
(-0.0143582 0.00457387 1.69532e-18)
(-0.0177104 0.00450761 5.296e-17)
(0.00670763 0.00809672 5.97811e-18)
(0.00614774 0.00812578 1.20284e-17)
(0.00257343 -0.000493938 1.2649e-17)
(0.00234436 -0.000361603 2.01995e-17)
(0.00344384 -0.000136857 -1.55807e-17)
(3.37739e-05 -0.000239763 7.55965e-19)
(3.13426e-05 -0.000239362 -1.42701e-19)
(-0.0186504 -0.00139947 6.77556e-18)
(-0.018826 -0.00213613 1.21296e-17)
(1.50464e-05 -0.000256531 -5.85902e-20)
(1.86496e-05 -0.00025053 -1.0057e-18)
(-0.00431709 0.00189053 1.26978e-17)
(-0.00403103 0.00203793 1.30099e-17)
(-0.00841275 0.00270598 6.72026e-19)
(-0.000122469 0.00011907 -1.47367e-17)
(-0.000126461 0.000128764 -1.87802e-17)
(-0.00666542 -0.00457522 1.6047e-17)
(-0.00590325 -0.00369819 -2.94447e-17)
(-0.00869881 -0.00505835 -1.00304e-17)
(-0.00445833 0.00197004 -2.16573e-17)
(-0.00208629 0.00160704 4.09357e-17)
(0.000828085 0.0191809 8.7486e-18)
(0.00105687 0.0184428 1.00077e-17)
(-5.24532e-05 0.000119814 -2.04631e-19)
(-4.91561e-05 0.000129582 6.21132e-19)
(9.51894e-06 -0.000181189 -6.06615e-19)
(8.66794e-06 -0.000176333 -2.36181e-19)
(1.13878e-05 -0.000185699 -5.21622e-19)
(0.00660503 0.00337399 3.84111e-18)
(0.00715544 0.002498 6.09325e-18)
(0.000451944 -0.000322542 5.41717e-18)
(0.000410555 -0.000366769 -2.22108e-18)
(0.000398542 -0.000297966 -2.60252e-18)
(-0.0194853 -0.00129311 2.63841e-18)
(-0.0204186 -0.00162881 5.0478e-18)
(-0.0208911 -0.000843184 -1.36509e-17)
(-0.00038144 0.0101297 3.06151e-18)
(-0.000561157 0.00979219 -9.85011e-18)
(-0.000769905 0.0101611 7.78404e-18)
(0.00184006 -0.00101811 -8.12499e-18)
(0.00172652 -0.00105634 5.6143e-18)
(0.00177527 -0.000924831 -3.18797e-18)
(0.0237583 0.00172199 2.45755e-18)
(0.0246899 0.00204898 1.37678e-17)
(-0.00179342 -0.0017308 -6.02073e-18)
(-0.00217632 -0.00207288 -1.83177e-17)
(0.0310889 0.0237645 9.99236e-18)
(0.0307415 0.0238166 6.30215e-18)
(0.0287598 0.0247389 5.07481e-18)
(0.00104539 0.0114114 -5.19007e-18)
(0.00368657 0.0120076 -1.593e-17)
(1.59079e-05 0.000416464 5.79893e-19)
(-1.84227e-06 0.000408336 2.91841e-18)
(2.7506e-06 0.000412303 1.50637e-18)
(-3.10988e-05 -0.000236596 -5.13572e-19)
(-3.20467e-05 -0.000242362 6.29531e-19)
(-3.86813e-05 -0.000233506 1.00271e-17)
(-0.00909943 0.00297318 -2.01677e-17)
(-0.00475265 0.00213907 -2.70364e-17)
(-0.00936435 0.000241423 -2.89263e-17)
(1.32974e-05 1.10903e-05 7.68115e-21)
(1.33152e-05 1.09652e-05 2.91154e-22)
(1.43476e-05 9.55764e-07 2.01049e-20)
(7.38369e-05 0.000101345 7.71194e-19)
(7.68999e-05 0.000120806 3.57128e-19)
(7.45299e-05 0.000100568 9.21825e-20)
(-0.0134876 0.00844693 1.62242e-17)
(-0.0123404 0.00955074 8.51793e-18)
(-0.012951 0.0078641 9.06887e-19)
(-0.0183782 -0.00161743 -4.60009e-18)
(-0.0175505 -0.000850549 -3.83091e-18)
(-0.019031 -0.00145711 -1.0209e-17)
(-0.0298194 -0.000962309 -4.29271e-19)
(-0.0294973 -0.000827919 2.71357e-18)
(-0.0287031 -0.00119158 -5.85905e-18)
(-0.000927089 -0.00106854 -3.17062e-19)
(-0.000845329 -0.00104379 -4.52337e-18)
(-0.00103317 0.00119464 4.97404e-17)
(-0.0046359 0.00136794 1.11938e-17)
(-0.00114023 0.00107194 -2.78217e-17)
(-0.00595259 -0.0043755 2.36749e-17)
(-0.00392373 -0.00515291 -3.25239e-17)
(0.00185511 0.00119391 -1.41913e-17)
(0.00173183 0.00123105 -1.20083e-17)
(0.00175662 0.00110237 -1.60458e-17)
(-1.15216e-05 -0.000125919 -7.58827e-19)
(-8.86933e-06 -0.00014224 7.39067e-19)
(-1.17875e-05 -0.000141853 -6.21737e-19)
(-0.0362576 -0.00239193 -1.72416e-17)
(-0.0358469 -0.00278228 -4.68128e-17)
(-0.0342762 -0.00238865 -8.91622e-17)
(-0.00190789 0.00182649 -7.95404e-18)
(-0.00202059 0.00164387 2.38352e-18)
(-0.00213216 0.0018972 -6.93264e-18)
(-0.00248358 -0.00317559 -7.0198e-18)
(-0.00272874 -0.00319524 -2.1903e-17)
(-0.00266391 -0.00324202 1.19441e-17)
(-0.0034054 -0.00566072 2.55316e-17)
(-0.00309336 -0.00484254 -3.58824e-18)
(0.00488111 -0.00388205 -5.28559e-18)
(0.0133783 -0.0031987 4.07067e-17)
(0.0152254 0.0170467 -7.58542e-18)
(0.0149057 0.018187 -2.22364e-17)
(0.0165727 0.0175461 6.96737e-18)
(-0.00350056 0.00193614 -2.82101e-17)
(-0.00179037 0.00140357 1.60466e-17)
(-5.64275e-06 1.1284e-06 -5.36561e-19)
(-7.7862e-06 2.69821e-06 2.22413e-18)
(-1.57235e-05 2.4365e-06 -8.64796e-20)
(-0.00188326 0.00443986 -2.20168e-18)
(-0.00213833 0.00442205 -1.89988e-19)
(-0.00332568 0.000950168 3.71405e-18)
(-0.00287452 0.00104313 3.57445e-19)
(0.00557722 0.00117557 -1.36858e-17)
(0.006021 0.00105046 1.85821e-18)
(-0.000616518 -0.00032208 1.3733e-17)
(-0.000624919 -0.000277578 3.06096e-18)
(-0.000577065 -0.000313622 1.5886e-18)
(-0.000796869 0.00240337 5.11233e-19)
(-0.00090664 0.00262021 8.72318e-18)
(2.09028e-06 7.59043e-05 -8.35103e-18)
(3.86589e-07 8.43164e-05 -2.3487e-18)
(6.83677e-06 8.38823e-05 -1.98955e-18)
(0.00305428 0.018219 4.40033e-17)
(0.00239534 0.0180042 3.31285e-17)
(-0.00127218 0.00487723 5.47779e-18)
(-0.000995494 0.00487243 7.21845e-18)
(1.29356e-05 -0.000185838 5.69174e-19)
(9.57448e-06 -0.000177441 -2.91453e-19)
(-0.000961076 0.000323097 -4.86985e-18)
(-0.000931612 0.00032772 -1.86432e-17)
(-0.000959113 0.00034994 -2.6451e-18)
(-0.0012245 -0.000209821 -1.80163e-18)
(-0.00131916 -0.000187267 3.39354e-18)
(-0.00220172 -0.000561769 2.96687e-18)
(-0.00227168 -0.000423903 5.3525e-18)
(-0.00233657 -0.000577788 1.47985e-18)
(6.29587e-05 -6.13335e-05 5.43735e-21)
(6.2719e-05 -3.7025e-05 -4.36899e-19)
(6.49786e-05 -5.28755e-05 1.42795e-18)
(-0.0364846 0.000950231 -2.15029e-18)
(-0.0383596 0.00166759 6.82428e-18)
(-0.000162743 0.000173627 -2.63778e-18)
(-0.00015821 0.000192319 -2.45175e-18)
(-0.000348356 -0.000453907 -1.23798e-18)
(-0.000341011 -0.000471808 -4.82397e-19)
(-0.000321731 -0.000455952 3.72643e-18)
(-0.0143546 0.00214355 -2.32306e-18)
(-0.0151471 0.00207263 -8.99677e-18)
(-0.0149446 0.00143845 -7.37166e-18)
(0.0420779 0.0010266 -4.19422e-19)
(0.0421509 0.00167198 -1.07353e-17)
(0.0436623 3.74753e-05 -4.43845e-18)
(-0.00716703 0.00760298 1.54897e-18)
(-0.00750255 0.00783424 -2.86818e-18)
(0.00460708 0.018054 4.23187e-18)
(0.00341187 0.0168165 2.27286e-17)
(0.00515338 0.0169153 1.68602e-17)
(-0.00359659 -0.00287313 3.71681e-17)
(-0.00209025 -0.00421226 2.22136e-17)
(-0.000830366 0.0242859 -2.93758e-18)
(0.0100685 0.0250454 -8.39515e-18)
(0.000834542 0.0244028 -1.25136e-18)
(0.000494892 0.00144478 -7.91867e-18)
(0.00045232 0.00136391 -3.4337e-21)
(0.000580642 0.00138754 -6.54327e-18)
(-9.76993e-07 -1.97604e-05 -1.80407e-20)
(1.38522e-06 -2.65456e-05 1.94103e-19)
(-2.23626e-07 -2.23401e-05 1.83824e-18)
(-2.24295e-05 -0.00245275 1.4462e-17)
(-0.000402842 -0.00286576 -1.56701e-17)
(0.00099909 -0.00245526 -7.26691e-18)
(0.000688747 0.000906439 1.2907e-17)
(0.000612148 0.000901266 6.82582e-18)
(0.000640812 0.000853764 2.46321e-18)
(0.000801148 0.0013127 8.62123e-17)
(-0.000656781 0.00148427 -1.63381e-18)
(0.000301456 0.000425325 -4.27246e-18)
(0.000326195 0.000426174 2.03676e-19)
(4.97459e-05 -0.000104368 -2.14625e-18)
(5.04521e-05 -9.44007e-05 3.23522e-19)
(4.89479e-05 -0.000118868 -4.71164e-18)
(1.26912e-07 -1.68961e-05 -4.77577e-19)
(3.68198e-07 -8.00319e-06 3.66721e-19)
(3.25754e-07 -8.31771e-06 -3.88558e-19)
(1.95855e-05 -5.26806e-05 -3.27696e-20)
(2.0245e-05 -4.14624e-05 7.24824e-19)
(2.01921e-05 -5.69254e-05 3.55768e-19)
(-0.0116048 0.0157725 5.08393e-18)
(-0.0118731 0.0157017 -5.20219e-18)
(-0.0117706 0.0160465 -6.60949e-18)
(-0.00610827 0.0029496 7.19807e-18)
(-0.00794113 0.00310577 -1.63305e-17)
(-0.00333559 0.00207285 1.36261e-17)
(4.86839e-05 -0.000115611 3.75945e-18)
(5.27734e-05 -9.20902e-05 -1.07553e-18)
(-0.000136961 -0.00246701 -1.84367e-17)
(-0.000169862 -0.00234936 -7.02979e-18)
(-0.0370008 -0.00598217 4.20861e-18)
(-0.0363194 -0.00696406 7.96833e-18)
(-0.000309367 -0.000336805 6.17275e-19)
(-0.000326863 -0.000332064 1.79548e-18)
(-0.000310635 -0.000311355 3.3575e-18)
(-0.0309922 -0.000572414 -1.56976e-17)
(-0.0326815 -0.000768416 7.51425e-19)
(-0.0297611 -0.00030946 9.81198e-18)
(0.000163949 -0.00488497 -4.72337e-18)
(4.19412e-05 -0.0046513 -4.16211e-17)
(0.000231121 -0.0046651 -2.01421e-17)
(-0.0173527 -0.00185883 -3.14442e-17)
(-0.0169673 -0.00118437 4.9272e-18)
(-0.0174483 -0.00180832 -3.31501e-18)
(-0.00944784 -0.0042394 2.19726e-17)
(-0.00879869 -0.00408823 -1.64813e-17)
(-0.00889822 -0.00487704 1.75683e-17)
(-1.70183e-05 3.24147e-05 9.90144e-19)
(-1.78968e-05 1.84557e-05 -2.74266e-19)
(-0.00985633 0.00385646 -2.94478e-17)
(-0.00488176 0.00250474 -1.2706e-17)
(-0.00995536 0.00798022 -6.6471e-18)
(-0.00922032 0.00828284 3.48414e-18)
(-0.00716305 0.00870413 1.83262e-18)
(-0.0113748 0.0155243 4.0263e-18)
(-0.0113183 0.0159132 3.55912e-18)
(0.00706031 0.0236584 2.50642e-18)
(0.00711772 0.0245852 -1.06155e-17)
(-0.0291114 -0.00222226 -1.89584e-17)
(-0.0296495 -0.00325156 2.91713e-17)
(-0.0301352 -0.00246995 2.18195e-17)
(6.68655e-07 -1.00641e-05 2.8332e-19)
(-4.53457e-06 -1.86456e-05 -1.13567e-17)
(-0.000914019 0.000275612 1.08084e-17)
(-0.000982182 0.000263395 -4.43985e-18)
(-8.88334e-06 0.000384869 -1.22527e-18)
(-1.08113e-05 0.000387385 6.89214e-20)
(-1.85398e-05 0.000381115 3.5254e-19)
(1.21369e-05 -3.88789e-05 -2.88453e-20)
(1.07438e-05 -4.41178e-05 -2.95005e-19)
(1.2185e-05 -3.60879e-05 9.73848e-20)
(-0.0179104 -0.000411068 9.39182e-19)
(-0.0182128 -3.52734e-05 -3.63038e-18)
(-0.0054285 0.0242631 7.25046e-18)
(-0.00214096 0.0246049 1.8612e-17)
(-8.68197e-05 -0.000262906 -2.68853e-18)
(-8.5884e-05 -0.000278196 -8.02472e-19)
(-9.58846e-05 -0.000263368 -1.77434e-18)
(-0.00143031 0.000363577 -1.59326e-18)
(-0.00151889 0.000374466 -9.35779e-20)
(-0.00145001 0.000442326 -1.94699e-18)
(-0.00608325 0.0243197 4.13295e-18)
(-0.00460322 0.023746 9.34867e-18)
(-0.00583841 0.0235225 1.27562e-17)
(8.19372e-06 -0.000194405 6.71735e-19)
(9.399e-06 -0.000206199 3.87342e-19)
(1.06847e-05 -0.000201673 -5.77244e-19)
(-0.0175926 -0.00151056 -1.58299e-17)
(-0.0175311 -0.00226083 1.20498e-17)
(-7.66892e-05 -5.94577e-05 -5.65955e-19)
(-7.42966e-05 -7.8402e-05 4.65569e-19)
(-7.29147e-05 -5.74884e-05 4.30454e-19)
(1.83046e-06 -0.000151094 -2.06193e-18)
(8.66171e-07 -0.000165471 -1.80845e-18)
(1.42832e-06 -0.000166182 1.69106e-18)
(-0.000612615 -0.000392513 1.10584e-17)
(-0.000666458 -0.000358074 -1.16772e-18)
(0.0156019 0.0165476 -4.5363e-18)
(0.014634 0.0165895 7.10732e-18)
(0.000109424 0.000234991 8.98473e-19)
(0.000113397 0.000241434 4.37313e-19)
(0.000109829 0.000224643 7.89459e-19)
(-0.00717849 0.00723884 1.38636e-18)
(-0.00682042 0.00737297 -7.57355e-18)
(-0.000107805 -0.000222957 2.0357e-18)
(-0.000139143 -0.000219532 1.19664e-18)
(-0.000118918 -0.000257513 7.4214e-18)
(0.00699235 0.00776799 1.52041e-17)
(0.00720439 0.00810773 -2.54133e-18)
(0.000367407 -0.000271238 1.32539e-18)
(0.000335352 -0.000305285 -2.20174e-21)
(0.0003437 -0.00517187 1.52968e-17)
(1.00504e-05 -0.00524819 4.33454e-17)
(1.75521e-05 -1.95244e-05 1.04197e-18)
(1.64012e-05 -2.30723e-05 3.8526e-19)
(1.66289e-05 -2.52063e-05 1.60665e-19)
(-8.07442e-05 -6.0741e-05 3.87998e-19)
(-8.07184e-05 -8.30368e-05 1.90202e-18)
(-0.000702979 0.000501156 -1.00158e-17)
(-0.000755229 0.000472751 1.00663e-18)
(-0.000715875 0.000449149 5.42992e-18)
(0.000299133 0.000417787 6.40096e-20)
(0.000276774 0.00042496 -1.31709e-18)
(0.000899622 -0.00054159 1.65738e-18)
(0.000831197 -0.000539247 -5.03888e-20)
(0.000872979 -0.000618933 8.43687e-18)
(0.00497131 0.00577795 -2.18217e-18)
(0.00519925 0.00556285 9.25923e-18)
(0.00527862 0.00597259 1.04281e-18)
(3.16335e-06 7.02779e-06 -2.40899e-19)
(2.41929e-07 7.21191e-06 6.74183e-19)
(-9.27347e-05 -0.000197017 -6.3203e-19)
(-7.93002e-05 -0.000231412 -3.81065e-18)
(0.000345821 0.0100404 -1.36519e-17)
(0.000742901 0.00999732 -2.06376e-17)
(0.000554988 0.010383 -4.86585e-18)
(-1.98709e-07 -1.23444e-05 2.7122e-19)
(-2.05817e-07 -2.04842e-05 2.49584e-19)
(0.0101379 0.00235821 -5.1049e-19)
(0.009675 0.00149478 -1.13255e-17)
(0.0091999 0.00253563 -3.02413e-18)
(0.00019467 1.24589e-05 3.77274e-19)
(0.000192986 -1.61795e-05 -8.33843e-19)
(-1.78827e-05 -3.00498e-07 -2.17882e-19)
(-1.92278e-05 -9.1397e-06 -1.55765e-19)
(-2.05682e-05 3.72379e-06 -8.42909e-19)
(0.0018759 -0.00104941 7.55226e-18)
(0.00189345 -0.00102553 1.5757e-18)
(6.16773e-05 -6.05259e-05 7.90422e-19)
(6.3482e-05 -4.23484e-05 1.19033e-18)
(5.33434e-05 -7.23966e-05 2.81875e-18)
(0.00101076 -0.000423672 -1.57059e-18)
(0.00107298 -0.000435826 -3.59123e-18)
(0.00105528 -0.000505663 6.22155e-18)
(-0.00113088 -6.06706e-05 -8.12624e-19)
(-0.00106348 -2.74698e-05 1.65491e-18)
(-0.00107767 -0.000105173 -2.71592e-18)
(-0.00740207 -0.00160106 5.1255e-18)
(-0.00429694 -0.00131484 3.94012e-17)
(-0.00447235 -0.00173525 -4.94366e-17)
(-0.00117254 -3.60395e-07 4.19013e-18)
(-0.00118882 -8.95002e-05 -7.47046e-19)
(-0.00110174 0.00137444 -3.94737e-17)
(-0.00120703 0.00138914 -1.97173e-17)
(-0.00115236 0.00128658 -1.88554e-17)
(-4.48238e-05 4.27449e-05 5.91303e-19)
(-4.62327e-05 3.69567e-05 2.12468e-19)
(-4.44441e-05 4.94104e-05 6.23522e-19)
(-0.0199614 -0.0040334 2.95091e-17)
(-0.0192952 -0.00451407 -9.89071e-18)
(-1.87555e-05 -4.31746e-06 -7.32395e-19)
(2.86861e-05 0.000419606 9.40005e-19)
(3.52597e-05 0.000425213 3.00502e-19)
(-0.00195083 0.0179372 2.15648e-17)
(-0.00155579 0.0182965 2.15528e-17)
(-0.0015205 0.0177198 4.35391e-19)
(-0.0134588 0.00216 3.03589e-17)
(-0.0139195 0.00281787 4.57385e-18)
(0.0037304 -0.00623667 -3.9681e-18)
(0.00377683 -0.00654001 1.84864e-18)
(0.00349265 -0.00631567 -1.10626e-17)
(-5.09548e-05 0.0100978 8.47276e-18)
(0.000161496 0.00970208 1.14863e-17)
(0.00391557 0.00107235 -8.07934e-19)
(0.00390307 0.00130562 1.34219e-17)
(0.00371074 0.00114411 8.88207e-18)
(-0.000366567 -0.000606674 -9.77191e-19)
(-0.000373589 -0.000662208 2.98685e-20)
(-0.000421392 -0.000622676 1.85193e-18)
(-2.70892e-05 -0.000297202 6.46819e-20)
(-1.82956e-05 -0.000295685 -1.51667e-18)
(-2.79992e-05 -0.000305576 1.92883e-18)
(0.00539882 0.00523355 3.84881e-18)
(0.00562705 0.00505649 -2.32851e-18)
(0.00573366 0.00540962 -2.20561e-19)
(-1.8171e-06 0.000185034 1.92785e-18)
(-4.70086e-06 0.000185797 -6.3974e-19)
(0.00671294 0.00743895 -9.19264e-19)
(0.00725996 0.00736345 -1.3927e-17)
(0.0012107 -2.2148e-05 -1.57325e-18)
(0.00150332 -0.000415332 -2.49942e-17)
(0.00236676 -0.000239458 -3.37768e-17)
(0.000327712 0.01933 1.45248e-17)
(0.000639968 0.0198524 -1.13976e-17)
(1.08198e-05 9.37376e-07 1.40017e-18)
(8.05652e-06 2.59025e-06 7.5167e-19)
(5.83371e-06 -0.000180085 1.54482e-18)
(5.40986e-06 -0.000185791 -2.04568e-19)
(-3.851e-05 -0.000297806 -1.02012e-19)
(-2.97143e-05 -0.000287743 -2.25377e-19)
(-3.27525e-05 2.15115e-05 -9.20774e-20)
(-2.99201e-05 2.57709e-05 1.1012e-19)
(-2.98657e-05 2.2297e-05 -4.61244e-19)
(-0.038642 -0.00258811 5.39518e-17)
(-0.0364749 -0.00227885 4.01829e-17)
(0.00145417 -9.41457e-05 7.6841e-18)
(0.00138336 -9.37471e-05 -2.52221e-18)
(0.0014354 -0.000172532 2.61011e-18)
(1.31366e-05 -0.000117779 -1.96276e-19)
(1.33737e-05 -0.000119304 4.69811e-19)
(1.43996e-05 -0.000111048 -3.47577e-19)
(1.133e-05 -0.00696702 -4.14777e-17)
(0.000251688 -0.0074355 1.16225e-17)
(0.000833401 -0.00730252 -1.37425e-17)
(0.0321171 0.0230102 -3.39091e-19)
(0.0315667 0.0235523 -1.12151e-18)
(-0.00024428 0.000306477 5.7139e-19)
(-0.000247357 0.000324895 4.03849e-19)
(-0.000271774 0.000289764 2.9909e-18)
(0.00580311 0.0183128 -2.47478e-17)
(0.00551797 0.0189194 1.82231e-17)
(-0.00619492 -0.00325408 -1.0959e-17)
(-0.022347 0.00753846 5.13309e-17)
(-0.00970773 0.0107431 5.82993e-17)
(-0.000200536 0.0194472 5.02887e-18)
(2.46211e-05 0.018772 6.78286e-18)
(8.85495e-06 -0.000112432 6.60343e-19)
(8.56364e-06 -0.000113654 -4.40549e-19)
(-0.0056718 -0.00371456 -5.47519e-18)
(-0.0055845 -0.00448046 -7.29806e-18)
(-0.00856046 -0.00391705 2.11933e-17)
(-0.000208864 0.000207334 -2.89524e-18)
(-0.000202718 0.00021957 -6.20042e-18)
(-0.000195516 0.000204149 1.8734e-17)
(1.2166e-05 -9.09264e-05 2.00467e-19)
(1.41095e-05 -8.55059e-05 3.89887e-18)
(1.49706e-05 -8.03375e-05 2.44246e-18)
(-0.0314425 -0.000784636 -9.92057e-18)
(-0.026733 -0.000637758 1.68429e-17)
(0.000378152 0.00163357 -1.59519e-17)
(0.000267983 0.00162832 -9.24823e-18)
(-0.0002233 0.000211702 2.92151e-18)
(-0.000211795 0.000198366 -2.45258e-18)
(-0.000595739 -0.00070743 -2.77518e-18)
(-0.000607276 -0.000736852 -7.4687e-19)
(-0.000639233 -0.000712045 4.2022e-18)
(0.00217863 0.00106427 6.93559e-19)
(0.00206209 0.0010563 3.99413e-18)
(0.0021141 0.0011691 1.54593e-17)
(0.00233002 0.0233495 2.58888e-18)
(0.0027692 0.0238157 -2.00669e-19)
(0.00302629 0.0230484 -6.49306e-18)
(-0.00110567 0.00150836 -1.47073e-17)
(-0.00101348 0.00139321 -3.26808e-17)
(0.000957269 -0.000431348 2.52075e-18)
(0.000962497 -0.000372377 -2.75893e-20)
(-0.00122865 -0.000464021 1.5191e-18)
(-0.00129601 -0.000536017 -1.9816e-18)
(-0.00119874 -0.000557536 2.65065e-19)
(7.04902e-05 -0.000293535 5.2967e-19)
(6.56071e-05 -0.000311376 -6.24373e-19)
(0.00026922 0.00814309 2.7243e-18)
(0.000143786 0.00849902 -4.16309e-18)
(-0.000120079 0.00819237 1.37065e-18)
(1.33282e-05 0.000150019 -1.22166e-18)
(1.31569e-05 0.000154396 2.50735e-18)
(1.38175e-05 0.000150863 1.473e-18)
(0.00474125 0.00608245 -2.2763e-19)
(0.00467417 0.00567429 -1.03469e-18)
(0.000175317 2.30609e-05 1.86938e-20)
(0.000196101 3.55737e-05 9.4333e-19)
(-0.00230398 0.017656 1.15977e-17)
(-0.0022317 0.0181937 -3.98373e-18)
(0.00226999 -0.000911509 -5.0627e-18)
(0.00352714 -0.000590921 4.46194e-17)
(0.00191606 -0.00091277 -3.32325e-17)
(-4.25945e-05 5.06082e-05 -4.74095e-20)
(-4.5134e-05 3.76639e-05 7.8164e-20)
(-3.00963e-05 0.00038751 -3.58606e-18)
(-3.00311e-05 0.000390415 -1.28702e-18)
(-1.59601e-05 0.000398629 1.30481e-18)
(-0.0026573 -0.00106911 5.03737e-18)
(-0.00264374 -0.00126064 -1.79738e-17)
(-0.00273603 -0.00118903 1.18363e-18)
(-4.48383e-05 0.00037594 1.04914e-18)
(-3.01997e-05 0.000385304 -1.43076e-18)
(-0.00140839 0.000287714 3.55714e-18)
(-0.0013577 0.000355232 3.98044e-18)
(0.00504817 0.00513728 1.06405e-17)
(-0.0370284 -0.00802542 -2.60876e-17)
(-0.0384549 -0.00799213 8.58047e-17)
(-0.0373725 -0.00790347 8.91629e-17)
(-0.0302602 -0.000972591 5.05302e-18)
(-0.0293436 -0.00042488 1.91661e-17)
(5.88534e-05 -9.8846e-05 2.73043e-19)
(5.91629e-05 -9.73416e-05 -4.28437e-19)
(5.71953e-05 -0.000116236 -1.37527e-18)
(0.00456228 -0.00349616 1.93798e-17)
(0.00460066 -0.00320361 -2.59851e-18)
(0.00430392 -0.00333997 -1.37586e-17)
(0.0375647 -0.0207113 1.11896e-17)
(0.0094449 -0.0341301 1.38571e-18)
(0.0351251 -0.0122366 1.3139e-18)
(-0.00505272 -0.00208765 -1.40623e-17)
(-0.00254401 -0.00216357 -3.01809e-17)
(0.000120451 0.000227451 -1.52472e-18)
(0.000115519 0.000213272 -7.07838e-19)
(0.000116721 0.000224149 3.50908e-19)
(-0.000160828 -0.000195098 1.21715e-18)
(-0.000169593 -0.000192947 -9.49815e-19)
(-0.00016584 -0.000220017 -1.25819e-18)
(0.000888214 0.000322921 -4.42544e-18)
(0.000930192 0.0003311 1.15823e-18)
(0.000888009 0.000372066 -1.05667e-17)
(0.0015428 -8.7713e-05 -9.80493e-19)
(0.00147489 -7.39991e-06 -6.26269e-18)
(6.24503e-05 -8.34422e-05 8.4304e-19)
(6.15283e-05 -6.85016e-05 9.40223e-19)
(0.046549 -0.0175044 1.56703e-18)
(0.051256 -0.00566113 1.10032e-17)
(-0.000225282 -0.00695124 1.15287e-17)
(-0.000514764 -0.00659695 -3.99821e-17)
(0.0552222 0.020447 -1.46487e-17)
(0.0569706 0.0209687 -2.63863e-17)
(0.056337 0.0204114 -2.19378e-17)
(0.00448834 0.00101454 8.12271e-18)
(-0.000585027 6.00233e-05 -8.34066e-18)
(-7.54457e-05 -0.000236272 -5.0166e-19)
(-7.26971e-05 -0.000252374 9.99347e-19)
(-6.7101e-05 -0.000246312 9.24778e-19)
(3.15457e-05 -2.23133e-05 2.50753e-19)
(3.39525e-05 -1.71425e-05 4.04113e-19)
(-0.000448874 -0.000759269 -1.82254e-19)
(-0.000494383 -0.000714071 3.10634e-20)
(-0.000512245 -0.000791008 2.36082e-19)
(-0.0116249 -0.00174608 5.95109e-17)
(-0.0115548 -0.00146239 -6.62062e-18)
(-0.000108374 0.000152629 3.12605e-19)
(-0.00010167 0.000142651 6.31247e-18)
(-0.000100952 0.000137304 -4.68686e-18)
(-0.00115457 -0.000395317 -2.28967e-18)
(0.0080236 0.00373348 2.4301e-18)
(0.00798007 0.00414025 1.81351e-17)
(0.0076334 0.0038654 2.44664e-17)