/*--------------------------------*- C++ -*----------------------------------*\
| =========                 |                                                 |
| \\      /  F ield         | OpenFOAM: The Open Source CFD Toolbox           |
|  \\    /   O peration     | Version:  v2012                                 |
|   \\  /    A nd           | Website:  www.openfoam.com                      |
|    \\/     M anipulation  |                                                 |
\*---------------------------------------------------------------------------*/
FoamFile
{
    version     2.0;
    format      ascii;
    class       surfaceVectorField;
    location    "300";
    object      ddtCorrDdt0(Uf);
}
// * * * * * * * * * * * * * * * * * * * * * * * * * * * * * * * * * * * * * //

dimensions      [0 1 -2 0 0 0 0];


internalField   nonuniform List<vector> 
27882
(
(0.00623731 0.00241766 -2.62829e-19)
(0.00605304 0.00351759 8.92075e-20)
(0.00526354 0.00259028 6.74555e-19)
(0.0367572 0.0154475 -1.95326e-19)
(0.037231 0.0221284 3.72844e-19)
(0.0319596 0.0204487 -1.6306e-19)
(6.66549e-05 -3.69066e-06 -3.85398e-20)
(6.67521e-05 -5.71103e-06 -1.79706e-19)
(6.39781e-05 -5.14109e-06 4.23599e-20)
(0.00734129 0.00202393 1.50176e-19)
(0.00609607 0.00136184 2.48878e-19)
(-0.00560017 -0.00475245 1.68576e-19)
(-0.00654175 -0.00412807 -6.01076e-19)
(-0.00642031 -0.00542935 -1.198e-20)
(3.40615e-05 5.662e-06 7.44288e-20)
(3.63834e-05 8.37933e-06 6.18032e-20)
(3.69912e-05 4.97238e-06 -5.05284e-20)
(0.000308718 -9.65959e-05 2.91952e-20)
(0.000310395 -0.000101495 9.8389e-20)
(0.00031398 -8.9747e-05 -9.82247e-20)
(0.000334284 -0.00123172 4.24571e-20)
(0.000452014 -0.00132854 1.2897e-19)
(0.000287834 -0.00143056 -3.21323e-20)
(-0.00472448 -0.00519035 6.44169e-19)
(-0.00486406 -0.00411767 8.76943e-19)
(-0.00392904 -0.00547603 5.53826e-19)
(-0.00311216 -0.00559042 2.05295e-18)
(-0.00335073 -0.00470586 -9.68311e-19)
(0.0342052 -0.00218487 -9.05029e-20)
(0.0330842 0.00395629 4.70214e-19)
(0.0299284 -0.000632576 2.81681e-19)
(0.0574181 -0.123969 1.78662e-18)
(0.0612227 -0.105476 -3.1831e-19)
(0.0698712 -0.0907425 1.26232e-18)
(-0.00991563 -0.0523352 4.78129e-19)
(-0.0149676 -0.0467466 1.07115e-18)
(-0.0157296 -0.05271 -7.42185e-20)
(0.00173589 0.000241452 5.60445e-19)
(0.00180401 0.000332995 -1.7727e-19)
(0.00167687 0.000335739 -1.03753e-19)
(0.00029871 -0.000101815 -5.12636e-20)
(0.000304101 -9.92905e-05 9.66222e-20)
(0.000301261 -0.000106375 2.87695e-20)
(0.000234313 -3.3076e-05 7.79403e-20)
(0.000231363 -2.73011e-05 1.31563e-19)
(0.000233112 -2.7285e-05 1.10858e-19)
(0.0500374 -0.143252 1.40062e-18)
(0.0437852 -0.162006 -8.91219e-19)
(5.38807e-05 -8.70116e-05 -3.19798e-20)
(4.93428e-05 -8.48245e-05 1.04366e-20)
(0.000293088 -0.000100796 1.48815e-20)
(0.000297239 -9.69418e-05 -2.80799e-20)
(-0.00163086 0.00205947 -4.88304e-19)
(-0.00191683 0.0023788 -4.7937e-19)
(-0.00203491 0.00187279 -4.37226e-19)
(0.0457003 0.109256 1.40433e-18)
(0.0574326 0.100294 -5.09584e-20)
(0.050948 0.0896617 6.34099e-19)
(-0.0798342 0.0946284 1.12563e-17)
(-0.0626027 0.0898096 5.62617e-18)
(-0.0547199 0.0944289 -7.35621e-19)
(3.32559e-05 3.54712e-06 9.28325e-21)
(3.16056e-05 6.3861e-06 6.51525e-20)
(6.17912e-06 -3.06358e-06 4.32328e-20)
(4.53678e-06 -2.46079e-06 -3.19615e-20)
(4.09599e-06 -4.26869e-06 1.83131e-19)
(-0.097507 0.0971284 1.74016e-18)
(-0.101335 0.0896699 3.15582e-19)
(0.117661 0.0933847 1.93513e-18)
(0.113064 0.0911636 7.20869e-18)
(0.0959065 0.113059 -7.71224e-18)
(-0.0294018 -0.331413 2.53415e-18)
(-0.0187605 -0.306801 5.70735e-18)
(-0.0417261 -0.236476 4.42984e-18)
(0.0362527 -0.0469288 -2.5573e-18)
(0.0366264 -0.0431752 6.84282e-19)
(0.0398033 -0.0469976 -8.80184e-19)
(0.032069 0.0182304 -1.08772e-18)
(0.0348341 0.0184045 1.77048e-18)
(0.0333253 0.0160167 2.63246e-18)
(0.0468319 0.0376006 -2.35411e-20)
(0.0419586 0.0497254 -1.89885e-18)
(0.0395146 0.0422156 -1.96918e-19)
(-0.00718946 0.0490481 2.52428e-18)
(-0.00385088 0.0317777 -3.08868e-18)
(0.00513461 0.0449862 1.58937e-18)
(-0.0343839 -0.350486 1.64931e-18)
(-0.0195133 -0.398977 -6.82922e-18)
(0.000209483 -0.00111923 8.7981e-22)
(0.000381774 -0.00106506 1.02935e-19)
(-0.173891 0.13606 4.1946e-18)
(-0.1737 0.126124 -5.16022e-19)
(-0.180075 0.13266 1.5926e-17)
(-0.00748152 -0.003526 4.96471e-19)
(-0.00843457 -0.00311917 -9.69701e-19)
(-0.00842742 -0.00437394 -6.46033e-19)
(0.0474487 0.0251072 -1.63189e-19)
(0.0512251 0.0276792 6.99848e-19)
(-0.00502762 -0.0510225 1.77514e-18)
(-0.00456526 -0.0577948 1.496e-18)
(-0.00655302 -0.00303016 1.46739e-19)
(-0.000983712 -0.0486641 -7.55013e-19)
(0.0135119 -0.047291 -2.72166e-18)
(0.00226254 -0.0819834 3.81803e-18)
(0.000135031 0.000509438 -1.46529e-20)
(2.53815e-05 0.000521685 8.86765e-20)
(9.87088e-05 0.000420096 3.38403e-20)
(0.0417256 -0.0530227 -5.13604e-19)
(0.0473825 -0.0379964 -1.6983e-18)
(0.0390816 -0.0398371 -1.92525e-18)
(-0.00140365 -0.00675741 1.26969e-19)
(-0.00135704 -0.00778944 -7.34272e-20)
(-0.00235156 -0.00701965 1.02287e-19)
(0.0295001 -0.0781592 -1.16288e-18)
(0.0362821 -0.0728907 -2.43212e-18)
(0.037574 -0.0617095 -9.78743e-19)
(-0.000492663 -0.000974804 6.63679e-19)
(-0.000272809 -0.000986281 1.86776e-19)
(-0.000365321 -0.00120128 4.81363e-19)
(0.00023972 6.23511e-06 -1.07132e-19)
(0.000234582 5.47944e-06 7.16984e-20)
(0.000238883 1.01695e-05 2.50105e-20)
(-0.0258199 0.030302 -2.06872e-18)
(-0.0285757 0.015547 -1.79035e-18)
(-0.0196459 0.018246 1.48567e-18)
(-0.000608478 -0.00642026 3.36563e-19)
(-0.0012527 -0.00595051 1.22811e-18)
(0.0365719 0.0125192 -7.77521e-19)
(0.0352619 0.0102864 2.22219e-18)
(0.0381417 0.010404 7.1024e-19)
(-0.0420277 -0.0560444 8.07718e-18)
(-0.0215328 -0.0615735 -2.00351e-18)
(-0.0356119 -0.0440492 5.28648e-18)
(0.00614886 -0.00135108 5.807e-20)
(0.00649987 -0.00043692 -1.0088e-19)
(0.00551523 -0.000619138 -2.95838e-19)
(0.03503 -0.00881023 -5.30067e-19)
(0.0391083 -0.00460147 -9.81516e-19)
(-0.165989 0.283493 7.19924e-18)
(-0.166227 0.281704 -5.23015e-18)
(-0.158523 0.279482 1.3828e-18)
(0.00656978 -0.00226849 -3.44894e-19)
(0.0055024 -0.00213567 6.39751e-19)
(0.00424403 0.000858995 -1.15269e-18)
(0.00402986 0.000406967 2.45096e-19)
(0.00458467 0.000507852 -3.30491e-19)
(-0.0011283 0.0600637 -9.29659e-19)
(-0.00480707 0.0605047 -4.91172e-18)
(-0.00248834 0.0636861 -6.22687e-18)
(-0.0194285 -0.0409113 -5.71063e-19)
(-0.013193 -0.0408821 1.3407e-18)
(-0.000355205 0.000164435 2.57292e-20)
(-0.000364472 0.000113828 3.13544e-19)
(-0.000454806 0.000150726 6.27388e-20)
(-0.00140637 0.00171537 5.17562e-19)
(-0.00124349 0.00211325 3.54068e-20)
(0.0339486 0.00838409 2.99004e-18)
(0.0351075 0.00627181 2.54095e-19)
(0.032605 0.00638963 2.38949e-18)
(-0.000335211 0.000228608 -7.5281e-20)
(-0.000270669 0.000171452 -5.7599e-19)
(0.000244257 4.05596e-06 1.43432e-19)
(0.00024699 5.55667e-06 3.56018e-19)
(0.000241983 3.62659e-06 -3.32168e-20)
(-0.000700596 -0.000931695 3.65527e-19)
(-0.000547754 -0.000757277 -1.26195e-19)
(-0.0632061 0.505617 -1.58212e-18)
(-0.0523258 0.53728 3.83229e-19)
(0.152724 -0.023556 -8.5896e-20)
(0.118925 -0.0694195 3.43391e-20)
(0.158836 -0.030559 2.73795e-20)
(0.000241863 1.52163e-06 1.10647e-19)
(0.000246877 3.64815e-06 -1.15216e-19)
(-0.160788 0.0666447 1.22836e-17)
(-0.15482 0.0597858 3.2008e-18)
(-0.155345 0.0511405 -3.1003e-18)
(0.000178615 -2.37272e-07 3.81183e-20)
(0.000172805 -1.14711e-06 -1.73023e-19)
(0.000171669 -4.29541e-07 4.63369e-19)
(6.77849e-05 -9.45077e-05 -2.56892e-19)
(6.2752e-05 -8.49358e-05 1.16212e-19)
(6.76864e-05 -7.99694e-05 -1.23595e-19)
(0.0322386 -0.0466556 -8.56298e-19)
(0.0351125 -0.0507966 1.95369e-18)
(5.83005e-05 -7.0664e-05 -4.95502e-22)
(6.11384e-05 -8.9417e-05 -4.03667e-21)
(-0.17906 0.291562 1.29943e-17)
(-0.166506 0.285362 1.06076e-17)
(0.033829 0.14709 4.97589e-18)
(0.0906925 0.119169 1.48738e-18)
(0.0415756 0.143065 9.86062e-18)
(0.00029571 -1.26749e-05 3.52786e-19)
(0.000300409 -2.47076e-05 -6.26451e-20)
(0.000302749 -6.23912e-06 3.09237e-19)
(-0.00690557 0.000291931 1.51427e-19)
(-0.00654939 -0.000140009 6.06574e-19)
(-0.00605096 0.000474743 -1.072e-18)
(-0.0590626 -0.000409261 3.473e-20)
(-0.0568596 -0.00696994 6.46076e-19)
(-0.0518887 -0.000881972 3.35805e-18)
(-0.0179308 0.0527182 2.0238e-18)
(-0.0104651 0.0692161 1.81501e-18)
(-0.0940731 0.36635 2.17529e-18)
(-0.10754 0.379429 5.06674e-18)
(-0.100481 0.302343 -1.70907e-18)
(0.024255 -0.17776 2.34778e-18)
(0.0186449 -0.199015 2.36723e-18)
(0.00663086 -0.197325 2.97245e-18)
(-0.00449032 -0.00623302 -2.83239e-19)
(0.0185807 -0.0950673 6.07326e-18)
(0.0213163 -0.0809217 3.73506e-18)
(0.0139358 0.0345974 3.2893e-18)
(0.011801 0.0347639 7.56999e-18)
(0.0131921 0.0369371 -3.72511e-19)
(-0.0152081 -0.0488467 1.73652e-18)
(-0.00174597 -0.0244921 -9.6716e-19)
(0.0395564 -0.15637 1.68857e-18)
(0.0306128 -0.161833 -5.65102e-19)
(-0.0264404 -0.00407373 -1.97597e-18)
(-0.0292983 -0.00355194 -7.18987e-19)
(-0.0282554 -0.0067354 -6.24917e-20)
(0.00091157 -0.00209072 -8.6196e-19)
(0.000556103 -0.00193465 2.49286e-19)
(0.000585666 -0.00244805 -2.20276e-19)
(-0.00239952 0.0485753 8.31201e-19)
(-0.00171561 0.051129 -8.0201e-19)
(0.00062039 0.049245 -2.46239e-18)
(0.00248773 0.00285044 2.30425e-18)
(0.00233529 0.0026781 4.43686e-18)
(-0.0079616 0.000206795 -5.4422e-19)
(-0.00738881 0.00100496 1.25769e-18)
(-0.053917 0.546046 -5.73428e-18)
(-0.063346 0.452994 -1.80247e-17)
(-0.00470368 0.0469308 5.63215e-18)
(-0.0021776 0.0455753 -1.83297e-20)
(-0.208493 0.332622 -1.64522e-17)
(-0.197913 0.335002 -1.11831e-17)
(-0.191833 0.332183 -1.74654e-17)
(0.000225588 -2.45974e-06 -1.43536e-19)
(0.000222594 -3.5688e-06 -9.91495e-20)
(0.000215709 -2.27277e-06 -8.46801e-20)
(0.00832829 0.024004 -6.06947e-19)
(0.00684667 0.0241616 -2.06626e-18)
(0.00789834 0.0255413 3.26756e-18)
(-0.0648743 -0.0523728 1.42444e-17)
(-0.0457291 -0.0637059 -1.2621e-18)
(0.000287744 -1.55805e-05 -1.65113e-19)
(0.000289437 -4.1203e-07 -1.89857e-19)
(0.000168506 3.73578e-05 -2.64589e-19)
(0.000166579 4.04782e-05 3.66522e-19)
(0.000165734 3.69113e-05 -5.41178e-19)
(8.91696e-05 7.53429e-05 8.70905e-22)
(8.69703e-05 5.17042e-05 -3.68442e-21)
(0.000112516 3.94991e-05 -6.47817e-20)
(0.0203321 0.00992678 4.19347e-19)
(0.0192804 0.0109838 -2.11444e-18)
(0.0210471 0.0112083 -1.04744e-19)
(-0.00263209 -0.233371 -2.54875e-18)
(0.0131468 -0.218637 5.93378e-18)
(0.00377149 -0.235758 -8.72193e-18)
(0.000242368 -6.65138e-05 -7.67716e-20)
(0.000252433 -4.44345e-05 -1.20713e-19)
(0.000244961 -6.12489e-05 -3.78283e-20)
(-0.0251552 0.0428284 4.21493e-19)
(-0.0346068 0.0382889 -9.46525e-19)
(-0.00401097 0.00875085 -2.05531e-18)
(-0.00492008 0.00855058 5.32595e-20)
(-0.00417128 0.00762857 -1.23621e-18)
(6.67688e-05 -0.000104128 -2.19068e-19)
(7.18745e-05 -0.00010108 1.62295e-20)
(0.00017066 3.51102e-05 -2.25273e-19)
(0.000170492 3.40982e-05 1.14943e-19)
(-0.167172 0.0708471 9.70281e-19)
(-0.16642 0.079661 2.9354e-18)
(0.0398958 0.121616 2.75846e-18)
(0.0331677 0.109592 -7.17212e-22)
(0.0348647 0.0141301 -2.69772e-18)
(0.0377198 0.0145885 -2.01557e-18)
(-0.215932 0.331756 3.96616e-18)
(-0.212953 0.327834 4.10671e-19)
(-0.10966 0.466649 1.95494e-19)
(-0.10771 0.481257 4.94955e-18)
(-0.123093 0.443914 -2.70796e-19)
(0.102851 -0.0212221 1.90032e-18)
(0.101376 0.00227111 -6.11797e-19)
(0.0980072 0.00415189 8.19117e-19)
(0.000242667 -4.64168e-05 5.88407e-20)
(0.000238929 -4.15741e-05 -1.60525e-20)
(0.000242352 -4.39479e-05 9.19913e-21)
(0.182544 0.0164634 4.30829e-20)
(0.139289 -0.0349453 -4.58294e-19)
(0.00601237 -0.00449108 -6.88576e-19)
(0.0063002 -0.00330548 -2.7671e-19)
(0.00521143 -0.00367845 4.60817e-19)
(0.000116322 4.04688e-06 -1.28335e-19)
(0.000113776 3.76818e-06 1.2735e-20)
(0.000111054 1.18804e-06 1.97672e-20)
(-0.0034897 0.010016 -1.41216e-18)
(-0.00298376 0.0088616 -1.15138e-18)
(0.0730807 -0.0654269 9.00109e-19)
(0.0756041 -0.0690966 7.59757e-19)
(0.0710408 -0.0699128 -1.78822e-19)
(0.0213664 0.00871748 1.53525e-18)
(0.0197809 0.00852972 3.1504e-18)
(8.37531e-05 0.000108562 -2.18197e-19)
(3.627e-05 0.000153021 -1.53107e-19)
(4.42679e-05 9.9012e-05 1.18441e-19)
(0.0847021 -0.0670087 -8.96369e-20)
(0.0875088 -0.0698448 -8.69281e-19)
(0.0890801 -0.065938 1.32201e-18)
(0.00207022 -0.00194105 2.43483e-20)
(0.00181818 -0.00236128 1.23611e-19)
(0.00243903 -0.0024393 4.33362e-19)
(0.000101135 -8.48248e-06 4.59648e-19)
(0.000102742 -9.81692e-06 8.73253e-20)
(0.000100414 -1.08546e-05 -3.58595e-19)
(-0.0813491 0.413822 -6.26035e-19)
(-0.0717668 0.337865 -3.16021e-18)
(0.00134198 -0.00227422 -1.21737e-19)
(0.00115058 -0.00180005 -1.70148e-19)
(9.84101e-05 -6.93463e-05 1.0463e-19)
(9.5091e-05 -7.02378e-05 -6.94323e-19)
(0.000102821 -8.47294e-05 -1.14856e-18)
(0.110151 -0.0567344 4.34609e-19)
(0.101144 -0.0678097 1.42432e-17)
(0.120546 -0.0570439 -4.97113e-18)
(0.00433998 0.00128697 2.7735e-19)
(0.00383138 0.00113921 -1.85057e-19)
(1.05288e-05 -0.000589962 -7.43603e-19)
(-0.000121953 -0.000628944 1.03513e-19)
(-6.77677e-05 -0.000483367 1.73576e-20)
(9.50458e-05 -5.39898e-05 3.36304e-19)
(0.000101577 -6.79228e-05 1.12873e-18)
(0.0591935 0.0364253 1.37548e-18)
(0.0533901 0.0355003 2.06282e-18)
(0.0587601 0.0311405 -5.33928e-18)
(0.058909 -0.0797649 8.11505e-19)
(0.0519054 -0.0891442 1.82675e-17)
(0.0325401 0.0101427 4.65612e-19)
(0.000192921 -1.16122e-05 -4.68672e-20)
(0.000198614 -8.2397e-06 -1.55699e-19)
(0.000180293 -1.1838e-05 1.01252e-19)
(0.00321038 -0.00600642 2.16202e-19)
(0.00270258 -0.0063469 -7.88857e-20)
(0.00327237 -0.00670769 -6.49838e-20)
(-0.247331 0.154614 -4.13591e-18)
(-0.241043 0.142394 7.61186e-19)
(-0.242952 0.163277 -6.71149e-18)
(0.000159656 0.000627313 -1.51525e-20)
(0.000245517 0.000491369 -1.95138e-20)
(0.000144665 -1.51584e-05 3.08457e-20)
(0.000139779 -1.82155e-05 -1.03e-19)
(0.000144859 -2.09449e-05 -2.098e-19)
(0.105113 0.0620715 -2.00291e-18)
(0.0851868 0.0582048 -1.10823e-17)
(0.109015 0.0061987 -6.25992e-19)
(0.00162957 -0.00124497 -1.14914e-19)
(0.00185571 -0.00159941 3.32794e-20)
(0.00141469 -0.0015012 1.97106e-19)
(0.0647488 -0.0242752 4.40596e-19)
(0.0680132 -0.0267838 -3.64822e-19)
(0.0634536 -0.0281999 -3.04725e-19)
(0.0162673 0.034552 -7.62569e-18)
(0.0150243 0.0326486 2.87105e-19)
(0.00554871 -0.00560408 4.48965e-19)
(0.00699193 -0.00549886 -1.68172e-19)
(0.0694623 -0.0322033 -1.00159e-18)
(0.0667583 -0.022604 -2.37865e-18)
(0.0716103 -0.0208296 4.24402e-19)
(0.0130669 0.00946937 2.0467e-18)
(0.0122116 0.00999674 9.47807e-19)
(0.0133944 0.0104664 3.27515e-18)
(-0.112676 0.422884 2.78061e-19)
(-0.0974859 0.48703 -1.70035e-18)
(0.115761 -0.0541195 -1.30172e-18)
(0.10532 -0.062886 -2.19451e-18)
(0.00610905 0.0152043 -1.41655e-18)
(0.00519422 0.0151627 -4.07866e-19)
(0.0056883 0.0161584 3.54668e-18)
(-0.172631 0.075061 -2.44448e-18)
(-0.167683 0.0609801 -1.47874e-17)
(0.0501885 0.0341636 1.60888e-19)
(0.0501813 0.030556 3.90178e-19)
(0.0463128 0.0328332 -3.09857e-18)
(0.035138 0.00912185 8.78646e-21)
(0.0299511 0.00878193 2.42799e-19)
(0.144344 -0.0771057 -7.39545e-20)
(0.132267 -0.0683243 2.32253e-18)
(0.143426 -0.0680551 1.55735e-18)
(0.0741642 -0.059048 -9.86626e-18)
(0.0906471 -0.0519578 4.20373e-19)
(0.0893778 -0.0500927 -1.19431e-17)
(0.0351334 -0.123051 1.99892e-18)
(0.0408074 -0.117733 -1.16302e-17)
(0.0432207 -0.114589 5.38954e-18)
(0.000426791 0.00038478 -1.74007e-19)
(0.000439412 0.000391524 -2.40119e-19)
(0.000451683 0.000387991 1.09302e-19)
(-0.00882053 -0.00211285 -1.74494e-18)
(-0.00800027 -0.001136 -1.71262e-19)
(-0.00936024 -0.000766423 -7.41533e-19)
(0.0353346 -0.0721153 -3.15824e-18)
(0.0395912 -0.0678051 -8.82431e-19)
(-0.144016 -0.441886 -8.81719e-18)
(-0.203103 -0.555662 -3.21848e-18)
(0.00987107 0.0236097 9.24214e-19)
(0.0087862 0.0225175 -3.23647e-18)
(0.063031 0.0381574 4.57909e-18)
(0.0576793 0.0401371 5.01251e-18)
(-0.0302475 0.00364675 4.32007e-19)
(-0.0341347 0.00511503 -1.82469e-18)
(-0.0306159 0.00737482 -9.2979e-19)
(0.0398755 0.00896633 -4.78879e-19)
(-0.116748 0.247472 4.80751e-18)
(-0.104312 0.215262 7.77213e-18)
(-0.108452 0.247932 5.34278e-18)
(3.11492e-05 -1.34259e-05 -8.10388e-20)
(9.04676e-06 -1.18515e-06 -4.02264e-20)
(1.68066e-05 -7.00106e-06 -3.18611e-20)
(-0.0814767 -0.10149 2.55629e-18)
(-0.062942 -0.109207 6.61637e-18)
(-0.0765963 -0.111272 4.16925e-18)
(-0.179786 0.081011 -4.51163e-18)
(-0.176332 0.0895657 1.92672e-18)
(-0.0237571 -0.0198094 3.09537e-19)
(-0.0132063 -0.0459874 5.83314e-20)
(-0.0133101 -0.0408227 -4.24297e-19)
(-8.01678e-05 0.00052921 -3.99402e-19)
(2.51945e-05 0.000450902 3.89903e-20)
(3.61632e-05 0.000596866 -3.37607e-19)
(4.64486e-05 -2.48001e-05 -8.98256e-19)
(4.99177e-05 -2.73177e-05 -2.98423e-19)
(-0.136162 0.264782 -1.3671e-17)
(-0.125229 0.241969 -5.83253e-18)
(-0.124699 0.239071 -1.4212e-17)
(0.0657636 -0.0696654 1.90601e-18)
(0.0721437 -0.0705758 -1.50152e-17)
(0.0628275 -0.0879284 -1.33373e-18)
(0.0622313 -0.0592961 1.51981e-18)
(0.0546281 -0.061559 8.18089e-19)
(0.00873562 -0.128375 -5.14131e-18)
(0.00516153 -0.134351 2.57766e-18)
(0.0154994 -0.128659 -1.49597e-18)
(6.5981e-05 -3.05841e-06 -5.84522e-19)
(6.91003e-05 -2.37503e-06 -4.79377e-19)
(0.0371659 0.0189448 1.52074e-19)
(0.0388522 0.0168943 1.11062e-18)
(0.040163 0.019689 3.82338e-18)
(-0.00547909 0.104848 -4.23481e-20)
(-0.00824764 0.105013 8.00057e-19)
(-0.102674 0.484955 1.5703e-18)
(-0.0868386 0.50661 4.29847e-18)
(0.000151255 -0.000198202 -1.03183e-19)
(0.000145158 -0.000200005 -3.98185e-20)
(0.000143429 -0.000196194 -5.78106e-19)
(0.000281061 -1.80455e-05 2.04702e-19)
(0.000284843 -3.05498e-05 -3.29222e-19)
(0.0836052 0.0921344 -1.95303e-18)
(0.084835 0.0981795 -3.35301e-18)
(0.0961385 0.0958032 4.82938e-18)
(-0.173017 0.147 -3.77987e-18)
(-0.16304 0.139983 -3.6812e-18)
(0.000880897 0.000738955 -6.05115e-19)
(0.000815668 0.000709304 1.56424e-18)
(3.89287e-05 -0.000100039 -8.99609e-21)
(4.32197e-05 -0.000100585 -1.27175e-19)
(4.10619e-05 -9.6723e-05 -1.31836e-19)
(0.00344446 0.0025563 3.6064e-20)
(0.0030867 0.00230066 -3.78688e-19)
(0.00353163 0.00210692 4.51864e-19)
(0.00063903 0.0570709 7.26484e-18)
(0.00279196 0.0598288 -4.99384e-19)
(0.00122948 0.00104851 5.27277e-19)
(0.00131048 0.00111446 2.32217e-18)
(0.146652 -0.100565 3.00956e-18)
(0.141022 -0.0935437 -2.4211e-20)
(0.138154 -0.100622 8.40647e-20)
(0.000278154 0.000175573 2.04336e-20)
(0.000265406 0.000191519 1.08466e-19)
(0.000285161 0.000193638 5.37087e-20)
(0.0330953 0.0602883 2.7895e-18)
(0.0393528 0.058739 -2.42799e-19)
(0.0120781 0.00786501 -1.39981e-18)
(0.0108231 0.00889822 -5.02029e-20)
(0.0127702 0.0096085 1.51907e-19)
(-0.0889484 -0.0399856 -1.04746e-18)
(-0.0857065 -0.0513999 8.00498e-18)
(-0.0603873 -0.0516487 -2.10836e-18)
(-0.0367331 -0.0517519 -1.62938e-18)
(-0.0525046 -0.0492262 -7.55481e-19)
(0.027722 -0.131019 1.03418e-17)
(0.0289655 -0.127178 7.70166e-18)
(0.000283123 0.000169055 9.00884e-21)
(0.00028216 0.000166794 -1.02741e-20)
(0.0224888 -0.0306981 8.49354e-19)
(0.0251903 -0.0296657 4.85663e-19)
(0.0239354 -0.0330205 -1.06213e-18)
(-0.168285 0.222769 -1.11735e-18)
(-0.156778 0.225617 9.66213e-20)
(-0.156832 0.166141 6.29579e-18)
(1.58869e-06 -1.42255e-06 -7.41261e-21)
(7.9682e-07 9.23086e-06 1.16437e-19)
(6.58404e-07 1.22224e-05 2.77853e-20)
(0.0013039 0.000955617 -8.51722e-20)
(0.00123389 0.000980742 -2.87982e-18)
(0.00121386 0.000902756 -1.43551e-18)
(0.0707723 -0.0294344 -6.74401e-20)
(0.0738368 -0.0324531 -1.73334e-20)
(0.069333 -0.0336705 -2.32803e-19)
(0.000415437 0.000377286 3.99753e-19)
(0.000404778 0.000378881 2.62565e-19)
(-0.11549 -0.0294821 -1.40799e-17)
(-0.0929434 -0.023472 -6.71884e-18)
(5.51039e-05 2.35948e-07 2.37656e-19)
(5.71053e-05 -1.12796e-06 -5.45835e-20)
(5.40528e-05 -1.38999e-06 -1.12208e-19)
(0.00163232 -0.00192898 2.57338e-19)
(0.0013816 -0.00160966 -1.75663e-19)
(0.00118504 -0.00190342 2.05736e-19)
(0.067373 0.0389484 1.72418e-20)
(0.0664571 0.0431586 7.10299e-18)
(-0.141354 0.0123143 -1.82741e-18)
(-0.13645 0.0229346 -3.08997e-18)
(-0.15157 0.0342774 -2.93144e-18)
(0.000228764 -2.62037e-05 -5.6451e-21)
(0.000226173 -2.09707e-05 2.00077e-21)
(0.000228108 -2.49996e-05 -2.20305e-20)
(0.000246338 -5.05833e-05 1.74297e-19)
(0.000242962 -4.86677e-05 7.00393e-20)
(-0.100355 -0.0938316 -6.43475e-19)
(-0.0892337 -0.0902853 -5.54512e-18)
(-3.94628e-05 -9.57707e-05 -3.3379e-19)
(-6.83908e-05 -0.000104102 -8.0013e-19)
(-7.11858e-05 -8.60935e-05 -1.52593e-20)
(-0.00985907 -0.00288148 -9.44441e-19)
(0.0377412 -0.108972 -1.59824e-17)
(0.0377226 -0.114152 -1.19364e-17)
(4.4907e-05 2.66825e-06 -4.6512e-19)
(4.18103e-05 2.37097e-06 -1.87799e-19)
(4.58905e-05 4.61087e-06 -2.50365e-19)
(0.011369 0.024168 2.70583e-19)
(0.0130559 0.024714 -3.97879e-18)
(0.0114334 0.0257523 9.74785e-19)
(0.00210361 -0.00186563 3.83388e-20)
(0.00179294 -0.00237141 1.73885e-20)
(0.00209805 0.000214664 -1.8334e-19)
(0.00190681 3.40458e-05 -4.89692e-19)
(0.00178891 0.000239778 -5.33697e-19)
(-0.000688559 0.0014862 6.52827e-19)
(-0.000950411 0.00148817 -3.27261e-19)
(-0.000781531 0.00177 -1.34518e-19)
(0.000100738 0.00010434 2.44784e-20)
(6.50725e-05 0.000112136 7.60918e-20)
(0.000236277 -1.43758e-05 8.74884e-20)
(0.000232223 -1.1391e-05 1.55035e-19)
(0.000236388 -1.12085e-05 -3.81302e-19)
(0.0112182 0.022812 2.8496e-18)
(3.84897e-05 1.0477e-05 -6.85214e-20)
(3.56061e-05 1.15637e-05 -2.72355e-21)
(0.0572727 -0.00640329 6.27698e-20)
(0.0608859 -0.0155925 3.56527e-19)
(0.0598434 -0.00569112 -1.46313e-19)
(-0.182451 0.217089 3.5583e-20)
(-0.179198 0.266925 -3.32529e-18)
(0.000735007 0.000105546 -4.088e-19)
(0.000628791 6.90848e-05 7.37927e-19)
(0.00071649 1.3345e-06 -4.01201e-19)
(0.0139652 0.00889988 1.16686e-18)
(0.0128779 0.00848358 -4.07657e-19)
(0.0720045 0.0403036 9.5748e-20)
(0.0697304 0.0336178 -1.73274e-18)
(-0.138661 0.00323983 2.02781e-18)
(-0.129574 -0.00321192 -1.39609e-18)
(-0.0114383 0.134789 2.78903e-18)
(-0.00929992 0.138286 3.63897e-19)
(-0.0125379 0.132162 -2.63571e-18)
(-0.0605804 0.00641075 -2.95062e-18)
(-0.0672019 0.000717527 -2.55921e-18)
(-0.0114703 0.0408406 -1.81087e-18)
(-0.010696 0.0430701 2.21149e-19)
(-0.0134209 0.0425149 2.32511e-18)
(-0.12182 0.244323 4.5568e-18)
(-0.125862 0.269859 2.47524e-18)
(-1.39511e-05 -0.000100473 -1.64104e-19)
(-1.64009e-05 -0.000102402 1.48009e-19)
(0.122222 0.0946636 3.56605e-18)
(0.12584 0.0822126 3.04957e-19)
(0.0071739 0.0152994 2.24818e-18)
(0.00655569 0.0143033 1.12179e-18)
(-0.0872234 0.466161 -4.83484e-19)
(-0.117132 0.465171 -9.35631e-19)
(0.000146768 -1.17995e-05 -2.06474e-19)
(0.000148876 -1.41388e-05 2.56997e-19)
(0.000253331 2.30844e-06 1.368e-19)
(0.000252282 -3.68624e-06 -2.29744e-20)
(0.000253494 -6.84036e-06 -5.16342e-19)
(0.000867855 0.000155484 -2.04515e-19)
(0.000745661 0.000240739 -4.3511e-19)
(-0.0409254 -0.0386276 -1.49525e-18)
(-0.0393627 -0.0441923 1.58691e-18)
(-0.0455626 -0.0422407 9.76152e-19)
(-0.00460698 -0.0636903 -5.59213e-18)
(0.0135266 -0.0674473 2.45139e-18)
(0.00566157 -0.0544039 2.63601e-18)
(0.0768772 -0.0354981 1.9014e-19)
(0.08003 -0.0386226 2.44374e-19)
(0.0755723 -0.0396032 -3.82575e-19)
(0.000291882 -0.000321991 4.07245e-19)
(0.00023329 -0.000345897 -1.84581e-19)
(0.000279433 -0.00028325 -3.27517e-21)
(0.000250491 -5.39911e-05 7.01484e-20)
(0.000251041 -5.65561e-05 8.23361e-20)
(0.000254509 -5.73747e-05 -6.87799e-20)
(-0.036763 -0.0356001 -7.70479e-19)
(-0.0424674 -0.0335569 -3.69259e-18)
(0.0614699 -0.0218995 6.61784e-19)
(0.0578306 -0.019381 -2.37708e-19)
(0.0568398 -0.0231252 3.91943e-19)
(6.53275e-05 -4.23136e-06 9.90861e-20)
(6.96404e-05 -7.11632e-06 -3.30563e-19)
(6.41648e-05 -5.94269e-06 -2.51091e-20)
(0.1444 -0.0861593 -3.09205e-18)
(0.156829 -0.0875587 -3.07523e-18)
(0.101221 -0.00241133 2.66162e-18)
(0.106348 0.000525174 2.02473e-18)
(0.0996992 0.00351146 1.20069e-18)
(0.000251989 1.59883e-05 2.06775e-19)
(0.000253341 9.20758e-06 2.51326e-19)
(0.000252914 1.14338e-05 3.50236e-20)
(0.000151339 -9.4937e-05 -9.22408e-19)
(0.000149914 -0.000100827 3.03568e-19)
(0.000145747 -0.000100883 -2.03027e-19)
(-0.000334711 0.00151451 -1.68711e-19)
(-6.10565e-05 0.00134631 5.52147e-19)
(-0.000307718 0.00121892 4.33602e-20)
(0.000232544 -8.44118e-05 -2.26221e-20)
(0.000241995 -6.84856e-05 1.97253e-19)
(-0.00100926 -0.128332 -3.17969e-17)
(0.0112348 -0.122592 -2.0018e-17)
(0.000236159 -0.000792565 8.69692e-19)
(0.000403821 -0.000885457 -1.15017e-19)
(0.000357739 -0.000688976 -2.94849e-19)
(0.0141957 0.067273 -3.6709e-19)
(0.00679078 0.0768206 4.29568e-19)
(0.0138923 0.07593 3.9224e-19)
(0.00102849 0.000190034 2.28986e-19)
(0.000984521 4.51049e-05 4.41952e-19)
(3.56806e-05 4.74885e-07 -3.25524e-20)
(3.64975e-05 3.89178e-07 1.90883e-21)
(3.57001e-05 5.58873e-07 3.47479e-20)
(0.0923644 -0.0397446 2.17922e-19)
(0.0893343 -0.0361916 7.16349e-20)
(0.094083 -0.03513 -1.39368e-18)
(-0.000166844 0.000474014 -8.50304e-20)
(-0.000238987 0.00040344 9.56419e-20)
(-0.000136424 0.000348034 -2.61877e-19)
(0.0128159 0.159979 9.82281e-19)
(-0.045665 0.187028 -5.75111e-18)
(0.000251146 -8.11912e-06 -2.75423e-20)
(0.000249283 -7.74399e-06 -3.74955e-20)
(0.000250001 -1.04713e-05 1.01254e-20)
(-0.0019664 0.0372765 -1.30721e-18)
(0.00662 0.0071021 -3.89707e-18)
(0.00607332 -0.00228449 4.0475e-20)
(0.00719584 -0.00281549 7.925e-19)
(8.4218e-05 -5.89446e-05 1.35336e-19)
(9.55129e-05 -7.37898e-05 -2.35029e-19)
(0.000251797 1.93122e-05 -1.6355e-19)
(0.000250656 2.13744e-05 2.54021e-19)
(0.0213295 -0.0281636 -7.14599e-20)
(0.0196644 -0.0309802 -2.63213e-19)
(-0.0369254 -0.330139 1.35701e-19)
(0.0118684 -0.273868 1.39393e-19)
(-0.000422404 -0.313183 5.25483e-19)
(-0.110305 -0.403042 7.48964e-20)
(-0.0938545 -0.348113 4.55053e-20)
(7.54141e-05 -5.0384e-05 1.52932e-19)
(7.54239e-05 -4.60925e-05 -3.59002e-19)
(0.0658353 -0.0201557 -3.32492e-19)
(0.00045987 0.00040084 -3.51859e-19)
(0.000437104 0.000394539 -2.61146e-19)
(0.000208066 -0.000323513 1.01229e-19)
(0.000161035 -0.000350256 -5.29985e-19)
(0.000202444 -0.000370788 -4.42548e-20)
(0.0857203 -0.0777976 -6.57017e-19)
(0.0864911 -0.0735664 -1.92548e-18)
(0.082373 -0.0756282 -9.69129e-19)
(-0.173746 0.250486 4.61796e-18)
(-0.174818 0.249334 1.27904e-17)
(-0.171545 0.254554 5.06368e-18)
(0.000253272 -0.000291334 1.10003e-18)
(0.000219833 -0.00028065 4.12403e-19)
(5.23799e-05 -0.000107038 1.82228e-19)
(3.46131e-05 -0.000102099 5.03293e-19)
(4.49007e-05 -9.67927e-05 5.23571e-19)
(-0.00151843 0.00249645 1.38714e-19)
(-0.00174427 0.00303748 -4.48112e-20)
(-0.00218371 0.00248161 -2.12117e-19)
(-0.000435603 0.00143568 3.16498e-19)
(-0.000584855 0.00125063 6.13128e-20)
(0.00454414 -0.00282175 4.40823e-19)
(0.00436452 -0.00247425 -5.80745e-19)
(0.00480897 -0.0024337 5.20995e-19)
(4.09553e-05 8.72174e-06 -6.29128e-20)
(3.96997e-05 1.2858e-05 -8.81054e-20)
(0.00229048 0.000460354 -1.88415e-19)
(0.00244245 0.000184576 -5.74054e-19)
(0.00166419 0.000163824 5.73046e-19)
(0.00178351 0.000150033 -1.40173e-19)
(0.000152141 -8.86591e-05 -3.18509e-19)
(0.000156401 -8.60955e-05 -3.36047e-19)
(0.000192948 -9.94077e-06 1.54576e-19)
(0.000174624 -1.32869e-05 -8.8955e-19)
(0.000183397 -1.18743e-05 2.79541e-19)
(0.00026461 -4.02561e-05 1.89936e-20)
(0.000262823 -4.45054e-05 2.49073e-19)
(0.000262876 -3.96477e-05 8.24948e-20)
(-0.185994 0.0865143 -1.48593e-18)
(-0.189561 0.101914 2.88519e-18)
(-0.195235 0.0929421 2.85931e-18)
(0.000306448 -9.10618e-05 1.08112e-19)
(7.07488e-05 -0.000113445 -3.0667e-19)
(6.11217e-05 -0.000116104 -1.94447e-19)
(3.86703e-05 -5.01958e-05 -4.95557e-22)
(4.11666e-05 -3.94627e-05 -7.18193e-22)
(3.75936e-05 -4.5924e-05 -1.05016e-20)
(0.0593079 -0.0158835 -1.1084e-19)
(0.0551234 -0.0172648 -5.05193e-20)
(0.000171287 3.34186e-05 1.75527e-19)
(0.000171541 3.04935e-05 9.52754e-20)
(0.000170218 3.61369e-05 -1.0758e-19)
(0.000172864 3.06287e-05 1.34862e-19)
(6.60879e-05 -2.39171e-06 9.03778e-19)
(5.87937e-05 -2.17523e-06 3.81515e-19)
(0.000991818 0.000648932 -1.43582e-18)
(0.00101469 0.000691639 -1.00937e-18)
(0.00106208 0.00066678 -8.63816e-19)
(-0.000314214 8.90571e-05 3.00409e-19)
(-0.000385321 6.07068e-05 1.35635e-19)
(4.43347e-05 -1.40113e-05 6.87192e-19)
(4.13851e-05 -1.072e-05 2.93229e-19)
(4.03957e-05 -1.50106e-05 -1.62955e-20)
(3.14796e-05 -4.30545e-06 2.76562e-19)
(3.17278e-05 -2.37788e-06 -2.33109e-19)
(2.92361e-05 -3.59705e-06 7.6885e-20)
(-0.000360379 0.00229832 -2.95678e-19)
(-0.000322729 0.00280088 -2.28567e-19)
(-0.000834689 0.00246534 -2.98177e-19)
(-0.0117447 0.126232 -1.36188e-18)
(-0.00972455 0.137272 -1.39829e-18)
(0.000229498 -3.81635e-06 1.11194e-19)
(0.000246764 -2.91471e-06 4.99205e-20)
(8.46114e-06 -4.16793e-06 -1.09561e-19)
(1.00065e-05 -2.14408e-06 5.53321e-20)
(0.147292 -0.0342313 -1.27825e-17)
(0.137863 -0.0416487 -5.51504e-18)
(0.140651 -0.0354894 -3.54015e-18)
(0.00296286 0.0013074 1.51709e-18)
(0.00281129 0.00140585 -9.90567e-19)
(0.00281223 0.0012288 1.10738e-18)
(6.44418e-05 -9.91176e-06 -4.5899e-19)
(6.32719e-05 -7.9189e-06 -1.80532e-19)
(6.34427e-05 -6.9404e-06 -9.62911e-20)
(6.69274e-05 -1.0923e-05 -3.47532e-20)
(6.51699e-05 -1.31873e-05 -6.22163e-19)
(-0.0377914 -0.0691319 4.27075e-18)
(-0.0680509 -0.0193951 1.02634e-17)
(-0.0485827 -0.0954247 -4.41959e-18)
(0.0141786 -0.0245797 -1.1465e-19)
(0.0150691 -0.0221626 -1.09459e-18)
(0.0112089 -0.0219456 3.32672e-19)
(3.49139e-05 -9.7854e-05 5.98909e-21)
(3.86648e-05 -0.000102369 -1.09746e-19)
(0.0130552 0.00559345 3.63623e-19)
(0.011003 0.00511225 -1.76237e-20)
(0.0124634 0.0034291 9.61105e-22)
(0.0277399 0.126703 -3.4763e-18)
(0.0412996 0.131644 -3.36366e-18)
(-0.000882389 -0.0010904 -1.04818e-19)
(-0.000931088 -0.000822695 1.02865e-19)
(-0.021999 -0.0357232 -1.38966e-18)
(-0.0241888 -0.040161 1.3564e-18)
(0.000266557 -3.39873e-05 6.2561e-20)
(0.000267694 -4.11476e-05 -5.80214e-20)
(-0.163813 -0.444176 -4.63334e-19)
(-0.194938 -0.405863 -3.48428e-19)
(-0.194568 -0.458144 3.53117e-19)
(0.0721316 -0.0252427 -3.36354e-19)
(0.0414044 -0.0150342 1.38064e-19)
(0.0432968 -0.0128959 -1.21331e-19)
(0.0437754 -0.016509 4.04684e-19)
(0.0302544 0.0181382 -9.35128e-19)
(0.0314319 0.0203737 -3.77038e-18)
(-0.172573 0.115828 1.0811e-18)
(-0.167945 0.121388 -1.30281e-17)
(6.16835e-05 -0.000111047 -1.18836e-19)
(6.31327e-05 -0.000115361 -3.52529e-20)