/*--------------------------------*- C++ -*----------------------------------*\
| =========                 |                                                 |
| \\      /  F ield         | OpenFOAM: The Open Source CFD Toolbox           |
|  \\    /   O peration     | Version:  v2012                                 |
|   \\  /    A nd           | Website:  www.openfoam.com                      |
|    \\/     M anipulation  |                                                 |
\*---------------------------------------------------------------------------*/
FoamFile
{
    version     2.0;
    format      ascii;
    class       volVectorField;
    location    "300";
    object      ddtCorrDdt0(U);
}
// * * * * * * * * * * * * * * * * * * * * * * * * * * * * * * * * * * * * * //

dimensions      [0 1 -2 0 0 0 0];


internalField   nonuniform List<vector> 
18758
(
(0.00595758 0.00282651 -1.70006e-20)
(0.0356185 0.0193095 -8.79931e-20)
(6.52443e-05 -4.87967e-06 3.00451e-19)
(0.00651339 0.001998 -4.15045e-19)
(-0.00619352 -0.00477956 -1.72224e-18)
(3.57332e-05 5.81323e-06 4.32886e-20)
(0.000311069 -9.65785e-05 -1.13884e-19)
(0.000365901 -0.00131649 -8.02203e-21)
(-0.0050576 -0.00467124 2.10626e-18)
(-0.00344214 -0.00525187 1.97157e-18)
(0.0325296 0.000701007 -3.28519e-19)
(0.0642926 -0.106555 1.40203e-18)
(-0.01409 -0.0506123 3.70523e-19)
(0.00173883 0.000297191 4.28924e-19)
(0.00030167 -0.000102618 8.82944e-22)
(0.000232975 -2.92135e-05 2.84711e-19)
(0.0516787 -0.141583 2.38312e-18)
(4.96407e-05 -9.24107e-05 8.95141e-21)
(0.000296208 -0.000101142 -7.39305e-20)
(-0.00183588 0.00210377 -8.13974e-19)
(0.0523413 0.101292 1.67659e-18)
(-0.064883 0.0942408 4.69061e-18)
(3.27245e-05 4.99756e-06 3.95258e-20)
(4.75981e-06 -3.3197e-06 1.00956e-19)
(-0.0927957 0.0943053 1.72187e-17)
(0.111508 0.0984632 -3.92789e-18)
(-0.0321745 -0.299674 1.14721e-17)
(0.0373924 -0.0458448 -1.66835e-18)
(0.0334319 0.0174527 6.13688e-18)
(0.0436301 0.0431969 -5.25362e-19)
(-0.00310579 0.041409 -6.37559e-20)
(-0.0295551 -0.358931 -1.3806e-18)
(0.000305873 -0.00114207 -1.40963e-21)
(-0.176987 0.131848 1.0413e-17)
(-0.00797801 -0.00358894 4.6674e-19)
(0.0495598 0.0305188 4.22108e-19)
(-0.00695784 -0.0539252 1.62417e-18)
(-0.00687127 -0.00347954 5.33162e-19)
(0.00231351 -0.0568972 -3.58534e-18)
(8.64133e-05 0.000478639 -2.4406e-20)
(0.0438145 -0.0434071 -1.68425e-18)
(-0.00169107 -0.00722426 -3.02941e-19)
(0.0345348 -0.0716628 -3.69647e-19)
(-0.000387121 -0.00105392 8.59094e-19)
(0.000237523 6.77187e-06 3.87372e-20)
(-0.0247648 0.021743 -4.06744e-18)
(-0.00113116 -0.00642027 1.52717e-18)
(0.0366503 0.0111356 2.62354e-18)
(-0.0338269 -0.0545532 6.25573e-18)
(0.00611159 -0.000857712 8.53675e-20)
(0.0362839 -0.00547662 -1.7162e-19)
(-0.162436 0.281242 -1.13299e-17)
(0.00607852 -0.00182559 -3.27499e-20)
(0.00431049 0.000616535 -1.80123e-18)
(-0.00258685 0.0612357 -6.30709e-18)
(-0.0159308 -0.0429424 1.48933e-18)
(-0.000387739 0.000148255 3.06531e-19)
(-0.00143208 0.00199138 -9.07313e-20)
(0.0338996 0.00710569 4.27768e-18)
(-0.000315064 0.000183904 -3.47213e-19)
(0.000244026 4.2984e-06 -1.95246e-19)
(-0.000575281 -0.000891218 4.68085e-19)
(-0.0649255 0.512283 8.43085e-18)
(0.142285 -0.0441418 4.27851e-20)
(0.000244445 3.7086e-06 5.26075e-19)
(-0.157545 0.0604989 1.27716e-17)
(0.000174327 -7.96426e-07 5.84095e-19)
(6.72661e-05 -8.76935e-05 -4.14456e-19)
(0.0347394 -0.0481426 -3.58575e-18)
(5.90664e-05 -8.02694e-05 -8.74931e-21)
(-0.169615 0.286308 2.44161e-17)
(0.0612443 0.134434 3.99569e-18)
(0.000300339 -1.42698e-05 9.90603e-19)
(-0.00654031 0.000255225 -8.62317e-19)
(-0.0559593 -0.00309586 2.92158e-18)
(-0.0117453 0.0563629 3.42006e-18)
(-0.105416 0.355979 6.85037e-18)
(0.0165128 -0.193039 -2.01288e-18)
(-0.00439749 -0.00563418 -5.91388e-19)
(0.0234167 -0.0850623 -3.64671e-19)
(0.0131134 0.0353336 1.36839e-17)
(-0.0048871 -0.0390219 2.88839e-18)
(0.0310165 -0.167227 1.78725e-18)
(-0.0279657 -0.00492921 3.35092e-19)
(0.000703552 -0.00212694 -1.33731e-18)
(-0.00117635 0.0497424 -6.63324e-19)
(0.00237574 0.0027834 9.92092e-18)
(-0.00745332 0.000513518 1.39637e-18)
(-0.0599839 0.507989 -1.88048e-17)
(-0.00312471 0.047055 2.21405e-18)
(-0.202379 0.333464 -3.93866e-17)
(0.000221494 -3.65956e-06 -1.8196e-19)
(0.00776097 0.0244807 -7.48251e-19)
(-0.0482754 -0.0574819 9.22122e-18)
(0.000291392 -9.61414e-06 -3.0197e-19)
(0.000167115 3.80613e-05 -4.43023e-19)
(9.63493e-05 5.8762e-05 -1.47207e-19)
(0.0202815 0.0106487 -2.4476e-18)
(0.0050421 -0.23177 -4.07536e-18)
(0.000246376 -5.8626e-05 -5.47251e-19)
(-0.0276054 0.0365801 -5.9473e-19)
(-0.00432225 0.00837828 -2.02169e-18)
(6.99334e-05 -0.000101457 -9.65188e-20)
(0.000170108 3.66357e-05 -6.84614e-20)
(-0.165138 0.0730439 1.19599e-17)
(0.0410152 0.115377 1.31697e-18)
(0.036326 0.0136735 -3.83201e-18)
(-0.213979 0.33192 3.94399e-18)
(-0.111623 0.474221 -1.09996e-19)
(0.102901 -0.0102115 1.38925e-18)
(0.000241213 -4.43341e-05 -4.71071e-20)
(0.160797 -0.00976599 -2.03086e-19)
(0.0058638 -0.00379555 3.86997e-19)
(0.000113915 3.25924e-06 -4.17415e-20)
(-0.00358563 0.00910331 -2.08426e-18)
(0.0733631 -0.0681274 1.14218e-18)
(0.0204356 0.00906681 5.19945e-18)
(5.59961e-05 0.000122364 1.74389e-19)
(0.0869574 -0.0677692 -7.34721e-19)
(0.00209712 -0.00225081 1.01448e-19)
(0.000101077 -9.50945e-06 -4.02204e-19)
(-0.0855287 0.378507 3.00338e-19)
(0.00112171 -0.0020543 -4.23792e-19)
(9.97718e-05 -7.51801e-05 -1.57171e-18)
(0.104431 -0.0583494 2.98799e-18)
(0.00417785 0.00108846 -5.37359e-19)
(-5.44002e-05 -0.00056223 -1.95813e-19)
(9.85377e-05 -6.47869e-05 1.67492e-18)
(0.05794 0.0336249 -9.51897e-19)
(0.0530316 -0.0852059 1.79319e-17)
(0.0339079 0.0095655 1.79467e-18)
(0.000188588 -1.06604e-05 -7.32095e-19)
(0.00303821 -0.00634137 -1.8201e-19)
(-0.243634 0.152573 -1.3896e-17)
(0.000184387 0.000538183 2.29134e-20)
(0.000142901 -1.7765e-05 -3.08923e-20)
(0.100496 0.0430236 -1.07245e-18)
(0.00162006 -0.00146215 2.23848e-19)
(0.0653881 -0.0264551 -7.93799e-19)
(0.0150943 0.0338375 -1.03789e-17)
(0.0062077 -0.00525543 -6.6347e-19)
(0.0700065 -0.0254881 -1.20231e-18)
(0.0129088 0.00994209 1.72654e-18)
(-0.106733 0.459791 -4.14409e-18)
(0.111533 -0.0582901 -1.9081e-18)
(0.00572753 0.0155038 -4.73143e-18)
(-0.169094 0.0692614 -6.82082e-18)
(0.0490663 0.0325074 -5.05694e-18)
(0.0329985 0.00708829 1.27726e-19)
(0.139871 -0.070268 6.82852e-18)
(0.0842029 -0.0530272 -4.46575e-17)
(0.0394273 -0.119396 -1.46215e-18)
(0.000435708 0.000389353 -4.44515e-19)
(-0.0085885 -0.00135921 -5.68306e-19)
(0.0397312 -0.0611283 -7.49179e-19)
(-0.17576 -0.508285 3.85543e-18)
(0.00905612 0.0235789 -4.15874e-19)
(0.0597257 0.0375527 3.13447e-18)
(-0.0315509 0.00544876 -2.91284e-18)
(0.037345 0.0115185 6.63453e-20)
(-0.111982 0.240436 9.05582e-18)
(2.10968e-05 -7.48294e-06 6.59244e-19)
(-0.0740806 -0.10739 7.74139e-18)
(-0.175917 0.0817528 2.77394e-18)
(-0.0142202 -0.0357995 4.30775e-19)
(-1.28487e-05 0.000516861 -5.75175e-19)
(4.08843e-05 -2.00455e-05 -8.47144e-19)
(-0.12848 0.248907 -2.13258e-17)
(0.0656974 -0.0733373 -1.86308e-17)
(0.0600558 -0.0720694 -2.01095e-18)
(0.00929358 -0.130425 1.90035e-17)
(6.77193e-05 -2.87411e-06 -3.869e-19)
(0.0386732 0.0184131 2.63396e-18)
(-0.00690319 0.0914414 8.15946e-20)
(-0.0956543 0.492357 1.20782e-17)
(0.000146812 -0.000198441 -1.13461e-18)
(0.000284605 -2.10828e-05 8.5985e-21)
(0.0888905 0.0944389 -1.85513e-18)
(-0.170207 0.140926 -2.59694e-18)
(0.000838551 0.000733781 1.7023e-18)
(4.10275e-05 -9.95562e-05 -3.07994e-19)
(0.00336625 0.00232572 -1.03289e-18)
(0.000617566 0.0589939 5.23779e-18)
(0.00125099 0.00108868 4.63465e-18)
(0.142165 -0.0996444 6.36888e-19)
(0.000283094 0.000183827 4.76533e-20)
(0.0391312 0.0547217 -5.77729e-21)
(0.0119141 0.00870027 -7.09845e-19)
(-0.0818077 -0.0474902 1.84899e-17)
(-0.0468684 -0.0528323 -9.81445e-19)
(0.0309465 -0.126922 5.54887e-18)
(0.000282929 0.000170083 -2.30738e-20)
(0.0237209 -0.0312007 1.32826e-18)
(-0.163218 0.206325 6.16666e-18)
(9.92839e-07 6.5631e-06 1.43483e-19)
(0.00125422 0.000949458 -2.47186e-18)
(0.0712949 -0.0318123 -4.95433e-19)
(0.000415188 0.000380394 1.96849e-19)
(-0.0997658 -0.0314867 -2.10872e-17)
(5.55165e-05 -1.0681e-06 2.85266e-19)
(0.00140934 -0.00182889 2.95458e-19)
(0.0659389 0.0396383 5.73336e-18)
(-0.144445 0.0211775 -3.34832e-18)
(0.000227572 -2.41467e-05 -1.2187e-19)
(0.000243798 -4.88425e-05 1.40419e-19)
(-0.0909225 -0.0953155 -3.10451e-18)
(-5.82138e-05 -9.64574e-05 2.64156e-20)
(-0.00893082 -0.00265461 -2.17652e-18)
(0.0662828 -0.0653626 2.03489e-17)
(0.0351068 -0.114788 -2.87971e-17)
(4.42599e-05 2.97529e-06 -9.16845e-19)
(0.011867 0.0246379 -1.79446e-18)
(0.00186498 -0.00201823 1.08059e-19)
(0.00193595 0.000160012 -1.17448e-18)
(-0.000809878 0.00157145 -2.62581e-19)
(8.37839e-05 9.51675e-05 6.27448e-20)
(0.000234386 -1.27832e-05 7.65539e-19)
(0.0108246 0.023622 2.581e-18)
(3.68999e-05 1.04052e-05 5.44671e-20)
(0.0601346 -0.0103131 -9.83144e-19)
(-0.177373 0.236367 -6.90491e-18)
(0.000699605 5.72362e-05 -2.38552e-19)
(0.0132756 0.0089691 2.23864e-18)
(0.0696721 0.0378995 -6.60295e-18)
(-0.137565 0.00583371 2.88455e-18)
(-0.0113542 0.13673 1.47246e-19)
(-0.0624342 0.0024518 -4.9426e-18)
(-0.0118203 0.0421854 -5.74806e-18)
(-0.121225 0.254226 -1.0788e-18)
(-2.31564e-05 -0.000100602 -6.40189e-19)
(0.126892 0.0881709 7.17281e-18)
(0.00662192 0.0149035 2.71854e-18)
(-0.108069 0.483121 -9.43031e-18)
(0.000147222 -1.33014e-05 1.0107e-19)
(0.000253027 -2.20873e-06 7.82481e-20)
(0.000775184 0.000169491 -5.72357e-19)
(-0.0418617 -0.0415859 1.29608e-18)
(0.00465271 -0.0617506 -2.55567e-18)
(0.0774918 -0.0379632 -2.86771e-20)
(0.00026899 -0.00031603 -7.24441e-20)
(0.000251243 -5.56394e-05 -9.55596e-20)
(-0.0400734 -0.0359591 -4.15061e-18)
(0.0585348 -0.0215481 6.80176e-19)
(6.62865e-05 -5.65812e-06 -7.55404e-19)
(0.148596 -0.0846011 -5.40563e-18)
(0.102397 0.000181158 3.53586e-18)
(0.000252932 1.28682e-05 3.22499e-19)
(0.000148956 -9.97323e-05 -7.07389e-19)
(-0.000228724 0.00137698 6.31212e-19)
(0.00023904 -7.3478e-05 2.65787e-19)
(0.00717207 -0.12664 -3.28156e-17)
(0.00032909 -0.000798854 3.4268e-19)
(0.0114171 0.0736658 -2.98776e-19)
(0.000968158 0.000128122 1.55319e-19)
(3.52743e-05 3.5958e-07 -6.13988e-21)
(0.0918953 -0.0370032 1.83796e-19)
(-0.000181905 0.000403436 5.55967e-20)
(0.00527644 0.161506 4.72058e-18)
(0.000250093 -8.21993e-06 2.67431e-20)
(-0.00237066 0.0176565 -5.92799e-18)
(0.00652108 -0.00288259 -8.55932e-19)
(9.08124e-05 -6.62205e-05 1.59315e-19)
(0.000251839 1.88245e-05 1.05821e-19)
(0.0211758 -0.0303067 3.91839e-19)
(-0.00750151 -0.304209 1.14038e-19)
(-0.0779948 -0.360289 1.5836e-20)
(7.90492e-05 -5.25126e-05 1.16759e-19)
(0.064082 -0.0221009 6.45595e-19)
(0.000444216 0.000394566 -7.73446e-20)
(0.000189284 -0.000348932 3.00267e-20)
(0.0849448 -0.0758428 -2.55519e-18)
(-0.17317 0.251505 1.11226e-17)
(0.00022627 -0.000297171 1.70745e-19)
(4.43353e-05 -0.000102025 1.37745e-18)
(-0.00180833 0.00265834 -1.37821e-19)
(-0.000570794 0.00140423 1.56195e-18)
(0.00456205 -0.00259372 -6.86734e-19)
(4.00057e-05 1.06803e-05 -1.7618e-19)
(0.00226413 0.000291995 7.90145e-19)
(0.00173251 0.000196635 6.75592e-19)
(0.000153472 -8.98556e-05 -1.13611e-18)
(0.000183501 -1.20065e-05 -3.76673e-19)
(0.000264486 -4.05072e-05 2.42084e-19)
(-0.190003 0.0944466 8.29895e-18)
(0.000306215 -9.65936e-05 1.75887e-19)
(6.12664e-05 -0.000112989 -1.14935e-18)
(3.88515e-05 -4.58165e-05 6.63812e-21)
(0.0574523 -0.0176274 -2.94523e-19)
(0.000171034 3.29912e-05 6.20092e-19)
(0.000171713 3.34967e-05 -3.48706e-19)
(6.42577e-05 -2.66316e-06 9.04823e-19)
(0.00102117 0.000669534 -2.6566e-18)
(-0.000352452 8.84759e-05 3.01719e-19)
(4.23747e-05 -1.3223e-05 5.21519e-19)
(3.07038e-05 -3.55909e-06 -6.5832e-19)
(-0.000518955 0.002509 -4.65916e-19)
(-0.0112695 0.133056 -1.40455e-18)
(0.000231471 -3.74689e-06 2.96131e-19)
(7.74854e-06 -2.95063e-06 -5.7768e-20)
(0.141861 -0.0367355 -2.25407e-17)
(0.00286562 0.00130552 1.22497e-18)
(6.39728e-05 -8.52776e-06 1.05086e-19)
(6.53482e-05 -1.12148e-05 -1.01905e-18)
(-0.0492441 -0.0726478 1.17964e-17)
(0.0131766 -0.0229117 5.65643e-19)
(3.75384e-05 -0.000100341 1.7914e-19)
(0.0122776 0.0046882 4.35013e-19)
(0.0374023 0.126399 -1.47993e-18)
(-0.000845899 -0.000944874 3.03562e-19)
(-0.0222978 -0.0391179 -2.05709e-18)
(0.000265687 -3.92404e-05 -2.89559e-19)
(-0.189384 -0.44539 -7.99062e-19)
(0.0702834 -0.0271589 6.0903e-21)
(0.0426595 -0.0150288 1.13405e-18)
(0.0313126 0.0187491 -6.52608e-18)
(-0.172265 0.121185 -9.99714e-18)
(6.19661e-05 -0.000114898 1.05595e-19)
(-0.0694627 0.167195 -1.52176e-17)
(0.0776885 0.0369027 -8.69836e-18)
(0.000172111 1.36134e-06 9.40281e-20)
(0.0400006 -0.0151977 -9.7194e-19)
(-0.02914 0.00199543 3.74506e-18)
(0.126082 -0.0659005 -8.25685e-19)
(0.000243111 -6.4406e-05 -6.85109e-19)
(6.31637e-05 -0.000107315 -3.40617e-19)
(0.0396759 -0.105107 -6.73436e-18)
(-0.0087363 0.139568 3.59306e-19)
(0.000137421 -0.000116055 4.33919e-19)
(0.0916787 -0.06605 -2.14278e-17)
(-0.032475 -0.031128 -1.93116e-18)
(0.00279825 -0.0094741 -1.25896e-18)
(-0.253179 0.177118 -1.88975e-18)
(0.000241683 -6.48121e-05 1.82746e-19)
(-0.000150755 0.000539707 -2.32477e-19)
(0.000252191 -7.94587e-06 -7.39905e-20)
(0.000118423 4.51329e-06 -2.1585e-19)
(0.000985897 0.000509055 -3.14744e-19)
(0.000637636 -0.00346854 -1.63065e-19)
(0.000542027 -0.00133502 3.03381e-19)
(-0.000112149 -0.000120402 2.50427e-19)
(0.000869882 0.000463878 -5.58147e-19)
(0.000379994 -0.000283673 2.74607e-19)
(-0.199524 -0.475723 -2.61955e-18)
(-0.0254126 -0.081662 -4.02694e-18)
(0.00165673 -0.00109091 -3.97491e-19)
(-0.0794779 0.0431263 1.1223e-17)
(-0.0091943 -0.234797 -9.63892e-19)
(0.000139311 -0.000116298 3.73372e-19)
(0.00763551 0.00544345 2.50614e-18)
(0.015378 -0.0265061 -4.26376e-19)
(-0.0722437 0.0777596 -1.23651e-17)
(0.0718846 -0.0400148 -3.50332e-19)
(0.0613334 -0.0504293 -1.42025e-18)
(0.000264655 0.000188753 1.21763e-19)
(0.0562283 -0.0897092 1.38565e-17)
(0.00790695 0.0526337 -7.11527e-18)
(0.016494 0.00155683 9.9936e-19)
(0.000408691 -0.000240341 -2.33537e-19)
(0.00111323 -0.00933875 -1.90675e-19)
(0.00186943 0.000751205 8.18555e-20)
(-0.0001711 -0.000904375 -6.17455e-19)
(0.0762983 -0.0330731 4.59566e-19)
(-0.150736 0.250711 -6.6252e-18)
(0.0666098 -0.0507992 3.64475e-20)
(-0.0789542 0.00652646 1.7315e-18)
(-0.126863 0.206435 9.58141e-18)
(0.000253727 6.20486e-06 1.92358e-19)
(0.0040898 0.00200381 -1.84232e-18)
(0.00353538 0.00281301 9.23129e-19)
(0.0221972 0.00840486 -1.76749e-18)
(-0.0124686 -0.0661969 -8.21247e-18)
(0.0729036 -0.0629819 6.38187e-19)
(-0.0661464 0.446195 6.98307e-18)
(-0.00069084 -0.0848226 -2.06375e-18)
(0.0514538 -0.0318525 4.1855e-19)
(0.0620914 -0.0545977 5.07062e-18)
(3.64725e-05 8.43718e-07 -3.54595e-20)
(-0.149084 0.0630696 -1.00558e-17)
(0.0509593 0.0348795 4.67393e-18)
(0.0245729 -0.0162834 1.19579e-18)
(0.0598233 -0.0641015 -2.02855e-19)
(0.000182886 7.59533e-07 -4.98301e-19)
(5.49896e-06 -1.76788e-06 -1.45681e-19)
(-0.0608536 0.0861745 5.58743e-18)
(0.0680202 -0.0516325 -1.3404e-18)
(-0.0769978 -0.0110307 -1.74296e-19)
(0.0860907 -0.0790482 2.97432e-18)
(0.0975629 -0.070233 2.43775e-17)
(0.000310898 -0.000326631 5.04148e-19)
(0.0593639 -0.103424 -7.13478e-19)
(0.100971 -0.0324402 9.42542e-19)
(0.000236136 -3.68174e-05 -1.35513e-19)
(0.00155753 2.02631e-07 5.12653e-18)
(0.00010993 0.00183922 -9.66156e-19)
(-0.0025733 -0.0004205 6.17309e-19)
(0.000101211 -7.56535e-06 1.27337e-18)
(0.00186239 0.00104703 -7.3519e-20)
(0.000253634 0.000260864 -2.93408e-19)
(0.000200648 -6.73925e-06 1.02344e-18)
(7.42218e-05 -4.35215e-06 -8.23664e-19)
(0.00065841 0.00138419 1.12139e-18)
(-0.00308436 -0.0110978 -3.33322e-19)
(-0.0179031 0.017721 1.12499e-17)
(0.00407908 0.00423098 3.40961e-19)
(0.0568461 0.0209884 -1.15963e-18)
(0.0507176 0.0198972 5.18614e-19)
(0.138381 -0.0376097 1.75909e-17)
(-0.0262406 0.0330749 -3.57039e-18)
(0.0552479 0.0224257 -3.8247e-18)
(-0.000192167 0.00210653 -6.84171e-20)
(6.15906e-06 2.44783e-06 4.64047e-19)
(0.0379085 -0.0735852 1.84108e-19)
(0.00153497 -0.000102306 9.50152e-19)
(0.000156526 -0.000355866 2.90539e-20)
(0.0750841 0.210167 -8.81665e-19)
(0.0222461 0.00676724 2.10922e-19)
(0.0539231 -0.0234734 1.35225e-19)
(-0.000292829 0.000403488 1.38365e-19)
(-0.185377 -0.50393 3.43916e-18)
(0.00024202 5.84522e-06 -2.46291e-19)
(0.00304016 0.00130563 1.74908e-18)
(1.76061e-05 -7.00863e-05 7.06005e-22)
(-0.149216 -0.00811492 4.45846e-19)
(-0.140025 -0.44303 -8.06751e-20)
(0.0688955 -0.0382189 -9.0262e-19)
(3.25155e-05 -5.02554e-06 1.16521e-18)
(-0.256864 0.18031 1.62356e-17)
(0.00510332 0.0228953 3.83122e-18)
(0.000253392 -6.20543e-07 1.19355e-19)
(-0.0024859 7.85986e-05 -1.18608e-19)
(4.77946e-05 6.11009e-07 -4.19957e-19)
(-0.0542545 0.408998 1.11829e-18)
(3.45685e-05 2.29268e-06 -2.10541e-19)
(4.6717e-05 -1.47867e-05 8.83939e-19)
(-0.0328782 -0.00507056 3.0628e-19)
(0.00391748 0.00450825 -5.49453e-19)
(0.000199101 -0.000367998 -2.78334e-19)
(0.000277703 -1.49261e-05 3.49872e-19)
(-0.000159975 -0.00115033 -6.52896e-21)
(-0.000258178 -0.00318976 -3.62263e-20)
(0.207002 0.0644667 8.86215e-19)
(0.0591033 -0.00596622 -5.99621e-19)
(3.24027e-05 1.50053e-07 2.15529e-19)
(-0.151569 0.0585732 -1.46542e-18)
(1.40751e-05 -5.85479e-05 1.56121e-19)
(0.00095239 -0.00389218 -5.86306e-19)
(-0.0113155 0.0399345 1.874e-18)
(0.000133123 9.69427e-05 3.83653e-20)
(-0.00335506 0.0225321 -2.18364e-18)
(2.81185e-05 -6.28063e-08 -1.86929e-20)
(-0.000549127 -0.00358241 6.13503e-20)
(6.32408e-05 -3.7753e-06 5.14124e-19)
(0.0678928 -0.0611708 -1.75501e-18)
(-0.000388085 0.00370973 2.67096e-19)
(0.000254305 0.000256159 -4.09724e-21)
(0.0412121 -0.0676156 -4.59229e-18)
(0.0167918 -0.0214448 -8.84401e-19)
(4.22112e-05 -5.23442e-05 2.44673e-21)
(0.00409781 0.00178697 2.7839e-18)
(-0.00321187 0.00130014 2.39978e-19)
(0.000229866 -2.85107e-05 1.10071e-19)
(7.16212e-05 4.69576e-06 1.51411e-19)
(0.000250008 3.05784e-06 -4.74866e-20)
(0.0308531 -0.224667 -1.72953e-18)
(-0.0540794 0.288957 6.76925e-18)
(0.000578683 0.000358222 -1.00353e-19)
(0.0122988 -0.00121743 9.84435e-19)
(-0.113645 0.191293 -1.19553e-17)
(0.0783385 0.0898595 -2.05091e-18)
(-0.0126944 0.204961 2.18558e-18)
(0.0997402 -0.00534904 1.63704e-18)
(-0.0134845 0.205168 6.13392e-19)
(0.000153961 5.42434e-06 1.97521e-19)
(0.0516285 0.0200707 -6.15688e-18)
(-0.0336875 -0.0353194 2.50641e-18)
(-0.0086815 -0.00632265 -3.25356e-18)
(0.000138296 -0.00109467 1.30399e-21)
(0.0542882 -0.00207097 1.04631e-18)
(0.00562305 -0.0228414 -1.74672e-18)
(0.00495078 -0.00591525 1.42469e-18)
(6.27083e-05 -3.93287e-06 -1.66697e-19)
(0.000310092 -0.000104979 2.12447e-19)
(0.000173367 2.4773e-05 6.14977e-19)
(0.00013257 8.95177e-05 -1.55508e-20)
(0.000175313 1.61888e-05 -1.41836e-19)
(0.000110478 4.76638e-05 5.40392e-20)
(-0.0378581 -0.0283335 8.23219e-19)
(0.000117269 -2.06763e-06 3.10312e-19)
(4.28706e-06 -1.83346e-05 3.9304e-19)
(0.00271335 0.0218796 -6.58349e-18)
(0.000195275 -1.29354e-05 5.55735e-19)
(6.39542e-05 -1.39846e-06 -5.54846e-19)
(-9.49112e-05 0.000472781 -1.87727e-19)
(-0.00276296 0.00123639 1.18045e-18)
(0.00272277 -0.0219321 2.33239e-18)
(0.0647074 0.0968493 -3.11855e-18)
(-7.5598e-05 -0.000110037 -1.55513e-18)
(0.0334797 -0.0122553 3.36999e-20)
(3.13841e-05 -3.14342e-06 -3.629e-20)
(0.0046641 0.00401815 -4.896e-18)
(0.0285273 0.056279 -9.61565e-19)
(0.0400354 0.230256 3.94367e-18)
(0.00696588 -0.0866389 -1.08199e-17)
(0.000238133 -1.55438e-05 -5.77851e-19)
(0.000254958 0.000203712 2.70664e-20)
(-0.0277643 0.271601 8.42751e-19)
(-0.250302 0.155456 4.13922e-18)
(0.000337702 -0.0131368 -5.59699e-19)
(-0.000357873 0.000274064 1.73343e-19)
(0.0655675 -0.0184847 7.66904e-19)
(-0.182309 0.0795691 -1.00668e-17)
(3.89311e-05 -5.54359e-05 -1.46904e-20)
(3.13772e-05 -6.51161e-06 3.2863e-20)
(-0.0536067 0.0965565 -1.86924e-18)
(-0.00108735 0.00140336 -3.94058e-19)
(0.0175052 0.0350803 -5.30998e-18)
(-0.00197058 -0.0130865 1.29114e-18)
(-0.0029656 0.000435265 3.13115e-19)
(0.0123278 -0.00199594 -6.98852e-19)
(0.000150735 -0.000102231 1.30072e-18)
(0.000164326 -0.000189497 9.92872e-19)
(0.000215228 -2.06273e-06 1.827e-19)
(1.5947e-05 3.58561e-06 -3.49018e-20)
(7.02547e-07 -9.76871e-05 3.42781e-19)
(0.000232161 3.56656e-06 1.69818e-19)
(-0.0295852 -0.167319 4.51288e-20)
(4.89389e-05 -5.54067e-05 -3.52591e-19)
(0.0471405 -0.0309187 -6.61488e-19)
(-0.109962 0.255393 1.12098e-17)
(4.20993e-05 -6.20888e-05 -4.02996e-21)
(4.78003e-05 -6.26148e-05 2.96612e-19)
(0.000112401 -1.27294e-06 5.85301e-20)
(0.00483466 0.000129858 2.34098e-19)
(0.00335251 0.00845533 -1.39768e-18)
(0.0643443 -0.00417042 7.69322e-19)
(0.000257027 -3.33595e-05 2.1033e-19)
(-0.0657295 -0.0539472 2.74409e-18)
(-0.000795393 -0.0090124 -1.05377e-18)
(-0.00879065 -0.00528353 3.03128e-18)
(-0.000107495 -5.20791e-05 -2.64098e-19)
(0.000648736 0.00105733 -1.10675e-18)
(-0.00043662 0.00165256 -6.91896e-19)
(0.00060024 0.000297223 7.73175e-19)
(0.00058401 0.000313706 -5.1567e-19)
(0.164317 0.0146249 1.56034e-17)
(0.148193 -0.102677 3.44141e-18)
(0.000150747 -8.77281e-05 4.75088e-19)
(2.4476e-05 -0.000101709 -5.0474e-19)
(0.000963528 0.000630741 -2.01054e-19)
(-0.142923 0.279532 -6.44445e-18)
(2.18552e-05 -7.9547e-05 1.51693e-20)
(0.000115841 0.000111488 2.83046e-20)
(0.000109378 4.02107e-05 -7.35828e-20)
(6.39623e-06 -3.14374e-05 -1.32856e-19)
(8.95713e-05 -0.000123848 1.70866e-18)
(-8.986e-05 -2.97808e-05 -2.41754e-20)
(0.00025185 0.00122957 2.08593e-18)
(0.000229664 -2.54809e-05 -2.55876e-20)
(0.0362658 0.00547395 -4.31741e-18)
(0.000260605 -1.91502e-05 1.73474e-19)
(0.000137543 0.000707655 -4.96824e-20)
(-0.00890794 -0.0626767 -3.92604e-19)
(0.0800724 0.206404 -4.26135e-18)
(0.00277887 -0.00549491 7.55357e-20)
(8.2222e-05 -0.000614665 -1.2512e-18)
(0.0001904 -0.000164357 1.50975e-18)
(6.38488e-05 -1.44224e-06 -5.11384e-19)
(0.000268634 -4.91154e-05 -1.39768e-19)
(0.00206938 -0.00169248 -1.17857e-19)
(0.0412385 -0.00930794 1.59135e-19)
(0.0318733 -0.0281852 8.45022e-19)
(0.000932577 0.000707122 -1.21461e-19)
(0.0485061 0.21419 2.93537e-18)
(0.000185491 -0.000174906 5.59204e-19)
(0.00789577 0.00599262 -9.89465e-18)
(-0.000198546 -0.000681442 3.407e-19)
(4.67032e-05 -6.68682e-06 -1.34756e-19)
(0.00766662 0.0156036 1.89264e-18)
(5.81975e-05 -6.1184e-05 8.44189e-21)
(1.38338e-05 2.36968e-06 5.48813e-19)
(-0.0131719 0.246151 -1.59167e-17)
(6.80156e-05 -6.58773e-06 -6.97063e-19)
(0.00135038 0.000957181 2.20274e-18)
(-0.0742958 0.0160269 9.22881e-19)
(7.09433e-05 -1.3172e-05 -3.79027e-19)
(0.000305064 6.92522e-05 -3.14192e-20)
(-0.127387 -0.0281708 -8.77833e-18)
(0.000107175 9.51621e-05 -5.89209e-19)
(-0.044421 -0.0197791 -2.90509e-19)
(0.00293421 -0.0188774 7.86206e-19)
(8.38272e-05 -5.56086e-06 -6.94908e-19)
(6.34879e-05 -2.65494e-06 -4.52147e-21)
(-0.025049 -0.0033708 -4.04962e-18)
(-0.000793909 -0.00144898 1.59185e-19)
(0.0042099 0.00818455 -1.55545e-18)
(0.000155346 -0.000198888 9.27704e-19)
(-0.00317975 0.0549651 2.88083e-18)
(0.0616704 0.202706 1.15678e-17)
(-0.0167626 0.199133 -1.25738e-17)
(0.0001555 -9.69552e-05 -9.83067e-20)
(0.152282 -0.0315455 -3.74565e-18)
(1.71439e-06 8.43101e-06 2.32178e-20)
(4.56572e-05 2.3622e-06 1.97127e-21)
(0.000275442 3.65471e-05 8.22542e-19)
(0.00433961 -0.00358732 -5.30852e-20)
(-0.0251138 -0.0470519 -3.48809e-19)
(0.00549166 -0.0702669 3.58653e-18)
(0.00109726 0.000691323 -3.2892e-19)
(0.00120824 0.00100882 -3.30893e-18)
(0.00154393 -0.0024667 1.92359e-19)
(-0.0892866 -0.32315 -6.94419e-18)
(0.0596442 -0.0177342 3.40319e-19)
(0.0002353 3.00237e-05 6.29851e-20)
(0.0139767 0.00684279 2.88371e-19)
(0.00319857 0.000996026 8.23211e-19)
(0.0219585 -0.0721329 7.00319e-18)
(0.00338047 -0.00576181 6.88452e-20)
(-0.000807395 -0.0148911 1.69084e-20)
(0.000154012 -4.36215e-05 -7.49788e-21)
(0.00377337 -0.00427719 1.1233e-20)
(0.0236782 0.00416981 -2.2399e-18)
(8.6446e-05 -4.63729e-06 -1.30845e-18)
(0.000149455 -5.17174e-05 -1.40796e-20)
(2.56085e-05 -8.64063e-05 -1.81667e-19)
(0.000146281 -0.000122796 1.15097e-18)
(0.00322569 -0.00410072 -9.09385e-19)
(0.0491152 -0.00204576 -3.73372e-19)
(0.0173471 0.0618039 3.69051e-19)
(-0.0246665 0.260735 -2.85224e-18)
(-0.00316241 -0.0138846 6.76848e-19)
(-0.00422563 0.000757581 4.65522e-19)
(0.000275422 2.68858e-05 -7.62094e-19)
(0.000126356 -8.45922e-05 -8.32968e-19)
(0.0494648 -0.0382482 6.18771e-19)
(-0.0796647 0.0839278 3.0218e-19)
(-3.87263e-05 0.00055872 1.59518e-19)
(0.0149244 0.0077308 -3.14699e-18)
(0.0420851 -0.116084 -2.07189e-17)
(0.162237 0.00537231 -1.77219e-17)
(4.32254e-05 9.41205e-07 -1.05608e-19)
(2.41447e-05 3.85806e-06 1.81584e-19)
(-0.0308795 -0.00197478 -1.9494e-18)
(-0.0293859 0.17879 1.32791e-17)
(2.20351e-06 2.06039e-05 -2.80273e-19)
(0.0111571 -0.0277748 9.71515e-19)
(0.000198021 -0.000153837 1.73038e-19)
(0.000206943 -6.61184e-06 2.80687e-19)
(0.00613025 0.00403136 -7.12847e-19)
(0.000251933 3.4306e-06 1.81224e-20)
(0.000596255 0.000343917 -2.24263e-19)
(-0.000930865 -0.00129063 -5.96633e-19)
(0.000172028 -4.27541e-05 -3.71015e-19)
(-0.00206435 -0.000596958 -5.78447e-19)
(0.0541765 -0.000581791 -1.77119e-19)
(0.00857615 0.0149154 7.10491e-18)
(-0.044686 -0.013564 -8.89084e-19)
(0.00186073 -9.54044e-05 1.38393e-19)
(7.81013e-05 -0.000114017 3.76392e-19)
(0.0823757 -0.0660748 5.73593e-19)
(0.000101979 0.000161371 -1.62316e-20)
(0.087916 -0.0716311 -1.36069e-18)
(-0.0195863 -0.140058 3.17286e-18)
(0.00017531 -0.000179001 -1.08253e-18)
(0.111762 0.0829118 -3.1212e-18)
(-0.00200659 -0.00196718 5.71478e-19)
(0.000153038 -0.000786461 1.36182e-18)
(0.0709193 0.068146 -2.03e-17)
(-0.00403322 0.117374 9.74766e-20)
(-0.00962988 0.119786 -2.9764e-19)
(0.0326261 -0.248646 5.413e-19)
(-0.000698279 -0.00123541 -1.22734e-19)
(-0.038523 -0.345229 2.1473e-18)
(5.30551e-05 -3.82822e-05 1.39661e-19)
(-0.138891 0.0591859 -8.53403e-18)
(0.144713 -0.0347601 1.41185e-17)
(0.0146052 0.000860263 -1.24841e-18)
(0.0010945 0.000269623 3.01853e-19)
(0.0662957 -0.0524276 3.9167e-18)
(0.00300678 0.00088398 -3.40181e-19)
(-0.022022 0.03852 -2.24783e-19)
(0.166042 0.00238169 -1.35126e-18)
(0.103378 -0.078758 1.46772e-20)
(0.000400095 0.000366053 -4.94841e-19)
(-0.0166231 -0.246128 1.95475e-17)
(5.47621e-05 1.27107e-06 1.63168e-19)
(0.0163418 0.00733402 1.6623e-18)
(0.0360144 0.0193161 -2.06424e-18)
(9.66169e-05 -2.2919e-05 5.56912e-19)
(0.00823776 -0.002089 2.6027e-18)
(-0.112496 0.398477 4.28335e-18)
(-0.0417305 -0.0269262 -3.43058e-19)
(-0.00493659 0.00278601 -1.57501e-18)
(0.000123442 0.00137125 -9.04179e-19)
(2.67322e-06 -8.36599e-06 -1.38873e-19)
(0.000474364 -0.000207953 1.91646e-19)
(-9.84699e-05 0.0030384 2.78812e-19)
(0.0122618 0.0069686 -2.17686e-18)
(-0.0627593 -0.0219301 1.85368e-18)
(9.93217e-05 -5.87097e-05 2.88776e-20)
(0.0778489 -0.0699346 4.52843e-19)
(-0.00368764 0.000851098 -9.37718e-20)
(0.000134614 -0.000351496 -1.08286e-18)
(0.00360412 0.00282925 2.46476e-18)
(2.83778e-05 -6.65296e-05 -2.85665e-20)
(0.00647028 0.0162212 -4.37028e-20)
(0.000260383 -4.81461e-05 2.16782e-19)
(0.000144057 -0.000126699 5.2222e-19)
(0.139989 -0.0877396 -4.28349e-19)
(0.000142201 -8.64349e-05 -3.62894e-19)
(0.00228007 0.000615004 -1.16139e-18)
(0.0381225 -0.0718329 3.30125e-20)
(0.00593021 0.0238718 -3.26351e-18)
(-0.00101526 0.023246 5.66126e-18)
(0.000227535 0.000219177 -4.72389e-20)
(0.000312577 -0.00023277 -2.11041e-18)
(0.0171177 -0.0212232 5.30482e-19)
(0.000417194 -0.000103933 -9.38367e-20)
(-0.0302153 0.172638 -9.28286e-18)
(0.00257079 0.0014768 6.43611e-21)
(-0.00139589 0.00149833 9.68361e-19)
(0.00121515 -7.97212e-06 6.49156e-20)
(-7.16069e-06 -0.00034905 1.74599e-19)
(6.49592e-07 1.17891e-05 9.0335e-20)
(-0.122411 0.235084 9.67247e-18)
(2.64486e-05 -6.94511e-05 2.56107e-19)
(0.000285459 0.281354 -5.15848e-19)
(0.0741993 0.0421785 6.49506e-18)
(0.000917299 0.00074395 -2.70035e-18)
(-0.195797 0.304119 -3.10744e-17)
(4.80028e-05 -9.63352e-06 6.34526e-19)
(0.00333518 -0.00781545 2.20425e-18)
(-0.00438244 0.0025906 -1.34684e-18)
(0.175556 0.0344008 1.32791e-18)
(0.00228384 0.00160684 2.5776e-18)
(0.0521694 -0.0152554 -2.14996e-19)
(0.0295448 -0.10172 5.04403e-19)
(2.37849e-05 -2.14071e-06 -4.86398e-19)
(0.0263634 -0.0848182 -6.15215e-20)
(8.06334e-05 -4.62262e-05 -2.74638e-19)
(0.142794 -0.00449693 2.57108e-18)
(0.000418053 -0.00014153 3.24366e-19)
(0.00063857 0.000148514 2.10966e-19)
(-0.18415 0.258092 5.84574e-17)
(0.0552501 -0.0612508 -5.71978e-20)
(0.000249773 -5.23475e-05 2.24917e-19)
(0.000429499 6.95843e-05 -9.74452e-20)
(-1.49494e-05 -0.00122784 1.0992e-19)
(0.000109808 6.61222e-05 1.39361e-19)
(0.000228245 0.000210978 -4.75552e-20)
(0.0612246 -0.0211062 1.76757e-18)
(-0.00669124 0.186088 -6.94357e-18)
(0.000344804 0.000192187 -9.27976e-20)
(0.000109498 6.89611e-05 -7.80943e-20)
(8.66433e-05 -5.01745e-05 -3.66452e-19)
(0.223549 0.0766629 2.46087e-19)
(-0.000938446 -0.07065 -7.78963e-18)
(-0.0087106 -0.0208554 -2.40054e-19)
(0.000168395 -6.32254e-05 4.19075e-19)
(0.0168783 0.00194926 -1.92315e-19)
(0.000614173 0.000127127 1.30494e-19)
(0.000285188 -0.000284638 2.15334e-18)
(0.0044837 0.0043153 6.51658e-18)
(0.0210203 -0.205028 7.19735e-18)
(0.000231918 2.56165e-05 -1.73861e-19)
(0.014603 0.00883066 1.62766e-19)
(0.0804886 -0.00347899 2.203e-19)
(-0.00126233 0.00233834 2.60151e-19)
(0.0119372 -0.0230425 -1.74409e-18)
(0.000332308 0.000189744 1.77111e-19)
(0.00230555 -0.00636304 5.99114e-21)
(0.000232062 2.36382e-05 1.27512e-19)
(0.000270946 0.000103061 2.61508e-19)
(0.0044025 0.00162008 -9.24865e-19)
(8.24066e-05 -0.000399348 5.18104e-20)
(0.0238822 0.00588662 1.08073e-19)
(0.000140873 8.24195e-05 -8.27707e-21)
(-0.228839 0.13036 2.16827e-17)
(0.000152025 -1.0027e-05 2.11275e-19)
(0.00275806 0.00149608 -3.00969e-18)
(0.033341 0.0146074 -1.5139e-18)
(-0.0343648 -0.0352746 3.01481e-19)
(0.0164722 0.00609112 3.485e-18)
(9.61271e-06 3.61112e-06 -1.83359e-19)
(-1.33163e-05 -0.000324915 4.74021e-20)
(0.0254595 -0.0802412 2.1986e-18)
(0.0195472 -0.000400556 3.52504e-19)
(-0.022818 0.0323567 1.39817e-19)
(0.000157004 -3.55629e-05 -3.48372e-19)
(0.000223294 -0.000109466 -2.39151e-19)
(-0.00645919 -0.000551661 1.71159e-18)
(-0.0448261 -0.146574 1.39462e-17)
(0.044954 -0.077208 -4.08759e-19)