/*--------------------------------*- C++ -*----------------------------------*\
| =========                 |                                                 |
| \\      /  F ield         | OpenFOAM: The Open Source CFD Toolbox           |
|  \\    /   O peration     | Version:  v2012                                 |
|   \\  /    A nd           | Website:  www.openfoam.com                      |
|    \\/     M anipulation  |                                                 |
\*---------------------------------------------------------------------------*/
FoamFile
{
    version     2.0;
    format      ascii;
    class       pointVectorField;
    location    "300";
    object      pointDisplacement;
}
// * * * * * * * * * * * * * * * * * * * * * * * * * * * * * * * * * * * * * //

dimensions      [0 1 0 0 0 0 0];


internalField   nonuniform List<vector> 
19270
(
(0 0 0)
(0 0 0)
(0 0 0)
(0 0 0)
(0 0 0)
(0 0 0)
(0 0 0)
(0 0 0)
(0 0 0)
(0 0 0)
(0 0 0)
(0 0 0)
(0 0 0)
(0 0 0)
(0 0 0)
(0 0 0)
(0 0 0)
(0 0 0)
(0 0 0)
(0 0 0)
(0 0 0)
(0 0 0)
(0 0 0)
(0 0 0)
(0 0 0)
(0 0 0)
(0 0 0)
(0 0 0)
(0 0 0)
(0 0 0)
(0 0 0)
(0 0 0)
(0 0 0)
(0 0 0)
(0 0 0)
(0 0 0)
(0 0 0)
(0 0 0)
(0 0 0)
(0 0 0)
(0 0 0)
(0 0 0)
(0 0 0)
(0 0 0)
(0 0 0)
(0 0 0)
(0 0 0)
(0 0 0)
(0 0 0)
(0 0 0)
(0 0 0)
(0 0 0)
(0 0 0)
(0 0 0)
(0 0 0)
(0 0 0)
(0 0 0)
(0 0 0)
(0 0 0)
(0 0 0)
(0 0 0)
(0 0 0)
(0 0 0)
(0 0 0)
(0 0 0)
(0 0 0)
(0 0 0)
(0 0 0)
(0 0 0)
(0 0 0)
(0 0 0)
(0 0 0)
(0 0 0)
(0 0 0)
(0 0 0)
(0 0 0)
(0 0 0)
(0 0 0)
(0 0 0)
(0 0 0)
(0 0 0)
(0 0 0)
(0 0 0)
(0 0 0)
(0 0 0)
(0 0 0)
(0 0 0)
(0 0 0)
(0 0 0)
(0 0 0)
(0 0 0)
(0 0 0)
(0 0 0)
(0 0 0)
(0 0 0)
(0 0 0)
(0 0 0)
(0 0 0)
(0 0 0)
(0 0 0)
(0 0 0)
(0 0 0)
(0 0 0)
(0 0 0)
(0 0 0)
(0 0 0)
(0 0 0)
(0 0 0)
(0 0 0)
(0 0 0)
(0 0 0)
(0 0 0)
(0 0 0)
(0 0 0)
(0 0 0)
(0 0 0)
(0 0 0)
(0 0 0)
(0 0 0)
(0 0 0)
(0 0 0)
(0 0 0)
(0 0 0)
(0 0 0)
(0 0 0)
(0 0 0)
(0 0 0)
(0 0 0)
(0 0 0)
(0 0 0)
(0 0 0)
(0 0 0)
(0 0 0)
(0 0 0)
(0 0 0)
(0 0 0)
(0 0 0)
(0 0 0)
(0 0 0)
(0 0 0)
(0 0 0)
(0 0 0)
(0 0 0)
(0 0 0)
(0 0 0)
(0 0 0)
(0 0 0)
(0 0 0)
(0 0 0)
(0 0 0)
(0 0 0)
(0 0 0)
(0 0 0)
(0 0 0)
(0 0 0)
(0 0 0)
(0 0 0)
(0 0 0)
(0 0 0)
(0 0 0)
(0 0 0)
(0 0 0)
(0 0 0)
(0 0 0)
(0 0 0)
(0 0 0)
(0 0 0)
(0 0 0)
(0 0 0)
(0 0 0)
(0 0 0)
(0 0 0)
(0 0 0)
(0 0 0)
(0 0 0)
(0 0 0)
(0 0 0)
(0 0 0)
(0 0 0)
(0 0 0)
(0 0 0)
(0 0 0)
(0 0 0)
(0 0 0)
(0 0 0)
(0 0 0)
(0 0 0)
(0 0 0)
(0 0 0)
(0 0 0)
(0 0 0)
(0 0 0)
(0 0 0)
(0 0 0)
(0 0 0)
(0 0 0)
(0 0 0)
(0 0 0)
(0 0 0)
(0 0 0)
(0 0 0)
(0 0 0)
(0 0 0)
(0 0 0)
(0 0 0)
(0 0 0)
(0 0 0)
(0 0 0)
(0 0 0)
(0 0 0)
(0 0 0)
(0 0 0)
(0 0 0)
(0 0 0)
(0 0 0)
(0 0 0)
(0 0 0)
(0 0 0)
(0 0 0)
(0 0 0)
(0 0 0)
(0 0 0)
(0 0 0)
(0 0 0)
(0 0 0)
(0 0 0)
(0 0 0)
(0 0 0)
(0 0 0)
(0 0 0)
(0 0 0)
(0 0 0)
(0 0 0)
(0 0 0)
(0 0 0)
(0 0 0)
(0 0 0)
(0 0 0)
(0 0 0)
(0 0 0)
(0 0 0)
(0 0 0)
(0 0 0)
(0 0 0)
(0 0 0)
(0 0 0)
(0 0 0)
(0 0 0)
(0 0 0)
(0 0 0)
(0 0 0)
(0 0 0)
(0 0 0)
(0 0 0)
(0 0 0)
(0 0 0)
(0 0 0)
(0 0 0)
(0 0 0)
(0 0 0)
(0 0 0)
(0 0 0)
(0 0 0)
(0 0 0)
(0 0 0)
(0 0 0)
(0 0 0)
(0 0 0)
(0 0 0)
(0 0 0)
(0 0 0)
(0 0 0)
(0 0 0)
(0 0 0)
(0 0 0)
(0 0 0)
(0 0 0)
(0 0 0)
(0 0 0)
(0 0 0)
(0 0 0)
(0 0 0)
(0 0 0)
(0 0 0)
(0 0 0)
(0 0 0)
(0 0 0)
(0 0 0)
(0 0 0)
(0 0 0)
(0 0 0)
(0 0 0)
(0 0 0)
(0 0 0)
(0 0 0)
(0 0 0)
(0 0 0)
(0 0 0)
(0 0 0)
(0 0 0)
(0 0 0)
(0 0 0)
(0 0 0)
(0 0 0)
(0 0 0)
(0 0 0)
(0 0 0)
(0 0 0)
(0 0 0)
(0 0 0)
(0 0 0)
(0 0 0)
(0 0 0)
(0 0 0)
(0 0 0)
(0 0 0)
(0 0 0)
(0 0 0)
(0 0 0)
(0 0 0)
(0 0 0)
(0 0 0)
(0 0 0)
(0 0 0)
(0 0 0)
(0 0 0)
(0 -6.29025e-06 0)
(0 -4.90916e-06 0)
(0 -6.09856e-06 0)
(0 -5.21254e-06 0)
(0 -5.59309e-06 0)
(0 -3.6189e-06 0)
(0 -4.04518e-06 0)
(0 -4.50812e-06 0)
(0 -2.22081e-06 0)
(0 -3.2472e-06 0)
(0 -9.0849e-07 0)
(0 -3.977e-06 0)
(0 -1.90925e-07 0)
(0 -5.50697e-06 0)
(0 -3.01863e-06 0)
(0 -3.08534e-06 0)
(0 -2.55844e-06 0)
(0 -2.41739e-06 0)
(0 -5.91995e-06 0)
(0 -1.97183e-06 0)
(0 -1.61578e-06 0)
(0 -1.2408e-06 0)
(0 -2.43782e-07 0)
(0 -6.02496e-06 0)
(0 -4.87349e-06 0)
(0 -4.79426e-06 0)
(0 -3.83609e-06 0)
(0 -3.57411e-06 0)
(0 -1.11471e-06 0)
(0 -8.15604e-07 0)
(0 -3.49922e-06 0)
(0 -1.2183e-06 0)
(0 -2.85177e-07 0)
(0 -4.63675e-06 0)
(0 -2.59354e-06 0)
(0 -3.32356e-06 0)
(0 -4.37529e-06 0)
(0 -5.06789e-06 0)
(0 -3.90292e-06 0)
(0 -2.79144e-06 0)
(0 -7.2325e-07 0)
(0 -4.80405e-07 0)
(0 -2.01837e-06 0)
(0 -3.14123e-07 0)
(0 -3.77191e-06 0)
(0 -5.2874e-06 0)
(0 -3.98946e-06 0)
(0 -5.87588e-06 0)
(0 -5.03962e-06 0)
(0 -5.93127e-06 0)
(0 -4.84752e-07 0)
(0 -1.37209e-06 0)
(0 -1.8007e-06 0)
(0 -3.57037e-06 0)
(0 -3.63455e-06 0)
(0 -6.02131e-06 0)
(0 -4.65292e-06 0)
(0 -3.40319e-06 0)
(0 -6.44785e-06 0)
(0 -5.34792e-06 0)
(0 -5.16151e-06 0)
(0 -5.93599e-06 0)
(0 -3.93317e-06 0)
(0 -3.61855e-06 0)
(0 -3.56316e-06 0)
(0 -3.03149e-06 0)
(0 -2.27179e-06 0)
(0 -1.91879e-06 0)
(0 -1.30005e-06 0)
(0 -1.87137e-07 0)
(0 -0.000116378 0)
(0 -0.000149554 0)
(0 -0.000168464 0)
(0 -0.000172497 0)
(0 -0.000175944 0)
(0 -0.000178797 0)
(0 -0.000180834 0)
(0 -0.000182186 0)
(0 -0.000182762 0)
(0 -0.000182542 0)
(0 -0.000181592 0)
(0 -0.000179822 0)
(0 -0.000177378 0)
(0 -0.00017434 0)
(0 -0.000170866 0)
(0 -0.000166907 0)
(0 -0.000162413 0)
(0 -0.000157158 0)
(0 -0.000151297 0)
(0 -0.000147376 0)
(0 -0.000145066 0)
(0 -0.000145587 0)
(0 -0.000143312 0)
(0 -0.000143711 0)
(0 -0.000141481 0)
(0 -0.000141768 0)
(0 -0.000139567 0)
(0 -0.000139758 0)
(0 -0.000137577 0)
(0 -0.000137657 0)
(0 -0.000135498 0)
(0 -0.000135324 0)
(0 -0.000135483 0)
(0 -0.000133321 0)
(0 -0.000133217 0)
(0 -0.000131015 0)
(0 -0.000130825 0)
(0 -0.000132935 0)
(0 -0.000130456 0)
(0 -0.000132476 0)
(0 -0.000128364 0)
(0 -0.000127921 0)
(0 -0.000125808 0)
(0 -0.000125331 0)
(0 -0.000123217 0)
(0 -0.000122642 0)
(0 -7.2758e-05 0)
(0 -6.95691e-05 0)
(0 -7.16636e-05 0)
(0 -6.85658e-05 0)
(0 -7.03962e-05 0)
(0 -6.75483e-05 0)
(0 -6.94062e-05 0)
(0 -6.66151e-05 0)
(0 -6.86278e-05 0)
(0 -6.57446e-05 0)
(0 -6.7765e-05 0)
(0 -6.48958e-05 0)
(0 -6.69276e-05 0)
(0 -6.406e-05 0)
(0 -6.61635e-05 0)
(0 -6.32597e-05 0)
(0 -6.53694e-05 0)
(0 -6.25471e-05 0)
(0 -6.46453e-05 0)
(0 -6.19151e-05 0)
(0 -6.39577e-05 0)
(0 -6.12068e-05 0)
(0 -6.3301e-05 0)
(0 -6.05537e-05 0)
(0 -6.26423e-05 0)
(0 -5.96126e-05 0)
(0 -6.20487e-05 0)
(0 -5.94705e-05 0)
(0 -6.159e-05 0)
(0 -5.90074e-05 0)
(0 -6.11542e-05 0)
(0 -5.85493e-05 0)
(0 -6.07176e-05 0)
(0 -5.81229e-05 0)
(0 -6.02839e-05 0)
(0 -5.76814e-05 0)
(0 -5.98628e-05 0)
(0 -5.73212e-05 0)
(0 -5.95102e-05 0)
(0 -5.70106e-05 0)
(0 -5.91532e-05 0)
(0 -5.66633e-05 0)
(0 -5.88037e-05 0)
(0 -5.63149e-05 0)
(0 -6.18299e-05 0)
(0 -5.85498e-05 0)
(0 -5.60989e-05 0)
(0 -5.3739e-05 0)
(0 -5.3842e-05 0)
(0 -5.13518e-05 0)
(0 -5.15816e-05 0)
(0 -4.91266e-05 0)
(0 -4.89554e-05 0)
(0 -4.69667e-05 0)
(0 -4.67555e-05 0)
(0 -4.48572e-05 0)
(0 -4.46835e-05 0)
(0 -4.28035e-05 0)
(0 -4.27222e-05 0)
(0 -4.08029e-05 0)
(0 -4.0812e-05 0)
(0 -3.89217e-05 0)
(0 -3.90011e-05 0)
(0 -3.71621e-05 0)
(0 -3.73204e-05 0)
(0 -3.54936e-05 0)
(0 -3.56773e-05 0)
(0 -3.39101e-05 0)
(0 -3.41187e-05 0)
(0 -3.24072e-05 0)
(0 -3.26376e-05 0)
(0 -3.09631e-05 0)
(0 -3.12174e-05 0)
(0 -2.95927e-05 0)
(0 -2.98603e-05 0)
(0 -2.82949e-05 0)
(0 -2.85654e-05 0)
(0 -2.70596e-05 0)
(0 -2.73496e-05 0)
(0 -2.59026e-05 0)
(0 -2.62273e-05 0)
(0 -2.48412e-05 0)
(0 -2.52011e-05 0)
(0 -2.38598e-05 0)
(0 -2.4249e-05 0)
(0 -2.29381e-05 0)
(0 -2.33419e-05 0)
(0 -2.20294e-05 0)
(0 -2.24925e-05 0)
(0 -2.1181e-05 0)
(0 -2.17699e-05 0)
(0 -2.03939e-05 0)
(0 -2.08215e-05 0)
(0 -1.96309e-05 0)
(0 -2.01069e-05 0)
(0 -1.89476e-05 0)
(0 -1.95307e-05 0)
(0 -1.83173e-05 0)
(0 -1.87999e-05 0)
(0 -1.77276e-05 0)
(0 -5.83869e-05 0)
(0 -4.27462e-05 0)
(0 -3.14492e-05 0)
(0 -5.99396e-05 0)
(0 -3.69566e-05 0)
(0 -2.36728e-05 0)
(0 -1.93137e-05 0)
(0 -2.92531e-05 0)
(0 -1.9083e-05 0)
(0 -2.3442e-05 0)
(0 -0.000120271 0)
(0 -0.000119878 0)
(0 -0.000117642 0)
(0 -0.000117119 0)
(0 -0.000115001 0)
(0 -0.000115547 0)
(0 -0.000114296 0)
(0 -0.000116348 0)
(0 -0.000112232 0)
(0 -0.000111396 0)
(0 -0.000109324 0)
(0 -0.000108415 0)
(0 -0.000106327 0)
(0 -0.000105413 0)
(0 -0.00010333 0)
(0 -0.000102382 0)
(0 -0.000100291 0)
(0 -9.92919e-05 0)
(0 -6.42514e-05 0)
(0 -9.71571e-05 0)
(0 -9.80819e-05 0)
(0 -9.61161e-05 0)
(0 -9.81523e-05 0)
(0 -9.49145e-05 0)
(0 -9.6838e-05 0)
(0 -9.29137e-05 0)
(0 -9.16658e-05 0)
(0 -8.96923e-05 0)
(0 -8.84139e-05 0)
(0 -8.64676e-05 0)
(0 -8.51664e-05 0)
(0 -8.32487e-05 0)
(0 -8.19187e-05 0)
(0 -8.00336e-05 0)
(0 -7.86573e-05 0)
(0 -8.04531e-05 0)
(0 -7.68131e-05 0)
(0 -7.54155e-05 0)
(0 -7.81679e-05 0)
(0 -7.35936e-05 0)
(0 -7.21912e-05 0)
(0 -5.70493e-05 0)
(0 -7.03956e-05 0)
(0 -6.89767e-05 0)
(0 -6.72001e-05 0)
(0 -6.57671e-05 0)
(0 -6.4006e-05 0)
(0 -6.25582e-05 0)
(0 -6.4208e-05 0)
(0 -6.09909e-05 0)
(0 -6.24976e-05 0)
(0 -5.93913e-05 0)
(0 -6.76119e-05 0)
(0 -5.78344e-05 0)
(0 -5.6271e-05 0)
(0 -5.47465e-05 0)
(0 -5.3201e-05 0)
(0 -5.16988e-05 0)
(0 -5.01796e-05 0)
(0 -4.86897e-05 0)
(0 -6.28358e-05 0)
(0 -5.43754e-06 0)
(0 -6.18014e-06 0)
(0 -5.8262e-06 0)
(0 -6.61982e-06 0)
(0 -6.26218e-06 0)
(0 -7.22105e-06 0)
(0 -6.72012e-06 0)
(0 -7.61042e-06 0)
(0 -7.18454e-06 0)
(0 -8.10376e-06 0)
(0 -7.68993e-06 0)
(0 -8.66567e-06 0)
(0 -8.24826e-06 0)
(0 -9.28591e-06 0)
(0 -8.85269e-06 0)
(0 -7.8334e-06 0)
(0 -8.43256e-06 0)
(0 -7.44373e-06 0)
(0 -8.03967e-06 0)
(0 -7.07708e-06 0)
(0 -7.6918e-06 0)
(0 -6.77796e-06 0)
(0 -7.37365e-06 0)
(0 -6.40305e-06 0)
(0 -7.09198e-06 0)
(0 -6.24325e-06 0)
(0 -6.85974e-06 0)
(0 -6.03382e-06 0)
(0 -6.65577e-06 0)
(0 -5.85357e-06 0)
(0 -6.49674e-06 0)
(0 -5.73486e-06 0)
(0 -8.30942e-06 0)
(0 -6.37535e-06 0)
(0 -5.63577e-06 0)
(0 -6.27552e-06 0)
(0 -5.53791e-06 0)
(0 -7.07438e-06 0)
(0 -8.46188e-06 0)
(0 -6.19986e-06 0)
(0 -5.49675e-06 0)
(0 -6.15688e-06 0)
(0 -5.46935e-06 0)
(0 -6.1498e-06 0)
(0 -5.48427e-06 0)
(0 -6.18093e-06 0)
(0 -5.54594e-06 0)
(0 -6.24451e-06 0)
(0 -5.62531e-06 0)
(0 -6.92883e-06 0)
(0 -5.06348e-06 0)
(0 -6.33754e-06 0)
(0 -5.73057e-06 0)
(0 -6.46265e-06 0)
(0 -5.86339e-06 0)
(0 -5.16285e-06 0)
(0 -5.31661e-06 0)
(0 -4.6528e-06 0)
(0 -4.82169e-06 0)
(0 -4.19188e-06 0)
(0 -4.3615e-06 0)
(0 -3.68876e-06 0)
(0 -3.94969e-06 0)
(0 -3.38315e-06 0)
(0 -3.59147e-06 0)
(0 -3.06851e-06 0)
(0 -3.25792e-06 0)
(0 -2.76808e-06 0)
(0 -2.96251e-06 0)
(0 -2.5123e-06 0)
(0 -2.70699e-06 0)
(0 -2.28412e-06 0)
(0 -3.76776e-06 0)
(0 -6.02155e-06 0)
(0 -2.87149e-06 0)
(0 -5.40676e-06 0)
(0 -4.86471e-06 0)
(0 -9.93155e-06 0)
(0 -4.72091e-05 0)
(0 -4.86674e-05 0)
(0 -6.53975e-05 0)
(0 -5.01765e-05 0)
(0 -4.57146e-05 0)
(0 -4.42616e-05 0)
(0 -4.27719e-05 0)
(0 -4.13467e-05 0)
(0 -3.9853e-05 0)
(0 -3.84656e-05 0)
(0 -6.38778e-05 0)
(0 -6.70627e-05 0)
(0 -6.46001e-05 0)
(0 -6.77356e-05 0)
(0 -6.52088e-05 0)
(0 -3.69837e-05 0)
(0 -3.81888e-05 0)
(0 -6.20709e-05 0)
(0 -6.2622e-05 0)
(0 -6.57156e-05 0)
(0 -6.30765e-05 0)
(0 -2.1096e-05 0)
(0 -2.14903e-05 0)
(0 -2.23635e-05 0)
(0 -2.27767e-05 0)
(0 -2.17744e-05 0)
(0 -2.3065e-05 0)
(0 -2.40508e-05 0)
(0 -2.43018e-05 0)
(0 -2.52823e-05 0)
(0 -2.54851e-05 0)
(0 -2.64782e-05 0)
(0 -2.66594e-05 0)
(0 -2.767e-05 0)
(0 -2.79046e-05 0)
(0 -2.68045e-05 0)
(0 -2.81092e-05 0)
(0 -2.92709e-05 0)
(0 -2.95162e-05 0)
(0 -3.07208e-05 0)
(0 -3.09736e-05 0)
(0 -3.21656e-05 0)
(0 -3.24285e-05 0)
(0 -3.36234e-05 0)
(0 -3.38822e-05 0)
(0 -3.51333e-05 0)
(0 -3.53648e-05 0)
(0 -3.39619e-05 0)
(0 -3.54514e-05 0)
(0 -3.68703e-05 0)
(0 -3.70302e-05 0)
(0 -3.84812e-05 0)
(0 -3.8758e-05 0)
(0 -4.02488e-05 0)
(0 -4.06596e-05 0)
(0 -4.21871e-05 0)
(0 -4.27373e-05 0)
(0 -4.10731e-05 0)
(0 -4.32665e-05 0)
(0 -4.49384e-05 0)
(0 -4.55591e-05 0)
(0 -4.72339e-05 0)
(0 -4.79322e-05 0)
(0 -4.96247e-05 0)
(0 -5.03712e-05 0)
(0 -5.20586e-05 0)
(0 -5.28314e-05 0)
(0 -5.4509e-05 0)
(0 -5.53092e-05 0)
(0 -5.70163e-05 0)
(0 -5.78491e-05 0)
(0 -5.96079e-05 0)
(0 -6.04626e-05 0)
(0 -6.22733e-05 0)
(0 -6.31282e-05 0)
(0 -6.49755e-05 0)
(0 -6.58337e-05 0)
(0 -6.77004e-05 0)
(0 -6.85787e-05 0)
(0 -7.04946e-05 0)
(0 -7.14052e-05 0)
(0 -7.34132e-05 0)
(0 -7.43494e-05 0)
(0 -7.64378e-05 0)
(0 -7.73946e-05 0)
(0 -7.95126e-05 0)
(0 -8.0473e-05 0)
(0 -8.25982e-05 0)
(0 -8.35621e-05 0)
(0 -8.56814e-05 0)
(0 -8.66484e-05 0)
(0 -8.87346e-05 0)
(0 -8.97283e-05 0)
(0 -9.17956e-05 0)
(0 -9.28269e-05 0)
(0 -9.48842e-05 0)
(0 -9.59232e-05 0)
(0 -9.79424e-05 0)
(0 -9.89577e-05 0)
(0 -0.000101017 0)
(0 -0.000101978 0)
(0 -0.000104098 0)
(0 -0.000105001 0)
(0 -0.000107201 0)
(0 -0.000108089 0)
(0 -0.000110393 0)
(0 -0.000111286 0)
(0 -0.000113715 0)
(0 -0.000114599 0)
(0 -0.000112017 0)
(0 -0.000115268 0)
(0 -0.000117934 0)
(0 -0.000118508 0)
(0 -0.000121176 0)
(0 -0.000121716 0)
(0 -0.000118897 0)
(0 -0.000122074 0)
(0 -0.000124905 0)
(0 -0.000125185 0)
(0 -0.000109432 0)
(0 -0.000122194 0)
(0 -0.000125172 0)
(0 -0.000128173 0)
(0 -0.000128039 0)
(0 -0.00013109 0)
(0 -0.000130854 0)
(0 -0.00012766 0)
(0 -0.000130389 0)
(0 -0.000133612 0)
(0 -0.000133044 0)
(0 -0.000136251 0)
(0 -0.000135628 0)
(0 -0.000132377 0)
(0 -0.000134835 0)
(0 -9.71322e-05 0)
(0 -0.000138177 0)
(0 -0.000137281 0)
(0 -0.000133876 0)
(0 -0.000136256 0)
(0 -0.000139721 0)
(0 -0.000138627 0)
(0 -0.000142066 0)
(0 -0.000140921 0)
(0 -0.000137379 0)
(0 -0.000139634 0)
(0 -0.000143119 0)
(0 -0.000141824 0)
(0 -0.000138245 0)
(0 -0.000140371 0)
(0 -0.000143898 0)
(0 -0.000142367 0)
(0 -0.000145841 0)
(0 -0.000144256 0)
(0 -0.000140683 0)
(0 -0.000142485 0)
(0 -0.000146015 0)
(0 -0.000144125 0)
(0 -0.000147513 0)
(0 -0.000145632 0)
(0 -0.000142036 0)
(0 -0.000143567 0)
(0 -0.000147106 0)
(0 -0.00014504 0)
(0 -8.14753e-05 0)
(0 -0.000141291 0)
(0 -0.000142746 0)
(0 -0.000146431 0)
(0 -0.000144151 0)
(0 -0.000147736 0)
(0 -0.000145482 0)
(0 -0.00014178 0)
(0 -0.000143138 0)
(0 -0.000146561 0)
(0 -0.000144297 0)
(0 -0.000140644 0)
(0 -0.000141865 0)
(0 -0.000145411 0)
(0 -0.000142948 0)
(0 -0.00014643 0)
(0 -0.0001439 0)
(0 -0.000140183 0)
(0 -0.000141092 0)
(0 -0.000144721 0)
(0 -0.000141884 0)
(0 -0.000145412 0)
(0 -0.000142623 0)
(0 -0.000139008 0)
(0 -0.000139769 0)
(0 -0.000143508 0)
(0 -0.000140561 0)
(0 -0.00013686 0)
(0 -0.000137487 0)
(0 -0.000141092 0)
(0 -0.000137915 0)
(0 -0.000141387 0)
(0 -0.000138293 0)
(0 -0.000134285 0)
(0 -0.000135251 0)
(0 -0.000138679 0)
(0 -0.000135547 0)
(0 -0.000132161 0)
(0 -0.000132301 0)
(0 -0.000135757 0)
(0 -0.000132509 0)
(0 -6.66784e-05 0)
(0 -0.000129003 0)
(0 -0.000129237 0)
(0 -0.000135856 0)
(0 -0.000125645 0)
(0 -0.000125887 0)
(0 -5.36215e-05 0)
(0 -0.00012219 0)
(0 -0.000122469 0)
(0 -0.000118642 0)
(0 -0.00011896 0)
(0 -9.377e-05 0)
(0 -0.000114987 0)
(0 -0.000115316 0)
(0 -0.000114574 0)
(0 -0.000119162 0)
(0 -0.000115515 0)
(0 -0.000119227 0)
(0 -0.000115606 0)
(0 -0.00011181 0)
(0 -0.000111897 0)
(0 -4.15879e-05 0)
(0 -0.000115638 0)
(0 -0.000111951 0)
(0 -0.000108126 0)
(0 -0.000108223 0)
(0 -0.000104332 0)
(0 -0.000104499 0)
(0 -0.000115584 0)
(0 -2.69225e-05 0)
(0 -0.000100549 0)
(0 -0.000100778 0)
(0 -9.6757e-05 0)
(0 -9.7016e-05 0)
(0 -0.000100956 0)
(0 -9.72314e-05 0)
(0 -9.32219e-05 0)
(0 -9.34741e-05 0)
(0 -0.000101066 0)
(0 -8.94025e-05 0)
(0 -8.97041e-05 0)
(0 -8.14821e-05 0)
(0 -8.55881e-05 0)
(0 -8.59214e-05 0)
(0 -5.61183e-05 0)
(0 -8.17655e-05 0)
(0 -8.21082e-05 0)
(0 -8.13491e-05 0)
(0 -8.6139e-05 0)
(0 -8.23497e-05 0)
(0 -4.15818e-05 0)
(0 -0.000143923 0)
(0 -7.82921e-05 0)
(0 -7.85638e-05 0)
(0 -6.95551e-05 0)
(0 -3.56471e-05 0)
(0 -3.7e-05 0)
(0 -3.42084e-05 0)
(0 -5.99824e-05 0)
(0 -6.04013e-05 0)
(0 -4.50492e-05 0)
(0 -3.46909e-05 0)
(0 -8.62537e-05 0)
(0 -6.61259e-05 0)
(0 -7.44971e-05 0)
(0 -7.47932e-05 0)
(0 -9.64958e-05 0)
(0 -3.29262e-05 0)
(0 -3.15249e-05 0)
(0 -5.73059e-05 0)
(0 -5.76939e-05 0)
(0 -7.09897e-05 0)
(0 -2.73719e-05 0)
(0 -7.07222e-05 0)
(0 -7.10246e-05 0)
(0 -3.02863e-05 0)
(0 -2.89318e-05 0)
(0 -5.45887e-05 0)
(0 -5.49453e-05 0)
(0 -6.69387e-05 0)
(0 -6.72456e-05 0)
(0 -7.12162e-05 0)
(0 -6.74566e-05 0)
(0 -7.12915e-05 0)
(0 -6.75576e-05 0)
(0 -6.37383e-05 0)
(0 -6.38572e-05 0)
(0 -6.00493e-05 0)
(0 -6.01803e-05 0)
(0 -6.38468e-05 0)
(0 -6.02032e-05 0)
(0 -2.77151e-05 0)
(0 -2.64174e-05 0)
(0 -2.74703e-05 0)
(0 -5.18304e-05 0)
(0 -5.21621e-05 0)
(0 -5.52213e-05 0)
(0 -5.2414e-05 0)
(0 -5.14283e-05 0)
(0 -5.54159e-05 0)
(0 -5.25837e-05 0)
(0 -5.55267e-05 0)
(0 -5.2676e-05 0)
(0 -8.44852e-06 0)
(0 -9.23144e-06 0)
(0 -8.90042e-06 0)
(0 -9.71745e-06 0)
(0 -9.40373e-06 0)
(0 -1.02484e-05 0)
(0 -9.93568e-06 0)
(0 -1.08196e-05 0)
(0 -1.0519e-05 0)
(0 -1.14381e-05 0)
(0 -1.11789e-05 0)
(0 -1.21104e-05 0)
(0 -1.18255e-05 0)
(0 -1.27987e-05 0)
(0 -1.24931e-05 0)
(0 -4.97264e-05 0)
(0 -4.98086e-05 0)
(0 -5.65569e-05 0)
(0 -5.66217e-05 0)
(0 -1.35445e-05 0)
(0 -1.32575e-05 0)
(0 -6.65401e-05 0)
(0 -1.43414e-05 0)
(0 -1.40943e-05 0)
(0 -2.19514e-05 0)
(0 -3.39248e-05 0)
(0 -2.49875e-05 0)
(0 -2.56852e-05 0)
(0 -2.39962e-05 0)
(0 -1.51865e-05 0)
(0 -1.49884e-05 0)
(0 -1.6115e-05 0)
(0 -1.59452e-05 0)
(0 -1.71578e-05 0)
(0 -1.698e-05 0)
(0 -5.55532e-05 0)
(0 -5.30089e-05 0)
(0 -5.31175e-05 0)
(0 -4.68493e-05 0)
(0 -4.69241e-05 0)
(0 -6.37097e-05 0)
(0 -4.86566e-05 0)
(0 -4.82042e-05 0)
(0 -2.48549e-05 0)
(0 -2.67067e-05 0)
(0 -2.5843e-05 0)
(0 -2.77192e-05 0)
(0 -2.68514e-05 0)
(0 -2.88049e-05 0)
(0 -2.78954e-05 0)
(0 -2.99632e-05 0)
(0 -2.89928e-05 0)
(0 -3.11107e-05 0)
(0 -3.01423e-05 0)
(0 -2.80776e-05 0)
(0 -2.92318e-05 0)
(0 -2.72369e-05 0)
(0 -2.83022e-05 0)
(0 -3.04399e-05 0)
(0 -2.95381e-05 0)
(0 -2.73986e-05 0)
(0 -2.86841e-05 0)
(0 -2.66318e-05 0)
(0 -2.7877e-05 0)
(0 -2.58921e-05 0)
(0 -2.71181e-05 0)
(0 -2.51278e-05 0)
(0 -2.64109e-05 0)
(0 -2.44189e-05 0)
(0 -2.57532e-05 0)
(0 -2.3819e-05 0)
(0 -2.51572e-05 0)
(0 -2.32854e-05 0)
(0 -2.4639e-05 0)
(0 -2.28693e-05 0)
(0 -2.42035e-05 0)
(0 -2.84467e-05 0)
(0 -2.60526e-05 0)
(0 -2.56214e-05 0)
(0 -2.75376e-05 0)
(0 -2.70832e-05 0)
(0 -2.84436e-05 0)
(0 -2.25631e-05 0)
(0 -3.17149e-05 0)
(0 -2.90493e-05 0)
(0 -2.8539e-05 0)
(0 -1.00473e-05 0)
(0 -2.2622e-05 0)
(0 -2.16808e-05 0)
(0 -1.82682e-05 0)
(0 -4.95489e-05 0)
(0 -4.96914e-05 0)
(0 -4.3959e-05 0)
(0 -4.40275e-05 0)
(0 -3.05803e-05 0)
(0 -3.00288e-05 0)
(0 6.62735e-07 0)
(0 5.68862e-07 0)
(0 6.60309e-07 0)
(0 5.6473e-07 0)
(0 6.53427e-07 0)
(0 5.604e-07 0)
(0 6.43977e-07 0)
(0 5.47937e-07 0)
(0 6.29624e-07 0)
(0 5.28996e-07 0)
(0 6.25943e-07 0)
(0 5.06826e-07 0)
(0 5.95924e-07 0)
(0 4.7775e-07 0)
(0 5.73454e-07 0)
(0 4.48531e-07 0)
(0 5.44764e-07 0)
(0 4.1743e-07 0)
(0 5.10535e-07 0)
(0 3.8125e-07 0)
(0 4.76388e-07 0)
(0 3.42539e-07 0)
(0 4.60914e-07 0)
(0 2.93823e-07 0)
(0 3.93697e-07 0)
(0 2.28775e-07 0)
(0 3.24608e-07 0)
(0 1.19278e-07 0)
(0 2.96796e-07 0)
(0 1.58982e-07 0)
(0 2.54068e-07 0)
(0 4.33434e-07 0)
(0 8.12556e-08 0)
(0 1.81691e-07 0)
(0 -9.19513e-09 0)
(0 9.96455e-08 0)
(0 2.91809e-07 0)
(0 1.93778e-07 0)
(0 -1.31706e-09 0)
(0 9.47099e-08 0)
(0 2.70392e-07 0)
(0 1.72573e-07 0)
(0 3.37115e-07 0)
(0 2.32838e-07 0)
(0 3.89527e-07 0)
(0 2.81018e-07 0)
(0 4.27246e-07 0)
(0 1.0427e-07 0)
(0 3.17344e-07 0)
(0 4.58321e-07 0)
(0 3.45381e-07 0)
(0 4.78797e-07 0)
(0 -4.75369e-06 0)
(0 -1.24084e-05 0)
(0 -0.000166829 0)
(0 -4.54217e-05 0)
(0 -4.49258e-05 0)
(0 -1.80893e-05 0)
(0 -1.94342e-05 0)
(0 5.8227e-07 0)
(0 -2.03699e-05 0)
(0 -1.94658e-05 0)
(0 -6.07728e-06 0)
(0 -4.61552e-05 0)
(0 -4.63279e-05 0)
(0 -4.58734e-05 0)
(0 -4.97139e-05 0)
(0 -4.63907e-05 0)
(0 -1.68041e-05 0)
(0 -3.21389e-05 0)
(0 -3.26804e-05 0)
(0 -3.15901e-05 0)
(0 -4.10582e-05 0)
(0 -4.11272e-05 0)
(0 -4.40243e-05 0)
(0 -4.11298e-05 0)
(0 -4.3947e-05 0)
(0 -4.10602e-05 0)
(0 -4.37983e-05 0)
(0 -4.09219e-05 0)
(0 -4.3028e-05 0)
(0 -4.31322e-05 0)
(0 -2.15245e-05 0)
(0 6.80583e-07 0)
(0 -2.18821e-05 0)
(0 -3.8186e-05 0)
(0 -3.806e-05 0)
(0 -4.35854e-05 0)
(0 -6.54799e-05 0)
(0 -1.79397e-05 0)
(0 -1.665e-05 0)
(0 5.21003e-07 0)
(0 -1.82252e-05 0)
(0 -8.57249e-06 0)
(0 -2.40589e-05 0)
(0 -1.07729e-07 0)
(0 -0.000123402 0)
(0 -2.06123e-05 0)
(0 -2.89366e-05 0)
(0 -0.000107192 0)
(0 -1.89785e-05 0)
(0 -0.000141006 0)
(0 -0.000124692 0)
(0 -4.63676e-05 0)
(0 -4.31401e-05 0)
(0 -3.99437e-05 0)
(0 -3.99893e-05 0)
(0 -3.37361e-05 0)
(0 -4.21282e-05 0)
(0 -4.15974e-05 0)
(0 -5.06539e-05 0)
(0 -1.73195e-05 0)
(0 -6.11207e-05 0)
(0 -6.05982e-05 0)
(0 -6.3236e-05 0)
(0 -6.27259e-05 0)
(0 -6.53949e-05 0)
(0 -6.47281e-05 0)
(0 -6.75364e-05 0)
(0 -6.70333e-05 0)
(0 -6.96626e-05 0)
(0 -6.9004e-05 0)
(0 -6.64397e-05 0)
(0 -7.1695e-05 0)
(0 -7.24306e-05 0)
(0 -7.44635e-05 0)
(0 -7.52735e-05 0)
(0 -7.72951e-05 0)
(0 -7.81707e-05 0)
(0 -8.01542e-05 0)
(0 -8.11499e-05 0)
(0 -8.30399e-05 0)
(0 -8.41498e-05 0)
(0 -8.59298e-05 0)
(0 -8.70417e-05 0)
(0 -8.88717e-05 0)
(0 -9.00594e-05 0)
(0 -9.18631e-05 0)
(0 -9.30951e-05 0)
(0 -9.48988e-05 0)
(0 -9.61513e-05 0)
(0 -9.79747e-05 0)
(0 -9.92335e-05 0)
(0 -9.73976e-05 0)
(0 -0.000100478 0)
(0 -0.000102363 0)
(0 -0.000103663 0)
(0 -0.000105575 0)
(0 -0.000106929 0)
(0 -0.000108838 0)
(0 -0.000110224 0)
(0 -0.000112127 0)
(0 -0.000113548 0)
(0 -0.000115458 0)
(0 -0.000101759 0)
(0 -0.000116888 0)
(0 -0.000118815 0)
(0 -0.000120239 0)
(0 -0.000122129 0)
(0 -0.000123566 0)
(0 -0.000125371 0)
(0 -0.000126793 0)
(0 -0.000128535 0)
(0 -0.000114923 0)
(0 -0.000129949 0)
(0 -0.000131644 0)
(0 -0.000133083 0)
(0 -0.000134725 0)
(0 -0.000128202 0)
(0 -0.000136184 0)
(0 -0.000137774 0)
(0 -0.000139223 0)
(0 -0.000140773 0)
(0 -0.000142219 0)
(0 -0.000143757 0)
(0 -0.000142272 0)
(0 -0.000145223 0)
(0 -0.000143693 0)
(0 -0.000146598 0)
(0 -0.000148133 0)
(0 -0.000149446 0)
(0 -0.000147901 0)
(0 -0.000150647 0)
(0 -0.00015218 0)
(0 -0.000153277 0)
(0 -0.000154781 0)
(0 -0.000155808 0)
(0 -0.000130214 0)
(0 -0.000157254 0)
(0 -0.000158214 0)
(0 -0.000156745 0)
(0 -0.000159073 0)
(0 -0.000160506 0)
(0 -0.000161254 0)
(0 -0.000159794 0)
(0 -0.000161885 0)
(0 -0.000163311 0)
(0 -0.000163892 0)
(0 -0.000165254 0)
(0 -0.00016582 0)
(0 -0.000164388 0)
(0 -0.000166279 0)
(0 -0.000167683 0)
(0 -0.000168051 0)
(0 -0.000166544 0)
(0 -0.00016822 0)
(0 -0.000169734 0)
(0 -0.000169825 0)
(0 -0.000171324 0)
(0 -0.000171373 0)
(0 -0.000169764 0)
(0 -0.000171258 0)
(0 -0.000172886 0)
(0 -0.000172695 0)
(0 -0.000174323 0)
(0 -0.000174076 0)
(0 -0.000172378 0)
(0 -0.000173671 0)
(0 -0.000175372 0)
(0 -0.000174857 0)
(0 -0.000176513 0)
(0 -0.000175935 0)
(0 -0.000174224 0)
(0 -0.000175215 0)
(0 -0.000176908 0)
(0 -0.000176087 0)
(0 -7.3682e-05 0)
(0 -0.000177715 0)
(0 -0.000176837 0)
(0 -0.000175119 0)
(0 -0.000175815 0)
(0 -0.000177464 0)
(0 -0.000176377 0)
(0 -0.000174638 0)
(0 -0.000175138 0)
(0 -0.000176827 0)
(0 -0.000175534 0)
(0 -0.000177133 0)
(0 -0.000175816 0)
(0 -8.52299e-05 0)
(0 -0.000174164 0)
(0 -0.000174406 0)
(0 -0.000176012 0)
(0 -0.000174535 0)
(0 -0.000176078 0)
(0 -0.000174572 0)
(0 -0.000172986 0)
(0 -0.000173024 0)
(0 -0.000174509 0)
(0 -0.000172872 0)
(0 -0.000140612 0)
(0 -0.000174282 0)
(0 -0.000172543 0)
(0 -0.0001709 0)
(0 -0.000170668 0)
(0 -0.000172163 0)
(0 -0.00017025 0)
(0 -0.000117427 0)
(0 -0.000168677 0)
(0 -0.000168205 0)
(0 -0.000169735 0)
(0 -0.000167679 0)
(0 -0.000169131 0)
(0 -0.000167084 0)
(0 -0.000165553 0)
(0 -0.000164947 0)
(0 -0.000166431 0)
(0 -0.000164275 0)
(0 -8.47789e-05 0)
(0 -0.000165676 0)
(0 -0.000163512 0)
(0 -0.000162027 0)
(0 -0.00016126 0)
(0 -0.000162659 0)
(0 -0.000160395 0)
(0 -0.00015894 0)
(0 -0.000158062 0)
(0 -0.000156528 0)
(0 -0.000155644 0)
(0 -0.000157095 0)
(0 -0.000154698 0)
(0 -0.00015315 0)
(0 -0.000152238 0)
(0 -0.000153705 0)
(0 -0.000151245 0)
(0 -0.000149684 0)
(0 -0.000148667 0)
(0 -0.000147011 0)
(0 -0.000145978 0)
(0 -0.000147558 0)
(0 -0.000144837 0)
(0 -0.000143171 0)
(0 -0.000141989 0)
(0 -0.00014028 0)
(0 -0.000139095 0)
(0 -0.000137328 0)
(0 -0.000136242 0)
(0 -0.000134397 0)
(0 -0.00013329 0)
(0 -0.000131441 0)
(0 -0.000130222 0)
(0 -0.000156201 0)
(0 -0.000107479 0)
(0 -9.66849e-05 0)
(0 -0.000149066 0)
(0 -1.03849e-05 0)
(0 -1.10687e-05 0)
(0 -0.000168121 0)
(0 -3.59181e-05 0)
(0 -6.28138e-05 0)
(0 -3.21383e-05 0)
(0 -2.65009e-05 0)
(0 -1.71874e-05 0)
(0 -0.00014633 0)
(0 -2.11424e-05 0)
(0 -1.4656e-05 0)
(0 -0.000128358 0)
(0 -0.000127141 0)
(0 -3.68285e-05 0)
(0 -3.69162e-05 0)
(0 -0.000166402 0)
(0 7.24189e-07 0)
(0 -3.81543e-05 0)
(0 -7.52284e-06 0)
(0 -0.000138161 0)
(0 -1.78216e-05 0)
(0 -1.65277e-05 0)
(0 -1.29746e-07 0)
(0 -3.32009e-05 0)
(0 -3.53277e-05 0)
(0 -3.5216e-05 0)
(0 -0.000125255 0)
(0 -0.000124028 0)
(0 -0.00012209 0)
(0 -0.000120858 0)
(0 -1.61527e-05 0)
(0 -0.000118787 0)
(0 -0.000117645 0)
(0 -1.02635e-05 0)
(0 -1.52693e-05 0)
(0 -3.53551e-05 0)
(0 -1.15558e-05 0)
(0 -1.22717e-05 0)
(0 -0.000110829 0)
(0 -0.000110297 0)
(0 -0.000106485 0)
(0 -0.000105805 0)
(0 -0.000101954 0)
(0 -0.000101191 0)
(0 -9.72175e-05 0)
(0 -9.63599e-05 0)
(0 -9.22752e-05 0)
(0 -9.12887e-05 0)
(0 -8.71215e-05 0)
(0 -8.60204e-05 0)
(0 -9.02362e-05 0)
(0 -8.48615e-05 0)
(0 -8.91084e-05 0)
(0 -8.3599e-05 0)
(0 -8.78208e-05 0)
(0 -8.22126e-05 0)
(0 -8.64032e-05 0)
(0 -8.07103e-05 0)
(0 -8.49005e-05 0)
(0 -8.18001e-05 0)
(0 -7.91092e-05 0)
(0 -8.32872e-05 0)
(0 -7.74346e-05 0)
(0 -8.16298e-05 0)
(0 -7.56929e-05 0)
(0 -7.99382e-05 0)
(0 -7.65316e-05 0)
(0 -7.38511e-05 0)
(0 -7.80737e-05 0)
(0 -8.40379e-05 0)
(0 -8.21743e-05 0)
(0 -7.60528e-05 0)
(0 -8.01353e-05 0)
(0 -7.39496e-05 0)
(0 -7.80299e-05 0)
(0 -8.41223e-05 0)
(0 -8.20967e-05 0)
(0 -7.5944e-05 0)
(0 -8.00815e-05 0)
(0 -7.38796e-05 0)
(0 -7.80316e-05 0)
(0 -8.4113e-05 0)
(0 -8.2094e-05 0)
(0 -7.59178e-05 0)
(0 -8.00113e-05 0)
(0 -8.60039e-05 0)
(0 -8.40074e-05 0)
(0 -7.78873e-05 0)
(0 -8.18756e-05 0)
(0 -7.56865e-05 0)
(0 -7.96641e-05 0)
(0 -8.55831e-05 0)
(0 -8.35621e-05 0)
(0 -7.7516e-05 0)
(0 -8.15183e-05 0)
(0 -8.74047e-05 0)
(0 -8.52817e-05 0)
(0 -7.93751e-05 0)
(0 -8.30629e-05 0)
(0 -7.71151e-05 0)
(0 -8.07543e-05 0)
(0 -8.66165e-05 0)
(0 -8.42576e-05 0)
(0 -7.83204e-05 0)
(0 -8.18355e-05 0)
(0 -7.58621e-05 0)
(0 -7.93317e-05 0)
(0 -8.52269e-05 0)
(0 -8.26256e-05 0)
(0 -7.67368e-05 0)
(0 -7.99362e-05 0)
(0 -7.40027e-05 0)
(0 -7.70767e-05 0)
(0 -8.28104e-05 0)
(0 -7.99786e-05 0)
(0 -7.40789e-05 0)
(0 -7.70077e-05 0)
(0 -8.26512e-05 0)
(0 -7.97436e-05 0)
(0 -7.39526e-05 0)
(0 -7.66794e-05 0)
(0 -7.08477e-05 0)
(0 -7.34862e-05 0)
(0 -7.91633e-05 0)
(0 -7.59547e-05 0)
(0 -7.02969e-05 0)
(0 -7.27591e-05 0)
(0 -6.71505e-05 0)
(0 -6.96126e-05 0)
(0 -7.50542e-05 0)
(0 -7.19292e-05 0)
(0 -6.65424e-05 0)
(0 -6.88682e-05 0)
(0 -7.4051e-05 0)
(0 -7.10038e-05 0)
(0 -6.58958e-05 0)
(0 -6.80355e-05 0)
(0 -6.30373e-05 0)
(0 -6.51684e-05 0)
(0 -6.02894e-05 0)
(0 -6.24196e-05 0)
(0 -7.59398e-05 0)
(0 -5.76248e-05 0)
(0 -5.97132e-05 0)
(0 -6.44075e-05 0)
(0 -6.16166e-05 0)
(0 -5.69847e-05 0)
(0 -5.87293e-05 0)
(0 -5.41385e-05 0)
(0 -5.56975e-05 0)
(0 -5.1119e-05 0)
(0 -5.2519e-05 0)
(0 -6.61421e-05 0)
(0 -4.79921e-05 0)
(0 -4.92988e-05 0)
(0 -5.37728e-05 0)
(0 -5.05606e-05 0)
(0 -4.61229e-05 0)
(0 -4.74234e-05 0)
(0 -4.30787e-05 0)
(0 -4.4432e-05 0)
(0 -4.01868e-05 0)
(0 -4.15124e-05 0)
(0 -5.49039e-05 0)
(0 -3.7361e-05 0)
(0 -3.86122e-05 0)
(0 -4.26811e-05 0)
(0 -3.98319e-05 0)
(0 -3.57912e-05 0)
(0 -3.71029e-05 0)
(0 -3.31459e-05 0)
(0 -3.44952e-05 0)
(0 -3.07251e-05 0)
(0 -3.19817e-05 0)
(0 -5.53591e-05 0)
(0 -6.9564e-05 0)
(0 -2.84043e-05 0)
(0 -2.95203e-05 0)
(0 -4.65818e-05 0)
(0 -3.30882e-05 0)
(0 -3.05588e-05 0)
(0 -2.70825e-05 0)
(0 -2.80184e-05 0)
(0 -2.4737e-05 0)
(0 -2.54468e-05 0)
(0 -4.37759e-05 0)
(0 -8.87878e-05 0)
(0 -2.22908e-05 0)
(0 -2.28241e-05 0)
(0 -1.98343e-05 0)
(0 -2.03385e-05 0)
(0 -1.76063e-05 0)
(0 -1.81321e-05 0)
(0 -8.2946e-05 0)
(0 -7.76105e-05 0)
(0 -7.87598e-05 0)
(0 -7.34086e-05 0)
(0 -7.4585e-05 0)
(0 -6.92346e-05 0)
(0 -7.04367e-05 0)
(0 -6.50649e-05 0)
(0 -6.38669e-05 0)
(0 -6.6265e-05 0)
(0 -6.08581e-05 0)
(0 -6.20909e-05 0)
(0 -2.08975e-05 0)
(0 -1.87364e-05 0)
(0 -1.61195e-05 0)
(0 -1.67968e-05 0)
(0 -3.87736e-05 0)
(0 -3.82061e-05 0)
(0 7.49742e-07 0)
(0 -1.42181e-05 0)
(0 -1.50359e-05 0)
(0 -4.62338e-05 0)
(0 -5.66562e-05 0)
(0 -5.79286e-05 0)
(0 -3.60285e-05 0)
(0 -3.11024e-05 0)
(0 -3.27233e-05 0)
(0 -3.37896e-05 0)
(0 -3.39252e-05 0)
(0 -3.35729e-05 0)
(0 -0.000167609 0)
(0 -1.24524e-05 0)
(0 -1.33899e-05 0)
(0 -1.60087e-05 0)
(0 -1.44655e-05 0)
(0 -1.18159e-05 0)
(0 -1.29892e-05 0)
(0 -3.6924e-05 0)
(0 -3.39797e-05 0)
(0 -4.10058e-05 0)
(0 -3.75819e-05 0)
(0 -4.03538e-05 0)
(0 -3.68948e-05 0)
(0 -3.96212e-05 0)
(0 -3.61353e-05 0)
(0 -0.000115478 0)
(0 -0.000114362 0)
(0 -1.41829e-05 0)
(0 -1.03352e-05 0)
(0 -1.16091e-05 0)
(0 -3.4049e-05 0)
(0 -3.2492e-05 0)
(0 -3.23973e-05 0)
(0 -3.50289e-05 0)
(0 -3.22217e-05 0)
(0 -3.47617e-05 0)
(0 -3.19681e-05 0)
(0 -3.10254e-05 0)
(0 -3.11188e-05 0)
(0 -1.29754e-05 0)
(0 -1.77398e-05 0)
(0 -1.64249e-05 0)
(0 -1.90827e-05 0)
(0 -0.000165847 0)
(0 -0.000132007 0)
(0 -1.33556e-05 0)
(0 -1.43385e-05 0)
(0 -2.94396e-05 0)
(0 -2.92089e-05 0)
(0 -0.000112122 0)
(0 -0.000110996 0)
(0 -3.44117e-05 0)
(0 -0.000122792 0)
(0 -9.0332e-06 0)
(0 -1.04043e-05 0)
(0 -1.29241e-05 0)
(0 -1.17905e-05 0)
(0 -9.43431e-06 0)
(0 -1.08548e-05 0)
(0 -8.65728e-06 0)
(0 -9.9799e-06 0)
(0 -2.71472e-05 0)
(0 -5.84022e-05 0)
(0 -5.83682e-05 0)
(0 -6.12315e-05 0)
(0 -6.11464e-05 0)
(0 -6.40406e-05 0)
(0 -6.38927e-05 0)
(0 -6.6812e-05 0)
(0 -6.65954e-05 0)
(0 -6.95364e-05 0)
(0 -1.52645e-05 0)
(0 -1.51402e-05 0)
(0 -5.24287e-05 0)
(0 -5.37608e-05 0)
(0 -5.11771e-05 0)
(0 -0.00014361 0)
(0 -0.000141975 0)
(0 -0.000144954 0)
(0 -0.000143301 0)
(0 -0.000146241 0)
(0 -2.14875e-05 0)
(0 -2.82165e-05 0)
(0 -2.83503e-05 0)
(0 -0.000113184 0)
(0 -0.000109789 0)
(0 -0.000107545 0)
(0 -0.000106327 0)
(0 -0.000104036 0)
(0 -0.000102837 0)
(0 -0.000100459 0)
(0 -9.93211e-05 0)
(0 -9.69139e-05 0)
(0 -9.58071e-05 0)
(0 -2.49012e-05 0)
(0 -1.27998e-05 0)
(0 -1.35493e-05 0)
(0 -1.70104e-05 0)
(0 -3.68861e-05 0)
(0 -1.2312e-05 0)
(0 -1.29802e-05 0)
(0 -7.93598e-06 0)
(0 -9.0051e-06 0)
(0 -3.53524e-05 0)
(0 -1.30013e-05 0)
(0 -0.00016699 0)
(0 -1.0928e-05 0)
(0 -9.79178e-06 0)
(0 -7.93633e-06 0)
(0 -8.61255e-06 0)
(0 -6.78804e-06 0)
(0 -7.30845e-05 0)
(0 -5.46743e-05 0)
(0 -0.000108461 0)
(0 -9.34395e-05 0)
(0 -9.22749e-05 0)
(0 -1.4334e-05 0)
(0 -1.37311e-05 0)
(0 -1.39906e-05 0)
(0 -4.88271e-05 0)