/*--------------------------------*- C++ -*----------------------------------*\
| =========                 |                                                 |
| \\      /  F ield         | OpenFOAM: The Open Source CFD Toolbox           |
|  \\    /   O peration     | Version:  v2012                                 |
|   \\  /    A nd           | Website:  www.openfoam.com                      |
|    \\/     M anipulation  |                                                 |
\*---------------------------------------------------------------------------*/
FoamFile
{
    version     2.0;
    format      ascii;
    class       surfaceVectorField;
    location    "300";
    object      Uf;
}
// * * * * * * * * * * * * * * * * * * * * * * * * * * * * * * * * * * * * * //

dimensions      [0 1 -1 0 0 0 0];


internalField   nonuniform List<vector> 
27882
(
(1.01796 -0.00833095 7.14355e-22)
(1.01922 -0.00815856 -1.10012e-21)
(1.01808 -0.00685616 -4.90716e-22)
(1.03289 -0.0552558 0)
(1.0402 -0.0571648 2.21251e-22)
(1.03974 -0.0477615 0)
(1.00295 1.81267e-05 4.1071e-22)
(1.0035 -5.41948e-06 5.65659e-22)
(1.004 -3.26909e-05 5.50578e-22)
(1.01725 -0.010061 -4.83101e-23)
(1.01653 -0.00840641 3.5942e-23)
(1.00671 0.00283935 0)
(1.00754 0.00426777 -7.6361e-22)
(1.00571 0.00393937 0)
(1.00653 0.000139874 -6.15764e-23)
(1.00717 0.000244064 -2.01319e-22)
(1.00675 0.000182192 -2.10328e-22)
(1.01583 -0.00470359 2.33455e-23)
(1.01594 -0.00487642 2.0093e-22)
(1.01608 -0.00481149 -1.54695e-23)
(1.02311 -0.016685 2.42066e-22)
(1.02339 -0.0172908 4.69943e-23)
(1.02272 -0.017238 3.18372e-22)
(1.00594 0.00149152 2.54575e-21)
(1.00744 0.00193582 0)
(1.00554 0.000323829 4.75665e-22)
(1.00523 -0.000949448 -2.2054e-21)
(1.00647 -0.000369227 -1.32789e-21)
(1.01231 -0.0520568 4.1536e-22)
(1.01979 -0.0481692 2.52295e-22)
(1.01466 -0.0428075 -2.12609e-21)
(0.838728 -0.170762 -1.16503e-22)
(0.849212 -0.203035 1.52851e-21)
(0.852285 -0.186116 -9.31988e-22)
(0.940604 0.0147577 1.87662e-21)
(0.949706 0.0201889 2.01365e-23)
(0.93946 0.0260908 -2.10948e-21)
(1.03386 -0.0160892 1.47397e-22)
(1.03479 -0.016313 9.79119e-22)
(1.03429 -0.0153709 -1.27269e-21)
(1.01531 -0.00438763 0)
(1.01558 -0.00456613 0)
(1.01538 -0.00458195 6.37219e-24)
(1.01283 -0.00197672 2.91514e-22)
(1.01269 -0.00188396 2.43714e-25)
(1.01272 -0.00200963 1.459e-22)
(0.827219 -0.132741 1.81163e-21)
(0.830144 -0.145182 2.83486e-22)
(1.01084 0.00143593 1.14593e-22)
(1.0107 0.00138379 3.73451e-23)
(1.01507 -0.00424465 -2.91744e-22)
(1.01525 -0.00422666 6.11944e-23)
(1.01918 -0.0115788 3.10278e-22)
(1.0194 -0.0114368 -5.18431e-22)
(1.01913 -0.0115486 0)
(1.08239 -0.0780171 2.10256e-21)
(1.06971 -0.10643 2.79937e-21)
(1.07206 -0.0924974 2.03017e-21)
(1.17416 -0.0597528 1.67329e-20)
(1.18687 -0.0575266 4.05905e-21)
(1.19427 -0.0628982 1.13578e-22)
(1.0056 9.69441e-05 -2.85682e-23)
(1.00633 0.000146847 2.8656e-23)
(1.00581 0.000151122 -2.85123e-22)
(1.00615 0.000191504 -4.36911e-22)
(1.00651 0.000241532 -3.17781e-22)
(1.15491 -0.0582498 -3.35952e-21)
(1.13946 -0.0522486 5.60075e-21)
(1.17785 -0.227727 -1.46628e-20)
(1.1778 -0.215548 6.91296e-22)
(1.19145 -0.224238 -6.24627e-21)
(0.820021 0.216766 -9.76487e-21)
(0.84943 0.247432 0)
(0.83136 0.269172 0)
(0.935501 -0.0973669 1.82316e-21)
(0.942816 -0.0992473 -1.97123e-21)
(0.935132 -0.105209 -8.32934e-22)
(1.06608 -0.108281 -1.84826e-21)
(1.06534 -0.113166 1.31041e-21)
(1.06186 -0.10918 -2.20438e-22)
(1.04865 -0.0790815 5.47412e-22)
(1.0553 -0.0748824 9.42527e-23)
(1.05537 -0.0646309 8.75797e-23)
(0.844086 0.302282 8.30986e-22)
(0.847216 0.295947 1.15808e-21)
(0.85199 0.302646 2.82992e-21)
(0.798645 0.183471 -9.17858e-21)
(0.815747 0.14689 -1.13925e-20)
(1.02284 -0.0161979 8.68049e-23)
(1.02339 -0.0162607 -8.54083e-23)
(1.00431 -0.0583006 2.9211e-21)
(0.966663 -0.0457249 -9.66135e-23)
(0.933562 -0.0405325 1.29338e-20)
(1.00849 0.00570593 -8.18074e-22)
(1.00932 0.00711187 1.4159e-21)
(1.0074 0.00689284 1.37734e-23)
(1.03884 -0.080688 -3.05553e-22)
(1.03607 -0.094397 -8.04095e-23)
(0.942525 0.00510259 0)
(0.931635 0.010533 2.44556e-21)
(1.00915 0.0044947 -2.0273e-21)
(0.898411 -0.292494 1.59382e-21)
(0.905576 -0.289962 3.40756e-21)
(0.902914 -0.302389 3.31456e-21)
(1.01402 0.00268273 2.19261e-23)
(1.01385 0.00277809 0)
(1.01369 0.00261198 1.65241e-22)
(0.899407 -0.192029 -2.48353e-21)
(0.910514 -0.194509 -4.14035e-22)
(0.904602 -0.208209 3.21531e-21)
(1.00353 -0.00372699 4.97401e-22)
(1.00195 -0.00362707 1.25629e-21)
(1.00307 -0.00230589 2.62047e-22)
(0.897881 -0.0595691 -1.66222e-21)
(0.900774 -0.0793625 -3.94247e-21)
(0.911296 -0.0712315 -2.13486e-21)
(1.01118 0.000148374 2.58055e-22)
(1.01112 -9.8344e-05 0)
(1.01101 3.6474e-05 6.01509e-22)
(1.01056 -0.000680413 1.09454e-22)
(1.01051 -0.000669441 4.3995e-22)
(1.01089 -0.000746964 5.82611e-22)
(0.834993 0.287498 0)
(0.840261 0.278216 5.76969e-22)
(0.841793 0.285542 6.9922e-22)
(1.00387 -0.00465593 -1.75677e-21)
(1.00477 -0.00358283 -1.75681e-21)
(1.05354 -0.113487 -4.44524e-22)
(1.04995 -0.110169 5.73491e-23)
(1.04917 -0.115873 -7.23465e-22)
(0.003142 0.254051 0)
(-0.00917781 0.259346 -1.33983e-20)
(0.00443152 0.264302 -1.62206e-20)
(1.01271 -0.00814684 -7.34311e-22)
(1.01385 -0.00881179 1.38038e-21)
(1.01338 -0.007189 -2.4102e-22)
(1.00381 -0.0540264 1.62815e-22)
(1.00939 -0.0620637 2.71503e-21)
(0.75995 -0.199561 -6.416e-21)
(0.767719 -0.189012 -8.06675e-22)
(0.818443 -0.226119 5.13413e-21)
(1.01147 -0.00905822 -8.44061e-22)
(1.01176 -0.00736922 1.68846e-22)
(1.01442 -0.014214 -8.24377e-22)
(1.0139 -0.0136912 8.68867e-22)
(1.01379 -0.0145452 -1.30917e-21)
(1.14433 -0.0882359 -6.58086e-21)
(1.14638 -0.0848427 4.73591e-21)
(1.14864 -0.0885858 -5.86477e-21)
(0.958493 0.0241845 -1.96766e-21)
(0.957826 0.0152193 -2.89027e-21)
(1.01134 0.000467012 -1.51715e-22)
(1.01124 0.000485265 -4.02349e-22)
(1.01146 0.000587174 -1.05977e-21)
(1.01899 -0.0116354 -2.75267e-23)
(1.01915 -0.0116156 7.27589e-22)
(1.04654 -0.106849 -1.10429e-21)
(1.04227 -0.108481 0)
(1.0434 -0.103447 2.06138e-21)
(1.0115 0.000456481 3.74316e-22)
(1.01123 0.000370058 3.9764e-22)
(1.00974 -0.000522917 2.58065e-22)
(1.01029 -0.000672193 4.33502e-22)
(1.00981 -0.000487818 1.90545e-22)
(1.01133 0.000429414 2.56497e-22)
(1.01133 0.000228926 -5.29107e-22)
(0.79114 -0.165108 0)
(0.763351 -0.0996963 -5.13453e-21)
(0.740232 -0.226466 9.08827e-22)
(0.756932 -0.215457 -1.35363e-21)
(0.741482 -0.211458 6.59858e-22)
(1.00875 -0.000408938 3.1057e-22)
(1.00966 -0.000550666 -3.43808e-22)
(0.679437 0.0258299 4.81709e-21)
(0.690452 0.0190847 0)
(0.63306 0.0387139 -9.95718e-21)
(1.00693 -0.000255179 0)
(1.00622 -0.000174814 3.04088e-22)
(1.00629 -0.00018926 0)
(1.00952 0.000971694 0)
(1.00941 0.00092074 2.89951e-22)
(1.00958 0.000951582 0)
(0.937593 -0.0892683 4.26874e-21)
(0.929405 -0.0938609 -6.67603e-22)
(1.01083 0.0014442 -6.82584e-24)
(1.01099 0.00152278 1.24679e-23)
(0.693654 -0.168441 -3.27411e-20)
(0.743973 -0.20602 8.18261e-22)
(1.17673 -0.255199 -6.37325e-21)
(1.18263 -0.251319 -4.25496e-21)
(1.18647 -0.24164 -7.20563e-21)
(1.01369 -0.00456696 -4.27577e-22)
(1.01389 -0.0047189 -1.79453e-22)
(1.01372 -0.00471666 -5.9739e-22)
(1.0168 -0.00957962 -1.45765e-21)
(1.01636 -0.0102599 1.45173e-21)
(1.01712 -0.0101027 4.69823e-22)
(1.00847 0.0507822 1.1865e-21)
(1.00175 0.0472764 8.01445e-22)
(1.00816 0.0417865 -9.91458e-22)
(0.835592 0.302244 1.58925e-21)
(0.84069 0.312692 7.23478e-22)
(0.911141 0.215403 -8.54404e-22)
(0.934558 0.197767 -1.25761e-20)
(0.912283 0.244246 -2.54582e-20)
(0.814556 -0.0744809 0)
(0.815022 -0.073741 4.11067e-21)
(0.811174 -0.0367366 -3.7472e-21)
(1.00443 0.00104399 1.78139e-21)
(0.890887 -0.0413862 3.35637e-23)
(0.900906 -0.039317 -1.84016e-22)
(1.10518 -0.0900092 -2.64866e-21)
(1.10684 -0.0872938 -1.12647e-20)
(1.10858 -0.0907998 6.75335e-21)
(0.89053 -0.291781 -2.3316e-21)
(0.896307 -0.28797 2.04601e-21)
(0.817068 -0.10171 1.23216e-21)
(0.820134 -0.0737096 -1.00501e-21)
(1.00657 0.0115148 -1.91633e-21)
(1.00668 0.0154048 1.09705e-22)
(1.00322 0.0134262 0)
(1.01042 -0.00155255 -4.60542e-22)
(1.01051 -0.00104919 9.00171e-22)
(1.01011 -0.00115168 -4.38165e-22)
(1.13268 -0.0808709 1.15456e-21)
(1.13539 -0.0827435 1.52523e-20)
(1.1316 -0.0841961 1.50526e-21)
(1.05481 -0.0208733 5.28639e-21)
(1.05406 -0.0192865 -1.13387e-21)
(1.01619 -0.00867935 -1.31932e-21)
(1.01735 -0.00879196 7.17853e-22)
(0.811636 -0.133028 3.86951e-21)
(0.81294 -0.227302 -8.60121e-21)
(1.13293 -0.0773531 5.25158e-21)
(1.1297 -0.0791882 -9.52433e-21)
(0.396653 -0.00528408 -2.20517e-20)
(0.386296 -0.00669792 -8.48092e-21)
(0.326759 0.0413706 4.11095e-21)
(1.00938 -0.000485255 9.95455e-22)
(1.00976 -0.000465304 6.90737e-22)
(1.01065 -0.000508252 8.15166e-22)
(1.09525 -0.0726762 -1.91019e-21)
(1.09685 -0.0708543 -7.19796e-21)
(1.09765 -0.0741534 -3.71392e-21)
(0.0170302 0.248184 -4.5845e-21)
(-0.00140993 0.245088 0)
(1.01366 -0.00443886 1.56297e-22)
(1.01351 -0.00441997 3.75147e-22)
(1.00828 -0.000832195 -4.12534e-22)
(1.00836 -0.000878393 -9.85924e-22)
(1.00831 -0.000832401 -2.56424e-22)
(1.01225 0.00206534 7.57022e-23)
(1.01204 0.00199623 -1.28749e-22)
(1.01226 0.00204713 -1.33535e-22)
(1.05715 -0.080554 -2.80884e-21)
(1.05996 -0.0793713 -6.21482e-21)
(1.05934 -0.083146 -1.37158e-21)
(0.824033 -0.0251823 -4.164e-21)
(0.822363 -0.0721053 5.90579e-21)
(0.833502 -0.0667572 -1.07945e-20)
(1.0115 -0.00373139 -5.03441e-22)
(1.01157 -0.00376553 8.03559e-23)
(1.01144 -0.00363774 -7.49131e-22)
(0.832176 0.294797 0)
(0.828687 0.288108 0)
(1.02517 -0.00926508 -2.50325e-21)
(1.02499 -0.00826476 1.23061e-21)
(1.02408 -0.00918725 -1.55485e-21)
(1.00946 0.00099083 -2.32942e-22)
(1.00963 0.00102876 -1.27008e-22)
(1.00825 -0.000826954 7.0125e-22)
(1.0082 -0.000782286 9.95391e-22)
(0.656957 0.0369947 -2.92044e-21)
(0.724823 0.0158411 1.93478e-21)
(1.08844 -0.0634172 1.50999e-21)
(1.08626 -0.0551452 2.14555e-21)
(1.05735 -0.11126 1.34489e-21)
(1.05713 -0.116926 2.32968e-22)
(0.393559 0.0068607 0)
(0.456978 -0.0423461 9.0532e-21)
(0.994227 0.0660439 -6.33023e-21)
(1.02481 0.00532521 -5.7948e-21)
(1.01167 0.077736 -2.15927e-21)
(1.03303 -0.158773 -1.09075e-21)
(1.04768 -0.172491 -3.18554e-21)
(1.05321 -0.1501 -1.8732e-21)
(1.0132 -0.00201077 2.25362e-22)
(1.01305 -0.00191177 -2.76305e-22)
(1.01317 -0.00187184 9.65981e-23)
(0.7235 -0.239552 -1.46623e-24)
(0.742539 -0.237633 -1.09287e-21)
(1.00809 -0.00957377 8.48222e-22)
(1.00953 -0.00967695 0)
(1.00907 -0.00823204 0)
(1.00519 -5.69321e-05 -3.8107e-22)
(1.00521 -5.15857e-05 -7.65055e-23)
(1.00428 -3.73799e-05 -9.49118e-22)
(1.02635 -0.00941788 -3.45185e-21)
(1.02515 -0.0102616 2.45325e-22)
(0.880478 -0.16683 9.36488e-22)
(0.869867 -0.170993 0)
(0.871259 -0.159013 0)
(1.05385 -0.0821153 3.76194e-21)
(1.05434 -0.0781904 4.03333e-21)
(1.01092 8.82986e-05 7.04013e-22)
(1.01106 0.000104268 -1.96573e-22)
(1.01079 0.000100969 3.16793e-22)
(0.868621 -0.196487 3.04619e-21)
(0.858084 -0.202262 8.15704e-22)
(0.869205 -0.209644 1.75127e-21)
(1.01093 -0.00308361 -1.31275e-22)
(1.01038 -0.00276244 -8.33313e-22)
(1.01051 -0.00354842 2.1658e-22)
(1.00576 -8.59516e-05 -7.59769e-23)
(1.00552 -8.96225e-05 3.09354e-22)
(1.00628 -7.83456e-05 6.29017e-22)
(0.905184 0.18948 8.63077e-21)
(0.889574 0.238816 8.49629e-21)
(1.0104 -0.00211643 -6.46326e-22)
(1.01079 -0.00185608 1.31879e-22)
(1.00947 -0.000421954 2.44892e-22)
(1.00962 -0.000402561 -8.61381e-22)
(1.00945 -0.000398856 -6.16273e-22)
(0.101542 0.278336 -1.74715e-21)
(0.0751169 0.279064 6.50424e-21)
(0.100121 0.284838 -8.91877e-23)
(1.01504 -0.0146494 0)
(1.01486 -0.0138145 0)
(1.01114 -0.000431227 4.83647e-22)
(1.01118 -0.000276389 -9.78125e-23)
(1.01116 -0.000332152 3.28199e-22)
(1.00949 -0.000434439 -4.20706e-23)
(1.00932 -0.00043008 -4.40801e-22)
(1.08688 -0.158625 9.67026e-21)
(1.08585 -0.151003 -3.20049e-22)
(1.07983 -0.157148 -3.18395e-21)
(0.106108 0.222668 -6.79801e-21)
(0.077049 0.214222 -2.66826e-20)
(1.05064 -0.105039 -1.04425e-21)
(1.00666 -0.000315254 1.18929e-21)
(1.00577 -0.000165232 0)
(1.00723 -0.00040231 0)
(1.01832 -0.0316645 0)
(1.01711 -0.0306551 -1.44371e-23)
(1.01676 -0.0323721 0)
(0.43682 0.126769 1.91363e-20)
(0.466157 0.116549 0)
(0.502959 0.10194 0)
(1.01437 0.00277557 2.05744e-23)
(1.0142 0.00261559 -7.91221e-23)
(1.00585 -0.000179312 -1.51347e-23)
(1.00605 -0.000162237 -2.18351e-22)
(1.0065 -0.000150611 -3.72892e-23)
(0.777998 0.291392 5.16162e-21)
(0.792153 0.30476 1.73688e-20)
(0.793349 0.296288 -3.80731e-21)
(1.01152 -0.00245902 -1.03321e-22)
(1.01123 -0.00271242 5.21463e-22)
(1.01116 -0.0021555 5.74167e-22)
(0.975425 -0.160516 -8.19286e-22)
(0.969431 -0.166833 -1.1961e-22)
(0.967474 -0.157298 2.85928e-22)
(1.10319 -0.0935293 6.46024e-21)
(1.10143 -0.0898629 6.19524e-21)
(1.00642 -0.00887297 -7.24395e-22)
(1.00684 -0.0107228 1.0993e-21)
(0.921929 -0.197292 -1.58866e-21)
(0.928878 -0.212731 -3.05164e-21)
(0.942554 -0.193843 -1.56896e-21)
(1.06215 -0.0643727 1.00726e-21)
(1.06415 -0.0630897 0)
(1.0642 -0.0663014 3.73921e-21)
(0.962999 0.143864 7.47399e-22)
(0.972866 0.0684176 6.37416e-21)
(0.129865 0.277436 -8.69454e-21)
(0.100738 0.270911 7.26818e-21)
(1.0842 -0.0578202 -4.97222e-21)
(1.08549 -0.0561436 -1.47316e-22)
(1.0864 -0.0587283 1.91764e-21)
(0.637382 0.0450526 -1.37927e-21)
(0.595413 0.0548495 1.81752e-21)
(1.08562 -0.145092 7.79692e-21)
(1.07928 -0.14302 3.13118e-21)
(1.08465 -0.138215 1.74687e-21)
(1.02631 -0.0528869 0)
(1.02655 -0.0437154 2.18164e-22)
(0.905654 -0.343429 -2.98603e-21)
(0.901966 -0.326532 -1.9014e-21)
(0.920065 -0.334566 2.51201e-21)
(0.171326 0.235146 1.09134e-20)
(0.197946 0.241967 1.13848e-20)
(0.21367 0.239955 9.26265e-21)
(-0.0358651 0.191697 -1.91649e-20)
(-0.0221321 0.198924 -4.25071e-21)
(-0.0231128 0.207873 -5.78977e-20)
(1.02566 -0.00412871 -6.4091e-22)
(1.02607 -0.00415105 -8.99487e-22)
(1.02591 -0.0044886 -2.14652e-22)
(1.01057 0.00770502 1.67923e-21)
(1.01196 0.00665296 7.58587e-22)
(1.01234 0.00865533 6.2664e-22)
(0.894319 -0.18543 -1.45628e-20)
(0.895306 -0.176008 -2.78254e-21)
(0.954773 0.30085 1.99826e-20)
(0.909122 0.225273 2.1789e-20)
(1.09341 -0.0748697 2.1062e-21)
(1.09259 -0.0713584 -1.09696e-21)
(1.08975 -0.164352 1.16014e-20)
(1.09364 -0.158102 4.12094e-21)
(1.01523 0.0173733 0)
(1.01634 0.0219849 0)
(1.01948 0.0181401 2.62422e-21)
(1.02459 -0.0629897 -2.92454e-23)
(0.548511 -0.268837 -4.67239e-22)
(0.572244 -0.296889 1.08399e-20)
(0.508944 -0.251815 5.26812e-21)
(1.01038 -0.000421443 -1.41006e-22)
(1.01053 -0.000420634 3.25041e-22)
(1.01039 -0.000425631 -6.64683e-23)
(0.00447623 0.183016 -2.88683e-21)
(-0.0131342 0.185202 -8.36564e-21)
(-0.00336583 0.170978 -9.80487e-21)
(0.615122 0.0554816 3.56012e-21)
(0.677354 0.0346486 5.13404e-21)
(0.844194 0.259272 4.79686e-22)
(0.847258 0.257059 7.34758e-22)
(0.850426 0.262885 1.89968e-21)
(1.01237 0.000222547 -4.10379e-22)
(1.01218 0.000102024 2.03639e-22)
(1.01257 9.89875e-05 -5.60894e-23)
(1.01035 -0.000411671 9.48767e-24)
(1.01021 -0.000415811 -6.05406e-23)
(0.61409 -0.280309 3.34291e-21)
(0.634565 -0.30856 6.02493e-21)
(0.674528 -0.324093 -1.71593e-21)
(0.138789 0.228295 2.31883e-20)
(0.125519 0.233983 2.4271e-20)
(0.859888 -0.226658 -3.32269e-21)
(0.872346 -0.23866 -3.46745e-21)
(0.869454 -0.251699 -1.36954e-21)
(-0.0572614 0.185915 -5.10048e-21)
(-0.0621248 0.171117 1.28563e-20)
(-0.0566249 0.185942 5.47206e-21)
(1.00252 4.20198e-05 -6.83821e-22)
(1.00185 6.84325e-05 -1.05133e-21)
(1.065 -0.117523 3.0901e-21)
(1.06085 -0.119818 1.55288e-21)
(1.0652 -0.123088 0)
(0.891083 -0.128376 1.76666e-22)
(0.887436 -0.12794 3.68867e-21)
(1.05154 -0.0559212 5.53082e-21)
(1.03285 -0.0739233 -3.1181e-21)
(1.01096 -0.00280279 0)
(1.01105 -0.00290037 0)
(1.01104 -0.00281283 4.09908e-22)
(1.01362 -0.00428757 -3.98809e-22)
(1.01381 -0.00443991 4.88154e-22)
(1.16546 -0.185274 3.92648e-21)
(1.17698 -0.182284 -3.53031e-21)
(1.17794 -0.194442 1.40201e-20)
(1.03757 -0.0720306 -8.76374e-22)
(1.07175 -0.0755866 7.97899e-21)
(1.03616 -0.00679766 -2.28523e-21)
(1.03568 -0.00605689 -3.63098e-21)
(1.00879 0.000890535 0)
(1.00883 0.000879468 -1.40017e-22)
(1.0087 0.000839176 -1.04355e-22)
(1.01719 -0.014263 -2.99346e-22)
(1.01691 -0.0136911 1.20222e-21)
(1.0165 -0.0140642 9.12586e-22)
(1.14022 -0.0884916 -1.60848e-22)
(1.14222 -0.0922205 6.93182e-23)
(1.04087 -0.00964465 -5.64729e-21)
(1.04178 -0.0102796 3.76085e-21)
(0.876996 -0.377912 5.8702e-22)
(0.874493 -0.358849 -5.49786e-22)
(0.859274 -0.36547 1.0061e-21)
(1.0176 -0.00268652 -2.51622e-24)
(1.01767 -0.00254743 -1.40364e-25)
(1.01783 -0.00273842 3.65379e-23)
(1.064 -0.0631972 -9.35987e-22)
(1.05732 -0.0780201 -1.1983e-21)
(1.02284 -0.0256468 -2.46175e-23)
(1.02402 -0.0242252 9.84764e-22)
(1.02512 -0.0265799 -7.61984e-22)
(0.0345604 0.24242 1.68381e-21)
(0.0307379 0.234353 -2.97657e-21)
(0.831213 0.225964 2.457e-22)
(0.835134 0.238157 0)
(0.84394 0.236871 0)
(-0.0476314 0.175196 2.20668e-20)
(-0.0463103 0.185876 3.13379e-20)
(1.01753 -0.00285378 -7.27529e-23)
(1.01737 -0.00265212 -4.71576e-23)
(0.970911 -0.074361 0)
(0.972254 -0.0797965 -1.0695e-21)
(0.966267 -0.0760951 0)
(0.981457 0.200678 7.3282e-21)
(0.965801 0.217814 8.82748e-21)
(0.953952 0.231065 7.04922e-21)
(1.00882 0.0010124 -1.41325e-22)
(1.0088 0.000984806 9.56624e-23)
(1.00892 0.00105132 -1.36092e-22)
(1.03964 -0.0104494 -2.39758e-23)
(1.03996 -0.00969874 -7.1636e-21)
(1.03899 -0.00970339 -8.45968e-22)
(0.963271 -0.172587 -1.02087e-22)
(0.956479 -0.178474 -8.27738e-22)
(0.95454 -0.168887 -1.35305e-22)
(1.02518 -0.00418258 7.58703e-22)
(1.02533 -0.00384045 2.77221e-22)
(0.0634159 0.23313 1.74149e-20)
(0.0445066 0.248506 3.7608e-21)
(1.00517 0.000105609 9.62649e-23)
(1.00575 0.000132465 -6.8263e-23)
(1.0051 8.47778e-05 8.37865e-23)
(1.01044 -0.00195366 -8.95333e-22)
(1.01068 -0.00167979 -1.67817e-22)
(1.01026 -0.00136218 -4.31747e-22)
(1.08851 -0.171352 -1.77634e-21)
(1.09488 -0.170431 1.51272e-20)
(0.995607 0.136532 -3.25758e-21)
(1.02239 0.120425 -3.23905e-21)
(1.02169 0.126724 -7.47468e-21)
(1.01263 -0.00163653 1.46718e-22)
(1.01251 -0.00154872 3.0128e-22)
(1.01262 -0.00151546 7.69832e-24)
(1.01335 -0.00209806 0)
(1.01323 -0.00212761 1.35179e-22)
(0.02964 0.179942 8.71103e-21)
(0.0161679 0.193753 9.32155e-21)
(1.01104 -0.00102164 -4.82003e-22)
(1.01111 -0.00102337 1.02565e-21)
(1.0112 -0.000967634 -6.85457e-23)
(1.00948 0.00913813 6.47017e-23)
(0.0282637 0.193462 0)
(0.00982439 0.190375 0)
(1.00386 5.70203e-05 2.33612e-22)
(1.0035 3.8464e-05 3.5294e-22)
(1.00446 9.44255e-05 3.28379e-22)
(1.09245 -0.0775744 3.41114e-21)
(1.09118 -0.0802267 7.9985e-22)
(1.09467 -0.0789779 0)
(1.01064 -0.00265805 4.12483e-23)
(1.01001 -0.00236274 2.76278e-22)
(1.01324 -0.00435602 -9.70308e-22)
(1.01282 -0.00406974 9.10809e-22)
(1.01309 -0.00397752 4.22236e-22)
(1.0186 -0.0115967 -7.02641e-22)
(1.01874 -0.0116471 -6.66024e-22)
(1.01876 -0.0116276 0)
(1.01246 0.00214231 1.56042e-22)
(1.01225 0.00209942 1.32374e-22)
(1.01307 -0.000773222 1.94132e-22)
(1.01268 -0.00062907 1.34704e-24)
(1.01287 -0.000640582 1.43496e-24)
(1.09023 -0.0762014 -6.41157e-21)
(1.00769 0.000288713 1.54481e-22)
(1.00752 0.000265301 -2.07035e-22)
(0.952261 -0.182965 0)
(0.948114 -0.170713 9.96611e-22)
(0.964916 -0.169511 0)
(0.998787 0.179911 -4.0625e-21)
(1.01353 0.160053 -3.05426e-21)
(1.0122 -0.00095215 4.11354e-22)
(1.01194 -0.00080818 2.65261e-22)
(1.01189 -0.000869518 -7.23616e-23)
(1.05986 -0.0659759 1.00372e-21)
(1.05998 -0.0626081 6.20342e-23)
(1.08877 -0.179524 -5.11468e-21)
(1.08138 -0.173379 4.88213e-23)
(0.964382 0.148217 5.49782e-21)
(0.974292 0.139495 9.87076e-21)
(0.930817 0.0542011 -1.08689e-20)
(0.937985 0.0243561 -5.23599e-21)
(0.945683 0.0521982 -6.74245e-22)
(1.01699 0.0526717 -5.0384e-21)
(1.01044 0.0601644 -2.1263e-22)
(1.1316 -0.0674087 1.24071e-20)
(1.13287 -0.0693459 -5.65304e-21)
(1.13408 -0.0668366 -2.85424e-21)
(0.593314 -0.291285 -1.64852e-20)
(0.529209 -0.240835 -9.42788e-21)
(1.01097 -0.00100326 -4.5813e-22)
(1.0109 -0.00106192 -2.39786e-22)
(1.1768 -0.242509 -4.6777e-22)
(1.1649 -0.23067 -7.61928e-21)
(1.08272 -0.0599036 -6.49904e-22)
(1.08181 -0.0572375 3.9144e-21)
(1.07678 -0.110758 1.00022e-21)
(1.06891 -0.0384751 0)
(1.00493 -0.000112597 3.81621e-23)
(1.00579 -0.000149738 2.00795e-22)
(1.01042 -0.00167969 -2.7781e-22)
(1.01031 -0.00157996 -4.55619e-22)
(1.01033 -0.00168922 -2.79437e-22)
(1.01243 -0.00112908 -2.19678e-22)
(1.01251 -0.000999158 4.8974e-22)
(0.960463 0.0287718 3.41685e-21)
(0.953039 0.026892 5.28506e-22)
(0.956393 0.0354608 -7.39093e-22)
(-0.0158484 0.264528 -1.72422e-20)
(-0.0186024 0.26806 6.33692e-21)
(-0.0122964 0.274878 9.05915e-21)
(0.949576 -0.184892 -2.57349e-23)
(0.942314 -0.191692 9.30313e-23)
(0.940318 -0.181364 -6.60941e-22)
(1.0225 -0.0122189 -3.85979e-22)
(1.02209 -0.0122805 1.62027e-22)
(1.0222 -0.0118485 -1.36562e-22)
(1.0135 -0.00219335 0)
(1.01353 -0.00233795 2.68426e-22)
(1.01368 -0.00230308 -1.41324e-22)
(0.964509 0.0229096 2.65508e-21)
(0.967501 0.0296744 6.442e-21)
(0.980484 -0.153982 9.61521e-23)
(0.985987 -0.147044 -9.15785e-24)
(0.978553 -0.144436 7.85596e-22)
(1.00299 1.54419e-05 -1.71819e-22)
(1.00395 4.10573e-05 1.1177e-22)
(1.00333 3.20641e-05 0)
(0.890787 -0.352298 -1.16058e-21)
(0.911548 -0.364017 2.62108e-21)
(1.01946 -0.23028 -4.00734e-21)
(1.0274 -0.239088 1.43619e-21)
(1.03051 -0.226693 3.09785e-21)
(1.01059 -0.00164572 -7.63361e-23)
(1.01049 -0.00166627 -8.35491e-22)
(1.01048 -0.00154979 -4.41122e-22)
(1.00789 -0.000612283 7.92008e-24)
(1.00797 -0.000631255 1.21363e-23)
(1.00789 -0.00058574 -4.60165e-22)
(1.01458 0.000513029 -1.85586e-22)
(1.01429 0.000238639 -8.7756e-22)
(1.01397 0.00050831 8.61869e-22)
(1.01145 -0.00371497 -5.44887e-22)
(1.01157 -0.00383417 -8.1537e-22)
(-0.0562687 0.183737 -1.34831e-20)
(-0.0519645 0.198568 -4.72941e-21)
(1.01113 -0.000687257 5.87639e-22)
(1.01117 -0.000863616 4.03621e-22)
(1.0112 -0.000827248 2.42572e-22)
(1.04502 -0.0295752 2.2627e-24)
(1.04589 -0.0143927 -3.21957e-22)
(1.03895 -0.0347522 9.45738e-22)
(1.0127 -0.00133826 -2.1982e-22)
(1.01233 -0.00122404 -4.50038e-22)
(1.00512 0.000100649 2.85445e-23)
(1.00592 0.000122805 4.86438e-23)
(1.00492 7.79536e-05 0)
(0.939866 -0.220824 0)
(0.947586 -0.21327 -3.99379e-22)
(0.950904 -0.224053 -1.75099e-21)
(1.01219 0.00030656 -3.64827e-22)
(1.01201 0.000372259 -4.23078e-23)
(1.01182 0.000255831 3.22526e-22)
(1.16252 -0.264645 8.57422e-21)
(1.15135 -0.246286 1.59355e-21)
(1.01378 -0.000906495 0)
(1.01362 -0.000781635 -1.7906e-22)
(1.01365 -0.000891093 0)
(0.907898 -0.314252 2.98858e-21)
(0.899657 -0.319802 4.12341e-21)
(1.01076 -0.00953385 8.94257e-22)
(1.01038 -0.0110601 -1.08726e-22)
(1.00979 -0.000421835 3.9228e-22)
(1.00974 -0.000396685 -1.49495e-21)
(1.01067 -0.00174913 1.98565e-22)
(1.01067 -0.00164356 4.66226e-22)
(0.975875 -0.0726367 0)
(0.969999 -0.0693289 -1.95426e-22)
(0.606755 0.0242992 4.05098e-22)
(0.608289 -0.00326848 -2.70692e-21)
(0.59726 -0.0147354 4.75575e-22)
(0.612704 0.0631856 -1.78709e-22)
(0.61906 0.0697626 -9.97894e-23)
(1.00994 -0.000435476 9.31201e-22)
(1.00981 -0.000439176 7.5575e-22)
(0.983167 -0.163079 -2.61338e-22)
(1.02645 -0.00435916 3.05124e-23)
(1.02633 -0.00395651 9.71468e-22)
(1.012 -0.0051076 0)
(1.01193 -0.00497219 1.07257e-21)
(1.01196 -0.00515978 0)
(0.836864 -0.189266 -2.62489e-21)
(0.848208 -0.196123 -4.30373e-21)
(0.846792 -0.18268 -2.0634e-21)
(0.896677 -0.122219 0)
(0.949685 -0.144427 0)
(0.923973 -0.146592 -2.23809e-20)
(1.01208 -0.00523392 8.33877e-22)
(1.01203 -0.00504925 9.50125e-22)
(1.01069 -0.000963443 -3.9148e-22)
(1.01078 -0.000978866 -3.78822e-22)
(1.01084 -0.000931894 -3.44633e-22)
(1.01726 0.0057184 1.61068e-22)
(1.01814 0.00620732 7.1953e-23)
(1.01729 0.00662118 6.70151e-23)
(1.01845 -0.0115209 4.4148e-23)
(1.01846 -0.0115391 -2.05795e-22)
(1.02764 -0.0323813 -7.63466e-22)
(1.02854 -0.0314654 5.24127e-22)
(1.02906 -0.0328257 -8.04853e-22)
(1.00787 0.000305135 1.25819e-22)
(1.00813 0.000340044 2.19883e-22)
(1.01366 -0.0046396 -1.44547e-21)
(1.01331 -0.00482322 5.09159e-22)
(1.03315 -0.0158495 7.86374e-23)
(1.03351 -0.0167465 4.18785e-22)
(1.00781 -0.000591836 7.24412e-22)
(1.00788 -0.000636167 -6.30412e-22)
(1.00534 -0.000176279 -2.62133e-23)
(1.00687 -0.000228847 -2.51913e-23)
(1.00585 -0.000182752 -7.63917e-22)
(1.01409 -0.00214157 8.90157e-23)
(1.01394 -0.0021532 4.52742e-23)
(1.01394 -0.00200447 1.94354e-22)
(0.599566 0.0623083 -6.1911e-21)
(0.636337 0.0512634 -3.20045e-21)
(0.580778 0.0718867 1.83038e-21)
(1.01572 -0.0044967 -1.23421e-22)
(1.0106 -0.000936798 -1.28907e-21)
(1.01056 -0.000987778 3.45536e-22)
(1.00983 0.000932578 -2.947e-23)
(1.00976 0.000916986 -7.94305e-23)
(1.00974 0.000875815 -6.34131e-23)
(0.992575 -0.150286 -1.16006e-22)
(0.991015 -0.141391 3.62021e-22)
(1.00827 -0.00084896 6.71052e-22)
(1.00828 -0.000858703 7.69596e-22)
(1.00835 -0.000884471 3.58577e-23)
(1.00819 -0.000811246 0)
(1.00271 3.73646e-05 -9.87661e-22)
(1.00199 -3.63018e-05 -5.77816e-23)
(1.0348 -0.00851687 -7.97434e-22)
(1.03553 -0.00854872 -3.26324e-21)
(1.03525 -0.0091629 -1.21523e-22)
(1.01106 0.000397025 5.20028e-22)
(1.01119 0.000514808 1.4396e-23)
(1.00491 5.51902e-05 -3.17273e-22)
(1.00453 5.75738e-05 1.14326e-22)
(1.00525 5.10809e-05 -4.73803e-22)
(1.00369 2.3889e-05 5.95659e-22)
(1.0032 3.66065e-05 8.76123e-23)
(1.00412 2.75639e-05 -1.29045e-22)
(1.01606 0.000539784 -1.95739e-22)
(1.01688 0.000563552 -4.50006e-22)
(1.01639 0.00111493 -1.18904e-21)
(0.924288 0.0844081 -2.17344e-22)
(0.919106 0.0525973 2.28062e-21)
(1.00916 -0.000387003 -1.01993e-21)
(1.00734 -0.000308784 -2.53552e-22)
(1.00556 0.000141501 4.89184e-22)
(1.00506 9.92333e-05 3.19226e-22)
(0.172152 0.297601 9.81663e-22)
(0.148797 0.293596 9.74797e-21)
(0.141364 0.300193 -1.24839e-20)
(1.04375 -0.0219682 -3.878e-22)
(1.04435 -0.0209264 5.9741e-23)
(1.04304 -0.0210966 9.30915e-22)
(1.00543 1.60352e-06 0)
(1.00576 -2.3506e-05 4.273e-22)
(1.00495 1.10328e-05 -4.1082e-22)
(1.00517 7.92602e-08 1.33129e-24)
(1.00589 1.516e-05 -4.40928e-22)
(0.883974 -0.359086 -1.61293e-20)
(0.85991 -0.355113 -8.17414e-21)
(0.871911 -0.347578 6.81077e-21)
(0.976169 -0.0164108 2.62701e-22)
(0.98182 -0.0200791 -1.57012e-21)
(0.982804 -0.0137927 5.25416e-22)
(1.00877 0.000905888 0)
(1.00886 0.000943538 0)
(1.02372 -0.0171038 5.86291e-22)
(1.02245 -0.0145922 -1.54409e-22)
(1.02056 -0.0163456 -2.66505e-22)
(1.09608 -0.0401198 -9.23921e-21)
(1.091 -0.0613267 -1.18619e-21)
(1.01125 0.000666892 -1.18959e-22)
(1.01151 0.000690165 -6.19866e-22)
(0.966257 0.0273545 -6.29854e-22)
(0.959215 0.03311 1.20962e-21)
(1.01422 -0.00212738 -2.54413e-22)
(1.01422 -0.00227633 2.98703e-22)
(0.630557 0.109099 3.99317e-22)
(0.659718 0.168094 3.0113e-22)
(0.658852 0.161764 1.95502e-22)
(0.971975 -0.175916 -8.94245e-22)
(0.998282 -0.11537 -2.49094e-22)
(1.00236 -0.119627 0)
(0.995278 -0.119303 -1.59359e-22)
(1.06745 -0.104536 3.05394e-21)
(1.07 -0.108194 3.67404e-22)
(0.92228 -0.0337049 -3.42257e-21)
(0.993073 -0.0486876 -2.83474e-22)
(1.00939 0.00100789 -2.32671e-22)
(1.00949 0.00106964 0)
(1.00934 0.0010302 1.73736e-22)
(0.848451 -0.347107 -1.02151e-20)
(0.834052 -0.321253 5.70634e-21)
(0.858493 -0.339712 -2.04224e-20)
(1.08888 -0.187565 -3.96534e-21)
(1.08072 -0.191068 1.41289e-21)
(1.0894 -0.197781 -4.81096e-21)
(1.0071 -0.000249931 0)
(1.00648 -0.000222271 3.47335e-22)
(1.00636 -0.000205924 0)
(1.00202 -0.110919 -2.44704e-22)
(0.99455 -0.110653 7.5137e-22)
(1.01077 0.016683 1.19718e-22)
(1.01384 0.0135958 -2.00712e-21)
(0.899803 -0.310848 -1.1764e-22)
(0.886737 -0.317974 1.59259e-21)
(1.01011 -0.0019621 1.00316e-21)
(1.01022 -0.00206355 4.41385e-22)
(1.01014 -0.00204862 1.9983e-22)
(1.00928 0.000962359 9.86498e-23)
(0.0499364 0.204653 0)
(0.886575 -0.0919533 3.96773e-22)
(0.88742 -0.0611119 -8.8808e-22)
(1.00928 -0.00101107 7.53178e-22)
(1.0094 -0.00101104 1.5043e-22)
(1.0094 -0.00105178 -5.68309e-22)
(0.0520049 0.279319 0)
(0.0308967 0.279259 -1.36924e-20)
(0.0495998 0.286532 1.24463e-20)
(0.967693 0.0179948 -7.46896e-22)
(0.973716 0.0188203 1.20904e-22)
(0.970985 0.0133167 1.47754e-21)
(1.00146 -0.00394471 1.52735e-21)
(1.00262 -0.00555438 9.22321e-22)
(1.00053 -0.00581795 4.34926e-22)
(0.370834 0.147722 3.32473e-21)
(0.408604 0.134832 1.39984e-20)
(0.438301 0.119686 -1.46595e-20)
(1.01 -0.0018626 -5.29725e-22)
(1.01008 -0.00187221 7.31343e-22)
(1.0126 0.000354439 3.72659e-23)
(1.01389 -0.000898113 8.91581e-23)
(1.01385 -0.00101129 0)
(1.00571 -3.33265e-05 3.92005e-22)
(1.00504 -5.49608e-05 8.58765e-22)
(1.01559 -0.0096072 1.37399e-23)
(1.01539 -0.00962379 1.78158e-21)
(1.01567 -0.00985362 6.96869e-22)
(1.00859 -0.00108921 4.9837e-22)
(1.00894 -0.000522644 -4.84115e-22)
(1.0091 -0.0012921 2.72675e-22)
(1.02356 -0.0179329 7.1193e-23)
(1.02399 -0.0173743 -6.68231e-22)
(1.01115 -0.00104217 -2.34036e-22)
(1.0112 -0.00104654 -1.40208e-22)
(1.01131 -0.0009722 -5.97318e-22)
(1.01583 -0.00961981 -5.90683e-22)
(1.01555 -0.009394 -1.18234e-21)
(1.02318 -0.0120617 4.64395e-23)
(1.02283 -0.0122233 -6.00022e-22)
(1.0233 -0.0124203 6.879e-23)
(0.716244 -0.181732 -4.37349e-21)
(0.704211 -0.220528 -3.99955e-21)
(0.901699 -0.350609 -1.84868e-22)
(0.900245 -0.365937 3.98081e-21)
(1.01169 -0.00225862 -6.80789e-22)
(1.01184 -0.00271026 -6.11162e-22)
(0.843732 -0.345193 4.34521e-21)
(0.830655 0.0240306 0)
(0.820023 0.0128601 3.61493e-21)
(1.00918 -0.00100823 5.38414e-22)
(1.00918 -0.000974595 -2.1021e-22)
(1.0583 -0.0461484 4.52175e-22)
(1.05648 -0.0454942 -9.31838e-22)
(1.05798 -0.0443834 2.41639e-21)
(0.969774 -0.0117417 -6.18579e-22)
(0.968385 -0.0190625 5.23279e-22)
(1.16593 -0.0487069 -2.65854e-21)
(1.15592 -0.0442344 -4.13477e-21)
(1.1774 -0.0500161 -6.97239e-21)
(0.90911 -0.162548 -1.07998e-22)
(0.91558 -0.181238 -5.75653e-22)
(0.928512 -0.16108 -1.43118e-21)
(0.916532 -0.147194 -1.77474e-21)
(0.923067 -0.152144 3.43313e-21)
(0.923789 -0.142302 2.01671e-21)
(1.01776 -0.00235858 5.3932e-23)
(1.01751 -0.00231281 -6.89992e-23)
(-0.00228834 0.259329 1.42273e-20)
(-0.0145677 0.25737 0)
(-0.016214 0.247565 0)
(0.903624 -0.307737 2.79602e-21)
(0.901167 -0.299684 1.18022e-20)
(0.894354 -0.307086 -1.24673e-21)
(1.01376 -0.0294875 2.2096e-21)
(1.01564 -0.0311507 -4.61106e-23)
(1.01316 -0.0322578 -6.13455e-22)