/*--------------------------------*- C++ -*----------------------------------*\
| =========                 |                                                 |
| \\      /  F ield         | OpenFOAM: The Open Source CFD Toolbox           |
|  \\    /   O peration     | Version:  v2012                                 |
|   \\  /    A nd           | Website:  www.openfoam.com                      |
|    \\/     M anipulation  |                                                 |
\*---------------------------------------------------------------------------*/
FoamFile
{
    version     2.0;
    format      ascii;
    class       surfaceScalarField;
    location    "50";
    object      meshPhiCN_0;
}
// * * * * * * * * * * * * * * * * * * * * * * * * * * * * * * * * * * * * * //

dimensions      [0 3 -1 0 0 0 0];
oriented        oriented;


internalField   nonuniform List<scalar> 
27274
(
-0.00025774
0.000364045
-0.000106534
-1.98695e-05
9.19273e-05
-7.20579e-05
-0.000496998
-0.000113612
0.000607606
0.000443038
-2.01037e-05
-0.000438276
0.000251135
0.000235372
-0.000488405
0.000113408
0.000121494
-0.000234956
-0.000333033
-0.00015146
0.000475823
-2.46024e-05
-0.000207648
0.000232172
0.000315032
0.00012329
8.02702e-05
-9.95553e-05
1.9285e-05
-5.61686e-05
-0.000424241
0.00047111
7.13568e-05
2.976e-05
-0.000101117
0.000226914
-9.39594e-05
-0.000132976
-0.000473554
0.000548518
-7.51678e-05
-0.000641629
0.000255461
0.000383962
0.000427096
-0.000274289
-0.000153218
-8.52559e-05
9.7328e-05
-1.20722e-05
0.00073807
-0.000381657
-0.000364939
-0.000127232
-0.000356321
0.000481985
1.56502e-05
8.79455e-05
-0.000103597
0.000334022
-2.07852e-05
-0.000313443
0.000586299
-0.000349535
-0.000237345
-9.97663e-05
9.81229e-05
1.64324e-06
-0.000180098
0.000429587
0.000147766
-0.000420265
-0.000275368
0.000386982
-0.000114467
-6.76944e-05
0.000408197
0.000340087
3.70108e-05
-0.000377226
-8.10937e-05
-2.85778e-05
0.000109671
0.000543779
-0.000682595
0.000136841
0.00052545
-1.49511e-05
-0.000513138
-0.000230677
0.000529809
-0.000300471
0.000424794
0.000303187
7.06514e-05
-2.82823e-05
-7.04169e-05
0.000261612
-0.000234446
-2.72347e-05
3.82131e-05
-0.00029614
7.12779e-07
0.000389746
-0.000158733
-4.54616e-05
0.000204181
-3.83215e-05
0.000378385
5.59615e-05
0.000428256
-0.000494409
-0.000541253
6.74127e-05
-0.000116844
-7.33785e-05
0.000190208
2.66655e-05
-0.000526528
-5.38383e-05
9.95882e-05
-4.57499e-05
-2.76181e-05
-6.57178e-05
6.64517e-05
5.75398e-06
-0.000164497
0.000194372
5.13142e-05
-0.000245773
0.000425262
-0.000350734
-7.46305e-05
-0.00016461
-0.000123694
0.000288194
2.2713e-05
-0.0004284
0.000398651
-0.000239798
0.000462281
-0.000233521
0.000645353
-0.000545494
-0.000103729
7.95937e-05
-8.14253e-05
1.38098e-06
-0.000108393
3.401e-05
7.43823e-05
-0.000462562
0.000174168
0.000283666
-2.43193e-05
-1.82687e-05
2.74284e-05
0.000214291
-4.3912e-06
-0.000209947
-0.000246728
-0.000396432
-0.000110509
4.74321e-05
6.30767e-05
-0.000225663
8.31739e-05
0.00014247
0.000399104
-0.000383094
-0.00017166
-9.0621e-05
0.000262192
0.000585144
-0.000224165
-0.000369291
-0.000280977
0.000142449
0.00013846
9.05683e-05
-1.92115e-05
0.000226571
0.000137261
-0.000100742
5.29632e-05
4.77789e-05
0.000199267
8.96413e-05
-0.000288936
0.000402713
0.000337116
0.00024861
-0.00015088
-8.47971e-05
0.000235625
-3.02002e-06
-3.87417e-05
3.86587e-05
-8.79968e-05
-0.000137683
0.00013722
0.000364808
-0.000509434
0.000224874
-0.000249562
-0.000488297
0.000148437
-3.29402e-05
0.000121895
-8.89557e-05
0.000301713
0.000143348
-0.000446612
0.000390183
-0.000281235
-0.00010948
-0.000469649
0.0005645
-9.90399e-05
0.000371965
-0.000532746
0.000159185
-0.000137995
-2.1194e-05
-4.95166e-05
0.000383239
0.000139289
-0.000244572
0.000105223
-0.000396801
0.000119107
4.66652e-05
0.000180225
-0.00011069
5.90157e-05
5.1674e-05
-0.00010395
0.000119598
-0.000116423
3.53295e-05
9.26618e-05
-0.000112522
1.986e-05
-0.000165748
1.66759e-05
0.000149065
7.41358e-05
-0.000138205
7.04577e-05
-0.000387531
0.000313351
0.000523462
-0.000430907
-0.000106286
-0.000105382
0.000105382
-8.65726e-06
-9.11092e-05
0.000101501
0.000339267
-0.000444391
0.000346475
4.30975e-05
-0.000390169
-3.35098e-05
-7.48829e-05
-8.07182e-05
-1.37394e-05
9.44576e-05
-8.54892e-05
9.78327e-05
-1.23435e-05
-1.3726e-05
-7.27298e-05
8.64558e-05
-0.000198779
-0.000166201
0.000364853
3.77078e-05
-0.000150612
0.000112902
0.000154679
0.000299592
-0.000455476
0.00021624
-2.82319e-05
-0.00018804
4.32565e-05
4.45951e-05
-8.78516e-05
-0.000199199
0.000139571
5.96154e-05
0.000398192
-0.000249083
-0.000149397
8.75841e-05
8.2822e-05
-0.00021031
0.000584674
-0.000376359
-0.000314551
-0.000101174
0.000415614
-0.000216093
0.000363567
-0.000148441
-0.000461402
0.00014676
9.61135e-05
-0.000122472
2.63585e-05
7.43962e-05
1.11293e-05
-0.000103828
5.78633e-05
-8.41127e-05
2.62495e-05
8.271e-05
-0.000115651
-7.7027e-05
8.56608e-05
-8.63387e-06
9.28689e-05
-0.000291755
9.92228e-05
-1.89527e-05
0.000137597
-0.000129409
-8.19137e-06
-0.000156096
0.000456352
6.42887e-05
-0.000215209
0.000449129
-0.000351309
-9.79765e-05
-0.000101233
0.000553201
8.74426e-05
0.000116378
-0.000103479
-1.20821e-05
0.000166557
-6.78067e-05
-9.87527e-05
5.85087e-05
0.000450477
0.000236152
-0.000486639
5.73517e-05
8.16275e-05
-0.000138982
-0.000283532
8.12672e-05
0.00020219
-8.10172e-05
0.000426974
-0.000151778
-9.66988e-05
0.000248435
0.000103439
1.17029e-05
-0.000366827
0.000722544
-0.000358101
0.00032836
-0.00039218
0.00048091
-0.000681461
0.000199274
-0.000181484
-3.9768e-05
0.000221224
-6.75829e-06
-7.87309e-05
8.09089e-05
1.13521e-05
-9.2261e-05
0.000453848
-0.000505593
5.06785e-05
0.000235564
-0.000447476
-7.19476e-05
-6.78841e-05
0.000139832
7.88361e-06
-0.000456145
0.000447662
-0.000162578
0.000371747
-0.000209154
-8.72685e-05
0.000110865
-2.35971e-05
0.000482788
-0.000105382
-0.000378196
3.33703e-07
-8.76023e-05
0.000543357
-0.000467278
-7.83266e-05
-0.000342107
0.000197465
6.41056e-05
-4.72731e-05
-6.32358e-05
0.000240866
9.04568e-06
-0.000249982
5.74037e-05
-3.90706e-05
-2.04312e-05
-7.44434e-05
0.000131793
-6.20064e-07
-7.64069e-05
3.12398e-05
2.4868e-05
-6.42064e-05
0.000256487
-0.000192353
0.000423471
-0.000236892
-0.000186816
-0.000457332
0.000183404
0.000273321
0.000168902
-0.000308674
0.000139695
0.000293926
-0.000375393
-0.000195697
3.70253e-06
0.000191977
7.01187e-07
0.000104421
-0.000105123
-0.000126542
3.00921e-05
9.64498e-05
-0.000199852
-0.00011022
0.000309945
-2.90473e-06
-0.000143893
0.000146787
0.00038072
0.000143617
-0.000531175
-0.000139795
0.000127083
1.27116e-05
0.000108869
-4.22858e-05
-6.65829e-05
-0.000537169
0.000323504
0.000203748
0.000464557
-0.000527795
5.29663e-05
0.000289346
0.000137292
0.00010833
-6.77795e-05
-4.05505e-05
-0.000185935
-0.000115909
0.000301718
-0.000299252
0.000429699
-0.00013361
5.60765e-05
0.000110478
-0.000124466
8.522e-05
3.92455e-05
0.000126138
-0.00022275
9.6614e-05
0.000112913
-0.000115826
0.00031764
4.41079e-05
-0.000362193
-0.000189693
-0.000241326
0.000420856
-9.15279e-05
0.000200452
-0.000108936
-9.60763e-05
-2.18457e-06
9.82609e-05
-0.000122007
1.09265e-05
0.00011108
-0.000181893
1.91117e-05
0.00016277
-0.000477876
0.000375244
0.00010256
1.91556e-05
-0.000104412
0.000235385
0.000576063
-0.000499645
-7.92243e-05
-0.000100543
0.000393975
0.000169276
-0.000107923
-6.13555e-05
5.44759e-05
0.000182257
-0.000236766
4.24368e-05
-0.000425305
0.0003823
2.19013e-05
-0.00012719
0.000105286
-8.1166e-05
0.000398342
0.000191104
0.000101043
-0.000292344
-8.23569e-05
-7.12699e-05
0.000388257
-0.000318416
0.000245409
-0.000429484
0.000183891
0.000118266
-1.30259e-05
-0.00010524
-3.15274e-05
-9.048e-05
-5.85932e-05
0.000102425
-4.38319e-05
-0.000179604
-0.000158142
0.000337532
-3.51434e-05
9.30067e-05
0.000134143
-5.48279e-05
-7.93157e-05
0.000121322
-3.53451e-05
-8.59774e-05
-0.000150704
0.000341602
1.52278e-05
-0.00038419
0.00044857
9.29157e-05
1.86607e-05
-0.000115872
9.72099e-05
-3.45431e-05
0.000487214
0.000557617
-0.000186132
3.08936e-05
0.000128288
-0.000186122
6.42606e-05
0.000121856
-8.52907e-05
0.000156607
-0.000372386
0.000428323
5.35172e-05
-0.000185872
0.000132459
5.34085e-05
-0.000654436
0.000512622
0.000139831
0.000267711
-0.000128495
0.000283602
0.000436046
-0.000112077
-1.44654e-05
0.00054292
-0.000121749
-0.000422033
0.000119488
-4.04793e-05
-7.90086e-05
-9.7343e-05
9.47416e-05
2.60129e-06
-7.72279e-05
-8.64198e-05
0.000163648
-0.000464868
0.000477427
6.38226e-05
1.5251e-05
0.00028157
0.00010808
0.000264317
-0.000419135
0.000154401
1.47583e-05
0.000104729
0.00045861
-0.000453422
-6.0812e-06
-0.000286238
0.000385514
-0.000102364
-0.000336795
3.43289e-05
0.000129433
-0.000179035
4.95942e-05
2.94257e-05
0.000109104
-0.000138535
2.91367e-05
0.000184376
0.000213571
-0.00013296
-6.31196e-05
0.000196068
-0.000476388
0.00015721
-0.000136896
0.00060996
-0.000482002
-0.000474782
-7.77747e-05
0.00055178
-1.3741e-05
-8.3602e-05
0.000159294
-2.99676e-05
-0.000129328
9.12163e-05
-2.84409e-05
-6.27753e-05
-3.15127e-05
0.000272308
0.000249483
0.00017372
-0.00039517
0.000322497
-4.79198e-05
-2.9138e-05
7.70577e-05
0.000267642
-0.000349198
1.62443e-05
0.000105078
0.000231433
-0.000467143
0.000234693
2.26319e-05
-0.000100582
7.79506e-05
3.81003e-06
-0.000148507
0.000144692
0.000184321
-0.000248596
0.000569011
-0.000486353
-8.43456e-05
-3.74698e-05
-3.00374e-05
4.45134e-05
-0.000127312
0.000353665
0.000261167
-0.000108314
-0.000152897
-3.27234e-06
0.000121538
-0.000196971
-8.66508e-05
0.000486682
-0.000216137
-0.000282402
-0.000400051
-0.000124457
0.000516026
0.000114107
-4.67607e-05
-6.89433e-05
-1.90657e-05
-0.000124835
0.000210087
-0.000198725
-1.13804e-05
9.09291e-05
0.00010559
-0.000196518
-0.000239225
-0.000204714
0.000443391
-4.55428e-06
6.75575e-05
-6.30033e-05
-5.53339e-05
-0.000126569
1.22492e-05
0.000203962
-0.000362282
0.000558704
-0.000198002
-0.000123195
0.000145094
-0.000623234
0.000149382
0.000129327
-0.00050486
0.000373456
-0.000140531
9.27286e-05
4.78013e-05
-2.52512e-06
-7.33654e-05
5.36532e-05
-6.61531e-05
-0.000427892
-5.60135e-05
0.000227872
-0.000171893
0.000470749
-0.000623646
0.000148996
-2.43091e-05
9.31261e-05
-6.8817e-05
-9.89672e-05
0.000366245
0.000206598
0.00017933
-0.000385958
5.33094e-05
-7.91833e-05
7.70674e-05
-0.000277036
9.94265e-05
-9.41875e-05
-5.23907e-06
-0.000387903
0.00048775
-6.05899e-05
-0.000592752
0.00010737
0.000485749
-0.000216854
3.3892e-05
0.000182939
8.28181e-05
1.62621e-05
-9.90803e-05
7.76858e-05
3.60991e-05
-6.02158e-06
-6.44023e-07
5.34279e-06
-0.000100479
-8.56476e-05
-8.78859e-05
0.000241939
-0.000154128
0.000292704
-4.7344e-05
-0.000245425
-6.30311e-05
0.000140781
-7.77522e-05
-0.00039185
0.000518904
0.000176312
-0.000542479
0.000437
0.00010507
-1.10825e-05
2.73971e-06
9.79402e-05
-0.000160973
-5.46285e-05
-0.000141082
-0.000238575
8.48721e-05
0.000153689
-7.35688e-05
-0.000143306
0.00047089
-0.00042575
0.000182749
-5.66094e-05
-0.000501386
0.000441274
-0.000552878
0.000423893
1.02142e-05
0.000149077
0.000227317
-0.000634973
0.000404837
-0.000152035
9.18006e-05
-0.00020866
0.000364984
-0.000297785
-0.000147048
0.000446533
-0.000312833
8.1147e-05
-0.000144276
2.93066e-05
-7.59763e-05
4.66698e-05
3.33256e-05
0.000100818
0.000291066
-0.000474122
0.000181625
0.00034508
-0.000176269
4.01965e-05
-9.40348e-05
2.97975e-05
-0.000468283
0.000433425
0.000158157
-0.000128737
-0.000339835
-9.01497e-05
0.000429375
0.000135764
-0.000327723
0.000191859
3.16592e-06
0.000154985
3.36074e-06
0.00045305
7.84765e-05
-7.77756e-05
-0.000431989
0.000535414
-0.000105089
-0.000275128
0.000123309
3.64166e-07
2.73495e-05
-3.89019e-05
0.00026112
7.24292e-05
-8.2584e-05
1.01548e-05
6.55406e-05
-9.85234e-05
3.30248e-05
-6.68098e-05
-5.76564e-05
0.00022237
8.06096e-05
-0.000303223
-1.57686e-06
-0.000421251
0.000422287
0.00029679
-0.00010252
-0.000279993
0.00010825
-3.59651e-05
-8.97833e-05
0.000125746
-0.000120074
1.84836e-06
0.000118225
4.45526e-05
0.00012472
0.000471193
-0.000240802
0.000273007
0.000305686
0.000124287
-9.00116e-05
-3.42753e-05
8.12995e-05
0.000112504
-0.0001938
9.96057e-05
0.000290887
-0.000393265
-0.000399594
0.000545659
-0.00014718
-0.000130267
-0.00010832
5.8856e-05
-0.000150393
-0.000105102
5.71822e-05
1.66971e-05
0.000107589
-0.000422092
0.000437698
-1.66716e-05
0.000158137
0.000266363
-0.000425395
-6.89119e-05
8.25956e-05
-1.36837e-05
8.87326e-05
0.000493721
-1.609e-05
0.000473727
5.45009e-05
-0.000134002
7.94955e-05
-0.000132583
-0.000177725
0.000310128
0.000252273
-0.000404538
0.000151377
-6.40226e-05
9.33293e-05
7.56608e-05
-7.64197e-05
5.51828e-08
-0.000110819
-0.000132406
0.000243205
-0.000104522
-8.13546e-05
4.68982e-05
4.08318e-05
0.000343639
0.000128715
0.000104397
0.00039158
-0.000496894
0.000147307
0.000247638
-0.000396232
-2.47569e-05
-0.000446843
0.000467392
-5.25932e-05
0.000171342
-0.000118759
0.000367532
-0.000395819
0.000294886
-3.34158e-05
-0.000261593
-0.000397963
0.000543547
0.000444426
-0.00027575
-0.00016915
-0.000396698
-2.68179e-05
0.000383096
-6.80364e-05
0.000686919
-0.000221405
-0.000469238
0.000628821
-0.000337711
-0.000292887
0.000377355
0.000115411
-0.000496163
-0.000182791
0.000556347
-0.000438451
0.000276713
0.000161227
4.15812e-05
-0.000134448
9.28656e-05
6.33298e-05
-0.00010951
4.61804e-05
0.000624492
-0.000343045
0.000141955
-9.45241e-06
-0.000132505
-0.000172496
0.000332015
-0.000159597
0.000112475
-4.91456e-05
0.000317515
-0.000315618
-2.20402e-06
-3.3729e-06
0.000200236
-0.000196905
-0.000409927
-6.54973e-05
0.000137665
-2.74958e-05
-0.000110172
0.000388209
-2.20515e-05
7.97109e-05
-0.000405658
0.000116668
0.000122275
-0.000488426
0.000355346
-2.83634e-05
-9.17105e-05
0.000486605
-0.00028177
-0.000205433
2.16732e-05
-0.000108113
-0.000289158
0.000150068
0.000138992
-2.26296e-05
0.000317389
0.000545751
-0.000459089
-0.000360627
0.000386228
-9.65826e-05
9.77142e-05
-1.13173e-06
0.000379037
-7.45006e-05
8.96831e-05
-0.000439712
-0.000104637
0.000540143
9.22233e-05
-1.00703e-06
9.11731e-05
-8.86522e-06
-8.23079e-05
-0.000104285
0.000158779
-0.000361389
0.000198833
-0.000348021
8.82815e-05
1.1145e-05
5.43817e-05
-6.06672e-05
0.000605034
-0.000591688
-1.68473e-05
-7.19027e-05
-3.31992e-05
5.6855e-05
-7.55394e-05
1.58912e-05
-0.000108423
0.000424845
9.07251e-05
-7.15695e-05
-0.000368291
0.000498189
8.5124e-05
-1.26949e-05
0.000168508
0.0001279
-0.000296569
0.000165608
0.00010942
-0.000275134
9.61567e-05
-4.98365e-06
-0.000564849
0.000237917
0.000326805
7.78627e-05
0.000523523
0.000127148
-4.60792e-05
-8.10698e-05
-0.000131389
0.000244742
-9.47603e-05
-9.5026e-05
0.000132731
-4.43839e-05
-0.000434733
0.000477533
0.00028967
-0.000490487
-1.9206e-05
-0.000437502
0.000194846
-0.000106533
-8.83174e-05
-0.000263473
0.000170869
9.2562e-05
-0.000530004
0.000172361
2.71786e-05
1.64737e-05
-4.58509e-05
0.00045027
-0.000485986
-0.000221971
0.000111138
2.35776e-06
-7.12697e-05
0.000108411
0.000250111
-0.000358782
-0.00036066
0.000341015
-7.05972e-05
8.93503e-06
6.12475e-05
-4.21133e-05
0.000359313
2.17375e-05
0.000129467
-0.000151211
9.96997e-05
-1.68817e-05
-7.5611e-05
9.82428e-05
0.000122545
7.44451e-06
-0.000129992
-0.000120547
-9.9361e-05
0.000219903
-0.000141899
0.000245413
-0.000103533
9.21848e-05
7.40341e-06
0.000415648
-0.000541018
0.000122688
-0.000218891
-0.000309396
0.000518982
-0.00016412
0.000452387
0.0001693
-5.74411e-05
0.000174827
-0.000117393
-3.92462e-05
-0.000423498
0.000460963
6.90959e-05
1.84785e-05
-9.91967e-05
-0.000173132
-4.88525e-05
0.000132068
-1.93665e-05
0.000112028
8.02149e-05
-0.000200767
-1.11949e-05
-8.48814e-05
0.00046131
-0.000557523
9.35962e-05
0.000500173
0.000569581
-0.000468694
-0.000102595
0.000421271
-5.81091e-05
3.03156e-05
-4.45377e-06
-5.42605e-06
7.94076e-05
-0.000473251
2.62761e-06
0.00010406
-0.000106687
0.0005846
-0.000295219
8.55449e-05
0.000339846
-0.000437893
0.000126993
1.0601e-05
-3.32214e-05
-0.000110143
0.000143351
0.000257843
-0.00048447
-0.000496497
3.00422e-05
0.000464909
-0.000182709
0.000263703
-8.10172e-05
-7.44275e-05
-6.61034e-05
0.000493905
-0.000205061
0.000606769
-0.000423541
-0.000187015
-0.000130994
-0.000137727
0.00038293
2.38876e-05
8.48276e-05
-0.000108715
-0.000336852
-4.38151e-05
-0.000406979
0.000102918
-6.20237e-05
-4.08944e-05
0.000112471
-0.000145705
0.000521374
-0.000396665
-0.000134138
-0.00011069
4.34692e-06
0.000106343
-7.57446e-05
-5.84814e-06
8.15928e-05
-4.52437e-05
0.000119209
-7.39652e-05
-0.000466681
0.000418748
0.000258462
0.000344657
0.000411184
-0.000147295
0.000205985
-1.11132e-06
-0.000204899
-0.000402283
0.000397526
4.70377e-06
-0.000100023
9.54682e-05
7.08563e-05
0.000123986
0.000125558
1.63946e-05
-0.000165818
5.15581e-05
0.000114257
0.000472538
-0.000361198
0.000325871
-0.00015754
9.59609e-05
-8.48493e-05
-1.11117e-05
0.000100211
0.000106906
-9.61506e-06
-9.72914e-05
-0.000322237
-0.000175482
0.000497063
-0.000237713
0.000379872
-0.000142395
-0.000449783
0.000212607
6.29071e-05
2.63526e-05
-8.92597e-05
7.63723e-05
-9.00983e-05
2.74135e-05
-0.000193169
0.000418342
0.000123749
0.000395857
8.42912e-05
0.000109417
-0.00038316
0.000273167
-0.000195311
-6.81971e-05
-0.000411048
0.000488347
0.000117381
9.76575e-06
-0.000315148
-0.000134868
0.000111834
-1.5721e-05
-0.000152124
-0.000367329
0.000518742
-0.000119189
0.000568125
2.67873e-05
-8.56883e-05
-8.28177e-05
0.000282048
-0.000340647
0.000206669
0.000133823
-0.000129719
0.00015145
0.000429927
0.000103199
-0.000537199
-5.20965e-05
0.000189447
-0.000137378
0.000112895
-1.90368e-05
-9.38581e-05
0.000331079
1.04257e-05
-0.000341753
0.000107108
0.000459862
2.18044e-05
0.00032662
-0.000348562
0.000229139
0.00010912
-0.000338617
6.8958e-06
-5.90643e-05
5.06496e-05
-0.000324333
-2.04169e-05
0.000344452
-0.000283463
-7.76737e-05
0.000408359
0.000187613
-0.000157471
-3.0154e-05
-0.000416541
0.000409679
0.000101178
0.000451192
-1.17381e-05
7.76521e-05
-0.000232957
0.000309896
-0.000219785
0.000471131
0.000165782
0.00052168
-6.30702e-05
0.000297979
-0.000479425
0.000150564
-0.000360734
0.000426899
-8.03332e-05
0.000311084
-0.000141999
-0.00016906
-0.000240576
-0.000132793
0.00037324
-0.000182495
0.000156076
2.64063e-05
-0.000142306
0.000348867
6.61109e-05
-9.44745e-05
-0.000160272
0.000486505
-0.000327641
5.36988e-05
3.40311e-05
-0.000259159
0.000387217
-0.000128205
0.000297065
0.000128083
0.000104597
-0.000100791
9.40753e-05
0.000109812
-0.000127275
1.74613e-05
-0.000378782
0.000388927
0.000224815
0.000261003
-9.27512e-05
-0.000377518
-0.000610601
0.00059306
1.48815e-05
2.37395e-05
0.00017704
-0.000200815
0.000102356
0.000154543
-0.000256987
-0.000314732
0.000124807
0.000189823
-5.12083e-05
0.000206372
-0.000155185
8.35365e-05
-0.00016048
-7.98243e-06
0.000168447
5.16052e-05
9.73486e-06
-8.30164e-05
-0.000108787
8.72314e-05
2.15556e-05
0.000152331
-7.76018e-05
-7.47308e-05
-0.000535694
7.7784e-05
0.00045637
-0.000152483
-0.000459125
0.000192463
0.000118628
-5.83888e-05
-5.41335e-05
0.000213501
-0.000341031
0.000183878
-0.000173603
-1.34803e-05
-0.000100232
0.00021158
-0.000111348
-5.3997e-06
0.000192997
-4.07959e-05
-0.00019371
-0.000173638
0.000278836
-0.000105225
-0.000122216
7.38989e-05
4.83171e-05
0.000408273
-0.000365769
0.00023156
-0.000237033
5.44236e-06
4.24137e-05
4.2287e-05
-8.47008e-05
0.000128363
-0.000125202
-0.000119197
1.53158e-05
0.000173109
-0.00018844
0.000174368
-4.49438e-05
-0.000386068
3.72043e-06
0.000381976
2.0564e-05
-5.95944e-05
-0.000393907
-5.08542e-05
0.000592392
-0.000162111
9.01635e-05
5.84275e-05
-0.000142523
8.40957e-05
6.5719e-05
4.2611e-05
0.000151041
-0.00010946
-7.58428e-05
-1.66016e-05
9.24443e-05
8.9741e-05
-8.90951e-05
-6.45958e-07
0.000125964
-0.000226195
-0.000406018
0.000131344
-9.51933e-05
9.52015e-05
-8.24661e-09
-0.000133091
0.000127563
5.52703e-06
-0.000376923
0.000180906
-6.75794e-05
-0.000113327
-1.87294e-05
8.86486e-05
-6.99192e-05
0.000140779
-0.000133304
-7.47659e-06
0.000302641
-0.000194438
-0.000434721
0.000148563
0.000273897
-4.89272e-05
0.000456512
-0.000274989
-0.000158809
0.000433273
-0.000174722
0.000403453
0.000251786
-0.000219928
-3.18942e-05
0.000541787
-0.000316982
5.22651e-05
3.54648e-05
-0.000182494
-0.000256439
-0.000276503
0.000406838
-0.000130622
8.70833e-05
-2.41763e-05
0.000470856
-0.000555655
8.17781e-05
-0.000150501
-0.000190294
-1.58538e-05
0.000122759
0.000618992
-0.00054498
-0.000514498
0.000278607
0.000234862
9.79338e-05
-0.000100129
2.19541e-06
-0.000327312
0.000118902
0.000189278
-0.000163341
0.000111219
-0.000368685
-0.000103974
6.02532e-05
4.37209e-05
-5.1798e-05
-0.00032738
-0.000259098
-8.32095e-05
0.000342144
-0.000179063
-0.000210595
0.000434751
-0.000224589
0.000192129
1.38284e-05
-0.000278906
0.000391827
-0.000112905
9.00738e-05
-8.97402e-05
-0.000237469
-4.44177e-05
0.000281819
-0.000511396
1.70438e-05
0.000491316
4.85864e-05
3.91436e-05
-8.773e-05
1.92185e-05
-0.000278453
-4.37401e-05
-4.8645e-06
6.8539e-05
-6.36745e-05
0.000147125
-2.01356e-05
0.000146136
0.000479209
-0.000244964
0.000501943
-0.000423881
-8.7914e-05
-8.17313e-05
5.98663e-06
0.000295065
-0.000273377
-0.00031166
-1.28952e-05
-1.10432e-05
0.00012838
-0.000121931
-0.000342404
0.000133502
-1.09578e-05
0.000129037
-0.00010017
-2.8868e-05
-0.000266491
9.82548e-05
-4.4556e-05
0.000115934
-0.000173381
0.000454375
-6.82265e-05
-0.000386678
-0.000154367
-0.000292195
0.00016782
-0.000139281
-0.000149984
8.25369e-05
0.000127529
0.000108621
0.000382442
-0.000495435
0.000129645
-1.98337e-05
0.00015554
-0.000335324
-0.000254178
-4.86996e-05
-3.34516e-05
5.37989e-05
-9.44457e-05
-8.18245e-05
-0.00032531
-0.000358661
-0.000108244
-0.000101154
0.000247138
-0.000146037
0.000129429
-4.0353e-06
-0.000516873
0.000111352
-7.54015e-05
-1.86247e-05
9.40263e-05
4.64586e-05
-8.14729e-05
-0.000407785
0.000488839
0.000570064
2.03377e-05
-0.000212975
-1.19714e-05
0.000224916
-0.000256085
0.000132294
-0.000394943
0.000113179
0.000205851
-0.000124548
0.000340609
0.000286457
8.1141e-05
1.48198e-05
-0.000154178
0.000305815
-0.000151729
0.000503119
-0.000414015
-8.9907e-05
2.45511e-05
0.000117817
-0.000142368
4.12849e-05
-8.35708e-05
-0.000389519
-6.07314e-05
0.000443315
3.36414e-05
9.53947e-05
-0.000337148
0.000305776
5.5522e-05
0.000559622
-4.08229e-05
-0.0003616
0.000231134
-0.000278321
4.71881e-05
9.92726e-05
-8.88459e-05
-1.04269e-05
0.000338991
-0.000116833
8.50551e-05
-4.26413e-05
0.00037706
-0.000253167
-0.000124045
-0.000132141
4.8828e-05
8.33126e-05
-8.66766e-05
-7.91437e-05
0.000359449
-0.000356074
1.47255e-05
0.000486729
-0.000383234
0.000158078
-5.93359e-05
-9.87429e-05
-0.000420103
-6.97321e-05
-4.0958e-05
-8.28957e-05
6.30262e-05
0.000534339
-0.000390824
-0.000144596
-2.91881e-05
9.15562e-05
-6.23682e-05
-0.000241899
-0.000155105
0.000396594
-0.00029606
3.67983e-05
-0.000140401
2.8185e-05
0.000112214
0.000219635
-0.000107063
-0.000112574
9.52063e-05
-6.92491e-06
-0.000185602
-0.000352994
0.000529843
-6.27121e-05
0.000128823
0.000548049
-0.000103063
-0.000446023
0.000124477
-3.44039e-05
0.00055056
-0.000299062
-0.000253179
-8.70048e-05
-0.000228387
-0.00029134
0.000400024
7.11784e-06
-0.000551413
0.000537767
0.000124793
-4.36902e-05
-0.000108689
-0.000320855
0.000183686
0.000136977
-2.50566e-05
0.000135294
5.4822e-06
-0.000128371
0.000408204
1.29686e-05
-9.52091e-05
8.22406e-05
-6.29883e-05
0.000421978
0.000511969
-0.00051102
0.000381023
-0.000272353
0.00038477
-0.000237926
-0.000146966
-0.000179833
0.000159685
2.01291e-05
-0.000113624
-2.67775e-05
0.000360857
-2.20606e-05
3.75554e-05
1.25652e-05
-0.000322781
-7.46735e-05
0.00039713
-7.50917e-05
-4.73807e-05
0.0002154
-0.000168778
-0.000468723
-0.000182905
-0.0003734
-0.000329221
6.17905e-06
-0.000395119
0.000242825
0.000152058
9.70799e-05
-4.48147e-05
-0.000111924
0.00057953
9.12644e-05
4.35611e-05
-0.000134828
0.000186423
-0.000131971
5.83237e-05
9.40054e-05
4.88619e-05
-9.41058e-05
-5.51211e-05
-4.56211e-05
-0.0004098
0.000294895
0.000100223
-0.000275806
0.000104496
0.000171193
0.000599474
0.000196339
0.000290328
-0.000487869
-0.000249389
-0.000146131
0.000395123
7.25399e-05
-9.12693e-05
0.000308932
-0.000455318
0.00013318
-0.000447683
0.000351509
-2.35218e-05
6.98867e-05
-7.32005e-05
4.44522e-05
0.000396557
-0.0003878
-9.02025e-06
-0.00016318
-0.00035016
0.00031567
-0.000280184
-3.56394e-05
0.000338873
-0.000125585
-0.000107672
3.71193e-06
0.00010396
9.86746e-05
-5.54181e-05
0.000116267
0.000360638
-0.000481602
-0.000506231
0.000496902
8.79569e-06
-9.67458e-05
0.000380599
-0.000118305
9.91143e-05
1.919e-05
7.29404e-05
1.89869e-05
-0.000123473
0.00010491
1.85628e-05
-5.39823e-05
0.00015192
-0.000168655
0.000128462
4.01895e-05
-5.37267e-05
0.000140623
-8.6899e-05
-0.000343531
-0.000227465
0.000384732
-0.000512526
0.000100903
-0.000534425
-0.000384826
0.000481919
-9.75176e-05
0.000391911
-0.000295024
-0.000466683
-0.000126118
0.000128919
-2.80194e-06
-2.15468e-05
-8.38348e-05
8.00212e-05
-0.000443704
-0.000208215
0.000144015
6.41969e-05
0.000336882
-0.000221312
-0.000132372
0.000360451
9.33554e-05
0.00025744
-0.000280182
-0.000224803
-0.000241258
-0.000326275
-0.00035941
-0.000155935
-0.000122012
5.41283e-05
7.49185e-05
-0.000103359
0.000175622
1.74327e-06
-0.000177412
8.8457e-05
6.74923e-06
7.08559e-05
-0.000212771
-4.08536e-05
9.38168e-05
-0.000156019
-4.27207e-05
-2.6747e-05
-8.91266e-05
-0.000117428
0.000101964
1.5464e-05
0.000115356
-0.000269619
0.000113788
-8.93743e-07
9.94374e-06
-0.000170438
8.36267e-05
-8.84913e-05
-0.000438692
-8.8614e-05
0.000523892
-0.000443781
-0.000337638
-7.56522e-05
0.000404552
-0.000376014
-9.51921e-05
-7.98041e-05
0.000174993
0.000149169
3.72774e-05
-7.60201e-05
3.92865e-05
0.00019793
-0.000250038
5.20659e-05
0.00028253
-6.54325e-05
-0.00023143
-0.000193433
-8.75911e-05
0.000281167
-0.000138794
-1.78062e-05
-5.45824e-05
6.82819e-05
8.90717e-05
2.91221e-05
-0.000118196
-0.000479209
1.6836e-06
0.000475076
4.20622e-05
-3.396e-05
-0.000179041
0.00038566
-0.000515866
0.000120584
0.000179964
-3.30565e-05
-0.000146917
0.000129263
-7.08357e-05
0.000173511
-0.000502584
0.000327962
-0.000102994
-0.000355562
0.000457074
-2.7915e-05
0.000533457
-0.000114291
-9.47435e-05
0.000209015
0.000286602
0.000187657
0.000414299
-0.000245103
-0.000169784
-0.000141748
0.000168436
-2.6691e-05
-0.000524961
0.000479387
4.55708e-05
0.000114245
-7.33903e-05
-4.0855e-05
0.000412546
-0.00057432
0.000159651
0.000105784
-8.90875e-05
0.000252803
-0.000408674
0.000155027
0.000186165
1.02063e-05
-0.000196411
0.000513094
-1.63989e-05
-0.000500091
-0.00027017
0.000138284
0.000131817
-7.43041e-05
0.000331613
8.93134e-05
-0.000317091
-0.000305273
0.000477702
1.74109e-05
9.68342e-05
-0.000413699
-0.000242405
-8.59955e-05
8.40716e-05
1.9239e-06
-7.77445e-05
-3.94748e-06
8.16919e-05
0.00019876
-0.000438436
2.53037e-05
-3.47377e-05
-0.000221623
0.000392294
0.000290823
-0.000434479
0.000133872
1.94922e-05
-9.48937e-05
0.000577799
-1.00997e-05
9.55423e-06
9.623e-05
7.59764e-05
2.94052e-05
0.000282429
-4.05685e-05
0.000108085
-6.19871e-05
-4.60978e-05
4.86765e-05
-0.000103926
-0.00045956
0.000579095
-0.000122508
-7.54619e-05
-8.10791e-05
-3.63492e-05
-0.00022873
-5.01478e-05
0.000505322
-0.000386975
-0.000121792
0.000493945
7.38763e-05
0.000414312
0.000456968
-0.000118899
-0.000339384
-0.000147204
-0.000102731
0.000249907
7.53149e-05
-0.000118926
4.36108e-05
-0.000153706
-0.000281324
0.000434589
-7.6135e-05
9.07441e-05
-7.77755e-05
-0.000164098
4.82933e-05
0.000115799
2.79389e-05
-0.000230051
0.000202082
0.000314238
0.000109731
-0.000425908
5.1975e-05
-8.42318e-05
3.22567e-05
5.88023e-05
0.000252885
6.26506e-05
-7.69724e-05
0.000586823
-0.000110254
0.000543628
-0.000434038
-0.000112848
0.000105975
6.87253e-06
-0.000451982
-2.94292e-05
-7.45448e-05
0.000122223
1.91659e-05
4.00168e-05
-6.11432e-05
0.000252404
0.000132245
0.000101459
-0.000116768
-5.67997e-06
0.000274648
8.59798e-05
7.22546e-05
0.000224104
-0.000296648
-2.69158e-05
0.000291417
-0.000414248
0.000328709
7.212e-05
0.000106801
0.000348432
-5.35989e-05
-4.66841e-05
0.000100283
-0.00011437
6.53777e-05
4.60955e-05
-0.000305455
-4.46818e-05
-5.48735e-05
-0.000483662
0.00037284
0.000560396
-9.37134e-05
0.000140386
-0.000272812
-7.67434e-05
-3.07041e-05
0.000107447
-0.000279023
-6.24363e-05
0.000341188
-0.000103641
1.56848e-05
8.79558e-05
6.6535e-07
0.000387601
0.000515729
-0.000258342
-0.000219418
-1.00086e-05
-8.51848e-05
0.000117742
-9.31906e-05
3.2173e-05
7.54117e-05
-0.000107585
-3.96823e-05
6.0245e-05
-0.000256484
0.000436899
9.67326e-05
-4.97046e-05
-5.39362e-05
-0.000206989
0.00056288
-0.000362007
-6.03085e-05
0.000149378
9.81862e-05
0.000107723
-8.82304e-05
-0.00015833
9.9464e-05
5.41705e-05
0.000194968
-0.000173034
-3.8678e-05
-7.20867e-05
-9.65716e-05
-0.00022881
0.000488714
-0.000261713
3.74493e-05
-9.10482e-05
0.000514076
-0.000100657
7.27167e-05
-0.000101905
4.85818e-05
-0.000529139
0.0003962
-0.00030524
-4.55462e-05
-3.88221e-05
0.000130084
2.94368e-05
-0.000105224
7.57873e-05
-0.000269797
-0.000149691
-0.000405336
0.00050052
-9.67149e-05
-0.000254273
-0.000310929
-0.000465009
-0.000363833
0.000468295
5.28838e-05
-1.50792e-05
-3.84407e-05
-0.000146794
0.000185214
-6.1676e-05
-0.000339204
0.000399844
-0.000129354
9.65525e-05
3.28009e-05
0.000503376
-0.000228623
-0.000275299
-8.29415e-05
-3.53631e-05
-0.000440382
0.000519996
-8.2578e-05
0.000383483
1.26741e-05
-0.000405484
-0.000149386
3.52247e-05
0.000114158
0.000109745
-6.52429e-05
-4.4502e-05
-0.000121297
1.96802e-05
0.000101616
0.000291503
-0.000511612
0.000219176
-3.9642e-05
9.86575e-05
-0.00052955
8.63356e-05
0.000116174
-4.82162e-05
-6.79582e-05
-0.00030473
0.00016537
-0.00018373
1.83476e-05
0.000473089
8.71417e-05
-6.9184e-05
0.000118046
0.000582608
-0.000460696
-0.000125272
-0.000229032
0.000300997
0.000380446
-0.000382524
9.35441e-05
0.00045
-0.000546004
-7.91263e-05
8.46321e-05
9.49419e-05
1.68918e-05
-0.000152046
0.000121293
3.075e-05
0.000101936
-6.06383e-05
-4.12983e-05
0.000202603
-0.000174691
-0.000192498
-0.000214429
0.000406409
-0.000241054
-0.000216831
-5.61618e-05
0.000391603
-0.00034424
-8.99426e-05
0.000419069
-0.000112034
-0.00023403
0.000310853
0.000192967
-1.30135e-05
0.000151236
0.000396924
-4.88873e-06
-6.03822e-05
6.5271e-05