/*--------------------------------*- C++ -*----------------------------------*\
| =========                 |                                                 |
| \\      /  F ield         | OpenFOAM: The Open Source CFD Toolbox           |
|  \\    /   O peration     | Version:  v2012                                 |
|   \\  /    A nd           | Website:  www.openfoam.com                      |
|    \\/     M anipulation  |                                                 |
\*---------------------------------------------------------------------------*/
FoamFile
{
    version     2.0;
    format      ascii;
    class       volScalarField;
    location    "200";
    object      ddt0(k);
}
// * * * * * * * * * * * * * * * * * * * * * * * * * * * * * * * * * * * * * //

dimensions      [0 2 -3 0 0 0 0];


internalField   nonuniform List<scalar> 
18355
(
-4.2714e-06
6.30403e-08
0.000349804
1.22821e-07
1.64774e-06
-2.75437e-05
-6.39055e-07
3.7148e-06
7.19772e-08
0.000921256
1.63344e-06
-5.09187e-06
-4.14567e-06
5.38122e-05
8.5814e-08
6.27919e-09
1.34681e-07
-2.88989e-07
-5.80463e-06
6.11137e-07
-3.95878e-05
2.73632e-07
6.85173e-08
-9.40908e-06
6.9561e-08
9.60112e-07
-8.56859e-07
1.24289e-07
4.50956e-08
1.77669e-06
-0.00598699
2.51064e-06
-2.28631e-08
1.57177e-08
6.86896e-07
-1.16723e-08
-1.80486e-07
6.13083e-08
1.81503e-06
-1.63318e-07
2.32961e-07
1.70188e-06
1.82299e-08
5.79857e-08
6.19629e-08
-0.00110505
1.20109e-07
1.16151e-07
-0.00728931
-3.60936e-07
-2.68065e-07
-0.0447548
-3.29141e-07
-3.09653e-06
1.03747e-07
3.99889e-07
2.16999e-07
-0.00096366
8.59292e-07
-0.00711715
1.61975e-08
-5.82492e-06
-3.26434e-06
-1.29128e-06
1.71776e-06
-1.79977e-07
5.21976e-07
-1.35648e-07
3.49845e-09
-0.00561624
-1.46671e-07
9.27043e-08
2.46867e-06
-8.41187e-07
0.000854584
6.08376e-09
-0.0054899
5.64222e-09
-1.27043e-07
0.000541298
5.41663e-07
0.000304969
3.31389e-09
7.81798e-07
6.08011e-07
-3.27976e-07
1.53131e-07
3.0108e-07
9.48297e-08
3.70549e-07
0.00117892
-3.82673e-05
0.000200719
-3.68725e-07
0.00403405
-2.17158e-06
9.40595e-08
-2.18139e-06
-3.72499e-06
2.69604e-07
5.67844e-07
-5.58311e-08
-3.80977e-07
-4.31157e-08
6.13363e-07
5.55807e-09
1.90262e-06
0.00364295
4.05101e-11
1.33228e-08
1.80492e-07
-5.41471e-07
2.38995e-06
7.82122e-07
0.00353718
1.55744e-06
-2.97736e-08
0.00103371
5.13688e-07
4.88587e-07
-0.00144823
0.000541571
0.000841032
2.03917e-07
0.000855905
-0.00379076
-8.00684e-07
1.26765e-07
-1.11549e-05
1.88591e-07
9.48562e-08
-0.0399037
2.64969e-08
-5.22329e-06
4.07914e-07
9.65366e-08
-6.15421e-06
-0.00385634
1.54563e-07
-3.83724e-05
1.91509e-07
-3.21823e-06
1.06172e-07
-0.0246244
6.05022e-07
2.09793e-07
-0.00345934
-2.19695e-07
2.41437e-06
-0.000198862
1.22725e-07
5.01884e-07
-4.3464e-07
-3.30646e-06
1.84162e-08
5.89565e-08
1.20278e-07
-3.23892e-07
1.16142e-07
5.51014e-08
5.01551e-07
2.1016e-09
1.2499e-08
4.38658e-07
1.24513e-07
0.000380385
-0.00389455
-8.3354e-06
0.0122483
2.0446e-07
-3.31867e-07
-5.0166e-06
-4.53361e-07
-0.00766321
4.07614e-07
2.43275e-07
-5.44356e-07
-7.21116e-08
9.90775e-08
1.18988e-06
-2.32173e-07
0.000309727
2.34657e-07
1.12442e-07
0.00015762
-3.92356e-07
-8.97967e-08
5.88814e-07
1.56323e-07
-1.04122e-06
-0.00232667
-4.11478e-06
7.50755e-08
-3.43122e-08
1.94762e-07
0.0082127
-1.13282e-07
-9.88884e-06
7.11886e-08
2.17524e-05
-3.78863e-07
-1.29807e-06
2.01406e-06
-1.60199e-07
-1.35839e-05
1.62716e-07
0.0118903
1.1595e-07
-7.99344e-09
-2.61593e-08
2.23232e-08
-2.13547e-05
-7.36375e-07
-8.55461e-07
-2.8841e-07
-0.00694868
1.23192e-06
-5.97738e-08
1.576e-07
1.24025e-07
1.09663e-07
-4.1039e-08
2.15172e-07
-1.28379e-06
-4.43505e-05
-2.87829e-06
-4.62295e-08
-0.00382346
-6.24047e-06
1.86402e-06
3.13848e-07
5.9793e-07
0.000565911
-4.74593e-08
-2.95986e-06
3.31275e-06
1.33743e-07
-0.00311933
-1.38317e-07
-6.1781e-07
7.42838e-08
1.03858e-07
-6.05997e-07
1.73136e-06
1.59938e-07
1.11314e-07
1.16214e-07
-2.50059e-05
-1.77209e-05
-2.55363e-07
-1.63172e-06
2.68668e-07
-6.8144e-06
-3.11491e-06
-6.66311e-08
3.44336e-05
-1.18209e-07
1.85861e-07
-2.98954e-06
1.02022e-07
-0.00024584
-0.000726383
-3.4861e-06
-6.60094e-07
2.0899e-06
9.89506e-07
5.04919e-06
-4.19402e-06
1.03008e-07
1.09211e-07
-1.31806e-06
1.43403e-08
-1.34862e-06
-6.51717e-08
1.17791e-07
7.60773e-08
-9.34758e-07
9.75519e-08
-6.38418e-07
-0.000670065
-1.2508e-06
3.66597e-08
1.76675e-06
1.6659e-08
1.12115e-07
1.34273e-07
1.3296e-06
2.37847e-07
1.22198e-06
-0.000459119
-1.36603e-08
-2.12409e-06
4.41441e-07
1.53897e-06
2.27178e-06
9.9636e-08
-4.1129e-08
-3.86682e-07
6.31652e-08
2.10683e-06
-2.40097e-07
0.01465
-2.1801e-07
-3.54285e-06
-9.87745e-07
-4.62008e-07
-2.33175e-07
-4.84489e-08
-5.92521e-07
-2.09221e-06
0.000126441
0.0350371
1.51552e-07
7.79413e-08
-1.85416e-06
1.86658e-06
1.54253e-07
1.14762e-07
1.2029e-07
-2.75697e-06
0.0278092
0.0198271
1.68763e-05
-7.76383e-07
1.33524e-07
2.68151e-06
-1.45721e-07
1.6487e-07
1.52531e-07
8.07739e-08
1.9198e-06
7.08778e-07
0.000106131
-8.76582e-10
0.000939629
2.02651e-07
-1.41628e-07
-1.23215e-06
-6.13428e-06
-3.67859e-05
1.75645e-06
6.21859e-05
2.6682e-07
9.99483e-08
8.15661e-08
2.10134e-06
0.00120272
1.03036e-07
1.5844e-07
-0.000430596
2.40247e-07
9.7446e-08
-7.11421e-06
2.10502e-06
1.15621e-07
2.29349e-07
1.42659e-06
2.07983e-07
1.51423e-06
-2.40059e-07
1.552e-07
2.45899e-07
-0.00769782
0.000423778
-1.84824e-07
1.01886e-07
2.67541e-06
1.2112e-07
-5.0281e-07
-1.02333e-05
0.000484986
-4.29289e-07
7.8499e-08
1.34012e-07
-5.09882e-06
1.74823e-06
2.84038e-05
-6.84407e-08
-9.71485e-09
4.68118e-07
4.94492e-06
1.95262e-07
1.58805e-07
-5.34906e-08
1.43672e-07
1.2643e-06
1.91749e-07
4.9436e-06
-4.86858e-07
4.26573e-07
-2.96229e-07
1.15907e-07
-1.33527e-06
-1.44632e-06
-4.52408e-06
0.00123334
0.000668551
2.22196e-07
-7.3733e-06
-6.63674e-08
1.77701e-07
7.17811e-07
-1.89308e-06
1.4762e-07
-3.71433e-07
-4.61893e-07
-5.23863e-07
9.87731e-06
-6.97013e-06
-2.65393e-05
-3.32076e-06
-4.11788e-08
0.0107285
2.65375e-07
1.175e-07
-0.00043578
1.87513e-07
5.27466e-07
-7.02264e-06
1.47028e-06
1.61574e-07
-4.77779e-06
-0.000685412
-3.27638e-06
-2.13486e-08
7.50892e-08
-3.53508e-06
4.98789e-07
1.55319e-07
0.000713984
-0.000585814
1.15248e-07
-1.96338e-06
-4.49181e-06
7.04707e-08
6.57387e-08
1.65103e-06
-0.0105778
-6.35476e-07
2.26283e-07
-2.26163e-07
-1.4301e-06
1.34103e-07
1.21229e-08
1.11511e-07
-3.98423e-05
0.00126712
-8.11897e-09
-3.39504e-07
1.93695e-07
-5.28009e-06
4.90156e-06
-6.803e-08
8.11657e-07
1.01487e-07
1.27157e-07
0.00643451
-5.82507e-06
2.4643e-07
1.43253e-07
-5.71429e-07
-2.35266e-06
0.00910843
-1.75425e-09
-3.09418e-05
1.53364e-07
-3.79455e-09
-2.08877e-07
5.0268e-07
3.09371e-06
2.42922e-06
4.47041e-07
-8.9062e-07
2.53167e-07
-7.19294e-06
5.81788e-07
-5.418e-07
2.84912e-07
3.02435e-09
1.34998e-07
1.25403e-09
-5.89462e-06
0.00186626
1.51556e-06
-3.01247e-07
-2.73122e-07
2.72883e-07
-6.78461e-08
-8.68362e-07
-2.00599e-06
-1.1104e-07
1.30774e-07
2.80877e-08
7.35222e-08
-2.54151e-06
0.0024834
-9.81136e-06
-2.70758e-06
1.63505e-07
-3.23914e-07
1.58578e-06
2.69138e-07
-0.000263095
0.00642653
1.61542e-07
9.10565e-07
-1.29713e-06
2.434e-07
2.89371e-07
-0.00255507
8.06329e-07
9.23301e-08
0.00133977
1.35023e-07
-2.09647e-05
0.0113445
-1.93922e-07
-2.11075e-08
-0.000617817
1.18512e-07
-4.54615e-06
2.68081e-06
-0.00248246
5.85127e-07
1.41223e-07
1.15894e-07
0.00104504
0.00697623
-0.00238987
-0.000399899
-1.23225e-06
1.1393e-07
7.79629e-07
1.1187e-07
-4.51361e-08
-3.87172e-05
-0.00664243
0.00197348
-0.00242269
4.653e-09
2.36769e-06
2.65289e-06
1.20974e-07
9.10515e-08
4.96049e-07
-7.65296e-07
1.40353e-07
1.16788e-07
0.00210265
9.72947e-08
-0.00238807
3.12062e-08
-5.7537e-06
-4.31491e-06
8.75622e-08
7.86643e-07
-1.85335e-05
1.27186e-07
0.00296182
1.56411e-07
-1.76797e-05
8.45136e-07
2.30687e-07
2.66482e-06
-4.4194e-06
-2.94002e-06
-1.58994e-07
-9.23574e-09
-1.22319e-06
-2.16968e-07
-5.63854e-06
1.58642e-07
-5.70172e-06
9.82634e-08
0.00331667
8.20555e-07
1.89583e-07
-1.06571e-05
-5.30765e-07
2.21384e-06
3.77169e-07
1.00392e-06
2.50832e-06
3.17396e-05
0.0149397
1.16914e-07
-7.67019e-06
-2.11322e-07
1.66345e-06
1.93912e-07
1.36917e-07
0.00440135
6.54967e-08
0.000643059
-1.03834e-08
-3.62486e-07
2.96286e-07
-0.000350773
1.14396e-06
6.84357e-07
1.76533e-07
-1.37553e-06
-0.000957515
-1.9365e-07
1.17652e-07
-2.43429e-05
5.20115e-07
0.00211017
2.22017e-06
-1.67099e-07
1.23876e-07
-2.14886e-07
-5.723e-07
2.93946e-07
-2.29064e-06
-3.09823e-06
-0.0177387
1.90583e-07
-0.00712819
-0.00844609
1.40943e-06
0.00219755
1.28357e-08
-1.11134e-05
0.000334457
-4.33674e-07
-0.000968073
-1.66506e-06
0.00517059
0.000139104
3.06015e-07
-1.97076e-07
-4.69598e-07
0.000226705
-2.63051e-06
-5.78505e-08
1.10868e-07
-1.11344e-06
2.37305e-07
-1.8146e-06
-3.5172e-07
-1.4663e-06
0.00849634
0.000967495
-1.653e-05
0.000325194
5.9843e-07
-0.0127074
8.92402e-07
9.82762e-08
1.37261e-06
0.000205799
-4.63613e-06
-2.2578e-06
-4.80047e-08
-7.00487e-06
1.90002e-07
-7.69562e-08
0.0275108
-5.35735e-07
1.44043e-06
4.44858e-06
1.35536e-07
1.22628e-07
1.55948e-07
3.34327e-07
1.12068e-06
-6.09149e-08
1.8602e-06
2.97146e-06
-6.33877e-06
3.8957e-07
4.15965e-08
2.68683e-07
-0.000545439
4.19954e-08
0.0003013
0.00557347
1.17703e-07
-5.24007e-05
-1.03369e-07
-7.66692e-05
1.12367e-07
-4.60536e-06
0.000172015
6.52128e-07
-0.0121439
3.74653e-07
1.55763e-07
-2.20168e-05
1.07134e-07
1.78953e-08
1.70469e-07
9.7246e-08
1.50345e-06
3.15733e-07
-3.518e-05
-8.65156e-08
0.00239162
1.51684e-06
0.00050024
-0.00104197
1.53429e-07
7.64165e-08
9.92752e-07
-2.29083e-07
-7.01357e-06
8.63484e-08
1.63986e-08
4.47017e-09
-3.50169e-08
1.25505e-07
0.014702
3.32967e-08
-2.32102e-06
5.67623e-07
5.31541e-08
3.97656e-07
-8.76977e-07
-0.000500422
8.29302e-08
-5.76591e-06
2.39294e-07
-4.65162e-08
-0.00547228
0.00925946
-2.53902e-07
7.7289e-05
-4.85189e-08
0.000793686
-1.3774e-06
-4.856e-07
-1.27673e-06
1.24901e-06
0.000273809
-2.91844e-07
-9.27811e-08
0.000386454
9.94764e-07
-1.17923e-05
1.24758e-07
0.000370969
-4.74076e-06
-3.66525e-06
1.54673e-07
1.50699e-07
3.5328e-07
1.77843e-08
1.44418e-07
6.64462e-07
5.98258e-08
0.000127224
1.77122e-06
5.08804e-08
1.42617e-08
2.01649e-07
1.6806e-07
5.54551e-07
-4.84802e-06
-1.31285e-08
1.1542e-06
-1.96968e-07
-2.38164e-07
1.62715e-07
1.1116e-07
2.66985e-06
9.65052e-09
9.64849e-08
-7.17596e-08
1.57023e-07
-8.19874e-07
5.05329e-06
0.00507553
-5.57963e-05
1.4071e-07
9.31515e-08
-4.5381e-06
1.60038e-08
1.1496e-08
5.51162e-06
-1.64289e-05
2.86875e-07
3.98355e-06
1.32752e-08
7.54162e-08
-2.06815e-07
1.77264e-09
-1.0652e-06
9.83082e-08
2.16309e-07
1.37797e-07
1.67753e-07
6.72211e-05
9.80371e-08
2.39648e-07
1.279e-07
-1.03307e-06
-0.00361992
-3.64306e-07
2.89088e-07
4.80328e-07
-1.24959e-08
1.52937e-06
-0.00463845
-2.15199e-07
-0.00142781
2.47517e-07
0.00149998
-1.30101e-07
-1.34134e-08
1.49321e-07
0.000964374
-2.20932e-08
-3.90582e-07
-3.55492e-06
-5.07628e-06
2.60875e-06
1.76087e-07
5.0364e-08
5.85368e-07
6.30489e-08
-5.99946e-07
-6.65568e-06
0.000108358
-1.66587e-06
1.24242e-07
-3.35152e-09
2.08667e-07
1.32769e-07
1.34129e-08
1.80225e-07
-2.29468e-06
2.09982e-06
-5.61728e-06
1.16355e-07
1.21202e-07
2.96449e-06
1.16608e-07
7.4127e-08
-1.76284e-06
4.70095e-07
-7.37937e-06
-0.00603843
1.63556e-06
1.20366e-07
-1.48384e-09
1.3895e-07
1.63487e-07
-0.00561329
-2.59319e-06
-6.92562e-06
-1.42361e-08
1.49861e-07
1.37968e-06
-1.7824e-08
-0.00577113
-6.82861e-05
8.23473e-09
-2.32238e-07
-2.72567e-07
1.415e-07
1.04379e-07
2.50918e-07
0.00135483
1.66739e-07
2.11871e-08
-1.52847e-08
7.193e-08
1.52065e-07
5.54361e-09
-1.26794e-06
7.01429e-08
-2.97758e-06
9.44888e-09
-0.000438589
0.00250329
-1.13914e-06
1.21198e-06
-8.05958e-08
1.19251e-07
-4.76862e-06
0.000256115
1.95293e-07
2.42181e-08
7.08412e-08
-1.32061e-05
-9.61969e-08
1.54656e-06
8.01546e-05
1.20774e-08
3.29301e-07
1.1687e-07
0.0021567
0.000101541
-9.12973e-08
-1.06404e-07
-8.31241e-07
-2.94645e-07
9.73237e-08
-3.25364e-06
8.64613e-08
-4.44873e-08
1.43275e-07
2.64452e-06
-0.000761862
0.000350453
0.00296802
-2.37136e-08
6.65267e-05
1.71253e-06
-7.11451e-07
7.1137e-08
1.34883e-06
2.45824e-07
1.07257e-05
2.45808e-06
2.44399e-07
-2.12888e-08
1.20571e-07
-3.70069e-07
-3.02976e-08
1.11816e-05
0.00077475
2.24899e-08
1.41338e-08
2.66454e-07
-1.52275e-06
2.9303e-08
3.48353e-07
-1.27026e-05
-1.34219e-06
2.72084e-07
0.000312648
-6.17191e-06
-6.09609e-06
1.68682e-07
-2.33133e-09
1.89463e-08
-1.70787e-06
8.87622e-07
-2.82108e-06
9.64413e-08
2.4404e-08
3.21952e-07
-0.00180897
7.17999e-08
1.36972e-07
-2.84495e-06
9.81792e-08
1.00552e-07
1.19138e-07
-0.0104233
2.76359e-09
1.21268e-07
7.29255e-08
1.05516e-05
3.30721e-09
2.78579e-07
-7.23547e-06
1.33612e-07
-5.67283e-06
-1.8607e-08
-1.86529e-05
-2.96514e-06
1.17842e-07
-7.63021e-07
9.74291e-08
9.96073e-08
1.21733e-07
-0.00331603
0.0017658
2.11201e-06
-1.92964e-07
-0.000746656
-5.1785e-06
-1.41294e-06
-6.63569e-06
5.15416e-06
-6.67353e-07
-2.45486e-07
-0.00689162
7.63247e-08
-1.23318e-07
-7.10289e-08
0.020908
-0.0276297
-2.19243e-05
9.68216e-08
-6.30544e-06
-0.000190495
-2.41072e-07
8.26397e-07
1.0233e-06
1.40351e-06
-1.24922e-06
0.000931477
-1.72954e-07
6.66139e-08
1.38865e-06
0.00574537
0.0134287
4.56332e-08
-1.42431e-07
9.0662e-08
0.00916973
-1.32315e-06
-9.83497e-08
-0.00104598
2.34149e-07
3.30348e-06
1.03792e-06
-0.000188837
8.82402e-08
0.00561332
2.02585e-07
-2.93491e-07
1.20572e-07
8.91025e-07
-2.82754e-07
1.02086e-07
1.88888e-07
0.00703093
1.72822e-08
0.0109719
-1.69527e-07
1.31262e-07
-1.55892e-07
-5.93712e-06
8.03228e-08
-1.47971e-07
8.59912e-07
-0.00377481
1.92743e-06
6.47042e-07
1.50524e-07
0.018556
8.3365e-08
-2.63463e-07
1.15452e-07
-7.70137e-05
1.43996e-06
-0.000496959
7.83768e-07
2.35365e-07
-5.31732e-06
-0.00737669
-0.000118813
6.17349e-08
1.14153e-07
-1.59977e-06
0.00348494
-1.91929e-07
-1.88355e-06
-1.40597e-06
-5.61006e-07
9.66438e-08
-6.46893e-08
-1.33236e-06
2.19477e-07
-1.83527e-07
3.37137e-06
2.19833e-06
2.60128e-07
-6.93883e-06
-0.00659616
2.41549e-07
0.000787374
-3.69633e-07
-6.85481e-06
0.00602052
-5.79931e-06
-6.4607e-08
1.40259e-08
9.91982e-08
0.0121841
4.18727e-07
5.27899e-08
-6.12172e-06
3.49555e-08
1.25839e-07
2.08895e-07
2.11849e-07
8.17152e-08
0.0148599
-0.000211169
-4.23101e-06
1.00296e-07
1.54605e-07
-5.38914e-06
-1.07613e-07
0.000194206
-3.01569e-07
8.61291e-08
1.21822e-07
-1.17374e-07
-0.000295153
-2.4326e-06
9.8767e-08
-2.26669e-05
-5.16483e-09
1.83738e-07
-1.57153e-06
0.00661259
0.00114736
1.19662e-07
-3.44595e-07
-0.00123972
0.000223433
-9.4946e-06
1.0055e-06
-1.21216e-06
-1.92837e-05
-2.18487e-08
3.786e-06
-1.05677e-07
-0.00340885
8.29201e-07
1.66977e-07
-1.09178e-06
4.97491e-07
0.0131503
1.10537e-07
-4.59609e-07
-0.00436065
2.15618e-06
6.60441e-05
3.42324e-07
4.23392e-07
-1.79356e-07
-3.82237e-07
6.42658e-09
-8.63891e-07
1.26304e-07
1.94382e-07
4.26588e-07
2.12505e-07
-1.78618e-06
-7.32731e-07
-1.12907e-06
-7.11811e-08
-2.8642e-08
1.35002e-07
-0.000304753
-3.27254e-07
-1.09345e-06
-3.96317e-07
1.15234e-07
1.87028e-07
6.8238e-06
4.04347e-07
2.61871e-08
-1.80657e-08
3.28822e-09
0.0017781
-0.000142399
5.1062e-07
0.013689
-1.19748e-06
-2.39377e-07
1.34908e-07
2.25937e-07
-0.000582624
7.71017e-07
-3.85199e-07
2.13703e-08
-4.25102e-08
-2.17222e-05
-1.40742e-08
-1.521e-08
-1.28448e-05
-6.6458e-09
-9.0428e-07
8.11376e-06
8.41772e-06
-4.41061e-07
-6.8823e-06
0.000560981
2.06626e-07
-1.63572e-06
2.50744e-07
4.74235e-08
6.43629e-08
-2.64494e-06
8.88567e-08
6.16894e-07
-3.12212e-06
-2.51536e-07
-1.06297e-07
0.0338483
2.3e-06
-3.53388e-05
0.000926849
-0.00257521
-9.35656e-06
-1.06215e-06
0.00266429
-0.0187874
1.38177e-08
-1.65247e-06
9.49514e-08
2.06996e-07
-5.53237e-06
1.69466e-07
-0.000317064
1.15772e-06
4.65191e-07
8.81834e-07
1.08316e-07
1.11736e-07
0.0136895
7.62678e-08
2.95348e-08
-0.000673574
-9.98456e-07
3.67271e-07
1.21345e-07
-2.79539e-06
1.47508e-07
1.98616e-07
5.2151e-07
0.000135243
4.50328e-07
-3.04098e-09
4.4214e-08
3.14034e-07
9.76976e-08
2.04544e-07
0.000121579
1.26581e-07
-2.96974e-07
2.19703e-07
1.03729e-08
1.1224e-06
1.14994e-07
1.18054e-07
-6.59676e-06
-2.06203e-07
-3.13536e-07
3.58273e-07
-6.27346e-05
4.3942e-07
1.30521e-07
1.39719e-07
-5.91218e-07
1.88055e-07
2.76112e-07
1.30016e-07
1.36364e-07
6.28791e-08
-4.06928e-07
-1.98869e-07
1.48484e-06
-5.05749e-06
-2.86485e-06
8.33781e-08
0.00013107
1.65151e-07
2.21885e-06
0.0044307
-2.32896e-06
-5.75456e-08
-3.71488e-06
2.9469e-06
1.30025e-07
-0.00041784
-8.74991e-08
-6.19945e-08
1.80213e-07
-6.75172e-06
-3.79871e-07
-1.05518e-07
-4.14432e-09
6.52227e-05
-7.94996e-06
-1.63142e-07
-4.40929e-06
-5.29802e-11
3.63083e-07
1.0541e-07
-3.51049e-06
-3.78891e-07
8.22006e-08
7.6906e-06
4.62329e-07
1.13187e-07
2.78919e-09
5.03661e-08
-5.6802e-07
-7.5685e-09
9.88391e-08
-2.2688e-07
2.93886e-07
-2.84141e-06
-4.4144e-06
4.2075e-08
-7.04281e-07
-9.96067e-08
9.96711e-08
1.77235e-07
-9.78837e-08
1.8417e-07
-5.30976e-07
-1.53821e-07
1.8699e-06
1.64894e-06
-1.69192e-07
-5.00243e-06
-6.66942e-06
5.01258e-08
-1.15682e-06
-5.76132e-06
-8.77835e-07
-0.000106474
4.57465e-09
-3.95173e-06
2.07772e-06
6.49854e-06
4.80679e-06
-2.60043e-07
1.15591e-07
-1.35723e-06
2.81519e-08
-5.81999e-07
-9.69263e-07
-4.72813e-06
1.25632e-07
-1.0198e-07
9.63763e-07
-1.4014e-07
-0.00297461
0.00035415
1.93322e-06
-1.27496e-06
6.04962e-07
4.99438e-07
3.04969e-06
-4.2449e-09
-4.98603e-07
-0.00397184
-0.0211086
-1.95002e-07
3.25942e-06
-5.57375e-07
4.83964e-08
6.13664e-07
-8.19533e-08
0.0203977
-2.70303e-06
-5.41275e-07
2.73532e-08
1.69138e-06
2.14049e-06
7.8903e-08
3.87555e-08
0.00513405
1.42471e-07
8.0031e-08
-1.92062e-05
-3.39357e-06
1.45686e-08
-4.36782e-06
7.88499e-09
1.07446e-06
-3.70926e-06
9.86297e-08
1.22078e-07
-2.27277e-06
-0.00128809
8.42916e-08
3.52065e-07
1.24138e-07
1.0072e-07
9.7031e-08
9.32884e-05
2.037e-07
7.05439e-08
-1.96788e-07
3.60766e-07
3.22618e-07
8.0866e-08
2.15051e-07
-6.95196e-06
9.83737e-08
6.78849e-08
-1.77412e-05
-0.00226322
1.10884e-07
0.00915066
-1.98895e-06
-2.76468e-06
-1.75024e-07
-3.85772e-06
-0.00245193
6.62817e-06
1.96241e-06
-1.71821e-08
3.22453e-07
6.18876e-08
-0.00586078
-2.212e-05
6.76076e-08
3.81236e-07
1.09254e-08
1.72363e-07
0.00651988
6.02951e-08
3.30101e-07
2.97048e-07
1.47908e-05
1.22139e-07
1.76394e-07
-1.47293e-07
-0.00162914
1.47095e-07
-2.7859e-09
1.07358e-08
4.414e-08
2.89837e-07
-2.27393e-06
-3.44225e-07
1.06849e-07
4.80405e-07
2.72133e-07
-1.78378e-08
0.00833815
-1.13101e-07
-3.17922e-07
1.1482e-07
-4.0901e-06
2.18398e-08
7.14768e-08
-5.45362e-07
4.36152e-07
3.98042e-07
3.7101e-08
1.20335e-07
0.000696447
0.00947225
-0.0228646
-0.000229042
-2.75716e-06
7.30538e-07
0.0152187
1.55724e-07
-1.84302e-07
8.42679e-08
-4.36364e-05
-5.07269e-08
3.81712e-07
1.2236e-07
-0.00237196
2.23232e-06
-1.06176e-05
0.0184016
4.44353e-07
3.29155e-06
1.69731e-07
1.97009e-07
0.0320731
-1.1269e-06
1.29455e-07
6.18662e-09
2.72977e-07
-5.66168e-07
1.37799e-07
4.43945e-07
1.51935e-07
6.33967e-07
1.57695e-05
0.00148734
2.13283e-07
-1.93708e-06
0.00424737
-1.39706e-06
-7.34257e-07
-1.13764e-06
2.00795e-07
-9.89759e-08
1.46863e-07
1.10831e-06
6.20486e-07
1.05157e-07
1.00241e-08
1.08816e-07
1.13736e-05
-2.23283e-05
2.25748e-07
9.47114e-08
4.93795e-07
7.53453e-07
1.1227e-07
1.21354e-06
5.54521e-07
-5.78864e-06
1.92023e-06
-5.15355e-05
2.20418e-08
7.85018e-08
1.05017e-07
7.74584e-07
1.33459e-07
9.61843e-08
8.66807e-05
1.20696e-07
0.000530855
-3.67938e-07
8.69144e-08
3.93924e-08
8.41989e-06
5.94735e-07
-2.33443e-06
-3.12474e-07
-3.41128e-08
0.00930677
1.02096e-05
-7.00256e-09
3.54451e-07
-0.0046439
-2.23175e-05
3.81563e-07
7.0818e-08
-4.03811e-07
9.72419e-07
-1.16977e-05
-2.73527e-06
6.13141e-06
-3.40092e-07
-7.18668e-06
0.0118314
3.11275e-07
1.53699e-07
0.0129901
1.19629e-07
0.000580165
3.64385e-07
9.0964e-08
-4.12704e-06
6.52445e-06
0.0100588
1.79249e-05
0.00230638
1.36494e-08
3.3229e-07
-2.92313e-07
1.69424e-07
2.35049e-07
1.74723e-07
1.29518e-07
1.01263e-07
-5.79461e-07
1.93603e-06
6.40033e-06
-1.38493e-06
3.29584e-07
2.79928e-07
1.0644e-07
-4.05201e-07
-6.01822e-08
1.02054e-05
1.0654e-07
1.21034e-07
1.94183e-05
4.43191e-06
6.61362e-06
8.36754e-07
4.91073e-05
7.34489e-08
-1.73841e-06
-4.27168e-07
1.5392e-08
-2.73408e-08
0.0323052
2.02674e-06
1.79942e-06
-8.19911e-09
7.88691e-07
-9.9994e-08
1.00031e-07
1.02206e-06
3.78996e-06
1.32001e-07
-6.22581e-06
1.13193e-08
1.42122e-07
4.57476e-06
-3.65353e-07
-5.68764e-07
1.14515e-05
-0.000440046
-1.45926e-05
2.63715e-08
2.09455e-07
3.2097e-07
4.85796e-06
1.46012e-07
-0.00168555
9.9305e-08
1.10354e-07
1.28796e-07
-5.22873e-06
2.79898e-07
1.45395e-07
3.14823e-08
-6.87635e-06
6.94919e-08
0.000794824
3.00957e-08
-1.12211e-06
3.31153e-08
-7.00689e-07
1.21933e-07
1.12525e-07
0.0027797
-2.75257e-06
2.39353e-08
3.18385e-07
1.19993e-07
-5.36539e-07
0.0228087
0.00258799
1.27166e-08
1.12615e-07
-7.27582e-07
-5.40108e-10
-3.25729e-08
9.86629e-08
1.20669e-07
2.27052e-06
-3.20883e-06
2.51883e-07
-1.45268e-07
-1.17832e-06
5.32387e-07
1.31552e-07
1.34339e-07
9.05979e-06
-9.76264e-09
1.99133e-07
0.00523089
-2.5776e-07
0.0153859
-1.56136e-06
-2.60757e-07
1.23598e-07
1.17894e-07
-1.19383e-05
7.41537e-07
-3.94842e-07
-9.79e-08
2.68237e-06
0.000804347
-4.86855e-07
1.27595e-06
1.34314e-07
7.61573e-08
5.83955e-08
3.5136e-08
-5.50155e-07
1.59523e-07
8.73158e-06
1.92831e-07
1.25072e-07
0.00296265
6.14815e-07
0.00110973
1.1821e-07
7.99756e-06
5.85857e-07
0.000259381
-2.4086e-06
-3.93188e-07
-4.15507e-07
1.91088e-07
-2.05315e-06
-2.38834e-07
0.00077168
9.77168e-08
1.1813e-06
5.84139e-07
0.026347
0.00500554
7.02373e-07
1.40675e-06
9.90365e-08
6.99883e-08
9.63784e-08
5.84309e-07
1.44519e-07
3.54886e-07
1.02773e-07
3.37818e-07
1.09858e-06
0.000182728
1.00037e-07
2.48134e-05
1.98595e-08
9.66547e-08
3.47062e-07
-6.33793e-06
4.43131e-08
5.78976e-06
1.32895e-07
6.71193e-07
0.000551846
9.62933e-08
-4.64083e-08
1.69463e-07
1.22609e-06
1.20346e-06
5.47657e-07
0.010061
-3.0285e-06
-2.24236e-06
2.1605e-07
1.27083e-07
7.65926e-07
1.16178e-06
5.10605e-07
8.54566e-08
8.92597e-08
1.44436e-07
0.00215918
9.70104e-08
-0.00359559
-0.000159782
-3.50703e-06
1.09351e-06
-2.09737e-06
9.11252e-06
5.87044e-07
-0.00802044
1.00542e-07
0.0115235
2.58526e-07
3.03218e-07
-0.000548574
-0.000454016
9.45306e-07
-0.00386116
1.64619e-07
-0.00072436
-2.75268e-08
-0.0293145
1.38554e-08
4.63246e-06
1.36925e-06
-6.8288e-07
9.08558e-08
2.90893e-07
3.86788e-08
-1.39384e-07
0.000184665
3.35702e-07
-0.00211488
3.8383e-07
0.000570262
1.23237e-07
5.68508e-07
3.70466e-07
-3.78229e-08
0.00127928
-4.04052e-07
6.89348e-08
-1.49067e-06
1.01175e-07
0.0020516
1.7617e-07
1.00896e-07
2.09894e-06
-5.64602e-07
9.74896e-08
1.07758e-07
9.328e-07
-5.30245e-09
-3.56309e-06
5.47152e-07
-3.14366e-07
-1.24228e-06
7.12211e-08
6.82143e-07
-3.86958e-06
1.81316e-07
1.10327e-07
1.02438e-07
-8.41757e-07
-2.57684e-09
-4.18409e-05
1.53452e-06
0.00226042
-1.13761e-07
-3.24218e-06
-1.08904e-06
1.08841e-07
5.05649e-07
1.08642e-06
1.18751e-07
0.000253659
4.76473e-07
9.05652e-06
-1.5927e-06
1.51815e-06
-0.00225985
0.0103972
6.78064e-07
-1.43763e-06
-1.00325e-05
0.00921959
-4.07444e-09
1.19305e-07
5.99522e-07
2.74892e-06
-0.00399561
-2.55536e-06
9.5519e-08
4.68157e-08
1.40716e-07
-2.33562e-06
-0.000426553
-5.03557e-07
6.44991e-06
5.17359e-05
1.25171e-07
8.19862e-07
1.07867e-06
2.06639e-07
9.00758e-08
5.72579e-07
-3.15348e-06
-3.91616e-06
8.70141e-08
-1.33104e-06
-0.00670286
4.67637e-07
2.09167e-07
7.35901e-07
1.72585e-07
0.000389362
-0.0045535
-9.14475e-06
1.80467e-07
0.000402508
7.4642e-07
9.93352e-08
0.000141279
-1.59805e-06
1.57549e-06
1.40163e-08
1.41292e-08
0.00265034
-3.22377e-05
1.31327e-07
8.93096e-08
1.05081e-06
0.000135717
1.3968e-06
1.50057e-07
0.016195
1.77917e-07
-1.48798e-06
1.76065e-08
-1.15956e-06
-1.78687e-07
-1.19332e-06
1.38496e-06
1.35867e-07
0.00544037
1.39738e-07
-6.13373e-07
-2.30102e-06
-0.000527798
-2.3903e-06
1.42726e-07
-4.24936e-06
-5.21292e-08
-4.29794e-06
1.99896e-06
1.66673e-06
6.314e-08
6.28593e-07
0.000218276
5.29993e-08
0.000179198
8.74154e-08
4.13092e-05
6.18835e-09
1.43412e-07
0.0131153
-8.57626e-09
1.09408e-05
2.21166e-06
9.62835e-08
0.00328238
0.0213289
9.66097e-08
0.0020532
2.25528e-06
1.00076e-07
4.79903e-07
-7.34013e-05
0.00105066
-2.82555e-08
-5.7485e-09
-2.76713e-06
4.54252e-08
0.021063
-0.00530683
-6.54398e-08
2.52204e-07
9.90117e-08
0.00400143
-2.60602e-06
-0.000495471
5.60242e-09
0.0119089
-3.40875e-07
-3.01319e-07
0.0135731
3.85265e-07
-5.44962e-08
-2.04539e-06
-0.000636276
3.11724e-10
1.4443e-07
2.58407e-08
1.13436e-06
-6.04954e-07
0.00331653
2.56979e-07
2.3557e-07
1.06722e-07
-3.27992e-07
3.80374e-07
4.69347e-06
1.31233e-07
4.02694e-07
-6.60681e-06
-3.03134e-06
-2.03302e-07
-0.00400881
1.74897e-06
6.24844e-07
0.0165319
9.89336e-08
1.21651e-06
1.21795e-07
0.000641548
5.23992e-09
2.13272e-07
-5.89996e-06
-4.37492e-07
1.32478e-07
1.59361e-07
-1.73723e-07
2.40268e-06
-4.11537e-06
1.15311e-07
-3.38146e-09
1.69829e-07
-3.81575e-06
7.05663e-07
1.74151e-08
9.71043e-08
8.46119e-08
-4.43512e-07
-2.11114e-06
-4.0387e-07
4.63618e-07
0.0169594
1.14559e-07
-0.00755602
2.79384e-08
8.79043e-07
-1.13299e-06
2.04381e-06
1.06324e-07
-3.7649e-05
-1.7172e-06
-4.68909e-06
0.00253557
9.38121e-08
9.56202e-08
0.0403199
9.38599e-09
-4.93965e-06
0.0269824
-1.01778e-06
1.259e-07
2.54553e-07
-5.26546e-06
7.16552e-08
5.67892e-07
0.00014989
1.13821e-07
4.97317e-06
2.89727e-06
8.38874e-07
-2.17115e-08
6.77528e-07
-5.54592e-06
-2.12253e-08
1.25907e-07
-0.00748893
7.35817e-08
1.49487e-06
1.2214e-07
6.03367e-08
-0.00435959
-2.70386e-05
6.35444e-07
1.5564e-07
1.47093e-07
1.21104e-06
1.51496e-07
-4.7505e-06
-1.03665e-07
0.0284798
6.13369e-06
7.92128e-07
0.0025219
1.01234e-07
4.49554e-08
5.2615e-09
8.38775e-08
2.40431e-07
1.94489e-07
-6.0304e-07
0.0333232
-2.22447e-10
1.1635e-07
2.08712e-07
3.40933e-08
-0.00205688
1.75699e-07
0.0195026
-8.66516e-05
7.84561e-06
-5.86271e-07
0.000319127
-3.61102e-06
1.02741e-07
4.76247e-07
1.15071e-07
6.6894e-07
-2.8774e-06
-1.6541e-07
0.0394057
8.49197e-09
6.4202e-08
-1.35092e-06
-1.9918e-05
1.73778e-07
1.01548e-07
1.37307e-05
9.40299e-07
1.23221e-05
1.47573e-07
1.00045e-07
5.9622e-07
-2.21463e-05
3.26273e-07
-3.21615e-05
-2.77482e-06
-2.36849e-05
1.0163e-07
6.70638e-07
1.12608e-06
0.000143953
-1.65868e-08
3.84775e-06
1.14455e-07
0.015183
0.00265511
-7.8474e-07
-8.95955e-06
1.33337e-07
6.37665e-07
-7.89781e-07
0.0139822
-4.27411e-05
-1.11997e-06
-1.19769e-06
-0.000488277
-1.99521e-07
1.86228e-06
1.22295e-07
2.61379e-06
-6.87064e-06
1.26996e-05
4.55496e-07
1.96636e-06
-0.000788881
-0.000619715
1.1292e-06
3.32478e-07
0.00171624
0.00222419
8.40756e-08
-3.24313e-06
9.53421e-08
9.96516e-07
-8.35193e-08
1.82764e-07
1.72612e-07
-4.89472e-05
-2.36011e-07
9.89784e-08
-3.519e-06
0.000424418
0.00036827
-7.63491e-06
-0.000735213
9.42256e-08
0.00133372
-4.09584e-06
1.7155e-07
1.22288e-07
0.00266549
-1.43217e-06
1.20973e-07
1.69166e-07
4.13317e-07
9.08605e-08
1.13216e-07
-0.00174239
6.55558e-08
2.10728e-07
1.31208e-07
1.34959e-07
1.43515e-07
-5.75243e-07
0.0366778
-2.63344e-05
-3.75442e-07
-2.90828e-09
2.13933e-06
-0.00370995
3.73616e-07
-3.18634e-08
0.000608661
-4.08643e-05
1.36942e-07
-2.4147e-08
9.49279e-08
1.11491e-07
9.48119e-07
-5.45072e-06
1.10837e-07
6.09433e-07
0.000586082
0.00123503
-0.00633953
-1.49185e-05
-1.22212e-06
0.00119354
2.3404e-07
-8.49253e-08
1.09114e-07
-5.02858e-08
0.000101791
-0.00731653
-1.50895e-06
-1.40649e-05
-0.00693426
4.8675e-07
2.71108e-07
-1.24317e-08
3.39057e-07
-0.00557769
7.06494e-09
1.15271e-06
-2.26726e-05
0.00366719
1.43334e-07
1.48418e-07
0.0157218
5.4203e-07
7.0327e-07
0.00104413
1.14422e-07
8.60802e-08
-1.12207e-06
-0.00396377
-5.80127e-07
4.35802e-07
1.55533e-07
-1.69521e-06
1.92563e-06
-0.00380751
8.90534e-08
1.00379e-07
-1.03094e-06
-4.5312e-07
9.46896e-06
-7.54733e-07
-7.42719e-06
-6.62101e-06
1.19013e-07
-8.89632e-09
-0.00138355
0.00861873
0.000238235
1.02938e-07
1.58839e-07
1.87093e-07
2.12021e-07
8.5031e-08
1.39685e-07
6.39823e-06
2.18606e-07
9.03512e-08
9.2013e-08
-1.75073e-06
-1.34421e-06
3.93021e-07
0.000166475
-4.28869e-06
-2.97245e-06
1.19941e-06
3.72072e-06
-2.446e-06
-6.25594e-07
1.99402e-06
1.46206e-06
1.26081e-07
0.00389541
-2.43601e-06
7.53941e-09
-2.64531e-07
-0.000186511
3.83576e-07
-0.000789102
2.68675e-08
1.67431e-08
2.69326e-06
9.59891e-08
9.39369e-08
1.09093e-07
1.15074e-05
-6.18764e-06
-4.12282e-07
-6.08572e-08
1.45844e-07
0.0220138
-2.88338e-06
0.00205698
3.35922e-08
-1.38283e-07
-2.08153e-07
1.28147e-07
2.86751e-08
9.11572e-08
1.56838e-07
6.80875e-06
0.000962172
2.19951e-06
1.03707e-06
-7.96742e-06
-0.0059069
-6.63605e-06
2.77469e-07
-6.67279e-06
-1.07108e-06
0.00119762
6.2063e-08
9.75782e-08
-4.90438e-06
0.000634846
2.12352e-08
-1.58425e-08
9.34828e-08
3.14582e-09
-6.88095e-06
1.69852e-07
-3.71856e-07
4.93178e-06
1.99831e-08
-3.74005e-05
1.45165e-07
-0.0033282
-2.38859e-07
1.67065e-05
9.62542e-08
-2.01184e-08
9.82254e-08
-3.93239e-06
0.00250077
1.66009e-07
4.69552e-06
-0.000476969
1.35352e-07
4.6577e-08
-2.09592e-06
4.21141e-08
0.00217335
1.1629e-06
-1.15266e-07
-3.82798e-06
-2.91125e-08
-1.86603e-06
-5.66564e-08
2.75582e-07
3.93632e-08
1.42928e-07
-2.75303e-07
9.49718e-08
2.07018e-07
8.71477e-07
-2.79557e-06
1.30554e-06
-6.18182e-06
8.31456e-08
9.76558e-08
-4.4895e-07
-1.53678e-06
3.46027e-07
6.98905e-08
9.84415e-08
1.83706e-07
-1.56496e-06
0.00929814
-1.10108e-06
1.68099e-07
1.26732e-07
9.58161e-08
-5.13957e-07
1.00792e-07
2.32853e-07
-0.00223767
-0.000551301
-2.49853e-06
1.44343e-07
6.35899e-07
1.34741e-07
8.4813e-08
4.03388e-06
1.74335e-08
-4.05642e-06
1.88831e-07
-1.32691e-06
-4.09686e-08
-0.00422295
-3.61603e-07
-3.12931e-06
0.000987515
0.000762816
-0.00102841
6.71723e-07
0.00166846
0.0123775
1.43159e-07
-1.25737e-06
0.00477325
8.95602e-07
1.01848e-07
6.19236e-08
6.87759e-07
-5.15227e-06
-1.48687e-08
4.85147e-07
-0.00489792
-6.28607e-08
1.2247e-07
0.0121526
0.00307001
-4.94425e-06
-0.00124
0.00144201
1.73397e-07
7.09477e-07
-1.26203e-06
-1.15597e-06
0.000319165
2.22915e-07
0.00229796
-1.36502e-05
-2.49234e-08
3.46744e-07
-1.12982e-07
1.89896e-06
-3.10765e-07
0.00170137
2.04512e-08
8.98085e-08
1.68431e-07
-0.00337303
0.00333251
-1.79862e-05
5.62475e-07
-3.82747e-07
-6.55181e-08
0.0111944
-3.52187e-07
2.80507e-07
3.09368e-07
7.9725e-06
9.15646e-08
-4.85871e-06
0.00918056
0.000404615
9.79169e-07
8.45128e-05