/*--------------------------------*- C++ -*----------------------------------*\
| =========                 |                                                 |
| \\      /  F ield         | OpenFOAM: The Open Source CFD Toolbox           |
|  \\    /   O peration     | Version:  v2012                                 |
|   \\  /    A nd           | Website:  www.openfoam.com                      |
|    \\/     M anipulation  |                                                 |
\*---------------------------------------------------------------------------*/
FoamFile
{
    version     2.0;
    format      ascii;
    class       surfaceVectorField;
    location    "200";
    object      Uf_0;
}
// * * * * * * * * * * * * * * * * * * * * * * * * * * * * * * * * * * * * * //

dimensions      [0 1 -1 0 0 0 0];


internalField   nonuniform List<vector> 
27284
(
(0.947127 0.198911 -1.60997e-22)
(0.948936 0.188456 -4.13363e-23)
(0.93969 0.191539 4.50798e-22)
(1.00535 -0.00102195 1.02988e-22)
(1.00539 -0.00106988 1.03161e-22)
(1.00544 -0.00113709 -1.99889e-23)
(1.22487 0.0611384 -6.89097e-21)
(1.22497 0.071915 1.90088e-21)
(1.21236 0.066955 2.44188e-22)
(1.01123 0.00182822 6.55786e-23)
(1.01132 0.00199512 -4.67974e-22)
(1.01141 0.0018136 5.7163e-23)
(1.02802 -0.0157642 -6.4407e-22)
(1.03169 -0.0144947 1.32205e-22)
(1.02794 -0.0114062 0)
(0.959432 0.0514527 -1.06745e-22)
(0.962995 0.0544081 0)
(0.957225 0.0551103 2.60779e-22)
(1.00655 0.00539839 -1.38195e-22)
(1.00624 0.00485547 -4.68846e-22)
(1.00598 0.00513907 8.11696e-22)
(1.02698 -0.0198985 1.24211e-23)
(1.02413 -0.0162875 -2.3326e-22)
(1.0019 5.75926e-05 1.40922e-22)
(1.00292 0.000175269 -6.28582e-22)
(1.00225 0.000112923 -2.33285e-22)
(0.995251 0.0734471 -1.87764e-22)
(0.994857 0.0619007 3.65719e-22)
(0.982565 0.0652395 -8.88592e-23)
(1.01618 0.00475104 1.34463e-21)
(1.01617 0.0060052 0)
(1.01731 0.00511729 0)
(1.12145 0.00365498 0)
(1.1196 0.0047439 0)
(1.12155 0.005901 0)
(1.12351 0.00269987 -1.10772e-21)
(1.12131 0.00142901 7.37907e-22)
(1.02627 0.117244 3.44463e-22)
(1.03186 0.12137 -1.63579e-21)
(1.03205 0.113122 8.59835e-22)
(1.00416 0.000294949 7.36797e-22)
(1.00465 0.000347742 7.01647e-22)
(1.00439 0.000296382 3.30839e-22)
(1.00951 -0.00404728 -4.55489e-22)
(1.00947 -0.00385575 -4.41266e-22)
(1.00971 -0.00404245 -3.86042e-22)
(1.01116 0.00165006 4.43095e-22)
(1.01104 0.00181482 -1.25046e-22)
(1.02498 0.00562629 0)
(1.02577 0.00529292 4.16077e-22)
(1.02558 0.00615881 2.48733e-22)
(1.13773 0.156921 5.45299e-21)
(1.13075 0.163061 -3.3941e-21)
(1.12932 0.153562 5.46994e-21)
(1.01034 -0.00080231 -3.53894e-22)
(1.00977 -0.000901621 -4.9553e-22)
(1.00976 -0.000144342 9.97653e-22)
(0.83854 0.0502693 -4.12388e-21)
(0.848473 0.0538652 0)
(0.841056 0.0620961 0)
(1.02764 0.0122456 -6.31488e-23)
(1.02718 0.0120182 6.62359e-24)
(1.02727 0.012583 -1.59523e-22)
(1.00472 -0.000178055 1.17169e-22)
(1.00476 -0.000222054 0)
(1.00474 -0.000219454 0)
(0.955725 0.0480421 -5.46428e-23)
(0.960582 0.0472783 -8.61742e-23)
(1.00471 -0.000139707 1.00425e-22)
(1.00469 -0.000143529 -5.80501e-23)
(1.0056 0.0127022 2.66275e-22)
(1.00588 0.0120047 -4.80871e-22)
(1.00523 0.0118373 1.1706e-22)
(1.0071 0.00557869 -2.14096e-22)
(1.00772 0.00580537 -6.69167e-23)
(1.00742 0.00523845 -5.94741e-23)
(1.01179 0.00349698 2.55155e-22)
(1.01203 0.00360484 1.66582e-22)
(1.01187 0.00371517 5.54906e-23)
(1.00067 1.4513e-05 1.27102e-21)
(1.00167 3.30567e-05 7.62265e-22)
(1.01677 0.00224323 2.78305e-22)
(1.01641 0.00343848 -1.53259e-22)
(1.01784 0.00284921 1.4203e-21)
(0.914208 0.0935796 -2.80737e-21)
(0.919596 0.0915458 -3.22291e-22)
(0.92136 0.0849774 -3.07315e-22)
(0.975272 0.0166939 1.20049e-21)
(0.978265 0.0190613 -9.06656e-22)
(0.974551 0.020914 5.25394e-22)
(1.01113 -0.0065225 7.47918e-23)
(1.01092 -0.00655902 4.65376e-22)
(1.01122 -0.00679201 4.71435e-22)
(1.01133 -0.00322404 4.71443e-23)
(1.01144 -0.0031274 -9.51633e-22)
(1.01118 -0.0030175 -5.90203e-22)
(1.00732 9.80668e-05 1.99458e-22)
(1.00735 6.99274e-05 1.18006e-23)
(1.00541 -8.07672e-06 -2.70264e-23)
(1.01393 0.0177045 7.31694e-23)
(1.01404 0.0171316 -5.89022e-22)
(1.0145 0.017679 -4.25374e-22)
(1.0557 0.0309072 -1.98109e-21)
(1.05676 0.0302333 -2.13884e-22)
(1.05543 0.0297845 -5.57891e-21)
(1.01339 0.0178093 9.58063e-22)
(1.01388 0.0184574 6.9987e-22)
(1.01724 0.000931409 1.16078e-22)
(1.01562 0.00156309 -6.28101e-22)
(1.02171 0.00982117 -1.81566e-22)
(1.02176 0.00985688 -5.65883e-22)
(1.02171 0.00978457 -2.67662e-22)
(1.01603 0.000183526 -5.34344e-23)
(1.01592 0.000205804 -5.5003e-23)
(1.01436 0.000127607 -9.74802e-24)
(1.01499 0.00430999 -4.22029e-22)
(1.0112 -0.0032909 3.00091e-22)
(1.01108 -0.00336033 -3.30535e-22)
(1.01095 -0.00316711 -8.98465e-24)
(1.00532 -0.000981107 -2.05e-22)
(1.00529 -0.000946203 3.2901e-23)
(1.00537 -0.00105095 -4.41082e-22)
(1.00527 -0.00091646 -1.60368e-24)
(1.10804 -0.0331301 0)
(1.11872 -0.0326642 -3.04616e-23)
(1.10853 -0.032809 0)
(1.01058 0.00511099 9.67147e-24)
(1.0108 0.00527358 -7.44916e-22)
(1.01067 0.00533777 -3.60145e-23)
(1.01037 0.00494444 7.48327e-22)
(1.0105 0.00488879 3.46326e-23)
(0.905117 0.0951961 2.97701e-22)
(1.00873 0.00314992 5.14372e-22)
(1.00872 0.00325659 1.35661e-21)
(1.00848 0.00320194 -1.10748e-22)
(1.0091 -0.000445324 -5.85778e-22)
(1.00819 -0.000324638 5.18076e-22)
(1.00835 -0.000301567 -5.32596e-22)
(0.724654 0.16957 0)
(0.751448 0.149066 0)
(0.7439 0.166293 1.14532e-21)
(1.00906 0.00305816 -9.39543e-23)
(1.00872 0.00302468 7.0338e-22)
(1.04016 0.160682 -2.67776e-21)
(1.04375 0.165756 -2.89926e-22)
(1.04724 0.158096 -1.62398e-21)
(1.01893 0.0036303 4.52632e-23)
(1.01891 0.00343902 1.8955e-23)
(1.01867 0.00349839 1.4486e-23)
(1.01106 -0.000654329 3.95987e-22)
(1.01111 -0.00156274 1.22647e-21)
(1.00898 1.14837e-06 2.77338e-22)
(1.00748 3.74356e-05 1.25218e-22)
(1.00748 3.4973e-05 -2.90806e-23)
(0.824114 -0.212072 -1.15336e-21)
(1.00535 0.0132886 -5.01036e-22)
(1.00607 0.0133621 0)
(0.719396 -0.02329 1.69762e-21)
(0.677514 -0.0252198 1.02731e-21)
(0.663366 -0.0199436 1.60142e-21)
(1.01147 -0.00341533 6.28025e-22)
(1.12209 0.0304339 -6.1741e-23)
(1.12141 0.0280212 6.42373e-21)
(1.11932 0.0301385 2.4363e-21)
(1.03636 0.153623 -1.77667e-21)
(1.03234 0.161458 0)
(1.00733 -0.00519075 0)
(1.00767 -0.00507296 -6.30519e-22)
(1.00754 -0.00556452 0)
(0.963274 0.0378124 -1.65964e-21)
(0.961741 0.042679 -1.29277e-21)
(0.966961 0.0405019 0)
(1.00934 -0.000375068 4.55429e-22)
(1.01017 -0.00049731 1.66596e-24)
(1.01004 -0.000458722 1.05909e-21)
(1.02866 0.0230555 6.63013e-22)
(1.02942 0.0228925 2.96478e-22)
(1.0292 0.023992 2.40163e-22)
(1.05477 0.0315751 -2.11944e-21)
(1.05604 0.0321206 -1.14859e-21)
(1.01273 -0.00325471 -2.13785e-22)
(1.01282 -0.00314791 -5.9668e-22)
(1.01256 -0.00306512 -5.23029e-22)
(0.935398 -0.0169037 1.00161e-21)
(0.92518 -0.0114943 -1.38253e-21)
(0.922601 -0.0185537 -4.5697e-22)
(1.00707 0.00303988 -5.27793e-22)
(1.00726 0.00315591 -3.22481e-22)
(1.00723 0.0031288 -5.30267e-22)
(1.01896 0.00375297 -9.21924e-23)
(1.01918 0.0037052 2.59683e-23)
(0.988158 0.0197192 -1.15861e-21)
(0.985999 0.0173752 2.43479e-21)
(0.989481 0.0166049 -6.01182e-22)
(1.02983 0.00463077 -1.02759e-21)
(1.02862 0.00470702 -7.00558e-23)
(1.02915 0.00567201 -6.0647e-22)
(1.07088 0.0243132 -5.60573e-22)
(1.07842 0.0208419 2.4334e-21)
(1.06873 0.0157358 6.02556e-21)
(1.01249 -0.00343217 2.3166e-23)
(1.01262 -0.00334093 -2.61583e-22)
(1.01234 -0.00323515 -5.76001e-22)
(0.802123 -0.209741 2.96558e-22)
(0.807465 -0.213696 3.14313e-22)
(1.01239 -0.00353527 5.40954e-22)
(1.01269 -0.00364926 6.35806e-24)
(1.00692 0.00291773 4.83387e-22)
(1.00693 0.00292923 0)
(1.07079 0.0334802 0)
(1.06226 0.0267392 0)
(1.02781 0.0234162 -2.55995e-22)
(1.02805 0.0223292 1.52089e-22)
(1.04563 0.0512681 -1.87289e-23)
(1.05275 0.057419 2.69501e-22)
(1.05295 0.0466912 1.46545e-22)
(1.0129 -0.00344901 6.09221e-22)
(1.02417 0.0250894 -2.02847e-23)
(1.02478 0.0259673 4.26377e-22)
(1.02376 0.0261025 5.67481e-23)
(1.01052 0.0723438 1.99332e-22)
(1.01143 0.0756414 -1.13084e-22)
(1.00782 0.0738218 3.12237e-23)
(1.00268 -0.000103553 8.19398e-23)
(1.00251 -0.000147346 -4.20492e-22)
(1.00157 -6.39258e-05 4.60872e-22)
(1.0069 0.000533397 9.65274e-24)
(1.00591 0.000408184 -2.12036e-22)
(1.0056 0.000385124 2.83245e-22)
(1.02901 0.0641851 -4.41697e-22)
(1.03094 0.0624643 6.62853e-22)
(1.03147 0.0653052 -4.40649e-22)
(1.00768 0.00401109 -1.93527e-22)
(1.00756 0.00387761 3.02303e-22)
(1.00764 0.00387538 6.37888e-23)
(1.02654 0.0628586 0)
(1.02667 0.0657216 0)
(0.97632 0.151837 0)
(0.979403 0.157396 0)
(0.864532 0.0360098 5.59304e-21)
(0.874239 0.0298982 2.40726e-21)
(0.87488 0.0420881 2.18713e-21)
(1.03831 0.0543937 0)
(1.03796 0.045722 0)
(1.00866 0.00335947 2.05423e-22)
(1.009 0.00332913 9.83784e-22)
(0.893233 -0.0888309 0)
(0.880762 -0.0686266 0)
(0.89399 -0.0813558 5.45336e-22)
(1.00709 -0.00876398 -3.73613e-22)
(1.00687 -0.00946317 5.63448e-22)
(1.00648 -0.00864161 -5.25726e-23)
(1.00801 0.00346661 8.14026e-22)
(1.00809 0.0034202 5.25651e-24)
(1.00794 0.00329612 5.96543e-22)
(1.00733 -0.00817676 -1.70069e-21)
(1.00769 -0.00878503 -3.33437e-22)
(1.093 0.0944855 0)
(1.09328 0.0994399 0)
(1.08883 0.0957864 0)
(1.02565 0.0114131 -3.27365e-23)
(1.02601 0.0115902 -1.32215e-22)
(1.02575 0.0118026 -2.61911e-22)
(1.01032 0.0693516 3.58114e-22)
(1.01392 0.0711004 4.38271e-22)
(1.00678 0.00280778 2.8284e-22)
(1.00692 0.00291738 4.76289e-22)
(1.00857 0.00342415 -1.61428e-21)
(1.0084 0.0033421 -1.49183e-21)
(1.01286 0.000717194 0)
(1.01298 0.000783477 5.7757e-24)
(1.01295 0.000698797 -2.69284e-23)
(1.02714 0.0236153 -3.66838e-22)
(1.0263 0.0238076 0)
(1.02658 0.0228599 0)
(1.00958 -0.00425514 3.48604e-22)
(1.00931 -0.00405549 9.16759e-22)
(0.958953 0.0351244 -2.2057e-21)
(0.96456 0.0329558 4.00945e-22)
(0.909468 -0.110269 9.06123e-23)
(0.896173 -0.0985501 -2.658e-22)
(1.04428 0.0491046 1.78174e-21)
(1.04355 0.0506307 -1.51654e-21)
(1.04573 0.0503679 3.06196e-22)
(1.01016 -0.00381709 -1.0443e-22)
(1.01043 -0.00398242 -4.44585e-23)
(1.01027 -0.00372459 -1.09661e-23)
(1.0102 3.22315e-05 -9.0026e-23)
(1.01011 2.79276e-05 4.41804e-22)
(1.00686 -0.000135409 2.21682e-22)
(1.00489 -7.02142e-05 -3.61051e-22)
(1.00676 -0.000150009 -4.14982e-22)
(1.00195 0.00644977 1.10168e-21)
(1.00003 0.00735659 -5.4192e-22)
(1.00254 0.00861795 1.44734e-21)
(1.02361 0.0241716 0)
(1.02453 0.0241063 -1.26518e-22)
(1.00233 -0.0416296 -5.65464e-22)
(1.05257 -0.0389892 5.67459e-21)
(1.01339 -0.0392013 -1.63986e-21)
(1.00941 0.0188495 -1.75023e-21)
(1.01058 0.0196711 -7.10632e-22)
(1.01069 0.0181634 0)
(1.00665 0.00268588 -5.11225e-22)
(1.00664 0.00267659 -2.29073e-22)
(1.07092 0.0433172 -1.71851e-22)
(1.07986 0.0407518 -3.5502e-23)
(1.02556 0.0178174 -1.69083e-22)
(1.02499 0.0179277 1.40798e-22)
(1.02513 0.0172419 1.89316e-23)
(1.03006 0.0223931 -1.33957e-21)
(1.03052 0.0232003 5.51283e-23)
(0.945252 -0.021284 0)
(0.945297 -0.0147665 0)
(1.22174 0.0533411 1.87793e-21)
(1.23203 0.0559923 -4.61485e-21)
(0.97522 0.144035 -2.17481e-22)
(1.02796 0.071961 -1.86402e-22)
(1.0257 0.0741845 -2.10689e-22)
(1.02925 0.0754587 1.7985e-23)
(1.06845 0.0539348 -1.60202e-22)
(1.06312 0.0440015 4.52783e-21)
(1.09381 -0.0360256 -1.61264e-21)
(1.055 -0.034581 -4.55406e-21)
(1.07601 -0.0354879 -1.48131e-21)
(1.00676 0.00602441 -5.74565e-22)
(1.0111 0.00146972 2.23605e-23)
(1.01127 0.00148284 4.23933e-22)
(0.945382 0.209176 1.01647e-21)
(0.955565 0.205767 -8.93425e-22)
(1.02601 0.00949669 0)
(1.02619 0.00979416 -3.82046e-22)
(1.02578 0.00969788 3.18291e-22)
(1.00792 0.00349953 -2.14604e-23)
(1.00807 0.00363163 1.61437e-22)
(0.692006 0.18981 1.52112e-22)
(0.70227 0.170483 3.42867e-22)
(1.0185 0.00634894 1.01023e-22)
(1.01829 0.00618508 0)
(1.01853 0.00620324 7.2582e-23)
(1.11407 0.0683383 -1.90553e-22)
(1.11737 0.0668904 3.32506e-21)
(1.11635 0.0709609 -9.96406e-22)
(0.972069 0.10564 -7.5945e-22)
(0.976212 0.104448 -1.65358e-22)
(0.974523 0.110157 -1.30752e-22)
(1.00734 0.00374251 2.47672e-22)
(1.00743 0.00386593 -9.29708e-22)
(1.00738 0.00385405 1.39983e-22)
(1.14531 0.158948 0)
(1.14291 0.149917 0)
(0.922621 -0.0395128 6.15177e-22)
(0.921247 -0.0326429 2.15317e-23)
(0.90493 -0.0358904 9.52026e-24)
(1.01418 0.0011335 -1.90264e-22)
(1.01436 0.00118544 2.15043e-22)
(1.01426 0.00133412 1.71467e-22)
(0.855968 0.0458098 0)
(0.85448 0.0323038 -2.13248e-21)
(1.04458 0.0281895 3.25962e-21)
(1.04494 0.0273556 1.52761e-21)
(1.04554 0.0284282 1.9548e-21)
(1.0322 0.0204919 -2.66054e-22)
(1.02874 0.0224723 -3.25385e-22)
(1.03271 0.0248011 -3.04936e-22)
(1.00963 0.0050318 1.63265e-22)
(1.00958 0.00481848 -3.59027e-24)
(1.00945 0.00487542 1.87549e-22)
(0.770722 0.196812 -4.51675e-22)
(0.75993 0.189508 -3.37081e-22)
(0.968828 0.100555 0)
(0.966548 0.106749 -1.50081e-21)
(1.01617 0.000319267 4.82146e-23)
(1.01664 0.000350513 0)
(1.01651 0.000383167 0)
(0.640657 -0.040233 0)
(0.632 -0.0461093 0)
(0.685933 -0.0402422 -1.44429e-21)
(1.01643 0.00154217 -2.8563e-23)
(1.01621 0.00147177 -1.35388e-23)
(1.01614 0.00158526 3.33589e-23)
(1.00139 0.0041267 -1.36849e-21)
(1.00372 0.00539259 -8.62313e-22)
(0.975354 -0.104566 1.67373e-22)
(0.964541 -0.109323 3.63784e-22)
(0.967706 -0.100017 1.49885e-21)
(1.0117 0.00329937 -3.57413e-22)
(1.01156 0.0034015 -2.13858e-22)
(1.03072 0.0219564 -6.13622e-22)
(1.02971 0.0217163 -1.90095e-23)
(1.00987 -0.00385788 0)
(1.00972 -0.0040227 5.80463e-22)
(1.00945 -0.00396266 5.82893e-22)
(1.01288 0.0164373 3.21361e-22)
(1.01483 0.0164711 2.17332e-24)
(1.01348 0.0146204 0)
(1.0112 -0.00354333 0)
(1.01094 -0.00342095 0)
(1.00443 -7.14019e-05 -6.75448e-22)
(1.00455 -8.97751e-05 2.5823e-23)
(1.00454 -7.20388e-05 -2.59891e-22)
(1.0109 0.00143885 -3.96193e-22)
(1.01098 0.00125601 -1.3425e-22)
(1.00283 -0.000150619 0)
(1.0035 -0.000314403 0)
(1.00978 0.00512896 0)
(1.0097 0.00518734 0)
(1.00419 -5.56186e-05 -7.01203e-22)
(1.00419 -7.90683e-05 -2.60552e-22)
(1.02301 0.00525651 -1.1442e-22)
(1.02363 0.00473006 0)
(1.02287 0.00438755 5.42272e-22)
(1.01846 0.00648892 9.96241e-23)
(1.01871 0.00649975 9.47755e-23)
(1.0101 -0.00394206 3.59127e-22)
(1.00996 -0.0036906 -1.51281e-22)
(1.02069 0.019403 2.90462e-22)
(1.02313 0.0184306 -5.82828e-22)
(1.02077 0.0166435 -9.1984e-22)
(1.02617 0.00330752 0)
(1.02721 0.00292575 -9.30266e-22)
(1.02628 0.00206144 3.11478e-22)
(1.00794 0.0418187 3.58048e-21)
(1.01075 0.0493697 9.46557e-22)
(1.01679 0.0433424 2.27163e-21)
(0.645957 -0.0338042 4.91236e-22)
(0.59639 -0.0387203 0)
(0.918478 0.198384 4.39698e-22)
(0.907696 0.201329 3.30141e-22)
(0.911987 0.189884 4.73695e-22)
(0.5818 -0.00730346 -1.26004e-21)
(0.57299 0.0245572 -7.30169e-22)
(0.580975 -0.00476168 -3.56114e-21)
(1.04409 0.0292535 -1.00558e-22)
(1.04352 0.0280773 -1.02983e-22)
(1.00761 -9.21997e-05 1.91279e-22)
(1.00768 -0.000105847 -3.08819e-22)
(1.00541 -5.43183e-05 -8.3339e-23)
(1.11155 0.0650984 4.63094e-22)
(1.11011 0.0690484 5.12699e-21)
(1.0038 -0.000202122 3.13351e-22)
(1.00373 -0.000222706 -1.80802e-23)
(1.00239 -0.000108762 -4.243e-22)
(0.897779 0.0951139 0)
(0.908316 0.0843983 0)
(1.00784 1.74026e-05 -4.09144e-22)
(1.00782 3.12439e-05 -1.39895e-22)
(1.00572 9.53433e-06 1.13668e-23)
(1.01557 0.000239159 -1.8079e-23)
(1.01539 0.000244138 1.12494e-22)
(1.0068 -0.000107049 5.00501e-22)
(1.00821 -0.000248615 7.99009e-22)
(1.0138 0.00122475 -1.73313e-23)
(1.01379 0.00129874 -2.52975e-23)
(1.01397 0.00127908 -2.26748e-23)
(1.04393 0.0105719 4.28506e-23)
(1.04481 0.0106765 -9.10569e-22)
(1.04424 0.0112243 1.10853e-21)
(1.01542 0.0335285 -3.03987e-22)
(1.01693 0.0339101 3.49797e-23)
(1.01561 0.0353005 -3.0883e-23)
(1.00213 -0.00012872 -4.69486e-22)
(1.00221 -0.000125975 -2.28794e-23)
(1.00118 -7.89467e-05 8.57893e-22)
(1.0061 0.0342121 -1.47844e-21)
(1.00069 0.0383109 -5.85589e-22)
(1.02694 0.0112554 -2.03151e-22)
(1.02651 0.0111055 0)
(1.02675 0.0108209 3.84849e-22)
(1.01232 0.00440087 2.72675e-22)
(1.01254 0.00453475 5.12374e-23)
(1.01245 0.00429058 -1.18924e-23)
(1.01536 0.0249741 5.64032e-22)
(1.01354 0.0201676 0)
(1.01875 0.0207225 2.75032e-22)
(1.00844 0.00349697 -1.01497e-21)
(1.00875 0.0035238 8.17163e-23)
(1.00205 -5.35572e-05 3.67759e-22)
(1.00171 -7.03374e-05 4.13837e-22)
(1.0027 -5.18299e-05 -2.2601e-22)
(1.02425 0.0612292 1.61953e-22)
(1.02179 0.0625091 8.66411e-23)
(1.02195 0.0595991 1.57388e-22)
(1.01846 0.000978308 -2.58881e-23)
(1.0184 0.00085899 1.41003e-23)
(1.01826 0.000937749 0)
(1.00803 0.00641956 -1.07986e-22)
(1.00832 0.00595914 -3.03699e-22)
(1.10362 -0.0350962 1.14724e-21)
(1.11693 -0.0357914 1.3971e-22)
(1.09369 0.0901294 0)
(1.09729 0.093948 0)
(1.00533 -0.000968041 1.00827e-21)
(1.00531 -0.000938784 4.55331e-22)
(1.00527 -0.000863222 0)
(1.01602 -0.00440124 1.29011e-22)
(1.01594 -0.00457809 -4.61669e-23)
(1.01632 -0.00465702 -4.17419e-23)
(1.01752 0.000140568 1.58602e-23)
(1.01742 0.00011911 6.85603e-23)
(1.01752 7.744e-05 4.726e-23)
(0.985441 -0.0391225 2.80006e-22)
(1.05031 -0.0335245 4.531e-21)
(0.995354 -0.0398416 -3.91508e-22)
(1.00967 -0.000522651 0)
(1.00976 -0.000530536 0)
(0.92042 0.228696 -6.96556e-23)
(0.92294 0.217485 -7.7134e-23)
(0.911309 0.220963 -3.32172e-22)
(1.00535 -0.00100559 4.43619e-22)
(1.00543 -0.00111816 0)
(1.01823 0.120135 2.16605e-22)
(1.02084 0.112752 9.0984e-22)
(1.00827 0.00350648 1.17238e-22)
(1.00819 0.00342177 2.85727e-22)
(1.02688 0.0103073 -2.68344e-22)
(1.02683 0.00965579 3.50583e-22)
(1.02623 0.00999841 -5.45739e-22)
(1.01787 -0.00042953 -1.4118e-21)
(1.01886 0.000422142 5.4414e-22)
(1.00198 -0.000133009 1.0044e-22)
(1.00224 -0.000141451 8.14758e-22)
(1.00296 -0.000162197 -4.11135e-22)
(0.929321 0.194845 2.84925e-22)
(0.926033 0.206681 -1.95409e-22)
(1.02598 0.00824557 3.36631e-22)
(1.02608 0.00800085 1.08711e-22)
(1.02638 0.00825564 4.12726e-22)
(0.591531 -0.0394954 4.97595e-23)
(0.584625 -0.00589078 -1.62751e-21)
(1.0122 0.00446564 -1.05482e-22)
(1.01215 0.00424033 -4.28018e-22)
(1.01156 -0.00643606 -3.92764e-22)
(1.01149 -0.00618474 -8.00475e-22)
(1.01181 -0.00638165 -1.3779e-21)
(1.00979 -0.00451103 8.52659e-22)
(1.00942 -0.00456193 2.95008e-22)
(1.00937 -0.00438276 7.19947e-22)
(1.02256 0.00921738 1.27188e-23)
(1.02244 0.00899779 2.40921e-23)
(1.02233 0.00910677 7.87861e-23)
(0.968003 0.0308578 -2.36852e-24)
(0.965144 0.0335116 -3.45275e-22)
(0.970094 0.0340305 3.43254e-22)
(1.00981 -0.00267388 3.00125e-22)
(1.00955 -0.00226679 -1.19627e-21)
(1.01036 -0.00204606 -5.10958e-22)
(1.01002 -0.0030255 5.35727e-22)
(1.0094 -0.00314528 -3.96377e-23)
(1.01672 0.00144201 -3.77419e-23)
(1.01669 0.00159622 -5.14523e-23)
(0.888759 0.0947922 0)
(0.885966 0.10705 5.81219e-22)
(1.01392 0.0326715 4.38037e-22)
(1.01532 0.0316158 -2.79634e-22)
(1.05458 0.022399 2.04377e-21)
(1.05375 0.0218197 6.99679e-22)
(1.05371 0.0228269 1.78972e-21)
(1.02585 0.00850558 1.34099e-22)
(1.0257 0.00872741 3.24229e-22)
(1.02613 0.00877517 4.99446e-22)
(1.0104 0.00549554 2.07653e-22)
(1.01028 0.00557436 -8.22822e-23)
(1.01052 0.00573945 1.80687e-22)
(1.04517 0.0473196 0)
(1.04295 0.047669 -6.92862e-22)
(1.01654 -0.00337133 -3.96593e-23)
(1.01658 -0.00317728 4.92807e-22)
(1.01624 -0.00317739 2.05009e-22)
(1.03525 0.0612052 -6.78664e-22)
(1.03293 0.0605595 1.25007e-21)
(1.0346 0.0586154 0)
(1.02177 -0.0213351 4.71444e-22)
(1.02425 -0.0215321 2.63051e-22)
(1.0224 -0.0192561 1.07732e-21)
(0.983513 -0.0123917 -2.20741e-22)
(0.979986 -0.0138126 -8.93741e-22)
(0.984271 -0.0159389 5.1672e-22)
(0.998284 0.00436099 1.00586e-21)
(0.999388 0.00472595 -2.83418e-22)
(0.998444 0.00584769 2.74986e-22)
(1.01649 -0.00354907 -5.26564e-22)
(1.01641 -0.00373239 0)
(1.01612 -0.00352338 0)
(0.923698 -0.0464044 0)
(0.937497 -0.0412367 0)
(0.961374 0.165269 3.27356e-21)
(0.952376 0.168559 8.67118e-22)
(0.953653 0.159248 5.87352e-22)
(0.996601 0.0269998 1.10033e-21)
(0.994488 0.0254122 9.03975e-22)
(0.997141 0.0243224 2.59974e-22)
(1.00349 0.00239231 1.53771e-22)
(1.0037 0.00205415 1.59509e-22)
(1.00335 0.00179682 3.28741e-22)
(1.02767 0.0243638 -5.28733e-23)
(1.02294 0.0475083 -5.71817e-23)
(1.01412 0.0447553 -1.29027e-22)
(1.0125 0.0560477 2.96242e-22)
(1.01686 -0.00357831 -2.59447e-22)
(1.01807 0.0202423 6.01608e-22)
(1.02008 0.0224346 4.8815e-22)
(0.986669 -0.0111444 2.28367e-21)
(0.983114 -0.00900096 -9.00114e-22)
(1.0375 0.00769359 0)
(1.0374 0.00707381 3.50648e-23)
(1.03684 0.00744276 0)
(1.08139 -0.0349163 0)
(1.05858 0.0138706 1.94767e-21)
(1.05949 0.0137381 1.8695e-21)
(1.05871 0.0129874 -1.01043e-21)
(1.01003 -0.00335655 0)
(1.01059 -0.00300141 0)
(1.00548 -0.00118034 -3.94378e-22)
(1.0054 -0.00106657 6.59335e-22)
(1.00546 -0.00116275 -3.82755e-22)
(1.04311 0.0105612 -8.74422e-22)
(1.04362 0.0099646 0)
(1.01001 -0.00361445 0)
(1.00957 -0.00361173 8.64472e-22)
(0.998455 0.0283781 8.87502e-22)
(1.00061 0.0295758 0)
(1.00095 0.0270272 2.43431e-22)
(1.02555 0.00824758 2.05583e-22)
(1.01892 0.00327586 4.74602e-24)
(1.01892 0.00311375 2.01852e-23)
(1.01867 0.00315421 -1.7887e-23)
(1.01085 0.00466144 7.63265e-22)
(1.01074 0.00474116 -4.59945e-22)
(1.01065 0.00451391 -1.80872e-22)
(0.970461 0.0285358 7.4868e-22)
(0.966171 0.0271968 0)
(0.962451 0.0369918 -3.02068e-22)
(0.961088 0.0399116 4.19799e-22)
(0.965455 0.0396132 -4.05364e-22)
(1.00725 0.0032553 5.73132e-23)
(1.00744 0.00342142 -1.14908e-21)
(1.00717 0.00329104 -4.20732e-22)
(1.00697 -0.00540221 -5.90673e-22)
(1.00715 -0.00469249 -3.29077e-22)
(0.960296 0.0330231 6.04407e-22)
(1.17178 0.0310528 6.68957e-21)
(1.1744 0.0267481 4.89357e-21)
(1.16862 0.0268938 1.14172e-20)
(1.02038 -0.0235272 8.86159e-22)
(1.01945 -0.0210151 -4.56416e-22)
(1.01364 0.00116459 1.79152e-23)
(1.0138 0.00114843 -1.03937e-23)
(1.0325 -0.0192451 1.20584e-22)
(1.03485 -0.0171485 7.46631e-22)
(1.03175 -0.015849 -2.69713e-22)
(1.05857 0.014891 2.98522e-21)
(1.05779 0.0141504 7.05817e-22)
(1.0158 0.0005551 3.16032e-22)
(1.01517 0.000438182 7.58103e-23)
(1.01546 0.00055398 9.41236e-23)
(0.998352 0.00289049 9.09617e-23)
(0.997064 0.00379917 7.32465e-24)
(1.00715 0.00284318 2.30292e-23)
(1.00727 0.00293811 1.48291e-22)
(1.00721 0.00280282 -6.79929e-22)
(0.98483 -0.0977377 -4.81273e-22)
(0.983502 -0.105228 -8.36709e-23)
(0.985512 -0.032294 -3.87579e-22)
(0.985732 -0.037272 5.8783e-22)
(0.979752 -0.0357272 1.72957e-21)
(1.09184 0.0869561 -2.84658e-21)
(1.09129 0.0831743 7.85705e-22)
(1.08804 0.0866197 -1.24788e-23)
(1.07104 0.0218405 2.31033e-21)
(1.07175 0.022461 -4.36167e-21)
(1.07213 0.0214168 4.89708e-21)
(1.01678 -0.0013746 9.25362e-22)
(1.01858 -0.00179628 0)
(0.98305 0.0160358 3.2578e-22)
(0.983121 0.0188157 3.85333e-23)
(0.985423 0.0172974 -9.72967e-22)
(1.03062 0.0133794 -9.28211e-22)
(1.03138 0.0166197 -2.70098e-22)
(1.02801 0.0153119 5.04533e-23)
(1.09352 0.103883 0)
(1.08942 0.10614 1.92822e-22)
(1.09408 0.10953 -4.08854e-21)
(1.00704 0.00275479 2.8094e-22)
(1.00711 0.00288494 2.15139e-22)
(1.01917 0.00339435 -1.36873e-23)
(1.00968 0.00627194 -4.29679e-22)
(1.00941 0.00677793 6.00858e-22)
(1.00899 0.00613671 -2.41305e-23)
(1.01078 -0.00402658 3.73092e-22)
(1.01065 -0.00410411 7.9858e-22)
(1.01091 -0.00423275 -1.44713e-22)
(1.02683 0.0109247 2.78038e-22)
(1.02756 0.0106417 6.03249e-22)
(1.05538 0.0229637 8.40326e-22)
(1.05542 0.0219326 0)
(1.01076 0.00302368 0)
(1.01097 0.00311577 2.69383e-22)
(1.0109 0.00291569 1.44627e-22)
(1.02306 0.00909279 0)
(1.02319 0.00896152 7.06734e-23)
(1.0233 0.00921795 0)
(1.04623 0.0113685 -7.513e-23)
(1.04435 0.00986585 -3.36968e-22)
(1.04388 0.012564 1.53399e-22)
(1.00725 0.00362662 -2.25071e-22)
(1.0073 0.00363158 6.92447e-22)
(1.00916 0.108626 4.78093e-22)
(1.01044 0.113247 3.26544e-22)
(1.00553 0.111535 3.14992e-22)
(0.856362 0.0680545 -7.19085e-21)
(0.867876 0.0403248 7.66136e-22)
(1.04249 0.00841611 -1.11104e-21)
(1.04026 0.00741813 1.07598e-21)
(1.04038 0.00985785 -1.13454e-21)
(1.0228 0.00934288 4.47084e-23)
(1.02267 0.00945093 -8.72452e-24)
(1.00716 0.0167725 5.28118e-22)
(1.00837 0.0179328 4.05022e-22)
(1.00855 0.0161559 8.97643e-22)
(1.01066 -0.00382573 0)
(1.01092 -0.00395379 0)
(1.0361 0.0634864 -7.08224e-22)
(1.03701 0.0663523 -1.07511e-23)
(1.03421 0.065987 0)
(1.02596 0.00716449 -4.60353e-22)
(1.0256 0.00718088 2.99621e-22)
(1.02567 0.00690667 2.43073e-22)
(1.01211 0.0328339 6.93293e-22)
(1.01005 0.0331408 -1.71559e-22)
(1.0118 0.0347763 -4.14902e-22)
(1.01664 0.00025299 4.40814e-23)
(1.0159 0.000170791 7.59539e-23)
(1.01255 0.0313708 2.85968e-22)
(0.89683 -0.139329 -1.2413e-23)
(0.893136 -0.138814 3.80302e-22)
(1.01133 -0.0064749 3.2736e-22)
(1.01105 -0.00626531 -2.50322e-22)
(1.08503 0.046937 -4.75505e-21)
(1.08481 0.0451137 -1.75109e-21)
(1.08673 0.0460418 8.69504e-22)
(1.02728 0.0175157 -4.04311e-22)
(1.02714 0.018194 4.80318e-22)
(1.0267 0.0175715 4.45198e-22)
(0.998225 -0.00170581 6.02264e-22)
(0.997595 -0.00278988 3.44327e-22)
(0.996971 -0.00146969 -3.42706e-22)
(1.03308 0.0109575 1.80241e-21)
(1.0296 0.0102413 -2.42591e-22)
(1.00384 0.000258317 -6.72082e-22)
(1.00348 0.000211768 3.24925e-22)
(1.01612 -0.00423446 5.55084e-22)
(1.01576 -0.00416786 -4.33652e-22)
(1.01281 0.105627 1.58965e-22)
(1.00813 0.104234 -1.52328e-22)
(1.02293 0.00922921 3.17077e-23)
(1.02282 0.00897553 0)
(1.03536 0.0182708 0)
(1.05775 0.0296081 1.01079e-21)
(1.05761 0.0284521 1.65909e-21)
(1.05888 0.0289296 -7.76484e-22)
(0.851493 0.0421563 -4.12153e-21)
(1.04526 0.0669422 0)
(1.04348 0.0693083 -1.07694e-21)
(1.04249 0.0662999 0)
(1.09623 0.0864606 3.24201e-22)
(1.02639 0.00777218 5.2386e-22)
(1.02721 0.0078928 1.35656e-22)
(1.02658 0.00842145 1.15451e-21)
(1.04809 0.0132626 6.32419e-22)
(1.04845 0.00980444 -5.10229e-22)
(1.00822 0.00317131 1.2594e-22)
(1.00808 0.00327065 8.48434e-22)
(1.00827 0.00322377 2.60314e-22)
(1.0554 0.0115633 7.34578e-22)
(1.05481 0.0122257 -4.58708e-21)
(1.05456 0.0112262 -1.12978e-21)
(1.07036 0.0207896 -4.67714e-21)
(1.06983 0.0219384 1.84831e-21)
(1.08564 0.0489208 -3.9356e-22)
(1.08355 0.048008 -4.05097e-23)
(1.00889 0.0234549 -5.2153e-22)
(1.01485 0.0273257 1.72186e-22)
(1.01494 0.0197948 0)
(1.13428 0.0325866 -4.82197e-21)
(1.1601 0.0460755 -5.01755e-21)
(1.10712 0.0307267 8.01307e-21)
(1.01188 0.00715136 -7.50006e-22)
(1.01207 0.0073411 1.22856e-22)
(1.01179 0.00725053 -5.20153e-22)
(1.01196 0.0244777 -3.4473e-22)
(1.01309 0.0251208 1.13695e-21)
(1.01199 0.0258141 2.94403e-22)
(1.0337 0.148037 -1.72489e-21)
(1.03104 0.142196 -1.83795e-22)
(1.02707 0.147605 8.99925e-22)
(1.00597 0.0159733 1.59513e-22)
(1.00579 0.0177613 -3.29042e-21)
(1.01201 0.00701395 8.70312e-23)
(1.01172 0.00690867 -1.83456e-22)
(1.01023 0.00499464 4.01762e-22)
(1.01016 0.00477662 -5.69027e-23)
(1.01131 0.00434092 2.14024e-22)
(1.01118 0.00442713 -7.29787e-23)
(1.0111 0.00419043 -8.4832e-23)
(1.09422 0.028006 1.25856e-21)
(1.09444 0.0266985 -4.5563e-21)
(1.09556 0.027645 0)
(1.16113 0.0356153 -8.882e-21)
(1.10826 0.0190926 -8.4199e-21)
(0.901204 0.0122455 -1.55724e-20)
(0.922102 0.0319627 -2.26468e-21)
(0.961249 0.0398428 -1.08742e-20)
(1.00415 0.0191097 2.1983e-22)
(1.00132 0.0265809 -5.10868e-22)
(1.04433 0.00689913 -4.05413e-23)
(1.04541 0.0262908 -6.12459e-22)
(1.04595 0.025449 -3.88074e-22)
(1.04643 0.0267518 8.65933e-22)
(1.01359 0.0508381 4.37792e-23)
(1.00851 0.0548651 1.24432e-21)
(1.00835 0.0479939 -1.46195e-21)
(1.01603 0.0014054 -1.42454e-23)
(1.01577 0.00142054 1.45246e-23)
(1.01585 0.00134211 3.69925e-23)
(1.02578 0.00773829 -3.98476e-22)
(1.02617 0.00771418 4.49066e-22)
(1.04436 0.0260659 -7.95888e-22)
(1.02146 0.00504891 4.91054e-24)
(1.02173 0.00503534 1.72067e-22)
(1.02169 0.00524705 1.79208e-22)
(0.996065 0.0295986 -1.55962e-21)
(1.00692 0.000111889 2.34859e-23)
(1.00853 0.00013558 6.97603e-23)
(0.984575 0.0955483 1.2139e-22)
(0.992849 0.100882 2.04166e-22)
(0.984352 0.105585 6.98134e-23)
(1.00947 -0.00444521 6.49563e-22)
(1.00964 -0.00441867 -1.76557e-22)
(1.00973 -0.00463544 0)
(1.07195 0.0632568 0)
(1.06108 0.0612133 2.14779e-23)
(1.01693 0.000566071 1.9608e-23)
(1.01704 0.000634462 3.23421e-23)
(1.01689 0.000625464 1.21701e-22)
(1.02173 0.00984326 2.78077e-22)
(1.02162 0.00974745 2.48867e-22)
(1.02802 0.00805984 -6.43116e-22)
(1.02819 0.00880613 -5.8665e-22)
(1.02902 0.00823031 -9.09789e-22)
(1.13603 0.00148407 1.84705e-21)
(1.13295 0.00270554 2.00673e-21)
(1.13536 0.00493886 1.67754e-21)
(0.890593 0.194784 -8.97478e-22)
(0.897021 0.204043 8.15979e-22)
(0.885627 0.206459 8.24169e-22)
(1.00253 0.030458 -6.62282e-22)
(1.00031 0.031876 -5.67484e-22)
(1.00027 0.0132728 5.03062e-22)
(1.00612 0.0126165 4.83816e-22)
(1.02321 0.0114215 3.41465e-23)
(1.02318 0.0111401 -4.93292e-23)
(1.02341 0.0114223 -1.77041e-24)
(1.0077 0.0041345 0)
(1.00779 0.00414435 0)
(1.02119 0.00505553 -3.4069e-22)
(1.02123 0.00484627 -1.91736e-22)
(1.00198 -0.00132814 -3.16082e-22)
(1.00097 -0.00234563 -3.03429e-22)
(1.00249 -0.00249839 3.27044e-22)
(1.00719 0.0804148 0)
(0.99438 0.0874082 9.02363e-23)
(1.00804 0.00447414 0)
(1.00792 0.00443287 -1.30585e-22)
(1.00791 0.00429765 0)
(1.01282 0.000894762 -5.81777e-22)
(1.0122 0.000690786 3.11127e-22)
(1.01299 0.000852496 2.51558e-22)
(1.01457 -0.0484904 0)
(1.01676 -0.053511 -1.09153e-22)
(1.00995 -0.0538611 0)
(1.02381 0.0112495 -6.39085e-23)
(1.02408 0.0114812 4.04989e-23)
(1.02402 0.0111483 -4.26648e-23)
(1.00784 0.00441262 -2.87036e-23)
(1.00773 0.00425852 1.08196e-22)
(1.00775 0.0043923 1.03507e-22)
(1.16086 0.0134115 -5.07304e-22)
(1.16247 0.00909865 -1.36087e-22)
(1.15786 0.00972622 -8.34631e-21)
(1.0026 -0.000585477 5.7172e-23)
(1.00138 -0.000307934 -6.55688e-22)
(1.01108 0.00450474 -3.46581e-22)
(1.01097 0.00458331 4.73916e-22)
(1.01088 0.00435509 -3.63816e-22)
(1.00446 0.00245327 -2.01671e-22)
(1.00404 0.00222119 -4.37947e-22)
(1.00427 0.00282219 -4.70795e-23)
(1.00839 0.0323934 -5.28781e-22)
(1.00839 0.034683 1.01581e-21)
(1.01455 0.000628868 -1.01875e-22)
(1.01359 0.000560311 -8.16129e-23)
(1.01361 0.000564033 -1.77838e-22)
(1.00646 0.0319003 7.33035e-22)
(1.00835 0.0303979 0)
(1.02036 -0.00344278 0)
(1.02037 -0.00377808 0)
(1.02087 -0.00367994 -3.2373e-22)
(1.01266 0.000908823 -3.32414e-22)
(1.01298 0.00102949 -7.32256e-22)
(1.02552 0.0110394 2.20909e-22)
(1.0253 0.0112112 1.24888e-22)
(0.758896 -0.0242609 4.64436e-22)
(0.773423 -0.0273404 2.45993e-21)
(1.04358 0.00155917 0)
(1.04316 0.00809839 0)