/*--------------------------------*- C++ -*----------------------------------*\
| =========                 |                                                 |
| \\      /  F ield         | OpenFOAM: The Open Source CFD Toolbox           |
|  \\    /   O peration     | Version:  v2012                                 |
|   \\  /    A nd           | Website:  www.openfoam.com                      |
|    \\/     M anipulation  |                                                 |
\*---------------------------------------------------------------------------*/
FoamFile
{
    version     2.0;
    format      ascii;
    class       volScalarField;
    location    "400";
    object      p;
}
// * * * * * * * * * * * * * * * * * * * * * * * * * * * * * * * * * * * * * //

dimensions      [0 2 -2 0 0 0 0];


internalField   nonuniform List<scalar> 
18355
(
-0.0744642
-0.0874281
0.0165009
-9.85141e-05
-0.021977
-0.0951471
0.0115339
-0.125196
0.0794088
-0.0994814
-0.00578289
-0.403528
-0.163876
0.0341239
-0.00334521
0.0346476
-0.46183
0.00122824
0.0170761
-0.0819268
0.0526129
0.0467771
-0.156194
-0.0213368
-0.0301913
0.0211233
0.0248382
0.0764775
-0.100423
0.0279559
-0.0158442
-0.0274763
0.00126588
0.00332534
-0.122308
-0.0785635
0.0642312
-0.206404
0.0751195
-0.00614839
0.0346343
0.031679
0.0167051
-0.110643
-0.00208273
-0.217125
-0.124619
0.0844438
-0.111458
0.00187286
-0.00405458
0.00318246
0.020218
-0.0976156
0.0175996
0.0107643
-0.0758143
-0.00296899
0.408887
-0.225469
0.00227343
-0.104161
0.000108891
-0.00788501
-0.401501
-0.0716832
-0.0787601
0.154
0.0245329
0.0454786
-0.144082
0.0128359
-0.233368
0.00511201
-0.125749
0.0114725
-0.100134
-0.0279474
-0.0397671
0.00314713
0.0118501
-0.317784
0.0505771
-0.0546276
0.0213041
-0.161039
-0.0683475
-0.0823216
-0.103307
-0.109982
-0.127941
-0.00211348
0.0188259
-0.0038584
-0.12932
-0.158949
-0.00602635
-0.0459612
-0.0955586
-0.455024
-0.10475
-0.45807
-0.0826707
-0.118965
-0.0214366
-0.126828
-0.419638
-0.152573
-0.0745974
0.351921
0.0230353
0.0696164
0.0219048
0.0714992
-0.0897991
0.00982339
0.473086
-0.0985626
0.460917
-0.0792256
-0.100803
-0.371695
-0.0272912
-0.14437
-0.00543312
-0.156343
0.00271236
0.0180294
-0.410046
-0.00371416
-0.00401472
-0.180989
-0.0966135
-0.0449305
0.0907828
0.0178795
-0.000778418
-0.00585233
0.0296633
-0.160022
-0.10736
-0.127508
0.0240266
0.0234544
0.449572
0.0468614
0.107139
-0.0659369
-0.0369413
-0.0643756
-0.0218342
0.0473702
-0.117141
0.434085
-0.0783081
0.013851
-0.177623
0.469343
0.0137324
-0.109722
0.00957323
-0.0261547
0.107713
-0.0459864
-0.091125
0.175503
-0.45958
-0.102583
-0.208043
0.00308352
-0.14579
-0.164604
-0.00516986
-0.00565712
0.031974
-0.0793667
-0.0604557
0.0177902
-0.402795
-0.442505
0.290212
-0.204658
-0.0567255
0.00941723
-0.0962275
-0.0790216
-0.122767
-0.131964
0.0806981
-0.461412
-0.074443
0.0164257
-0.0450977
-0.112761
0.105318
0.0451009
-0.264094
-0.0556366
-0.0801682
-0.00549098
-0.0298833
0.0783028
-0.452141
-0.128474
-0.341408
0.0225563
0.476249
-0.445719
-0.400044
-0.0783474
-0.000352223
-0.0213028
-0.0792356
0.023594
0.0033565
-0.308924
-0.0978614
-0.0794391
0.0218485
-0.0359212
-0.328397
0.0278792
-0.0484844
-0.000962974
-0.461932
0.0371681
-0.454501
-0.074812
0.371207
0.000534915
0.0200969
-0.0384258
-0.00944253
-0.457058
0.00751446
0.0205785
0.0179239
-0.192395
-0.111011
-0.338585
-0.0722638
-0.214794
-0.0159298
0.00401802
0.0401541
-0.075102
-0.390618
0.512079
-0.0767971
0.0079026
-0.029374
0.176587
-0.0571044
-0.406364
0.0321536
-0.462535
-0.0979155
-0.111446
0.0223097
0.006787
-0.0677558
-0.154701
-0.45571
-0.0991756
0.00632422
0.00355809
0.0195561
-0.214036
-0.0970702
0.347413
0.0394463
-0.071344
-0.133086
-0.126581
-0.0152866
-0.272494
0.00274445
0.0251188
-0.328575
0.00439116
0.0116165
-0.130241
0.0162473
-0.142586
-0.0561665
0.0926048
0.0046428
-0.102218
-0.418467
-0.0280648
0.000184998
0.0315908
-0.11592
-0.0969024
0.0194113
0.0122867
-0.0919421
-0.0934692
-0.0765281
0.245266
0.0248526
-0.149637
0.0574668
0.0122883
0.255999
-0.0913979
-0.0955319
-0.115978
-0.00368296
0.303232
-0.0200274
0.0181444
-0.378796
0.0204441
-0.217782
0.0468795
0.0187999
-0.00205955
-0.21906
-0.0709879
-0.443232
0.00416045
0.10409
-0.111134
-0.0106474
-0.113057
-0.0355295
0.0535111
-0.114541
-0.00350762
0.130814
0.0198921
0.0918719
0.0114109
-0.0765018
-0.443153
0.0212253
-0.455695
-0.085354
0.0262848
-0.120861
-0.10415
-0.130615
-0.0927283
-0.114522
0.0317537
0.000217548
-0.200835
0.272698
0.0195614
0.0103522
-0.0975355
-0.0955462
0.223885
-0.19604
0.023146
-0.0350522
0.504894
0.0223081
0.00778676
-0.146798
-0.0775016
-0.0369984
-0.0701401
0.0171309
0.167989
-0.338648
-0.374461
0.000196398
0.0360344
0.0279389
-0.003783
0.146134
-0.00431667
-0.09326
0.027549
-0.0118134
0.023154
0.0780545
-0.0125417
0.0119977
-0.0111704
-0.0112256
0.0248289
0.358829
-0.191443
-0.00208713
-0.11765
0.0652441
-0.186657
-0.0703022
-0.157516
0.0416219
-0.129837
0.0623572
0.00997207
0.0207687
-0.00164113
-0.0970509
-0.0347936
-0.00206459
-0.100154
-0.0890156
0.0220802
-0.0105974
-0.458178
0.0445976
0.00317899
0.284563
0.0154006
0.514821
-0.459659
-0.143827
0.103932
-0.0207915
-0.417485
0.0128233
0.0217148
0.284869
0.0154343
-0.00500598
-0.462052
0.00470522
-0.444562
-0.0650959
-0.06556
-0.460541
0.0577789
0.0213098
-0.104588
-0.0931722
-0.147356
-0.125432
0.0273534
0.00971922
0.048057
-0.0908248
0.0544944
0.0171703
0.0142049
0.0250252
0.17319
0.501186
0.0297748
0.0471112
0.0198022
-0.0691523
-0.123572
-0.0967425
-0.461159
-0.153345
0.217266
0.152472
-0.109136
-0.018181
0.00715068
0.031317
-0.00220279
0.162744
0.0247109
-0.00196575
-0.455263
0.181087
-0.115771
-0.108667
0.226131
-0.0790409
0.00854346
-0.0119747
0.0265391
0.0118574
0.0141343
0.0199187
0.0250777
-0.125482
0.00304891
-0.00330682
-0.361193
-0.227383
0.00745108
-0.0276487
0.0648442
-0.360252
0.031839
-0.00715187
-0.122008
0.0757976
-0.0786095
-0.035304
-0.0036887
-0.454967
-0.229628
0.00150746
-0.412937
-0.119536
-0.464404
-0.0031151
-0.00687327
-0.00677477
-0.110944
0.0571781
-0.072301
-0.0952143
-0.117582
-0.375308
-0.00188666
-0.0636243
-0.0798861
-0.160962
-0.0869613
0.0439113
0.0376285
0.0142129
-0.129884
-0.457879
-0.129634
0.0358412
0.0291103
0.0231891
0.0580077
0.0248178
-0.0996141
0.0158384
-0.088958
0.0361416
0.0245783
0.00698498
0.148456
-0.0102623
-0.121749
0.0166073
-0.114262
-0.229225
-0.0502201
0.0212922
0.079282
-0.0458138
0.0165594
-0.0776062
-0.0792805
-0.0500442
-0.231467
0.00980892
0.00145756
0.030669
0.0212415
-0.0966366
-0.0362116
-0.106764
0.00867999
-0.0217064
-0.146441
-0.00326927
0.159322
0.0614809
-0.212995
0.0900549
-0.0927916
-0.0231368
-0.115865
0.0912541
0.0840085
-0.0948328
-0.14656
-0.426259
-0.0485406
-0.0336398
-0.00302212
0.0277336
-0.0866917
-0.116506
0.0432184
-0.0839328
-0.124684
-0.0902496
0.00794145
-0.439541
-0.192281
-0.0277604
0.0282274
0.161016
-0.106952
-0.0660514
0.0165687
0.275911
-0.223046
-0.124192
0.140372
0.0255635
-0.0467398
-0.133604
-0.0904949
-0.11591
-0.386574
0.157127
-0.179027
-0.055812
0.0109075
-0.028446
0.0273269
0.438782
0.375535
-0.0800609
0.347697
-0.401513
-0.198318
0.267272
0.0351217
-0.0846064
-0.450757
-0.00605181
0.369154
-0.0907586
-0.291793
0.0260603
-0.00146928
-0.0457293
-0.0445653
-0.0446639
-0.148996
0.0200731
-0.104771
0.0270591
0.0514795
-0.13024
0.010423
-0.0089652
-0.0836384
0.0215023
-0.0193549
-0.258922
0.00380699
-0.112413
-0.00346067
-0.16369
-0.0490079
-0.0699563
0.0481358
-0.0305181
-0.111443
0.0970782
-0.0671214
-0.080502
-0.0160955
-0.166915
-0.0700336
0.0676101
-0.462854
-0.352563
-0.125089
0.0233022
-0.00211821
-0.1216
0.0814399
-0.0797827
0.0164866
-0.0572394
-0.154639
-0.127349
-0.0964847
-0.11687
0.165031
0.00727215
-0.00157754
0.0164412
-0.103257
-0.0994511
-0.00864604
-0.417499
0.0219221
-0.0899651
-0.00169275
-0.409294
-0.456959
0.0287117
-0.00595606
-0.0908603
0.0163255
0.00118859
-0.215092
0.366474
0.0534567
0.0271951
-0.0853083
-0.111402
-0.0397023
0.265935
0.0114409
-0.0809412
-0.0932416
0.0386088
0.416384
-0.167765
0.0122858
-0.128701
-0.000353795
0.021179
0.0571009
0.179389
-0.461305
-0.0838326
-0.0905302
0.000475432
-0.0753809
-0.383739
-0.0566438
-0.39893
0.0363786
-0.449833
-0.0282889
-0.0667825
-0.0856202
0.0251002
0.360292
-0.00585571
0.0945017
-0.433838
0.302369
-0.420227
0.00600774
-0.0939468
0.0328974
-0.0663745
-0.0198357
0.0189293
-0.0459919
0.00546577
-0.000291501
-0.0827311
-0.118663
-0.287795
0.00981993
0.499182
-0.0553045
0.00596532
0.0233478
0.0753952
-0.122744
-0.438734
-0.0800705
0.00325373
-0.0144361
-0.0862145
0.021964
0.0212238
0.00538084
-0.0166202
-0.0688734
-0.105674
0.0105078
-0.251115
0.0975957
-0.190875
-0.461318
-0.0814906
-0.00162609
-0.0644202
0.0161233
0.00186723
-0.0560101
-0.0919979
0.00636536
-0.00253444
0.00068305
-0.443629
0.0611684
-0.0165426
-0.0302619
-0.0622961
-0.121362
-0.417801
0.013719
0.0336292
-0.122689
0.0372242
-0.387869
-0.0878679
-0.453092
0.243645
0.0903291
-0.0955838
-0.0474357
0.0216132
0.00446541
0.0203207
0.0510959
0.0195841
0.0525584
-0.379556
-0.133376
-0.0147728
0.284885
0.00421056
0.00566802
-0.0866258
0.0178462
0.0527978
-0.0200165
0.458606
0.509079
-0.148128
-0.418816
0.156964
-0.0780697
-0.105803
-0.0769297
-0.339042
-0.0951257
-0.189053
-0.091043
-0.464011
-0.0142863
0.0277094
0.01156
-0.0455971
-0.0926908
0.00328222
0.0212893
-0.150085
0.00615663
-0.00570478
-0.00239397
0.0125375
-0.0918333
-0.0159854
0.0341372
-0.086172
-0.000202261
-0.239939
0.387985
0.0217489
-0.0244799
0.0061075
0.0506892
0.00625379
-0.0239047
-0.372452
0.0326137
-0.199925
-0.01502
-0.190728
-0.0344324
-0.0808307
0.020955
-0.0698387
-0.0820407
0.0215804
0.0209716
-0.206378
0.0283521
-0.457999
-0.453534
0.0405014
0.0113099
0.0174718
-0.00365817
-0.220295
0.0265692
-0.188176
-0.126465
-0.0921265
-0.459634
0.00353637
0.0168479
-0.440143
-0.34378
0.095696
0.018659
0.0258018
0.00384304
-0.0254355
0.137201
0.388501
-0.0258949
-0.0761728
0.501868
-0.0958097
0.153963
-0.0130247
-0.228605
-0.142449
-0.0324371
0.0206222
0.0442864
-0.307131
0.0249788
-0.170921
0.149289
0.013659
0.0716038
-0.00184687
-0.0782106
-0.0447525
0.00628448
-0.00290226
-0.0244374
-0.126094
0.0133908
-0.0601389
-0.100554
0.0436124
0.0161468
0.170778
-0.0885341
-0.0691776
-0.25062
0.0618085
-0.00370734
0.0802696
-0.0843743
0.423706
0.499984
0.0039279
0.145493
0.0187075
-0.246842
-0.00592595
-0.0975871
0.1418
-0.219419
0.013165
0.00833868
0.106181
0.0235507
-0.127338
-0.0177312
0.371819
0.0136503
0.00398056
0.0867699
-0.23407
-0.462064
-0.00808634
-0.0244221
0.0588148
-0.0164024
-0.00883272
0.0212594
-0.16622
0.0176545
-0.0768898
0.0116873
-0.390055
-0.0154197
-0.00345071
-0.3598
-0.345709
-0.131611
0.00643094
-0.0667615
-0.0158811
-0.100468
0.058312
-0.215554
0.00283627
-0.462252
0.0148334
-0.0425539
0.0259823
0.0177803
0.0165545
-0.0896594
-0.118131
-0.0733619
0.157407
-0.0439837
-0.0266619
0.0120659
0.000452342
0.00385491
0.0295414
-0.234749
-0.019187
-0.150349
-0.192557
0.0183208
0.0630121
-0.0968189
-0.0880354
0.0600012
-0.028409
0.0689314
-0.462567
-0.0846477
-0.444622
-0.0621938
-0.0826812
0.251286
0.0323026
0.0112572
-0.14707
0.0980416
-0.0147482
-0.130028
0.0824922
-0.458602
0.0165677
0.357838
0.174594
-0.147563
0.0378599
0.0254307
-0.371059
-0.0162622
-0.150608
0.0417756
0.0257317
-0.40273
-0.0704633
-0.039885
-0.43268
0.0081747
0.337013
-0.0931996
0.0273249
-0.059251
-0.0937976
0.0270332
0.0112199
-0.016196
-0.0390574
-0.0395283
-0.0804378
-0.0998862
-0.0261669
0.0266098
-0.0675168
-0.000978663
-0.458172
-0.0334551
-0.0233976
-0.186958
-0.454242
0.00350006
0.0155648
-0.0377893
-0.0026758
0.000169204
-0.215844
0.016928
-0.038559
-0.00190003
0.262455
0.00175038
0.360221
0.376599
-0.0249923
-0.102863
0.0100904
-0.0331041
0.0116175
-0.109792
0.0261434
0.00696451
0.0199201
-0.00686357
0.0144461
-0.13265
-0.460394
-0.421352
-0.459266
0.0164441
0.0578616
-0.0710643
0.0452239
-0.00573566
0.16559
-0.143415
0.0105837
-0.0156579
-0.225557
0.0125844
0.0162479
-0.0742155
-0.0928115
-0.0949557
0.0787182
-0.0123547
-0.44387
0.0506218
0.165603
0.0135154
-0.0514336
0.0342442
-0.156901
-0.209069
-0.0680797
0.0170282
-0.455522
0.0676858
0.00714866
0.00943094
0.0424718
0.0237573
-0.0139529
-0.0975707
0.00729318
-0.129291
-0.0172298
-0.0571948
-0.351545
0.00537776
-0.17211
0.0518134
0.00528334
0.0806154
-0.0869917
0.0225548
-0.00183354
0.0156817
0.0355808
-0.0810642
0.000424053
0.0482401
0.0983083
0.0171738
-0.00262698
-0.455914
-0.0709128
-0.0943604
-0.211814
-0.128091
-0.148324
-0.343019
-0.0820499
-0.00136932
0.0503052
-0.000919335
0.362653
-0.0854183
-0.000283178
-0.00786147
-0.00319928
0.0123448
0.0128603
-0.0347734
-0.430563
-0.452556
-0.461343
-0.117813
0.017577
0.0121767
0.0159909
-0.416388
-0.389155
-0.0137454
0.514592
-8.67061e-05
-0.0771999
-0.0265094
-0.0423137
-0.0745265
-0.183594
0.0534612
0.359764
-0.000839116
0.00793865
-0.168122
0.0164027
0.0106756
-0.0827727
-0.109802
0.0158945
0.122432
0.0157197
0.0346566
0.00538675
0.0299631
-0.111506
0.0013349
0.0249431
0.0496851
-0.103964
0.382465
0.0246342
0.160271
-0.0712645
-0.458341
-0.212422
-0.450583
-0.219879
-0.0617082
-0.109367
-0.122855
-0.111595
-0.452886
-0.00195269
0.0157381
0.0215061
0.380899
0.0399961
-0.371609
-0.0107589
0.0237097
-0.398023
-0.127256
0.0551248
0.281609
0.0123408
0.0717671
-0.336956
-0.0651279
0.0211956
-0.351161
-0.224672
-0.262413
-0.0892922
0.0292405
-0.394153
0.0134756
-0.067044
0.00782597
0.00682907
-0.0900248
0.102829
-0.00648339
0.0162697
-0.445922
-0.00264462
-0.14122
-0.154167
0.0173144
-0.00500297
0.096642
-0.0956711
-0.140982
-0.0718102
0.0592928
-0.109248
0.0336043
-0.0224927
-0.0143893
-0.0150218
0.0762888
0.246209
-0.376605
-0.123485
-0.1097
-0.460814
0.00962486
-0.214782
-0.222553
0.216907
0.0132817
0.0284482
0.0163118
0.00822189
0.00901364
-0.37091
-0.21919
-0.0995404
-0.124433
-0.130175
0.0256312
-0.13447
-0.460978
-0.0018101
-0.045559
0.00654223
-0.457775
-0.0713489
-0.179911
-0.101602
0.0361931
-0.102142
-0.019723
0.0954403
-0.0747512
-0.0566825
-0.00632651
-0.0874683
-0.456012
0.0153189
-0.266715
-0.451042
-0.300371
-0.377788
-0.0726214
-0.110178
0.153576
0.251661
-0.108683
-0.00244951
0.0378664
-0.0112301
0.0125184
-0.463216
-0.0237005
-0.212191
0.000731325
-0.00159753
-0.0856089
0.0212803
-0.454401
-0.0203607
0.404409
-0.0340369
0.0220445
-0.158554
-0.0338942
-0.0863413
0.0079188
-0.0101903
-0.0960533
0.13277
0.024028
0.0951433
-0.348917
-0.0661688
0.508626
0.019081
0.0208365
-0.00336945
0.0234109
-0.0451072
0.0756952
-0.000824811
-0.457547
0.0141964
0.0224304
-0.142583
-0.135742
-0.0958594
-0.0552316
0.00416248
-0.0214919
-0.146628
0.503143
-0.237955
-0.432813
-0.0421683
-0.0746745
-0.090905
-0.0158452
-0.120504
-0.0987928
0.00890128
-0.162529
-0.0715272
-0.10631
-0.11972
-0.393805
-0.0957578
0.0433149
-0.118148
0.0338669
-0.0685635
-0.19864
0.00557915
-0.168963
0.00414689
0.0368847
-0.0985832
-0.461201
0.0700365
0.0101558
-0.0821055
-0.169445
0.296075
-0.145454
0.0232378
-0.067633
-0.00661835
-0.107375
-0.198091
0.0165333
-0.462718
-0.0136832
0.00654652
0.0435797
0.00368997
-0.255349
-0.0883656
0.0192215
-0.2556
0.0243954
-0.462419
-0.00520638
-0.0908376
0.207838
-0.159741
0.0972868
0.0147658
0.000150882
0.0099309
-0.187563
-0.140409
0.0114794
-0.0805638
-0.108836
-0.343712
-0.0652215
-0.0790067
-0.157192
0.0154516
-0.368507
0.00476561
-0.0898816
0.00958712
0.0466645
-0.0189198
-0.153433
-0.226756
-0.0971314
-0.192597
-0.460319
0.382488
-0.120977
-0.0993016
0.00942913
-0.155396
-0.462546
-0.00309549
-0.0978132
-0.143922
-0.158917
0.0170292
-0.075066
0.136227
-0.0906473
-0.319103
-0.0546702
-0.129449
-0.0452888
0.00483039
-0.00170893
-0.462272
-0.206528
0.203339
-0.200305
0.00931483
-0.22493
0.0596289
-0.00192173
0.0558152
-0.115696
-0.0400092
0.0215415
0.0155937
-0.33682
0.0101731
-0.0475756
-0.385285
0.00098403
0.00993293
-0.311604
0.00636951
0.141702
-0.0399709
-0.178602
0.490216
0.0208324
-0.0637148
-0.0556929
-0.0721033
-0.0564552
-0.0330003
0.322092
0.422741
-0.123761
-0.256739
0.327987
-0.00586282
-0.125521
-0.0864752
-0.0894231
0.00469205
0.0229979
0.369327
-0.0231497
-0.131458
0.412343
-0.0635467
-0.127419
-0.0312869
-0.196611
-0.0955974
0.0184786
0.0125185
0.017623
0.00963948
-0.132408
-0.175921
-0.046274
-0.198827
-0.0934811
-0.116508
-0.0160559
-0.0379236
-0.140602
0.00815377
0.00919654
-0.103892
-0.0274326
0.312491
0.00637659
0.0122734
0.0211807
-0.0534865
0.0070797
-0.0992533
-0.00464831
-0.0327153
-0.246184
-0.166929
0.492946
-0.391397
0.107358
-0.0255602
-0.215306
-0.161484
-0.193708
0.256013
0.0149282
-0.130759
0.0301924
-0.0239739
0.00495129
0.294333
-0.0824037
-0.174085
-0.154591
-0.118061
0.000550471
0.00686679
-0.0170075
-0.0914182
-0.429407
-0.0972011
0.515972
0.010618
-0.421496
-0.028114
0.0115642
-0.012393
0.0410711
-0.36557
0.0321527
-0.0877785
0.000743766
0.498193
0.156459
-0.0681357
-0.0252231
-0.019016
-0.0329815
0.000749083
-0.127205
0.509902
-0.183474
-0.129891
-0.00204373
-0.180753
0.227217
0.0251135
-0.058786
-0.00703649
-0.0394883
-0.00302598
-0.36087
-0.031099
-0.148879
-0.12394
7.72439e-05
-0.457765
-0.00172038
-0.0465369
0.0600465
-0.0343396
0.00352449
0.00215187
-0.069022
0.0160191
-0.0287265
0.000424657
-0.0248608
0.511033
-0.097745
0.0585408
-0.0667956
-0.419528
0.00820923
0.0161937
-0.00691275
-0.0902264
0.00274626
-0.123808
-0.234054
0.0271114
-0.101397
-0.0763436
0.028883
-0.00429995
-0.0587118
-0.0036035
-0.102883
-0.0929096
-0.113292
-0.0319517
-0.0568619
-0.00574173
0.50275
0.0783909
0.396549
0.012574
-0.185016
-0.463854
-0.0741253
-0.0361662
-0.282416
-0.463637
-0.177007
0.0599787
-4.60043e-05
-0.462456
0.487355
0.00577835
0.0237014
0.418844
-0.00595252
-0.152619
0.48325
0.00238243
-0.00577718
-0.241056
-0.0883606
-0.0270561
-0.00198954
-0.0883166
0.057691
-0.185227
0.01412
-0.0176496
0.0174203
-0.0239134
0.0202966
-0.197697
-0.00730465
0.0272892
-0.076966
-0.462208
-0.136846
0.00487706
-0.0459587
-0.0724892
0.0442991
0.0479016
-0.0733539
0.00797225
0.023941
-0.13993
0.0598244
0.0282068
0.0381772
-0.0138762
-0.457936
-0.100262
-0.00718651
-0.0231358
0.0117863
-0.0655815
-0.431573
0.0797753
-0.164861
0.0201742
0.0610224
-0.0438769
-0.148636
-0.461316
0.000394577
-0.343506
-0.249664
-0.0581673
0.000837627
-0.0627641
-0.0658527
0.041513
-0.0026248
-0.014499
-0.0796893
0.068536
0.492376
0.0563848
0.0272558
-0.0211891
-0.0838616
0.0344018
-0.00177984
-0.124091
0.164015
-0.218678
-0.0883493
-0.0129483
0.401431
-0.340722
0.436561
0.0659558
0.0200348
0.0240807
-0.287703
0.205725
-0.0151389
-0.0289968
-0.105962
0.457648
-0.462726
0.0174833
0.113195
0.048746
-0.103991
-0.349301
0.0119085
-0.144626
0.0507021
0.0647589
0.0119647
-0.452169
-0.148052
0.0289283
-0.0373191
-0.143858
0.0129222
0.0127253
-0.0543726
0.296112
0.0305895
0.0129892
-0.0355727
-0.398372
-0.0690284
-0.0112358
0.00761518
-0.0162777
0.371726
0.0192877
0.0166894
-0.101452
-0.223219
0.00798221
0.017682
-0.074677
-0.0516894
0.0247617
-0.018544
-0.126097
0.00788053
0.0213819
-0.0671378
-0.302752
-0.341711
-0.0343461
-0.0787433
-0.455208
-0.12346
-0.412917
-0.111311
-0.0140129
0.0273292
-0.00259883
0.0818893
0.0161589
0.0294878
-0.00182551
0.0177532
0.0111054
-0.112452
-0.0761181
-0.10611
-0.0165621
-0.121619
0.0327623
-0.040465
0.000107834
0.00545406
0.136406
-0.324845
0.000845065
0.00820306
-0.0296368
-0.10809
0.0107987
-0.0765726
0.0219182
-0.0602855
-0.136723
0.218903
0.506494
-0.00149041
-0.152779
-0.0147552
-0.114344
-0.461454
0.00741826
-0.153217
-0.130875
0.0172407
-0.00546909
-0.112793
-0.0713846
-0.108054
0.00149133
-0.413066
0.167301
-0.146847
-0.00139494
0.00938658
-0.0433862
-0.456534
-0.244179
-0.45702
-0.101735
-0.463048
0.0957851
-0.426571
-0.0171907
0.450696
0.010751
-0.0104942
-0.3359
0.0669656
-0.228702
0.0111529
-0.000927441
-0.46148
-0.280848
0.00961372
-0.385991
0.0125288
-0.150686
0.00533508
-0.118702
-0.461749
-0.0145226
-0.0902852
-0.0390298
-0.146478
0.0331805
-0.0040908
0.040436
-0.150275
0.0131839
-0.316583
0.00539871
-0.449109
-0.125016
-0.105528
0.01005
-0.000236121
-0.0935116
-0.0324185
0.158347
0.0151456
0.309264
-0.0166687
0.0300106
-0.153828
0.0279175
0.0164542
-0.0207609
0.0232147
-0.0776721
-0.0595987
0.00928095
-0.13785
-0.257737
0.416497
-0.0113242
-0.187804
0.48324
-0.0118538
-0.0533024
-0.02237
0.0228609
0.0103988
0.0382618
-0.0404746
-0.0544762
-0.446519
-0.0190251
-0.0518781
0.015882
0.0173739
-0.0873459
-0.0537863
0.0158914
-0.0235881
-0.0727531
-0.286171
0.0322009
-0.100502
0.0510939
0.454224
0.0213216
-0.456712
0.00368379
-0.0248141
0.0142289
0.00752069
0.0666691
-0.144045
0.00211037
-0.15887
-0.187538
-0.0769439
-0.137613
0.0149809
0.0389967
-0.0857074
-0.00535309
0.338594
0.0288745
-0.0768521
0.00275777
-0.35722
-0.141441
-0.0693583
0.00963124
-0.416538
-0.45596
-0.0934953
0.365071
0.106611
-0.204032
0.00896075
-0.134479
-0.12587
-0.0526082
-0.0811754
0.00562197
0.0263824
-0.0433996
-0.172406
-0.00428959
-0.0947823
0.0106495
-0.372382
-0.0750847
0.150816
0.00552051
-0.0788325
0.392159
0.0265618
-0.0779262
-0.0999323
-0.0944795
-0.00853693
0.0105302
-0.116809
-0.320101
0.0181012
-0.462104
0.0804559
0.0189213
-0.460247
-0.0940022
0.0236834
-0.341654
0.000368569
0.00927762
-0.0871247
-0.142024
0.0114305
-0.0908724
-0.0071941
0.024486
-0.457144
-0.0215582
-0.0859059
0.00702341
0.477543
0.0250633
-0.457541
-0.000586895
0.243244
-0.0156317
0.108887
0.376959
-0.299764
0.229192
-0.353183
-0.0536279
-0.0929976
-0.336043
-0.0765774
0.0096095
-0.0788851
-0.446469
-0.134952
-0.107846
0.0469155
0.00847425
-0.0171087
-0.359212
0.0281463
-0.0197432
-0.101508
0.0127184
-0.145608
-0.00467275
-0.101778
0.0196969
0.0125435
-0.103544
-0.0019496
-0.0802777
0.0106852
-0.0130801
-0.188458
-0.140142
0.00569406
0.0175073
-0.28208
-0.457682
0.0182752
-0.0602505
-0.0840865
-0.00423588
-0.456051
-0.265776
-0.361201
-0.19768
-0.462492
-0.0956498
-0.0941727
0.0077961
0.00484647
0.0250981
0.011443
0.0740458
-0.442551
-0.459199
0.0145954
-0.0266138
-0.0277878
-0.242302
-0.244458
-0.326608
-0.367294
0.0337777
-0.369714
-0.448828
0.101154
-0.10028
-0.0891108
-0.0170727
-0.13458
-0.0669663
-0.0879749
0.0216216
-0.00523391
-0.106993
-0.179008
0.0050952
0.0269487
0.0121948
0.00570132
0.026478
-0.45574
0.0251907
0.00126408
-0.430746
0.0152058
-0.262948
-0.102377
-0.31698
-0.108655
0.0104524
-0.339444
0.366118
0.463039
0.0357313
-0.0564882
0.0158923
0.0743226
-0.464102
-0.0982794
-0.169556
-0.0261772
0.0115028
0.358221
-0.030269
0.0251719
0.116523
0.0159803
-0.138041
0.0110109
-0.0885362
-0.324584
0.0726264
0.0109669
-0.205715
0.0093724
-0.0111228
0.205021
0.00203621
-0.0214861
-0.181489
0.448707
-0.389621
-0.00287479
0.0786659
0.00717694
-0.273816
-0.139121
-0.00197823
-0.0554127
0.0143671
-0.0144793
-0.0236517
-0.00725292
-0.123228
-0.0529789
0.0295376
-0.0166762
0.0234039
0.0159882
-0.0151535
0.0167296
0.392397
-0.06485
-0.324985
-0.29972
-0.0945016
0.326278
-0.0186972
-0.463089
-0.0745182
-0.0944053
0.0239518
-0.0111099
0.451753
-0.393169
-0.256935
-0.275107
-0.248108
0.0145284
0.0241215
-0.0814357
0.0067995
-0.0894439
-0.191908
-0.0265631
-0.461764
-0.0885544
0.0124994
-0.456238
-0.100991
0.271462
0.452325
0.0412557
-0.0993833
-0.333388
-0.117205
0.00687843
0.284381
-0.171001
0.00772718
-0.073646
-0.012491
-0.119042
0.0239305
-0.443979
-0.361629
0.0386566
-0.0336073
0.0560428
-0.453706
-0.102682
0.033234
0.0473444
-0.0890023
0.0223227
-0.0338505
-0.166583
0.443565
0.00913033
0.31712
0.24738
0.0171574
-0.0835525
0.00121882
0.027811
-0.0438044
0.0207118
-0.0409663
-0.15643
-0.104567
0.0287813
-0.452098
-0.1743
-0.0954331
-0.462748
-0.0719838
-0.0347895
-0.362272
-0.0423432
0.0914608
-0.106164
-0.0858216
-0.0160659
-0.000308455
0.0143715
-0.265411
-0.0931009
-0.410018
-0.0974591
0.00583944
0.107043
-0.17335
-0.078354
-0.364963
0.0117967
-0.0791722
0.00643436
-0.457497
-0.00816457
-0.12448
0.0691786
-0.452342
-0.0940613
-0.135958
-0.214046
0.133872
0.0065808
0.295249
-0.456161
-0.448065
-0.0548219
0.0593381
0.00969179
0.0373452
-0.068547
0.02132
0.0268268
0.00671231
-0.110502
0.0279982
-0.132285
0.0121318
-0.110755
-0.00285684
-0.0981463
-0.460125
0.0531024
-0.105495
0.0161813
-0.0431457
-0.011157
0.0218575
0.0212415
0.404332
-0.197993
0.00317201
0.0924995
0.0337588
-0.0788608
-0.0703565
-0.309508
-0.12933
0.0354825
-0.0948824
-0.025141
0.0363212
0.224239
0.0237788
-0.0908424
-0.459063
0.0178554
-0.121105
0.0651503
0.0157459
0.000428116
-0.277458
0.0296212
-0.295061
-0.0178425
0.0211241
-0.181547
-0.165234
-0.13565
-0.0431567
0.031094
0.0183827
-0.146364
-0.0990067
0.0203721
-0.100038
0.0457453
-0.0738165
0.467361
-0.129514
-0.451607
-0.439803
-0.000801181
-0.150639
-0.0101685
-0.115686
-0.338536
-0.0558488
-0.322832
-0.090941
-0.00420476
0.0893227
0.0284219
-0.00131707
0.0469953
0.0296144
-0.295258
0.0626493
-0.0849377
-0.213531
0.0130212
-0.377288
0.0205453
0.0203932
-0.104311
-0.245871
-0.00745418
-0.432766
0.298048
-0.0819255
-0.456779
-0.0224923
-0.114677
-0.100286
0.0747024
-0.00477598
0.447197
0.0336934
0.0126465
0.0125866
0.311159
-0.456667
-0.0409872
0.0238527
-0.0837562
-0.458082
0.0566418
0.018443
-0.275274
-0.18349
0.0119152
0.331329
-0.215027
0.0146142
-0.0428505
5.73636e-05
-0.0879102
0.0121197
-0.439273
-0.446268
-0.431545
-0.0243108
0.16427
-0.0129182
0.00532691
-0.151267
0.00871459
-0.118057
-0.0888259
-0.166752
0.00686727
-0.00373601
0.457075
-0.114293
0.247125
-0.336983
-0.18234
-0.132348
-0.0315719
-0.426945
0.287907
-0.0460836
0.40913
-0.381708
-0.0901662
0.0327816
-0.455588
0.00164436
-0.102927
-0.142294
0.312803
-0.000129766
-0.10287
0.0182643
-0.25208
-0.0761288
-0.0245776
0.0231704
-0.435361
-0.0907013
0.0147472
-0.152272
-0.128014
-0.13811
0.0172685
-0.369609
0.0201689
-0.144985
0.0190903
-0.0264778
0.0120567
0.0353943
-0.106718
-0.0953848
-0.00199586
-0.0722008
-0.4626
-0.00150931
-0.00336621
0.0648656
0.114329
-0.0767822
-0.110384
-0.439787
-0.0996963
-0.424328
-0.416552
-0.0805095
0.0644208
-0.088998
-0.210326
-0.458359
-0.0906933
-0.0894511
-0.090197
-0.0734936
-0.025013
-0.461746
0.00452602
-0.349922
0.0219425
0.0147116
-0.431355
0.0174548
-0.00717321
0.365493
-0.0238915
-0.0982582
0.02873
-0.0285282
-0.108748
0.350864
-0.00698619
0.0182192
-0.425313
-0.0927467
-0.0424343
0.507508
-0.126133
-0.110452
-0.112194
-0.452455
0.0661608
-0.187132
-0.0853746
-0.121309
0.0227814
-0.00349047
-0.178743
-0.461819
-0.458426
-0.44345
-0.0826677
0.0211218
-0.122187
0.0430173
-0.460578
-0.0142035
0.0131231
-0.0888477
-0.150539
-0.186042
-0.438926
0.0530358
0.402959
-0.126208
-0.0206695
-0.12032
-0.00146184
0.149462
-0.226107
-0.0954061
-0.113923
-0.43659
-0.0719764
0.497798
-0.0779951
0.0334293
-0.0273305
-0.0534249
-0.297264
-0.39264
-0.434496
-0.193686
0.131379
0.00492405
-0.139719
-0.0978566
-0.304004
0.0167463
-0.442824
-0.123952
-0.331639
0.0142988
-0.0933902
-0.165225
-0.0786886
-0.219729
-0.00751268
-0.101584
-0.08213
0.0065916
-0.177845
-0.189744
-0.025219
-0.144086
-0.0271715
-0.0325539
0.0175252
-0.0850122
-0.11539
0.295586
-0.0540655
-0.457985
-0.00193223
-0.00189104
0.0145108
0.0112264
0.0104509
-0.339112
0.367251
-0.149956
0.0217346
-0.00111884
-0.449307
-0.0549401
-0.0801381
-0.0892313
0.00258849
0.478241
0.146222
-0.069754
-0.288099
-0.044856
-0.446654
0.461673
0.11881
-0.00137859
0.351678
-0.00245905
0.38065
-0.387319
-0.111749
0.00355647
-0.410304
0.436727
0.0245672
-0.114111
0.023066
-0.38327
-0.433145
0.042331
0.0191594
0.112858
-0.0946537
0.00057848
-0.00959906
0.0352368
-0.407751
0.103489
0.486847
0.458777
-0.291051
-0.142912
-0.210712
0.0158174
-0.0983027
-0.461628
0.100441
0.0096441
-0.0364419
0.0212526
-0.454071
-0.17105
-0.335538
0.0143887
-0.213345
0.516503
-0.462734
-0.0752199
0.0242213
0.347171
-0.167806
0.0108966
0.0213158
0.473597
-0.0820782
-0.0510733
-0.0951141
0.431508
-0.453813
-0.0679652
0.0726463
0.441398
-0.104285
0.00684657
0.0341051
0.0140045
0.0120708
-0.0931956
0.269557
0.0712333
-0.460742
-0.09455
-0.00461093
-0.124964
0.335791
0.133826
-0.0590274
-0.00497794
0.00287348
0.510602
0.398101
-0.0714571
0.00649854
0.382198
-0.329113
-0.116609
-0.198927
-0.0368162
-0.00397332
0.0234276
0.0120329
-0.0665404
-0.444406
-0.0938605
0.035729
0.35862
0.0248904
-0.270213
0.062496
-0.0815171
0.0718811
0.093921
-0.0636285
-0.139055
0.0110308
-0.00196465
0.00546087
-0.0776738
-0.0357934
-0.177713
-0.101633
-0.062738
0.0113384
-0.0617333
-0.032568
0.030306
-0.442672
-0.00162526
-0.0841416
-0.461416
-0.0948918
-0.0496577
0.0345587
0.0167439
0.0253612
0.0108686
-0.0993825
-0.291838
-0.461742
-0.42718
0.472075
0.363461
0.0767482
-0.29042
-0.0898513
-0.0681405
0.0333741
-0.0100191
-0.0898518
-0.0182055
-0.00686705
-0.0841567
-0.118531
-0.313526
-0.164412
-0.203817
0.0130892
0.0188799
-0.0261561
-0.0593143
-0.0960193
0.0194466
-0.0946553
0.454079
0.487454
-0.0885805
0.0458588
0.43366
-0.0600756
-0.155876
0.047129
0.00121624
0.0195718
0.0325662
0.0215297
-0.0906063
-0.133244
-0.105429
-0.106409
-0.111695
0.00235553
-0.0726271
0.0681974
0.0116906
-0.0542569
-0.438825
-0.0985002
0.00382397
0.420717
0.00704
-0.11637
0.0712304
-0.0557922
0.0234986
-0.118258
-0.111757
-0.0939951
-0.452893
-0.333364
-0.29437
-0.445485
-0.321624
-0.270298
-0.00309825
-0.237305
0.000809041
-0.462262
0.0308615
0.39492
0.0131304
-0.135295
0.0361519
0.00397172
0.0438074
0.0098238
0.50184
-0.0106543
0.00739721
-0.00243649
0.000741281
0.00514414
-0.0311955
0.0232422
-0.216727
-0.118882
0.0165468
-0.101783
0.0265175
0.00673381
-0.149183
-0.124686
0.0236251
-0.0656676
0.00131176
-0.00100341
-0.349374
-0.0166197
0.106059
-0.216118
-0.102457
-0.461378
-0.37221
-0.162045
-0.461588
-0.451377
-0.167644
-0.322572
-0.0248785
-0.319771
0.0211668
0.0195118
-0.152069
-0.0443037
0.512089
-0.0153779
-0.0869222
-0.0768779
0.438374
-0.128855
-0.0963797
-0.0333918
0.00919706
-0.0813852
0.0301581
0.00271362
0.436693
-0.0191695
-0.298859
-0.385088
-0.202255
-0.0138882
-0.0955627
0.0582512
-0.46204
0.440791
0.00640462
-0.347191
-0.127907
-0.0983225
-0.0966497
-0.0742659
-0.0935716
-0.0776034
-0.0381966
-0.447282
-0.130081
0.139609
-0.240671
0.0385567
-0.0830806
0.0266884
-0.00148161
-0.0144376
0.405597
-0.148831
0.382209
-0.115835
0.0281375
0.212676
0.499397
0.00319847
-0.214258
-0.00292819
0.507267
-0.0931122