/*--------------------------------*- C++ -*----------------------------------*\
| =========                 |                                                 |
| \\      /  F ield         | OpenFOAM: The Open Source CFD Toolbox           |
|  \\    /   O peration     | Version:  v2012                                 |
|   \\  /    A nd           | Website:  www.openfoam.com                      |
|    \\/     M anipulation  |                                                 |
\*---------------------------------------------------------------------------*/
FoamFile
{
    version     2.0;
    format      ascii;
    class       surfaceVectorField;
    location    "400";
    object      Uf;
}
// * * * * * * * * * * * * * * * * * * * * * * * * * * * * * * * * * * * * * //

dimensions      [0 1 -1 0 0 0 0];


internalField   nonuniform List<vector> 
27274
(
(1.10106 0.0793432 -8.7605e-22)
(1.0978 0.0776013 -6.86172e-21)
(1.0979 0.0816219 1.07985e-20)
(0.136391 -0.0080835 1.49036e-20)
(0.148187 -0.00984573 -2.70719e-21)
(0.123947 -0.00832468 1.7024e-21)
(1.00416 0.022368 8.65192e-22)
(1.0039 0.0216629 1.89883e-21)
(1.00452 0.0219125 9.20129e-22)
(1.01483 0.00466472 -2.20717e-23)
(1.01518 0.00466522 -8.67667e-24)
(1.01513 0.00499442 -7.76939e-23)
(1.04333 -0.00576243 -1.43512e-21)
(1.0436 -0.00494756 2.44666e-21)
(1.04442 -0.00582772 3.88284e-23)
(1.13627 -0.0459129 -2.39527e-21)
(1.13679 -0.0442131 -5.51563e-21)
(1.13825 -0.0458463 1.292e-20)
(1.00414 0.00716477 1.02259e-21)
(1.00392 0.00698455 6.41989e-22)
(1.0041 0.00690154 0)
(1.1516 0.0211102 -2.19125e-20)
(1.15299 0.0181203 1.17719e-20)
(1.14974 0.0187795 -1.05058e-20)
(0.940302 -0.00496975 0)
(0.937856 -0.00570063 -1.26634e-20)
(0.096958 -0.012273 -3.83848e-21)
(0.0805081 -0.0113601 0)
(0.0971789 -0.0112394 0)
(1.02168 0.000267005 1.68145e-21)
(1.02191 0.00050312 9.31771e-22)
(1.02144 0.000463639 -5.80335e-22)
(-0.305657 -0.00797607 1.21044e-20)
(-0.311741 -0.00746675 1.29518e-20)
(-0.333284 -0.00526005 -6.72738e-21)
(1.18332 0.00855019 1.06694e-20)
(1.18413 0.00642414 2.07952e-20)
(1.18628 0.00880792 6.43875e-21)
(0.987179 0.00524518 3.94546e-21)
(0.987444 0.00581915 -3.13599e-21)
(0.98781 0.00517994 -4.14371e-21)
(1.02617 0.0349897 1.23647e-22)
(1.02695 0.0340978 -5.91755e-22)
(1.02564 0.033834 2.93288e-22)
(0.989809 0.0704807 5.48078e-21)
(0.988192 0.0722542 -2.09448e-21)
(0.987377 0.069832 5.39583e-21)
(-0.276273 0.0114908 2.8719e-20)
(-0.251192 0.0140616 -3.68675e-20)
(-0.2661 0.0112774 -6.11996e-20)
(1.01548 0.0099318 -1.10867e-22)
(1.01594 0.0101893 3.27231e-22)
(1.01534 0.0102942 -8.35927e-23)
(1.00493 0.0358881 1.77347e-21)
(1.0055 0.0368213 1.06127e-21)
(1.00606 0.0357994 6.80875e-21)
(0.473619 -0.00390365 6.67825e-21)
(0.488322 -0.00952373 -1.09783e-20)
(0.442337 -0.00115111 6.72432e-21)
(0.970085 0.0871509 -3.16674e-21)
(0.970152 0.0900506 -6.71497e-21)
(0.96709 0.0877659 -1.73102e-20)
(0.976439 0.0345483 -1.09429e-20)
(0.975281 0.0335024 -1.00595e-20)
(0.974992 0.0351248 -1.09099e-21)
(0.133125 -0.055104 7.31393e-21)
(0.165748 -0.0595148 0)
(0.152392 -0.0562786 8.4656e-21)
(1.04311 -0.00646626 -4.59334e-22)
(1.04243 -0.00566108 -5.48404e-21)
(1.05388 -0.022014 4.3718e-21)
(1.05429 -0.0237655 9.9274e-21)
(0.999211 0.00415138 2.42933e-21)
(0.999301 0.00414537 -1.28512e-21)
(0.999301 0.00386121 -2.80168e-21)
(0.996364 0.00084135 -2.46093e-21)
(0.996178 0.00100358 -2.06369e-21)
(0.944165 0.00725359 3.11046e-21)
(0.942179 0.00746898 -3.24917e-21)
(0.943271 0.00535477 2.27446e-20)
(-0.0152176 0.131853 -7.06139e-21)
(-0.0141872 0.135858 2.72873e-20)
(-0.00336761 0.133481 -6.80003e-21)
(0.994385 0.0239866 -7.20864e-22)
(0.993576 0.0241832 -4.66928e-21)
(0.994199 0.0251143 -2.14798e-21)
(1.03534 -0.00599878 4.31481e-22)
(1.03603 -0.00564917 4.04937e-21)
(1.03599 -0.00637994 3.2825e-22)
(1.05088 -0.00965682 -4.16227e-21)
(1.04986 -0.0098518 -2.65605e-21)
(1.05073 -0.0109202 1.56845e-21)
(1.01505 0.00965415 -4.04865e-22)
(1.01558 0.00955636 2.02004e-22)
(1.00957 0.00050885 0)
(1.00978 0.000573898 -1.85989e-22)
(1.01014 0.000693391 -2.05346e-22)
(1.13577 0.126114 -7.80909e-21)
(1.14006 0.130548 9.10169e-21)
(1.14186 0.124949 -2.07433e-21)
(1.10387 0.0779988 2.17754e-21)
(1.10384 0.0818203 1.71326e-20)
(0.956669 -0.00262725 8.1473e-21)
(0.954974 -0.00168242 -1.02657e-20)
(1.19454 0.270026 3.14119e-20)
(1.18461 0.274678 -2.56725e-20)
(1.18663 0.263052 -2.47139e-20)
(0.946218 0.00757806 1.52734e-20)
(0.944675 0.00959714 -1.73705e-21)
(1.02215 0.000701502 1.04249e-21)
(1.02205 0.000963836 3.12039e-22)
(1.02251 0.000905975 -6.09293e-23)
(0.986822 0.00477848 1.22978e-20)
(0.986558 0.00542767 1.12647e-20)
(0.937502 0.319353 -1.09876e-21)
(0.946489 0.327897 -5.10916e-21)
(0.949937 0.313849 -6.2224e-21)
(1.00443 0.0230593 0)
(1.00379 0.0227831 0)
(0.0224206 -0.00794263 -7.62122e-23)
(0.0390247 -0.0108113 -1.17602e-21)
(0.020799 -0.00738387 0)
(1.01468 -4.84321e-05 2.68188e-22)
(1.01486 -5.3432e-05 3.61436e-22)
(1.01384 0.000105811 -2.1738e-22)
(1.20275 0.266331 2.70249e-20)
(1.20121 0.277662 3.30646e-20)
(1.14497 0.0706022 1.44303e-21)
(1.14654 0.0677704 -2.14163e-20)
(1.14906 0.0713236 -1.41978e-20)
(0.936041 0.0282468 -2.39707e-21)
(0.934223 0.0264249 1.15915e-20)
(0.937032 0.0255178 -9.13003e-22)
(1.13673 0.070277 -7.4807e-21)
(1.13457 0.0737456 -2.96871e-21)
(1.13265 0.0700299 -4.81097e-22)
(1.01484 0.0112892 0)
(1.01527 0.0115053 1.81754e-22)
(1.01505 0.0109772 6.14249e-24)
(1.01935 0.00243472 3.49669e-22)
(1.01914 0.0022364 0)
(1.01952 0.00223617 3.25097e-22)
(1.01727 0.0217302 -2.04684e-22)
(1.01735 0.0223762 -1.54079e-22)
(1.01665 0.0219466 -2.1716e-22)
(0.999982 0.000412879 2.93251e-22)
(0.999973 0.00039812 -3.54437e-21)
(0.999989 0.000251351 -1.94157e-21)
(0.303783 -0.0294059 -1.03535e-20)
(0.322796 -0.0318174 -1.45396e-20)
(0.336178 -0.0324028 4.17807e-21)
(1.00043 0.00643001 2.55e-21)
(1.00053 0.00653619 1.09065e-21)
(1.00046 0.00625733 1.19048e-21)
(1.00178 0.000346086 9.71738e-22)
(1.00192 0.000343788 7.74505e-22)
(1.00172 0.000197086 1.03111e-21)
(1.1311 -0.103357 2.07439e-22)
(1.13331 -0.101218 4.0023e-21)
(1.13416 -0.104977 4.28303e-21)
(1.02543 0.0355417 0)
(1.02662 0.0356846 -3.14117e-22)
(0.11311 0.437701 -2.15149e-20)
(0.0992906 0.483461 -8.41839e-22)
(0.145278 0.460608 2.5389e-20)
(1.23339 0.131055 1.44089e-20)
(1.23036 0.125417 -3.13859e-20)
(1.22557 0.130785 1.47589e-20)
(1.01444 0.0110408 -1.54816e-22)
(1.01459 0.0116444 0)
(1.13826 -0.0228479 2.18047e-21)
(1.139 -0.0207797 -2.48247e-20)
(1.13641 -0.021097 -3.04097e-21)
(1.01645 0.00904374 5.79905e-23)
(1.0164 0.00946934 6.15947e-24)
(1.01688 0.00935191 -2.09398e-23)
(1.01767 0.198823 -1.19602e-21)
(1.01671 0.191846 -1.01634e-21)
(1.02337 0.194252 8.8725e-22)
(-0.282752 -0.0110009 0)
(-0.302366 -0.0087596 0)
(1.09451 0.0760925 -8.6151e-21)
(1.09735 0.0740411 -1.72922e-20)
(0.027891 0.111311 0)
(0.0382241 0.110287 -4.98132e-21)
(0.0270691 0.0909516 -5.98718e-21)
(0.861046 0.0552483 -1.78746e-20)
(0.855669 0.0582304 -7.879e-21)
(0.855923 0.0503238 -9.77373e-21)
(0.99661 0.00102435 1.38528e-22)
(0.977673 0.0355677 5.79212e-21)
(0.977864 0.0339928 4.73545e-21)
(1.16274 0.0967004 -1.66325e-20)
(1.16519 0.0918795 -7.50926e-21)
(1.16026 0.0932894 4.48755e-21)
(1.00007 0.000447749 1.26549e-21)
(1.00005 0.000372968 -1.5803e-21)
(1.00005 0.000353799 1.01725e-21)
(1.23612 0.137188 -2.27087e-20)
(1.24073 0.129904 0)
(1.01182 0.0112745 4.47993e-22)
(1.01142 0.011116 2.48696e-23)
(1.01161 0.0115518 -4.63334e-22)
(1.15017 0.0243349 1.27394e-20)
(1.15381 0.0236923 0)
(1.00423 0.00738737 8.84703e-22)
(1.00437 0.00732023 -1.79428e-21)
(0.648449 -0.0539328 8.34915e-21)
(0.684934 -0.0541638 8.72135e-21)
(0.624811 -0.0540039 -8.75994e-21)
(1.05108 -0.00761369 1.2799e-21)
(1.05144 -0.00661645 2.83038e-22)
(1.05236 -0.0079123 4.7584e-21)
(1.06486 -0.0280678 3.10416e-21)
(1.06563 -0.0295128 1.65327e-21)
(1.06661 -0.0281628 1.68904e-21)
(1.01674 0.0196285 0)
(1.01653 0.0189749 0)
(1.01608 0.0193065 4.35187e-22)
(1.00369 0.00674697 -9.05868e-22)
(1.00369 0.00700855 4.29543e-21)
(1.24935 0.357715 -2.12542e-20)
(1.2583 0.366501 3.54274e-20)
(1.24334 0.369082 2.90938e-20)
(0.970009 0.0837392 1.93788e-20)
(0.973378 0.0859074 9.17359e-21)
(1.065 0.181247 2.9773e-21)
(1.06824 0.186885 2.077e-21)
(1.07084 0.180271 2.59061e-21)
(0.999151 0.00418936 2.65514e-21)
(0.999163 0.00443862 -7.64767e-22)
(1.18243 0.0113872 -1.92449e-20)
(1.18026 0.00866692 4.58895e-21)
(0.134769 0.0198861 5.00827e-21)
(0.16375 0.0208802 7.89675e-21)
(0.166895 0.0157317 1.79342e-21)
(0.449713 0.00433138 -1.79302e-20)
(0.505656 -0.00700498 -7.43181e-23)
(-0.0240009 0.130284 -1.023e-20)
(-0.0132397 0.129339 -1.26904e-20)
(0.319946 -0.0439359 -3.22771e-21)
(0.285359 -0.0395534 1.24579e-20)
(0.307982 -0.0435592 1.6941e-20)
(1.16012 -0.0540302 -1.07988e-20)
(1.15995 -0.0533646 -2.32614e-20)
(1.16162 -0.0530464 3.61413e-21)
(1.01451 -6.83995e-05 -4.15845e-23)
(1.01507 1.45844e-05 0)
(0.999993 0.0059366 0)
(0.999926 0.00572714 -1.3917e-21)
(1 0.00565803 0)
(1.01833 0.000478153 -2.73116e-22)
(1.01862 0.000521806 -2.30567e-22)
(1.01842 0.000339538 8.87189e-22)
(-0.0165342 0.0166345 -2.39603e-20)
(-0.0154436 0.0299452 -3.15418e-22)
(0.11527 -0.0530016 9.47888e-21)
(0.104376 -0.0493385 -2.14137e-20)
(1.0253 0.0150331 7.92115e-22)
(1.02559 0.0144935 3.78745e-22)
(1.02598 0.0152335 -7.88143e-22)
(1.073 -0.00249889 1.62604e-21)
(1.07344 -0.00107599 6.9346e-21)
(1.07479 -0.00279777 -1.02196e-20)
(0.28523 -0.028062 -4.86025e-21)
(0.273531 -0.027826 -4.98078e-21)
(-0.201093 0.0122107 1.53595e-24)
(-0.191489 0.0117179 0)
(-0.177622 0.0164671 0)
(-0.012105 0.113174 3.07818e-21)
(-0.00833036 0.115676 -9.37277e-21)
(-0.00702212 0.10851 -1.99983e-21)
(-0.215416 0.0103298 3.8628e-20)
(-0.225858 0.0091729 4.75319e-20)
(-0.202267 0.0137134 5.84704e-21)
(1.09888 0.138725 -7.73375e-21)
(1.10533 0.137516 3.78479e-21)
(1.09985 0.133394 9.40792e-21)
(1.13609 -0.0586946 1.3433e-20)
(1.11634 -0.0595897 -1.15221e-20)
(1.1511 -0.0552042 -1.18226e-20)
(1.04247 -0.0108597 -3.89149e-21)
(1.04275 -0.0100491 2.3149e-21)
(1.0435 -0.0109535 -2.35833e-21)
(1.15848 -0.0305634 4.7298e-21)
(1.15776 -0.0323004 -2.65091e-20)
(1.15987 -0.0318796 -1.56587e-20)
(-0.360277 -0.00263277 3.42708e-20)
(-0.361829 -0.00291924 -3.55249e-23)
(-0.393331 -0.00208877 0)
(1.13188 0.315255 -1.63175e-20)
(1.12576 0.306931 1.03049e-20)
(1.13725 0.30419 2.9792e-20)
(1.10182 0.0238585 6.09609e-21)
(1.10358 0.0251105 -1.29184e-21)
(1.10394 0.0225437 1.63924e-20)
(0.493221 -0.287464 -1.07946e-20)
(0.468979 -0.312908 -4.41775e-20)
(0.998217 0.0232501 1.29732e-21)
(0.998819 0.0236507 -2.96373e-21)
(0.998208 0.0241893 5.37317e-22)
(0.950406 0.0182193 4.41141e-21)
(0.952437 0.0178691 4.59635e-21)
(0.951777 0.020057 -1.72508e-20)
(0.999047 0.00334036 1.24246e-21)
(0.999027 0.00355861 -1.43381e-21)
(0.998923 0.00357643 -6.33717e-21)
(0.948852 0.0167671 0)
(0.948281 0.0189917 0)
(0.305355 -0.0216196 4.30957e-21)
(0.276385 -0.0183495 -1.72669e-21)
(0.296325 -0.0210053 -1.15226e-21)
(1.00293 0.000774933 -4.36728e-22)
(1.00311 0.000840184 1.76957e-21)
(1.00295 0.00100013 2.06528e-21)
(0.0743313 -0.286165 -8.41264e-20)
(0.0647268 -0.318884 -2.73009e-20)
(0.0504976 -0.308928 -1.70699e-20)
(0.67087 -0.054185 -7.1416e-21)
(0.616441 -0.0532381 -4.17498e-21)
(0.0798173 0.333161 -2.29982e-20)
(0.0716779 0.360585 0)
(0.0520287 0.357683 -6.97575e-20)
(1.09329 0.140393 -1.13484e-20)
(1.09867 0.145115 -7.16062e-21)
(0.114076 -0.0137003 1.13901e-20)
(0.0966428 -0.0130926 1.21167e-21)
(1.38129 0.0896545 0)
(1.38615 0.0852629 0)
(1.38774 0.0960575 0)
(1.05099 -0.00868798 -2.98013e-21)
(1.05003 -0.00755519 4.41729e-21)
(1.1605 0.0996302 8.48065e-21)
(1.1651 0.0991386 -8.76368e-21)
(1.02464 0.0148065 1.82129e-23)
(1.02498 0.0155726 -7.75871e-22)
(1.12711 0.325103 -2.37238e-20)
(1.13865 0.322579 -2.10423e-21)
(1.01712 0.0209535 0)
(1.01795 0.0213477 -3.24429e-22)
(0.999997 0.00086678 2.39316e-21)
(0.999993 0.000899608 7.37661e-22)
(0.999992 0.000669738 -1.46947e-22)
(1.38316 0.25226 -3.34954e-20)
(1.36153 0.250529 -2.47603e-20)
(1.32147 0.227294 2.76479e-20)
(1.01822 0.000648997 -5.31423e-22)
(1.01803 0.000429964 0)
(1.01918 0.00260183 6.44184e-22)
(1.01956 0.00259911 9.29161e-22)
(1.19791 -0.0812928 9.55108e-21)
(1.20503 -0.0825516 -1.3504e-20)
(1.1741 -0.0837002 5.64765e-20)
(1.12894 -0.00482519 -4.21125e-22)
(1.12691 -0.00587775 2.29871e-20)
(1.12714 -0.00368763 4.34048e-21)
(1.07284 -0.00421326 -1.96385e-21)
(1.07138 -0.0025147 0)
(0.913553 0.195015 -2.12806e-21)
(0.911728 0.18651 0)
(0.919985 0.189365 0)
(1 0.000864176 -4.83931e-23)
(0.999982 0.0010911 -6.15418e-22)
(1.02239 0.0278654 2.182e-22)
(1.02275 0.0272966 2.29752e-22)
(1.0234 0.0277299 4.88719e-22)
(1.02153 4.37354e-05 -2.95347e-22)
(1.02188 3.83236e-05 -9.02647e-22)
(0.992609 0.0140142 -2.12362e-21)
(0.991908 0.0140326 -3.32767e-21)
(0.992158 0.0148999 2.89402e-21)
(1.17186 0.169903 -7.40926e-21)
(1.16497 0.172592 1.87816e-20)
(1.16592 0.165703 2.13374e-20)
(-0.0182034 0.112613 -7.98955e-21)
(-0.0153228 0.10722 0)
(-0.0601291 0.101058 4.73353e-21)
(-0.0562625 0.0932551 3.11455e-20)
(-0.0645279 0.0940119 -8.91207e-21)
(0.999537 0.0470746 5.26042e-22)
(0.998304 0.0482264 2.90916e-21)
(1.00036 0.0485044 4.44576e-22)
(0.998192 0.0225268 1.34381e-21)
(0.997612 0.0230109 8.02797e-21)
(0.39235 0.0235943 6.06515e-20)
(0.365199 0.0248816 -6.42877e-20)
(0.37945 0.0498333 -4.41e-20)
(0.97533 0.031891 -1.51922e-22)
(0.975039 0.0303558 -8.15451e-21)
(0.976429 0.0310026 0)
(0.911964 0.00373933 -1.06578e-20)
(0.909875 0.00659393 1.27879e-21)
(0.908223 0.00293135 -9.0814e-21)
(0.0881516 0.0444642 3.07009e-21)
(0.124609 0.0364782 -4.4273e-21)
(0.0876068 0.0304194 -6.72736e-21)
(1.06162 0.00883258 2.43994e-21)
(1.06225 0.00787836 8.69513e-22)
(1.06306 0.0092151 -2.17763e-21)
(0.0921888 0.057614 2.83815e-21)
(0.0625242 0.0538445 -6.52746e-22)
(1.04316 0.000566435 -7.65124e-22)
(1.04424 0.000508505 3.47725e-21)
(1.04348 -0.000212406 2.9304e-21)
(0.974091 0.0325746 6.40536e-21)
(1.13353 0.122953 -2.19032e-22)
(1.13201 0.126927 -7.34668e-22)
(0.132825 0.39464 -5.3313e-20)
(0.0848218 0.392872 4.70405e-20)
(1.12492 -0.0672132 4.65812e-21)
(1.12615 -0.0654475 1.36099e-20)
(1.12708 -0.068201 2.20226e-20)
(1.00003 0.000400378 1.95431e-21)
(1.00003 0.000492325 -5.13624e-22)
(1.00001 0.000327027 2.34876e-21)
(1.19443 -0.0806256 1.8622e-20)
(1.20028 -0.0783331 -5.38828e-20)
(0.100064 0.315379 -2.38252e-20)
(0.0711605 0.305282 4.95035e-21)
(1.00004 0.000468192 -3.72271e-21)
(1.00003 0.000334642 -3.12108e-21)
(1.14354 -0.0197106 -1.09217e-20)
(1.14134 -0.0204916 -8.86817e-21)
(1.14333 -0.0219138 0)
(1.01425 0.101935 2.39806e-21)
(1.01136 0.103315 1.81756e-21)
(1.01504 0.105027 5.17195e-22)
(1.05181 0.0622526 0)
(1.05283 0.0600516 -1.13399e-21)
(1.05029 0.0604153 8.67946e-22)
(0.910633 0.0930165 -2.01625e-21)
(0.905574 0.0935781 2.60823e-21)
(0.909979 0.0982346 -1.04627e-20)
(1.07273 -0.00559868 -3.5293e-21)
(1.07437 -0.00566906 6.01367e-22)
(1.1676 -0.0787554 1.13287e-21)
(1.16732 -0.0813767 1.95496e-20)
(1.16579 -0.0791154 -1.77733e-21)
(0.494775 0.706623 -2.06046e-20)
(0.520889 0.665193 0)
(0.465158 0.655204 0)
(0.110486 0.051618 -6.96959e-20)
(0.156699 0.0574053 4.55908e-21)
(0.212234 0.0663081 -9.5905e-20)
(1.12529 0.0857459 1.66815e-20)
(1.12853 0.0824993 -1.13271e-20)
(1.12341 0.0817898 -1.20734e-20)
(1.21751 -0.0163001 -1.6827e-20)
(1.22164 -0.0158742 9.14114e-21)
(1.21826 -0.0127615 1.34616e-20)
(1.01357 0.0110598 5.47066e-23)
(1.01398 0.0109985 -1.27638e-23)
(1.01388 0.0114279 1.18576e-22)
(-0.0556821 0.242685 0)
(-0.0657615 0.240036 0)
(-0.0649338 0.231643 2.3509e-20)
(0.0936193 -0.0514098 2.24393e-21)
(0.0719782 -0.0481668 -1.19867e-20)
(0.0666808 -0.0450068 4.6701e-22)
(1.02092 0.00103077 2.1799e-22)
(1.02049 0.00111729 -2.92364e-22)
(1.02052 0.000817256 8.29642e-22)
(1.02128 0.00103244 2.11912e-22)
(1.02169 0.000986172 -3.03331e-22)
(1.02128 0.000739337 -9.34217e-22)
(0.991421 0.0686972 0)
(0.992371 0.0709054 0)
(0.131025 -0.00376405 -7.60447e-21)
(0.111788 -0.00290438 -2.3678e-21)
(0.110311 -0.00278174 -5.74173e-22)
(1.09812 -0.0767362 -3.99993e-22)
(1.09984 -0.0744455 -3.53794e-21)
(1.09689 -0.0739179 -2.56979e-22)
(1.00027 0.00577844 -5.9128e-23)
(1.00035 0.00582852 1.6324e-21)
(1.00032 0.00607536 1.92478e-21)
(1.39102 0.239747 0)
(1.38476 0.250108 2.53053e-20)
(0.244583 0.134459 -4.5974e-20)
(0.512009 0.24953 -2.70547e-20)
(0.367067 0.176332 -4.62235e-20)
(0.656973 -0.113088 -7.41681e-21)
(0.671962 -0.121298 0)
(0.673047 -0.104419 -2.71225e-20)
(1.21448 -0.017108 -1.62986e-20)
(1.21748 -0.0199599 0)
(1.08496 0.00588883 0)
(1.08513 0.00760307 2.48152e-21)
(1.08696 0.00592746 8.27026e-21)
(1.00537 0.00645262 -2.23462e-22)
(1.0056 0.00660884 -1.07615e-21)
(1.00551 0.00629737 -1.24332e-21)
(1.16482 -0.0638843 -6.12504e-21)
(1.16414 -0.0634333 0)
(1.16434 -0.0621512 -1.17244e-20)
(0.11941 -0.00264403 -5.75266e-21)
(0.130781 -0.00276071 5.31586e-21)
(0.144207 -0.00452306 5.49917e-24)
(0.250862 -0.0529694 9.10282e-21)
(0.273812 -0.0527574 2.26118e-20)
(0.288935 -0.0557202 -9.13093e-21)
(1.16516 -0.0490278 3.46863e-20)
(1.1641 -0.0486439 2.13579e-20)
(1.16485 -0.048042 1.41563e-21)
(0.938831 0.00504785 1.32247e-20)
(0.939918 0.0074694 -1.70871e-21)
(0.936687 0.00736959 0)
(-0.284018 0.0100538 -1.03203e-19)
(-0.293457 0.00846373 6.24814e-20)
(1.12812 -0.102007 3.72966e-22)
(1.0047 0.0238408 0)
(1.00424 0.0242334 0)
(1.00493 0.0245397 0)
(1.07257 -0.00708896 -3.52973e-21)
(1.07124 -0.0055875 7.81023e-21)
(1.10624 -0.054754 -1.4937e-20)
(1.06148 -0.0574981 3.06507e-21)
(1.07724 -0.054536 -1.27795e-20)
(0.897915 0.216248 0)
(0.896501 0.206819 2.08909e-21)
(0.886973 0.211876 1.52171e-20)
(0.977929 0.0369478 8.84414e-21)
(0.97667 0.0381457 5.44236e-21)
(0.978605 0.0386698 -6.73634e-21)
(1.28488 -0.0634393 -3.62699e-20)
(1.27373 -0.0704188 -3.61153e-20)
(1.28341 -0.0636338 2.32822e-20)
(1.08506 0.00391271 0)
(1.08318 0.00557874 0)
(1.11097 -0.00792161 -2.01536e-21)
(1.1113 -0.00590388 0)
(1.11316 -0.00782692 2.1605e-20)
(1.02124 0.00127391 -9.48471e-23)
(1.05411 0.0154116 1.15794e-22)
(1.05355 0.0143535 3.26154e-21)
(1.05493 0.0146027 -9.18542e-22)
(0.944237 0.0456568 1.55964e-21)
(0.941292 0.0452153 -1.28393e-20)
(0.942891 0.0485711 1.34987e-20)
(0.160247 0.0845072 -2.50529e-20)
(0.0965606 0.0628714 0)
(0.0519054 0.0502725 0)
(0.23063 -0.0495275 0)
(0.220354 -0.0468176 3.64004e-21)
(-0.307712 -0.00253028 3.01666e-20)
(-0.342402 -0.00637271 0)
(-0.302595 -0.00392035 0)
(0.998941 0.117847 -1.93734e-21)
(0.996398 0.114649 9.22161e-22)
(1.00078 0.113063 -3.12422e-21)
(0.10552 -0.276304 4.30401e-20)
(0.082 -0.250082 1.73584e-20)
(-0.0966614 0.00568737 -8.82312e-20)
(-0.120981 0.00604358 -3.40219e-20)
(-0.136432 0.00639004 2.89146e-20)
(-0.0831404 -0.0170685 1.55875e-20)
(-0.103111 -0.0201878 1.28722e-19)
(-0.118388 -0.0186366 -4.65621e-21)
(1.11064 -0.0103022 -1.49195e-20)
(1.10872 -0.00840672 -8.58388e-23)
(1.02173 0.0284565 0)
(1.0223 0.029085 0)
(1.04234 0.00046163 -4.18269e-21)
(1.0429 0.00124758 -1.01679e-21)
(0.430738 0.0110678 -2.25205e-20)
(0.412665 0.0189455 1.48483e-21)
(0.461675 0.00869768 -1.02068e-20)
(0.998922 0.0457333 0)
(1.00069 0.0462571 0)
(1.01329 0.0106009 6.19477e-22)
(1.01313 0.0109892 -1.19152e-22)
(1.25482 0.346759 -1.96265e-20)
(1.24561 0.351305 2.34031e-20)
(0.880594 -0.0591254 1.80795e-20)
(0.92537 -0.0653652 -2.15942e-20)
(0.940572 -0.0684669 1.28465e-21)
(0.402953 0.0126677 -2.59518e-21)
(0.999141 0.00311875 2.39358e-21)
(0.999066 0.00315572 -3.42182e-22)
(1.06023 0.00842631 4.49389e-21)
(1.06082 0.00997078 1.74904e-21)
(1.2957 0.248406 6.20436e-21)
(1.28876 0.246173 1.24676e-21)
(1.29624 0.238193 -6.24729e-20)
(0.993442 0.0153226 1.29448e-21)
(0.994014 0.0154127 1.4034e-21)
(0.993686 0.0161153 3.1877e-21)
(1.06251 0.174613 0)
(1.05845 0.181177 -7.77606e-22)
(1.02337 0.0266367 7.40788e-25)
(1.02218 0.026532 3.43776e-23)
(0.0369178 0.0470323 3.88709e-20)
(0.0779775 0.0510859 9.76716e-23)
(0.986226 0.0365133 3.30468e-21)
(0.985421 0.0352954 -3.53919e-21)
(0.984757 0.0368284 5.75209e-23)
(-0.134378 0.0170801 -2.25151e-20)
(-0.151866 0.0145272 -2.68545e-20)
(-0.165846 0.0138613 1.29911e-20)
(0.122187 0.000197756 1.78146e-21)
(0.148553 -0.000806668 5.86641e-21)
(0.133687 0.00125034 -8.94167e-21)
(0.557119 0.000291821 -3.38464e-20)
(0.537124 -0.00250634 2.69472e-20)
(0.547578 0.0181302 9.35291e-20)
(1.02097 0.0291968 0)
(1.02089 0.0279386 1.04868e-22)
(0.999986 0.000413777 4.03432e-21)
(0.999961 0.000572764 4.40873e-21)
(1.06406 -0.0266632 -1.49579e-21)
(1.06313 -0.0278699 -1.30269e-21)
(1.032 0.0889902 -9.71696e-22)
(1.03256 0.0918625 9.35425e-22)
(1.0353 0.089646 3.0335e-21)
(-0.113839 0.0182768 6.10291e-20)
(-0.0947911 0.0177857 6.70604e-21)
(1.01626 0.0554706 8.78889e-23)
(1.01572 0.0570306 -4.89958e-22)
(1.01778 0.0567103 8.86387e-22)
(0.999384 0.00462095 8.70786e-22)
(0.99946 0.00459768 1.50069e-21)
(0.999449 0.00434032 -1.99107e-21)
(1.00021 0.00578372 -4.76077e-21)
(1.00024 0.00554659 -1.27857e-22)
(1.15882 0.317778 1.50539e-20)
(1.165 0.325843 -1.76326e-21)
(1.17023 0.314898 5.2256e-21)
(1.16834 -0.0499129 -1.21093e-20)
(1.16758 -0.0498733 -1.24249e-20)
(1.17025 -0.0496173 2.04636e-20)
(-0.307275 0.00143446 -5.2736e-20)
(1.09987 0.0219194 1.47059e-20)
(1.09926 0.0244792 3.17052e-22)
(1.22648 -0.0115517 4.71597e-20)
(1.22783 -0.00637137 4.12026e-20)
(1.22318 -0.00711597 7.03765e-21)
(1.03635 -0.00763786 -2.48822e-21)
(1.03599 -0.00689835 -2.63522e-21)
(1.01263 0.0115881 1.20328e-22)
(1.01289 0.0113024 -2.98609e-22)
(1.01315 0.0117572 -3.51485e-22)
(0.981704 0.0371093 -1.43493e-22)
(0.982587 0.0355582 -7.72738e-21)
(0.983246 0.0370317 -1.69475e-21)
(0.111768 0.000496008 -7.13362e-22)
(0.0916813 0.00124998 1.17263e-20)
(1.36169 0.0670602 1.35242e-20)
(1.33506 0.0595478 -9.96559e-21)
(1.30424 0.0646855 2.003e-20)
(0.0596581 -0.0885872 0)
(0.0797888 -0.108484 -3.11062e-20)
(0.0596348 -0.120349 -1.16034e-21)
(1.12358 -0.0693864 -1.15053e-20)
(1.12251 -0.0664016 -1.97819e-20)
(1.01411 0.0985629 0)
(1.01783 0.100468 2.0734e-22)
(1.05444 0.0164039 -3.23945e-21)
(1.053 0.0160543 6.17651e-22)
(0.228451 0.778128 -2.45805e-21)
(0.178323 0.858779 3.48594e-20)
(0.292697 0.845799 9.03666e-21)
(1.08519 0.00228533 0)
(1.08703 0.00251032 -7.07123e-21)
(-0.0601221 -0.0172888 -3.5221e-20)
(-0.0376409 -0.0203854 -5.20537e-20)
(0.990865 0.0351219 4.39294e-21)
(0.990042 0.0358945 -6.50873e-22)
(0.991266 0.036391 6.44154e-21)
(-0.238483 0.015622 -1.1645e-19)
(-0.253906 0.0144953 -3.97445e-20)
(-0.223131 0.0171153 -7.33319e-20)
(0.75197 -0.0407206 2.11236e-20)
(0.728045 -0.0344387 6.36473e-21)
(0.792133 -0.0493357 -8.55124e-21)
(1.14337 -0.0171916 1.25525e-20)
(1.14543 -0.0187895 -1.73462e-20)
(1.00007 0.0285712 1.38318e-22)
(0.999373 0.0289498 -2.43032e-21)
(0.999439 0.0279554 5.49387e-21)
(1.00605 0.000471437 1.81916e-22)
(1.00634 0.000476996 0)
(1.00557 0.00025209 1.69541e-21)
(1.09173 0.0781234 8.43987e-21)
(1.09167 0.0744936 1.46525e-20)
(1.16956 0.0906267 -1.97298e-20)
(1.17389 0.0890271 7.77419e-21)
(1.17368 0.0939112 -1.48676e-20)
(0.244203 0.106816 -1.12908e-19)
(0.319121 0.122298 5.1177e-20)
(1.13066 -0.00602381 -9.34043e-21)
(1.13091 -0.00374179 -4.43855e-21)
(1.00834 0.00622121 9.00099e-22)
(1.00819 0.0063947 -1.31844e-22)
(1.00855 0.00656155 -2.33246e-22)
(1.01302 0.0102287 2.16372e-23)
(1.01261 0.0101377 -2.32757e-22)
(1.01278 0.00984549 -5.73915e-22)
(0.999975 0.000582319 -3.2765e-21)
(0.999982 0.000464331 -1.30271e-21)
(0.999965 0.000677012 1.59147e-21)
(1.22555 -0.0154237 4.24025e-20)
(1.22486 -0.0193926 -1.66661e-20)
(1.0937 0.261845 1.42255e-21)
(1.09546 0.268176 -1.37489e-20)
(1.0869 0.265294 1.57905e-20)
(0.596523 -0.0318145 1.37956e-19)
(0.576356 -0.036969 -8.92318e-20)
(0.590652 -0.0523835 7.11761e-20)
(0.98292 0.0529815 0)
(0.983083 0.0550447 -3.0316e-21)
(0.984896 0.0536547 0)
(0.0851929 0.102513 0)
(0.082419 0.0930957 4.82458e-21)
(0.0733848 0.104725 0)
(1.16633 -0.049704 1.1052e-20)
(1.16508 -0.0503982 -1.88198e-20)
(1.15882 -0.0288152 2.74341e-20)
(1.15704 -0.0297859 2.06672e-20)
(1.03836 0.0279424 -1.14306e-21)
(1.03823 0.0268539 1.24914e-21)
(1.03948 0.0273959 -1.48257e-22)
(1.28917 -0.062114 2.32419e-20)
(1.28648 -0.0585179 6.17438e-21)
(1.01692 0.0203099 0)
(1.01744 0.0199559 0)
(0.996188 0.00991133 2.44252e-21)
(0.995842 0.0100362 1.13717e-21)
(0.99618 0.0103336 4.12827e-21)
(1.0371 0.835841 4.5354e-20)
(1.03904 0.794803 1.85653e-20)
(1.08547 0.812146 5.24464e-20)
(1.00865 0.000652273 0)
(1.00892 0.000828967 -2.83044e-22)
(1.00871 0.000521436 3.16212e-22)
(1.00436 0.00769497 1.16472e-21)
(1.00413 0.00751489 1.28913e-21)
(1.16225 -0.0265699 1.34002e-20)
(1.16028 -0.0273319 6.32243e-21)
(1.16177 -0.0295998 -1.20848e-20)
(1.00335 0.015696 -1.11031e-21)
(1.00316 0.0160739 2.8354e-21)
(1.00362 0.0162565 3.84987e-21)
(-0.0421195 0.027313 -1.27919e-20)
(-0.033507 0.0269871 -6.66239e-21)
(-0.0307077 0.0126232 9.74935e-21)
(1.08531 0.000567549 -1.25334e-20)
(1.08359 0.00197895 5.42217e-21)
(0.928209 0.0174606 -1.62721e-21)
(0.925578 0.0189848 -1.37141e-20)
(0.926091 0.0154921 -6.4389e-21)
(1.0083 0.000435611 -3.46482e-22)
(1.00846 0.000870044 2.0838e-22)
(1.12265 0.0880878 6.6535e-21)
(1.1273 0.0885982 1.9719e-20)
(-0.285711 -0.00544103 5.97126e-20)
(-0.3134 -0.00484797 4.2626e-21)
(-0.303568 -0.00481099 0)
(1.052 -0.00974097 -1.59379e-21)
(1.01457 0.00443636 7.13348e-23)
(1.01451 0.00473498 -1.08006e-23)
(0.98956 4.69978e-05 1.30319e-20)
(0.989049 0.000294236 8.56622e-22)
(0.989657 0.000576555 6.97453e-21)
(1.15557 -0.0448673 1.32823e-20)
(1.15567 -0.0436716 -6.395e-22)
(1.15441 -0.0443215 -1.21076e-20)
(0.205206 -0.018211 4.24124e-21)
(0.203431 -0.019346 2.3342e-21)
(0.182188 -0.0155204 1.80843e-20)
(0.999993 0.000532421 -3.86176e-22)
(0.999973 0.000781273 -1.75525e-21)
(1.00002 5.36426e-05 -3.41548e-22)
(1.00001 3.26557e-05 9.89555e-22)
(1.00002 3.8317e-05 -2.59065e-21)
(0.841109 -0.0555189 -7.29857e-21)
(0.829905 -0.0555008 1.09809e-20)
(1.11004 0.136835 1.00842e-20)
(1.11181 0.132407 6.1531e-21)
(1.11502 0.136644 8.57357e-21)
(1.12316 -0.0716873 -1.58038e-21)
(1.12258 -0.0740853 0)
(1.12523 -0.0725182 0)
(0.632869 0.385512 0)
(0.651796 0.405717 1.5568e-20)
(0.619301 0.410068 -1.76292e-20)
(0.996199 0.00948354 -1.96403e-21)
(0.99651 0.00978186 -2.58169e-21)
(1.16625 0.0874983 0)
(0.963775 0.0283855 -1.57236e-20)
(0.965392 0.0293295 0)
(0.963614 0.0307273 4.30681e-21)
(1.00002 7.32468e-05 0)
(1.00004 7.66327e-05 -3.97936e-22)
(0.649136 0.361582 2.95821e-20)
(0.618785 0.361715 0)
(1.16772 -0.0768629 -8.02706e-21)
(1.16891 -0.0789561 -1.44115e-20)
(1.20449 -0.109208 -6.68641e-21)
(1.20213 -0.105411 2.31624e-21)
(1.20014 -0.110274 -1.11482e-20)
(1.15554 -0.0456853 -1.00976e-20)
(1.15663 -0.0452801 -2.76172e-21)
(1.01812 0.000817665 -1.6022e-22)
(1.01842 0.000853959 -6.38639e-22)
(0.645086 -0.100966 3.60643e-20)
(0.642217 -0.118321 -5.83656e-21)
(1.04152 -0.0108955 0)
(1.04073 -0.0102086 0)
(1.0037 0.0357988 1.96355e-21)
(1.00445 0.034826 -2.48841e-21)
(1.37837 0.0800915 0)
(1.38239 0.0740125 0)
(1.00085 0.0215749 3.85255e-21)
(1.00029 0.0212727 -1.11103e-21)
(1.00076 0.0207556 -3.63921e-21)
(1.23008 -0.0150053 1.50906e-20)
(0.929337 0.308157 5.70191e-21)
(0.922804 0.321758 1.12493e-20)
(1.00005 0.00613303 -1.61101e-21)
(0.999955 0.0061989 -3.20954e-21)
(1.01667 0.00296831 -3.44895e-23)
(1.01661 0.00275796 -1.49161e-22)
(1.0169 0.0028602 -1.46918e-22)
(1.22876 -0.00268778 1.0664e-20)
(1.23163 -0.00686988 -2.89008e-21)
(0.0244378 0.0148605 4.95932e-21)
(0.0119524 -0.000992088 -9.92253e-21)
(0.0410443 0.00317346 0)
(-0.0704672 0.00395819 -3.79511e-20)
(-0.0515698 0.00729814 8.71835e-21)
(1.01931 0.0398599 0)
(1.01858 0.0408675 -5.97172e-22)
(1.01823 0.0395128 -8.13706e-22)
(0.916262 0.0924298 -2.91926e-21)
(0.912353 0.0876887 1.42046e-20)
(0.0188052 -0.00901098 -1.03731e-20)
(-0.00187466 -0.00520152 -1.3663e-20)
(1.02891 0.000697927 1.2223e-21)
(1.02932 0.00101459 -1.91753e-22)
(1.02869 0.00108701 2.2512e-22)
(1.16415 -0.0507138 3.5856e-22)
(1.17095 -0.0499184 -9.17542e-21)
(1.05982 -0.0313793 5.38413e-21)
(1.06104 -0.0302611 -3.97178e-21)
(1.05921 -0.0299876 -3.878e-21)
(0.96547 0.147509 7.24909e-21)
(0.959582 0.146339 7.17386e-21)
(0.963561 0.14176 7.15824e-22)
(1.16109 -0.0513692 1.48165e-20)
(1.15905 -0.051483 3.42187e-22)
(1.018 0.000978109 6.96387e-22)
(1.01783 0.000776253 9.22422e-22)
(0.521571 0.761611 -1.77008e-20)
(0.450946 0.749953 1.11371e-20)
(1.00232 0.0342857 -1.45778e-21)
(1.00301 0.0335525 -6.65279e-23)
(1.00204 0.033191 -1.47925e-21)
(0.905326 0.201349 -1.61049e-22)
(0.914996 0.204339 -2.19505e-21)
(1.00115 0.000319952 -8.14396e-22)
(1.00104 0.000254367 -8.13493e-22)
(1.00104 0.000404131 -1.35907e-21)
(1.12106 -0.0708589 -1.45944e-21)
(-0.276003 0.00401629 -6.42845e-21)
(-0.300137 0.00293728 -5.50469e-20)
(-0.278445 0.00356414 -3.53123e-20)
(0.999961 -7.86844e-05 -2.13944e-21)
(0.999953 -0.000105087 3.8607e-21)
(0.999931 -7.98868e-05 4.46831e-21)
(0.0631136 0.0852291 -4.32089e-20)
(0.14435 0.107503 2.78655e-20)
(1.11227 0.0251465 2.18686e-21)
(1.11282 0.0228314 1.88859e-21)
(1.11511 0.0248059 -1.48263e-21)
(0.995344 0.00354359 -2.78022e-21)
(0.995054 0.00346277 0)
(0.995153 0.00380905 5.66466e-24)
(1.14098 0.0701554 1.03904e-20)
(1.14297 0.0741418 1.79228e-20)
(1.13944 -0.0244256 1.59711e-20)
(1.13704 -0.0246645 1.60765e-20)
(1.10342 -0.0635343 8.68681e-21)
(1.0865 -0.0660595 8.20967e-21)
(1.13647 -0.064533 -3.75921e-21)
(0.321349 -0.0289265 -3.74745e-21)
(0.341003 -0.0287043 -8.18168e-21)
(0.35752 -0.0304902 4.35072e-21)
(1.13245 -0.0537823 1.07532e-20)
(1.143 -0.0516584 -7.10427e-21)
(0.991701 0.0345368 3.08728e-21)
(0.990587 0.0340331 -5.40443e-22)
(1.01648 0.00881375 -2.895e-23)
(1.01611 0.00889583 5.05682e-23)
(0.0901457 -0.0628615 -2.64979e-21)
(0.0572793 -0.0551291 -5.88813e-21)
(0.0691131 -0.0610128 7.48257e-21)
(0.70489 -0.0681747 -1.09634e-20)
(0.691236 -0.0698436 -1.0341e-20)
(0.702116 -0.0817265 -2.17891e-20)
(0.999714 0.00564937 -1.06536e-21)
(0.999758 0.0053778 -5.91907e-21)
(0.999687 0.00542682 -4.14527e-21)
(1.01369 0.0534141 1.50914e-22)